# vtk DataFile Version 2.0
tri_press
ASCII
DATASET UNSTRUCTURED_GRID
POINTS 3682 float
-0.813612 0.145 -1.535
-0.888219 0.215 1.585
-0.805 0.638512 -1.405
-0.754924 0.875 1.595
0.813613 0.145 -1.535
0.888219 0.215 1.585
0.805 0.638512 -1.405
0.754933 0.875 1.595
-0.852073 0.154741 -0.495
-0.874914 0.180102 0.545
-0.867802 0.796836 -0.405
-0.83541 0.859965 0.595
0.852049 0.154766 -0.495
0.874877 0.18014 0.545
0.8678 0.79683 -0.405
0.835412 0.85996 0.595
-1.66048 -0.217336 -2.39326
-1.66293 -0.161849 -1.57728
-1.68978 -0.146862 -0.536243
-1.70351 -0.138206 0.512841
-1.70598 -0.112113 1.55455
-1.71077 -0.0832576 2.37385
-1.71713 -0.0502403 3.18701
-1.65911 0.0686754 -2.34264
-1.66172 0.14017 -1.53103
-1.69707 0.170991 -0.497776
-1.70252 0.189083 0.539075
-1.69396 0.215583 1.57309
-1.70635 0.2442 2.39183
-1.71772 0.276836 3.20629
-1.65665 0.616276 -2.23017
-1.65916 0.686153 -1.41691
-1.70285 0.803263 -0.410925
-1.67124 0.858215 0.592224
-1.61361 0.879544 1.59897
-1.66512 0.906107 2.41936
-1.70539 0.937352 3.24027
-1.66248 1.5325 -2.09155
-1.6673 1.61326 -1.28427
-1.68394 1.73643 -0.29126
-1.68492 1.82924 0.693132
-1.67665 1.87836 1.68656
-1.68681 1.90596 2.49471
-1.70787 1.93391 3.31125
-0.826183 -0.215658 -2.39584
-0.818799 -0.157925 -1.58104
-0.840946 -0.154562 -0.535738
-0.857083 -0.145641 0.517898
-0.866041 -0.115202 1.56339
-0.876081 -0.0862432 2.37985
-0.883322 -0.0532021 3.19048
-0.827277 0.0650449 -2.34343
-0.886271 0.24179 2.39678
-0.890396 0.274071 3.20891
-0.824547 0.595302 -2.22522
-0.853067 0.903322 2.41857
-0.886133 0.934971 3.2401
-0.823629 1.51827 -2.08666
-0.824322 1.59996 -1.27888
-0.841792 1.73264 -0.288012
-0.852662 1.83117 0.692743
-0.8538 1.87941 1.68378
-0.865404 1.9058 2.49193
-0.884311 1.93327 3.30923
0.828232 -0.215654 -2.39584
0.836053 -0.157919 -1.58104
0.859577 -0.154541 -0.535738
0.87748 -0.145613 0.517898
0.880182 -0.115192 1.56339
0.830935 -0.086235 2.37985
0.801027 -0.0531929 3.19048
0.816859 0.0650469 -2.34343
0.805554 0.241795 2.39678
0.782978 0.274079 3.20891
0.815209 0.595303 -2.22523
0.758596 0.903326 2.41857
0.759207 0.934978 3.2401
0.845841 1.51828 -2.08666
0.851943 1.59996 -1.27889
0.844101 1.73264 -0.288012
0.815432 1.83117 0.692743
0.786415 1.87942 1.68378
0.77218 1.90581 2.49193
0.76215 1.93328 3.30923
1.66335 -0.217327 -2.39326
1.67304 -0.161836 -1.57728
1.70468 -0.14683 -0.536243
1.72548 -0.138163 0.512841
1.72137 -0.112087 1.55455
1.68042 -0.0832378 2.37385
1.64743 -0.050221 3.18701
1.65163 0.0686813 -2.34264
1.65914 0.140177 -1.53103
1.69925 0.171019 -0.497776
1.71343 0.189125 0.539075
1.70142 0.215605 1.57309
1.65571 0.244216 2.39183
1.62792 0.276853 3.20629
1.64965 0.616279 -2.23017
1.65675 0.686153 -1.41691
1.70235 0.803267 -0.410925
1.67546 0.858228 0.592224
1.61176 0.879557 1.59897
1.59854 0.90612 2.41936
1.59579 0.937367 3.24027
1.68077 1.53251 -2.09155
1.68775 1.61326 -1.28427
1.6845 1.73643 -0.29126
1.65451 1.82925 0.693132
1.61821 1.87837 1.68656
1.60116 1.90597 2.49471
1.59234 1.93392 3.31125
-0.831491 0.391756 -1.49218
5.06639e-07 0.141169 -1.53883
-0.836828 0.145885 -1.015
-0.846465 0.545 1.61489
0 0.218724 1.58128
-0.878516 0.200602 1.065
0 0.712545 -1.47903
-0.870248 0.751521 -0.905
4.50015e-06 0.909432 1.62943
-0.803678 0.875993 1.095
0.831579 0.391756 -1.49227
0.836789 0.145925 -1.015
0.846466 0.545 1.61489
0.877977 0.201141 1.065
0.870249 0.75152 -0.905
0.803677 0.875985 1.095
-0.863736 0.167179 0.025
-0.888548 0.475788 -0.45
-1.17887e-05 0.159741 -0.495
-0.883503 0.520034 0.57
-1.83929e-05 0.18503 0.545
-0.856693 0.833487 0.095
-1.32642e-06 1.23485 -0.405
7.00463e-07 1.41618 0.595
0.863828 0.167088 0.025
0.888556 0.475798 -0.45
0.883506 0.52005 0.57
0.856696 0.833485 0.095
-0.888553 0.433772 -0.96
0.888553 0.433777 -0.96
-5.64102e-06 0.14914 -1.015
-6.63211e-07 1.02074 -0.905
2.5332e-07 0.391756 -1.70805
-0.881524 0.497911 0.06
0.881524 0.497924 0.06
-1.50908e-05 0.174482 0.025
-3.1298e-07 1.36314 0.095
-0.887163 0.532517 1.08
0.887166 0.532525 1.08
-9.19643e-06 0.203037 1.065
2.60031e-06 1.39589 1.095
2.25008e-06 0.545 1.74492
-0.823772 0.268378 -1.51481
-0.406806 0.139571 -1.54043
-0.826678 0.143985 -1.275
-0.870401 0.38 1.60301
-0.444109 0.218884 1.58112
-0.882165 0.209003 1.325
-0.825715 0.515134 -1.45606
-0.4025 0.698001 -1.46449
-0.863584 0.720977 -1.155
-0.814814 0.71 1.61907
-0.37746 0.899739 1.61974
-0.783396 0.879592 1.345
0.406807 0.139568 -1.54043
0.823784 0.268378 -1.51482
0.826655 0.144008 -1.275
0.444109 0.218908 1.58109
0.870239 0.38 1.60284
0.882688 0.208481 1.325
0.4025 0.698012 -1.4645
0.825716 0.515134 -1.45606
0.863627 0.721019 -1.155
0.377469 0.89976 1.61976
0.814809 0.71 1.61905
0.783393 0.87958 1.345
-0.858593 0.136171 -0.755
-0.85845 0.160415 -0.235
-0.883169 0.308836 -0.4725
-0.425991 0.157343 -0.495
-0.875517 0.19155 0.805
-0.870764 0.172202 0.285
-0.88269 0.348327 0.5575
-0.433026 0.191447 0.545
-0.869973 0.775126 -0.655
-0.888182 0.641316 -0.4275
-0.863414 0.816328 -0.155
-0.531093 1.21022 -0.405
-0.820651 0.869086 0.845
-0.883849 0.702195 0.5825
-0.84731 0.847984 0.345
-0.524362 1.35139 0.595
0.858593 0.136172 -0.755
0.426002 0.157288 -0.495
0.858446 0.160419 -0.235
0.883185 0.30884 -0.4725
0.875516 0.191551 0.805
0.433031 0.191382 0.545
0.870762 0.172204 0.285
0.882698 0.348342 0.5575
0.869982 0.775133 -0.655
0.531093 1.21023 -0.405
0.888187 0.641319 -0.4275
0.863448 0.816358 -0.155
0.820634 0.869062 0.845
0.524367 1.35139 0.595
0.883866 0.702209 0.5825
0.84731 0.847979 0.345
-0.888301 0.412764 -1.22609
-0.415745 0.391756 -1.6968
-2.56719e-06 0.143642 -1.27692
3.7998e-07 0.266462 -1.73543
-0.890263 0.289829 -0.9875
-0.418417 0.144713 -1.015
-0.886786 0.538758 1.34745
-0.423231 0.545 1.7317
-4.59821e-06 0.210086 1.32314
1.12504e-06 0.381862 1.75601
-0.889357 0.36656 1.0725
-0.439262 0.201742 1.065
-3.31606e-07 0.888949 -1.19202
1.2666e-07 0.552151 -1.66841
-0.88666 0.592647 -0.9325
-0.435124 1.00572 -0.905
3.55023e-06 1.35533 1.36222
3.37511e-06 0.727216 1.65037
-0.88133 0.704255 1.0875
-0.401838 1.3594 1.095
0.888301 0.412766 -1.22614
0.41579 0.391756 -1.6968
0.890262 0.289851 -0.9875
0.418392 0.144698 -1.015
0.886786 0.538762 1.34745
0.423234 0.545 1.73168
0.889354 0.366833 1.0725
0.438984 0.201743 1.065
0.88666 0.592648 -0.9325
0.435124 1.00572 -0.905
0.881356 0.704255 1.0875
0.40184 1.3594 1.095
-0.877937 0.329892 0.0425
-0.429362 0.175858 0.025
-0.888577 0.45478 -0.705
-0.88402 0.48685 -0.195
-8.71485e-06 0.153388 -0.755
-1.34397e-05 0.167113 -0.235
-0.881407 0.508972 0.315
-0.887413 0.526275 0.825
-1.67418e-05 0.17765 0.285
-1.37946e-05 0.195953 0.805
-0.885805 0.674047 0.0775
-0.545282 1.33219 0.095
-9.94817e-07 1.13929 -0.655
-8.19701e-07 1.30895 -0.155
1.93742e-07 1.39878 0.345
1.65039e-06 1.41496 0.845
0.877948 0.32987 0.0425
0.42945 0.175697 0.025
0.888577 0.454787 -0.705
0.884021 0.486861 -0.195
0.881419 0.508987 0.315
0.887413 0.526287 0.825
0.885817 0.674058 0.0775
0.545282 1.33218 0.095
-0.890014 0.279103 -1.25055
-0.890311 0.302547 -0.73
-0.888743 0.614479 -0.68
-0.886598 0.55389 -1.19055
0.890013 0.279114 -1.25057
0.886598 0.553891 -1.19057
0.888756 0.614481 -0.68
0.89031 0.302566 -0.73
-0.412611 0.140812 -1.27596
0.412599 0.140803 -1.27596
0.422205 0.14775 -0.755
-0.42223 0.147854 -0.755
-0.418812 0.877154 -1.17351
-0.434513 1.12379 -0.655
0.434512 1.12379 -0.655
0.418812 0.877151 -1.17351
-0.411275 0.26742 -1.72519
-0.409123 0.533642 -1.64226
0.409145 0.533642 -1.64223
0.411298 0.26742 -1.72517
-0.879294 0.319993 -0.215
-0.879064 0.339734 0.3
-0.884787 0.688101 0.33
-0.887035 0.657702 -0.175
0.879307 0.319985 -0.215
0.887047 0.657711 -0.175
0.884791 0.688108 0.33
0.879077 0.339729 0.3
-0.428214 0.165527 -0.235
0.428191 0.165563 -0.235
0.43263 0.180761 0.285
-0.432639 0.180763 0.285
-0.543135 1.2811 -0.155
-0.542416 1.35698 0.345
0.542421 1.35698 0.345
0.543126 1.28108 -0.155
-0.889489 0.358314 0.815
-0.888977 0.37328 1.33622
-0.8777 0.707128 1.34622
-0.886708 0.697127 0.835
0.889487 0.358464 0.815
0.88672 0.69713 0.835
0.877632 0.707127 1.34622
0.888976 0.373417 1.33622
-0.438364 0.195508 0.805
0.438207 0.19551 0.805
0.441547 0.209599 1.32407
-0.441686 0.209578 1.32407
-0.409771 1.38543 0.845
-0.389649 1.30667 1.35361
0.389654 1.30678 1.35361
0.409773 1.38543 0.845
-0.43367 0.380931 1.73981
0.433672 0.380931 1.7398
0.400351 0.718608 1.64032
-0.400345 0.718608 1.64032
-0.825617 0.206689 -1.53183
-0.610209 0.139578 -1.54042
-0.821543 0.143094 -1.405
-0.879534 0.2975 1.59423
-0.666164 0.212332 1.58767
-0.886597 0.210596 1.455
-0.815759 0.576823 -1.43093
-0.60375 0.685514 -1.452
-0.842335 0.687787 -1.28
-0.786772 0.7925 1.60894
-0.566192 0.889049 1.60905
-0.770428 0.878564 1.47
0.61021 0.139575 -1.54042
0.825615 0.206689 -1.53183
0.821529 0.143109 -1.405
0.666164 0.212351 1.58765
0.879443 0.2975 1.59414
0.886635 0.210558 1.455
0.60375 0.685514 -1.452
0.815759 0.576823 -1.43093
0.842337 0.687789 -1.28
0.566201 0.889026 1.60903
0.786849 0.7925 1.60901
0.770342 0.878469 1.47
-0.846175 0.154614 -0.625
-0.853343 0.159497 -0.365
-0.891788 0.219705 -0.48375
-0.639959 0.154189 -0.495
-0.878607 0.182435 0.675
-0.871328 0.177663 0.415
-0.892091 0.257571 0.55125
-0.658151 0.177412 0.545
-0.869149 0.786242 -0.53
-0.885113 0.722636 -0.41625
-0.865907 0.80688 -0.28
-0.736108 1.07685 -0.405
-0.828442 0.864936 0.72
-0.865271 0.783901 0.58875
-0.84181 0.854424 0.47
-0.68538 1.11666 0.595
0.846172 0.154618 -0.625
0.639779 0.15452 -0.495
0.853322 0.159519 -0.365
0.891798 0.219713 -0.48375
0.878716 0.182327 0.675
0.658128 0.177413 0.545
0.871218 0.177774 0.415
0.892088 0.257591 0.55125
0.869156 0.786247 -0.53
0.736113 1.07686 -0.405
0.885117 0.722636 -0.41625
0.865916 0.806887 -0.28
0.828408 0.864897 0.72
0.685392 1.11668 0.595
0.865276 0.783903 0.58875
0.841826 0.854435 0.47
-0.827423 0.330067 -1.50329
-0.831454 0.453445 -1.47697
-0.887561 0.40226 -1.35914
-0.623618 0.391756 -1.63444
-0.203403 0.141168 -1.53883
0.203404 0.141166 -1.53883
-1.03028e-06 0.142518 -1.40787
4.4331e-07 0.203815 -1.75068
-0.831732 0.144956 -1.145
[...]
POINT_DATA 3682
SCALARS point_scalars float 1
LOOKUP_TABLE default
-132.747
-59.5824
-43.678
-44.5332
-132.651
-59.3427
-43.66
-44.4037
-46.4389
-39.1398
-66.932
-51.3674
-46.4356
-39.1171
-66.9142
-51.3444
-90.8781
-144.915
-47.4627
-38.8534
-53.7877
-69.9433
-60.0276
-79.0327
-144.915
-46.3127
-39.8999
-53.8068
-60.9494
-44.0656
-45.1418
-166.426
-62.6088
-46.4379
-50.3719
-47.4413
-42.1023
-55.43
-86.8521
-85.8449
-57.6255
-40.1349
-44.6965
-44.6965
-58.3704
-167.44
-46.8674
-39.3587
-55.4996
-49.7554
-42.8123
53.8564
-42.6893
-42.1819
130.653
-42.1023
-41.3559
32.5159
-55.8896
-84.4414
-63.9895
-38.0154
-36.834
-36.834
-58.7011
-160.749
-46.8417
-39.3355
-55.5963
-46.7409
-42.678
54.0299
-42.4531
-42.1324
132.176
-41.0103
-41.3052
32.7026
-56.1168
-84.477
-64.1464
-37.9283
-36.5361
-35.5678
-90.8666
-145.011
-47.4504
-38.8272
-53.6942
-67.7554
-45.9806
-78.7237
-145.011
-46.3031
-39.8796
-53.7635
-61.6685
-44.0133
-45.1607
-165.519
-62.5924
-46.3836
-50.2553
-47.3677
-42.0585
-56.0229
-86.8361
-85.7888
-57.7141
-39.9518
-44.5473
-44.5473
-37.1879
-136.569
-65.0242
-49.057
-47.4342
-40.8384
56.9148
-85.4652
-31.0917
-48.0459
-36.5256
-65.0114
-48.9882
-40.6232
-85.5317
-47.991
-40.4449
-53.7466
-49.8721
-42.7701
-41.1804
-56.7658
-61.5437
-72.5944
-40.463
-53.7382
-42.744
-56.7298
-74.8136
-74.806
-70.3637
-7.69624
205.849
-46.0914
-46.0768
-42.1401
-79.2013
-43.8818
-43.8409
-42.1098
-52.1714
-36.5312
-37.965
-132.96
-91.0222
-55.849
-49.9061
-43.0447
-41.0118
41.6915
-106.1
-45.57
-36.6272
-45.8696
-132.901
-37.5002
-90.9992
-49.8551
-56.235
-43.9502
41.6983
-41.2398
-106.055
-36.492
-45.5027
-45.7663
-54.9471
-41.787
-50.5398
-48.8368
-39.4677
-40.5633
-40.7837
-40.5166
-72.749
-58.4788
-60.7411
-72.6698
-49.7141
-46.4332
-54.0454
-65.3329
-54.9541
-48.8386
-41.7787
-50.53
-39.4852
-40.521
-40.5648
-40.7571
-72.7412
-72.654
-58.4656
-60.7161
-49.6784
-65.284
-46.401
-54.0179
-107.489
183.164
-91.4798
182.935
-71.8948
-68.249
-47.2066
-40.3099
-44.0932
-40.2055
-42.6069
-41.6799
-1.18622
140.491
-78.455
-17.6847
-40.1878
-34.5329
-45.4301
-50.964
-107.488
183.163
-71.9133
-68.252
-47.1569
-40.2442
-42.5535
-41.673
-78.4464
-17.6451
-45.3734
-50.8875
-43.746
-41.7242
-60.8957
-49.2244
-57.9337
-45.1214
-43.9231
-43.164
-41.3598
-41.2482
-50.3125
-79.0482
-39.7467
-73.6839
-78.5691
-63.4242
-43.7352
-41.7294
-60.8867
-49.2119
-43.906
-43.1293
-50.2935
-78.9485
-104.9
-57.7282
-65.2497
-111.25
-104.899
-111.277
-65.2322
-58.0669
-89.9786
-89.9668
-56.6149
-56.603
-3.56126
-46.7222
-46.7199
-3.51945
176.004
136.828
136.835
176.099
-46.4171
-41.8233
-47.9043
-53.6381
-46.4058
-53.6209
-47.8821
-41.8113
-44.236
-44.2343
-40.9272
-40.939
-80.1064
-75.0256
-74.759
-80.0918
-41.0893
-46.0189
-49.2796
-45.4377
-41.0666
-45.3958
-49.2011
-46.0104
-40.7327
-40.7217
-44.5413
-44.5457
-60.4009
-41.6479
-41.568
-60.3389
-41.9774
-41.9265
-38.7849
-38.8794
-64.9746
-141.089
-124.947
-60.1784
-52.5863
-47.1082
-43.43
29.5709
-89.9769
-44.8056
-38.6837
-44.4865
-140.998
-64.7522
-124.861
-52.5246
-59.3579
-47.0969
29.4233
-43.4553
-90.053
-38.5771
-45.2439
-44.3651
-50.9534
-42.8312
-48.0323
-47.3718
-41.6671
-39.0831
-40.4998
-40.2509
-69.3404
-62.0208
-63.4604
-86.7587
-50.4832
-48.8355
-52.9472
-57.0278
-50.9595
-47.3757
-42.8133
-48.0246
-41.6622
-40.2451
-39.0679
-40.4792
-69.3268
-86.746
-62.0055
-63.4388
-50.4506
-56.9626
-48.808
-52.9139
-39.4895
-37.4469
-170.505
119.723
-135.348
-135.301
-107.927
69.0305
-75.0347
-55.1617
-69.4132
-66.3729
-51.9732
-47.3524
-51.025
-41.184
-47.7057
-47.6709
-45.3359
-42.5863
-43.8135
-39.0518
-41.9246
-41.1621
53.1481
53.066
25.1669
63.0399
-99.4288
-77.8305
-82.0996
-51.9767
-33.0379
-32.9162
-35.3061
-33.0991
-46.9754
-48.9983
-46.952
-48.7754
-38.729
-37.6255
-170.482
119.748
-75.0339
-55.1632
-69.4086
-66.3675
-51.8916
-47.2833
-50.9685
-41.1512
-42.2578
-39.0706
-41.8146
-41.1329
-99.4456
-77.7399
-82.1474
-51.9544
-46.8973
-48.8971
-46.8978
-48.6858
-42.1559
-40.0819
-42.8337
-40.9128
-51.9671
-55.8215
-56.858
-51.2293
-49.6546
-49.6552
-53.5705
-47.0119
-41.6464
-44.2593
-43.1888
-42.6268
-40.9428
-40.9421
-40.8307
-41.1792
-58.4055
-55.3779
-53.1694
-67.6471
-62.4549
-62.6385
-50.9172
-69.1659
-71.5474
-71.5178
-76.0286
-68.3809
-42.1423
-40.0776
-42.829
-40.9175
-51.9591
-55.8097
-56.8438
-51.2182
-41.6226
-44.2292
-43.1702
-42.5976
-58.3765
-55.3462
-53.1441
-67.5869
-87.1016
-73.4764
-76.2446
-66.6017
-87.0964
-73.4678
-76.237
-66.5913
-79.055
-69.4169
-69.4161
-63.3098
3.02774
-9.61767
-9.61069
-24.401
201.08
202.028
187.531
201.068
-44.7423
-47.5252
-44.8935
-47.9361
-44.7284
-47.5126
-44.8779
-47.9189
-41.9933
-43.961
-41.5081
-41.9953
-78.4829
-77.4667
-79.5655
-78.4637
-45.0484
-43.3052
-44.4314
-43.3673
-45.0073
-43.2642
-44.3865
-43.3277
-43.4243
-41.9635
-41.9624
-41.3291
-46.0274
-51.7028
-51.6641
-57.8944
-38.0056
-38.8246
-34.6612
-38.0281
-168.227
120.292
-107.115
93.2371
-101.522
-89.3502
-49.9268
-42.2781
-46.8331
-44.532
-44.9588
-44.2553
-160.68
100.602
18.7955
67.5053
-119.771
-26.4775
-49.7274
-40.1551
-37.6294
-37.9557
-47.9267
-42.8984
-107.091
86.605
-168.272
120.32
-101.524
-89.3259
-46.7849
-44.4809
-49.8775
-42.2339
-44.9533
-44.2541
18.8202
68.9179
-160.448
101.637
-119.792
-26.5484
-37.551
-37.8405
-49.6262
-40.0795
-47.8289
-42.7982
-56.8108
-55.1592
-44.8735
-43.0625
-54.1644
-48.2946
-52.6254
-46.0032
-39.9643
-40.2305
-41.0202
-40.7059
-41.2464
-40.7435
-40.0581
-40.7419
-69.002
-80.7041
-61.4436
-55.8464
-56.7851
-74.3846
-58.7941
-78.7658
-47.5952
-55.0735
-47.0457
-45.7797
-50.6424
-62.2127
-70.2993
-65.6293
-56.8071
-55.2046
-52.6333
-45.996
-44.8645
-43.0389
-54.1546
-48.2863
-39.9435
-40.2622
-40.0603
-40.7384
-41.0123
-40.7037
-41.2329
-40.7231
-68.9943
-81.0704
-58.5436
-78.7329
-61.4344
-55.8313
-56.7651
-74.3527
-47.5565
-54.9721
-70.227
-65.5551
-47.0192
-45.7463
-50.6187
-62.1466
-106.71
-107.944
186.396
167.801
-91.0851
-91.0792
184.561
184.572
-84.4268
-63.3213
-77.6545
-61.4101
-46.6716
-47.759
-41.7323
-38.9192
-44.2376
-44.2422
-41.0533
-41.0219
-41.86
-43.8215
-40.6296
-43.5166
-2.39486
-2.38365
142.383
142.284
-70.4352
-89.8223
-9.25242
-33.0466
-40.7241
-40.6771
-36.2476
-36.3321
-46.5916
-45.2573
-55.6733
-46.375
-106.699
-107.952
168.589
186.387
-84.4185
-63.5504
-77.6502
-61.4108
-47.7033
-46.6391
-41.6901
-38.8256
-41.8202
-43.8112
-40.6196
-43.5139
-89.8258
-70.4
-33.0458
-9.33451
-45.2317
-46.5354
-46.3033
-55.604
-45.011
-42.7315
-43.5161
-41.2148
-59.3956
-62.6507
-47.6353
-51.1448
-57.6736
-57.6724
-44.9024
-44.9019
-42.71
-45.558
-42.2143
-44.2485
-41.1721
-41.1735
-41.0694
-41.0652
-48.9823
-51.8718
-79.3786
-76.7426
-40.5828
-40.5704
-74.0443
-74.0335
-77.849
-77.8247
-62.9078
-62.8768
-45.0004
-42.7184
-43.502
-41.2328
-62.6331
-59.3859
-47.6237
-51.1286
-45.5409
-42.6964
-42.187
-44.22
-51.8497
-48.9605
-76.6501
-79.3774
-149.374
-81.3692
-86.0998
-172.972
-51.3012
-55.4021
-64.9682
-61.1558
-65.2523
-73.7701
-68.2785
-58.8608
-133.011
-165.833
-88.036
-95.1677
-149.453
-172.947
-86.0907
-81.3673
-133.038
-95.1373
-88.0342
-165.718
-65.2446
-58.8506
-68.2621
-73.6419
-51.2976
-61.1545
-64.9588
-55.3907
-110.103
-107.384
-79.0058
-76.1141
-110.066
-76.101
-79.0044
-107.366
-51.7675
-53.3839
-62.8916
-59.5227
-51.751
-59.5223
-62.8917
-53.3808
-2.51582
-37.4099
0.109496
24.7826
-92.4294
-52.5916
-26.5479
-67.9926
-92.3849
-67.972
-26.5313
-52.5582
-1.82321
24.7746
0.128119
-37.4258
48.7695
120.441
201.82
79.7456
67.62
64.4446
183.38
116.318
66.9693
116.839
183.374
64.6674
48.7093
79.9624
201.803
120.447
-46.2388
-43.7881
-46.0551
-49.5292
-40.46
-42.0476
-43.6275
-41.8347
-49.6397
-51.8833
-46.626
-44.7758
-59.112
-53.2468
-49.3961
-54.839
-46.2294
-49.519
-46.044
-43.7793
-59.0932
-54.8145
-49.38
-53.2343
-49.6115
-44.7531
-46.6076
-51.857
-40.4422
-41.8247
-43.6133
-42.0292
-44.4552
-46.7382
-43.8034
-42.6337
-44.4061
-42.639
-43.8026
-46.7357
-39.7347
-40.5727
-41.3632
-40.6247
-39.7327
-40.6243
-41.3615
-40.5732
-80.5152
-70.4564
-76.9916
-69.1628
-59.6826
-75.2075
-79.014
-64.8832
-59.6137
-64.8197
-78.9889
-75.1783
-80.4733
-69.169
-76.9779
-70.4154
-40.5207
-40.8755
-42.6918
-41.5233
-49.1797
-50.2254
-44.4927
-43.2555
-46.973
-47.7839
-45.5494
-51.7592
-48.2677
-43.9232
-44.0521
-47.1498
-40.5087
-41.4986
-42.654
-40.8372
-48.2351
-47.1096
-44.0123
-43.8917
-46.8588
-51.6764
-45.4987
-47.6978
-49.1234
-42.9972
-44.4634
-50.1753
-40.7589
-41.047
-41.0545
-39.9176
-40.7315
-39.9016
-41.0517
-41.0463
-47.5337
-46.0251
-43.4854
-43.1073
-47.563
-43.1235
-43.4841
-46.0417
-56.5532
-51.9466
-57.551
-67.5965
-39.8266
-36.1078
-46.2813
-45.8132
-39.7449
-45.7165
-46.2401
-36.05
-56.4732
-67.5649
-57.5156
-51.8567
-45.2099
-42.8086
-40.1922
-41.9245
-45.1556
-41.8835
-40.1544
-42.7766
-39.5418
-34.8508
-36.2382
-40.0511
-39.6311
-40.1269
-36.3191
-34.95
-99.5307
-163.608
-152.746
-62.5147
-56.8426
-51.7009
-42.2064
6.30883
-74.314
-44.332
-39.8848
-43.288
-163.453
-99.3062
-152.991
-56.7729
-62.5234
-51.6337
6.16985
-42.2179
-74.3917
-39.7735
-44.2914
-43.1364
-47.2963
-44.7987
-46.7008
-46.6718
-39.7943
-38.8174
-39.5913
-39.9572
-68.3314
-64.2564
-65.0075
-77.0682
-51.0362
-50.1278
-52.1426
-53.8446
-47.2996
-46.6647
-44.7887
-46.6955
-39.7635
-39.9455
-38.7886
-39.5689
-68.3111
-77.0523
-64.2381
-64.9872
-51.0345
-53.7944
-50.0967
-52.1294
-41.4622
-37.96
-158.986
60.8661
-136.255
-136.232
-120.17
-96.3846
-69.5801
-60.0581
-67.5131
-65.3786
-50.5694
-48.2221
-52.5312
-42.1332
-47.5981
-47.5791
-46.2328
-44.2542
-42.2808
-39.3867
-41.2189
-40.9276
55.7334
55.5142
37.2904
64.4686
-91.9252
-81.5156
-84.175
-91.4562
-31.6888
-31.6197
-32.2659
-32.1519
-47.5587
-48.5337
-47.6875
-48.2565
-41.8306
-38.1387
-158.65
60.863
-69.5773
-60.0508
-67.5076
-65.3728
-50.5167
-48.1502
-52.462
-42.0897
-41.8752
-39.4093
-41.0688
-40.8511
-91.9645
-81.4376
-84.2687
-91.288
-47.4926
-48.4865
-47.6326
-48.1827
-40.9025
-40.2807
-41.385
-40.5783
-52.855
-54.6474
-55.1718
-52.4102
-49.8426
-49.8425
-51.2414
-48.6367
-42.1935
-43.4666
-42.9233
-42.6128
-41.0606
-41.06
-40.8913
-41.2035
-57.4323
-55.9507
-54.803
-62.1362
-61.8955
-61.8876
-55.2333
-65.4433
-72.3554
-72.3402
-74.4582
-70.6535
-40.8861
-40.3055
-41.3889
-40.5863
-52.8474
-54.6369
-55.162
-52.4009
-42.1685
-43.4391
-42.8993
-42.5853
-57.3999
-55.9158
-54.7722
-62.0792
-80.4316
-74.1004
-75.5544
-70.4235
-80.4254
-74.0923
-75.547
-70.4148
-74.3951
-70.1805
-70.1792
-66.6215
1.03689
-8.14369
-8.14783
-18.2735
204.286
204.947
200.034
204.279
-45.3873
-46.7461
-45.4565
-46.9748
-45.3723
-46.7321
-45.4404
-46.9593
-42.0996
-43.1584
-41.7758
-42.0994
-79.0391
-78.425
-79.676
-79.0332
-44.3063
-43.5844
-44.1932
-43.5661
-44.2659
-43.5437
-44.1516
-43.5259
-42.6866
-42.0661
-42.063
-41.6453
-48.9581
-51.9922
-51.9722
-55.038
-36.8589
-37.8607
-34.3982
-36.7568
-41.6861
-40.3589
-151.664
63.8008
-134.317
-133.591
-119.18
-68.5697
-104.483
-82.001
-99.6426
-89.4517
-58.641
-52.611
-54.2783
-43.913
-50.8747
-48.8703
-48.1116
-46.7333
-44.7496
-42.2463
-43.9009
-44.0264
-45.3597
-38.6967
-132.182
44.4888
34.6065
48.8929
30.0482
52.9778
-105.754
-107.204
-116.973
-65.9624
-45.3111
-46.6534
-48.258
-40.9927
-37.7829
-34.9251
-35.9293
-37.2889
-45.1121
-46.4162
-46.9304
-43.9657
-134.225
-133.526
-119.128
-59.9754
-41.5785
-39.0051
-156.251
63.7376
-104.458
-81.9941
-99.644
-89.4297
-50.8164
-48.8244
-48.067
-46.6801
-56.405
-52.5793
-54.2142
-43.8576
-44.7336
-43.391
-44.2217
-44.0906
34.4261
48.8985
30.1516
53.0146
-45.4556
-38.9308
-132.262
44.3543
-105.577
-107.236
-117
-66.2046
-37.7113
-34.7825
-35.807
-37.1622
-45.9456
-46.5818
-48.1589
-40.9347
-45.0097
-46.3225
-46.8325
-43.8659
-54.9069
-52.7686
-56.4931
-55.1376
-42.1197
-42.4788
-42.8798
-42.5654
-49.5422
-51.2177
-52.0901
-49.256
-48.1928
-49.2484
-50.2653
-47.5054
-40.0561
-38.7901
-39.3136
-40.0931
-40.4933
-40.0237
-40.4972
-40.7397
-40.6275
-41.1569
-40.8824
-40.741
-40.7737
-40.7032
-40.4065
-40.2262
-70.9695
-75.2103
-70.8279
-91.888
-60.1472
-57.0686
-59.8835
-57.1431
-61.9234
-59.3411
-58.82
-67.3895
-83.5262
-64.621
-63.7667
-74.5442
-50.1291
-49.3595
-48.7732
-52.2089
-47.7336
-45.2032
-46.7356
-46.0591
-53.3261
-54.6348
-52.1081
-58.0827
-60.6925
-69.1771
-69.3546
-64.1212
-54.9136
-52.7722
-56.4946
-55.1567
-48.1857
-49.2552
-50.2676
-47.5071
-42.1061
-42.4698
-42.8747
-42.5544
-49.5333
-51.2076
-52.0803
-49.2465
-40.0771
-38.7937
-39.3111
-40.0949
-40.7747
-40.7077
-40.4071
-40.23
-40.5035
-40.0212
-40.4969
-40.7397
-40.6014
-41.1349
-40.8594
-40.7226
-70.9617
-75.1903
-70.827
-91.9077
-83.4953
-64.602
-63.7009
-74.5373
-60.1336
-57.0557
-59.8718
-57.1288
-61.8949
-59.317
-58.7974
-67.3541
-50.0953
-49.3176
-48.7375
-52.138
-60.6264
-69.136
-69.2667
-64.0694
-47.7039
-45.1712
-46.705
-46.0286
-53.2919
-54.6083
-52.0863
-58.0275
-127.168
-95.3521
-107.26
-107.432
162.788
194.649
185.901
177.91
-98.9811
-84.8069
-91.3751
-91.3719
153.816
193.721
184.538
184.546
-70.9027
-72.8874
-77.4323
-67.0278
-67.2896
-68.8969
-72.5456
-64.333
-48.7197
-46.0097
-46.9291
-47.4797
-40.9156
-39.4876
-41.4168
-39.0676
-44.6762
-43.7765
-44.2089
-44.209
-41.0225
-39.4133
-40.4403
-40.4222
-42.2772
-42.9576
-42.1298
-43.1046
-41.4581
-41.8204
-41.0673
-42.4567
12.6087
-3.04259
-1.90533
-1.89502
99.9839
170.553
143.705
143.44
-79.7936
-77.3082
-74.3755
-83.566
-26.7006
-13.1367
-7.92332
-26.3157
-37.7573
-43.1645
-40.3679
-40.3405
-33.8241
-34.841
-35.0426
-35.0922
-46.1125
-44.8567
-45.2803
-45.6042
-49.6827
-51.592
-53.3067
-48.4771
-127.167
-95.3477
-107.252
-107.435
162.766
194.608
178.238
185.873
-70.8974
-72.8789
-77.4241
-67.02
-67.2931
-68.8978
-72.5438
-64.3371
-48.6572
-45.9665
-47.4243
-46.8875
-40.8414
-39.4512
-41.3649
-39.0237
-42.2086
-42.912
-42.081
-43.0615
-41.4482
-41.8113
-41.0609
-42.4524
-79.7825
-77.2404
-83.5646
-74.3521
-26.6899
-13.0817
-25.9729
-8.11049
-46.0603
-44.8065
-45.6122
-45.233
-49.6007
-51.539
-48.4044
-53.2406
-43.3052
-44.1557
-44.3172
-43.199
-41.3263
-41.8936
-43.0227
-41.4781
-58.7692
-63.5455
-60.1271
-61.6781
-50.1514
-48.3081
-48.4199
-50.1359
-55.8478
-60.4625
-57.8971
-57.8967
-46.0097
-44.4214
-45.0756
-45.076
-43.5117
-44.3514
-43.3035
-44.713
-42.7807
-43.303
-42.6798
-43.6757
-41.1336
-41.3924
-41.2506
-41.2515
-41.1638
-41.2664
-41.1834
-41.1833
-51.813
-49.0055
-49.6219
-51.0751
-74.5334
-77.8682
-79.2647
-75.9793
-46.0538
-34.0648
-40.0677
-40.0578
-71.2214
-75.3898
-73.7412
-73.7412
-77.5207
-79.1851
-78.4393
-78.4269
-66.0142
-60.7303
-63.3007
-63.2857
-43.2952
-44.1435
-44.3067
-43.187
-41.3315
-41.9001
-43.0049
-41.4985
-58.7574
-63.5327
-61.6652
-59.7914
-50.1421
-48.2908
-48.4071
-50.1214
-43.4944
-44.3355
-44.6961
-43.2879
-42.7478
-43.2776
-42.6509
-43.6444
-51.7921
-48.9862
-51.0556
-49.6015
-74.485
-77.8432
-75.943
-79.2147
-125.115
-103.563
-106.321
-92.6985
-57.2243
-56.0956
-60.435
-58.7839
-66.9531
-63.363
-67.5846
-63.8992
-130.534
-115.26
-108.798
-98.1273
-125.126
-103.564
-106.317
-92.6918
-130.44
-115.289
-108.813
-98.1421
-66.9474
-63.3539
-67.557
-63.8799
-57.2184
-56.0866
-60.4281
-58.7751
-97.6661
-89.4764
-90.479
-83.3173
-97.6495
-89.4569
-90.4737
-83.3106
-55.7229
-54.9596
-58.8381
-57.244
-55.7037
-54.9466
-58.8357
-57.236
6.07041
-10.9393
-2.92271
-13.9403
-54.8079
-52.7478
-40.5261
-42.3153
-54.7925
-52.7319
-40.5263
-42.3189
6.06901
-10.9677
-2.90685
-13.9538
154.94
156.575
185.007
183.932
130.343
105.276
156.642
141.923
106.523
128.429
140.677
156.461
156.871
155.004
183.784
184.98
-45.7457
-47.3031
-45.687
-46.9102
-41.5264
-41.4507
-42.1875
-42.1763
-47.4609
-49.3222
-46.5305
-48.4469
-54.7214
-55.1186
-52.318
-52.7432
-45.7343
-47.2932
-45.6763
-46.8989
-54.7051
-55.1002
-52.3021
-52.7241
-47.4367
-49.2979
-46.5123
-48.4256
-41.5146
-41.4372
-42.1746
-42.1641
-43.6786
-45.0388
-43.6295
-44.6191
-45.033
-43.6708
-44.6179
-43.6242
-40.8478
-40.6781
-41.1094
-40.8034
-40.6809
-40.8485
-40.8067
-41.1114
-85.1326
-79.4962
-77.4513
-74.5329
-67.8172
-73.8213
-75.3499
-76.728
-73.7226
-67.7503
-76.6806
-74.856
-79.4663
-85.1064
-74.5322
-77.4367
-40.6082
-40.5496
-41.6645
-41.6837
-47.6523
-45.668
-46.358
-44.7479
-50.0068
-49.0505
-48.4565
-47.8025
-46.5378
-45.4668
-45.3429
-44.8289
-40.5865
-40.5272
-41.6327
-41.658
-46.4934
-45.4305
-45.2603
-44.7971
-49.9163
-48.9576
-48.3919
-47.7362
-47.6271
-45.6559
-46.3368
-44.7549
-40.4123
-40.7556
-40.6979
-40.9245
-40.4066
-40.7475
-40.6897
-40.9066
-45.5169
-44.3991
-44.2312
-44.2124
-45.5307
-44.4175
-44.2249
-44.2136
-57.6933
-63.4558
-57.8699
-62.1866
-39.6853
-42.0452
-41.2456
-44.0356
-39.6009
-41.9508
-41.1807
-43.9557
-57.6438
-63.3739
-57.8051
-62.1398
-42.1024
-42.7
-41.8288
-41.6261
-42.6548
-42.0611
-41.5773
-41.7889
-38.3682
-39.6095
-37.6298
-38.9752
-39.6945
-38.4721
-39.0664
-37.7264
-142.41
40.8519
-126.882
-48.3644
-141.317
-115.812
-53.6637
-47.1719
-49.839
-48.6725
-48.2091
-47.9711
-105.934
34.4198
15.0721
38.2047
-111.442
-30.4559
-46.5977
-40.5792
-38.8893
-39.2029
-45.5263
-41.8497
-126.822
-48.6112
-142.309
40.5898
-141.394
-115.777
-49.7928
-48.6106
-53.602
-47.1041
-48.1431
-47.9512
15.0293
37.8509
-106.485
34.1273
-111.75
-30.4757
-38.7558
-39.1061
-46.4784
-40.4992
-45.4067
-41.7248
-50.1217
-51.389
-43.9394
-43.722
-49.1425
-46.8824
-48.7355
-46.054
-41.94
-40.8176
-39.5636
-39.4593
-40.4154
-40.7392
-40.0785
-40.4138
-67.2045
-79.4761
-63.6579
-60.6503
-61.2967
-70.8671
-87.9099
-86.4686
-49.5654
-53.429
-49.1483
-48.4568
-51.0686
-56.0376
-58.4798
-56.6011
-50.124
-51.3947
-48.7342
-46.0445
-43.9291
-43.6966
-49.1381
-46.8738
-41.9338
-40.8153
-40.0754
-40.4037
-39.5461
-39.4516
-40.392
-40.725
-67.1929
-79.4516
-87.8798
-86.4452
-63.6416
-60.6353
-61.2773
-70.827
-49.5344
-53.3739
-58.4049
-56.5298
-49.1212
-48.4264
-51.0381
-55.9825
-159.809
60.4401
-163.313
57.8572
-169.756
-169.051
120.688
118.634
-119.694
-91.421
-119.668
-83.6014
-107.78
-107.772
51.4661
47.4649
-79.4456
-75.324
-58.71
-58.1847
-74.6623
-64.6515
-70.7917
-62.5262
-53.733
-43.1969
-50.767
-41.1433
-50.4884
-51.3932
-41.854
-39.9959
-46.7684
-44.961
-46.7424
-44.9269
-45.4447
-45.4519
-42.3625
-42.3458
-43.1093
-42.7429
-39.7682
-39.619
-41.2772
-42.5408
-40.4669
-42.0257
34.4788
62.9712
34.522
62.7128
24.6332
24.5939
64.3111
64.3861
-99.1714
-80.8958
-75.7605
-97.7878
-77.5785
-87.4153
-37.4769
-58.3746
-33.3778
-34.0711
-33.299
-33.9627
-35.5869
-35.5578
-33.6038
-33.6614
-47.4868
-46.0642
-48.1408
-50.5524
-47.3033
-46.947
-50.4537
-47.2736
-165.808
60.4033
-163.189
57.8381
-169.724
-169.003
118.706
120.729
-79.4481
-75.3141
-58.7117
-58.1885
-74.6575
-64.6486
-70.7786
-62.5355
-53.6696
-43.1446
-50.6961
-41.0784
-51.3238
-50.4372
-41.8149
-39.9436
-42.4301
-42.7187
-39.7502
-39.5987
-41.2114
-42.4297
-40.445
-41.9924
-99.1532
-80.9813
-75.5849
-97.7149
-87.4176
-77.5681
-58.3863
-37.4622
-47.4067
-46.0253
-48.0923
-50.4847
-46.8998
-47.2403
-47.1836
-50.3634
-42.1357
-42.2853
-40.803
-40.1684
-43.2586
-42.1703
-41.9371
-40.7567
-53.4624
-50.6524
-57.2703
-54.4936
-56.1045
-57.724
-50.3859
-52.1497
-50.899
-48.4336
-50.9021
-48.4319
-53.497
-53.4962
-46.9462
-46.9455
-41.7663
-41.5458
-44.4676
-44.0292
-42.6075
-43.9533
-42.0609
-43.2622
-40.6612
-40.9957
-40.6616
-40.9921
-40.7194
-40.7199
-41.1283
-41.1284
-56.5324
-64.5479
-53.3845
-60.0483
-52.4329
-53.9191
-69.0425
-66.2686
-57.4406
-66.3271
-57.4063
-66.3207
-51.2669
-51.2535
-69.1516
-69.1491
-73.4321
-69.7366
-73.4036
-69.706
-75.8367
-75.823
-68.188
-68.1726
-42.126
-42.2844
-40.7978
-40.1676
-43.2484
-42.1632
-41.9419
-40.7599
-53.4512
-50.6477
-57.2605
-54.4804
-57.7137
-56.0899
-50.3752
-52.1381
-41.744
-41.5223
-44.441
-43.9985
-43.9322
-42.5891
-42.0338
-43.2313
-56.5069
-64.5059
-53.3567
-59.9895
-53.895
-52.4061
-66.2109
-68.9846
-86.5636
-87.5487
-79.133
-68.8161
-72.0195
-81.5827
-65.3043
-67.396
-86.5561
-87.5453
-79.1244
-68.902
-81.5791
-72.0076
-67.3833
-65.7893
-78.8801
-78.8785
-73.7081
-66.0319
-73.7073
-66.0319
-63.2369
-63.2375
2.44167
2.45454
-1.32001
-19.8876
-19.8808
-1.34138
-24.6261
-24.6224
203.603
194.073
202.839