# vtk DataFile Version 2.0
tri_press
ASCII
DATASET UNSTRUCTURED_GRID
POINTS 3682 float
-0.701653 0.365 -2.035
-0.815 0.445 2.09874
-0.725 0.815 -1.91641
-0.725 0.945 2.00675
0.701663 0.365 -2.035
0.815 0.445 2.09874
0.725 0.815 -1.91642
0.725 0.945 2.00675
-0.81893 0.312172 -0.657087
-0.830935 0.364616 0.720827
-0.817058 0.950392 -0.60869
-0.801694 0.97836 0.69903
0.818905 0.312204 -0.657087
0.830936 0.364618 0.720827
0.817088 0.950421 -0.608697
0.801696 0.978363 0.699027
-1.49671 0.033797 -3.12864
-1.50613 0.0600563 -2.05442
-1.59055 0.0366601 -0.67469
-1.61987 0.0709707 0.719164
-1.60698 0.138546 2.10008
-1.60508 0.17173 3.18013
-1.60985 0.193249 4.24939
-1.49278 0.306968 -3.09458
-1.49954 0.353534 -2.02803
-1.60406 0.335172 -0.661957
-1.62063 0.362594 0.710431
-1.59165 0.41655 2.07785
-1.59715 0.447918 3.1569
-1.60773 0.470852 4.22845
-1.50306 0.818568 -3.00676
-1.51393 0.865896 -1.9373
-1.60297 0.947202 -0.619086
-1.59665 0.965692 0.694159
-1.53669 0.955358 2.01372
-1.56888 0.986715 3.09568
-1.59911 1.02043 4.17855
-1.53381 1.66791 -2.92781
-1.54614 1.72537 -1.86887
-1.57992 1.80989 -0.573405
-1.59626 1.85005 0.706927
-1.5916 1.85074 2.00312
-1.59561 1.8586 3.0636
-1.60831 1.87995 4.1388
-0.729539 0.0382853 -3.13317
-0.715998 0.0662277 -2.06103
-0.790495 0.0242145 -0.673805
-0.818432 0.0718592 0.728037
-0.813274 0.15569 2.11559
-0.815905 0.18299 3.19065
-0.821396 0.198817 4.25548
-0.729832 0.306487 -3.09597
-0.817786 0.458168 3.16558
-0.823838 0.475245 4.23304
-0.7387 0.798607 -2.99808
-0.795107 0.984678 3.09428
-0.82074 1.01981 4.17825
-0.755263 1.65622 -2.91923
-0.759247 1.71534 -1.85941
-0.786363 1.81035 -0.567707
-0.806833 1.85357 0.706242
-0.809716 1.84922 1.99824
-0.815184 1.85542 3.05872
-0.826514 1.87736 4.13525
0.757692 0.0382938 -3.13317
0.767012 0.066237 -2.06103
0.822034 0.0242376 -0.673805
0.825864 0.0718655 0.728037
0.812115 0.155692 2.11559
0.781909 0.182992 3.19065
0.764141 0.198821 4.25548
0.736302 0.306493 -3.09598
0.765177 0.458169 3.16558
0.752629 0.475248 4.23304
0.740636 0.798613 -2.99809
0.733495 0.98468 3.09428
0.736583 1.01981 4.17825
0.786019 1.65623 -2.91923
0.796798 1.71536 -1.85942
0.798321 1.81037 -0.567711
0.776852 1.85358 0.706239
0.752001 1.84923 1.99824
0.741978 1.85542 3.05871
0.736028 1.87737 4.13525
1.51787 0.0338175 -3.12864
1.53125 0.0600813 -2.05442
1.60847 0.0366981 -0.674692
1.6314 0.0709874 0.719163
1.61218 0.138553 2.10008
1.58198 0.171737 3.18013
1.56101 0.193258 4.24939
1.49415 0.306986 -3.09458
1.49349 0.353555 -2.02803
1.6018 0.335215 -0.66196
1.62762 0.362608 0.710429
1.59782 0.416554 2.07785
1.56464 0.447924 3.1569
1.5479 0.470859 4.22845
1.49888 0.818586 -3.00677
1.50464 0.865916 -1.93732
1.59745 0.947243 -0.619094
1.59915 0.965707 0.694155
1.53676 0.955362 2.01372
1.52586 0.986721 3.09568
1.52606 1.02044 4.17855
1.55728 1.66793 -2.92782
1.57199 1.7254 -1.86888
1.58608 1.80992 -0.573413
1.571 1.85007 0.706921
1.54204 1.85076 2.00312
1.52859 1.85861 3.06359
1.52251 1.87996 4.13879
-0.772276 0.59 -2.03465
5.00679e-06 0.357247 -2.04275
-0.76995 0.328927 -1.34604
-0.754568 0.695 2.03731
0 0.387272 2.15647
-0.837984 0.389791 1.40978
0 0.835354 -1.93677
-0.801365 0.913032 -1.26255
0 0.978207 2.03996
-0.757758 0.956091 1.35289
0.772334 0.59 -2.03471
0.769847 0.329039 -1.34604
0.754524 0.695 2.03727
0.837963 0.389814 1.40978
0.801362 0.913028 -1.26256
0.757887 0.95622 1.35289
-0.82496 0.338366 0.03187
-0.874284 0.631282 -0.632888
-1.25699e-05 0.261831 -0.657087
-0.86303 0.671488 0.709929
8.20725e-07 0.246059 0.720827
-0.800388 0.955388 0.0451701
1.48515e-05 1.21988 -0.608693
1.41455e-06 1.46713 0.699029
0.82497 0.338362 0.03187
0.874315 0.631313 -0.632892
0.863027 0.67149 0.709927
0.800391 0.955391 0.0451651
-0.886035 0.610641 -1.3043
0.886757 0.610656 -1.3043
-3.78158e-06 0.277022 -1.34604
7.42575e-06 0.974284 -1.26255
2.5034e-06 0.59 -2.13526
-0.868788 0.651385 0.03852
0.868801 0.651402 0.0385175
-5.87461e-06 0.255288 0.03187
8.13302e-06 1.45607 0.0451676
-0.864458 0.683244 1.38134
0.864426 0.683245 1.38134
4.10362e-07 0.235502 1.40978
7.07277e-07 1.39047 1.35289
0 0.695 2.05457
-0.722121 0.4775 -2.01998
-0.350824 0.360135 -2.03986
-0.744827 0.337939 -1.69052
-0.816931 0.57 2.10017
-0.4075 0.399597 2.14414
-0.827426 0.416462 1.75426
-0.729026 0.7025 -1.95592
-0.3625 0.830542 -1.93195
-0.771955 0.872788 -1.58948
-0.746204 0.82 2.02845
-0.3625 0.973006 2.03476
-0.752842 0.962009 1.67982
0.350834 0.360112 -2.03989
0.722371 0.4775 -2.02023
0.744779 0.337995 -1.69052
0.4075 0.399564 2.14418
0.817056 0.57 2.1003
0.827422 0.416467 1.75426
0.3625 0.830519 -1.93194
0.728976 0.7025 -1.95588
0.771949 0.872782 -1.58949
0.3625 0.973024 2.03477
0.746071 0.82 2.02832
0.751449 0.960616 1.67982
-0.790607 0.324382 -1.00157
-0.823082 0.324132 -0.312608
-0.853353 0.468354 -0.644988
-0.427917 0.25011 -0.657087
-0.835911 0.375753 1.06531
-0.827371 0.352068 0.376348
-0.85665 0.513218 0.715378
-0.441311 0.253649 0.720827
-0.815213 0.937713 -0.93562
-0.864141 0.800072 -0.620789
-0.809668 0.953835 -0.28176
-0.462396 1.19288 -0.608692
-0.773306 0.960806 1.02596
-0.844754 0.83112 0.704479
-0.79387 0.959703 0.3721
-0.512436 1.44593 0.699029
0.791194 0.323803 -1.00157
0.428831 0.248248 -0.657087
0.82309 0.32413 -0.312608
0.853358 0.468384 -0.644989
0.835666 0.376 1.06531
0.447611 0.241053 0.720827
0.827364 0.352079 0.376348
0.856655 0.513217 0.715377
0.815212 0.937712 -0.935628
0.462417 1.19288 -0.608695
0.864148 0.800091 -0.620794
0.809681 0.953847 -0.281766
0.773337 0.960837 1.02596
0.512439 1.44593 0.699028
0.844767 0.83113 0.704477
0.79387 0.959704 0.372096
-0.859334 0.60032 -1.66948
-0.386137 0.59 -2.09999
6.12607e-07 0.306445 -1.6944
3.75509e-06 0.473624 -2.12814
-0.86777 0.469784 -1.32517
-0.384977 0.249547 -1.34604
-0.827513 0.689122 1.70932
-0.377284 0.695 2.09136
2.05181e-07 0.230729 1.78313
0 0.541136 2.20596
-0.866764 0.536518 1.39556
-0.418992 0.272063 1.40978
3.71287e-06 0.914655 -1.59966
1.2517e-06 0.712677 -1.99665
-0.86612 0.761836 -1.28342
-0.400679 0.966617 -1.26255
3.53638e-07 1.19108 1.69642
0 0.836603 2.09797
-0.828724 0.819667 1.36711
-0.378878 1.38147 1.35289
0.859339 0.600328 -1.66951
0.386168 0.59 -2.09999
0.868357 0.469847 -1.32517
0.384922 0.249433 -1.34604
0.827517 0.689123 1.7093
0.377262 0.695 2.09076
0.866765 0.53653 1.39556
0.418982 0.256254 1.40978
0.866105 0.761842 -1.28343
0.400685 0.966616 -1.26256
0.828687 0.819733 1.36711
0.378944 1.38149 1.35289
-0.856066 0.49028 0.035195
-0.435072 0.25165 0.03187
-0.887299 0.620961 -0.968593
-0.871972 0.641334 -0.297184
-8.17576e-06 0.269664 -1.00157
-9.22227e-06 0.257288 -0.312608
-0.865578 0.661437 0.374224
-0.866863 0.677366 1.04563
-2.52694e-06 0.253481 0.376348
6.15543e-07 0.23776 1.06531
-0.85426 0.813222 0.0418451
-0.51703 1.43941 0.0451688
1.11386e-05 1.03381 -0.935624
1.14923e-05 1.40583 -0.281763
4.77379e-06 1.46316 0.372098
1.06092e-06 1.45507 1.02596
0.856081 0.490284 0.0351938
0.437196 0.247397 0.03187
0.887294 0.620985 -0.968596
0.872 0.641357 -0.297187
0.865599 0.661446 0.374222
0.866869 0.677368 1.04563
0.854249 0.813223 0.0418413
0.517038 1.43941 0.0451663
-0.84429 0.473642 -1.68
-0.876945 0.470756 -0.985079
-0.868905 0.776337 -0.952106
-0.833464 0.732168 -1.62948
0.849958 0.473674 -1.68001
0.833468 0.732171 -1.6295
0.868898 0.776355 -0.952112
0.87691 0.470803 -0.985081
-0.367901 0.273195 -1.69246
0.367878 0.273254 -1.69246
0.397184 0.24883 -1.00157
-0.397224 0.24962 -1.00157
-0.381589 0.908373 -1.59457
-0.4046 1.01897 -0.935622
0.404618 1.01968 -0.935626
0.381592 0.908374 -1.59458
-0.36848 0.475562 -2.07872
-0.374318 0.707589 -1.99909
0.374334 0.707589 -1.99912
0.368501 0.475562 -2.07865
-0.854765 0.479289 -0.304896
-0.855135 0.502361 0.375286
-0.841856 0.818346 0.373162
-0.859192 0.806643 -0.289472
0.854787 0.4793 -0.304898
0.859194 0.806654 -0.289476
0.841227 0.818036 0.373159
0.855143 0.502363 0.375285
-0.431464 0.250941 -0.312608
0.433069 0.247711 -0.312608
0.441253 0.246526 0.376348
-0.43838 0.252273 0.376348
-0.517806 1.37233 -0.281761
-0.515027 1.44326 0.372099
0.515033 1.44326 0.372097
0.517791 1.37227 -0.281764
-0.868897 0.527285 1.05547
-0.847292 0.553259 1.73179
-0.803363 0.819834 1.69457
-0.841731 0.822296 1.0358
0.868906 0.527292 1.05547
0.841731 0.82233 1.03579
0.803316 0.819866 1.69456
0.847264 0.553265 1.73178
-0.417229 0.260278 1.06531
0.417225 0.252988 1.06531
0.413241 0.26401 1.76869
-0.413246 0.284176 1.76869
-0.389862 1.4433 1.02596
-0.370689 1.1857 1.68812
0.370722 1.18574 1.68812
0.389896 1.44333 1.02596
-0.392392 0.555568 2.18467
0.392381 0.555568 2.18464
0.369881 0.828302 2.08485
-0.369892 0.828302 2.08914
-0.679868 0.42125 -1.99547
-0.526239 0.35979 -2.04021
-0.725615 0.349094 -1.86276
-0.8169 0.5075 2.10039
-0.61125 0.423679 2.12006
-0.820682 0.431262 1.9265
-0.729045 0.75875 -1.9382
-0.54375 0.825531 -1.92694
-0.751708 0.847124 -1.75294
-0.736276 0.8825 2.01827
-0.54375 0.963658 2.02541
-0.742952 0.957536 1.84329
0.526249 0.35977 -2.04023
0.679918 0.42125 -1.99552
0.725854 0.348865 -1.86276
0.61125 0.423653 2.12009
0.816913 0.5075 2.1004
0.820659 0.431285 1.9265
0.54375 0.82551 -1.92693
0.72911 0.75875 -1.93827
0.751387 0.846804 -1.75295
0.54375 0.963674 2.02542
0.736284 0.8825 2.01828
0.742929 0.957513 1.84328
-0.819735 0.303311 -0.829326
-0.822157 0.317001 -0.484848
-0.83443 0.391119 -0.651037
-0.638333 0.251322 -0.657087
-0.833662 0.369945 0.893066
-0.82859 0.358905 0.548588
-0.84901 0.436309 0.718102
-0.668124 0.245131 0.720827
-0.818257 0.946174 -0.772155
-0.84136 0.875612 -0.61474
-0.813955 0.952705 -0.445225
-0.676924 1.14603 -0.608691
-0.780215 0.962298 0.862495
-0.826456 0.906356 0.701755
-0.792637 0.963887 0.535565
-0.686752 1.27152 0.69903
0.819744 0.303309 -0.829326
0.63832 0.251322 -0.657087
0.822165 0.316999 -0.484848
0.834424 0.391148 -0.651038
0.83367 0.36994 0.893066
0.668126 0.245131 0.720827
0.8286 0.358899 0.548588
0.849034 0.436299 0.718102
0.818331 0.946247 -0.772162
0.676928 1.146 -0.608696
0.841365 0.875629 -0.614746
0.813955 0.952705 -0.445231
[...]
POINT_DATA 3682
SCALARS point_scalars float 1
LOOKUP_TABLE default
-87.7532
-46.9251
-69.8528
-43.4637
-86.3509
-44.7326
-67.9642
-42.5504
-40.9213
-36.0096
-61.8606
-53.5621
-40.6669
-35.7193
-61.7978
-53.3774
17.8523
-117.958
-66.9877
-36.4039
-42.3867
-47.2218
-47.2218
17.8523
-103.238
-40.7812
-37.4498
-41.5023
-48.4386
-47.9024
44.6308
-98.4867
-48.78
-46.5429
-44.3979
-44.7132
-44.7132
-32.6226
-50.6508
-97.8446
-60.6285
-46.7387
-43.6879
-43.5804
71.8105
-107.648
-44.2636
-37.8681
-43.9345
-37.6138
-35.2672
71.8105
-37.8608
-36.2149
159.58
-38.2656
-38.2656
25.3092
-44.1641
-82.2536
-59.968
-46.3862
-39.8682
-39.0307
74.7949
-106.559
-44.2259
-37.3196
-41.7585
-35.4032
-32.5634
74.7949
-35.4991
-32.5634
159.517
-36.9788
-34.9195
7.61454
-44.0573
-82.9702
-59.8533
-45.6321
-39.1044
-38.6586
18.0934
-117.619
-66.6568
-36.0657
-40.6493
-45.0613
-45.0613
18.0934
-103.061
-40.6194
-37.1769
-40.0278
-46.3298
-40.7591
44.894
-98.2157
-48.7225
-46.089
-43.3018
-42.9013
-42.9013
-27.1489
-50.6521
-97.7231
-60.4538
-46.4121
-42.6529
-42.5907
5.42054
16.6714
-49.0374
-42.6279
-27.0574
-41.5753
-67.3343
-38.6131
-40.6579
-47.5477
5.69543
-49.3115
-41.109
-41.0795
-38.4788
-47.3047
-36.6178
-43.4574
-43.8791
-41.3017
-36.6188
-54.1666
17.8359
-66.0549
-36.3812
-43.3187
-41.0611
-54.036
-49.5371
-49.6208
-65.1713
-1.73
199.161
-41.943
-41.7689
-37.0165
-102.214
-47.2798
-46.8128
-38.127
-50.1724
-33.191
-0.00213382
-103.2
-63.6989
-44.5614
-34.8351
-42.392
4.02624
-59.742
-40.8597
-44.9071
-40.1004
-45.2696
-106.503
0.149269
-63.4631
-32.4028
-42.7573
-41.7172
-59.6516
4.25985
-40.8334
-40.079
-43.5792
-44.7154
-25.1993
-38.2224
-40.4855
-43.9179
-46.4871
-36.4353
-38.1172
-38.21
-43.8881
-49.6432
-58.4873
6.43783
-49.5248
-46.6111
-50.1676
-60.2806
-27.1943
-43.7307
-38.0248
-40.3219
-45.8522
-36.8044
-36.1164
-37.8463
-43.6359
6.5164
-49.5216
-58.3752
-49.3292
-60.2024
-46.4106
-50.0383
-57.977
188.585
-90.4704
109.398
-47.1856
-61.3843
-45.1743
-36.1489
-37.9929
-29.6494
-44.2222
-39.2409
-25.4985
147.98
-48.8052
-8.22856
-41.5207
-34.9023
-46.8234
-52.041
-57.6474
188.769
-47.1827
-61.4818
-44.3819
-34.4923
-43.6909
-36.963
-48.7862
-8.21115
-46.4432
-51.9673
-38.8346
-36.7482
-46.7473
-43.1818
-51.1163
-39.7458
-40.981
-43.3354
-35.6976
-38.0833
-47.1361
-87.787
23.0959
-74.9004
-75.2432
-59.5278
-38.6319
-36.4464
-46.633
-43.0307
-40.7654
-43.0192
-46.9945
-87.7029
-59.1525
-44.6685
-45.685
-55.4844
-59.4518
-55.4319
-45.6003
-44.5903
-82.0279
-82.5033
-46.9006
-46.8953
-29.036
13.128
12.6174
-29.0246
156.432
149.072
147.931
154.721
-39.6067
-38.2534
-45.237
-49.5764
-39.4347
-49.4447
-45.0262
-38.005
-39.2321
-39.0359
-35.2243
-35.9202
-80.0715
-67.2164
-67.1264
-79.4377
-41.7499
-44.6463
-45.0404
-46.5819
-41.3773
-46.3239
-44.3596
-43.82
-39.504
-38.2878
-38.0335
-40.5184
-58.6766
-42.2561
-42.1276
-58.6109
-36.5394
-34.5693
-36.8779
-37.9385
20.0544
-103.245
-94.5148
-48.0579
-38.5517
-41.3613
-23.0754
-51.1297
-59.2907
-43.6263
-39.6841
-45.2486
-103.037
22.5941
-94.8701
-36.0617
-45.9501
-40.1015
-50.9808
-20.2446
-59.0832
-39.215
-42.4693
-44.6779
-54.1888
-38.9449
-40.1719
-43.9889
-35.5848
-35.9804
-37.4628
-38.4726
-57.0454
-54.6804
-60.0998
-53.5487
-50.4943
-49.1358
-48.6489
-59.4773
-53.6894
-43.6936
-38.7386
-39.9821
-35.2879
-37.5915
-35.6608
-37.1738
-56.8547
-54.0062
-54.5728
-60.0109
-50.3191
-59.2867
-48.9528
-48.5341
26.3999
1.09746
-91.2791
169.047
-23.9335
8.82109
-93.6501
80.7089
-58.799
-42.3361
-46.854
-56.1045
-42.3132
-43.6807
-43.9379
-37.4608
-29.4616
-28.0655
-32.6606
-23.2592
-43.2913
-39.3249
-43.3141
-38.0811
-72.7724
-72.6718
-43.416
112.376
-40.717
-41.0405
-46.3276
-17.2179
-40.6323
-40.6788
-40.3456
-38.8859
-45.9694
-48.5187
-46.9249
-53.8536
26.6487
1.4903
-90.9365
169.214
-58.3114
-42.2034
-46.8038
-56.2141
-40.8714
-42.2116
-42.8601
-36.0886
-42.5906
-38.7997
-42.7919
-38.7475
-40.685
-40.9319
-46.2928
-17.1889
-45.6684
-48.3053
-46.6037
-53.7566
-37.3502
-36.1733
-37.6383
-36.3326
-41.6719
-46.0636
-43.7501
-43.3781
-43.9102
-43.8744
-46.9961
-41.7481
-39.2933
-43.5202
-41.0807
-41.853
-37.1139
-36.5475
-35.9123
-35.9996
-56.179
-51.6246
-49.9958
-67.9212
16.6794
16.6969
29.703
-10.7879
-65.0693
-65.0291
-69.7705
-62.5936
-37.1397
-35.8953
-37.4185
-36.034
-41.5204
-45.9289
-43.6266
-43.2304
-39.034
-43.3068
-40.8559
-41.5836
-56.0556
-51.4973
-49.8673
-67.7834
-52.2938
-48.3302
-49.7437
-49.5255
-52.4413
-48.4487
-49.7607
-49.6023
-72.9152
-64.7317
-64.6577
-56.6817
-13.2236
-3.40928
-3.46386
10.128
196.856
198.056
135.313
197.394
-40.2796
-42.5871
-41.3628
-44.0005
-40.0899
-42.4251
-41.1714
-43.8428
-36.9646
-38.1654
-36.234
-36.813
-100.678
-127.629
-84.9106
-100.656
-47.2145
-45.7836
-46.984
-44.9227
-46.6194
-45.2589
-46.5475
-44.5694
-38.253
-38.663
-38.1005
-38.1478
-44.1996
-50.7062
-50.6717
-55.6019
-34.5675
-33.5573
-31.6617
-33.3375
-89.6287
135.49
-74.5553
146.292
-60.871
-73.6228
-43.0281
-37.8159
-38.0745
-34.9622
-43.2401
-42.8832
-82.5751
132.428
-49.3012
96.4082
-51.6267
-31.746
-44.3013
-38.0781
-40.3926
-38.9972
-44.9256
-44.2814
-73.6844
144.874
-89.0809
136.77
-61.1828
-74.0097
-37.4306
-32.2618
-41.8794
-36.4316
-42.4388
-42.2601
-49.3134
96.7405
-82.4077
132.823
-51.6232
-31.7223
-40.1516
-38.2317
-43.3823
-36.9449
-44.3119
-44.086
-38.1276
-37.0191
-38.7321
-38.6071
-45.5211
-39.8554
-46.7918
-41.1806
-44.0954
-43.2979
-36.951
-35.5894
-38.2417
-38.7406
-36.8807
-38.1646
-46.586
-7.1753
-47.3904
-49.9148
-53.3229
-83.9785
16.5804
-21.8923
-47.5213
-54.1137
-46.49
-46.1821
-46.6955
-58.0976
-62.5286
-60.1887
-38.1778
-37.8353
-46.6684
-41.1139
-38.5475
-38.3632
-45.3544
-39.6827
-43.6072
-42.5317
-35.6843
-36.6148
-36.6696
-34.9269
-37.9811
-38.4279
-46.4806
-7.14291
17.8546
-21.8329
-47.2855
-49.7917
-53.1991
-83.8065
-47.2935
-53.9921
-62.4486
-60.11
-46.1577
-45.9609
-46.4997
-57.9368
-59.6464
-56.7785
191.82
138.46
-87.0442
-87.5293
130.306
124.605
-54.2648
-46.0347
-67.4017
-52.183
-45.3156
-45.2352
-36.252
-36.7383
-38.904
-39.0055
-33.3022
-31.462
-43.3887
-45.4894
-39.3512
-39.6166
-26.5171
-26.5406
146.018
146.13
-46.0742
-51.0471
-18.0702
1.53764
-41.7047
-41.6474
-35.8375
-36.5588
-46.1233
-46.7514
-56.366
-45.3647
-59.5614
-56.6403
138.856
191.624
-54.0775
-46.2167
-67.6346
-52.326
-44.485
-44.494
-34.5838
-35.3716
-42.9139
-44.8556
-39.0046
-40.3385
-51.0075
-46.0236
1.66034
-18.0521
-46.4522
-45.6236
-45.2839
-56.2992
-39.2241
-38.5062
-37.7567
-36.1296
-46.5845
-46.3146
-41.1588
-45.6951
-50.1554
-50.0987
-39.6085
-39.5199
-39.5135
-42.4854
-41.8209
-44.6559
-35.4742
-35.8209
-38.5181
-38.2185
-46.0447
-48.449
-115.528
-74.5387
20.2276
20.6272
-69.5091
-69.1202
-73.486
-73.4494
-59.1939
-59.1665
-39.0381
-38.278
-37.5422
-35.6996
-46.2521
-46.4805
-40.9973
-45.5536
-42.2722
-39.2834
-41.476
-44.3687
-48.3151
-45.9016
-74.4526
-115.709
-108.429
-56.8676
-52.6527
-86.7515
-49.0733
-43.2509
-48.0176
-43.8023
-51.4493
-44.9959
-48.4786
-45.5629
-73.9437
-93.9465
-51.4375
-48.3027
-107.964
-86.2621
-52.7606
-56.6362
-73.7846
-48.2878
-51.4138
-93.7401
-51.3288
-45.4468
-48.4675
-44.9243
-48.8438
-44.0959
-48.1712
-43.1129
-77.4163
-85.0259
-71.2845
-63.9724
-75.5602
-63.8472
-71.5851
-92.3194
-49.3462
-46.7321
-55.7157
-45.8512
-49.7042
-44.6721
-55.6598
-46.7963
-52.5231
-23.2284
-14.6573
-44.8781
-18.816
27.3404
8.1984
-11.5928
-18.3887
-11.6086
7.99918
27.4345
-52.46
-44.8644
-14.6685
-23.1917
132.567
178.786
204.178
92.0522
91.9657
112.019
135.748
124.425
92.0394
124.558
135.948
112.167
131.204
90.1539
203.771
179.048
-39.2238
-37.983
-40.7403
-41.33
-36.9666
-39.5016
-39.7793
-37.4848
-48.174
-48.447
-43.2921
-43.2188
-54.362
-46.0338
-44.92
-51.8029
-39.0379
-41.1702
-40.5676
-37.786
-54.248
-51.6749
-44.7707
-45.8983
-48.1073
-43.0104
-43.1226
-48.3194
-36.6777
-37.2319
-39.5679
-39.2607
-40.679
-41.5558
-38.0563
-37.2416
-40.4641
-37.0056
-37.9479
-41.5522
-35.6862
-35.7185
-36.022
-35.3636
-36.6132
-35.7761
-36.2357
-36.3172
-97.5398
-74.9389
-125.679
-10.8358
-55.1964
-68.3484
-83.3431
-62.1037
-55.0666
-61.9408
-83.309
-68.3111
-97.5629
-10.6676
-125.667
-74.9562
-35.5757
-41.7194
-43.5202
-40.2702
-41.617
-44.2349
-47.2469
-44.3991
-44.0401
-45.902
-46.2091
-44.1384
-48.2276
-43.6521
-45.8754
-47.1258
-35.2729
-39.9763
-43.1192
-41.2209
-48.03
-46.857
-45.5363
-43.4054
-43.2519
-43.1231
-45.6577
-45.4833
-40.4356
-43.779
-46.6225
-43.0868
-37.3473
-36.5872
-38.5921
-39.3556
-37.0652
-36.9278
-38.1492
-36.2105
-41.6591
-33.8725
-38.8845
-37.3357
-42.3727
-40.021
-38.9223
-34.591
-53.8561
-55.1824
-55.8849
-62.068
-41.5602
-40.3273
-44.4937
-48.1751
-41.238
-48.0359
-44.3631
-40.2231
-53.684
-62.0288
-55.8541
-55.0183
-37.558
-27.9574
-34.8222
-37.6148
-35.7113
-36.2381
-33.5156
-25.575
-37.8069
-38.1058
-32.5559
-36.4779
-38.6512
-37.7078
-33.8762
-38.5985
-30.2982
-25.9674
-108.701
-47.714
-41.3436
-41.4825
-45.5647
-48.9525
-82.2145
-43.6033
-40.5739
-43.9355
-25.7432
-28.2331
-109.251
-39.0365
-45.5692
-39.9041
-48.876
-41.2819
-82.3827
-40.01
-42.5429
-43.5122
-44.1603
-39.2961
-40.2862
-43.5983
-37.8022
-36.5645
-37.0046
-37.4799
-62.5977
-57.6475
-60.6937
-84.3083
-53.0224
-51.3726
-49.6508
-57.2245
-43.8517
-43.2325
-39.0724
-40.069
-37.5073
-36.9558
-36.2458
-36.708
-62.5422
-84.3394
-57.5557
-60.6289
-53.1143
-57.0075
-51.199
-49.5035
31.2711
-21.4194
-81.1344
143.414
-20.6083
8.79488
-141.461
69.4357
-55.2078
-45.3619
-47.2855
-52.6663
-42.4254
-42.8627
-44.5561
-38.189
-27.6051
-26.8507
-30.2215
-23.7604
-41.8376
-40.4724
-42.9691
-38.6987
-75.7383
-75.6425
-68.6866
29.0111
-38.3715
-40.5338
-44.8697
-25.6752
-40.7008
-40.737
-40.2724
-39.9913
-46.8462
-48.0159
-47.3374
-49.5662
31.4897
-21.2497
-80.8327
143.452
-54.7503
-44.7556
-47.204
-54.6209
-40.9328
-41.3702
-43.2268
-36.798
-41.2228
-39.8483
-42.4492
-38.396
-38.3867
-40.4689
-44.8371
-25.6277
-46.5771
-47.781
-47.0561
-49.3988
-36.9399
-37.032
-37.1401
-35.5913
-42.4522
-44.7274
-43.5365
-43.4742
-44.0914
-44.0884
-45.1396
-42.7819
-40.2188
-42.2141
-41.135
-41.5089
-36.6998
-36.5074
-36.5169
-36.4995
-55.2813
-53.136
-52.3033
-59.879
17.7595
17.9025
26.6504
6.13875
-65.8272
-65.807
-67.7992
-64.2951
-36.7158
-36.7714
-36.9151
-35.3132
-42.3074
-44.5928
-43.4005
-43.3301
-39.9689
-42.0207
-40.9031
-41.2559
-55.1592
-53.0004
-52.1782
-59.7454
-50.2898
-49.4773
-49.6834
-48.9861
-50.1888
-49.5779
-49.7161
-49.108
-68.8191
-65.384
-65.3811
-60.3676
-7.34863
-2.17163
-2.21779
4.58945
197.236
208.118
172.839
197.402
-41.0147
-42.311
-41.6243
-42.9325
-40.8312
-42.1425
-41.4421
-42.7671
-37.035
-37.5293
-36.5759
-36.9636
-102.421
-117.141
-92.0187
-102.416
-47.3594
-46.6988
-47.1792
-46.7883
-46.845
-46.2101
-46.7241
-46.3833
-37.9014
-38.2048
-38.0786
-38.1625
-46.4092
-50.3027
-50.2865
-54.6402
-33.7485
-33.3005
-32.8372
-33.0218
1.68582
21.9027
-85.7669
95.3372
-111.563
-20.9053
-98.4593
84.3543
-73.4549
-61.9892
-62.2224
-66.8106
-46.6318
-41.7993
-42.5032
-38.683
-37.5487
-32.1802
-36.4053
-34.606
-41.7656
-43.1497
-42.6977
-43.1611
0.966431
4.27309
-94.5286
115.694
-54.0414
-75.371
-73.3629
12.2042
-48.1094
-41.6135
-47.0103
-34.4198
-43.8964
-44.0972
-44.5247
-38.81
-39.8583
-40.3984
-39.9657
-39.5117
-44.9046
-44.588
-45.0445
-46.7202
-113.095
-18.1913
-99.2245
90.2216
7.628
22.0558
-85.537
95.6479
-73.2112
-61.727
-62.1245
-66.6745
-34.8065
-30.2707
-34.4072
-31.9097
-44.6288
-40.8049
-41.0793
-37.2426
-40.782
-42.5683
-41.933
-43.3042
-53.9372
-75.3067
-72.6512
12.5106
1.35595
4.39146
-94.3842
115.559
-47.968
-41.5872
-47.0099
-34.3772
-39.6879
-40.452
-39.7305
-39.1648
-42.6414
-42.6491
-43.4092
-37.6001
-44.2232
-44.3447
-44.4292
-46.4397
-48.1075
-36.2784
-30.3001
-28.613
-38.7267
-38.0452
-38.4829
-37.6532
-40.2015
-40.9269
-41.2728
-40.1443
-44.0795
-43.9044
-45.4984
-42.4598
-45.9267
-39.1053
-45.2404
-45.6393
-36.3938
-36.1541
-36.7784
-34.8171
-37.6411
-38.6724
-37.9839
-38.4931
-38.3046
-37.8134
-38.1356
-38.199
-50.3291
-41.8744
-48.3215
-24.1066
-52.1852
-47.6371
-48.79
-49.9523
-59.5461
-57.9055
-55.881
-68.1637
-12.471
13.4457
13.5609
-7.38423
-49.8735
-49.1877
-48.9201
-51.3087
-47.6875
-45.1975
-47.7851
-46.486
-49.85
-50.9559
-48.9344
-53.7788
-59.625
-63.7361
-62.5135
-61.5773
-47.9975
-37.5713
-30.7191
-32.2085
-43.9131
-43.779
-45.2698
-42.3188
-38.5274
-37.8426
-38.2927
-37.4298
-40.0255
-40.7686
-41.1136
-39.9751
-45.41
-38.6767
-44.7148
-44.3949
-37.1084
-36.7942
-36.5545
-37.0146
-36.0636
-35.8619
-36.4825
-34.34
-37.3626
-38.4069
-37.7199
-38.2083
-50.2245
-41.7112
-48.179
-23.6738
-12.6094
13.5005
13.8489
-7.11686
-52.0701
-47.5055
-48.6703
-49.8327
-59.434
-57.7907
-55.7601
-68.0639
-49.6938
-48.9878
-48.7181
-51.1252
-59.4743
-63.6721
-62.4308
-61.4956
-47.496
-44.9954
-47.6642
-46.277
-49.7462
-50.8164
-48.786
-53.6193
-65.1923
-55.4408
-58.7112
-57.1907
174.268
192.492
198.44
161.868
-91.4914
-79.9455
-89.1156
-89.4725
86.7303
162.031
121.353
118.746
-46.8378
-47.6341
-50.1996
-46.6332
-58.4653
-63.9377
-64.9788
-56.3417
-44.4757
-46.1624
-45.2095
-45.14
-37.418
-35.0513
-36.1141
-36.2654
-38.7153
-38.1903
-38.0806
-38.2237
-24.653
-34.5829
-31.7255
-30.6403
-43.6772
-44.8615
-44.8986
-44.813
-38.8744
-39.4563
-39.1708
-39.4299
-32.4735
-18.7978
-25.5623
-25.5959
134.269
145.606
146.549
147.074
-47.7896
-49.487
-47.701
-48.4302
-12.0854
-5.2797
-12.895
-3.39818
-40.8064
-42.7493
-41.5772
-41.5463
-36.9361
-33.1046
-35.3915
-35.9485
-46.7592
-46.8362
-46.5964
-46.9175
-53.3305
-51.256
-55.8941
-47.8334
-64.8837
-55.6135
-58.3323
-56.9689
174.529
194.423
161.925
198.532
-46.8132
-47.6829
-50.1034
-46.7189
-58.3954
-64.0474
-65.0294
-56.4504
-43.5546
-45.4593
-44.3688
-44.3986
-35.9261
-33.6557
-34.4211
-34.7306
-43.147
-44.3332
-44.3824
-44.2344
-37.5768
-37.8717
-40.2654
-35.7824
-47.7655
-49.49
-48.4393
-47.6674
-12.0542
-5.31824
-3.35926
-12.8794
-46.405
-46.4276
-46.5811
-46.1632
-53.2418
-51.1875
-47.7575
-55.8111
-38.0993
-39.5697
-39.0438
-38.7051
-36.552
-36.8797
-37.2033
-36.3936
-45.7237
-46.0136
-47.5359
-46.5272
-43.2532
-42.903
-42.0844
-44.3853
-48.8482
-53.4599
-50.8279
-50.8014
-40.7003
-38.8876
-39.7212
-39.6791
-40.9543
-41.1501
-40.2178
-41.6667
-42.4392
-43.9761
-42.5794
-43.9107
-35.4303
-35.9303
-35.5953
-35.7556
-36.8361
-38.1994
-38.1323
-37.973
-48.675
-45.5303
-46.4625
-47.8809
-77.5995
-96.4342
-105.666
-80.4272
28.0031
16.6686
22.6635
22.2549
-37.1293
-121.745
-72.3766
-72.3969
-72.0942
-79.4781
-74.8384
-74.8205
-61.1726
-57.4606
-59.2846
-59.2721
-37.8864
-39.3736
-38.8498
-38.4895
-36.2576
-36.6758
-36.9219
-36.0204
-45.6008
-46.0015
-46.4359
-47.4101
-43.1031
-42.7481
-41.9279
-44.2393
-40.7299
-40.9479
-41.4517
-39.9957
-42.1495
-43.6389
-42.2466
-43.6088
-48.5401
-45.3806
-47.7431
-46.3174
-77.4342
-96.3929
-80.3453
-105.568
-67.4467
-60.356
-58.9707
-56.7951
-42.4953
-49.9628
-42.847
-46.0627
-45.8516
-46.333
-44.9782
-46.04
-64.0919
-54.3989
-56.4496
-52.5415
-66.2131
-61.2375
-59.3842
-57.8291
-63.9501
-54.3646
-56.3775
-52.5725
-45.7551
-46.2277
-44.9101
-45.9742
-42.4452
-49.7685
-43.0277
-45.9791
-80.5611
-81.2676
-84.0132
-74.5023
-80.6308
-82.1329
-84.3044
-74.9427
-41.9117
-47.6179
-49.188
-48.5858
-42.6022
-47.698
-49.134
-48.5062
-36.2176
-30.4298
-27.6146
-22.6665
5.10151
16.8156
6.40823
16.3312
4.57526
15.8418
6.68971
17.4423
-36.2057
-30.4113
-27.6244
-22.67
170.44
157.651
179.892
145.335
140.963
127.912
147.528
147.346
126.904
141.125
147.473
147.747
155.85
170.666
143.25
179.244
-39.0846
-39.7697
-39.397
-40.316
-37.6119
-38.3316
-38.2696
-38.8888
-42.8152
-45.8105
-43.9007
-46.2485
-49.7936
-51.6433
-47.4863
-49.0262
-38.9048
-39.5969
-39.2201
-40.1494
-49.6664
-51.5172
-47.3497
-48.8929
-42.5251
-45.5966
-43.702
-46.1389
-37.351
-38.0756
-38.0303
-38.6501
-38.9461
-40.1601
-38.4557
-39.4708
-39.9872
-38.657
-39.3433
-38.2687
-34.9528
-35.0945
-35.3931
-35.4299
-35.8055
-35.8551
-35.9885
-35.9119
-108.267
-42.6036
-97.9595
-63.694
-62.3973
-64.2991
-70.5549
-70.9617
-64.214
-62.2613
-70.897
-70.4677
-42.5524
-107.232
-63.5778
-97.8592
-42.9514
-40.2147
-41.6723
-41.464
-42.9676
-43.7144
-45.267
-45.2025
-44.6633
-44.9141
-45.1707
-45.4281
-47.0941
-46.0938
-46.8584
-45.6669
-42.5269
-39.8833
-41.239
-41.1148
-46.8486
-45.8555
-46.58
-45.3954
-43.8642
-44.2678
-44.4553
-44.8617
-42.0119
-42.8901
-44.4404
-44.4865
-40.2868
-38.9864
-39.4849
-38.9994
-40.3347
-40.2264
-36.327
-38.5593
-42.2309
-36.8216
-39.3909
-42.3062
-40.429
-42.0274
-39.6861
-39.8711
-58.4022
-59.4995
-57.2981
-59.0188
-41.2485
-42.8873
-41.9027
-43.6033
-41.0767
-42.7265
-41.8134
-43.5064
-58.322
-59.4235
-57.2335
-58.9732
-37.7494
-35.5904
-36.7121
-35.3032
-33.065
-36.1951
-33.1978
-35.2056
-37.427
-37.0048
-36.0611
-36.1593
-38.0963
-38.5383
-37.2953
-37.1931
-101.253
127.321
-100.169
68.008
-104.706
-80.6173
-41.5044
-38.8892
-42.0937
-37.8715
-41.261
-43.9376
-91.0973
82.4656
-79.6383
42.1715
-65.0999
-53.9743
-44.1415
-39.1304
-40.4936
-39.0411
-44.1673
-43.9172
-100.097
67.6058
-101.256
127.631
-104.396
-80.429
-38.9223
-35.7237
-40.0532
-37.1152
-40.0587
-42.3975
-80.1981
42.2498
-91.2802
82.4317
-64.9685
-53.9021
-40.0819
-38.3683
-43.1629
-38.0657
-43.4669
-43.5605
-51.8901
-49.6519
-38.994
-39.6191
-41.4799
-39.5884
-46.3778
-42.0891
-34.8553
-42.5249
-36.7728
-35.5526
-36.7468
-37.4125
-37.7064
-38.2245
-54.525
-46.247
-53.848
-54.6597
-57.046
-73.0604
-28.7565
-76.2627
-49.8947
-51.8821
-48.7945
-48.5329
-48.7461
-51.9677
-56.8601
-57.0215
-51.5493
-48.8139
-45.9673
-41.8504
-38.8021
-39.3749
-41.2891
-39.3988
-34.5518
-42.3477
-36.8748
-37.6702
-36.4684
-35.028
-36.458
-37.1156
-54.4003
-45.9765
-29.3499
-76.2057
-53.7366
-54.5548
-56.9419
-72.9838
-49.7141
-51.6895
-56.7127
-56.8347
-48.6225
-48.3253
-48.6329
-51.811
-82.5618
151.339
-91.2893
102.432
-86.342
-94.4121
182.389
151.867
-126.747
68.851
-140.009
56.9489
-88.4753
-91.9546
91.9566
95.9013
-58.4108
-57.9956
-42.8122
-43.7612
-51.1989
-45.8588
-60.6526
-51.5702
-44.8923
-38.2718
-44.6114
-38.6001
-43.9254
-44.0275
-37.4902
-37.5824
-31.8665
-28.1392
-31.0943
-26.1306
-32.8732
-33.2725
-25.1175
-23.6771
-43.8426
-39.6906
-40.5171
-37.6843
-43.0826
-43.8252
-39.0211
-39.3849
-71.6961
21.2844
-71.6852
21.4497
-44.371
-44.3599
111.327
111.246
-46.4407
-28.6378
-45.3346
-24.448
-46.0969
-46.846
-20.2872
-14.3952
-40.1795
-39.7117
-40.0934
-39.5315
-40.3428
-40.2906
-38.3648
-38.5948
-45.9494
-48.2644
-47.932
-50.5069
-46.5328
-46.96
-57.0176
-51.1934
-82.9435
151.732
-91.009
102.495
-85.9372
-94.1521
152.003
182.614
-58.1184
-57.4788
-42.9249
-42.8981
-51.0646
-45.9091
-60.8044
-50.9213
-43.5027
-36.8901
-43.3756
-37.3159
-42.9735
-42.8146
-36.0778
-36.2835
-43.214
-38.4066
-40.0049
-36.9891
-42.5504
-43.243
-38.4173
-37.7721
-46.4178
-28.5922
-45.2452
-24.3941
-46.8352
-46.037
-14.3783
-20.2581
-45.6026
-48.0809
-47.6931
-50.3251
-46.6657
-46.1721
-51.069
-56.8697
-37.7559
-36.4237
-36.986
-35.016
-38.0362
-37.2892
-36.7268
-36.0013
-42.0169
-41.505
-46.0283
-46.14
-43.333
-44.4685
-42.2442
-44.6515
-45.074
-42.7113
-45.0454
-42.6924
-46.9339
-46.9529
-41.7467
-41.7251
-39.2401
-39.7111
-43.5554
-43.558
-40.2511
-42.0998
-41.0039
-42.6615
-36.936
-36.9403
-36.3689
-36.5163
-35.8359
-36.0443
-36.0417
-35.8804
-53.9497
-63.8811
-50.1692
-56.2477
-49.3256
-50.9193
-71.2375
-64.668
24.4414
5.26406
24.5132
5.36863
28.9565
29.082
-10.6455
-10.4957
-66.6
-63.5511
-66.5596
-63.5121
-69.4398
-69.4209
-62.4647
-62.4446
-37.5534
-36.1874
-36.7253
-34.6643
-37.8284
-37.0539
-36.4589
-35.6518
-41.8715
-41.3485
-45.9021
-46.0083
-44.3505
-43.2029
-42.0896
-44.5104
-38.9914
-39.4413
-43.3526
-43.3272
-41.8768
-40.0191
-40.7235
-42.4022
-53.8241
-63.7876
-50.0446
-56.0869
-50.7906
-49.1953
-64.5131
-71.1427
-52.4659
-51.6737
-49.9208
-47.8787
-49.8236
-48.731
-48.6712
-49.319
-52.5647
-51.6931
-49.8367
-48.0514
-48.7494
-49.8395
-49.3454
-48.8015
-71.8765
-71.9047
-68.8629
-59.7242
-68.5316
-59.68
-56.4961
-56.4445
-13.6403
-13.6506
-8.56223
2.61543
2.50505
-8.58851
9.72036
9.55345
208.699
171.482
193.434
192.967
135.989
136.06
171.815
209.081
-40.5626