# vtk DataFile Version 2.0
tet_velo
ASCII
DATASET UNSTRUCTURED_GRID
POINTS 29498 float
-0.643297 0.215 -2.115
-0.578375 0.315 2.255
-0.665 0.735 -2.02974
-0.605 0.959717 2.185
0.643403 0.215 -2.115
0.587303 0.325 2.265
0.665 0.735 -2.02984
0.605 0.959818 2.185
-0.679738 0.190252 -0.658333
-0.653494 0.228189 0.798334
-0.756552 0.921458 -0.624827
-0.732173 0.991985 0.780087
0.688178 0.188192 -0.655
0.667023 0.227313 0.805
0.756591 0.92153 -0.624893
0.732992 0.992871 0.780053
-1.34765 -0.187145 -3.27314
-1.34651 -0.134339 -2.12809
-1.36376 -0.140458 -0.669852
-1.32813 -0.120115 0.798711
-1.26108 -0.0549928 2.25783
-1.24801 -0.0132067 3.40718
-1.25688 0.0207573 4.5487
-1.34838 0.128986 -3.24969
-1.35168 0.204734 -2.11031
-1.38348 0.214569 -0.662566
-1.33309 0.235715 0.789592
-1.23727 0.288793 2.23832
-1.23271 0.328966 3.38683
-1.25066 0.364099 4.53009
-1.36079 0.723238 -3.18785
-1.3789 0.797821 -2.04599
-1.44241 0.926991 -0.633591
-1.39524 0.977954 0.774837
-1.27222 0.97069 2.18801
-1.25557 1.00773 3.3371
-1.26779 1.05076 4.48785
-1.37649 1.7301 -3.13572
-1.38986 1.8193 -2.00202
-1.41735 1.95611 -0.606547
-1.41915 2.04423 0.777274
-1.38531 2.0698 2.17278
-1.35554 2.08711 3.30655
-1.33836 2.11638 4.45147
-0.66471 -0.183183 -3.27607
-0.653756 -0.127808 -2.1323
-0.673377 -0.153341 -0.667961
-0.661993 -0.125474 0.807313
-0.620798 -0.03985 2.27185
-0.60818 -0.00335526 3.41722
-0.612092 0.0251113 4.5552
-0.663415 0.126338 -3.25037
-0.592496 0.338022 3.39497
-0.606528 0.367446 4.53525
-0.670289 0.696964 -3.18096
-0.609502 1.00483 3.33715
-0.620098 1.04949 4.48893
-0.677768 1.71306 -3.12877
-0.683847 1.80374 -1.9944
-0.711518 1.95376 -0.601672
-0.730644 2.0488 0.777481
-0.717763 2.06986 2.16999
-0.69443 2.08484 3.30388
-0.678307 2.11426 4.44991
0.672057 -0.18343 -3.27534
0.670413 -0.128255 -2.13138
0.686939 -0.154753 -0.664822
0.658673 -0.125471 0.813135
0.608563 -0.0341288 2.27966
0.634611 0.00107308 3.42334
0.658312 0.0279584 4.55994
0.666189 0.126206 -3.24998
0.632734 0.342865 3.40091
0.657445 0.370307 4.53974
0.677214 0.696905 -3.18074
0.633906 1.00686 3.33994
0.652859 1.05145 4.49224
0.711101 1.713 -3.12811
0.720536 1.80371 -1.99378
0.711318 1.95382 -0.600906
0.6687 2.04905 0.778515
0.629298 2.0703 2.17141
0.628023 2.08553 3.30578
0.638331 2.11517 4.45225
1.35066 -0.1877 -3.27136
1.35258 -0.13527 -2.12579
1.37394 -0.142279 -0.664533
1.33719 -0.119782 0.808006
1.27035 -0.0484619 2.26976
1.27804 -0.00665402 3.41781
1.30246 0.0256671 4.55762
1.34593 0.128606 -3.24847
1.34611 0.204169 -2.10903
1.38863 0.212678 -0.658098
1.35058 0.235553 0.798157
1.25878 0.295963 2.24989
1.27105 0.335754 3.39691
1.29894 0.368992 4.53856
1.36215 0.723042 -3.18704
1.3743 0.797686 -2.04552
1.44108 0.926599 -0.632046
1.39959 0.978301 0.777947
1.27973 0.972483 2.19241
1.27714 1.01126 3.34313
1.29799 1.05427 4.49441
1.40222 1.72996 -3.13422
1.41495 1.81921 -2.00055
1.41283 1.9562 -0.604722
1.36789 2.04468 0.779711
1.31334 2.07069 2.17599
1.29842 2.08849 3.31058
1.30214 2.11813 4.45622
-0.700696 0.475 -2.11892
5.29885e-05 0.201926 -2.12807
-0.676602 0.187541 -1.38667
-0.611985 0.637358 2.2403
0.004464 0.317179 2.26282
-0.629064 0.258464 1.52667
0 0.81115 -2.10594
-0.74252 0.859973 -1.32728
0 0.99789 2.22312
-0.704952 1.01222 1.48254
0.700763 0.475 -2.11898
0.679838 0.187548 -1.385
0.610642 0.642409 2.23949
0.644686 0.258634 1.535
0.74248 0.85995 -1.32737
0.705246 1.01259 1.48253
-0.68379 0.192046 0.0700001
-0.842994 0.555855 -0.64158
0.00422005 0.183833 -0.656667
-0.841201 0.610087 0.78921
0.00676477 0.225231 0.801667
-0.755343 0.967701 0.0776299
1.90925e-05 1.23914 -0.62486
0.000409414 1.39936 0.78007
0.695017 0.190336 0.075
0.843065 0.554861 -0.639947
0.841118 0.610092 0.792527
0.755421 0.96783 0.07758
-0.86215 0.515427 -1.35698
-0.851576 0.582971 0.073815
-0.886146 0.623723 1.50461
0.00213652 0.182186 -1.38583
0.00549241 0.18389 0.0725001
0.00561439 0.251867 1.53083
2.64943e-05 0.475 -2.36752
0.002232 0.639884 2.31731
9.54626e-06 0.940548 -1.32733
0.000214254 1.42334 0.0776049
0.000204707 1.20397 1.48254
0.862145 0.51493 -1.35618
0.851828 0.582476 0.07629
0.886029 0.626251 1.50876
-0.997486 0.209867 -2.11265
-0.648527 0.0435962 -2.12365
-0.653356 0.170669 -2.68269
-0.907824 0.301897 2.24666
-0.599587 0.137575 2.26342
-0.585436 0.326511 2.82499
-1.02195 0.766411 -2.03787
-0.667644 0.715982 -2.60535
-0.674423 1.26937 -2.01207
-0.938609 0.965203 2.1865
-0.607251 0.982274 2.76107
-0.661381 1.51479 2.1775
0.656908 0.0433726 -2.12319
0.654796 0.170603 -2.68249
0.994754 0.209584 -2.11201
0.597933 0.145436 2.27233
0.610018 0.333932 2.83295
0.92304 0.310481 2.25744
0.671107 0.715952 -2.60529
0.692768 1.26936 -2.01181
1.01965 0.766343 -2.03768
0.619453 0.983337 2.76247
0.617149 1.51506 2.1782
0.942366 0.96615 2.1887
-1.03161 0.20241 -0.66045
-0.676557 0.0184552 -0.663147
-0.993293 0.231952 0.793963
-0.657743 0.0513574 0.802823
-1.09948 0.924224 -0.629209
-0.734035 1.43761 -0.613249
-1.06371 0.984969 0.777462
-0.731409 1.52039 0.778784
0.687559 0.0167194 -0.659911
1.0384 0.200435 -0.656549
0.662848 0.050921 0.809068
1.0088 0.231433 0.801579
0.733954 1.43768 -0.6129
1.09884 0.924064 -0.62847
0.700846 1.52096 0.779284
1.06629 0.985586 0.779
-1.34708 -0.160742 -2.70062
-1.34802 -0.0290793 -3.26142
-1.00618 -0.185164 -3.27461
-1.35513 -0.137398 -1.39897
-1.3491 0.0351974 -2.1192
-1.00014 -0.131073 -2.1302
-1.34594 -0.130287 0.0644292
-1.37362 0.0370553 -0.666209
-1.01857 -0.1469 -0.668907
-1.29461 -0.0875541 1.52827
-1.33061 0.0577997 0.794152
-0.995062 -0.122795 0.803012
-1.25455 -0.0340997 2.83251
-1.24918 0.1169 2.24807
-0.940941 -0.0474214 2.26484
-1.25245 0.00377529 3.97794
-1.24036 0.15788 3.39701
-0.928096 -0.00828099 3.4122
-1.25377 0.192428 4.53939
-0.934488 0.0229343 4.55195
-1.35003 0.16686 -2.68
-1.35459 0.426112 -3.21877
-1.0059 0.127662 -3.25003
-1.36758 0.209651 -1.38644
-1.36529 0.501277 -2.07815
-1.35829 0.225142 0.0635128
-1.41294 0.57078 -0.648078
-1.28518 0.262254 1.51396
-1.36417 0.606834 0.782215
-1.23499 0.30888 2.81257
-1.25475 0.629741 2.21316
-1.24169 0.346532 3.95846
-1.24414 0.668346 3.36196
-0.912605 0.333494 3.3909
-1.25922 0.707429 4.50897
-0.928595 0.365773 4.53267
-1.36985 0.76053 -2.61692
-1.36864 1.22667 -3.16179
-1.01554 0.710101 -3.18441
-1.41065 0.862406 -1.33979
-1.38438 1.30856 -2.02401
-1.41883 0.952472 0.0706233
-1.42988 1.44155 -0.620069
-1.33373 0.974322 1.48142
-1.4072 1.51109 0.776055
-1.26389 0.989208 2.76255
-1.32877 1.52024 2.18039
-1.26168 1.02924 3.91247
-1.30556 1.54742 3.32183
-0.932535 1.00628 3.33712
-1.30307 1.58357 4.46966
-0.943943 1.05013 4.48839
-1.38317 1.7747 -2.56887
-1.02713 1.72158 -3.13225
-1.4036 1.8877 -1.30428
-1.03685 1.81152 -1.99821
-1.41825 2.00017 0.0853632
-1.06443 1.95493 -0.60411
-1.40223 2.05701 1.47503
-1.0749 2.04651 0.777377
-1.37043 2.07846 2.73967
-1.05154 2.06983 2.17139
-1.34695 2.10174 3.87901
-1.02499 2.08597 3.30522
-1.00833 2.11532 4.45069
-0.659233 -0.155495 -2.70418
-0.664063 -0.0284225 -3.26322
0.00367373 -0.183306 -3.2757
-0.663567 -0.140574 -1.40013
0.00832807 -0.128031 -2.13184
-0.667685 -0.139408 0.069676
0.0067814 -0.154047 -0.666392
-0.641396 -0.082662 1.53958
-0.00165999 -0.125473 0.810224
-0.614489 -0.0216026 2.84453
-0.00611778 -0.0369894 2.27576
-0.610136 0.010878 3.98621
-0.600338 0.167333 3.4061
0.0132157 -0.00114109 3.42028
-0.60931 0.196279 4.54523
0.0231099 0.0265348 4.55757
-0.666852 0.411651 -3.21567
0.00138696 0.126272 -3.25017
-0.599512 0.352734 3.96511
-0.600999 0.671427 3.36606
0.0201187 0.340443 3.39794
-0.613313 0.70847 4.51209
0.0254588 0.368876 4.53749
-0.674028 1.20501 -3.15487
0.00346271 0.696934 -3.18085
-0.6148 1.02716 3.91304
-0.651966 1.54483 3.32051
0.0122022 1.00584 3.33854
-0.649203 1.58188 4.46942
0.0163805 1.05047 4.49058
-0.680808 1.7584 -2.56159
0.0166662 1.71303 -3.12844
-0.697682 1.87875 -1.29803
0.0183446 1.80373 -1.99409
-0.721081 2.00128 0.0879047
-9.99545e-05 1.95379 -0.601289
-0.724203 2.05933 1.47374
-0.030972 2.04892 0.777998
-0.706096 2.07735 2.73694
-0.0442321 2.07008 2.1707
-0.686369 2.09955 3.8769
-0.0332034 2.08518 3.30483
-0.0199879 2.11471 4.45108
0.671235 -0.155842 -2.70336
0.669123 -0.0286119 -3.26266
1.01136 -0.185565 -3.27335
0.678676 -0.141504 -1.3981
1.0115 -0.131762 -2.12858
0.672806 -0.140112 0.0741567
1.03044 -0.148516 -0.664678
0.633618 -0.0798 1.5464
0.997933 -0.122627 0.810571
0.621587 -0.0165279 2.8515
0.939458 -0.0412953 2.27471
0.646462 0.0145158 3.99164
0.633672 0.171969 3.41212
0.956327 -0.00279047 3.42058
0.657879 0.199133 4.54984
0.980384 0.0268128 4.55878
0.671702 0.411556 -3.21536
1.00606 0.127406 -3.24923
0.64509 0.356586 3.97032
0.63332 0.67486 3.37042
0.95189 0.339309 3.39891
0.655152 0.710877 4.51599
0.978193 0.369649 4.53915
0.694157 1.20495 -3.15442
1.01968 0.709974 -3.18389
0.643383 1.02915 3.91609
0.630965 1.54619 3.32286
0.955523 1.00906 3.34153
0.645595 1.58331 4.47224
0.975427 1.05286 4.49333
0.715818 1.75835 -2.56095
1.05666 1.72148 -3.13117
0.715927 1.87877 -1.29734
1.06774 1.81146 -1.99717
0.690009 2.00144 0.0888045
1.06208 1.95501 -0.602814
0.648999 2.05968 1.47496
1.01829 2.04686 0.779113
0.628661 2.07792 2.73859
0.971321 2.0705 2.1737
0.633177 2.10035 3.87901
0.963221 2.08701 3.30818
0.970236 2.11665 4.45423
1.35162 -0.161485 -2.69858
1.34829 -0.0295466 -3.25992
1.36326 -0.138774 -1.39516
1.34934 0.0344491 -2.11741
1.35557 -0.13103 0.0717362
1.38128 0.0351999 -0.661316
1.30377 -0.084122 1.53888
1.34389 0.0578856 0.803081
1.2742 -0.027558 2.84379
1.26456 0.12375 2.25982
1.29025 0.00950653 3.98772
1.27454 0.16455 3.40736
1.3007 0.19733 4.54809
1.34602 0.166387 -2.67875
1.35404 0.425824 -3.21776
1.36737 0.208423 -1.38356
1.3602 0.500927 -2.07727
1.36961 0.224116 0.0700296
1.41486 0.569638 -0.645072
1.30468 0.265758 1.52402
1.37508 0.606927 0.788052
1.26491 0.315858 2.8234
1.26925 0.634223 2.22115
1.28499 0.352373 3.96774
1.27409 0.673509 3.37002
1.29847 0.711631 4.51649
1.36823 0.760364 -2.61628
1.38219 1.2265 -3.16063
1.40769 0.862142 -1.33878
1.39462 1.30845 -2.02304
[...]
POINT_DATA 29498
VECTORS point_vectors float
-0.439609 -2.49896 5.76486
-0.0582374 0.128364 0.413167
-0.986292 1.06816 2.18297
-0.0253771 -0.0521594 0.167122
0.443416 -2.49467 5.79274
0.0682813 0.223515 0.696948
0.956863 1.04077 2.1269
0.0268271 -0.0533756 0.167908
0 0 0
-2.53218e-18 -2.96842e-19 -5.88342e-17
0 0 0
0 0 0
-0.000450222 -0.000159957 0.0301977
-0.000183515 0.000592739 0.00815552
0 0 0
-6.5138e-18 1.13958e-17 3.96239e-17
-0.550632 -0.298314 19.7833
-1.29799 -0.927683 20.4721
-0.373628 -0.505345 21.4302
0.218001 -0.0715091 21.5323
0.769165 0.437716 21.32
0.92522 0.474749 20.9553
0.739173 0.337074 21.2502
-0.672362 -0.236757 19.66
-1.95094 -0.816048 20.3713
-0.612871 -0.645238 21.5066
0.169672 -0.25565 21.64
1.11697 0.294505 20.8881
1.26827 0.252449 20.3936
1.01199 0.185518 19.5166
-0.789828 0.0916236 19.5745
-2.21339 0.272703 20.2484
-1.34142 -0.342296 21.4673
-0.145497 -0.319813 21.7768
0.913611 -0.491514 21.2069
1.01659 -0.538221 21.1401
0.95358 -0.411028 20.3596
-0.498838 0.371961 19.8821
-0.910543 0.697734 20.2933
-0.901396 0.539357 21.1247
-0.242562 0.00696041 21.5053
0.199699 -0.344339 21.3043
0.314424 -0.425825 20.9919
0.204524 -0.317366 20.8378
-0.493055 -0.627315 19.2784
-1.50592 -3.20944 20.7448
-0.127262 -0.411582 21.4331
0.259968 0.411821 20.0768
0.206011 1.18234 18.3216
0.538295 1.49905 18.0066
0.854119 0.732061 15.5421
-0.634056 -0.522871 18.9671
0.866609 1.72603 9.5541
1.44325 0.862304 10.4812
-0.824998 0.1493 18.5856
1.45306 -0.306628 7.65954
1.18022 -0.21072 14.751
-0.395429 0.683019 19.5397
-0.849204 1.51267 20.0361
-1.12537 1.61702 21.2011
-0.244153 0.154734 21.8839
0.157955 -0.536507 21.382
0.224558 -0.650147 21.0333
0.140378 -0.510942 20.1763
0.497188 -0.622862 19.2859
1.54449 -3.17239 20.7393
0.126508 -0.4269 21.4901
-0.250425 0.424801 20.0824
-0.18129 1.19483 18.1417
-0.601463 1.52413 17.9184
-0.861292 0.737815 16.1543
0.637018 -0.520738 18.9683
-1.02064 1.79217 10.2568
-1.43279 0.858959 11.1978
0.831288 0.147067 18.5982
-1.53834 -0.320862 8.60758
-1.1596 -0.244808 15.258
0.409995 0.670285 19.559
0.877639 1.46649 20.0493
1.12628 1.61719 21.202
0.247612 0.182456 21.9073
-0.126423 -0.544386 21.4125
-0.218923 -0.698399 21.0315
-0.137761 -0.516822 20.1517
0.553059 -0.29372 19.791
1.2906 -0.92614 20.4737
0.375714 -0.506067 21.4294
-0.212975 -0.0735475 21.5262
-0.778589 0.424972 21.3118
-0.912511 0.434066 20.9823
-0.736611 0.265575 21.1821
0.677425 -0.235948 19.6557
1.96999 -0.824655 20.3735
0.614643 -0.639263 21.4997
-0.168751 -0.249885 21.6323
-1.09874 0.240341 21.0729
-1.21693 0.202476 20.6706
-0.993107 0.127494 20.121
0.787936 0.0891894 19.5778
2.22879 0.277229 20.2496
1.34252 -0.344443 21.4715
0.140728 -0.319216 21.7759
-0.898128 -0.512016 21.3821
-0.99099 -0.532917 21.1942
-0.927507 -0.393022 20.4247
0.494728 0.359814 19.8891
0.904089 0.676108 20.3017
0.9036 0.542197 21.1272
0.246436 0.00787962 21.5184
-0.195066 -0.380849 21.2982
-0.29944 -0.444295 20.9384
-0.201609 -0.33624 20.8728
-0.728763 -0.0530325 0.979034
3.36409e-06 -0.0692854 0.403763
-0.00342252 -0.0017149 0.205506
-0.0337264 0.0168832 -0.020268
0.00332705 0.0135646 0.04268
-0.00433993 0.0034954 0.107779
-4.47245e-05 0.0576528 0.164506
-0.175599 -0.041442 0.480595
0.00118006 0.0320739 -0.059784
0.0276192 0.0219138 0.132925
0.740018 -0.0540507 0.994104
0.00333327 -0.00186887 0.200377
0.0402063 0.0193022 -0.0241728
0.00508392 0.00442199 0.0842789
0.174825 -0.041327 0.478136
-0.0292754 0.0232687 0.140898
0 0 0
-7.22618e-05 0.000243335 0.0109127
-4.2229e-06 1.59578e-06 0.000582957
0 0 0
0 0 0
0 0 0
1.13252e-05 0.0555708 0.1332
-0.000317781 -0.00250725 0.021991
0 0 0
5.2638e-05 0.000209573 0.00837171
0 0 0
0 0 0
0 0 0
-1.11124e-05 0.00131074 0.0107623
0.0952831 0.0396528 0.426767
0 0 0
0 0 0
0 0 0
4.86372e-05 0.0446396 0.113068
0 0 0
1.44897e-05 0.00106577 0.0119518
-6.03564e-06 0.00636011 0.0632635
2.0383e-06 0.00120579 -0.00313357
0 0 0
2.39695e-05 0.0018025 0.0147862
-0.111779 0.0495423 0.497037
-3.56003 -2.12909 20.2304
-2.36699 -5.20312 21.1792
-1.98948 -1.71942 17.7535
0.950547 1.34347 12.3844
-0.265553 1.15575 11.2946
-0.488483 1.16847 5.93249
-4.13402 0.9774 19.9746
-2.76546 1.14372 16.9064
-1.97745 2.69449 19.7891
1.302 0.00849064 15.0462
0.449234 0.123977 3.80815
0.664848 -0.796167 18.2718
2.41199 -5.10718 21.1403
1.99509 -1.71833 17.7568
3.58399 -2.16181 20.2279
0.29965 1.17278 10.8879
0.328862 1.26213 6.29998
-1.04455 1.27689 12.9345
2.76407 1.1337 16.9284
1.99767 2.62425 19.7999
4.16201 0.995358 19.9712
-0.480366 0.102073 4.08782
-0.677875 -0.806753 17.7205
-1.31717 -0.00257142 15.241
-0.174006 -0.719535 19.3722
0.0534748 -0.081744 16.059
0.276046 0.0436138 15.3913
0.416753 0.493722 13.205
-2.16449 -0.94219 21.3168
-3.31366 2.37242 21.3335
0.0148207 -0.251853 19.3295
-0.20749 -0.0167357 20.8813
-0.0491429 -0.112485 16.2923
0.207029 -0.73349 19.5573
-0.39945 0.503321 13.211
-0.294385 0.0249542 16.1924
3.31322 2.37171 21.3359
2.17048 -0.945897 21.2908
0.114964 0.00320169 20.3486
-0.010204 -0.261325 19.405
-0.958831 -0.588982 19.9135
-0.611188 -0.267295 19.7218
-0.571633 -0.461424 19.5549
-0.871107 -0.803615 21.2271
-1.61338 -0.91181 20.4245
-1.65662 -1.818 20.4858
-0.0459049 -0.279664 21.4998
-0.474402 -0.576763 21.4697
-0.206379 -0.55853 21.6061
0.503899 0.17474 21.5223
0.210874 -0.153311 21.6003
0.356024 0.106319 21.3853
0.867498 0.46505 21.0695
0.955864 0.402136 21.2061
0.751578 0.939566 20.5788
0.852138 0.389262 20.754
1.06126 0.367343 21.1342
0.952066 1.1427 19.9685
0.834397 0.28913 21.4173
0.803132 0.718731 19.9917
-1.31537 -0.498481 19.6941
-0.761449 -0.10436 19.5826
-0.720463 -0.379964 19.3491
-1.32891 -0.835472 21.334
-2.33076 -0.317365 20.2839
-0.172244 -0.46212 21.6554
-0.964236 -0.614798 21.5233
0.609953 -0.00205989 21.6575
0.0219207 -0.33083 21.6996
1.20575 0.273989 20.7762
1.19979 -0.111905 20.6303
1.31634 0.276496 20.1558
1.27842 -0.119097 20.7971
1.26833 1.36438 16.2241
1.14611 -0.269046 19.6181
1.24111 0.550408 14.9924
-1.51001 0.20122 19.5982
-0.672231 0.301397 19.6945
-0.884733 0.105273 19.1649
-1.84531 -0.0509602 21.1063
-1.47166 0.722192 20.2348
-0.73785 -0.38168 21.7532
-1.33503 0.296709 21.2933
0.434101 -0.36484 21.7267
-0.27676 -0.123637 21.6966
1.03952 -0.540625 21.059
0.445329 -0.492671 21.353
0.990815 -0.460255 20.7867
0.538123 -0.642258 20.8964
1.66488 -0.476055 17.4535
0.39671 -0.432702 20.6135
1.10301 -0.539849 19.0227
-0.720697 0.561245 20.0223
-0.493351 0.508347 19.713
-0.989585 0.679244 20.7094
-0.958832 1.05559 20.1783
-0.613839 0.270433 21.4454
-1.08917 0.948195 21.1868
0.0348214 -0.20936 21.404
-0.292874 0.0681716 21.6658
0.28606 -0.412648 21.1206
0.193587 -0.454843 21.3516
0.254627 -0.371387 20.8954
0.329143 -0.585729 21.0052
0.192194 -0.424125 21.0076
-1.12288 -1.70698 19.0547
-0.563735 -0.579708 19.1168
0.00107959 -0.77523 19.0432
-0.484933 -1.26243 22.0351
0.0131879 -3.94881 21.3898
0.0604966 -0.00908662 20.6717
-0.00214089 -0.474965 21.0041
0.260068 0.728154 19.0648
-0.00123239 0.35694 18.9073
0.333535 1.24224 18.4252
0.0104274 0.713998 16.357
0.158582 1.44477 19.3018
0.604551 1.76356 14.1849
0.0295447 1.15416 16.3337
1.14868 0.797183 13.0116
-0.0679553 1.23024 15.8689
-0.772201 -0.171624 18.6427
0.00156604 -0.66697 18.5423
1.40425 1.44661 10.4921
1.80799 0.585851 5.74248
0.0281655 0.570504 1.61569
1.55198 0.450988 10.6905
-0.0791082 1.07726 9.71381
-0.644464 0.681193 19.0287
0.00516347 0.298328 17.9839
1.74185 -0.451416 9.91003
0.705268 -1.06903 19.2052
-0.0640137 -0.674533 -1.65191
0.482091 -0.926594 19.4465
-0.0269965 -1.52763 2.5562
-0.637593 1.17283 19.6535
0.00933822 0.84019 19.3671
-1.03548 1.61139 20.5194
0.0308176 2.01594 19.8999
-0.764839 0.942098 21.885
1.11999e-05 2.50783 21.1402
0.0431443 -0.322044 21.6443
-0.0151196 0.331068 22.0687
0.205109 -0.617198 21.2091
0.010381 -0.581072 21.4784
0.163088 -0.637055 21.0894
0.0151855 -0.770056 21.0961
-0.000615235 -0.688939 21.0307
1.12277 -1.68153 19.0883
0.567365 -0.574896 19.1223
0.575029 -0.459348 19.5602
0.491303 -1.25457 22.0147
1.64516 -1.77239 20.4876
-0.0632913 -0.0148247 20.6701
0.219332 -0.562064 21.5907
-0.245306 0.737513 18.9545
-0.356427 0.111581 21.3946
-0.341843 1.26739 18.3125
-0.761501 0.961413 20.4984
-0.200655 1.37452 19.4385
-0.724416 1.81733 14.7105
-0.994556 1.11163 20.233
-1.14848 0.801334 13.6754
-0.807073 0.712782 20.5635
0.779318 -0.170898 18.6489
0.724798 -0.383989 19.342
-1.50942 1.38748 10.6985
-1.93656 0.638185 6.6881
-1.29655 1.21116 16.7384
-1.52803 0.408209 11.3257
-1.21295 0.493227 15.6594
0.659992 0.670698 19.0446
0.884719 0.104323 19.1705
-1.70775 -0.460113 10.8187
-0.680449 -1.09932 19.1606
-1.61571 -0.507983 18.0372
-0.475742 -0.924489 19.4432
-1.08132 -0.574012 19.4645
0.657661 1.14242 19.6779
0.499857 0.498105 19.7234
1.04983 1.58407 20.5229
0.965321 1.02233 20.1902
0.766979 0.986124 21.9123
1.09025 0.952517 21.188
-0.0229603 -0.324638 21.6506
0.303252 0.0821568 21.6875
-0.177807 -0.633046 21.1937
-0.183519 -0.477356 21.3629
-0.153796 -0.652688 21.1694
-0.322256 -0.575066 21.0041
-0.180803 -0.427114 20.992
0.94627 -0.593043 19.9211
0.614283 -0.264074 19.724
0.864936 -0.802275 21.2241
1.61244 -0.91486 20.4282
0.0539221 -0.283416 21.4924
0.478841 -0.573795 21.4649
-0.505867 0.171611 21.5171
-0.206968 -0.153384 21.5915
-0.864469 0.459639 21.0589
-0.948384 0.367131 21.2429
-0.856373 0.368751 20.6401
-1.04236 0.319976 21.1662
-0.838916 0.213967 21.352
1.3264 -0.507573 19.6804
0.765141 -0.106001 19.5811
1.32298 -0.835843 21.3339
2.36768 -0.321087 20.2861
0.17698 -0.453444 21.6448
0.965023 -0.611408 21.5205
-0.607742 -0.00341949 21.6431
-0.0228285 -0.326291 21.7114
-1.19118 0.204571 21.0266
-1.17084 -0.183144 21.0877
-1.24758 0.225452 20.1825
-1.23868 -0.163263 21.0223
-1.11286 -0.320117 20.2131
1.5139 0.201305 19.5964
0.667983 0.295719 19.7053
1.84887 -0.0544971 21.1097
1.46146 0.708219 20.2406
0.732992 -0.380174 21.7539
1.33856 0.298871 21.2942
-0.432054 -0.364065 21.7159
0.278286 -0.125247 21.7199
-1.02022 -0.542756 21.106
-0.446575 -0.511936 21.3536
-0.930409 -0.447013 20.8048
-0.540669 -0.663194 20.8991
-0.39214 -0.431636 20.5808
0.712498 0.540809 20.0346
0.984569 0.668104 20.7124
0.623544 0.281054 21.4633
-0.0299846 -0.222809 21.4424
-0.276702 -0.433403 21.1203
-0.207246 -0.371614 20.9235
-1.12892 -0.565714 19.7994
-1.52919 -1.78675 18.4556
-1.18636 -1.06379 19.5563
-1.77524 -0.950955 19.0002
-0.681458 -0.460985 19.4776
-2.44996 -2.13168 20.3839
-1.08511 -0.847288 21.2885
-0.197777 -0.756369 18.3644
-0.762883 -1.17602 21.5698
-1.35833 -1.67995 21.7754
-0.171882 -0.66939 21.3204
-0.0892385 -0.359908 21.5683
0.161075 0.134757 14.3154
0.0907603 -0.213464 21.6031
0.106432 -0.202006 17.3701
0.445429 0.0595727 19.5567
0.570091 0.100771 21.607
0.0715754 0.621745 12.126
0.555074 0.500555 21.1352
0.299332 0.723387 12.6009
0.875843 1.19866 17.5587
1.04611 0.392963 20.9892
-0.0744206 1.32055 12.6286
0.800479 1.0198 20.3555
1.14512 1.21543 14.5614
1.03719 1.43829 17.6309
1.05564 0.28355 20.5411
0.664385 1.44443 14.8912
0.659415 0.804744 20.9485
1.27443 0.852533 17.5953
1.04024 0.670155 17.4833
-1.54409 -0.18957 19.5716
-2.7209 -0.572174 16.7974
-2.23927 0.46592 18.7443
-0.888019 -0.139899 19.1817
-4.69317 -0.661837 19.9843
-1.71124 -0.525521 21.3008
-2.93264 -0.0903272 21.5244
-0.752249 -1.16732 19.1898
-0.428487 -0.515475 21.7603
-1.03124 -0.853256 20.5263
0.224386 0.328988 15.9266
0.601378 -0.212603 21.5795
0.886927 0.231593 17.3073
1.2892 0.398493 10.4486
1.28358 -0.159216 20.8325
0.271875 0.990573 2.04783
1.31623 -0.275518 15.9809
2.13326 0.370156 14.142
1.23452 -0.10915 20.5619
1.90834 0.649469 8.14777
1.49177 -0.567497 18.0771
1.37149 0.0966118 15.1128
-1.111 0.562204 19.8001
-1.3274 1.68454 18.8329
-0.782851 0.837495 19.8222
-0.711899 0.465645 19.4054
-1.93001 1.44555 20.0224
-1.51574 0.543555 20.8056
-2.25655 2.15112 20.362
-1.11124 1.07739 20.639
-2.11811 0.768936 21.417
-0.842623 0.0582256 21.6512
-2.10282 0.837116 22.263
-0.737125 0.532976 21.6259
-0.371982 -0.109881 22.0296
0.179777 -0.329496 21.5802
0.514227 -0.630631 19.7195
0.0239641 -0.265224 21.5247
0.478185 -0.722989 21.3653
0.56244 -0.59988 21.1112
0.633027 -0.970209 19.1375
0.258757 -0.55282 21.1788
0.645367 -0.863893 21.1765
0.656543 -0.531878 20.8583
0.552698 -1.09531 19.5563
0.184218 -0.465185 21.0388
0.4394 -0.679648 20.03
1.53407 -1.77597 18.4817
0.0131447 -2.48964 18.566
0.00284794 -3.03508 15.9893
-0.000616155 -0.762039 18.7687
0.00831628 -5.3666 22.8576
0.205009 -0.770898 18.4792
0.00524833 -1.32267 22.205
-0.0101963 -0.103474 13.346
-0.167341 0.126382 14.3849
-0.00452035 -0.0835146 19.8026
0.00425802 0.375678 10.6563
-0.0573671 0.622836 11.9917
0.0045108 0.5369 17.2755
0.0216647 0.396325 7.78927
0.0266333 1.37199 12.6284
0.0159925 0.54968 16.3314
0.0181666 -1.53326 -1.40188
0.0404241 1.31427 8.88966
-0.747825 1.37604 15.064
0.0264168 1.59254 16.1715
0.0069064 -0.392398 2.13707
-0.0735317 1.15375 12.7914
2.72531 -0.571889 16.8091
0.0106955 2.6146 14.067
0.00430111 -0.295008 18.0996
-0.34078 1.03556 2.32108
0.00295136 -0.252229 -1.18295
-0.0931887 -0.695095 -4.3912
-1.95072 0.704803 8.88368
-0.0582511 -1.86035 -0.245744
-0.0712965 -0.109089 4.7562
1.34276 1.64261 18.8603
0.0192868 1.51839 19.4268
0.00826457 0.896098 18.6896
0.0271603 3.89714 19.5643
2.26359 2.11968 20.374
0.0166755 2.27363 20.306
-0.000969964 5.35051 20.5351
2.13348 0.88469 22.1576
-0.0308451 1.54839 22.1936
-7.88994e-05 -0.00195703 18.4606
-0.567163 -0.634031 19.1215
-0.00400529 -0.335207 21.6844
0.0112595 -0.710824 13.0945
-0.625439 -0.987116 18.8564
0.0132484 -0.685944 21.2356
0.00146408 -1.23451 15.7536
-0.557793 -1.09837 19.5302
0.00841761 -0.798574 20.9134
0.00415744 -0.981547 18.6951
1.1352 -0.575154 19.8032
1.19538 -1.04343 19.5713
1.78266 -0.956597 18.9913
0.685376 -0.465943 19.4706
2.43819 -2.1069 20.3796
1.07848 -0.843303 21.2852
0.771845 -1.16255 21.5557
1.35822 -1.67876 21.8238
0.198825 -0.698906 21.4558
0.0974565 -0.360141 21.5618
-0.081775 -0.221503 21.63
-0.0906384 -0.232876 17.8483
-0.446391 0.0526984 19.6979
-0.565571 0.0975873 21.5964
-0.557924 0.509089 21.1239
-0.403481 0.684066 13.703
-0.909925 1.189 17.5558
-1.03709 0.34643 21.0684
-0.827543 1.02153 20.3356
-1.2639 1.16487 15.2105
-1.05068 1.32328 18.0002
-1.04315 0.265913 20.4559
-0.703583 0.751933 21.065
-1.31078 0.769934 18.6954
-1.01392 0.611009 18.1096
1.55199 -0.189166 19.5658
2.23923 0.465343 18.7476
0.890351 -0.140351 19.1828
4.69419 -0.668089 19.9874
1.71077 -0.531037 21.304
2.93962 -0.0931075 21.5255
0.75994 -1.16113 19.2535
0.427304 -0.508793 21.7576
1.03476 -0.853972 20.5536
-0.220208 0.279067 16.2125
-0.596393 -0.21193 21.5928
-0.877659 0.185263 17.5962
-1.32113 0.388245 10.9696
-1.24584 -0.195863 21.0248
-1.32593 -0.312592 16.464
-2.04798 0.317214 14.8006
-1.18737 -0.164721 20.5319
-1.49611 -0.592045 18.7168
-1.33294 0.047637 15.7446
1.10373 0.552973 19.8131
0.781355 0.814953 19.841
0.714536 0.45904 19.4133
1.91787 1.40826 20.0292
1.50992 0.540697 20.8062
1.10776 1.05916 20.645
2.12296 0.773194 21.4165
0.855694 0.0629261 21.6638
0.748214 0.562652 21.6487
0.377866 -0.106864 22.0561
-0.186553 -0.340134 21.595
-0.0232111 -0.273461 21.5534
-0.479213 -0.750628 21.2727
-0.559397 -0.612826 21.0997
-0.249685 -0.571023 21.2108
-0.65544 -0.866927 21.0343
-0.652459 -0.537571 20.8219
-0.196411 -0.535654 20.9226
-0.433941 -0.678062 20.012
-1.45786 -1.08613 19.3357
-0.95569 -1.42881 21.7838
0.154105 -0.242874 20.3734
0.633879 0.55181 18.4869
0.994776 1.22582 18.3331
0.970497 0.810846 18.2967
-2.22704 -0.325117 18.6806
-2.37793 -1.11634 21.6471
-0.114562 -0.507305 17.4573
0.736451 0.774852 14.3584
1.55786 0.438673 12.9747
1.64777 0.303534 15.8768
-1.34349 0.976181 19.4083
-2.0558 1.09791 20.7237
-1.31574 0.272592 22.0408
0.210427 -0.477185 21.866
0.587565 -0.811535 21.1495
0.524211 -0.870525 20.6235
0.0114685 -3.00536 17.6079
0.00236468 -0.636749 15.5171
-0.00511209 0.0477824 11.7485
0.00859746 0.357916 9.50872
0.0599122 -0.394784 7.20088
0.0220773 0.743517 9.05265
0.00543068 -0.830901 13.9407
-0.0240027 -1.0761 -4.14403
-0.120703 -0.972611 -0.394062
0.025966 2.54642 18.1879
0.0182955 3.55957 19.7069
-0.0211701 2.58017 21.2799
0.00404547 -0.624966 14.6603
0.0131373 -0.854381 14.503
0.00323681 -1.03424 16.3946
1.46554 -1.08773 19.3372
0.971233 -1.40933 21.7761
-0.139862 -0.273931 20.6019
-0.649793 0.548358 18.6395
-1.05093 1.17152 18.5251
-1.00395 0.736497 19.3216
2.22992 -0.327439 18.6784
2.37467 -1.12059 21.6523
0.123527 -0.516177 17.6092
-0.759309 0.730612 14.7916
-1.56979 0.382498 13.8549
-1.60201 0.237609 16.6441
1.34002 0.96158 19.4225
2.0479 1.08349 20.7257
1.34196 0.281634 22.0642
-0.230809 -0.490597 21.7728
-0.587956 -0.833948 21.0967
-0.511888 -0.871359 20.5877
-1.16457 -0.428467 1.73397
-0.0271931 -0.106014 0.688115
0.00425548 -0.014827 0.287755
-0.00691932 -0.00502026 -0.00422509
-0.0541635 0.0306088 0.15359
-0.00325764 0.00206247 0.0187994
-0.712299 0.0546816 0.943909
-0.0166543 0.126547 0.314894
-0.220217 0.0806894 0.891556
-0.0106377 0.00827688 -0.00688228
-0.0043159 0.0193436 -0.0311137
0.00374969 -0.00306318 0.0420602
0.0260899 -0.107072 0.690149
1.17266 -0.432726 1.74561
-0.00448329 -0.0156731 0.292319
0.0826919 0.0417506 0.139729
7.47142e-06 0.00238477 0.00445152
0.0224716 0.0228309 0.155161
0.0166172 0.127268 0.316341
0.716856 0.0542529 0.947476
0.219741 0.0814188 0.889711
0.00544369 0.0187437 -0.0305035
0.0104421 0.00777469 -0.0067414
-0.00355524 -0.00311483 0.0415043
0.00691163 -0.00277058 0.339158
0.000279548 4.44008e-05 0.0188771
0 0 0
0 0 0
-0.000766611 0.000528623 0.0155407
0 0 0
0 0 0
0 0 0
-0.240066 -0.0870649 0.298909
-0.000105806 0.000417779 0.00794109
0 0 0
-0.0323823 0.0397148 0.094668
0 0 0
0.00126806 0.00533442 0.0177556
9.09153e-18 1.76365e-17 6.8397e-17
0.0198071 -0.00682769 0.0924338
-0.00816444 0.00583219 0.315023
0 0 0
-0.000730308 -6.28907e-06 0.0404227
0 0 0
0.00580206 0.00541527 0.0827145
0 0 0
-0.0101116 0.00205898 0.128057
0 0 0
0.357354 -0.122433 0.436287
0.0321222 0.0394306 0.0939519
0.000112334 0.000430375 0.00820485
0 0 0
-3.56264e-17 4.93794e-17 2.03107e-16
-0.0194788 -0.00671 0.0909222
-0.00122891 0.00516811 0.0172182
0 0 0
-0.216069 -0.0379572 0.667445
-0.103539 -0.0330167 0.0513176
7.93557e-05 -0.0022105 0.0628655
-4.53495e-05 -0.144888 0.0571772
0 0 0
-1.86397e-06 1.22158e-06 -0.000142276
0 0 0
-0.000630746 0.000281413 -0.000119509
0 0 0
0.00472964 -0.00491966 -0.00510301
0.000369065 0.00121357 0.00785712
-9.21937e-06 2.95364e-05 0.00133256
-0.000315392 0.211207 0.128285
6.10559e-06 0.00237135 0.0149876
-0.137835 -0.202873 1.13263
-0.00696957 0.00184182 0.0166699
0.0058846 0.111193 0.00602639
0 0 0
0 0 0
-0.000519668 -0.000347998 0.000778566
0.105122 -0.0336488 0.052028
0.238751 -0.0422951 0.740763
0 0 0
0 0 0
0 0 0
-0.0001115 -7.09914e-05 0.00141009
1.97618e-05 3.34047e-05 0.00150688
-0.00161023 0.00519798 0.0345822
0.00708005 0.00187686 0.0169646
0.136306 -0.201171 1.12154
0.000499791 -0.000334049 0.000749366
-5.76789e-18 6.8677e-19 8.25937e-17
0 0 0
0 0 0
0 0 0
-8.4566e-05 0.000817293 0.0091044
0.000147864 -0.000269525 0.0302531
-4.829e-07 9.2735e-08 0.000151926
0 0 0
-0.0587411 0.0843817 0.742514
-0.000482502 0.00543475 0.145583
0 0 0
0 0 0
-0.016251 0.0441487 0.707722
-3.72135e-05 0.0242965 0.0649912
1.52418e-05 0.0414652 0.163884
-1.31958e-05 -0.000961766 0.0488051
2.63731e-06 -0.00123021 0.00478841
0 0 0
0 0 0
0 0 0
6.95479e-05 0.00066489 0.00739434
0 0 0
0.0419334 0.0719359 0.677395
0.0148853 0.0461567 0.705944
0 0 0
-0.206005 -0.101198 0.682373
0 0 0
-0.00143836 -0.00242829 0.287421
0 0 0
0 0 0
1.0911e-05 0.00100523 0.0062344
0 0 0
0.00179802 0.00773053 0.0296874
0 0 0
0 0 0
0.0011343 0.00060042 0.00776959
0.000507425 0.000256037 0.00798229
-0.00168407 -0.00181182 0.0505391
0.00151711 -0.00167166 0.0465904
0 0 0
-4.50188e-05 3.15373e-05 0.00307701
0 0 0
0 0 0
0.00543471 0.0107404 0.222181
-0.00385241 0.00625931 0.168864
0 0 0
0 0 0
0 0 0
0 0 0
-0.461478 -0.671711 0.442383
0.466224 -0.677997 0.446142
0 0 0
0.368169 0.603622 0.490138
-0.0146993 -0.00133613 -0.00229051
0.0266459 0.00258035 -0.00355131