# vtk DataFile Version 2.0
tet_velo
ASCII
DATASET UNSTRUCTURED_GRID
POINTS 29498 float
-0.855 0.085 -1.83548
-0.831941 0.085 1.895
-0.875 0.600804 -1.485
-0.424863 0.915 1.875
0.855488 0.085 -1.835
0.831945 0.085 1.895
0.875 0.600804 -1.485
0.424869 0.915 1.875
-0.870076 0.0622379 -0.591987
-0.868445 0.0561821 0.651507
-0.769148 0.74973 -0.365
-0.667473 0.902833 0.755
0.870078 0.0625624 -0.591667
0.868528 0.0562647 0.651667
0.769165 0.749745 -0.365
0.667489 0.902845 0.755
-1.63647 -0.311683 -2.88589
-1.65515 -0.263802 -1.94057
-1.64481 -0.28341 -0.693899
-1.59393 -0.31657 0.577634
-1.53389 -0.310584 1.8264
-1.53449 -0.281338 2.78197
-1.55915 -0.242983 3.71855
-1.64991 0.00334027 -2.75512
-1.66528 0.0700284 -1.82329
-1.64179 0.079188 -0.600618
-1.56421 0.079141 0.633175
-1.46679 0.0919828 1.85821
-1.49918 0.121189 2.81202
-1.5464 0.157566 3.75262
-1.65813 0.590905 -2.45888
-1.66149 0.652113 -1.52186
-1.56284 0.775438 -0.383371
-1.3998 0.894035 0.746376
-1.20028 0.918776 1.88722
-1.35891 0.941996 2.84614
-1.4957 0.970548 3.80664
-1.63535 1.596 -2.10737
-1.62537 1.68114 -1.18888
-1.56614 1.84707 -0.0904078
-1.47907 2.01686 0.981449
-1.42139 2.11213 2.08119
-1.44815 2.14893 3.00233
-1.51648 2.17578 3.94936
-0.813504 -0.303191 -2.89374
-0.835383 -0.250914 -1.95208
-0.842499 -0.290277 -0.692251
-0.831679 -0.333769 0.593295
-0.809429 -0.321117 1.85372
-0.8294 -0.289376 2.80051
-0.855211 -0.249263 3.7293
-0.824686 0.00494166 -2.75749
-0.842056 0.11514 2.82732
-0.865476 0.152404 3.76073
-0.836586 0.569167 -2.44355
-0.732012 0.939483 2.84371
-0.842279 0.968306 3.80614
-0.839324 1.57625 -2.09222
-0.843208 1.66005 -1.1722
-0.813818 1.83687 -0.0803421
-0.772087 2.02154 0.980282
-0.752033 2.11885 2.07264
-0.784329 2.1531 2.99378
-0.843863 2.17808 3.94316
0.865347 -0.303139 -2.89343
0.860841 -0.250837 -1.9517
0.863849 -0.290046 -0.691963
0.857623 -0.333666 0.593454
0.814912 -0.321085 1.85377
0.673575 -0.289344 2.80056
0.592713 -0.249222 3.72936
0.864867 0.00497152 -2.75719
0.596545 0.115161 2.82735
0.539561 0.152439 3.76079
0.856123 0.569186 -2.4434
0.455489 0.9395 2.84374
0.471435 0.968338 3.80619
0.775787 1.57629 -2.0921
0.749573 1.66009 -1.17211
0.704659 1.83691 -0.0802722
0.63309 2.02159 0.98034
0.552251 2.11889 2.07269
0.514673 2.15313 2.99384
0.490697 2.17812 3.94322
1.69542 -0.311559 -2.88534
1.69088 -0.263625 -1.93996
1.67911 -0.283073 -0.693411
1.64247 -0.316364 0.577931
1.5597 -0.310489 1.82655
1.4275 -0.281256 2.7821
1.33646 -0.242893 3.71869
1.69453 0.0034293 -2.7546
1.68368 0.0701388 -1.82268
1.6606 0.0795293 -0.600155
1.6009 0.0793266 0.633443
1.49078 0.0920505 1.85832
1.34632 0.121253 2.81212
1.27479 0.157645 3.75275
1.67797 0.590967 -2.45854
1.66534 0.652162 -1.5216
1.5684 0.775576 -0.383168
1.42035 0.894143 0.746506
1.20316 0.918827 1.8873
1.16969 0.942051 2.84622
1.17806 0.970621 3.80675
1.58091 1.59609 -2.10713
1.54682 1.68123 -1.18868
1.47393 1.84717 -0.0902459
1.36305 2.01696 0.981583
1.24872 2.11222 2.08131
1.20145 2.14902 3.00245
1.1832 2.17587 3.9495
-0.819626 0.342902 -1.61487
0.000243992 0.0810495 -1.83919
-0.86118 0.0749773 -1.21373
-0.632034 0.5 1.88863
1.99676e-06 0.0511488 1.92885
-0.849953 0.0708313 1.27325
0 0.769383 -1.65358
-0.840235 0.693428 -0.925
2.99513e-06 0.962694 1.92269
-0.566069 0.928818 1.315
0.820025 0.342902 -1.61478
0.861558 0.0750059 -1.21333
0.631869 0.5 1.88846
0.850012 0.0708565 1.27333
0.840243 0.693434 -0.925
0.566079 0.928822 1.315
-0.870077 0.0583932 0.02976
-0.809195 0.405984 -0.478493
1.11662e-06 0.0589548 -0.591827
-0.818987 0.479507 0.703253
4.13657e-05 0.0590173 0.651587
-0.733531 0.841501 0.195
8.63618e-06 1.06248 -0.365
8.00795e-06 1.15324 0.755
0.870079 0.0586372 0.03
0.809205 0.406154 -0.478333
0.819042 0.479555 0.703333
0.733534 0.841501 0.195
-0.880889 0.374443 -1.06937
-0.821149 0.442746 0.11238
-0.887563 0.489754 1.29413
0.000122554 0.0733335 -1.21353
2.12412e-05 0.0589841 0.02988
2.16812e-05 0.0446503 1.27329
0.000121996 0.342902 -1.84786
2.49594e-06 0.5 1.98147
4.31809e-06 0.915831 -0.925
8.32206e-06 1.22948 0.195
5.50154e-06 0.992746 1.315
0.88089 0.374528 -1.06917
0.821153 0.442854 0.1125
0.887568 0.489777 1.29417
-1.26014 0.0775142 -1.82938
-0.845192 -0.082957 -1.89378
-0.839843 0.0449708 -2.29648
-1.14936 0.0884914 1.8766
-0.820685 -0.118059 1.87436
-0.836998 0.10007 2.36116
-1.26824 0.626458 -1.50343
-0.855793 0.584985 -1.96428
-0.859104 1.13043 -1.3286
-0.81257 0.916888 1.88111
-0.578438 0.927241 2.35936
-0.588448 1.51693 1.97382
0.858165 -0.0829183 -1.89335
0.860178 0.0449858 -2.29609
1.26959 0.0775694 -1.82884
0.823428 -0.118042 1.87439
0.714245 0.10008 2.36117
1.16136 0.0885253 1.87666
0.865562 0.584995 -1.9642
0.812287 1.13045 -1.32856
1.27017 0.626483 -1.5033
0.440179 0.92725 2.35937
0.48856 1.51694 1.97384
0.814014 0.916913 1.88115
-1.25593 0.070713 -0.596302
-0.856287 -0.114019 -0.642119
-1.21633 0.0676616 0.642341
-0.850062 -0.138793 0.622401
-1.166 0.762584 -0.374186
-0.791483 1.2933 -0.222671
-1.03364 0.898434 0.750688
-0.71978 1.46219 0.867641
0.866964 -0.113742 -0.641815
1.26534 0.0710458 -0.595911
0.863076 -0.138701 0.62256
1.23471 0.0677957 0.642555
0.736912 1.29333 -0.222636
1.16878 0.76266 -0.374084
0.65029 1.46222 0.86767
1.04392 0.898494 0.750753
-1.64581 -0.287742 -2.41323
-1.64319 -0.154171 -2.82051
-1.22499 -0.307437 -2.88981
-1.64998 -0.273606 -1.31724
-1.66021 -0.0968866 -1.88193
-1.24526 -0.257358 -1.94633
-1.61937 -0.29999 -0.0581324
-1.6433 -0.102111 -0.647258
-1.24366 -0.286843 -0.693075
-1.56391 -0.313577 1.20202
-1.57907 -0.118714 0.605405
-1.21281 -0.325169 0.585464
-1.53419 -0.295961 2.30418
-1.50034 -0.1093 1.8423
-1.17166 -0.31585 1.84006
-1.54682 -0.26216 3.25026
-1.51684 -0.0800744 2.79699
-1.18195 -0.285357 2.79124
-1.55278 -0.0427087 3.73559
-1.20718 -0.246123 3.72392
-1.65759 0.0366844 -2.2892
-1.65402 0.297123 -2.607
-1.2373 0.00414097 -2.75631
-1.65353 0.0746082 -1.21195
-1.66338 0.361071 -1.67257
-1.603 0.0791645 0.0162788
-1.60231 0.427313 -0.491994
-1.5155 0.0855619 1.24569
-1.48201 0.486588 0.689776
-1.48298 0.106586 2.33511
-1.33353 0.50538 1.87272
-1.52279 0.139377 3.28232
-1.42904 0.531593 2.82908
-1.17062 0.118164 2.81967
-1.52105 0.564057 3.77963
-1.20594 0.154985 3.75668
-1.65981 0.621509 -1.99037
-1.64674 1.09345 -2.28312
-1.24736 0.580036 -2.45121
-1.61216 0.713775 -0.952617
-1.64343 1.16663 -1.35537
-1.48132 0.834736 0.181503
-1.56449 1.31125 -0.236889
-1.30004 0.906406 1.3168
-1.43943 1.45545 0.863913
-1.27959 0.930386 2.36668
-1.31083 1.51545 1.98421
-1.4273 0.956272 3.32639
-1.40353 1.54547 2.92423
-1.04546 0.94074 2.84492
-1.50609 1.57316 3.878
-1.16899 0.969427 3.80639
-1.63036 1.63857 -1.64812
-1.23734 1.58612 -2.09979
-1.59576 1.76411 -0.639644
-1.23429 1.6706 -1.18054
-1.52261 1.93197 0.445521
-1.18998 1.84197 -0.085375
-1.45023 2.0645 1.53132
-1.12558 2.0192 0.980866
-1.43477 2.13053 2.54176
-1.08671 2.11549 2.07691
-1.48231 2.16236 3.47585
-1.11624 2.15102 2.99806
-1.18017 2.17693 3.94626
-0.824444 -0.277053 -2.42291
-0.819095 -0.149125 -2.82561
0.0259216 -0.303165 -2.89359
-0.838941 -0.270595 -1.32217
0.0127291 -0.250875 -1.95189
-0.837089 -0.312023 -0.0494784
0.0106751 -0.290161 -0.692107
-0.820554 -0.327443 1.22351
0.012972 -0.333717 0.593374
-0.819414 -0.305247 2.32711
0.00274156 -0.321101 1.85374
-0.842306 -0.26932 3.2649
-0.835728 -0.0871183 2.81391
-0.0779128 -0.28936 2.80054
-0.860344 -0.0484298 3.74502
-0.131249 -0.249242 3.72933
-0.830636 0.287054 -2.60052
0.0200906 0.00495659 -2.75734
-0.853766 0.133772 3.29403
-0.787034 0.527311 2.83551
-0.122756 0.11515 2.82733
-0.853877 0.560355 3.78344
-0.162957 0.152421 3.76076
-0.837955 1.07271 -2.26788
0.00976887 0.569177 -2.44348
-0.787145 0.953895 3.32493
-0.75817 1.54629 2.91875
-0.138262 0.939492 2.84372
-0.843071 1.57319 3.87465
-0.185422 0.968322 3.80617
-0.841266 1.61815 -1.63221
-0.0317686 1.57627 -2.09216
-0.828513 1.74846 -0.626272
-0.0468173 1.66007 -1.17216
-0.792952 1.92921 0.44997
-0.0545795 1.83689 -0.0803072
-0.76206 2.0702 1.52646
-0.0694984 2.02156 0.980311
-0.768181 2.13597 2.53321
-0.0998908 2.11887 2.07266
-0.814096 2.16559 3.46847
-0.134828 2.15312 2.99381
-0.176583 2.1781 3.94319
0.863094 -0.276988 -2.42256
0.865107 -0.149084 -2.82531
1.28038 -0.307349 -2.88938
0.862345 -0.270441 -1.32183
1.27586 -0.257231 -1.94583
0.860736 -0.311856 -0.0492546
1.27148 -0.286559 -0.692687
0.836268 -0.327375 1.22361
1.25005 -0.325015 0.585692
0.744243 -0.305214 2.32717
1.18731 -0.315787 1.84016
0.633144 -0.269283 3.26496
0.63506 -0.0870916 2.81396
1.05054 -0.2853 2.79133
0.566137 -0.0483914 3.74508
0.964589 -0.246057 3.72403
0.860495 0.287079 -2.6003
1.2797 0.00420041 -2.75589
0.568053 0.1338 3.29407
0.526017 0.527331 2.83554
0.971431 0.118207 2.81974
0.505498 0.560389 3.78349
0.907177 0.155042 3.75677
0.815955 1.07274 -2.26775
1.26705 0.580077 -2.45097
0.463462 0.953919 3.32497
0.485081 1.54632 2.91879
0.81259 0.940776 2.84498
0.481066 1.57323 3.87471
0.824748 0.96948 3.80647
0.76268 1.61819 -1.63211
1.17835 1.58619 -2.09962
0.727116 1.7485 -0.626193
1.1482 1.67066 -1.1804
0.668874 1.92925 0.450034
1.08929 1.84204 -0.0852591
0.592671 2.07024 1.52651
0.99807 2.01927 0.980961
0.533462 2.13601 2.53326
0.900486 2.11555 2.077
0.502685 2.16563 3.46853
0.85806 2.15108 2.99815
0.83695 2.17699 3.94636
1.69315 -0.287592 -2.41265
1.69497 -0.154065 -2.81997
1.68499 -0.273349 -1.31669
1.68728 -0.0967431 -1.88132
1.66079 -0.299718 -0.0577403
1.66985 -0.101772 -0.646783
1.60109 -0.313427 1.20224
1.62169 -0.118519 0.605687
1.4936 -0.295873 2.30433
1.52524 -0.109219 1.84244
1.38198 -0.262075 3.25039
1.38691 -0.0800018 2.79711
1.30563 -0.0426237 3.73572
1.6891 0.036784 -2.28864
1.68625 0.297198 -2.60657
1.67214 0.074834 -1.21142
1.67451 0.36115 -1.67214
1.63075 0.0794279 0.0166438
1.6145 0.427552 -0.491662
1.54584 0.0856886 1.24588
1.51062 0.486735 0.689974
1.41855 0.106652 2.33522
1.34697 0.505439 1.87281
1.31056 0.139449 3.28244
1.258 0.531652 2.82917
1.22643 0.564133 3.77975
1.67166 0.621564 -1.99007
1.62944 1.09353 -2.28284
[...]
POINT_DATA 29498
VECTORS point_vectors float
-8.09255 -8.56325 19.6738
0.403233 1.12147 6.37146
-1.91218 0.519717 4.53258
0.0461148 0.0953393 0.290388
8.09581 -8.54162 19.7206
-0.412603 1.15593 6.43513
1.92273 0.521454 4.55139
-0.00753545 0.0636281 0.300568
-0.405288 0.53995 4.24172
-0.0542464 -0.0501235 5.29966
0.00028711 0.00342862 0.0584124
0 0 0
0.401725 0.539561 4.20303
0.0579585 -0.046671 5.30584
-0.000314286 0.00347269 0.0585953
0 0 0
-0.563192 -0.234353 19.9031
-1.05726 -0.5619 20.373
-0.502582 -0.358349 21.2707
-0.044909 -0.0718303 21.4011
0.404886 0.239511 21.4096
0.619479 0.392621 21.202
0.713972 0.277109 20.7869
-0.759897 -0.197142 19.8512
-1.42584 -0.453412 20.4203
-0.657578 -0.356403 21.3427
-0.0927804 -0.168099 21.4868
0.640333 0.121547 21.4775
0.899718 0.220235 21.1979
0.843408 0.106053 21.1725
-1.04248 0.10826 19.8124
-1.70635 0.0908009 20.6989
-0.987127 -0.168437 21.4603
-0.318031 -0.174145 21.7671
0.765018 -0.49518 21.1073
0.973234 -0.503444 21.2295
0.831772 -0.427439 20.685
-0.772258 0.563868 20.1907
-0.86543 0.585361 20.7519
-0.589903 0.330684 21.2426
-0.145822 0.005687 21.4059
0.143182 -0.270053 21.2708
0.283345 -0.333746 21.0678
0.309096 -0.351145 20.7705
-0.6052 -0.601377 19.3158
-1.73781 -2.60317 20.0746
-0.559058 -0.367089 21.9168
-0.218135 0.0808477 21.5179
-0.00241008 0.77674 21.3187
0.232472 1.10183 20.9695
0.731611 1.22161 20.7022
-0.928206 -0.569523 18.9079
0.960691 1.59894 13.2807
1.56339 1.30242 15.123
-1.89244 0.482772 17.9559
1.5298 -0.359817 12.4776
1.36108 -0.947582 16.8445
-0.872144 1.36075 19.7739
-1.07553 1.52529 20.7183
-0.822519 1.06114 21.5558
-0.109295 0.0753698 21.6569
0.119347 -0.383962 21.355
0.207993 -0.566103 21.1171
0.183275 -0.566188 20.5881
0.609244 -0.569604 19.364
1.75404 -2.51023 20.0587
0.544533 -0.346351 21.9032
0.208768 0.0968292 21.5263
-0.00106956 0.79831 21.3386
-0.0533581 1.08047 20.6487
-0.324481 1.20854 18.2056
0.939543 -0.550885 18.9594
0.337572 1.11614 5.66461
-0.779345 1.62777 9.82591
1.87267 0.456501 18.0496
-0.937549 -0.607196 5.70078
-1.61804 -1.25391 10.7919
0.851902 1.45036 19.7366
1.01983 1.67503 20.6962
0.799448 1.1992 21.5896
0.114175 0.083703 21.7205
-0.0662655 -0.406468 21.4035
-0.124906 -0.646767 21.0412
-0.160325 -0.520044 20.7441
0.546926 -0.217061 19.9427
1.01793 -0.532358 20.3868
0.49069 -0.356641 21.2462
0.057844 -0.0869923 21.3997
-0.397584 0.23001 21.4098
-0.672087 0.499573 21.3495
-0.87245 0.45041 20.8337
0.73184 -0.186113 19.8813
1.39563 -0.432237 20.4215
0.653587 -0.349091 21.3411
0.0855771 -0.153409 21.465
-0.624661 0.121572 21.511
-1.1245 0.314338 21.0491
-1.37229 0.449148 20.1164
1.03049 0.106872 19.8277
1.69518 0.0900232 20.6984
0.985367 -0.166757 21.46
0.308002 -0.170167 21.7547
-0.772647 -0.50943 21.1207
-1.10018 -0.695982 20.9997
-1.21418 -0.656181 20.6759
0.791825 0.596063 20.1653
0.896703 0.646545 20.7499
0.632613 0.388973 21.2719
0.158516 -0.00421936 21.4465
-0.137335 -0.30847 21.2894
-0.238217 -0.424732 21.0388
-0.246901 -0.346756 20.561
-1.71649 -0.150141 1.8453
0.000905755 -3.32329 4.45888
-0.424209 0.411118 2.97192
-0.0173095 0.0108871 -0.0159031
0.0167212 -0.0113039 0.535924
0.00428073 0.171584 1.21983
0.0194263 0.807971 1.45394
-0.130259 -0.0955119 0.472911
0.00506449 0.0315062 0.0189437
0.0171762 -0.0174201 0.12505
1.74222 -0.153187 1.87329
0.427484 0.41494 2.99043
0.0158843 0.0087273 -0.0144435
-0.00325918 0.172905 1.22507
0.131048 -0.0959522 0.474766
-0.0152139 -0.0188962 0.124928
-0.283154 0.424196 4.59358
0.000120902 0.000819002 0.00134478
-1.02433e-06 3.90485e-07 -1.92147e-05
0 0 0
-6.95366e-09 -1.53513e-09 3.85012e-07
0.00852067 0.0157743 0.0395104
-3.43374e-05 0.124361 0.261632
2.06021e-05 -0.00184776 0.0108453
0.282779 0.423233 4.5675
-0.000118274 0.000796203 0.00131062
0 0 0
-0.00850948 0.0157403 0.0394751
-0.00118241 0.00235365 0.0215885
-8.23697e-05 0.00316162 0.0133106
0 0 0
3.82875e-06 3.03273e-06 -4.45736e-05
1.52202e-07 3.44092e-08 -5.82474e-06
0 0 0
0.000145898 -0.00970219 0.002063
0 0 0
9.13398e-05 0.0133839 0.11224
1.57363e-05 0.00116542 0.0551247
0.00018497 0.00359436 -0.0104824
0.00116423 0.00232569 0.0213481
8.09655e-05 0.00311496 0.0131214
0 0 0
-2.69394 -1.26625 20.1771
-2.77635 -4.06018 20.0906
-2.1671 -1.54456 18.1276
1.02668 0.863822 20.0483
-0.0737623 1.2997 16.8456
0.535351 1.32115 10.6888
-3.37132 0.435978 20.9982
-4.87383 2.03477 16.8342
-2.43803 2.39257 20.9398
1.30917 0.151808 11.0496
0.75057 0.129051 5.12434
0.189315 -0.724415 21.3989
2.80994 -3.94816 20.073
2.16184 -1.48007 18.199
2.64895 -1.21977 20.186
0.0647204 1.33087 16.9478
0.294872 0.706421 5.73939
-1.04126 0.820868 20.2163
4.83479 1.98107 16.9298
2.42068 2.58716 20.9398
3.35563 0.430642 20.9928
-0.296767 0.0350542 3.12182
-0.123358 -0.752367 21.278
-1.30421 0.114733 11.1634
-0.475597 -0.821488 21.8384
-0.597832 0.164539 19.3185
0.0696832 -0.130958 20.8999
-0.214357 0.2407 18.432
-1.46407 -0.734601 21.5311
-2.61858 1.62947 21.8228
-0.241759 0.00337845 19.0532
-0.251402 0.0182345 22.243
0.587822 0.182514 19.4512
0.50565 -0.801956 21.8526
0.229489 0.264086 18.6872
-0.053857 -0.179275 21.0468
2.78345 1.97067 21.8278
1.45906 -0.729849 21.5324
0.228934 -0.00270222 22.2182
0.262436 -0.0495406 19.3547
-0.826141 -0.392923 20.0297
-0.667351 -0.22248 19.8753
-0.643494 -0.369499 19.662
-0.904605 -0.571961 20.989
-1.26007 -0.518945 20.3673
-1.49281 -1.18485 20.2441
-0.22366 -0.180786 21.364
-0.578464 -0.404688 21.3016
-0.478455 -0.47518 21.5176
0.153816 0.0842481 21.4732
-0.0609214 -0.120978 21.4347
-0.0186835 -0.0202738 21.4899
0.535652 0.31815 21.2851
0.505761 0.222582 21.4607
0.423298 0.548274 21.5267
0.650873 0.441995 21.0254
0.735673 0.340332 21.2086
0.645948 0.746743 21.4021
0.808756 0.187934 20.9508
0.882732 0.739685 20.7867
-1.12455 -0.332266 19.9882
-0.949794 -0.0745232 19.7936
-0.923122 -0.345761 19.446
-1.18875 -0.486083 21.1233
-1.72537 -0.168741 20.582
-0.304141 -0.264281 21.4188
-0.8414 -0.304419 21.4404
0.192553 -0.0405607 21.6187
-0.233554 -0.224951 21.6721
0.80424 0.182437 21.3401
0.83698 -0.112399 21.2355
0.998872 0.15961 20.9891
1.07102 -0.148852 21.1521
1.35115 0.79948 20.4174
0.997756 -0.165274 21.174
1.41611 0.611694 19.9913
-1.53766 0.128986 20.0956
-1.03589 0.440282 19.971
-1.53974 0.234741 19.1914
-1.40123 -0.0218074 21.2688
-1.3365 0.51718 20.728
-0.6951 -0.208308 21.6116
-0.926394 0.210549 21.358
0.241561 -0.261051 21.8053
-0.23653 -0.0301618 21.6079
0.841006 -0.497766 21.382
0.292256 -0.416146 21.3973
0.939853 -0.467263 21.1678
0.467055 -0.500091 21.149
1.25299 -0.666488 20.0222
0.463701 -0.473623 20.9865
1.21055 -0.658701 20.6948
-0.88166 0.618617 20.4604
-0.895325 0.888422 20.0115
-0.75739 0.472267 21.032
-1.06549 0.951141 20.7474
-0.365198 0.179114 21.3523
-0.741166 0.596777 21.3895
0.0326662 -0.142969 21.334
-0.153297 0.017754 21.5394
0.207477 -0.334873 21.144
0.134362 -0.335639 21.3095
0.253598 -0.361854 20.8991
0.225964 -0.451418 21.03
0.24425 -0.345903 20.5564
-1.15246 -1.33877 19.1778
-0.745639 -0.601497 19.1399
0.0295118 -0.8544 18.9297
-0.948017 -1.31648 21.8855
0.0639711 -4.91191 19.8616
-0.353703 -0.0018394 21.6539
0.0341687 -1.37553 20.7951
-0.131385 0.275353 21.5161
0.0153796 -0.432815 18.3373
0.100055 0.938828 21.1819
0.0166351 0.137556 17.0316
0.375322 1.2359 21.2353
0.448627 1.48466 17.5024
0.001551 0.431627 16.4126
0.882212 1.46731 18.3288
-0.0561202 0.7836 14.7553
-1.39025 -0.316503 18.3009
0.0368081 -0.92456 18.0267
1.49538 1.82039 14.349
1.30686 0.825582 6.83661
-0.467136 -0.609868 -2.48516
2.07937 0.397632 13.6038
0.018605 -0.166888 0.422855
-1.49675 1.52074 18.8764
0.0350716 1.07913 15.645
1.87238 -0.725104 15.3614
0.414501 -0.952942 21.3187
0.36063 -0.703808 2.82227
0.444951 -0.933266 20.3758
1.04382 -1.38407 7.92904
-1.04401 1.59516 20.2714
-0.0277955 1.98555 19.4839
-1.02667 1.33689 21.0983
-0.0658023 2.35288 20.5732
-0.416577 0.514943 21.7635
-0.0925855 1.84796 21.7631
0.0458241 -0.210959 21.5098
-0.0226239 0.115727 21.832
0.163797 -0.489611 21.2287
0.021631 -0.446823 21.4223
0.245298 -0.521619 20.9902
0.051295 -0.704452 21.0363
0.0155823 -0.607364 20.3987
1.17015 -1.26246 19.2188
0.769033 -0.587123 19.188
0.641042 -0.351369 19.6852
0.939345 -1.29293 21.8637
1.44273 -1.093 20.2616
0.337299 0.0163076 21.6631
0.486921 -0.476968 21.5078
0.125466 0.290277 21.5499
0.0208696 -0.023646 21.4872
-0.00288084 0.948544 21.1643
-0.433148 0.534844 21.5356
-0.187219 1.22032 20.5367
0.0878412 1.22809 14.8744
-0.547735 0.925161 21.2587
-0.18415 1.69445 13.464
-0.801391 1.08618 20.6838
1.39225 -0.303177 18.3829
0.912215 -0.314971 19.511
-0.414494 1.38311 7.85043
-0.802942 0.493198 0.184265
-1.30373 1.51731 17.0348
-2.71177 0.549135 4.85357
-1.57261 1.27321 16.2281
1.4954 1.56105 18.8294
1.5189 0.228888 19.2318
-1.46831 -1.06042 8.35224
-0.2534 -1.08423 21.3536
-1.61179 -0.429826 15.0549
-0.290773 -1.05719 21.0923
-1.36436 -0.992804 16.6139
1.0144 1.74157 20.2486
0.905306 0.960229 19.9721
0.993144 1.52287 21.0789
1.10063 1.08638 20.7441
0.407696 0.58865 21.8365
0.769286 0.695671 21.4378
-0.0116709 -0.221282 21.5266
0.157166 0.0403322 21.6008
-0.0972012 -0.533822 21.2145
-0.113982 -0.368373 21.343
-0.200796 -0.649806 20.931
-0.207761 -0.528398 21.0945
-0.182567 -0.56806 20.5946
0.795914 -0.369717 20.0541
0.651096 -0.207901 19.9095
0.889088 -0.552151 20.9628
1.21681 -0.48807 20.3699
0.236936 -0.193597 21.3528
0.561831 -0.385251 21.2814
-0.153047 0.0633703 21.4645
0.0707211 -0.134995 21.4323
-0.537409 0.355298 21.3186
-0.50016 0.202532 21.4501
-0.76332 0.460568 20.8475
-0.848416 0.466582 21.2385
-1.10964 0.521891 20.5925
1.08761 -0.30857 20.008
0.92139 -0.0701604 19.8266
1.16824 -0.466531 21.1058
1.694 -0.158235 20.5846
0.307711 -0.256304 21.4099
0.837965 -0.29553 21.4372
-0.19215 -0.0286683 21.6164
0.225143 -0.218547 21.6536
-0.905113 0.231442 21.2904
-0.839221 -0.116972 21.2909
-1.30174 0.182851 21.1457
-1.37382 -0.157149 20.6985
-1.61929 -0.135392 19.3298
1.51908 0.128091 20.1039
1.05465 0.452852 19.9573
1.39392 -0.021861 21.2656
1.378 0.554814 20.7327
0.680454 -0.198472 21.601
0.971344 0.224261 21.3811
-0.239069 -0.261089 21.8055
0.244524 -0.0318152 21.6514
-0.949463 -0.607817 21.0684
-0.300241 -0.458699 21.4317
-1.1285 -0.694086 21.0771
-0.500001 -0.652739 21.2098
-0.524277 -0.646842 20.7059
0.901217 0.667921 20.4515
0.796733 0.535591 21.0457
0.401658 0.225041 21.4202
-0.00974371 -0.165465 21.3637
-0.195563 -0.384596 21.1735
-0.271025 -0.454919 20.9178
-0.991696 -0.379801 19.9886
-1.591 -1.55307 18.7206
-1.0719 -0.737115 19.7135
-1.71099 -0.697298 19.4113
-0.758133 -0.358438 19.5532
-2.0394 -1.34077 20.2113
-1.10638 -0.5678 21.0792
-0.766556 -0.732484 20.6982
-1.06396 -1.0443 21.3154
-1.65388 -1.30726 21.7781
-0.350514 -0.545225 21.6632
-0.260272 -0.242276 21.3922
-0.382454 0.359121 18.6812
-0.165828 -0.154107 21.4969
0.0157311 -0.431108 21.322
0.0999223 -0.0310643 21.4717
0.171687 0.0457586 21.5286
-0.180379 0.417289 17.3871
0.140374 0.203333 21.6198
0.349364 0.398294 20.6081
0.715732 0.73847 21.3961
0.653252 0.287927 21.2974
0.122442 1.31257 17.0706
0.538583 0.677065 21.3378
1.15606 0.843031 20.2977
0.963827 0.916735 20.8095
0.835096 0.299124 21.113
0.921647 1.51164 18.6566
0.747948 0.726171 20.8123
1.3857 0.586657 20.8437
1.16146 0.797234 20.4057
-1.44727 -0.117082 20.0126
-4.16929 -0.585496 16.3988
-2.78823 0.487367 19.4403
-1.22842 -0.166531 19.2617
-3.86362 -0.585939 20.5328
-1.36969 -0.26201 21.2523
-2.06854 -0.128838 21.9407
-0.871524 -0.623335 20.854
-0.479094 -0.300136 21.5159
-1.07637 -0.676373 20.4657
-0.174031 0.196735 17.0518
0.224338 -0.119631 21.5864
1.30292 0.738913 15.3263
1.05962 0.787763 10.0921
0.999035 -0.121799 21.1448
-0.211654 0.594824 1.38585
1.35699 -0.236479 17.0659
1.57144 0.249132 17.5071
1.09636 -0.154798 21.3635
2.17661 0.603332 12.2633
1.21114 -0.738951 21.0583
1.68778 -0.0249193 19.02
-1.28017 0.546938 20.3073
-2.29845 2.61489 19.5634
-1.04992 1.01621 20.3866
-1.35133 0.814951 19.5504
-1.93298 1.08381 20.8274
-1.15572 0.370915 21.1127
-2.32241 1.6157 21.1621
-0.963629 0.811076 21.0982
-1.49473 0.517514 21.5831
-0.611895 0.0998059 21.5497
-1.26165 0.82879 22.5541
-0.417841 0.301353 21.5616
-0.275274 0.0153249 21.8896
0.0861498 -0.220798 21.5685
0.0832401 -0.489981 21.7336
0.0157053 -0.183855 21.4116
0.282395 -0.582 21.5515
0.398694 -0.466889 21.3083
0.3202 -0.853562 21.2618
0.192379 -0.408702 21.1939
0.493841 -0.693865 21.2396
0.500645 -0.468746 20.8232
0.530012 -0.973661 20.7854
0.276189 -0.465354 20.9223
0.523787 -0.647831 20.6979
1.60403 -1.48126 18.8007
0.0343172 -2.21087 18.4157
0.0419352 -3.24526 15.6087
0.0263555 -0.888052 18.5651
0.0459897 -8.84292 20.06
0.748874 -0.739591 20.7408
0.036962 -2.9162 22.5654
-0.0135156 -0.525227 8.30588
0.382288 0.38374 18.8879
0.0303409 -0.679943 18.9865
-0.00147897 -0.169056 8.71546
0.187644 0.440043 17.5643
0.0106535 -0.196209 17.4963
0.0435203 0.149127 8.79409
0.0997714 1.19873 15.68
0.0124292 0.21545 16.5202
-0.140797 -0.493422 -0.303028
-0.146197 0.147603 7.72015
0.126031 1.46916 13.4744
0.0104811 0.743533 17.3514
-0.23863 -0.190964 -1.83668
-0.021524 0.468604 7.53645
4.1137 -0.578753 16.5527
0.046092 8.51934 11.9304
0.0353204 -0.537772 16.7331
0.427768 0.55635 -0.157875
0.097925 0.218369 1.5703
0.0203775 -1.06676 -2.0254
-1.58856 0.3431 2.46061
0.613014 -1.34384 5.19724
0.811048 -1.59883 0.17873
2.30095 2.76878 19.505
-0.0561651 2.38259 20.0778
-0.0288172 2.6526 17.8358
-0.0864847 4.31371 20.6454
2.36313 1.79458 21.1402
-0.103164 2.28702 20.988
-0.123236 4.80467 21.2209
1.30881 0.963023 22.665
-0.0637505 0.815335 22.0427
-0.0168928 0.107071 22.2889
-0.047785 -0.510685 21.8353
0.00120802 -0.239532 21.5708
0.00723005 -0.730905 21.1995
-0.184468 -0.907111 21.3046
0.0341918 -0.570883 21.2494
0.142151 -1.10664 20.1551
-0.226569 -1.16098 21.2554
0.0502733 -0.664193 20.9774
0.127892 -1.0632 19.7793
0.948373 -0.352669 20.0118
1.05844 -0.691978 19.7538
1.65211 -0.649598 19.4834
0.752448 -0.334285 19.6068
1.99253 -1.26143 20.222
1.07573 -0.539589 21.0534
1.07096 -1.00193 21.2808
1.65386 -1.24824 21.7327
0.386391 -0.54235 21.6402
0.273213 -0.249883 21.3811
0.171912 -0.167161 21.4804
0.0187359 -0.450349 21.4146
-0.0940835 -0.0661178 21.4933
-0.17097 0.0280787 21.528
-0.145302 0.181449 21.6148
-0.361982 0.338987 20.7891
-0.725612 0.715431 21.43
-0.70523 0.336929 21.3125
-0.520683 0.776063 21.3579
-1.15558 1.22767 18.8544
-0.897873 1.32364 20.3577
-1.01192 0.350869 20.9646
-0.556742 1.0238 21.0133
-1.54668 1.58667 16.089
-1.05714 1.48311 19.6246
1.39898 -0.105765 20.0349
2.73871 0.461194 19.4767
1.21151 -0.164194 19.3057
3.80938 -0.573052 20.534
1.35715 -0.252827 21.2384
2.06389 -0.127224 21.9323
0.884896 -0.626181 21.0081
0.478347 -0.290759 21.5079
1.06356 -0.653291 20.5002
0.176955 0.118967 17.6306
-0.22287 -0.119329 21.6287
-1.26245 0.683799 15.607
-1.10429 0.789439 10.5931
-1.13087 -0.129587 20.9991
-1.37992 -0.0777884 13.3955
-1.55081 0.611088 11.0159
-1.41657 -0.190388 20.6563
-1.8212 -0.753966 16.0484
-2.08033 0.344347 14.0291
1.31613 0.574965 20.2922
1.07452 1.13721 20.3741
1.36686 0.84819 19.522
2.00423 1.17855 20.8346
1.20375 0.389155 21.129
0.988448 0.918947 21.1069
1.60887 0.58312 21.6154
0.643553 0.118447 21.5831
0.4322 0.367718 21.6088
0.285668 0.0135287 21.9582
-0.0918238 -0.245108 21.6031
-0.0191931 -0.201296 21.454
-0.25553 -0.644853 21.6137
-0.417565 -0.558174 21.345
-0.168142 -0.464498 21.2266
-0.449996 -0.917343 21.2326
-0.54747 -0.708184 20.914
-0.245509 -0.516206 20.9952
-0.442499 -0.948903 20.3846
-1.34118 -0.733661 19.5743
-1.24648 -1.19459 21.554
0.0202552 -0.207961 21.5451
0.294195 0.28334 21.6146
0.860229 0.799181 21.2376
1.1296 0.75054 20.6624
-2.4324 -0.307478 19.208
-2.29419 -0.65189 22.2671
-0.289807 -0.473151 18.9061
0.366647 0.825261 15.0983
1.34414 0.577418 15.1568
1.70133 0.0752313 18.849
-1.87191 1.16038 20.0488
-1.69274 0.710111 21.2505
-0.916321 0.298369 21.8963
0.106884 -0.330787 21.749
0.401174 -0.650864 21.3728
0.533595 -0.729223 21.0126
0.0426298 -2.83971 17.3852
0.000509716 -1.60306 12.8835
-0.00843755 -0.289217 7.81162
0.00685452 -0.090462 9.09065
0.0232597 -0.050692 8.26431
-0.0447135 0.443244 7.14215
0.0503223 -1.44973 10.4118
-0.108658 0.0816683 -2.01699
0.241886 -1.50792 -2.30648
-0.059485 4.77329 18.917
-0.0953001 3.58774 20.5521
-0.0581106 1.70215 22.9693
-0.00146073 -0.473347 21.3394
0.0494399 -0.900511 20.3143
0.203418 -1.25633 19.6411
1.31919 -0.702493 19.6207
1.26227 -1.14274 21.5149
-0.000749429 -0.23997 21.5441
-0.299729 0.25484 21.631
-0.842443 1.07369 20.7272
-1.09653 1.44542 20.4736
2.37823 -0.310527 19.2661
2.26838 -0.641807 22.2062
0.313585 -0.483687 19.2509
-0.373222 0.756781 15.6089
-1.13555 0.706726 10.6268
-2.20308 0.479361 13.6342
1.90415 1.23666 20.0319
1.76042 0.785606 21.2568
0.977626 0.337812 21.9741
-0.0989269 -0.375178 21.8323
-0.363604 -0.793292 21.4125
-0.545581 -0.95821 20.7933
0 0 0
-0.0382321 -0.0734187 0.555581
-0.336699 -0.0903927 3.89713
-0.128098 -0.0028271 -0.023737
-0.490902 -0.0621066 0.987648
0.109334 0.344973 2.17744
-1.02217 0.00593668 1.43984
-0.0216053 0.115162 0.275782
-0.576362 -0.115282 2.78583
-0.0145221 0.028186 -0.0230002
0.0844909 0.0939719 0.123787
-0.00718774 -0.00858859 0.0412385
0.0371854 -0.0752822 0.568959
0 0 0
0.334091 -0.0852509 3.83674
0.522898 -0.035342 1.03659
0.120729 -0.00433455 -0.0235669
-0.109172 0.350092 2.18673
0.0217803 0.116495 0.278557
1.00899 0.00407704 1.43994
0.576631 -0.115475 2.78673
-0.0375009 0.0834182 0.121601
0.0173201 0.0243727 -0.022163
0.0114871 -0.00996039 0.0426287
-0.389792 0.411662 2.63525
-0.305994 0.367915 4.34553
0.0383551 0.0835981 0.302974
0 0 0
-0.630496 0.249265 5.7719
-0.117891 0.460399 6.03674
0 0 0
0 0 0
-0.194782 -0.13387 0.64796
0.00108734 0.00377947 0.0129881
0.0042624 0.0117264 0.0447808
-0.0115432 0.00981113 0.0236897
0.0685343 0.0647804 0.198252
0 0 0
0 0 0
0.00261152 -0.00153447 0.00747145
0.430928 0.445734 2.90544
0 0 0
0.305193 0.367692 4.31507
-0.038814 0.0846262 0.306548
0.633835 0.256389 5.76126
0 0 0
0.121704 0.46376 6.04616
0 0 0
0.193826 -0.133314 0.643079
0.0124556 0.0105338 0.0254654
-0.00108197 0.00375051 0.0129054
-0.00423999 0.0116562 0.0443837
-0.0678899 0.0640021 0.197681
-0.00265996 -0.00159934 0.00774607
0 0 0
0 0 0
0 0 0
-0.691723 0.11995 0.593702
-3.59733e-06 1.9094e-05 -0.000228162
0 0 0
0.000844531 0.0117387 0.0210264
0.00353613 -0.000208175 0.0439601
0.0909831 0.0517082 0.366745
-0.0158589 0.0226121 -0.00783684
0.0012883 0.00570179 0.0167275
0 0 0
0.00699771 0.0255459 0.19072
0.000865908 0.00051376 0.103316
4.48902e-05 0.430108 0.388759
4.06678e-05 0.0129461 0.0741639
0 0 0
-0.0120229 0.00430962 0.0348538
0.0016723 0.0474454 -0.00248304
8.18881e-05 0.000101751 -0.00302565
0.135132 0.11618 0.640146
0 0 0
0.675878 0.117292 0.581222
-8.31071e-19 7.27274e-18 1.85385e-17
-0.00210963 5.19577e-05 0.0265882
-0.00089053 0.0122371 0.0218766
0.0169794 0.0202615 -0.00736553
-0.0922383 0.0505711 0.370978
-0.000417764 0.000735746 0.111874
-0.00203455 0.00771759 0.0575903
0.012013 0.00431824 0.0348998
0 0 0
0 0 0
-0.13393 0.113942 0.637249
0 0 0
0 0 0
0.00163766 0.000829391 0.0226566
0 0 0
0 0 0
1.0063e-07 2.23196e-08 -3.01609e-06
6.89411e-05 0.0013047 0.00297808
-0.00024732 0.00401002 0.0271694
2.52714e-07 2.96963e-08 -1.33995e-05
8.57249e-05 -0.00224935 0.0401463
0.0117587 0.0348822 0.116031
-0.00134317 0.00645662 0.0919838
2.31217e-05 -0.000239031 -0.00216906
0.000329085 0.259574 0.928159
1.41221e-05 -0.00583412 0.053311
2.28715e-05 0.000506731 -0.00170397
0 0 0
0 0 0
-0.00160735 0.000767515 0.0223149
0 0 0
-7.10123e-05 0.00135538 0.00309981
0.000248751 0.00402586 0.027463
0.00136111 0.00647337 0.0923113
-0.0117096 0.0347699 0.115829
-1.2721e-05 0.000192089 0.000356795
-0.00128496 -0.000262532 0.0244402
0.00406914 0.0915433 0.450726
0 0 0
0 0 0
0.00313701 0.0251352 0.139334
0 0 0
0.00430796 0.0114963 0.0217826
-0.000160143 0.00633067 0.0489121
0.0363458 0.177725 0.554563
0.0682253 0.0264538 0.347564
0 0 0
0.0010236 -0.000522984 0.0700919
-0.000786993 -0.0003937 0.0544473
0 0 0
0 0 0
0 0 0
0 0 0
0 0 0
0 0 0
0.00619593 -0.00695206 0.159806
-0.00585472 -0.00697297 0.160529