# vtk DataFile Version 2.0
tri_press
ASCII
DATASET UNSTRUCTURED_GRID
POINTS 3682 float
-0.855 0.085 -1.83548
-0.831941 0.085 1.895
-0.875 0.600804 -1.485
-0.424863 0.915 1.875
0.855488 0.085 -1.835
0.831945 0.085 1.895
0.875 0.600804 -1.485
0.424869 0.915 1.875
-0.870076 0.0622379 -0.591987
-0.868445 0.0561821 0.651507
-0.769148 0.74973 -0.365
-0.667473 0.902833 0.755
0.870078 0.0625624 -0.591667
0.868528 0.0562647 0.651667
0.769165 0.749745 -0.365
0.667489 0.902845 0.755
-1.63647 -0.311683 -2.88589
-1.65515 -0.263802 -1.94057
-1.64481 -0.28341 -0.693899
-1.59393 -0.31657 0.577634
-1.53389 -0.310584 1.8264
-1.53449 -0.281338 2.78197
-1.55915 -0.242983 3.71855
-1.64991 0.00334027 -2.75512
-1.66528 0.0700284 -1.82329
-1.64179 0.079188 -0.600618
-1.56421 0.079141 0.633175
-1.46679 0.0919828 1.85821
-1.49918 0.121189 2.81202
-1.5464 0.157566 3.75262
-1.65813 0.590905 -2.45888
-1.66149 0.652113 -1.52186
-1.56284 0.775438 -0.383371
-1.3998 0.894035 0.746376
-1.20028 0.918776 1.88722
-1.35891 0.941996 2.84614
-1.4957 0.970548 3.80664
-1.63535 1.596 -2.10737
-1.62537 1.68114 -1.18888
-1.56614 1.84707 -0.0904078
-1.47907 2.01686 0.981449
-1.42139 2.11213 2.08119
-1.44815 2.14893 3.00233
-1.51648 2.17578 3.94936
-0.813504 -0.303191 -2.89374
-0.835383 -0.250914 -1.95208
-0.842499 -0.290277 -0.692251
-0.831679 -0.333769 0.593295
-0.809429 -0.321117 1.85372
-0.8294 -0.289376 2.80051
-0.855211 -0.249263 3.7293
-0.824686 0.00494166 -2.75749
-0.842056 0.11514 2.82732
-0.865476 0.152404 3.76073
-0.836586 0.569167 -2.44355
-0.732012 0.939483 2.84371
-0.842279 0.968306 3.80614
-0.839324 1.57625 -2.09222
-0.843208 1.66005 -1.1722
-0.813818 1.83687 -0.0803421
-0.772087 2.02154 0.980282
-0.752033 2.11885 2.07264
-0.784329 2.1531 2.99378
-0.843863 2.17808 3.94316
0.865347 -0.303139 -2.89343
0.860841 -0.250837 -1.9517
0.863849 -0.290046 -0.691963
0.857623 -0.333666 0.593454
0.814912 -0.321085 1.85377
0.673575 -0.289344 2.80056
0.592713 -0.249222 3.72936
0.864867 0.00497152 -2.75719
0.596545 0.115161 2.82735
0.539561 0.152439 3.76079
0.856123 0.569186 -2.4434
0.455489 0.9395 2.84374
0.471435 0.968338 3.80619
0.775787 1.57629 -2.0921
0.749573 1.66009 -1.17211
0.704659 1.83691 -0.0802722
0.63309 2.02159 0.98034
0.552251 2.11889 2.07269
0.514673 2.15313 2.99384
0.490697 2.17812 3.94322
1.69542 -0.311559 -2.88534
1.69088 -0.263625 -1.93996
1.67911 -0.283073 -0.693411
1.64247 -0.316364 0.577931
1.5597 -0.310489 1.82655
1.4275 -0.281256 2.7821
1.33646 -0.242893 3.71869
1.69453 0.0034293 -2.7546
1.68368 0.0701388 -1.82268
1.6606 0.0795293 -0.600155
1.6009 0.0793266 0.633443
1.49078 0.0920505 1.85832
1.34632 0.121253 2.81212
1.27479 0.157645 3.75275
1.67797 0.590967 -2.45854
1.66534 0.652162 -1.5216
1.5684 0.775576 -0.383168
1.42035 0.894143 0.746506
1.20316 0.918827 1.8873
1.16969 0.942051 2.84622
1.17806 0.970621 3.80675
1.58091 1.59609 -2.10713
1.54682 1.68123 -1.18868
1.47393 1.84717 -0.0902459
1.36305 2.01696 0.981583
1.24872 2.11222 2.08131
1.20145 2.14902 3.00245
1.1832 2.17587 3.9495
-0.819626 0.342902 -1.61487
0.000243992 0.0810495 -1.83919
-0.86118 0.0749773 -1.21373
-0.632034 0.5 1.88863
1.99676e-06 0.0511488 1.92885
-0.849953 0.0708313 1.27325
0 0.769383 -1.65358
-0.840235 0.693428 -0.925
2.99513e-06 0.962694 1.92269
-0.566069 0.928818 1.315
0.820025 0.342902 -1.61478
0.861558 0.0750059 -1.21333
0.631869 0.5 1.88846
0.850012 0.0708565 1.27333
0.840243 0.693434 -0.925
0.566079 0.928822 1.315
-0.870077 0.0583932 0.02976
-0.809195 0.405984 -0.478493
1.11662e-06 0.0589548 -0.591827
-0.818987 0.479507 0.703253
4.13657e-05 0.0590173 0.651587
-0.733531 0.841501 0.195
8.63618e-06 1.06248 -0.365
8.00795e-06 1.15324 0.755
0.870079 0.0586372 0.03
0.809205 0.406154 -0.478333
0.819042 0.479555 0.703333
0.733534 0.841501 0.195
-0.880889 0.374443 -1.06937
0.88089 0.374528 -1.06917
0.000122554 0.0733335 -1.21353
4.31809e-06 0.915831 -0.925
0.000121996 0.342902 -1.84786
-0.821149 0.442746 0.11238
0.821153 0.442854 0.1125
2.12412e-05 0.0589841 0.02988
8.32206e-06 1.22948 0.195
-0.887563 0.489754 1.29413
0.887568 0.489777 1.29417
2.16812e-05 0.0446503 1.27329
5.50154e-06 0.992746 1.315
2.49594e-06 0.5 1.98147
-0.770242 0.213951 -1.6581
-0.427378 0.0817156 -1.83864
-0.858151 0.0799279 -1.52461
-0.69096 0.2925 1.85079
-0.41597 0.0678819 1.91212
-0.850696 0.0681663 1.58413
-0.864595 0.471853 -1.56722
-0.4375 0.72036 -1.60456
-0.880737 0.670236 -1.205
-0.528234 0.7075 1.8816
-0.21243 0.954674 1.91467
-0.479444 0.905887 1.595
0.427866 0.0817008 -1.83842
0.77021 0.213951 -1.65734
0.858194 0.0803322 -1.52417
0.415973 0.0678819 1.91212
0.690962 0.2925 1.85079
0.850726 0.0681807 1.58417
0.4375 0.72036 -1.60456
0.864589 0.471853 -1.56697
0.880738 0.670236 -1.205
0.212436 0.954192 1.91419
0.528243 0.7075 1.8816
0.479457 0.905894 1.595
-0.861706 0.0725288 -0.90286
-0.870268 0.0601241 -0.281113
-0.850327 0.228765 -0.53524
-0.434571 0.0615295 -0.591907
-0.880723 0.0419825 0.96238
-0.869408 0.0571407 0.340633
-0.819546 0.279929 0.67738
-0.433713 0.0585783 0.651547
-0.821561 0.738448 -0.645
-0.812143 0.589342 -0.421747
-0.754081 0.798357 -0.0850001
-0.437559 1.01209 -0.365
-0.644185 0.943238 1.035
-0.775861 0.707485 0.729127
-0.706843 0.878508 0.475
-0.384761 1.13009 0.755
0.863458 0.071144 -0.9025
0.434654 0.0615288 -0.591747
0.87027 0.0604082 -0.280833
0.850353 0.229002 -0.535
0.880685 0.0421455 0.9625
0.43382 0.0585712 0.651627
0.869511 0.0572433 0.340833
0.819745 0.27993 0.6775
0.82151 0.738396 -0.645
0.437572 1.01208 -0.365
0.812129 0.589421 -0.421667
0.75408 0.798354 -0.0850001
0.644193 0.943242 1.035
0.384774 1.13009 0.755
0.775842 0.707488 0.729167
0.706846 0.878507 0.475
-0.873915 0.358672 -1.34212
-0.409752 0.342902 -1.90648
0.000183273 0.0804942 -1.52636
0.000182994 0.211976 -1.84585
-0.876835 0.22471 -1.14155
-0.430528 0.0692981 -1.21363
-0.862467 0.494877 1.59138
-0.316016 0.5 2.00044
1.1839e-05 0.0648472 1.60107
2.24635e-06 0.275574 1.72528
-0.885782 0.280292 1.28369
-0.424966 0.0389077 1.27327
2.15904e-06 0.868165 -1.28929
6.09979e-05 0.556143 -1.93548
-0.885228 0.533935 -0.997183
-0.420115 0.859367 -0.925
4.24834e-06 0.931567 1.61885
2.74554e-06 0.731347 1.95074
-0.863351 0.709286 1.30456
-0.283032 0.975243 1.315
0.874024 0.358715 -1.34197
0.410074 0.342902 -1.90627
0.876865 0.224767 -1.14125
0.43084 0.0699347 -1.21343
0.862419 0.494889 1.59131
0.315936 0.5 2.00045
0.883287 0.280317 1.28375
0.425017 0.0389146 1.27331
0.885228 0.533981 -0.997083
0.420123 0.859366 -0.925
0.863228 0.7093 1.30458
0.283042 0.975074 1.315
-0.796028 0.275362 0.07107
-0.434651 0.0594425 0.02982
-0.878036 0.390213 -0.77393
-0.813862 0.424365 -0.183057
6.18354e-05 0.0733389 -0.90268
1.11789e-05 0.0589676 -0.280973
-0.818571 0.461126 0.407817
-0.894224 0.484631 0.99869
3.13034e-05 0.0590007 0.340733
3.15235e-05 0.0446403 0.96244
-0.813013 0.65996 0.15369
-0.449097 1.20016 0.195
6.47713e-06 0.905769 -0.645
8.47912e-06 1.19117 -0.0850001
8.16501e-06 1.20751 0.475
6.75475e-06 1.0792 1.035
0.79608 0.275514 0.07125
0.434736 0.0594399 0.02994
0.877947 0.390341 -0.77375
0.813875 0.424504 -0.182917
0.818578 0.461204 0.407917
0.894222 0.484666 0.99875
0.813007 0.660009 0.15375
0.449107 1.20016 0.195
-0.869355 0.219331 -1.43336
-0.885802 0.229411 -0.838395
-0.872781 0.555896 -0.709465
-0.882972 0.502894 -1.27356
0.869275 0.219359 -1.43307
0.882971 0.502917 -1.27349
0.872788 0.555965 -0.709375
0.885708 0.229562 -0.838125
-0.428953 0.0751536 -1.52548
0.429353 0.0756414 -1.52526
0.43294 0.0714054 -0.90259
-0.432783 0.0714398 -0.90277
-0.428808 0.770258 -1.24714
-0.402342 0.869185 -0.645
0.402355 0.867038 -0.645
0.428812 0.770215 -1.24714
-0.418565 0.212963 -1.89165
-0.423626 0.513998 -1.86249
0.423787 0.513998 -1.86228
0.41897 0.212963 -1.89134
-0.7891 0.269102 -0.232085
-0.80064 0.281219 0.374225
-0.795579 0.684294 0.441408
-0.818625 0.627675 -0.134028
0.789189 0.269272 -0.231875
0.818635 0.627749 -0.133958
0.795559 0.684316 0.441458
0.800585 0.281385 0.374375
-0.434908 0.0598927 -0.281043
0.434991 0.0598924 -0.280903
0.434279 0.0590023 0.340783
-0.434182 0.0590092 0.340683
-0.461667 1.1428 -0.0850001
-0.425777 1.18282 0.475
0.425792 1.18283 0.475
0.461677 1.1428 -0.0850001
-0.887561 0.274069 0.980535
-0.865659 0.286396 1.58775
-0.69549 0.708393 1.59319
-0.858334 0.700228 1.01685
0.884425 0.274113 0.980625
0.858311 0.70025 1.01688
0.695118 0.7084 1.59316
0.864475 0.286408 1.58774
-0.429584 0.042115 0.96241
0.429651 0.0421179 0.96247
0.420495 0.0594087 1.59262
-0.420468 0.0608454 1.5926
-0.308382 1.06117 1.035
-0.247731 0.925099 1.60692
0.247739 0.925053 1.60692
0.308395 1.06106 1.035
-0.365993 0.284037 1.75772
0.365955 0.284037 1.75772
0.264186 0.719424 1.94101
-0.264223 0.719424 1.94102
-0.833482 0.149475 -1.76765
-0.641189 0.0821062 -1.83831
-0.857869 0.0811707 -1.68004
-0.717291 0.18875 1.82874
-0.623955 0.0494243 1.93058
-0.781389 0.136513 1.73956
-0.868415 0.536328 -1.52473
-0.65625 0.678713 -1.56291
-0.882842 0.640493 -1.345
-0.44001 0.81125 1.84176
-0.318647 0.944906 1.90491
-0.443979 0.902269 1.735
0.641677 0.0820961 -1.83796
0.833742 0.149475 -1.76707
0.857974 0.0815335 -1.67958
0.623959 0.0494243 1.93058
0.717294 0.18875 1.82873
0.781387 0.136539 1.73958
0.65625 0.678635 -1.56283
0.868438 0.536328 -1.52463
0.882847 0.640497 -1.345
0.318652 0.944944 1.90494
0.440135 0.81125 1.84188
0.443988 0.902272 1.735
-0.872854 0.0604203 -0.747423
-0.870289 0.061064 -0.43655
-0.838841 0.156182 -0.563613
-0.654497 0.0575357 -0.591947
-0.867886 0.055781 0.806943
-0.868926 0.0566617 0.49607
-0.803434 0.188337 0.664443
-0.65487 0.0497988 0.651527
-0.774972 0.723706 -0.505
-0.796768 0.672597 -0.393373
-0.762123 0.774552 -0.225
-0.642026 0.958252 -0.365
-0.654921 0.922127 0.895
-0.735027 0.811839 0.742063
-0.690112 0.893624 0.615
-0.565011 1.09425 0.755
0.872859 0.0607626 -0.747083
0.654623 0.0575311 -0.591707
0.870291 0.0613682 -0.43625
0.838872 0.156454 -0.563333
0.868037 0.0557743 0.807083
0.654978 0.0498087 0.651647
0.869019 0.0567544 0.49625
0.803692 0.188319 0.664583
[...]
POINT_DATA 3682
SCALARS point_scalars float 1
LOOKUP_TABLE default
-72.1138
-37.7116
-99.5321
-35.7685
-72.4183
-38.3749
-99.1978
-36.1103
-42.0121
-24.9437
-49.7412
-53.8585
-42.0274
-25.0929
-49.8215
-53.9261
-72.2321
-74.5811
-47.0641
-25.7556
-52.145
-37.7116
-37.7116
-72.2321
-134.93
-44.1816
-25.7556
-54.0497
-37.7116
-37.7116
-71.8788
-140.188
-56.6822
-41.1374
-44.1406
-35.1323
-34.452
-76.6685
-80.5932
-90.2477
-62.064
-38.5404
-35.7778
-35.7778
103.758
-72.2321
-42.0115
-29.0557
-40.116
-37.7116
-37.7116
103.758
-37.7116
-32.4176
123.169
-34.6935
-34.1146
-43.6301
-53.7939
-95.464
-64.6856
-35.7778
-35.7778
-35.7778
-10.0924
-72.6339
-42.1777
-28.0011
-40.7647
-38.1414
-38.132
108.544
-33.061
-30.9164
121.851
-34.5753
-33.6092
-35.5739
-51.3878
-96.8022
-64.0035
-36.0189
-36.0189
-36.0189
-72.6339
-97.7915
-46.9789
-26.0041
-52.4999
-38.3749
-38.3749
-72.6339
-134.155
-44.1966
-26.0041
-54.0343
-38.3749
-38.3749
-71.9816
-139.636
-56.7316
-41.1391
-44.6434
-35.4783
-34.9059
-76.1531
-80.6212
-90.3119
-61.5249
-38.6225
-36.0189
-36.0189
-91.2919
-177.405
-58.5837
-35.0924
-33.0978
-39.4342
-21.8952
-57.049
-35.3755
-48.3503
-91.9347
-58.6402
-35.5855
-39.6081
-57.0653
-48.4732
-38.495
-43.9806
-43.8972
-30.0966
-34.549
-55.0589
0.472182
-63.8346
-38.5571
-44.0221
-30.1846
-55.1298
-67.6621
-67.6744
-62.3894
-24.2606
198.308
-37.1963
-37.2815
-36.9251
-105.07
-49.7364
-50.0541
-38.4201
-45.4413
-33.035
-42.5601
-128.054
-85.8703
-35.1056
-34.7834
-52.636
-142.678
-44.6989
-84.194
-35.5211
-35.7038
-41.1987
-127.912
-43.4223
-86.0021
-35.4299
-35.7196
-53.0605
-43.9453
-142.598
-84.2229
-35.8251
-35.895
-41.3937
-45.8501
-36.5925
-45.963
-41.9486
-35.5763
-30.4064
-24.4292
-33.2423
-52.4701
-43.6391
-53.9441
-4.6737
-55.9821
-45.0127
-54.2055
-62.9493
-46.2862
-41.974
-36.6413
-45.9919
-35.8318
-33.2978
-30.5067
-24.7007
-52.4889
-4.73754
-43.6881
-53.9959
-56.0687
-62.9916
-45.1395
-54.2636
-99.5376
135.931
-87.521
184.531
-70.4541
-56.5222
-49.8064
-32.1573
-39.9289
-30.2483
-48.1531
-39.282
-45.0618
79.632
-62.9519
-31.8923
-40.6826
-34.6942
-57.1841
-45.5752
-99.5156
135.815
-70.4415
-56.7244
-50.4103
-32.7005
-48.4044
-39.4735
-62.9788
-31.9335
-57.6379
-45.6284
-35.7625
-35.5441
-53.2704
-38.1591
-49.4835
-39.7606
-34.9529
-46.3951
-35.256
-35.4411
-45.3391
-98.0001
-5.21252
-80.2455
-83.6636
-52.4336
-35.8347
-35.5686
-53.3057
-38.2135
-35.0633
-46.5663
-45.4392
-98.0247
-110.225
-56.3063
-51.6793
-88.4006
-110.195
-88.4252
-51.7132
-56.298
-72.8454
-72.8612
-43.955
-43.9067
-39.4946
-12.3653
-12.2239
-39.5107
152.07
100.256
100.038
152.319
-38.205
-30.8506
-43.6788
-42.6244
-38.2512
-42.6963
-43.7908
-30.9324
-38.1238
-38.1444
-34.0792
-34.0441
-64.6301
-79.6347
-79.6561
-64.7456
-45.2145
-50.9238
-43.3845
-48.5696
-45.3508
-48.7777
-43.7925
-51.6232
-34.7593
-34.8469
-41.3348
-40.9431
-52.5344
-40.6043
-40.6807
-52.5632
-31.203
-31.9923
-35.1869
-35.0101
-89.7892
-153.873
-93.7305
-37.2105
-37.0732
-42.8174
-121.055
-50.6292
-100.207
-35.769
-35.7771
-38.3939
-153.857
-89.6386
-94.0805
-37.7372
-37.8574
-43.4524
-50.4033
-120.882
-100.491
-35.9551
-36.0939
-38.6335
-46.8871
-38.8191
-45.6731
-40.2246
-33.972
-28.8857
-23.3026
-32.0025
-53.1107
-45.2244
-51.7366
-45.795
-53.071
-49.7123
-54.5754
-62.3625
-46.8485
-40.2476
-38.8635
-45.6949
-34.0928
-32.0904
-28.9829
-23.692
-53.1817
-45.9668
-45.2829
-51.8277
-53.1741
-62.4081
-49.8365
-54.6831
-70.2519
-118.371
-143.094
117.696
-183.257
-181.492
-133.955
-42.5795
-67.9218
-50.8982
-70.4282
-53.7414
-34.9625
-35.2984
-39.6365
-33.5754
-33.1337
-33.5743
-30.2529
-36.5934
-49.3611
-44.0608
-46.293
-39.9785
-45.8147
-45.7673
-61.3921
33.5006
-68.2829
-50.6963
-61.7731
-43.834
-35.4762
-35.5697
-38.1577
-34.7919
-44.2961
-53.1308
-51.4423
-46.1328
-70.9842
-118.898
-143.028
117.652
-67.9768
-50.7218
-70.4193
-53.7114
-35.4964
-35.7349
-40.2175
-34.1231
-49.6817
-44.2333
-46.5095
-40.2494
-68.2947
-50.7341
-61.8064
-43.8261
-44.4571
-53.2416
-51.676
-46.2184
-35.358
-31.9421
-36.8434
-34.2397
-44.5425
-43.3837
-50.1531
-40.0573
-43.4339
-43.4428
-46.5603
-41.646
-26.0239
-37.4338
-33.0362
-38.2647
-34.2202
-34.2431
-34.7237
-34.4933
-55.5334
-54.2
-50.359
-71.8304
0.814966
0.878683
7.72635
-28.23
-63.7184
-63.7315
-72.1562
-57.5735
-35.4114
-32.0278
-36.9072
-34.2747
-44.5842
-43.427
-50.2002
-40.1031
-26.127
-37.584
-33.1536
-38.4115
-55.6132
-54.2668
-50.443
-71.8897
-79.5081
-69.7531
-65.5654
-58.9273
-79.5069
-69.7531
-65.5837
-58.9594
-72.0631
-61.1084
-61.1014
-55.0106
-34.6678
-26.0125
-26.0626
-16.0639
199.042
193.266
200.034
199.049
-35.8498
-37.5014
-36.3286
-40.1169
-35.9281
-37.5711
-36.4377
-40.2119
-36.5352
-38.3118
-35.9776
-36.5463
-104.394
-108.048
-95.801
-104.348
-50.0818
-48.6836
-51.5808
-47.7039
-50.547
-48.9707
-51.9052
-47.9167
-39.2108
-38.6431
-38.7297
-37.7573
-42.8458
-45.455
-45.4799
-48.4386
-32.5057
-29.0944
-33.0654
-32.6362
-153.036
120.505
-97.0932
137.941
-104.664
-70.3671
-42.2558
-33.5178
-36.3583
-34.2328
-53.4069
-43.6333
-122.468
88.5457
-69.3578
34.4339
-85.7805
-67.5087
-39.0554
-35.0854
-37.97
-34.9092
-42.7375
-40.5699
-97.1158
139.599
-152.842
120.797
-104.663
-70.3281
-36.8227
-34.9165
-42.901
-34.259
-54.0705
-43.6926
-69.4062
34.2792
-122.475
88.718
-85.811
-67.5617
-38.0692
-35.0907
-39.5034
-35.3165
-43.0966
-40.6926
-56.4678
-42.3629
-39.402
-36.8601
-48.1829
-41.5186
-44.6724
-39.7996
-44.4254
-33.9277
-30.6456
-32.6904
-27.5183
-39.3223
-33.5941
-33.5651
-51.6876
-28.4065
-50.3171
-42.1802
-47.8021
-82.4401
-1.0176
-30.6003
-54.7577
-53.5576
-44.3439
-45.7557
-48.9483
-66.338
-69.8766
-57.1426
-56.711
-42.3865
-44.7086
-39.8215
-39.4326
-36.8897
-48.2174
-41.5535
-44.6359
-34.0406
-33.6375
-33.6403
-30.7535
-32.7468
-27.4959
-39.7367
-51.7204
-28.1096
-0.923965
-30.6493
-50.3666
-42.243
-47.8772
-82.5181
-54.8946
-53.6121
-69.9089
-57.1405
-44.6719
-45.9071
-49.0113
-66.3911
-106.949
-94.3172
140.52
125.897
-84.6776
-84.7129
189.259
186.913
-85.0604
-60.1474
-62.3463
-50.2028
-50.5104
-47.2262
-31.066
-33.966
-40.9667
-40.7601
-30.7361
-31.1818
-46.0379
-48.6353
-38.3554
-40.5506
-37.9857
-38.0728
96.9535
96.8384
-56.4519
-73.1725
-39.9204
-24.075
-40.7036
-40.7397
-34.7523
-34.6541
-52.7656
-53.7544
-48.6229
-42.9212
-106.918
-94.3242
125.794
140.083
-85.0475
-60.1749
-62.3152
-49.9678
-47.7452
-51.1346
-31.8572
-34.2701
-46.1459
-49.2151
-38.5081
-40.7557
-73.1919
-56.49
-24.103
-39.9556
-54.0683
-53.1774
-42.9839
-48.6625
-36.8316
-33.6392
-36.7525
-34.6741
-54.522
-52.1813
-37.8311
-39.391
-47.7921
-47.7834
-39.3385
-39.3476
-32.9517
-38.4953
-45.5789
-46.2231
-34.9183
-34.9029
-35.1099
-35.2027
-44.7253
-44.3681
-99.6575
-89.3413
-5.84056
-5.95267
-77.0199
-77.8553
-82.3789
-82.3886
-52.391
-52.4051
-36.891
-33.7267
-36.7747
-34.7036
-52.2167
-54.5731
-37.8803
-39.4544
-38.6254
-33.0554
-45.7104
-46.4243
-44.4523
-44.8371
-89.3587
-99.7497
-118.631
-82.8821
-82.9364
-151.124
-50.3883
-49.5095
-60.1057
-59.7916
-50.644
-53.5017
-58.0757
-50.9998
-122.999
-129.912
-76.8489
-70.9266
-118.806
-150.963
-82.9254
-83.0409
-122.986
-70.9494
-76.8525
-129.833
-50.6946
-51.0493
-58.1206
-53.5438
-50.4639
-59.7073
-60.1305
-49.5532
-101.395
-121.23
-69.9343
-59.7289
-101.31
-59.701
-69.9372
-121.353
-43.2816
-46.1755
-53.8561
-47.8323
-43.2427
-47.8533
-53.8579
-46.1648
-72.4102
-55.8766
-34.9531
-63.2455
-32.1851
5.42151
-17.6479
-35.2593
-32.3492
-35.2269
-17.7503
5.50387
-72.498
-63.3053
-35.0194
-55.9101
140.252
120.164
192.574
-33.8482
9.94318
28.9532
200.557
103.611
9.73352
103.3
200.564
28.3101
140.648
-43.3989
192.523
120.206
-42.1449
-37.9275
-36.7682
-40.358
-28.1448
-30.9949
-34.4665
-33.2633
-50.587
-49.3124
-39.51
-37.6794
-46.0552
-40.1359
-39.5877
-49.5466
-42.1797
-40.4027
-36.83
-37.9773
-46.1247
-49.6272
-39.6673
-40.1873
-50.6911
-37.8143
-39.6202
-49.398
-28.1614
-33.3622
-34.5588
-31.1116
-38.5073
-41.1567
-37.8772
-35.4738
-38.5365
-35.5041
-37.8868
-41.1661
-32.2797
-34.4432
-35.657
-33.3137
-32.2113
-33.2679
-35.6444
-34.4244
-75.7081
-77.3935
-106.352
-29.2395
-65.75
-71.7574
-95.1562
-68.5789
-65.805
-68.636
-95.1537
-71.7865
-75.8329
-29.0297
-106.296
-77.3235
-33.459
-45.31
-46.8238
-40.554
-42.463
-40.829
-49.236
-48.4394
-38.9035
-47.3703
-53.4425
-39.3675
-50.5223
-36.9124
-49.0308
-55.0952
-33.6054
-40.7463
-46.984
-45.4477
-50.6519
-55.2782
-49.2565
-36.965
-39.2898
-39.8761
-53.9046
-47.6583
-43.0843
-48.8769
-49.7337
-41.4657
-33.2778
-34.0838
-37.8733
-39.3872
-33.3908
-39.5717
-37.9357
-34.1152
-40.0374
-35.2894
-39.6708
-42.2751
-39.3776
-41.9451
-39.5407
-34.9534
-59.2886
-49.5314
-48.4203
-57.3345
-37.9502
-38.1251
-42.8783
-43.2439
-38.1095
-43.3504
-42.9086
-38.1748
-59.3746
-57.2709
-48.5013
-49.6014
-34.7888
-35.7608
-29.064
-32.746
-35.4346
-33.5136
-29.6717
-35.9677
-35.5722
-34.8809
-33.1471
-34.3575
-35.2996
-33.9754
-33.0644
-34.7981
-73.235
-98.7904
-126.083
-38.834
-37.6822
-38.2959
-106.405
-55.6186
-117.736
-36.1907
-35.7763
-37.4323
-98.7689
-74.6455
-126.729
-38.3495
-39.4728
-38.9378
-55.4152
-105.897
-117.83
-36.0328
-36.5405
-37.7038
-44.1956
-40.3274
-43.9444
-39.8034
-27.9259
-27.988
-22.3074
-31.2327
-49.082
-47.0941
-50.4929
-63.4297
-53.3192
-52.4915
-54.6315
-57.7856
-44.2212
-39.7736
-40.3435
-43.9768
-28.1206
-31.3323
-28.1059
-22.5357
-49.1568
-63.5444
-47.1612
-50.5775
-53.4027
-57.8493
-52.7065
-54.6653
-80.4794
-107.633
-181.236
53.9924
-171.321
-170.98
-196.394
-122.245
-62.0531
-54.7598
-64.8819
-53.1785
-35.1745
-35.131
-36.6809
-34.3248
-33.1627
-33.4383
-30.1558
-38.1571
-37.469
-48.3818
-43.5839
-39.5133
-32.9852
-31.8394
-64.8174
39.3686
-62.7185
-52.9455
-60.7936
-48.7314
-35.3908
-35.4355
-36.9165
-34.7628
-46.2168
-50.5874
-50.0552
-46.9685
-81.2652
-108.101
-181.281
53.8177
-62.3249
-54.7381
-64.8913
-53.1553
-35.6894
-35.6024
-37.2132
-34.8327
-37.6444
-48.7142
-43.7905
-39.7559
-62.7218
-52.974
-60.826
-48.7179
-46.3613
-50.7088
-50.2435
-47.0628
-35.2666
-35.3317
-41.4181
-33.9048
-44.1994
-43.6524
-46.4198
-41.6605
-43.8472
-43.8489
-45.1884
-42.6754
-27.89
-33.1508
-31.8072
-31.2561
-34.4574
-34.4684
-34.5797
-34.4616
-55.6216
-54.5577
-52.7512
-62.0605
1.25039
1.28989
7.05686
-14.8034
-63.8068
-63.8143
-67.5776
-60.382
-35.3232
-35.4165
-41.4511
-33.9376
-44.2399
-43.6944
-46.4613
-41.7032
-27.9814
-33.2779
-31.91
-31.3858
-55.6963
-54.628
-52.8291
-62.1245
-73.1336
-68.7656
-66.6358
-62.8154
-73.1364
-68.7723
-66.6536
-62.8407
-67.0649
-62.191
-62.1875
-58.5104
-29.1993
-24.6956
-24.7247
-20.1696
199.491
196.006
200.748
199.489
-36.446
-37.3443
-36.7918
-38.4762
-36.5281
-37.4221
-36.8814
-38.5673
-36.8341
-37.5485
-36.48
-36.8386
-105.038
-107.243
-101.899
-105.029
-49.775
-49.0602
-50.4175
-48.6254
-50.1594
-49.3635
-50.7407
-48.8825
-38.8977
-38.4672
-38.5106
-38.0776
-44.0275
-45.441
-45.4535
-46.8198
-33.0357
-29.7105
-33.0579
-33.0974
-76.9067
-51.7447
-139.112
75.1042
-146.152
-138.619
-115.205
93.7326
-89.9594
-76.51
-92.4951
-71.1164
-35.3993
-34.8721
-38.6312
-33.9966
-36.2424
-33.6653
-36.6319
-34.6776
-52.3561
-57.175
-54.012
-47.1772
-139.894
-133.695
-161.815
11.9114
-47.778
-47.1555
-63.0119
-8.79257
-93.6736
-74.375
-86.6823
-81.7778
-35.8398
-35.3326
-37.0378
-35.2454
-35.7928
-35.6501
-36.7636
-35.1485
-39.6467
-42.6817
-42.0568
-40.7379
-146.249
-138.661
-115.445
93.7831
-77.9592
-52.6738
-139.332
74.4756
-90.1394
-76.3005
-92.5028
-71.0461
-36.8896
-34.1011
-37.1992
-35.0684
-36.0401
-35.4492
-39.2598
-34.6428
-52.9975
-57.7335
-54.6655
-47.4458
-47.5781
-47.1436
-63.0849
-8.57155
-139.882
-134.148
-161.678
11.8297
-93.7007
-74.3961
-86.7123
-81.8229
-35.9495
-35.736
-36.8767
-35.3084
-36.1701
-35.7488
-37.4856
-35.5451
-39.8595
-42.8591
-42.3327
-40.8919
-47.0264
-48.0448
-52.7961
-40.0519
-37.6876
-35.7596
-38.0286
-35.9869
-45.1091
-45.1956
-46.2735
-43.4885
-41.0046
-42.7412
-43.4012
-40.8241
-30.4343
-43.2801
-42.3487
-31.6512
-29.7176
-31.2493
-31.3533
-31.4762
-23.3208
-24.9755
-26.0764
-25.5488
-32.6349
-33.8314
-33.4097
-33.3787
-59.0652
-50.3172
-52.8784
-41.7996
-44.267
-43.2601
-46.1301
-42.3555
-53.0547
-54.8065
-50.8275
-63.3137
-12.591
-0.997958
0.425483
-15.9686
-54.5817
-54.6383
-54.59
-55.608
-47.0093
-41.2441
-46.2835
-45.2459
-54.4146
-54.1494
-51.6113
-58.5288
-63.0934
-63.587
-66.4695
-60.1045
-47.5384
-47.7944
-53.1913
-40.1768
-41.0324
-42.7594
-43.4327
-40.8458
-37.7335
-35.8086
-38.0832
-36.0181
-45.1386
-45.2276
-46.301
-43.5206
-30.6032
-43.4172
-42.6104
-31.7367
-32.7061
-33.8712
-33.4588
-33.4425
-29.8189
-31.3433
-31.4707
-31.5399
-23.6204
-25.1295
-25.9266
-25.7445
-59.112
-50.3553
-52.9083
-41.7814
-12.6842
-0.920784
0.42102
-15.9793
-44.3198
-43.3049
-46.1795
-42.4091
-53.1465
-54.8886
-50.9082
-63.3936
-54.6765
-54.6269
-54.7146
-55.663
-63.1637
-63.6146
-66.5055
-60.1409
-47.1467
-41.3672
-46.3805
-45.3817
-54.4966
-54.2142
-51.6626
-58.5857
-115.871
-87.5357
-102.974
-96.9991
131.654
194.407
138.071
131.971
-102.531
-78.5156
-86.5928
-86.6105
119.704
189.712
193.162
194.247
-71.1441
-70.2374
-77.0248
-64.732
-54.6964
-59.0775
-60.3348
-53.5497
-44.338
-50.8799
-50.0412
-48.9179
-33.2064
-31.3479
-30.29
-33.3498
-36.5934
-40.0217
-40.4042
-40.2545
-36.2916
-30.2847
-30.336
-30.6868
-47.4783
-48.589
-46.6204
-48.2147
-39.9049
-38.9357
-38.5022
-39.8971
-52.7143
-39.7919
-43.6955
-43.724
33.0693
174.828
87.7003
87.5423
-61.8178
-64.211
-59.2074
-67.5484
-37.3523
-28.6142
-36.7875
-28.0692
-39.4049
-41.8267
-40.7087
-40.7267
-35.1744
-33.5379
-34.6588
-34.6063
-55.8543
-53.5943
-55.5399
-56.7149
-45.7092
-45.4803
-46.9701
-44.1628
-115.832
-87.5289
-102.944
-96.9927
131.626
194.386
131.841
137.822
-71.1232
-70.2317
-77.0105
-64.7306
-54.689
-59.058
-60.2821
-53.2349
-44.9332
-51.4437
-49.4818
-50.6671
-33.7439
-31.7315
-31.1252
-33.7546
-47.7253
-48.8204
-46.7444
-48.2806
-40.2032
-39.0631
-38.6652
-40.1042
-61.8444
-64.2336
-67.5717
-59.2385
-37.362
-28.657
-28.107
-36.8287
-56.1033
-53.8934
-56.99
-55.8627
-45.7699
-45.5161
-44.2216
-47.0148
-36.1684
-35.6242
-36.4119
-34.7816
-34.7663
-36.1133
-36.1588
-35.11
-50.8586
-56.1223
-53.8239
-52.6714
-38.9691
-37.7721
-37.9668
-38.566
-47.7746
-52.0642
-49.1384
-49.1371
-40.7137
-38.9606
-39.6339
-39.6373
-34.0701
-35.74
-33.9795
-36.4117
-43.9091
-47.1114
-45.8956
-46.6888
-34.9971
-35.5404
-35.1594
-35.1525
-34.28
-37.148
-35.4337
-35.3786
-47.7505
-42.3249
-45.188
-45.2018
-87.7583
-103.032
-100.042
-95.7486
2.58192
-8.4634
-5.63107
-5.66135
-52.9934
-99.1074
-79.9385
-80.1076
-77.0134
-89.6329
-83.2133
-83.2166
-54.624
-50.352
-52.3962
-52.4031
-36.2384
-35.6991
-36.4775
-34.8619
-34.7973
-36.1316
-36.1817
-35.1366
-50.8991
-56.1582
-52.702
-53.8686
-39.0184
-37.834
-38.0164
-38.6244
-34.1897
-35.845
-36.5303
-34.0915
-44.0669
-47.2977
-46.0537
-46.8718
-47.8419
-42.4229
-45.2934
-45.298
-87.8042
-102.976
-95.7578
-100.086
-127.439
-111.24
-108.733
-96.3748
-57.0442
-52.5844
-56.7515
-55.3006
-51.658
-54.5942
-52.9453
-51.4966
-103.513
-86.7909
-91.1913
-79.9789
-127.318
-111.129
-108.696
-96.3561
-103.524
-86.8191
-91.2097
-79.997
-51.6922
-54.6461
-52.9782
-51.5302
-57.0043
-52.6276
-56.7931
-55.3462
-82.5621
-70.8809
-78.2352
-66.0299
-82.5878
-70.8626
-78.2529
-66.116
-43.2082
-44.0995
-47.0707
-45.5168
-43.1765
-44.057
-46.9958
-45.4892
-52.9675
-50.5759
-36.8206
-36.7097
-16.8304
-5.41504
-19.2488
-7.65495
-17.0608
-5.69216
-19.2083
-7.80818
-53.0034
-50.5883
-36.8784
-36.7266
131.13
163.817
145.721
193.794
122.986
68.1084
117.702
100.876
67.9061
122.764
100.111
117.492
165.493
131.166
193.52
145.474
-38.7765
-39.5714
-37.3851
-37.9263
-30.4202
-30.8017
-32.2302
-31.7213
-42.2503
-46.1787
-40.978
-44.304
-42.3227
-45.4257
-40.6466
-43.4313
-38.8185
-39.6187
-37.4344
-37.9737
-42.3876
-45.502
-40.7151
-43.5121
-42.43
-46.25
-41.1166
-44.429
-30.5173
-30.9144
-32.3248
-31.7889
-37.4709
-38.7975
-37.4027
-38.8218
-38.8183
-37.4956
-38.8378
-37.4246
-33.8216
-33.4626
-34.5434
-34.3694
-33.4164
-33.7824
-34.3376
-34.5175
-73.7452
-46.657
-86.801
-71.1053
-76.1209
-74.539
-84.1179
-81.4838
-74.6064
-76.1365
-81.5008
-84.1377
-46.7541
-73.3338
-72.3813
-86.9401
-45.0527
-45.0905
-45.5359
-45.3723
-48.0176
-52.213
-50.5053
-50.649
-40.9385
-43.1894
-45.108
-46.8558
-52.1589
-45.5949
-49.579
-46.1269
-45.2502
-45.6208
-45.6513
-45.4275
-52.3497
-45.7974
-49.963
-46.3305
-41.3767
-43.5828
-45.5691
-47.2586
-48.6367
-52.9017
-51.116
-51.2998
-35.6243
-32.8151
-37.1781
-34.8998
-35.7497
-32.8981
-37.2898
-34.9394
-35.6396
-44.3126
-41.675
-43.1564
-35.1898
-43.9215
-41.2983
-42.9882
-52.7975
-54.7329
-50.5418
-52.4356
-39.2722
-40.5574
-40.6655
-41.8472
-39.3623
-40.6549
-40.7214
-41.9162
-52.8412
-54.7526
-50.5794
-52.458
-32.5041
-31.5491
-31.345
-30.8628
-32.3551
-33.2737
-31.5589
-32.0758
-35.2988
-35.1669
-35.0624
-34.9062
-34.9923
-35.1342
-34.7125
-34.9236
-118.877
117.95
-130.594
98.7563
-93.5937
-101.453
-39.6414
-34.5024
-36.8728
-40.1221
-42.6321
-42.3024
-142.272
-17.8241
-67.0977
-8.08711
-114.073
-84.2867
-37.504
-35.4795
-36.7136
-35.2131
-38.8159
-37.9797
-130.564
99.5104
-118.524
117.392
-93.7288
-101.363
-37.4852
-40.7153
-40.2893
-35.1652
-43.2562
-42.9988
-67.1372
-8.07395
-142.342
-17.7799
-113.98
-84.3393
-36.8887
-35.4757
-37.8981
-35.7817
-39.1569
-38.1867
-48.7645
-43.5886
-40.5831
-37.6388
-47.3498
-43.9318
-41.3458
-39.5553
-34.9685
-32.9987
-28.7487
-30.9784
-25.3368
-24.2818
-31.9806
-32.5723
-51.9751
-52.2641
-46.4012
-45.5866
-48.8843
-64.0306
-36.4047
-65.7869
-52.6418
-57.401
-50.5762
-49.6544
-53.1079
-58.1636
-64.7841
-60.6575
-48.7303
-43.6173
-41.3763
-39.5678
-40.631
-37.6792
-47.3546
-43.9616
-35.0625
-33.1302
-32.0586
-32.6693
-28.8472
-31.0569
-25.2797
-24.6695
-52.036
-52.3906
-36.8217
-65.949
-46.4551
-45.6501
-48.9613
-64.1249
-52.7694
-57.6057
-64.8237
-60.7011
-50.7023
-49.7806
-53.1857
-58.2171
-167.811
65.7269
-163.714
35.249
-146.925
-133.748
120.433
111.56
-169.566
-156.319
-170.029
-151.291
-130.27
-130.345
-53.1375
-52.8917
-76.0239
-58.8011
-55.8554
-47.24
-76.5015
-64.8088
-57.2052
-50.6276
-37.6254
-33.8776
-36.6825
-34.6245
-39.8724
-39.5602
-33.1068
-33.8401
-33.9295
-34.5353
-34.3298
-34.885
-30.6449
-30.3018
-36.7112
-36.9154
-50.3246
-43.735
-45.1437
-41.2484
-45.228
-47.449
-39.2393
-40.8556
-79.101
-7.39004
-79.1991
-6.99223
-58.9527
-58.9723
30.2596
30.2646
-70.814
-62.801
-52.5541
-41.4552
-57.4739
-66.253
-49.3953
-39.3634
-36.9168
-34.8257
-36.9704
-34.9186
-38.1599
-38.1858
-34.8315
-34.7882
-46.0108
-43.6017
-53.8553
-50.9986
-49.0749
-53.6007
-47.8299
-44.5335
-167.942
65.4325
-163.636
35.2759
-146.772
-133.668
111.502
120.415
-76.0859
-58.8153
-55.6789
-47.1721
-76.5564
-64.7465
-57.1889
-50.5812
-38.2118
-34.4923
-37.1901
-35.0083
-40.1261
-40.5422
-33.8011
-34.2701
-50.6683
-44.1872
-45.2595
-41.4441
-45.4149
-47.6573
-39.4493
-41.1063
-70.8269
-62.8534
-52.5927
-41.4506
-66.2769
-57.4942
-39.3549
-49.3867
-46.2449
-43.72
-54.0192
-51.0895
-53.7906
-49.3806
-44.6266
-47.9073
-36.6961
-34.8878
-33.1328
-32.2869
-37.3101
-35.0971
-34.9646
-33.808
-48.1415
-42.1226
-46.2052
-41.0793
-49.9314
-50.5408
-40.123
-39.9421
-44.6355
-42.3214
-44.6503
-42.3267
-46.5032
-46.5011
-41.5159
-41.5191
-29.6571
-29.4462
-37.5312
-36.3202
-31.8196
-35.1394
-39.6301
-36.3873
-34.2708
-34.1638
-34.2916
-34.1878
-34.6425
-34.6341
-34.3793
-34.3949
-52.9462
-64.1943
-51.8598
-60.0297
-49.8037
-50.3211
-73.9575
-69.5595
6.36748
-12.9405
6.43475
-12.8613
5.99653
6.02379
-27.6453
-27.6292
-67.2789
-60.2704
-67.3865
-60.2834
-72.1215
-72.1297
-57.5212
-57.5282
-36.7567
-34.9228
-33.2378
-32.3427
-37.4193
-35.17
-34.9989
-33.849
-48.1755
-42.164
-46.2514
-41.1234
-50.5951
-49.9747
-40.1679
-39.9906
-29.7505
-29.5854
-37.6654
-36.4463
-35.2641
-31.9383
-39.8027
-36.5252
-53.0337
-64.2623
-51.9289
-60.0937
-50.4126
-49.8941
-69.6195
-74.0124
-81.1524
-78.2899
-75.8014
-64.5356
-61.0508
-70.6629
-59.5155
-58.4504
-81.1461
-78.2904
-75.7955
-64.5478
-70.6739
-61.0723
-58.4893
-59.54
-71.8646
-71.8648
-65.71
-57.2922
-65.707
-57.2818
-54.781
-54.7834
-35.244
-35.2694
-29.8437
-21.5715