# vtk DataFile Version 2.0
tri_press
ASCII
DATASET UNSTRUCTURED_GRID
POINTS 3682 float
-0.642935 0.125 -1.905
-0.718655 0.155 1.955
-0.728018 0.475 -1.765
-0.755 0.795 1.83874
0.642846 0.125 -1.905
0.718652 0.155 1.955
0.728022 0.475 -1.765
0.755 0.795 1.83874
-0.680339 0.122836 -0.618333
-0.71787 0.120545 0.668334
-0.83869 0.683344 -0.563753
-0.829679 0.772006 0.637493
0.680281 0.122834 -0.618333
0.717746 0.120637 0.668334
0.838687 0.683339 -0.563753
0.829667 0.771993 0.637493
-1.39704 -0.206123 -2.9216
-1.3943 -0.139368 -1.92648
-1.42682 -0.140664 -0.637601
-1.45623 -0.165795 0.668465
-1.45878 -0.151212 1.95879
-1.46001 -0.119154 2.961
-1.46348 -0.079651 3.95009
-1.39771 0.0275496 -2.88231
-1.40225 0.117101 -1.89652
-1.44965 0.143699 -0.624262
-1.47588 0.138773 0.655681
-1.46392 0.159599 1.92957
-1.46361 0.191617 2.93058
-1.46749 0.229605 3.92245
-1.43732 0.457388 -2.77975
-1.48176 0.543376 -1.79043
-1.56917 0.697012 -0.576406
-1.56954 0.770344 0.631565
-1.51251 0.797687 1.84722
-1.49336 0.825568 2.85176
-1.48832 0.858073 3.85741
-1.47711 1.24463 -2.69014
-1.50669 1.3486 -1.71361
-1.55438 1.51844 -0.527284
-1.57853 1.65543 0.640632
-1.56717 1.72929 1.82785
-1.54711 1.76451 2.80625
-1.5311 1.79489 3.80257
-0.675631 -0.20251 -2.92711
-0.666157 -0.13194 -1.93452
-0.687906 -0.149792 -0.636523
-0.714765 -0.180278 0.679264
-0.720957 -0.159201 1.97767
-0.718823 -0.125459 2.97381
-0.719326 -0.0848755 3.9575
-0.668075 0.0230838 -2.884
-0.717626 0.186978 2.94114
-0.720579 0.225259 3.92804
-0.694452 0.427206 -2.76919
-0.737826 0.823297 2.85007
-0.735392 0.855758 3.85705
-0.719498 1.22299 -2.6797
-0.73765 1.32775 -1.7021
-0.776947 1.51121 -0.520347
-0.805097 1.6584 0.6398
-0.802635 1.73284 1.82191
-0.786536 1.76644 2.80031
-0.773186 1.79568 3.79825
0.708109 -0.202508 -2.92711
0.676696 -0.131939 -1.93452
0.69942 -0.149782 -0.636523
0.724056 -0.180216 0.679264
0.72694 -0.159178 1.97767
0.746362 -0.125441 2.97381
0.759368 -0.0848567 3.9575
0.712136 0.0230844 -2.884
0.750531 0.18699 2.94114
0.761811 0.225275 3.92804
0.746554 0.427206 -2.76919
0.760023 0.823305 2.85007
0.761785 0.855772 3.85705
0.785612 1.22299 -2.6797
0.793985 1.32775 -1.7021
0.791815 1.51121 -0.520347
0.76666 1.6584 0.6398
0.743703 1.73284 1.82191
0.741224 1.76645 2.80031
0.743896 1.79569 3.79825
1.41773 -0.206119 -2.9216
1.39346 -0.139364 -1.92648
1.4266 -0.140642 -0.637601
1.46054 -0.165711 0.668465
1.46648 -0.151153 1.95879
1.48406 -0.119112 2.961
1.49921 -0.0796119 3.95009
1.42165 0.0275517 -2.88231
1.39284 0.117101 -1.89652
1.44115 0.143708 -0.624262
1.47514 0.138859 0.655681
1.46887 0.159649 1.92957
1.48873 0.191652 2.93058
1.50271 0.22964 3.92245
1.46974 0.457389 -2.77975
1.47716 0.543374 -1.79043
1.561 0.697008 -0.576406
1.5641 0.770363 0.631565
1.51027 0.797716 1.84722
1.50623 0.825595 2.85176
1.50862 0.858102 3.85741
1.53256 1.24463 -2.69014
1.54842 1.3486 -1.71361
1.56096 1.51844 -0.527284
1.5437 1.65544 0.640632
1.51578 1.72931 1.82785
1.50497 1.76454 2.80625
1.50189 1.79492 3.80257
-0.65352 0.3 -1.80304
-4.44949e-05 0.122985 -1.90701
-0.668462 0.117093 -1.26167
-0.753618 0.475 1.91366
-1.49012e-06 0.188458 1.92154
-0.730229 0.125806 1.31167
1.99676e-06 0.530721 -1.82072
-0.874486 0.670304 -1.16438
0 0.835382 1.87912
-0.825852 0.817016 1.23812
0.653241 0.3 -1.80281
0.668387 0.117093 -1.26167
0.753565 0.475 1.91361
0.730254 0.125764 1.31167
0.874415 0.67023 -1.16438
0.825854 0.817017 1.23812
-0.697925 0.12287 0.025
-0.869004 0.40309 -0.591043
-2.90997e-05 0.125097 -0.618333
-0.814831 0.446275 0.652913
-6.20338e-05 0.125402 0.668334
-0.830873 0.724364 0.03687
-1.49794e-06 0.993163 -0.563753
-5.69859e-06 1.0057 0.637493
0.697882 0.122867 0.025
0.869004 0.403086 -0.591043
0.814836 0.446315 0.652913
0.830846 0.724335 0.03687
-0.884419 0.351545 -1.21302
0.884419 0.351543 -1.21302
-3.67973e-05 0.118703 -1.26167
2.49409e-07 0.759706 -1.16438
-2.12491e-05 0.3 -2.07425
-0.863817 0.424683 0.030935
0.86382 0.424701 0.030935
-4.55667e-05 0.12525 0.025
-3.59826e-06 1.10251 0.03687
-0.889501 0.460638 1.27489
0.889499 0.460658 1.27489
-3.17619e-05 0.152495 1.31167
-2.84929e-06 0.905738 1.23812
-7.45058e-07 0.475 2.07636
-0.59062 0.2125 -1.79641
-0.32149 0.121606 -1.90839
-0.659519 0.117226 -1.58333
-0.725805 0.315 1.924
-0.359328 0.158824 1.95118
-0.737668 0.127177 1.63333
-0.722264 0.3875 -1.81552
-0.364008 0.517239 -1.80724
-0.820767 0.592167 -1.46469
-0.757961 0.635 1.87985
-0.3775 0.820894 1.86463
-0.804832 0.820414 1.53843
0.321401 0.121599 -1.9084
0.590534 0.2125 -1.79639
0.659436 0.117227 -1.58333
0.359325 0.157726 1.95227
0.723039 0.315 1.92123
0.737759 0.127076 1.63333
0.364012 0.517224 -1.80722
0.722328 0.3875 -1.8156
0.820746 0.592142 -1.46469
0.3775 0.821149 1.86489
0.757959 0.635 1.87985
0.804827 0.820408 1.53843
-0.677249 0.117116 -0.94
-0.689133 0.122852 -0.296667
-0.855591 0.222504 -0.604688
-0.341305 0.121724 -0.618333
-0.724246 0.122979 0.99
-0.706719 0.122886 0.346667
-0.855318 0.238926 0.660623
-0.359588 0.121729 0.668334
-0.863765 0.684001 -0.864065
-0.868107 0.550347 -0.577398
-0.832333 0.701406 -0.263442
-0.481871 0.963305 -0.563753
-0.829246 0.795992 0.937805
-0.832033 0.61403 0.645203
-0.82994 0.747849 0.337182
-0.472559 1.00428 0.637493
0.677182 0.117115 -0.94
0.341247 0.121724 -0.618333
0.689083 0.122849 -0.296667
0.85559 0.222486 -0.604688
0.724432 0.122768 0.99
0.359487 0.12173 0.668334
0.706684 0.122882 0.346667
0.855475 0.238885 0.660623
0.863797 0.68403 -0.864065
0.481801 0.963168 -0.563753
0.868106 0.550343 -0.577398
0.832341 0.701411 -0.263442
0.82925 0.795995 0.937805
0.456469 0.972121 0.637493
0.832032 0.614044 0.645203
0.829838 0.747746 0.337182
-0.848049 0.325773 -1.50803
-0.32677 0.3 -1.91143
-4.06461e-05 0.118484 -1.58434
-3.2872e-05 0.211493 -1.93991
-0.885771 0.234319 -1.23734
-0.334249 0.113256 -1.26167
-0.881986 0.467819 1.59428
-0.376809 0.475 2.04152
-1.6626e-05 0.166565 1.6166
-1.11759e-06 0.331729 2.04891
-0.866935 0.293222 1.29328
-0.36513 0.120628 1.31167
1.12308e-06 0.6831 -1.49255
-9.62615e-06 0.415361 -1.97608
-0.884337 0.510925 -1.1887
-0.437243 0.738396 -1.16438
-1.42465e-06 0.880816 1.55862
-3.72529e-07 0.655191 2.00932
-0.895684 0.638827 1.2565
-0.412927 0.884882 1.23812
0.848044 0.325772 -1.50791
0.32661 0.3 -1.91149
0.885768 0.234318 -1.23734
0.334175 0.113256 -1.26167
0.881987 0.467829 1.59425
0.376782 0.475 2.04153
0.866932 0.293211 1.29328
0.365111 0.120628 1.31167
0.88434 0.510887 -1.1887
0.437208 0.738402 -1.16438
0.895683 0.638837 1.2565
0.412925 0.884894 1.23812
-0.854387 0.237019 0.0279675
-0.350137 0.121757 0.025
-0.884501 0.377318 -0.902033
-0.867834 0.413887 -0.280054
-3.29485e-05 0.118841 -0.94
-3.73332e-05 0.125174 -0.296667
-0.848506 0.435479 0.341924
-0.880024 0.453457 0.963903
-5.38003e-05 0.125327 0.346667
-4.68979e-05 0.126344 0.99
-0.862188 0.581945 0.0339025
-0.49444 1.07144 0.03687
-6.24264e-07 0.882787 -0.864065
-2.5481e-06 1.07823 -0.263442
-4.64843e-06 1.09283 0.337182
-4.27394e-06 0.918436 0.937805
0.854388 0.237016 0.0279675
0.35007 0.121756 0.025
0.884527 0.377315 -0.902033
0.867839 0.413894 -0.280054
0.848508 0.435508 0.341924
0.880823 0.453486 0.963903
0.862184 0.581943 0.0339025
0.4944 1.07138 0.03687
-0.827488 0.22341 -1.54568
-0.883991 0.248641 -0.921016
-0.8843 0.527071 -0.883049
-0.863404 0.449212 -1.48636
0.827491 0.223409 -1.54562
0.86355 0.449193 -1.4863
0.884304 0.52705 -0.883049
0.883992 0.248639 -0.921016
-0.32787 0.113348 -1.58384
0.327788 0.113348 -1.58384
0.33715 0.113258 -0.94
-0.337217 0.113258 -0.94
-0.400625 0.672783 -1.47862
-0.428294 0.860149 -0.864065
0.428275 0.860094 -0.864065
0.40061 0.672888 -1.47862
-0.32413 0.211996 -1.88957
-0.345389 0.40143 -1.95692
0.345311 0.40143 -1.95694
0.324005 0.211996 -1.88961
-0.854503 0.230004 -0.28836
-0.854474 0.238161 0.344296
-0.852885 0.600875 0.339553
-0.865342 0.566244 -0.271748
0.854503 0.229994 -0.28836
0.865343 0.566242 -0.271748
0.852881 0.60088 0.339553
0.85454 0.238146 0.344296
-0.345721 0.12174 -0.296667
0.345658 0.12174 -0.296667
0.354763 0.121773 0.346667
-0.354847 0.121773 0.346667
-0.502123 1.04531 -0.263442
-0.496171 1.06321 0.337182
0.496145 1.06317 0.337182
0.502027 1.04513 -0.263442
-0.869947 0.288316 0.976951
-0.862827 0.304111 1.6138
-0.892126 0.636913 1.56635
-0.866457 0.623984 0.950854
0.869946 0.288344 0.976951
0.866453 0.623996 0.950854
0.892115 0.636919 1.56634
0.862791 0.304105 1.61379
-0.362048 0.120546 0.99
0.361976 0.120545 0.99
0.362218 0.120645 1.62497
-0.362229 0.120645 1.62497
-0.413885 0.907783 0.937805
-0.395214 0.859366 1.54852
0.395213 0.859581 1.54852
0.413878 0.907798 0.937805
-0.368069 0.323364 2.03059
0.368054 0.323364 2.03061
0.377141 0.645096 1.98228
-0.377155 0.645096 1.98228
-0.568346 0.16875 -1.80228
-0.482212 0.121622 -1.90838
-0.649234 0.123106 -1.74417
-0.733054 0.235 1.95032
-0.538992 0.197549 1.91245
-0.728167 0.141083 1.79417
-0.728042 0.43125 -1.79316
-0.546013 0.504626 -1.79463
-0.778969 0.53816 -1.61484
-0.757384 0.715 1.8602
-0.56625 0.82933 1.87307
-0.785691 0.813482 1.68858
0.482123 0.121615 -1.90839
0.569149 0.16875 -1.80316
0.649148 0.123106 -1.74417
0.538989 0.197432 1.91257
0.733048 0.235 1.95032
0.733503 0.135741 1.79417
0.546017 0.504589 -1.79459
0.728079 0.43125 -1.7932
0.778875 0.538062 -1.61484
0.56625 0.829356 1.8731
0.757556 0.715 1.86037
0.785694 0.813485 1.68858
-0.681621 0.117149 -0.779167
-0.68474 0.12284 -0.4575
-0.841809 0.135748 -0.611511
-0.510825 0.122275 -0.618333
-0.721162 0.121658 0.829167
-0.71332 0.12069 0.5075
-0.836934 0.154565 0.664478
-0.53816 0.122275 0.668334
-0.848474 0.68092 -0.713909
-0.861464 0.620878 -0.570576
-0.835394 0.692258 -0.413598
-0.691969 0.886702 -0.563753
-0.82947 0.784006 0.787649
-0.853748 0.704464 0.641348
-0.830028 0.760146 0.487338
-0.634094 0.854096 0.637493
0.681557 0.117149 -0.779167
0.510766 0.122274 -0.618333
0.684684 0.12284 -0.4575
0.841804 0.135726 -0.611511
0.720731 0.122061 0.829167
0.538071 0.122275 0.668334
0.711094 0.122881 0.5075
0.836952 0.15459 0.664478
0.848499 0.680941 -0.713909
[...]
POINT_DATA 3682
SCALARS point_scalars float 1
LOOKUP_TABLE default
29.9845
-39.9349
15.0597
-40.587
30.0025
-39.8468
15.0927
-40.3821
-35.9293
-30.1455
-51.3015
-39.0207
-35.9427
-30.1365
-51.3155
-38.9919
28.3447
-167.186
-41.9824
-26.25
-48.1416
-40.0402
-34.6413
82.1155
-126.648
-43.791
-26.2864
-48.9776
-37.6679
-34.6413
82.1155
-58.512
-46.7158
-30.1589
-51.6289
-34.6557
-31.564
7.41641
-46.8373
-73.2613
-37.8484
-44.3862
-40.8325
-39.4314
38.5966
28.3447
-36.3939
-30.2781
-37.8231
-31.6602
-30.5751
186.842
-30.5751
-28.8224
173.006
-31.0207
-30.2381
115.81
-28.3822
-73.1085
-57.695
-40.0401
-35.4187
-31.2091
39.0473
28.1559
-36.512
-30.2129
-37.9104
-33.0447
-30.2873
186.859
-30.2873
-30.2873
173.009
-30.9313
-30.1847
122.957
-26.6659
-73.2032
-58.4899
-38.7679
-34.493
-31.0272
-74.117
-167.739
-43.5627
-26.1547
-48.274
-39.8976
-34.3749
82.0797
-129.63
-44.4432
-26.1588
-48.5631
-37.3227
-34.3749
82.0797
-58.2318
-46.7459
-30.024
-51.4481
-34.5102
-31.4203
7.47675
-48.1586
-73.3865
-37.8275
-44.1865
-40.6288
-39.2145
90.9669
-156.207
-56.9676
-34.9325
-32.2828
-34.3017
44.235
-72.625
-31.1166
-42.5456
90.6526
-56.9613
-34.7702
-34.1595
-72.7413
-42.5563
-30.1542
-42.1021
-36.35
-25.2736
-31.6718
-46.0798
-47.1751
-52.4191
-30.1524
-42.1066
-25.2587
-46.1031
-67.9922
-67.9724
-57.4634
-2.6567
187.256
-35.8591
-35.8761
-30.9698
-82.2491
-39.9575
-39.8439
-34.1
-39.5619
-22.9821
117.482
-48.7097
-93.1822
-34.3111
-34.4946
-40.6419
46.8063
55.2914
-43.2378
-36.2776
-32.6871
-46.281
-48.3474
117.595
-93.1575
-34.2187
-34.0345
-40.0251
55.1873
47.0549
-43.1496
-32.5573
-36.0801
-46.1706
-42.5308
-31.8614
-39.6096
-35.9649
-33.1579
-28.9682
-25.7526
-30.9333
-63.023
-44.901
-49.6509
-51.9141
-34.6053
-28.2832
-40.7603
-54.2992
-42.511
-35.978
-31.8641
-39.6422
-33.0129
-30.9024
-29.1381
-25.6387
-62.8854
-51.929
-44.9135
-49.6774
-34.5274
-53.4539
-28.1575
-40.7629
-78.6597
153.842
-88.1661
128.284
-66.6157
-56.6673
-46.7045
-29.9985
-35.0472
-23.302
-38.0406
-34.0208
-15.4166
127.007
-70.9233
-17.4605
-35.1516
-26.6145
-41.5453
-40.2925
-78.6243
153.492
-66.5768
-56.6786
-46.527
-29.7635
-37.8684
-33.9563
-70.8874
-17.4877
-41.4376
-40.278
-33.3781
-30.5682
-54.7243
-37.4958
-44.1397
-32.5791
-32.1549
-30.9038
-30.6968
-34.7732
-38.479
-70.2359
-16.4989
-88.2702
-68.1848
-45.6372
-33.3662
-30.5937
-54.704
-37.5005
-32.1574
-31.061
-38.507
-70.3262
-81.1707
-53.1031
-57.8459
-78.4707
-80.9825
-78.4529
-57.816
-53.0705
-89.9215
-89.9711
-43.5385
-43.5309
-17.9546
-21.7058
-21.7696
-18.053
140.942
149.609
149.651
141.014
-34.81
-30.1496
-34.2135
-41.1463
-34.7998
-41.164
-34.2082
-30.1328
-32.1523
-32.1457
-30.2038
-30.2168
-82.6388
-60.6107
-60.7155
-82.7657
-33.4055
-44.3137
-49.7725
-30.6887
-33.347
-30.6505
-49.6159
-44.1057
-32.5361
-32.4994
-36.5115
-36.6403
-45.1399
-36.5135
-36.4698
-45.1662
-29.688
-29.3944
-29.9333
-30.1194
102.786
12.8151
-157.654
-37.1638
-36.6584
-43.5882
21.4149
53.0423
-25.3753
-38.295
-35.6926
-43.5525
11.8321
102.363
-157.555
-36.4218
-36.8744
-43.9035
53.4076
21.159
-25.4127
-35.5264
-38.0928
-43.4152
-39.9268
-33.4491
-38.2204
-35.6768
-32.7887
-29.2589
-26.2545
-30.586
-56.3213
-47.0998
-50.6202
-72.8249
-37.7546
-32.521
-39.7227
-46.5837
-39.9359
-35.6825
-33.4379
-38.4943
-32.679
-30.5353
-28.937
-26.1202
-56.355
-73.0307
-47.1199
-50.6824
-37.6973
-46.7032
-32.4175
-39.7401
102.715
72.526
-95.5387
149.481
-134.262
-132.765
-109.932
116.036
-69.9581
-48.415
-64.586
-56.4483
-34.4881
-35.0511
-46.8858
-30.9202
-33.4846
-33.319
-34.3721
-28.3045
-36.611
-32.7056
-36.648
-34.1858
46.5391
47.1525
2.6118
87.6664
-61.0852
-71.1965
-77.5272
-41.6327
-31.4577
-31.3833
-33.1556
-28.3346
-46.1486
-37.958
-41.5926
-43.3234
102.739
72.1763
-95.2755
149.393
-69.9541
-48.4005
-64.5215
-56.4535
-34.2441
-34.8751
-46.6933
-30.6958
-36.3632
-32.7535
-36.4393
-34.0916
-61.078
-71.0678
-77.549
-41.7435
-46.0887
-37.8944
-41.5214
-43.3008
-30.8799
-29.5258
-31.0349
-30.2587
-40.6842
-43.3477
-47.6918
-38.8313
-36.2552
-36.266
-40.7897
-34.1035
-23.1921
-27.4421
-29.5652
-24.3865
-31.4409
-31.4268
-31.0056
-32.5296
-48.0305
-43.0234
-40.7234
-56.2855
-47.516
-47.5874
-31.1554
-67.856
-52.4357
-52.3338
-61.1263
-49.2257
-30.8857
-29.546
-31.0227
-30.2631
-40.6136
-43.3584
-47.6918
-38.8369
-23.3642
-27.2889
-29.5807
-23.8012
-48.0575
-43.0753
-40.7386
-56.3537
-72.9317
-67.1611
-69.0838
-60.0501
-73.0121
-67.1393
-69.0566
-60.016
-70.115
-57.3213
-57.3273
-49.3692
-25.5109
-4.75633
-4.80048
-4.34221
163.284
135.572
176.797
164.233
-34.7651
-36.6354
-34.5095
-37.0418
-34.7549
-36.6404
-34.486
-37.0783
-30.8589
-31.5609
-30.6887
-30.8829
-79.6404
-87.2779
-75.2158
-79.6606
-42.6948
-38.9239
-41.074
-37.1199
-42.5535
-38.8061
-40.9576
-37.0579
-34.6341
-33.9202
-33.8945
-33.5896
-37.1686
-39.4759
-39.4764
-42.3225
-25.5781
-23.0898
-26.0613
-25.1945
-128.363
146.718
-119.518
42.8209
-83.7318
-93.3946
-46.8576
-31.045
-40.1046
-31.6727
-44.1636
-38.3903
-56.8346
157.942
6.59266
89.6767
-62.2332
-23.065
-46.1293
-31.477
-34.5325
-30.716
-49.4553
-40.0069
-119.644
45.1932
-128.067
146.662
-83.6609
-93.4032
-39.8396
-31.2621
-46.7127
-30.9626
-43.8005
-38.2154
6.55685
89.704
-56.751
157.923
-62.0422
-23.0867
-34.4563
-30.5165
-45.9205
-31.2981
-49.326
-39.9463
-50.0832
-43.1746
-33.0002
-31.9045
-46.4633
-36.1475
-40.2904
-33.6554
-34.9943
-32.3588
-28.8524
-29.7193
-27.7308
-29.711
-30.4823
-31.8158
-60.2938
-42.3961
-50.1001
-42.5107
-43.987
-64.6085
-36.675
-67.037
-32.4657
-40.599
-31.0779
-24.6709
-35.8165
-51.2791
-57.2745
-48.8195
-50.0504
-43.1729
-40.2951
-33.6608
-32.9996
-31.9022
-46.4261
-36.1213
-34.8955
-32.3031
-30.4559
-31.7823
-28.8462
-29.71
-27.7
-29.6595
-60.2621
-42.3138
-36.372
-67.1746
-50.0919
-42.5277
-44.0093
-64.6439
-32.4338
-40.4426
-57.557
-48.8009
-31.0466
-24.5255
-35.8203
-51.3956
-81.951
-80.1225
154.085
180.015
-88.7038
-88.7653
160.24
159.934
-67.8992
-57.833
-69.5583
-48.6876
-45.668
-47.5158
-30.0756
-30.1372
-35.1521
-35.2218
-25.8785
-25.4908
-36.1638
-40.5422
-33.1805
-35.1144
-16.6568
-16.6528
132.047
132.269
-63.5848
-76.7497
-39.1844
-12.0602
-35.3993
-35.374
-27.704
-27.9324
-44.7122
-35.1822
-42.5479
-38.2028
-81.7904
-80.0686
179.918
154.07
-68.3332
-57.797
-69.5787
-48.6964
-47.3584
-45.4253
-29.9433
-29.9582
-36.1125
-40.4168
-33.1359
-35.0232
-76.8679
-63.5384
-12.0709
-39.0097
-35.1741
-44.5937
-38.1782
-42.5431
-34.0132
-32.2658
-31.163
-30.2578
-53.8323
-56.5416
-36.0308
-39.0423
-43.9655
-43.9604
-32.4524
-32.4437
-31.1091
-33.279
-32.2558
-30.3744
-30.565
-30.5721
-33.394
-33.3776
-36.407
-39.9219
-77.3809
-64.933
-17.5386
-17.495
-85.9441
-86.0754
-66.8945
-66.9231
-45.263
-45.2639
-34.0047
-32.2557
-31.1294
-30.2666
-56.5186
-53.8093
-36.0286
-39.0529
-33.2727
-31.1166
-32.3044
-30.3686
-39.9389
-36.3892
-65.1516
-77.3486
-143.947
-64.6131
-68.2614
-111.388
-41.7509
-47.1504
-59.3335
-55.3534
-52.5463
-67.1137
-61.9379
-48.6295
-39.1139
-78.7461
-71.5342
-77.7044
-144.055
-111.151
-68.3561
-64.8822
-39.1306
-77.8316
-71.5762
-78.6361
-52.5474
-48.6263
-61.9032
-67.0455
-41.5862
-55.3165
-59.2972
-47.2995
-132.006
-111.907
-69.947
-70.0632
-132.03
-70.0703
-69.9594
-112.048
-39.9185
-40.6731
-49.2374
-48.1239
-39.9143
-48.2779
-49.2318
-40.6697
0.913645
-39.1308
-29.452
1.07307
-70.4538
-32.5533
-6.1395
-34.0229
-69.7432
-34.3213
-6.12853
-32.4546
0.904184
1.08784
-29.4979
-39.1398
132.94
147.031
157.201
132.729
101.786
89.0954
195.733
151.137
101.537
151.282
195.966
89.086
132.994
133.153
157.033
146.952
-34.5079
-31.8014
-35.2379
-37.2759
-27.8574
-28.8975
-33.4551
-30.2966
-33.6909
-38.1062
-35.4091
-30.5773
-45.4677
-40.3992
-38.0445
-42.6003
-34.4719
-37.2744
-35.2348
-31.8208
-45.4994
-42.6225
-38.0555
-40.409
-33.678
-30.5716
-35.3721
-38.1134
-27.7617
-30.254
-33.446
-28.8903
-33.388
-33.9762
-31.4427
-30.8922
-33.3888
-30.8911
-31.4062
-33.9795
-29.9298
-30.8508
-30.58
-29.8734
-29.9968
-29.8561
-30.5712
-30.8623
-69.1464
-59.777
-85.7127
-67.2471
-48.9555
-60.5413
-73.4218
-53.3006
-49.0924
-53.3858
-73.4614
-60.5163
-69.2219
-66.7029
-85.7166
-59.8287
-35.2526
-34.4866
-36.8223
-28.6781
-46.6363
-46.8804
-41.7607
-39.4862
-45.6917
-47.0425
-44.1019
-47.6082
-30.7972
-24.0672
-36.9376
-36.6506
-35.1896
-28.1666
-36.7585
-34.5131
-30.7253
-36.5991
-36.955
-23.9462
-45.4975
-47.3961
-43.9751
-46.9436
-46.6369
-39.2486
-41.6323
-46.7279
-31.3791
-32.2599
-33.4361
-33.0584
-31.3244
-33.0074
-33.417
-32.244
-43.0599
-36.5307
-34.5366
-35.66
-43.3021
-35.7896
-34.5761
-36.8463
-44.1121
-41.6939
-42.1094
-49.0232
-37.866
-33.4947
-37.2341
-41.8198
-37.7731
-41.7881
-37.2253
-33.4503
-43.9487
-49.0071
-42.1144
-41.6383
-33.7612
-29.3919
-25.646
-30.8283
-33.5297
-30.6242
-25.2384
-29.1489
-31.913
-28.9223
-27.5068
-31.1492
-32.1053
-31.3145
-27.7663
-29.0742
52.9606
28.3447
-94.7807
-38.9821
-37.6602
-38.5528
20.5277
48.3808
-17.6285
-39.8702
-38.151
-41.6305
28.1559
53.2324
-93.8828
-37.3654
-38.779
-38.999
48.5946
20.4266
-17.7843
-37.9538
-39.6621
-41.5241
-38.1982
-34.4786
-36.5852
-35.6591
-31.324
-29.4857
-27.4443
-30.4672
-53.306
-49.1949
-50.6072
-60.0367
-38.3011
-35.387
-39.4484
-45.4762
-38.2173
-35.6643
-34.4731
-36.6068
-31.2971
-30.4218
-29.2125
-27.4014
-53.3388
-60.0566
-49.2214
-50.605
-38.2485
-45.5035
-35.3322
-39.4482
96.7292
83.0576
-42.5755
127.603
-160.295
-160.326
-131.404
-116.736
-62.7819
-52.0017
-63.8757
-56.4987
-34.8528
-34.9925
-40.0549
-31.9348
-32.5808
-32.5204
-32.9729
-30.1065
-35.1132
-33.3862
-35.607
-34.1948
45.9542
46.0453
24.3639
68.7488
-64.536
-72.139
-79.4284
-55.6081
-31.2465
-31.2094
-32.0996
-29.7857
-43.975
-40.0931
-42.0158
-43.8268
96.7962
82.9071
-44.3152
127.508
-62.7805
-51.9906
-63.8178
-56.4985
-34.6394
-34.6903
-39.8826
-31.7762
-34.8947
-33.4248
-35.4338
-34.081
-64.6453
-71.9856
-79.5345
-55.7392
-43.8874
-40.2875
-41.9427
-43.785
-30.499
-29.8007
-30.052
-30.1614
-41.3654
-42.6918
-45.0595
-40.2024
-36.33
-36.3338
-38.4968
-35.1385
-23.2334
-26.3888
-27.5229
-22.9567
-31.6484
-31.6412
-31.2849
-32.0516
-46.9344
-44.752
-43.1641
-51.7964
-46.7056
-46.8395
-39.146
-56.6455
-52.4029
-52.3809
-58.3407
-50.0807
-30.4946
-29.8095
-30.0327
-30.1578
-41.3772
-42.697
-45.0546
-40.2088
-23.3689
-26.2913
-27.5482
-22.7656
-46.9607
-44.7855
-43.1841
-51.8257
-71.6754
-67.5787
-68.862
-64.7222
-71.6596
-67.5584
-68.8385
-64.6883
-63.0135
-57.4942
-57.4977
-52.9801
-12.4881
-3.41713
-3.42894
-0.693738
165.312
133.698
205.331
164.797
-35.2355
-36.3977
-35.2491
-36.3961
-35.2376
-36.4038
-35.2256
-36.4234
-30.9549
-31.2293
-30.7845
-30.9607
-81.1347
-84.7983
-78.707
-81.2209
-41.1943
-39.4932
-40.2957
-39.0655
-41.0699
-39.3781
-40.1799
-38.9702
-34.3738
-34.2571
-34.2487
-33.8723
-38.2899
-39.4973
-39.4974
-40.7818
-23.2445
-22.726
-23.534
-22.9955
121.071
111.885
-85.8324
131.861
42.2983
-135.84
-154.336
144.658
-113.503
-80.0078
-89.2296
-94.2424
-35.6025
-33.8833
-40.5459
-31.3149
-36.1213
-34.1008
-37.3898
-32.827
-43.2316
-38.1639
-43.2356
-39.3154
33.3168
55.7168
-29.4676
122.847
57.6689
49.3564
19.5377
69.4682
-38.3269
-50.7317
-51.9999
-28.9775
-37.1248
-35.6051
-41.1671
-32.5302
-33.6788
-31.9748
-33.569
-31.4378
-44.1305
-46.1831
-47.2287
-42.6759
42.4074
-136.342
-154.564
140.816
121.224
111.919
-86.4727
131.996
-113.439
-79.9973
-89.1857
-94.2412
-35.8737
-33.8234
-37.0206
-32.5108
-35.3415
-33.6896
-40.4904
-31.2298
-42.4488
-37.8731
-42.6116
-39.0447
57.7008
48.709
19.7015
69.4484
33.7
55.6638
-29.7048
122.925
-38.2459
-50.6577
-51.8365
-29.0177
-33.5354
-31.8661
-33.4694
-31.2674
-36.9265
-35.3805
-40.9613
-32.3454
-44.0083
-46.0932
-47.1037
-42.5908
-41.0953
-45.2121
-46.78
-42.89
-32.5766
-31.3366
-31.9882
-31.8016
-38.6395
-40.071
-43.7163
-37.2374
-35.8389
-36.1022
-38.1714
-34.6218
-32.5341
-32.4286
-35.4563
-32.3987
-28.9776
-29.2635
-28.2721
-29.4191
-26.5336
-24.1345
-26.452
-27.219
-30.6968
-31.2185
-30.689
-31.3174
-60.039
-66.4463
-61.532
-69.8384
-45.8278
-43.9804
-47.4185
-43.4895
-50.1279
-48.6041
-46.0211
-56.9515
-60.2527
-48.7726
-44.8153
-59.3584
-36.6998
-36.4219
-33.4209
-37.3542
-29.8769
-28.2169
-29.6562
-26.8833
-40.0931
-42.5409
-37.6954
-47.5802
-49.6851
-52.5989
-57.0309
-52.0481
-41.0863
-45.1935
-46.7392
-42.885
-35.8465
-36.1226
-38.1792
-34.6299
-32.5759
-31.3447
-31.9904
-31.8016
-39.2862
-39.9771
-44.2123
-37.1817
-32.3558
-32.3136
-35.3751
-32.3271
-30.6551
-31.1963
-30.6591
-31.2854
-29.0461
-29.3088
-28.2869
-29.436
-26.4262
-24.0821
-26.3595
-27.0098
-60.0959
-66.2239
-61.4766
-69.119
-60.4375
-48.899
-44.7538
-59.3824
-45.8426
-43.9926
-47.4222
-43.5013
-50.1978
-48.6329
-46.045
-56.9805
-36.6458
-36.3587
-33.3603
-37.255
-50.5962
-52.4111
-58.1156
-50.7652
-29.7637
-28.085
-29.5812
-26.729
-40.0276
-42.5798
-37.6985
-47.649
-79.1964
-68.8077
-80.849
-78.7669
154.36
161.54
153.943
159.794
-97.8055
-78.4773
-88.2841
-88.3164
116.036
134.777
141.696
138.791
-66.3376
-66.9748
-71.8649
-62.6995
-56.4895
-56.9763
-62.2656
-52.1577
-47.6763
-45.1165
-46.1338
-47.0401
-30.6177
-27.5843
-29.8653
-29.6894
-35.6899
-34.8685
-35.1233
-35.1511
-24.7474
-23.2927
-24.0533
-23.793
-37.4431
-38.4083
-37.1936
-39.2159
-34.1094
-33.9296
-33.5579
-34.5081
-7.00027
-21.7899
-15.2181
-15.1982
106.732
145.699
128.804
128.618
-75.3772
-69.9868
-68.3565
-74.0913
-31.0841
-9.36053
-27.4045
-13.0628
-34.1251
-36.1414
-35.1315
-35.1195
-27.0631
-27.1174
-27.0151
-27.1493
-41.1895
-41.5801
-43.0116
-38.6971
-42.3109
-39.6298
-41.3378
-39.2229
-79.1178
-68.8732
-80.8009
-78.6979
154.561
161.156
159.888
153.776
-66.2896
-66.9441
-71.6958
-62.6615
-56.4989
-56.9861
-62.2792
-52.1685
-47.4653
-44.9467
-46.884
-45.9344
-30.3883
-27.2076
-29.6781
-29.3962
-37.222
-38.2699
-37.0459
-39.0987
-34.0221
-33.8814
-33.5048
-34.431
-75.3363
-69.9533
-74.0744
-68.3056
-31.1675
-9.4298
-13.1679
-27.3934
-41.1066
-41.4658
-38.6157
-42.9069
-42.442
-39.6205
-39.2052
-41.3282
-32.4723
-34.4432
-33.7019
-32.7897
-30.4146
-30.7083
-30.8298
-30.3566
-51.0999
-57.1138
-54.129
-55.6733
-37.9142
-37.0252
-36.7044
-38.238
-42.2361
-46.4562
-44.0835
-44.0808
-33.2547
-32.0171
-32.5379
-32.5333
-31.0817
-33.3213
-31.676
-32.6737
-28.4597
-34.2206
-31.7147
-30.5879
-30.8168
-30.6554
-30.6589
-30.6619
-33.3571
-34.4981
-34.7923
-34.7815
-39.4196
-37.766
-37.6006
-39.4091
-63.4044
-76.7438
-73.2884
-66.5728
-23.3125
-10.1874
-16.7545
-16.6924
-81.5
-89.3779
-87.7296
-87.7801
-64.7308
-71.7951
-67.9162
-67.8809
-47.4638
-43.9144
-45.5489
-45.5443
-32.4467
-34.4257
-33.6919
-32.783
-30.4023
-30.7549
-30.833
-30.3697
-51.1095
-57.083
-55.6521
-54.1074
-37.9191
-37.03
-36.7055
-38.2455
-31.0732
-33.3211
-32.6673
-31.6889
-28.4886
-34.3627
-31.8548
-30.6933
-39.436
-37.802
-39.4264
-37.5673
-63.4809
-76.7788
-66.6888
-73.3308
-88.1691
-80.7506
-82.4625
-64.8693
-52.5377
-49.9603
-54.5182
-53.6087
-58.6117
-53.9775
-59.9006
-57.1821
-63.5086
-71.3086
-80.6483
-77.9765
-88.0785
-80.6045
-82.2287
-64.4815
-63.4109
-71.189
-80.6078
-78.1308
-58.5775
-53.9683
-59.8579
-57.1557
-52.5148
-49.8971
-54.4845
-53.5815
-102.404
-91.4653
-89.1969
-78.8535
-102.488
-91.4908
-89.2574
-78.8849
-43.3233
-41.7335
-45.8517
-43.8107
-43.318
-41.7275
-45.8438
-43.8037
-9.92696
-20.752
-17.8164
-26.4855
-27.8096
-28.5532
-16.363
-18.4844
-28.0296
-28.4731
-16.2339
-18.4613
-9.92746
-20.8789
-17.8533
-26.5336
160.635
111.95
149.669
143.194
157.258
118.351
175.634
139.039
118.404
157.118
139.165
175.644
113.228
160.733
144.581
149.92
-34.24
-35.2889
-34.3217
-35.414
-29.8523
-29.1578
-31.209
-30.6672
-32.888
-34.6765
-33.8434
-35.3842
-41.789
-42.3669
-40.0372
-40.497
-34.2324
-35.2723
-34.3154
-35.4083
-41.8085
-42.3876
-40.0513
-40.5136
-32.871
-34.6744
-33.8376
-35.3852
-29.8045
-29.1662
-31.1897
-30.6642
-32.035
-32.8376
-31.6254
-32.3347
-32.8348
-32.0293
-32.3297
-31.6064
-30.315
-29.993
-30.4095
-30.2135
-30.0076
-30.3354
-30.2183
-30.4209
-79.5235
-74.3531
-80.0645
-83.6227
-55.0234
-58.8815
-62.734
-64.8572
-59.0495
-55.1865
-64.9041
-62.7101
-74.5886
-79.5156
-83.7509
-80.0021
-34.2664
-31.0319
-35.048
-32.8447
-47.4636
-44.2383
-45.0634
-42.6482
-50.896
-50.8228
-48.3516
-47.1126
-30.4482
-24.9483
-33.1239
-30.5734
-34.1724
-31.0299
-35.0144
-32.8181
-30.4266
-24.8596
-33.1952
-30.5027
-50.7098
-50.6807
-48.1945
-46.9737
-47.3082
-44.0359
-44.8257
-42.4438
-32.4157
-32.188
-32.8697
-32.7702
-32.3698
-32.153
-32.83
-32.7429
-37.5929
-37.3705
-35.8155
-35.7149
-37.748
-37.504
-35.9307
-35.823
-45.3481
-46.8141
-43.7883
-44.9284
-35.5725
-37.9214
-35.8762
-37.3566
-35.5175
-37.8735
-35.8365
-37.3186
-45.3661
-46.8281
-43.7852
-44.9287
-31.0924
-29.8737
-30.2237
-27.575
-29.5945
-30.8928
-27.1841
-30.0915
-29.9703
-30.6842
-28.8814
-30.1419
-30.8733
-30.1859
-30.3182
-29.1099
-42.8825
112.311
-132.08
102.803
-138.116
-142.241
-40.8863
-35.1816
-40.2992
-35.2773
-45.8598
-44.3944
-34.8442
89.9255
23.3398
78.7156
-31.5576
-3.41507
-42.5511
-33.6985
-36.4248
-33.6001
-44.9049
-40.4269
-128.726
102.051
-40.5474
112.399
-138.115
-142.247
-40.0611
-35.0458
-40.6893
-34.9497
-46.2565
-44.3123
23.3073
78.2861
-34.8553
89.8982
-31.6215
-3.35693
-36.3
-33.4094
-42.3403
-33.5003
-44.7386
-40.323
-39.6669
-39.9522
-33.6934
-33.3592
-41.2539
-35.895
-37.6563
-34.4058
-35.1615
-31.3945
-28.2775
-29.7087
-27.2595
-27.8203
-30.2425
-31.0474
-54.2711
-68.0903
-49.0226
-46.2182
-47.4858
-58.9574
-77.1509
-72.2477
-34.025
-43.0901
-32.7539
-31.5443
-35.8753
-46.5542
-48.3766
-45.5141
-39.6954
-39.9575
-37.662
-34.4092
-33.6545
-33.3574
-41.5941
-35.8305
-35.0835
-31.3207
-30.2164
-30.9982
-28.1178
-29.5618
-27.0874
-27.7353
-54.2858
-68.1788
-76.5225
-72.3624
-49.0327
-46.2341
-47.5328
-59.0604
-33.9646
-43.0447
-48.5779
-45.5045
-32.6681
-31.4674
-35.8599
-46.6448
-60.6537
131.624
-31.0702
120.904
-104.448
-87.6875
148.965
148.143
-133.96
-110.972
-133.987
-111.147
-111.757
-111.844
116.379
116.196
-69.5258
-70.3327
-53.6565
-48.1692
-72.1389
-59.4295
-62.2802
-51.8585
-40.8932
-31.9535
-40.5591
-32.1892
-46.8562
-47.2384
-30.7747
-31.0999
-35.5805
-31.5506
-35.5612
-31.3323
-34.5016
-34.5485
-28.7512
-28.6334
-38.0947
-36.1236
-32.7616
-32.9157
-36.1118
-37.8955
-33.5774
-34.8383
25.1887
66.8383
25.1549
66.7948
1.79968
1.7986
87.4379
87.4123
-73.9431
-41.5491
-70.7263
-60.0639
-72.8261
-80.1302
-41.5623
-39.1773
-32.386
-30.1726
-32.3281
-30.0753
-33.2533
-33.2318
-28.4414
-28.5259
-46.4046
-43.9048
-36.7139
-41.7472
-44.2993
-38.6704
-43.4356
-42.3584
-61.4337
131.528
-31.517
120.947
-104.175
-87.5186
148.15
148.755
-69.7762
-70.3354
-53.6212
-48.1644
-72.2137
-59.3731
-62.287
-51.8618
-40.6838
-31.8433
-40.351
-32.0101
-47.0357
-46.6467
-30.5238
-30.9308
-37.7928
-35.9446
-32.7519
-32.8884
-35.9243
-37.7259
-33.508
-34.7198
-73.9558
-41.5597
-70.6412
-60.5799
-80.2787
-72.7052
-39.2762
-41.5352
-46.3324
-43.8681
-36.6611
-41.6672
-38.6026
-44.2283
-42.3358
-43.4063
-31.1057
-30.8268
-29.7487
-29.6741
-32.5076
-31.0585
-30.5345
-29.9876
-44.2681
-38.5929
-46.0382
-41.6525
-47.3217
-48.1443
-38.0019
-39.5609
-38.4137
-34.9658
-38.42
-34.971
-40.7535
-40.7519
-34.0811
-34.0816
-26.8064
-21.5396
-28.9074
-26.0351
-29.2256
-30.078
-26.3151
-22.3698
-31.1076
-31.8024
-31.0946
-31.7874
-30.9678
-30.9734
-32.4599
-32.4524
-44.8763
-53.8578
-40.1362
-49.4684
-39.5196
-41.7344
-57.8649
-54.8596
-39.8111
-56.4538
-39.7788
-56.5047
-31.6469
-31.6469
-68.2302
-68.1369
-59.2821
-50.1378
-58.4967
-50.054
-61.1025
-61.1033
-49.1672
-49.1464
-31.1353
-30.8277
-29.8069
-29.6713
-32.4856
-30.9779
-30.5364
-29.9933
-44.2424
-38.6084
-46.0356
-41.6607
-48.1476
-47.3251
-38.0056
-39.5684
-26.8863
-21.3789
-28.838
-25.758
-30.0928
-29.2226
-25.1579
-22.2885
-44.9006
-53.8903
-40.1666
-49.5326
-41.7552
-39.5285
-54.9361
-57.9192
-70.5355
-72.3291
-72.6861
-63.9736
-66.5217
-72.091
-59.6165
-61.0582
-70.604
-72.3868
-72.6461
-63.9423
-72.0665
-66.4822
-61.0241
-59.5813
-70.0625
-70.07
-62.8983
-52.6924
-62.9056
-52.6982
-49.3768
-49.3736
-26.0366
-26.0551
-15.9486
-3.39017
-3.42798
-15.9791
-4.77175
-4.76279
153.563
196.385
145.464
145.09
182.812
184.274
196.593
152.732