# vtk DataFile Version 2.0
tri_press
ASCII
DATASET UNSTRUCTURED_GRID
POINTS 3682 float
-0.801716 0.075 -2.015
-0.715 0.035 1.96953
-0.715 0.581883 -1.905
-0.748622 0.915 1.725
0.801719 0.075 -2.015
0.734376 0.035 1.965
0.715 0.581883 -1.905
0.739662 0.915 1.725
-0.782819 0.0516579 -0.686824
-0.74408 0.0481586 0.641353
-0.834977 0.801691 -0.695
-0.818997 0.885543 0.515
0.789249 0.0516885 -0.688334
0.756799 0.0483585 0.638333
0.82717 0.796871 -0.695
0.810537 0.883057 0.515
-1.60664 -0.341482 -3.01793
-1.59642 -0.280561 -2.00292
-1.57485 -0.298506 -0.671794
-1.52501 -0.337529 0.683153
-1.48379 -0.357796 2.01628
-1.47767 -0.343662 3.0411
-1.48161 -0.312999 4.04771
-1.60161 -0.020903 -3.00516
-1.5956 0.066092 -2.00305
-1.58644 0.0777672 -0.694727
-1.52966 0.0665603 0.624341
-1.47849 0.0570234 1.93493
-1.47617 0.071852 2.95814
-1.4837 0.100457 3.96857
-1.56884 0.576849 -2.94664
-1.55168 0.660226 -1.93979
-1.61836 0.816886 -0.712001
-1.58653 0.889899 0.507552
-1.5169 0.916458 1.73771
-1.50343 0.92671 2.7665
-1.50468 0.943946 3.79638
-1.55584 1.63442 -2.94694
-1.55433 1.73844 -1.95761
-1.58503 1.91585 -0.768059
-1.60161 2.06206 0.396241
-1.58648 2.14075 1.58725
-1.56773 2.1711 2.57964
-1.55371 2.19066 3.59669
-0.820056 -0.337541 -3.02575
-0.802885 -0.272505 -2.01434
-0.785423 -0.310002 -0.670867
-0.753445 -0.35331 0.697157
-0.727469 -0.376569 2.04123
-0.721216 -0.357949 3.05779
-0.722 -0.323097 4.05705
-0.820943 -0.0260479 -3.00768
-0.719261 0.0595672 2.97196
-0.724228 0.091732 3.9755
-0.790406 0.542331 -2.93226
-0.742484 0.922882 2.76366
-0.742752 0.93987 3.79529
-0.766155 1.60888 -2.93278
-0.757251 1.71347 -1.94199
-0.787489 1.90581 -0.758776
-0.81564 2.0637 0.394761
-0.812964 2.14465 1.57866
-0.797969 2.17365 2.571
-0.784637 2.19164 3.59024
0.761504 -0.338192 -3.02609
0.791508 -0.27285 -2.01477
0.785568 -0.310246 -0.672291
0.762361 -0.353361 0.694518
0.750475 -0.37665 2.03768
0.76905 -0.358168 3.05501
0.785209 -0.323486 4.0549
0.748376 -0.026596 -3.00787
0.763977 0.0594002 2.96927
0.780616 0.091361 3.97347
0.731789 0.541615 -2.93239
0.756547 0.92261 2.7624
0.769713 0.939403 3.79379
0.796765 1.60725 -2.9331
0.81501 1.71149 -1.9423
0.808463 1.90343 -0.759143
0.77199 2.06178 0.394279
0.744639 2.14341 1.57801
0.74458 2.1727 2.57014
0.753449 2.19078 3.58918
1.55566 -0.343189 -3.01876
1.58438 -0.282126 -2.00398
1.57941 -0.29994 -0.674214
1.54064 -0.338297 0.678936
1.51312 -0.358235 2.01087
1.52496 -0.344277 3.03628
1.54319 -0.313885 4.04366
1.54558 -0.0226107 -3.00574
1.58685 0.0642352 -2.00365
1.5916 0.0756451 -0.696766
1.54412 0.0655914 0.620454
1.50233 0.0567251 1.92969
1.51758 0.0713101 2.95357
1.53761 0.0995923 3.96473
1.52733 0.574708 -2.94705
1.5493 0.657383 -1.94006
1.61607 0.811403 -0.712739
1.58099 0.886707 0.506123
1.51269 0.915576 1.73571
1.51523 0.925895 2.76377
1.53022 0.942885 3.7934
1.57911 1.63112 -2.94766
1.59768 1.73457 -1.95831
1.59991 1.91144 -0.768923
1.56567 2.05842 0.395111
1.52965 2.13827 1.58578
1.52138 2.16915 2.5778
1.52603 2.18888 3.59453
-0.719607 0.328442 -1.92125
1.49012e-06 0.113777 -1.97622
-0.785308 0.0702883 -1.35091
-0.776974 0.475 1.89243
0.00968802 0.0408781 1.96139
-0.753962 0.017157 1.30544
0 0.662095 -1.98521
-0.813539 0.730337 -1.3
-0.00448 1.01029 1.82029
-0.807379 0.923841 1.12
0.719458 0.328442 -1.9211
0.795844 0.0629849 -1.35167
0.789371 0.475 1.89735
0.746635 0.0406318 1.30167
0.815014 0.733306 -1.3
0.798772 0.922701 1.12
-0.76269 0.0506682 -0.0227351
-0.859193 0.426675 -0.690912
0.00321499 0.0674145 -0.687579
-0.856006 0.466851 0.578177
0.00635924 0.0677164 0.639843
-0.829743 0.846374 -0.09
-0.00390351 1.13392 -0.695
-0.00423011 1.43821 0.515
0.772235 0.0508126 -0.025
0.850263 0.42428 -0.691667
0.845625 0.465708 0.576667
0.821676 0.842786 -0.09
-0.861615 0.377558 -1.32546
0.86462 0.376361 -1.32583
0.00160824 0.0822286 -1.35129
-0.00195175 0.92403 -1.3
7.45058e-07 0.328442 -1.85618
-0.861936 0.446763 -0.0563675
0.852753 0.444994 -0.0575
0.00478711 0.0680107 -0.0238675
-0.00406681 1.40127 -0.09
-0.859213 0.470926 1.21272
0.86627 0.470354 1.21083
0.00802363 0.105372 1.30355
-0.00435506 1.40666 1.12
0.00260401 0.475 1.99993
-0.748404 0.201721 -1.95587
-0.400857 0.0876313 -2.00237
-0.793593 0.0725637 -1.68296
-0.739625 0.255 1.92462
-0.352656 0.0369484 1.96645
-0.708542 0.052018 1.63749
-0.745346 0.455162 -1.94117
-0.3575 0.604233 -1.92735
-0.782183 0.674024 -1.6025
-0.752331 0.695 1.79825
-0.376551 0.99228 1.80228
-0.798475 0.939895 1.4225
0.40086 0.0876599 -2.00234
0.748361 0.201721 -1.95582
0.802869 0.0649045 -1.68333
0.372032 0.0361113 1.96502
0.75502 0.255 1.92432
0.727322 0.0509993 1.63333
0.3575 0.596837 -1.91995
0.745516 0.455162 -1.94134
0.782496 0.675084 -1.6025
0.367591 0.994534 1.80453
0.746126 0.695 1.79279
0.789683 0.939316 1.4225
-0.785624 0.0594125 -1.01887
-0.771993 0.0519244 -0.354779
-0.869677 0.214831 -0.688868
-0.38494 0.0692606 -0.687201
-0.738441 0.0432383 0.973398
-0.753389 0.0494097 0.309309
-0.858063 0.228495 0.609765
-0.365943 0.0637726 0.640598
-0.825164 0.766921 -0.9975
-0.864376 0.622828 -0.692956
-0.834007 0.82568 -0.3925
-0.484153 1.09723 -0.695
-0.813053 0.904557 0.8175
-0.857797 0.686345 0.546588
-0.824474 0.866063 0.2125
-0.533916 1.40648 0.515
0.790365 0.0595187 -1.02
0.391086 0.0698431 -0.687956
0.781606 0.0503863 -0.356667
0.860564 0.21758 -0.69
0.754126 0.0420859 0.97
0.38017 0.0608546 0.639088
0.764516 0.0495859 0.306667
0.849552 0.232863 0.6075
0.827266 0.771262 -0.9975
0.477457 1.09704 -0.695
0.855902 0.619168 -0.693333
0.825987 0.821392 -0.3925
0.804665 0.90289 0.8175
0.526018 1.40636 0.515
0.848972 0.684827 0.545833
0.816336 0.863151 0.2125
-0.857948 0.353 -1.62335
-0.359803 0.328442 -1.85686
0.000804865 0.0823287 -1.66376
1.11759e-06 0.221109 -1.85556
-0.866195 0.223923 -1.33818
-0.39185 0.0817971 -1.3511
-0.843392 0.472963 1.55257
-0.387185 0.475 2.00892
0.00885582 0.0799425 1.63247
0.00614601 0.257939 1.94974
-0.861027 0.244041 1.25908
-0.372969 0.0679531 1.3045
-0.000975877 0.836459 -1.64261
3.72529e-07 0.495268 -2.10123
-0.865546 0.553948 -1.31273
-0.407745 0.909476 -1.3
-0.00441753 1.29052 1.47015
-0.000937998 0.742646 1.91272
-0.856 0.697383 1.16636
-0.405867 1.39475 1.12
0.858022 0.352401 -1.62347
0.359729 0.328442 -1.85696
0.874601 0.219673 -1.33875
0.398726 0.0817788 -1.35148
0.859923 0.472677 1.55409
0.395987 0.475 2.00909
0.865855 0.255493 1.25625
0.377329 0.0637722 1.30261
0.875361 0.554834 -1.31292
0.406531 0.908777 -1.3
0.865234 0.696527 1.16542
0.397209 1.39477 1.12
-0.866921 0.221411 -0.0395513
-0.375429 0.0663832 -0.0233013
-0.867181 0.402116 -1.00818
-0.86054 0.436719 -0.37364
0.00241161 0.0750436 -1.01943
0.00400105 0.0680965 -0.355723
-0.856914 0.456807 0.260905
-0.856837 0.468888 0.895449
0.00557318 0.0678725 0.307988
0.00719143 0.0549036 0.971699
-0.863914 0.655606 -0.0731837
-0.539447 1.36891 -0.09
-0.00292763 0.972158 -0.9975
-0.00398516 1.30286 -0.3925
-0.00414846 1.43156 0.2125
-0.00429259 1.4291 0.8175
0.857591 0.225355 -0.04125
0.385081 0.0662715 -0.0244338
0.872637 0.40032 -1.00875
0.851319 0.434637 -0.374583
0.84786 0.455351 0.259583
0.864876 0.468031 0.89375
0.855366 0.652966 -0.07375
0.532111 1.36864 -0.09
-0.842749 0.212822 -1.65315
-0.866452 0.231545 -1.01353
-0.865834 0.584065 -1.00284
-0.852981 0.504555 -1.61293
0.8441 0.210697 -1.6534
0.852501 0.504998 -1.61298
0.875388 0.582704 -1.00313
0.873799 0.228828 -1.01438
-0.396354 0.0835825 -1.67336
0.399793 0.0836667 -1.67354
0.397479 0.0755171 -1.01972
-0.390826 0.0756111 -1.01915
-0.382623 0.831641 -1.62255
-0.413593 0.947008 -0.9975
0.409082 0.946799 -0.9975
0.382016 0.831067 -1.62255
-0.38033 0.211415 -1.85465
-0.358651 0.475215 -2.07532
0.358615 0.475215 -2.0752
0.380295 0.211415 -1.85494
-0.868316 0.218113 -0.364209
-0.865645 0.223377 0.285107
-0.859926 0.67051 0.236702
-0.863882 0.639085 -0.38307
0.85905 0.221481 -0.365625
0.855406 0.635953 -0.383542
0.851311 0.668468 0.236042
0.856214 0.227787 0.283125
-0.380147 0.067897 -0.355251
0.388025 0.0681748 -0.356195
0.382109 0.0645957 0.307327
-0.370669 0.0651128 0.308649
-0.52072 1.25091 -0.3925
-0.543119 1.40057 0.2125
0.535302 1.39998 0.2125
0.513632 1.25054 -0.3925
-0.860786 0.250773 0.934423
-0.868434 0.249521 1.59503
-0.839196 0.696192 1.48754
-0.86246 0.68679 0.856474
0.869136 0.256263 0.931875
0.853426 0.685455 0.855625
0.845575 0.695764 1.4883
0.857928 0.255246 1.59371
-0.370915 0.0514009 0.972548
0.379454 0.0531611 0.970849
0.374681 0.0726819 1.6329
-0.362813 0.0726447 1.63498
-0.40874 1.41489 0.8175
-0.391209 1.28066 1.44632
0.3824 1.28069 1.44632
0.400181 1.41488 0.8175
-0.369921 0.25647 1.92558
0.38401 0.25647 2.00157
0.381789 0.718823 1.88889
-0.381868 0.718823 1.88979
-0.761745 0.13836 -1.97212
-0.601287 0.0719802 -2.01802
-0.804375 0.0670617 -1.84898
-0.725131 0.145 1.94489
-0.533828 0.105545 1.89842
-0.722675 0.032605 1.80351
-0.721228 0.518523 -1.91414
-0.53625 0.586282 -1.9094
-0.744878 0.62424 -1.75375
-0.755183 0.805 1.76633
-0.562587 0.972758 1.78276
-0.779628 0.933527 1.57375
0.60129 0.071971 -2.01803
0.760407 0.13836 -1.97078
0.806372 0.0658746 -1.84917
0.553204 0.0316765 1.96889
0.742097 0.145 1.94206
0.740678 0.0331702 1.79917
0.53625 0.585945 -1.90906
0.721228 0.518523 -1.91414
0.737492 0.617228 -1.75375
0.553626 0.972819 1.78282
0.748133 0.805 1.76413
0.770773 0.933259 1.57375
-0.784397 0.05536 -0.852846
-0.77828 0.0509179 -0.520801
-0.873643 0.109547 -0.687846
-0.585122 0.0579744 -0.687012
-0.739749 0.0472098 0.807375
-0.748733 0.0487852 0.475331
-0.868791 0.104467 0.625559
-0.549452 0.0670854 0.640976
-0.833953 0.788189 -0.84625
-0.85221 0.713527 -0.693978
-0.835712 0.814905 -0.54375
-0.698944 1.02822 -0.695
-0.816347 0.895373 0.66625
-0.839867 0.786679 0.530794
-0.819915 0.873983 0.36375
-0.689651 1.1724 0.515
0.789988 0.0554224 -0.854167
0.593074 0.0549528 -0.688145
0.785455 0.0510109 -0.5225
0.864001 0.115087 -0.689167
0.753225 0.0474597 0.804167
0.569111 0.0533524 0.638711
0.760661 0.0489691 0.4725
0.859154 0.112621 0.622917
0.826613 0.783462 -0.84625
[...]
POINT_DATA 3682
SCALARS point_scalars float 1
LOOKUP_TABLE default
-16.9896
-57.3406
-14.0525
-51.228
-15.9682
-50.4704
-18.0539
-49.3425
-42.1684
-37.3601
-66.599
-53.2178
-42.4704
-36.5713
-65.4678
-52.077
-10.1052
-121.878
-44.1461
-39.9809
-57.8634
-58.3617
-44.4916
-10.1052
-123.326
-44.3876
-39.4062
-59.0699
-58.3617
-44.4916
-10.1052
-110.707
-61.9627
-48.8528
-53.9815
-45.1681
-43.8284
-0.850601
-60.0889
-100.946
-71.5511
-60.1769
-49.2113
-46.0919
86.6546
-178.257
-42.1628
-36.9817
-53.9966
-44.4916
-42.8383
86.6546
-44.4916
-44.4916
140.955
-43.7273
-44.4628
47.668
-41.5388
-53.3926
-74.2716
-60.1013
-46.9578
-45.1802
86.6702
-184.114
-42.168
-37.2571
-50.7109
-41.0382
-39.1076
86.6702
-41.0382
-39.1076
141.386
-41.0498
-42.8102
43.5462
-53.8588
-57.8665
-75.5571
-58.2038
-45.8879
-44.714
-8.87229
-118.832
-44.5911
-35.885
-57.9629
-50.7109
-41.0382
-8.87229
-118.832
-53.0004
-38.0477
-58.4416
-47.3009
-41.0382
-8.87229
-114.182
-61.6748
-47.2873
-51.9906
-43.3956
-40.5016
-11.107
-59.4325
-99.3277
-69.9269
-59.7312
-48.2963
-45.0045
19.568
-142.555
-52.1325
-47.7053
-44.952
-44.6525
78.1451
-63.849
-45.1646
-52.3115
21.3371
-54.3123
-44.3215
-38.9047
-65.696
-52.225
-38.584
-51.7692
-45.2326
-44.3329
-39.297
-60.8888
16.7425
-80.9013
-37.8038
-52.688
-41.2516
-59.3393
-65.1487
-66.988
-63.2489
-13.3998
198.115
-46.3442
-44.5926
-40.3531
-107.862
-49.4338
-48.4188
-37.7936
-61.162
-37.6894
9.92632
-166.185
-75.8789
-46.7858
-46.9439
-45.7141
-12.0739
58.3569
-76.9626
-48.2999
-45.2955
-57.6053
-163.08
10.9952
-77.2181
-45.8812
-42.9307
-37.6502
58.6196
-9.29706
-75.7588
-44.9646
-45.5658
-56.8514
-43.0609
-40.2383
-48.8118
-44.3295
-32.168
-37.8612
-41.7683
-38.9296
-54.2862
-56.9038
-64.3845
1.2508
-52.2516
-47.599
-57.3158
-71.4135
-44.1582
-44.1857
-39.2037
-48.8638
-38.6459
-38.6643
-37.0837
-38.3452
-57.9469
1.14056
-55.9432
-62.7415
-51.0842
-71.5382
-45.595
-56.1881
-96.0332
197.282
-88.5376
198.1
-63.298
-60.2596
-51.0623
-40.9422
-35.6729
-35.6048
-48.2699
-39.2432
-33.8622
195.356
-68.5611
-21.8626
-48.8834
-43.5035
-50.5669
-61.4052
-94.3761
197.292
-65.6489
-60.3345
-52.7381
-37.3952
-46.6381
-37.6721
-70.8917
-22.7183
-51.0996
-61.0899
-43.4436
-39.9703
-53.4259
-47.4445
-50.5672
-42.2969
-45.6592
-45.7524
-39.4164
-40.68
-52.4942
-107.685
12.6895
-44.044
-93.6238
-70.4031
-41.9609
-39.4777
-55.0995
-45.7283
-43.7813
-43.7676
-50.7948
-108.319
-98.8694
-51.1552
-56.0802
-91.1087
-98.2279
-90.1261
-58.6192
-53.1432
-82.669
-83.5593
-48.6523
-48.4923
-39.2492
0.712783
-0.380363
-39.8728
197.465
186.314
185.519
197.486
-44.7745
-42.7262
-51.0184
-54.3165
-42.9265
-52.5553
-49.5138
-40.9056
-41.5605
-41.2722
-38.6287
-38.9596
-47.3914
-82.3629
-81.7475
-48.6508
-44.5008
-54.5063
-54.4283
-49.0851
-44.5074
-45.6915
-54.4501
-52.7097
-41.134
-39.8355
-35.0856
-36.9776
-67.7482
-50.9578
-50.6016
-67.3521
-40.1954
-34.083
-42.3012
-43.6193
28.6096
-179.107
-113.739
-48.5861
-49.9631
-51.4667
-21.9225
34.6508
-61.4839
-49.9744
-45.931
-55.0612
-178.116
28.9894
-112.311
-47.9033
-44.5331
-48.8608
30.1796
-22.7008
-61.019
-45.119
-47.5825
-53.356
-41.1043
-41.3009
-45.1914
-43.2583
-38.3282
-37.787
-39.4957
-37.9572
-60.2962
-61.7585
-66.5139
-45.7384
-52.6302
-50.2739
-54.207
-61.5453
-40.9026
-43.2521
-40.5013
-46.615
-39.6429
-38.0066
-37.0232
-38.2863
-62.2493
-46.6123
-60.1652
-65.1706
-51.3438
-60.6292
-48.5717
-52.7886
13.9343
6.05532
-143.471
149.504
-174.607
-174.238
-110.568
105.536
-61.2125
-47.8735
-60.5575
-56.687
-47.0245
-47.1175
-55.4022
-42.7809
-45.2563
-45.3158
-44.1533
-35.9026
-46.5973
-43.1755
-48.4549
-43.3103
67.247
65.1651
-31.0782
79.1897
-67.6605
-56.873
-67.6816
-32.3011
-45.2429
-45.101
-45.6527
-45.0218
-55.1774
-52.2729
-51.0325
-60.8598
15.541
9.70148
-141.674
149.92
-61.6253
-48.4402
-62.2828
-57.0155
-43.054
-44.7034
-49.8258
-38.5332
-40.6517
-38.521
-45.1554
-37.8906
-69.4326
-59.1582
-69.6161
-33.6863
-54.8623
-51.3776
-51.3353
-60.5574
-39.4013
-38.13
-40.8996
-39.6843
-50.2962
-53.434
-54.2259
-48.5038
-44.834
-44.6687
-47.2279
-43.6569
-41.519
-45.9038
-44.3002
-44.8609
-39.6035
-39.3869
-39.2008
-38.9637
-62.3618
-58.1279
-56.056
-79.3706
13.6457
13.6791
21.3584
-5.95113
-79.2519
-79.0639
-86.3786
-75.2331
-38.2286
-37.3719
-40.2058
-38.7925
-50.7517
-53.9359
-55.6598
-47.0759
-38.4214
-43.3903
-42.0231
-41.222
-60.6995
-57.0736
-54.5354
-78.0618
-74.7275
-64.2914
-66.5822
-57.8254
-75.4091
-66.0638
-68.7815
-59.795
-73.0251
-62.3846
-62.4475
-55.9124
-23.7738
-15.3559
-15.6731
-4.92338
197.126
198.146
201.869
197.152
-44.2852
-46.868
-46.2093
-48.9169
-42.7692
-45.0663
-44.4269
-47.1894
-40.3615
-41.1696
-39.8367
-40.1125
-105.264
-103.909
-101.598
-104.64
-51.1688
-48.5552
-49.8707
-47.154
-50.7388
-47.4757
-49.6676
-46.0481
-37.5142
-38.4216
-37.5684
-38.1787
-55.9914
-61.2823
-61.1152
-65.3934
-39.0527
-35.9878
-44.2205
-36.9053
-145.047
136.73
-109.346
145.373
-96.8309
-77.6408
-56.1486
-42.3405
-45.3476
-40.8858
-55.3984
-41.0515
-107.492
114.279
-43.9225
111.655
-82.3241
-46.8412
-54.103
-43.6996
-46.6152
-44.4857
-54.7648
-54.7993
-109.138
123.197
-144.022
137.19
-96.8977
-77.7118
-44.8075
-34.5721
-50.8549
-36.3847
-50.8879
-34.6996
-46.5463
107.639
-106.278
114.301
-82.5084
-46.7179
-46.0422
-43.9055
-52.2443
-41.3798
-55.2775
-54.2715
-49.2897
-46.4683
-42.8035
-40.9972
-52.2109
-45.6733
-45.9069
-42.7333
-43.7733
-39.1744
-40.5765
-38.3649
-42.1406
-42.1072
-38.7731
-38.8373
-56.0221
-21.049
-56.4165
-55.244
-58.656
-99.6615
8.00997
-19.2394
-50.2213
-60.1886
-48.0578
-47.7105
-53.6824
-66.7324
-76.2306
-68.6441
-50.9342
-46.6676
-46.0129
-42.5611
-41.6785
-40.364
-54.5191
-44.3559
-42.6843
-40.0165
-38.4254
-38.4149
-39.3494
-37.9979
-39.9296
-36.8863
-58.9222
-22.4359
7.73329
-20.0319
-60.1803
-53.6331
-57.0509
-97.8439
-48.4801
-59.4787
-75.5007
-68.3791
-46.4101
-45.2347
-51.7981
-65.6577
-96.8263
-96.6815
197.394
197.21
-87.1631
-87.2879
197.202
197.217
-73.7455
-55.8708
-69.478
-53.469
-53.222
-53.552
-39.6358
-44.0758
-36.2619
-37.829
-37.8232
-33.4614
-45.9421
-49.624
-38.6539
-39.2455
-36.8785
-36.8827
199.74
199.552
-60.366
-76.9273
-29.9261
-12.2668
-49.6065
-49.3548
-43.1095
-43.6687
-53.7927
-47.3203
-64.8314
-58.1884
-95.8339
-95.2028
197.208
197.419
-73.711
-57.9055
-69.4098
-53.6972
-54.537
-52.2013
-33.6219
-42.8992
-44.2761
-48.6271
-37.9044
-37.558
-76.4528
-62.6632
-13.3423
-29.8061
-46.1097
-54.1191
-57.967
-64.4556
-44.0884
-43.1692
-40.6601
-39.2947
-52.1661
-54.6438
-45.3301
-50.2491
-50.2459
-50.1774
-42.1422
-41.9567
-43.6405
-48.0397
-44.9875
-47.5746
-39.1982
-39.2556
-40.8038
-39.7609
-51.3983
-53.3018
-95.0693
-91.3107
9.19294
9.01415
-39.6857
-39.9453
-92.1594
-91.916
-69.6979
-69.5411
-42.3376
-41.5548
-40.2465
-38.9433
-56.6365
-53.8432
-43.8559
-48.4959
-46.2672
-41.854
-44.5704
-44.2022
-51.6462
-49.8258
-90.7434
-95.3213
-127.564
-70.6992
-75.1963
-148.612
-46.4845
-53.4349
-56.8914
-53.6571
-59.6911
-60.2308
-58.9991
-54.9417
-85.9639
-136.191
-74.9884
-72.3748
-127.203
-147.934
-75.8576
-70.061
-84.1274
-73.1212
-75.4775
-135.112
-62.4452
-57.5725
-61.1898
-62.9871
-49.7979
-55.2451
-58.7587
-54.9875
-105.317
-115.66
-72.0225
-64.9162
-105.011
-65.0667
-72.0826
-115.618
-44.4732
-46.8976
-55.3427
-50.8501
-44.383
-50.596
-55.275
-46.8701
-22.8736
-38.8909
-25.0116
-29.173
-22.6415
18.2985
-5.7694
-26.2554
-24.5922
-28.2557
-6.00597
18.1833
-20.5911
-29.4018
-25.1646
-39.4795
104.282
143.38
197.183
62.4518
58.9937
112.525
198.145
138.078
60.5913
138.429
198.136
114.872
104.446
60.7446
197.202
143.736
-43.8455
-42.6836
-44.7642
-46.2005
-40.2554
-42.6379
-43.9979
-40.9934
-50.7806
-54.3786
-48.5308
-46.1209
-60.0153
-51.4199
-49.5465
-57.212
-43.3046
-45.2914
-43.201
-41.0495
-58.3984
-55.5251
-47.7417
-49.8718
-49.165
-44.0812
-46.8075
-53.1315
-38.9087
-40.1396
-42.4236
-40.4724
-42.0065
-43.5015
-41.0975
-40.1219
-41.7052
-39.449
-40.9015
-43.3447
-37.8851
-39.0062
-39.5655
-38.296
-38.0774
-38.5516
-39.6612
-39.124
-87.4147
-89.2235
-103.008
-5.43608
-66.2651
-84.7372
-98.9017
-72.073
-65.4085
-70.8924
-98.6648
-84.4964
-88.1511
-5.41129
-102.425
-87.5099
-40.7873
-45.3206
-46.4602
-45.0582
-58.3612
-55.7717
-49.7427
-49.8438
-54.3069
-53.9764
-52.6814
-54.7339
-50.0936
-46.307
-47.2205
-50.7157
-38.7637
-40.0783
-45.5407
-42.6074
-48.3327
-49.422
-46.2484
-43.1675
-52.4009
-51.1994
-52.5726
-54.5724
-54.946
-48.345
-49.5081
-50.7395
-38.8254
-38.8375
-38.2776
-38.735
-37.8196
-38.1972
-37.9329
-38.6424
-46.352
-43.6667
-37.431
-38.6105
-47.727
-40.8561
-38.6222
-44.2073
-59.5043
-63.0587
-65.36
-74.0793
-48.9633
-46.0521
-56.4898
-60.289
-48.2792
-59.5178
-56.2977
-45.7107
-58.7297
-73.8791
-65.1847
-61.5709
-45.143
-39.7641
-37.5674
-42.1706
-38.9141
-36.6668
-34.534
-34.8099
-42.6787
-44.6432
-43.7811
-42.2806
-44.2652
-44.2688
-44.2832
-44.8064
3.2008
-128.702
-147.522
-53.0998
-51.8426
-50.1
-18.6262
16.7881
-47.3433
-51.1346
-47.316
-52.6225
-127.808
4.46167
-143.827
-49.7536
-47.6362
-46.7155
3.77219
-24.4857
-25.3921
-46.1512
-48.6448
-51.2114
-43.1982
-41.6522
-42.8188
-42.5774
-37.8209
-37.3785
-37.4276
-37.8354
-68.3305
-64.2313
-66.4091
-77.3726
-52.9349
-51.4233
-53.7551
-57.4588
-43.7742
-42.6005
-40.9411
-43.9718
-37.8663
-37.8025
-36.9268
-36.4877
-66.1528
-78.0151
-62.3695
-65.2004
-51.7113
-56.3246
-50.1018
-52.6269
16.0549
18.0983
-123.758
67.0694
-153.394
-153.312
-124.416
47.5679
-56.4928
-49.1145
-57.2692
-54.3443
-47.2581
-47.5843
-50.9494
-43.5359
-45.7202
-44.8517
-42.2817
-40.4102
-45.099
-44.0556
-47.4795
-43.5193
78.118
77.832
2.44472
78.6892
-69.661
-59.601
-66.8707
-47.7335
-45.2121
-45.1517
-45.1019
-45.5463
-53.5462
-52.045
-50.8019
-57.2066
17.828
20.8381
-118.522
67.7649
-57.2482
-51.4567
-58.8405
-55.3209
-43.6029
-44.6536
-47.0839
-39.7547
-40.0753
-38.73
-42.0372
-38.1156
-71.7303
-61.9549
-69.2628
-49.0562
-53.3721
-51.491
-51.313
-56.6403
-38.7966
-38.2998
-38.9347
-39.1421
-51.1087
-52.3575
-55.3942
-49.112
-44.8758
-44.8289
-46.2213
-44.6177
-43.3783
-45.1079
-44.0105
-44.8146
-39.5017
-39.217
-39.2041
-39.0386
-61.6547
-59.6321
-58.3634
-68.9284
15.9269
15.8167
21.2167
9.02166
-80.5035
-80.4011
-83.683
-77.7459
-37.9615
-37.4555
-38.4359
-38.4834
-51.2206
-53.263
-58.9998
-48.1869
-40.1501
-42.3309
-41.4915
-41.4392
-60.0444
-58.0999
-56.6603
-67.8058
-68.7516
-64.5945
-65.8339
-60.9223
-70.5689
-66.4184
-67.7794
-62.8808
-67.7165
-62.8733
-62.9134
-59.3272
-19.1563
-13.7809
-13.9248
-9.43048
197.816
198.116
199.278
197.825
-45.201
-46.5701
-46.1909
-47.4539
-43.4624
-44.8069
-44.4425
-45.7225
-40.3297
-40.8251
-40.0454
-40.2082
-107.365
-111.286
-105.244
-106.906
-51.1679
-49.0672
-49.5783
-48.1022
-49.6013
-47.8741
-49.0166
-47.4958
-37.5085
-37.803
-37.7061
-37.9683
-58.6898
-61.2259
-61.1405
-63.3853
-38.214
-36.7646
-43.8622
-37.0115
14.2939
7.48379
-91.5037
85.4061
-181.704
-173.002
-137.049
39.2388
-91.186
-67.8638
-92.9802
-75.3997
-47.2967
-46.9182
-51.4297
-43.6075
-50.2621
-42.9571
-43.6499
-42.8383
-44.2724
-52.7441
-52.8034
-43.3483
-20.1114
4.39034
-75.3757
69.9207
50.1577
54.3387
17.2481
63.1859
-84.0839
-70.3078
-81.2736
-56.5565
-48.6612
-47.5911
-52.8448
-44.6816
-45.3932
-45.2798
-45.6508
-45.0273
-56.2287
-56.894
-56.1049
-56.2049
-177.364
-172.366
-135.353
32.4357
15.1752
8.81674
-90.2821
85.7701
-89.9084
-68.9805
-92.0473
-75.3169
-46.1079
-44.9803
-43.7808
-38.2374
-43.2783
-42.8944
-48.2733
-39.0059
-41.523
-42.3789
-44.5176
-35.5899
52.9314
53.7696
19.0499
62.3997
-19.2584
8.17055
-74.7551
69.9953
-79.1577
-72.0551
-80.3732
-56.0226
-44.7954
-45.0375
-45.0897
-44.769
-46.3105
-44.836
-49.7131
-42.1299
-55.2045
-56.3845
-55.6591
-55.6566
-42.6835
-44.6896
-45.6286
-45.0114
-40.9726
-39.9143
-41.0849
-40.4395
-47.4614
-49.8424
-52.3696
-46.6057
-44.0529
-44.7841
-45.3317
-43.4624
-35.5099
-35.4038
-40.5601
-33.3319
-37.8312
-38.1174
-38.3167
-38.2613
-41.2839
-40.5744
-42.0772
-43.8077
-38.1826
-39.8386
-38.7274
-38.6592
-55.2172
-55.2129
-56.085
-34.2862
-59.0266
-54.8362
-57.2671
-55.7668
-65.367
-63.2694
-61.3906
-78.2363
-15.1784
9.59147
7.10972
-8.13204
-52.4277
-52.2747
-50.9323
-56.2724
-48.8926
-46.7001
-47.5749
-47.4686
-55.6084
-57.3767
-55.3697
-60.7448
-66.0678
-76.7211
-74.5226
-71.8728
-43.9431
-45.4541
-47.7536
-45.4741
-44.0303
-44.4322
-45.319
-43.2728
-39.7991
-39.0579
-39.9746
-39.853
-48.1159
-50.2064
-54.3358
-45.7137
-37.1186
-38.2677
-39.8836
-39.4157
-38.0897
-39.4348
-38.2712
-38.5956
-37.0807
-37.253
-37.4562
-37.5593
-38.5879
-37.3446
-39.5416
-39.6549
-60.5551
-57.9031
-59.2576
-38.8831
-15.529
9.47092
7.23111
-8.7445
-57.9133
-54.5517
-58.9584
-54.2031
-63.6997
-61.682
-59.4347
-76.7258
-51.138
-51.2445
-49.5071
-55.4573
-65.3699
-76.5255
-73.8165
-71.2395
-47.1463
-44.4071
-45.8152
-45.109
-54.1903
-56.2562
-54.0572
-59.5151
-111.676
-84.9688
-96.308
-96.507
200.046
197.1
197.343
197.249
-101.339
-79.801
-87.8361
-87.8833
198.494
198.153
197.771
197.78
-62.3775
-63.9371
-67.4195
-59.1256
-58.7798
-61.5997
-64.5424
-56.3734
-54.5726
-51.3417
-52.461
-51.9456
-41.5852
-40.5346
-40.1075
-44.2025
-41.0135
-36.8932
-36.1788
-37.2026
-35.7022
-34.9746
-36.4661
-34.5094
-48.074
-48.4461
-46.925
-49.775
-40.9472
-38.7365
-38.9529
-39.2687
-34.3371
-27.819
-34.6677
-34.734
157.562
204.635
196.752
196.308
-68.6975
-67.5698
-64.3715
-73.2892
-26.5658
-18.3231
-26.8963
-16.9697
-46.9648
-53.1766
-49.2037
-49.0697
-44.0675
-43.5394
-43.1912
-43.4829
-51.2671
-50.1125
-51.7161
-49.3843
-61.4217
-61.2975
-63.0822
-59.9208
-110.469
-84.1647
-94.9467
-94.9217
201.766
197.113
197.248
197.365
-64.5397
-65.7742
-69.4211
-61.3541
-58.8782
-61.7203
-64.5773
-56.5182
-52.3478
-52.0296
-53.6656
-52.437
-37.4207
-37.6767
-35.1303
-43.2086
-45.8619
-47.1623
-45.7349
-47.4608
-37.692
-37.6297
-37.8131
-37.6575
-70.4365
-69.988
-74.0939
-66.9878
-27.8131
-18.8993
-17.9124
-27.6635
-51.9446
-50.2374
-48.5478
-51.934
-60.8459
-61.0288
-59.5995
-62.7363
-42.7521
-44.3165
-43.6902
-43.291
-39.6399
-40.5057
-40.33
-39.5131
-51.6141
-55.2447
-52.7719
-54.0624
-47.8496
-47.1893
-46.2309
-48.6943
-48.6999
-52.7289
-50.5709
-50.5467
-42.9295
-41.6891
-42.2734
-42.1759
-44.7101
-46.4148
-44.6072
-46.6364
-45.1613
-46.1556
-45.1563
-46.6329
-39.3357
-39.5857
-39.4211
-39.3444
-38.5832
-40.4846
-40.537
-39.7773
-54.1746
-50.6715
-51.9527
-52.898
-98.5125
-104.906
-105.688
-96.3539
17.7963
4.07912
11.5183
11.4454
-21.8095
-74.7251
-42.8744
-42.8746
-90.1794
-96.9332
-93.3655
-93.2475
-72.8633
-67.8649
-70.2684
-70.1604
-41.3185
-42.8102
-42.1432
-41.776
-39.3526
-39.7869
-39.8368
-39.1842
-52.8104
-57.105
-55.8265
-54.4791
-46.2622
-45.3583
-44.548
-47.0301
-42.6073
-44.584
-44.794
-42.6457
-41.4235
-45.4053
-44.4454
-43.8069
-52.595
-48.9428
-51.2249
-50.3241
-98.6012
-105.002
-95.5398
-103.314
-115.724
-97.0744
-97.1407
-84.4269
-50.5141
-49.0346
-53.1609
-51.6634
-56.2318
-55.7697
-57.4967
-55.3973
-98.9133
-83.1267
-95.1925
-85.2837
-115.181
-97.2662
-96.4806
-83.857
-98.6852
-83.2281
-93.9972
-83.8949
-58.9144
-58.8639
-59.7185
-57.9327
-52.6431
-50.5495
-55.2204
-53.3707
-94.5765
-80.3409
-85.5356
-75.288
-93.7258
-80.6378
-85.8178
-75.1268
-47.7616
-47.1019
-50.4948
-49.5367
-47.6444
-46.9764
-50.6262
-49.4474
-44.2275
-40.5629
-38.5159
-32.599
-7.50844
5.37155
-6.96675
5.5594
-8.70284
5.20833
-8.26802
4.686
-44.9255
-42.0458
-38.5025
-32.7432
188.685
197.919
197.456
197.216
160.889
156.208
197.196
191.75
153.964
159.395
191.498
197.196
197.937
187.719
197.229
197.477
-44.1758
-45.1404
-44.4715
-45.3892
-41.8449
-42.4165
-42.982
-43.6118
-49.2796
-52.4325
-49.598
-51.6483
-54.7606
-56.2801
-52.2211
-53.8558
-42.2643
-43.506
-42.6369
-43.9009
-53.0466
-54.7922
-50.4082
-52.1296
-47.7476
-50.8328
-47.9423
-50.0368
-40.274
-40.4276
-41.3387
-41.8041
-41.3257
-42.099
-41.0153
-41.9648
-41.8619
-40.8723
-41.5272
-40.7077
-38.5628
-38.3496
-38.9509
-38.7089
-38.7286
-38.8507
-39.0782
-39.2098
-80.8316
-31.426
-65.2296
-37.0694
-73.9487
-79.1964
-86.1401
-88.5555
-78.5826
-72.9782
-88.1388
-86.0173
-31.6307
-83.5656
-38.7244
-65.8034
-43.9074
-41.8452
-44.9984
-44.8919
-60.6558
-54.1889
-53.8884
-46.4195
-53.8969
-54.5969
-54.4881
-54.7432
-49.4362
-48.0064
-48.5051
-48.4946
-43.9364
-38.6227
-43.992
-44.7247
-47.2734
-45.4395
-46.1548
-44.7758
-53.8463
-54.6864
-54.3586
-55.2671
-52.4748
-52.7839
-52.1706
-50.8728
-40.4236
-38.5641
-40.1746
-41.7514
-40.4055
-38.2737
-39.2504
-40.4399
-38.6819
-34.8978
-35.6195
-37.4892
-40.0767
-38.6234
-38.2189
-39.5388
-65.6117
-69.047
-66.3839
-68.8938
-48.1971
-52.2404
-50.2519
-55.2884
-47.7308
-51.7705
-49.922
-54.9517
-65.7893
-68.7953
-65.9709
-68.6565
-40.8777
-40.1352
-39.8879
-38.8424
-33.9625
-35.6189
-33.371
-33.1906
-42.8399
-41.7406
-42.7324
-42.4627
-43.5522
-43.894
-43.7764
-43.6211
-101.304
99.2769
-144.33
54.192
-123.709
-106.03
-53.4535
-45.1149
-48.2737
-48.8409
-57.7162
-47.132
-72.6789
49.1776
20.2233
35.2451
-81.1603
-40.1636
-54.3424
-45.4791
-47.1453
-45.0308
-54.495
-52.525
-144.044
54.445
-98.6601
101.722
-123.512
-105.037
-45.2035
-43.449
-51.0662
-40.3945
-55.4662
-47.3093
17.3522
34.4478
-64.3734
48.4504
-79.8621
-31.7708
-46.4189
-44.0733
-51.5383
-43.604
-52.791
-51.7152
-41.9776
-43.5034
-42.0713
-41.698
-48.5817
-44.6073
-44.1147
-42.4848
-40.5953
-37.6152
-37.9827
-38.056
-39.8413
-39.9594
-37.9043
-37.613
-61.2129
-47.7815
-62.4761
-60.6977
-63.0612
-92.9471
-26.6762
-65.6178
-51.0749
-55.8751
-50.5426
-50.2088
-52.3102
-61.6625
-63.8091
-60.4946
-43.6791
-43.9007
-43.8949
-42.4006
-41.28
-41.2502
-50.1942
-44.102
-40.8038
-37.678
-37.8356
-38.1314
-37.0145
-37.6558
-38.3906
-37.8422
-62.8325
-49.0472
-27.7318
-66.0588
-62.3249
-59.1066
-61.0252
-90.6483
-49.683
-54.7784
-63.0472
-59.6256
-48.9334
-48.4592
-50.8169
-60.3184
-126.956
69.5018
-101.724
65.3368
-148.102
-142.849
148.43
144.512
-138.573
44.9338
-137.75
42.2085
-113.857
-113.82
126.048
126.384
-67.7667
-62.5012
-50.5969
-49.0443
-64.2872
-56.8159
-60.6422
-53.4685
-51.0983
-43.2848
-51.3309
-44.8765
-55.6322
-55.2455
-42.1571
-44.1617
-43.56
-41.8056
-42.9664
-38.1707
-43.8968
-43.4493
-37.1677
-35.3626
-49.5411
-40.795
-44.3263
-41.6425
-46.8116
-49.4768
-38.7226
-44.0903
3.90758
59.8384
4.75226
59.3441
-31.407
-31.7816
91.8956
92.0462
-71.1667
-47.6073
-59.8902
-42.7008
-63.5423
-70.917
-35.2333
-28.28
-45.2826
-45.439
-45.0165
-45.3148
-45.868
-45.6702
-44.9199
-45.0251
-54.124
-59.159
-51.298
-56.0073
-52.7576
-50.3656
-61.4107
-61.1563
-124.93
72.5015
-97.1085
66.1423
-147.216
-142.665
144.96
148.69
-67.3698
-63.0067
-52.2043
-49.4679
-64.3093
-58.7252
-60.9282
-53.7527
-46.8921
-38.5879
-48.1531
-42.6661
-50.468
-50.2156
-36.9837
-42.338
-45.5776
-38.7715
-40.1879
-38.2181
-44.3768
-46.3767
-38.2809
-38.071
-73.0516
-48.3702
-62.0011
-45.288
-72.0108
-66.1784
-29.8261
-36.5113
-54.6045
-58.3701
-50.4434
-55.3467
-49.5252
-53.3981
-60.458
-61.1676
-40.7564
-39.7242
-38.8042
-38.321
-41.3178
-41.144
-40.0271
-39.0074
-55.5218
-47.073
-55.3669
-52.074
-53.7337
-54.7728
-47.1495
-49.9413
-45.6083
-44.3568
-45.5781
-44.2793
-47.1283
-47.1689
-43.6096
-43.5062
-42.0242
-41.8272
-45.8813
-46.0804
-43.3697
-45.1213
-44.578
-45.6288
-39.1167
-39.1767
-39.0112
-39.0777
-39.0522
-39.1968
-38.8999
-38.791
-59.4801
-73.4231
-55.896
-65.0016
-56.5203
-56.5957
-83.673
-75.4426
17.9458
5.47785
18.0657
5.58949
20.5231
20.5175
-5.11745
-4.96264
-81.9856
-76.4671
-81.7891
-76.2421
-86.0142
-85.8995
-74.9821
-74.8797
-38.9295
-38.933
-37.9919
-37.8755
-40.8202
-40.3356
-39.0985
-38.4337
-57.8336
-46.9386
-58.1296
-50.6805
-57.0649
-54.7678
-45.9501
-48.5135
-39.7187
-38.3476
-43.6478
-43.3011
-42.9693
-41.214
-39.9641
-42.2867
-57.6927
-72.0765
-54.6961
-63.6911
-54.9269
-54.5816
-74.1241
-82.2889
-74.8132
-74.787
-68.4445
-60.0412
-62.2239
-69.7092
-57.2642
-58.4432
-75.447
-75.3593
-70.0268
-61.8806
-71.9432
-64.5174
-60.4634
-59.2454
-72.4212
-72.4738
-66.7461
-58.5423
-66.8174
-58.6135
-55.6953
-55.6594
-24.1978
-24.27
-20.5364
-10.9915
-11.2983
-20.76
-4.71672
-4.80637
197.164
196.524
197.819
197.831
201.854
201.851
196.523
197.187