# vtk DataFile Version 2.0
tet_velo
ASCII
DATASET UNSTRUCTURED_GRID
POINTS 29498 float
-0.670288 0.195 -2.255
-0.765 0.345 2.22782
-0.685 0.465 -2.27055
-0.735 0.865 2.1193
0.670217 0.195 -2.255
0.765 0.345 2.22713
0.685 0.465 -2.27024
0.735 0.865 2.1193
-0.821446 0.125413 -0.760727
-0.85228 0.176149 0.733547
-0.842595 0.739262 -0.807267
-0.81862 0.831954 0.656017
0.820914 0.125897 -0.760957
0.852262 0.176144 0.733087
0.842587 0.739253 -0.80706
0.81862 0.831954 0.65612
-1.47644 -0.164153 -3.41267
-1.48477 -0.0943086 -2.22972
-1.59684 -0.131034 -0.734653
-1.64384 -0.109477 0.766676
-1.59974 0.0169487 2.26227
-1.58284 0.108296 3.4478
-1.58558 0.183355 4.62855
-1.4682 0.0657388 -3.4315
-1.47417 0.17295 -2.25195
-1.6153 0.160235 -0.762886
-1.64709 0.186512 0.729
-1.5721 0.307456 2.21866
-1.56433 0.396625 3.40376
-1.57641 0.47114 4.58551
-1.47513 0.456067 -3.46052
-1.48681 0.561544 -2.27976
-1.62729 0.742232 -0.811821
-1.62672 0.815629 0.653958
-1.54879 0.869529 2.12251
-1.55208 0.955704 3.309
-1.57133 1.03838 4.49582
-1.51526 1.2127 -3.5272
-1.5324 1.3417 -2.35102
-1.58802 1.54382 -0.893168
-1.61736 1.69031 0.558052
-1.60712 1.77326 2.01628
-1.59771 1.83568 3.19325
-1.59663 1.90566 4.37671
-0.71677 -0.153427 -3.41465
-0.692871 -0.0788762 -2.23265
-0.788268 -0.147896 -0.734318
-0.838007 -0.118382 0.770474
-0.806692 0.0361674 2.26896
-0.793609 0.122026 3.45231
-0.796241 0.190445 4.63112
-0.715373 0.0657324 -3.43208
-0.778517 0.411155 3.40749
-0.789569 0.478047 4.58744
-0.720433 0.417666 -3.45664
-0.769204 0.95818 3.30832
-0.786753 1.04111 4.49561
-0.737125 1.18763 -3.52338
-0.740415 1.3186 -2.34682
-0.784844 1.54011 -0.89064
-0.817844 1.69646 0.55774
-0.816342 1.77612 2.01409
-0.809289 1.8365 3.19105
-0.80763 1.90631 4.37509
0.736396 -0.153357 -3.41464
0.754259 -0.0787657 -2.2327
0.828793 -0.14757 -0.734523
0.829243 -0.118317 0.770081
0.772602 0.036181 2.26843
0.773065 0.122046 3.4519
0.777071 0.190475 4.63081
0.706339 0.0657709 -3.43202
0.768148 0.411168 3.40709
0.774872 0.478072 4.58714
0.71101 0.417689 -3.45648
0.757941 0.958191 3.30814
0.770201 1.04114 4.49541
0.792735 1.18768 -3.52328
0.813283 1.31864 -2.34671
0.817837 1.54015 -0.890561
0.790882 1.6965 0.557758
0.767061 1.77615 2.01405
0.76452 1.83653 3.19097
0.76767 1.90635 4.37497
1.48666 -0.16399 -3.41265
1.51003 -0.094066 -2.22978
1.61554 -0.130578 -0.734951
1.64326 -0.109299 0.766077
1.58723 0.0170011 2.26147
1.57014 0.10835 3.4471
1.57009 0.183423 4.62798
1.45415 0.0658528 -3.4314
1.46182 0.173098 -2.2519
1.60944 0.160708 -0.763098
1.65113 0.186654 0.728458
1.57876 0.307482 2.21788
1.56127 0.396664 3.40309
1.56515 0.471198 4.58497
1.46024 0.456139 -3.46027
1.47392 0.561595 -2.27944
1.61958 0.742393 -0.811668
1.62852 0.815722 0.653879
1.55449 0.869551 2.12225
1.54761 0.955738 3.30862
1.55791 1.03843 4.49542
1.55874 1.21281 -3.52702
1.5854 1.34179 -2.35083
1.61113 1.54392 -0.893049
1.59647 1.6904 0.558057
1.5679 1.77333 2.01618
1.5591 1.83575 3.19307
1.55982 1.90574 4.37646
-0.695706 0.33 -2.28084
-3.55244e-05 0.253984 -2.19602
-0.818768 0.0873057 -1.50786
-0.736193 0.605 2.15975
0 0.286166 2.28631
-0.865688 0.203526 1.48068
0 0.511835 -2.31723
-0.841913 0.680246 -1.53891
0 0.919443 2.17374
-0.79177 0.863437 1.38766
0.695581 0.33 -2.28059
0.819036 0.086978 -1.50798
0.735976 0.605 2.15919
0.86566 0.203543 1.48011
0.841895 0.680229 -1.53865
0.7917 0.863367 1.38771
-0.829702 0.157942 -0.0135901
-0.889961 0.432337 -0.783997
-0.000265864 0.124258 -0.760842
-0.895315 0.504052 0.694782
-9.01235e-06 0.144963 0.733317
-0.831096 0.786096 -0.0756251
-4.24103e-06 0.867003 -0.807164
0 1.26741 0.656068
0.829671 0.157937 -0.0139351
0.889742 0.432575 -0.784009
0.895212 0.504049 0.694603
0.830969 0.785969 -0.0754701
-0.876165 0.381169 -1.52339
-0.892907 0.468194 -0.0446076
-0.887044 0.554526 1.43417
-0.000150694 0.0812209 -1.50792
-0.000137438 0.13462 -0.0137626
-4.50617e-06 0.174021 1.4804
-1.77622e-05 0.33 -2.39565
0 0.605 2.27176
-2.12051e-06 0.770726 -1.53878
-2.12051e-06 1.25065 -0.0755476
0 1.11716 1.38768
0.876234 0.381288 -1.52331
0.89289 0.468312 -0.0447026
0.887049 0.554524 1.43391
-1.07223 0.183975 -2.25348
-0.681579 0.0580619 -2.24383
-0.69283 0.130366 -2.84354
-1.16855 0.326228 2.22324
-0.785846 0.190584 2.24839
-0.771759 0.378078 2.81765
-1.08591 0.513272 -2.27515
-0.702717 0.441333 -2.86359
-0.712707 0.8918 -2.30869
-1.14189 0.867265 2.1209
-0.752102 0.91159 2.71381
-0.775671 1.32056 2.0667
0.712238 0.0581171 -2.24385
0.688278 0.130385 -2.84351
1.06602 0.184049 -2.25345
0.768801 0.19059 2.24778
0.766574 0.378084 2.81711
1.17188 0.326241 2.22251
0.698005 0.441345 -2.86336
0.749142 0.891821 -2.30847
1.07946 0.513297 -2.27484
0.746471 0.911595 2.71372
0.751031 1.32058 2.06668
1.14474 0.867275 2.12077
-1.21837 0.142824 -0.761806
-0.804857 -0.0112416 -0.747523
-1.24968 0.181331 0.731273
-0.845143 0.0288839 0.752011
-1.23494 0.740747 -0.809544
-0.813719 1.13969 -0.848954
-1.22267 0.823791 0.654987
-0.818232 1.26421 0.606878
0.824854 -0.0108363 -0.74774
1.21518 0.143303 -0.762028
0.840752 0.0289135 0.751584
1.2517 0.181399 0.730773
0.830212 1.1397 -0.848811
1.23108 0.740823 -0.809364
0.804751 1.26423 0.606939
1.22357 0.823838 0.655
-1.48061 -0.129231 -2.8212
-1.47232 -0.049207 -3.42209
-1.0966 -0.15879 -3.41366
-1.54081 -0.112671 -1.48219
-1.47947 0.0393208 -2.24084
-1.08882 -0.0865924 -2.23119
-1.62034 -0.120255 0.0160115
-1.60607 0.0146007 -0.748769
-1.19256 -0.139465 -0.734486
-1.62179 -0.0462641 1.51447
-1.64546 0.0385178 0.747838
-1.24092 -0.113929 0.768575
-1.59129 0.0626224 2.85504
-1.58592 0.162203 2.24047
-1.20322 0.0265581 2.26562
-1.58421 0.145826 4.03817
-1.57358 0.252461 3.42578
-1.18823 0.115161 3.45005
-1.581 0.327248 4.60703
-1.19091 0.1869 4.62983
-1.47118 0.119344 -2.84173
-1.47167 0.260903 -3.44601
-1.09179 0.0657356 -3.43179
-1.54473 0.166593 -1.50742
-1.48049 0.367247 -2.26585
-1.63119 0.173374 -0.0169427
-1.6213 0.451234 -0.787353
-1.60959 0.246984 1.47383
-1.6369 0.501071 0.691479
-1.56821 0.352041 2.81121
-1.56045 0.588493 2.17059
-1.57037 0.433882 3.99464
-1.55821 0.676164 3.35638
-1.17142 0.40389 3.40562
-1.57387 0.754758 4.54067
-1.18299 0.474593 4.58647
-1.48097 0.508805 -2.87014
-1.4952 0.834385 -3.49386
-1.09778 0.436866 -3.45858
-1.55705 0.651888 -1.54579
-1.5096 0.95162 -2.31539
-1.62701 0.778931 -0.0789317
-1.60766 1.14303 -0.852495
-1.58776 0.842579 1.38823
-1.62204 1.25297 0.606005
-1.55044 0.912616 2.71576
-1.57796 1.32139 2.0694
-1.56171 0.997039 3.90241
-1.5749 1.39569 3.25113
-1.16064 0.956942 3.30866
-1.58398 1.47202 4.43626
-1.17904 1.03974 4.49572
-1.52383 1.2772 -2.93911
-1.12619 1.20017 -3.52529
-1.56021 1.44276 -1.62209
-1.13641 1.33015 -2.34892
-1.60269 1.61707 -0.167558
-1.18643 1.54197 -0.891904
-1.61224 1.73178 1.28717
-1.2176 1.69339 0.557896
-1.60241 1.80447 2.60477
-1.21173 1.77469 2.01519
-1.59717 1.87067 3.78498
-1.2035 1.83609 3.19215
-1.20213 1.90599 4.3759
-0.70482 -0.116151 -2.82365
-0.716071 -0.0438472 -3.42337
0.00981298 -0.153392 -3.41465
-0.740569 -0.113386 -1.48349
0.0306939 -0.0788209 -2.23267
-0.813137 -0.133139 0.018078
0.0202626 -0.147733 -0.734421
-0.822349 -0.0411071 1.51972
-0.0043817 -0.118349 0.770278
-0.800151 0.0790965 2.86064
-0.0170451 0.0361742 2.2687
-0.794925 0.156235 4.04171
-0.786063 0.26659 3.4299
-0.0102723 0.122036 3.4521
-0.792905 0.334246 4.60928
-0.00958506 0.19046 4.63096
-0.717903 0.241699 -3.44436
-0.00451668 0.0657517 -3.43205
-0.784043 0.444601 3.99746
-0.77386 0.684667 3.35791
-0.00518449 0.411161 3.40729
-0.788161 0.75958 4.54152
-0.00734838 0.47806 4.58729
-0.728779 0.802649 -3.49001
-0.00471164 0.417678 -3.45656
-0.777978 0.999646 3.90197
-0.789246 1.39734 3.24969
-0.00563105 0.958185 3.30823
-0.797191 1.47371 4.43535
-0.00827568 1.04112 4.49551
-0.73877 1.25312 -2.9351
0.0278051 1.18765 -3.52333
-0.762629 1.42936 -1.61873
0.0364342 1.31862 -2.34676
-0.801344 1.61829 -0.16645
0.0164967 1.54013 -0.890601
-0.817093 1.73629 1.28592
-0.0134813 1.69648 0.557749
-0.812815 1.80631 2.60257
-0.0246406 1.77614 2.01407
-0.808459 1.87141 3.78307
-0.0223845 1.83652 3.19101
-0.0199796 1.90633 4.37503
0.745327 -0.116061 -2.82367
0.721368 -0.043793 -3.42333
1.11153 -0.158674 -3.41365
0.791526 -0.113168 -1.48361
1.13215 -0.0864158 -2.23124
0.829018 -0.132943 0.017779
1.22216 -0.139074 -0.734737
0.800923 -0.0410679 1.51926
1.23625 -0.113808 0.768079
0.772834 0.0791135 2.86016
1.17992 0.026591 2.26495
0.775068 0.156261 4.04135
0.770607 0.266607 3.42949
1.1716 0.115198 3.4495
0.775971 0.334274 4.60898
1.17358 0.186949 4.62939
0.708675 0.24173 -3.44425
1.08024 0.0658119 -3.43171
0.77151 0.44462 3.99711
0.763045 0.684679 3.35762
1.16471 0.403916 3.40509
0.772537 0.759604 4.54128
1.17001 0.474635 4.58606
0.751872 0.802683 -3.48988
1.08562 0.436914 -3.45837
0.764071 0.999663 3.90178
0.761231 1.39736 3.24956
1.15278 0.956965 3.30838
0.768936 1.47374 4.43519
1.16405 1.03978 4.49541
0.803009 1.25316 -2.93499
1.17574 1.20024 -3.52515
0.81556 1.4294 -1.61863
1.19934 1.33022 -2.34877
0.804359 1.61833 -0.166401
1.21448 1.54204 -0.891805
0.778971 1.73633 1.2859
1.19368 1.69345 0.557908
0.76579 1.80634 2.60251
1.16748 1.77474 2.01511
0.766095 1.87144 3.78297
1.16181 1.83614 3.19202
1.16375 1.90604 4.37571
1.49835 -0.129028 -2.82122
1.47041 -0.0490687 -3.42203
1.56279 -0.112322 -1.48237
1.48593 0.0395159 -2.24084
1.6294 -0.119939 0.0155627
1.61249 0.015065 -0.749025
1.61525 -0.0461489 1.51377
1.6472 0.0386777 0.747268
1.57869 0.0626757 2.85429
1.58299 0.162242 2.23968
1.57012 0.145887 4.03754
1.56571 0.252507 3.4251
1.56762 0.327311 4.60647
1.45799 0.119475 -2.84165
1.45719 0.260996 -3.44584
1.53563 0.166903 -1.5075
1.46787 0.367346 -2.26567
1.63028 0.173681 -0.01732
1.61451 0.451551 -0.787383
1.61495 0.247068 1.47317
1.63982 0.501188 0.691169
1.57001 0.352073 2.81049
1.56662 0.588517 2.17006
1.56321 0.433931 3.99403
1.55444 0.676201 3.35586
1.56153 0.754814 4.54019
1.46708 0.508867 -2.86986
1.50949 0.834472 -3.49365
1.54675 0.651994 -1.54555
1.52966 0.951694 -2.31513
1.62405 0.779058 -0.0788942
[...]
POINT_DATA 29498
VECTORS point_vectors float
-3.52053 -4.04628 7.61661
0.193696 0.139781 0.497406
-3.32193 0.984009 3.8511
-0.132933 -0.448929 0.544312
3.5848 -4.08677 7.68228
-0.195084 0.134072 0.489649
3.30202 0.988712 3.86325
0.134356 -0.44874 0.538681
0.0756954 0.00236441 0.62237
0.0179855 -0.0112751 0.699882
-0.241685 -0.235677 0.597613
0 0 0
-0.0735185 0.00403608 0.600767
-0.0181115 -0.0114508 0.703387
0.238752 -0.234313 0.594176
0 0 0
-0.502536 -0.208376 19.8012
-1.33017 -0.63799 20.3423
-0.444307 -0.45076 21.3022
0.113491 -0.228564 21.5038
0.741782 0.00996017 21.3575
0.94553 0.0429616 21.1795
0.938571 -0.358674 20.8668
-0.557243 -0.124093 19.7458
-1.67739 -0.477195 20.2111
-0.621816 -0.510319 21.312
0.0623395 -0.307795 21.5136
0.842089 -0.206701 21.4584
1.10866 -0.317283 21.1905
1.12076 -0.537047 21.087
-0.543916 -0.00190845 19.7068
-1.69823 0.0730352 20.0881
-1.15425 -0.34022 21.1988
-0.311829 -0.397171 21.6043
0.495404 -0.536186 21.4826
0.805881 -0.649126 21.0025
0.661878 -0.409397 21.0353
-0.409776 0.198083 19.8308
-0.972604 0.53547 20.0776
-1.04119 0.400738 20.9023
-0.49116 0.0168836 21.4455
0.0160322 -0.320521 21.2911
0.259961 -0.494077 21.0281
0.26313 -0.376633 20.8048
-0.43975 -0.392408 19.3387
-2.80598 -4.23531 19.7643
0.246802 0.0422589 20.4294
0.598356 0.243104 19.4219
1.21264 1.40381 16.1133
1.87825 1.56783 16.3494
1.65575 0.906256 15.9012
-0.510968 -0.265549 19.1979
2.26029 0.900895 11.848
1.89763 0.80367 12.0988
-0.509499 -0.0288826 19.1357
1.27669 -1.23701 11.4894
0.907686 -0.751926 16.6402
-0.350918 0.384621 19.4631
-1.19363 1.65764 19.5056
-1.62811 1.72186 20.6361
-0.775185 0.499152 22.0254
-0.134964 -0.373692 21.4427
0.00534607 -0.60323 21.3174
-0.0565469 -0.639334 20.2869
0.445942 -0.391306 19.361
2.8372 -3.73261 19.8306
-0.249167 -0.0548787 20.6595
-0.600844 0.258095 19.3611
-1.09094 1.45625 15.5342
-1.85859 1.6038 16.1983
-1.64048 0.919674 15.6449
0.514999 -0.263026 19.193
-2.26525 0.919867 11.5753
-1.88844 0.829886 11.8682
0.506589 -0.0288399 19.1269
-1.25276 -1.22678 11.1043
-0.913834 -0.702844 16.4419
0.365235 0.37628 19.4882
1.22656 1.57601 19.5532
1.63657 1.6286 20.658
0.769546 0.528361 22.0537
0.148431 -0.36253 21.441
-0.00397299 -0.603724 21.3806
0.0733345 -0.648641 20.1476
0.494867 -0.199108 19.8129
1.28566 -0.586598 20.36
0.444484 -0.453741 21.2919
-0.116013 -0.230309 21.4989
-0.746961 0.0141225 21.3545
-0.958922 0.0363625 21.1965
-0.943715 -0.363998 20.8821
0.558573 -0.124211 19.7218
1.70201 -0.488362 20.198
0.626355 -0.518173 21.3172
-0.0590846 -0.307611 21.512
-0.830012 -0.211996 21.4597
-1.10904 -0.31894 21.1994
-1.13253 -0.536209 21.1072
0.54878 0.000426878 19.6924
1.74135 0.0755318 20.0745
1.16201 -0.345253 21.2034
0.311882 -0.39792 21.6015
-0.489946 -0.531241 21.479
-0.808959 -0.654047 21.0099
-0.663444 -0.411331 21.0608
0.404949 0.185845 19.8528
0.932711 0.496728 20.1054
1.01661 0.38301 20.9014
0.500345 0.0204842 21.4551
-0.00914494 -0.324193 21.2921
-0.245356 -0.494486 21.0285
-0.27565 -0.394706 20.8113
-5.21599 -1.03721 5.3554
0.00334803 -0.266225 0.609558
0.0665453 -0.193576 2.50221
0 0 0
-0.00309161 0.00237229 0.101928
0.0512807 0.00515662 1.90796
0.000147843 0.450709 0.46767
-0.488597 -0.135571 1.61479
-0.0019294 0.0291792 -0.0887767
0.000663742 0.00061439 0.00433424
5.13399 -1.01626 5.27655
-0.0677233 -0.198284 2.55278
0 0 0
-0.051005 0.00491912 1.90378
0.485812 -0.135599 1.6062
-0.000621155 0.000575559 0.00403182
0.0289862 0.00552483 1.16195
-5.36035e-05 -0.000988794 0.00675218
0 0 0
3.03277e-06 6.24851e-05 0.000480262
-9.05205e-06 0.000377348 0.0389325
0 0 0
0 0 0
-2.8422e-05 -0.00224434 0.0407661
-0.029307 0.00497463 1.16578
2.19923e-05 -0.000426489 0.0029016
0 0 0
0 0 0
-0.00403999 -0.00621073 0.069723
-3.99771e-08 1.64711e-05 0.000193167
0.000336696 0.00082679 0.0143944
1.32495e-06 -5.46011e-06 0.000188579
-2.62195e-07 -8.01468e-08 -1.42354e-05
4.06718e-10 -8.01911e-09 -3.50069e-07
-0.00109777 -1.04266 0.768162
0 0 0
-7.71831e-06 0.00512391 0.0275534
-0.00022809 0.132515 0.568949
-2.2346e-05 0.00127188 -0.00472935
0.00415776 -0.00637338 0.0718964
4.74973e-07 6.92787e-05 0.000822526
-0.0003369 0.00082455 0.0143515
-3.37733 -1.23465 19.6994
-4.48925 -6.07501 18.825
-1.4731 -0.936808 18.0225
1.51893 -0.0970204 19.7557
1.08656 1.16992 8.5557
1.60331 0.391844 7.2057
-3.54099 0.290518 19.3643
-1.58837 0.084288 17.7871
-2.60514 2.90233 18.5595
0.696894 -0.797321 19.4343
-0.207722 -0.966167 6.33253
0.134431 -0.533151 17.7953
4.58099 -5.52076 18.8783
1.47087 -0.94384 17.9991
3.43469 -1.26609 19.6793
-1.0039 1.18694 8.0096
-1.58257 0.374194 7.02528
-1.5051 -0.106668 19.7853
1.58978 0.0858892 17.758
2.6571 2.69234 18.6539
3.58688 0.305223 19.3401
0.253156 -0.956142 6.13117
-0.140109 -0.5162 17.5066
-0.692247 -0.79729 19.4823
-0.426911 -0.936981 21.5736
0.817016 0.215224 13.9474
0.256564 -0.461336 21.3555
0.568974 0.106308 13.6058
-1.85347 -0.80021 21.4311
-3.22044 1.63993 20.4746
-0.495077 -0.794388 21.2067
-0.841271 0.235701 19.4221
-0.82628 0.141169 14.3817
0.421611 -0.94285 21.5686
-0.571676 0.111711 13.4948
-0.252708 -0.463236 21.3727
3.19566 1.55319 20.5089
1.86366 -0.813816 21.4252
0.768846 0.274013 18.9178
0.491503 -0.788897 21.2102
-0.921266 -0.39068 19.8709
-0.536353 -0.169303 19.7868
-0.518566 -0.290351 19.5955
-0.945488 -0.559485 21.071
-1.51516 -0.565599 20.2882
-2.19505 -1.55598 20.1517
-0.13583 -0.3468 21.4131
-0.536826 -0.485837 21.3021
-0.208025 -0.583479 21.555
0.419832 -0.0941407 21.526
0.0875115 -0.261545 21.497
0.322908 -0.197719 21.5986
0.900138 0.0557118 21.127
0.81921 -0.0919326 21.4108
1.27849 0.331477 21.0749
0.970838 -0.0208376 20.5637
1.03784 -0.122354 21.173
1.53809 0.397378 21.0919
1.0307 -0.4475 20.9756
1.29908 0.212206 20.9598
-1.0568 -0.259097 19.732
-0.555683 -0.0686826 19.7176
-0.570836 -0.222203 19.5027
-1.24412 -0.529154 21.0641
-1.77732 -0.221803 20.1316
-0.25242 -0.432499 21.4321
-0.904384 -0.473922 21.2608
0.441471 -0.239275 21.596
-0.106106 -0.408776 21.5812
1.00332 -0.239598 21.3259
0.701779 -0.435982 21.4863
1.02462 -0.174612 20.8825
0.978813 -0.506067 21.171
1.7791 -0.162272 19.5421
0.929053 -0.509773 21.0604
1.49631 0.0756585 17.1546
-1.07753 0.0341434 19.6654
-0.499072 0.129351 19.7552
-0.579278 0.0200732 19.4395
-1.53096 -0.129775 20.8913
-1.39722 0.409764 20.0241
-0.777437 -0.424239 21.4867
-1.25816 0.0944083 21.0346
0.125068 -0.429553 21.6103
-0.502288 -0.197479 21.5593
0.647716 -0.580863 21.313
0.184817 -0.479205 21.3805
0.616934 -0.554556 21.0136
0.383414 -0.614912 21.1116
1.00464 -0.931934 20.4338
0.322173 -0.35377 20.9152
0.792008 -1.07392 19.5589
-0.677252 0.364469 19.8564
-0.420777 0.277585 19.6559
-1.08346 0.523901 20.5288
-1.19084 0.982496 19.8352
-0.862422 0.226687 21.2653
-1.43876 0.835757 20.856
-0.166763 -0.169906 21.4204
-0.667443 0.173454 21.6816
0.133361 -0.385154 21.1765
-0.0431739 -0.369885 21.3826
0.281085 -0.470872 20.8924
0.117764 -0.56836 20.9422
0.0982911 -0.346742 21.028
-1.17763 -1.28498 18.7263
-0.477204 -0.33357 19.2632
0.00529309 -0.507591 19.093
-0.521256 -1.02289 21.0609
0.0960415 -6.4878 19.0881
0.483623 0.114029 19.5745
0.012863 -0.382205 15.7517
0.767906 0.599668 17.4541
0.00647434 0.0442907 12.7256
1.57674 1.47322 16.5304
-0.0164224 0.669491 8.53347
1.61849 1.05688 16.414
2.23217 1.38526 13.3654
0.00968714 2.08683 10.3345
1.79974 0.873098 13.9928
0.0437272 1.54413 12.9079
-0.549507 -0.154906 19.1204
-0.00664668 -0.374972 18.8398
2.21352 0.448711 13.3847
1.97705 -0.679012 8.44435
0.0103255 1.14585 1.20186
1.49806 -0.0498107 13.7289
0.0479169 1.34327 8.58223
-0.496504 0.258772 19.216
-0.00507126 -0.0358659 18.7463
0.967752 -0.980273 13.2059
0.284651 -1.17326 19.7059
0.064855 1.2441 -6.55309
0.12394 -0.997454 19.7205
0.0103525 0.596147 -1.4896
-0.716262 0.901943 19.2503
0.0184773 0.458017 19.2802
-1.39043 1.78814 20.2989
0.0642444 2.51583 19.1337
-1.6802 1.60103 21.6315
0.0446315 2.9839 20.1436
-0.282918 -0.138251 21.7179
-0.0194103 1.16962 22.5909
-0.0654236 -0.492042 21.3913
-0.0205185 -0.0773219 21.4848
0.0249417 -0.647806 20.5953
-0.00454866 -0.521821 21.6124
-0.00500923 -0.393776 20.8729
1.19796 -1.18127 18.8085
0.484357 -0.331678 19.2696
0.518738 -0.289358 19.6101
0.58328 -1.15085 21.7759
2.07384 -1.41068 20.1806
-0.487489 0.0866882 19.7163
0.230754 -0.577055 21.5266
-0.749473 0.614084 17.1636
-0.325786 -0.196928 21.5957
-1.51621 1.53235 16.1033
-1.30758 0.367058 20.9745
-1.62502 1.12476 16.3365
-2.24577 1.41747 12.9759
-1.56928 0.422712 21.0605
-1.79947 0.902806 13.7467
-1.32217 0.245651 20.752
0.545013 -0.154336 19.1125
0.574826 -0.221506 19.4838
-2.24189 0.494594 13.0472
-1.98524 -0.655066 8.17265
-1.79555 -0.158524 19.4164
-1.49693 -0.0197752 13.496
-1.50162 0.102327 16.9763
0.503196 0.257727 19.2296
0.582446 0.0162141 19.4306
-0.925615 -0.981761 12.7876
-0.260476 -1.18024 19.6487
-1.00598 -0.941487 20.3634
-0.115115 -1.01932 19.6493
-0.793537 -1.09914 19.498
0.741261 0.851342 19.3073
0.427639 0.27341 19.672
1.42198 1.68115 20.3192
1.16137 0.87336 19.8876
1.67928 1.59238 21.6294
1.40778 0.791982 20.8626
0.282126 -0.133267 21.7386
0.679158 0.191373 21.6979
0.0788632 -0.484594 21.3832
0.0513182 -0.369937 21.3948
-0.0103682 -0.650019 20.5882
-0.12989 -0.602292 20.9438
-0.0912698 -0.366187 21.0669
0.910957 -0.37413 19.8697
0.534349 -0.16682 19.7725
0.954023 -0.55876 21.0502
1.49583 -0.551954 20.3021
0.138358 -0.351935 21.4088
0.535888 -0.487413 21.2974
-0.424072 -0.0935901 21.5319
-0.0859886 -0.263092 21.4935
-0.915417 0.0592942 21.1385
-0.816838 -0.0945725 21.4139
-0.99075 -0.0194358 20.556
-1.04258 -0.124441 21.1854
-1.03812 -0.450104 20.9946
1.06749 -0.261261 19.7012
0.559975 -0.0661497 19.6982
1.25509 -0.537681 21.0679
1.81202 -0.224956 20.1194
0.25337 -0.434031 21.4337
0.910889 -0.484741 21.2732
-0.435871 -0.241018 21.5847
0.105811 -0.408993 21.5824
-0.995307 -0.239031 21.3288
-0.696737 -0.429125 21.4881
-1.03119 -0.18351 20.8768
-0.984048 -0.510072 21.1754
-0.932482 -0.506804 21.0881
1.09121 0.0327476 19.6475
0.495544 0.124359 19.7634
1.54898 -0.130623 20.8994
1.35433 0.384655 20.0465
0.778093 -0.426213 21.488
1.24481 0.092979 21.037
-0.127359 -0.428642 21.6061
0.505885 -0.201065 21.5654
-0.644757 -0.579095 21.3159
-0.183701 -0.488099 21.3828
-0.612164 -0.552147 21.0227
-0.384493 -0.623599 21.1224
-0.324365 -0.360896 20.9559
0.659392 0.339163 19.8871
1.04452 0.491286 20.5381
0.860564 0.225346 21.2664
0.17435 -0.170879 21.4257
-0.133421 -0.395338 21.1835
-0.293519 -0.485885 20.9011
-1.00355 -0.348121 19.802
-1.31557 -1.18437 18.3759
-1.17712 -0.731565 19.4287
-1.41783 -0.523879 19.1288
-0.556886 -0.256846 19.5434
-2.73323 -1.52889 19.9437
-1.08076 -0.571534 21.0734
0.123967 -0.340077 13.5518
-1.07903 -1.08571 21.5599
-1.63009 -1.18173 21.7108
-0.268256 -0.756848 21.6057
-0.182718 -0.389583 21.415
0.621658 0.0867821 13.4705
0.102805 -0.392042 21.5544
-0.0368876 -0.734375 21.3854
0.309458 -0.333957 21.5058
0.423972 -0.142137 21.5463
0.459381 0.302923 10.4251
0.704516 0.0356048 21.564
0.728369 -0.24447 20.9447
1.48107 0.133089 20.6424
0.994124 -0.0905282 21.2957
1.7151 1.2155 11.2722
1.51064 0.358724 20.7819
1.74009 -0.146065 20.0478
1.68288 0.104878 20.3612
0.997729 -0.0977247 20.7231
1.97105 0.789614 14.1655
1.26341 0.296378 20.8948
1.79471 -0.410077 19.7042
1.3977 0.143932 19.0572
-1.09525 -0.146919 19.6778
-1.57453 -0.472727 17.8264
-1.47194 0.0741885 18.9895
-0.589444 -0.0983771 19.4512
-3.6825 -0.515216 19.4649
-1.43381 -0.35533 20.9979
-2.60498 -0.226384 21.3233
-1.04564 -1.07369 21.6379
-0.490041 -0.501174 21.4675
-1.28519 -0.993935 21.5558
0.0612239 -0.667139 21.058
0.311911 -0.374616 21.6285
0.19614 -0.600633 20.3407
1.25902 -0.481007 18.8258
0.889627 -0.476804 21.3564
0.461631 -0.836651 4.31806
0.868563 -0.980987 20.2752
1.61251 -0.576504 19.2374
0.835707 -0.388196 21.1049
1.68748 -0.324019 11.2702
0.967867 -0.967683 20.1811
1.10525 -0.770485 18.7121
-0.928623 0.254806 19.7303
-1.17018 0.84724 18.5346
-0.748534 0.581381 19.5996
-0.521934 0.180271 19.5421
-2.10842 1.09303 19.5866
-1.4413 0.29386 20.6641
-2.7093 2.30122 20.5866
-1.38402 1.01097 20.4477
-2.06347 0.375567 21.0125
-0.963596 -0.0780534 21.4043
-3.88424 0.768439 21.6267
-1.26229 0.612307 21.4304
-0.818839 -0.173289 21.9187
-0.0801079 -0.341322 21.5206
0.264259 -0.2579 17.9559
-0.233991 -0.171002 21.5674
0.0798938 -0.655498 21.4937
0.318439 -0.552883 21.2474
0.0771723 -0.79682 19.0847
0.0714202 -0.477344 21.2538
0.335722 -0.807878 21.366
0.375147 -0.557006 20.8875
0.311623 -0.949913 19.7757
0.369018 -0.524334 20.674
0.29612 -0.65044 20.4655
1.33865 -1.15184 18.4296
0.0326028 -1.8647 17.9394
-0.00514839 -1.49105 16.7078
0.000144887 -0.484494 18.9249
0.0266798 -8.54504 16.969
-0.11792 -0.460071 14.3404
0.0122239 -1.64677 18.6618
-0.00911856 0.0722006 5.94804
-0.627689 0.0688601 13.6561
-0.00151307 -0.14413 13.2885
0.00226135 0.071284 6.22211
-0.44293 0.300833 10.0631
0.0123075 0.292493 10.3988
-0.0281284 0.345477 2.63497
-1.67519 1.2386 10.9874
-0.0233319 0.954694 8.86927
0.00364428 -0.171611 -0.175911
0.00506873 1.76614 5.82093
-2.00829 0.860441 13.7513
0.0337891 2.1343 11.2582
0.0277195 2.18044 3.78638
0.0458221 1.4437 10.7451
1.57336 -0.475671 17.8038
-0.0048136 0.292219 16.3709
-0.00571784 -0.188657 18.7991
-0.413577 -0.819437 4.19292
0.0232822 1.1457 -5.43557
0.0542273 0.680673 -3.41305
-1.69897 -0.273329 10.9144
0.0579181 0.686586 -5.08231
0.0493188 0.987661 3.00739
1.202 0.820332 18.5796
0.0435579 1.27962 18.8797
0.0118 0.314639 18.9656
0.0666506 4.78122 17.7471
2.71351 2.16546 20.5995
0.0672001 2.69868 20.0861
0.0422252 4.10128 18.466
3.87198 0.77513 21.6375
0.00540649 3.61184 21.8746
-0.000739115 0.131829 9.89673
-0.337875 -0.239317 17.3489
-0.0190773 0.131731 21.7843
-0.0276882 0.167418 6.44303
-0.0634325 -0.773561 18.8154
-0.0132717 -0.168431 21.6452
-0.00170944 -0.899953 12.347
-0.295584 -0.944467 19.6957
-0.0145867 -0.677918 21.5509
-0.00701067 -0.791222 15.6939
0.998166 -0.346211 19.7869
1.16223 -0.705051 19.4803
1.42819 -0.527138 19.0994
0.556713 -0.254208 19.5402
2.66774 -1.45139 19.9646
1.08332 -0.57214 21.0584
1.07935 -1.03073 21.4946
1.63796 -1.19468 21.7181
0.287425 -0.747998 21.589
0.179416 -0.389168 21.4172
-0.0992511 -0.394114 21.5532
0.0376991 -0.73643 21.378
-0.309965 -0.336085 21.4962
-0.423766 -0.143325 21.5455
-0.715854 0.0440922 21.4986
-0.722579 -0.249682 20.9737
-1.48473 0.150822 20.4581
-0.994121 -0.0914677 21.3034
-1.52965 0.39888 20.7024
-1.73566 -0.148192 20.016
-1.69642 0.135021 20.2288
-1.01097 -0.101473 20.7164
-1.27693 0.315177 20.9335
-1.81165 -0.431566 19.664
-1.41189 0.173989 18.8642
1.10882 -0.148978 19.6554
1.48224 0.0778937 18.9657
0.59563 -0.100338 19.437
3.75424 -0.520078 19.4392
1.4498 -0.364891 21.0089
2.62353 -0.228371 21.3348
1.04251 -1.08508 21.6325
0.489853 -0.505211 21.4731
1.28601 -1.00011 21.545
-0.0586277 -0.669577 21.0843
-0.312137 -0.376949 21.6242
-0.193674 -0.604151 20.3689
-1.2482 -0.490544 18.9089
-0.885204 -0.475557 21.3606
-0.857589 -0.979659 20.2392
-1.61557 -0.588609 19.0267
-0.832897 -0.391273 21.1146
-0.981751 -0.999624 20.0896
-1.11853 -0.739965 18.5304
0.91331 0.243725 19.7552
0.750069 0.543761 19.6425
0.524191 0.178992 19.5492
2.06019 1.01713 19.6327
1.41925 0.283545 20.6711
1.35875 0.94477 20.4604
2.03192 0.359946 21.0154
0.964288 -0.0790081 21.4053
1.25978 0.609282 21.4291
0.829756 -0.17253 21.9331
0.0858367 -0.345778 21.5248
0.236676 -0.167776 21.5792
-0.0705887 -0.665851 21.4814
-0.314307 -0.566669 21.2644
-0.0580969 -0.483563 21.2581
-0.334095 -0.827087 21.3838
-0.375876 -0.554668 20.9265
-0.330205 -0.559734 20.7679
-0.286505 -0.678357 20.4128
-1.29311 -0.667423 19.2623
-1.31368 -1.17746 21.6582
0.0706087 -0.561297 21.5012
0.752282 -0.11253 21.2297
1.66242 0.157409 20.251
1.54973 -0.0547935 20.2738
-1.50673 -0.262853 19.0022
-2.23062 -0.82662 21.7075
-0.428537 -1.0053 21.3231
0.557199 -0.400234 20.1105
1.49282 -0.681132 19.4943
1.36792 -0.709179 20.1724
-1.14421 0.499196 19.2495
-2.18269 0.808824 20.6858
-1.79597 0.050769 21.7374
-0.172469 -0.425325 21.7483
0.213832 -0.772074 21.446
0.38743 -0.78074 21.2102
0.0151237 -1.8333 17.3913
-0.0157152 -0.297243 6.57789
-0.00557195 0.0137366 5.75042
-0.000289866 0.132704 4.68388
-0.0216418 0.329679 3.36341
0.0309402 2.14553 7.49435
-0.00442772 -0.749841 16.4895
0.0212489 0.235062 -3.64441
0.0577735 1.57231 0.91179
0.0279843 1.36005 17.6866
0.047913 4.01304 20.284
0.00139548 4.69387 15.5032
-0.00388386 -0.197924 7.7336
-0.0531847 0.131453 8.80449
-0.0327714 -0.649199 13.6627
1.28922 -0.656964 19.2742
1.31706 -1.14218 21.6111
-0.0625511 -0.560497 21.5129
-0.754056 -0.110433 21.1663
-1.67937 0.174826 20.0944
-1.5779 -0.0743986 20.2304
1.52273 -0.266418 18.9777
2.24674 -0.836626 21.727
0.427737 -1.00762 21.3073
-0.554474 -0.408753 20.1627
-1.48499 -0.68201 19.4533
-1.38598 -0.723569 20.1372
1.1251 0.480229 19.2926
2.13902 0.773456 20.6867
1.79381 0.0495134 21.7358
0.176642 -0.430316 21.7542
-0.198172 -0.785732 21.4445
-0.364222 -0.815671 21.2521
-0.00826613 -0.0036458 0.00969019
0 0 0
-0.0775484 -0.467954 2.0016
0.102579 -0.0899256 0.204147
-0.00647279 0.0145102 0.0436785
0.00680486 0.00282742 0.02991
0 0 0
-0.0842519 0.333732 0.429639
-0.147693 0.0468501 0.449538
-0.00643637 -0.0201953 0.00206093
-0.192134 -0.0117755 -0.0283844
-0.00747016 -0.0175556 0.255627
0 0 0
0.118593 -0.0522452 0.139184
0.077449 -0.473025 2.01693
0.00571969 0.0108936 0.0325882
-0.0993306 -0.0903368 0.197429
-0.00712297 0.00315867 0.0315736
0.0833207 0.328885 0.423209
0 0 0
0.143591 0.04582 0.436897
0.189405 -0.00646484 -0.036781
-0.0306023 -0.0677623 0.0821488
0.00712247 -0.01673 0.247883
0.110238 -0.0682783 1.59148
0.0457056 0.00649601 0.594143
0.00138967 -0.00256622 0.0188684
0 0 0
0.0261978 0.0396023 1.61969
0.00344924 0.0102217 1.06688
-0.00111436 0.0177823 0.183921
0.000232262 5.84637e-05 0.00333139
-0.132361 -0.0937975 0.444597
-0.00130056 -0.0064531 0.0361208
-0.00230146 -0.00109057 0.0415392
0 0 0
0 0 0
0.00369577 0.0185954 0.0967
0 0 0
0.0403799 -0.00349659 0.306589
-0.125615 -0.0918103 1.88732
0 0 0
-0.0454589 0.00605638 0.588671
-0.0015395 -0.00285434 0.0209592
-0.0264081 0.0397307 1.63034
-0.000234369 5.82407e-05 0.00329325
-0.00397454 0.0104319 1.06651
0.00107541 0.0178795 0.185492
0.132563 -0.0945004 0.446485
0.0996124 0.0120484 0.0874484
0.00141135 -0.0070557 0.0394693
0.00229227 -0.00113205 0.0417492
0 0 0
-0.0406018 -0.00347847 0.30656
-0.00347618 0.016988 0.088487
0 0 0
0 0 0
-0.0958813 -0.136066 0.0699145
-7.12788e-05 -8.48331e-05 0.00825373
2.36649e-05 -0.00202574 0.0149242
-0.00222371 -0.00517381 0.0521769
6.88451e-06 -7.11444e-07 8.13781e-05
0.0011049 -0.000708222 0.0145458
0 0 0
-3.38796e-05 0.00137838 0.0076458
0 0 0
9.70126e-05 0.000214031 0.00614836
3.78374e-07 1.96123e-07 7.63397e-06
4.65461e-05 0.258887 0.264556
-6.42e-05 0.023577 0.0747023
0 0 0
-0.00853536 0.0132822 0.072712
-0.000774082 -0.0037669 -0.00220377
-0.000146704 0.00329957 -0.0101954
0.00714432 0.0114749 0.115044
-0.000608874 -0.000323366 0.00087616
0.0916661 -0.128982 0.0665778
0 0 0
-7.80624e-06 -6.46941e-07 8.3414e-05
0.00222874 -0.00516055 0.0522951
0 0 0
-0.000999621 -0.000683091 0.0131433
-8.88155e-07 4.45239e-07 1.73e-05
-9.63608e-05 0.000212469 0.0061119
0.0085802 0.0133967 0.0731819
0 0 0
0.000223316 -0.00012147 0.000327683
-0.00732025 0.0117244 0.116412
-0.000458397 0.0010139 0.122909
0.00103742 0.000107077 0.00881582
-0.00193827 -0.0103307 0.095207
0 0 0
-2.33479e-08 2.07752e-08 -1.88693e-06
5.59564e-06 2.35462e-06 0.000200407
-8.71373e-06 0.00137513 0.0118097
5.48856e-05 0.00400315 0.0388323
6.83672e-05 0.000100324 0.00894169
4.03558e-08 -9.10264e-07 -4.94649e-05
0.000603346 0.00304373 0.0226753
-0.255472 0.319091 1.03193
-6.0567e-05 0.00303065 0.0290434
0.000278501 0.00683824 0.0131501
2.08312e-07 5.42328e-06 0.000147907
-2.82909e-07 -8.14114e-05 0.000548485
-0.0010601 0.000108678 0.00881328
0.000500858 0.00100337 0.12737
0.00206138 -0.011207 0.10348
0 0 0
6.62102e-06 0.00140778 0.0121521
-6.07122e-05 0.00377665 0.0367701
0.252772 0.315012 1.01924
-0.000584604 0.00298389 0.0223584
-0.0819041 -0.0492535 0.395026