# vtk DataFile Version 2.0
tri_press
ASCII
DATASET UNSTRUCTURED_GRID
POINTS 3682 float
-0.781115 0.115 -1.815
-0.847461 0.195 1.795
-0.703847 0.905 -1.695
-0.535 1.505 1.84319
0.781115 0.115 -1.815
0.847946 0.195 1.795
0.703837 0.905 -1.695
0.525 1.505 1.83824
-0.813283 0.131614 -0.611667
-0.838216 0.155463 0.591667
-0.732709 1.19014 -0.515604
-0.690316 1.40403 0.663793
0.813287 0.131772 -0.611667
0.838235 0.155767 0.591667
0.731848 1.19262 -0.517253
0.688599 1.40899 0.660493
-1.53356 -0.520429 -2.81305
-1.54015 -0.410951 -1.86041
-1.55863 -0.394037 -0.656299
-1.55889 -0.413614 0.552921
-1.54731 -0.393285 1.75747
-1.55434 -0.329538 2.71223
-1.56899 -0.243876 3.66312
-1.53199 -0.0414656 -2.76203
-1.53407 0.0972656 -1.81207
-1.55661 0.156534 -0.612653
-1.54472 0.185485 0.589147
-1.51208 0.224856 1.78903
-1.53911 0.28957 2.74328
-1.5667 0.371434 3.69487
-1.49943 0.857719 -2.65288
-1.47299 0.988917 -1.70177
-1.48479 1.22003 -0.518698
-1.42149 1.40433 0.662871
-1.30922 1.50301 1.8463
-1.43374 1.56002 2.80077
-1.53013 1.62377 3.7558
-1.47885 2.40095 -2.50758
-1.46684 2.56364 -1.56011
-1.46201 2.84462 -0.3854
-1.44592 3.11935 0.78412
-1.43399 3.30248 1.9589
-1.46658 3.39283 2.90654
-1.52204 3.46211 3.85916
-0.776574 -0.510567 -2.81497
-0.772131 -0.394862 -1.86311
-0.789184 -0.403562 -0.656473
-0.801032 -0.437872 0.555371
-0.80649 -0.419904 1.76212
-0.82798 -0.348924 2.71501
-0.845867 -0.256904 3.66431
-0.784671 -0.0425058 -2.76285
-0.848651 0.273634 2.74512
-0.860221 0.36077 3.6954
-0.760791 0.821309 -2.65018
-0.767231 1.5575 2.79885
-0.845388 1.62063 3.75442
-0.739902 2.37106 -2.5051
-0.729102 2.53298 -1.55743
-0.733157 2.83099 -0.384254
-0.738328 3.12473 0.782775
-0.745634 3.31252 1.95593
-0.779903 3.40045 2.90355
-0.828733 3.46687 3.8567
0.758746 -0.510066 -2.81533
0.792946 -0.394562 -1.8633
0.81701 -0.40314 -0.656698
0.83716 -0.43739 0.555084
0.829514 -0.419632 1.7617
0.711246 -0.34849 2.71382
0.63963 -0.256235 3.6627
0.736464 -0.0421116 -2.76312
0.650387 0.27396 2.7436
0.596646 0.361411 3.69355
0.708695 0.821796 -2.65053
0.536276 1.55799 2.79577
0.540504 1.62141 3.75199
0.732145 2.3723 -2.50604
0.735453 2.53448 -1.55855
0.719132 2.83311 -0.38592
0.669985 3.12716 0.780418
0.610135 3.31439 1.95314
0.57798 3.4019 2.90084
0.55525 3.46816 3.85423
1.52743 -0.519113 -2.81399
1.56 -0.409732 -1.86124
1.58984 -0.392395 -0.657405
1.60412 -0.411926 0.551379
1.57578 -0.392248 1.75546
1.47302 -0.328377 2.70945
1.39332 -0.242386 3.65983
1.50472 -0.0402424 -2.7629
1.53767 0.0984721 -1.81288
1.56847 0.158594 -0.613988
1.57008 0.187729 0.587057
1.52628 0.225669 1.78633
1.41218 0.290608 2.73987
1.34575 0.372899 3.69116
1.46654 0.859183 -2.65393
1.47313 0.990632 -1.70294
1.48996 1.22405 -0.521454
1.43309 1.40977 0.658096
1.29963 1.50476 1.84005
1.27131 1.56147 2.79536
1.26781 1.62551 3.75115
1.47223 2.40351 -2.50954
1.47133 2.56668 -1.56243
1.45089 2.84868 -0.388668
1.39123 3.12387 0.779666
1.31729 3.30611 1.9537
1.28206 3.39577 2.9014
1.2646 3.46474 3.85438
-0.787212 0.51 -1.79973
0 0.112779 -1.81722
-0.808398 0.112108 -1.21333
-0.733286 0.85 1.86115
0.000242501 0.204672 1.78533
-0.836995 0.181075 1.19333
-5.00679e-06 0.927245 -1.71724
-0.741681 1.07098 -1.1053
-0.00500003 1.54328 1.87899
-0.664125 1.50598 1.25349
0.787235 0.51 -1.79976
0.808831 0.111756 -1.21333
0.731683 0.85 1.86183
0.837392 0.181082 1.19333
0.74118 1.07215 -1.10613
0.661885 1.51208 1.24937
-0.818823 0.150465 -0.0100001
-0.839817 0.660879 -0.563635
1.53157e-06 0.139223 -0.611667
-0.861655 0.779748 0.62773
9.39177e-06 0.150308 0.591667
-0.713401 1.29898 0.074095
-0.000430455 1.5054 -0.516428
-0.000858734 1.68681 0.662143
0.818838 0.150692 -0.0100001
0.839807 0.662198 -0.56446
0.860659 0.782377 0.62608
0.712133 1.30271 0.07162
-0.839775 0.585439 -1.15932
0.839769 0.586099 -1.15973
7.65783e-07 0.132352 -1.21333
-0.000217731 1.2119 -1.10571
-2.5034e-06 0.51 -1.95369
-0.852898 0.720314 0.0320475
0.852189 0.722287 0.03081
5.46167e-06 0.144696 -0.0100001
-0.000644595 1.6535 0.0728575
-0.873787 0.814874 1.22341
0.8731 0.816188 1.22135
0.000125947 0.188829 1.19333
-0.00292938 1.64927 1.25143
-0.00237876 0.85 1.94345
-0.788887 0.3125 -1.81209
-0.390557 0.112778 -1.81722
-0.796452 0.111858 -1.51417
-0.793326 0.5225 1.83103
-0.423609 0.198559 1.79144
-0.836178 0.194087 1.49417
-0.754323 0.7075 -1.75616
-0.351926 0.917257 -1.70726
-0.730952 0.996176 -1.40015
-0.670527 1.1775 1.88855
-0.27 1.54036 1.87731
-0.622389 1.52832 1.54834
0.390557 0.112773 -1.81723
0.788881 0.3125 -1.81209
0.796588 0.111763 -1.51417
0.424094 0.198564 1.79144
0.792779 0.5225 1.83138
0.836654 0.194056 1.49417
0.351916 0.917247 -1.70725
0.754315 0.7075 -1.75616
0.730568 0.996634 -1.40056
0.26 1.54059 1.87507
0.667622 1.1775 1.88932
0.618674 1.53377 1.5438
-0.821671 0.111031 -0.9125
-0.815776 0.141317 -0.310833
-0.821172 0.398935 -0.587651
-0.404295 0.140111 -0.611667
-0.85298 0.152894 0.8925
-0.823557 0.157927 0.290833
-0.856487 0.46433 0.609698
-0.418033 0.155027 0.591667
-0.740867 1.13423 -0.810453
-0.812412 0.938586 -0.539619
-0.723584 1.24509 -0.220754
-0.440221 1.49508 -0.516016
-0.6771 1.45489 0.958643
-0.792939 1.10037 0.645762
-0.702365 1.35201 0.368944
-0.4112 1.67665 0.662968
0.818615 0.114208 -0.9125
0.40433 0.140125 -0.611667
0.815775 0.141519 -0.310833
0.821212 0.399652 -0.588063
0.852992 0.153247 0.8925
0.418144 0.154994 0.591667
0.823582 0.158185 0.290833
0.856561 0.465515 0.608873
0.740225 1.1361 -0.81169
0.438584 1.49476 -0.516841
0.811798 0.940396 -0.540857
0.722539 1.24822 -0.222817
0.675104 1.46039 0.95493
0.40829 1.67674 0.661318
0.791252 1.10399 0.643287
0.700886 1.35637 0.366057
-0.837881 0.54772 -1.47952
-0.393607 0.51 -1.94261
3.82891e-07 0.12853 -1.51528
-1.2517e-06 0.311389 -1.93199
-0.840023 0.348774 -1.18633
-0.404198 0.126117 -1.21333
-0.868193 0.832437 1.54228
-0.367832 0.85 1.94297
0.000184224 0.195836 1.48933
-0.00106813 0.527336 1.96014
-0.891478 0.497974 1.20837
-0.418435 0.18304 1.19333
-0.000111369 1.06564 -1.41148
-3.75509e-06 0.718622 -1.90674
-0.818977 0.828207 -1.13231
-0.37095 1.2021 -1.10551
-0.0039647 1.60167 1.56521
-0.00368939 1.19664 1.92936
-0.785906 1.16043 1.23845
-0.333527 1.641 1.25246
0.837875 0.548049 -1.47974
0.393616 0.51 -1.9399
0.840021 0.348927 -1.18653
0.404416 0.126123 -1.21333
0.867907 0.833094 1.54159
0.364652 0.85 1.94362
0.890944 0.498635 1.20734
0.418759 0.183028 1.19333
0.818723 0.829124 -1.13293
0.370481 1.20188 -1.10592
0.784365 1.16413 1.23536
0.329478 1.64134 1.2504
-0.833436 0.436601 0.0110237
-0.409432 0.147534 -0.0100001
-0.836723 0.623159 -0.861476
-0.847078 0.690596 -0.265794
1.14867e-06 0.136576 -0.9125
3.49662e-06 0.141967 -0.310833
-0.85812 0.750031 0.329889
-0.868758 0.797311 0.925571
7.42672e-06 0.147444 0.290833
6.76692e-05 0.165724 0.8925
-0.808668 1.0224 0.0530712
-0.440242 1.64268 0.0734762
-0.000324093 1.3736 -0.811071
-0.000537525 1.59825 -0.221786
-0.000751664 1.67776 0.3675
-0.00189406 1.68301 0.956786
0.833473 0.43751 0.010405
0.40947 0.147598 -0.0100001
0.83679 0.624148 -0.862095
0.846493 0.692242 -0.266825
0.85729 0.752332 0.328445
0.867974 0.799283 0.923715
0.807287 1.02506 0.051215
0.438005 1.64263 0.0722387
-0.839282 0.330637 -1.49685
-0.841025 0.37251 -0.886988
-0.821068 0.876859 -0.835965
-0.835007 0.767854 -1.43984
0.83928 0.330714 -1.49696
0.834668 0.768312 -1.44015
0.820677 0.878267 -0.836893
0.841024 0.372956 -0.887298
-0.397378 0.122201 -1.51472
0.397487 0.122204 -1.51472
0.40553 0.132097 -0.9125
-0.40542 0.130504 -0.9125
-0.361438 1.06471 -1.40582
-0.36876 1.36481 -0.810762
0.368095 1.36444 -0.811381
0.361199 1.06464 -1.40602
-0.392082 0.311945 -1.93436
-0.372767 0.713061 -1.89406
0.372766 0.713061 -1.89365
0.392087 0.311945 -1.93414
-0.826954 0.417943 -0.288314
-0.841596 0.452148 0.310361
-0.799405 1.06069 0.349416
-0.810416 0.980433 -0.243274
0.826984 0.41876 -0.288829
0.809628 0.982772 -0.244821
0.798054 1.06392 0.347251
0.841663 0.453189 0.309639
-0.406833 0.143883 -0.310833
0.406874 0.143913 -0.310833
0.413562 0.151785 0.290833
-0.413497 0.151751 0.290833
-0.449434 1.58728 -0.22127
-0.42941 1.66704 0.368222
0.426831 1.66705 0.366779
0.447491 1.58709 -0.222301
-0.880349 0.48279 0.909036
-0.883438 0.510237 1.51822
-0.793272 1.16896 1.54531
-0.791914 1.12616 0.942107
0.875998 0.483854 0.908108
0.790008 1.12991 0.939323
0.792386 1.17082 1.5427
0.883437 0.510568 1.51788
-0.418769 0.160133 0.8925
0.418941 0.160132 0.8925
0.421427 0.189979 1.49175
-0.421022 0.189971 1.49175
-0.339557 1.67464 0.957714
-0.301763 1.59443 1.55678
0.294739 1.59507 1.55451
0.336674 1.67494 0.955858
-0.395721 0.524918 1.94476
0.394373 0.524918 1.94494
0.312326 1.18707 1.91992
-0.318916 1.18707 1.9205
-0.785129 0.21375 -1.81367
-0.585836 0.112808 -1.81719
-0.790754 0.111459 -1.66458
-0.817091 0.35875 1.80971
-0.635535 0.198712 1.79129
-0.83501 0.201354 1.64458
-0.724668 0.80625 -1.72116
-0.527886 0.914751 -1.70475
-0.717409 0.950597 -1.54758
-0.561334 1.34125 1.82444
-0.4025 1.53608 1.87365
-0.592799 1.53076 1.69577
0.585836 0.112803 -1.8172
0.785088 0.21375 -1.81363
0.7908 0.111433 -1.66458
0.63602 0.198788 1.79121
0.816978 0.35875 1.80981
0.835301 0.201527 1.64458
0.527876 0.914706 -1.70471
0.724642 0.80625 -1.72115
0.717269 0.950883 -1.54778
0.3925 1.53649 1.87035
0.556923 1.34125 1.82439
0.586755 1.5343 1.69102
-0.813078 0.125721 -0.762083
-0.814331 0.136663 -0.46125
-0.81632 0.265728 -0.599659
-0.611132 0.131176 -0.611667
-0.845573 0.154204 0.742083
-0.830825 0.156756 0.44125
-0.844693 0.311225 0.600683
-0.63835 0.134793 0.591667
-0.736732 1.16213 -0.663028
-0.773256 1.06471 -0.527611
-0.728497 1.21797 -0.368179
-0.635463 1.44061 -0.51581
-0.683002 1.42875 0.811218
-0.741894 1.25233 0.654778
-0.697331 1.37901 0.516369
-0.596275 1.63137 0.663381
0.813075 0.125866 -0.762083
0.611224 0.131118 -0.611667
0.814336 0.13684 -0.46125
0.816329 0.266172 -0.599865
0.845584 0.154536 0.742083
0.638469 0.134822 0.591667
0.830837 0.157047 0.44125
0.8447 0.31199 0.60027
0.735977 1.1643 -0.664472
0.63419 1.44164 -0.517047
[...]
POINT_DATA 3682
SCALARS point_scalars float 1
LOOKUP_TABLE default
-162.342
-65.6566
-75.1757
-43.6325
-160.814
-65.6464
-74.5123
-43.6344
-46.7763
-41.7629
-75.0946
-57.8987
-46.6816
-41.8639
-75.2972
-58.0352
-57.1514
-182.596
-47.6871
-42.5804
-65.5174
-65.5174
-70.6574
-102.822
-172.253
-47.0653
-42.602
-63.5615
-57.659
-52.2376
-35.5704
-117.748
-64.4695
-53.9176
-51.517
-45.3202
-45.3202
-99.1755
-81.6048
-82.1924
-63.1553
-48.0039
-43.7287
-41.6696
-81.042
-198.706
-48.9844
-46.1981
-57.8211
-53.2509
-53.2509
31.5449
-52.5206
-51.372
136.333
-43.9576
-43.8973
-58.8419
-38.3563
-80.9638
-67.308
-45.3446
-41.6696
-41.6696
-91.9854
-196.894
-48.8685
-46.1457
-57.7722
-53.2007
-53.062
-60.8915
-53.0924
-51.8359
151.805
-41.5887
-39.6239
-49.6135
-38.3886
-80.9127
-67.3009
-43.666
-40.3335
-40.3335
-56.393
-186.431
-47.6488
-42.685
-65.4995
-65.4995
-59.8282
-102.761
-172.368
-47.1315
-42.6835
-63.5851
-57.6198
-52.1797
-28.5656
-118.548
-64.5999
-53.978
-51.1804
-45.1474
-45.1474
-111.439
-81.7699
-82.3831
-63.7792
-48.3129
-42.4198
-41.5887
-99.5837
-179.952
-69.1981
-50.8628
-58.217
-48.762
-1.85108
-87.7258
-36.146
-55.1749
-100.196
-69.3719
-50.5753
-48.6092
-87.8697
-55.3667
-42.107
-54.2635
-54.4228
-47.8221
-50.2205
-63.4635
-63.1952
-74.9768
-42.0904
-54.3308
-47.8711
-63.5691
-75.1987
-75.2912
-79.8289
9.79483
204.482
-48.0073
-48.0847
-47.7816
-93.413
-52.2879
-52.2594
-49.8646
-57.1136
-48.7155
-98.9943
-180.477
-99.2169
-55.5594
-60.1562
-52.6127
-82.5567
3.27677
-78.5829
-45.3978
-38.6779
-51.2507
-179.819
-100.758
-99.1888
-60.1303
-55.4679
-52.6087
3.57257
-82.1199
-79.0383
-38.2386
-45.1763
-51.2932
-62.9544
-43.6671
-50.484
-52.834
-56.1049
-40.8153
-43.7466
-49.1436
-83.6385
-62.6627
-68.2136
-66.4468
-56.3394
-52.785
-59.763
-71.0414
-62.9139
-52.8084
-43.6646
-50.4769
-57.4971
-49.183
-40.8595
-43.8015
-83.8116
-66.3622
-62.7831
-68.3477
-56.4504
-71.1356
-52.9134
-59.8834
-107.701
188.166
-111.521
186.464
-74.046
-77.19
-59.2841
-49.6023
-52.1011
-52.257
-54.2775
-49.4924
3.32415
138.317
-77.7831
3.36964
-46.481
-34.1847
-52.2418
-57.0853
-107.868
186.578
-74.1103
-77.2025
-59.1105
-49.6008
-54.1875
-49.4442
-77.9194
3.41419
-52.2255
-57.1307
-44.0835
-46.7174
-62.8617
-50.393
-64.0426
-49.7929
-47.0813
-49.447
-47.9443
-51.0472
-55.8731
-85.837
-20.0659
-87.5357
-81.942
-68.0446
-44.1038
-46.7278
-62.8762
-50.4629
-47.1145
-49.4277
-56.0541
-85.8903
-107.033
-62.4894
-67.5158
-108.449
-107.115
-108.695
-67.6113
-62.4661
-109.393
-109.401
-62.3915
-62.4783
-8.96765
-24.8644
-24.7065
-8.99768
173.073
129.791
127.516
174.011
-46.1516
-42.5322
-53.5987
-58.5905
-46.1539
-58.696
-53.7434
-42.5625
-48.4918
-48.4921
-47.0067
-46.9867
-83.1794
-76.1074
-76.1945
-83.301
-48.037
-56.539
-53.095
-52.2225
-47.4255
-52.3323
-52.9383
-56.4627
-51.7157
-51.6147
-51.8724
-51.8784
-66.846
-47.4706
-47.5094
-66.8782
-51.8177
-51.7953
-37.5154
-37.8908
-91.0893
-199.017
-135.197
-61.4248
-62.962
-54.9976
-73.7475
-0.42038
-82.7669
-42.5766
-40.8089
-47.9824
-197.831
-87.1677
-133.469
-62.9623
-61.3738
-55.032
1.61741
-72.2083
-84.5799
-40.5141
-42.4005
-47.9503
-51.4398
-43.0285
-48.908
-50.6551
-44.0933
-41.6429
-42.6395
-48.6745
-79.848
-68.5107
-71.4799
-88.789
-57.038
-55.3662
-58.7682
-65.0751
-50.9683
-50.5781
-43.0063
-48.8812
-44.2026
-48.7707
-41.6739
-42.6987
-80.0447
-88.6807
-68.6063
-71.6167
-57.1842
-65.2279
-55.4475
-58.8814
-104.901
-94.2504
-151.39
129.063
-178.33
-178.255
-137.243
72.1178
-80.7991
-62.4549
-72.456
-74.1015
-53.3504
-48.2936
-59.3837
-49.4782
-58.7869
-58.7661
-54.1045
-51.8248
-50.9823
-53.4282
-52.6365
-48.7972
2.47663
2.67544
-1.74774
89.7064
-85.6137
-85.9386
-81.4378
-20.8597
-36.8293
-36.6786
-41.5894
-33.2849
-54.7271
-55.4039
-53.0521
-57.712
-102.257
-93.6375
-151.561
129.909
-80.8178
-62.7834
-72.5382
-74.149
-53.2104
-48.1249
-59.2355
-49.3703
-50.8566
-51.9796
-52.353
-48.7578
-85.6086
-86.1858
-81.6038
-20.6339
-54.6088
-55.4292
-53.0669
-57.7898
-44.0631
-41.5351
-43.0427
-45.0971
-52.03
-57.7867
-57.9064
-51.9703
-53.9799
-53.9682
-58.4159
-51.8163
-45.2244
-49.7138
-47.1505
-48.4454
-50.2945
-50.2974
-48.7043
-49.5021
-65.6834
-61.4205
-59.4988
-75.7196
-63.0652
-63.0336
-50.4344
-77.6207
-74.2295
-74.2735
-77.9264
-70.9967
-44.0551
-41.544
-43.0546
-45.101
-52.054
-57.8516
-57.9599
-52.0176
-45.2592
-49.767
-47.2236
-48.4753
-65.8087
-61.516
-59.613
-76.0255
-87.1924
-74.7193
-76.1514
-68.2347
-87.3207
-74.7887
-76.261
-68.304
-92.8192
-79.175
-79.1737
-70.8195
13.0445
8.62872
8.63009
-1.04479
201.616
195.338
183.764
202.124
-45.4309
-48.9984
-47.3799
-51.1831
-45.4693
-49.0498
-47.4732
-51.3054
-47.5071
-48.4762
-47.6046
-47.5114
-91.3485
-87.9571
-85.46
-91.3538
-56.3352
-53.7916
-52.4746
-51.4402
-56.2176
-53.6674
-52.3649
-51.3624
-51.1021
-49.7735
-49.7519
-49.9805
-51.701
-56.9331
-56.9435
-62.5483
-49.3016
-51.8607
-44.2599
-49.0972
-157.983
118.408
-135.888
82.6263
-104.454
-107.451
-61.6528
-51.2262
-54.4691
-51.5549
-55.0449
-51.6998
-122.837
87.01
-9.26758
74.1154
-93.4161
-28.2237
-53.4877
-42.2274
-42.7441
-36.7844
-52.1788
-48.7948
-136.111
82.6775
-158.104
118.847
-104.517
-107.445
-54.4607
-51.5169
-61.6679
-51.1815
-54.9776
-51.7162
-9.2538
74.7624
-123.769
86.186
-93.6831
-28.3748
-42.7052
-36.4962
-53.2305
-41.8912
-52.0709
-48.8332
-62.9173
-61.1896
-44.9294
-46.9035
-54.818
-47.7634
-56.6725
-50.3038
-48.8996
-55.4756
-41.4024
-45.6744
-42.8718
-44.7316
-47.769
-50.0013
-74.1536
-53.9551
-64.9701
-60.5923
-63.3858
-82.5211
-56.5714
-76.5023
-53.8416
-64.2741
-52.9896
-52.5003
-56.6782
-67.4281
-72.9295
-68.5733
-62.7669
-60.9795
-56.6353
-50.2945
-44.9319
-46.9122
-54.7857
-47.7691
-48.7984
-55.8431
-47.7983
-49.9931
-41.4324
-45.7117
-42.9079
-44.8661
-74.3151
-53.7203
-56.3829
-76.2624
-65.0743
-60.665
-63.458
-82.7014
-53.8972
-64.2617
-73.0855
-68.6465
-53.1487
-52.5758
-56.7594
-67.1054
-107.442
-108.035
184.454
169.829
-111.094
-111.091
186.277
185.977
-85.7511
-66.9493
-90.1331
-68.5596
-58.5617
-56.2782
-51.723
-45.375
-52.0563
-52.0598
-52.1925
-52.1827
-53.8716
-54.6911
-49.9393
-50.7821
0.150926
0.140913
134.367
134.384
-70.5636
-91.4651
3.81607
-6.8869
-46.821
-46.8296
-35.169
-35.445
-52.4568
-52.179
-62.3489
-52.4822
-107.563
-108.286
168.18
182.59
-85.8271
-66.9834
-90.136
-68.5752
-56.0664
-58.4276
-51.693
-45.0748
-53.807
-54.5356
-49.8132
-50.7684
-91.6566
-70.6861
-6.80716
3.849
-52.1874
-52.3752
-52.5097
-62.4205
-44.9722
-43.2717
-47.2914
-46.6253
-62.6687
-64.3968
-47.7161
-53.7085
-63.6001
-63.6214
-49.4549
-49.4533
-44.246
-49.8365
-48.2121
-50.5945
-47.7164
-47.7077
-51.1592
-51.1384
-54.6282
-57.0254
-82.1857
-79.4617
-19.9681
-19.9279
-87.2213
-87.2504
-80.4366
-80.4725
-67.4252
-67.499
-44.9839
-43.2942
-47.2977
-46.6385
-64.4682
-62.6789
-47.7341
-53.8
-49.9342
-44.2835
-48.0767
-50.5531
-57.1781
-54.7435
-79.4638
-82.1273
-153.035
-83.8367
-86.5621
-154.803
-53.2225
-56.1566
-67.5388
-65.7801
-71.2748
-76.1653
-69.2403
-60.7412
-105.573
-141.445
-88.0702
-92.7842
-153.17
-154.938
-86.6523
-83.9057
-107.278
-92.9199
-88.2434
-141.747
-71.4064
-60.8152
-69.3066
-76.3427
-53.1395
-65.8621
-67.5875
-56.1677
-137.067
-136.898
-92.1428
-87.0237
-137.586
-87.034
-92.1398
-136.906
-54.5373
-57.9159
-70.2198
-66.2135
-54.6842
-66.0947
-70.226
-57.9347
-26.8788
-15.6631
10.6112
-3.77355
-96.2667
-51.1103
-2.3422
-34.2778
-95.6075
-33.9591
-2.32181
-51.0091
-27.3421
-3.75204
10.6155
-15.6317
66.8456
127.343
194.149
76.5304
58.4953
82.8007
181.55
126.358
58.1762
127.361
181.178
83.0389
67.2954
76.3721
193.735
127.929
-46.3589
-43.9215
-46.3286
-49.4029
-41.8171
-44.44
-44.6918
-42.2369
-55.8095
-58.04
-50.4718
-49.6574
-65.8811
-55.4538
-52.2768
-61.1915
-46.3524
-49.4294
-46.3605
-43.928
-65.9646
-61.2873
-52.3815
-55.5285
-55.9181
-49.7549
-50.5824
-58.1138
-41.8553
-42.2588
-44.7352
-44.4791
-48.4479
-51.4312
-48.1782
-45.9529
-48.4408
-45.9608
-48.1802
-51.4249
-46.7177
-48.5028
-47.3581
-45.2832
-46.6661
-45.2499
-47.352
-48.4936
-89.2287
-79.1853
-87.3583
-76.9105
-64.5913
-76.9088
-84.1183
-70.3412
-65.336
-70.012
-84.1529
-76.9522
-89.2212
-77.04
-87.3219
-79.0112
-43.3877
-55.5352
-51.9668
-46.3268
-59.6388
-64.1074
-55.4249
-53.3319
-50.8456
-52.4855
-54.2179
-57.774
-54.5966
-49.9472
-51.3942
-53.4865
-43.4642
-46.3283
-51.8357
-55.4513
-54.6828
-53.5232
-51.3032
-49.9995
-50.6134
-57.5779
-54.0212
-52.4527
-59.6368
-53.2338
-55.2957
-64.1236
-49.4465
-49.524
-49.9174
-50.5834
-49.5715
-49.5188
-49.8704
-49.5151
-54.9774
-54.192
-51.0339
-50.3486
-54.967
-50.3544
-51.0454
-54.1994
-62.8795
-61.7301
-62.5461
-70.5048
-44.4074
-41.9355
-51.8582
-53.3654
-44.3543
-53.5386
-51.8904
-41.9167
-62.7667
-70.5293
-62.5798
-61.8668
-51.4318
-51.6973
-51.8306
-51.1717
-51.3816
-51.1225
-51.8082
-51.6833
-39.9761
-34.1088
-44.3376
-46.8917
-40.2971
-47.0839
-44.4036
-34.2639
-99.2289
-194.249
-193.583
-65.8716
-66.215
-54.644
-71.6622
-4.4636
-103.609
-41.6972
-42.2278
-45.8597
-191.959
-99.5586
-196.505
-66.2222
-65.8733
-54.6087
-1.44037
-70.3256
-107.467
-41.995
-41.3016
-46.03
-48.767
-45.7504
-47.7011
-48.795
-43.9363
-41.8263
-42.383
-46.6181
-77.308
-71.7189
-73.2152
-84.4278
-57.446
-56.703
-58.3933
-60.5566
-48.6712
-48.6453
-45.722
-47.6881
-44.0673
-46.6986
-41.886
-42.4639
-77.5101
-84.7172
-71.8594
-73.3997
-57.5874
-60.7348
-56.8185
-58.5229
-103.433
-94.6339
-174.252
49.2277
-181.15
-180.974
-156.835
-109.834
-73.9301
-65.1397
-70.7149
-71.8981
-52.2931
-49.5595
-56.5762
-49.2935
-58.2559
-58.2419
-55.6195
-53.6907
-50.0259
-48.6329
-51.5368
-48.5812
-0.753483
-0.960615
-1.27797
32.8809
-94.4425
-88.1054
-86.5936
-66.065
-36.311
-36.2324
-40.0522
-33.0817
-55.0899
-54.6414
-53.7008
-58.1906
-101.561
-93.946
-174.035
50.8807
-74.0056
-65.3441
-70.8473
-71.9759
-52.1105
-49.4027
-56.3342
-49.1906
-50.1192
-48.2638
-50.9752
-48.5905
-95.3988
-88.4466
-86.8921
-65.8526
-55.3019
-54.7807
-53.7487
-58.2223
-43.3438
-41.9381
-42.385
-43.7146
-52.9598
-55.9525
-55.8531
-52.884
-54.2729
-54.2676
-56.165
-53.1164
-46.0872
-48.9129
-47.4193
-48.127
-50.2197
-50.2203
-49.2753
-50.057
-64.5415
-62.4016
-61.3301
-67.882
-63.2493
-63.1927
-60.4001
-68.6663
-74.8027
-74.8261
-76.3356
-72.921
-43.3223
-41.9335
-42.3958
-43.6741
-53.0074
-56.021
-55.9158
-52.9681
-46.1847
-49.0274
-47.5042
-48.1456
-64.6407
-62.5007
-61.4241
-68.0208
-80.523
-74.951
-75.591
-71.3412
-80.6287
-75.0293
-75.6982
-71.4204
-85.7161
-79.6653
-79.6639
-74.9853
13.5998
9.43248
9.43175
4.15728
202.365
202.444
200.75
202.345
-46.4993
-48.4512
-47.6294
-49.7705
-46.5412
-48.5112
-47.7525
-49.8665
-47.7123
-48.0645
-47.628
-47.7141
-92.5242
-92.8337
-88.5191
-92.5547
-53.4575
-53.1644
-52.5748
-52.014
-53.2446
-53.0145
-52.4421
-51.9342
-50.335
-49.8442
-49.8347
-49.602
-54.2919
-56.8708
-56.9109
-59.8143
-48.9035
-50.7633
-47.1649
-48.8566
-95.0406
-100.955
-177.949
58.0035
-198.599
-179.167
-157.825
-79.9519
-114.119
-88.1269
-101.668
-104.774
-57.8897
-54.3805
-63.8865
-51.7251
-60.9754
-59.3692
-56.4462
-53.527
-53.9639
-51.4186
-54.3899
-51.5948
-80.139
-92.7345
-116.114
20.0578
1.08481
2.78212
-9.21369
25.9448
-77.7029
-78.6467
-89.7461
-49.9504
-43.4996
-47.2148
-51.8102
-43.7824
-39.6025
-37.5952
-41.1242
-36.3934
-49.3352
-52.9092
-51.9677
-49.9006
-197.716
-179.016
-157.95
-80.9961
-92.7709
-106.566
-178.009
58.1854
-114.366
-88.0781
-101.719
-104.787
-60.9953
-59.3627
-56.4338
-53.4853
-57.794
-54.2648
-63.8325
-51.6433
-54.0341
-51.3002
-54.3003
-51.6354
1.80285
3.08056
-9.13845
26.6984
-79.0071
-92.3438
-117.212
22.6931
-78.7036
-78.7903
-90.2267
-50.2996
-39.4062
-37.3559
-41.0107
-35.9823
-43.142
-47.0172
-51.5334
-43.5578
-49.4183
-52.9453
-51.9369
-49.9556
-59.7007
-61.1067
-63.6975
-60.8409
-44.2138
-43.6833
-44.3483
-45.5421
-49.7354
-51.2181
-52.4317
-48.9195
-52.0727
-53.3826
-54.6038
-51.4915
-48.2438
-61.4199
-48.3525
-58.1072
-40.9843
-41.3456
-40.7371
-43.4832
-43.114
-44.5576
-43.252
-44.1704
-48.2263
-50.0959
-48.381
-49.6596
-82.9893
-85.6606
-79.0051
-86.0424
-65.2683
-59.8022
-63.7634
-61.7123
-69.832
-66.9137
-65.8991
-74.5997
-75.2626
-63.8422
-62.0553
-68.8511
-56.463
-55.6009
-54.8525
-60.9619
-53.9809
-51.0733
-52.9233
-52.6655
-59.1967
-60.4846
-58.233
-62.866
-68.9846
-73.1939
-72.0155
-70.0459
-58.8188
-61.8781
-63.4958
-60.6019
-52.035
-53.3638
-54.5701
-51.4748
-44.2167
-43.6866
-44.3567
-45.5437
-49.7163
-51.2276
-52.4139
-48.9167
-48.4162
-59.7698
-48.6514
-59.4212
-48.3156
-50.1104
-48.4109
-49.681
-41.0173
-41.3744
-40.7718
-43.5621
-43.1699
-44.6048
-43.2927
-44.2404
-83.2665
-85.937
-79.2242
-85.8596
-74.9615
-63.8225
-62.0912
-68.7726
-65.4153
-59.8773
-63.8614
-61.7793
-69.9454
-67.0439
-66.0236
-74.8268
-56.5708
-55.6314
-54.9058
-61.2148
-69.1315
-73.2608
-72.1389
-70.1362
-54.0808
-51.2727
-53.0732
-52.7662
-59.2952
-60.5814
-58.3436
-62.9171
-124.634
-95.9315
-107.345
-107.44
164.764
196.513
185.963
184.75
-123.344
-101.292
-111.33
-111.322
154.577
188.532
182.761
182.681
-73.4227
-74.4571
-79.1391
-70.1013
-75.8448
-78.313
-82.9638
-72.536
-62.2061
-58.3197
-59.7192
-57.429
-49.7547
-49.3435
-51.2854
-47.5833
-52.9954
-51.6165
-52.1626
-52.1566
-52.0172
-51.8219
-52.1329
-52.1086
-53.4149
-54.0928
-54.323
-54.6987
-49.2323
-49.6669
-49.2887
-49.9393
-0.389691
8.21133
2.52483
2.53049
114.827
158.061
134.635
134.593
-79.1963
-76.7097
-73.4264
-84.3032
-3.56452
6.7888
6.11901
-2.23589
-44.0313
-48.859
-46.6035
-46.6016
-32.425
-39.7399
-34.559
-34.4915
-52.612
-52.1478
-52.3724
-52.2795
-57.3617
-56.9639
-59.691
-54.9062
-124.817
-96.0774
-107.48
-107.648
165.619
196.192
184.486
183.906
-73.3153
-74.521
-79.2108
-70.1534
-75.8701
-78.3166
-82.9718
-72.5525
-62.0586
-58.1566
-57.2738
-59.5584
-49.6026
-49.2831
-51.2021
-47.4948
-53.2479
-53.9842
-54.309
-54.5594
-49.1758
-49.6321
-49.2145
-49.9091
-79.3429
-76.8693
-84.5129
-73.5503
-3.46014
6.80949
-2.18539
6.14425
-52.6094
-52.1122
-52.252
-52.3158
-57.4228
-56.9962
-54.95
-59.7606
-43.5502
-44.7423
-44.5291
-43.6812
-46.0748
-47.1224
-47.003
-46.6018
-60.1229
-65.7613
-62.7791
-63.3545
-51.0472
-49.4389
-48.7129
-52.124
-61.0987
-67.1945
-63.9002
-63.9099
-50.6828
-49.0481
-49.7007
-49.6992
-47.0279
-47.1802
-45.417
-48.707
-48.9693
-50.5539
-48.8006
-50.1307
-48.2616
-47.7124
-47.9008
-47.8968
-50.0067
-50.9802
-50.9651
-50.958
-57.9504
-53.1183
-55.7503
-56.0683
-81.7796
-89.2254
-86.1668
-82.3044
-36.3361
-11.094
-19.9574
-20.0254
-85.9518
-86.5662
-87.6304
-87.6808
-80.1504
-83.3493
-81.515
-81.5371
-69.2169
-65.394
-67.8106
-67.8613
-43.5649
-44.7699
-44.5468
-43.7034
-46.0872
-47.1287
-47.0132
-46.6145
-60.145
-65.8645
-63.4064
-62.7943
-51.108
-49.4936
-48.7624
-52.1766
-47.0924
-47.2333
-48.7463
-45.4688
-48.9596
-50.4612
-48.6997
-50.1075
-58.0517
-53.2845
-56.2434
-55.8005
-82.1085
-89.2495
-82.3587
-86.1879
-124.711
-106.069
-107.546
-94.6901
-62.5528
-58.6311
-64.2902
-62.5371
-70.3954
-66.3377
-68.7786
-65.3573
-116.628
-101.119
-109.831
-99.4107
-124.792
-106.141
-107.64
-94.7694
-117.103
-101.39
-110.086
-99.5504
-70.5106
-66.4439
-68.8689
-65.4124
-62.4943
-58.6062
-64.2956
-62.527
-121.671
-108.665
-110.247
-98.7961
-121.692
-108.675
-110.252
-98.7974
-61.659
-59.3732
-65.3513
-63.0558
-61.8159
-59.5245
-65.3103
-63.1168
-10.702
-16.4836
-3.66208
-2.78046
-31.4874
-40.8716
-16.5857
-21.0058
-31.2869
-40.6758
-16.482
-20.9249
-10.543
-16.5767
-3.67894
-2.84644
142.27
143.819
180.604
181.907
118.824
106.218
143.931
132.674
107.17
117.166
132.754
140.041
145.201
143.16
181.451
179.764
-45.4952
-46.8563
-45.4961
-46.9007
-41.9904
-42.5474
-42.8511
-43.2779
-53.4184
-55.1705
-51.626
-53.9109
-59.4969
-61.0384
-55.8196
-57.8309
-45.498
-46.8626
-45.5043
-46.9061
-59.5879
-61.1012
-55.9017
-57.9639
-53.5508
-55.2937
-51.7299
-54.0781
-42.0199
-42.581
-42.8766
-43.3131
-47.8782
-49.3037
-47.8478
-48.999
-49.3003
-47.8822
-48.9974
-47.8511
-47.3671
-46.5964
-47.3318
-46.7686
-46.5767
-47.3389
-46.7551
-47.3168
-83.5056
-83.3223
-82.0693
-85.5281
-72.3618
-74.7319
-77.4367
-78.8081
-74.8715
-72.4269
-78.8742
-77.473
-83.2635
-83.8362
-85.5452
-82.0634
-48.6266
-45.0465
-50.8526
-47.8865
-58.3157
-55.4491
-57.4389
-55.3994
-53.9943
-52.4439
-54.3619
-52.7238
-53.0078
-52.301
-52.2513
-51.2638
-48.2771
-45.6939
-50.1212
-47.4331
-53.0464
-52.4061
-52.2773
-51.2344
-53.7366
-52.3186
-54.1527
-52.603
-58.2284
-55.3837
-57.3258
-55.2676
-52.4528
-50.4836
-51.6711
-51.5119
-52.1556
-50.3872
-51.5545
-51.4748
-52.9799
-51.8145
-51.9806
-51.2644
-52.9849
-51.8134
-51.9884
-51.27
-66.5199
-67.4827
-65.1086
-67.262
-44.9356
-47.9677
-47.1136
-49.6922
-44.9727
-48.0239
-47.1311
-49.7191
-66.5159
-67.4988
-65.1905
-67.3045
-51.3804
-51.7533
-51.4697
-52.0463
-51.7313
-51.3522
-52.0095
-51.4329
-36.0998
-39.3871
-36.1012
-41.48
-39.6907
-36.2747
-41.7581
-36.4987
-173.073
47.9039
-168.094
-59.2649
-144.467
-136.65
-63.9158
-53.0702
-57.6072
-53.8985
-57.3593
-54.492
-129.786
23.3913
-24.3601
36.0758
-97.8411
-52.8541
-47.7828
-41.6597
-42.6281
-39.305
-50.3494
-45.9277
-168.618
-58.5911
-172.994
48.2043
-144.69
-136.441
-57.6083
-53.8457
-63.9099
-53.0048
-57.3594
-54.5067
-24.9703
37.4588
-133.877
26.0416
-99.6815
-54.4571
-42.5881
-39.0703
-47.619
-41.3759
-50.3424
-45.931
-51.5885
-53.1761
-45.5036
-46.7541
-50.817
-47.4248
-52.0948
-49.3976
-43.4652
-50.5653
-41.2877
-44.7811
-42.2417
-43.1745
-47.2747
-49.7586
-75.381
-92.5804
-69.9097
-67.2148
-68.6734
-79.6535
-96.0096
-87.7053
-55.7133
-59.4045
-55.55
-55.1061
-57.2139
-61.5438
-65.0962
-63.7767
-51.4552
-53.0137
-51.994
-49.3682
-45.5088
-46.72
-50.7685
-47.4107
-43.5916
-50.8166
-47.3473
-49.8736
-41.331
-44.8048
-42.2887
-43.2456
-75.8554
-92.988
-96.1256
-87.9852
-69.9967
-67.2909
-68.8094
-79.8665
-55.7968
-59.6562
-65.6133
-63.9898
-55.6604
-55.1819
-57.3127
-61.746
-179.318
54.067
-144.003
52.2122
-152.846
-146.719
128.672
131.318
-156.476
-103.687
-156.479
-103.784
-137.084
-137.094
63.1951
63.0685
-81.9347
-84.354
-64.3214
-64.5654
-77.3016
-68.6804
-79.7308
-69.7293
-61.1738
-51.2041
-55.3959
-47.4585
-62.0701
-58.2752
-50.4909
-48.5396
-55.7978
-53.7074
-55.7864
-53.6703
-54.1556
-54.1556
-51.7206
-51.712
-52.6089
-50.4678
-56.1107
-51.7742
-52.5579
-52.8923
-48.5358
-49.3892
-3.55159
25.9228
-3.31125
25.333
-2.34764
-2.3513
89.3608
89.4327
-93.3091
-50.1072
-81.0042
-79.3304
-77.9736
-86.7478
-14.3412
-26.2631
-40.3245
-34.0481
-40.2598
-33.8286
-41.7041
-41.6877
-33.4647
-33.5473
-52.9092
-54.6255
-54.3038
-60.2913
-52.719
-53.2689
-59.3283
-55.9209
-179.27
54.1617
-143.962
52.7954
-152.997
-146.948
132.098
129.49
-81.9891
-84.3729
-64.5018
-64.8108
-77.4769
-68.7673
-79.7592
-69.8156
-61.0596
-51.1265
-55.8663
-47.2997
-58.1168
-61.9661
-50.428
-48.3995
-52.512
-50.4353
-55.9447
-50.4536
-52.1853
-52.7756
-48.3923
-49.3891
-93.4759
-50.1705
-81.1948
-79.1226
-86.9377
-78.1308
-25.2461
-14.0858
-52.7851
-54.5951
-54.3687
-60.4779
-53.2926
-52.7158
-55.9507
-59.3693
-43.7421
-44.5245
-41.6786
-43.4055
-43.4438
-42.6464
-45.8532
-44.7387
-53.9307
-50.5113
-59.0631
-56.4976
-56.9175
-59.1339
-50.4525
-53.7511
-55.6454
-52.715
-55.6301
-52.7062
-58.2775
-58.2863
-51.7089
-51.7051
-44.7034
-45.7026
-49.6398
-49.8073
-45.5459
-48.6082
-47.3077
-49.3136
-49.0909
-49.9953
-49.0994
-49.9932
-48.6766
-48.6729
-49.5198
-49.5155
-63.4301
-70.9846
-59.6906
-65.0473
-58.7159
-60.306
-77.8833
-72.369
-61.1934
-68.342
-61.2541
-68.2994
-50.6732
-50.5985
-77.5202
-77.4759
-75.4464
-72.3137
-75.4851
-72.3418
-77.7149
-77.7298
-70.8776
-70.8755
-43.7377
-44.5139
-41.7018
-43.4156
-43.4527
-42.6629
-45.8606
-44.7622
-53.9505
-50.5367
-59.1312
-56.5628
-59.1997
-56.9472
-50.4948
-53.8072
-44.7449
-45.7244
-49.7106
-49.8653
-48.6765
-45.5984
-47.28
-49.3676
-63.5241
-71.0866
-59.7876
-65.1162
-60.4202
-58.8152
-72.9363
-77.825
-86.8873
-87.4952
-79.903
-70.7747
-72.176
-81.3527
-67.8298
-68.7975
-86.9964
-87.6438
-79.9829
-70.8328
-81.5125
-72.2699
-68.8644
-67.8907
-92.5034
-92.5012
-85.0055
-74.3511
-85.0033
-74.3484
-70.6148
-70.6179
12.4391
12.4367
11.9099
2.71044
2.63345
11.9327
-1.41255
-1.40491