# vtk DataFile Version 2.0
tri_press
ASCII
DATASET UNSTRUCTURED_GRID
POINTS 3682 float
-0.695 0.135 -2.18804
-0.685 0.185 2.14591
-0.715 0.76275 -2.015
-0.745 0.995 2.12435
0.695 0.135 -2.18719
0.665 0.185 2.1461
0.715 0.76275 -2.015
0.745 0.995 2.12435
-0.711223 0.132111 -0.74339
-0.70682 0.149847 0.70126
-0.809616 0.924783 -0.635217
-0.803581 0.986164 0.744567
0.70098 0.135686 -0.74276
0.696397 0.146936 0.70167
0.809632 0.924799 -0.635217
0.803586 0.986169 0.744567
-1.4518 -0.298619 -3.36743
-1.44823 -0.246717 -2.23772
-1.45923 -0.243325 -0.791408
-1.45074 -0.243998 0.667964
-1.42985 -0.2201 2.11537
-1.4269 -0.19307 3.25047
-1.43106 -0.162756 4.37559
-1.4483 0.0590305 -3.30438
-1.44966 0.128643 -2.18173
-1.47219 0.149701 -0.748011
-1.45791 0.15983 0.691561
-1.42397 0.183969 2.12652
-1.42067 0.210675 3.26069
-1.42645 0.240538 4.3879
-1.45707 0.746582 -3.15997
-1.47759 0.814524 -2.03451
-1.54433 0.931665 -0.644986
-1.53421 0.983538 0.73994
-1.4787 0.999798 2.13068
-1.44813 1.02424 3.26748
-1.43812 1.05296 4.40512
-1.4653 1.88142 -2.99217
-1.48128 1.96163 -1.87648
-1.51476 2.08714 -0.507963
-1.53063 2.18101 0.846569
-1.51541 2.22763 2.21572
-1.49147 2.25222 3.33272
-1.47099 2.27708 4.46331
-0.720052 -0.296012 -3.37141
-0.711392 -0.241258 -2.24361
-0.721141 -0.251289 -0.790409
-0.720896 -0.252614 0.67629
-0.710418 -0.222448 2.1298
-0.703888 -0.195508 3.26028
-0.70401 -0.165487 4.38131
-0.713651 0.055683 -3.30551
-0.690431 0.208922 3.26878
-0.696102 0.23805 4.39223
-0.716584 0.723986 -3.15184
-0.707546 1.02163 3.26626
-0.700489 1.05074 4.40492
-0.713774 1.866 -2.98414
-0.721319 1.94715 -1.86766
-0.749778 2.08305 -0.502616
-0.771266 2.18333 0.846015
-0.765286 2.22901 2.21129
-0.745311 2.25224 3.3283
-0.727334 2.27656 4.46012
0.713916 -0.295579 -3.37084
0.703935 -0.240501 -2.24291
0.70335 -0.249236 -0.789839
0.6935 -0.254073 0.676684
0.675449 -0.223095 2.13004
0.709271 -0.195938 3.26049
0.733572 -0.165891 4.38152
0.715819 0.055922 -3.30497
0.723365 0.20863 3.26895
0.744763 0.237684 4.39242
0.732093 0.724119 -3.15157
0.754467 1.02142 3.26636
0.760596 1.05044 4.40508
0.780583 1.86623 -2.98392
0.79055 1.94735 -1.86749
0.789667 2.08322 -0.502477
0.768037 2.18336 0.846138
0.750352 2.22888 2.21141
0.752409 2.25205 3.32843
0.75978 2.27634 4.46027
1.44024 -0.297637 -3.36642
1.43341 -0.24514 -2.23659
1.43811 -0.240789 -0.790443
1.42546 -0.245395 0.668667
1.40371 -0.221586 2.11587
1.42807 -0.194052 3.2509
1.45486 -0.163573 4.37601
1.44366 0.0597307 -3.30343
1.43988 0.129654 -2.18063
1.45781 0.152735 -0.747106
1.44541 0.158058 0.692197
1.41141 0.182556 2.12694
1.44042 0.209811 3.26106
1.46614 0.239768 4.38829
1.46829 0.747013 -3.15936
1.47839 0.814867 -2.03403
1.5427 0.932756 -0.644597
1.53254 0.983231 0.740229
1.48051 0.99892 2.1309
1.48054 1.02358 3.26775
1.48902 1.05232 4.40545
1.52527 1.88192 -2.99171
1.53954 1.96209 -1.8761
1.54879 2.08752 -0.50764
1.53156 2.18107 0.846854
1.50772 2.22735 2.21599
1.50128 2.25182 3.33301
1.50289 2.27664 4.46363
-0.728917 0.448875 -2.12544
0 0.131429 -2.19119
-0.697959 0.138707 -1.46572
-0.77943 0.59 2.19956
-0.00999999 0.181427 2.14958
-0.695617 0.167717 1.42359
0 0.836535 -2.08879
-0.793526 0.874984 -1.32511
0 1.0568 2.18615
-0.788239 1.00453 1.43446
0.727998 0.448875 -2.12409
0.694658 0.138675 -1.46498
0.774197 0.59 2.20442
0.682652 0.164015 1.42389
0.79353 0.874989 -1.32511
0.788236 1.00453 1.43446
-0.689878 0.160122 -0.021065
-0.868666 0.528447 -0.689303
-0.00512125 0.124236 -0.743075
-0.87937 0.568006 0.722913
-0.00521105 0.140613 0.701465
-0.807047 0.955922 0.054675
8.13171e-06 1.15854 -0.635217
2.26276e-06 1.40154 0.744567
0.679893 0.160107 -0.020545
0.86893 0.530243 -0.688989
0.879266 0.566552 0.723118
0.807042 0.955917 0.054675
-0.888282 0.488661 -1.39541
0.888277 0.489559 -1.39504
-0.00256062 0.136302 -1.46535
4.06585e-06 0.97855 -1.32511
0 0.448875 -2.34503
-0.869899 0.548226 0.016805
0.869922 0.548398 0.017065
-0.00516615 0.162591 -0.020805
5.19723e-06 1.40517 0.054675
-0.893423 0.579003 1.42902
0.894473 0.578276 1.42917
-0.00760552 0.164658 1.42374
1.13138e-06 1.183 1.43446
-0.005 0.59 2.2991
-0.684175 0.291938 -2.12895
-0.3475 0.131431 -2.1914
-0.696611 0.136723 -1.82688
-0.727127 0.3875 2.16765
-0.3475 0.181681 2.14928
-0.691402 0.175265 1.78475
-0.743951 0.605813 -2.09221
-0.3575 0.824321 -2.07657
-0.772519 0.837123 -1.67005
-0.761594 0.7925 2.16133
-0.3725 1.04661 2.17596
-0.774262 1.00741 1.7794
0.3475 0.131433 -2.19097
0.68525 0.291938 -2.12939
0.694961 0.136706 -1.82608
0.3275 0.181706 2.14935
0.715426 0.3875 2.17109
0.673119 0.175214 1.78499
0.3575 0.824296 -2.07655
0.74401 0.605813 -2.09206
0.772528 0.837132 -1.67005
0.3725 1.04662 2.17597
0.758036 0.7925 2.16282
0.774282 1.00743 1.7794
-0.702356 0.137644 -1.10455
-0.692238 0.154429 -0.382228
-0.853905 0.298298 -0.716347
-0.356602 0.131313 -0.743233
-0.701087 0.158913 1.06242
-0.691866 0.161467 0.340098
-0.859546 0.325701 0.712087
-0.354139 0.148982 0.701363
-0.806728 0.905041 -0.980163
-0.866126 0.740107 -0.66226
-0.807996 0.940017 -0.290271
-0.447312 1.12668 -0.635217
-0.797393 0.996831 1.08951
-0.87027 0.791482 0.73374
-0.807117 0.972846 0.399621
-0.493473 1.37722 0.744567
0.697385 0.137615 -1.10387
0.347659 0.130503 -0.742918
0.683921 0.154412 -0.381653
0.853889 0.298497 -0.715874
0.686113 0.158887 1.06278
0.344463 0.146035 0.701568
0.680214 0.161452 0.340563
0.861083 0.320118 0.712394
0.806724 0.905036 -0.980163
0.447323 1.12667 -0.635217
0.866053 0.740907 -0.662103
0.807974 0.939994 -0.290271
0.797395 0.996833 1.08951
0.493474 1.37721 0.744567
0.870393 0.790844 0.733843
0.807109 0.972838 0.399621
-0.880827 0.468768 -1.76042
-0.364458 0.448875 -2.32015
-0.00128031 0.134867 -1.82827
0 0.290152 -2.29632
-0.888788 0.313684 -1.43056
-0.35026 0.136246 -1.46553
-0.877511 0.584501 1.81429
-0.392215 0.59 2.31422
-0.00880275 0.178711 1.78666
-0.00749999 0.385714 2.25158
-0.885202 0.37336 1.4263
-0.351611 0.165019 1.42366
2.03293e-06 0.924863 -1.70695
0 0.642705 -2.21914
-0.886203 0.681822 -1.36026
-0.396761 0.966246 -1.32511
5.6569e-07 1.08605 1.8103
-0.0025 0.8234 2.25021
-0.892798 0.791767 1.43174
-0.394119 1.1613 1.43446
0.883041 0.469217 -1.75957
0.363999 0.448875 -2.3205
0.888783 0.314117 -1.43001
0.346049 0.13625 -1.46516
0.877166 0.584138 1.8168
0.384598 0.59 2.31295
0.892543 0.371146 1.42653
0.337523 0.164284 1.42381
0.886198 0.682274 -1.36008
0.396767 0.966245 -1.32511
0.892878 0.791402 1.43182
0.394119 1.16131 1.43446
-0.852488 0.317874 -0.00213
-0.348292 0.159816 -0.020935
-0.887273 0.508554 -1.04236
-0.869234 0.538336 -0.336249
-0.00384094 0.13286 -1.10421
-0.0051437 0.15552 -0.38194
-0.870602 0.558116 0.369859
-0.89553 0.573504 1.07597
-0.0051886 0.163447 0.34033
-0.00640828 0.155965 1.0626
-0.866648 0.766162 0.03574
-0.502961 1.37943 0.054675
6.09878e-06 1.00463 -0.980163
6.66447e-06 1.33077 -0.290271
3.73e-06 1.41478 0.399621
1.69707e-06 1.30504 1.08951
0.853491 0.314961 -0.00174001
0.338141 0.159794 -0.020675
0.887287 0.509901 -1.04202
0.869335 0.53932 -0.335962
0.870522 0.557475 0.370092
0.895439 0.572414 1.07615
0.866637 0.766235 0.03587
0.502941 1.37938 0.054675
-0.878306 0.302811 -1.79365
-0.888543 0.321981 -1.07346
-0.872439 0.704219 -1.01126
-0.863775 0.643817 -1.71524
0.878213 0.303027 -1.79283
0.863902 0.644043 -1.71481
0.872194 0.704897 -1.01109
0.88852 0.323541 -1.07294
-0.34888 0.134804 -1.82757
0.346774 0.134806 -1.82717
0.346989 0.132831 -1.10404
-0.354216 0.132828 -1.10438
-0.37713 0.912315 -1.6885
-0.400782 1.01005 -0.980163
0.400794 1.01006 -0.980163
0.377134 0.912303 -1.6885
-0.355979 0.291045 -2.27199
-0.360979 0.624259 -2.26962
0.36075 0.624259 -2.26945
0.35575 0.291045 -2.27213
-0.851191 0.309089 -0.359238
-0.851177 0.324208 0.354978
-0.867515 0.77835 0.38474
-0.866428 0.753155 -0.31326
0.851279 0.307935 -0.358807
0.866389 0.753593 -0.313116
0.867533 0.778049 0.384856
0.851294 0.320536 0.355327
-0.348189 0.154081 -0.382084
0.338443 0.154062 -0.381796
0.337232 0.161053 0.340446
-0.347878 0.161074 0.340214
-0.494925 1.29263 -0.290271
-0.504772 1.39143 0.399621
0.504775 1.39143 0.399621
0.49491 1.29258 -0.290271
-0.886826 0.366143 1.0692
-0.861568 0.38043 1.79952
-0.869072 0.792133 1.79685
-0.891576 0.784426 1.08274
0.888053 0.363945 1.06946
0.891723 0.783881 1.08283
0.868929 0.791951 1.7981
0.877453 0.379323 1.80089
-0.353813 0.155974 1.06251
0.341558 0.15596 1.06269
0.332512 0.178466 1.78582
-0.349556 0.17846 1.7857
-0.397954 1.28561 1.08951
-0.383309 1.08001 1.79485
0.383309 1.08001 1.79485
0.397956 1.28565 1.08951
-0.369858 0.386607 2.24917
0.356049 0.386607 2.2483
0.378549 0.80795 2.23778
-0.382358 0.80795 2.23739
-0.672072 0.213469 -2.14098
-0.52125 0.131445 -2.19149
-0.695875 0.135791 -2.00746
-0.684414 0.28625 2.13513
-0.51625 0.182003 2.14893
-0.692385 0.175949 1.96533
-0.72058 0.684281 -2.04471
-0.53625 0.794621 -2.04687
-0.754512 0.810689 -1.84253
-0.75291 0.89375 2.14245
-0.55875 1.03182 2.16117
-0.763675 1.00525 1.95188
0.52125 0.131447 -2.19085
0.672555 0.213469 -2.14072
0.695048 0.135785 -2.00664
0.49625 0.182034 2.14904
0.665711 0.28625 2.13409
0.673053 0.176113 1.96555
0.53625 0.794616 -2.04687
0.720694 0.684281 -2.04472
0.754502 0.810679 -1.84253
0.55875 1.03188 2.16123
0.750866 0.89375 2.14294
0.763653 1.00523 1.95188
-0.718499 0.123167 -0.923971
-0.695588 0.149412 -0.562809
-0.852368 0.180302 -0.729868
-0.533922 0.131692 -0.743311
-0.715706 0.142627 0.881841
-0.701499 0.153501 0.520679
-0.853169 0.202781 0.706673
-0.530483 0.149408 0.701311
-0.808923 0.915662 -0.80769
-0.847443 0.837231 -0.648739
-0.808533 0.932127 -0.462744
-0.654153 1.07711 -0.635217
-0.800831 0.991841 0.91704
-0.84638 0.893551 0.739153
-0.805108 0.979264 0.572094
-0.655319 1.19528 0.744567
0.712717 0.123116 -0.923314
0.523193 0.135348 -0.742839
0.688108 0.149392 -0.562206
0.852268 0.179675 -0.729317
0.70373 0.140436 0.882224
0.520445 0.146457 0.701619
0.689014 0.153486 0.521116
0.852924 0.196435 0.707032
0.808911 0.915651 -0.80769
0.654158 1.0771 -0.635217
0.847345 0.837604 -0.64866
[...]
POINT_DATA 3682
SCALARS point_scalars float 1
LOOKUP_TABLE default
-54.5844
-44.3529
-54.754
-45.4686
-63.0588
-43.3517
-55.2486
-45.6069
-45.553
-35.3061
-53.819
-52.1457
-44.825
-36.2573
-53.9286
-52.2195
-64.7689
-126.093
-48.2773
-31.7325
-46.3592
-44.4469
-34.8511
-49.6397
-105.134
-41.0368
-34.4619
-48.5138
-36.2885
-34.8511
45.1437
-78.6391
-46.3854
-44.6462
-45.956
-38.6136
-35.8668
-44.9453
-57.4852
-86.4959
-65.1824
-44.2755
-44.1605
-44.1605
30.9234
-64.7689
-47.3662
-35.267
-42.426
-36.4994
-32.7739
75.5445
-34.0218
-32.6685
126.651
-36.0418
-35.1714
-60.2803
-45.6073
-80.3958
-70.0081
-41.9849
-38.31
-37.8435
30.8335
-65.6873
-47.7185
-36.0395
-43.5319
-37.2712
-33.5002
74.8633
-34.3504
-33.5927
131.215
-36.1954
-35.4113
-60.5169
-47.8026
-78.1346
-70.0088
-42.0664
-38.4608
-38.2611
-65.6873
-124.393
-41.9015
-32.8673
-46.6699
-43.4301
-35.2004
-61.8103
-104.021
-40.6869
-34.7332
-46.8739
-37.3101
-35.2004
41.5981
-76.3533
-46.3292
-44.7145
-46.1848
-38.4316
-36.2683
-45.602
-57.4859
-87.6704
-65.1559
-44.4708
-44.2861
-44.2861
-13.2102
-183.525
-56.4292
-38.8551
-35.6823
-38.0414
-55.181
-50.7036
-37.0667
-49.7898
-13.7876
-56.5819
-38.7776
-38.6192
-50.7069
-49.957
-32.2866
-41.0314
-45.6783
-37.827
-36.2669
-54.045
13.9095
-73.1981
-32.1702
-40.9252
-37.6218
-53.9531
-64.5504
-64.5277
-58.5567
-19.7467
201.763
-39.1193
-38.9965
-32.6847
-98.9443
-44.9283
-45.5724
-37.1832
-47.4925
-28.1437
7.13271
-183.927
-86.2658
-38.0746
-38.6983
-39.7055
-20.6738
-51.5386
-56.5952
-40.233
-37.4804
-44.975
-182.918
1.56619
-86.2328
-38.4524
-37.6429
-40.9574
-51.5341
-21.553
-56.6802
-37.5941
-40.2448
-45.1491
-42.2058
-35.378
-39.843
-45.659
-38.9283
-31.5063
-33.3622
-34.7686
-41.4231
-44.5213
-57.0236
5.20399
-52.3576
-43.6646
-52.2778
-69.3108
-42.6584
-45.5352
-35.337
-39.5767
-39.2471
-35.4493
-30.998
-33.1569
-41.6369
5.12556
-44.4707
-56.8638
-52.5102
-69.3052
-43.6599
-52.2397
-86.7337
184.037
-88.9631
168.054
-65.3704
-57.2432
-48.6056
-33.4695
-36.0363
-27.1183
-43.92
-37.3317
-37.7439
154.79
-63.7575
-24.7557
-42.5184
-35.2504
-46.3101
-47.947
-88.4153
183.353
-65.3842
-57.2642
-49.1806
-33.8217
-44.175
-37.6006
-63.6952
-24.7115
-46.7268
-48.043
-36.0023
-32.5053
-50.9782
-39.578
-46.4424
-36.3879
-38.116
-43.7809
-31.5412
-38.2296
-44.8298
-87.6992
2.16188
-51.3277
-83.6717
-57.0422
-35.8503
-32.4156
-50.7759
-39.5127
-37.9142
-44.1263
-44.7275
-87.697
-84.7378
-51.4621
-47.9795
-70.9104
-85.7583
-71.207
-47.8418
-51.4151
-87.4429
-87.2604
-45.4064
-45.3553
-40.2988
-7.14328
-6.62914
-40.3105
179.273
126.092
126.211
179.683
-36.6736
-35.3496
-43.639
-45.613
-36.5825
-45.5359
-43.538
-35.0127
-35.9981
-35.9467
-31.391
-31.571
-58.2623
-74.3855
-74.3664
-58.1508
-40.9966
-47.5574
-47.7616
-45.9743
-42.6986
-46.1811
-48.1588
-52.1226
-38.2376
-38.4017
-36.8351
-36.7754
-57.2873
-42.4924
-42.5114
-57.3152
-32.7155
-33.5983
-35.7958
-35.6628
3.40491
-143.144
-133.822
-39.2612
-41.3274
-43.0521
-30.1681
-59.9576
-63.3483
-42.2378
-39.1679
-43.8587
-144.112
-3.46645
-133.482
-41.0329
-39.271
-43.297
-59.852
-30.9658
-63.36
-39.3116
-42.2968
-44.0201
-44.4689
-38.8796
-41.6393
-45.635
-43.7122
-33.618
-34.5108
-35.3864
-45.9347
-48.0204
-57.5111
-28.0817
-51.6398
-47.7166
-52.6299
-58.994
-44.175
-44.8627
-38.7845
-41.3185
-44.5157
-36.1179
-32.7095
-34.9095
-45.8485
-27.612
-47.9576
-57.4414
-51.7452
-59.0041
-47.7583
-52.6345
-1.71526
-13.6799
-91.9423
116.741
-180.438
-179.728
-115.956
31.595
-69.3737
-48.1238
-63.9276
-55.9553
-38.3883
-39.7776
-44.5549
-35.0402
-36.4632
-36.5852
-36.3947
-28.2464
-38.903
-37.4332
-41.6593
-37.6267
-53.4713
-53.4224
-45.6505
112.907
-51.1786
-44.6191
-63.6189
-32.4636
-37.0179
-37.052
-39.7763
-35.7966
-46.5855
-51.6826
-47.8036
-49.7977
-7.93356
-13.7016
-91.1397
117.659
-69.4405
-48.3368
-63.8988
-55.9989
-38.1017
-39.7246
-44.5396
-35.2891
-39.5212
-37.9147
-42.1469
-38.0548
-51.2114
-44.6078
-63.5361
-32.4488
-46.757
-51.8494
-48.086
-49.8391
-33.0024
-31.9897
-33.8294
-32.3066
-40.1679
-42.3008
-44.7009
-39.9286
-45.735
-45.8249
-47.0918
-39.7491
-35.1469
-39.6604
-37.3199
-40.7902
-35.8931
-36.2354
-32.947
-41.6919
-55.509
-52.7498
-48.9326
-68.3459
12.3166
12.2976
13.3359
-8.37294
-72.5933
-72.5935
-78.2658
-65.9106
-32.8951
-31.6796
-33.7326
-32.1824
-40.086
-42.2318
-44.4958
-39.831
-34.7446
-39.5806
-37.1179
-40.8668
-55.4
-52.6813
-48.838
-68.2984
-80.6677
-65.2155
-63.8772
-55.3012
-80.5458
-65.1771
-63.8704
-55.2753
-70.7173
-58.2498
-58.2423
-51.0577
-29.5074
-21.0417
-21.0041
-9.72664
198.894
191.697
194.785
199.222
-37.2916
-39.4712
-38.7188
-41.4911
-36.7956
-39.3748
-38.5674
-41.3794
-32.6429
-33.8319
-32.0457
-32.6036
-97.7322
-101.459
-91.0665
-97.7058
-47.5625
-44.3195
-45.4681
-44.0345
-48.8996
-45.0669
-46.0407
-44.4292
-36.7426
-37.1968
-37.3079
-37.3765
-44.6681
-47.58
-47.6099
-51.3553
-30.092
-28.4871
-36.0161
-29.8143
-98.8111
109.286
-115.059
45.1399
-77.1187
-86.2582
-45.5981
-34.829
-37.7267
-33.1081
-46.8157
-37.5087
-79.0789
62.1987
-46.6329
57.3869
-60.498
-46.537
-45.8505
-36.0156
-39.7867
-35.9011
-46.2188
-43.3073
-114.727
40.4878
-97.2299
109.142
-76.7365
-85.9983
-37.7617
-34.1126
-44.19
-34.8373
-53.2966
-37.8478
-46.6595
57.4628
-78.4867
62.9184
-60.6173
-46.5526
-39.848
-36.049
-46.0839
-36.1432
-46.4907
-43.3636
-48.7651
-44.4
-36.4897
-35.6124
-47.3928
-37.8095
-46.85
-39.3689
-39.6764
-38.4536
-32.8289
-31.481
-34.5815
-41.9393
-33.2658
-42.1652
-46.4403
-17.8374
-44.4634
-45.2127
-50.6742
-85.0365
4.57886
-15.5865
-48.5434
-60.097
-43.2267
-44.7985
-47.4795
-61.6602
-71.5056
-66.4083
-49.0502
-44.5505
-46.8306
-39.3583
-36.6547
-35.5461
-46.9003
-37.6852
-42.4071
-38.6965
-32.8947
-42.4327
-32.6684
-31.1796
-34.1469
-40.1949
-46.366
-18.1748
4.32008
-15.6116
-44.3702
-45.157
-50.5717
-84.8007
-48.7308
-60.1514
-71.499
-66.4221
-43.1474
-44.895
-47.4285
-61.6282
-85.4558
-84.0479
181.627
171.667
-88.706
-88.9163
171.891
173.388
-84.9957
-55.429
-69.4024
-49.8418
-48.3599
-48.4966
-32.7678
-35.7322
-36.365
-36.1911
-28.2339
-28.5382
-42.5697
-47.904
-37.4064
-37.1333
-37.8957
-37.8888
152.325
153.409
-54.1265
-79.557
-33.3201
-15.4471
-42.5247
-42.52
-35.5103
-35.365
-47.5331
-46.1523
-51.9358
-44.906
-88.077
-84.8408
169.092
180.794
-84.8877
-55.4755
-69.3643
-49.9044
-48.989
-49.965
-33.2214
-35.9153
-42.7518
-48.8063
-37.6239
-37.3214
-79.5845
-54.1281
-15.3448
-33.307
-46.4697
-48.0195
-44.9153
-51.9681
-36.2434
-35.7301
-33.5487
-31.955
-51.5595
-50.0885
-37.9086
-42.0332
-46.1916
-46.1676
-36.3055
-36.2819
-36.263
-40.4768
-42.9619
-44.5991
-31.4457
-31.5351
-38.2151
-38.297
-44.1755
-45.3284
-96.3403
-80.2331
-0.0498763
0.0679763
-46.5931
-46.5652
-81.9083
-81.9026
-56.8926
-56.96
-36.0928
-35.4945
-33.4803
-31.829
-49.784
-51.4233
-37.8224
-41.9741
-40.3282
-35.9659
-43.4813
-44.8619
-45.2326
-44.0644
-80.2079
-96.2562
-112.745
-86.1
-82.9454
-95.2702
-56.6083
-46.4385
-55.7008
-53.7193
-45.9857
-52.929
-54.6959
-43.9308
-79.1332
-85.2988
-79.2702
-66.6129
-111.044
-94.1752
-82.4698
-86.1166
-79.1793
-66.6377
-79.2635
-84.4518
-45.9227
-43.8255
-54.7223
-52.94
-50.8322
-53.8055
-55.6589
-46.1501
-117.421
-115.807
-70.4678
-68.1223
-116.785
-68.075
-70.4277
-114.584
-45.503
-47.0637
-50.7687
-48.6617
-45.349
-48.5265
-50.7579
-47.0613
-53.0636
-39.3248
-30.1181
-45.6241
-14.469
11.6064
-10.991
-24.7339
-14.3579
-24.7148
-10.9278
11.587
-52.9135
-45.6389
-30.1401
-39.3134
38.6786
104.884
189.858
45.7733
43.8619
109.825
192.973
118.295
43.8907
119.734
192.973
109.796
37.5902
39.2474
190.485
105.304
-38.573
-34.175
-37.2907
-38.7035
-35.4907
-35.0516
-36.9085
-33.8242
-47.5756
-48.2578
-41.0328
-39.8679
-50.2726
-41.986
-41.9349
-49.7599
-38.5353
-38.6023
-37.1182
-34.0054
-50.2128
-49.6567
-41.836
-41.8985
-47.5532
-39.7324
-40.8997
-48.1703
-34.7527
-33.4242
-36.7294
-34.7473
-39.0957
-39.6359
-33.7582
-33.1778
-39.0075
-33.0998
-33.7354
-39.6517
-32.7924
-32.881
-31.9716
-31.6567
-33.3235
-31.8605
-32.032
-33.0483
-68.9779
-75.2701
-101.694
-9.12834
-60.707
-76.9972
-89.2989
-64.0655
-60.6956
-64.0235
-89.2929
-76.9955
-70.7553
-9.14079
-101.68
-75.1706
-43.5533
-40.148
-43.1577
-41.0493
-47.9225
-44.5268
-47.2487
-47.3478
-45.2035
-46.9659
-47.7539
-45.5257
-48.1801
-41.5416
-44.7274
-48.5258
-41.8757
-40.8033
-43.6332
-40.6294
-48.2957
-48.7665
-45.1059
-41.6438
-45.4494
-45.6747
-48.5298
-47.2497
-45.9097
-47.2462
-48.9407
-44.1004
-41.6085
-41.7417
-37.3566
-37.529
-42.007
-37.8964
-37.4616
-41.8137
-39.2961
-36.7859
-36.9198
-38.0502
-39.2295
-37.6899
-36.8134
-36.7255
-58.8537
-54.6562
-51.5508
-66.2267
-41.2064
-39.7248
-44.6966
-45.9178
-41.2822
-45.9663
-44.751
-39.7527
-58.8744
-66.2387
-51.5772
-54.693
-35.6002
-29.8639
-28.5296
-34.6573
-34.9934
-35.1292
-29.109
-29.9102
-36.5767
-35.8422
-36.1073
-36.3934
-36.4253
-36.0605
-35.813
-35.7574
-22.4533
-74.7831
-149.777
-43.0471
-42.8056
-42.5675
-38.6092
-55.8089
-69.7339
-43.8175
-41.2858
-44.1373
-76.9522
-32.6305
-157.98
-42.1357
-41.2998
-42.5293
-56.3715
-39.0277
-69.6785
-41.4332
-43.9418
-44.3021
-48.5203
-41.9063
-43.009
-45.4021
-38.1388
-33.9538
-34.2526
-35.6408
-50.2471
-50.7824
-57.0442
-51.3488
-51.9458
-49.5355
-52.0593
-55.3003
-48.1768
-44.7739
-41.3283
-42.9108
-38.004
-36.5124
-33.7225
-32.8673
-50.2572
-51.6613
-50.7498
-57.0139
-52.0385
-55.3297
-49.5976
-52.0826
-8.45854
-13.4905
-79.9267
74.0979
-180.116
-179.778
-143.332
-73.1335
-62.3675
-51.4475
-62.2543
-55.6671
-38.4682
-39.1062
-42.3994
-35.7209
-36.0005
-35.9261
-36.2856
-30.7767
-37.9606
-37.8453
-40.0135
-37.7775
-54.653
-54.6402
-50.7492
-84.0949
-52.5795
-47.2412
-58.066
-39.2652
-37.0147
-37.049
-38.4409
-36.1139
-47.8076
-50.2942
-47.6886
-51.2785
-8.07457
-13.0101
-79.8455
72.9182
-62.448
-51.6323
-62.2991
-55.7869
-38.338
-39.1124
-42.4067
-35.8499
-38.9589
-37.8035
-40.4583
-38.3748
-52.6312
-47.2226
-58.0106
-39.2709
-47.9815
-50.4672
-47.9331
-51.2247
-32.5632
-32.1574
-32.728
-32.2725
-40.6437
-41.5755
-42.0535
-40.3132
-45.8666
-45.8247
-47.9197
-42.6801
-36.5083
-38.7171
-37.3852
-39.807
-36.2037
-36.2843
-34.228
-37.4993
-54.5856
-53.1835
-51.5539
-60.4421
13.8858
13.8598
17.1873
5.51658
-73.1092
-73.1108
-75.954
-69.8758
-32.4548
-31.9271
-32.6145
-32.124
-40.4802
-41.5029
-41.896
-40.1975
-36.2678
-38.5076
-37.2419
-39.7236
-54.4799
-53.0966
-51.456
-60.3696
-71.3709
-65.0464
-64.1924
-59.3166
-71.3308
-65.0134
-64.1854
-59.287
-63.986
-58.4766
-58.4817
-54.1694
-24.8563
-20.0995
-20.0464
-14.6195
200.532
195.154
204.77
200.694
-37.9693
-39.3024
-38.9603
-40.24
-37.8169
-39.1854
-38.8317
-40.1239
-32.6966
-33.1662
-32.3171
-32.6582
-98.7285
-101.894
-95.1541
-98.7146
-45.91
-44.6285
-45.1164
-44.3658
-46.7441
-45.3946
-45.7657
-44.7847
-36.8501
-37.1645
-37.231
-37.245
-46.2217
-47.5109
-47.5305
-49.2683
-28.4694
-28.3533
-32.2099
-28.831
8.41674
5.51126
-73.9382
79.4738
-186.316
-188.538
-144.813
-61.1884
-101.039
-77.2147
-81.869
-85.4817
-38.3268
-38.0182
-42.7833
-35.6454
-39.9506
-37.2448
-38.1385
-35.0615
-40.5554
-40.3801
-45.2745
-38.4145
-28.4879
-16.6644
-88.7053
43.6319
-55.8865
-52.6189
-50.0791
-56.3115
-61.7975
-54.101
-60.8504
-49.9143
-41.103
-40.1653
-45.9293
-36.9134
-38.2025
-37.075
-38.5799
-36.3626
-44.3745
-45.6205
-45.3172
-43.9819
-184.985
-187.342
-144.616
-57.5045
4.70239
-4.82492
-70.9601
79.5517
-101.318
-77.2871
-81.6237
-85.2486
-39.8952
-37.3368
-38.1668
-35.4336
-37.9875
-37.6875
-41.9223
-35.7899
-41.2208
-41.1552
-50.6564
-38.7775
-55.9455
-52.6096
-50.105
-56.7986
-29.3053
-17.7469
-88.4629
43.8096
-61.8852
-54.0645
-60.9639
-49.9596
-38.3306
-37.1812
-38.6574
-36.5026
-41.0315
-40.2039
-46.1367
-37.0261
-44.5321
-45.7792
-45.5664
-44.0707
-39.8789
-45.2717
-45.4069
-43.5139
-36.5791
-34.114
-35.7041
-35.4685
-40.0155
-39.8661
-43.1361
-38.6563
-45.5852
-45.6189
-48.5935
-42.0229
-41.4241
-37.6539
-39.7679
-38.5493
-32.0019
-31.82
-31.0517
-31.4467
-33.6388
-33.8465
-34.1427
-36.2598
-34.6957
-35.357
-34.1037
-36.5054
-42.6937
-42.4039
-45.6107
-29.6074
-45.9675
-43.2442
-44.1746
-44.8551
-57.194
-56.5515
-53.2811
-66.227
-4.79814
9.82253
7.43008
-3.49156
-52.1031
-51.9142
-49.7771
-57.0084
-45.73
-41.557
-43.245
-43.9365
-52.6142
-52.4619
-49.7507
-57.0007
-64.2533
-71.4579
-70.0506
-69.4019
-40.1898
-45.6345
-46.081
-43.8045
-45.3706
-45.4981
-48.5172
-41.8615
-36.5281
-34.021
-35.7094
-35.407
-39.6638
-39.647
-42.7539
-38.4697
-43.1923
-38.3541
-42.036
-38.843
-35.3108
-35.9814
-34.1349
-36.7256
-31.3672
-31.4463
-31.1285
-31.0655
-33.9871
-33.3349
-33.7561
-35.1436
-42.64
-42.0295
-45.5572
-29.6632
-4.65041
9.74353
7.24953
-3.54118
-45.924
-43.178
-44.1064
-44.8006
-57.0671
-56.4219
-53.1615
-66.093
-52.2346
-52.0786
-49.9583
-57.0903
-64.2472
-71.4581
-70.049
-69.4111
-45.7478
-41.5148
-43.1946
-43.9831
-52.6163
-52.4088
-49.7113
-56.9604
-73.3905
-94.5216
-87.9868
-85.8104
154.038
195.863
182.309
183.085
-100.705
-78.9472
-88.8718
-88.9923
132.491
186.65
177.517
177.365
-64.8152
-65.3572
-73.0628
-59.5523
-56.6523
-57.775
-62.5813
-52.7121
-47.0088
-48.7211
-48.5663
-48.6397
-34.2594
-32.2805
-33.1049
-34.0585
-35.7776
-37.2543
-36.1219
-36.1758
-27.2938
-27.6093
-27.7514
-27.7183
-42.6168
-44.1649
-43.0014
-45.1142
-37.4746
-37.2519
-37.355
-37.086
-41.8523
-34.0547
-37.6786
-37.6673
165.59
161.174
155.48
155.499
-64.4187
-63.4483
-58.1881
-70.645
-27.8519
-22.633
-28.9766
-20.2255
-41.1609
-43.3473
-42.5633
-42.5577
-35.5329
-35.4349
-35.3707
-35.2477
-47.2361
-45.7485
-47.139
-46.2038
-48.6561
-47.7314
-49.8652
-46.2918
-72.5327
-94.6132
-90.4288
-86.8569
154.056
196.402
183.24
180.879
-64.8502
-65.3491
-73.0525
-59.5786
-56.6693
-57.7802
-62.5827
-52.7686
-47.2387
-49.9153
-49.1677
-49.4421
-34.6692
-32.5824
-33.5287
-34.3026
-43.3638
-44.6949
-42.9842
-45.5187
-37.8044
-37.433
-37.5096
-37.3268
-64.3665
-63.435
-70.6779
-58.1596
-27.8182
-22.5887
-20.1556
-28.9449
-47.5637
-46.25
-46.568
-47.6243
-48.6886
-47.7637
-46.3139
-49.9
-35.2768
-36.7823
-36.1819
-35.953
-32.3974
-32.5822
-32.9367
-32.1942
-48.2839
-52.5082
-51.2823
-50.7053
-39.7319
-39.5308
-38.5789
-40.7211
-44.0211
-48.7052
-46.4007
-46.486
-37.8229
-35.0402
-36.3777
-36.3612
-37.8334
-38.4233
-36.8664
-39.2889
-42.5245
-43.8908
-43.3656
-44.1465
-31.8281
-31.8472
-31.507
-31.5435
-40.6542
-37.8418
-38.2113
-38.2567
-46.7451
-43.0445
-44.5052
-45.1141
-79.1095
-93.9805
-93.4862
-82.192
8.20378
-4.23343
1.75895
1.78476
-24.5882
-90.8084
-50.8883
-50.8296
-80.7141
-87.1308
-83.2481
-83.2473
-60.9717
-53.9012
-57.0705
-57.0778
-35.1032
-36.6294
-35.9354
-35.7603
-32.2948
-32.5194
-32.8577
-32.0892
-48.034
-52.4277
-50.3087
-51.1231
-39.6692
-39.4518
-38.4898
-40.667
-37.6331
-38.2416
-39.1193
-36.601
-42.7554
-44.265
-43.7866
-44.4378
-46.6465
-42.9375
-45.0156
-44.3987
-79.1678
-93.9568
-82.1351
-93.439
-71.9119
-79.7586
-86.5458
-100.771
-50.8872
-49.7982
-52.5318
-51.5873
-46.9456
-45.8156
-50.7995
-49.1449
-68.488
-63.359
-80.0606
-80.1295
-70.8693
-79.9569
-87.9206
-101.103
-68.7616
-63.5184
-80.5477
-80.2388
-46.8305
-45.6152
-50.844
-48.9589
-50.9481
-49.5133
-52.5588
-51.5081
-99.4193
-86.9516
-88.1703
-77.5974
-99.1343
-86.6914
-88.0408
-77.4983
-45.0191
-42.5627
-47.6752
-45.8368
-44.9189
-42.5426
-47.6107
-45.6995
-44.3972
-43.1618
-38.5555
-36.6578
-12.2612
-1.15773
-11.0165
-2.68762
-11.9518
-0.649376
-10.867
-2.51688
-44.4219
-43.182
-38.5493
-36.6539
133.129
137.463
179.739
170.292
76.1098
119.169
143.757
150.928
119.564
78.3846
151.277
142.29
130.913
132.83
177.069
179.479
-36.0468
-37.1456
-36.2356
-37.3976
-34.8263
-35.0574
-35.6088
-35.8191
-43.3637
-45.5007
-41.9223
-43.9365
-45.5035
-47.7655
-43.6794
-45.5425
-35.9662
-37.0478
-36.1625
-37.299
-45.4369
-47.6799
-43.606
-45.4542
-43.2712
-45.4223
-41.7988
-43.8291
-34.3062
-34.6328
-35.386
-35.5084
-35.8014
-37.3773
-34.681
-36.1903
-37.3024
-35.7448
-36.1487
-34.628
-31.7667
-31.3066
-31.3937
-31.6548
-31.544
-32.0135
-31.8077
-31.5215
-81.5923
-33.2625
-77.3108
-47.6054
-66.9593
-72.7563
-76.4186
-79.4003
-72.7407
-66.9334
-79.3882
-76.3956
-33.2728
-81.3229
-47.5556
-77.3212
-39.5353
-41.512
-42.4292
-42.6149
-47.704
-46.7327
-48.3605
-48.538
-46.9655
-47.3105
-48.1873
-48.1407
-47.4141
-45.6328
-46.2137
-45.1149
-42.0057
-42.8761
-42.5909
-43.3165
-47.6075
-45.7889
-46.4734
-45.3542
-47.2915
-47.6435
-48.626
-48.5993
-47.9437
-53.1006
-51.3032
-50.7148
-38.3105
-40.931
-37.8921
-38.228
-38.5208
-41.2571
-38.105
-38.3492
-36.738
-37.4025
-36.4717
-38.0611
-36.6898
-37.0228
-36.359
-37.8495
-58.7346
-61.749
-54.4173
-56.9857
-41.1212
-42.7615
-42.4657
-43.7901
-41.1625
-42.7976
-42.4701
-43.7966
-58.7788
-61.7707
-54.4451
-57.0743
-33.7368
-32.4804
-32.4983
-30.6566
-33.9128
-34.329
-31.422
-32.9419
-35.8416
-35.8709
-35.5741
-36.117
-35.7162
-35.6909
-35.9828
-35.4319
-88.7945
44.6616
-159.323
-14.0871
-126.638
-119.255
-45.4752
-36.9902
-40.2538
-37.9792
-47.5593
-40.222
-82.4606
42.7552
-59.3258
-7.86031
-75.4294
-58.5616
-46.367
-37.757
-40.4338
-37.5217
-44.5065
-42.3502
-158.013
-14.8049
-87.6342
43.2444
-125.304
-118.627
-39.959
-36.7503
-44.0535
-36.4279
-47.337
-40.2799
-59.3739
-8.44959
-82.1498
42.4033
-75.4891
-58.5661
-40.5229
-37.6803
-46.6283
-37.9064
-44.7217
-42.4426
-49.4668
-45.3508
-39.1732
-39.0103
-46.3209
-39.2152
-46.9338
-41.8159
-48.4867
-41.6351
-35.2384
-33.3784
-33.4018
-32.1164
-34.1342
-37.2739
-46.8987
-32.1096
-46.8668
-49.6895
-53.2291
-76.2819
-15.2397
-43.428
-49.6342
-54.0671
-47.5689
-47.9858
-49.8266
-57.043
-59.3046
-57.6555
-45.1939
-45.364
-47.1959
-41.3641
-39.3937
-38.9001
-45.3538
-39.1714
-47.2045
-42.3195
-34.0655
-37.9595
-32.8375
-32.7343
-32.5313
-29.3977
-46.8686
-31.8958
-14.6262
-43.7179
-46.7946
-49.6675
-53.1576
-76.1272
-49.7568
-54.0996
-59.3043
-57.6932
-47.5801
-48.0601
-49.8294
-57.0229
-76.9269
78.6191
-78.43
61.6122
-93.1796
-90.4253
103.15
122.908
-143.46
-64.3129
-143.334
-68.4164
-115.888
-115.795
42.1974
41.4747
-86.1862
-67.9002
-52.1234
-47.91
-71.6005
-58.1234
-61.3856
-51.3587
-41.9452
-35.5724
-43.6349
-36.6631
-44.5734
-45.002
-34.8088
-35.2934
-36.7587
-31.9477
-36.7716
-32.2246
-36.4918
-36.4941
-28.7596
-28.7569
-43.4884
-38.155
-38.9962
-37.5517
-40.8893
-43.2622
-37.6003
-37.4241
-50.2285
-75.3642
-50.2243
-75.3655
-45.7435
-45.7512
113.516
113.542
-56.06
-44.2752
-50.2922
-32.9075
-58.4323
-66.8938
-35.9995
-27.9937
-38.2462
-36.1202
-38.2881
-36.1859
-39.7689
-39.7818
-35.8222
-35.7813
-46.2273
-46.3031
-48.9932
-54.9598
-47.4592
-48.3563
-51.9938
-47.7137
-75.6527
81.3558
-78.3731
64.8032
-92.1607
-89.5944
124.026
103.719
-86.3212
-67.9198
-52.1873
-48.1489
-71.6306
-58.2251
-61.4184
-51.4827
-41.6634
-35.6726
-43.766
-36.7773
-45.0545
-44.4514
-35.0926
-35.5005
-44.1608
-38.6234
-38.8718
-38.0367
-41.11
-43.5547
-37.7965
-37.9009
-56.1079
-44.2824
-50.2586
-32.9085
-67.1824
-58.1744
-27.9748
-35.9971
-46.4856
-46.3872
-49.2086
-55.0377
-48.6196
-47.7572
-47.7568
-52.0304
-33.32
-33.0602
-32.7113
-31.8671
-34.0641
-33.9299
-32.6507
-32.0453
-43.4507
-39.2779
-42.6899
-42.0744
-45.5186
-44.1137
-39.1595
-40.8847
-47.9943
-42.6686
-48
-42.6716
-47.0833
-47.0819
-39.768
-39.6671
-35.1242
-38.9012
-39.6711
-40.6573
-35.9917
-38.6275
-40.6563
-40.9957
-33.9902
-37.3238
-34.1592
-37.263
-32.932
-32.9586
-41.5933
-41.6409
-52.6793
-63.3041
-50.6484
-58.2738
-48.57
-49.3673
-71.5104
-65.8474
15.1019
5.0764
15.16
5.03259
12.9504
12.9601
-8.45082
-8.47755
-75.0318
-69.5774
-75.0299
-69.5783
-77.9662
-77.9638
-65.99
-65.9959
-33.0914
-32.9601
-32.1846
-31.6206
-33.889
-33.6264
-32.5529
-31.8823
-43.1794
-39.0203
-42.5991
-41.9815
-43.9691
-45.2493
-39.0537
-40.7757
-34.8269
-38.448
-39.5363
-40.7018
-38.4631
-35.7558
-40.6662
-41.0868
-52.5737
-63.2078
-50.5739
-58.2147
-49.2704
-48.4758
-65.7976
-71.4398
-81.8964
-79.603
-72.6209
-59.7337
-58.767
-70.2459
-55.6762
-55.0331
-81.6114
-79.595
-72.504
-59.6749
-70.252
-58.7538
-55.0371
-55.6141
-70.6865
-70.6783
-63.6662
-53.8386
-63.6211
-53.8151
-50.9811
-50.97
-29.6167
-29.6276
-25.6735
-15.818
-15.7654
-25.6607
-9.86248
-9.83168
191.983
202.536
192.069
192.211