# vtk DataFile Version 2.0
tri_press
ASCII
DATASET UNSTRUCTURED_GRID
POINTS 3682 float
-0.687019 0.175 -2.195
-0.641726 0.265 2.345
-0.710879 0.795 -1.955
-0.525 1.195 2.13875
0.68702 0.175 -2.195
0.642065 0.265 2.345
0.710875 0.795 -1.955
0.525 1.195 2.13919
-0.744779 0.132142 -0.681667
-0.741005 0.150819 0.831667
-0.762197 1.04161 -0.590417
-0.706181 1.18089 0.774167
0.728871 0.148164 -0.681667
0.725061 0.166989 0.831667
0.762226 1.04164 -0.59027
0.706177 1.18088 0.77446
-1.4135 -0.34171 -3.38172
-1.42278 -0.269269 -2.23059
-1.45354 -0.295186 -0.713424
-1.42509 -0.30674 0.833652
-1.34194 -0.234621 2.35333
-1.32454 -0.169013 3.5168
-1.33753 -0.107895 4.65743
-1.41372 0.0506341 -3.31516
-1.42377 0.154348 -2.18028
-1.46338 0.159281 -0.69205
-1.41486 0.169256 0.809543
-1.29245 0.242821 2.30062
-1.29334 0.306589 3.462
-1.3222 0.365871 4.60749
-1.42244 0.776498 -3.14033
-1.4404 0.877122 -1.99931
-1.47291 1.0557 -0.612489
-1.38718 1.16265 0.763777
-1.22158 1.19852 2.15346
-1.25623 1.25641 3.32106
-1.30973 1.31612 4.49057
-1.42301 2.03311 -2.9899
-1.43285 2.15914 -1.87114
-1.44025 2.37145 -0.532498
-1.41577 2.54938 0.774092
-1.36973 2.64423 2.11431
-1.3538 2.69528 3.23634
-1.3614 2.74627 4.38959
-0.696829 -0.330489 -3.39128
-0.696383 -0.251627 -2.24455
-0.732731 -0.304278 -0.711504
-0.73524 -0.318924 0.852508
-0.68272 -0.227198 2.38627
-0.673039 -0.163735 3.53918
-0.683506 -0.105574 4.67042
-0.695842 0.0513677 -3.31809
-0.65714 0.313337 3.4805
-0.676426 0.36848 4.61732
-0.702602 0.742852 -3.12192
-0.627296 1.25732 3.31823
-0.671028 1.31758 4.49005
-0.702614 2.00881 -2.97167
-0.710066 2.13537 -1.85106
-0.725759 2.36512 -0.520348
-0.728832 2.55722 0.772741
-0.711277 2.65099 2.10408
-0.702071 2.69932 3.22612
-0.707426 2.74933 4.38218
0.716327 -0.327622 -3.39125
0.712056 -0.247591 -2.24453
0.724739 -0.291426 -0.711484
0.704167 -0.305719 0.852533
0.647774 -0.222486 2.38631
0.625971 -0.159732 3.53929
0.619765 -0.10097 4.67056
0.712018 0.0529814 -3.31806
0.604266 0.315971 3.48063
0.606664 0.372486 4.61748
0.720537 0.743886 -3.12189
0.564424 1.25937 3.31851
0.588052 1.32107 4.49027
0.736984 2.01116 -2.97158
0.736345 2.13758 -1.85096
0.715382 2.36766 -0.5202
0.658484 2.56012 0.772951
0.602135 2.6541 2.10432
0.590778 2.70279 3.22636
0.593193 2.75325 4.3824
1.42916 -0.334836 -3.38164
1.42807 -0.259803 -2.23052
1.44452 -0.275235 -0.713326
1.41156 -0.285324 0.833789
1.33026 -0.222164 2.35351
1.29379 -0.159294 3.51705
1.28441 -0.0980549 4.65772
1.42547 0.0554591 -3.31508
1.42062 0.159959 -2.1802
1.45219 0.177818 -0.691932
1.4142 0.190076 0.809729
1.30336 0.252853 2.30086
1.26598 0.314482 3.4623
1.26602 0.374713 4.60782
1.43666 0.77982 -3.14024
1.44087 0.879401 -1.99921
1.4721 1.06237 -0.612244
1.39376 1.17151 0.764202
1.22853 1.20519 2.15401
1.2184 1.26278 3.32154
1.24068 1.32391 4.49098
1.45402 2.03833 -2.98972
1.45392 2.16426 -1.87094
1.43112 2.37735 -0.532208
1.36086 2.55606 0.774487
1.28202 2.65125 2.11477
1.25681 2.70277 3.2368
1.256 2.75444 4.39001
-0.747874 0.485 -2.12392
5.06639e-07 0.190914 -2.17909
-0.716556 0.152915 -1.43833
-0.528533 0.73 2.18705
0.000169486 0.311147 2.29885
-0.677403 0.221872 1.58833
-2.02656e-06 0.886831 -2.04683
-0.805656 0.987423 -1.27271
0 1.23375 2.17772
-0.661764 1.23412 1.45646
0.7479 0.485 -2.12395
0.710705 0.158822 -1.43833
0.531024 0.73 2.18959
0.674371 0.225186 1.58833
0.805707 0.987478 -1.27264
0.66173 1.23408 1.45683
-0.757811 0.126561 0.075
-0.88804 0.586876 -0.636042
-0.0079543 0.143461 -0.681667
-0.893212 0.665854 0.802917
-0.00797183 0.137189 0.831667
-0.736428 1.11349 0.091875
1.42064e-05 1.38413 -0.590343
-2.44569e-06 1.50637 0.774313
0.733328 0.151214 0.075
0.888275 0.594903 -0.635968
0.893586 0.673937 0.803063
0.736448 1.11351 0.092095
-0.889534 0.535938 -1.35552
0.889485 0.539952 -1.35548
-0.0039769 0.178201 -1.43833
6.08993e-06 1.06457 -1.27267
-7.59959e-07 0.485 -2.32843
-0.890014 0.626365 0.0834375
0.890177 0.63442 0.0835475
-0.00796306 0.138013 0.075
5.88036e-06 1.53258 0.091985
-0.886493 0.697927 1.5224
0.886475 0.701968 1.52258
-0.00390117 0.262784 1.58833
-1.22284e-06 1.40388 1.45664
8.47429e-05 0.73 2.21019
-0.69074 0.33 -2.13276
-0.343509 0.19143 -2.17857
-0.70508 0.160665 -1.81667
-0.612305 0.4975 2.2932
-0.320778 0.311236 2.29876
-0.667518 0.235483 1.96667
-0.748133 0.64 -2.05822
-0.355441 0.854493 -2.01449
-0.779357 0.912301 -1.61385
-0.519283 0.9625 2.15541
-0.2625 1.22557 2.16943
-0.613837 1.23501 1.7976
0.34351 0.19107 -2.17893
0.690745 0.33 -2.13276
0.700083 0.16569 -1.81667
0.321117 0.311236 2.29876
0.612383 0.4975 2.29313
0.663533 0.239778 1.96667
0.355436 0.854479 -2.01448
0.74815 0.64 -2.05824
0.779403 0.912351 -1.61382
0.2625 1.22558 2.16966
0.519227 0.9625 2.1556
0.613768 1.23494 1.79801
-0.727625 0.145571 -1.06
-0.749257 0.13139 -0.303333
-0.852033 0.341698 -0.658854
-0.371868 0.1468 -0.681667
-0.687853 0.207696 1.21
-0.764074 0.124024 0.453333
-0.864061 0.38486 0.817292
-0.377545 0.137891 0.831667
-0.770692 1.00128 -0.931563
-0.869479 0.836424 -0.613229
-0.750948 1.07919 -0.249271
-0.451903 1.35449 -0.59038
-0.695879 1.21941 1.11531
-0.836341 0.941693 0.788542
-0.721505 1.14739 0.433021
-0.434939 1.50732 0.77424
0.718865 0.154416 -1.06
0.358808 0.149114 -0.681667
0.735818 0.144971 -0.303333
0.853882 0.348879 -0.658818
0.686849 0.208954 1.21
0.36191 0.145358 0.831667
0.732127 0.156169 0.453333
0.865422 0.392414 0.817365
0.770695 1.00129 -0.931453
0.451944 1.35453 -0.590307
0.86851 0.839903 -0.613119
0.750941 1.07918 -0.249088
0.695881 1.21941 1.11564
0.434928 1.50731 0.774387
0.834971 0.944956 0.788762
0.721504 1.14739 0.433278
-0.876547 0.510469 -1.73972
-0.373937 0.485 -2.2885
-0.00198819 0.177762 -1.80871
-1.2666e-07 0.337957 -2.25082
-0.880831 0.344426 -1.39693
-0.360266 0.172501 -1.43833
-0.837814 0.713963 1.85472
-0.264224 0.73 2.20806
-0.00186584 0.305137 1.94359
0.000127114 0.520574 2.3287
-0.871403 0.459899 1.55536
-0.340652 0.258736 1.58833
2.03169e-06 1.01428 -1.65975
-1.39326e-06 0.685915 -2.17109
-0.891684 0.761681 -1.31411
-0.402825 1.03187 -1.27269
-6.11422e-07 1.30144 1.81718
4.23715e-05 0.981877 2.18426
-0.808913 0.966022 1.48943
-0.330883 1.38608 1.45655
0.876521 0.512476 -1.73972
0.373949 0.485 -2.2885
0.876209 0.349387 -1.39691
0.353364 0.172516 -1.43833
0.837352 0.715984 1.85608
0.265554 0.73 2.20819
0.871282 0.463577 1.55546
0.335235 0.258806 1.58833
0.891216 0.763715 -1.31406
0.402856 1.03188 -1.27265
0.808104 0.968026 1.4897
0.330864 1.3861 1.45673
-0.864349 0.356245 0.0792188
-0.378256 0.14155 0.075
-0.887377 0.561407 -0.995781
-0.888622 0.606621 -0.276302
-0.0059656 0.14961 -1.06
-0.00795868 0.143482 -0.303333
-0.890971 0.646109 0.443177
-0.892961 0.68189 1.16266
-0.00796745 0.137175 0.453333
-0.0059365 0.178066 1.21
-0.855789 0.891211 0.0876563
-0.470176 1.52697 0.09193
1.01482e-05 1.23515 -0.931508
1.00434e-05 1.49854 -0.249179
1.71734e-06 1.53056 0.433149
-1.83427e-06 1.46435 1.11548
0.86615 0.365618 0.0792738
0.361564 0.146851 0.075
0.887304 0.567427 -0.995726
0.888859 0.614662 -0.27621
0.891299 0.654178 0.443305
0.892495 0.687953 1.16282
0.855328 0.894973 0.0878212
0.470174 1.52694 0.09204
-0.868879 0.337213 -1.77819
-0.882496 0.351968 -1.02789
-0.878551 0.787962 -0.963672
-0.875537 0.70084 -1.67679
0.864434 0.339693 -1.77819
0.875259 0.701857 -1.67677
0.877876 0.790994 -0.963589
0.882761 0.36046 -1.02786
-0.351888 0.177507 -1.81269
0.348437 0.177523 -1.81269
0.356911 0.149483 -1.06
-0.368317 0.150536 -1.06
-0.379133 0.989924 -1.6368
-0.391958 1.20415 -0.931535
0.391988 1.20418 -0.93148
0.379146 0.989911 -1.63678
-0.358723 0.333979 -2.20012
-0.364689 0.662958 -2.12059
0.364693 0.662958 -2.12149
0.35873 0.333979 -2.20179
-0.859633 0.34825 -0.289818
-0.865166 0.370072 0.448255
-0.847276 0.917057 0.438099
-0.86395 0.864475 -0.262787
0.86146 0.356527 -0.289772
0.862795 0.867876 -0.262649
0.845954 0.920367 0.438292
0.866721 0.378548 0.448319
-0.373943 0.146412 -0.303333
0.359709 0.148937 -0.303333
0.361439 0.146701 0.453333
-0.377191 0.141138 0.453333
-0.483198 1.48505 -0.249225
-0.458178 1.52839 0.433085
0.458179 1.52838 0.433213
0.483214 1.48505 -0.249133
-0.882686 0.434118 1.18633
-0.836404 0.4787 1.91069
-0.784296 0.964261 1.82616
-0.831639 0.944697 1.13898
0.878439 0.44202 1.18641
0.830786 0.947719 1.13923
0.783912 0.965263 1.82705
0.836612 0.480539 1.91137
-0.35757 0.174511 1.21
0.34689 0.17464 1.21
0.328176 0.302219 1.95513
-0.330715 0.302227 1.95513
-0.341987 1.45784 1.1154
-0.296691 1.28995 1.80739
0.296682 1.28997 1.8076
0.341976 1.45781 1.11556
-0.292501 0.509037 2.32965
0.293336 0.509037 2.32965
0.264027 0.972189 2.17943
-0.263362 0.972189 2.17938
-0.674146 0.2525 -2.14914
-0.515264 0.192163 -2.17784
-0.697254 0.166628 -2.00583
-0.59819 0.38125 2.29027
-0.481252 0.282593 2.32741
-0.6615 0.243363 2.15583
-0.716121 0.7175 -1.99322
-0.53316 0.828225 -1.98822
-0.75131 0.859842 -1.78443
-0.494242 1.07875 2.11918
-0.39375 1.21608 2.15988
-0.555364 1.20095 1.96818
0.515265 0.191626 -2.17837
0.674081 0.2525 -2.14908
0.694941 0.168956 -2.00583
0.481591 0.282624 2.32738
0.598565 0.38125 2.29041
0.654469 0.25072 2.15583
0.533156 0.82819 -1.98819
0.716155 0.7175 -1.99326
0.751329 0.859865 -1.78441
0.39375 1.21611 2.16024
0.494071 1.07875 2.11935
0.555459 1.20105 1.9686
-0.735276 0.139783 -0.870833
-0.747789 0.130995 -0.4925
-0.834777 0.218734 -0.670261
-0.554301 0.147515 -0.681667
-0.747393 0.146293 1.02083
-0.764782 0.125179 0.6425
-0.845694 0.246259 0.824479
-0.562136 0.138631 0.831667
-0.76775 1.02275 -0.76099
-0.824426 0.943311 -0.601823
-0.758106 1.06193 -0.419844
-0.679108 1.34217 -0.590398
-0.695954 1.19507 0.94474
-0.753798 1.05256 0.781354
-0.714112 1.16441 0.603594
-0.613099 1.42918 0.774203
0.721189 0.153969 -0.870833
0.54309 0.150138 -0.681667
0.732259 0.146652 -0.4925
0.814292 0.237064 -0.670242
0.709433 0.184494 1.02083
0.548081 0.146982 0.831667
0.726629 0.163544 0.6425
0.830758 0.261943 0.824516
0.767412 1.02242 -0.760861
0.679073 1.34206 -0.590289
0.823538 0.944858 -0.601695
0.758098 1.06193 -0.419679
[...]
POINT_DATA 3682
SCALARS point_scalars float 1
LOOKUP_TABLE default
-90.1363
-44.718
-39.6326
-36.0236
-87.132
-41.4179
-39.7235
-34.4014
-42.3186
-48.452
-70.5414
-51.1784
-41.3921
-47.9114
-70.4283
-50.8759
-75.1099
-124.577
-43.1503
-45.9781
-46.5982
-46.8343
-46.8343
-75.1099
-95.3007
-41.8972
-44.7356
-46.4109
-46.8343
-46.8343
73.1136
-91.8307
-57.1336
-47.5947
-44.9421
-38.452
-38.452
-32.4282
-56.1701
-101.237
-61.8107
-40.7806
-35.8807
-35.7428
2.96354
-118.139
-42.0958
-49.3748
-45.1388
-42.6704
-42.6704
2.96354
-42.0856
-41.0554
161.151
-35.7799
-39.1565
-31.4001
-37.5719
-92.0812
-61.9619
-40.0172
-34.5043
-30.7522
5.29157
-119.698
-41.2164
-48.1968
-49.2807
-42.4091
-42.4091
5.29157
-41.3141
-40.7892
158.787
-33.2343
-39.6868
-29.0289
-37.6171
-91.1718
-63.8084
-38.3475
-32.5317
-28.7915
-69.5952
-129.234
-62.321
-45.9471
-46.717
-41.3764
-41.3764
-69.5952
-98.889
-43.0754
-40.4676
-46.5781
-41.3764
-41.3764
70.572
-91.903
-56.9634
-47.2074
-43.5103
-37.7058
-37.7058
-32.4384
-56.3373
-98.138
-61.6108
-39.9975
-34.5374
-33.9358
-24.604
-166.681
-56.7732
-37.2475
-43.1099
-42.9595
-20.3915
-69.7665
-27.3923
-44.0624
-25.4175
-57.0516
-35.9712
-43.3087
-69.5774
-43.5552
-41.8802
-47.6823
-44.8839
-44.0941
-51.1422
-57.6979
-36.0751
-63.3907
-41.3626
-47.7945
-43.5565
-57.5099
-67.2128
-67.1249
-58.4948
6.05863
204.183
-45.2349
-44.9086
-44.092
-91.6593
-48.8806
-48.352
-44.8528
-42.7863
-35.2256
-38.7715
-163.184
-83.2558
-40.2036
-43.7123
-44.1749
-15.0957
-29.8442
-60.2382
-36.8753
-30.7522
-40.4654
-164.15
-39.6158
-81.0579
-43.6011
-39.6652
-44.5234
-29.597
-15.4479
-60.225
-28.7915
-35.2967
-39.6064
-45.2035
-40.1171
-42.7247
-44.3189
-46.5271
-44.4544
-42.443
-50.3903
-68.5947
-56.0268
-64.3906
-41.2548
-49.5387
-47.3672
-54.5455
-61.7028
-47.5681
-44.2717
-41.1537
-42.746
-48.9893
-49.0988
-42.9434
-40.7425
-68.5898
-41.3175
-56.0048
-64.223
-49.1953
-61.5042
-47.0043
-54.2621
-93.9709
186.137
-84.5782
198.988
-64.215
-58.187
-49.1612
-36.5476
-40.2877
-40.452
-48.0817
-44.6871
-25.7864
172.352
-70.2386
-6.60316
-35.4289
-31.8812
-47.4039
-43.3157
-94.1053
186.165
-64.6132
-58.3654
-48.2039
-35.7668
-47.5657
-44.8578
-70.2824
-6.54069
-46.7084
-43.0068
-42.889
-43.5713
-54.3513
-46.2985
-48.3217
-42.2937
-44.5931
-46.3827
-46.2608
-53.4126
-50.5417
-84.8499
4.79481
-99.9527
-76.2211
-51.8446
-42.2603
-43.1405
-54.6501
-46.0116
-43.9638
-46.0376
-50.802
-84.7125
-96.1635
-53.7719
-57.1065
-84.8424
-96.9872
-84.9455
-57.2857
-53.3993
-83.7006
-83.9357
-47.797
-46.8098
-26.2977
1.64659
1.69185
-26.2757
179.399
126.976
129.114
179.372
-42.5525
-43.2905
-49.5756
-54.3993
-42.2191
-54.3023
-49.2713
-42.2042
-41.6207
-42.1303
-45.1676
-45.7414
-93.0265
-71.2431
-71.0957
-92.9821
-47.0374
-50.1983
-45.709
-47.0328
-47.2624
-46.676
-44.6044
-49.6216
-52.443
-53.0712
-40.3365
-40.395
-51.8601
-36.4684
-35.9529
-51.667
-40.382
-40.2827
-32.2155
-33.628
-19.2723
-179.632
-108.745
-40.4183
-42.8627
-46.1664
-12.8458
-22.609
-57.1402
-35.9193
-33.6897
-37.169
-179.739
-19.1154
-113.415
-42.6149
-40.0687
-48.8088
-22.6671
-13.0581
-57.169
-31.842
-34.2293
-36.0301
-42.8617
-41.6186
-41.9157
-43.0765
-56.5836
-49.4576
-44.616
-50.4311
-72.068
-63.645
-67.3944
-101.76
-49.5584
-49.6973
-52.5541
-56.6056
-46.285
-43.2722
-40.6696
-41.6643
-55.2794
-48.2744
-44.5056
-41.4836
-71.8367
-101.483
-63.5083
-67.1707
-49.245
-56.6328
-49.3687
-52.2746
-31.7538
-26.8025
-83.5774
153.464
-166.724
-167.145
-108.598
78.9321
-66.4786
-49.8712
-62.9928
-57.1092
-39.7879
-37.715
-45.6634
-37.3026
-43.3081
-43.2378
-42.3802
-40.1559
-44.1994
-43.3215
-46.7434
-44.4299
-28.7133
-28.5739
-26.1919
85.5484
-64.3162
-73.6179
-70.8887
-22.9705
-29.3309
-27.9876
-33.0958
-27.2124
-44.9908
-47.2113
-45.4933
-44.7188
-32.6669
-25.565
-84.4597
153.123
-67.3743
-50.3122
-62.3829
-57.655
-39.2913
-36.4967
-44.5578
-36.3044
-44.9889
-43.9716
-46.715
-44.794
-64.675
-73.9053
-70.924
-22.8637
-44.2916
-46.801
-44.7073
-44.3315
-41.7898
-42.4443
-41.9706
-43.1334
-44.7706
-51.0012
-49.7537
-46.8324
-44.8599
-44.6276
-46.1849
-43.5977
-43.1927
-45.4349
-44.2318
-44.9195
-51.1544
-50.7799
-48.2356
-56.4735
-61.3438
-59.3205
-56.0145
-68.7077
-36.4164
-36.3952
-15.0739
-73.0598
-63.0829
-62.988
-69.441
-57.1398
-40.8219
-42.0143
-41.3821
-42.2782
-44.8913
-51.0685
-50.1451
-46.6783
-42.1312
-45.0348
-43.5042
-44.6196
-61.1912
-59.0311
-55.896
-68.3856
-78.1101
-66.2038
-68.1524
-59.8293
-78.0052
-66.2802
-68.1281
-60.0083
-68.9033
-58.5242
-58.6286
-50.2074
-18.5169
2.03235
2.23828
15.0461
198.211
193.311
172.912
198.251
-43.7237
-45.8468
-44.9227
-46.7933
-43.2217
-45.4968
-44.4336
-47.0349
-44.102
-43.656
-44.9511
-43.8117
-90.4973
-98.1435
-83.7248
-90.4067
-50.5066
-48.827
-48.9685
-47.3227
-49.7209
-48.2531
-48.1781
-46.9186
-42.1191
-44.8112
-44.8932
-48.4974
-38.6932
-43.0035
-42.8432
-47.3001
-35.6548
-37.5098
-32.0692
-35.2133
-95.4155
154.042
-108.621
103.845
-93.6319
-82.3261
-45.2747
-40.1988
-43.3178
-40.0614
-49.1702
-42.6606
-87.9003
60.5865
-29.8852
79.7191
-80.8878
-31.6115
-44.7164
-35.0729
-34.1498
-31.2688
-44.2649
-37.6667
-109.116
104.757
-99.1119
153.475
-95.8857
-82.6214
-43.3792
-39.8551
-44.6154
-39.9746
-48.8256
-42.4993
-29.8403
77.7999
-88.2483
60.4775
-80.9263
-31.576
-33.4629
-29.1156
-43.2951
-33.1568
-43.2115
-36.951
-50.6649
-45.8127
-41.6148
-41.0925
-48.2372
-42.4645
-45.1682
-43.168
-46.3748
-50.6341
-43.6342
-45.4384
-43.3855
-45.6477
-48.147
-56.2757
-61.3618
-5.88689
-56.4743
-55.3589
-60.7958
-80.9737
-18.6186
-62.7629
-47.8296
-52.03
-48.3014
-46.4365
-53.1462
-60.9959
-66.1553
-56.8081
-47.245
-48.1514
-46.0494
-42.9908
-41.0105
-41.7586
-49.7086
-42.1058
-47.301
-52.7445
-46.8891
-56.6682
-41.9945
-44.3133
-41.7491
-45.7677
-61.4414
-5.71199
-18.5476
-62.6624
-56.5291
-55.3648
-60.6686
-83.0989
-47.4906
-51.7897
-65.9812
-56.6163
-47.9245
-46.0493
-52.8958
-60.7259
-95.3395
-90.843
175.757
157.01
-84.4401
-84.5371
191.682
191.552
-75.9981
-57.22
-67.9172
-49.4646
-50.3116
-47.5735
-38.0518
-33.6351
-40.2363
-40.2272
-40.4455
-40.408
-46.1541
-50.8431
-47.8358
-42.1971
-25.8597
-25.8609
144.535
144.61
-63.1091
-77.9977
-27.1111
7.11691
-35.7977
-35.5208
-31.9746
-32.7765
-46.5798
-47.2291
-47.7749
-39.5991
-95.2863
-90.8358
157.403
175.811
-75.2152
-56.9154
-68.1053
-49.7954
-46.515
-49.4451
-37.61
-32.62
-46.0486
-50.4431
-48.179
-42.2506
-77.9473
-63.2097
7.20082
-26.9135
-46.7114
-45.7371
-39.2057
-47.5288
-42.8031
-43.1575
-43.7795
-44.753
-54.1531
-54.9295
-44.0771
-49.3644
-48.0457
-47.6435
-42.2262
-42.183
-43.6039
-46.4723
-46.6922
-46.7798
-45.9003
-46.2913
-53.1387
-53.404
-51.0403
-53.8405
-91.2545
-77.8115
4.21208
4.19239
-99.0045
-98.9696
-75.3284
-75.2546
-51.8637
-51.7577
-42.2213
-42.4134
-42.7393
-43.9594
-55.155
-54.5848
-43.5901
-49.1795
-45.9771
-42.8343
-46.6217
-46.4965
-53.4515
-50.7085
-77.6603
-91.1819
-105.632
-74.2474
-77.2824
-85.597
-49.8932
-48.2748
-59.1451
-55.0999
-63.6889
-64.3603
-61.493
-52.3063
-82.2422
-85.374
-79.2335
-76.5457
-110.334
-87.356
-76.8491
-73.3479
-82.2071
-76.5794
-79.1182
-85.8867
-63.6155
-52.5212
-61.7044
-64.5149
-52.0021
-54.9659
-58.9431
-48.9784
-109.151
-108.498
-68.6992
-66.8893
-110.104
-67.0745
-68.7906
-108.673
-45.1473
-46.2781
-50.3782
-49.2277
-44.0469
-49.5563
-50.178
-45.8687
-34.701
-30.931
-19.679
-27.9177
-80.7012
-15.2826
12.5838
-8.5858
-80.7445
-7.97287
12.6491
-15.4279
-34.6616
-27.9165
-19.6064
-30.9234
97.9501
151.851
188.901
102.855
57.3535
106.03
167.752
115.609
57.6459
115.444
167.822
105.936
99.5188
102.554
188.937
151.2
-41.6671
-41.9464
-43.8943
-44.356
-44.1492
-43.5643
-43.6403
-42.8073
-51.0501
-55.704
-47.2205
-45.8336
-62.7239
-50.1198
-49.1647
-58.722
-40.9224
-44.0005
-43.3566
-41.0871
-62.5969
-58.7553
-48.5047
-50.0689
-50.7417
-45.3442
-46.7971
-55.4054
-42.174
-41.814
-43.0385
-42.28
-42.6154
-43.4987
-43.6732
-42.8818
-42.2852
-41.9601
-43.4511
-43.5213
-45.89
-47.823
-44.6134
-43.2006
-47.8187
-43.8317
-44.9519
-48.2654
-100.679
-74.3762
-96.9065
-64.5895
-57.9628
-69.0173
-82.6435
-66.6386
-57.7167
-66.3631
-82.5837
-68.9344
-97.7417
-64.5858
-96.8867
-74.2973
-51.6979
-44.5371
-47.0314
-44.171
-45.5299
-45.2917
-50.75
-53.0833
-42.1967
-45.579
-48.4468
-45.534
-48.0585
-45.4727
-47.712
-45.9142
-47.8871
-44.2629
-46.8121
-45.0307
-47.6789
-45.5682
-47.2409
-45.0689
-40.5672
-44.25
-47.6282
-44.7554
-45.145
-51.3868
-50.1256
-44.3636
-56.2276
-56.4284
-48.2879
-46.2411
-54.7098
-46.9012
-48.4472
-56.5085
-45.6594
-42.6154
-42.1263
-43.0592
-44.8251
-42.7056
-42.1003
-42.6168
-55.3406
-48.7321
-47.4127
-57.1323
-35.2529
-33.4629
-38.9538
-40.7452
-34.3043
-40.2178
-38.7612
-33.0809
-54.7826
-57.0313
-47.2798
-48.4171
-39.9238
-40.0847
-37.7166
-38.4467
-39.5762
-37.9
-37.5096
-39.9889
-31.6224
-27.4678
-32.1546
-35.2526
-33.8127
-36.5961
-32.8725
-28.7799
-16.8963
-137.014
-146.927
-43.0256
-43.316
-42.9093
-20.0724
-26.1437
-60.4423
-36.1738
-35.0817
-36.4383
-137.749
-14.9536
-146.392
-42.7996
-41.6893
-42.9319
-26.1133
-20.249
-60.4101
-33.2895
-34.3619
-35.2756
-42.331
-42.1182
-42.5204
-42.1382
-50.9063
-51.4304
-46.254
-49.5077
-71.4223
-67.4931
-68.8243
-83.0295
-50.391
-49.967
-51.7866
-53.1453
-42.0335
-42.1573
-41.1599
-41.6622
-51.8547
-48.2167
-45.2036
-43.8552
-71.2544
-82.6849
-67.6321
-68.6251
-50.0826
-52.8778
-49.6355
-51.5007
-28.4972
-26.378
-63.5197
78.162
-166.777
-166.565
-129.669
25.5251
-60.9068
-52.664
-61.2934
-56.6549
-38.4793
-37.846
-42.3424
-37.1866
-43.1279
-43.0916
-42.5702
-41.2921
-43.3512
-42.5897
-44.505
-43.0162
-26.2913
-26.2005
-24.6652
-15.74
-66.6961
-67.3324
-73.3166
-41.2564
-27.9356
-27.2598
-33.0985
-26.4073
-45.0472
-45.7008
-43.5744
-46.1483
-29.4292
-27.2813
-64.5637
77.9123
-61.3183
-53.1279
-60.6401
-56.7981
-37.7391
-36.7769
-41.1495
-36.0176
-43.022
-43.123
-45.5303
-43.2539
-66.4961
-67.2506
-73.3127
-40.9823
-44.4688
-45.2237
-43.0397
-45.6558
-41.7754
-42.0631
-41.6528
-42.8591
-46.2592
-49.1611
-48.5081
-47.1924
-44.9211
-44.8405
-45.1583
-44.2942
-43.7037
-44.5877
-44.0111
-44.2837
-51.1813
-50.9881
-49.5611
-53.1608
-59.6661
-57.8487
-56.2952
-62.9456
-36.4507
-36.4403
-25.9575
-46.7353
-63.3301
-63.2839
-66.1616
-60.4033
-40.9639
-41.7676
-41.2567
-41.6949
-46.3796
-49.2566
-48.7578
-47.1195
-43.0353
-44.1535
-43.3333
-43.9083
-59.4964
-57.6135
-56.1335
-62.7597
-72.9365
-66.7907
-67.6519
-62.8502
-72.8818
-66.7098
-67.5399
-62.662
-63.6496
-58.4008
-58.4822
-53.5064
-4.9558
4.50444
4.53018
13.141
200.472
195.057
198.933
200.511
-44.586
-45.4733
-45.0753
-46.0879
-44.1861
-45.1396
-44.6869
-45.8877
-44.1434
-43.9006
-44.4058
-43.9906
-91.4909
-95.8106
-87.6156
-91.4438
-50.4517
-48.7279
-49.8872
-47.6893
-49.9407
-48.2034
-48.996
-47.1834
-43.2927
-44.8399
-44.8794
-46.4883
-40.6273
-42.8696
-42.7862
-45.1458
-35.3871
-35.2779
-33.4938
-35.1601
-34.703
-37.0096
-85.0457
93.3805
-169.5
-163.055
-131.206
-20.541
-93.4334
-73.4918
-90.4067
-81.6127
-40.5068
-39.9612
-43.5369
-40.0501
-43.5962
-43.6703
-43.762
-41.2497
-44.6256
-44.4093
-47.7082
-43.3744
-5.30541
-19.8161
-65.0756
42.0493
-30.1968
-26.9549
-28.0048
-26.2755
-56.3679
-62.0081
-74.1346
-40.6416
-36.3463
-37.3343
-40.3531
-36.0606
-32.6862
-29.621
-33.7282
-30.7363
-38.7597
-42.6695
-43.0214
-38.6629
-170.183
-163.987
-131.925
-19.9257
-35.3053
-37.8897
-87.6049
92.0024
-93.9574
-72.8501
-93.0937
-80.9393
-43.4883
-43.5675
-43.8137
-41.0421
-39.9376
-39.4685
-42.8112
-39.6858
-46.407
-45.0393
-47.6208
-43.5421
-29.9827
-26.919
-27.9115
-23.8294
-5.59554
-20.0409
-65.4297
41.8717
-56.2946
-62.1535
-74.1395
-40.4949
-30.8483
-28.1184
-33.2061
-28.383
-34.6615
-35.9688
-38.9241
-34.2288
-37.766
-41.9105
-42.0405
-37.8792
-44.1992
-47.3777
-46.9342
-45.7384
-41.1664
-40.5871
-40.7929
-40.6339
-42.3925
-43.557
-43.6568
-42.5334
-44.1521
-44.5043
-44.9384
-43.5039
-51.6736
-44.9224
-46.3559
-48.0439
-45.8382
-42.7875
-44.7692
-45.0293
-42.7649
-42.5731
-43.4664
-43.0279
-49.9659
-51.0223
-48.7752
-53.187
-71.9839
-74.8918
-66.2479
-33.4157
-59.2069
-53.3693
-56.24
-55.6276
-65.8748
-62.838
-63.3621
-71.8571
-49.3774
-37.7054
-29.1568
-52.796
-48.0657
-49.4428
-48.7163
-49.7914
-49.0078
-46.478
-47.8377
-46.8809
-53.3073
-56.9284
-53.2131
-57.7097
-61.2539
-62.7571
-63.9519
-59.5543
-48.0409
-48.605
-46.4427
-48.3196
-44.0099
-44.2301
-44.8743
-43.5701
-40.5014
-41.5752
-41.1773
-41.4826
-41.9861
-43.7432
-44.198
-42.2446
-52.3301
-45.981
-48.2856
-50.8336
-48.2759
-50.4049
-47.9106
-51.4463
-44.5156
-42.4108
-42.1893
-43.3083
-40.2334
-41.1519
-41.8409
-42.0475
-71.8723
-75.1359
-66.3443
-33.6479
-49.1413
-37.6821
-29.074
-52.6612
-59.1329
-53.4117
-56.226
-55.6429
-65.6809
-62.7027
-63.2065
-71.9033
-47.7494
-49.0555
-48.3547
-49.5695
-60.9955
-62.6139
-63.7689
-59.3557
-48.6909
-46.072
-47.465
-46.5016
-53.0342
-56.6335
-52.9156
-57.4427
-98.9062
-84.1049
-94.6177
-92.5374
169.854
195.865
176.386
181.174
-94.6533
-76.707
-84.4758
-84.5346
172.305
191.296
194.496
194.421
-63.6876
-65.2067
-69.6602
-59.8996
-57.8574
-58.4324
-62.6625
-53.2699
-47.5376
-50.3658
-49.947
-48.3747
-37.2202
-36.0227
-36.5396
-34.9943
-40.6657
-41.3071
-40.2822
-40.2977
-40.4813
-40.3378
-40.4686
-40.4469
-47.5833
-48.4666
-46.5584
-48.61
-44.9378
-44.7519
-46.2021
-43.2944
-26.8492
-24.0057
-26.2267
-26.2405
157.49
153.772
156.047
156.326
-70.5833
-69.3002
-66.5638
-74.2705
-13.8809
-1.70338
-14.8594
1.69231
-34.0084
-37.0157
-35.5722
-35.4316
-28.189
-33.6905
-31.827
-32.2947
-47.0477
-48.0824
-47.0733
-47.6345
-43.7865
-43.2081
-45.5072
-41.4516
-99.4407
-83.9733
-94.7522
-92.6003
169.835
195.873
181.195
176.499
-63.7535
-65.6537
-69.5289
-60.1939
-58.0702
-58.5829
-62.8076
-53.5117
-46.4886
-49.4548
-47.3779
-49.0074
-36.3484
-35.3831
-35.729
-34.1312
-47.0275
-47.9777
-46.4292
-47.9578
-45.0785
-44.8837
-46.438
-43.4047
-70.6123
-69.3384
-74.3116
-66.6583
-13.8877
-1.834
1.77112
-14.7921
-46.3466
-47.4008
-46.9948
-46.3121
-43.4221
-42.9696
-41.1031
-45.2263
-42.4558
-43.4084
-42.8265
-43.0486
-43.3586
-43.8473
-43.7199
-43.7303
-51.4318
-57.6677
-54.2165
-54.5261
-46.5455
-46.1201
-45.2132
-47.6292
-47.9174
-48.6616
-48.1557
-47.9433
-43.0175
-42.9132
-42.1801
-42.2358
-44.3689
-44.7372
-44.1361
-45.3891
-46.0158
-47.0379
-46.7123
-46.2042
-47.1679
-45.5248
-46.1203
-46.3137
-56.322
-50.6619
-53.3209
-53.4475
-53.9647
-47.723
-51.4527
-50.4268
-77.8417
-88.3182
-88.1993
-81.1961
-3.47368
12.5066
4.72955
4.71997
-93.4829
-98.9555
-100.223
-100.207
-72.7927
-79.8807
-76.0158
-75.9795
-54.4413
-49.3251
-51.8601
-51.8055
-41.8293
-42.6934
-42.2641
-42.4039
-42.7716
-43.4948
-42.8962
-43.4717
-51.7866
-57.985
-54.7258
-54.5244
-46.3261
-45.7856
-44.8776
-47.393
-43.6501
-44.1411
-44.8413
-43.3626
-45.7264
-46.6672
-46.4066
-45.8494
-53.8703
-48.4471
-50.8278
-51.2726
-77.6209
-88.1867
-81.0322
-88.1067
-93.4236
-94.9683
-96.2829
-87.447
-53.0944
-53.4125
-56.1427
-54.0314
-58.5959
-56.5494
-59.7407
-55.7396
-92.2008
-82.9912
-87.8407
-82.024
-98.2647
-96.6057
-96.2113
-85.8902
-92.452
-83.0517
-87.8562
-82.0019
-58.7173
-56.6672
-59.8661
-55.9481
-51.5153
-56.7266
-54.5343
-54.4277
-94.1052
-83.0033
-84.276
-75.7524
-94.4073
-83.2809
-84.4833
-75.9573
-47.6335
-47.9114
-47.7331
-47.9402
-46.0147
-46.8633
-47.039
-47.299
-27.8962
-27.8913
-25.8296
-24.7216
-0.967641
-8.08826
7.01853
3.37475
-0.907282
-8.01749
7.08599
3.36888
-27.8595
-27.8725
-25.8111
-24.697
165.536
180.572
176.874
187.454
95.1589
126.098
126.245
136.212
126.852
94.7556
136.433
126.49
180.156
165.523
187.395
176.804
-41.9748
-42.4743
-42.5603
-43.6073
-43.1939
-43.4336
-43.265
-43.4341
-48.9136
-51.6668
-47.8347
-50.3067
-54.8301
-57.4992
-51.7608
-54.1092
-41.3689
-42.1475
-42.1581
-43.1189
-54.8203
-57.3632
-51.6472
-53.9058
-48.5431
-51.3988
-47.3802
-49.9584
-42.0732
-42.13
-42.3912
-42.4805
-41.31
-42.7617
-42.4108
-41.8267
-42.5441
-42.0106
-42.1183
-42.4059
-45.9952
-44.7811
-45.5498
-44.5202
-45.7182
-47.0475
-45.474
-46.112
-90.1204
-81.2621
-94.5675
-96.4515
-66.3985
-68.377
-74.3783
-73.8565
-68.2065
-66.2021
-73.7437
-74.2363
-81.3039
-90.323
-95.916
-94.5237
-47.1103
-47.2078
-47.1466
-46.8526
-47.3156
-49.5456
-50.5131
-52.4767
-45.1581
-44.8467
-46.6734
-46.1443
-47.397
-46.8767
-46.9472
-47.4077
-47.2291
-48.0602
-46.4933
-47.1019
-47.0167
-46.4955
-46.5032
-47.1103
-43.8523
-43.7679
-45.5912
-45.1955
-46.7289
-49.0768
-50.0058
-51.8821
-52.3332
-55.1897
-50.1118
-52.8141
-52.9813
-56.1198
-50.5942
-53.2385
-41.3019
-40.7787
-40.0279
-41.589
-41.3464
-40.9091
-40.0671
-41.586
-51.9517
-54.5135
-49.5966
-51.8466
-35.1127
-37.0202
-36.059
-37.954
-34.4825
-36.3888
-35.6415
-37.501
-51.7307
-54.3268
-49.3848
-51.6937
-40.3116
-40.3431
-40.0593
-40.4217
-40.2039
-40.1579
-40.3454
-39.9943
-29.5822
-32.4003
-32.1671
-33.2917
-34.1459
-31.6368
-34.2556
-33.3482
-107.515
58.0008
-135.827
27.9162
-110.236
-108.403
-45.4803
-40.153
-42.9978
-41.1965
-45.8063
-47.3613
-69.8294
38.6535
-34.697
9.53696
-68.8581
-38.8917
-38.6599
-34.9294
-34.3824
-33.9012
-40.3815
-35.8643
-137.311
26.5076
-113.414
58.3511
-114.831
-110.064
-43.355
-40.8624
-45.235
-39.7986
-46.127
-48.6421
-34.528
9.72671
-69.9552
38.2928
-68.926
-38.9405
-33.4687
-31.5722
-36.9273
-32.8579
-39.0818
-34.8858
-45.807
-43.9732
-41.3269
-42.372
-43.4147
-41.9012
-43.3696
-43.3956
-56.7045
-58.4465
-45.9459
-48.0459
-44.4325
-47.3551
-48.5858
-53.0365
-68.1974
-88.9195
-63.8039
-62.9115
-66.0221
-77.9323
-90.3349
-91.6841
-48.3426
-51.5544
-50.3717
-48.9716
-51.3774
-55.0867
-55.7988
-55.4518
-51.1105
-45.11
-43.5001
-42.9021
-41.1505
-41.8515
-43.0374
-41.0914
-55.8095
-54.7182
-46.9782
-50.5349
-42.824
-44.7237
-42.2208
-39.5989
-67.9192
-88.8049
-90.3475
-90.9273
-63.7889
-63.0824
-65.7892
-77.6482
-48.0025
-51.2097
-55.5915
-54.8773
-50.078
-48.6134
-51.0866
-54.832
-66.9155
87.5718
-71.127
61.5857
-84.2642
-83.2159
151.961
142.235
-129.833
20.731
-130.055
20.2755
-108.388
-108.46
85.9122
88.8155
-72.7637
-66.4087
-53.3119
-49.6117
-68.1519
-58.0354
-61.5588
-52.6902
-42.1893
-39.0365
-41.6812
-37.2791
-45.1595
-45.8847
-36.7633
-37.4138
-42.8005
-41.519
-42.7754
-41.4235
-42.4435
-42.4466
-40.1359
-40.0935
-52.9239
-43.0367
-43.6758
-44.3198
-44.979
-48.4168
-44.8676
-43.4205
-26.821
-19.8564
-26.7815
-20.1207
-27.0764
-27.0472
80.9958
79.5858
-78.1574
-41.5921
-68.5729
-47.597
-66.8959
-74.2804
-31.0169
-15.5315
-33.4706
-27.9524
-33.2018
-26.5356
-33.252
-33.0525
-27.1289
-27.8255
-45.4541
-42.4565
-46.4851
-49.137
-46.166
-44.3547
-46.6071
-42.5765
-68.5911
86.2946
-71.8524
61.3739
-85.5982
-83.8496
141.978
151.665
-71.6681
-66.7762
-53.5121
-49.6873
-67.0783
-58.4874
-61.7997
-52.7256
-41.3245
-38.5197
-40.3774
-35.9586
-44.6651
-44.1396
-35.7956
-36.3316
-49.0895
-43.3447
-44.4455
-44.8833
-45.5123
-47.3426
-45.3582
-43.4624
-78.2075
-41.7441
-68.9834
-47.7293
-74.2969
-66.9774
-15.3725
-30.9452
-44.6901
-41.8539
-46.0693
-48.8282
-43.7393
-45.4905
-42.1067
-46.2482
-41.5447
-42.4516
-42.228
-43.2534
-42.0142
-42.5527
-43.1051
-43.4487
-45.2983
-44.4135
-51.4729
-50.4319
-48.707
-50.8187
-45.565
-48.2781
-45.0939
-44.1746
-44.9707
-44.2413
-46.2647
-46.0502
-43.5821
-43.6064
-43.378
-43.9372
-45.5235
-45.463
-43.7886
-44.9159
-44.6169
-45.1776
-49.5829
-53.3356
-49.1484
-52.6409
-48.0807
-48.2952
-56.4334
-56.4686
-60.2626
-67.1104
-57.1175
-63.121
-56.0746
-57.7001
-71.7371
-66.5367
-26.1262
-47.1519
-26.0819
-47.0882
-14.6917
-14.5166
-71.1066
-71.1099
-65.75
-60.2462
-65.6622
-60.1481
-69.3546
-69.3134
-57.1504
-57.0999
-41.1163
-41.2738
-41.7159
-42.5138
-41.2074
-41.6646
-42.0992
-42.6094
-45.8335
-44.1808
-51.6363
-50.3998
-51.1003
-49.1789
-45.3451
-48.1857
-42.2626
-43.241
-45.0777
-45.0603
-44.3105
-42.8841
-44.3801
-44.8053
-60.1406
-66.9683
-56.7978
-62.8251
-57.6047
-55.9013
-66.2618
-71.6341
-77.7367
-78.1358
-71.8575
-62.0934
-64.2388
-73.3299
-59.3746
-60.5186
-77.5045
-78.1919
-71.9504
-61.9814
-73.2645
-64.2974
-60.7769
-59.4343
-68.8638
-68.902
-63.2668
-53.749
-63.366
-53.9194
-50.4869
-50.4381
-17.8152
-17.5455
-7.48297
9.27457
9.50417
-7.4817
14.6791