# vtk DataFile Version 2.0
tri_press
ASCII
DATASET UNSTRUCTURED_GRID
POINTS 3682 float
-0.709078 0.295 -2.285
-0.675 0.305 2.50154
-0.765 0.984101 -2.235
-0.674893 1.225 2.435
0.709068 0.295 -2.285
0.61714 0.285 2.545
0.765 0.984114 -2.235
0.665 1.225 2.44451
-0.772581 0.223471 -0.689487
-0.764473 0.223553 0.906027
-0.807748 1.13718 -0.678333
-0.793495 1.23327 0.878333
0.727507 0.242585 -0.675
0.692785 0.243331 0.935
0.806998 1.13974 -0.675163
0.792128 1.2385 0.884674
-1.47768 -0.191293 -3.55297
-1.48981 -0.160054 -2.28936
-1.53203 -0.212788 -0.69212
-1.51729 -0.239063 0.912012
-1.44802 -0.194931 2.50987
-1.43287 -0.157921 3.77646
-1.44345 -0.127431 5.03795
-1.47267 0.218751 -3.5436
-1.48542 0.274245 -2.28424
-1.53483 0.243209 -0.696341
-1.50511 0.23562 0.893583
-1.4057 0.282907 2.48218
-1.39938 0.317889 3.74807
-1.4196 0.346163 5.01121
-1.48892 0.989647 -3.51307
-1.52178 1.04292 -2.25098
-1.56108 1.14697 -0.689783
-1.52357 1.21547 0.866981
-1.40754 1.22795 2.42815
-1.39004 1.26087 3.69036
-1.40412 1.29154 4.9569
-1.48349 2.26921 -3.50303
-1.50193 2.3433 -2.2484
-1.51558 2.48138 -0.699344
-1.50593 2.6012 0.839243
-1.47175 2.65835 2.38686
-1.44439 2.68419 3.6385
-1.43048 2.70908 4.89961
-0.724442 -0.179563 -3.55287
-0.73011 -0.142643 -2.28926
-0.77894 -0.217749 -0.685291
-0.788183 -0.246927 0.927013
-0.740307 -0.189517 2.53092
-0.726106 -0.154195 3.79377
-0.732646 -0.125781 5.0518
-0.715219 0.22244 -3.54214
-0.691668 0.323643 3.76261
-0.709278 0.348278 5.02348
-0.727799 0.966679 -3.5055
-0.677771 1.26245 3.69708
-0.690584 1.29327 4.96483
-0.719753 2.25238 -3.49463
-0.734314 2.32662 -2.23918
-0.748367 2.4779 -0.69165
-0.753473 2.60923 0.84415
-0.739238 2.66518 2.39024
-0.718181 2.68857 3.64238
-0.705374 2.71252 4.90465
0.748075 -0.175727 -3.54896
0.724833 -0.137597 -2.28483
0.712296 -0.202178 -0.671201
0.666252 -0.232269 0.95288
0.618231 -0.195526 2.56572
0.645497 -0.158181 3.82268
0.666666 -0.125675 5.07551
0.756585 0.224717 -3.53978
0.662002 0.317251 3.79136
0.683481 0.347709 5.04657
0.780825 0.968375 -3.50361
0.694463 1.26135 3.71515
0.710954 1.29418 4.98394
0.810065 2.25632 -3.48974
0.806975 2.33068 -2.23411
0.799772 2.48297 -0.684932
0.769318 2.61495 0.853301
0.73385 2.67013 2.40182
0.731492 2.69282 3.65591
0.738953 2.7166 4.9196
1.49006 -0.182007 -3.54321
1.47021 -0.147755 -2.27762
1.46319 -0.187824 -0.666779
1.41067 -0.215093 0.95543
1.34327 -0.193261 2.5656
1.35146 -0.159088 3.82805
1.37377 -0.124803 5.08312
1.4997 0.225588 -3.53641
1.4768 0.282057 -2.27691
1.49009 0.26716 -0.674218
1.4407 0.26094 0.934892
1.34988 0.280544 2.53767
1.36231 0.314216 3.79846
1.38766 0.347779 5.05523
1.53305 0.994979 -3.5071
1.52946 1.04733 -2.24617
1.55992 1.15895 -0.677403
1.52038 1.23148 0.889869
1.40245 1.23415 2.45935
1.4002 1.26272 3.72702
1.41875 1.29522 4.99441
1.57237 2.27775 -3.49234
1.57237 2.35222 -2.23715
1.5664 2.49223 -0.68478
1.52953 2.61316 0.85864
1.47931 2.66887 2.41095
1.46403 2.69333 3.66601
1.46537 2.71774 4.92954
-0.806749 0.63955 -2.32971
-5.00679e-06 0.273512 -2.30649
-0.736401 0.263664 -1.48724
-0.669278 0.765 2.4626
-0.02893 0.298487 2.51978
-0.735055 0.248958 1.70378
0 1.07629 -2.32718
-0.814587 1.08886 -1.45667
-0.0049465 1.23445 2.44921
-0.724002 1.21894 1.65667
0.806516 0.639557 -2.32948
0.729241 0.257839 -1.48
0.619487 0.755 2.47317
0.672408 0.24672 1.74
0.814054 1.08998 -1.45508
0.718124 1.22131 1.66459
-0.768524 0.223515 0.10827
-0.863775 0.680328 -0.68391
-0.0225371 0.229181 -0.682244
-0.856349 0.72841 0.89218
-0.0358438 0.229379 0.920513
-0.796383 1.18099 0.1
-0.000374979 1.61157 -0.676748
-0.000683493 1.66938 0.881503
0.72425 0.228854 0.13
0.864395 0.691163 -0.675082
0.857034 0.740915 0.909837
0.79502 1.18458 0.104755
-0.885441 0.659939 -1.47196
0.885089 0.66536 -1.46754
-0.011271 0.250821 -1.48362
-0.000187489 1.199 -1.45587
-2.5034e-06 0.639554 -2.57296
-0.86464 0.704369 0.104135
0.865308 0.716039 0.117378
-0.0291904 0.229278 0.119135
-0.000529236 1.67815 0.102378
-0.886204 0.746705 1.68023
0.886126 0.747958 1.7023
-0.0323869 0.241835 1.72189
-0.002815 1.24159 1.66063
-0.0169383 0.76 2.48594
-0.784637 0.467275 -2.33408
-0.354542 0.274673 -2.30533
-0.735902 0.26617 -1.88612
-0.730289 0.535 2.54022
-0.351965 0.297699 2.51471
-0.71113 0.270876 2.10266
-0.789806 0.811826 -2.28629
-0.3825 1.05885 -2.30975
-0.802772 1.04946 -1.84583
-0.681645 0.995 2.45836
-0.33992 1.23128 2.44366
-0.700428 1.22295 2.04583
0.354531 0.275004 -2.305
0.784639 0.467278 -2.33409
0.733147 0.262427 -1.8825
0.294105 0.299187 2.52495
0.679048 0.52 2.56982
0.643753 0.266881 2.1425
0.3825 1.05885 -2.30974
0.789803 0.811835 -2.28629
0.802473 1.04999 -1.84504
0.330027 1.22921 2.44634
0.642564 0.99 2.45916
0.691789 1.22338 2.05455
-0.774603 0.223455 -1.08837
-0.770552 0.223494 -0.290608
-0.847575 0.437201 -0.686699
-0.39343 0.234584 -0.685865
-0.740841 0.245178 1.30491
-0.766497 0.223536 0.507148
-0.834271 0.464052 0.899103
-0.396012 0.234758 0.91327
-0.822142 1.12399 -1.0675
-0.874259 0.928005 -0.681122
-0.803956 1.16098 -0.289167
-0.490442 1.54714 -0.677541
-0.74397 1.21133 1.2675
-0.857111 0.996933 0.885257
-0.786453 1.19864 0.489167
-0.484481 1.62611 0.879918
0.755186 0.2234 -1.0775
0.352832 0.235188 -0.678622
0.731399 0.230199 -0.2725
0.848236 0.440732 -0.675041
0.679777 0.247845 1.3375
0.328935 0.235426 0.927757
0.698731 0.245879 0.5325
0.835998 0.461579 0.922419
0.821509 1.12584 -1.06512
0.489659 1.54835 -0.675956
0.873033 0.93412 -0.675123
0.802929 1.16408 -0.285204
0.740049 1.21483 1.27463
0.481021 1.62454 0.883089
0.854528 1.00468 0.897255
0.78505 1.20301 0.494714
-0.877193 0.649745 -1.90083
-0.403376 0.639552 -2.5391
-0.00563802 0.250791 -1.89505
-3.75509e-06 0.456533 -2.587
-0.86673 0.461801 -1.4796
-0.373836 0.250826 -1.48543
-0.807443 0.755853 2.07141
-0.343108 0.7625 2.47976
-0.0306585 0.261846 2.12084
-0.0229341 0.529243 2.53921
-0.884222 0.497832 1.692
-0.383721 0.241784 1.71284
-9.37447e-05 1.14968 -1.89153
-1.2517e-06 0.857923 -2.47116
-0.876555 0.874397 -1.46431
-0.407387 1.18197 -1.45627
-0.00388075 1.24151 2.05492
-0.0109424 0.997226 2.46755
-0.82162 0.982823 1.66845
-0.363408 1.24149 1.65865
0.87717 0.652459 -1.89851
0.403257 0.639555 -2.5394
0.866774 0.461599 -1.47377
0.358985 0.25082 -1.48181
0.806017 0.751479 2.08773
0.301274 0.7575 2.48032
0.884207 0.497339 1.72115
0.320011 0.241883 1.73095
0.874555 0.877671 -1.46131
0.406933 1.18159 -1.45548
0.820028 0.984634 1.68344
0.357655 1.24201 1.66261
-0.84724 0.448613 0.106202
-0.39472 0.23467 0.113702
-0.862926 0.670134 -1.07793
-0.865052 0.692348 -0.289888
-0.016904 0.229117 -1.08293
-0.0258637 0.228568 -0.281554
-0.860768 0.71639 0.498158
-0.890781 0.737558 1.2862
-0.0325171 0.228619 0.519824
-0.0341154 0.239724 1.3212
-0.871276 0.96306 0.102068
-0.508388 1.64943 0.101189
-0.000281234 1.35687 -1.06631
-0.000452107 1.66071 -0.287185
-0.000606364 1.67937 0.491941
-0.00174924 1.24176 1.27107
0.846662 0.446505 0.123689
0.344805 0.234515 0.124567
0.863361 0.678262 -1.07131
0.8659 0.703601 -0.278852
0.861488 0.728477 0.513607
0.894318 0.744436 1.30607
0.869813 0.970133 0.111066
0.506623 1.65012 0.103566
-0.85928 0.464538 -1.89348
-0.851911 0.45685 -1.08315
-0.875392 0.891577 -1.07272
-0.876418 0.843112 -1.87333
0.859288 0.464439 -1.89051
0.876228 0.844753 -1.87178
0.87561 0.896562 -1.06822
0.853264 0.464237 -1.07441
-0.364189 0.250796 -1.89059
0.356758 0.250791 -1.88878
0.355735 0.229121 -1.08022
-0.385698 0.22912 -1.08565
-0.394944 1.13549 -1.86868
-0.405724 1.317 -1.06691
0.405122 1.31739 -1.06572
0.394717 1.13556 -1.86829
-0.378959 0.461904 -2.55995
-0.392938 0.834874 -2.4599
0.392878 0.834879 -2.45926
0.378894 0.461906 -2.5643
-0.847927 0.442647 -0.290248
-0.842811 0.455304 0.502653
-0.864391 0.980095 0.493662
-0.874327 0.946312 -0.289527
0.848023 0.443331 -0.275676
0.872702 0.952766 -0.282028
0.863098 0.98787 0.504161
0.842037 0.453689 0.523054
-0.394075 0.234627 -0.286081
0.348619 0.235252 -0.277027
0.33667 0.235371 0.526162
-0.395367 0.234713 0.513486
-0.515841 1.63114 -0.288176
-0.50583 1.65656 0.490554
0.503574 1.65683 0.493327
0.514398 1.63175 -0.286195
-0.892936 0.486907 1.29555
-0.81487 0.516416 2.08704
-0.789894 0.988912 2.05862
-0.823143 0.981831 1.27685
0.892871 0.494731 1.32178
0.821469 0.987171 1.29035
0.788689 0.987317 2.07114
0.81045 0.508669 2.11512
-0.39194 0.23968 1.31305
0.324241 0.239768 1.32935
0.307058 0.262471 2.13167
-0.367843 0.26126 2.11175
-0.380249 1.24168 1.26928
-0.351664 1.2419 2.05038
0.343841 1.24153 2.05473
0.376689 1.24167 1.27285
-0.347537 0.532122 2.58994
0.29769 0.524622 2.59104
0.315651 0.993613 2.46464
-0.341514 0.996113 2.46233
-0.739321 0.381138 -2.302
-0.53181 0.280117 -2.29988
-0.741326 0.261748 -2.08556
-0.713656 0.42 2.53189
-0.513483 0.304463 2.50501
-0.697148 0.283855 2.3021
-0.778077 0.897963 -2.26132
-0.57375 1.02824 -2.27914
-0.787859 1.02075 -2.04042
-0.671362 1.11 2.43977
-0.507406 1.22908 2.44027
-0.686765 1.22308 2.24042
0.5318 0.279574 -2.30043
0.739348 0.381139 -2.30204
0.740348 0.259473 -2.08375
0.455622 0.31613 2.51094
0.653025 0.4025 2.56234
0.622898 0.283489 2.34375
0.57375 1.02851 -2.2794
0.777849 0.897975 -2.26109
0.78773 1.02105 -2.04002
0.497513 1.22827 2.44659
0.649111 1.1075 2.44716
0.677793 1.22359 2.24953
-0.77359 0.223466 -0.888926
-0.771566 0.223483 -0.490048
-0.859499 0.305626 -0.688093
-0.579973 0.235093 -0.687676
-0.7466 0.240423 1.10547
-0.765484 0.223545 0.706588
-0.836254 0.325361 0.902565
-0.57787 0.2339 0.909648
-0.803746 1.11939 -0.872917
-0.853643 1.03891 -0.679728
-0.805949 1.14918 -0.48375
-0.704113 1.4522 -0.677937
-0.755902 1.20947 1.07292
-0.828479 1.11669 0.881795
-0.784292 1.21027 0.68375
-0.676739 1.50519 0.879126
0.750938 0.223401 -0.87625
0.543288 0.23265 -0.676811
0.734381 0.231464 -0.47375
0.859454 0.305867 -0.675021
0.683704 0.248165 1.13625
0.515922 0.229254 0.931379
0.709083 0.23128 0.73375
0.838557 0.315372 0.928709
0.801927 1.12047 -0.870143
0.703323 1.45403 -0.67556
0.852839 1.04334 -0.675143
0.805046 1.15199 -0.480184
0.751475 1.21205 1.07965
[...]
POINT_DATA 3682
SCALARS point_scalars float 1
LOOKUP_TABLE default
-107.138
-43.242
-98.3974
-43.9779
-107.655
-41.7631
-98.1444
-43.7533
-43.9023
-38.9778
-68.1832
-60.5622
-41.5128
-40.3188
-68.2219
-61.0925
-20.8238
-103.079
-42.0164
-36.1493
-43.4273
-41.5952
-37.3712
7.77853
-104.606
-42.4426
-36.5111
-42.6931
-39.1168
-36.8546
55.3559
-93.0416
-57.9064
-55.2352
-45.6633
-39.7907
-37.2051
-72.1896
-60.6847
-107.742
-67.0577
-42.693
-43.0348
-43.0348
23.9275
-138.886
-43.8195
-40.7601
-43.7754
-36.7143
-36.7143
118.693
-36.5071
-35.4772
143.506
-40.0585
-36.1597
-46.8483
-46.4919
-121.258
-68.9988
-41.8393
-43.0348
-41.5847
47.4376
-139.132
-38.0331
-41.405
-41.6207
-42.216
-36.76
105.082
-36.4157
-35.6945
144.624
-38.586
-35.9766
-42.6108
-46.7069
-121.48
-69.192
-41.5502
-42.5131
-42.5131
-26.3662
-101.388
-42.4503
-38.4481
-43.3254
-42.216
-39.0343
6.67597
-104.316
-39.6431
-35.0613
-43.1539
-38.2773
-37.473
54.8666
-92.055
-57.8074
-55.9343
-46.5072
-39.6541
-37.1484
-72.2592
-60.0941
-108.525
-68.548
-42.4534
-42.9792
-42.9792
-97.8927
-127.959
-48.526
-37.7934
-37.1694
-45.0216
-91.1318
-41.913
-38.54
-51.0697
-98.7038
-49.6108
-37.2927
-44.4096
-41.6336
-51.1948
-39.3538
-46.2167
-43.7869
-43.2266
-41.4888
-55.8692
-92.5768
-61.8166
-39.1951
-46.317
-42.6664
-56.0253
-53.6587
-53.6007
-55.6523
1.8789
202.117
-45.4551
-45.6383
-40.1476
-78.5357
-51.3287
-51.5257
-42.7971
-51.7762
-34.9493
-94.2323
-125.793
-74.0402
-39.3904
-38.5841
-46.338
-92.6791
-87.5858
-56.7454
-39.333
-38.5288
-45.6388
-125.605
-90.3075
-74.1265
-38.9709
-37.9951
-45.5587
-88.0545
-92.7027
-56.7311
-38.61
-38.1954
-45.6152
-48.8941
-40.9589
-43.3181
-43.5787
-42.4886
-39.155
-34.6464
-40.7551
-60.8127
-53.0814
-61.4545
-56.906
-55.3143
-55.1358
-53.088
-65.6925
-48.5426
-43.7062
-41.9342
-42.6504
-42.1839
-40.7147
-39.613
-33.9126
-61.5965
-57.7034
-53.4064
-61.3876
-55.3573
-65.3064
-56.6186
-53.2606
-76.3107
180.002
-80.0376
93.2852
-51.8439
-53.9433
-46.5117
-35.1336
-43.505
-32.1575
-49.5109
-42.9424
-30.2774
170.903
-53.2246
-5.36155
-45.6907
-36.9787
-52.1793
-51.7726
-76.1788
179.037
-51.6105
-53.9681
-46.1998
-35.4461
-49.9221
-43.0134
-52.9884
-5.3967
-52.0671
-51.7191
-42.0053
-39.9579
-46.409
-46.1572
-48.9616
-41.1595
-44.1176
-47.6445
-40.2813
-41.5044
-50.0638
-72.0003
33.1985
-96.402
-68.0288
-53.806
-42.1814
-40.1182
-46.4009
-46.1524
-44.4636
-48.3291
-50.3191
-72.0746
-74.6989
-47.3833
-50.0379
-72.8699
-74.6631
-72.8831
-50.2783
-46.7191
-78.6138
-78.4829
-48.5307
-48.6378
-33.2673
19.5379
20.0469
-33.2734
100.693
164.236
163.476
93.4518
-43.5109
-41.32
-48.664
-50.9693
-42.8773
-51.3824
-49.007
-41.0628
-40.9295
-40.973
-40.1184
-39.9847
-91.018
-65.4408
-65.4557
-90.7939
-47.6721
-47.5712
-45.1479
-49.2868
-48.1657
-49.504
-44.9156
-46.4613
-41.7163
-41.5544
-44.28
-44.1261
-54.9291
-45.472
-45.4085
-54.8954
-33.7514
-33.8682
-36.9888
-36.8181
-95.7121
-133.048
-104.891
-40.2572
-39.7885
-43.4822
-95.3953
-74.2718
-71.1386
-41.014
-39.8523
-43.3373
-134.658
-95.5052
-104.249
-40.1384
-38.9379
-42.8833
-74.8268
-95.6581
-70.9566
-39.3768
-40.0181
-43.1155
-44.2003
-41.8944
-41.7836
-43.1165
-44.8923
-38.7088
-33.2831
-40.9302
-68.9748
-59.6988
-64.1302
-106.59
-59.1992
-57.7998
-52.6974
-67.2271
-43.0161
-43.0451
-41.4388
-40.0725
-43.8274
-40.8403
-40.856
-35.4433
-68.7945
-106.976
-59.9892
-64.2203
-59.4329
-66.9511
-59.346
-52.9008
-99.3626
-87.5328
-106.116
102.271
-129.754
-128.836
-103.972
-2.20998
-58.5526
-36.4787
-49.2909
-51.5779
-37.5392
-38.3451
-43.9114
-35.7667
-37.0324
-37.3311
-39.9477
-30.1913
-48.9307
-43.3468
-48.2507
-43.4157
-91.9773
-92.0363
-50.6826
100.071
-46.6334
-45.9054
-50.6036
-17.6354
-38.7332
-38.5118
-42.2175
-37.2922
-48.3866
-53.6769
-49.8859
-51.683
-95.5093
-87.7063
-105.83
103.267
-58.3908
-36.7951
-49.101
-51.7017
-36.438
-37.6284
-43.6462
-35.9783
-48.8499
-42.6668
-48.623
-43.2471
-46.4949
-45.8039
-50.4745
-17.4953
-48.574
-53.6148
-49.7951
-51.6057
-40.1801
-38.9514
-42.6333
-39.7231
-44.4971
-48.6315
-46.0901
-46.2204
-43.6945
-43.7386
-46.0977
-42.2537
-37.8763
-50.4036
-43.5992
-41.3547
-41.3624
-41.4067
-40.7174
-42.9016
-58.4761
-54.0946
-53.4966
-63.1195
-80.7008
-81.2002
11.6138
-117.196
-63.3701
-63.1618
-65.3698
-53.3563
-39.407
-40.5972
-41.3569
-39.9706
-44.4753
-48.8116
-46.1408
-46.2824
-37.7364
-50.6201
-44.0465
-42.0337
-58.5704
-54.2783
-53.83
-63.1175
-61.6303
-53.3573
-53.9482
-50.5091
-61.5018
-53.1129
-53.9711
-50.4983
-65.4539
-55.2652
-55.2666
-48.3476
-13.9998
0.0557198
0.0474821
15.5552
198.62
201.348
176.868
198.911
-43.9653
-46.0528
-44.685
-47.1943
-44.1445
-46.1732
-44.9531
-47.3386
-40.0751
-40.523
-40.1138
-40.1554
-76.9726
-84.6838
-72.301
-76.9198
-55.1387
-50.4312
-53.2779
-50.8829
-54.6102
-50.7124
-53.6036
-51.0004
-43.7944
-42.8592
-42.8243
-42.0246
-49.0885
-51.8514
-51.8111
-53.3751
-34.8928
-32.7419
-36.4116
-35.1537
-108.513
79.7368
-104.049
8.96921
-75.1219
-77.2494
-42.6491
-35.7247
-41.5747
-34.3455
-47.8437
-44.5127
-90.0311
65.1418
-51.6761
79.8736
-65.26
-39.8436
-44.6496
-36.958
-41.9465
-37.185
-44.8962
-45.5259
-103.859
11.2367
-108.126
79.4187
-75.1016
-77.0738
-41.1433
-33.738
-42.4849
-35.5479
-47.0754
-44.1283
-51.3725
80.8767
-89.6469
65.1059
-65.2058
-39.8119
-41.8834
-37.2601
-44.4214
-37.0458
-44.7743
-45.3852
-49.4844
-48.3597
-42.8782
-40.8248
-43.3154
-43.8229
-45.8784
-41.9063
-46.4463
-42.1833
-42.3205
-39.6002
-38.313
-41.9566
-40.2959
-42.6844
-54.3474
-2.55331
-52.2881
-52.4872
-57.999
-75.3426
3.57105
-117.027
-50.8555
-55.4282
-49.8652
-47.3693
-51.523
-58.9436
-66.6421
-55.2681
-48.8265
-48.0427
-45.9796
-41.923
-42.377
-40.7538
-43.0261
-43.4586
-46.7119
-41.7687
-40.4584
-43.1315
-40.1634
-39.6705
-40.0833
-41.8392
-54.7699
-2.03672
3.56691
-116.986
-52.3864
-52.8758
-57.16
-75.6764
-51.0012
-55.3672
-66.6837
-55.2292
-49.9184
-46.4255
-51.6684
-59.0825
-75.3099
-75.8213
177.688
167.67
-79.591
-79.5469
94.9288
94.8193
-60.0264
-48.0761
-63.744
-46.579
-47.4949
-45.4746
-34.3747
-36.2824
-43.6928
-43.8077
-32.4631
-33.003
-50.0427
-55.4909
-42.2609
-44.0657
-30.6637
-30.6313
163.079
162.936
-49.0374
-60.614
-19.0849
5.78174
-45.6614
-45.6232
-37.0076
-36.8909
-48.3891
-51.668
-53.8812
-48.8957
-75.1413
-75.7768
167.248
176.716
-59.8445
-48.4288
-63.701
-46.5805
-45.2224
-46.7168
-34.6116
-36.4943
-50.0633
-56.0134
-42.16
-44.1793
-60.3087
-49.0282
5.71734
-19.1673
-51.741
-48.092
-48.8328
-53.8322
-43.2186
-41.6896
-40.2568
-39.7904
-45.8826
-48.0287
-44.7482
-48.0892
-48.8474
-48.7725
-41.0651
-41.0935
-42.7238
-45.9798
-47.7177
-47.6636
-40.2493
-40.163
-41.5347
-41.5009
-49.0253
-52.3056
-77.8865
-67.2579
29.1309
29.4339
-96.2545
-96.2881
-67.6361
-67.5979
-54.2249
-54.2021
-42.6427
-41.7844
-40.3102
-40.0017
-48.1246
-45.5626
-44.6034
-48.1665
-46.2994
-42.9849
-48.2649
-48.1402
-52.3597
-49.3698
-67.2809
-77.9
-108.761
-58.6243
-61.0759
-107.781
-42.4975
-44.5092
-50.0223
-38.0906
-59.49
-49.2389
-49.8019
-48.3512
-84.9592
-99.9551
-61.4846
-56.0206
-108.194
-107.236
-60.8509
-58.3473
-84.8564
-55.8439
-61.2701
-99.7536
-59.7234
-48.4822
-49.7523
-49.2914
-42.1105
-39.1607
-50.3264
-44.4687
-104.548
-103.825
-65.0462
-61.5781
-103.59
-61.5346
-65.006
-103.891
-45.4868
-46.0697
-47.9604
-43.9421
-45.4517
-43.9986
-47.9435
-46.022
-54.7736
-27.9613
-15.0195
-51.1335
-75.5001
10.0021
12.6849
-9.96219
-75.9928
-9.45671
12.8353
10.0167
-54.6936
-50.891
-15.0356
-27.8052
-2.69652
97.6087
199.3
1.09631
23.4573
107.26
174.313
99.5909
23.5693
99.9256
173.829
107.131
-2.34858
-0.640397
199.368
97.5757
-43.2216
-46.2005
-44.5528
-44.7307
-36.6281
-41.6245
-43.3555
-42.0312
-52.1015
-52.2198
-46.3361
-46.3152
-58.0119
-48.33
-48.0477
-55.7657
-42.9855
-44.6812
-44.5806
-41.7437
-58.4909
-56.1767
-48.1718
-48.5166
-52.2229
-46.7472
-46.5907
-52.5507
-40.1643
-41.3278
-43.5738
-42.1691
-41.9096
-42.1455
-40.4241
-40.0555
-41.6924
-40.0913
-40.4728
-42.1701
-40.3675
-40.6447
-40.0913
-40.0677
-39.9009
-39.5515
-39.9925
-40.5718
-89.9011
-67.8487
-83.288
-117.12
-61.1912
-65.8613
-71.2736
-59.9426
-61.4579
-60.0042
-71.2091
-65.8951
-89.892
-117.255
-83.4104
-67.878
-44.3079
-48.3671
-50.2274
-42.1813
-43.0917
-43.6973
-54.9165
-55.4123
-44.4448
-47.1178
-51.4972
-44.1633
-51.7801
-44.4584
-51.6491
-51.0189
-44.32
-42.5042
-50.4139
-48.2277
-50.562
-50.9958
-51.6771
-45.0794
-44.3261
-43.9512
-50.8026
-46.947
-43.2181
-56.1653
-55.1773
-43.1537
-41.5203
-42.9145
-42.0883
-42.5998
-41.9101
-42.2813
-42.0467
-42.9509
-42.533
-40.217
-43.8874
-44.6658
-42.9046
-45.4394
-43.918
-40.3954
-55.8329
-53.9492
-53.6317
-53.9259
-42.2654
-42.1165
-49.0997
-48.784
-42.1155
-48.6817
-49.0577
-42.1014
-55.7555
-53.9151
-53.5912
-53.8781
-36.5461
-30.8542
-33.0002
-35.5816
-36.4474
-35.6762
-33.3093
-31.3723
-37.4315
-37.2821
-36.4827
-36.6344
-37.4097
-36.4858
-36.3093
-37.238
-86.946
-126.34
-116.446
-41.5987
-41.2967
-43.2109
-92.9221
-80.1824
-84.6996
-43.0412
-41.6117
-42.9648
-127.789
-87.5086
-114.571
-40.5939
-41.2941
-39.9796
-80.5271
-92.8679
-84.5185
-41.9878
-42.0104
-42.2695
-43.6513
-42.4313
-43.7988
-42.811
-44.6766
-39.2546
-35.94
-40.8406
-68.6231
-64.7823
-65.6645
-84.2786
-59.6667
-59.4041
-55.6889
-64.6641
-47.6541
-42.3579
-40.8902
-41.844
-42.7555
-40.9863
-41.2092
-38.1796
-68.6508
-84.3495
-64.9931
-65.7187
-59.5686
-64.9803
-60.323
-56.2465
-98.1713
-97.4497
-115.698
60.0378
-130.478
-129.882
-118.201
-49.7962
-53.2725
-43.2176
-48.2881
-50.169
-37.6241
-37.9889
-42.8702
-36.3346
-36.8048
-36.8982
-38.0759
-32.845
-46.2
-44.0584
-46.7218
-44.0055
-91.2254
-91.279
-70.4066
-54.2844
-45.0558
-42.0403
-49.2038
-27.6972
-38.6977
-38.855
-40.7706
-37.1271
-49.6661
-52.5669
-49.8708
-51.87
-98.6158
-97.839
-115.284
60.4418
-53.2424
-43.5779
-48.3102
-50.4435
-37.1032
-37.4273
-42.4396
-36.2518
-45.6205
-43.3725
-48.2273
-43.6962
-44.9768
-41.7866
-49.0321
-27.4965
-49.8903
-52.5515
-49.87
-51.7729
-39.6727
-39.3473
-40.031
-39.7729
-45.3947
-47.2994
-46.1222
-46.2363
-43.7604
-43.7726
-44.86
-42.958
-39.3316
-46.0919
-43.3893
-41.4446
-41.4515
-41.48
-41.0993
-41.9168
-57.0452
-54.9095
-55.1882
-59.6065
-89.957
-89.1282
-21.5724
-121.548
-61.9798
-61.9581
-64.4445
-53.8618
-39.002
-40.346
-40.1715
-39.9698
-45.426
-47.4275
-46.1778
-46.3181
-38.1417
-46.233
-43.53
-42.2167
-57.1528
-55.1147
-55.3815
-59.602
-57.2683
-53.6631
-53.6871
-52.7352
-57.1652
-53.5426
-53.6247
-52.693
-60.1314
-55.5436
-55.5694
-51.8788
-6.32333
1.45657
1.47304
8.53233
201.224
199.677
199.292
201.302
-44.8025
-45.7852
-45.0314
-46.313
-44.9928
-45.982
-45.2973
-46.4921
-40.1243
-40.36
-40.061
-40.1628
-77.9675
-81.5364
-75.1718
-77.9236
-53.6865
-50.9505
-51.9439
-50.9304
-54.2058
-51.1235
-52.2586
-51.0397
-43.2418
-42.8042
-42.7947
-42.3715
-50.5364
-51.7701
-51.7615
-52.6871
-34.8997
-33.7668
-35.8197
-35.0261
-94.3422
-93.1909
-117.105
47.7689
-126.105
-128.173
-119.545
-39.9627
-89.8204
-64.8106
-74.8606
-76.2799
-39.9024
-38.578
-41.8004
-36.7695
-39.2929
-37.6357
-39.7984
-36.7263
-44.5462
-48.274
-48.6194
-44.2499
-96.7102
-93.3092
-114.598
15.3352
-79.0292
-90.8991
-68.0647
-58.4764
-60.7006
-52.8803
-64.4833
-45.9745
-40.1686
-38.7626
-45.6467
-37.2116
-38.7451
-38.3416
-40.2605
-37.2976
-44.4818
-47.1583
-44.9191
-45.7327
-126.839
-127.439
-119.374
-38.432
-94.8648
-91.0851
-117.021
47.0383
-89.7223
-64.6864
-74.7233
-76.2634
-39.6929
-38.071
-39.6009
-36.1648
-38.2025
-37.4391
-41.9821
-36.378
-45.2135
-48.4827
-47.0769
-44.5711
-79.2439
-91.5907
-68.1625
-60.091
-96.9393
-93.3454
-114.581
15.2461
-60.5046
-52.8408
-64.5237
-45.4538
-38.7338
-38.3552
-40.1954
-37.3157
-39.3462
-37.912
-45.6499
-37.217
-44.2851
-47.1518
-44.9019
-45.5558
-47.155
-41.8444
-50.6194
-49.1723
-41.22
-40.4295
-41.6039
-40.8671
-41.4367
-43.7935
-41.2593
-43.5815
-43.4434
-43.5791
-45.0943
-42.5926
-42.8569
-42.4666
-45.7848
-42.1712
-38.7165
-39.3489
-39.7063
-39.4726
-33.2487
-36.9716
-37.3188
-37.1102
-40.7433
-41.1413
-40.5291
-41.3801
-72.8325
-51.5445
-58.9258
-34.3683
-55.8724
-50.444
-52.8969
-53.0989
-62.4315
-60.0197
-60.1157
-68.1207
-67.47
-65.8695
-21.0781
-100.936
-56.7272
-54.5708
-52.3063
-55.7476
-56.4639
-53.1882
-51.6693
-50.0336
-53.0398
-53.4976
-52.5301
-55.9338
-68.5825
-63.602
-69.221
-56.9268
-45.2846
-42.7269
-51.4366
-48.433
-43.6043
-43.5927
-45.2196
-42.5235
-41.6587
-40.3631
-41.2161
-40.9026
-41.5301
-43.6678
-41.3011
-43.6673
-42.3396
-42.039
-45.0086
-41.8453
-40.4733
-41.1957
-40.6925
-41.5278
-37.3084
-42.1619
-38.6913
-39.3775
-33.0615
-37.7577
-37.6643
-35.7383
-73.0291
-51.6435
-59.4234
-34.5361
-67.1519
-67.9346
-21.3005
-101.454
-56.087
-50.7229
-53.0392
-53.4091
-62.4629
-60.0298
-59.9275
-68.2077
-56.9067
-54.7009
-52.6349
-55.7088
-68.1291
-63.2979
-69.1641
-56.5981
-57.9802
-55.4323
-52.6192
-50.3695
-53.2559
-53.6888
-52.5168
-56.0551
-88.5351
-67.3506
-76.0801
-75.9417
136.898
192.586
183.981
178.44
-90.7659
-71.8473
-79.7917
-79.8083
8.10974
175.492
93.034
93.27
-50.7973
-52.556
-55.6584
-49.3599
-52.907
-54.7039
-58.405
-50.1701
-44.534
-50.685
-47.0663
-45.9282
-35.4267
-34.9619
-34.4488
-35.8135
-41.7365
-44.7962
-43.5491
-43.5914
-30.0878
-33.2613
-32.3664
-32.4023
-49.3202
-49.7077
-49.6324
-53.4958
-43.0085
-42.9273
-42.6127
-43.5141
-39.3007
-22.6175
-30.1853
-30.1539
163.928
169.864
166.852
166.856
-51.9314
-54.1103
-50.4961
-55.9186
-9.94635
-2.29608
-11.9605
0.923179
-43.8934
-47.4402
-45.6849
-45.6719
-37.1734
-36.7893
-36.9983
-36.9446
-50.8398
-54.1365
-50.2936
-52.3179
-51.6922
-51.8436
-52.9427
-50.4164
-88.4049
-67.1638
-75.9397
-75.8646
137.715
192.907
177.911
182.957
-50.584
-52.2799
-55.4843
-49.4737
-52.983
-54.7301
-58.4235
-50.1857
-44.3936
-49.8335
-45.6085
-46.5983
-35.6732
-35.2875
-34.7901
-36.0399
-49.4631
-50.211
-49.6741
-53.7407
-43.138
-42.888
-42.5526
-43.5402
-51.7352
-54.0606
-55.829
-50.3664
-9.90361
-2.32884
0.869428
-11.9759
-50.7995
-54.197
-52.2153
-50.0172
-51.6293
-51.8087
-50.3592
-52.8941
-42.4202
-42.9558
-42.0822
-41.6333
-39.8378
-40.0114
-40.018
-39.8896
-46.1472
-47.9468
-45.9847
-47.0691
-46.1401
-46.1068
-45.5138
-46.9941
-47.4596
-48.5358
-48.9213
-48.9346
-41.6566
-40.7936
-41.128
-41.1426
-43.8673
-44.378
-43.5164
-45.0257
-44.2365
-49.1004
-47.7267
-47.5483
-40.4599
-40.1707
-40.2799
-40.2359
-42.2003
-41.7801
-41.4909
-41.4938
-51.4309
-48.4964
-49.535
-50.746
-67.7306
-74.9765
-74.677
-69.269
28.1542
25.5469
32.0301
32.2462
-106.376
-89.4283
-96.4366
-96.5152
-66.4937
-69.9654
-67.9378
-67.9039
-53.7192
-53.7165
-53.8928
-53.8824
-42.2822
-43.1871
-42.4379
-42.0737
-40.1193
-40.1427
-40.1096
-40.0513
-46.1933
-47.9199
-47.11
-45.8949
-46.1432
-46.1648
-45.4355
-47.0196
-44.251
-44.6834
-45.3679
-43.7733
-45.9239
-49.4191
-48.392
-48.2365
-51.6595
-48.7242
-50.9332
-49.8098
-67.8763
-74.9811
-69.2842
-74.826
-88.9012
-74.8609
-74.9072
-65.7394
-49.2031
-44.2006
-49.9559
-46.1068
-51.6497
-51.655
-49.1237
-49.1024
-77.9153
-67.6974
-76.2541
-67.0718
-89.037
-74.9416
-74.7464
-65.5017
-78.1013
-67.5688
-76.222
-66.7628
-51.9375
-52.0001
-49.1718
-49.1919
-48.6167
-44.3166
-49.285
-45.6696
-89.9326
-78.0327
-79.1207
-70.2611
-89.7817
-77.9095
-79.1304
-70.2165
-48.2356
-47.1729
-47.6052
-48.7086
-48.4853
-47.1806
-47.4502
-48.7521
-41.1961
-35.7502
-31.7205
-25.3516
12.3552
15.9409
12.7113
24.9679
12.9395
16.1209
13.3347
25.4178
-40.9981
-35.7439
-31.7053
-25.4136
78.6394
38.3086
154.974
97.9342
114.983
148.754
156.212
160.256
149.351
115.986
160.565
156.397
31.8429
79.4033
97.7022
155.73
-43.4398
-43.456
-43.507
-44.0585
-41.7896
-40.3273
-41.4853
-41.7796
-48.9637
-49.7666
-47.1754
-48.709
-51.2541
-52.4521
-49.7342
-52.3519
-43.1468
-43.4297
-43.1066
-43.7782
-52.0074
-53.3607
-49.8402
-52.4586
-49.3502
-50.0565
-47.5406
-49.0305
-41.088
-40.7418
-41.5552
-41.9271
-40.8573
-41.3058
-40.6084
-40.991
-41.4014
-41.0412
-41.0218
-40.562
-40.266
-39.9936
-40.1928
-40.0464
-39.784
-40.1432
-39.7929
-40.0715
-85.4161
-103.53
-83.1932
-94.7974
-62.3685
-65.5701
-65.9111
-66.9779
-65.6015
-62.4425
-66.9403
-65.9546
-103.389
-85.2131
-94.8232
-83.181
-47.2756
-44.5779
-48.8242
-47.929
-44.0351
-47.4586
-47.7161
-53.4115
-43.6094
-44.9794
-45.1963
-46.6148
-50.352
-48.9602
-50.7326
-48.4608
-47.9854
-46.8343
-48.6663
-48.2805
-50.3921
-48.5467
-50.9152
-48.5489
-43.4101
-44.8575
-44.9306
-46.4345
-43.6411
-46.5455
-46.6904
-51.8238
-41.9481
-42.4536
-42.002
-41.5809
-41.6796
-42.329
-41.8668
-41.5259
-42.7157
-44.6975
-43.9065
-45.3779
-43.2389
-43.8275
-44.1148
-45.2579
-55.185
-55.2156
-54.5241
-54.5588
-43.6946
-45.4107
-45.5893
-47.2385
-43.6322
-45.3258
-45.5324
-47.1704
-55.1436
-55.1769
-54.4845
-54.5329
-34.6664
-32.4991
-34.7641
-32.0221
-32.5788
-34.6611
-32.9184
-35.0094
-37.1496
-37.0016
-36.9835
-36.7974
-36.8441
-37.0299
-36.5655
-36.8396
-117.738
-21.0397
-122.26
-34.6851
-106.055
-105.373
-42.8176
-37.6183
-42.2954
-38.2206
-43.6478
-42.7602
-110.875
5.33994
-67.9453
-27.731
-81.6677
-61.4962
-46.8219
-38.1149
-40.9336
-38.106
-43.6668
-42.7635
-122.588
-34.8439
-116.341
-21.0263
-105.336
-104.085
-41.6917
-38.8037
-43.65
-37.1331
-43.8201
-43.3557
-67.9328
-28.038
-110.57
5.07101
-81.5356
-61.0622
-40.7738
-37.9567
-46.9954
-37.9397
-43.7622
-42.541
-41.8413
-45.7092
-42.342
-41.7474
-40.0091
-43.8712
-43.0388
-42.3128
-53.3702
-41.7187
-36.9461
-39.6743
-32.0292
-37.8881
-40.197
-41.6085
-65.0306
-89.879
-59.5003
-58.8497
-61.9915
-74.2672
-97.5609
-107.135
-55.8298
-57.3198
-54.3725
-52.5057
-51.9739
-56.342
-65.0344
-61.8121
-41.0447
-45.7092
-44.1699
-42.2524
-41.7402
-41.6713
-39.3151
-43.4842
-49.8703
-41.6801
-40.4169
-41.6232
-39.3363
-40.5205
-39.7229
-37.4155
-65.2644
-89.8827
-98.5447
-107.299
-59.7678
-59.1892
-62.1534
-74.4886
-54.6098
-57.0685
-65.43
-61.5458
-54.9919
-51.7731
-52.2083
-56.712
-114.8
60.2832
-110.92
40.2001
-106.62
-103.911
90.9889
108.1
-118.453
-45.861
-118.082
-46.308
-103.909
-103.939
-1.68045
-2.96035
-57.9701
-60.3393
-33.9202
-41.6888
-53.5349
-44.5932
-56.1557
-47.6815
-42.0647
-36.0635
-43.8433
-36.7188
-43.7931
-43.9817
-35.5203
-36.2028
-38.562
-33.1611
-38.4997
-33.682
-40.0122
-40.0841
-30.3499
-30.8824
-52.4441
-48.0913
-45.8435
-42.7112
-47.9527
-51.9695
-43.2598
-44.049
-70.4648
-24.7382
-70.2379
-25.0758
-51.1128
-50.9187
88.0335
88.3099
-55.3845
-35.8184
-50.0389
-24.9467
-49.4825
-52.0157
-22.245
-13.0762
-40.5079
-37.1504
-40.5415
-37.1418
-42.196
-42.1923
-37.2983
-37.2728
-47.1716
-48.9877
-51.6514
-54.2023
-48.5
-50.8188
-52.9095
-50.3044
-114.802
61.1715
-110.829
40.0237
-106.166
-103.847
108.777
91.8097
-57.4912
-60.3221
-35.0752
-41.9903
-53.599
-44.7737
-56.1906
-47.7041
-42.3256
-35.9359
-43.7244
-36.8058
-43.8624
-43.5352
-35.6228
-36.3886
-52.3595
-45.8116
-45.5351
-42.4141
-47.8793
-53.1917
-42.7052
-43.8685
-55.3303
-35.6198
-50.1643
-24.0909
-51.8873
-49.4539
-13.1066
-22.1216
-47.1895
-48.8021
-51.6875
-54.137
-50.7917
-48.3438
-50.2132
-52.8346
-42.7128
-40.1097
-39.687
-39.4586
-39.9172
-38.9539
-39.906
-39.5817
-44.3874
-44.6548
-48.5469
-48.4442
-45.3229
-47.0863
-45.5255
-47.1482
-44.801
-42.8869
-44.8481
-42.9097
-46.1097
-46.053
-42.2326
-42.245
-42.3448
-37.671
-47.2127
-47.1618
-42.6833
-44.9255
-41.7188
-43.0856
-40.9196
-41.8633
-40.9841
-41.9054
-40.7005
-40.6624
-42.9015
-42.9152
-57.3601
-63.0845
-53.5468
-57.0514
-52.7997
-54.1204
-65.1265
-61.2565
-14.9887
-117.718
-15.0725
-117.746
10.7134
10.9756
-117.205
-116.918
-66.2212
-54.9614
-66.2938
-54.8475
-65.4814
-65.3966
-53.5619
-53.5488
-39.9594
-39.8751
-40.1995
-40.1581
-41.5823
-41.7072
-39.9386
-39.8753
-44.2979
-44.7065
-48.6824
-48.5751
-47.1831
-45.3154
-45.5067
-47.268
-43.3658
-35.1608
-47.7276
-49.2817
-45.3373
-43.0944
-42.6381
-43.5705
-57.5399
-63.1473
-53.6847
-57.1196
-54.444
-53.1993
-61.2849
-65.0861
-61.4179
-61.8565
-56.8421
-51.4769
-52.4528
-57.0005
-50.4696
-50.3201
-61.242
-61.6771
-56.6723
-51.2947
-56.9368
-52.3274
-50.3116
-50.4952
-65.2702
-65.3114
-59.7376
-51.4804
-59.725
-51.4941
-48.2715
-48.2407
-14.1772
-14.1471
-7.46808
6.64784
6.71037
-7.51644
14.679
14.6069
196.22
196.666