# vtk DataFile Version 2.0
tri_press
ASCII
DATASET UNSTRUCTURED_GRID
POINTS 3682 float
-0.754555 0.275 -2.315
-0.74634 0.365 2.385
-0.797913 0.755 -2.245
-0.726849 0.905 2.285
0.754555 0.275 -2.315
0.746341 0.365 2.385
0.797913 0.755 -2.245
0.726853 0.905 2.285
-0.783626 0.273191 -0.748334
-0.809322 0.274757 0.818333
-0.844136 0.874911 -0.735
-0.82736 0.931823 0.775
0.783632 0.273185 -0.748334
0.808841 0.275238 0.818333
0.844173 0.874946 -0.735
0.827362 0.931822 0.775
-1.55908 -0.0565237 -3.54845
-1.56099 -0.0173384 -2.31781
-1.58249 -0.0165755 -0.749678
-1.59058 -0.016357 0.829858
-1.55116 0.0416244 2.39895
-1.54025 0.0802064 3.63429
-1.54627 0.107757 4.86093
-1.56069 0.217053 -3.53382
-1.56536 0.269612 -2.30937
-1.59385 0.285146 -0.752266
-1.59523 0.285334 0.80994
-1.52913 0.336071 2.36813
-1.52578 0.373132 3.60267
-1.53972 0.401074 4.83116
-1.58061 0.741984 -3.48866
-1.60253 0.793112 -2.26187
-1.63853 0.881665 -0.743393
-1.61345 0.918438 0.771067
-1.52416 0.912551 2.29063
-1.52472 0.947551 3.52751
-1.54283 0.98347 4.76513
-1.59784 1.60358 -3.46352
-1.61121 1.6644 -2.24522
-1.62817 1.75845 -0.745118
-1.62703 1.82246 0.742771
-1.60444 1.84273 2.24347
-1.58873 1.85784 3.46301
-1.58376 1.88232 4.69444
-0.767018 -0.0540825 -3.5521
-0.764081 -0.0128297 -2.32314
-0.78132 -0.022529 -0.748963
-0.801491 -0.0230364 0.837022
-0.777278 0.0562697 2.41147
-0.768202 0.0902524 3.64279
-0.77201 0.112505 4.86584
-0.764889 0.215133 -3.53495
-0.756546 0.383334 3.60968
-0.767375 0.405268 4.83487
-0.779104 0.725673 -3.48165
-0.754659 0.947035 3.52639
-0.770564 0.983725 4.76489
-0.792007 1.59264 -3.4566
-0.801167 1.6542 -2.23759
-0.818209 1.75663 -0.740516
-0.828394 1.82608 0.742219
-0.820107 1.84327 2.23952
-0.808453 1.85657 3.45907
-0.803549 1.88113 4.69158
0.790096 -0.0540637 -3.5521
0.776283 -0.0128182 -2.32314
0.792849 -0.0224713 -0.748963
0.796338 -0.0227112 0.837022
0.755663 0.0563953 2.41147
0.760714 0.0903507 3.64279
0.768198 0.112612 4.86585
0.790205 0.215145 -3.53495
0.755854 0.383399 3.60968
0.76559 0.405362 4.83487
0.805331 0.725685 -3.48165
0.748042 0.947085 3.52639
0.760211 0.983806 4.76489
0.816814 1.59267 -3.4566
0.818389 1.65423 -2.23759
0.810712 1.75667 -0.740516
0.782501 1.82613 0.742219
0.753515 1.84334 2.23952
0.749973 1.85664 3.45907
0.753803 1.88121 4.69158
1.57683 -0.0564737 -3.54845
1.56679 -0.0172915 -2.31781
1.58778 -0.0164313 -0.749678
1.5918 -0.0159001 0.829858
1.54647 0.0419404 2.39895
1.53874 0.0804408 3.63429
1.54482 0.107982 4.86093
1.57678 0.21709 -3.53382
1.56264 0.269641 -2.30937
1.59203 0.285234 -0.752266
1.59998 0.285809 0.80994
1.53728 0.336342 2.36813
1.53045 0.373328 3.60267
1.53995 0.401279 4.83116
1.59728 0.742021 -3.48866
1.60004 0.793144 -2.26187
1.63512 0.881727 -0.743393
1.615 0.918611 0.771067
1.52826 0.912727 2.29063
1.52244 0.947706 3.52751
1.53429 0.983649 4.76513
1.61817 1.60365 -3.46352
1.62249 1.66447 -2.24522
1.61866 1.75854 -0.745118
1.58846 1.82258 0.742771
1.54943 1.84287 2.24347
1.53707 1.858 3.46301
1.53722 1.88249 4.69444
-0.826541 0.515 -2.33031
0 0.271276 -2.31872
-0.770259 0.272927 -1.53167
-0.770923 0.635 2.36933
5.06639e-07 0.362165 2.38783
-0.809271 0.288439 1.60167
0 0.826834 -2.31683
-0.840644 0.834575 -1.49
1.99676e-06 0.970986 2.35099
-0.802003 0.94331 1.53
0.826541 0.515 -2.33031
0.770262 0.272924 -1.53167
0.770921 0.635 2.36932
0.810049 0.287661 1.60167
0.840656 0.834586 -1.49
0.802001 0.943305 1.53
-0.796952 0.273495 0.035
-0.886787 0.574051 -0.741667
3.1376e-06 0.270563 -0.748334
-0.883836 0.60329 0.796667
-0.000240466 0.270648 0.818333
-0.835758 0.903377 0.0200001
1.83436e-05 1.22368 -0.735
9.78191e-07 1.44717 0.775
0.79684 0.273608 0.035
0.886798 0.574066 -0.741667
0.882949 0.60353 0.796667
0.835768 0.903385 0.0200001
-0.879246 0.544525 -1.51083
0.879244 0.544533 -1.51083
1.5688e-06 0.270454 -1.53167
9.17178e-06 0.950127 -1.49
0 0.515 -2.51663
-0.889684 0.58867 0.0275
0.889693 0.588798 0.0275
-0.000118664 0.270632 0.035
9.66087e-06 1.44958 0.0200001
-0.871386 0.619145 1.56583
0.871379 0.619265 1.56583
-0.000119979 0.27074 1.60167
1.48747e-06 1.05197 1.53
1.2517e-06 0.635 2.50853
-0.806262 0.395 -2.33837
-0.377277 0.271283 -2.31872
-0.763485 0.272886 -1.92333
-0.763202 0.5 2.38174
-0.37317 0.362728 2.38727
-0.784095 0.320429 1.99333
-0.810967 0.635 -2.28639
-0.398957 0.809134 -2.29913
-0.831677 0.807186 -1.8675
-0.744167 0.77 2.32245
-0.363424 0.952004 2.332
-0.778589 0.938318 1.9075
0.377277 0.271279 -2.31872
0.806254 0.395 -2.33836
0.763484 0.272886 -1.92333
0.373171 0.362745 2.38726
0.763169 0.5 2.3817
0.784043 0.320482 1.99333
0.398957 0.809082 -2.29908
0.81087 0.635 -2.2863
0.831686 0.807194 -1.8675
0.363428 0.95202 2.33202
0.744168 0.77 2.32244
0.778536 0.938261 1.9075
-0.777108 0.272894 -1.14
-0.790219 0.273413 -0.356667
-0.855857 0.413296 -0.745
-0.391821 0.271857 -0.748334
-0.809314 0.28158 1.21
-0.803518 0.273745 0.426667
-0.87612 0.424253 0.8075
-0.405111 0.272042 0.818333
-0.84438 0.856733 -1.1125
-0.871531 0.727516 -0.738333
-0.839976 0.889173 -0.3575
-0.481963 1.16911 -0.735
-0.8194 0.942285 1.1525
-0.875013 0.777264 0.785834
-0.832574 0.918615 0.3975
-0.518293 1.39872 0.775
0.777126 0.272876 -1.14
0.391826 0.271857 -0.748334
0.790312 0.273321 -0.356667
0.855859 0.413303 -0.745
0.80937 0.281524 1.21
0.404747 0.27205 0.818333
0.803469 0.273795 0.426667
0.876119 0.424272 0.8075
0.844377 0.856729 -1.1125
0.481988 1.1691 -0.735
0.871543 0.727535 -0.738333
0.839991 0.889186 -0.3575
0.819374 0.942256 1.1525
0.518295 1.39872 0.775
0.874985 0.777591 0.785834
0.832602 0.918641 0.3975
-0.868652 0.529763 -1.92057
-0.41327 0.515 -2.47834
7.844e-07 0.270446 -1.9252
0 0.393138 -2.51443
-0.877147 0.408726 -1.52125
-0.385129 0.270462 -1.53167
-0.841819 0.627072 1.96758
-0.385461 0.635 2.48257
-5.97364e-05 0.313273 1.99475
8.79169e-07 0.498583 2.51751
-0.86746 0.453792 1.58375
-0.404695 0.270739 1.60167
4.58589e-06 0.911983 -1.90342
0 0.670917 -2.43794
-0.883442 0.68955 -1.50042
-0.420317 0.939033 -1.49
1.74211e-06 1.03841 1.94049
1.62423e-06 0.802993 2.3886
-0.857102 0.781227 1.54792
-0.401001 1.03482 1.53
0.868726 0.529766 -1.92057
0.41327 0.515 -2.47837
0.877116 0.408728 -1.52125
0.385132 0.270462 -1.53167
0.841817 0.627133 1.96758
0.385461 0.635 2.48257
0.867289 0.453463 1.58375
0.404965 0.270739 1.60167
0.883428 0.689559 -1.50042
0.420332 0.939021 -1.49
0.857091 0.781285 1.54792
0.401001 1.03483 1.53
-0.857711 0.423886 0.03125
-0.398575 0.271984 0.035
-0.885825 0.559288 -1.12625
-0.888139 0.581361 -0.357083
2.3532e-06 0.270412 -1.14
-5.77632e-05 0.270598 -0.356667
-0.893061 0.59598 0.412083
-0.885219 0.611217 1.18125
-0.000179565 0.270667 0.426667
-0.000180223 0.270683 1.21
-0.872452 0.750889 0.0237501
-0.52948 1.39969 0.0200001
1.37577e-05 0.948958 -1.1125
1.40022e-05 1.42461 -0.3575
5.31953e-06 1.44959 0.3975
1.23283e-06 1.34947 1.1525
0.857725 0.423974 0.03125
0.398429 0.271983 0.035
0.885825 0.559299 -1.12625
0.888149 0.581432 -0.357083
0.893071 0.596164 0.412083
0.885235 0.611398 1.18125
0.872446 0.750949 0.0237501
0.52943 1.39957 0.0200001
-0.866824 0.401863 -1.92195
-0.883896 0.416174 -1.13313
-0.873372 0.707016 -1.11938
-0.871023 0.662275 -1.89403
0.866864 0.401864 -1.92195
0.871032 0.66228 -1.89403
0.873367 0.707033 -1.11938
0.883896 0.416177 -1.13313
-0.381203 0.270453 -1.92426
0.381205 0.270453 -1.92426
0.388475 0.270419 -1.14
-0.38847 0.270419 -1.14
-0.409637 0.898346 -1.88546
-0.421188 0.950763 -1.1125
0.421214 0.950767 -1.1125
0.409644 0.898346 -1.88546
-0.395274 0.394069 -2.47903
-0.406113 0.652958 -2.38171
0.406113 0.652958 -2.3818
0.395274 0.394069 -2.47905
-0.856623 0.418672 -0.356875
-0.860962 0.427046 0.419375
-0.87365 0.764035 0.404792
-0.871792 0.739103 -0.357292
0.856629 0.41872 -0.356875
0.871794 0.739142 -0.357292
0.873621 0.764223 0.404792
0.860974 0.427097 0.419375
-0.395198 0.271921 -0.356667
0.395127 0.27192 -0.356667
0.401573 0.272046 0.426667
-0.401826 0.272047 0.426667
-0.5402 1.35336 -0.3575
-0.526649 1.40473 0.3975
0.526653 1.40473 0.3975
0.540217 1.35335 -0.3575
-0.876576 0.446408 1.19563
-0.836433 0.476896 1.98046
-0.824524 0.775614 1.93754
-0.87376 0.774392 1.16688
0.876608 0.446424 1.19563
0.874014 0.774481 1.16688
0.82452 0.775642 1.93754
0.836416 0.476732 1.98046
-0.404738 0.270684 1.21
0.404632 0.270684 1.21
0.389068 0.3132 1.99404
-0.388932 0.3132 1.99404
-0.40734 1.30755 1.1525
-0.382212 1.02345 1.924
0.382214 1.02345 1.924
0.407341 1.3076 1.1525
-0.379315 0.499291 2.49209
0.379316 0.499291 2.49208
0.374444 0.786497 2.37894
-0.374442 0.786497 2.37894
-0.784854 0.335 -2.33113
-0.565916 0.27129 -2.31871
-0.759935 0.273027 -2.11917
-0.754653 0.4325 2.38325
-0.559755 0.363877 2.38612
-0.766745 0.341187 2.18917
-0.808721 0.695 -2.26998
-0.598435 0.784439 -2.27444
-0.820756 0.787054 -2.05625
-0.741241 0.8375 2.30946
-0.545136 0.93585 2.31585
-0.758428 0.927368 2.09625
0.565916 0.271286 -2.31871
0.78485 0.335 -2.33112
0.759936 0.273027 -2.11917
0.559756 0.363889 2.38611
0.754615 0.4325 2.38321
0.766809 0.341124 2.18917
0.598435 0.784443 -2.27444
0.808847 0.695 -2.2701
0.820758 0.787055 -2.05625
0.54514 0.935833 2.31583
0.741141 0.8375 2.30935
0.758425 0.927361 2.09625
-0.780264 0.273145 -0.944167
-0.78692 0.273304 -0.5525
-0.842014 0.332107 -0.746667
-0.587743 0.272484 -0.748334
-0.810068 0.277418 1.01417
-0.806807 0.273863 0.6225
-0.860109 0.340811 0.812917
-0.607578 0.272676 0.818333
-0.845174 0.866738 -0.92375
-0.862373 0.803483 -0.736667
-0.842057 0.882043 -0.54625
-0.701719 1.09935 -0.735
-0.824211 0.937885 0.96375
-0.860018 0.858959 0.780417
-0.830133 0.925385 0.58625
-0.683897 1.18741 0.775
0.780285 0.273124 -0.944167
0.587748 0.272484 -0.748334
0.787006 0.273219 -0.5525
0.842012 0.332111 -0.746667
0.809717 0.27777 1.01417
0.607276 0.272679 0.818333
0.806808 0.273863 0.6225
0.860165 0.340913 0.812917
0.845182 0.866745 -0.92375
0.701851 1.09956 -0.735
0.862381 0.803502 -0.736667
0.842052 0.882036 -0.54625
0.824209 0.93788 0.96375
0.683897 1.18741 0.775
0.859968 0.859104 0.780417
0.830137 0.925386 0.58625
[...]
POINT_DATA 3682
SCALARS point_scalars float 1
LOOKUP_TABLE default
-120.243
-41.6235
-87.1331
-38.1533
-120.215
-38.7485
-87.079
-35.8703
-33.064
-34.162
-50.6224
-45.8114
-33.0208
-34.0172
-50.5755
-45.7545
25.6631
-100.411
-32.7162
-35.3445
-39.8788
-40.9897
-37.8544
25.6631
-99.502
-33.4721
-36.6091
-40.6818
-41.8541
-34.755
70.2351
-96.9001
-43.0523
-42.619
-40.2986
-37.8633
-34.1355
-44.2372
-83.4404
-79.533
-53.5896
-38.7482
-37.5379
-37.5379
56.6146
-163.933
-33.2774
-35.1543
-40.638
-35.7673
-34.8584
144.242
-35.193
-33.0869
168.73
-32.786
-32.4453
23.7464
-68.1706
-73.7148
-58.9013
-36.1695
-33.8507
-32.4216
68.4711
-162.897
-33.29
-35.0058
-38.0026
-32.4187
-31.4753
141.312
-32.0049
-29.5568
168.454
-30.1418
-29.1517
25.5115
-68.096
-73.6992
-58.9218
-35.0583
-31.3404
-29.1769
25.4765
-100.109
-32.6697
-35.1357
-37.5825
-37.599
-34.7443
25.4765
-99.4705
-33.4204
-36.5
-38.4497
-38.6381
-31.9747
70.0184
-97.1042
-43.0171
-42.4886
-38.3076
-34.9648
-31.5335
-44.1846
-84.061
-79.5535
-53.7945
-37.5577
-35.082
-35.082
-88.6005
-130.752
-42.9155
-38.1994
-32.2735
-43.8811
-73.7564
-36.3308
-33.3418
-44.0635
-88.6194
-42.8848
-35.4466
-43.3477
-36.3042
-43.9476
-32.4541
-36.6676
-34.6178
-38.7537
-35.2544
-48.4483
27.5197
-60.0909
-32.3881
-36.6182
-38.4972
-48.3688
-41.0882
-41.0496
-48.2756
-7.04738
206.773
-37.9966
-37.9155
-32.7005
-85.8274
-42.4551
-41.8185
-42.7436
-40.8309
-26.7104
-84.7321
-144.261
-59.3068
-40.4445
-35.6703
-40.901
-57.4538
-76.0158
-50.5947
-37.5379
-32.7864
-40.7336
-144.323
-84.7504
-59.3043
-32.9029
-37.4376
-39.5408
-74.4521
-57.3464
-50.5592
-31.7728
-34.8605
-40.0249
-37.0701
-32.4941
-34.0614
-34.2529
-38.2647
-32.9287
-33.7236
-35.0072
-33.1414
-41.252
-51.6396
7.84913
-48.0074
-42.0583
-46.0317
-58.4
-37.0319
-34.2348
-32.4589
-34.0078
-37.9073
-34.9005
-32.825
-33.5301
-33.1029
7.87991
-41.1919
-51.5523
-47.9538
-58.4314
-41.9222
-45.9778
-57.846
190.97
-68.352
137.959
-41.3465
-47.1208
-41.8047
-32.2108
-38.6668
-25.1143
-43.3374
-43.3061
-38.2549
159.685
-41.9343
-14.8314
-37.8258
-28.1812
-43.0829
-41.7412
-57.8486
190.934
-41.3079
-47.1085
-40.4138
-28.7253
-42.6367
-42.8241
-41.8932
-14.7953
-42.5873
-41.8742
-35.3306
-32.6071
-36.6136
-38.2611
-39.1434
-32.856
-37.8677
-42.0489
-33.5413
-37.9683
-41.9804
-73.5931
17.7928
-115.727
-66.5806
-46.7744
-35.2484
-32.5728
-36.5607
-38.1931
-37.7688
-41.7291
-41.8979
-73.5282
-56.6235
-38.866
-36.0034
-56.0428
-56.6422
-56.0375
-35.9534
-38.8166
-67.1708
-67.1607
-38.4645
-38.4793
-40.9961
8.25121
8.32415
-40.9573
131.603
141.303
143.39
131.178
-35.2602
-35.2697
-41.0609
-43.333
-35.1964
-43.258
-40.9713
-35.1548
-32.6722
-32.6495
-33.3628
-33.4191
-94.1062
-60.0261
-59.9972
-93.9336
-40.9094
-42.0892
-41.4724
-43.7867
-40.5548
-43.5735
-40.2855
-40.6435
-38.0302
-37.8219
-38.6919
-39.7289
-48.3606
-37.9558
-37.9819
-48.4765
-32.2885
-28.0957
-28.8975
-31.962
-85.6821
-155.086
-82.2477
-41.6615
-37.77
-40.6857
-59.7428
-59.9123
-74.7443
-39.3513
-33.6684
-38.8593
-155.283
-85.7268
-82.2213
-34.8505
-38.6134
-39.0369
-59.8925
-59.7366
-74.7225
-31.7368
-36.9954
-37.5695
-32.9083
-32.5466
-32.8959
-33.6462
-38.1423
-33.0322
-32.9734
-34.9391
-43.2812
-45.0032
-51.9794
-65.4017
-46.9831
-43.6544
-45.6493
-51.359
-32.8758
-33.6186
-32.5025
-32.8482
-37.7968
-34.7888
-32.9195
-32.7745
-43.2134
-65.4264
-44.9451
-51.8932
-46.9461
-51.3433
-43.5462
-45.5982
-86.68
-75.8535
-86.1452
162.987
-138.708
-139.028
-90.9667
-1.21815
-48.36
-39.3551
-41.3109
-45.4191
-39.5876
-37.8808
-40.786
-32.8747
-33.7628
-31.9237
-35.6874
-27.5145
-42.085
-39.5706
-44.7826
-44.2026
-81.0379
-80.6821
-53.6111
64.7864
-41.8533
-31.8201
-41.3152
-21.8957
-32.9847
-32.6499
-35.5055
-29.7888
-41.7575
-47.0743
-43.3735
-42.7349
-86.69
-75.8029
-86.1362
163
-48.3333
-39.3237
-41.2811
-45.3982
-36.6512
-35.1939
-38.7472
-30.5084
-41.2111
-39.0366
-44.1212
-43.586
-41.8167
-31.7719
-41.2809
-21.861
-41.4402
-47.046
-42.9997
-42.8337
-32.3204
-32.538
-34.0532
-32.4924
-35.1237
-38.8263
-35.4446
-37.8213
-34.5541
-34.5461
-36.4376
-33.4765
-36.8864
-39.8667
-38.1962
-42.0281
-35.2442
-35.1887
-34.2786
-36.4856
-50.1206
-46.8811
-44.607
-58.6336
25.3644
25.3261
37.5284
-22.1389
-59.9727
-59.9971
-62.3995
-56.9981
-32.282
-32.4551
-33.972
-32.4409
-35.0626
-38.7651
-35.3911
-37.7586
-36.6763
-39.6629
-38.0701
-41.8055
-50.0338
-46.8134
-44.5248
-58.5713
-48.1203
-41.294
-40.961
-37.0166
-48.0909
-41.258
-40.9219
-36.971
-56.0265
-48.0838
-48.0801
-42.9306
-23.3726
-8.87212
-8.85471
6.39115
201.007
195.641
180.521
200.941
-36.1686
-38.2468
-37.7308
-40.211
-36.0841
-38.1734
-37.6408
-40.1268
-32.6945
-32.6287
-33.0132
-32.6776
-84.0219
-98.3814
-73.9865
-83.9986
-42.1225
-42.5743
-42.7945
-41.8427
-41.1889
-41.8977
-42.2155
-41.4007
-41.288
-42.955
-42.6867
-39.7882
-40.1036
-41.1083
-41.2529
-42.3439
-29.916
-24.0417
-28.2073
-26.0215
-80.7711
102.761
-91.8972
-16.219
-57.5539
-64.7052
-40.7369
-33.359
-37.5576
-33.4067
-42.0391
-40.3224
-82.7773
107.444
-55.7288
72.0191
-53.8543
-46.3439
-40.1806
-32.8867
-35.2643
-32.2165
-41.0084
-38.4225
-91.8825
-16.1243
-80.7174
102.525
-57.5772
-64.6857
-35.8833
-29.3838
-38.6762
-30.6147
-40.5749
-39.0746
-55.5742
69.5026
-82.7134
107.491
-53.8381
-46.3072
-34.9434
-30.045
-38.3926
-30.3658
-39.9663
-38.2698
-39.7697
-37.5561
-33.6366
-32.4618
-33.4617
-34.8426
-35.9727
-33.1689
-40.1284
-38.0414
-34.4046
-33.2159
-34.9342
-43.1796
-34.1257
-36.5633
-36.9001
-7.1109
-38.0823
-42.9437
-46.8719
-70.9645
20.4082
-45.6918
-45.1913
-52.7027
-41.0892
-43.0107
-43.204
-52.2898
-58.3174
-58.7268
-39.7076
-37.5319
-35.9563
-33.1489
-33.5833
-32.43
-33.4134
-34.7833
-39.7732
-37.7835
-34.0503
-36.4129
-34.2915
-33.1383
-34.793
-42.8817
-36.8466
-7.0315
20.5046
-46.372
-38.0263
-42.8735
-46.7923
-70.8776
-45.0273
-52.8121
-58.3092
-58.809
-40.98
-42.8341
-43.127
-52.2261
-57.222
-57.57
185.396
148.306
-68.2747
-68.2818
116.425
116.479
-47.8893
-37.8558
-54.664
-42.0282
-41.9818
-41.7081
-31.9158
-32.0809
-38.5178
-39.1214
-29.3141
-24.2689
-40.8638
-42.0705
-39.9629
-41.9478
-38.4415
-38.4198
162.379
162.554
-35.9016
-48.2004
-26.5015
-1.79822
-37.8878
-38.0007
-27.4284
-30.0811
-42.0668
-43.6007
-43.3264
-40.3183
-57.2337
-57.5827
148.633
185.243
-47.8599
-37.8066
-54.653
-42.0146
-40.4085
-40.5486
-27.3777
-29.0478
-40.3692
-41.0678
-39.659
-41.2551
-48.1808
-35.852
-1.74552
-26.4635
-43.2706
-41.3118
-40.4362
-43.4548
-35.51
-35.3103
-32.5069
-32.9095
-38.2104
-35.7624
-36.3775
-41.0462
-39.0201
-39.0259
-32.8321
-32.8211
-36.0418
-39.4473
-41.5823
-42.917
-33.5163
-33.529
-38.0182
-37.9071
-41.3663
-43.2546
-89.9235
-64.9524
15.6336
15.6684
-108.992
-109.073
-65.3483
-65.34
-47.2993
-47.3822
-35.4382
-35.2142
-32.4795
-32.8661
-35.7133
-38.1648
-36.3108
-40.9719
-39.3445
-35.9297
-41.2406
-42.6476
-43.1788
-41.2848
-64.9261
-89.8913
-78.0051
-47.4033
-48.0414
-84.0585
-32.0597
-34.5142
-37.529
-38.3974
-41.2321
-36.0625
-36.5039
-36.3767
-79.4888
-84.2384
-47.9721
-45.378
-77.9837
-84.0176
-48.0099
-47.3691
-79.4596
-45.3581
-47.9443
-84.1682
-41.1787
-36.3209
-36.4555
-36.0117
-32.0209
-38.3697
-37.4657
-34.463
-91.1792
-91.7977
-55.8152
-52.5055
-91.1427
-52.4858
-55.8143
-91.8403
-35.1606
-36.3452
-42.7672
-40.708
-35.1861
-40.7335
-42.7722
-36.3521
-63.1256
-31.7962
-23.7605
-52.9802
-18.513
33.8745
4.42551
-12.8552
-18.3745
-12.8011
4.4513
33.8812
-63.1327
-52.8852
-23.744
-31.7583
-12.0768
156.427
193.88
-33.1867
76.5867
75.5333
176.162
122.773
75.0719
122.368
176.721
74.1309
-13.5273
-35.0642
193.81
156.344
-33.2694
-33.9354
-36.448
-36.0212
-33.9979
-36.0312
-36.0346
-34.2451
-43.114
-43.7807
-39.7949
-39.5307
-46.7452
-40.5724
-40.6356
-46.2681
-33.2192
-35.9593
-36.3737
-33.8691
-46.672
-46.1888
-40.5584
-40.5052
-43.0263
-39.4018
-39.7001
-43.7064
-33.8605
-34.1487
-35.9385
-35.8937
-32.8129
-33.4305
-32.6183
-32.3537
-32.7826
-32.3215
-32.605
-33.4213
-33.7804
-34.2323
-32.9842
-32.7003
-33.8807
-32.7621
-33.0056
-34.2604
-78.0115
-63.7474
-98.1443
-19.6415
-51.1296
-61.6377
-72.4281
-54.6999
-51.0862
-54.6316
-72.4144
-61.6426
-77.8295
-19.5485
-98.1006
-63.6925
-41.7105
-40.0799
-41.3681
-42.8517
-40.5915
-40.6603
-42.2546
-42.1168
-39.6814
-41.8676
-42.1992
-40.6233
-44.3378
-41.9274
-42.8454
-44.1252
-41.4137
-42.5884
-40.8945
-39.5273
-44.2048
-43.8811
-42.445
-41.7363
-38.0382
-38.6708
-41.3489
-41.2561
-38.5627
-41.0865
-41.2723
-38.6027
-36.225
-36.5078
-39.8858
-39.9169
-36.0094
-39.5117
-39.7205
-36.4301
-36.7025
-35.4696
-41.1821
-41.1199
-38.6625
-41.9857
-41.5739
-36.4823
-53.3429
-45.9636
-42.5511
-57.2334
-36.0233
-35.3453
-40.1349
-40.6536
-35.3172
-40.6927
-40.2755
-35.2954
-53.3507
-57.2719
-42.6518
-46.0833
-35.0907
-30.8424
-28.7148
-32.9855
-32.0823
-30.3148
-22.9693
-27.1187
-30.6444
-29.5978
-27.6427
-30.5598
-33.0034
-32.964
-30.4182
-31.2645
-98.635
-129.475
-111.798
-42.0046
-39.2832
-39.2328
-65.5528
-44.8526
-92.3233
-38.6066
-35.5625
-38.363
-129.457
-98.7022
-111.805
-36.3347
-38.9781
-36.9378
-45.0522
-65.5551
-92.3119
-33.1301
-36.1379
-36.6444
-33.411
-32.5487
-32.8018
-33.2041
-36.8444
-32.8569
-30.346
-34.9394
-48.7014
-47.6902
-51.6411
-63.9797
-46.4844
-44.9332
-45.8745
-48.1707
-33.3752
-33.1705
-32.4953
-32.7556
-36.6834
-34.7722
-32.7751
-30.1562
-48.6585
-63.9623
-47.6367
-51.5722
-46.4259
-48.1374
-44.854
-45.8229
-98.9025
-84.6699
-112.067
91.7279
-135.18
-135.074
-113.324
-98.4296
-45.9082
-40.7586
-42.1206
-44.2257
-38.9623
-37.7976
-40.1012
-34.208
-32.9017
-31.898
-34.1387
-28.9567
-43.2745
-41.3023
-44.6899
-44.6292
-78.3313
-78.0861
-63.7495
-29.0087
-38.9681
-33.253
-39.3376
-28.0633
-33.2578
-33.0264
-34.4649
-31.459
-42.7083
-45.1647
-43.616
-43.1998
-98.9148
-84.6821
-111.977
91.5701
-45.8804
-40.7312
-42.0744
-44.2025
-36.111
-35.1021
-37.6848
-31.7761
-42.5887
-40.6245
-44.061
-43.9984
-38.9311
-33.2172
-39.3133
-28.0321
-42.506
-45.122
-43.3481
-43.2592
-32.3453
-32.4881
-33.1785
-32.4564
-35.75
-37.5533
-35.985
-37.3336
-34.6034
-34.5993
-35.4336
-33.9692
-38.0181
-39.2073
-39.1434
-39.5773
-35.2609
-35.2327
-34.7347
-35.8424
-49.2493
-47.5766
-46.2361
-53.0009
27.0045
27.0289
41.1567
9.51134
-60.0836
-60.0973
-61.2589
-58.7805
-32.3019
-32.4133
-33.1021
-32.3983
-35.662
-37.4937
-35.9292
-37.274
-37.8057
-38.9533
-39.0308
-39.3376
-49.1637
-47.5029
-46.1577
-52.9216
-44.7397
-41.0633
-41.1518
-38.7489
-44.7036
-41.0258
-41.1136
-38.7121
-51.795
-48.2889
-48.2857
-45.3929
-15.3265
-7.56746
-7.55836
-0.0735021
203.794
206.181
189.868
202.804
-36.6959
-38.1605
-37.8122
-39.2039
-36.6125
-38.0837
-37.7283
-39.1231
-32.7084
-32.6301
-32.8256
-32.7003
-85.5291
-92.0756
-79.3637
-85.5188
-42.2915
-42.4712
-42.6243
-42.4188
-41.5197
-41.8126
-42.0138
-41.8943
-42.4961
-42.8323
-42.6946
-40.9187
-40.7689
-40.7731
-40.8669
-40.9777
-28.3
-24.7967
-28.6979
-25.8815
-86.8836
-85.0846
-105.032
61.39
-146.201
-143.082
-119.31
-83.3427
-68.6026
-54.1293
-58.431
-62.4714
-40.7929
-39.8703
-40.4608
-34.9873
-36.6826
-34.7066
-36.5851
-34.4157
-40.859
-41.6295
-41.6521
-40.6504
-60.1192
-62.968
-119.578
80.1596
-70.3038
-85.1623
-69.715
0.126014
-59.9968
-46.3438
-51.9937
-48.4217
-37.8847
-37.8886
-40.5798
-34.0222
-32.9628
-33.1024
-33.8715
-32.4555
-39.741
-40.8774
-40.9402
-39.1209
-146.398
-143.281
-119.254
-76.7341
-86.9149
-85.0982
-104.935
61.2325
-68.5822
-54.1112
-58.4635
-62.4543
-33.7943
-32.2646
-34.4914
-30.6054
-37.7867
-36.9159
-38.0109
-32.1843
-39.1559
-40.4661
-40.2215
-39.3546
-69.0031
-84.4089
-69.3125
-2.82877
-60.0737
-63.0933
-119.483
80.5489
-59.9678
-46.3185
-51.9822
-48.3886
-31.4873
-32.2321
-33.2178
-30.902
-35.4801
-35.2007
-38.3152
-31.443
-38.7886
-40.3883
-40.0273
-38.7674
-34.5048
-36.9084
-40.1053
-36.953
-32.4394
-32.3309
-32.9404
-32.4056
-33.3679
-34.5805
-33.6796
-34.4951
-34.0308
-34.4015
-35.1149
-33.5765
-38.3504
-38.5835
-39.374
-37.9979
-33.0453
-32.7042
-33.6405
-33.0925
-33.466
-34.9427
-33.6144
-39.2009
-34.8617
-35.1863
-34.5623
-35.7153
-38.315
-32.4009
-36.0537
-20.5182
-43.0273
-40.0646
-39.7338
-42.2832
-51.9865
-51.0295
-48.8571
-58.932
-15.0204
21.208
20.481
-13.6931
-47.816
-47.4919
-46.6621
-51.008
-43.0759
-40.7279
-41.2208
-42.2795
-45.8387
-46.5149
-44.6264
-48.9753
-54.677
-59.6365
-58.7212
-59.5141
-34.4688
-36.8706
-40.0541
-36.9251
-34.0076
-34.3887
-35.098
-33.5575
-32.3969
-32.2995
-32.8967
-32.3719
-33.3168
-34.5251
-33.6291
-34.4385
-37.9802
-38.164
-39.0258
-37.683
-34.732
-35.104
-34.4736
-35.5882
-32.9316
-32.6096
-33.531
-33.0058
-33.2702
-34.7418
-33.4548
-38.9518
-38.2918
-32.3461
-35.9853
-20.44
-14.9383
21.2272
20.8436
-13.9022
-42.9678
-40.0041
-39.6759
-42.2184
-51.8954
-50.9443
-48.7749
-58.8471
-47.7562
-47.4476
-46.538
-51.056
-54.6876
-59.6676
-58.7322
-59.5699
-42.9472
-40.5667
-41.0988
-42.1344
-45.7899
-46.451
-44.5593
-48.9098
-67.6111
-51.6034
-57.4281
-57.7434
182.554
199.265
195.25
176.243
-77.675
-61.4542
-68.3361
-68.3317
76.4063
173.543
117.595
122.712
-41.2614
-41.3248
-44.7891
-39.3779
-46.3711
-47.7434
-50.5201
-44.3635
-41.0974
-42.3306
-41.8905
-41.7601
-32.5811
-31.2779
-32.0165
-32.2972
-37.2471
-39.9527
-38.5677
-38.8806
-26.0563
-24.6389
-27.2153
-24.1363
-43.9641
-42.7845
-42.5476
-42.6471
-43.5586
-43.1106
-41.2054
-43.1074
-46.4611
-29.386
-38.1358
-38.1268
128.069
180.249
166.429
164.248
-41.8206
-41.3161
-38.5531
-44.4655
-18.0505
-11.2509
-20.9247
-7.91088
-36.3565
-39.156
-37.875
-37.9482
-28.6111
-27.9824
-27.286
-28.8913
-43.1521
-42.9842
-42.6061
-43.1174
-42.1583
-41.3934
-42.2816
-41.2634
-67.5833
-51.5887
-57.4336
-57.7554
182.522
199.29
176.306
195.11
-41.2296
-41.2878
-44.7574
-39.3312
-46.3532
-47.7373
-50.5085
-44.3506
-39.4272
-41.175
-40.4122
-40.4753
-29.8777
-27.1225
-27.859
-29.6372
-43.2664
-42.0926
-41.9559
-41.802
-42.9981
-42.7268
-40.8289
-42.5322
-41.7802
-41.2762
-44.432
-38.5077
-18.0108
-11.2237
-7.86789
-20.8921
-42.7034
-42.4382
-42.7143
-41.9945
-42.2715
-41.5464
-41.3864
-42.4227
-34.7939
-35.7474
-35.4362
-35.2348
-32.5611
-32.6606
-32.5255
-32.7289
-36.1528
-36.1698
-37.4379
-35.7215
-38.0921
-38.2928
-36.9769
-39.6221
-37.6755
-40.8766
-39.1171
-39.1204
-33.1067
-32.6963
-32.8559
-32.8501
-37.8918
-37.7283
-36.6148
-38.8463
-42.2884
-41.7978
-41.7504
-42.4408
-33.8821
-33.2494
-33.5209
-33.5368
-37.1917
-38.8309
-37.9953
-37.9387
-43.1699
-41.0185
-41.6065
-42.5434
-65.39
-80.7247
-79.7045
-68.7821
26.5801
12.7261
17.5339
17.5496
-78.541
-112.243
-113.569
-113.617
-64.1555
-69.7989
-66.2881
-66.2833
-52.483
-43.907
-46.8921
-46.9387
-34.7114
-35.6643
-35.3593
-35.1461
-32.502
-32.6345
-32.4947
-32.6903
-36.099
-36.1187
-35.6716
-37.3871
-38.0262
-38.2218
-36.9104
-39.5504
-37.7755
-37.6318
-38.7475
-36.5083
-42.0098
-41.4227
-41.4139
-42.1447
-43.0858
-40.9353
-42.464
-41.5251
-65.327
-80.6853
-68.7152
-79.6799
-63.9118
-57.19
-56.7591
-51.1679
-39.3253
-36.7631
-35.9423
-38.4305
-36.2392
-36.6447
-35.4157
-35.9296
-66.6225
-54.9689
-56.9921
-50.3957
-63.89
-57.2128
-56.7799
-51.1679
-66.619
-54.9552
-56.999
-50.3749
-36.189
-36.5914
-35.3673
-35.879
-39.2672
-36.7099
-35.9043
-38.3914
-77.0938
-66.1299
-67.8525
-60.1051
-77.0957
-66.1125
-67.8567
-60.0947
-38.0477
-37.0839
-40.0828
-38.7943
-38.0682
-37.0994
-40.097
-38.8037
-49.4186
-43.5451
-39.5331
-33.3674
2.53191
11.4936
3.51659
13.0115
2.61227
11.5767
3.57817
13.0628
-49.3425
-43.5077
-39.493
-33.3294
121.078
70.4751
163.645
125.04
122.224
125.584
139.259
155.75
125.812
120.751
156.382
142.169
70.7613
121.04
124.731
163.433
-34.4896
-35.0865
-35.4364
-35.8323
-34.8966
-35.1939
-35.2923
-35.6428
-40.9814
-42.0692
-40.1644
-41.1882
-43.2556
-45.0504
-42.1592
-43.2536
-34.4291
-35.0253
-35.3688
-35.7672
-43.1824
-44.973
-42.0842
-43.178
-40.8827
-41.985
-40.0691
-41.1052
-34.7817
-35.0673
-35.1878
-35.5295
-32.5655
-32.8699
-32.5481
-32.7654
-32.8487
-32.5376
-32.7485
-32.5233
-33.68
-33.2579
-33.4429
-33.0857
-33.3256
-33.7449
-33.1351
-33.4863
-91.01
-73.1836
-96.6632
-98.4076
-55.8527
-58.7178
-62.0258
-63.585
-58.699
-55.8033
-63.5721
-62.0001
-73.0258
-90.9117
-98.3384
-96.6334
-40.1679
-41.851
-40.7737
-41.2536
-41.3323
-42.0608
-42.0795
-42.6198
-40.6606
-41.2913
-41.5889
-41.8051
-44.2807
-43.9893
-44.1566
-43.3831
-39.8081
-41.531
-40.3635
-40.9059
-44.0954
-43.7752
-43.8818
-43.145
-39.2105
-40.1724
-40.3453
-40.8523
-39.6077
-40.6101
-40.6341
-41.3876
-38.0323
-37.2063
-38.9273
-38.0636
-37.7825
-37.03
-38.6767
-37.9006
-37.3267
-38.8695
-38.582
-39.934
-38.6321
-40.0279
-39.4287
-40.7285
-49.7679
-53.969
-45.306
-47.6863
-36.5987
-38.0937
-37.9064
-39.1961
-36.4844
-38.0321
-37.9978
-39.2879
-49.8947
-54.0754
-45.4268
-47.7875
-32.9228
-32.6929
-32.0653
-31.1624
-28.5429
-29.7123
-26.297
-27.7173
-29.4876
-29.7618
-27.9381
-28.7013
-32.4338
-32.0973
-31.945
-31.1498
-107.435
-4.57112
-127.023
-86.6341
-80.3639
-88.3169
-40.3054
-36.5957
-38.0624
-36.4925
-41.3917
-39.0385
-112.611
59.5263
-77.9155
14.7489
-77.8905
-69.1827
-39.6069
-34.3982
-34.8752
-33.2699
-39.2888
-37.1588
-126.915
-85.8981
-107.29
-4.60227
-80.3418
-88.2923
-35.7316
-33.3314
-37.8762
-33.6271
-39.3925
-37.0538
-77.7377
14.4155
-112.62
59.0418
-77.8714
-69.1398
-33.6073
-31.0561
-37.5022
-31.8353
-37.7867
-36.2407
-32.066
-34.7692
-32.7282
-32.6575
-32.6501
-32.9654
-34.2369
-33.1292
-39.8893
-36.3532
-33.3659
-33.6443
-31.8678
-38.9624
-34.3488
-35.7105
-43.2627
-43.2776
-43.1921
-46.0991
-49.0907
-61.6654
-37.0274
-86.5761
-46.1379
-49.3299
-43.3196
-43.4511
-44.5072
-48.3255
-51.0314
-51.8922
-32.0312
-34.7402
-34.2102
-33.0934
-32.6822
-32.6266
-32.6069
-32.9149
-39.597
-36.1319
-34.23
-35.5196
-33.2378
-33.541
-31.7132
-38.6945
-43.2083
-43.1667
-36.805
-84.4368
-43.1371
-46.033
-49.0122
-61.5659
-46.0418
-49.3108
-50.999
-51.9002
-43.2247
-43.3348
-44.4397
-48.2776
-108.592
86.3114
-120.055
73.3404
-85.1929
-85.1882
165.893
146.923
-116.632
-124.149
-116.807
-128.166
-91.2631
-91.2573
-42.6872
-43.4449
-46.5029
-50.9098
-39.4348
-39.8318
-44.8009
-39.5429
-48.6128
-42.8751
-40.0711
-34.5438
-40.5744
-33.9491
-40.7092
-40.7441
-32.89
-32.9839
-35.1917
-31.6254
-33.8711
-28.6334
-35.4934
-36.029
-28.9433
-26.5783
-42.3914
-41.7422
-39.7879
-39.7068
-42.1278
-43.299
-41.3287
-43.2371
-61.6145
-12.8673
-61.3721
-9.82247
-53.5204
-53.4457
81.4632
78.7193
-44.1792
-35.8871
-35.6398
-22.3932
-38.3636
-43.5112
-27.0831
-16.96
-34.1462
-32.0425
-34.0448
-31.026
-35.3605
-35.3584
-29.7111
-30.6213
-41.8263
-41.0704
-45.2907
-48.343
-42.5968
-43.6884
-44.0315
-41.6874
-108.542
86.1377
-119.996
72.9409
-85.154
-85.1683
146.719
165.864
-46.4704
-50.8892
-39.4147
-39.8061
-44.769
-39.5003
-48.5741
-42.8533
-37.641
-31.8057
-38.1918
-31.467
-38.7397
-38.6617
-30.311
-30.7898
-41.2614
-40.8261
-39.2124
-39.2563
-41.5281
-42.4142
-40.839
-42.5144
-44.1506
-35.8401
-35.5875
-22.3444
-43.4869
-38.3196
-16.9165
-27.0483
-41.3224
-41.0107
-45.1475
-48.4253
-43.3863
-42.1078
-41.7642
-44.1396
-33.0166
-32.3335
-33.3492
-32.6968
-33.8905
-34.1244
-32.405
-32.6088
-34.6781
-35.6372
-37.5332
-39.8332
-34.9844
-35.5994
-36.6178
-39.0826
-35.3655
-33.9125
-35.3581
-33.9039
-36.4086
-36.4123
-33.4422
-33.437
-36.2185
-40.2875
-39.7685
-39.6921
-36.9441
-39.0781
-42.5283
-41.8534
-34.7158
-35.8489
-34.669
-35.7833
-34.2597
-34.28
-36.5004
-36.4609
-47.7468
-55.9515
-45.2421
-50.4796
-44.222
-45.1625
-61.0257
-56.4744
36.5251
4.01529
36.6233
4.08672
36.461
36.162
-20.5992
-20.417
-60.8902
-59.3124
-60.9026
-59.3515
-62.2186
-62.2215
-57.0758
-57.0973
-32.9612
-32.2913
-33.2571
-32.6257
-33.8159
-34.0371
-32.3621
-32.5534
-34.6259
-35.5807
-37.4756
-39.7704
-35.5441
-34.9324
-36.5544
-39.0186
-36.072
-40.0481
-39.6191
-39.5141
-38.9485
-36.8112
-42.2789
-41.6696
-47.6642
-55.871
-45.1713
-50.3993
-45.0788
-44.146
-56.4075
-60.9722
-47.984
-48.0655
-44.8036
-39.1021
-38.6475
-44.357
-37.26
-36.7814
-47.953
-48.0377
-44.769
-39.0613
-44.3214
-38.6064
-36.7349
-37.2085
-55.8119
-55.8088
-51.5879
-45.2155
-51.5852
-45.2111
-43.0222
-43.0252
-23.101
-23.0923
-17.0537
-1.91706
-1.89494
-17.037
5.86004
5.87274
200.018
185.733
190.244