# vtk DataFile Version 2.0
tet_velo
ASCII
DATASET UNSTRUCTURED_GRID
POINTS 29498 float
-0.775 0.715 -2.24372
-0.807907 0.615 2.325
-0.785 0.895 -2.24626
-0.770536 0.885 2.265
0.775 0.715 -2.24365
0.807815 0.615 2.325
0.785 0.895 -2.24644
0.770357 0.885 2.265
-0.852481 0.615154 -0.720814
-0.865227 0.580044 0.802093
-0.826407 0.937895 -0.742507
-0.8216 0.934576 0.761247
0.852361 0.615244 -0.720767
0.865211 0.579999 0.802117
0.826481 0.938028 -0.742627
0.821767 0.934863 0.761187
-1.60028 0.578324 -3.44218
-1.60764 0.554852 -2.23152
-1.66436 0.472087 -0.708122
-1.68508 0.4256 0.819117
-1.65383 0.436131 2.34283
-1.64293 0.436055 3.55509
-1.64527 0.424752 4.7644
-1.59757 0.710305 -3.45038
-1.60179 0.702466 -2.24179
-1.66973 0.629306 -0.72212
-1.68284 0.584908 0.799269
-1.63294 0.591133 2.31931
-1.62919 0.589744 3.53129
-1.63821 0.578289 4.74123
-1.60134 0.941076 -3.46137
-1.60368 0.932233 -2.25195
-1.65043 0.940956 -0.745331
-1.64979 0.922836 0.759923
-1.60242 0.887532 2.26691
-1.61245 0.884576 3.47968
-1.63018 0.87871 4.6927
-1.61872 1.35323 -3.49227
-1.62329 1.35602 -2.28575
-1.63859 1.38075 -0.785305
-1.64526 1.38949 0.711001
-1.63881 1.36963 2.21163
-1.63699 1.35202 3.41854
-1.64122 1.33879 4.62947
-0.789208 0.584899 -3.44343
-0.781847 0.563577 -2.23332
-0.83173 0.465159 -0.707885
-0.856023 0.421923 0.821532
-0.833844 0.449018 2.34706
-0.826535 0.445436 3.55795
-0.829235 0.429945 4.76606
-0.790227 0.712595 -3.45078
-0.817266 0.599406 3.53365
-0.824954 0.583261 4.74248
-0.794705 0.927153 -3.45904
-0.804823 0.886532 3.47929
-0.82017 0.880903 4.69261
-0.805018 1.34349 -3.48996
-0.805755 1.34667 -2.2832
-0.817545 1.37919 -0.783779
-0.826955 1.39308 0.710796
-0.826063 1.37152 2.21029
-0.825304 1.35272 3.4172
-0.828418 1.33942 4.62849
0.807284 0.584936 -3.44342
0.816518 0.56361 -2.23328
0.85339 0.465229 -0.70785
0.849075 0.42192 0.82155
0.810905 0.449019 2.34706
0.803839 0.445451 3.55795
0.801854 0.429975 4.76606
0.792786 0.712622 -3.45079
0.797682 0.599419 3.53365
0.798449 0.58329 4.74247
0.792098 0.927183 -3.45913
0.785295 0.886556 3.47929
0.793321 0.880942 4.6926
0.813644 1.34357 -3.49004
0.819091 1.34676 -2.28328
0.821058 1.37931 -0.783847
0.810324 1.39322 0.710751
0.796597 1.37163 2.21026
0.79401 1.3528 3.41718
0.794713 1.33949 4.62848
1.61423 0.578419 -3.44219
1.62548 0.554955 -2.23148
1.67628 0.472238 -0.708092
1.68496 0.425669 0.819135
1.645 0.436159 2.34284
1.62722 0.436102 3.55509
1.62207 0.42482 4.7644
1.59795 0.710388 -3.45041
1.59906 0.702555 -2.24178
1.66874 0.629491 -0.72211
1.68652 0.585 0.799279
1.63699 0.59115 2.31931
1.61826 0.589786 3.53129
1.61642 0.578357 4.74122
1.59577 0.941166 -3.4615
1.5975 0.932334 -2.25212
1.64715 0.941203 -0.745456
1.6526 0.923143 0.759861
1.60635 0.887614 2.26689
1.60136 0.884646 3.47967
1.60784 0.878796 4.69268
1.62402 1.35338 -3.4924
1.63123 1.3562 -2.28589
1.63946 1.38099 -0.785428
1.63196 1.38975 0.710917
1.61529 1.36983 2.21158
1.60977 1.35218 3.4185
1.61004 1.33893 4.62944
-0.735933 0.805 -2.20092
0 0.67134 -2.28735
-0.843286 0.635532 -1.48227
-0.809423 0.75 2.3152
-4.5985e-05 0.60314 2.33686
-0.882729 0.55136 1.56355
0 0.939737 -2.29109
-0.829901 0.940645 -1.49438
-8.94964e-05 0.905658 2.28566
-0.817126 0.930846 1.51312
0.735848 0.805 -2.20089
0.843288 0.635514 -1.48221
0.806789 0.75 2.3127
0.88269 0.551322 1.56356
0.829781 0.940554 -1.49453
0.816983 0.930852 1.51309
-0.857344 0.599109 0.04064
-0.874551 0.776525 -0.73166
-6.01594e-05 0.33375 -0.72079
-0.890243 0.75731 0.78167
-8.3478e-06 0.28202 0.802105
-0.817464 0.929696 0.00937009
3.6565e-05 1.04719 -0.742567
8.37746e-05 1.3228 0.761217
0.857255 0.599153 0.040675
0.874253 0.776636 -0.731697
0.889803 0.757431 0.781652
0.817423 0.929745 0.00928009
-0.865749 0.790762 -1.48833
-0.881784 0.766917 0.025005
-0.890966 0.753655 1.53834
-3.00797e-05 0.410394 -1.48224
-3.42536e-05 0.300942 0.0406575
-2.71664e-05 0.306744 1.56355
0 0.805 -2.25106
-6.77407e-05 0.75 2.25565
1.82825e-05 1.04571 -1.49446
6.01698e-05 1.36174 0.00932509
-2.86087e-06 1.01027 1.51311
0.865818 0.790818 -1.48837
0.881841 0.767033 0.0249776
0.890874 0.753715 1.53833
-1.18839 0.708733 -2.24276
-0.778423 0.639288 -2.23852
-0.782613 0.713797 -2.84725
-1.22042 0.603067 2.32215
-0.820876 0.532009 2.33603
-0.812586 0.607203 2.92933
-1.19434 0.913617 -2.24911
-0.789852 0.911077 -2.85265
-0.795377 1.12083 -2.26473
-1.18648 0.886266 2.26595
-0.78768 0.885766 2.87215
-0.798299 1.12826 2.23764
0.795759 0.639305 -2.23846
0.783893 0.713811 -2.84722
1.18703 0.708777 -2.24272
0.80936 0.53201 2.33603
0.802748 0.607209 2.92933
1.2224 0.603075 2.32216
0.788549 0.911092 -2.85278
0.802046 1.12088 -2.26486
1.19125 0.913667 -2.24928
0.777826 0.885778 2.87214
0.783477 1.12831 2.23763
1.18835 0.886307 2.26595
-1.26111 0.62223 -0.721467
-0.842106 0.540157 -0.714349
-1.27403 0.582476 0.800681
-0.860625 0.500984 0.811813
-1.23842 0.939426 -0.743919
-0.821976 1.15854 -0.763143
-1.23569 0.928706 0.760585
-0.824278 1.16383 0.736022
0.852875 0.540237 -0.714308
1.26055 0.622367 -0.721438
0.857143 0.50096 0.811834
1.27587 0.5825 0.800698
0.823769 1.15867 -0.763237
1.23682 0.939616 -0.744042
0.816046 1.16404 0.735969
1.23718 0.929003 0.760524
-1.60396 0.566588 -2.83685
-1.59892 0.644315 -3.44628
-1.19474 0.581612 -3.44281
-1.636 0.513469 -1.46982
-1.60472 0.628659 -2.23665
-1.19474 0.559214 -2.23242
-1.67472 0.448844 0.0554974
-1.66705 0.550697 -0.715121
-1.24805 0.468623 -0.708003
-1.66946 0.430866 1.58098
-1.68396 0.505254 0.809193
-1.27055 0.423762 0.820325
-1.64838 0.436093 2.94896
-1.64339 0.513632 2.33107
-1.24384 0.442574 2.34495
-1.6441 0.430404 4.15974
-1.63606 0.5129 3.54319
-1.23473 0.440745 3.55652
-1.64174 0.50152 4.75282
-1.23726 0.427348 4.76523
-1.59968 0.706385 -2.84609
-1.59946 0.82569 -3.45587
-1.1939 0.71145 -3.45058
-1.63576 0.665886 -1.48196
-1.60273 0.81735 -2.24687
-1.67629 0.607107 0.0385742
-1.66008 0.785131 -0.733726
-1.65789 0.58802 1.55929
-1.66632 0.753872 0.779596
-1.63106 0.590439 2.9253
-1.61768 0.739332 2.29311
-1.6337 0.584016 4.13626
-1.62082 0.73716 3.50548
-1.22323 0.594575 3.53247
-1.63419 0.728499 4.71696
-1.23158 0.580775 4.74185
-1.60251 0.936655 -2.85666
-1.61003 1.14715 -3.47682
-1.19802 0.934115 -3.4602
-1.62705 0.936595 -1.49864
-1.61349 1.14412 -2.26885
-1.65011 0.931896 0.00729589
-1.64451 1.16085 -0.765318
-1.62611 0.905184 1.51341
-1.64753 1.15616 0.735462
-1.60743 0.886054 2.87329
-1.62061 1.12858 2.23927
-1.62131 0.881643 4.08619
-1.62472 1.1183 3.44911
-1.20863 0.885554 3.47948
-1.6357 1.10875 4.66108
-1.22518 0.879807 4.69265
-1.62101 1.35462 -2.88901
-1.21187 1.34836 -3.49112
-1.63094 1.36838 -1.53553
-1.21452 1.35134 -2.28447
-1.64193 1.38512 -0.0371521
-1.22807 1.37997 -0.784542
-1.64204 1.37956 1.46131
-1.23611 1.39128 0.710899
-1.6379 1.36082 2.81508
-1.23244 1.37058 2.21096
-1.6391 1.3454 4.024
-1.23115 1.35237 3.41787
-1.23482 1.33911 4.62898
-0.785527 0.574238 -2.83838
-0.789717 0.648747 -3.44711
0.00903781 0.584918 -3.44343
-0.806788 0.514368 -1.4706
0.0173357 0.563594 -2.2333
-0.843877 0.443541 0.0568236
0.0108298 0.465194 -0.707867
-0.844934 0.43547 1.5843
-0.00347409 0.421922 0.821541
-0.83019 0.447227 2.95251
-0.0114698 0.449019 2.34706
-0.827885 0.43769 4.16201
-0.821901 0.522421 3.5458
-0.011348 0.445444 3.55795
-0.827095 0.506603 4.75427
-0.0136909 0.42996 4.76606
-0.792466 0.819874 -3.45491
0.00127937 0.712608 -3.45079
-0.82111 0.591334 4.13806
-0.811045 0.742969 3.50647
-0.00979188 0.599413 3.53365
-0.822562 0.732082 4.71754
-0.0132521 0.583275 4.74247
-0.799861 1.13532 -3.4745
-0.00130368 0.927168 -3.45908
-0.812497 0.883718 4.08595
-0.815064 1.11963 3.44825
-0.00976416 0.886544 3.47929
-0.824294 1.11016 4.66055
-0.0134246 0.880922 4.69261
-0.805386 1.34508 -2.88658
0.00431322 1.34353 -3.49
-0.81165 1.36293 -1.53349
0.00666824 1.34671 -2.28324
-0.82225 1.38613 -0.0364911
0.00175644 1.37925 -0.783813
-0.826509 1.3823 1.46054
-0.00831553 1.39315 0.710774
-0.825684 1.36212 2.81374
-0.014733 1.37158 2.21027
-0.826861 1.34607 4.02285
-0.0156473 1.35276 3.41719
-0.0168525 1.33946 4.62849
0.811901 0.574273 -2.83835
0.800035 0.648779 -3.44711
1.21076 0.581678 -3.44281
0.834954 0.51442 -1.47056
1.221 0.559283 -2.23238
0.851232 0.443575 0.0568503
1.26484 0.468734 -0.707971
0.82999 0.43547 1.58431
1.26702 0.423795 0.820343
0.807372 0.447235 2.95251
1.22795 0.442589 2.34495
0.802847 0.437713 4.162
0.800761 0.522435 3.5458
1.21553 0.440776 3.55652
0.800152 0.506633 4.75427
1.21196 0.427398 4.76523
0.792442 0.819903 -3.45496
1.19537 0.711505 -3.4506
0.798066 0.591354 4.13806
0.791488 0.742987 3.50647
1.20797 0.594602 3.53247
0.795885 0.732116 4.71754
1.20744 0.580823 4.74185
0.802871 1.13538 -3.47458
1.19393 0.934175 -3.46031
0.789308 0.883749 4.08595
0.789652 1.11968 3.44824
1.19333 0.885601 3.47948
0.794017 1.11022 4.66054
1.20058 0.879869 4.69264
0.816368 1.34516 -2.88666
1.21883 1.34848 -3.49122
0.820075 1.36303 -1.53357
1.22516 1.35148 -2.28459
0.815691 1.38627 -0.0365479
1.23026 1.38015 -0.784637
0.803461 1.38243 1.46051
1.22114 1.39148 0.710834
0.795303 1.36222 2.81372
1.20594 1.37073 2.21092
0.794361 1.34615 4.02283
1.20189 1.35249 3.41784
1.20237 1.33921 4.62896
1.61985 0.566687 -2.83684
1.60609 0.644404 -3.4463
1.65088 0.513596 -1.46979
1.61227 0.628755 -2.23663
1.68062 0.448953 0.0555217
1.67251 0.550864 -0.715101
1.66498 0.430914 1.58099
1.68574 0.505335 0.809207
1.63611 0.43613 2.94896
1.64099 0.513654 2.33108
1.62464 0.430461 4.15974
1.62274 0.512944 3.54319
1.61924 0.501588 4.75281
1.59851 0.706471 -2.8461
1.59686 0.825777 -3.45595
1.6339 0.666023 -1.48195
1.59828 0.817444 -2.24695
1.67763 0.607245 0.0385844
1.65795 0.785347 -0.733783
1.66176 0.588075 1.5593
1.66956 0.754072 0.77957
1.62763 0.590468 2.9253
1.62167 0.739382 2.2931
1.61734 0.584071 4.13625
1.60981 0.737216 3.50548
1.61213 0.728577 4.71695
1.59663 0.93675 -2.85681
1.60989 1.14727 -3.47695
1.62233 0.936769 -1.49879
1.61436 1.14426 -2.26901
1.64988 0.932173 0.00720231
1.64331 1.1611 -0.765442
1.62947 0.905379 1.51338
1.64228 1.15644 0.735389
[...]
POINT_DATA 29498
VECTORS point_vectors float
-3.9152 -0.691562 4.38113
0.0221032 0.313554 0.795351
-4.81234 2.40138 7.17526
0.210847 -0.392811 1.87881
3.86621 -0.645653 4.39664
-0.012111 0.323302 0.790111
4.80424 2.30322 7.17289
-0.2126 -0.391409 1.88123
-0.000364167 -0.0114806 0.124489
-0.00062844 0.0012377 0.00664914
-0.1253 -0.158141 0.569436
0.0532821 0.122829 0.447148
9.3184e-05 -0.0112786 0.126705
0.00067764 0.00133444 0.00723009
0.123789 -0.157827 0.570344
-0.0540857 0.126296 0.451351
-0.462993 -0.0155488 19.8157
-1.25982 -0.126434 20.2358
-0.731022 -0.0529231 21.0521
-0.109402 0.113211 21.3434
0.603543 0.278221 21.1669
0.763857 0.300514 21.4724
0.72923 0.181985 21.0102
-0.460763 0.0240331 19.8061
-1.34234 0.0113434 20.1971
-0.744448 -0.0175999 21.0518
-0.0905602 0.108143 21.3682
0.659303 0.237059 21.1844
0.798908 0.259193 21.4444
0.720235 0.187046 21.07
-0.459316 0.087872 19.821
-1.25845 0.230687 20.2121
-0.782061 0.0896995 21.0274
-0.05697 0.0656442 21.403
0.749613 0.0489723 21.2205
0.93539 0.002731 20.6645
0.658745 0.0822112 20.9303
-0.378601 0.171193 19.8789
-0.962579 0.44471 20.2181
-0.744227 0.261457 20.9615
-0.0966435 0.0461894 21.3703
0.58254 -0.190898 21.1648
0.688725 -0.26168 20.8303
0.512742 -0.119634 20.6326
-0.474907 -0.0542296 19.2584
-6.95801 -4.5445 18.1237
-0.0568547 -0.300982 4.9941
-0.39487 -0.134213 1.87211
0.59882 0.819631 6.87164
1.16566 1.14663 13.2472
0.881054 0.405234 13.1733
-0.499573 0.023426 19.2214
1.69384 0.758989 11.415
0.99337 0.25982 12.588
-0.467704 0.134055 19.2761
2.26622 -0.209358 11.7871
1.13209 -0.0547031 15.1475
-0.398283 0.362931 19.464
-1.84563 2.30617 19.7242
-1.7761 1.11811 20.7321
-0.0795048 0.16437 19.476
1.10043 -0.880594 18.9039
1.33334 -1.09604 19.0946
0.860113 -0.603068 20.0914
0.480637 -0.0509327 19.2708
6.35503 -3.53903 18.484
0.10702 -0.376712 7.08255
0.293155 -0.109497 1.40241
-0.422036 0.851765 5.80478
-1.1501 1.15611 12.7006
-0.892666 0.408692 12.7681
0.499497 0.0252053 19.2257
-1.6838 0.76339 10.9688
-1.00591 0.264735 12.1945
0.46633 0.135118 19.2764
-2.2612 -0.240933 11.3735
-1.11446 -0.0559587 14.8195
0.398213 0.360721 19.465
1.85167 2.2687 19.7109
1.781 1.13077 20.7207
0.0365542 0.19377 19.105
-1.11438 -0.89486 18.4578
-1.32198 -1.13084 18.9912
-0.866808 -0.623526 20.0702
0.452671 -0.0128214 19.8279
1.23586 -0.118899 20.2436
0.720775 -0.0541396 21.0562
0.107414 0.116373 21.35
-0.608206 0.280792 21.1703
-0.779298 0.306092 21.5161
-0.735295 0.186093 21.071
0.457828 0.0255837 19.8119
1.34856 0.00943583 20.199
0.743326 -0.0207304 21.0583
0.0893617 0.106034 21.3676
-0.656285 0.239691 21.192
-0.812365 0.260924 21.4775
-0.726494 0.191489 21.1312
0.464816 0.085733 19.8177
1.26798 0.228341 20.2179
0.783644 0.0865619 21.0328
0.0551215 0.0632654 21.4033
-0.746029 0.0531172 21.2308
-0.957625 -0.00380843 20.6758
-0.6745 0.0758774 20.9183
0.376727 0.168615 19.8824
0.954312 0.439361 20.2207
0.742833 0.257748 20.9623
0.0956844 0.042144 21.3758
-0.596176 -0.205818 21.175
-0.688375 -0.293512 20.8125
-0.523743 -0.124417 20.6579
-1.05691 0.120372 0.595823
0 0 0
-0.00675916 -0.00316379 0.157472
0.187753 0.0732611 0.891692
-0.00159675 0.0598837 -0.122408
0.0219662 0.00736874 0.418953
0.0686064 6.38756 4.68678
-0.0378767 -0.0416893 1.13311
-0.00184705 0.289539 -0.311113
0.122045 0.0678261 0.486831
1.02094 0.114982 0.601477
0.00651725 -0.00334046 0.157101
-0.166675 0.0698052 0.794809
-0.0221906 0.00824875 0.422151
0.0311639 -0.0341039 1.15
-0.120576 0.0689196 0.47891
-0.00119634 0.000940088 0.0929187
-0.00146997 -0.0329839 0.231808
0 0 0
-0.0127215 0.0698267 0.68805
2.69233e-06 0.000261474 0.0119406
0.045809 0.0595273 0.352135
-0.000607486 0.000877136 0.0097117
8.10053e-06 -0.00163879 0.0150204
0.00142354 0.00125025 0.120046
0.000552925 -0.0321317 0.215947
0.0122115 0.0682712 0.667239
-0.0427392 0.0551429 0.326186
-6.45974e-05 -4.51071e-06 0.00187551
0.00478449 0.0146184 0.246951
0.0101047 0.0163469 0.217827
-2.73413e-06 -0.00105244 0.00782559
1.26328e-06 -0.000671822 0.0178647
0 0 0
0.00133093 0.00880539 0.00300117
0 0 0
-3.27979e-19 6.25294e-18 9.88201e-17
-5.21926e-05 0.00778879 0.101988
0 0 0
0 0 0
-0.00500184 0.0141435 0.238131
-0.0111616 0.016405 0.23227
-2.87104 -0.109213 19.9134
-9.92529 -5.64832 17.0849
-1.47619 -0.0233858 18.1544
1.21323 0.468324 20.4105
0.226139 0.732056 3.59805
1.03029 0.785916 7.78573
-2.63765 0.588693 19.9767
-1.39902 0.460838 18.3145
-3.49364 3.56754 19.3298
1.43733 0.0394722 20.1542
1.50107 -0.0960688 8.6497
1.71809 -0.236662 12.9937
9.32698 -4.81695 17.5762
1.47227 -0.0209033 18.1684
2.87368 -0.110228 19.9084
-0.122225 0.731327 3.04316
-0.975211 0.812055 7.46458
-1.20869 0.47147 20.4598
1.3938 0.458812 18.3204
3.54284 3.4941 19.2746
2.6458 0.586579 19.9643
-1.47061 -0.0887591 8.31965
-1.70634 -0.232841 12.424
-1.435 0.0428947 20.2089
-1.02101 -0.00740754 21.3383
0.00475679 -0.173439 2.23077
-0.14601 0.287454 21.3726
-0.280208 0.238667 1.17779
-1.07564 0.0411789 21.1913
-1.92462 0.201924 14.8227
0.124455 0.0764934 20.9465
0.710157 1.28114 10.5604
-0.0128869 -0.257785 3.34288
1.01249 -0.00714837 21.3389
0.199519 0.168895 0.844044
0.143339 0.2891 21.4036
1.88091 0.222335 14.5755
1.06927 0.0303488 21.1902
-0.754378 1.37513 9.94748
-0.130916 0.0790595 20.9965
-0.866234 -0.0841067 19.8351
-0.460783 0.0073342 19.8052
-0.523066 -0.0265659 19.5797
-1.08643 -0.0885386 20.8065
-1.29637 -0.0647359 20.2197
-2.61625 -0.481886 19.9978
-0.429884 0.0164376 21.2439
-0.737735 -0.0352615 21.0519
-1.05219 -0.0630198 21.3045
0.268846 0.226433 21.348
-0.0999812 0.110677 21.3558
-0.277694 0.245788 21.4763
0.768436 0.306282 20.8794
0.631423 0.25764 21.1756
0.97193 0.611198 20.9325
0.622976 0.258323 20.3797
0.780414 0.287539 21.4644
1.10738 0.689602 19.3902
0.724732 0.184516 21.0401
0.718958 0.347308 19.1529
-0.889926 0.0162868 19.8058
-0.460545 0.0528737 19.8097
-0.535286 0.029226 19.5715
-1.10007 -0.00271849 20.8029
-1.33868 0.125763 20.1898
-0.424802 0.0204224 21.2502
-0.763544 0.0327091 21.0563
0.316288 0.196083 21.3728
-0.0537296 0.109031 21.4097
0.809936 0.271618 20.9125
0.754213 0.155459 21.2383
0.691129 0.187164 20.2652
0.86217 0.132193 21.0628
1.26036 0.593853 19.4546
0.705398 0.142836 20.9794
0.831685 0.202008 18.5495
-0.846522 0.161448 19.8331
-0.420304 0.143092 19.8415
-0.514211 0.118588 19.5885
-1.07406 0.186566 20.7714
-1.15072 0.348824 20.2119
-0.459471 0.0438044 21.2831
-0.781087 0.170478 21.0027
0.390491 0.069278 21.3942
-0.0632682 0.0523491 21.4003
0.883516 0.0254474 21.0212
0.690406 -0.0799141 21.207
0.628258 0.043589 20.3932
0.908404 -0.142664 20.8239
1.56563 -0.0178663 20.4224
0.585744 -0.0187115 20.7815
0.982623 -0.0564804 20.2081
-0.677437 0.309288 19.9249
-0.430543 0.256204 19.6932
-0.904626 0.3826 20.6908
-1.43245 0.944044 20.0604
-0.494569 0.147073 21.2431
-1.13182 0.411848 21.004
0.308175 -0.0889713 21.3281
-0.157185 -0.00749932 21.7067
0.683717 -0.25603 20.922
0.838417 -0.496894 21.2919
0.566559 -0.321807 20.652
0.86813 -0.625642 20.8626
0.774325 -0.280534 20.2238
-1.43583 -0.426274 18.2944
-0.484767 -0.00925545 19.2411
0.0104673 -0.10404 18.8556
-0.274452 -0.0997597 4.61074
0.0987379 -2.86138 2.49655
-0.0539112 -0.0936262 4.63655
0 0 0
0.0841668 0.0559867 2.03236
0 0 0
0.82685 1.23857 10.5296
-0.0888342 -0.692685 -1.35308
1.13725 1.05758 15.0662
1.3986 1.04214 12.318
-0.0282528 -0.130061 -1.57025
0.937212 0.332527 12.8807
0.033698 0.188911 8.68083
-0.497137 0.073877 19.2282
0.00225147 0.025792 18.8981
1.4047 0.946523 14.4344
2.18321 0.228997 10.3205
0.0440869 -0.609349 -3.4255
1.0959 0.114817 13.3443
0.0313267 0.0193248 7.4128
-0.423346 0.28795 19.388
-0.00116309 0.186518 18.9232
1.83165 0.0467085 14.4191
1.83316 -0.808545 16.5231
0.042808 -1.42072 0.432178
1.04669 -0.364415 18.3557
0.0333889 -1.28475 7.35745
-0.937426 0.946999 19.0956
0.00364359 0.441521 19.231
-1.56425 1.35859 21.0465
0.0258212 4.11812 19.445
-1.88184 0.644083 20.8985
0.00619773 2.18968 18.4262
0.935038 -0.493471 18.8258
0.0121346 -0.283761 4.96338
1.19823 -1.02968 19.0435
0.011744 -0.99438 10.4477
1.07547 -0.847194 19.613
0.0406347 -1.8443 14.1989
0.0233713 -1.38449 15.5195
1.45327 -0.415528 18.3677
0.487473 -0.00662791 19.2499
0.52304 -0.025242 19.5888
0.462259 -0.172499 7.97359
2.48613 -0.422502 20.0251
0.0617426 -0.100888 5.31009
1.0281 -0.0628521 21.2812
-0.0228193 0.0161567 0.581912
0.279437 0.251854 21.4539
-0.701907 1.23708 9.90111
-0.990949 0.62756 20.8486
-1.16161 1.05328 14.3419
-1.3843 1.04892 11.816
-1.12842 0.712783 19.219
-0.949288 0.336714 12.4813
-0.734585 0.350193 18.7812
0.496151 0.0750445 19.2301
0.536934 0.0282252 19.5734
-1.42576 0.946711 13.7714
-2.22308 0.200292 9.67226
-1.27503 0.611983 19.3272
-1.10682 0.121677 12.9521
-0.848113 0.206311 18.1936
0.423811 0.287007 19.3888
0.513329 0.118354 19.5872
-1.8649 0.0271003 13.9626
-1.82304 -0.848784 15.9191
-1.59333 -0.00808106 20.4105
-1.02681 -0.36442 17.9839
-1.01444 -0.0630625 20.1459
0.936677 0.937718 19.1026
0.426216 0.252593 19.6971
1.58347 1.36514 21.0432
1.42473 0.919375 20.058
1.90388 0.671367 20.7923
1.13342 0.40568 21.0033
-0.968279 -0.493123 18.3753
0.167372 -0.0134622 21.7229
-1.24243 -1.01884 18.6154
-0.851479 -0.52735 21.3039
-1.08413 -0.862843 19.6244
-0.886222 -0.65905 20.8832
-0.7813 -0.308445 20.1952
0.846624 -0.0760201 19.8547
0.453973 0.0095362 19.8165
1.07536 -0.0862573 20.8048
1.28529 -0.0658593 20.2263
0.425162 0.0172781 21.2456
0.73205 -0.037435 21.0573
-0.269352 0.228287 21.3542
0.0983878 0.111204 21.3588
-0.776595 0.319511 20.8756
-0.632246 0.260242 21.1812
-0.630543 0.271895 20.362
-0.795624 0.290891 21.5035
-0.730895 0.188791 21.1011
0.890025 0.0167003 19.8101
0.46175 0.053031 19.8121
1.1039 -0.0035763 20.8066
1.34617 0.123467 20.192
0.422021 0.0208657 21.2515
0.76327 0.0309736 21.0613
-0.316099 0.193553 21.3722
0.0532295 0.105746 21.4073
-0.809376 0.278007 20.9069
-0.750317 0.155967 21.2457
-0.690086 0.203144 20.2628
-0.883264 0.122418 21.0639
-0.72255 0.137541 20.966
0.854728 0.162264 19.8339
0.424093 0.137517 19.8398
1.07697 0.184735 20.7814
1.14725 0.346632 20.2196
0.458219 0.0423264 21.2842
0.780163 0.168194 21.006
-0.38857 0.0661369 21.3917
0.0606693 0.0503609 21.4042
-0.88646 0.0258069 21.0173
-0.698382 -0.0882723 21.2003
-0.620831 0.0544319 20.4108
-0.912278 -0.165702 20.7879
-0.598719 -0.0214527 20.8078
0.670564 0.305491 19.9297
0.901375 0.379148 20.6907
0.499568 0.143217 21.2439
-0.318151 -0.0991389 21.3349
-0.69986 -0.267257 20.9279
-0.586741 -0.30864 20.7331
-0.877549 -0.0369997 19.8209
-1.45601 -0.22483 18.2244
-1.26276 -0.184697 19.3166
-1.26055 0.00212666 19.2734
-0.529862 0.00535911 19.5722
-2.74211 -0.316618 19.9703
-1.09407 -0.0548935 20.8057
-0.0346784 -0.0260686 0.868627
-1.64412 -0.146179 21.1127
-1.61761 0.0302488 21.1748
-1.02669 -0.0263698 21.3027
-0.427814 0.0169729 21.2461
-0.0285163 -0.0115161 2.15388
-0.585809 0.0760238 21.4305
-0.504163 0.0916693 21.4166
-0.227082 0.282623 21.4782
0.295576 0.216314 21.3667
0 0 0
0.415576 0.45399 21.3332
0.550021 0.404677 21.1423
1.09327 0.546655 20.6819
0.789186 0.28895 20.896
0.913241 1.04423 8.75882
1.09182 0.676874 20.7392
1.35911 0.475193 20.275
1.19416 0.708217 19.2303
0.662999 0.228355 20.3035
1.29947 1.1645 14.625
0.825844 0.766174 20.6826
1.0694 0.653216 20.2143
0.775322 0.274658 18.8512
-0.88303 0.0826225 19.81
-1.49524 0.199353 18.1225
-1.21648 0.268613 19.3345
-0.531941 0.0764423 19.5777
-2.92403 0.302655 19.9503
-1.10786 0.0980039 20.8008
-1.51148 0.357792 21.1584
-1.01394 0.0163575 21.2531
-0.429193 0.0393317 21.2746
-0.498588 -0.105106 21.1772
0.00294771 0.242913 21.2099
0.382598 0.151411 21.4082
0.859113 0.160263 20.5363
1.3496 0.283347 20.1457
0.867429 0.148479 20.9846
1.17567 0.339376 6.83937
1.60432 -0.00963193 20.1918
1.37613 0.286947 20.1558
0.667064 0.114337 20.309
1.60566 0.537574 14.1283
1.33854 -0.0871724 19.9196
0.934709 0.0565412 19.2779
-0.773548 0.249437 19.8674
-1.15812 0.851313 18.6944
-0.854296 0.537703 19.6195
-0.465469 0.192227 19.6315
-2.00428 0.933652 20.015
-1.0163 0.286329 20.7406
-1.90734 0.819675 19.6486
-1.24189 0.684182 20.8331
-1.18045 0.163122 21.0919
-0.475855 0.086128 21.2726
-0.963412 -0.320367 12.1318
-0.885197 0.198759 21.529
-0.0124257 -0.0585822 21.5092
0.377276 -0.00651539 21.3757
1.79421 0.500657 11.4181
0.501116 -0.275164 21.5829
1.20299 -0.354655 20.9701
0.822997 -0.118335 20.9065
1.76603 -0.626456 14.9774
0.950248 -0.575077 20.9953
1.35647 -0.37225 20.3547
0.589936 -0.10505 20.5298
1.72663 -0.620066 17.4427
0.931422 -0.47028 20.3818
0.930857 -0.149478 20.0903
1.45913 -0.215227 18.2672
0.0317336 -0.81982 16.7926
0.00603914 -0.115543 16.657
0.0064788 -0.0158614 18.8866
0 0 0
0.0864626 -0.077807 2.53591
0 0 0
0 0 0
0.0321173 -0.0133456 2.5175
0 0 0
0 0 0
0 0 0
0 0 0
-0.0369054 -0.341511 -0.874422
-0.819978 1.10647 7.95127
-0.0505821 -1.52246 -4.17265
0.0180539 -2.03634 -4.27519
0.0470906 -0.463735 -4.4251
-1.32254 1.16332 13.9282
0.0483002 -1.81108 0.93397
0.0461355 -2.56572 -1.06577
0.0325124 0.104118 8.04681
1.49018 0.199707 18.1337
0.00241672 0.843742 16.9498
0.000590239 0.0958246 18.9138
-1.107 0.353197 6.29875
0.0150979 -0.6463 -0.230393
0.0434474 -1.01503 -1.49666
-1.62496 0.539963 13.473
0.0567169 -2.91076 3.78648
0.031818 -0.508187 7.07415
1.15556 0.841979 18.7071
0.0111998 1.53127 18.4141
0.000487604 0.370652 19.099
0.0709351 7.08038 19.1488
1.93465 0.812174 19.5707
0.0140589 2.37954 21.0693
-0.014819 0.539502 5.6186
0.917872 -0.272255 11.7511
-0.00456021 0.667947 5.8635
0 0 0
-1.77813 0.491836 10.7442
0.000389562 -0.587536 7.5265
0.00252922 -0.0553746 0.716611
-1.7666 -0.63043 14.4688
0.0230711 -1.19541 11.9462
0.0303792 -1.75009 6.71529
-1.77295 -0.645833 16.8847
0.0429858 -1.43489 14.4172
0.0226134 -1.84023 9.82196
0.866449 -0.03478 19.8339
1.24183 -0.168689 19.3634
1.25607 0.00147442 19.2784
0.530012 0.00549187 19.5776
2.66891 -0.297535 19.9906
1.09154 -0.0552631 20.8061
1.61408 -0.142991 21.0876
1.61308 0.0312254 21.1764
1.01485 -0.0285546 21.3004
0.422743 0.0172963 21.2486
0.579469 0.0770828 21.4419
0.496402 0.0940122 21.4267
0.22494 0.285902 21.4756
-0.29572 0.216426 21.3693
-0.422736 0.459869 21.2615
-0.550984 0.405249 21.1805
-1.10145 0.555237 20.6151
-0.792985 0.298759 20.8912
-1.09201 0.688753 20.6563
-1.37055 0.476886 20.2137
-1.21322 0.726103 19.0809
-0.668822 0.239248 20.2838
-0.84224 0.813986 20.6846
-1.08195 0.699871 20.2213
-0.791349 0.278252 18.4874
0.887537 0.082255 19.8118
1.2179 0.26788 19.328
0.533049 0.0748542 19.5768
2.93228 0.299764 19.941
1.10995 0.098313 20.8063
1.51012 0.352009 21.1631
1.0046 0.0114486 21.257
0.427723 0.0396309 21.2727
0.491432 -0.111011 21.1946
-0.00604836 0.242296 21.2519
-0.383034 0.14945 21.406
-0.862628 0.162297 20.5925
-1.34662 0.285952 20.1926
-0.868879 0.151133 20.9812
-1.62423 -0.00113045 20.1552
-1.39905 0.305097 20.025
-0.657403 0.128943 20.3252
-1.37578 -0.0883432 19.9105
-0.949565 0.062797 18.9227
0.774515 0.244811 19.8704
0.851325 0.525497 19.6282
0.463552 0.190152 19.6332
1.99594 0.91734 20.0123
1.01424 0.284479 20.7479
1.24154 0.674214 20.8322
1.1804 0.151619 21.0854
0.47626 0.0822844 21.2747
0.901221 0.196516 21.5366
0.00741223 -0.0696572 21.484
-0.379876 -0.0109431 21.3795
-0.509493 -0.293429 21.5956
-1.225 -0.366354 20.9272
-0.833232 -0.119959 20.9321
-0.966201 -0.623222 20.9904
-1.40246 -0.371456 20.3173
-0.591141 -0.0958245 20.5688
-0.936909 -0.48718 20.3326
-0.964951 -0.160385 20.0091
-1.27763 -0.0972186 19.2969
-1.64593 -0.0479715 21.138
-0.543576 0.0916372 21.3967
0.480351 0.439064 21.246
1.2388 0.59548 20.4893
0.977336 0.8791 20.3178
-1.24861 0.14527 19.2805
-1.564 0.20273 21.2185
-0.457304 0.0253441 21.2978
0.699762 0.324046 20.8155
1.48492 0.226499 20.2178
1.24283 0.211374 20.0108
-1.05384 0.447173 19.4761
-1.40612 0.516273 20.9841
-0.787119 -0.062222 21.5347
0.755085 -0.166212 21.3101
1.27332 -0.461528 20.8131
1.24529 -0.246815 20.1847
0.0189052 -0.460671 16.7109
0 0 0
0 0 0
0 0 0
0.0157691 -1.91965 -6.05825
0.0493524 -2.45563 -2.31261
0.00450249 0.309629 16.6041
0.0158519 -1.07423 -1.91607
0.0425251 -2.79575 1.24396
0.00602045 1.36458 17.653
-0.0223495 1.28677 13.5317
0 0 0
-0.00630588 0.323532 -0.249909
0.0195133 -0.869774 4.46342
0.044126 -2.55684 8.66796
1.25648 -0.0916963 19.3243
1.625 -0.0479834 21.1228
0.538035 0.0942816 21.4185
-0.485449 0.44272 21.2146
-1.24566 0.59269 20.4046
-0.992215 0.927387 20.3189
1.24755 0.143721 19.2785
1.56041 0.200693 21.221
0.44946 0.023752 21.3155
-0.701387 0.32345 20.8732
-1.49649 0.2315 20.1737
-1.25294 0.260598 20.0288
1.04764 0.441098 19.4808
1.40602 0.504879 20.9819
0.789769 -0.0773503 21.5295
-0.773354 -0.173508 21.2654
-1.30123 -0.484329 20.763
-1.30126 -0.257272 20.1696
0 0 0
-0.272648 -1.05331 0.966447
-0.0530015 0.0140496 0.412307
-0.0045852 0.000752191 -0.00119137
-0.166168 0.0325948 -0.0244699
0.0366296 -0.00832358 0.412409
0 0 0
-1.36037 3.89868 2.05062
-0.215732 -0.0681418 2.04251
0.0198705 -0.06205 0.103483
-0.088908 0.129267 -0.103628
0.124044 0.00327444 0.600857
0.287267 -1.06461 0.977982
0 0 0
0.0551076 0.0109377 0.441489
0.165917 0.0329055 -0.0253692
0 0 0
-0.0375408 -0.00903197 0.415038
1.36115 3.815 2.03222
0 0 0
0.202936 -0.0555526 2.06658
0.0871106 0.135734 -0.110586
-0.0196314 -0.0663705 0.107902
-0.124389 0.00288957 0.606037
-0.00654022 -1.99178e-05 0.486276
-0.000103916 -0.00126578 0.0299072
-3.43792e-05 -0.00105327 0.00926733
0 0 0
0.00572949 -0.0118069 0.289594
-0.00315885 0.0070596 0.144038
-0.011687 0.0490149 0.421979
0 0 0
-0.081559 -0.0973797 0.898737
0 0 0
-0.0119817 -0.0251591 0.436527
-0.0584772 -0.00283382 0.00793248
0.0655587 0.0877868 0.310823
0 0 0
0.0340151 0.0444481 0.192282
0.0307147 -0.00981305 0.132588
0.00351114 -0.00050916 0.389248
0 0 0
8.78074e-05 -0.00128881 0.0319989
-2.37271e-05 -0.000604057 0.0053939
-0.00570627 -0.0116717 0.288696
0 0 0
0.00378155 0.00844523 0.184
0.0123263 0.049188 0.423022
0.0760885 -0.0923714 0.900486
0.0631642 -0.002905 0.0087823
0 0 0
0.00553706 -0.0206258 0.413988
-0.0634634 0.0844102 0.300339
-0.0304986 -0.00980625 0.13246
0 0 0
-0.0325931 0.042394 0.183428
-0.00608422 0.00575137 0.0716526
-0.0154895 0.0152452 0.0037875
1.19418e-19 1.17813e-17 -7.0691e-17
-0.00100004 0.0222551 0.0212852
0 0 0
-0.00791052 -0.00785081 0.0691983
0.000182551 0.000190972 0.00274362
-4.65013e-18 3.23731e-18 1.04242e-18
-6.18864e-06 0.000379371 0.00253377
-7.67319e-05 0.00626835 -0.00154334
0.000455291 0.000269927 0.0136119
3.28853e-07 3.75849e-06 8.32297e-05
0 0 0
-0.000207651 0.00218056 0.0185865
-0.000122601 -0.000147229 0.00402221
-0.0155698 0.0112278 0.17323
-0.000452481 0.0628881 0.0101813
3.00439e-06 0.00101355 -0.00699355
0.000904764 0.0010136 0.00943916
0 0 0
-6.66867e-17 -6.22877e-17 -1.64018e-17
0.00576111 0.00552067 0.0669796
0.0088959 -0.00839673 0.0760157
0 0 0
0 0 0
-0.000758755 0.000849506 0.0115519
9.45902e-08 -1.08971e-06 -2.41594e-05
0 0 0
0.0156595 0.0105902 0.171163
4.85215e-18 -5.50499e-18 1.7085e-16
0 0 0
-0.000363485 0.000411295 0.00399558
-0.000273191 0.00117317 0.0174201
0.000200811 -0.000392357 0.0103579
-5.57574e-05 -0.000811176 0.00826222
-0.00190368 -0.012469 0.241782
-2.8636e-06 -0.00471344 0.044574
0 0 0
0.0160454 0.0530113 0.339018
0 0 0
0 0 0
6.27161e-08 4.20758e-06 0.000250502
0.000313551 0.000682052 0.00469523
-0.00779962 0.0135359 0.402826
1.61195e-05 0.000442257 0.0200497
-0.000492952 0.0196442 0.0434975
-5.17623e-05 -0.000260556 0.00561064
8.74558e-05 -0.00807848 0.0333329
-0.000202276 -0.000397058 0.0104616
0 0 0
0 0 0
0.00190033 -0.0130213 0.25625
-0.021087 0.0674158 0.409126
0 0 0
0.00749361 0.0146312 0.426193
-0.000338134 0.00075125 0.00515526
-0.0042712 0.00714307 0.0609883
-0.0077995 0.00347539 0.108324
0.00193655 -0.0102882 0.176413
4.28362e-18 1.396e-17 -1.34248e-16
9.62441e-19 4.51025e-18 -1.44977e-16
7.94869e-05 -6.38119e-05 0.00603129
6.43355e-06 -3.49719e-05 -0.000467243
0 0 0
0 0 0
0 0 0
0 0 0
0 0 0
4.687e-18 1.06049e-17 -5.63126e-17
0 0 0
0.00581652 -0.013968 0.0980135
-0.00817208 -0.0183217 0.127565
0 0 0
0 0 0
0.000105547 -8.63662e-05 0.00218432
-9.89556e-05 -8.11939e-05 0.00205393
0.00168491 0.00148975 0.0741885