# vtk DataFile Version 2.0
tet_velo
ASCII
DATASET UNSTRUCTURED_GRID
POINTS 29498 float
-0.615 0.125 -1.71586
-0.807966 0.145 1.745
-0.725 0.527217 -1.475
-0.745 0.62973 1.725
0.615 0.125 -1.71586
0.807966 0.145 1.745
0.725 0.527217 -1.475
0.745 0.62973 1.725
-0.716999 0.0939893 -0.56224
-0.764175 0.117802 0.59138
-0.764782 0.594503 -0.408333
-0.785342 0.642568 0.658333
0.716999 0.0939893 -0.56224
0.764177 0.117801 0.59138
0.764806 0.594527 -0.408333
0.785288 0.642514 0.658333
-1.34276 -0.138133 -2.67497
-1.353 -0.124141 -1.7869
-1.43635 -0.140715 -0.631027
-1.50373 -0.131742 0.542341
-1.5405 -0.110133 1.69968
-1.55016 -0.0957427 2.59497
-1.55167 -0.0825845 3.4769
-1.34427 0.0917388 -2.5858
-1.35381 0.116383 -1.70722
-1.45139 0.105981 -0.568275
-1.51792 0.120776 0.578501
-1.55011 0.138306 1.71912
-1.55895 0.152073 2.61318
-1.55934 0.16541 3.49794
-1.3921 0.529334 -2.38305
-1.43055 0.553101 -1.50088
-1.49563 0.599504 -0.421213
-1.53465 0.635656 0.652299
-1.52254 0.63488 1.73364
-1.54682 0.647416 2.63129
-1.56074 0.662619 3.53008
-1.4475 1.23568 -2.14431
-1.47199 1.26865 -1.27517
-1.50417 1.32864 -0.223689
-1.5291 1.37874 0.809049
-1.54093 1.39855 1.86144
-1.54971 1.40704 2.73248
-1.56031 1.41775 3.62177
-0.636806 -0.134003 -2.68058
-0.633679 -0.118562 -1.79508
-0.700298 -0.146829 -0.629929
-0.746318 -0.134298 0.553333
-0.775623 -0.107172 1.7189
-0.786146 -0.0941972 2.60801
-0.789178 -0.0823833 3.48445
-0.633444 0.0929946 -2.58752
-0.799846 0.153541 2.62393
-0.798083 0.165384 3.50363
-0.671922 0.51927 -2.3723
-0.788594 0.645651 2.62957
-0.801751 0.661575 3.52971
-0.716244 1.22803 -2.13368
-0.733589 1.26104 -1.26345
-0.754309 1.32649 -0.216628
-0.772374 1.38108 0.808202
-0.78332 1.39956 1.85539
-0.792032 1.40681 2.72644
-0.802834 1.41728 3.61738
0.709798 -0.134002 -2.68058
0.681339 -0.118561 -1.79508
0.733681 -0.14683 -0.629929
0.773172 -0.134301 0.553333
0.799497 -0.107174 1.7189
0.770505 -0.0942004 2.60801
0.748794 -0.0823882 3.48445
0.704956 0.0929956 -2.58752
0.758935 0.153538 2.62393
0.739638 0.16538 3.50363
0.733813 0.519272 -2.3723
0.7353 0.645647 2.62957
0.725434 0.661569 3.52971
0.739281 1.22803 -2.13368
0.739515 1.26104 -1.26345
0.747085 1.32648 -0.216628
0.74744 1.38106 0.808202
0.73576 1.39954 1.85539
0.72538 1.4068 2.72644
0.714552 1.41727 3.61738
1.40104 -0.13813 -2.67497
1.37938 -0.124139 -1.7869
1.45233 -0.140719 -0.631027
1.52162 -0.131755 0.542341
1.55586 -0.110141 1.69968
1.53861 -0.0957513 2.59497
1.51549 -0.0825953 3.4769
1.39223 0.0917422 -2.5858
1.35085 0.116389 -1.70722
1.4449 0.105979 -0.568275
1.51951 0.120757 0.578501
1.55157 0.138299 1.71912
1.53056 0.152064 2.61318
1.50769 0.165399 3.49794
1.42867 0.529338 -2.38305
1.42102 0.553111 -1.50088
1.48382 0.599511 -0.421213
1.53013 0.635606 0.652298
1.51564 0.634864 1.73364
1.50397 0.647404 2.63129
1.49082 0.662605 3.53008
1.46432 1.23568 -2.14431
1.47112 1.26865 -1.27517
1.49074 1.32863 -0.223689
1.50211 1.37871 0.809049
1.49464 1.39853 1.86144
1.48433 1.40702 2.73248
1.47336 1.41773 3.62177
-0.670045 0.326108 -1.59547
0 0.102661 -1.7382
-0.675894 0.0996002 -1.13905
-0.799882 0.387365 1.7584
0 0.219776 1.67022
-0.807299 0.110173 1.16819
0 0.527876 -1.47566
-0.798478 0.614447 -0.941667
0 0.61713 1.7124
-0.830773 0.70175 1.19167
0.657986 0.326108 -1.58342
0.675912 0.0995822 -1.13905
0.800031 0.387365 1.75855
0.807303 0.110169 1.16819
0.798478 0.614447 -0.941667
0.830784 0.701762 1.19167
-0.695478 0.151005 0.01457
-0.772639 0.344246 -0.485287
0 0.0926933 -0.56224
-0.839517 0.380185 0.624857
9.54231e-07 0.0914825 0.59138
-0.768739 0.612212 0.125
1.19144e-05 0.943856 -0.408333
-2.70451e-05 0.934386 0.658333
0.695477 0.151006 0.01457
0.772642 0.344258 -0.485287
0.839518 0.380157 0.624857
0.768735 0.612209 0.125
-0.786934 0.335177 -1.04036
-0.81601 0.362216 0.069785
-0.896151 0.383775 1.17993
0 0.0992776 -1.13905
4.77115e-07 0.091573 0.01457
4.77115e-07 0.118403 1.16819
0 0.326108 -1.91793
0 0.387365 1.8869
5.95719e-06 0.682524 -0.941667
-7.56536e-06 1.02115 0.125
-1.35226e-05 0.765098 1.19167
0.786938 0.335183 -1.04036
0.815979 0.362208 0.069785
0.89615 0.383761 1.17993
-0.984403 0.120692 -1.71154
-0.624339 0.00321922 -1.75547
-0.624222 0.108997 -2.15169
-1.17904 0.141653 1.73206
-0.791795 0.018914 1.73195
-0.803906 0.14927 2.18447
-1.07778 0.540159 -1.48794
-0.698461 0.523244 -1.92365
-0.729294 0.894126 -1.36923
-1.13377 0.632305 1.72932
-0.766797 0.637691 2.17728
-0.76416 1.01464 1.79019
0.648169 0.00321942 -1.75547
0.659978 0.108998 -2.15169
0.982925 0.120695 -1.71154
0.803732 0.018913 1.73195
0.78345 0.149269 2.18447
1.17977 0.141649 1.73206
0.729407 0.523244 -1.92365
0.732258 0.894127 -1.36923
1.07301 0.540164 -1.48794
0.74015 0.637689 2.17728
0.74038 1.01464 1.79019
1.13032 0.632297 1.72932
-1.0842 0.0999852 -0.565258
-0.708649 -0.0264199 -0.596085
-1.14105 0.119289 0.58494
-0.755247 -0.00824752 0.572357
-1.13021 0.597004 -0.414773
-0.759545 0.960495 -0.312481
-1.15999 0.639112 0.655316
-0.778858 1.01182 0.733268
0.72534 -0.0264204 -0.596085
1.08095 0.0999839 -0.565258
0.768674 -0.00825007 0.572357
1.14184 0.119279 0.58494
0.755945 0.960505 -0.312481
1.12431 0.597019 -0.414773
0.766364 1.01179 0.733268
1.15771 0.63906 0.655316
-1.34788 -0.131137 -2.23093
-1.34351 -0.0231969 -2.63038
-0.989781 -0.136068 -2.67777
-1.39468 -0.132428 -1.20896
-1.35341 -0.00387898 -1.74706
-0.993342 -0.121351 -1.79099
-1.47004 -0.136228 -0.0443431
-1.44387 -0.0173668 -0.599651
-1.06832 -0.143772 -0.630478
-1.52212 -0.120937 1.12101
-1.51083 -0.00548303 0.560421
-1.12502 -0.13302 0.547837
-1.54533 -0.102938 2.14733
-1.54531 0.0140865 1.7094
-1.15806 -0.108652 1.70929
-1.55092 -0.0891636 3.03594
-1.55456 0.0281649 2.60408
-1.16816 -0.0949699 2.60149
-1.55551 0.0414125 3.48742
-1.17043 -0.0824839 3.48067
-1.34904 0.104061 -2.14651
-1.36818 0.310536 -2.48442
-0.988855 0.0923667 -2.58666
-1.4026 0.111182 -1.13775
-1.39218 0.334742 -1.60405
-1.48466 0.113379 0.00511294
-1.47351 0.352742 -0.494744
-1.53402 0.129541 1.14881
-1.52628 0.378216 0.6154
-1.55453 0.145189 2.16615
-1.53632 0.386593 1.72638
-1.55914 0.158741 3.05556
-1.55288 0.399744 2.62224
-1.1794 0.152807 2.61855
-1.56004 0.414014 3.51401
-1.17871 0.165397 3.50079
-1.41133 0.541217 -1.94197
-1.4198 0.882507 -2.26368
-1.03201 0.524302 -2.37767
-1.46309 0.576303 -0.961048
-1.45127 0.910875 -1.38803
-1.51514 0.61758 0.115543
-1.4999 0.964071 -0.322451
-1.52859 0.635268 1.19297
-1.53187 1.0072 0.730674
-1.53468 0.641148 2.18247
-1.53174 1.01672 1.79754
-1.55378 0.655017 3.08069
-1.54826 1.02723 2.68189
-1.16771 0.646534 2.63043
-1.56053 1.04018 3.57592
-1.18125 0.662097 3.52989
-1.45974 1.25216 -1.70974
-1.08187 1.23185 -2.139
-1.48808 1.29864 -0.749428
-1.10279 1.26484 -1.26931
-1.51664 1.35369 0.29268
-1.12924 1.32756 -0.220158
-1.53502 1.38865 1.33524
-1.15074 1.37991 0.808626
-1.54532 1.4028 2.29696
-1.16213 1.39906 1.85841
-1.55501 1.41239 3.17712
-1.17087 1.40692 2.72946
-1.18157 1.41752 3.61957
-0.635242 -0.126282 -2.23783
-0.635125 -0.0205042 -2.63405
0.0364963 -0.134002 -2.68058
-0.666989 -0.132695 -1.2125
0.02383 -0.118561 -1.79508
-0.723308 -0.140563 -0.0382979
0.0166913 -0.14683 -0.629929
-0.760971 -0.120735 1.13612
0.0134267 -0.134299 0.553333
-0.780885 -0.100685 2.16346
0.0119371 -0.107173 1.7189
-0.787662 -0.0882902 3.04623
-0.792996 0.0296718 2.61597
-0.00782068 -0.0941988 2.60801
-0.79363 0.0415005 3.49404
-0.020192 -0.0823858 3.48445
-0.652683 0.306132 -2.47991
0.0357559 0.0929951 -2.58752
-0.798965 0.159463 3.06378
-0.79422 0.399596 2.62675
-0.0204557 0.153539 2.62393
-0.799917 0.41348 3.51667
-0.0292222 0.165382 3.50363
-0.694083 0.873649 -2.25299
0.0309457 0.519271 -2.3723
-0.795173 0.653613 3.07964
-0.790313 1.02623 2.678
-0.0266472 0.645649 2.62957
-0.802292 1.03943 3.57354
-0.0381585 0.661572 3.52971
-0.724917 1.24453 -1.69857
0.0115184 1.22803 -2.13368
-0.743949 1.29376 -0.740041
0.00296329 1.26104 -1.26345
-0.763341 1.35378 0.295787
-0.00361191 1.32649 -0.216628
-0.777847 1.39032 1.33179
-0.0124666 1.38107 0.808202
-0.787676 1.40318 2.29091
-0.0237798 1.39955 1.85539
-0.797433 1.41205 3.17191
-0.033326 1.4068 2.72644
-0.044141 1.41728 3.61738
0.695569 -0.126282 -2.23783
0.707377 -0.0205032 -2.63405
1.05542 -0.136066 -2.67777
0.70751 -0.132696 -1.2125
1.03036 -0.12135 -1.79099
0.753426 -0.140565 -0.0382979
1.093 -0.143775 -0.630478
0.786335 -0.120737 1.13612
1.1474 -0.133028 0.547837
0.785001 -0.100687 2.16346
1.17768 -0.108657 1.70929
0.759649 -0.0882943 3.04623
0.76472 0.0296689 2.61597
1.15456 -0.0949759 2.60149
0.744216 0.0414957 3.49404
1.13214 -0.0824917 3.48067
0.719384 0.306134 -2.47991
1.04859 0.0923689 -2.58666
0.749287 0.159459 3.06378
0.747117 0.399593 2.62675
1.14475 0.152801 2.61855
0.732536 0.413474 3.51667
1.12366 0.165389 3.50079
0.736547 0.87365 -2.25299
1.08124 0.524305 -2.37768
0.730367 0.653608 3.07964
0.73034 1.02622 2.678
1.11963 0.646525 2.63043
0.719993 1.03942 3.57354
1.10813 0.662087 3.52989
0.739398 1.24453 -1.69857
1.1018 1.23186 -2.139
0.7433 1.29376 -0.740041
1.10532 1.26484 -1.26931
0.747263 1.35377 0.295787
1.11891 1.32756 -0.220158
0.7416 1.3903 1.33179
1.12478 1.37989 0.808626
0.73057 1.40317 2.29091
1.1152 1.39903 1.85841
0.719966 1.41204 3.17191
1.10485 1.40691 2.72946
1.09395 1.4175 3.61957
1.39021 -0.131135 -2.23093
1.39664 -0.0231941 -2.63038
1.41585 -0.132429 -1.20896
1.36511 -0.00387483 -1.74706
1.48698 -0.136237 -0.0443431
1.44861 -0.0173702 -0.599651
1.53874 -0.120948 1.12101
1.52057 -0.00549885 0.560421
1.54724 -0.102946 2.14733
1.55371 0.0140792 1.7094
1.52705 -0.0891733 3.03594
1.53458 0.0281565 2.60408
1.51159 0.0414016 3.48742
1.37154 0.104066 -2.14651
1.41045 0.31054 -2.48442
1.39788 0.111184 -1.13775
1.38593 0.33475 -1.60405
1.48221 0.113368 0.00511287
1.46436 0.352745 -0.494744
1.53554 0.129528 1.14881
1.52482 0.378181 0.6154
1.54106 0.145182 2.16615
1.5336 0.386581 1.72638
1.51912 0.158731 3.05556
1.51726 0.399734 2.62224
1.49926 0.414002 3.51401
1.42484 0.541225 -1.94197
1.4465 0.882511 -2.26368
1.45242 0.576311 -0.961048
[...]
POINT_DATA 29498
VECTORS point_vectors float
-5.64503 -7.272 10.9652
0.080208 0.32176 1.19016
-1.16304 0.324337 1.92626
-0.015378 -0.138168 0.214715
5.60077 -6.98654 10.4822
-0.0874261 0.31576 1.20733
1.16121 0.325649 1.92507
0.0154866 -0.139196 0.216168
-0.0491968 0.0092279 1.00378
0.0181406 -0.201104 1.40438
0.00346197 0.0186375 0.193317
0.218839 0.17716 0.572233
0.0482057 0.0090992 1.0076
-0.0150537 -0.195091 1.41436
-0.00347477 0.0188034 0.19482
-0.215804 0.174881 0.564802
-0.552286 -0.207457 19.746
-1.19973 -0.624979 20.1271
-0.592212 -0.454215 21.0114
-0.182618 -0.208604 21.0897
0.341299 0.0365069 21.189
0.631134 0.141759 20.8297
0.72214 0.0424084 20.6748
-0.683072 -0.163794 19.6773
-1.56704 -0.505189 20.1171
-0.732082 -0.418089 21.0493
-0.269114 -0.210056 21.126
0.38512 -0.0359321 21.2357
0.715651 0.0108659 20.8495
0.756027 -0.0226668 20.7213
-0.898862 0.0825127 19.6307
-1.69917 0.0676198 20.313
-0.917683 -0.189189 21.0602
-0.311969 -0.0985083 21.2002
0.38051 -0.183375 21.2555
0.688322 -0.252799 20.8237
0.649187 -0.293177 21.3174
-0.709525 0.404166 19.906
-1.0416 0.538192 20.3972
-0.763188 0.257722 20.9867
-0.218794 0.00103363 21.141
0.168548 -0.254232 21.0346
0.310494 -0.369967 20.7953
0.325638 -0.332165 20.4004
-0.522884 -0.485884 19.1177
-2.00903 -3.57298 19.5726
-0.254966 -0.474948 20.7554
0.186442 -0.277742 18.8651
0.682861 0.842507 18.4586
0.917809 1.2422 17.9823
0.921663 0.940777 18.5107
-0.690844 -0.413532 18.867
0.972639 1.11378 10.8602
1.28529 0.822642 13.3433
-1.14063 0.314023 18.3664
1.25492 -0.711395 10.1774
1.38377 -0.673252 14.272
-0.784337 1.08768 19.3298
-1.506 1.9159 20.12
-1.47778 1.38067 21.5284
-0.282116 0.140408 21.5821
0.0667998 -0.469652 21.3013
0.24624 -0.743242 20.9344
0.177081 -0.69626 20.8194
0.570202 -0.443487 19.2105
2.02292 -3.22835 19.6018
0.232612 -0.501516 21.0386
-0.151118 -0.284211 19.2332
-0.693944 0.825853 18.6802
-0.902353 1.29036 17.7341
-0.867294 1.03428 18.2005
0.738196 -0.375296 18.9664
-0.839547 1.21586 10.0217
-1.22227 0.921622 12.8657
1.20063 0.292343 18.5011
-1.09542 -0.748538 8.27272
-1.40153 -0.581841 12.3031
0.795273 1.06097 19.3555
1.51069 1.90242 20.1248
1.47847 1.39703 21.5367
0.279727 0.143242 21.5953
-0.0519834 -0.479053 21.3317
-0.211768 -0.780027 20.9635
-0.118738 -0.735569 20.8653
0.534051 -0.192761 19.7858
1.15641 -0.597302 20.1378
0.591542 -0.443184 20.9984
0.181193 -0.201008 21.0833
-0.340384 0.0286828 21.1877
-0.650442 0.142432 20.8373
-0.734344 0.0746156 20.6661
0.665579 -0.150274 19.7094
1.57621 -0.512197 20.1086
0.736217 -0.430217 21.0571
0.268729 -0.209838 21.1256
-0.388729 -0.0390156 21.2388
-0.742537 0.025345 20.8672
-0.802622 -0.0329722 20.8608
0.864481 0.0768478 19.6718
1.7399 0.0717643 20.3106
0.933772 -0.194342 21.0707
0.31267 -0.0991012 21.2056
-0.389199 -0.183908 21.2703
-0.718592 -0.290557 20.8611
-0.698541 -0.321429 21.4884
0.704423 0.397659 19.9142
1.04112 0.539394 20.3948
0.776438 0.268879 20.9924
0.224547 0.00494302 21.1543
-0.169418 -0.262805 21.0416
-0.326778 -0.398841 20.8059
-0.373271 -0.388581 20.4192
-3.86663 -0.595958 4.46048
9.06283e-05 -0.0413284 0.345525
-0.0242462 0.00200101 0.221741
-0.0282885 -0.0164534 0.00106109
3.25978e-06 0.0106811 0.0438357
0.0128621 0.00277314 0.331331
-3.12506e-06 0.0267245 0.0851042
-0.194715 -0.163062 1.40902
2.13675e-07 0.000211901 -0.000908824
0.012176 0.0250477 0.136155
0.561791 -0.0716083 0.629369
0.0240781 0.00203625 0.222273
0.0306282 -0.0180175 0.00145406
-0.0129476 0.00278413 0.332272
0.194832 -0.163215 1.40966
-0.0119464 0.0245908 0.133374
-0.0427496 0.0384684 0.544161
0 0 0
-6.7351e-08 1.47824e-06 0.000730426
-0.000383826 0.000504446 0.00287225
4.94825e-08 2.57377e-07 0.000162703
0 0 0
-1.94416e-05 0.165174 0.401372
8.29612e-06 -0.00236829 0.0101285
0.0435346 0.040124 0.536945
0 0 0
0.000372044 0.00049881 0.00283326
0 0 0
0 0 0
-0.000119682 0.00014743 0.00333028
-0.016804 -0.000985675 0.293981
-5.83094e-08 6.62659e-07 0.000264375
2.15225e-06 -6.45853e-06 0.00400724
1.19369e-06 0.00135866 0.00754046
-0.0160098 0.169174 0.22025
-2.79007e-05 -0.0136049 -0.00237386
-1.11155e-05 0.0296679 0.0617312
3.78975e-06 0.000382221 0.0172657
0 0 0
0 0 0
1.81906e-05 2.2844e-05 0.000434639
0.0167686 -0.00101955 0.294091
-3.20935 -1.56366 19.5506
-3.23931 -5.63845 19.1706
-1.85858 -1.32963 17.6604
0.733729 0.0606492 20.9728
0.324886 0.999932 12.4675
0.569796 0.803115 7.71481
-3.44392 0.35023 20.2492
-3.22653 1.51953 16.8832
-2.92047 3.0236 19.9116
0.916185 -0.134256 20.3592
0.28619 -0.738128 5.63738
0.470687 -0.67951 19.0496
3.27386 -5.23348 19.137
1.86053 -1.18563 17.8283
3.22997 -1.58632 19.5285
-0.344176 1.01082 12.7132
-0.464852 0.817075 7.05907
-0.732815 0.0594178 20.9617
3.20284 1.35051 17.1411
2.92254 3.00247 19.9155
3.50224 0.371913 20.2435
-0.0993665 -0.690688 4.84129
-0.511124 -0.622255 18.5024
-0.926366 -0.125108 20.3107
-0.657988 -0.810721 21.3703
-0.470561 -0.00571073 14.8527
-0.44429 -0.492514 20.9476
0.489686 -0.572291 13.6061
-1.32688 -0.647423 21.3913
-3.31266 1.22379 21.1638
-0.329853 -0.0249794 21.0004
-0.202813 0.0985329 20.022
0.462161 -0.00153088 15.5772
0.664036 -0.815258 21.3195
-0.424573 -0.566682 13.9414
0.440429 -0.488416 20.902
3.33188 1.24423 21.1557
1.32892 -0.660203 21.3314
0.131162 0.146557 19.7
0.325316 -0.0225343 20.9818
-0.865715 -0.396055 19.7973
-0.62036 -0.19222 19.7102
-0.593097 -0.33232 19.4915
-1.02424 -0.652029 20.7737
-1.40908 -0.594508 20.1134
-1.79857 -1.51946 19.877
-0.338046 -0.298893 21.043
-0.664551 -0.441214 21.027
-0.484943 -0.678145 21.2853
0.0275468 -0.0999528 21.1985
-0.23404 -0.227966 21.1053
-0.14372 -0.435597 21.1778
0.536188 0.108995 21.0621
0.342661 0.000995752 21.2103
0.607596 0.163765 21.3567
0.62567 0.113953 20.695
0.668759 0.0843487 20.8021
0.981625 0.463128 20.5659
0.778829 0.0209643 20.547
1.02782 0.453621 19.9208
-1.1332 -0.333064 19.7203
-0.793525 -0.0789864 19.6413
-0.742046 -0.262644 19.3413
-1.25918 -0.539866 20.8756
-1.72883 -0.2676 20.2326
-0.434355 -0.306206 21.0762
-0.828202 -0.34271 21.0691
-0.0074216 -0.131804 21.238
-0.320967 -0.155145 21.1723
0.613828 0.0153051 21.0501
0.403995 -0.0970777 21.2772
0.695713 0.00503711 20.6883
0.743492 -0.117502 20.8217
1.14485 0.293416 20.7315
0.692063 -0.152336 21.3447
1.10348 0.176159 20.2173
-1.3617 0.0999802 19.8016
-0.867411 0.29872 19.7325
-1.12999 0.172752 19.1368
-1.32147 -0.0994774 20.8766
-1.41097 0.393291 20.3612
-0.576967 -0.159547 21.1527
-0.948682 0.0741859 21.0258
-0.0231303 -0.111342 21.2583
-0.29455 -0.0342152 21.2024
0.617809 -0.24321 21.053
0.268377 -0.258653 21.1493
0.738465 -0.261662 20.712
0.496833 -0.387546 20.8315
1.2481 -0.379039 19.5158
0.534638 -0.396189 20.9192
1.0287 -0.301672 19.1853
-0.937665 0.528397 20.1021
-0.842849 0.711418 19.6447
-0.985726 0.412429 20.7402
-1.37789 1.04993 20.324
-0.48841 0.120106 21.1107
-1.1267 0.610054 21.211
-0.0187831 -0.127566 21.1086
-0.274947 0.0635584 21.3394
0.259687 -0.334407 20.9403
0.172007 -0.365742 21.1394
0.30157 -0.37321 20.7533
0.359889 -0.530519 20.816
0.359426 -0.54451 20.6052
-1.12347 -1.33259 18.7439
-0.603875 -0.461978 18.9993
0.0329516 -0.669928 18.8749
-0.539761 -1.55604 21.8734
-0.00161835 -4.92004 20.5476
-0.130325 -0.0656672 19.2998
0.000788274 -0.3866 19.227
0.637027 0.065623 18.6911
0.000493254 -0.0150838 16.2765
0.759021 1.12753 18.4258
-0.00771203 0.92988 15.5497
0.977011 1.33275 18.3692
1.03733 1.31399 15.4001
0.00199358 1.15597 15.9184
1.10738 0.999443 15.9635
0.0418985 1.36364 16.3947
-0.937133 -0.127886 18.5034
0.038151 -0.521986 18.3143
1.17223 1.14901 12.0021
1.10942 0.164267 6.16381
-0.0373691 0.533925 4.67777
1.36603 0.370099 11.2929
0.0292963 1.03988 8.1807
-1.04539 0.967053 18.7712
0.066037 0.684665 17.2147
1.52727 -0.78949 12.4163
0.732621 -0.988424 19.6894
0.0595298 -0.190986 -2.41569
0.645451 -0.842625 19.229
0.0711398 -0.369066 1.89784
-1.17129 1.66034 19.5762
0.0146551 1.53171 18.9765
-1.75281 1.79498 20.7924
0.0104036 3.08059 19.6639
-0.762792 0.646442 21.7575
-0.0123508 3.22385 22.1577
-0.057706 -0.193478 21.472
-0.00579187 0.189078 21.8206
0.16248 -0.64695 21.1041
-0.00253929 -0.426641 20.9883
0.243825 -0.7502 20.8484
0.000277014 -0.818058 20.7379
0.0481355 -0.832102 19.0927
1.12802 -1.23214 18.8629
0.651449 -0.423217 19.0968
0.597886 -0.313472 19.5215
0.543108 -1.51133 21.5865
1.7432 -1.37645 19.9046
0.0942154 -0.0888299 19.9235
0.503138 -0.667574 21.2531
-0.604746 0.01007 19.0339
0.152278 -0.427141 21.2048
-0.765838 1.12826 18.5266
-0.589821 0.144135 21.3837
-0.969027 1.39621 17.9952
-0.941351 1.39468 14.8317
-0.998344 0.487694 20.5153
-1.04842 1.08822 15.5666
-1.07716 0.500462 19.8191
0.996492 -0.124369 18.614
0.744881 -0.260604 19.3886
-1.12496 1.29005 11.3566
-1.01183 0.229484 4.61604
-1.18931 0.345015 20.122
-1.38478 0.452933 9.5531
-1.17418 0.24565 19.6653
1.0554 0.904916 18.8404
1.09229 0.150495 19.219
-1.41395 -0.771152 10.2759
-0.700835 -0.994239 18.8057
-1.34241 -0.403689 19.1391
-0.656543 -0.874512 18.5007
-1.05619 -0.331594 18.7365
1.17739 1.62652 19.5934
0.841997 0.698581 19.6567
1.7518 1.7992 20.7926
1.37548 1.04604 20.324
0.754135 0.660564 21.7755
1.13961 0.623959 21.2188
0.063245 -0.196069 21.5039
0.278952 0.067474 21.359
-0.131861 -0.659312 21.1486
-0.164557 -0.386616 21.157
-0.218548 -0.769744 20.8354
-0.335864 -0.580247 20.8504
-0.352733 -0.582614 20.7703
0.838964 -0.374054 19.8366
0.603142 -0.17784 19.7458
1.00283 -0.623411 20.7646
1.39183 -0.58513 20.1154
0.336465 -0.291922 21.0471
0.665993 -0.442276 21.0239
-0.0246082 -0.096784 21.1828
0.233393 -0.226372 21.0995
-0.537033 0.106591 21.0561
-0.346757 -0.00362519 21.2116
-0.639459 0.127586 20.6996
-0.692861 0.0949824 20.8266
-0.811955 0.0193612 20.6758
1.11225 -0.322281 19.7459
0.767638 -0.0716415 19.6783
1.27229 -0.557422 20.878
1.74458 -0.276948 20.2305
0.436265 -0.309066 21.0807
0.838445 -0.35295 21.0798
0.00691035 -0.132985 21.2339
0.319164 -0.155001 21.1756
-0.62474 0.0127775 21.0701
-0.406775 -0.101423 21.279
-0.728255 0.0142402 20.7333
-0.789874 -0.103872 20.8438
-0.755986 -0.177394 21.4966
1.33916 0.096215 19.8194
0.852929 0.287981 19.7567
1.35089 -0.106658 20.8886
1.41959 0.399472 20.358
0.582576 -0.16256 21.1614
0.967569 0.0749435 21.034
0.0254067 -0.110174 21.2701
0.298182 -0.0387455 21.2115
-0.632415 -0.237265 21.0878
-0.289932 -0.273132 21.1531
-0.783574 -0.288618 20.8279
-0.533094 -0.411274 20.8819
-0.562323 -0.445616 20.9229
0.9326 0.522982 20.106
0.992295 0.417916 20.7431
0.497223 0.130328 21.1256
0.0123079 -0.126786 21.1311
-0.266066 -0.360259 20.9501
-0.319946 -0.401767 20.645
-0.999242 -0.373479 19.7639
-1.4388 -1.36053 18.2737
-1.10295 -0.770216 19.3934
-1.58728 -0.660794 19.0203
-0.680786 -0.322034 19.4235
-2.4109 -1.63624 19.7509
-1.15502 -0.604216 20.8307
-0.396412 -0.65639 16.816
-1.19215 -1.2975 21.2102
-1.81772 -1.37678 21.6344
-0.549001 -0.758088 21.3723
-0.385572 -0.314282 21.0569
-0.164304 0.240577 12.8915
-0.198156 -0.447597 21.1784
-0.326555 -0.556289 20.6752
-0.271404 -0.505415 21.0808
-0.00333932 -0.130687 21.2124
0.690542 0.0858222 13.1906
0.099871 -0.30114 21.4175
-0.183998 -0.354806 21.0836
0.686612 0.121866 21.2384
0.550256 0.0689161 21.0497
0.707823 1.18604 13.7061
0.832045 0.333042 21.1442
1.05936 0.178103 20.7335
1.06782 0.396794 20.5862
0.660788 0.073107 20.6839
1.12031 1.44886 15.857
0.897026 0.445711 20.6093
1.0564 0.238452 20.8859
1.10826 0.368491 19.9638
-1.29757 -0.149226 19.7319
-2.88136 -0.216424 16.6581
-2.26093 0.374376 19.0283
-0.953124 -0.0948543 19.1705
-3.88291 -0.589731 19.8546
-1.34751 -0.347106 20.9059
-2.05772 -0.356609 21.3972
-0.959267 -0.718616 21.3121
-0.518383 -0.249498 21.1176
-0.713824 -0.420396 21.2598
-0.563032 -0.107699 20.7011
-0.029512 -0.113004 21.2623
-0.0769765 0.0959273 21.0298
0.787396 0.0389369 20.1729
0.640309 -0.113998 21.0996
-0.148538 -0.0382676 2.24371
1.11814 -0.301448 20.9153
1.3563 -0.0815985 19.6234
0.775434 -0.137071 20.7273
1.40939 0.248791 8.8858
1.31161 -0.402362 19.5379
1.107 -0.151136 19.041
-1.2498 0.407818 19.9317
-1.95219 2.13196 18.6934
-1.17482 0.965892 19.8956
-1.05464 0.544568 19.3559
-2.24503 1.05272 20.2866
-1.24634 0.214935 20.7997
-3.42056 1.82562 20.958
-1.39754 0.88257 20.8132
-1.63734 0.188917 21.3567
-0.612664 0.0106265 21.1544
-1.33897 0.531876 20.4185
-0.65991 0.304282 21.3719
-0.369844 -0.0336703 21.4703
-0.0189142 -0.118628 21.1822
0.341465 -0.0984628 19.5863
-0.0192569 -0.163424 21.2722
0.388064 -0.537185 21.2828
0.416752 -0.337292 20.9956
0.605602 -0.834873 19.5316
0.27239 -0.474864 21.0034
0.652413 -0.706117 20.9087
0.546268 -0.411462 20.7482
0.689794 -1.01707 19.5965
0.360751 -0.53097 20.5165
0.609914 -0.640005 20.9542
1.46555 -1.27842 18.405
0.071784 -2.10027 17.992
0.100452 -2.39771 15.6012
0.0346088 -0.606843 18.5541
-0.110916 -5.5842 21.8053
0.43272 -0.705901 17.2783
-0.00306599 -1.04355 21.1359
0.0111253 -0.0944022 11.178
0.160046 0.268344 13.4496
0.00450317 -0.155533 17.3537
0.000253333 0.0107201 8.8315
-0.684798 0.0423335 13.5128
-0.0114603 0.515732 15.8168
-0.000126697 0.750696 7.97268
-0.671227 1.19237 13.524
-0.00115112 0.93553 15.9577
-0.0547614 -0.374367 2.85672
-0.0248045 0.961417 11.1484
-1.08595 1.52581 15.1739
-0.00966342 1.32856 16.0037
0.0454515 0.684519 6.09158
0.032984 1.34423 12.4439
2.84524 -0.191834 16.8909
0.0912614 4.99628 14.5803
0.0796269 -0.141785 17.6049
0.275597 -0.038698 1.44372
-0.0253908 0.530406 -2.56971
0.0433435 -0.114548 -3.26792
-1.30902 0.271603 6.93786
0.058621 -0.608113 -0.648653
0.0232517 0.340585 0.644409
1.97614 2.05182 18.7394
0.0167112 2.42902 19.1971
0.048339 1.50623 18.0683
0.00610578 4.56074 18.9456
3.4199 1.83018 20.9576
-0.00199345 3.7518 20.4495
-0.00781189 4.3298 15.757
1.29518 0.556976 20.2025
-0.0119727 1.17725 22.4649
0.012965 -0.364177 7.92185
-0.36825 -0.0963016 19.382
-0.00237094 -0.216925 21.1646
0.018452 -0.431336 7.26893
-0.571304 -0.793343 18.5993
-7.70012e-05 -0.629176 20.5546
0.0181736 -0.925455 10.7028
-0.661713 -1.02653 18.7517
0.0154561 -0.842279 20.6156
0.0400984 -0.890552 12.6724
0.966 -0.343217 19.7923
1.07649 -0.689898 19.4618
1.5504 -0.633551 19.0887
0.68747 -0.3086 19.4522
2.33119 -1.54908 19.7823
1.14624 -0.597027 20.8245
1.2062 -1.23184 21.1629
1.82876 -1.38278 21.6374
0.563216 -0.752959 21.3517
0.387257 -0.315168 21.0558
0.223581 -0.448548 21.1837
0.329346 -0.566095 20.6854
0.273923 -0.501404 21.1574
0.00555087 -0.13166 21.1918
-0.0917056 -0.286095 21.4452
0.184741 -0.354943 21.0622
-0.67261 0.110901 21.2634
-0.551383 0.0708063 21.0573
-0.831383 0.331399 21.1483
-1.0793 0.195052 20.6364
-1.09479 0.441805 20.4981
-0.684364 0.089145 20.7081
-0.927231 0.457242 20.6193
-1.16559 0.276511 20.2085
-1.16178 0.426146 19.8488
1.27018 -0.140776 19.7517
2.18112 0.340294 19.1056
0.923891 -0.0907602 19.274
3.95646 -0.593858 19.8412
1.36906 -0.356982 20.9158
2.0636 -0.366685 21.3872
0.96419 -0.71748 21.1878
0.520321 -0.252837 21.1237
0.708599 -0.418742 21.2003
0.561678 -0.108311 20.7093
0.0287479 -0.112433 21.27
0.0746166 0.102354 21.0106
-0.790144 0.0379233 20.1535
-0.667529 -0.112046 21.0894
-1.14769 -0.303931 20.1246
-1.44184 -0.066786 18.9552
-0.827938 -0.13424 20.8071
-1.39821 -0.408922 19.2366
-1.17576 -0.140322 18.4189
1.23394 0.398477 19.9412
1.1721 0.948484 19.902
1.03982 0.522804 19.4002
2.2487 1.05832 20.2839
1.26098 0.218905 20.8049
1.4024 0.890143 20.8135
1.66337 0.202581 21.3641
0.624281 0.00845684 21.1705
0.671509 0.31668 21.3897
0.373301 -0.0366319 21.4746
0.0135622 -0.124746 21.2125
0.0198607 -0.167212 21.2939
-0.386692 -0.564147 21.2802
-0.433642 -0.368652 20.9804
-0.256556 -0.507544 21.0147
-0.662188 -0.789804 20.8833
-0.573578 -0.431953 20.7191
-0.360963 -0.574404 20.5639
-0.625162 -0.687432 20.9565
-1.34213 -0.75945 19.2575
-1.44037 -1.40047 21.406
-0.22956 -0.513285 21.0746
-0.0154328 -0.378318 21.3434
0.956344 0.260728 20.8974
0.947113 0.390233 20.6561
-2.06259 -0.231809 18.8905
-2.03213 -0.767919 21.6672
-0.575528 -0.463127 20.9186
-0.300682 -0.017276 20.7879
1.11116 -0.0170393 20.2135
1.45628 -0.13951 19.2654
-1.75906 0.967608 19.5183
-2.01254 0.500622 20.958
-0.944815 0.0140517 21.5479
0.0116986 -0.176729 21.4699
0.523114 -0.660163 21.1173
0.60448 -0.698795 20.9204
0.0660771 -2.4153 16.9978
0.00887566 -0.211094 13.0788
0.00869249 -0.0199149 9.19294
-0.00880343 0.580112 8.53032
-0.00703598 0.480929 9.58296
0.000439093 1.19172 12.1599
0.167015 0.201513 12.8767
-0.0127692 -0.542295 -3.1292
0.0546779 -0.134683 -1.64843
0.0356557 3.5036 18.0025
-0.00194645 5.94076 18.9769
0.0040419 0.0444407 7.82276
0.0213182 -0.422626 7.59369
0.014704 -0.553944 9.31795
0.0305072 -1.02619 12.0918
1.31893 -0.710147 19.3327
1.44342 -1.35004 21.3699
0.246305 -0.524428 21.1462
0.018962 -0.368837 21.3578
-0.964163 0.267889 20.863
-0.982363 0.414473 20.6602
2.00477 -0.232004 18.9789
2.03592 -0.769992 21.6559
0.581676 -0.463444 20.8993
0.30076 -0.0181665 20.7862
-1.1449 -0.00526283 19.9334
-1.56904 -0.142459 18.8955
1.73406 0.932639 19.546
2.02604 0.508877 20.9582
0.963417 0.0193622 21.5637
-0.0120083 -0.180156 21.4773
-0.516648 -0.704544 21.1096
-0.613534 -0.762681 20.97
-3.29349 -0.992334 2.75711
0.0241566 -0.335911 0.610359
-0.0278869 -0.0134937 0.735353
0.0212885 -0.0881253 0.0773526
0 0 0
-0.00792813 0.0114822 0.616836
-1.15079 0.0712217 1.53776
0 0 0
-0.274063 -0.0308334 1.13508
0 0 0
-0.000808073 0.000280821 -0.000680499
0.0108529 -0.0245844 0.163618
-0.0229053 -0.333416 0.614369
1.43529 -0.483308 1.44046
0.0239495 -0.0160565 0.748972
0 0 0
-0.0250546 -0.0873147 0.0828502
0.00803316 0.0112478 0.62017
0 0 0
1.15155 0.0788185 1.53394
0.284275 -0.0308314 1.1719
0.000800944 0.000278486 -0.00067735
0.000461615 7.4971e-05 -0.000197993
-0.0106841 -0.024536 0.163039
-0.0925717 0.029757 0.587518
0.0256075 0.125904 0.435086
0 0 0
0 0 0
0.0837763 -0.126202 0.881068
-0.0304191 -0.0863144 1.69214
-0.0093293 0.00605018 0.0473534
0 0 0
-0.0323125 -0.0647725 0.410402
-0.000204765 0.000103223 0.0038189
0 0 0
-0.136088 0.108251 0.436702
0.0389415 0.0701666 0.312701
-0.004061 0.0227445 0.0972811
0 0 0
0.0919825 0.0172771 0.13246
0.0932919 0.0301578 0.591335
0 0 0
-0.016664 0.0585588 0.346714
0 0 0
-0.0816426 -0.122732 0.88208
0 0 0
0.0336149 -0.0810423 1.68291
0.0090955 0.00595945 0.0460077
0.0344258 -0.067203 0.437872
0.136141 0.107899 0.43634
0.000869697 0.000434756 0.0159134
0 0 0
-0.0391063 0.0702524 0.312402
-0.0922075 0.0173187 0.132922
0.00401244 0.0226058 0.0970464
0 0 0
0 0 0
-0.703689 0.865416 0.839153
3.22215e-08 9.2549e-06 0.000679684
0.440595 -0.608471 0.558206
-0.00190193 0.00633261 0.279277
0 0 0
0.000243017 0.000656829 0.0198507
0 0 0
0 0 0
-0.000176 -0.179388 -0.0446546
-0.0140322 -0.00594641 0.269349
0.00777633 0.00489394 0.0624236
0.000109911 0.107221 0.211935
-2.19544e-06 0.0020287 0.11761
-0.000903102 -0.00226527 0.0401084
-0.0305551 0.00956819 0.036745
-9.42578e-05 -0.0315311 -0.0189694
0 0 0
-0.004154 0.000404713 0.077091
0 0 0
0.514335 0.630495 0.601262
0 0 0
0 0 0
0.00209051 0.00777722 0.273313
0 0 0
-0.000226211 0.000611479 0.0185372
-0.00770517 0.00484614 0.0618921
0.0139474 -0.0058182 0.268678
0.0300484 0.00967613 0.0364605
0.000887913 -0.00229285 0.0401714
0 0 0
0.00413858 0.000384488 0.0767751
0 0 0
0 0 0
0.0007243 -0.00401427 0.0952982
-0.00132931 0.000452999 0.0220036
0 0 0
0 0 0
0 0 0
0 0 0
8.09414e-08 2.86297e-07 0.000171606
2.34378e-08 4.66566e-07 0.000166426
-3.13173e-05 0.000120002 0.000691784
0.0478647 0.0442875 0.3762
-1.1018e-05 0.0498832 0.104238
-2.27977e-06 0.0214112 0.134152
7.76392e-07 -0.00305957 0.0219087
9.37382e-06 -2.47623e-05 0.000777044
0 0 0
0 0 0
-0.000801265 -0.0041492 0.0956627
0.0013093 0.000424651 0.0213048
0 0 0
0.00978706 0.0100386 0.0793089
-0.04778 0.0442011 0.37583
3.48149e-05 0.000135259 0.000770877
-0.11827 -0.0485226 0.600398
-0.0240655 -0.0148168 0.24837
0.0038179 0.00106369 0.124303
0.00980557 -0.0150373 0.109441
0.0442026 -0.0829948 0.855193
0 0 0
0 0 0
0.00314473 0.0344903 0.0823608
0 0 0
-0.00830158 0.0168875 0.133388
0.00114794 0.00257302 0.095591
0.00240445 0.00737339 0.118249
0 0 0
8.99968e-05 -6.79938e-06 0.000627052
-1.92479e-18 -1.33697e-18 3.50928e-17
0 0 0
0 0 0