# vtk DataFile Version 2.0
tri_press
ASCII
DATASET UNSTRUCTURED_GRID
POINTS 3682 float
-0.808544 0.335 -2.085
-0.785 0.495 2.34305
-0.695 0.995725 -2.235
-0.605 1.62342 2.115
0.808545 0.335 -2.085
0.785 0.495 2.34305
0.695 0.995725 -2.235
0.605 1.62342 2.115
-0.81207 0.376959 -0.608984
-0.860422 0.374092 0.867033
-0.750884 1.29084 -0.785
-0.704768 1.48396 0.665
0.812062 0.376968 -0.608984
0.860348 0.374167 0.867033
0.750884 1.29084 -0.785
0.704772 1.48396 0.665
-1.58218 -0.236948 -3.16562
-1.58088 -0.116185 -1.99522
-1.58449 -0.0870778 -0.518532
-1.59736 -0.113156 0.963394
-1.55756 -0.0394079 2.44052
-1.54463 0.0633615 3.61308
-1.55076 0.174453 4.78163
-1.57631 0.17249 -3.24997
-1.57175 0.321026 -2.08242
-1.57787 0.395608 -0.610789
-1.58408 0.408305 0.86318
-1.51538 0.504006 2.33531
-1.51933 0.607272 3.50749
-1.53887 0.713954 4.67689
-1.52815 0.936559 -3.41137
-1.49081 1.07791 -2.24274
-1.51319 1.3163 -0.788854
-1.46568 1.48274 0.663195
-1.38145 1.61486 2.11758
-1.44666 1.71034 3.29085
-1.50654 1.80295 4.46445
-1.49847 2.26613 -3.67304
-1.48229 2.43516 -2.50831
-1.48315 2.7134 -1.06285
-1.47315 2.9812 0.376996
-1.45819 3.17926 1.82272
-1.47223 3.29473 2.98802
-1.50201 3.39111 4.15878
-0.811326 -0.228239 -3.16729
-0.800554 -0.101343 -1.99767
-0.798795 -0.0930198 -0.518203
-0.827292 -0.139337 0.966683
-0.803803 -0.0540199 2.44627
-0.801425 0.053953 3.61698
-0.809791 0.168019 4.78389
-0.817321 0.17029 -3.25048
-0.79691 0.602064 3.51071
-0.808728 0.710099 4.6786
-0.779458 0.900817 -3.40815
-0.741773 1.714 3.29033
-0.790629 1.80468 4.46433
-0.745911 2.23776 -3.66986
-0.729228 2.4064 -2.5048
-0.736896 2.70086 -1.06074
-0.742539 2.9855 0.376742
-0.740303 3.189 1.82091
-0.755246 3.30306 2.98621
-0.780135 3.39702 4.15747
0.758794 -0.228235 -3.16729
0.803172 -0.101339 -1.99767
0.820382 -0.0930047 -0.518203
0.836064 -0.139285 0.966683
0.779458 -0.054 2.44627
0.720805 0.0539689 3.61698
0.689264 0.168037 4.78389
0.736766 0.170292 -3.25048
0.688849 0.602075 3.51071
0.668187 0.710114 4.6786
0.703199 0.900819 -3.40815
0.628376 1.714 3.29033
0.64192 1.8047 4.46433
0.748407 2.23776 -3.66986
0.758954 2.4064 -2.5048
0.747874 2.70087 -1.06074
0.711794 2.98551 0.376742
0.678431 3.18901 1.82091
0.665554 3.30307 2.98621
0.659259 3.39703 4.15747
1.54329 -0.236939 -3.16561
1.58487 -0.116174 -1.99522
1.6062 -0.0870473 -0.518532
1.61748 -0.113081 0.963394
1.5555 -0.0393575 2.44052
1.48891 0.0633996 3.61308
1.44949 0.17449 4.78163
1.52199 0.172497 -3.24997
1.57078 0.321032 -2.08242
1.58703 0.395629 -0.610789
1.60053 0.408382 0.86318
1.52611 0.504049 2.33531
1.45303 0.607304 3.50749
1.42336 0.713987 4.6769
1.47788 0.936564 -3.41137
1.49192 1.07792 -2.24274
1.52005 1.31631 -0.788854
1.47727 1.48277 0.663194
1.38811 1.61489 2.11758
1.37375 1.71037 3.29085
1.38245 1.80298 4.46444
1.50068 2.26614 -3.67304
1.50707 2.43517 -2.50831
1.49563 2.71342 -1.06285
1.4538 2.98122 0.376996
1.4099 3.17928 1.82272
1.39421 3.29475 2.98802
1.3912 3.39113 4.15878
-0.785135 0.665362 -2.19336
5.06639e-07 0.331193 -2.08881
-0.787968 0.378319 -1.34699
-0.787659 1.05921 2.32168
0 0.433684 2.40437
-0.878761 0.378497 1.60504
0 1.04569 -2.28496
-0.722542 1.14288 -1.51
0 1.63823 2.12981
-0.679517 1.57832 1.39
0.785186 0.665362 -2.19341
0.78774 0.378547 -1.34699
0.787693 1.05921 2.32172
0.878764 0.378493 1.60504
0.722541 1.14288 -1.51
0.67952 1.57832 1.39
-0.820611 0.391161 0.129025
-0.863165 0.8339 -0.696992
-3.83412e-06 0.310392 -0.608984
-0.853436 0.929024 0.766017
-3.73787e-05 0.332063 0.867033
-0.727605 1.38718 -0.0599999
-3.5298e-07 1.52451 -0.785
1.69641e-06 1.67405 0.665
0.820611 0.391161 0.129025
0.863166 0.833904 -0.696992
0.853422 0.929064 0.766017
0.727608 1.38718 -0.0599999
-0.858051 0.749631 -1.4285
0.85806 0.749633 -1.4285
-1.66374e-06 0.33619 -1.34699
-1.7649e-07 1.19345 -1.51
2.5332e-07 0.665362 -2.39756
-0.859003 0.881462 0.0345125
0.859002 0.881484 0.0345125
-2.06064e-05 0.318256 0.129025
6.71715e-07 1.6667 -0.0599999
-0.847034 0.994117 1.49752
0.847054 0.994137 1.49752
-1.86893e-05 0.378283 1.60504
8.48205e-07 1.66164 1.39
0 1.05921 2.37483
-0.78119 0.500181 -2.12353
-0.404272 0.331203 -2.0888
-0.779254 0.375662 -1.716
-0.787454 0.777105 2.33349
-0.3925 0.457926 2.38012
-0.846063 0.422566 1.97405
-0.740415 0.830544 -2.21453
-0.3475 1.04161 -2.28089
-0.72626 1.08679 -1.8725
-0.718273 1.34132 2.24029
-0.3025 1.62886 2.12044
-0.656083 1.6147 1.7525
0.404273 0.331177 -2.08882
0.781136 0.500181 -2.12348
0.779142 0.375774 -1.716
0.3925 0.457886 2.38016
0.787459 0.777105 2.3335
0.84613 0.422499 1.97405
0.3475 1.04158 -2.28086
0.740543 0.830544 -2.21466
0.726244 1.08678 -1.8725
0.3025 1.62885 2.12043
0.718458 1.34132 2.24047
0.65607 1.61468 1.7525
-0.80679 0.370868 -0.977988
-0.817303 0.383097 -0.239979
-0.860418 0.59403 -0.652988
-0.417392 0.320965 -0.608984
-0.874219 0.371667 1.23604
-0.822969 0.400174 0.498029
-0.866451 0.646798 0.816525
-0.435306 0.342925 0.867033
-0.736344 1.21649 -1.1475
-0.829241 1.07348 -0.740996
-0.739241 1.33901 -0.4225
-0.425732 1.50825 -0.785
-0.693146 1.53214 1.0275
-0.78272 1.2083 0.715509
-0.715988 1.43537 0.3025
-0.393238 1.66071 0.665
0.80679 0.370869 -0.977988
0.417387 0.320965 -0.608984
0.817286 0.383116 -0.239979
0.860405 0.59404 -0.652988
0.874223 0.371664 1.23604
0.434645 0.344135 0.867033
0.822964 0.400179 0.498029
0.866446 0.646835 0.816525
0.736226 1.21637 -1.1475
0.425731 1.50825 -0.785
0.829238 1.07348 -0.740996
0.739259 1.33902 -0.4225
0.693147 1.53214 1.0275
0.39324 1.66071 0.665
0.782716 1.20832 0.715509
0.715982 1.43536 0.3025
-0.83927 0.707497 -1.81093
-0.392567 0.665362 -2.38674
-5.7855e-07 0.334878 -1.7179
3.7998e-07 0.498278 -2.42155
-0.836401 0.563975 -1.38774
-0.393985 0.336071 -1.34699
-0.833461 1.02666 1.9096
-0.393829 1.05921 2.36678
-9.34467e-06 0.384356 2.0047
0 0.746447 2.37115
-0.889252 0.686307 1.55128
-0.43939 0.378259 1.60504
-8.8245e-08 1.14344 -1.89748
1.2666e-07 0.855524 -2.36429
-0.834457 0.946257 -1.46925
-0.361271 1.1896 -1.51
4.24103e-07 1.65481 1.7599
0 1.34872 2.27653
-0.765267 1.28622 1.44376
-0.339758 1.65078 1.39
0.839262 0.707498 -1.81095
0.392593 0.665362 -2.38676
0.871629 0.56409 -1.38774
0.393869 0.336071 -1.34699
0.83345 1.02667 1.90962
0.393846 1.05921 2.36685
0.889264 0.686315 1.55128
0.439373 0.378259 1.60504
0.834459 0.946258 -1.46925
0.36127 1.18966 -1.51
0.765262 1.28623 1.44376
0.33976 1.65078 1.39
-0.862894 0.624768 0.0817688
-0.422759 0.329821 0.129025
-0.864356 0.791766 -1.06274
-0.861866 0.857681 -0.33124
-2.74893e-06 0.317296 -0.977988
-1.22203e-05 0.311168 -0.239979
-0.856321 0.905243 0.400265
-0.849453 0.961571 1.13177
-2.89926e-05 0.312719 0.498029
-2.8034e-05 0.359812 1.23604
-0.790507 1.13292 -0.0127437
-0.425786 1.6509 -0.0599999
-2.64735e-07 1.29282 -1.1475
1.59368e-07 1.64668 -0.4225
1.18406e-06 1.67036 0.3025
1.27231e-06 1.66832 1.0275
0.862893 0.624779 0.0817688
0.422739 0.329822 0.129025
0.864359 0.791769 -1.06274
0.862049 0.857694 -0.33124
0.856321 0.905274 0.400265
0.849481 0.9616 1.13177
0.790501 1.13293 -0.0127437
0.425788 1.65091 -0.0599999
-0.819347 0.532078 -1.76346
-0.859727 0.584702 -1.02037
-0.844547 1.00431 -1.10512
-0.848727 0.8884 -1.84171
0.817969 0.532136 -1.76348
0.849443 0.888401 -1.84173
0.844549 1.00431 -1.10512
0.859568 0.584763 -1.02037
-0.399128 0.334716 -1.71695
0.399071 0.334717 -1.71695
0.399949 0.317425 -0.977988
-0.400011 0.317427 -0.977988
-0.354386 1.13861 -1.88499
-0.368357 1.28227 -1.1475
0.368356 1.28214 -1.1475
0.354385 1.13861 -1.88499
-0.398419 0.499229 -2.37506
-0.370034 0.843034 -2.34368
0.370047 0.843034 -2.3435
0.398433 0.499229 -2.37419
-0.861646 0.609404 -0.285609
-0.863848 0.636195 0.449147
-0.780677 1.16764 0.351382
-0.816925 1.10673 -0.37687
0.861647 0.609411 -0.285609
0.816919 1.10673 -0.37687
0.780673 1.16766 0.351382
0.86385 0.636217 0.449147
-0.421694 0.322158 -0.239979
0.421681 0.322158 -0.239979
0.431458 0.331447 0.498029
-0.431496 0.331447 0.498029
-0.452173 1.63241 -0.4225
-0.409397 1.65558 0.3025
0.409398 1.65558 0.3025
0.452183 1.63243 -0.4225
-0.894227 0.668933 1.1839
-0.861091 0.731706 1.94182
-0.757268 1.31377 1.83105
-0.776841 1.24635 1.07963
0.89424 0.668965 1.1839
0.776844 1.24637 1.07963
0.757264 1.31377 1.83106
0.861098 0.73171 1.94183
-0.43481 0.362724 1.23604
0.434764 0.35958 1.23604
0.415936 0.385573 1.98937
-0.415945 0.387327 1.98937
-0.346071 1.65869 1.0275
-0.321129 1.64341 1.7562
0.32113 1.64342 1.7562
0.346073 1.65862 1.0275
-0.393165 0.761776 2.36754
0.393173 0.761776 2.36754
0.348173 1.34502 2.27587
-0.348165 1.34502 2.27587
-0.778467 0.417591 -2.08787
-0.606408 0.331193 -2.08881
-0.774503 0.374727 -1.9005
-0.804516 0.636053 2.35656
-0.58875 0.464522 2.37353
-0.824932 0.449382 2.15855
-0.71775 0.913134 -2.22481
-0.52125 1.02947 -2.26874
-0.724296 1.05493 -2.05375
-0.652804 1.48237 2.16881
-0.45375 1.62634 2.11792
-0.632217 1.62073 1.93375
0.606409 0.331169 -2.08883
0.779388 0.417591 -2.08879
0.773755 0.375475 -1.9005
0.58875 0.464574 2.37348
0.804518 0.636053 2.35656
0.824956 0.449359 2.15855
0.52125 1.02953 -2.2688
0.717752 0.913134 -2.22481
0.724273 1.0549 -2.05375
0.45375 1.62634 2.11792
0.652918 1.48237 2.16892
0.632207 1.62072 1.93375
-0.809411 0.373933 -0.793486
-0.814681 0.380034 -0.424481
-0.844601 0.481316 -0.630986
-0.628022 0.322381 -0.608984
-0.870557 0.369644 1.05154
-0.82416 0.404669 0.682531
-0.865946 0.50919 0.841779
-0.651855 0.350528 0.867033
-0.758989 1.26904 -0.96625
-0.778564 1.17641 -0.762998
-0.745048 1.31491 -0.60375
-0.630759 1.48445 -0.785
-0.699965 1.50906 0.84625
-0.738389 1.34345 0.690254
-0.710146 1.45943 0.48375
-0.584271 1.64287 0.665
0.809409 0.373935 -0.793486
0.628016 0.322384 -0.608984
0.814667 0.380049 -0.424481
0.844549 0.481347 -0.630986
0.870435 0.369765 1.05154
0.65459 0.344965 0.867033
0.824155 0.404675 0.682531
0.865942 0.509229 0.841779
0.759009 1.26906 -0.96625
0.630751 1.48443 -0.785
0.77857 1.17641 -0.762998
0.745045 1.31491 -0.60375
0.699968 1.50906 0.84625
0.584273 1.64287 0.665
0.73835 1.34344 0.690254
0.710163 1.45945 0.48375
[...]
POINT_DATA 3682
SCALARS point_scalars float 1
LOOKUP_TABLE default
-104.686
-59.1278
-64.0557
-45.6835
-104.429
-59.1347
-63.826
-45.7285
-41.8465
-47.6161
-83.3166
-45.4877
-41.5937
-47.1084
-83.5937
-45.521
-30.3923
-104.686
-41.1551
-43.5633
-59.5008
-58.0056
-51.1276
2.36081
-104.686
-43.7776
-39.4464
-58.6965
-53.3891
-50.1151
39.1563
-80.837
-60.9049
-41.9654
-46.3076
-47.3829
-47.5299
-34.4801
-80.6211
-104.09
-53.8139
-42.1129
-45.4484
-45.0426
-94.6761
-164.663
-41.4368
-52.2397
-62.5469
-50.4902
-50.4058
105.314
-49.8592
-49.5801
151.042
-42.4997
-45.7867
-29.0432
-77.6111
-96.1385
-53.9693
-41.1032
-45.4484
-45.0426
-94.7895
-164.129
-41.3886
-48.7475
-62.6868
-50.5008
-50.4123
112.608
-49.7942
-49.5815
169.167
-41.8964
-45.7801
-27.1284
-76.7661
-97.5143
-53.9743
-40.6825
-43.5136
-45.1012
-30.5813
-104.429
-40.9813
-43.1601
-59.5036
-58.0119
-51.1375
2.18784
-104.429
-43.461
-39.3279
-58.7107
-53.4118
-50.1385
39.1519
-80.3485
-60.1899
-42.0268
-46.3099
-47.4242
-46.5862
-34.3877
-79.8831
-104.116
-53.8221
-42.1355
-45.4724
-45.1012
-93.9839
-118.198
-44.2273
-51.7868
-54.7953
-49.6716
-72.2893
-27.6924
-29.8628
-42.6921
-93.7449
-45.4509
-51.8369
-49.5736
-27.7392
-42.724
-38.737
-48.9974
-43.5501
-39.6255
-48.7327
-55.7863
-10.0051
-52.7698
-38.7121
-48.9368
-39.5258
-55.751
-52.276
-52.9624
-53.144
0.0218835
203.715
-42.7618
-42.741
-42.3204
-75.2921
-47.1678
-47.1788
-46.3999
-42.2038
-46.0035
-112.157
-123.697
-63.3757
-53.9986
-55.0523
-53.7048
-85.949
-75.1194
-49.7591
-43.7377
-35.4757
-42.9098
-123.699
-112.428
-62.544
-55.0383
-54.0183
-53.4444
-74.929
-85.5929
-49.685
-35.3414
-43.7829
-42.9337
-53.6409
-39.8359
-44.8806
-43.0152
-45.6517
-37.407
-35.9438
-47.1836
-38.7463
-59.6589
-66.947
-15.5456
-44.1897
-41.8731
-49.1837
-51.3226
-53.1764
-42.9994
-39.6856
-44.5907
-46.6185
-46.718
-37.3746
-35.9328
-38.7479
-15.4401
-59.6574
-66.9346
-44.227
-51.3301
-41.9409
-49.1866
-73.7111
190.886
-71.7134
97.4213
-49.015
-51.4529
-48.7372
-47.6405
-51.4707
-49.5646
-49.7721
-46.654
-32.3663
178.401
-50.009
-4.80712
-37.9013
-28.0116
-44.0726
-42.3782
-72.8356
190.975
-52.271
-51.6163
-48.7439
-47.6832
-49.7795
-46.6491
-50.2752
-5.34059
-44.0942
-42.3904
-40.001
-41.534
-49.9935
-46.2677
-47.8896
-43.0179
-40.2268
-43.5978
-44.8782
-45.7457
-49.0472
-71.7388
27.3388
-112.914
-61.0129
-46.8233
-39.9363
-41.5063
-50.5511
-46.2233
-40.2459
-43.6463
-49.0268
-71.7362
-69.7703
-51.096
-55.9792
-69.6042
-68.611
-70.0385
-56.3286
-50.3997
-70.088
-69.9103
-47.7484
-47.6935
-33.804
23.2432
23.2456
-33.8263
79.8868
168.321
168.305
83.2986
-42.2833
-38.2581
-44.869
-55.7511
-42.1308
-55.7152
-44.9669
-38.2284
-41.834
-41.7986
-43.7829
-43.9028
-103.126
-58.3475
-58.3516
-103.137
-46.3712
-51.4717
-45.0778
-43.4615
-46.4479
-43.5088
-45.0905
-51.4797
-45.4682
-45.9692
-51.8574
-51.8112
-46.4216
-39.1071
-39.1275
-46.4271
-49.6479
-49.6496
-35.5744
-35.4911
-108.949
-126.495
-84.9188
-55.7718
-54.9672
-56.0519
-71.4908
-51.4495
-70.2713
-41.468
-40.5629
-42.2752
-126.31
-108.315
-84.6287
-54.968
-55.7878
-56.042
-58.4838
-71.1027
-70.179
-40.6208
-41.5169
-42.3202
-43.4958
-40.6305
-43.253
-41.9362
-45.5235
-30.4977
-36.4008
-47.9299
-85.0565
-69.1655
-74.217
-57.9498
-46.1217
-43.3796
-46.9099
-49.8135
-43.2276
-41.8721
-40.4107
-42.9355
-44.8445
-47.2003
-30.6147
-36.3168
-85.0095
-58.0723
-69.1651
-74.2257
-46.1581
-49.8289
-43.4399
-46.9355
-93.365
-93.193
-99.0053
120.628
-119.896
-119.985
-88.9217
-5.67432
-52.7058
-33.3281
-46.8576
-48.3712
-53.3399
-47.6965
-50.8648
-48.0547
-54.5764
-54.5954
-54.0893
-50.2017
-54.0187
-47.3285
-50.931
-47.9018
-73.639
-73.6129
-57.8358
120.827
-36.1832
-21.9731
-45.972
-12.2024
-31.2761
-31.3387
-35.0679
-25.2322
-41.9536
-42.8692
-43.3894
-42.4074
-93.0856
-93.1388
-98.2134
120.934
-53.2319
-35.7153
-49.8277
-48.6978
-53.3761
-47.7467
-50.9007
-48.0845
-54.1574
-47.7901
-50.8546
-47.7639
-36.1893
-22.0552
-46.0976
-12.23
-41.985
-42.9045
-43.4256
-42.4267
-39.3288
-38.5415
-39.1748
-40.5044
-46.6274
-52.7054
-49.9633
-47.4907
-43.4204
-43.4179
-45.0531
-43.4276
-37.5558
-41.292
-39.742
-39.656
-48.2313
-48.4159
-46.5186
-46.596
-60.6021
-52.0902
-52.1934
-64.8903
-9.9953
-9.98004
27.9188
-109.243
-52.4574
-52.4616
-56.2088
-49.745
-39.1851
-38.5481
-39.1014
-40.5109
-46.4661
-52.717
-50.0387
-47.4082
-37.5418
-41.3153
-39.7879
-39.6687
-60.5769
-52.0654
-52.1391
-64.8876
-58.0855
-50.71
-54.1508
-50.2814
-57.2203
-52.2018
-54.5015
-51.6044
-60.8066
-52.5723
-52.6566
-49.5051
-15.0651
-1.49545
-1.50304
13.0465
200.761
186.068
198.379
200.811
-41.082
-44.8204
-41.468
-44.9722
-41.0395
-44.725
-41.4696
-44.9788
-42.1811
-42.6766
-43.0847
-42.166
-74.5081
-86.2319
-67.5311
-74.5079
-48.1995
-49.2636
-45.0648
-45.8111
-48.1979
-49.2868
-45.0653
-45.8083
-48.8981
-46.4012
-46.4373
-46.2608
-40.142
-42.2631
-42.2692
-44.3573
-46.3453
-49.3667
-37.6828
-46.3797
-92.3821
34.6254
-88.3849
8.31416
-66.9844
-67.3071
-54.0648
-49.3842
-55.1887
-49.6034
-52.0924
-51.8343
-77.679
117.082
-58.0475
119.598
-61.507
-38.8815
-45.8348
-39.5545
-37.2076
-32.8443
-44.008
-40.2626
-88.3707
11.275
-91.221
35.0458
-65.6153
-67.2917
-55.1163
-49.606
-54.0874
-49.3842
-52.0857
-51.7609
-58.0748
119.606
-77.5245
117.162
-61.3647
-38.878
-37.2338
-33.0073
-45.8522
-39.6304
-44.0366
-40.2876
-53.7309
-48.1893
-40.8505
-40.8114
-46.9931
-43.4071
-44.9694
-42.3472
-46.6032
-45.6298
-37.6332
-42.4062
-37.4371
-40.4544
-46.3907
-46.0827
-62.3246
12.0863
-59.6439
-57.5133
-59.8973
-90.7668
22.5611
-99.4312
-43.8064
-45.7403
-42.9636
-43.4781
-46.9586
-54.6122
-54.128
-48.9774
-52.5484
-48.2446
-44.9772
-42.3165
-40.6768
-40.7323
-46.5586
-43.1972
-46.8518
-46.9617
-46.0809
-46.5249
-37.5893
-42.2806
-37.4081
-40.4921
-62.4729
11.9656
22.6177
-99.4768
-60.0061
-57.4871
-59.8686
-90.79
-43.856
-45.7519
-54.1349
-48.9899
-43.0387
-43.5393
-46.9942
-54.619
-70.7561
-77.8046
163.236
181.951
-71.3304
-71.3725
100.188
98.8338
-55.5323
-45.0741
-58.9902
-48.2157
-50.5764
-46.4677
-49.3448
-41.6683
-51.6149
-51.6732
-49.54
-49.5422
-47.8442
-53.7359
-46.2301
-49.1757
-32.2903
-32.3058
179.639
179.313
-51.0205
-54.901
-18.6983
8.89513
-38.2406
-38.2552
-30.4458
-30.3873
-44.5132
-43.7228
-44.2617
-40.7126
-69.5964
-77.0468
182.26
163.354
-50.2613
-50.6951
-59.1147
-48.3471
-46.4686
-50.5861
-49.3554
-41.7557
-47.8908
-53.6249
-46.6195
-49.0901
-54.7538
-51.4484
8.87311
-18.7433
-43.7555
-44.5277
-40.7276
-44.2732
-41.0659
-39.1411
-41.571
-42.3402
-49.7036
-52.0236
-44.0811
-49.3492
-47.832
-47.8082
-42.6658
-42.649
-39.1959
-42.3112
-45.3835
-43.1753
-44.6829
-44.6628
-45.72
-45.7354
-47.0094
-52.937
-81.869
-64.2017
26.5919
26.5933
-110.65
-110.656
-60.3927
-60.3937
-46.7501
-46.7543
-40.9603
-39.1019
-41.5398
-42.2909
-52.499
-50.0993
-43.9684
-49.3392
-42.3655
-39.189
-45.4325
-43.1953
-52.8878
-47.0559
-64.2049
-81.8725
-91.5341
-54.4208
-57.1164
-96.1102
-45.4184
-48.193
-48.5075
-40.6515
-71.9485
-47.9275
-51.5962
-53.085
-81.3687
-91.0548
-58.7738
-49.971
-91.2383
-95.1089
-54.934
-53.8463
-81.1411
-49.9033
-58.256
-90.259
-72.9654
-53.2583
-52.3126
-48.1491
-44.9537
-45.6868
-50.867
-48.0683
-87.5775
-88.9497
-60.3373
-56.0981
-87.4003
-56.301
-60.405
-88.9648
-44.3942
-45.0183
-49.1705
-47.0447
-44.4355
-46.7328
-49.1072
-45.0083
-61.1425
-24.523
-16.1576
-57.3712
-9.52734
27.0023
12.3184
-0.275473
-9.52385
-0.352846
12.3198
27.0365
-61.1512
-57.3931
-16.1614
-24.5349
0.905693
101.964
184.006
-3.44562
90.6171
128.864
194.389
112.026
90.8223
111.864
194.559
129.045
0.272733
4.0925
183.364
102.396
-41.9327
-39.9506
-42.6433
-45.1403
-35.0172
-38.7457
-40.1103
-38.5775
-45.031
-49.2734
-43.4755
-41.4497
-63.8976
-51.013
-48.6334
-55.9133
-41.6913
-45.001
-42.5594
-39.8224
-63.879
-55.8629
-48.552
-50.9714
-45.0873
-41.439
-43.5156
-49.2672
-34.9736
-38.5292
-40.0917
-38.7287
-41.3908
-43.1781
-42.5122
-39.9004
-41.3216
-39.8365
-42.4951
-43.1635
-45.6368
-46.1025
-43.1229
-41.1221
-45.9681
-41.1498
-43.1399
-46.74
-105.585
-73.9212
-85.5586
-107.293
-51.3067
-55.7091
-66.7727
-58.8213
-51.3193
-58.819
-66.7744
-55.7136
-105.543
-107.324
-85.5612
-73.9134
-42.7586
-47.8582
-47.2001
-38.1369
-55.2603
-53.0187
-51.959
-53.6673
-44.9063
-43.5377
-45.802
-47.6587
-44.5456
-42.0001
-44.2806
-43.4627
-42.7752
-38.1574
-47.2316
-47.9432
-44.5937
-43.5041
-44.2875
-42.0307
-44.9345
-47.6735
-45.7975
-43.5689
-55.2812
-53.6251
-51.9335
-53.045
-43.971
-46.2885
-46.236
-46.8235
-43.4142
-47.5673
-46.2537
-46.9279
-55.5121
-54.3387
-48.9798
-49.9853
-55.5749
-50.1242
-48.9337
-54.3514
-47.4697
-43.8662
-44.3532
-49.5889
-39.2215
-35.7759
-40.3061
-41.1857
-39.2529
-41.2063
-40.3128
-35.7905
-47.4918
-49.5935
-44.3583
-43.8836
-49.0975
-50.0514
-49.6044
-49.1419
-49.0999
-49.1519
-49.6105
-50.0427
-37.1233
-27.7847
-38.8588
-44.1001
-37.0432
-44.0325
-38.7934
-27.7756
-108.746
-133.181
-120.947
-57.1066
-55.3042
-59.9317
-62.5852
-42.8004
-82.5683
-42.7991
-43.1512
-43.4719
-132.941
-108.995
-120.098
-55.2863
-57.1165
-59.9384
-42.9227
-62.1541
-82.5336
-43.2063
-42.8679
-43.5034
-42.3267
-41.1356
-42.4836
-41.0899
-41.2069
-37.3397
-39.2907
-51.6487
-94.2216
-75.1127
-77.8065
-98.8834
-45.5734
-44.3893
-46.0409
-48.7335
-42.0124
-40.9679
-40.87
-42.2248
-40.4292
-50.6289
-37.2129
-39.0499
-94.6723
-99.0725
-75.2114
-77.8429
-45.6081
-48.7553
-44.4297
-46.0744
-92.7836
-89.6755
-105.689
16.9098
-118.867
-118.93
-102.795
-106.613
-48.5871
-38.4761
-45.4156
-45.6885
-52.3318
-50.2547
-53.5882
-47.9614
-54.706
-54.6799
-56.437
-51.3767
-58.4537
-48.7902
-50.9721
-49.5299
-73.1252
-73.5237
-70.0284
4.31389
-31.569
-24.1925
-38.2357
-18.3324
-30.4221
-30.4479
-33.0869
-26.1322
-42.0866
-42.1617
-43.0768
-42.7306
-92.5155
-89.6098
-105.072
16.9572
-49.7003
-39.2105
-47.2861
-46.2348
-52.3829
-50.3184
-53.6453
-47.9874
-58.3741
-48.7663
-50.8607
-49.3656
-31.5797
-24.2612
-38.3304
-18.3571
-42.1163
-42.1952
-43.1149
-42.7537
-38.9874
-38.8396
-39.0697
-38.6795
-47.7104
-50.6339
-49.5264
-48.2522
-43.5491
-43.5483
-43.5561
-43.8161
-38.566
-41.2423
-39.9351
-39.3301
-48.5056
-48.809
-49.4829
-47.6989
-58.013
-53.8228
-54.1052
-59.6258
-9.83017
-9.82321
12.5635
-56.6931
-52.7128
-52.7148
-54.3081
-51.2984
-38.944
-38.855
-39.0094
-38.6767
-47.6061
-50.6103
-49.5108
-48.1715
-38.5445
-41.2528
-39.8937
-39.3493
-57.9787
-53.7896
-54.0539
-59.6153
-54.5433
-51.4916
-53.2498
-49.7178
-54.3863
-52.5513
-53.7343
-50.914
-56.6998
-52.9502
-52.9921
-49.9683
-8.00621
-0.632092
-0.635534
7.66338
202.869
199.858
201.765
203.014
-41.8793
-43.7315
-42.054
-43.7063
-41.8461
-43.698
-42.0452
-43.6997
-42.3246
-42.166
-42.6561
-42.3171
-75.1388
-79.2465
-71.6355
-75.1374
-47.7278
-48.9715
-46.0064
-46.0897
-47.7357
-48.9917
-46.0093
-46.1003
-46.8619
-46.3896
-46.4133
-45.9719
-41.1725
-42.218
-42.2211
-43.2536
-46.0847
-48.7053
-42.7177
-46.1034
-111.255
-105.472
-114.428
-25.8995
-122.64
-122.862
-104.636
-87.3095
-71.9697
-57.1667
-65.495
-64.5339
-54.9563
-53.7454
-56.5973
-49.6324
-55.0795
-54.927
-59.9098
-51.0577
-54.6985
-51.3487
-52.6385
-52.204
-80.6676
-87.1784
-96.8683
35.4098
-61.3488
-75.2027
-69.0478
41.5517
-60.9504
-42.399
-56.0183
-42.5488
-42.4422
-45.2445
-46.6638
-40.7584
-38.1653
-33.1984
-36.3485
-33.4564
-43.0236
-41.6207
-43.5305
-41.2455
-122.543
-122.936
-104.59
-89.6281
-111.598
-105.475
-113.002
-25.9989
-71.3164
-56.8554
-64.0597
-64.3949
-55.0786
-54.9121
-59.8353
-51.0577
-54.9734
-53.7713
-56.6238
-49.6306
-54.7047
-51.1829
-52.6164
-52.0978
-60.7628
-75.0919
-69.0628
41.4742
-80.2483
-86.9763
-96.7477
35.6319
-60.8293
-42.2888
-55.9228
-42.5229
-38.2099
-33.1858
-36.3835
-33.5168
-42.4909
-45.2836
-46.6842
-40.7542
-43.053
-41.6568
-43.5605
-41.2692
-45.8475
-56.1027
-54.4149
-49.5612
-40.1184
-39.2696
-40.4179
-39.6648
-44.095
-45.7209
-45.789
-44.1034
-42.9886
-43.1202
-44.0146
-42.7386
-45.5708
-46.3298
-46.2032
-46.0195
-35.9493
-38.1702
-37.2754
-39.3555
-35.6394
-36.3905
-36.5485
-37.3347
-46.776
-47.7647
-47.5068
-46.951
-64.4394
-22.363
-60.1164
-3.69108
-65.0148
-55.5584
-60.3022
-58.2759
-70.448
-63.6019
-63.3211
-76.7977
-22.5127
-12.63
8.59867
-57.2736
-44.4898
-42.9932
-43.9366
-45.2172
-42.3954
-41.3759
-41.7148
-43.0982
-47.93
-50.583
-48.0397
-51.5771
-50.6017
-52.038
-52.5275
-50.1849
-45.5896
-55.8289
-53.5192
-49.4649
-42.9546
-43.115
-44.0073
-42.7134
-39.9462
-39.1212
-40.2584
-39.5433
-43.7698
-45.4923
-45.4332
-43.8543
-45.8774
-47.4519
-46.5056
-47.3395
-46.1937
-47.6601
-47.1987
-46.882
-35.904
-38.1381
-37.2263
-39.2925
-35.6086
-36.3852
-36.5253
-37.339
-64.1857
-22.4302
-60.3315
-3.75214
-22.5656
-12.5435
8.61454
-57.3063
-64.9789
-55.6055
-60.4276
-58.2672
-70.4428
-63.5835
-63.3037
-76.8032
-44.5276
-43.0324
-43.9808
-45.2372
-50.6117
-52.0446
-52.536
-50.1967
-42.4722
-41.409
-41.7854
-43.1609
-47.944
-50.5727
-47.9846
-51.584
-85.8502
-64.3001
-71.9048
-75.5958
170.466
197.274
187.9
186.917
-79.2463
-65.7874
-71.5822
-71.6051
56.7468
148.365
101.024
98.7394
-48.0905
-49.8545
-52.2415
-46.2684
-50.1109
-52.1029
-54.994
-48.2973
-49.5387
-48.2806
-49.6423
-47.4851
-48.0503
-46.8409
-48.7113
-45.2505
-52.8955
-50.3811
-51.5216
-51.5336
-49.2961
-49.2224
-49.6737
-49.6751
-50.3335
-49.8089
-48.9803
-52.1135
-47.0831
-46.4766
-46.1675
-47.0167
-43.4578
-23.7471
-32.1213
-32.1276
161.202
189.603
180.266
179.868
-48.9397
-52.768
-50.3264
-51.1576
-8.11623
-2.73768
-11.6549
1.99394
-36.5902
-39.0745
-38.0021
-38.0104
-24.2955
-32.2032
-28.7993
-28.7661
-43.7253
-44.4906
-44.29
-43.8972
-42.4429
-42.3097
-43.3076
-41.5268
-85.1243
-63.2924
-70.8913
-74.841
170.664
197.296
187.329
187.988
-53.0414
-51.8019
-49.2473
-50.5782
-50.3367
-52.2277
-55.006
-48.4663
-49.5557
-48.2787
-47.4877
-49.6522
-48.0878
-46.8858
-48.7375
-45.3145
-50.3237
-49.8302
-49.0053
-52.0932
-47.0206
-46.5044
-46.2227
-46.9817
-49.1199
-53.0948
-51.2009
-50.6845
-8.00002
-2.74018
2.04563
-11.7298
-43.7557
-44.5004
-43.9233
-44.307
-42.4582
-42.3188
-41.5396
-43.3195
-39.7036
-40.4004
-40.4933
-39.5812
-41.0761
-41.4822
-41.8137
-41.8176
-50.1768
-50.3253
-49.5094
-50.7821
-46.8607
-45.7031
-45.0975
-47.9093
-46.4214
-49.5488
-47.8715
-47.8607
-43.1397
-43.2037
-42.9103
-42.9015
-39.7496
-40.8836
-39.6538
-40.979
-42.4403
-44.8435
-43.5034
-43.2606
-45.5875
-43.4142
-44.7756
-44.7631
-45.5692
-46.5198
-45.7472
-45.7218
-50.3291
-46.9162
-47.8203
-51.2147
-69.1093
-73.3099
-75.9678
-68.1063
31.9767
20.1929
27.1933
27.1948
-123.636
-95.9828
-112.365
-112.398
-58.4199
-64.0246
-60.8463
-60.8475
-48.2199
-45.5343
-46.8223
-46.8246
-39.6298
-40.3483
-40.4089
-39.5344
-41.052
-41.461
-41.7851
-41.7829
-50.4376
-51.3108
-51.3148
-50.0534
-46.7779
-45.6082
-45.0046
-48.0285
-39.7747
-40.892
-41.0093
-39.6591
-42.4792
-44.8549
-43.5638
-43.2858
-50.2868
-46.9171
-51.1541
-47.842
-69.1067
-73.3083
-68.1105
-75.9661
-78.5897
-68.8314
-70.1385
-61.2119
-52.7473
-48.5431
-49.4348
-50.1669
-59.0321
-58.206
-52.3835
-53.8086
-72.8719
-62.844
-76.8382
-61.6429
-77.9015
-67.4629
-68.7752
-58.1827
-71.5953
-62.7959
-76.9691
-61.3795
-59.2661
-58.5567
-52.8092
-54.2321
-51.5625
-47.9946
-52.0123
-50.1308
-78.1049
-68.9272
-70.8795
-63.5032
-77.9001
-68.5826
-70.9318
-63.593
-47.8261
-46.2422
-49.2391
-47.7815
-47.7575
-46.4413
-49.1552
-47.7435
-45.0306
-35.6569
-32.8574
-25.5068
19.3183
26.8094
15.1525
25.4278
19.3119
26.7168
14.9723
25.4283
-45.0609
-35.668
-32.8778
-25.5378
85.9474
73.9032
122.993
72.3634
152.544
154.583
176.475
175.878
154.667
152.503
175.788
176.537
78.8556
88.0819
67.7453
124.237
-41.6286
-42.8225
-41.678
-43.0401
-37.8956
-37.7527
-38.7435
-38.7022
-43.9432
-45.6394
-44.0019
-45.6308
-56.6781
-58.0875
-52.5057
-54.9453
-41.4623
-42.6431
-41.5495
-42.9059
-56.6513
-58.0542
-52.4648
-54.8983
-44.0328
-45.7163
-44.0961
-45.7202
-37.8586
-37.7247
-38.7112
-38.6841
-41.3542
-42.0391
-41.7028
-42.3046
-42.005
-41.3035
-42.2794
-41.668
-44.8213
-43.2142
-44.2091
-42.9519
-43.352
-45.0261
-43.027
-44.2625
-98.7112
-111.124
-91.0715
-106.86
-56.7576
-56.0646
-61.0273
-59.5694
-56.0703
-56.7631
-59.5729
-61.0332
-111.154
-98.725
-106.853
-91.0812
-46.6057
-44.2487
-47.0937
-45.9964
-52.6358
-51.2833
-51.0176
-52.045
-45.4509
-44.551
-45.7175
-44.8015
-43.6638
-43.4293
-43.5758
-43.2882
-46.7215
-44.3145
-47.1688
-46.0529
-43.715
-43.4879
-43.6145
-43.3203
-45.466
-44.5731
-45.7229
-44.8141
-52.6511
-51.2839
-51.0279
-52.0183
-45.4803
-45.0815
-46.2946
-45.6081
-46.343
-45.55
-47.0724
-45.8024
-53.2422
-51.8143
-51.837
-51.0769
-53.1243
-51.814
-51.829
-51.2756
-46.1007
-47.6937
-45.3235
-46.6245
-38.1387
-39.6111
-38.6055
-39.8701
-38.1623
-39.6339
-38.6229
-39.8864
-46.1054
-47.7054
-45.3285
-46.6295
-49.5363
-49.2039
-49.6019
-49.6587
-49.2063
-49.5373
-49.6613
-49.6066
-33.0647
-37.9563
-32.7914
-38.2387
-37.8754
-32.9937
-38.1473
-32.7155
-120.121
-11.9125
-108.423
-72.0384
-88.9191
-85.6629
-59.347
-50.1009
-61.1452
-50.521
-55.6246
-55.5701
-97.8294
44.7353
-77.0912
40.3777
-78.8698
-64.2792
-46.7586
-38.1877
-39.3786
-38.3487
-44.0219
-40.4192
-108.227
-75.5052
-119.602
-12.6692
-88.756
-85.3291
-61.0823
-50.4659
-59.362
-50.1212
-55.6365
-55.5255
-77.076
41.4913
-97.6306
44.92
-78.698
-64.2763
-39.42
-38.4117
-46.7862
-38.2469
-44.0501
-40.4527
-44.3889
-43.2856
-41.2689
-40.334
-44.018
-42.4957
-41.7604
-41.9121
-43.4373
-44.2709
-32.4124
-40.9741
-35.1852
-39.2262
-48.9607
-45.3113
-82.7166
-54.7248
-72.9072
-65.3335
-68.4648
-95.8951
-25.8084
-82.3744
-44.9808
-47.8823
-44.2479
-44.0182
-45.9503
-47.9325
-50.6438
-48.442
-44.0434
-43.2163
-41.6932
-41.854
-41.0548
-40.2378
-43.6459
-42.2194
-43.3003
-42.9049
-47.9885
-45.098
-32.3362
-40.7363
-35.1286
-39.153
-82.8255
-54.6061
-25.9793
-82.3915
-73.6435
-65.3581
-68.2358
-95.8961
-45.0206
-47.911
-50.6579
-48.4614
-44.3081
-44.0703
-45.9856
-47.954
-111.519
-2.26668
-90.8291
11.2922
-98.5739
-96.9081
120.794
118.418
-103.621
-113.923
-103.611
-117.042
-88.8721
-88.8831
6.20261
12.1734
-53.624
-53.7033
-36.7024
-44.6581
-50.6424
-43.5657
-51.9962
-44.9401
-55.4058
-49.2919
-49.7068
-44.4723
-52.2683
-48.9684
-48.6283
-46.6466
-57.0552
-51.2594
-57.0339
-51.2571
-54.1105
-54.1155
-50.0069
-50.0042
-53.8473
-50.8282
-47.7678
-47.8319
-49.0437
-55.3805
-46.8551
-48.7507
-68.6986
10.9326
-68.6733
10.8677
-57.4005
-57.3799
125.717
126.295
-44.1473
-28.981
-40.3368
-7.47598
-46.9496
-46.7972
-18.5619
-6.12367
-33.9407
-28.3454
-33.9605
-28.3847
-35.2602
-35.268
-25.8814
-25.9492
-42.9941
-41.7012
-43.2511
-43.6701
-43.4348
-43.4034
-43.1507
-41.8022
-110.714
-2.39246
-94.4819
11.4913
-97.755
-96.0383
118.364
121.101
-53.8792
-53.9999
-40.7359
-45.6027
-54.2074
-47.2716
-52.2839
-45.2887
-55.4476
-49.3091
-49.7254
-44.5648
-48.993
-52.2985
-48.6484
-46.6911
-53.8555
-50.7001
-47.8501
-49.1212
-49.0597
-55.0748
-46.7876
-48.6073
-44.1197
-28.9913
-40.4742
-7.54922
-46.8408
-47.1504
-6.18228
-18.55
-43.0296
-41.7244
-43.293
-43.6912
-43.4421
-43.4677
-41.8211
-43.1696
-39.805
-38.9389
-38.4592
-39.5167
-39.7493
-39.0085
-39.6179
-40.8385
-47.3985
-45.8601
-53.1009
-51.8983
-48.9097
-51.3282
-46.2977
-49.0235
-43.4564
-43.6135
-43.4659
-43.601
-45.0286
-45.0318
-43.3677
-43.3602
-38.0998
-36.7024
-41.5284
-41.5085
-39.2018
-39.6567
-38.0485
-41.1764
-49.5953
-47.174
-48.5372
-47.3765
-46.1356
-46.4782
-46.4152
-46.8241
-58.4188
-66.0108
-50.6308
-54.8011
-50.6369
-53.9905
-68.427
-62.1665
12.5855
-55.6608
12.7066
-55.6944
27.5535
27.5621
-108.49
-108.453
-53.8939
-51.0849
-53.8975
-51.0894
-56.0462
-56.0479
-49.7094
-49.7117
-39.6809
-38.7635
-38.4152
-39.5099
-39.6427
-38.953
-39.607
-40.8335
-47.2425
-45.7071
-53.1775
-51.8676
-51.4598
-48.9074
-46.19
-48.9644
-38.076
-36.7118
-41.5113
-41.54
-39.6274
-39.1939
-38.0561
-41.1955
-58.3844
-65.9978
-50.6027
-54.7912
-53.946
-50.5965
-62.1612
-68.4295
-57.6991
-58.3144
-53.3455
-47.3963
-52.7946
-54.7657
-49.7419
-50.8621
-56.3621
-57.6526
-52.9424
-49.7271
-54.665
-53.4382
-51.8328
-51.4814
-60.6626
-60.6971
-56.173
-49.6093
-56.2501
-49.7027
-49.1894
-49.1572
-15.2453
-15.2516
-8.88948
5.93819
5.937
-8.90638
12.8084