# vtk DataFile Version 2.0
tet_velo
ASCII
DATASET UNSTRUCTURED_GRID
POINTS 29498 float
-0.809358 0.175 -1.735
-0.65349 0.255 1.855
-0.801104 0.725 -1.765
-0.815 0.841504 1.755
0.809358 0.175 -1.735
0.649676 0.255 1.855
0.801104 0.725 -1.765
0.815 0.841504 1.755
-0.783598 0.17547 -0.538333
-0.743999 0.189781 0.658333
-0.870343 0.828441 -0.591667
-0.86723 0.859532 0.581667
0.78233 0.175467 -0.538333
0.741481 0.189756 0.658333
0.870357 0.828456 -0.591667
0.867227 0.859528 0.581667
-1.63935 -0.174023 -2.65473
-1.63083 -0.140581 -1.70675
-1.60564 -0.134822 -0.509475
-1.55421 -0.123532 0.692491
-1.48431 -0.0771568 1.89016
-1.46592 -0.0482999 2.84008
-1.46843 -0.0271903 3.78642
-1.63728 0.127089 -2.67812
-1.63476 0.17173 -1.73268
-1.61589 0.186557 -0.539953
-1.55848 0.194794 0.654877
-1.46973 0.234444 1.84805
-1.45192 0.262173 2.79765
-1.45845 0.283884 3.74475
-1.63478 0.712924 -2.71835
-1.64376 0.757179 -1.77195
-1.68052 0.830147 -0.595123
-1.65685 0.851213 0.580047
-1.58601 0.847891 1.75732
-1.51383 0.874761 2.70788
-1.4838 0.90307 3.65874
-1.62781 1.64988 -2.79624
-1.63514 1.70014 -1.85333
-1.65451 1.77193 -0.684068
-1.65955 1.81308 0.480161
-1.6313 1.82359 1.64966
-1.58796 1.8347 2.59308
-1.54668 1.85434 3.5414
-0.824864 -0.173024 -2.65624
-0.817293 -0.138266 -1.70894
-0.799569 -0.140604 -0.509181
-0.773197 -0.126827 0.69544
-0.722874 -0.0661922 1.89531
-0.699082 -0.040979 2.84358
-0.695267 -0.0237989 3.78845
-0.820177 0.124684 -2.67859
-0.669204 0.269321 2.80054
-0.679051 0.286704 3.74628
-0.813944 0.699111 -2.71546
-0.716043 0.873724 2.70741
-0.691906 0.902728 3.65864
-0.801759 1.64147 -2.79338
-0.803693 1.69277 -1.85018
-0.822476 1.77139 -0.682174
-0.83708 1.81536 0.479933
-0.821597 1.82298 1.64804
-0.783748 1.83289 2.59146
-0.745982 1.85278 3.54022
0.7973 -0.173023 -2.65624
0.795494 -0.138267 -1.70894
0.77431 -0.140609 -0.509181
0.728588 -0.126844 0.69544
0.676595 -0.0661987 1.89531
0.756405 -0.0409841 2.84358
0.813188 -0.0238042 3.78845
0.803031 0.124684 -2.67859
0.784451 0.269317 2.80054
0.834493 0.286699 3.74628
0.811185 0.699113 -2.71546
0.84161 0.873722 2.70741
0.86113 0.902724 3.65864
0.845893 1.64148 -2.79338
0.855176 1.69278 -1.85018
0.852214 1.77139 -0.682174
0.830336 1.81536 0.479933
0.817271 1.82298 1.64804
0.830911 1.83288 2.59146
0.852732 1.85278 3.54022
1.61015 -0.174022 -2.65473
1.60913 -0.140581 -1.70675
1.58312 -0.134829 -0.509475
1.52046 -0.123556 0.692491
1.45829 -0.0771732 1.89016
1.51108 -0.0483118 2.84008
1.57225 -0.0272017 3.78642
1.61907 0.127091 -2.67812
1.62712 0.171733 -1.73268
1.61001 0.186553 -0.539953
1.55024 0.194769 0.654877
1.47057 0.23443 1.84805
1.53319 0.262163 2.79765
1.59243 0.283873 3.74475
1.63343 0.712927 -2.71835
1.64608 0.757186 -1.77195
1.68282 0.830157 -0.595123
1.65591 0.851202 0.580047
1.59504 0.847882 1.75732
1.60677 0.874753 2.70788
1.63202 0.903061 3.65874
1.66709 1.64988 -2.79624
1.67855 1.70015 -1.85333
1.68044 1.77193 -0.684069
1.65819 1.81308 0.48016
1.63564 1.82358 1.64966
1.6373 1.83469 2.59308
1.65065 1.85433 3.5414
-0.826187 0.45 -1.77096
0 0.192916 -1.71708
-0.789192 0.182521 -1.13667
-0.793008 0.548252 1.86376
-0.00190699 0.334318 1.77568
-0.690326 0.230808 1.25667
0 0.805687 -1.84569
-0.857781 0.798779 -1.17833
0 0.95472 1.86822
-0.867941 0.877343 1.16833
0.826239 0.45 -1.77101
0.789408 0.18167 -1.13667
0.792334 0.548252 1.865
0.687249 0.230707 1.25667
0.85779 0.798787 -1.17833
0.867943 0.877346 1.16833
-0.764893 0.181531 0.06
-0.867321 0.501956 -0.565
-0.00063393 0.171909 -0.538333
-0.88573 0.524656 0.62
-0.00125906 0.190802 0.658333
-0.868867 0.844067 -0.005
7.17814e-06 0.969472 -0.591667
-1.90978e-06 1.35869 0.581667
0.762991 0.181526 0.06
0.867322 0.501961 -0.565
0.88573 0.524642 0.62
0.868868 0.844068 -0.005
-0.875744 0.475978 -1.1575
-0.884036 0.513306 0.0275
-0.873306 0.536454 1.2125
-0.000316965 0.177282 -1.13667
-0.000946495 0.179407 0.06
-0.00158302 0.227138 1.25667
0 0.45 -2.1149
-0.000953496 0.548252 2.09832
3.58907e-06 0.921119 -1.17833
2.63418e-06 1.32278 -0.005
-9.5489e-07 1.26543 1.16833
0.875749 0.475981 -1.1575
0.884037 0.513302 0.0275
0.873307 0.536447 1.2125
-1.22206 0.173365 -1.73384
-0.813325 0.018367 -1.72197
-0.814767 0.149842 -2.20679
-1.06161 0.244722 1.85153
-0.688182 0.0944039 1.87516
-0.661347 0.26216 2.32777
-1.22243 0.74109 -1.76847
-0.807524 0.712056 -2.24023
-0.802399 1.20889 -1.80759
-1.20051 0.844698 1.75616
-0.765521 0.857614 2.23121
-0.818298 1.33224 1.70152
0.802426 0.0183667 -1.72197
0.806195 0.149842 -2.20679
1.21824 0.173367 -1.73384
0.663135 0.0944006 1.87516
0.717063 0.262159 2.32777
1.06012 0.244715 1.85153
0.806144 0.712056 -2.24023
0.82814 1.20889 -1.80759
1.22359 0.741093 -1.76847
0.828305 0.857613 2.23121
0.816136 1.33224 1.70152
1.20502 0.844693 1.75616
-1.19974 0.181014 -0.539143
-0.791584 0.0174332 -0.523757
-1.15124 0.192287 0.656605
-0.758598 0.031477 0.676887
-1.27543 0.829294 -0.593395
-0.846409 1.29992 -0.63692
-1.26204 0.855372 0.580857
-0.852155 1.33745 0.5308
0.77832 0.017429 -0.523757
1.19617 0.18101 -0.539143
0.735034 0.0314562 0.676887
1.14586 0.192262 0.656605
0.861286 1.29992 -0.63692
1.27659 0.829307 -0.593395
0.848781 1.33745 0.5308
1.26157 0.855365 0.580857
-1.63509 -0.157302 -2.18074
-1.63832 -0.023467 -2.66643
-1.23211 -0.173523 -2.65549
-1.61823 -0.137701 -1.10811
-1.63279 0.0155748 -1.71971
-1.22406 -0.139423 -1.70784
-1.57992 -0.129177 0.0915077
-1.61076 0.0258675 -0.524714
-1.2026 -0.137713 -0.509328
-1.51926 -0.100344 1.29132
-1.55634 0.0356313 0.673684
-1.1637 -0.125179 0.693966
-1.47511 -0.0627283 2.36512
-1.47702 0.0786434 1.86911
-1.10359 -0.0716745 1.89273
-1.46717 -0.0377451 3.31325
-1.45892 0.106937 2.81887
-1.0825 -0.0446395 2.84183
-1.46344 0.128347 3.76559
-1.08185 -0.0254946 3.78743
-1.63602 0.14941 -2.2054
-1.63603 0.420006 -2.69824
-1.22873 0.125886 -2.67835
-1.62532 0.179143 -1.13632
-1.63926 0.464455 -1.75231
-1.58718 0.190676 0.0574623
-1.6482 0.508352 -0.567538
-1.51411 0.214619 1.25147
-1.60766 0.523004 0.617462
-1.46083 0.248308 2.32285
-1.52787 0.541168 1.80269
-1.45519 0.273029 3.2712
-1.48288 0.568467 2.75276
-1.06056 0.265747 2.79909
-1.47112 0.593477 3.70175
-1.06875 0.285294 3.74551
-1.63927 0.735051 -2.24515
-1.6313 1.1814 -2.75729
-1.22436 0.706017 -2.71691
-1.66214 0.793663 -1.18353
-1.63945 1.22866 -1.81264
-1.66868 0.84068 -0.00753771
-1.66752 1.30104 -0.639595
-1.62143 0.849552 1.16868
-1.6582 1.33215 0.530104
-1.54992 0.861326 2.2326
-1.60866 1.33574 1.70349
-1.49881 0.888916 3.18331
-1.5509 1.35473 2.65048
-1.11494 0.874243 2.70765
-1.51524 1.3787 3.60007
-1.08785 0.902899 3.65869
-1.63147 1.67501 -2.32478
-1.21479 1.64567 -2.79481
-1.64482 1.73604 -1.2687
-1.21941 1.69646 -1.85175
-1.65703 1.7925 -0.101954
-1.23849 1.77166 -0.683121
-1.64543 1.81834 1.06491
-1.24832 1.81422 0.480047
-1.60963 1.82914 2.12137
-1.22645 1.82329 1.64885
-1.56732 1.84452 3.06724
-1.18586 1.83379 2.59227
-1.14633 1.85356 3.54081
-0.821078 -0.155645 -2.18259
-0.82252 -0.02417 -2.66741
-0.0137821 -0.173023 -2.65624
-0.808431 -0.139435 -1.10906
-0.0108996 -0.138266 -1.70894
-0.786383 -0.133715 0.0931299
-0.0126293 -0.140606 -0.509181
-0.748036 -0.0965095 1.29538
-0.0223048 -0.126835 0.69544
-0.710978 -0.0535856 2.36945
-0.0231396 -0.0661955 1.89531
-0.697174 -0.032389 3.31601
-0.684143 0.114171 2.82206
0.0286617 -0.0409816 2.84358
-0.687159 0.131453 3.76736
0.0589606 -0.0238015 3.78845
-0.81706 0.411897 -2.69702
-0.00857274 0.124684 -2.67859
-0.674127 0.278012 3.27341
-0.692623 0.571522 2.75398
0.0576234 0.269319 2.80054
-0.685478 0.594716 3.70246
0.0777211 0.286702 3.74628
-0.807852 1.17029 -2.75442
-0.00137956 0.699112 -2.71546
-0.703974 0.888226 3.18303
-0.749895 1.35331 2.64944
0.0627838 0.873723 2.70741
-0.718944 1.37775 3.59943
0.0846118 0.902726 3.65864
-0.802726 1.66712 -2.32178
0.0220669 1.64147 -2.79338
-0.813085 1.73208 -1.26618
0.0257412 1.69278 -1.85018
-0.829778 1.79338 -0.10112
0.0148692 1.77139 -0.682174
-0.829338 1.81917 1.06399
-0.003372 1.81536 0.479933
-0.802673 1.82793 2.11975
-0.00216276 1.82298 1.64804
-0.764865 1.84283 3.06584
0.0235815 1.83288 2.59146
0.0533752 1.85278 3.54022
0.796397 -0.155645 -2.18259
0.800166 -0.0241695 -2.66741
1.20373 -0.173523 -2.65549
0.784902 -0.139438 -1.10906
1.20231 -0.139424 -1.70784
0.751449 -0.133726 0.0931298
1.17872 -0.137719 -0.509328
0.702591 -0.0965212 1.29538
1.12452 -0.1252 0.693966
0.7165 -0.0535914 2.36945
1.06744 -0.071686 1.89273
0.784797 -0.0323941 3.31601
0.770428 0.114166 2.82206
1.13374 -0.0446479 2.84183
0.82384 0.131448 3.76736
1.19272 -0.025503 3.78743
0.807108 0.411898 -2.69703
1.21105 0.125888 -2.67835
0.809472 0.278008 3.27341
0.813031 0.571519 2.75398
1.15882 0.26574 2.79909
0.847811 0.594712 3.70246
1.21346 0.285286 3.74551
0.828539 1.17029 -2.75442
1.22231 0.70602 -2.71691
0.85137 0.888223 3.18303
0.836261 1.3533 2.64944
1.22419 0.874238 2.70765
0.856931 1.37775 3.59943
1.24657 0.902892 3.65869
0.850534 1.66713 -2.32178
1.25649 1.64568 -2.79481
0.853695 1.73209 -1.26618
1.26686 1.69646 -1.85175
0.841275 1.79338 -0.10112
1.26633 1.77166 -0.683121
0.823803 1.81917 1.06399
1.24426 1.81422 0.480047
0.824091 1.82793 2.11975
1.22645 1.82328 1.64885
0.841822 1.84283 3.06584
1.23411 1.83379 2.59227
1.25169 1.85355 3.54081
1.60964 -0.157301 -2.18074
1.61461 -0.0234656 -2.66643
1.59613 -0.137705 -1.10811
1.61812 0.0155763 -1.71971
1.55179 -0.129193 0.0915076
1.59657 0.025862 -0.524714
1.48938 -0.100365 1.29132
1.53535 0.0356064 0.673684
1.48469 -0.0627425 2.36512
1.46443 0.0786281 1.86911
1.54166 -0.0377568 3.31325
1.52213 0.106926 2.81887
1.58234 0.128336 3.76559
1.62309 0.149412 -2.2054
1.62625 0.420009 -2.69824
1.61857 0.179143 -1.13632
1.6366 0.46446 -1.75231
1.58013 0.190661 0.0574622
1.64642 0.508355 -0.567538
1.51041 0.214599 1.25147
1.60308 0.522985 0.617462
1.50188 0.248296 2.32285
1.53281 0.541156 1.80269
1.56281 0.273018 3.2712
1.56998 0.568458 2.75276
1.61222 0.593467 3.70175
1.63975 0.735057 -2.24515
1.65026 1.1814 -2.75729
1.66445 0.793672 -1.18353
1.66232 1.22867 -1.81264
[...]
POINT_DATA 29498
VECTORS point_vectors float
-2.48133 -3.86594 12.4187
0.146683 0.215663 0.904434
-2.93762 1.30929 4.22758
0.0789842 -0.287376 0.618377
2.44719 -3.86322 12.4147
-0.117314 0.177969 0.77307
2.93289 1.30706 4.22587
-0.0783976 -0.287694 0.618165
0.0022133 0.000218514 0.0541984
0.000456926 0.000211845 0.0123499
-0.0635522 -0.140092 0.47782
0.00730987 0.058579 0.187043
-0.00218388 0.000208954 0.0533458
-0.000307523 0.000159351 0.00928097
0.0636201 -0.141309 0.48116
-0.00713926 0.0585164 0.186731
-0.753242 -0.376738 19.9982
-1.06017 -0.624794 20.7158
-0.429429 -0.446608 21.3306
0.153302 -0.184145 21.5371
0.734685 0.0863269 21.4279
1.01112 0.214126 21.1734
0.988232 0.144133 20.8231
-0.856629 -0.282165 19.8928
-1.39886 -0.531228 20.643
-0.611279 -0.495837 21.3629
0.105807 -0.337392 21.6175
0.881173 -0.154429 21.5536
1.22468 -0.0647565 21.2349
1.32933 -0.196896 20.7047
-0.925611 0.0429022 19.7803
-1.67616 0.0648587 20.4698
-1.06034 -0.287309 21.2552
-0.315961 -0.429912 21.6194
0.449169 -0.548625 21.5584
0.850965 -0.667597 21.2672
1.01625 -0.736819 20.8462
-0.556546 0.335024 19.9599
-0.868455 0.518057 20.321
-0.901018 0.368411 20.949
-0.521119 0.0295243 21.3858
-0.0989577 -0.297447 21.3562
0.102776 -0.443613 21.1388
0.178532 -0.429069 21.0974
-0.933758 -1.05614 19.2615
-1.53463 -2.6651 21.5295
-0.117887 -0.461256 21.5877
0.349703 0.309336 20.6379
0.842044 1.28937 19.4051
1.22647 1.6041 19.5309
1.14668 1.49431 19.852
-1.21834 -0.873087 18.6743
1.81811 1.45612 11.0319
2.04785 1.25171 13.4436
-1.32376 0.304335 18.3904
0.311131 -0.879066 4.3557
0.991692 -0.761002 7.47198
-0.533156 0.729677 19.5346
-1.01402 1.50915 20.033
-1.29477 1.47384 20.8227
-0.92088 0.628174 21.9352
-0.3527 -0.243058 21.6023
-0.188951 -0.521786 21.4796
0.0148113 -0.729658 20.2947
0.91482 -1.08909 19.2197
1.4809 -2.70836 21.5529
0.115688 -0.438027 21.5348
-0.313025 0.325467 20.2098
-0.758704 1.31213 19.1467
-1.32773 1.51412 19.663
-1.23241 1.22475 20.2778
1.21586 -0.889474 18.6372
-2.11564 1.27271 13.1031
-2.00826 0.808615 15.6317
1.3219 0.306035 18.3835
-0.82068 -0.917316 9.34785
-1.39443 -0.871268 13.3635
0.546633 0.706148 19.5667
1.02272 1.41056 20.0628
1.31091 1.41295 20.8348
0.922356 0.636732 21.9403
0.353937 -0.239682 21.6039
0.1644 -0.530244 21.4353
-0.065578 -0.756348 20.4711
0.764398 -0.391623 19.9769
1.0795 -0.647001 20.7152
0.430488 -0.449367 21.3324
-0.16387 -0.179711 21.5444
-0.743555 0.0980279 21.4424
-0.970352 0.189664 21.1598
-0.883968 0.0621276 20.8951
0.869005 -0.289832 19.877
1.41494 -0.538528 20.6438
0.614438 -0.499927 21.3642
-0.108244 -0.342013 21.6202
-0.877681 -0.160846 21.5527
-1.09923 -0.0856528 21.2355
-1.03186 -0.289141 20.9307
0.925469 0.0426473 19.7793
1.66992 0.0638132 20.4693
1.05696 -0.285495 21.2537
0.315813 -0.430275 21.619
-0.44216 -0.54449 21.5502
-0.744509 -0.591869 21.2518
-0.956208 -0.72302 20.6991
0.552068 0.325549 19.9723
0.846595 0.48138 20.3332
0.87978 0.35027 20.9494
0.521358 0.029691 21.3864
0.0976781 -0.297088 21.3557
-0.109385 -0.427808 21.1354
-0.209007 -0.429763 21.0306
-0.857697 -0.156373 1.55083
1.73514e-05 -0.00351725 0.0483496
0.0361544 -0.026615 0.820337
0.0430393 -0.0454299 0.0821395
0 0 0
0.0262504 0.0115199 0.287734
-0.00018082 0.130641 0.385313
-0.0569758 -0.0148288 0.235316
-0.000173705 0.00866823 -0.0159993
0.105951 0.148393 0.934176
0.865085 -0.157516 1.56319
-0.0318122 -0.0282526 0.845315
-0.0405201 -0.0421239 0.0771339
-0.0234627 0.0103259 0.258144
0.0567992 -0.0147914 0.234552
-0.106098 0.148497 0.934944
0.000227608 2.18899e-05 0.00523355
-0.00670505 -0.00885346 0.086499
5.89139e-07 -2.13325e-05 0.00552225
6.84349e-05 0.000768246 0.0131342
7.30482e-05 0.000978688 0.032965
0.0216476 0.0981571 0.433279
0 0 0
1.5952e-06 0.000402072 0.0406724
-0.000166937 1.4238e-05 0.00360193
0.00695078 -0.009142 0.0885193
-6.84215e-05 0.000756945 0.0130786
-0.0216033 0.0980168 0.433244
-0.000751729 -0.000548457 0.0361068
-0.000180501 0.000707748 0.0161978
0.000285676 0.000228132 0.0113897
0 0 0
8.7826e-06 1.41095e-05 0.00247763
-8.52702e-07 0.000720147 0.00977264
-6.31295e-06 0.0216023 0.0250838
-0.000125984 -0.00191924 0.000199815
-6.84484e-06 0.0138268 0.127487
-3.95644e-05 0.0372739 0.194147
-2.48059e-05 0.00215101 -0.00507099
0.000743977 -0.000534446 0.0357439
0.000180615 0.000708271 0.0162612
-0.000308677 0.000242874 0.012244
-2.53972 -1.37021 20.9305
-2.26318 -3.93448 22.2729
-3.13683 -2.65749 17.9541
1.51887 0.238596 17.9239
0.899556 1.31747 13.4641
1.23086 1.02568 7.5019
-3.28858 0.428939 20.4737
-3.55161 1.36837 16.9858
-2.31409 2.61606 19.8608
0.781538 -0.923182 20.3365
-0.371397 -1.07747 3.60979
-0.0693324 -0.567366 16.5888
2.22953 -3.97697 22.3227
3.15883 -2.71951 17.9035
2.55509 -1.38791 20.9319
-0.849575 1.29917 13.1155
-1.44489 1.05071 8.87218
-1.51646 0.242405 17.8693
3.5549 1.37557 16.9745
2.31977 2.47161 19.8896
3.27939 0.426705 20.4736
-0.0596133 -1.09093 5.8677
0.0649253 -0.557705 16.4969
-0.772314 -0.925453 20.4082
-0.584099 -0.908953 21.7399
0.263385 -0.198855 16.6506
0.3632 -0.387398 20.1926
0.469567 0.338489 14.6194
-1.66516 -0.680507 21.5237
-2.84574 1.65356 20.7236
-0.344769 -0.848378 21.6489
-1.47135 -0.11924 20.704
-0.26149 -0.175522 16.4048
0.583477 -0.910612 21.7155
-0.445816 0.357473 14.2931
-0.368343 -0.38286 20.0609
2.83254 1.57627 20.7544
1.66229 -0.67698 21.5223
1.4729 -0.114282 20.6301
0.345252 -0.85169 21.6427
-1.02651 -0.547711 20.2517
-0.819041 -0.33255 19.9369
-0.928445 -0.64062 19.6778
-0.759041 -0.551309 21.1377
-1.21757 -0.590645 20.6804
-1.47095 -1.29309 20.919
-0.146316 -0.329173 21.483
-0.522013 -0.483451 21.345
-0.31169 -0.620291 21.5906
0.442555 -0.0328528 21.5742
0.123257 -0.26487 21.5466
0.350697 -0.114205 21.7723
0.887282 0.167391 21.2891
0.816681 -0.0283172 21.4801
1.10376 0.544722 21.1949
1.00227 0.170171 21.099
1.14476 0.0631311 21.1754
1.43313 0.773631 20.781
1.22316 0.00657004 20.6954
1.35725 0.695159 20.9507
-1.2333 -0.436153 20.1248
-0.942412 -0.101505 19.8042
-1.12832 -0.509904 19.437
-1.00979 -0.529493 21.1527
-1.59278 -0.256143 20.5802
-0.274601 -0.442865 21.5213
-0.845631 -0.463464 21.3439
0.487758 -0.236641 21.6685
-0.0995248 -0.437797 21.6423
1.10445 -0.0831053 21.373
0.708889 -0.41658 21.5862
1.21546 -0.0260828 21.0337
1.13508 -0.448106 21.2393
1.99685 0.42391 19.0036
1.12545 -0.533672 21.2089
1.88667 0.186867 19.4636
-1.38548 0.0809657 19.9759
-0.758198 0.271676 19.8374
-1.21337 0.135872 19.2655
-1.37195 -0.127582 21.0102
-1.28385 0.446656 20.347
-0.739529 -0.388864 21.5068
-1.1394 0.119278 21.0964
0.099536 -0.470728 21.6435
-0.538783 -0.201608 21.542
0.651199 -0.595264 21.4364
0.0802898 -0.494631 21.4512
0.961343 -0.630562 21.2325
0.343946 -0.653542 21.2218
1.31127 -1.08425 19.0391
0.524743 -0.663672 21.176
1.2374 -1.07915 19.1455
-0.72193 0.449433 20.0901
-0.60846 0.515882 19.7611
-0.926949 0.481294 20.654
-1.06195 0.934 20.1962
-0.779402 0.230287 21.2162
-1.19779 0.779238 20.9439
-0.278867 -0.147017 21.4146
-0.756848 0.228062 21.6176
0.0104877 -0.369775 21.2648
-0.198223 -0.321909 21.4753
0.246647 -0.537955 21.1612
0.0240013 -0.543495 21.2611
0.219845 -0.696048 20.9226
-1.6418 -2.27194 19.56
-1.11472 -1.03139 18.953
-0.0237355 -1.70082 18.6245
-0.550622 -1.07064 21.9552
-0.0123438 -3.16708 22.1982
0.150653 -0.0889878 20.9293
-0.0038456 -0.486513 21.1349
0.551017 0.753098 19.7263
0.00422182 0.217243 19.2593
1.02086 1.52681 19.4902
0.0165423 1.1448 17.7108
1.33957 1.52333 18.7007
1.50982 1.76577 15.8788
-0.0329842 1.70945 18.1589
1.58013 1.38393 16.8958
-0.114607 2.11295 18.8727
-1.4079 -0.325941 18.3139
-0.0181961 -1.48925 17.4803
2.01408 1.72121 13.174
1.33573 -0.0598348 4.84946
-0.0891422 1.09956 6.79426
2.35999 0.703037 10.6776
-0.294198 1.79087 9.69107
-0.888399 0.770543 19.025
-0.00377313 0.628158 16.9517
1.17318 -1.01656 5.97356
-0.00954679 -0.942155 16.0543
-0.0756937 1.15689 -3.26934
0.344456 -1.17572 16.9977
-0.684191 2.49495 -2.50113
-0.799384 1.18521 19.627
0.0168841 0.994188 19.27
-1.13912 1.4866 20.5101
0.0390309 2.22029 19.8493
-1.3916 1.37156 21.5066
0.0407048 2.58269 20.5405
-0.515842 0.0382471 21.7848
-0.00671456 1.48322 22.4001
-0.273493 -0.373067 21.4624
-0.00290194 0.242 21.9617
-0.0390991 -0.693938 21.3977
0.0179988 -0.108863 21.5868
0.0413304 -0.43718 19.4007
1.62357 -2.36564 19.5262
1.11185 -1.06622 18.9165
0.948905 -0.677169 19.6291
0.548234 -1.08361 22.0571
1.49501 -1.35267 20.9373
-0.136681 -0.0687538 20.8256
0.305079 -0.632879 21.6064
-0.505055 0.762851 19.5903
-0.373593 -0.0827372 21.74
-1.03095 1.51776 19.5213
-1.10749 0.621304 21.1148
-1.45963 1.31836 18.722
-1.74053 1.48772 16.5866
-1.37571 0.659525 20.877
-1.67897 1.0845 17.4043
-1.36856 0.491055 20.669
1.40764 -0.330329 18.2863
1.13795 -0.522378 19.4125
-2.23717 1.37205 15.5655
-1.72751 -0.222335 8.80301
-1.76321 0.206367 20.0096
-2.21715 0.168307 13.9028
-1.95122 0.119584 19.7726
0.898543 0.751938 19.0552
1.21505 0.1355 19.2607
-1.60095 -1.06466 11.4088
-0.0691062 -1.00275 17.7261
-1.1917 -1.03641 20.514
-0.400364 -1.27631 18.008
-1.11792 -0.927882 20.3136
0.811251 1.12091 19.6727
0.607969 0.486259 19.784
1.14897 1.42431 20.5198
1.03595 0.870548 20.2167
1.39459 1.3434 21.5037
1.17351 0.742766 20.946
0.516588 0.04238 21.7875
0.758442 0.230713 21.6209
0.262592 -0.382032 21.4566
0.198091 -0.320882 21.4756
0.00165441 -0.698602 21.2851
-0.0434935 -0.531472 21.2657
-0.258333 -0.557934 20.6201
1.04328 -0.567537 20.2457
0.833934 -0.345373 19.9204
0.76632 -0.564577 21.1502
1.23727 -0.608026 20.6822
0.142541 -0.327169 21.4972
0.526609 -0.490756 21.3429
-0.457556 -0.0314752 21.5729
-0.128636 -0.273846 21.5524
-0.8773 0.163227 21.29
-0.830924 -0.0254736 21.4906
-0.95047 0.126572 21.1495
-1.05146 0.0563356 21.1803
-0.956229 -0.0859032 20.901
1.25526 -0.44567 20.1145
0.952352 -0.104845 19.7938
1.01811 -0.536673 21.1584
1.59999 -0.258487 20.5786
0.274829 -0.447363 21.5264
0.848453 -0.465816 21.3427
-0.491739 -0.237591 21.6699
0.0990492 -0.441224 21.644
-1.03489 -0.103098 21.3666
-0.700212 -0.413718 21.5882
-1.0885 -0.016035 20.8917
-1.00258 -0.37727 21.2584
-1.06615 -0.540469 21.0463
1.3844 0.0811131 19.9769
0.752222 0.264612 19.8486
1.36744 -0.126892 21.0093
1.25568 0.426714 20.3538
0.737386 -0.387685 21.5071
1.1177 0.120608 21.0935
-0.099101 -0.468713 21.6397
0.540008 -0.202248 21.5416
-0.613884 -0.574085 21.4112
-0.0792237 -0.490235 21.4494
-0.795427 -0.540575 21.0482
-0.33698 -0.566269 21.1976
-0.438872 -0.548388 21.1886
0.710163 0.423661 20.1092
0.906597 0.459144 20.6551
0.768733 0.224846 21.2108
0.27825 -0.146822 21.4142
-0.0164953 -0.366136 21.2678
-0.240618 -0.508148 21.1148
-1.13581 -0.50729 20.1903
-2.28951 -2.66522 18.9227
-1.40568 -1.11709 20.0143
-2.06937 -1.01682 19.6161
-1.04676 -0.599886 19.5618
-1.98354 -1.40379 20.9279
-0.882505 -0.553279 21.133
-0.314221 -0.661646 18.8699
-0.789704 -0.903048 21.4875
-1.26048 -1.07057 21.6927
-0.400464 -0.763892 21.6807
-0.2115 -0.396309 21.496
0.379699 0.0603227 15.0282
0.0245265 -0.388366 21.6951
-0.0895613 -0.675115 20.8331
0.420338 -0.240133 21.3934
0.456753 -0.137346 21.6162
0.530534 0.733598 13.3082
0.725238 0.209964 21.5568
0.932634 -0.0984919 18.6586
1.38456 0.469103 20.224
1.02486 0.0428673 21.3239
1.20753 1.54032 14.5659
1.29952 0.695169 21.0471
1.8239 0.296472 18.4336
1.7135 0.63743 20.1396
1.12134 0.0661156 21.1701
1.71412 1.70886 16.8476
1.48896 0.777342 20.8181
1.83439 0.542015 18.7086
1.64716 0.508943 20.3814
-1.37833 -0.171919 20.0317
-4.24035 -0.837799 16.4718
-2.34194 0.341344 19.2745
-1.26347 -0.205721 19.2624
-3.36116 -0.629671 20.7577
-1.22373 -0.371993 21.1167
-2.14402 -0.214182 21.3757
-1.03005 -0.893254 21.6986
-0.485694 -0.48973 21.5387
-1.1231 -0.884771 21.8867
0.122781 -0.620299 20.6868
0.315371 -0.409272 21.676
0.246097 -0.82224 21.0141
1.3067 -0.445975 18.8099
0.962422 -0.42669 21.3903
0.448715 -0.838395 2.6018
0.98866 -1.04605 19.818
1.89483 -0.46214 18.5168
1.24422 -0.455369 21.1241
2.2217 0.175788 7.95789
1.3538 -0.899204 18.6917
1.96 -0.268833 18.5827
-1.07121 0.396233 19.999
-1.65721 1.68901 18.8988
-0.851526 0.751341 19.8798
-0.919731 0.477759 19.4743
-1.91879 1.07306 20.1669
-1.26765 0.308516 20.7925
-2.29776 1.85463 20.7551
-1.15478 0.900886 20.6077
-1.84741 0.411849 21.125
-0.919253 -0.0465197 21.3956
-3.58337 1.22279 22.0848
-1.1078 0.585378 21.357
-0.909734 -0.228796 21.928
-0.173347 -0.359747 21.5451
-0.273202 -0.454292 18.5707
-0.413031 -0.0943344 21.5797
-0.0624624 -0.711494 21.6281
0.227334 -0.589003 21.3533
-0.149449 -0.668654 15.834
-0.0835026 -0.434423 21.3665
0.214848 -0.987299 21.2977
0.45768 -0.675488 21.0892
0.244965 -1.30327 16.8916
0.124543 -0.638806 20.9303
0.453318 -1.13225 20.9512
2.29829 -2.75871 18.8774
-0.0312465 -4.02917 19.3641
-0.0198963 -7.50213 15.2914
-0.0167238 -1.77848 18.0616
0.000974393 -3.27525 22.0247
0.309806 -0.65232 18.778
-0.00685368 -1.20425 22.32
-0.000292553 -0.150819 13.4723
-0.377746 0.0723772 14.7183
-0.000496023 -0.118106 19.9352
0.00707576 0.230411 11.763
-0.501227 0.715583 13.0075
0.0124477 0.631754 18.298
0.00305635 0.955601 9.76521
-1.30578 1.52142 15.0216
-0.00408146 1.4364 18.0034
-0.00607512 0.336461 3.64321
-0.0542676 1.57562 13.1031
-1.87683 1.44279 16.9703
-0.0671649 1.90464 18.6756
-0.112032 2.20867 9.50609
-0.260418 2.02213 14.7122
4.26321 -0.847498 16.4105
-0.00630174 4.06744 12.7744
-0.0139069 -0.553653 16.7146
-0.778469 -0.82771 4.28929
0.0743591 0.23749 -2.29444
-0.13747 0.533794 -0.566293
-2.33629 -0.261998 11.9547
-0.531191 1.77612 -3.78606
-0.667483 1.80431 3.90653
1.66222 1.64099 18.9619
0.0269436 1.67014 19.3343
0.0153324 1.2288 18.3658
0.0420249 4.42832 19.576
2.30433 1.78078 20.7649
0.0415068 2.27997 20.3516
0.0322673 3.80272 18.9795
3.52954 1.21119 22.1126
0.0125964 2.8777 21.6231
-0.00142481 0.640483 12.7108
0.265728 -0.445969 18.4733
-0.00355825 0.487593 22.0446
-0.00927402 0.288454 2.26259
0.142784 -0.714688 16.7645
0.0079317 0.11467 21.7045
0.192009 0.179607 1.40552
-0.35645 -1.26088 17.5644
0.02528 -0.372185 20.8358
0.292151 0.116483 6.34362
1.15737 -0.527073 20.1842
1.43838 -1.16816 19.9892
2.09875 -1.04258 19.5938
1.05689 -0.63253 19.5307
2.00902 -1.44831 20.9455
0.894037 -0.568559 21.1418
0.790757 -0.932599 21.5079
1.26639 -1.07858 21.7001
0.391144 -0.774712 21.6881
0.211534 -0.402652 21.5084
-0.0340486 -0.390177 21.7122
0.0876286 -0.67314 20.7296
-0.445426 -0.217752 21.1863
-0.469294 -0.141634 21.6193
-0.743416 0.27214 21.4125
-0.931328 -0.0937112 18.5298
-1.40149 0.523018 19.9341
-0.978588 0.032166 21.3224
-1.28807 0.677191 21.0644
-1.72499 0.221871 19.123
-1.61903 0.476333 20.6786
-1.01646 0.0687978 21.0451
-1.37022 0.550305 20.8448
-1.63138 0.155864 20.17
-1.71795 0.393761 20.3766
1.39069 -0.175571 20.0236
2.34389 0.341289 19.2721
1.27595 -0.207822 19.2442
3.37189 -0.629781 20.7553
1.22851 -0.375607 21.117
2.14033 -0.213176 21.3737
1.03029 -0.893692 21.6966
0.48646 -0.493133 21.5394
1.1221 -0.883284 21.8887
-0.12587 -0.618303 20.6275
-0.315936 -0.409894 21.6761
-0.242505 -0.825766 21.0478
-1.30473 -0.451727 18.8556
-0.906347 -0.391733 21.3859
-0.925077 -1.04038 20.5243
-1.68829 -0.544515 20.1213
-1.08807 -0.372391 20.9556
-1.24401 -0.926044 20.7606
-1.62125 -0.343811 20.0058
1.05494 0.383037 20.0122
0.844633 0.699059 19.9113
0.911017 0.458564 19.5051
1.87652 1.00944 20.1837
1.24333 0.300271 20.7905
1.14079 0.839467 20.6195
1.82037 0.392381 21.1286
0.911046 -0.0451303 21.3906
1.09486 0.570593 21.3528
0.913648 -0.227713 21.9312
0.172662 -0.358302 21.543
0.41291 -0.0940635 21.5803
0.0618733 -0.708027 21.6293
-0.229277 -0.570192 21.3343
0.0734145 -0.433216 21.3597
-0.26443 -0.937156 21.4767
-0.408382 -0.638153 20.991
-0.107494 -0.568748 20.9885
-0.395072 -0.89301 21.3265
-1.75097 -1.08414 19.8459
-0.988899 -1.00601 21.5713
0.00989653 -0.549256 21.69
0.900431 0.108341 20.7563
1.61836 0.589134 20.1985
1.6177 0.693269 20.1931
-2.52521 -0.425738 19.2775
-1.80425 -0.757995 21.7256
-0.436501 -0.837419 21.2377
0.67218 -0.518614 19.8977
1.60912 -0.494838 18.3746
2.05999 -0.365351 18.6792
-1.46782 0.827333 19.6106
-1.85818 0.722168 20.8329
-1.66148 0.117296 21.6912
-0.354983 -0.488531 21.8288
0.0610707 -0.865206 21.4984
0.371727 -1.03336 21.3035
-0.0265891 -5.50554 18.3152
-0.00706617 -0.577561 15.9211
0.00447758 0.0363026 12.0684
0.0129427 0.519701 10.4471
-0.0159817 1.13022 11.4271
-0.0943656 2.22013 14.6752
-0.0230601 -1.34895 10.1448
0.0250389 -0.635272 -0.243992
-0.507892 1.07408 0.472779
0.0397984 3.04879 17.9025
0.0300913 3.37388 20.4493
0.01462 5.91386 20.4835
-0.00197673 -0.150991 6.74953
0.047035 0.506806 2.02136
0.0570607 0.489481 2.87889
1.78855 -1.1289 19.8128
0.986825 -1.03017 21.5892
-0.0298827 -0.545433 21.5712
-0.922473 0.146914 20.5394
-1.57475 0.516684 20.549
-1.45311 0.38269 21.031
2.55103 -0.430436 19.2609
1.80814 -0.758075 21.731
0.433766 -0.837673 21.2019
-0.671615 -0.519683 19.888
-1.56061 -0.539449 19.6376
-1.65748 -0.419921 20.4632
1.44735 0.788034 19.638
1.82708 0.694276 20.8324
1.64567 0.110213 21.6869
0.355897 -0.488514 21.8297
-0.0881511 -0.822615 21.5152
-0.389011 -0.925193 21.401
-1.63035 -0.489779 2.83296
-0.0110391 -0.0107968 0.0969231
-0.0343004 0.00481728 0.804654
0.0525597 0.00192949 0.111831
2.84472e-05 0.000286583 0.000943461
0.0128943 0.00509732 0.174581
-0.17583 -0.0217769 0.257103
-0.02017 0.138772 0.386471
-0.124403 -0.0258882 0.475504
0.0360855 -0.0702865 0.135611
-0.0694944 -0.00383894 -0.0185804
0.0654114 0.000950303 1.03513
0.0110798 -0.0108066 0.0972549
1.57068 -0.4711 2.73315
0.0346391 0.00390141 0.80773
-1.50791e-05 0.000178779 0.000584732
-0.0460824 0.00173551 0.0915594
-0.00900928 0.00357555 0.122253
0.0180197 0.140947 0.37996
0.167064 -0.020847 0.243598
0.123965 -0.0256409 0.473848
0.0700346 -0.0036438 -0.019088
-0.0357448 -0.0698747 0.134396
-0.065484 0.00116613 1.03383
0.0253832 -0.0109522 0.349195
0 0 0
-0.00627842 -0.0396803 0.437294
0 0 0
0 0 0
0 0 0
-8.55226e-05 0.000123141 0.0230444
0.00149292 0.00138316 0.0517318
-0.214338 -0.220063 0.8209
-0.000723129 -0.00065771 0.0128221
-0.0146387 -0.00202924 0.825429
0 0 0
0.0166605 0.021685 0.114972
0.00025547 0.00194279 0.0177166
0.0257856 0.132698 0.455975
0.0213608 -0.00587477 0.297283
-0.0238158 -0.0105088 0.336171
0 0 0
0 0 0
0.00639266 -0.0400322 0.441004
0 0 0
-0.00137305 0.00129096 0.0482547
0 0 0
7.15488e-05 4.41443e-05 0.0173627
0.214922 -0.22069 0.823927
0 0 0
0 0 0
0.0144335 -0.00216966 0.8249
-0.0166371 0.0216706 0.114959
-0.0215351 -0.00588725 0.298864
-0.000251196 0.00191562 0.0175413
-0.0258971 0.13316 0.458375
0 0 0
-0.0275809 0.00338369 0.0163926
0 0 0
4.17822e-05 -0.0844844 0.0239716
-0.00109898 -0.00155855 0.0623196
0 0 0
0.0012205 0.000371005 0.0201983
-0.00212858 -0.00445148 -0.000142277
0.000135738 0.0014516 0.0134548
-0.00034138 -0.0258846 0.00449279
0.000489412 0.00115463 0.0303281
5.16917e-18 3.63504e-18 6.53547e-17
-0.000233984 0.66069 0.367671
7.34087e-06 0.0232418 0.134258
-0.00123787 -0.00326523 0.0357249
-0.0103856 0.00416727 0.0439036
0.00242538 -0.0181625 0.00569259
-2.4144e-05 0.00201864 -0.00517881
0.000306543 0.00120995 0.0234243
0.00160878 -0.00841972 0.0435725
0.0277866 0.00340202 0.0165455
0 0 0
0 0 0
0.00106135 -0.00134261 0.0575053
0.00229067 -0.00487807 -0.000150013
-0.00129928 0.000383519 0.0215154
0 0 0
-0.000468332 0.00112625 0.0292668
0.0104225 0.00418936 0.044104
0.00124532 -0.00326283 0.0358291
-0.00173302 -0.00846702 0.0440617
-0.000307235 0.00121087 0.023418
-9.44523e-05 -0.00212689 0.101288
0 0 0
-1.64195e-17 2.09999e-17 -1.10453e-16
-0.00107822 -0.000553125 0.0504643
0 0 0
0 0 0
0.000103449 0.00233247 0.0323333
0.00120398 -0.00154051 0.0302161
0 0 0
-1.16854e-06 -1.88982e-05 -0.000321208
-4.65267e-05 0.00255846 0.0238318
-0.253165 0.32759 1.07938
1.61091e-05 9.19553e-05 0.000886822
-9.07313e-06 0.0239766 0.0486057
-0.000142945 0.0091681 0.136911
-3.88838e-06 -0.00161234 0.0169978
0 0 0
0.000126474 -0.00213664 0.111024
0 0 0
0.00107422 -0.000563413 0.0502975
-0.000104569 0.00232071 0.0324197
-0.00123473 -0.00157602 0.0308131
0.253115 0.327787 1.07988
5.52213e-05 0.0030702 0.0286539
-0.00778793 -0.0130607 0.139602
-0.00424607 -0.0124069 0.138086
0 0 0
0 0 0