# vtk DataFile Version 2.0
tri_press
ASCII
DATASET UNSTRUCTURED_GRID
POINTS 3682 float
-0.743065 0.115 -2.215
-0.693929 0.215 2.145
-0.731929 0.695 -2.085
-0.665 1.02154 2.225
0.74306 0.115 -2.215
0.693927 0.215 2.145
0.731929 0.695 -2.085
0.665 1.02154 2.225
-0.748469 0.12655 -0.761667
-0.761996 0.129979 0.691667
-0.834903 0.92913 -0.648334
-0.766924 0.992308 0.788333
0.748467 0.126548 -0.761667
0.761995 0.129977 0.691667
0.834905 0.929133 -0.648334
0.766957 0.992341 0.788333
-1.52269 -0.341055 -3.42652
-1.51857 -0.26283 -2.27053
-1.51619 -0.251314 -0.816768
-1.49901 -0.261288 0.640351
-1.45011 -0.206944 2.0944
-1.43865 -0.15364 3.25177
-1.44607 -0.102358 4.40659
-1.52186 0.00722208 -3.36752
-1.52323 0.109581 -2.21334
-1.52913 0.147528 -0.762823
-1.49845 0.145828 0.689198
-1.42368 0.202804 2.14004
-1.42147 0.255412 3.29718
-1.43795 0.305698 4.45254
-1.51965 0.668171 -3.24482
-1.5307 0.76817 -2.08996
-1.58319 0.935594 -0.650802
-1.51045 0.988717 0.787177
-1.41097 1.02402 2.22666
-1.41626 1.07356 3.38448
-1.43903 1.12428 4.54253
-1.51748 1.8011 -3.07331
-1.52667 1.91549 -1.92095
-1.54896 2.08575 -0.487192
-1.53928 2.205 0.942972
-1.50479 2.2704 2.3769
-1.48679 2.31326 3.52963
-1.48255 2.35798 4.68585
-0.761803 -0.339031 -3.4276
-0.751603 -0.257338 -2.2721
-0.7505 -0.260801 -0.816558
-0.756616 -0.273629 0.642458
-0.727183 -0.204082 2.09808
-0.718061 -0.151884 3.25427
-0.722569 -0.102632 4.40803
-0.760173 0.000935494 -3.36785
-0.70552 0.258515 3.29924
-0.717412 0.305858 4.45363
-0.754466 0.635941 -3.24276
-0.700515 1.07332 3.38415
-0.719359 1.12385 4.54246
-0.745366 1.78023 -3.07127
-0.74847 1.89646 -1.9187
-0.77616 2.08126 -0.485838
-0.786672 2.20791 0.942809
-0.770263 2.27221 2.37574
-0.75717 2.31379 3.52847
-0.752626 2.35803 4.68501
0.746288 -0.33903 -3.4276
0.749175 -0.257337 -2.2721
0.755305 -0.260802 -0.816558
0.749857 -0.273629 0.642458
0.704471 -0.204081 2.09808
0.707741 -0.151882 3.25427
0.715789 -0.102629 4.40803
0.74186 0.000936291 -3.36785
0.700344 0.258516 3.29924
0.711535 0.305861 4.45363
0.746741 0.635943 -3.24276
0.689417 1.07332 3.38415
0.704984 1.12386 4.54246
0.790584 1.78024 -3.07127
0.799719 1.89647 -1.9187
0.781745 2.08126 -0.485839
0.734302 2.20792 0.942809
0.701032 2.27222 2.37574
0.697814 2.3138 3.52847
0.703109 2.35804 4.68501
1.50788 -0.341052 -3.42652
1.51341 -0.262828 -2.27053
1.51956 -0.25131 -0.816768
1.50179 -0.261283 0.64035
1.44662 -0.206941 2.0944
1.43643 -0.153636 3.25177
1.4433 -0.102352 4.40659
1.50564 0.00722469 -3.36752
1.51695 0.109582 -2.21334
1.52983 0.147533 -0.762824
1.50667 0.145837 0.689198
1.43365 0.202807 2.14004
1.42474 0.255417 3.29718
1.43612 0.305704 4.45254
1.51467 0.668174 -3.24482
1.53067 0.768173 -2.08996
1.58421 0.935605 -0.650802
1.51453 0.988749 0.787177
1.41664 1.02403 2.22666
1.4125 1.07357 3.38448
1.4285 1.12428 4.54253
1.55588 1.80111 -3.07331
1.56641 1.9155 -1.92095
1.55299 2.08577 -0.487192
1.49881 2.20502 0.942971
1.44909 2.27042 2.3769
1.43564 2.31328 3.52963
1.43746 2.35799 4.68585
-0.723003 0.405 -2.13551
-2.5034e-06 0.111315 -2.21868
-0.750567 0.115976 -1.48833
-0.725847 0.61827 2.23138
-1.01328e-06 0.211073 2.14893
-0.752606 0.147845 1.41833
0 0.797806 -2.18781
-0.834578 0.863227 -1.36667
0 1.024 2.22746
-0.70422 0.995182 1.50667
0.72301 0.405 -2.13552
0.750563 0.115975 -1.48833
0.725825 0.61827 2.23136
0.752599 0.14785 1.41833
0.834591 0.86324 -1.36667
0.704214 0.995176 1.50667
-0.75545 0.128047 -0.035
-0.883245 0.52784 -0.705
-9.81336e-07 0.126796 -0.761667
-0.885089 0.561143 0.74
-5.19533e-07 0.128663 0.691667
-0.819186 0.978992 0.0699999
1.06421e-06 1.31249 -0.648334
1.6619e-05 1.16147 0.788333
0.755449 0.128045 -0.035
0.883253 0.52784 -0.705
0.885103 0.561159 0.74
0.81917 0.978976 0.0699999
-0.869889 0.46642 -1.4275
0.869888 0.46642 -1.4275
-1.74237e-06 0.113663 -1.48833
5.32104e-07 1.04102 -1.36667
-1.2517e-06 0.405 -2.29927
-0.884209 0.544492 0.0175
0.884211 0.5445 0.0175
-7.50435e-07 0.127694 -0.035
8.84162e-06 1.42251 0.0699999
-0.894892 0.589707 1.4625
0.894893 0.589714 1.4625
-7.66406e-07 0.140151 1.41833
8.30951e-06 1.00732 1.50667
-5.06639e-07 0.61827 2.40974
-0.75165 0.26 -2.19387
-0.371534 0.11131 -2.21869
-0.747444 0.114859 -1.85167
-0.716689 0.416635 2.19499
-0.346965 0.209262 2.15074
-0.744868 0.159823 1.78167
-0.759505 0.55 -2.14229
-0.365965 0.783061 -2.17306
-0.812328 0.808188 -1.72583
-0.703151 0.819905 2.23592
-0.3325 1.02462 2.22808
-0.684637 1.00839 1.86583
0.371529 0.111303 -2.2187
0.751642 0.26 -2.19386
0.74744 0.114859 -1.85167
0.346963 0.209315 2.15068
0.716672 0.416635 2.19498
0.744782 0.159906 1.78167
0.365965 0.782993 -2.17299
0.759551 0.55 -2.14234
0.812325 0.808185 -1.72583
0.3325 1.02461 2.22807
0.703155 0.819905 2.23592
0.68463 1.00838 1.86583
-0.753686 0.117095 -1.125
-0.752195 0.127063 -0.398333
-0.865224 0.302512 -0.733333
-0.374608 0.125928 -0.761667
-0.757849 0.138364 1.055
-0.758706 0.129029 0.328333
-0.867642 0.323511 0.715833
-0.381391 0.128536 0.691667
-0.841376 0.902814 -1.0075
-0.884254 0.741075 -0.676667
-0.828309 0.955325 -0.289167
-0.509522 1.30495 -0.648334
-0.732789 0.990962 1.1475
-0.88684 0.807142 0.764167
-0.815182 1.00778 0.429167
-0.41905 1.14808 0.788333
0.753683 0.117094 -1.125
0.374605 0.125928 -0.761667
0.752194 0.127061 -0.398333
0.865224 0.302512 -0.733333
0.757847 0.138364 1.055
0.38139 0.128535 0.691667
0.758705 0.129028 0.328333
0.867643 0.323521 0.715833
0.841411 0.902849 -1.0075
0.509517 1.30494 -0.648334
0.884254 0.741074 -0.676667
0.828312 0.955329 -0.289167
0.732786 0.990959 1.1475
0.419127 1.14819 0.788333
0.886845 0.807157 0.764167
0.815178 1.00777 0.429167
-0.853621 0.43571 -1.7815
-0.361502 0.405 -2.21851
-2.12288e-06 0.113086 -1.85351
-1.87755e-06 0.258158 -2.21885
-0.865506 0.291198 -1.45792
-0.375284 0.113529 -1.48833
-0.846772 0.603988 1.84694
-0.362924 0.61827 2.36018
-8.89843e-07 0.158404 1.78363
-7.59959e-07 0.414672 2.28563
-0.895242 0.368776 1.44042
-0.376303 0.138627 1.41833
2.66052e-07 0.915498 -1.77724
-6.25849e-07 0.601403 -2.37776
-0.86833 0.664824 -1.39708
-0.417289 1.01877 -1.36667
4.15476e-06 1.01642 1.86706
-2.5332e-07 0.821134 2.3679
-0.882008 0.792445 1.48458
-0.352106 1.0077 1.50667
0.853595 0.43571 -1.78151
0.361504 0.405 -2.21851
0.865503 0.291198 -1.45792
0.375281 0.113529 -1.48833
0.846789 0.603992 1.84693
0.362912 0.61827 2.36017
0.895242 0.368782 1.44042
0.376299 0.138628 1.41833
0.868329 0.66483 -1.39708
0.417296 1.01876 -1.36667
0.881992 0.792445 1.48458
0.352111 1.0077 1.50667
-0.866427 0.312971 -0.00874999
-0.378072 0.127178 -0.035
-0.878131 0.49713 -1.06625
-0.883711 0.536166 -0.34375
-1.36185e-06 0.114241 -1.125
-8.65885e-07 0.12721 -0.398333
-0.884631 0.552818 0.37875
-0.895621 0.575425 1.10125
-6.34984e-07 0.128179 0.328333
-6.4297e-07 0.13045 1.055
-0.885653 0.778719 0.04375
-0.518966 1.4195 0.0699999
7.98156e-07 1.17245 -1.0075
4.95291e-06 1.39528 -0.289167
1.27303e-05 1.41611 0.429167
1.24643e-05 0.998239 1.1475
0.866429 0.312973 -0.00874999
0.37807 0.127177 -0.035
0.878642 0.49713 -1.06625
0.883712 0.53617 -0.34375
0.884633 0.552829 0.37875
0.895621 0.575437 1.10125
0.885656 0.77872 0.04375
0.51897 1.4195 0.0699999
-0.85331 0.275599 -1.81658
-0.869993 0.309197 -1.09563
-0.88378 0.696655 -1.03688
-0.856125 0.607412 -1.75367
0.85331 0.275599 -1.81659
0.856123 0.607415 -1.75367
0.884092 0.696658 -1.03688
0.869993 0.309196 -1.09563
-0.373409 0.113 -1.85259
0.373405 0.113 -1.85259
0.374757 0.11406 -1.125
-0.37476 0.11406 -1.125
-0.391627 0.923914 -1.75153
-0.41737 1.161 -1.0075
0.417374 1.161 -1.0075
0.39163 0.923912 -1.75153
-0.366518 0.259079 -2.21817
-0.363733 0.575702 -2.35179
0.363734 0.575702 -2.35179
0.366517 0.259079 -2.21811
-0.865825 0.307742 -0.371042
-0.867036 0.31824 0.353542
-0.886019 0.792817 0.403958
-0.884859 0.75985 -0.316458
0.865826 0.307743 -0.371042
0.884861 0.75985 -0.316458
0.886025 0.792826 0.403958
0.867037 0.318246 0.353542
-0.376367 0.126499 -0.398333
0.376365 0.126499 -0.398333
0.37973 0.127856 0.328333
-0.379731 0.127857 0.328333
-0.529864 1.39347 -0.289167
-0.529541 1.40486 0.429167
0.529556 1.40486 0.429167
0.529868 1.39347 -0.289167
-0.884632 0.357169 1.07813
-0.847169 0.392706 1.8143
-0.837842 0.806175 1.85639
-0.889512 0.784585 1.12438
0.88463 0.357175 1.07813
0.889502 0.784598 1.12438
0.83785 0.806175 1.85638
0.847181 0.392709 1.8143
-0.378651 0.130196 1.055
0.378648 0.130196 1.055
0.361631 0.155436 1.78265
-0.361634 0.155436 1.78265
-0.36778 0.998498 1.1475
-0.342303 1.01693 1.86645
0.342306 1.01693 1.86645
0.367799 0.998498 1.1475
-0.354944 0.415653 2.27943
0.354938 0.415653 2.27946
0.347706 0.82052 2.32737
-0.347712 0.82052 2.32737
-0.747365 0.1875 -2.20444
-0.557299 0.111322 -2.21868
-0.745983 0.114202 -2.03333
-0.706385 0.315818 2.17107
-0.520447 0.211719 2.14828
-0.723282 0.183528 1.96333
-0.749324 0.6225 -2.11725
-0.548947 0.763913 -2.15391
-0.775988 0.755453 -1.90542
-0.684698 0.920723 2.23108
-0.49875 1.02287 2.22633
-0.67495 1.0151 2.04542
0.557294 0.111316 -2.21868
0.747361 0.1875 -2.20444
0.745978 0.114202 -2.03333
0.520445 0.211721 2.14828
0.706387 0.315818 2.17108
0.72328 0.183528 1.96333
0.548947 0.763785 -2.15378
0.749253 0.6225 -2.11718
0.775975 0.75544 -1.90542
0.49875 1.02288 2.22634
0.684698 0.920723 2.23108
0.674952 1.0151 2.04542
-0.747685 0.125216 -0.943333
-0.750218 0.126921 -0.58
-0.857295 0.189307 -0.7475
-0.561383 0.12655 -0.761667
-0.763272 0.130822 0.873333
-0.760349 0.129506 0.51
-0.858262 0.205024 0.70375
-0.571533 0.129577 0.691667
-0.838116 0.915949 -0.827917
-0.871583 0.841105 -0.6625
-0.831623 0.942245 -0.46875
-0.711032 1.19468 -0.648334
-0.749008 0.990786 0.967917
-0.866591 0.91958 0.77625
-0.811831 1.02082 0.60875
-0.608722 1.10166 0.788333
0.747682 0.125214 -0.943333
0.56138 0.12655 -0.761667
0.750215 0.12692 -0.58
0.857301 0.189303 -0.7475
0.763269 0.130822 0.873333
0.571531 0.129578 0.691667
0.76035 0.129502 0.51
0.858266 0.205025 0.70375
0.838119 0.915952 -0.827917
0.711054 1.19472 -0.648334
0.871593 0.84111 -0.6625
0.83163 0.942252 -0.46875
[...]
POINT_DATA 3682
SCALARS point_scalars float 1
LOOKUP_TABLE default
-95.8815
-41.7911
-46.3151
-40.2574
-96.0387
-41.7584
-46.4778
-40.2342
-40.5183
-38.1326
-60.2746
-60.2571
-40.5039
-38.1322
-60.2438
-60.0689
-55.9093
-106.647
-42.2898
-39.0507
-47.4805
-37.5888
-35.1078
-55.9093
-100.117
-42.7924
-39.9485
-43.0506
-35.0984
-33.1797
50.2901
-90.647
-54.7126
-49.8502
-43.7998
-37.1798
-34.4304
-17.1442
-59.5107
-84.8909
-68.6512
-39.6244
-40.026
-40.026
-32.7094
-185.449
-41.3867
-38.1046
-42.4315
-33.866
-33.866
-32.7094
-32.1351
-31.7696
135.73
-33.8815
-32.8716
10.0275
-28.8685
-84.6771
-68.0862
-38.9285
-40.026
-34.6364
-26.1019
-185.609
-41.4283
-38.1579
-42.1896
-33.8434
-33.8434
-26.1019
-32.052
-31.7683
135.448
-33.8775
-32.8635
-0.901833
-30.5444
-84.752
-68.0622
-38.9104
-39.9962
-34.6341
-55.7572
-106.531
-42.2966
-39.1538
-47.3266
-37.4866
-35.0879
-55.7572
-100.024
-42.7975
-39.922
-43.0701
-35.0754
-33.159
54.9391
-90.8348
-54.6971
-49.847
-43.86
-37.1686
-34.4266
-22.2434
-59.9475
-84.9155
-68.6399
-39.6116
-39.9962
-39.9962
-10.3501
-159.33
-55.7538
-36.106
-34.6893
-42.4572
-31.7208
-63.1643
-36.9389
-48.072
-9.6834
-55.7747
-36.0764
-42.4617
-63.1938
-48.0852
-37.2769
-48.0631
-41.6784
-43.0673
-39.0699
-55.7361
-59.7214
-52.1131
-37.2799
-48.0585
-43.0652
-55.7441
-61.8899
-61.9029
-60.8736
-1.87659
201.667
-44.1623
-44.1667
-37.7367
-85.3517
-49.2538
-49.2482
-41.5972
-49.8088
-30.6075
-46.3318
-151.494
-81.8075
-36.776
-36.4348
-47.2342
-28.0961
-16.0729
-60.6799
-36.8775
-36.5197
-42.381
-151.48
-46.8454
-81.8662
-36.3943
-36.7753
-47.1973
-16.55
-28.6844
-60.6928
-36.5162
-36.8573
-42.3846
-47.0224
-37.958
-44.5883
-40.8844
-41.9727
-37.5388
-40.2479
-38.9705
-64.9106
-52.6783
-56.9148
-57.6281
-53.2902
-47.576
-57.0095
-54.4099
-47.0306
-40.8874
-37.97
-44.5777
-41.971
-38.9725
-37.5408
-40.2606
-64.9095
-57.5462
-52.6665
-56.9113
-53.2998
-54.4188
-47.5776
-57.0009
-93.1419
187.749
-87.4066
191.189
-61.2749
-58.8389
-46.6516
-32.1577
-41.5653
-27.7717
-47.5848
-41.7635
-13.9673
160.553
-62.277
-4.73168
-43.4159
-33.9191
-48.5519
-49.8242
-93.165
187.719
-61.2688
-58.8518
-46.6346
-32.1909
-47.582
-41.7656
-62.2807
-4.7346
-48.55
-49.8225
-41.3125
-37.4601
-51.6294
-45.2279
-49.3951
-38.6609
-43.5949
-44.8363
-37.9477
-40.8853
-48.6423
-79.2836
-15.478
-93.3932
-69.9696
-52.6797
-41.315
-37.4621
-51.6515
-45.2288
-43.599
-44.8279
-48.6455
-79.2901
-94.4367
-51.5013
-56.3404
-90.3543
-94.3881
-90.3678
-56.3482
-51.5087
-84.7661
-84.817
-48.7724
-48.77
-21.2883
-18.9281
-18.913
-21.2812
188.886
161.036
160.299
188.749
-42.2929
-40.901
-47.8798
-49.306
-42.2946
-49.3023
-47.8806
-40.9038
-38.2513
-38.2534
-37.7325
-37.7301
-86.313
-70.041
-70.0429
-86.4674
-43.043
-48.3073
-45.8693
-47.5713
-43.0539
-47.5827
-45.8691
-48.2805
-40.8365
-40.837
-42.6035
-42.6002
-53.5857
-42.9585
-42.9599
-53.5822
-30.071
-29.969
-33.7833
-33.7862
-69.5781
-171.6
-110.243
-38.7713
-38.6049
-44.0021
-46.1326
-16.6816
-50.5751
-38.4096
-37.742
-40.3329
-173.218
-69.9363
-110.296
-38.5464
-38.7478
-43.988
-16.4109
-47.4303
-50.6331
-37.732
-38.3989
-40.3274
-40.6051
-38.7269
-41.8024
-40.286
-42.352
-37.6854
-40.1434
-38.9673
-63.0247
-56.3189
-58.4621
-79.872
-56.076
-53.4827
-62.2397
-56.4105
-40.6203
-40.2875
-38.7103
-41.7775
-42.354
-38.9695
-37.6888
-40.1263
-63.0108
-79.8649
-56.3009
-58.4318
-56.078
-56.4297
-53.4835
-62.2068
-22.3292
-13.9478
-129.452
135.136
-159.246
-159.25
-115.051
141.871
-65.1013
-50.038
-60.0045
-56.9612
-36.3071
-36.3409
-41.9642
-33.1328
-35.1333
-35.1164
-38.5025
-27.0185
-44.2908
-41.3852
-46.0641
-41.8678
-24.9995
-23.8048
-23.3264
69.807
-59.8973
-64.6225
-63.808
-14.5556
-36.729
-36.7305
-40.1046
-34.2435
-45.2915
-50.8695
-47.4098
-49.048
-23.5108
-14.4108
-129.813
135.446
-65.1385
-50.0508
-59.9924
-56.9856
-36.2807
-36.3193
-41.9332
-33.12
-44.299
-41.3859
-46.0682
-41.8712
-59.8366
-64.6043
-63.7872
-14.5823
-45.3018
-50.8825
-47.416
-49.0492
-37.5349
-37.2973
-39.8859
-37.2784
-46.21
-50.0427
-50.3919
-46.3338
-41.4519
-41.4526
-44.5682
-39.815
-41.5906
-44.8476
-43.3477
-43.441
-39.0377
-39.039
-38.4101
-39.8435
-57.3237
-55.9605
-53.0183
-65.935
-58.136
-58.1391
-30.8023
-84.1552
-52.9809
-52.9492
-60.0728
-52.4938
-37.5336
-37.2997
-39.8862
-37.285
-46.2051
-50.0355
-50.3795
-46.3308
-41.5938
-44.8492
-43.3489
-43.4652
-57.3215
-55.9546
-53.0368
-65.9169
-72.0212
-61.7857
-61.7365
-55.8007
-72.0428
-61.79
-61.7491
-55.8273
-70.9823
-60.3666
-60.3684
-54.1177
-5.48284
-2.52804
-2.55463
-7.3393
199.405
192.149
200.356
199.295
-42.606
-44.496
-43.8529
-46.1214
-42.6101
-44.4989
-43.8578
-46.1246
-37.6524
-38.0139
-37.7123
-37.6534
-84.3643
-90.4644
-78.4955
-84.3695
-50.2212
-48.5809
-49.2028
-46.6357
-50.2103
-48.576
-49.1973
-46.6317
-42.2203
-41.6789
-41.6786
-41.6426
-46.8148
-49.9637
-49.9613
-51.905
-31.1941
-27.8571
-33.1781
-31.1986
-109.421
99.8821
-112.217
127.451
-91.2296
-82.9531
-42.6046
-33.0052
-39.8775
-30.7172
-49.9613
-44.0472
-93.035
85.552
-26.5421
73.3931
-81.8826
-32.2168
-42.8254
-33.8675
-39.5289
-34.239
-45.5601
-42.4952
-112.319
141.008
-109.026
100.983
-91.219
-83.0336
-39.8915
-30.7036
-42.5775
-32.9822
-49.8912
-44.0345
-26.5175
71.673
-93.3822
85.2255
-81.8909
-32.2164
-39.5307
-34.2382
-42.7934
-33.8641
-45.5504
-42.4987
-51.1824
-48.0512
-40.99
-37.9487
-46.9574
-43.2606
-43.4886
-39.2593
-43.8594
-41.3261
-39.7532
-37.562
-40.6946
-41.8927
-38.2289
-39.9267
-59.6961
-41.1236
-54.8521
-50.784
-52.9049
-69.5399
-32.2585
-81.2661
-49.2378
-53.5343
-47.91
-47.3342
-52.894
-65.3821
-65.4189
-54.1753
-51.1854
-48.0507
-43.4934
-39.2617
-41.0161
-37.9598
-46.9553
-43.2557
-43.8736
-41.3258
-38.2308
-39.9281
-39.7527
-37.5644
-40.7023
-41.8049
-59.6793
-40.6472
-32.396
-81.2137
-54.8422
-50.775
-52.9022
-69.5196
-49.2493
-53.5326
-65.42
-54.173
-47.9059
-47.3403
-52.8896
-65.3556
-94.6332
-91.6173
185.781
188.645
-86.7908
-86.8046
189.908
190.157
-71.1575
-54.7302
-68.4624
-52.6532
-47.3785
-46.2419
-31.1342
-33.3619
-41.8384
-41.8357
-28.5615
-28.5273
-44.5854
-51.0117
-41.9235
-42.8563
-15.8773
-15.8741
165.219
165.107
-56.8673
-71.551
-14.483
-8.68138
-43.3493
-43.3495
-33.9027
-33.9007
-49.0477
-47.3237
-52.27
-46.5456
-94.6007
-91.6776
188.615
185.576
-71.1473
-54.7318
-68.4862
-52.6607
-46.2341
-47.3558
-31.132
-33.3488
-44.5865
-51.015
-41.9236
-42.8606
-71.5745
-56.8874
-8.6993
-14.4816
-47.3118
-49.0376
-46.5453
-52.2667
-41.7004
-41.06
-37.6945
-37.474
-51.1093
-53.4339
-43.6516
-47.0647
-49.2231
-49.2201
-38.537
-38.5377
-42.1084
-45.5029
-43.9175
-46.3994
-37.8891
-37.8878
-40.7644
-40.765
-47.9818
-48.7172
-82.1685
-75.2881
-15.8915
-15.9067
-92.3112
-92.3687
-70.2209
-70.2223
-53.0676
-53.0647
-41.6989
-41.0625
-37.6967
-37.4762
-53.454
-51.1264
-43.6526
-47.0628
-45.5038
-42.113
-43.9178
-46.3983
-48.7169
-47.9837
-75.283
-82.0384
-102.193
-69.7838
-71.7844
-122.334
-45.014
-48.5971
-55.448
-53.4671
-58.4624
-60.3074
-55.7446
-52.2842
-72.1896
-116.591
-71.7459
-71.0343
-102.088
-122.141
-71.7915
-69.7774
-72.3469
-71.0233
-71.7689
-116.821
-58.4563
-52.2741
-55.7912
-60.3622
-45.0171
-53.4642
-55.456
-48.5943
-111.971
-114.566
-70.374
-66.3148
-112.165
-66.4696
-70.3785
-114.591
-42.505
-44.2731
-53.7367
-51.2358
-42.4968
-51.2223
-53.7266
-44.2725
-36.0338
-20.7502
-8.0575
-25.421
-75.8275
-30.7276
-7.25449
-25.1754
-75.7961
-25.1706
-7.20593
-30.5961
-36.0601
-25.3934
-7.95367
-20.7316
27.6246
98.8876
190.691
138.054
59.0833
69.4913
197.75
101.721
59.6211
98.6769
197.731
69.3371
37.2463
136.161
190.565
98.2042
-41.6316
-40.4268
-43.0028
-44.6615
-39.7915
-41.8904
-42.3321
-39.6144
-54.2747
-52.2508
-45.7309
-45.2771
-54.5099
-48.2597
-46.3509
-52.4994
-41.5907
-44.6592
-43.0052
-40.3258
-54.4967
-52.5006
-46.3522
-48.2537
-54.2662
-45.2771
-45.7343
-52.2469
-39.7797
-39.6141
-42.3368
-41.8947
-38.8403
-39.6459
-37.9166
-37.4799
-38.8413
-37.4817
-37.9176
-39.6468
-38.0578
-38.3605
-37.6453
-37.3196
-38.0599
-37.3176
-37.6439
-38.3598
-76.0739
-66.4566
-89.2003
-83.0392
-67.0676
-61.1282
-78.2468
-64.8697
-67.0588
-64.8462
-78.2495
-61.1276
-76.066
-82.9975
-89.135
-66.4358
-37.2811
-43.2771
-45.8137
-42.3923
-43.4454
-42.2164
-50.4083
-49.3527
-44.3949
-47.4689
-49.7195
-42.1689
-53.0932
-44.7312
-46.99
-48.3402
-37.2359
-42.3904
-45.8123
-43.2792
-53.1018
-48.3361
-46.9864
-44.7469
-44.342
-42.1359
-49.7026
-47.4681
-43.4133
-49.4076
-50.3998
-42.196
-40.213
-39.8449
-41.7989
-41.8467
-40.2138
-41.8466
-41.8014
-39.846
-41.5671
-38.8595
-42.405
-43.2642
-41.5454
-43.2568
-42.4021
-38.8498
-54.6417
-51.7101
-52.1442
-53.112
-39.3679
-39.9324
-46.8546
-45.8763
-39.3841
-45.8792
-46.8533
-39.9335
-54.6392
-53.1082
-52.1412
-51.7112
-33.9715
-28.8113
-28.4963
-32.8304
-33.9489
-32.8119
-28.4744
-28.858
-34.6269
-34.1335
-33.2923
-33.4352
-34.6302
-33.4568
-33.2884
-34.133
-81.337
-160.827
-147.62
-40.9309
-39.623
-42.2299
-43.4183
-15.357
-54.882
-39.7367
-38.8265
-38.6778
-160.959
-81.6498
-147.696
-39.5619
-40.9025
-42.1889
-15.2141
-44.0651
-55.0633
-38.8132
-39.7221
-38.6511
-41.649
-39.2379
-41.3301
-40.1338
-40.0414
-37.89
-38.8381
-38.8879
-61.5377
-58.2805
-59.4646
-68.2925
-57.405
-57.9069
-63.2269
-58.8097
-41.6472
-40.1308
-39.2202
-41.32
-40.0443
-38.8906
-37.899
-38.8084
-61.5131
-68.2778
-58.2551
-59.4356
-57.4381
-58.6318
-57.9131
-63.2229
-8.45939
-10.4068
-103.417
39.3787
-159.72
-159.778
-133.914
-133.175
-59.6559
-52.629
-58.1252
-56.0966
-36.1478
-36.1847
-40.1449
-33.784
-34.7894
-34.7804
-36.742
-28.3087
-42.7445
-42.4823
-44.7764
-42.1317
-26.2689
-25.8703
-31.6232
26.4243
-63.6603
-66.4867
-65.8083
-35.1806
-36.9129
-36.9141
-38.6955
-35.0093
-46.6689
-49.5271
-47.4303
-48.5735
-8.50583
-9.96826
-104.272
40.6052
-59.6847
-52.6455
-58.1276
-56.1247
-36.1199
-36.1573
-40.113
-33.7726
-42.7497
-42.4859
-44.7839
-42.135
-63.6421
-66.485
-65.7961
-35.218
-46.682
-49.5409
-47.4415
-48.5791
-37.3345
-37.2404
-38.3978
-37.2092
-47.1825
-48.995
-49.066
-47.1907
-41.6084
-41.6086
-42.9945
-40.6304
-42.384
-43.8617
-43.2054
-42.9295
-39.0603
-39.0612
-38.7058
-39.4412
-57.0205
-55.5922
-54.6986
-60.2526
-59.4075
-59.413
-43.339
-72.8221
-52.3828
-52.4103
-54.618
-52.0001
-37.3372
-37.243
-38.3994
-37.2112
-47.1782
-48.9895
-49.0588
-47.119
-42.3815
-43.8615
-43.2047
-42.8776
-57.0201
-55.5897
-54.7224
-60.2427
-65.7062
-61.9127
-61.8062
-58.8326
-65.7246
-61.9218
-61.821
-58.8365
-65.3701
-60.7224
-60.7231
-57.1742
-2.07449
-1.98865
-2.01116
-4.40786
200.991
198.552
200.985
200.982
-43.3798
-44.3387
-43.9564
-45.0842
-43.3843
-44.3426
-43.9611
-45.088
-37.7116
-37.8187
-37.6884
-37.7124
-85.1093
-88.9774
-81.6345
-85.1108
-49.8773
-49.0988
-49.1631
-47.5466
-49.8678
-49.0943
-49.1575
-47.5419
-41.9404
-41.6061
-41.6067
-41.6463
-48.4066
-49.9139
-49.9124
-50.9858
-30.755
-27.7692
-32.4064
-30.7557
-58.159
-18.6633
-118.009
74.7966
-155.776
-156.785
-131.22
-92.3177
-94.4239
-72.2856
-87.7866
-81.9366
-37.2572
-36.3853
-40.6555
-33.952
-37.4137
-35.6738
-38.2837
-32.4527
-46.4528
-46.2102
-50.2432
-45.1452
-39.9805
-26.0559
-83.6552
48.8553
-14.3687
-19.8078
-33.6452
28.3303
-53.6579
-59.9843
-75.4928
-40.563
-37.3294
-36.5594
-41.838
-34.4477
-36.9165
-36.5495
-37.9376
-35.0153
-41.0184
-43.6828
-45.2613
-42.4131
-156.697
-156.825
-131.388
-100.462
-58.5626
-19.0051
-117.872
72.6673
-94.5033
-72.3309
-87.7538
-82.0179
-37.3537
-35.6491
-38.2586
-32.435
-37.2335
-36.3553
-40.628
-33.9296
-46.4171
-46.2218
-50.1835
-45.1116
-14.4415
-21.6353
-33.5562
29.9985
-41.3456
-26.1412
-82.9448
55.9441
-53.69
-60.002
-75.5437
-40.5572
-36.9076
-36.5493
-37.9382
-35.0109
-37.3166
-36.5404
-41.8037
-34.4411
-41.0168
-43.6894
-45.2708
-42.4192
-44.1566
-48.0759
-48.3091
-47.7353
-38.2663
-37.6819
-39.1943
-37.8713
-43.7875
-45.3672
-45.6744
-43.8547
-40.559
-41.21
-42.0171
-39.9842
-42.8176
-40.6331
-44.6944
-41.5391
-37.456
-37.3476
-38.5155
-37.4936
-39.8966
-40.825
-40.5689
-39.0513
-38.9409
-39.0059
-38.5643
-39.4328
-64.5483
-65.9809
-62.1332
-73.6004
-54.5162
-51.2977
-53.7278
-51.7592
-57.6797
-56.816
-54.9822
-62.6333
-68.1442
-56.9824
-40.6778
-72.1132
-54.2121
-52.2253
-52.2292
-53.4389
-50.441
-45.9674
-47.7086
-46.7364
-58.279
-56.2911
-55.5899
-61.5766
-55.1655
-53.6798
-57.643
-54.1421
-44.1686
-48.0852
-48.3137
-47.7378
-40.5622
-41.2118
-42.021
-39.9867
-38.2789
-37.6807
-39.2482
-37.8753
-43.7666
-45.3603
-45.6681
-43.8445
-42.8146
-40.6333
-44.7
-41.5389
-38.943
-39.0077
-38.5663
-39.4348
-37.4577
-37.3498
-38.5153
-37.4959
-39.9054
-40.8344
-40.5783
-39.0832
-64.5477
-65.9682
-62.1208
-73.1051
-68.0671
-56.9539
-40.6224
-72.1483
-54.501
-51.2884
-53.7183
-51.7495
-57.6673
-56.8195
-54.9778
-62.6151
-54.2207
-52.2361
-52.2327
-53.4407
-55.1656
-53.6908
-57.6418
-54.1396
-50.4396
-45.9691
-47.709
-46.7393
-58.2489
-56.2859
-55.5838
-61.5479
-114.362
-79.4767
-93.8652
-92.2483
189.679
191.955
186.095
188.337
-99.9234
-78.2129
-87.242
-87.2498
190.553
190.553
190.344
190.376
-60.6582
-61.5849
-65.4315
-57.8248
-57.8887
-59.6966
-63.0555
-55.4197
-44.2543
-49.143
-47.0756
-46.387
-32.5988
-31.9184
-31.7578
-32.8483
-40.2686
-42.0686
-41.5811
-41.5793
-27.4087
-27.9
-27.8936
-27.8898
-46.7464
-48.3504
-45.6037
-48.702
-41.746
-41.7288
-41.9937
-42.1172
-17.7099
-9.81002
-14.4741
-14.4825
119.931
197.475
152.724
154.234
-62.554
-61.7561
-59.4389
-65.6046
-7.40692
-3.37862
-7.90805
-5.35162
-41.7147
-45.1352
-43.4129
-43.4128
-34.1349
-33.6761
-33.9386
-33.9379
-47.9475
-49.0718
-48.7407
-47.958
-49.4664
-49.9465
-51.1402
-48.2123
-114.304
-79.5033
-93.8533
-92.3083
189.473
191.932
188.332
185.832
-60.647
-61.583
-65.4252
-57.8212
-57.9081
-59.7025
-63.0725
-55.4299
-44.2385
-49.1267
-46.3735
-47.0553
-32.6231
-31.9178
-31.7458
-32.8512
-46.7459
-48.3455
-45.6041
-48.7068
-41.7489
-41.7298
-41.9946
-42.1208
-62.5428
-61.7633
-65.6188
-59.4717
-7.41265
-3.39335
-5.35287
-7.90737
-47.9489
-49.0675
-47.956
-48.7375
-49.4661
-49.9443
-48.2232
-51.1378
-40.7412
-41.9154
-41.4549
-41.1867
-37.3448
-37.5554
-37.5317
-37.4383
-51.4588
-53.1378
-51.3541
-52.4043
-45.7144
-44.8505
-44.4881
-46.1155
-46.8871
-51.5074
-49.4007
-49.3985
-39.1695
-38.295
-38.6203
-38.6206
-43.437
-43.7012
-42.8204
-44.4951
-43.4101
-46.1506
-44.3987
-45.4144
-38.1548
-37.8119
-37.9299
-37.9292
-40.3763
-41.2932
-40.7774
-40.7776
-50.5578
-47.3039
-48.33
-48.8268
-72.8717
-82.3385
-81.5615
-76.8626
-22.4465
-10.6682
-15.5849
-15.6121
-91.8071
-91.0046
-93.1656
-93.187
-66.1852
-74.0205
-70.0628
-70.0626
-52.7405
-52.3703
-52.7737
-52.772
-40.7425
-41.919
-41.459
-41.1891
-37.3468
-37.5571
-37.5335
-37.4405
-51.5065
-53.1426
-52.4259
-51.3773
-45.7115
-44.8521
-44.4895
-46.115
-43.4417
-43.7055
-44.4979
-42.8251
-43.4655
-46.1472
-44.3961
-45.4097
-50.5509
-47.3065
-48.828
-48.3355
-72.8478
-82.3424
-76.8643
-81.5473
-108.365
-94.0885
-94.5738
-79.7113
-51.8843
-48.8365
-52.3057
-51.0548
-57.8437
-55.8977
-56.0562
-54.9537
-99.698
-87.6151
-90.854
-78.9776
-108.207
-94.0479
-94.5284
-79.6868
-99.855
-87.5966
-90.8948
-78.9926
-57.8311
-55.9368
-56.0346
-54.9684
-51.8911
-48.8395
-52.3102
-51.0639
-97.0578
-83.7597
-85.8909
-75.6106
-97.1333
-83.8305
-85.9199
-75.6458
-48.5262
-46.0681
-50.4156
-49.1097
-48.5269
-46.0643
-50.4104
-49.1062
-22.0523
-26.4967
-17.9169
-19.0701
-24.1992
-24.9946
-13.3065
-16.6412
-24.1729
-24.9786
-13.2803
-16.6454
-22.0648
-26.5222
-17.9144
-19.0833
184.383
194.105
187.094
188.078
127.85
109.32
190.057
167.681
109.561
127.442
167.498
189.645
193.957
184.118
188.1
186.918
-41.6729
-42.7088
-41.9789
-42.9378
-40.3981
-40.7957
-40.9634
-41.4494
-47.8744
-50.3699
-46.6013
-47.9832
-49.893
-50.8885
-48.1236
-48.8354
-41.6758
-42.7101
-41.9742
-42.9383
-49.886
-50.8863
-48.1204
-48.8313
-47.8733
-50.3711
-46.6003
-47.9829
-40.3991
-40.7989
-40.9659
-41.4535
-38.0838
-38.6941
-37.9285
-38.4006
-38.6965
-38.0863
-38.402
-37.9307
-37.9543
-37.6423
-37.8151
-37.5828
-37.6398
-37.9522
-37.5803
-37.8132
-79.5725
-85.533
-82.5352
-90.5859
-68.2783
-69.5744
-72.794
-70.3027
-69.5601
-68.2671
-70.3035
-72.7955
-85.5768
-79.5677
-90.6731
-82.4382
-43.1198
-43.5341
-43.4205
-43.3812
-45.3
-48.8164
-47.8058
-51.168
-44.1961
-45.6908
-46.0575
-48.1516
-47.8443
-47.5531
-47.2876
-47.2603
-43.1407
-43.5248
-43.4258
-43.3854
-47.8691
-47.5612
-47.2857
-47.2633
-44.1986
-45.6832
-46.0623
-48.1376
-45.2763
-48.779
-47.7805
-51.1365
-41.18
-40.5103
-41.1061
-40.76
-41.1797
-40.511
-41.1062
-40.7604
-41.6117
-43.2325
-42.1558
-42.9554
-41.6004
-43.2323
-42.1523
-42.9516
-53.6469
-53.95
-53.005
-53.3673
-41.1966
-42.6779
-43.1978
-44.757
-41.1985
-42.681
-43.1982
-44.7575
-53.6437
-53.9469
-53.0013
-53.3638
-31.6298
-30.3704
-29.9767
-29.5902
-30.3349
-31.6121
-29.5792
-29.9678
-33.9722
-33.8151
-33.8585
-33.5945
-33.8103
-33.9707
-33.6039
-33.8568
-118.094
47.7448
-138.456
-68.2604
-106.171
-111.487
-41.8529
-35.3148
-40.0546
-35.2379
-44.4903
-42.4139
-70.0285
18.9508
-35.6032
28.0761
-60.9113
-45.4005
-42.1099
-35.5985
-38.0748
-36.0069
-43.7803
-39.5889
-138.596
-62.1319
-118.358
48.0407
-106.063
-111.649
-39.9809
-35.2183
-41.8162
-35.29
-44.4615
-42.4189
-35.5613
28.308
-70.1878
23.6509
-61.0105
-45.4698
-38.0721
-35.9905
-42.0764
-35.5986
-43.7541
-39.5897
-40.07
-41.9977
-39.7989
-38.7001
-43.7916
-42.3009
-41.3221
-39.444
-41.9267
-40.5332
-38.4156
-37.9053
-39.6513
-39.6086
-38.4422
-39.5842
-60.5218
-70.9677
-57.3096
-55.4009
-56.5566
-64.9445
-79.6091
-82.4616
-56.6556
-54.9793
-54.531
-52.8642
-58.2929
-66.1946
-62.01
-54.7056
-40.0924
-42.0067
-41.3264
-39.4446
-39.7212
-38.6983
-43.7842
-42.2559
-41.926
-40.5337
-38.4448
-39.5857
-38.3911
-37.9084
-39.8205
-39.6423
-60.5126
-70.9628
-79.504
-82.4759
-57.2963
-55.3843
-56.5339
-64.9111
-56.6627
-54.9755
-61.9966
-54.701
-54.5304
-52.8684
-58.2718
-66.167
-106.286
50.6805
-89.9008
19.6282
-127.771
-125.076
107.868
113.355
-133.212
-176.222
-133.244
-169.847
-114.975
-114.985
134.643
149.544
-67.8578
-65.3465
-52.1403
-50.4358
-63.6928
-56.6386
-60.9644
-53.7656
-40.2015
-33.6361
-40.8458
-33.8553
-42.1022
-41.98
-32.8787
-33.3669
-37.1459
-30.042
-37.1316
-30.0274
-38.5972
-38.5925
-27.7397
-27.7321
-47.7392
-43.5343
-42.2981
-41.6267
-44.2618
-46.7186
-42.1324
-42.2106
-36.232
20.7024
-36.1794
20.474
-23.9334
-23.919
64.3829
64.4336
-68.3185
-30.503
-62.5487
-52.3784
-60.9652
-66.862
-16.7531
-15.8617
-38.4124
-34.9499
-38.4143
-34.9315
-40.0573
-40.0578
-34.1705
-34.1698
-46.0195
-45.5673
-49.7961
-51.2751
-47.2328
-48.007
-50.4072
-47.5303
-107.525
51.5209
-86.2662
18.452
-127.974
-125.988
113.168
108.017
-67.8672
-65.3937
-52.1428
-50.4519
-63.6907
-56.633
-60.9969
-53.7145
-40.1627
-33.6172
-40.8189
-33.846
-41.9504
-42.0725
-32.8638
-33.338
-47.7751
-43.5429
-42.2973
-41.627
-44.2697
-46.7211
-42.1337
-42.2164
-68.2678
-30.4862
-62.56
-52.3473
-66.8769
-61.006
-15.8949
-16.7667
-46.0198
-45.5746
-49.8036
-51.2817
-48.012
-47.2355
-47.5319
-50.4091
-38.7725
-37.4456
-38.2514
-37.2778
-40.1731
-40.1445
-37.3472
-37.2773
-47.249
-45.3676
-51.0356
-49.0948
-49.5666
-51.3085
-45.526
-47.2642
-42.7325
-40.4395
-42.7331
-40.4402
-44.3351
-44.4702
-39.7617
-39.7619
-41.7435
-41.047
-45.0899
-44.6565
-42.5979
-44.2518
-42.7727
-44.1295
-38.6667
-39.4275
-38.668
-39.4289
-38.3987
-38.3981
-39.8378
-39.8386
-56.0143
-61.0893
-54.4875
-60.2168
-52.4201
-54.6509
-66.0463
-65.1261
-42.652
-71.926
-42.6369
-71.9758
-30.7627
-30.6972
-83.9329
-83.9149
-55.2839
-52.8013
-55.2837
-52.7966
-60.2619
-60.2629
-52.6671
-52.6653
-38.664
-37.4467
-38.2516
-37.2799
-40.1928
-40.1442
-37.3489
-37.2792
-47.2444
-45.3636
-51.0266
-49.0881
-51.3002
-49.5587
-45.5245
-47.2589
-41.7494
-41.0446
-45.0895
-44.6635
-44.2517
-42.6013
-42.779
-44.1765
-56.0122
-61.0717
-54.4821
-60.1961
-54.6204
-52.4514
-65.1035
-66.027
-72.1123
-71.9094
-65.851
-58.477
-58.7905
-65.2482
-55.6726
-55.9201
-72.1303
-71.9337
-65.8572
-58.4814
-65.2689
-58.7978
-55.9396
-55.6875
-70.7784
-70.7807
-64.8062
-56.7958
-64.8016
-56.7225
-53.9935
-53.993
-6.00925
-6.02535
-3.48545
-4.41397
-4.48397
-3.49131
-7.38709
-7.36672
196.978
198.258