# vtk DataFile Version 2.0
tet_velo
ASCII
DATASET UNSTRUCTURED_GRID
POINTS 29498 float
-0.850872 0.145 -1.805
-0.638103 0.285 2.015
-0.643397 0.685 -1.875
-0.575 0.936159 1.965
0.840808 0.145 -1.805
0.638066 0.285 2.015
0.643971 0.685 -1.875
0.575 0.936159 1.965
-0.793131 0.178484 -0.531667
-0.758269 0.18909 0.741667
-0.727307 0.875429 -0.595
-0.697534 0.952175 0.685
0.789694 0.1752 -0.531667
0.754755 0.189225 0.741667
0.726728 0.874467 -0.595
0.697578 0.952027 0.685
-1.6128 -0.257794 -2.79512
-1.60023 -0.185013 -1.77379
-1.54796 -0.154786 -0.500626
-1.47527 -0.147281 0.771193
-1.37833 -0.084577 2.04424
-1.35505 -0.0359487 3.06502
-1.36249 0.00596728 4.08683
-1.60093 0.0530888 -2.82773
-1.58762 0.143025 -1.80566
-1.53873 0.194682 -0.531204
-1.45619 0.204224 0.742654
-1.32803 0.260711 2.01698
-1.32162 0.308039 3.03786
-1.34376 0.350319 4.05945
-1.51058 0.651399 -2.8948
-1.44682 0.739269 -1.87302
-1.46901 0.884655 -0.594013
-1.40322 0.9416 0.685463
-1.27791 0.945866 1.96434
-1.29273 0.990582 2.98494
-1.32794 1.03946 4.00545
-1.43918 1.65613 -2.99041
-1.41026 1.75521 -1.96762
-1.41033 1.90025 -0.686457
-1.40249 1.9986 0.596145
-1.37215 2.03807 1.87724
-1.35771 2.06515 2.89988
-1.35792 2.102 3.92112
-0.855563 -0.257772 -2.79469
-0.837535 -0.1827 -1.77316
-0.794898 -0.163187 -0.50071
-0.761962 -0.157516 0.770351
-0.697432 -0.0739588 2.04277
-0.681121 -0.0292808 3.06402
-0.686079 0.00802209 4.08625
-0.859957 0.0471695 -2.82759
-0.658165 0.315103 3.03704
-0.674162 0.351935 4.05902
-0.78507 0.626834 -2.89563
-0.63678 0.987959 2.98507
-0.66424 1.03771 4.00548
-0.709907 1.63995 -2.99122
-0.679998 1.74036 -1.96852
-0.689231 1.89685 -0.686998
-0.704103 2.00184 0.59621
-0.694983 2.03799 1.8777
-0.684806 2.06298 2.90034
-0.682135 2.09977 3.92146
0.722044 -0.258368 -2.79469
0.793944 -0.183515 -1.77316
0.773783 -0.165435 -0.50071
0.72816 -0.157915 0.770351
0.650422 -0.0740415 2.04277
0.648232 -0.0294311 3.06402
0.657432 0.00778437 4.08625
0.701598 0.0468018 -2.82759
0.635648 0.315007 3.03704
0.651173 0.351733 4.05902
0.653983 0.626542 -2.89563
0.615788 0.987861 2.98507
0.644695 1.03751 4.00548
0.734721 1.63933 -2.99122
0.75553 1.73971 -1.96852
0.745275 1.89615 -0.686998
0.697022 2.00132 0.59621
0.655606 2.03764 1.8777
0.653171 2.06267 2.90034
0.664215 2.09944 3.92146
1.50188 -0.259221 -2.79512
1.56653 -0.186958 -1.77379
1.53995 -0.158105 -0.500626
1.46414 -0.148516 0.771193
1.362 -0.0849378 2.04424
1.33704 -0.0363561 3.06502
1.34303 0.00542688 4.08683
1.48607 0.0519844 -2.82773
1.57341 0.14165 -1.80566
1.54404 0.191103 -0.531204
1.46523 0.203241 0.742654
1.34014 0.260544 2.01698
1.31659 0.307741 3.03786
1.33106 0.349847 4.05945
1.42463 0.650487 -2.8948
1.45265 0.738348 -1.87302
1.48481 0.882517 -0.594013
1.41732 0.940687 0.685463
1.29193 0.94567 1.96434
1.29021 0.990283 2.98494
1.31936 1.03899 4.00545
1.46375 1.65483 -2.99041
1.47812 1.75384 -1.96762
1.46641 1.89882 -0.686457
1.4103 1.9975 0.596144
1.35263 2.03731 1.87724
1.34011 2.06448 2.89988
1.34916 2.1013 3.92112
-0.769576 0.415 -1.86244
-0.005032 0.145837 -1.80416
-0.815724 0.16802 -1.16833
-0.666639 0.61058 2.05009
-1.85072e-05 0.282629 2.01737
-0.71186 0.223371 1.37833
0.000287026 0.757184 -1.94718
-0.721607 0.816469 -1.235
0 0.967896 1.99674
-0.667377 0.975277 1.325
0.767723 0.415 -1.86533
0.8099 0.165451 -1.16833
0.665682 0.61058 2.04915
0.710906 0.222617 1.37833
0.722083 0.816467 -1.235
0.667404 0.975208 1.325
-0.786819 0.172668 0.105
-0.833887 0.526957 -0.563333
-0.00171865 0.179704 -0.531667
-0.833972 0.570632 0.713334
-0.00175681 0.216575 0.741667
-0.717947 0.919328 0.045
-0.000289835 1.1131 -0.595
2.17814e-05 1.33083 0.685
0.782275 0.172162 0.105
0.83305 0.524833 -0.563333
0.833993 0.570626 0.713334
0.718214 0.919308 0.045
-0.890501 0.470978 -1.20167
-0.841074 0.548795 0.075
-0.895873 0.590606 1.35167
-0.00337533 0.168648 -1.16833
-0.00173773 0.195667 0.105
-0.00088766 0.246622 1.37833
-0.00237249 0.415 -2.16822
-9.25362e-06 0.61058 2.17603
-1.40417e-06 0.917766 -1.235
-0.000134027 1.33108 0.045
1.08907e-05 1.17344 1.325
0.890513 0.469917 -1.20167
0.840211 0.54773 0.075
0.895873 0.590603 1.35167
-1.21925 0.144013 -1.80533
-0.844204 -0.01885 -1.78908
-0.855415 0.0960847 -2.3163
-0.983065 0.272856 2.01599
-0.667768 0.105521 2.02888
-0.648134 0.300052 2.52602
-1.04511 0.712135 -1.87401
-0.714233 0.655917 -2.38531
-0.661697 1.21268 -1.92176
-0.926454 0.941012 1.96467
-0.60589 0.962059 2.47504
-0.634992 1.48707 1.92135
0.817376 -0.0192573 -1.78908
0.771203 0.0959009 -2.3163
1.20711 0.143325 -1.80533
0.644244 0.105479 2.02888
0.636857 0.300003 2.52602
0.989102 0.272772 2.01599
0.648977 0.655771 -2.38531
0.699751 1.21236 -1.92176
1.04831 0.711674 -1.87401
0.595394 0.96201 2.47504
0.615303 1.4869 1.92135
0.933463 0.940914 1.96467
-1.16593 0.186583 -0.531435
-0.794015 0.00764876 -0.516188
-1.10723 0.196657 0.742161
-0.760115 0.0157874 0.756009
-1.09816 0.880042 -0.594506
-0.708269 1.38614 -0.640999
-1.05038 0.946887 0.685232
-0.700819 1.47701 0.640605
0.781739 0.0048822 -0.516188
1.16686 0.183151 -0.531435
0.741458 0.0156548 0.756009
1.10999 0.196233 0.742161
0.736001 1.38531 -0.640999
1.10577 0.878492 -0.594506
0.6973 1.47667 0.640605
1.05745 0.946357 0.685231
-1.60651 -0.221404 -2.28446
-1.60687 -0.102353 -2.81143
-1.23418 -0.257783 -2.79491
-1.57409 -0.1699 -1.13721
-1.59392 -0.0209938 -1.78972
-1.21888 -0.183856 -1.77347
-1.51161 -0.151034 0.135284
-1.54335 0.0199478 -0.515915
-1.17143 -0.158987 -0.500668
-1.4268 -0.115929 1.40772
-1.46573 0.0284715 0.756924
-1.11862 -0.152398 0.770772
-1.36669 -0.0602629 2.55463
-1.35318 0.088067 2.03061
-1.03788 -0.0792679 2.0435
-1.35877 -0.0149907 3.57593
-1.33833 0.136045 3.05144
-1.01808 -0.0326148 3.06452
-1.35312 0.178143 4.07314
-1.02428 0.00699469 4.08654
-1.59428 0.0980569 -2.31669
-1.55576 0.352244 -2.86127
-1.23045 0.0501291 -2.82766
-1.56318 0.168854 -1.16843
-1.51722 0.441147 -1.83934
-1.49746 0.199453 0.105725
-1.50387 0.539669 -0.562608
-1.39211 0.232467 1.37982
-1.42971 0.572912 0.714059
-1.32482 0.284375 2.52742
-1.30297 0.603288 1.99066
-1.33269 0.329179 3.54866
-1.30718 0.64931 3.0114
-0.989894 0.311571 3.03745
-1.33585 0.694889 4.03245
-1.00896 0.351127 4.05923
-1.4787 0.695334 -2.38391
-1.47488 1.15377 -2.94261
-1.14782 0.639117 -2.89522
-1.45792 0.811962 -1.23351
-1.42854 1.24724 -1.92032
-1.43612 0.913127 0.0457251
-1.43967 1.39245 -0.640235
-1.34056 0.943733 1.3249
-1.40286 1.4701 0.640804
-1.28532 0.968224 2.47464
-1.32503 1.49197 1.92079
-1.31034 1.01502 3.4952
-1.32522 1.52787 2.94241
-0.964755 0.98927 2.98501
-1.34293 1.57073 3.96329
-0.996092 1.03859 4.00547
-1.42472 1.70567 -2.47902
-1.07455 1.64804 -2.99082
-1.4103 1.82773 -1.32704
-1.04513 1.74779 -1.96807
-1.40641 1.94943 -0.045156
-1.04978 1.89855 -0.686727
-1.38732 2.01833 1.23669
-1.0533 2.00022 0.596177
-1.36493 2.05161 2.38856
-1.03357 2.03803 1.87747
-1.35781 2.08357 3.4105
-1.02126 2.06407 2.90011
-1.02003 2.10088 3.92129
-0.846549 -0.220236 -2.28393
-0.85776 -0.105301 -2.81114
-0.0667592 -0.25807 -2.79469
-0.816216 -0.172943 -1.13693
-0.0217954 -0.183107 -1.77316
-0.77843 -0.160351 0.13482
-0.0105573 -0.164311 -0.50071
-0.729697 -0.115737 1.40656
-0.016901 -0.157715 0.770351
-0.689277 -0.0516198 2.5534
-0.0235051 -0.0740002 2.04277
-0.6836 -0.0106294 3.57514
-0.669643 0.142911 3.05053
-0.0164447 -0.029356 3.06402
-0.680121 0.179978 4.07263
-0.0143233 0.00790323 4.08625
-0.822514 0.337002 -2.86161
-0.0791795 0.0469856 -2.82759
-0.666164 0.333519 3.54803
-0.647473 0.651531 3.01105
-0.0112587 0.315055 3.03704
-0.669201 0.694824 4.03225
-0.0114948 0.351834 4.05902
-0.747488 1.13339 -2.94343
-0.0655433 0.626688 -2.89563
-0.65051 1.01284 3.49528
-0.660793 1.52547 2.94271
-0.0104963 0.98791 2.98507
-0.673188 1.56874 3.96347
-0.00977226 1.03761 4.00548
-0.694952 1.69016 -2.47987
0.012407 1.63964 -2.99122
-0.684614 1.81861 -1.32776
0.0377661 1.74004 -1.96852
-0.696667 1.94935 -0.0453943
0.0280218 1.8965 -0.686998
-0.699543 2.01991 1.23696
-0.00354073 2.00158 0.59621
-0.689895 2.05048 2.38902
-0.0196888 2.03781 1.8777
-0.683471 2.08137 3.4109
-0.0158175 2.06282 2.90034
-0.00896011 2.09961 3.92146
0.757994 -0.220941 -2.28393
0.711821 -0.105783 -2.81114
1.11196 -0.258795 -2.79491
0.783864 -0.174475 -1.13693
1.18024 -0.185236 -1.77347
0.750971 -0.161675 0.13482
1.15687 -0.16177 -0.500668
0.689291 -0.115978 1.40656
1.09615 -0.153215 0.770772
0.649327 -0.0517363 2.5534
1.00621 -0.0794897 2.0435
0.652832 -0.0108234 3.57514
0.64194 0.142788 3.05053
0.992638 -0.0328936 3.06452
0.654302 0.179759 4.07263
1.00023 0.00660562 4.08654
0.677791 0.336672 -2.86161
1.09383 0.0493931 -2.82766
0.64341 0.33337 3.54803
0.625718 0.651434 3.01105
0.976117 0.311374 3.03745
0.647934 0.694623 4.03225
0.991117 0.35079 4.05923
0.694352 1.13294 -2.94343
1.0393 0.638514 -2.89522
0.630242 1.01269 3.49528
0.63448 1.52527 2.94271
0.953001 0.989072 2.98501
0.654455 1.56848 3.96347
0.982026 1.03825 4.00547
0.745125 1.68952 -2.47987
1.09923 1.64708 -2.99082
0.750402 1.81793 -1.32776
1.11683 1.74678 -1.96807
0.721148 1.94873 -0.0453943
1.10584 1.89749 -0.686728
0.676314 2.01948 1.23696
1.05366 1.99941 0.596177
0.654388 2.05016 2.38902
1.00412 2.03748 1.87747
0.658693 2.08106 3.4109
0.996638 2.06357 2.90011
1.00669 2.10037 3.92129
1.53421 -0.22309 -2.28446
1.49397 -0.103618 -2.81143
1.55324 -0.172531 -1.13721
1.56997 -0.022654 -1.78972
1.50205 -0.15331 0.135284
1.54199 0.0164992 -0.515915
1.41307 -0.116727 1.40772
1.46469 0.0273624 0.756924
1.34952 -0.060647 2.55463
1.35107 0.0878033 2.03061
1.34004 -0.0154646 3.57593
1.32682 0.135692 3.05144
1.33705 0.177637 4.07314
1.52974 0.0968171 -2.31669
1.45535 0.351236 -2.86127
1.55872 0.166376 -1.16843
1.51303 0.439999 -1.83934
1.50463 0.197172 0.105725
1.51442 0.53681 -0.562608
1.40268 0.231892 1.37982
1.44128 0.571964 0.714058
1.32836 0.284143 2.52742
1.31603 0.603107 1.99066
1.32382 0.328794 3.54866
1.3034 0.649012 3.0114
1.32521 0.694421 4.03245
1.43864 0.694418 -2.38391
1.44419 1.15266 -2.94261
1.46873 0.810433 -1.23351
[...]
POINT_DATA 29498
VECTORS point_vectors float
-5.60125 -7.03921 20.6363
0.203136 0.245939 0.902937
-1.9 2.26046 3.49978
-0.11407 -0.120397 0.139642
4.64038 -6.13442 18.3449
-0.205147 0.244724 0.913635
1.69489 2.16312 3.33164
0.112787 -0.117361 0.13488
0.0468484 -0.0354378 1.41703
0.0242029 0.00141681 0.123654
0 0 0
0 0 0
-0.0492511 -0.0488857 1.40436
-0.0167041 0.00102371 0.0852298
2.92293e-17 -1.41536e-17 2.66081e-16
0 0 0
-0.645005 -0.360072 19.9639
-1.03836 -0.638945 20.7243
-0.283614 -0.333551 21.2898
0.183923 -0.109626 21.433
0.783445 0.265013 21.3378
1.07341 0.398902 20.9183
0.856998 0.262645 20.5918
-0.798216 -0.264953 19.8662
-1.47609 -0.565985 20.6627
-0.454058 -0.480378 21.3487
0.138171 -0.30542 21.5389
1.11354 0.0100478 21.3541
1.31765 0.114124 20.9199
1.02328 0.083847 20.6275
-0.864163 0.0671703 19.663
-2.15493 0.222101 20.3402
-1.21599 -0.341452 21.3597
-0.342791 -0.401737 21.6824
0.607121 -0.741853 21.2413
0.971188 -0.794177 21.0541
0.680044 -0.606086 20.5671
-0.483455 0.363491 19.8952
-0.862176 0.669116 20.2532
-0.878349 0.545764 20.9573
-0.376693 0.0863604 21.3554
0.016563 -0.265695 21.2531
0.188184 -0.398359 21.0526
0.153647 -0.416229 20.8225
-0.782898 -0.870828 19.3963
-1.47894 -2.50953 21.4724
-0.152573 -0.192148 21.3919
0.278347 0.249298 20.5814
0.499952 1.21636 19.1594
0.777762 1.55548 18.8609
0.564388 1.27032 19.6418
-1.01397 -0.714704 18.9716
1.53347 1.43162 9.98614
1.98179 1.11289 12.6122
-1.058 0.167378 18.5702
0.573313 -0.804278 6.93787
0.989394 -0.87717 11.2863
-0.393226 0.640323 19.5542
-0.803924 1.51739 19.9709
-1.00226 1.50534 20.965
-0.40197 0.394777 21.7302
-0.0269476 -0.291959 21.353
0.0873992 -0.513307 21.064
0.100135 -0.46296 21.1785
0.725605 -0.983531 19.2759
1.39333 -2.66716 21.5699
0.145688 -0.184611 21.329
-0.260119 0.264352 20.5921
-0.379939 1.18192 18.6163
-0.707584 1.54754 18.7019
-0.5357 1.32902 19.5539
0.974585 -0.856625 18.7109
-1.45378 1.39553 9.50075
-1.97477 1.17074 12.3938
1.01635 0.208553 18.3051
-0.516254 -0.768955 6.11229
-0.978118 -0.859672 10.7344
0.400779 0.630671 19.566
0.848427 1.41095 19.9954
1.01942 1.41279 20.9739
0.399909 0.399922 21.7325
0.0318549 -0.285266 21.3514
-0.0832877 -0.507166 21.048
-0.107089 -0.462403 21.2129
0.682185 -0.410766 19.9007
1.06142 -0.674433 20.7234
0.28402 -0.337254 21.2855
-0.184325 -0.111932 21.435
-0.790102 0.272422 21.3429
-1.08435 0.41374 20.9068
-0.861876 0.28054 20.6497
0.868377 -0.305126 19.7623
1.5007 -0.580359 20.6665
0.453648 -0.475276 21.3409
-0.132463 -0.303727 21.5321
-1.08706 0.000225051 21.3533
-1.32124 0.105295 20.9203
-1.03847 0.0758068 20.6221
0.904791 0.0920095 19.5761
2.13468 0.213228 20.3423
1.18153 -0.32857 21.3506
0.338895 -0.397281 21.666
-0.590865 -0.727453 21.2815
-0.971113 -0.791206 21.031
-0.690122 -0.614973 20.546
0.481372 0.352894 19.9027
0.844433 0.612353 20.2689
0.846682 0.49179 20.9524
0.374487 0.0852627 21.3495
-0.0122043 -0.270394 21.2507
-0.186773 -0.400733 21.0427
-0.14628 -0.408117 20.8324
0 0 0
-0.00425374 -0.0101069 0.556575
-0.0228595 0.0227267 0.840591
-0.00461686 -0.0977635 0.0648549
-8.44494e-05 0.0050982 0.0205226
-0.0261293 0.0157145 0.56939
0.000348222 0.181793 0.439483
-0.183703 -0.0388584 0.473892
-0.00147972 0.0238885 -0.0772525
0 0 0
0 0 0
0.0154291 0.0143534 0.677396
0.00697251 -0.100826 0.0630999
0.0299177 0.0246072 0.62252
0.183929 -0.0387353 0.474689
0 0 0
0.0289864 -0.00769813 1.32853
-2.72006e-05 0.000313517 0.00552395
0 0 0
0 0 0
0 0 0
0 0 0
-2.55759e-05 0.0504763 0.098436
-2.27462e-05 -0.000707856 0.0149645
-0.0427679 0.00235948 1.33069
1.82827e-05 0.00019987 0.00367447
0 0 0
0 0 0
-0.00020373 -0.00264882 0.0802436
0.000156228 0.00698292 0.0328503
0.0637991 0.0555307 0.47649
0 0 0
0 0 0
0 0 0
-0.0366148 -0.154266 0.126642
-0.0166007 -0.0884832 0.0211134
-7.33726e-05 0.00434104 0.045098
-7.09675e-05 0.0158354 0.129463
-2.1394e-05 0.0035403 -0.00696379
0.000172787 -0.00276435 0.0884453
-0.000158416 0.00661487 0.031843
-0.063752 0.0555765 0.47626
-2.65751 -1.44645 20.9044
-2.27816 -3.78778 21.9313
-2.57356 -2.09701 18.3913
1.44754 0.927067 15.3981
0.122211 1.30954 12.1185
0.734165 0.880843 6.58018
-4.6896 1.34601 19.8187
-3.05053 1.13949 16.7212
-1.95873 2.93441 19.591
0.815365 -0.534813 14.7606
-0.456615 -0.544738 3.28231
0.0524031 -0.580729 19.3603
2.17428 -3.9586 22.0752
2.66281 -2.50014 17.9643
2.70178 -1.50703 20.9171
-0.0622754 1.25006 11.8163
-0.679396 0.822629 6.3289
-1.45229 0.894095 15.6219
3.08642 1.38299 16.2238
2.00305 2.80337 19.6289
4.65163 1.3125 19.8346
0.515584 -0.519256 2.87188
-0.0599637 -0.57312 19.2461
-0.824942 -0.531182 15.0778
-0.132425 -0.745349 21.217
0.0734545 0.120648 16.6409
0.259516 -0.248898 19.2572
0.620395 0.199866 15.4697
-2.14377 -0.908947 21.125
-2.76473 2.25232 20.9291
-0.344503 -0.320935 19.4006
-0.826669 0.239641 21.9926
-0.0661518 0.104893 16.6808
0.142473 -0.741471 21.2449
-0.619088 0.229082 15.2264
-0.248879 -0.25851 19.3214
2.75346 2.08224 20.9717
2.09708 -0.893792 21.167
0.824532 0.243173 21.9873
0.380579 -0.369969 19.6726
-0.950315 -0.535856 20.2172
-0.750924 -0.314887 19.9028
-0.762466 -0.554608 19.7421
-0.644402 -0.492602 21.1886
-1.26572 -0.629383 20.7073
-1.44183 -1.30823 20.9546
-0.0473541 -0.230014 21.3839
-0.371354 -0.422198 21.3121
-0.135006 -0.391942 21.4938
0.467229 0.0701278 21.4888
0.167782 -0.214626 21.4757
0.312207 -0.0212803 21.5564
0.92311 0.317862 21.1581
0.930301 0.180701 21.395
0.969926 0.785227 20.8804
0.972085 0.421502 21.0749
1.21728 0.265897 20.9496
1.26265 0.844955 20.811
0.917305 0.186459 20.6571
0.836342 0.510829 21.5399
-1.22597 -0.445709 20.0623
-0.866849 -0.130298 19.7265
-0.956504 -0.434937 19.4952
-0.960654 -0.531378 21.2746
-1.88173 -0.304214 20.5475
-0.136768 -0.403226 21.444
-0.793972 -0.533299 21.3837
0.563101 -0.158337 21.6411
-0.0717879 -0.453658 21.622
1.24871 0.0340696 21.1862
1.07775 -0.496891 21.2602
1.34269 -0.0734751 20.7148
1.27879 -0.507886 20.876
1.95307 0.66658 17.676
1.02381 -0.431711 20.2878
1.449 0.101743 20.1994
-1.51653 0.143403 19.735
-0.690103 0.300451 19.7471
-1.05452 0.100266 19.2156
-1.68349 -0.112516 21.2056
-1.44694 0.700024 20.2433
-0.80955 -0.42964 21.5871
-1.26171 0.287059 21.1655
0.17537 -0.511563 21.7028
-0.457184 -0.10687 21.5899
0.744567 -0.781825 21.3655
0.153775 -0.48687 21.3654
0.940835 -0.75165 20.6545
0.380572 -0.614797 21.1104
1.12452 -0.876747 18.1009
0.432499 -0.58278 20.7456
1.11122 -1.07798 19.3814
-0.680559 0.525551 20.0025
-0.488795 0.491297 19.7222
-0.925438 0.655515 20.6412
-0.930568 1.0544 20.1068
-0.696315 0.338219 21.2825
-1.01677 0.926744 21.0053
-0.144044 -0.13097 21.3739
-0.432391 0.228502 21.5292
0.11232 -0.355633 21.1471
-0.0155548 -0.302406 21.2896
0.154125 -0.361354 20.8904
0.12988 -0.480645 21.0429
0.0619481 -0.395978 21.0302
-1.43057 -1.91271 19.6306
-0.924359 -0.839649 19.1832
-0.091276 -1.40824 18.8884
-0.523599 -0.772767 22.0951
-0.012556 -2.99817 22.3647
0.0577915 0.0197003 20.8359
-0.000244954 -0.174018 20.5729
0.401032 0.691445 19.7836
0.00521909 0.370478 19.6037
0.669908 1.38431 19.0321
-0.000558417 0.878097 17.4048
1.00718 1.53009 18.7812
1.16741 1.71289 15.2963
-0.0060839 1.27256 17.3469
1.27793 1.19317 16.0931
0.021683 1.91431 17.4291
-1.12168 -0.347457 18.6289
-0.156434 -1.22796 18.0047
2.02006 1.42837 11.6767
1.60694 0.0913406 6.1222
0.0106686 -0.0156997 2.53159
1.98361 0.418277 11.4056
0.0262399 1.4173 6.44186
-0.707237 0.652611 19.067
-0.108351 0.284773 17.5105
1.06463 -0.888137 9.71529
0.254478 -0.896305 19.7472
0.0590209 1.29196 -5.71339
0.159608 -0.926683 20.0716
0.0085048 -0.145621 -3.13819
-0.611219 1.10606 19.6034
0.00949063 0.793143 19.3764
-0.926251 1.55371 20.4885
0.0628113 1.98885 19.8113
-0.829524 1.11114 21.5804
0.0590975 2.25481 20.8535
-0.14276 -0.069993 21.5953
-0.00381375 0.660836 21.9165
0.0251879 -0.415308 21.2401
-0.0052839 -0.237157 21.3289
0.0926731 -0.55549 21.037
-0.0011714 -0.498836 20.96
-0.00140817 -0.444941 21.0188
1.39202 -2.17172 19.5458
0.864885 -0.968213 18.9999
0.790028 -0.655897 19.6365
0.504093 -0.774579 22.1037
1.46253 -1.40681 20.9786
-0.0507176 0.0358974 20.8344
0.127868 -0.389229 21.4954
-0.363479 0.698185 19.6168
-0.322224 -0.0067758 21.5379
-0.579888 1.35606 18.7195
-0.954286 0.833664 20.8347
-0.980591 1.57332 18.605
-1.09272 1.69021 14.9713
-1.25351 0.851249 20.815
-1.25524 1.24988 15.9738
-0.841979 0.564906 21.3259
1.08396 -0.387667 18.3165
1.00916 -0.558571 19.3383
-1.98985 1.4605 11.4938
-1.50535 0.143008 5.4487
-1.93076 0.719015 17.3637
-1.97137 0.432597 10.8184
-1.46295 0.138939 19.7995
0.687483 0.68658 19.0166
1.07089 0.121515 19.0396
-1.04996 -0.871895 9.06935
-0.262499 -0.873496 19.5372
-1.1409 -0.859515 17.8282
-0.159956 -0.932479 20.0323
-1.11683 -1.0475 19.1155
0.642715 1.06424 19.6358
0.492523 0.480829 19.7328
0.973551 1.46188 20.5046
0.929793 0.975933 20.1332
0.840788 1.0756 21.5718
1.00371 0.845168 21.0024
0.143318 -0.0628755 21.6016
0.431643 0.228669 21.5291
-0.019847 -0.408411 21.2448
0.0168889 -0.3016 21.2964
-0.0922292 -0.563427 21.0326
-0.128228 -0.481952 21.0505
-0.0612377 -0.400673 20.9955
0.998964 -0.592593 20.1822
0.784379 -0.366286 19.8454
0.650764 -0.503381 21.1956
1.29279 -0.658496 20.7145
0.0422763 -0.23377 21.3837
0.373123 -0.424097 21.3064
-0.47028 0.0644862 21.4878
-0.163431 -0.218983 21.4713
-0.933506 0.331743 21.1533
-0.928105 0.173366 21.3932
-0.996888 0.440264 21.0518
-1.22365 0.272496 20.942
-0.917871 0.196724 20.7052
1.33707 -0.477861 20.017
0.919999 -0.164146 19.6264
0.963999 -0.536377 21.2766
1.89901 -0.31377 20.5434
0.142782 -0.402848 21.437
0.788546 -0.518658 21.3723
-0.551074 -0.15941 21.6331
0.0754691 -0.445293 21.6205
-1.23545 0.0298687 21.1853
-1.04084 -0.48451 21.2887
-1.35379 -0.0601437 20.6466
-1.27763 -0.507561 20.8733
-1.03553 -0.43626 20.2819
1.58026 0.172112 19.6778
0.699474 0.312814 19.7275
1.65678 -0.113 21.1915
1.40205 0.649103 20.2543
0.788504 -0.414026 21.5699
1.2118 0.252685 21.1501
-0.173795 -0.50052 21.6944
0.45312 -0.105827 21.5792
-0.739826 -0.76855 21.3323
-0.152653 -0.484847 21.3626
-0.941624 -0.752883 20.6486
-0.378198 -0.618439 21.1192
-0.429684 -0.58448 20.7491
0.669055 0.494698 20.0187
0.896256 0.592266 20.6462
0.68595 0.321367 21.2765
0.144278 -0.13035 21.3757
-0.110539 -0.357029 21.148
-0.157412 -0.36916 20.8974
-1.12584 -0.514382 20.1377
-1.9763 -2.18295 19.0507
-1.27205 -1.03835 19.9929
-1.86931 -0.908142 19.5762
-0.869499 -0.4996 19.6082
-1.96611 -1.45112 20.9498
-0.806515 -0.539349 21.2175
-0.380222 -0.30381 19.781
-0.622507 -0.745231 21.5573
-0.929628 -1.02213 22.0027
-0.082854 -0.526013 21.5705
-0.0972086 -0.334923 21.4142
0.304981 0.153689 16.0074
0.105952 -0.206234 21.507
0.165098 -0.449223 20.2168
0.391459 -0.142804 20.9525
0.532205 -0.0293138 21.581
0.389427 0.671519 13.5292
0.625699 0.362151 21.4503
0.713856 0.292259 17.4983
1.27151 0.904365 19.3124
1.12081 0.197708 21.1567
0.57562 1.47743 13.3151
1.13473 0.830439 20.8492
1.68273 0.75462 16.5782
1.63603 0.810874 19.4975
1.2191 0.1137 20.7724
1.50549 1.4927 15.3121
1.35839 1.01781 20.8866
1.8249 0.617336 18.3637
1.14113 0.304966 20.891
-1.45172 -0.201551 19.8931
-3.47578 -0.85808 16.8157
-2.32609 0.463593 18.8428
-1.06563 -0.200878 19.2919
-4.54596 -0.66169 20.4801
-1.31779 -0.445353 21.3048
-2.7643 -0.333821 21.7982
-0.584336 -1.17391 20.0456
-0.415117 -0.534171 21.567
-1.32347 -0.848288 20.596
0.0950937 -0.073973 17.1376
0.46689 -0.421405 21.6348
0.566589 -0.0767648 17.474
1.42089 -0.0578488 12.3807
1.19681 -0.49303 20.9983
0.438565 -0.343795 2.82343
0.836929 -0.770886 16.6081
1.81628 -0.294142 16.3907
1.17689 -0.434301 20.8819
2.24209 0.275768 9.33641
1.18195 -1.03597 19.1247
1.50686 -0.436412 18.8541
-1.09401 0.519873 19.8407
-1.36834 1.66092 18.7703
-0.729723 0.790686 19.7988
-0.749549 0.441308 19.4645
-1.92642 1.5058 19.9733
-1.43133 0.526111 20.8113
-2.06809 2.20114 20.5926
-1.03091 1.05643 20.5826
-1.96814 0.771567 21.2055
-0.932504 0.0820085 21.4717
-2.32461 1.31865 22.4078
-0.815492 0.625451 21.4302
-0.662133 -0.00549817 21.9028
-0.0802234 -0.300713 21.5217
-0.0733035 -0.403556 20.7113
-0.165744 -0.104424 21.4925
0.0470184 -0.618969 21.3963
0.276763 -0.56653 21.2308
0.110452 -0.678707 19.3479
0.0668404 -0.41062 21.1937
0.265704 -0.799007 21.2017
0.390082 -0.618273 20.9318
0.292683 -0.98221 19.7609
0.216328 -0.525272 21.0459
0.232741 -0.790038 20.9924
1.95631 -2.49037 18.883
-0.107392 -3.56339 19.3467
-0.239873 -6.214 15.578
-0.109401 -1.42832 18.4255
0.00170757 -3.21454 22.3945
0.389268 -0.311927 19.6372
-0.00200847 -0.758393 22.0122
-0.0074212 0.0777436 12.6868
-0.298984 0.192674 15.8124
0.00234424 0.0468649 19.8618
0.00870761 0.459165 12.0031
-0.360082 0.66961 13.2928
0.00601442 0.609596 18.5407
-0.0169169 0.637001 9.59549
-0.469958 1.44912 12.8929
-0.00208025 1.04068 17.1945
-0.0385399 -0.28548 1.86007
-0.0149089 0.621359 9.86183
-1.47779 1.53014 15.1345
0.0199547 1.79172 17.7097
-0.000322546 0.859157 4.98975
0.019185 1.66713 11.8921
3.53658 -0.966903 16.2241
-0.234937 2.88811 13.3502
-0.138099 -0.558597 17.3684
-0.349041 -0.338223 2.58697
-0.0122736 0.815011 -4.32696
0.0932984 0.120614 -3.56795
-2.19159 0.342647 8.82321
0.0866419 0.566586 -5.10197
0.0835869 0.806144 0.480886
1.36633 1.67645 18.7576
0.0289572 1.44215 19.3934
-0.0327103 0.922072 18.6065
0.0772718 4.06557 19.3152
2.09958 2.08379 20.6262
0.0520122 2.11896 20.3318
0.0700981 4.59184 20.1373
2.286 1.26712 22.4019
0.0261982 1.80378 21.7689
-0.00274969 0.63661 20.5147
0.0332292 -0.388885 20.4429
-0.00689025 0.026931 21.7141
-0.00836931 -0.264938 14.1804
-0.107108 -0.661138 19.2447
-0.00198433 -0.355725 21.3266
-0.0183451 -0.577665 16.2868
-0.284563 -0.983445 19.6814
0.00349607 -0.512698 21.1745
-0.0139639 -0.597264 16.7268
1.17005 -0.569017 20.1112
1.31677 -1.19407 19.9291
2.0442 -1.11293 19.4206
0.9181 -0.617134 19.4653
2.01722 -1.55425 20.9782
0.814486 -0.551772 21.2248
0.600418 -0.753587 21.5811
0.928343 -1.0309 22.0083
0.0797843 -0.524389 21.558
0.096106 -0.33667 21.4156
-0.11164 -0.194736 21.5122
-0.163545 -0.453413 20.2581
-0.390091 -0.140225 20.8799
-0.527774 -0.035436 21.5746
-0.628311 0.395207 21.415
-0.711544 0.271905 17.6209
-1.25464 0.933324 19.1493
-1.11885 0.202997 21.1541
-1.12166 0.884252 20.8141
-1.66195 0.76036 16.4354
-1.61524 0.888344 19.0777
-1.23028 0.136503 20.758
-1.33701 1.04209 20.7857
-1.82833 0.657164 18.0673
-1.17211 0.358514 20.4267
1.53831 -0.226745 19.8117
2.44633 0.516988 18.6479
1.12502 -0.244098 19.0847
4.57911 -0.667687 20.4773
1.31387 -0.442586 21.2977
2.73462 -0.326486 21.8153
0.5943 -1.15457 20.2301
0.414196 -0.524046 21.5477
1.31873 -0.837172 20.7028
-0.0861751 -0.10157 17.3324
-0.453768 -0.415214 21.6343
-0.539684 -0.140774 17.8453
-1.43397 -0.0481908 12.6952
-1.1783 -0.492198 21.0283
-0.830371 -0.757005 16.5444
-1.81921 -0.286949 16.0463
-1.1875 -0.426537 20.8229
-1.20943 -1.02368 18.8481
-1.52259 -0.432681 18.5563
1.09146 0.5161 19.843
0.737217 0.752618 19.8212
0.755752 0.470873 19.425
1.89567 1.38349 20.0089
1.3822 0.480788 20.8066
1.01999 0.977501 20.5978
1.89376 0.699933 21.2123
0.905627 0.0696602 21.4547
0.803416 0.593834 21.4127
0.657963 -0.00393131 21.8964
0.0797756 -0.297996 21.5193
0.166216 -0.102528 21.4968
-0.0438337 -0.620678 21.3952
-0.27793 -0.566406 21.229
-0.0648564 -0.410198 21.1995
-0.256517 -0.802006 21.1663
-0.390164 -0.6243 20.9371
-0.216908 -0.520748 21.049
-0.22495 -0.78472 20.9455
-1.55855 -1.00289 19.8295
-0.704752 -0.850568 21.7353
0.194051 -0.316746 21.3048
0.79933 0.328345 20.3441
1.42886 0.860203 19.3528
1.5947 0.837041 19.6493
-2.38081 -0.404181 19.061
-1.63429 -0.994537 22.0996
-0.11649 -0.789331 18.3865
0.69284 0.416552 15.8967
1.55715 -0.218181 14.6696
1.88121 -0.227278 17.2005
-1.34505 0.947822 19.4176
-1.94675 1.13832 20.8095
-1.47348 0.368522 21.8063
-0.144776 -0.366454 21.7231
0.146805 -0.716189 21.2906
0.408313 -0.903283 21.1402
-0.14122 -4.82472 18.2755
-0.00873509 -0.147097 15.533
2.704e-05 0.154376 11.9792
0.00015318 0.444142 10.6429
-0.0292177 0.599189 9.62745
-0.000604257 1.36128 11.4688
-0.313919 -1.6645 11.8545
0.00288798 -0.0506969 -3.00301
0.0800605 0.33225 -2.59607
-0.0110774 2.5172 18.0862
0.0546108 3.39816 20.1913
0.0245394 3.41381 22.5908
-0.0061378 -0.265772 17.2836
-0.0189764 -0.298871 15.3332
-0.0106655 -0.881201 16.7308
1.67536 -1.20243 19.7061
0.691307 -0.866354 21.7552
-0.205468 -0.304707 21.2277
-0.792661 0.341905 20.1714
-1.40571 0.920646 19.091
-1.60786 0.883377 19.2377
2.62234 -0.458443 18.7874
1.63549 -0.986667 22.0937
0.124071 -0.799482 18.5736
-0.696199 0.373896 16.2183
-1.54026 -0.216507 14.5345
-1.90676 -0.227159 16.8887
1.34769 0.951183 19.4135
1.90415 1.0519 20.8174
1.43624 0.3504 21.782
0.144466 -0.363131 21.7249
-0.144484 -0.718043 21.2869
-0.410676 -0.904693 21.058
-0.498059 -0.228507 0.667642
-0.048791 -0.0363682 0.758579
-0.0432434 0.00740836 0.971393
0.0834902 -0.0179356 0.138112
-0.0117791 0.0256668 0.196353
-0.0900647 0.196879 0.789764
-1.07365 0.551399 1.52566
-0.0283772 0.171254 0.43644
-0.0592508 0.0360091 0.259656
-0.0242638 -0.0474964 0.00862219
-0.0229528 0.00847843 -0.031455
-0.0330647 -0.0229278 0.07172
0.0639308 -0.038922 0.877342
0.575489 -0.276764 0.781018
0.0257285 0.00715131 0.622617
0.00894582 0.023642 0.17961
-0.0817893 -0.0196011 0.134924
0.0810629 0.18667 0.765161
0.0289984 0.170871 0.435929
1.22 0.59369 1.70618
0.0590394 0.0358128 0.258888
0.0212857 0.0090299 -0.0324501
0.0254533 -0.0480664 0.00789219
0.0317683 -0.02252 0.069897
0.0328888 0.0856091 1.25115
0.0438982 -0.0477985 1.09566
0 0 0
0 0 0
0.00101076 0.00590688 0.136698
0.0224299 0.0250741 0.779633
0 0 0
0 0 0
-0.0431661 -0.0389892 0.0955395
-0.0064203 -0.00304534 0.127987
0 0 0
-0.045282 0.0396772 0.102237
0 0 0
0.00308004 0.0115745 0.0289805
0 0 0
0.017626 -0.00316252 0.134281
-0.0234649 0.0888673 1.26355
0 0 0
-0.0326241 -0.0126509 0.726196
0 0 0
-0.000505928 0.00826111 0.188616
0 0 0
-0.000677789 0.000610432 0.0171326
0 0 0
0.0555904 -0.0484561 0.118592
0.0444521 0.0393162 0.100974
0.00615153 -0.00311414 0.120072
0 0 0
0 0 0
-0.0173893 -0.00305939 0.13288
-0.00299935 0.0113067 0.0283751
0 0 0
0 0 0
-1.50626 -0.684681 0.987553
0 0 0
0 0 0
-0.000697622 0.00164824 0.0934005
-0.000223765 4.49364e-05 0.00368331
0.00184893 -0.0043095 0.0129736
-0.0788595 -0.028613 0.0102434
-3.79197e-05 0.000363807 0.00715774
-4.26775e-05 -0.00114308 -0.000247517
0.00364844 0.0123262 0.120936
0 0 0
0.00308097 1.30504 0.769158
-3.8739e-05 0.109723 0.391703
-0.00888206 -0.0497166 0.41149
0 0 0
0 0 0
0 0 0
0 0 0
-0.00216556 -0.000490411 0.00105509
1.49406 -0.653042 0.966723
0 0 0
0.000287896 6.27748e-05 0.00522313
0.00169113 0.00264413 0.113873
0.0822961 -0.0301784 0.00975902
-0.00169796 -0.00391195 0.0118391
4.44253e-18 5.2665e-18 1.59461e-16
-0.00374714 0.0128032 0.12558
0.000714581 0.000455206 0.00334754
0.0077794 -0.0446914 0.375075
0.00227638 -0.00055774 0.00112357
0 0 0
0 0 0
0 0 0
0 0 0
-0.000229023 0.00370472 0.0221269
0 0 0
0 0 0
0.000413705 0.00779634 0.0313506
-0.00781671 0.0203329 0.15747
0 0 0
0 0 0
0.00151494 0.0102297 0.0495778
-0.0463232 0.0494294 0.664279
-0.000248889 -0.00019677 0.00445928
-0.000236111 0.174971 0.424872
2.7051e-05 0.000307386 0.0187268
-0.000212745 -0.00492685 0.0251046
0 0 0
0 0 0
-8.3694e-05 -0.000367662 0.00140346
0.00020334 0.00353282 0.0218064
-0.000229647 0.00667653 0.027022
0.00784262 0.0202593 0.157746
0.0457056 0.0495123 0.658725
-0.0014846 0.0101723 0.0498895
-0.0178546 -0.0137194 0.374137
0 0 0
0 0 0
-0.0219336 -0.0564381 0.163929
0.000852657 0.00231787 0.0382607
-0.000867541 0.0136731 0.116106
0 0 0
0.00070129 0.00170076 0.00640094
-0.00265509 0.00421702 0.133402
0 0 0
0 0 0
0 0 0
-0.000615758 -2.30833e-05 0.00473816
0.000656347 -3.01424e-05 0.00494122
-8.50109e-05 7.63061e-05 0.0051431
7.29121e-05 8.89828e-05 0.00600025
0 0 0
0 0 0
0 0 0
-0.00070384 -0.000275386 0.0152323
0 0 0
0 0 0
0 0 0
0 0 0
-1.86782 -3.83788 2.27176
1.97243 -2.48817 1.97025
-1.88602 2.12853 1.70587
1.73639 1.96842 1.60076
-0.0386184 -0.0309211 -0.00296885
0.0376743 -0.0315929 -0.00354694
-0.0746723 -0.0118259 0.00142668
0.0761453 -0.0121792 0.00111579
-0.00349178 0.00437876 0.0238445