# vtk DataFile Version 2.0
tri_press
ASCII
DATASET UNSTRUCTURED_GRID
POINTS 3682 float
-0.850872 0.145 -1.805
-0.638103 0.285 2.015
-0.643397 0.685 -1.875
-0.575 0.936159 1.965
0.840808 0.145 -1.805
0.638066 0.285 2.015
0.643971 0.685 -1.875
0.575 0.936159 1.965
-0.793131 0.178484 -0.531667
-0.758269 0.18909 0.741667
-0.727307 0.875429 -0.595
-0.697534 0.952175 0.685
0.789694 0.1752 -0.531667
0.754755 0.189225 0.741667
0.726728 0.874467 -0.595
0.697578 0.952027 0.685
-1.6128 -0.257794 -2.79512
-1.60023 -0.185013 -1.77379
-1.54796 -0.154786 -0.500626
-1.47527 -0.147281 0.771193
-1.37833 -0.084577 2.04424
-1.35505 -0.0359487 3.06502
-1.36249 0.00596728 4.08683
-1.60093 0.0530888 -2.82773
-1.58762 0.143025 -1.80566
-1.53873 0.194682 -0.531204
-1.45619 0.204224 0.742654
-1.32803 0.260711 2.01698
-1.32162 0.308039 3.03786
-1.34376 0.350319 4.05945
-1.51058 0.651399 -2.8948
-1.44682 0.739269 -1.87302
-1.46901 0.884655 -0.594013
-1.40322 0.9416 0.685463
-1.27791 0.945866 1.96434
-1.29273 0.990582 2.98494
-1.32794 1.03946 4.00545
-1.43918 1.65613 -2.99041
-1.41026 1.75521 -1.96762
-1.41033 1.90025 -0.686457
-1.40249 1.9986 0.596145
-1.37215 2.03807 1.87724
-1.35771 2.06515 2.89988
-1.35792 2.102 3.92112
-0.855563 -0.257772 -2.79469
-0.837535 -0.1827 -1.77316
-0.794898 -0.163187 -0.50071
-0.761962 -0.157516 0.770351
-0.697432 -0.0739588 2.04277
-0.681121 -0.0292808 3.06402
-0.686079 0.00802209 4.08625
-0.859957 0.0471695 -2.82759
-0.658165 0.315103 3.03704
-0.674162 0.351935 4.05902
-0.78507 0.626834 -2.89563
-0.63678 0.987959 2.98507
-0.66424 1.03771 4.00548
-0.709907 1.63995 -2.99122
-0.679998 1.74036 -1.96852
-0.689231 1.89685 -0.686998
-0.704103 2.00184 0.59621
-0.694983 2.03799 1.8777
-0.684806 2.06298 2.90034
-0.682135 2.09977 3.92146
0.722044 -0.258368 -2.79469
0.793944 -0.183515 -1.77316
0.773783 -0.165435 -0.50071
0.72816 -0.157915 0.770351
0.650422 -0.0740415 2.04277
0.648232 -0.0294311 3.06402
0.657432 0.00778437 4.08625
0.701598 0.0468018 -2.82759
0.635648 0.315007 3.03704
0.651173 0.351733 4.05902
0.653983 0.626542 -2.89563
0.615788 0.987861 2.98507
0.644695 1.03751 4.00548
0.734721 1.63933 -2.99122
0.75553 1.73971 -1.96852
0.745275 1.89615 -0.686998
0.697022 2.00132 0.59621
0.655606 2.03764 1.8777
0.653171 2.06267 2.90034
0.664215 2.09944 3.92146
1.50188 -0.259221 -2.79512
1.56653 -0.186958 -1.77379
1.53995 -0.158105 -0.500626
1.46414 -0.148516 0.771193
1.362 -0.0849378 2.04424
1.33704 -0.0363561 3.06502
1.34303 0.00542688 4.08683
1.48607 0.0519844 -2.82773
1.57341 0.14165 -1.80566
1.54404 0.191103 -0.531204
1.46523 0.203241 0.742654
1.34014 0.260544 2.01698
1.31659 0.307741 3.03786
1.33106 0.349847 4.05945
1.42463 0.650487 -2.8948
1.45265 0.738348 -1.87302
1.48481 0.882517 -0.594013
1.41732 0.940687 0.685463
1.29193 0.94567 1.96434
1.29021 0.990283 2.98494
1.31936 1.03899 4.00545
1.46375 1.65483 -2.99041
1.47812 1.75384 -1.96762
1.46641 1.89882 -0.686457
1.4103 1.9975 0.596144
1.35263 2.03731 1.87724
1.34011 2.06448 2.89988
1.34916 2.1013 3.92112
-0.769576 0.415 -1.86244
-0.005032 0.145837 -1.80416
-0.815724 0.16802 -1.16833
-0.666639 0.61058 2.05009
-1.85072e-05 0.282629 2.01737
-0.71186 0.223371 1.37833
0.000287026 0.757184 -1.94718
-0.721607 0.816469 -1.235
0 0.967896 1.99674
-0.667377 0.975277 1.325
0.767723 0.415 -1.86533
0.8099 0.165451 -1.16833
0.665682 0.61058 2.04915
0.710906 0.222617 1.37833
0.722083 0.816467 -1.235
0.667404 0.975208 1.325
-0.786819 0.172668 0.105
-0.833887 0.526957 -0.563333
-0.00171865 0.179704 -0.531667
-0.833972 0.570632 0.713334
-0.00175681 0.216575 0.741667
-0.717947 0.919328 0.045
-0.000289835 1.1131 -0.595
2.17814e-05 1.33083 0.685
0.782275 0.172162 0.105
0.83305 0.524833 -0.563333
0.833993 0.570626 0.713334
0.718214 0.919308 0.045
-0.890501 0.470978 -1.20167
0.890513 0.469917 -1.20167
-0.00337533 0.168648 -1.16833
-1.40417e-06 0.917766 -1.235
-0.00237249 0.415 -2.16822
-0.841074 0.548795 0.075
0.840211 0.54773 0.075
-0.00173773 0.195667 0.105
-0.000134027 1.33108 0.045
-0.895873 0.590606 1.35167
0.895873 0.590603 1.35167
-0.00088766 0.246622 1.37833
1.08907e-05 1.17344 1.325
-9.25362e-06 0.61058 2.17603
-0.81206 0.28 -1.83556
-0.427952 0.144303 -1.8057
-0.818978 0.170829 -1.48667
-0.665525 0.44779 2.0457
-0.319061 0.261442 2.03856
-0.691525 0.237642 1.69667
-0.730351 0.55 -1.89259
-0.321555 0.741598 -1.9316
-0.703294 0.771527 -1.555
-0.623536 0.773369 2.01026
-0.2875 0.961265 1.99011
-0.629033 0.963563 1.645
0.417888 0.144294 -1.80571
0.807886 0.28 -1.83879
0.810175 0.170404 -1.48667
0.319024 0.260517 2.03948
0.665506 0.44779 2.04571
0.690261 0.238033 1.69667
0.322129 0.741558 -1.93156
0.73025 0.55 -1.89457
0.703715 0.771421 -1.555
0.2875 0.961139 1.98998
0.623586 0.773369 2.01032
0.62906 0.963542 1.645
-0.792575 0.185105 -0.85
-0.794773 0.170778 -0.213333
-0.825825 0.346562 -0.5475
-0.398303 0.177338 -0.531667
-0.728896 0.212399 1.06
-0.774771 0.178652 0.423333
-0.837343 0.35925 0.7275
-0.382607 0.197646 0.741667
-0.726048 0.84754 -0.915
-0.819346 0.720567 -0.579167
-0.722741 0.897493 -0.275
-0.406109 1.07889 -0.595
-0.679158 0.960428 1.005
-0.809874 0.783464 0.699167
-0.712391 0.940402 0.365
-0.429653 1.3033 0.685
0.789748 0.180374 -0.85
0.394037 0.177353 -0.531667
0.789835 0.16983 -0.213333
0.824957 0.343224 -0.5475
0.726452 0.2123 1.06
0.378923 0.198053 0.741667
0.757979 0.19123 0.423333
0.837375 0.358425 0.7275
0.726459 0.84752 -0.915
0.405843 1.07903 -0.595
0.81867 0.719041 -0.579167
0.723036 0.897453 -0.275
0.679179 0.960305 1.005
0.429614 1.30306 0.685
0.809836 0.783351 0.699167
0.712449 0.94022 0.365
-0.881193 0.442989 -1.53205
-0.385974 0.415 -2.1228
-0.00420367 0.164242 -1.48625
-0.00370225 0.280418 -2.11872
-0.881676 0.319499 -1.185
-0.40955 0.164108 -1.16833
-0.775034 0.600593 1.70088
-0.333324 0.61058 2.1512
-0.000453083 0.256654 1.69785
-1.38804e-05 0.446604 2.15153
-0.883474 0.406989 1.365
-0.356374 0.237692 1.37833
0.000142811 0.881023 -1.59109
-0.00104273 0.586092 -2.14303
-0.895231 0.643724 -1.21833
-0.360804 0.888683 -1.235
5.44535e-06 1.02128 1.66087
-4.62681e-06 0.789238 2.06644
-0.77656 0.782942 1.33833
-0.333683 1.14831 1.325
0.881026 0.442458 -1.5335
0.382675 0.415 -2.12392
0.881589 0.317684 -1.185
0.403262 0.164126 -1.16833
0.774915 0.600591 1.70041
0.332836 0.61058 2.151
0.883577 0.40661 1.365
0.355009 0.237692 1.37833
0.895234 0.643192 -1.21833
0.361041 0.888944 -1.235
0.777308 0.782905 1.33833
0.333707 1.14858 1.325
-0.833148 0.35113 0.0900001
-0.393082 0.186561 0.105
-0.826964 0.498968 -0.8825
-0.840294 0.537876 -0.244167
-0.00254699 0.17858 -0.85
-0.00172819 0.179987 -0.213333
-0.839992 0.559714 0.394167
-0.896057 0.580619 1.0325
-0.00174727 0.207185 0.423333
-0.00132224 0.24945 1.06
-0.822367 0.75549 0.06
-0.447884 1.30289 0.045
-0.000145619 0.933995 -0.915
-0.000211931 1.27011 -0.275
-5.61226e-05 1.34226 0.365
1.63361e-05 1.28373 1.005
0.832319 0.349408 0.0900001
0.388935 0.186582 0.105
0.827494 0.497375 -0.8825
0.839494 0.536281 -0.244167
0.839138 0.559178 0.394167
0.896057 0.580614 1.0325
0.821494 0.754659 0.06
0.447893 1.3029 0.045
-0.878277 0.29975 -1.50936
-0.81921 0.33611 -0.86625
-0.817508 0.672458 -0.89875
-0.891402 0.596862 -1.54353
0.874875 0.298842 -1.51008
0.891387 0.596596 -1.54425
0.818144 0.671421 -0.89875
0.819703 0.33385 -0.86625
-0.418751 0.160861 -1.48646
0.410575 0.160884 -1.48646
0.398625 0.174198 -0.85
-0.403487 0.174177 -0.85
-0.34118 0.835744 -1.57305
-0.362301 0.897187 -0.915
0.36213 0.930452 -0.915
0.341585 0.835699 -1.57305
-0.406963 0.280209 -2.09032
-0.353765 0.568046 -2.10516
0.352402 0.568046 -2.10561
0.400282 0.280209 -2.10244
-0.831143 0.348018 -0.22875
-0.831726 0.35695 0.40875
-0.819544 0.771189 0.379583
-0.82348 0.73934 -0.259583
0.830298 0.345486 -0.22875
0.822783 0.738201 -0.259583
0.818632 0.770489 0.379583
0.831685 0.355497 0.40875
-0.396586 0.180163 -0.213333
0.392383 0.180175 -0.213333
0.385427 0.18932 0.423333
-0.389244 0.189304 0.423333
-0.44668 1.23026 -0.275
-0.445025 1.31561 0.365
0.445083 1.31564 0.365
0.446588 1.2304 -0.275
-0.885205 0.393425 1.04625
-0.771502 0.427389 1.69877
-0.740083 0.778155 1.67294
-0.799533 0.772173 1.01875
0.885135 0.393268 1.04625
0.799541 0.772116 1.01875
0.740141 0.778137 1.6727
0.771462 0.4272 1.69854
-0.368193 0.231332 1.06
0.365754 0.231333 1.06
0.337016 0.24784 1.69726
-0.337717 0.247788 1.69726
-0.34122 1.26201 1.005
-0.310592 1.00542 1.65293
0.310604 1.00556 1.65293
0.341254 1.26197 1.005
-0.326192 0.447197 2.1498
0.32593 0.447197 2.15025
0.310168 0.781304 2.08541
-0.310412 0.781304 2.08545
-0.826408 0.2125 -1.81522
-0.639412 0.142755 -1.80725
-0.819391 0.173449 -1.64583
-0.652093 0.366395 2.03063
-0.478582 0.284064 2.01594
-0.668733 0.257402 1.85583
-0.675846 0.6175 -1.87276
-0.482476 0.720739 -1.91074
-0.682078 0.736995 -1.715
-0.60693 0.854764 1.99529
-0.43125 0.953873 1.98271
-0.606428 0.954273 1.805
0.629348 0.142752 -1.80725
0.821663 0.2125 -1.81921
0.810314 0.17288 -1.64583
0.478545 0.284042 2.01596
0.65205 0.366395 2.03062
0.666617 0.259063 1.85583
0.48305 0.720752 -1.91075
0.675844 0.6175 -1.87352
0.682607 0.736975 -1.715
0.43125 0.953899 1.98274
0.606913 0.854764 1.99528
0.606437 0.954257 1.805
-0.793997 0.180651 -0.690833
-0.792356 0.176227 -0.3725
-0.818331 0.258097 -0.539583
-0.596611 0.176124 -0.531667
-0.734883 0.209444 0.900834
-0.763786 0.186605 0.5825
-0.838294 0.253926 0.734584
-0.571137 0.191969 0.741667
-0.729642 0.864449 -0.755
-0.786941 0.804805 -0.587083
-0.724113 0.88555 -0.435
-0.595376 1.03449 -0.595
-0.688437 0.956393 0.845
-0.771027 0.876481 0.692083
-0.70625 0.947576 0.525
-0.588971 1.17849 0.685
0.790391 0.177117 -0.690833
0.591902 0.176204 -0.531667
0.791957 0.170323 -0.3725
0.816952 0.254399 -0.539583
0.731949 0.209417 0.900834
0.567418 0.192481 0.741667
0.769598 0.176996 0.5825
0.838126 0.252794 0.734584
0.730201 0.864601 -0.755
0.595269 1.03472 -0.595
0.786263 0.803536 -0.587083
0.724094 0.885172 -0.435
0.688476 0.956264 0.845
0.589009 1.17837 0.685
0.77109 0.876381 0.692083
0.706307 0.947417 0.525
[...]
POINT_DATA 3682
SCALARS point_scalars float 1
LOOKUP_TABLE default
-126.242
-39.9278
-16.3678
-33.1788
-118.093
-39.8613
-18.4064
-32.9816
-33.4903
-40.3349
-55.5175
-49.5192
-33.0028
-40.2585
-55.2241
-49.5224
-89.0455
-142.967
-33.182
-35.8447
-41.1462
-38.4125
-33.447
-30.443
-156.119
-31.3115
-44.3358
-38.4036
-34.6144
-33.1285
72.6641
-93.833
-44.7797
-42.9547
-37.0417
-33.8408
-32.7523
-5.56181
-89.4395
-73.5664
-58.2752
-35.7827
-33.2771
-32.2805
-3.8728
-171.536
-33.9441
-44.3093
-40.0441
-34.0721
-32.7143
77.4078
-32.8085
-32.4549
151.801
-31.7207
-31.7207
18.4221
-47.339
-50.9686
-63.912
-33.6503
-30.5982
-29.8911
-2.91077
-170.086
-33.0481
-41.4478
-39.9585
-33.9376
-32.6127
59.7179
-32.6423
-32.2385
155.761
-30.0803
-30.9239
16.099
-47.3495
-66.5342
-63.8976
-33.3762
-30.3823
-29.668
-41.427
-146.846
-33.0402
-35.5863
-40.7003
-38.3013
-33.3193
-4.64082
-159.459
-31.0601
-42.1945
-38.2051
-34.4285
-32.9964
71.6939
-94.9919
-44.534
-42.9909
-36.8626
-33.6542
-32.6058
-7.17015
-89.536
-72.1113
-58.2007
-35.6872
-32.961
-32.0658
15.0678
-102.117
-51.9069
-33.9072
-37.5816
-38.7293
-35.4287
-53.9881
-30.2863
-43.7048
15.15
-52.4087
-33.8251
-39.0782
-54.0589
-43.6475
-34.8832
-36.9702
-37.4214
-34.3031
-42.4745
-55.02
14.1087
-63.8032
-36.2827
-36.7978
-34.2735
-54.9388
-60.7443
-60.8967
-54.4821
-15.9976
199.364
-38.9564
-38.8459
-36.2247
-91.1468
-54.2724
-54.191
-35.8742
-37.9785
-26.6311
-42.5559
-125.534
-72.7028
-35.6565
-38.9593
-42.4647
13.895
-38.9229
-60.666
-33.7956
-30.0227
-36.3361
-123.252
-40.6411
-72.3178
-38.8357
-35.4903
-42.6339
-38.854
13.6984
-60.6573
-29.91
-33.5898
-36.2891
-38.6275
-34.1223
-34.4075
-37.2441
-38.4095
-35.1229
-25.9707
-40.274
-37.9883
-43.692
-57.2247
5.6444
-46.257
-42.4384
-51.9618
-61.1819
-38.6421
-37.2682
-33.7321
-34.2656
-38.5895
-40.2554
-34.1575
-25.9548
-37.8265
5.73276
-43.416
-57.0207
-46.2613
-61.1011
-42.4635
-51.7614
-92.2833
163.202
-71.5878
167.387
-58.765
-54.9161
-40.6581
-30.8274
-37.2408
-30.4936
-48.9247
-36.689
-32.7605
167.089
-63.3447
-20.1022
-32.1398
-25.5113
-47.7604
-38.8477
-93.1583
166.657
-58.8197
-54.8303
-40.4971
-30.6057
-48.798
-36.6253
-63.355
-20.1046
-47.7035
-38.8459
-36.0817
-35.5967
-41.3822
-38.2942
-42.7814
-37.3295
-37.7277
-42.9912
-37.3248
-36.0838
-44.9313
-83.2063
9.74744
-64.1238
-76.2567
-49.9167
-35.9055
-35.6038
-41.4452
-38.234
-37.4571
-42.9863
-44.8672
-83.2451
-83.0456
-40.4733
-43.3389
-107.215
-83.1245
-107.391
-43.346
-40.5211
-74.1991
-73.9283
-42.6326
-42.6662
-37.4622
1.6959
1.06808
-37.3811
106.747
141.352
140.112
91.7034
-35.9383
-34.6625
-43.7692
-45.2448
-35.2356
-44.9793
-43.6604
-34.3723
-36.1181
-36.1725
-35.9243
-35.9956
-63.5866
-69.6328
-69.6766
-63.6582
-42.488
-41.7369
-39.8939
-45.4133
-42.4814
-45.4336
-39.7675
-41.5539
-36.9912
-37.0282
-38.0508
-38.0611
-50.2445
-33.0404
-33.007
-50.2647
-32.2937
-32.1849
-29.0837
-29.4005
-89.4245
-135.598
-99.6985
-37.3384
-39.1716
-40.3586
11.4766
-35.3647
-55.0743
-33.4982
-30.4843
-34.1526
-135.509
-74.6076
-100.137
-39.1446
-37.1987
-39.766
-35.7476
10.7523
-54.8999
-30.3314
-33.281
-34.0673
-34.5055
-32.8719
-33.5489
-36.038
-42.1538
-33.193
-20.7177
-40.9053
-46.6146
-48.8485
-58.9157
-25.6011
-48.6737
-46.1438
-51.0161
-54.5534
-34.5482
-36.0675
-34.0059
-33.4527
-42.2364
-40.6426
-33.799
-20.6992
-47.1097
-27.1746
-48.4114
-57.7524
-48.6772
-54.4917
-46.1906
-51.0385
-6.00935
15.8374
-148.888
118.502
-106.105
-105.837
-84.2121
47.4167
-60.0431
-52.8348
-56.2727
-54.209
-34.9223
-33.5062
-37.2992
-31.9834
-37.8868
-37.8889
-37.0967
-32.1792
-43.1235
-38.5298
-46.06
-36.9132
-36.0744
-35.5675
-30.3773
58.9431
-58.9734
-43.8336
-64.0454
-28.4702
-30.096
-30.0405
-30.9824
-24.5443
-40.38
-46.3618
-44.9748
-40.7184
-4.36674
15.6588
-144.522
119.052
-59.6783
-51.9817
-56.3442
-54.2133
-34.6925
-33.3171
-37.1321
-31.7957
-42.8325
-37.8684
-45.9935
-36.9612
-58.9842
-43.9612
-64.0933
-28.5518
-40.2959
-46.3966
-44.899
-40.708
-34.7045
-34.2777
-34.8355
-35.1142
-35.4801
-39.4853
-37.6899
-37.4358
-37.3057
-37.3553
-39.6316
-36.8346
-30.0302
-38.869
-36.1498
-34.3187
-41.5195
-41.5585
-41.3805
-38.8655
-56.4053
-53.0629
-49.4116
-67.0071
12.4649
12.4314
23.0472
-18.3569
-63.0557
-63.0182
-69.8974
-57.1449
-36.6316
-31.8817
-34.9041
-35.1972
-35.324
-39.2751
-37.6053
-37.2961
-29.9959
-38.8672
-36.0737
-34.2925
-56.3022
-52.9601
-49.3853
-66.969
-72.6235
-60.0771
-61.8373
-51.5622
-72.2273
-60.2466
-61.9044
-51.601
-61.9573
-54.6188
-54.5784
-49.2442
-33.2255
-17.4985
-17.4119
-2.99856
194.158
175.428
195.625
195.394
-37.1827
-39.0231
-38.488
-41.5878
-37.0666
-38.9918
-38.3107
-41.4885
-35.7975
-36.6018
-36.293
-35.8278
-89.1471
-94.4821
-83.38
-89.2181
-47.5857
-50.8871
-53.092
-47.9017
-47.4542
-50.7836
-53.0208
-47.8548
-36.725
-35.9602
-35.9813
-35.3132
-34.4742
-38.133
-38.1306
-43.048
-28.2512
-29.3242
-25.9206
-27.9017
-129.276
113.878
-91.5075
-113.105
-78.1578
-73.9695
-37.8897
-33.2193
-37.5354
-33.6238
-43.2111
-38.9899
-73.3121
73.1974
-40.4737
62.0926
-90.2626
-44.7995
-37.4044
-31.6304
-31.3646
-28.8859
-38.7858
-34.0576
-91.0899
-104.916
-132.175
115.43
-77.6956
-73.7762
-37.3798
-33.5294
-37.7071
-33.1051
-43.0258
-39.0424
-40.4768
69.7458
-71.6636
73.2798
-90.2417
-44.7959
-31.3021
-28.5492
-37.2171
-31.4386
-38.6926
-34.0098
-39.0161
-41.8806
-34.3319
-35.5174
-35.5916
-34.5432
-39.19
-36.4207
-40.8886
-37.9033
-34.8256
-35.1168
-31.3821
-42.4261
-39.3031
-40.7784
-43.8207
-9.6859
-42.346
-44.6207
-50.759
-81.3971
12.9028
-24.3549
-46.1356
-51.7883
-43.2945
-42.814
-48.1684
-58.9545
-65.257
-56.4936
-39.0339
-41.7904
-39.1644
-36.4772
-33.8037
-35.6388
-35.4938
-34.4357
-40.9418
-38.0706
-39.2705
-40.8349
-34.2001
-35.1273
-31.2818
-42.5857
-43.9124
-10.1969
13.1177
-24.4647
-42.3237
-44.3732
-50.549
-81.3946
-46.2007
-51.8216
-65.1813
-56.4525
-43.1036
-42.8486
-47.9054
-58.8593
-87.9544
-97.5788
137.479
170.614
-72.4251
-72.2991
171.8
173.472
-67.6924
-53.0349
-63.1414
-49.0228
-41.2576
-40.4774
-32.1965
-30.3965
-37.4198
-37.4101
-31.3703
-31.1863
-44.9009
-53.6651
-36.7324
-37.6244
-33.8118
-33.6545
155.63
157.317
-50.776
-77.2493
-30.7224
-9.70574
-32.3819
-32.3568
-26.7804
-27.0899
-44.075
-48.657
-43.9086
-35.2573
-87.8944
-98.317
171.348
144.947
-67.3606
-53.1025
-62.9736
-48.9853
-40.3253
-41.0765
-32.0285
-30.1217
-44.807
-53.5016
-36.572
-37.5867
-77.1646
-50.635
-9.62405
-30.7352
-48.6532
-43.9605
-35.2369
-43.9089
-34.7092
-35.8801
-36.245
-36.1244
-41.091
-41.7891
-36.4284
-41.1755
-42.6179
-42.6295
-37.0678
-37.07
-35.7862
-40.5073
-43.0717
-42.8484
-36.2045
-36.1976
-36.8108
-36.8106
-44.1024
-45.6644
-87.7044
-75.3462
8.00808
8.23917
-61.1038
-60.9212
-75.1079
-75.1326
-50.1141
-50.1256
-35.8804
-35.5779
-36.3108
-36.1407
-41.9131
-41.1378
-36.4255
-41.0351
-40.2968
-35.5156
-43.0734
-42.8451
-45.5902
-43.9979
-75.3495
-87.5005
-117.14
-64.3439
-70.3504
-139.425
-34.1817
-36.5719
-52.3237
-54.9646
-46.2241
-51.0975
-50.2106
-39.2851
-45.9613
-135.008
-74.4998
-84.1024
-118.294
-139.839
-69.7628
-63.9855
-45.5341
-84.1728
-74.2962
-123.845
-46.2076
-39.139
-50.2325
-51.2638
-34.2046
-54.906
-52.4451
-36.4802
-95.9425
-86.5533
-62.2895
-62.271
-95.2981
-62.2309
-62.2187
-85.9667
-38.1663
-39.6677
-49.4475
-48.5608
-38.1679
-48.6484
-49.4706
-39.7001
-46.7487
-36.6667
-32.452
-34.2736
-7.73749
20.6045
-4.17921
-18.7892
-6.18438
-19.1414
-4.00786
20.3515
-46.7391
-34.2139
-32.5039
-36.7114
-27.7152
114.908
169.52
60.9259
70.0812
96.147
189.751
116.094
70.2791
119.949
186.65
94.6482
-21.9793
63.0674
170.768
114.469
-33.634
-33.9419
-37.0231
-35.7397
-29.8435
-33.3813
-36.8104
-35.0152
-47.3946
-48.4898
-41.0851
-39.5868
-50.4273
-40.2102
-41.9104
-51.0318
-33.4072
-35.62
-37.1109
-34.7487
-49.9165
-51.0009
-41.8195
-40.0408
-47.2979
-39.4815
-40.9453
-48.4398
-30.0345
-34.2613
-36.5861
-33.2867
-35.6471
-36.415
-36.6072
-35.699
-35.7827
-35.8091
-36.6676
-36.4461
-38.2874
-41.1165
-36.125
-35.1917
-38.1649
-35.5105
-36.0207
-41.0323
-74.4869
-73.793
-92.7197
-17.5941
-56.653
-69.1223
-82.1526
-61.9111
-56.5515
-61.8097
-82.1741
-69.0782
-72.6302
-17.7196
-92.6818
-73.9097
-50.3107
-42.6307
-46.3471
-35.7422
-38.9491
-37.5332
-52.427
-55.4047
-36.4211
-42.1688
-45.5083
-37.6986
-46.4757
-39.2127
-50.1231
-46.713
-50.6281
-35.7817
-46.2726
-42.3891
-46.5192
-46.8007
-50.1131
-39.2113
-36.2774
-37.5335
-45.3854
-42.0242
-38.7867
-55.2375
-52.2825
-37.3577
-39.4322
-39.6353
-35.4394
-38.7256
-39.5683
-38.1555
-35.409
-39.6006
-38.0425
-37.1149
-36.7524
-38.5927
-38.3751
-38.6111
-36.8282
-37.1653
-52.1118
-46.1016
-43.1499
-57.1506
-32.0705
-31.0834
-34.6679
-36.772
-31.9877
-36.7419
-34.6793
-31.0508
-52.1457
-57.1102
-43.1872
-46.1019
-34.1981
-32.721
-30.865
-32.6904
-34.0649
-32.5751
-30.6444
-32.6192
-31.0389
-25.4781
-27.2396
-31.594
-31.2523
-31.7675
-27.5331
-25.8008
-136.223
-138.705
-149.884
-38.7977
-39.8838
-39.8241
4.55658
-32.8732
-54.1672
-33.9373
-31.2856
-33.4558
-126.375
-128.261
-147.891
-39.848
-38.6919
-39.6141
-33.9564
3.63388
-53.7581
-31.1157
-33.717
-33.3151
-32.7702
-33.8126
-33.5764
-35.065
-45.7142
-34.7513
-25.0959
-41.1181
-55.3043
-52.1675
-58.9549
-63.7205
-49.0165
-48.3102
-50.2475
-51.1082
-33.042
-35.1061
-32.2516
-32.6574
-45.5685
-41.0926
-36.6344
-25.8325
-55.9522
-66.067
-51.7718
-57.8135
-49.0206
-51.0606
-48.3441
-50.2639
5.68979
19.0383
-102.638
71.9563
-101.709
-100.614
-94.5915
-169.037
-55.3534
-49.353
-54.473
-53.3783
-34.6982
-33.3746
-36.2938
-32.3605
-37.6148
-37.5819
-37.8061
-33.9257
-40.1659
-38.9581
-43.5897
-37.4244
-35.8907
-35.6703
-34.6052
-20.8584
-56.8677
-49.3722
-61.453
-36.4941
-30.175
-30.1511
-30.5753
-25.9721
-41.6227
-45.1194
-44.0881
-42.7863
7.31336
18.6089
-100.817
69.7681
-55.1345
-50.0908
-54.6732
-53.4709
-34.3657
-33.2553
-36.1628
-32.192
-39.9144
-37.9387
-43.5208
-37.5121
-56.9179
-49.4378
-61.5052
-36.5732
-41.5571
-45.0922
-44.1092
-42.7632
-33.5919
-34.6871
-34.6146
-34.9507
-36.1438
-38.0631
-37.0441
-37.0974
-37.4855
-37.5133
-38.3561
-37.4194
-32.1422
-36.6757
-35.3783
-33.2487
-43.3622
-43.3425
-42.6153
-40.2716
-55.3822
-54.2209
-52.3886
-59.6353
13.8451
13.8739
22.0387
0.514573
-63.6915
-63.6719
-66.9282
-60.5749
-34.4869
-37.2043
-34.9108
-35.3975
-35.9866
-37.8708
-36.9018
-36.9439
-32.1006
-36.6594
-35.3324
-33.2065
-55.3093
-54.1515
-52.3086
-59.6175
-65.9784
-60.6117
-61.0699
-57.9771
-65.735
-60.7525
-61.2155
-58.07
-58.0781
-54.3979
-54.4143
-51.5398
-24.8136
-16.4487
-16.343
-8.99933
203.244
188.902
206.629
203.507
-37.975
-39.0496
-38.7507
-40.1736
-37.864
-38.9893
-38.5977
-40.0645
-35.5454
-36.3933
-36.0925
-35.5505
-90.4788
-92.8051
-87.4313
-90.5511
-53.7834
-52.0662
-55.0481
-49.5684
-53.6822
-51.9725
-54.9727
-49.5073
-36.2125
-35.9142
-35.8986
-35.6288
-36.0391
-38.0139
-38.0141
-40.2412
-26.8928
-27.7949
-25.9014
-26.7027
-60.3015
-23.3301
-145.013
26.4829
-137.215
-116.147
-108.289
-102.819
-82.2067
-65.8645
-75.7547
-73.0614
-36.3064
-35.0006
-37.1097
-33.87
-38.9874
-38.6758
-37.9117
-36.2608
-40.8126
-42.5602
-44.5881
-40.1615
12.2289
14.4641
-12.5852
46.9005
-38.4349
-36.5555
-40.1599
-16.51
-56.558
-59.7136
-71.9054
-50.6334
-33.7108
-33.6832
-37.2447
-32.1674
-30.1081
-29.9787
-30.591
-29.138
-35.3038
-37.8852
-37.9778
-34.8404
-135.63
-115.236
-107.634
-100.992
-53.4773
-21.5532
-146.577
45.6651
-81.6978
-65.2487
-75.3498
-72.7872
-38.9142
-38.5989
-37.7436
-36.175
-36.1478
-34.8457
-36.9392
-33.7352
-40.7932
-42.5857
-44.4386
-40.294
-38.4953
-36.1413
-40.1018
-12.8258
11.4662
14.2904
-13.2704
47.5907
-56.4815
-59.6661
-71.7875
-50.5751
-29.9722
-29.8932
-30.5054
-28.8869
-33.498
-33.4882
-37.0179
-31.9796
-35.2263
-37.8534
-37.9009
-34.7975
-35.9171
-46.9108
-38.1308
-40.6713
-31.7262
-35.7494
-33.5944
-35.3798
-33.9302
-34.9402
-34.7053
-34.3798
-36.9266
-37.1197
-38.0469
-36.7957
-38.8892
-38.2699
-40.3045
-38.2933
-34.3615
-35.0358
-35.6173
-34.7288
-24.1216
-27.6354
-28.657
-31.4141
-40.111
-41.0043
-40.2415
-40.5904
-38.9562
-40.6059
-42.5819
-24.9731
-46.0187
-41.383
-42.8849
-44.2057
-57.4685
-57.0528
-54.2185
-66.643
-4.38117
10.7677
12.4709
-8.39355
-47.6416
-45.638
-46.3951
-47.7497
-44.2969
-40.8002
-42.749
-42.5362
-51.5771
-52.376
-50.6327
-54.9556
-59.3476
-62.629
-63.6212
-59.3402
-36.0893
-47.1599
-38.1375
-40.6541
-36.9599
-37.146
-38.066
-36.8357
-35.0337
-35.1572
-34.1624
-35.4088
-33.7758
-34.8017
-34.5818
-34.2366
-38.9474
-38.7086
-40.4993
-38.4321
-40.1084
-40.9824
-40.2057
-40.5643
-31.0048
-33.2553
-34.3414
-34.4814
-24.1698
-27.5679
-28.5993
-31.4803
-38.7365
-40.7227
-43.1394
-25.5699
-4.25242
10.5374
12.4588
-8.36648
-45.685
-41.137
-42.6305
-43.9335
-56.9456
-56.9555
-54.2409
-66.8452
-47.6472
-45.6482
-46.4139
-47.7344
-59.2877
-62.5716
-63.5351
-59.2975
-44.3373
-40.812
-42.774
-42.5631
-51.5181
-52.1885
-50.1153
-54.8491
-114.518
-80.7371
-90.1066
-94.64
147.697
186.774
146.341
177.065
-77.6298
-66.4811
-71.703
-71.735
143.347
176.689
176.735
175.973
-57.6923
-59.5061
-62.157
-56.2322
-54.7042
-54.8637
-58.6017
-51.6577
-38.7833
-43.5732
-40.9437
-40.5833
-31.6943
-29.7182
-31.836
-30.4448
-37.2232
-37.0996
-37.405
-37.3152
-30.9113
-30.3741
-30.7733
-30.6809
-48.1053
-49.8987
-46.3007
-51.2603
-36.8682
-36.2042
-36.563
-37.1224
-21.6194
-42.0339
-33.3755
-33.3407
129.316
180.413
162.062
163.374
-63.6956
-62.6179
-56.2539
-68.3848
-23.5334
-18.2932
-26.3557
-14.8498
-31.5341
-33.0052
-32.2184
-32.2008
-24.9516
-25.668
-25.7788
-25.9679
-46.4506
-49.3799
-46.2656
-48.8078
-39.5143
-38.413
-41.1422
-36.9103
-112.977
-80.9394
-90.1453
-95.4923
147.382
187.447
177.171
149.175
-57.7719
-59.6464
-62.1321
-56.3162
-54.6505
-54.8089
-58.5055
-51.5975
-38.6208
-43.4372
-40.4265
-40.7679
-31.5114
-29.408
-31.6297
-30.1817
-47.9687
-49.7827
-46.1858
-51.1251
-36.8677
-36.151
-36.3944
-37.0565
-63.7434
-62.6426
-68.2962
-56.2769
-23.6129
-18.2252
-14.8514
-26.3257
-46.3709
-49.3253
-48.7175
-46.1883
-39.5064
-38.4094
-36.9007
-41.1425
-35.5618
-36.5521
-36.1567
-35.9281
-35.3681
-35.6747
-35.8864
-35.7147
-39.0388
-45.3698
-41.3522
-41.548
-37.8498
-38.7654
-37.266
-39.5976
-41.0513
-45.9991
-42.6589
-42.6453
-36.6012
-37.4214
-36.764
-36.7282
-37.0189
-38.1418
-36.6311
-39.0407
-36.7887
-46.3238
-43.2697
-41.6004
-39.3431
-37.0786
-36.6305
-36.5584
-37.2667
-35.3
-36.8399
-36.826
-47.3109
-43.1191
-44.5493
-45.2931
-77.5234
-87.1132
-85.9532
-79.1693
16.9625
3.67396
9.29934
9.10145
-38.7572
-86.5661
-63.7982
-63.4367
-72.9131
-79.8884
-75.998
-76.038
-53.773
-46.2545
-49.9511
-49.9609
-35.4066
-36.4264
-35.945
-35.7671
-35.3824
-35.6578
-35.9506
-35.7167
-39.0361
-45.4099
-41.6374
-41.4091
-37.7401
-38.7298
-37.233
-39.5027
-36.825
-37.9412
-38.7724
-36.3864
-36.8005
-46.299
-43.2708
-41.5873
-47.258
-43.0276
-45.2188
-44.4622
-77.4706
-87.2489
-79.18
-86.0385
-98.2825
-80.3844
-85.6711
-74.6006
-39.7286
-37.1524
-45.7217
-40.9117
-43.7865
-42.3381
-46.0981
-42.4237
-126.047
-110.925
-101.276
-90.1981
-97.8879
-80.4223
-85.6857
-73.5182
-125.487
-110.887
-101.724
-90.1321
-43.8003
-42.5028
-45.9418
-42.5566
-39.7067
-37.1745
-45.7512
-40.9223
-81.6095
-74.4046
-73.3744
-68.2569
-81.2291
-74.116
-73.1478
-68.0398
-42.359
-40.7397
-45.8028
-42.7061
-42.4061
-40.7746
-45.8311
-42.716
-39.0796
-40.0853
-36.4459
-34.7744
-1.85696
7.26272
-4.26673
4.6793
-3.60243
6.85155
-3.97087
6.03654
-39.051
-40.028
-36.3132
-34.7835
118.059
22.5836
135.957
131.256
91.5494
119.396
155.335
147.445
118.22
91.9327
146.371
155.827
12.8895
117.185
136.548
141.107
-35.6768
-34.8806
-34.9558
-35.7046
-34.556
-33.2728
-35.562
-35.1218
-43.7891
-46.0986
-42.0968
-43.7666
-44.6386
-47.8919
-43.0008
-45.6884
-34.6278
-34.7477
-35.6556
-35.7727
-44.7528
-47.553
-42.8264
-45.6227
-43.4701
-46.0474
-41.9545
-43.6893
-34.2102
-33.091
-35.2019
-34.8532
-35.8355
-36.212
-36.1274
-36.4066
-36.2682
-35.9104
-36.4361
-36.1687
-37.8832
-35.5655
-35.9604
-35.8267
-35.5588
-37.9519
-35.7841
-35.9952
-75.1481
-43.2519
-78.6037
-61.7811
-64.2841
-67.4588
-72.4884
-73.15
-67.4669
-64.2509
-73.1793
-72.4827
-43.0842
-74.9258
-61.6839
-78.3965
-42.0493
-42.1237
-43.9784
-42.8147
-39.2471
-42.117
-41.459
-46.6586
-38.4051
-39.4975
-40.1802
-41.7469
-45.8256
-43.8999
-47.2987
-45.3337
-42.0476
-42.191
-43.9193
-42.8142
-45.8586
-43.9312
-47.309
-45.3503
-38.2511
-39.3882
-40.0384
-41.6274
-39.0518
-41.9347
-41.2767
-46.4992
-37.6174
-38.7109
-36.692
-36.4062
-37.7307
-38.7718
-36.6905
-36.4198
-37.5136
-38.4007
-37.6196
-37.8571
-37.5855
-38.362
-37.6411
-37.8914
-51.0359
-53.847
-47.0535
-50.2911
-32.3014
-33.4632
-32.6877
-33.9742
-32.2562
-33.4284
-32.659
-33.9486
-51.0798
-53.8494
-47.0596
-50.2998
-33.0079
-32.6095
-32.1404
-31.6196
-32.5042
-32.9003
-31.4693
-32.0043
-28.7761
-30.7747
-27.5322
-29.5731
-31.0207
-29.1105
-29.8744
-27.8668
-152.808
-48.2234
-124.64
-120.196
-107.452
-97.8319
-38.6524
-35.1469
-39.5317
-36.7557
-39.9919
-38.5831
-28.9772
45.7214
-39.9453
16.4285
-55.3526
-48.4319
-36.0055
-32.149
-31.1794
-30.9198
-35.7902
-32.726
-122.961
-121.16
-151.928
-52.9252
-108.461
-96.5688
-39.3601
-36.7867
-38.5206
-35.0208
-39.7511
-38.133
-39.9587
16.8394
-28.9967
46.3017
-55.0184
-48.3498
-31.07
-30.7059
-35.8059
-31.9441
-35.6633
-32.6368
-33.6583
-37.3884
-32.1497
-34.9849
-33.6601
-33.6996
-36.6189
-35.9711
-50.6707
-39.5459
-30.1518
-36.8663
-25.1908
-40.6135
-39.6236
-41.1462
-47.0109
-34.0962
-47.88
-50.1226
-54.2504
-76.1784
-10.9708
-50.5335
-48.2212
-49.0642
-46.6646
-46.2956
-49.556
-53.7612
-55.0748
-52.7089
-33.9929
-37.3519
-36.631
-36.0502
-32.6391
-35.3997
-33.238
-33.5433
-50.8551
-39.6848
-39.1336
-41.2915
-30.6275
-37.3765
-25.2603
-40.6013
-47.5954
-33.3732
-10.2337
-51.7842
-47.5185
-49.5436
-53.5197
-73.6097
-48.2418
-49.053
-54.994
-52.693
-46.7358
-46.3475
-49.4999
-53.7014
-129.963
76.6716
-31.2508
70.1066
-144.477
-151.872
110.681
126.398
-97.6491
-122.951
-96.8195
-122.766
-85.0925
-84.745
51.4464
48.0718
-62.5179
-60.9913
-57.9098
-48.9826
-59.4696
-55.5137
-57.7878
-51.0989
-36.6527
-33.1826
-36.7792
-32.2344
-37.4355
-37.5138
-32.5057
-31.6885
-38.4647
-34.6261
-38.4883
-34.5512
-37.0466
-37.1452
-32.2849
-32.2076
-52.6242
-39.7544
-40.7493
-38.5572
-43.7657
-49.3983
-38.0848
-37.7468
-36.6406
-32.1164
-36.6435
-34.8502
-31.1847
-31.2067
78.6304
78.5058
-71.3671
-44.1538
-49.1038
-29.9231
-56.8599
-73.5039
-32.6483
-23.4453
-30.529
-26.9818
-30.5016
-26.7641
-31.0154
-31.0013
-24.6426
-24.8452
-41.0691
-38.2145
-46.4912
-47.2024
-43.6776
-46.1779
-43.026
-38.4979
-127.896
76.5929
-30.8888
73.5209
-143.465
-145.125
126.628
110.401
-62.1204
-60.998
-54.0486
-48.8229
-59.1858
-55.6531
-57.7548
-51.081
-36.513
-33.0383
-36.592
-32.0604
-37.3551
-37.2625
-32.3422
-31.5293
-52.4916
-39.66
-40.4435
-38.031
-43.548
-49.2571
-37.2497
-37.7321
-71.3924
-44.1596
-49.1884
-30.1985
-73.5771
-57.007
-23.6305
-32.7483
-40.8938
-38.1699
-46.5703
-47.1986
-46.0691
-43.5382
-38.4803
-43.0154
-33.5678
-35.3787
-34.7787
-35.2973
-34.2607
-34.3748
-35.3594
-35.2377
-35.7453
-35.5244
-39.1905
-39.7952
-37.0469
-38.3445
-36.5042
-38.694
-38.4952
-37.0774
-38.4834
-37.117
-39.495
-39.4896
-36.6654
-36.6856
-31.9521
-29.2965
-39.0832
-38.9103
-34.6914
-37.7488
-35.2029
-36.8189
-42.6547
-40.2845
-42.7611
-40.145
-40.9212
-40.8891
-39.1585
-39.1643
-53.8609
-63.037
-50.9615
-56.8203
-49.0806
-50.0804
-70.6462
-64.1458
20.4326
-0.984505
20.2376
-0.897193
22.6103
22.5661
-18.2674
-18.6718
-66.2137
-60.2588
-66.1652
-60.2325
-69.768
-69.74
-57.1549
-57.1245
-34.4113
-35.7011
-33.3212
-34.0912
-34.1953
-34.4812
-35.5539
-35.1377
-35.6372
-35.3704
-39.0025
-39.6001
-38.2186
-36.9485
-36.3784
-38.538
-31.888
-29.2831
-39.0679
-38.9201
-37.6775
-34.6037
-35.1829
-36.8124
-53.8456
-63.0802
-50.9386
-56.7344
-50.0808
-49.0205
-64.083
-70.5592
-71.6866
-73.4446
-64.3424
-57.1189
-58.403
-66.8571
-52.0339
-50.8458
-71.023
-73.1634
-64.2601
-57.2118
-66.7557
-58.5008
-50.9133
-52.1182
-61.9441
-61.9569
-58.0998
-51.6096
-58.0493
-51.563
-49.3303
-49.3123
-33.3509
-33.3776
-24.8094
-10.6956
-10.5598
-24.7778
-3.10481
-3.00451
179.232