# vtk DataFile Version 2.0
tri_press
ASCII
DATASET UNSTRUCTURED_GRID
POINTS 3682 float
-0.735 0.175 -2.0071
-0.615 0.275 2.1228
-0.715 0.713259 -1.925
-0.64272 0.935 1.985
0.735 0.175 -2.0071
0.615 0.275 2.1228
0.715 0.713259 -1.925
0.642723 0.935 1.985
-0.728417 0.174917 -0.630467
-0.704108 0.192558 0.746167
-0.776126 0.872392 -0.621667
-0.746475 0.940748 0.681667
0.728417 0.174917 -0.630467
0.704108 0.192558 0.746167
0.776125 0.87239 -0.621667
0.746452 0.940723 0.681667
-1.48002 -0.214374 -3.07846
-1.47641 -0.161352 -2.00651
-1.46273 -0.155203 -0.627983
-1.41712 -0.147431 0.765298
-1.34486 -0.0907259 2.14507
-1.32842 -0.0476241 3.2231
-1.3357 -0.0105876 4.28987
-1.47925 0.097883 -3.06376
-1.47941 0.168234 -1.99982
-1.47158 0.191389 -0.635554
-1.41444 0.203234 0.73531
-1.31567 0.255235 2.10098
-1.30799 0.297173 3.17798
-1.32456 0.334276 4.24714
-1.47188 0.694049 -3.01379
-1.47488 0.762777 -1.94682
-1.5034 0.879205 -0.632524
-1.44868 0.930901 0.67658
-1.34111 0.94184 1.99228
-1.32237 0.981521 3.07231
-1.33233 1.02348 4.15329
-1.46169 1.68416 -2.99395
-1.46489 1.76482 -1.93796
-1.47575 1.88838 -0.647425
-1.46652 1.97713 0.627307
-1.43184 2.01711 1.9186
-1.404 2.04349 2.9762
-1.38768 2.07628 4.04918
-0.744885 -0.211492 -3.08319
-0.73854 -0.155982 -2.01341
-0.731824 -0.163251 -0.627057
-0.714902 -0.155107 0.774564
-0.66745 -0.0818252 2.16127
-0.65184 -0.0418546 3.2341
-0.65467 -0.00847509 4.29624
-0.743936 0.0951966 -3.06522
-0.630694 0.303314 3.18705
-0.644369 0.336115 4.25194
-0.735448 0.672822 -3.00473
-0.64111 0.980176 3.07085
-0.649325 1.0228 4.15298
-0.722677 1.66993 -2.98499
-0.722541 1.75158 -1.92808
-0.738113 1.88549 -0.641473
-0.746921 1.9805 0.626593
-0.73131 2.018 1.9135
-0.70906 2.04265 2.97111
-0.693279 2.07528 4.04547
0.724511 -0.211493 -3.08319
0.730723 -0.155982 -2.01341
0.722998 -0.163252 -0.627057
0.689156 -0.155108 0.774564
0.632989 -0.081826 2.16127
0.661728 -0.0418562 3.23409
0.687254 -0.00847753 4.29624
0.72306 0.0951956 -3.06522
0.664334 0.303313 3.18704
0.690546 0.336112 4.25194
0.723335 0.672821 -3.00473
0.673167 0.980174 3.07085
0.693729 1.02279 4.15298
0.751567 1.66992 -2.98499
0.758187 1.75157 -1.92808
0.746607 1.88548 -0.641473
0.708675 1.98049 0.626593
0.677188 2.01799 1.9135
0.678987 2.04264 2.9711
0.691057 2.07528 4.04547
1.46106 -0.214378 -3.07846
1.46793 -0.161355 -2.00651
1.45688 -0.155208 -0.627983
1.4055 -0.147437 0.765298
1.33314 -0.0907297 2.14507
1.34118 -0.0476284 3.2231
1.36718 -0.0105934 4.28987
1.46204 0.0978802 -3.06376
1.47517 0.168231 -1.99982
1.47197 0.191383 -0.635554
1.41894 0.203225 0.73531
1.32524 0.255232 2.10098
1.33785 0.29717 3.17798
1.36735 0.33427 4.24714
1.46451 0.694046 -3.01379
1.47629 0.762774 -1.94682
1.50655 0.879195 -0.632524
1.45313 0.930876 0.676579
1.34971 0.941833 1.99228
1.35062 0.981515 3.07231
1.37352 1.02348 4.15329
1.48694 1.68415 -2.99395
1.49387 1.76482 -1.93796
1.4833 1.88837 -0.647426
1.43864 1.97711 0.627307
1.39201 2.01709 1.9186
1.38186 2.04348 2.9762
1.38855 2.07627 4.04918
-0.752472 0.444129 -1.99352
0 0.176832 -2.00527
-0.742013 0.164653 -1.31878
-0.662282 0.605 2.08732
0 0.271703 2.1261
-0.671187 0.222146 1.43448
0 0.789747 -2.00149
-0.792264 0.839527 -1.27333
1.51992e-06 1.00142 2.05142
-0.729489 0.972766 1.33333
0.752541 0.444129 -1.99359
0.742015 0.164651 -1.31878
0.662178 0.605 2.08722
0.671187 0.222146 1.43448
0.792246 0.839508 -1.27333
0.729497 0.972771 1.33333
-0.716834 0.183166 0.05785
-0.888241 0.523655 -0.626067
3.55614e-08 0.174034 -0.630467
-0.894223 0.566653 0.713917
0 0.193796 0.746167
-0.762361 0.90763 0.03
-9.07914e-07 1.14179 -0.621667
-1.13621e-05 1.32442 0.681667
0.716834 0.183166 0.05785
0.888242 0.523653 -0.626067
0.894219 0.566641 0.713917
0.762361 0.907629 0.03
-0.885867 0.483892 -1.29606
0.885871 0.483891 -1.29606
1.77807e-08 0.159324 -1.31878
-4.53957e-07 0.927054 -1.27333
0 0.444129 -2.23566
-0.897158 0.545154 0.043925
0.897159 0.545147 0.043925
1.77807e-08 0.183293 0.05785
-6.135e-06 1.33748 0.03
-0.892279 0.585826 1.38391
0.89228 0.58582 1.38391
0 0.217693 1.43448
-4.92109e-06 1.19985 1.33333
7.59959e-07 0.605 2.24283
-0.732472 0.309565 -1.98905
-0.3675 0.177525 -2.00457
-0.751086 0.157247 -1.66294
-0.642622 0.44 2.10904
-0.3075 0.275396 2.1224
-0.65822 0.233447 1.77864
-0.747247 0.578694 -1.97277
-0.3575 0.773658 -1.9854
-0.780025 0.802786 -1.59917
-0.651553 0.77 2.03521
-0.321359 0.993954 2.04395
-0.693513 0.961292 1.65917
0.3675 0.177506 -2.00459
0.7324 0.309565 -1.98898
0.751077 0.157257 -1.66294
0.3075 0.275435 2.12237
0.642593 0.44 2.10901
0.657139 0.234527 1.77864
0.3575 0.773661 -1.9854
0.747104 0.578694 -1.97263
0.779862 0.802622 -1.59917
0.321362 0.993892 2.04389
0.651527 0.77 2.03519
0.693501 0.961276 1.65917
-0.736883 0.168117 -0.974625
-0.725428 0.176239 -0.286308
-0.894021 0.306439 -0.628267
-0.363994 0.174903 -0.630467
-0.680253 0.214747 1.09033
-0.712322 0.186012 0.402008
-0.897466 0.330456 0.730042
-0.351512 0.194262 0.746167
-0.783386 0.855151 -0.9475
-0.864349 0.714106 -0.623867
-0.769116 0.889884 -0.295833
-0.44061 1.11218 -0.621667
-0.738267 0.957042 1.0075
-0.866493 0.776772 0.697792
-0.754627 0.924398 0.355833
-0.457488 1.30107 0.681667
0.736979 0.168021 -0.974625
0.363988 0.174915 -0.630467
0.725428 0.176239 -0.286308
0.894022 0.306439 -0.628267
0.680252 0.214748 1.09033
0.351432 0.194422 0.746167
0.712322 0.186011 0.402008
0.897466 0.330448 0.730042
0.783396 0.85516 -0.9475
0.440607 1.11218 -0.621667
0.864349 0.714104 -0.623867
0.769115 0.889882 -0.295833
0.738277 0.95705 1.0075
0.45748 1.30109 0.681667
0.866492 0.77676 0.697792
0.754564 0.924334 0.355833
-0.874719 0.464011 -1.64479
-0.376236 0.444129 -2.21045
8.89035e-09 0.158927 -1.66203
0 0.310481 -2.17209
-0.875324 0.324273 -1.30742
-0.371007 0.162257 -1.31878
-0.851561 0.595413 1.73562
-0.331141 0.605 2.22091
0 0.233357 1.78029
3.7998e-07 0.438351 2.23553
-0.886859 0.403986 1.4092
-0.335594 0.217636 1.43448
-2.26979e-07 0.878208 -1.63741
0 0.616938 -2.17643
-0.894578 0.66171 -1.2847
-0.396132 0.909348 -1.27333
-1.70058e-06 1.06904 1.69237
1.13994e-06 0.803208 2.13894
-0.880992 0.779296 1.35862
-0.364747 1.18255 1.33333
0.874717 0.46401 -1.64482
0.376271 0.444129 -2.21044
0.875325 0.324271 -1.30742
0.371008 0.16226 -1.31878
0.851553 0.59541 1.73556
0.331089 0.605 2.22091
0.886847 0.403983 1.4092
0.335594 0.217636 1.43448
0.894603 0.6617 -1.2847
0.396123 0.909347 -1.27333
0.880791 0.779296 1.35862
0.364746 1.18257 1.33333
-0.897933 0.318692 0.0508875
-0.358273 0.183517 0.05785
-0.889622 0.503773 -0.961063
-0.893371 0.534404 -0.291071
2.66711e-08 0.159801 -0.974625
2.66711e-08 0.176018 -0.286308
-0.895865 0.555903 0.378921
-0.894974 0.57624 1.04891
8.89035e-09 0.185336 0.402008
0 0.20812 1.09033
-0.869978 0.746501 0.0369625
-0.475611 1.31141 0.03
-6.80936e-07 0.951789 -0.9475
-3.52146e-06 1.28438 -0.295833
-8.74855e-06 1.34391 0.355833
-8.14159e-06 1.28265 1.0075
0.897926 0.318692 0.0508875
0.358264 0.183535 0.05785
0.889587 0.503772 -0.961063
0.893371 0.5344 -0.291071
0.895868 0.555894 0.378921
0.894975 0.57623 1.04891
0.869973 0.746495 0.0369625
0.475603 1.3114 0.03
-0.863218 0.316919 -1.65387
-0.890495 0.336779 -0.967844
-0.876512 0.679867 -0.954281
-0.883663 0.620202 -1.62198
0.863185 0.316918 -1.65388
0.883661 0.620197 -1.622
0.876498 0.679861 -0.954281
0.890495 0.336778 -0.967844
-0.369253 0.159837 -1.66248
0.369254 0.159838 -1.66248
0.367608 0.164425 -0.974625
-0.367608 0.16442 -0.974625
-0.376816 0.861263 -1.61829
-0.392098 0.937323 -0.9475
0.392092 0.935607 -0.9475
0.376811 0.861234 -1.61829
-0.371868 0.310023 -2.20926
-0.366868 0.597816 -2.18345
0.366885 0.597816 -2.18289
0.371885 0.310023 -2.20931
-0.896154 0.312477 -0.28869
-0.897676 0.324585 0.390465
-0.863628 0.759333 0.367377
-0.867067 0.730255 -0.293452
0.896154 0.312475 -0.28869
0.867073 0.730255 -0.293452
0.863615 0.759319 0.367377
0.897679 0.324578 0.390465
-0.36222 0.177037 -0.286308
0.362213 0.177052 -0.286308
0.356189 0.186296 0.402008
-0.356216 0.186243 0.402008
-0.477727 1.25103 -0.295833
-0.472633 1.31841 0.355833
0.472624 1.31841 0.355833
0.477736 1.25105 -0.295833
-0.891697 0.391796 1.06962
-0.85116 0.421993 1.75713
-0.832321 0.774648 1.69739
-0.88142 0.766498 1.02821
0.891616 0.391791 1.06962
0.881458 0.766489 1.02821
0.83233 0.774648 1.69736
0.851204 0.421992 1.7571
-0.343824 0.208114 1.09033
0.343824 0.208115 1.09033
0.321547 0.23364 1.77947
-0.321547 0.232799 1.77947
-0.368995 1.26954 1.0075
-0.343053 1.05951 1.67577
0.343054 1.05952 1.67577
0.368983 1.26952 1.0075
-0.31932 0.439176 2.21609
0.319295 0.439176 2.21609
0.326226 0.786604 2.11678
-0.32625 0.786604 2.11678
-0.73852 0.242282 -2.00286
-0.55125 0.161471 -2.02063
-0.751355 0.157811 -1.83502
-0.624632 0.3575 2.11174
-0.46125 0.281918 2.11588
-0.642079 0.248754 1.95072
-0.731808 0.645977 -1.94957
-0.53625 0.75382 -1.96556
-0.758929 0.769439 -1.76208
-0.648319 0.8525 2.01129
-0.48204 0.977775 2.02777
-0.669076 0.949105 1.82208
0.55125 0.161473 -2.02063
0.738522 0.242282 -2.00286
0.75167 0.157496 -1.83502
0.46125 0.281949 2.11585
0.624003 0.3575 2.11111
0.641865 0.248968 1.95072
0.53625 0.753829 -1.96557
0.731841 0.645977 -1.9496
0.758923 0.769432 -1.76208
0.482043 0.977762 2.02776
0.64814 0.8525 2.01111
0.66908 0.949106 1.82208
-0.72962 0.174547 -0.802546
-0.727324 0.175176 -0.458388
-0.884428 0.204074 -0.629367
-0.54602 0.175281 -0.630467
-0.686291 0.209543 0.918246
-0.709869 0.187631 0.574088
-0.885827 0.218987 0.738104
-0.526115 0.196801 0.746167
-0.779675 0.86369 -0.784583
-0.838069 0.802165 -0.622767
-0.772405 0.880922 -0.45875
-0.649653 1.07486 -0.621667
-0.742438 0.948962 0.844583
-0.827918 0.869477 0.689729
-0.750594 0.932617 0.51875
-0.632995 1.18294 0.681667
0.72962 0.174547 -0.802546
0.54602 0.175281 -0.630467
0.727324 0.175176 -0.458388
0.884419 0.204078 -0.629367
0.686299 0.209534 0.918246
0.526115 0.196801 0.746167
0.70987 0.18763 0.574088
0.885864 0.218965 0.738104
0.779676 0.86369 -0.784583
0.649537 1.07463 -0.621667
0.838071 0.802164 -0.622767
0.772378 0.880894 -0.45875
[...]
POINT_DATA 3682
SCALARS point_scalars float 1
LOOKUP_TABLE default
-108.014
-36.6112
-31.8517
-35.8017
-107.919
-36.387
-31.8468
-35.6555
-37.4119
-38.2143
-56.7338
-48.9868
-37.3925
-38.0083
-56.0273
-48.8932
-46.1507
-100.745
-41.5388
-41.168
-45.5688
-35.927
-35.927
-23.2256
-100.587
-41.6258
-37.9137
-43.9045
-35.927
-31.6295
48.7768
-82.3626
-44.654
-42.3909
-41.7638
-32.661
-31.8777
-12.4571
-56.6697
-77.8496
-62.0958
-40.316
-34.6429
-33.9076
-52.57
-138.459
-37.3662
-38.6034
-37.1308
-32.7698
-30.2983
31.1464
-31.1575
-30.2983
164.147
-31.4942
-29.6735
11.8737
-48.3382
-67.7141
-63.8853
-40.4329
-32.4197
-31.3584
-52.4834
-143.836
-37.2493
-38.4877
-36.8413
-32.6864
-30.0487
30.0176
-30.9778
-30.0487
163.726
-31.3406
-30.6635
11.501
-50.3849
-67.7485
-64.4247
-40.2052
-32.3007
-31.2764
-45.4684
-101.692
-41.6075
-41.1654
-45.3356
-35.7935
-35.7935
-1.4082
-101.761
-41.6872
-37.8276
-43.734
-35.7935
-31.4843
48.6709
-82.3282
-44.6515
-42.3371
-41.6074
-32.7173
-31.7566
-31.0504
-56.6984
-77.5692
-62.0771
-39.8951
-34.4901
-33.7541
-18.7999
-121.849
-51.9729
-33.095
-30.3151
-37.1116
-65.0619
-44.5886
-32.3138
-49.0202
-18.8324
-51.9601
-32.9472
-37.0812
-44.5603
-48.9729
-35.1075
-40.1303
-38.561
-39.1749
-37.0071
-54.3163
1.67839
-66.2342
-35.1081
-40.135
-39.1427
-54.2929
-55.9636
-55.9506
-56.7104
-13.6202
206.47
-40.8869
-40.8767
-35.5119
-92.2057
-44.3902
-44.3133
-36.0768
-44.3445
-23.8649
-24.6784
-115.562
-77.8763
-33.1783
-33.4256
-40.3992
-17.5442
-48.815
-53.0474
-33.7183
-32.0188
-41.5309
-115.067
-26.4393
-77.6777
-33.2336
-33.0175
-40.086
-48.8224
-17.7159
-52.9685
-31.9678
-33.5667
-41.4611
-41.5103
-36.272
-39.2988
-38.049
-36.4799
-36.0954
-38.5878
-37.2715
-41.459
-44.026
-56.3537
-4.90317
-48.6863
-41.9718
-51.5734
-63.2677
-41.5108
-38.0424
-36.2675
-39.3037
-36.4585
-37.0537
-36.1167
-38.5416
-41.4831
-4.90224
-44.049
-56.2934
-48.6631
-63.2551
-41.9421
-51.5846
-92.0706
181.28
-77.2274
172.931
-54.4994
-55.547
-46.3497
-30.3158
-35.3847
-23.1002
-42.4924
-36.3341
-36.7453
138.019
-56.9028
-20.0036
-36.316
-26.3292
-47.9159
-45.2202
-91.9567
181.318
-54.4874
-55.5249
-46.1778
-30.0842
-42.4142
-36.3223
-56.8763
-20.0035
-47.8304
-45.2008
-38.0473
-35.3369
-43.8338
-40.3178
-47.0465
-36.7685
-40.15
-40.3988
-36.2693
-36.0504
-45.8937
-83.3423
10.1962
-76.1509
-79.0524
-55.2267
-38.0384
-35.3397
-43.8084
-40.316
-40.1317
-40.3518
-45.8806
-83.3234
-91.0491
-43.0041
-44.2298
-89.0309
-90.9991
-88.9618
-44.1812
-42.999
-76.1793
-76.1397
-45.8759
-45.8836
-37.5262
3.90609
3.86956
-37.5281
149.852
143.666
143.998
149.788
-37.9341
-38.0595
-43.9536
-45.3135
-37.9257
-45.3221
-43.95
-38.0454
-36.5397
-36.5374
-36.3017
-36.2743
-68.2311
-71.6281
-71.61
-68.1607
-39.2943
-46.9031
-45.6541
-42.0619
-39.2387
-42.0243
-45.5137
-46.7331
-35.9996
-35.9871
-36.464
-36.6119
-55.4355
-37.2753
-37.2446
-55.4193
-29.7746
-29.5306
-29.9481
-30.1375
-38.8248
-127.62
-103.604
-34.6941
-35.8561
-40.386
-12.8813
-46.1745
-55.7112
-34.348
-33.0281
-37.6961
-127.117
-39.4211
-103.726
-35.6881
-34.5297
-40.3012
-46.2373
-13.008
-55.7142
-32.9165
-34.1958
-37.6136
-38.9359
-36.5214
-40.5569
-37.3889
-39.2992
-37.5085
-35.3536
-37.5087
-51.1863
-48.9335
-56.3332
-53.7854
-48.4599
-46.0763
-50.0948
-56.4309
-38.9524
-37.3806
-36.5157
-40.533
-39.287
-37.3264
-37.6092
-35.1168
-51.1127
-53.6498
-48.9222
-57.025
-48.4792
-56.4633
-46.0211
-50.0745
-28.7712
-20.8793
-101.464
119.361
-118.845
-118.854
-91.4351
70.0748
-61.4432
-45.12
-53.3207
-53.6266
-33.0899
-33.1665
-39.7459
-31.8615
-31.2558
-31.1348
-33.5316
-25.2464
-39.0556
-36.0315
-40.8609
-36.5442
-60.0855
-60.0072
-47.2612
85.4872
-51.94
-41.2923
-55.9362
-29.199
-32.2176
-32.1923
-34.1786
-29.465
-45.5364
-49.5274
-48.7704
-47.0169
-28.7477
-21.1583
-101.597
119.144
-61.4081
-45.1015
-53.3504
-53.6
-32.9351
-33.0151
-39.5604
-31.7393
-39.0862
-36.004
-40.7806
-36.5205
-51.945
-41.186
-55.9207
-29.1898
-45.4636
-49.4817
-48.6963
-46.984
-35.7803
-35.4459
-36.4319
-35.1407
-39.6074
-41.4423
-41.3309
-39.9218
-38.4114
-38.4072
-41.0128
-37.3723
-37.801
-40.2222
-39.4683
-40.3339
-37.207
-36.9919
-37.2864
-37.0156
-55.3866
-53.0493
-50.3182
-65.7499
0.475391
0.482388
18.9981
-32.1511
-65.7117
-65.7036
-72.6993
-60.9418
-35.7778
-35.4525
-36.4289
-35.1428
-39.6121
-41.4531
-41.3322
-39.9289
-37.7532
-40.1932
-39.4415
-40.2942
-55.3544
-53.0294
-50.3002
-65.7295
-67.3243
-55.4561
-56.3033
-48.3478
-67.2929
-55.4395
-56.2895
-48.3344
-65.7237
-56.3777
-56.3671
-50.7929
-25.5861
-14.9096
-14.9132
-1.98121
204.887
193.14
179.051
204.29
-39.5062
-40.5924
-40.6819
-42.7714
-39.4974
-40.5897
-40.668
-42.76
-35.4567
-36.2301
-35.7195
-35.4585
-90.3106
-92.1482
-85.9711
-90.306
-48.2381
-43.3272
-46.068
-42.124
-48.1448
-43.2488
-45.98
-42.0609
-36.0935
-36.1542
-36.1491
-35.9863
-39.6559
-44.5195
-44.5119
-49.6432
-26.2333
-21.4331
-25.6847
-25.9481
-109.844
122.206
-92.5955
69.1957
-90.522
-74.6233
-39.9797
-31.6836
-35.5866
-30.1362
-47.1525
-37.9192
-73.7405
88.4805
-45.8605
55.8637
-69.9823
-43.2593
-41.1824
-31.6513
-34.5028
-31.0786
-44.1998
-38.7107
-92.8976
70.7581
-109.536
122.753
-89.8662
-74.5598
-35.4732
-29.8887
-39.7812
-31.531
-47.0298
-37.7001
-45.8622
55.3093
-73.7563
88.3513
-69.9785
-43.2398
-34.464
-30.9626
-41.0154
-31.5201
-44.0871
-38.6602
-41.5401
-44.27
-36.7133
-36.2875
-41.2526
-38.1493
-40.237
-36.9553
-37.8057
-35.9484
-36.9657
-36.2002
-37.7835
-41.391
-37.3272
-37.4169
-45.4545
-10.4871
-43.3008
-44.7017
-50.1763
-76.539
10.672
-38.2074
-45.4902
-56.6184
-43.1661
-41.5142
-47.8307
-58.9402
-67.6059
-59.3951
-41.542
-44.2622
-40.2292
-36.9503
-36.7089
-36.2842
-41.2649
-38.1482
-37.7472
-35.9346
-37.4268
-37.413
-36.9752
-36.2164
-37.7437
-41.3602
-45.4382
-10.3296
10.819
-38.2182
-43.2842
-44.7395
-50.1595
-76.4544
-45.4618
-56.5953
-67.593
-59.379
-43.1433
-41.4772
-47.8322
-58.9068
-91.286
-92.9906
164.911
176.922
-77.0866
-77.0899
166.785
175.514
-65.5583
-46.0855
-64.1214
-49.3625
-46.8506
-46.2643
-29.6505
-30.2986
-35.6369
-35.7067
-25.7392
-25.4686
-39.8892
-45.7365
-36.0087
-36.8192
-36.6921
-36.6942
149.898
148.628
-48.9572
-67.8491
-29.2605
-8.45837
-36.6093
-36.5916
-27.8321
-28.0159
-48.5353
-44.5698
-50.3779
-40.6613
-91.1649
-92.8996
176.942
164.616
-65.5394
-46.0692
-64.0916
-49.3472
-46.0908
-46.6839
-29.3657
-30.0983
-39.8283
-45.6216
-35.9994
-36.8036
-67.8572
-48.9931
-8.47815
-29.2575
-44.5269
-48.4433
-40.6391
-50.3635
-37.8822
-38.1056
-35.9687
-35.6067
-43.8729
-44.1313
-39.1045
-42.262
-46.9334
-46.9384
-36.7173
-36.7158
-39.0737
-41.6946
-40.1912
-40.8332
-36.2747
-36.2509
-36.0492
-36.049
-45.3328
-45.6494
-87.6484
-77.2269
9.25502
9.0601
-73.4997
-73.4575
-77.5985
-77.5925
-55.2762
-55.2783
-37.8764
-38.0963
-35.9684
-35.6174
-44.065
-43.8598
-39.0971
-42.2663
-41.6756
-39.0546
-40.1383
-40.7933
-45.6426
-45.3025
-77.2116
-87.6549
-101.774
-63.9126
-66.6472
-108.76
-39.3813
-41.2433
-47.064
-44.5939
-46.747
-48.3964
-49.1495
-41.9369
-68.2612
-89.7454
-67.0603
-65.6921
-102.786
-109.18
-66.6109
-63.9339
-68.251
-65.7155
-67.0474
-89.7663
-46.8895
-41.9331
-49.1551
-48.3731
-39.4526
-44.5902
-47.0482
-41.2463
-95.2401
-91.2806
-65.3832
-62.2834
-95.5277
-62.242
-65.3738
-91.3144
-39.3268
-40.776
-50.4053
-47.3879
-39.3347
-47.4068
-50.4138
-40.7811
-49.4673
-35.9676
-26.3156
-46.7396
-23.2902
17.565
-3.5772
-20.2949
-23.6391
-20.2478
-3.59268
17.6056
-49.4441
-46.75
-26.3162
-35.9588
54.3723
115.437
194.419
18.8921
42.2577
71.0301
177.003
117.052
42.2642
116.937
177.098
72.6924
51.9364
16.5215
192.69
114.008
-37.2366
-36.5297
-39.2301
-39.0615
-36.5808
-38.6978
-39.4022
-36.3396
-46.8561
-49.4221
-42.5429
-40.8878
-49.5919
-41.6401
-42.6004
-50.3226
-37.2384
-39.0624
-39.2228
-36.528
-49.6753
-50.3094
-42.5962
-41.6586
-46.8344
-40.8667
-42.5281
-49.3921
-36.6607
-36.3407
-39.3906
-38.6674
-36.5662
-37.2762
-36.1465
-35.7907
-36.56
-35.7896
-36.1463
-37.2731
-37.7677
-37.3446
-35.7109
-35.4766
-37.7062
-35.468
-35.7029
-37.1915
-79.328
-69.8718
-92.7083
-32.0759
-57.0576
-71.5992
-84.3783
-62.0428
-57.0256
-62.0137
-84.3728
-71.5917
-79.5137
-32.0941
-92.7119
-69.8823
-46.9295
-38.121
-41.1033
-40.3024
-41.55
-39.9177
-47.0173
-44.8565
-40.5935
-46.95
-49.0803
-40.5529
-45.6267
-40.1506
-42.8788
-46.9115
-46.9152
-40.2741
-41.0409
-38.0721
-45.5992
-46.873
-42.8225
-40.1118
-40.4824
-40.3806
-49.0067
-46.878
-41.3606
-44.6668
-46.8981
-39.723
-37.7132
-37.0961
-36.0055
-35.981
-37.6987
-35.9659
-36.0024
-37.1033
-38.2426
-34.0626
-36.2568
-37.6098
-38.2444
-37.628
-36.2638
-34.1219
-54.5607
-51.7718
-49.8318
-60.6188
-35.5786
-34.2927
-39.9763
-42.6479
-35.5168
-42.606
-39.9652
-34.2748
-54.5365
-60.6013
-49.8261
-51.7429
-33.1219
-26.7891
-24.6773
-31.6895
-32.9116
-31.5535
-24.3347
-26.5857
-31.9297
-29.635
-27.4769
-31.5238
-32.0553
-31.655
-27.705
-29.8129
-66.1629
-134.496
-122.982
-35.927
-35.9708
-37.9196
-19.0809
-35.6731
-51.6927
-35.4782
-34.0501
-36.4203
-133.494
-66.4714
-123.084
-35.8762
-35.7935
-37.4983
-35.865
-19.2169
-51.6495
-33.9175
-35.3216
-36.3163
-38.2167
-36.9193
-37.7889
-37.0845
-40.5159
-37.62
-37.2414
-37.9077
-57.1825
-52.0479
-56.4237
-71.2399
-48.5593
-48.1949
-49.5646
-51.2675
-38.2021
-37.0741
-36.9139
-37.7332
-40.5072
-37.7073
-37.4286
-36.8068
-56.9551
-70.7769
-51.7164
-56.9303
-48.5318
-51.2591
-48.1089
-49.597
-21.191
-19.7109
-60.6173
65.7509
-120.83
-120.79
-100.62
-10.0712
-56.3487
-48.2467
-52.8483
-52.7369
-33.0898
-32.961
-36.1756
-32.0766
-30.5689
-30.5021
-32.4547
-27.2513
-37.918
-36.4608
-39.3372
-36.7734
-64.5042
-64.561
-53.2313
-61.1805
-48.5292
-43.5966
-53.0677
-35.3462
-32.302
-32.2928
-33.1107
-31.2692
-47.3811
-49.2432
-49.1243
-48.9933
-21.2849
-19.8847
-61.0115
65.6186
-56.3373
-48.2298
-52.8918
-52.7129
-32.9383
-32.8141
-36.006
-31.9505
-37.8975
-36.4247
-39.2704
-36.7347
-48.5666
-43.6451
-53.1659
-35.3386
-47.3291
-49.1966
-49.0711
-48.9571
-35.1884
-35.2185
-35.4106
-35.0744
-39.8825
-40.5938
-40.4966
-39.9481
-38.5739
-38.5716
-39.534
-37.9729
-38.2302
-39.6789
-39.1575
-39.7839
-37.1591
-36.9692
-37.3046
-37.1471
-54.9196
-53.7367
-52.8752
-58.9299
1.39874
1.40035
13.7222
-14.5219
-66.1095
-66.1047
-69.5634
-63.6088
-35.1871
-35.2216
-35.4103
-35.076
-39.8846
-40.6016
-40.4983
-39.9567
-38.1935
-39.6484
-39.1272
-39.7524
-54.892
-53.7162
-52.8527
-58.9063
-60.8582
-55.8007
-56.0394
-51.3532
-60.8392
-55.7851
-56.0284
-51.3363
-61.0435
-57.0372
-57.0312
-53.6003
-19.8343
-13.8744
-13.8782
-7.98248
206.078
198.178
194.836
206.171
-40.0468
-40.7553
-40.7608
-41.7824
-40.0374
-40.7466
-40.7489
-41.7715
-35.4925
-35.6147
-35.5673
-35.4935
-91.7603
-92.5303
-89.531
-91.7593
-46.4541
-43.8649
-44.938
-43.2211
-46.3669
-43.7863
-44.8603
-43.1497
-36.086
-36.0968
-36.0943
-36.0053
-41.9931
-44.3751
-44.3726
-46.8468
-24.4436
-21.8175
-26.4319
-24.297
-25.5166
-15.5715
-81.5072
61.5169
-119.903
-116.204
-102.807
-14.5005
-91.5881
-68.5871
-88.3539
-75.1056
-33.4298
-33.1037
-36.6189
-32.081
-34.6654
-32.3067
-34.8908
-31.3005
-40.8196
-39.6408
-45.2279
-38.9053
-12.3344
-20.3256
-50.6563
42.1986
-46.8467
-56.0387
-49.7017
-33.8461
-55.9177
-53.7641
-62.3461
-47.3333
-34.0319
-33.4452
-37.7501
-32.2983
-32.3032
-32.022
-33.3157
-31.426
-39.6979
-43.4559
-42.9358
-39.9948
-119.622
-116.115
-102.735
-6.8734
-26.5699
-16.0726
-83.0893
59.9428
-91.5165
-68.6103
-87.6954
-74.977
-34.4647
-32.148
-34.7479
-31.0686
-33.2651
-32.9464
-36.4356
-31.9317
-40.5125
-39.7133
-45.1461
-38.6253
-46.8266
-56.9328
-49.7187
-33.9304
-12.3731
-20.5596
-50.6038
42.2148
-55.9525
-53.6813
-62.26
-47.3041
-32.2151
-31.9644
-33.265
-31.3289
-33.8803
-33.2924
-37.5912
-32.1625
-39.623
-43.3948
-42.8475
-39.932
-40.8578
-42.3472
-39.3032
-43.2157
-36.2728
-36.4053
-36.4348
-36.2069
-39.0758
-39.3823
-40.4463
-38.5784
-37.7733
-38.2255
-38.9509
-37.4645
-37.0464
-35.8847
-37.5536
-36.07
-36.5611
-35.73
-36.2353
-36.1379
-37.9284
-38.3884
-37.8099
-40.0508
-37.2279
-37.2838
-37.2892
-37.5875
-46.466
-40.4029
-44.6463
-23.1632
-46.2744
-42.5131
-43.3558
-44.4814
-56.6722
-55.9786
-53.5042
-62.718
-17.3306
-0.976821
5.40869
-20.7775
-48.5742
-48.8973
-47.8487
-52.3321
-43.4419
-40.9926
-42.5773
-41.6618
-50.7887
-52.4224
-50.3648
-54.4031
-62.3084
-64.8379
-65.5294
-61.2171
-40.8779
-42.3217
-39.3091
-43.2122
-37.7658
-38.2197
-38.9442
-37.459
-36.2674
-36.4017
-36.4303
-36.2028
-39.0766
-39.3898
-40.46
-38.5762
-37.0286
-35.8604
-37.5011
-36.0555
-37.0562
-37.0603
-37.0964
-37.5717
-36.596
-35.7423
-36.2579
-36.1549
-37.8589
-38.346
-37.7615
-40.0203
-46.4349
-40.2844
-44.75
-23.1707
-17.3658
-0.957092
5.3787
-20.8051
-46.3035
-42.5282
-43.3493
-44.5245
-56.5377
-55.936
-53.4595
-62.6729
-48.5585
-48.8636
-47.8237
-52.3299
-62.2886
-64.8283
-65.5137
-61.2034
-43.4133
-40.9642
-42.5501
-41.6303
-50.7506
-52.2291
-50.2654
-54.3741
-105.477
-79.3571
-91.4397
-91.8879
152.508
197.098
173.828
183.561
-84.596
-71.1692
-77.2974
-77.2957
145.3
181.069
164.857
165.178
-53.9536
-55.009
-59.1744
-50.0396
-54.6161
-56.25
-59.5015
-52.1292
-43.0931
-48.7262
-46.7277
-46.7208
-31.4615
-28.6645
-29.8394
-30.7278
-34.5384
-35.9125
-35.4375
-35.4711
-23.8573
-22.0911
-24.0214
-23.8563
-41.9604
-43.057
-40.8683
-43.8334
-36.3775
-36.247
-36.1442
-36.5712
-41.8035
-30.7832
-36.7131
-36.7151
122.156
179.095
146.341
145.994
-57.4453
-56.429
-52.7172
-61.2534
-23.5083
-16.7633
-24.653
-13.8701
-35.1819
-37.9218
-36.4213
-36.4144
-27.6051
-25.7112
-26.6632
-26.7868
-48.4147
-47.143
-48.7927
-46.5259
-45.7391
-44.7939
-47.5914
-42.8398
-105.314
-79.3063
-91.3093
-91.7929
152.606
197.309
183.557
173.88
-53.9504
-54.9934
-59.1632
-50.019
-54.591
-56.2337
-59.4756
-52.1107
-42.9246
-48.5789
-46.5262
-46.5583
-31.3043
-28.3627
-29.5628
-30.5478
-41.8771
-42.983
-40.7995
-43.7291
-36.3615
-36.2388
-36.1331
-36.5591
-57.405
-56.4136
-61.2691
-52.7018
-23.5055
-16.7649
-13.8761
-24.6522
-48.3426
-47.0503
-46.4946
-48.6917
-45.7148
-44.7821
-42.8185
-47.5735
-37.1014
-38.7276
-37.9667
-38.1184
-35.2445
-35.4027
-35.39
-35.4175
-42.2483
-46.0265
-44.0041
-43.9479
-40.0142
-40.4801
-39.6202
-41.1301
-44.0296
-48.5114
-46.8757
-46.8785
-36.9938
-36.7798
-36.7579
-36.757
-39.7535
-40.5048
-39.4277
-40.8817
-40.2056
-41.2843
-40.3516
-40.4331
-36.6514
-35.9526
-36.2679
-36.2532
-36.445
-35.9923
-36.0472
-36.0479
-47.5024
-44.214
-45.5663
-45.8714
-75.807
-87.1644
-85.2044
-80.525
15.788
4.27798
10.0778
10.0351
-57.135
-89.5551
-75.9779
-75.9289
-75.8592
-82.3462
-78.6927
-78.6899
-58.1207
-52.4596
-55.2375
-55.237
-37.0916
-38.7189
-37.9595
-38.1104
-35.2472
-35.4052
-35.3906
-35.4236
-42.238
-46.0023
-43.908
-43.9865
-40.0175
-40.4782
-39.6183
-41.1297
-39.7293
-40.4886
-40.8623
-39.4091
-40.1587
-41.2313
-40.2997
-40.3917
-47.4868
-44.2027
-45.8627
-45.5482
-75.7816
-87.1547
-80.5088
-85.187
-106.64
-90.7256
-90.9625
-76.3869
-42.1676
-42.0907
-43.7529
-43.4183
-44.4003
-43.5441
-45.701
-44.2495
-90.4857
-80.6647
-92.2755
-79.4226
-105.605
-90.681
-90.8463
-76.3297
-90.4656
-80.6326
-92.2059
-79.3803
-44.3725
-43.5287
-45.676
-44.1382
-42.1684
-42.0868
-43.7511
-43.4081
-83.4751
-75.138
-76.7777
-69.693
-83.5831
-75.0999
-76.7696
-69.6587
-45.1207
-42.8988
-47.2144
-46.5804
-45.1295
-42.9065
-47.2264
-46.5871
-42.1084
-39.1277
-36.6789
-33.1805
-2.01393
9.44049
-1.12953
7.3416
-1.96492
9.55816
-1.20288
6.78224
-42.1215
-39.1317
-36.6799
-33.1686
144.078
138.094
158.79
166.845
115.855
99.7145
162.446
151.838
100.423
115.877
151.539
162.529
138.524
144.847
166.325
158.223
-37.2687
-37.898
-37.9456
-38.5086
-37.6449
-37.8384
-38.1548
-38.401
-42.9832
-45.562
-42.8843
-45.2847
-45.0616
-47.6905
-43.8066
-45.4795
-37.2603
-37.8927
-37.941
-38.4995
-45.0855
-47.692
-43.8134
-45.4786
-42.9622
-45.5782
-42.8694
-45.2755
-37.6387
-37.8159
-38.1434
-38.3827
-36.405
-36.6387
-36.5725
-36.6377
-36.6349
-36.4022
-36.6356
-36.5718
-36.8994
-36.2793
-36.2861
-35.9104
-36.2596
-36.8559
-35.8916
-36.2593
-77.1459
-52.274
-83.628
-70.0223
-65.6885
-69.7366
-74.1906
-75.6455
-69.7222
-65.6613
-75.6365
-74.1752
-52.1774
-77.0672
-69.9688
-83.6513
-38.4849
-40.2004
-39.4818
-39.851
-43.6448
-46.9787
-46.907
-47.7329
-43.1563
-45.1968
-45.9512
-47.6264
-43.5537
-41.3305
-43.0309
-41.4105
-38.4311
-40.1664
-39.4196
-39.799
-43.5257
-41.2925
-42.9934
-41.3704
-43.0017
-45.0669
-45.7935
-47.5146
-43.4588
-46.8201
-46.7378
-47.5879
-35.9582
-36.436
-35.9874
-36.0392
-35.9457
-36.4259
-35.9808
-36.0369
-36.0162
-36.9521
-36.02
-36.7953
-36.1757
-37.1129
-36.1363
-36.7816
-55.7042
-57.6675
-52.8279
-55.3059
-35.8573
-37.9148
-36.9015
-38.8144
-35.8197
-37.8816
-36.8779
-38.7891
-55.6827
-57.654
-52.8126
-55.2956
-31.0059
-29.8354
-29.585
-27.8814
-29.5886
-30.8162
-27.59
-29.3145
-30.2088
-30.7304
-28.9236
-29.9289
-30.8903
-30.372
-30.1256
-29.1303
-92.7836
50.2778
-115.379
-20.0429
-95.6347
-97.5607
-37.9651
-33.5019
-37.8662
-34.1702
-41.7156
-39.2921
-50.3647
24.605
-50.8594
-14.9057
-62.9478
-54.0334
-38.8948
-32.7616
-34.1286
-32.3822
-39.4285
-36.5527
-115.599
-19.8018
-93.6849
52.9869
-95.9047
-97.6307
-37.6265
-33.9688
-37.7999
-33.3223
-41.5396
-39.4426
-51.0078
-14.9268
-50.3616
24.5318
-62.9414
-53.9963
-34.0509
-32.2465
-38.7225
-32.6214
-39.2896
-36.4775
-38.5836
-39.0481
-36.6357
-36.4726
-41.3478
-37.4038
-38.0089
-37.0414
-42.6964
-37.9872
-36.6348
-37.7308
-36.5744
-39.1243
-37.6811
-38.8575
-48.6191
-48.2816
-47.9966
-49.3618
-52.8633
-66.1189
-35.8987
-67.7889
-48.1908
-50.4706
-46.5693
-45.7282
-49.1871
-52.794
-56.1517
-55.3835
-38.6563
-39.0414
-38.0003
-37.0342
-36.6334
-36.4657
-41.4294
-37.4045
-42.688
-37.9728
-37.5182
-38.8315
-36.9356
-37.7966
-36.3092
-39.1156
-48.4936
-48.337
-36.1084
-67.9702
-47.941
-49.5659
-53.4561
-66.3024
-48.1596
-50.4698
-56.1194
-55.3481
-46.5651
-45.7221
-49.2384
-52.7749
-74.0859
62.7468
-52.8351
63.5024
-107.175
-96.6635
115.572
119.872
-99.9125
-32.5603
-99.9356
-33.439
-91.5524
-91.5468
41.5022
41.5123
-63.3968
-61.6731
-44.0751
-46.2769
-57.8925
-48.5888
-57.5653
-50.1118
-36.1731
-31.8799
-36.6914
-32.1235
-39.7705
-40.1136
-31.7722
-31.8511
-33.1924
-28.3804
-33.1077
-28.2225
-33.6768
-33.7097
-25.663
-25.5391
-42.8668
-38.2091
-36.954
-36.0093
-39.12
-42.0148
-36.1919
-36.9671
-51.8586
-38.5548
-51.8844
-38.9008
-46.6681
-46.6297
77.2235
80.0243
-59.8394
-42.1592
-47.0781
-29.6701
-51.9281
-61.2244
-32.3778
-24.3681
-33.122
-31.2838
-33.0957
-31.2308
-34.2187
-34.2082
-29.3824
-29.5772
-46.2095
-44.3145
-48.3464
-52.8073
-48.35
-48.2579
-49.441
-44.7304
-75.6942
64.7562
-52.9709
63.4367
-107.584
-96.6372
119.767
115.2
-63.4238
-61.6326
-44.069
-46.2569
-57.9196
-48.5654
-57.5325
-50.0891
-35.9917
-31.7462
-36.5291
-31.9919
-39.9348
-39.5793
-31.6431
-31.7281
-42.6346
-38.1963
-36.9147
-35.9975
-39.0573
-41.9137
-36.1653
-36.9505
-59.7946
-42.1541
-46.9767
-29.6284
-61.2908
-51.8787
-24.3517
-32.3758
-46.0959
-44.2626
-48.3072
-52.7244
-48.2148
-48.2686
-44.6939
-49.4133
-36.0763
-35.7791
-35.6724
-35.4163
-36.1698
-36.3582
-35.2125
-35.244
-40.3839
-39.3122
-41.388
-41.545
-41.3143
-41.5198
-39.5027
-40.5752
-39.3394
-37.8578
-39.3347
-37.8543
-41.0381
-41.0407
-37.3608
-37.3591
-38.0702
-38.7848
-40.5018
-40.0695
-38.8249
-40.1567
-40.2921
-40.2898
-37.4152
-37.2054
-37.2409
-37.2181
-37.3231
-37.1745
-37.0639
-37.0714
-53.3763
-60.9903
-51.6436
-56.8654
-49.873
-50.421
-67.764
-63.8037
12.7974
-15.4036
12.8231
-15.4176
18.7437
18.7573
-31.7125
-31.7496
-68.4086
-63.1315
-68.4007
-63.1214
-72.4309
-72.4281
-60.8746
-60.8679
-36.0735
-35.7774
-35.6769
-35.4241
-36.1677
-36.3591
-35.2124
-35.2488
-40.3875
-39.3137
-41.3897
-41.5628
-41.5193
-41.3174
-39.5071
-40.5869
-38.0342
-38.7596
-40.4741
-40.0359
-40.1347
-38.7961
-40.2567
-40.2492
-53.3508
-60.9694
-51.6269
-56.8378
-50.404
-49.8547
-63.7801
-67.7531
-67.1434
-67.2
-60.3227
-50.8704
-52.2246
-60.9266
-47.8572
-48.9718
-67.1078
-67.1721
-60.3041
-50.8526
-60.9143
-52.2182
-48.9653
-47.8409
-65.6748
-65.6694
-60.5902
-53.2874
-60.5796
-53.2779
-50.7535
-50.7581
-25.629
-25.6192
-21.0286
-9.29
-9.29641
-21.0271
-2.32688
-2.33652