# vtk DataFile Version 2.0
tet_velo
ASCII
DATASET UNSTRUCTURED_GRID
POINTS 29498 float
-0.745 0.355 -2.63669
-0.815 0.335 2.65155
-0.815 0.595 -2.56297
-0.755 0.967672 2.635
0.745 0.355 -2.63669
0.815 0.335 2.65155
0.815 0.595 -2.56297
0.755 0.967685 2.635
-0.832796 0.283871 -0.873943
-0.843303 0.29003 0.888804
-0.84859 0.772814 -0.830313
-0.828089 0.896537 0.902344
0.832799 0.283868 -0.873943
0.844351 0.288983 0.888804
0.848595 0.772824 -0.830313
0.828089 0.896545 0.902344
-1.56486 0.0667609 -4.0546
-1.57536 0.107659 -2.65646
-1.63647 0.0545087 -0.892932
-1.65453 0.0220409 0.876648
-1.63424 0.0471095 2.64068
-1.6303 0.0935174 4.04133
-1.6358 0.147382 5.43735
-1.56686 0.264989 -4.02856
-1.5766 0.333 -2.6337
-1.64892 0.307339 -0.876032
-1.6555 0.307718 0.884347
-1.61811 0.346158 2.64259
-1.62102 0.392814 4.04281
-1.6325 0.44363 5.43981
-1.59712 0.600764 -3.96803
-1.62302 0.663977 -2.57193
-1.6653 0.790091 -0.83477
-1.64498 0.893321 0.900255
-1.58305 0.96255 2.63799
-1.60362 1.00389 4.03945
-1.62849 1.04372 5.44131
-1.62955 1.2486 -3.89986
-1.64469 1.33821 -2.50826
-1.66016 1.51084 -0.780861
-1.65808 1.68492 0.940055
-1.64421 1.80415 2.66777
-1.64187 1.8636 4.06002
-1.6491 1.9071 5.45859
-0.758593 0.0790887 -4.05654
-0.756308 0.124919 -2.65929
-0.812594 0.04479 -0.892552
-0.834223 0.00669497 0.880452
-0.823454 0.0351469 2.64733
-0.822762 0.0854677 4.04584
-0.82791 0.14217 5.43996
-0.758119 0.26857 -4.02916
-0.820319 0.387352 4.04653
-0.82798 0.440192 5.44178
-0.783169 0.57344 -3.96431
-0.806068 1.00587 4.03885
-0.827284 1.04473 5.44118
-0.810897 1.22612 -3.89618
-0.822201 1.31504 -2.50421
-0.836193 1.50111 -0.778418
-0.841231 1.6891 0.939762
-0.836709 1.81215 2.66568
-0.836634 1.87029 4.05793
-0.843071 1.91186 5.45707
0.811045 0.0790566 -4.05654
0.797634 0.124896 -2.65929
0.83631 0.0446579 -0.892553
0.83753 0.00598728 0.880452
0.816237 0.0348749 2.64733
0.799161 0.085258 4.04584
0.790229 0.141944 5.43996
0.804113 0.268552 -4.02916
0.787522 0.387215 4.04653
0.782372 0.439994 5.44178
0.820733 0.573426 -3.96431
0.765942 1.00577 4.03885
0.770739 1.04456 5.44118
0.822711 1.22608 -3.89618
0.821798 1.315 -2.50421
0.816863 1.50105 -0.778418
0.79816 1.689 0.939762
0.776654 1.81202 2.66568
0.769648 1.87014 4.05793
0.766483 1.91169 5.45707
1.60762 0.0666747 -4.0546
1.59895 0.107575 -2.65646
1.64988 0.0542019 -0.892932
1.66252 0.0210513 0.876648
1.63599 0.0464288 2.64068
1.61498 0.0930182 4.04133
1.60374 0.146907 5.43735
1.59854 0.264931 -4.02856
1.57536 0.332964 -2.6337
1.64704 0.307163 -0.876032
1.66204 0.306691 0.884347
1.6243 0.345578 2.64259
1.60181 0.392401 4.04281
1.59414 0.443199 5.43981
1.61883 0.600718 -3.96803
1.61598 0.663955 -2.57193
1.65861 0.790038 -0.83477
1.64647 0.892966 0.900255
1.58398 0.962186 2.63799
1.57562 1.00357 4.03945
1.57877 1.04335 5.44131
1.63704 1.2485 -3.89986
1.63945 1.33811 -2.50826
1.6392 1.5107 -0.780862
1.61971 1.6847 0.940054
1.59143 1.80386 2.66777
1.57975 1.86328 4.06002
1.57562 1.90675 5.45859
-0.791593 0.475 -2.61142
0 0.332225 -2.65947
-0.900318 0.208016 -1.75532
-0.792279 0.651336 2.65055
0 0.312758 2.67379
-0.899042 0.242625 1.77018
0 0.651731 -2.6197
-0.88341 0.735522 -1.69664
0 0.978497 2.64582
-0.804211 0.944771 1.76867
0.79166 0.475 -2.61149
0.900315 0.208018 -1.75532
0.792311 0.651342 2.65059
0.899042 0.242625 1.77018
0.883435 0.735549 -1.69664
0.804192 0.944763 1.76867
-0.835029 0.289971 0.00743008
-0.848695 0.528342 -0.852128
1.34343e-06 0.206817 -0.873943
-0.848684 0.593283 0.895574
0.000523933 0.224446 0.888804
-0.843416 0.839752 0.036015
2.72111e-06 1.18851 -0.830313
1.39611e-07 1.48725 0.902344
0.835032 0.289968 0.00743008
0.848701 0.528346 -0.852128
0.84869 0.592764 0.895574
0.843418 0.83976 0.036015
-0.897723 0.501671 -1.72598
-0.848691 0.560813 0.0217226
-0.897332 0.62231 1.76942
6.71715e-07 0.206711 -1.75532
0.000262638 0.206956 0.00743008
0.000261966 0.255498 1.77018
0 0.475 -2.73975
0 0.651339 2.65089
1.36055e-06 0.97209 -1.69664
1.43036e-06 1.48724 0.036015
6.98057e-08 1.08167 1.76867
0.897723 0.501673 -1.72598
0.848697 0.560555 0.0217226
0.897344 0.622053 1.76942
-1.1608 0.344 -2.6352
-0.750654 0.239959 -2.64799
-0.751559 0.311785 -3.33292
-1.21656 0.340579 2.64707
-0.819227 0.185073 2.64944
-0.817659 0.361176 3.34904
-1.21901 0.629488 -2.56745
-0.799085 0.58422 -3.26364
-0.8186 0.95502 -2.53359
-1.16903 0.965111 2.63649
-0.780534 0.986771 3.33693
-0.795854 1.38991 2.65034
0.771317 0.239948 -2.64799
0.774556 0.311776 -3.33292
1.16018 0.343982 -2.6352
0.815619 0.184937 2.64944
0.801261 0.361107 3.34904
1.21965 0.340289 2.64707
0.817866 0.584213 -3.26364
0.818399 0.954999 -2.53359
1.21549 0.629477 -2.56745
0.760471 0.986728 3.33693
0.765827 1.38985 2.65034
1.16949 0.964935 2.63649
-1.24086 0.295605 -0.874988
-0.822695 0.16433 -0.883248
-1.2494 0.298874 0.886575
-0.838763 0.148363 0.884628
-1.25695 0.781453 -0.832542
-0.842392 1.13696 -0.804366
-1.23654 0.894929 0.901299
-0.83466 1.29282 0.921053
0.834555 0.164263 -0.883248
1.23992 0.295516 -0.874988
0.84094 0.147485 0.884628
1.2532 0.297837 0.886575
0.832729 1.13694 -0.804366
1.2536 0.781431 -0.832542
0.813124 1.29277 0.921053
1.23728 0.894756 0.901299
-1.57011 0.0872101 -3.35553
-1.56586 0.165875 -4.04158
-1.16172 0.0729248 -4.05557
-1.60591 0.081084 -1.77469
-1.57598 0.22033 -2.64508
-1.16583 0.116289 -2.65787
-1.6455 0.0382748 -0.00814207
-1.64269 0.180924 -0.884482
-1.22453 0.0496494 -0.892742
-1.64439 0.0345752 1.75867
-1.65502 0.164879 0.880497
-1.24438 0.0143679 0.87855
-1.63227 0.0703134 3.341
-1.62618 0.196634 2.64164
-1.22885 0.0411282 2.64401
-1.63305 0.12045 4.73934
-1.62566 0.243166 4.04207
-1.22653 0.0894925 4.04358
-1.63415 0.295506 5.43858
-1.23186 0.144776 5.43865
-1.57173 0.298994 -3.33113
-1.58199 0.432876 -3.9983
-1.16249 0.266779 -4.02886
-1.61276 0.320169 -1.75487
-1.59981 0.498488 -2.60281
-1.65221 0.307528 0.00415753
-1.65711 0.548715 -0.855401
-1.63681 0.326938 1.76347
-1.65024 0.600519 0.892301
-1.61957 0.369486 3.3427
-1.60058 0.654354 2.64029
-1.62676 0.418222 4.74131
-1.61232 0.69835 4.04113
-1.22067 0.390083 4.04467
-1.63049 0.743675 5.44056
-1.23024 0.441911 5.4408
-1.61007 0.63237 -3.26998
-1.61333 0.92468 -3.93394
-1.19014 0.587102 -3.96617
-1.64416 0.727034 -1.70335
-1.63385 1.00109 -2.54009
-1.65514 0.841706 0.0327425
-1.66273 1.15046 -0.807816
-1.61402 0.927936 1.76912
-1.65153 1.28912 0.920155
-1.59334 0.983218 3.33872
-1.61363 1.38335 2.65288
-1.61606 1.0238 4.74038
-1.62275 1.43374 4.04974
-1.20485 1.00488 4.03915
-1.63879 1.47541 5.44995
-1.22789 1.04422 5.44124
-1.63712 1.2934 -3.20406
-1.22022 1.23736 -3.89802
-1.65242 1.42452 -1.64456
-1.23344 1.32662 -2.50624
-1.65912 1.59788 0.0795969
-1.24818 1.50597 -0.779639
-1.65114 1.74453 1.80391
-1.24965 1.68701 0.939908
-1.64304 1.83387 3.3639
-1.24046 1.80815 2.66672
-1.64548 1.88535 4.75931
-1.23925 1.86695 4.05898
-1.24608 1.90948 5.45783
-0.75745 0.102004 -3.35792
-0.758356 0.17383 -4.04285
0.0262263 0.0790726 -4.05654
-0.784451 0.0848544 -1.77592
0.020663 0.124907 -2.65929
-0.823409 0.0257425 -0.00605016
0.0118581 0.0447239 -0.892552
-0.828839 0.0209209 1.76389
0.00165333 0.00634112 0.880452
-0.823108 0.0603073 3.34659
-0.00360824 0.0350109 2.64733
-0.825336 0.113819 4.7429
-0.82154 0.23641 4.04619
-0.0118005 0.0853628 4.04584
-0.827945 0.291181 5.44087
-0.0188405 0.142057 5.43996
-0.770644 0.421005 -3.99673
0.0229971 0.268561 -4.02916
-0.824149 0.413772 4.74416
-0.813193 0.696611 4.04269
-0.0163984 0.387284 4.04653
-0.827632 0.742461 5.44148
-0.0228038 0.440093 5.44178
-0.797033 0.899782 -3.93024
0.0187818 0.573433 -3.96431
-0.816676 1.0253 4.74002
-0.821351 1.43808 4.04839
-0.020063 1.00582 4.03885
-0.835177 1.47829 5.44912
-0.0282721 1.04465 5.44118
-0.816549 1.27058 -3.20019
0.00590668 1.2261 -3.89618
-0.829197 1.40807 -1.64131
-0.000201674 1.31502 -2.50421
-0.838712 1.5951 0.0806719
-0.00966524 1.50108 -0.778418
-0.83897 1.75062 1.80272
-0.0215354 1.68905 0.939762
-0.836672 1.84122 3.3618
-0.0300272 1.81209 2.66568
-0.839853 1.89107 4.7575
-0.0334931 1.87022 4.05793
-0.0382939 1.91177 5.45707
0.80434 0.101976 -3.35792
0.807579 0.173804 -4.04285
1.20933 0.0728656 -4.05557
0.816972 0.0847769 -1.77592
1.19829 0.116236 -2.65787
0.83692 0.0253226 -0.00605017
1.2431 0.0494299 -0.892742
0.826884 0.0204311 1.76389
1.25002 0.0135193 0.87855
0.807699 0.0600665 3.34659
1.22611 0.0406519 2.64401
0.794695 0.113601 4.7429
0.793341 0.236236 4.04619
1.20707 0.0891381 4.04358
0.786301 0.290969 5.44087
1.19699 0.144425 5.43865
0.812423 0.420989 -3.99673
1.20133 0.266741 -4.02886
0.784947 0.413605 4.74416
0.776732 0.696493 4.04269
1.19467 0.389808 4.04467
0.776556 0.742278 5.44148
1.18826 0.441597 5.4408
0.821722 0.899753 -3.93024
1.21978 0.587072 -3.96617
0.768341 1.02517 4.74002
0.767795 1.43796 4.04839
1.17078 1.00467 4.03915
0.768611 1.47812 5.44912
1.17475 1.04396 5.44124
0.822254 1.27054 -3.20019
1.22987 1.23729 -3.89802
0.81933 1.40802 -1.64131
1.23062 1.32655 -2.50624
0.807511 1.59502 0.0806718
1.22803 1.50587 -0.77964
0.787407 1.75051 1.80272
1.20893 1.68685 0.939908
0.773151 1.84108 3.3618
1.18404 1.80794 2.66672
0.768066 1.89092 4.7575
1.1747 1.86671 4.05898
1.17105 1.90922 5.45783
1.60329 0.087125 -3.35553
1.60308 0.165803 -4.04158
1.62442 0.0808886 -1.77469
1.58715 0.22027 -2.64508
1.6562 0.0376266 -0.00814213
1.64846 0.180683 -0.884482
1.64925 0.0337401 1.75867
1.66228 0.163871 0.880497
1.62549 0.0697235 3.341
1.63015 0.196003 2.64164
1.60936 0.119962 4.73934
1.6084 0.242709 4.04207
1.59894 0.295053 5.43858
1.58695 0.298947 -3.33113
1.60868 0.432825 -3.9983
1.6112 0.320064 -1.75487
1.59567 0.498459 -2.60281
1.65454 0.306927 0.00415742
1.65283 0.5486 -0.855401
1.64317 0.326134 1.76347
1.65425 0.599828 0.892301
1.61306 0.368989 3.3427
1.60414 0.653882 2.64029
1.59798 0.4178 4.74131
1.58872 0.697984 4.04113
1.58645 0.743274 5.44056
1.6174 0.632337 -3.26998
1.62793 0.924607 -3.93394
1.63729 0.726996 -1.70335
1.62771 1.00103 -2.54009
1.65254 0.841502 0.0327424
1.64891 1.15037 -0.807816
1.61522 0.927576 1.76912
[...]
POINT_DATA 29498
VECTORS point_vectors float
-1.25541 -1.38535 2.80076
0.0968144 0.141541 0.521607
-4.34641 0.806032 5.78383
0.0384029 -0.105595 0.428913
1.25583 -1.38412 2.79961
-0.0950819 0.142939 0.525048
4.34328 0.80498 5.77933
-0.0387947 -0.104679 0.426508
0.0158162 -0.0177036 0.201411
-0.0345082 0.0284458 0.263444
-0.00315344 -0.0147701 0.121243
0.00814018 0.019533 0.0558143
-0.0157759 -0.0176214 0.201182
0.0423557 0.033999 0.318855
0.00317578 -0.0149033 0.121407
-0.00821747 0.019695 0.0560502
-0.43345 -0.119388 19.8381
-1.33199 -0.53151 20.3188
-0.454515 -0.356233 21.3415
-0.00726256 -0.0730655 21.5537
0.54585 0.251661 21.4913
0.753444 0.345292 20.8275
0.583518 0.126162 20.9775
-0.451628 -0.0827763 19.8024
-1.57492 -0.383581 20.3181
-0.541961 -0.416596 21.3614
-0.013382 -0.123111 21.6117
0.686031 0.127229 21.5326
0.766904 0.159734 20.7622
0.479197 0.00242522 21.4179
-0.492979 -0.00137247 19.7756
-1.60473 -0.0591799 20.3363
-0.915365 -0.405598 21.3479
-0.115343 -0.194786 21.7253
0.715328 -0.16894 21.5666
0.883125 -0.379985 21.1655
0.566827 -0.278428 20.8385
-0.459777 0.178955 19.8407
-1.16782 0.457414 20.3254
-1.07771 0.178965 21.2416
-0.183478 -0.0656601 21.7194
0.384088 -0.321156 21.4228
0.622208 -0.478297 20.9172
0.408607 -0.429339 20.8482
-0.346335 -0.242197 19.4178
-3.22423 -4.65239 19.602
-0.16983 0.116957 16.3678
0.140774 -0.115632 17.16
0.389093 1.06589 16.869
0.814502 1.31598 17.1195
0.883062 0.872248 16.5958
-0.394196 -0.175179 19.3037
1.34752 1.38544 12.7046
0.974116 0.479192 13.9477
-0.488401 -0.0138025 19.2214
1.91821 -0.305689 12.0483
1.1717 -0.236618 16.6645
-0.418607 0.375315 19.3859
-2.07182 2.30982 19.8586
-3.18277 1.8384 20.9272
-0.216155 0.0230904 22.1322
0.484182 -0.823301 21.5275
0.797284 -0.949872 20.5427
0.526534 -0.65822 20.36
0.360264 -0.242351 19.4202
3.30261 -4.20298 19.6135
0.153065 0.119539 16.6325
-0.13987 -0.110112 17.2433
-0.379176 1.06991 16.8107
-0.530818 1.51473 17.5168
-0.897171 0.777543 16.2754
0.410918 -0.173987 19.332
-1.42258 1.51399 11.0201
-1.28848 0.282895 13.4929
0.500709 -0.0115629 19.248
-1.85402 -0.399611 10.5447
-0.950389 -0.264621 16.0557
0.419715 0.374155 19.3891
2.07178 2.3105 19.8574
3.228 1.95592 20.887
0.168065 0.0283473 21.9202
-0.460326 -0.879154 21.5824
-0.612639 -1.02399 20.5843
-0.599974 -0.686942 19.9302
0.428041 -0.113919 19.8596
1.29424 -0.515152 20.3384
0.452127 -0.357452 21.3375
0.00647509 -0.0739951 21.556
-0.544662 0.245487 21.4932
-0.666242 0.251158 21.213
-0.645571 0.0654185 20.8743
0.444737 -0.0771575 19.8235
1.57775 -0.38588 20.3128
0.54355 -0.419725 21.3643
0.010376 -0.119798 21.6216
-0.682674 0.120924 21.5339
-0.861619 0.0556627 21.1665
-0.638739 -0.0934212 21.1288
0.487932 -0.0044777 19.7898
1.61992 -0.059941 20.3356
0.919245 -0.411139 21.3527
0.11383 -0.192963 21.7224
-0.706917 -0.166302 21.5406
-1.02461 -0.30535 21.3495
-0.688971 -0.334276 21.1959
0.458676 0.176926 19.8435
1.17525 0.461121 20.3236
1.10755 0.189519 21.2468
0.187835 -0.0634786 21.7246
-0.405761 -0.335434 21.4334
-0.497975 -0.401082 20.9984
-0.412119 -0.43095 20.8614
-2.07126 -0.258939 2.14164
0 0 0
-0.116893 -0.103367 4.38779
-0.015659 -0.00278634 -0.00390814
-0.000678038 0.00481484 0.0443464
0.336725 0.261753 3.29395
0.000569773 0.288886 0.20162
-0.189763 -0.251438 2.07741
0.00146509 0.0584212 -0.0158928
0.0417705 0.0557592 0.245313
2.08591 -0.260942 2.15614
0.116697 -0.106651 4.38208
0.0149648 -0.00250385 -0.00385122
-0.297154 0.30604 3.37863
0.220136 -0.200928 2.17382
-0.0420754 0.0562516 0.246831
-0.013331 0.022743 0.616754
1.15688e-05 -4.98838e-05 0.000956451
-1.10407e-06 -2.9978e-05 0.0039544
-6.56819e-06 0.000267282 0.000842336
0 0 0
0.0293355 0.0759171 0.23202
2.1696e-06 0.00104677 0.00167243
5.06442e-07 -0.000867352 0.0396531
0.0134211 0.0228357 0.615406
-1.19104e-05 -5.16149e-05 0.000991004
6.33642e-06 0.000259985 0.000820136
-0.0292778 0.075798 0.231986
-8.61069e-06 -2.33289e-05 0.000326347
7.8878e-07 2.50254e-05 0.00013787
-0.0953218 0.0391152 1.77085
-0.000117807 -0.0459143 0.421336
-1.08742e-06 -9.00183e-07 0.000389724
0.000772109 0.0129214 0.0758607
-3.86527e-06 -0.0421373 0.0282795
0 0 0
2.79534e-06 5.05079e-05 0.00089206
3.95624e-07 0.000147837 0.0068836
0 0 0
8.69512e-06 -2.442e-05 0.000321764
-1.01771e-06 3.23583e-05 0.000178317
0.093284 0.0402826 1.7695
-3.26923 -1.105 20.0164
-5.24779 -6.87231 18.9022
-1.317 -0.691377 18.2969
1.10082 0.481811 20.4876
0.315897 1.15497 10.1334
0.840456 1.28421 9.21429
-3.29507 -0.0264821 20.1903
-1.71065 0.00928173 17.9354
-4.81947 3.67854 19.4477
1.17263 -0.00785182 19.7194
1.19064 0.259401 7.99682
1.35789 -0.239806 15.4969
5.33431 -6.43701 18.9519
1.33114 -0.678129 18.3495
3.27488 -1.10707 20.0141
-0.321693 1.14633 10.0367
-0.762746 1.21166 8.67179
-1.09648 0.469151 20.5282
1.71861 -0.00046658 18.0198
4.82187 3.68591 19.4495
3.31871 -0.0220319 20.188
-1.0587 0.310302 7.21374
-1.40214 -0.221512 14.5766
-1.16924 -0.00652164 19.7176
-0.252149 -0.681341 21.425
0.383811 0.150817 6.38709
0.0811879 -0.0853983 20.9346
0.240856 -0.436402 9.23494
-1.33991 -1.03406 21.4889
-5.39589 -1.28141 15.3472
-0.088872 -0.229401 20.576
0.490875 1.44526 10.2415
-0.414552 0.145123 6.96597
0.250885 -0.684537 21.4159
-0.239624 -0.436597 9.42354
-0.0813234 -0.09136 20.9908
5.57265 -1.36118 14.8471
1.34309 -1.04615 21.4657
-0.554469 1.57768 8.78928
0.0886749 -0.230417 20.5924
-0.860991 -0.310205 19.8695
-0.442539 -0.101082 19.8202
-0.425512 -0.199446 19.6219
-0.970426 -0.498813 21.1139
-1.48344 -0.484233 20.3249
-2.296 -1.4172 20.1116
-0.182048 -0.213724 21.4587
-0.479273 -0.385191 21.3547
-0.274653 -0.387003 21.5417
0.245875 0.0884113 21.6039
-0.00710544 -0.0903742 21.5715
0.0313469 -0.0189175 21.4532
0.720575 0.270921 21.3168
0.626215 0.200603 21.515
0.766293 0.602229 21.2936
0.790318 0.117334 20.8009
0.760174 0.252513 20.7948
1.09805 0.768194 21.0659
0.557545 0.0731784 21.1391
0.624207 0.703355 21.1244
-0.972504 -0.214486 19.7776
-0.470378 -0.0497828 19.7798
-0.484379 -0.139494 19.5751
-1.11604 -0.447106 21.1609
-1.62579 -0.213172 20.33
-0.22719 -0.298261 21.5154
-0.707305 -0.437974 21.3613
0.316286 0.0308106 21.697
-0.056318 -0.179681 21.6706
0.92088 0.160258 21.357
0.75447 -0.0182263 21.5864
1.10665 0.0457476 21.7583
0.859054 -0.0336978 20.867
1.29576 0.762156 20.2167
0.540673 -0.111086 21.0201
0.641729 0.299627 19.4411
-1.0439 -0.0235208 19.794
-0.514519 0.0923842 19.8
-0.544571 -0.00743005 19.5392
-1.27905 -0.234402 21.0791
-1.47457 0.291303 20.3125
-0.529987 -0.3431 21.6275
-1.10657 -0.14486 21.3041
0.32451 -0.126635 21.7382
-0.168403 -0.130024 21.7436
0.886425 -0.208928 21.299
0.572318 -0.297296 21.4711
0.89869 -0.187167 21.2478
0.697539 -0.493936 21.1599
1.64301 -0.284176 20.1136
0.485808 -0.505435 20.9179
0.959703 -0.257847 19.7214
-0.851166 0.349997 19.9302
-0.508773 0.265601 19.6372
-1.16441 0.324749 20.8408
-1.69155 1.00333 20.1738
-0.700894 0.0458023 21.6184
-1.85709 0.47111 21.2886
0.190813 -0.2069 21.6232
-0.246121 -0.029777 21.9647
0.508521 -0.42345 21.2589
0.481893 -0.512506 21.4934
0.401959 -0.326491 21.003
0.646727 -0.584175 21.3267
0.50491 -0.582031 21.2474
-1.07421 -0.922704 18.7362
-0.370141 -0.208595 19.36
0.0191247 -0.318402 19.2101
-0.655578 -1.23378 17.561
0.059357 -7.08358 19.9622
0.0420499 0.0354163 16.6354
-0.00387826 -0.259656 12.5115
0.377589 0.506491 16.518
0.00645589 -0.004362 12.7435
0.579364 1.28597 16.9478
0.00581575 0.392886 11.6509
0.970571 1.09042 16.6815
1.1969 1.34415 13.4097
-0.0684435 0.618708 9.63729
0.943954 0.717124 14.6864
0.00512213 0.561046 11.4982
-0.453343 -0.131385 19.259
0.0191467 -0.236286 19.0828
1.56324 0.794664 10.6701
1.712 0.881652 10.9502
-0.417075 -1.55429 -1.53473
1.13871 0.072101 13.7801
0.0131632 0.117018 8.34257
-0.487192 0.174687 19.231
0.0187015 -0.0163922 18.8342
1.48432 -0.268979 15.3094
1.21806 -1.03451 18.8337
-0.620789 -2.71073 0.0402278
0.721512 -0.70076 18.9417
0.276051 -1.47488 5.54929
-1.1172 1.13782 19.0123
0.00339187 0.475498 19.1076
-2.00525 1.50306 20.6636
-0.00131962 4.29973 19.4853
-1.6251 0.700853 22.6603
-0.0633428 5.74155 18.0922
0.318881 -0.586741 21.9526
0.000155246 -0.053506 16.6296
0.508687 -0.965183 21.343
0.0104242 -0.971321 20.2523
0.638941 -0.801242 20.3823
0.103831 -1.26132 19.26
-0.0249023 -0.774683 20.8196
1.09759 -0.895688 18.7811
0.384749 -0.20698 19.3701
0.43127 -0.190889 19.6398
0.804278 -1.20024 17.9972
2.20434 -1.30455 20.1262
-0.0362698 0.0394978 16.8516
0.293854 -0.404087 21.5324
-0.376962 0.510596 16.5096
-0.0286592 -0.0211456 21.473
-0.537258 1.28528 16.7518
-0.766185 0.601656 21.2799
-0.899035 1.13018 15.3611
-1.08167 1.58703 12.3605
-0.944634 0.886515 21.1494
-1.05817 0.620209 14.1732
-0.610288 0.834513 21.2673
0.467711 -0.127909 19.2877
0.492447 -0.136359 19.5921
-1.45674 0.963259 11.3456
-1.72373 0.96436 9.07415
-1.58335 0.735605 19.4104
-1.09528 -0.0418219 13.0252
-0.880227 0.186514 19.0435
0.492103 0.172093 19.2413
0.54364 -0.00596386 19.5554
-1.4146 -0.230976 14.1453
-1.324 -1.08827 18.5695
-1.62404 -0.290861 18.6954
-0.736357 -0.542624 19.1227
-0.800117 -0.160924 19.5619
1.12016 1.12878 19.0187
0.51109 0.265718 19.6393
2.00535 1.52946 20.6563
1.69389 1.00911 20.1724
1.6191 0.737656 22.4849
1.91184 0.513675 21.2829
-0.352479 -0.606909 21.6818
0.251843 -0.023727 21.9992
-0.47554 -0.998591 21.2298
-0.495138 -0.546629 21.5185
-0.687707 -0.964881 19.9104
-0.693966 -0.687615 21.0441
-0.482499 -0.659222 21.0355
0.837499 -0.302093 19.8875
0.436799 -0.0957112 19.8419
0.959996 -0.485234 21.1037
1.46697 -0.475242 20.3294
0.178616 -0.211385 21.4623
0.480922 -0.384822 21.3541
-0.247981 0.0860191 21.6077
0.00726757 -0.0895629 21.5758
-0.699423 0.299908 21.2687
-0.621814 0.193391 21.5115
-0.823939 0.241049 20.902
-0.76393 0.15341 21.1898
-0.638821 -0.0135207 21.0157
0.957915 -0.209542 19.7937
0.464568 -0.0461953 19.7977
1.11625 -0.447974 21.1614
1.63231 -0.219507 20.3244
0.228246 -0.29916 21.5135
0.707916 -0.446383 21.3652
-0.312284 0.0280525 21.6928
0.0544396 -0.178003 21.6711
-0.896504 0.168145 21.3033
-0.75069 -0.0194245 21.5842
-0.808446 0.174059 21.4248
-0.947692 -0.111178 21.1894
-0.682212 -0.24954 21.2588
1.03782 -0.0249888 19.802
0.510048 0.0917443 19.8122
1.28628 -0.236275 21.0834
1.48242 0.295175 20.3081
0.52921 -0.34427 21.628
1.12902 -0.145909 21.3081
-0.325562 -0.128383 21.7312
0.171045 -0.134816 21.7551
-0.902864 -0.22887 21.2346
-0.585188 -0.309011 21.4693
-0.939017 -0.246373 21.0848
-0.695451 -0.432822 21.0995
-0.472314 -0.362131 21.0268
0.851754 0.349522 19.9305
1.1785 0.333392 20.8434
0.721691 0.0496002 21.637
-0.197642 -0.214094 21.6257
-0.480018 -0.434516 21.237
-0.560894 -0.393768 20.9053
-0.925811 -0.265818 19.8079
-1.20663 -0.840282 18.51
-1.06127 -0.58816 19.4084
-1.2806 -0.410831 19.2085
-0.458743 -0.174161 19.597
-2.77399 -1.31331 20.0694
-1.04149 -0.477609 21.1555
-0.191942 -0.189881 4.95309
-1.22297 -0.883067 21.5678
-1.38647 -0.829818 21.7421
-0.22055 -0.496756 21.5271
-0.19199 -0.247355 21.4804
0.115316 0.0442991 8.88588
-0.0363983 -0.167184 21.4775
0.0376672 -0.39767 21.1369
0.0632635 -0.0566772 21.1896
0.285118 0.0692492 21.6399
0.380428 0.585959 8.71295
0.35081 0.263 21.5069
0.471019 0.207838 21.0548
0.963091 0.569156 20.9992
0.811017 0.243858 21.3257
0.667874 1.38115 12.4334
0.978195 0.67711 20.8339
1.34307 0.47956 20.3274
1.14164 0.713152 20.881
1.00462 0.0905448 21.2907
1.41616 0.971973 12.9522
0.919327 0.678832 21.7138
1.27028 0.428081 18.4416
0.609969 0.536032 20.1591
-1.00573 -0.114021 19.7834
-1.53894 -0.410967 18.0674
-1.51267 -0.00687645 19.1489
-0.516287 -0.0843201 19.5488
-3.38157 -0.533597 20.1043
-1.20331 -0.344801 21.1194
-1.90554 -0.531228 21.5069
-0.636965 -1.03994 21.3291
-0.348834 -0.36615 21.5721
-0.651462 -0.790891 21.2149
0.0495613 -0.148496 20.3441
0.342392 -0.055588 21.7499
0.618253 0.0979327 20.1999
1.18006 0.298744 19.5432
0.933011 -0.0225654 21.401
0.594678 0.683158 4.92195
1.38934 -0.188146 20.0476
1.51993 0.303343 19.9454
1.10657 -0.0669226 21.4943
1.64064 0.342282 10.879
1.21884 -0.232132 19.8455
0.806664 -0.105578 19.2612
-0.996516 0.213565 19.844
-1.52923 0.839823 18.2965
-1.09191 0.661042 19.5616
-0.539016 0.132139 19.5526
-2.5904 0.835133 20.1426
-1.29666 0.0447554 20.9477
-3.01284 0.702256 19.5942
-1.66248 0.685376 20.8269
-2.08469 -0.298879 21.4378
-0.682123 -0.168763 21.652
-0.266346 0.898157 10.2769
-1.06726 0.207813 21.9515
-0.307314 -0.159968 22.0256
0.286732 -0.183274 21.6802
1.40925 0.648287 12.7183
0.267141 -0.317592 21.7566
0.782999 -0.540457 21.5561
0.690349 -0.38391 21.2795
1.27821 -0.701556 17.3708
0.558816 -0.640001 21.3017
0.847135 -0.717111 20.8329
0.583848 -0.362718 21.1231
1.04656 -0.986455 18.9361
0.486178 -0.467034 21.3481
0.644117 -0.587063 20.1449
1.22937 -0.81927 18.5381
0.0343152 -1.43203 17.9217
0.0199323 -1.10823 17.1597
0.0191357 -0.277344 19.1465
0.0299773 -8.80421 18.8815
0.234447 -0.18839 5.47134
0.0132089 -1.08108 14.1905
-0.0045333 -0.0274571 4.5098
-0.122956 0.0504371 9.28487
-0.00250733 -0.156154 12.2153
0.0107835 0.15704 5.32291
-0.385627 0.613504 8.67207
0.00313466 0.264822 11.9844
-0.00599481 0.311055 4.22834
-0.697258 1.33652 12.0182
-0.0514732 0.255031 10.5234
0.0468958 -1.05643 -2.24145
-0.242759 -0.467793 4.05128
-1.15632 1.15719 12.5579
-0.0391372 0.88893 11.0695
0.24449 0.789087 4.66469
-0.003357 0.406858 9.81547
1.5547 -0.401575 18.1275
0.0333179 0.113115 16.2529
0.0195413 -0.176658 18.9632
-0.494968 0.727782 4.20101
0.0826685 -0.742403 0.491675
-0.548607 -2.5641 -3.53032
-1.44108 0.502957 10.4104
-0.061304 -2.04943 2.43148
0.0957414 -0.616144 5.82345
1.5328 0.822396 18.3391
0.00579455 1.88127 18.2363
0.00922632 0.25748 18.8822
0.00198417 9.68545 18.0248
3.00505 0.707164 19.4221
-0.0197293 3.0147 20.2511
-0.0171799 1.26565 2.21825
0.0869995 1.12423 8.83555
-0.00353668 0.68149 11.8937
0 0 0
-1.44353 0.649645 11.5707
0.00944681 -0.635217 18.8223
0.0322677 -0.440563 4.09837
-1.36986 -0.6978 17.0976
-0.00318241 -1.17763 20.4613
0.264206 -1.4418 11.0288
-0.932245 -0.916055 18.9247
0.00493402 -1.06493 20.4461
0.0379597 -0.996287 15.1426
0.906488 -0.257037 19.8256
1.04009 -0.537128 19.4563
1.26652 -0.398136 19.2454
0.46672 -0.170062 19.6139
2.69671 -1.25039 20.0767
1.03621 -0.470375 21.1484
1.206 -0.853837 21.5067
1.3888 -0.832019 21.7391
0.238384 -0.504613 21.5359
0.192243 -0.246063 21.4792
0.0417512 -0.175684 21.4947
-0.0346068 -0.399777 21.1516
-0.0629979 -0.0620935 21.2255
-0.284096 0.0693554 21.6394
-0.350917 0.258749 21.5055
-0.469847 0.198473 21.0943
-0.960018 0.56266 20.9883
-0.820171 0.25406 21.2905
-0.989859 0.703293 20.8702
-1.37496 0.524755 20.34
-1.38371 0.786421 20.5277
-0.813549 0.216552 21.1939
-0.793183 0.608335 20.9005
-1.22503 0.372618 18.9351
-0.645189 0.521829 19.6928
0.997524 -0.112836 19.7915
1.49462 -0.00764867 19.1791
0.51411 -0.0824735 19.5678
3.39737 -0.535674 20.1025
1.20743 -0.351042 21.1219
1.91488 -0.538033 21.5145
0.633477 -1.04383 21.3069
0.346166 -0.367111 21.5749
0.651709 -0.795996 21.2004
-0.0484923 -0.154829 20.3963
-0.338639 -0.0584905 21.7438
-0.617805 0.0975352 20.2063
-1.17246 0.290537 19.5708
-0.94139 -0.0358922 21.4202
-1.42394 -0.149539 19.8449
-1.62163 0.22223 19.9268
-0.852808 -0.00441453 21.4506
-1.60099 -0.469105 19.0844
-0.683034 -0.135379 18.5564
0.993277 0.212723 19.8471
1.09072 0.656294 19.5659
0.54088 0.12939 19.5632
2.59895 0.843949 20.1398
1.31097 0.0510841 20.9534
1.67556 0.697572 20.824
2.13246 -0.299993 21.44
0.697028 -0.174902 21.6597
1.10005 0.227001 21.9812
0.321807 -0.169408 21.9959
-0.296477 -0.190418 21.692
-0.278435 -0.346126 21.79
-0.802022 -0.561693 21.5423
-0.716885 -0.377924 21.2696
-0.555072 -0.641788 21.3277
-0.864314 -0.773153 21.4177
-0.719941 -0.330743 21.0369
-0.291727 -0.511836 21.022
-0.575257 -0.406893 20.3146
-1.16793 -0.51719 19.2972
-1.29832 -0.85896 21.6666
0.0251831 -0.261051 21.3256
0.435533 0.236312 21.2492
1.25538 0.587471 20.6255
1.12381 0.603974 20.7229
-1.41836 -0.234864 19.1538
-1.63559 -0.761202 21.749
-0.172189 -0.684617 20.8537
0.53129 0.229106 20.1561
1.46798 0.146532 19.9101
1.34649 -0.0207947 18.6712
-1.36145 0.431476 19.2876
-2.01809 0.184449 21.0847
-1.16271 -0.302725 21.9434
0.433771 -0.311753 21.9056
0.903765 -0.662122 21.3014
0.790631 -0.563115 20.2088
0.0262375 -1.32567 17.4877
0.018978 -0.383233 4.70413
-0.000480314 -0.0209493 4.72876
0.0141735 0.312498 5.20665
-0.0641911 -0.182176 2.31416
0.123525 0.893072 7.53615
0.0238458 -0.590874 16.7223
0.214486 -1.37843 -2.11995
0.222406 -0.180006 2.32157
0.0179442 1.52992 16.8731
-0.00946492 1.83499 12.4406
0 0 0
-0.0082869 0.224701 0.63702
0.114127 -0.999867 8.69699
0.123823 -1.4598 14.968
1.14703 -0.497239 19.352
1.29105 -0.846594 21.6276
-0.0145921 -0.270093 21.3695
-0.433837 0.229582 21.2622
-1.23865 0.631543 20.6451
-1.05463 0.521515 19.7745
1.407 -0.23189 19.193
1.64028 -0.7642 21.7557
0.172791 -0.684845 20.8593
-0.529907 0.21831 20.2032
-1.47942 0.184007 19.9156
-1.41237 -0.0477978 18.7681
1.35236 0.423767 19.3011
2.03509 0.190442 21.0842
1.18704 -0.320475 21.9112
-0.455369 -0.317904 21.8428
-0.978954 -0.672036 21.3152
-0.699309 -0.724306 20.4845
-1.58983 -0.49791 1.73495
0 0 0
-0.302063 -0.405153 3.56474
0.0461507 0.00443779 0.170722
-0.0350458 0.00660129 0.0344153
0.0103765 0.0277209 0.194049
-1.1392 -0.0811634 1.44553
0 0 0
-0.0300532 -0.00134204 0.440864
-0.0608736 0.0433399 0.0236471
-0.015945 0.0403962 -0.01043
0.0497111 0.0531824 0.250861
0 0 0
1.59514 -0.499669 1.74025
0.291792 -0.397335 3.51355
0.0379443 0.010179 0.0452548
-0.0458267 0.00414457 0.169564
-0.0109445 0.0271235 0.19454
0 0 0
1.14549 -0.081714 1.45332
0.0311443 -0.00344114 0.445358
0.0164201 0.0386157 -0.00959084
0.0600826 0.0451317 0.0229759
-0.0499945 0.053548 0.251695
0.0995149 0.00860101 3.39227
-2.73633e-05 0.00142567 0.533641
0.000583555 -0.00181552 0.02022
0 0 0
-0.0129116 0.0180701 2.4077
-0.0173781 0.0278113 0.651139
0 0 0
0 0 0
-9.24086e-05 -0.000299297 0.000792875
2.29623e-06 -6.90012e-05 0.00110927
0.0129862 0.0415778 0.283672
-0.0388956 0.000552278 0.022152
0.000335547 0.000790167 0.00243574
1.55919e-05 0.000321431 0.000917002
0.0265628 0.0867639 0.24144
0.213923 0.0474592 0.997693
-0.0992778 0.00871773 3.38835
0 0 0
0.000150283 0.00159027 0.532778
-0.000582322 -0.00180669 0.0202018
0.0126866 0.0176732 2.40536
0 0 0
0.0174397 0.0276885 0.652831
0 0 0
0.000114896 -0.000372153 0.000984265
0.0385447 0.000511979 0.021956
-2.08987e-06 -6.7251e-05 0.00107
-0.0129837 0.0415428 0.28415
-0.000310401 0.000731231 0.00224838
-0.214569 0.047096 0.998319
-1.71362e-05 0.000349596 0.000997221
-0.0266001 0.0868596 0.241337
0 0 0
-0.0360389 -0.0785911 0.011324
-7.52504e-21 7.54045e-18 -9.52477e-17
-2.94145e-05 -0.202303 0.0695239
-2.26091e-05 -0.000104868 0.00178755
0 0 0
0 0 0
0 0 0
1.3917e-05 6.88001e-05 0.00197655
3.44035e-06 2.45545e-05 -4.54502e-05
0.0327693 0.0750384 0.850576
-0.0212196 0.0764128 0.274497
0.000813691 0.563313 0.404731
1.06383e-07 0.000182565 0.00111776
0 0 0
-0.00256239 0.00072629 0.00918347
0 0 0
-1.82323e-06 6.08118e-05 -0.00121737
0.0312266 0.0578267 0.267525
-3.39677e-18 2.05549e-18 -9.77923e-18
0.0357459 -0.0779093 0.0112456
0 0 0
0 0 0
2.27142e-05 -0.000108742 0.00178188
0 0 0
0 0 0
0.0283251 0.0796576 0.366072
-0.0312054 0.0776715 0.855671
0.00253489 0.000722508 0.00912508
0 0 0
0 0 0
-0.0316142 0.0584594 0.271299
-1.31114e-06 -3.04597e-05 -0.000243068
0 0 0
0.0153516 -0.0330303 0.286207
4.12756e-08 9.1542e-07 7.85453e-06
-1.38802e-06 -2.54663e-05 0.00190943
-5.92637e-06 -9.56136e-06 0.00110648
-2.2017e-07 -9.46527e-06 -4.58162e-05
-5.39519e-05 0.000595129 0.00433829
-1.9318e-06 -7.74515e-07 0.000533536
-3.36949e-06 3.94957e-05 0.00240068
-1.33083e-06 -4.80519e-05 -0.000203814
0.031626 0.0333762 0.394183
0 0 0
-0.000411229 0.533156 1.49221
1.0661e-07 2.04242e-05 0.00323894
0 0 0
0 0 0
1.4538e-06 -3.38709e-05 -0.000270044
-0.0153474 -0.0329806 0.286704
-2.41233e-07 5.38456e-06 4.6246e-05
7.66919e-08 -3.28941e-06 -1.59238e-05
5.44579e-05 0.000589156 0.00432154
-0.0316624 0.0333997 0.394154
8.59454e-07 -3.11147e-05 -0.00013213
0 0 0
-0.0157101 0.0133851 0.541891
0.0194888 -0.0224696 0.364527
0 0 0