# vtk DataFile Version 2.0
tri_press
ASCII
DATASET UNSTRUCTURED_GRID
POINTS 3682 float
-0.745 0.355 -2.63669
-0.815 0.335 2.65155
-0.815 0.595 -2.56297
-0.755 0.967672 2.635
0.745 0.355 -2.63669
0.815 0.335 2.65155
0.815 0.595 -2.56297
0.755 0.967685 2.635
-0.832796 0.283871 -0.873943
-0.843303 0.29003 0.888804
-0.84859 0.772814 -0.830313
-0.828089 0.896537 0.902344
0.832799 0.283868 -0.873943
0.844351 0.288983 0.888804
0.848595 0.772824 -0.830313
0.828089 0.896545 0.902344
-1.56486 0.0667609 -4.0546
-1.57536 0.107659 -2.65646
-1.63647 0.0545087 -0.892932
-1.65453 0.0220409 0.876648
-1.63424 0.0471095 2.64068
-1.6303 0.0935174 4.04133
-1.6358 0.147382 5.43735
-1.56686 0.264989 -4.02856
-1.5766 0.333 -2.6337
-1.64892 0.307339 -0.876032
-1.6555 0.307718 0.884347
-1.61811 0.346158 2.64259
-1.62102 0.392814 4.04281
-1.6325 0.44363 5.43981
-1.59712 0.600764 -3.96803
-1.62302 0.663977 -2.57193
-1.6653 0.790091 -0.83477
-1.64498 0.893321 0.900255
-1.58305 0.96255 2.63799
-1.60362 1.00389 4.03945
-1.62849 1.04372 5.44131
-1.62955 1.2486 -3.89986
-1.64469 1.33821 -2.50826
-1.66016 1.51084 -0.780861
-1.65808 1.68492 0.940055
-1.64421 1.80415 2.66777
-1.64187 1.8636 4.06002
-1.6491 1.9071 5.45859
-0.758593 0.0790887 -4.05654
-0.756308 0.124919 -2.65929
-0.812594 0.04479 -0.892552
-0.834223 0.00669497 0.880452
-0.823454 0.0351469 2.64733
-0.822762 0.0854677 4.04584
-0.82791 0.14217 5.43996
-0.758119 0.26857 -4.02916
-0.820319 0.387352 4.04653
-0.82798 0.440192 5.44178
-0.783169 0.57344 -3.96431
-0.806068 1.00587 4.03885
-0.827284 1.04473 5.44118
-0.810897 1.22612 -3.89618
-0.822201 1.31504 -2.50421
-0.836193 1.50111 -0.778418
-0.841231 1.6891 0.939762
-0.836709 1.81215 2.66568
-0.836634 1.87029 4.05793
-0.843071 1.91186 5.45707
0.811045 0.0790566 -4.05654
0.797634 0.124896 -2.65929
0.83631 0.0446579 -0.892553
0.83753 0.00598728 0.880452
0.816237 0.0348749 2.64733
0.799161 0.085258 4.04584
0.790229 0.141944 5.43996
0.804113 0.268552 -4.02916
0.787522 0.387215 4.04653
0.782372 0.439994 5.44178
0.820733 0.573426 -3.96431
0.765942 1.00577 4.03885
0.770739 1.04456 5.44118
0.822711 1.22608 -3.89618
0.821798 1.315 -2.50421
0.816863 1.50105 -0.778418
0.79816 1.689 0.939762
0.776654 1.81202 2.66568
0.769648 1.87014 4.05793
0.766483 1.91169 5.45707
1.60762 0.0666747 -4.0546
1.59895 0.107575 -2.65646
1.64988 0.0542019 -0.892932
1.66252 0.0210513 0.876648
1.63599 0.0464288 2.64068
1.61498 0.0930182 4.04133
1.60374 0.146907 5.43735
1.59854 0.264931 -4.02856
1.57536 0.332964 -2.6337
1.64704 0.307163 -0.876032
1.66204 0.306691 0.884347
1.6243 0.345578 2.64259
1.60181 0.392401 4.04281
1.59414 0.443199 5.43981
1.61883 0.600718 -3.96803
1.61598 0.663955 -2.57193
1.65861 0.790038 -0.83477
1.64647 0.892966 0.900255
1.58398 0.962186 2.63799
1.57562 1.00357 4.03945
1.57877 1.04335 5.44131
1.63704 1.2485 -3.89986
1.63945 1.33811 -2.50826
1.6392 1.5107 -0.780862
1.61971 1.6847 0.940054
1.59143 1.80386 2.66777
1.57975 1.86328 4.06002
1.57562 1.90675 5.45859
-0.791593 0.475 -2.61142
0 0.332225 -2.65947
-0.900318 0.208016 -1.75532
-0.792279 0.651336 2.65055
0 0.312758 2.67379
-0.899042 0.242625 1.77018
0 0.651731 -2.6197
-0.88341 0.735522 -1.69664
0 0.978497 2.64582
-0.804211 0.944771 1.76867
0.79166 0.475 -2.61149
0.900315 0.208018 -1.75532
0.792311 0.651342 2.65059
0.899042 0.242625 1.77018
0.883435 0.735549 -1.69664
0.804192 0.944763 1.76867
-0.835029 0.289971 0.00743008
-0.848695 0.528342 -0.852128
1.34343e-06 0.206817 -0.873943
-0.848684 0.593283 0.895574
0.000523933 0.224446 0.888804
-0.843416 0.839752 0.036015
2.72111e-06 1.18851 -0.830313
1.39611e-07 1.48725 0.902344
0.835032 0.289968 0.00743008
0.848701 0.528346 -0.852128
0.84869 0.592764 0.895574
0.843418 0.83976 0.036015
-0.897723 0.501671 -1.72598
0.897723 0.501673 -1.72598
6.71715e-07 0.206711 -1.75532
1.36055e-06 0.97209 -1.69664
0 0.475 -2.73975
-0.848691 0.560813 0.0217226
0.848697 0.560555 0.0217226
0.000262638 0.206956 0.00743008
1.43036e-06 1.48724 0.036015
-0.897332 0.62231 1.76942
0.897344 0.622053 1.76942
0.000261966 0.255498 1.77018
6.98057e-08 1.08167 1.76867
0 0.651339 2.65089
-0.773624 0.415 -2.62938
-0.3725 0.332809 -2.65888
-0.84723 0.256937 -2.196
-0.827584 0.493168 2.675
-0.4075 0.312753 2.6738
-0.850038 0.295795 2.21086
-0.809629 0.535 -2.59353
-0.4075 0.626107 -2.59408
-0.848382 0.664438 -2.12981
-0.781186 0.809504 2.65032
-0.3775 0.978487 2.64581
-0.788257 0.964873 2.20184
0.3725 0.332584 -2.65911
0.773649 0.415 -2.62941
0.847146 0.257021 -2.196
0.4075 0.312774 2.67378
0.827584 0.493171 2.675
0.850025 0.295808 2.21086
0.4075 0.624985 -2.59296
0.809672 0.535 -2.59357
0.84838 0.664437 -2.12981
0.3775 0.978508 2.64583
0.78119 0.809514 2.65033
0.788251 0.964879 2.20184
-0.900814 0.211686 -1.31463
-0.833915 0.286918 -0.433257
-0.848693 0.402133 -0.863036
-0.429424 0.219291 -0.873943
-0.901112 0.236388 1.32949
-0.836105 0.293062 0.448117
-0.848694 0.440307 0.892189
-0.443812 0.212394 0.888804
-0.848606 0.736774 -1.26348
-0.848669 0.650592 -0.841221
-0.848416 0.808696 -0.397149
-0.50325 1.13858 -0.830313
-0.815523 0.920027 1.33551
-0.84872 0.750077 0.898959
-0.835771 0.868163 0.469179
-0.55717 1.47814 0.902344
0.900813 0.211687 -1.31463
0.429426 0.21929 -0.873943
0.833918 0.286915 -0.433257
0.8487 0.402132 -0.863036
0.901112 0.236388 1.32949
0.444388 0.212814 0.888804
0.836146 0.293021 0.448117
0.8487 0.439783 0.892189
0.848606 0.736777 -1.26348
0.503239 1.13855 -0.830313
0.848676 0.650599 -0.841221
0.848432 0.808717 -0.397149
0.815516 0.920029 1.33551
0.557168 1.47814 0.902344
0.84872 0.74982 0.898959
0.835771 0.868171 0.469179
-0.867651 0.488336 -2.1687
-0.395796 0.475 -2.72948
3.35858e-07 0.236508 -2.20739
0 0.403612 -2.73809
-0.899499 0.354843 -1.74065
-0.450158 0.224255 -1.75532
-0.84891 0.636823 2.20999
-0.39614 0.651338 2.65089
0.000130983 0.249097 2.22198
0 0.482048 2.73979
-0.899246 0.432467 1.7698
-0.44939 0.248366 1.77018
6.80276e-07 0.918559 -2.15817
0 0.563366 -2.73595
-0.896311 0.618597 -1.71131
-0.441704 0.962389 -1.69664
3.49029e-08 1.04776 2.20724
0 0.814918 2.64218
-0.886531 0.78354 1.76905
-0.402105 1.05647 1.76867
0.867659 0.488336 -2.16873
0.39583 0.475 -2.72948
0.899499 0.354845 -1.74065
0.450158 0.224254 -1.75532
0.848916 0.636698 2.21001
0.396156 0.651341 2.65089
0.89927 0.432339 1.7698
0.449652 0.248996 1.77018
0.896311 0.618611 -1.71131
0.441718 0.962382 -1.69664
0.886589 0.783408 1.76905
0.402096 1.0565 1.76867
-0.848693 0.421975 0.0145763
-0.434969 0.213292 0.00743008
-0.895431 0.515007 -1.28905
-0.848691 0.544578 -0.415203
1.00757e-06 0.192924 -1.31463
0.000131991 0.206887 -0.433257
-0.848683 0.577048 0.458648
-0.896765 0.607797 1.3325
0.000393285 0.207021 0.448117
0.00039295 0.225086 1.32949
-0.848661 0.701586 0.0288688
-0.578515 1.47711 0.036015
2.04083e-06 1.00082 -1.26348
2.07573e-06 1.47883 -0.397149
7.84985e-07 1.48724 0.469179
1.04709e-07 1.31952 1.33551
0.8487 0.421844 0.0145763
0.435232 0.213292 0.00743008
0.895431 0.515009 -1.28905
0.848697 0.54445 -0.415203
0.84869 0.576659 0.458648
0.896769 0.607409 1.3325
0.848668 0.701463 0.0288688
0.578515 1.47711 0.036015
-0.867689 0.384922 -2.18235
-0.898113 0.380475 -1.30184
-0.864925 0.634587 -1.27627
-0.866566 0.576798 -2.14925
0.867695 0.384923 -2.18237
0.866521 0.576805 -2.14927
0.86491 0.634598 -1.27627
0.89812 0.380476 -1.30184
-0.411329 0.234913 -2.2017
0.411329 0.23491 -2.2017
0.433279 0.213374 -1.31463
-0.433278 0.213375 -1.31463
-0.424602 0.910973 -2.14399
-0.432999 0.999259 -1.26348
0.433008 0.999261 -1.26348
0.424609 0.910968 -2.14399
-0.384148 0.409306 -2.73046
-0.401648 0.549183 -2.7289
0.401665 0.549183 -2.7289
0.384165 0.409306 -2.73046
-0.848693 0.412054 -0.42423
-0.848693 0.431141 0.453382
-0.848628 0.725801 0.463914
-0.848665 0.676089 -0.406176
0.8487 0.411988 -0.42423
0.848672 0.676031 -0.406176
0.848632 0.72561 0.463914
0.8487 0.430814 0.453382
-0.431941 0.216803 -0.433257
0.432074 0.216803 -0.433257
0.440084 0.212506 0.448117
-0.439611 0.212402 0.448117
-0.600452 1.42698 -0.397149
-0.567854 1.47765 0.469179
0.567853 1.47765 0.469179
0.600452 1.42698 -0.397149
-0.898772 0.437062 1.33099
-0.859885 0.462818 2.21043
-0.848716 0.796522 2.20591
-0.887121 0.764225 1.334
0.898777 0.436606 1.33099
0.887201 0.764031 1.334
0.848722 0.796461 2.20592
0.859891 0.462755 2.21043
-0.43539 0.211277 1.32949
0.436045 0.222703 1.32949
0.428576 0.249167 2.21642
-0.428445 0.249167 2.21642
-0.408075 1.30826 1.33551
-0.389803 1.04782 2.20454
0.389798 1.04782 2.20454
0.40807 1.30832 1.33551
-0.40182 0.487608 2.73979
0.401828 0.48761 2.73979
0.386828 0.812216 2.65046
-0.38682 0.812211 2.65046
-0.764241 0.385 -2.63797
-0.55875 0.329976 -2.66171
-0.813333 0.28875 -2.41635
-0.827098 0.414084 2.66908
-0.61125 0.312752 2.6738
-0.84378 0.304137 2.43121
-0.816951 0.565 -2.58289
-0.61125 0.621765 -2.58973
-0.83746 0.635488 -2.34639
-0.775158 0.888588 2.64973
-0.56625 0.978482 2.64581
-0.780021 0.974665 2.41842
0.55875 0.329929 -2.66176
0.764247 0.385 -2.63797
0.81333 0.288753 -2.41635
0.61125 0.312782 2.67377
0.827093 0.414086 2.66907
0.843747 0.30417 2.43121
0.61125 0.62188 -2.58985
0.816983 0.565 -2.58292
0.837477 0.635505 -2.34639
0.56625 0.978513 2.64583
0.775161 0.888599 2.64973
0.779999 0.974656 2.41842
-0.858334 0.256249 -1.09429
-0.833358 0.285392 -0.6536
-0.846435 0.340156 -0.86849
-0.655484 0.202833 -0.873943
-0.894054 0.241363 1.10915
-0.836662 0.294588 0.66846
-0.853571 0.361382 0.890496
-0.667761 0.202805 0.888804
-0.848544 0.75474 -1.0469
-0.848659 0.711717 -0.835767
-0.848487 0.790739 -0.613731
-0.723941 1.05174 -0.830313
-0.823088 0.909564 1.11893
-0.846772 0.827491 0.900651
-0.83191 0.88233 0.685761
-0.707343 1.21677 0.902344
0.858333 0.25625 -1.09429
0.655486 0.202833 -0.873943
0.833361 0.285389 -0.6536
0.846441 0.340154 -0.86849
0.89407 0.241346 1.10915
0.668415 0.202807 0.888804
0.836662 0.294588 0.66846
0.853614 0.360839 0.890496
0.848552 0.754752 -1.0469
0.723941 1.05173 -0.830313
0.848664 0.711725 -0.835767
0.84849 0.790747 -0.613731
0.823083 0.909568 1.11893
[...]
POINT_DATA 3682
SCALARS point_scalars float 1
LOOKUP_TABLE default
0.724782
-45.6929
-63.4246
-42.1095
0.610342
-45.4526
-63.5112
-42.0662
-33.2882
-24.0149
-41.6645
-44.6963
-33.3011
-24.2115
-41.6812
-44.7229
57.3005
-95.6466
-39.5465
-32.1015
-43.9483
-43.7933
-36.3532
63.1501
-95.6466
-32.4953
-31.0799
-46.1273
-41.1579
-37.048
64.9073
-92.4784
-41.3626
-41.6655
-45.1837
-40.7609
-36.4304
30.2312
-93.4875
-73.6874
-55.5623
-43.1323
-42.7044
-40.2382
111.059
-68.3735
-36.6947
-28.5924
-46.0201
-36.6816
-36.3532
139.216
-36.3532
-36.1389
169.85
-35.951
-35.951
119.964
-94.1174
-64.0921
-57.6956
-40.2212
-38.4106
-38.3025
109.78
-63.1437
-36.7131
-28.8002
-45.5152
-36.6432
-36.1803
109.78
-36.1803
-35.9533
160.737
-35.7556
-35.7556
108.941
-94.2322
-64.1101
-57.6806
-40.1597
-38.2726
-38.2726
-12.8683
-95.7198
-39.538
-32.0904
-43.7844
-42.8897
-36.1803
63.0371
-95.7198
-32.5112
-31.2694
-45.9578
-39.3578
-36.8527
64.5293
-92.5847
-41.381
-41.6624
-45.0742
-40.5756
-35.7556
26.8677
-93.6977
-72.5961
-55.5465
-43.0914
-42.5639
-40.1307
-19.5307
-89.5266
-49.804
-39.7513
-34.9885
-45.3865
141.599
-44.5295
-35.8044
-46.3436
-19.629
-49.7469
-39.5707
-45.1482
-44.1584
-46.3246
-34.1527
-34.7336
-38.3306
-34.3298
-37.9316
-48.289
44.0247
-64.5559
-34.171
-34.7577
-34.3255
-48.3131
-47.7708
-47.6745
-51.7578
-18.9523
200.451
-38.8798
-38.8963
-34.9931
-87.4868
-43.3518
-43.3553
-38.6868
-44.8041
-33.477
0.423739
-85.3727
-43.8654
-42.506
-38.0429
-38.8576
-32.237
120.003
-53.2484
-39.6121
-35.7659
-41.3612
-84.4244
0.275012
-44.5069
-37.9261
-42.3105
-38.9369
119.542
-32.3172
-53.6524
-35.7254
-39.4441
-41.3177
-47.1433
-33.3621
-33.0014
-37.1961
-42.535
-33.1225
-30.1815
-36.3312
-37.5325
-37.3935
-48.1848
20.0203
-48.8375
-38.7189
-44.9631
-60.3736
-47.1514
-37.23
-33.3733
-33.02
-42.4942
-37.0148
-33.1532
-30.1931
-37.5739
19.9891
-37.418
-48.2113
-48.824
-60.3873
-38.7152
-45.0063
-50.7813
195.43
-75.5
137.259
-48.3465
-51.8841
-39.2282
-34.0755
-38.6827
-28.9262
-40.8067
-40.4382
-54.1466
184.075
-47.2203
-22.1841
-41.0874
-33.7401
-48.9393
-45.4595
-50.9607
195.519
-48.2335
-51.7791
-39.184
-34.1308
-40.7514
-40.3598
-46.6598
-22.194
-48.9007
-45.4572
-36.4646
-34.4043
-44.8515
-38.2761
-45.455
-35.6377
-37.1799
-45.3548
-35.6794
-39.1256
-42.0892
-76.4755
9.56121
-134.291
-68.3716
-50.4803
-36.4826
-34.4262
-44.914
-38.2937
-37.2929
-45.3053
-42.1095
-76.471
-47.8659
-46.3803
-40.9607
-52.5112
-47.982
-52.909
-41.0227
-46.4141
-71.3851
-71.285
-44.5571
-44.5886
-53.543
1.35433
1.33356
-53.6284
157.374
178.861
177.728
157.552
-35.5506
-35.0685
-39.8667
-41.9384
-35.5661
-42.0205
-39.8863
-35.0856
-34.9013
-34.902
-34.7614
-34.6853
-96.9656
-61.1142
-61.1091
-97.2208
-44.4412
-39.1985
-39.0365
-43.8685
-44.4053
-43.8203
-38.9849
-39.188
-39.3828
-39.3607
-39.4822
-39.0194
-51.2677
-40.969
-40.9662
-51.3145
-32.8601
-32.7817
-34.3699
-34.3352
6.61077
-40.6127
-76.6465
-44.0177
-40.4893
-40.9858
-44.6253
84.4219
-78.0338
-41.098
-36.6282
-41.3698
-39.2186
6.47223
-76.5052
-40.1913
-43.8387
-41.0466
85.1995
-44.7025
-78.2435
-36.547
-40.9566
-41.3162
-39.5512
-32.4753
-32.4015
-35.8214
-36.777
-30.865
-28.545
-32.7178
-37.6992
-39.3461
-45.7471
-46.6671
-45.9356
-41.7418
-44.2429
-52.6912
-39.5466
-35.8581
-32.4866
-32.4169
-36.7978
-32.8937
-30.8723
-28.6065
-37.7173
-45.4009
-39.3687
-45.7686
-45.9432
-52.703
-41.7424
-44.2833
-6.56546
-27.6587
-81.8827
171.585
-89.2252
-89.2979
-102.046
48.4398
-48.1149
-45.5783
-48.8528
-52.5554
-40.7409
-39.5655
-40.9371
-35.0429
-35.8856
-35.8162
-37.661
-30.4924
-46.8712
-43.5433
-38.2152
-41.3054
138.95
138.738
-93.0266
135.09
-42.7122
-45.8665
-46.2045
-30.0046
-35.7034
-35.6828
-38.2353
-34.6162
-43.1687
-50.8548
-46.6833
-46.5521
-6.70317
-27.7336
-82.0004
171.625
-47.9904
-45.5877
-48.7692
-52.4729
-40.5554
-39.3995
-40.8472
-34.9412
-46.9583
-43.5436
-38.4438
-41.2743
-45.0965
-45.9351
-44.8602
-29.9495
-43.1534
-50.8587
-46.6416
-46.5499
-34.0358
-33.8367
-35.3008
-33.9259
-33.7773
-35.9085
-36.053
-36.7362
-38.2297
-38.2376
-43.171
-36.8092
-31.9695
-36.6537
-35.9591
-34.5443
-38.6336
-38.4489
-37.0128
-38.3126
-48.5986
-45.3851
-44.4364
-59.5272
39.4102
39.4799
22.8898
10.3764
-64.3722
-64.3786
-64.6976
-58.9567
-34.05
-33.8604
-35.3187
-33.9442
-33.7989
-35.9337
-36.0816
-36.7577
-31.9651
-36.6472
-35.966
-34.5469
-48.6191
-45.4199
-44.4584
-59.5146
-45.3762
-48.2886
-48.1576
-45.0445
-44.6649
-48.1691
-48.0477
-45.1146
-53.8461
-52.1558
-52.1244
-49.0717
-33.3286
-19.5596
-19.5873
-4.16524
201.682
182.477
206.533
201.718
-37.5959
-38.7798
-38.1756
-40.368
-37.6019
-38.8004
-38.1925
-40.3701
-34.8798
-35.2476
-35.1084
-34.8922
-85.4537
-112.566
-75.505
-85.455
-45.9937
-46.0419
-43.1456
-49.2083
-45.9424
-46.025
-43.1045
-49.294
-35.537
-39.4591
-39.4489
-40.2177
-43.6667
-45.0372
-45.0373
-46.8629
-33.4989
-31.396
-33.2682
-33.5958
-80.9355
147.809
-98.5609
65.1617
-44.6714
-64.6863
-40.693
-34.9437
-38.439
-34.1994
-39.0088
-39.5418
-79.429
161.064
-96.9684
126.928
-53.3913
-53.2378
-40.9324
-35.0316
-38.2675
-34.7355
-39.9014
-41.8275
-98.7504
65.2867
-81.0367
147.827
-44.8337
-65.0011
-39.2689
-34.0763
-40.6157
-34.7718
-39.0187
-39.8936
-97.0368
128.159
-79.5937
161.476
-53.8767
-53.3091
-38.2505
-34.7412
-40.8438
-34.9342
-39.8517
-41.8161
-47.0905
-44.847
-34.3052
-34.207
-37.4983
-34.103
-42.0297
-36.2338
-44.0246
-40.4718
-34.1211
-33.7295
-33.3254
-34.7745
-35.2183
-39.6669
-40.1564
-13.0109
-36.4341
-39.9663
-44.3092
-73.0943
9.01339
-6.93116
-47.2773
-54.844
-39.0293
-39.4641
-41.956
-51.9215
-59.2831
-61.74
-47.1137
-44.8141
-42.0677
-36.2247
-34.3192
-34.2049
-37.5038
-34.1195
-43.9937
-40.2916
-35.3561
-39.2997
-34.1434
-33.7965
-33.3354
-34.8299
-40.2088
-13.0134
8.976
-6.78522
-36.4758
-39.9884
-44.333
-73.1068
-47.2571
-54.8572
-59.282
-61.729
-39.0401
-39.428
-41.9802
-51.9177
-49.1872
-51.3218
182.551
193.952
-74.2416
-74.2174
142.748
142.858
-50.7628
-45.025
-51.3878
-48.121
-39.2565
-39.0234
-33.5113
-33.9265
-38.9049
-38.8515
-30.125
-30.0652
-44.6998
-48.7133
-41.8528
-34.4648
-53.4872
-53.7897
181.235
181.789
-45.7493
-44.428
-35.0836
-9.82701
-41.0138
-41.0139
-33.8858
-33.8223
-41.7607
-46.5893
-47.5775
-43.6167
-49.3115
-51.5942
193.988
182.677
-50.538
-45.0326
-51.3747
-48.0144
-38.9744
-39.2224
-33.5697
-33.9717
-44.6698
-48.7084
-41.4521
-34.2255
-41.3796
-45.9661
-9.83207
-35.1192
-46.6528
-41.7255
-43.6169
-47.5738
-36.3425
-36.0355
-34.691
-34.4591
-45.8273
-42.9832
-36.8259
-39.9487
-45.0446
-45.0562
-35.4617
-35.4629
-36.0428
-38.475
-44.8068
-44.6298
-35.4521
-35.4056
-39.2707
-39.2504
-40.8651
-42.505
-99.4359
-66.1148
7.6378
7.61789
-119.174
-119.108
-66.7527
-66.7533
-50.6968
-50.6944
-36.3589
-36.0547
-34.6946
-34.4945
-43.0562
-45.8833
-36.8257
-39.9694
-38.4746
-36.0595
-44.7681
-44.5785
-42.5251
-40.887
-66.1101
-99.4305
-78.4142
-52.7015
-49.0765
-81.8495
-38.5766
-36.6992
-45.0665
-45.1035
-37.0838
-47.0705
-45.3378
-36.1042
-77.5374
-80.5163
-44.0382
-42.9735
-78.5114
-81.9594
-48.752
-52.5018
-77.7351
-41.0175
-43.0847
-80.6564
-37.1195
-36.1417
-45.4682
-47.3112
-38.5828
-45.1003
-45.0978
-36.7161
-89.091
-101.245
-53.8149
-47.42
-88.7469
-47.2819
-53.7746
-101.306
-41.7817
-42.1423
-48.4231
-48.0089
-41.7724
-48.1069
-48.4528
-42.1369
-93.0284
-37.3551
-33.8301
-94.182
-25.3353
19.9347
-5.50985
-20.7579
-25.3392
-20.7408
-5.52468
19.8972
-93.0975
-93.9977
-33.9126
-37.3507
98.5184
165.032
186.445
57.7278
119.957
131.329
209.009
168.957
121.008
169.135
208.985
130.445
92.8533
57.7726
186.513
165.166
-33.0259
-35.0805
-37.4613
-35.4005
-32.1438
-34.5962
-36.9816
-35.0261
-41.4894
-42.7839
-39.5121
-37.4213
-42.2621
-38.3042
-40.8231
-44.6884
-33.0402
-35.2722
-37.4805
-35.0964
-42.2857
-44.7106
-40.6247
-38.1437
-41.509
-37.4316
-39.5322
-42.8111
-32.1534
-35.0466
-37.0564
-34.6049
-34.6537
-36.851
-35.146
-34.0467
-34.6439
-34.0527
-35.151
-36.8526
-33.5428
-36.5702
-34.9664
-33.8797
-33.4213
-33.8439
-34.9437
-36.4751
-79.3832
-65.8403
-110.808
14.4413
-51.0479
-63.6472
-73.4267
-54.6982
-51.0584
-54.6835
-73.4276
-63.6489
-79.4954
14.5158
-110.812
-65.8365
-34.9464
-44.534
-45.0302
-34.8936
-40.2113
-40.8923
-45.1041
-50.6176
-40.9523
-41.548
-44.0251
-40.8722
-43.4261
-36.2486
-48.2899
-50.4734
-34.9426
-34.9313
-45.0162
-44.5003
-43.4075
-50.4877
-48.5319
-36.2376
-40.8731
-40.7786
-44.0026
-41.5145
-40.1372
-50.6642
-45.079
-40.8014
-39.3612
-38.3526
-40.482
-44.2992
-39.3229
-44.3101
-40.489
-38.3196
-40.4696
-38.1483
-35.2316
-35.3093
-39.387
-35.4497
-35.0922
-37.8703
-54.2645
-49.7281
-47.0627
-59.6344
-39.3903
-38.1532
-43.662
-44.2055
-39.356
-44.2033
-43.662
-38.1475
-54.2614
-59.6272
-47.059
-49.7571
-35.8986
-31.624
-31.9937
-34.9925
-35.7812
-34.8697
-32.1021
-31.4977
-35.1839
-34.6287
-33.4729
-34.7862
-35.2835
-34.8891
-33.3977
-34.5949
3.11702
-5.33543
-68.9269
-44.9678
-42.0315
-44.2765
-54.0913
48.1217
-99.9862
-42.0759
-38.2334
-42.9861
-5.62699
2.98193
-68.9098
-41.9014
-44.7764
-43.9593
48.0505
-54.1613
-100.116
-38.1999
-41.9393
-42.9138
-35.4544
-32.0435
-32.5681
-35.5332
-23.3525
-28.1567
-26.8275
-26.5181
-40.0427
-40.4182
-43.2874
-53.9994
-45.361
-43.252
-44.2917
-47.7773
-35.463
-35.5472
-32.0565
-32.5819
-23.5229
-26.7186
-28.1046
-26.9609
-40.0585
-53.9393
-40.4385
-43.303
-45.3802
-47.8254
-43.2645
-44.3285
-14.1441
-24.4527
-96.7567
116.051
-85.6098
-85.6796
-84.0521
-35.2136
-55.4716
-47.49
-49.3209
-51.723
-40.1265
-39.6142
-45.1177
-35.7897
-35.2148
-35.1804
-38.1103
-32.4028
-36.2541
-44.8573
-39.477
-41.7575
141.821
141.671
-64.6782
141.137
-47.4071
-45.3956
-49.6359
-37.6168
-35.8045
-35.7893
-36.8942
-34.9486
-44.5081
-48.2173
-46.0275
-46.9877
-14.2785
-24.5349
-96.9122
115.915
-55.1897
-47.4711
-49.2532
-51.6277
-39.9463
-39.4407
-44.9597
-35.6238
-36.2021
-45.0293
-39.5839
-41.1312
-45.1452
-45.5548
-45.0914
-37.4444
-44.4933
-48.1909
-45.9939
-46.9794
-34.1437
-34.2105
-34.6018
-33.3135
-34.239
-35.3057
-34.671
-35.6091
-38.324
-38.328
-40.654
-37.6047
-33.1409
-35.4981
-35.1717
-33.8303
-38.5347
-38.0644
-38.8504
-37.6668
-48.271
-47.4258
-46.1177
-53.2105
43.2246
43.1598
34.5432
39.4399
-64.5627
-64.5624
-64.0745
-64.0274
-34.1605
-34.2317
-34.6202
-33.3311
-34.2619
-35.3306
-34.6971
-35.6308
-33.1341
-35.4923
-35.1727
-33.8001
-48.293
-47.4548
-46.1402
-53.213
-47.8725
-48.2261
-47.8562
-46.3971
-47.3902
-48.1186
-47.7562
-46.398
-47.9969
-52.4312
-52.4109
-49.8572
-26.1365
-19.1178
-19.1373
-11.2146
205.479
195.382
206.725
205.492
-38.2092
-39.0241
-38.5705
-39.5819
-38.2263
-39.0402
-38.5877
-39.5994
-34.9682
-35.0775
-35.0027
-34.9748
-87.1051
-97.3179
-80.6903
-87.1071
-43.7882
-46.4579
-43.6116
-43.564
-43.7424
-46.4272
-43.6251
-43.5813
-35.1898
-38.8659
-38.9417
-40.4976
-44.3579
-44.8847
-44.8842
-45.6828
-33.4192
-33.9923
-32.983
-33.4734
3.30574
-1.81862
-90.6542
110.146
-75.1861
-81.0805
-81.5197
-0.487955
-53.5509
-39.6177
-43.988
-59.3309
-43.0126
-41.6599
-44.699
-36.5016
-39.1849
-36.8614
-41.011
-35.6484
-38.9723
-46.2724
-38.8076
-39.6091
-36.1628
-29.9461
-98.9043
97.8469
108.342
130.118
-73.0426
110.026
-65.4615
-42.5385
-53.3992
-54.5393
-40.2121
-39.2823
-46.3318
-35.7282
-36.0908
-35.7011
-36.9896
-35.0325
-41.1835
-41.7654
-40.4383
-42.5197
-72.6768
-81.1352
-82.6674
-0.186326
3.14944
-1.96613
-90.78
110.034
-54.0921
-39.7323
-44.251
-60.0377
-39.0856
-36.7742
-40.6918
-35.5976
-42.8215
-41.4673
-44.544
-36.3015
-39.067
-46.3346
-38.8383
-39.8133
108.495
129.729
-74.3474
109.864
-36.237
-30.0254
-99.0528
97.3662
-65.7175
-42.8581
-53.8486
-54.6466
-36.0246
-35.6655
-36.9569
-35.0121
-40.0592
-39.1502
-46.195
-35.5769
-41.1427
-41.7414
-40.3926
-42.4981
-46.6201
-45.4257
-47.354
-45.2065
-32.9337
-33.9261
-33.715
-33.0431
-32.608
-33.3901
-33.9792
-33.3743
-36.735
-37.6018
-39.3386
-36.6651
-41.9377
-42.6222
-43.423
-41.3209
-32.369
-33.5954
-33.5041
-32.6625
-29.5181
-31.0755
-32.0085
-28.1018
-34.3126
-38.1483
-35.6686
-38.5559
-36.3467
-41.4035
-39.203
-25.2446
-38.3115
-36.6305
-36.4348
-38.699
-46.8304
-48.3948
-46.0193
-59.1745
-6.12532
33.0418
12.7292
15.9076
-47.2949
-50.7063
-48.0632
-53.526
-40.0867
-37.6661
-38.7686
-38.9983
-44.3757
-44.637
-43.4835
-48.2218
-58.5492
-64.0465
-59.7685
-67.9606
-46.622
-45.4216
-47.3704
-45.1903
-36.7801
-37.6149
-39.3928
-36.6619
-32.9446
-33.9388
-33.728
-33.0472
-32.6251
-33.4102
-33.9979
-33.3917
-41.8946
-42.6069
-43.3897
-41.2409
-34.6661
-38.3236
-35.9588
-38.8863
-32.399
-33.6197
-33.5309
-32.7108
-29.5409
-31.0755
-32.0201
-28.0624
-36.3727
-41.4687
-39.2562
-25.2391
-6.6115
32.9792
12.6761
15.9709
-38.3349
-36.6555
-36.4634
-38.7208
-46.8571
-48.4181
-46.044
-59.2008
-47.2904
-50.7022
-48.0445
-53.3689
-58.5503
-64.066
-59.7711
-67.9394
-40.0831
-37.6599
-38.7718
-38.9821
-44.4166
-44.6744
-43.5162
-48.2656
-63.2853
-47.4049
-49.9175
-50.8614
189.932
203.548
189.702
197.43
-87.3785
-69.1584
-74.9941
-74.9787
114.682
159.841
150.241
150.292
-48.5404
-48.1457
-50.9266
-46.3232
-52.5881
-51.9563
-47.2214
-49.446
-39.4807
-41.6184
-39.3043
-39.0926
-34.5209
-33.7083
-34.37
-33.8685
-38.485
-38.6949
-38.7359
-38.7695
-29.1614
-29.505
-28.7524
-28.7089
-39.9714
-43.2472
-44.7512
-41.9512
-40.6964
-39.8633
-42.9148
-36.2517
-71.0581
-42.7998
-53.6784
-53.8597
139.236
195.109
185.963
182.64
-45.7585
-47.9388
-45.9782
-47.4071
-24.3608
-20.6527
-28.5525
-16.0782
-39.6095
-42.4707
-41.0757
-41.0759
-34.1258
-33.5929
-33.8596
-33.8203
-48.1067
-46.2351
-46.1888
-46.787
-45.8381
-45.2249
-46.2805
-44.7927
-63.4488
-47.5691
-50.0641
-51.0791
190.045
203.6
197.488
189.807
-48.4397
-48.0209
-50.6577
-46.2825
-52.5109
-51.8787
-47.2855
-49.3242
-39.4202
-41.586
-39.0462
-39.2639
-34.5036
-33.8034
-34.4505
-33.9206
-39.9047
-43.2013
-44.6937
-41.9461
-41.4705
-40.0017
-41.6439
-36.2096
-44.9303
-47.784
-46.5337
-46.2359
-24.3568
-20.6759
-16.123
-28.574
-47.9564
-46.1917
-46.7834
-46.1617
-45.8355
-45.2232
-44.792
-46.2739
-35.8979
-37.0002
-36.4783
-36.3092
-34.2477
-34.6727
-34.5852
-34.3711
-39.8936
-44.3666
-45.3602
-43.9363
-37.5772
-38.6208
-37.5528
-39.0963
-43.8772
-47.4514
-45.2801
-45.2863
-36.153
-35.4826
-35.44
-35.4416
-36.581
-37.7367
-36.6537
-37.6833
-40.9873
-46.492
-45.0677
-45.1802
-36.2174
-35.33
-35.6229
-35.5963
-38.6447
-39.5675
-39.1935
-39.1482
-43.0166
-41.1872
-41.5162
-42.383
-67.0684
-82.9619
-86.0922
-70.6348
16.926
2.83395
9.12753
9.1128
-48.8384
-132.228
-131.108
-131.046
-66.1219
-71.4618
-68.02
-68.0207
-53.7473
-48.3355
-50.5494
-50.5483
-35.9155
-37.0179
-36.4951
-36.3279
-34.2674
-34.6902
-34.5897
-34.4022
-39.9311
-44.4458
-44.0044
-45.4195
-37.5361
-38.7667
-37.57
-39.1149
-36.5869
-37.7525
-37.7039
-36.6739
-40.9768
-46.4306
-45.0269
-45.1412
-43.0371
-41.2062
-42.4027
-41.5383
-67.0573
-82.9595
-70.6296
-86.0905
-61.8974
-47.4616
-48.9254
-44.6285
-46.7259
-42.576
-44.7258
-46.2038
-40.6301
-37.8619
-45.0849
-41.9908
-64.5265
-53.1459
-51.8741
-48.2318
-62.0209
-47.5883
-49.0378
-44.6025
-64.7502
-53.6264
-52.1973
-49.4229
-40.6831
-37.9041
-45.2175
-42.0577
-46.7532
-42.599
-44.7545
-46.2487
-83.4143
-68.6612
-72.9766
-65.6047
-83.2999
-68.445
-72.9378
-65.8106
-44.5324
-42.9611
-46.2859
-44.8019
-44.5716
-42.9859
-46.3253
-44.8229
-69.5254
-53.0656
-53.6688
-42.2834
-4.13683
5.81722
-4.18712
5.28229
-4.15853
5.78256
-4.19602
5.26426
-69.5548
-53.144
-53.8132
-42.3353
155.072
121.164
172.263
158.825
174.724
157.877
189.526
183.389
158.261
174.81
182.824
189.538
121.348
155.317
158.976
172.415
-34.9137
-34.878
-36.0509
-36.1727
-34.5538
-34.3272
-35.6378
-35.5488
-39.4292
-40.7554
-39.1492
-40.3295
-41.1186
-43.0854
-40.9198
-42.3951
-34.9286
-34.8936
-36.0524
-36.1889
-41.1059
-43.1083
-40.9404
-42.416
-39.4452
-40.7765
-39.1666
-40.351
-34.6359
-34.3414
-35.6564
-35.5645
-34.6527
-35.7472
-34.5904
-35.3092
-35.7375
-34.6506
-35.31
-34.5958
-35.0097
-34.3825
-35.1594
-34.5912
-34.3071
-34.9041
-34.5395
-35.0979
-114.227
-32.3695
-118.704
-104.4
-56.2856
-59.9625
-63.3694
-64.7364
-59.9585
-56.2783
-64.7352
-63.3636
-32.4509
-114.252
-104.491
-118.704
-44.2069
-42.7813
-44.6443
-44.5998
-38.9299
-39.2017
-39.2252
-43.419
-39.4313
-39.4376
-39.0029
-39.5267
-45.2045
-41.9612
-46.5991
-43.9576
-44.172
-42.8182
-44.6142
-44.5611
-45.173
-41.9361
-46.6045
-43.9088
-39.3656
-39.3854
-38.9519
-39.4844
-38.8845
-39.2031
-39.2033
-43.4116
-39.834
-38.6896
-39.7729
-39.4101
-39.4899
-38.7562
-40.4668
-39.384
-39.5385
-39.8203
-39.1488
-39.4884
-39.0196
-39.3337
-38.8548
-40.2457
-52.2751
-55.1006
-49.0311
-50.8526
-39.5281
-41.2131
-40.9436
-42.3091
-39.5199
-41.2073
-40.9428
-42.309
-52.265
-55.0936
-49.0324
-50.8546
-34.1254
-33.3778
-32.7431
-31.3867
-33.2607
-34.0109
-31.3216
-32.7191
-34.5777
-34.6109
-34.1548
-34.1475
-34.6345
-34.5575
-34.1009
-34.0954
-82.2019
79.0926
-92.7695
30.6587
-77.5546
-83.9926
-45.1685
-37.5844
-43.8812
-37.6099
-40.0664
-40.1259
-98.7809
71.4587
-70.9482
80.1254
-77.7815
-91.5243
-45.7928
-36.257
-38.3526
-35.7155
-40.9082
-40.924
-93.3026
27.6753
-82.2948
78.6816
-77.5787
-83.4947
-43.2203
-37.63
-45.0113
-37.4443
-39.9893
-40.7972
-71.2808
79.5253
-98.9175
71.1079
-77.9854
-91.5543
-38.2962
-35.6172
-45.698
-36.1275
-40.8374
-40.8796
-39.5668
-38.7036
-32.6119
-32.9787
-34.1211
-32.4422
-38.4781
-35.1162
-35.5424
-43.3756
-31.4369
-31.4052
-30.1031
-26.42
-33.2205
-37.2722
-37.5952
-34.9926
-38.0362
-40.8516
-43.92
-58.9477
-26.4287
-69.4866
-44.7679
-48.9772
-41.4792
-42.2853
-42.9115
-47.4504
-51.4371
-53.2846
-39.5653
-38.7329
-38.5396
-35.1031
-32.6249
-32.9815
-34.1337
-32.4573
-35.5386
-43.465
-33.3844
-37.3181
-31.4457
-31.4596
-30.1158
-26.4081
-37.6231
-34.9773
-26.3795
-69.8978
-38.0623
-40.8739
-43.9429
-58.9968
-44.762
-49.0013
-51.451
-53.2913
-41.4931
-42.2751
-42.9395
-47.5016
-95.8065
115.742
-94.0701
114.839
-81.8301
-81.197
169.137
172.828
-84.8078
-27.3261
-84.9608
-27.3296
-101.804
-101.825
53.1237
53.0884
-52.2099
-44.0758
-45.1361
-47.287
-53.1833
-46.5901
-38.5842
-47.9042
-44.5498
-36.3005
-45.9548
-35.6634
-41.1751
-40.9477
-35.3047
-34.9111
-39.029
-33.4071
-38.8241
-33.3297
-37.7606
-37.6548
-30.7529
-30.6724
-50.921
-40.4235
-44.0831
-45.3043
-48.9578
-34.6466
-44.9823
-36.549
-59.5121
136.978
-57.3998
136.812
-92.0028
-92.7112
133.633
133.702
-41.9497
-41.0415
-46.9693
-32.5445
-44.4455
-49.6685
-33.6858
-25.1425
-36.7997
-34.9158
-36.7847
-34.9233
-38.21
-38.2074
-34.5235
-34.5033
-42.1429
-44.7025
-50.6957
-53.1866
-43.397
-49.5787
-48.0597
-45.3758
-95.9525
115.656
-94.2343
114.678
-81.9419
-81.3258
172.894
169.201
-52.0396
-43.205
-45.1338
-47.2772
-52.9793
-46.5528
-38.5763
-47.793
-44.3941
-36.1065
-45.8021
-35.4992
-40.852
-41.0845
-35.21
-34.8072
-51.0001
-40.486
-44.0583
-45.3088
-48.8366
-34.5696
-44.8103
-36.505
-43.8641
-40.9548
-47.1568
-32.5014
-45.1845
-44.6555
-25.1082
-33.6523
-42.1162
-44.6923
-50.7068
-53.1914
-49.5299
-43.3653
-45.3748
-48.0474
-34.4218
-33.3406
-34.3481
-33.1408
-35.2418
-35.2239
-33.9794
-33.884
-34.2888
-34.3863
-35.3388
-37.0331
-36.3242
-35.9839
-35.9128
-37.2907
-39.3351
-37.5594
-39.3431
-37.5634
-42.4526
-42.4503
-36.7902
-36.7917
-33.7855
-30.5336
-37.0421
-36.5451
-35.2243
-36.5288
-34.7239
-35.2924
-37.2217
-38.4283
-37.367
-38.3112
-36.8801
-36.7756
-38.3319
-38.2969
-46.3253
-56.5985
-44.2738
-49.7642
-43.6879
-44.5346
-62.5414
-56.7737
30.1659
37.6725
30.0787
37.6088
22.1404
22.0089
12.1618
11.874
-63.4341
-64.7888
-63.4371
-64.7766
-64.4614
-64.4623
-59.1356
-59.1322
-34.4372
-33.3506
-34.3702
-33.1706
-35.2588
-35.2425
-33.9906
-33.9102
-34.3116
-34.4059
-35.3672
-37.0552
-36.0162
-36.3495
-35.9331
-37.3269
-33.546
-30.5154
-36.8574
-36.5254
-36.5408
-35.2256
-34.7377
-35.2856
-46.3464
-56.6044
-44.3053
-49.7864
-44.5554
-43.7127
-56.7584
-62.5323
-47.7114
-47.4161
-50.2152
-46.3457
-46.7103
-43.8678
-45.0769
-45.1976
-47.2438
-47.2819
-49.9708
-46.319
-42.7185
-46.7777
-45.2964
-45.1282
-54.1165
-54.1432
-49.2775
-49.7962
-49.3627
-49.7623
-48.8222
-48.8371
-33.2607
-33.3185
-26.6212
-12.6757
-12.695
-26.6712
-4.50566
-4.5173
196.663
207.468
187.065
187.093