# vtk DataFile Version 2.0
tet_velo
ASCII
DATASET UNSTRUCTURED_GRID
POINTS 29498 float
-0.727115 0.185 -1.895
-0.715 0.265 1.87992
-0.741051 0.565 -1.855
-0.685 0.915 1.8323
0.727115 0.185 -1.895
0.715 0.265 1.87993
0.741051 0.565 -1.855
0.685 0.915 1.8323
-0.761337 0.173406 -0.636693
-0.783609 0.173763 0.621613
-0.802954 0.762254 -0.6259
-0.777264 0.871913 0.6032
0.761337 0.173406 -0.63669
0.783612 0.17376 0.62162
0.802986 0.762285 -0.6259
0.777264 0.871914 0.6032
-1.49852 -0.16701 -2.89336
-1.49991 -0.102384 -1.89841
-1.52403 -0.11074 -0.639347
-1.53019 -0.128422 0.625593
-1.48785 -0.0721915 1.88515
-1.47565 -0.0122976 2.88252
-1.48113 0.0460548 3.87541
-1.49792 0.0850508 -2.88386
-1.50105 0.172515 -1.8921
-1.53369 0.191993 -0.638721
-1.53152 0.193132 0.617286
-1.46303 0.255297 1.87122
-1.45936 0.314596 2.86819
-1.47334 0.37112 3.86202
-1.50507 0.545308 -2.85666
-1.5167 0.628877 -1.8637
-1.56106 0.776513 -0.630227
-1.53101 0.864262 0.601171
-1.44637 0.915041 1.8352
-1.45143 0.969791 2.83337
-1.4721 1.02372 3.83191
-1.51579 1.36779 -2.83783
-1.52482 1.47109 -1.84924
-1.54312 1.64362 -0.625238
-1.54261 1.79472 0.592465
-1.52105 1.88923 1.81677
-1.50834 1.94365 2.806
-1.5063 1.99365 3.80135
-0.741865 -0.160169 -2.89524
-0.735265 -0.0914185 -1.90116
-0.755261 -0.118549 -0.638977
-0.774674 -0.14313 0.629288
-0.747812 -0.0716814 1.89161
-0.73837 -0.0117351 2.88691
-0.742172 0.0454072 3.87794
-0.740885 0.084 -2.88444
-0.726206 0.31709 2.8718
-0.737067 0.37137 3.86394
-0.745149 0.518386 -2.85305
-0.719514 0.971119 2.83279
-0.73727 1.02463 3.83179
-0.74979 1.34769 -2.83426
-0.754143 1.45126 -1.8453
-0.772873 1.63674 -0.622865
-0.783957 1.79885 0.592181
-0.775783 1.89419 1.81474
-0.7666 1.94699 2.80397
-0.76408 1.99588 3.79988
0.749988 -0.160166 -2.89524
0.748862 -0.0914165 -1.90116
0.768462 -0.118548 -0.638974
0.768567 -0.143132 0.629294
0.723346 -0.0716818 1.89162
0.724166 -0.011735 2.88691
0.729263 0.0454079 3.87795
0.744167 0.0840032 -2.88444
0.717747 0.31709 2.8718
0.725717 0.37137 3.86394
0.750678 0.51839 -2.85305
0.706846 0.97112 2.83279
0.719709 1.02463 3.83179
0.775751 1.34769 -2.83425
0.78104 1.45127 -1.8453
0.773475 1.63675 -0.622865
0.744021 1.79885 0.592182
0.716747 1.89419 1.81474
0.713414 1.94699 2.80397
0.717041 1.99588 3.79988
1.50392 -0.167 -2.89336
1.5056 -0.102375 -1.89841
1.53124 -0.110734 -0.639341
1.53186 -0.128422 0.625603
1.48168 -0.072192 1.88516
1.469 -0.0122969 2.88253
1.47196 0.0460564 3.87542
1.49816 0.0850608 -2.88386
1.49725 0.172526 -1.8921
1.53304 0.192004 -0.638717
1.53747 0.193131 0.617295
1.47111 0.255296 1.87124
1.45882 0.314597 2.8682
1.46577 0.371121 3.86203
1.5074 0.54532 -2.85666
1.51399 0.628895 -1.86369
1.55916 0.776544 -0.630226
1.53394 0.864267 0.601174
1.45139 0.915042 1.8352
1.44583 0.969792 2.83337
1.4581 1.02372 3.83192
1.53698 1.36781 -2.83783
1.54424 1.47111 -1.84923
1.54153 1.64364 -0.625236
1.51048 1.79473 0.592467
1.47325 1.88923 1.81677
1.46209 1.94366 2.806
1.46293 1.99365 3.80136
-0.750521 0.375 -1.89144
0 0.184189 -1.89581
-0.750473 0.172956 -1.26585
-0.721705 0.59 1.87782
0 0.264883 1.88004
-0.751831 0.216855 1.25077
0 0.725153 -2.01515
-0.814246 0.70587 -1.24045
0 0.976952 1.89425
-0.764942 0.927267 1.21775
0.750651 0.375 -1.89157
0.750473 0.172956 -1.26585
0.721651 0.59 1.87777
0.752076 0.216609 1.25078
0.814213 0.705837 -1.24045
0.764944 0.927269 1.21775
-0.772483 0.173575 -0.00753999
-0.815792 0.46783 -0.631297
0 0.170889 -0.636692
-0.816271 0.522838 0.612407
1.51992e-06 0.171059 0.621617
-0.782462 0.809437 -0.01135
1.59104e-05 1.10391 -0.6259
3.55614e-07 1.34117 0.6032
0.772482 0.173575 -0.00753498
0.815797 0.467846 -0.631295
0.816277 0.522837 0.61241
0.782467 0.809442 -0.01135
-0.895476 0.421415 -1.25315
-0.804736 0.495334 -0.00944501
-0.895003 0.556419 1.23426
0 0.170631 -1.26585
7.5996e-07 0.170974 -0.00753748
7.5996e-07 0.196695 1.25077
0 0.375 -2.11391
0 0.59 2.09669
7.95522e-06 0.890423 -1.24045
8.13302e-06 1.32581 -0.01135
1.77807e-07 1.20902 1.21775
0.895476 0.421423 -1.25315
0.804744 0.495341 -0.00944251
0.895003 0.556419 1.23426
-1.11408 0.178757 -1.89355
-0.73119 0.0467908 -1.89808
-0.734 0.1345 -2.38972
-1.08902 0.260149 1.87557
-0.731406 0.0966593 1.88576
-0.720603 0.291045 2.37586
-1.12888 0.596939 -1.85935
-0.7431 0.541693 -2.35402
-0.747597 1.00813 -1.85015
-1.06569 0.915021 1.83375
-0.702257 0.94306 2.33254
-0.730392 1.40459 1.82352
0.737988 0.0467917 -1.89808
0.735641 0.134502 -2.38972
1.11218 0.178763 -1.89355
0.719173 0.0966591 1.88577
0.716374 0.291045 2.37587
1.09305 0.260148 1.87558
0.745864 0.541695 -2.35402
0.761045 1.00814 -1.85015
1.12752 0.596948 -1.85935
0.695923 0.94306 2.33254
0.700874 1.4046 1.82352
1.0682 0.915021 1.83375
-1.14751 0.1827 -0.637707
-0.758299 0.0274289 -0.637835
-1.15757 0.183447 0.61945
-0.779141 0.0153163 0.625451
-1.18201 0.769383 -0.628064
-0.787913 1.1995 -0.624383
-1.15414 0.868088 0.602186
-0.780611 1.33538 0.597691
0.764899 0.0274294 -0.637832
1.14719 0.182705 -0.637703
0.776089 0.0153141 0.625457
1.16054 0.183445 0.619458
0.78823 1.19952 -0.624382
1.18107 0.769415 -0.628063
0.760643 1.33538 0.597691
1.1556 0.86809 0.602187
-1.49921 -0.134697 -2.39588
-1.49822 -0.0409795 -2.88861
-1.12019 -0.16359 -2.8943
-1.51197 -0.106562 -1.26888
-1.50048 0.0350655 -1.89525
-1.11759 -0.096901 -1.89978
-1.52711 -0.119581 -0.00687666
-1.52886 0.0406262 -0.639034
-1.13964 -0.114645 -0.639162
-1.50902 -0.100307 1.25537
-1.53086 0.0323546 0.62144
-1.15243 -0.135776 0.627441
-1.48175 -0.0422445 2.38384
-1.47544 0.0915528 1.87819
-1.11783 -0.0719364 1.88838
-1.47839 0.0168786 3.37897
-1.46751 0.151149 2.87535
-1.10701 -0.0120164 2.88471
-1.47724 0.208587 3.86872
-1.11165 0.045731 3.87668
-1.49948 0.128783 -2.38798
-1.50149 0.315179 -2.87026
-1.1194 0.0845254 -2.88415
-1.51737 0.182254 -1.26541
-1.50888 0.400696 -1.8779
-1.53261 0.192562 -0.0107174
-1.54738 0.484253 -0.634474
-1.49728 0.224214 1.24426
-1.53127 0.528697 0.609229
-1.4612 0.284947 2.3697
-1.4547 0.585169 1.85321
-1.46635 0.342858 3.3651
-1.4554 0.642194 2.85078
-1.09278 0.315843 2.86999
-1.47272 0.697421 3.84697
-1.1052 0.371245 3.86298
-1.51089 0.587092 -2.36018
-1.51043 0.95655 -2.84724
-1.12511 0.531847 -2.85485
-1.53888 0.702695 -1.24696
-1.52076 1.04998 -1.85647
-1.54603 0.820387 -0.0145279
-1.55209 1.21007 -0.627732
-1.48869 0.889651 1.21819
-1.53681 1.32949 0.596818
-1.4489 0.942416 2.33428
-1.48371 1.40213 1.82598
-1.46176 0.996757 3.33264
-1.47989 1.45672 2.81968
-1.08547 0.970455 2.83308
-1.4892 1.50869 3.81663
-1.10468 1.02417 3.83185
-1.5203 1.41944 -2.34353
-1.13279 1.35774 -2.83604
-1.53397 1.55735 -1.23724
-1.13948 1.46117 -1.84727
-1.54286 1.71917 -0.0163863
-1.158 1.64018 -0.624052
-1.53183 1.84197 1.20462
-1.16328 1.79678 0.592323
-1.51469 1.91644 2.31138
-1.14842 1.89171 1.81575
-1.50732 1.96865 3.30367
-1.13747 1.94532 2.80498
-1.13519 1.99476 3.80062
-0.738565 -0.125794 -2.3982
-0.741375 -0.0380847 -2.88984
0.00406124 -0.160168 -2.89524
-0.745263 -0.104984 -1.27007
0.00679852 -0.0914175 -1.90116
-0.764967 -0.13084 -0.0048445
0.00660041 -0.118548 -0.638975
-0.761243 -0.107406 1.26045
-0.00305333 -0.143131 0.629291
-0.743091 -0.0417083 2.38926
-0.0122333 -0.0716816 1.89161
-0.740271 0.016836 3.38242
-0.732288 0.152678 2.87935
-0.00710221 -0.0117351 2.88691
-0.739619 0.208388 3.87094
-0.0064543 0.0454076 3.87795
-0.743017 0.301193 -2.86874
0.00164075 0.0840016 -2.88444
-0.731636 0.34423 3.36787
-0.72286 0.644105 2.85229
-0.00422951 0.31709 2.8718
-0.737168 0.697998 3.84786
-0.00567466 0.37137 3.86394
-0.74747 0.933036 -2.84365
0.00276423 0.518388 -2.85305
-0.728392 0.997873 3.33229
-0.743057 1.45905 2.81838
-0.00633397 0.97112 2.83279
-0.750675 1.51025 3.81583
-0.00878035 1.02463 3.83179
-0.751967 1.39947 -2.33978
0.0129803 1.34769 -2.83425
-0.763508 1.544 -1.23408
0.0134483 1.45127 -1.8453
-0.778415 1.71779 -0.0153421
0.000301107 1.63675 -0.622865
-0.77987 1.84652 1.20346
-0.0199684 1.79885 0.592182
-0.771191 1.92059 2.30935
-0.0295178 1.89419 1.81474
-0.76534 1.97143 3.30192
-0.0265929 1.94699 2.80397
-0.0235195 1.99588 3.79988
0.749425 -0.125791 -2.3982
0.747077 -0.0380812 -2.88984
1.12695 -0.163583 -2.8943
0.758662 -0.104982 -1.27006
1.12723 -0.0968955 -1.89978
0.768514 -0.13084 -0.00484002
1.14985 -0.114641 -0.639157
0.745956 -0.107407 1.26045
1.15022 -0.135777 0.627448
0.723756 -0.0417084 2.38926
1.10251 -0.0719369 1.88839
0.726715 0.0168365 3.38243
0.720957 0.152678 2.87936
1.09658 -0.0120159 2.88472
0.72749 0.208389 3.87095
1.10061 0.0457322 3.87668
0.747422 0.301197 -2.86874
1.12116 0.084532 -2.88415
0.721732 0.34423 3.36787
0.712297 0.644105 2.8523
1.08828 0.315843 2.87
0.722713 0.697999 3.84787
1.09574 0.371246 3.86299
0.763214 0.933042 -2.84365
1.12904 0.531855 -2.85485
0.713278 0.997874 3.33229
0.71013 1.45905 2.81838
1.07634 0.970456 2.83308
0.718375 1.51025 3.81584
1.0889 1.02418 3.83186
0.778395 1.39948 -2.33978
1.15636 1.35775 -2.83604
0.777257 1.54401 -1.23408
1.16264 1.46119 -1.84727
0.758748 1.7178 -0.0153412
1.1575 1.6402 -0.62405
0.730384 1.84652 1.20346
1.12725 1.79679 0.592325
0.715081 1.92059 2.30935
1.095 1.89171 1.81575
0.715227 1.97143 3.30192
1.08775 1.94532 2.80498
1.08999 1.99477 3.80062
1.50476 -0.134687 -2.39588
1.50104 -0.0409696 -2.88861
1.51842 -0.106554 -1.26887
1.50143 0.0350758 -1.89525
1.53155 -0.119578 -0.00686936
1.53214 0.0406349 -0.639029
1.50677 -0.100307 1.25538
1.53467 0.0323542 0.621449
1.47534 -0.0422444 2.38385
1.47639 0.0915521 1.8782
1.47048 0.0168797 3.37898
1.46391 0.15115 2.87536
1.46886 0.208589 3.86872
1.4977 0.128793 -2.38798
1.50278 0.315191 -2.87026
1.51515 0.182265 -1.26541
1.50562 0.400711 -1.8779
1.53526 0.192567 -0.0107109
1.5461 0.484274 -0.634471
1.50429 0.224214 1.24427
1.53571 0.528699 0.609235
1.46496 0.284946 2.36972
1.46125 0.585169 1.85322
1.46229 0.342859 3.36511
1.45233 0.642194 2.85078
1.46193 0.697423 3.84697
1.5107 0.587108 -2.36018
1.52219 0.956565 -2.84724
1.53657 0.702719 -1.24696
1.52911 1.05 -1.85646
1.54655 0.820405 -0.0145256
1.55034 1.21009 -0.627731
[...]
POINT_DATA 29498
VECTORS point_vectors float
-0.459384 -2.18197 4.91239
0.0993642 0.266985 0.988898
-1.55774 0.620286 2.36317
-0.0794544 -0.261599 0.326167
0.461864 -2.18173 4.9139
-0.103407 0.260163 0.978555
1.55489 0.613262 2.35141
0.081051 -0.252463 0.308994
-0.00264192 0.00536158 0.209609
0.0594567 -0.0509697 0.661826
-0.0159065 -0.0365586 0.311771
0.0217661 0.075231 0.179089
0.00257451 0.00533675 0.209425
-0.0599606 -0.0511648 0.661103
0.0159317 -0.0369204 0.313343
-0.0214745 0.0742938 0.176904
-0.627855 -0.326927 19.8504
-1.24758 -0.728449 20.5072
-0.397407 -0.401106 21.2752
0.0603782 -0.184943 21.3759
0.638884 0.0979155 21.4007
0.968623 0.213036 21.119
1.06794 0.127402 20.4352
-0.778063 -0.247911 19.7443
-1.69294 -0.625822 20.4559
-0.533265 -0.507037 21.3424
-0.0157873 -0.337738 21.432
0.804869 -0.143589 21.5259
1.156 -0.0702094 21.1343
1.18869 -0.13206 20.6021
-0.848605 -0.0115963 19.6689
-1.87978 -0.00427394 20.3619
-1.06524 -0.393586 21.297
-0.411181 -0.352615 21.5262
0.379468 -0.575738 21.5792
0.76492 -0.618261 21.1781
0.705552 -0.541435 20.8977
-0.62246 0.338102 19.8301
-1.08319 0.59027 20.2871
-0.99635 0.360223 21.0184
-0.458823 0.0511792 21.3937
-0.0106289 -0.239466 21.2969
0.204075 -0.414577 21.1609
0.2777 -0.478432 20.7432
-0.650476 -0.729368 19.2335
-1.74814 -3.61508 21.0123
-0.320175 -0.151334 21.2915
0.132357 0.10009 20.7851
0.680871 1.18841 19.4517
1.13446 1.61375 19.177
1.08877 1.28491 18.962
-0.827479 -0.615391 18.888
1.7191 1.32463 10.7739
2.01696 0.986067 13.41
-1.04095 -0.0193601 18.5096
0.507229 -0.655014 7.21102
1.09587 -0.683483 13.0491
-0.632559 0.74281 19.2687
-1.39173 1.93814 19.8592
-1.69241 1.77137 20.9961
-0.639908 0.468963 21.8597
-0.0918112 -0.270823 21.4787
0.0967569 -0.568686 21.1967
0.0742527 -0.593527 20.9837
0.648933 -0.724184 19.2424
1.79663 -3.58574 20.9908
0.307149 -0.146153 21.2944
-0.133858 0.103633 20.7776
-0.649946 1.18299 19.3433
-1.11491 1.59118 18.9661
-1.09271 1.30896 18.908
0.830206 -0.607862 18.8945
-1.6782 1.29083 10.4488
-2.03054 1.02044 13.0593
1.04726 -0.0176611 18.5177
-0.445139 -0.628613 6.6087
-1.02603 -0.698267 12.2221
0.640008 0.733805 19.2803
1.40805 1.87859 19.8794
1.69007 1.76987 20.9953
0.630424 0.499142 21.8838
0.0971341 -0.253354 21.4981
-0.0701662 -0.550205 21.2633
-0.0770043 -0.595132 21.0147
0.629031 -0.326862 19.8512
1.2406 -0.719398 20.5046
0.405466 -0.402354 21.2651
-0.0549305 -0.189037 21.3681
-0.635289 0.0938273 21.4058
-0.968498 0.219034 21.1189
-1.08347 0.130159 20.4121
0.773822 -0.248524 19.7468
1.70315 -0.635453 20.4548
0.534009 -0.508532 21.3404
0.0188472 -0.339379 21.4247
-0.787237 -0.15457 21.5193
-1.14579 -0.0794043 21.1388
-1.20505 -0.129228 20.5776
0.849573 -0.0143795 19.6695
1.89042 -0.00345209 20.3577
1.0662 -0.393413 21.2957
0.409256 -0.348901 21.5228
-0.370198 -0.563934 21.5254
-0.753732 -0.620569 21.1864
-0.704245 -0.540757 20.9171
0.616287 0.330568 19.843
1.06044 0.56926 20.2932
0.996469 0.361714 21.0173
0.465964 0.0615931 21.406
0.016401 -0.241418 21.3089
-0.201047 -0.42595 21.1517
-0.286806 -0.453474 20.7142
-0.614757 -0.0591412 0.577807
-5.74061e-05 -0.511325 1.78696
-0.0151688 0.00312057 0.197462
-0.00599948 -0.0234777 0.00684254
-0.000496086 0.0049115 0.0227039
0.00248423 0.00971255 0.312578
-0.00297523 2.94073 2.36871
-0.0285176 -0.0267991 0.127581
-0.00274986 0.0147751 -0.0495783
0.0727205 0.0804898 0.486059
0 0 0
0.0151617 0.00311628 0.197389
0.0061951 -0.0236059 0.0064488
-0.00273952 0.00993628 0.320438
0.0280201 -0.0263171 0.125166
-0.071891 0.0800677 0.477972
0.00536227 0.00235511 0.327642
0.0010568 0.0013428 0.0275176
4.28166e-09 4.78279e-10 -1.15516e-05
-0.0023725 0.0155789 0.0433608
-5.70369e-09 3.01535e-08 3.31497e-05
-1.37932e-05 -4.46891e-05 -0.000183354
-1.07625e-05 0.055181 0.119629
-3.32659e-05 -0.000663113 0.0547065
-0.00546822 0.00230464 0.327064
-0.00105086 0.00131417 0.0274148
0.0023756 0.015634 0.0433107
4.42774e-06 -1.41118e-05 -5.83091e-05
1.1221e-05 -0.000447021 0.0245392
0.00056866 0.00616369 0.0229698
0 0 0
1.61177e-08 4.91829e-07 -4.36506e-05
2.10676e-09 5.14717e-09 -7.27765e-06
0 0 0
0.000589334 -1.10204 0.576379
-0.0204309 -0.0430644 -0.0107742
3.00662e-05 0.00155688 0.0108435
-1.66901e-05 0.0172902 0.113674
-3.59964e-05 0.000672639 -0.00147948
-9.60413e-06 -0.000433464 0.0246445
-0.000569887 0.00617791 0.0230407
0 0 0
-3.46894 -1.86281 20.2952
-2.5658 -5.72217 21.4044
-2.18176 -1.93267 17.7302
1.48473 0.376362 18.9086
0.535097 1.36142 13.3435
1.00692 0.892248 7.13784
-4.25666 0.357547 20.0315
-3.10872 0.362064 16.5998
-3.11474 3.41692 19.5052
0.554162 -0.580446 18.4288
-0.52294 -0.527857 3.94962
0.176763 -0.366001 18.3677
2.60651 -5.64737 21.3219
2.18684 -1.9261 17.7396
3.48372 -1.87777 20.2901
-0.510688 1.32083 13.1057
-0.965042 0.815212 6.95372
-1.46677 0.345836 18.9318
3.10902 0.359258 16.6138
3.11751 3.30375 19.5293
4.27054 0.359301 20.0293
0.593743 -0.456419 3.65123
-0.22087 -0.336797 17.6578
-0.535183 -0.589581 18.5458
-0.0871448 -0.710506 21.1783
-0.255484 0.194576 15.6644
0.215548 -0.360568 20.3747
0.41085 0.0683769 16.1208
-1.67983 -1.08004 21.5073
-4.04145 1.60542 20.9132
-0.69243 -0.653265 20.8968
-0.862979 0.290527 20.0121
0.257812 0.192891 15.7535
0.0861108 -0.709598 21.1648
-0.41983 0.070314 16.0603
-0.213403 -0.36562 20.4034
4.03482 1.60304 20.9176
1.68349 -1.08404 21.5023
0.770182 0.351103 19.3999
0.693443 -0.647278 20.8685
-0.982463 -0.528626 20.0258
-0.720239 -0.295724 19.805
-0.697127 -0.498069 19.5929
-0.85111 -0.595554 21.1654
-1.48602 -0.700859 20.4788
-1.86784 -1.73577 20.5649
-0.135563 -0.275013 21.3381
-0.478263 -0.466004 21.2963
-0.217651 -0.412388 21.5327
0.301009 -0.0700276 21.5171
0.0233339 -0.269096 21.3842
0.179038 -0.151166 21.5072
0.819784 0.17124 21.2531
0.733235 -0.00757594 21.4624
0.961979 0.547685 21.2761
0.95245 0.132668 21.1837
1.08379 0.0594524 21.1706
1.33082 0.735987 20.8086
1.16446 -0.0488576 20.4755
1.30154 0.534897 20.9046
-1.29598 -0.424195 19.8696
-0.830475 -0.163945 19.6809
-0.859032 -0.435497 19.3853
-1.11971 -0.60179 21.2661
-1.85527 -0.355178 20.4094
-0.22843 -0.424463 21.3587
-0.795543 -0.517262 21.3232
0.305288 -0.252731 21.6395
-0.208885 -0.421422 21.4901
1.02448 -0.103638 21.347
0.676689 -0.464411 21.5393
1.14524 -0.140685 21.1111
1.00952 -0.462317 21.204
1.82209 0.382654 19.5411
0.897377 -0.400725 21.1142
1.81545 0.0369059 19.5188
-1.41516 0.00457036 19.7863
-0.806854 0.210193 19.7153
-1.03823 -0.0213058 19.1837
-1.51359 -0.214823 21.1067
-1.52801 0.447915 20.2997
-0.727552 -0.403594 21.4377
-1.21577 0.0409206 21.1511
-0.0603135 -0.394562 21.6492
-0.516959 -0.152968 21.4904
0.598224 -0.610156 21.3552
0.0968163 -0.404304 21.407
0.904568 -0.638145 21.0047
0.361698 -0.557968 21.1594
0.958517 -0.895502 19.9426
0.427643 -0.574522 20.9194
1.05029 -0.959716 19.7973
-0.893074 0.496425 19.9753
-0.692336 0.511739 19.5857
-1.08578 0.49992 20.6946
-1.36523 1.11323 20.1114
-0.767374 0.216225 21.268
-1.40317 0.824697 21.0726
-0.203399 -0.105066 21.399
-0.573053 0.199458 21.5967
0.101325 -0.33299 21.224
-0.0392378 -0.279859 21.3975
0.222917 -0.418461 21.0136
0.150803 -0.495436 21.1863
0.217872 -0.456489 20.994
-1.36038 -1.90735 18.993
-0.751062 -0.707485 19.0617
0.00104074 -1.01579 18.8441
-0.678063 -0.985967 22.1291
0.0156775 -4.82745 21.6274
-0.118207 0.0116826 20.934
0.00370927 -0.621611 20.2164
0.473228 0.503585 20.1436
-0.00291323 -0.113518 18.6576
0.848823 1.42933 19.3325
-0.0085264 0.768247 15.9847
1.41025 1.54014 18.1454
1.44358 1.63172 15.1333
-0.0234882 1.22065 15.4152
1.58897 1.16069 15.3675
0.00193306 1.87248 15.4253
-0.938532 -0.391655 18.6371
0.00372908 -0.905531 18.2307
2.19588 1.52488 13.3707
1.33673 0.0431003 6.26781
-0.00374864 0.137486 1.52982
1.79765 0.129242 10.795
0.0342388 1.23225 4.8645
-0.883782 0.551761 18.794
0.00395307 -0.0215802 17.507
1.42001 -0.902258 11.4784
0.305198 -0.902371 19.586
0.109216 1.03977 -5.68586
0.268972 -0.962467 19.8346
0.0843325 0.350313 -4.5225
-1.07229 1.42398 19.3014
0.0137072 1.04547 18.9016
-1.52646 1.79833 20.4649
0.0338913 2.89007 19.5868
-1.3037 1.18975 21.78
-0.000191483 3.55887 20.6311
-0.249405 -0.0215246 21.6708
-0.0246528 0.948849 22.2643
-0.00481931 -0.421001 21.3785
-0.0171281 -0.111698 21.6833
0.0888242 -0.595657 21.2059
-0.0102649 -0.480925 21.3889
-0.00712377 -0.544496 21.488
1.36046 -1.88344 19.0118
0.753398 -0.70065 19.0686
0.698403 -0.492405 19.5969
0.667043 -0.964531 22.048
1.85827 -1.69513 20.5586
0.113702 0.0123895 20.9354
0.22348 -0.42227 21.5229
-0.47084 0.513115 20.031
-0.18131 -0.150961 21.5067
-0.819538 1.41851 19.2574
-0.963569 0.575109 21.2096
-1.39007 1.55876 18.0495
-1.4193 1.62305 14.9094
-1.3333 0.749838 20.7904
-1.58187 1.18248 15.2697
-1.30632 0.553835 20.9598
0.943542 -0.388488 18.6449
0.858525 -0.434418 19.386
-2.1946 1.53235 13.0678
-1.25725 0.0523486 5.80983
-1.81411 0.382977 19.4781
-1.78307 0.177314 10.3301
-1.80168 0.0434125 19.4961
0.895401 0.54251 18.815
1.03802 -0.0206853 19.191
-1.33422 -0.877613 10.6809
-0.315321 -0.886224 19.1872
-0.940766 -0.886551 19.8478
-0.271689 -0.973493 19.7203
-1.07319 -0.986569 19.6513
1.08647 1.39896 19.3228
0.688595 0.497033 19.6076
1.53253 1.76918 20.4722
1.35857 1.07525 20.1228
1.30815 1.25043 21.7939
1.40207 0.826768 21.0719
0.242827 -0.0096282 21.6827
0.58145 0.222609 21.6184
0.0092534 -0.402587 21.3779
0.0463185 -0.272725 21.3993
-0.0841646 -0.598028 21.2033
-0.138391 -0.502856 21.2133
-0.230162 -0.478568 21.0287
0.981547 -0.52568 20.0273
0.714731 -0.295659 19.8095
0.855431 -0.590055 21.1542
1.48245 -0.701598 20.4807
0.134727 -0.276766 21.34
0.482198 -0.467338 21.2908
-0.296862 -0.0771011 21.5085
-0.0177704 -0.272822 21.3739
-0.817147 0.17525 21.2565
-0.72577 -0.0166273 21.4624
-0.959523 0.121171 21.1699
-1.07974 0.0532225 21.1726
-1.18811 -0.0381799 20.4446
1.29769 -0.427029 19.8684
0.831315 -0.165839 19.6811
1.12165 -0.605753 21.2672
1.87054 -0.361005 20.4048
0.229278 -0.426192 21.3563
0.797405 -0.521345 21.3203
-0.300941 -0.252332 21.6297
0.208259 -0.420697 21.4827
-1.00306 -0.115456 21.3444
-0.655014 -0.462839 21.528
-1.14097 -0.142818 21.1221
-0.999539 -0.466819 21.2057
-0.905968 -0.407313 21.1055
1.41681 0.00360888 19.7841
0.801371 0.208119 19.7251
1.51595 -0.21469 21.1048
1.51208 0.437364 20.3033
0.727456 -0.402533 21.4338
1.21883 0.0413393 21.1497
0.061323 -0.392784 21.6395
0.527558 -0.150492 21.499
-0.583869 -0.606153 21.3446
-0.0869853 -0.404263 21.4177
-0.895648 -0.641452 21.0336
-0.362393 -0.57409 21.1693
-0.439324 -0.568489 20.9131
0.877804 0.480218 19.9892
1.07982 0.495096 20.694
0.778804 0.227417 21.2727
0.206589 -0.101204 21.4089
-0.0954799 -0.336632 21.2388
-0.210011 -0.42429 21.0256
-1.14698 -0.521081 19.9609
-1.7396 -2.03981 18.4661
-1.32677 -1.0567 19.6434
-1.86524 -0.962229 19.1854
-0.793516 -0.472191 19.49
-2.56093 -1.93665 20.4739
-0.994587 -0.619847 21.2035
-0.626428 -0.279121 17.1624
-0.857706 -0.981047 21.666
-1.20311 -1.23658 22.1443
-0.118679 -0.512525 21.516
-0.185485 -0.362974 21.341
0.0267396 0.15164 15.656
0.011435 -0.234996 21.4697
0.168951 -0.461416 20.5941
0.240964 -0.237632 21.1493
0.298034 -0.167091 21.5772
0.83665 0.416569 14.255
0.498355 0.0768479 21.5885
0.485623 -0.183356 19.9088
1.27236 0.529785 20.5626
0.957627 0.0447417 21.2929
0.924913 1.4676 14.0065
1.19001 0.675492 21.0482
1.70356 0.327256 19.1926
1.6746 0.609183 20.0826
1.0644 0.0360455 21.0652
1.84501 1.76568 16.1245
1.40952 0.725524 20.92
1.78262 0.336216 18.9878
1.54156 0.306188 20.0704
-1.40375 -0.247596 19.8046
-2.85023 -1.08832 16.7888
-2.33095 0.0811719 18.8677
-0.973817 -0.252922 19.2388
-4.35782 -0.821223 20.0988
-1.35052 -0.453008 21.2257
-2.4012 -0.569659 21.8479
-0.575104 -1.22131 21.0003
-0.44815 -0.502482 21.4063
-1.15794 -1.01584 21.3226
-0.0634825 -0.616327 19.4885
0.129062 -0.39481 21.6871
-0.124021 -0.371888 20.1203
1.29891 -0.223841 17.4371
0.895859 -0.472254 21.4172
0.176042 -0.410699 3.00001
0.690658 -0.755788 19.2368
1.65234 -0.434945 18.512
1.07296 -0.474163 21.2556
2.27744 -0.0156327 9.39692
1.05589 -0.914131 19.8564
1.42003 -0.35675 18.4204
-1.24171 0.360421 19.8454
-1.93636 1.69339 18.2484
-1.06199 0.861539 19.7085
-0.912006 0.375562 19.327
-2.46477 1.24344 20.0491
-1.44101 0.246345 20.8511
-3.06049 1.98374 20.7876
-1.4369 1.00446 20.6407
-2.09429 0.244075 21.2961
-0.914841 -0.0834363 21.4019
-2.71462 0.353174 21.5072
-1.05156 0.540003 21.4814
-0.809663 -0.0476041 21.8145
-0.180866 -0.257257 21.522
0.0857338 -0.0910755 19.2224
-0.232532 -0.0743255 21.5191
0.00546363 -0.516368 21.5539
0.260023 -0.496029 21.317
0.140891 -0.562755 18.8848
0.0674598 -0.391319 21.2987
0.34008 -0.796309 21.2603
0.431611 -0.529771 21.0606
0.467509 -1.06268 19.3519
0.212686 -0.529719 20.9621
0.420775 -0.783655 21.1048
1.74608 -2.01938 18.4879
0.00889244 -2.94966 18.3557
0.0051362 -3.64911 15.9773
0.00293944 -1.01962 18.5315
0.0106814 -6.72319 23.1171
0.627015 -0.296543 17.2199
0.00929169 -1.55834 21.9003
-0.00115018 -0.170082 11.3652
-0.0270818 0.153416 15.6871
3.73084e-05 -0.348738 19.1116
-5.35267e-05 -0.0120393 10.9984
-0.81501 0.425548 14.0749
-0.000654046 0.349697 17.1665
-0.0236492 0.653717 8.05383
-0.886754 1.40895 13.7006
-0.0218149 0.895547 15.6402
-0.0853774 -0.63389 1.0002
-0.0416341 0.942591 8.3203
-1.83182 1.76713 16.004
-0.0101625 1.76393 15.591
0.00727974 1.46269 4.10222
0.0128182 1.36771 9.62122
2.85128 -1.08186 16.8049
0.00882409 1.15326 13.2399
0.00353625 -0.584176 17.8022
-0.0583948 -0.388178 2.8159
-0.00161435 0.802511 -4.21766
0.12568 0.0976943 -4.12425
-2.25249 0.0186058 8.91445
0.121873 0.882332 -5.68811
0.115022 1.01972 1.95594
1.93566 1.64628 18.3011
0.0222402 2.14578 18.8239
0.0130163 0.85369 18.0797
0.0199212 5.45778 19.2242
3.05565 1.94249 20.7965
0.0145132 2.88726 20.0804
0.000801134 5.75692 17.8232
2.72681 0.345479 21.316
-0.0305048 2.65574 22.2819
0.00458175 0.288288 11.7484
-0.221151 -0.0301151 18.3559
-0.0188987 0.140329 21.868
-0.0425616 -0.0750947 8.34649
-0.162221 -0.538276 18.4649
-0.0195456 -0.272684 21.5644
-0.0568181 -0.315509 11.7236
-0.434311 -1.05392 19.2747
-0.00468403 -0.634299 21.4253
-0.0550683 -0.795784 15.1196
1.14285 -0.521728 19.9664
1.31735 -1.04355 19.6534
1.86619 -0.962328 19.1844
0.793465 -0.472981 19.4933
2.54782 -1.91287 20.4716
0.996988 -0.618569 21.1972
0.86565 -0.975281 21.6466
1.20206 -1.23731 22.1397
0.127033 -0.519019 21.5255
0.18613 -0.364197 21.3426
-0.00892915 -0.238583 21.4731
-0.165625 -0.464488 20.6133
-0.24032 -0.238658 21.1376
-0.290667 -0.174337 21.5646
-0.50259 0.0825261 21.5675
-0.482045 -0.190235 19.9513
-1.26735 0.536249 20.4674
-0.945869 0.0386373 21.2929
-1.18662 0.686863 21.0195
-1.67452 0.307557 19.1616
-1.66654 0.611315 20.0144
-1.06365 0.0299049 21.069
-1.42745 0.746293 20.9144
-1.77985 0.354852 18.8718
-1.53411 0.316172 20.0685
1.40635 -0.248866 19.8024
2.32802 0.0813991 18.8751
0.975488 -0.251937 19.2416
4.37729 -0.82599 20.0941
1.35261 -0.457921 21.2256
2.40381 -0.572812 21.8496
0.574796 -1.22355 20.9897
0.447741 -0.504863 21.4029
1.15779 -1.01648 21.2936
0.0669277 -0.621938 19.5409
-0.127506 -0.391909 21.674
0.12665 -0.375671 20.1194
-1.27572 -0.254659 17.444
-0.874834 -0.472361 21.4198
-0.660354 -0.735211 19.1373
-1.63156 -0.425284 18.355
-1.0739 -0.484201 21.2742
-1.05611 -0.916859 19.7173
-1.41644 -0.351167 18.1111
1.2251 0.352082 19.8574
1.05583 0.831221 19.7287
0.909235 0.36528 19.3407
2.43529 1.19804 20.0566
1.43609 0.245744 20.8486
1.42772 0.985017 20.6437
2.09649 0.245298 21.2938
0.925583 -0.0845965 21.4038
1.06064 0.560975 21.4918
0.830878 -0.0391478 21.8304
0.184921 -0.254661 21.5253
0.232359 -0.0673653 21.5322
0.00616918 -0.515233 21.5463
-0.250582 -0.499608 21.3199
-0.0575757 -0.393546 21.3085
-0.323665 -0.791583 21.2473
-0.426029 -0.547859 21.0831
-0.220934 -0.547451 20.9944
-0.393184 -0.820409 21.1677
-1.579 -1.03433 19.4248
-0.966062 -1.10225 21.931
0.121616 -0.310712 21.2606
0.580241 -0.0435605 21.024
1.51884 0.610425 20.2811
1.5484 0.635926 19.9544
-2.19907 -0.532879 18.9422
-1.85407 -1.05992 22.3755
-0.155793 -1.02234 19.9964
0.20329 -0.124109 19.0896
1.42133 -0.431408 17.8829
1.7686 -0.373389 18.1028
-1.69063 0.823617 19.2749
-2.2378 0.661664 20.9495
-1.54425 0.0726648 21.763
-0.27805 -0.247344 21.7461
0.155735 -0.64983 21.3951
0.425389 -0.839476 21.3068
0.0108027 -3.46974 17.4192
0.00290133 -0.671421 13.8358
-0.00239644 -0.0901946 10.7473
-0.00514962 0.348645 9.24593
-0.0637764 0.339287 7.70604
-0.0114751 2.03661 9.98336
0.00574247 -1.83899 13.977
-0.00790728 -0.442689 -2.99289
0.103035 0.471697 -2.93323
0.0258511 3.10307 16.8916
0.0135306 3.88879 19.8091
-0.0124169 1.86412 11.7631
-0.00413975 -0.280553 10.1651
-0.089322 0.0109389 10.1853
-0.0107898 -0.980423 14.2774
1.57497 -1.02832 19.4304
0.974468 -1.09562 21.9142
-0.117994 -0.313605 21.2642
-0.578329 -0.0459196 20.9947
-1.50259 0.606774 20.1863
-1.55759 0.658766 19.8287
2.20123 -0.532027 18.9435
1.85193 -1.06385 22.3653
0.158769 -1.02263 20.0085
-0.201122 -0.141784 19.1568
-1.38347 -0.429876 17.8136
-1.77263 -0.376944 17.8244
1.67775 0.79943 19.2975
2.22369 0.654938 20.946
1.56475 0.0796453 21.7726
0.285215 -0.244228 21.7401
-0.135651 -0.64216 21.3969
-0.422429 -0.856474 21.3483
0 0 0
-0.0125421 -0.0472117 0.153978
-0.0207696 -0.00285327 0.228058
0.0463674 -0.0502334 0.121989
-0.00290295 0.00415602 0.0175019
-0.051118 0.110006 0.671341
-1.22614 0.119658 1.33716
0 0 0
-0.1554 0.0214758 0.506597
0 0 0
-0.0375251 0.00311742 -0.030102
-0.00134484 -0.0300415 0.363342
0.0128215 -0.0476288 0.156068
0 0 0
0.020788 -0.00284653 0.227912
0.00254977 0.00398242 0.0167715
-0.0451481 -0.0524474 0.119747
0.0498395 0.109439 0.671589
0 0 0
1.21912 0.122538 1.31991
0.154379 0.0222457 0.504096
0.0330565 0.0055608 -0.036838
0 0 0
0.000549361 -0.0290968 0.354845
-0.027622 0.0148213 0.352382
0.0025908 0.00101798 0.209635
0 0 0
0 0 0
0.0295615 0.00406126 0.298461
0.0238836 -0.00270989 0.559363
3.45944e-05 0.000174604 0.0107115
0 0 0
-0.0830867 -0.0959574 0.270439
0.000608638 0.00192324 0.0233097
0.00346084 0.0289096 0.178864
-0.0350599 0.0213314 0.0612163
0.0157614 0.0489573 0.151892
0.00482676 0.0417464 0.0982911
0.0148423 0.0429377 0.11265
0.123438 0.108705 0.826736
0.0275382 0.0147633 0.352252
0 0 0
-0.00265454 0.000985385 0.209235
0 0 0
-0.0290795 0.0041043 0.297576
0 0 0
-0.0241692 -0.00280717 0.558967
-3.66348e-05 0.000179124 0.0106617
0.0829615 -0.0956785 0.270367
0.0348817 0.0211159 0.0608374
-0.000587863 0.00183866 0.022514
-0.00342158 0.0289186 0.178942
-0.018031 0.0567299 0.175369
-0.124492 0.110029 0.828026
-0.00483514 0.0420049 0.0978786
-0.0146972 0.0424515 0.112159
-0.0202042 -0.016578 0.218253
0 0 0
-2.8914e-08 -5.94374e-06 0.000191508
3.3656e-05 -0.0701555 0.0484333
0 0 0
9.3764e-07 -1.88715e-07 1.96462e-05
0 0 0
-0.136561 -0.04527 -0.0030917
-2.30894e-06 5.83872e-05 0.000578692
0 0 0
1.38137e-06 6.15834e-05 0.00103263
3.4116e-05 3.17151e-05 0.000526778
0.00291211 1.86888 0.965383
1.51916e-05 0.00306072 0.0149016
0.00565092 -0.0233922 0.28954
-0.0604212 0.0429227 0.257314
-0.00858449 0.0122117 -0.00395732
0 0 0
0 0 0
-0.000654335 -0.000369279 0.000816765
0 0 0
0.020357 -0.0166556 0.219248
-4.50294e-06 -9.06834e-07 9.47108e-05
0 0 0
0.146641 -0.05426 -0.00349766
0 0 0
0 0 0
-1.32214e-06 5.8235e-05 0.000985732
0.0605921 0.0428114 0.256656
-0.00620669 -0.0239329 0.29963
0.000610045 -0.000355882 0.000805453
0 0 0
0.00024756 0.00151211 0.0129382
0 0 0
0 0 0
0.00019 0.00169385 0.00720856
0 0 0
3.16859e-09 1.23892e-08 -9.41414e-06
-0.00194124 0.0223913 0.08154
0 0 0
-7.52141e-09 -3.62692e-08 3.96773e-05
-5.72195e-05 0.0021905 0.0497965
0.000270213 0.00311663 0.00949432
-0.258913 0.19679 1.87242
0 0 0
-2.02332e-05 0.0800239 0.206596
0 0 0
-2.7145e-05 -0.00196406 0.0149669
0 0 0
-0.000248254 0.00151836 0.0130065
0 0 0
-0.000154534 0.0013752 0.00587499
0.00196981 0.0226404 0.081957
0 0 0
0.257497 0.195864 1.86537
-0.000249725 0.00289294 0.00883275
-0.00769289 -0.00900477 0.100109
-0.0935458 -0.0471481 0.469257
0 0 0
0.00944613 -0.0584685 0.232637
4.88094e-05 0.000256125 0.0021179
0.000168022 0.00161902 0.00634166
0.000161803 0.00109792 0.0136857
0.000294463 0.00567809 0.0148419