# vtk DataFile Version 2.0
tri_press
ASCII
DATASET UNSTRUCTURED_GRID
POINTS 3682 float
-0.668158 0.215 -2.145
-0.713945 0.295 2.135
-0.745 0.775 -1.88391
-0.6227 0.925 2.135
0.668158 0.215 -2.145
0.713945 0.295 2.135
0.745 0.775 -1.88391
0.622701 0.925 2.135
-0.710796 0.214291 -0.718333
-0.740793 0.226223 0.708333
-0.790539 0.911305 -0.544273
-0.761676 0.973209 0.795363
0.710798 0.214289 -0.718333
0.740792 0.226224 0.708333
0.790525 0.911292 -0.544273
0.761677 0.97321 0.795363
-1.40249 -0.164519 -3.33258
-1.4076 -0.12086 -2.22611
-1.43709 -0.11606 -0.79719
-1.44752 -0.110853 0.649242
-1.42263 -0.0667653 2.07963
-1.42042 -0.0396544 3.19334
-1.43063 -0.0197272 4.29367
-1.40707 0.151625 -3.23333
-1.41585 0.210195 -2.13636
-1.45335 0.229995 -0.724374
-1.45348 0.236264 0.695443
-1.40197 0.270257 2.10909
-1.40932 0.295877 3.22157
-1.42796 0.316717 4.32473
-1.44195 0.761425 -3.01039
-1.47727 0.818667 -1.90982
-1.51428 0.919235 -0.557164
-1.47192 0.960039 0.789323
-1.35965 0.936885 2.14364
-1.39001 0.960526 3.25972
-1.42812 0.989447 4.37692
-1.4685 1.76215 -2.74141
-1.48822 1.82993 -1.65387
-1.50618 1.93438 -0.329439
-1.49938 2.00087 0.976239
-1.47277 2.01135 2.30158
-1.46371 2.01629 3.39102
-1.47081 2.03248 4.49871
-0.680276 -0.162993 -3.3382
-0.680126 -0.117249 -2.2343
-0.705535 -0.124248 -0.796091
-0.726731 -0.117413 0.660244
-0.718017 -0.0546354 2.09887
-0.719457 -0.0321417 3.20639
-0.727673 -0.0170568 4.30122
-0.678075 0.148396 -3.23506
-0.718848 0.303149 3.23233
-0.7299 0.318579 4.33043
-0.704121 0.742266 -2.99962
-0.701488 0.957007 3.25799
-0.733713 0.987332 4.37655
-0.727266 1.74936 -2.73077
-0.742629 1.81809 -1.64215
-0.762357 1.93212 -0.322372
-0.771787 2.00453 0.975391
-0.764091 2.01097 2.29553
-0.759931 2.01361 3.38497
-0.766348 2.0299 4.49432
0.726391 -0.162994 -3.3382
0.700695 -0.11725 -2.2343
0.723246 -0.124249 -0.796091
0.737937 -0.117413 0.660244
0.716965 -0.0546353 2.09887
0.692554 -0.0321418 3.20639
0.680829 -0.017057 4.30122
0.728511 0.148394 -3.23506
0.673413 0.303149 3.23233
0.667565 0.318578 4.33043
0.752538 0.742264 -2.99962
0.639587 0.957007 3.25799
0.64793 0.987332 4.37655
0.75466 1.74936 -2.73077
0.752498 1.81809 -1.64215
0.739039 1.93212 -0.322372
0.69963 2.00453 0.975391
0.656357 2.01097 2.29553
0.643703 2.01361 3.38497
0.639776 2.0299 4.49432
1.44079 -0.164523 -3.33258
1.42068 -0.120865 -2.22611
1.44831 -0.116063 -0.79719
1.46327 -0.110853 0.649242
1.43267 -0.0667653 2.07963
1.40593 -0.0396546 3.19334
1.3923 -0.0197279 4.29366
1.44224 0.151621 -3.23333
1.41456 0.21019 -2.13636
1.45226 0.22999 -0.724374
1.46388 0.236264 0.695443
1.41354 0.270257 2.10909
1.38511 0.295877 3.22157
1.37683 0.316716 4.32473
1.474 0.761419 -3.01039
1.47408 0.818659 -1.90982
1.50904 0.919222 -0.557164
1.47426 0.960038 0.789323
1.36007 0.936885 2.14364
1.34668 0.960525 3.25972
1.35315 0.989446 4.37692
1.49078 1.76214 -2.74141
1.49212 1.82992 -1.65387
1.48151 1.93437 -0.32944
1.43692 2.00086 0.976238
1.37992 2.01135 2.30158
1.35733 2.01629 3.39102
1.35037 2.03248 4.49871
-0.748015 0.495 -2.05589
0 0.211497 -2.1485
-0.690621 0.213501 -1.43167
-0.684946 0.61 2.15162
0 0.28892 2.14108
-0.766574 0.221407 1.42167
0 0.837471 -1.94638
-0.790005 0.865388 -1.21409
5.06639e-07 0.97823 2.18823
-0.728739 0.985656 1.46518
0.74801 0.495 -2.05589
0.690622 0.213501 -1.43167
0.68501 0.61 2.15169
0.766576 0.221404 1.42167
0.789999 0.865382 -1.21409
0.728734 0.98565 1.46518
-0.720166 0.225886 -0.005
-0.862527 0.562798 -0.631303
5.2947e-07 0.211585 -0.718333
-0.873685 0.599716 0.751848
-4.95225e-07 0.226309 0.708333
-0.783699 0.949849 0.125545
-6.55091e-06 1.25243 -0.544273
6.9074e-07 1.40927 0.795363
0.720165 0.225887 -0.005
0.862526 0.562791 -0.631303
0.87369 0.599717 0.751848
0.783705 0.949854 0.125545
-0.893093 0.528899 -1.32288
0.893153 0.528895 -1.32288
2.64735e-07 0.210923 -1.43167
-3.27545e-06 0.954443 -1.21409
0 0.495 -2.33713
-0.874168 0.581257 0.0602725
0.874159 0.581254 0.0602725
1.71222e-08 0.226046 -0.005
-2.93008e-06 1.40114 0.125545
-0.871861 0.604858 1.44342
0.871862 0.604859 1.44342
-2.47613e-07 0.21984 1.42167
5.9869e-07 1.37419 1.46518
2.5332e-07 0.61 2.32526
-0.715974 0.355 -2.10833
-0.334079 0.211508 -2.14849
-0.680734 0.212906 -1.78833
-0.726962 0.4525 2.17083
-0.356972 0.292361 2.13764
-0.764529 0.233934 1.77833
-0.746258 0.635 -1.96965
-0.3725 0.81867 -1.92758
-0.777721 0.830412 -1.549
-0.666645 0.7675 2.15613
-0.31135 0.968125 2.17812
-0.698093 0.977701 1.80009
0.334079 0.211502 -2.1485
0.716042 0.355 -2.1084
0.680727 0.212913 -1.78833
0.356972 0.292405 2.1376
0.726919 0.4525 2.17078
0.7638 0.234663 1.77833
0.3725 0.818666 -1.92758
0.746322 0.635 -1.96972
0.777526 0.830218 -1.549
0.311351 0.968166 2.17817
0.666647 0.7675 2.15614
0.698122 0.977729 1.80009
-0.700435 0.214169 -1.075
-0.715466 0.220103 -0.361667
-0.854393 0.354678 -0.674818
-0.355338 0.213058 -0.718333
-0.756422 0.221076 1.065
-0.730495 0.226038 0.351667
-0.874463 0.379357 0.730091
-0.371001 0.225057 0.708333
-0.790875 0.88895 -0.879183
-0.847812 0.747691 -0.587788
-0.789353 0.932812 -0.209364
-0.470008 1.23134 -0.544273
-0.749892 0.984117 1.13027
-0.837145 0.796195 0.773606
-0.772678 0.96152 0.460454
-0.475089 1.37974 0.795363
0.700436 0.214169 -1.075
0.355339 0.213058 -0.718333
0.715466 0.220104 -0.361667
0.854381 0.354681 -0.674818
0.756424 0.221074 1.065
0.371001 0.225056 0.708333
0.730496 0.226038 0.351667
0.874507 0.379337 0.730091
0.79086 0.888934 -0.879183
0.470002 1.23134 -0.544273
0.847813 0.747685 -0.587788
0.789339 0.932797 -0.209364
0.749885 0.98411 1.13027
0.475093 1.37975 0.795363
0.837177 0.79621 0.773606
0.772698 0.961539 0.460454
-0.880241 0.511949 -1.68938
-0.374007 0.495 -2.31143
1.32367e-07 0.210701 -1.79008
0 0.353249 -2.3561
-0.885218 0.3712 -1.37727
-0.345311 0.210931 -1.43167
-0.827863 0.607429 1.79752
-0.342473 0.61 2.29677
-1.23806e-07 0.226961 1.78137
1.2666e-07 0.44946 2.36135
-0.861265 0.413132 1.43255
-0.383287 0.219834 1.42167
-1.63773e-06 0.902522 -1.58024
0 0.666235 -2.27392
-0.894271 0.697144 -1.26849
-0.395004 0.939315 -1.21409
5.52664e-07 1.26918 1.82671
3.7998e-07 0.794115 2.27993
-0.848865 0.795257 1.4543
-0.364369 1.36342 1.46518
0.880231 0.511948 -1.68938
0.374005 0.495 -2.31146
0.885222 0.371198 -1.37727
0.345311 0.210931 -1.43167
0.827855 0.607429 1.79756
0.342505 0.61 2.29695
0.861274 0.413131 1.43255
0.383288 0.219834 1.42167
0.894545 0.697139 -1.26849
0.394998 0.939317 -1.21409
0.84885 0.795254 1.4543
0.364367 1.36342 1.46518
-0.864895 0.369707 0.0276363
-0.360758 0.224615 -0.005
-0.873261 0.545848 -0.977091
-0.869902 0.572027 -0.285515
3.97102e-07 0.211215 -1.075
2.73296e-07 0.218298 -0.361667
-0.873942 0.590487 0.40606
-0.875567 0.602287 1.09764
-2.39052e-07 0.22617 0.351667
-3.71419e-07 0.219526 1.065
-0.856658 0.779415 0.0929088
-0.491165 1.37412 0.125545
-4.91318e-06 1.07555 -0.879183
-4.7405e-06 1.36443 -0.209364
-1.11967e-06 1.41132 0.460454
6.44715e-07 1.39907 1.13027
0.864895 0.369704 0.0276363
0.360758 0.224615 -0.005
0.873228 0.545843 -0.977091
0.869898 0.572022 -0.285515
0.87394 0.590485 0.40606
0.8756 0.602288 1.09764
0.856658 0.779417 0.0929088
0.491163 1.37412 0.125545
-0.872588 0.3631 -1.73886
-0.886569 0.379872 -1.02605
-0.844151 0.717098 -0.928137
-0.881954 0.666072 -1.61919
0.872583 0.363099 -1.73886
0.881962 0.666069 -1.61919
0.844144 0.71709 -0.928137
0.886572 0.379869 -1.02605
-0.339695 0.21071 -1.78921
0.339695 0.210706 -1.78921
0.350355 0.211222 -1.075
-0.350354 0.211222 -1.075
-0.383752 0.887272 -1.56462
-0.395138 1.05937 -0.879183
0.395129 1.0593 -0.879183
0.383749 0.887274 -1.56462
-0.354043 0.354124 -2.32
-0.373254 0.650618 -2.24906
0.373252 0.650618 -2.24908
0.354042 0.354124 -2.31999
-0.860778 0.361626 -0.323591
-0.868806 0.374969 0.378864
-0.847964 0.788336 0.433257
-0.853927 0.764399 -0.24744
0.860784 0.361619 -0.323591
0.85392 0.764393 -0.24744
0.847968 0.788339 0.433257
0.868806 0.374968 0.378864
-0.358368 0.218197 -0.361667
0.358368 0.218197 -0.361667
0.365883 0.224828 0.351667
-0.365884 0.224828 0.351667
-0.495452 1.33246 -0.209364
-0.485478 1.38163 0.460454
0.48548 1.38164 0.460454
0.495433 1.33243 -0.209364
-0.868307 0.413051 1.08132
-0.835999 0.432816 1.78793
-0.802273 0.781379 1.79881
-0.853824 0.79086 1.11395
0.868301 0.413051 1.08132
0.853833 0.790859 1.11395
0.802295 0.781377 1.79882
0.835997 0.432816 1.78794
-0.376842 0.219522 1.065
0.376842 0.219522 1.065
0.37013 0.227056 1.77985
-0.37013 0.226754 1.77985
-0.372604 1.38887 1.13027
-0.33786 1.23712 1.8134
0.337859 1.23715 1.8134
0.372603 1.38888 1.13027
-0.349723 0.45098 2.33431
0.349739 0.45098 2.33431
0.326928 0.780808 2.2853
-0.326911 0.780808 2.28534
-0.68691 0.285 -2.12151
-0.501118 0.211523 -2.14848
-0.675632 0.212767 -1.96667
-0.721261 0.37375 2.15372
-0.535459 0.289108 2.14089
-0.741754 0.26195 1.95667
-0.747279 0.705 -1.92843
-0.55875 0.803745 -1.91265
-0.765386 0.806732 -1.71646
-0.651178 0.84625 2.15207
-0.467025 0.954124 2.16412
-0.671484 0.962438 1.96755
0.501118 0.211517 -2.14848
0.686934 0.285 -2.12153
0.675631 0.212768 -1.96667
0.535459 0.28949 2.14051
0.72123 0.37375 2.15369
0.741116 0.262588 1.95667
0.55875 0.803744 -1.91265
0.747331 0.705 -1.92848
0.765362 0.806708 -1.71646
0.467026 0.954187 2.16419
0.651051 0.84625 2.15194
0.67146 0.962413 1.96755
-0.705464 0.214382 -0.896667
-0.710723 0.219605 -0.54
-0.848157 0.251703 -0.696576
-0.533142 0.213525 -0.718333
-0.751384 0.220873 0.886667
-0.735644 0.226131 0.53
-0.860539 0.276335 0.719212
-0.555919 0.225596 0.708333
-0.79069 0.900111 -0.711728
-0.836338 0.83808 -0.566031
-0.790099 0.922212 -0.376819
-0.670892 1.15256 -0.544273
-0.756025 0.978904 0.962818
-0.830893 0.900443 0.784485
-0.767342 0.967529 0.627909
-0.631666 1.20304 0.795363
0.705465 0.214381 -0.896667
0.533142 0.213525 -0.718333
0.710725 0.219603 -0.54
0.848153 0.251703 -0.696576
0.751366 0.220891 0.886667
0.555918 0.225596 0.708333
0.735646 0.226129 0.53
0.860542 0.276334 0.719212
0.790686 0.900106 -0.711728
0.670873 1.15254 -0.544273
0.836375 0.838091 -0.566031
[...]
POINT_DATA 3682
SCALARS point_scalars float 1
LOOKUP_TABLE default
-81.1392
-47.3508
-48.3069
-35.6418
-81.3022
-47.5365
-48.309
-35.5104
-37.0772
-35.1949
-57.2577
-45.6822
-37.0526
-35.1789
-57.2391
-45.6563
-75.1136
-91.7663
-42.1609
-37.3764
-48.5061
-39.3957
-38.2431
78.6605
-79.1762
-35.3684
-37.3608
-46.3542
-39.249
-38.2431
54.3994
-75.699
-49.1924
-43.3332
-42.228
-36.9473
-36.9473
-26.4566
-47.7679
-84.2282
-50.2922
-36.4585
-35.0028
-35.7287
-21.1587
-123.604
-37.6451
-34.962
-46.1833
-38.1399
-37.5883
79.5808
-37.5726
-37.2808
149.881
-35.8566
-36.6363
-15.8927
-27.8947
-85.1018
-50.0341
-36.8053
-33.4387
-33.5179
-13.7507
-99.5425
-37.6226
-34.9745
-46.1158
-38.0908
-37.6348
121.077
-37.5309
-37.242
145.955
-35.6653
-36.5361
-22.1743
-27.8786
-85.3398
-50.9086
-35.5048
-32.9917
-32.7824
-75.2927
-92.0257
-42.0431
-37.408
-48.6117
-39.3136
-38.1486
61.1756
-79.2145
-35.3565
-37.3376
-46.2446
-39.1937
-38.1752
51.9889
-75.8693
-49.2651
-43.3093
-42.0899
-36.8705
-37.2527
-26.4371
-47.3763
-83.8641
-50.0815
-36.312
-34.8745
-35.2303
-22.886
-120.179
-50.7546
-38.7605
-44.4142
-43.2152
-35.9085
-43.0661
-28.0619
-44.4215
-22.6215
-50.745
-38.643
-43.2001
-43.041
-44.3495
-33.2432
-38.3322
-38.2708
-39.8742
-34.7564
-52.3442
-27.7491
-56.454
-33.2288
-38.3231
-39.8497
-52.3076
-56.5563
-56.5441
-51.5542
8.25132
199.945
-40.6176
-40.6009
-33.2152
-77.7866
-46.4293
-46.3655
-44.2686
-42.2053
-33.7311
3.8763
-123.931
-70.9526
-42.1195
-44.7778
-52.5196
-20.9615
-35.1144
-50.2497
-38.2947
-31.422
-40.493
-123.91
4.29713
-70.9411
-44.7471
-42.0039
-52.452
-35.0875
-17.9045
-49.8664
-31.2634
-38.1712
-40.3602
-40.8997
-34.4572
-35.554
-37.9401
-39.07
-33.7104
-38.0048
-34.8087
-48.9745
-44.9586
-55.4152
-46.4496
-45.6984
-41.8566
-48.6749
-52.4477
-40.8999
-37.9373
-34.4568
-35.544
-39.0507
-34.8022
-33.696
-37.988
-48.9874
-46.4123
-44.9477
-55.4031
-45.6639
-52.4173
-41.8299
-48.6395
-88.0793
173.494
-69.4405
174.557
-57.0748
-51.0311
-47.0511
-36.0782
-51.469
-37.5803
-45.0227
-44.0233
-15.0342
103.819
-56.4103
-0.171604
-31.0718
-31.8774
-46.8623
-43.2913
-88.0397
173.092
-57.0457
-51.0271
-46.942
-35.9745
-44.9467
-44.0197
-56.3991
-0.154321
-47.0153
-43.2452
-36.9953
-33.1572
-46.197
-39.6607
-42.7243
-35.0996
-39.9955
-41.4217
-33.3516
-39.6026
-45.2312
-71.2397
25.6176
-85.2735
-65.5334
-49.4424
-36.9766
-33.151
-46.1781
-39.6474
-39.9774
-41.3887
-45.2087
-71.2185
-81.6024
-48.4197
-45.2763
-70.1277
-81.4835
-69.9894
-45.2642
-48.5294
-69.2515
-69.2508
-42.2471
-42.2503
-19.1698
20.2812
20.3709
-19.1613
159.369
91.7903
93.4638
159.313
-35.9438
-37.0457
-43.6974
-45.3569
-35.9371
-45.3176
-43.6814
-37.0317
-34.8579
-34.855
-33.341
-33.3488
-82.7471
-59.6851
-59.6603
-82.7167
-40.5301
-49.8005
-44.5591
-42.9804
-40.5027
-42.8949
-44.4342
-49.7404
-39.5031
-39.4973
-51.8942
-51.9475
-48.9864
-33.3813
-33.2973
-48.9576
-37.9323
-37.8853
-34.7712
-34.9585
-8.97332
-141.298
-97.9895
-44.5696
-44.9906
-48.1586
-21.2706
-39.5469
-54.3244
-37.6526
-32.9453
-36.7965
-141.39
-9.17396
-97.9777
-44.9432
-44.4734
-48.07
-39.5154
-21.0645
-54.0677
-32.8119
-37.519
-36.6726
-38.2223
-35.5402
-35.6284
-37.4551
-38.7485
-34.3898
-37.531
-34.815
-57.9522
-50.3764
-56.8783
-83.0468
-45.2692
-43.5212
-47.0703
-48.4911
-38.2281
-37.4219
-35.5347
-35.6154
-38.7579
-34.8138
-34.3828
-37.4784
-57.956
-83.0297
-50.3589
-56.8576
-45.2543
-48.4426
-43.4972
-47.035
-3.18801
-15.9048
-60.6649
103.553
-122.556
-122.572
-89.1233
48.4693
-58.7254
-45.1507
-56.0406
-50.5617
-40.3598
-38.6257
-44.1912
-36.3059
-44.4342
-44.4164
-48.1619
-39.4329
-46.8208
-40.423
-44.9531
-43.6077
-35.702
-35.766
-26.0975
-21.4781
-43.1548
-44.1077
-51.2117
-13.5574
-29.2504
-29.1038
-28.0055
-28.3593
-42.9883
-45.3181
-45.5199
-44.7191
-2.77211
-15.3094
-60.8106
103.793
-58.7128
-45.1458
-56.0186
-50.5576
-40.2484
-38.5095
-44.0511
-36.2177
-46.7984
-40.402
-44.918
-43.5969
-43.354
-44.1126
-51.2066
-13.5512
-42.8759
-45.2776
-45.5591
-44.6527
-34.9296
-33.4005
-34.9422
-33.0956
-36.58
-40.8759
-38.5163
-38.9732
-38.2112
-38.21
-40.0578
-36.6326
-39.1302
-40.8089
-39.8031
-40.2201
-34.7367
-34.7322
-33.965
-36.847
-54.2085
-50.4424
-48.4961
-59.4915
-32.7415
-32.7297
7.14422
-64.1966
-55.7491
-55.7364
-60.335
-52.5456
-34.931
-33.3765
-34.9235
-33.0869
-36.5721
-40.8647
-38.5119
-38.9612
-39.1087
-40.7838
-39.7822
-40.1833
-54.1801
-50.4053
-48.4621
-59.4673
-68.8641
-57.297
-56.0844
-51.1555
-68.8545
-57.2764
-56.0919
-51.1577
-58.3235
-51.3137
-51.3118
-46.472
-3.8424
6.54513
6.54523
19.7371
195.046
201.761
176.806
195.777
-38.507
-40.5011
-40.3413
-42.7034
-38.4899
-40.4877
-40.3231
-42.6855
-33.1917
-35.0491
-33.0798
-33.1883
-76.6505
-84.8603
-70.8356
-76.6095
-48.918
-45.6412
-47.6012
-43.3963
-48.8397
-45.5546
-47.5561
-43.3423
-47.468
-44.2151
-44.2135
-41.7467
-37.5184
-42.4668
-42.4385
-46.0678
-34.488
-35.7919
-33.1758
-34.3805
-71.2874
91.6158
-89.2751
61.7629
-75.1993
-69.6922
-45.9184
-38.0924
-48.606
-39.9263
-51.2818
-52.4425
-68.9462
51.4188
-28.5214
-6.57686
-60.5269
-28.35
-42.5092
-36.2834
-30.7442
-33.4597
-42.91
-35.9496
-89.2773
61.7791
-71.727
91.5527
-75.1503
-69.7059
-48.5775
-39.8908
-45.7869
-38.0376
-51.2115
-52.3655
-28.5147
-6.39072
-69.2035
51.2209
-60.6133
-28.3356
-30.6402
-33.2422
-42.3611
-36.1758
-42.7877
-35.8396
-50.1003
-41.7119
-34.2792
-34.6096
-38.4215
-35.4994
-39.6587
-36.2369
-39.2041
-39.256
-35.6293
-33.4107
-37.2977
-41.5027
-33.9787
-36.6829
-47.9138
-4.70205
-43.8818
-45.336
-49.5952
-70.7578
0.893554
-60.5399
-43.9103
-46.6184
-42.8035
-41.4623
-45.4022
-52.5257
-55.7077
-50.6546
-50.0443
-41.7099
-39.6556
-36.234
-34.275
-34.6066
-38.4069
-35.4879
-39.1744
-39.246
-33.9718
-36.6761
-35.6171
-33.3989
-37.2805
-41.4798
-47.9104
-4.6831
0.872643
-60.5688
-43.8711
-45.3156
-49.4654
-70.7264
-43.8492
-46.5797
-55.6833
-50.6303
-42.7802
-41.4202
-45.3787
-52.4856
-85.8973
-81.6556
183.209
135.52
-69.3329
-69.4048
164.263
165.81
-70.0818
-49.9938
-57.5788
-45.8926
-48.6576
-45.5877
-36.8385
-35.8501
-51.622
-51.6425
-37.7642
-37.7395
-42.0029
-47.8023
-41.4803
-47.4318
-15.7531
-15.7562
115.664
115.677
-50.7929
-63.4347
-10.0816
11.3359
-31.6722
-31.6232
-33.3309
-33.4336
-46.5583
-45.2874
-46.1548
-40.6197
-85.7795
-81.6527
133.815
183.05
-70.0259
-49.9618
-57.5751
-45.8889
-45.4687
-48.555
-36.7823
-35.6155
-41.9666
-47.6872
-41.4746
-47.4353
-63.5561
-50.7991
11.3626
-10.0702
-45.1567
-46.4266
-40.5396
-46.1185
-36.5249
-36.8919
-34.8212
-33.0589
-47.6861
-45.1078
-37.4934
-42.1819
-42.594
-42.5959
-35.0461
-35.0444
-38.4689
-41.7073
-41.1358
-41.5652
-33.3433
-33.3476
-39.4273
-39.4246
-44.671
-45.5985
-78.7474
-64.3467
25.0131
24.9761
-82.3938
-82.1825
-64.3502
-64.3411
-49.3528
-49.3382
-36.5131
-36.8717
-34.8186
-33.0513
-45.0892
-47.6888
-37.4825
-42.1662
-41.689
-38.452
-41.1049
-41.5246
-45.5879
-44.6491
-64.3293
-78.7359
-80.1824
-68.4819
-69.1974
-64.8258
-42.668
-38.0444
-50.9332
-48.5567
-49.993
-50.0121
-52.1598
-40.1826
-74.6219
-64.1841
-67.6266
-52.9737
-80.214
-65.0706
-69.163
-68.3867
-74.7876
-53.0238
-67.6315
-64.4209
-49.9805
-40.177
-52.1783
-50.0259
-42.6685
-48.5302
-50.9161
-38.0394
-94.0692
-88.7828
-57.9262
-57.6784
-94.0799
-57.6754
-57.925
-88.7902
-39.168
-39.9471
-46.4196
-45.3664
-39.172
-45.1883
-46.4215
-39.9487
-36.2878
-20.1082
-5.04455
-26.001
-68.8629
6.50356
17.7602
-8.54652
-70.6521
-8.45328
17.9842
6.26046
-36.2602
-25.9989
-5.03835
-20.0963
33.8967
113.815
196.602
44.7225
3.89377
-12.7623
169.043
69.4104
3.89085
69.3318
168.765
-11.0688
33.8521
44.0926
197.224
114.498
-34.6424
-36.079
-38.1163
-36.9125
-36.2551
-38.647
-38.3832
-35.3307
-44.3116
-47.3379
-42.2354
-41.3716
-50.1904
-41.6287
-42.7994
-49.2514
-34.6351
-36.9019
-38.1033
-36.094
-50.1659
-49.214
-42.7861
-41.6132
-44.2979
-41.3487
-42.2167
-47.3207
-36.2597
-35.2935
-38.3647
-38.6278
-35.8583
-36.5384
-35.0071
-34.7577
-35.8538
-34.7544
-35.0059
-36.537
-34.0539
-33.9574
-33.0622
-33.0891
-34.0762
-33.1014
-33.0661
-33.9613
-76.2662
-64.0326
-83.4365
-61.8782
-50.2413
-59.3104
-69.535
-55.6306
-50.1966
-55.597
-69.5334
-59.2994
-76.2893
-61.8577
-83.442
-64.0144
-44.419
-41.2106
-42.6755
-40.2367
-46.4151
-45.301
-48.2433
-47.7677
-41.1535
-44.801
-48.242
-43.2152
-43.5692
-40.5245
-44.0568
-45.3193
-44.4517
-40.2104
-42.6368
-41.1642
-43.5848
-45.1683
-43.9945
-40.4909
-41.0054
-43.0733
-48.1388
-44.671
-46.295
-47.67
-48.1773
-45.1578
-36.6587
-36.8068
-41.6842
-41.0781
-36.6496
-41.067
-41.6817
-36.8027
-48.9413
-48.2899
-47.4697
-47.2254
-48.9859
-47.2184
-47.4705
-48.3054
-47.1878
-44.9464
-46.1462
-52.1234
-32.6919
-28.874
-38.1405
-42.5129
-32.5799
-42.4044
-38.1017
-28.7965
-47.1461
-52.1117
-46.1265
-44.8995
-40.7134
-39.0378
-36.2715
-36.9109
-40.6555
-36.8566
-36.225
-38.778
-35.4775
-30.0884
-34.1906
-36.5435
-35.6214
-36.6317
-34.2139
-30.3006
-43.4456
-145.802
-139.931
-46.7285
-47.0176
-45.837
-25.2338
-45.6434
-67.0268
-37.1703
-33.7085
-35.4262
-145.845
-43.6513
-139.848
-46.9234
-46.7839
-45.7345
-45.641
-25.1429
-67.0687
-33.5786
-37.0355
-35.2909
-37.7834
-36.7667
-36.2403
-37.1993
-35.4511
-34.7514
-38.1979
-34.9443
-58.0827
-53.657
-57.1471
-69.1628
-45.365
-45.079
-46.4591
-46.794
-37.758
-37.1899
-36.7616
-36.2002
-35.4517
-34.954
-34.7421
-38.0771
-58.008
-69.1504
-53.6354
-57.1206
-45.3472
-46.7488
-45.0557
-46.4263
-17.0912
-21.4657
-51.4172
43.4714
-120.961
-120.965
-105.532
-119.108
-54.3693
-47.6521
-55.0159
-50.3806
-39.273
-38.663
-43.0241
-36.5164
-44.4368
-44.4281
-46.1365
-41.2469
-43.9796
-41.073
-43.8821
-43.28
-35.3872
-35.4441
-30.8381
-60.1567
-42.6036
-43.4721
-49.5194
-26.4078
-28.4283
-28.3009
-27.6611
-27.5787
-43.7665
-44.8798
-45.2494
-43.6416
-16.7336
-22.1465
-51.3633
43.0471
-54.358
-47.6448
-54.9967
-50.3745
-39.1545
-38.5462
-42.8744
-36.4164
-43.8659
-41.0514
-43.8746
-43.2591
-42.5804
-43.4673
-49.5116
-26.417
-43.6746
-44.8257
-45.1916
-43.576
-34.0796
-33.2294
-33.6266
-33.1187
-37.3126
-39.4544
-38.1754
-38.708
-38.3356
-38.3351
-38.9826
-37.9058
-39.4516
-40.312
-39.7822
-40.0426
-34.7584
-34.756
-34.2838
-35.0689
-53.3344
-51.5031
-50.7744
-55.4162
-28.4494
-28.4482
-12.8861
-47.9001
-56.2894
-56.2833
-58.3778
-54.4406
-34.0712
-33.2075
-33.6126
-33.1081
-37.3038
-39.4445
-38.1685
-38.6967
-39.428
-40.2865
-39.759
-40.0161
-53.3024
-51.4689
-50.7355
-55.3875
-61.5443
-56.8758
-56.3573
-53.3049
-61.5238
-56.8589
-56.3513
-53.3025
-54.5734
-51.4629
-51.4623
-48.818
1.27089
7.84101
7.83724
13.6227
197.921
205.688
191.388
197.74
-39.6152
-40.7257
-40.4932
-41.5759
-39.5982
-40.7111
-40.4759
-41.5586
-33.2161
-34.0993
-33.0647
-33.2143
-77.5392
-81.6033
-74.2275
-77.5009
-47.4431
-46.0341
-46.845
-44.716
-47.3629
-45.9562
-46.7853
-44.6572
-45.7499
-44.2583
-44.2573
-43.0145
-40.0584
-42.2668
-42.2527
-44.1679
-33.9369
-34.5734
-33.3513
-33.8775
7.51033
-3.49815
-65.432
57.5824
-130.73
-122.901
-107.703
-43.1776
-80.8998
-64.1952
-79.3865
-69.9285
-43.0809
-41.122
-44.0742
-38.8872
-46.2099
-44.529
-46.503
-41.4841
-50.0197
-50.6903
-52.5143
-52.0955
-19.7107
-18.3508
-49.5284
20.3034
-37.0454
-35.249
-31.9307
-43.8376
-51.98
-45.2166
-58.2745
-36.2194
-38.085
-38.4211
-41.2705
-36.77
-32.1678
-30.2366
-30.8821
-32.182
-38.4051
-41.9864
-41.7301
-38.3724
-130.708
-122.944
-107.716
-43.2702
7.47956
-2.87246
-65.7319
56.4903
-80.8992
-64.1818
-79.403
-69.9243
-45.9688
-44.502
-46.4574
-41.4151
-42.9657
-41.0214
-43.9387
-38.8122
-49.9104
-50.8873
-52.3671
-52.0306
-37.0125
-35.251
-31.9389
-43.6679
-19.4096
-16.2754
-50.1238
20.0758
-52.064
-45.3674
-57.8634
-36.2039
-32.0213
-30.1423
-30.7534
-31.9414
-37.9544
-38.3022
-41.1294
-36.6697
-38.2987
-41.8296
-41.6071
-38.231
-39.8543
-42.8656
-47.5354
-41.3836
-34.5718
-34.4422
-34.7657
-34.4829
-35.2428
-36.0085
-36.0554
-35.4192
-37.7188
-38.0673
-38.7713
-37.3643
-39.2585
-39.032
-39.4035
-39.1679
-33.9973
-33.5125
-33.7169
-33.5222
-37.5703
-38.7134
-37.5296
-39.1124
-34.8291
-34.7479
-34.3636
-35.0147
-58.0263
-45.9297
-49.6345
-35.7381
-47.56
-42.7238
-44.4537
-44.9318
-56.1228
-54.7899
-52.5651
-61.2558
-63.0099
-38.2366
-24.876
-55.6159
-45.396
-45.6458
-45.6512
-45.8515
-42.2988
-41.4613
-42.2642
-41.5028
-47.6297
-49.4807
-47.6705
-50.1887
-50.4412
-54.7825
-54.1583
-51.7902
-39.8586
-42.8634
-47.546
-41.3821
-37.7151
-38.0652
-38.7683
-37.3621
-34.567
-34.4444
-34.7614
-34.4799
-35.2329
-35.999
-36.0462
-35.4078
-39.2445
-39.0184
-39.3712
-39.1554
-34.8229
-34.7421
-34.357
-35.0071
-33.9896
-33.4946
-33.6817
-33.5091
-37.545
-38.6947
-37.5068
-39.0961
-57.9586
-45.9972
-49.6322
-35.8638
-62.9432
-38.2572
-24.7711
-55.6578
-47.5437
-42.7133
-44.4416
-44.9134
-56.1066
-54.7587
-52.6162
-61.2376
-45.372
-45.6048
-45.6241
-45.8197
-50.3744
-54.763
-54.1273
-51.7678
-42.2733
-41.435
-42.2372
-41.4667
-47.5944
-49.4405
-47.6396
-50.1457
-76.2878
-79.8201
-88.4366
-84.7732
144.568
190.378
182.068
158.093
-77.7664
-63.3366
-69.3414
-69.3442
150.275
193.267
171.069
172.107
-57.0849
-57.3586
-63.0131
-52.9506
-50.7993
-51.4435
-54.1544
-48.2966
-45.4064
-49.0574
-47.8785
-46.3315
-36.3504
-35.275
-36.208
-36.1449
-50.2403
-49.8475
-51.2722
-51.2778
-38.6263
-36.7255
-37.658
-37.6437
-44.8418
-45.2982
-43.3067
-46.1881
-43.8562
-44.144
-42.7365
-45.5771
-20.4459
-9.3715
-15.018
-15.0343
63.7849
145.064
113.771
110.554
-53.5604
-56.0051
-54.3058
-57.7884
-5.69519
3.59287
-5.40615
4.99228
-29.1697
-35.0278
-31.252
-31.2494
-30.7315
-32.5153
-32.5865
-32.7291
-46.0203
-47.9533
-47.1577
-46.2704
-43.8747
-42.7946
-44.7981
-41.6733
-76.3352
-79.7852
-88.3576
-84.7563
144.623
191.522
156.821
181.801
-57.0571
-57.3325
-62.9829
-52.9259
-50.7955
-51.4401
-54.1506
-48.2927
-45.283
-48.9632
-46.2168
-47.7738
-36.2647
-35.1214
-36.1329
-36.0043
-44.7798
-45.2123
-43.2549
-46.1012
-43.8504
-44.1417
-42.7317
-45.5762
-53.547
-56.01
-57.7079
-54.3324
-5.67742
3.60375
5.00816
-5.38704
-46.3679
-47.8102
-46.2203
-47.0536
-43.8304
-42.7519
-41.6093
-44.7566
-36.1402
-37.7298
-36.8695
-36.9051
-33.1166
-33.1737
-33.9186
-33.0303
-41.1334
-50.6406
-46.9416
-45.4522
-39.2881
-39.9776
-38.5004
-40.819
-41.2781
-44.2955
-42.6987
-42.6994
-35.4904
-34.9182
-35.0771
-35.0762
-39.8682
-40.1416
-39.2872
-40.7748
-40.6012
-42.2881
-41.3087
-41.4103
-33.627
-33.1673
-33.3492
-33.3513
-38.4873
-40.6324
-39.5887
-39.5873
-46.6403
-43.93
-45.0973
-45.4541
-65.94
-74.3842
-75.0513
-67.693
19.5627
25.3391
25.4832
25.4589
-76.841
-86.5425
-84.8104
-84.7954
-62.729
-68.256
-65.2464
-65.2427
-50.8733
-48.007
-49.4276
-49.4201
-36.1177
-37.712
-36.8561
-36.8842
-33.1091
-33.1687
-33.9141
-33.0234
-41.1273
-50.6283
-45.4293
-46.9344
-39.2756
-39.9647
-38.4884
-40.8047
-39.8491
-40.1231
-40.7563
-39.2701
-40.566
-42.2446
-41.2738
-41.3792
-46.6134
-43.9112
-45.437
-45.0695
-65.927
-74.3465
-67.6794
-75.0345
-74.2358
-77.5108
-84.6964
-77.8116
-48.8128
-43.9099
-49.0508
-48.4305
-45.9203
-43.4818
-48.4182
-45.021
-75.551
-61.7851
-76.6116
-68.3511
-74.1644
-77.4263
-84.5432
-77.7352
-75.656
-61.5227
-76.599
-68.3704
-45.914
-43.4735
-48.4278
-45.0064
-48.8011
-43.9015
-48.9786
-48.4771
-77.0773
-69.3989
-69.3103
-63.0278
-77.0754
-69.3991
-69.3219
-63.026
-41.9838
-40.8264
-43.93
-42.4383
-41.9864
-40.8295
-43.9334
-42.4411
-24.0343
-23.0396
-16.9031
-14.6724
13.707
13.1013
18.4412
23.3352
13.7394
13.1289
18.4679
23.2637
-24.023
-23.0348
-16.8935
-14.6698
128.003
129.452
175.563
166.29
72.0178
50.18
115.127
113.468
50.9868
72.5076
113.685
114.128
129.454
128.144
166.536
175.462
-35.3741
-35.7217
-36.201
-36.6556
-36.5662
-37.0813
-36.916
-37.6992
-43.3598
-44.1107
-42.7943
-44.2767
-45.2775
-47.3058
-43.6703
-45.4934
-35.3703
-35.7119
-36.1932
-36.6464
-45.2536
-47.1882
-43.6546
-45.4721
-43.3391
-44.0964
-42.7765
-44.2604
-36.5555
-37.067
-36.8991
-37.6838
-34.7152
-35.218
-34.7268
-34.9536
-35.2148
-34.7315
-34.9512
-34.724
-33.6305
-33.3547
-33.3394
-33.162
-33.3644
-33.638
-33.1698
-33.3454
-82.8027
-75.5368
-79.9724
-81.2124
-55.9276
-57.4002
-61.9196
-62.6714
-57.3803
-55.9362
-62.6556
-61.8899
-75.5164
-82.7933
-81.2176
-79.9529
-39.9434
-41.4901
-41.0063
-40.8486
-47.5434
-50.3089
-49.2555
-50.3873
-43.3622
-43.5882
-45.2409
-46.2268
-44.1215
-41.8644
-44.1104
-41.7897
-39.9163
-41.4624
-40.9752
-40.8211
-44.0134
-41.8282
-44.0359
-41.7325
-43.2325
-43.466
-45.12
-46.0936
-47.4283
-50.2987
-49.1651
-50.3426
-39.3188
-38.3923
-40.4268
-39.4622
-39.3111
-38.3865
-40.4209
-39.4886
-50.6602
-51.9789
-51.6047
-50.0581
-50.7161
-52.0351
-51.6343
-50.033
-48.4113
-49.8895
-47.5871
-49.1548
-31.3305
-34.2665
-32.3238
-36.8753
-31.2412
-34.1732
-32.2527
-36.7887
-48.3812
-49.8643
-47.5556
-49.1345
-37.9541
-38.6377
-37.4954
-38.0141
-38.5914
-37.9148
-37.9808
-37.4596
-34.2428
-35.7939
-33.9327
-35.2503
-35.9205
-34.4393
-35.465
-33.9647
-80.9696
44.4802
-116.632
-23.6361
-95.9267
-94.4685
-45.2051
-41.3267
-46.5156
-43.7694
-46.8432
-49.0221
-63.6288
2.71316
-39.8664
-32.4798
-67.4045
-42.5918
-40.0505
-36.0765
-32.4533
-34.5964
-39.2338
-34.4871
-116.671
-23.9482
-81.0426
44.3922
-95.8792
-94.4626
-46.4608
-43.7081
-45.0586
-41.1246
-46.7323
-48.9598
-39.8229
-32.2787
-63.8704
2.79285
-67.5188
-42.5696
-32.3424
-34.4477
-39.9058
-35.9521
-39.0803
-34.3751
-37.9937
-38.923
-35.0991
-35.6823
-36.1948
-35.0746
-38.1159
-37.0079
-42.2667
-36.8942
-35.7952
-34.2007
-36.757
-33.4028
-34.4303
-35.1165
-54.2716
-76.1175
-50.3407
-49.9958
-53.1878
-64.1792
-79.9196
-82.2017
-44.6302
-45.9109
-43.9606
-43.3795
-46.6362
-48.3186
-49.2131
-47.6964
-38.0164
-38.9183
-38.1105
-37.0033
-35.0923
-35.6768
-36.1685
-35.0668
-42.3323
-36.8857
-34.4273
-35.1087
-35.8225
-34.1789
-36.739
-33.4157
-54.2079
-76.0859
-79.8406
-81.953
-50.3228
-49.9741
-53.163
-64.1757
-44.6234
-45.8886
-49.1643
-47.6543
-43.9423
-43.3434
-46.6119
-48.2705
-56.0982
60.7398
-51.1299
32.9636
-61.7782
-60.9043
111.14
86.7229
-106.149
-52.04
-106.16
-52.5956
-88.4584
-88.4701
50.0961
50.359
-67.7107
-57.5758
-47.5236
-45.1014
-62.3019
-51.726
-53.7341
-47.7446
-43.0606
-37.418
-42.2146
-36.9719
-44.8815
-43.6612
-36.192
-36.5843
-46.269
-40.6459
-46.2535
-40.5858
-48.2292
-48.2367
-39.5444
-39.509
-47.7161
-47.0426
-40.5408
-40.7244
-42.3396
-45.8258
-42.2457
-45.2272
-31.192
-52.346
-31.1828
-52.6684
-25.8838
-25.891
-13.1438
-9.52192
-51.8194
-28.6743
-49.1316
-26.236
-50.7656
-51.4817
-16.7584
-11.6281
-28.7582
-29.4335
-28.655
-29.2549
-28.2477
-28.2016
-28.7783
-28.9068
-44.1127
-42.1651
-45.4411
-44.8288
-45.6236
-45.5649
-44.1453
-44.9471
-55.8866
55.1541
-51.314
32.544
-62.0004
-61.1072
86.6877
112.262
-67.6609
-57.5688
-47.5061
-45.0976
-62.2604
-51.6991
-53.7304
-47.8636
-42.9321
-37.3418
-42.0742
-36.8772
-43.5283
-44.7396
-36.1062
-36.4983
-47.6733
-47.0595
-40.5047
-40.7092
-42.2953
-45.7463
-42.2344
-45.2213
-51.6477
-28.6728
-49.1504
-26.128
-51.5067
-50.7696
-11.601
-16.7485
-43.9938
-42.0515
-45.4074
-44.7871
-45.5945
-45.5012
-44.8532
-44.0909
-35.2677
-34.8494
-33.5169
-33.1906
-34.7092
-34.9052
-33.8679
-33.0346
-36.8635
-36.6899
-40.3825
-41.2813
-38.1028
-39.1251
-37.8505
-40.18
-38.962
-37.7949
-38.9605
-37.7943
-40.0388
-40.0394
-36.6101
-36.6095
-38.8721
-39.5133
-41.0341
-40.7613
-39.2155
-40.4599
-40.2171
-40.3837
-34.3733
-35.0318
-34.3694
-35.0268
-33.963
-33.9651
-36.7552
-36.7532
-52.1003
-58.3998
-49.1704
-52.7548
-48.0587
-49.1435
-61.5173
-57.5988
-16.898
-45.2958
-16.8273
-45.3024
6.78601
6.96187
-63.8527
-63.8472
-57.5184
-53.8905
-57.5066
-53.8782
-60.0847
-60.0795
-52.4474
-52.4413
-35.2855
-34.8468
-33.4679
-33.1752
-34.7003
-34.8737
-33.8618
-33.0238
-36.8556
-36.6794
-40.3743
-41.2672
-39.1208
-38.0983
-37.8393
-40.1665
-38.852
-39.4911
-41.0094
-40.7325
-40.438
-39.1958
-40.186
-40.3473
-52.0639
-58.3784
-49.1413
-52.7174
-49.1251
-48.0294
-57.5693
-61.4963
-69.2791
-68.2905
-62.9348
-53.5581
-53.3311
-60.4305
-50.8337
-51.7718
-69.2613
-68.2808
-62.9062
-53.5422
-60.4152
-53.3364
-51.7874
-50.8261
-58.025
-58.025
-54.5216
-48.9205
-54.52
-48.9184
-46.4544
-46.4551
-4.04697
-4.03906
-0.105476
12.0558
12.0485
-0.104687
19.0665
18.9371
199.806