# vtk DataFile Version 2.0
tri_press
ASCII
DATASET UNSTRUCTURED_GRID
POINTS 3682 float
-0.725 0.195 -2.01028
-0.705 0.295 1.92969
-0.705 0.63038 -2.015
-0.613266 0.985 2.015
0.725 0.195 -2.01028
0.705 0.295 1.92969
0.705 0.63038 -2.015
0.613271 0.985 2.015
-0.792131 0.154536 -0.696957
-0.794405 0.178929 0.616367
-0.78465 0.858815 -0.671667
-0.745561 0.968511 0.671667
0.792052 0.154615 -0.696957
0.794417 0.178917 0.616367
0.785658 0.859821 -0.671667
0.745571 0.968517 0.671667
-1.49248 -0.210725 -3.08765
-1.49765 -0.145927 -2.02497
-1.53978 -0.168475 -0.71242
-1.53048 -0.168657 0.594088
-1.46477 -0.0890926 1.90613
-1.44919 -0.023312 2.96631
-1.45833 0.0352001 4.03111
-1.48952 0.0837937 -3.07922
-1.49359 0.177896 -2.01326
-1.54915 0.181456 -0.694874
-1.52327 0.194582 0.620812
-1.42398 0.272244 1.93862
-1.4235 0.336586 2.99923
-1.44595 0.394237 4.06305
-1.48134 0.617703 -3.07078
-1.4799 0.708704 -2.00607
-1.53801 0.870075 -0.667222
-1.48558 0.954931 0.67375
-1.3633 0.990342 2.01202
-1.39154 1.0507 3.07139
-1.43417 1.11155 4.13037
-1.48458 1.57039 -3.03557
-1.48777 1.68366 -1.96636
-1.5056 1.86972 -0.617782
-1.5001 2.0179 0.737262
-1.47121 2.09752 2.08552
-1.46214 2.14598 3.15408
-1.47002 2.19722 4.21633
-0.742241 -0.202197 -3.08571
-0.731138 -0.132993 -2.02214
-0.771797 -0.18113 -0.712799
-0.784373 -0.180789 0.590294
-0.743297 -0.0799573 1.89949
-0.734378 -0.0170982 2.96181
-0.742091 0.0375089 4.02851
-0.744226 0.0832247 -3.07862
-0.720559 0.343938 2.99552
-0.736384 0.396719 4.06109
-0.737706 0.585566 -3.07449
-0.695533 1.05084 3.07198
-0.730856 1.11206 4.1305
-0.733483 1.54778 -3.03924
-0.731745 1.662 -1.9704
-0.752104 1.8641 -0.620219
-0.764676 2.0234 0.737554
-0.755229 2.10123 2.08761
-0.750456 2.14739 3.15616
-0.756169 2.19795 4.21785
0.740805 -0.202066 -3.08571
0.759421 -0.132911 -2.02214
0.790757 -0.181035 -0.712799
0.773639 -0.180768 0.590294
0.71221 -0.0799469 1.89949
0.69347 -0.0170747 2.96181
0.688439 0.0375509 4.02851
0.723144 0.083334 -3.07862
0.675617 0.343955 2.99552
0.677427 0.396756 4.06109
0.717132 0.585706 -3.07449
0.64392 1.05086 3.07199
0.66229 1.11211 4.1305
0.757953 1.54808 -3.03924
0.767229 1.66236 -1.9704
0.757073 1.86448 -0.620219
0.714261 2.02361 0.737554
0.672907 2.10133 2.08761
0.664596 2.14747 3.15616
0.666314 2.19803 4.21785
1.49111 -0.210385 -3.08765
1.51156 -0.145595 -2.02497
1.55336 -0.168173 -0.71242
1.53495 -0.168554 0.594088
1.45832 -0.0890449 1.90613
1.42404 -0.0232464 2.96631
1.41485 0.0352967 4.03111
1.47342 0.0841335 -3.07922
1.48958 0.178286 -2.01326
1.55148 0.181886 -0.694874
1.53492 0.194659 0.620812
1.4361 0.272269 1.93862
1.4008 0.336637 2.99923
1.39928 0.394325 4.06305
1.46541 0.61812 -3.07078
1.47604 0.709276 -2.00607
1.53918 0.871095 -0.667222
1.49356 0.955119 0.67375
1.37081 0.990381 2.01202
1.36101 1.05076 3.07139
1.37768 1.11165 4.13037
1.50423 1.57099 -3.03557
1.51417 1.68436 -1.96636
1.50876 1.87042 -0.617782
1.46166 2.01833 0.737262
1.40555 2.09776 2.08552
1.3877 2.14617 3.15408
1.38753 2.1974 4.21633
-0.76333 0.41269 -2.06097
0 0.173091 -2.03219
-0.785792 0.147542 -1.35362
-0.715684 0.64 2.0289
0 0.252644 1.97205
-0.74511 0.241557 1.27303
0 0.640242 -2.02486
-0.775222 0.774994 -1.34333
2.5034e-06 0.975961 2.00596
-0.727426 1.02477 1.34333
0.763377 0.41269 -2.06102
0.785338 0.147995 -1.35362
0.715363 0.64 2.02857
0.745145 0.241522 1.27303
0.775201 0.774972 -1.34333
0.727436 1.02477 1.34333
-0.797386 0.162614 -0.0402949
-0.893222 0.506675 -0.684312
-3.9244e-05 0.14909 -0.696957
-0.899864 0.57372 0.644017
6.01119e-06 0.175315 0.616367
-0.762963 0.91152 0
0.000503941 1.05963 -0.671667
4.85102e-06 1.36867 0.671667
0.797498 0.162502 -0.0402949
0.893152 0.507218 -0.684312
0.899864 0.573717 0.644017
0.76296 0.911515 0
-0.897961 0.459683 -1.34848
0.897952 0.459954 -1.34848
-1.9622e-05 0.141469 -1.35362
0.000251971 0.831219 -1.34333
0 0.41269 -2.1695
-0.895729 0.540198 -0.0201475
0.895837 0.540467 -0.0201475
-1.66164e-05 0.159508 -0.0402949
0.000254396 1.34362 0
-0.888774 0.60686 1.30818
0.888783 0.606858 1.30818
3.0056e-06 0.212098 1.27303
3.67721e-06 1.27311 1.34333
1.2517e-06 0.64 2.20112
-0.74954 0.303845 -2.041
-0.3625 0.173383 -2.0319
-0.780828 0.145839 -1.68195
-0.733849 0.4675 2.0028
-0.3525 0.257257 1.96743
-0.743682 0.249651 1.60136
-0.733417 0.521535 -2.03724
-0.3525 0.63413 -2.01875
-0.739069 0.701645 -1.67917
-0.64462 0.8125 2.00209
-0.306632 0.977846 2.00785
-0.670774 1.00531 1.67917
0.3625 0.173376 -2.0319
0.74982 0.303845 -2.04128
0.779333 0.147333 -1.68195
0.3525 0.238668 1.98602
0.733803 0.4675 2.00275
0.743874 0.249459 1.60136
0.3525 0.634141 -2.01876
0.733303 0.521535 -2.03712
0.738955 0.701531 -1.67917
0.306637 0.977846 2.00785
0.644632 0.8125 2.0021
0.67076 1.00529 1.67917
-0.791731 0.148269 -1.02529
-0.792228 0.161106 -0.368626
-0.862526 0.320681 -0.690634
-0.397271 0.149442 -0.696957
-0.742863 0.237137 0.944698
-0.796058 0.170609 0.288036
-0.867562 0.36611 0.630192
-0.3984 0.17472 0.616367
-0.784381 0.821349 -1.0075
-0.879244 0.702899 -0.677989
-0.771102 0.882463 -0.335833
-0.424092 1.02326 -0.671667
-0.736127 0.996273 1.0075
-0.862568 0.791043 0.657842
-0.762972 0.948725 0.335833
-0.460486 1.344 0.671667
0.791948 0.148052 -1.02529
0.397212 0.149442 -0.696957
0.792603 0.160731 -0.368626
0.862599 0.320918 -0.690634
0.742814 0.237186 0.944698
0.398409 0.17472 0.616367
0.796175 0.170492 0.288036
0.867561 0.366106 0.630192
0.784237 0.821204 -1.0075
0.424748 1.02306 -0.671667
0.87916 0.703397 -0.677989
0.771093 0.882452 -0.335833
0.736138 0.99628 1.0075
0.460497 1.34401 0.671667
0.862578 0.791047 0.657842
0.76297 0.94872 0.335833
-0.881552 0.436186 -1.70472
-0.381665 0.41269 -2.17461
-9.811e-06 0.141552 -1.6929
0 0.292891 -2.16697
-0.894637 0.303612 -1.35105
-0.392906 0.141469 -1.35362
-0.879112 0.62343 1.66854
-0.357841 0.64 2.17528
1.5028e-06 0.232532 1.62254
6.25849e-07 0.446322 2.1364
-0.875526 0.424208 1.2906
-0.372553 0.212098 1.27303
0.000125985 0.755888 -1.6841
0 0.526466 -2.04389
-0.895986 0.617338 -1.3459
-0.387485 0.818572 -1.34333
3.0903e-06 1.14449 1.67465
1.87755e-06 0.807981 2.12919
-0.856337 0.815814 1.32576
-0.363711 1.25032 1.34333
0.88156 0.436322 -1.70475
0.381688 0.41269 -2.18253
0.894631 0.303974 -1.35105
0.392659 0.141469 -1.35362
0.87913 0.623429 1.66838
0.357682 0.64 2.1753
0.875515 0.42419 1.2906
0.372574 0.204752 1.27303
0.895984 0.617463 -1.3459
0.387726 0.818538 -1.34333
0.856342 0.815816 1.32576
0.36372 1.25033 1.34333
-0.864691 0.342339 -0.0302212
-0.399302 0.159859 -0.0402949
-0.895832 0.483179 -1.01639
-0.891923 0.523436 -0.35223
-2.9433e-05 0.141779 -1.02529
-2.79302e-05 0.156534 -0.368626
-0.899721 0.556959 0.311935
-0.895518 0.59029 0.976099
-5.3026e-06 0.167259 0.288036
4.5084e-06 0.185158 0.944698
-0.871229 0.7468 -0.0100737
-0.475679 1.31622 0
0.000377956 0.848448 -1.0075
0.000379169 1.2632 -0.335833
0.000129624 1.36161 0.335833
4.26411e-06 1.35939 1.0075
0.864723 0.342457 -0.0302212
0.399314 0.159859 -0.0402949
0.895825 0.483586 -1.01639
0.89184 0.523843 -0.35223
0.899758 0.557092 0.311935
0.895518 0.590288 0.976099
0.871205 0.746894 -0.0100737
0.475937 1.31623 0
-0.856414 0.303729 -1.69334
-0.895415 0.317109 -1.02084
-0.887338 0.650042 -1.01195
-0.872948 0.569437 -1.69194
0.856572 0.30391 -1.69335
0.872967 0.569499 -1.69196
0.887488 0.650491 -1.01195
0.895416 0.317445 -1.02084
-0.377703 0.141251 -1.68743
0.37758 0.141251 -1.68743
0.394333 0.141779 -1.02529
-0.394495 0.141779 -1.02529
-0.369992 0.743712 -1.68163
-0.389779 0.867077 -1.0075
0.390404 0.867027 -1.0075
0.370113 0.743735 -1.68163
-0.372082 0.298368 -2.15738
-0.367082 0.524 -2.13609
0.367094 0.524 -2.13608
0.372094 0.298368 -2.15738
-0.863625 0.331502 -0.360428
-0.866091 0.354242 0.299985
-0.866876 0.76891 0.323884
-0.875436 0.72495 -0.344032
0.863665 0.331685 -0.360428
0.87536 0.725234 -0.344032
0.866867 0.768958 0.323884
0.866112 0.354297 0.299985
-0.397628 0.155967 -0.368626
0.397605 0.155967 -0.368626
0.399035 0.166943 0.288036
-0.399024 0.166943 0.288036
-0.474949 1.21987 -0.335833
-0.470878 1.3357 0.335833
0.471002 1.33569 0.335833
0.4754 1.21976 -0.335833
-0.881946 0.400266 0.960398
-0.871887 0.445854 1.63495
-0.829949 0.814157 1.67385
-0.862747 0.793464 0.9918
0.882162 0.400253 0.960398
0.862466 0.793467 0.9918
0.829942 0.814158 1.67377
0.871887 0.445845 1.63487
-0.384876 0.185158 0.944698
0.384893 0.185158 0.944698
0.362537 0.222918 1.61195
-0.362527 0.23582 1.61195
-0.368245 1.34542 1.0075
-0.335171 1.1149 1.67691
0.335178 1.11446 1.67691
0.368254 1.34542 1.0075
-0.355171 0.456911 2.16839
0.355091 0.456911 2.16842
0.332159 0.81024 2.10692
-0.332237 0.81024 2.10692
-0.733248 0.249422 -2.02162
-0.54375 0.178097 -2.02718
-0.761612 0.161721 -1.84611
-0.735855 0.38125 1.98268
-0.52875 0.259174 1.96552
-0.738304 0.258363 1.76552
-0.701196 0.575957 -2.00811
-0.52875 0.666063 -2.05068
-0.70517 0.649148 -1.84708
-0.618849 0.89875 1.99845
-0.459949 0.980869 2.01087
-0.619722 0.972858 1.84708
0.54375 0.17804 -2.02724
0.732879 0.249422 -2.02125
0.76164 0.161693 -1.84611
0.52875 0.255179 1.96951
0.73581 0.38125 1.98263
0.737067 0.2596 1.76552
0.52875 0.666464 -2.05108
0.702192 0.575957 -2.0091
0.70509 0.649068 -1.84708
0.459954 0.980868 2.01087
0.618492 0.89875 1.99809
0.619714 0.972846 1.84708
-0.795036 0.148298 -0.861122
-0.793595 0.156405 -0.532791
-0.830389 0.236078 -0.693795
-0.595603 0.150184 -0.696957
-0.795443 0.181224 0.780532
-0.797844 0.172156 0.452201
-0.833734 0.271144 0.623279
-0.597158 0.175314 0.616367
-0.783366 0.838932 -0.839583
-0.848102 0.788934 -0.674828
-0.775255 0.868017 -0.50375
-0.623811 0.979919 -0.671667
-0.740907 0.982455 0.839583
-0.802922 0.879205 0.664754
-0.749829 0.954181 0.50375
-0.622043 1.1943 0.671667
0.794999 0.148334 -0.861122
0.595554 0.150184 -0.696957
0.794182 0.155818 -0.532791
0.830443 0.236207 -0.693795
0.795403 0.181263 0.780532
0.597165 0.175314 0.616367
0.797951 0.172049 0.452201
0.833745 0.271134 0.623279
0.78334 0.838905 -0.839583
0.624386 0.979807 -0.671667
0.847774 0.789292 -0.674828
[...]
POINT_DATA 3682
SCALARS point_scalars float 1
LOOKUP_TABLE default
-45.9566
-48.9446
-10.0291
-36.6663
-49.3186
-48.4413
-10.2759
-35.8015
-39.0106
-39.9033
-70.7222
-49.0545
-38.9536
-39.8046
-70.8671
-48.9031
-26.1397
-51.5005
-53.4495
-37.9767
-51.3199
-42.2142
-39.0642
29.1388
-77.7866
-49.03
-38.7314
-51.2442
-39.9027
-38.4611
9.90586
-66.9981
-51.2227
-44.61
-47.7812
-38.7754
-37.4255
-37.3167
-32.8356
-96.9929
-55.7032
-42.9631
-36.5527
-36.5527
100.271
-145.131
-40.6703
-40.565
-47.6543
-39.5934
-38.8159
138.72
-38.5913
-38.0796
177.838
-37.5498
-37.021
57.6403
-18.9258
-85.2757
-57.3309
-36.5067
-36.5527
-33.9649
100.732
-133.975
-40.2542
-40.6264
-46.004
-40.9328
-38.2145
139.088
-38.1973
-37.8548
177.942
-36.5763
-36.3989
57.7584
-19.9305
-85.2323
-57.1863
-35.1215
-35.6888
-31.9712
-25.2093
-47.5231
-52.9523
-37.881
-50.6694
-41.7897
-38.8915
37.6806
-77.4926
-48.7069
-38.625
-50.647
-39.4889
-37.8898
9.899
-76.0117
-51.2799
-44.416
-47.0975
-38.1394
-36.883
-38.1254
-32.8626
-96.5576
-55.539
-39.8094
-35.6888
-35.6888
19.1711
-185.202
-57.9895
-39.1541
-43.4173
-40.0325
-35.9904
-35.7454
-30.8411
-46.5481
18.9989
-57.8735
-38.4928
-39.9579
-35.6574
-46.1319
-38.0863
-43.3388
-44.5016
-40.9719
-41.8952
-59.6083
33.4328
-63.8589
-38.0493
-43.3244
-40.8258
-59.5231
-57.2199
-57.1105
-64.2894
-3.85902
203.835
-42.1535
-42.0848
-39.9238
-100.926
-43.8845
-43.5139
-42.2662
-41.1299
-33.7713
-10.5001
-157.19
-80.3787
-42.936
-44.9248
-44.8269
30.9022
-16.8993
-25.5816
-38.3135
-32.4853
-39.1671
-157.023
-9.18046
-81.4019
-45.0327
-42.3799
-43.8153
-16.7829
31.1324
-25.4972
-31.9585
-37.5957
-38.5578
-47.5798
-37.5825
-39.2647
-43.6138
-45.6283
-37.5946
-38.6804
-41.9068
-35.4031
-51.0338
-68.717
17.7072
-46.0182
-44.8684
-53.7537
-58.8266
-47.1816
-43.607
-37.6337
-39.2237
-45.4716
-41.8415
-37.8432
-38.5511
-35.1295
17.7967
-51.1849
-68.6459
-45.7884
-58.7163
-44.7072
-53.6517
-60.8733
193.201
-90.5503
109.892
-58.0737
-62.9617
-48.9768
-36.8049
-42.1287
-37.5507
-41.9764
-41.8599
-17.1895
135.22
-60.1837
-9.87481
-32.8053
-31.7472
-45.7337
-42.2771
-60.9317
192.458
-57.9243
-62.9786
-48.3508
-36.1324
-41.6595
-41.6419
-60.1275
-9.92617
-45.4068
-42.0283
-38.8428
-39.4091
-46.3119
-42.7833
-51.2535
-41.3255
-41.0671
-42.9328
-39.9004
-43.44
-50.756
-92.5667
20.2839
-59.4416
-76.3575
-56.7708
-38.7875
-39.3917
-46.2547
-42.7404
-40.9777
-42.6465
-50.6788
-92.4459
-49.2
-47.6026
-47.8398
-54.7651
-49.2658
-54.7716
-47.7913
-47.5937
-88.917
-88.9058
-50.2794
-50.3097
-19.081
9.80644
9.37051
-19.1412
114.669
138.402
138.827
115.086
-38.7661
-38.7374
-47.0969
-52.8547
-38.7395
-52.825
-46.9996
-38.6517
-40.5892
-40.5846
-39.543
-39.5766
-56.6005
-68.9036
-68.819
-57.1125
-44.8084
-49.9008
-47.6235
-43.8222
-44.6033
-43.5551
-46.9716
-49.3677
-43.3417
-43.1965
-41.4194
-42.7942
-57.7096
-34.2263
-33.8257
-57.548
-38.1485
-37.9131
-34.6881
-35.7808
-2.13958
-93.0855
-92.501
-45.3438
-46.9017
-49.8515
27.9423
26.9727
-33.9048
-38.5129
-33.8154
-35.9879
-92.1319
-1.59672
-92.3944
-46.6605
-44.8234
-49.3802
26.6441
27.9851
-33.9968
-32.9726
-37.6602
-35.3472
-45.8961
-37.8568
-38.2023
-42.3077
-42.0007
-39.7903
-38.3267
-41.9262
-44.8503
-59.1154
-73.0016
-12.7051
-47.6818
-48.5012
-50.7209
-53.6758
-46.3667
-42.3064
-37.8565
-38.1392
-41.8964
-41.8412
-39.7419
-38.2084
-45.1384
-13.1066
-59.2385
-72.9094
-47.4917
-53.5007
-48.3559
-50.5852
1.69908
28.6863
-73.0087
166.408
-177.745
-177.928
-108.956
39.4462
-70.7557
-50.8274
-58.8282
-61.0724
-41.3498
-38.5253
-46.8788
-37.2342
-43.7488
-43.8335
-41.5487
-38.9867
-40.568
-39.8041
-41.2791
-40.1993
-36.2697
-36.0852
-24.1603
137.328
-29.672
-36.1507
-59.8201
-17.1296
-31.5325
-31.0736
-31.0603
-29.3574
-43.2634
-48.2515
-46.3746
-44.4693
1.78949
28.6995
-73.0296
166.543
-69.0474
-51.0057
-58.6047
-60.9628
-40.7828
-37.8603
-46.1639
-36.7365
-40.1189
-39.6588
-41.0113
-40.4998
-29.5876
-35.9996
-59.7946
-17.1137
-42.757
-47.9331
-45.9454
-44.1155
-36.7763
-37.9828
-38.081
-38.8008
-40.9601
-46.0357
-44.9938
-42.9441
-44.3102
-44.3065
-48.0804
-42.6288
-39.7062
-42.8495
-41.0063
-41.7436
-41.9064
-41.8705
-40.8761
-42.2958
-64.2751
-55.508
-56.6149
-74.0741
31.332
31.4007
35.5189
1.32333
-62.9455
-62.8885
-68.7317
-61.0657
-36.7764
-37.9104
-38.022
-38.7752
-40.9277
-46.0618
-44.9701
-42.9283
-39.5679
-42.696
-40.8885
-41.569
-64.1977
-55.3933
-56.5364
-73.9046
-67.9602
-57.5541
-57.4876
-50.2575
-67.8008
-57.4188
-57.4024
-50.1795
-75.8058
-64.2164
-64.1961
-56.521
-12.6848
-5.29981
-5.36092
6.53119
202.146
175.313
184.592
202.749
-40.2716
-42.9776
-42.172
-45.8226
-40.2158
-42.964
-42.0939
-45.7535
-39.8012
-39.9884
-39.9427
-39.7929
-99.845
-107.015
-86.0537
-99.821
-47.3673
-42.7855
-44.8432
-43.1088
-46.853
-42.4318
-44.4993
-42.8357
-41.9144
-42.1931
-42.1845
-43.1331
-36.1124
-41.4539
-41.3249
-48.1395
-35.2138
-37.9771
-33.2895
-34.5957
-79.4056
76.3378
-110.086
43.3635
-47.435
-85.5326
-51.2369
-38.5441
-42.6426
-40.1485
-51.4917
-43.1119
-73.6578
117.196
-28.3751
92.0197
-45.601
-18.0551
-44.7233
-36.9293
-32.7997
-34.2916
-44.1359
-35.7505
-110.132
43.009
-78.8666
72.7773
-48.1526
-85.5264
-41.9498
-39.7391
-50.591
-38.2188
-50.9795
-41.9745
-28.5003
92.6705
-73.551
119.28
-45.4744
-18.0718
-32.2372
-32.8466
-43.9478
-36.16
-43.4781
-35.2211
-47.7455
-49.1393
-37.64
-39.5692
-49.0287
-38.6107
-47.3249
-41.7792
-46.9147
-43.3854
-38.0509
-39.0001
-38.8745
-37.1715
-40.6758
-42.4449
-49.0977
-6.37252
-47.5217
-52.9329
-60.4776
-107.16
20.2393
-8.87787
-45.5205
-57.2607
-45.8195
-44.1567
-51.8713
-61.9548
-62.6878
-59.5643
-47.7361
-49.0906
-47.3124
-41.7758
-37.6208
-39.572
-48.9452
-38.5884
-46.7448
-43.2402
-40.629
-42.3522
-37.9687
-38.9572
-38.7729
-37.0205
-49.0188
-5.88426
20.7552
-8.88709
-47.47
-52.9391
-60.4338
-106.999
-45.2762
-57.0296
-62.5925
-59.4357
-45.6883
-43.9648
-51.7931
-62.0142
-55.731
-61.2553
181.534
179.753
-90.1849
-90.1871
116.54
116.506
-76.1582
-50.5428
-74.265
-55.3839
-48.6775
-49.6405
-38.0821
-36.4914
-41.6969
-42.4416
-37.9514
-37.7905
-41.9361
-44.4983
-42.725
-42.0087
-17.8989
-17.9314
138.8
138.303
-51.3392
-66.6957
-15.8261
-2.14255
-33.2034
-32.9647
-32.428
-33.4237
-47.1746
-44.5616
-49.3883
-37.1833
-55.7584
-61.3007
179.071
180.343
-75.902
-50.4618
-74.2044
-55.3372
-48.9877
-48.1044
-37.8477
-35.6374
-41.6864
-44.0012
-42.3336
-41.6184
-66.4897
-51.2575
-2.27309
-15.8695
-44.2522
-46.6031
-36.871
-49.2008
-38.7595
-38.7599
-39.4277
-39.5039
-46.827
-46.1424
-40.4375
-47.146
-51.1004
-51.1124
-41.1601
-41.1573
-39.7966
-43.6092
-43.27
-43.3699
-39.8072
-39.8251
-43.4332
-43.3551
-47.3714
-51.8426
-107.877
-76.8749
18.2927
17.9248
-56.92
-56.8965
-74.8253
-74.7777
-57.053
-56.9622
-38.7218
-38.6942
-39.417
-39.4795
-46.1046
-46.786
-40.4069
-47.1201
-43.5076
-39.7083
-43.0341
-43.0171
-51.7927
-47.2834
-76.7932
-108.065
-80.5575
-77.5798
-71.4591
-74.8114
-49.8693
-46.7356
-50.308
-50.3166
-51.1538
-53.6084
-50.5764
-44.8886
-61.475
-73.8439
-67.5353
-53.757
-79.915
-74.6232
-71.2771
-77.2765
-61.4433
-53.6686
-67.3919
-73.78
-51.2231
-44.8526
-50.5055
-53.4749
-50.2244
-50.1784
-50.23
-46.6678
-107.214
-109.132
-75.671
-72.0428
-107.325
-71.8647
-75.6513
-109.12
-46.2498
-47.953
-56.3597
-53.6255
-46.2475
-53.7239
-56.3772
-47.9594
-29.1289
-18.9147
-13.5047
-23.1261
1.29142
31.9217
4.5888
-14.0117
1.95757
-13.9401
4.45732
32.4094
-29.275
-23.1551
-13.525
-18.8997
64.6777
144.878
175.919
72.5229
101.012
120.666
182.949
156.926
99.9653
157.722
183.276
120.787
65.0752
74.6583
175.802
145.115
-37.4971
-37.587
-40.5355
-40.4527
-38.4906
-39.6818
-40.127
-37.9086
-50.0168
-53.4839
-44.631
-43.1642
-60.9121
-46.857
-46.7185
-58.8514
-37.4736
-40.4342
-40.5014
-37.5472
-60.8877
-58.7989
-46.6792
-46.8468
-49.8819
-43.0391
-44.5533
-53.3476
-38.3928
-37.8526
-40.052
-39.5704
-40.5825
-42.4385
-39.8543
-38.6146
-40.5885
-38.6025
-39.8486
-42.4364
-40.2255
-40.8163
-39.8402
-38.9014
-40.2865
-38.9337
-39.8526
-40.8414
-75.7856
-87.0471
-108.069
0.469468
-56.251
-67.4855
-83.5643
-65.5623
-56.1086
-65.4482
-83.5297
-67.4447
-76.0439
0.527266
-108.071
-87.0108
-34.6766
-40.935
-42.9492
-39.9978
-51.4918
-50.6223
-45.8929
-42.5657
-42.0692
-45.1768
-47.9267
-44.9701
-46.9093
-42.9003
-43.2664
-45.9817
-34.5238
-39.8339
-42.68
-40.7031
-46.6772
-45.6488
-43.0401
-42.7165
-41.2944
-44.227
-47.3406
-44.6486
-50.8168
-42.007
-45.4168
-49.9488
-43.543
-42.3165
-43.076
-41.8157
-43.4264
-41.6767
-42.9804
-42.2657
-43.1839
-41.3795
-41.9224
-41.0332
-44.3497
-41.3265
-42.0004
-41.9276
-51.2705
-51.2536
-48.5693
-60.8573
-34.4129
-31.7157
-36.4262
-39.2281
-33.6607
-38.8085
-36.2573
-31.3305
-51.0662
-60.7873
-48.4597
-50.7402
-40.6838
-39.2737
-38.2751
-38.1487
-40.4596
-37.8528
-38.1078
-39.1089
-35.3002
-30.0723
-33.8261
-36.5833
-36.3304
-37.2034
-34.6469
-31.2027
0.253095
-35.0326
-115.144
-47.4962
-48.9704
-50.3124
13.0659
-5.88899
-66.909
-38.1472
-34.4912
-35.6243
-35.9439
-4.05201
-114.724
-48.6355
-46.998
-49.4275
-6.38265
12.8553
-67.2814
-33.6535
-37.2553
-34.9527
-41.9251
-38.085
-38.0611
-41.2967
-40.5765
-41.4086
-39.342
-41.5776
-60.7671
-63.4428
-76.5164
-57.7963
-48.2948
-48.3369
-49.8348
-51.3679
-42.0662
-41.2888
-37.9445
-37.9733
-40.4736
-41.4874
-41.4546
-39.229
-60.799
-58.1159
-63.7397
-76.768
-48.1234
-51.2117
-48.1674
-49.7013
8.81085
25.6575
-82.4562
121.842
-183.527
-183.892
-135.358
-6.15286
-63.3622
-53.8189
-58.4647
-59.545
-40.7854
-38.3425
-43.235
-37.632
-43.4776
-43.4226
-41.7458
-41.1035
-40.2862
-39.5031
-40.8988
-39.6083
-36.0468
-35.661
-16.274
79.882
-31.5413
-37.4974
-50.3531
-23.2445
-31.0814
-30.8221
-30.7354
-29.4065
-45.2211
-47.1957
-46.1613
-46.0772
8.47763
25.6401
-82.8774
121.904
-62.3824
-54.1422
-58.5044
-59.5104
-40.1916
-37.6299
-42.6607
-37.0997
-40.006
-39.3734
-40.5933
-39.7001
-31.4409
-37.3627
-50.3024
-23.1884
-44.7546
-46.8164
-45.7314
-45.6707
-37.0857
-38.4346
-37.7068
-38.6114
-42.1617
-44.4509
-44.043
-43.0375
-44.4811
-44.4796
-46.1568
-43.3688
-40.2506
-41.8826
-40.9069
-41.2327
-41.9027
-41.8842
-41.7824
-41.7605
-61.701
-57.5253
-58.7529
-66.3804
32.8615
32.9367
38.2037
20.3139
-63.6479
-63.6169
-66.109
-62.3774
-37.0516
-38.3557
-37.6451
-38.5827
-42.1297
-44.451
-44.0221
-43.0141
-40.1087
-41.7313
-40.7743
-41.0731
-61.6144
-57.4249
-58.6636
-66.2693
-62.0262
-57.3851
-57.1541
-53.4489
-61.898
-57.2644
-57.0531
-53.3557
-69.5835
-64.2969
-64.2914
-60.0449
-8.4678
-4.25001
-4.28322
0.264716
202.535
197.161
207.196
202.504
-41.0584
-42.6717
-42.1545
-43.8409
-40.996
-42.634
-42.0982
-43.7663
-39.8975
-39.8697
-40.2782
-39.8934
-100.52
-110.189
-92.1081
-100.507
-45.3355
-43.2842
-44.5657
-43.4733
-44.8877
-42.9247
-44.1872
-43.1525
-42.0916
-42.2423
-42.2731
-42.658
-38.3722
-41.2246
-41.1676
-44.3334
-34.4751
-36.0554
-33.0241
-34.0213
3.92231
-7.12032
-87.8375
62.4974
-152.909
-191.529
-142.206
29.5105
-75.2385
-82.7126
-59.659
-83.2155
-44.0352
-42.0449
-48.2433
-39.3972
-45.7833
-44.2081
-43.0285
-42.2691
-47.0778
-42.0583
-49.2671
-43.5419
32.2809
30.5896
-49.8817
88.7538
42.3542
-32.1404
-33.7922
33.0428
-22.9797
-26.2681
-38.27
-19.7716
-37.9281
-38.3924
-41.1934
-37.2388
-32.9863
-32.0071
-32.4158
-33.28
-37.2703
-41.0319
-41.4196
-37.2014
-152.487
-191.393
-142.306
29.267
-6.87538
-6.38745
-87.0109
62.8616
-76.1141
-80.6698
-59.9993
-83.1987
-45.4917
-44.1123
-42.3556
-42.0859
-43.4948
-41.4831
-47.4881
-38.9104
-46.6751
-41.4185
-48.6404
-42.3185
41.6841
-31.9489
-34.0848
33.181
32.6583
30.7102
-50.5959
89.2954
-23.0088
-26.1982
-38.1189
-19.6673
-32.378
-31.4512
-32.2237
-32.0086
-37.1476
-37.7059
-40.4455
-36.55
-36.6337
-40.4762
-40.8304
-36.6252
-47.3695
-48.7902
-47.6518
-48.3641
-38.1292
-36.7224
-37.2254
-38.9433
-38.7134
-39.9872
-43.7512
-38.7042
-43.0568
-44.0304
-45.3344
-42.4708
-54.8727
-39.8601
-46.8117
-44.1365
-38.0895
-38.1988
-37.5018
-38.5619
-38.3815
-39.1457
-38.8244
-38.4924
-41.9353
-41.911
-41.6285
-41.9835
-37.6
-35.319
-45.9266
-17.357
-55.1041
-48.2225
-48.8316
-52.282
-70.5234
-66.6854
-65.154
-82.2514
9.30195
26.0809
22.6424
8.50083
-47.0353
-46.7159
-45.2749
-51.0079
-47.4536
-43.9604
-45.2367
-44.5363
-52.7911
-53.4451
-52.4345
-58.2626
-56.1775
-61.4861
-60.5862
-59.5454
-46.9297
-48.2233
-47.5414
-48.4027
-43.0515
-44.0246
-45.3262
-42.4659
-38.1878
-36.7576
-37.2313
-38.9639
-38.6739
-39.9434
-43.6828
-38.6753
-54.7139
-39.7118
-46.6111
-43.9935
-41.8585
-41.8593
-41.5732
-41.9049
-38.0832
-38.1433
-37.3578
-38.5184
-38.2582
-39.0116
-38.7085
-38.3429
-37.5917
-35.0933
-45.8196
-16.7241
9.33263
26.2022
22.8288
8.55787
-55.1129
-48.2754
-49.2385
-52.2935
-70.4479
-66.6077
-65.1015
-82.1906
-46.8249
-46.4351
-45.0428
-50.7871
-56.0199
-61.4027
-60.4777
-59.4287
-47.2813
-43.8031
-45.0909
-44.3605
-52.6536
-53.3932
-52.3846
-58.1303
-60.502
-68.314
-59.129
-61.9368
191.325
189.986
189.758
196.366
-96.9712
-83.1151
-90.9741
-90.9915
77.8967
153.353
113.346
113.373
-58.1927
-57.8357
-64.4545
-53.7482
-62.1773
-63.7375
-68.1768
-58.8659
-49.2509
-47.2597
-48.3664
-49.9483
-37.1258
-35.9088
-37.8969
-36.1362
-42.0993
-41.6312
-41.7889
-42.4529
-37.8832
-38.278
-37.9078
-37.8072
-41.6209
-42.4086
-42.1517
-42.4587
-41.3781
-42.1052
-42.2205
-41.8577
-22.2168
-15.6612
-17.2813
-17.3024
140.259
139.332
137.471
137.784
-60.7966
-58.1624
-55.2931
-65.3627
-13.0139
-7.2481
-12.9013
-6.65166
-31.7687
-34.2409
-32.9398
-32.8187
-30.6901
-32.6388
-31.711
-32.2941
-46.2165
-45.3456
-46.5507
-45.2559
-43.3287
-41.8165
-45.495
-39.4915
-60.4332
-68.2541
-59.1499
-62.0509
191.18
190.21
195.349
188.121
-58.0534
-57.6909
-64.2565
-53.6398
-62.0931
-63.6985
-68.117
-58.8125
-48.5874
-46.8814
-49.2948
-47.7576
-36.5533
-35.1047
-37.5416
-35.2376
-41.3353
-42.0646
-41.8669
-42.0751
-41.4042
-42.0774
-41.5542
-41.6577
-60.7475
-58.0983
-65.2286
-55.2026
-13.0389
-7.30848
-6.73793
-12.9401
-45.868
-45.0376
-44.9142
-46.0038
-42.9953
-41.6198
-39.238
-45.2813
-38.3209
-39.4591
-38.7912
-38.783
-39.1204
-39.632
-39.3517
-39.709
-45.8638
-48.2655
-46.6323
-46.0398
-43.0068
-42.6065
-41.5365
-44.6921
-49.4305
-53.628
-51.2257
-51.2302
-42.3274
-40.3192
-41.2564
-41.2548
-41.1209
-41.2534
-40.4071
-42.1203
-42.7539
-42.6671
-42.9941
-42.9541
-40.3191
-39.6203
-39.8765
-39.8857
-42.9985
-43.4303
-43.4698
-43.4319
-52.5211
-48.4075
-49.9546
-51.1766
-83.3343
-97.518
-104.672
-82.9764
27.1688
12.8024
19.5907
19.9079
-28.6011
-91.8492
-59.0684
-59.0762
-71.9198
-80.9015
-76.0364
-76.001
-59.5743
-52.6854
-56.8952
-56.8492
-38.2663
-39.4025
-38.7422
-38.7216
-39.0989
-39.6192
-39.3374
-39.6886
-45.8029
-48.2044
-45.9902
-46.5798
-42.9853
-42.5564
-41.4948
-44.662
-41.0188
-41.1684
-42.0293
-40.3162
-42.5611
-42.3653
-42.7489
-42.6787
-52.4506
-48.3354
-51.1143
-49.8746
-82.967
-97.461
-82.9256
-104.484
-59.505
-46.3121
-52.7994
-69.2875
-47.6392
-47.5579
-48.5853
-47.176
-49.4523
-46.5584
-49.7665
-46.6509
-59.2636
-51.4625
-58.4263
-58.7889
-59.4687
-46.6215
-52.8438
-69.0695
-59.0744
-51.4032
-58.4971
-58.7452
-49.3799
-46.53
-49.6705
-46.6156
-47.6254
-47.5143
-48.53
-47.1473
-95.8338
-88.0344
-90.2264
-81.509
-95.8484
-88.0165
-90.2229
-81.4715
-49.7165
-48.4962
-52.5645
-50.7645
-49.7575
-48.5161
-52.6043
-50.7855
-22.4337
-18.304
-18.7583
-17.3704
3.36235
15.3983
4.18403
16.0837
2.54059
15.1447
3.99705
15.947
-22.5047
-18.3641
-18.8104
-17.4047
90.6625
45.833
150.477
111.995
127.642
126.113
147.108
140.464
126.423
132.038
140.57
146.626
45.7865
91.023
112.156
150.362
-38.1313
-38.6258
-38.7626
-39.5321
-38.3171
-38.7956
-38.7639
-39.2197
-46.4589
-49.3932
-45.4384
-46.5184
-53.1774
-56.1424
-49.6906
-52.4301
-38.1104
-38.6033
-38.7301
-39.5009
-53.1633
-56.1051
-49.6606
-52.3907
-46.3423
-49.3121
-45.3263
-46.4259
-38.2385
-38.7044
-38.6907
-39.133
-40.1273
-41.4148
-39.7028
-40.9303
-41.412
-40.124
-40.9261
-39.6952
-40.0149
-39.2954
-39.6941
-39.2626
-39.335
-40.0545
-39.2914
-39.7203
-80.4732
-30.6354
-88.131
-54.4885
-65.492
-65.4424
-72.7788
-72.4847
-65.3512
-65.3846
-72.4234
-72.6914
-30.6223
-80.5466
-54.4206
-88.1063
-45.2173
-42.7868
-42.2224
-43.8601
-51.5175
-50.9167
-48.9584
-47.8552
-47.3703
-45.7557
-48.4812
-47.1962
-44.7071
-43.9731
-43.809
-43.7024
-45.0244
-42.5818
-42.0176
-43.6467
-44.4397
-43.7718
-43.5003
-43.4152
-46.6345
-45.0852
-47.8408
-46.6302
-50.9205
-50.4045
-48.4079
-47.3489
-43.1574
-43.1247
-43.1238
-43.4215
-43.0067
-43.0099
-42.9257
-43.3037
-41.7091
-41.76
-41.7018
-41.3021
-43.0632
-43.1332
-42.551
-42.2839
-58.0701
-59.2512
-53.6791
-57.3529
-33.2983
-34.9043
-33.6201
-35.4599
-32.8248
-34.4295
-33.2978
-35.1035
-57.8827
-59.1049
-53.4946
-57.2249
-38.253
-38.7224
-38.0834
-38.0585
-38.6085
-37.9783
-37.8682
-37.8669
-33.8909
-35.6031
-33.5923
-35.2933
-36.5192
-35.1518
-36.2266
-34.7249
-93.765
59.7354
-145.108
39.56
-85.2067
-105.068
-48.6827
-41.5719
-44.2366
-43.2411
-52.4452
-45.4712
-56.6563
81.0659
-72.8535
85.2287
-52.0754
-30.6749
-40.5092
-37.0079
-34.2318
-35.4173
-40.6948
-34.9237
-145.053
40.6476
-93.6194
59.6652
-84.9777
-105.217
-43.4752
-42.9763
-48.0903
-41.2931
-51.7268
-44.7587
-73.1775
85.9422
-57.4085
81.2748
-51.9224
-30.7675
-33.2244
-34.3176
-39.6867
-36.1466
-39.9181
-34.3201
-48.0228
-45.675
-37.1894
-39.7356
-42.1551
-37.5824
-43.8858
-41.1549
-35.8305
-44.3768
-37.9968
-39.9869
-38.4533
-37.9831
-41.4536
-42.202
-52.0723
-17.0064
-55.7967
-60.3364
-66.5501
-100.918
0.960144
-28.7151
-46.9827
-49.6308
-49.5553
-47.5771
-50.4064
-53.7718
-54.7936
-52.547
-48.8352
-45.7204
-43.8881
-41.1557
-37.1741
-39.7712
-42.0107
-37.5343
-35.4328
-44.2549
-41.3808
-42.1043
-37.8417
-39.9254
-38.3469
-37.8482
-52.3665
-18.3104
0.266875
-29.1212
-55.8107
-60.4174
-66.4998
-100.724
-46.7943
-49.4564
-54.6327
-52.3605
-49.421
-47.408
-50.2692
-53.6267
-82.1102
110.09
-74.278
118.434
-72.9824
-73.3793
158.161
167.333
-136.793
-14.0772
-136.816
-13.7319
-109.224
-109.237
80.589
80.5365
-75.8532
-70.6066
-50.8713
-52.5022
-64.7236
-53.7711
-66.0509
-57.0641
-46.2523
-38.7367
-41.385
-37.4815
-49.4204
-44.6083
-37.9464
-36.8578
-42.2133
-41.4961
-41.5243
-41.1192
-41.3663
-41.6879
-39.0416
-38.9664
-41.6375
-40.6687
-40.5359
-42.1772
-41.7218
-42.0454
-40.7592
-40.2679
-17.7749
64.2026
-17.8486
64.1688
-23.4665
-23.5121
112.948
112.913
-43.5777
-22.4576
-49.663
-22.8222
-59.5594
-60.786
-18.4967
-16.3933
-31.534
-30.2614
-31.0911
-29.3056
-31.2975
-31.0891
-29.3412
-30.0005
-44.3468
-40.8872
-46.6531
-50.8224
-46.2286
-46.1448
-47.8809
-41.6008
-82.4545
110.419
-74.6834
118.394
-72.9595
-73.3775
167.554
158.341
-74.7998
-70.1683
-50.6926
-52.3152
-64.4304
-53.7084
-65.8965
-56.9773
-45.5939
-38.3137
-40.6381
-36.8775
-43.8717
-48.7198
-37.6077
-36.2212
-41.1134
-40.2984
-40.3431
-42.0537
-41.4658
-41.8686
-40.6719
-40.6266
-43.4628
-22.4066
-49.5084
-22.6401
-60.635
-59.4795
-16.3521
-18.4785
-43.8241
-40.4178
-46.3448
-50.4832
-45.7859
-45.7321
-41.2276
-47.5914
-37.2845
-38.1229
-37.6385
-38.6169
-37.7766
-37.9538
-38.6292
-39.1659
-43.7355
-40.5808
-45.3101
-46.5971
-45.5213
-44.5897
-41.6573
-44.652
-45.9488
-43.1775
-45.9445
-43.1747
-48.1917
-48.1936
-42.6017
-42.6008
-39.6772
-39.7516
-42.9425
-42.7824
-40.2271
-42.0997
-41.0208
-42.2999
-41.7728
-41.7615
-41.7431
-41.7189
-40.8699
-40.8827
-42.3506
-42.3217
-62.7807
-73.43
-54.8993
-60.623
-55.1517
-57.8556
-79.72
-69.3987
35.1235
18.2686
35.2927
18.3397
34.6336
34.9193
1.21829
1.24695
-64.9665
-61.8435
-64.9176
-61.7798
-68.4036
-68.3966
-61.0176
-60.9818
-37.2515
-38.111
-37.5806
-38.5913
-37.7256
-37.8951
-38.6097
-39.1354
-43.6663
-40.5562
-45.3393
-46.5988
-44.5616
-45.4792
-41.6393
-44.6377
-39.5513
-39.5993
-42.8004
-42.6148
-41.9797
-40.111
-40.8552
-42.1228
-62.7126
-73.347
-54.7515
-60.51
-57.7913
-55.0603
-69.2752
-79.5665
-69.7248
-67.3838
-63.2156
-53.425
-53.7859
-62.0344
-50.3171
-50.3905
-69.5506
-67.2288
-63.0601
-53.3202
-61.9315
-53.7054
-50.3159
-50.2448
-76.6302
-76.6283
-69.4587
-59.942
-69.4392
-59.9227
-56.4206
-56.4265
-12.8091
-12.8255
-9.6225
-1.45847
-1.54528
-9.66027
6.08129
6.03397
194.571
206.024
187.271
187.284
185.162