# vtk DataFile Version 2.0
tet_velo
ASCII
DATASET UNSTRUCTURED_GRID
POINTS 29498 float
-0.754768 0.215 -1.685
-0.765 0.385 1.81472
-0.685 0.755 -1.65436
-0.695 1.025 1.60358
0.754768 0.215 -1.685
0.765 0.385 1.81472
0.685 0.755 -1.65436
0.695 1.025 1.60358
-0.74848 0.281365 -0.518427
-0.799428 0.290495 0.648147
-0.810051 0.966718 -0.56838
-0.797621 1.04095 0.5176
0.74848 0.281365 -0.518427
0.799475 0.290448 0.648147
0.81006 0.966727 -0.56838
0.797608 1.04094 0.5176
-1.53617 -0.192634 -2.55552
-1.52691 -0.103029 -1.65454
-1.52941 -0.0481254 -0.485881
-1.55038 -0.0374949 0.698996
-1.53328 0.0237113 1.86902
-1.52769 0.0731561 2.77669
-1.53214 0.11759 3.67198
-1.52912 0.112168 -2.56917
-1.5227 0.217571 -1.677
-1.53641 0.295862 -0.52402
-1.55674 0.307059 0.63621
-1.51598 0.362114 1.79073
-1.51778 0.410342 2.69726
-1.529 0.45527 3.59518
-1.50177 0.706145 -2.57386
-1.48953 0.809674 -1.67835
-1.56787 0.975253 -0.580317
-1.55824 1.03228 0.512007
-1.47891 1.03572 1.61158
-1.49955 1.08142 2.52145
-1.52547 1.13295 3.43236
-1.49343 1.70796 -2.64149
-1.49552 1.82027 -1.75805
-1.53211 1.97664 -0.686145
-1.55509 2.07675 0.368388
-1.54684 2.11556 1.44113
-1.54197 2.14353 2.32633
-1.54598 2.18265 3.22844
-0.77971 -0.195205 -2.56072
-0.761996 -0.103213 -1.66212
-0.75342 -0.0552123 -0.484863
-0.780334 -0.048592 0.709184
-0.773891 0.0331532 1.88683
-0.771571 0.0787733 2.78878
-0.775336 0.118791 3.67897
-0.778514 0.103546 -2.57077
-0.769349 0.416336 2.70723
-0.776004 0.455975 3.60045
-0.752511 0.680213 -2.56389
-0.753967 1.07781 2.51985
-0.776036 1.1303 3.43202
-0.728935 1.6917 -2.63163
-0.72212 1.8058 -1.74719
-0.754769 1.97379 -0.679601
-0.786624 2.07964 0.367603
-0.789869 2.11471 1.43553
-0.787668 2.14059 2.32073
-0.790746 2.17977 3.22437
0.729734 -0.195206 -2.56072
0.752489 -0.103214 -1.66212
0.765596 -0.0552183 -0.484864
0.792099 -0.0486242 0.709185
0.767345 0.0331405 1.88683
0.749405 0.0787631 2.78878
0.741828 0.11878 3.67897
0.716085 0.103546 -2.57077
0.735357 0.416329 2.70723
0.732388 0.455965 3.60045
0.705381 0.680213 -2.56389
0.710201 1.07781 2.51985
0.719065 1.13029 3.43202
0.782265 1.6917 -2.63163
0.801329 1.8058 -1.74719
0.799103 1.97379 -0.679601
0.763354 2.07963 0.367602
0.728867 2.1147 1.43553
0.720355 2.14058 2.32073
0.719728 2.17976 3.22437
1.49286 -0.192636 -2.55552
1.51616 -0.103032 -1.65454
1.53758 -0.0481394 -0.485881
1.5642 -0.0375418 0.698996
1.5388 0.023679 1.86902
1.51643 0.0731318 2.77669
1.50625 0.117566 3.67198
1.48075 0.112167 -2.56917
1.51364 0.217572 -1.677
1.53689 0.295855 -0.52402
1.56499 0.307009 0.63621
1.52522 0.362086 1.79073
1.50095 0.410322 2.69726
1.49507 0.455248 3.59518
1.47001 0.706145 -2.57386
1.48987 0.809677 -1.67835
1.57066 0.975255 -0.580317
1.56198 1.03225 0.512006
1.48151 1.0357 1.61158
1.47158 1.08141 2.52145
1.47819 1.13293 3.43236
1.53977 1.70796 -2.64149
1.56027 1.82026 -1.75805
1.56978 1.97664 -0.686145
1.54016 2.07673 0.368388
1.49917 2.11554 1.44113
1.48406 2.14351 2.32633
1.48129 2.18263 3.22844
-0.751313 0.485 -1.70111
0 0.209812 -1.69019
-0.792593 0.207214 -1.10171
-0.752067 0.705 1.73122
0 0.321738 1.87798
-0.767739 0.352222 1.23143
0 0.818876 -1.71824
-0.772675 0.886009 -1.11137
0 1.11879 1.69737
-0.771145 1.05781 1.06059
0.751385 0.485 -1.70118
0.792548 0.207258 -1.10171
0.752071 0.705 1.73122
0.767484 0.352477 1.23143
0.772661 0.885995 -1.11137
0.771124 1.05779 1.06059
-0.786961 0.272923 0.06486
-0.872997 0.624041 -0.543403
0 0.253264 -0.518427
-0.893118 0.665725 0.582873
2.35825e-05 0.261916 0.648147
-0.807182 1.00718 -0.02539
4.59927e-06 1.3213 -0.56838
-6.36417e-06 1.60377 0.5176
0.785747 0.274137 0.06486
0.872998 0.624046 -0.543403
0.893121 0.665695 0.582873
0.807189 1.00719 -0.02539
-0.839373 0.554521 -1.10654
-0.889395 0.644883 0.019735
-0.850247 0.685362 1.14601
0 0.215029 -1.10171
1.17912e-05 0.255485 0.06486
1.17912e-05 0.278512 1.23143
0 0.485 -1.95588
0 0.705 1.88305
2.29964e-06 1.04348 -1.11137
-8.8245e-07 1.54644 -0.02539
-3.18209e-06 1.54796 1.06059
0.839375 0.554523 -1.10654
0.889396 0.64487 0.019735
0.850255 0.685347 1.14601
-1.13874 0.216286 -1.681
-0.758382 0.0558933 -1.67356
-0.766641 0.159273 -2.12789
-1.14049 0.373557 1.80272
-0.769445 0.209077 1.85078
-0.767174 0.400668 2.26097
-1.08727 0.782337 -1.66636
-0.718755 0.717606 -2.10913
-0.70356 1.2804 -1.70078
-1.08696 1.03036 1.60758
-0.724484 1.05141 2.06171
-0.742435 1.56985 1.51955
0.753628 0.055893 -1.67356
0.735427 0.159273 -2.12789
1.1342 0.216286 -1.681
0.766173 0.20907 1.85078
0.750178 0.400665 2.26097
1.14511 0.373543 1.80272
0.69519 0.717607 -2.10913
0.743165 1.2804 -1.70078
1.08744 0.782339 -1.66636
0.7026 1.0514 2.06171
0.711934 1.56985 1.51955
1.08826 1.03035 1.60758
-1.14244 0.288614 -0.521223
-0.75095 0.113076 -0.501645
-1.17808 0.298777 0.642178
-0.789881 0.120952 0.678666
-1.18896 0.970986 -0.574349
-0.78241 1.47025 -0.62399
-1.17793 1.03662 0.514803
-0.792122 1.5603 0.442601
0.757038 0.113073 -0.501645
1.14269 0.28861 -0.521223
0.795787 0.120912 0.678666
1.18223 0.298728 0.642178
0.804582 1.47026 -0.62399
1.19036 0.970991 -0.574349
0.780481 1.56029 0.442601
1.1798 1.0366 0.514803
-1.53154 -0.147832 -2.10503
-1.53265 -0.0402331 -2.56235
-1.15794 -0.19392 -2.55812
-1.52816 -0.0755775 -1.07021
-1.52481 0.0572709 -1.66577
-1.14445 -0.103121 -1.65833
-1.5399 -0.0428102 0.106557
-1.53291 0.123868 -0.504951
-1.14142 -0.0516689 -0.485372
-1.54183 -0.00689181 1.28401
-1.55356 0.134782 0.667603
-1.16536 -0.0430435 0.70409
-1.53048 0.0484337 2.32285
-1.52463 0.192913 1.82987
-1.15358 0.0284322 1.87792
-1.52992 0.0953731 3.22433
-1.52273 0.241749 2.73698
-1.14963 0.0759647 2.78273
-1.53057 0.28643 3.63358
-1.15374 0.118191 3.67547
-1.52591 0.16487 -2.12308
-1.51545 0.409156 -2.57152
-1.15382 0.107857 -2.56997
-1.52955 0.256717 -1.10051
-1.50612 0.513623 -1.67767
-1.54657 0.301461 0.0560947
-1.55214 0.635558 -0.552169
-1.53636 0.334586 1.21347
-1.55749 0.669669 0.574108
-1.51688 0.386228 2.244
-1.49744 0.698917 1.70116
-1.52339 0.432806 3.14622
-1.50866 0.745882 2.60936
-1.14356 0.413339 2.70225
-1.52723 0.794108 3.51377
-1.1525 0.455623 3.59782
-1.49565 0.757909 -2.12611
-1.4976 1.20705 -2.60767
-1.12714 0.693179 -2.56888
-1.5287 0.892464 -1.12933
-1.49253 1.31497 -1.7182
-1.56306 1.00377 -0.0341554
-1.54999 1.47595 -0.633231
-1.51858 1.034 1.0618
-1.55667 1.55451 0.440197
-1.48923 1.05857 2.06652
-1.51288 1.57564 1.52636
-1.51251 1.10718 2.97691
-1.52076 1.61247 2.42389
-1.12676 1.07962 2.52065
-1.53572 1.6578 3.3304
-1.15075 1.13162 3.43219
-1.49448 1.76411 -2.19977
-1.11118 1.69983 -2.63656
-1.51382 1.89845 -1.2221
-1.10882 1.81303 -1.75262
-1.5436 2.0267 -0.158879
-1.14344 1.97522 -0.682873
-1.55097 2.09615 0.90476
-1.17086 2.07819 0.367995
-1.5444 2.12954 1.88373
-1.16836 2.11513 1.43833
-1.54397 2.16309 2.77739
-1.16482 2.14206 2.32353
-1.16836 2.18121 3.22641
-0.770853 -0.149209 -2.11142
-0.779112 -0.0458295 -2.56575
-0.0249877 -0.195206 -2.56072
-0.757708 -0.0792128 -1.07349
-0.00475361 -0.103214 -1.66212
-0.766877 -0.0519021 0.11216
0.00608791 -0.0552153 -0.484864
-0.777112 -0.0077194 1.29801
0.00588251 -0.0486081 0.709184
-0.772731 0.0559632 2.3378
-0.00327282 0.0331469 1.88683
-0.773453 0.0987821 3.23387
-0.77046 0.247555 2.748
-0.0110826 0.0787682 2.78878
-0.77567 0.287383 3.63971
-0.0167541 0.118785 3.67897
-0.765512 0.39188 -2.56733
-0.0312144 0.103546 -2.57077
-0.772676 0.436156 3.15384
-0.761658 0.747075 2.61354
-0.0169961 0.416333 2.70723
-0.77602 0.793137 3.51624
-0.0218081 0.45597 3.60045
-0.740723 1.18596 -2.59776
-0.0235651 0.680213 -2.56389
-0.765002 1.10406 2.97593
-0.770818 1.6092 2.42029
-0.0218833 1.07781 2.51985
-0.783391 1.65503 3.3282
-0.0284858 1.1303 3.43202
-0.725527 1.74875 -2.18941
0.0266652 1.6917 -2.63163
-0.738445 1.8898 -1.2134
0.0396046 1.8058 -1.74719
-0.770696 2.02671 -0.155999
0.0221668 1.97379 -0.679601
-0.788246 2.09717 0.901564
-0.0116346 2.07963 0.367602
-0.788769 2.12765 1.87813
-0.030501 2.1147 1.43553
-0.789207 2.16018 2.77255
-0.0336566 2.14059 2.32073
-0.035509 2.17976 3.22437
0.741112 -0.14921 -2.11142
0.72291 -0.04583 -2.56575
1.1113 -0.193921 -2.55812
0.759042 -0.0792162 -1.07349
1.13433 -0.103123 -1.65833
0.778847 -0.0519212 0.11216
1.15159 -0.0516788 -0.485372
0.779722 -0.00774184 1.29801
1.17815 -0.043083 0.70409
0.758375 0.0559518 2.3378
1.15307 0.0284097 1.87792
0.745617 0.0987715 3.23387
0.742381 0.247546 2.748
1.13292 0.0759475 2.78273
0.737108 0.287372 3.63971
1.12404 0.118173 3.67547
0.710733 0.39188 -2.56733
1.09842 0.107857 -2.56997
0.733872 0.436147 3.15384
0.722779 0.747069 2.61354
1.11815 0.413325 2.70225
0.725726 0.793128 3.51624
1.11373 0.455607 3.59782
0.743823 1.18596 -2.59776
1.08769 0.693179 -2.56888
0.714633 1.10405 2.97593
0.715278 1.6092 2.42029
1.09089 1.07961 2.52065
0.719396 1.65502 3.32819
1.09863 1.13161 3.43219
0.791797 1.74875 -2.18941
1.16102 1.69983 -2.63656
0.800216 1.88979 -1.2134
1.1808 1.81303 -1.75262
0.781229 2.02671 -0.155999
1.18444 1.97521 -0.682873
0.746111 2.09716 0.901564
1.15176 2.07818 0.367995
0.724611 2.12764 1.87813
1.11402 2.11512 1.43833
0.720042 2.16017 2.77255
1.10221 2.14204 2.32353
1.10051 2.18119 3.22641
1.50451 -0.147834 -2.10503
1.4868 -0.0402347 -2.56234
1.52687 -0.0755856 -1.07021
1.5149 0.0572702 -1.66577
1.55089 -0.0428406 0.106557
1.53723 0.123858 -0.504951
1.5515 -0.00693145 1.28401
1.5646 0.134733 0.667603
1.52761 0.0484054 2.32285
1.53201 0.192883 1.82987
1.51134 0.0953491 3.22433
1.50869 0.241727 2.73698
1.50066 0.286407 3.63358
1.49719 0.16487 -2.12308
1.47538 0.409156 -2.57152
1.52527 0.256714 -1.10051
1.50175 0.513625 -1.67767
1.55094 0.301432 0.0560946
1.55378 0.635555 -0.552169
1.54511 0.334547 1.21347
1.56349 0.66963 0.574108
1.51308 0.386204 2.244
1.50337 0.698893 1.70116
1.49801 0.432785 3.14622
1.48626 0.745863 2.60936
1.48663 0.794087 3.51377
1.47994 0.757911 -2.12611
1.50489 1.20705 -2.60767
1.53027 0.892466 -1.12933
1.52507 1.31497 -1.7182
1.56632 1.00375 -0.0341554
1.57022 1.47595 -0.633231
1.52175 1.03398 1.0618
1.55107 1.55449 0.440197
[...]
POINT_DATA 29498
VECTORS point_vectors float
-2.20522 -2.98416 7.98949
0.264732 0.144003 0.91087
-0.580995 0.31246 0.847758
-0.108289 -0.153442 0.139135
2.20498 -2.97929 7.98493
-0.265237 0.160305 0.937127
0.581745 0.312739 0.849048
0.1075 -0.155209 0.141423
0.000391235 0.00149346 0.0429402
-0.013343 0.016813 0.223652
-0.0185522 0.00579589 0.292238
0 0 0
-7.98231e-05 0.000605156 0.0215244
0.0133283 0.0169997 0.223785
0.0184832 0.00584255 0.292535
0 0 0
-0.736575 -0.442433 19.9855
-1.15563 -0.829353 20.7251
-0.427045 -0.598315 21.4555
0.146851 -0.269784 21.6453
0.713165 0.0188721 21.5638
1.06094 0.169525 21.3045
1.11341 0.0689952 20.9682
-0.912894 -0.385769 19.8445
-1.61149 -0.761 20.6174
-0.727009 -0.738039 21.551
0.0491201 -0.43619 21.7452
0.797899 -0.246363 21.7119
1.172 -0.11996 21.4011
1.17905 -0.288387 21.293
-1.03307 -0.0541417 19.6573
-2.14058 -0.0451706 20.3475
-1.47082 -0.370507 21.4347
-0.519679 -0.506909 21.8303
0.283825 -0.678857 21.7221
0.692083 -0.724366 21.4891
0.969108 -0.802052 20.9305
-0.65522 0.344652 19.8728
-1.05601 0.64586 20.2019
-1.12638 0.51727 20.9844
-0.681966 0.140328 21.4781
-0.218293 -0.219798 21.4839
0.0286721 -0.392733 21.3465
0.172493 -0.526729 21.411
-0.872707 -1.13335 19.3542
-1.5896 -3.01783 21.4911
0.263705 -0.0884748 21.3017
0.460592 0.324698 20.8306
0.902206 1.29522 19.9098
1.50852 1.68761 19.3204
1.67931 1.57921 18.4589
-1.16547 -1.01267 18.784
2.04504 1.04758 11.4165
2.40854 1.29255 15.2404
-1.43968 0.0604326 18.1067
0.247849 -0.854056 6.33797
1.7629 -1.40718 12.1932
-0.59509 0.799153 19.3388
-1.15065 1.69827 19.6916
-1.56392 1.96037 20.8689
-1.00251 0.858186 21.9884
-0.407775 -0.0516428 21.7333
-0.199732 -0.388546 21.6077
-0.0553853 -0.648728 20.9349
0.83579 -1.16544 19.2929
1.56403 -3.03174 21.4963
-0.27043 -0.112961 21.331
-0.461336 0.324824 20.8766
-0.895067 1.3098 19.8623
-1.45987 1.76198 19.1966
-1.66166 1.65973 18.4303
1.14084 -1.11087 18.6595
-1.98293 1.12187 10.5645
-2.41327 1.48274 14.5507
1.44779 0.0742492 17.9226
-0.0417316 -0.89714 4.19699
-1.72662 -1.28306 10.259
0.625039 0.76188 19.385
1.19938 1.5634 19.7517
1.57113 1.82875 20.8946
0.999616 0.887902 22.0048
0.410864 -0.0219473 21.75
0.230015 -0.360759 21.6815
0.106919 -0.629443 21.1481
0.75109 -0.480747 19.9661
1.14452 -0.825797 20.7295
0.441811 -0.599823 21.4457
-0.147685 -0.278327 21.643
-0.709893 0.0239346 21.5633
-1.07613 0.173279 21.307
-1.17972 0.0994775 20.9149
0.935669 -0.424769 19.7936
1.63152 -0.797849 20.6198
0.725487 -0.741359 21.5535
-0.0489896 -0.432479 21.7435
-0.783431 -0.251165 21.7045
-1.19855 -0.109295 21.4099
-1.2716 -0.261803 21.2187
1.06293 -0.0437564 19.6174
2.1369 -0.045962 20.352
1.46475 -0.371201 21.4379
0.514003 -0.506277 21.8354
-0.287261 -0.677826 21.7214
-0.693912 -0.76972 21.5534
-0.989165 -0.829018 20.9822
0.65543 0.331687 19.8988
1.02074 0.586939 20.2329
1.08194 0.486576 20.9856
0.686659 0.141354 21.4862
0.226863 -0.213777 21.5121
-0.0233866 -0.400267 21.3695
-0.172703 -0.536553 21.3467
-0.159321 -0.0509528 0.240773
1.75582e-05 -0.0165976 0.0878694
0.128386 0.0312723 2.71152
0.0029352 -0.0212986 0.0155724
0.000472168 0.0537533 0.123622
0.0125255 0.00648025 0.0359244
4.93916e-05 0.0996626 0.137895
-0.113832 -0.0507909 0.327627
0 0 0
0.00239257 0.00156224 0.0180942
0.17989 -0.0566828 0.272353
-0.122602 0.0356102 2.71868
-0.00308296 -0.0213157 0.0157939
-0.024244 0.01899 0.0932018
0.114332 -0.0509648 0.328549
-0.00237446 0.00153588 0.0180695
-0.0393111 0.0179407 1.0202
0 0 0
0 0 0
0.00039145 0.00180889 0.0166169
9.94933e-07 3.58925e-05 0.00205784
0 0 0
-2.38493e-05 0.0636839 0.114867
-1.20702e-06 0.000423058 0.0145833
0.0355618 0.0181444 0.901843
5.55306e-06 -3.81065e-06 0.000147156
-0.00040076 0.00181623 0.0170788
0 0 0
0 0 0
-0.000182941 0.00127472 0.0134255
0 0 0
-2.79638e-05 0.000191538 0.00995714
-5.26449e-06 1.8809e-05 0.00120945
0 0 0
-0.000238349 0.0533094 0.118874
0 0 0
-1.8767e-05 0.00440497 0.0182498
0.00144248 0.0643927 0.276402
0 0 0
0 0 0
0.00018321 0.00128222 0.0134778
0 0 0
-2.87241 -1.79343 20.7827
-2.43152 -4.52391 21.9554
-2.86254 -2.6892 18.0611
1.39189 0.0294939 20.2674
0.761221 1.31817 13.3582
1.32085 0.637466 7.88838
-4.47558 0.355828 20.1117
-4.00647 1.07943 16.0772
-2.75651 2.99519 19.0604
0.547025 -0.843145 19.3046
-0.603124 -0.907739 3.24909
-0.23419 -0.416608 17.1897
2.42325 -4.57179 21.9899
2.83602 -2.88735 17.8785
2.89701 -1.82178 20.782
-0.769231 1.32777 13.5122
-1.26835 0.6132 7.38719
-1.38915 0.0143058 20.3374
4.01934 1.17685 15.862
2.78718 2.76954 19.1536
4.47202 0.353904 20.1124
0.709777 -0.900667 2.60651
0.205369 -0.376533 15.9122
-0.543636 -0.854694 19.3445
-0.514894 -1.40934 21.8234
0.758434 0.388228 14.5691
0.319563 -0.561909 21.2732
0.254813 0.431179 15.4848
-2.5013 -0.852447 21.9088
-4.1406 2.42842 21.0736
-0.741843 -0.893507 21.7776
-1.78233 0.191454 21.4405
-0.741792 0.349899 14.5762
0.520291 -1.40702 21.8296
-0.250717 0.444095 15.6201
-0.321305 -0.564748 21.347
4.04249 2.26972 21.1133
2.49615 -0.851745 21.9076
1.78383 0.209926 21.312
0.737358 -0.892499 21.7927
-1.02345 -0.661793 20.2362
-0.829776 -0.446484 19.9083
-0.858948 -0.744171 19.7024
-0.826995 -0.76183 21.2515
-1.36685 -0.816778 20.675
-1.55043 -1.59189 20.9144
-0.126054 -0.440798 21.5852
-0.564394 -0.682414 21.5038
-0.0974108 -0.801082 21.7692
0.415487 -0.11279 21.6194
0.123724 -0.350043 21.691
0.396044 -0.224387 21.8307
0.900973 0.076268 21.4512
0.793679 -0.0972251 21.6395
1.10732 0.342717 21.6103
1.13169 0.149646 21.0878
1.17926 0.0483667 21.3914
1.50757 0.644027 21.3146
1.14623 -0.109696 21.1306
1.78431 0.643558 20.7502
-1.35491 -0.580894 20.0764
-1.0186 -0.244654 19.7196
-1.13303 -0.672596 19.4399
-1.2334 -0.815025 21.286
-1.94159 -0.497682 20.5069
-0.317945 -0.597816 21.667
-1.14081 -0.667781 21.5324
0.406725 -0.316015 21.727
-0.203995 -0.549242 21.8145
1.02448 -0.22489 21.5794
0.661988 -0.530691 21.7678
1.34141 -0.221263 21.2101
1.0117 -0.508051 21.4326
1.91626 0.130413 19.7931
1.2088 -0.544436 21.0714
2.16294 0.0880419 19.8288
-1.67842 -0.0242125 19.8177
-0.893702 0.22871 19.71
-1.35961 -0.0308808 19.0596
-1.90854 -0.249849 21.0391
-1.63312 0.506174 20.185
-1.01594 -0.475638 21.716
-1.52321 0.23107 21.2015
-0.0643334 -0.583232 21.8164
-0.779918 -0.149401 21.6977
0.491865 -0.712442 21.593
-0.119397 -0.449035 21.6132
0.894165 -0.867444 21.5225
0.186218 -0.586382 21.3848
0.930208 -1.10369 20.3162
0.437329 -0.714442 21.1853
1.39424 -1.15052 20.2458
-0.871041 0.510589 19.98
-0.704858 0.576081 19.6024
-1.17524 0.624011 20.5954
-1.20704 1.09523 19.9932
-0.936357 0.341963 21.2907
-1.45021 1.03666 20.9916
-0.423358 -0.0711436 21.5275
-0.879792 0.364914 21.7069
-0.0914059 -0.306578 21.4816
-0.316849 -0.186129 21.6278
0.110635 -0.445721 21.2977
-0.0717437 -0.431713 21.4853
0.141833 -0.560564 20.9338
-1.46538 -2.24293 19.5862
-1.03073 -1.1109 19.0727
-0.0423662 -1.64677 18.8298
-0.379933 -1.03635 22.3643
-0.00381541 -4.10786 22.3854
0.417645 0.11836 20.7835
-0.00046951 -0.15695 19.0164
0.637729 0.852192 20.3626
0.000590352 0.160368 17.5844
1.18458 1.53708 19.755
0.0262717 0.965863 15.3496
1.72673 1.84072 19.1119
1.80595 1.82661 16.0033
0.0292419 1.69012 15.4345
2.08143 1.55969 15.8707
0.0587876 2.28037 16.2186
-1.40238 -0.604801 18.2688
-0.0618467 -1.57703 17.7963
2.45793 1.51215 13.633
1.34017 -0.639827 6.99014
0.0270921 0.733222 3.07459
2.90751 -0.0712793 11.6791
0.0836397 2.56969 5.20855
-1.04104 0.783844 18.7024
-0.0647217 0.217523 16.6758
0.720378 -1.29991 8.76079
-0.0852484 -0.802156 18.3775
-0.0826746 1.02017 -3.29304
0.415329 -1.38325 20.0473
-0.0417789 3.08552 -4.54694
-0.868523 1.27799 19.39
0.0207988 1.05611 19.0545
-1.42416 1.91895 20.2199
0.0877175 2.45193 19.363
-1.45463 1.55952 21.6375
0.0826373 3.32807 20.581
-0.617566 0.264648 21.9412
-0.0182251 1.7821 22.3755
-0.30903 -0.198218 21.6448
-0.025328 0.364493 21.8701
-0.078895 -0.585818 21.5513
-0.00912514 -0.0508003 21.8963
0.00340785 -0.493705 21.748
1.45307 -2.31482 19.5339
0.989808 -1.16636 18.9857
0.863733 -0.774638 19.6633
0.38858 -1.04438 22.3608
1.57148 -1.63404 20.9226
-0.419877 0.0977592 20.8316
0.12411 -0.802241 21.7628
-0.645966 0.874732 20.3732
-0.386099 -0.21925 21.8346
-1.15723 1.56863 19.6513
-1.11076 0.342937 21.6106
-1.67114 1.89482 19.0989
-1.73919 1.86647 15.7299
-1.53119 0.678333 21.2911
-2.08753 1.72595 15.2638
-1.81367 0.694182 20.7098
1.40792 -0.656811 18.0885
1.14297 -0.713182 19.3554
-2.46269 1.57924 12.6581
-1.27168 -0.627854 5.74291
-1.98689 0.184038 19.4975
-2.81948 0.0595081 10.1456
-2.25852 0.134721 19.6746
1.04427 0.781979 18.7093
1.38332 -0.0278078 18.9858
-0.508847 -1.43718 6.69539
0.0786697 -0.771541 17.4856
-0.979374 -1.11027 19.9252
-0.278029 -1.40981 18.3403
-1.49232 -1.2516 19.5918
0.915282 1.18496 19.4597
0.713436 0.542027 19.6338
1.44781 1.79213 20.2572
1.19624 0.985789 20.049
1.45139 1.52905 21.6324
1.43435 0.970174 21.0001
0.613101 0.292038 21.9635
0.892455 0.384266 21.7222
0.311652 -0.172273 21.6446
0.336915 -0.172933 21.6483
0.107006 -0.565138 21.6372
0.0991182 -0.431893 21.4888
-0.129986 -0.583133 20.934
1.04384 -0.694147 20.2346
0.850191 -0.49026 19.8811
0.82811 -0.760523 21.2565
1.38591 -0.832215 20.6765
0.131922 -0.446533 21.5816
0.570026 -0.684263 21.4994
-0.411133 -0.114016 21.614
-0.121844 -0.349858 21.6852
-0.898699 0.0857257 21.4416
-0.783678 -0.105415 21.6323
-1.14866 0.152429 21.1044
-1.19833 0.052464 21.3967
-1.23291 -0.0781844 21.0654
1.40146 -0.645026 20.0524
1.03756 -0.273014 19.6731
1.23646 -0.836185 21.2934
1.9669 -0.501039 20.5105
0.317979 -0.595707 21.6697
1.1382 -0.666296 21.5326
-0.40731 -0.315066 21.7304
0.202471 -0.549332 21.8131
-1.03066 -0.222459 21.5846
-0.657227 -0.527082 21.7656
-1.36611 -0.216467 21.2311
-1.05304 -0.533919 21.4574
-1.26431 -0.549048 21.0967
1.69727 -0.021431 19.7962
0.890028 0.227415 19.7234
1.90287 -0.250335 21.0414
1.58338 0.470387 20.2007
1.01105 -0.476108 21.7202
1.48485 0.227659 21.1964
0.0621481 -0.584623 21.8182
0.786207 -0.148966 21.7062
-0.504329 -0.734136 21.6031
0.125521 -0.461907 21.627
-0.917071 -0.913978 21.541
-0.176983 -0.601996 21.3986
-0.429092 -0.727147 21.172
0.854186 0.477633 20.0138
1.13012 0.572877 20.6089
0.925313 0.335038 21.2909
0.432213 -0.068319 21.5357
0.0972491 -0.314204 21.4917
-0.0989009 -0.45787 21.3068
-1.19051 -0.66469 20.1627
-2.06156 -2.62512 19.0264
-1.33384 -1.2329 20.0175
-2.09266 -1.2128 19.5338
-0.9869 -0.726157 19.5656
-2.13073 -1.7769 20.8699
-1.03773 -0.797293 21.2666
0.264137 -0.446513 18.8154
-0.710842 -1.16906 21.705
-1.41311 -1.62152 21.9139
-0.192983 -1.12156 21.8991
-0.201366 -0.525159 21.6282
0.515306 0.2407 15.2034
0.169551 -0.534708 21.7948
-0.075915 -0.975609 21.3231
0.41017 -0.412727 21.7299
0.435329 -0.209434 21.6818
0.294911 1.07733 12.7968
0.730252 0.0870237 21.8227
0.804997 -0.162097 20.3203
1.29577 0.21091 21.1745
0.9999 -0.0549964 21.5434
1.22324 1.59071 14.3939
1.33527 0.518532 21.4249
1.72526 0.0249567 20.4072
1.74853 0.536736 20.6566
1.23212 -0.0115919 21.1084
2.07486 2.00346 16.8954
1.43588 0.508137 21.1242
2.06301 0.170205 19.8558
2.01749 0.326783 20.2347
-1.58007 -0.374094 19.9239
-4.14238 -1.35571 16.1998
-2.79734 0.203572 18.8732
-1.34883 -0.407337 19.1607
-4.13747 -1.07486 20.4935
-1.62063 -0.611476 21.1994
-3.23498 -0.486715 21.446
-1.46344 -1.41411 21.8971
-0.661543 -0.639174 21.7177
-1.58088 -0.955406 22.1383
-0.0474098 -0.794342 20.994
0.250239 -0.51368 21.8088
0.0627268 -0.859364 20.8485
1.15964 -0.395646 18.457
0.889446 -0.528398 21.6333
0.314667 -1.34095 3.7563
0.631248 -1.03999 19.7728
1.64954 -0.648828 19.2073
1.23071 -0.634029 21.4683
2.0376 -0.349234 9.74236
1.24598 -1.02191 20.2706
1.8652 -0.596632 20.3269
-1.27706 0.395982 19.8462
-1.85286 1.79048 18.3983
-0.975181 0.868369 19.7093
-1.06481 0.461733 19.2709
-2.38641 1.2661 19.7978
-1.71826 0.410981 20.7327
-3.26921 2.60323 20.0745
-1.42167 1.15423 20.4667
-2.49464 0.662149 21.3223
-1.2046 0.0437507 21.5465
-3.59043 1.12527 22.6509
-1.26509 0.760282 21.4733
-1.19843 -0.0935456 22.1091
-0.399697 -0.320844 21.7124
-0.498336 -0.228866 19.1789
-0.541972 0.0394598 21.7227
-0.332947 -0.634034 21.8217
0.0491529 -0.526246 21.5021
-0.305457 -0.505028 17.7708
-0.194446 -0.321133 21.5591
0.0692505 -0.85522 21.6285
0.364605 -0.667234 21.304
0.0961031 -1.07895 18.8838
-0.00609472 -0.508531 21.3679
0.441064 -1.03216 21.0906
2.04196 -2.7426 18.9393
-0.0388115 -3.71676 19.0963
-0.0826678 -5.73233 15.5771
-0.0439278 -1.70451 18.3457
0.00573662 -5.25329 23.6522
-0.239993 -0.451168 18.8298
-0.000847502 -1.2456 22.3838
-0.00529489 0.16866 7.90205
-0.504479 0.231516 15.2896
-0.003141 0.022447 17.7477
0.00810205 0.128634 9.08157
-0.370199 1.09898 13.1548
0.00716334 0.503121 16.2222
-0.0625679 0.720212 7.20933
-1.18098 1.62659 14.4325
0.0204316 1.31294 15.5855
0.0226228 -0.13359 1.8901
0.0395468 1.28088 8.93317
-2.05059 2.07191 16.2973
0.0245193 2.33315 16.4793
0.0331231 1.48241 4.77831
0.0712137 2.42503 10.7136
4.23761 -1.43141 15.8452
-0.0938427 3.15476 11.9388
-0.0699093 -0.885628 16.8474
-0.219289 -1.34781 3.3231
-0.01556 -0.162142 -2.17165
0.0274741 0.781462 -0.883409
-1.99586 -0.31064 8.58999
-0.189323 2.14525 -4.15731
0.189466 3.69682 -0.228943
1.86313 1.73491 18.4654
0.0519472 1.781 19.0555
0.00109877 1.16869 18.0156
0.0895327 4.88602 18.2096
3.2639 2.43251 20.1441
0.085478 2.89711 19.8556
0.076449 6.56413 19.4813
3.56632 1.09441 22.6545
0.0204897 3.05774 21.7796
-0.00912018 1.20372 14.0554
0.432565 -0.180309 18.6131
-0.0216271 0.747534 22.2184
-0.0147105 0.462223 2.10217
0.290502 -0.459266 16.9934
-0.0255539 0.222043 21.8907
0.000394392 -0.225662 3.45627
-0.0639376 -1.01709 18.2253
-0.0050494 -0.29673 21.6696
-0.0398461 -0.609951 6.02186
1.22115 -0.697839 20.1458
1.35783 -1.29127 19.9915
2.2054 -1.31435 19.4343
1.00706 -0.776972 19.4911
2.14673 -1.81035 20.8759
1.04052 -0.808147 21.2715
0.719759 -1.17062 21.6996
1.41631 -1.62847 21.9223
0.211379 -1.11855 21.8967
0.203161 -0.523863 21.6278
-0.150721 -0.528472 21.7888
0.0829186 -0.97282 21.3609
-0.404166 -0.411524 21.7635
-0.434859 -0.208774 21.6805
-0.730309 0.0889293 21.8236
-0.815745 -0.178578 20.4104
-1.29718 0.202398 21.2134
-1.00173 -0.0500502 21.5481
-1.33633 0.535165 21.4196
-1.73506 0.052921 20.216
-1.77386 0.586165 20.5105
-1.25642 -0.00996461 21.1272
-1.47029 0.556357 21.1265
-2.13134 0.215332 19.7045
-2.05766 0.395942 20.1576
1.624 -0.394254 19.8924
2.87563 0.235106 18.7943
1.36268 -0.41787 19.0724
4.16912 -1.08176 20.4885
1.62834 -0.612885 21.2002
3.23011 -0.482763 21.443
1.46604 -1.41103 21.9005
0.661418 -0.637991 21.7195
1.57411 -0.952272 22.138
0.0478168 -0.806192 21.0768
-0.246181 -0.510393 21.8052
-0.0599328 -0.866 20.8799
-1.16576 -0.40664 18.5503
-0.902544 -0.532146 21.6432
-0.642542 -1.0101 19.4273
-1.69898 -0.621492 18.6786
-1.27144 -0.631059 21.4707
-1.28541 -1.03833 20.0212
-1.99412 -0.634002 19.9294
1.26199 0.381492 19.8638
0.98715 0.817919 19.7491
1.06338 0.456115 19.2761
2.32338 1.16723 19.8496
1.66734 0.387293 20.7373
1.38844 1.05219 20.499
2.43937 0.625999 21.3164
1.19557 0.0411561 21.5466
1.25852 0.741479 21.4703
1.21107 -0.0950182 22.1211
0.407231 -0.322284 21.7244
0.555569 0.0556243 21.7403
0.355544 -0.652093 21.8301
-0.0403584 -0.549897 21.541
0.216814 -0.311741 21.5793
-0.0294179 -0.879384 21.6487
-0.36014 -0.701774 21.3164
0.0229885 -0.530076 21.403
-0.420721 -1.11468 21.2436
-1.69699 -1.28758 19.7818
-0.955823 -1.43494 21.8299
0.124529 -0.785243 21.7941
0.827236 -0.0582829 21.4475
1.55743 0.379927 20.7715
1.9018 0.407028 20.4853
-2.69327 -0.644883 19.0351
-2.44119 -1.35429 21.8646
-0.668747 -1.12343 21.1827
0.600089 -0.459986 19.8168
1.39863 -0.644914 19.4918
1.76338 -0.539486 20.1519
-1.75061 0.933275 19.2935
-2.56818 1.05385 20.6144
-1.95737 0.23916 21.9433
-0.618748 -0.403992 22.0279
-0.16829 -0.724573 21.7281
0.309635 -0.995328 21.5798
-0.0538906 -4.79604 18.0258
-0.0277814 -0.320564 12.0818
-0.0061438 0.127081 8.54969
-0.0294487 0.41747 7.88601
0.0177913 0.689137 7.27969
0.0412462 2.01064 10.4228
-0.101981 -2.19617 11.2388
0.00851829 -0.757726 0.398114
0.0338761 0.601754 -1.65252
0.0398296 2.97457 17.3705
0.0851143 4.92239 19.0057
0.0164166 5.31002 20.171
-0.00369929 -0.0974982 7.42552
-0.0201044 0.682951 2.49802
-0.104868 0.0743604 4.24794
1.74318 -1.36766 19.7404
0.958568 -1.43317 21.8315
-0.10815 -0.780349 21.8049
-0.833615 -0.0645224 21.4954
-1.57069 0.40303 20.7038
-1.93836 0.499561 20.2804
2.8138 -0.663341 18.9218
2.44605 -1.35599 21.8656
0.671258 -1.12055 21.2096
-0.602792 -0.479104 19.893
-1.41692 -0.619933 19.043
-1.83471 -0.514995 19.7746
1.74019 0.905572 19.3234
2.48533 0.976295 20.6305
1.94175 0.230724 21.9352
0.63176 -0.413627 22.041
0.205231 -0.744076 21.7539
-0.276093 -1.03904 21.6057
-0.56685 -0.146666 1.22268
-0.00169954 -0.00726136 0.0943359
0.0431162 -0.0534433 2.49613
0.0051015 -0.0850023 0.0381313
0.022174 0.0459091 0.161785
0.00282739 0.0197545 0.236323
-1.01222 0.172763 1.22544
-0.0509417 0.168056 0.214874
-0.211337 -0.00701257 0.643898
0.00394962 -0.0943643 0.159278
-0.00376327 -0.000194194 -0.00166598
0.00564733 -0.00143858 0.0421175
0.000941521 -0.0252324 0.125816
0.564694 -0.143717 1.21964
-0.0351534 -0.0547536 2.49565
-0.00756914 0.0173413 0.0483902
-0.00516929 -0.0827207 0.03736
-0.00403989 0.0207473 0.259994
0.0496469 0.163743 0.20952
1.0237 0.174845 1.23809
0.210265 -0.00698184 0.640508
0.00403938 -0.000285435 -0.00172988
-0.0045456 -0.0938695 0.159894
-0.00561383 -0.00138241 0.0417361
-2.48128e-19 -2.44745e-18 -7.81125e-18
-0.00254852 0.00703967 0.285836
-0.00059973 -0.00806606 0.148246
0.0011779 0.00017298 0.00501378
-0.0532763 0.055506 0.254722
-0.0228808 0.0215131 0.503689
0.00260443 0.0118545 0.152246
0.000781594 0.000534066 0.0204807
-0.132032 -0.085027 0.382107
-0.000302324 -0.000189471 0.00441421
-0.000240384 0.00541485 0.0640429
-0.0391236 0.0382382 0.0822831
0 0 0
0 0 0
0 0 0
0.0222696 0.0148964 0.581048
0 0 0
-0.00174108 0.000191688 0.00715076
0.00296847 0.00723948 0.291942
0.000657176 -0.00793969 0.148606
0.0506166 0.04291 0.242159
-0.00681815 0.00554081 0.243969
0.0213718 0.0235229 0.50417
-0.00269554 0.0112671 0.150728
0.129061 -0.0832371 0.37269
0.0400547 0.0393844 0.0846247
0.000328958 -0.000204763 0.00480691
7.92843e-05 0.0055861 0.0631163
1.17327e-18 -1.70736e-18 -1.51251e-17
-0.0222387 0.0151606 0.580779
8.6225e-18 -2.13148e-17 -1.66653e-16
0 0 0
0 0 0
-0.120788 -0.0415656 0.0371183
-0.000580858 0.000137651 0.00961531
0.0214683 -2.57414 2.03951
0.00158766 -0.0166891 0.062948
0 0 0
0.0476696 0.0348132 0.730365
-0.0369755 -0.130608 0.0783492
0.000911048 -0.000457515 0.00818157
5.57429e-06 -0.000267537 -3.03537e-06
0 0 0
0 0 0
-0.000352002 0.0997274 0.0758712
3.92933e-06 0.0280747 0.0792327
-0.0252124 -0.0464986 0.467632
-0.0312725 0.011804 0.0692209
0.00370518 -0.191143 0.050694
0 0 0
0.00597129 0.0042598 0.0371443
0 0 0
0.109355 -0.0371584 0.0336121
0 0 0
-0.00340682 -0.000348181 0.0613741
-0.00141857 -0.0155877 0.0597138
0.0382362 -0.128071 0.0769284
-0.0479577 0.0364026 0.731799
0 0 0
0 0 0
0.0306842 0.0117549 0.0686607
0.0251176 -0.0466744 0.469327
-5.13983e-19 3.91953e-18 -2.3463e-17
-0.00571388 0.00406207 0.0356126
-0.0036488 0.00534624 0.18432
0.0025983 0.000543603 0.0337395
0 0 0
-2.53828e-05 2.79452e-05 0.00110888
0 0 0
-3.14218e-06 7.93305e-07 4.09603e-05
-2.47844e-05 0.000399615 0.00361614
0.00275663 0.00372977 0.0423561
0 0 0
0 0 0
-3.09242e-05 0.00239023 0.014976
-0.645809 0.270159 2.74734
1.05832e-05 0.00893115 0.0218627
-1.66743e-05 0.0978553 0.226352
-4.59669e-06 0.000889903 0.00690916
2.06843e-05 -0.00326276 0.0539913
-0.00939938 0.000878615 0.11854
0.00367914 0.00545337 0.183975
0 0 0
2.48546e-05 2.8041e-05 0.00108804
3.53657e-05 0.00055983 0.00509996
-0.00276126 0.00358039 0.0425699
0.647215 0.26795 2.73761
3.04036e-05 0.00239427 0.0149733
0 0 0
-0.0579735 -0.0867725 0.424463
0 0 0
1.10837e-05 2.10312e-05 -0.000138487
-0.00304197 0.00149237 0.215036
-0.000403376 0.00162848 0.0165251
-0.00160463 0.00474022 0.081161
0 0 0
0.0227998 0.0333599 0.163498
0.0012464 0.00184864 0.0161106
0.00497006 0.00722056 0.0949995
0 0 0
0 0 0
-1.41798e-05 -0.000302972 0.0146645