# vtk DataFile Version 2.0
tri_press
ASCII
DATASET UNSTRUCTURED_GRID
POINTS 3682 float
-0.754768 0.215 -1.685
-0.765 0.385 1.81472
-0.685 0.755 -1.65436
-0.695 1.025 1.60358
0.754768 0.215 -1.685
0.765 0.385 1.81472
0.685 0.755 -1.65436
0.695 1.025 1.60358
-0.74848 0.281365 -0.518427
-0.799428 0.290495 0.648147
-0.810051 0.966718 -0.56838
-0.797621 1.04095 0.5176
0.74848 0.281365 -0.518427
0.799475 0.290448 0.648147
0.81006 0.966727 -0.56838
0.797608 1.04094 0.5176
-1.53617 -0.192634 -2.55552
-1.52691 -0.103029 -1.65454
-1.52941 -0.0481254 -0.485881
-1.55038 -0.0374949 0.698996
-1.53328 0.0237113 1.86902
-1.52769 0.0731561 2.77669
-1.53214 0.11759 3.67198
-1.52912 0.112168 -2.56917
-1.5227 0.217571 -1.677
-1.53641 0.295862 -0.52402
-1.55674 0.307059 0.63621
-1.51598 0.362114 1.79073
-1.51778 0.410342 2.69726
-1.529 0.45527 3.59518
-1.50177 0.706145 -2.57386
-1.48953 0.809674 -1.67835
-1.56787 0.975253 -0.580317
-1.55824 1.03228 0.512007
-1.47891 1.03572 1.61158
-1.49955 1.08142 2.52145
-1.52547 1.13295 3.43236
-1.49343 1.70796 -2.64149
-1.49552 1.82027 -1.75805
-1.53211 1.97664 -0.686145
-1.55509 2.07675 0.368388
-1.54684 2.11556 1.44113
-1.54197 2.14353 2.32633
-1.54598 2.18265 3.22844
-0.77971 -0.195205 -2.56072
-0.761996 -0.103213 -1.66212
-0.75342 -0.0552123 -0.484863
-0.780334 -0.048592 0.709184
-0.773891 0.0331532 1.88683
-0.771571 0.0787733 2.78878
-0.775336 0.118791 3.67897
-0.778514 0.103546 -2.57077
-0.769349 0.416336 2.70723
-0.776004 0.455975 3.60045
-0.752511 0.680213 -2.56389
-0.753967 1.07781 2.51985
-0.776036 1.1303 3.43202
-0.728935 1.6917 -2.63163
-0.72212 1.8058 -1.74719
-0.754769 1.97379 -0.679601
-0.786624 2.07964 0.367603
-0.789869 2.11471 1.43553
-0.787668 2.14059 2.32073
-0.790746 2.17977 3.22437
0.729734 -0.195206 -2.56072
0.752489 -0.103214 -1.66212
0.765596 -0.0552183 -0.484864
0.792099 -0.0486242 0.709185
0.767345 0.0331405 1.88683
0.749405 0.0787631 2.78878
0.741828 0.11878 3.67897
0.716085 0.103546 -2.57077
0.735357 0.416329 2.70723
0.732388 0.455965 3.60045
0.705381 0.680213 -2.56389
0.710201 1.07781 2.51985
0.719065 1.13029 3.43202
0.782265 1.6917 -2.63163
0.801329 1.8058 -1.74719
0.799103 1.97379 -0.679601
0.763354 2.07963 0.367602
0.728867 2.1147 1.43553
0.720355 2.14058 2.32073
0.719728 2.17976 3.22437
1.49286 -0.192636 -2.55552
1.51616 -0.103032 -1.65454
1.53758 -0.0481394 -0.485881
1.5642 -0.0375418 0.698996
1.5388 0.023679 1.86902
1.51643 0.0731318 2.77669
1.50625 0.117566 3.67198
1.48075 0.112167 -2.56917
1.51364 0.217572 -1.677
1.53689 0.295855 -0.52402
1.56499 0.307009 0.63621
1.52522 0.362086 1.79073
1.50095 0.410322 2.69726
1.49507 0.455248 3.59518
1.47001 0.706145 -2.57386
1.48987 0.809677 -1.67835
1.57066 0.975255 -0.580317
1.56198 1.03225 0.512006
1.48151 1.0357 1.61158
1.47158 1.08141 2.52145
1.47819 1.13293 3.43236
1.53977 1.70796 -2.64149
1.56027 1.82026 -1.75805
1.56978 1.97664 -0.686145
1.54016 2.07673 0.368388
1.49917 2.11554 1.44113
1.48406 2.14351 2.32633
1.48129 2.18263 3.22844
-0.751313 0.485 -1.70111
0 0.209812 -1.69019
-0.792593 0.207214 -1.10171
-0.752067 0.705 1.73122
0 0.321738 1.87798
-0.767739 0.352222 1.23143
0 0.818876 -1.71824
-0.772675 0.886009 -1.11137
0 1.11879 1.69737
-0.771145 1.05781 1.06059
0.751385 0.485 -1.70118
0.792548 0.207258 -1.10171
0.752071 0.705 1.73122
0.767484 0.352477 1.23143
0.772661 0.885995 -1.11137
0.771124 1.05779 1.06059
-0.786961 0.272923 0.06486
-0.872997 0.624041 -0.543403
0 0.253264 -0.518427
-0.893118 0.665725 0.582873
2.35825e-05 0.261916 0.648147
-0.807182 1.00718 -0.02539
4.59927e-06 1.3213 -0.56838
-6.36417e-06 1.60377 0.5176
0.785747 0.274137 0.06486
0.872998 0.624046 -0.543403
0.893121 0.665695 0.582873
0.807189 1.00719 -0.02539
-0.839373 0.554521 -1.10654
0.839375 0.554523 -1.10654
0 0.215029 -1.10171
2.29964e-06 1.04348 -1.11137
0 0.485 -1.95588
-0.889395 0.644883 0.019735
0.889396 0.64487 0.019735
1.17912e-05 0.255485 0.06486
-8.8245e-07 1.54644 -0.02539
-0.850247 0.685362 1.14601
0.850255 0.685347 1.14601
1.17912e-05 0.278512 1.23143
-3.18209e-06 1.54796 1.06059
0 0.705 1.88305
-0.747889 0.35 -1.6879
-0.377384 0.211341 -1.68866
-0.77703 0.207757 -1.39336
-0.762935 0.545 1.77737
-0.3825 0.325934 1.87379
-0.766661 0.36832 1.52308
-0.733608 0.62 -1.69319
-0.3425 0.810823 -1.71018
-0.748684 0.840351 -1.38287
-0.733637 0.865 1.6775
-0.3475 1.08186 1.66044
-0.738531 1.04686 1.33209
0.377384 0.21133 -1.68867
0.747853 0.35 -1.68787
0.776999 0.207788 -1.39336
0.3825 0.32879 1.87093
0.762811 0.545 1.77725
0.766667 0.368313 1.52308
0.3425 0.810751 -1.71011
0.733643 0.62 -1.69322
0.748676 0.840343 -1.38287
0.3475 1.08177 1.66035
0.73365 0.865 1.67752
0.738516 1.04685 1.33209
-0.737134 0.277692 -0.81007
-0.762942 0.281922 -0.226783
-0.873737 0.421204 -0.530915
-0.382595 0.250605 -0.518427
-0.787943 0.316999 0.93979
-0.796634 0.27827 0.356503
-0.890501 0.455996 0.61551
-0.40713 0.261349 0.648147
-0.795108 0.930108 -0.839875
-0.852357 0.800796 -0.555892
-0.810788 0.989121 -0.296885
-0.463289 1.26054 -0.56838
-0.789779 1.05478 0.789095
-0.867068 0.864189 0.550237
-0.801966 1.02363 0.246105
-0.506716 1.53817 0.5176
0.737134 0.277692 -0.81007
0.383019 0.249756 -0.518427
0.762948 0.281917 -0.226783
0.873744 0.421203 -0.530915
0.787945 0.316997 0.93979
0.413365 0.248951 0.648147
0.796828 0.278076 0.356503
0.890489 0.455976 0.61551
0.795005 0.930005 -0.839875
0.463301 1.26055 -0.56838
0.852359 0.800801 -0.555892
0.81078 0.989113 -0.296885
0.789763 1.05476 0.789095
0.506701 1.53815 0.5176
0.867079 0.864175 0.550237
0.801965 1.02363 0.246105
-0.822719 0.51976 -1.40383
-0.375656 0.485 -1.92484
0 0.210425 -1.39595
0 0.347406 -1.93286
-0.812369 0.380867 -1.10413
-0.396297 0.218681 -1.10171
-0.864984 0.695181 1.43861
-0.376033 0.705 1.89504
5.89562e-06 0.294125 1.55471
0 0.513369 1.94451
-0.851035 0.518792 1.18872
-0.383864 0.27858 1.23143
1.14982e-06 0.962515 -1.4148
0 0.651938 -1.86767
-0.854859 0.720265 -1.10896
-0.386337 1.0318 -1.11137
-1.59104e-06 1.40516 1.37898
0 0.911896 1.82918
-0.828319 0.871587 1.1033
-0.385574 1.50651 1.06059
0.822726 0.519761 -1.40386
0.375693 0.485 -1.92483
0.812365 0.380891 -1.10413
0.396274 0.21033 -1.10171
0.864976 0.695174 1.43862
0.376035 0.705 1.89504
0.849631 0.518912 1.18872
0.383748 0.259791 1.23143
0.854988 0.720259 -1.10896
0.386332 1.03178 -1.11137
0.828246 0.871569 1.1033
0.385561 1.50653 1.06059
-0.886613 0.434685 0.0422975
-0.39835 0.254453 0.06486
-0.8633 0.589281 -0.824973
-0.882027 0.634462 -0.261834
0 0.240467 -0.81007
5.89562e-06 0.253521 -0.226783
-0.893901 0.655304 0.301304
-0.885231 0.675544 0.864443
1.76869e-05 0.259121 0.356503
1.76869e-05 0.266409 0.93979
-0.868977 0.836377 -0.00282751
-0.512852 1.49533 -0.02539
3.44946e-06 1.13747 -0.839875
1.85841e-06 1.45647 -0.296885
-3.62331e-06 1.58688 0.246105
-4.77313e-06 1.59075 0.789095
0.886689 0.434945 0.0422975
0.401368 0.247834 0.06486
0.8633 0.589284 -0.824973
0.882028 0.634458 -0.261834
0.893943 0.655283 0.301304
0.885235 0.675521 0.864443
0.868979 0.836373 -0.00282751
0.512855 1.49534 -0.02539
-0.793616 0.365434 -1.39859
-0.865519 0.416785 -0.817521
-0.843686 0.757822 -0.832424
-0.837804 0.670132 -1.39335
0.793612 0.365445 -1.39861
0.837685 0.670129 -1.39336
0.843651 0.757823 -0.832424
0.865498 0.416798 -0.817521
-0.38684 0.215111 -1.39465
0.386829 0.209238 -1.39465
0.385257 0.246249 -0.81007
-0.385268 0.245567 -0.81007
-0.364418 0.959029 -1.39883
-0.39568 1.10372 -0.839875
0.395682 1.1041 -0.839875
0.364416 0.958916 -1.39883
-0.37652 0.348703 -1.90345
-0.359078 0.635969 -1.83846
0.359096 0.635969 -1.83845
0.376538 0.348703 -1.90357
-0.880517 0.427774 -0.244309
-0.891208 0.444015 0.328904
-0.871948 0.852246 0.273705
-0.861701 0.819104 -0.27936
0.880536 0.427914 -0.244309
0.861711 0.819108 -0.27936
0.871947 0.852233 0.273705
0.891246 0.444132 0.328904
-0.391155 0.251163 -0.226783
0.393228 0.246727 -0.226783
0.407876 0.247373 0.356503
-0.402572 0.258236 0.356503
-0.496453 1.3947 -0.296885
-0.514213 1.52561 0.246105
0.514203 1.5256 0.246105
0.496466 1.39472 -0.296885
-0.873975 0.498451 0.902116
-0.840189 0.531896 1.48085
-0.782952 0.868294 1.38535
-0.855883 0.862463 0.826769
0.873987 0.498492 0.902116
0.855894 0.862444 0.826769
0.782982 0.868285 1.38535
0.840221 0.531956 1.48085
-0.391783 0.267043 0.93979
0.391748 0.253541 0.93979
0.383124 0.26419 1.53889
-0.383182 0.300859 1.53889
-0.392194 1.54984 0.789095
-0.366537 1.36055 1.35553
0.36653 1.36055 1.35553
0.392181 1.54983 0.789095
-0.379267 0.529185 1.92731
0.379268 0.529185 1.92735
0.361768 0.888448 1.77161
-0.361767 0.888448 1.77163
-0.739542 0.2825 -1.67467
-0.566076 0.211347 -1.68865
-0.770941 0.206337 -1.53918
-0.762077 0.465 1.79415
-0.57375 0.33917 1.86055
-0.769895 0.372596 1.6689
-0.70957 0.6875 -1.67404
-0.51375 0.794875 -1.69423
-0.728826 0.809659 -1.51861
-0.71244 0.945 1.63866
-0.52125 1.04742 1.626
-0.71957 1.03874 1.46783
0.566076 0.211337 -1.68866
0.739485 0.2825 -1.67461
0.770914 0.206363 -1.53918
0.57375 0.338913 1.86081
0.762282 0.465 1.79436
0.769959 0.372531 1.6689
0.51375 0.794842 -1.6942
0.709578 0.6875 -1.67405
0.72883 0.809664 -1.51861
0.52125 1.0473 1.62588
0.712505 0.945 1.63873
0.719552 1.03872 1.46783
-0.744839 0.277497 -0.664248
-0.75869 0.278665 -0.372605
-0.844477 0.3346 -0.524671
-0.572817 0.251426 -0.518427
-0.79794 0.299492 0.793968
-0.796244 0.286169 0.502325
-0.856325 0.367565 0.631828
-0.609311 0.263857 0.648147
-0.80481 0.950643 -0.704128
-0.835454 0.885882 -0.562136
-0.810495 0.977995 -0.432633
-0.677434 1.19516 -0.56838
-0.796011 1.05018 0.653348
-0.841489 0.957144 0.533918
-0.799571 1.03207 0.381853
-0.66719 1.3196 0.5176
0.744839 0.277496 -0.664248
0.572816 0.251428 -0.518427
0.758693 0.278662 -0.372605
0.844479 0.334601 -0.524671
0.797945 0.299487 0.793968
0.608933 0.264673 0.648147
0.796247 0.286166 0.502325
0.856298 0.367554 0.631828
0.804815 0.950649 -0.704128
0.677404 1.19509 -0.56838
0.835452 0.885885 -0.562136
0.810498 0.977998 -0.432633
0.796016 1.05018 0.653348
0.667188 1.31961 0.5176
0.841491 0.957132 0.533918
[...]
POINT_DATA 3682
SCALARS point_scalars float 1
LOOKUP_TABLE default
-72.9674
-53.925
-16.821
-41.708
-72.1234
-54.1678
-16.8909
-41.8315
-43.4967
-44.0004
-70.1837
-57.1678
-43.3352
-44.4662
-70.3454
-57.1951
-63.2749
-113.105
-45.1511
-47.6787
-52.5532
-54.4385
-52.714
15.3971
-106.856
-47.7677
-48.569
-53.2322
-53.1658
-52.714
36.946
-98.6925
-59.9454
-55.5542
-49.8404
-45.7408
-44.0683
-20.1013
-62.046
-102.991
-65.6974
-46.5808
-41.9417
-41.9417
14.6039
-142.841
-42.5885
-42.1055
-53.9539
-48.8157
-46.771
89.8216
-45.1537
-44.6092
148.73
-41.8067
-44.146
40.6762
-41.1061
-72.2282
-77.8166
-46.6793
-38.0486
-36.7793
53.8045
-145.037
-42.2415
-43.0203
-53.1364
-48.338
-46.9904
92.7966
-45.9905
-44.5978
153.07
-41.9333
-44.2056
40.5212
-46.6701
-73.2489
-77.8577
-45.7247
-37.8802
-36.3958
-62.2534
-113.644
-45.3226
-48.1181
-52.6981
-54.6743
-52.6804
13.9352
-106.711
-47.8161
-48.8906
-53.3387
-53.2274
-52.977
35.813
-98.9824
-60.0457
-55.6555
-49.87
-45.7452
-44.1589
-20.1661
-60.9176
-102.387
-65.8925
-46.7137
-42.0433
-42.0633
-36.7751
-144.481
-67.8248
-47.5372
-50.0824
-49.8429
25.2608
-54.827
-34.8688
-52.1091
-36.5415
-67.8105
-47.6321
-48.0867
-54.7918
-52.1434
-41.4013
-51.9031
-47.0613
-51.0663
-41.7762
-63.0063
-2.85211
-80.42
-41.2964
-51.9615
-51.2212
-63.0783
-55.7647
-55.7979
-69.1642
4.33271
204.445
-49.3702
-49.4594
-40.1016
-94.1321
-45.4536
-45.4312
-49.3368
-50.1762
-42.0127
-70.8906
-145.083
-81.3013
-48.7035
-51.2339
-44.5147
-21.1544
28.3019
-63.1907
-44.4909
-36.9543
-45.9534
-146.574
-70.4879
-80.9559
-51.2658
-48.7882
-44.4472
28.489
-21.068
-63.1909
-37.1512
-44.6165
-46.0148
-53.6265
-40.6351
-48.1928
-45.7968
-34.2126
-42.3432
-48.6974
-41.7049
-55.8885
-57.8772
-66.46
-16.4591
-56.11
-54.297
-59.2996
-73.7525
-53.6768
-45.6361
-40.5537
-48.2399
-35.702
-41.9072
-42.8434
-49.0129
-55.8673
-16.1725
-57.9619
-66.6218
-56.1498
-73.7471
-54.399
-59.3357
-85.7782
186.356
-89.7089
94.8284
-57.605
-67.5267
-47.8797
-41.8472
-44.1759
-44.8209
-50.8046
-49.4373
-17.5393
160.351
-63.317
-7.21874
-37.5701
-40.1567
-50.8416
-50.9046
-85.7352
186.401
-57.6125
-67.4524
-47.9109
-41.932
-50.518
-48.1296
-63.3816
-7.37677
-50.8587
-50.9438
-44.9477
-39.7735
-53.5715
-50.1911
-56.7385
-41.8777
-49.7718
-51.5508
-40.258
-43.2066
-55.0826
-96.3809
33.8821
-57.4845
-90.6755
-65.7623
-45.0499
-39.7256
-53.5273
-50.2703
-49.8955
-51.655
-55.1578
-96.6141
-82.8287
-59.0445
-54.9035
-88.154
-82.7285
-87.9817
-54.8978
-59.0781
-88.9805
-88.3554
-55.9235
-55.639
-23.4774
15.649
18.1916
-23.4593
83.7222
152.953
152.918
85.4515
-45.4894
-45.989
-53.3624
-56.5852
-45.5591
-56.684
-53.4356
-46.1701
-41.2573
-41.206
-40.2151
-40.0398
-73.8958
-81.478
-81.489
-74.169
-48.9829
-47.3379
-46.1342
-53.4086
-49.2146
-53.4759
-46.169
-47.3158
-42.8267
-43.3016
-45.9287
-45.8204
-64.486
-38.6258
-38.7268
-64.5027
-44.6574
-44.6675
-39.7189
-39.5231
-52.3467
-145.002
-112.248
-52.4914
-51.4017
-46.6092
-16.2924
20.8927
-72.0649
-42.6791
-38.6968
-43.4689
-144.211
-51.6623
-112.141
-51.8569
-52.6504
-46.3687
20.7334
-16.3029
-72.047
-38.8484
-42.8116
-43.5584
-46.9343
-41.5855
-46.3042
-44.0728
-44.3798
-42.5399
-47.804
-41.4109
-65.5706
-62.6059
-67.7814
-88.5463
-57.4259
-56.4525
-57.8841
-63.182
-46.9564
-44.0428
-41.8155
-46.3391
-45.2567
-41.7111
-42.8314
-48.2308
-65.6463
-88.062
-62.722
-68.0214
-57.4659
-63.2067
-56.4934
-57.9177
-56.4921
-24.1962
-123.755
126.026
-146.563
-145.586
-110.547
52.2516
-68.1188
-57.8029
-57.4531
-65.567
-47.8971
-46.1846
-51.2463
-43.3611
-50.3003
-50.4953
-51.231
-45.3877
-44.3557
-66.9148
-48.9713
-48.2168
28.3422
28.1554
-16.7536
78.7472
-58.5551
-49.7198
-62.185
-21.3214
-35.5841
-35.59
-36.1477
-36.7786
-49.0085
-54.225
-51.459
-52.1308
-55.3935
-24.2396
-123.278
126.25
-67.9912
-57.6896
-57.4471
-65.5162
-47.9865
-46.2976
-51.3385
-43.4781
-44.0059
-67.6388
-48.4836
-47.8634
-58.5378
-49.6982
-62.1977
-21.2247
-49.0433
-54.2603
-51.4934
-52.1594
-39.998
-40.1628
-43.4694
-39.6231
-49.6351
-54.2276
-52.3353
-50.941
-46.7758
-46.7819
-51.3472
-43.7686
-49.7233
-52.6003
-50.7831
-51.3136
-41.7117
-41.8014
-40.8606
-42.5604
-65.0878
-60.9769
-58.6452
-77.4161
-2.13099
-2.18
27.434
-33.2113
-79.5642
-79.5749
-86.6584
-74.3249
-40.1987
-40.1657
-43.5142
-39.5628
-49.6901
-54.2942
-52.3779
-51.0086
-49.94
-52.7108
-50.9292
-51.4628
-65.171
-61.0157
-58.7104
-77.5661
-67.5829
-55.4706
-57.3081
-55.6044
-67.5456
-55.487
-57.3751
-55.6359
-77.8213
-68.7087
-68.861
-62.7297
-7.80157
1.34467
1.37701
18.3108
202.456
181.754
180.385
202.5
-47.0116
-49.4952
-49.3649
-52.0018
-47.1107
-49.5767
-49.4666
-52.0848
-39.9762
-40.6563
-39.986
-40.0103
-93.5081
-82.8017
-95.5745
-93.5466
-46.5251
-46.6055
-49.1637
-49.6865
-46.4055
-46.4761
-49.1565
-49.7075
-46.8942
-49.4217
-49.0353
-47.8083
-43.0093
-50.3835
-50.4017
-57.6157
-41.871
-45.1025
-41.7843
-41.9288
-115.462
75.5927
-109.51
11.9364
-81.1746
-85.4625
-49.9655
-44.4037
-48.8441
-45.3296
-46.7373
-44.4755
-98.6756
96.8866
-25.2122
84.101
-71.296
-35.7713
-45.9841
-39.9425
-37.4219
-37.891
-46.3142
-41.7458
-110.231
47.6333
-115.23
77.7912
-81.05
-84.955
-48.1199
-45.2929
-50.0224
-44.4379
-46.7485
-45.0027
-25.556
83.5773
-98.882
96.9461
-71.3894
-35.8492
-37.479
-38.1039
-46.0776
-40.1085
-46.3609
-41.8146
-62.7714
-54.5711
-43.5579
-40.3587
-50.9691
-46.389
-49.9735
-42.9142
-44.9569
-41.8869
-44.7239
-39.8965
-47.4035
-49.0617
-40.6609
-42.0927
-56.4034
-4.34892
-57.0354
-57.1087
-60.9407
-92.5376
8.34781
-41.3037
-54.6835
-60.9157
-54.7742
-54.1698
-56.0241
-68.1049
-77.8283
-71.5021
-62.7949
-54.7204
-49.8998
-42.7401
-43.6084
-40.352
-51.0102
-46.4513
-45.4661
-42.3055
-40.7783
-42.4919
-44.9643
-40.5273
-47.6483
-49.4277
-56.3936
-4.6076
8.65116
-41.2401
-57.0829
-57.2035
-61.0571
-92.0408
-54.7412
-60.8899
-77.8691
-71.4644
-54.8631
-54.2533
-56.08
-68.1289
-83.8316
-88.4859
158.757
167.301
-90.0342
-89.2091
92.1818
92.0552
-65.8651
-46.1319
-76.1192
-61.5332
-47.3979
-47.2324
-44.35
-40.7993
-45.7966
-44.5663
-44.7973
-44.8095
-44.8763
-46.216
-48.6557
-46.2756
-18.4528
-18.5055
156.768
156.687
-55.9521
-71.7961
-16.7979
6.24344
-37.8682
-37.9166
-39.6986
-39.5765
-47.7847
-52.2093
-57.8959
-44.167
-83.7724
-88.3581
166.54
159.631
-65.8154
-45.716
-75.7625
-61.9356
-47.2748
-47.3779
-44.3869
-40.9572
-44.7686
-46.0617
-49.6854
-46.4063
-71.673
-55.9793
4.82496
-16.7876
-52.2526
-47.8078
-44.2121
-57.9251
-44.8971
-45.2831
-40.1781
-39.7219
-56.3036
-53.1298
-47.6358
-53.1766
-56.75
-56.4419
-41.7245
-41.7256
-47.8968
-51.705
-50.8389
-52.2892
-40.2634
-40.141
-42.9824
-43.2851
-54.1761
-55.689
-88.9557
-87.1581
28.799
28.2579
-55.2122
-55.2983
-88.7518
-88.7629
-65.2996
-65.3086
-44.9931
-45.4177
-40.1382
-39.7249
-53.1244
-56.3319
-47.7104
-53.2642
-51.7918
-48.0484
-50.9947
-52.369
-55.7745
-54.2492
-87.2333
-88.7737
-107.891
-65.276
-66.7071
-116.714
-49.1996
-51.5294
-51.2018
-50.6259
-61.7726
-54.5922
-58.0458
-54.0692
-85.7972
-113.124
-68.5454
-68.2048
-107.73
-116.685
-66.6756
-65.2375
-85.8013
-68.1549
-68.4662
-113.182
-61.8345
-54.1136
-58.0755
-54.6149
-49.2153
-50.5817
-51.1192
-51.5712
-108.175
-109.183
-77.4344
-73.0691
-107.898
-72.77
-77.2308
-109.616
-47.8125
-51.0436
-62.6062
-60.2689
-47.7824
-60.1447
-62.3366
-51.039
-31.6493
-28.7571
-9.72428
-19.8505
-50.0416
23.7706
14.8587
-12.4826
-50.0055
-12.3176
15.2014
23.8
-31.5851
-19.3049
-9.70991
-28.7956
48.9969
112.109
180.316
28.3876
74.6362
85.5901
179.168
120.795
74.9907
119.17
179.285
85.3709
12.9098
26.2587
180.564
112.736
-44.5837
-43.0784
-47.0699
-48.2925
-46.2267
-48.9995
-47.2544
-43.4476
-56.9654
-57.4329
-51.5935
-52.6882
-62.0592
-53.6244
-52.5565
-59.795
-44.6389
-48.3583
-47.1541
-43.0369
-62.19
-59.8837
-52.6384
-53.7016
-57.0309
-52.8146
-51.6806
-57.4893
-46.5115
-43.6152
-47.375
-49.1913
-41.6133
-43.5461
-40.5257
-39.6035
-41.607
-39.6812
-40.5446
-43.5374
-41.0153
-40.8555
-39.9469
-39.5687
-40.7192
-39.5857
-39.8921
-40.7861
-93.6094
-83.9722
-83.8092
-30.7757
-64.2076
-84.8828
-94.2639
-72.6318
-64.2388
-72.6326
-94.2984
-84.8978
-97.0989
-30.7974
-83.7641
-83.8768
-47.3996
-48.6568
-47.4022
-50.2707
-49.4121
-50.6624
-48.1511
-45.2978
-44.5084
-48.5407
-45.8919
-49.3165
-55.9933
-52.7762
-50.9723
-53.2795
-48.0169
-50.4902
-47.39
-47.9683
-56.058
-53.3235
-51.0106
-52.8856
-44.6003
-49.402
-45.8885
-48.5734
-49.4452
-45.0677
-48.0119
-50.7307
-41.1651
-42.4122
-48.1944
-56.1965
-41.7152
-57.1152
-46.8538
-42.7362
-48.334
-48.0334
-49.2053
-45.0787
-48.505
-44.6226
-46.0748
-51.6232
-62.7503
-56.9697
-57.6912
-73.525
-38.6399
-36.609
-43.4238
-46.6844
-38.7436
-46.7554
-43.4562
-36.6817
-62.7638
-73.5399
-57.7085
-56.9614
-44.8732
-45.2626
-44.9555
-44.4845
-44.9383
-44.5198
-44.9734
-45.2947
-39.5207
-37.127
-41.4537
-41.1756
-39.3481
-41.0342
-41.3741
-36.9891
-68.7944
-136.066
-129.371
-53.8229
-52.5791
-50.4143
-13.9029
13.5743
-57.8138
-42.5833
-39.4044
-41.8646
-134.688
-67.9733
-129.315
-52.7606
-54.0394
-50.3944
13.2022
-13.9437
-57.7709
-39.5448
-42.7119
-41.9664
-45.3401
-41.814
-45.2068
-43.1357
-44.5985
-43.3228
-46.8553
-41.6791
-69.9535
-65.8902
-69.1889
-87.825
-57.317
-56.6476
-57.4272
-59.1374
-45.3111
-43.1003
-41.9845
-45.2033
-45.223
-42.0791
-43.6904
-47.3204
-70.0811
-87.9293
-66.0264
-69.3916
-57.355
-59.1448
-56.6883
-57.4546
-46.1642
-28.914
-108.78
46.04
-145.526
-144.614
-126.093
-12.9358
-62.9941
-68.6552
-63.6728
-66.2145
-48.0114
-46.6201
-51.4247
-44.2107
-50.008
-50.3502
-51.5788
-46.9801
-46.0441
-55.5064
-48.7738
-49.2575
25.8743
25.9687
1.48359
49.9836
-56.3385
-51.7565
-59.7864
-35.3584
-35.069
-34.975
-35.4162
-35.4245
-50.608
-53.1568
-51.7616
-52.3914
-46.0947
-28.5484
-108.42
40.7276
-62.8313
-68.5932
-63.6936
-66.1953
-48.0982
-46.7218
-51.5339
-44.2868
-45.2517
-54.5861
-47.5808
-48.236
-56.2777
-51.7597
-59.7664
-35.1979
-50.646
-53.1941
-51.7985
-52.4247
-38.2734
-42.333
-42.2901
-40.3662
-50.7063
-52.9554
-52.0076
-51.3823
-46.9668
-46.9975
-49.2384
-45.1021
-50.3195
-51.8374
-50.9167
-51.1716
-41.7576
-41.8236
-41.3367
-42.1569
-64.2423
-61.9789
-60.9592
-69.6249
-1.78049
-1.77309
14.5844
-16.0821
-80.3133
-80.2969
-83.4016
-77.9291
-38.5357
-42.1082
-42.3096
-40.1781
-50.7625
-53.0157
-52.0583
-51.4462
-50.5031
-51.9703
-51.0681
-51.3263
-64.2993
-62.0274
-61.0196
-69.6459
-61.2802
-55.5198
-55.5998
-51.1411
-61.2787
-55.54
-55.6499
-51.1679
-73.1463
-69.043
-69.1679
-65.7253
-2.51958
3.6577
3.70484
11.0723
203.033
196.509
202.857
203.071
-48.1976
-49.3523
-49.1956
-50.5981
-48.2917
-49.4374
-49.4836
-50.6847
-40.0512
-40.2498
-40.0482
-40.0762
-93.6497
-88.7888
-95.9707
-93.6552
-45.3095
-44.4615
-47.7296
-48.8782
-45.2883
-44.4094
-47.7132
-48.8426
-47.7891
-49.3834
-49.1196
-49.8945
-46.3658
-50.1435
-50.1524
-54.0016
-41.7373
-43.5388
-42.0309
-41.7593
-62.2135
-63.4761
-117.826
11.1966
-143.372
-146.52
-125.583
7.13208
-93.9043
-74.7818
-79.8605
-83.1769
-50.3209
-47.7901
-53.2997
-45.1229
-51.6579
-50.5503
-52.1455
-47.0346
-44.7122
-44.0645
-46.0517
-44.1122
-22.8068
-21.9064
-69.8999
48.9419
27.7553
29.4954
-4.91738
55.3938
-65.3533
-61.7991
-67.5791
-47.1356
-43.4353
-45.5395
-45.9353
-40.9189
-37.8756
-36.3664
-37.1641
-37.2634
-44.7331
-47.3918
-46.0569
-43.7204
-142.618
-146.158
-127.747
-0.0495701
-61.7988
-63.5089
-117.514
9.9849
-93.4596
-74.5624
-79.6569
-82.7184
-51.5576
-50.487
-53.1504
-46.8079
-50.4157
-47.8678
-53.4902
-45.1787
-44.4944
-43.96
-46.0362
-44.2176
27.8847
29.6582
-4.86673
55.0022
-22.7962
-21.87
-70.2372
48.6524
-65.3868
-61.714
-67.5998
-47.1623
-38.0509
-36.5183
-37.2698
-37.4691
-43.5655
-45.6615
-46.0388
-41.0519
-44.8054
-47.441
-46.1141
-43.8394
-47.9694
-57.5832
-61.4948
-53.7484
-41.4674
-40.4142
-42.022
-40.0813
-47.3726
-48.8429
-49.2923
-47.1063
-44.9349
-46.4567
-47.7302
-44.1668
-41.8646
-35.3866
-41.8519
-37.3329
-42.9796
-39.8339
-43.5851
-40.8984
-48.2419
-49.0896
-48.1963
-48.7403
-41.6075
-41.6496
-41.1143
-41.885
-62.7708
-51.6995
-57.5499
-32.5888
-60.2792
-55.8444
-57.6433
-57.3564
-67.0222
-65.8977
-63.2915
-76.3271
-34.8165
-5.83865
-0.590469
-27.0099
-56.9044
-55.1602
-55.3395
-58.491
-55.6779
-53.4288
-54.5237
-54.1191
-58.6205
-60.1675
-57.8136
-63.0602
-66.8874
-77.0153
-75.3227
-72.8419
-48.0033
-57.5395
-61.51
-53.8528
-44.8595
-46.4063
-47.6018
-43.8702
-41.4922
-40.4862
-42.0242
-39.996
-47.4162
-48.8947
-49.3353
-47.1626
-43.1916
-41.8222
-43.1781
-37.8604
-41.9055
-41.6769
-41.0917
-42.285
-43.2566
-40.2262
-43.9261
-41.7632
-48.6166
-49.3474
-48.4959
-49.0717
-62.7574
-51.7414
-57.5211
-32.6356
-34.1314
-5.71125
-0.326491
-26.8867
-60.3797
-55.9189
-57.7102
-57.449
-67.2321
-66.0033
-63.4214
-76.4734
-56.9501
-55.2019
-55.3927
-58.5048
-66.8754
-77.0339
-75.3452
-72.873
-55.7313
-53.5253
-54.6098
-54.2034
-58.657
-60.2005
-57.8585
-63.0795
-105.471
-75.5398
-84.9015
-86.9252
170.195
199.822
183.811
183.884
-99.0289
-82.9895
-90.1475
-89.6369
68.0361
147.348
82.9092
83.6491
-59.0205
-56.3665
-61.1647
-53.9225
-66.5526
-68.2668
-71.4075
-64.2893
-49.4068
-46.9384
-47.679
-47.8538
-42.2855
-41.9539
-43.5595
-41.0045
-48.146
-44.5087
-45.343
-43.6234
-44.9299
-45.1111
-44.8769
-44.8885
-50.0425
-49.4568
-49.1705
-47.6325
-49.1883
-49.5251
-51.0655
-46.9168
-16.8049
-13.4055
-17.9875
-17.9963
128.197
164.766
156.735
156.688
-63.9908
-60.0762
-58.8738
-66.3064
-13.685
-2.10572
-12.0274
-0.944816
-36.7136
-39.2313
-37.68
-37.7141
-37.7302
-41.4839
-39.8904
-39.8326
-51.1569
-50.106
-49.542
-51.5685
-51.8387
-50.5836
-54.1785
-47.5459
-105.388
-75.474
-84.8546
-86.8642
170.288
199.917
183.876
183.87
-59.0093
-56.3768
-61.1379
-53.9701
-66.4378
-68.3659
-71.2622
-64.2956
-49.4267
-46.8712
-47.8831
-47.691
-42.3737
-42.0413
-43.6655
-41.1285
-49.726
-49.2251
-48.9445
-47.3017
-49.1208
-49.0723
-50.1502
-46.81
-64.0257
-60.1823
-66.2398
-58.9365
-13.6776
-2.24549
-1.2655
-12.0902
-51.1829
-50.1153
-51.603
-49.5565
-51.8837
-50.615
-47.5891
-54.2092
-44.2176
-45.9925
-44.8293
-45.1221
-39.618
-39.8843
-39.8561
-39.7561
-52.5947
-57.5071
-54.8126
-52.7647
-50.5171
-49.7238
-48.8472
-51.7388
-53.6798
-60.4116
-56.8029
-56.6126
-42.7761
-41.1779
-41.7981
-41.8099
-50.3162
-49.4099
-48.8144
-50.7141
-51.5571
-50.4166
-51.1566
-51.8602
-40.4943
-40.0831
-40.2618
-40.1997
-43.0144
-45.1879
-43.0244
-43.21
-56.7351
-53.6086
-54.6941
-55.2746
-89.5456
-93.1987
-91.1519
-93.1809
33.958
25.9264
32.1588
31.9453
-44.9222
-73.4185
-57.191
-57.1906
-88.7543
-92.9733
-89.9749
-89.9779
-69.8754
-61.4779
-65.6444
-65.6496
-44.3063
-46.0957
-44.9185
-45.2396
-39.5966
-39.9281
-39.8523
-39.6543
-52.6247
-57.4471
-52.7182
-54.8205
-50.5941
-49.8025
-48.9236
-51.8227
-50.456
-49.5185
-50.8271
-48.9518
-51.6891
-50.509
-51.2862
-51.9485
-56.8054
-53.6878
-55.353
-54.7684
-90.1882
-93.2734
-93.3704
-91.1566
-98.9969
-82.916
-83.2957
-73.2263
-63.2054
-53.2861
-54.4641
-58.4259
-55.5878
-56.1414
-54.6243
-53.5026
-94.348
-82.4208
-91.181
-78.4573
-98.8642
-82.799
-83.2158
-73.1502
-94.2381
-82.3859
-90.8939
-78.3197
-55.5825
-56.1633
-54.5823
-53.5016
-63.1938
-53.3212
-54.2467
-58.4425
-97.8547
-87.6713
-89.8761
-81.8684
-97.5307
-86.8375
-88.8642
-81.3328
-55.289
-52.2891
-60.3818
-56.3342
-55.0555
-52.3341
-59.5785
-55.9793
-24.7599
-28.6728
-20.2636
-20.6981
9.03751
16.3873
12.0453
23.5827
8.97048
16.8404
10.7866
23.5276
-24.8225
-28.6883
-20.3192
-20.7088
79.3671
64.1896
127.353
86.5034
140.387
130.178
149.643
154.664
129.688
140.159
154.658
149.476
69.8396
80.1589
88.0408
129.361
-44.6054
-45.8745
-45.106
-46.5558
-45.2974
-46.7389
-45.5207
-46.9824
-54.6119
-54.1703
-52.9158
-53.741
-56.8244
-58.5383
-54.8014
-56.099
-44.6685
-45.9415
-45.1816
-46.6279
-56.9268
-58.6501
-54.8932
-56.1904
-54.7086
-54.238
-52.981
-53.8154
-45.5002
-46.9311
-45.6835
-47.1485
-40.8556
-41.9906
-40.6762
-41.5063
-41.9649
-40.9036
-41.556
-40.5511
-40.5943
-40.2621
-40.2449
-39.7804
-39.9674
-40.3455
-39.8558
-40.1012
-97.8865
-54.1546
-81.7331
-59.1116
-74.1653
-79.2591
-84.2868
-86.2631
-79.2787
-74.1819
-86.2858
-84.2979
-54.4091
-98.2096
-59.3417
-81.7033
-47.2952
-49.7781
-46.4287
-50.0761
-48.2185
-47.2018
-47.4641
-46.4142
-45.6982
-46.3356
-46.2392
-46.8594
-54.0613
-53.8261
-52.8837
-52.8108
-47.6293
-50.1169
-46.5053
-50.2564
-54.1209
-53.9024
-52.9398
-52.8838
-45.7696
-46.3743
-46.2676
-46.8848
-48.2323
-47.1988
-47.4389
-46.3399
-42.8299
-42.6071
-45.1394
-42.8886
-43.3994
-42.9325
-45.1695
-43.8453
-47.1505
-45.4664
-46.61
-45.5195
-45.6877
-45.723
-45.6374
-45.9242
-63.0931
-67.6181
-61.4171
-65.186
-37.8239
-39.2734
-38.1899
-40.8116
-37.9086
-39.3406
-38.2528
-40.8656
-63.0794
-67.5952
-61.4442
-65.2025
-44.5083
-44.7495
-44.5987
-44.7269
-44.7623
-44.5345
-44.7347
-44.6112
-38.7801
-39.8644
-39.5931
-40.3
-39.6679
-38.5668
-40.1152
-39.4331
-113.752
-38.521
-128.519
-65.7821
-108.604
-109.051
-53.6975
-46.1349
-54.0944
-46.9899
-48.3374
-47.6043
-69.9541
43.1823
-16.2237
51.2345
-81.8018
-45.0761
-43.8186
-40.185
-38.5212
-39.0122
-44.212
-40.7304
-128.436
-85.4874
-113.41
-38.7974
-108.439
-108.88
-50.9557
-47.5018
-53.8174
-46.1856
-48.3166
-46.8063
-16.3277
51.1972
-70.1207
43.1097
-81.7646
-45.0706
-38.6419
-39.1758
-43.925
-40.3332
-44.2959
-40.8342
-47.0192
-46.9346
-43.2117
-41.0873
-48.0217
-45.1703
-46.0186
-42.3777
-46.4257
-41.0916
-44.7812
-41.0764
-47.4513
-47.2326
-40.99
-41.4801
-64.4058
-76.2616
-62.2546
-62.4038
-64.7202
-77.8791
-69.7699
-100.951
-56.586
-60.4763
-56.7403
-55.9675
-57.3095
-60.3258
-62.2799
-64.2875
-47.0263
-46.9781
-45.9985
-42.3769
-43.2856
-41.3482
-48.0398
-45.2335
-47.1545
-41.7825
-41.4594
-41.8388
-45.0704
-41.368
-47.8004
-47.7201
-64.4741
-76.3408
-69.5781
-98.9358
-62.3381
-62.5266
-64.8985
-78.6198
-56.6376
-60.4896
-62.3107
-64.3028
-56.7925
-56.0287
-57.3566
-60.3378
-122.694
34.1132
-89.5481
50.8812
-120.898
-119.853
125.624
125.608
-123.848
-29.3294
-126.59
-32.9144
-109.122
-110.114
69.6835
65.1683
-63.935
-71.3295
-55.2921
-59.0571
-60.3966
-57.6667
-68.6976
-62.777
-52.8276
-45.0422
-48.9292
-42.5305
-50.9147
-50.2569
-44.1375
-41.9685
-52.7753
-46.8697
-50.1159
-47.0115
-48.9701
-53.0234
-45.351
-45.3627
-44.6289
-44.2708
-57.6466
-65.2583
-55.3752
-46.1602
-54.3347
-45.5512
-0.624531
51.4402
-0.682866
51.5239
-17.7459
-17.966
80.726
80.7995
-63.3401
-40.0563
-55.1431
-30.9265
-57.8793
-66.2266
-24.8701
-16.9483
-35.894
-36.0702
-35.9971
-36.1917
-36.2818
-36.3263
-37.0484
-37.0119
-48.819
-48.145
-53.8211
-55.5782
-50.1769
-52.2681
-54.5875
-49.0588
-122.124
25.3391
-89.6805
50.2017
-120.41
-119.667
124.969
125.726
-63.849
-71.1119
-55.2449
-59.0812
-60.3658
-57.7052
-68.5042
-62.8636
-52.9272
-45.0024
-49.0406
-42.6515
-50.3485
-50.9951
-44.1999
-42.1067
-44.2949
-44.2633
-56.1242
-65.5842
-54.4734
-45.7554
-53.811
-45.7812
-63.3382
-40.1554
-55.1629
-30.0363
-66.2071
-57.9231
-16.8183
-24.8548
-48.8499
-48.1894
-53.8597
-55.5892
-52.3072
-50.1994
-49.0997
-54.6104
-41.5071
-39.4051
-41.7009
-40.0399
-42.7813
-43.4792
-39.5934
-39.653
-50.4343
-48.9307
-54.1239
-53.8631
-51.8667
-53.1122
-49.5548
-52.198
-48.9174
-44.8428
-48.9566
-44.8229
-51.2804
-51.2277
-43.6981
-43.7051
-49.4226
-50.0593
-52.644
-52.6634
-49.8636
-51.6927
-50.6648
-51.9944
-41.2047
-42.0665
-41.3214
-42.2874
-40.8564
-40.8062
-42.4757
-42.6237
-62.2468
-72.9163
-59.3879
-66.283
-58.0712
-59.3696
-80.2356
-74.946
9.36795
-17.4335
9.41611
-17.3313
26.5671
26.5458
-32.7418
-32.751
-82.0619
-77.5743
-82.0704
-77.5938
-86.4779
-86.4837
-74.2112
-74.2371
-41.6906
-39.5519
-41.8408
-39.7486
-43.0348
-43.57
-39.5718
-39.675
-50.482
-48.9911
-54.1822
-53.9369
-53.1571
-51.908
-49.6226
-52.2668
-49.6304
-50.2811
-52.7575
-52.7776
-51.824
-50.0309
-50.8462
-52.1207
-62.3367
-72.9349
-59.4357
-66.3016
-59.4471
-58.134
-74.9866
-80.3249
-67.1113
-68.1201
-60.8629
-49.327
-57.0791
-62.5798
-52.36
-57.3917
-67.0787
-68.079
-60.8571
-49.5272
-62.5552
-57.1872
-57.4335
-52.2976
-77.7088
-77.6545
-72.6922
-65.2963
-72.7479
-65.5095
-62.8096
-62.659
-8.16348
-8.15898
-4.92205
8.2131
8.31046
-4.9038
17.3707
17.4892
195.312
201.013
181.081
181.246