# vtk DataFile Version 2.0
tet_velo
ASCII
DATASET UNSTRUCTURED_GRID
POINTS 29498 float
-0.761859 0.445 -2.145
-0.781522 0.495 2.275
-0.754342 1.035 -1.995
-0.625 1.76323 1.985
0.761767 0.445 -2.145
0.781526 0.495 2.275
0.754347 1.035 -1.995
0.625 1.76323 1.985
-0.833338 0.396742 -0.671667
-0.891011 0.36229 0.801667
-0.784952 1.35147 -0.668333
-0.716364 1.56874 0.658333
0.833334 0.396687 -0.671667
0.891011 0.362262 0.801667
0.784969 1.35148 -0.668333
0.716358 1.56873 0.658333
-1.54758 -0.138408 -3.25661
-1.55767 -0.0383067 -2.13668
-1.60857 -0.0869223 -0.659559
-1.64272 -0.163423 0.847084
-1.59102 -0.0912602 2.32669
-1.57165 0.0259581 3.4588
-1.57775 0.151907 4.56836
-1.54726 0.275233 -3.23434
-1.55365 0.415401 -2.13043
-1.60945 0.42298 -0.681846
-1.62992 0.403174 0.779943
-1.54292 0.510598 2.23134
-1.54132 0.628691 3.36137
-1.56262 0.747567 4.47572
-1.54401 1.01215 -3.14863
-1.5409 1.14269 -2.03866
-1.56257 1.38269 -0.690057
-1.50367 1.56769 0.648154
-1.41798 1.74304 1.99957
-1.47338 1.85074 3.13566
-1.53105 1.94723 4.27366
-1.54994 2.35203 -3.13034
-1.54886 2.52353 -2.04234
-1.54781 2.83579 -0.741286
-1.52435 3.15951 0.528152
-1.49987 3.41112 1.83073
-1.5094 3.5522 2.92194
-1.53649 3.65941 4.04392
-0.766403 -0.120035 -3.26607
-0.76226 -0.0113179 -2.15049
-0.805888 -0.0950306 -0.657707
-0.855308 -0.196084 0.865625
-0.820482 -0.111843 2.35911
-0.811506 0.0138337 3.48079
-0.819848 0.144896 4.58109
-0.771062 0.278975 -3.23725
-0.799267 0.622752 3.37951
-0.814681 0.744665 4.48532
-0.770906 0.968258 -3.13049
-0.748387 1.86056 3.13275
-0.796177 1.95345 4.27304
-0.775804 2.31554 -3.1124
-0.774662 2.48571 -2.02258
-0.781044 2.8187 -0.729376
-0.773669 3.16562 0.526723
-0.762027 3.42707 1.82053
-0.772851 3.56713 2.91175
-0.795463 3.67075 4.03651
0.784771 -0.120042 -3.26607
0.799649 -0.0113305 -2.15049
0.843575 -0.0950711 -0.657707
0.857055 -0.196111 0.865625
0.779465 -0.111852 2.35911
0.731891 0.0138254 3.48079
0.70716 0.144886 4.58109
0.76707 0.278971 -3.23725
0.705144 0.622747 3.37951
0.690065 0.744657 4.48532
0.758341 0.968257 -3.13049
0.653028 1.86056 3.13275
0.667995 1.95344 4.27304
0.767273 2.31553 -3.1124
0.767425 2.48571 -2.02258
0.751878 2.8187 -0.729376
0.719963 3.16561 0.526723
0.6936 3.42707 1.82053
0.684219 3.56712 2.91175
0.679469 3.67074 4.03651
1.5667 -0.138425 -3.25661
1.58346 -0.0383336 -2.13668
1.63668 -0.0869809 -0.659559
1.65758 -0.163471 0.847084
1.57885 -0.0912854 2.32669
1.51522 0.0259379 3.4588
1.48179 0.151886 4.56836
1.54727 0.275222 -3.23434
1.55502 0.415387 -2.13043
1.61535 0.422924 -0.681846
1.6446 0.403128 0.779943
1.55242 0.510579 2.23134
1.48298 0.628675 3.36137
1.459 0.747547 4.47572
1.53334 1.01215 -3.14863
1.53581 1.14269 -2.03866
1.56083 1.38268 -0.690057
1.51269 1.56766 0.648154
1.42569 1.74303 1.99957
1.41252 1.85072 3.13566
1.42295 1.94722 4.27366
1.53981 2.35202 -3.13034
1.53863 2.52352 -2.04234
1.52198 2.83578 -0.741286
1.48126 3.1595 0.528152
1.44245 3.41111 1.83073
1.42973 3.55218 2.92194
1.42796 3.65939 4.04392
-0.765599 0.74 -2.0775
-4.5985e-05 0.389496 -2.2005
-0.820973 0.397496 -1.40833
-0.779143 1.12911 2.20588
2.02656e-06 0.478465 2.29153
-0.883346 0.381566 1.53833
2.5034e-06 1.10707 -2.06707
-0.757293 1.18088 -1.33167
0 1.7742 1.99597
-0.684918 1.68022 1.32167
0.765371 0.74 -2.07731
0.820941 0.397452 -1.40833
0.77915 1.12911 2.20589
0.883345 0.381554 1.53833
0.757271 1.18085 -1.33167
0.684918 1.68022 1.32167
-0.836506 0.405185 0.0650001
-0.873037 0.874104 -0.67
-2.33544e-06 0.360944 -0.671667
-0.872284 0.965513 0.73
-1.9e-07 0.336067 0.801667
-0.749328 1.45877 -0.005
8.73906e-06 1.60854 -0.668333
-3.16158e-06 1.81857 0.658333
0.836488 0.405159 0.0650001
0.873038 0.874084 -0.67
0.872289 0.965496 0.73
0.749335 1.45878 -0.005
-0.886157 0.807052 -1.37
-0.872674 0.919809 0.03
-0.867263 1.04731 1.43
-2.41602e-05 0.380659 -1.40833
-1.26272e-06 0.362208 0.0650001
9.18279e-07 0.378696 1.53833
-2.17408e-05 0.74 -2.25467
1.01328e-06 1.12911 2.23146
5.62123e-06 1.23555 -1.33167
2.78874e-06 1.81183 -0.005
-1.58079e-06 1.83595 1.32167
0.886156 0.807042 -1.37
0.872678 0.91979 0.03
0.867267 1.04731 1.43
-1.15776 0.4302 -2.13772
-0.76206 0.216841 -2.14774
-0.766461 0.361988 -2.69113
-1.16222 0.502799 2.25317
-0.801002 0.191579 2.31706
-0.790394 0.558876 2.82725
-1.14762 1.08884 -2.01683
-0.762624 1.00163 -2.56275
-0.764502 1.76035 -2.00879
-1.02149 1.75314 1.99228
-0.686694 1.8119 2.55887
-0.693514 2.59515 1.90276
0.780708 0.216835 -2.14774
0.764418 0.361986 -2.69113
1.15839 0.430194 -2.13772
0.780496 0.191574 2.31706
0.743335 0.558873 2.82725
1.16697 0.50279 2.25317
0.756344 1.00163 -2.56275
0.760886 1.76035 -2.00879
1.14508 1.08884 -2.01683
0.639014 1.81189 2.55887
0.6593 2.59515 1.90276
1.02535 1.75313 1.99228
-1.22139 0.409861 -0.676756
-0.819613 0.150856 -0.664687
-1.26047 0.382732 0.790805
-0.87316 0.0831031 0.833646
-1.17376 1.36708 -0.679195
-0.782998 2.08508 -0.698855
-1.11002 1.56821 0.653244
-0.745017 2.36718 0.592528
0.838454 0.150808 -0.664687
1.22434 0.409805 -0.676756
0.874033 0.083076 0.833646
1.26781 0.382695 0.790805
0.768424 2.08509 -0.698855
1.1729 1.36708 -0.679195
0.718161 2.36717 0.592528
1.11452 1.5682 0.653244
-1.55262 -0.0883572 -2.69665
-1.54742 0.0684128 -3.24547
-1.15699 -0.129221 -3.26134
-1.58312 -0.0626145 -1.39812
-1.55566 0.188547 -2.13356
-1.15996 -0.0248123 -2.14359
-1.62564 -0.125173 0.0937624
-1.60901 0.168029 -0.670703
-1.20723 -0.0909765 -0.658633
-1.61687 -0.127342 1.58689
-1.63632 0.119876 0.813513
-1.24901 -0.179753 0.856355
-1.58134 -0.0326511 2.89275
-1.56697 0.209669 2.27902
-1.20575 -0.101551 2.3429
-1.5747 0.0889327 4.01358
-1.55648 0.327325 3.41009
-1.19158 0.0198959 3.46979
-1.57019 0.449737 4.52204
-1.1988 0.148401 4.57473
-1.55046 0.345317 -2.68238
-1.54563 0.643692 -3.19148
-1.15916 0.277104 -3.23579
-1.58155 0.41919 -1.40614
-1.54728 0.779045 -2.08455
-1.61968 0.413077 0.0490486
-1.58601 0.902835 -0.685952
-1.58642 0.456886 1.50564
-1.5668 0.985431 0.714049
-1.54212 0.569645 2.79636
-1.48045 1.12682 2.11545
-1.55197 0.688129 3.91855
-1.50735 1.23971 3.24852
-1.17029 0.625722 3.37044
-1.54683 1.3474 4.37469
-1.18865 0.746116 4.48052
-1.54246 1.07742 -2.59364
-1.54697 1.68209 -3.13948
-1.15746 0.990204 -3.13956
-1.55174 1.26269 -1.36436
-1.54488 1.83311 -2.0405
-1.53312 1.47519 -0.0209515
-1.55519 2.10924 -0.715672
-1.46082 1.65537 1.32386
-1.51401 2.3636 0.588153
-1.44568 1.79689 2.56762
-1.45892 2.57708 1.91515
-1.50221 1.89899 3.70466
-1.49139 2.70147 3.0288
-1.11089 1.85565 3.13421
-1.53377 2.80332 4.15879
-1.16361 1.95034 4.27335
-1.5494 2.43778 -2.58634
-1.16287 2.33378 -3.12137
-1.54833 2.67966 -1.39181
-1.16176 2.50462 -2.03246
-1.53608 2.99765 -0.106567
-1.16443 2.82725 -0.735331
-1.51211 3.28532 1.17944
-1.14901 3.16257 0.527437
-1.50463 3.48166 2.37634
-1.13095 3.4191 1.82563
-1.52294 3.60581 3.48293
-1.14112 3.55967 2.91684
-1.16598 3.66508 4.04022
-0.764332 -0.0656765 -2.70828
-0.768733 0.0794701 -3.25166
0.00918396 -0.120039 -3.26607
-0.784074 -0.0531743 -1.4041
0.0186943 -0.0113242 -2.15049
-0.830598 -0.145557 0.103959
0.0188437 -0.0950508 -0.657707
-0.837895 -0.153963 1.61237
0.000873235 -0.196097 0.865625
-0.815994 -0.0490045 2.91995
-0.0205083 -0.111847 2.35911
-0.815677 0.0793646 4.03094
-0.805386 0.318293 3.43015
-0.0398075 0.0138295 3.48079
-0.817264 0.44478 4.5332
-0.0563437 0.144891 4.58109
-0.770984 0.623617 -3.18387
-0.00199621 0.278973 -3.23725
-0.806974 0.683709 3.93241
-0.773827 1.24166 3.25613
-0.0470612 0.622749 3.37951
-0.805429 1.34906 4.37918
-0.0623079 0.744661 4.48532
-0.773355 1.6419 -3.12145
-0.00628237 0.968258 -3.13049
-0.772282 1.90701 3.70289
-0.760619 2.71385 3.02225
-0.0476795 1.86056 3.13275
-0.79582 2.8121 4.15477
-0.064091 1.95345 4.27304
-0.775233 2.40062 -2.56749
-0.00426558 2.31554 -3.1124
-0.777853 2.65221 -1.37598
-0.00361816 2.48571 -2.02258
-0.777357 2.99216 -0.101327
-0.0145831 2.8187 -0.729376
-0.767848 3.29635 1.17363
-0.0268529 3.16562 0.526723
-0.767439 3.4971 2.36614
-0.0342139 3.42707 1.82053
-0.784157 3.61894 3.47413
-0.0443159 3.56713 2.91175
-0.057997 3.67075 4.03651
0.79221 -0.0656865 -2.70828
0.77592 0.0794645 -3.25166
1.17574 -0.129234 -3.26134
0.821612 -0.0532008 -1.4041
1.19156 -0.024832 -2.14359
0.850315 -0.145591 0.103959
1.24013 -0.091026 -0.658633
0.81826 -0.153981 1.61237
1.25732 -0.179791 0.856355
0.755678 -0.0490132 2.91995
1.17916 -0.101569 2.3429
0.719525 0.0793556 4.03094
0.718517 0.318286 3.43015
1.12356 0.0198817 3.46979
0.698613 0.444771 4.53321
1.09447 0.148386 4.57473
0.762705 0.623614 -3.18387
1.15717 0.277097 -3.23579
0.697605 0.683702 3.93241
0.679086 1.24165 3.25613
1.09406 0.625711 3.37044
0.67903 1.34905 4.37918
1.07453 0.746102 4.48052
0.762807 1.6419 -3.12145
1.14584 0.990201 -3.13956
0.660512 1.907 3.70289
0.668624 2.71384 3.02225
1.03277 1.85564 3.13421
0.673732 2.81209 4.15477
1.04547 1.95033 4.27335
0.767349 2.40062 -2.56749
1.15354 2.33378 -3.12137
0.759652 2.6522 -1.37598
1.15303 2.50461 -2.03246
0.735921 2.99216 -0.101327
1.13693 2.82724 -0.735331
0.706782 3.29634 1.17363
1.10061 3.16255 0.527437
0.688909 3.49709 2.36614
1.06803 3.41909 1.82563
0.681844 3.61893 3.47413
1.05698 3.55965 2.91684
1.05372 3.66507 4.04022
1.57508 -0.0883795 -2.69665
1.55698 0.0683984 -3.24547
1.61007 -0.0626573 -1.39812
1.56924 0.188527 -2.13356
1.64713 -0.125226 0.0937624
1.62601 0.167972 -0.670703
1.61821 -0.127378 1.58689
1.65109 0.119829 0.813513
1.54703 -0.0326737 2.89275
1.56563 0.209647 2.27902
1.49851 0.0889119 4.01358
1.4991 0.327306 3.41009
1.4704 0.449717 4.52204
1.55114 0.345305 -2.68238
1.54031 0.643684 -3.19148
1.58518 0.419156 -1.40614
1.54541 0.779038 -2.08455
1.62998 0.413026 0.0490485
1.58809 0.902802 -0.685952
1.59851 0.456854 1.50564
1.57865 0.985395 0.714049
1.5177 0.569627 2.79636
1.48906 1.1268 2.11545
1.47099 0.688111 3.91855
1.44775 1.2397 3.24852
1.44098 1.34738 4.37469
1.53458 1.07742 -2.59364
1.53658 1.68208 -3.13948
1.54832 1.26268 -1.36436
1.53722 1.83311 -2.0405
1.53676 1.47517 -0.0209516
1.54141 2.10923 -0.715672
[...]
POINT_DATA 29498
VECTORS point_vectors float
-4.73111 -4.16391 5.20004
0.123783 0.0975579 0.342527
-2.27394 1.96303 4.32432
0.0975074 -0.189728 0.964783
4.73639 -4.15793 5.20398
-0.11614 0.131421 0.349448
2.25937 1.94589 4.31338
-0.09661 -0.191126 0.968711
0.0083122 -0.00899035 0.194381
-0.344068 0.195389 1.37926
0.00689448 0.000633075 0.117231
0.00110499 0.0031925 0.00808521
-0.0080137 -0.00788327 0.19409
0.336614 0.178891 1.3714
-0.00736281 0.000845922 0.120243
-0.00106206 0.00306866 0.00786439
-0.597788 -0.418086 19.9458
-1.18779 -0.888748 20.6722
-0.441314 -0.5204 21.5778
0.00829412 -0.195228 21.9035
0.705213 0.171653 21.9082
1.04192 0.379708 21.6257
1.14732 0.133169 21.4628
-0.764874 -0.350753 19.768
-1.80149 -0.776618 20.5853
-0.697746 -0.689658 21.6951
-0.0713664 -0.366156 21.9962
0.89011 -0.295181 22.1253
1.50371 -0.234738 21.7781
1.35912 -0.21756 21.7642
-0.977252 0.0275112 19.626
-2.1689 0.135618 20.422
-1.73778 -0.331786 21.6831
-0.690812 -0.384068 22.0675
-0.113554 -0.60162 22.0993
0.40786 -0.767768 21.9276
0.564986 -0.83207 21.0508
-0.504971 0.304687 20.0037
-0.732838 0.486069 20.3946
-0.769205 0.406606 21.1657
-0.415058 0.0838507 21.6099
-0.117499 -0.0869825 21.8035
0.111868 -0.0851734 21.4183
0.140609 -0.00447752 20.7299
-0.576695 -0.773888 19.4224
-1.64849 -3.06757 20.8886
-0.379804 -0.662006 21.9803
-0.100273 -0.344037 22.1699
0.751419 1.21236 21.704
1.53703 1.78181 20.4628
1.78031 1.47144 18.7073
-0.827611 -0.721494 18.9103
2.54278 0.290273 10.74
2.50901 0.533561 15.8443
-1.14666 0.212596 18.4262
0.127136 -1.16989 14.6353
0.352317 -1.15677 16.9282
-0.442861 0.623409 19.7184
-0.711123 1.1511 20.1391
-0.751427 1.08292 21.2176
-0.425889 0.312951 21.7823
-0.123492 -0.0921903 21.8842
0.0615681 -0.0984404 21.3898
0.0654673 -0.0814309 21.093
0.582298 -0.761066 19.4363
1.68583 -2.9376 20.879
0.388101 -0.632886 21.9498
0.0386798 -0.264296 22.1861
-0.66832 1.21571 21.7332
-1.40067 1.90404 20.3411
-1.70536 1.56879 17.7984
0.834659 -0.722228 18.9052
-2.38985 0.854851 9.11046
-2.51396 0.910239 14.2884
1.13756 0.217452 18.3987
0.139254 -1.14623 12.6957
-0.0725475 -1.29207 15.7246
0.443697 0.625336 19.7123
0.709786 1.15567 20.1346
0.737542 1.10233 21.2255
0.393434 0.313671 21.7835
0.109708 -0.0995854 21.986
-0.0428905 -0.0953908 21.3207
-0.0664557 -0.0680806 21.007
0.601893 -0.412898 19.9606
1.18411 -0.848408 20.6879
0.4305 -0.511533 21.5659
-0.0242689 -0.189207 21.893
-0.708447 0.180499 21.8944
-1.10057 0.380586 21.6803
-1.19464 0.219942 21.5311
0.768063 -0.357879 19.7674
1.81381 -0.78866 20.6099
0.698326 -0.683942 21.7015
0.0651912 -0.36952 21.994
-0.881223 -0.287476 22.1424
-1.60959 -0.220535 21.8078
-1.59715 -0.312039 21.3482
0.98116 0.0241931 19.6296
2.18387 0.133034 20.4307
1.7402 -0.338691 21.6905
0.685938 -0.400358 22.0812
0.1039 -0.602447 22.0865
-0.363047 -0.844284 22.0775
-0.519648 -0.929867 21.5102
0.508111 0.308025 20.0053
0.738397 0.493084 20.3919
0.775859 0.419156 21.1699
0.427187 0.109406 21.619
0.11414 -0.0831088 21.8685
-0.0886403 -0.085003 21.431
-0.129155 -0.00946094 20.7415
0 0 0
-0.0051345 -3.35122 3.69405
0.00278365 -0.00906333 0.32259
-0.0527045 -0.242115 0.0699571
-0.0187178 -0.154525 0.124898
0.0134609 -0.0080146 0.336513
0.00367879 0.267549 0.553206
-0.439123 -0.0817203 0.571403
0.00223214 0.068859 -0.00954944
0.00539943 0.00949563 0.12971
5.41314e-16 1.64432e-17 5.01763e-16
-0.0038789 -0.00963682 0.319712
0.0524528 -0.279474 0.0764024
-0.0129672 -0.00718177 0.337358
0.441283 -0.0824826 0.571509
-0.00534934 0.00938798 0.12923
-0.0102807 0.0429623 0.504478
5.87315e-05 0.00168192 0.00917642
-0.000242589 -0.000132452 0.012192
0.000141478 0.0048225 0.0204529
0.013731 0.0403416 0.263476
0.00197498 0.00641885 0.00627699
0.000372863 0.0820641 0.112874
5.15765e-06 0.000226446 0.0137883
0.00885 0.0376152 0.508654
-5.74828e-05 0.00164813 0.00901658
-0.000141333 0.00477017 0.0203973
-0.00195485 0.00633923 0.00620482
-3.5e-06 -1.75447e-05 0.000127897
5.11901e-05 0.00201929 0.00620909
0.000314697 0.000934697 0.0181411
-1.85138e-06 2.72391e-07 -3.35634e-05
0 0 0
-4.13022e-05 2.54612e-05 0.000851045
0 0 0
0.00099184 -0.0398318 0.00471415
3.94896e-07 0.000293802 0.00152079
2.01038e-06 0.000452504 0.0089988
1.42091e-05 0.000130481 0.0171039
3.70216e-06 -1.87447e-05 0.000135598
-5.11974e-05 0.00199243 0.00622162
-0.000319503 0.000995067 0.0181645
-3.52404 -1.8772 20.5677
-3.30451 -5.40792 21.0635
-2.18855 -1.9832 17.7469
1.60288 -0.0782407 20.0787
1.45122 1.48185 14.0682
1.24579 -0.0896983 6.13483
-4.15116 0.788556 20.3413
-3.3656 1.35925 16.5837
-1.83985 2.22597 19.7449
-0.179521 -0.51093 19.5363
-0.236896 -0.314054 8.97885
-0.291154 -0.00450747 22.0022
3.35689 -5.23554 21.0063
2.19096 -1.99051 17.7402
3.51894 -1.87623 20.5773
-1.21922 1.55126 13.7618
-1.09017 0.183842 4.97243
-1.56946 -0.0681771 20.1827
3.36587 1.37509 16.5347
1.83839 2.23918 19.7456
4.16949 0.799808 20.3359
0.46195 -0.307057 7.55004
0.282409 0.00691889 21.9885
0.183778 -0.529693 19.6734
-0.360286 -0.953655 21.9543
-0.23101 -0.399896 18.8455
-0.0747204 -0.317511 21.8296
-0.304302 -0.848528 19.5016
-3.21866 -0.748064 22.1892
-2.47775 2.60779 21.2073
-0.958875 -0.598526 21.1377
-0.811761 0.590416 22.2675
0.257517 -0.402858 19.3165
0.364469 -0.957625 21.9766
0.112647 -0.792828 19.6704
0.0370549 -0.35365 21.9028
2.47553 2.66955 21.2033
3.22332 -0.754491 22.1844
0.807653 0.610593 22.2829
0.970457 -0.627886 21.2893
-0.961256 -0.688365 20.1509
-0.693075 -0.402762 19.8797
-0.654358 -0.612236 19.6908
-0.857482 -0.754206 21.3235
-1.49438 -0.888322 20.6314
-1.59501 -1.65472 20.7042
-0.193134 -0.344268 21.7297
-0.532946 -0.57978 21.6496
-0.397629 -0.593052 21.764
0.31163 -0.0209846 22.0124
-0.0360202 -0.258165 21.9084
-0.0379392 -0.226615 22.0116
0.945231 0.285627 21.7428
0.891539 0.00826952 22.0268
0.912797 0.560588 22.0835
1.21242 0.265653 20.6601
1.4032 0.139971 21.7453
1.4761 0.921757 21.8118
1.42558 0.000745171 21.7236
1.46431 0.69761 21.8535
-1.35898 -0.565481 19.9264
-0.899426 -0.216767 19.6515
-0.874902 -0.537226 19.38
-1.29459 -0.795904 21.4247
-2.26591 -0.40261 20.518
-0.318607 -0.516096 21.8289
-1.20549 -0.732158 21.7637
0.342184 -0.318129 22.1859
-0.306668 -0.531516 22.0873
1.23509 -0.277931 22.0439
0.471794 -0.746017 22.1027
1.39054 -0.170126 21.6735
0.96516 -0.835047 21.8163
2.23886 0.164238 20.5033
1.08939 -0.5875 21.9729
2.10847 -0.326806 19.2452
-1.66051 0.110509 19.7669
-0.744415 0.295454 19.7734
-1.15272 0.118183 19.1204
-2.05562 -0.137269 21.1499
-1.39667 0.594666 20.3245
-1.16146 -0.387248 22.0241
-1.40105 0.465683 21.325
-0.364493 -0.465555 22.1119
-0.648065 0.0288259 21.8959
0.0963154 -0.692562 21.9867
-0.181103 -0.164628 21.8538
0.571909 -0.856538 21.8128
-0.00343588 -0.283148 21.6458
0.268148 -0.963876 21.6801
0.126256 -0.395418 21.605
0.454448 -1.14723 22.6029
-0.644588 0.420332 20.1653
-0.488914 0.463449 19.842
-0.824272 0.514191 20.8021
-0.774944 0.817507 20.2891
-0.605695 0.254866 21.3409
-0.880971 0.708568 21.2183
-0.270625 -0.0233636 21.75
-0.530276 0.297766 21.7274
0.0276745 -0.0979314 21.6871
-0.15076 -0.0762716 21.8089
0.142449 -0.0369851 20.8835
0.0942197 -0.107296 21.491
0.0764656 -0.0581721 21.1487
-1.12682 -1.79456 19.3788
-0.666428 -0.754373 19.2021
0.00564391 -1.06583 19.1314
-0.748985 -1.32908 21.9906
0.0519346 -4.35875 21.2732
-0.214481 -0.370818 21.872
0.0266095 -0.871449 22.0547
0.268408 0.34431 22.3394
0.101403 -0.349243 22.0217
0.977645 1.57326 21.3101
-0.010619 1.05351 21.0939
1.27772 1.60601 19.9774
2.35091 1.9575 16.5918
-0.0426206 2.09426 19.5616
2.19664 1.55008 16.0159
0.270237 2.32809 17.9829
-1.0884 -0.428698 18.5306
0.00087486 -0.992306 18.3662
2.8283 1.08361 12.5542
0.840487 -1.04885 4.58783
0.130274 1.34212 1.41564
1.7504 -1.04766 10.9297
0.319926 3.10408 6.45719
-0.760313 0.718813 19.1094
-0.00913674 0.399857 17.4966
0.0885819 -1.48964 15.3953
-0.0601245 -0.312124 21.6472
-0.201931 0.130538 2.25438
-0.0166935 -0.483037 21.6698
0.164055 -0.969078 10.0887
-0.596292 0.933164 19.8532
-0.00168548 0.768655 19.5212
-0.782349 1.21662 20.6091
-0.00480169 1.51999 19.9921
-0.586454 0.669432 21.5803
-0.0179475 1.48677 21.2165
-0.27501 0.023041 22.0825
-0.00825164 0.530576 21.8411
-0.054603 -0.0818939 21.574
-0.00246832 -0.0646327 21.92
0.0950468 -0.139856 21.0656
0.0037298 -0.104884 21.2315
0.0129285 -0.00124355 21.642
1.14584 -1.74076 19.4103
0.672048 -0.74882 19.2091
0.652639 -0.603741 19.6968
0.760623 -1.28241 21.9785
1.56522 -1.57026 20.6956
0.208019 -0.34128 21.925
0.398637 -0.588009 21.7576
-0.298612 0.399745 22.31
-0.000636027 -0.211912 22.0051
-0.912358 1.56841 21.4549
-0.901805 0.587438 22.0729
-0.991326 1.84329 19.9894
-2.13842 2.38159 15.221
-1.53771 1.03989 21.8533
-2.26942 1.82382 15.1805
-1.56134 0.921106 21.1757
1.08345 -0.433125 18.5142
0.879096 -0.533679 19.3842
-2.75428 1.64424 10.8655
-0.632523 -0.549808 2.80474
-2.39508 0.211917 18.8084
-1.85896 -0.97901 7.79177
-2.21915 -0.0226836 18.2626
0.75558 0.727107 19.0999
1.15256 0.12278 19.0981
0.0198335 -1.4711 14.1451
0.0937661 -0.291885 21.6668
-0.313924 -1.03511 20.6017
-0.0250119 -0.475873 21.7859
-0.427859 -1.24089 21.2938
0.595341 0.93657 19.8483
0.48808 0.465913 19.8351
0.775362 1.23351 20.6012
0.776467 0.824084 20.286
0.560142 0.67913 21.5696
0.87053 0.734342 21.2167
0.251001 0.0247311 22.0386
0.535824 0.318016 21.7383
0.0606004 -0.0828842 21.5894
0.141169 -0.0793429 21.8145
-0.118589 -0.146514 20.8339
-0.0691888 -0.105 21.4646
-0.0501895 -0.0693059 21.3059
0.957466 -0.675398 20.1655
0.701102 -0.394335 19.8922
0.847388 -0.728487 21.3116
1.48283 -0.869632 20.6392
0.183799 -0.345929 21.7308
0.532739 -0.566893 21.6421
-0.326379 -0.0233137 22.0029
0.0236951 -0.255834 21.9026
-0.953744 0.311709 21.7395
-0.875527 0.0108124 22.02
-1.31584 0.328294 20.7008
-1.44748 0.169429 21.7848
-1.46559 0.0966667 21.837
1.34039 -0.584245 19.9006
0.896247 -0.212957 19.6539
1.29888 -0.798857 21.4244
2.25896 -0.411239 20.5313
0.3212 -0.516916 21.8376
1.19307 -0.732282 21.7773
-0.345223 -0.322974 22.1652
0.299136 -0.534805 22.0842
-1.26137 -0.271536 22.0433
-0.472479 -0.727662 22.1092
-1.48653 -0.0707385 21.7014
-1.00646 -0.89957 21.9853
-1.39217 -0.711275 21.4167
1.66726 0.113709 19.7714
0.748378 0.303864 19.7849
2.06363 -0.135917 21.1547
1.39876 0.603743 20.3111
1.15643 -0.390662 22.0262
1.4123 0.472918 21.3296
0.358539 -0.461083 22.0905
0.661548 0.0344553 21.9078
-0.103175 -0.722696 22.0259
0.193732 -0.176392 21.8832
-0.641913 -0.759506 21.577
0.0027976 -0.324055 21.6544
-0.152742 -0.422232 21.4997
0.64723 0.426427 20.1595
0.829854 0.526513 20.8014
0.619004 0.269774 21.3494
0.269563 -0.0141418 21.8014
-0.00827374 -0.0890287 21.7722
-0.121963 -0.0390357 20.9054
-1.13027 -0.655111 20.0405
-1.55868 -2.02067 18.7352
-1.19023 -1.1872 19.8232
-1.9296 -1.0334 19.2044
-0.759596 -0.608646 19.5747
-2.38741 -1.92735 20.6772
-1.02138 -0.804288 21.384
-0.642862 -1.0171 20.5807
-0.858886 -1.05986 21.6119
-1.32691 -1.40531 22.073
-0.390792 -0.677804 21.9164
-0.232947 -0.405107 21.7733
-0.074239 -0.155907 18.451
-0.178556 -0.35148 21.796
-0.030521 -0.561674 21.6248
-0.0947526 -0.284629 22.0714
0.355345 -0.14178 22.0819
0.467428 0.281902 16.057
0.385361 0.141885 22.2473
0.602276 -0.12918 21.3949
1.45546 0.452267 21.9
1.16262 0.0714728 21.8777
1.95955 1.66649 15.2356
1.21551 0.747977 21.9507
1.91552 -0.0935662 19.8731
2.00196 0.556108 20.9234
1.37126 0.165077 21.4799
2.39093 1.58004 15.97
1.51093 0.715795 21.6319
2.27068 0.184289 20.599
1.80461 0.684166 19.4395
-1.65253 -0.285302 19.7958
-3.33647 -0.630606 16.3526
-2.56062 0.479995 18.8135
-1.09344 -0.326777 19.1514
-4.68855 -0.729985 20.446
-1.75019 -0.607546 21.3934
-3.32247 -0.310974 21.336
-1.28988 -1.47997 21.3486
-0.685747 -0.64393 21.9777
-1.84566 -0.918023 22.403
-0.0442924 -0.452553 19.8913
0.0432784 -0.56796 22.1883
-0.516174 -0.446689 20.4566
0.743027 -0.477055 17.3902
0.757854 -0.822961 22.0228
-0.468588 -1.35855 2.55187
-0.070161 -0.733205 20.6903
1.11242 -1.02185 18.3641
1.06956 -0.782043 22.1934
1.29114 -1.37914 6.66906
0.616671 -1.10656 21.531
1.7416 -1.00327 18.243
-1.11589 0.484907 19.9528
-1.35382 1.57889 19.0419
-0.656741 0.672667 20.0313
-0.840625 0.512397 19.4534
-1.73824 1.24134 20.0741
-1.47959 0.556659 20.8091
-2.10828 2.21549 20.1812
-0.899334 0.850122 20.7019
-1.99852 1.09729 21.3786
-1.02273 0.222695 21.7852
-1.578 1.47576 22.4308
-0.721459 0.448996 21.5565
-0.800649 0.272231 22.0608
-0.406318 -0.059286 21.8905
-0.491703 0.208767 22.133
-0.316747 0.0501419 21.9233
-0.244482 -0.131838 21.8964
-0.117135 -0.293686 21.7814
-0.206725 -0.195902 21.9313
-0.0185777 -0.0864616 21.626
-0.0512912 -0.416617 21.7324
0.0768027 -0.374251 21.0974
-0.14762 -0.516644 22.023
0.0765562 -0.0954183 21.223
0.146379 -0.495409 20.9778
1.57358 -1.98778 18.7686
0.0239244 -2.62423 18.8912
0.000404718 -3.23724 15.9555
0.007998 -1.09071 18.8311
0.0522914 -7.34758 22.4312
0.649803 -1.06066 21.0679
0.0386523 -1.73341 22.4239
0.00363953 -0.407801 14.4709
0.0741768 -0.142715 18.7622
0.0367727 -0.57664 21.7934
0.328212 -0.342543 15.997
-0.548875 0.274152 16.0532
0.0613283 0.318503 21.9108
-0.15257 0.815692 11.9401
-1.69256 1.89231 14.337
-0.0108135 1.49007 20.7371
0.00701069 -0.172351 1.33621
-0.0672384 2.03031 10.1825
-2.2639 2.05403 14.4059
0.0301666 2.94208 18.4453
0.503653 2.01728 3.99581
0.320985 2.38062 13.7519
3.33191 -0.638541 16.3173
-0.0176348 2.94473 13.4416
-0.00638633 -0.589196 17.7086
0.649239 -1.40314 1.14582
-0.0283912 0.51801 0.0850637
0.0335321 0.996053 -4.27651
-1.21601 -0.930142 4.70017
-0.213276 0.208013 4.45014
0.103341 1.56 0.0604037
1.35123 1.59175 19.0354
-0.00197635 1.24836 19.6315
-0.0032244 1.04287 18.6691
-0.00515686 3.4305 19.27
2.10397 2.24143 20.1728
-0.00906426 1.65108 20.4972
-0.025549 4.54669 20.8469
1.56502 1.54928 22.4583
-0.0246948 0.982121 21.7126
-0.0162242 1.02075 22.4143
0.489132 0.22178 22.1401
-0.00217974 0.149087 22.0286
-0.00790693 0.192681 21.9963
0.207603 -0.171744 21.9329
0.00244714 -0.0663863 21.622
-0.0200515 -0.213199 22.0314
0.182764 -0.511575 22.063
-0.0295774 -0.161424 20.9245
-0.042119 -0.276146 21.3798
1.15201 -0.661246 20.053
1.18081 -1.14282 19.8512
1.93443 -1.03606 19.2091
0.763826 -0.603305 19.5802
2.34462 -1.85817 20.6771
1.01467 -0.789263 21.3816
0.865006 -1.03154 21.5888
1.32279 -1.40514 22.0757
0.397046 -0.682401 21.9116
0.229162 -0.397247 21.7779
0.169028 -0.345485 21.8026
0.0240272 -0.576072 21.6823
0.0424007 -0.285124 22.0708
-0.36065 -0.139804 22.0703
-0.404685 0.155305 22.2328
-0.609201 -0.161351 21.4666
-1.44685 0.466695 21.8263
-1.19417 0.067807 21.9056
-1.21242 0.816998 21.9877
-1.94972 -0.0349447 19.2538
-2.04789 0.8357 20.1998
-1.47807 0.229828 21.5128
-1.54295 0.822082 21.9001
-2.41969 0.431061 18.4049
-1.88243 0.948305 18.5313
1.64818 -0.28886 19.8042
2.57603 0.49305 18.7809
1.09558 -0.330839 19.1485
4.70071 -0.734096 20.4495
1.75009 -0.617085 21.4053
3.32988 -0.315862 21.3341
1.28893 -1.48164 21.3745
0.677213 -0.644735 21.9852
1.83824 -0.91381 22.3654
0.0488369 -0.497405 20.0592
-0.045237 -0.555609 22.1833
0.524866 -0.470875 20.5605
-0.749492 -0.474731 17.5866
-0.793428 -0.858026 21.9854
0.0770616 -0.72416 20.4183
-1.15975 -0.978268 15.8077
-1.27687 -0.741734 21.8432
-0.600616 -1.36209 21.1605
-1.7767 -0.996878 16.0267
1.1185 0.491356 19.9306
0.657474 0.677933 20.0283
0.8437 0.517193 19.4433
1.74557 1.25119 20.0767
1.49466 0.562679 20.8126
0.898855 0.87512 20.6963
2.02209 1.13669 21.3751
1.04227 0.235297 21.7958
0.733289 0.470222 21.5826
0.811203 0.287869 22.0739
0.41137 -0.0535626 21.8964
0.313974 0.0452353 21.9311
0.251705 -0.122068 21.9021
0.104039 -0.292841 21.8007
0.0333499 -0.0833913 21.6206
0.0780607 -0.415697 21.8409
-0.060473 -0.404063 21.3426
-0.0442352 -0.119874 21.3333
-0.120614 -0.544266 20.8296
-1.4904 -1.21085 19.5738
-1.0457 -1.18869 21.7861
-0.127884 -0.4002 21.8459
0.560233 0.0389495 22.2226
1.76597 0.546495 21.4572
2.30165 0.491996 20.4334
-2.56749 -0.432807 18.8085
-2.52967 -1.31136 22.218
-0.410473 -1.0129 20.4439
0.302334 -0.222922 18.8226
0.908561 -0.832114 18.7466
1.63064 -0.849933 17.8741
-1.33856 0.959956 19.549
-1.95577 1.17829 20.6338
-1.38472 0.676796 22.0284
-0.453896 0.0352642 22.0065
-0.188213 -0.283429 21.8762
-0.0320553 -0.460847 21.913
0.0232046 -3.14212 17.7752
0.0344823 -1.03787 16.4519
0.0557281 -0.28768 14.3291
0.203444 0.336894 14.3014
-0.141577 0.909076 10.4715
0.0301124 2.12239 9.67813
-0.0117055 -0.947985 13.021
-0.0558184 0.556592 -2.46716
0.188527 2.10313 -1.67888
-0.00549355 2.44878 18.401
-0.0155894 3.50365 19.5023
-0.0241824 2.4698 22.6367
-0.0150783 0.524484 22.1092
-0.0174033 -0.0458856 21.9613
-0.0242254 -0.367676 22.035
1.48645 -1.19038 19.5938
1.04992 -1.16977 21.7697
0.117398 -0.407264 21.871
-0.581634 0.0291272 22.2003
-1.81451 0.647549 21.2288
-2.44831 0.592619 19.9064
2.58323 -0.434686 18.8042
2.52522 -1.31853 22.2213
0.413238 -1.02747 20.5415
-0.300491 -0.262426 19.0056
-0.855685 -0.82488 17.1652
-1.54135 -0.985567 15.0629
1.34111 0.9686 19.5511
1.96174 1.19738 20.6282
1.39656 0.69991 22.0359
0.458079 0.0482031 22.0094
0.184955 -0.274835 21.8742
0.0554158 -0.487127 21.9311
-1.33605 -0.382794 1.70127
-0.0305751 -3.07211 4.07009
0.00105393 -0.0209465 0.310684
-0.0117928 -0.0240049 0.00732115
-0.0276656 -0.0512559 -0.0361015
0 0 0
-0.645218 0.0586512 0.709135
-0.0956028 0.684299 0.923885
-0.614915 -0.0532357 1.21895
-0.0765566 -0.121058 0.0959117
-0.0888883 0.032062 0.0272426
-0.00270989 0.00477522 0.32481
0.0273651 -3.23879 4.33551
1.35686 -0.389777 1.7288
-0.00109106 -0.0204042 0.299823
0.0263411 0.0328307 0.204348
0.0156762 -0.0264617 0.00527926
0 0 0
0.0955702 0.68534 0.928274
0.636514 0.057566 0.699349
0.616136 -0.0529871 1.21763
0.0921816 0.0288781 0.028728
0.0758991 -0.124979 0.0970853
0.00297485 0.00465273 0.323622
0 0 0
-0.00396948 0.0197996 0.368499
0.000283282 0.00099741 0.0551721
1.28982e-18 4.76681e-19 1.5288e-17
0.0494588 -0.0518234 0.942096
-0.0134894 0.0504365 0.352447
0 0 0
0 0 0
0 0 0
0.00940767 0.0283383 0.0919955
0.000445144 0.00152916 0.00168626
-0.0396162 0.0548679 0.0858455
0 0 0
0 0 0
0.000103282 0.000323681 0.000612864
-1.87723e-18 -4.02183e-19 -2.27878e-17
0 0 0
0 0 0
0.00404895 0.0200441 0.370822
-0.000256231 0.00107625 0.0554621
-0.0514216 -0.0563265 0.940185
0 0 0
0.0106133 0.0393894 0.340808
0 0 0
0 0 0
0.0310948 0.0429393 0.0676226
-0.00933711 0.0284152 0.0921409
-0.000442877 0.0015221 0.00166787
0 0 0
0 0 0
0 0 0
-0.000127285 0.000395138 0.000756288
-0.0113084 -0.0142277 0.139237
0 0 0
-3.21719e-09 -2.27986e-07 2.72344e-05
0 0 0
-0.000810446 0.00158354 0.0523479
1.84539e-05 -3.98586e-07 8.77439e-05
0.00469046 -0.00389501 0.148803
-0.00901201 -0.0301737 0.00309193
0 0 0
0 0 0
0 0 0
0 0 0
0 0 0
-6.58874e-08 0.00252208 0.0139209
0 0 0
-0.00585871 -8.9881e-05 0.00305848
0.000143583 -0.000586366 -0.000827958
6.06665e-05 -0.00110444 0.0331032
0.000513176 0.000985843 0.00989404
0.00429503 0.00112006 0.115951
0 0 0
0.0114274 -0.0143821 0.140802
0 0 0
0.000802416 0.00150399 0.0524088
0.0676086 -0.209169 -0.0382315
-0.00483615 -0.00306817 0.150925
-0.000421011 0.00069125 0.0296862
0 0 0
0.00441916 -8.32911e-05 0.00232368
-3.2236e-17 7.27751e-17 -2.27934e-16
-0.00410459 0.00112568 0.116143
-0.00056393 0.00106468 0.0103088
-0.000243482 0.008407 0.0474854
0 0 0
0 0 0
1.23248e-05 0.000437722 0.00140426
0 0 0
9.3193e-05 -0.000168988 0.0397798
0.000115902 0.00328375 0.010456
0 0 0
0 0 0
0 0 0
0.0253659 0.0582574 0.119423
0.000485464 0.000395612 0.00821183
0 0 0
1.29968e-05 0.1404 0.593158
2.48602e-06 0.000104385 0.0046412
1.10073e-05 0.000167452 0.013992
0 0 0
0.000220846 0.00810623 0.0474487
0 0 0
-1.13565e-05 0.000400517 0.00129585
-0.000115916 0.00323606 0.0104633
0 0 0
-0.000496765 0.000402291 0.0085786
-0.0258162 0.0598159 0.122489
-0.000832905 -0.00256185 0.0484754
0 0 0
-0.000398869 0.00378979 0.07859
-0.00261552 -0.009532 0.0399593
-0.00040686 0.00295274 0.0253675
0.010276 0.0389933 0.0929676
-0.000504961 0.0152089 0.0726527
0 0 0
0 0 0
0 0 0
0.000528807 -0.000900095 0.0136349
6.40364e-06 1.98202e-06 0.00031007
-1.69312e-06 6.19185e-08 2.00505e-05
0 0 0
0 0 0
0 0 0