# vtk DataFile Version 2.0
tet_velo
ASCII
DATASET UNSTRUCTURED_GRID
POINTS 29498 float
-0.695 0.185 -1.96948
-0.755 0.275 1.96138
-0.705537 0.705 -1.865
-0.735 0.905 1.90659
0.695 0.185 -1.96948
0.755 0.275 1.96138
0.705532 0.705 -1.865
0.735 0.905 1.90659
-0.747398 0.182602 -0.659193
-0.781554 0.198446 0.651093
-0.795421 0.85173 -0.607803
-0.795061 0.908216 0.649393
0.747397 0.182603 -0.659193
0.781554 0.198447 0.651093
0.795418 0.85173 -0.607803
0.795045 0.908201 0.649393
-1.4599 -0.185048 -3.01853
-1.46011 -0.137381 -1.99156
-1.50376 -0.133499 -0.679902
-1.53625 -0.126603 0.642442
-1.52638 -0.0735663 1.955
-1.52161 -0.0337291 2.98637
-1.52354 6.91377e-05 4.00959
-1.45602 0.11495 -2.98537
-1.45713 0.178837 -1.96421
-1.51471 0.197918 -0.662878
-1.54418 0.207594 0.64323
-1.51781 0.256469 1.94558
-1.51638 0.295234 2.9762
-1.52202 0.329081 4.00115
-1.46182 0.688678 -2.90417
-1.47174 0.751239 -1.8808
-1.54754 0.856847 -0.615667
-1.55761 0.899638 0.645709
-1.51117 0.910755 1.91186
-1.51406 0.947608 2.94468
-1.52388 0.986049 3.97819
-1.48259 1.6373 -2.82227
-1.49436 1.71045 -1.80686
-1.52894 1.8214 -0.558935
-1.55149 1.89897 0.677546
-1.54877 1.93404 1.92602
-1.54288 1.95825 2.9426
-1.5412 1.98845 3.9703
-0.720368 -0.182456 -3.02195
-0.708045 -0.132545 -1.99656
-0.740161 -0.140986 -0.679232
-0.770555 -0.133261 0.649153
-0.765536 -0.0650032 1.96673
-0.761868 -0.028088 2.99434
-0.763381 0.00228996 4.0142
-0.718083 0.112381 -2.98643
-0.758412 0.30121 2.98277
-0.762776 0.331055 4.00462
-0.720852 0.668923 -2.8976
-0.755747 0.946691 2.94363
-0.76502 0.98566 3.97797
-0.728073 1.6243 -2.81578
-0.731518 1.69847 -1.79971
-0.758692 1.81901 -0.554624
-0.782648 1.90196 0.677029
-0.785382 1.93474 1.92233
-0.781178 1.95748 2.93891
-0.779673 1.98758 3.96762
0.725098 -0.182456 -3.02195
0.727562 -0.132545 -1.99656
0.759091 -0.140986 -0.679232
0.775444 -0.133261 0.649153
0.758114 -0.0650035 1.96673
0.755827 -0.0280887 2.99434
0.755835 0.00228887 4.0142
0.714209 0.112381 -2.98643
0.751753 0.30121 2.98277
0.753214 0.331054 4.00462
0.7208 0.668923 -2.8976
0.743993 0.94669 2.94363
0.748259 0.985658 3.97797
0.76731 1.6243 -2.81578
0.778842 1.69847 -1.79971
0.781944 1.81901 -0.554624
0.765145 1.90195 0.677028
0.746964 1.93474 1.92233
0.743215 1.95748 2.9389
0.74346 1.98758 3.96762
1.4605 -0.185049 -3.01853
1.4662 -0.137381 -1.99156
1.51203 -0.1335 -0.679902
1.54143 -0.126605 0.642442
1.52672 -0.0735679 1.955
1.51946 -0.033731 2.98638
1.518 6.63723e-05 4.00959
1.44879 0.114949 -2.98537
1.44996 0.178837 -1.96421
1.5111 0.197916 -0.662878
1.54661 0.20759 0.64323
1.52234 0.256467 1.94558
1.51456 0.295232 2.9762
1.5147 0.329079 4.00115
1.45854 0.688677 -2.90417
1.46676 0.751239 -1.8808
1.54362 0.856844 -0.615667
1.55731 0.899624 0.645709
1.51217 0.910751 1.91186
1.50632 0.947605 2.94468
1.50925 0.986045 3.97819
1.51485 1.6373 -2.82227
1.53026 1.71045 -1.80686
1.54567 1.8214 -0.558936
1.53724 1.89896 0.677546
1.51716 1.93403 1.92602
1.50916 1.95825 2.9426
1.50725 1.98844 3.9703
-0.741242 0.445 -1.95821
0 0.181461 -1.97302
-0.728251 0.176749 -1.31434
-0.788471 0.59 1.97746
0 0.267439 1.96894
-0.794562 0.210438 1.30624
-2.5034e-06 0.748743 -1.90874
-0.778556 0.806441 -1.2364
0 0.969681 1.97127
-0.785915 0.927492 1.27799
0.741291 0.445 -1.95827
0.72825 0.17675 -1.31434
0.788887 0.59 1.97787
0.794573 0.210427 1.30624
0.778547 0.806437 -1.2364
0.785909 0.927487 1.27799
-0.764138 0.190862 -0.00405002
-0.849289 0.517166 -0.633498
-6.0191e-07 0.199601 -0.659193
-0.871743 0.553331 0.650243
-2.47613e-07 0.213423 0.651093
-0.799385 0.884116 0.020795
-1.31332e-06 1.09135 -0.607803
-8.11797e-06 1.30344 0.649393
0.763964 0.191036 -0.00405002
0.849308 0.517167 -0.633498
0.871726 0.553324 0.650243
0.799378 0.884112 0.020795
-0.835068 0.481083 -1.27537
-0.862323 0.535248 0.00837249
-0.883113 0.571665 1.29211
-3.00955e-07 0.199196 -1.31434
-4.24761e-07 0.205421 -0.00405002
-1.23806e-07 0.228729 1.30624
-1.2517e-06 0.445 -2.13918
0 0.59 2.07906
-1.90836e-06 0.851574 -1.2364
-4.71564e-06 1.30369 0.020795
-4.05898e-06 1.11885 1.27799
0.835067 0.481083 -1.27537
0.862314 0.535245 0.00837249
0.883119 0.571662 1.29211
-1.07607 0.181918 -1.96684
-0.701522 0.0262276 -1.98302
-0.706542 0.14869 -2.47795
-1.13641 0.265734 1.95348
-0.760268 0.104998 1.96406
-0.756706 0.288105 2.47207
-1.08864 0.728119 -1.8729
-0.713195 0.686961 -2.3813
-0.718527 1.20174 -1.83235
-1.12308 0.907878 1.90923
-0.745374 0.925845 2.42511
-0.760191 1.41987 1.91446
0.711281 0.0262276 -1.98302
0.704605 0.14869 -2.47795
1.07248 0.181918 -1.96684
0.756557 0.104998 1.96406
0.753376 0.288105 2.47207
1.13867 0.265734 1.95348
0.713166 0.686961 -2.3813
0.742187 1.20174 -1.83235
1.08615 0.728119 -1.8729
0.739497 0.925845 2.42511
0.740982 1.41987 1.91446
1.12359 0.907875 1.90923
-1.13105 0.19026 -0.661036
-0.743779 0.0208079 -0.669213
-1.16287 0.20302 0.647162
-0.776054 0.0325927 0.650123
-1.17148 0.854288 -0.611735
-0.777056 1.33537 -0.581214
-1.17633 0.903927 0.647551
-0.788855 1.40509 0.663211
0.753244 0.0208087 -0.669213
1.12925 0.19026 -0.661036
0.778499 0.0325929 0.650123
1.16408 0.203018 0.647162
0.788681 1.33537 -0.581214
1.16952 0.854287 -0.611735
0.780095 1.40508 0.663211
1.17618 0.903913 0.647551
-1.46 -0.161214 -2.50505
-1.45796 -0.0350492 -3.00195
-1.09013 -0.183752 -3.02024
-1.48193 -0.13544 -1.33573
-1.45862 0.020728 -1.97788
-1.08408 -0.134963 -1.99406
-1.52 -0.130051 -0.0187304
-1.50923 0.0322091 -0.67139
-1.12196 -0.137243 -0.679567
-1.53131 -0.100084 1.29872
-1.54021 0.0404957 0.642836
-1.1534 -0.129932 0.645797
-1.52399 -0.0536477 2.47069
-1.5221 0.0914513 1.95029
-1.14596 -0.0692847 1.96087
-1.52257 -0.01683 3.49798
-1.519 0.130752 2.98129
-1.14174 -0.0309085 2.99035
-1.52278 0.164575 4.00537
-1.14346 0.00117955 4.01189
-1.45658 0.146893 -2.47479
-1.45892 0.401814 -2.94477
-1.08705 0.113665 -2.9859
-1.48592 0.188377 -1.31354
-1.46444 0.465038 -1.92251
-1.52944 0.202756 -0.00982407
-1.53112 0.527382 -0.639272
-1.53099 0.232031 1.2944
-1.55089 0.553616 0.644469
-1.5171 0.275851 2.46089
-1.51449 0.583612 1.92872
-1.5192 0.312158 3.48867
-1.51522 0.621421 2.96044
-1.1374 0.298222 2.97948
-1.52295 0.657565 3.98967
-1.1424 0.330068 4.00289
-1.46678 0.719958 -2.39248
-1.47221 1.16299 -2.86322
-1.09134 0.6788 -2.90088
-1.50964 0.804043 -1.24824
-1.48305 1.23084 -1.84383
-1.55257 0.878243 0.0150209
-1.53824 1.33912 -0.587301
-1.53439 0.905197 1.27879
-1.55455 1.3993 0.661627
-1.51262 0.929182 2.42827
-1.52997 1.4224 1.91894
-1.51897 0.966828 3.46144
-1.52847 1.45293 2.94364
-1.13491 0.947149 2.94416
-1.53254 1.48725 3.97425
-1.14445 0.985854 3.97808
-1.48848 1.67387 -2.31456
-1.10533 1.6308 -2.81902
-1.51165 1.76593 -1.1829
-1.11294 1.70446 -1.80328
-1.54022 1.86019 0.0593052
-1.14382 1.82021 -0.55678
-1.55013 1.9165 1.30179
-1.16707 1.90046 0.677287
-1.54582 1.94614 2.43431
-1.16707 1.93439 1.92418
-1.54204 1.97335 3.45645
-1.16203 1.95787 2.94075
-1.16044 1.98801 3.96896
-0.714206 -0.1575 -2.50926
-0.719226 -0.0350374 -3.00419
0.00236511 -0.182456 -3.02195
-0.724103 -0.136766 -1.3379
0.00975895 -0.132545 -1.99656
-0.755358 -0.137124 -0.0150395
0.00946504 -0.140986 -0.679232
-0.768045 -0.0991319 1.30794
0.00244474 -0.133261 0.649153
-0.763702 -0.0465456 2.48053
-0.00371056 -0.0650033 1.96673
-0.762625 -0.012899 3.50427
-0.76014 0.136561 2.98855
-0.00302041 -0.0280883 2.99434
-0.763078 0.166672 4.00941
-0.00377305 0.00228941 4.0142
-0.719468 0.390652 -2.94201
-0.00193717 0.112381 -2.98643
-0.760594 0.316133 3.49369
-0.757079 0.623951 2.9632
-0.00332967 0.30121 2.98277
-0.763898 0.658357 3.99129
-0.00478119 0.331054 4.00462
-0.724462 1.14661 -2.85669
-2.62326e-05 0.668923 -2.8976
-0.760384 0.966175 3.4608
-0.768462 1.45209 2.94127
-0.0058768 0.94669 2.94363
-0.772347 1.48662 3.97279
-0.0083804 0.985659 3.97797
-0.729795 1.66139 -2.30774
0.0196187 1.6243 -2.81578
-0.745105 1.75874 -1.17717
0.0236618 1.69847 -1.79971
-0.77067 1.86049 0.0612021
0.0116263 1.81901 -0.554624
-0.784015 1.91835 1.29968
-0.00875173 1.90195 0.677029
-0.78328 1.94611 2.43062
-0.0192088 1.93474 1.92233
-0.780425 1.97253 3.45326
-0.0189812 1.95748 2.93891
-0.0181064 1.98758 3.96762
0.72633 -0.1575 -2.50926
0.719654 -0.0350376 -3.00419
1.0928 -0.183752 -3.02024
0.743327 -0.136765 -1.3379
1.09688 -0.134963 -1.99406
0.767267 -0.137123 -0.0150395
1.13556 -0.137243 -0.679567
0.766779 -0.0991321 1.30794
1.15844 -0.129933 0.645797
0.756971 -0.0465461 2.48053
1.14242 -0.0692857 1.96087
0.755831 -0.0128999 3.50427
0.75379 0.13656 2.98855
1.13765 -0.0309098 2.99036
0.754524 0.166671 4.00941
1.13692 0.00117762 4.01189
0.717504 0.390652 -2.94201
1.0815 0.113665 -2.9859
0.752483 0.316132 3.49369
0.747873 0.62395 2.9632
1.13316 0.298221 2.97948
0.750737 0.658356 3.99129
1.13396 0.330066 4.00289
0.744055 1.14661 -2.85669
1.08967 0.6788 -2.90088
0.746126 0.966174 3.4608
0.743604 1.45208 2.94127
1.12516 0.947147 2.94416
0.74586 1.48662 3.97279
1.12876 0.985852 3.97808
0.773076 1.66138 -2.30774
1.14108 1.6308 -2.81902
0.780393 1.75874 -1.17717
1.15455 1.70446 -1.80328
0.773545 1.86048 0.061202
1.16381 1.8202 -0.55678
0.756055 1.91834 1.29968
1.15119 1.90046 0.677287
0.74509 1.94611 2.43062
1.13206 1.93438 1.92418
0.743338 1.97253 3.45326
1.12619 1.95786 2.94075
1.12535 1.98801 3.96896
1.46335 -0.161215 -2.50504
1.45464 -0.0350498 -3.00195
1.48911 -0.135441 -1.33573
1.45808 0.0207278 -1.97788
1.52673 -0.130053 -0.0187304
1.51156 0.0322079 -0.67139
1.53407 -0.100086 1.29872
1.54402 0.0404924 0.642836
1.52309 -0.0536495 2.47069
1.52453 0.0914498 1.95029
1.51873 -0.0168323 3.49798
1.51701 0.130751 2.98129
1.51635 0.164573 4.00537
1.44938 0.146893 -2.47479
1.45366 0.401813 -2.94477
1.48053 0.188376 -1.31354
1.45836 0.465038 -1.92251
1.52885 0.202753 -0.00982415
1.52736 0.52738 -0.639273
1.53447 0.232029 1.2944
1.55196 0.553607 0.644469
1.51845 0.27585 2.46089
1.51725 0.583609 1.92872
1.51463 0.312155 3.48867
1.51044 0.621418 2.96044
1.51198 0.657562 3.98967
1.46265 0.719958 -2.39248
1.4867 1.16299 -2.86322
1.50519 0.804041 -1.24824
[...]
POINT_DATA 29498
VECTORS point_vectors float
-4.50394 -6.49441 11.7436
0.0748389 0.217538 0.682924
-1.31845 0.986311 1.87476
0.167568 -0.162359 0.93709
4.49062 -6.47604 11.7071
-0.0741358 0.217356 0.687745
1.32002 0.984743 1.8766
-0.169435 -0.158817 0.933273
0.00796698 0.0018137 0.125591
0.000986337 -0.000125796 0.112745
-0.00045053 -0.000151394 0.0119283
0 0 0
-0.00810257 0.00190713 0.129366
-0.00106925 0.000107911 0.118793
0.00042038 -0.000147249 0.0111839
0 0 0
-0.578483 -0.277796 19.8355
-1.1697 -0.709312 20.443
-0.499728 -0.468675 21.2369
0.000648793 -0.12889 21.3902
0.522588 0.190704 21.312
0.773939 0.309856 21.1022
0.734788 0.237461 20.2769
-0.728429 -0.211974 19.7181
-1.6267 -0.603501 20.4033
-0.720544 -0.533779 21.3071
-0.0533229 -0.215744 21.487
0.675189 0.0652826 21.4212
0.97829 0.140929 21.0183
0.900211 0.0513078 20.4127
-0.835197 0.0907879 19.6442
-1.86165 0.122952 20.3127
-1.21172 -0.236787 21.279
-0.28406 -0.217058 21.6093
0.58315 -0.29798 21.46
0.921248 -0.352659 21.1105
0.665851 -0.355802 20.7447
-0.539121 0.370104 19.9318
-0.884713 0.619048 20.3192
-0.888378 0.448289 21.0364
-0.312289 0.042227 21.3884
0.136712 -0.269638 21.3078
0.323864 -0.374691 21.1277
0.397863 -0.477237 20.6757
-0.577516 -0.64649 19.2948
-1.77767 -3.20953 20.6505
-0.0948638 -0.417931 21.403
0.161138 0.124865 20.6674
0.276857 1.07895 19.2621
0.599249 1.48613 19.1891
0.313214 1.26398 19.7702
-0.759894 -0.515047 18.9097
0.96062 1.69476 10.7818
1.67674 1.09241 13.4207
-0.963094 0.237032 18.5574
1.55463 -0.310848 10.3751
1.5976 -0.68815 14.076
-0.490905 0.759835 19.5234
-0.948463 1.55143 20.0302
-1.24316 1.63088 21.1232
-0.412162 0.293686 21.8876
0.0613098 -0.440725 21.4595
0.2023 -0.67453 21.1557
0.162757 -0.558018 20.8517
0.576508 -0.64023 19.3075
1.78865 -3.09423 20.6344
0.0998936 -0.433267 21.5172
-0.161865 0.124121 20.6706
-0.259538 1.07245 19.1998
-0.589607 1.4839 19.1693
-0.299037 1.2699 19.7274
0.759402 -0.516518 18.9055
-0.906221 1.68752 10.5416
-1.70223 1.10506 13.1075
0.963027 0.236923 18.5576
-1.52956 -0.288277 9.9258
-1.61962 -0.687068 13.7061
0.50795 0.73818 19.5425
0.986626 1.48531 20.0479
1.25234 1.59234 21.126
0.410136 0.301857 21.8977
-0.0535131 -0.444221 21.4659
-0.190642 -0.67781 21.1773
-0.160857 -0.565681 20.9034
0.579049 -0.279298 19.8356
1.16547 -0.702169 20.4428
0.503146 -0.464159 21.2303
0.00525234 -0.132057 21.3876
-0.520571 0.194424 21.3131
-0.772924 0.310454 21.1111
-0.747041 0.240036 20.2519
0.73353 -0.216289 19.7104
1.64669 -0.614242 20.399
0.72058 -0.538254 21.3081
0.0552619 -0.216868 21.483
-0.665434 0.0587131 21.4161
-0.97462 0.139609 21.0192
-0.91384 0.05156 20.3717
0.836095 0.0920537 19.6406
1.87228 0.127022 20.3097
1.21696 -0.238322 21.2812
0.284158 -0.2161 21.6113
-0.580136 -0.295535 21.4576
-0.925858 -0.356585 21.115
-0.68339 -0.36428 20.701
0.536218 0.354322 19.9446
0.869526 0.591035 20.3282
0.875304 0.435313 21.0354
0.315432 0.0434031 21.391
-0.137034 -0.276573 21.3117
-0.327212 -0.391982 21.1217
-0.410077 -0.474982 20.679
-1.54527 -0.205372 2.00503
-0.000132985 -0.0247079 0.567285
0.0218501 -0.00448679 0.339963
0.0828025 -0.00789115 0.376614
-0.000530496 0.0062371 0.050252
-0.0148531 0.0124981 0.388644
1.55485e-06 0.0258241 0.0894023
-0.639164 -0.365122 1.55715
-0.00156943 0.0172305 -0.0959346
0.0148394 0.0171001 0.0971931
1.54452 -0.203446 2.01335
-0.0219049 -0.00449352 0.339305
-0.0855907 -0.00613737 0.388172
0.0147497 0.012431 0.387785
0.640145 -0.36485 1.55663
-0.0146804 0.0169943 0.0960136
-5.62843e-05 9.0213e-05 0.0147729
-0.0023115 -0.00205524 0.0902965
-1.26678e-06 -0.00169612 0.13107
-2.96209e-05 0.00901466 0.0419205
-1.39841e-06 0.000120555 0.00571866
0 0 0
0.00265355 0.0728525 0.139501
-5.33314e-06 -0.00109963 0.0419315
5.36919e-05 7.94456e-05 0.0147006
0.00232079 -0.00208316 0.0906736
2.48652e-05 0.00881375 0.0408141
0 0 0
0 0 0
0 0 0
0.000310929 0.0019056 0.0144338
0 0 0
-1.25501e-06 -7.3343e-05 0.0160692
1.82709e-20 -1.24088e-18 -2.91399e-17
-2.82776e-05 -4.6091e-05 0.0155666
0 0 0
-2.40805e-07 0.000354646 0.00242472
-1.83626e-05 0.013017 0.115442
-1.99932e-07 7.10532e-05 -0.000171567
0 0 0
0 0 0
-0.000346582 0.00203844 0.0155177
-3.06809 -1.6099 20.3331
-2.92027 -5.06392 20.8955
-2.0427 -1.73245 17.8098
1.12706 0.520191 19.6998
-0.00887628 1.29173 12.6437
0.275298 1.19228 7.41301
-3.65273 0.644904 20.2401
-2.98338 1.32288 16.8786
-2.08123 2.63649 19.7884
1.0459 -0.380055 19.86
0.715118 0.0134983 6.57281
0.427713 -0.800771 19.6752
2.92845 -4.92091 20.8611
2.04375 -1.7375 17.7998
3.09319 -1.6285 20.3336
0.025372 1.27819 12.5438
-0.223768 1.17547 7.2641
-1.11815 0.507111 19.7261
2.98352 1.32322 16.8786
2.11438 2.53261 19.8106
3.68399 0.659784 20.2423
-0.681576 0.0448006 6.35528
-0.443115 -0.804024 19.3625
-1.04368 -0.371329 19.8459
-0.619894 -1.0019 21.4053
0.419016 -0.130555 16.7964
0.031278 -0.289047 20.7357
0.183376 0.199268 15.1765
-2.06139 -0.679289 21.5878
-3.35089 2.38442 21.1463
-0.329464 -0.439396 21.1002
-0.626325 0.147861 21.1946
-0.405964 -0.156168 16.9934
0.619578 -1.00415 21.3944
-0.182068 0.200278 15.2179
-0.0294637 -0.290693 20.7437
3.32193 2.28934 21.1646
2.06505 -0.686897 21.572
0.615428 0.155413 21.1294
0.32886 -0.438624 21.0969
-0.914199 -0.510675 19.9874
-0.65154 -0.265881 19.7873
-0.612021 -0.432615 19.6148
-0.873666 -0.634176 21.0258
-1.40622 -0.682373 20.417
-1.63446 -1.51476 20.4113
-0.223497 -0.2933 21.3532
-0.61959 -0.522514 21.2568
-0.33653 -0.660937 21.4369
0.231208 0.0434723 21.4628
-0.0271803 -0.184343 21.4186
0.0949104 -0.144449 21.5431
0.662576 0.265619 21.2152
0.593409 0.139947 21.3734
0.690943 0.546682 21.3162
0.761611 0.266724 21.2074
0.883728 0.231409 21.0973
1.0202 0.749651 20.9472
0.826081 0.142295 20.3639
0.797075 0.551293 21.0379
-1.25746 -0.405029 19.8383
-0.798916 -0.120832 19.658
-0.790746 -0.354528 19.3905
-1.19461 -0.630577 21.0912
-1.84991 -0.292005 20.3595
-0.364258 -0.383832 21.418
-0.997964 -0.455531 21.3069
0.282528 -0.042665 21.5586
-0.170935 -0.26103 21.5693
0.854783 0.111861 21.2403
0.697126 -0.12821 21.4529
0.949007 0.0815345 21.3768
1.04866 -0.121808 20.9819
1.4257 0.57565 19.9059
0.863438 -0.146074 20.6446
1.38225 0.446675 20.4565
-1.4321 0.139137 19.7564
-0.716853 0.306088 19.7619
-1.00077 0.144483 19.1844
-1.61044 -0.101483 20.9388
-1.38024 0.564394 20.2652
-0.759259 -0.257004 21.5233
-1.22806 0.209638 21.1512
0.159297 -0.229417 21.6182
-0.356882 -0.0828198 21.5512
0.781101 -0.332767 21.2768
0.314991 -0.366149 21.3741
0.995215 -0.418372 20.8622
0.544161 -0.461483 21.0722
1.39375 -0.617516 20.3096
0.493619 -0.538152 20.9108
1.19804 -0.588963 20.3152
-0.734387 0.522979 20.0517
-0.586317 0.571148 19.7329
-0.946982 0.592885 20.6703
-1.02997 1.03236 20.1938
-0.638815 0.253537 21.3145
-1.13701 0.896509 21.1135
-0.0563987 -0.138869 21.3782
-0.383503 0.137987 21.6392
0.238475 -0.36879 21.1473
0.12208 -0.378265 21.3696
0.300338 -0.400795 20.9029
0.310144 -0.539324 20.9748
0.2495 -0.391282 20.7428
-1.20975 -1.64857 19.0658
-0.6516 -0.602502 19.1382
0.00251488 -0.863819 18.963
-0.62165 -1.17264 21.8875
0.0155804 -4.37577 21.1994
0.0794301 -0.117189 20.9857
0.00225534 -0.486164 20.9179
0.189144 0.458322 19.9026
-0.00113704 -0.00459147 18.8455
0.376365 1.24182 19.1593
-0.0112119 0.465144 16.0362
0.808124 1.44785 18.7576
0.744461 1.62728 15.1565
-0.0311524 0.721472 15.271
1.01298 1.17006 15.7882
-0.00506513 1.64938 14.7535
-0.904367 -0.223966 18.6078
-0.00465244 -0.735021 18.3093
1.49412 1.54855 12.5248
1.56313 0.785646 7.6793
0.0206074 -1.47733 -2.54319
2.03051 0.443944 12.484
0.0139686 -0.648836 2.13363
-0.762675 0.728566 19.024
-0.000574874 0.384817 17.7121
1.92779 -0.590993 12.9924
0.551949 -1.14116 20.1661
0.0364945 -0.290552 -2.18514
0.514535 -1.06192 19.8936
0.0690502 -1.72839 1.61014
-0.75356 1.24321 19.6391
0.0137278 0.982208 19.3095
-1.11515 1.63621 20.4767
0.0380687 2.12135 19.8638
-0.932852 1.05106 21.8004
0.0238115 2.77885 21.0544
-0.089556 -0.19932 21.7039
-0.00905827 0.576557 22.176
0.152208 -0.586821 21.2951
-0.00629822 -0.393042 21.7334
0.259395 -0.704904 21.0632
-0.000151722 -0.723365 21.3567
0.00524953 -0.974746 20.8583
1.21507 -1.61376 19.0875
0.652042 -0.601723 19.1422
0.612611 -0.429873 19.6183
0.634401 -1.17908 21.9099
1.61599 -1.4734 20.4138
-0.0819198 -0.121122 21.016
0.351244 -0.657307 21.4274
-0.188026 0.458344 19.8919
-0.0931026 -0.14559 21.5414
-0.357351 1.23029 19.1291
-0.684262 0.550408 21.2894
-0.79416 1.45877 18.6919
-0.715086 1.6186 15.0134
-1.0163 0.74585 20.9465
-1.00113 1.18156 15.7141
-0.80146 0.554313 21.0769
0.905082 -0.223401 18.6023
0.796782 -0.357327 19.3804
-1.4863 1.55868 12.2616
-1.524 0.808296 7.32586
-1.42471 0.58136 19.8554
-2.05454 0.464793 12.0682
-1.39309 0.468828 20.4569
0.770157 0.716583 19.0426
1.00109 0.14535 19.1813
-1.93404 -0.586443 12.6253
-0.562608 -1.1487 19.9503
-1.40069 -0.61381 20.2411
-0.514082 -1.06594 19.8818
-1.22749 -0.599525 20.2899
0.787334 1.20083 19.6658
0.588618 0.550117 19.7499
1.13551 1.56618 20.4976
1.02921 0.985405 20.2099
0.932836 1.04761 21.7982
1.12313 0.863591 21.111
0.0917524 -0.199846 21.7091
0.385138 0.142133 21.6508
-0.14526 -0.589931 21.3075
-0.12368 -0.38069 21.3782
-0.253508 -0.71733 21.0525
-0.304118 -0.551539 20.9818
-0.243137 -0.392098 20.7535
0.912557 -0.509203 19.9893
0.654551 -0.269531 19.7842
0.871715 -0.624767 21.0193
1.4094 -0.685259 20.415
0.222614 -0.291336 21.3547
0.622127 -0.521541 21.2533
-0.226795 0.039908 21.4526
0.0313451 -0.1862 21.4126
-0.658395 0.272894 21.2174
-0.585883 0.140927 21.3701
-0.761342 0.256737 21.1839
-0.881098 0.229447 21.1029
-0.843875 0.146043 20.3243
1.26901 -0.41267 19.828
0.800928 -0.123039 19.6521
1.19918 -0.639798 21.0944
1.86862 -0.293592 20.3555
0.365359 -0.38584 21.4172
1.00085 -0.460523 21.3089
-0.281415 -0.0426731 21.5534
0.170346 -0.260874 21.5664
-0.845986 0.105033 21.2354
-0.690071 -0.126951 21.4507
-0.954048 0.0793761 21.3903
-1.0487 -0.124013 20.9802
-0.875107 -0.158242 20.6125
1.43845 0.142951 19.7509
0.712581 0.300583 19.7709
1.61926 -0.100211 20.9401
1.35746 0.544634 20.2718
0.760534 -0.257256 21.5237
1.21856 0.208195 21.1502
-0.15852 -0.230396 21.6159
0.358962 -0.0849277 21.5553
-0.780693 -0.333851 21.2764
-0.316532 -0.371475 21.3823
-1.00726 -0.419785 20.8849
-0.555971 -0.475862 21.0807
-0.510158 -0.55366 20.9462
0.724455 0.503279 20.0659
0.932946 0.571324 20.6732
0.637573 0.253467 21.3135
0.0596629 -0.140561 21.387
-0.238918 -0.377006 21.1585
-0.296562 -0.415078 20.9028
-1.08646 -0.496107 19.9251
-1.57389 -1.83319 18.5329
-1.15623 -0.926502 19.6423
-1.72936 -0.845879 19.1898
-0.700382 -0.409094 19.5131
-2.24514 -1.67517 20.3876
-1.04965 -0.648077 21.0519
-0.147269 -0.636716 18.9657
-0.874613 -1.05247 21.3698
-1.42738 -1.32601 21.6534
-0.40819 -0.849694 21.5128
-0.299859 -0.361654 21.3787
0.248913 0.0401093 15.6116
-0.0832891 -0.391292 21.4933
-0.210033 -0.635242 21.0331
0.105729 -0.241141 21.3631
0.24426 -0.00598643 21.5064
-0.045532 0.45084 13.8525
0.34052 0.171509 21.5312
0.440034 0.136895 20.2962
0.916916 0.571775 20.8296
0.758978 0.201913 21.2411
0.281257 1.43702 13.8833
0.845063 0.674292 21.0771
1.30367 0.556145 19.8543
1.24384 0.698626 20.5014
0.859405 0.179157 21.2064
1.12744 1.62908 15.5795
1.04291 0.858226 20.8879
1.51383 0.508045 19.5742
1.03473 0.469742 20.7911
-1.38624 -0.191228 19.7721
-2.89946 -0.538708 16.7193
-2.2149 0.462031 18.972
-0.942434 -0.143093 19.2143
-3.88729 -0.562266 20.2527
-1.46328 -0.419783 21.0471
-2.58328 -0.219363 21.2318
-1.19684 -1.02258 21.3569
-0.558526 -0.38845 21.4912
-1.15507 -0.726873 21.6267
-0.10836 -0.287712 20.3817
0.246592 -0.161674 21.6231
0.428225 -0.285595 20.6257
1.24248 0.115035 19.0228
0.896915 -0.12166 21.2452
0.359453 0.690471 4.05153
1.21825 -0.510637 20.176
1.73152 0.00796114 19.4796
1.02602 -0.172201 21.4441
2.29581 0.56618 10.5592
1.36243 -0.614399 20.6439
1.46575 0.095467 20.503
-1.08343 0.475811 19.8971
-1.50217 1.72698 18.8463
-0.832469 0.852122 19.8578
-0.813781 0.486999 19.4336
-1.90451 1.22735 20.0829
-1.39712 0.405932 20.7477
-2.37529 2.11959 20.297
-1.15673 1.02737 20.6078
-2.02458 0.620746 21.2846
-0.833325 0.0475902 21.4682
-2.33576 0.969766 22.2972
-0.829132 0.55772 21.5168
-0.551206 -0.043499 21.9287
0.0270683 -0.232454 21.5309
0.260847 -0.494687 20.1163
-0.0667565 -0.174485 21.5348
0.36533 -0.61082 21.5432
0.427903 -0.432923 21.2468
0.458554 -0.963752 20.005
0.220935 -0.469703 21.231
0.596572 -0.778361 21.3203
0.535796 -0.474979 20.8503
0.680195 -1.1486 19.8811
0.340534 -0.568236 20.9752
0.544048 -0.730143 20.6159
1.58 -1.81497 18.5512
0.0135693 -2.57446 18.4484
-0.00460042 -3.07657 15.9538
-0.00131368 -0.865296 18.7079
-0.00966532 -6.19826 22.8914
0.158697 -0.665899 19.1186
0.00670461 -1.40303 22.3985
0.000250387 -0.0471641 12.5227
-0.24555 0.0339294 15.7118
-0.000159903 -0.21505 19.6389
-0.00134343 0.10265 11.0174
0.0460078 0.450014 13.8391
-0.00247717 0.206914 17.3659
-0.0217574 0.332369 7.8169
-0.247273 1.41087 13.7511
-0.0223699 0.316806 15.6187
-0.0430401 -1.02307 -2.32721
-0.0353181 -0.190223 5.76271
-1.11645 1.63279 15.4806
0.00460709 1.20498 14.748
0.00166519 0.0344655 1.40627
0.000576529 0.624146 8.21161
2.90055 -0.538734 16.7092
-0.000792385 2.94673 13.8413
-0.00122466 -0.265541 17.8346
-0.30589 0.71878 3.87636
-0.00650563 0.316396 -1.74032
0.0614101 -1.34315 -4.95172
-2.28546 0.589186 10.2396
0.0539519 -0.722814 -1.0062
0.087291 -1.52947 -0.837408
1.51332 1.68329 18.8839
0.0237207 1.65642 19.4165
0.0102661 1.05858 18.526
0.0373306 3.87895 19.5708
2.38726 2.04297 20.3263
0.040022 2.4104 20.248
0.0317632 5.59881 20.1454
2.33363 0.966878 22.3113
0.00192491 1.8966 22.1555
-0.00299064 0.448422 18.3928
-0.277382 -0.494417 19.9715
-0.00664858 -0.0756642 21.9459
-0.00444193 -0.428953 12.137
-0.464591 -0.959077 19.7501
-0.00278661 -0.59341 21.4896
0.0112192 -1.01021 14.9186
-0.665078 -1.1667 19.8252
0.00285702 -0.658784 21.2895
0.018408 -0.641413 16.6734
1.09033 -0.499303 19.9216
1.15546 -0.918999 19.648
1.73941 -0.854353 19.1744
0.703993 -0.41256 19.5089
2.23923 -1.65796 20.3791
1.05144 -0.648566 21.0496
0.884085 -1.03944 21.3509
1.43124 -1.33415 21.6589
0.417023 -0.841184 21.496
0.30067 -0.359935 21.3813
0.0928137 -0.393011 21.4933
0.211217 -0.635826 21.0243
-0.102242 -0.242718 21.3718
-0.239715 -0.0103816 21.4938
-0.337813 0.17044 21.5311
-0.439049 0.132942 20.3185
-0.910333 0.568895 20.8102
-0.75159 0.206636 21.2426
-0.83589 0.673602 21.0698
-1.29125 0.552615 19.8215
-1.24109 0.698198 20.4526
-0.860667 0.172765 21.2046
-1.05091 0.866919 20.8644
-1.51185 0.527943 19.5278
-1.04731 0.485309 20.8095
1.39599 -0.194138 19.7629
2.21919 0.466048 18.9653
0.944202 -0.144445 19.2064
3.94727 -0.562928 20.2551
1.47118 -0.425881 21.0517
2.59052 -0.223696 21.2207
1.1968 -1.02699 21.3523
0.559062 -0.389926 21.4912
1.15219 -0.724366 21.5935
0.108854 -0.289104 20.3917
-0.246528 -0.160455 21.6219
-0.426332 -0.283291 20.626
-1.23443 0.111429 19.0539
-0.893044 -0.12206 21.2452
-1.21396 -0.500124 20.1003
-1.73347 0.0182285 19.3956
-1.03731 -0.175471 21.4668
-1.38612 -0.613553 20.5699
-1.48528 0.113901 20.4975
1.07089 0.46181 19.9088
0.838205 0.819926 19.8746
0.811324 0.475795 19.4503
1.88174 1.18303 20.0956
1.38255 0.396212 20.7477
1.14827 0.984564 20.6154
1.99588 0.612309 21.281
0.833695 0.047403 21.4687
0.827589 0.555491 21.5148
0.55483 -0.0426657 21.9365
-0.0263058 -0.236029 21.5382
0.0665582 -0.174109 21.5426
-0.360753 -0.619457 21.5446
-0.432749 -0.442464 21.2518
-0.216889 -0.478006 21.2377
-0.588852 -0.790469 21.3255
-0.54627 -0.49112 20.8535
-0.348173 -0.582836 20.9875
-0.537212 -0.752646 20.5885
-1.41446 -0.91642 19.4445
-1.07951 -1.20834 21.5116
-0.101326 -0.530392 21.4328
0.416085 0.147614 21.1341
1.11224 0.683375 20.7406
1.2424 0.676935 20.706
-2.18048 -0.282752 18.9066
-2.12323 -0.947303 21.6316
-0.5375 -0.710236 20.7659
0.490274 0.051733 19.9409
1.46873 0.0309975 19.4473
1.64364 0.142519 19.2537
-1.4095 0.932307 19.5102
-1.99948 0.918967 20.6789
-1.35771 0.249059 21.8525
0.0391951 -0.355631 21.8
0.504252 -0.707555 21.2899
0.631003 -0.831376 21.0365
0.00482322 -3.05041 17.4885
0.00483024 -0.497718 15.3433
-0.00153496 -0.00560592 11.4458
-0.0026872 0.183949 9.71471
-0.0589246 -0.377228 6.4325
-0.00254173 0.862304 7.86782
-0.00315009 -0.96317 13.585
0.00986032 -0.706044 -4.00428
0.0607626 -0.959403 -4.15097
0.0268832 2.80713 18.1432
0.0301051 3.59371 19.6447
0.00139407 2.98892 21.834
-0.00469617 -0.286023 14.0928
-0.00403019 -0.5684 13.5799
0.0234977 -1.3868 15.9356
1.41624 -0.915257 19.4437
1.08018 -1.20282 21.4973
0.10821 -0.529915 21.4413
-0.413382 0.14496 21.1296
-1.10144 0.675238 20.7164
-1.24718 0.696389 20.6638
2.19129 -0.285283 18.8923
2.1272 -0.953794 21.634
0.537012 -0.711218 20.7577
-0.489075 0.0482444 19.9606
-1.45706 0.0395889 19.3722
-1.65145 0.155156 19.1454
1.39355 0.899004 19.5428
1.97625 0.890353 20.6863
1.35617 0.249236 21.8515
-0.0387264 -0.358689 21.8097
-0.497836 -0.715075 21.2955
-0.632744 -0.847472 21.0691
-2.28414 -0.736295 3.27922
-0.0136986 -0.0738073 0.505516
-0.0171744 0.0070295 0.637042
0.108869 0.0445831 0.350004
-0.0259079 0.0172787 0.105565
-0.0184544 0.0337435 0.294186
-2.76025 0.152369 4.16684
-0.00854397 0.0893029 0.250023
-0.363341 -0.016984 1.21888
0.108239 0.00440749 0.363723
-0.0167723 0.0280232 -0.0436578
0.0523829 -0.000842873 0.438086
0.0135836 -0.074123 0.505952
2.28259 -0.734628 3.27573
0.0205087 0.0127694 0.62687
0.0254438 0.0167948 0.104399
-0.106133 0.0446692 0.342926
0.0182505 0.0334147 0.29288
0.00755899 0.089351 0.251397
2.75582 0.150898 4.15791
0.362044 -0.0169569 1.21569
0.0144261 0.0296392 -0.0454927
-0.107274 0.00610028 0.360157
-0.0533144 0.000107122 0.438353
0.0258233 -0.00376896 0.25586
0.000837628 0.000259992 0.0511672
0 0 0
0.00116105 0.000350386 0.0221591
-0.0269009 0.0218065 0.391434
-0.00100548 0.00130074 0.110157
0 0 0
0 0 0
-0.714775 -0.391097 1.25158
-8.51955e-05 8.32073e-05 0.00336795
0 0 0
-0.110999 0.124301 0.256182
7.38934e-18 1.41509e-17 5.84985e-17
0 0 0
0 0 0
0.0478798 -0.00628144 0.269223
-0.0258382 -0.00376949 0.255688
-0.00117078 0.000352404 0.0223323
-0.00084877 0.000285912 0.0519933
0 0 0
0.0257675 0.0237595 0.37972
0 0 0
0.00101272 0.00134769 0.111889
0 0 0
0.711713 -0.391024 1.25425
0.111856 0.125485 0.258344
0.000102265 9.91066e-05 0.00403722
0 0 0
0 0 0
-0.0479337 -0.00629322 0.269218
0 0 0
0 0 0
-0.0166113 -0.0135276 0.125336
-0.208822 -0.0536326 0.101627
9.8048e-06 -5.89817e-05 0.0356001
-0.000343205 -0.62807 0.215272
0 0 0
0 0 0
0.00473394 0.00190446 0.0409986
0 0 0
0 0 0
0.00858982 -0.021088 -0.0101527
0 0 0
-1.22119e-05 1.77842e-05 0.00168334
0.000490673 1.02161 0.471875
-2.34389e-07 0.00106609 0.00783026
-0.052899 -0.107255 0.622943
0 0 0
-0.00134286 0.0472716 -0.0136997
0 0 0
0 0 0
-0.00110313 0.000175621 -0.000559555
0.208198 -0.0534061 0.101356
0.0175466 -0.014069 0.131827
0 0 0
0 0 0
0 0 0
-0.0048717 0.00205421 0.0421754
0 0 0
0 0 0
0 0 0
0.0523844 -0.105242 0.616864
0.00106039 0.000173868 -0.000543323
0 0 0
0 0 0
0 0 0
0 0 0
-0.00066744 0.0018317 0.0295607
1.0499e-05 0.000416201 0.0376365
0 0 0
-1.05722e-06 6.14681e-05 0.000359366
0.00488299 0.0221419 0.258747
0 0 0
0 0 0
0 0 0
-0.0149222 0.0368239 0.476837
0 0 0
-4.3502e-06 0.0853772 0.237655
0 0 0
-1.11211e-05 -0.00446269 0.0166766
0 0 0
0 0 0
0 0 0
0.000670351 0.0018382 0.0296927
3.17341e-07 1.76914e-05 0.000103255
-0.00470541 0.021736 0.256402
0.0149214 0.0367715 0.476034
0 0 0
-0.0190816 -0.0262344 0.235442
-0.20227 -0.0289319 0.790669
-0.00129666 -2.83962e-05 0.0237291
-0.000621291 -0.00171973 0.0094647
0 0 0
0 0 0
1.46611e-19 -1.78611e-18 -2.28902e-17
2.51954e-05 0.000349296 0.00169704
0.00130739 0.00448078 0.0591744
0 0 0
0 0 0
0.00458161 0.00202974 0.0411205
0.00048991 -0.000138873 0.0408668
-0.000435102 -0.000137207 0.0409565
0.00245053 0.000749327 0.0289925
-0.002442 0.000746554 0.02902
0 0 0
0 0 0
0 0 0
0 0 0
0 0 0
0 0 0
-0.00450054 0.00369926 0.0449221
0.00439075 0.00368348 0.0448372
-0.235344 -0.636071 0.41741
0.232693 -0.628879 0.4123
-0.204272 0.383523 0.215175
0.206064 0.388859 0.215793
-0.0159113 0.000132364 -0.00193301
0.0162848 2.01509e-05 -0.00203421