# vtk DataFile Version 2.0
tet_velo
ASCII
DATASET UNSTRUCTURED_GRID
POINTS 29498 float
-0.755 0.345 -1.65426
-0.736978 0.325 1.605
-0.695 0.855 -1.6366
-0.585 1.415 1.20446
0.754097 0.345 -1.655
0.737657 0.325 1.605
0.695 0.855 -1.63756
0.585 1.41573 1.205
-0.794738 0.292588 -0.56784
-0.792465 0.282187 0.51858
-0.687697 1.07103 -0.68958
-0.675411 1.28208 0.25744
0.79547 0.29148 -0.568333
0.792998 0.281806 0.518333
0.687002 1.07058 -0.69004
0.658937 1.26609 0.25748
-1.47983 -0.122557 -2.39719
-1.48778 -0.0567259 -1.58372
-1.51119 -0.101818 -0.493722
-1.50199 -0.158807 0.624233
-1.45918 -0.144274 1.71658
-1.4487 -0.077325 2.54158
-1.45408 0.00840227 3.34523
-1.47817 0.223955 -2.43845
-1.48014 0.3191 -1.64018
-1.50631 0.316241 -0.57733
-1.48789 0.316101 0.497979
-1.42407 0.358103 1.5635
-1.42823 0.426609 2.38657
-1.44488 0.506936 3.19479
-1.45171 0.845091 -2.4819
-1.42544 0.931934 -1.67785
-1.42246 1.10472 -0.710027
-1.39129 1.28306 0.247837
-1.3139 1.4043 1.21834
-1.36911 1.46348 2.04726
-1.42016 1.52049 2.878
-1.43818 1.95465 -2.65193
-1.42501 2.07735 -1.86879
-1.41481 2.32037 -0.945989
-1.40178 2.59376 -0.0532667
-1.38816 2.79803 0.870991
-1.39898 2.89814 1.65716
-1.42395 2.96611 2.4726
-0.747094 -0.107031 -2.40645
-0.745157 -0.0345494 -1.59706
-0.769465 -0.110229 -0.492137
-0.774318 -0.185909 0.641771
-0.748589 -0.173386 1.74736
-0.747164 -0.0970562 2.56248
-0.754029 -0.00396359 3.35733
-0.754365 0.2289 -2.44152
-0.74481 0.411616 2.40385
-0.754142 0.497993 3.20393
-0.736685 0.813875 -2.46499
-0.699961 1.4663 2.04456
-0.741369 1.52109 2.87745
-0.725447 1.92528 -2.63514
-0.715165 2.04551 -1.85025
-0.711445 2.30235 -0.934824
-0.710944 2.596 -0.0546818
-0.708011 2.8098 0.861304
-0.719311 2.90883 1.64749
-0.739993 2.97346 2.46557
0.737147 -0.10781 -2.40709
0.768593 -0.0351569 -1.5977
0.789315 -0.111593 -0.492595
0.776996 -0.186992 0.64153
0.734526 -0.173999 1.7473
0.685714 -0.0980556 2.5625
0.6597 -0.00555933 3.35734
0.718497 0.228367 -2.44222
0.657482 0.410941 2.40393
0.640675 0.496484 3.20399
0.69341 0.813308 -2.46575
0.604533 1.46533 2.04482
0.615785 1.51923 2.87757
0.696602 1.92346 -2.6357
0.696838 2.04331 -1.85076
0.686741 2.29837 -0.935169
0.661458 2.58986 -0.0547991
0.636368 2.80481 0.86135
0.627527 2.90506 1.64756
0.623046 2.97018 2.46562
1.47727 -0.124589 -2.39839
1.50649 -0.0587117 -1.58488
1.53142 -0.105753 -0.49457
1.51694 -0.163191 0.62381
1.46217 -0.146739 1.71648
1.40774 -0.0800813 2.54159
1.37544 0.00480591 3.34523
1.45778 0.22232 -2.43974
1.4836 0.317791 -1.64145
1.51384 0.311773 -0.578202
1.49988 0.309864 0.497639
1.4352 0.356315 1.56356
1.37601 0.424228 2.3867
1.35195 0.50342 3.19487
1.42213 0.843355 -2.48326
1.42358 0.93058 -1.67924
1.42286 1.099 -0.710863
1.38802 1.26707 0.247726
1.31649 1.39987 1.21877
1.30655 1.46005 2.0476
1.31437 1.51624 2.87817
1.41131 1.95073 -2.65299
1.40761 2.07261 -1.86977
1.3929 2.31249 -0.946661
1.36077 2.58255 -0.0535362
1.32705 2.78845 0.871012
1.31599 2.89055 1.65724
1.31456 2.95946 2.47265
-0.702455 0.6 -1.62289
-0.000451505 0.312722 -1.68691
-0.778935 0.314728 -1.11105
-0.743281 0.87 1.48702
0.000339508 0.317964 1.61204
-0.756178 0.312137 1.06179
0 0.868956 -1.65104
-0.681494 0.953161 -1.16309
0 1.48089 1.27026
-0.640032 1.35837 0.73095
0.701571 0.6 -1.6233
0.778317 0.314707 -1.11167
0.742202 0.870365 1.48587
0.756483 0.312247 1.06167
0.681476 0.953265 -1.1638
0.619841 1.33878 0.73124
-0.799057 0.281932 -0.02463
-0.820903 0.68181 -0.62871
0.00036636 0.231544 -0.568087
-0.803119 0.782132 0.38801
0.000266507 0.231911 0.518457
-0.698556 1.19356 -0.21607
-0.000347719 1.26206 -0.68981
-0.00823691 1.57581 0.25746
0.799557 0.28132 -0.025
0.821525 0.681029 -0.629187
0.804948 0.773948 0.387907
0.685216 1.18058 -0.21628
-0.887011 0.640905 -1.13707
-0.81852 0.731971 -0.12035
-0.774187 0.826066 0.89637
-4.25726e-05 0.259502 -1.11136
0.000316433 0.231861 -0.024815
0.000303007 0.300691 1.06173
-0.000225753 0.6 -1.71087
0.000169754 0.870182 1.73406
-0.00017386 1.00139 -1.16345
-0.00429231 1.55885 -0.216175
-0.00411846 1.55757 0.731095
0.886956 0.640515 -1.13773
0.819633 0.727489 -0.12064
0.775432 0.822157 0.896453
-1.11757 0.33205 -1.64722
-0.750078 0.155225 -1.62566
-0.754683 0.28695 -2.04789
-1.08052 0.341552 1.58425
-0.742783 0.0758072 1.67618
-0.740894 0.368308 2.00442
-1.06022 0.893467 -1.65723
-0.715842 0.834438 -2.05079
-0.705082 1.45025 -1.74342
-0.949452 1.40965 1.2114
-0.64248 1.44065 1.62451
-0.646505 2.1124 1.03288
0.761345 0.154922 -1.62635
0.736297 0.286683 -2.04861
1.11885 0.331396 -1.64822
0.736091 0.0755007 1.67615
0.697569 0.36797 2.00447
1.08643 0.340657 1.58428
0.694205 0.834154 -2.05165
0.695919 1.44916 -1.74416
1.05929 0.89279 -1.6584
0.594766 1.44053 1.62491
0.610684 2.11027 1.03317
0.950744 1.4078 1.21189
-1.15052 0.304414 -0.572585
-0.782102 0.0911796 -0.529989
-1.14018 0.299144 0.50828
-0.783391 0.0481393 0.580175
-1.05508 1.08788 -0.699804
-0.699571 1.68669 -0.812202
-1.03335 1.28257 0.252639
-0.693178 1.93904 0.101379
0.792393 0.0899434 -0.530464
1.15466 0.301627 -0.573267
0.784997 0.0474068 0.579932
1.14644 0.295835 0.507986
0.686872 1.68447 -0.812604
1.05493 1.08479 -0.700451
0.660198 1.92798 0.10134
1.02348 1.26658 0.252603
-1.48381 -0.0896416 -1.99045
-1.479 0.0506988 -2.41782
-1.11346 -0.114794 -2.40182
-1.49949 -0.079272 -1.03872
-1.48396 0.131187 -1.61195
-1.11647 -0.0456376 -1.59039
-1.50659 -0.130312 0.0652554
-1.50875 0.107211 -0.535526
-1.14033 -0.106024 -0.492929
-1.48059 -0.15154 1.17041
-1.49494 0.0786474 0.561106
-1.13816 -0.172358 0.633002
-1.45394 -0.110799 2.12908
-1.44162 0.106915 1.64004
-1.10388 -0.15883 1.73197
-1.45139 -0.0344614 2.94341
-1.43847 0.174642 2.46408
-1.09793 -0.0871906 2.55203
-1.44948 0.257669 3.27001
-1.10406 0.00221934 3.35128
-1.47915 0.271527 -2.03931
-1.46494 0.534523 -2.46017
-1.11627 0.226428 -2.43998
-1.49322 0.31767 -1.10875
-1.45279 0.625517 -1.65902
-1.4971 0.316171 -0.0396755
-1.46439 0.710482 -0.643679
-1.45598 0.337102 1.03074
-1.43959 0.799579 0.372908
-1.42615 0.392356 1.97503
-1.36899 0.8812 1.39092
-1.43656 0.466772 2.79068
-1.39867 0.945046 2.21691
-1.08652 0.419112 2.39521
-1.43252 1.01372 3.03639
-1.09951 0.502465 3.19936
-1.43858 0.888512 -2.07988
-1.44495 1.39987 -2.56691
-1.0942 0.829483 -2.47344
-1.42395 1.01833 -1.19394
-1.42523 1.50464 -1.77332
-1.40688 1.19389 -0.231095
-1.41863 1.71255 -0.828008
-1.3526 1.34368 0.733088
-1.39653 1.93841 0.0972852
-1.34151 1.43389 1.6328
-1.35103 2.10116 1.04466
-1.39463 1.49199 2.46263
-1.38404 2.18081 1.85221
-1.03453 1.46489 2.04591
-1.42206 2.2433 2.6753
-1.08076 1.52079 2.87772
-1.43159 2.016 -2.26036
-1.08181 1.93996 -2.64353
-1.41991 2.19886 -1.40739
-1.07009 2.06143 -1.85952
-1.40829 2.45706 -0.499628
-1.06313 2.31136 -0.940406
-1.39497 2.69589 0.408862
-1.05636 2.59488 -0.0539742
-1.39357 2.84808 1.26407
-1.04808 2.80391 0.866147
-1.41146 2.93213 2.06488
-1.05914 2.90349 1.65232
-1.08197 2.96978 2.46909
-0.746125 -0.0707904 -2.00176
-0.75073 0.0609344 -2.42398
-0.0049736 -0.107421 -2.40677
-0.757311 -0.0723893 -1.0446
0.011718 -0.0348531 -1.59738
-0.771891 -0.148069 0.0748168
0.00992472 -0.110911 -0.492366
-0.761453 -0.179647 1.19457
0.00133935 -0.186451 0.64165
-0.747876 -0.135221 2.15492
-0.00703147 -0.173692 1.74733
-0.750597 -0.0505099 2.9599
-0.745987 0.15728 2.48316
-0.0307249 -0.0975559 2.56249
-0.754085 0.247015 3.28063
-0.0471646 -0.00476146 3.35734
-0.745525 0.521388 -2.45325
-0.0179339 0.228634 -2.44187
-0.749476 0.454804 2.80389
-0.722386 0.938959 2.2242
-0.0436644 0.411278 2.40389
-0.747755 1.00954 3.04069
-0.0567331 0.497239 3.20396
-0.731066 1.36958 -2.55006
-0.0216373 0.813592 -2.46537
-0.720665 1.4937 2.46101
-0.709636 2.18757 1.84603
-0.0477141 1.46582 2.04469
-0.740681 2.24728 2.67151
-0.0627919 1.52016 2.87751
-0.720306 1.98539 -2.24269
-0.0144225 1.92437 -2.63542
-0.713305 2.17393 -1.39253
-0.00916311 2.04441 -1.8505
-0.711194 2.44917 -0.494753
-0.0123517 2.30036 -0.934996
-0.709477 2.7029 0.403311
-0.0247431 2.59293 -0.0547405
-0.713661 2.85932 1.2544
-0.0358212 2.8073 0.861327
-0.729652 2.94115 2.05653
-0.0458924 2.90695 1.64753
-0.0584732 2.97182 2.4656
0.75287 -0.0714833 -2.00239
0.727822 0.0602786 -2.42465
1.10721 -0.116199 -2.40274
0.778954 -0.0733751 -1.04515
1.13754 -0.0469343 -1.59129
0.783156 -0.149293 0.0744673
1.16037 -0.108673 -0.493583
0.755761 -0.180495 1.19442
1.14697 -0.175092 0.63267
0.71012 -0.136027 2.1549
1.09835 -0.160369 1.73189
0.672707 -0.0518075 2.95992
0.671598 0.156443 2.48321
1.04673 -0.0890685 2.55204
0.650188 0.245463 3.28067
1.01757 -0.00037671 3.35129
0.705954 0.520837 -2.45398
1.08814 0.225343 -2.44098
0.649079 0.453713 2.80396
0.631007 0.938137 2.22437
1.01675 0.417584 2.39532
0.62823 1.00786 3.04078
0.996315 0.499952 3.19943
0.695006 1.36838 -2.55072
1.05777 0.828332 -2.4745
0.610159 1.49228 2.46119
0.61603 2.1852 1.84619
0.955541 1.46269 2.04621
0.619416 2.2447 2.67159
0.965079 1.51773 2.87787
0.69672 1.98339 -2.24323
1.05396 1.93709 -2.64434
0.69179 2.17084 -1.39296
1.05222 2.05796 -1.86027
0.6741 2.44412 -0.494984
1.03982 2.30543 -0.940915
0.648913 2.69733 0.403275
1.01112 2.5862 -0.0541677
0.631947 2.85493 1.25446
0.98171 2.79663 0.866181
0.625287 2.93762 2.05659
0.971757 2.8978 1.6524
0.968804 2.96482 2.46913
1.49188 -0.0916503 -1.99163
1.46753 0.0488655 -2.41907
1.51896 -0.0822323 -1.03972
1.49505 0.12954 -1.61316
1.52418 -0.134472 0.0646197
1.52263 0.10301 -0.536386
1.48956 -0.154965 1.17015
1.50841 0.0733362 0.560724
1.43496 -0.11341 2.12903
1.44868 0.104788 1.64002
1.39159 -0.0376377 2.94341
1.39188 0.172073 2.46414
1.3637 0.254113 3.27005
1.47069 0.270055 -2.04059
1.43995 0.532837 -2.4615
1.49872 0.314782 -1.10983
1.45359 0.624185 -1.66034
1.50686 0.310819 -0.0402814
1.46835 0.705386 -0.644532
1.46754 0.333089 1.0306
1.44395 0.788465 0.372683
1.40561 0.390271 1.97513
1.37584 0.87809 1.39117
1.36398 0.463824 2.79078
1.34128 0.94214 2.21715
1.33316 1.00983 3.03652
1.42285 0.886967 -2.08125
1.41672 1.39704 -2.56812
1.42322 1.01479 -1.19505
1.41559 1.5016 -1.77451
[...]
POINT_DATA 29498
VECTORS point_vectors float
-7.82548 -6.79438 12.1895
0.423056 0.487501 2.43189
-3.89819 2.55929 5.27966
0.104185 -0.0276974 0.423517
7.96533 -6.55586 12.0863
-0.461571 0.412972 2.34839
4.04058 2.66206 5.42399
-0.0957317 0.012032 0.303709
-0.0039714 0.0171372 0.4363
0.0254125 -0.00538899 0.786643
-0.520897 -0.141059 0.269365
0 0 0
0.00214453 0.0135809 0.349752
-0.032172 -0.0135743 0.79753
0.940972 -0.238968 0.504519
0 0 0
-0.813569 -0.536516 19.9531
-1.27376 -0.866935 20.6615
-0.541417 -0.522467 21.4787
0.116146 -0.118973 21.651
0.630636 0.172795 21.5863
0.861422 0.335156 21.2667
1.01956 0.280497 21.1164
-1.01804 -0.407369 19.746
-1.93466 -0.770724 20.4583
-0.885386 -0.670068 21.63
0.0264323 -0.389956 21.7996
0.80407 -0.211705 21.7537
1.16645 -0.104423 21.4561
1.32484 -0.169794 21.2514
-1.12007 0.0320345 19.5553
-2.30192 0.22367 20.1452
-2.02487 -0.217496 21.4797
-0.922454 -0.379058 22.0226
-0.145404 -0.536479 21.849
0.219185 -0.679982 21.6873
0.548471 -0.753974 21.3133
-0.526443 0.339424 19.888
-0.830474 0.604533 20.1412
-0.900226 0.666451 20.7836
-0.580899 0.383471 21.2161
-0.312497 0.0370786 21.2815
-0.132454 -0.132517 21.2871
-0.0522435 -0.207317 21.2183
-0.890872 -1.20828 19.211
-1.843 -3.20186 21.0813
-0.521379 -0.734161 22.1477
0.160431 0.212546 22.0699
0.626266 0.989586 21.6353
1.00743 1.43038 21.1755
1.42434 1.44289 19.752
-1.26819 -1.02574 18.5215
1.82933 0.786105 10.3336
2.57662 0.919025 13.7637
-1.37734 0.260013 18.0603
-0.0571148 -0.419391 10.1629
0.580057 -1.2147 15.4146
-0.429697 0.664614 19.5495
-0.789476 1.30098 19.7465
-0.964972 1.58339 20.6546
-0.544554 0.861244 21.4249
-0.228846 0.20391 21.4063
-0.109925 -0.0535104 21.3341
-0.0658618 -0.223427 21.4064
0.877707 -1.21546 19.1943
1.85214 -3.12558 21.053
0.507765 -0.733284 22.14
-0.189069 0.189288 22.0445
-0.662375 0.920591 21.575
-0.954855 1.38883 20.9557
-1.38447 1.62318 19.9097
1.21666 -1.04079 18.4418
-1.70474 0.512584 7.44128
-2.59974 1.04905 10.3765
1.30859 0.269606 17.9575
0.104588 0.278499 5.12569
0.0990862 -0.5717 9.40652
0.412754 0.67926 19.533
0.770085 1.31739 19.7304
0.939712 1.64008 20.6285
0.494847 0.914926 21.4273
0.184102 0.23437 21.4002
0.0568321 -0.0215164 21.2921
-0.00529481 -0.174195 21.2407
0.800575 -0.536992 19.9431
1.24347 -0.832259 20.657
0.540613 -0.519473 21.4433
-0.117478 -0.141038 21.6165
-0.616831 0.115393 21.5605
-0.888323 0.283911 21.2787
-1.05728 0.337738 21.1486
1.02495 -0.419494 19.7025
1.91418 -0.757413 20.4423
0.869708 -0.66181 21.607
-0.0246543 -0.394202 21.7459
-0.734342 -0.276075 21.702
-1.16941 -0.207311 21.4452
-1.39544 -0.185139 21.1222
1.14002 0.0336005 19.5109
2.30278 0.226519 20.1385
2.01011 -0.230296 21.4696
0.917289 -0.416398 21.9852
0.217166 -0.522055 21.7694
-0.0635236 -0.658356 21.7372
-0.447965 -0.796987 21.3816
0.525484 0.345699 19.8711
0.834778 0.61862 20.124
0.906795 0.690771 20.7686
0.571684 0.409707 21.2326
0.31686 0.0561889 21.2771
0.141246 -0.10323 21.3233
0.0369922 -0.186361 21.3324
-3.08389 -0.255208 2.17867
0 0 0
-0.146126 0.0747131 0.9767
0.00970373 -0.117694 0.388753
-0.00947796 0.0485395 0.122334
0.0698362 0.00431963 0.547145
0.00351487 0.682069 0.687253
-0.489086 -0.18334 0.482845
-0.030805 0.00681483 0.0348458
0.016334 0.0293543 0.111712
3.20175 -0.268919 2.27258
0.108953 0.0505652 0.745867
0.00557101 -0.134979 0.375202
-0.0837108 -0.000603734 0.547835
0.478093 -0.177642 0.47687
-0.0124507 0.0357649 0.0281793
-0.00162435 0.0204204 0.714677
0.00079518 -0.00335045 0.0598257
0 0 0
0.00759202 0.031715 0.0771132
0 0 0
0.000154788 0.000945616 0.00109136
0.000931002 0.0244673 0.0247178
-0.000258122 0.000196444 0.0145371
-0.00129745 0.0194762 0.775362
-0.000777829 -0.00363811 0.0616248
-0.00618998 0.0239466 0.0612033
0 0 0
-0.00048076 -0.00369168 0.0213514
0.00388528 0.0273677 0.101283
0.00890618 0.0297512 0.084319
0 0 0
0 0 0
0 0 0
0.00248424 -0.0433211 0.0407043
-0.0291418 -0.0848633 0.0343943
0.000152209 0.000114667 0.0048231
-0.000290944 0.00703625 0.0734631
-0.00103743 -0.00128037 0.025034
0.000375539 -0.00291004 0.0171656
-0.00413697 0.0278251 0.102683
-0.010694 0.0351728 0.10571
-3.58691 -1.87456 20.2539
-3.11211 -5.18961 21.2561
-2.82123 -2.35049 17.3703
1.33494 0.145188 19.4251
1.05051 1.27503 18.7186
1.21594 0.643862 7.36023
-4.41325 1.12619 19.5793
-3.18875 1.25172 16.3263
-1.9844 2.4064 19.032
-0.123541 -0.397913 18.8035
-0.127434 -0.126996 5.32114
-0.435156 0.120448 21.8685
3.19233 -5.17216 21.1499
2.80492 -2.41657 17.1984
3.58362 -1.87219 20.2342
-1.13204 1.15187 18.4711
-1.07235 0.195992 5.68777
-1.27646 -0.00449417 19.3816
3.16199 1.31683 16.1613
1.96661 2.43519 19.0065
4.41432 1.13634 19.5649
0.290216 0.430409 2.45102
0.374512 0.2261 21.8502
0.262877 -0.346607 18.3469
-0.842459 -1.06402 21.8417
-0.544987 -0.389227 19.6793
0.271 -0.356288 20.8048
0.404443 0.258394 19.5152
-4.0033 -0.831168 21.6064
-3.03618 3.18959 20.1788
-1.45331 -0.708703 22.4119
-1.31074 1.23943 22.4112
0.551499 -0.400431 19.9671
0.829315 -1.04936 21.8373
-0.448265 0.238498 19.4545
-0.27755 -0.389717 20.8743
3.03052 3.26987 20.1095
3.91863 -0.84848 21.7188
1.30313 1.36639 22.4451
1.44392 -0.879927 22.2452
-1.10047 -0.728867 20.1967
-0.960266 -0.487966 19.8347
-0.934823 -0.82509 19.6307
-0.968158 -0.754216 21.2388
-1.59699 -0.867314 20.5676
-1.73205 -1.76426 20.7687
-0.176719 -0.305843 21.6302
-0.699194 -0.61121 21.5576
-0.494025 -0.699055 21.8064
0.380057 0.0212875 21.6533
0.0782555 -0.25939 21.7068
0.225244 -0.0586285 21.8679
0.766811 0.236661 21.4565
0.742992 0.0364496 21.6565
0.785062 0.487274 21.7125
1.03122 0.279253 21.2425
1.10389 0.110303 21.3497
1.16852 0.734535 21.3465
1.17831 0.143092 20.9517
1.32381 0.782608 21.1178
-1.52874 -0.607432 19.9123
-1.11891 -0.200205 19.6092
-1.19615 -0.645473 19.2557
-1.54014 -0.798661 21.312
-2.31917 -0.323485 20.2897
-0.377328 -0.522512 21.7565
-1.40095 -0.657712 21.6658
0.371437 -0.307628 21.8385
-0.327604 -0.575892 21.9518
1.00511 -0.168479 21.6749
0.426285 -0.683714 21.847
1.28829 -0.111908 21.3336
0.814447 -0.729792 21.653
1.83392 0.123793 19.3316
1.10752 -0.734064 21.0924
2.0726 0.0598879 19.9771
-1.71194 0.127201 19.6781
-0.805694 0.310115 19.7082
-1.31738 0.119311 18.9878
-2.27948 0.0616181 20.9411
-1.45311 0.674599 20.0296
-1.53933 -0.339915 21.8937
-1.64349 0.6502 20.9613
-0.441134 -0.455444 21.966
-0.939797 0.265771 21.6346
0.0414998 -0.606992 21.6843
-0.33984 -0.118983 21.6152
0.366687 -0.719034 21.5534
-0.0586415 -0.323716 21.5202
0.0778987 -0.806962 21.1001
0.103333 -0.416984 21.2472
0.608551 -1.06958 21.4397
-0.689172 0.48136 19.9757
-0.535237 0.484368 19.7286
-0.91215 0.678435 20.4269
-0.88968 0.911451 19.964
-0.774906 0.555968 21.0944
-0.999915 1.05779 20.7309
-0.440116 0.164562 21.3865
-0.580023 0.623674 21.3188
-0.247543 -0.0895987 21.3715
-0.294023 0.115267 21.4106
-0.101753 -0.196702 21.2553
-0.167276 -0.0707325 21.4395
-0.0812037 -0.252479 21.5811
-1.54582 -2.33526 19.3461
-1.09571 -1.15675 18.8551
-0.0141631 -1.76264 18.6788
-0.98239 -1.54097 22.072
0.0116221 -4.84577 21.5607
-0.167788 -0.208014 22.0908
-0.00392528 -1.19822 22.0029
0.409848 0.616624 21.9552
-0.0233992 0.109842 21.5813
0.780982 1.19015 21.477
-0.0518336 1.00081 20.8018
1.2397 1.61352 21.0515
1.54832 1.63555 18.0579
-0.0371405 1.58006 19.9051
2.08965 1.81494 17.9508
0.0465055 2.12153 19.1003
-1.46844 -0.446196 18.0423
-0.0419152 -1.56662 17.4902
2.39058 0.926485 12.379
-0.135166 -0.666494 4.25121
-0.288852 0.323156 3.02764
0.672848 -0.44618 6.9989
0.282029 1.68113 4.43095
-0.81736 0.749734 18.968
-0.057963 0.460904 16.9377
0.329943 -0.816047 12.9844
-0.265066 -0.239355 21.6984
-0.672845 0.56885 -1.0728
-0.0638305 -0.554322 21.5163
-0.821312 -0.160598 1.32397
-0.604931 1.00491 19.5673
-0.0145734 0.796904 19.3685
-0.910989 1.52801 20.1074
-0.0174159 1.68134 19.4741
-0.795881 1.31594 21.1499
-0.0308121 2.21832 20.4867
-0.347487 0.449595 21.5618
-0.0371943 1.18033 21.5169
-0.158368 0.0160403 21.4789
-0.0465459 0.285679 21.5276
-0.102693 -0.13491 21.4497
-0.0447656 0.0435586 21.4498
-0.0501589 -0.218573 21.6638
1.54439 -2.30804 19.3411
1.06201 -1.17523 18.8186
0.926794 -0.831704 19.6213
0.989343 -1.53087 22.0453
1.70883 -1.70294 20.7336
0.148231 -0.220859 22.064
0.502426 -0.702279 21.7741
-0.444685 0.580413 21.9148
-0.23685 -0.0870491 21.8362
-0.79099 1.12926 21.4266
-0.791342 0.416662 21.6837
-1.17703 1.66827 20.8942
-1.51545 1.60578 17.1536
-1.18031 0.688426 21.3517
-1.89384 1.87751 16.7133
-1.46372 0.878452 21.1579
1.37793 -0.448702 17.9504
1.21111 -0.675882 19.1976
-2.17247 0.858122 9.48445
0.544719 -1.19804 -1.2215
-1.8049 0.0762009 17.6644
0.296229 -0.314608 0.622641
-2.31913 0.0909287 18.9733
0.792008 0.778836 18.9293
1.32906 0.133138 18.903
-0.293487 -0.282988 7.20286
0.208509 -0.0627565 21.7239
0.0471031 -0.413341 18.1686
0.0286987 -0.389646 21.574
-0.405248 -0.848426 19.4236
0.586439 1.02172 19.5502
0.524909 0.497024 19.7094
0.884373 1.55633 20.086
0.885806 0.931342 19.947
0.757661 1.35666 21.1399
0.996329 1.09516 20.7135
0.294547 0.497325 21.5943
0.560208 0.672031 21.3173
0.117115 0.0399882 21.5043
0.254391 0.163957 21.4041
0.0525842 -0.11268 21.394
0.130656 -0.014711 21.4035
0.0400724 -0.195823 21.6302
1.09044 -0.715885 20.1853
0.951906 -0.496342 19.8063
0.95911 -0.734565 21.226
1.56605 -0.849782 20.5527
0.182243 -0.314262 21.5964
0.689628 -0.603673 21.5272
-0.377123 -0.0177736 21.6186
-0.0766807 -0.276861 21.6586
-0.754239 0.18247 21.4511
-0.70557 -0.0351205 21.6148
-1.06554 0.257114 21.2896
-1.11677 0.0573639 21.3888
-1.2337 0.0680059 20.9951
1.52932 -0.611046 19.884
1.14634 -0.206794 19.5535
1.5234 -0.791059 21.2886
2.30834 -0.326438 20.2807
0.367656 -0.517196 21.7181
1.36997 -0.657183 21.6504
-0.343604 -0.340167 21.7773
0.311207 -0.577746 21.9055
-0.952638 -0.255884 21.6729
-0.340597 -0.697648 21.7673
-1.2925 -0.19913 21.4117
-0.679822 -0.848571 21.6143
-1.07979 -0.812021 20.6964
1.73435 0.130892 19.6536
0.810009 0.326325 19.6795
2.26897 0.0540192 20.9417
1.45617 0.685623 20.0162
1.51842 -0.374642 21.8676
1.65396 0.658827 20.9483
0.459521 -0.472507 21.911
0.974344 0.288992 21.6349
0.10027 -0.585093 21.6716
0.359702 -0.075111 21.5963
-0.241916 -0.696406 21.5472
0.10136 -0.265687 21.5133
-0.0527917 -0.354076 21.2416
0.690864 0.490204 19.9552
0.914435 0.692189 20.4129
0.781932 0.590712 21.0737
0.417431 0.189103 21.3782
0.249643 -0.0676741 21.3731
0.0904057 -0.163168 21.35
-1.35989 -0.699294 20.0528
-2.11498 -2.67321 18.5281
-1.46004 -1.36173 19.866
-2.26645 -1.21286 19.1548
-1.0787 -0.794547 19.4583
-2.54266 -2.02827 20.5939
-1.23579 -0.814339 21.2736
-1.05754 -1.1764 21.2913
-1.03898 -1.21503 21.6092
-2.08682 -1.64261 22.0937
-0.582477 -0.890756 21.9804
-0.262381 -0.420675 21.6823
-0.0275358 0.0313607 19.1751
-0.0946605 -0.339265 21.8341
-0.14758 -0.625053 21.2076
0.327036 -0.203091 21.8855
0.411432 -0.131064 21.7313
0.918711 0.753244 18.419
0.518651 0.211361 21.8253
0.662142 -0.226442 19.9038
1.14513 0.445934 21.5352
0.936248 0.0903738 21.5307
1.31719 1.50611 18.3772
0.989254 0.647935 21.5473
1.68513 0.14153 19.4422
1.61777 0.636428 20.8606
1.23227 0.195131 21.3206
1.87949 1.72142 17.8602
1.22798 0.689091 21.169
2.03951 0.0985056 19.5874
1.65677 0.695125 20.096
-1.72671 -0.256623 19.7455
-3.59173 -0.727169 15.8195
-2.6053 0.475965 18.6435
-1.35799 -0.302929 19.0109
-5.1977 -0.538745 19.6843
-2.0621 -0.503326 21.2653
-3.70095 0.139746 21.3394
-1.45033 -1.53591 20.6781
-0.847007 -0.654906 21.924
-2.70609 -0.808926 22.522
0.111068 -0.916443 19.4933
0.0353651 -0.556881 21.9352
-0.613874 -0.528139 20.7095
0.826513 -0.542578 17.7604
0.623825 -0.710183 21.7536
-0.547452 -1.21019 2.20071
-0.014167 -0.524661 19.2419
0.93909 -0.954987 18.7101
1.01037 -0.696055 21.4935
0.558748 -0.560608 5.90136
0.370984 -0.951751 21.5384
1.50375 -0.842463 19.6657
-1.11549 0.486968 19.7614
-1.32348 1.48913 18.7303
-0.718318 0.699994 19.8069
-0.878352 0.509401 19.3655
-1.86225 1.28452 19.6623
-1.61278 0.706407 20.4906
-2.39577 2.57519 19.6368
-0.988994 1.06156 20.2838
-2.39322 1.42828 20.8516
-1.38693 0.499565 21.4324
-2.5139 2.77175 22.183
-0.829994 0.891357 21.1391
-1.19443 0.620254 21.9792
-0.586019 0.0466504 21.6684
-0.716102 0.494467 22.14
-0.408185 0.300826 21.5054
-0.412429 -0.0357697 21.7636
-0.188168 -0.222126 21.5582
-0.326256 -0.0865585 21.7359
-0.236377 -0.0374411 21.4895
-0.152464 -0.312588 21.5906
0.0367307 -0.393033 21.3936
-0.185807 -0.388012 21.6157
-0.121398 -0.170279 21.5949
0.0394221 -0.500092 21.3041
2.10362 -2.68837 18.4852
-0.00297511 -3.69743 18.7045
-0.0441352 -4.24426 14.8526
-0.0322723 -1.73068 18.111
-0.00166199 -7.83396 22.7677
1.06613 -1.20746 21.2956
0.0102082 -2.24901 22.3578
-0.00836114 -0.577405 13.1899
0.00818721 0.014514 19.2242
-0.0123129 -0.503729 21.72
-0.0244763 0.159704 14.0671
-0.990128 0.69827 18.2502
-0.0348055 0.628038 21.4511
-0.0938759 0.920732 13.5011
-1.30996 1.36573 17.6415
-0.0585642 1.2534 20.6611
-0.399938 -0.104917 1.81264
-0.116009 1.34379 12.427
-1.82215 1.69303 16.5693
-0.0164058 1.90511 19.6623
-0.112794 1.12404 3.60929
-0.0166691 2.45897 13.0302
3.56586 -0.731445 15.6179
-0.0485159 2.36598 13.437
-0.0490265 -0.63516 16.7226
1.0301 -1.18819 0.379221
-0.898115 0.710106 -0.665925
0.369501 0.13541 -1.83933
0.0143993 -1.58051 -0.274283
-1.11337 -0.388652 -0.326074
0.651397 1.71031 -1.582
1.30391 1.52453 18.6837
-0.0195349 1.24091 19.3344
-0.0313659 1.09181 18.4607
-0.0235449 3.69173 18.2449
2.37571 2.61304 19.6105
-0.0208918 2.02961 19.881
-0.0435087 5.54943 19.2208
2.55421 2.99944 22.1873
-0.0390975 1.86538 21.2335
-0.0775654 2.06171 22.707
0.670817 0.587754 22.1426
-0.0423658 0.603653 21.7085
-0.0768 0.404911 22.0348
0.271692 0.0619882 21.7239
-0.0493971 0.0528087 21.6515
-0.118656 0.0508727 21.7973
0.116812 -0.227003 21.6554
-0.0497262 -0.141486 21.7935
-0.107419 -0.382886 21.5525
1.35638 -0.695959 20.0277
1.44974 -1.34399 19.8611
2.28818 -1.24052 19.1086
1.08243 -0.820277 19.4245
2.50755 -1.99333 20.5752
1.22274 -0.794205 21.2495
1.04625 -1.20293 21.5756
2.0848 -1.63536 22.075
0.576726 -0.87638 21.9381
0.256401 -0.424141 21.6431
0.0899534 -0.35565 21.8081
0.140008 -0.631241 21.2675
-0.328856 -0.232902 21.8469
-0.39583 -0.169587 21.6818
-0.529481 0.164666 21.7916
-0.652259 -0.299825 19.9474
-1.12756 0.335106 21.4736
-0.912071 0.0203206 21.5187
-0.990293 0.582932 21.5392
-1.60957 0.0304318 18.6016
-1.62405 0.641048 20.5777
-1.2854 0.157882 21.378
-1.27555 0.724239 21.195
-2.12163 0.0636428 18.6132
-1.82482 0.866812 19.4099
1.74998 -0.264857 19.7109
2.63751 0.504209 18.5536
1.3858 -0.324204 18.9202
5.18254 -0.534585 19.6697
2.04241 -0.501661 21.2544
3.67654 0.140515 21.3397
1.4246 -1.50525 20.7567
0.813352 -0.652111 21.8956
2.6935 -0.952125 22.448
-0.137639 -0.882953 19.4349
-0.013882 -0.567998 21.8639
0.632223 -0.582104 20.1699
-0.708135 -0.696679 18.0222
-0.516958 -0.779203 21.6837
0.191675 -0.292759 17.6831
-0.620118 -0.923327 16.0744
-0.889815 -0.822275 21.5761
-0.237363 -0.623381 18.6936
-1.23057 -0.966626 17.2432
1.11774 0.497322 19.7331
0.709947 0.71852 19.7847
0.873022 0.524798 19.3218
1.86899 1.30506 19.6388
1.62438 0.717903 20.4767
0.983201 1.08881 20.2648
2.42095 1.46301 20.8134
1.41869 0.52017 21.425
0.833521 0.948212 21.1416
1.23904 0.676139 21.9939
0.605875 0.0776833 21.6566
0.376351 0.348572 21.5042
0.414412 0.0499753 21.7296
0.218139 -0.161808 21.5397
0.190137 0.00430871 21.4928
0.168955 -0.194575 21.5787
-0.0105421 -0.336224 21.4198
0.0843482 -0.125135 21.6102
-0.0279524 -0.424678 21.3476
-1.83469 -1.39637 19.5928
-1.39857 -1.46719 21.7961
-0.0508399 -0.483756 21.9549
0.737722 0.0604392 21.7882
1.41324 0.563351 21.1923
1.69108 0.641351 20.6325
-2.75186 -0.501419 18.664
-3.10091 -0.969305 22.1138
-0.558704 -1.42791 19.9962
0.423275 -0.400939 18.4635
0.884213 -0.873541 18.165
1.27678 -0.90571 19.5411
-1.31973 0.893338 19.358
-2.19555 1.40333 20.2145
-1.99032 1.16693 21.7252
-0.701881 0.223279 21.8998
-0.268729 -0.186232 21.6481
-0.0584057 -0.415756 21.4814
-0.0197219 -4.55015 17.1417
0.0190588 -1.24918 14.2174
-0.013258 -0.18013 12.9027
-0.0462995 0.636807 12.8413
-0.120208 1.05839 12.5968
-0.0738009 1.7636 12.1439
-0.0467397 -0.994892 12.1395
-0.371636 -1.02723 -0.143736
0.861473 1.05798 -2.31987
-0.0300693 2.20093 18.01
-0.024891 4.07974 18.774
-0.0720506 4.46791 22.4093
-0.0649338 0.944447 22.3505
-0.101762 0.202349 21.7876
-0.0956594 -0.179986 21.6629
1.8356 -1.40205 19.5674
1.41171 -1.45547 21.7593
0.0488973 -0.489594 21.9176
-0.736583 -0.00285623 21.739
-1.42014 0.482988 20.978
-1.79747 0.645788 20.1741
2.78378 -0.516396 18.5813
3.0886 -0.956244 22.1075
0.513425 -1.39757 20.0033
-0.380694 -0.46812 18.5961
-0.635503 -0.890464 17.1168
-0.991522 -0.92954 17.132
1.32068 0.913025 19.3204
2.19905 1.42182 20.197
2.05124 1.22688 21.7017
0.713831 0.282362 21.8896
0.275633 -0.0803383 21.6271
0.0734025 -0.302426 21.4998
-0.123741 -0.0271575 0.112662
0 0 0
-0.0893058 -0.00483482 0.886187
0.0507996 -0.0583184 0.139305
-0.00136912 0.0270625 0.116227
-0.00516909 0.0725996 0.982643
-0.944908 0.247728 0.865867
-0.358978 2.06515 1.87426
-0.357069 0.013173 1.02934
0.0133752 -0.0170297 0.0928135
-0.0469813 0.00908958 -0.00477918
0.0267612 0.0381998 0.312214
0 0 0
0 0 0
0.061564 -0.00208175 0.646544
-0.00583468 0.0251632 0.110659
-0.0464906 -0.0707363 0.140783
-0.0161574 0.0505822 0.943425
0.367158 2.04971 1.85087
0.865204 0.226509 0.795521
0.354618 0.0146921 1.02815
-0.00284254 0.0402408 -0.0264838
-0.0103328 -0.0122341 0.0866489
-0.0369409 0.0715832 0.315126
-0.0222348 0.024795 0.0919401
-0.00870299 0.00986462 0.425503
0.000248864 0.000174624 0.0130746
0 0 0
0.249868 -0.137514 0.70975
0.00598628 0.015747 1.05897
0.000444239 0.00972169 0.0580923
0 0 0
-0.0566644 -0.00525466 0.00977817
-0.0129457 -0.0141085 0.12221
0.000567917 0.00276589 0.00635175
-0.0750058 -0.00401879 0.0224218
0.00974984 0.0272961 0.0670509
0 0 0
0 0 0
0.00319285 0.000495331 0.0307037
0.0525335 0.0183762 0.125694
0 0 0
0.00814709 0.0103332 0.506737
-0.000227068 0.000148978 0.0122716
-0.128917 -0.0257842 0.145935
-8.82502e-19 -9.28656e-20 9.13023e-18
-0.0113796 0.00762614 1.08166
-0.000303174 0.00653886 0.0467173
0.060535 -0.0147058 0.0250842
0.0584418 -0.00336096 0.0201782
0.00924816 -0.0104523 0.129269
3.2071e-05 0.00288311 0.00707195
-0.00718688 0.0266185 0.0156246
-0.00142505 0.000723657 0.021876
-0.0172345 0.0507714 0.0949221
0 0 0
-0.179142 -0.0956814 1.001
-0.131485 -0.00429231 0.0511447
6.61089e-05 -0.000298711 0.00603775
0 0 0
-4.76988e-19 2.04364e-18 4.66792e-18
0.00517954 -0.00342449 0.0841675
0.00531505 0.00672606 0.162901
-0.0295025 -0.0214536 0.00443476
0 0 0
-0.00836965 -0.0220417 0.00323606
0 0 0
0 0 0
-0.00363659 0.283635 0.107386
-0.000226565 0.00273224 0.0102507
0 0 0
-0.0192386 -0.00122977 0.0108737
-0.00616086 0.00311413 -0.00213933
-0.00118598 -0.00101451 0.0107637
0 0 0
0.000910146 -0.000384244 0.00895293
0.111329 -0.00540953 0.0424006
0.193493 -0.104356 1.09689
0 0 0
0.000266166 0.00122395 0.00280212
0.0101551 -0.0316163 0.00489465
-0.00340786 0.00253925 0.160978
0 0 0
0 0 0
0.0197495 -0.00122296 0.0113836
0 0 0
-0.00186182 -0.000418902 0.0106059
0 0 0
0 0 0
0 0 0
0 0 0
0.000823663 0.00291153 0.0164698
0 0 0
0 0 0
0 0 0
0.0114104 0.0252671 0.074514
0 0 0
6.90026e-19 -3.48063e-18 -1.17166e-17
0 0 0
-0.0106423 0.00804896 0.0969908
0 0 0
-0.0019537 0.535395 0.762446
-0.000177935 0.00117296 0.0206144
-0.000587288 -0.000645507 0.0201484
9.71795e-18 1.29768e-19 -1.31445e-16
0 0 0
-0.00325899 -0.132193 0.285831
0 0 0
-0.00323093 0.0220845 0.0801779
-0.00328152 0.0102366 0.0281532
0.0079024 0.00664819 0.0777532
-0.0233122 0.0480778 0.0530608
-0.0663999 -0.0213836 0.347838
0 0 0
-0.0128921 0.020881 0.148628
-0.00730959 -0.020835 0.0406389
0 0 0
0 0 0
0 0 0
0.00176382 0.00711903 0.00933886
0 0 0
0 0 0
0.000289038 0.000371097 0.00657808
-2.38281e-18 -9.02895e-18 -3.84342e-17
-0.000173505 -0.000332797 0.00554324
0.000342443 -0.00047288 0.00876145
0.0057778 -0.00183114 0.0193417
0 0 0
0 0 0
0 0 0
0 0 0
9.05721e-18 -4.64924e-21 -1.01757e-16
0 0 0
3.05753e-18 -2.92286e-18 -8.97779e-18
0 0 0
0 0 0
0 0 0
0 0 0
0 0 0
0 0 0