# vtk DataFile Version 2.0
tri_press
ASCII
DATASET UNSTRUCTURED_GRID
POINTS 3682 float
-0.755 0.345 -1.65426
-0.736978 0.325 1.605
-0.695 0.855 -1.6366
-0.585 1.415 1.20446
0.754097 0.345 -1.655
0.737657 0.325 1.605
0.695 0.855 -1.63756
0.585 1.41573 1.205
-0.794738 0.292588 -0.56784
-0.792465 0.282187 0.51858
-0.687697 1.07103 -0.68958
-0.675411 1.28208 0.25744
0.79547 0.29148 -0.568333
0.792998 0.281806 0.518333
0.687002 1.07058 -0.69004
0.658937 1.26609 0.25748
-1.47983 -0.122557 -2.39719
-1.48778 -0.0567259 -1.58372
-1.51119 -0.101818 -0.493722
-1.50199 -0.158807 0.624233
-1.45918 -0.144274 1.71658
-1.4487 -0.077325 2.54158
-1.45408 0.00840227 3.34523
-1.47817 0.223955 -2.43845
-1.48014 0.3191 -1.64018
-1.50631 0.316241 -0.57733
-1.48789 0.316101 0.497979
-1.42407 0.358103 1.5635
-1.42823 0.426609 2.38657
-1.44488 0.506936 3.19479
-1.45171 0.845091 -2.4819
-1.42544 0.931934 -1.67785
-1.42246 1.10472 -0.710027
-1.39129 1.28306 0.247837
-1.3139 1.4043 1.21834
-1.36911 1.46348 2.04726
-1.42016 1.52049 2.878
-1.43818 1.95465 -2.65193
-1.42501 2.07735 -1.86879
-1.41481 2.32037 -0.945989
-1.40178 2.59376 -0.0532667
-1.38816 2.79803 0.870991
-1.39898 2.89814 1.65716
-1.42395 2.96611 2.4726
-0.747094 -0.107031 -2.40645
-0.745157 -0.0345494 -1.59706
-0.769465 -0.110229 -0.492137
-0.774318 -0.185909 0.641771
-0.748589 -0.173386 1.74736
-0.747164 -0.0970562 2.56248
-0.754029 -0.00396359 3.35733
-0.754365 0.2289 -2.44152
-0.74481 0.411616 2.40385
-0.754142 0.497993 3.20393
-0.736685 0.813875 -2.46499
-0.699961 1.4663 2.04456
-0.741369 1.52109 2.87745
-0.725447 1.92528 -2.63514
-0.715165 2.04551 -1.85025
-0.711445 2.30235 -0.934824
-0.710944 2.596 -0.0546818
-0.708011 2.8098 0.861304
-0.719311 2.90883 1.64749
-0.739993 2.97346 2.46557
0.737147 -0.10781 -2.40709
0.768593 -0.0351569 -1.5977
0.789315 -0.111593 -0.492595
0.776996 -0.186992 0.64153
0.734526 -0.173999 1.7473
0.685714 -0.0980556 2.5625
0.6597 -0.00555933 3.35734
0.718497 0.228367 -2.44222
0.657482 0.410941 2.40393
0.640675 0.496484 3.20399
0.69341 0.813308 -2.46575
0.604533 1.46533 2.04482
0.615785 1.51923 2.87757
0.696602 1.92346 -2.6357
0.696838 2.04331 -1.85076
0.686741 2.29837 -0.935169
0.661458 2.58986 -0.0547991
0.636368 2.80481 0.86135
0.627527 2.90506 1.64756
0.623046 2.97018 2.46562
1.47727 -0.124589 -2.39839
1.50649 -0.0587117 -1.58488
1.53142 -0.105753 -0.49457
1.51694 -0.163191 0.62381
1.46217 -0.146739 1.71648
1.40774 -0.0800813 2.54159
1.37544 0.00480591 3.34523
1.45778 0.22232 -2.43974
1.4836 0.317791 -1.64145
1.51384 0.311773 -0.578202
1.49988 0.309864 0.497639
1.4352 0.356315 1.56356
1.37601 0.424228 2.3867
1.35195 0.50342 3.19487
1.42213 0.843355 -2.48326
1.42358 0.93058 -1.67924
1.42286 1.099 -0.710863
1.38802 1.26707 0.247726
1.31649 1.39987 1.21877
1.30655 1.46005 2.0476
1.31437 1.51624 2.87817
1.41131 1.95073 -2.65299
1.40761 2.07261 -1.86977
1.3929 2.31249 -0.946661
1.36077 2.58255 -0.0535362
1.32705 2.78845 0.871012
1.31599 2.89055 1.65724
1.31456 2.95946 2.47265
-0.702455 0.6 -1.62289
-0.000451505 0.312722 -1.68691
-0.778935 0.314728 -1.11105
-0.743281 0.87 1.48702
0.000339508 0.317964 1.61204
-0.756178 0.312137 1.06179
0 0.868956 -1.65104
-0.681494 0.953161 -1.16309
0 1.48089 1.27026
-0.640032 1.35837 0.73095
0.701571 0.6 -1.6233
0.778317 0.314707 -1.11167
0.742202 0.870365 1.48587
0.756483 0.312247 1.06167
0.681476 0.953265 -1.1638
0.619841 1.33878 0.73124
-0.799057 0.281932 -0.02463
-0.820903 0.68181 -0.62871
0.00036636 0.231544 -0.568087
-0.803119 0.782132 0.38801
0.000266507 0.231911 0.518457
-0.698556 1.19356 -0.21607
-0.000347719 1.26206 -0.68981
-0.00823691 1.57581 0.25746
0.799557 0.28132 -0.025
0.821525 0.681029 -0.629187
0.804948 0.773948 0.387907
0.685216 1.18058 -0.21628
-0.887011 0.640905 -1.13707
0.886956 0.640515 -1.13773
-4.25726e-05 0.259502 -1.11136
-0.00017386 1.00139 -1.16345
-0.000225753 0.6 -1.71087
-0.81852 0.731971 -0.12035
0.819633 0.727489 -0.12064
0.000316433 0.231861 -0.024815
-0.00429231 1.55885 -0.216175
-0.774187 0.826066 0.89637
0.775432 0.822157 0.896453
0.000303007 0.300691 1.06173
-0.00411846 1.55757 0.731095
0.000169754 0.870182 1.73406
-0.692112 0.4725 -1.60196
-0.377726 0.317224 -1.68222
-0.774385 0.322447 -1.38266
-0.771159 0.5975 1.57704
-0.368319 0.321473 1.60853
-0.746333 0.318814 1.3334
-0.711664 0.7275 -1.64268
-0.3475 0.844917 -1.62676
-0.708758 0.924592 -1.39985
-0.643008 1.1425 1.32461
-0.2925 1.46299 1.25241
-0.633995 1.40816 0.967705
0.376823 0.317119 -1.6827
0.6903 0.4725 -1.60162
0.773765 0.322295 -1.38333
0.368998 0.32152 1.60848
0.770684 0.597682 1.57619
0.746772 0.318921 1.33333
0.3475 0.844675 -1.62699
0.710673 0.7275 -1.64282
0.708806 0.924701 -1.40068
0.2925 1.46311 1.25243
0.643159 1.14305 1.325
0.634793 1.40963 0.96812
-0.778645 0.31185 -0.839445
-0.799737 0.28442 -0.296235
-0.812441 0.484889 -0.598275
-0.419225 0.217987 -0.567963
-0.764945 0.306539 0.790185
-0.798051 0.27977 0.246975
-0.811473 0.525319 0.453295
-0.415644 0.21796 0.518518
-0.643417 0.970917 -0.926335
-0.774581 0.886561 -0.659145
-0.709492 1.14866 -0.452825
-0.364247 1.20699 -0.689695
-0.659449 1.32195 0.494195
-0.719196 1.02207 0.322725
-0.687027 1.23786 0.0206851
-0.402446 1.55019 0.25745
0.780322 0.309665 -0.84
0.419681 0.217988 -0.56821
0.800186 0.283728 -0.296667
0.813017 0.483995 -0.59876
0.762601 0.309166 0.79
0.416081 0.217961 0.518395
0.798538 0.279303 0.246667
0.811792 0.521468 0.45312
0.643338 0.97102 -0.92692
0.359712 1.19909 -0.689925
0.775229 0.886287 -0.659613
0.698135 1.13761 -0.45316
0.640658 1.30371 0.49436
0.39074 1.55173 0.25747
0.721064 1.01458 0.322693
0.672015 1.22327 0.0206001
-0.894546 0.620452 -1.37998
-0.351341 0.6 -1.68907
-0.000247039 0.265472 -1.39913
-0.000338629 0.456361 -1.68185
-0.800795 0.477816 -1.12406
-0.389489 0.249198 -1.1112
-0.767097 0.848033 1.1917
-0.371555 0.870091 1.69115
0.000321258 0.307824 1.33688
0.000254631 0.594073 1.76658
-0.865024 0.569101 0.97908
-0.377938 0.296478 1.06176
-8.69299e-05 0.967456 -1.40724
-0.000112876 0.734478 -1.70238
-0.81278 0.797033 -1.15008
-0.340834 0.976 -1.16327
-0.00205923 1.53451 1.00068
8.4877e-05 1.17554 1.47759
-0.687262 1.09222 0.81366
-0.322075 1.54283 0.731023
0.894545 0.620257 -1.38052
0.350672 0.6 -1.68544
0.801602 0.477611 -1.1247
0.389137 0.256635 -1.11151
0.768138 0.846261 1.19116
0.371186 0.870274 1.69126
0.864059 0.567202 0.97906
0.378393 0.296477 1.0617
0.812589 0.79689 -1.15077
0.340651 0.97606 -1.16362
0.662923 1.08047 0.813847
0.307861 1.54391 0.731168
-0.809138 0.506777 -0.07249
-0.41884 0.217958 -0.0247225
-0.83245 0.661357 -0.88289
-0.817537 0.70689 -0.37453
0.000161894 0.252283 -0.839723
0.000341397 0.231575 -0.296451
-0.815118 0.757052 0.13383
-0.787285 0.804099 0.64219
0.00029147 0.231634 0.246821
0.000284757 0.296625 0.790093
-0.747742 0.957365 -0.16821
-0.429965 1.53329 -0.216122
-0.00026079 1.03804 -0.926628
-0.00232002 1.52168 -0.452993
-0.00626461 1.56971 0.0206426
-0.00617768 1.57185 0.494278
0.809548 0.504428 -0.07282
0.419253 0.217958 -0.0249075
0.844604 0.660772 -0.88346
0.818089 0.704259 -0.374913
0.816551 0.750719 0.133633
0.78866 0.798052 0.64218
0.749668 0.952656 -0.16846
0.422842 1.53448 -0.216227
-0.801359 0.475158 -1.38132
-0.837157 0.482508 -0.861168
-0.793072 0.836727 -0.904613
-0.799175 0.762266 -1.38991
0.800432 0.475055 -1.38193
0.798808 0.762195 -1.3906
0.793808 0.836347 -0.90519
0.850668 0.481933 -0.86173
-0.383607 0.256363 -1.39089
0.38298 0.260707 -1.39123
0.393528 0.249373 -0.839861
-0.393337 0.240587 -0.839584
-0.344167 0.935035 -1.40354
-0.342428 1.01088 -0.926481
0.341989 1.01089 -0.926774
0.344076 0.935085 -1.40396
-0.364533 0.46443 -1.66327
-0.34942 0.730989 -1.6625
0.349086 0.730989 -1.66263
0.363748 0.46443 -1.65877
-0.810131 0.496162 -0.335383
-0.811099 0.515651 0.190403
-0.735918 0.990942 0.0772576
-0.761312 0.922038 -0.413678
0.810563 0.494571 -0.33579
0.762927 0.919711 -0.414037
0.730011 0.980941 0.0771167
0.811524 0.51252 0.19015
-0.419043 0.217952 -0.296343
0.419477 0.217953 -0.296559
0.417667 0.21796 0.246744
-0.417242 0.217959 0.246898
-0.450574 1.47708 -0.452909
-0.417272 1.54387 0.0206638
0.407874 1.54527 0.0206213
0.44678 1.47779 -0.453076
-0.812074 0.550631 0.716188
-0.862476 0.583301 1.26255
-0.677243 1.11736 1.0797
-0.704516 1.06216 0.568193
0.810874 0.547539 0.71609
0.6826 1.05024 0.56827
0.649693 1.11176 1.07964
0.862532 0.582442 1.26225
-0.387018 0.292295 0.790139
0.387513 0.292293 0.790046
0.373696 0.303549 1.33511
-0.373128 0.30355 1.33514
-0.33195 1.55419 0.494236
-0.307288 1.52294 0.984191
0.300181 1.52346 0.984399
0.316606 1.55548 0.494319
-0.369937 0.595787 1.75859
0.370092 0.595878 1.75868
0.331843 1.15929 1.43733
-0.332028 1.15902 1.44346
-0.702467 0.40875 -1.60702
-0.566363 0.321779 -1.67757
-0.773825 0.324591 -1.51846
-0.764515 0.46125 1.60147
-0.552649 0.322863 1.60714
-0.744385 0.319178 1.4692
-0.706052 0.79125 -1.64236
-0.52125 0.859919 -1.64164
-0.711481 0.899398 -1.51822
-0.610599 1.27875 1.26113
-0.43875 1.44134 1.23078
-0.616779 1.41886 1.08608
0.56546 0.321987 -1.67792
0.702224 0.40875 -1.60833
0.772417 0.325161 -1.51917
0.553328 0.322876 1.60712
0.764108 0.461341 1.60053
0.744977 0.319198 1.46917
0.52125 0.858958 -1.6414
0.70516 0.79125 -1.64251
0.711397 0.899344 -1.51912
0.43875 1.4417 1.23099
0.610525 1.27939 1.26144
0.616547 1.41933 1.08656
-0.794878 0.294033 -0.703643
-0.796977 0.288765 -0.432038
-0.801158 0.389954 -0.583058
-0.625346 0.218558 -0.567902
-0.794659 0.278409 0.654383
-0.796141 0.280095 0.382778
-0.799152 0.405162 0.485938
-0.619801 0.218579 0.518549
-0.635791 0.991208 -0.807958
-0.738635 0.982544 -0.674363
-0.712808 1.12406 -0.571203
-0.528801 1.14467 -0.689638
-0.671217 1.3058 0.375818
-0.697864 1.15235 0.290083
-0.680574 1.25932 0.139063
-0.582202 1.50268 0.257445
0.795596 0.292873 -0.704167
0.625663 0.218558 -0.568272
0.797723 0.287709 -0.4325
0.802193 0.388763 -0.583547
0.791676 0.281609 0.654167
0.620173 0.218616 0.518364
0.79668 0.279642 0.3825
0.79955 0.403059 0.485727
0.635574 0.991204 -0.80848
[...]
POINT_DATA 3682
SCALARS point_scalars float 1
LOOKUP_TABLE default
-92.5207
-60.7116
-33.948
-46.1401
-88.7772
-57.7238
-32.6986
-41.8131
-53.3014
-44.6401
-79.4738
-66.0326
-52.9676
-44.206
-81.2302
-64.5056
-95.6487
-126.835
-50.0203
-49.8891
-61.7331
-55.9032
-46.3788
-95.6487
-123.419
-53.0306
-44.1373
-55.2233
-50.3343
-45.1224
25.434
-125.2
-71.4815
-65.0558
-45.9795
-47.0947
-43.0286
-31.9398
-68.6948
-166.724
-88.3922
-52.7633
-47.2414
-45.6937
70.0432
-140.876
-53.5498
-58.7024
-58.0873
-45.6653
-45.9492
70.0432
-43.6706
-43.0023
132.44
-40.4768
-41.1634
-12.8549
-71.4713
-159.567
-93.1209
-53.9728
-46.6312
-41.417
79.2156
-153.112
-53.2511
-58.0601
-55.3815
-43.6826
-43.9912
79.2156
-41.585
-41.5293
132.389
-34.6013
-35.8541
-12.9316
-71.5949
-140.003
-93.7799
-53.3944
-42.3112
-37.8927
-94.1981
-124.937
-49.8729
-46.2901
-58.5063
-52.9682
-43.9711
-94.1981
-135.861
-52.7593
-43.3091
-52.1501
-43.112
-42.6228
26.6417
-124.551
-71.4893
-61.4914
-42.2525
-40.8204
-39.5498
-31.6835
-68.6362
-152.309
-89.7642
-49.8327
-43.1814
-41.909
8.52349
-179.991
-62.0412
-47.2431
-48.8181
-45.5066
21.3986
-32.4662
-39.1975
-52.2157
10.4903
-61.2802
-43.0012
-44.58
-32.5654
-49.6373
-47.0305
-58.0507
-58.1853
-51.5533
-54.0787
-92.0275
91.2521
-78.812
-46.3917
-57.8495
-49.7806
-92.3292
-75.3694
-75.322
-68.6416
19.3391
202.528
-56.9657
-56.2528
-51.8176
-128.467
-45.3429
-42.2751
-46.8127
-57.087
-38.9277
-24.7284
-141.374
-98.0123
-50.3562
-51.1926
-47.7919
10.1264
-6.90764
-56.3243
-43.514
-41.1761
-47.5045
-140.463
-19.3618
-98.8001
-49.6523
-47.2304
-46.1892
-7.08161
12.4142
-56.3035
-38.533
-39.6375
-44.594
-47.0513
-49.1478
-53.2767
-58.1246
-52.8864
-44.8466
-44.859
-52.8764
-22.4423
-79.9384
-120.375
73.11
-58.6225
-59.6581
-76.363
-75.9918
-42.7772
-58.1888
-48.7362
-53.0661
-52.2001
-52.5702
-44.1437
-43.5536
-22.7042
70.5184
-79.943
-119.61
-57.0064
-75.4465
-58.176
-75.746
-134.778
192.627
-98.3346
194.295
-74.3751
-65.095
-48.5428
-40.5954
-45.7239
-42.1227
-48.181
-46.1031
-19.3132
163.327
-66.9358
4.88005
-47.7393
-35.6009
-48.7626
-56.7654
-133.991
193.07
-74.6556
-65.044
-45.1463
-35.5928
-46.1545
-45.6225
-66.8489
4.49755
-45.6411
-55.6055
-49.4381
-50.3974
-60.9967
-58.835
-56.3098
-54.0365
-52.1559
-47.2357
-51.7804
-55.0789
-75.1443
-128.327
45.9713
-175.626
-96.5071
-66.9048
-48.8129
-50.2248
-61.1008
-58.1443
-53.0045
-45.0272
-75.9381
-127.269
-123.957
-59.8626
-61.1971
-76.0188
-123.72
-76.0175
-60.1267
-60.3725
-94.7006
-96.0752
-51.8906
-52.7474
-31.4538
27.9117
27.2973
-31.6824
185.193
158.168
160.105
183.662
-51.0531
-47.2541
-66.5787
-83.6567
-50.5867
-84.2784
-66.8639
-46.1037
-52.7039
-52.6143
-50.0981
-50.3016
-109.942
-92.0258
-91.4927
-102.83
-37.5637
-53.8704
-45.8782
-53.1799
-35.8278
-51.5244
-41.0533
-51.392
-55.2585
-54.776
-44.9439
-45.7075
-65.8043
-49.2116
-47.5307
-65.0518
-42.7239
-41.343
-34.6098
-38.7887
-19.5541
-151.632
-125.249
-53.6859
-53.8461
-50.0345
0.193313
6.35271
-69.5657
-43.9077
-42.9916
-48.3045
-151.306
-13.4177
-123.017
-51.5752
-50.7308
-48.1888
7.67772
2.46216
-69.4183
-39.252
-39.8558
-44.8107
-60.3667
-49.8183
-52.9499
-56.9075
-50.5713
-45.4823
-43.9934
-50.916
-26.5263
-110.257
-148.538
34.9246
-62.2927
-63.0039
-70.6336
-72.0276
-60.0071
-56.7855
-49.6361
-52.7175
-49.4839
-50.6593
-44.8139
-43.0589
-24.8375
34.119
-114.291
-146.844
-61.4855
-71.1889
-61.3738
-69.6894
-6.59161
10.3959
-37.1479
169.687
-179.858
-178.278
-131.89
178.123
-74.7005
-52.1348
-71.9831
-61.0411
-49.4412
-44.2992
-48.1493
-41.4004
-49.7292
-48.9527
-46.8647
-43.0355
-46.6925
-47.0548
-48.22
-45.138
26.069
25.633
-47.9961
138.521
-42.311
-25.0651
-57.5246
-8.74347
-40.1698
-38.4959
-43.1582
-36.0318
-49.175
-55.094
-50.5267
-55.7335
-4.02325
12.5059
-35.3127
171.169
-75.1205
-51.9099
-73.043
-61.5199
-45.8901
-40.2703
-44.717
-36.4286
-45.3722
-46.0415
-46.6214
-44.461
-42.3852
-25.1182
-57.5139
-9.16262
-46.2288
-53.0849
-47.7267
-54.3174
-48.2393
-46.067
-48.0831
-48.7084
-54.4656
-65.1129
-57.1348
-58.8425
-58.3053
-58.3224
-56.9184
-55.8964
-47.3583
-56.5574
-56.1544
-49.3714
-53.9936
-53.8384
-52.622
-56.4122
-104.092
-83.3607
-82.8994
-115.213
87.9947
87.7142
62.6743
27.381
-78.3966
-77.9817
-86.6325
-72.5275
-47.7156
-45.2852
-47.4421
-48.3571
-54.2742
-64.9419
-57.3526
-58.4758
-45.7549
-55.3565
-52.799
-47.5493
-104.401
-83.1781
-82.7523
-113.674
-95.9506
-75.1739
-77.501
-68.5718
-95.9428
-75.3133
-77.5109
-68.3427
-79.3834
-67.9486
-67.7164
-61.727
2.6791
16.1783
15.9586
34.0004
200.105
200.787
201.121
199.958
-51.9169
-58.3067
-55.3931
-66.7102
-51.2662
-57.5578
-55.1221
-65.8615
-51.4826
-52.6707
-51.5313
-51.4017
-129.647
-156.126
-108.925
-129.218
-46.8484
-41.9403
-47.1155
-45.42
-43.4576
-38.8849
-44.4323
-42.7467
-45.775
-46.6705
-46.4224
-49.4696
-52.1082
-57.0671
-56.4772
-61.8294
-39.7725
-41.8362
-36.201
-37.6878
-160.218
160.834
-130.52
182.013
-114.625
-90.8917
-57.1978
-43.1568
-47.8102
-43.6191
-52.4947
-45.6423
-91.3986
188.584
-56.4592
116.687
-70.7359
-39.3484
-45.3599
-39.5514
-45.3278
-38.6363
-46.5832
-49.8212
-131.901
182.741
-159.522
162.03
-115.727
-92.3917
-46.7843
-42.0936
-53.9659
-41.184
-50.1771
-44.5896
-56.6162
116.609
-92.198
189.349
-70.7601
-39.7106
-43.1765
-35.4667
-40.5547
-35.4175
-42.2274
-47.586
-60.4377
-39.9264
-50.0838
-51.0439
-56.1581
-52.1153
-57.662
-54.7753
-38.739
-55.3225
-45.5776
-48.1199
-46.5514
-41.9583
-51.229
-57.5323
-58.7252
8.64311
-70.9764
-85.4738
-96.8314
-156.404
38.061
52.3492
-56.0368
-63.0999
-62.8701
-55.9336
-71.5409
-85.2297
-83.015
-70.6685
-61.3992
-39.8154
-57.6897
-54.7442
-49.6114
-50.8664
-56.1049
-51.8258
-37.7333
-54.581
-50.9939
-57.0897
-44.6031
-47.9213
-45.3493
-40.6252
-58.6674
8.26756
38.7971
58.2642
-70.4238
-85.673
-98.8258
-148.549
-54.1672
-62.3457
-82.3153
-70.0113
-62.121
-55.4078
-70.8253
-85.0898
-131.347
-92.5355
190.693
184.839
-97.0873
-97.6829
194.283
194.464
-91.1558
-63.4729
-76.5215
-57.6947
-54.9293
-46.0209
-42.0537
-39.3606
-45.2496
-45.6352
-42.2787
-41.515
-38.204
-50.8311
-48.8792
-45.2679
-22.4975
-22.6299
159.987
161.688
-63.3235
-69.8468
-11.0477
18.1964
-48.4841
-47.57
-34.4239
-37.2926
-46.9703
-50.7626
-60.8665
-52.9224
-130.965
-91.8349
186.204
190.52
-90.9791
-63.6326
-77.4909
-57.6146
-41.5605
-51.8839
-39.6302
-34.4493
-37.5088
-48.893
-48.4364
-44.6855
-69.8171
-63.2443
17.7124
-11.3925
-48.2179
-43.3201
-51.5584
-59.9942
-50.4187
-48.0962
-51.27
-50.0586
-62.1053
-60.6687
-53.3205
-68.982
-55.682
-55.9168
-53.7295
-53.6855
-50.0373
-62.1117
-42.4024
-50.8562
-51.3224
-51.4284
-55.1575
-54.9386
-70.4279
-80.0936
-167.3
-105.662
41.4112
41.2119
-163.743
-165.845
-95.6304
-95.3544
-66.8243
-66.4121
-49.8113
-47.2961
-51.1356
-49.8667
-60.5362
-63.058
-52.8615
-68.2398
-60.968
-48.6756
-40.2982
-49.5953
-81.2044
-71.329
-105.306
-167.297
-156.514
-89.9381
-92.3321
-124.021
-56.731
-55.6612
-65.3361
-62.6096
-74.1652
-55.256
-66.1943
-61.2335
-91.5964
-68.4633
-96.0431
-64.088
-154.972
-126.078
-92.2475
-89.8181
-92.1383
-64.262
-96.1502
-68.745
-72.0722
-62.3906
-67.16
-55.0889
-56.5476
-62.7369
-65.3394
-55.7846
-126.075
-131.739
-78.7475
-73.1164
-127.511
-74.36
-79.3119
-131.719
-66.8096
-55.7466
-60.8883
-51.3384
-67.0939
-50.9915
-60.9181
-55.8204
-60.7216
-23.08
-1.33041
-49.2945
19.2796
56.1788
28.9586
0.896118
17.3366
0.48141
28.695
56.256
-61.2932
-49.2503
-1.5034
-23.5099
130.74
169.278
199.249
195.169
144.27
124.73
194.636
180.535
144.316
181.24
194.536
123.506
131.123
195.641
199.15
170.746
-51.2244
-49.2841
-52.7614
-54.028
-45.2906
-49.5428
-50.7068
-46.8482
-66.8298
-76.903
-63.8348
-61.9058
-105.426
-68.2643
-68.2012
-89.3541
-50.8161
-53.6813
-52.1771
-48.736
-104.944
-90.379
-67.3152
-67.9243
-65.8842
-58.36
-63.0986
-76.3126
-44.3718
-46.0641
-49.9783
-47.8027
-53.207
-55.6952
-52.3352
-49.618
-53.0713
-49.4006
-52.2705
-55.6787
-48.8297
-52.1971
-51.0771
-47.8089
-49.0757
-48.1885
-51.1704
-52.3224
12.5593
-162.476
-158.746
45.558
-78.2609
-86.1838
-108.794
-95.5824
-76.3139
-95.5162
-108.466
-85.8314
27.0882
50.3259
-158.481
-161.205
-41.2243
-49.0134
-40.3952
-45.1075
-53.9831
-53.2764
-49.608
-49.1957
-46.1135
-48.2564
-46.3695
-45.6329
-59.1609
-53.5676
-48.5591
-53.0725
-40.3265
-43.3283
-37.9269
-47.34
-58.2495
-50.7169
-46.5695
-52.5136
-42.1848
-41.8245
-42.8868
-44.9573
-51.0984
-47.4204
-46.7353
-49.9183
-56.6242
-56.9505
-49.3564
-47.6197
-55.6092
-46.9891
-49.1336
-56.7611
-47.1508
-46.7365
-45.3384
-44.042
-48.5972
-44.8662
-45.6377
-47.2619
-65.8215
-59.1993
-61.7585
-72.2013
-47.0437
-44.1392
-52.6667
-52.6631
-44.1484
-50.8979
-51.9185
-42.9516
-64.5208
-71.8266
-61.2704
-58.0416
-44.1552
-43.5213
-42.0772
-42.4779
-42.0492
-38.9663
-41.2455
-42.7602
-36.1045
-35.2962
-34.642
-35.6139
-39.6754
-40.1583
-37.7678
-37.4155
-50.0072
-84.4786
-156.027
-57.1305
-56.5458
-52.8813
-9.64379
16.1326
-81.8535
-44.8535
-45.3641
-47.5072
-70.1836
-42.6839
-159.816
-53.9734
-54.0184
-50.4805
17.7428
-8.35971
-82.2139
-40.88
-40.4709
-43.4916
-56.7905
-50.8979
-53.0275
-56.1719
-44.639
-45.2242
-44.0332
-47.6065
-36.5635
-113.009
-137.654
-0.669859
-63.8911
-64.5514
-68.2125
-68.7178
-56.4145
-55.9419
-50.6358
-52.785
-44.644
-47.522
-44.626
-43.2559
-31.1718
1.47443
-116.278
-141.827
-62.6977
-67.8578
-62.9487
-66.9918
0.425707
9.15015
-59.402
119.674
-177.49
-176.438
-131.469
40.8395
-67.1185
-57.1562
-68.2342
-60.2908
-49.206
-45.0445
-47.5999
-42.5187
-49.345
-48.9547
-47.8765
-44.864
-45.3214
-46.207
-47.4535
-44.7684
29.3764
29.0462
-37.2385
96.7047
-37.4619
-28.5442
-48.3115
-17.4553
-39.5892
-38.7612
-41.3869
-36.7281
-50.5024
-53.6331
-51.2767
-54.0255
2.44004
11.0117
-55.9942
120.979
-67.2261
-57.2843
-69.1234
-60.4031
-45.1968
-40.9296
-43.8683
-38.216
-44.3084
-45.2086
-45.9855
-44.0132
-37.5893
-28.6298
-48.3209
-17.7171
-48.0563
-51.2608
-48.6607
-52.0004
-47.6122
-46.5295
-47.7905
-47.4596
-55.8427
-61.5073
-57.1098
-58.6645
-58.2147
-58.205
-59.2774
-57.0025
-49.2189
-54.1631
-53.1918
-50.466
-54.053
-53.9835
-53.289
-55.1306
-97.5314
-87.4331
-86.8931
-103.713
90.2599
89.5244
80.1049
80.444
-78.8064
-78.6361
-82.4814
-75.5347
-47.0616
-45.6937
-47.1315
-47.1369
-55.6626
-61.1885
-57.0428
-58.2575
-47.4725
-52.702
-51.1222
-48.7426
-97.6971
-87.4501
-87.1987
-103.402
-82.0664
-74.8558
-77.4303
-71.6013
-82.0224
-74.8717
-77.3822
-71.5327
-73.2832
-68.4393
-68.3409
-64.6104
11.4939
18.518
18.4123
26.2235
201.707
203.43
201.525
201.614
-53.9007
-57.7001
-56.3262
-61.4546
-53.2725
-56.9313
-55.7699
-60.6553
-51.7384
-52.2161
-51.6013
-51.7008
-128.779
-143.496
-117.452
-128.521
-45.8872
-44.1987
-46.4324
-45.0583
-42.5902
-41.1782
-43.3126
-42.3164
-46.2453
-46.8418
-46.7248
-47.9034
-54.5326
-57.1781
-56.876
-59.4597
-39.3724
-41.0311
-36.9235
-38.5935
-18.7846
-10.5757
-101.097
76.9416
-136.954
-160.001
-125.904
65.6002
-118.748
-85.1664
-108.339
-90.1408
-52.1869
-49.3458
-53.5918
-44.8678
-52.1209
-50.3629
-49.9587
-45.6857
-48.0136
-47.9282
-50.5593
-45.9446
3.37117
11.3156
-82.4362
133.308
-8.61138
15.4378
-66.7052
69.1359
-65.3475
-46.2013
-63.8247
-46.2096
-43.4567
-43.784
-45.5663
-40.443
-42.0584
-40.6284
-43.5207
-39.2094
-48.5866
-47.0988
-47.011
-49.6392
-152.232
-158.182
-128.963
70.2931
-20.2365
-8.7287
-100.753
84.8816
-122.036
-85.4888
-109.84
-91.5882
-50.213
-49.2119
-48.6965
-44.0342
-49.2646
-45.9437
-49.9454
-42.6128
-46.3138
-46.4642
-48.7299
-44.7251
-8.32367
15.5255
-66.742
69.9512
5.77389
12.7443
-81.5831
134.545
-65.0989
-46.2812
-63.8279
-46.4086
-38.7259
-38.3605
-41.0595
-36.1895
-39.5387
-39.7979
-41.846
-36.4381
-45.1954
-43.6195
-43.0528
-47.3249
-55.5758
-47.7365
-57.7301
-34.7831
-49.3152
-48.6263
-49.9315
-49.7525
-53.1182
-53.6154
-53.8804
-52.7387
-58.0148
-58.0917
-59.801
-56.142
-57.7152
-48.4593
-44.3047
-55.8675
-45.2554
-45.1977
-44.6383
-46.0692
-44.2913
-45.7872
-45.4577
-43.7364
-51.9235
-53.6995
-51.9674
-54.8111
-22.9615
-23.1222
-51.4238
-3.37433
-91.4741
-69.8972
-77.1398
-84.3168
-135.237
-111.748
-107.704
-170.63
58.8432
83.6969
53.5204
74.5275
-60.6731
-56.7661
-57.1913
-61.2556
-61.2145
-58.0354
-61.2464
-57.6753
-73.4333
-79.6756
-73.8837
-79.9896
-74.3125
-77.6096
-79.3306
-73.3422
-55.2879
-48.0267
-58.0066
-34.51
-57.9665
-58.1654
-59.9723
-56.1502
-49.1147
-48.1439
-49.446
-49.4997
-52.8737
-53.4079
-53.7726
-52.4258
-56.0622
-47.7387
-43.5622
-55.0348
-51.597
-53.464
-51.704
-54.4478
-44.5633
-44.5345
-43.6243
-45.9113
-43.1775
-44.3209
-44.1566
-42.3874
-22.4668
-23.1061
-51.1847
-3.63256
55.6846
82.8991
51.6761
75.7816
-92.0162
-69.9908
-76.8298
-84.322
-133.385
-111.536
-106.694
-172.31
-59.0611
-55.0037
-55.5369
-59.7783
-73.4876
-77.0922
-78.719
-72.6493
-59.4323
-56.8049
-59.5706
-57.7355
-72.6458
-79.2921
-73.2915
-79.5373
-132.355
-116.34
-138.455
-128.625
184.585
197.826
192.177
189.184
-115.129
-87.8702
-97.6896
-97.9425
198.254
196.539
195.05
195.127
-73.6923
-75.1527
-81.757
-67.9881
-62.8186
-66.9291
-70.1547
-60.9884
-48.8155
-47.886
-50.674
-46.7948
-41.1189
-40.1753
-41.363
-39.9342
-46.1705
-45.5885
-45.5558
-45.7353
-42.4739
-41.8741
-42.1858
-41.7841
-48.7021
-43.1421
-46.7313
-49.6576
-45.6487
-46.463
-47.1759
-45.6779
-28.5206
-8.52477
-20.0476
-20.15
155.88
188.097
159.952
161.698
-63.9047
-72.0248
-65.2289
-68.4197
-2.3548
11.6676
-2.62767
11.8659
-45.4598
-49.9628
-48.1235
-47.6534
-35.6672
-35.795
-34.8114
-36.5118
-49.6814
-47.641
-47.8233
-49.744
-56.4958
-56.9284
-58.7585
-54.8618
-132.993
-115.814
-137.754
-128.002
185.45
197.744
190.079
192.263
-74.1374
-75.4592
-81.7655
-68.1124
-63.1484
-66.5204
-70.682
-60.9087
-45.3778
-44.3949
-43.1174
-47.4911
-35.6502
-36.6724
-37.6739
-34.4111
-46.7947
-41.7824
-45.2086
-47.2566
-45.0618
-46.0992
-46.7221
-45.1512
-63.8317
-72.0413
-68.4341
-65.2109
-2.79396
11.3476
11.4443
-2.98979
-46.7954
-45.0217
-46.9182
-44.5333
-55.1429
-56.0488
-53.6329
-57.7456
-48.712
-50.4439
-50.0406
-48.7578
-49.6319
-51.0177
-50.7827
-50.1718
-59.5452
-62.3619
-61.5075
-61.3619
-58.8952
-58.6679
-55.4569
-63.4824
-55.9587
-59.3377
-56.2757
-56.4006
-54.9202
-53.3085
-53.9474
-53.9244
-55.0726
-53.8768
-52.0694
-53.8536
-48.2884
-46.2194
-44.7156
-49.3327
-52.1237
-51.5904
-51.6399
-51.6888
-59.945
-51.6682
-55.1668
-55.0577
-78.5582
-72.0813
-72.7276
-77.5752
-124.185
-129.424
-146.903
-115.43
51.9539
39.8941
44.7124
44.9376
-81.866
-176.237
-175.418
-176.377
-91.2859
-102.011
-96.3003
-96.1761
-69.6545
-64.3435
-66.9452
-66.7223
-48.067
-49.8077
-49.3906
-48.057
-49.3909
-50.8949
-50.6277
-49.9871
-60.3388
-61.9175
-59.6874
-63.0717
-58.3618
-57.9172
-54.9329
-62.7218
-52.8617
-54.2035
-56.4514
-50.6452
-46.2582
-43.7918
-42.5175
-47.3598
-79.5952
-71.5642
-78.7532
-73.6008
-124.074
-128.88
-114.831
-146.005
-145.294
-117.364
-122.374
-104.449
-59.1542
-60.1869
-59.1019
-61.1107
-62.178
-64.6619
-61.6745
-60.301
-80.4657
-75.2443
-74.4828
-73.2873
-145.14
-118.864
-124.478
-104.176
-80.8301
-75.2952
-74.3239
-73.0645
-61.7268
-63.816
-61.6359
-60.3569
-59.7126
-60.9049
-59.0199
-61.7936
-111.957
-92.507
-96.1466
-84.6714
-114.103
-93.685
-97.1738
-85.7991
-47.8887
-51.8185
-54.8656
-54.1573
-47.536
-52.9365
-55.0965
-54.673
-42.6011
-33.9064
-26.3959
-21.2559
17.894
33.4113
23.5688
36.111
17.4058
32.4282
23.0664
35.4577
-42.8018
-34.2385
-26.5481
-21.5598
177.459
189.127
186.253
191.915
171.295
145.58
172.465
156.04
146.104
171.925
158.93
174.716
186.911
178.615
191.75
185.727
-50.5419
-51.4583
-50.7166
-51.8959
-46.3974
-47.1343
-47.6071
-48.3739
-64.722
-69.067
-65.2363
-68.3184
-84.8098
-89.6249
-76.4789
-82.3171
-50.0784
-51.1557
-50.2123
-51.447
-85.2088
-91.4566
-75.8308
-83.1211
-64.6501
-68.984
-64.5171
-69.1557
-45.3086
-45.8774
-46.6677
-47.1677
-51.998
-53.6637
-51.9298
-53.2999
-53.6007
-51.8623
-53.2394
-51.8168
-50.4592
-49.1781
-50.7943
-49.9113
-49.4123
-50.6748
-50.1079
-50.952
-100.533
-17.1146
-176.536
-151.505
-89.4539
-87.1308
-98.0496
-94.4681
-86.5035
-88.9264
-94.0292
-97.7483
3.81056
-99.7558
-150.503
-180.221
-35.8649
-39.8782
-34.8406
-40.0441
-55.9738
-53.395
-54.9649
-51.9954
-45.455
-46.0213
-45.715
-46.3839
-54.5988
-54.5777
-51.9236
-51.7539
-34.2098
-38.4332
-33.1788
-38.1656
-52.6649
-53.4235
-49.6845
-50.7079
-39.8647
-41.3788
-40.4566
-42.2725
-53.0551
-50.9528
-52.3962
-49.8426
-55.2051
-61.8009
-51.5469
-55.1584
-54.6178
-61.2898
-51.1
-54.822
-45.718
-44.8033
-45.1408
-44.4797
-46.5981
-45.7285
-45.7127
-45.1347
-64.6353
-68.2393
-63.2186
-66.479
-47.1143
-49.4122
-48.8353
-51.0312
-45.1696
-47.3875
-47.5177
-49.5181
-63.713
-67.5927
-62.4303
-65.8839
-42.9022
-43.1193
-42.4279
-42.3928
-41.8141
-41.1144
-41.3484
-40.7342
-34.9689
-34.9766
-34.2806
-34.5307
-39.2172
-38.5579
-39.0493
-38.1152
-112.568
97.7585
-156.317
74.0749
-133.102
-122.603
-57.4915
-46.0128
-51.8461
-47.1294
-52.9947
-48.9752
-85.6637
108.741
-67.8669
81.717
-86.6041
-70.2106
-45.7707
-40.6888
-46.041
-40.4352
-46.7119
-48.3926
-161.793
80.9303
-103.215
96.6391
-126.437
-124.574
-50.0189
-44.8584
-54.4471
-43.6194
-50.3051
-47.3879
-67.6976
81.6596
-84.1038
110.024
-86.827
-70.2569
-42.6116
-36.8629
-41.8273
-36.9295
-43.0017
-45.0556
-58.9378
-63.3229
-51.0351
-51.3999
-53.8141
-52.0007
-61.2301
-54.7783
-44.0293
-56.0924
-45.218
-47.1379
-44.4617
-41.9111
-49.8183
-52.3715
-54.6387
2.36009
-94.4743
-107.618
-125.802
-108.599
22.1444
41.8857
-60.5641
-66.0577
-64.829
-60.9829
-68.8169
-73.564
-75.0576
-68.8753
-58.3206
-63.5694
-61.4249
-54.6514
-50.6204
-51.2731
-53.5324
-51.7236
-43.2391
-55.0314
-49.5627
-52.1511
-44.3879
-46.8809
-43.533
-41.0966
-52.8596
2.98774
20.4952
39.1662
-93.1917
-108.829
-122.8
-107.668
-59.65
-64.8084
-74.129
-68.0274
-63.626
-60.0929
-67.8319
-72.1663
-58.6172
116.719
-75.5786
130.568
-77.8389
-53.2832
165.905
173.244
-132.743
51.4873
-131.166
53.1063
-132.602
-132.316
191.409
191.938
-83.9708
-71.9298
-60.1434
-49.828
-79.3101
-67.7249
-66.3982
-56.0578
-50.8826
-43.3307
-45.3291
-41.0385
-50.8523
-46.1456
-42.1304
-40.6898
-48.8257
-45.4592
-48.1833
-44.6207
-46.7642
-47.02
-43.4694
-43.0974
-48.201
-45.1999
-48.5685
-46.7209
-48.1675
-48.5492
-45.9801
-45.0856
-54.8487
89.7547
-54.1494
87.7517
-47.4066
-47.2768
125.801
135.278
-57.3154
-29.9181
-45.2687
-9.99323
-56.18
-60.4954
-15.1965
-3.25697
-42.2481
-38.0275
-40.9792
-36.162
-43.6231
-42.9996
-35.5262
-36.7108
-48.8209
-51.3649
-54.1099
-56.9587
-49.2784
-51.7911
-57.528
-54.1665
-55.7031
118.025
-74.3197
131.922
-77.8615
-53.5545
174.372
168.203
-84.5812
-72.8085
-60.0625
-50.0325
-80.9523
-67.6951
-67
-56.2308
-47.4581
-39.7376
-41.4496
-36.832
-42.4712
-47.6983
-37.738
-35.8451
-46.5608
-44.2485
-46.9603
-45.9981
-46.7367
-46.8762
-45.3431
-44.3407
-57.3538
-30.2223
-45.1706
-10.2608
-60.6691
-56.0893
-3.67938
-15.6118
-45.5177
-49.1945
-51.8894
-55.4406
-49.2205
-46.2759
-52.4798
-56.2642
-49.0994
-48.5023
-47.1706
-47.0513
-48.753
-47.3539
-49.1234
-48.4672
-54.4621
-54.4123
-61.7966
-67.3329
-55.9789
-58.5448
-55.9247
-63.1688
-59.67
-56.9239
-59.676
-56.9232
-56.4503
-56.5029
-55.8227
-55.8087
-48.4022
-46.6126
-58.5336
-55.0629
-52.4633
-61.5893
-47.1542
-51.9116
-53.0447
-55.2323
-52.906
-55.0615
-52.4863
-52.5434
-56.6611
-56.5721
-96.574
-126.855
-79.8173
-89.508
-79.8572
-86.0244
-134.164
-104.063
75.7922
77.9232
74.6089
79.5888
60.9369
62.7081
30.8609
35.2565
-82.0924
-75.1561
-81.7209
-74.7789
-86.641
-86.4909
-72.5165
-72.3117
-48.5247
-48.212
-46.4097
-46.0894
-48.1615
-46.6322
-48.881
-48.0009
-54.3866
-54.1311
-61.7644
-67.3452
-58.9318
-56.1165
-55.5708
-62.7444
-46.8663
-44.8307
-56.705
-53.9161
-55.4851
-50.0495
-45.2757
-50.3135
-96.0519
-123.519
-79.9217
-89.0588
-86.3304
-79.4887
-103.658
-130.097
-92.3268
-97.2531
-81.8189
-69.5217
-71.6069
-85.1533
-66.5293
-69.5528
-92.1956
-97.26
-81.9025
-69.5982
-85.1922
-71.8822
-69.5066
-66.409
-79.014
-79.4718
-72.7233
-63.9854
-72.8973
-63.9531
-61.4751
-61.5082
1.68532
1.63048
8.17924
23.0564
22.8238
7.97444
32.6762
32.5378
201.265
197.479
200.345
200.305
199.812
199.835
197.376
201.082
-52.3946
-51.3439
-54.9139
-62.7332
-52.5772
-59.1844