# vtk DataFile Version 2.0
tri_press
ASCII
DATASET UNSTRUCTURED_GRID
POINTS 3682 float
-0.765 0.185 -2.11114
-0.735 0.265 2.20626
-0.775 0.706987 -2.025
-0.665 1.07445 2.125
0.765 0.185 -2.11186
0.735 0.265 2.20726
0.775 0.707969 -2.025
0.665048 1.075 2.125
-0.835247 0.13142 -0.672007
-0.840842 0.142491 0.767127
-0.811213 0.902355 -0.641667
-0.774646 1.02494 0.741667
0.835098 0.131568 -0.672154
0.841001 0.142332 0.767553
0.811685 0.903648 -0.641667
0.775016 1.02597 0.741667
-1.56684 -0.253475 -3.25153
-1.57551 -0.200505 -2.12249
-1.62036 -0.237894 -0.681877
-1.61664 -0.250997 0.769956
-1.5472 -0.169575 2.21152
-1.52807 -0.095665 3.34519
-1.53569 -0.0292257 4.4703
-1.5666 0.0839681 -3.22845
-1.57322 0.164193 -2.10554
-1.62708 0.15365 -0.675855
-1.60806 0.15999 0.758813
-1.50512 0.245893 2.18957
-1.50054 0.318713 3.32245
-1.52147 0.383183 4.4494
-1.5706 0.700214 -3.16669
-1.57544 0.7763 -2.04154
-1.60709 0.916051 -0.649924
-1.55897 1.01188 0.737707
-1.45195 1.07329 2.13039
-1.47183 1.14145 3.26544
-1.50881 1.20543 4.40132
-1.57959 1.76312 -3.11616
-1.58318 1.86332 -1.99936
-1.58885 2.03988 -0.625882
-1.57443 2.20147 0.735522
-1.54539 2.30623 2.10957
-1.53609 2.36918 3.22755
-1.54224 2.42779 4.3573
-0.773798 -0.241862 -3.25525
-0.769188 -0.18421 -2.12785
-0.813243 -0.247494 -0.68118
-0.830573 -0.264596 0.777143
-0.784162 -0.163052 2.22408
-0.771341 -0.0903538 3.35375
-0.777871 -0.0266407 4.4753
-0.776063 0.0870189 -3.22966
-0.753246 0.325996 3.32949
-0.769462 0.386626 4.45319
-0.780697 0.673088 -3.15982
-0.731508 1.14511 3.26439
-0.762338 1.20859 4.40117
-0.78747 1.74242 -3.10935
-0.789175 1.84262 -1.99184
-0.798847 2.03331 -0.621338
-0.800279 2.2073 0.734997
-0.788108 2.31272 2.10572
-0.782464 2.37383 3.22371
-0.786525 2.43131 4.35453
0.793681 -0.241535 -3.25564
0.801993 -0.184058 -2.12833
0.833284 -0.247318 -0.681298
0.814669 -0.264602 0.777487
0.743476 -0.163006 2.22478
0.732935 -0.0901778 3.35428
0.732751 -0.0263712 4.47568
0.781008 0.0873886 -3.23006
0.719963 0.326199 3.33003
0.725385 0.386918 4.45355
0.780125 0.673786 -3.16002
0.696435 1.14552 3.26463
0.715028 1.20897 4.40143
0.792231 1.74319 -3.10945
0.794209 1.84346 -1.99191
0.78402 2.03418 -0.621362
0.751809 2.20808 0.735017
0.72019 2.31336 2.10578
0.715388 2.37438 3.22382
0.718668 2.43181 4.35467
1.58401 -0.252691 -3.25217
1.59447 -0.199877 -2.12318
1.63401 -0.237293 -0.682074
1.61636 -0.250669 0.770441
1.5337 -0.169289 2.21248
1.5034 -0.0952262 3.34606
1.49873 -0.028651 4.47098
1.57047 0.0848557 -3.22911
1.57246 0.164939 -2.10631
1.62918 0.154455 -0.6761
1.61776 0.160418 0.75927
1.51519 0.246222 2.19056
1.48431 0.319206 3.32331
1.48664 0.383799 4.45006
1.5679 0.701549 -3.1671
1.57089 0.777856 -2.04188
1.60601 0.917794 -0.650065
1.56628 1.01324 0.737828
1.46055 1.07419 2.13071
1.45315 1.14225 3.26591
1.47038 1.20621 4.40181
1.58175 1.76462 -3.11636
1.58407 1.86493 -1.99951
1.57469 2.04151 -0.625935
1.53598 2.20293 0.73557
1.49102 2.30746 2.10972
1.47805 2.37026 3.22778
1.4799 2.42878 4.35758
-0.817003 0.445994 -2.11507
0 0.171643 -2.12486
-0.828393 0.12994 -1.39157
-0.717349 0.669725 2.18298
0 0.27079 2.20097
-0.820713 0.170953 1.48669
0 0.797424 -2.11495
-0.826409 0.837973 -1.33333
2.39909e-05 1.11005 2.16033
-0.749871 1.07974 1.43333
0.817477 0.446485 -2.11591
0.829153 0.12918 -1.39201
0.717306 0.67 2.18341
0.820705 0.170962 1.48741
0.826656 0.839122 -1.33333
0.750236 1.08069 1.43333
-0.835691 0.139309 0.04756
-0.861311 0.516887 -0.656837
-7.42469e-05 0.133089 -0.67208
-0.868717 0.583716 0.754397
7.95469e-05 0.142611 0.76734
-0.78565 0.956368 0.05
0.000235685 1.18434 -0.641667
0.000185348 1.40908 0.741667
0.836003 0.138997 0.0476999
0.861924 0.517608 -0.65691
0.869584 0.584153 0.75461
0.78606 0.957521 0.05
-0.885683 0.48144 -1.36245
0.88549 0.482046 -1.36267
-3.71235e-05 0.133255 -1.39179
0.000117842 0.937907 -1.33333
0 0.446239 -2.31968
-0.858854 0.550302 0.04878
0.859485 0.550881 0.0488499
2.64998e-06 0.140551 0.04763
0.000210516 1.40115 0.05
-0.885534 0.626721 1.46001
0.883606 0.627077 1.46037
3.97735e-05 0.162141 1.48705
0.000104669 1.39306 1.43333
1.19954e-05 0.669863 2.24429
-0.790544 0.315497 -2.11265
-0.3825 0.173772 -2.12255
-0.822679 0.131488 -1.75136
-0.76645 0.467362 2.2349
-0.3675 0.273431 2.19808
-0.804303 0.19153 1.84648
-0.795955 0.57649 -2.06999
-0.3875 0.765694 -2.08346
-0.8179 0.789676 -1.67917
-0.711583 0.872088 2.1744
-0.332488 1.10195 2.15237
-0.722716 1.09238 1.77917
0.3825 0.173806 -2.12287
0.790772 0.315742 -2.11342
0.822675 0.131491 -1.75193
0.3675 0.273693 2.19832
0.7666 0.4675 2.23578
0.803942 0.191891 1.84733
0.3875 0.765889 -2.08317
0.796203 0.577227 -2.07042
0.818012 0.790729 -1.67917
0.332536 1.10212 2.15226
0.711806 0.8725 2.17483
0.723208 1.09341 1.77917
-0.837506 0.124994 -1.03179
-0.832657 0.138176 -0.312223
-0.849667 0.32346 -0.664422
-0.415989 0.135597 -0.672044
-0.825885 0.161615 1.12691
-0.837945 0.141222 0.407343
-0.868691 0.356148 0.760762
-0.41944 0.144434 0.767233
-0.819506 0.870859 -0.9875
-0.846686 0.714833 -0.649252
-0.79729 0.92822 -0.295833
-0.454271 1.14091 -0.641667
-0.768285 1.05837 1.0875
-0.851707 0.819342 0.748032
-0.780216 0.990723 0.395833
-0.478132 1.39881 0.741667
0.837487 0.125013 -1.03208
0.415879 0.135595 -0.672117
0.832646 0.138187 -0.312227
0.850435 0.323626 -0.664532
0.825828 0.161672 1.12748
0.419559 0.144435 0.767447
0.838227 0.140939 0.407627
0.869459 0.356159 0.761082
0.819809 0.872024 -0.9875
0.454429 1.14093 -0.641667
0.8474 0.715926 -0.649289
0.797035 0.928747 -0.295833
0.768657 1.05936 1.0875
0.478261 1.39885 0.741667
0.852385 0.820106 0.748138
0.780611 0.99182 0.395833
-0.869002 0.463717 -1.73876
-0.408501 0.446116 -2.27035
-1.85617e-05 0.132567 -1.75832
0 0.308941 -2.2442
-0.872087 0.30569 -1.37701
-0.414215 0.133254 -1.39168
-0.836333 0.648223 1.8215
-0.358669 0.669794 2.23576
1.98867e-05 0.202822 1.84401
5.99772e-06 0.470326 2.31629
-0.876806 0.398837 1.47335
-0.410337 0.162135 1.48687
5.89212e-05 0.875437 -1.72414
0 0.621832 -2.23617
-0.885459 0.659707 -1.34789
-0.413145 0.924113 -1.33333
6.43301e-05 1.35819 1.79683
1.79932e-05 0.889958 2.25537
-0.844483 0.853233 1.44667
-0.374883 1.38671 1.43333
0.868966 0.464265 -1.73929
0.408739 0.446362 -2.27043
0.872419 0.305613 -1.37734
0.414558 0.133253 -1.3919
0.836961 0.648538 1.82189
0.358659 0.669931 2.23577
0.876831 0.399019 1.47389
0.410372 0.162148 1.48723
0.885418 0.660584 -1.348
0.413387 0.924152 -1.33333
0.845106 0.853884 1.44685
0.37517 1.38672 1.43333
-0.85134 0.342772 0.04817
-0.416932 0.141754 0.047595
-0.865939 0.499164 -1.00965
-0.859617 0.533595 -0.304028
-5.56852e-05 0.128328 -1.03194
-3.57985e-05 0.133456 -0.312225
-0.858989 0.567009 0.401588
-0.884788 0.605219 1.10721
4.10984e-05 0.142007 0.407485
5.96602e-05 0.149505 1.1272
-0.838042 0.76123 0.04939
-0.498479 1.39028 0.05
0.000176764 0.96122 -0.9875
0.000223101 1.3659 -0.295833
0.000197932 1.40382 0.395833
0.000145009 1.40722 1.0875
0.852097 0.342762 0.0482749
0.417013 0.141753 0.0476649
0.866559 0.499827 -1.00979
0.860241 0.534245 -0.30403
0.859834 0.567517 0.40173
0.884742 0.605615 1.10749
0.838614 0.762122 0.0494249
0.498623 1.39031 0.05
-0.863079 0.310594 -1.74506
-0.867177 0.314922 -1.02072
-0.858816 0.684664 -0.998573
-0.868057 0.618098 -1.70896
0.863096 0.310678 -1.74561
0.867352 0.618905 -1.70923
0.859594 0.685606 -0.998645
0.867173 0.315101 -1.02094
-0.398358 0.132577 -1.75484
0.398529 0.132576 -1.75513
0.416035 0.128324 -1.03201
-0.415938 0.128324 -1.03186
-0.400323 0.859945 -1.70165
-0.409317 0.94803 -0.9875
0.409674 0.947935 -0.9875
0.400443 0.860035 -1.70165
-0.395501 0.312219 -2.20866
-0.398001 0.599161 -2.16982
0.398119 0.599529 -2.17001
0.395619 0.312342 -2.20898
-0.85033 0.333202 -0.308126
-0.855089 0.351923 0.404466
-0.849219 0.792458 0.398711
-0.84579 0.739744 -0.299931
0.851096 0.333279 -0.308128
0.846477 0.740759 -0.299932
0.849959 0.793343 0.398782
0.855854 0.351923 0.404678
-0.41772 0.136157 -0.312224
0.417705 0.136156 -0.312226
0.418029 0.143608 0.407556
-0.417929 0.143607 0.407414
-0.514849 1.34254 -0.295833
-0.487997 1.39393 0.395833
0.488136 1.39397 0.395833
0.515034 1.34264 -0.295833
-0.881162 0.38097 1.11706
-0.842594 0.4331 1.83399
-0.800735 0.86266 1.80033
-0.855407 0.828781 1.09735
0.881147 0.381131 1.11749
0.856063 0.829474 1.0975
0.80141 0.863192 1.80053
0.84325 0.43326 1.83461
-0.415359 0.149505 1.12705
0.415456 0.149506 1.12734
0.388936 0.203155 1.84567
-0.388918 0.203084 1.84524
-0.381057 1.40071 1.0875
-0.353686 1.35862 1.788
0.353853 1.35863 1.788
0.381386 1.40073 1.0875
-0.363084 0.468844 2.30561
0.36308 0.468913 2.30565
0.345598 0.881229 2.23878
-0.345578 0.881023 2.2387
-0.773358 0.250248 -2.10748
-0.57375 0.174361 -2.12187
-0.804795 0.147289 -1.93125
-0.741993 0.366181 2.21185
-0.55125 0.304945 2.16644
-0.779449 0.218468 2.02637
-0.789815 0.641739 -2.05183
-0.58125 0.732419 -2.05031
-0.804117 0.755999 -1.85208
-0.696041 0.973269 2.15745
-0.498744 1.09552 2.146
-0.705591 1.09515 1.95208
0.57375 0.174402 -2.12237
0.773422 0.250371 -2.10817
0.804869 0.147215 -1.9319
0.55125 0.278562 2.19357
0.742129 0.36625 2.21285
0.779193 0.218723 2.0273
0.58125 0.732774 -2.04993
0.789991 0.642598 -2.0521
0.80426 0.757103 -1.85208
0.498792 1.09577 2.14584
0.6963 0.97375 2.15779
0.705946 1.09602 1.95208
-0.834463 0.13012 -0.851898
-0.833839 0.134911 -0.492115
-0.844113 0.226612 -0.668214
-0.624062 0.136621 -0.672025
-0.826183 0.159234 0.947018
-0.839403 0.141847 0.587235
-0.8672 0.243103 0.763944
-0.625981 0.151783 0.76718
-0.817885 0.889132 -0.814584
-0.840097 0.814168 -0.645459
-0.803904 0.91494 -0.46875
-0.663429 1.08301 -0.641667
-0.771632 1.04182 0.914583
-0.825675 0.928391 0.744849
-0.777503 1.0079 0.56875
-0.674108 1.30732 0.741667
0.834422 0.130161 -0.852117
0.624001 0.136556 -0.672135
0.836481 0.132269 -0.49219
0.844064 0.226949 -0.668343
0.82593 0.159487 0.947517
0.62602 0.151904 0.7675
0.839635 0.141615 0.58759
0.867178 0.243272 0.764318
0.818325 0.890414 -0.814584
0.663576 1.08333 -0.641667
0.840634 0.815333 -0.645478
[...]
POINT_DATA 3682
SCALARS point_scalars float 1
LOOKUP_TABLE default
-79.4265
-47.489
-68.9911
-40.007
-79.363
-46.1247
-68.3828
-35.9188
-38.9096
-42.1225
-62.8456
-48.992
-38.6601
-41.7554
-63.5313
-48.2765
-76.5644
-86.8853
-39.0219
-43.542
-51.6722
-47.4531
-42.4279
-9.91676
-86.8853
-38.2612
-40.7969
-47.4522
-45.7411
-41.7032
77.4399
-96.0455
-50.74
-45.7342
-45.1648
-42.1459
-39.3559
-54.3171
-54.5478
-97.1035
-54.9026
-47.0487
-39.2493
-39.3978
42.4747
-120.375
-39.1428
-43.6169
-47.2737
-42.2062
-41.3193
156.823
-41.4944
-40.87
160.572
-39.1569
-39.1569
-21.8915
-45.783
-81.2878
-56.6503
-46.4263
-37.9578
-37.6333
43.7682
-120.035
-38.7563
-43.4819
-47.3068
-40.1812
-39.9666
156.933
-39.7383
-39.8332
160.603
-34.2467
-33.5641
-22.5452
-45.5352
-76.2615
-56.0932
-42.786
-33.804
-32.1519
-76.3463
-87.3214
-38.7879
-42.8177
-49.8726
-45.9712
-40.6906
-8.4176
-87.3214
-38.0626
-39.6741
-45.3835
-43.5547
-40.0417
77.7265
-97.2986
-50.6358
-45.0151
-41.7812
-38.1762
-35.3231
-53.9259
-54.5479
-96.5431
-54.6566
-43.7035
-35.2316
-34.4544
-88.8283
-149.681
-54.7552
-42.768
-44.0644
-48.4125
-81.151
-50.5438
-30.2204
-50.4448
-87.2397
-54.6505
-39.5754
-47.4435
-50.3809
-48.4047
-36.6377
-40.9838
-43.7824
-41.7384
-43.9088
-55.8051
23.5625
-59.0506
-36.4217
-40.8029
-41.1558
-55.3829
-57.277
-56.986
-62.9279
-6.58916
210.357
-41.2891
-40.9431
-39.802
-90.9253
-54.3822
-52.2
-49.8695
-48.1769
-37.4423
-89.2167
-175.236
-76.4432
-45.42
-45.0213
-53.1176
-69.5719
-77.9103
-58.1487
-42.5007
-35.0655
-47.5553
-175.385
-86.228
-77.0749
-43.925
-43.1424
-51.3733
-77.6467
-69.2444
-57.9088
-30.3495
-38.6299
-44.4533
-45.3401
-38.1413
-38.9717
-42.862
-44.3917
-38.002
-40.0261
-43.4303
-44.0054
-46.6619
-62.7152
15.5812
-48.8725
-44.674
-52.1013
-56.4942
-44.9449
-42.7976
-37.8937
-38.8196
-43.7079
-43.2406
-37.7172
-39.639
-43.5945
15.7534
-46.3325
-62.2782
-47.6939
-56.0583
-43.9692
-51.4645
-73.3161
185.152
-91.336
138.079
-56.5991
-61.4027
-50.9135
-39.3617
-49.4638
-40.9012
-51.9627
-49.9495
-28.5962
160.973
-58.0603
-14.2878
-39.544
-35.6476
-52.6108
-49.0251
-71.7217
185.002
-56.7052
-61.3601
-48.259
-36.8252
-50.4496
-49.3926
-57.6138
-14.2246
-50.4479
-47.9167
-38.1705
-39.2658
-44.5782
-42.0753
-49.8379
-41.9421
-40.3798
-44.9125
-40.9986
-46.4656
-46.5371
-86.58
18.053
-105.391
-68.782
-53.861
-37.867
-39.1771
-44.3069
-41.8777
-39.9374
-43.7401
-46.1139
-86.3677
-74.8361
-46.0098
-45.8952
-68.7393
-72.8965
-68.3768
-45.6525
-45.6759
-89.1021
-89.079
-48.63
-48.6964
-33.5078
6.7687
6.87354
-33.4313
153.318
138.856
139.268
153.312
-38.8514
-37.6229
-44.7933
-48.9106
-38.6712
-48.6569
-44.2696
-37.2347
-41.1427
-41.0743
-40.4567
-40.5792
-84.9234
-64.8231
-64.5272
-84.2327
-45.793
-51.3877
-49.378
-47.6659
-44.8349
-46.4126
-46.4213
-49.2521
-46.3167
-46.0072
-49.6721
-50.5613
-53.4214
-43.2003
-40.6569
-52.817
-40.873
-40.3064
-34.2543
-38.4312
-64.7207
-182.285
-91.1564
-47.0477
-45.381
-51.0744
-81.3088
-60.0569
-72.2875
-41.3065
-36.9559
-43.5429
-182.545
-64.1316
-91.441
-44.5304
-44.937
-48.815
-60.6568
-80.425
-71.7394
-32.6957
-37.2171
-39.9652
-40.7687
-38.8421
-38.4456
-41.5691
-47.5224
-39.2238
-40.5451
-43.7805
-54.582
-52.4573
-63.8636
-26.1587
-48.774
-47.8042
-50.1505
-53.8338
-40.6691
-41.4747
-38.875
-38.2744
-46.9438
-43.4991
-38.9142
-39.7467
-54.1269
-26.3245
-52.3459
-63.8688
-47.8637
-53.1091
-47.106
-49.5554
-78.6811
-72.5019
-95.5772
167.931
-160.718
-160.878
-108.092
102.863
-64.671
-48.3582
-55.7328
-58.799
-43.8467
-43.0175
-47.4741
-39.8036
-44.4418
-43.8585
-46.6784
-41.3776
-53.6273
-46.3971
-51.2675
-49.2617
-78.0881
-78.0135
-41.6251
87.8708
-51.7866
-45.7895
-55.0766
-24.9321
-32.5496
-29.335
-33.4068
-29.9187
-49.1039
-52.6557
-51.4293
-49.3606
-77.0133
-72.6776
-98.4393
168.395
-64.2565
-48.3634
-56.3297
-58.7329
-40.8697
-39.5403
-44.4768
-36.9296
-52.0671
-45.6128
-49.9151
-48.4745
-51.5698
-45.33
-54.6116
-24.8677
-46.5845
-50.9706
-49.528
-47.9147
-37.0722
-37.0853
-36.9974
-38.4748
-39.7961
-42.988
-40.8747
-41.7006
-43.5666
-43.5336
-47.4268
-42.3953
-40.6096
-43.1099
-40.4694
-43.1432
-43.8578
-43.7604
-42.2404
-45.2336
-59.0547
-52.9955
-51.3351
-68.984
22.7588
22.751
32.7956
-29.6452
-58.4749
-58.2463
-62.9522
-56.5847
-36.8566
-37.0819
-36.7607
-38.3436
-39.638
-42.7981
-40.7235
-41.5244
-40.129
-42.4438
-39.9779
-42.2933
-58.6901
-52.5558
-50.7895
-68.6335
-63.5634
-57.4141
-57.3426
-49.6087
-63.3982
-57.202
-56.9936
-49.3053
-75.2059
-62.6279
-62.5999
-54.5779
-17.9544
-8.35065
-8.30347
6.01537
201.155
163.255
177.566
201.752
-39.4345
-41.9021
-40.7613
-43.5591
-39.0996
-41.6424
-40.3912
-43.1483
-39.6504
-39.9708
-40.1581
-39.6053
-90.3105
-103.412
-77.8697
-90.2116
-53.7774
-53.0532
-54.0364
-51.8168
-51.3942
-51.2414
-51.7724
-50.3429
-51.2866
-49.9788
-49.6986
-48.5858
-44.526
-48.5985
-47.981
-51.1242
-38.3637
-38.8029
-36.4202
-36.6995
-96.1765
139.102
-109.343
93.7351
-75.2093
-84.874
-47.6887
-40.8075
-47.6979
-41.7685
-51.2972
-52.0807
-91.7104
114.97
-45.3384
84.3613
-65.6386
-40.8473
-45.6993
-39.4746
-36.7077
-36.2479
-48.2402
-46.2376
-109.356
94.2589
-98.084
139.471
-73.8853
-84.8305
-46.7647
-40.788
-45.478
-39.6407
-49.1483
-50.7582
-45.2463
84.0091
-92.8826
114.96
-66.1577
-40.6821
-33.7574
-29.9478
-42.3676
-35.2092
-45.1474
-43.192
-46.4154
-47.2755
-37.9813
-40.1794
-39.6716
-38.9146
-46.5535
-41.4963
-45.2685
-45.9219
-36.5604
-39.9556
-38.5232
-45.0199
-41.8758
-45.1546
-47.2141
-9.79777
-44.3179
-48.6704
-54.7387
-102.511
18.2883
-16.4721
-48.7413
-54.054
-44.9045
-46.0064
-49.593
-59.2295
-59.8411
-55.1485
-46.0411
-47.1016
-46.4853
-41.4333
-37.7812
-40.0843
-39.5744
-38.7671
-44.342
-45.4699
-41.724
-44.9153
-36.1961
-39.7574
-38.0692
-44.2237
-46.8838
-9.62159
18.4124
-15.9429
-44.0961
-48.2602
-54.4039
-102.612
-47.5101
-53.1529
-59.485
-54.6369
-44.3246
-45.1099
-49.1297
-58.7132
-73.4563
-72.0058
154.921
149.177
-91.1131
-91.1013
136.545
136.647
-64.5628
-50.3798
-73.4002
-53.2868
-51.2982
-50.1101
-39.7534
-38.9371
-49.3796
-49.8011
-40.772
-40.4446
-50.1188
-54.3365
-48.2857
-52.0341
-29.9417
-29.9008
158.866
158.801
-50.218
-61.3811
-23.4999
-4.66205
-40.8747
-39.4495
-35.0377
-37.5365
-51.7956
-51.9016
-51.3231
-46.588
-71.7991
-71.037
149.484
154.953
-64.4366
-49.8468
-73.3617
-53.239
-47.2692
-48.8859
-37.8853
-35.9474
-48.8369
-52.1332
-47.8718
-51.2364
-60.9018
-49.9076
-4.39287
-23.4206
-50.2147
-49.25
-45.0109
-50.513
-38.577
-37.9693
-39.3695
-39.6556
-45.0939
-45.1796
-40.1172
-44.7829
-49.5123
-49.5435
-41.8311
-41.796
-38.9528
-42.2195
-45.4239
-46.3545
-40.8583
-40.9213
-46.4522
-46.2941
-45.6831
-48.3354
-100.817
-73.0682
15.2469
15.2843
-102.469
-102.355
-67.8486
-67.696
-53.8613
-53.5461
-38.3187
-37.6408
-39.2886
-39.5544
-44.9367
-44.8068
-39.9263
-44.6229
-41.7462
-38.5345
-44.4173
-45.1548
-48.0471
-45.3099
-72.801
-100.958
-91.4377
-64.2888
-63.917
-95.2176
-39.392
-40.3783
-49.8839
-50.3191
-48.9675
-50.1053
-49.879
-41.9394
-86.5515
-95.0723
-63.7872
-58.7034
-93.2458
-97.6205
-63.7992
-64.1299
-86.3159
-58.4462
-63.5415
-96.4473
-48.7155
-41.7388
-49.565
-49.7748
-39.2925
-49.604
-49.5534
-40.2523
-103.95
-109.047
-74.8864
-70.1216
-103.944
-70.035
-74.8683
-109.043
-44.8129
-47.2075
-54.3079
-51.1934
-44.9384
-51.2499
-54.334
-47.24
-55.8383
-32.5962
-18.9608
-43.3544
-7.45908
29.3891
3.67241
-18.5234
-7.15194
-18.3474
3.73651
29.447
-55.657
-43.3022
-18.9328
-32.4504
102.051
150.787
159.673
100.392
54.8871
82.3693
175.488
115.075
54.4526
114.949
175.193
82.4723
102.619
100.604
159.773
151.073
-38.2848
-37.6672
-39.8751
-39.9881
-38.2078
-39.1138
-39.2392
-36.762
-48.725
-50.0555
-42.5904
-42.6364
-54.6659
-44.3341
-44.4824
-53.3401
-38.2062
-39.8241
-39.62
-37.357
-54.3015
-53.0471
-44.2129
-44.1421
-48.1036
-42.1007
-42.2014
-49.6679
-37.7543
-36.4586
-38.8997
-38.6464
-40.4331
-42.2
-39.8265
-38.5003
-40.3522
-38.3598
-39.7865
-42.1672
-41.322
-42.1153
-40.0112
-38.8381
-41.5345
-38.9738
-40.064
-42.1927
-81.3129
-79.7581
-103.967
-20.8123
-55.0936
-62.1975
-76.9201
-62.2518
-54.5282
-61.7785
-76.7916
-62.0136
-79.9326
-20.7197
-103.875
-79.8025
-46.2891
-49.0932
-50.9859
-43.1725
-48.2579
-47.4422
-54.4845
-54.9854
-44.5191
-49.9605
-52.7699
-46.6895
-48.2944
-44.5302
-52.026
-52.3414
-45.8356
-42.2586
-49.5923
-47.8885
-47.3928
-50.6907
-50.4008
-43.7275
-40.9713
-43.4576
-50.3173
-47.1379
-46.2658
-52.8124
-52.1036
-44.742
-44.317
-45.2414
-48.5978
-47.4433
-43.9677
-46.8495
-48.3867
-45.1181
-47.5637
-46.564
-51.1887
-50.9221
-49.7664
-52.1106
-51.5765
-47.0297
-50.045
-50.482
-51.3108
-56.4135
-39.2577
-34.8634
-45.3509
-48.257
-35.7778
-46.2752
-44.4627
-33.1139
-49.2392
-56.1447
-50.8792
-49.2958
-42.3171
-41.6199
-39.3768
-39.9067
-40.6931
-37.6081
-38.3354
-41.1558
-32.8803
-28.7327
-35.6454
-36.6013
-38.2038
-39.8009
-37.8399
-33.1284
-66.6828
-147.047
-101.323
-47.4294
-45.0934
-47.2152
-74.9549
-51.0028
-79.8075
-41.0248
-37.8225
-41.729
-153.834
-65.7711
-101.741
-45.1256
-45.6402
-46.6726
-51.3449
-74.7441
-79.5571
-33.7312
-36.8142
-37.8602
-39.3512
-39.0501
-38.3583
-40.5624
-48.4731
-41.047
-40.9512
-44.1151
-62.2658
-56.9473
-63.8258
-70.6343
-48.7957
-48.5147
-49.3927
-50.7957
-39.2254
-40.454
-38.3881
-38.1435
-48.3774
-43.8232
-40.707
-39.795
-62.5865
-70.1951
-57.2284
-63.5856
-47.9883
-50.0381
-47.8121
-48.7584
-81.0531
-75.1108
-111.345
93.2634
-151.133
-150.948
-124.467
-90.1864
-59.2393
-51.2468
-55.1311
-56.9647
-43.0039
-43.0885
-46.0595
-40.3218
-44.2386
-43.9404
-45.2593
-42.5318
-50.8125
-46.6933
-50.2194
-48.7848
-80.0009
-80.7056
-59.7164
1.4755
-51.5661
-49.2279
-54.1584
-35.4491
-31.2423
-29.5267
-32.0043
-28.719
-49.7111
-52.004
-50.8828
-49.0105
-79.8904
-74.4847
-112.384
92.8095
-58.8249
-51.1242
-55.5771
-56.9211
-39.9184
-39.7952
-42.8577
-37.3558
-49.6525
-45.8332
-48.9953
-47.9227
-51.7598
-48.7258
-53.7168
-35.1576
-47.4285
-50.1365
-48.9023
-47.2682
-36.7182
-37.1319
-35.962
-38.047
-40.3231
-41.8866
-40.7269
-41.3779
-43.7068
-43.6897
-45.3686
-43.0433
-40.9851
-42.3916
-40.8635
-42.6227
-43.911
-43.8615
-43.0095
-45.0434
-57.4645
-53.6756
-54.3821
-61.1698
23.2667
23.413
33.5021
4.52194
-58.9349
-58.8184
-60.8303
-57.6089
-36.5034
-37.1546
-35.7171
-37.8774
-40.1493
-41.6941
-40.5475
-41.2051
-40.4638
-41.7628
-40.3325
-41.907
-57.0889
-53.2468
-53.8975
-60.843
-60.6372
-57.4848
-57.2281
-53.1575
-60.447
-57.2286
-56.9091
-52.8255
-68.5087
-62.5728
-62.561
-58.371
-11.645
-7.1734
-7.15021
-0.267991
203.366
194.388
198.126
202.877
-40.2617
-41.6653
-41.0195
-42.3623
-39.9213
-41.3634
-40.6759
-42.0059
-39.7582
-39.7712
-39.9668
-39.7349
-90.8282
-97.4747
-84.0462
-90.7748
-54.1266
-53.7387
-54.4758
-53.9279
-51.6866
-51.7166
-52.1782
-52.2591
-50.4681
-49.9332
-49.7932
-48.9936
-46.3742
-48.4036
-48.0856
-49.7914
-37.9677
-38.2604
-37.0093
-37.0759
-67.4967
-72.7115
-122.584
78.434
-191.159
-169.829
-131.463
-42.6969
-78.792
-72.8203
-74.7581
-81.8231
-46.3973
-44.5546
-46.6767
-41.7167
-45.368
-44.689
-46.2686
-43.4193
-50.8497
-52.5901
-51.7732
-52.1161
-72.8104
-68.3951
-109.507
66.3842
-69.3626
-80.4528
-57.3781
10.4972
-59.08
-54.3706
-63.882
-45.5243
-41.8228
-42.9597
-44.2004
-39.9422
-36.1158
-33.892
-35.4821
-35.5011
-45.2101
-48.5733
-47.817
-47.0764
-191.411
-169.694
-131.525
-43.1184
-66.4197
-70.5421
-130.754
77.0097
-77.5032
-72.2744
-75.1559
-81.9158
-44.1677
-43.827
-45.3219
-42.2187
-44.3235
-42.0368
-44.3709
-40.0835
-49.0044
-50.9678
-49.9148
-50.6045
-69.1877
-80.422
-57.2072
10.0758
-72.8617
-68.0269
-109.822
66.6862
-60.9905
-53.7872
-63.9559
-45.0253
-31.4551
-29.6605
-32.1886
-29.5616
-37.8284
-39.268
-40.507
-36.29
-41.952
-45.7597
-44.7301
-43.9687
-43.1665
-45.9117
-47.0267
-46.4184
-38.9777
-37.1212
-37.3637
-39.4375
-38.6773
-39.338
-39.0955
-38.8889
-42.3935
-43.276
-44.642
-42.0803
-43.6483
-46.6062
-44.6287
-45.4378
-38.4577
-36.834
-37.2183
-39.5898
-39.7949
-40.4455
-39.3593
-42.5866
-43.2544
-43.7421
-42.6637
-44.852
-46.1458
-42.8752
-47.7486
-26.4934
-49.0781
-44.4304
-45.1669
-47.9915
-63.5061
-61.2171
-58.6128
-74.6171
3.91384
21.3222
20.7742
2.40538
-48.9049
-50.2715
-48.8255
-51.67
-46.367
-43.8191
-44.821
-43.4019
-50.7535
-53.2354
-51.562
-55.5676
-56.7163
-57.6623
-58.0981
-55.5287
-43.0046
-45.9489
-46.4729
-46.2755
-42.3145
-43.226
-44.5757
-42.0169
-39.2704
-36.8991
-37.1262
-39.2992
-38.5173
-39.1871
-38.9547
-38.7431
-43.075
-45.9011
-43.7759
-44.9149
-43.013
-43.5972
-42.4938
-44.6394
-38.1814
-37.3919
-36.8138
-39.4497
-39.2672
-39.9633
-38.8785
-42.1379
-45.6013
-42.388
-47.5806
-26.0493
3.8963
21.4195
20.8367
2.67801
-49.1925
-44.2348
-44.8416
-47.5483
-63.3104
-60.8105
-58.2156
-74.5118
-47.8717
-48.8954
-47.5908
-50.7558
-56.0768
-57.3282
-57.702
-55.0534
-45.6704
-43.1287
-44.1855
-42.6006
-50.0904
-52.7545
-50.9086
-55.0362
-84.6142
-65.0538
-73.4338
-72.363
181.276
191.26
182.043
179.292
-98.9349
-83.0671
-91.4956
-91.4898
136.651
134.07
138.46
138.536
-56.2105
-57.0674
-60.647
-52.9
-60.2944
-62.3447
-66.8689
-56.8716
-49.2023
-52.6432
-51.0004
-50.6309
-39.6923
-38.8351
-39.6724
-39.3413
-48.0228
-50.8216
-49.253
-49.6205
-41.0443
-39.7799
-40.8793
-40.7263
-51.5296
-52.2942
-51.6914
-53.1465
-49.7118
-49.9944
-48.8186
-50.8946
-33.5917
-23.3872
-29.1065
-29.0648
129.284
178.754
164.242
164.2
-57.5387
-57.8698
-53.4729
-60.4276
-19.1985
-10.8588
-18.8498
-9.97427
-35.9973
-41.9605
-40.1803
-39.4762
-32.145
-36.7908
-35.1533
-36.9595
-52.0796
-53.3223
-51.9399
-53.2253
-49.3622
-48.7427
-50.3525
-47.8918
-83.3498
-64.7666
-71.5615
-71.0593
181.47
191.368
179.066
182.271
-56.5651
-56.9587
-60.5705
-52.5026
-60.2398
-62.3149
-66.8292
-56.8268
-46.3718
-50.1615
-47.8673
-48.4536
-36.9476
-36.5192
-37.5059
-36.7141
-50.1097
-50.681
-50.288
-51.3432
-49.0267
-49.5771
-48.3442
-50.2464
-56.9635
-57.4897
-60.0275
-53.0462
-19.1112
-10.8065
-10.4469
-18.7813
-50.0106
-51.1976
-51.2903
-49.5793
-48.0829
-47.8519
-46.5867
-49.4053
-37.7078
-38.7441
-38.3851
-38.0549
-38.8749
-39.4993
-39.1533
-39.4574
-42.2333
-47.4838
-44.7757
-44.8532
-41.9743
-42.0512
-40.9875
-43.34
-48.7259
-51.4625
-49.6981
-49.7135
-41.9652
-40.9487
-41.9729
-41.955
-40.3584
-40.6068
-39.6781
-41.0842
-44.2925
-48.2335
-45.1167
-45.1454
-41.5703
-40.5306
-40.9601
-40.9918
-45.4376
-47.9027
-46.4853
-46.405
-48.1922
-45.2534
-45.7166
-48.0798
-80.2208
-89.2492
-93.2449
-79.3066
26.0596
12.0464
17.4718
17.4188
-78.1077
-110.164
-105.151
-105.068
-65.5715
-72.8067
-68.5662
-68.4904
-55.3659
-52.4229
-53.9043
-53.7444
-37.3954
-38.4202
-38.1012
-37.7506
-38.7645
-39.4321
-39.0685
-39.3638
-42.0886
-47.1312
-44.5809
-44.489
-41.7931
-41.8269
-40.7906
-43.1489
-39.8768
-40.181
-40.6344
-39.2468
-43.2676
-46.9063
-44.0217
-43.9558
-47.6217
-44.8144
-47.8265
-45.2958
-79.7587
-89.1129
-79.0422
-93.067
-83.3939
-75.6314
-73.8837
-67.981
-46.2151
-42.7613
-47.3712
-45.6003
-46.407
-44.931
-47.8332
-45.4023
-78.6598
-66.9953
-70.3443
-62.4505
-81.8448
-73.6526
-72.3446
-67.7705
-78.905
-66.9882
-69.6435
-61.8975
-46.1186
-44.7045
-47.5867
-45.1737
-45.8879
-42.595
-47.0804
-45.303
-97.3473
-86.6263
-90.5445
-81.2556
-97.3299
-86.5831
-90.5259
-81.2266
-47.8856
-47.6324
-50.1298
-49.189
-47.9775
-47.702
-50.1865
-49.2355
-38.3366
-37.6279
-31.2041
-29.101
0.891432
11.3004
0.892118
12.046
1.03058
11.4155
0.974247
12.1058
-38.2819
-37.5214
-31.1536
-29.0215
145.757
147.284
146.882
150.243
128.037
118.867
148.138
153.808
118.762
127.999
153.979
149.351
147.325
146.477
150.384
146.989
-38.3645
-38.9156
-38.7064
-39.4146
-37.1534
-37.8505
-37.7538
-38.2989
-44.8345
-46.8334
-43.4261
-45.0017
-49.0048
-51.4475
-46.5443
-48.7184
-38.2528
-38.7638
-38.5038
-39.2282
-48.5708
-51.1485
-46.4068
-48.4297
-44.3192
-46.3939
-42.9533
-44.5448
-36.7759
-37.4305
-37.3935
-37.8956
-40.6831
-41.0968
-40.2276
-41.5678
-41.0325
-40.599
-41.5159
-40.1536
-41.0418
-40.1123
-40.6832
-39.9578
-40.2628
-41.1779
-40.0687
-40.7767
-84.258
-39.7997
-108.739
-96.9391
-62.0145
-61.9765
-68.3714
-66.6185
-61.6515
-61.5866
-66.3936
-68.0937
-39.3623
-80.2196
-96.7766
-108.82
-45.5696
-45.7403
-47.7287
-45.8323
-49.3639
-51.4955
-51.4149
-53.6199
-47.4556
-49.0198
-49.6249
-51.0441
-48.251
-49.1073
-48.9932
-47.2231
-44.6343
-44.8
-46.6367
-44.8547
-47.0653
-48.0048
-47.546
-45.9759
-44.2863
-45.9781
-46.7191
-48.2586
-47.2068
-49.3996
-49.1549
-51.3777
-46.4405
-45.2623
-47.5756
-46.3762
-46.0633
-44.9933
-47.2149
-46.1419
-48.179
-50.1162
-49.4739
-51.0258
-49.0911
-51.2767
-50.112
-51.8469
-53.315
-54.514
-52.2753
-53.6974
-39.8257
-44.7249
-41.9899
-44.2435
-37.0001
-41.8376
-40.0956
-42.3655
-52.5754
-53.9598
-51.5781
-53.2333
-40.7796
-41.0906
-40.1858
-40.8786
-40.3734
-39.9686
-40.4463
-38.9918
-31.7987
-34.5171
-34.7133
-35.3411
-39.0608
-37.4417
-38.645
-38.0607
-115.184
65.3272
-131.214
-8.55046
-88.4625
-98.3502
-47.0602
-43.0218
-47.7176
-43.3583
-48.6196
-51.5133
-109.712
42.7031
-70.9484
2.86035
-82.4593
-59.9335
-42.9843
-39.093
-37.2142
-37.431
-43.8553
-41.7817
-131.241
-7.14964
-116.911
65.5079
-89.1933
-98.3489
-45.9309
-42.4957
-45.169
-41.2736
-46.6749
-48.5483
-70.7346
2.13596
-109.492
42.4122
-82.0255
-59.4448
-33.4872
-32.3767
-39.1439
-34.8153
-40.3235
-38.082
-39.8882
-43.7322
-38.1895
-39.776
-38.725
-38.3814
-42.85
-40.9741
-49.0543
-44.7924
-37.8409
-41.2721
-39.2868
-44.2435
-42.5882
-44.6578
-52.8623
-30.1855
-50.2412
-53.9683
-59.3856
-85.4622
-10.4162
-46.1737
-48.5315
-49.761
-48.3644
-48.0164
-49.5526
-52.5963
-53.9203
-52.0572
-39.7766
-43.5359
-42.7676
-40.8743
-38.2593
-39.7869
-38.5747
-38.1828
-48.3431
-44.3752
-42.3443
-44.3369
-37.4413
-41.0334
-38.7581
-45.0477
-52.5785
-29.5992
-10.1331
-43.8723
-50.1478
-53.7951
-59.0242
-85.4389
-47.615
-48.8605
-53.2372
-51.3051
-47.727
-47.2138
-48.9433
-51.9182
-114.052
79.4601
-115.55
64.148
-94.3491
-95.8044
160.863
160.572
-127.088
-55.9045
-127.082
-55.8573
-108.539
-108.532
76.291
76.1558
-64.2914
-67.6197
-49.6615
-49.8289
-60.0022
-53.0311
-63.9454
-54.5919
-46.0064
-40.5866
-45.5125
-40.2714
-47.7675
-47.1662
-39.8874
-39.9252
-45.6433
-42.8957
-45.1362
-42.295
-46.5462
-46.7772
-41.5135
-41.2728
-55.3482
-51.8594
-47.4002
-47.0105
-50.7365
-53.5587
-47.7619
-50.9962
-59.0364
4.68435
-58.9608
3.8945
-42.3463
-42.3141
77.9531
75.3184
-58.7633
-39.7537
-49.7803
-30.7908
-52.5302
-55.5735
-27.7629
-21.949
-33.5913
-32.1324
-31.5332
-27.8238
-34.0779
-33.1532
-28.7539
-31.2399
-49.4567
-48.8883
-52.8038
-50.0844
-50.6888
-52.5047
-50.2752
-49.2776
-115.297
84.5613
-116.268
64.063
-96.8928
-97.7328
160.603
161.348
-64.0405
-67.4476
-49.229
-49.782
-59.9397
-52.5236
-63.8635
-54.539
-43.1174
-38.0728
-42.052
-37.1802
-44.0599
-44.8773
-37.3237
-37.0072
-52.8825
-50.5603
-46.3403
-46.3467
-49.465
-52.7308
-47.0943
-50.0391
-58.5716
-39.5404
-49.3452
-30.4831
-55.3106
-52.0022
-21.885
-27.5654
-46.8537
-46.5825
-51.1384
-48.5108
-50.7618
-48.1579
-47.5703
-48.9929
-37.0279
-38.0071
-35.7614
-38.503
-37.383
-37.1051
-38.4787
-38.6436
-39.8586
-39.8814
-42.1581
-43.7295
-40.705
-41.2844
-40.6911
-42.9042
-45.1385
-42.8422
-45.1058
-42.8097
-47.3993
-47.4153
-42.3361
-42.3186
-39.8104
-40.9135
-42.8078
-43.6015
-39.6076
-41.4145
-43.2163
-43.6244
-42.9508
-45.1075
-42.8639
-44.9982
-42.2281
-42.2705
-45.2624
-45.1986
-56.6911
-66.8352
-52.3811
-57.9723
-50.6353
-52.3517
-73.3324
-65.3007
31.5438
4.49063
31.6165
4.58099
32.0719
32.1045
-27.3637
-26.8211
-60.173
-57.1998
-59.9695
-56.9556
-62.7845
-62.6926
-56.6201
-56.4849
-36.796
-37.8296
-35.4234
-38.3855
-37.0675
-36.823
-38.3442
-38.5171
-39.7058
-39.7291
-41.9375
-43.5538
-41.1148
-40.5671
-40.5242
-42.7196
-39.3188
-40.8153
-42.2016
-42.871
-40.9078
-39.1286
-42.1305
-42.8937
-56.3653
-66.6542
-51.943
-57.5232
-52.0523
-50.2329
-64.9301
-73.0382
-63.7756
-63.3859
-60.8812
-53.3601
-52.9266
-61.1226
-49.8021
-49.6493
-63.6553
-63.1761
-60.7496
-53.0151
-60.8636
-52.585
-49.3403
-49.4901
-75.0706
-75.0625
-68.2306
-58.0557
-68.2117
-58.0315
-54.5178
-54.5308
-17.9014
-17.8864
-13.4038
-3.03403
-2.98155
-13.3687
5.44753
5.47467
187.141
188.156
162.399