# vtk DataFile Version 2.0
tri_press
ASCII
DATASET UNSTRUCTURED_GRID
POINTS 3682 float
-0.712438 0.155 -1.905
-0.544843 0.225 2.055
-0.675 0.653895 -1.895
-0.605 0.965 1.90747
0.712828 0.155 -1.905
0.545 0.225 2.05527
0.675 0.654058 -1.895
0.605 0.965 1.90747
-0.71323 0.121677 -0.585
-0.65907 0.143305 0.735
-0.729143 0.835073 -0.62751
-0.701082 0.934047 0.63998
0.685168 0.150051 -0.58491
0.650416 0.152194 0.73518
0.729021 0.835059 -0.62751
0.701061 0.934081 0.63998
-1.42388 -0.247924 -2.91515
-1.42375 -0.193322 -1.88017
-1.41018 -0.212725 -0.558804
-1.34037 -0.2171 0.773126
-1.2453 -0.161711 2.09538
-1.22238 -0.109898 3.13472
-1.22846 -0.0601388 4.166
-1.41835 0.0605798 -2.92904
-1.41996 0.137938 -1.8998
-1.41304 0.14038 -0.588662
-1.33115 0.154413 0.727193
-1.21028 0.213211 2.03933
-1.19653 0.263791 3.07793
-1.21243 0.311766 4.11092
-1.39903 0.635424 -2.94208
-1.39726 0.711574 -1.91065
-1.42124 0.841747 -0.635318
-1.36214 0.922441 0.636291
-1.25177 0.964763 1.91263
-1.21764 1.01118 2.95335
-1.21911 1.0575 3.99479
-1.37403 1.6173 -3.00116
-1.37435 1.71116 -1.97761
-1.3811 1.86752 -0.719304
-1.3694 2.00212 0.527672
-1.3318 2.08278 1.78651
-1.29782 2.1283 2.81118
-1.27399 2.17085 3.84688
-0.722333 -0.238062 -2.91853
-0.719982 -0.177385 -1.88509
-0.719702 -0.216404 -0.558107
-0.681898 -0.225274 0.77982
-0.61485 -0.158462 2.10705
-0.592619 -0.107275 3.14266
-0.593838 -0.0586933 4.17061
-0.718124 0.0623572 -2.93008
-0.563317 0.267642 3.08447
-0.57777 0.313646 4.1144
-0.700952 0.612212 -2.93557
-0.579704 1.01301 2.95234
-0.580297 1.05946 3.9946
-0.674834 1.6008 -2.99472
-0.67284 1.69502 -1.97052
-0.685148 1.86369 -0.715021
-0.692247 2.00809 0.52718
-0.674492 2.08868 1.78288
-0.64643 2.13255 2.80756
-0.623347 2.17429 3.84425
0.686321 -0.233603 -2.91851
0.695202 -0.170676 -1.88507
0.669897 -0.196116 -0.558023
0.627312 -0.215233 0.779977
0.565384 -0.15526 2.10727
0.610558 -0.104195 3.14282
0.647122 -0.0548744 4.17074
0.688255 0.0648722 -2.93006
0.620733 0.269643 3.08463
0.656838 0.316923 4.11453
0.685826 0.613815 -2.93556
0.642572 1.01462 2.95241
0.668794 1.06237 3.99469
0.720656 1.60409 -2.9947
0.726348 1.69808 -1.9705
0.714609 1.86698 -0.715
0.677317 2.01134 0.527209
0.64825 2.0917 1.78292
0.654706 2.13576 2.80761
0.672614 2.17791 3.84432
1.38849 -0.237412 -2.9151
1.39677 -0.178189 -1.88011
1.36821 -0.183213 -0.55866
1.30103 -0.197885 0.773377
1.21969 -0.152573 2.0957
1.23873 -0.102232 3.13501
1.27669 -0.0518373 4.16624
1.39356 0.0680142 -2.92901
1.41154 0.14714 -1.89976
1.38994 0.169837 -0.588541
1.32133 0.171848 0.727425
1.21638 0.219918 2.03965
1.2417 0.269817 3.0782
1.28295 0.319116 4.11115
1.39296 0.640447 -2.94205
1.40347 0.715179 -1.91064
1.42369 0.852285 -0.635274
1.3653 0.931218 0.636376
1.2635 0.969407 1.91275
1.27036 1.01618 2.95352
1.30005 1.06408 3.99496
1.41741 1.62455 -3.00112
1.42245 1.71817 -1.97757
1.40976 1.87512 -0.719253
1.36444 2.00961 0.527739
1.31982 2.08964 1.7866
1.31365 2.13531 2.81129
1.32547 2.17846 3.847
-0.698338 0.404448 -1.90462
0.000194997 0.141558 -1.91844
-0.801536 0.0496361 -1.245
-0.617831 0.595 2.02414
7.84993e-05 0.212732 2.0674
-0.613483 0.172625 1.395
0 0.74275 -1.98377
-0.730479 0.772892 -1.26126
0 0.967954 1.91042
-0.674872 0.971355 1.27373
0.698737 0.404529 -1.90482
0.75933 0.0921934 -1.24496
0.617782 0.595 2.02415
0.609618 0.176687 1.39523
0.730423 0.772972 -1.26126
0.67485 0.97136 1.27373
-0.688952 0.129688 0.075
-0.814027 0.478375 -0.606255
-0.0140307 0.14941 -0.584955
-0.812659 0.538676 0.68749
-0.00432705 0.149996 0.73509
-0.71755 0.886998 0.006235
-6.11656e-05 0.965784 -0.62751
-1.02522e-05 1.21486 0.63998
0.668169 0.150745 0.075135
0.812713 0.492555 -0.60621
0.811847 0.543137 0.68758
0.71728 0.886809 0.006235
-0.875149 0.441411 -1.25313
0.8752 0.448542 -1.25311
-0.00691785 0.0611236 -1.24498
-3.05828e-05 0.906917 -1.26126
9.74983e-05 0.404488 -2.14483
-0.81377 0.508525 0.0406175
0.813642 0.517846 0.040685
-0.00917887 0.149703 0.0750675
-3.57089e-05 1.21329 0.006235
-0.886202 0.566838 1.33436
0.886172 0.569069 1.33448
-0.00212427 0.169582 1.39511
-5.12611e-06 1.08775 1.27373
3.92497e-05 0.595 2.15743
-0.688314 0.279724 -1.88774
-0.356121 0.141574 -1.91843
-0.732966 0.126339 -1.575
-0.581397 0.41 2.03963
-0.272382 0.271385 2.00868
-0.581712 0.196264 1.725
-0.644014 0.529171 -1.85715
-0.3375 0.725322 -1.96639
-0.718755 0.729408 -1.57813
-0.616016 0.78 1.97041
-0.3025 0.961308 1.90378
-0.631635 0.959876 1.5906
0.356511 0.141566 -1.91843
0.688612 0.279764 -1.88774
0.720607 0.139069 -1.57498
0.272539 0.271394 2.00881
0.581506 0.41 2.03983
0.580221 0.197931 1.72525
0.3375 0.725381 -1.96636
0.645633 0.529293 -1.85868
0.718741 0.729544 -1.57813
0.3025 0.961285 1.90375
0.615943 0.78 1.97036
0.631631 0.959886 1.5906
-0.754885 0.0881542 -0.915
-0.701241 0.125532 -0.255
-0.831604 0.266038 -0.595628
-0.356481 0.149842 -0.584978
-0.629822 0.16442 1.065
-0.676822 0.133686 0.405
-0.825565 0.29614 0.711245
-0.329703 0.150642 0.735045
-0.72888 0.803051 -0.944383
-0.815183 0.678523 -0.616883
-0.722449 0.860137 -0.310638
-0.3821 0.935425 -0.62751
-0.696676 0.961399 0.956853
-0.811001 0.763427 0.663735
-0.710353 0.911559 0.323108
-0.410339 1.19404 0.63998
0.72312 0.120251 -0.914933
0.335545 0.149779 -0.584933
0.67667 0.150397 -0.254888
0.838011 0.276767 -0.59556
0.625721 0.168736 1.0652
0.323366 0.150452 0.735135
0.659667 0.151094 0.405158
0.82695 0.299756 0.71138
0.728904 0.803198 -0.944383
0.381931 0.935325 -0.62751
0.815238 0.685993 -0.61686
0.720002 0.857785 -0.310638
0.696653 0.961418 0.956853
0.410173 1.19377 0.63998
0.810227 0.765496 0.66378
0.709448 0.910722 0.323108
-0.862522 0.422929 -1.57887
-0.34912 0.404468 -2.10721
-0.00336143 0.141093 -1.58171
0.000146247 0.273023 -2.05948
-0.882866 0.245524 -1.24906
-0.404227 0.0616929 -1.24499
-0.771058 0.580919 1.67925
-0.308896 0.595 2.14169
-0.00102289 0.200308 1.73126
5.88745e-05 0.403866 2.14263
-0.871942 0.369732 1.36468
-0.307804 0.169574 1.39506
-1.52914e-05 0.867089 -1.62251
4.87491e-05 0.573619 -2.02611
-0.882945 0.607151 -1.25719
-0.365255 0.839141 -1.26126
-2.56306e-06 1.00158 1.59207
1.96248e-05 0.781477 2.08659
-0.79623 0.769096 1.30404
-0.337439 1.07137 1.27373
0.862526 0.426535 -1.57896
0.349417 0.404509 -2.10724
0.872109 0.270368 -1.24903
0.376206 0.0613158 -1.24497
0.771087 0.582034 1.67931
0.30891 0.595 2.14169
0.86974 0.372878 1.36485
0.303747 0.169576 1.39517
0.882645 0.610757 -1.25718
0.365196 0.839269 -1.26126
0.795639 0.770214 1.3041
0.337423 1.07137 1.27373
-0.831828 0.278873 0.0578088
-0.343837 0.150153 0.0750338
-0.830684 0.459893 -0.929691
-0.812566 0.49345 -0.282819
-0.0104743 0.102099 -0.914966
-0.0116048 0.149562 -0.254944
-0.814019 0.523601 0.364054
-0.889341 0.552757 1.01093
-0.00675296 0.149843 0.405079
-0.00322566 0.160185 1.0651
-0.815706 0.722784 0.0234263
-0.431024 1.1946 0.006235
-4.58742e-05 0.919039 -0.944383
-4.84373e-05 1.11661 -0.310638
-2.29806e-05 1.22945 0.323108
-7.68917e-06 1.16353 0.956853
0.83587 0.286814 0.05791
0.329552 0.15011 0.0751013
0.826009 0.470548 -0.929658
0.81274 0.5052 -0.282763
0.81408 0.530492 0.364133
0.88988 0.556103 1.01103
0.814304 0.726749 0.02346
0.430794 1.19439 0.006235
-0.865351 0.262624 -1.57694
-0.864823 0.272775 -0.922346
-0.815332 0.631938 -0.937037
-0.867465 0.568161 -1.5785
0.858471 0.275066 -1.57697
0.865701 0.570025 -1.57855
0.813968 0.637282 -0.93702
0.863349 0.295835 -0.922295
-0.380174 0.140133 -1.57835
0.366359 0.136408 -1.57834
0.355887 0.102186 -0.914949
-0.383929 0.102374 -0.914983
-0.351377 0.802986 -1.60032
-0.364928 0.866193 -0.944383
0.364838 0.866051 -0.944383
0.351348 0.8031 -1.60032
-0.352621 0.276374 -2.02505
-0.34331 0.551395 -1.97515
0.343459 0.551456 -1.97579
0.352964 0.276394 -2.02502
-0.831097 0.272765 -0.268909
-0.832206 0.285752 0.384527
-0.828163 0.75051 0.343581
-0.815756 0.70081 -0.296728
0.836388 0.282067 -0.268825
0.814919 0.706445 -0.2967
0.827296 0.753638 0.34362
0.834692 0.291644 0.384645
-0.350159 0.149997 -0.254972
0.332527 0.149987 -0.254916
0.326463 0.150273 0.405118
-0.336753 0.150432 0.405039
-0.419619 1.09113 -0.310638
-0.429217 1.21139 0.323108
0.429038 1.21119 0.323108
0.419503 1.09114 -0.310638
-0.879073 0.355361 1.03796
-0.753538 0.389866 1.70213
-0.76121 0.774548 1.63493
-0.809554 0.752729 0.983889
0.877857 0.360272 1.03812
0.808967 0.754412 0.98394
0.761043 0.775107 1.63496
0.753641 0.391439 1.70228
-0.319751 0.160179 1.06505
0.313396 0.160181 1.06515
0.288143 0.198404 1.72825
-0.290093 0.198384 1.72813
-0.343992 1.14633 0.956853
-0.319969 0.993294 1.59134
0.319961 0.993314 1.59134
0.343974 1.14634 0.956853
-0.290639 0.406933 2.13166
0.290725 0.406933 2.13161
0.305705 0.780738 2.05952
-0.305698 0.780738 2.05948
-0.683387 0.217362 -1.87938
-0.53428 0.141594 -1.91841
-0.726707 0.136665 -1.74
-0.556566 0.3175 2.04076
-0.408613 0.228828 2.05121
-0.556797 0.217113 1.89
-0.640773 0.591533 -1.85734
-0.50625 0.697503 -1.93859
-0.702585 0.697359 -1.73656
-0.606334 0.8725 1.93476
-0.45375 0.954429 1.8969
-0.601715 0.945836 1.74903
0.53467 0.141586 -1.91841
0.683739 0.217382 -1.87939
0.717015 0.146737 -1.73999
0.40877 0.230041 2.05019
0.557034 0.3175 2.04133
0.552041 0.222035 1.89026
0.50625 0.69761 -1.93857
0.644538 0.591676 -1.86106
0.702574 0.697505 -1.73656
0.45375 0.954335 1.8968
0.606176 0.8725 1.93462
0.601709 0.945836 1.74903
-0.718413 0.12056 -0.75
-0.707318 0.123522 -0.42
-0.817589 0.171271 -0.590314
-0.527941 0.149588 -0.584989
-0.636258 0.16205 0.9
-0.670852 0.135589 0.57
-0.812351 0.184706 0.723123
-0.492313 0.15112 0.735023
-0.729773 0.819824 -0.785946
-0.786314 0.763873 -0.622196
-0.726214 0.848023 -0.469074
-0.566772 0.90755 -0.62751
-0.697325 0.94617 0.798416
-0.775676 0.858554 0.651858
-0.706181 0.923266 0.481544
-0.596947 1.14652 0.63998
0.690306 0.148989 -0.749921
0.510217 0.150193 -0.584921
0.680923 0.15022 -0.419899
0.821226 0.183591 -0.590235
0.63279 0.165743 0.900191
0.487079 0.150946 0.735158
0.655408 0.151278 0.570169
0.813104 0.188764 0.72328
0.729855 0.820021 -0.785946
0.566656 0.907553 -0.62751
[...]
POINT_DATA 3682
SCALARS point_scalars float 1
LOOKUP_TABLE default
-61.1385
-32.7026
-25.856
-34.9633
-74.4591
-32.725
-26.9609
-34.8998
-38.4389
-36.6545
-39.7042
-48.1476
-38.1459
-36.896
-39.9484
-48.1041
1.15366
-100.747
-35.8334
-30.7563
-36.9269
-32.7556
-28.4398
1.15366
-95.2634
-36.8272
-33.2375
-34.2878
-29.5913
-28.4398
80.3218
-100.684
-41.0155
-40.0436
-36.7628
-30.4798
-28.6225
13.6257
-59.9015
-59.3515
-62.2524
-39.5287
-35.2958
-33.597
81.0504
-122.277
-37.9728
-36.8158
-32.7556
-29.7478
-27.4074
81.0504
-27.7527
-26.7659
160.229
-28.4541
-27.9734
100.859
-57.8817
-34.3943
-69.239
-39.9497
-30.1698
-29.7069
79.7749
-136.985
-37.6836
-36.5594
-32.7438
-29.7949
-27.3078
79.7749
-27.663
-27.1826
159.818
-28.5859
-27.8821
102.828
-58.392
-35.7493
-69.1631
-39.9104
-30.1237
-30.0914
-5.17562
-61.3126
-34.5615
-35.2821
-37.1179
-30.7079
-28.3717
-5.17562
-106.532
-36.7606
-33.5785
-34.3546
-29.5753
-28.5364
80.4853
-100.766
-41.2682
-40.0968
-36.6801
-30.4274
-28.5613
27.3835
-60.2218
-59.6595
-62.1923
-39.5165
-35.2241
-33.5522
4.53046
-124.463
-76.4058
-30.0465
-27.8176
-38.2713
-98.4057
-55.9388
-30.5202
-47.5988
2.78768
-74.1959
-29.99
-38.0862
-55.8949
-47.5303
-32.1434
-37.419
-43.7368
-30.6998
-34.7594
-52.6856
6.83415
-69.0678
-31.7629
-37.6511
-30.8334
-52.6996
-69.954
-69.9288
-75.7194
-33.4504
197.417
-36.2239
-36.2901
-33.4374
-87.3584
-51.7608
-51.329
-35.661
-43.9804
-21.9597
11.7007
-131.814
-63.3654
-29.9372
-29.8059
-37.7256
5.54055
-82.3926
-55.5174
-31.5977
-31.078
-39.5974
-131.918
8.77568
-53.3462
-29.417
-29.9374
-37.7603
-81.8687
5.93575
-55.8055
-31.0535
-31.546
-39.5517
-51.8027
-34.5347
-36.8592
-42.5777
-36.2137
-32.375
-25.7677
-34.7646
-36.7288
-40.8932
-54.0701
6.56391
-50.4667
-39.7736
-49.0213
-65.6813
-57.8934
-42.5939
-33.0956
-36.9194
-36.4179
-34.8276
-32.2622
-26.4772
-36.9236
6.80604
-41.5799
-53.8311
-50.4601
-65.673
-39.8674
-48.977
-128.387
179.389
-62.5317
156.856
-70.7541
-75.8406
-39.665
-26.698
-33.7473
-22.4027
-49.4065
-36.1605
-58.3867
174.548
-73.3086
-34.8466
-36.2784
-26.6118
-50.9908
-44.3163
-127.881
179.228
-70.1933
-76.0487
-39.4804
-26.6058
-47.8316
-36.1134
-71.9971
-34.9147
-50.7764
-44.3106
-33.468
-33.0545
-48.2139
-36.4546
-60.4171
-36.2269
-35.2329
-46.8716
-33.28
-35.386
-41.8354
-81.9297
-12.8662
-17.9369
-80.9614
-54.9338
-33.0651
-32.9322
-48.2594
-36.436
-35.4368
-46.6695
-41.8588
-81.9736
-117.442
-50.5344
-46.6095
-99.8471
-107.32
-98.077
-46.9479
-51.6596
-60.4141
-59.9378
-59.8622
-59.5973
-53.3246
-14.826
-14.7823
-53.5281
148.745
160.185
157.615
148.57
-34.0079
-32.5896
-40.6391
-42.2667
-33.7183
-42.5353
-40.7018
-32.3958
-35.6336
-35.3586
-33.0347
-33.0761
-17.9709
-76.0308
-76.0209
-17.8446
-44.8922
-38.989
-40.5446
-45.7549
-43.449
-45.7119
-40.3983
-38.9885
-35.5495
-35.5867
-34.6825
-34.7036
-54.7911
-36.5902
-36.5762
-54.7971
-26.3971
-26.3142
-27.9067
-27.9413
14.4842
-141.503
-93.4957
-30.9
-31.4004
-33.8114
12.027
-68.3217
-64.2858
-34.0402
-32.2693
-35.6148
-146.295
11.9759
-91.9463
-31.5392
-30.9283
-33.7391
-69.7934
12.1996
-64.2665
-32.2326
-33.9867
-35.581
-43.6536
-35.6505
-36.1382
-41.0691
-35.4947
-33.5007
-28.5315
-35.0858
-31.8334
-43.8222
-52.4231
0.0569445
-48.5327
-45.0108
-48.1417
-59.7282
-44.1392
-40.7249
-34.8145
-35.0087
-36.1629
-35.2508
-33.5049
-29.7703
-32.1128
0.0883311
-44.2892
-52.6916
-48.5513
-59.7252
-44.9385
-48.0673
8.89773
1.80621
-27.7936
118.241
-129.688
-129.645
-84.7963
126.952
-87.1259
-60.2995
-72.4862
-77.7365
-29.8687
-30.8726
-35.207
-28.6509
-28.2078
-28.1669
-31.0313
-25.9747
-40.2336
-37.0485
-48.3692
-36.9162
-94.7732
-91.7526
-56.7168
168.982
-59.4871
-44.821
-72.2664
-39.9271
-30.6657
-30.6533
-33.3778
-27.7192
-44.0785
-50.3165
-47.9497
-45.5568
7.06465
0.691948
-26.7097
117.871
-79.1922
-65.9761
-72.6947
-73.8226
-29.8474
-30.829
-35.1364
-28.5904
-39.6618
-37.1513
-46.5852
-36.807
-59.5801
-44.8132
-71.456
-40.0967
-44.0123
-50.2719
-47.8175
-45.5398
-32.797
-32.0114
-32.3549
-32.486
-36.6335
-38.512
-40.6229
-36.5263
-43.4595
-43.5251
-50.4701
-39.0946
-29.7605
-34.7746
-33.7883
-29.0065
-34.768
-34.788
-33.8509
-35.3988
-53.8417
-50.7082
-46.9566
-72.4991
7.00816
7.15101
-4.07779
3.14447
-68.4887
-68.4834
-75.1118
-61.8726
-32.1379
-31.789
-31.9008
-32.3359
-36.5501
-38.8638
-41.0263
-36.6329
-29.99
-34.913
-34.0284
-28.9327
-53.8821
-50.6822
-47.0642
-72.5284
-84.765
-69.7749
-71.1462
-58.0357
-84.7783
-69.9496
-70.1404
-58.6508
-72.0423
-75.3183
-75.4265
-69.479
-45.492
-33.4442
-33.4752
-22.6556
197.38
156.262
184.609
196.909
-34.7031
-36.302
-36.0289
-38.3162
-34.73
-36.441
-35.9934
-38.3036
-33.3496
-34.446
-33.1125
-33.3088
-85.2592
-58.8379
-86.3001
-85.3119
-47.6224
-49.7014
-54.8689
-48.9476
-47.3806
-48.9555
-54.5559
-48.6552
-35.8501
-35.8037
-35.7793
-35.6362
-39.7187
-44.0079
-44.0062
-48.9317
-23.8034
-21.0356
-25.9698
-23.7152
-71.7461
121.761
-83.8097
142.029
-114.536
-55.4618
-34.2231
-28.4523
-32.1155
-27.6057
-39.6034
-35.6373
-36.1626
99.3546
-58.6006
169.855
-53.0816
-51.9773
-37.0239
-29.1906
-33.5885
-28.4938
-40.4363
-37.4925
-83.4051
141.994
-82.8169
121.536
-88.2756
-53.3229
-32.0839
-27.411
-34.2768
-28.3827
-39.751
-35.6638
-58.5654
166.685
-35.536
104.891
-53.2102
-52.1672
-33.5717
-28.4498
-36.9357
-29.1354
-40.3303
-37.4694
-49.7226
-58.4277
-33.0218
-35.2813
-41.1335
-34.8155
-49.0226
-38.3309
-41.8255
-35.7395
-32.0466
-32.7749
-32.1488
-35.9268
-33.771
-35.508
-46.4391
-21.4061
-40.9695
-41.9057
-47.0335
-55.3015
-4.81102
4.45347
-47.7222
-54.9557
-40.7517
-40.735
-45.7095
-61.3154
-70.573
-60.8788
-56.1247
-59.608
-49.3145
-38.1402
-32.3749
-34.2582
-42.5934
-34.6796
-41.003
-35.8229
-33.7652
-35.5865
-31.8035
-32.708
-31.4624
-38.7572
-46.6923
-21.5246
-4.69969
4.6716
-41.3773
-42.1331
-47.1294
-55.3188
-47.6769
-54.9614
-70.5768
-60.8619
-40.8967
-40.7652
-45.7893
-61.2337
-121.505
-130.928
149.83
169.86
-63.6106
-63.111
153.162
153.097
-77.2496
-57.449
-72.3078
-68.8975
-39.4125
-40.1842
-26.2958
-27.9801
-34.2073
-34.2264
-24.0226
-23.9276
-46.5575
-51.8309
-35.9503
-36.6075
-57.1691
-57.2759
171.512
172.994
-58.8383
-91.7605
-45.7658
-24.2869
-36.3186
-36.3119
-27.0459
-27.0907
-44.9917
-53.0873
-49.1042
-40.1253
-117.478
-130.125
169.12
149.497
-82.2326
-58.8018
-73.4564
-69.2763
-39.9892
-39.2592
-26.1887
-27.9262
-45.6302
-51.6628
-35.9372
-36.568
-92.0099
-59.6169
-24.2936
-45.9285
-52.9243
-44.7993
-40.2105
-49.1069
-33.6991
-32.6651
-33.9234
-32.8146
-48.7143
-47.333
-34.7919
-38.4354
-60.1761
-60.049
-36.009
-36.0213
-33.5575
-37.4077
-45.8561
-44.8433
-33.2258
-33.2417
-35.4305
-35.441
-41.0014
-42.3794
-57.9605
-82.0603
-13.2283
-13.2782
-17.1541
-17.2991
-80.0852
-80.0964
-54.9402
-54.947
-33.2303
-32.5751
-33.7316
-32.7373
-47.5228
-49.217
-34.7536
-38.6127
-37.5682
-33.8471
-45.5793
-45.0032
-42.5383
-41.2012
-82.1009
-58.2128
-68.4791
-71.8151
-82.6716
-55.1919
-41.8991
-40.7459
-58.0068
-59.377
-40.9029
-56.198
-58.0827
-40.4462
-69.7007
-20.2049
-86.8006
-88.6492
-90.8516
-52.4901
-83.8719
-84.4732
-69.4296
-89.6851
-86.8419
-18.3369
-41.1432
-40.8049
-58.4555
-56.2471
-41.1283
-59.0452
-58.682
-41.2324
-82.1515
-85.2448
-71.7197
-74.2939
-80.4875
-80.8329
-72.1481
-85.0836
-47.5926
-49.9518
-69.3024
-68.2383
-47.3288
-66.4899
-69.1347
-50.4633
-57.5992
-46.6759
-45.2518
-57.82
-10.2201
-3.7931
-23.1667
-26.5988
-9.77727
-26.3382
-23.1754
-3.72317
-58.2107
-57.506
-45.3283
-46.809
93.7089
119.608
149.588
95.2974
116.668
172.202
183.475
121.577
88.3405
120.588
183.695
172.185
89.5234
94.4155
149.164
119.203
-33.8336
-32.5261
-34.9518
-35.2963
-32.542
-32.4236
-34.5876
-31.9389
-45.3048
-46.3442
-37.8667
-36.5025
-45.9747
-38.2721
-38.5029
-47.2628
-33.1557
-35.3784
-34.7414
-31.9794
-46.183
-47.3634
-38.6265
-38.5079
-45.2522
-36.6875
-38.0141
-46.5494
-31.2265
-31.2041
-34.2874
-32.9908
-37.4302
-39.0016
-34.3528
-33.2265
-36.659
-32.9366
-34.2286
-38.9557
-33.6889
-33.8364
-33.0209
-32.2776
-33.7019
-32.3873
-33.0547
-33.8367
-20.4303
-75.4614
-60.634
4.38957
-60.0751
-74.1356
-85.8964
-64.693
-60.0175
-64.6672
-85.9257
-74.1398
-20.5121
4.38042
-60.7332
-75.7297
-36.9694
-45.4752
-47.9013
-33.6363
-34.9953
-34.5713
-50.8854
-51.8569
-37.3042
-44.2333
-46.1551
-36.0763
-45.0022
-34.9819
-51.4866
-50.0292
-38.3739
-33.9578
-47.0055
-44.8513
-45.0361
-49.9349
-51.3115
-35.1624
-37.242
-35.9985
-45.9181
-44.1032
-35.1308
-50.5377
-50.805
-34.5412
-35.4488
-35.4016
-35.6874
-36.3631
-35.6796
-36.3737
-35.6912
-35.4246
-32.4579
-31.437
-36.0425
-37.4751
-32.5512
-37.604
-36.0645
-31.4748
-56.8643
-50.2488
-49.0194
-61.684
-34.1688
-33.4119
-39.8273
-41.3325
-34.1396
-41.3132
-39.8233
-33.3954
-56.85
-61.6848
-49.0232
-50.2397
-29.1257
-26.9134
-23.0562
-28.5271
-29.0898
-28.4618
-22.9535
-26.8766
-30.0975
-27.7987
-26.7477
-28.837
-30.1498
-28.8923
-26.7912
-27.8221
12.85
-116.811
-110.451
-32.1117
-32.2746
-32.7631
19.4938
-22.9978
-80.9771
-35.1282
-32.7667
-33.4249
-132.195
5.68731
-120.605
-32.3368
-32.206
-32.574
-29.88
22.1563
-86.7688
-32.7244
-35.066
-33.3815
-40.8214
-36.7684
-37.0314
-39.6686
-36.2236
-35.3368
-35.9163
-35.6728
-33.063
-45.9943
-53.7473
-16.9097
-48.3747
-46.2454
-48.2404
-53.0127
-40.7672
-39.4797
-36.1835
-35.8868
-36.538
-36.0095
-34.6955
-37.0275
-33.4288
-17.1393
-45.0048
-53.9281
-48.3756
-52.9627
-46.1849
-48.1702
2.92418
2.95136
-18.4672
76.9255
-124.795
-124.754
-101.383
110.347
-74.5503
-77.7083
-76.3359
-82.0412
-29.9349
-30.3856
-33.3073
-29.0186
-28.0835
-28.0266
-28.8499
-25.8229
-39.8334
-37.1652
-45.3191
-37.4766
-100.866
-99.989
-44.1723
73.2514
-59.6119
-50.5499
-65.8525
-44.8397
-30.5925
-30.586
-32.0047
-28.5345
-45.5575
-49.0492
-47.5104
-47.4471
5.15455
2.55691
-19.2843
76.3048
-80.1679
-68.4978
-74.5784
-73.0923
-29.9035
-30.3415
-33.31
-28.9718
-39.4079
-37.2065
-43.7769
-37.3873
-59.6308
-50.4756
-65.5434
-44.9397
-45.494
-48.9886
-47.4057
-47.413
-32.4422
-32.1353
-31.9502
-32.307
-37.0934
-37.837
-38.5751
-36.9138
-43.6917
-43.6784
-46.7065
-41.2434
-29.9105
-32.5812
-32.4112
-27.5343
-34.7595
-34.7684
-34.254
-35.4045
-53.2078
-51.5041
-50.2931
-58.891
6.62167
6.69548
1.38937
8.46525
-68.944
-68.9453
-72.1922
-65.7089
-31.902
-31.7068
-31.4497
-32.0182
-37.2314
-38.0452
-38.8807
-36.9556
-30.0483
-32.5161
-32.987
-27.7691
-53.2262
-51.5128
-50.3602
-58.8879
-75.8347
-69.7465
-70.4881
-63.6055
-75.497
-69.8617
-70.106
-64.3666
-77.6282
-75.4653
-75.3939
-72.1558
-39.3056
-33.235
-33.2493
-28.0622
197.992
176.45
212.812
198.189
-36.0857
-36.2793
-36.0154
-37.1834
-36.213
-36.4028
-36.1351
-37.1217
-33.4306
-33.8295
-33.1956
-33.3911
-86.9125
-77.7009
-87.27
-86.935
-53.6783
-50.6711
-53.857
-50.9567
-53.3891
-50.0224
-53.6498
-50.7156
-35.9901
-35.6984
-35.6844
-35.5088
-41.7185
-43.9673
-43.9647
-46.4484
-22.3992
-21.1043
-23.6364
-22.3462
15.4052
12.4213
-3.62515
65.3467
-132.902
-133.402
-104.402
80.5064
-76.9864
-72.8157
-107.459
-52.505
-30.219
-29.8189
-32.5665
-28.9396
-30.5442
-28.973
-31.0062
-27.4193
-35.7142
-38.8485
-40.031
-36.1962
8.07153
2.64637
-33.3277
58.3676
-82.928
-83.6913
-60.3553
94.1145
-58.5612
-59.6984
-55.6945
-53.4577
-32.4007
-31.2273
-36.8234
-29.9727
-31.4957
-30.8072
-32.2954
-29.2737
-37.5687
-41.6325
-40.0946
-38.4808
-133.59
-133.348
-104.043
80.3553
12.4544
9.98671
-8.23882
63.7879
-67.5882
-60.7667
-77.255
-51.8932
-30.0759
-28.9267
-30.9613
-27.3098
-30.2314
-29.8043
-32.6567
-28.8942
-35.8611
-38.5511
-40.0951
-36.332
-82.917
-79.5713
-59.5345
94.6279
8.13145
0.848771
-32.2595
63.0263
-59.0294
-59.7471
-55.7117
-53.7879
-31.4662
-30.7878
-32.2737
-29.2368
-32.3482
-31.1776
-36.772
-29.9162
-37.5319
-41.5793
-40.0256
-38.4471
-50.4697
-50.028
-49.0203
-58.0713
-34.9001
-33.377
-33.3082
-35.8619
-36.3165
-36.9125
-38.5144
-35.6424
-41.7963
-43.1045
-45.4317
-40.2238
-35.4221
-37.012
-40.8093
-35.8557
-32.7776
-32.1757
-32.2417
-32.6598
-24.7394
-28.1708
-29.7489
-27.4511
-34.7875
-34.7747
-34.2364
-35.4846
-33.5932
-40.6656
-43.7207
-27.0806
-41.8223
-39.5637
-40.6942
-41.4956
-54.1618
-53.8533
-49.7698
-70.4647
4.70231
7.31092
0.656681
8.77911
-49.3312
-50.4261
-49.179
-53.0659
-42.0443
-37.2022
-40.1349
-39.7957
-48.5246
-49.9662
-48.3074
-53.698
-64.3993
-67.4537
-68.1339
-63.3259
-49.2443
-65.9194
-57.5043
-59.4226
-41.8132
-43.1355
-45.6023
-40.116
-33.842
-32.5487
-32.3487
-33.6357
-36.1356
-37.0704
-38.8527
-35.5159
-35.9761
-37.0772
-39.2046
-35.9782
-34.8876
-34.8126
-34.2531
-35.5787
-32.7556
-31.9727
-31.8429
-32.4981
-25.6057
-28.7881
-30.1903
-30.5226
-33.8276
-40.7481
-43.9692
-27.2827
5.12769
7.50059
0.845663
9.05735
-42.1445
-40.0598
-41.0632
-41.7976
-54.5278
-53.3171
-49.5948
-70.4688
-49.3459
-50.4087
-49.1375
-53.4974
-64.4191
-67.4358
-68.1342
-63.3137
-42.144
-37.3556
-40.1958
-39.8486
-48.3547
-49.9976
-48.2654
-53.573
-113.105
-98.9013
-126.433
-132.21
163.107
185.05
165.81
179.344
-71.8893
-62.1877
-62.5628
-62.517
144.527
160.195
155.977
155.923
-70.4173
-70.405
-72.6575
-63.3508
-76.7042
-74.9315
-78.3901
-71.871
-37.1497
-42.7287
-39.5614
-39.8913
-27.8162
-25.4002
-26.4509
-27.1519
-31.961
-35.2532
-34.0245
-34.0363
-24.409
-21.4823
-22.9678
-22.912
-49.185
-49.4969
-48.3851
-50.0161
-36.4503
-35.9531
-35.8836
-36.6232
-65.4624
-51.5742
-57.9052
-57.9342
176.156
173.818
174.37
174.447
-74.0688
-71.7874
-65.046
-80.3309
-36.617
-34.2746
-39.8874
-29.4695
-34.8474
-37.8775
-36.285
-36.2815
-27.0772
-26.4094
-26.6734
-26.6992
-49.1381
-53.4301
-47.6069
-53.0897
-44.6717
-44.1023
-46.5953
-42.1725
-112.582
-98.4877
-124.545
-131.046
162.919
184.778
178.983
165.618
-71.1938
-70.0533
-73.9598
-64.2719
-75.0122
-75.3482
-79.1306
-72.0494
-37.0168
-42.5287
-39.693
-39.3782
-27.7396
-25.302
-26.3503
-27.0753
-47.3187
-48.3876
-47.2911
-49.027
-36.3752
-35.9234
-35.846
-36.5695
-72.8557
-70.5399
-79.0318
-65.5226
-36.7604
-34.3426
-29.5295
-39.9881
-48.9565
-53.0824
-52.8547
-47.3814
-44.661
-44.0995
-42.1686
-46.5925
-33.0909
-33.87
-33.6743
-33.0551
-32.7969
-33.2378
-33.405
-32.8535
-43.4589
-54.8386
-48.3916
-48.1097
-36.3727
-36.3385
-35.9201
-37.0301
-53.9414
-68.1556
-60.3666
-60.2826
-37.4989
-35.2364
-36.2258
-36.0874
-34.6562
-35.6146
-34.9609
-36.1292
-43.3045
-47.4979
-45.8935
-46.2823
-33.5241
-33.1442
-33.2631
-33.275
-35.2152
-35.6775
-35.3939
-35.3999
-44.1053
-39.7274
-41.4634
-42.0991
-79.5528
-83.3707
-76.5688
-83.876
-6.32076
-17.4775
-12.797
-12.635
-5.88526
-35.2942
-17.8582
-17.6374
-78.0022
-83.8514
-80.7831
-80.7891
-58.7339
-52.0051
-54.9599
-54.957
-32.7317
-33.6814
-33.1725
-32.8847
-32.6604
-33.1458
-33.2458
-32.7582
-43.3962
-55.179
-48.3374
-48.5302
-36.7413
-36.3963
-35.9749
-37.4065
-34.8868
-35.6497
-36.3092
-35.2345
-42.6949
-47.0111
-45.566
-46.3431
-44.1811
-39.7234
-42.2439
-41.5519
-79.5882
-83.4403
-83.9182
-76.7613
-127.925
-116.303
-119.084
-88.9998
-51.9569
-46.3402
-53.7088
-49.1773
-46.8326
-43.2212
-51.8326
-47.0868
-62.1767
-73.0827
-128.377
-109.592
-117.947
-100.796
-115.698
-93.569
-61.1917
-72.4124
-126.233
-107.343
-46.9498
-43.4652
-52.7512
-47.2393
-53.8547
-47.5674
-55.1716
-49.9751
-69.6719
-57.2322
-62.2862
-61.7107
-69.1126
-56.4543
-62.2696
-61.7148
-59.8095
-53.0343
-68.5939
-59.9888
-59.2231
-52.7894
-67.4386
-59.8123
-57.5759
-52.2597
-55.1202
-49.8512
-17.0305
-9.58347
-20.0234
-14.0784
-17.0051
-9.51424
-20.0005
-14.0541
-57.7585
-52.429
-55.2721
-50.0246
145.202
153.017
146.35
152.511
143.809
164.097
156.94
166.563
161.479
140.09
166.189
154.472
152.845
145.102
152.303
146.028
-33.4155
-34.3366
-33.8671
-34.6062
-32.291
-32.5063
-32.6924
-32.971
-41.8203
-43.5241
-38.6236
-39.4793
-42.0313
-44.7499
-40.0443
-42.3371
-33.2335
-34.1054
-33.4481
-34.4372
-42.2093
-44.8896
-40.2833
-42.5693
-42.0524
-43.7045
-38.6995
-39.5997
-32.4059
-31.8868
-32.4969
-32.853
-35.2714
-36.8348
-34.6671
-35.8986
-36.5771
-34.8802
-35.7343
-34.4276
-33.3562
-32.9065
-33.141
-32.8352
-32.9455
-33.3738
-32.9017
-33.1749
-26.1856
-4.81116
-34.3789
-16.2697
-70.607
-73.3189
-78.6758
-78.5984
-73.3243
-70.5331
-78.615
-78.6684
-4.63292
-26.003
-16.2138
-34.4433
-44.1096
-41.482
-45.2971
-45.3935
-36.3112
-38.7101
-39.3062
-42.4829
-38.6185
-40.5539
-40.4096
-42.5362
-46.6861
-43.078
-49.2712
-44.4819
-42.5078
-40.9961
-44.2209
-44.6988
-46.6537
-43.0844
-49.2089
-44.5472
-38.5056
-40.4281
-40.2357
-42.3659
-36.3197
-38.7788
-39.237
-42.616
-35.6287
-35.3173
-35.9381
-35.4793
-35.689
-35.3767
-35.9432
-35.5005
-33.5764
-34.9941
-34.4445
-35.9742
-33.6032
-35.001
-34.4671
-36.0019
-54.9446
-57.8648
-51.756
-54.9621
-35.0811
-36.948
-36.4137
-38.3702
-35.0652
-36.9328
-36.4034
-38.3557
-54.9616
-57.8615
-51.7634
-54.946
-27.64
-26.5706
-26.2763
-25.1543
-26.4605
-27.5479
-25.055
-26.1699
-28.0826
-28.3701
-27.5708
-28.1244
-28.4361
-28.1207
-28.1673
-27.5957
-25.6464
45.2308
-109.164
15.3066
-84.5249
-84.0413
-33.879
-30.5802
-31.9112
-29.5038
-35.5217
-32.775
-53.0755
36.0568
-61.6553
48.8921
-72.354
-60.6356
-37.9324
-31.4935
-32.8673
-31.0196
-36.8449
-34.6441
-108.799
11.9135
-33.2684
44.2568
-102.13
-82.1848
-31.7887
-29.5195
-34.0385
-30.5996
-35.5286
-32.6285
-63.6865
34.6322
-57.1084
36.1959
-71.3986
-61.9666
-32.8353
-30.9694
-37.9028
-31.4359
-36.8009
-34.6121
-42.3675
-45.6849
-34.4271
-36.6882
-37.5448
-34.6462
-43.9021
-39.0267
-37.0668
-35.4811
-32.4874
-33.7487
-30.0439
-35.17
-34.3153
-35.5161
-37.6473
-19.4733
-41.4133
-44.925
-48.831
-58.1818
-4.91824
-1.91265
-46.725
-51.4201
-45.1191
-45.2223
-47.6182
-52.6538
-59.2249
-58.0886
-42.2778
-46.127
-43.7422
-38.409
-33.4495
-35.7374
-37.1879
-34.0771
-38.0233
-35.8777
-34.3645
-35.7375
-32.2641
-33.6402
-30.6903
-35.9166
-37.8367
-19.6561
-4.86056
-1.87594
-41.7421
-45.2091
-49.0337
-58.6483
-46.7418
-51.409
-59.1863
-58.0941
-45.1834
-45.232
-47.5009
-52.5941
-3.96746
71.813
-28.8433
76.1116
-39.2706
-23.3168
119.242
116.361
-103.324
-22.8821
-103.091
-16.5809
-84.9923
-84.9209
125.691
126.894
-86.648
-82.5966
-59.7354
-64.8003
-74.6865
-62.0416
-80.2175
-71.3111
-32.658
-28.8878
-34.6166
-29.3726
-34.9234
-35.6642
-28.5828
-28.7115
-29.9399
-26.4785
-29.9006
-26.4255
-31.2959
-31.3476
-28.4322
-28.3865
-49.8325
-38.3012
-42.5517
-36.6277
-47.7464
-52.482
-36.4079
-37.6191
-44.7279
101.687
-43.584
108.127
-57.5076
-57.3636
172.632
172.375
-71.9402
-51.1336
-53.8936
-33.7759
-64.8246
-80.7828
-43.1907
-34.1234
-32.1167
-28.6526
-32.1061
-28.6306
-33.3963
-33.3944
-27.6305
-27.6389
-43.977
-42.8077
-49.8278
-51.6015
-46.2533
-49.5303
-48.009
-43.5774
-6.88728
70.7029
-29.548
75.9951
-37.2595
-22.0504
115.799
118.892
-79.9933
-82.4127
-61.2402
-67.3402
-74.6638
-66.0901
-86.3662
-70.0726
-32.7178
-28.8407
-34.5853
-29.3232
-35.587
-34.8674
-28.5204
-28.6525
-49.2328
-38.1063
-42.7053
-36.6408
-45.5965
-48.5185
-36.3381
-37.453
-72.0675
-51.2701
-53.8917
-33.4327
-80.9763
-64.5489
-34.6389
-43.3244
-43.8786
-42.7741
-49.7597
-51.5833
-49.3979
-46.131
-43.5596
-47.993
-32.3951
-33.0003
-32.1426
-32.2391
-32.4636
-31.9428
-32.7383
-32.3947
-37.9355
-35.7665
-38.993
-38.3224
-40.3741
-40.5821
-36.111
-37.2874
-46.4335
-40.9941
-46.5049
-41.0226
-50.3313
-50.2785
-39.132
-39.0258
-31.3331
-28.9343
-35.6268
-34.0323
-33.5586
-34.9877
-31.0301
-30.3417
-34.247
-35.3841
-34.2576
-35.3939
-33.8473
-33.8503
-35.3884
-35.4062
-50.8952
-63.7453
-49.4873
-55.5518
-46.5244
-47.0637
-78.5182
-68.2455
0.747742
8.69405
0.871311
8.85928
-4.11573
-4.07815
3.48487
3.65655
-71.376
-65.0055
-71.3856
-65.0009
-74.8067
-74.8067
-61.8264
-61.8251
-31.6654
-32.4981
-31.196
-32.0172
-31.8956
-32.3888
-32.5578
-32.2325
-38.5704
-35.6218
-39.4298
-38.5567
-40.9381
-40.7066
-36.0443
-37.4033
-32.1423
-29.1143
-35.8037
-34.1353
-35.2012
-33.7688
-30.9646
-30.4736
-50.9562
-63.8162
-49.5917
-55.5033
-47.1706
-46.7066
-68.232
-78.7932
-83.624
-85.9247
-75.0132
-63.5769
-63.6726
-77.5143
-58.0277
-58.1514
-84.3017
-86.3072
-75.0179
-64.4777
-76.2846
-64.153
-58.509
-58.7177
-71.799
-71.9057
-77.1956
-71.8375
-77.4747
-71.9489
-69.3845
-69.364
-45.329
-45.3624
-39.415
-28.1713
-28.1893
-39.4577
-22.801
-22.8052
180.816
199.997
154.482
154.492
185.554