# vtk DataFile Version 2.0
tri_press
ASCII
DATASET UNSTRUCTURED_GRID
POINTS 3682 float
-0.665 0.285 -2.25194
-0.695 0.415 2.36606
-0.714574 0.735 -2.145
-0.657222 0.875 2.235
0.665 0.285 -2.25194
0.695 0.415 2.36606
0.714571 0.735 -2.145
0.655 0.875 2.23722
-0.74316 0.260173 -0.712607
-0.779586 0.277081 0.826727
-0.812594 0.898804 -0.685
-0.792379 0.944373 0.775
0.743096 0.260238 -0.712607
0.779526 0.277141 0.826727
0.812315 0.899268 -0.68426
0.791385 0.944861 0.77648
-1.425 -0.0605782 -3.46068
-1.42971 -0.0171231 -2.26079
-1.48796 -0.0276799 -0.719476
-1.51188 -0.0123105 0.837673
-1.46084 0.0825924 2.38032
-1.44613 0.132117 3.58673
-1.45387 0.159451 4.78105
-1.42412 0.21285 -3.43556
-1.43088 0.276926 -2.24431
-1.50598 0.280704 -0.718415
-1.51872 0.284877 0.814516
-1.43092 0.361483 2.34193
-1.4269 0.408151 3.5473
-1.44555 0.437267 4.74423
-1.4471 0.72767 -3.36324
-1.47349 0.791431 -2.16878
-1.55663 0.901072 -0.696953
-1.5338 0.922191 0.769163
-1.41533 0.88968 2.24255
-1.42095 0.935065 3.45155
-1.44796 0.981993 4.66147
-1.47841 1.59835 -3.31421
-1.49798 1.67321 -2.1316
-1.53433 1.78152 -0.685231
-1.54476 1.83175 0.744054
-1.52008 1.82351 2.19133
-1.50243 1.82807 3.37583
-1.49863 1.85414 4.57699
-0.692517 -0.0576403 -3.46563
-0.681966 -0.0118678 -2.26806
-0.73009 -0.0388152 -0.71826
-0.766104 -0.0165894 0.847961
-0.734543 0.112677 2.39814
-0.723124 0.152655 3.59899
-0.728627 0.169817 4.78833
-0.689977 0.209905 -3.43699
-0.708838 0.427864 3.55761
-0.723401 0.446015 4.74989
-0.706399 0.704152 -3.35331
-0.703204 0.933682 3.45062
-0.727037 0.982344 4.6617
-0.725462 1.58441 -3.30431
-0.736137 1.66117 -2.12067
-0.768497 1.78193 -0.678431
-0.791585 1.83713 0.74378
-0.784727 1.82186 2.1864
-0.772036 1.82373 3.37091
-0.768051 1.85063 4.57354
0.723361 -0.0575567 -3.46547
0.714512 -0.0118126 -2.26797
0.755681 -0.0387278 -0.71816
0.761704 -0.0165108 0.848089
0.706377 0.112716 2.39833
0.70737 0.15271 3.59953
0.713292 0.169901 4.78905
0.713685 0.20997 -3.43686
0.698465 0.427905 3.55829
0.708032 0.446094 4.75072
0.730744 0.704232 -3.35315
0.682772 0.933738 3.452
0.698184 0.982437 4.66279
0.768873 1.5846 -3.30388
0.777056 1.6614 -2.12017
0.770922 1.78223 -0.677684
0.732343 1.83742 0.744837
0.692186 1.82207 2.18765
0.685964 1.8239 3.37213
0.689537 1.85078 4.57465
1.44751 -0.060361 -3.46026
1.44433 -0.0169122 -2.26042
1.50035 -0.027413 -0.71898
1.51591 -0.0120792 0.838365
1.45536 0.0827298 2.38121
1.43964 0.132265 3.58798
1.44286 0.159638 4.78252
1.43681 0.213054 -3.43517
1.42429 0.27714 -2.24394
1.50239 0.281037 -0.717817
1.52569 0.285156 0.815453
1.44167 0.361589 2.34314
1.42638 0.40828 3.54883
1.43454 0.437448 4.7459
1.45985 0.727912 -3.36277
1.46677 0.791729 -2.16825
1.55026 0.901705 -0.695717
1.53497 0.922784 0.771304
1.41862 0.889874 2.24535
1.40906 0.935234 3.45398
1.42324 0.982202 4.66355
1.5133 1.59874 -3.31333
1.52633 1.67367 -2.13056
1.53117 1.78209 -0.683766
1.49499 1.8323 0.746052
1.44325 1.82393 2.19367
1.42592 1.82841 3.37814
1.42496 1.85445 4.57913
-0.748766 0.51 -2.25745
0 0.281561 -2.25538
-0.708616 0.268051 -1.48227
-0.681107 0.645 2.30553
0 0.368276 2.41278
-0.77109 0.312243 1.59639
-1.49012e-06 0.799664 -2.20966
-0.796899 0.850217 -1.415
-0.001111 0.940119 2.30123
-0.759984 0.94487 1.505
0.748814 0.51 -2.2575
0.708157 0.26851 -1.48227
0.679479 0.645 2.30612
0.771093 0.312241 1.59639
0.796739 0.85043 -1.41463
0.758824 0.945562 1.50685
-0.766205 0.263795 0.05706
-0.879471 0.579489 -0.698803
-3.20316e-05 0.26111 -0.712607
-0.88656 0.610727 0.800863
-3.00507e-05 0.261789 0.826727
-0.806836 0.925938 0.045
-0.000139398 1.12864 -0.68463
-0.000497213 1.38717 0.77574
0.766386 0.263614 0.05706
0.879487 0.579753 -0.698433
0.886235 0.611001 0.801604
0.806422 0.926636 0.04611
-0.849409 0.544744 -1.44864
0.849465 0.544876 -1.44845
-1.60158e-05 0.268065 -1.48227
-7.04441e-05 0.933241 -1.41482
-7.45058e-07 0.51 -2.43845
-0.891806 0.595108 0.05103
0.891752 0.595377 0.051585
-3.10412e-05 0.254177 0.05706
-0.000318305 1.39353 0.045555
-0.867363 0.627863 1.5507
0.867292 0.628 1.55162
-1.50254e-05 0.286411 1.59639
-0.000804107 1.07093 1.50593
-0.0005555 0.645 2.35718
-0.721558 0.3975 -2.26937
-0.3325 0.281805 -2.25513
-0.691093 0.27224 -1.86711
-0.718359 0.53 2.3661
-0.3475 0.369049 2.41201
-0.752012 0.344655 1.98123
-0.727515 0.6225 -2.19707
-0.357288 0.781537 -2.19154
-0.769049 0.805921 -1.78
-0.662563 0.76 2.26366
-0.329166 0.926532 2.28709
-0.727371 0.928703 1.87
0.3325 0.281791 -2.25515
0.721557 0.3975 -2.26937
0.691107 0.272227 -1.86711
0.3475 0.369078 2.41198
0.71777 0.53 2.36662
0.75201 0.344657 1.98123
0.357285 0.781438 -2.19144
0.727401 0.6225 -2.19696
0.768959 0.806019 -1.77982
0.326944 0.926042 2.28771
0.66038 0.76 2.26481
0.72606 0.92943 1.87204
-0.721589 0.268411 -1.09744
-0.75955 0.257117 -0.327773
-0.855855 0.397561 -0.705705
-0.370711 0.262413 -0.712607
-0.782086 0.287914 1.21156
-0.770819 0.272514 0.441893
-0.864727 0.428077 0.813795
-0.392856 0.263338 0.826727
-0.810181 0.879945 -1.05
-0.875395 0.753828 -0.691902
-0.810264 0.91292 -0.32
-0.444355 1.0897 -0.684815
-0.785965 0.954405 1.14
-0.875967 0.795799 0.787932
-0.801036 0.936584 0.41
-0.489339 1.35157 0.77537
0.721592 0.268408 -1.09744
0.370663 0.262413 -0.712607
0.759419 0.257247 -0.327773
0.855766 0.397758 -0.70552
0.781546 0.288454 1.21156
0.39281 0.26334 0.826727
0.770853 0.272481 0.441893
0.864204 0.428409 0.814165
0.809962 0.880284 -1.04945
0.44411 1.09 -0.684445
0.875301 0.75421 -0.691347
0.809836 0.913419 -0.319075
0.785146 0.955253 1.14167
0.488295 1.35172 0.77611
0.875116 0.796084 0.789042
0.800136 0.936981 0.411295
-0.833652 0.527372 -1.85304
-0.374383 0.51 -2.41589
-8.0079e-06 0.270731 -1.86883
-3.72529e-07 0.39578 -2.43099
-0.837716 0.406398 -1.46546
-0.354316 0.267106 -1.48227
-0.824849 0.636432 1.92811
-0.340831 0.645 2.35906
-7.51268e-06 0.304827 2.00459
-0.00027775 0.506638 2.44659
-0.844759 0.470053 1.57355
-0.385553 0.285083 1.59639
-3.59671e-05 0.891998 -1.81224
-1.11759e-06 0.654832 -2.32992
-0.85298 0.697481 -1.43182
-0.398485 0.921137 -1.41491
-0.000957554 0.996193 1.90358
-0.000833251 0.79256 2.28847
-0.843868 0.786366 1.52785
-0.380394 1.03668 1.50546
0.83377 0.527438 -1.85298
0.374407 0.51 -2.41587
0.837696 0.406693 -1.46536
0.354071 0.267106 -1.48227
0.824683 0.6365 1.92887
0.339462 0.645 2.35908
0.853472 0.470121 1.57401
0.385539 0.285084 1.59639
0.852961 0.697653 -1.43154
0.398334 0.921163 -1.41472
0.843523 0.786781 1.52924
0.37901 1.03607 1.50639
-0.867476 0.410216 0.054045
-0.384145 0.256933 0.05706
-0.865141 0.562116 -1.07372
-0.89267 0.587298 -0.323887
-2.40237e-05 0.261499 -1.09744
-3.15364e-05 0.253881 -0.327773
-0.890991 0.602917 0.425947
-0.883522 0.619295 1.17578
-3.05459e-05 0.253951 0.441893
-2.2538e-05 0.273048 1.21156
-0.885885 0.778805 0.048015
-0.501617 1.35582 0.0452775
-0.000104921 0.957096 -1.04972
-0.000228852 1.34064 -0.319538
-0.000407759 1.40423 0.410648
-0.00065066 1.32535 1.14083
0.867393 0.410333 0.0543225
0.384159 0.256933 0.05706
0.865329 0.562314 -1.07344
0.89511 0.587565 -0.323424
0.89019 0.603189 0.426594
0.883524 0.619501 1.17661
0.885092 0.779009 0.0488475
0.501115 1.35621 0.0458325
-0.818986 0.401949 -1.86007
-0.850212 0.413114 -1.08558
-0.868106 0.718313 -1.06186
-0.824195 0.65999 -1.81652
0.818975 0.402096 -1.86004
0.824134 0.660077 -1.8164
0.8681 0.718582 -1.06144
0.850369 0.413344 -1.08544
-0.343408 0.270435 -1.86797
0.343285 0.270436 -1.86797
0.362801 0.261446 -1.09744
-0.362956 0.261446 -1.09744
-0.377886 0.877174 -1.79612
-0.402426 0.950893 -1.04986
0.402211 0.950946 -1.04958
0.377809 0.877197 -1.79603
-0.353442 0.39664 -2.41
-0.365836 0.638666 -2.29619
0.365846 0.638666 -2.29619
0.353453 0.39664 -2.41003
-0.864701 0.402371 -0.32583
-0.867116 0.418639 0.43392
-0.882126 0.787902 0.417973
-0.89026 0.771126 -0.321943
0.864607 0.402532 -0.325599
0.884735 0.768879 -0.32125
0.881291 0.78814 0.418945
0.866366 0.419088 0.434244
-0.378835 0.256859 -0.327773
0.378818 0.256859 -0.327773
0.389936 0.257233 0.441893
-0.389952 0.257233 0.441893
-0.510145 1.29708 -0.319769
-0.500399 1.36354 0.410324
0.499488 1.36353 0.410971
0.509902 1.29768 -0.319306
-0.870438 0.456978 1.19367
-0.815559 0.500027 1.95467
-0.797469 0.773183 1.89906
-0.874024 0.781958 1.15789
0.87044 0.457096 1.19409
0.8739 0.782356 1.15914
0.79721 0.773391 1.90045
0.815523 0.50006 1.95505
-0.38768 0.272122 1.21156
0.387643 0.272149 1.21156
0.366519 0.302254 1.99291
-0.366526 0.302253 1.99291
-0.388416 1.30042 1.14042
-0.35478 0.988521 1.88679
0.352977 0.988551 1.88781
0.387227 1.30023 1.14125
-0.344166 0.518319 2.43718
0.343481 0.518319 2.4372
0.333203 0.77628 2.32925
-0.334999 0.77628 2.33171
-0.697523 0.34125 -2.2649
-0.49875 0.282733 -2.25421
-0.680762 0.275905 -2.05952
-0.708156 0.4725 2.36756
-0.52125 0.380807 2.40025
-0.734928 0.368406 2.17364
-0.723937 0.67875 -2.17393
-0.535931 0.76003 -2.17003
-0.749208 0.777857 -1.9625
-0.66337 0.8175 2.25281
-0.493194 0.911 2.27128
-0.704088 0.913643 2.0525
0.49875 0.282725 -2.25421
0.697518 0.34125 -2.26489
0.680913 0.275754 -2.05952
0.52125 0.381714 2.39935
0.707934 0.4725 2.36789
0.734928 0.368405 2.17364
0.535928 0.760024 -2.17002
0.723934 0.67875 -2.17393
0.749125 0.777869 -1.96241
0.490972 0.910354 2.2723
0.660865 0.8175 2.25419
0.702823 0.914507 2.05463
-0.735128 0.261539 -0.905023
-0.755648 0.254352 -0.52019
-0.813419 0.321912 -0.709156
-0.555986 0.263191 -0.712607
-0.787817 0.275516 1.01914
-0.772853 0.277147 0.63431
-0.835568 0.345873 0.820261
-0.588769 0.265114 0.826727
-0.811998 0.889985 -0.8675
-0.857907 0.833272 -0.688451
-0.812734 0.907167 -0.5025
-0.650965 1.03923 -0.684908
-0.788949 0.949166 0.9575
-0.854641 0.88032 0.781466
-0.79718 0.940951 0.5925
-0.66035 1.18696 0.775185
0.735131 0.261536 -0.905023
0.555946 0.263191 -0.712607
0.755335 0.254665 -0.52019
0.813354 0.322036 -0.709063
0.787811 0.275523 1.01914
0.588726 0.265124 0.826727
0.772905 0.277095 0.63431
0.83484 0.346288 0.820446
0.811762 0.890399 -0.866853
0.650702 1.03961 -0.684353
0.857802 0.833736 -0.687803
[...]
POINT_DATA 3682
SCALARS point_scalars float 1
LOOKUP_TABLE default
-89.2097
-42.0962
-58.8242
-36.1737
-88.3268
-42.0558
-58.8995
-36.0294
-33.4334
-37.5619
-55.551
-45.0005
-33.469
-37.5385
-56.1155
-44.9856
72.4258
-70.2166
-34.0992
-38.5844
-42.2836
-41.1896
-37.379
98.0205
-70.5715
-35.0736
-37.3876
-41.7979
-40.1197
-36.6832
66.1593
-72.7923
-42.3387
-41.529
-39.7162
-38.5097
-36.4114
-13.0863
-54.7712
-86.2913
-49.9706
-36.5212
-35.6921
-36.2458
107.761
-128.304
-33.5956
-36.7529
-45.6858
-37.6706
-37.1982
152.359
-36.0631
-35.885
176.025
-35.7532
-35.885
24.6877
-47.377
-82.579
-55.4873
-34.0931
-33.8233
-33.3864
91.4684
-122.819
-33.9282
-36.7525
-45.0112
-37.6451
-36.7084
152.705
-35.9873
-35.6525
170.87
-35.699
-35.6525
24.308
-45.9567
-82.6242
-55.4796
-33.3437
-33.4627
-33.3107
72.3629
-70.2428
-34.0698
-39.3479
-42.2118
-41.1672
-37.3421
79.6208
-70.5291
-35.0752
-37.2528
-41.7305
-40.0547
-36.6536
54.9925
-72.847
-43.0595
-41.5546
-39.6646
-38.4395
-36.3805
-13.3711
-54.1099
-86.3244
-50.7417
-36.6335
-35.2346
-36.2102
-36.3089
-125.805
-40.883
-35.5908
-36.4384
-40.6356
-70.0488
-28.5463
-29.6902
-39.8744
-36.1293
-40.7876
-35.5145
-40.707
-28.5673
-39.8407
-35.2169
-37.3386
-34.2394
-38.8879
-37.1324
-52.9107
34.795
-57.4748
-35.2197
-37.4083
-38.7864
-53.0483
-39.49
-39.5312
-44.3843
-11.1521
197.085
-40.8538
-41.0125
-34.9692
-87.3597
-41.2118
-41.275
-38.9073
-34.7185
-27.3231
-48.6048
-125.969
-54.8865
-39.9984
-38.7329
-41.0918
-27.4771
-68.3679
-37.8703
-36.6863
-32.3205
-36.6423
-125.439
-48.5438
-54.8779
-38.696
-39.9147
-41.066
-68.2931
-27.3999
-37.8788
-32.2489
-36.5808
-36.5973
-34.2748
-34.7204
-34.8447
-33.9908
-38.8749
-34.9758
-37.3771
-36.8761
-26.3075
-41.6595
-59.2163
22.3523
-45.7573
-41.3099
-48.3651
-55.0267
-34.2346
-34.002
-34.634
-34.8624
-38.9382
-36.8707
-34.9047
-37.2491
-26.4482
22.3933
-42.2741
-58.4147
-45.6031
-55.0059
-41.3696
-48.3222
-63.954
194.279
-63.0846
133.62
-39.1201
-43.0795
-40.6539
-32.9113
-39.0289
-31.2707
-41.2566
-39.1743
-36.1733
161.92
-40.6881
-14.599
-33.2971
-26.5105
-41.3756
-36.0848
-64.0128
194.257
-39.1445
-43.0667
-40.6286
-32.7909
-41.6971
-39.1846
-40.7291
-14.6034
-41.415
-36.0747
-37.7801
-34.8185
-35.2985
-41.8623
-38.308
-34.6833
-39.082
-41.8081
-36.4803
-38.3957
-46.6419
-77.9996
12.7747
-78.1533
-70.5112
-43.7377
-37.8478
-34.8049
-35.4554
-42.6709
-38.9982
-41.8613
-46.7836
-77.9807
-58.4141
-35.6829
-34.5751
-56.5712
-58.3637
-56.6289
-34.7414
-35.5724
-61.4651
-61.4471
-37.552
-37.5591
-35.9888
5.24826
5.23168
-36.0077
131.713
137.388
137.509
131.836
-37.6583
-36.6289
-42.6062
-48.1891
-37.6026
-47.6927
-42.5849
-36.51
-34.5433
-34.5278
-36.1365
-36.1481
-90.788
-62.7216
-62.691
-91.0909
-41.1385
-40.6194
-39.6835
-42.7998
-41.1305
-42.8751
-39.6556
-40.5721
-38.3376
-38.3258
-39.6253
-39.6469
-45.8613
-33.7053
-33.6854
-45.8176
-35.2566
-35.2126
-32.517
-32.6659
-49.6146
-139.66
-76.611
-40.7976
-39.6061
-42.6727
-32.93
-55.7005
-53.9144
-36.7693
-33.3988
-36.0573
-138.67
-49.5045
-77.0539
-39.5993
-40.7523
-42.6214
-55.6861
-32.8672
-53.9185
-33.3542
-36.6093
-35.973
-34.8496
-33.6918
-33.7807
-33.6299
-37.331
-33.0015
-38.2217
-36.9189
-33.2277
-46.5945
-59.2918
-10.345
-44.1801
-43.2716
-46.4693
-48.7371
-34.7602
-33.6893
-33.6383
-33.7472
-37.3379
-36.9151
-32.9301
-38.0298
-33.4708
-10.4051
-47.3176
-59.2222
-44.2084
-48.7176
-43.3664
-46.495
-39.7958
-28.1751
-70.9691
150.899
-126.198
-125.843
-85.5026
-3.92016
-46.9201
-37.4287
-39.4314
-41.7785
-38.3496
-36.2906
-40.0633
-34.3503
-37.143
-37.1151
-39.3981
-33.2546
-40.6795
-39.7289
-40.9532
-39.7944
-76.2144
-76.407
-47.9105
64.1045
-33.4145
-27.5002
-37.6433
-19.4551
-31.3219
-31.2146
-33.103
-25.4206
-37.714
-44.3174
-40.818
-37.417
-39.6608
-28.1094
-71.0261
150.911
-46.9249
-37.4013
-39.4296
-41.751
-38.2649
-36.2014
-40.016
-34.2999
-40.6849
-39.7645
-41.1087
-39.8129
-33.4038
-27.5267
-37.6929
-19.4722
-37.663
-44.323
-40.8043
-37.3907
-35.3405
-35.3449
-36.6801
-34.7294
-36.034
-39.0613
-35.8477
-39.1218
-34.1733
-34.1759
-36.0116
-34.0428
-37.8846
-39.8958
-38.8219
-39.0355
-37.0696
-37.067
-36.8576
-38.1737
-55.8628
-50.8295
-50.6188
-63.4555
31.7453
31.8502
24.1851
-1.24726
-57.2755
-57.2585
-64.1654
-51.5109
-35.2761
-35.2738
-36.6784
-34.7112
-36.0281
-39.3665
-35.9694
-39.1995
-37.8225
-39.8395
-38.7182
-39.0414
-55.8301
-50.8722
-51.1064
-63.4164
-33.7877
-39.2487
-40.2522
-35.9417
-33.7822
-39.264
-40.3063
-36.0156
-51.5078
-43.9984
-43.9938
-41.2635
-23.226
-11.8607
-11.8646
1.25841
193.898
194.58
172.763
193.88
-39.1859
-42.3453
-39.5747
-43.1842
-39.2991
-41.2717
-39.5332
-43.3928
-34.9469
-34.7193
-35.5463
-34.9408
-85.4788
-97.946
-77.8987
-85.4482
-40.8969
-41.4381
-42.1756
-44.0044
-40.8669
-41.7567
-42.1753
-43.8726
-38.8513
-38.9755
-38.9783
-38.3111
-34.6538
-35.1309
-35.1234
-37.5809
-29.3091
-28.0204
-27.0514
-29.1773
-67.909
110.69
-84.0188
16.4266
-53.0338
-59.1742
-41.5174
-35.9122
-40.5476
-35.4805
-40.9283
-40.1923
-71.0412
103.86
-47.3567
60.9015
-47.899
-37.0645
-39.8966
-34.5608
-32.4428
-32.1283
-38.8157
-34.2507
-84.4165
16.8137
-68.0205
110.613
-53.0003
-59.1461
-40.5309
-35.438
-41.4637
-35.8835
-40.8871
-40.1747
-47.3608
61.1798
-71.0948
102.916
-47.8941
-37.1001
-32.422
-31.955
-39.8461
-34.481
-38.7788
-34.2225
-35.5091
-36.3603
-36.2438
-34.5828
-35.0742
-36.085
-35.5855
-33.7855
-40.0069
-38.208
-35.5797
-35.7244
-36.1233
-38.0958
-36.6466
-37.8698
-34.4984
-4.18963
-36.9488
-44.8686
-53.7126
-83.2694
14.6007
-7.65054
-43.9437
-48.6636
-41.9728
-41.5361
-45.4157
-53.9446
-58.4204
-52.2565
-35.382
-36.3381
-35.5958
-33.7785
-36.1746
-34.5479
-35.2943
-36.112
-39.9737
-38.1737
-36.639
-37.8667
-35.519
-35.7012
-35.8841
-38.1093
-34.733
-4.22232
14.5594
-7.42543
-37.1545
-45.4829
-51.8432
-83.1631
-43.9783
-48.5785
-58.3807
-52.2472
-41.9682
-41.4173
-45.4136
-53.9007
-62.6963
-62.5697
190.447
140.218
-62.6217
-62.6118
139.707
139.747
-38.4388
-36.4713
-50.0792
-40.5991
-40.455
-40.4197
-34.154
-33.0468
-39.1943
-39.2406
-33.0814
-32.9891
-42.0109
-41.1631
-38.3414
-39.0957
-36.0144
-36.0251
159.522
157.787
-34.3578
-37.9786
-25.4052
-4.7556
-33.4091
-33.3985
-27.7836
-27.9264
-40.1608
-43.6831
-38.6615
-35.327
-62.7144
-62.6231
140.365
190.495
-38.4305
-36.485
-50.4618
-40.5849
-40.3854
-40.4183
-34.0671
-32.9198
-41.9026
-41.0714
-38.3362
-39.0933
-38.0205
-34.5393
-4.76618
-25.4075
-43.7101
-40.1584
-35.3157
-38.6523
-38.1345
-36.935
-34.5978
-35.299
-35.4557
-34.8906
-39.5099
-44.6131
-38.116
-38.1184
-34.6549
-34.6468
-37.7572
-40.5873
-41.7534
-42.102
-36.4106
-36.4156
-38.3915
-38.3883
-43.1462
-47.135
-93.1784
-69.2446
11.0665
11.0763
-78.9428
-79.0014
-68.8588
-68.8319
-44.1632
-44.1398
-37.9286
-36.8429
-34.5824
-35.2858
-35.0478
-35.5558
-39.94
-44.6454
-40.543
-37.6515
-41.7969
-42.1356
-45.7327
-43.3795
-69.1888
-92.9341
-65.741
-45.3908
-34.8229
-70.9394
-36.4516
-35.7298
-36.2792
-36.886
-39.6045
-33.7001
-35.167
-36.3102
-65.7151
-71.3957
-34.2396
-38.5054
-65.8715
-71.0186
-34.827
-45.3746
-65.7635
-38.4352
-34.3683
-71.4697
-39.8523
-36.4733
-35.2787
-33.7977
-36.8479
-36.9031
-36.3348
-35.8605
-82.3047
-84.9225
-51.1157
-48.568
-82.784
-48.5507
-51.1078
-85.1525
-35.1598
-35.9085
-41.2064
-39.2345
-35.1302
-39.2578
-41.213
-35.9064
-50.0994
-28.1066
-23.8137
-47.5997
4.27425
21.592
-0.491983
-11.7855
4.16491
-11.807
-0.488875
21.5911
-50.0877
-47.6054
-23.8194
-28.1077
11.7284
153.879
194.067
0.44476
52.1113
78.9981
167.133
102.303
52.0109
102.094
167.094
78.8712
13.5492
0.576987
194.081
153.945
-34.9993
-36.8761
-40.184
-37.3106
-33.36
-37.6117
-38.2382
-35.9584
-44.3762
-46.4481
-41.1646
-40.2451
-50.2716
-41.5256
-44.5347
-51.38
-34.9598
-37.4047
-39.5524
-36.7668
-50.8483
-50.3689
-43.3812
-41.8075
-44.3933
-40.1847
-41.2252
-46.6161
-33.0754
-35.9198
-38.1462
-37.4006
-33.7344
-33.9603
-34.6908
-34.6012
-33.7068
-34.5748
-34.6841
-33.9579
-36.2355
-36.8323
-35.4849
-35.0205
-36.2466
-35.0436
-35.4925
-36.8361
-85.7577
-70.4623
-98.201
0.159544
-51.1675
-62.8231
-76.2568
-59.6597
-51.1225
-59.6016
-76.2398
-62.8036
-85.7044
0.123145
-98.1855
-70.3611
-37.1883
-42.5645
-42.4618
-38.6269
-41.8124
-40.6859
-41.3302
-40.6824
-38.825
-39.3314
-40.7253
-40.2072
-43.4636
-39.3827
-44.2693
-43.0884
-37.181
-38.6179
-42.2013
-42.5139
-43.3221
-43.1293
-44.2946
-39.3551
-38.7577
-40.1581
-40.7163
-39.3137
-41.7488
-40.6632
-41.2663
-40.6297
-37.3682
-38.112
-38.3319
-38.5816
-37.3726
-38.573
-38.3319
-38.1097
-41.2289
-39.7372
-38.9351
-39.6274
-41.2452
-39.6339
-38.9248
-39.7419
-48.4257
-40.8395
-37.8708
-51.5378
-32.9502
-32.7963
-34.8988
-35.8167
-32.9015
-35.8034
-34.8972
-32.7974
-48.5442
-51.4973
-37.8671
-40.7782
-36.4502
-33.9429
-30.5222
-35.3108
-36.423
-35.273
-30.3929
-33.9015
-34.1584
-27.5196
-28.6398
-34.5322
-34.2351
-34.598
-28.7604
-27.7069
-70.4571
-130.597
-101.646
-41.1659
-40.5805
-43.455
-38.6174
-48.7455
-64.3037
-36.7188
-34.2824
-36.2693
-129.548
-69.888
-101.788
-40.5295
-41.1319
-43.4048
-50.1978
-38.7811
-64.3513
-34.2063
-36.5781
-36.2763
-32.5906
-32.1389
-33.2418
-33.227
-35.0818
-36.169
-38.4116
-36.9153
-50.4828
-50.3744
-57.2231
-55.9616
-44.4058
-44.5936
-45.7282
-46.4837
-32.9686
-33.3807
-32.1533
-33.1932
-35.0229
-36.9038
-36.3959
-38.2948
-50.8447
-56.1711
-51.0132
-57.8714
-44.3858
-46.4543
-44.607
-45.7102
-33.769
-31.3717
-72.89
92.7216
-125.855
-125.801
-102.148
-66.6123
-43.2357
-39.2141
-40.2387
-41.1781
-36.9932
-35.9162
-39.3067
-34.5922
-36.623
-36.6052
-39.6442
-34.6906
-39.7189
-44.3216
-41.1642
-40.1252
-71.9459
-71.5236
-53.5387
-8.38711
-28.8311
-28.1921
-34.6139
-22.7546
-31.0669
-30.6775
-33.6462
-26.2213
-38.4552
-41.4292
-40.4264
-38.3572
-33.7333
-31.2167
-73.0193
92.3389
-43.2955
-39.0934
-40.215
-41.1174
-36.898
-35.8295
-39.2359
-34.536
-39.7601
-44.357
-41.2598
-40.1497
-28.4653
-28.2021
-34.6885
-22.7708
-38.4425
-41.381
-40.4098
-38.3253
-35.1648
-35.2816
-35.9447
-34.7451
-36.6244
-38.1151
-36.8057
-38.0795
-34.2281
-34.2293
-35.0649
-33.4153
-38.3912
-39.3377
-38.8002
-38.3287
-37.1162
-37.1149
-36.6274
-37.972
-54.4331
-51.4756
-51.9271
-56.9829
33.8236
33.8614
33.9302
23.9609
-57.3146
-57.3048
-60.6934
-54.6179
-35.1193
-35.2864
-35.9376
-34.735
-36.6292
-38.2839
-36.9087
-37.7121
-38.3259
-39.2415
-38.6595
-38.2707
-54.5538
-51.5796
-52.2307
-56.9706
-41.5423
-39.4086
-39.8479
-37.1618
-41.4967
-39.4344
-39.9006
-37.2008
-47.6173
-44.3092
-44.3078
-42.6139
-16.911
-11.1655
-11.1672
-5.27528
195.517
209.439
172.045
195.516
-39.9872
-41.0918
-40.2077
-41.7923
-40.1206
-41.0771
-40.2798
-41.9781
-34.9689
-34.8356
-35.2042
-34.9658
-86.997
-92.7908
-81.4038
-86.98
-41.3546
-40.8863
-41.5596
-40.9273
-41.4832
-41.0311
-41.6342
-41.0722
-39.0136
-38.8944
-38.8959
-38.5499
-34.5228
-34.8178
-34.7978
-35.8626
-27.8344
-27.6997
-27.2001
-27.762
-49.2514
-46.2076
-74.1825
67.3014
-127.612
-125.357
-101.155
-70.5866
-63.1832
-50.4802
-51.9839
-57.4078
-40.41
-39.3477
-41.541
-36.6837
-39.31
-37.9037
-42.0433
-36.5696
-41.8095
-40.722
-40.9374
-40.5256
-29.8198
-25.3695
-79.1598
65.7621
-67.7975
-79.1459
-56.3405
-2.67731
-46.6825
-35.7237
-42.9512
-37.35
-36.6734
-36.6723
-39.7913
-35.151
-32.8566
-32.02
-32.4214
-32.0809
-36.6606
-36.9686
-38.1937
-34.9381
-127.015
-124.855
-101.672
-69.9691
-49.2414
-46.1282
-74.2916
67.2931
-63.1987
-50.4666
-51.9947
-57.3703
-39.2777
-37.8687
-42.0191
-36.5276
-40.3414
-39.2564
-41.4836
-36.6449
-41.7686
-40.7033
-40.9026
-40.5118
-67.4069
-79.2695
-56.2967
-2.86265
-29.4815
-25.3889
-79.3573
65.5814
-46.7175
-35.6907
-42.9433
-37.3938
-32.793
-31.9563
-32.4041
-31.9506
-36.5711
-36.5786
-39.6973
-35.0756
-36.6184
-36.9413
-38.163
-34.9053
-34.1909
-36.015
-34.9906
-35.2824
-34.8373
-35.3165
-35.3618
-34.7023
-34.147
-35.4017
-34.4242
-35.3055
-33.9058
-34.0595
-34.8448
-33.1441
-39.2052
-36.7396
-39.6789
-37.9978
-34.9921
-35.2133
-35.198
-35.1361
-37.3068
-37.3569
-37.4003
-37.2381
-37.1717
-36.972
-36.506
-37.5258
-28.0424
-26.3048
-32.6227
-12.8002
-43.4291
-40.2197
-39.4936
-42.5558
-60.0702
-57.8147
-56.847
-67.5773
12.7544
28.4836
20.926
12.5371
-44.8077
-44.8883
-44.7391
-47.8751
-42.0759
-40.638
-41.6956
-40.9821
-47.2818
-49.7318
-47.5089
-50.6015
-52.2621
-56.7867
-56.9794
-54.488
-34.0811
-36.0005
-34.9318
-35.255
-33.9271
-34.0653
-34.8595
-33.1469
-34.737
-35.2228
-35.2769
-34.6496
-34.2181
-35.4042
-34.4594
-35.2876
-39.3422
-36.3842
-39.6127
-37.8937
-37.1655
-36.9681
-36.5
-37.5217
-34.9082
-35.1428
-35.1005
-35.0996
-37.0412
-37.2766
-37.3856
-37.2152
-28.0803
-26.3298
-32.852
-12.8485
12.7512
28.4881
21.045
12.5601
-44.1195
-40.6923
-39.8172
-44.0014
-59.402
-57.1502
-55.3456
-67.2468
-44.8126
-44.9355
-44.8005
-47.8483
-52.2469
-56.7712
-56.9562
-54.5055
-42.1879
-40.6081
-41.6867
-40.9107
-47.2605
-49.6969
-47.4908
-50.5759
-64.417
-46.5947
-63.2818
-64.2082
170.411
191.902
196.33
161.097
-71.7661
-56.4869
-62.9455
-62.9421
72.0522
166.165
137.261
137.249
-39.1028
-39.2972
-41.3421
-37.3275
-42.439
-43.5818
-46.291
-41.7786
-40.4229
-40.6111
-40.6721
-40.6352
-33.8878
-31.3266
-33.182
-33.0382
-39.0389
-38.9754
-39.0646
-39.0835
-32.2859
-29.9987
-31.7662
-31.7175
-41.0763
-41.524
-43.0426
-40.7938
-39.3313
-39.0479
-38.7813
-39.3601
-41.0773
-29.9231
-36.0755
-36.0855
125.158
173.905
157.115
157.071
-40.2227
-40.7691
-36.4052
-33.4848
-16.9912
-12.9765
-20.271
-9.88102
-32.8958
-33.9759
-33.3439
-33.3372
-26.1457
-26.8386
-26.5544
-26.6022
-41.1943
-41.6646
-40.636
-42.759
-36.819
-35.5346
-36.9911
-35.762
-64.3978
-46.6241
-63.3253
-64.2581
170.405
191.897
161.04
196.337
-39.1208
-39.3116
-41.334
-37.372
-42.4209
-43.5731
-46.2766
-41.7637
-40.37
-40.5375
-40.5988
-40.6434
-33.8087
-31.1747
-33.0626
-32.902
-41.5375
-41.9003
-42.4075
-41.333
-39.351
-39.0516
-38.7883
-39.3609
-40.2781
-40.805
-33.4173
-36.2111
-16.9951
-12.9806
-9.8896
-20.2712
-41.1734
-41.7429
-42.7869
-40.6363
-36.7931
-35.5345
-35.7524
-36.9781
-37.1878
-38.5964
-37.9089
-37.2213
-34.7604
-34.8875
-34.6854
-35.0227
-35.3779
-35.2409
-35.5339
-34.8757
-40.6243
-43.0983
-40.65
-43.0906
-37.0643
-39.6967
-38.2647
-38.2659
-34.7307
-34.6783
-34.6838
-34.681
-39.0385
-39.2328
-38.4284
-39.7903
-40.7333
-42.411
-41.8309
-41.7364
-37.2509
-35.96
-36.4625
-36.4648
-38.0977
-38.2979
-38.4052
-38.4044
-49.0465
-44.8589
-44.4156
-45.6225
-70.3476
-83.0879
-84.8158
-72.0079
17.9858
7.13323
12.2153
12.2148
-45.5984
-98.375
-78.8212
-78.8195
-67.4203
-74.3813
-70.0263
-70.0134
-47.4575
-39.9258
-43.8154
-43.8024
-37.2303
-38.69
-37.8398
-37.2537
-34.7435
-34.8776
-34.6709
-35.0095
-35.5067
-35.4032
-35.0437
-35.6436
-40.8661
-42.2354
-41.399
-43.4403
-38.9366
-39.1685
-39.7261
-38.3295
-40.768
-42.4013
-41.8809
-41.7823
-49.3281
-45.0538
-46.0323
-44.6893
-70.3229
-83.0531
-72.0337
-84.6405
-60.7141
-56.1966
-60.9306
-45.7147
-35.9917
-36.2317
-36.0006
-35.2718
-34.4255
-35.1384
-34.4061
-34.9196
-61.0473
-50.9109
-58.9943
-47.9727
-60.696
-56.1406
-60.9224
-45.7434
-61.0884
-50.9059
-59.0523
-48.0022
-34.6352
-35.3262
-34.5994
-35.0509
-35.7733
-36.3597
-35.9435
-35.3078
-70.3833
-60.5855
-62.1278
-54.9379
-70.3667
-60.5615
-62.1143
-54.9218
-37.1276
-36.491
-38.9414
-37.8678
-37.1405
-36.4908
-38.9525
-37.872
-41.5329
-36.4556
-36.0749
-31.0108
0.982434
10.1557
0.37919
8.69964
0.95927
10.1155
0.364863
8.69919
-41.5453
-36.4814
-36.0859
-31.0118
125.128
86.9821
170.549
140.329
116.407
113.69
142.069
150.349
113.867
116.194
150.26
142.178
87.2009
125.222
140.396
170.61
-36.7897
-36.9794
-38.1897
-38.6642
-35.93
-36.4259
-36.7852
-37.3301
-42.2674
-43.7304
-41.4854
-42.9611
-47.2908
-50.6092
-46.3121
-49.2265
-36.718
-37.0071
-37.9719
-38.6849
-46.8319
-49.5116
-46.0609
-47.1033
-42.2781
-43.7065
-41.4555
-42.9637
-35.8243
-36.2965
-36.6883
-37.2197
-34.5273
-34.5414
-34.5571
-34.5983
-34.5285
-34.5038
-34.5883
-34.5411
-36.8985
-35.9579
-36.2922
-35.6725
-35.9744
-36.9083
-35.6851
-36.3002
-107.28
-36.7524
-95.3842
-77.5329
-57.9649
-60.5407
-65.9131
-66.3608
-60.5378
-57.8815
-66.3132
-65.9145
-34.0024
-107.326
-77.9705
-95.4572
-40.896
-39.771
-41.2346
-41.4268
-40.858
-40.9129
-40.4785
-40.9764
-39.7593
-39.1965
-40.0328
-39.9586
-43.4326
-42.1953
-43.6557
-42.475
-40.8785
-39.7867
-41.1846
-41.4436
-43.478
-42.2501
-43.6979
-42.5333
-39.7097
-39.1582
-40.0007
-39.9316
-40.8026
-40.8697
-40.4355
-40.9219
-38.2071
-37.8585
-38.2615
-38.3628
-38.1896
-37.8545
-38.2499
-38.3555
-39.8508
-39.8773
-39.4
-39.2351
-39.8723
-39.897
-39.4431
-39.2461
-46.6241
-49.2248
-41.4216
-44.4871
-32.8934
-33.9347
-33.5297
-34.54
-32.8683
-33.9122
-33.5161
-34.5254
-46.5132
-49.1655
-41.3707
-44.4045
-35.6259
-35.3291
-34.8293
-34.3777
-35.2878
-35.594
-34.3078
-34.763
-32.1957
-33.7993
-30.6358
-32.7147
-33.921
-32.3703
-32.8591
-30.7784
-82.6729
10.583
-102.455
-73.0784
-70.1078
-80.0999
-42.4654
-37.3643
-43.7024
-37.9716
-42.385
-41.7834
-81.6776
39.0644
-59.9806
-5.66722
-60.3316
-50.127
-39.1147
-35.1589
-32.6642
-33.8848
-37.7072
-34.066
-103.048
-74.6828
-82.9834
10.749
-70.2847
-80.6294
-43.7265
-37.9222
-42.407
-37.3239
-42.3293
-41.7407
-59.9482
-5.4512
-81.7422
38.8073
-60.3718
-50.0693
-32.6059
-33.8154
-39.0611
-35.058
-37.5803
-33.9843
-36.386
-34.9442
-34.2483
-33.887
-31.6285
-34.1294
-34.2506
-32.9188
-36.934
-37.5366
-32.2255
-35.8152
-35.9719
-36.679
-36.3834
-37.0799
-40.2854
-8.88536
-42.8634
-47.2538
-54.8168
-77.5708
5.37345
-41.5836
-44.0746
-44.8058
-43.7462
-43.1192
-45.9325
-48.4995
-49.8527
-47.1316
-36.1831
-34.9281
-34.3605
-32.9042
-34.1894
-33.8289
-31.7834
-34.1023
-36.9177
-37.5629
-36.3794
-37.0773
-31.9809
-35.803
-36.2557
-36.5533
-40.0552
-8.78785
5.41588
-41.5502
-43.2455
-48.8784
-54.9533
-77.6171
-44.0295
-44.8982
-49.7966
-47.1189
-43.7623
-43.0142
-45.9267
-48.4596
-68.1385
92.1878
-79.1368
56.0691
-70.8743
-71.4753
161.3
128.887
-101.681
-71.0255
-101.983
-70.7429
-85.3444
-85.4205
-3.33138
-3.29649
-47.2098
-47.695
-37.5902
-38.3554
-41.0827
-37.4681
-44.9218
-40.4067
-40.3809
-35.8114
-39.3045
-34.9393
-40.4619
-40.0209
-34.7186
-34.4367
-40.5247
-35.1685
-40.5094
-35.1299
-39.5159
-39.5198
-33.3664
-33.3389
-40.6185
-40.1817
-42.8687
-39.3354
-43.2522
-39.9962
-39.3045
-39.982
-52.9787
0.114047
-52.9847
0.290696
-47.6501
-47.6723
79.6471
80.6943
-36.4719
-29.3665
-32.7486
-17.6899
-36.1739
-36.6587
-23.5033
-15.6716
-33.0422
-28.798
-33.0429
-28.7722
-33.0084
-33.0106
-25.9238
-26.0264
-38.7091
-36.4119
-43.434
-43.9268
-39.9454
-42.1068
-38.7549
-36.6099
-68.2207
91.9412
-79.3156
55.8907
-70.9188
-71.5448
129.393
161.337
-47.2427
-47.6822
-37.5979
-38.3361
-41.0725
-37.4869
-44.903
-40.3767
-40.3373
-35.7648
-39.2284
-34.8694
-39.9806
-40.4042
-34.6706
-34.3844
-40.6241
-40.1837
-42.8732
-39.3471
-43.2032
-40.1672
-39.318
-39.996
-36.4292
-29.3646
-32.8208
-17.719
-36.6877
-35.2822
-15.697
-23.5062
-38.6683
-36.3797
-43.4329
-43.8082
-42.1043
-39.9344
-36.5935
-38.7159
-36.1646
-34.6519
-35.6921
-34.8559
-36.6602
-36.2523
-34.6856
-34.8676
-35.7361
-36.6245
-37.9985
-39.8172
-35.6868
-36.1604
-38.1094
-40.2263
-34.984
-33.3112
-34.9871
-33.3117
-35.9861
-35.9853
-33.9683
-33.9673
-37.5054
-37.9057
-39.9984
-39.5007
-38.199
-39.5173
-38.9907
-38.9709
-36.5658
-37.9055
-36.5627
-37.903
-36.8746
-36.8763
-38.1599
-38.1582
-54.0509
-61.7436
-49.4302
-55.2163
-47.7174
-50.4229
-66.5349
-61.1038
29.8595
21.6571
29.9187
21.5535
23.4773
23.4873
-0.689003
-0.675955
-59.8635
-54.7604
-59.8484
-54.7468
-63.9311
-63.9224
-51.5162
-51.4978
-36.0832
-34.6185
-35.6164
-34.8207
-36.604
-36.2607
-34.6639
-34.8479
-35.8097
-36.4861
-38.2132
-40.2911
-36.2971
-35.8049
-38.1802
-40.4522
-37.2979
-38.0029
-39.9351
-39.3682
-39.432
-38.0309
-38.9962
-38.9644
-53.8066
-61.5662
-49.4881
-55.1845
-51.0746
-48.2049
-61.0796
-66.4839
-34.9705
-34.9205
-41.3172
-37.2421
-36.9584
-36.758
-36.0734
-35.561
-34.9513
-34.9678
-41.3049
-37.2846
-36.4444
-36.9087
-35.6769
-36.139
-51.3993
-51.3951
-47.2511
-42.4529
-47.2444
-42.4478
-41.2409
-41.2437
-23.2545
-23.258
-17.555
-6.39663
-6.40065
-17.5581
0.841628
0.841154
197.16
166.517
194.314