# vtk DataFile Version 2.0
tri_press
ASCII
DATASET UNSTRUCTURED_GRID
POINTS 3682 float
-0.821514 0.125 -2.255
-0.685 0.165 2.37287
-0.72469 0.935 -2.215
-0.655 1.445 2.18402
0.825 0.125 -2.25849
0.685 0.165 2.37287
0.728212 0.935 -2.215
0.655 1.455 2.17817
-0.806294 0.108048 -0.712377
-0.773937 0.108235 0.830247
-0.761659 1.1652 -0.74866
-0.729289 1.32606 0.71768
0.808601 0.108066 -0.714704
0.775081 0.108252 0.829083
0.76426 1.16879 -0.75061
0.730312 1.33257 0.71378
-1.60017 -0.485036 -3.43363
-1.59746 -0.405846 -2.23046
-1.5761 -0.420884 -0.685589
-1.52473 -0.457125 0.874944
-1.45395 -0.426944 2.42114
-1.43748 -0.359515 3.63082
-1.44371 -0.278177 4.82858
-1.59601 -0.00077941 -3.44092
-1.5924 0.105512 -2.24626
-1.57275 0.127341 -0.716435
-1.51039 0.132286 0.820449
-1.4184 0.18429 2.35176
-1.41353 0.252974 3.56021
-1.4301 0.330227 4.76043
-1.55427 0.908987 -3.43405
-1.52453 1.00859 -2.23654
-1.53003 1.18688 -0.758848
-1.47368 1.32619 0.713644
-1.39079 1.43444 2.19276
-1.39744 1.49786 3.40352
-1.42061 1.55919 4.61564
-1.51905 2.43893 -3.48153
-1.50453 2.56635 -2.29529
-1.4991 2.79262 -0.843181
-1.4837 3.02175 0.592442
-1.45789 3.19114 2.04529
-1.44663 3.2819 3.2331
-1.44628 3.35035 4.43701
-0.82036 -0.473414 -3.43982
-0.813433 -0.388486 -2.23899
-0.801479 -0.427227 -0.68583
-0.779146 -0.477329 0.883552
-0.731456 -0.446038 2.43709
-0.719422 -0.371617 3.64112
-0.723646 -0.28501 4.83393
-0.824278 0.000958903 -3.44349
-0.701383 0.2452 3.56815
-0.714239 0.32628 4.76399
-0.790867 0.878468 -3.42533
-0.689813 1.50338 3.40009
-0.708018 1.56266 4.61359
-0.756282 2.41418 -3.4731
-0.742393 2.54098 -2.28597
-0.745055 2.78209 -0.838203
-0.746375 3.0277 0.590122
-0.735303 3.2035 2.03818
-0.727177 3.29318 3.22598
-0.725069 3.35899 4.43142
0.770771 -0.472667 -3.4425
0.806853 -0.38808 -2.24202
0.795602 -0.426754 -0.688191
0.755275 -0.476738 0.882054
0.695387 -0.445177 2.43619
0.698449 -0.369203 3.63934
0.707391 -0.28175 4.83155
0.758951 0.00154504 -3.44599
0.692092 0.248275 3.56611
0.70468 0.330017 4.7614
0.732689 0.879198 -3.42681
0.68286 1.5096 3.39626
0.70206 1.56757 4.61036
0.7644 2.41613 -3.47503
0.772242 2.54332 -2.28794
0.761598 2.78552 -0.840682
0.730174 3.03246 0.586917
0.705404 3.20911 2.03451
0.704888 3.29865 3.22237
0.712411 3.36396 4.42804
1.56104 -0.483051 -3.43876
1.59358 -0.404092 -2.2359
1.57786 -0.418595 -0.69044
1.51785 -0.454 0.870962
1.44059 -0.422893 2.41766
1.42565 -0.353895 3.62659
1.43251 -0.271532 4.82366
1.55177 0.00104976 -3.44576
1.59438 0.107238 -2.25162
1.58098 0.130117 -0.72138
1.51911 0.136493 0.816037
1.4266 0.189755 2.34773
1.41328 0.259856 3.55544
1.42567 0.337712 4.75514
1.51819 0.911193 -3.43769
1.53125 1.0111 -2.23984
1.54112 1.19266 -0.763578
1.48374 1.33574 0.707059
1.40057 1.44703 2.1848
1.40001 1.50877 3.39651
1.41996 1.56858 4.60933
1.52767 2.44302 -3.48559
1.53166 2.57117 -2.29947
1.51759 2.79933 -0.848223
1.47738 3.03076 0.586203
1.43991 3.20162 2.03829
1.43238 3.29227 3.22615
1.43855 3.35998 4.4304
-0.811009 0.53 -2.27291
0.00174299 0.121101 -2.26064
-0.810829 0.119599 -1.48369
-0.762154 0.805 2.3706
0 0.179065 2.35881
-0.757103 0.108983 1.60156
0.00176099 0.988637 -2.26864
-0.754301 1.06123 -1.48183
0 1.46802 2.19912
-0.703563 1.39695 1.45085
0.813334 0.53 -2.27347
0.813723 0.11961 -1.4866
0.765845 0.81 2.37137
0.757976 0.10869 1.60098
0.75631 1.06197 -1.48281
0.703694 1.40483 1.44598
-0.789242 0.109016 0.0589349
-0.842582 0.636624 -0.730518
0.00115319 0.115066 -0.71354
-0.849848 0.717147 0.773963
0.000572157 0.1229 0.829665
-0.753078 1.25323 -0.0154899
0.00130025 1.55937 -0.749635
0.000511654 1.6396 0.71573
0.790978 0.109022 0.0571899
0.846336 0.638426 -0.732657
0.853192 0.720414 0.771432
0.754921 1.25831 -0.018415
-0.854268 0.583312 -1.48276
0.850417 0.584213 -1.4847
0.00144809 0.126647 -1.48514
0.00153062 1.1145 -1.48232
0.00175199 0.53 -2.47441
-0.85389 0.676885 0.0217225
0.857455 0.67942 0.0193875
0.000862673 0.119022 0.0580624
0.000905951 1.62383 -0.0169525
-0.880524 0.761073 1.5262
0.876272 0.765207 1.52348
0.000286079 0.141875 1.60127
0.000255827 1.64761 1.44841
0 0.8075 2.38372
-0.819045 0.3275 -2.26674
-0.409886 0.121109 -2.25976
-0.818929 0.119542 -1.86934
-0.746332 0.485 2.39449
-0.3425 0.179404 2.35847
-0.721493 0.13655 1.98721
-0.748197 0.7325 -2.2243
-0.361465 0.973679 -2.25368
-0.753957 1.01257 -1.84841
-0.758112 1.125 2.32684
-0.3275 1.46114 2.1962
-0.686036 1.42773 1.81744
0.413371 0.121107 -2.26151
0.822448 0.3275 -2.26926
0.825285 0.116382 -1.87254
0.3425 0.179426 2.35844
0.747576 0.4875 2.39427
0.722208 0.136126 1.98692
0.364986 0.973669 -2.25367
0.751329 0.7325 -2.22479
0.756867 1.01309 -1.8489
0.3275 1.46587 2.193
0.760143 1.1325 2.32449
0.685898 1.43646 1.81207
-0.82688 0.0955054 -1.09803
-0.797367 0.108933 -0.326721
-0.782942 0.393084 -0.721448
-0.397843 0.121012 -0.712959
-0.765422 0.108706 1.2159
-0.781126 0.109088 0.444591
-0.862195 0.387539 0.802105
-0.376262 0.136408 0.829956
-0.755461 1.11069 -1.11525
-0.836943 0.918323 -0.739589
-0.754709 1.20656 -0.382075
-0.464794 1.53152 -0.749148
-0.715689 1.36077 1.08427
-0.815402 1.03452 0.745822
-0.734381 1.28284 0.351095
-0.433101 1.62025 0.716705
0.816217 0.108783 -1.10065
0.398351 0.124619 -0.714122
0.799393 0.108941 -0.328757
0.787041 0.39346 -0.72368
0.766278 0.108722 1.21503
0.37758 0.136069 0.829374
0.782573 0.109094 0.443137
0.854937 0.393933 0.800258
0.756288 1.11138 -1.11671
0.46635 1.53122 -0.750123
0.839921 0.920917 -0.741633
0.756829 1.21079 -0.384513
0.716183 1.36788 1.07988
0.432676 1.62061 0.714755
0.81702 1.03913 0.742606
0.735987 1.28882 0.347683
-0.84816 0.556656 -1.87783
-0.404629 0.53 -2.42621
0.00159554 0.123627 -1.87289
0.00174749 0.32555 -2.39299
-0.866933 0.351456 -1.48322
-0.40469 0.118275 -1.48442
-0.837252 0.783037 1.9484
-0.381077 0.80625 2.37927
0.000143039 0.145708 1.98004
0 0.493282 2.45425
-0.879087 0.435028 1.56388
-0.378408 0.144338 1.60141
0.0016458 1.06564 -1.87548
0.00175649 0.759319 -2.38761
-0.863693 0.822269 -1.48229
-0.376385 1.10706 -1.48207
0.000127913 1.64764 1.82376
0 1.13776 2.34941
-0.795808 1.07901 1.48853
-0.351654 1.63622 1.44963
0.84687 0.557106 -1.87909
0.407543 0.53 -2.42656
0.862802 0.351911 -1.48565
0.407586 0.124933 -1.48587
0.840792 0.787603 1.94742
0.382923 0.80875 2.37948
0.879036 0.436949 1.56223
0.379131 0.142406 1.60112
0.861295 0.82309 -1.48375
0.37892 1.10697 -1.48256
0.796284 1.08502 1.48473
0.351975 1.63645 1.44719
-0.790013 0.408727 0.0403287
-0.386103 0.130192 0.0584987
-0.833638 0.609968 -1.10664
-0.850494 0.656755 -0.354398
0.00130064 0.121499 -1.09934
0.00100793 0.117033 -0.327739
-0.852613 0.697016 0.397843
-0.883994 0.73911 1.15008
0.000717415 0.120904 0.443864
0.000429118 0.138988 1.21547
-0.831741 0.979188 0.00311628
-0.46032 1.607 -0.0162212
0.00141543 1.27069 -1.11598
0.0011031 1.61249 -0.383294
0.000708803 1.63084 0.349389
0.00038374 1.6437 1.08207
0.793997 0.409331 0.0382887
0.38765 0.130562 0.0576262
0.836892 0.611319 -1.10868
0.854951 0.658923 -0.356635
0.856085 0.699917 0.39541
0.882375 0.74281 1.14745
0.834313 0.98293 0.000486255
0.460993 1.60723 -0.0176837
-0.852387 0.339478 -1.87359
-0.809436 0.361896 -1.10234
-0.836505 0.86159 -1.11094
-0.849039 0.777384 -1.86312
0.849447 0.339706 -1.87582
0.847529 0.777795 -1.86399
0.839668 0.863348 -1.11269
0.817848 0.362579 -1.10466
-0.407288 0.117544 -1.87112
0.410479 0.121711 -1.87272
0.406231 0.119176 -1.1
-0.40363 0.107415 -1.09869
-0.368925 1.05706 -1.86195
-0.378282 1.24149 -1.11561
0.38085 1.24096 -1.11634
0.371953 1.05703 -1.86219
-0.407257 0.326525 -2.43945
-0.383047 0.745909 -2.34256
0.386265 0.745909 -2.34253
0.410457 0.326525 -2.44144
-0.790516 0.398886 -0.340559
-0.787735 0.417317 0.421217
-0.824942 1.00754 0.374469
-0.836611 0.94989 -0.368237
0.794816 0.399247 -0.342696
0.839475 0.953102 -0.370574
0.826943 1.01167 0.371546
0.791719 0.418006 0.419273
-0.392745 0.124057 -0.32723
0.393071 0.127449 -0.328248
0.382581 0.133384 0.4435
-0.380869 0.133926 0.444227
-0.475415 1.59497 -0.382684
-0.446604 1.61341 0.350242
0.446731 1.61372 0.348536
0.476355 1.59459 -0.383903
-0.88759 0.423859 1.18299
-0.857261 0.460014 1.96781
-0.784675 1.10201 1.88292
-0.808112 1.05031 1.11717
0.879462 0.425641 1.18124
0.809617 1.05576 1.11367
0.787375 1.10876 1.87975
0.8575 0.462224 1.96717
-0.382545 0.140433 1.21568
0.383479 0.139679 1.21525
0.360816 0.146101 1.98348
-0.360454 0.148657 1.98363
-0.358021 1.63162 1.08317
-0.339577 1.63791 1.8206
0.339738 1.63817 1.81792
0.358693 1.6318 1.08097
-0.361788 0.489141 2.44387
0.362711 0.490391 2.44401
0.355211 1.13513 2.34796
-0.354288 1.13138 2.34966
-0.81721 0.22625 -2.2578
-0.6157 0.121133 -2.2593
-0.822967 0.119525 -2.06217
-0.719711 0.325 2.38772
-0.51375 0.260964 2.27691
-0.710092 0.143929 2.18004
-0.737602 0.83375 -2.22081
-0.543077 0.960468 -2.24047
-0.746692 0.981156 -2.03171
-0.713391 1.285 2.26227
-0.49125 1.45632 2.19336
-0.675003 1.44085 2.00073
0.619186 0.121121 -2.26193
0.820535 0.22625 -2.26069
0.828361 0.117472 -2.06552
0.51375 0.260336 2.27753
0.720349 0.32625 2.38763
0.708728 0.145438 2.1799
0.546599 0.960493 -2.24049
0.740697 0.83375 -2.22082
0.749945 0.98145 -2.03195
0.49125 1.46357 2.18872
0.714044 1.29375 2.2578
0.674622 1.44991 1.99512
-0.823324 0.0950402 -0.905205
-0.801421 0.108901 -0.519549
-0.827734 0.234008 -0.716912
-0.602691 0.113287 -0.712668
-0.769399 0.108751 1.02307
-0.777376 0.108816 0.637419
-0.865537 0.224152 0.816176
-0.582283 0.107954 0.830101
-0.762011 1.1414 -0.931953
-0.80162 1.04292 -0.744125
-0.758767 1.18646 -0.565368
-0.660065 1.44203 -0.748904
-0.721749 1.34267 0.900973
-0.774048 1.18114 0.731751
-0.728532 1.30115 0.534388
-0.623869 1.5585 0.717193
0.812022 0.108811 -0.907677
0.609392 0.10451 -0.714413
0.803592 0.108908 -0.52173
0.832228 0.233559 -0.719192
0.769978 0.109189 1.02206
0.586634 0.101553 0.829229
0.778676 0.108824 0.63611
0.857327 0.229933 0.814671
0.764714 1.14452 -0.933659
0.662309 1.44401 -0.750366
0.803739 1.04568 -0.746122
0.761115 1.19036 -0.567561
0.722342 1.34932 0.896829
[...]
POINT_DATA 3682
SCALARS point_scalars float 1
LOOKUP_TABLE default
-142.158
-60.1707
-129.055
-47.3388
-126.46
-61.9211
-122.085
-48.406
-44.4175
-44.545
-82.1968
-48.879
-42.9991
-44.093
-82.5546
-49.287
-174.601
-174.601
-43.2109
-45.5406
-58.0256
-60.7815
-56.5639
-13.1726
-139.511
-43.195
-43.8656
-59.6914
-55.1541
-54.0669
-3.59234
-114.637
-65.8159
-47.6717
-49.4356
-52.0578
-52.0578
-101.055
-77.1163
-136.808
-51.5328
-49.6692
-49.4502
-47.4715
-130.921
-156.55
-44.0451
-48.4046
-59.3106
-60.201
-54.2492
62.0684
-53.2877
-53.3899
163.229
-46.1055
-52.0578
-102.542
-67.2163
-131.458
-52.8635
-49.6489
-49.9083
-47.767
4.6688
-176.834
-44.2394
-48.1806
-61.6529
-61.1692
-54.6187
83.0542
-53.4018
-53.7836
180.344
-47.3797
-50.1263
-102.747
-68.7693
-131.14
-53.0915
-50.4355
-50.9936
-49.9348
-163.176
-182.536
-43.2813
-47.1249
-59.2739
-62.2555
-56.8491
-20.1125
-189.926
-43.1627
-43.259
-60.2323
-55.8469
-54.7228
-5.51369
-129.584
-65.8631
-47.811
-50.3827
-51.5839
-53.6476
-99.3008
-77.7061
-123.23
-51.5974
-50.737
-50.9936
-48.4173
-114.246
-159.962
-57.7162
-53.6402
-59.8945
-56.9723
-114.995
-45.4802
-36.0886
-48.8893
-125.677
-58.2972
-54.8756
-57.1119
-43.8192
-49.2243
-41.2248
-49.8016
-46.9069
-42.0833
-48.8031
-59.9655
-105.683
-53.3265
-41.5625
-50.0127
-42.9678
-60.3685
-66.1129
-65.7737
-64.432
3.27563
200.098
-45.6991
-46.3493
-44.2708
-75.0923
-54.7315
-53.9587
-53.2194
-48.8741
-50.2858
-107.133
-156.787
-84.9719
-54.8245
-58.5424
-58.889
-100.496
-135.475
-63.9607
-49.906
-39.6559
-49.1301
-157.723
-135.82
-84.5991
-59.12
-55.5858
-58.9321
-119.992
-113.959
-63.5463
-40.5281
-51.0726
-49.7628
-52.2737
-41.4773
-45.1481
-46.5268
-50.6238
-41.0753
-40.9052
-47.4079
-65.3423
-60.1349
-67.8245
-87.2403
-48.5117
-46.6983
-51.8347
-52.0367
-50.5209
-46.5917
-41.7143
-45.3382
-50.7424
-47.3054
-41.523
-40.402
-64.6921
-87.138
-60.4891
-68.2538
-48.8207
-52.2275
-47.1133
-52.2578
-95.5947
171.938
-92.8538
179.596
-64.0348
-62.7622
-53.0715
-50.4786
-57.066
-54.2654
-55.3222
-53.7872
-34.6553
173.683
-62.9814
-6.67216
-47.5724
-41.6728
-50.2631
-48.4162
-94.576
171.409
-64.2494
-62.782
-53.8755
-51.8666
-54.1197
-54.2131
-62.4068
-6.36163
-50.3353
-48.6257
-41.9256
-43.7746
-55.1055
-47.9152
-52.7377
-44.9171
-43.1394
-51.2842
-45.3155
-49.3575
-52.0774
-70.2044
44.375
-103.457
-60.5055
-50.7751
-42.553
-43.8476
-54.3185
-48.5021
-43.9219
-52.0574
-52.7749
-70.3792
-86.8038
-54.5409
-57.6642
-93.2871
-86.446
-91.5599
-57.2711
-54.1449
-92.363
-92.5634
-52.2093
-52.5058
-39.6153
29.5991
29.2481
-39.2558
154.516
159.982
162.166
153.877
-43.4687
-38.7133
-48.0383
-55.0786
-44.0845
-57.0285
-48.6422
-39.6118
-44.3295
-44.3831
-44.7794
-44.6375
-96.3412
-58.2336
-58.4196
-96.4906
-53.1179
-56.0705
-50.2205
-48.7251
-53.5261
-48.8518
-50.8505
-56.7268
-49.6506
-49.874
-58.0113
-57.9097
-50.1524
-48.0683
-48.448
-50.1722
-53.6258
-53.9045
-45.5784
-43.1278
-88.6108
-170.365
-121.595
-56.9266
-57.2573
-57.8255
-97.6539
-104.334
-87.8476
-48.2471
-42.101
-49.0244
-173.303
-95.8606
-120.799
-57.667
-57.8676
-57.077
-105.397
-99.2768
-88.4063
-43.1338
-49.3048
-49.9874
-46.8218
-41.6095
-43.8641
-45.4853
-49.4968
-41.7784
-37.3177
-46.6765
-90.3354
-70.1473
-74.7456
-125.5
-49.1601
-47.9429
-49.7946
-51.1913
-45.8667
-45.5464
-42.112
-43.858
-49.6677
-45.9944
-42.0531
-37.848
-89.9361
-125.202
-70.307
-75.2666
-49.4609
-51.4672
-48.3565
-50.2575
-125.112
-125.068
-131.755
121.844
-158.802
-158.941
-119.537
118.64
-67.7467
-50.0405
-61.6068
-60.9029
-53.9383
-53.1862
-54.9052
-50.7822
-59.6894
-59.997
-59.1947
-53.9969
-61.6878
-52.5116
-56.1707
-55.3546
-129.571
-129.619
-60.7622
154.205
-52.6919
-43.4447
-57.5937
-19.0478
-37.31
-37.7924
-45.3254
-36.8
-49.2175
-48.6766
-49.5266
-47.8838
-141.293
-148.342
-130.095
120.26
-67.9562
-51.4389
-62.1615
-60.826
-54.9005
-54.4518
-55.8558
-51.8778
-62.1946
-52.1759
-55.01
-55.6354
-52.3156
-42.0192
-56.5345
-18.7824
-49.6192
-48.9234
-49.7493
-48.2415
-41.3058
-41.0899
-41.8298
-42.7354
-47.4689
-53.3074
-51.2242
-48.7985
-46.7579
-46.7062
-49.0988
-45.936
-40.4879
-44.4461
-42.4288
-46.2686
-48.6458
-48.6605
-46.5185
-47.8245
-61.665
-54.455
-56.5236
-65.1627
-101.753
-101.279
28.5604
-127.113
-52.9392
-53.0478
-56.0912
-51.3968
-41.367
-41.5156
-42.4231
-42.9545
-47.6403
-53.5366
-51.2128
-49.2467
-41.3253
-44.9865
-43.2303
-45.7785
-62.1002
-54.8748
-57.0437
-65.4432
-76.0585
-65.4672
-65.925
-61.586
-75.6778
-65.4472
-65.5252
-60.7641
-75.4889
-63.976
-63.9696
-56.9116
-14.3851
0.736904
0.882675
17.294
190.264
183.908
191.116
190.364
-44.0246
-47.0092
-44.3896
-48.0714
-44.7121
-47.6383
-45.0678
-48.751
-44.0978
-44.3681
-44.58
-44.1561
-74.0114
-85.6391
-66.7432
-74.0539
-53.6028
-54.6082
-52.3188
-52.7167
-53.8291
-53.5046
-52.0542
-51.7192
-55.447
-53.319
-53.503
-51.2037
-48.3708
-48.7491
-48.909
-49.5938
-50.1482
-51.4816
-47.2289
-51.1946
-131.416
103.117
-121.362
76.9607
-85.067
-92.1552
-57.9723
-53.0291
-60.1164
-53.6657
-55.9655
-58.6241
-118.377
116.868
-66.1187
145.102
-78.7484
-46.4284
-50.3182
-45.6907
-48.0333
-39.5858
-49.6089
-48.4743
-121.22
81.4243
-128.081
101.747
-84.5802
-92.3528
-60.0805
-53.9077
-58.8027
-53.4018
-56.4681
-57.1098
-65.4329
148.311
-119.044
116.936
-78.6808
-46.2597
-48.5965
-41.3539
-51.2276
-47.249
-50.2573
-49.0272
-54.6682
-52.0993
-43.1735
-43.2827
-47.6259
-44.0938
-49.4278
-45.2176
-52.9984
-50.1093
-38.5276
-43.3849
-35.4809
-49.2616
-45.8281
-48.2588
-63.1858
-2.50797
-59.2612
-58.9546
-62.7203
-82.3949
23.5404
-121.67
-48.4121
-49.6595
-47.0892
-47.7642
-50.1063
-54.6484
-54.5386
-50.4187
-53.7407
-51.9914
-48.902
-45.1863
-43.6298
-43.4936
-47.277
-44.5429
-53.2833
-50.5067
-45.7757
-48.3011
-39.4197
-43.6256
-36.5779
-50.0418
-62.9094
-1.95433
23.7779
-122.145
-59.2928
-59.2575
-62.915
-82.716
-48.6665
-49.7063
-54.7179
-50.7474
-47.6904
-48.1097
-50.638
-55.045
-89.3938
-96.9571
178.624
169.07
-92.6359
-92.6762
176.125
175.756
-72.5799
-61.8099
-73.8541
-55.2391
-54.2623
-51.4616
-51.7481
-48.0643
-57.2408
-57.2362
-54.012
-54.1747
-54.379
-58.0747
-51.4775
-56.167
-35.6461
-35.5074
165.823
163.87
-60.1693
-73.1955
-21.3692
5.74002
-47.8771
-47.9188
-43.5526
-41.5711
-50.3749
-49.6877
-48.9655
-48.2108
-89.1253
-95.8445
169.396
178.263
-71.8506
-60.7246
-73.9711
-55.2844
-52.1566
-54.9064
-52.6188
-50.1078
-52.6837
-58.7798
-51.8637
-57.4254
-72.7882
-59.339
6.09587
-21.0429
-49.6505
-50.6077
-48.4833
-49.1353
-42.9107
-40.7616
-43.7913
-44.0138
-54.9674
-55.6475
-45.8192
-50.3198
-52.5375
-52.6255
-44.7211
-44.7663
-41.4759
-45.2681
-52.3691
-49.5795
-45.1672
-45.1173
-49.3824
-49.4879
-49.8252
-54.6186
-79.7406
-63.3056
40.6388
40.4129
-100.826
-100.918
-60.0217
-60.0962
-50.6175
-50.6238
-43.6083
-41.4267
-43.9159
-44.1101
-55.0834
-54.2376
-46.4117
-51.6715
-45.9449
-42.3226
-53.5966
-49.8141
-54.985
-50.3883
-63.5023
-79.8294
-129.81
-70.5291
-74.3455
-131.051
-46.5922
-49.4151
-62.1345
-60.0788
-70.854
-57.0066
-62.0097
-53.8913
-108.36
-135.648
-76.3379
-63.1638
-128.53
-127.52
-73.6097
-69.8323
-109.702
-62.9841
-75.9063
-134.129
-70.6902
-53.9273
-60.8977
-56.1296
-46.5542
-59.3065
-61.0352
-49.2524
-126.996
-119.5
-75.0431
-72.0869
-127.326
-72.1142
-74.8671
-119.547
-48.1688
-48.9593
-56.4385
-53.0956
-48.8551
-53.6067
-56.473
-49.0873
-72.8974
-31.3613
-16.0626
-61.594
-50.5999
28.516
14.2579
-12.1832
-49.4168
-11.985
14.4913
28.5611
-72.8354
-61.5365
-15.9053
-30.9375
62.2684
125.961
187.21
121.509
91.546
155.355
183.93
102.886
91.0558
103.927
179.358
155.378
59.7997
121.807
186.943
128.426
-43.5759
-42.634
-45.0946
-46.446
-33.4982
-40.3143
-42.8786
-40.5958
-48.4195
-52.2922
-46.4805
-44.9001
-67.0693
-52.3565
-49.7938
-57.9572
-43.979
-46.9443
-45.7611
-43.2259
-67.923
-58.4329
-50.2231
-52.7362
-48.9409
-45.5857
-47.0833
-52.7527
-34.8068
-41.3822
-43.6093
-41.4708
-44.0216
-45.7262
-44.1965
-42.8063
-44.1518
-43.0572
-44.2481
-45.7359
-44.4051
-46.3339
-44.4616
-43.1637
-44.3913
-42.8366
-44.4018
-46.316
-102.712
-70.8719
-84.3531
-126.532
-52.2481
-55.757
-66.0347
-58.2516
-52.5946
-58.5177
-66.1098
-55.8546
-102.966
-126.639
-84.4354
-71.2224
-50.7391
-54.5129
-53.6509
-48.3851
-57.1118
-56.2584
-55.4337
-62.3839
-49.2514
-49.7261
-52.1995
-52.5336
-48.4398
-46.2755
-51.2046
-49.0661
-50.6563
-47.5557
-52.2113
-52.4943
-48.803
-49.2342
-50.5846
-46.6007
-50.1545
-53.4579
-52.3526
-50.1014
-57.6561
-63.2631
-56.0648
-57.0519
-46.4716
-47.8042
-51.2364
-51.6104
-46.6936
-52.2432
-51.4138
-47.8569
-61.2732
-59.3144
-56.0025
-58.7229
-61.8279
-58.519
-55.573
-59.2934
-48.9151
-48.415
-49.3751
-51.2455
-50.3065
-46.0073
-48.2611
-48.0245
-51.5073
-48.4865
-48.4859
-46.3418
-49.2638
-51.449
-49.4905
-48.5731
-54.1087
-53.8237
-51.5559
-51.6759
-54.5741
-52.4506
-52.3041
-53.9998
-44.0603
-38.6043
-48.424
-50.5257
-42.7088
-49.1931
-47.1799
-37.197
-67.8647
-119.377
-174.32
-58.7303
-58.3495
-57.4755
-97.4593
-97.1603
-110.217
-47.1984
-44.1554
-48.41
-114.46
-74.2717
-173.962
-59.2488
-58.9402
-58.3975
-99.4535
-97.6403
-111.921
-45.1218
-49.7576
-49.4455
-46.5105
-43.0674
-43.1936
-44.646
-48.8242
-43.0475
-36.0167
-47.5742
-85.565
-75.5792
-78.7535
-108.885
-49.4988
-48.3677
-48.6853
-49.943
-43.7479
-44.4518
-43.2928
-43.2082
-48.9725
-46.3398
-43.1842
-37.362
-86.226
-112.098
-75.9826
-78.824
-49.8454
-50.2282
-48.9706
-49.1228
-141.423
-129.598
-154.885
54.1658
-158.617
-158.807
-137.515
-7.31539
-62.4387
-53.726
-59.0715
-59.6176
-53.022
-53.6712
-57.8694
-51.0258
-59.8168
-59.9639
-60.084
-55.4707
-63.0033
-54.5163
-57.7751
-56.2061
-118.977
-118.956
-77.6195
5.30672
-48.3992
-42.7128
-55.4413
-28.498
-36.572
-36.7653
-41.3282
-35.5412
-49.0769
-48.808
-49.225
-48.0015
-151.308
-135.155
-156.551
51.5566
-62.4253
-55.0033
-59.907
-59.6946
-54.1541
-54.8946
-59.1969
-52.0588
-63.1489
-54.1083
-55.5734
-56.7568
-47.6202
-42.5653
-54.6445
-28.004
-49.4495
-49.0638
-49.5022
-48.4401
-41.5628
-41.4847
-40.995
-42.4501
-48.4409
-51.3015
-50.243
-49.2513
-46.8425
-46.8186
-47.4981
-46.6143
-40.4869
-43.2281
-42.1568
-41.5154
-48.7617
-48.768
-47.3767
-48.3654
-60.5532
-57.0686
-58.3761
-62.6734
-105.07
-104.798
-16.7943
-137.02
-53.1309
-53.189
-54.5922
-52.3648
-42.0744
-41.9665
-41.3384
-42.5887
-48.8335
-51.5348
-50.441
-49.536
-41.7757
-44.0027
-43.0045
-42.7658
-60.956
-57.4256
-58.9499
-63.0371
-70.6618
-65.89
-66.1433
-63.6607
-70.0261
-65.6567
-65.873
-62.6681
-69.3645
-64.5561
-64.2932
-60.3742
-5.84883
2.74681
2.80614
11.3249
195.689
201.718
188.36
196.692
-44.9987
-46.431
-44.9981
-46.657
-45.6774
-47.0164
-45.6482
-47.2896
-44.2181
-44.2891
-44.3754
-44.2463
-74.7967
-79.954
-70.7177
-74.807
-56.0839
-54.7156
-54.5089
-53.5352
-55.6075
-53.9193
-53.6041
-52.6777
-54.203
-53.2282
-53.3081
-52.2035
-48.66
-48.774
-48.91
-49.1836
-50.0332
-49.6899
-49.2993
-50.6177
-89.4345
-113.739
-174.558
63.5948
-169.99
-157.334
-142.051
-83.2795
-99.5515
-75.1578
-82.7908
-90.0581
-55.3267
-54.813
-60.8711
-53.0514
-57.1402
-59.5138
-59.8419
-54.9051
-57.6122
-57.2232
-58.0383
-58.4234
-106.934
-117.761
-153.631
50.3639
-121.106
-122.724
-91.567
29.2811
-72.6116
-58.1353
-74.969
-51.9363
-48.903
-51.7928
-50.5696
-46.6413
-40.9234
-38.2394
-43.7174
-39.1632
-49.1198
-49.1801
-49.3162
-48.3771
-170.369
-157.902
-142.602
-83.5387
-104.005
-128.53
-173.126
62.0987
-98.2033
-75.7575
-82.7373
-90.1324
-58.3658
-60.0231
-59.8214
-55.5492
-55.9965
-55.561
-61.875
-53.5519
-57.4612
-57.5309
-58.4112
-57.7912
-120.174
-121.223
-89.2525
48.006
-108.768
-127.496
-160.45
47.7142
-72.155
-58.3226
-75.3774
-51.6969
-41.8911
-38.9549
-44.5373
-40.3511
-50.3751
-53.4014
-51.6277
-47.819
-49.9576
-49.6814
-50.0267
-48.9325
-48.2655
-50.5564
-54.1642
-52.0496
-41.8041
-41.7436
-41.8669
-42.9355
-44.8053
-46.1463
-45.8096
-44.4398
-46.1556
-46.4743
-48.3925
-45.9372
-50.0653
-50.9938
-52.4898
-50.7875
-41.3942
-41.4078
-39.1699
-42.9195
-43.1548
-40.5593
-35.1707
-43.6066
-46.4443
-48.2548
-46.5608
-47.6829
-86.6202
-47.2069
-71.822
-27.1523
-65.2137
-56.5297
-59.9907
-59.8702
-70.9893
-64.8289
-64.8902
-74.8576
-81.9789
-97.4063
-4.61148
-125.666
-48.6972
-48.5137
-48.4718
-48.2277
-47.3315
-45.1824
-46.2863
-47.4003
-50.7395
-53.0597
-50.8472
-53.2646
-51.9474
-52.5317
-53.2396
-51.1304
-47.3569
-50.4437
-51.5725
-51.3427
-46.3663
-46.4447
-47.6814
-45.8415
-42.537
-42.7168
-42.0694
-43.1992
-44.9009
-46.3312
-45.6555
-44.7619
-50.2765
-50.7853
-53.4287
-51.1182
-45.9688
-48.2659
-46.442
-47.843
-41.8377
-41.9037
-39.7355
-43.1013
-42.0806
-40.3974
-36.5021
-43.2103
-88.9855
-46.211
-71.4816
-26.0218
-81.1941
-96.8333
-4.5722
-125.448
-65.489
-56.4578
-60.3964
-60.0434
-71.5892
-65.1803
-65.5242
-74.9194
-48.9947
-48.7547
-48.7443
-48.6889
-52.1607
-52.6261
-53.4244
-51.4082
-47.768
-45.8086
-46.8286
-47.8116
-51.1762
-53.4593
-51.3493
-53.6551
-112.345
-84.1925
-92.2373
-96.6126
153.641
182.388
181.927
165.925
-104.878
-83.1434
-93.1451
-92.7581
179.411
173.779
176.537
176.81
-62.9797
-64.8086
-68.0187
-62.882
-61.9272
-63.4561
-67.613
-58.7549
-53.5596
-52.4593
-53.6279
-52.2214
-50.7189
-50.3173
-50.1074
-49.8253
-58.5599
-56.2547
-57.1012
-57.0937
-53.8591
-54.154
-54.1997
-54.2739
-55.8841
-54.7773
-56.0018
-58.2309
-54.2716
-53.5365
-52.5772
-54.8302
-45.2746
-24.0335
-34.8923
-34.8032
153.749
195.331
173.01
171.736
-60.2247
-65.1595
-62.1734
-68.0048
-12.635
-2.24479
-14.0653
0.0533673
-46.5535
-47.9477
-48.1484
-47.9029
-38.9971
-44.3647
-42.5375
-41.403
-49.8182
-50.9935
-50.4841
-50.1455
-48.3163
-48.551
-48.6391
-48.3295
-109.73
-84.0311
-91.6861
-95.4844
153.352
181.075
166.121
181.65
-63.3912
-64.9279
-67.5036
-61.6163
-61.9682
-63.4438
-67.7193
-58.7537
-54.4992
-53.074
-52.9788
-54.4568
-51.9477
-51.5872
-51.4543
-51.4271
-54.5814
-53.5632
-53.4303
-58.8085
-54.8506
-53.8663
-53.0331
-55.4203
-59.4157
-64.6522
-67.3485
-61.6855
-12.3483
-1.99078
0.318833
-13.7511
-49.97
-50.9394
-50.1406
-50.6163
-48.5505
-48.7336
-48.5693
-48.8232
-42.192
-42.8147
-42.3846
-41.4374
-43.186
-43.8641
-43.8589
-43.8599
-52.5767
-58.9115
-54.9052
-55.447
-48.292
-47.3507
-46.9582
-49.1861
-50.8238
-54.5652
-52.6725
-52.7131
-45.361
-44.5874
-44.8581
-44.8793
-42.6809
-43.678
-42.455
-44.0791
-50.8708
-52.1121
-51.8648
-50.1473
-45.8588
-44.8799
-45.2788
-45.2558
-48.5266
-50.2642
-49.3359
-49.4033
-54.3138
-50.0118
-50.8735
-53.6217
-67.7532
-72.632
-74.5064
-66.6394
48.2398
27.6961
42.8091
42.6862
-112.821
-93.0422
-102.635
-102.672
-57.9697
-63.4193
-60.393
-60.4055
-51.398
-50.1631
-50.676
-50.6894
-42.8277
-43.6004
-43.1316
-42.0247
-43.4162
-43.9625
-43.8744
-43.9443
-52.3035
-57.8309
-54.8476
-54.0168
-48.8299
-48.011
-47.548
-49.8164
-43.4738
-44.4038
-44.8266
-43.325
-50.4685
-51.5905
-53.0426
-50.8419
-54.9255
-50.7928
-54.1147
-51.4757
-68.1393
-72.765
-66.8147
-74.6738
-103.983
-86.1543
-87.7273
-78.09
-54.9892
-50.0926
-60.4429
-54.5342
-59.557
-58.3371
-58.2868
-56.3613
-107.311
-84.2433
-96.8486
-80.1579
-101.513
-85.3337
-87.4624
-78.2786
-105.745
-83.4974
-95.1989
-79.9521
-59.1662
-58.2111
-57.5449
-55.9622
-54.595
-49.7026
-58.5823
-54.103
-105.431
-92.738
-92.4152
-81.9815
-105.577
-92.8087
-92.5534
-82.159
-52.1362
-50.4917
-53.6394
-52.3707
-52.1929
-50.7724
-53.3617
-52.5538
-51.9394
-42.6783
-37.3629
-30.4991
16.3142
34.1877
12.157
36.7188
16.4546
34.3752
12.0266
36.3568
-51.5376
-42.4623
-37.1218
-30.2094
107.028
127.892
164.936
174.188
143.578
138.31
172.995
168.093
141.577
144.136
170.099
174.009
127.793
107.143
174.475
164.268
-43.7819
-43.7079
-43.2512
-44.6453
-38.496
-37.107
-39.9566
-39.9751
-47.5163
-49.2347
-46.6698
-48.8659
-57.5476
-59.5659
-54.1907
-55.0255
-44.3558
-44.2573
-43.86
-45.2524
-58.136
-60.2226
-54.1403
-55.7462
-48.1392
-49.786
-47.3518
-49.4523
-39.3817
-38.0942
-40.7695
-40.7873
-43.7309
-44.5522
-44.1065
-44.4976
-44.7396
-43.945
-44.549
-44.1419
-45.2678
-44.2959
-44.9348
-44.4309
-44.0105
-45.1822
-44.3096
-44.8419
-90.553
-108.512
-86.858
-98.9281
-56.9187
-56.273
-60.6259
-59.3562
-56.4204
-57.2178
-59.4855
-60.8239
-108.886
-90.9384
-99.0443
-86.9445
-53.2322
-52.8887
-53.5596
-52.7752
-57.1742
-56.0735
-55.0144
-56.5546
-50.1374
-49.886
-50.7427
-50.3069
-48.4988
-48.2599
-49.3152
-49.1029
-53.5735
-54.7825
-52.2255
-53.5676
-48.7172
-48.5096
-49.3283
-49.1005
-50.9759
-50.4946
-51.4004
-50.6147
-57.944
-56.7052
-55.6373
-57.2002
-49.5444
-48.9672
-50.7641
-49.4502
-49.9714
-49.0581
-50.8504
-49.6211
-59.1647
-58.4669
-57.469
-57.3189
-59.1687
-58.8769
-57.5409
-57.0268
-50.1436
-50.8265
-49.3078
-50.6712
-48.1187
-48.3143
-47.818
-48.0564
-48.6153
-48.7708
-48.0876
-48.3738
-50.1836
-50.8211
-49.461
-50.5304
-53.3058
-53.3799
-53.6844
-53.8344
-53.6563
-53.6323
-54.0972
-54.1394
-43.3265
-46.5478
-44.5776
-47.9798
-44.4694
-41.0135
-45.808
-42.183
-176.75
48.4616
-166.341
-81.8368
-126.12
-126.458
-63.2111
-54.3307
-61.7028
-56.8411
-55.7734
-62.2906
-149.096
57.4492
-93.9685
23.1421
-101.631
-76.475
-49.0275
-44.1798
-47.85
-42.0764
-49.0303
-50.2717
-166.818
-79.3069
-175.818
49.6815
-122.313
-126.766
-64.0591
-57.0899
-64.044
-55.1371
-56.579
-61.0157
-93.9021
22.1875
-151.823
58.879
-101.148
-76.6494
-48.6963
-43.2564
-50.0012
-45.3641
-49.9856
-51.1708
-46.0455
-49.0999
-42.1063
-43.3997
-44.888
-43.9167
-46.8392
-44.6241
-52.7668
-44.7231
-37.9483
-43.7025
-32.9171
-41.5917
-45.2176
-45.9336
-79.2537
-99.9493
-70.5653
-68.7811
-70.5986
-86.9206
-94.6094
-130.552
-48.7991
-49.3967
-47.2259
-48.501
-49.0565
-51.069
-51.1353
-50.7943
-45.0272
-48.1771
-46.304
-44.8844
-42.476
-43.7941
-44.6617
-44.3166
-52.4357
-46.2115
-44.9264
-46.3755
-38.8571
-43.7599
-35.4982
-39.5488
-79.073
-99.7221
-93.5296
-131.092
-70.837
-69.5633
-70.9961
-87.7622
-49.1377
-49.6539
-51.3666
-51.0458
-47.7715
-48.9239
-49.5573
-51.424
-162.833
77.1272
-158.282
19.9086
-131.511
-138.714
132.276
111.732
-137.318
-26.7445
-137.476
-25.891
-119.388
-119.423
140.544
135.919
-68.5189
-70.4524
-56.6153
-52.1975
-65.8723
-60.603
-65.7323
-56.9738
-59.3456
-51.8784
-54.2479
-49.5116
-55.2816
-53.8127
-50.4004
-50.2678
-60.0443
-55.2721
-60.1976
-55.5078
-59.2542
-59.2299
-53.8739
-53.9693
-65.358
-59.5913
-53.3927
-52.2625
-56.9588
-62.1478
-52.8427
-57.2343
-80.2453
36.4348
-79.8531
36.3689
-60.4112
-60.3578
155.54
154.814
-61.7954
-38.2707
-55.9879
-24.6705
-56.7643
-59.3976
-24.243
-15.2862
-41.6524
-36.4682
-42.3318
-37.2872
-45.4697
-45.6441
-37.506
-36.7022
-49.5074
-48.3062
-48.8105
-48.2435
-49.6389
-49.3407
-48.8044
-48.531
-164.049
76.4626
-157.031
32.8368
-128.466
-137.079
113.003
131.287
-68.2748
-70.4233
-56.6796
-51.9559
-65.4371
-59.6512
-65.7646
-56.8039
-60.5112
-52.5983
-55.3517
-50.6151
-54.7578
-56.223
-51.62
-51.5642
-66.1647
-59.7705
-52.0507
-52.5413
-53.7
-63.4127
-53.547
-57.0814
-61.1848
-37.8889
-54.7014
-24.0966
-58.1623
-55.8209
-15.0472
-23.9949
-49.8916
-48.692
-49.0499
-48.4798
-49.5404
-49.9379
-48.7244
-48.9454
-41.4288
-42.5003
-40.1656
-42.4802
-42.1741
-41.2587
-42.679
-42.5173
-48.21
-46.9046
-53.462
-52.8159
-50.2949
-52.2511
-47.6957
-50.2672
-47.3952
-46.4437
-47.2794
-46.4404
-49.0358
-49.0903
-45.8802
-45.8896
-40.2223
-42.2083
-44.4737
-45.3227
-41.4846
-43.5004
-47.5964
-45.1551
-47.1699
-48.2811
-47.1771
-48.3156
-46.4727
-46.4639
-47.8128
-47.8434
-59.4522
-66.1784
-53.1693
-56.3799
-54.4592
-56.5056
-67.6051
-61.3461
-13.0131
-136.272
-12.7959
-136.297
29.1329
29.1551
-126.978
-127.027
-54.2554
-51.9676
-54.3704
-52.1447
-56.0098
-56.0496
-51.102
-51.2001
-41.2046
-42.7606
-40.7057
-42.8692
-42.8856
-41.9774
-42.9811
-42.954
-48.1444
-47.2651
-53.5549
-53.1673
-52.3935
-50.2027
-48.1684
-50.6913
-41.3288
-43.3402
-45.1235
-45.8105
-44.3089
-42.5072
-46.2642
-45.656
-59.927
-66.3786
-53.6507
-56.7694
-56.9726
-55.1315
-61.569
-67.8436
-75.2911
-76.4819
-69.5412
-63.7816
-63.2888
-70.6814
-61.8104
-61.5322
-74.6192
-75.8819
-68.9028
-62.6119
-69.5833
-62.4071
-60.6228
-60.9243
-75.6113
-75.3106
-68.8938
-59.934
-68.8934
-59.9144
-56.7657
-56.7812
-14.7945
-14.7315
-8.03045
8.30017
8.50541
-7.89756
16.6146
16.6104
203.222
182.079
183.741
183.621