# vtk DataFile Version 2.0
tri_press
ASCII
DATASET UNSTRUCTURED_GRID
POINTS 3682 float
-0.880109 0.075 -1.395
-0.84168 0.105 1.525
-0.670512 0.555 -1.455
-0.655 0.675 1.5497
0.880109 0.075 -1.395
0.841671 0.105 1.525
0.670487 0.555 -1.455
0.655 0.675 1.5497
-0.832443 0.119857 -0.421667
-0.822781 0.126709 0.551667
-0.734869 0.664528 -0.453433
-0.729321 0.70415 0.548133
0.832436 0.119861 -0.421667
0.822774 0.12671 0.551667
0.734846 0.664522 -0.453433
0.729317 0.704155 0.548133
-1.66912 -0.227916 -2.17101
-1.65918 -0.180541 -1.38104
-1.6222 -0.143591 -0.408435
-1.59192 -0.144202 0.558486
-1.58527 -0.163861 1.53061
-1.59023 -0.170289 2.31824
-1.59571 -0.166715 3.11021
-1.65784 0.0254642 -2.19086
-1.64376 0.0796585 -1.3978
-1.60891 0.129013 -0.419707
-1.57722 0.135304 0.555849
-1.56601 0.113488 1.5334
-1.5819 0.107199 2.32143
-1.59349 0.111221 3.11248
-1.56812 0.530326 -2.23849
-1.497 0.583301 -1.4466
-1.51644 0.672258 -0.449252
-1.49224 0.705374 0.550093
-1.44154 0.684006 1.5469
-1.51463 0.676312 2.33376
-1.56606 0.678819 3.12025
-1.50596 1.35204 -2.2887
-1.47434 1.40943 -1.49258
-1.47459 1.49186 -0.486077
-1.48209 1.54374 0.526506
-1.4864 1.5522 1.53271
-1.50906 1.54821 2.32821
-1.5409 1.54719 3.11779
-0.879583 -0.231641 -2.16919
-0.863538 -0.183229 -1.37838
-0.828813 -0.148206 -0.408791
-0.808589 -0.150582 0.554917
-0.812117 -0.171429 1.52437
-0.82574 -0.177256 2.31401
-0.833387 -0.172577 3.10776
-0.887139 0.0187658 -2.1903
-0.838994 0.100226 2.31794
-0.841206 0.105203 3.11063
-0.815306 0.51561 -2.24198
-0.786833 0.669771 2.33432
-0.827338 0.673333 3.12037
-0.74719 1.34227 -2.29215
-0.715175 1.4005 -1.49638
-0.719429 1.48884 -0.48837
-0.736972 1.54426 0.526781
-0.749251 1.55111 1.53467
-0.771508 1.54577 2.33017
-0.798803 1.54446 3.11922
0.76459 -0.23164 -2.16919
0.838435 -0.183229 -1.37838
0.825757 -0.148203 -0.408791
0.824891 -0.150581 0.554917
0.828588 -0.171429 1.52437
0.758345 -0.177256 2.31401
0.717076 -0.172576 3.10776
0.738013 0.0187656 -2.1903
0.723529 0.100226 2.31794
0.692889 0.105203 3.11063
0.680483 0.515609 -2.24198
0.659915 0.669771 2.33432
0.664048 0.673333 3.12037
0.755147 1.34227 -2.29215
0.775012 1.4005 -1.49638
0.773976 1.48884 -0.48837
0.745558 1.54426 0.526781
0.713424 1.55111 1.53467
0.696679 1.54577 2.33017
0.686098 1.54446 3.11922
1.57852 -0.227916 -2.17101
1.64436 -0.18054 -1.38104
1.63186 -0.143587 -0.408435
1.6151 -0.144199 0.558486
1.60268 -0.163859 1.53061
1.54423 -0.170288 2.31824
1.49859 -0.166713 3.11021
1.55482 0.0254635 -2.19086
1.64097 0.0796577 -1.3978
1.62006 0.129015 -0.419707
1.59237 0.135308 0.555849
1.57463 0.11349 1.5334
1.50976 0.1072 2.32143
1.47188 0.111222 3.11248
1.48103 0.530324 -2.23849
1.50342 0.583298 -1.4466
1.53183 0.672255 -0.449252
1.50467 0.705378 0.550093
1.4429 0.684008 1.5469
1.42992 0.676314 2.33376
1.42984 0.678821 3.12025
1.51585 1.35204 -2.2887
1.52904 1.40943 -1.49258
1.52831 1.49186 -0.486078
1.499 1.54374 0.526506
1.46222 1.55221 1.53271
1.44574 1.54821 2.32821
1.43924 1.5472 3.11779
-0.804133 0.315 -1.45382
0 0.09729 -1.37271
-0.878965 0.0747395 -0.908333
-0.78565 0.39 1.57466
-4.50015e-06 0.094039 1.53596
-0.847072 0.101012 1.03833
-1.2517e-05 0.61137 -1.51137
-0.743811 0.650885 -0.954217
0 0.730902 1.6056
-0.731326 0.728741 1.04892
0.804171 0.315 -1.45387
0.878964 0.0747391 -0.908333
0.785655 0.39 1.57467
0.847086 0.100991 1.03833
0.743806 0.6509 -0.954217
0.731333 0.728752 1.04892
-0.821796 0.129098 0.065
-0.845877 0.392192 -0.43755
-3.47963e-06 0.10646 -0.421667
-0.852769 0.415429 0.5499
-3.70738e-06 0.104397 0.551667
-0.733257 0.685501 0.04735
-1.15267e-05 0.990409 -0.453433
-1.98069e-06 1.00813 0.548133
0.821789 0.129101 0.065
0.845893 0.392191 -0.43755
0.852772 0.415432 0.5499
0.733239 0.685496 0.04735
-0.878867 0.353596 -0.931275
0.878868 0.353596 -0.931275
-1.73982e-06 0.0917997 -0.908333
-1.20219e-05 0.734248 -0.954217
-6.25849e-06 0.315 -1.75168
-0.795457 0.403811 0.056175
0.79546 0.403812 0.056175
-3.59351e-06 0.105318 0.065
-6.75371e-06 1.06867 0.04735
-0.893517 0.402715 1.04363
0.893505 0.402716 1.04363
-4.10376e-06 0.0996169 1.03833
-9.90344e-07 0.883219 1.04892
-2.25008e-06 0.39 1.74172
-0.84978 0.195 -1.43207
-0.440055 0.113528 -1.35647
-0.878945 0.0754621 -1.15167
-0.831561 0.2475 1.56773
-0.420842 0.0919851 1.53801
-0.845962 0.10142 1.28167
-0.743098 0.435 -1.46019
-0.335262 0.592219 -1.49222
-0.744661 0.640442 -1.20461
-0.725009 0.5325 1.56686
-0.3275 0.716977 1.59168
-0.714471 0.723179 1.29931
0.440055 0.113123 -1.35688
0.849844 0.195 -1.43214
0.87894 0.0754656 -1.15167
0.420833 0.0930769 1.53692
0.831424 0.2475 1.5676
0.845984 0.10139 1.28167
0.335237 0.592227 -1.49223
0.743126 0.435 -1.46023
0.744649 0.640452 -1.20461
0.3275 0.716996 1.5917
0.725012 0.5325 1.56687
0.71446 0.723169 1.29931
-0.833121 0.119881 -0.665
-0.822502 0.129095 -0.178333
-0.847673 0.251768 -0.429608
-0.417576 0.110453 -0.421667
-0.821327 0.12746 0.795
-0.821177 0.129015 0.308333
-0.87652 0.251697 0.550783
-0.417171 0.103995 0.551667
-0.73288 0.651246 -0.703825
-0.811944 0.539146 -0.445492
-0.734087 0.675039 -0.203042
-0.424183 0.940953 -0.453433
-0.728749 0.714871 0.798525
-0.808644 0.568589 0.549017
-0.732252 0.695789 0.297742
-0.430714 0.988247 0.548133
0.8331 0.1199 -0.665
0.41757 0.110452 -0.421667
0.822486 0.129107 -0.178333
0.847677 0.251769 -0.429608
0.821317 0.127463 0.795
0.417164 0.103995 0.551667
0.821174 0.129013 0.308333
0.876167 0.251874 0.550783
0.732734 0.651118 -0.703825
0.42417 0.940971 -0.453433
0.811947 0.539145 -0.445492
0.734089 0.675055 -0.203042
0.72873 0.714858 0.798525
0.430725 0.988279 0.548133
0.808618 0.56858 0.549017
0.732227 0.695775 0.297742
-0.878299 0.334298 -1.19255
-0.40207 0.315 -1.67273
-8.69909e-07 0.0926071 -1.14052
-3.12924e-06 0.206145 -1.58647
-0.880601 0.214168 -0.919804
-0.439483 0.103884 -0.908333
-0.887095 0.396357 1.30914
-0.392826 0.39 1.62084
-4.30196e-06 0.0987551 1.28715
-3.37511e-06 0.242019 1.7551
-0.884936 0.251864 1.04098
-0.423538 0.0963102 1.03833
-1.22694e-05 0.691709 -1.23279
-9.38773e-06 0.463185 -1.73668
-0.876856 0.50224 -0.942746
-0.371912 0.711485 -0.954217
-4.95172e-07 0.805338 1.32726
-1.12504e-06 0.560451 1.69267
-0.895349 0.565728 1.04627
-0.365663 0.862324 1.04892
0.878298 0.334298 -1.19257
0.402082 0.315 -1.67272
0.880602 0.214167 -0.919804
0.439481 0.103874 -0.908333
0.887113 0.396358 1.30915
0.392826 0.39 1.62085
0.884849 0.251854 1.04098
0.423541 0.0963106 1.03833
0.876857 0.502248 -0.942746
0.371897 0.711476 -0.954217
0.895349 0.565734 1.04627
0.365666 0.86233 1.04892
-0.822375 0.25958 0.0605875
-0.416162 0.106684 0.065
-0.862676 0.372894 -0.684413
-0.816972 0.398002 -0.190688
-2.60973e-06 0.10487 -0.665
-3.53657e-06 0.105771 -0.178333
-0.8437 0.40962 0.303038
-0.884648 0.409072 0.796763
-3.65044e-06 0.104861 0.308333
-3.90557e-06 0.1159 0.795
-0.769204 0.547079 0.0517625
-0.447684 1.03919 0.04735
-1.17743e-05 0.870956 -0.703825
-9.14023e-06 1.05626 -0.203042
-4.3672e-06 1.05166 0.297742
-1.48552e-06 0.948296 0.798525
0.822435 0.259551 0.0605875
0.416156 0.106684 0.065
0.862673 0.372893 -0.684413
0.816966 0.398001 -0.190688
0.843292 0.409622 0.303038
0.884402 0.409074 0.796763
0.769192 0.547075 0.0517625
0.447671 1.03919 0.04735
-0.88 0.204584 -1.17211
-0.872322 0.235096 -0.674706
-0.829828 0.5153 -0.694119
-0.874703 0.46862 -1.19858
0.88 0.204584 -1.17212
0.874735 0.468624 -1.19859
0.829829 0.515302 -0.694119
0.872322 0.235097 -0.674706
-0.439769 0.106801 -1.14609
0.439768 0.106796 -1.14609
0.427849 0.106582 -0.665
-0.427853 0.106583 -0.665
-0.353587 0.667394 -1.2187
-0.369676 0.81369 -0.703825
0.369657 0.813704 -0.703825
0.353567 0.667415 -1.2187
-0.421062 0.200573 -1.68386
-0.368666 0.449092 -1.66979
0.36866 0.449092 -1.6686
0.421068 0.200573 -1.68388
-0.823534 0.261419 -0.18451
-0.875604 0.24256 0.305685
-0.758902 0.542823 0.30039
-0.795646 0.545648 -0.196865
0.823538 0.261419 -0.18451
0.795623 0.545637 -0.196865
0.758993 0.542871 0.30039
0.875608 0.242559 0.305685
-0.416741 0.108824 -0.178333
0.416735 0.108824 -0.178333
0.416656 0.105346 0.308333
-0.416663 0.105346 0.308333
-0.451881 1.02197 -0.203042
-0.44619 1.0277 0.297742
0.44618 1.0277 0.297742
0.451881 1.022 -0.203042
-0.895745 0.261466 0.795881
-0.880284 0.249682 1.2954
-0.895469 0.549114 1.30423
-0.81973 0.562759 0.797644
0.895762 0.261462 0.795881
0.819775 0.562764 0.797644
0.895469 0.549117 1.30423
0.880245 0.249677 1.29541
-0.417465 0.111134 0.795
0.417463 0.111134 0.795
0.422187 0.0947394 1.28441
-0.42219 0.0947385 1.28441
-0.365162 0.930658 0.798525
-0.346582 0.79193 1.31328
0.346583 0.791927 1.31328
0.365162 0.93068 0.798525
-0.406834 0.24476 1.73508
0.40683 0.24476 1.73508
0.360163 0.546475 1.65361
-0.360163 0.546475 1.65371
-0.865373 0.135 -1.41396
-0.660082 0.0719079 -1.39809
-0.879221 0.0755367 -1.27333
-0.839673 0.17625 1.54942
-0.631261 0.0924137 1.53759
-0.842335 0.104697 1.40333
-0.712398 0.495 -1.46319
-0.502887 0.568975 -1.46898
-0.715564 0.605698 -1.3298
-0.685836 0.60375 1.55411
-0.49125 0.703291 1.57799
-0.680904 0.695258 1.4245
0.660082 0.0718888 -1.39811
0.86531 0.135 -1.4139
0.879224 0.0755334 -1.27333
0.631252 0.0937027 1.5363
0.839575 0.17625 1.54933
0.842388 0.104634 1.40333
0.502862 0.568964 -1.46896
0.712544 0.495 -1.46335
0.715562 0.60572 -1.3298
0.49125 0.70334 1.57804
0.685444 0.60375 1.55372
0.680898 0.695253 1.4245
-0.83244 0.12021 -0.543333
-0.83132 0.120629 -0.3
-0.87107 0.170306 -0.425638
-0.638614 0.087945 -0.421667
-0.821568 0.127571 0.673333
-0.821089 0.128752 0.43
-0.87761 0.175223 0.551225
-0.631462 0.0923791 0.551667
-0.735106 0.659118 -0.578629
-0.783511 0.606889 -0.449463
-0.734373 0.669678 -0.328238
-0.610297 0.864283 -0.453433
-0.7283 0.708776 0.673329
-0.781942 0.642849 0.548575
-0.732305 0.701488 0.422938
-0.622603 0.93137 0.548133
0.832419 0.120229 -0.543333
0.63865 0.087862 -0.421667
0.831305 0.120639 -0.3
0.871129 0.170279 -0.425638
0.821558 0.127574 0.673333
0.631058 0.0931742 0.551667
0.821092 0.128743 0.43
0.877611 0.175222 0.551225
0.735098 0.659128 -0.578629
[...]
POINT_DATA 3682
SCALARS point_scalars float 1
LOOKUP_TABLE default
-120.045
-52.9352
-6.40546
-36.3384
-120.35
-53.0062
-6.81893
-36.4096
-33.8095
-27.5045
-57.925
-45.3805
-33.8067
-27.5034
-57.951
-45.3894
-39.8757
-146.046
-35.7925
-27.5215
-52.2174
-53.4865
-37.0897
-39.8757
-146.575
-35.8064
-28.2852
-47.9952
-43.1102
-37.0897
-49.3741
-125.946
-46.1381
-37.6742
-50.038
-40.9061
-34.536
-9.05752
-91.7426
-88.8339
-60.0581
-53.3575
-36.194
-36.194
17.5285
-126.893
-34.0239
-28.0344
-48.3825
-35.7571
-33.5603
17.5285
-34.6535
-33.5603
139.789
-33.5988
-32.7094
62.0792
-51.752
-75.592
-64.0954
-39.3188
-34.1043
-33.0628
35.7959
-135.881
-33.9993
-27.8316
-49.6679
-35.2807
-33.6801
90.3936
-34.2662
-32.2312
147.259
-32.4976
-32.2312
57.8796
-53.9413
-77.1232
-64.1204
-39.3993
-33.8155
-32.7444
-40.9788
-146.336
-35.8089
-27.5617
-52.3106
-53.5334
-37.1901
-40.9788
-146.87
-35.8212
-28.3368
-48.088
-42.3777
-35.2168
-41.4858
-127.177
-46.1303
-37.7303
-50.0642
-38.5545
-34.5644
-9.44574
-91.8554
-88.8288
-60.0464
-52.3232
-36.2684
-35.2706
12.4666
-93.9337
-54.1573
-37.7653
-36.0849
-38.2315
-12.2595
-60.9698
-32.3453
-47.9905
11.8534
-54.1021
-37.8572
-38.2142
-61.0269
-48.0014
-27.6354
-43.9942
-38.1504
-33.6654
-30.7314
-49.4985
-57.1896
-60.515
-27.6606
-43.991
-33.729
-49.4921
-64.4426
-64.4518
-54.6271
10.232
196.196
-32.2601
-32.3274
-31.9469
-93.1878
-40.4653
-40.5016
-32.8807
-42.074
-23.0376
-72.2336
-83.4504
-71.8945
-43.9927
-41.7497
-39.608
24.2561
-14.1109
-76.2883
-35.5177
-32.6789
-45.3126
-84.3193
-72.587
-71.8718
-41.9651
-43.9586
-39.7326
-14.4182
23.8236
-76.2891
-32.7419
-35.5626
-45.3362
-48.572
-30.7209
-40.4972
-37.2641
-23.0007
-27.0559
-29.2679
-30.0081
-57.5834
-47.88
-53.7317
-44.1306
-46.0936
-39.6972
-46.6916
-60.7305
-48.3939
-37.0385
-30.7136
-40.5074
-23.1187
-29.9425
-27.0609
-29.2895
-57.5374
-44.1398
-47.8758
-53.7397
-46.0606
-60.7312
-39.8068
-46.6466
-100.693
160.556
-67.7533
146.282
-60.7167
-52.6911
-45.1431
-31.8633
-34.1744
-23.7256
-38.2779
-33.8513
-18.2842
179.386
-67.922
-10.0049
-36.1947
-27.7727
-40.0098
-42.7538
-100.748
160.785
-60.7102
-51.9079
-45.2236
-32.0662
-38.3332
-33.8761
-67.9072
-10.1063
-40.0172
-42.7699
-30.1509
-31.1955
-50.9896
-37.9043
-45.9096
-34.3299
-27.178
-29.4806
-30.8156
-29.3607
-35.5719
-82.6375
5.12675
-105.675
-75.6716
-49.594
-30.2373
-31.0921
-50.9984
-37.9283
-27.3596
-29.3887
-35.6065
-82.643
-87.7948
-49.7488
-51.3577
-117.718
-87.825
-117.829
-51.5077
-49.7323
-66.6031
-64.4103
-47.7727
-48.0548
-31.2527
2.6946
2.7058
-31.3402
99.9485
108.787
107.527
155.639
-35.7816
-28.9946
-31.804
-42.6589
-35.8143
-42.6633
-31.9473
-29.0562
-33.4518
-33.3037
-30.0516
-30.1349
-94.4722
-71.1837
-71.1884
-94.4975
-34.6144
-43.1901
-51.1991
-34.4832
-34.8854
-34.5336
-51.3237
-43.2643
-28.2042
-28.1289
-36.2982
-36.1763
-49.8164
-37.1037
-37.1377
-49.8251
-32.6189
-32.8686
-31.6592
-31.5215
-87.9956
-98.3477
-97.1431
-51.3945
-47.3759
-41.998
13.4608
-14.355
-49.8099
-36.052
-33.823
-40.0577
-98.0435
-87.3106
-97.1912
-47.5721
-51.4404
-42.1146
-14.654
13.0524
-50.0106
-33.9143
-36.0702
-40.1038
-37.3197
-32.3233
-36.8068
-35.8577
-27.1809
-27.3093
-27.9598
-28.9109
-60.0852
-51.2266
-55.9316
-83.7493
-44.7528
-42.6568
-43.3928
-61.1957
-37.2964
-35.6779
-32.3318
-36.8127
-27.1951
-28.7948
-27.3232
-28.0032
-59.9394
-83.7978
-51.2284
-55.9392
-44.7778
-61.2019
-42.7317
-43.4158
-40.5774
37.3947
-173.065
109.205
-88.6765
-88.4158
-78.2345
30.6264
-60.3578
-52.0303
-58.4533
-53.3772
-39.7044
-35.9071
-47.2408
-33.064
-37.5942
-37.7402
-34.5006
-29.8081
-38.23
-38.7435
-37.2213
-35.2283
-13.89
-14.0832
-24.7696
20.7261
-72.9432
-56.5737
-70.0789
-34.1783
-32.3149
-32.3022
-34.0161
-30.5629
-47.8198
-45.7351
-45.2634
-45.0585
-40.3571
36.7541
-173.062
106.295
-60.3047
-51.9539
-58.4386
-52.9076
-39.7942
-35.9899
-47.3655
-33.0672
-38.3232
-38.7539
-37.2339
-35.2315
-73.0291
-56.6469
-70.0426
-34.2729
-47.8475
-45.7771
-45.3632
-45.0784
-28.2451
-27.086
-27.6501
-29.7114
-42.2856
-45.33
-45.6476
-40.5564
-37.825
-37.7675
-41.4626
-36.1244
-30.8779
-36.6011
-35.7558
-29.8004
-30.6019
-30.5758
-30.6411
-30.8142
-51.4937
-47.8643
-43.1745
-59.7939
-50.4812
-51.2675
-19.3916
-90.1718
-60.4275
-60.4297
-67.8049
-54.5273
-28.2683
-27.1068
-27.7183
-29.6448
-42.291
-45.3307
-45.6499
-40.5672
-30.9387
-36.6961
-35.8356
-29.9013
-51.4921
-47.8708
-43.1589
-59.7945
-76.4088
-62.7171
-66.071
-57.2964
-76.4378
-62.7201
-66.0879
-57.293
-60.276
-54.0637
-53.8689
-49.9653
-8.43614
3.11263
3.15471
17.5784
197.089
141.008
204.456
197.425
-30.3943
-34.9507
-29.3275
-34.6644
-30.4727
-34.9905
-29.4543
-34.7117
-31.8085
-33.0013
-31.2797
-31.7686
-90.7002
-100.443
-83.7886
-90.708
-42.5049
-39.331
-41.8521
-38.6999
-42.5577
-39.4294
-41.8413
-38.5915
-33.5883
-33.1062
-33.1174
-32.1076
-38.9377
-42.0897
-42.099
-45.5703
-26.5684
-23.2599
-25.662
-26.8162
-140.478
120.314
-76.5996
-0.425903
-81.1525
-67.0207
-45.037
-34.6665
-37.8497
-35.5347
-42.0556
-37.8951
-122.443
101.644
-34.4164
27.4743
-106.98
-48.0131
-47.3882
-33.2668
-34.6824
-31.8419
-52.8198
-39.2099
-73.7084
94.6334
-140.525
110.379
-81.1724
-66.0804
-38.0805
-35.6997
-45.1261
-34.7758
-42.1674
-38.0373
-34.5707
25.9334
-122.068
99.627
-107.068
-48.0204
-34.7289
-31.9267
-47.477
-33.4125
-52.8877
-39.302
-48.4064
-49.1565
-31.8327
-32.1371
-43.6463
-38.1321
-41.2246
-35.2399
-34.3431
-25.7936
-27.6881
-28.5163
-30.412
-28.2756
-29.9897
-30.4652
-54.8981
-23.1998
-48.541
-45.4612
-46.8996
-70.196
-13.6059
-80.9485
-40.731
-51.6871
-41.8669
-37.1098
-42.4464
-53.9009
-66.4739
-54.6721
-48.372
-48.9449
-40.9682
-35.0607
-31.8536
-32.0557
-43.6423
-38.1545
-34.3634
-25.7803
-29.914
-30.4262
-27.7546
-28.456
-30.5543
-28.3259
-54.8862
-23.4758
-13.4866
-80.8114
-48.5305
-45.4527
-46.8986
-70.2028
-40.789
-51.6923
-66.4814
-54.6725
-42.0252
-37.2058
-42.4988
-53.9097
-93.9873
-107.772
156.257
159.568
-67.1091
-66.7806
142.036
143.754
-70.4162
-54.6441
-58.4121
-47.5659
-43.9475
-47.0296
-31.9106
-31.4692
-34.7735
-34.7106
-26.7649
-26.9295
-37.1002
-40.1105
-32.6509
-34.9112
-21.8561
-21.8955
153.112
152.914
-60.755
-82.9866
-21.6097
0.701138
-36.5272
-36.5427
-29.4278
-29.2966
-46.3081
-34.9502
-45.9705
-39.7758
-94.0315
-107.861
159.694
161.516
-70.4258
-54.6236
-57.1537
-47.0245
-47.1036
-44.0302
-32.0806
-31.7047
-36.6696
-40.1962
-32.6511
-34.9753
-83.0272
-60.5585
0.56009
-21.6863
-34.9843
-46.2493
-39.7988
-45.9828
-33.2227
-24.9737
-32.1612
-30.5301
-50.5791
-51.27
-36.2451
-40.1493
-46.2165
-46.3647
-34.1681
-34.1159
-26.1279
-30.2196
-32.4514
-28.9666
-30.6501
-30.6827
-29.0256
-29.0108
-32.9241
-38.6318
-89.6673
-76.1839
5.03949
5.91677
-103.798
-103.844
-74.991
-75
-49.4446
-49.4501
-33.2751
-25.0931
-32.0381
-30.4381
-51.2962
-50.5724
-36.2748
-40.1648
-30.3699
-26.2279
-32.9369
-28.951
-38.642
-33.0201
-76.1927
-89.676
-123.064
-66.7256
-73.5662
-159.528
-40.036
-44.6006
-55.9408
-53.7231
-52.6845
-61.1257
-58.665
-46.5217
-62.0684
-159.157
-78.8423
-85.1994
-123.134
-159.579
-73.5869
-66.7197
-62.1647
-85.2785
-78.8794
-158.997
-52.6808
-46.5215
-58.6352
-60.7502
-40.0387
-53.6873
-55.9328
-44.5986
-81.5917
-76.712
-59.6413
-58.6178
-80.5816
-57.9618
-59.3827
-76.4482
-38.7411
-41.2415
-49.4955
-51.692
-38.9358
-52.0152
-49.6478
-41.3228
-41.3303
-43.3886
-10.6487
-27.5667
-67.3104
-15.0269
14.5182
-24.346
-66.8531
-24.4543
13.093
-15.0872
-41.5438
-27.6754
-10.6286
-43.4645
43.7767
126.389
151.4
46.4471
43.3846
30.7163
198.504
117.072
42.7385
115.136
198.683
30.5869
36.669
44.6263
152.257
122.695
-34.5245
-29.4382
-33.2331
-39.0536
-28.043
-32.8088
-27.0807
-26.2497
-43.2866
-41.9826
-32.1292
-39.516
-49.234
-42.6684
-37.24
-44.7619
-34.5737
-39.0704
-33.2793
-29.5048
-49.237
-44.7563
-37.2646
-42.6674
-43.3467
-39.6535
-32.2418
-41.995
-28.1788
-26.3239
-27.2234
-32.8196
-33.1589
-35.9501
-32.8344
-30.5666
-33.0084
-30.4806
-32.7891
-35.8905
-28.7942
-30.4801
-31.0924
-29.1658
-28.8676
-29.2149
-31.1285
-30.5089
-77.6105
-64.5915
-98.4908
-88.5988
-52.6963
-67.6519
-82.5641
-56.0874
-52.692
-56.0871
-82.5749
-67.6558
-77.6342
-88.5892
-98.4973
-64.593
-27.7847
-37.9776
-38.3088
-28.4421
-44.8903
-45.3767
-41.3073
-39.0798
-42.9708
-52.7915
-44.0074
-48.2745
-41.4712
-33.3233
-34.7471
-42.3909
-27.8213
-28.5085
-37.5033
-37.937
-41.5317
-42.5155
-34.6675
-33.3984
-43.0061
-48.3763
-44.0332
-52.8067
-44.9773
-39.1737
-41.3785
-45.5109
-29.1497
-30.7474
-32.2799
-34.547
-29.0897
-34.5551
-32.2758
-30.7258
-40.8844
-35.5922
-33.9513
-36.3463
-40.6348
-36.2343
-33.919
-35.4767
-56.4219
-47.9593
-45.5294
-54.5103
-36.301
-34.1926
-39.0754
-42.0146
-36.3607
-42.0489
-39.0883
-34.214
-56.4322
-54.5216
-45.4936
-47.9789
-38.8838
-31.8107
-24.5552
-33.4563
-39.0442
-33.4976
-24.7898
-32.0192
-33.2179
-31.0951
-28.0285
-33.5583
-33.1035
-33.6309
-27.8397
-31.0154
-73.8919
-114.697
-136.303
-52.8958
-48.6771
-45.045
6.38332
-15.6176
-39.4704
-36.3256
-34.7503
-37.9709
-115.207
-76.1246
-136.449
-48.7526
-52.9465
-45.2178
-16.1384
5.93417
-39.6745
-34.8272
-36.3789
-38.033
-35.2547
-32.9744
-35.2048
-34.8845
-27.7207
-27.2093
-27.5412
-28.3805
-58.7498
-54.5941
-57.0194
-67.7151
-45.1104
-44.4055
-45.3368
-50.538
-35.2428
-34.8139
-32.9813
-35.2116
-27.7196
-28.3296
-27.2114
-27.5724
-58.7735
-67.7625
-54.6029
-57.0261
-45.1275
-50.5634
-44.4685
-45.3389
-3.35083
30.4889
-130.72
88.2201
-92.7913
-92.8289
-84.9076
2.11221
-57.4027
-53.041
-56.1744
-54.1796
-38.7091
-36.7853
-46.8483
-34.0812
-35.9734
-36.0438
-34.4351
-33.2153
-37.0981
-36.3333
-37.5027
-35.9114
-13.3774
-13.5123
-21.7196
-6.04714
-67.7866
-57.951
-69.0432
-47.6143
-32.2752
-32.4014
-32.9901
-31.7395
-48.2879
-46.6609
-46.3351
-47.8904
-6.66041
29.9043
-130.558
86.8238
-57.3487
-52.9803
-56.1534
-53.9653
-38.8051
-36.873
-46.9502
-34.1457
-37.1605
-36.3996
-37.5303
-35.9603
-67.885
-58.0016
-68.9608
-47.7026
-48.2989
-46.6847
-46.4036
-47.9013
-27.7506
-27.3305
-27.3211
-28.9053
-43.1355
-44.4783
-44.7397
-42.0663
-38.0889
-38.0722
-39.4362
-37.1598
-32.1091
-35.1579
-35.1693
-31.9954
-30.7251
-30.7143
-30.6269
-30.6369
-50.433
-48.6171
-46.6935
-53.1348
-54.6086
-54.5955
-33.7686
-76.2646
-60.4761
-60.4767
-64.1776
-57.5409
-27.7725
-27.3546
-27.3764
-28.8841
-43.1389
-44.4756
-44.7362
-42.0755
-32.1603
-35.2379
-35.245
-32.0538
-50.425
-48.6175
-46.6837
-53.1306
-69.8076
-63.8224
-65.2282
-60.5538
-69.8259
-63.8287
-65.2399
-60.5559
-57.2634
-54.5314
-54.4621
-52.177
-0.0831856
8.12956
8.03942
16.5121
194.116
185.041
200.691
194.245
-31.2344
-33.5896
-30.8093
-33.4394
-31.3088
-33.6396
-30.9035
-33.4999
-31.9467
-32.4311
-31.5724
-31.9299
-91.9799
-97.3889
-88.2337
-91.9809
-41.4007
-39.961
-40.9832
-39.646
-41.4443
-40.022
-40.9854
-39.6572
-33.2149
-32.948
-32.9534
-32.4984
-40.4932
-41.9787
-41.9833
-43.6644
-24.3392
-22.8777
-24.3624
-24.4269
-80.892
-58.984
-151.267
76.9664
-86.2647
-84.0499
-79.2322
-78.4347
-83.2656
-65.8833
-76.1061
-68.277
-47.0856
-42.5356
-48.4152
-35.9503
-44.4617
-40.1799
-39.2037
-40.0155
-41.4614
-38.1991
-40.99
-38.4942
17.1161
33.8029
-45.3213
80.1584
-7.77028
-15.9667
-27.5242
2.94417
-65.1276
-78.9772
-86.8745
-61.849
-35.7386
-35.5648
-39.826
-33.7883
-33.211
-32.3631
-33.5544
-32.2843
-42.7788
-46.6249
-48.0963
-41.4236
-85.1938
-83.445
-78.2366
-40.5689
-81.1998
-59.6415
-151.36
72.6355
-83.2668
-65.8378
-76.1054
-68.0067
-44.5734
-40.4636
-39.6007
-39.9695
-47.441
-42.6419
-48.4804
-36.0478
-41.5591
-38.3095
-41.1208
-38.6248
-8.13881
-16.1457
-27.7472
2.39751
16.6395
33.2804
-45.6184
79.2421
-65.1809
-79.0262
-86.9116
-60.5265
-33.2838
-32.4032
-33.6093
-32.3537
-35.7888
-35.6388
-39.9252
-33.8874
-42.8119
-46.6351
-48.1199
-41.464
-40.9396
-60.4742
-48.232
-48.9875
-31.8968
-28.8464
-31.0118
-31.4023
-39.4704
-41.2639
-41.644
-39.3686
-36.854
-37.4377
-38.8756
-36.2116
-25.8616
-27.6415
-31.6611
-23.7332
-27.2165
-26.9947
-27.0632
-27.5017
-28.7505
-29.9232
-30.0318
-28.1762
-29.7089
-30.4008
-29.9496
-29.9946
-58.7051
-58.6484
-55.9308
-53.4512
-49.235
-46.4383
-48.2916
-46.7772
-54.8227
-52.6036
-50.5469
-59.7226
-54.5485
-42.4902
-26.1604
-60.502
-45.0782
-45.7384
-42.9188
-52.7685
-40.7626
-38.3281
-40.8154
-38.2351
-45.4236
-47.1892
-44.8108
-47.6886
-62.7793
-60.4737
-63.5099
-57.6385
-40.894
-60.3095
-48.1616
-48.8058
-36.5983
-37.2942
-38.6311
-36.0121
-31.9011
-28.8649
-31.0232
-31.3721
-39.4766
-41.2719
-41.6402
-39.3931
-25.9066
-27.7521
-31.7084
-23.7322
-29.6149
-30.3564
-29.8754
-29.9353
-27.2235
-27.0104
-27.1099
-27.4865
-28.7323
-29.9995
-30.1118
-28.1879
-58.5148
-58.7766
-55.873
-53.7524
-54.6583
-42.4432
-26.4095
-60.3991
-49.2321
-46.4432
-48.2802
-46.767
-54.8297
-52.6058
-50.5536
-59.7189
-45.0694
-45.7926
-43.1407
-52.7293
-62.7728
-60.4765
-63.513
-57.6417
-40.8608
-38.4411
-40.9244
-38.3424
-45.434
-47.23
-44.8272
-47.6879
-127.687
-85.7066
-97.1881
-104.35
145.978
188.969
161.948
160.096
-72.3984
-63.7149
-67.7193
-67.6113
143.572
135.823
130.281
130.013
-59.6168
-61.7603
-65.1086
-57.4912
-52.315
-53.3379
-55.4833
-50.4255
-45.4717
-43.7047
-44.6844
-45.8725
-32.2207
-30.8934
-32.1169
-31.6864
-34.3512
-33.9082
-34.3436
-34.312
-28.2729
-23.3461
-25.8926
-26.0214
-37.8933
-38.8221
-37.65
-38.9979
-34.4902
-33.4132
-33.2689
-34.313
-22.6667
-14.0182
-19.377
-19.3644
72.909
204.85
156.872
156.984
-69.0706
-66.9888
-64.2737
-74.1078
-20.4976
-3.40864
-15.4383
-4.82916
-35.1192
-37.5439
-36.3046
-36.3136
-28.7884
-27.0858
-28.3434
-28.259
-41.8147
-41.5097
-44.0005
-36.9631
-43.5359
-42.382
-44.2042
-41.1129
-127.736
-85.7487
-97.2374
-104.418
144.471
189.085
160.107
164.632
-59.605
-61.7584
-65.1097
-57.4773
-51.5365
-52.8592
-54.4936
-49.7849
-45.5743
-43.7695
-45.9508
-44.7665
-32.2474
-31.1229
-32.3411
-31.9544
-37.9268
-38.8992
-37.7085
-39.0607
-34.5272
-33.3428
-33.2763
-34.3556
-69.0482
-66.9935
-74.1264
-64.2512
-20.603
-3.47023
-4.93325
-15.511
-41.9018
-41.4944
-36.9704
-43.9914
-43.5575
-42.3954
-41.1054
-44.2195
-28.7543
-30.0289
-31.8089
-27.7773
-30.6269
-31.5454
-31.6628
-30.8153
-47.4035
-54.4923
-50.7524
-51.0928
-39.2358
-36.386
-37.0249
-38.9959
-43.4361
-48.3617
-45.994
-46.0581
-35.1608
-33.611
-34.3216
-34.3004
-32.4874
-26.6846
-25.841
-29.9457
-28.2513
-33.8781
-31.2619
-28.6527
-30.6925
-31.0224
-30.7938
-30.8079
-30.765
-29.8306
-29.3887
-29.3819
-38.3974
-35.5499
-34.1654
-37.0574
-72.7671
-88.1514
-86.2721
-79.3519
-4.78391
12.2827
5.13687
5.23178
-102.194
-102.538
-105.767
-105.775
-71.945
-79.7561
-75.5261
-75.5313
-51.8647
-47.5179
-49.6386
-49.6411
-28.8163
-30.1075
-31.8662
-27.866
-30.5134
-31.4709
-31.5512
-30.7184
-47.4128
-54.4936
-51.1126
-50.7517
-39.2546
-36.4144
-37.052
-39.0155
-32.5843
-26.8569
-30.1945
-25.9694
-28.3377
-33.6733
-31.3466
-28.5986
-38.393
-35.5924
-37.0806
-34.2318
-72.7754
-88.1603
-79.3591
-86.2815
-106.571
-84.3339
-90.8085
-77.4368
-49.1624
-46.4454
-52.4838
-50.2125
-52.7632
-49.3134
-56.617
-51.1567
-142.053
-119.567
-112.376
-97.8441
-106.613
-84.3589
-90.846
-77.4561
-142.02
-119.712
-112.476
-97.9102
-52.8166
-49.3045
-56.0481
-51.2313
-49.1375
-46.439
-52.4564
-50.2007
-71.1007
-66.4183
-66.4248
-62.1316
-68.3934
-64.546
-65.3072
-60.4809
-49.2867
-43.8016
-50.0813
-46.7654
-49.5295
-44.0801
-50.4214
-47.0102
-34.6767
-38.9768
-25.8872
-26.8957
-3.785
-3.05789
4.04683
5.74143
-3.87456
-3.09214
3.959
6.118
-34.7917
-39.0892
-25.9648
-26.9732
127.819
60.6166
145.249
168.574
106.179
73.4757
138.038
124.747
73.8113
105.125
124.3
137.223
159.177
126.239
179.311
153.027
-34.2404
-36.9877
-34.4977
-35.8848
-28.4462
-30.3634
-24.9858
-27.3823
-35.6937
-37.2488
-30.8516
-32.1496
-44.1664
-44.1322
-41.5427
-40.7338
-34.267
-37.0136
-34.5414
-35.9165
-44.1658
-44.1308
-41.5528
-40.7423
-36.0469
-37.3696
-30.9599
-32.2852
-28.5182
-30.4459
-25.0811
-27.4462
-32.861
-34.4279
-32.7379
-33.8647
-34.2701
-32.6997
-33.7619
-32.6035
-29.9152
-29.5517
-30.3913
-30.1981
-29.6532
-29.9964
-30.2874
-30.4504
-83.2587
-89.048
-93.3581
-100.952
-66.5845
-69.0293
-73.5994
-73.5674
-69.0361
-66.5843
-73.5776
-73.6037
-89.0403
-83.2755
-100.979
-93.3844
-35.8496
-30.5218
-37.0968
-33.859
-44.0176
-42.6723
-43.8058
-41.4806
-50.1995
-53.4919
-47.8005
-47.9515
-38.0052
-35.8907
-33.6959
-31.7531
-35.9062
-30.6525
-36.9515
-34.4516
-37.9689
-35.9557
-33.7785
-31.8037
-50.1963
-53.6213
-47.8689
-47.9982
-44.0907
-42.7552
-43.8837
-41.5639
-26.9496
-30.1596
-29.5446
-28.7421
-26.8822
-30.1157
-29.4912
-28.6977
-37.075
-37.221
-35.4249
-35.5788
-36.9075
-37.0793
-35.3336
-35.4922
-50.4831
-52.1027
-47.8633
-49.5285
-35.884
-37.8839
-36.7615
-38.2834
-35.9182
-37.9252
-36.7853
-38.3117
-50.4933
-52.108
-47.8725
-49.5351
-33.7558
-33.5283
-31.8629
-30.7388
-33.6755
-33.8808
-30.9218
-32.0379
-31.7857
-32.7127
-31.0333
-31.5985
-32.6535
-31.6675
-31.4305
-30.891
-147.924
15.235
-93.2078
-62.1231
-108.707
-91.3437
-49.4785
-39.5796
-43.1387
-43.4074
-43.9743
-41.7326
-25.1127
59.8923
-34.5575
11.5481
-55.2852
-46.7577
-39.5273
-33.9333
-35.0146
-33.2676
-42.0226
-37.7766
-92.5513
-65.5002
-148.003
14.1965
-108.769
-91.1076
-43.5362
-43.4502
-49.5499
-39.7423
-44.0706
-41.926
-35.1107
10.6714
-25.2863
59.2358
-55.406
-47.0003
-35.0834
-33.3517
-39.6025
-34.0143
-42.0746
-37.8337
-38.6943
-37.681
-33.0324
-33.2738
-38.3145
-35.9404
-36.0635
-35.5672
-27.3557
-27.3806
-27.2877
-28.2502
-27.9478
-27.6201
-28.9035
-30.1091
-55.4986
-75.0329
-51.9252
-50.2801
-52.7313
-62.7489
-74.7352
-85.5175
-43.61
-48.644
-43.4963
-41.9905
-44.1323
-42.9694
-57.4754
-58.6872
-38.6839
-37.5981
-35.8539
-35.3964
-33.0783
-33.2255
-38.3258
-35.972
-27.3835
-27.3612
-28.8256
-29.9844
-27.3541
-28.2048
-27.9871
-27.6539
-55.4696
-74.6332
-74.6582
-85.5032
-51.926
-50.28
-52.7393
-62.751
-43.6867
-48.7194
-57.5028
-58.7055
-43.5521
-42.0704
-44.2515
-42.982
-149.031
81.7523
-97.7591
86.9704
-168.312
-164.754
110.319
111.196
-81.3282
-5.21617
-81.3878
-8.22443
-77.8646
-77.7651
56.9746
56.7285
-63.4497
-58.7949
-53.0329
-53.5785
-62.0967
-55.8301
-55.5346
-51.6899
-47.5625
-34.7852
-43.8289
-33.8186
-45.6845
-47.6452
-33.0361
-33.4374
-36.0389
-35.2927
-36.2095
-35.3762
-34.7895
-34.7332
-30.3181
-30.3214
-38.5061
-36.723
-38.4256
-35.2098
-37.471
-38.1882
-34.7688
-35.5801
-23.8562
-5.48133
-23.9726
-5.81986
-25.2463
-25.3953
28.6148
28.8132
-83.2979
-57.8774
-59.7459
-42.4064
-63.9668
-76.5049
-38.4492
-28.3177
-33.1158
-31.7388
-33.1412
-31.7292
-34.0827
-34.0919
-30.7126
-30.6733
-50.6111
-44.5976
-43.4207
-50.2725
-48.3469
-43.4671
-46.4719
-43.7724
-148.971
80.6296
-98.0676
85.5792
-168.317
-164.712
108.431
107.209
-63.4265
-58.5546
-52.9831
-53.3581
-62.0878
-55.8093
-54.9812
-51.306
-47.6815
-34.8505
-43.9298
-33.8534
-47.7557
-45.8432
-33.0817
-33.3567
-38.6071
-36.8209
-38.4244
-35.2204
-37.5033
-38.1848
-34.7656
-35.6652
-83.772
-57.9962
-59.796
-42.5174
-76.5523
-63.9355
-28.3968
-38.5326
-50.6246
-44.6262
-43.495
-50.2899
-43.5671
-48.4068
-43.7874
-46.4924
-28.5469
-29.604
-26.4889
-28.6007
-28.4848
-26.6816
-30.1338
-29.447
-43.2387
-40.5952
-46.1022
-43.9802
-45.2161
-46.1831
-39.7626
-41.5134
-39.0628
-37.0598
-39.0018
-36.9923
-41.4232
-41.4531
-36.1084
-36.0848
-32.0334
-29.7322
-37.8484
-34.9349
-34.2509
-37.2755
-28.9628
-31.7316
-30.4889
-30.5115
-30.4616
-30.487
-30.6138
-30.6263
-30.8401
-30.8277
-48.4957
-56.299
-45.3091
-50.3755
-42.4497
-43.9649
-62.0243
-57.7029
-31.4659
-73.5864
-31.3032
-73.5971
-18.0563
-18.0162
-90.8821
-90.8657
-64.2285
-57.531
-64.2353
-57.5285
-67.725
-67.7224
-54.5338
-54.5357
-28.6005
-29.5771
-26.5433
-28.5884
-28.5259
-26.7804
-30.0533
-29.4095
-43.238
-40.6071
-46.0955
-43.9845
-46.1867
-45.2163
-39.7767
-41.5202
-32.0631
-29.7108
-37.9595
-35.0198
-37.3925
-34.2927
-29.0295
-31.8009
-48.4946
-56.2946
-45.3204
-50.378
-43.9585
-42.4505
-57.7012
-62.0273
-75.1042
-77.7273
-67.6249
-59.1057
-61.9994
-71.5765
-56.7097
-57.9884
-75.129
-77.7609
-67.6361
-59.1023
-71.5999
-62.0068
-58.0021
-56.705
-60.2067
-60.1205
-56.7139
-51.7804
-56.4857
-51.6033
-49.8448
-49.9106
-8.55679
-8.90852
-5.41232
9.65362
10.9861