# vtk DataFile Version 2.0
tri_press
ASCII
DATASET UNSTRUCTURED_GRID
POINTS 3682 float
-0.735 0.155 -1.63977
-0.67905 0.195 1.895
-0.697524 0.545 -1.625
-0.755 0.755 1.79343
0.735 0.155 -1.63977
0.679051 0.195 1.895
0.697529 0.545 -1.625
0.755 0.755 1.79343
-0.76459 0.120093 -0.461513
-0.760569 0.118798 0.716743
-0.747258 0.645575 -0.485523
-0.775186 0.724345 0.653953
0.764552 0.120132 -0.461513
0.760542 0.118826 0.716743
0.747262 0.645576 -0.485523
0.77517 0.724327 0.653953
-1.49237 -0.137862 -2.5522
-1.4909 -0.111511 -1.62513
-1.51535 -0.138472 -0.445866
-1.51768 -0.1524 0.741198
-1.47235 -0.104026 1.92111
-1.45478 -0.0591118 2.85141
-1.45298 -0.0195365 3.77574
-1.48602 0.100784 -2.55876
-1.48262 0.142069 -1.63592
-1.51655 0.131501 -0.464205
-1.51871 0.130671 0.710999
-1.45685 0.18265 1.88346
-1.44171 0.226903 2.8132
-1.44416 0.265086 3.7388
-1.46937 0.543382 -2.56098
-1.45622 0.581953 -1.63654
-1.50265 0.655565 -0.491267
-1.53002 0.715547 0.651262
-1.50048 0.753413 1.79728
-1.46359 0.794483 2.72863
-1.4495 0.832004 3.66048
-1.47002 1.28325 -2.59349
-1.46795 1.33659 -1.67485
-1.48632 1.43597 -0.54215
-1.50687 1.53388 0.582195
-1.50528 1.59943 1.7153
-1.48838 1.63782 2.63478
-1.47002 1.67245 3.5624
-0.750203 -0.130339 -2.5547
-0.739205 -0.101122 -1.62878
-0.758599 -0.143145 -0.445377
-0.767019 -0.161282 0.7461
-0.730748 -0.0998271 1.92969
-0.712447 -0.0555382 2.85722
-0.709208 -0.0176689 3.77911
-0.749721 0.103492 -2.55953
-0.691742 0.231816 2.818
-0.697914 0.267566 3.74134
-0.736316 0.529121 -2.55619
-0.709693 0.797323 2.72786
-0.699019 0.834413 3.66032
-0.728047 1.27154 -2.58874
-0.721359 1.32449 -1.66963
-0.732864 1.43149 -0.539001
-0.750537 1.53737 0.581817
-0.751041 1.60384 1.71261
-0.735311 1.64113 2.63209
-0.717851 1.67497 3.56044
0.726948 -0.130333 -2.5547
0.747297 -0.101113 -1.62878
0.761281 -0.143115 -0.445377
0.741149 -0.161258 0.7461
0.692722 -0.0998192 1.92969
0.731911 -0.0555319 2.85722
0.760086 -0.0176619 3.77911
0.715278 0.103496 -2.55953
0.746418 0.23182 2.818
0.771631 0.267572 3.74134
0.705877 0.529123 -2.55619
0.773535 0.797326 2.72786
0.785935 0.834417 3.66032
0.744767 1.27154 -2.58874
0.756589 1.32449 -1.66963
0.767142 1.43149 -0.539001
0.766971 1.53737 0.581817
0.764761 1.60384 1.71261
0.773157 1.64113 2.63209
0.785194 1.67498 3.56044
1.46932 -0.137848 -2.5522
1.48905 -0.11149 -1.62513
1.51248 -0.138429 -0.445866
1.49908 -0.152363 0.741198
1.45157 -0.104005 1.92111
1.47005 -0.0590966 2.85141
1.49785 -0.0195217 3.77574
1.45761 0.100794 -2.55876
1.47686 0.142081 -1.63592
1.51365 0.131541 -0.464205
1.51466 0.130704 0.710999
1.45803 0.182666 1.88346
1.48041 0.226915 2.8132
1.50799 0.265099 3.7388
1.44596 0.543389 -2.56098
1.4534 0.581958 -1.63654
1.50306 0.655576 -0.491267
1.53067 0.715547 0.651262
1.50789 0.753419 1.79728
1.513 0.794491 2.72863
1.52682 0.832014 3.66048
1.4838 1.28326 -2.59349
1.49686 1.3366 -1.67485
1.5156 1.43598 -0.54215
1.5239 1.53388 0.582195
1.52296 1.59944 1.7153
1.52751 1.63783 2.63478
1.53628 1.67246 3.5624
-0.750545 0.35 -1.66667
0 0.106813 -1.68796
-0.78232 0.105022 -1.05064
-0.740617 0.475 1.86781
4.76837e-07 0.200095 1.8899
-0.725026 0.151682 1.30587
2.5034e-06 0.598464 -1.67846
-0.80538 0.678277 -1.05526
0 0.718167 1.7566
-0.798101 0.77268 1.22369
0.75059 0.35 -1.66671
0.782322 0.10502 -1.05064
0.740659 0.475 1.86785
0.725016 0.151693 1.30587
0.805404 0.678296 -1.05526
0.79812 0.772698 1.22369
-0.749578 0.132447 0.127615
-0.818119 0.382834 -0.473518
-1.93234e-05 0.106413 -0.461513
-0.866752 0.421571 0.685348
-1.36116e-05 0.100208 0.716743
-0.735876 0.659614 0.084215
2.12859e-06 0.968337 -0.485523
-8.07433e-06 0.897356 0.653953
0.749547 0.132479 0.127615
0.81812 0.382854 -0.473518
0.866752 0.421576 0.685348
0.735879 0.659615 0.084215
-0.850402 0.366417 -1.05295
0.850402 0.366427 -1.05295
-9.66172e-06 0.0922974 -1.05064
2.31599e-06 0.734482 -1.05526
1.2517e-06 0.35 -1.92612
-0.829996 0.402203 0.105915
0.829997 0.402215 0.105915
-1.64675e-05 0.0999377 0.127615
-2.97287e-06 1.02799 0.084215
-0.894675 0.448286 1.26478
0.894676 0.448288 1.26478
-6.5674e-06 0.100108 1.30587
-4.03716e-06 0.827957 1.22369
2.38419e-07 0.475 2.01211
-0.753624 0.2525 -1.66407
-0.3675 0.13772 -1.65705
-0.784769 0.103902 -1.34521
-0.718766 0.335 1.89034
-0.339525 0.257174 1.83283
-0.715863 0.159517 1.60044
-0.73643 0.4475 -1.65823
-0.348761 0.562364 -1.64236
-0.792044 0.65223 -1.34013
-0.752741 0.615 1.83555
-0.3775 0.69678 1.73521
-0.783488 0.770777 1.50856
0.3675 0.137685 -1.65709
0.753598 0.2525 -1.66404
0.784754 0.103917 -1.34521
0.339526 0.257093 1.83291
0.718774 0.335 1.89034
0.715859 0.159521 1.60044
0.348766 0.560569 -1.64057
0.736405 0.4475 -1.6582
0.791877 0.652059 -1.34013
0.3775 0.697788 1.73622
0.752634 0.615 1.83544
0.783542 0.770832 1.50856
-0.771344 0.114668 -0.756078
-0.765434 0.11792 -0.166949
-0.815881 0.2392 -0.467516
-0.384199 0.109465 -0.461513
-0.754752 0.123286 1.01131
-0.763919 0.116776 0.422179
-0.864977 0.244526 0.701046
-0.383151 0.103783 0.716743
-0.773071 0.658678 -0.770393
-0.798799 0.52226 -0.479521
-0.738566 0.649594 -0.200654
-0.422186 0.904072 -0.485523
-0.787967 0.749836 0.938823
-0.840088 0.582517 0.669651
-0.728469 0.664917 0.369084
-0.414333 0.864322 0.653953
0.771347 0.114666 -0.756078
0.384168 0.109469 -0.461513
0.76543 0.117925 -0.166949
0.815834 0.239244 -0.467516
0.754758 0.12328 1.01131
0.383133 0.103778 0.716743
0.763855 0.116841 0.422179
0.864977 0.244536 0.701046
0.773027 0.658631 -0.770393
0.422383 0.904458 -0.485523
0.798846 0.522293 -0.479521
0.738584 0.649609 -0.200654
0.788052 0.74992 0.938823
0.41432 0.864319 0.653953
0.840096 0.582519 0.669651
0.728686 0.665132 0.369084
-0.847607 0.358209 -1.35981
-0.375272 0.35 -1.87206
-4.83086e-06 0.0921496 -1.3693
6.25849e-07 0.228406 -1.95056
-0.841573 0.235719 -1.0518
-0.391165 0.0980336 -1.05064
-0.89198 0.461643 1.56629
-0.370308 0.475 1.98646
-3.04528e-06 0.134508 1.59789
3.57628e-07 0.337548 2.00725
-0.885321 0.299984 1.28533
-0.362516 0.10152 1.30587
2.40969e-06 0.705273 -1.36686
1.87755e-06 0.474232 -1.94008
-0.849828 0.522347 -1.05411
-0.402689 0.68562 -1.05526
-2.01858e-06 0.772982 1.49014
1.19209e-07 0.596584 1.97241
-0.895441 0.610483 1.24424
-0.399052 0.753285 1.22369
0.847605 0.358214 -1.35983
0.375296 0.35 -1.87196
0.841571 0.235723 -1.0518
0.391156 0.098044 -1.05064
0.891981 0.461644 1.56632
0.37033 0.475 1.98647
0.885316 0.299991 1.28533
0.362505 0.10152 1.30587
0.849827 0.522362 -1.05411
0.402703 0.688146 -1.05526
0.89544 0.610493 1.24424
0.399058 0.753283 1.22369
-0.798427 0.263005 0.116765
-0.380876 0.104034 0.127615
-0.850896 0.374626 -0.763235
-0.818306 0.392518 -0.183802
-1.44926e-05 0.105615 -0.756078
-1.78955e-05 0.106439 -0.166949
-0.846534 0.411887 0.395632
-0.88596 0.434928 0.975065
-1.50396e-05 0.100688 0.422179
-1.00895e-05 0.100382 1.01131
-0.805485 0.542183 0.095065
-0.434868 0.977659 0.084215
2.22229e-06 0.862919 -0.770393
-4.22136e-07 1.02874 -0.200654
-5.5236e-06 0.976705 0.369084
-6.05574e-06 0.805294 0.938823
0.798439 0.263014 0.116765
0.38085 0.104039 0.127615
0.850896 0.374641 -0.763235
0.818305 0.392535 -0.183802
0.846536 0.411896 0.395632
0.88596 0.434932 0.975065
0.805487 0.542189 0.095065
0.43487 0.977666 0.084215
-0.837593 0.24411 -1.35251
-0.84583 0.243591 -0.759656
-0.797449 0.518276 -0.766814
-0.846578 0.484923 -1.34997
0.837579 0.244112 -1.35252
0.846578 0.484931 -1.34998
0.796936 0.518288 -0.766814
0.845832 0.243608 -0.759656
-0.379332 0.0986017 -1.35725
0.379328 0.0986042 -1.35725
0.386711 0.109549 -0.756078
-0.386735 0.109541 -0.756078
-0.375725 0.65273 -1.3535
-0.388158 0.792983 -0.770393
0.388168 0.794483 -0.770393
0.375734 0.652741 -1.3535
-0.371386 0.240453 -1.85773
-0.362016 0.460866 -1.83667
0.362031 0.460866 -1.83406
0.371398 0.240453 -1.85741
-0.816675 0.246342 -0.175375
-0.821099 0.259067 0.408905
-0.820124 0.561019 0.382358
-0.795982 0.529141 -0.192228
0.816681 0.246356 -0.175375
0.795994 0.529155 -0.192228
0.820126 0.561021 0.382358
0.820883 0.259187 0.408905
-0.381299 0.109227 -0.166949
0.381267 0.109238 -0.166949
0.381767 0.104357 0.422179
-0.381789 0.104358 0.422179
-0.443395 0.970601 -0.200654
-0.431788 0.935365 0.369084
0.431782 0.935367 0.369084
0.443211 0.970231 -0.200654
-0.887736 0.285084 0.993186
-0.882003 0.317492 1.58337
-0.891993 0.612741 1.53743
-0.862483 0.59172 0.956944
0.887735 0.285096 0.993186
0.862506 0.591722 0.956944
0.891945 0.612747 1.53744
0.882059 0.317495 1.58338
-0.371404 0.101978 1.01131
0.371384 0.101969 1.01131
0.351015 0.159038 1.59916
-0.351021 0.158978 1.59916
-0.393325 0.770453 0.938823
-0.388276 0.724203 1.49935
0.388279 0.72417 1.49935
0.393319 0.771414 0.938823
-0.354917 0.336274 1.94164
0.354928 0.336274 1.94156
0.373915 0.605792 1.91935
-0.373904 0.605792 1.91925
-0.748583 0.20375 -1.65619
-0.55125 0.112591 -1.68218
-0.771378 0.117957 -1.49249
-0.693179 0.265 1.88694
-0.509287 0.270759 1.81924
-0.694969 0.179745 1.74772
-0.719233 0.49625 -1.64387
-0.523142 0.555166 -1.63517
-0.750744 0.604576 -1.48257
-0.734036 0.685 1.79466
-0.56625 0.742177 1.78061
-0.766509 0.760154 1.651
0.55125 0.112644 -1.68213
0.748576 0.20375 -1.65618
0.771366 0.117969 -1.49249
0.509288 0.270697 1.8193
0.693181 0.265 1.88694
0.695068 0.179648 1.74772
0.523147 0.555191 -1.63519
0.719239 0.49625 -1.64387
0.750753 0.604579 -1.48257
0.56625 0.742135 1.78056
0.734044 0.685 1.79466
0.76656 0.760205 1.651
-0.760151 0.125197 -0.608796
-0.762192 0.121827 -0.314231
-0.803438 0.173046 -0.464515
-0.57528 0.113009 -0.461513
-0.757572 0.12113 0.864025
-0.760875 0.119157 0.569461
-0.850028 0.163035 0.708895
-0.572844 0.109322 0.716743
-0.757264 0.649226 -0.627958
-0.77942 0.587113 -0.482522
-0.741319 0.645992 -0.343089
-0.578173 0.761725 -0.485523
-0.780924 0.736438 0.796388
-0.816371 0.657798 0.661802
-0.728129 0.670933 0.511519
-0.591663 0.78814 0.653953
0.760144 0.125204 -0.608796
0.575256 0.113008 -0.461513
0.762181 0.121838 -0.314231
0.803484 0.173042 -0.464515
0.757574 0.121129 0.864025
0.572835 0.109307 0.716743
[...]
POINT_DATA 3682
SCALARS point_scalars float 1
LOOKUP_TABLE default
-63.9076
-31.864
16.3704
-40.8102
-65.2524
-31.8656
16.3685
-40.8702
-31.6347
-36.6321
-42.3712
-29.4033
-31.619
-36.6165
-42.2212
-29.4028
-23.7724
-78.9686
-32.9988
-32.4695
-46.8005
-32.8061
-32.5774
65.9786
-91.8461
-32.4157
-30.0057
-47.5054
-32.8521
-30.9681
111.132
-88.0359
-36.7201
-24.793
-50.4486
-33.8739
-30.4987
43.3559
-60.348
-44.1811
-31.4181
-44.2092
-41.3408
-34.7882
91.3558
-113.018
-31.0969
-35.9617
-35.4428
-31.864
-25.9036
164.056
-27.8032
-25.9036
164.056
-28.2005
-26.6515
94.5838
-39.6338
-65.3778
-50.6192
-36.6289
-36.6473
-32.216
90.8024
-107.296
-31.1003
-35.6976
-34.1422
-31.8656
-25.9821
163.65
-28.2153
-25.9821
161.406
-30.0151
-27.0989
95.3176
-39.9359
-64.7167
-50.6996
-36.6763
-36.6776
-33.0708
-25.0078
-79.3035
-32.9772
-32.4415
-46.8941
-33.4711
-32.5713
65.4838
-92.0343
-32.3953
-29.986
-47.5389
-33.8374
-30.96
112.403
-88.1793
-36.6418
-24.7841
-50.5143
-33.8905
-30.4606
43.5494
-60.7881
-45.4149
-31.2553
-44.3385
-41.4063
-34.8948
-11.3103
-78.9313
-50.231
-31.3072
-30.2672
-37.727
8.70011
-64.4771
-28.8539
-42.9738
-9.50731
-50.2327
-31.3083
-37.6578
-64.7725
-42.9701
-21.793
-33.3548
-31.6033
-25.1919
-32.3134
-40.0421
-52.9327
-45.2183
-21.7854
-33.3184
-25.2011
-39.9308
-56.5021
-56.5459
-49.3144
1.28979
200.109
-23.2113
-23.2318
-29.3698
-76.3883
-40.3776
-40.3712
-39.7762
-36.0698
-22.0791
-7.77692
-98.1287
-82.6847
-30.5773
-30.8738
-39.3838
6.22562
-10.4627
-62.3707
-33.7928
-30.702
-43.9871
-98.4584
-3.95165
-82.641
-30.8978
-30.5694
-39.2651
-9.53265
6.41751
-62.5472
-30.7418
-33.8024
-44.0398
-42.3046
-29.3038
-31.929
-31.8808
-41.7618
-18.1942
-29.0188
-32.2428
-47.1933
-35.6379
-40.8072
-49.8352
-34.1181
-24.2598
-35.1322
-45.6664
-42.2995
-31.863
-29.3155
-31.9003
-41.7915
-32.2548
-18.1695
-29.0063
-47.0249
-50.5396
-35.554
-40.4092
-34.1542
-45.6738
-24.2658
-35.0186
-94.3915
158.857
-61.6122
198.978
-53.6626
-50.9801
-46.3152
-26.6724
-38.9272
-23.5628
-38.5498
-39.4351
-43.3869
57.7881
-59.4991
-31.3165
-32.4063
-25.8698
-41.225
-37.2455
-94.3819
159.059
-53.6832
-50.9555
-46.3601
-26.6889
-38.5341
-39.4246
-59.5757
-31.4728
-41.2023
-37.2658
-22.092
-28.5301
-48.4855
-27.419
-40.6536
-28.3432
-20.9345
-31.3063
-30.0302
-35.3118
-27.7846
-63.2293
-8.40765
-87.0939
-56.5672
-38.9397
-22.1253
-28.5183
-48.4866
-27.4185
-20.9517
-31.3013
-27.827
-63.2103
-87.297
-48.1892
-45.3668
-97.9416
-87.277
-97.9271
-45.4327
-48.1874
-73.6238
-73.5328
-40.9828
-40.9996
-38.8024
-23.5737
-23.2849
-39.1
104.756
55.8766
52.7781
104.277
-27.1825
-11.3515
-23.0087
-31.0256
-27.1921
-30.9766
-23.0595
-11.3432
-28.342
-28.3252
-29.168
-29.1694
-75.5836
-51.7089
-51.662
-75.1006
-35.217
-43.2925
-50.4658
-27.986
-35.2037
-27.9444
-50.5232
-43.3183
-35.618
-35.6433
-39.0125
-38.9735
-41.0959
-33.9819
-34.0277
-41.1079
-28.6876
-28.7041
-27.7677
-27.7335
-11.7196
-113.053
-81.3115
-31.7681
-31.6921
-39.0302
16.9913
19.3285
-30.7922
-37.2562
-32.6129
-39.5678
-114.596
-12.729
-81.2478
-31.7151
-31.759
-39.3707
21.1395
17.0445
-30.88
-32.6924
-37.2856
-39.6008
-33.8106
-28.3937
-32.6349
-31.2026
-37.8928
-26.5333
-33.8211
-32.8985
-43.9819
-38.2678
-41.1428
-55.6894
-32.8601
-25.4517
-28.8794
-48.1923
-33.7945
-31.187
-28.3731
-32.6102
-37.9051
-33.028
-26.4165
-33.7196
-44.0487
-55.4273
-38.1461
-40.8993
-32.9347
-48.1721
-25.4724
-28.9026
-7.57737
-11.3865
-78.0827
129.359
-86.4318
-87.1894
-69.9702
23.9579
-61.6299
-45.8266
-52.2648
-50.5777
-30.6111
-31.959
-45.327
-28.2506
-30.5628
-30.6036
-33.1368
-25.5707
-37.7654
-35.8414
-37.0588
-38.8203
10.4122
11.4946
-20.0039
35.2993
-78.2042
-54.8425
-63.2474
-52.6059
-29.348
-29.3708
-30.7184
-26.2568
-46.0305
-36.8027
-39.0784
-40.4957
-4.20659
-11.3383
-78.337
127.746
-61.6241
-45.8284
-52.2824
-50.5677
-30.6028
-32.0114
-45.3538
-28.2491
-37.8016
-35.6752
-37.0435
-38.5218
-78.3317
-54.9603
-63.3821
-53.5098
-45.9704
-36.7701
-39.1716
-40.5145
-24.7257
-20.4661
-22.2913
-26.7123
-32.6229
-34.2206
-37.4531
-29.559
-31.8689
-31.8509
-34.2699
-29.705
-26.6601
-24.4393
-22.6724
-27.6297
-32.332
-32.3279
-30.9799
-33.6986
-40.8068
-38.0086
-33.5899
-49.1769
-48.6853
-48.8659
-28.5461
-75.5548
-45.3593
-45.3516
-50.103
-41.701
-24.7181
-20.4564
-22.2849
-26.6992
-32.5937
-34.1685
-37.4584
-29.5197
-26.6537
-24.422
-22.6507
-27.5913
-40.6277
-37.9232
-33.557
-49.1175
-69.1603
-55.3129
-57.9259
-50.574
-69.2031
-55.3455
-57.9814
-50.6056
-55.9729
-50.4001
-50.3699
-45.3724
-14.7196
-8.12843
-8.2164
4.05892
185.046
201.647
182.924
185.097
-21.9315
-25.0542
-21.3692
-24.8402
-21.9434
-25.0846
-21.3803
-24.8839
-29.2115
-28.1688
-29.6753
-29.2047
-74.4178
-85.6127
-65.2613
-74.3771
-42.3244
-39.5828
-41.3309
-38.5712
-42.3348
-39.5732
-41.3223
-38.5605
-44.758
-39.7639
-39.7688
-37.3561
-34.2222
-36.1829
-36.1995
-37.0855
-23.6461
-22.2251
-24.4574
-23.705
-82.6244
89.8133
-79.9685
-56.6569
-87.7688
-73.5115
-45.5991
-29.9054
-34.1258
-29.4453
-41.4401
-40.4622
-57.7667
82.9748
-1.20545
28.5137
-87.8659
-49.0609
-44.1737
-28.6502
-32.4129
-28.1368
-49.8846
-36.6415
-80.3066
-56.1102
-83.065
90.2134
-87.7057
-73.4522
-34.155
-29.467
-45.6158
-29.9157
-41.4564
-40.4878
-1.07639
30.9441
-57.9935
83.7574
-88.0073
-49.1448
-32.4477
-28.2003
-44.2242
-28.6437
-49.9367
-36.6952
-46.2014
-41.0648
-28.4838
-27.6697
-34.4965
-28.1935
-34.7335
-29.8565
-40.7743
-37.3275
-14.1858
-27.4246
-23.5853
-31.1691
-30.5279
-34.1387
-46.5887
-42.4538
-39.5025
-32.494
-34.7769
-53.5794
-29.7112
-71.1565
-28.8066
-43.3869
-22.2991
-26.1475
-28.856
-44.5145
-47.5983
-43.76
-46.1816
-41.0534
-34.7144
-29.839
-28.491
-27.6591
-34.4703
-28.1657
-40.7776
-37.5433
-30.5452
-34.1349
-14.1724
-27.394
-23.6653
-31.1621
-46.7964
-42.201
-29.2877
-70.756
-39.4551
-32.3875
-34.5169
-53.3628
-28.8048
-43.4036
-47.6121
-43.7705
-22.3646
-26.1268
-28.8052
-44.531
-89.7068
-96.6919
150.681
133.939
-66.4111
-66.316
105.363
104.281
-64.8468
-48.4512
-60.0706
-46.0646
-44.9202
-47.7576
-26.6917
-27.3695
-38.6745
-38.6441
-27.3791
-27.3901
-38.5817
-40.2965
-37.2725
-44.5291
-38.2001
-37.8247
54.1133
52.8199
-53.5328
-73.9404
-43.0807
-27.0957
-32.6605
-32.6833
-25.5762
-25.5711
-45.3647
-31.9897
-39.1659
-35.6655
-89.7066
-96.7048
133.195
150.734
-64.8678
-48.4742
-60.0244
-46.048
-47.7881
-44.9537
-26.705
-27.3477
-38.5691
-40.3003
-37.2441
-44.5385
-73.9935
-53.6062
-29.8094
-42.8324
-31.9853
-45.3768
-35.6934
-39.1772
-24.5916
-18.8772
-27.8561
-28.8064
-48.8803
-46.6908
-26.4607
-28.9341
-40.8824
-40.892
-28.4871
-28.4712
-17.7313
-21.978
-33.6639
-28.3918
-29.9019
-29.9045
-35.3873
-35.408
-26.3757
-29.255
-67.0497
-56.9385
-9.56145
-9.99749
-85.9586
-85.8297
-55.6058
-55.6328
-39.5562
-39.5304
-24.5838
-18.8667
-27.8405
-28.7955
-46.7192
-48.8814
-26.4672
-28.9105
-21.9961
-17.7521
-33.6528
-28.3498
-29.2984
-26.409
-56.901
-66.9513
-77.5366
-62.8938
-66.6886
-81.6761
-34.3855
-35.7124
-49.5889
-47.5471
-41.1354
-55.4641
-51.7878
-39.2925
-48.4874
-68.1809
-71.0873
-78.4264
-77.7388
-82.1424
-66.7223
-62.9075
-48.6695
-78.4134
-71.1351
-68.477
-41.1593
-39.2689
-51.8307
-55.5274
-34.3659
-47.5667
-49.6141
-35.7001
-88.2142
-76.0075
-58.1997
-59.8224
-88.0489
-59.7999
-58.1507
-75.8462
-34.1569
-34.6006
-45.8328
-45.8613
-34.1719
-45.8683
-45.8481
-34.6218
-26.5101
-58.1097
-26.2745
-18.3514
-49.9664
-25.4709
-3.14265
-45.0598
-49.6501
-46.0587
-4.02958
-26.1886
-26.4026
-18.7273
-25.9606
-58.3148
30.2111
117.096
172.402
-98.2607
49.7341
32.255
165.801
128.148
51.2741
128.398
164.964
32.4875
31.4213
-96.0736
171.9
117.416
-29.4801
-24.7785
-24.1721
-28.6551
-15.7835
-23.8541
-19.849
-18.9684
-21.1096
-32.2058
-23.2712
-22.5241
-35.8963
-30.8128
-26.7939
-33.5564
-29.4444
-28.6318
-24.1876
-24.7639
-35.7518
-33.5265
-26.8417
-30.7528
-21.2383
-22.5341
-23.3072
-32.1764
-16.6597
-18.9631
-19.8409
-23.8734
-29.2212
-29.918
-28.1999
-26.4335
-29.2078
-26.4227
-28.1866
-29.9018
-30.0021
-30.9332
-29.4862
-27.1043
-29.9363
-27.1249
-29.4916
-30.9258
-54.2794
-51.7205
-83.5166
-74.5317
-42.1088
-50.0457
-63.6406
-47.2852
-42.1034
-47.2241
-63.6645
-50.0341
-54.1559
-74.1658
-83.399
-51.6307
-34.5145
-37.4307
-38.7048
-29.2492
-46.4751
-45.4831
-41.2296
-38.0538
-44.5386
-48.7738
-43.4923
-45.2596
-26.7359
-26.6501
-37.474
-31.2842
-34.5911
-29.2369
-38.6887
-37.3882
-26.7766
-31.2735
-37.4649
-26.6161
-44.5871
-45.3098
-43.5054
-48.7533
-46.4869
-38.0528
-41.2376
-45.5081
-35.1113
-33.7833
-37.3627
-36.4567
-35.1
-36.2728
-37.3627
-33.7757
-34.5314
-33.5522
-44.8979
-41.9257
-34.5062
-41.722
-44.8529
-33.5205
-45.5085
-41.4691
-37.7099
-41.796
-34.3364
-31.1323
-34.5177
-38.7244
-34.3864
-38.7556
-34.5369
-31.1543
-45.4903
-41.8268
-37.6551
-41.5014
-31.4251
-29.0466
-23.7743
-28.472
-31.4556
-28.4677
-23.8077
-29.0784
-29.7082
-26.3067
-26.0951
-28.6373
-29.6761
-28.6312
-26.12
-26.4291
-35.7437
-79.7279
-99.8048
-31.864
-31.4936
-34.2516
17.4349
29.7689
-14.5312
-39.3207
-36.1058
-38.3949
-86.1004
-36.8011
-99.2427
-31.6594
-31.8656
-34.2047
30.5606
17.4317
-14.3959
-36.1406
-39.3698
-38.4317
-31.5954
-29.8632
-32.3436
-31.0217
-36.7015
-37.7189
-37.478
-34.5512
-43.1456
-40.3706
-41.6157
-48.6875
-32.2592
-27.0311
-25.2525
-35.1915
-31.5773
-31.0047
-29.8368
-32.3234
-36.689
-34.5414
-37.7098
-37.4389
-43.0229
-48.5028
-40.242
-41.4865
-32.2897
-35.2493
-27.1193
-25.2916
-11.4767
-11.9463
-54.2257
89.5662
-81.5361
-81.6609
-77.1708
-73.1372
-55.4132
-46.9237
-51.5143
-50.5488
-30.8232
-31.698
-37.9031
-28.984
-30.1272
-30.0892
-31.9503
-27.0832
-36.9484
-36.3784
-36.5969
-38.7745
10.6057
10.5923
-5.8007
21.4933
-70.3554
-59.2932
-64.5419
-59.7649
-29.1784
-29.2003
-29.8159
-26.9005
-44.5044
-39.4167
-41.9516
-42.2287
-7.94907
-11.5839
-55.2834
90.4252
-55.4129
-46.9287
-51.5292
-50.5435
-30.8174
-31.7037
-37.9164
-28.9801
-36.9647
-36.2357
-36.5644
-38.7562
-70.6403
-59.5639
-64.7365
-60.3923
-44.474
-39.4543
-41.9181
-42.3154
-23.2017
-21.2924
-21.8797
-24.3117
-32.9095
-33.742
-35.8863
-31.2234
-31.7285
-31.7178
-32.7417
-30.5893
-25.8259
-24.7729
-23.9371
-26.4291
-32.3224
-32.3212
-31.6656
-33.0598
-40.566
-39.0051
-36.8678
-45.582
-52.4464
-52.468
-40.9539
-66.1451
-45.3563
-45.3579
-47.6969
-43.2764
-23.1936
-21.2817
-21.8753
-24.2983
-32.8772
-33.6993
-35.8619
-31.1833
-25.8221
-24.7598
-23.9479
-26.4062
-40.4329
-38.9137
-36.7853
-45.4499
-61.6499
-55.9105
-57.1999
-53.0084
-61.6927
-55.9492
-57.2486
-53.0467
-52.6135
-49.6395
-49.62
-47.244
-9.70813
-0.657033
-2.1098
4.22016
199.641
198.489
203.517
199.834
-22.6465
-24.1648
-22.2853
-23.9113
-22.6597
-24.1927
-22.3017
-23.9425
-29.3064
-29.2773
-29.4242
-29.3031
-76.0912
-81.4276
-70.816
-76.0661
-41.2526
-39.9696
-40.8654
-39.6876
-41.2528
-39.9611
-40.8572
-39.6882
-41.2313
-39.7842
-39.7881
-38.4335
-35.1176
-36.0352
-36.0581
-35.6688
-22.7917
-22.067
-22.8398
-22.7921
-6.28122
-8.22066
-75.5388
60.5401
-114.067
-90.1481
-94.1506
-80.9732
-82.3523
-70.7482
-87.8903
-73.9435
-31.0094
-30.5221
-37.8964
-29.6549
-31.1685
-30.5481
-32.3158
-30.1611
-40.7628
-38.3202
-40.3721
-38.7869
14.3583
-3.43616
-39.283
69.4998
4.11761
1.99052
2.35317
8.40249
-45.979
-76.183
-72.6214
-58.6532
-35.0711
-32.4145
-38.9059
-29.805
-31.3159
-29.8852
-31.4929
-28.2403
-41.8325
-46.3339
-47.094
-39.6681
-113.973
-90.618
-94.3037
-80.9727
-4.78964
-4.3902
-76.9346
62.3818
-82.3049
-70.7363
-87.8346
-73.8826
-31.1879
-30.5607
-32.3388
-30.1864
-31.001
-30.511
-37.8982
-29.6483
-40.8683
-38.3212
-40.3718
-38.7748
3.71163
2.75971
2.42016
10.0353
14.4548
-3.27592
-39.3164
69.4693
-46.2708
-76.1314
-72.9683
-58.7111
-31.3805
-29.906
-31.5305
-28.4774
-35.094
-32.4109
-38.937
-29.8137
-41.8834
-46.3401
-47.1217
-39.7243
-37.4981
-47.5202
-45.536
-41.2444
-28.3849
-27.5901
-29.9351
-27.5223
-32.2551
-32.2059
-34.1038
-29.7196
-31.6175
-32.008
-33.0778
-30.794
-38.7781
-39.3885
-44.2438
-39.1576
-15.3822
-19.0455
-14.8181
-25.6782
-30.7721
-27.6914
-28.1032
-29.8653
-32.307
-32.3291
-31.5276
-33.1799
-45.6993
-49.4681
-47.423
-46.9119
-36.7118
-34.8077
-37.3256
-33.8235
-41.273
-40.4894
-37.0859
-47.4819
-62.7802
-43.8033
-36.899
-54.5297
-33.6766
-35.6262
-30.2021
-41.4274
-24.4608
-24.2597
-23.1818
-25.2362
-32.2996
-36.8134
-33.5161
-41.2912
-46.4686
-46.1125
-46.7287
-45.0687
-37.4564
-47.5537
-45.5006
-41.238
-31.6009
-31.9893
-33.0581
-30.7768
-28.3788
-27.593
-29.954
-27.5169
-32.2294
-32.1768
-34.0848
-29.6874
-38.7966
-39.2839
-44.239
-39.4801
-32.3372
-32.3264
-31.546
-33.1785
-15.3871
-19.0308
-14.8192
-25.6135
-30.7448
-27.6853
-28.1131
-29.8554
-45.6708
-49.3781
-47.3416
-46.6712
-62.3317
-44.4052
-38.1852
-54.1909
-36.6076
-34.7446
-37.2688
-33.7347
-40.7674
-40.6138
-36.8466
-47.3957
-33.6606
-35.63
-30.2211
-41.4822
-46.4655
-46.1143
-46.7369
-45.0758
-24.4879
-24.2486
-23.2263
-25.224
-32.2947
-36.7018
-33.3738
-41.287
-97.2782
-80.5107
-91.7219
-96.4404
144.805
170.78
155.595
165.404
-62.5792
-60.0261
-62.9071
-62.8503
142.061
204.827
158.57
174.96
-53.0145
-54.549
-58.3007
-50.5
-50.687
-51.0087
-55.2583
-48.4038
-47.5776
-43.8131
-45.5386
-46.6958
-27.5661
-24.9302
-26.4572
-26.9169
-35.5982
-41.8993
-38.6538
-38.6338
-24.0599
-22.9193
-24.485
-24.4814
-37.7972
-39.1292
-38.2274
-39.3051
-38.9876
-39.6665
-38.1838
-40.9455
-29.6908
-28.0712
-46.5815
-46.0289
52.0617
109.029
61.1687
60.9586
-60.9957
-58.6723
-55.5969
-65.303
-41.409
-18.5926
-39.9356
-25.8271
-31.5858
-33.2735
-32.4664
-32.4809
-26.2712
-25.7804
-25.8116
-25.8573
-40.2824
-41.7463
-43.7064
-38.1932
-38.5128
-36.5314
-38.1765
-36.4267
-97.3766
-80.5392
-91.7188
-96.4398
144.061
170.769
164.789
155.716
-53.0331
-54.5741
-58.3224
-50.5221
-50.6692
-50.9779
-55.2269
-48.3845
-47.6501
-43.8362
-46.7396
-45.5784
-27.5699
-24.9735
-26.4698
-26.9392
-37.7787
-39.1164
-38.2187
-39.3023
-38.9397
-39.6685
-38.1448
-40.9804
-61.096
-58.7357
-65.3809
-55.6562
-42.1572
-18.2074
-26.6109
-39.469
-40.2326
-41.7368
-38.1689
-43.6983
-38.5337
-36.5494
-36.4498
-38.1904
-22.2666
-21.7697
-24.3616
-21.0234
-27.7533
-28.9286
-28.4201
-28.5952
-41.7183
-48.7155
-48.6528
-47.7037
-28.4615
-26.2372
-26.8755
-28.2076
-35.7877
-44.6067
-40.4744
-40.4801
-29.0812
-27.4383
-28.4018
-28.3921
-21.6904
-20.7192
-20.1358
-21.5124
-29.6941
-35.2104
-32.6743
-29.7714
-30.444
-29.7297
-30.0146
-30.0162
-34.5368
-36.243
-35.3418
-35.3451
-30.2322
-26.2518
-27.0733
-28.605
-53.4967
-70.8076
-64.1678
-59.786
-17.7658
0.0608773
-8.45787
-8.58078
-84.1966
-87.753
-87.0644
-86.9829
-53.1061
-60.9418
-56.4547
-56.4471
-40.2158
-37.7319
-38.9995
-39.0046
-22.241
-21.7759
-24.344
-21.0484
-27.7404
-28.9189
-28.4071
-28.5828
-41.7151
-48.7364
-47.7125
-48.6605
-28.4321
-26.2587
-26.8785
-28.1974
-21.6937
-20.7414
-21.5492
-20.1533
-29.6843
-35.1774
-32.6609
-29.7514
-30.2441
-26.296
-28.646
-27.111
-53.4394
-70.7591
-59.7387
-64.0973
-93.5424
-87.5235
-87.8753
-73.9403
-47.4848
-41.1505
-46.9623
-48.5636
-46.2325
-40.9125
-53.1685
-45.7323
-91.788
-95.3086
-96.6611
-86.4018
-93.6137
-87.4737
-87.8722
-73.959
-91.8575
-95.3381
-96.658
-86.432
-46.3243
-40.9778
-53.2328
-45.8406
-47.4826
-41.1338
-46.9793
-48.5626
-75.4813
-73.7896
-69.5028
-66.5855
-75.4687
-73.7089
-69.4157
-66.5189
-40.7306
-36.4418
-44.6957
-40.6907
-40.7457
-36.4615
-44.7111
-40.7074
-27.6944
-41.4511
-36.8604
-43.1936
-35.0576
-24.7334
-25.2097
-14.2755
-34.7353
-24.726
-28.4802
-14.5025
-28.4448
-41.8773
-36.7986
-43.1605
122.404
69.0649
142.59
164.372
62.1697
42.0965
84.2104
54.9196
41.6675
60.3734
52.5992
82.892
68.6616
121.804
167.401
142.469
-28.0396
-27.5776
-25.8655
-26.6537
-13.4061
-14.3719
-15.2594
-14.1047
-22.2033
-25.3611
-22.4274
-24.7987
-31.7771
-32.685
-29.839
-30.0704
-28.0426
-27.5177
-25.9294
-26.6617
-31.6648
-32.5394
-29.7944
-30.096
-22.2665
-25.3954
-22.4556
-24.8299
-13.3844
-14.4042
-15.2621
-14.1329
-28.0235
-29.1384
-27.5897
-28.5187
-29.1212
-28.0098
-28.5006
-27.5729
-29.8223
-28.3588
-29.6725
-28.7634
-28.3674
-29.8128
-28.7716
-29.6738
-62.6547
-78.723
-71.3858
-81.2028
-46.8459
-49.347
-54.5195
-53.1702
-49.3814
-46.9091
-52.7332
-54.4898
-78.6315
-62.3293
-80.9286
-71.033
-37.1038
-32.2255
-39.2051
-34.7512
-46.4297
-43.0463
-43.9611
-41.5578
-50.5102
-51.6814
-48.5645
-47.6663
-28.0945
-27.1725
-28.5159
-27.884
-37.0973
-32.2155
-39.1778
-34.7326
-28.0604
-27.1339
-28.4808
-27.8393
-50.6006
-51.748
-48.6005
-47.7123
-46.4754
-43.0715
-43.9906
-41.5669
-35.9658
-34.9436
-36.3784
-35.4627
-35.9869
-34.9616
-36.3659
-35.5114
-36.286
-39.6633
-38.761
-42.999
-36.2545
-39.6325
-38.7231
-42.9596
-42.0652
-42.6865
-39.9436
-40.4548
-33.1548
-34.6947
-33.1077
-34.8347
-33.2143
-34.7346
-33.1447
-34.8677
-42.0824
-42.6945
-39.9659
-40.4573
-29.3341
-28.936
-27.5213
-28.2618
-28.9542
-29.3445
-28.3462
-27.4861
-27.9426
-28.5202
-26.4963
-27.6484
-28.5001
-27.9109
-27.6491
-26.6717
-88.5264
44.9213
-124.693
-7.48221
-75.2324
-94.8351
-39.1602
-31.3769
-32.9681
-31.5672
-44.0191
-37.3482
-28.7107
55.1261
-3.85091
33.6554
-42.5863
-22.4235
-42.5759
-31.401
-33.351
-30.668
-43.2482
-36.5766
-124.047
-7.97326
-88.894
46.5608
-75.4456
-94.6122
-32.9937
-31.5942
-39.1432
-31.5487
-44.0577
-37.3866
-3.96263
35.2808
-28.807
55.016
-42.6582
-22.3264
-33.4119
-30.7217
-42.6252
-31.4174
-43.2851
-36.6277
-34.2054
-33.9601
-29.2358
-28.7969
-33.0601
-30.7636
-32.4823
-30.1485
-38.228
-36.1829
-16.9771
-30.9156
-31.2177
-33.2223
-31.584
-34.018
-42.3425
-49.0682
-39.1584
-36.8632
-38.1642
-48.1146
-57.0782
-55.0265
-29.3351
-42.7387
-23.0065
-26.5442
-22.2088
-37.8529
-40.3628
-47.4344
-34.1911
-33.9434
-32.4663
-30.1341
-29.2163
-28.7842
-33.0404
-30.721
-38.3114
-36.1817
-31.7937
-33.9859
-17.1701
-31.202
-31.2287
-33.1681
-42.4169
-48.9254
-56.7086
-54.8597
-39.0614
-36.7365
-38.0349
-47.9823
-29.3823
-42.8119
-40.3378
-47.415
-23.1622
-26.5023
-22.3411
-37.8475
-66.1212
79.9872
-43.5436
88.2857
-80.7539
-74.9528
119.851
143.802
-82.9765
-87.0598
-83.528
-87.226
-71.6702
-71.6021
32.0801
20.1723
-62.172
-60.9616
-47.0893
-46.0453
-56.5583
-49.3471
-54.9925
-48.0245
-37.99
-29.0059
-38.2801
-29.4007
-45.5745
-46.076
-28.2392
-28.4167
-32.0978
-29.6171
-32.1321
-29.6522
-33.125
-32.6065
-26.3162
-26.2851
-37.3023
-39.4884
-36.5492
-35.3547
-36.8105
-37.4632
-37.3899
-39.3417
4.82425
13.3776
3.61722
14.2935
-21.3368
-21.4683
34.8473
35.4723
-80.0499
-66.6422
-57.1966
-50.419
-59.1971
-69.9564
-56.9722
-50.678
-30.2618
-27.9465
-30.2846
-27.9813
-30.8254
-30.8398
-27.5766
-27.5637
-47.7791
-41.8262
-33.239
-40.8951
-43.952
-35.6471
-40.9824
-39.6315
-68.0099
73.8015
-43.7962
89.1519
-81.1749
-75.1328
144.015
120.541
-62.1815
-60.9473
-47.105
-46.0436
-56.5768
-49.3656
-54.9776
-48.0169
-38.0026
-28.9952
-38.2911
-29.3993
-46.1168
-45.6038
-28.2771
-28.4199
-37.3004
-39.5846
-36.4906
-34.8269
-36.78
-37.459
-37.1519
-39.4943
-80.0273
-66.9456
-57.2206
-50.8232
-70.116
-59.2474
-52.1445
-57.3067
-47.8863
-41.814
-33.222
-40.8485
-35.6872
-43.834
-39.6404
-41.0261
-24.4909
-25.3013
-19.4868
-25.0064
-23.1327
-20.8475
-26.9301
-26.5903
-35.0657
-30.3556
-36.5532
-32.2826
-36.6026
-38.3893
-29.046
-30.1825
-32.9989
-30.8471
-32.9777
-30.8298
-34.3583
-34.372
-29.8425
-29.8329
-25.3209
-27.8102
-23.3343
-25.5739
-23.0937
-22.5372
-28.2148
-27.0838
-31.6468
-33.1103
-31.6569
-33.1014
-31.0027
-31.0003
-33.721
-33.7217
-36.821
-46.9469
-36.0998
-43.475
-32.6947
-33.69
-50.979
-47.9939
-35.793
-64.0628
-36.3913
-63.9028
-27.0764
-27.6401
-75.2245
-75.0565
-47.461
-43.5167
-47.4975
-43.5177
-50.0003
-49.9915
-41.6962
-41.6933
-24.4818
-25.2928
-19.4821
-24.9829
-23.1223
-20.8296
-26.9188
-26.5742
-35.0452
-30.3286
-36.5124
-32.2245
-38.3841
-36.5978
-29.0155
-30.1337
-25.3274
-27.8004
-23.3415
-25.5488
-22.5322
-23.095
-28.1949
-27.0469
-36.7123
-46.772
-36.0195
-43.3966
-33.6596
-32.6663
-47.9317
-50.9636
-67.7854
-70.0088
-59.9074
-51.823
-54.2748
-63.2515
-50.1315
-51.1425
-67.8251
-70.0558
-59.9389
-51.8515
-63.306
-54.3251
-51.1796
-50.1594
-56.7119
-56.6832
-54.1864
-48.0097
-54.1503
-47.9877
-45.5958
-45.6028
-19.891
-18.5679
-15.3827
-4.25178
-5.97086
-15.1673