# vtk DataFile Version 2.0
tet_velo
ASCII
DATASET UNSTRUCTURED_GRID
POINTS 29498 float
-0.720484 0.125 -2.105
-0.77386 0.195 2.135
-0.815 0.837597 -2.075
-0.815 0.915 2.19773
0.720484 0.125 -2.105
0.773866 0.195 2.135
0.815 0.837597 -2.075
0.815 0.915 2.19773
-0.758607 0.128002 -0.691667
-0.77099 0.156745 0.721667
-0.831735 0.880133 -0.650757
-0.82403 0.898229 0.773487
0.758612 0.127999 -0.691667
0.771005 0.156734 0.721667
0.831738 0.880136 -0.650757
0.824029 0.898228 0.773487
-1.50843 -0.265858 -3.26123
-1.51246 -0.2485 -2.1262
-1.5411 -0.238485 -0.713146
-1.5594 -0.213176 0.697709
-1.5647 -0.177938 2.11058
-1.56564 -0.154684 3.24471
-1.5662 -0.134786 4.38051
-1.51241 0.100596 -3.24231
-1.51951 0.122227 -2.10608
-1.55325 0.132504 -0.690909
-1.56867 0.155489 0.723283
-1.57112 0.18841 2.13825
-1.56937 0.211284 3.27253
-1.56868 0.231393 4.40798
-1.55384 0.825725 -3.20753
-1.59064 0.847671 -2.07175
-1.61449 0.878212 -0.649141
-1.6149 0.895954 0.774244
-1.6072 0.916007 2.19665
-1.59029 0.939041 3.33048
-1.58058 0.961436 4.46417
-1.58728 1.92779 -3.14715
-1.60677 1.95148 -2.00974
-1.62149 1.98246 -0.583593
-1.62441 2.00502 0.844908
-1.61859 2.02364 2.27094
-1.60888 2.04146 3.40812
-1.59938 2.06174 4.543
-0.7312 -0.264648 -3.26053
-0.73311 -0.246991 -2.12517
-0.758042 -0.240902 -0.713284
-0.772476 -0.212469 0.69633
-0.77633 -0.173747 2.10816
-0.7746 -0.151728 3.24307
-0.773904 -0.133088 4.37957
-0.727097 0.100835 -3.24209
-0.773258 0.214066 3.27118
-0.773737 0.232888 4.40727
-0.758971 0.822016 -3.20888
-0.78842 0.939352 3.3307
-0.781378 0.961883 4.46422
-0.789614 1.92581 -3.14849
-0.805639 1.94989 -2.01121
-0.817169 1.98287 -0.584479
-0.819751 2.00566 0.845014
-0.815325 2.02339 2.2717
-0.807001 2.04104 3.40887
-0.799235 2.06149 4.54355
0.782108 -0.264649 -3.26053
0.750175 -0.246991 -2.12517
0.765849 -0.240906 -0.713284
0.7741 -0.212477 0.69633
0.777971 -0.17375 2.10816
0.79439 -0.15173 3.24307
0.803913 -0.133091 4.37957
0.789616 0.100835 -3.24209
0.801215 0.214065 3.27118
0.808365 0.232885 4.40727
0.81802 0.822017 -3.20888
0.814093 0.939351 3.3307
0.812452 0.961881 4.46422
0.806971 1.92581 -3.14849
0.80308 1.94989 -2.01121
0.801156 1.98287 -0.584479
0.79886 2.00565 0.845014
0.798044 2.02339 2.2717
0.799615 2.04104 3.40887
0.801076 2.06148 4.54355
1.54779 -0.26586 -3.26123
1.52084 -0.248501 -2.1262
1.54102 -0.238491 -0.713146
1.5577 -0.213188 0.697709
1.56531 -0.177945 2.11058
1.58043 -0.15469 3.24471
1.59147 -0.134792 4.38051
1.55411 0.100596 -3.24231
1.51783 0.122227 -2.10608
1.54781 0.1325 -0.69091
1.56577 0.155477 0.723283
1.57089 0.188403 2.13825
1.58766 0.211279 3.27253
1.59684 0.231388 4.40798
1.59141 0.825725 -3.20753
1.58653 0.847672 -2.07175
1.60693 0.878213 -0.649141
1.61018 0.895948 0.774244
1.6053 0.916003 2.19665
1.60576 0.939037 3.33048
1.60499 0.961431 4.46417
1.60057 1.92779 -3.14715
1.60105 1.95148 -2.00974
1.60346 1.98246 -0.583593
1.60288 2.00502 0.844907
1.60085 2.02364 2.27094
1.59985 2.04145 3.40812
1.5989 2.06174 4.543
-0.818839 0.481299 -2.1411
0 0.1223 -2.1077
-0.749708 0.116339 -1.39833
-0.817865 0.555 2.1898
3.01003e-06 0.157078 2.17292
-0.829492 0.118806 1.42833
0 0.866477 -2.10388
-0.835456 0.870954 -1.36288
0 0.93041 2.21314
-0.820164 0.907263 1.48561
0.81884 0.481299 -2.1411
0.74971 0.116337 -1.39833
0.81787 0.555 2.1898
0.830186 0.118116 1.42833
0.835467 0.870964 -1.36288
0.820165 0.907265 1.48561
-0.765077 0.142095 0.015
-0.865371 0.504068 -0.671212
2.52327e-06 0.102519 -0.691667
-0.866518 0.527487 0.747577
7.522e-06 0.100758 0.721667
-0.827896 0.889195 0.061365
1.59104e-06 1.11503 -0.650757
-7.07277e-07 1.33236 0.773487
0.765083 0.142092 0.015
0.865373 0.504068 -0.671212
0.866519 0.527481 0.747577
0.827899 0.889198 0.061365
-0.897361 0.492683 -1.38061
-0.865944 0.515777 0.0381825
-0.896348 0.541244 1.45697
1.26163e-06 0.111639 -1.39833
5.02263e-06 0.101647 0.015
5.26602e-06 0.0939011 1.42833
0 0.481299 -2.27013
1.50502e-06 0.555 2.26403
7.95522e-07 0.937646 -1.36288
4.41883e-07 1.33201 0.061365
-3.53638e-07 1.15101 1.48561
0.897361 0.492683 -1.38061
0.865946 0.515774 0.0381825
0.896348 0.54124 1.45697
-1.12 0.123614 -2.10554
-0.726797 -0.0609953 -2.11509
-0.72379 0.112918 -2.67355
-1.17249 0.191705 2.13662
-0.775095 0.0106267 2.12158
-0.773559 0.204533 2.70309
-1.20282 0.842634 -2.07338
-0.786985 0.829807 -2.64194
-0.81032 1.39374 -2.04311
-1.2111 0.915504 2.19719
-0.80171 0.927176 2.76421
-0.815162 1.46919 2.23472
0.73533 -0.0609957 -2.11509
0.75505 0.112918 -2.67355
1.11916 0.123613 -2.10554
0.775919 0.0106252 2.12158
0.78754 0.204532 2.70309
1.17238 0.191702 2.13662
0.81651 0.829807 -2.64194
0.80904 1.39374 -2.04311
1.20077 0.842635 -2.07338
0.814546 0.927175 2.76421
0.806522 1.46919 2.23472
1.21015 0.915501 2.19719
-1.15593 0.130253 -0.691288
-0.758324 -0.0564499 -0.702475
-1.16983 0.156117 0.722475
-0.771733 -0.0278618 0.708998
-1.22311 0.879172 -0.649949
-0.824452 1.4315 -0.617618
-1.21946 0.897091 0.773865
-0.821891 1.45194 0.80925
0.76223 -0.0564531 -0.702475
1.15321 0.13025 -0.691288
0.772552 -0.0278713 0.708998
1.16839 0.156106 0.722475
0.816447 1.4315 -0.617618
1.21933 0.879174 -0.649949
0.811445 1.45194 0.80925
1.21711 0.897088 0.773865
-1.51045 -0.257179 -2.69372
-1.51042 -0.0826311 -3.25177
-1.11982 -0.265253 -3.26088
-1.52678 -0.243493 -1.41967
-1.51599 -0.0631362 -2.11614
-1.12278 -0.247745 -2.12568
-1.55025 -0.225831 -0.00771847
-1.54718 -0.0529907 -0.702028
-1.14957 -0.239694 -0.713215
-1.56205 -0.195557 1.40414
-1.56403 -0.0288433 0.710496
-1.16594 -0.212822 0.69702
-1.56517 -0.166311 2.67764
-1.56791 0.00523608 2.12441
-1.17052 -0.175842 2.10937
-1.56592 -0.144735 3.81261
-1.56751 0.0282997 3.25862
-1.17012 -0.153206 3.24389
-1.56744 0.0483036 4.39425
-1.17005 -0.133937 4.38004
-1.51596 0.111412 -2.6742
-1.53312 0.463161 -3.22492
-1.11975 0.100716 -3.2422
-1.53638 0.127366 -1.3985
-1.55508 0.484949 -2.08892
-1.56096 0.143997 0.0161866
-1.58387 0.505358 -0.670025
-1.56989 0.171949 1.43077
-1.59178 0.525721 0.748763
-1.57025 0.199847 2.70539
-1.58916 0.552208 2.16745
-1.56902 0.221339 3.84026
-1.57983 0.575162 3.30151
-1.17131 0.212675 3.27186
-1.57463 0.596414 4.43608
-1.17121 0.232141 4.40763
-1.57224 0.836698 -2.63964
-1.57056 1.37676 -3.17734
-1.1564 0.823871 -3.2082
-1.60257 0.862942 -1.36045
-1.5987 1.39957 -2.04075
-1.61469 0.887083 0.0625516
-1.61799 1.43034 -0.616367
-1.61105 0.90598 1.48545
-1.61965 1.45049 0.809576
-1.59874 0.927524 2.76356
-1.6129 1.46982 2.23379
-1.58543 0.950238 3.89733
-1.59958 1.49025 3.3693
-1.18935 0.939196 3.33059
-1.58998 1.51159 4.50358
-1.18098 0.96166 4.46419
-1.59702 1.93963 -2.57845
-1.18845 1.9268 -3.14782
-1.61413 1.96697 -1.29667
-1.2062 1.95068 -2.01048
-1.62295 1.99374 0.130657
-1.21933 1.98267 -0.584036
-1.6215 2.01433 1.55792
-1.22208 2.00534 0.844961
-1.61374 2.03255 2.83953
-1.21696 2.02351 2.27132
-1.60413 2.0516 3.97556
-1.20794 2.04125 3.40849
-1.19931 2.06161 4.54327
-0.732155 -0.25582 -2.69285
-0.729148 -0.0819066 -3.25131
0.0254537 -0.264649 -3.26053
-0.745576 -0.243946 -1.41923
0.00853268 -0.246991 -2.12517
-0.765259 -0.226685 -0.00847696
0.00390365 -0.240904 -0.713284
-0.774403 -0.193108 1.40225
0.000812069 -0.212473 0.69633
-0.775465 -0.162737 2.67562
0.000820385 -0.173748 2.10816
-0.774252 -0.142408 3.81132
-0.773929 0.0311693 3.25713
0.00989482 -0.151729 3.24307
-0.773821 0.0498996 4.39342
0.0150047 -0.13309 4.37957
-0.743034 0.461426 -3.22549
0.0312596 0.100835 -3.24209
-0.773497 0.223477 3.83923
-0.780839 0.576709 3.30094
0.0139786 0.214065 3.27118
-0.777557 0.597386 4.43574
0.0173139 0.232886 4.40727
-0.774292 1.37391 -3.17868
0.0295244 0.822017 -3.20888
-0.784899 0.950618 3.89746
-0.79771 1.4902 3.36978
0.0128365 0.939351 3.3307
-0.790307 1.51169 4.50388
0.0155369 0.961882 4.46422
-0.797627 1.93785 -2.57985
0.00867837 1.92581 -3.14849
-0.811404 1.96638 -1.29785
-0.00127934 1.94989 -2.01121
-0.81846 1.99426 0.130267
-0.00800634 1.98287 -0.584479
-0.817538 2.01452 1.55836
-0.0104454 2.00566 0.845014
-0.811163 2.03222 2.84029
-0.00864027 2.02339 2.2717
-0.803118 2.05126 3.97621
-0.00369274 2.04104 3.40887
0.000920087 2.06149 4.54355
0.766141 -0.25582 -2.69285
0.785862 -0.0819068 -3.25131
1.16495 -0.265254 -3.26088
0.758012 -0.243948 -1.41923
1.13551 -0.247746 -2.12568
0.769975 -0.226691 -0.00847697
1.15344 -0.239698 -0.713215
0.776036 -0.193113 1.40225
1.1659 -0.212832 0.69702
0.78618 -0.16274 2.67562
1.17164 -0.175847 2.10937
0.799152 -0.142411 3.81132
0.797802 0.0311673 3.25713
1.18741 -0.15321 3.24389
0.806139 0.0498972 4.39342
1.19769 -0.133941 4.38004
0.803818 0.461426 -3.22549
1.17186 0.100715 -3.2422
0.80479 0.223475 3.83923
0.807654 0.576708 3.30094
1.19444 0.212672 3.27186
0.810408 0.597383 4.43574
1.2026 0.232137 4.40763
0.812495 1.37391 -3.17868
1.20471 0.823871 -3.2082
0.813272 0.950616 3.89746
0.806854 1.4902 3.36978
1.20992 0.939194 3.33059
0.806764 1.51168 4.50388
1.20872 0.961656 4.46419
0.805026 1.93785 -2.57985
1.20377 1.9268 -3.14782
0.802118 1.96638 -1.29785
1.20207 1.95068 -2.01048
0.800008 1.99426 0.130267
1.20231 1.98267 -0.584036
0.798452 2.01452 1.55836
1.20087 2.00534 0.844961
0.79883 2.03221 2.84029
1.19945 2.02351 2.27132
0.800345 2.05126 3.97621
1.19973 2.04125 3.40849
1.19999 2.06161 4.54327
1.53432 -0.25718 -2.69372
1.55095 -0.0826319 -3.25177
1.53093 -0.243496 -1.41967
1.51933 -0.0631372 -2.11614
1.54936 -0.225839 -0.00771852
1.54442 -0.0529955 -0.702028
1.5615 -0.195566 1.40414
1.56173 -0.0288552 0.710496
1.57287 -0.166318 2.67764
1.5681 0.00522899 2.12441
1.58595 -0.144741 3.81261
1.58404 0.0282946 3.25862
1.59416 0.0482984 4.39425
1.53597 0.111411 -2.6742
1.57276 0.463161 -3.22492
1.53282 0.127364 -1.3985
1.55218 0.48495 -2.08892
1.55679 0.143989 0.0161865
1.57737 0.505357 -0.670025
1.56833 0.17194 1.43077
1.58798 0.525713 0.748763
1.57927 0.199841 2.70539
1.58809 0.552203 2.16745
1.59225 0.221334 3.84026
1.59671 0.575158 3.30151
1.60092 0.59641 4.43608
1.58897 0.836699 -2.63964
1.59599 1.37676 -3.17734
1.59673 0.862943 -1.36045
1.59379 1.39957 -2.04075
[...]
POINT_DATA 29498
VECTORS point_vectors float
-2.53781 -2.68955 5.87963
0.16811 0.280606 0.92492
-4.98147 3.88122 9.71463
0.428564 -0.0974535 2.04358
2.5607 -2.7233 5.87077
-0.192166 0.293591 0.978942
4.98074 3.88053 9.71256
-0.411269 -0.147889 2.10185
0.0407019 -0.00943621 0.470287
0.0921205 -0.0829607 0.66767
-0.00292612 -0.00813255 0.112625
0.00085496 0.00222122 0.00817896
-0.040056 -0.00918818 0.469015
-0.0925322 -0.0832052 0.66283
0.00291555 -0.0081005 0.112481
-0.000844354 0.0021951 0.00809561
-0.656368 -0.292839 19.811
-1.35715 -0.722172 20.6392
-0.446852 -0.201682 21.4534
-0.0789736 0.00701801 21.5341
0.388089 0.298752 21.5439
0.642626 0.513311 21.2418
0.643914 0.195853 20.7663
-0.832022 -0.204425 19.6901
-1.88342 -0.554691 20.6634
-0.525978 -0.25536 21.5093
-0.107229 -0.0392602 21.5984
0.570317 0.219329 21.6332
0.894631 0.320402 21.163
0.946048 0.170369 21.1367
-0.858157 0.204386 19.6799
-1.83158 0.355258 20.6449
-0.850948 -0.156722 21.4589
-0.127912 -0.108733 21.7197
0.656439 -0.141026 21.5821
1.04604 -0.231578 21.1409
0.914684 -0.201905 21.1302
-0.461753 0.389129 20.0606
-0.735897 0.582228 20.5523
-0.645471 0.368605 21.1965
-0.168809 0.0104593 21.5844
0.275761 -0.299837 21.4366
0.392012 -0.399928 21.2344
0.391227 -0.390686 20.848
-0.637102 -0.72148 19.1884
-2.09575 -3.41915 20.8252
-0.6602 -0.158018 21.7836
-0.101892 -0.0106306 20.3619
0.126589 0.846395 19.4159
0.332815 1.21397 19.2847
0.648945 0.924774 19.3685
-0.815538 -0.519065 18.7322
0.898574 1.87787 10.4239
1.39432 0.683928 12.6631
-0.964659 0.500006 18.6036
2.05313 -0.191698 11.2517
1.56395 -0.470819 15.155
-0.391661 0.714774 19.7748
-0.776692 1.3724 20.4609
-0.873191 1.15995 21.3258
-0.232458 0.160743 21.9652
0.240876 -0.585506 21.5874
0.358373 -0.76673 21.3126
0.336283 -0.681244 20.6887
0.674726 -0.677843 19.2505
2.12211 -3.32138 20.8537
0.662053 -0.147599 21.8349
0.113506 -0.00834868 20.3808
-0.123083 0.903504 19.4905
-0.417741 1.31218 19.6694
-0.647487 0.992896 19.9146
0.860834 -0.468486 18.8332
-1.11801 1.82153 11.3917
-1.42275 0.772574 13.5677
0.984939 0.453884 18.7013
-2.0471 -0.257797 12.1023
-1.57424 -0.447048 15.8158
0.397588 0.708299 19.7805
0.77698 1.37537 20.46
0.871346 1.18534 21.3257
0.236461 0.162093 21.9747
-0.229766 -0.598689 21.5908
-0.344115 -0.777578 21.3066
-0.331018 -0.681149 20.6858
0.656721 -0.285719 19.8283
1.34565 -0.719362 20.6516
0.463635 -0.204481 21.4579
0.0668841 0.00924322 21.5524
-0.415127 0.31169 21.5609
-0.673841 0.505893 21.2492
-0.638966 0.205204 20.7356
0.819805 -0.189223 19.7357
1.8998 -0.546174 20.6533
0.526137 -0.260973 21.5178
0.106137 -0.0385075 21.6114
-0.594455 0.222972 21.6537
-0.889602 0.340079 21.1359
-0.960861 0.158657 21.1318
0.84277 0.198072 19.7164
1.84377 0.353351 20.6518
0.853241 -0.162274 21.4742
0.126914 -0.11155 21.7353
-0.676738 -0.150991 21.5989
-1.0422 -0.245059 21.099
-0.930919 -0.216671 21.0965
0.463426 0.385497 20.0737
0.738468 0.583353 20.557
0.653445 0.371164 21.1955
0.173065 0.00580865 21.5806
-0.272677 -0.304322 21.431
-0.404506 -0.404413 21.2215
-0.383577 -0.385456 20.8494
-1.21037 -0.0395485 1.8784
-3.57886e-06 -0.140761 0.356315
0.0289084 -0.0032987 0.350196
0.0884772 0.0660218 0.444295
0.0200337 -0.00202979 0.0221986
-0.0125146 0.00847408 0.359341
0.00134086 1.21526 1.74756
-0.273249 -0.302982 1.22508
0.00583248 0.0432355 -0.064156
0.0150066 0.0272827 0.122572
1.21043 -0.0386422 1.87886
-0.028405 -0.00316972 0.348493
-0.0967987 0.0522244 0.466195
0.0122841 0.012445 0.406672
0.273474 -0.303981 1.22535
-0.014809 0.0267435 0.123118
0.0379762 -0.0180696 0.829052
-1.61643e-06 2.02066e-05 -0.000177956
3.76315e-06 -8.2868e-05 0.00606179
-2.69503e-05 0.000580926 0.00175451
6.86221e-06 -1.56274e-05 0.00335164
0.00248286 0.00866718 0.0389365
1.92364e-06 0.00151494 0.00411024
3.75777e-06 -1.26443e-05 0.000424716
-0.0368112 -0.0170639 0.826391
1.55466e-06 1.95506e-05 -0.00017212
2.69633e-05 0.000581366 0.00175625
-0.00247325 0.00863136 0.0389107
-7.92417e-06 -0.000237347 0.00195466
1.79578e-07 -1.06167e-05 -0.000101951
5.31995e-06 5.34247e-05 0.000587515
1.6774e-07 -6.44039e-07 0.000172464
1.53183e-08 -4.21575e-08 1.5016e-05
-3.21139e-08 1.02664e-08 -4.50339e-06
-2.30674e-20 -6.40323e-18 -9.51278e-18
0 0 0
1.32693e-06 -4.97505e-05 7.88067e-05
1.10316e-06 0.000617829 0.0064711
6.70187e-06 0.000570891 -0.00150249
8.0169e-06 -0.000238045 0.00195961
-2.50715e-07 -1.47862e-05 -0.000141988
-5.23917e-06 5.08702e-05 0.000577967
-3.73531 -1.71686 20.8116
-3.60726 -5.57946 21.1003
-2.28865 -1.93048 17.3482
0.936294 0.578664 19.9237
0.0823086 1.07427 12.3529
0.0381206 1.05479 7.10759
-3.41133 1.04775 20.7779
-2.81446 1.7015 17.077
-1.91504 2.49902 20.4779
1.15143 -0.168618 20.6991
1.12086 0.521571 8.13322
0.762908 -0.908575 20.2678
3.61328 -5.48134 21.0861
2.31269 -1.84507 17.4861
3.76338 -1.72808 20.803
-0.0879467 1.13925 12.5012
-0.296196 1.1543 7.92577
-0.981883 0.59513 19.957
2.8316 1.62269 17.2084
1.91532 2.50439 20.478
3.42309 1.05453 20.7828
-1.18067 0.349141 8.73502
-0.760404 -0.923061 20.1471
-1.17288 -0.204845 20.7184
-0.19016 -0.326281 21.266
-0.055604 0.190703 16.0921
-0.128162 -0.0590046 20.0469
0.467784 -0.226491 13.7262
-1.1433 -0.633362 21.4804
-2.44026 1.59253 21.3303
0.00808769 -0.206849 20.8684
-0.318725 0.138829 20.6615
0.0682384 0.198294 16.1746
0.18903 -0.326106 21.2193
-0.453119 -0.223445 13.7207
0.135796 -0.0580643 19.9832
2.4566 1.63236 21.3207
1.14357 -0.649049 21.4619
0.271324 0.156005 20.343
-0.00964041 -0.211047 20.8411
-1.09629 -0.542011 20.0079
-0.76551 -0.262506 19.7627
-0.701609 -0.480734 19.5257
-0.915073 -0.456111 21.3172
-1.63159 -0.697963 20.6743
-1.92191 -1.61967 20.7288
-0.201779 -0.0578229 21.4972
-0.505046 -0.245062 21.4819
-0.408972 -0.194015 21.662
0.125608 0.157145 21.6338
-0.103991 -0.0324916 21.5589
-0.128089 -0.00243247 21.5588
0.538612 0.384045 21.4287
0.46666 0.280983 21.562
0.419426 0.60982 21.5353
0.730298 0.352684 21.0913
0.781725 0.397438 21.2412
0.840071 0.812866 20.7928
0.794981 0.183111 20.9515
0.808987 0.904072 20.7675
-1.44998 -0.40301 19.8718
-0.901159 -0.00215144 19.6442
-0.953399 -0.392944 19.2794
-1.12812 -0.408985 21.4762
-2.01536 -0.0804642 20.6868
-0.253162 -0.155984 21.513
-0.668121 -0.254855 21.4866
0.184521 0.103498 21.7468
-0.10224 -0.0674875 21.7085
0.786954 0.261194 21.5407
0.663032 0.0538726 21.6522
0.892694 0.333724 21.4541
1.10321 0.112772 21.3207
1.28371 0.682359 19.9426
1.16243 -0.0418142 21.2407
1.15207 0.700155 19.6795
-1.51262 0.335377 19.8939
-0.673839 0.402407 19.8525
-1.02081 0.35218 19.1974
-1.28527 0.083587 21.3032
-1.22582 0.654211 20.5618
-0.499959 -0.17313 21.6157
-0.910789 0.217991 21.3307
0.294597 -0.0841361 21.7676
-0.199105 -0.039941 21.6836
0.847812 -0.185234 21.4598
0.465718 -0.300435 21.5054
0.926087 -0.257102 21.1626
0.696644 -0.378911 21.1414
1.52324 -0.381717 20.9453
0.56346 -0.395053 20.9117
1.46594 -0.366549 20.4331
-0.649829 0.531992 20.2575
-0.475432 0.554098 19.9249
-0.72826 0.503915 20.9222
-0.836828 0.929106 20.5218
-0.45294 0.201262 21.4713
-0.848063 0.668221 21.2983
0.0937031 -0.165216 21.5186
-0.223766 0.0479331 21.7428
0.388556 -0.344549 21.3266
0.260852 -0.436209 21.5149
0.495855 -0.446349 20.8538
0.402757 -0.594217 21.2338
0.406689 -0.521042 20.9439
-1.36341 -1.84262 18.9992
-0.73786 -0.630238 18.9273
0.0245819 -0.916777 18.8812
-1.22846 -1.12447 22.463
0.0298135 -5.1595 20.9725
-0.316512 0.0285764 20.9327
-0.00171381 -0.833372 20.659
0.0419722 0.188888 19.8154
0.00538589 -0.255939 15.968
0.191381 0.952759 19.3595
0.0683751 0.201994 13.5378
0.643457 1.26166 18.7568
0.623984 1.55229 14.8955
0.140973 0.572169 12.9222
1.02163 0.804351 16.0158
0.0104532 0.804061 10.3912
-1.00063 -0.0292946 18.4536
0.0428135 -0.763013 18.1971
1.28793 1.28577 11.2877
1.74 0.919921 8.23037
-0.00497392 -0.251546 -4.12522
1.88878 0.157402 10.5224
-0.0869515 0.546132 5.08512
-0.670694 0.851825 19.2448
0.0404611 0.69351 17.9519
1.82819 -0.733645 12.6248
1.13731 -1.12653 19.4655
-0.0453064 -1.14356 0.802529
0.662958 -1.08975 20.2624
-0.0888675 -1.87084 5.44276
-0.616916 1.1373 19.9789
0.00627496 0.897626 19.6096
-0.842256 1.24652 20.9045
-0.00143785 1.90393 20.3731
-0.659525 0.762331 21.8518
-0.0140116 1.90579 21.2793
0.095889 -0.327799 21.8122
-0.00467856 0.353929 22.2093
0.324508 -0.681727 21.3666
0.00671885 -0.664927 21.8177
0.308769 -0.629199 21.1507
0.0139723 -0.876886 21.2577
0.0032004 -0.83515 21.184
1.40053 -1.77366 19.1047
0.780772 -0.58235 19.0265
0.706094 -0.449953 19.5603
1.23381 -1.10468 22.4283
1.91483 -1.5864 20.7155
0.324835 0.0341422 20.9767
0.419054 -0.201506 21.664
-0.0230689 0.202379 19.8468
0.133251 -0.0026953 21.5639
-0.235472 1.07271 19.5795
-0.441917 0.638284 21.562
-0.748218 1.2857 19.2508
-0.773782 1.57318 15.5708
-0.885395 0.790899 20.7904
-1.03942 0.898637 16.7236
-0.808715 0.831128 20.7627
1.03259 -0.0281067 18.5928
0.94385 -0.361275 19.3256
-1.42671 1.32069 12.2749
-1.88772 0.797703 9.45408
-1.34225 0.644017 20.5082
-1.91821 0.206042 11.4868
-1.15442 0.683453 20.2777
0.687403 0.829656 19.2741
1.01738 0.340328 19.2851
-1.84261 -0.705117 13.4687
-1.11437 -1.15779 19.5134
-1.48717 -0.416655 21.1209
-0.641889 -1.07114 20.2521
-1.41649 -0.390871 20.4598
0.620224 1.13318 19.9788
0.475947 0.544351 19.9266
0.841686 1.25605 20.9052
0.836985 0.93183 20.5221
0.660684 0.784521 21.8648
0.85282 0.684657 21.2995
-0.091838 -0.333989 21.8237
0.225132 0.0465527 21.7554
-0.309469 -0.697616 21.3676
-0.266287 -0.457359 21.5189
-0.299626 -0.64218 21.1699
-0.410259 -0.600559 21.2189
-0.402555 -0.53025 20.9493
1.0725 -0.522857 20.0506
0.764516 -0.245304 19.7898
0.905311 -0.453665 21.3355
1.62352 -0.66572 20.671
0.220921 -0.0640623 21.4968
0.511269 -0.24882 21.4898
-0.140651 0.15168 21.6439
0.0947953 -0.0325183 21.5733
-0.575713 0.386574 21.4323
-0.482818 0.288921 21.5805
-0.749423 0.332674 21.0763
-0.790475 0.411572 21.2328
-0.799914 0.181931 20.9337
1.44921 -0.407164 19.881
0.879978 0.0139151 19.6848
1.13134 -0.397617 21.49
2.04143 -0.083148 20.7054
0.256847 -0.156148 21.5126
0.672264 -0.255191 21.4963
-0.190979 0.104437 21.7624
0.110036 -0.0703895 21.7167
-0.818356 0.261199 21.5453
-0.686697 0.0556871 21.6771
-0.900003 0.311679 21.4246
-1.11443 0.0918908 21.2603
-1.18709 -0.0544695 21.2173
1.48136 0.327653 19.9207
0.672832 0.39852 19.8805
1.28964 0.0811189 21.3201
1.23433 0.656988 20.5657
0.501915 -0.175955 21.6229
0.929826 0.211406 21.3415
-0.304868 -0.0934074 21.7792
0.201791 -0.0462039 21.7014
-0.862185 -0.205508 21.4419
-0.480474 -0.33197 21.5196
-0.93545 -0.270991 21.1299
-0.703022 -0.402836 21.1644
-0.558358 -0.410047 20.8277
0.648616 0.529116 20.2527
0.734249 0.505516 20.928
0.464324 0.199428 21.4806
-0.10238 -0.167321 21.5502
-0.389117 -0.347771 21.3512
-0.486021 -0.483186 20.8621
-1.29628 -0.510159 19.9487
-1.82004 -2.05482 18.2841
-1.37659 -1.05859 19.6071
-2.12664 -0.974748 19.032
-0.865708 -0.447833 19.3746
-2.72503 -1.84762 20.7444
-1.06038 -0.45053 21.3909
-0.610113 -0.38576 18.2666
-1.03522 -0.768545 21.7775
-1.32551 -0.759101 22.3082
-0.318168 -0.184241 21.669
-0.235509 -0.126395 21.4896
0.279617 0.0680187 14.6003
-0.189927 -0.0439488 21.5706
-0.0119645 -0.186924 20.5206
-0.107723 -0.0412027 21.1598
0.138783 0.122757 21.6764
0.128947 0.110684 13.5329
0.0705346 0.228886 21.7201
0.250945 0.237494 20.5189
0.695039 0.663453 21.0606
0.621482 0.349788 21.4384
0.205864 1.13861 13.7513
0.573456 0.745411 21.3167
1.11323 0.671777 20.3387
1.09798 0.755644 20.9907
0.748324 0.36713 21.2067
0.644747 1.40266 15.2638
0.83313 0.983766 20.8493
1.4936 0.66479 19.5472
0.948059 0.899603 20.9443
-1.61895 -0.0305139 19.827
-3.20818 -0.21734 16.2616
-2.25779 0.745997 19.098
-1.08658 -0.0084639 19.0944
-4.35564 -0.183172 20.8296
-1.29021 -0.177663 21.4521
-1.73693 0.0529695 21.8651
-0.531367 -0.601201 20.7866
-0.337744 -0.201172 21.5715
-0.537385 -0.600674 21.3426
-0.0986033 0.0269911 19.4922
0.268556 0.0300574 21.8197
0.596585 -0.0663368 20.9828
1.0933 0.243366 19.4321
0.876198 0.0715166 21.5488
0.0469592 1.22292 3.5407
1.37052 -0.256999 20.8147
1.6315 0.230837 19.4923
1.11475 0.0484757 21.3387
1.9952 0.772118 10.0741
1.67525 -0.485072 20.4718
1.63953 0.146447 17.5732
-1.03345 0.59641 20.09
-1.34838 1.83425 19.2337
-0.68742 0.810378 20.1219
-0.747466 0.609718 19.5953
-1.67308 1.26111 20.5341
-1.08777 0.43683 21.0518
-1.82036 1.52302 21.097
-0.870322 0.818569 20.9408
-1.52064 0.438722 21.4312
-0.604279 0.0799502 21.5813
-1.95019 0.742551 22.0104
-0.611775 0.39607 21.6399
-0.339231 -0.0834123 22.0344
0.188104 -0.175272 21.6644
0.646145 -0.532997 20.0509
0.0798697 -0.239807 21.6799
0.610487 -0.574822 21.6558
0.622106 -0.390778 21.344
0.825274 -1.0622 20.5254
0.369674 -0.531347 21.3231
0.812724 -0.854832 21.2711
0.650439 -0.545149 21.1027
0.86264 -1.27666 19.8346
0.385493 -0.451683 21.0014
0.652755 -0.716676 20.5578
1.84694 -1.96562 18.3767
0.0407517 -2.74805 18.3457
0.0615451 -3.01589 15.6689
0.0264788 -0.911889 18.4501
0.0173273 -8.55833 21.7364
0.616121 -0.381403 18.3185
0.0138928 -2.1352 22.9275
0.00100079 -0.194013 8.86207
-0.264093 0.0745731 14.6369
0.000835806 -0.427422 17.9688
0.00508818 -0.0690633 6.8396
-0.102521 0.119117 13.5521
0.0159809 -0.104434 14.5995
0.147582 0.220878 4.78206
-0.349189 1.2768 14.3845
0.144164 0.160932 13.0955
0.148076 -0.5187 -2.50401
0.187081 0.458679 3.36603
-0.745169 1.43678 16.0972
0.100055 0.831749 12.3555
-0.0511865 -0.735377 -1.83333
-0.0635447 0.695856 6.12881
3.23084 -0.18013 16.4761
0.0572207 2.92652 14.7633
0.0396622 -0.0327094 17.6234
-0.270381 0.98383 4.30503
-0.0167123 0.00675517 1.02496
-0.263167 -2.58613 -3.18092
-2.02819 0.717011 11.4109
-0.113208 -2.15139 3.18486
-0.147265 -1.01054 2.86606
1.36139 1.80705 19.2583
0.00469251 1.56828 19.7714
0.0184147 1.09878 18.8929
-0.00175138 4.1823 20.2961
1.81945 1.5362 21.0947
-0.00681022 1.81564 20.835
-0.0141635 3.78313 20.6455
1.96371 0.766684 21.8983
-0.0131535 1.38763 22.0954
-0.000339809 0.328027 19.1431
-0.663408 -0.532379 19.8609
0.00229435 -0.33857 21.9237
0.0102097 -0.776744 13.8846
-0.813267 -1.09661 20.5398
0.00680097 -0.818434 21.4098
-0.0183775 -1.62306 16.735
-0.860708 -1.26708 19.8889
-0.00497329 -1.13265 20.9173
0.00439143 -1.32746 19.0983
1.28117 -0.490931 19.9808
1.3738 -1.00848 19.6288
2.09645 -0.921151 19.1105
0.853856 -0.416391 19.413
2.71606 -1.82767 20.7366
1.05501 -0.431804 21.4079
1.03704 -0.772443 21.7672
1.32773 -0.76201 22.2793
0.327034 -0.186292 21.6667
0.245847 -0.128942 21.4806
0.196848 -0.0474158 21.571
0.0137292 -0.186379 20.4349
0.1185 -0.0407135 21.1375
-0.144135 0.130523 21.6906
-0.0663654 0.236118 21.7343
-0.250976 0.24216 20.5095
-0.729662 0.691124 21.0775
-0.649207 0.359895 21.4345
-0.615113 0.773993 21.3401
-1.18387 0.67355 20.4867
-1.13115 0.723746 21.0284
-0.748433 0.378955 21.1824
-0.862526 0.891567 20.8668
-1.5244 0.625564 19.7314
-0.958954 0.812509 20.9555
1.57939 -0.0200586 19.8497
2.18618 0.721495 19.1788
1.06799 -0.01266 19.1743
4.37581 -0.183454 20.8321
1.30417 -0.17958 21.4547
1.73902 0.0500703 21.8742
0.527196 -0.608841 20.7207
0.348449 -0.201233 21.5802
0.537788 -0.612734 21.32
0.100005 0.0288354 19.4419
-0.285262 0.0288718 21.835
-0.602185 -0.0747844 20.9686
-1.14155 0.221155 19.4782
-0.90001 0.0669188 21.5478
-1.38676 -0.316123 20.9033
-1.62637 0.15461 20.0449
-1.11775 0.0411547 21.2872
-1.60476 -0.502529 20.5557
-1.65077 0.116216 18.1997
1.02865 0.586655 20.0933
0.687484 0.805515 20.1282
0.744637 0.584694 19.6216
1.67636 1.26604 20.5327
1.09861 0.436771 21.0662
0.872069 0.828789 20.9417
1.54162 0.446058 21.4322
0.617433 0.0756457 21.5951
0.617996 0.410904 21.6551
0.351072 -0.0878916 22.0536
-0.192477 -0.194218 21.6733
-0.0798298 -0.253279 21.6806
-0.615497 -0.604871 21.672
-0.618007 -0.409783 21.3381
-0.364605 -0.557858 21.3137
-0.82268 -0.860188 21.2685
-0.671354 -0.538603 21.1311
-0.376717 -0.466954 21.0072
-0.645374 -0.713574 20.5383
-1.76754 -1.08168 19.3166
-1.1676 -0.768388 22.0183
-0.0999072 -0.0768467 21.3838
0.165418 0.249307 21.3178
0.855196 0.757228 20.8966
1.15749 0.862858 20.4525
-2.55309 -0.0834488 18.8021
-1.63587 -0.379943 22.2703
-0.19667 -0.415387 19.9899
0.397505 0.216772 19.8898
1.3492 0.286855 19.6389
1.88812 0.287584 19.591
-1.29514 1.06529 19.7697
-1.50682 0.755875 21.148
-1.06383 0.131091 21.9096
0.271369 -0.343522 21.9277
0.775583 -0.718639 21.3813
0.824354 -0.796492 20.8589
0.0427037 -3.14739 17.1306
0.00496087 -0.846418 12.5498
0.00164483 -0.110639 7.40294
0.0232212 -0.0302361 6.62364
0.327059 -0.202721 3.96547
0.078573 0.637208 3.96188
0.0685224 -0.308557 13.585
-0.152933 -0.528933 -1.7245
-0.377157 -3.35657 -2.13438
0.0174538 2.74866 18.5738
-0.00721846 2.93042 20.8839
-0.0100417 2.59799 21.8125
0.00818703 -0.609545 16.1532
0.0180138 -0.983357 15.1755
-0.020133 -1.17738 17.0027
1.72349 -1.0111 19.3722
1.17742 -0.766861 22.0095
0.107646 -0.0761441 21.3622
-0.163522 0.25728 21.3176
-0.914112 0.780742 20.9507
-1.19016 0.789183 20.4495
2.46638 -0.0873533 18.9022
1.6388 -0.382254 22.2753
0.195129 -0.419979 19.9211
-0.404142 0.212721 19.8755
-1.43057 0.235055 19.9692
-1.85162 0.170297 19.8756
1.28925 1.03682 19.779
1.51575 0.763387 21.1495
1.08328 0.133812 21.9218
-0.269986 -0.361064 21.9477
-0.780011 -0.749012 21.3927
-0.81594 -0.803717 20.8659
-1.65568 -0.40944 2.03571
-0.025113 -0.255825 0.541723
0.0171008 -0.00129436 0.141781
0.0591851 0.100833 0.369964
-0.057986 0.0051117 0.0455902
0 0 0
-1.05207 0.0715145 1.58284
-0.305774 2.21046 2.89515
-0.307177 -0.0932352 2.10333
0.170695 0.108502 0.622804
0.0261238 0.0268575 -0.033003
0.0895607 0.0784072 0.454634
0.0249134 -0.256489 0.540268
1.66011 -0.404703 2.03293
-0.016759 -0.00129761 0.141326
0.0718236 0.0171687 0.0643471
-0.0785869 0.0918783 0.394312
0 0 0
0.305584 2.21568 2.89661
1.05789 0.0716443 1.59236
0.307391 -0.0927283 2.10764
-0.0121314 0.0236135 -0.0292649
-0.175739 0.0908124 0.641738
-0.0862267 0.0739225 0.457368
-0.0454308 0.0961269 1.2285
0.00868779 -0.00446302 0.199802
0 0 0
0 0 0
-0.00249949 -0.00396397 0.65728
0.0367799 -0.0215956 0.976233
-0.00286949 0.00634174 0.0202205
0 0 0
-0.138088 -0.272396 0.803763
-9.06339e-07 -2.58746e-05 0.000318991
0.00241624 0.00839528 0.0657358
-0.00398817 0.0055455 0.0159465
0.000366292 0.000917258 0.00371336
0.000112095 0.00139135 0.00514835
0.000490403 0.00169987 0.00608187
0.00596 -0.000651952 0.0340076
0.0462039 0.0961355 1.22301
0 0 0
-0.00849817 -0.00427581 0.199092
0 0 0
0.00591409 -0.000111349 0.666856
0 0 0
-0.0351668 -0.02028 0.972845
0.0029795 0.00659216 0.0204682
0.138086 -0.272437 0.804014
0.00378515 0.00524992 0.0150916
7.02951e-07 -2.0062e-05 0.000246818
-0.00239292 0.00832576 0.0657022
-0.000350662 0.000876238 0.00357129
-0.00591253 -0.00065699 0.03403
-0.000111963 0.00138874 0.00515186
-0.000485537 0.00168173 0.00602833
-0.038429 -0.0139571 0.298146
-0.0279402 0.00268173 0.0101483
-4.45621e-07 -4.12809e-07 4.64794e-06
0 0 0
-3.24819e-07 -1.89997e-05 0.000321129
0 0 0
0.000261691 0.000295278 0.0112226
-0.00307038 0.00952893 -0.000646381
0 0 0
0.0040155 0.0087419 -0.00239632
0.000179318 0.00252388 0.0403109
1.70386e-20 -2.94932e-20 2.1043e-17
6.54194e-05 0.756426 0.679696
6.99912e-07 0.000353116 0.00347503
-0.0035543 -0.0401929 0.20957
-0.00199769 -4.10463e-05 0.0034839
1.2099e-05 0.000344821 3.06415e-06
8.29543e-06 0.000202799 -0.000484486
0 0 0
-0.00057358 -0.000578194 0.00217392
0.0279608 0.00261334 0.01016
0.0418966 -0.0157336 0.319659
0 0 0
2.83444e-07 -1.63237e-05 0.000274758
0.0039568 0.00696606 -0.000566262
-0.000268016 0.000200191 0.0115144
0 0 0
-0.000175471 0.00245012 0.0392567
0.00200759 -4.13507e-05 0.00348862
0.00352096 -0.0409146 0.213625
0.000646298 -0.000580923 0.00217631
0 0 0
-3.07683e-06 1.06327e-05 0.00027199
0 0 0
0 0 0
-5.81458e-08 -1.28114e-06 -4.08101e-05
8.42479e-06 -0.000241419 0.0132302
5.87911e-10 -4.46785e-09 7.20568e-07
1.38419e-07 -5.90188e-06 -3.64588e-05
-0.000238066 0.00140949 0.0165091
8.99076e-09 -1.88138e-08 6.6725e-06
5.09858e-09 -6.2455e-09 1.40598e-06
0 0 0
-0.000480258 0.00498826 0.0903804
0 0 0
3.96899e-07 0.000569239 0.00163134
5.34833e-06 0.000196125 0.0138846
2.72589e-05 -0.00191959 0.00621894
0 0 0