# vtk DataFile Version 2.0
tri_press
ASCII
DATASET UNSTRUCTURED_GRID
POINTS 3682 float
-0.720484 0.125 -2.105
-0.77386 0.195 2.135
-0.815 0.837597 -2.075
-0.815 0.915 2.19773
0.720484 0.125 -2.105
0.773866 0.195 2.135
0.815 0.837597 -2.075
0.815 0.915 2.19773
-0.758607 0.128002 -0.691667
-0.77099 0.156745 0.721667
-0.831735 0.880133 -0.650757
-0.82403 0.898229 0.773487
0.758612 0.127999 -0.691667
0.771005 0.156734 0.721667
0.831738 0.880136 -0.650757
0.824029 0.898228 0.773487
-1.50843 -0.265858 -3.26123
-1.51246 -0.2485 -2.1262
-1.5411 -0.238485 -0.713146
-1.5594 -0.213176 0.697709
-1.5647 -0.177938 2.11058
-1.56564 -0.154684 3.24471
-1.5662 -0.134786 4.38051
-1.51241 0.100596 -3.24231
-1.51951 0.122227 -2.10608
-1.55325 0.132504 -0.690909
-1.56867 0.155489 0.723283
-1.57112 0.18841 2.13825
-1.56937 0.211284 3.27253
-1.56868 0.231393 4.40798
-1.55384 0.825725 -3.20753
-1.59064 0.847671 -2.07175
-1.61449 0.878212 -0.649141
-1.6149 0.895954 0.774244
-1.6072 0.916007 2.19665
-1.59029 0.939041 3.33048
-1.58058 0.961436 4.46417
-1.58728 1.92779 -3.14715
-1.60677 1.95148 -2.00974
-1.62149 1.98246 -0.583593
-1.62441 2.00502 0.844908
-1.61859 2.02364 2.27094
-1.60888 2.04146 3.40812
-1.59938 2.06174 4.543
-0.7312 -0.264648 -3.26053
-0.73311 -0.246991 -2.12517
-0.758042 -0.240902 -0.713284
-0.772476 -0.212469 0.69633
-0.77633 -0.173747 2.10816
-0.7746 -0.151728 3.24307
-0.773904 -0.133088 4.37957
-0.727097 0.100835 -3.24209
-0.773258 0.214066 3.27118
-0.773737 0.232888 4.40727
-0.758971 0.822016 -3.20888
-0.78842 0.939352 3.3307
-0.781378 0.961883 4.46422
-0.789614 1.92581 -3.14849
-0.805639 1.94989 -2.01121
-0.817169 1.98287 -0.584479
-0.819751 2.00566 0.845014
-0.815325 2.02339 2.2717
-0.807001 2.04104 3.40887
-0.799235 2.06149 4.54355
0.782108 -0.264649 -3.26053
0.750175 -0.246991 -2.12517
0.765849 -0.240906 -0.713284
0.7741 -0.212477 0.69633
0.777971 -0.17375 2.10816
0.79439 -0.15173 3.24307
0.803913 -0.133091 4.37957
0.789616 0.100835 -3.24209
0.801215 0.214065 3.27118
0.808365 0.232885 4.40727
0.81802 0.822017 -3.20888
0.814093 0.939351 3.3307
0.812452 0.961881 4.46422
0.806971 1.92581 -3.14849
0.80308 1.94989 -2.01121
0.801156 1.98287 -0.584479
0.79886 2.00565 0.845014
0.798044 2.02339 2.2717
0.799615 2.04104 3.40887
0.801076 2.06148 4.54355
1.54779 -0.26586 -3.26123
1.52084 -0.248501 -2.1262
1.54102 -0.238491 -0.713146
1.5577 -0.213188 0.697709
1.56531 -0.177945 2.11058
1.58043 -0.15469 3.24471
1.59147 -0.134792 4.38051
1.55411 0.100596 -3.24231
1.51783 0.122227 -2.10608
1.54781 0.1325 -0.69091
1.56577 0.155477 0.723283
1.57089 0.188403 2.13825
1.58766 0.211279 3.27253
1.59684 0.231388 4.40798
1.59141 0.825725 -3.20753
1.58653 0.847672 -2.07175
1.60693 0.878213 -0.649141
1.61018 0.895948 0.774244
1.6053 0.916003 2.19665
1.60576 0.939037 3.33048
1.60499 0.961431 4.46417
1.60057 1.92779 -3.14715
1.60105 1.95148 -2.00974
1.60346 1.98246 -0.583593
1.60288 2.00502 0.844907
1.60085 2.02364 2.27094
1.59985 2.04145 3.40812
1.5989 2.06174 4.543
-0.818839 0.481299 -2.1411
0 0.1223 -2.1077
-0.749708 0.116339 -1.39833
-0.817865 0.555 2.1898
3.01003e-06 0.157078 2.17292
-0.829492 0.118806 1.42833
0 0.866477 -2.10388
-0.835456 0.870954 -1.36288
0 0.93041 2.21314
-0.820164 0.907263 1.48561
0.81884 0.481299 -2.1411
0.74971 0.116337 -1.39833
0.81787 0.555 2.1898
0.830186 0.118116 1.42833
0.835467 0.870964 -1.36288
0.820165 0.907265 1.48561
-0.765077 0.142095 0.015
-0.865371 0.504068 -0.671212
2.52327e-06 0.102519 -0.691667
-0.866518 0.527487 0.747577
7.522e-06 0.100758 0.721667
-0.827896 0.889195 0.061365
1.59104e-06 1.11503 -0.650757
-7.07277e-07 1.33236 0.773487
0.765083 0.142092 0.015
0.865373 0.504068 -0.671212
0.866519 0.527481 0.747577
0.827899 0.889198 0.061365
-0.897361 0.492683 -1.38061
0.897361 0.492683 -1.38061
1.26163e-06 0.111639 -1.39833
7.95522e-07 0.937646 -1.36288
0 0.481299 -2.27013
-0.865944 0.515777 0.0381825
0.865946 0.515774 0.0381825
5.02263e-06 0.101647 0.015
4.41883e-07 1.33201 0.061365
-0.896348 0.541244 1.45697
0.896348 0.54124 1.45697
5.26602e-06 0.0939011 1.42833
-3.53638e-07 1.15101 1.48561
1.50502e-06 0.555 2.26403
-0.789031 0.303149 -2.14242
-0.360242 0.122299 -2.1077
-0.733016 0.122749 -1.75167
-0.818652 0.375 2.18519
-0.386928 0.157052 2.17295
-0.77995 0.178629 1.78167
-0.820932 0.659448 -2.11206
-0.4075 0.866478 -2.10388
-0.833287 0.862335 -1.71894
-0.814029 0.735 2.19136
-0.4075 0.93041 2.21314
-0.818243 0.911792 1.84167
0.360242 0.122283 -2.10772
0.789041 0.303149 -2.14243
0.733016 0.12275 -1.75167
0.386935 0.157104 2.1729
0.818657 0.375 2.18519
0.779961 0.178623 1.78167
0.4075 0.866468 -2.10387
0.820976 0.659448 -2.1121
0.833316 0.862363 -1.71894
0.4075 0.93041 2.21314
0.814032 0.735 2.19136
0.818245 0.911794 1.84167
-0.765054 0.111274 -1.045
-0.762014 0.134877 -0.338333
-0.831908 0.306075 -0.681439
-0.384691 0.104482 -0.691667
-0.822208 0.115808 1.075
-0.768046 0.149407 0.368333
-0.841879 0.330554 0.734622
-0.398926 0.101882 0.721667
-0.833674 0.875622 -1.00682
-0.862088 0.698868 -0.660984
-0.829814 0.884662 -0.294696
-0.472919 1.11169 -0.650757
-0.822089 0.902739 1.12955
-0.860748 0.720595 0.760532
-0.825977 0.893725 0.417426
-0.515451 1.32217 0.773487
0.765052 0.111278 -1.045
0.384696 0.104482 -0.691667
0.762019 0.134874 -0.338333
0.83191 0.306075 -0.681439
0.822727 0.115293 1.075
0.398933 0.101893 0.721667
0.768051 0.149405 0.368333
0.841905 0.330536 0.734622
0.833681 0.875629 -1.00682
0.472906 1.11166 -0.650757
0.862093 0.69887 -0.660984
0.829817 0.884665 -0.294696
0.822089 0.902738 1.12955
0.51545 1.32217 0.773487
0.860753 0.720594 0.760532
0.825978 0.893726 0.417426
-0.895905 0.486991 -1.76085
-0.40942 0.481299 -2.27013
6.30816e-07 0.117633 -1.75302
0 0.301799 -2.20089
-0.897437 0.304511 -1.38947
-0.374853 0.111641 -1.39833
-0.867434 0.548122 1.82339
-0.408932 0.555 2.26403
4.13803e-06 0.0989447 1.80063
2.25753e-06 0.356039 2.26341
-0.898719 0.330025 1.44265
-0.414743 0.0934757 1.42833
3.97761e-07 0.91897 -1.73338
0 0.673888 -2.21873
-0.890995 0.681818 -1.37174
-0.417728 0.937698 -1.36288
-1.76819e-07 1.00221 1.84937
7.52509e-07 0.742705 2.25661
-0.866331 0.724253 1.47129
-0.410082 1.14867 1.48561
0.895904 0.486991 -1.76085
0.40942 0.481299 -2.27013
0.897437 0.30451 -1.38947
0.374856 0.111641 -1.39833
0.86743 0.54812 1.82339
0.408936 0.555 2.26403
0.898704 0.329678 1.44265
0.415096 0.0934755 1.42833
0.890995 0.681824 -1.37174
0.417734 0.937698 -1.36288
0.866332 0.724253 1.47129
0.410082 1.14866 1.48561
-0.836907 0.318238 0.0265912
-0.391891 0.103161 0.015
-0.871215 0.498375 -1.02591
-0.865662 0.509922 -0.316515
1.89245e-06 0.10531 -1.045
3.77295e-06 0.102083 -0.338333
-0.866232 0.521632 0.39288
-0.896253 0.534365 1.10227
6.27232e-06 0.101211 0.368333
6.39401e-06 0.0947478 1.075
-0.861394 0.709723 0.0497738
-0.519489 1.32169 0.061365
1.19328e-06 0.964547 -1.00682
1.01646e-06 1.2528 -0.294696
-1.32697e-07 1.33963 0.417426
-5.30458e-07 1.28572 1.12955
0.836912 0.318234 0.0265912
0.391899 0.10316 0.015
0.871388 0.498375 -1.02591
0.865664 0.509921 -0.316515
0.866233 0.521628 0.39288
0.896252 0.534361 1.10227
0.861397 0.709723 0.0497738
0.519493 1.32169 0.061365
-0.896951 0.30383 -1.75626
-0.885692 0.310273 -1.03545
-0.862829 0.686959 -1.01636
-0.864195 0.670633 -1.7399
0.89695 0.30383 -1.75626
0.864119 0.670636 -1.7399
0.862854 0.686963 -1.01636
0.885669 0.310272 -1.03545
-0.367548 0.117632 -1.75234
0.367549 0.11763 -1.75234
0.377082 0.10531 -1.045
-0.377078 0.105313 -1.045
-0.412614 0.919434 -1.72616
-0.416797 0.964582 -1.00682
0.416802 0.964582 -1.00682
0.412617 0.919434 -1.72616
-0.384831 0.302474 -2.20115
-0.40846 0.666668 -2.23019
0.40846 0.666668 -2.23049
0.384831 0.302474 -2.20115
-0.834429 0.312146 -0.327424
-0.839383 0.324401 0.380607
-0.861065 0.715156 0.405153
-0.861766 0.704308 -0.305605
0.834426 0.312147 -0.327424
0.861773 0.704311 -0.305605
0.861068 0.715155 0.405153
0.839388 0.324396 0.380607
-0.388302 0.103801 -0.338333
0.388307 0.103801 -0.338333
0.395439 0.102481 0.368333
-0.395429 0.102481 0.368333
-0.511034 1.24635 -0.294696
-0.520778 1.32854 0.417426
0.520776 1.32854 0.417426
0.511031 1.24634 -0.294696
-0.899073 0.33607 1.08864
-0.850837 0.352512 1.80253
-0.86012 0.729627 1.83253
-0.867246 0.718556 1.11591
0.899074 0.335893 1.08864
0.86732 0.718553 1.11591
0.860123 0.729626 1.83253
0.850772 0.352339 1.80253
-0.400117 0.0945197 1.075
0.400301 0.0945554 1.075
0.401015 0.0989898 1.79115
-0.400836 0.098975 1.79115
-0.411049 1.2807 1.12955
-0.408791 1.00388 1.84552
0.408791 1.00388 1.84552
0.411048 1.28093 1.12955
-0.39793 0.36552 2.26466
0.397935 0.36552 2.26466
0.408218 0.738852 2.25675
-0.408216 0.738852 2.25675
-0.755522 0.214075 -2.12447
-0.540363 0.123021 -2.10698
-0.727436 0.123189 -1.92833
-0.796844 0.285 2.16068
-0.580394 0.166696 2.1633
-0.780582 0.183137 1.95833
-0.819537 0.748522 -2.0951
-0.61125 0.856039 -2.09344
-0.83062 0.856442 -1.89697
-0.810423 0.825 2.19045
-0.61125 0.92727 2.21
-0.817282 0.914057 2.0197
0.540363 0.123011 -2.10699
0.755479 0.214075 -2.12443
0.727436 0.123189 -1.92833
0.5804 0.16674 2.16326
0.796849 0.285 2.16068
0.780598 0.183127 1.95833
0.61125 0.856036 -2.09344
0.819548 0.748522 -2.09511
0.830644 0.856466 -1.89697
0.61125 0.92727 2.21
0.810429 0.825 2.19046
0.81728 0.914055 2.0197
-0.756663 0.124806 -0.868333
-0.760453 0.131297 -0.515
-0.795564 0.216886 -0.686553
-0.578022 0.103497 -0.691667
-0.808665 0.12421 0.898333
-0.769515 0.153079 0.545
-0.806447 0.243643 0.728144
-0.597944 0.103341 0.721667
-0.832709 0.877881 -0.828787
-0.852472 0.792281 -0.655871
-0.830775 0.882398 -0.472726
-0.701613 1.09448 -0.650757
-0.823057 0.900481 0.951517
-0.848422 0.812429 0.767009
-0.825005 0.895979 0.595456
-0.710882 1.19248 0.773487
0.756665 0.124805 -0.868333
0.578025 0.103498 -0.691667
0.760458 0.131294 -0.515
0.79557 0.216883 -0.686553
0.811296 0.121584 0.898333
0.597955 0.103341 0.721667
0.769521 0.153077 0.545
0.806457 0.243634 0.728144
0.832714 0.877887 -0.828787
0.701542 1.09434 -0.650757
0.85248 0.792285 -0.655871
[...]
POINT_DATA 3682
SCALARS point_scalars float 1
LOOKUP_TABLE default
-182.089
-44.1553
-117.912
-45.6093
-181.839
-46.1073
-117.902
-46.4993
-37.2439
-24.6905
-46.0043
-45.6536
-37.289
-24.6111
-46.0539
-45.8484
-20.2102
-85.8988
-57.4097
-40.0498
-41.4911
-41.0503
-38.5198
7.73253
-80.7526
-37.0246
-23.3265
-43.3095
-40.305
-36.9583
5.99461
-109.45
-41.8575
-41.3273
-44.7665
-45.1127
-44.751
-106.837
-96.2443
-66.952
-62.1749
-45.1461
-45.1461
-45.1461
7.15719
-177.4
-39.9565
-30.0235
-45.6126
-36.6314
-33.5518
133.856
-35.0526
-33.9074
148.683
-37.8107
-37.6467
-34.3283
-107.39
-46.9555
-63.3244
-41.6179
-40.2339
-38.3286
1.95801
-177.172
-39.7837
-30.0145
-47.3642
-38.753
-36.0072
133.1
-37.0049
-36.0601
121.924
-39.1445
-38.2922
-30.5264
-107.181
-47.0006
-63.3904
-41.9599
-40.7461
-38.9754
-18.5852
-88.5148
-57.3545
-28.9271
-43.015
-42.9391
-40.3247
-41.6687
-80.9067
-37.0814
-23.7214
-44.7377
-42.1924
-38.6036
5.93443
-109.783
-41.9221
-41.521
-45.7367
-46.0332
-46.0312
-106.825
-95.99
-66.8451
-62.2653
-46.0205
-46.0205
-46.0205
-106.385
-248.968
-59.9301
-41.6782
-35.9454
-45.0078
-132.534
-46.6315
-40.0073
-49.6454
-106.418
-59.9432
-43.2312
-45.4899
-46.6152
-49.926
-33.689
-38.2377
-44.1244
-35.0469
-35.9005
-46.5856
-2.97984
-69.254
-33.7436
-38.2927
-35.2387
-46.6843
-59.307
-59.3619
-67.7002
-33.1225
204.056
-36.8968
-36.9876
-36.7646
-91.4741
-48.3695
-48.9268
-39.7486
-48.6392
-35.0896
-99.7803
-244.216
-91.0731
-41.3475
-36.6237
-45.342
-113.286
-116.615
-65.5976
-42.9346
-39.1238
-47.3028
-244.343
-97.6962
-91.0613
-38.5132
-43.1803
-46.531
-116.318
-113.275
-65.6268
-39.412
-44.152
-47.6459
-52.8811
-34.9564
-36.6161
-43.1108
-44.5391
-31.8339
-27.1069
-35.0118
-39.0478
-40.4353
-47.2424
-6.12877
-47.9962
-40.0472
-45.4302
-64.7043
-52.8673
-43.1192
-35.0131
-36.6737
-44.5434
-35.0747
-31.9083
-27.259
-39.0902
-6.14473
-40.4866
-47.3022
-48.2345
-64.7554
-40.2424
-45.5767
-85.0955
196.325
-105.289
137.574
-60.7829
-65.7551
-44.2297
-34.6055
-40.1968
-30.6973
-48.2318
-40.4675
-66.865
120.054
-56.342
-34.3749
-43.0852
-38.0092
-48.7761
-49.618
-84.8678
196.284
-60.8306
-65.766
-45.1495
-35.8546
-48.8107
-40.8307
-56.4096
-34.3933
-49.246
-49.6501
-34.3744
-36.0814
-46.7763
-37.2852
-52.5427
-39.4839
-35.8566
-45.0241
-35.6785
-37.9914
-40.3814
-81.6845
-12.5105
-40.0842
-76.4542
-61.5285
-34.459
-36.1028
-46.8096
-37.3535
-35.9697
-45.3708
-40.4787
-81.7257
-93.7125
-53.2438
-43.2161
-74.5924
-93.5728
-74.5363
-43.0302
-53.2288
-102.374
-102.415
-51.3454
-51.3416
-66.0391
-12.4914
-12.5292
-66.056
135.141
131.242
131.229
133.927
-35.031
-32.761
-39.6101
-40.6849
-35.1005
-40.7516
-39.7448
-32.8654
-38.5131
-38.5269
-34.9301
-34.8979
-41.5821
-68.6853
-68.7346
-41.6139
-45.9555
-44.9703
-44.4151
-44.6753
-46.3478
-44.9681
-45.1914
-46.019
-38.3495
-38.4958
-42.1364
-41.3888
-62.5474
-43.5322
-43.619
-62.5768
-31.2578
-34.1595
-37.6265
-37.2152
-96.2665
-238.765
-116.991
-42.7476
-39.1964
-41.8545
-101.931
-92.7468
-94.58
-45.4909
-39.4579
-44.033
-239.246
-99.7916
-117.526
-41.3046
-44.6849
-43.1858
-92.7569
-101.959
-94.8642
-40.0615
-46.6114
-44.5829
-41.4614
-35.6333
-36.2494
-41.2575
-27.7503
-29.9493
-24.2085
-33.1099
-44.1961
-42.6937
-46.9164
-37.1174
-46.611
-42.8613
-45.2897
-56.0314
-41.4965
-41.2721
-35.6855
-36.3039
-28.4803
-33.2097
-30.0306
-24.2614
-44.2495
-37.2575
-42.7426
-46.937
-46.8286
-56.1312
-43.0527
-45.4612
-92.1445
-115.808
-94.7089
161.916
-247.538
-247.551
-140.168
65.1648
-71.0616
-53.1279
-60.4731
-63.0136
-41.7333
-42.2851
-45.6442
-35.7695
-35.8464
-36.9895
-40.4288
-31.9881
-55.0614
-43.0659
-47.7762
-42.1643
-132.125
-131.735
-105.297
124.132
-54.1333
-40.3387
-52.1701
-36.7814
-39.6623
-39.76
-41.6136
-38.6456
-48.4887
-49.3574
-47.353
-52.3226
-91.8943
-115.861
-94.953
161.893
-71.0862
-53.1359
-60.5182
-63.0276
-43.4295
-43.6645
-46.9291
-37.0965
-55.9346
-43.3837
-48.3308
-42.6474
-54.1808
-40.4082
-52.2481
-36.8103
-48.7853
-49.6165
-47.7311
-52.3359
-34.6595
-32.9209
-33.8414
-35.0965
-37.3992
-39.0968
-40.3735
-37.4762
-43.8844
-43.889
-47.8613
-41.4168
-32.1451
-37.7869
-35.1261
-37.1288
-35.7167
-35.7493
-35.613
-36.1644
-47.0697
-45.9336
-43.2326
-61.3117
-3.13584
-3.15166
-1.62295
-16.1372
-68.3445
-68.3672
-72.4409
-66.3966
-34.7204
-32.9407
-33.9217
-35.1327
-37.4551
-39.1504
-40.4197
-37.4693
-32.3359
-37.98
-35.2744
-37.3853
-47.1522
-46.0543
-43.3317
-61.39
-71.4475
-60.2147
-58.0396
-52.7634
-71.5244
-60.266
-58.0938
-52.7989
-82.2063
-67.2094
-67.2155
-58.7051
-47.9308
-33.3502
-33.3591
-21.4703
203.107
167.77
190.77
203.084
-35.6673
-37.1481
-36.4743
-38.4285
-35.7562
-37.2264
-36.5931
-38.5221
-36.5999
-37.8568
-36.0914
-36.6107
-90.0791
-83.2168
-82.1506
-90.1086
-49.2985
-48.2841
-49.568
-46.9498
-50.0439
-48.8644
-50.1055
-47.3825
-40.3071
-39.825
-40.005
-38.8958
-45.4796
-48.8548
-48.8639
-53.7303
-34.7262
-32.664
-36.8906
-35.3009
-85.0287
136.064
-136.921
89.1645
-95.6184
-97.9065
-43.1911
-34.75
-42.0251
-32.9402
-44.3803
-43.1896
-100.032
119.132
-103.478
110.445
-71.9295
-65.7649
-46.4333
-37.0412
-41.4092
-37.7383
-44.3563
-44.881
-136.992
90.3437
-85.8763
135.041
-95.1585
-97.9595
-43.5669
-35.4361
-44.5436
-36.7024
-45.6216
-44.1872
-103.503
110.483
-100.057
119.008
-71.9273
-65.7892
-41.5742
-38.0683
-47.5431
-37.8423
-44.9664
-45.0257
-57.434
-49.7273
-34.6173
-37.1614
-40.6864
-35.4288
-46.8842
-40.4631
-45.9019
-40.1434
-32.1095
-33.6686
-30.7909
-35.0073
-34.7584
-35.6636
-42.4058
-15.628
-40.9031
-40.5138
-43.5608
-67.6726
-2.95987
-21.2363
-46.4452
-65.035
-39.5211
-41.4822
-42.3975
-55.4218
-66.2223
-65.1994
-57.5787
-49.7302
-46.8885
-40.4736
-34.6842
-37.1862
-40.7264
-35.4938
-46.2634
-40.3843
-34.8031
-35.7535
-32.2073
-33.7179
-30.9044
-35.3879
-42.4387
-15.7085
-2.9447
-21.2669
-40.9507
-40.5682
-43.6251
-67.5896
-46.7107
-65.187
-66.2737
-65.2413
-39.6815
-41.7268
-42.5371
-55.5075
-90.4008
-79.0803
156.994
186.006
-104.707
-104.726
137.404
137.432
-73.8363
-54.5082
-79.6941
-57.3074
-44.5483
-44.398
-32.6755
-36.1497
-40.8098
-40.3842
-30.0213
-32.0086
-46.4088
-52.9588
-39.4998
-41.2989
-66.4072
-66.4134
125.133
125.089
-48.5393
-64.107
-48.1424
-22.3954
-43.2332
-43.2496
-37.8491
-37.7349
-45.2039
-48.5913
-54.7947
-46.175
-90.4439
-78.9398
186.036
156.626
-73.8894
-54.5391
-79.716
-57.312
-45.2632
-45.5151
-34.7448
-36.8511
-46.8593
-53.8365
-39.722
-41.7964
-64.2129
-48.6286
-22.4182
-48.1581
-48.9554
-45.776
-46.2153
-54.8208
-34.7777
-33.7787
-37.0905
-35.3705
-48.9558
-44.6183
-36.117
-38.7179
-52.2395
-52.2363
-39.0762
-39.0837
-34.4332
-37.6306
-45.4388
-43.4724
-35.5008
-35.484
-38.0048
-38.08
-40.0285
-40.6179
-77.9148
-73.2645
-12.3479
-12.3761
-39.7597
-39.7883
-74.7561
-74.7799
-61.7721
-61.7877
-34.8534
-33.8732
-37.1073
-35.3972
-44.5948
-48.9684
-36.1866
-38.7852
-37.7596
-34.55
-45.8107
-43.7801
-40.6996
-40.1428
-73.3102
-77.9396
-91.3937
-74.0376
-72.707
-85.4246
-40.5283
-40.324
-53.732
-54.2476
-42.079
-45.7835
-51.6382
-40.5317
-98.5137
-99.1708
-69.429
-58.7796
-92.6762
-85.6484
-72.7657
-74.0692
-98.6563
-58.8464
-69.5306
-99.4261
-42.1258
-40.5814
-51.7219
-45.8116
-40.568
-54.2752
-53.7694
-40.3675
-132.517
-139.243
-81.6043
-75.8622
-132.654
-75.8978
-81.6146
-139.268
-45.158
-47.6171
-58.4202
-55.0769
-45.1506
-55.0716
-58.4168
-47.6142
-102.603
-48.8457
-47.8881
-104.45
-23.8977
-2.11609
-21.5907
-26.1917
-23.9663
-26.2249
-21.602
-2.20452
-102.625
-104.461
-47.8956
-48.8714
139.153
138.638
167.462
69.5839
67.5355
132.747
187.511
156.573
67.4555
157.103
187.49
132.705
138.66
69.6702
167.446
138.286
-35.0389
-34.275
-35.9614
-36.4029
-29.9481
-33.3091
-35.2134
-33.19
-42.3675
-42.8035
-38.0894
-37.3745
-43.1996
-38.7296
-38.6554
-43.5298
-35.1012
-36.4658
-36.0395
-34.3473
-43.2456
-43.6121
-38.7347
-38.7879
-42.5309
-37.5306
-38.1988
-42.9212
-30.0107
-33.2802
-35.3148
-33.449
-38.8083
-41.1984
-37.6726
-35.9744
-38.8273
-36.0042
-37.6815
-41.2043
-33.2356
-35.4391
-35.9434
-34.3537
-33.1727
-34.311
-35.9302
-35.4165
-60.6105
-65.5209
-82.3025
-16.4915
-54.7501
-71.0709
-80.3266
-57.4082
-54.8468
-57.4884
-80.3498
-71.0944
-60.2628
-16.504
-82.2534
-65.6053
-29.4101
-45.5991
-46.7175
-36.965
-41.5132
-44.6053
-50.685
-56.9266
-45.2754
-45.6892
-46.7198
-46.1241
-44.1268
-39.0422
-47.425
-48.124
-29.5765
-37.2878
-47.1653
-46.0222
-44.3494
-48.4344
-47.8462
-39.3529
-46.237
-47.3265
-47.363
-46.148
-42.7976
-57.4371
-51.5059
-45.9337
-34.7045
-36.0448
-38.9859
-40.8427
-34.7281
-41.202
-39.0984
-36.0906
-46.3142
-41.4598
-40.7068
-44.2779
-44.6844
-43.5399
-40.4361
-40.6003
-54.8943
-57.8449
-53.9348
-66.1441
-42.0087
-41.5903
-45.6481
-48.0142
-42.2726
-48.0942
-45.6513
-41.6377
-55.0217
-66.162
-54.0505
-57.8624
-35.6045
-31.5115
-32.1984
-35.1086
-37.5888
-36.776
-33.3687
-33.3565
-38.1976
-38.4315
-36.8263
-37.4704
-37.4635
-36.4539
-36.587
-38.3601
-124.784
-201.569
-151.596
-43.6543
-41.3993
-40.9234
-99.8358
-80.5255
-128.547
-45.5811
-41.0762
-43.6069
-202.09
-126.376
-152.624
-43.4764
-45.662
-42.4267
-80.6056
-99.8411
-128.604
-41.8641
-46.6173
-44.2455
-38.873
-36.3071
-36.316
-39.8235
-18.5239
-28.0737
-23.7069
-29.9695
-46.2049
-44.3612
-46.4039
-55.7037
-46.0678
-44.2752
-45.414
-49.7694
-38.9146
-39.8455
-36.3565
-36.3712
-18.432
-30.0948
-28.0619
-23.7532
-46.2608
-55.804
-44.4096
-46.4387
-46.2743
-49.9321
-44.4675
-45.5975
-103.383
-112.55
-122.795
66.6237
-248.755
-248.763
-175.508
-14.3003
-64.6878
-56.0699
-59.9783
-61.3445
-41.6126
-41.8902
-43.4543
-36.7824
-35.4039
-36.0775
-38.7214
-33.6489
-47.1956
-43.6549
-46.7929
-43.4826
-137.459
-138.804
-139.938
7.72048
-49.9852
-42.7956
-49.8712
-39.9259
-39.9094
-39.9507
-40.866
-39.1372
-48.5692
-49.5103
-48.2102
-55.5417
-103.357
-112.612
-122.904
66.644
-64.7093
-56.0795
-60.018
-61.3581
-43.2382
-43.3557
-44.8552
-38.1201
-47.7763
-43.9549
-47.3303
-43.9642
-50.0341
-42.8867
-49.9248
-39.9623
-48.8577
-49.7828
-48.5412
-55.6011
-34.4103
-33.3613
-33.6778
-34.243
-37.8175
-38.6615
-39.0236
-37.7279
-44.106
-44.1081
-45.8205
-42.7254
-33.6523
-36.4647
-35.0625
-35.533
-35.8596
-35.8761
-35.7082
-36.0633
-46.8661
-46.2626
-44.9127
-52.7902
-2.98019
-2.98857
-1.11455
-8.33905
-69.0373
-69.0482
-70.8286
-67.8366
-34.4831
-33.4338
-33.7519
-34.2909
-37.873
-38.716
-39.0753
-37.786
-33.8437
-36.6562
-35.2304
-35.7279
-46.9563
-46.3717
-45.0123
-52.8721
-64.6854
-59.9435
-58.7344
-55.3304
-64.7487
-59.997
-58.7899
-55.3788
-73.642
-67.6442
-67.6478
-62.8911
-40.0793
-33.1884
-33.1925
-27.0335
203.884
194.491
203.582
203.871
-36.2628
-37.0534
-36.6862
-37.6094
-36.3524
-37.1378
-36.7836
-37.7015
-36.7427
-37.2684
-36.3956
-36.748
-91.1963
-93.2789
-86.0786
-91.2076
-49.8612
-48.3098
-48.5809
-47.6509
-50.5214
-48.8815
-49.1217
-48.1374
-40.0595
-39.7243
-39.8138
-39.3178
-46.9748
-48.6779
-48.6816
-51.032
-34.9183
-33.9152
-36.0566
-35.1868
-102.358
-99.8484
-128.661
89.2843
-253.558
-245.367
-167.76
6.00451
-104.674
-80.1172
-98.6105
-94.2443
-42.3993
-41.7839
-42.609
-36.5175
-37.6595
-35.902
-40.0905
-34.4593
-41.0483
-55.1998
-44.7452
-44.574
-105.359
-116.721
-124.837
45.8671
-101.259
-125.844
-135.998
-18.3712
-78.106
-59.4787
-69.4951
-64.9936
-43.9113
-42.6023
-44.6951
-37.7894
-39.1022
-39.3655
-40.279
-38.2323
-44.7326
-46.7802
-45.1082
-47.7257
-254.236
-245.394
-167.835
6.83344
-97.9856
-99.1597
-129.563
88.9047
-104.781
-80.14
-98.378
-94.2981
-39.8115
-37.5533
-42.1007
-36.6506
-44.3304
-43.554
-44.1766
-38.2642
-42.1667
-56.2941
-46.0036
-45.6497
-100.735
-125.979
-136.038
-14.8587
-105.361
-116.745
-124.896
45.755
-78.1261
-59.5228
-69.523
-65.0224
-39.5313
-39.5431
-40.5066
-38.5497
-45.0783
-43.8922
-45.8604
-38.7793
-45.1059
-47.0932
-45.6021
-48.0159
-46.4958
-50.9192
-57.5639
-49.0643
-35.316
-34.7435
-34.4671
-36.0782
-36.3896
-36.9449
-38.0302
-35.8446
-42.4078
-43.565
-44.8785
-41.6828
-45.2851
-42.9075
-45.7786
-42.3801
-31.1388
-32.6576
-31.7561
-32.6043
-24.9386
-29.9127
-29.2215
-23.9898
-34.3208
-35.4454
-34.8194
-35.3353
-42.9909
-38.6759
-42.1865
-22.9131
-41.3556
-39.6835
-40.4958
-40.4357
-47.2624
-47.189
-45.352
-54.8508
-12.4177
-3.81807
-2.74839
-12.6574
-47.2739
-48.7424
-47.0555
-53.818
-41.3617
-38.9331
-39.6492
-40.6272
-45.3056
-45.6489
-43.9032
-50.1232
-62.6979
-67.0283
-65.3843
-64.6963
-46.5114
-50.9246
-57.5878
-49.0674
-42.4179
-43.5717
-44.8842
-41.693
-35.3705
-34.8022
-34.535
-36.1134
-36.4467
-37.0018
-38.0801
-35.9065
-46.4332
-43.1921
-46.0057
-42.532
-34.3978
-35.4938
-34.8724
-35.4097
-31.1358
-32.7444
-31.8498
-32.6653
-25.048
-30.0911
-29.343
-24.2111
-43.0363
-38.5961
-42.2253
-22.9704
-12.3742
-3.83951
-2.79077
-12.7119
-41.4054
-39.736
-40.5456
-40.4846
-47.2981
-47.2624
-45.415
-54.9382
-47.5016
-48.9905
-47.3047
-53.9305
-62.7725
-67.0644
-65.4356
-64.7438
-41.5547
-39.1279
-39.8253
-40.8468
-45.4648
-45.7824
-44.0465
-50.2322
-85.8977
-79.9823
-87.9188
-81.9638
187.014
201.175
182.091
196.399
-120.609
-92.6201
-105.145
-105.155
114.731
147.141
136.452
136.462
-60.6288
-60.5566
-66.358
-56.8213
-64.5763
-66.6706
-71.4541
-61.1382
-45.0922
-46.1057
-44.2477
-44.3123
-35.0034
-34.5562
-33.6547
-35.4421
-39.4664
-40.6541
-40.405
-40.181
-31.17
-31.3315
-30.2923
-31.3205
-48.0704
-48.2528
-47.0873
-49.903
-41.1437
-40.08
-39.9887
-40.9068
-83.4866
-56.3845
-66.6696
-66.6713
130.31
154.899
118.491
118.484
-54.2702
-57.0124
-52.1122
-60.1483
-35.2969
-33.7089
-40.939
-28.2825
-42.1707
-44.2876
-43.1253
-43.128
-38.3454
-37.555
-37.9632
-37.9217
-47.3295
-49.9044
-46.8731
-50.0429
-50.5304
-49.1605
-52.0186
-47.8121
-85.8102
-80.0817
-87.9291
-81.7291
186.964
201.139
196.386
181.927
-60.6749
-60.606
-66.4107
-56.8632
-64.5894
-66.6794
-71.4706
-61.1454
-46.1861
-46.9304
-45.2087
-45.1882
-36.4115
-35.4638
-35.2894
-36.3743
-48.6415
-48.8368
-47.5951
-50.5783
-41.5829
-40.3461
-40.2553
-41.3317
-54.3612
-57.0595
-60.2065
-52.1404
-35.3204
-33.7225
-28.303
-40.9558
-47.7553
-50.4171
-50.4241
-47.3905
-50.5676
-49.178
-47.8637
-52.0464
-34.1045
-34.9989
-34.598
-34.1025
-35.6473
-36.3672
-36.5631
-35.6529
-42.9015
-50.9483
-47.8252
-45.7294
-37.4048
-37.2292
-36.6929
-37.9576
-50.1557
-55.3177
-52.4693
-52.4678
-40.2017
-38.5644
-39.3282
-39.3317
-35.5707
-36.1822
-35.137
-36.6996
-41.1798
-46.1576
-45.2641
-44.5492
-35.6481
-35.8171
-35.6537
-35.6454
-37.0449
-38.4336
-37.9672
-38.0029
-41.6431
-39.3515
-40.1814
-40.5715
-74.4252
-87.8919
-86.5124
-76.7515
-7.10975
-16.8087
-12.4577
-12.47
-25.4623
-58.0085
-39.9778
-39.9907
-74.302
-79.0344
-76.0419
-76.0534
-65.2563
-57.1232
-61.5259
-61.5298
-34.1868
-35.0862
-34.6779
-34.192
-35.6752
-36.3834
-36.582
-35.6773
-42.9439
-50.9711
-45.746
-47.8458
-37.4684
-37.3023
-36.7616
-38.0254
-35.7049
-36.3273
-36.8258
-35.2571
-41.5175
-46.5438
-45.6215
-44.8894
-41.7418
-39.4469
-40.6606
-40.287
-74.4884
-87.9511
-76.7961
-86.5482
-79.4133
-90.8972
-92.3623
-84.5336
-54.7543
-45.5806
-54.2549
-51.0009
-42.7483
-41.7485
-45.4506
-43.7364
-86.7849
-73.1325
-75.575
-67.3318
-79.6171
-90.888
-92.4268
-84.5978
-86.7395
-73.1075
-75.4809
-67.3956
-42.7751
-41.7948
-45.5109
-43.6848
-54.6643
-45.5993
-54.2728
-50.9971
-117.009
-100.593
-103.697
-89.8536
-117.709
-100.64
-103.728
-89.8842
-50.5174
-49.1451
-53.8898
-51.8498
-50.5144
-49.141
-53.8856
-51.8449
-81.6649
-65.9217
-66.1613
-56.0352
-13.3513
-7.0162
-17.231
-12.2603
-13.3223
-7.06294
-17.2549
-12.3565
-81.6406
-65.9412
-66.1714
-56.05
138.199
122.499
133.88
136.419
137.33
135.534
162.263
128.771
135.311
137.379
128.69
162.299
123.492
136.64
136.457
133.082
-34.7978
-35.1913
-34.9094
-35.5189
-32.4095
-31.9432
-33.3331
-33.5547
-39.5167
-40.9106
-38.5875
-39.7875
-40.6109
-41.9423
-39.6364
-40.6867
-34.8662
-35.2586
-34.9816
-35.5889
-40.6703
-42.0085
-39.7032
-40.7605
-39.6632
-41.0476
-38.7193
-39.9118
-32.5095
-32.0521
-33.4325
-33.6666
-37.9522
-39.3876
-37.7521
-38.8782
-39.3997
-37.9703
-38.8888
-37.7675
-34.8356
-34.4158
-35.2597
-35.1211
-34.3753
-34.7978
-35.0926
-35.2349
-51.1801
-30.5297
-55.8179
-39.2307
-62.5906
-67.2434
-70.6614
-72.459
-67.2942
-62.653
-72.4957
-70.7088
-30.503
-51.2163
-39.2605
-55.8226
-46.0318
-45.7231
-46.0778
-45.703
-42.101
-44.602
-45.1122
-50.1689
-45.7103
-44.3346
-44.4234
-44.4946
-45.7628
-42.5584
-46.2113
-43.583
-46.441
-46.1218
-46.4913
-46.0869
-46.0486
-42.8055
-46.5336
-43.8611
-46.661
-45.0346
-45.2495
-45.1613
-43.1788
-45.7125
-46.1159
-51.2088
-38.9201
-37.0296
-38.9736
-38.0912
-39.1116
-37.1448
-39.159
-38.2033
-41.5265
-43.081
-41.3633
-42.5149
-40.7476
-42.1936
-40.7688
-41.8977
-63.3381
-65.9976
-58.1606
-62.1579
-42.3897
-43.9067
-43.3498
-44.8463
-42.5141
-44.0339
-43.395
-44.9056
-63.3692
-66.0241
-58.1973
-62.1728
-33.0314
-31.9536
-31.7552
-30.2556
-34.7255
-35.5854
-32.9377
-34.29
-37.874
-37.6634
-37.7088
-37.2724
-37.0227
-37.5204
-36.7432
-37.4762
-145.242
84.8718
-163.912
28.7199
-98.6061
-127.424
-42.1664
-37.6861
-42.4882
-36.9567
-41.1373
-44.9933
-131.54
35.953
-123.714
3.27958
-97.0238
-98.9567
-45.8215
-38.5055
-40.6614
-38.2331
-44.0599
-43.1417
-164.05
32.0334
-147.793
88.496
-99.9431
-127.662
-44.4112
-39.038
-43.7359
-39.606
-42.4109
-46.5346
-123.727
3.34665
-131.617
35.806
-97.7756
-98.9464
-41.0396
-38.9842
-46.8893
-39.4361
-44.8834
-43.4401
-40.8718
-43.5981
-35.0216
-37.5258
-37.7302
-35.5088
-42.9565
-39.9177
-26.8367
-35.2679
-29.804
-31.4971
-27.68
-16.8693
-32.9832
-33.7663
-43.5607
-40.6504
-42.42
-42.959
-45.0063
-57.2778
-26.9383
-42.1627
-45.4319
-49.9619
-42.5101
-43.4006
-43.8249
-49.6358
-54.8164
-55.5826
-40.9161
-43.6129
-42.9667
-39.935
-35.0842
-37.5542
-37.779
-35.5669
-27.8206
-34.9668
-33.0589
-33.8635
-29.894
-31.5652
-27.7654
-17.0081
-43.6104
-40.7061
-27.0295
-42.4219
-42.4703
-43.0051
-45.0435
-57.0665
-45.6504
-50.1497
-54.9157
-55.6722
-42.687
-43.6077
-43.9922
-49.7752
-121.675
84.9392
-124.421
61.7078
-89.8611
-97.4627
156.971
161.607
-172.243
-12.1755
-172.277
-12.0941
-139.755
-139.767
76.7514
76.7754
-73.3447
-73.3488
-53.7032
-54.0139
-66.0327
-56.5273
-68.5424
-58.6015
-43.1985
-36.4357
-43.9137
-37.2483
-45.1488
-45.9241
-35.4173
-36.1024
-38.778
-33.2876
-39.9222
-34.7565
-40.6183
-40.1747
-31.6116
-32.594
-59.0896
-47.1662
-44.5443
-41.7875
-46.1694
-50.1384
-41.4251
-42.893
-137.803
-2.71751
-137.848
12.5767
-104.89
-104.89
132.122
132.101
-57.2263
-50.3754
-43.8442
-31.167
-48.7677
-55.2666
-42.6087
-31.1487
-40.6725
-38.8198
-40.7516
-38.8957
-41.6124
-41.6289
-38.5798
-38.5517
-46.8135
-51.3296
-48.4274
-58.6546
-46.6499
-48.1552
-55.0825
-50.093
-121.793
85.1131
-124.512
61.7699
-90.0568
-97.8445
161.692
158.181
-73.3623
-73.3878
-53.7281
-54.0203
-66.0805
-56.5661
-68.5657
-58.6099
-44.6898
-37.9631
-45.1991
-38.3912
-47.1676
-46.4592
-36.9197
-37.2664
-59.277
-48.1494
-44.9045
-42.307
-46.6493
-50.7637
-41.7837
-43.457
-57.2784
-50.4113
-43.8793
-31.2059
-55.3355
-48.8208
-31.1795
-42.6352
-47.1971
-51.4145
-48.7111
-58.7565
-48.4979
-47.0652
-50.1485
-55.3302
-34.0506
-35.1622
-32.7998
-33.4674
-34.0433
-33.5056
-35.513
-34.613
-38.5122
-36.7629
-39.6029
-38.8481
-40.2059
-40.5417
-36.9527
-38.0639
-45.5689
-42.4894
-45.5726
-42.4952
-47.8121
-47.8107
-41.4182
-41.4211
-32.6318
-31.5357
-37.4201
-38.5417
-34.2531
-36.2653
-37.1269
-37.9211
-35.5156
-35.9075
-35.5421
-35.9463
-35.589
-35.5778
-36.1684
-36.1917
-45.284
-53.9715
-44.347
-51.2142
-43.0161
-43.4505
-63.9454
-59.1913
-1.03821
-8.69518
-1.05566
-8.70969
-2.16441
-2.34332
-16.1708
-16.1776
-69.6601
-67.324
-69.6834
-67.3444
-72.1102
-72.1216
-66.3471
-66.3555
-34.1233
-35.2039
-32.8919
-33.522
-34.1187
-33.5915
-35.5457
-34.6532
-38.5632
-36.8227
-39.6544
-38.9039
-40.5902
-40.251
-36.9857
-38.1236
-32.7916
-31.7608
-37.5937
-38.7391
-36.4184
-34.3983
-37.4398
-38.2013
-45.3671
-54.0571
-44.4674
-51.308
-43.5406
-43.1244
-59.2703
-64.0269
-72.3057
-70.4682
-65.6792
-56.2403
-54.0583
-63.0959
-53.3202
-52.3878
-72.3708
-70.5515
-65.7362
-56.2857
-63.1552
-54.1099
-52.4305
-53.3591
-82.0577
-82.0622
-73.1021
-62.4529
-73.1114
-62.4441
-58.8204
-58.8182
-47.862
-47.8654
-40.2106
-27.2177
-27.2278