# vtk DataFile Version 2.0
tet_velo
ASCII
DATASET UNSTRUCTURED_GRID
POINTS 29498 float
-0.728582 0.225 -1.795
-0.765 0.315 1.87193
-0.735 0.79946 -1.775
-0.671765 1.115 1.775
0.728567 0.225 -1.795
0.765 0.315 1.87208
0.735 0.800032 -1.775
0.672229 1.115 1.775
-0.791963 0.203759 -0.57269
-0.833933 0.203927 0.64962
-0.796006 0.986724 -0.591667
-0.774863 1.09184 0.591667
0.791953 0.203759 -0.57264
0.833947 0.203909 0.64972
0.796065 0.98701 -0.591667
0.774401 1.09126 0.591667
-1.50786 -0.218372 -2.7451
-1.51316 -0.16042 -1.78286
-1.56169 -0.175578 -0.559536
-1.59092 -0.18995 0.671628
-1.55459 -0.119861 1.89561
-1.54254 -0.0572067 2.86109
-1.54814 -0.00191244 3.82058
-1.50592 0.130801 -2.74912
-1.50994 0.211582 -1.79114
-1.56922 0.222539 -0.575405
-1.59023 0.222239 0.643831
-1.52426 0.293805 1.86031
-1.52375 0.355308 2.82524
-1.53974 0.409313 3.786
-1.50934 0.784611 -2.74622
-1.51469 0.861827 -1.78662
-1.56737 0.999908 -0.597456
-1.54773 1.07956 0.588937
-1.46079 1.11733 1.77884
-1.49037 1.17457 2.74536
-1.52726 1.23024 3.71239
-1.52444 1.89152 -2.77119
-1.53122 1.98813 -1.81743
-1.5505 2.15 -0.640914
-1.5535 2.28746 0.527197
-1.5381 2.3673 1.70412
-1.53663 2.41523 2.65871
-1.54774 2.46329 3.62149
-0.744301 -0.211078 -2.74761
-0.73615 -0.149162 -1.78652
-0.77514 -0.183841 -0.559025
-0.81226 -0.203334 0.676587
-0.790121 -0.112068 1.90426
-0.783915 -0.0514776 2.86697
-0.789734 0.000417061 3.824
-0.74517 0.130507 -2.74989
-0.775742 0.362579 2.83008
-0.787033 0.412108 3.78858
-0.748045 0.758856 -2.74139
-0.749673 1.17617 2.7446
-0.780954 1.23175 3.71225
-0.755305 1.87251 -2.76642
-0.757365 1.96947 -1.81217
-0.775547 2.14419 -0.637739
-0.7884 2.2922 0.526828
-0.785248 2.37157 1.70142
-0.786181 2.41759 2.65602
-0.79529 2.46485 3.61953
0.758241 -0.210998 -2.7476
0.765037 -0.149146 -1.7865
0.802461 -0.183851 -0.558978
0.815105 -0.203365 0.676674
0.767056 -0.112088 1.90438
0.742392 -0.0515098 2.86706
0.730927 0.000369474 3.82407
0.744483 0.130637 -2.74988
0.725506 0.362554 2.83017
0.720071 0.412061 3.78865
0.745122 0.759161 -2.74139
0.693527 1.17613 2.74464
0.704798 1.23169 3.7123
0.773546 1.8727 -2.76641
0.779661 1.96964 -1.81216
0.774628 2.14422 -0.637727
0.746609 2.29206 0.526844
0.716302 2.37142 1.70144
0.708053 2.41747 2.65604
0.706187 2.46475 3.61957
1.51957 -0.218203 -2.74507
1.52916 -0.160328 -1.78282
1.5791 -0.175605 -0.559456
1.60134 -0.190072 0.671768
1.55079 -0.11994 1.89579
1.51537 -0.0572922 2.86125
1.49907 -0.00201717 3.82072
1.50452 0.131057 -2.7491
1.50691 0.211761 -1.79112
1.56988 0.22253 -0.575338
1.59954 0.222037 0.643959
1.53337 0.293737 1.86048
1.49514 0.355226 2.82539
1.48489 0.409205 3.78613
1.50479 0.785082 -2.7462
1.50971 0.862388 -1.78661
1.56446 1.00007 -0.597432
1.55212 1.07904 0.588984
1.46558 1.11716 1.77891
1.45443 1.17444 2.74545
1.46276 1.23011 3.71249
1.5382 1.89184 -2.77117
1.54602 1.98841 -1.81741
1.54712 2.15004 -0.640886
1.51957 2.28722 0.527234
1.48106 2.36703 1.70416
1.46699 2.41501 2.65877
1.46446 2.4631 3.62156
-0.767449 0.51223 -1.82066
-7.51019e-06 0.220194 -1.79981
-0.772251 0.2024 -1.18385
-0.756231 0.715 1.86131
0 0.324254 1.86275
-0.763671 0.295259 1.26078
0 0.860247 -1.8355
-0.783631 0.91122 -1.18333
0.000231981 1.18566 1.84566
-0.757883 1.13799 1.18333
0.767435 0.512516 -1.82065
0.772248 0.202391 -1.18382
0.756408 0.715 1.86133
0.763555 0.295373 1.2609
0.783359 0.911348 -1.18333
0.757356 1.13717 1.18333
-0.813062 0.203729 0.038465
-0.866232 0.595242 -0.582178
-4.97255e-06 0.181612 -0.572665
-0.870909 0.647883 0.620643
6.68989e-06 0.190287 0.64967
-0.78487 1.03872 0
2.95984e-05 1.27267 -0.591667
-0.000230718 1.55751 0.591667
0.813055 0.203729 0.03854
0.865263 0.595385 -0.582153
0.868983 0.647584 0.620693
0.784688 1.03859 0
-0.89575 0.553736 -1.18359
-0.877099 0.621563 0.0192325
-0.87158 0.681442 1.22205
-6.24137e-06 0.152329 -1.18383
8.5867e-07 0.185888 0.0385025
3.34494e-06 0.196586 1.26084
-3.75509e-06 0.512373 -2.0423
0.000115991 0.715 1.97952
1.47992e-05 1.03546 -1.18333
-0.00010056 1.53215 0
6.31563e-07 1.53691 1.18333
0.895747 0.55395 -1.18358
0.875928 0.621484 0.01927
0.870918 0.681292 1.22212
-1.11926 0.218291 -1.79307
-0.732366 0.0379191 -1.79076
-0.736876 0.177753 -2.27245
-1.14463 0.304402 1.86612
-0.777561 0.101466 1.8881
-0.770371 0.33879 2.35101
-1.12485 0.830644 -1.78081
-0.741522 0.779158 -2.2582
-0.746182 1.38447 -1.79359
-1.06628 1.11617 1.77692
-0.710719 1.14558 2.2598
-0.728506 1.74328 1.73821
0.746802 0.0379271 -1.79075
0.736525 0.177819 -2.27244
1.11774 0.21838 -1.79306
0.766028 0.101456 1.88823
0.745253 0.338777 2.35113
1.14919 0.304369 1.86628
0.740061 0.779596 -2.25819
0.757331 1.38484 -1.79358
1.12235 0.83121 -1.7808
0.682878 1.14556 2.25982
0.694266 1.74321 1.73822
1.06891 1.11608 1.77695
-1.18059 0.213149 -0.574048
-0.783551 0.00995902 -0.565858
-1.21208 0.213083 0.646725
-0.823097 0.000296732 0.663103
-1.18169 0.993316 -0.594562
-0.785777 1.56546 -0.614703
-1.16129 1.0857 0.590302
-0.781631 1.69202 0.559247
0.797207 0.00995385 -0.565809
1.18092 0.213145 -0.573989
0.824526 0.000271937 0.663197
1.21674 0.212973 0.64684
0.785347 1.56561 -0.614697
1.18026 0.993539 -0.594549
0.760505 1.69166 0.559255
1.16326 1.08515 0.590325
-1.51051 -0.189396 -2.26398
-1.50689 -0.0437855 -2.74711
-1.12608 -0.214725 -2.74636
-1.53743 -0.167999 -1.1712
-1.51155 0.0255808 -1.787
-1.12466 -0.154791 -1.78469
-1.57631 -0.182764 0.0560462
-1.56545 0.0234808 -0.56747
-1.16842 -0.179709 -0.559281
-1.57276 -0.154905 1.28362
-1.59058 0.0161446 0.65773
-1.20159 -0.196642 0.674108
-1.54856 -0.088534 2.37835
-1.53942 0.0869718 1.87796
-1.17236 -0.115965 1.89994
-1.54534 -0.0295596 3.34084
-1.53315 0.149051 2.84316
-1.16323 -0.0543421 2.86403
-1.54394 0.2037 3.80329
-1.16894 -0.000747691 3.82229
-1.50793 0.171192 -2.27013
-1.50763 0.457706 -2.74767
-1.12555 0.130654 -2.74951
-1.53958 0.217061 -1.18327
-1.51231 0.536704 -1.78888
-1.57973 0.222389 0.0342129
-1.56829 0.611224 -0.586431
-1.55725 0.258022 1.25207
-1.56898 0.650901 0.616384
-1.52401 0.324556 2.34277
-1.49252 0.705569 1.81957
-1.53175 0.38231 3.30562
-1.50706 0.764937 2.7853
-1.14975 0.358943 2.82766
-1.5335 0.819778 3.7492
-1.16339 0.410711 3.78729
-1.51202 0.823219 -2.26642
-1.51689 1.33806 -2.75871
-1.12869 0.771733 -2.7438
-1.54103 0.930868 -1.19204
-1.52296 1.42498 -1.80202
-1.55755 1.03974 -0.00425991
-1.55893 1.57495 -0.619185
-1.50426 1.09845 1.18389
-1.55061 1.68351 0.558067
-1.47558 1.14595 2.2621
-1.49944 1.74232 1.74148
-1.50882 1.2024 3.22887
-1.5135 1.7949 2.70203
-1.12002 1.17537 2.74498
-1.5375 1.84677 3.66694
-1.15411 1.231 3.71232
-1.52783 1.93983 -2.29431
-1.13987 1.88202 -2.76881
-1.54086 2.06907 -1.22917
-1.14429 1.9788 -1.8148
-1.552 2.21873 -0.0568587
-1.16302 2.14709 -0.639327
-1.5458 2.32738 1.11566
-1.17095 2.28983 0.527012
-1.53737 2.39127 2.18141
-1.16167 2.36944 1.70277
-1.54219 2.43926 3.1401
-1.16141 2.41641 2.65736
-1.17152 2.46407 3.62051
-0.740225 -0.18012 -2.26706
-0.744735 -0.0402857 -2.74875
0.00696989 -0.211038 -2.7476
-0.755645 -0.166501 -1.17277
0.0144437 -0.149154 -1.78651
-0.7937 -0.193587 0.0587808
0.0136606 -0.183846 -0.559002
-0.801191 -0.157701 1.29043
0.00142222 -0.20335 0.67663
-0.787018 -0.0817727 2.38562
-0.0115328 -0.112078 1.90432
-0.786825 -0.0255303 3.34548
-0.779829 0.155551 2.84853
-0.0207617 -0.0514937 2.86702
-0.788384 0.206263 3.80629
-0.0294034 0.000393267 3.82403
-0.746607 0.444681 -2.74564
-0.000343553 0.130572 -2.74989
-0.781388 0.387344 3.30933
-0.762708 0.769375 2.78734
-0.0251182 0.362566 2.83013
-0.783994 0.821929 3.75041
-0.033481 0.412084 3.78861
-0.751675 1.31568 -2.7539
-0.00146129 0.759008 -2.74139
-0.765314 1.20396 3.22842
-0.767927 1.79688 2.70031
-0.0280734 1.17615 2.74462
-0.788122 1.8483 3.66589
-0.0380782 1.23172 3.71227
-0.756335 1.92099 -2.2893
0.00912025 1.8726 -2.76641
-0.766456 2.05683 -1.22496
0.0111481 1.96956 -1.81217
-0.781974 2.21819 -0.0554555
-0.000459683 2.1442 -0.637733
-0.786824 2.33188 1.11412
-0.0208952 2.29213 0.526836
-0.785715 2.39458 2.17872
-0.0344729 2.3715 1.70143
-0.790736 2.44122 3.13778
-0.0390642 2.41753 2.65603
-0.0445516 2.4648 3.61955
0.761639 -0.180072 -2.26705
0.751362 -0.0401802 -2.74874
1.13891 -0.214601 -2.74634
0.783749 -0.166498 -1.17274
1.1471 -0.154737 -1.78466
0.808783 -0.193608 0.0588481
1.19078 -0.179728 -0.559217
0.79108 -0.157726 1.29053
1.20822 -0.196719 0.674221
0.754724 -0.0817987 2.38572
1.15892 -0.116014 1.90008
0.73666 -0.0255702 3.34556
0.733949 0.155522 2.84862
1.12888 -0.054401 2.86416
0.725499 0.206215 3.80636
1.115 -0.000823847 3.82239
0.744802 0.444899 -2.74564
1.1245 0.130847 -2.74949
0.722789 0.387307 3.30941
0.709516 0.769341 2.78741
1.11032 0.35889 2.82778
0.712435 0.821874 3.75047
1.10248 0.410633 3.78739
0.759334 1.31593 -2.7539
1.12496 0.772121 -2.7438
0.699162 1.20391 3.22847
0.70079 1.7968 2.70034
1.07398 1.17528 2.74504
0.705492 1.84822 3.66593
1.08378 1.2309 3.71239
0.776603 1.92117 -2.28928
1.15587 1.88227 -2.76879
0.777145 2.05693 -1.22495
1.16284 1.97903 -1.81479
0.760619 2.21814 -0.0554415
1.16087 2.14713 -0.639307
0.731456 2.33174 1.11414
1.13309 2.28964 0.527039
0.712177 2.39445 2.17874
1.09868 2.36923 1.7028
0.70712 2.44111 3.13781
1.08752 2.41624 2.65741
1.08532 2.46393 3.62056
1.52437 -0.189266 -2.26395
1.51205 -0.0435733 -2.74709
1.55413 -0.167967 -1.17114
1.51803 0.0257163 -1.78697
1.59022 -0.182838 0.0561561
1.57449 0.0234627 -0.567397
1.57606 -0.155006 1.28378
1.60044 0.0159826 0.657864
1.53308 -0.0886161 2.37852
1.54208 0.0868986 1.87814
1.50722 -0.0296547 3.34098
1.50526 0.148967 2.84332
1.49198 0.203594 3.80342
1.50571 0.171409 -2.27011
1.50465 0.458069 -2.74765
1.5384 0.217146 -1.18323
1.50831 0.537075 -1.78886
1.58471 0.222284 0.0343109
1.56717 0.611299 -0.586385
1.56645 0.257887 1.25222
1.57583 0.650538 0.616472
1.51426 0.324482 2.34293
1.49948 0.705448 1.81969
1.49001 0.382216 3.30576
1.47479 0.764834 2.78542
1.47383 0.819657 3.74931
1.50725 0.823735 -2.26641
1.5215 1.33846 -2.75869
1.53708 0.931228 -1.19202
1.52786 1.4254 -1.80201
[...]
POINT_DATA 29498
VECTORS point_vectors float
-2.76901 -5.28122 8.65228
0.222178 0.176356 0.856524
-2.07673 1.81804 3.37003
-0.0552929 -0.0439018 0.00386016
2.76023 -5.34774 8.67728
-0.231213 0.236823 1.07187
2.12097 1.86791 3.46423
0.0751667 -0.0518696 0.00432671
0.0502983 -0.0350484 0.953257
0.0631677 -0.00784198 2.71297
-2.18298e-17 -6.93225e-18 2.6448e-16
0 0 0
-0.0493739 -0.0338938 0.95251
-0.0628477 -0.00828298 2.70869
0 0 0
0 0 0
-0.724007 -0.449631 19.9226
-1.24105 -0.845208 20.6977
-0.41353 -0.443512 21.4859
0.116985 -0.166636 21.6748
0.68645 0.0878033 21.6142
0.999825 0.21703 21.3657
1.00876 0.171919 20.8229
-0.939572 -0.364081 19.7549
-1.86698 -0.783896 20.6069
-0.622079 -0.588446 21.5798
0.0748814 -0.358538 21.7497
0.830521 -0.21172 21.7476
1.20273 -0.11743 21.455
1.25708 -0.198138 21.1119
-1.04859 0.063506 19.6199
-2.13723 0.139948 20.3995
-1.38327 -0.351722 21.5067
-0.481991 -0.496267 21.8324
0.284362 -0.692003 21.7925
0.676746 -0.811747 21.5455
0.841513 -0.697397 21.3854
-0.577117 0.36763 19.9626
-0.90436 0.59357 20.3367
-0.926468 0.502714 21.0556
-0.500853 0.0917711 21.4662
-0.105711 -0.224512 21.4648
0.0443585 -0.304794 21.4009
0.121218 -0.39112 21.0699
-0.768483 -1.02614 19.2567
-1.62195 -3.23295 21.1067
-0.302234 -0.502272 22.0576
0.159014 0.0803912 21.9297
0.864253 1.09076 21.0968
1.35062 1.51283 20.4543
1.34645 1.42097 20.5108
-1.04596 -0.891232 18.6737
1.99774 0.949422 11.923
2.25632 1.03221 14.7808
-1.28396 0.273098 18.202
0.0465398 -0.982574 6.47889
1.307 -1.32587 11.7914
-0.487685 0.731944 19.5611
-0.932562 1.46002 19.9765
-1.19397 1.59907 21.0206
-0.626966 0.60251 21.8547
-0.204362 -0.107796 21.6676
-0.0449985 -0.378111 21.4103
-0.0184972 -0.463424 20.9682
0.763744 -1.0092 19.2739
1.67509 -3.13167 21.0684
0.303021 -0.493161 22.0304
-0.16004 0.078648 21.941
-0.841812 1.11738 21.0237
-1.3086 1.55979 20.4109
-1.31343 1.57992 20.3302
1.04928 -0.888231 18.6756
-1.88446 1.00974 10.6623
-2.27229 1.28091 13.4752
1.28001 0.274073 18.1967
0.273685 -1.12631 3.69059
-1.0851 -1.22432 8.97787
0.496679 0.725549 19.5665
0.949644 1.43728 19.9741
1.19609 1.60183 21.0154
0.619108 0.639368 21.873
0.204446 -0.0961582 21.6679
0.04276 -0.355997 21.4231
0.0494381 -0.392922 21.2034
0.724622 -0.449139 19.9215
1.22448 -0.817226 20.6898
0.41426 -0.446293 21.4706
-0.108868 -0.172182 21.6686
-0.692264 0.0876224 21.614
-1.01467 0.236891 21.3744
-1.09582 0.196519 20.8063
0.938991 -0.36397 19.7586
1.87272 -0.792367 20.6075
0.620665 -0.586059 21.5779
-0.0696443 -0.357699 21.7432
-0.813273 -0.218159 21.7413
-1.2371 -0.108208 21.4572
-1.42629 -0.132173 21.0489
1.05066 0.0644914 19.6143
2.14893 0.145994 20.3974
1.38528 -0.353491 21.509
0.47871 -0.493385 21.8299
-0.280197 -0.685927 21.7866
-0.680327 -0.857 21.5564
-0.903319 -0.750435 21.464
0.57545 0.359408 19.9691
0.89909 0.580685 20.3473
0.928605 0.504602 21.0552
0.511254 0.097169 21.4735
0.121733 -0.213236 21.4788
-0.0375102 -0.31487 21.406
-0.0914218 -0.382222 21.3464
-1.8841 -0.063561 1.60096
-4.61516e-06 -0.0128005 0.0857547
-0.0180115 -0.00435971 0.42281
-0.0509868 -0.0643247 -0.0128808
-8.43752e-05 0.0024301 0.0088743
0.00713695 0.000148501 0.0445186
-2.66046e-05 0.210165 0.348797
-0.037075 -0.0192736 0.0788398
-0.000430919 0.0116554 -0.010249
0 0 0
1.88445 -0.0633983 1.60182
0.0180571 -0.00437659 0.423409
0.0493875 -0.0654719 -0.0107548
-0.00790899 -2.72546e-06 0.0476511
0.0394498 -0.0203492 0.0831126
0 0 0
0.0208202 -0.0132689 0.679154
-4.41921e-05 6.7133e-05 0.0100414
0 0 0
0.00393074 0.0194365 0.167053
0 0 0
0 0 0
8.70772e-05 0.0600228 0.113889
-2.07429e-05 0.00138914 0.0618998
-0.0206951 -0.0129866 0.677622
8.54872e-06 2.32067e-05 0.00296592
-0.00316538 0.0169259 0.144959
0 0 0
0 0 0
-0.000747019 0.00959616 0.104131
-0.00360419 0.00673876 0.0712941
-6.46224e-08 -0.00176749 0.0241205
6.90429e-08 1.3918e-07 1.64407e-05
0 0 0
-4.72534e-05 9.31084e-05 0.00021928
0 0 0
0.00164 0.00770571 0.0562171
-1.66079e-05 0.000568926 0.00345927
-1.42289e-05 -0.00099725 0.0108861
0 0 0
0.000545753 0.00934049 0.099361
0.00149738 0.00240003 0.0257684
-3.53377 -2.05141 20.6359
-2.55536 -5.10682 21.4962
-2.65422 -2.57674 17.5722
1.4434 -0.00309996 20.0091
1.33438 1.19345 15.7793
1.4215 0.568858 8.74661
-4.13686 0.839569 20.1884
-3.45281 1.41905 16.4721
-2.25048 2.59951 19.5548
0.464513 -0.683957 18.8251
-0.750344 -0.641698 2.66998
-0.302878 -0.438524 20.2791
2.63324 -5.00164 21.4337
2.65949 -2.57459 17.5751
3.54097 -2.06475 20.633
-1.32273 1.20534 15.6038
-1.32586 0.536115 7.89211
-1.4366 -0.0195085 20.0958
3.44912 1.42527 16.4659
2.27443 2.57286 19.5666
4.15317 0.857005 20.1822
0.879114 -0.627316 1.5781
0.280145 -0.406455 19.9115
-0.449909 -0.701842 18.9594
-0.343534 -0.864214 21.6859
-0.0644591 -0.150982 19.1711
0.321436 -0.395504 21.4224
0.392446 0.118269 18.7467
-2.31324 -0.967652 21.9719
-3.43415 2.42552 21.0094
-0.683306 -0.864632 21.4293
-1.4625 0.452269 22.3545
0.0695222 -0.157221 19.317
0.343464 -0.860533 21.6921
-0.388132 0.117342 18.7659
-0.313664 -0.399309 21.483
3.43126 2.4239 21.0109
2.31311 -0.973989 21.9667
1.47325 0.491109 22.35
0.684209 -0.864671 21.4531
-1.0762 -0.703925 20.1621
-0.854548 -0.420532 19.8497
-0.837261 -0.715729 19.6218
-0.837998 -0.66865 21.3076
-1.53543 -0.845319 20.6705
-1.64794 -1.68832 20.7938
-0.131721 -0.296216 21.616
-0.532071 -0.532403 21.5207
-0.334684 -0.55988 21.7636
0.392375 -0.0364339 21.7263
0.0888516 -0.265785 21.6809
0.20539 -0.115727 21.8524
0.85615 0.154023 21.5051
0.751483 -0.0495703 21.6588
0.948613 0.424989 21.7691
0.99938 0.216649 21.3352
1.12731 0.0685196 21.4137
1.36096 0.66052 21.3228
1.15966 -0.0775445 20.8862
1.50253 0.606984 21.0208
-1.48944 -0.578034 19.9561
-1.02906 -0.186157 19.6469
-1.09371 -0.59484 19.3185
-1.26986 -0.710924 21.4239
-2.13441 -0.344069 20.5209
-0.256737 -0.476768 21.6703
-0.98739 -0.598169 21.5853
0.435771 -0.277031 21.8357
-0.149651 -0.511884 21.8224
1.03028 -0.160825 21.6063
0.68778 -0.547027 21.8387
1.29421 -0.10954 21.1599
1.10696 -0.562992 21.5044
1.92776 0.120441 20.5416
1.08142 -0.543609 21.1458
2.22007 0.0807533 19.8259
-1.69541 0.128092 19.7668
-0.791352 0.335989 19.7493
-1.25446 0.134198 19.0723
-1.83398 -0.1304 21.1612
-1.47144 0.600479 20.2809
-0.929935 -0.471998 21.7643
-1.40019 0.26048 21.253
-0.102728 -0.56505 21.8593
-0.685713 -0.121105 21.7218
0.491463 -0.731163 21.678
-0.0859194 -0.417056 21.6696
0.787375 -0.811829 21.3512
0.211121 -0.579696 21.4077
0.812254 -1.03303 19.6367
0.378359 -0.679627 21.2524
1.17728 -1.11364 20.5306
-0.746098 0.510463 20.1008
-0.578175 0.548532 19.7757
-0.977392 0.589563 20.7068
-1.00691 0.968112 20.178
-0.7446 0.301347 21.3707
-1.17335 0.951981 21.0805
-0.277198 -0.0903973 21.5448
-0.616051 0.324326 21.6656
-0.0232124 -0.2677 21.3828
-0.161081 -0.183995 21.5702
0.132194 -0.407878 21.1424
0.00465721 -0.365116 21.283
0.0517188 -0.493347 21.2423
-1.38825 -2.18557 19.3569
-0.907142 -1.02112 18.9892
0.00468937 -1.43945 18.837
-0.812835 -1.40602 22.2717
0.0269121 -4.09158 21.581
-0.0500168 -0.193768 21.9073
0.00718147 -0.584372 22.0373
0.500147 0.608833 21.5533
-0.00368376 0.044379 21.1552
1.09505 1.32418 20.6206
0.00683513 1.21322 19.0732
1.57153 1.46108 19.2072
1.8881 1.52086 16.8611
0.0216107 1.81208 18.3859
1.83329 1.31808 16.2418
0.084068 2.64906 18.4736
-1.26831 -0.427228 18.2281
0.00102325 -1.30101 17.8408
2.47248 1.15519 14.3727
0.840379 -0.818932 5.27675
0.0554888 0.920546 4.73139
2.11643 0.414887 10.8757
0.142182 2.52416 7.35236
-0.842126 0.835613 18.9702
-0.00338274 0.533608 17.0117
0.976143 -1.34707 9.96671
-0.126247 -0.835136 21.2468
-0.060999 0.957844 -4.55338
0.15281 -1.09103 18.2443
-0.139787 1.31325 -1.2407
-0.716689 1.13961 19.6652
0.00648413 0.93274 19.369
-1.09327 1.60094 20.4343
0.0208568 2.01503 19.7433
-0.995172 1.20375 21.6309
-0.00077446 2.51603 20.8696
-0.365492 0.161206 21.8192
-0.0239476 1.07402 22.087
-0.146358 -0.239595 21.5718
-0.0140539 0.0531398 21.6877
-0.0181856 -0.478791 21.1929
-0.0153882 -0.266106 21.4728
0.00803382 -0.525009 20.9271
1.40102 -2.10561 19.3892
0.909644 -1.00932 19.0002
0.839247 -0.703314 19.633
0.827323 -1.37122 22.2398
1.64024 -1.63312 20.7854
0.0449731 -0.19207 21.9138
0.346247 -0.564589 21.753
-0.487074 0.621817 21.5224
-0.201922 -0.11995 21.8442
-1.05613 1.36588 20.5517
-0.960475 0.437664 21.7752
-1.53217 1.59117 19.0687
-1.84959 1.62522 16.331
-1.39478 0.72891 21.2922
-1.80485 1.4755 16.0211
-1.48541 0.695988 21.1552
1.26932 -0.426135 18.2253
1.09415 -0.595777 19.3137
-2.42893 1.35799 12.8192
-0.70813 -0.733033 3.92352
-2.00077 0.19386 20.1132
-1.92207 0.523962 8.07068
-2.29784 0.0938015 19.4538
0.845448 0.829856 18.979
1.25504 0.134895 19.0663
-0.796501 -1.13881 7.76507
0.128609 -0.763307 20.4357
-0.796232 -1.02542 19.1726
-0.127004 -1.06073 18.1632
-1.2273 -1.18974 19.1371
0.743966 1.12254 19.6591
0.578469 0.546567 19.786
1.0998 1.58249 20.4277
1.00777 0.940856 20.1924
0.987904 1.24651 21.6334
1.17721 0.954569 21.0795
0.359574 0.177572 21.8374
0.622813 0.347014 21.6872
0.139898 -0.226886 21.5699
0.174075 -0.175119 21.5809
0.0128684 -0.465409 21.1124
0.00717823 -0.373714 21.2817
-0.039513 -0.514969 21.1986
1.06801 -0.68435 20.1675
0.851091 -0.41878 19.8584
0.840304 -0.66369 21.2922
1.52161 -0.833515 20.6731
0.131957 -0.300401 21.6093
0.530331 -0.527545 21.5111
-0.388298 -0.0399841 21.7229
-0.0812145 -0.2685 21.6755
-0.864734 0.15718 21.4985
-0.747131 -0.0497667 21.6651
-1.02396 0.229514 21.306
-1.16112 0.0816387 21.416
-1.31566 -0.0185516 20.8284
1.49324 -0.580739 19.9575
1.0333 -0.18771 19.6425
1.27138 -0.71209 21.4251
2.15161 -0.344814 20.5173
0.256168 -0.474662 21.6669
0.987578 -0.59976 21.5836
-0.431415 -0.277699 21.8267
0.14936 -0.510238 21.8133
-1.03848 -0.164964 21.6027
-0.675722 -0.541989 21.8384
-1.33202 -0.104609 21.2036
-1.1353 -0.58942 21.521
-1.20273 -0.56115 21.2386
1.70337 0.131073 19.7606
0.789729 0.333399 19.7532
1.84035 -0.131167 21.164
1.4691 0.594971 20.2876
0.925526 -0.471843 21.7616
1.40308 0.263397 21.2522
0.103965 -0.562726 21.8519
0.691288 -0.121086 21.729
-0.494276 -0.748695 21.6749
0.0912095 -0.423417 21.6729
-0.804044 -0.836173 21.4527
-0.202132 -0.609833 21.4335
-0.483116 -0.578309 20.8813
0.744566 0.501998 20.1119
0.978868 0.584402 20.7058
0.750057 0.306755 21.3712
0.287513 -0.0826913 21.5579
0.0267617 -0.274568 21.4076
-0.121252 -0.406848 21.0649
-1.28134 -0.675665 20.0801
-1.91321 -2.59209 18.6695
-1.35934 -1.27647 19.8723
-2.19623 -1.2171 19.2213
-0.972613 -0.692981 19.4615
-2.43734 -2.02594 20.7701
-1.06163 -0.716297 21.3525
-0.854956 -1.16199 21.0672
-0.91112 -1.06497 21.7234
-1.43929 -1.35611 22.3242
-0.325068 -0.662317 21.8781
-0.201594 -0.404486 21.6361
0.239036 -0.0485054 18.5357
-0.0441464 -0.326723 21.7802
0.0004704 -0.623115 21.4133
0.296871 -0.217558 21.8598
0.400394 -0.140952 21.769
0.826091 0.80562 16.0656
0.57768 0.161224 21.914
0.864664 -0.252375 20.6436
1.28131 0.296366 21.4193
0.950181 0.0200195 21.5601
1.59882 1.37755 16.4919
1.16929 0.567463 21.5449
1.73837 0.0333236 20.4256
1.69384 0.522548 20.9576
1.17334 0.148606 21.1662
2.19463 1.75726 16.9847
1.44968 0.689962 21.1601
1.97655 0.113166 19.9873
1.94147 0.417947 20.5566
-1.6629 -0.272989 19.8335
-3.68549 -0.953445 16.0721
-2.56531 0.489546 18.8177
-1.27172 -0.269335 19.0829
-4.81976 -0.643616 20.2921
-1.61778 -0.503921 21.37
-2.96191 -0.292757 21.6708
-0.985073 -1.29416 21.5722
-0.545172 -0.58133 21.7381
-1.46863 -1.0724 21.9462
0.0841166 -0.756708 20.3319
0.221653 -0.502297 21.8937
-0.108984 -0.679316 20.5157
1.10983 -0.488585 18.0405
0.905701 -0.555506 21.6855
-0.165002 -1.28468 2.2341
0.516479 -0.931915 19.85
1.55796 -0.676048 19.0488
1.21252 -0.443377 21.4904
2.31039 -0.834648 8.19829
1.05752 -0.975093 19.7324
1.73385 -0.618204 19.8189
-1.1789 0.51112 19.8972
-1.52337 1.72118 18.8492
-0.806144 0.772135 19.9181
-0.898947 0.54627 19.4138
-2.00653 1.28853 20.0133
-1.51045 0.465747 20.8189
-2.57731 2.3169 20.2746
-1.12496 1.01797 20.5947
-2.228 0.717629 21.3299
-1.0903 0.0535549 21.591
-2.97753 1.48459 22.618
-0.947624 0.674831 21.4774
-1.03487 0.0152186 22.0467
-0.351496 -0.281569 21.7337
-0.609324 -0.0995399 21.4631
-0.362947 0.0203504 21.6918
-0.221788 -0.493773 21.8061
0.0598473 -0.50346 21.584
-0.290457 -0.540174 20.858
-0.0403373 -0.288794 21.4875
0.109458 -0.777429 21.6071
0.337939 -0.661382 21.1902
0.0613972 -1.07527 21.6208
0.0726859 -0.464787 21.3141
0.512951 -0.811877 20.7258
1.92504 -2.53454 18.7037
0.0251115 -3.37818 18.9126
0.000998663 -4.98293 15.1961
0.00446859 -1.45974 18.3813
0.0185146 -5.49534 22.8013
0.859253 -1.1749 21.3275
0.0158696 -1.81021 22.7449
-6.14838e-05 -0.0599924 14.3079
-0.231702 -0.0501947 18.6335
-0.00180213 -0.229931 21.4208
-0.00412338 0.10903 13.6895
-0.806258 0.808605 15.9492
-0.0032646 0.497024 20.0436
0.00206538 1.02485 9.33023
-1.53506 1.40101 15.9453
0.0110871 1.46586 18.6443
-0.00110988 0.00171442 2.28148
0.0243677 1.52525 11.4356
-2.1426 1.89549 16.898
0.0320359 2.24575 18.733
0.0539113 2.08097 6.34576
0.137429 2.14344 13.0796
3.68846 -0.952915 16.064
-0.00351667 3.22751 13.0981
-0.00145621 -0.61634 17.0535
0.242842 -1.28596 1.78181
-0.0520289 -0.165889 -3.81026
0.0213917 1.24571 -0.441286
-2.12133 -0.71371 6.28451
0.0274816 0.993466 -5.1517
0.371488 2.35402 1.85548
1.52681 1.698 18.8649
0.0125872 1.53311 19.4356
0.00476279 1.19919 18.4451
0.0200893 4.12422 18.9754
2.57976 2.29762 20.2818
0.00549741 2.28659 20.2043
-0.00118687 5.45987 19.9288
3.03358 1.54723 22.6423
-0.0204888 2.09593 21.7946
-0.0255762 1.62853 22.045
0.601545 -0.0836646 21.3623
-0.0174044 0.392412 21.9664
-0.0199638 0.0835069 14.9567
0.249592 -0.484906 20.0546
-0.0116718 -0.102353 21.7037
-0.0624003 -0.178506 15.9198
-0.0440096 -1.02652 21.4726
0.00192356 -0.396178 21.5011
-0.105726 -0.684368 15.1522
1.27179 -0.669542 20.0902
1.35583 -1.24633 19.8867
2.20062 -1.22026 19.2155
0.973879 -0.692808 19.4679
2.4084 -1.97194 20.7611
1.05499 -0.710158 21.343
0.911996 -1.04429 21.6945
1.44127 -1.35714 22.327
0.336196 -0.661632 21.8606
0.199789 -0.401845 21.637
0.0531038 -0.33209 21.7688
0.00319881 -0.620578 21.4411
-0.29048 -0.220472 21.8557
-0.391588 -0.148281 21.7543
-0.57742 0.165303 21.9191
-0.852368 -0.257518 20.7133
-1.28386 0.298962 21.3915
-0.961751 0.0237537 21.5615
-1.18689 0.606355 21.5203
-1.75532 0.0477116 20.1724
-1.77289 0.589895 20.6829
-1.21034 0.152614 21.1986
-1.51886 0.797753 21.2089
-2.07454 0.262854 19.4467
-1.90172 0.429327 20.4727
1.67442 -0.274378 19.8235
2.57203 0.493619 18.8069
1.27515 -0.269316 19.0794
4.84926 -0.645949 20.2952
1.62251 -0.506109 21.3703
2.97093 -0.293944 21.6748
0.976245 -1.29569 21.5598
0.541083 -0.580868 21.734
1.46426 -1.07665 21.9479
-0.0833237 -0.760922 20.4023
-0.218302 -0.499597 21.8851
0.112705 -0.679538 20.5547
-1.10348 -0.504108 18.161
-0.913989 -0.574428 21.6705
-0.508751 -0.878024 19.4034
-1.59844 -0.661723 18.2056
-1.2743 -0.46538 21.586
-1.10729 -1.04138 18.6057
-1.82365 -0.422095 18.4218
1.17375 0.506077 19.9023
0.813031 0.766956 19.9262
0.898328 0.542272 19.4212
2.00983 1.27195 20.0197
1.50514 0.464518 20.8098
1.12703 1.00626 20.5934
2.23103 0.719017 21.3294
1.09876 0.0564998 21.5952
0.955128 0.694086 21.4817
1.04839 0.0281323 22.0636
0.351245 -0.282065 21.7454
0.366073 0.0319865 21.7097
0.235247 -0.492706 21.8141
-0.0497509 -0.512637 21.5923
0.0604185 -0.275991 21.4967
-0.0753429 -0.795057 21.6459
-0.316413 -0.666886 21.2122
-0.0591455 -0.479129 21.3975
-0.436715 -0.999616 21.2325
-1.74291 -1.3243 19.5536
-1.13074 -1.20656 21.9689
0.00665439 -0.441021 21.8391
0.789772 0.0311247 21.6423
1.5568 0.429367 21.2932
1.64068 0.56055 20.9355
-2.71958 -0.473479 18.7526
-2.26398 -1.06038 22.3369
-0.376474 -1.06357 20.668
0.423449 -0.53254 19.3596
1.2839 -0.684472 18.7351
1.75568 -0.574111 19.1187
-1.48034 0.979364 19.4861
-2.18637 1.05413 20.7043
-1.7598 0.367414 21.9209
-0.514093 -0.27092 21.9894
-0.0773153 -0.616722 21.7158
0.241265 -0.861505 21.0334
0.0194021 -4.31117 17.7514
0.0105317 -1.27694 17.8406
-0.00285882 0.0179735 13.5
-0.00595919 0.304369 11.4427
0.0125063 1.06331 10.0579
0.0432597 2.51183 13.0637
-0.0018923 -1.30022 11.8342
0.000835879 -0.830302 0.37442
0.224947 2.19578 -0.72078
0.0134354 2.73965 18.029
0.0116686 4.02419 19.5223
-0.0277636 4.5489 22.9547
-0.0208434 0.365815 19.4518
-0.0431292 0.0561926 15.4009
-0.0738781 -0.555413 16.8133
1.73422 -1.30952 19.5692
1.13542 -1.19097 21.9407
0.000363967 -0.441158 21.8328
-0.785115 0.0283262 21.6448
-1.57768 0.459372 21.1803
-1.72043 0.721147 20.4366
2.72646 -0.473273 18.7464
2.266 -1.06457 22.331
0.372522 -1.0616 20.6962
-0.421431 -0.549756 19.4862
-1.27288 -0.645244 18.1427
-1.86572 -0.627101 17.6509
1.47056 0.965296 19.4996
2.17811 1.04716 20.705
1.78515 0.376676 21.9347
0.524749 -0.262231 22.0029
0.102484 -0.624263 21.7355
-0.214421 -0.928995 21.1471
-1.94142 -0.706873 1.6585
-0.0142558 -0.0559528 0.243766
-0.0320923 0.00225037 0.244693
0.00945831 -0.0737306 0.0193857
0.00436348 0.00915831 0.0314484
0.0535931 -0.00245949 0.418404
0 0 0
-0.0270658 0.102296 0.20003
-0.289338 0.000555724 0.746858
-0.0171593 -0.0798592 0.0200247
-0.00616557 0.00196038 -0.0033133
0.0135806 0.0161173 0.158948
0.0143756 -0.0561577 0.244531
1.94821 -0.714468 1.67414
0.031717 0.00212373 0.242684
-0.00499694 0.00972402 0.0332427
-0.0106762 -0.0743955 0.0205317
-0.0548593 -0.00392453 0.425007
0.026114 0.0980288 0.191889
0 0 0
0.297072 0.00374819 0.760419
0.00778588 0.00224158 -0.00345916
0.0171638 -0.080656 0.0199858
-0.00441806 0.0122331 0.121381
0.0188022 0.0119332 0.952066
0.0404694 -0.0416282 1.10696
3.31307e-05 0.000102607 0.0422864
0.0349213 -0.00202001 0.288533
0.230569 -0.239719 4.47592
0.00810119 0.00358717 1.03508
0.00161376 0.00690052 0.0898977
0.00310286 0.000739343 0.0677232
-0.0493283 -0.0383452 0.123187
-0.00257788 -0.000574742 0.0646787
0 0 0
0 0 0
0.00629511 0.0150709 0.0794018
0.00280403 0.0140058 0.0855515
0 0 0
0.0115094 0.00582877 0.165604
-0.0181498 0.0120863 0.941379
-0.0347655 -0.00198493 0.287297
-0.0401057 -0.0412761 1.10901
0.00126492 0.00189483 0.0360841
-0.22216 -0.235232 4.48709
-0.00328171 0.000729898 0.0681936
-0.00864104 0.00409088 1.03276
-0.00143774 0.00633478 0.0838538
0.0476406 -0.0369316 0.117864
0 0 0
0.002472 -0.000424809 0.0637794
0 0 0
-0.00586978 0.0129952 0.0711114
-0.0115568 0.00583056 0.164695
-0.00289833 0.0146953 0.0898072
0 0 0
-0.0284353 -0.0247383 0.186166
-0.0085956 -0.000204467 0.0033915
-7.19238e-07 -9.75273e-06 9.17879e-05
-2.67699e-05 -0.180516 0.04811
-0.000140551 -0.000381244 0.0167446
-0.0229198 -0.0305274 0.708525
0.0052677 -0.00103773 0.0870999
-0.000591578 -0.00212069 0.000415444
-0.000834251 0.103801 0.332073
-3.76725e-05 -0.00174116 0.000345177
0.00173195 -0.00205237 0.0500394
0 0 0
0.00559813 1.39282 0.940092
-7.02676e-05 0.0479328 0.175816
-0.045843 -0.0875822 0.363136
-0.00959891 0.00453963 0.0274527
-0.000176455 -0.0324513 0.00319969
0.000170211 -0.00583873 0.0333354
0.0013134 0.00494985 0.0443034
0.00068036 -0.00132536 0.0130351
0.00693347 -0.000148778 0.00274217
0.0295561 -0.0244086 0.193362
0.0236998 -0.0307451 0.727308
0.000145664 -0.000363184 0.0166224
0.0003083 -0.00128328 0.000260301
-0.00581509 -0.00123269 0.096811
0 0 0
-0.00173201 -0.00202551 0.0486891
0.00908906 0.00416657 0.0253092
0.0447032 -0.085486 0.354173
-0.000683332 -0.00132922 0.0130635
-0.00167216 0.00485865 0.0361025
-0.000646244 0.00375521 0.0714857
0.00573645 -4.84896e-05 0.0799258
0 0 0
-0.00011542 0.00217704 0.0154913
-1.00248e-05 0.00692457 0.165131
5.91491e-07 2.02005e-07 1.91996e-05
-7.65043e-05 0.00594306 0.0495437
0.00208479 0.0112548 0.114147
-1.02209e-06 1.00207e-06 0.0001244
6.54442e-07 -1.348e-06 -0.000112789
0.000617196 0.0139292 0.0774246
-0.0520037 0.053355 0.428242
0 0 0
-5.61511e-06 0.112035 0.230106
-1.92592e-05 0.00580941 0.114876
-1.20982e-05 -0.000365005 0.0226942
-0.00578713 -5.35567e-05 0.0799094
0.000542513 0.00330791 0.0613295
0 0 0
0.000124487 0.00181575 0.0132191
4.54559e-05 0.00610428 0.0511703
-0.0020046 0.0114402 0.113205
0.0532978 0.054363 0.437884
-0.000643803 0.0136082 0.0754285
-0.0464816 -0.0437017 0.386759
-0.0199289 -0.012858 0.0709737