# vtk DataFile Version 2.0
tri_press
ASCII
DATASET UNSTRUCTURED_GRID
POINTS 3682 float
-0.849963 0.195 -2.105
-0.710981 0.315 2.315
-0.706745 0.855 -2.215
-0.685 1.055 2.28141
0.841834 0.195 -2.115
0.699431 0.315 2.315
0.715 0.855 -2.20793
0.685 1.055 2.28378
-0.732064 0.306571 -0.631667
-0.805271 0.227038 0.841667
-0.793688 1.01586 -0.716197
-0.777338 1.07342 0.782607
0.725445 0.303921 -0.638333
0.795147 0.226752 0.838334
0.79627 1.01294 -0.710694
0.781884 1.07522 0.786544
-1.63606 -0.222657 -3.25584
-1.61594 -0.138713 -2.06695
-1.54103 -0.0738647 -0.593888
-1.54407 -0.126379 0.87424
-1.50105 -0.0951311 2.3469
-1.48381 -0.0554805 3.53381
-1.48741 -0.0221117 4.72456
-1.62627 0.118488 -3.2988
-1.61198 0.208146 -2.10769
-1.53244 0.305572 -0.630183
-1.54417 0.256402 0.845061
-1.46932 0.290274 2.32218
-1.46093 0.329169 3.50964
-1.47401 0.361806 4.69978
-1.56425 0.805102 -3.39392
-1.53163 0.890983 -2.20636
-1.55253 1.03191 -0.711919
-1.52992 1.06689 0.7846
-1.44835 1.05968 2.27901
-1.44699 1.09448 3.46611
-1.46432 1.13093 4.6528
-1.50807 1.92371 -3.51623
-1.49649 2.0143 -2.32355
-1.51124 2.14095 -0.822002
-1.51939 2.22558 0.685321
-1.50293 2.25794 2.18755
-1.48911 2.27751 3.38167
-1.48365 2.30373 4.57086
-0.85809 -0.229412 -3.25533
-0.846655 -0.143378 -2.06598
-0.765145 -0.0724468 -0.595146
-0.787571 -0.145066 0.870809
-0.760026 -0.0872447 2.34158
-0.745385 -0.0499628 3.5303
-0.747243 -0.0207604 4.72256
-0.854225 0.107039 -3.29851
-0.725518 0.336475 3.50692
-0.736503 0.36345 4.69841
-0.797232 0.784853 -3.39609
-0.71347 1.09416 3.46704
-0.728329 1.13038 4.65325
-0.735096 1.90999 -3.51847
-0.72024 2.00158 -2.32597
-0.738976 2.13641 -0.823123
-0.760427 2.22763 0.68625
-0.757283 2.2588 2.18975
-0.746636 2.27671 3.38378
-0.740264 2.3026 4.57243
0.744136 -0.230096 -3.26015
0.77357 -0.144142 -2.07344
0.74378 -0.074335 -0.600761
0.769933 -0.145612 0.867817
0.707226 -0.0873754 2.34079
0.714093 -0.0500909 3.53006
0.724968 -0.0209295 4.72244
0.745645 0.106562 -3.30262
0.712712 0.336405 3.50715
0.726283 0.363326 4.69857
0.728108 0.784376 -3.3948
0.711998 1.09416 3.46824
0.7298 1.13031 4.65391
0.800847 1.90904 -3.51681
0.815782 2.00052 -2.32358
0.806169 2.13546 -0.820697
0.769182 2.22744 0.688276
0.738499 2.25886 2.19133
0.736833 2.2767 3.38495
0.744611 2.3025 4.57325
1.53996 -0.224331 -3.26351
1.5658 -0.140785 -2.07708
1.5257 -0.0768267 -0.601909
1.53237 -0.127488 0.869772
1.4734 -0.0955045 2.34527
1.46147 -0.0558031 3.53321
1.4696 -0.0224924 4.72424
1.54578 0.117035 -3.30505
1.59809 0.206337 -2.1168
1.52976 0.302243 -0.636961
1.54191 0.255759 0.841648
1.46693 0.290082 2.32152
1.45536 0.328968 3.5098
1.46783 0.361514 4.69996
1.52516 0.803647 -3.39317
1.54724 0.889144 -2.20308
1.56615 1.02863 -0.708755
1.53974 1.06754 0.787371
1.45754 1.0599 2.28131
1.45288 1.09445 3.46785
1.47002 1.13075 4.65389
1.57138 1.92179 -3.51361
1.58346 2.01221 -2.31979
1.57635 2.13915 -0.818085
1.5384 2.22503 0.688699
1.49859 2.2579 2.19025
1.4889 2.27739 3.38374
1.49365 2.30348 4.57236
-0.785671 0.525 -2.16732
-0.0040645 0.173034 -2.13197
-0.857193 0.184606 -1.36833
-0.742218 0.685 2.34243
-0.005775 0.308413 2.32159
-0.803749 0.225396 1.57833
0.00412747 0.942807 -2.29927
-0.796037 0.981249 -1.4656
0 1.1323 2.3599
-0.780006 1.11305 1.53201
0.784204 0.525 -2.16725
0.851412 0.181688 -1.37667
0.732049 0.685 2.33922
0.791901 0.226264 1.57667
0.797379 0.975712 -1.45931
0.780784 1.11245 1.53516
-0.733291 0.302181 0.105
-0.811925 0.661215 -0.673932
-0.00330976 0.227311 -0.635
-0.83857 0.65023 0.812137
-0.00506207 0.222379 0.84
-0.785291 1.04442 0.033205
0.00129077 1.27275 -0.713445
0.00227279 1.52698 0.784575
0.727138 0.298494 0.1
0.809687 0.658429 -0.674513
0.830805 0.650984 0.812439
0.788257 1.04326 0.037925
-0.884928 0.593107 -1.41697
0.880859 0.591714 -1.41799
-0.00368713 0.189908 -1.3725
0.00270912 1.15351 -1.46246
3.14862e-05 0.525 -2.47412
-0.811828 0.655722 0.0691025
0.80986 0.654707 0.0689625
-0.00418592 0.234035 0.1025
0.00178178 1.52573 0.035565
-0.88642 0.667615 1.55517
0.886984 0.667992 1.55591
-0.00541854 0.238345 1.5775
0.0011364 1.36221 1.53359
-0.0028875 0.685 2.51912
-0.810396 0.36 -2.12874
-0.427014 0.177635 -2.12486
-0.855966 0.187415 -1.73667
-0.72782 0.5 2.32994
-0.358378 0.293334 2.33667
-0.750215 0.277347 1.94667
-0.769977 0.69 -2.21493
-0.351309 0.912032 -2.27026
-0.783434 0.950168 -1.8403
-0.690969 0.87 2.28928
-0.3425 1.11861 2.34561
-0.746032 1.09755 1.90671
0.418885 0.177756 -2.12974
0.803952 0.36 -2.13206
0.847811 0.187156 -1.74583
0.346828 0.288785 2.34121
0.717199 0.5 2.32857
0.749533 0.266765 1.94583
0.359564 0.912162 -2.26686
0.772067 0.69 -2.21006
0.786517 0.945684 -1.83362
0.3425 1.11829 2.34648
0.686356 0.87 2.28933
0.747101 1.09793 1.90947
-0.731766 0.308452 -1
-0.732303 0.304751 -0.263333
-0.7782 0.48079 -0.652799
-0.393442 0.215431 -0.633333
-0.80512 0.225607 1.21
-0.744866 0.289024 0.473333
-0.833335 0.432927 0.826902
-0.40173 0.231581 0.840834
-0.795855 0.999546 -1.0909
-0.820754 0.84751 -0.695064
-0.789434 1.03008 -0.341496
-0.440118 1.23214 -0.714821
-0.786203 1.10077 1.15731
-0.82667 0.871184 0.797372
-0.780706 1.05831 0.407906
-0.493301 1.51174 0.783591
0.725191 0.306042 -1.0075
0.37675 0.234251 -0.636667
0.725879 0.301621 -0.269167
0.7753 0.477308 -0.656423
0.793365 0.226667 1.2075
0.391545 0.231561 0.839167
0.737076 0.28669 0.469167
0.840265 0.425224 0.825386
0.79923 0.99673 -1.085
0.44402 1.23332 -0.712069
0.82011 0.844249 -0.692603
0.792785 1.02862 -0.336384
0.787636 1.10014 1.16085
0.497242 1.51143 0.785559
0.825974 0.872915 0.799491
0.784499 1.05867 0.412234
-0.868282 0.559054 -1.79214
-0.39282 0.525 -2.43965
-0.00387582 0.185377 -1.75223
-0.00201651 0.349017 -2.47212
-0.881144 0.388857 -1.39265
-0.43044 0.190358 -1.37042
-0.798226 0.676308 1.9488
-0.372553 0.685 2.48876
-0.00559677 0.271099 1.94954
-0.00433125 0.496707 2.50875
-0.888639 0.446505 1.56675
-0.404584 0.245333 1.57792
0.0034183 1.10058 -1.88086
0.00207948 0.733904 -2.51663
-0.893878 0.787178 -1.44128
-0.396664 1.09429 -1.46403
0.000568198 1.21079 1.94674
-0.00144375 0.908651 2.43085
-0.862003 0.890332 1.54359
-0.389435 1.35256 1.5328
0.868165 0.558357 -1.79262
0.392118 0.525 -2.44072
0.877952 0.386701 -1.39733
0.423862 0.190166 -1.37458
0.807805 0.676496 1.94757
0.364581 0.685 2.48837
0.878627 0.447128 1.56629
0.393241 0.245369 1.57708
0.885328 0.783713 -1.43865
0.400044 1.09374 -1.46088
0.86147 0.890221 1.54554
0.39096 1.35168 1.53437
-0.77819 0.476136 0.0870513
-0.388808 0.22797 0.10375
-0.804692 0.627161 -1.04545
-0.811723 0.658469 -0.302415
-0.00349845 0.227308 -1.00375
-0.00374784 0.22949 -0.26625
-0.811665 0.652976 0.44062
-0.889525 0.658923 1.18365
-0.00462399 0.233896 0.47125
-0.00524031 0.233986 1.20875
-0.826551 0.864066 0.0511538
-0.497757 1.49708 0.034385
0.00199995 1.17155 -1.08795
0.00153628 1.43598 -0.33894
0.00202729 1.54305 0.41007
0.00170459 1.47708 1.15908
0.775403 0.473149 0.0844813
0.374749 0.239719 0.10125
0.806541 0.625072 -1.04625
0.809762 0.656568 -0.302775
0.809918 0.652846 0.440701
0.894994 0.659488 1.18418
0.825853 0.862379 0.0534438
0.501109 1.49668 0.036745
-0.882464 0.374428 -1.7644
-0.768703 0.436375 -1.02272
-0.819548 0.812857 -1.06817
-0.876322 0.738589 -1.81622
0.878446 0.373351 -1.76923
0.87287 0.736857 -1.81312
0.821599 0.809698 -1.06563
0.769953 0.433938 -1.02688
-0.428727 0.185439 -1.74445
0.421374 0.185275 -1.74903
0.392465 0.232255 -1.00563
-0.399064 0.221911 -1.00188
-0.373986 1.03888 -1.86058
-0.396431 1.1265 -1.08942
0.399412 1.12608 -1.08648
0.379804 1.039 -1.85724
-0.409917 0.354508 -2.36754
-0.372064 0.711952 -2.42308
0.375841 0.711952 -2.42255
0.405501 0.354508 -2.36856
-0.778195 0.478463 -0.282874
-0.777619 0.468603 0.456977
-0.824544 0.866592 0.424263
-0.823618 0.855771 -0.321955
0.775351 0.475228 -0.285971
0.822963 0.853305 -0.31958
0.823908 0.866645 0.426467
0.774942 0.465632 0.454934
-0.391893 0.220163 -0.264792
0.375496 0.237492 -0.267708
0.378954 0.244025 0.470208
-0.395344 0.229625 0.472292
-0.484994 1.39672 -0.340218
-0.50011 1.51357 0.408988
0.503621 1.51294 0.411152
0.488854 1.39758 -0.337662
-0.891709 0.44257 1.19683
-0.785441 0.473253 1.94773
-0.799175 0.880166 1.92776
-0.83841 0.876079 1.17048
0.886387 0.442998 1.19584
0.840051 0.876661 1.17251
0.798171 0.880111 1.92852
0.795042 0.473564 1.9467
-0.404875 0.239502 1.20938
0.394142 0.239506 1.20813
0.370035 0.253452 1.94769
-0.381481 0.253458 1.94811
-0.388484 1.47259 1.15819
-0.365967 1.20244 1.92673
0.36673 1.2023 1.92811
0.391519 1.47233 1.15997
-0.365465 0.498353 2.48152
0.355704 0.498353 2.48122
0.35354 0.889326 2.43561
-0.357526 0.889326 2.43465
-0.831813 0.2775 -2.1185
-0.638488 0.184388 -2.11686
-0.853913 0.190259 -1.92083
-0.724101 0.4075 2.32717
-0.53468 0.282252 2.34775
-0.742302 0.28447 2.13083
-0.743009 0.7725 -2.21961
-0.529027 0.867048 -2.22616
-0.756986 0.914481 -2.02765
-0.703191 0.9625 2.30055
-0.51375 1.10078 2.32749
-0.7207 1.08146 2.09406
0.630359 0.184375 -2.12438
0.821161 0.2775 -2.1218
0.840247 0.195654 -1.93042
0.52313 0.282296 2.3477
0.713014 0.4075 2.32648
0.73087 0.284494 2.13042
0.537282 0.869134 -2.22295
0.747174 0.7725 -2.21263
0.76259 0.912173 -2.02078
0.51375 1.10046 2.32895
0.701092 0.9625 2.30197
0.721491 1.08191 2.09663
-0.731616 0.307811 -0.815833
-0.732184 0.305661 -0.4475
-0.757034 0.39273 -0.642233
-0.58796 0.210587 -0.6325
-0.80592 0.225597 1.02583
-0.753101 0.279998 0.6575
-0.83077 0.324249 0.834284
-0.609689 0.216933 0.84125
-0.794985 1.00792 -0.903547
-0.817081 0.936614 -0.705631
-0.791576 1.02299 -0.528846
-0.642245 1.17468 -0.715509
-0.782508 1.08783 0.969957
-0.812515 0.977559 0.789989
-0.779395 1.06624 0.595256
-0.639461 1.30086 0.783099
0.725013 0.305287 -0.822917
0.56744 0.2364 -0.6375
0.725421 0.303012 -0.45375
0.753588 0.389007 -0.647378
0.794255 0.22671 1.02292
0.599669 0.21651 0.83875
0.742937 0.279895 0.65375
0.832349 0.318666 0.83186
0.798217 1.0053 -0.897848
0.646349 1.17554 -0.711381
0.8171 0.933048 -0.701649
0.794877 1.02113 -0.523539
0.785265 1.08818 0.973698
[...]
POINT_DATA 3682
SCALARS point_scalars float 1
LOOKUP_TABLE default
-88.1889
-43.625
-58.6204
-40.1371
-64.0155
-38.1088
-64.4768
-37.2809
-32.8728
-27.4292
-44.512
-43.9373
-32.0843
-24.0446
-44.5689
-43.6763
-55.7341
-138.723
-34.2781
-33.8321
-43.0813
-42.4618
-37.5828
-6.05468
-139.568
-33.5652
-33.8047
-42.4669
-37.2018
-36.1312
43.8596
-92.1961
-40.8947
-39.3486
-43.6842
-37.1977
-36.072
-11.2859
-72.1845
-61.9272
-59.6792
-44.9785
-40.0635
-36.8099
-8.0016
-170.885
-32.4964
-40.0937
-43.2732
-37.3847
-37.2674
18.2354
-37.3847
-34.4904
90.1794
-35.294
-34.5776
14.0724
-57.9855
-32.7061
-63.7763
-42.1124
-36.822
-35.5308
-60.1288
-158.289
-32.4401
-40.4191
-38.5302
-31.7855
-31.6991
51.1957
-31.8882
-28.0114
127.793
-32.4601
-29.2999
16.2825
-67.5155
-47.7021
-63.8066
-41.1028
-34.6263
-33.6947
-71.3201
-142.126
-31.2635
-32.0733
-38.7637
-36.9092
-30.9083
-20.119
-134.593
-33.4627
-35.8335
-37.5823
-32.5073
-31.4513
41.5277
-89.4339
-41.6129
-39.0901
-40.565
-32.5503
-31.5195
-79.5114
-74.0413
-61.234
-59.0194
-43.4611
-37.3657
-34.9934
-36.2224
-117.382
-65.8321
-39.7189
-36.5001
-47.9854
-12.6309
-60.7773
-35.257
-55.7981
-39.8015
-67.1707
-34.9329
-46.1353
-59.6606
-54.4003
-28.4246
-35.6446
-34.7203
-32.465
-35.154
-45.4866
9.50454
-70.0623
-27.4314
-35.4224
-31.4262
-44.9843
-68.1688
-68.438
-58.6717
-39.0775
202.238
-32.9438
-32.2195
-29.8538
-88.9573
-56.0181
-53.1917
-41.7267
-49.294
-30.9825
-52.9274
-125.02
-76.0075
-39.9983
-39.9042
-45.714
-71.7935
-21.8844
-76.3537
-39.0957
-36.2236
-47.1113
-126.544
-48.6606
-76.4975
-35.834
-34.4412
-43.8101
-17.6007
-73.5108
-75.3656
-34.8046
-35.1366
-45.6674
-41.9054
-29.8647
-34.1778
-34.7536
-43.5234
-25.3532
-28.6402
-34.974
-43.8362
-38.777
-47.5217
1.75396
-50.5592
-37.2769
-44.1334
-63.3758
-42.9244
-34.6563
-28.4874
-33.94
-43.1609
-34.0636
-24.2564
-28.3672
-43.7015
1.80517
-38.4067
-46.9192
-49.5929
-63.1327
-36.7409
-43.3156
-90.1617
162.854
-77.6917
157.402
-67.961
-58.8576
-46.1736
-34.7132
-41.2793
-29.2408
-57.0473
-42.2737
-54.1101
190.149
-69.06
-43.2858
-40.8157
-33.1682
-59.1117
-50.3735
-89.0554
163.616
-69.5165
-59.8114
-44.1018
-29.7224
-52.092
-41.7663
-68.2293
-42.8199
-56.5674
-49.9757
-30.5137
-29.8588
-44.4975
-33.8266
-44.0981
-31.1932
-31.1094
-50.8682
-30.9746
-38.567
-38.0699
-78.0279
-12.1105
-37.8248
-77.4317
-61.6083
-29.7799
-29.3403
-44.8877
-33.2007
-30.2583
-50.4122
-37.4727
-77.4368
-86.5095
-43.2353
-44.6844
-98.5413
-85.6218
-96.599
-44.4943
-43.8593
-78.4545
-79.1348
-44.6025
-43.8575
-56.902
-17.1045
-16.6545
-56.2038
143.453
130.558
128.948
140.95
-31.6324
-28.0573
-36.6118
-38.7133
-30.9699
-38.1459
-35.9703
-27.1253
-31.5097
-30.413
-29.7304
-30.9706
-51.7429
-65.014
-64.5592
-52.027
-51.6753
-45.9153
-46.987
-46.2236
-51.7786
-46.2194
-44.491
-44.0265
-39.0871
-39.4827
-41.6185
-42.9843
-63.1904
-41.945
-41.3277
-62.9927
-35.3561
-29.1187
-31.8026
-34.7691
-45.7966
-128.306
-104.097
-41.1567
-42.4197
-41.8321
-62.8172
-30.9149
-72.9227
-39.6785
-37.1981
-43.3506
-126.703
-43.9965
-106.847
-37.4361
-35.6446
-39.4942
-31.5712
-67.0074
-73.7215
-34.9489
-35.8675
-41.5061
-35.9691
-30.6426
-33.3006
-34.2138
-38.9288
-21.8731
-25.748
-35.4249
-41.6542
-41.895
-47.0491
-33.9708
-45.4888
-40.8737
-43.9212
-50.6725
-36.1311
-33.9775
-29.6414
-32.9379
-41.7121
-34.3223
-19.7987
-25.0303
-41.7503
-34.477
-41.5108
-46.6364
-45.3863
-50.3836
-40.5186
-43.3798
-36.9512
-56.1174
-136.292
126.557
-119.676
-120.565
-92.8581
54.1409
-65.7734
-53.4813
-69.1751
-59.1435
-39.972
-39.1966
-42.7528
-35.3478
-38.0216
-35.6975
-39.0635
-31.0849
-59.601
-44.8775
-54.7808
-43.4702
-19.0174
-19.4351
-37.8637
29.5521
-73.2156
-51.1404
-66.3145
-47.9462
-35.7021
-35.0664
-38.0372
-34.0187
-52.127
-54.5842
-55.4364
-54.3026
-39.7709
-56.4321
-130.885
125.783
-66.981
-54.591
-70.9652
-60.414
-34.6141
-35.0238
-39.1898
-31.2005
-56.1019
-44.2666
-50.9547
-42.6769
-74.7633
-50.0836
-65.2981
-47.2979
-50.7473
-53.8061
-53.6815
-53.6813
-29.3933
-26.6878
-29.4193
-29.3436
-34.8998
-36.7888
-38.6385
-34.4034
-34.8501
-34.6147
-38.4997
-32.5169
-30.3888
-33.4678
-30.0377
-31.4122
-35.3026
-34.9647
-32.0108
-36.9952
-47.0915
-45.0201
-42.1924
-57.0279
8.27766
8.26812
1.42049
-3.94995
-68.9292
-68.7578
-73.3991
-66.8075
-27.8807
-25.9382
-28.5996
-28.9081
-34.6583
-36.4941
-38.95
-33.9209
-29.7846
-32.5563
-29.1222
-30.4778
-46.2481
-44.2839
-41.5148
-56.5031
-75.7261
-68.1735
-68.2677
-53.192
-77.2987
-69.7162
-68.027
-53.6604
-66.8901
-58.5624
-59.126
-53.3129
-52.6475
-40.776
-40.7369
-24.8537
192.016
180.447
204.703
191.832
-31.6276
-33.4182
-32.1633
-35.2107
-30.8815
-32.7414
-31.3999
-34.5543
-29.9461
-30.4549
-29.8457
-29.6012
-87.0733
-75.9786
-80.2309
-86.8756
-57.2659
-56.2986
-58.5143
-53.5766
-54.8798
-52.6014
-55.3409
-54.7598
-44.3837
-41.9448
-41.6146
-40.1016
-44.249
-49.6253
-49.4403
-55.2221
-33.1966
-29.2118
-33.5353
-29.4261
-125.974
98.696
-96.2978
-11.8415
-81.6603
-78.2983
-42.0659
-35.7979
-41.1067
-36.0474
-45.6778
-44.2733
-94.068
85.3322
-50.056
33.8426
-92.0094
-63.7325
-43.8537
-35.5044
-38.8171
-35.08
-47.3086
-43.5962
-97.1969
-8.74503
-123.974
101.908
-81.1578
-79.0452
-38.5528
-30.279
-38.8912
-30.7334
-43.3956
-42.4243
-51.3123
28.2657
-92.6724
81.181
-93.0844
-62.7642
-37.885
-33.0473
-40.5601
-31.9297
-45.2003
-42.7363
-42.5986
-43.2345
-30.6525
-31.0837
-37.6536
-32.4464
-38.2599
-32.8364
-50.556
-40.1893
-26.8392
-29.9836
-25.3957
-29.9768
-32.3395
-37.11
-44.9301
-25.9241
-40.322
-38.7316
-42.5201
-64.0374
-5.14315
-15.0887
-49.3775
-65.9704
-36.555
-40.0512
-40.3399
-51.995
-62.9725
-64.6276
-43.3389
-44.3095
-38.5555
-31.7692
-29.7908
-29.7272
-37.882
-31.9272
-50.4603
-40.6836
-30.4356
-37.8734
-25.491
-27.8659
-23.9596
-29.7622
-44.9577
-25.5673
-4.86083
-15.3098
-40.8114
-38.2533
-41.949
-63.531
-48.7794
-65.2846
-62.8952
-64.427
-35.8937
-40.1354
-39.7717
-51.5743
-88.4294
-93.2571
147.721
157.142
-77.7684
-78.1899
154.218
152.885
-74.253
-52.322
-67.2073
-52.9943
-46.2187
-46.4724
-34.7619
-34.9568
-41.1901
-42.096
-32.741
-27.4211
-53.2134
-58.6001
-40.8671
-43.4856
-53.5855
-50.3953
174.397
172.507
-52.6784
-76.9894
-54.3664
-29.8691
-41.2392
-40.941
-32.3821
-34.132
-52.3424
-56.1919
-56.7609
-45.4764
-86.9549
-92.3239
157.532
147.386
-75.8152
-53.1883
-67.9728
-53.9082
-44.3707
-44.0771
-28.29
-31.5091
-53.7696
-57.2156
-40.8114
-42.476
-76.6533
-52.4986
-29.4318
-54.3931
-55.3123
-49.9456
-44.9996
-56.4267
-31.1325
-29.5286
-30.7054
-29.7039
-44.1694
-44.9753
-32.6447
-35.8673
-44.3598
-44.0073
-31.4546
-30.9041
-29.5075
-33.6355
-52.2316
-45.7138
-30.5473
-31.1629
-38.6412
-38.8033
-37.3463
-38.6056
-71.3546
-67.7575
-13.1182
-12.9129
-39.1087
-39.3772
-75.1237
-74.9612
-61.97
-61.8514
-30.4196
-28.7268
-29.7226
-29.2076
-45.0444
-44.817
-31.9588
-35.284
-32.9322
-28.5722
-51.4238
-46.0308
-37.9323
-36.8268
-67.1965
-71.536
-116.179
-71.3287
-75.81
-131.194
-36.8148
-38.208
-52.9676
-51.4516
-41.9229
-53.1719
-52.8328
-39.1503
-70.5826
-130.137
-76.4221
-77.9172
-120.593
-128.425
-76.3062
-72.4014
-72.5695
-77.8537
-76.9199
-125.68
-42.421
-39.4215
-52.9765
-52.9908
-36.9996
-52.4004
-53.4523
-38.5008
-100.319
-93.4562
-66.9081
-66.7288
-100.999
-67.6579
-67.3564
-94.0543
-37.8206
-38.5748
-53.7331
-56.0643
-37.0558
-54.0811
-53.0759
-38.494
-61.5741
-61.879
-52.5468
-41.9282
-22.3474
0.066055
-26.0229
-34.718
-22.592
-33.9991
-25.8642
0.300826
-62.6599
-44.0758
-53.3265
-61.3286
-23.8491
116.285
165.44
74.8985
60.5538
33.4127
192.564
114.023
62.4675
111.634
192.404
32.9903
-14.5105
58.9111
164.582
115.919
-31.4871
-30.1153
-32.1735
-33.3713
-23.3356
-27.5661
-30.7711
-28.3295
-40.3322
-40.73
-34.5327
-33.3127
-42.3735
-36.1277
-35.6401
-42.4536
-30.7994
-32.8379
-31.4364
-29.2458
-41.9154
-41.6974
-34.9985
-35.6476
-39.7867
-32.5523
-33.8839
-40.436
-21.2952
-27.3419
-29.9611
-26.3977
-32.253
-32.7465
-30.6205
-30.4174
-30.9856
-29.0646
-30.2856
-32.2506
-28.0631
-31.5026
-29.5428
-28.618
-31.1302
-28.8417
-29.8549
-32.3153
-62.6209
-60.4328
-72.6756
-3.76652
-51.2283
-71.4235
-78.2724
-54.0177
-50.8459
-53.5011
-78.1256
-71.2633
-63.0976
-4.0559
-72.8745
-59.8321
-26.8554
-51.4931
-53.9389
-31.4519
-41.9702
-42.1894
-57.888
-60.6372
-44.111
-51.7142
-54.6364
-43.5048
-43.2626
-36.3726
-54.2208
-54.4773
-27.7935
-30.3986
-54.3834
-52.5294
-43.3575
-53.4384
-54.8827
-36.0034
-41.367
-39.7994
-52.0883
-49.5417
-39.2001
-60.5378
-56.4062
-38.9359
-37.2739
-36.922
-40.2796
-42.2619
-38.5702
-42.0779
-40.2408
-37.1856
-39.3133
-38.5406
-43.8097
-44.7427
-42.3651
-46.2269
-44.3849
-39.9717
-53.0675
-61.3641
-55.3592
-66.6239
-40.238
-38.3203
-44.6032
-48.0868
-38.9152
-47.4034
-44.3666
-37.8835
-52.6296
-66.4936
-55.216
-60.8709
-36.6219
-33.985
-32.4103
-35.4257
-31.5661
-30.3703
-26.9548
-29.2892
-32.9296
-33.2509
-32.5764
-31.9221
-35.8361
-35.6149
-34.3937
-34.4778
-54.0043
-98.4521
-144.327
-42.4412
-42.8002
-43.6848
-54.8757
-32.8395
-71.1364
-40.4221
-38.4266
-41.6795
-98.0073
-38.2431
-154.22
-37.1255
-36.795
-39.1951
-33.894
-61.8309
-73.468
-35.7374
-36.8015
-39.2138
-34.2451
-31.2852
-32.9285
-33.4672
-37.4446
-14.0138
-22.7503
-37.584
-42.6087
-43.1832
-46.7066
-48.2038
-44.0972
-42.2545
-44.0516
-46.9395
-33.7351
-32.9766
-30.767
-32.4296
-40.7649
-32.7806
-10.9448
-20.9993
-42.8564
-48.1518
-43.0905
-46.2407
-44.0325
-46.5001
-41.9018
-43.4816
-34.7818
-44.6558
-117.754
20.0297
-118.138
-118.367
-104.433
-156.758
-64.46
-58.7214
-68.679
-60.2054
-39.8113
-39.2941
-41.8828
-36.5694
-37.2972
-36.0126
-37.9202
-32.4625
-50.4988
-46.0845
-52.7315
-46.0019
-15.8463
-16.2694
-28.2256
2.66754
-66.7544
-55.5329
-65.3138
-52.2341
-35.5566
-35.2168
-36.7537
-34.9868
-53.8755
-55.7259
-54.8171
-57.0978
-38.8033
-45.9169
-122.318
17.5427
-67.3768
-61.0217
-70.6728
-61.5097
-34.7517
-34.9364
-37.207
-32.2356
-47.8479
-44.7548
-49.9499
-44.8633
-66.5062
-54.2921
-64.2678
-51.4832
-52.5336
-54.3065
-53.2543
-56.257
-28.8089
-27.6923
-28.9294
-28.3009
-35.3083
-36.1078
-36.7758
-34.9094
-34.8402
-34.721
-36.3344
-33.5694
-31.0473
-32.9915
-29.208
-34.6503
-35.2983
-35.1507
-31.9322
-36.9794
-46.5409
-45.1884
-43.1979
-51.1325
9.1539
9.16955
7.94504
6.96615
-69.7936
-69.6956
-71.3326
-68.6587
-28.0909
-26.818
-28.048
-27.9065
-35.0917
-35.9275
-36.9348
-34.5284
-30.5679
-31.8694
-28.6494
-33.4793
-46.0255
-45.2044
-42.7589
-50.6462
-73.2679
-68.2135
-67.7971
-60.6333
-73.222
-69.1027
-67.7794
-61.3851
-62.4755
-58.5477
-58.7925
-55.5037
-47.7017
-39.5632
-39.5584
-31.6586
201.122
193.486
203.486
201.095
-32.2685
-33.2117
-32.6485
-34.0175
-31.5395
-32.5083
-31.9143
-33.3134
-29.9228
-30.0513
-29.8294
-29.7588
-88.9904
-86.6697
-84.4366
-88.8227
-58.7245
-55.9689
-56.3812
-54.8365
-55.2999
-52.8034
-53.7878
-53.7626
-42.7431
-41.8004
-41.6595
-40.8782
-46.4493
-49.2227
-49.1234
-51.8394
-32.1556
-29.8755
-32.6239
-29.9973
-54.8598
-44.6056
-127.868
-21.4343
-125.752
-121.799
-110.499
-197.595
-85.7416
-68.7555
-78.5713
-77.2298
-40.3645
-40.0626
-42.3307
-36.8952
-41.2328
-38.7129
-40.3265
-37.3321
-42.3254
-53.1139
-45.5948
-46.7681
-75.8227
-68.7995
-78.3889
76.0766
-18.9382
-21.9722
-40.9218
-1.26149
-71.5682
-76.9844
-80.8106
-69.3457
-39.3501
-39.2725
-43.013
-36.5534
-36.6552
-35.8892
-37.4479
-35.4829
-44.9874
-49.3683
-47.2696
-45.1072
-126.979
-123.066
-111.692
-194.124
-50.1996
-43.1939
-121.465
-18.4998
-85.7434
-69.386
-78.3981
-78.043
-36.5676
-35.625
-37.0843
-31.8779
-34.9586
-34.519
-37.2512
-31.8252
-41.453
-50.5955
-43.5314
-44.8039
-16.137
-22.3999
-44.0949
5.39453
-90.6436
-69.6441
-79.434
73.5209
-72.2799
-77.3856
-79.8997
-69.1903
-34.8513
-34.8298
-36.2748
-33.8451
-35.3417
-35.1413
-39.3173
-32.8632
-43.3198
-48.0814
-45.5037
-44.0384
-38.5033
-46.4881
-42.1261
-42.64
-30.155
-29.588
-30.2391
-29.971
-33.774
-34.4986
-35.589
-33.0737
-34.4771
-34.9364
-35.9483
-33.832
-42.6287
-44.0711
-48.3382
-41.2295
-23.9812
-26.0212
-26.0057
-27.8389
-27.261
-29.7799
-22.1968
-33.1626
-34.8703
-35.2844
-33.2245
-36.3969
-41.9042
-47.1792
-45.6606
-34.0747
-40.0282
-37.6726
-39.0384
-38.6701
-47.7298
-47.5326
-45.0422
-53.9881
-10.1266
6.11786
0.326826
-3.47419
-47.9127
-52.8529
-49.778
-53.4344
-39.1549
-35.1658
-36.7842
-38.4174
-43.8519
-44.452
-42.2796
-47.7059
-54.367
-67.4655
-62.6032
-67.3112
-39.2583
-49.5653
-42.9991
-43.8933
-34.3299
-34.6135
-36.3232
-33.176
-29.321
-28.6876
-29.2709
-28.5383
-33.4922
-34.2753
-35.6272
-32.7551
-42.4497
-43.5568
-48.4537
-41.5487
-33.6637
-34.9476
-30.4535
-37.3387
-22.6269
-24.8236
-24.8149
-26.2018
-26.796
-29.1597
-20.6602
-33.4015
-41.9436
-47.0333
-45.4825
-34.0988
-10.718
6.11291
0.377161
-3.58657
-39.6366
-37.3384
-39.3315
-38.2631
-47.3214
-46.8743
-44.4436
-53.5001
-47.2574
-52.4634
-48.9058
-53.0175
-54.4097
-67.3292
-62.1477
-66.7698
-38.7144
-34.4102
-36.1526
-38.0468
-43.3363
-43.5519
-41.5988
-47.2446
-107.648
-80.4515
-88.3563
-92.0823
152.462
179.711
155.152
167.249
-84.4409
-71.8695
-77.6077
-77.7298
137.544
175.831
157.444
153.541
-68.1548
-68.2754
-72.3571
-58.5737
-58.9611
-58.7466
-62.7716
-55.4768
-43.6521
-50.1129
-46.2205
-46.2328
-35.0745
-34.2055
-34.4995
-34.9755
-40.1014
-43.2772
-41.0687
-41.6058
-29.7454
-29.0767
-31.0795
-27.9629
-55.7002
-56.367
-54.4973
-60.3645
-42.5765
-42.0612
-41.6132
-42.9694
-48.4631
-54.7063
-54.3348
-52.0711
138.743
199.785
186.916
186.938
-66.7491
-69.3862
-58.9483
-72.6018
-45.4789
-41.1812
-50.1092
-36.616
-39.4896
-42.3783
-41.0123
-40.8669
-33.1935
-33.2152
-32.6154
-33.7145
-56.8458
-60.3451
-56.8289
-59.6431
-51.9804
-49.7852
-53.4332
-47.7942
-103.44
-81.9495
-86.987
-91.0632
151.711
179.45
167.37
155.234
-69.8855
-69.9963
-73.0251
-60.3517
-60.1011
-59.5339
-63.6295
-56.5588
-41.465
-48.1983
-44.3862
-44.0502
-30.4903
-29.478
-28.5561
-31.413
-51.6345
-52.2194
-52.4197
-54.4996
-41.982
-41.6715
-41.3224
-42.2179
-66.8799
-68.6556
-72.4143
-58.6883
-44.9247
-40.9785
-36.2302
-49.8854
-54.9098
-56.9605
-57.888
-54.5656
-51.4925
-49.5398
-47.362
-53.0626
-29.9782
-31.0387
-30.8109
-30.0334
-29.6985
-29.8915
-30.2008
-29.8124
-41.1475
-49.1297
-44.372
-44.6536
-34.0668
-33.6257
-33.2141
-34.7626
-41.0965
-48.1532
-44.2642
-44.0699
-31.7782
-30.8346
-31.3489
-31.0688
-30.6018
-31.644
-30.2878
-32.3506
-39.7938
-52.6615
-51.6751
-49.5325
-31.474
-30.3438
-30.7856
-31.1062
-37.7689
-39.3392
-38.5611
-38.6308
-40.1595
-36.5283
-38.0212
-38.4801
-66.0252
-84.021
-78.3001
-72.6007
-5.1175
-18.353
-12.1483
-11.7479
-22.3722
-53.1479
-38.2539
-38.3578
-75.9565
-77.8701
-76.845
-76.7536
-64.6368
-58.4078
-61.7632
-61.6937
-29.1751
-30.29
-30.0809
-29.296
-29.1809
-29.4748
-29.238
-29.2267
-41.4762
-49.1994
-44.8324
-44.8643
-33.4952
-32.965
-32.5853
-34.1501
-29.687
-30.8435
-31.577
-29.3914
-38.7139
-53.1707
-50.9288
-49.2433
-39.3758
-35.9142
-37.7321
-37.5103
-65.3203
-83.7791
-72.0896
-78.6643
-100.962
-84.9923
-87.7832
-78.5577
-43.0419
-40.4765
-48.4007
-43.6273
-44.6065
-42.1013
-48.1976
-45.2724
-115.999
-100.674
-95.2162
-85.3473
-98.8904
-83.8626
-86.5094
-80.8274
-114.843
-101.145
-94.0179
-84.7088
-44.3775
-42.2099
-48.0499
-45.1519
-43.6796
-40.8827
-48.7435
-44.2567
-86.2611
-78.4928
-78.2176
-72.337
-86.996
-79.2268
-78.8237
-73.0436
-44.6143
-41.3586
-48.9971
-44.5785
-43.678
-40.7969
-47.8386
-43.9717
-57.1132
-60.049
-57.013
-55.3266
-20.7235
-10.6286
-23.395
-14.9751
-20.2302
-10.2595
-22.9062
-14.6159
-56.5151
-59.137
-54.5444
-54.7749
121.347
100.736
144.902
141.119
85.5366
106.662
148.122
161.952
104.903
86.3212
160.891
148.231
100.664
122.444
139.243
144.297
-31.1576
-31.9147
-31.3419
-32.0878
-27.4161
-26.9356
-28.873
-28.7753
-36.466
-38.35
-34.9874
-36.7667
-38.6687
-40.4135
-37.1882
-38.6322
-30.3778
-31.3359
-30.6495
-31.3931
-38.1529
-39.841
-36.6102
-38.0099
-35.8381
-37.7014
-34.3177
-36.1487
-26.4061
-25.7915
-27.9856
-27.811
-31.3985
-32.1
-31.1424
-31.5327
-30.7286
-30.2322
-30.7921
-30.3218
-30.2165
-29.1063
-30.1881
-29.4923
-30.6492
-31.5935
-30.2933
-31.1292
-72.9043
-32.6528
-57.8801
-40.3397
-57.1109
-63.6221
-64.8831
-71.8191
-63.2989
-56.7813
-71.6003
-64.8898
-33.6139
-71.4546
-40.4291
-57.8875
-51.3851
-39.4718
-52.9769
-51.7081
-43.0573
-45.676
-46.1381
-50.3225
-45.1209
-47.2236
-46.7315
-49.2492
-48.2398
-42.9357
-49.9156
-44.251
-51.3493
-40.1452
-53.2117
-51.5095
-48.1681
-42.8854
-49.7077
-44.2259
-42.4091
-44.8238
-44.4025
-46.8529
-41.2235
-43.8573
-44.0857
-48.475
-39.5415
-38.0847
-40.0329
-38.836
-40.0168
-38.6654
-40.196
-39.0914
-40.0688
-41.8471
-41.8574
-42.5594
-42.0398
-43.6726
-43.1214
-43.7887
-66.006
-65.4569
-60.4391
-62.4476
-40.385
-42.5853
-41.521
-43.5857
-39.6583
-41.8492
-41.0695
-43.0384
-65.8251
-65.2888
-60.1403
-62.2472
-35.5677
-35.4801
-35.0418
-33.9858
-29.3367
-30.1921
-27.4663
-28.571
-32.4578
-31.5943
-32.4847
-31.2585
-35.1043
-34.8445
-34.8227
-34.4891
-140.872
-66.3729
-119.723
-113.273
-109.595
-102.617
-42.8
-37.9869
-41.7941
-38.8451
-42.162
-42.7505
-84.169
67.4929
-61.746
17.9863
-77.237
-65.2476
-42.7742
-37.0335
-38.6674
-36.314
-44.0608
-41.5839
-120.413
-113.478
-133.868
-78.571
-114.023
-103.089
-37.9164
-33.2352
-37.5554
-32.7494
-39.7782
-39.7702
-63.6615
21.1299
-84.763
64.5438
-78.2479
-65.8657
-36.9328
-33.6447
-39.4436
-33.5381
-41.5721
-39.9972
-36.4359
-34.6439
-31.0639
-30.9205
-34.8111
-32.2285
-35.6156
-33.1693
-33.4512
-39.0678
-22.2397
-27.5521
-19.2419
-32.3993
-32.5025
-37.0399
-42.2203
-35.5451
-41.4748
-42.0624
-44.5234
-56.0933
-22.6958
-47.1296
-44.3218
-48.5595
-40.5945
-41.5754
-42.0733
-47.2224
-50.9353
-51.5003
-36.5218
-36.6104
-35.3908
-32.1642
-30.2414
-30.1627
-34.6684
-31.6971
-37.7517
-40.1823
-27.1791
-39.0354
-19.8035
-24.3778
-16.1609
-33.5577
-42.5932
-35.7936
-23.3537
-47.5332
-41.8621
-41.6217
-44.1308
-56.0851
-44.4407
-48.2462
-50.5777
-51.0013
-40.1186
-41.3774
-41.5174
-46.802
-133.994
16.7639
-76.5233
36.4877
-131.939
-131.823
115.799
136.49
-105.925
-183.87
-106.608
-174.843
-92.84
-93.0367
46.6398
37.5413
-68.3103
-66.1635
-51.1804
-54.8806
-70.8443
-57.8251
-62.6618
-55.9715
-41.9011
-36.4989
-42.4245
-36.4193
-42.4268
-43.2442
-35.242
-35.5403
-39.1135
-35.0797
-37.2462
-31.1565
-38.7209
-39.4595
-32.4302
-29.7929
-63.9893
-48.8608
-48.8291
-42.8659
-52.537
-61.0852
-43.063
-44.3355
-34.386
-8.90493
-34.8073
-9.64027
-38.6632
-39.7863
28.1537
28.3736
-80.0586
-65.6902
-54.0382
-40.6058
-58.7724
-77.7573
-55.8806
-41.2674
-37.0178
-35.1443
-36.4873
-34.4928
-38.1753
-37.9699
-33.6803
-34.2509
-51.7473
-50.3963
-53.9339
-58.9054
-53.9754
-55.4698
-58.5495
-50.7703
-133.665
18.1514
-84.4656
33.2066
-128.1
-126.739
135.182
116.168
-69.2377
-67.225
-52.3103
-56.5907
-70.6484
-59.2413
-63.7319
-57.3913
-36.9352
-31.6154
-38.0109
-32.6301
-39.5025
-38.9896
-30.6028
-31.9938
-60.7651
-46.6105
-49.3068
-42.4589
-51.1906
-54.6448
-42.6256
-43.1412
-80.5262
-65.5094
-53.4261
-39.675
-75.763
-58.3463
-40.4962
-55.2618
-49.7959
-49.4939
-52.9652
-58.4691
-54.1184
-51.956
-50.1595
-57.9943
-29.6812
-29.5825
-27.52
-27.1364
-29.8004
-28.9123
-29.7673
-29.1428
-36.1966
-33.9401
-37.5235
-36.3781
-38.4403
-38.8507
-33.879
-35.167
-36.3939
-33.7384
-36.3177
-33.3732
-38.5919
-38.5437
-32.6768
-32.4389
-24.9653
-33.9025
-33.549
-35.6112
-28.777
-31.7585
-31.8156
-32.6116
-32.4232
-36.7947
-31.3602
-37.0547
-31.7865
-32.1818
-36.9418
-37.0506
-44.8323
-52.9092
-42.8682
-49.1237
-40.6165
-43.278
-58.4749
-55.4406
6.3008
5.91049
6.34003
5.88093
1.12091
1.21299
-3.43996
-3.2808
-69.7193
-67.8535
-69.5639
-67.7214
-72.9366
-72.8589
-66.8051
-66.7443
-28.7481
-28.1745
-26.5766
-27.4029
-28.9655
-28.1336
-28.8517
-28.509
-36.2732
-33.5466
-37.6661
-35.966
-39.1239
-38.7505
-33.3881
-34.6982
-23.6709
-33.4211
-32.8115
-34.7878
-30.9112
-27.7592
-30.2421
-31.8139
-44.1466
-52.4909
-42.5754
-48.6414
-42.125
-40.4012
-54.906
-57.9716
-76.2163
-75.5333
-73.2288
-59.6785
-58.3783
-72.1925
-53.0328
-53.1336
-76.7723
-76.9802
-73.4537
-60.9943
-72.769
-58.7674
-53.4767
-53.617
-66.8179
-67.002
-62.4962
-55.3134
-62.9779
-55.9185
-54.0405
-53.439
-53.373
-53.6961
-48.9121
-33.4123
-33.33
-49.1336