# vtk DataFile Version 2.0
tri_press
ASCII
DATASET UNSTRUCTURED_GRID
POINTS 3682 float
-0.732114 0.165 -2.045
-0.695 0.195 1.96929
-0.725 0.815 -1.99142
-0.704283 0.855 1.835
0.733773 0.165 -2.045
0.695 0.195 1.97131
0.725 0.815 -1.99103
0.705 0.855 1.83757
-0.75166 0.143082 -0.706904
-0.748972 0.143399 0.631193
-0.723864 0.834103 -0.715947
-0.788767 0.919245 0.559527
0.752672 0.143177 -0.70623
0.74943 0.143495 0.63254
0.724377 0.834377 -0.71483
0.789572 0.919572 0.56137
-1.47349 -0.19503 -3.08251
-1.47499 -0.190885 -2.03683
-1.49408 -0.206928 -0.697133
-1.4939 -0.20929 0.655019
-1.45448 -0.180826 1.99576
-1.44378 -0.167692 3.04658
-1.44698 -0.162826 4.08789
-1.47114 0.147616 -3.07809
-1.46996 0.156494 -2.03924
-1.49488 0.148628 -0.7118
-1.49783 0.152707 0.621126
-1.43734 0.1708 1.94976
-1.4319 0.182483 2.99976
-1.44086 0.188144 4.04316
-1.46747 0.817071 -3.05184
-1.46103 0.82389 -2.01047
-1.48009 0.848352 -0.725732
-1.52004 0.900743 0.554432
-1.45076 0.865986 1.84039
-1.43915 0.875231 2.89307
-1.44515 0.888223 3.94662
-1.47183 1.84959 -3.05962
-1.47098 1.86678 -2.02765
-1.47921 1.9132 -0.762996
-1.49803 1.96368 0.488094
-1.49662 1.96862 1.75342
-1.48354 1.96271 2.78678
-1.47419 1.96442 3.83336
-0.735682 -0.190291 -3.08621
-0.733121 -0.184638 -2.04231
-0.747471 -0.210054 -0.695805
-0.7518 -0.214312 0.663682
-0.725605 -0.168568 2.01048
-0.716041 -0.15969 3.05687
-0.717469 -0.15935 4.09421
-0.735978 0.150938 -3.079
-0.703766 0.190174 3.00846
-0.71173 0.190854 4.04818
-0.734116 0.814044 -3.04374
-0.708686 0.872759 2.89281
-0.714709 0.887278 3.9473
-0.734822 1.84481 -3.05151
-0.732199 1.86088 -2.01871
-0.733656 1.91052 -0.757283
-0.751762 1.96797 0.488258
-0.758715 1.97021 1.74994
-0.748081 1.96177 2.78333
-0.738975 1.96325 3.83109
0.736007 -0.19023 -3.08579
0.742739 -0.18459 -2.042
0.750735 -0.209955 -0.695038
0.738193 -0.214215 0.665018
0.704594 -0.168526 2.01229
0.718837 -0.15964 3.05875
0.731426 -0.159279 4.09603
0.730889 0.150984 -3.07866
0.719976 0.190209 3.01046
0.733207 0.190919 4.05007
0.72658 0.814097 -3.04327
0.723082 0.872803 2.89499
0.734041 0.88735 3.94926
0.735924 1.84494 -3.05068
0.740056 1.86103 -2.01779
0.75195 1.91071 -0.756084
0.748775 1.96817 0.489812
0.726577 1.97036 1.75175
0.725068 1.96189 2.78518
0.730842 1.96336 3.83289
1.47317 -0.194873 -3.08146
1.47948 -0.190723 -2.0358
1.49468 -0.206693 -0.695391
1.48696 -0.209066 0.657754
1.44702 -0.180693 1.99925
1.44873 -0.167563 3.05022
1.4606 -0.162671 4.09146
1.46728 0.147757 -3.07714
1.47044 0.156643 -2.03838
1.49431 0.148899 -0.710075
1.49902 0.152961 0.624008
1.44332 0.170903 1.95353
1.44698 0.182595 3.0036
1.46084 0.188292 4.04685
1.4616 0.817229 -3.05072
1.46002 0.824077 -2.00929
1.48091 0.848761 -0.723638
1.52298 0.901163 0.557724
1.45619 0.866138 1.84457
1.4525 0.875364 2.89715
1.46328 0.888385 3.95043
1.47319 1.84985 -3.05791
1.47829 1.86708 -2.02576
1.49367 1.91358 -0.760599
1.49687 1.96405 0.491133
1.47445 1.96891 1.75692
1.46663 1.96296 2.79039
1.46866 1.96465 3.83692
-0.744135 0.49 -2.03379
0.000829488 0.155157 -2.05484
-0.758647 0.137282 -1.37595
-0.730185 0.525 1.93269
0 0.215532 1.94977
-0.749356 0.14183 1.30024
0 0.857336 -2.03356
-0.812573 0.912693 -1.35368
0.000358492 0.951122 1.93241
-0.806642 0.94724 1.19726
0.744576 0.49 -2.0332
0.759664 0.137647 -1.37562
0.730184 0.525 1.93462
0.749735 0.141727 1.30193
0.812537 0.912537 -1.35293
0.806871 0.946871 1.19947
-0.750346 0.143211 -0.037855
-0.701206 0.488592 -0.711425
0.000505651 0.158527 -0.706567
-0.783689 0.531322 0.59536
0.000228837 0.168768 0.631867
-0.782919 0.903277 -0.07821
0.000256779 1.45302 -0.715388
0.000402335 1.71652 0.560448
0.751085 0.143301 -0.036845
0.70289 0.488777 -0.71053
0.78432 0.531533 0.596955
0.783689 0.903689 -0.07673
-0.837385 0.489296 -1.36482
0.837938 0.489389 -1.36427
0.000667569 0.158298 -1.37578
0.000128389 1.16819 -1.35331
0.000414744 0.49 -2.25981
-0.777882 0.509957 -0.0580325
0.778042 0.510155 -0.0567875
0.000367244 0.163664 -0.03735
0.000329557 1.7129 -0.07747
-0.856403 0.528161 1.24875
0.856346 0.528267 1.2507
0.000114419 0.170324 1.30108
0.000380414 1.527 1.19837
0.000179246 0.525 2.26882
-0.747052 0.3275 -2.04832
-0.365642 0.15852 -2.05148
-0.758766 0.137755 -1.71048
-0.714568 0.36 1.95296
-0.3475 0.214849 1.94995
-0.743569 0.147023 1.63477
-0.718778 0.6525 -1.99681
-0.3625 0.831294 -2.00762
-0.802514 0.897573 -1.67255
-0.68593 0.69 1.85254
-0.351962 0.852497 1.83314
-0.785271 0.930928 1.51613
0.367301 0.156955 -2.05305
0.747592 0.3275 -2.04752
0.759887 0.138155 -1.71031
0.3475 0.214835 1.95097
0.714354 0.36 1.95473
0.744425 0.146307 1.63662
0.3625 0.831478 -2.00761
0.719657 0.6525 -1.99699
0.802681 0.897681 -1.67198
0.352679 0.851749 1.83368
0.684373 0.69 1.85288
0.785233 0.930233 1.51852
-0.752331 0.143004 -1.04143
-0.751036 0.143114 -0.372379
-0.893707 0.2322 -0.709164
-0.366486 0.168986 -0.706735
-0.754781 0.136997 0.965718
-0.749661 0.143304 0.296669
-0.893706 0.273673 0.613277
-0.361965 0.180896 0.63153
-0.710343 0.815522 -1.03482
-0.723998 0.667079 -0.713686
-0.75864 0.873939 -0.397078
-0.469404 1.35876 -0.715668
-0.771327 0.906864 0.878395
-0.795657 0.729998 0.577443
-0.79631 0.921728 0.240658
-0.548859 1.62723 0.559988
0.753574 0.143006 -1.04092
0.367626 0.168778 -0.706399
0.751912 0.143205 -0.371538
0.863467 0.248134 -0.70838
0.755256 0.136937 0.967233
0.362562 0.180666 0.632203
0.750258 0.143397 0.297848
0.863466 0.289219 0.614748
0.709698 0.814698 -1.03388
0.470139 1.35934 -0.715109
0.7244 0.666961 -0.71268
0.75924 0.87424 -0.39578
0.772128 0.907128 0.88042
0.549542 1.62715 0.560909
0.796561 0.73036 0.579163
0.796994 0.921994 0.24232
-0.827449 0.489648 -1.6993
-0.37186 0.49 -2.22665
0.000748529 0.154586 -1.71531
0.000622116 0.322578 -2.2819
-0.845626 0.313289 -1.37038
-0.378989 0.161818 -1.37587
-0.844732 0.526581 1.59072
-0.365003 0.525 2.20155
5.72093e-05 0.173484 1.62543
8.9623e-05 0.370266 2.27675
-0.837877 0.334995 1.2745
-0.374621 0.169825 1.30066
6.41947e-05 1.09342 -1.69343
0.000207372 0.673668 -2.12777
-0.876288 0.700995 -1.35925
-0.406223 1.1314 -1.3535
0.000369453 1.27252 1.56539
0.000268869 0.738061 1.96995
-0.873767 0.7377 1.22301
-0.403131 1.45945 1.19782
0.828915 0.489694 -1.69874
0.372495 0.49 -2.22654
0.84553 0.313518 -1.36994
0.380166 0.161521 -1.3757
0.844781 0.526633 1.59266
0.365182 0.525 2.20182
0.837768 0.334997 1.27631
0.374925 0.169823 1.3015
0.876291 0.700963 -1.3586
0.406333 1.13132 -1.35312
0.87376 0.737569 1.22508
0.403626 1.45854 1.19892
-0.893706 0.261788 -0.0479438
-0.36417 0.175076 -0.0376025
-0.889852 0.488944 -1.03812
-0.750754 0.499275 -0.384729
0.00058661 0.162025 -1.04118
0.000436447 0.161078 -0.371958
-0.79309 0.52064 0.268664
-0.854935 0.529742 0.922056
0.00029804 0.166245 0.297258
0.000171628 0.166519 0.966475
-0.788893 0.710864 -0.0681213
-0.549577 1.62466 -0.07784
0.000192584 1.19435 -1.03435
0.000293168 1.67332 -0.396429
0.000365946 1.72553 0.241489
0.000391374 1.65919 0.879408
0.863467 0.277277 -0.0468163
0.365035 0.174866 -0.0370975
0.8898 0.489083 -1.0374
0.750572 0.499466 -0.383659
0.792723 0.520844 0.270084
0.854916 0.5299 0.923826
0.789604 0.711291 -0.0667588
0.55022 1.62472 -0.0771
-0.842075 0.320395 -1.70489
-0.86593 0.314563 -1.03977
-0.851907 0.681171 -1.03647
-0.875892 0.676747 -1.68593
0.841955 0.320509 -1.70452
0.875887 0.676731 -1.68536
0.851641 0.68127 -1.03564
0.86585 0.314747 -1.03916
-0.372316 0.159149 -1.71289
0.373734 0.159089 -1.71281
0.378377 0.164572 -1.04105
-0.377283 0.164677 -1.0413
-0.384361 1.05826 -1.68299
-0.384013 1.17199 -1.03458
0.384325 1.17189 -1.03411
0.384416 1.05823 -1.68271
-0.368751 0.325039 -2.24555
-0.36718 0.663084 -2.04347
0.367498 0.663084 -2.04373
0.369898 0.325039 -2.24545
-0.893707 0.246994 -0.378554
-0.893706 0.26773 0.282667
-0.801428 0.725008 0.254661
-0.760582 0.69104 -0.390904
0.863467 0.262705 -0.377598
0.761148 0.691199 -0.389719
0.801931 0.72525 0.256202
0.863466 0.283248 0.283966
-0.365456 0.171776 -0.372169
0.36646 0.171563 -0.371748
0.363811 0.17774 0.297553
-0.363079 0.177964 0.296964
-0.552344 1.57742 -0.396754
-0.554391 1.63629 0.241074
0.555069 1.63631 0.241905
0.552937 1.57754 -0.396105
-0.840492 0.336178 0.943887
-0.824097 0.347498 1.61274
-0.859493 0.71385 1.55343
-0.84365 0.731492 0.900226
0.840383 0.336255 0.945529
0.843389 0.731561 0.902123
0.85864 0.713785 1.55559
0.823096 0.347498 1.61464
-0.374496 0.164289 0.966096
0.374877 0.164261 0.966854
0.361212 0.174465 1.63102
-0.36106 0.174391 1.6301
-0.398657 1.62098 0.878901
-0.377547 1.20425 1.54076
0.378153 1.20462 1.54195
0.399307 1.62067 0.879914
-0.356251 0.365133 2.21536
0.356341 0.365133 2.21568
0.35893 0.714031 1.89811
-0.358483 0.714031 1.89742
-0.744636 0.24625 -2.05171
-0.548878 0.160235 -2.04976
-0.753362 0.143456 -1.87774
-0.704908 0.2775 1.96125
-0.52125 0.193035 1.97151
-0.724143 0.166154 1.80203
-0.735652 0.73375 -2.00788
-0.54375 0.800612 -1.97698
-0.769414 0.861944 -1.83199
-0.702626 0.7725 1.85129
-0.528123 0.785197 1.76552
-0.745994 0.894181 1.67557
0.550537 0.157893 -2.05211
0.745276 0.24625 -2.05085
0.759894 0.138513 -1.87765
0.52125 0.194748 1.97131
0.704651 0.2775 1.96299
0.724474 0.165892 1.80396
0.54375 0.800971 -1.97705
0.736032 0.73375 -2.00771
0.769514 0.862014 -1.8315
0.52884 0.783843 1.76609
0.701186 0.7725 1.85172
0.746215 0.893715 1.67804
-0.752066 0.142973 -0.874166
-0.751381 0.143066 -0.539641
-0.893707 0.15213 -0.708034
-0.557622 0.158937 -0.706819
-0.775177 0.116898 0.798456
-0.749316 0.143352 0.463931
-0.893706 0.172353 0.622235
-0.553658 0.165768 0.631362
-0.7056 0.81331 -0.875381
-0.724159 0.750705 -0.714816
-0.741528 0.854297 -0.556513
-0.648597 1.20036 -0.715807
-0.781915 0.914923 0.718961
-0.796235 0.826634 0.568485
-0.792761 0.920709 0.400093
-0.690012 1.31564 0.559757
0.753149 0.143065 -0.873576
0.564624 0.147026 -0.706314
0.759259 0.136224 -0.538884
0.863467 0.167957 -0.707305
0.775526 0.117033 0.799886
0.562626 0.14882 0.632372
0.749843 0.143447 0.465194
0.863466 0.187848 0.623644
0.706162 0.813662 -0.874355
[...]
POINT_DATA 3682
SCALARS point_scalars float 1
LOOKUP_TABLE default
-96.8552
-58.7188
-59.6249
-47.5286
-101.322
-57.5628
-61.3387
-46.3978
-44.5847
-41.3205
-49.8378
-53.5371
-43.8247
-40.2866
-49.7961
-52.9213
-29.4727
-104.361
-47.4417
-48.5921
-61.6447
-58.8043
-53.7564
15.9699
-111.455
-47.8179
-47.0081
-61.1211
-54.3519
-53.2188
-0.715759
-120.128
-60.6763
-51.7822
-54.018
-52.1133
-50.906
-52.9015
-90.4404
-125.523
-70.4395
-45.4425
-48.1405
-50.906
-82.3155
-143.749
-44.4091
-40.8597
-57.7009
-53.7564
-53.5979
63.153
-53.5782
-52.9422
143.293
-51.5448
-53.7573
-4.84886
-76.7136
-118.526
-72.0413
-43.9436
-45.6102
-50.885
-79.8617
-143.058
-43.6012
-40.4166
-57.1529
-53.4631
-53.5713
67.5661
-53.2159
-52.842
143.52
-51.3978
-53.9011
-5.63139
-77.6516
-117.855
-71.7331
-43.5162
-44.2138
-50.8377
-30.458
-108.058
-45.1192
-49.4746
-61.7146
-57.5818
-53.4631
11.8875
-113.399
-45.6277
-48.2707
-61.3392
-53.9156
-53.0324
-0.120455
-120.273
-60.8301
-51.0592
-52.7147
-51.6942
-50.4335
-52.2765
-90.6674
-124.735
-70.0111
-44.8028
-47.0228
-50.4335
-37.5489
-131.107
-58.5314
-53.1042
-59.0595
-49.0071
66.9615
-75.5454
-43.187
-52.8574
-37.3942
-58.8393
-52.7879
-48.2011
-75.6754
-51.8153
-41.361
-48.3984
-44.0971
-43.2862
-44.9293
-54.7401
64.6982
-70.032
-40.4501
-48.2448
-41.4777
-54.0889
-67.929
-68.4949
-61.8707
-16.0535
200.103
-43.822
-43.2947
-41.8555
-102.529
-52.4795
-52.1549
-53.842
-41.6385
-52.1278
-54.6135
-132.511
-86.5229
-55.0114
-58.7163
-63.0036
9.44914
55.7242
-89.7061
-49.0042
-44.7861
-48.3848
-133.459
-55.9344
-84.4124
-58.4452
-54.7303
-62.381
55.2211
9.48493
-90.745
-43.419
-48.0155
-47.1232
-44.2987
-41.9327
-48.2104
-44.1219
-45.5213
-41.662
-50.0307
-42.589
-56.217
-47.9568
-51.4362
19.8971
-48.6485
-47.1459
-56.9796
-68.6445
-45.3776
-44.2104
-40.8901
-46.2833
-45.8135
-42.8522
-40.8788
-40.8878
-56.2625
20.0887
-47.9432
-51.0373
-48.2847
-68.2835
-46.2834
-55.9846
-107.855
175.767
-84.2235
177.828
-63.8358
-61.0041
-57.9832
-52.1227
-59.9649
-52.2579
-52.012
-53.9803
-52.1416
166.58
-71.2832
-34.2982
-39.3046
-45.5434
-52.3289
-42.9483
-108.182
175.59
-64.5673
-60.9752
-57.1508
-52.0691
-51.8471
-53.4681
-71.6135
-34.227
-51.8577
-42.5892
-43.2338
-41.7647
-57.7644
-42.8822
-49.8661
-42.5777
-46.6266
-49.5012
-42.3359
-49.4023
-47.1569
-90.2661
21.8961
-131.733
-82.9878
-53.0257
-41.9162
-41.3629
-58.5598
-42.178
-44.7915
-49.9271
-46.5751
-89.8736
-102.175
-47.6956
-59.2754
-112.894
-102.649
-113.213
-59.39
-49.9128
-83.386
-83.532
-49.3361
-49.3875
-67.5139
1.43064
1.54816
-67.663
158.962
134.19
134.24
159.526
-43.0479
-44.331
-50.3893
-44.5446
-41.8075
-44.1069
-49.1741
-42.6302
-42.3662
-42.1276
-41.7811
-41.941
-133.567
-76.6437
-76.3513
-132.059
-47.1484
-58.6986
-56.9268
-43.1715
-48.2498
-43.074
-55.8246
-58.1617
-50.0151
-50.0737
-60.2028
-60.2426
-54.5436
-41.5276
-40.6105
-54.2744
-51.5645
-51.4395
-45.0011
-46.1061
-52.0718
-139.903
-109.549
-56.2115
-57.884
-62.2032
-7.86196
56.2432
-84.9968
-49.2359
-44.4268
-46.7197
-141.72
-53.613
-115.728
-57.5616
-55.7517
-62.6257
56.2666
-9.08628
-84.8613
-43.0742
-48.2264
-45.508
-45.7939
-42.8977
-46.8158
-43.8815
-46.0622
-41.8338
-46.4455
-41.226
-52.4568
-48.4001
-49.8503
-80.0784
-51.1612
-50.2298
-55.7205
-62.1727
-46.135
-44.3404
-42.9338
-45.3154
-47.6664
-41.5213
-41.0278
-42.3371
-52.5253
-80.132
-48.3918
-49.6423
-50.8389
-61.5789
-49.542
-54.9718
-49.6087
-10.1708
-139.143
126.255
-131.744
-132.142
-102.191
41.8594
-66.9269
-49.6022
-60.5066
-59.7779
-54.303
-49.4515
-57.0123
-51.7467
-58.9416
-58.854
-61.4283
-54.3137
-59.1862
-50.7653
-51.1297
-53.5467
64.685
64.7908
-33.8881
125.743
-87.0413
-62.3508
-73.6621
-63.6623
-44.2242
-43.4224
-38.5644
-45.8946
-50.2166
-48.2508
-52.0268
-46.4445
-53.1398
-10.0075
-139.497
125.668
-67.1536
-50.1358
-61.2573
-59.7736
-53.779
-48.6293
-56.0556
-51.4965
-58.9446
-50.145
-51.0312
-51.7907
-87.1565
-62.4508
-73.888
-63.7305
-49.1829
-47.9166
-51.3215
-45.8637
-41.4912
-41.4847
-42.053
-41.6065
-48.1148
-48.1778
-53.7881
-44.7591
-44.0106
-44.0252
-46.1429
-43.5317
-43.0546
-44.7851
-46.1467
-40.6954
-44.5718
-44.6796
-43.09
-44.9711
-53.2583
-56.532
-50.4407
-72.4606
60.7935
61.0191
44.4066
-102.166
-69.937
-69.7996
-77.0948
-61.5699
-40.5905
-40.5035
-40.8992
-41.2743
-47.8939
-48.1235
-53.5578
-44.3837
-40.5623
-43.6416
-44.4247
-40.1997
-52.6962
-55.6971
-49.8247
-71.8973
-82.6167
-66.5954
-69.2132
-58.4042
-83.0965
-67.2413
-69.6929
-59.1577
-71.5769
-61.6597
-61.6506
-54.858
-37.9687
-20.4106
-20.3477
5.0207
195.96
202.911
166.779
195.704
-43.6095
-43.0738
-45.8707
-44.9896
-42.9768
-42.2155
-44.064
-44.3081
-41.8471
-42.0441
-41.9398
-41.6779
-99.4996
-115.559
-91.0486
-99.3511
-55.7453
-52.3354
-52.4571
-49.5004
-55.1121
-52.1252
-52.1885
-49.4746
-56.5153
-53.9175
-53.7034
-51.5713
-39.9701
-41.9722
-41.8345
-46.3801
-52.1664
-51.9529
-51.9252
-52.1694
-119.1
105.916
-102.018
65.3018
-96.1912
-83.2805
-59.9882
-51.2512
-61.7875
-53.8832
-59.5629
-60.3092
-127.662
141.473
-28.5182
113.614
-105.02
-103.229
-54.369
-45.8368
-42.5271
-45.7549
-53.9661
-43.3379
-102.488
63.8154
-119.754
105.614
-96.5543
-83.1813
-61.6571
-53.727
-59.2806
-50.9443
-59.2543
-60.0629
-28.5667
113.54
-127.771
141.248
-105.368
-104.468
-40.9941
-44.5632
-53.0586
-44.6763
-52.6842
-42.3
-39.9082
-48.5384
-42.3578
-42.1022
-53.1784
-44.509
-46.053
-43.1539
-45.6462
-50.4703
-42.8389
-41.5272
-45.1028
-48.4237
-42.2753
-45.0629
-57.2536
-26.7778
-51.4709
-45.2828
-47.2206
-81.9348
5.28754
-73.2435
-44.943
-55.5159
-49.4681
-44.5456
-53.4198
-68.5049
-73.688
-62.2742
-42.5866
-47.9246
-46.197
-43.0256
-41.1011
-41.5369
-57.0301
-43.337
-46.7098
-49.2603
-42.326
-45.3741
-41.4708
-41.567
-42.5443
-53.3998
-57.3127
-25.3725
5.51631
-74.5528
-51.5227
-45.0884
-46.8024
-81.4777
-44.628
-55.0664
-73.5322
-61.9347
-48.4052
-44.3054
-52.3924
-67.9522
-104.913
-109.459
178.782
131.342
-83.9317
-84.0074
172.058
172.705
-77.6642
-53.5184
-70.509
-54.1104
-58.1403
-57.9157
-51.6164
-50.8125
-60.0063
-60.1017
-52.2299
-52.1972
-48.4598
-55.7203
-51.7872
-57.0373
-56.295
-56.3013
157.607
157.594
-62.8394
-85.2202
-53.8263
-13.6287
-40.1537
-39.585
-45.1192
-45.728
-56.1881
-48.029
-47.7905
-41.236
-105.337
-109.855
131.712
178.788
-78.2075
-54.6846
-70.6655
-54.0341
-57.008
-57.3929
-51.5284
-50.5847
-48.6626
-54.9885
-51.0106
-56.8166
-85.5513
-63.1212
-13.5341
-53.8049
-47.6769
-55.2779
-40.7412
-47.5155
-42.8413
-43.7344
-41.9168
-41.8217
-52.2205
-60.7755
-42.8688
-43.2185
-49.7454
-49.7387
-42.5344
-42.4255
-46.4036
-48.1224
-48.7353
-47.2015
-42.1629
-42.2301
-49.5536
-49.4722
-49.6434
-45.5856
-101.502
-81.5226
16.8968
16.9717
-127.987
-127.798
-81.6209
-81.474
-53.5873
-53.4617
-41.4822
-42.3918
-41.5971
-41.4014
-61.1239
-53.9233
-42.2927
-42.6964
-46.6104
-44.5964
-49.5665
-47.29
-44.9859
-48.3782
-81.2273
-101.279
-109.444
-73.4731
-80.6794
-125.828
-47.0407
-56.0486
-56.8509
-50.764
-51.6053
-64.4327
-60.6532
-51.0932
-103.385
-139.611
-83.418
-88.6122
-110.976
-126.28
-81.1819
-74.0201
-103.735
-88.8759
-83.8317
-139.969
-51.6551
-51.0252
-61.1925
-64.595
-52.222
-52.0169
-57.7453
-55.6902
-105.056
-101.802
-71.3395
-69.5618
-106.294
-69.6529
-71.3693
-101.891
-46.5683
-46.1148
-54.6847
-52.8533
-45.9529
-52.9344
-54.7047
-46.0858
-74.54
-81.3255
-41.8436
-37.9858
-55.7575
37.9872
0.620381
-50.7558
-55.7333
-50.6451
0.683629
38.1615
-74.1214
-37.9908
-41.8564
-81.1436
45.1014
121.523
197.731
52.3618
137.257
124.356
156.348
112.489
136.793
112.55
156.322
124.326
46.4571
52.6113
197.862
120.882
-43.7388
-41.9488
-43.0521
-44.6869
-43.7461
-45.8518
-45.3027
-42.3965
-52.2933
-52.7013
-47.2182
-47.4549
-46.9842
-44.7371
-43.734
-48.9143
-42.8211
-44.2411
-42.0705
-40.6032
-46.787
-48.3473
-43.0404
-44.4819
-51.4545
-46.0979
-45.7732
-51.7183
-41.5232
-41.2599
-43.731
-43.9722
-42.9201
-43.4531
-42.0271
-41.6862
-42.3694
-40.9304
-41.8807
-43.3973
-41.5235
-42.8935
-41.7669
-39.9767
-41.7143
-41.9685
-41.9204
-42.8725
-90.3312
-76.115
-113.289
-94.4224
-66.7863
-76.8023
-89.005
-69.1571
-66.1379
-68.5829
-88.8323
-76.6635
-89.975
-94.9929
-113.17
-75.627
-54.3528
-48.0529
-49.0839
-45.6491
-61.7319
-58.9715
-55.6163
-56.3736
-51.4231
-55.6467
-56.1765
-56.191
-47.1648
-40.0153
-49.1016
-46.792
-52.3098
-46.0791
-49.323
-48.236
-47.0496
-46.4151
-48.7844
-39.5127
-50.267
-55.0493
-55.3473
-54.6604
-61.19
-55.5769
-55.1021
-58.1297
-42.6888
-44.8738
-51.6722
-51.6646
-48.1246
-48.7659
-51.4437
-44.9607
-63.5145
-61.477
-56.4939
-57.5066
-63.4516
-57.0252
-56.6296
-61.5811
-57.5226
-50.0488
-46.7271
-61.938
-43.1866
-39.6922
-40.2729
-44.0566
-41.9318
-43.2189
-40.0029
-38.5264
-56.9853
-61.7934
-46.5871
-49.5741
-52.0699
-53.9213
-51.9515
-51.2734
-51.7244
-50.9445
-51.9394
-53.8754
-43.1746
-44.6575
-51.4154
-49.9312
-44.5365
-50.4939
-51.4299
-45.2811
-62.895
-144.39
-144.676
-57.3802
-58.3821
-58.188
-27.0777
18.6132
-87.4282
-48.8618
-44.5666
-46.2755
-145.136
-63.1856
-141.625
-57.9853
-56.6124
-57.7623
17.4403
-28.0693
-87.1751
-43.2049
-47.703
-45.1912
-45.7468
-43.6688
-45.5285
-44.0671
-38.0451
-41.8405
-44.2761
-41.0764
-51.1188
-49.1167
-49.6127
-61.7737
-52.4684
-51.8344
-54.5906
-58.2886
-45.3781
-43.8332
-41.9613
-44.1435
-37.9906
-40.9111
-40.966
-41.72
-51.1523
-61.7648
-49.0999
-49.5051
-51.8567
-57.7652
-51.1871
-53.8861
-42.7707
-27.6484
-125.099
64.792
-130.799
-131.014
-115.838
-81.9462
-60.7556
-53.5222
-58.7594
-58.9423
-53.6667
-52.0462
-54.8217
-52.1976
-59.038
-58.9968
-59.3438
-56.0502
-46.9126
-58.3555
-49.7269
-52.3913
65.9809
66.1795
9.78662
97.9694
-81.6747
-68.3616
-76.3795
-72.0283
-44.167
-43.5224
-39.9707
-46.3672
-51.2955
-50.2521
-52.0003
-50.862
-44.8972
-28.2667
-125.979
65.1912
-61.1036
-53.9075
-59.4193
-59.0424
-53.2738
-51.0577
-53.9845
-51.8488
-46.4239
-58.1845
-49.4385
-51.4795
-81.9125
-68.415
-76.5707
-72.1758
-50.3233
-49.7085
-51.2361
-49.9519
-41.3821
-41.4472
-41.5005
-41.3643
-48.4304
-48.4068
-49.027
-46.5352
-44.0709
-44.0704
-44.4394
-44.1282
-42.3905
-44.0374
-45.1733
-41.4775
-44.572
-44.607
-43.6463
-43.6145
-54.2141
-55.6123
-52.489
-64.1321
64.6299
64.6618
65.2641
31.2919
-70.1409
-70.0707
-73.8505
-65.664
-40.5042
-40.4757
-40.4949
-40.6315
-48.2077
-48.307
-48.9025
-46.2694
-39.8303
-42.6305
-43.3562
-40.3153
-53.6067
-54.7079
-51.839
-63.4879
-74.1735
-67.4854
-68.6138
-62.973
-74.6878
-68.089
-69.1461
-63.6315
-66.3792
-61.8221
-61.8389
-58.1081
-27.2449
-17.4743
-17.3351
-4.48877
197.588
206.193
177.625
197.727
-43.5943
-43.4674
-45.0714
-44.3227
-42.9889
-42.6121
-43.726
-43.626
-41.8778
-41.9005
-41.8589
-41.7936
-101.832
-109.906
-96.1668
-101.761
-54.1142
-52.5411
-52.445
-50.7671
-53.7085
-52.1115
-52.231
-50.4104
-55.1244
-53.8856
-53.7828
-52.6801
-40.3356
-41.7278
-41.6509
-43.5994
-52.1829
-51.9769
-52.6151
-52.1824
-55.0193
-51.1332
-116.738
48.2937
-135.569
-132.831
-117.668
-73.8239
-97.0825
-76.8088
-93.227
-83.1742
-55.3157
-54.7275
-58.2007
-52.112
-58.3013
-58.7924
-59.323
-55.3172
-61.5427
-70.3824
-61.4278
-59.717
4.8542
-2.90202
-107.955
114.249
56.9078
61.6836
2.59251
88.0125
-85.46
-89.9225
-95.1793
-100.445
-49.2967
-47.9736
-52.9888
-47.1236
-45.1127
-44.1993
-43.3956
-45.3612
-47.1253
-49.5292
-51.5667
-44.1492
-136.993
-132.847
-118.224
-78.0249
-56.2729
-50.5446
-117.497
48.3072
-96.7103
-76.8931
-93.2112
-83.0712
-57.872
-58.6565
-59.1598
-55.1521
-54.9425
-54.2693
-57.6055
-51.6913
-61.4159
-68.9157
-61.0268
-59.5278
55.5024
61.6019
2.72304
87.6849
4.23083
-3.53821
-108.164
113.585
-85.7372
-90.2598
-95.4465
-101.017
-43.7731
-43.0667
-41.7667
-44.0879
-48.3002
-46.9989
-51.9025
-46.0365
-45.8642
-48.3519
-50.3305
-43.1244
-46.3366
-48.6745
-34.3034
-46.9672
-42.3586
-41.6309
-42.0287
-41.9853
-47.764
-48.9972
-51.3513
-45.9944
-44.1757
-43.8806
-45.0425
-43.6528
-53.0118
-43.9788
-44.5794
-49.0557
-41.7425
-41.5506
-41.9604
-41.5308
-48.2669
-48.9264
-46.3573
-50.3771
-41.5098
-43.9009
-42.3957
-41.8468
-54.27
-58.8965
-56.2894
-44.4838
-47.9544
-47.9149
-50.0292
-46.3196
-50.8601
-52.2745
-49.0635
-65.1288
-27.2784
46.7769
14.7226
-0.99097
-49.7275
-48.0036
-47.0708
-53.6494
-48.6358
-45.7644
-48.3501
-45.9365
-56.6384
-56.8909
-55.1586
-63.3374
-67.257
-70.0286
-71.5618
-66.1172
-47.2798
-49.4473
-36.9898
-47.0387
-44.3589
-43.9337
-45.204
-43.6308
-42.845
-40.6911
-40.7943
-41.3499
-45.9664
-47.2401
-49.0753
-44.5652
-54.58
-44.0858
-45.4238
-48.0835
-41.9018
-44.0917
-42.5652
-42.2939
-40.9922
-40.6659
-40.9403
-41.0659
-41.1574
-42.2496
-42.0353
-42.4429
-54.3347
-59.0308
-56.3293
-44.1511
-26.9736
47.7137
15.1123
-1.10413
-47.9392
-47.8943
-50.0666
-46.2259
-50.5359
-51.76
-48.6426
-64.7708
-49.4129
-47.6357
-46.7273
-52.9993
-67.036
-69.782
-71.2228
-65.8156
-47.8823
-44.7788
-47.3609
-45.1397
-55.8166
-55.9716
-54.1431
-62.5548
-127.646
-93.486
-106.849
-107.918
158.4
183.611
180.718
159.325
-92.0331
-77.4435
-84.1907
-84.2307
138.879
192.413
172.498
172.438
-62.078
-65.3532
-69.8958
-58.4454
-60.5261
-61.384
-65.4889
-57.298
-58.4221
-56.9952
-57.999
-58.0181
-52.0843
-52.0843
-51.7252
-52.3859
-63.4057
-58.0858
-60.0109
-60.0658
-53.0872
-52.0099
-52.3029
-52.2855
-51.7714
-52.1682
-50.3136
-53.6043
-53.8716
-53.9375
-52.884
-55.3609
-48.6357
-47.191
-53.7219
-53.7653
148.073
171.749
165.7
165.715
-72.2043
-70.2397
-66.3659
-77.2757
-49.528
-25.3714
-43.7098
-23.0879
-38.3981
-39.7802
-39.6576
-39.3291
-45.786
-48.9228
-45.2214
-45.5465
-52.1736
-52.4626
-54.5416
-49.2547
-44.1555
-42.3407
-45.103
-41.788
-127.762
-93.9004
-107.277
-108.327
158.234
183.544
159.042
180.707
-62.8292
-66.0406
-70.5164
-59.3498
-60.4935
-61.3698
-65.4787
-57.2525
-57.4832
-56.2865
-57.0782
-57.2162
-51.9427
-52.0754
-51.6465
-52.3257
-51.6372
-52.024
-50.2894
-53.5376
-53.1767
-53.5887
-52.1988
-55.0052
-72.4817
-70.6367
-77.6203
-66.6829
-49.4898
-25.2999
-23.001
-43.6663
-51.6494
-52.0209
-48.7341
-53.8894
-43.7109
-42.0872
-41.3705
-44.8664
-42.7726
-43.623
-43.0274
-43.495
-41.6941
-41.772
-41.8029
-41.7879
-59.899
-53.7874
-55.1134
-59.2655
-43.5338
-42.734
-43.0265
-42.9665
-47.8541
-52.1521
-49.8702
-49.8659
-43.0005
-42.2904
-42.5914
-42.537
-46.8203
-45.9689
-46.1832
-47.2753
-45.3412
-49.1506
-49.6184
-48.7808
-42.6667
-42.1181
-42.2858
-42.3209
-48.3633
-50.4698
-49.4119
-49.3733
-48.6615
-45.9474
-48.5433
-46.2075
-80.2741
-96.0831
-96.0178
-86.0045
28.6354
13.8426
20.5959
20.6317
-147.927
-124.872
-131.027
-130.988
-79.9923
-86.5319
-82.6597
-82.5928
-57.1819
-49.4069
-53.2149
-53.1579
-41.6862
-42.0383
-41.6138
-42.1898
-41.153
-41.501
-41.4537
-41.3357
-60.3815
-54.5323
-59.7445
-56.6497
-43.0424
-41.9134
-42.1806
-42.3682
-45.1233
-44.1325
-45.6096
-44.1996
-45.6512
-49.596
-50.3264
-48.9808
-48.0823
-45.3258
-45.5942
-47.6616
-79.7594
-95.8307
-85.5022
-95.7332
-113.183
-99.0252
-103.414
-88.1788
-44.3453
-50.8239
-49.3945
-50.7378
-58.315
-54.1246
-61.5233
-60.6034
-127.898
-113.16
-111.001
-97.1628
-113.744
-99.4701
-103.863
-88.6817
-128.233
-113.532
-111.347
-97.4831
-58.3953
-54.1332
-61.7691
-60.8136
-46.7695
-59.9137
-50.9606
-52.7663
-91.3129
-83.4289
-83.6463
-76.4399
-91.6678
-83.4587
-83.7892
-76.5762
-48.9635
-47.6175
-51.4253
-49.6007
-49.1438
-47.5619
-51.4965
-49.596
-68.6097
-82.162
-61.1005
-62.2068
-9.32255
4.19643
-6.07401
10.8672
-9.17715
4.32906
-5.96236
10.9693
-68.7742
-82.6251
-61.1128
-62.2788
140.401
128.047
171.232
167.619
134.454
131.176
132.696
146.958
131.204
134.475
147.057
133.517
128.015
140.311
167.931
171.482
-42.7908
-43.6912
-42.7914
-42.7081
-43.9143
-44.5877
-44.0383
-45.2787
-50.2318
-51.8436
-49.1462
-50.0831
-44.6411
-45.7355
-43.6648
-45.0178
-41.7498
-42.4002
-41.5718
-41.9285
-44.3234
-45.3177
-43.1745
-44.4874
-49.1372
-50.7404
-47.7999
-48.7204
-42.2782
-42.6525
-42.558
-43.546
-42.2429
-42.7312
-42.1676
-42.4325
-42.541
-41.8678
-42.2616
-41.8879
-42.1027
-41.7035
-41.9583
-41.617
-41.6831
-42.1418
-41.8642
-42.0833
-112.145
-121.079
-111.35
-130.005
-73.5159
-75.232
-78.6004
-79.7674
-75.0335
-73.1104
-79.5412
-78.3409
-120.797
-111.219
-129.931
-110.997
-46.4448
-47.997
-47.3696
-47.9823
-58.8459
-58.9374
-58.4515
-57.6833
-56.1271
-55.9303
-57.3954
-56.7524
-43.2191
-42.4877
-47.1659
-44.7284
-47.5221
-52.4788
-47.9676
-49.1051
-42.9206
-42.6569
-47.0454
-44.7123
-54.9652
-54.6042
-56.4822
-55.7309
-58.4739
-58.6822
-57.7274
-56.915
-50.1274
-48.9332
-51.0059
-49.7168
-49.9287
-49.3438
-50.344
-49.6036
-63.2863
-60.2322
-60.0281
-58.4604
-63.4259
-60.3073
-60.1303
-58.5986
-55.0703
-58.4925
-50.7149
-53.8936
-42.0541
-42.5047
-40.7534
-41.1809
-40.7872
-41.4848
-40.0068
-40.5756
-54.7111
-58.209
-50.4486
-53.7123
-51.3457
-52.4461
-51.5457
-51.9823
-52.3008
-51.1477
-51.9154
-51.4446
-44.9107
-44.6259
-45.1002
-44.8644
-45.8055
-46.0418
-45.9691
-45.9566
-111.317
17.5591
-124.783
-58.8377
-107.574
-108.035
-59.8713
-53.23
-58.5769
-53.7455
-61.9785
-63.3858
-89.5912
131.072
-31.118
107.1
-90.9379
-80.8686
-50.1967
-47.095
-43.4775
-44.4662
-49.4203
-43.0327
-123.919
-57.4802
-111.404
18.6104
-110.685
-109.863
-58.435
-53.3326
-59.2634
-52.773
-61.7663
-63.431
-30.6743
105.965
-89.697
130.485
-91.2642
-80.4889
-42.116
-43.1071
-49.094
-45.859
-48.224
-41.9211
-45.1273
-45.8315
-43.3215
-42.7449
-49.557
-45.118
-44.229
-43.411
-49.5187
-44.9761
-42.6152
-41.6149
-44.7777
-49.5543
-41.5775
-40.0513
-52.0406
-54.7373
-50.1611
-47.3008
-48.2457
-64.9126
-63.8445
-102.476
-49.2446
-55.4364
-51.25
-48.8444
-53.9719
-61.8695
-64.1655
-59.67
-47.5988
-46.3713
-45.4675
-43.8143
-42.7275
-42.6447
-48.4585
-43.8187
-53.7385
-47.3542
-41.714
-40.1452
-40.9217
-41.2773
-41.4244
-35.9233
-52.1038
-54.7674
-63.8659
-102.215
-50.1986
-47.2124
-48.0478
-64.6293
-48.9749
-54.8207
-63.5048
-59.1151
-50.4771
-48.303
-53.199
-61.1194
-123.837
55.736
-111.52
81.5432
-131.126
-140.746
123.439
122.148
-116.218
-84.5805
-116.367
-86.5785
-102.045
-102.07
36.1334
34.9059
-71.0567
-68.7557
-49.9226
-51.8866
-66.0967
-55.3591
-64.3994
-56.0711
-56.7241
-51.8808
-50.635
-50.3245
-58.0653
-56.4675
-51.4188
-52.1161
-59.3078
-55.8622
-59.2209
-55.7812
-61.4407
-61.49
-54.2512
-54.2252
-57.7327
-58.3939
-48.8654
-52.0963
-50.1437
-53.5888
-52.5122
-54.8589
7.86588
97.2589
7.7602
97.3882
-36.9873
-36.8575
126.999
126.847
-88.8072
-82.1886
-64.3308
-60.8455
-68.2181
-79.7143
-70.3746
-54.502
-41.0587
-44.9188
-39.886
-44.2467
-39.0619
-38.4002
-45.1095
-45.4644
-53.9267
-46.7677
-47.5367
-51.084
-54.5289
-48.3454
-48.164
-44.9781
-124.842
54.9864
-112.648
81.2029
-131.537
-141.087
121.792
122.842
-71.5596
-68.8148
-51.0794
-51.7821
-66.7234
-56.2956
-64.348
-56.0579
-55.9752
-51.5284
-49.6236
-49.7596
-55.4065
-57.1063
-51.1598
-51.8325
-57.133
-58.2066
-48.6998
-50.3165
-50.2048
-53.5869
-49.8843
-53.5221
-88.9915
-82.104
-64.4356
-60.8794
-79.9766
-68.4285
-54.4625
-70.348
-52.8673
-45.8121
-47.2255
-50.5569
-47.6935
-53.6345
-44.2724
-47.6169
-41.5741
-41.5682
-41.6755
-41.5602
-42.091
-42.2459
-41.5784
-41.6459
-50.7251
-46.3269
-49.6571
-46.1356
-54.8717
-52.0742
-44.8413
-44.7056
-44.3139
-44.0518
-44.3501
-44.0275
-46.1517
-46.1395
-43.5267
-43.4983
-45.0738
-42.9464
-46.274
-42.2269
-45.8119
-46.7246
-43.3717
-39.4046
-43.3382
-43.269
-43.4052
-43.3886
-43.0412
-43.0336
-44.9431
-44.9711
-51.0189
-64.8453
-54.5482
-63.742
-51.6781
-49.7301
-74.247
-70.6251
58.7026
34.2926
58.8163
34.4923
43.6235
43.6945
-102.244
-102.398
-73.3276
-66.0922
-73.1843
-65.9459
-77.0735
-77.0072
-61.6985
-61.6291
-40.3479
-40.7784
-40.6241
-40.4671
-40.8198
-41.1483
-41.1676
-40.5531
-50.0638
-45.9836
-49.6477
-46.0091
-51.8943
-54.5945
-44.3875
-44.3838
-42.5283
-39.8831
-44.9698
-41.4963
-45.1956
-43.742
-43.0879
-38.8722
-50.4588
-64.4376
-53.687
-62.9814
-49.1162
-50.772
-70.0584
-73.7211
-81.8817
-83.3223
-72.7676
-61.5241
-64.4291
-75.2435
-58.1007
-59.6043
-82.3639
-83.7838
-73.3318
-62.2803
-75.6866
-64.9556
-60.2527
-58.8716
-71.585
-71.6047
-66.1707
-57.9317
-66.1769
-57.9124
-54.8805
-54.8861
-39.1162
-39.1837
-31.3275
-9.66282
-9.615
-31.2734
4.07302
4.1011
201.257
172.884
200.076
200.07
164.774