# vtk DataFile Version 2.0
tet_velo
ASCII
DATASET UNSTRUCTURED_GRID
POINTS 29498 float
-0.675 0.255 -2.1067
-0.739421 0.275 2.025
-0.695 0.905513 -2.045
-0.605 1.2611 2.005
0.675 0.255 -2.1067
0.739421 0.275 2.025
0.695 0.905513 -2.045
0.605 1.2611 2.005
-0.702889 0.255251 -0.729467
-0.726032 0.260249 0.647767
-0.802491 1.16153 -0.695
-0.761086 1.26866 0.655
0.702894 0.255246 -0.729467
0.730517 0.255764 0.647767
0.80256 1.1616 -0.695
0.761094 1.26867 0.655
-1.41277 -0.255932 -3.21296
-1.41171 -0.174859 -2.12208
-1.42874 -0.171742 -0.744142
-1.42832 -0.197651 0.639276
-1.4191 -0.198178 2.01768
-1.42563 -0.176609 3.11082
-1.43776 -0.142766 4.19977
-1.41331 0.138637 -3.1919
-1.41739 0.247272 -2.104
-1.44749 0.283367 -0.731357
-1.4352 0.281526 0.643733
-1.40409 0.283516 2.01689
-1.42021 0.305047 3.10965
-1.43962 0.337984 4.19949
-1.42511 0.885547 -3.14214
-1.44685 0.990093 -2.05311
-1.5164 1.1795 -0.699034
-1.46202 1.26651 0.65311
-1.34212 1.27072 2.00771
-1.39156 1.28765 3.10159
-1.43921 1.31537 4.19582
-1.43857 2.18351 -3.08797
-1.4551 2.30965 -2.00302
-1.48785 2.51508 -0.657774
-1.49144 2.67242 0.681599
-1.46738 2.74063 2.02713
-1.46354 2.7655 3.11267
-1.47725 2.78813 4.20393
-0.697188 -0.253251 -3.21472
-0.687712 -0.167767 -2.12464
-0.700718 -0.185036 -0.743798
-0.710674 -0.215149 0.642719
-0.717881 -0.209393 2.02369
-0.728685 -0.186313 3.1149
-0.73878 -0.15117 4.20213
-0.695214 0.131633 -3.19244
-0.738476 0.296749 3.11302
-0.7472 0.330228 4.20128
-0.700664 0.847528 -3.13877
-0.712867 1.28101 3.10105
-0.752423 1.30952 4.19571
-0.703912 2.15641 -3.08464
-0.712358 2.28369 -1.99935
-0.746095 2.50614 -0.655563
-0.768952 2.67582 0.681334
-0.765693 2.74321 2.02523
-0.766972 2.76549 3.11078
-0.779578 2.78684 4.20256
0.704763 -0.253386 -3.21472
0.697441 -0.167863 -2.12464
0.71669 -0.185598 -0.743799
0.738701 -0.218179 0.642719
0.738575 -0.21056 2.02369
0.694572 -0.187222 3.1149
0.670501 -0.152152 4.20213
0.699303 0.131556 -3.19244
0.665809 0.296145 3.11302
0.649848 0.329363 4.20128
0.712147 0.84747 -3.13877
0.615943 1.28055 3.10105
0.621142 1.30878 4.19571
0.755906 2.15622 -3.08464
0.764373 2.28352 -1.99935
0.7495 2.50589 -0.655563
0.695892 2.67541 0.681334
0.641995 2.74265 2.02523
0.623382 2.76483 3.11078
0.614974 2.78609 4.20256
1.41855 -0.256294 -3.21296
1.4157 -0.175211 -2.12208
1.44159 -0.17305 -0.744142
1.45853 -0.201896 0.639276
1.44484 -0.20111 2.01767
1.40815 -0.178773 3.11082
1.38242 -0.144832 4.19977
1.41389 0.138397 -3.1919
1.41164 0.247128 -2.104
1.44811 0.282625 -0.731357
1.45284 0.277115 0.643733
1.41936 0.281006 2.01689
1.37955 0.303245 3.10965
1.36011 0.336103 4.19949
1.43292 0.885358 -3.14214
1.44513 0.990014 -2.05311
1.51472 1.17929 -0.699034
1.46646 1.26495 0.65311
1.34044 1.26909 2.0077
1.32289 1.28623 3.10159
1.32543 1.31373 4.19582
1.48264 2.18308 -3.08797
1.49433 2.30922 -2.00302
1.48709 2.51448 -0.657775
1.43062 2.67146 0.681599
1.36153 2.73938 2.02713
1.33266 2.76409 3.11267
1.32163 2.78659 4.20393
-0.70973 0.580256 -2.10058
0 0.251478 -2.11022
-0.689124 0.254947 -1.41808
-0.769575 0.76805 2.11236
0 0.310274 1.98973
-0.731241 0.26911 1.33638
0 0.99017 -2.12966
-0.794969 1.07975 -1.37
0 1.31826 2.06216
-0.71568 1.29752 1.33
0.709729 0.580256 -2.10058
0.689127 0.254943 -1.41808
0.769478 0.76805 2.11227
0.732448 0.267903 1.33638
0.794969 1.07975 -1.37
0.715683 1.29752 1.33
-0.716114 0.256096 -0.0408499
-0.862248 0.708392 -0.712233
2.5242e-06 0.25403 -0.729467
-0.852145 0.764453 0.651384
0.00224259 0.259314 0.647767
-0.786125 1.21943 -0.02
3.46447e-05 1.40597 -0.695
4.24103e-06 1.5831 0.655
0.716397 0.255814 -0.0408499
0.862756 0.708424 -0.712233
0.853041 0.762214 0.651384
0.786126 1.21943 -0.02
-0.863632 0.644324 -1.39404
-0.860366 0.736422 -0.030425
-0.887822 0.766251 1.33319
1.2621e-06 0.254356 -1.41808
0.00112256 0.255151 -0.0408499
0.00112129 0.272045 1.33638
0 0.580256 -2.35713
0 0.76805 2.35071
1.73224e-05 1.14203 -1.37
1.94429e-05 1.56997 -0.02
2.12051e-06 1.52905 1.33
0.863631 0.64434 -1.39404
0.860026 0.735319 -0.030425
0.887833 0.765132 1.33319
-1.0462 0.251136 -2.10535
-0.681356 0.0436164 -2.11567
-0.685107 0.193317 -2.64957
-1.07176 0.279258 2.02095
-0.728651 0.0328037 2.02435
-0.738949 0.285875 2.56901
-1.07093 0.947803 -2.04905
-0.697832 0.876521 -2.59188
-0.703679 1.5946 -2.02217
-0.973559 1.26591 2.00635
-0.658934 1.27105 2.55302
-0.685346 2.00216 2.01512
0.686221 0.0435685 -2.11567
0.687152 0.193278 -2.64957
1.04332 0.251064 -2.10535
0.738998 0.0322198 2.02435
0.702615 0.285572 2.56901
1.07939 0.278003 2.02095
0.703574 0.876491 -2.59189
0.729687 1.59452 -2.02217
1.07007 0.947763 -2.04905
0.610471 1.27083 2.55302
0.623498 2.00188 2.01512
0.97272 1.2651 2.00635
-1.07519 0.269309 -0.730412
-0.701804 0.0351076 -0.736633
-1.08062 0.270888 0.64575
-0.718353 0.0225501 0.645243
-1.15944 1.17052 -0.697017
-0.774293 1.83384 -0.675282
-1.11155 1.26758 0.654055
-0.765019 1.97224 0.668167
0.709792 0.0348244 -0.736633
1.0755 0.268936 -0.730412
0.734609 0.0187924 0.645243
1.09168 0.266439 0.64575
0.77603 1.83375 -0.675282
1.15864 1.17045 -0.697017
0.728493 1.97204 0.668167
1.11378 1.26681 0.654055
-1.41224 -0.215395 -2.66752
-1.41304 -0.0586474 -3.20243
-1.05498 -0.254591 -3.21384
-1.42023 -0.1733 -1.43311
-1.41455 0.0362067 -2.11304
-1.04971 -0.171313 -2.12336
-1.42853 -0.184696 -0.0524331
-1.43811 0.0558126 -0.737749
-1.06473 -0.178389 -0.74397
-1.42371 -0.197914 1.32848
-1.43176 0.0419374 0.641505
-1.0695 -0.2064 0.640998
-1.42237 -0.187394 2.56425
-1.4116 0.042669 2.01728
-1.06849 -0.203785 2.02068
-1.43169 -0.159688 3.65529
-1.42292 0.0642189 3.11023
-1.07716 -0.181461 3.11286
-1.43869 0.0976092 4.19963
-1.08827 -0.146968 4.20095
-1.41535 0.192955 -2.64795
-1.41921 0.512092 -3.16702
-1.05426 0.135135 -3.19217
-1.43244 0.26532 -1.41768
-1.43212 0.618683 -2.07855
-1.44134 0.282446 -0.0438118
-1.48194 0.731434 -0.715195
-1.41965 0.282521 1.33031
-1.44861 0.774018 0.648422
-1.41215 0.294281 2.56327
-1.37311 0.777115 2.0123
-1.42991 0.321516 3.65457
-1.40588 0.796351 3.10562
-1.07934 0.300898 3.11133
-1.43942 0.826675 4.19766
-1.09341 0.334106 4.20038
-1.43598 0.93782 -2.59762
-1.43184 1.53453 -3.11505
-1.06289 0.866538 -3.14045
-1.48162 1.0848 -1.37607
-1.45098 1.64987 -2.02806
-1.48921 1.22301 -0.0229619
-1.50212 1.84729 -0.678404
-1.40207 1.26861 1.33041
-1.47673 1.96947 0.667355
-1.36684 1.27918 2.55465
-1.40475 2.00567 2.01742
-1.41538 1.30151 3.6487
-1.42755 2.02657 3.10713
-1.05221 1.28433 3.10132
-1.45823 2.05175 4.19988
-1.09582 1.31244 4.19576
-1.44683 2.24658 -2.54549
-1.07124 2.16996 -3.08631
-1.47147 2.41237 -1.3304
-1.08373 2.29667 -2.00118
-1.48964 2.59375 0.0119125
-1.11697 2.51061 -0.656669
-1.47941 2.70653 1.35436
-1.13019 2.67412 0.681467
-1.46546 2.75306 2.5699
-1.11654 2.74192 2.02618
-1.47039 2.77681 3.6583
-1.11526 2.76549 3.11173
-1.12841 2.78748 4.20325
-0.69245 -0.210509 -2.66968
-0.696201 -0.0608089 -3.20358
0.00378737 -0.253318 -3.21472
-0.694215 -0.176402 -1.43422
0.00486451 -0.167815 -2.12464
-0.705696 -0.200092 -0.0505398
0.00798596 -0.185317 -0.743798
-0.714278 -0.212271 1.33321
0.0140133 -0.216664 0.642719
-0.723283 -0.197853 2.5693
0.0103472 -0.209977 2.02369
-0.733733 -0.168742 3.65852
-0.733581 0.0552179 3.11396
-0.0170569 -0.186768 3.1149
-0.74299 0.0895288 4.2017
-0.0341395 -0.151661 4.20213
-0.697939 0.489581 -3.16561
0.00204474 0.131595 -3.19244
-0.742838 0.313488 3.65715
-0.725672 0.788878 3.10703
-0.0363337 0.296447 3.11302
-0.749811 0.819873 4.19849
-0.048676 0.329795 4.20128
-0.702288 1.50197 -3.1117
0.00574195 0.847499 -3.13877
-0.732645 1.29526 3.64838
-0.73992 2.02325 3.10591
-0.0484624 1.28078 3.10105
-0.766 2.04818 4.19913
-0.0656403 1.30915 4.19571
-0.708135 2.22005 -2.54199
0.0259972 2.15631 -3.08464
-0.729226 2.39492 -1.32746
0.0260079 2.28361 -1.99935
-0.757523 2.59098 0.0128855
0.0017024 2.50601 -0.655563
-0.767322 2.70951 1.35328
-0.0365298 2.67561 0.681334
-0.766332 2.75435 2.56801
-0.0618488 2.74293 2.02523
-0.773275 2.77616 3.65667
-0.0717948 2.76516 3.11078
-0.0823019 2.78646 4.20256
0.701102 -0.210624 -2.66968
0.702033 -0.060915 -3.20358
1.06166 -0.25484 -3.21384
0.707066 -0.17673 -1.43422
1.05657 -0.171537 -2.12336
0.727695 -0.201888 -0.0505398
1.07914 -0.179324 -0.74397
0.738638 -0.21437 1.33321
1.09862 -0.210038 0.640997
0.716574 -0.198891 2.5693
1.09171 -0.205835 2.02068
0.682536 -0.169687 3.65852
0.68019 0.0544613 3.11396
1.05136 -0.182998 3.11286
0.660174 0.0886055 4.20171
1.02646 -0.148492 4.20095
0.705725 0.489513 -3.16561
1.05659 0.134977 -3.19217
0.657828 0.312754 3.65715
0.640876 0.788348 3.10703
1.02268 0.299695 3.11133
0.635495 0.81907 4.19849
1.00498 0.332733 4.20038
0.734027 1.50185 -3.11171
1.07253 0.866414 -3.14045
0.618542 1.29466 3.64838
0.619662 2.02269 3.10591
0.969417 1.28339 3.10132
0.618058 2.04743 4.19913
0.973284 1.31125 4.19576
0.76014 2.21987 -2.54199
1.11928 2.16965 -3.0863
0.756937 2.3947 -1.32746
1.12935 2.29637 -2.00118
0.722696 2.59065 0.0128854
1.11829 2.51019 -0.656669
0.668944 2.70903 1.35328
1.06326 2.67344 0.681467
0.632689 2.75374 2.56801
1.00176 2.74102 2.02618
0.619178 2.77546 3.65667
0.978019 2.76446 3.11173
0.968302 2.78634 4.20325
1.41712 -0.215752 -2.66752
1.41622 -0.0589483 -3.20243
1.42864 -0.17413 -1.43311
1.41367 0.0359585 -2.11304
1.45006 -0.187473 -0.0524331
1.44485 0.054788 -0.73775
1.45169 -0.201503 1.32848
1.45569 0.0376094 0.641505
1.4265 -0.189941 2.56425
1.4321 0.039948 2.01728
1.39529 -0.161803 3.65529
1.39385 0.0622358 3.11023
1.37127 0.0956354 4.19963
1.41276 0.192763 -2.64795
1.4234 0.511878 -3.16702
1.42987 0.264877 -1.41768
1.42838 0.618571 -2.07855
1.45048 0.27987 -0.0438119
1.48142 0.730958 -0.715195
1.4361 0.27906 1.33031
1.45965 0.771034 0.648422
1.39945 0.292125 2.56327
1.3799 0.775048 2.0123
1.36983 0.319674 3.65457
1.35122 0.794737 3.10562
1.34277 0.824917 4.19766
1.43902 0.937686 -2.59762
1.45778 1.53422 -3.11505
1.47993 1.08465 -1.37607
1.46973 1.64962 -2.02806
1.49059 1.22212 -0.0229619
1.50091 1.84689 -0.678404
1.40345 1.26702 1.33041
1.44854 1.96821 0.667355
[...]
POINT_DATA 29498
VECTORS point_vectors float
-1.36822 -3.85364 7.52178
0.0807616 0.216311 0.944849
-1.17788 0.9746 2.47147
-0.0260094 -0.0492545 0.0449126
1.36331 -3.84879 7.51758
-0.103573 0.187433 0.889329
1.17391 0.972896 2.46414
0.0309653 -0.0385856 0.020738
-0.00035534 2.0091e-06 0.012075
0 0 0
-0.000286111 0.00074953 0.0425236
0 0 0
0.000325251 -3.45621e-06 0.0121258
-0.0002079 0.00015116 0.0122266
0.00031092 0.000769174 0.0442168
0 0 0
-0.624408 -0.42989 19.8816
-1.20192 -1.00745 20.6685
-0.393524 -0.539906 21.569
0.0696952 -0.145811 21.702
0.571286 0.24725 21.7056
0.895736 0.406013 21.3376
0.893885 0.357974 20.717
-0.822464 -0.369186 19.6946
-2.06954 -1.01696 20.5734
-0.678614 -0.706396 21.7289
0.0185071 -0.330388 21.8485
0.894403 0.0498784 21.814
1.32291 0.176343 21.393
1.14381 0.251074 21.191
-0.997867 0.0842285 19.5411
-2.381 0.327857 20.3928
-1.40115 -0.230434 21.6225
-0.342279 -0.373319 21.9583
0.52692 -0.713185 21.8003
0.895882 -0.848298 21.5187
0.983526 -0.696274 20.6344
-0.496672 0.395033 19.9845
-0.755983 0.613928 20.4427
-0.707039 0.46689 21.2171
-0.329878 0.0673705 21.5146
-0.0531306 -0.186996 21.3981
0.0817539 -0.322813 21.265
0.16028 -0.278854 20.9748
-0.56523 -0.899259 19.428
-1.15888 -2.86352 21.0779
-0.0839716 -0.482027 21.9125
0.0923431 0.035372 21.7852
0.392641 0.840957 21.7906
0.724583 1.28821 21.2058
0.483503 1.1247 21.2253
-0.814984 -0.848061 18.8963
1.4889 1.67297 12.192
1.86568 1.44482 14.6689
-1.13526 0.301221 18.2712
0.306479 -1.21313 8.40584
1.43586 -1.70783 15.4038
-0.396346 0.717671 19.7151
-0.692397 1.27178 20.2607
-0.687342 1.08505 21.2557
-0.30744 0.248258 21.7063
-0.0594372 -0.183504 21.5737
0.0300108 -0.391057 21.3992
0.12234 -0.401713 20.9608
0.555896 -0.89453 19.4313
1.166 -2.83197 21.0585
0.070235 -0.489354 21.8973
-0.13236 0.0171144 21.7926
-0.466181 0.780124 21.7694
-0.714678 1.23225 21.1725
-0.439551 1.22293 21.1227
0.815191 -0.84139 18.8906
-1.45922 1.32376 10.5947
-1.87433 1.65752 13.1422
1.13913 0.29684 18.2954
0.698339 0.204987 2.32231
-1.29793 -1.50626 9.78834
0.411542 0.691789 19.7359
0.721082 1.22436 20.2735
0.676419 1.0851 21.2477
0.252675 0.299115 21.7413
0.0245412 -0.138678 21.4964
-0.0726538 -0.333213 21.2819
-0.084522 -0.388693 20.8796
0.614592 -0.4287 19.8797
1.19854 -0.999715 20.6686
0.391661 -0.537082 21.5584
-0.0793823 -0.151483 21.6723
-0.567021 0.182855 21.6692
-0.892182 0.370141 21.3585
-0.894851 0.378215 20.8274
0.823777 -0.36697 19.6928
2.08168 -1.03137 20.5748
0.675668 -0.708563 21.7202
-0.016362 -0.341259 21.8119
-0.833606 -0.0277716 21.7773
-1.32348 0.147668 21.4194
-1.12729 0.297405 21.4408
0.988607 0.0793023 19.5509
2.38159 0.328466 20.3928
1.40114 -0.230668 21.6115
0.343435 -0.366742 21.9194
-0.406549 -0.680459 21.713
-0.764493 -0.910506 21.5578
-1.37616 -0.963337 20.0048
0.496646 0.37412 19.9986
0.745315 0.583058 20.4447
0.697138 0.468954 21.2068
0.333508 0.0841206 21.507
0.0598486 -0.18775 21.434
-0.10307 -0.271891 21.3788
-0.152469 -0.260006 20.9593
-0.493774 -0.0458986 0.688514
-5.77266e-06 -0.00760441 0.057935
-0.0165747 0.00264829 0.209152
0.00359553 -0.0261586 0.0193467
0 0 0
0.00799728 -0.00218764 0.332961
-0.000191754 0.341939 0.752927
-0.286595 -0.0719838 0.811443
-0.00411391 0.00301609 -0.00475168
0.000364617 0.000323519 0.00303037
0.490266 -0.0458862 0.683189
0.0162588 0.00261822 0.208996
-0.0033262 -0.0402461 0.0200953
-0.0267014 -0.00738115 0.603911
0.287202 -0.0713104 0.815032
-0.000627113 0.000599201 0.00488109
-0.00011444 1.47983e-05 0.00307806
0 0 0
-6.3789e-05 -0.000137007 0.0280513
0 0 0
-6.997e-06 8.48263e-06 0.00153848
0.00172415 0.00495147 0.0209274
0.000477845 0.0483911 0.108869
0 0 0
0 0 0
0 0 0
0 0 0
-0.00174265 0.00498207 0.0209156
0 0 0
0 0 0
0 0 0
2.22124e-09 -4.5998e-08 -1.03779e-05
0 0 0
-1.08616e-06 1.00283e-06 0.000131724
0 0 0
-0.00176321 -0.0169958 0.00334551
-1.44416e-05 0.00458073 0.0357303
1.82568e-07 -8.46386e-06 -8.84956e-05
-7.79097e-06 -1.51651e-05 0.000149235
0 0 0
-4.11652e-20 -6.83851e-18 -5.27781e-17
0 0 0
-3.68121 -2.62296 20.4814
-1.7239 -4.5562 21.576
-2.38173 -2.46239 17.8413
1.23338 0.762996 18.2059
0.416362 1.13569 18.3487
0.797191 1.10317 8.75608
-4.49837 1.15599 20.0968
-3.48206 1.5036 16.4632
-1.78771 2.53678 19.9184
0.8529 -0.399416 15.6578
-0.910927 -1.3208 3.84871
-0.239445 -0.503024 21.7052
1.74093 -4.55098 21.5563
2.3815 -2.45706 17.8393
3.69679 -2.65208 20.4735
-0.508459 1.06212 18.3096
-0.836525 0.703936 7.65902
-1.21818 0.590682 18.2269
3.46682 1.47439 16.5144
1.81741 2.47757 19.9347
4.50476 1.16673 20.086
1.41012 -1.07623 0.0749722
0.201033 -0.341117 21.6501
-0.678985 -0.336736 15.2012
-0.377742 -0.792775 19.5941
0.0169494 -0.232971 19.0242
0.138733 0.0752977 17.6688
0.0301019 0.155513 17.8453
-2.27244 -0.708272 21.9716
-2.15593 2.1022 21.4217
-0.370423 -0.540086 20.2556
-0.697892 0.281695 22.3076
-0.0337024 -0.2467 19.0703
0.372797 -0.806253 19.5951
-0.0744595 0.135208 18.0524
-0.152149 -0.000544023 18.0275
2.14919 2.11339 21.4206
2.27108 -0.705732 21.9557
0.66928 0.338223 22.3183
0.373865 -0.532345 20.2633
-0.968884 -0.733771 20.0886
-0.733594 -0.416475 19.7948
-0.651713 -0.665909 19.6618
-0.811435 -0.83512 21.3664
-1.62042 -1.08113 20.6227
-1.41822 -1.83374 20.7509
-0.128075 -0.308612 21.6393
-0.533561 -0.640945 21.6328
-0.227452 -0.640799 21.733
0.287966 0.0352151 21.7751
0.052905 -0.240514 21.7626
0.130562 -0.0950786 21.8222
0.776115 0.372442 21.5561
0.734003 0.199791 21.7997
0.629224 0.537777 21.8753
0.866474 0.439521 21.2306
1.13577 0.380529 21.4292
1.00232 0.913275 21.3132
1.07689 0.251137 20.8099
0.811206 0.718996 21.3465
-1.48372 -0.679258 19.821
-0.965526 -0.180737 19.5557
-0.898705 -0.604792 19.3443
-1.36409 -0.919581 21.5527
-2.54083 -0.367806 20.4593
-0.271707 -0.50556 21.793
-1.07968 -0.586173 21.7691
0.312193 -0.187358 21.8877
-0.13865 -0.371889 21.9444
1.18075 0.135493 21.5906
0.92634 -0.369959 21.6988
1.48849 0.0942851 21.2046
1.38287 -0.422034 21.4501
1.88422 0.748566 19.2392
1.2608 -0.405592 20.7939
1.5766 0.492643 19.8145
-1.76424 0.218898 19.6585
-0.762832 0.39711 19.738
-1.15923 0.179061 19.0199
-1.92401 0.0488521 21.2547
-1.39579 0.766002 20.3783
-0.856922 -0.368818 21.8916
-1.22894 0.405544 21.3716
0.0991986 -0.457065 21.9653
-0.453188 -0.0571147 21.7551
0.692818 -0.803329 21.6162
0.0692367 -0.436484 21.611
1.04981 -0.719311 21.6679
0.350069 -0.616234 21.487
1.17892 -1.02339 19.7533
0.415863 -0.796116 20.8175
1.47801 -1.20569 20.0522
-0.65285 0.532411 20.1807
-0.485767 0.552028 19.8484
-0.762114 0.574238 20.8646
-0.789564 0.937144 20.3683
-0.538613 0.283521 21.4027
-0.727035 0.73773 21.2376
-0.173475 -0.112506 21.5466
-0.334401 0.147904 21.6427
0.0247017 -0.235118 21.3972
-0.0725784 -0.226839 21.538
0.140606 -0.25035 21.1728
0.0451967 -0.361585 21.642
0.212865 -0.446459 20.787
-1.0818 -1.90423 19.4988
-0.706353 -0.89265 19.1159
0.00730183 -1.17155 19.1723
-0.36453 -1.17487 22.0188
0.00241822 -3.49331 21.6447
0.0122715 -0.186894 21.8145
-0.00669329 -0.475689 21.9097
0.210506 0.305636 21.814
-0.0152353 -0.0170588 21.5328
0.569437 1.15749 21.5114
-0.0430293 0.811645 21.413
0.879315 1.5599 20.7965
0.987911 1.76539 19.2177
-0.0347556 1.57035 20.7726
0.941257 1.37486 19.1288
-0.0609316 2.15587 20.0221
-1.11803 -0.393383 18.3126
-0.000105055 -1.1453 18.2704
1.85956 1.47393 13.2941
1.28864 -0.789407 6.16097
-0.130888 0.946643 7.47991
2.58562 -0.0657226 13.0858
0.186527 2.29977 11.7243
-0.711484 0.845099 19.0883
0.00882614 0.42816 17.315
1.2756 -1.45392 11.5546
-0.0405321 -0.841033 21.6825
0.248885 2.00409 -5.76004
-0.0320386 -0.697738 21.659
0.43951 1.76019 -1.33335
-0.564252 1.06754 19.907
0.00971938 0.869938 19.5634
-0.751913 1.25624 20.7453
0.0257477 1.66364 20.1513
-0.524473 0.68553 21.6614
-0.00510617 1.5152 21.2832
-0.167039 -0.0664577 21.7089
-0.0356842 0.392564 21.8473
-0.0489424 -0.260756 21.5367
-0.0472546 -0.155252 21.6653
-0.0507421 -0.309388 21.7797
-0.0404808 -0.305404 21.5273
-0.0392838 -0.467654 20.7739
1.07057 -1.88388 19.5052
0.701496 -0.884642 19.1114
0.63714 -0.659475 19.6768
0.362939 -1.17546 21.9997
1.41294 -1.81478 20.7447
-0.0367179 -0.200787 21.8068
0.229262 -0.650188 21.7085
-0.257623 0.278273 21.8119
-0.14788 -0.124755 21.7952
-0.617084 1.07757 21.5191
-0.641005 0.45275 21.8449
-0.875151 1.64605 20.602
-0.968019 1.64681 19.034
-1.02466 0.879121 21.3344
-0.86114 1.51842 18.8755
-0.810736 0.663287 21.3899
1.12533 -0.389675 18.3263
0.901036 -0.604847 19.3412
-1.78663 1.53852 12.1234
-0.507768 -0.650001 3.75095
-1.86927 0.763478 18.3823
-2.36816 0.0828394 8.59918
-1.70385 0.594839 18.7063
0.726061 0.819794 19.1144
1.15697 0.177151 19.0287
-0.65678 -1.04651 6.60406
0.0437272 -0.531784 21.9763
-0.810221 -1.07318 17.1883
0.0493609 -0.652794 22.0683
-1.33434 -1.42116 18.5211
0.589276 1.01738 19.9265
0.487313 0.539066 19.8538
0.752252 1.24131 20.7449
0.783508 0.896106 20.375
0.487179 0.717659 21.6545
0.717805 0.739019 21.2293
0.113537 -0.0174444 21.7283
0.305116 0.179208 21.6449
-0.00443383 -0.190625 21.4139
0.0417249 -0.171636 21.569
-0.0102297 -0.254609 21.8533
-0.0808558 -0.366887 21.6042
-0.213195 -0.397359 20.8868
0.960329 -0.725995 20.092
0.729295 -0.41371 19.801
0.799478 -0.826552 21.357
1.61889 -1.08304 20.6301
0.124924 -0.309142 21.6215
0.533708 -0.644374 21.6212
-0.287646 0.00398082 21.7414
-0.0474285 -0.254735 21.7171
-0.772713 0.30723 21.543
-0.697857 0.124905 21.7616
-0.876832 0.435762 21.2232
-1.13813 0.350898 21.4089
-1.08501 0.290495 20.9877
1.49026 -0.684642 19.8119
0.959032 -0.181063 19.5605
1.35973 -0.926131 21.5523
2.54949 -0.371633 20.4539
0.272662 -0.508211 21.7714
1.07828 -0.583982 21.7542
-0.296378 -0.217759 21.8587
0.145515 -0.372191 21.9053
-1.12906 0.057593 21.5705
-0.815124 -0.413069 21.6317
-1.58352 0.0981609 21.1782
-1.35048 -0.496099 21.4216
-1.54879 -0.644852 20.2562
1.75183 0.214036 19.6639
0.751188 0.389744 19.752
1.92138 0.0516129 21.2539
1.37962 0.74099 20.3821
0.852217 -0.365848 21.8692
1.22369 0.41241 21.3603
-0.068004 -0.440444 21.8978
0.464586 -0.0375327 21.7559
-0.521214 -0.805659 21.5555
-0.0214513 -0.384588 21.5846
-0.966878 -0.765923 21.873
-0.272019 -0.549114 21.4172
-0.224524 -0.685103 21.6097
0.647627 0.505135 20.1839
0.749907 0.557942 20.8607
0.525657 0.294117 21.4085
0.170455 -0.0946607 21.5472
-0.0375246 -0.227128 21.382
-0.130952 -0.291754 21.316
-1.20994 -0.736839 19.9548
-1.61234 -2.31184 18.8464
-1.1463 -1.27041 19.8375
-2.08491 -1.345 19.124
-0.817526 -0.673646 19.4996
-2.21641 -2.3394 20.7204
-1.06811 -0.919495 21.4662
-0.120031 -0.94007 21.3437
-0.666198 -1.17457 21.6919
-1.30747 -1.81302 21.9538
-0.231997 -0.847815 21.8425
-0.189929 -0.416361 21.7038
-0.02787 -0.00157676 17.9884
-0.0222499 -0.321051 21.7601
-0.0329588 -0.231547 18.2962
0.19607 -0.116849 21.2393
0.318673 -0.0693566 21.8506
0.173097 0.361643 17.6294
0.32687 0.135846 21.9183
0.283838 0.122015 17.6851
0.910052 0.693312 21.2175
0.995691 0.3184 21.5755
0.635813 1.44824 18.4011
0.831724 0.767145 21.6065
1.55356 0.779519 18.9557
1.31503 0.850834 21.5942
1.22887 0.367239 21.1877
1.27209 1.6866 18.5937
1.11119 1.01704 21.1969
2.03796 0.71282 19.3563
1.03518 0.670792 21.3073
-1.80786 -0.280437 19.6313
-3.65737 -0.940339 16.0886
-2.66203 0.610152 18.6749
-1.18405 -0.294275 19.011
-5.45515 -0.735979 20.0983
-1.84636 -0.547265 21.5492
-2.95221 -0.0107618 21.7375
-0.999815 -0.97315 19.9381
-0.546733 -0.491156 21.885
-1.24504 -0.863388 21.3585
0.101856 -0.0461784 17.1988
0.230574 -0.290846 21.8767
0.391626 -0.168874 18.2948
1.25724 -0.0362653 14.3861
1.19993 -0.41151 21.4933
0.0488569 -1.6 2.61008
0.78543 -0.84806 18.1156
1.74001 -0.180223 17.8911
1.45009 -0.370858 21.3302
2.4175 0.225585 8.86521
1.41828 -1.26198 19.9596
2.2979 -0.690233 18.8236
-1.12944 0.632125 19.9331
-1.32279 1.82557 19.0555
-0.667482 0.795178 20.0364
-0.8349 0.625198 19.4337
-1.79475 1.47638 20.1693
-1.41958 0.628783 20.9274
-1.87862 2.12995 20.6206
-0.814448 0.910994 20.7974
-1.71906 0.912761 21.4647
-0.863668 0.161519 21.688
-1.5061 1.1506 22.338
-0.521072 0.466962 21.535
-0.582039 0.0494376 21.9991
-0.146802 -0.261562 21.7552
-0.321437 -0.248591 22.0638
-0.194813 -0.0954786 21.6544
-0.0304913 -0.519969 21.6839
0.190155 -0.561909 21.4633
-0.204116 -0.610874 21.6372
-0.0124895 -0.30226 21.407
0.208944 -0.671959 21.1978
0.332506 -0.49059 21.447
0.139449 -0.960451 21.7745
0.105704 -0.396611 21.23
0.0781267 -0.492805 22.4912
1.60838 -2.29862 18.8527
0.00869664 -2.76804 19.1989
0.00103686 -4.64766 15.8066
-0.000770889 -1.20382 18.7299
-0.00319682 -4.69057 23.2488
0.11229 -0.955393 21.3528
-0.00368844 -1.21627 22.3471
-0.00869425 -0.151961 15.9177
-0.00397769 -0.0212046 18.0934
-0.0120101 -0.233062 21.6308
-0.0234632 0.0598116 15.2161
-0.239292 0.333178 17.7563
-0.0227016 0.271547 21.4671
-0.0662583 0.881094 15.4192
-0.675145 1.30369 18.1204
-0.0431636 1.17108 21.0105
-0.140983 0.473872 4.44761
-0.0681818 1.67314 17.4559
-1.31342 1.73166 18.2489
-0.00328225 1.72881 20.4
0.100148 1.7269 8.80145
0.139974 2.51583 17.954
3.65146 -0.936398 16.1176
0.0143829 3.52241 13.1465
0.00735651 -0.545532 17.3598
0.224416 -2.03258 1.75134
-0.169613 0.354594 -4.02297
0.66311 0.0390826 -2.01653
-1.70481 0.492619 5.07414
0.0326699 0.684129 -2.36361
0.797747 3.07677 -0.589212
1.34886 1.76804 19.0873
0.0186668 1.35661 19.7345
0.0173308 1.16316 18.699
0.0337133 3.69818 19.6663
1.87901 2.0903 20.6277
0.0142812 1.67603 20.6772
-0.00504703 3.8062 21.2058
1.48849 1.22068 22.3506
-0.022498 1.00738 21.7423
-0.0439779 0.814628 22.5277
0.288591 -0.189283 22.0451
-0.0466631 -0.0166687 21.8008
-0.121322 -0.0867998 21.4369
0.192589 -0.339405 21.642
-0.0649025 -0.237161 21.7146
-0.186386 -0.414802 21.7157
-0.208381 -0.815633 21.7321
-0.0867926 -0.45875 21.3555
-0.199491 -0.867921 21.2894
1.201 -0.736128 19.9699
1.14187 -1.25047 19.8513
2.08503 -1.3448 19.1171
0.817859 -0.672957 19.5006
2.21321 -2.33338 20.7095
1.0604 -0.917817 21.4607
0.670133 -1.17087 21.6709
1.29942 -1.82251 21.9409
0.233026 -0.851256 21.8223
0.195426 -0.424631 21.685
0.0193863 -0.336102 21.736
0.0359553 -0.272738 18.4785
-0.207417 -0.160679 21.3152
-0.302116 -0.10759 21.8136
-0.34014 0.0907793 21.872
-0.290311 0.0361457 17.9118
-0.916921 0.571536 21.2127
-0.958746 0.248882 21.5767
-0.841911 0.688815 21.5872
-1.50882 0.66698 18.3818
-1.31494 0.888857 21.0837
-1.2853 0.406459 21.1921
-1.13323 1.03902 21.1828
-1.94332 0.696744 18.8227
-1.14515 0.725537 20.5072
1.805 -0.282928 19.6322
2.64631 0.603537 18.6886
1.17367 -0.292154 19.0276
5.48693 -0.736347 20.0983
1.84417 -0.550999 21.5451
2.94973 -0.00904239 21.7287
0.997068 -0.973527 19.9231
0.545538 -0.49248 21.8618
1.23946 -0.855161 21.3424
-0.0880812 -0.0919268 17.4529
-0.196357 -0.307753 21.8297
-0.364681 -0.155283 18.2498
-1.11068 -0.194228 14.2022
-1.07719 -0.490675 21.4201
-0.341643 -0.717395 15.7479
-1.68858 -0.510269 15.6284
-1.44657 -0.307308 21.4378
-1.29159 -1.357 17.2636
-2.30905 -0.632906 17.5069
1.10808 0.609074 19.9528
0.666827 0.765634 20.0566
0.824996 0.602081 19.4574
1.77111 1.42632 20.1762
1.40284 0.619694 20.9236
0.805984 0.884061 20.7923
1.70898 0.915412 21.4543
0.869586 0.17807 21.6825
0.509714 0.500517 21.5235
0.580937 0.0816423 21.9968
0.147307 -0.232952 21.7147
0.145752 -0.0621118 21.6449
0.0735926 -0.426839 21.647
-0.114432 -0.474571 21.479
0.0104782 -0.257113 21.4777
-0.171243 -0.610653 21.1765
-0.27736 -0.559594 21.6923
-0.0763466 -0.365324 21.3055
-0.083692 -0.580213 22.4992
-1.55944 -1.4054 19.5687
-0.870079 -1.48263 21.971
0.0277516 -0.405613 21.4813
0.414003 0.118441 21.178
1.20382 0.846882 21.3124
1.55837 1.06947 20.977
-2.77529 -0.584833 18.6053
-2.51998 -1.00653 22.0267
-0.283105 -0.577077 18.4417
0.235105 0.403871 16.1564
1.5006 -0.312458 16.1031
2.10047 -0.343107 18.7348
-1.38407 1.13427 19.5348
-1.79803 1.20584 20.8591
-1.19435 0.471417 21.962
-0.199894 -0.27571 21.8877
0.0606195 -0.622969 21.5321
0.285487 -0.864068 21.947
0.000188534 -3.72289 18.1588
-0.00301255 -0.671034 18.5018
-0.0159998 -0.053982 15.2358
-0.0361055 0.24508 15.0248
-0.0838295 1.20832 16.1085
0.0469818 2.02901 17.1377
0.016167 -1.38811 11.8686
0.0272653 -0.631496 0.0242324
0.839697 2.27725 -1.38692
0.0226131 2.68101 18.5283
0.0188337 3.32466 20.2093
-0.0368682 2.32503 22.6702
-0.0611728 0.0829182 22.1521
-0.170478 -0.0934517 21.4912
-0.164473 -0.701409 20.5502
1.55875 -1.40588 19.5672
0.875789 -1.47966 21.9456
-0.0271725 -0.431766 21.5019
-0.429174 0.0496329 21.2154
-1.18114 0.75835 21.178
-1.53848 1.04926 20.7394
2.76376 -0.5836 18.617
2.51066 -1.00893 21.9945
0.290433 -0.583463 18.5129
-0.210778 0.338979 16.2278
-1.22149 -0.521059 14.6166
-2.19079 -0.249082 16.488
1.36363 1.09255 19.5622
1.77963 1.18648 20.8555
1.19973 0.496978 21.962
0.203318 -0.244061 21.8601
0.0235019 -0.492032 21.5144
-0.226389 -0.83789 22.0509
-0.279054 -0.119014 0.361228
0.000815917 -0.0193746 0.0942374
-0.0308521 0.00105963 0.25167
0.0654101 -0.0421032 0.13817
0 0 0
-0.00142913 0.00216833 0.379879
-1.17818 0.166871 1.44202
-0.0360554 0.291006 0.458491
-0.26642 0.084571 0.906205
-0.0141053 -0.0686925 0.016196
-0.00598961 -6.25637e-05 -0.000759047
0.0147342 -0.00536767 0.144358
-0.000777964 -0.0192873 0.0940742
0.295191 -0.126161 0.382254
0.0307194 0.00103723 0.251418
0 0 0
-0.063739 -0.0606715 0.128432
-0.00207149 0.00202611 0.348135
0.0343307 0.291602 0.459491
1.18875 0.168662 1.45347
0.272489 0.087112 0.928961
0.00224339 0.00208568 -0.00372202
0.0267073 -0.091539 0.0086455
-0.0135402 -0.00318214 0.126839
0.00455674 -0.000513188 0.133204
0 0 0
0 0 0
0 0 0
0.001056 0.0112836 0.218452
-0.000338988 6.89565e-05 0.0162407
0 0 0
2.49703e-05 0.000455248 0.0227624
-0.0829514 -0.0425338 0.153379
0 0 0
0.000614105 0.00203175 0.0114862
-0.0640815 0.105417 0.219044
0 0 0
0.00209954 0.00849236 0.0313153
0.00257947 0.00594523 0.0236571
0.00375294 -0.000971758 0.0342193
-0.00491447 -0.000543387 0.133081
0 0 0
0 0 0
0 0 0
-0.00331937 0.00773936 0.232719
-0.000195851 0.000452083 0.022734
0 0 0
0 0 0
0.0806769 -0.041366 0.149584
0.0640852 0.106068 0.219915
0 0 0
-0.000635386 0.002098 0.0118299
0 0 0
-0.00414848 -0.000931038 0.0332836
-0.00184632 0.00751299 0.0275732
-0.00258149 0.00594722 0.0234543
-0.0151604 -0.0137573 0.120649
1.89505e-16 1.53347e-17 -9.08315e-17
2.27303e-08 2.94853e-07 0.000233119
1.74599e-05 0.000201605 -3.94908e-05
0 0 0
0 0 0
0.00938085 0.00563568 0.0982081
-0.00397957 -0.00906002 0.0010849
-2.19076e-06 2.50717e-06 0.000215868
-0.0119282 -0.100561 0.0159286
0 0 0
0 0 0
0 0 0
0 0 0
-0.00177851 -0.00572828 0.0415855
-0.01355 0.00508151 0.0443563
-0.0143556 -0.0526958 0.0083145
-0.000119776 -4.98083e-05 0.000627125
0 0 0
2.02608e-06 -5.55245e-06 5.46686e-05
0 0 0
0.0149852 -0.0135713 0.118681
0 0 0
0 0 0
0.00291715 -0.0143619 0.00279517
-0.00776549 0.00399518 0.110089
0 0 0
0 0 0
0.0136758 0.00516698 0.0450998
0.00177376 -0.00572351 0.041546
-4.4741e-06 -4.53608e-06 4.481e-05
0 0 0
0 0 0
0 0 0
-4.42368e-19 4.76053e-18 -5.72936e-17
0 0 0
1.42119e-08 8.68197e-08 1.35592e-05
0 0 0
0 0 0
1.6115e-18 -4.17342e-18 -1.58755e-17
0 0 0
0 0 0
0 0 0
-0.000423825 0.000812271 0.00977745
-4.19571e-05 0.000834909 0.00297559
1.14717e-07 -3.15585e-05 -0.000119645
-1.27013e-05 0.00016576 0.0039422
-3.78619e-05 -0.000176871 0.00210913
0 0 0
-4.99431e-19 2.01686e-18 3.12669e-17
0 0 0
0 0 0
0 0 0
0 0 0
0.000394618 0.000833442 0.00999638
-2.65029e-18 3.35155e-17 1.80867e-16
-0.00333265 -0.00452245 0.0441016
-0.263023 -0.103974 0.882244
0 0 0
0 0 0
0 0 0
0 0 0
0 0 0
0.00101882 0.00508509 0.0265087
0 0 0
0.000197245 0.000703542 0.00280812
0.000625055 0.00180968 0.0268326
-3.22031e-18 2.86707e-18 -3.21621e-17
0 0 0
0 0 0
0 0 0
-8.83344e-05 1.28935e-05 0.00268705
0 0 0
0 0 0
0 0 0
0 0 0
0 0 0
-0.000140931 0.000244407 0.00559553
0 0 0
0 0 0
-0.0830531 -0.0951712 0.0265137
0.080721 -0.0939115 0.0259554
-0.157537 0.23192 0.141015
0.157047 0.231693 0.141094
0.0102718 -0.0570881 -0.00223626
-0.0345824 -0.0609483 0.00910792
-0.0231992 -0.0254572 -0.000174414
0.0177247 -0.0411351 0.00428762
-9.90755e-05 0.000191996 0.000989142
9.12179e-05 0.000179252 0.000922511
0 0 0
-1.29208e-17 -1.08913e-18 -5.77143e-18