# vtk DataFile Version 2.0
tet_velo
ASCII
DATASET UNSTRUCTURED_GRID
POINTS 29498 float
-0.835878 0.165 -1.755
-0.641705 0.445 2.015
-0.755 0.665 -1.86031
-0.625 0.925 1.98384
0.835878 0.165 -1.755
0.641703 0.445 2.015
0.755 0.665 -1.86031
0.625 0.925 1.98384
-0.80331 0.226177 -0.498333
-0.806701 0.251395 0.758334
-0.787606 0.827606 -0.578927
-0.702114 0.872114 0.702457
0.803311 0.226175 -0.498333
0.806701 0.251393 0.758334
0.787526 0.827527 -0.578927
0.702728 0.872728 0.702457
-1.62219 -0.198805 -2.73162
-1.61854 -0.121219 -1.71639
-1.58416 -0.067056 -0.460358
-1.54148 -0.0241987 0.790696
-1.44044 0.119797 2.0463
-1.40908 0.220049 3.05948
-1.41487 0.296879 4.07646
-1.62105 0.0758016 -2.77539
-1.61885 0.164689 -1.75745
-1.5803 0.231645 -0.496618
-1.52349 0.259789 0.761994
-1.38638 0.398666 2.02236
-1.3711 0.49702 3.03589
-1.39259 0.573973 4.05206
-1.58695 0.610562 -2.86986
-1.56559 0.699358 -1.85295
-1.55216 0.82353 -0.575266
-1.45337 0.860557 0.704172
-1.35287 0.925152 1.98139
-1.35093 1.02282 2.99389
-1.37764 1.11216 4.00608
-1.55 1.46734 -2.99299
-1.53693 1.55864 -1.97238
-1.52197 1.67043 -0.68668
-1.48289 1.74081 0.604348
-1.43726 1.79927 1.88979
-1.41834 1.86421 2.90986
-1.41501 1.94175 3.92475
-0.831092 -0.198628 -2.73002
-0.827073 -0.119634 -1.71406
-0.802198 -0.0695518 -0.46067
-0.800494 -0.0288519 0.787571
-0.728274 0.145822 2.04084
-0.702589 0.239547 3.05578
-0.706103 0.308238 4.07432
-0.834854 0.0721164 -2.7749
-0.669566 0.516975 3.03283
-0.688685 0.584815 4.05044
-0.806891 0.595852 -2.87292
-0.65624 1.02831 2.99438
-0.677523 1.1172 4.00618
-0.775208 1.46014 -2.99601
-0.764679 1.55328 -1.97571
-0.765365 1.67234 -0.688687
-0.751358 1.74343 0.604589
-0.724364 1.79879 1.89151
-0.709483 1.86327 2.91158
-0.703876 1.94159 3.926
0.78419 -0.198616 -2.73002
0.81148 -0.119627 -1.71406
0.79931 -0.0695353 -0.46067
0.766449 -0.028829 0.787571
0.658656 0.14584 2.04084
0.674492 0.239583 3.05578
0.69447 0.308296 4.07432
0.777824 0.0721231 -2.7749
0.671663 0.517003 3.03283
0.695231 0.584872 4.05044
0.756865 0.595858 -2.87292
0.668259 1.02836 2.99438
0.69715 1.11727 4.00618
0.773978 1.46018 -2.99601
0.777238 1.55332 -1.97571
0.753915 1.67246 -0.688687
0.712448 1.74364 0.604589
0.690555 1.79897 1.89151
0.695727 1.86342 2.91158
0.709197 1.94171 3.926
1.58546 -0.198773 -2.73162
1.61039 -0.121194 -1.71639
1.58719 -0.0669731 -0.460358
1.52937 -0.0240676 0.790695
1.41067 0.119879 2.0463
1.39256 0.220147 3.05948
1.40826 0.297008 4.07646
1.58219 0.0758222 -2.77539
1.61877 0.16469 -1.75745
1.58793 0.231737 -0.496618
1.53293 0.259997 0.761994
1.39585 0.398733 2.02236
1.37988 0.497112 3.03589
1.40269 0.574104 4.05206
1.55564 0.610582 -2.86986
1.56954 0.699351 -1.85295
1.5599 0.823638 -0.575266
1.46406 0.861147 0.704172
1.36836 0.92534 1.98139
1.37051 1.02296 2.99389
1.40054 1.11233 4.00608
1.54917 1.46742 -2.99299
1.54776 1.55874 -1.97238
1.51652 1.67066 -0.68668
1.45783 1.7412 0.604348
1.41638 1.79962 1.88979
1.41259 1.86449 2.90986
1.42465 1.94199 3.92475
-0.816221 0.415 -1.82844
0 0.183766 -1.73623
-0.828473 0.186709 -1.12667
-0.668336 0.685 2.0344
-9.83477e-07 0.411633 2.04837
-0.844142 0.228258 1.38667
0 0.730944 -1.92625
-0.802435 0.777435 -1.21962
0 0.91333 1.97217
-0.663333 0.898333 1.34315
0.816214 0.415 -1.82843
0.828353 0.186829 -1.12667
0.668308 0.685 2.03438
0.844247 0.228152 1.38667
0.80242 0.77742 -1.21962
0.663315 0.898315 1.34315
-0.804587 0.239204 0.13
-0.814384 0.526892 -0.53863
5.2038e-07 0.161342 -0.498333
-0.810494 0.561755 0.730395
4.08557e-07 0.161266 0.758334
-0.749768 0.854768 0.061765
-3.99526e-05 0.970785 -0.578927
0.000306743 1.17165 0.702457
0.804588 0.239202 0.13
0.814381 0.526851 -0.53863
0.810536 0.562061 0.730395
0.749699 0.854699 0.061765
-0.883298 0.470946 -1.17314
-0.807774 0.544323 0.0958825
-0.883464 0.623377 1.36491
2.6019e-07 0.171404 -1.12667
4.64468e-07 0.161281 0.13
-2.8746e-07 0.201104 1.38667
0 0.415 -2.17993
-4.91738e-07 0.685 2.1764
-1.99763e-05 0.857612 -1.21962
0.000133395 1.17026 0.061765
0.000153372 1.05177 1.34315
0.883291 0.470925 -1.17314
0.807788 0.544456 0.0958825
0.883528 0.62353 1.36491
-1.22736 0.164844 -1.75623
-0.831476 0.0226831 -1.73453
-0.835366 0.118558 -2.26495
-1.01404 0.421833 2.01868
-0.68499 0.295411 2.02792
-0.655636 0.480987 2.52392
-1.16029 0.682179 -1.85663
-0.780945 0.630426 -2.36661
-0.759839 1.10914 -1.91801
-0.988937 0.925076 1.98261
-0.64062 0.976656 2.48911
-0.674682 1.36189 1.93767
0.823679 0.0226864 -1.73453
0.806851 0.118562 -2.26495
1.22732 0.164845 -1.75623
0.650179 0.29542 2.02792
0.656683 0.481002 2.52392
1.01878 0.421866 2.01868
0.755932 0.630429 -2.36661
0.766119 1.10916 -1.91801
1.16227 0.682175 -1.85663
0.64663 0.97668 2.48911
0.657778 1.36199 1.93767
0.996679 0.92517 1.98261
-1.1918 0.228911 -0.497476
-0.802754 0.0783126 -0.479502
-1.1651 0.255592 0.760164
-0.803597 0.111272 0.772952
-1.16989 0.825568 -0.577096
-0.776486 1.24998 -0.633807
-1.07774 0.866336 0.703315
-0.726736 1.30777 0.653523
0.80131 0.07832 -0.479502
1.19562 0.228956 -0.497476
0.786575 0.111282 0.772952
1.16981 0.255695 0.760164
0.770721 1.24999 -0.633807
1.17371 0.825582 -0.577096
0.707588 1.30819 0.653523
1.08339 0.866937 0.703314
-1.62036 -0.160012 -2.224
-1.62162 -0.0615015 -2.7535
-1.22664 -0.198716 -2.73082
-1.60135 -0.0941374 -1.08837
-1.61869 0.021735 -1.73692
-1.2228 -0.120426 -1.71522
-1.56282 -0.0456273 0.165169
-1.58223 0.0822947 -0.478488
-1.19318 -0.0683039 -0.460514
-1.49096 0.0477992 1.4185
-1.53249 0.117795 0.776345
-1.17099 -0.0265253 0.789133
-1.42476 0.169923 2.55289
-1.41341 0.259232 2.03433
-1.08436 0.132809 2.04357
-1.41198 0.258464 3.56797
-1.39009 0.358534 3.04769
-1.05584 0.229798 3.05763
-1.40373 0.435426 4.06426
-1.06049 0.302559 4.07539
-1.61995 0.120245 -2.26642
-1.604 0.343182 -2.82263
-1.22795 0.073959 -2.77514
-1.59958 0.198167 -1.12704
-1.59222 0.432024 -1.8052
-1.5519 0.245717 0.132688
-1.56623 0.527588 -0.535942
-1.45494 0.329228 1.39218
-1.48843 0.560173 0.733083
-1.37874 0.447843 2.52912
-1.36963 0.661909 2.00187
-1.38184 0.535497 3.54397
-1.36101 0.759919 3.01489
-1.02033 0.506998 3.03436
-1.38511 0.843069 4.02907
-1.04063 0.579394 4.05125
-1.57627 0.65496 -2.36141
-1.56848 1.03895 -2.93143
-1.19692 0.603207 -2.87139
-1.55888 0.761444 -1.21411
-1.55126 1.129 -1.91267
-1.50277 0.842044 0.0644532
-1.53707 1.24698 -0.630973
-1.40312 0.892855 1.34278
-1.46813 1.30068 0.65426
-1.3519 0.973985 2.48764
-1.39507 1.36221 1.93559
-1.36429 1.06749 3.49999
-1.38464 1.44351 2.95188
-1.00358 1.02556 2.99414
-1.39633 1.52696 3.96541
-1.02758 1.11468 4.00613
-1.54346 1.51299 -2.48269
-1.1626 1.46374 -2.9945
-1.52945 1.61453 -1.32953
-1.1508 1.55596 -1.97405
-1.50243 1.70562 -0.0411659
-1.14367 1.67139 -0.687683
-1.46007 1.77004 1.24707
-1.11712 1.74212 0.604468
-1.4278 1.83174 2.39983
-1.08081 1.79903 1.89065
-1.41668 1.90298 3.41731
-1.06391 1.86374 2.91072
-1.05944 1.94167 3.92537
-0.829082 -0.159131 -2.22204
-0.832973 -0.0632558 -2.75246
-0.0234509 -0.198622 -2.73002
-0.814636 -0.0945928 -1.08736
-0.00779662 -0.119631 -1.71406
-0.801346 -0.0492018 0.16345
-0.00144412 -0.0695436 -0.46067
-0.764384 0.0584849 1.41421
-0.0170224 -0.0288404 0.787571
-0.715431 0.192684 2.54831
-0.0348093 0.145831 2.04084
-0.704346 0.273893 3.56505
-0.686077 0.378261 3.0443
-0.0140484 0.239565 3.05578
-0.697394 0.446527 4.06238
-0.00581667 0.308267 4.07432
-0.820872 0.333984 -2.82391
-0.0285149 0.0721198 -2.7749
-0.679125 0.550895 3.54164
-0.662903 0.772643 3.01361
0.00104851 0.516989 3.03283
-0.683104 0.851005 4.02831
0.00327302 0.584844 4.05044
-0.791049 1.028 -2.93447
-0.0250129 0.595855 -2.87292
-0.666881 1.07275 3.50028
-0.682862 1.44579 2.95298
0.00600966 1.02834 2.99438
-0.690699 1.52939 3.96609
0.00981331 1.11723 4.00618
-0.769943 1.50671 -2.48586
-0.00061493 1.46016 -2.99601
-0.765022 1.61281 -1.3322
0.00627953 1.5533 -1.97571
-0.758362 1.70789 -0.0420491
-0.00572485 1.6724 -0.688687
-0.737861 1.77111 1.24805
-0.019455 1.74354 0.604589
-0.716924 1.83103 2.40154
-0.0169044 1.79888 1.89151
-0.70668 1.90243 3.41879
-0.00687829 1.86334 2.91158
0.00266064 1.94165 3.926
0.797835 -0.159122 -2.22204
0.781007 -0.0632467 -2.75246
1.18482 -0.198695 -2.73082
0.805395 -0.0945812 -1.08736
1.21093 -0.120411 -1.71522
0.78288 -0.0491822 0.16345
1.19325 -0.0682542 -0.460514
0.712553 0.0585056 1.41421
1.14791 -0.0264483 0.789133
0.666574 0.192712 2.54831
1.03466 0.13286 2.04357
0.684481 0.27394 3.56505
0.673078 0.378293 3.0443
1.03352 0.229865 3.05763
0.69485 0.446584 4.06238
1.05136 0.302652 4.07539
0.767344 0.333991 -2.82391
1.18001 0.0739726 -2.77514
0.683447 0.550938 3.54164
0.669961 0.772681 3.01361
1.02577 0.507058 3.03436
0.69619 0.851071 4.02831
1.04896 0.579488 4.05125
0.765421 1.02802 -2.93447
1.15625 0.60322 -2.87139
0.682704 1.07281 3.50028
0.681993 1.44589 2.95298
1.01938 1.02566 2.99414
0.703173 1.52949 3.96609
1.04885 1.1148 4.00613
0.775608 1.50675 -2.48586
1.16157 1.4638 -2.9945
0.765577 1.61289 -1.3322
1.1625 1.55603 -1.97405
0.733182 1.70805 -0.0420492
1.13522 1.67156 -0.687684
0.701502 1.77131 1.24805
1.08514 1.74242 0.604468
0.693141 1.83119 2.40154
1.05347 1.79929 1.89065
0.702462 1.90256 3.41879
1.05416 1.86395 2.91072
1.06692 1.94185 3.92537
1.59792 -0.159984 -2.224
1.58382 -0.0614754 -2.7535
1.59879 -0.0940836 -1.08837
1.61458 0.0217477 -1.73692
1.55828 -0.0455203 0.165169
1.58756 0.0823818 -0.478488
1.47002 0.0479058 1.4185
1.53115 0.117965 0.776345
1.40161 0.170013 2.55289
1.40326 0.259306 2.03433
1.40041 0.258578 3.56797
1.38622 0.35863 3.04769
1.40547 0.435556 4.06426
1.60048 0.120256 -2.26642
1.56891 0.343202 -2.82263
1.60335 0.198213 -1.12704
1.59416 0.43202 -1.8052
1.56043 0.245867 0.132688
1.57392 0.527687 -0.535942
1.46439 0.329365 1.39218
1.49849 0.560572 0.733083
1.38786 0.447923 2.52912
1.3821 0.662036 2.00187
1.39128 0.535608 3.54397
1.37519 0.760037 3.01489
1.40162 0.843216 4.02907
1.56259 0.654966 -2.36141
1.5524 1.039 -2.93143
1.56472 0.761494 -1.21411
1.55865 1.12905 -1.91267
1.51198 0.842392 0.0644532
1.53821 1.24715 -0.630973
[...]
POINT_DATA 29498
VECTORS point_vectors float
-3.66157 -3.84968 12.2335
-0.0838547 0.0372469 -0.0172632
-3.50788 3.32321 5.50309
0.0812582 -0.203541 1.19254
3.66684 -3.85408 12.2231
0.0787186 0.0371025 -0.015358
3.51332 3.32518 5.50725
-0.0818141 -0.201533 1.18762
0.00404602 0.00567963 0.243038
-0.00944942 -0.00726978 0.0424252
-0.308159 -0.255618 1.03368
0 0 0
-0.00400701 0.00574834 0.243033
0.00937319 -0.00708858 0.0420833
0.305668 -0.25322 1.02526
0 0 0
-0.691154 -0.314644 19.9476
-1.05427 -0.517161 20.7075
-0.355534 -0.264022 21.1921
0.0476614 -0.100039 21.2895
0.769766 0.167028 21.2322
0.987676 0.209871 20.8159
0.747981 0.080468 20.3332
-0.781558 -0.222269 19.8773
-1.36433 -0.418367 20.6466
-0.435572 -0.292659 21.2292
0.00165062 -0.169195 21.3484
0.951958 -0.041339 21.2673
1.20802 -0.0424799 20.6828
0.934524 -0.148676 20.2237
-0.783819 0.051896 19.7492
-1.66125 0.151175 20.4373
-0.826964 -0.185328 21.2138
-0.203772 -0.237359 21.4616
0.702477 -0.511011 21.3269
0.882731 -0.57008 20.8291
0.48957 -0.452806 20.5178
-0.483243 0.312568 19.9004
-0.846753 0.579264 20.2701
-0.750529 0.365793 20.9499
-0.299799 0.036559 21.2963
0.13324 -0.292831 21.1427
0.280978 -0.40453 20.8986
0.297475 -0.35706 20.7731
-0.871308 -0.894483 19.2877
-1.63753 -2.67672 21.6225
-0.329886 -0.0605614 19.8235
0.375331 -0.07209 17.2732
0.301555 1.31335 9.99986
1.0743 1.55368 11.5501
1.77123 0.867186 12.3294
-1.05173 -0.685046 18.8855
1.18162 0.868048 5.48092
2.05867 0.518135 11.1553
-1.03445 0.152439 18.6365
1.01723 -0.726445 11.6742
0.833997 -0.875335 15.3891
-0.460391 0.633827 19.4895
-0.965683 1.61658 20.0305
-1.02152 1.28023 20.9722
-0.426828 0.33695 21.6955
0.0738866 -0.460445 21.293
0.172199 -0.59984 20.9496
0.149677 -0.50888 20.5944
0.842105 -0.953021 19.2201
1.60108 -2.71059 21.6432
0.333311 -0.0608816 19.7868
-0.400524 -0.0591157 16.7138
0.0157639 1.19326 8.54992
-0.940072 1.53316 10.9886
-1.77104 0.8939 12.247
1.04201 -0.734464 18.7818
-1.18356 0.874001 5.53294
-2.05502 0.511253 11.3257
1.01222 0.164077 18.5603
-1.02958 -0.731617 12.0097
-0.834437 -0.869938 15.7571
0.459087 0.634047 19.4889
0.971583 1.59858 20.0327
1.01697 1.30007 20.9701
0.420727 0.361506 21.7243
-0.0685804 -0.469544 21.3167
-0.170441 -0.59948 20.952
-0.148111 -0.507848 20.5891
0.702576 -0.332231 19.9255
1.06076 -0.52765 20.7053
0.358192 -0.267467 21.1873
-0.0456965 -0.101474 21.2857
-0.793496 0.183695 21.2515
-1.00224 0.221385 20.812
-0.744426 0.0844284 20.3538
0.808119 -0.236355 19.8483
1.36446 -0.4193 20.6484
0.436328 -0.289262 21.2251
-0.00258836 -0.167825 21.3406
-0.937505 -0.0396965 21.2676
-1.19316 -0.0443041 20.6808
-0.913824 -0.156971 20.2082
0.807096 0.0586053 19.7234
1.65294 0.148617 20.4363
0.820753 -0.181257 21.2078
0.200786 -0.232467 21.4528
-0.688552 -0.49923 21.3001
-0.86312 -0.549793 20.8425
-0.458308 -0.432175 20.5181
0.483975 0.312566 19.9
0.843198 0.571055 20.2719
0.752604 0.370248 20.9508
0.30301 0.0418557 21.3078
-0.132318 -0.297276 21.1497
-0.280999 -0.408841 20.8958
-0.301165 -0.35917 20.7822
-0.377464 -0.0741389 0.660248
-3.15502e-05 -0.00111555 0.0265559
-0.0457412 0.0460514 0.588477
0.0165706 0.0534693 0.0846971
0 0 0
-0.0120922 0.060386 0.82878
-6.03356e-05 0.153518 0.450161
-0.188437 -0.281714 0.703981
-3.33636e-05 -5.19785e-05 0.00114877
0.000528328 0.000145618 0.00308846
0.375357 -0.0723739 0.655266
0.0458965 0.0464361 0.590801
-0.0170659 0.0532892 0.0854046
0.0119926 0.0608877 0.831856
0.187927 -0.282594 0.706221
-0.000428799 0.000118983 0.00255018
-0.00247083 0.0281217 0.546266
8.11942e-05 -0.000223307 0.0033001
-1.29441e-09 1.46727e-09 1.04112e-06
0 0 0
0 0 0
0 0 0
-8.63443e-06 0.00591156 0.0120055
-6.66316e-11 -1.51281e-08 -2.08363e-05
0.00257084 0.0284704 0.546537
-8.29189e-05 -0.000231239 0.00338971
0 0 0
0 0 0
0.000415751 -0.000322555 0.00742306
-3.56002e-06 8.57269e-05 0.000368698
0.00570817 0.0107762 0.145476
0 0 0
2.47566e-09 1.54392e-07 0.000128396
1.20488e-07 -5.90822e-06 -8.88458e-05
0.014666 -0.19617 0.362434
-0.00327818 0.197063 -0.0261635
1.48699e-06 0.00151735 0.0151352
-6.27899e-09 1.58898e-05 0.000341467
1.17598e-08 -1.95044e-05 8.26451e-05
-0.000400291 -0.000308465 0.00715147
4.14724e-06 9.92026e-05 0.000424996
-0.00598539 0.0112231 0.151142
-2.53389 -1.17128 20.9344
-2.42439 -3.91298 22.2973
-2.82776 -2.23314 18.191
1.40781 0.368995 14.6556
-0.195796 0.690461 2.36692
0.15223 0.686647 2.89134
-3.61191 0.715493 20.3366
-3.02127 0.940385 17.0365
-2.27664 2.98423 19.8298
1.20813 -0.536466 17.6939
0.62459 -0.287975 7.09958
0.272467 -0.781142 20.1124
2.39018 -3.96439 22.3524
2.86283 -2.36484 18.0373
2.53438 -1.17274 20.9316
0.341254 0.544245 1.82532
-0.14905 0.678831 2.89392
-1.41446 0.359545 14.9119
3.038 1.00303 16.8403
2.28593 2.95522 19.8351
3.59551 0.707393 20.3368
-0.643835 -0.29025 7.27093
-0.300214 -0.761328 19.7783
-1.20071 -0.55278 17.9633
-0.266115 -0.477791 21.2356
-0.0705824 0.21921 11.6436
-0.0434758 -0.224215 19.9587
0.887959 -0.907476 9.45288
-1.34051 -0.719985 21.2156
-2.2979 1.52053 20.9747
-0.152568 -0.309666 19.1772
-0.676072 0.204094 20.86
0.0731193 0.216253 11.5836
0.273429 -0.475817 21.2508
-1.03598 -0.884082 8.52948
0.0446226 -0.223272 20.0267
2.30429 1.5468 20.9551
1.3357 -0.707648 21.2081
0.601858 0.247379 20.3951
0.168883 -0.317457 19.3307
-1.00118 -0.467334 20.2178
-0.760264 -0.269489 19.9025
-0.859613 -0.548694 19.66
-0.686602 -0.382687 21.1026
-1.19389 -0.483532 20.6811
-1.52247 -1.17834 20.9376
-0.15053 -0.179937 21.2418
-0.394253 -0.274008 21.2028
-0.248222 -0.294443 21.3844
0.372824 0.0285953 21.3996
0.025381 -0.13463 21.3135
0.114268 -0.132012 21.2982
0.939906 0.178345 21.0066
0.909325 0.0894655 21.2055
1.22198 0.652791 19.5762
0.989183 0.0124548 20.9707
1.06126 0.145278 20.7579
1.52805 0.587057 18.8645
0.900976 -0.00592345 20.2453
1.11841 0.302947 20.8478
-1.17646 -0.365334 20.0867
-0.812865 -0.0833293 19.7796
-0.989461 -0.40052 19.4736
-0.874621 -0.347546 21.1551
-1.58735 -0.15183 20.5696
-0.189596 -0.23373 21.2662
-0.617751 -0.29012 21.2308
0.426991 -0.0918005 21.5405
-0.0824265 -0.22153 21.4307
1.095 -0.0698944 21.0564
0.919293 -0.316171 21.2648
1.09958 -0.0887175 20.6761
1.04719 -0.432969 20.8065
1.93676 0.11496 17.6049
0.705061 -0.369239 20.29
1.39455 0.0430023 20.2276
-1.29336 0.112758 19.89
-0.676814 0.243628 19.8071
-0.993713 0.0972439 19.3276
-1.26591 -0.028979 21.1023
-1.28201 0.510216 20.3133
-0.531521 -0.254538 21.3549
-0.940437 0.133676 21.0848
0.269077 -0.316498 21.5628
-0.313348 -0.112838 21.4089
0.81051 -0.55627 21.1309
0.326109 -0.438497 21.2584
0.801449 -0.562759 20.6739
0.476915 -0.529906 20.9721
1.01499 -0.917454 19.8215
0.387676 -0.488615 20.9086
0.780288 -0.752078 20.29
-0.677264 0.454825 20.0302
-0.519703 0.451105 19.7185
-0.845016 0.508816 20.6803
-1.00321 1.00984 20.1683
-0.576549 0.216572 21.1657
-0.961276 0.717078 20.9938
-0.0519473 -0.142124 21.2807
-0.388252 0.151135 21.4692
0.221287 -0.368205 21.0329
0.131502 -0.388128 21.2329
0.237203 -0.411355 20.7223
0.249413 -0.53139 20.8671
0.210453 -0.414952 20.4992
-1.65969 -2.11779 19.513
-0.9646 -0.828404 19.0841
-0.0418853 -1.51889 18.6666
-0.690183 -0.64962 21.7765
0.0150676 -2.6507 22.5167
-0.0717089 0.0458226 18.1931
-0.00436859 -0.166355 17.9144
0.521593 0.645361 13.3169
-0.000592175 0.127751 14.2977
0.580107 1.33633 10.8329
-0.0704659 0.342467 5.22334
1.46844 1.15278 11.9829
1.09987 1.21546 7.97775
-0.0186348 -0.642096 1.97349
2.02776 0.789954 11.6575
-0.00312663 0.321728 4.97547
-1.11644 -0.299842 18.6352
-0.0702135 -1.21538 17.8133
1.8962 0.739312 9.1268
1.31778 -0.0215812 7.04002
0.0137832 -1.45653 -4.94299
1.42783 -0.330839 12.2078
-0.0211731 -0.704259 -1.07001
-0.748253 0.605463 19.076
-0.0363938 0.253896 17.5885
1.03954 -0.928663 14.0667
0.287454 -0.975329 20.5154
-0.00686214 -0.620157 3.94743
0.203809 -0.739872 20.5469
-0.0134754 -1.60405 10.1663
-0.754808 1.16948 19.5492
-0.000773414 0.857346 19.2259
-1.0061 1.45471 20.6694
0.00848937 2.25052 19.8581
-0.895361 0.98494 21.5173
-0.0107733 2.12583 20.8482
-0.0869825 -0.165864 21.5591
-0.0169076 0.646333 21.9876
0.138373 -0.562851 21.1141
-0.000506588 -0.486239 21.3648
0.224509 -0.605026 20.7072
0.000584542 -0.649632 21.081
0.000416723 -0.835887 20.4539
1.63549 -2.24601 19.4749
0.941331 -0.887724 19.0058
0.878615 -0.594799 19.6125
0.692925 -0.664535 21.8195
1.53805 -1.21297 20.9479
0.0741839 0.0347082 17.9197
0.247862 -0.293308 21.3793
-0.401921 0.6345 12.1762
-0.120746 -0.125044 21.2528
-0.314784 1.2389 9.76858
-1.2617 0.7727 18.8586
-1.45596 1.17969 11.8084
-1.0502 1.20278 7.62172
-1.56611 0.614682 18.6425
-2.04568 0.799737 11.5759
-1.13268 0.305706 20.8512
1.08337 -0.300925 18.5532
1.01184 -0.441092 19.4155
-1.89705 0.735868 9.21923
-1.34406 -0.0246333 7.23161
-1.93211 0.103497 17.7419
-1.4313 -0.327718 12.4556
-1.3895 0.0400817 20.3406
0.741808 0.615259 19.0543
1.01866 0.100146 19.254
-1.04301 -0.920634 14.3859
-0.287985 -0.974847 20.5155
-0.986179 -0.937138 20.125
-0.205773 -0.738024 20.5227
-0.783512 -0.732712 20.3374
0.755122 1.16373 19.5529
0.518273 0.451967 19.7186
1.00549 1.45353 20.6693
0.999087 0.994179 20.174
0.892328 1.03332 21.5283
0.963674 0.726902 20.9937
0.0841872 -0.167067 21.57
0.391941 0.166721 21.485
-0.134425 -0.569507 21.1235
-0.127991 -0.395451 21.2324
-0.223638 -0.604815 20.7054
-0.249055 -0.533379 20.8703
-0.212553 -0.407056 20.5079
1.01687 -0.487251 20.2061
0.779797 -0.287051 19.883
0.688252 -0.386646 21.1016
1.1986 -0.489188 20.6833
0.149569 -0.18085 21.2461
0.396 -0.272388 21.1978
-0.383859 0.0312638 21.4191
-0.0234894 -0.137559 21.3114
-0.96456 0.194407 20.9995
-0.918925 0.0921744 21.205
-1.00691 0.0158744 20.9157
-1.06442 0.145874 20.7512
-0.890767 -0.00648396 20.2405
1.2101 -0.374673 20.0753
0.841228 -0.0933957 19.7475
0.871168 -0.346918 21.15
1.58489 -0.152376 20.5686
0.191434 -0.233919 21.2643
0.618031 -0.289268 21.2259
-0.420729 -0.0920221 21.529
0.0810851 -0.218701 21.4212
-1.07905 -0.0681526 21.0559
-0.898926 -0.309553 21.271
-1.0871 -0.101202 20.7662
-1.0303 -0.414594 20.8053
-0.680504 -0.354766 20.2892
1.31722 0.115832 19.8777
0.687329 0.251084 19.7948
1.25671 -0.0268214 21.0967
1.27317 0.504641 20.3143
0.52519 -0.244536 21.3473
0.940024 0.13312 21.0838
-0.264078 -0.311746 21.552
0.315608 -0.111738 21.4145
-0.801137 -0.537098 21.1146
-0.326634 -0.439731 21.2589
-0.792061 -0.545583 20.6854
-0.476853 -0.52451 20.9687
-0.389435 -0.484805 20.9366
0.673312 0.451208 20.0333
0.843723 0.506493 20.6801
0.583574 0.225973 21.1726
0.0522425 -0.143587 21.2867
-0.221437 -0.3706 21.0374
-0.236562 -0.40946 20.7232
-1.10114 -0.429006 20.1533
-2.21198 -2.32014 18.9353
-1.4052 -1.01528 19.9699
-1.92915 -0.844064 19.62
-0.935781 -0.495666 19.5574
-2.01024 -1.24731 20.9529
-0.779471 -0.370235 21.112
-0.584652 0.0511542 16.2261
-0.715142 -0.609345 21.4862
-1.00369 -0.697826 21.8201
-0.228812 -0.380479 21.4127
-0.169427 -0.203895 21.2548
0.120541 0.0791243 10.6407
-0.0279515 -0.169031 21.3286
-0.00814204 -0.294282 20.5191
0.053486 -0.20216 20.7887
0.412168 -0.0194528 21.4779
0.000865953 0.246603 3.86679
0.650957 0.242535 20.952
0.599592 0.0633657 18.9848
1.41454 0.571417 17.482
1.01615 0.0823817 21.0595
0.281964 1.09242 5.59208
1.33079 0.646747 19.1171
1.55483 0.279577 16.5172
1.72687 0.364062 18.2538
1.06191 -0.0584716 21.0259
1.68309 1.07043 10.113
1.38009 0.520946 19.0004
1.67768 0.217075 17.1754
1.39029 0.206427 20.5637
-1.30687 -0.126002 19.957
-3.48817 -0.837174 16.8777
-2.10764 0.316238 19.1453
-1.04135 -0.161254 19.3423
-3.49438 -0.478099 20.6902
-1.09919 -0.228843 21.1589
-1.89058 -0.104047 21.7734
-0.508448 -0.69911 20.9439
-0.323927 -0.286791 21.3138
-0.803041 -0.850147 20.5314
-0.0256841 -0.111171 18.6789
0.383699 -0.205776 21.5771
0.649214 0.0331049 18.3363
1.48541 0.00659391 15.2237
1.01193 -0.383707 21.0806
0.525006 0.24926 3.16019
1.09543 -0.747467 18.7154
1.49117 -0.395405 18.4706
0.972138 -0.418537 20.9786
1.78961 -0.402978 10.5701
0.961658 -0.836336 20.3311
1.10244 -0.468042 19.6052
-1.01802 0.396845 19.9264
-1.52683 1.56934 18.7309
-0.797341 0.753161 19.8107
-0.759486 0.376119 19.5108
-1.95885 1.24622 20.1514
-1.16243 0.352883 20.8552
-1.99474 1.79799 21.092
-1.03855 0.923907 20.6953
-1.50399 0.364359 21.1821
-0.696036 -0.00977274 21.3049
-2.12436 1.00993 21.9426
-0.766359 0.484676 21.3292
-0.534404 -0.0569736 21.7193
0.0472268 -0.26295 21.42
0.176298 -0.413723 20.0026
-0.0669528 -0.159356 21.4097
0.301991 -0.673216 21.3565
0.412493 -0.50934 21.087
0.270045 -0.89554 20.4916
0.205928 -0.479184 21.0738
0.438524 -0.744963 21.0286
0.419001 -0.513264 20.6012
0.281575 -0.931901 20.4744
0.272834 -0.504732 20.7589
0.332138 -0.674937 20.1913
2.21182 -2.48677 18.8604
-0.0357766 -3.96933 19.354
-0.0722876 -7.14915 15.2086
-0.0428594 -1.42614 18.2793
0.0156522 -1.82307 19.1189
0.592618 0.0557709 16.08
0.00154392 -0.612897 20.8073
-0.00914123 0.00142356 8.5522
-0.124174 0.0653094 10.2129
-0.00649976 -0.0383552 15.6502
0.00259173 0.0421846 6.24041
0.0627528 0.176531 3.26429
-0.00349557 0.477732 9.45008
-0.0604329 -0.251205 -0.0126494
-0.159581 1.03653 5.07284
-0.0914894 -0.131144 3.74454
0.0070702 -0.884418 -3.56551
0.00334076 -1.10628 -1.9088
-1.68983 1.08881 9.9148
-0.00225449 0.565169 5.21855
-0.00964012 -0.19699 -3.48511
-0.00756694 -0.357704 -0.234474
3.56956 -0.885193 16.6124
-0.0815271 2.65444 13.4887
-0.0496604 -0.495521 17.429
-0.524969 0.252096 3.21802
-0.00375417 0.170712 1.5492
0.00680077 -0.750108 -1.43403
-1.80785 -0.427382 10.7464
-0.00597605 -1.09215 7.11654
-0.0317739 -1.33947 3.81762
1.52151 1.58774 18.7158
0.004698 1.62343 19.248
-0.0178693 0.923791 18.5212
0.00965176 4.64673 19.6322
1.99473 1.79778 21.0934
0.000197998 2.13307 20.585
-0.0100916 3.57823 20.2635
2.15905 1.06926 21.909
-0.024851 1.84516 21.7717
-0.00517254 0.547366 19.1046
-0.23653 -0.393538 19.577
-0.00609809 -0.142187 21.7233
0.00378042 -0.717331 15.9549
-0.268068 -0.895263 20.4655
0.000176972 -0.598259 21.1445
-0.000300282 -0.982116 19.3853
-0.285974 -0.932151 20.4792
0.00135597 -0.522811 20.9401
-0.00559403 -0.318875 20.5482
1.12529 -0.449988 20.1454
1.44252 -1.0717 19.9442
1.99211 -0.905281 19.5703
0.954246 -0.539595 19.5055
2.02563 -1.27169 20.9568
0.780667 -0.372837 21.1099
0.715275 -0.614631 21.4894
1.00506 -0.695518 21.8095
0.232171 -0.381642 21.4089
0.169004 -0.20466 21.2583
0.0253797 -0.161034 21.3115
0.013879 -0.295869 20.5647
-0.0538645 -0.199447 20.7146
-0.415145 -0.0194251 21.4816
-0.682186 0.288436 20.6653
-0.59929 0.0593549 19.1224
-1.41805 0.62092 16.7345
-1.02244 0.0861194 21.0558
-1.33583 0.697459 18.7288
-1.55779 0.266331 16.7343
-1.72719 0.392677 18.0443
-1.06463 -0.0555559 21.0209
-1.38879 0.558902 18.8975
-1.65206 0.2138 17.3009
-1.39193 0.205301 20.5455
1.33723 -0.13362 19.9443
2.17512 0.338882 19.0849
1.07663 -0.174699 19.2618
3.48996 -0.476531 20.6895
1.09369 -0.228767 21.1526
1.88411 -0.101705 21.7631
0.51666 -0.693915 20.9786
0.324289 -0.283606 21.3046
0.800843 -0.82381 20.5462
0.0273527 -0.125678 18.8149
-0.378292 -0.203203 21.5701
-0.63466 -0.0276435 18.614
-1.48685 -0.0099309 15.5312
-0.994319 -0.369386 21.0829
-1.08673 -0.76687 19.0737
-1.47053 -0.406912 18.8027
-0.961039 -0.410811 21.0035
-0.96055 -0.812098 20.3612
-1.09394 -0.467859 19.8365
1.0204 0.400447 19.923
0.796428 0.74943 19.814
0.758912 0.385254 19.4938
1.94047 1.22653 20.1566
1.15811 0.351382 20.8532
1.03688 0.921794 20.6954
1.50824 0.367225 21.1817
0.699993 -0.00872586 21.3066
0.7725 0.502071 21.3386
0.545772 -0.05159 21.7334
-0.0473018 -0.263749 21.4225
0.0671403 -0.160076 21.421
-0.299308 -0.678142 21.358
-0.411863 -0.506853 21.0833
-0.204531 -0.486715 21.0741
-0.439753 -0.741702 21.0334
-0.418921 -0.505504 20.5918
-0.273341 -0.502785 20.7592
-0.33681 -0.655515 20.2194
-1.68242 -0.959855 19.8089
-0.838778 -0.664797 21.6215
0.00459043 -0.226947 21.0843
0.673501 0.134808 19.8817
1.48503 0.496251 17.9372
1.54478 0.389382 18.0131
-2.22214 -0.325862 19.2455
-1.4415 -0.515761 22.0392
-0.0770102 -0.572875 19.7253
0.579183 0.155601 18.2391
1.53742 -0.21478 17.0119
1.40454 -0.37285 18.4804
-1.37638 0.793518 19.4954
-1.67657 0.784385 21.0241
-1.21419 0.187138 21.613
0.0200571 -0.358604 21.6487
0.377234 -0.746572 21.1352
0.434497 -0.749069 20.885
-0.0364613 -5.41795 18.2678
-0.00373411 -0.0844189 11.9242
-0.000744833 0.00941629 7.04107
-0.00107472 0.155452 2.44808
-0.0574369 -0.73334 -1.68989
-0.00532388 0.179388 -0.159498
-0.113004 -1.4601 11.8647
0.00492328 -0.109763 -1.94158
-0.014859 -0.642726 0.752203
-0.0121389 2.65405 17.7662
0.000296869 3.07533 20.958
-0.0169908 2.86576 21.5284
0.00516611 -0.515105 16.7658
9.29176e-05 -0.790678 18.3564
-0.00299092 -1.07899 19.7228
1.72202 -1.02423 19.7608
0.838896 -0.667297 21.6228
-0.00552624 -0.222539 21.0571
-0.682643 0.147939 19.579
-1.48709 0.526765 17.5726
-1.54122 0.402501 17.9422
2.30793 -0.342868 19.1725
1.44299 -0.513936 22.0287
0.0888692 -0.571931 19.8393
-0.576186 0.126192 18.4443
-1.52465 -0.230826 17.3589
-1.36966 -0.371212 18.7213
1.3824 0.802329 19.4828
1.67366 0.781332 21.0229
1.22889 0.19361 21.6203
-0.0207237 -0.361919 21.6574
-0.375228 -0.746982 21.1442
-0.434393 -0.74091 20.9006
0 0 0
-0.00315342 -0.00369654 0.0421971
-0.038048 0.0196551 0.338863
-0.0110864 0.0271858 0.0155699
0 0 0
0.000103902 0.00058701 0.000836649
-1.87013 0.0244326 2.35921
-0.0173386 0.152451 0.31414
-0.135539 0.0443454 0.621538
-0.00994064 0.00892199 -0.00836392
-0.00123052 -0.00198866 0.0185203
0.00478356 0.000697385 0.0882818
0.0030359 -0.00349613 0.0401948
0 0 0
0.0376447 0.0197633 0.335832
0 0 0
0.0109776 0.0271018 0.0158015
-8.38007e-05 0.00045342 0.000649401
0.0175204 0.151593 0.311577
1.87188 0.0269828 2.36621
0.13609 0.0447036 0.62465
0.00109497 -0.00198243 0.0183935
0.00981539 0.00883385 -0.00827032
0.000305487 -0.00109325 0.0449807
0.00706044 0.0191246 0.21019
-0.000543177 0.0228536 0.471717
0 0 0
0 0 0
0.0915329 -0.118847 2.27318
0.00246009 0.00245894 0.509802
0 0 0
0 0 0
-0.308991 -0.195942 0.768062
7.16419e-07 -0.000355759 0.00897513
-4.28229e-06 -6.5068e-06 -0.00014987
-0.0493507 0.0207983 0.0604872
0 0 0
0 0 0
0 0 0
0.00818151 -0.00407081 0.0698904
-0.00692586 0.0192079 0.210025
2.15135e-19 1.70704e-19 1.62384e-17
0.000602538 0.0230343 0.472049
0 0 0
-0.0911894 -0.118474 2.27173
0 0 0
-0.00236835 0.00276349 0.510096
0 0 0
0.30836 -0.195723 0.768283
0.0493261 0.0207189 0.0602545
-5.68298e-08 -0.000382152 0.00940981
-9.49474e-06 1.46416e-05 0.000348056
0 0 0
-0.00830814 -0.00409623 0.0705416
-3.33907e-18 1.09372e-17 2.37921e-17
0 0 0
0 0 0
-0.0561371 0.0180807 0.0330704
2.83072e-06 1.8038e-07 -0.000109619
0 0 0
0.0124474 0.0130749 0.163183
-2.38349e-05 -1.19923e-06 0.000191886
0.0205901 -0.0059306 0.0933746
-0.0728088 0.0545693 -0.0279362
8.04611e-06 0.00999099 0.0646529
-6.9653e-05 0.000740182 -0.000342392
0 0 0
-2.03606e-05 9.85725e-05 0.00141761
1.13611e-05 0.714877 1.1197
-1.4653e-05 0.0137043 0.0754389
0.00323535 -0.00515371 0.0533857
0 0 0
-0.000715591 0.0704168 -0.0120883
9.52023e-08 -9.91086e-07 2.42599e-06
0.00900021 0.00228732 0.082711
0.00108808 -0.0012383 0.00519853
0.0565833 0.0182787 0.033315
0 0 0
5.87075e-05 -2.7476e-06 0.000475132
-0.0124839 0.0132292 0.163661
0.0745246 0.056616 -0.0284282
-0.0204413 -0.00603444 0.0929737
2.39227e-05 0.000118006 0.00169927
2.19585e-18 -1.67932e-18 -3.17754e-17
0 0 0
-0.0023765 -0.00377683 0.0392047
-0.00108301 -0.00123325 0.005178
-0.00962693 0.00196189 0.0876812
0 0 0
0 0 0
0.00087348 -0.00165317 0.00787859
1.88128e-06 2.53926e-05 0.000227213
0 0 0
4.53949e-09 -2.53719e-08 -3.9294e-05
-0.000113694 0.00146537 0.00515376
-0.0074745 0.00989423 0.122095
-4.74085e-10 -1.54748e-08 -2.27995e-05
0 0 0
0.000538381 0.0025454 0.00877778
-0.00364254 0.00734654 0.0626389
-1.2283e-05 -0.00201419 0.039306
-1.75942e-05 0.0388754 0.11952
1.61966e-11 -1.1243e-06 -7.5421e-05
1.05355e-06 -0.00111143 0.00471064
0 0 0
0 0 0
-0.000917317 -0.00171633 0.00827727
-2.15494e-06 2.91654e-05 0.000261115
0.000115465 0.00148407 0.00516465
0.0073245 0.010222 0.120686
0.00372343 0.0075462 0.064289
-0.000554706 0.00264559 0.00911558
-0.00147057 -0.00155434 0.0316189
-0.00141025 -0.000583849 0.00963488