# vtk DataFile Version 2.0
tri_press
ASCII
DATASET UNSTRUCTURED_GRID
POINTS 3682 float
-0.835878 0.165 -1.755
-0.641705 0.445 2.015
-0.755 0.665 -1.86031
-0.625 0.925 1.98384
0.835878 0.165 -1.755
0.641703 0.445 2.015
0.755 0.665 -1.86031
0.625 0.925 1.98384
-0.80331 0.226177 -0.498333
-0.806701 0.251395 0.758334
-0.787606 0.827606 -0.578927
-0.702114 0.872114 0.702457
0.803311 0.226175 -0.498333
0.806701 0.251393 0.758334
0.787526 0.827527 -0.578927
0.702728 0.872728 0.702457
-1.62219 -0.198805 -2.73162
-1.61854 -0.121219 -1.71639
-1.58416 -0.067056 -0.460358
-1.54148 -0.0241987 0.790696
-1.44044 0.119797 2.0463
-1.40908 0.220049 3.05948
-1.41487 0.296879 4.07646
-1.62105 0.0758016 -2.77539
-1.61885 0.164689 -1.75745
-1.5803 0.231645 -0.496618
-1.52349 0.259789 0.761994
-1.38638 0.398666 2.02236
-1.3711 0.49702 3.03589
-1.39259 0.573973 4.05206
-1.58695 0.610562 -2.86986
-1.56559 0.699358 -1.85295
-1.55216 0.82353 -0.575266
-1.45337 0.860557 0.704172
-1.35287 0.925152 1.98139
-1.35093 1.02282 2.99389
-1.37764 1.11216 4.00608
-1.55 1.46734 -2.99299
-1.53693 1.55864 -1.97238
-1.52197 1.67043 -0.68668
-1.48289 1.74081 0.604348
-1.43726 1.79927 1.88979
-1.41834 1.86421 2.90986
-1.41501 1.94175 3.92475
-0.831092 -0.198628 -2.73002
-0.827073 -0.119634 -1.71406
-0.802198 -0.0695518 -0.46067
-0.800494 -0.0288519 0.787571
-0.728274 0.145822 2.04084
-0.702589 0.239547 3.05578
-0.706103 0.308238 4.07432
-0.834854 0.0721164 -2.7749
-0.669566 0.516975 3.03283
-0.688685 0.584815 4.05044
-0.806891 0.595852 -2.87292
-0.65624 1.02831 2.99438
-0.677523 1.1172 4.00618
-0.775208 1.46014 -2.99601
-0.764679 1.55328 -1.97571
-0.765365 1.67234 -0.688687
-0.751358 1.74343 0.604589
-0.724364 1.79879 1.89151
-0.709483 1.86327 2.91158
-0.703876 1.94159 3.926
0.78419 -0.198616 -2.73002
0.81148 -0.119627 -1.71406
0.79931 -0.0695353 -0.46067
0.766449 -0.028829 0.787571
0.658656 0.14584 2.04084
0.674492 0.239583 3.05578
0.69447 0.308296 4.07432
0.777824 0.0721231 -2.7749
0.671663 0.517003 3.03283
0.695231 0.584872 4.05044
0.756865 0.595858 -2.87292
0.668259 1.02836 2.99438
0.69715 1.11727 4.00618
0.773978 1.46018 -2.99601
0.777238 1.55332 -1.97571
0.753915 1.67246 -0.688687
0.712448 1.74364 0.604589
0.690555 1.79897 1.89151
0.695727 1.86342 2.91158
0.709197 1.94171 3.926
1.58546 -0.198773 -2.73162
1.61039 -0.121194 -1.71639
1.58719 -0.0669731 -0.460358
1.52937 -0.0240676 0.790695
1.41067 0.119879 2.0463
1.39256 0.220147 3.05948
1.40826 0.297008 4.07646
1.58219 0.0758222 -2.77539
1.61877 0.16469 -1.75745
1.58793 0.231737 -0.496618
1.53293 0.259997 0.761994
1.39585 0.398733 2.02236
1.37988 0.497112 3.03589
1.40269 0.574104 4.05206
1.55564 0.610582 -2.86986
1.56954 0.699351 -1.85295
1.5599 0.823638 -0.575266
1.46406 0.861147 0.704172
1.36836 0.92534 1.98139
1.37051 1.02296 2.99389
1.40054 1.11233 4.00608
1.54917 1.46742 -2.99299
1.54776 1.55874 -1.97238
1.51652 1.67066 -0.68668
1.45783 1.7412 0.604348
1.41638 1.79962 1.88979
1.41259 1.86449 2.90986
1.42465 1.94199 3.92475
-0.816221 0.415 -1.82844
0 0.183766 -1.73623
-0.828473 0.186709 -1.12667
-0.668336 0.685 2.0344
-9.83477e-07 0.411633 2.04837
-0.844142 0.228258 1.38667
0 0.730944 -1.92625
-0.802435 0.777435 -1.21962
0 0.91333 1.97217
-0.663333 0.898333 1.34315
0.816214 0.415 -1.82843
0.828353 0.186829 -1.12667
0.668308 0.685 2.03438
0.844247 0.228152 1.38667
0.80242 0.77742 -1.21962
0.663315 0.898315 1.34315
-0.804587 0.239204 0.13
-0.814384 0.526892 -0.53863
5.2038e-07 0.161342 -0.498333
-0.810494 0.561755 0.730395
4.08557e-07 0.161266 0.758334
-0.749768 0.854768 0.061765
-3.99526e-05 0.970785 -0.578927
0.000306743 1.17165 0.702457
0.804588 0.239202 0.13
0.814381 0.526851 -0.53863
0.810536 0.562061 0.730395
0.749699 0.854699 0.061765
-0.883298 0.470946 -1.17314
0.883291 0.470925 -1.17314
2.6019e-07 0.171404 -1.12667
-1.99763e-05 0.857612 -1.21962
0 0.415 -2.17993
-0.807774 0.544323 0.0958825
0.807788 0.544456 0.0958825
4.64468e-07 0.161281 0.13
0.000133395 1.17026 0.061765
-0.883464 0.623377 1.36491
0.883528 0.62353 1.36491
-2.8746e-07 0.201104 1.38667
0.000153372 1.05177 1.34315
-4.91738e-07 0.685 2.1764
-0.810845 0.29 -1.77651
-0.417939 0.166075 -1.75393
-0.822816 0.185214 -1.44083
-0.654985 0.565 2.02467
-0.320853 0.428761 2.03124
-0.751598 0.327955 1.70083
-0.801056 0.54 -1.85982
-0.3775 0.723481 -1.91879
-0.807079 0.749579 -1.53996
-0.62157 0.805 1.98402
-0.3125 0.924111 1.98295
-0.645129 0.912629 1.66349
0.417939 0.165728 -1.75427
0.810878 0.29 -1.77655
0.822534 0.185496 -1.44083
0.320851 0.428789 2.03121
0.654997 0.565 2.02468
0.751433 0.328118 1.70083
0.3775 0.723477 -1.91879
0.801079 0.54 -1.85984
0.807104 0.749604 -1.53996
0.3125 0.924112 1.98295
0.621571 0.805 1.98403
0.641873 0.909373 1.66349
-0.802872 0.219462 -0.8125
-0.803712 0.232927 -0.184167
-0.807243 0.377336 -0.518482
-0.417159 0.16275 -0.498333
-0.860214 0.205034 1.0725
-0.805642 0.245302 0.444167
-0.812519 0.404615 0.744364
-0.425109 0.162812 0.758334
-0.79645 0.80395 -0.899273
-0.810337 0.68192 -0.558778
-0.76758 0.84008 -0.258581
-0.415584 0.942717 -0.578927
-0.674459 0.876959 1.0228
-0.792711 0.735138 0.716426
-0.727082 0.864582 0.382111
-0.423134 1.16634 0.702457
0.802866 0.219468 -0.8125
0.417115 0.16284 -0.498333
0.803712 0.232926 -0.184167
0.807229 0.377321 -0.518482
0.860204 0.205043 1.0725
0.425086 0.16286 0.758334
0.805646 0.245297 0.444167
0.812526 0.404773 0.744364
0.796449 0.803949 -0.899273
0.415516 0.942701 -0.578927
0.81035 0.681887 -0.558778
0.76759 0.84009 -0.258581
0.67445 0.87695 1.0228
0.423578 1.16631 0.702457
0.792633 0.735395 0.716426
0.727078 0.864578 0.382111
-0.882901 0.442973 -1.50079
-0.408111 0.415 -2.08282
1.30095e-07 0.177023 -1.43145
0 0.299383 -1.96571
-0.879481 0.328827 -1.1499
-0.414237 0.163071 -1.12667
-0.795034 0.654189 1.69966
-0.334168 0.685 2.13964
-6.35468e-07 0.222199 1.71752
-7.37607e-07 0.548317 2.12054
-0.877572 0.425818 1.37579
-0.422071 0.201154 1.38667
-9.98814e-06 0.812999 -1.57294
0 0.572972 -2.16648
-0.885505 0.62419 -1.19638
-0.401227 0.836934 -1.21962
7.66859e-05 0.953243 1.65766
-2.45869e-07 0.799165 2.14789
-0.843655 0.760855 1.35403
-0.33159 1.04783 1.34315
0.8829 0.442963 -1.50079
0.408107 0.415 -2.08282
0.879483 0.328877 -1.1499
0.414177 0.163224 -1.12667
0.794959 0.654265 1.69964
0.334154 0.685 2.13965
0.877572 0.425841 1.37579
0.422123 0.201104 1.38667
0.8855 0.624173 -1.19638
0.4012 0.836925 -1.21962
0.843609 0.760922 1.35403
0.331734 1.04782 1.34315
-0.789085 0.400312 0.112941
-0.42101 0.16281 0.13
-0.825585 0.498919 -0.855886
-0.811103 0.535607 -0.221374
3.90285e-07 0.165632 -0.8125
4.92424e-07 0.161326 -0.184167
-0.804585 0.553039 0.413139
-0.882221 0.592566 1.04765
4.36513e-07 0.161294 0.444167
6.05484e-08 0.176923 1.0725
-0.802868 0.711594 0.0788238
-0.451171 1.16522 0.061765
-2.99644e-05 0.86752 -0.899273
4.67214e-05 1.11675 -0.258581
0.000220069 1.17098 0.382111
0.000230058 1.14334 1.0228
0.789086 0.40038 0.112941
0.420967 0.162897 0.13
0.825592 0.498888 -0.855886
0.8111 0.535653 -0.221374
0.804615 0.553258 0.413139
0.882218 0.592795 1.04765
0.802869 0.71164 0.0788238
0.451297 1.16524 0.061765
-0.873446 0.309414 -1.47081
-0.817648 0.352681 -0.834193
-0.817611 0.65072 -0.877579
-0.884752 0.582095 -1.52038
0.873434 0.309439 -1.47081
0.884752 0.582086 -1.52038
0.817614 0.650681 -0.877579
0.817646 0.352695 -0.834193
-0.416088 0.164114 -1.43614
0.416058 0.164012 -1.43614
0.407916 0.162494 -0.8125
-0.407946 0.161251 -0.8125
-0.389364 0.800859 -1.55645
-0.397525 0.841226 -0.899273
0.397472 0.841248 -0.899273
0.38935 0.800854 -1.55645
-0.413025 0.294691 -1.96349
-0.392805 0.556486 -1.88651
0.392803 0.556486 -1.88588
0.413023 0.294691 -1.96349
-0.798402 0.388705 -0.20277
-0.779139 0.413295 0.428653
-0.797493 0.723218 0.397625
-0.807747 0.697329 -0.239977
0.798404 0.388728 -0.20277
0.807736 0.697327 -0.239977
0.797456 0.72337 0.397625
0.779147 0.413406 0.428653
-0.419079 0.162792 -0.184167
0.419039 0.162873 -0.184167
0.423026 0.162878 0.444167
-0.423059 0.162811 0.444167
-0.454234 1.09568 -0.258581
-0.438218 1.16791 0.382111
0.438501 1.1679 0.382111
0.454259 1.09568 -0.258581
-0.881537 0.416196 1.06008
-0.803499 0.495409 1.70024
-0.76639 0.782928 1.68157
-0.840071 0.738895 1.03523
0.881503 0.416284 1.06008
0.839891 0.739158 1.03523
0.766373 0.782961 1.68157
0.803465 0.495421 1.70024
-0.412711 0.176938 1.0725
0.412737 0.176923 1.0725
0.371487 0.243694 1.70918
-0.371462 0.243698 1.70918
-0.341247 1.1259 1.0228
-0.322045 0.949239 1.66058
0.322117 0.949223 1.66058
0.341626 1.12587 1.0228
-0.32751 0.556658 2.12477
0.327502 0.556658 2.12478
0.323327 0.802082 2.08637
-0.323334 0.802082 2.08643
-0.818342 0.2275 -1.76074
-0.626909 0.161153 -1.75885
-0.822466 0.181988 -1.59792
-0.647343 0.505 2.01883
-0.481279 0.434417 2.02558
-0.694383 0.388746 1.85792
-0.77936 0.6025 -1.8614
-0.56625 0.705814 -1.90112
-0.791995 0.718245 -1.70014
-0.618905 0.865 1.97955
-0.46875 0.930504 1.98934
-0.628541 0.912291 1.82367
0.626909 0.161139 -1.75886
0.817254 0.2275 -1.75965
0.822359 0.182095 -1.59792
0.481277 0.434324 2.02568
0.647351 0.505 2.01884
0.693866 0.389261 1.85792
0.56625 0.70581 -1.90112
0.779364 0.6025 -1.8614
0.79207 0.71832 -1.70014
0.46875 0.930501 1.98934
0.618833 0.865 1.97948
0.628524 0.912274 1.82367
-0.803051 0.222859 -0.655417
-0.803507 0.229556 -0.34125
-0.815275 0.296757 -0.508408
-0.625951 0.163032 -0.498333
-0.856266 0.205406 0.915417
-0.806165 0.248355 0.60125
-0.809883 0.327868 0.751349
-0.637765 0.163384 0.758334
-0.796182 0.819932 -0.7391
-0.801888 0.756221 -0.568853
-0.777934 0.834184 -0.418754
-0.6086 0.899172 -0.578927
-0.688532 0.874782 0.86263
-0.770476 0.815158 0.709441
-0.716746 0.870496 0.542284
-0.598845 1.09167 0.702457
0.803049 0.222861 -0.655417
0.625951 0.163032 -0.498333
0.803507 0.229555 -0.34125
0.815287 0.29674 -0.508408
0.856281 0.20539 0.915417
0.637765 0.163384 0.758334
0.806164 0.248354 0.60125
0.808943 0.328419 0.751349
0.796188 0.819938 -0.7391
0.608536 0.899143 -0.578927
0.801913 0.756194 -0.568853
0.778015 0.834265 -0.418754
[...]
POINT_DATA 3682
SCALARS point_scalars float 1
LOOKUP_TABLE default
-105.521
-29.0767
-71.7932
-33.4007
-104.673
-29.2698
-71.9185
-33.4376
-31.6336
-18.2592
-41.8726
-45.4188
-31.6257
-18.2606
-41.7849
-45.458
-17.692
-95.831
-31.3266
-39.0058
-39.2071
-28.5475
-27.808
-17.692
-95.831
-31.6714
-30.0969
-35.2576
-28.968
-28.3609
63.1254
-82.4201
-39.2731
-31.4266
-36.0945
-29.7022
-29.7022
-20.1808
-65.9
-40.7437
-48.1771
-35.2997
-33.3434
-33.3434
73.882
-113.439
-31.9135
-37.9282
-30.598
-27.1849
-25.8236
73.882
-26.8889
-26.5498
162.776
-27.4441
-26.5498
102.706
-68.0681
-37.8012
-54.2733
-32.888
-29.7204
-27.913
73.6539
-127.253
-31.9071
-36.0675
-30.4527
-27.0828
-25.797
73.6539
-26.8524
-26.4816
162.712
-27.4045
-26.4816
102.323
-68.8116
-32.7624
-54.2889
-32.5866
-29.676
-27.8814
-16.4342
-112.491
-31.3197
-38.98
-38.711
-28.4287
-27.7484
-16.4342
-95.6409
-31.6644
-30.0825
-35.2327
-28.9263
-28.3217
82.5236
-81.8924
-39.1786
-31.422
-37.0727
-29.6579
-29.6579
-20.3012
-65.9989
-40.716
-47.4654
-35.1959
-33.3009
-33.3009
-71.29
-82.6516
-50.4933
-30.2309
-25.6599
-44.4351
-70.5395
-56.211
-29.5503
-43.9398
-71.8011
-50.4984
-30.1851
-44.5148
-56.005
-43.9454
-29.4127
-33.1797
-35.1007
-25.0501
-37.7845
-47.4866
11.3014
-59.4942
-29.4252
-33.1669
-25.1381
-47.4597
-60.6358
-60.6116
-46.9109
-31.4286
194.42
-32.699
-32.7332
-32.6481
-85.1302
-52.047
-52.0773
-37.9323
-41.5058
-23.5878
-77.4537
-94.3933
-67.9436
-29.2489
-27.0068
-38.9842
-57.4125
-113.485
-64.4078
-31.2516
-29.6835
-36.7157
-94.4593
-77.6619
-67.9056
-26.939
-29.2039
-38.9476
-114.64
-57.5248
-64.3851
-29.6608
-31.2011
-36.8363
-35.876
-30.2369
-32.314
-34.5244
-42.5129
-27.3706
-19.4855
-37.0157
-37.8161
-36.4493
-49.7232
5.17543
-45.4472
-33.1668
-45.0858
-58.1468
-35.8484
-34.5415
-30.2441
-32.3045
-42.4741
-37.0127
-27.3921
-19.5608
-37.7993
5.17427
-36.4053
-49.6916
-45.5362
-58.1385
-33.2782
-45.0586
-81.9213
174.696
-60.9965
177.403
-57.8052
-48.6682
-40.3068
-26.6475
-35.6786
-21.7129
-51.3584
-39.3883
-50.2626
167.543
-61.7939
-35.0537
-34.2941
-25.6304
-53.9559
-41.8934
-81.884
174.657
-57.7645
-48.6306
-40.2305
-26.5704
-51.3281
-39.3724
-61.7903
-35.0707
-54.0032
-41.8947
-30.9758
-32.0101
-38.6596
-33.4675
-38.8499
-32.8425
-29.7591
-42.8626
-34.2508
-40.3137
-38.5771
-75.9471
-9.14673
-46.5075
-66.0943
-53.6487
-31.001
-32.0185
-38.6309
-33.4811
-29.7784
-42.8187
-38.6229
-75.9636
-78.3032
-37.4074
-39.2139
-81.4077
-78.1743
-81.3849
-39.213
-37.3824
-64.5345
-64.5281
-39.2772
-39.4156
-52.4426
-14.3858
-14.3864
-52.46
155.996
152.544
152.731
155.808
-31.7642
-27.8328
-35.5438
-39.0922
-31.775
-39.0842
-35.6254
-27.8504
-32.2842
-32.3007
-33.3795
-33.3764
-40.0284
-61.5242
-61.5206
-39.912
-42.8429
-40.6977
-40.7036
-36.9508
-42.7838
-37.2724
-40.6206
-40.6545
-40.3728
-40.3692
-36.8677
-36.8972
-51.6098
-34.6453
-34.637
-51.6116
-25.5169
-25.444
-27.0846
-27.1342
-60.9023
-110.369
-91.1545
-29.0999
-28.0689
-32.5533
-36.9121
-77.7658
-68.0677
-32.9154
-30.9151
-33.7769
-110.453
-60.006
-91.1684
-27.9265
-29.048
-32.507
-75.242
-36.9006
-68.0971
-30.8758
-32.9009
-33.7356
-32.3311
-30.6051
-31.7868
-33.4893
-41.0925
-25.2912
-18.3699
-36.5152
-34.7851
-40.2382
-50.2329
-10.2983
-46.5353
-38.3747
-44.0655
-53.2363
-32.3107
-33.4779
-30.603
-31.7792
-41.0659
-36.5088
-25.3199
-18.4073
-34.7511
-10.4299
-40.1721
-50.1577
-46.4591
-53.2216
-38.4465
-44.077
-75.6905
-65.3993
-92.4512
127.966
-86.0532
-85.8976
-70.2998
98.9933
-57.3024
-47.286
-55.6884
-49.1473
-29.6374
-30.6076
-34.6951
-27.4551
-26.1885
-26.1575
-30.1268
-21.7616
-50.9299
-47.0425
-50.3718
-40.95
-141.046
-141.028
-62.1564
130.217
-67.0484
-44.6485
-60.6127
-40.1633
-29.4951
-29.4848
-31.8741
-26.8423
-39.9851
-46.7302
-48.9665
-42.6362
-75.2318
-65.4585
-92.6304
127.932
-57.2212
-47.2208
-55.6355
-48.9834
-29.5936
-30.5585
-34.6281
-27.4175
-50.8877
-46.9922
-50.3462
-40.934
-67.1126
-44.6386
-60.5443
-40.1704
-39.9768
-46.7314
-48.9901
-42.6343
-29.8488
-28.6716
-30.2528
-31.0402
-32.6587
-34.2363
-34.0788
-33.4016
-34.8739
-34.8983
-36.7076
-33.7054
-22.0724
-29.3893
-27.0782
-23.7486
-37.6386
-37.6397
-35.8067
-40.9913
-48.5925
-46.5974
-42.1311
-59.6737
9.81199
9.82762
1.92329
-6.84511
-59.7623
-59.7653
-61.9153
-58.9214
-29.8592
-28.6849
-30.2746
-31.048
-32.6473
-34.2162
-34.0584
-33.3994
-22.1914
-29.4782
-27.1298
-23.7223
-48.5709
-46.5758
-42.1393
-59.6027
-71.8918
-59.5357
-61.3222
-48.418
-71.8642
-59.4995
-61.3124
-48.3915
-52.6409
-47.5751
-47.5882
-42.2486
-41.5725
-32.2508
-32.2673
-20.9253
193.054
177.155
176.44
193.092
-31.6378
-33.3742
-31.5207
-34.9405
-31.6644
-33.3994
-31.5537
-34.9852
-32.5035
-32.5401
-33.2038
-32.5129
-82.8028
-79.0326
-72.7194
-82.8197
-50.2015
-51.5766
-54.4415
-47.7433
-50.1713
-51.5626
-54.4919
-47.69
-36.5694
-38.3142
-38.324
-39.303
-37.3679
-41.5694
-41.5703
-46.7792
-24.8569
-21.936
-25.2917
-24.7779
-102.87
110.436
-77.1211
30.4067
-74.9467
-66.1153
-34.1117
-27.1255
-30.6608
-25.7034
-40.1213
-38.2389
-85.3748
106.345
-67.1073
156.426
-72.2513
-56.067
-36.3105
-28.1268
-31.9155
-27.8986
-40.8492
-35.4909
-77.1582
30.5048
-102.757
106.56
-74.854
-66.1055
-30.6881
-25.6367
-34.037
-27.0852
-40.0677
-38.2033
-67.1704
156.484
-85.3349
106.227
-72.1639
-56.0993
-31.9033
-27.8565
-36.2519
-28.0856
-40.6101
-35.4711
-36.57
-38.9276
-31.0181
-31.4573
-33.4376
-32.0024
-36.6243
-33.0353
-43.2049
-39.7231
-27.4008
-31.8516
-24.1867
-29.1052
-34.8869
-40.688
-40.3965
-21.4446
-35.335
-38.3622
-43.1943
-70.8852
-5.56257
-7.79797
-40.5953
-49.4756
-35.1519
-31.7484
-39.6455
-52.3139
-57.8488
-55.7968
-36.5452
-38.8579
-36.4983
-33.0523
-31.0278
-31.4654
-33.4189
-32.0013
-43.159
-39.7093
-34.8877
-40.6812
-27.4282
-31.8554
-24.2375
-29.1002
-40.3667
-21.4543
-5.54703
-7.44101
-35.286
-38.3326
-43.1631
-70.7063
-40.6595
-49.4921
-57.8383
-55.8016
-35.2564
-31.8782
-39.684
-52.3031
-81.8541
-80.7138
153.847
167.934
-62.0171
-62.0363
168.739
170.259
-66.4528
-47.3861
-55.6354
-43.3313
-40.6321
-40.2954
-25.6868
-27.4787
-35.777
-35.7841
-22.8178
-22.78
-47.7167
-50.3741
-39.9138
-38.7226
-50.8808
-50.8863
150.943
150.955
-47.1744
-74.7735
-44.1002
-25.2643
-34.3528
-34.3493
-26.1179
-26.169
-45.8196
-49.5058
-46.3765
-37.8181
-81.761
-80.7369
167.826
153.683
-66.4032
-47.3549
-55.6098
-43.284
-40.216
-40.5803
-25.609
-27.4396
-47.6659
-50.3163
-39.9052
-38.6932
-74.7748
-47.1343
-25.2557
-44.1199
-49.62
-45.7714
-37.8163
-46.3799
-31.5674
-29.901
-31.9591
-32.4393
-38.1093
-38.9331
-32.5572
-35.4776
-39.0384
-39.2509
-32.7108
-32.7209
-28.5999
-32.6269
-42.884
-38.3297
-34.0499
-34.0454
-40.3203
-40.3229
-37.6633
-39.1393
-68.9089
-69.0563
-10.5668
-10.5649
-45.0187
-44.8881
-65.1352
-65.1348
-53.0621
-53.0635
-31.583
-29.9172
-31.9708
-32.445
-39.0147
-38.0846
-32.569
-35.4912
-32.6888
-28.608
-42.8228
-38.7743
-39.1605
-37.7271
-69.0537
-68.8651
-96.8783
-63.922
-70.028
-93.0791
-32.928
-33.7667
-48.1734
-47.4616
-37.4432
-47.9534
-48.2329
-34.6527
-75.8381
-91.5672
-73.0293
-75.6129
-96.7106
-93.638
-69.9851
-63.8682
-75.9315
-75.6278
-73.018
-91.4628
-37.3959
-34.5701
-48.165
-47.9282
-32.9188
-47.4343
-48.146
-33.746
-83.8373
-72.3585
-53.9073
-56.2502
-83.8627
-56.2241
-53.9221
-72.4046
-35.5662
-36.6839
-42.6669
-43.5477
-35.609
-43.6001
-42.6721
-36.8237
-67.0231
-48.8135
-41.9015
-65.5927
-13.7476
-0.166085
-21.9862
-30.7423
-13.7883
-30.745
-21.9816
-0.153435
-67.1049
-65.6004
-41.9139
-48.8433
-70.1528
105.293
169.951
79.3083
103.79
153.869
163.482
138.168
103.37
138.019
163.36
153.858
-70.2113
77.7481
170.971
105.498
-31.2751
-30.7459
-32.2892
-32.5423
-24.2333
-24.9972
-30.4686
-29.2102
-40.7403
-41.2781
-33.9113
-31.0706
-42.895
-35.1904
-35.5694
-42.9053
-31.2767
-32.5415
-32.3106
-30.7594
-42.859
-42.8915
-35.5995
-35.1796
-40.7851
-31.1557
-33.9655
-41.3036
-24.2842
-29.2297
-30.49
-25.047
-32.1207
-33.4937
-32.3985
-31.1274
-32.1241
-31.1361
-32.4124
-33.5085
-33.1754
-35.5172
-33.0341
-31.2351
-33.1759
-31.2292
-33.0261
-35.5517
-39.6846
-65.7722
-74.9483
-6.84724
-46.7728
-61.1687
-72.1977
-55.1907
-46.7543
-55.1354
-72.1996
-61.1718
-39.7397
-6.88234
-74.9807
-65.8186
-31.3937
-46.6897
-47.5971
-27.0025
-33.6163
-34.3841
-49.9939
-51.4397
-36.3246
-44.2278
-47.5644
-35.5292
-39.8395
-27.2833
-48.4259
-47.6969
-31.3815
-26.9845
-47.5253
-46.6508
-39.937
-47.7203
-48.4439
-27.3592
-36.2793
-35.4618
-47.5231
-44.2566
-33.5524
-51.4186
-49.9318
-34.3113
-41.1411
-40.8614
-39.4732
-40.6649
-41.1288
-40.6503
-39.4755
-40.8601
-31.8533
-30.3812
-37.1821
-41.6476
-31.9558
-41.6723
-37.2584
-30.417
-49.5567
-46.9604
-46.5767
-58.0803
-32.4003
-31.8465
-37.4438
-38.9894
-32.3712
-38.9869
-37.4428
-31.8421
-49.5616
-58.0767
-46.5314
-46.9573
-27.2385
-23.0847
-23.0333
-27.1712
-27.1911
-27.1333
-22.9624
-23.0087
-28.8389
-26.9896
-26.0169
-28.0044
-28.8812
-28.041
-26.0566
-27.0174
-75.8432
-120.905
-128.313
-29.3446
-28.2061
-30.6577
-55.9276
-36.5949
-80.9577
-33.8668
-32.3395
-33.4188
-121.566
-74.6931
-128.583
-28.087
-29.3275
-30.6887
-36.3286
-55.8288
-80.9917
-32.2896
-33.9287
-33.3813
-32.5024
-30.9385
-31.6623
-32.6971
-23.3936
-23.2585
-17.9932
-32.2891
-35.2397
-43.4969
-51.3923
-23.3375
-45.2787
-42.5393
-44.7006
-47.0972
-32.4914
-32.6877
-30.9346
-31.6553
-23.3716
-32.2771
-23.2784
-18.0148
-35.2253
-23.5018
-43.4016
-51.2144
-45.356
-47.1389
-42.59
-44.6253
-71.6516
-64.1777
-93.5047
43.2762
-83.2041
-83.1193
-76.0087
69.5332
-53.1611
-46.2399
-54.5015
-48.6577
-29.8784
-30.4322
-32.3646
-28.2143
-25.8006
-25.7864
-26.9679
-23.257
-47.7718
-46.9083
-49.2148
-42.4261
-108.928
-108.981
-67.6252
-28.861
-65.2196
-50.1994
-60.9858
-46.3716
-29.488
-29.4944
-30.733
-27.2725
-41.7728
-45.4277
-47.1113
-43.3791
-72.456
-63.9428
-93.6629
43.2528
-53.1388
-46.1557
-54.4568
-48.6201
-29.834
-30.3866
-32.3054
-28.1749
-47.7816
-46.98
-49.1395
-42.4159
-65.2186
-50.1561
-61.1856
-46.3665
-41.7834
-45.4277
-47.1481
-43.4173
-29.734
-29.1619
-29.707
-29.8081
-32.8812
-33.6528
-33.3128
-33.2272
-35.0003
-34.9488
-35.9693
-34.2686
-23.6091
-26.6772
-25.7011
-23.575
-37.7584
-37.7598
-36.6686
-39.1529
-48.0697
-47.0474
-45.1255
-52.0321
10.7438
10.7536
9.45106
6.22037
-59.5179
-59.5159
-60.4764
-58.9844
-29.7458
-29.1753
-29.7241
-29.8166
-32.8688
-33.6381
-33.299
-33.2199
-23.7088
-26.7613
-25.7752
-23.6932
-48.0472
-47.0219
-45.1036
-52.0156
-66.8236
-60.1285
-60.7486
-53.8425
-66.7964
-60.0978
-60.7293
-53.8148
-49.6606
-47.0851
-47.0932
-44.5158
-36.8311
-31.5555
-31.5611
-26.4095
200.255
186.167
200.844
200.262
-32.1511
-33.121
-32.1746
-33.5604
-32.1812
-33.1504
-32.2078
-33.5978
-32.6215
-32.5283
-32.9019
-32.6275
-84.9956
-87.9615
-78.0043
-85.007
-53.3346
-51.6207
-53.1521
-49.0322
-53.3468
-51.6254
-53.2054
-49.0043
-37.307
-37.9532
-38.06
-38.5928
-39.2916
-41.5008
-41.5007
-44.0616
-23.6526
-21.7704
-24.6225
-23.6183
-69.6637
-79.4996
-93.1163
-15.8875
-102.731
-89.6346
-85.9043
-206.535
-77.2799
-61.6542
-73.0504
-66.0356
-29.1633
-29.425
-31.6013
-27.6789
-27.1573
-26.6098
-28.6042
-26.1945
-35.2283
-45.9985
-39.731
-38.8269
-54.8084
-56.5067
-95.765
53.4829
-120.906
-123.13
-85.2792
41.5174
-68.2237
-63.5999
-65.4711
-60.337
-31.8758
-30.7535
-35.6176
-29.0056
-30.0212
-29.5379
-30.6165
-28.3005
-35.3239
-38.2503
-40.2081
-35.8714
-102.792
-89.6612
-85.9689
-208.261
-68.6298
-78.7408
-94.7574
-14.3261
-77.2763
-61.5664
-72.9886
-66.015
-27.11
-26.5578
-28.5381
-26.129
-29.1155
-29.381
-31.5433
-27.6321
-35.1912
-45.9698
-39.677
-38.835
-120.472
-123.345
-85.2818
41.4425
-54.284
-56.6389
-96.2832
53.5022
-68.245
-63.5902
-65.4182
-60.3418
-29.992
-29.5221
-30.6008
-28.2622
-31.8384
-30.7039
-35.5631
-28.9614
-35.0853
-38.2614
-39.9795
-35.845
-33.5872
-43.5017
-36.1131
-37.782
-30.452
-30.1556
-30.5464
-30.3682
-32.1401
-32.4821
-32.7257
-32.0684
-34.1639
-34.6813
-35.5598
-33.658
-41.3323
-45.2042
-42.4787
-40.6739
-26.5936
-28.1488
-27.2153
-29.6003
-19.0522
-20.7779
-21.4463
-20.4366
-36.7082
-37.4123
-35.884
-38.6176
-35.371
-40.3194
-41.3282
-27.4738
-37.8599
-35.2588
-35.5478
-37.6147
-49.9505
-49.2784
-46.2025
-59.4831
-0.828714
8.32915
0.230652
3.14187
-45.7856
-45.5552
-44.4323
-47.3701
-34.8402
-31.6508
-34.5732
-32.2096
-44.5557
-46.1007
-42.9282
-47.5371
-58.0626
-59.4277
-58.0731
-57.4259
-33.5605
-43.4789
-36.0879
-37.7333
-34.1593
-34.7238
-35.5602
-33.6779
-30.4543
-30.1646
-30.5552
-30.3752
-32.1315
-32.4714
-32.711
-32.0642
-41.304
-45.1543
-42.4344
-40.649
-36.7044
-37.4117
-35.8827
-38.6126
-26.6186
-28.1652
-27.24
-29.6081
-19.116
-20.8277
-21.5243
-20.5084
-35.3525
-40.3022
-41.2864
-27.4884
-0.857599
8.34978
0.201478
3.01074
-37.8094
-35.2236
-35.5026
-37.5693
-49.9316
-49.2582
-46.1776
-59.481
-45.6832
-45.5394
-44.4919
-47.4574
-58.0177
-59.4305
-58.0771
-57.4279
-34.9554
-31.7492
-34.6708
-32.3177
-44.537
-46.072
-42.92
-47.5028
-88.9372
-76.5193
-82.3464
-81.09
159.442
184.186
165.37
177.818
-65.306
-56.3374
-61.2014
-61.202
177.568
167.439
176.983
177.155
-56.7802
-58.6292
-62.1071
-53.2047
-48.9911
-48.1536
-51.9747
-45.8745
-37.4013
-43.9021
-40.5422
-40.2787
-27.2289
-25.8137
-26.0096
-27.3188
-33.1179
-35.9193
-35.6307
-35.5884
-21.4486
-21.9232
-22.118
-22.0708
-50.7885
-51.5658
-48.8836
-51.6602
-40.2447
-38.7935
-39.5699
-39.2593
-54.2486
-45.85
-50.4724
-50.464
134.313
170.873
145.074
144.965
-61.538
-61.7762
-53.959
-68.9744
-37.0486
-33.5819
-39.6699
-30.5322
-32.9902
-35.7411
-34.3166
-34.3151
-26.065
-25.3253
-25.7397
-25.79
-51.1393
-55.3435
-49.6927
-53.4225
-42.2549
-41.702
-43.9214
-39.7069
-88.879
-76.4914
-82.2791
-81.0875
159.671
184.168
177.744
165.36
-56.7272
-58.5915
-62.0655
-53.1646
-48.9501
-48.1337
-51.9385
-45.8312
-37.3486
-43.8476
-40.1987
-40.48
-27.1864
-25.7217
-25.9304
-27.3202
-50.7595
-51.5395
-48.8403
-51.623
-40.2296
-38.7641
-39.5576
-39.238
-61.5272
-61.7818
-68.9257
-53.9632
-37.0614
-33.609
-30.5434
-39.6922
-51.1511
-55.4052
-53.5032
-49.6652
-42.2565
-41.7027
-39.7082
-43.9232
-30.7973
-31.2581
-31.3628
-30.5097
-31.6007
-32.2931
-31.928
-32.1918
-35.9541
-42.38
-38.3875
-38.7379
-33.4721
-33.5259
-33.0172
-34.2738
-37.3961
-40.3443
-38.8905
-39.0118
-33.1487
-32.5819
-32.8145
-32.8377
-28.5075
-30.7023
-29.1501
-30.7064
-32.7878
-46.8157
-43.1563
-40.8759
-34.8561
-33.7305
-34.1952
-34.192
-41.3652
-39.7738
-40.315
-40.3177
-40.1898
-36.9971
-38.1753
-38.9263
-70.8565
-80.6542
-74.1552
-74.5492
-3.17321
-14.8592
-9.38047
-9.3772
-22.5492
-65.8053
-45.8967
-45.8736
-63.6918
-69.0601
-65.866
-65.8672
-56.8391
-50.0496
-53.5071
-53.5075
-30.8241
-31.2843
-31.3873
-30.5317
-31.6084
-32.3029
-31.9378
-32.1988
-35.909
-42.3636
-38.7478
-38.364
-33.4783
-33.5457
-33.0296
-34.2883
-28.5475
-30.7233
-30.7405
-29.1616
-32.7405
-46.6265
-43.0919
-40.8611
-40.2198
-37.0479
-38.9566
-38.224
-70.8748
-80.668
-74.5668
-74.1417
-90.182
-76.991
-80.3758
-71.7448
-36.9556
-35.0406
-41.7595
-37.8685
-39.2904
-36.5801
-42.5362
-38.9078
-84.3977
-78.3741
-81.1324
-78.8993
-89.9832
-76.8724
-80.2694
-71.6781
-84.0359
-78.2762
-81.1499
-78.9464
-39.2766
-36.556
-42.4406
-38.98
-36.9311
-35.0186
-41.7323
-37.8438
-70.141
-65.614
-63.2687
-59.7359
-70.1551
-65.6063
-63.2703
-59.7177
-39.2001
-37.6297
-41.1266
-39.1982
-39.3198
-37.8968
-41.1652
-39.3941
-58.5476
-53.989
-51.3898
-48.7704
-17.3816
-9.20882
-20.0067
-12.6697
-17.3857
-9.20348
-20.0061
-12.6707
-58.5471
-54.0024
-51.4054
-48.7873
128.622
118.828
153.91
158.891
135.144
153.648
140.657
153.391
153.809
136.217
153.384
140.762
122.834
128.259
159.445
153.664
-31.6175
-31.9246
-31.6672
-32.1277
-27.8553
-26.4528
-29.0082
-28.0762
-35.2199
-36.7048
-34.7382
-36.8439
-38.8567
-40.8083
-37.3029
-39.1868
-31.6266
-31.9287
-31.6815
-32.1393
-38.8423
-40.7907
-37.3077
-39.1982
-35.3137
-36.783
-34.813
-36.9186
-27.8775
-26.4838
-29.0273
-28.0898
-31.9358
-32.6078
-32.0481
-32.5303
-32.6233
-31.9472
-32.5515
-32.0636
-34.0407
-32.7767
-33.782
-32.8635
-32.7736
-34.0391
-32.8594
-33.778
-46.4286
-22.2774
-58.3208
-43.1247
-57.4332
-59.2153
-64.6499
-63.7914
-59.2078
-57.4012
-63.7882
-64.6451
-22.2428
-46.3402
-43.7574
-58.2976
-43.3974
-37.0739
-47.4907
-42.9194
-36.7982
-40.464
-40.7739
-46.0242
-38.5008
-41.0793
-40.3693
-43.1355
-38.6279
-33.5063
-44.681
-35.9722
-43.3449
-37.0311
-47.4316
-42.8561
-38.7253
-33.6457
-43.7953
-36.6503
-38.4354
-40.9241
-40.2922
-43.05
-36.7322
-40.4175
-40.7292
-45.9981
-40.185
-41.1568
-40.0666
-40.3462
-40.1767
-41.1513
-40.0603
-40.3463
-33.7897
-37.6974
-36.2789
-38.5754
-33.8423
-37.738
-36.301
-38.6023
-51.2364
-54.0612
-49.0862
-52.1518
-33.208
-35.0828
-34.4406
-36.1528
-33.1977
-35.0643
-34.436
-36.1481
-51.2431
-54.0659
-49.0884
-52.1537
-26.6106
-25.5183
-25.454
-23.7521
-25.4506
-26.5538
-23.6807
-25.3785
-27.2317
-27.2881
-26.7562
-27.0776
-27.3355
-27.2791
-27.1284
-26.7988
-117.118
-60.2783
-100.427
-109.514
-93.3325
-86.2829
-31.3574
-27.6992
-29.3255
-27.385
-33.1462
-32.1605
-92.8898
75.7828
-79.7232
60.1565
-73.2353
-67.1793
-37.2708
-30.2774
-31.1421
-29.8948
-35.7383
-32.7335
-100.46
-109.554
-117.987
-59.5113
-93.2212
-86.3252
-29.2221
-27.3366
-31.2958
-27.66
-33.092
-32.2405
-80.2272
55.245
-93.1494
76.6212
-73.2578
-67.2804
-31.1107
-29.8495
-37.19
-30.2238
-35.644
-32.6992
-32.6369
-32.49
-30.9131
-30.834
-32.2888
-31.4544
-34.4024
-32.7043
-34.5814
-45.6497
-24.4687
-29.8632
-22.1792
-18.2455
-34.4199
-40.6066
-37.4272
-21.147
-38.4145
-42.1791
-46.1425
-60.8988
-11.5483
-16.4993
-45.4078
-45.1178
-39.0592
-38.1682
-42.4642
-46.3681
-46.7144
-50.9101
-32.6236
-32.4622
-34.3767
-32.7018
-30.9131
-30.8355
-32.2757
-31.4548
-34.5597
-45.6275
-34.4166
-40.5969
-24.5088
-29.8662
-22.2578
-18.1564
-37.3764
-21.1713
-11.5916
-16.622
-38.3574
-42.0943
-46.1155
-61.0542
-45.4264
-45.0576
-46.733
-50.8831
-39.1384
-38.2706
-42.5021
-46.3546
-91.6541
16.1415
-94.5246
60.2321
-92.3443
-92.2049
108.804
134.045
-78.5947
-84.8111
-78.558
-85.7052
-70.8901
-70.886
82.6055
86.0207
-62.1411
-55.8073
-47.4119
-44.6609
-59.7921
-52.0134
-52.421
-46.2235
-31.9819
-27.7159
-34.3914
-29.1983
-34.538
-35.0641
-27.2647
-27.7693
-27.3869
-24.176
-27.3515
-24.1344
-30.1606
-30.1821
-22.2001
-22.146
-52.7886
-45.4304
-47.2108
-41.809
-47.2894
-52.361
-40.3365
-42.3769
-77.3202
84.951
-77.336
84.6891
-63.2631
-63.2789
133.83
134.088
-75.0555
-54.1434
-47.4161
-36.0215
-53.7502
-71.3486
-44.5131
-35.5864
-30.6508
-27.5696
-30.6434
-27.5496
-31.8588
-31.8563
-26.8693
-26.8858
-42.5964
-39.4287
-46.8617
-46.5882
-46.6686
-49.2538
-44.8163
-41.0696
-92.2238
16.2153
-94.6397
60.3058
-92.7955
-92.2624
133.888
109.669
-62.082
-55.7682
-47.3588
-44.6104
-59.7487
-51.9425
-52.3895
-46.1783
-31.924
-27.6624
-34.3276
-29.1524
-34.9974
-34.4709
-27.2282
-27.7323
-52.7537
-45.3991
-47.1665
-41.7871
-47.2663
-52.3408
-40.3218
-42.3571
-75.113
-54.1813
-47.402
-36.026
-71.3202
-53.8107
-35.6014
-44.5284
-42.7109
-39.4246
-46.9049
-46.5968
-49.3273
-46.7103
-41.0447
-44.8142
-30.2623
-30.0261
-28.8112
-29.6068
-30.5238
-29.798
-31.0425
-31.128
-32.8806
-32.5197
-34.0473
-34.6441
-33.8883
-34.3788
-32.9092
-34.0739
-35.8155
-34.1411
-35.962
-34.1409
-36.6746
-36.694
-33.6026
-33.6241
-23.2713
-21.5238
-30.1396
-28.6812
-25.9453
-28.4399
-25.9417
-24.6287
-36.4946
-39.0239
-36.4966
-39.0235
-35.6768
-35.6971
-40.958
-40.9602
-45.7095
-55.0994
-43.9888
-49.4567
-41.5832
-42.5288
-63.1851
-57.3566
7.04535
5.38129
7.09815
5.39355
1.30717
1.31469
-6.80453
-6.80409
-60.0455
-59.5105
-60.0538
-59.5079
-61.7541
-61.755
-58.7623
-58.7646
-30.2754
-30.0342
-28.8272
-29.6153
-30.5471
-29.8182
-31.0509
-31.135
-32.8656
-32.5137
-34.027
-34.6277
-34.3187
-33.8684
-32.9087
-34.0689
-23.3465
-21.627
-30.2322
-28.7519
-28.5018
-25.9961
-25.9389
-24.6905
-45.6841
-55.0589
-43.9771
-49.4444
-42.5306
-41.5884
-57.3615
-63.1883
-70.9594
-72.4731
-65.2411
-53.6353
-54.0162
-67.9458
-48.477
-48.506
-70.9241
-72.4532
-65.2054
-53.6013
-67.9296
-54.0098
-48.4772
-48.45
-53.1135
-53.1093
-50.5638
-45.0132
-50.5922
-45.0271
-42.39
-42.4167
-41.5341
-41.5422
-37.3995
-27.3647
-27.3822
-37.4129
-21.1582
-21.1574
181.623