# vtk DataFile Version 2.0
tet_velo
ASCII
DATASET UNSTRUCTURED_GRID
POINTS 29498 float
-0.705 0.275 -2.0826
-0.813847 0.325 2.105
-0.715 0.685 -2.0265
-0.745 0.945 2.02095
0.705 0.275 -2.08316
0.813848 0.325 2.105
0.715 0.685 -2.0265
0.745 0.945 2.02095
-0.802686 0.230263 -0.686734
-0.860612 0.225286 0.709133
-0.846457 0.893124 -0.67735
-0.830814 0.954147 0.6718
0.802697 0.230252 -0.687107
0.860611 0.225287 0.708947
0.846465 0.893131 -0.67735
0.830025 0.953359 0.6718
-1.5143 -0.0898707 -3.18211
-1.51782 -0.0390515 -2.08411
-1.59632 -0.071603 -0.687018
-1.65312 -0.0934644 0.719467
-1.63776 -0.0325254 2.11735
-1.62941 0.0154585 3.21923
-1.63232 0.0537766 4.31395
-1.50826 0.184374 -3.17077
-1.51132 0.262714 -2.07788
-1.61094 0.255157 -0.689905
-1.66056 0.240001 0.70226
-1.61932 0.298021 2.09113
-1.61841 0.344487 3.19237
-1.62845 0.382254 4.28861
-1.5141 0.685565 -3.13503
-1.52492 0.761586 -2.04029
-1.63725 0.900556 -0.684177
-1.64309 0.942139 0.66862
-1.57649 0.950299 2.02564
-1.59677 0.993488 3.12882
-1.62218 1.03646 4.23261
-1.54556 1.58171 -3.11653
-1.56076 1.67595 -2.02875
-1.60886 1.82775 -0.687811
-1.63687 1.93159 0.64306
-1.63264 1.97428 1.98451
-1.63126 2.00078 3.07336
-1.63799 2.03312 4.17204
-0.741769 -0.0841147 -3.18526
-0.723065 -0.029425 -2.08864
-0.783396 -0.0834197 -0.686531
-0.836937 -0.104608 0.725316
-0.828609 -0.02048 2.12765
-0.824146 0.0237886 3.22621
-0.827701 0.0573399 4.31797
-0.740083 0.181443 -3.1718
-0.820048 0.353786 3.19812
-0.827339 0.385806 4.29164
-0.743185 0.65345 -3.12931
-0.802655 0.993936 3.12786
-0.825185 1.03718 4.23238
-0.754937 1.56033 -3.11088
-0.75854 1.6561 -2.02251
-0.797227 1.82344 -0.684061
-0.828367 1.93617 0.642562
-0.831575 1.97645 1.98122
-0.8319 2.00102 3.07008
-0.837689 2.03304 4.16964
0.753214 -0.0841427 -3.18562
0.762806 -0.0294426 -2.08909
0.820144 -0.0834537 -0.686868
0.847143 -0.104643 0.72513
0.814789 -0.0205056 2.12758
0.795786 0.023739 3.22615
0.785914 0.0572609 4.31789
0.731849 0.181423 -3.17215
0.783373 0.353747 3.19808
0.777686 0.385728 4.29158
0.737166 0.653428 -3.12949
0.758985 0.993871 3.12782
0.765163 1.03708 4.23232
0.805107 1.56026 -3.11101
0.821617 1.656 -2.02261
0.823984 1.82326 -0.684143
0.798024 1.93587 0.642495
0.772037 1.9762 1.98116
0.76459 2.00083 3.07001
0.76201 2.03287 4.16956
1.52013 -0.0899456 -3.18276
1.53447 -0.0391174 -2.08482
1.61546 -0.0717438 -0.687587
1.66513 -0.0936477 0.71912
1.63748 -0.0326383 2.11717
1.61138 0.0153237 3.21908
1.59744 0.0536 4.31378
1.4969 0.184314 -3.17138
1.5017 0.262674 -2.07858
1.60725 0.254993 -0.690446
1.66661 0.239722 0.701949
1.62627 0.29793 2.091
1.59746 0.344362 3.19225
1.58741 0.382077 4.28847
1.50452 0.685498 -3.13541
1.51614 0.761541 -2.04059
1.63101 0.900319 -0.684413
1.6437 0.941362 0.668468
1.57825 0.950053 2.02555
1.56738 0.993297 3.12872
1.57039 1.03623 4.23248
1.58573 1.58154 -3.11681
1.60727 1.67574 -2.02898
1.62715 1.82739 -0.688001
1.61206 1.93105 0.642903
1.58272 1.9738 1.98438
1.57059 2.0004 3.07322
1.56668 2.03279 4.17188
-0.726636 0.48 -2.07119
0 0.248102 -2.10978
-0.775766 0.230709 -1.38467
-0.822313 0.635 2.10587
5.06639e-07 0.322294 2.10771
-0.843092 0.26928 1.40707
0 0.740641 -2.08214
-0.845197 0.853531 -1.35193
0 1.04555 2.1215
-0.807718 0.969385 1.34638
0.726904 0.48 -2.07173
0.775469 0.231006 -1.38513
0.822279 0.635 2.10583
0.843408 0.268965 1.40697
0.845181 0.853515 -1.35193
0.807692 0.969359 1.34638
-0.828978 0.230446 0.0112
-0.898452 0.561693 -0.682042
5.40299e-06 0.229297 -0.68692
-0.896392 0.589717 0.690467
-1.52202e-08 0.222273 0.70904
-0.834881 0.919881 -0.00277495
3.88805e-06 1.10463 -0.67735
-0.00039421 1.35318 0.6718
0.828977 0.230447 0.01092
0.898463 0.561692 -0.682228
0.896393 0.589323 0.690374
0.834878 0.919878 -0.00277495
-0.867809 0.520847 -1.3683
-0.881453 0.575705 0.0042125
-0.893012 0.612358 1.37672
2.7015e-06 0.235595 -1.3849
2.69389e-06 0.229033 0.01106
2.4571e-07 0.271379 1.40702
0 0.48 -2.23313
2.5332e-07 0.635 2.20211
1.94402e-06 0.942613 -1.35193
-0.000195161 1.35924 -0.00277495
-0.000197105 1.20502 1.34638
0.866905 0.520846 -1.36853
0.881899 0.575507 0.00407255
0.893014 0.612161 1.37667
-1.10816 0.268857 -2.08024
-0.714033 0.122788 -2.08562
-0.722541 0.228221 -2.6272
-1.21658 0.31151 2.09807
-0.821228 0.15226 2.11632
-0.816948 0.339393 2.65156
-1.11996 0.723293 -2.03339
-0.729093 0.669225 -2.57791
-0.73677 1.17055 -2.0245
-1.16074 0.94765 2.02329
-0.773828 0.969468 2.5744
-0.788287 1.46073 2.00109
0.733903 0.122779 -2.08612
0.718425 0.228212 -2.62765
1.10335 0.268837 -2.08087
0.814319 0.152247 2.11629
0.798611 0.339374 2.65154
1.22006 0.311465 2.098
0.726083 0.669214 -2.57799
0.768309 1.1705 -2.02456
1.11557 0.723271 -2.03355
0.751993 0.969436 2.57439
0.758519 1.4606 2.00106
1.16163 0.947527 2.02325
-1.20681 0.24271 -0.688319
-0.793041 0.0734214 -0.686632
-1.26059 0.232644 0.705697
-0.848774 0.060339 0.717225
-1.24185 0.89684 -0.680763
-0.821842 1.35828 -0.680706
-1.23695 0.948143 0.67021
-0.82959 1.44516 0.657181
0.811421 0.0733992 -0.686987
1.20497 0.242623 -0.688776
0.853877 0.0603222 0.717038
1.26361 0.232504 0.705448
0.835224 1.3582 -0.680747
1.23874 0.896725 -0.680882
0.814024 1.44462 0.657148
1.23686 0.94736 0.670134
-1.51606 -0.0644611 -2.63311
-1.51128 0.0472519 -3.17644
-1.12803 -0.0869927 -3.18369
-1.55707 -0.0553273 -1.38556
-1.51457 0.111831 -2.08099
-1.12044 -0.0342382 -2.08637
-1.62472 -0.0825337 0.0162243
-1.60363 0.091777 -0.688462
-1.18986 -0.0775113 -0.686775
-1.64544 -0.0629949 1.41841
-1.65684 0.0732681 0.710864
-1.24503 -0.0990364 0.722391
-1.63359 -0.00853347 2.66829
-1.62854 0.132748 2.10424
-1.23318 -0.0265027 2.1225
-1.63087 0.0346175 3.76659
-1.62391 0.179973 3.2058
-1.22678 0.0196235 3.22272
-1.63039 0.218015 4.30128
-1.23001 0.0555583 4.31596
-1.50979 0.223544 -2.62432
-1.51118 0.434969 -3.1529
-1.12417 0.182909 -3.17128
-1.56113 0.258935 -1.38389
-1.51812 0.51215 -2.05908
-1.63575 0.247579 0.00617745
-1.6241 0.577856 -0.687041
-1.63994 0.269011 1.3967
-1.65182 0.59107 0.68544
-1.61886 0.321254 2.64175
-1.5979 0.62416 2.05838
-1.62343 0.363371 3.74049
-1.60759 0.668987 3.16059
-1.21923 0.349137 3.19524
-1.62532 0.709355 4.26061
-1.22789 0.38403 4.29013
-1.51951 0.723575 -2.58766
-1.52983 1.13364 -3.12578
-1.12864 0.669507 -3.13217
-1.58109 0.831071 -1.36223
-1.54284 1.21877 -2.03452
-1.64017 0.921347 -0.00777866
-1.62305 1.36415 -0.685994
-1.60979 0.946219 1.34713
-1.63998 1.43687 0.65584
-1.58663 0.971893 2.57723
-1.60457 1.46229 2.00508
-1.60948 1.01497 3.68071
-1.61402 1.49713 3.10109
-1.19971 0.993712 3.12834
-1.63008 1.53479 4.20233
-1.22368 1.03682 4.2325
-1.55316 1.62883 -2.57264
-1.15025 1.57102 -3.1137
-1.58481 1.75185 -1.35828
-1.15965 1.66602 -2.02563
-1.62287 1.87967 -0.0223756
-1.20304 1.8256 -0.685936
-1.63476 1.95294 1.31379
-1.23262 1.93388 0.642811
-1.63195 1.98753 2.52894
-1.23211 1.97536 1.98287
-1.63463 2.01695 3.6227
-1.23158 2.0009 3.07172
-1.23784 2.03308 4.17084
-0.732417 -0.0567699 -2.63695
-0.740926 0.0486641 -3.17853
0.00572279 -0.0841287 -3.18544
-0.753231 -0.0564223 -1.38758
0.0198703 -0.0294338 -2.08886
-0.810167 -0.094014 0.0193922
0.0183737 -0.0834367 -0.686699
-0.832773 -0.0625442 1.42648
0.00510279 -0.104626 0.725223
-0.826377 0.00165431 2.67693
-0.00690974 -0.0204928 2.12761
-0.825924 0.0405643 3.77209
-0.822097 0.188787 3.21216
-0.0141798 0.0237638 3.22618
-0.82752 0.221573 4.3048
-0.0208938 0.0573004 4.31793
-0.741634 0.417446 -3.15056
-0.00411689 0.181433 -3.17197
-0.823694 0.369796 3.74488
-0.811352 0.673861 3.16299
-0.0183375 0.353767 3.1981
-0.826262 0.711495 4.26201
-0.0248262 0.385767 4.29161
-0.749061 1.10689 -3.12009
-0.00300951 0.653439 -3.1294
-0.81392 1.01556 3.68012
-0.817278 1.49748 3.09897
-0.0218349 0.993904 3.12784
-0.831437 1.53511 4.20101
-0.0300106 1.03713 4.23235
-0.756738 1.60822 -2.56669
0.0250852 1.5603 -3.11094
-0.777884 1.73977 -1.35328
0.0315387 1.65605 -2.02256
-0.812797 1.87981 -0.0207496
0.0133783 1.82335 -0.684102
-0.829971 1.95631 1.31189
-0.0151717 1.93602 0.642529
-0.831738 1.98874 2.52565
-0.0297688 1.97633 1.98119
-0.834795 2.01703 3.61986
-0.0336554 2.00092 3.07004
-0.0378391 2.03296 4.1696
0.75801 -0.0567927 -2.63735
0.742532 0.0486404 -3.17888
1.13667 -0.0870442 -3.18419
0.791475 -0.0564481 -1.38798
1.14864 -0.03428 -2.08695
0.833643 -0.0940482 0.0191311
1.2178 -0.0775987 -0.687227
0.830966 -0.0625742 1.42636
1.25614 -0.0991452 0.722125
0.805288 0.00161669 2.67687
1.22613 -0.026572 2.12238
0.79085 0.0405 3.77202
0.78958 0.188743 3.21211
1.20358 0.0195314 3.22262
0.7818 0.221494 4.30473
1.19167 0.0554304 4.31584
0.734508 0.417426 -3.15082
1.11437 0.182869 -3.17176
0.78053 0.369738 3.74483
0.771179 0.673809 3.16295
1.19042 0.349055 3.19516
0.771425 0.711406 4.26195
1.18255 0.383902 4.29002
0.771137 1.10684 -3.12025
1.12084 0.669463 -3.13245
0.762074 1.01548 3.68007
0.761788 1.49735 3.09892
1.16318 0.993584 3.12827
0.763587 1.53498 4.20094
1.16778 1.03666 4.2324
0.813362 1.60813 -2.56681
1.19542 1.5709 -3.11391
0.822801 1.73963 -1.35338
1.21444 1.66587 -2.0258
0.811004 1.87957 -0.0208242
1.22557 1.82533 -0.686072
0.785031 1.95604 1.31183
1.20504 1.93346 0.642699
0.768314 1.98851 2.52559
1.17738 1.975 1.98277
0.7633 2.01685 3.61979
1.16759 2.00061 3.07162
1.16435 2.03283 4.17072
1.5273 -0.0645315 -2.63379
1.50851 0.0471844 -3.17707
1.57496 -0.0554306 -1.3862
1.51808 0.111778 -2.0817
1.64029 -0.0826957 0.0157668
1.61135 0.0916248 -0.689016
1.6513 -0.063143 1.41814
1.66587 0.0730369 0.710534
1.62443 -0.0086573 2.66813
1.63187 0.132646 2.10408
1.60441 0.0344619 3.76643
1.60442 0.179843 3.20567
1.59242 0.217838 4.30113
1.4993 0.223494 -2.62498
1.50071 0.434906 -3.15339
1.55447 0.258834 -1.38451
1.50892 0.512108 -2.05959
1.63693 0.247357 0.00575151
1.61913 0.577656 -0.687429
1.64644 0.268826 1.39647
1.65516 0.590542 0.685209
1.61186 0.321146 2.64162
1.60226 0.623992 2.05827
1.59243 0.36322 3.74036
1.58242 0.66883 3.16048
1.5789 0.709156 4.26048
1.51033 0.72352 -2.588
1.54512 1.13352 -3.12611
1.57358 0.83093 -1.3625
1.5617 1.21864 -2.03479
[...]
POINT_DATA 29498
VECTORS point_vectors float
-1.88808 -3.28688 4.50928
0.147001 0.367489 1.09772
-1.41659 1.11644 2.09939
0.0669984 -0.0679512 0.388827
1.87536 -3.30718 4.49967
-0.146462 0.36729 1.09869
1.45329 1.15745 2.1619
-0.0676365 -0.0676277 0.389643
-0.000498051 2.92843e-05 0.0270085
0.00265683 -0.00273667 0.302169
-0.262996 -0.11262 0.800386
0 0 0
0.000469722 2.29933e-05 0.0270396
-0.00272507 -0.00273273 0.302304
0.268521 -0.115686 0.812501
0 0 0
-0.575331 -0.250209 19.8313
-1.22448 -0.666571 20.4098
-0.52019 -0.424996 21.2395
0.0144731 -0.102852 21.4253
0.492726 0.184652 21.2865
0.670953 0.298564 20.9179
0.649036 0.137672 20.5034
-0.64049 -0.177873 19.7457
-1.65258 -0.523216 20.3371
-0.67926 -0.428617 21.307
-0.00316828 -0.138445 21.4676
0.631736 0.0752902 21.3689
0.860817 0.162119 20.7423
0.820187 0.0197332 20.7487
-0.706276 0.0296366 19.6833
-1.84646 0.0874543 20.2786
-1.06439 -0.144449 21.2583
-0.208189 -0.198861 21.5699
0.588097 -0.265414 21.4012
0.84535 -0.323051 20.9975
0.570494 -0.262891 20.798
-0.496285 0.311637 19.8922
-0.922782 0.57822 20.2872
-0.807263 0.402996 21.0309
-0.255528 0.0398024 21.3852
0.17417 -0.259252 21.2897
0.363147 -0.344347 21.0838
0.407147 -0.38232 20.648
-0.572326 -0.566513 19.2637
-1.90792 -3.58629 20.7387
-0.159573 -0.486466 21.3999
0.0705196 0.137491 21.0525
0.405046 1.06111 19.3465
0.710381 1.39313 18.1727
0.717772 0.711742 17.9269
-0.672193 -0.444756 19.0152
1.08923 1.66361 12.4973
1.34969 0.796174 14.746
-0.831464 0.0711326 18.7541
1.63072 -0.624899 12.287
1.3926 -0.550852 16.6487
-0.444327 0.625888 19.4701
-1.07172 1.68116 19.9673
-1.16137 1.43684 21.0889
-0.334961 0.237119 21.8809
0.172132 -0.477536 21.3883
0.309158 -0.711267 21.0548
0.141544 -0.452266 20.6884
0.574729 -0.552119 19.2711
1.95753 -3.33164 20.6764
0.163645 -0.508539 21.4796
-0.0751852 0.135803 21.0823
-0.377001 1.06193 19.3832
-0.651951 1.4492 18.0154
-0.713386 0.701653 17.3954
0.67144 -0.447767 19.0071
-0.908537 1.76047 10.9869
-1.37802 0.844238 13.4468
0.823737 0.0730586 18.7462
-1.6071 -0.624774 11.0577
-1.45247 -0.571842 15.3802
0.46125 0.602381 19.5006
1.0962 1.55877 19.9996
1.17245 1.39075 21.0902
0.334742 0.251008 21.9044
-0.158652 -0.490723 21.3997
-0.313877 -0.750918 21.119
-0.130486 -0.472803 20.8141
0.570479 -0.245826 19.8378
1.20836 -0.646997 20.4234
0.515154 -0.424795 21.2267
-0.0129457 -0.106384 21.4166
-0.492851 0.183544 21.2886
-0.685427 0.298371 20.9449
-0.682023 0.140217 20.4519
0.6444 -0.180921 19.7416
1.67682 -0.537181 20.3352
0.682474 -0.432991 21.313
0.00498679 -0.139177 21.4704
-0.625131 0.0702166 21.3689
-0.87674 0.164416 20.7641
-0.857781 0.0196361 20.692
0.707443 0.0307036 19.6845
1.86631 0.10006 20.2799
1.07382 -0.148417 21.2645
0.207866 -0.199971 21.5739
-0.588459 -0.262742 21.397
-0.883829 -0.322524 21.0389
-0.56391 -0.251516 20.8449
0.489198 0.304504 19.9092
0.892775 0.542937 20.3052
0.794153 0.392616 21.0269
0.263427 0.0390525 21.3996
-0.184148 -0.272076 21.2744
-0.371106 -0.335145 21.1446
-0.427989 -0.423641 20.6855
-0.855991 -0.198532 0.869279
5.40648e-05 -0.0139645 0.0812208
-0.00250685 -0.0169049 0.703901
0.00527194 -0.00270052 0.0288967
-4.15732e-05 0.00107128 0.008619
0.000693306 0.0421353 0.92163
0.000649088 0.130905 0.173561
-0.133231 -0.00333965 0.592316
-0.0005645 0.011983 -0.0138205
0.0713854 0.0121568 0.327976
0.838636 -0.17506 0.824529
0.000781806 -0.0162344 0.681526
-0.00536297 -0.00249763 0.0290725
0.00157392 0.0432632 0.950929
0.1361 -0.00491069 0.589997
-0.0720124 0.012556 0.329167
-0.00338485 0.000515021 0.171262
0.000242054 -0.00122364 0.0340566
-2.30481e-06 -1.82471e-05 0.00675499
0 0 0
-5.88656e-08 -2.82577e-06 0.000965081
0 0 0
-0.00343905 0.0269172 0.0755465
3.73897e-05 -0.000303559 0.00291181
0.00333835 0.000520661 0.167998
-0.000244585 -0.00126047 0.034599
0 0 0
0 0 0
3.67353e-18 3.92353e-18 -7.40322e-17
0 0 0
8.73201e-05 0.000830731 0.00630312
2.80601e-09 1.76494e-07 -1.36522e-05
4.58659e-10 5.73775e-09 -3.61153e-06
0 0 0
0.00326533 -0.810204 0.386672
0 0 0
0 0 0
0 0 0
7.14268e-06 -0.000191867 0.000840145
0 0 0
0 0 0
-8.36299e-05 0.000796991 0.00604984
-3.31211 -1.55651 20.112
-3.03498 -5.9422 21.033
-1.97203 -1.44172 17.8026
1.07001 0.39032 20.4525
0.255588 1.22334 13.3418
0.572728 1.19509 8.77015
-3.84257 0.52496 19.9367
-2.473 0.627096 17.0621
-2.49413 3.0502 19.4782
1.12056 -0.28096 19.6668
1.01303 -0.258375 8.02214
0.442192 -0.818007 20.6802
3.15961 -5.75947 20.8903
1.97118 -1.43789 17.79
3.35585 -1.58872 20.1123
-0.232075 1.206 13.205
-0.426598 1.16963 8.24863
-1.064 0.37979 20.4922
2.47112 0.639599 17.0459
2.51813 2.86491 19.53
3.87342 0.545254 19.9342
-0.908046 -0.254636 7.28859
-0.450341 -0.825059 20.478
-1.11622 -0.283351 19.6811
-0.729042 -0.850431 21.587
0.0932005 -0.241414 16.7359
0.0917096 -0.204845 21.5
0.0597516 0.16643 16.6335
-1.72607 -0.470257 21.5944
-2.647 1.71029 21.1697
-0.230444 -0.39376 21.3155
-0.543723 0.0788594 22.0549
-0.0852915 -0.282538 17.1317
0.730836 -0.854426 21.5803
-0.0609431 0.167808 16.7194
-0.0882566 -0.207741 21.5233
2.64017 1.66664 21.1689
1.74199 -0.479551 21.5933
0.531352 0.0847832 21.9554
0.230058 -0.398024 21.3058
-0.936369 -0.456875 19.9586
-0.618559 -0.220952 19.7949
-0.639602 -0.414261 19.5566
-0.91395 -0.578934 21.0195
-1.43968 -0.61217 20.3694
-1.8129 -1.59604 20.423
-0.229907 -0.262011 21.3589
-0.597108 -0.420107 21.2612
-0.412666 -0.620942 21.4564
0.277118 0.0590311 21.4252
0.00265433 -0.114039 21.4286
0.113692 -0.0592436 21.5684
0.614596 0.234314 21.1161
0.553199 0.142136 21.3113
0.685345 0.486419 21.354
0.636235 0.264926 20.9841
0.755261 0.24374 20.8396
0.959659 0.544689 20.8905
0.750497 0.110944 20.6145
0.652356 0.422575 21.4419
-1.15835 -0.335964 19.8218
-0.697764 -0.0848124 19.6789
-0.725992 -0.317228 19.4261
-1.21117 -0.536431 21.0817
-1.78183 -0.231842 20.3004
-0.316098 -0.290046 21.4126
-0.879454 -0.348432 21.2901
0.330081 -0.00943148 21.5045
-0.0865543 -0.210529 21.5389
0.810473 0.103812 21.181
0.672862 -0.0893451 21.4089
0.87033 0.0693367 21.3958
0.925076 -0.0636525 20.6678
1.42261 0.394034 19.8989
0.803646 -0.161648 20.7654
1.12564 0.452571 20.6985
-1.28076 0.0746556 19.7488
-0.647204 0.218458 19.7642
-0.849954 0.0509703 19.2873
-1.49177 -0.0376818 20.9798
-1.36576 0.502977 20.2487
-0.661398 -0.206663 21.4925
-1.05498 0.219216 21.1461
0.22587 -0.214133 21.5486
-0.289876 -0.04682 21.5158
0.744315 -0.289919 21.208
0.338435 -0.323996 21.2975
0.929854 -0.3836 20.7558
0.530242 -0.391136 21.0392
1.33398 -0.569548 20.2986
0.446481 -0.473933 20.8962
1.15445 -0.484595 19.9757
-0.717614 0.453701 20.0138
-0.529668 0.464686 19.6838
-0.930078 0.536143 20.6993
-1.1167 1.05992 20.1451
-0.568956 0.226628 21.3011
-1.05916 0.77171 21.1079
0.0030375 -0.136803 21.3643
-0.326727 0.105711 21.6107
0.269785 -0.354357 21.098
0.171302 -0.387428 21.3276
0.282759 -0.339592 20.9619
0.338109 -0.501267 20.9601
0.247123 -0.369574 20.6322
-1.29761 -1.63407 18.9144
-0.608427 -0.514748 19.1606
0.00268023 -0.797792 18.9218
-0.535356 -1.15213 21.8369
0.0505206 -4.95998 21.5688
-0.0493801 -0.149377 21.0545
0.0100491 -0.548813 19.8243
0.285424 0.598206 20.1579
-0.0018911 -0.0256565 18.7221
0.526424 1.25016 19.1815
-0.00473521 0.582414 15.833
0.670443 1.12888 18.9433
0.821407 1.77575 15.1472
-0.0342173 0.930029 15.3027
0.985996 0.727095 15.413
0.0690872 1.28549 15.5416
-0.81439 -0.167485 18.8007
-0.00240667 -0.616882 18.5668
1.30916 1.05511 13.0821
1.88401 0.450332 8.38635
-0.0277754 -0.0927365 0.105205
1.58613 0.263598 14.162
0.0871686 -0.0395918 5.27798
-0.679445 0.526035 19.0623
-0.0018903 0.121577 18.1372
1.53222 -0.696056 14.5285
0.54229 -1.07152 20.7901
0.137663 -0.224688 -1.12314
0.420177 -0.87274 20.3162
0.0439694 -2.09919 3.84662
-0.774678 1.17877 19.4959
0.0131375 0.826768 19.2278
-1.12945 1.58235 20.6071
0.0624911 2.43749 19.7489
-0.908742 0.97853 21.7503
0.0210318 2.54696 20.9481
0.012035 -0.236425 21.6862
-0.0151206 0.454084 22.2292
0.233622 -0.58985 21.2326
-0.000589911 -0.558982 21.584
0.326031 -0.691199 21.0041
0.00373851 -0.962684 20.8999
0.0203327 -1.00863 20.4016
1.30689 -1.58616 18.9506
0.609134 -0.509609 19.159
0.636361 -0.412152 19.5611
0.558522 -1.16684 21.8062
1.7703 -1.48354 20.4046
0.045749 -0.15868 21.0815
0.426598 -0.608619 21.4357
-0.285572 0.600146 20.1494
-0.111149 -0.0601777 21.5637
-0.478461 1.24369 19.1996
-0.684199 0.492468 21.3336
-0.638656 1.1475 18.7315
-0.760208 1.82736 14.948
-0.973171 0.554836 20.8888
-0.95993 0.770842 14.852
-0.647633 0.481794 21.496
0.808362 -0.165781 18.7904
0.729429 -0.318082 19.4144
-1.28165 1.10365 12.0343
-1.68663 0.566684 6.73358
-1.4993 0.4514 19.3416
-1.62356 0.322768 12.6299
-1.15954 0.496204 20.0761
0.691902 0.514673 19.0894
0.84997 0.0511714 19.2811
-1.51161 -0.730339 13.266
-0.528133 -1.13243 20.7139
-1.36444 -0.581317 19.9866
-0.431153 -0.88994 20.324
-1.26491 -0.526545 19.8301
0.795927 1.11159 19.544
0.524479 0.444129 19.7098
1.15305 1.49816 20.6089
1.08869 0.961462 20.1772
0.911315 0.987687 21.7524
1.0422 0.746611 21.1007
-0.0151 -0.245374 21.7036
0.327785 0.114749 21.6328
-0.218902 -0.603243 21.2492
-0.179971 -0.393861 21.3435
-0.316381 -0.720541 20.9789
-0.331331 -0.520852 20.9279
-0.189447 -0.36787 20.6291
0.927575 -0.449892 19.9743
0.620064 -0.220321 19.7941
0.918283 -0.580744 21.006
1.43297 -0.609326 20.3776
0.229785 -0.263569 21.3537
0.596514 -0.421324 21.2557
-0.276955 0.0575265 21.434
0.00015322 -0.116809 21.4271
-0.619935 0.24814 21.1155
-0.549515 0.140458 21.3131
-0.663541 0.259349 20.9349
-0.77001 0.247917 20.8674
-0.793936 0.110761 20.5635
1.172 -0.344251 19.8108
0.700975 -0.0883399 19.6787
1.21688 -0.5432 21.0884
1.82419 -0.240008 20.3031
0.317395 -0.292732 21.4141
0.885313 -0.357788 21.2989
-0.327909 -0.0144107 21.4951
0.0872309 -0.211807 21.54
-0.81659 0.106053 21.1861
-0.666114 -0.0862655 21.4109
-0.903988 0.0683694 21.3577
-0.960473 -0.0712733 20.7054
-0.801497 -0.15322 20.8177
1.28668 0.0760952 19.743
0.644749 0.213222 19.7778
1.49904 -0.0383595 20.985
1.33957 0.486076 20.2594
0.663071 -0.207513 21.4971
1.05009 0.218382 21.1432
-0.22843 -0.211461 21.5471
0.29218 -0.0483122 21.5238
-0.757466 -0.292445 21.1952
-0.364717 -0.340719 21.3069
-0.926044 -0.381539 20.7845
-0.557346 -0.398249 21.0885
-0.479161 -0.521103 20.9266
0.707491 0.437699 20.0292
0.909213 0.514988 20.6956
0.573524 0.227385 21.3019
-0.00155394 -0.139373 21.3731
-0.273403 -0.350626 21.1069
-0.282329 -0.349969 20.9608
-1.04276 -0.414246 19.8861
-1.55637 -1.61847 18.4193
-1.25394 -0.936753 19.5402
-1.68685 -0.733876 19.1459
-0.680817 -0.388864 19.5056
-2.46737 -1.71898 20.2994
-1.04243 -0.573447 21.0493
-0.208828 -0.62214 17.5035
-0.930359 -1.05479 21.3794
-1.55874 -1.24871 21.6797
-0.518638 -0.761903 21.541
-0.268247 -0.267291 21.3773
-0.00615028 -0.00457908 16.2196
-0.131753 -0.323473 21.5135
-0.249884 -0.478122 21.2571
0.121696 -0.127868 21.5685
0.28984 0.0495816 21.4541
0.324411 0.583583 14.2511
0.400255 0.210516 21.5192
0.507449 0.0929274 20.8528
0.900449 0.477142 21.0184
0.726902 0.177723 21.1908
0.480801 1.3861 14.267
0.824508 0.591327 21.0578
1.27782 0.462246 20.217
1.12045 0.480775 21.0497
0.755283 0.166996 21.1908
1.00674 1.12132 14.5586
1.04767 0.502534 20.3056
1.48597 0.347489 18.8425
0.765673 0.387253 21.4377
-1.26172 -0.154195 19.7619
-2.42307 -0.530713 17.1229
-1.98179 0.25279 18.9442
-0.843375 -0.117865 19.2853
-4.09192 -0.574911 19.9361
-1.40518 -0.332219 21.0529
-2.40036 -0.0858986 21.3966
-1.16466 -0.727229 21.6844
-0.465181 -0.306373 21.4581
-1.01441 -0.577049 21.5785
0.0165982 -0.264449 21.0716
0.310063 -0.118848 21.5566
0.511424 -0.209507 20.5215
1.1977 0.137308 19.4827
0.855533 -0.0826896 21.2303
0.49567 0.463266 4.64744
1.25746 -0.455016 20.0447
1.58278 0.0251661 19.6955
0.919569 -0.130107 21.4284
1.8483 0.26721 10.6524
1.30119 -0.506099 20.1597
1.33642 -0.107296 20.0354
-1.03812 0.389831 19.8636
-1.49279 1.47428 18.5839
-0.853025 0.789341 19.775
-0.734086 0.359028 19.4337
-2.05674 1.23758 19.9989
-1.30419 0.387439 20.8017
-2.29377 2.0286 20.8397
-1.14815 0.969721 20.6843
-1.69058 0.543967 21.2601
-0.709097 0.075054 21.4284
-2.06924 0.959045 22.2973
-0.767699 0.491757 21.4791
-0.439821 -0.0422411 21.8857
0.0961955 -0.200023 21.4747
0.243745 -0.527445 21.2377
-0.0052256 -0.194741 21.5271
0.420167 -0.552772 21.4827
0.478726 -0.386044 21.1961
0.487775 -0.944013 20.8542
0.272479 -0.455335 21.1894
0.671121 -0.690173 21.1216
0.518885 -0.361328 20.7336
0.575486 -1.03525 20.4972
0.352299 -0.486677 21.0559
0.401159 -0.653927 20.5715
1.5619 -1.5909 18.4503
0.0199254 -2.63988 18.1282
-0.0038142 -2.56939 15.8696
0.00175776 -0.765894 18.774
0.0393989 -7.3353 23.2542
0.226046 -0.688671 17.9294
0.0275271 -1.32707 21.089
-0.00942637 -0.136508 10.9158
0.00816625 -0.00748089 16.4693
-0.000710984 -0.268427 18.7806
-0.00173047 -0.0101867 11.0293
-0.324812 0.582427 14.243
-0.000791337 0.436458 16.8397
-0.0139512 0.351638 7.31974
-0.407266 1.37521 14.0046
-0.0297126 0.433838 15.5108
-0.0551031 -1.01165 -1.76921
-0.037161 0.731485 7.3573
-0.975301 1.14884 14.1735
-0.0196621 1.2022 14.7352
-0.0331031 -0.088732 0.786797
0.0786143 1.16036 12.1505
2.42336 -0.528422 17.108
-0.00180705 1.49794 14.6482
-0.00214552 -0.226405 18.1907
-0.38138 0.48133 4.08296
-0.0084376 0.30609 -0.295085
0.131837 -0.976711 -4.71959
-1.81382 0.312166 9.51026
0.112616 -1.1215 1.15272
0.0930014 -1.23166 2.09271
1.50545 1.42456 18.64
0.030877 1.64755 19.1698
0.00841547 0.753132 18.6249
0.106658 4.93354 18.9703
2.28159 1.9381 20.8199
0.051378 2.38472 20.4628
0.00203571 4.49921 19.9253
2.08393 0.965706 22.3182
-0.00794214 1.97257 22.1704
-0.0122901 0.108026 18.3518
-0.259892 -0.536696 21.0695
-0.00625958 -0.277424 21.8559
0.0144406 -0.80114 14.4727
-0.518995 -0.928026 20.3507
-5.81303e-05 -0.717151 21.3445
0.0489423 -1.1456 17.1885
-0.553242 -1.07825 20.3684
0.0156182 -0.645271 21.1635
0.0201092 -0.739134 18.3361
1.03712 -0.411849 19.8969
1.2425 -0.91018 19.5586
1.70511 -0.742447 19.1246
0.682545 -0.390707 19.5004
2.41703 -1.66835 20.3058
1.04167 -0.575074 21.0415
0.945909 -1.01971 21.3423
1.55901 -1.2561 21.6843
0.53164 -0.747325 21.5359
0.267121 -0.268083 21.3782
0.135696 -0.321294 21.5052
0.250755 -0.478662 21.2671
-0.115271 -0.130485 21.5811
-0.288343 0.0425234 21.4497
-0.397624 0.20894 21.5194
-0.504235 0.0850185 20.9082
-0.896819 0.477437 21.0034
-0.729138 0.178503 21.1834
-0.815769 0.615249 21.0304
-1.29007 0.479957 20.1315
-1.14216 0.508104 20.931
-0.786156 0.163829 21.1476
-1.03202 0.573452 20.3668
-1.53081 0.429016 18.4329
-0.794714 0.418086 20.8293
1.27646 -0.161998 19.7554
1.99141 0.260832 18.9304
0.847879 -0.117285 19.2785
4.14936 -0.576469 19.9318
1.41796 -0.338606 21.0616
2.4129 -0.0916178 21.3933
1.16785 -0.737155 21.6787
0.464555 -0.309636 21.4655
1.01716 -0.586597 21.5514
-0.0147292 -0.269593 21.1066
-0.313199 -0.120678 21.5575
-0.510108 -0.213147 20.5241
-1.19226 0.130426 19.5276
-0.862168 -0.0820482 21.2373
-1.28284 -0.438801 19.8184
-1.6627 0.0905269 19.0802
-0.922702 -0.125316 21.4755
-1.35821 -0.520031 20.0135
-1.39889 -0.0311661 19.6841
1.02881 0.381456 19.8813
0.848781 0.738878 19.8153
0.731959 0.350193 19.4517
2.01504 1.16918 20.0216
1.28839 0.381068 20.7961
1.13116 0.918465 20.6821
1.68015 0.534609 21.2528
0.715281 0.0739052 21.4297
0.771914 0.497395 21.4796
0.447561 -0.0405429 21.9028
-0.0966837 -0.20775 21.4832
0.000333478 -0.199037 21.5427
-0.418412 -0.569539 21.4927
-0.486828 -0.395906 21.194
-0.272533 -0.480993 21.1954
-0.621968 -0.719463 21.1905
-0.528232 -0.407584 20.7691
-0.370682 -0.5152 21.0563
-0.378954 -0.675203 20.5148
-1.4113 -0.873119 19.4007
-1.17444 -1.19901 21.5042
-0.161773 -0.417658 21.5523
0.485226 0.161063 21.3399
1.06783 0.61159 20.8648
1.29528 0.398199 19.9888
-1.96648 -0.262391 18.9105
-2.1687 -0.735394 21.7309
-0.471317 -0.554773 21.2502
0.534069 0.0161267 20.2708
1.43494 0.0443331 19.8944
1.38438 0.0511895 19.396
-1.39412 0.798013 19.3501
-1.89956 0.875294 20.8705
-1.20402 0.235838 21.7534
0.130882 -0.328046 21.7251
0.550884 -0.651182 21.2535
0.641948 -0.65239 21.0035
0.0167939 -2.67369 17.2554
-0.00639422 -0.392741 11.4213
-0.00428725 -0.0803223 10.5798
-0.00136662 0.412467 8.87821
-0.0514638 -0.0877046 6.76199
-0.0276888 0.568332 7.37178
-0.00401785 -0.699151 14.6039
0.0142682 -0.729969 -3.71427
0.147225 -0.43936 -0.752925
0.0313757 2.39884 17.6422
0.0616281 3.66315 20.606
-0.0352846 3.03661 20.7896
0.0143807 -0.71607 15.3189
0.0194887 -0.87537 15.5337
0.0391736 -1.41512 17.3057
1.40783 -0.863422 19.4056
1.18817 -1.17651 21.4791
0.171818 -0.414679 21.5557
-0.480925 0.156389 21.3596
-1.07775 0.622811 20.841
-1.28845 0.515736 19.7922
1.98113 -0.261162 18.8935
2.17245 -0.742862 21.7423
0.469375 -0.559337 21.2471
-0.532666 0.00730013 20.3218
-1.45264 0.0752075 19.634
-1.45127 0.11277 18.8939
1.38161 0.770515 19.3805
1.86453 0.844656 20.8573
1.21179 0.23873 21.7559
-0.132049 -0.337608 21.7402
-0.550177 -0.674917 21.2738
-0.660546 -0.707181 21.0579
-2.43359 -0.725156 1.95956
0.00165477 -0.273597 0.928353
-0.0148606 -0.026325 0.50946
0.00629496 -0.00372316 0.0206328
-0.0012273 0.000787263 0.00622958
-0.00665558 0.119848 1.26146
-2.11402 0.12405 2.58165
-0.0121168 0.0506293 0.0675893
-0.514747 0.0432904 1.72266
0.0145019 -0.00571462 0.0434409
-0.0367162 -0.0113151 0.087996
0.0431277 0.0050152 0.303506
-0.00132728 -0.278665 0.948065
2.29579 -0.626474 1.82476
0.0155073 -0.0265328 0.524651
0.00121926 0.000784573 0.00621167
-0.0058209 -0.00370728 0.0199492
0.00647686 0.118947 1.25195
0.0121321 0.0511827 0.0681702
2.22373 0.159753 2.67698
0.514181 0.0441767 1.7227
0.0349994 -0.00982328 0.0852632
-0.0136894 -0.00529132 0.0409074
-0.0435564 0.00523093 0.303885
0.0245526 -0.00788736 0.416519
-0.00518816 0.00290626 0.181797
0 0 0
0 0 0
0.0185346 0.0306128 0.443815
-0.0112181 0.00102929 0.468614
0 0 0
0 0 0
-0.182769 -0.099838 0.883163
1.75894e-06 1.83858e-05 -0.000245473
-0.00074565 6.86861e-05 0.0130298
-0.0504106 0.0221182 0.0794768
0.0335011 0.0291446 0.139155
-5.80918e-07 -1.30659e-05 -6.10504e-05
0 0 0
0.0138958 -0.00191827 0.0619579
-0.0253902 -0.00806566 0.421553
0 0 0
0.00536141 0.0032063 0.188268
0 0 0
-0.0192088 0.0312735 0.456391
0 0 0
0.0116334 0.000967517 0.476045
0 0 0
0.185437 -0.101664 0.877989
0.0537069 0.0265514 0.0903958
0 0 0
0.0013165 0.000163614 0.0241452
-0.0333419 0.0289738 0.137681
-0.0140613 -0.0019168 0.0626761
-1.98001e-06 4.52299e-05 0.000209418
0 0 0
0 0 0
-0.444846 -0.0800533 0.23085
-4.94638e-09 1.14841e-06 -4.33214e-05
0.00432889 -0.901916 0.192123
0 0 0
0.00160137 -0.000161589 0.0276812
0.00119805 0.00147246 0.014475
-0.134554 0.0397615 -0.00193414
0 0 0
0 0 0
0.000268359 0.0030428 0.0294237
0 0 0
0.000531378 0.302792 0.267019
0.00017674 0.000673026 0.002643
0 0 0
0 0 0
0 0 0
0 0 0
0.00430603 0.0183658 0.0916492
0.00647675 -0.0013811 0.0173865
0.470813 -0.0870308 0.24647
0.0182505 -0.0194857 0.159793
-0.00161052 -0.000159994 0.0273883
0.00176539 -0.00226606 0.0420366
0.134583 0.0404834 -0.00217617
-0.00119816 0.00148608 0.0144802
9.21477e-06 -1.68664e-05 -0.000237766
-0.000288393 0.00322005 0.0311096
0.00857049 0.0050394 0.050352
0 0 0
-0.00639063 -0.00135432 0.0171297
-0.00471339 0.0201846 0.100262
9.7343e-08 -6.53844e-06 -0.000105786
-8.03122e-07 3.00749e-08 -3.01025e-05
-0.00200929 -0.00228132 0.0617562
0 0 0
0 0 0
1.59213e-09 8.6376e-09 -7.89868e-06
0 0 0
1.45474e-05 0.000141191 0.00111216
6.94315e-11 1.38578e-09 -8.1867e-07
2.76629e-09 -2.34802e-06 -3.44825e-05
4.89715e-05 0.00108946 0.0063562
-0.0834843 0.127368 1.03206
-0.000720505 2.06759e-05 0.00150296
0 0 0
0.000154767 0.00125006 0.0770876
7.05883e-05 -0.00360612 0.0262337
6.20261e-07 2.31689e-08 -2.30433e-05
-1.06111e-07 -7.35497e-06 -0.000117296
0.00135286 -0.00160164 0.0392711
0 0 0
0 0 0
-1.51415e-05 0.000147701 0.00115866
0.0813064 0.130115 1.04576
-3.42759e-05 0.000889489 0.00514465
-0.00582126 -0.00471047 0.0414768
-0.0410608 -0.0183872 0.231698
-0.000412492 -0.000194055 0.0111213
-0.00160715 -0.00314128 0.0373255
0 0 0
3.34431e-06 0.00109678 0.0281147
0 0 0
7.02403e-05 0.00320426 0.015615
0.00045562 0.00196774 0.0324129
0 0 0
0 0 0
0.00682256 0.00545501 0.0551543