# vtk DataFile Version 2.0
tet_velo
ASCII
DATASET UNSTRUCTURED_GRID
POINTS 29498 float
-0.75236 0.055 -1.705
-0.786067 0.165 1.775
-0.679398 0.595 -1.725
-0.733447 0.815 1.745
0.752357 0.055 -1.705
0.786066 0.165 1.775
0.679394 0.595 -1.725
0.733443 0.815 1.745
-0.766679 0.0885837 -0.545
-0.799665 0.1035 0.615
-0.806113 0.777032 -0.568333
-0.789032 0.815268 0.588333
0.766467 0.0887933 -0.545
0.79956 0.103603 0.615
0.80611 0.777033 -0.568333
0.788955 0.815195 0.588333
-1.53782 -0.333075 -2.61977
-1.53059 -0.265495 -1.69311
-1.54566 -0.234055 -0.53302
-1.56528 -0.224893 0.627737
-1.56069 -0.182306 1.78788
-1.55846 -0.146937 2.71482
-1.56024 -0.113467 3.64125
-1.52954 -0.0280751 -2.63097
-1.52368 0.0555058 -1.70467
-1.55184 0.104028 -0.545231
-1.56908 0.113134 0.614506
-1.55184 0.152525 1.77401
-1.55384 0.187151 2.7009
-1.55922 0.22084 3.62744
-1.50016 0.564242 -2.65243
-1.48478 0.646935 -1.72599
-1.56808 0.779579 -0.568827
-1.56325 0.81213 0.588102
-1.52164 0.821501 1.74533
-1.53852 0.85468 2.67236
-1.55501 0.891954 3.59944
-1.49417 1.55129 -2.68713
-1.49485 1.64117 -1.76119
-1.53152 1.76468 -0.605105
-1.55616 1.83755 0.550261
-1.55534 1.86708 1.70638
-1.55548 1.88964 2.63239
-1.56011 1.91936 3.5591
-0.779309 -0.33462 -2.61999
-0.759991 -0.265086 -1.69342
-0.765352 -0.241589 -0.532978
-0.786099 -0.23209 0.628158
-0.786147 -0.177543 1.78862
-0.786262 -0.144375 2.71532
-0.788225 -0.113392 3.64154
-0.778629 -0.0351662 -2.63104
-0.787205 0.190008 2.70131
-0.789827 0.220667 3.62766
-0.751911 0.540445 -2.65202
-0.774663 0.852137 2.6723
-0.788625 0.889933 3.59942
-0.72964 1.53699 -2.68672
-0.721272 1.62878 -1.76074
-0.752805 1.76278 -0.604834
-0.781658 1.83932 0.550229
-0.786188 1.86621 1.70615
-0.787422 1.88756 2.63216
-0.79129 1.91736 3.55894
0.730866 -0.334588 -2.61999
0.759107 -0.265037 -1.69342
0.777558 -0.241437 -0.532978
0.79614 -0.231994 0.628158
0.785459 -0.177512 1.78862
0.769324 -0.144349 2.71532
0.761029 -0.113362 3.64154
0.713252 -0.0351489 -2.63104
0.759149 0.190024 2.70131
0.754057 0.220692 3.62766
0.699911 0.540455 -2.65202
0.740548 0.852147 2.6723
0.744671 0.889951 3.59942
0.779714 1.53701 -2.68672
0.799917 1.6288 -1.76074
0.800699 1.76279 -0.604834
0.775237 1.83932 0.550229
0.754554 1.86621 1.70615
0.748685 1.88758 2.63216
0.747178 1.91737 3.55894
1.49501 -0.333001 -2.61977
1.52347 -0.265386 -1.69311
1.55302 -0.233838 -0.53302
1.57579 -0.224732 0.627737
1.56576 -0.182225 1.78788
1.54895 -0.146874 2.71482
1.5387 -0.113405 3.64125
1.47851 -0.0280237 -2.63097
1.51405 0.0555716 -1.70467
1.55151 0.104238 -0.545231
1.57436 0.113274 0.614506
1.5571 0.152587 1.77401
1.53845 0.187199 2.7009
1.53087 0.220894 3.62744
1.46377 0.564274 -2.65243
1.48346 0.646958 -1.72599
1.5703 0.779638 -0.568827
1.56573 0.812136 0.588102
1.52275 0.821527 1.74533
1.51625 0.854712 2.67236
1.51852 0.891996 3.59944
1.53713 1.55133 -2.68713
1.55882 1.64121 -1.76119
1.57259 1.76471 -0.605105
1.55508 1.83756 0.550261
1.53153 1.8671 1.70638
1.52258 1.88966 2.63239
1.52031 1.9194 3.5591
-0.74502 0.325 -1.74414
-1.49012e-06 0.0497914 -1.71021
-0.768186 0.063125 -1.125
-0.762924 0.49 1.76317
-5.06639e-07 0.197947 1.74205
-0.802856 0.12426 1.195
-1.99676e-06 0.657897 -1.7879
-0.792715 0.735975 -1.14667
-1.99676e-06 0.911348 1.84135
-0.786185 0.84008 1.16667
0.745003 0.325 -1.74413
0.768079 0.0632298 -1.125
0.763157 0.49 1.7634
0.802165 0.12495 1.195
0.792714 0.735978 -1.14667
0.786169 0.840067 1.16667
-0.781328 0.0978858 0.035
-0.851119 0.432808 -0.556667
-0.000105973 0.090546 -0.545
-0.843425 0.459384 0.601667
-5.23471e-05 0.101198 0.615
-0.791118 0.789695 0.00999999
-1.64378e-06 1.07334 -0.568333
-3.84143e-05 1.33372 0.588333
0.781659 0.0975525 0.035
0.851127 0.432913 -0.556667
0.843429 0.459399 0.601667
0.791117 0.789698 0.00999999
-0.878037 0.378904 -1.13583
-0.853117 0.446096 0.0225
-0.849216 0.474692 1.18083
-5.37317e-05 0.0643462 -1.125
-7.91602e-05 0.0956524 0.035
-2.64269e-05 0.18073 1.195
-1.74344e-06 0.325 -1.96668
-1.2517e-06 0.49 1.92464
-1.82027e-06 0.848132 -1.14667
-2.0029e-05 1.30688 0.00999999
-2.02055e-05 1.3016 1.16667
0.87806 0.378956 -1.13583
0.853124 0.446156 0.0225
0.849216 0.4747 1.18083
-1.13802 0.0552529 -1.70483
-0.756176 -0.105043 -1.69921
-0.765495 0.00991691 -2.16802
-1.16895 0.158762 1.7745
-0.786107 -0.00627125 1.78181
-0.786636 0.177504 2.23816
-1.08209 0.620968 -1.7255
-0.715655 0.567723 -2.18851
-0.700335 1.11189 -1.74287
-1.12754 0.818251 1.74517
-0.754055 0.833569 2.20865
-0.759818 1.3406 1.72557
0.755732 -0.105018 -1.69921
0.732804 0.00992555 -2.16802
1.1332 0.0552858 -1.70483
0.785762 -0.00625575 1.78181
0.772607 0.177512 2.23816
1.17158 0.158793 1.7745
0.689653 0.567728 -2.18851
0.739656 1.1119 -1.74287
1.08143 0.620979 -1.7255
0.736995 0.833574 2.20865
0.743999 1.3406 1.72557
1.1281 0.818263 1.74517
-1.15926 0.096306 -0.545116
-0.766015 -0.0765027 -0.538989
-1.18437 0.108317 0.614753
-0.792882 -0.0642951 0.621579
-1.1871 0.778306 -0.56858
-0.779459 1.2699 -0.586584
-1.17614 0.813699 0.588218
-0.785345 1.3273 0.569281
0.772012 -0.0763218 -0.538989
1.15899 0.0965157 -0.545116
0.79785 -0.0641954 0.621579
1.18696 0.108438 0.614753
0.803405 1.26991 -0.586584
1.18821 0.778335 -0.56858
0.782096 1.32726 0.569281
1.17734 0.813666 0.588218
-1.53421 -0.299285 -2.15644
-1.53368 -0.180575 -2.62537
-1.15857 -0.333847 -2.61988
-1.53813 -0.249775 -1.11306
-1.52714 -0.104994 -1.69889
-1.14529 -0.26529 -1.69326
-1.55547 -0.229474 0.0473582
-1.54875 -0.0650134 -0.539126
-1.15551 -0.237822 -0.532999
-1.56299 -0.203599 1.20781
-1.56718 -0.0558794 0.621122
-1.17569 -0.228491 0.627947
-1.55958 -0.164621 2.25135
-1.55627 -0.0148907 1.78094
-1.17342 -0.179924 1.78825
-1.55935 -0.130202 3.17804
-1.55615 0.0201072 2.70786
-1.17236 -0.145656 2.71507
-1.55973 0.0536863 3.63435
-1.17423 -0.11343 3.64139
-1.52661 0.0137153 -2.16782
-1.51485 0.268083 -2.6417
-1.15409 -0.0316207 -2.631
-1.53776 0.0797671 -1.12495
-1.50423 0.35122 -1.71533
-1.56046 0.108581 0.0346375
-1.55996 0.441804 -0.557029
-1.56046 0.132829 1.19426
-1.56616 0.462632 0.601304
-1.55284 0.169838 2.23746
-1.53674 0.487013 1.75967
-1.55653 0.203996 3.16417
-1.54618 0.520916 2.68663
-1.17052 0.18858 2.70111
-1.55711 0.556397 3.61344
-1.17452 0.220754 3.62755
-1.49247 0.605589 -2.18921
-1.49717 1.05777 -2.66978
-1.12604 0.552344 -2.65222
-1.52643 0.713257 -1.14741
-1.48981 1.14405 -1.74359
-1.56567 0.795855 0.00963749
-1.5498 1.27213 -0.586966
-1.54244 0.816816 1.16672
-1.5597 1.32484 0.569182
-1.53008 0.838091 2.20885
-1.53849 1.34429 1.72586
-1.54676 0.873317 3.1359
-1.547 1.37216 2.65238
-1.15659 0.853409 2.67233
-1.55756 1.40566 3.57927
-1.17182 0.890943 3.59943
-1.49451 1.59623 -2.22416
-1.11191 1.54414 -2.68693
-1.51319 1.70293 -1.18315
-1.10806 1.63498 -1.76097
-1.54384 1.80112 -0.0274218
-1.14216 1.76373 -0.60497
-1.55575 1.85231 1.12832
-1.16891 1.83844 0.550245
-1.55541 1.87836 2.16939
-1.17077 1.86664 1.70626
-1.5578 1.9045 3.09575
-1.17145 1.8886 2.63228
-1.1757 1.91836 3.55902
-0.76965 -0.299853 -2.1567
-0.778969 -0.184893 -2.62551
-0.0242216 -0.334604 -2.61999
-0.762672 -0.253337 -1.1132
-0.000442111 -0.265061 -1.69342
-0.775725 -0.23684 0.04759
0.00610303 -0.241513 -0.532978
-0.786123 -0.204816 1.20839
0.00502071 -0.232042 0.628158
-0.786204 -0.160959 2.25197
-0.000343829 -0.177527 1.78862
-0.787244 -0.128883 3.17843
-0.786733 0.0228166 2.70832
-0.00846933 -0.144362 2.71532
-0.789026 0.0536378 3.6346
-0.0135979 -0.113377 3.64154
-0.76527 0.25264 -2.64153
-0.0326886 -0.0351575 -2.63104
-0.788516 0.205338 3.16449
-0.780934 0.521073 2.68681
-0.014028 0.190016 2.70131
-0.789226 0.5553 3.61354
-0.0178846 0.220679 3.62766
-0.740776 1.03872 -2.66937
-0.0260001 0.54045 -2.65202
-0.781644 0.871035 3.13586
-0.781042 1.36985 2.65223
-0.0170578 0.852142 2.6723
-0.789958 1.40364 3.57918
-0.0219769 0.889942 3.59942
-0.725456 1.58289 -2.22373
0.0250368 1.537 -2.68672
-0.737038 1.69578 -1.18279
0.0393228 1.62879 -1.76074
-0.767232 1.80105 -0.0273028
0.0239473 1.76278 -0.604834
-0.783923 1.85276 1.12819
-0.00321075 1.83932 0.550229
-0.786805 1.87688 2.16915
-0.0158171 1.86621 1.70615
-0.789356 1.90246 3.09555
-0.0193684 1.88757 2.63216
-0.0220561 1.91736 3.55894
0.744986 -0.299812 -2.1567
0.722059 -0.184869 -2.62551
1.11294 -0.333795 -2.61988
0.768332 -0.253237 -1.1132
1.14129 -0.265211 -1.69326
0.786849 -0.236715 0.04759
1.16529 -0.237638 -0.532999
0.7908 -0.204753 1.20839
1.18597 -0.228363 0.627947
0.777391 -0.16093 2.25197
1.17561 -0.179868 1.78825
0.765176 -0.128856 3.17843
0.764236 0.0228375 2.70832
1.15914 -0.145612 2.71507
0.757543 0.0536646 3.6346
1.14987 -0.113384 3.6414
0.706582 0.252653 -2.64153
1.09588 -0.0315863 -2.631
0.756603 0.205358 3.16449
0.749848 0.521086 2.68681
1.1488 0.188612 2.70111
0.749364 0.555321 3.61354
1.14246 0.220793 3.62755
0.739813 1.03873 -2.66937
1.08184 0.552365 -2.65222
0.74261 0.871049 3.13586
0.744616 1.36986 2.65223
1.1284 0.853429 2.67233
0.745925 1.40366 3.57918
1.1316 0.890974 3.59943
0.789815 1.5829 -2.22373
1.15842 1.54417 -2.68693
0.800308 1.69579 -1.18279
1.17937 1.635 -1.76097
0.787968 1.80106 -0.0273029
1.18664 1.76375 -0.60497
0.764896 1.85277 1.12819
1.16516 1.83844 0.550245
0.75162 1.87689 2.16915
1.14304 1.86665 1.70626
0.747932 1.90247 3.09555
1.13563 1.88862 2.63228
1.13374 1.91839 3.55902
1.50924 -0.299193 -2.15644
1.48676 -0.180512 -2.62537
1.53825 -0.249612 -1.11306
1.51876 -0.104907 -1.69889
1.56441 -0.229285 0.0473582
1.55227 -0.0648 -0.539126
1.57078 -0.203478 1.20781
1.57508 -0.0557291 0.621121
1.55736 -0.164549 2.25135
1.56143 -0.0148189 1.78094
1.54383 -0.13014 3.17804
1.5437 0.0201625 2.70786
1.53479 0.0537444 3.63435
1.49628 0.0137739 -2.16782
1.47114 0.268125 -2.6417
1.53278 0.0799049 -1.12495
1.49876 0.351265 -1.71533
1.56294 0.108756 0.0346374
1.56091 0.441938 -0.557029
1.56573 0.13293 1.19426
1.57005 0.462705 0.601304
1.54778 0.169893 2.23746
1.53993 0.487057 1.75967
1.53466 0.204047 3.16417
1.52735 0.520956 2.68663
1.5247 0.556445 3.61344
1.47362 0.605616 -2.18921
1.50045 1.0578 -2.66978
[...]
POINT_DATA 29498
VECTORS point_vectors float
-3.64665 -6.4349 11.8004
0.172488 0.243436 0.907689
-2.8237 2.69968 4.36151
-0.0318013 -0.19132 0.292141
3.72184 -6.32038 11.6879
-0.167175 0.259042 0.920273
2.82187 2.70552 4.36576
0.0212407 -0.188703 0.313112
0.00142403 0.0501005 0.888951
0.037121 0.00388 1.2039
-0.00528424 -0.00969016 0.20582
0.00515109 0.0140682 0.0466415
0.00202965 0.0462758 0.820902
-0.0324229 0.00581835 1.18607
0.00518489 -0.00949022 0.204782
-0.00496603 0.0136894 0.0459027
-0.696724 -0.385336 19.9709
-1.1258 -0.765096 20.7034
-0.298382 -0.444473 21.4398
0.192868 -0.215249 21.5456
0.631809 -0.0443755 21.5333
0.921356 0.101477 21.2411
0.875732 0.0302772 21.1761
-0.894373 -0.317992 19.833
-1.62237 -0.68956 20.6164
-0.567719 -0.606063 21.5043
0.0705809 -0.398511 21.5708
0.663355 -0.25885 21.6209
1.01917 -0.148752 21.3083
0.992511 -0.304287 21.2552
-0.97942 0.0337965 19.6653
-2.09285 0.0779755 20.3511
-1.26543 -0.422758 21.452
-0.389414 -0.50474 21.6453
0.301589 -0.602845 21.6256
0.668259 -0.677128 21.3695
0.934855 -0.85022 20.881
-0.582166 0.369432 19.9007
-0.982051 0.642119 20.2614
-1.05405 0.481984 21.0038
-0.577315 0.0692162 21.4295
-0.160651 -0.232888 21.3631
0.0737662 -0.413723 21.2398
0.141908 -0.38713 21.1452
-0.852543 -1.00686 19.3156
-1.51938 -2.91492 21.4408
0.0729395 0.0273454 22.0383
0.517522 0.338226 21.4044
0.941857 1.03565 20.6247
1.31281 1.41794 20.5297
1.51444 1.52559 19.9994
-1.16526 -0.86837 18.7371
1.80935 1.11701 12.444
2.26598 1.10073 14.3466
-1.32642 0.151412 18.2454
0.373302 -0.967783 6.81451
1.17726 -1.02888 10.7038
-0.524016 0.790737 19.4457
-1.04787 1.67648 19.8049
-1.47522 1.86134 20.9355
-0.849237 0.64066 21.8997
-0.338425 -0.102158 21.587
-0.141954 -0.416357 21.4895
0.0710577 -0.715844 20.7032
0.811618 -1.03641 19.2773
1.57503 -2.96571 21.391
-0.0166606 -0.0536777 22.0417
-0.454287 0.305918 21.3646
-0.953761 1.10598 20.5163
-1.29931 1.52718 20.3943
-1.47387 1.6043 19.8456
1.10127 -0.934774 18.6035
-1.77446 1.30873 12.0609
-2.25232 1.22822 14.3778
1.25541 0.183641 18.1017
-0.430698 -0.962321 6.17582
-1.22109 -0.955532 9.92456
0.549169 0.765411 19.4764
1.114 1.55562 19.8535
1.49456 1.71702 20.9689
0.858992 0.638175 21.9167
0.354448 -0.134949 21.6108
0.163097 -0.473264 21.5063
-0.0298291 -0.772688 20.7636
0.719769 -0.406962 19.9183
1.14979 -0.765268 20.6736
0.333248 -0.437198 21.4169
-0.174267 -0.212698 21.5432
-0.643212 -0.0268281 21.5349
-0.949515 0.127223 21.2432
-0.885564 0.0703167 21.154
0.904551 -0.340214 19.7896
1.66071 -0.697048 20.6207
0.590888 -0.602483 21.5095
-0.0622325 -0.390428 21.5837
-0.686944 -0.240393 21.6383
-1.07256 -0.126071 21.2918
-1.03796 -0.286265 21.2209
0.992492 0.0394471 19.6236
2.10718 0.0865719 20.3461
1.26538 -0.416633 21.4595
0.383587 -0.501205 21.6663
-0.346285 -0.604227 21.6528
-0.743692 -0.707956 21.3734
-0.994378 -0.808097 20.886
0.574574 0.358962 19.9233
0.957613 0.59788 20.2857
1.0213 0.448321 21.0097
0.577733 0.0631729 21.4425
0.154854 -0.250656 21.3768
-0.0843589 -0.446418 21.2619
-0.128788 -0.405176 21.1282
-0.296083 -0.0249397 0.365428
0.0154609 -0.0643224 0.608931
-0.00240432 0.00277047 0.0753939
2.87851e-05 -0.0012282 0.000724751
0.000946531 0.00564859 0.0411874
0.0399444 0.0379024 1.20249
1.58818e-05 0.116094 0.205661
-0.348339 -0.0587584 0.792102
0.021155 0.00697807 -0.0256746
0.00300443 0.0124977 0.0690017
0.286378 -0.0230566 0.353155
0.00274483 0.00247914 0.0649522
-0.000156587 -0.00189538 0.0012987
-0.0650586 0.0204213 1.14828
0.349476 -0.0590962 0.795662
-0.00303202 0.0126545 0.0697271
0.0140764 0.0259678 1.42152
0.00137173 0.000297811 0.0171158
0.00379968 -0.00230445 0.041074
0.000528155 0.00981119 0.0546717
0.00288702 0.0107628 0.248686
0 0 0
1.086e-05 0.0267882 0.0477284
0 0 0
-0.00580689 0.0301868 1.3912
-0.00139485 0.000325863 0.0174585
-0.000541661 0.00976315 0.0554237
0 0 0
-0.00163895 -0.0086805 0.0893569
5.28131e-05 0.00500488 0.0388615
3.80372e-05 0.000969447 0.0135334
4.27785e-05 -0.00011414 5.71575e-05
0.00332204 0.000143123 0.145994
0 0 0
-0.000476769 0.0445012 0.0800888
0 0 0
4.98947e-05 0.00881374 0.0407059
0.000107982 0.0265523 0.161185
0.00044245 -0.00122916 0.0173816
0.00169409 -0.00857127 0.0903588
-4.98592e-05 0.00514663 0.0394886
-4.32957e-05 0.000970365 0.0137931
-3.04323 -1.77526 20.7049
-2.22496 -5.00901 22.4339
-2.83871 -2.55396 17.8869
1.20451 -0.138436 20.8929
0.981395 1.18495 15.873
1.23979 0.881557 9.20151
-4.26873 0.654081 19.9207
-3.41435 1.19326 16.4236
-2.42513 2.90415 19.2694
0.515856 -0.882872 19.8569
-0.466979 -1.19174 3.78513
-0.0796261 -0.24616 15.6874
2.33939 -5.06897 22.3508
2.81852 -2.6988 17.6632
3.11112 -1.79893 20.6899
-1.04623 1.22136 15.7362
-1.20706 1.01798 8.90066
-1.24664 -0.104721 20.9736
3.40348 1.28135 16.1881
2.47216 2.75475 19.3253
4.29109 0.675239 19.9155
0.396734 -1.17973 3.69846
0.0376576 -0.326413 15.3028
-0.585891 -0.893308 19.9292
-0.139014 -1.05056 21.7599
0.264176 0.476258 15.9682
0.368416 -0.558375 21.062
0.696451 0.324459 16.2898
-2.05444 -1.06402 21.9464
-3.90463 2.34527 21.0108
-0.499424 -0.994545 21.1767
-1.19853 0.170627 19.3887
-0.175255 0.435902 15.6657
0.170869 -1.02384 21.7634
-0.606346 0.300538 16.0601
-0.355543 -0.531563 21.1035
3.84017 2.15009 21.0751
2.05768 -1.04976 21.9557
1.19579 0.167183 19.3234
0.4928 -0.989481 21.2204
-1.00457 -0.585005 20.2056
-0.792783 -0.364525 19.8988
-0.827141 -0.654069 19.7005
-0.782214 -0.657851 21.2853
-1.41048 -0.773133 20.6861
-1.57084 -1.57364 20.8665
-0.0252533 -0.309085 21.5142
-0.433214 -0.550122 21.4726
-0.0560704 -0.54346 21.7624
0.377478 -0.150929 21.5493
0.116974 -0.329819 21.5614
0.400402 -0.207548 21.6566
0.801243 0.0320173 21.4046
0.633557 -0.14916 21.5684
0.951097 0.204337 21.6194
1.0181 0.100343 21.0859
0.956176 -0.00516404 21.28
1.32342 0.44928 21.219
0.947707 -0.0662431 21.2413
1.4813 0.616533 20.7476
-1.34001 -0.520181 20.0475
-0.961629 -0.169185 19.7028
-1.08342 -0.554291 19.3628
-1.18665 -0.690374 21.3121
-2.02054 -0.396738 20.4732
-0.192646 -0.508099 21.5357
-0.91785 -0.612568 21.5259
0.320861 -0.337187 21.603
-0.146533 -0.517365 21.6222
0.865966 -0.209486 21.4915
0.533159 -0.473325 21.6523
1.12908 -0.143309 21.0358
0.922612 -0.466725 21.3154
1.72094 -0.00387439 20.9096
1.04109 -0.716953 21.281
1.93779 0.147587 20.3261
-1.57346 0.0755041 19.8019
-0.832999 0.28012 19.7507
-1.2453 0.0733346 19.0583
-1.79415 -0.185304 21.1088
-1.54787 0.56153 20.2297
-0.802233 -0.516798 21.6108
-1.41524 0.133657 21.2109
-0.0440882 -0.526775 21.6646
-0.637302 -0.234198 21.5804
0.497389 -0.634509 21.5176
-0.0382036 -0.479078 21.4896
0.824021 -0.692419 21.2782
0.241833 -0.58934 21.2884
0.866429 -1.03852 20.3128
0.42356 -0.65859 21.2596
1.08193 -1.00225 20.5293
-0.801893 0.52061 20.0149
-0.628576 0.57646 19.6703
-1.08102 0.626568 20.638
-1.15911 1.10717 20.0596
-0.870587 0.283331 21.286
-1.3785 0.982761 21.0284
-0.34395 -0.110414 21.4411
-0.749146 0.272559 21.6456
-0.0407203 -0.31884 21.36
-0.244848 -0.225032 21.5156
0.22468 -0.523932 21.2357
0.00262861 -0.449574 21.3041
0.219494 -0.577823 20.9911
-1.50224 -2.15181 19.4769
-1.01837 -0.986286 19.0514
-0.0371478 -1.45235 18.7581
-0.45681 -0.974361 22.5696
-0.0456046 -4.63045 21.7907
0.325486 0.224197 21.601
-0.0886703 -0.612614 19.391
0.728361 0.54407 21.0392
-0.0745754 0.0862598 16.7529
1.14826 1.28122 20.4106
0.101311 0.794965 15.3941
1.46743 1.5279 20.0208
1.62305 1.55083 17.4123
0.108218 1.58991 16.5496
1.84498 1.45154 18.2776
0.105311 2.11602 17.1093
-1.30086 -0.448325 18.305
-0.0570527 -1.37565 17.8125
2.26502 1.37981 14.0565
1.45453 -0.54306 7.90998
0.217251 0.888773 5.41731
2.3833 0.297075 12.5286
0.137216 2.00645 9.02995
-0.893503 0.776394 18.8556
-0.0603726 0.357741 17.0679
1.06218 -0.966377 8.74773
-0.0058535 -0.77834 17.3864
-0.292466 1.25655 -3.69049
0.409932 -1.2102 17.982
-0.177288 2.55413 -4.99172
-0.798791 1.28459 19.4953
0.0186218 1.04217 19.186
-1.26615 1.84033 20.3271
0.0589041 2.29502 19.5368
-1.34141 1.38977 21.7182
0.0819689 3.18366 20.7117
-0.499236 0.154295 21.7416
0.00525943 1.31674 22.2494
-0.252918 -0.240798 21.4944
0.0213734 0.276781 21.7215
-0.00600851 -0.597794 21.4357
0.0232868 -0.107534 21.7192
0.0532459 -0.467002 20.0977
1.49798 -2.20788 19.4236
0.96237 -1.03424 18.9358
0.832175 -0.687932 19.6343
0.543199 -1.07865 22.5783
1.61212 -1.59851 20.8385
-0.264096 0.165532 21.5627
0.110181 -0.546807 21.764
-0.723429 0.590667 20.9436
-0.366257 -0.197282 21.6773
-1.14627 1.38297 20.3083
-0.9693 0.248981 21.6308
-1.46871 1.68464 19.8675
-1.60966 1.68156 17.0282
-1.35007 0.524644 21.2132
-1.81618 1.55292 18.0882
-1.53125 0.666269 20.6943
1.2326 -0.452837 18.2196
1.11249 -0.611371 19.2604
-2.26225 1.57064 13.9948
-1.46658 -0.34078 6.97537
-1.82273 0.0840158 20.6781
-2.46534 0.482028 11.9429
-2.00682 0.204019 20.157
0.89218 0.781642 18.8532
1.2655 0.0842189 18.9825
-1.11438 -0.935889 8.11803
-0.00505949 -0.915523 17.0073
-0.993901 -1.02985 19.9517
-0.414764 -1.25336 18.0517
-1.16822 -1.07881 20.3698
0.841766 1.20046 19.5446
0.631485 0.549892 19.6914
1.31732 1.70774 20.3728
1.14726 1.00772 20.1041
1.35377 1.34319 21.7186
1.34674 0.908176 21.0365
0.51152 0.141886 21.7687
0.753837 0.267515 21.6622
0.269786 -0.29116 21.5092
0.245412 -0.256297 21.5411
0.0327947 -0.652371 21.4404
-1.22474e-05 -0.50319 21.3065
-0.227489 -0.657568 21.067
1.04415 -0.61679 20.1762
0.816686 -0.386801 19.8411
0.797662 -0.635586 21.2696
1.40108 -0.7595 20.6665
0.0465182 -0.301026 21.5153
0.46567 -0.548709 21.4646
-0.378497 -0.13533 21.5623
-0.100293 -0.328324 21.5659
-0.82224 0.0577265 21.3989
-0.651656 -0.130801 21.5784
-1.041 0.120834 21.0486
-0.997565 0.0228252 21.2583
-0.974445 -0.0682782 21.2208
1.40045 -0.555486 20.0163
0.974286 -0.177241 19.6633
1.21526 -0.686078 21.3162
2.05079 -0.397779 20.4717
0.203227 -0.500486 21.5503
0.927343 -0.603399 21.5323
-0.330712 -0.322765 21.6275
0.147555 -0.509644 21.6416
-0.906645 -0.188689 21.492
-0.569421 -0.463123 21.6767
-1.17155 -0.137743 21.0813
-0.984927 -0.471509 21.3232
-1.06359 -0.660199 21.2805
1.61851 0.093688 19.7589
0.835877 0.285447 19.7509
1.8019 -0.180832 21.1072
1.49691 0.512941 20.253
0.802464 -0.511901 21.6239
1.3802 0.134236 21.2131
0.0265966 -0.527779 21.6909
0.634358 -0.235625 21.5975
-0.556724 -0.655869 21.5423
0.0116091 -0.498175 21.5122
-0.895024 -0.722309 21.3129
-0.275065 -0.647379 21.314
-0.489006 -0.666341 21.1714
0.781934 0.49794 20.0405
1.05306 0.585407 20.6516
0.854821 0.271766 21.2917
0.346625 -0.124755 21.4606
0.032059 -0.349508 21.3742
-0.228184 -0.545103 21.2276
-1.1872 -0.566788 20.1339
-2.00536 -2.45764 18.834
-1.3696 -1.15681 19.9223
-2.05252 -1.06207 19.4255
-0.966403 -0.624077 19.5162
-2.20619 -1.80173 20.8261
-0.968579 -0.713609 21.3088
0.0111908 -0.46053 18.7507
-0.705608 -1.06033 21.7448
-1.39891 -1.5229 22.1786
-0.0370034 -0.766619 21.8697
-0.117109 -0.435249 21.5199
0.515759 0.373751 16.1293
0.225583 -0.340988 21.6683
0.190161 -0.774037 21.2891
0.432403 -0.386952 21.5398
0.343236 -0.253614 21.565
0.925436 0.413406 15.8145
0.611118 -0.0751906 21.6734
0.577724 -0.406345 20.9676
1.12924 0.0707586 21.3863
0.824163 -0.0621587 21.4556
1.26191 1.44976 16.3891
1.18104 0.3643 21.4654
1.51725 -0.0523891 20.6942
1.56751 0.253577 21.0622
1.07416 -0.0254262 21.1137
1.86592 1.61862 17.5732
1.45968 0.493794 20.7725
1.75627 0.0413281 20.7309
1.7965 0.548997 20.6186
-1.57626 -0.256316 19.8715
-3.69397 -1.00424 16.3501
-2.50828 0.307477 18.8246
-1.26356 -0.303008 19.1358
-4.38544 -0.829042 20.2816
-1.55676 -0.557516 21.2788
-3.09468 -0.289567 21.619
-0.882545 -1.3255 21.8201
-0.462851 -0.594729 21.5985
-1.16131 -1.22737 21.7718
0.0900835 -0.807274 20.6385
0.175772 -0.49058 21.6656
-0.055766 -0.828878 20.7612
1.06034 -0.532188 19.6876
0.765108 -0.492726 21.4851
0.498084 -1.20509 4.09834
0.625704 -1.04563 20.225
1.5465 -0.611331 19.7828
1.13013 -0.511105 21.052
2.16621 -0.139676 10.2811
1.10483 -0.916023 20.584
1.86497 -0.422365 19.5077
-1.22211 0.451 19.8784
-1.62736 1.76584 18.6066
-0.907626 0.874908 19.7664
-0.963665 0.504227 19.3317
-2.20918 1.34219 19.8722
-1.58261 0.384494 20.7934
-2.86223 2.47592 20.2749
-1.35534 1.13782 20.531
-2.34265 0.56147 21.335
-1.05064 -0.0903489 21.5103
-3.38094 0.726007 22.1292
-1.14941 0.674517 21.488
-1.029 -0.190089 21.9314
-0.304122 -0.36484 21.5768
-0.212669 0.0393597 17.4276
-0.437933 -0.022663 21.5816
-0.26512 -0.595093 21.5909
0.0944322 -0.558738 21.4334
-0.182856 -0.430954 16.4729
-0.128093 -0.338032 21.4365
0.108781 -0.851606 21.5809
0.386161 -0.670606 21.1828
0.314456 -1.18278 17.8154
0.0960837 -0.506158 20.9845
0.392616 -0.966829 21.3784
1.99669 -2.56737 18.728
-0.0471658 -3.61666 18.8003
-0.0855656 -4.88684 15.5241
-0.0532416 -1.47231 18.3532
-0.033369 -7.39812 23.9445
0.156417 -0.516696 18.5635
-0.0672369 -2.01278 22.8309
-0.0712629 -0.14069 6.17182
-0.421666 0.333299 15.7843
-0.0907075 -0.170329 17.5082
-0.0299 0.0727255 7.64124
-1.00301 0.442243 15.5975
0.0188277 0.447712 15.7879
0.312687 0.603973 8.29122
-1.28992 1.57851 16.2601
0.110601 1.12136 15.5795
0.21436 0.152368 3.14087
0.225164 1.32488 10.7478
-1.87211 1.77776 17.4564
0.111283 1.60968 16.076
0.155149 1.41337 6.9106
0.18792 2.30676 13.7676
3.74915 -1.0351 15.9964
-0.0811253 2.62312 12.9716
-0.0651405 -0.653498 17.0658
-0.48735 -1.00905 3.61096
0.00323337 0.193139 -2.49536
-0.102977 0.532084 -0.903297
-2.21753 0.0280255 9.50932
-0.201197 1.72607 -4.68927
0.0510914 1.55863 0.99971
1.63526 1.72628 18.643
0.0340694 1.69849 19.1999
-0.00294274 1.16054 18.2481
0.0856859 4.53048 18.7045
2.86816 2.32538 20.3318
0.0747878 2.6985 20.0378
0.0800991 6.10372 19.4746
3.33098 0.698296 22.1876
0.0290536 2.68393 21.997
0.0173366 0.69614 13.1247
0.174801 0.0426447 17.1231
0.00939508 0.520288 21.9353
0.300323 0.40415 3.03404
0.127401 -0.555436 16.1615
0.0319554 0.135736 21.7034
0.119691 0.246495 1.94287
-0.292038 -1.29856 17.8823
0.0102897 -0.381843 21.0761
-0.0270759 0.21307 7.31149
1.23636 -0.605659 20.0897
1.40355 -1.22708 19.8622
2.13815 -1.16644 19.3255
0.981258 -0.658929 19.444
2.26506 -1.82479 20.8077
0.986161 -0.700573 21.3038
0.7584 -1.06535 21.7357
1.44264 -1.50588 22.1948
0.0900311 -0.753623 21.8818
0.133267 -0.432183 21.529
-0.177605 -0.340073 21.6774
-0.163166 -0.748035 21.3088
-0.405691 -0.36647 21.5861
-0.347379 -0.240059 21.5842
-0.610522 -0.045462 21.6996
-0.599312 -0.38159 21.0282
-1.16121 0.113097 21.4213
-0.852318 -0.0357557 21.4548
-1.20623 0.427877 21.4649
-1.59606 0.0178221 20.5864
-1.63231 0.345711 20.9896
-1.09736 -0.0150747 21.1551
-1.49285 0.554487 20.7294
-1.85688 0.099676 20.4994
-1.86081 0.588177 20.5753
1.6302 -0.266096 19.8288
2.57593 0.358342 18.7356
1.29232 -0.310747 19.046
4.42437 -0.811224 20.2713
1.57774 -0.554809 21.2803
3.09637 -0.271038 21.6206
0.895597 -1.3026 21.8373
0.471478 -0.587295 21.6119
1.15843 -1.21623 21.7909
-0.0921675 -0.794338 20.7024
-0.192204 -0.481007 21.6887
0.0312672 -0.829417 20.8077
-1.12381 -0.513666 19.8211
-0.825544 -0.48015 21.4907
-0.753237 -1.04723 20.1018
-1.67692 -0.55013 19.508
-1.19001 -0.525718 21.0763
-1.22081 -0.903062 20.2824
-1.97238 -0.386201 19.3616
1.20913 0.43962 19.8961
0.907507 0.815243 19.8054
0.964382 0.505523 19.3316
2.1551 1.24355 19.9194
1.53537 0.367309 20.7979
1.34177 1.05422 20.5549
2.2624 0.521907 21.3353
1.03864 -0.0846387 21.5146
1.13615 0.645071 21.4861
1.03063 -0.197705 21.9522
0.295459 -0.376616 21.6024
0.44264 -0.0363628 21.61
0.231502 -0.649136 21.6163
-0.128852 -0.591595 21.45
0.125777 -0.379815 21.4548
-0.147657 -0.92605 21.5204
-0.422135 -0.696372 21.2091
-0.106656 -0.580111 20.9817
-0.43129 -1.09147 21.2805
-1.6941 -1.17746 19.6966
-0.955327 -1.29562 21.9571
0.262802 -0.530218 21.624
0.657279 -0.24275 21.462
1.38355 0.2239 21.1068
1.58553 0.306207 20.9823
-2.51877 -0.495025 18.9801
-2.47079 -1.19319 22.2651
-0.258098 -1.11854 21.1113
0.363641 -0.567791 20.2942
1.32583 -0.661044 19.9359
1.70995 -0.552515 20.2341
-1.58949 0.934438 19.3542
-2.35535 1.00672 20.7211
-1.79996 0.101337 21.8988
-0.532065 -0.408759 21.8442
-0.122418 -0.731759 21.5948
0.288073 -0.875703 21.6419
-0.0663651 -4.43265 17.5755
-0.100505 -0.753364 10.2929
-0.0488837 -0.0555563 6.47078
0.295721 0.3399 7.70067
0.253768 0.842085 9.28535
0.182822 1.74804 11.6602
-0.0943149 -1.88002 12.3037
0.110135 -0.703433 -0.169659
-0.0680873 1.18105 -0.609795
0.0219724 2.80722 17.728
0.0867821 4.34726 19.458
0.0290967 3.74954 19.2235
0.0553767 -0.0465911 8.81893
0.26872 0.459432 2.54438
0.127772 0.381782 3.97195
1.74338 -1.26124 19.6321
1.01117 -1.28809 21.9606
-0.217871 -0.516222 21.6548
-0.668229 -0.212128 21.51
-1.43602 0.294857 21.0883
-1.63034 0.380176 20.9376
2.63404 -0.527798 18.8621
2.49003 -1.16837 22.2748
0.265988 -1.09716 21.1438
-0.387945 -0.563006 20.3819
-1.43465 -0.615417 19.8027
-1.81858 -0.523352 20.0484
1.5753 0.905886 19.3836
2.31236 0.940508 20.7391
1.77149 0.0943029 21.8954
0.524781 -0.432241 21.8847
0.0786126 -0.801512 21.6003
-0.327382 -0.959316 21.5605
-2.38211 -1.03578 1.84059
-0.100283 0.1926 1.27742
-0.00408533 0.00678918 0.245193
0.165478 -0.0512929 0.481381
0.00180534 0.0137082 0.096668
0.016152 0.0271302 0.985381
0 0 0
-0.121853 0.488763 0.817216
-0.419628 0.131327 1.05681
0.0356848 -0.0967817 0.0774529
-0.0443026 -0.00855031 -0.00239221
0.00662427 -0.00134212 0.0623689
-0.0076399 -0.00192958 0.593468
2.38408 -1.01858 1.83673
0.00910682 0.00681208 0.234773
0.00264003 0.00951486 0.0612759
-0.168363 -0.0405565 0.491649
-0.0226918 0.0197844 1.11184
0.11914 0.481679 0.808897
0 0 0
0.417267 0.131701 1.05317
0.055494 -0.0184466 0.00741474
-0.0383216 -0.0827859 0.0807595
-0.00695284 -0.000892672 0.0627635
-0.00994406 0.0461776 0.609849
0.0374858 0.0154061 0.904649
0 0 0
0 0 0
0.186066 -0.332654 2.54591
0.0193388 0.00273611 0.466141
0 0 0
0 0 0
-0.56677 -0.520507 1.51717
0 0 0
0 0 0
-0.0449364 0.0415629 0.105342
0.00421159 0.0116146 0.0509779
0.00220133 0.0132689 0.0514625
0.00737336 0.023635 0.088209
0.0704202 0.0387971 0.764177
0.011527 0.0405285 0.565661
-0.00846205 0.000412846 0.0366938
-0.0308091 0.0154153 0.853299
0 0 0
-0.258188 -0.332837 2.63478
-0.00271543 0.000802087 0.028227
-0.0160301 0.00500372 0.456791
0 0 0
0.569305 -0.522737 1.5239
0.0447396 0.0419321 0.105813
0 0 0
0 0 0
-0.00415337 0.0115213 0.0511022
-0.0675988 0.0384008 0.770432
-0.00218357 0.013164 0.0515755
-0.00735643 0.0236714 0.088917
-0.015838 -0.0157424 0.0740155
-0.0412341 -0.0208359 0.0225737
0.00045109 -0.00129951 0.00978605
-0.00330024 -1.16793 0.928995
0 0 0
0 0 0
0.00518026 0.00525646 0.0745109
0 0 0
6.48822e-06 1.42258e-06 5.5106e-05
4.61178e-05 -0.000225815 -8.0227e-06
9.18587e-05 0.000247822 0.00520792
0.00999056 0.00422505 0.0817787
0 0 0
0.000126834 0.00167546 0.00634406
-0.0389445 -0.0513658 0.240746
-0.0154703 0.00692415 0.0429719
0.000863317 -0.00360955 -9.88168e-05
0.00257117 0.00502639 -0.00678762
-0.00115779 0.0130973 0.146872
0.000568016 -0.00110806 0.0162369
0.0420325 -0.0209956 0.0230587
0.0151917 -0.0150285 0.0715182
-3.29693e-05 3.25562e-06 0.000266052
0 0 0
0 0 0
-0.00500412 0.00547308 0.0702471
-0.0398646 0.0943803 0.642124
-0.000100661 0.000247622 0.00550497
0.0156934 0.00701517 0.0437067
0.0383056 -0.0504047 0.237398
-0.000123523 -0.001165 0.016433
0.00101082 0.0133079 0.147644
0 0 0
0 0 0
5.17629e-05 -0.00216986 0.0243221
0.0002022 0.00279127 0.0277119
0.000147346 -0.00104946 0.016905
0.000692471 -0.000157325 0.0205311
0 0 0
0 0 0
0.00173512 -0.000104998 0.0835747
0 0 0
0 0 0
-0.0146645 0.0142118 0.109975
-1.45074e-05 0.0185075 0.0411433
0.000611905 0.0493706 0.101517
4.04474e-05 0.00221673 0.0337868
0 0 0
-0.00424317 0.000399427 0.02737
0 0 0
-5.41676e-05 -0.0021485 0.0247531
-0.000202264 0.00286929 0.0280622
0 0 0
0 0 0
0.0151233 0.0143703 0.11174
0 0 0
0 0 0
-0.113794 -0.0194079 0.365876
0 0 0
-0.0180605 -0.0449199 0.172402
0 0 0
0.000221248 0.00136245 0.00644078
0 0 0
0 0 0
-0.00824188 0.0138298 0.134048
0.00353535 0.0188559 0.0862716
0 0 0
0.000256604 8.34003e-05 0.00315714
0 0 0
-0.000180414 -3.18703e-06 0.00132856
0.0182879 -2.7664e-05 0.0708097
-0.00964656 0.00341253 0.0950371
0 0 0
-0.00235351 0.000180077 0.0123983
0 0 0