# vtk DataFile Version 2.0
tri_press
ASCII
DATASET UNSTRUCTURED_GRID
POINTS 3682 float
-0.75236 0.055 -1.705
-0.786067 0.165 1.775
-0.679398 0.595 -1.725
-0.733447 0.815 1.745
0.752357 0.055 -1.705
0.786066 0.165 1.775
0.679394 0.595 -1.725
0.733443 0.815 1.745
-0.766679 0.0885837 -0.545
-0.799665 0.1035 0.615
-0.806113 0.777032 -0.568333
-0.789032 0.815268 0.588333
0.766467 0.0887933 -0.545
0.79956 0.103603 0.615
0.80611 0.777033 -0.568333
0.788955 0.815195 0.588333
-1.53782 -0.333075 -2.61977
-1.53059 -0.265495 -1.69311
-1.54566 -0.234055 -0.53302
-1.56528 -0.224893 0.627737
-1.56069 -0.182306 1.78788
-1.55846 -0.146937 2.71482
-1.56024 -0.113467 3.64125
-1.52954 -0.0280751 -2.63097
-1.52368 0.0555058 -1.70467
-1.55184 0.104028 -0.545231
-1.56908 0.113134 0.614506
-1.55184 0.152525 1.77401
-1.55384 0.187151 2.7009
-1.55922 0.22084 3.62744
-1.50016 0.564242 -2.65243
-1.48478 0.646935 -1.72599
-1.56808 0.779579 -0.568827
-1.56325 0.81213 0.588102
-1.52164 0.821501 1.74533
-1.53852 0.85468 2.67236
-1.55501 0.891954 3.59944
-1.49417 1.55129 -2.68713
-1.49485 1.64117 -1.76119
-1.53152 1.76468 -0.605105
-1.55616 1.83755 0.550261
-1.55534 1.86708 1.70638
-1.55548 1.88964 2.63239
-1.56011 1.91936 3.5591
-0.779309 -0.33462 -2.61999
-0.759991 -0.265086 -1.69342
-0.765352 -0.241589 -0.532978
-0.786099 -0.23209 0.628158
-0.786147 -0.177543 1.78862
-0.786262 -0.144375 2.71532
-0.788225 -0.113392 3.64154
-0.778629 -0.0351662 -2.63104
-0.787205 0.190008 2.70131
-0.789827 0.220667 3.62766
-0.751911 0.540445 -2.65202
-0.774663 0.852137 2.6723
-0.788625 0.889933 3.59942
-0.72964 1.53699 -2.68672
-0.721272 1.62878 -1.76074
-0.752805 1.76278 -0.604834
-0.781658 1.83932 0.550229
-0.786188 1.86621 1.70615
-0.787422 1.88756 2.63216
-0.79129 1.91736 3.55894
0.730866 -0.334588 -2.61999
0.759107 -0.265037 -1.69342
0.777558 -0.241437 -0.532978
0.79614 -0.231994 0.628158
0.785459 -0.177512 1.78862
0.769324 -0.144349 2.71532
0.761029 -0.113362 3.64154
0.713252 -0.0351489 -2.63104
0.759149 0.190024 2.70131
0.754057 0.220692 3.62766
0.699911 0.540455 -2.65202
0.740548 0.852147 2.6723
0.744671 0.889951 3.59942
0.779714 1.53701 -2.68672
0.799917 1.6288 -1.76074
0.800699 1.76279 -0.604834
0.775237 1.83932 0.550229
0.754554 1.86621 1.70615
0.748685 1.88758 2.63216
0.747178 1.91737 3.55894
1.49501 -0.333001 -2.61977
1.52347 -0.265386 -1.69311
1.55302 -0.233838 -0.53302
1.57579 -0.224732 0.627737
1.56576 -0.182225 1.78788
1.54895 -0.146874 2.71482
1.5387 -0.113405 3.64125
1.47851 -0.0280237 -2.63097
1.51405 0.0555716 -1.70467
1.55151 0.104238 -0.545231
1.57436 0.113274 0.614506
1.5571 0.152587 1.77401
1.53845 0.187199 2.7009
1.53087 0.220894 3.62744
1.46377 0.564274 -2.65243
1.48346 0.646958 -1.72599
1.5703 0.779638 -0.568827
1.56573 0.812136 0.588102
1.52275 0.821527 1.74533
1.51625 0.854712 2.67236
1.51852 0.891996 3.59944
1.53713 1.55133 -2.68713
1.55882 1.64121 -1.76119
1.57259 1.76471 -0.605105
1.55508 1.83756 0.550261
1.53153 1.8671 1.70638
1.52258 1.88966 2.63239
1.52031 1.9194 3.5591
-0.74502 0.325 -1.74414
-1.49012e-06 0.0497914 -1.71021
-0.768186 0.063125 -1.125
-0.762924 0.49 1.76317
-5.06639e-07 0.197947 1.74205
-0.802856 0.12426 1.195
-1.99676e-06 0.657897 -1.7879
-0.792715 0.735975 -1.14667
-1.99676e-06 0.911348 1.84135
-0.786185 0.84008 1.16667
0.745003 0.325 -1.74413
0.768079 0.0632298 -1.125
0.763157 0.49 1.7634
0.802165 0.12495 1.195
0.792714 0.735978 -1.14667
0.786169 0.840067 1.16667
-0.781328 0.0978858 0.035
-0.851119 0.432808 -0.556667
-0.000105973 0.090546 -0.545
-0.843425 0.459384 0.601667
-5.23471e-05 0.101198 0.615
-0.791118 0.789695 0.00999999
-1.64378e-06 1.07334 -0.568333
-3.84143e-05 1.33372 0.588333
0.781659 0.0975525 0.035
0.851127 0.432913 -0.556667
0.843429 0.459399 0.601667
0.791117 0.789698 0.00999999
-0.878037 0.378904 -1.13583
0.87806 0.378956 -1.13583
-5.37317e-05 0.0643462 -1.125
-1.82027e-06 0.848132 -1.14667
-1.74344e-06 0.325 -1.96668
-0.853117 0.446096 0.0225
0.853124 0.446156 0.0225
-7.91602e-05 0.0956524 0.035
-2.0029e-05 1.30688 0.00999999
-0.849216 0.474692 1.18083
0.849216 0.4747 1.18083
-2.64269e-05 0.18073 1.195
-2.02055e-05 1.3016 1.16667
-1.2517e-06 0.49 1.92464
-0.753082 0.19 -1.72896
-0.376181 0.0497953 -1.7102
-0.761097 0.0582384 -1.415
-0.796816 0.3275 1.7914
-0.393034 0.194372 1.74563
-0.802527 0.136564 1.485
-0.713131 0.46 -1.73549
-0.3397 0.644477 -1.77448
-0.755733 0.685164 -1.43583
-0.762545 0.6525 1.76844
-0.366725 0.892127 1.82213
-0.777982 0.845706 1.45583
0.376178 0.0497916 -1.71021
0.753067 0.19 -1.72895
0.760857 0.0584757 -1.415
0.393033 0.196375 1.74362
0.796863 0.3275 1.79145
0.804317 0.134773 1.485
0.339696 0.644436 -1.77444
0.712995 0.46 -1.73536
0.75573 0.685165 -1.43583
0.366721 0.892817 1.82282
0.762319 0.6525 1.76822
0.777958 0.845685 1.45583
-0.775398 0.0678885 -0.835
-0.774296 0.0929418 -0.255
-0.823777 0.253257 -0.550833
-0.358802 0.138746 -0.545
-0.805164 0.109976 0.905
-0.789679 0.10151 0.325
-0.82163 0.281399 0.608333
-0.374714 0.152639 0.615
-0.810466 0.767556 -0.8575
-0.834644 0.607934 -0.5625
-0.794962 0.77971 -0.279167
-0.457743 1.03456 -0.568333
-0.786984 0.827049 0.8775
-0.832573 0.645498 0.595
-0.796315 0.808722 0.299167
-0.509882 1.30519 0.588333
0.775277 0.0680068 -0.835
0.386302 0.0834272 -0.545
0.774261 0.092975 -0.255
0.823797 0.253353 -0.550833
0.805164 0.109975 0.905
0.403073 0.0957628 0.615
0.790174 0.101013 0.325
0.821632 0.281433 0.608333
0.810487 0.76758 -0.8575
0.457723 1.03452 -0.568333
0.834636 0.607981 -0.5625
0.796274 0.781027 -0.279167
0.786966 0.827035 0.8775
0.50983 1.3052 0.588333
0.832574 0.645488 0.595
0.796312 0.808722 0.299167
-0.854343 0.351952 -1.43999
-0.372511 0.325 -1.93934
-2.76109e-05 0.059988 -1.4176
-1.61678e-06 0.187396 -1.87371
-0.86118 0.221014 -1.13042
-0.38412 0.120861 -1.125
-0.843054 0.482346 1.472
-0.381463 0.49 1.89885
-1.34668e-05 0.18637 1.46853
-8.79169e-07 0.343974 1.94784
-0.846339 0.299476 1.18792
-0.401441 0.168018 1.195
-1.90851e-06 0.771359 -1.46728
-1.8701e-06 0.491449 -1.93158
-0.872675 0.55744 -1.14125
-0.396358 0.831885 -1.14667
-1.11011e-05 1.17979 1.50401
-1.62423e-06 0.700674 1.9301
-0.839729 0.657386 1.17375
-0.393103 1.29021 1.16667
0.854194 0.351978 -1.43998
0.372501 0.325 -1.93934
0.861196 0.221093 -1.13042
0.384012 0.0584167 -1.125
0.843119 0.48235 1.47212
0.381578 0.49 1.89894
0.846358 0.299825 1.18792
0.401069 0.109197 1.195
0.872657 0.557467 -1.14125
0.396356 0.831876 -1.14667
0.839702 0.657383 1.17375
0.393074 1.29022 1.16667
-0.826848 0.267178 0.02875
-0.367366 0.143444 0.035
-0.888927 0.405856 -0.84625
-0.852455 0.439452 -0.267083
-7.98525e-05 0.0679857 -0.835
-9.25667e-05 0.0933735 -0.255
-0.846228 0.45274 0.312083
-0.839704 0.467038 0.89125
-6.57537e-05 0.0980443 0.325
-3.9387e-05 0.136161 0.905
-0.836337 0.625005 0.01625
-0.510445 1.27804 0.00999999
-1.73202e-06 0.913254 -0.8575
-1.08364e-05 1.23098 -0.279167
-2.92216e-05 1.32936 0.299167
-2.93099e-05 1.32373 0.8775
0.826815 0.267143 0.02875
0.394289 0.0896049 0.035
0.888918 0.405935 -0.84625
0.85246 0.439534 -0.267083
0.846231 0.452778 0.312083
0.839703 0.467049 0.89125
0.836354 0.625044 0.01625
0.510394 1.27798 0.00999999
-0.843068 0.205507 -1.42749
-0.867366 0.240855 -0.840625
-0.877205 0.58118 -0.851875
-0.838929 0.50872 -1.43791
0.843057 0.205547 -1.42749
0.839602 0.508734 -1.43791
0.877194 0.58122 -0.851875
0.867436 0.240973 -0.840625
-0.38015 0.109865 -1.4163
0.380095 0.0550195 -1.4163
0.383596 0.0617191 -0.835
-0.383756 0.116871 -0.835
-0.368029 0.765885 -1.45156
-0.399708 0.885427 -0.8575
0.399705 0.887717 -0.8575
0.368026 0.765829 -1.45156
-0.374346 0.188698 -1.90827
-0.356106 0.475724 -1.88437
0.356098 0.475724 -1.88436
0.374339 0.188698 -1.90858
-0.82525 0.260249 -0.261042
-0.824096 0.27436 0.318542
-0.825657 0.630853 0.305625
-0.835095 0.616272 -0.273125
0.825257 0.260272 -0.261042
0.835106 0.616318 -0.273125
0.825345 0.630706 0.305625
0.824103 0.274348 0.318542
-0.364213 0.138836 -0.255
0.390293 0.0865212 -0.255
0.398679 0.0926869 0.325
-0.371035 0.148051 0.325
-0.494881 1.17787 -0.279167
-0.515372 1.30203 0.299167
0.515306 1.30198 0.299167
0.494871 1.17788 -0.279167
-0.842681 0.290459 0.898125
-0.844128 0.313488 1.4785
-0.826491 0.654943 1.46392
-0.836975 0.647356 0.884375
0.842685 0.290663 0.898125
0.836978 0.64734 0.884375
0.826481 0.654942 1.46398
0.844127 0.313662 1.47856
-0.40065 0.162947 0.905
0.400412 0.10185 0.905
0.397051 0.183088 1.47676
-0.397238 0.181407 1.47676
-0.393819 1.31051 0.8775
-0.379914 1.1699 1.47992
0.379897 1.17018 1.47992
0.393766 1.31052 0.8775
-0.387248 0.335737 1.93366
0.387305 0.335737 1.93365
0.374149 0.676587 1.90608
-0.374094 0.676587 1.9061
-0.75423 0.1225 -1.71849
-0.56427 0.0513258 -1.70867
-0.755918 0.0574294 -1.56
-0.790449 0.24625 1.78221
-0.58955 0.19947 1.74053
-0.808295 0.136784 1.63
-0.699084 0.5275 -1.73307
-0.509549 0.62201 -1.75201
-0.719547 0.642064 -1.58042
-0.750839 0.73375 1.75956
-0.550086 0.87301 1.80301
-0.76177 0.836408 1.60042
0.564267 0.0513221 -1.70868
0.754236 0.1225 -1.7185
0.755923 0.0574223 -1.56
0.589549 0.200215 1.73979
0.790335 0.24625 1.7821
0.807111 0.137967 1.63
0.509545 0.621922 -1.75192
0.699083 0.5275 -1.73307
0.719542 0.642063 -1.58042
0.550082 0.873125 1.80313
0.750763 0.73375 1.75949
0.761755 0.836397 1.60042
-0.765301 0.0839732 -0.69
-0.770628 0.0906216 -0.4
-0.80549 0.165789 -0.547917
-0.565233 0.108679 -0.545
-0.805254 0.103899 0.76
-0.794576 0.102601 0.47
-0.807505 0.194021 0.611667
-0.584749 0.13295 0.615
-0.817591 0.781595 -0.712917
-0.822073 0.69333 -0.565417
-0.795862 0.773696 -0.42375
-0.667121 0.976181 -0.568333
-0.788895 0.822046 0.732917
-0.813601 0.731782 0.591667
-0.790229 0.80955 0.44375
-0.664172 1.08966 0.588333
0.764796 0.0844757 -0.69
0.576022 0.0868339 -0.545
0.770746 0.090502 -0.4
0.805509 0.165885 -0.547917
0.805399 0.103752 0.76
0.594966 0.112384 0.615
0.794344 0.102831 0.47
0.807512 0.19406 0.611667
0.817624 0.781632 -0.712917
0.667299 0.976543 -0.568333
0.822064 0.693353 -0.565417
0.795864 0.773702 -0.42375
[...]
POINT_DATA 3682
SCALARS point_scalars float 1
LOOKUP_TABLE default
-157.76
-58.5904
-20.4121
-41.3112
-153.956
-59.5156
-20.3998
-43.4758
-43.5034
-36.7901
-69.5891
-46.9229
-43.9174
-37.6707
-69.8578
-47.5743
-110.63
-84.9967
-60.6273
-36.8142
-60.2842
-60.2617
-43.7726
-50.2799
-84.9967
-61.8108
-36.4976
-55.8705
-49.3114
-42.0856
21.9038
-69.6345
-72.0955
-42.1217
-46.2567
-43.8556
-40.3746
8.31565
-45.2388
-109.799
-63.7897
-43.8223
-39.4983
-37.8548
-18.3501
-190.407
-43.0212
-36.8063
-56.5916
-44.5958
-41.44
-9.97801
-41.5646
-41.0607
151.707
-38.6702
-38.2672
31.433
-29.7512
-70.8635
-64.4447
-41.4044
-35.0375
-34.9948
-14.2592
-183.893
-43.8788
-37.7225
-56.5551
-45.5159
-42.0885
-14.2592
-42.2163
-41.6304
163.787
-40.6116
-40.33
31.5095
-31.958
-72.015
-64.7832
-43.0084
-37.4874
-38.0705
-108.572
-86.2018
-61.095
-37.707
-60.8314
-61.1443
-44.7491
10.6084
-86.2018
-62.2345
-37.3859
-56.5355
-50.4183
-42.9792
25.165
-70.539
-72.3255
-42.8162
-48.1607
-44.8826
-41.522
8.29907
-45.283
-97.6739
-64.2421
-45.5871
-41.6805
-39.984
-22.2399
-180.38
-64.7223
-46.0436
-45.3608
-42.3725
-5.70511
-56.2214
-31.349
-43.7889
-22.2018
-64.8066
-47.5979
-44.0501
-56.1764
-45.0712
-36.5587
-49.3631
-49.9307
-38.716
-42.3942
-56.5861
14.2439
-68.4344
-36.9933
-49.598
-39.4766
-56.997
-71.9744
-71.9216
-72.4009
-4.05627
207.419
-42.4229
-42.8606
-41.9493
-98.4484
-43.9985
-45.0923
-45.2349
-46.668
-39.4152
-12.0704
-159.323
-86.0012
-51.6736
-48.413
-44.2345
-30.7032
-6.18483
-43.0395
-45.0623
-33.2768
-45.9768
-141.777
-11.8606
-84.8012
-47.0417
-52.8727
-45.3431
-6.45855
-30.6121
-43.0777
-36.1695
-46.7988
-47.7917
-59.4339
-38.4984
-46.7401
-47.3267
-37.1587
-36.4436
-36.9384
-41.8958
-57.1231
-55.7694
-62.1194
1.2046
-44.6187
-42.0257
-51.0307
-61.3335
-59.4505
-47.5084
-38.878
-47.0158
-40.0182
-41.7604
-37.2528
-37.7753
-57.2565
1.21374
-56.0023
-62.5771
-45.5458
-61.7957
-42.7341
-51.5449
-81.6634
193.475
-94.6038
109.322
-69.5104
-69.0389
-49.0469
-39.3201
-43.5578
-41.2301
-44.2617
-43.0876
-20.5384
170.238
-69.5712
-11.9424
-33.9019
-38.1734
-43.2025
-47.0004
-81.4152
193.457
-69.4206
-68.3474
-50.4224
-40.5419
-45.3232
-51.4029
-69.5485
-12.5772
-44.4013
-47.9137
-39.3363
-40.5785
-62.922
-43.9122
-58.6212
-44.6671
-41.4404
-38.5057
-41.2452
-43.5591
-47.6013
-94.6686
23.8146
-56.4024
-82.7332
-57.2204
-39.7626
-40.632
-63.1097
-44.2334
-42.0358
-39.4
-48.037
-95.0744
-80.3964
-60.0361
-63.9427
-68.0155
-80.2233
-67.9654
-64.055
-60.244
-88.1875
-87.3221
-58.8257
-57.1234
-23.5485
9.15306
10.1618
-23.6927
147.582
133.978
134.157
147.92
-40.5967
-39.0158
-45.5694
-50.9564
-40.9145
-51.3035
-46.0994
-39.6668
-42.8581
-42.8597
-40.2632
-40.0706
-50.0865
-72.7294
-73.1326
-50.5812
-36.0525
-48.2763
-48.1968
-41.6781
-37.075
-42.5761
-49.7457
-49.4159
-41.2243
-44.2835
-43.0535
-43.7908
-55.5802
-35.583
-37.1654
-56.109
-41.5422
-42.1103
-40.3805
-38.5741
-52.0047
-159.569
-112.604
-53.004
-50.8948
-48.6172
-13.1915
-14.3116
-36.3737
-43.9975
-35.9123
-43.4178
-143.965
-51.1432
-110.388
-50.4276
-54.1161
-49.1337
-14.2727
-13.0862
-36.4571
-38.2672
-46.0192
-45.4474
-47.3317
-39.4003
-44.8229
-45.5645
-37.081
-36.4383
-36.4726
-41.1197
-74.2593
-60.6589
-67.0486
-44.6819
-45.4258
-44.3795
-49.2861
-53.3319
-48.1884
-45.4076
-39.8551
-45.1643
-38.6134
-41.0739
-37.3315
-37.3656
-74.4557
-45.4926
-60.9042
-67.3516
-46.2156
-53.8873
-45.0775
-49.9017
-12.4378
-20.0155
-92.0068
124.668
-172.948
-170.589
-115.613
38.4438
-73.8123
-59.3626
-68.3414
-65.6672
-48.6183
-46.1637
-51.2657
-39.382
-46.5666
-45.5062
-44.1057
-43.0479
-43.0788
-41.0158
-44.5663
-42.252
-7.83958
-8.02048
-26.4931
87.1827
-56.3495
-54.2906
-63.7247
-25.3586
-30.956
-33.2757
-31.5476
-34.6138
-45.7238
-44.1515
-42.1661
-48.0247
-12.4384
-19.9082
-91.8232
124.923
-73.5026
-59.6664
-68.2562
-65.6788
-49.8975
-47.688
-52.87
-40.7152
-44.0945
-42.7878
-45.5841
-47.5083
-56.4299
-54.2447
-63.7708
-25.4644
-47.2425
-45.2369
-43.4094
-49.2587
-38.6454
-35.6252
-38.3152
-39.633
-48.0326
-52.0391
-62.8693
-45.7967
-49.4303
-49.3638
-53.7978
-46.8975
-37.7692
-40.0094
-39.5484
-38.0631
-42.9769
-42.1211
-41.654
-42.7628
-59.3644
-53.4995
-51.5814
-73.5832
11.9001
11.9232
26.3256
-13.8453
-67.1429
-67.3991
-74.6139
-62.6399
-38.9479
-35.6612
-38.7523
-39.2641
-48.2879
-52.2653
-63.0736
-46.0853
-38.5651
-40.7377
-40.2167
-38.9083
-59.756
-53.9525
-52.0078
-74.0381
-83.3551
-70.5195
-73.9419
-65.2073
-83.2943
-70.4599
-73.8656
-65.2305
-82.1235
-71.8407
-71.3497
-64.7517
-12.899
-6.49476
-6.63496
9.77783
200.242
129.048
204.167
200.23
-40.7508
-42.9042
-42.5215
-45.0626
-41.1873
-43.2772
-43.0368
-45.5028
-41.6903
-43.0595
-41.4001
-41.6416
-96.3602
-107.802
-86.8425
-96.5374
-46.2243
-44.0855
-43.9772
-40.8051
-47.4155
-45.1553
-45.1123
-41.8011
-43.5974
-43.8928
-49.7373
-44.26
-40.2827
-46.6206
-47.1217
-51.959
-39.2303
-41.5225
-39.5726
-40.0734
-100.956
77.8439
-105.155
68.7159
-76.492
-84.1478
-53.0334
-41.81
-45.6966
-44.253
-47.614
-44.3756
-61.1904
104.689
-31.5675
83.0326
-66.5558
-29.0215
-48.0549
-39.4751
-33.2101
-35.8446
-46.9476
-39.52
-103.304
70.7896
-100.621
79.5983
-76.1507
-83.2688
-44.4226
-44.6153
-54.281
-42.6889
-48.6534
-44.054
-31.3313
82.9566
-61.0385
104.634
-66.5738
-29.1313
-35.2386
-38.7298
-49.814
-40.9758
-48.629
-41.3595
-60.6663
-57.0405
-39.5503
-41.3625
-58.7501
-42.3942
-51.449
-44.8185
-33.4759
-42.7028
-38.0062
-39.3663
-37.8198
-35.5198
-40.5914
-40.9567
-62.7462
-14.533
-68.8503
-52.6294
-55.8149
-97.9242
12.2804
-19.9103
-43.0832
-51.4948
-42.9205
-41.518
-48.5825
-59.8785
-67.9384
-58.3295
-60.6093
-57.7727
-51.3126
-44.8408
-39.8853
-40.9823
-59.0042
-42.6838
-34.7018
-44.8241
-40.7406
-42.3668
-38.6602
-39.3277
-38.5418
-36.4778
-62.8476
-13.3044
13.0287
-20.0476
-69.0629
-52.9153
-56.213
-98.2828
-43.9963
-52.236
-68.1824
-58.8032
-43.55
-42.3199
-49.0769
-60.3944
-84.1895
-72.0421
165.02
186.824
-93.1544
-92.6297
112.192
112.473
-83.786
-63.8295
-77.1601
-62.3821
-48.4135
-48.9564
-41.1186
-39.7245
-43.0698
-43.6433
-41.2125
-41.5913
-40.3615
-44.6322
-41.5136
-42.9941
-20.9706
-21.0499
156.362
156.304
-62.7873
-77.4656
-19.9668
-1.15719
-34.245
-35.2286
-39.3515
-37.9538
-47.1238
-42.2908
-51.577
-42.8546
-84.0079
-71.894
186.362
165.474
-83.6418
-63.857
-76.4315
-62.3585
-50.4228
-49.6543
-41.5712
-40.9133
-41.4087
-45.6812
-45.2461
-44.1559
-77.5039
-62.8554
-3.43073
-20.2139
-43.2912
-48.4571
-44.1446
-52.2617
-39.729
-39.2528
-41.3873
-40.0645
-61.7994
-64.9369
-42.1088
-47.0769
-59.0513
-58.263
-44.2589
-44.2294
-40.1178
-43.5747
-37.3405
-39.8742
-41.0307
-41.0453
-42.2577
-43.6974
-47.6193
-49.3018
-106.594
-81.1454
20.0339
20.1142
-50.1367
-49.6178
-81.504
-81.6929
-56.6944
-56.978
-40.0879
-39.7866
-41.5057
-40.2503
-65.0525
-62.0204
-42.4281
-47.4068
-44.1418
-40.7356
-38.2595
-40.7736
-49.6905
-48.1496
-81.5545
-106.792
-100.012
-82.308
-82.6388
-101.665
-53.8183
-60.5795
-64.6509
-62.6011
-73.5484
-60.008
-65.33
-65.1161
-49.4222
-80.6628
-85.3857
-72.7578
-98.0139
-101.383
-82.5445
-82.1011
-49.3832
-72.7656
-85.3438
-80.5979
-73.7877
-65.3208
-65.3876
-60.0408
-54.272
-62.6424
-64.6636
-60.7717
-103.308
-112.433
-81.3599
-73.3606
-100.721
-72.8533
-80.4824
-112.069
-49.2807
-53.2038
-64.242
-60.508
-49.1127
-60.152
-64.1552
-53.2699
-33.0573
-27.9285
-14.0592
-30.2515
-18.2515
22.7429
6.96806
-21.2842
-20.311
-19.6791
7.01811
23.0008
-33.1814
-30.3068
-14.1867
-28.1138
21.0901
102.527
144.877
19.7413
85.6578
92.0101
203.727
125.02
84.9334
125.074
203.089
92.3499
23.895
20.4819
145.16
103.528
-41.2006
-38.7259
-41.1784
-43.9266
-37.3033
-38.6137
-40.8077
-38.1562
-45.7534
-51.3392
-44.9427
-40.9599
-58.3071
-48.9829
-45.9135
-53.5115
-41.5263
-44.2124
-41.5469
-39.0909
-58.6097
-53.9155
-46.2945
-49.2751
-46.3706
-41.6021
-45.4484
-51.8514
-38.0395
-38.7444
-41.3357
-39.3101
-43.1632
-46.3993
-42.6995
-40.2353
-42.7386
-39.8741
-42.696
-46.3947
-39.9664
-41.3847
-41.1649
-39.0676
-39.974
-39.2293
-41.1273
-41.5013
-91.5923
-83.3464
-108.613
-11.8749
-59.2883
-73.3362
-87.9541
-65.6792
-59.81
-66.1605
-88.1307
-73.5296
-92.1209
-12.0104
-108.662
-83.7025
-35.0999
-39.8261
-40.6901
-36.6596
-54.6548
-51.8579
-45.5739
-42.9679
-45.9369
-46.2304
-46.902
-49.9662
-43.4296
-39.505
-41.1133
-43.7434
-36.1828
-37.5486
-41.7127
-40.9495
-44.2288
-44.7854
-42.1024
-40.3222
-47.8003
-51.599
-48.1707
-47.6477
-55.7497
-43.869
-46.6978
-53.2599
-40.4756
-41.7129
-42.8602
-41.1691
-42.3965
-45.2765
-45.1425
-42.573
-46.6325
-43.8584
-43.8195
-44.4985
-47.2162
-42.8933
-43.5293
-44.8117
-50.477
-50.0033
-51.7204
-61.3795
-35.7587
-31.6627
-40.7834
-45.1773
-37.7873
-46.7908
-41.4947
-33.1981
-51.1541
-61.6422
-52.0898
-50.9695
-44.7612
-43.3052
-41.461
-41.1333
-45.7142
-41.8823
-41.6869
-43.4629
-40.459
-36.8467
-40.3086
-41.4544
-38.3983
-40.3982
-39.4178
-34.6263
-95.8555
-174.016
-149.537
-56.2397
-57.663
-58.6071
-15.3293
-10.0039
-46.3916
-42.977
-37.2641
-41.4905
-166.147
-94.1346
-146.553
-54.9538
-57.3115
-59.0272
-10.0816
-15.2718
-46.4618
-39.421
-45.0896
-43.5868
-45.8152
-40.3903
-44.0528
-44.0301
-36.6424
-36.7426
-36.4837
-39.9136
-76.1999
-65.2393
-70.5608
-87.3568
-46.115
-45.5445
-47.9785
-50.2181
-46.2297
-44.4779
-40.8128
-44.4117
-37.8176
-40.4213
-37.4986
-37.3997
-76.4651
-87.8407
-65.4971
-70.8537
-46.8383
-50.8191
-46.2258
-48.6052
-19.9545
-23.1021
-79.9473
67.1836
-176.578
-179.267
-139.438
-72.7504
-68.5314
-61.5412
-68.3696
-64.2467
-47.0948
-46.5671
-50.5174
-40.7947
-45.9818
-45.4248
-44.751
-44.1898
-42.3228
-40.9524
-44.81
-41.2936
-6.4432
-6.28329
-22.7455
32.5869
-55.7991
-56.8695
-63.6631
-36.9045
-30.8891
-32.1714
-31.0827
-31.9825
-44.6409
-43.614
-43.2066
-45.264
-19.9812
-23.0098
-79.6616
67.4558
-68.5015
-61.7539
-68.2465
-64.5079
-48.556
-48.12
-52.1228
-42.2114
-43.5778
-42.8586
-45.8386
-44.2973
-55.7752
-56.7821
-63.3813
-36.7721
-46.0391
-44.7849
-44.4921
-46.5671
-37.7837
-35.0821
-37.3587
-38.3687
-48.6684
-50.8307
-55.7475
-47.1252
-49.7219
-49.839
-51.7265
-48.224
-38.1977
-39.3467
-39.0716
-38.3433
-42.9454
-42.2259
-41.9149
-42.4543
-58.0367
-54.8284
-54.5025
-64.0552
13.6512
13.6505
23.0548
3.71327
-68.0567
-68.2115
-71.5783
-65.2775
-38.1046
-35.5454
-37.804
-38.5132
-48.9153
-51.0564
-55.9753
-47.3892
-38.9755
-40.0902
-39.7852
-39.1483
-58.4281
-55.265
-54.9239
-64.4701
-77.4428
-71.0741
-73.351
-68.0294
-77.3493
-71.0217
-73.2806
-68.0209
-76.9435
-72.0026
-72.2063
-68.3471
-8.08894
-4.70669
-4.75775
1.15693
186.413
166.255
202.041
186.485
-41.4566
-42.6438
-42.4096
-43.6111
-41.8929
-43.0471
-42.8844
-44.0508
-41.8929
-42.4833
-41.6218
-41.9179
-97.7565
-99.5109
-95.5419
-97.8612
-44.9188
-43.9973
-43.9926
-42.1657
-46.0546
-45.078
-45.104
-43.2079
-44.5816
-44.2788
-47.8196
-45.118
-43.4498
-46.5187
-46.7677
-49.3022
-39.2793
-40.822
-39.6484
-39.8618
-29.5365
-7.9001
-110.406
52.8089
-159.698
-166.416
-123.259
-51.2775
-95.6642
-79.8986
-78.4622
-83.3904
-51.0068
-49.7899
-53.1542
-43.4954
-49.219
-47.665
-47.4107
-46.0515
-45.612
-44.186
-47.9186
-44.1143
-19.7037
-19.3512
-60.8717
57.6613
-11.6104
-5.98269
-26.2351
39.2365
-37.1537
-55.3516
-58.5889
-32.6248
-44.4185
-45.417
-48.0749
-40.4782
-34.4859
-32.0702
-33.0948
-33.8122
-44.4258
-46.5784
-46.6525
-42.1977
-139.581
-153.817
-120.137
-46.159
-28.9582
-7.9806
-109.444
53.2237
-94.0528
-79.1312
-77.689
-82.5391
-48.4357
-46.191
-45.9369
-45.9595
-52.1243
-51.0164
-54.3893
-44.4548
-47.2743
-44.7419
-48.8272
-44.6243
-12.2724
-6.14603
-26.309
39.0152
-19.5857
-19.1926
-60.6665
57.5703
-37.2028
-55.4555
-58.5779
-32.745
-37.2426
-34.9704
-35.5177
-37.067
-46.3775
-47.0609
-49.8771
-42.0258
-46.3327
-48.2613
-48.3626
-44.0816
-53.7992
-58.1873
-62.8267
-57.1888
-38.4289
-38.2894
-38.7597
-39.8855
-45.7132
-47.2053
-51.3459
-43.9901
-46.9095
-48.3217
-49.3769
-45.7675
-38.1794
-42.7098
-31.7169
-41.2442
-36.4922
-35.2685
-37.3474
-38.1568
-36.616
-37.385
-37.416
-36.4055
-41.2247
-42.8626
-40.9959
-41.4713
-62.5389
-53.4255
-62.6527
-31.8057
-57.9662
-53.9597
-61.7419
-53.8459
-63.5648
-60.7144
-59.1729
-75.805
-13.5962
8.4784
8.64548
-10.5279
-45.0794
-44.2486
-43.8357
-47.5974
-43.2831
-40.8097
-42.3438
-41.6893
-50.7466
-51.5013
-49.7292
-56.0063
-56.0724
-65.0978
-64.3344
-60.3695
-54.3862
-58.5026
-62.3249
-57.7461
-46.2806
-48.6493
-49.1668
-46.1081
-38.8864
-38.6471
-39.1163
-40.0504
-46.0354
-47.4579
-51.6446
-44.2601
-40.0223
-43.4835
-33.3018
-43.5402
-41.2587
-41.9633
-41.1426
-42.0764
-37.3507
-37.1955
-38.0218
-38.6237
-37.4771
-38.2008
-38.1904
-37.3072
-62.6656
-53.5838
-62.7465
-33.0651
-13.7718
8.48915
8.83698
-10.6714
-58.2043
-54.1903
-61.9618
-54.1061
-63.7368
-61.2839
-59.6069
-76.1899
-45.9371
-45.2501
-44.7573
-48.4729
-56.6216
-65.4442
-64.6862
-60.8415
-43.986
-41.5254
-43.0106
-42.4445
-51.3151
-51.984
-50.2454
-56.5018
-86.2085
-86.457
-83.7017
-76.8693
168.636
194.756
180.818
195.116
-103.434
-87.6434
-93.684
-93.9315
86.9357
105.539
101.886
102.04
-68.6521
-69.9727
-75.0385
-66.1092
-66.911
-70.6275
-72.7441
-65.6123
-50.8657
-47.6595
-48.6159
-49.237
-39.2246
-39.2015
-40.0051
-39.8814
-43.7917
-43.2362
-43.2811
-43.6245
-41.8948
-40.9994
-41.2186
-41.3751
-44.4474
-44.1902
-42.066
-44.0324
-42.5381
-43.5613
-42.0767
-43.0223
-25.0929
-16.5353
-20.7578
-20.8053
137.792
201.859
160.19
160.012
-66.375
-73.2551
-65.5463
-73.7412
-17.7013
-8.51558
-16.1212
-7.339
-32.5273
-36.6481
-33.9116
-34.4524
-36.8703
-39.0041
-38.7981
-38.0068
-42.1828
-43.9199
-44.8615
-42.0511
-47.4411
-46.7858
-49.3091
-45.1341
-86.1669
-86.2795
-83.4796
-76.6525
168.764
195.117
194.876
181.068
-68.5884
-69.8951
-74.9665
-66.0726
-66.596
-69.9761
-72.1004
-65.1349
-52.3576
-48.9172
-50.6677
-49.917
-40.5423
-40.327
-40.8634
-40.939
-45.4955
-45.2534
-43.1097
-45.0864
-50.1585
-50.9625
-46.1672
-47.6997
-66.3768
-73.1998
-73.7388
-65.5688
-18.2739
-8.88784
-8.39553
-16.4734
-43.3783
-45.086
-43.1323
-46.1512
-48.5139
-47.5087
-46.2281
-50.0975
-38.6685
-40.0525
-39.5034
-39.2498
-40.3169
-41.1338
-40.9512
-40.1718
-62.0007
-64.0279
-62.2287
-63.9032
-44.6838
-43.3623
-42.8929
-45.3277
-55.9838
-61.596
-58.9496
-58.6041
-45.7276
-43.7901
-44.4556
-44.6118
-40.0715
-42.825
-40.7132
-42.5666
-37.9451
-40.0243
-37.8471
-39.2247
-41.3498
-41.2535
-41.2528
-41.1322
-43.9487
-43.8873
-42.719
-43.3735
-49.1991
-46.5411
-47.111
-48.5684
-89.3303
-95.1519
-101.674
-86.9838
25.9081
17.4074
22.657
22.5136
-29.2895
-93.209
-54.7232
-54.6642
-78.3718
-86.5641
-82.4558
-82.5451
-60.0537
-54.4051
-56.8531
-57.004
-39.0908
-40.4851
-39.8927
-39.7222
-39.8915
-41.2114
-41.0095
-40.3692
-62.2029
-64.1168
-64.0551
-62.3884
-44.9826
-43.7081
-43.214
-45.6513
-40.6999
-43.3876
-43.1467
-41.3204
-38.8176
-40.9712
-38.7479
-40.1267
-49.6291
-46.9795
-48.9767
-47.5878
-89.909
-95.4228
-87.3442
-102.142
-88.8436
-79.9769
-81.5347
-84.8133
-58.6894
-60.5124
-62.5788
-61.2495
-63.1567
-66.4667
-62.8095
-64.567
-66.8027
-68.8485
-70.0582
-74.7892
-88.8032
-79.6738
-81.3812
-84.6188
-66.518
-68.9001
-70.0597
-74.8998
-63.257
-66.65
-62.8854
-64.6704
-58.8054
-60.7728
-62.6649
-61.4717
-96.5091
-85.9932
-91.4225
-81.6086
-93.9349
-84.903
-90.1943
-81.3162
-58.3459
-55.0467
-60.0444
-58.9884
-56.9504
-54.6149
-59.0177
-57.6192
-28.8591
-27.3392
-21.552
-22.4834
-5.11378
12.0559
5.09829
15.407
-0.121597
13.2657
3.18895
16.2803
-28.9682
-27.4815
-21.682
-22.7122
135.148
125.96
155.621
137.07
124.711
123.614
160.593
145.987
122.493
124.871
145.953
159.831
126.412
135.868
136.999
156.137
-40.0349
-41.3419
-40.1376
-41.3579
-38.5039
-38.1249
-39.523
-39.5194
-43.2295
-47.1799
-44.6628
-47.8488
-51.7022
-53.1199
-49.129
-50.0935
-40.3562
-41.6443
-40.4742
-41.6756
-52.0151
-53.4897
-49.4665
-50.4646
-43.7814
-47.6767
-45.2191
-48.3863
-39.1676
-38.8089
-40.1491
-40.1478
-42.1772
-43.8134
-42.0534
-43.6531
-43.7621
-41.889
-43.6638
-42.0933
-40.4833
-39.6478
-40.6949
-40.2279
-39.7858
-40.2891
-39.9512
-40.576
-79.038
-34.863
-64.2424
-47.2686
-64.5256
-70.8029
-76.7145
-78.8153
-71.1532
-65.1222
-79.0874
-77.1392
-35.2634
-80.0385
-47.4899
-64.6429
-34.7535
-33.0595
-40.4304
-36.8842
-50.8569
-47.9538
-48.3219
-46.5622
-48.1511
-47.5325
-48.6187
-48.4808
-42.4318
-41.5062
-42.0186
-40.6853
-35.8497
-34.0395
-41.4817
-37.8468
-43.3349
-42.3532
-42.9644
-41.5826
-49.7968
-49.1166
-50.1269
-49.9069
-52.0574
-49.042
-49.5101
-47.6552
-41.6381
-41.0303
-41.3178
-41.7183
-44.9876
-43.1955
-44.7472
-43.856
-43.5495
-43.4572
-42.9673
-43.2237
-44.5967
-44.0989
-43.6838
-43.486
-55.059
-57.5559
-53.6788
-56.3083
-34.0288
-37.0423
-34.9225
-39.8142
-35.7508
-38.7556
-36.2655
-41.0965
-55.7364
-58.0576
-54.28
-56.7198
-41.5526
-42.506
-41.4776
-41.443
-43.0581
-42.2783
-41.9296
-41.8855
-39.882
-40.7161
-39.9478
-40.6573
-39.1059
-37.5826
-39.1786
-38.2375
-132.232
33.3809
-128.56
-74.8204
-102.884
-106.624
-56.3116
-45.6378
-48.9662
-46.6479
-53.8224
-48.3955
-60.0498
58.5228
-34.1895
46.3981
-44.9647
-34.8818
-46.6171
-39.6384
-35.4035
-37.1217
-44.4722
-38.8071
-122.679
-69.7819
-130.246
34.905
-103.308
-104.492
-48.406
-47.2659
-57.4496
-46.5466
-54.6811
-48.329
-34.2758
46.6251
-60.0284
58.6088
-45.024
-35.0149
-37.5468
-39.495
-48.6288
-41.491
-46.4111
-40.9297
-49.9153
-47.9002
-39.6291
-41.4553
-48.2933
-42.5877
-47.1658
-44.3
-35.3575
-38.6652
-36.8959
-38.642
-36.8913
-35.9072
-40.4083
-41.1647
-75.8335
-54.769
-66.5695
-59.6738
-62.6287
-89.4869
-27.085
-70.8088
-44.4271
-47.9411
-45.061
-43.812
-47.3446
-54.8178
-56.136
-51.8287
-50.6863
-48.4497
-47.2535
-43.96
-40.0389
-41.6932
-48.5931
-42.8952
-36.5722
-41.0689
-41.1554
-41.1886
-37.6921
-39.1843
-37.6859
-36.901
-76.0514
-54.5465
-27.6086
-71.5469
-66.8041
-59.9475
-62.9369
-89.7476
-45.2256
-48.6603
-56.6423
-52.4428
-45.7145
-44.5607
-47.9655
-55.3709
-96.9898
48.3075
-65.5043
73.3976
-96.4682
-86.9112
115.476
131.271
-128.712
-116.538
-134.526
-114.326
-114.159
-113.386
14.6242
14.8065
-81.1315
-72.1485
-61.7345
-58.9951
-72.4103
-64.5762
-69.1936
-62.8055
-51.6573
-42.5302
-49.3894
-41.3584
-51.3933
-50.9372
-40.0756
-40.1252
-45.9259
-45.4056
-44.8151
-45.0645
-43.9047
-44.4274
-43.0539
-43.0786
-41.9327
-42.9498
-39.5333
-41.2569
-41.2147
-42.5962
-41.3656
-42.7675
-25.5718
33.11
-25.5817
32.9625
-27.5005
-27.5269
87.4111
88.3111
-71.3217
-38.9091
-60.2622
-35.0815
-61.3867
-68.3193
-25.0368
-23.8014
-31.3554
-32.0357
-33.193
-34.5583
-31.4255
-32.2798
-35.6684
-34.3083
-45.7063
-45.9994
-43.7124
-46.4527
-44.3524
-42.4618
-49.6472
-47.0783
-96.5128
48.8387
-65.3048
73.4431
-96.2278
-86.8327
131.387
115.902
-80.7408
-72.0197
-61.7689
-59.6119
-72.3685
-64.5253
-69.023
-62.8754
-53.0493
-43.4825
-51.0266
-42.6675
-52.5362
-52.9086
-41.1027
-41.2577
-42.7079
-44.5467
-40.8317
-43.9237
-42.3523
-43.5658
-45.5801
-46.4142
-71.2727
-39.0179
-60.2691
-34.579
-68.2791
-61.4057
-23.6615
-25.2217
-47.1551
-47.6246
-44.7741
-47.514
-43.5108
-45.7713
-48.4784
-50.7525
-38.3927
-38.938
-37.1735
-38.0219
-38.4032
-38.2083
-39.9279
-39.3478
-52.7982
-45.4722
-58.86
-50.0973
-62.0261
-63.7454
-44.7051
-47.0489
-51.1667
-47.8639
-51.1577
-47.7058
-53.7053
-53.5189
-46.6698
-46.8398
-38.1607
-37.2575
-40.3904
-39.71
-39.0415
-40.2244
-37.3479
-38.8285
-41.9549
-42.4823
-41.6463
-42.3701
-41.5906
-41.5658
-42.0837
-42.682
-56.6519
-69.518
-52.2275
-59.4519
-51.3937
-52.713
-77.8792
-69.3175
19.536
2.45026
19.6237
2.40686
25.3645
25.3791
-12.9929
-12.753
-70.3242
-63.9811
-70.5532
-64.2362
-74.3305
-74.4095
-62.3801
-62.5169
-38.7385
-39.0548
-37.5451
-38.3555
-38.7991
-38.6712
-39.464
-39.1573
-53.0429
-45.7432
-59.0787
-50.3609
-63.9547
-62.2263
-44.9891
-47.3505
-38.9051
-38.1027
-41.0742
-40.4835
-40.8787
-39.7239
-38.2133
-39.657
-57.0477
-69.8912
-52.699
-59.9082
-53.1261
-51.8594
-69.7865
-78.3015
-83.0193
-84.0696
-75.8935
-67.1998
-68.4335
-76.8574
-64.8986
-65.8637
-82.9467
-84.0179
-75.8094
-67.1814
-76.7793
-68.4451
-65.8883
-64.9114
-81.9376
-81.6142
-76.4628
-67.7164
-75.6597
-67.5655
-64.7165
-64.3083
-13.2135
-13.2727
-9.70915
-1.72915
-1.80762
-9.84906
9.15452
9.21783
173.952