# vtk DataFile Version 2.0
tri_press
ASCII
DATASET UNSTRUCTURED_GRID
POINTS 3682 float
-0.867415 0.165 -1.885
-0.595 0.275 2.23202
-0.695 0.733279 -2.005
-0.655 0.968851 2.055
0.681791 0.175 -2.115
0.555 0.275 2.22935
0.730141 0.735 -2.005
0.625 0.965 2.04862
-0.811592 0.166684 -0.51266
-0.74268 0.181458 0.85968
-0.773416 0.903552 -0.651667
-0.760206 0.982199 0.701667
0.687461 0.160399 -0.666883
0.664883 0.174047 0.781234
0.785367 0.901939 -0.653794
0.750205 0.978492 0.697413
-1.66606 -0.2462 -2.91006
-1.65222 -0.191047 -1.81041
-1.59245 -0.184309 -0.431998
-1.48978 -0.177128 0.948691
-1.36557 -0.113438 2.32757
-1.33438 -0.0662314 3.42913
-1.33982 -0.0270044 4.53003
-1.62271 0.0839905 -2.9389
-1.61701 0.15792 -1.84833
-1.56947 0.184739 -0.484033
-1.46459 0.195859 0.877546
-1.31418 0.252737 2.24344
-1.2941 0.298618 3.34822
-1.31014 0.338156 4.45422
-1.50431 0.713907 -3.01969
-1.48916 0.786414 -1.96079
-1.51986 0.913255 -0.615522
-1.46689 0.97178 0.727092
-1.34436 0.978808 2.07809
-1.30084 1.02168 3.18746
-1.2969 1.06724 4.30233
-1.36714 1.76367 -3.1496
-1.36508 1.84968 -2.079
-1.39023 1.98405 -0.749984
-1.40454 2.08152 0.574566
-1.37954 2.12293 1.91399
-1.34368 2.14957 3.00623
-1.31296 2.18395 4.11123
-0.917126 -0.242069 -2.96594
-0.902258 -0.185334 -1.86782
-0.848963 -0.194642 -0.474964
-0.781976 -0.187916 0.926387
-0.688115 -0.103411 2.31948
-0.659667 -0.060159 3.41886
-0.6611 -0.0255771 4.51578
-0.874945 0.0821151 -2.98248
-0.616505 0.304866 3.33778
-0.632189 0.339152 4.44019
-0.753168 0.691356 -3.04396
-0.621775 1.01843 3.17175
-0.616303 1.06491 4.28589
-0.614016 1.74787 -3.17196
-0.608637 1.83452 -2.09794
-0.64194 1.97966 -0.767727
-0.680433 2.08397 0.555431
-0.679814 2.1223 1.8935
-0.650577 2.14683 2.98565
-0.61999 2.18107 4.09056
0.60146 -0.238003 -3.11518
0.62794 -0.180692 -2.05266
0.643277 -0.198962 -0.61421
0.622566 -0.19397 0.848039
0.566378 -0.105852 2.29085
0.619668 -0.0628476 3.39091
0.661038 -0.0288106 4.48141
0.639838 0.0871482 -3.12601
0.640006 0.302507 3.31815
0.682196 0.335965 4.41002
0.727831 0.694141 -3.11523
0.676144 1.01508 3.1541
0.713772 1.06146 4.25824
0.878138 1.74797 -3.22752
0.887011 1.83398 -2.14188
0.856713 1.97772 -0.803628
0.78702 2.08078 0.524427
0.734527 2.11862 1.86475
0.738952 2.14314 2.95518
0.763846 2.17744 4.05657
1.3616 -0.240592 -3.17621
1.38779 -0.186373 -2.10625
1.39199 -0.190688 -0.66841
1.34219 -0.18752 0.801901
1.26237 -0.120529 2.24861
1.28697 -0.0726401 3.36095
1.33113 -0.0337598 4.45577
1.40195 0.0909281 -3.19179
1.43522 0.16561 -2.14001
1.44037 0.178452 -0.708851
1.38065 0.184848 0.74453
1.26833 0.24607 2.1822
1.29969 0.292453 3.29252
1.34884 0.331444 4.38737
1.4837 0.718408 -3.17964
1.50408 0.790256 -2.08815
1.52893 0.909609 -0.716608
1.46037 0.963256 0.658069
1.33444 0.970679 2.03124
1.34692 1.01453 3.13852
1.38783 1.06018 4.24088
1.6194 1.76358 -3.26739
1.62674 1.84836 -2.17776
1.59859 1.98006 -0.832478
1.52438 2.07517 0.503898
1.45643 2.11564 1.84969
1.44626 2.14223 2.9404
1.46357 2.17673 4.04004
-0.795801 0.449139 -1.95959
-0.092812 0.145258 -2.02474
-0.828155 0.177191 -1.19883
-0.659283 0.621925 2.17779
-0.02 0.280572 2.22511
-0.690091 0.206978 1.54585
0.0175705 0.811588 -2.08245
-0.77974 0.863948 -1.32833
-0.015 1.04048 2.12537
-0.733619 1.00154 1.37833
0.747354 0.455 -2.10139
0.702853 0.149473 -1.39094
0.624867 0.62 2.17385
0.629738 0.204727 1.50529
0.802754 0.86347 -1.3294
0.713554 0.997698 1.37302
-0.779526 0.171681 0.17351
-0.868794 0.535118 -0.582164
-0.0620655 0.160767 -0.589772
-0.882741 0.581829 0.780673
-0.0388986 0.173555 0.820457
-0.769627 0.945692 0.025
0.00597545 1.18806 -0.65273
-0.00500017 1.3861 0.69954
0.675656 0.167739 0.057175
0.877299 0.531169 -0.660339
0.867936 0.576269 0.739323
0.770455 0.942885 0.0218099
-0.895404 0.492129 -1.26358
0.870462 0.493085 -1.36017
-0.0774388 0.146372 -1.29489
0.011773 0.957014 -1.32887
-0.0376208 0.45207 -2.33239
-0.879459 0.558473 0.099255
0.877251 0.553719 0.0394925
-0.0504821 0.168691 0.115342
0.000487639 1.39901 0.023405
-0.867778 0.601877 1.46209
0.891472 0.598135 1.43915
-0.0294493 0.235469 1.52557
-0.0100001 1.24801 1.37568
-0.0175 0.620963 2.31313
-0.838167 0.30707 -1.92886
-0.480114 0.142816 -1.96718
-0.832945 0.185936 -1.54192
-0.632657 0.448463 2.21042
-0.3075 0.283475 2.22288
-0.629885 0.25365 1.88893
-0.759145 0.591209 -1.99604
-0.338715 0.79802 -2.06931
-0.764854 0.826097 -1.66667
-0.658426 0.795388 2.11768
-0.335 1.02793 2.11345
-0.70221 0.993097 1.71667
0.29449 0.152884 -2.07712
0.703606 0.315 -2.09723
0.707913 0.146645 -1.75297
0.2675 0.283472 2.22155
0.595034 0.4475 2.2067
0.584773 0.24746 1.86732
0.373856 0.798829 -2.06926
0.748776 0.595 -2.06322
0.793604 0.826392 -1.6672
0.305 1.02729 2.11154
0.627364 0.7925 2.11367
0.677575 0.989647 1.71082
-0.819331 0.17248 -0.855745
-0.793342 0.1714 -0.169575
-0.87599 0.333003 -0.547412
-0.43758 0.162224 -0.551216
-0.709049 0.201554 1.20277
-0.75984 0.177833 0.516595
-0.881761 0.347118 0.820177
-0.394926 0.169233 0.840068
-0.775581 0.882753 -0.99
-0.858389 0.737977 -0.616915
-0.77123 0.924331 -0.313333
-0.435148 1.14866 -0.652199
-0.748954 0.993912 1.04
-0.867422 0.804988 0.74117
-0.766915 0.965945 0.363333
-0.465964 1.35087 0.700603
0.692045 0.158049 -1.02891
0.310879 0.16422 -0.628328
0.679329 0.166299 -0.304854
0.878068 0.297941 -0.663611
0.661234 0.175464 1.14326
0.314431 0.170925 0.800845
0.672285 0.168878 0.419204
0.864531 0.326098 0.760279
0.792998 0.881643 -0.991595
0.447598 1.14885 -0.653262
0.868131 0.734953 -0.657066
0.777566 0.922067 -0.315992
0.733956 0.990171 1.03522
0.456561 1.35021 0.698477
0.854998 0.800344 0.718368
0.762227 0.962585 0.359612
-0.887784 0.470634 -1.61159
-0.416711 0.450605 -2.29562
-0.0851254 0.146301 -1.65981
-0.0652164 0.298664 -2.32617
-0.8874 0.33466 -1.23121
-0.452797 0.148623 -1.24686
-0.843265 0.611901 1.81994
-0.338391 0.621444 2.28912
-0.0247247 0.251423 1.87534
-0.01875 0.450767 2.33585
-0.851576 0.404427 1.50397
-0.35977 0.245029 1.53571
0.0146717 0.903364 -1.70566
-0.0100251 0.631829 -2.28964
-0.894835 0.678038 -1.29596
-0.383984 0.94102 -1.3286
-0.0125 1.11037 1.75052
-0.01625 0.830724 2.17505
-0.849582 0.801709 1.42021
-0.371809 1.22012 1.377
0.852787 0.474042 -1.73078
0.354867 0.453535 -2.31477
0.85972 0.321279 -1.37556
0.312707 0.148246 -1.34291
0.814025 0.609067 1.8065
0.303684 0.620481 2.28805
0.879841 0.401431 1.47222
0.300144 0.245625 1.51543
0.873998 0.678277 -1.34478
0.407263 0.941239 -1.32913
0.863077 0.797916 1.40609
0.351777 1.21966 1.37435
-0.885621 0.337013 0.136382
-0.416175 0.167844 0.144426
-0.865699 0.513624 -0.922873
-0.875249 0.546796 -0.241454
-0.0697521 0.160697 -0.942329
-0.0562738 0.167932 -0.237215
-0.881567 0.570151 0.439964
-0.875552 0.591853 1.12138
-0.0446904 0.169917 0.4679
-0.034174 0.23315 1.17301
-0.868597 0.77411 0.0621275
-0.48119 1.36559 0.0242025
0.00887421 1.0005 -0.990798
0.00323155 1.34103 -0.314663
-0.00225627 1.40367 0.361473
-0.00750013 1.33883 1.03761
0.878217 0.309848 0.0483338
0.311754 0.169881 0.0862588
0.884889 0.512127 -1.01025
0.877894 0.542444 -0.310423
0.87377 0.564994 0.389408
0.894678 0.587202 1.08924
0.867049 0.7699 0.0306512
0.482613 1.36523 0.0226074
-0.885233 0.320865 -1.57675
-0.867784 0.342781 -0.889309
-0.859014 0.698687 -0.956436
-0.890331 0.634624 -1.63913
0.846553 0.318139 -1.74187
0.865004 0.636639 -1.69899
0.875991 0.697416 -1.00092
0.864419 0.333532 -1.01958
-0.466455 0.147893 -1.60086
0.303598 0.148141 -1.70639
0.312703 0.162206 -0.985621
-0.444813 0.160589 -0.899037
-0.361349 0.891152 -1.68616
-0.383852 0.968685 -0.990399
0.401467 0.970084 -0.991196
0.39056 0.891903 -1.68643
-0.448412 0.302867 -2.26377
-0.377713 0.611519 -2.26441
0.364361 0.613414 -2.25547
0.324678 0.306832 -2.32479
-0.881957 0.334432 -0.205515
-0.885505 0.341159 0.47828
-0.873715 0.792402 0.401649
-0.864391 0.756492 -0.277394
0.879034 0.303448 -0.307639
0.86808 0.752672 -0.313207
0.870607 0.789914 0.37451
0.872508 0.317406 0.404306
-0.425696 0.167398 -0.203395
0.309998 0.169687 -0.271034
0.313233 0.170121 0.443552
-0.405788 0.168063 0.492247
-0.478557 1.2979 -0.313998
-0.479398 1.36987 0.362403
0.475397 1.36934 0.360542
0.485466 1.29776 -0.315327
-0.861075 0.393035 1.16207
-0.831719 0.426445 1.85444
-0.818885 0.798549 1.7683
-0.873456 0.791861 1.08069
0.885513 0.388295 1.11625
0.854221 0.787648 1.06223
0.789274 0.795208 1.75866
0.80224 0.424465 1.83691
-0.37528 0.17004 1.18789
0.306568 0.162896 1.15814
0.283822 0.253134 1.87133
-0.333635 0.254498 1.88214
-0.377206 1.31353 1.0388
-0.353405 1.09269 1.73359
0.328389 1.09219 1.73067
0.36219 1.31316 1.03641
-0.322946 0.449615 2.31282
0.285592 0.449134 2.31039
0.304342 0.811612 2.17341
-0.336696 0.813056 2.17448
-0.842708 0.236035 -1.89685
-0.673764 0.141433 -1.93857
-0.830964 0.194684 -1.71346
-0.593425 0.361731 2.20082
-0.45125 0.318732 2.18795
-0.609749 0.267019 2.06048
-0.733924 0.662244 -2.00737
-0.516857 0.778236 -2.04974
-0.739503 0.789264 -1.83583
-0.659857 0.88212 2.08948
-0.495 1.01033 2.09617
-0.680374 0.982743 1.88583
0.48814 0.151616 -2.10838
0.699425 0.245 -2.11284
0.710915 0.144759 -1.93399
0.41125 0.318576 2.18611
0.553504 0.36125 2.19651
0.574276 0.256841 2.04834
0.551998 0.779192 -2.04941
0.745007 0.665 -2.03966
0.770984 0.789808 -1.8361
0.465 1.00939 2.09332
0.629474 0.87875 2.08444
0.652969 0.979005 1.87972
-0.815546 0.169498 -0.684203
-0.800385 0.171124 -0.341118
-0.857986 0.242746 -0.530036
-0.625363 0.1629 -0.531938
-0.718175 0.199196 1.03122
-0.750851 0.180054 0.688138
-0.86494 0.237928 0.839928
-0.567869 0.177214 0.849874
-0.775433 0.894087 -0.820834
-0.837578 0.831603 -0.634291
-0.772111 0.91373 -0.4825
-0.648058 1.11366 -0.651933
-0.755529 0.989005 0.870833
-0.832351 0.902863 0.721418
-0.763863 0.974375 0.5325
-0.640371 1.22111 0.701135
0.689313 0.159664 -0.847898
0.499334 0.161983 -0.647606
0.685365 0.161379 -0.485869
0.860453 0.190326 -0.665247
0.664341 0.173473 0.962248
0.490793 0.170215 0.791039
0.666138 0.173909 0.600219
0.832479 0.216186 0.770756
0.790111 0.892719 -0.822694
[...]
POINT_DATA 3682
SCALARS point_scalars float 1
LOOKUP_TABLE default
-106.908
-36.5422
-30.6945
-34.8082
-102.411
-38.0206
-41.3523
-35.9001
-36.3062
-44.0418
-54.7798
-50.369
-38.4867
-39.7667
-56.9369
-50.4107
-33.7967
-106.908
-36.9528
-47.9005
-40.6456
-36.3718
-32.6512
-16.6413
-127.956
-36.9725
-45.6421
-40.1479
-33.1454
-32.6512
35.4165
-90.1697
-45.8675
-45.1423
-39.9996
-32.8064
-32.4377
4.97108
-50.0949
-81.3135
-64.7667
-40.3543
-32.7293
-32.0481
-62.071
-112.289
-36.5471
-43.8627
-36.3718
-32.8481
-31.4067
58.2662
-32.0535
-31.3741
140.621
-31.1272
-29.6662
11.3583
-47.3069
-41.596
-68.0383
-38.7366
-30.1468
-29.2652
-60.9505
-114.338
-38.0373
-41.1095
-38.0473
-34.5637
-33.3851
110.581
-33.7285
-33.3851
157.959
-33.3827
-33.0506
2.8118
-51.0171
-59.5489
-67.0739
-39.7275
-32.279
-32.0583
-24.6909
-92.4912
-40.1774
-44.8572
-42.3798
-38.0473
-33.9868
-4.33119
-130.917
-40.929
-41.4862
-41.4019
-34.6283
-33.9868
57.809
-88.0548
-47.047
-44.3416
-40.6934
-34.2048
-33.6404
1.49328
-55.4507
-77.4401
-65.4529
-41.9087
-35.1557
-33.6083
-22.007
-111.534
-48.0434
-32.6667
-35.144
-40.4374
-55.1364
-48.8048
-30.6992
-45.5538
-18.5759
-52.4499
-34.1751
-42.4459
-43.934
-46.9377
-36.3306
-38.8499
-38.6023
-42.7741
-43.4242
-55.1105
3.90661
-65.4358
-36.3306
-42.2382
-38.5388
-56.0906
-57.3589
-53.4647
-53.2454
-12.74
202.069
-41.3095
-42.2617
-36.6742
-95.0454
-42.0985
-48.5962
-38.8103
-41.5299
-24.8095
-68.9892
-102.739
-66.3809
-33.651
-35.7262
-40.417
-22.7278
-46.3609
-54.9903
-32.8004
-29.968
-39.1024
-112.179
16.8048
-76.6497
-37.6976
-34.9778
-40.365
-46.743
-31.192
-58.4145
-31.2614
-34.6257
-39.9232
-37.5534
-35.9575
-36.9721
-37.6559
-39.7479
-39.121
-44.6634
-40.7257
-42.3174
-43.5029
-55.6002
-3.38813
-48.4127
-44.715
-52.7211
-62.4626
-41.593
-38.4059
-36.6737
-40.7782
-45.3137
-39.9558
-37.6281
-34.8699
-41.916
-4.1809
-45.9437
-57.377
-48.8994
-62.2507
-43.3751
-52.9903
-86.4721
161.795
-72.1444
136.404
-54.2214
-50.7653
-44.1093
-29.2141
-37.0719
-28.7621
-41.6129
-38.058
-36.3652
128.514
-60.0054
-19.6815
-33.8808
-25.1617
-43.5542
-42.1956
-87.57
188.261
-52.906
-53.406
-44.7356
-32.3941
-46.8134
-39.6565
-52.5408
-19.8646
-51.9802
-42.3379
-38.8559
-36.508
-41.9332
-40.0506
-43.4286
-36.3118
-42.3477
-41.4101
-38.5827
-42.4979
-46.1422
-85.8059
11.9394
-73.832
-78.7656
-52.9828
-39.1634
-36.374
-44.4627
-42.166
-41.2701
-44.0211
-47.0893
-86.2664
-79.1778
-39.799
-43.967
-95.333
-84.6336
-80.0413
-46.4906
-41.4454
-67.4962
-73.3284
-43.9857
-40.9494
-38.4096
2.55451
2.58453
-38.5743
115.955
133.089
142.315
168.401
-37.7077
-40.616
-47.2123
-45.3994
-39.4434
-47.2707
-45.8164
-38.9815
-35.7813
-36.1586
-37.9843
-38.6122
-65.3491
-72.0748
-72.0811
-67.8208
-39.789
-43.766
-42.2754
-44.1816
-42.788
-43.5887
-43.6938
-45.6507
-44.9584
-46.6853
-38.0384
-37.3399
-53.0241
-34.7004
-35.0535
-52.9588
-31.3787
-33.167
-30.7084
-27.7009
-88.6351
-112.125
-90.9653
-35.3435
-36.3109
-38.4046
-20.4888
-35.4529
-51.9008
-33.7883
-30.858
-35.864
-120.246
-9.84039
-109.841
-37.8186
-36.455
-40.2786
-40.3345
-29.2297
-58.6882
-32.3118
-35.1498
-37.0268
-37.1917
-36.2361
-36.4459
-37.0696
-40.3031
-40.5259
-46.8428
-42.2246
-48.6738
-48.5577
-56.1107
-52.5133
-49.275
-47.8501
-51.7237
-56.7563
-38.987
-38.1215
-37.7684
-39.9587
-41.9805
-40.2684
-38.4152
-33.274
-49.3807
-56.0391
-50.4677
-57.678
-49.4585
-56.4333
-47.2395
-51.8333
-39.0001
-18.9391
-124.486
81.9593
-106.163
-110.244
-87.5062
60.2209
-55.1507
-46.3766
-51.9186
-49.5895
-33.267
-32.6151
-39.6553
-31.7789
-34.9782
-36.1835
-35.9441
-31.3221
-39.4022
-40.204
-41.2994
-39.712
-47.7718
-48.447
-47.9856
63.6303
-53.7311
-42.4377
-60.9429
-28.8811
-30.3754
-31.0817
-31.8355
-24.7541
-42.6882
-47.4148
-45.0028
-43.9288
-0.431875
-28.7434
-108.214
116.551
-61.7632
-46.486
-52.4908
-52.7202
-34.5739
-34.2325
-39.6399
-33.352
-44.0996
-42.266
-45.9608
-41.6456
-51.1078
-41.939
-50.4921
-28.3465
-43.4423
-48.4834
-48.7635
-44.1729
-36.3152
-38.4754
-37.5988
-36.4949
-37.8126
-40.6207
-39.0558
-39.4214
-38.2082
-38.6281
-40.2023
-38.1236
-44.5746
-43.177
-42.5194
-42.2552
-41.1386
-40.9403
-40.1939
-47.3441
-55.469
-53.7929
-50.4084
-66.7412
3.34565
2.9479
20.179
-28.3705
-65.0293
-64.9713
-71.9643
-59.4561
-36.1182
-36.8664
-38
-36.2205
-41.3777
-43.6103
-43.3445
-42.1076
-37.439
-40.609
-40.2824
-37.4505
-56.8062
-54.4782
-51.4472
-67.5268
-68.2562
-55.8484
-58.5075
-50.7366
-64.3112
-53.3466
-53.2614
-47.3572
-60.849
-52.2333
-53.7332
-48.7515
-25.6241
-14.147
-14.4575
-1.27683
196.464
191.352
186.973
199.54
-40.0792
-40.9015
-41.7465
-43.2551
-40.7732
-42.2324
-41.6496
-44.2915
-36.6201
-36.2612
-37.4551
-36.5646
-93.016
-97.1793
-87.6952
-93.1444
-42.6997
-41.6947
-43.4787
-42.0106
-53.2278
-47.328
-50.7127
-45.6583
-37.5154
-38.2383
-39.0742
-39.8392
-37.1231
-41.7039
-41.7188
-46.908
-25.3576
-26.1781
-25.2087
-28.8768
-118.391
34.1127
-81.7888
46.1135
-74.1909
-66.8183
-39.5345
-32.6904
-36.2589
-32.6242
-44.4928
-38.1576
-82.2746
76.0599
-46.6538
44.0366
-79.3066
-44.2138
-39.9359
-31.0604
-32.1195
-28.2748
-41.1118
-36.0421
-90.091
48.397
-125.132
104.345
-83.2553
-73.4886
-36.976
-34.2225
-39.3161
-33.8471
-46.1231
-39.3213
-47.8345
66.2835
-90.7935
90.5642
-72.3453
-43.6745
-32.8048
-30.9367
-40.5339
-33.0683
-42.5786
-36.5797
-38.3926
-39.7962
-37.0069
-35.6404
-37.4125
-37.2053
-38.6886
-36.9087
-38.8257
-42.7826
-39.5607
-38.8011
-41.9857
-40.2251
-39.812
-43.2278
-46.8707
-11.4074
-42.266
-44.5786
-50.2806
-76.4247
10.433
-34.6009
-45.4231
-54.2957
-45.1366
-43.8929
-49.6805
-60.3405
-67.5397
-58.5179
-39.8469
-43.3248
-40.0088
-37.9589
-38.2609
-36.1021
-42.2067
-39.8835
-41.189
-44.0772
-39.176
-43.8974
-39.0223
-37.6237
-37.9136
-42.6481
-46.9826
-11.961
9.4055
-36.259
-44.6227
-46.7775
-52.3315
-77.1412
-46.2967
-53.7927
-67.4154
-58.163
-44.1522
-42.612
-49.5873
-60.4786
-82.5915
-91.2036
134.448
157.331
-69.6544
-72.9503
158.851
171.902
-63.1734
-49.2148
-57.5199
-47.2218
-43.9016
-43.3364
-30.4725
-28.2943
-37.3621
-37.0159
-29.135
-31.1678
-40.9067
-43.1177
-42.0452
-37.7705
-36.5386
-36.7908
142.721
138.698
-50.6108
-73.2499
-29.5816
-8.24361
-34.1105
-34.2468
-28.0341
-25.2612
-44.427
-43.5234
-47.3134
-37.9195
-86.0245
-85.5131
169.38
185.955
-63.8569
-46.7571
-61.5361
-48.3981
-44.0477
-45.7048
-32.9667
-31.4312
-44.2248
-51.6023
-43.4609
-38.2612
-62.2316
-46.3238
-8.90732
-29.5332
-48.1641
-48.4135
-38.1834
-47.3049
-38.3343
-39.5291
-35.9625
-37.4146
-40.9725
-42.7609
-38.9563
-42.2399
-44.1486
-42.3434
-36.0487
-36.285
-41.498
-43.8035
-40.6828
-42.1359
-38.3379
-38.6046
-44.6469
-44.4244
-44.6451
-45.9945
-90.5112
-79.3134
9.57438
9.59548
-71.8771
-72.2114
-77.4488
-77.4768
-52.8844
-52.9006
-39.4377
-39.0968
-36.0273
-37.0212
-45.9703
-42.8982
-40.6756
-44.255
-43.0277
-40.0563
-43.4175
-43.3152
-47.2788
-46.0489
-79.4935
-91.3495
-108.284
-60.1004
-65.7396
-123.257
-37.7516
-38.0687
-49.9861
-48.6811
-46.2504
-51.0938
-51.6028
-40.3555
-55.6318
-109.218
-70.5211
-74.2165
-112.014
-119.844
-64.4797
-62.5523
-85.6894
-61.5454
-62.9138
-95.7982
-47.8453
-43.7368
-46.617
-47.5348
-40.3719
-46.0267
-47.3009
-43.0516
-85.9686
-83.8309
-59.3427
-56.3242
-92.4651
-61.2044
-61.4939
-89.9814
-39.4258
-40.2992
-48.5826
-47.61
-37.867
-46.061
-48.3054
-39.6347
-47.7576
-37.3114
-26.3254
-47.3351
-20.8099
18.5363
-3.00139
-20.3211
-24.8484
-20.8018
-3.28352
18.0538
-49.8317
-47.6462
-26.4408
-36.11
-6.35844
47.9886
190.273
0.201183
38.8837
74.147
173.259
88.4104
40.1908
109.087
176.901
74.5616
39.3075
18.1965
191.126
103.583
-36.6765
-37.5575
-39.5578
-38.218
-41.1201
-42.1419
-40.645
-38.0675
-48.6933
-49.8258
-43.3775
-43.3185
-49.9131
-41.4442
-43.0781
-50.3793
-38.5419
-40.9489
-40.7312
-37.9549
-52.1815
-51.9772
-44.3473
-43.9108
-48.1408
-41.8895
-43.4913
-50.2576
-36.9897
-37.7841
-40.3106
-39.1126
-36.3123
-37.8122
-36.1381
-35.894
-37.7505
-35.9138
-36.1901
-38.15
-38.8089
-39.7189
-37.2759
-36.8075
-40.3884
-37.5694
-37.4576
-39.9653
-77.9909
-70.7549
-95.8098
-27.8824
-58.629
-70.8465
-86.4425
-62.9328
-58.4121
-63.4238
-86.4567
-70.8017
-79.8405
-28.4761
-96.0121
-72.0811
-39.0099
-40.1498
-41.4533
-40.8789
-40.4756
-39.7013
-43.0705
-42.7563
-39.1083
-43.7903
-43.4445
-39.7073
-46.3748
-42.888
-42.4494
-45.1394
-45.3207
-39.3551
-44.9393
-42.8628
-46.2163
-48.0512
-46.3432
-38.8517
-40.2025
-40.2548
-51.8484
-45.8203
-40.5391
-51.5467
-52.0798
-39.3415
-41.4739
-46.7235
-39.8487
-41.553
-42.6799
-45.0722
-40.6828
-47.0708
-37.9125
-36.3408
-37.9121
-39.5661
-37.4346
-38.3362
-37.4057
-35.9091
-53.6248
-48.8754
-46.6917
-59.1055
-33.1652
-31.8259
-37.3324
-39.5709
-34.0986
-39.9122
-37.4336
-32.1819
-53.5076
-59.0001
-46.7588
-48.9762
-33.784
-31.3338
-26.7388
-32.3667
-35.4396
-33.6918
-29.8292
-32.626
-32.8894
-27.8915
-28.3282
-33.1726
-30.8485
-31.3996
-25.406
-25.1821
-97.8926
-115.136
-131.126
-35.9833
-36.5727
-36.9981
-22.8449
-37.6389
-47.5677
-34.6108
-32.0866
-34.6821
-131.227
-46.1323
-129.75
-38.3418
-37.2088
-38.5978
-42.0772
-33.672
-53.0626
-33.5826
-35.9844
-36.1319
-36.0115
-37.1058
-36.0871
-36.8351
-42.5707
-42.0081
-46.3402
-42.292
-52.9629
-51.362
-55.7746
-72.8028
-49.7689
-49.4338
-51.0153
-52.8573
-38.9896
-38.1233
-38.0093
-38.6823
-41.2995
-40.8305
-38.5501
-38.5943
-54.914
-74.636
-53.2175
-57.4661
-49.8817
-52.6692
-49.3889
-51.0737
-28.2948
-18.9723
-98.4523
13.1024
-110.439
-109.314
-97.4669
-86.6359
-51.0223
-45.4049
-49.8921
-49.053
-32.9777
-32.5431
-36.0988
-32.0654
-34.8229
-35.6112
-35.9923
-32.7561
-43.1369
-39.3175
-40.9412
-40.4813
-51.438
-53.7194
-52.5274
-42.9966
-51.4068
-45.0587
-59.3629
-36.5466
-30.8158
-31.1414
-31.3708
-28.2674
-43.9193
-46.4265
-45.3808
-45.5802
-11.2538
-22.3304
-95.1085
64.9894
-56.5171
-49.1892
-52.3346
-52.4914
-34.4776
-34.0418
-36.7771
-33.4858
-42.2768
-42.0712
-44.3745
-43.1623
-47.9337
-43.1751
-48.7216
-35.1658
-44.8313
-47.9659
-47.7796
-45.9669
-36.7469
-37.3939
-36.9468
-36.5566
-38.3196
-39.6098
-38.7527
-39.1026
-38.4714
-38.6568
-39.2962
-38.1443
-43.5942
-42.7716
-42.4002
-43.1075
-41.7485
-41.7104
-41.465
-48.0016
-55.5547
-54.3774
-52.9937
-59.5332
3.97186
3.68267
14.8815
-11.0133
-65.4039
-65.355
-68.7315
-62.4894
-36.2338
-36.5172
-36.8287
-36.2198
-41.806
-42.8426
-42.6663
-42.1407
-37.9674
-39.43
-39.4525
-36.832
-56.6761
-55.243
-53.9667
-60.4496
-62.1381
-56.8448
-57.9557
-54.0292
-57.8062
-53.499
-53.3711
-50.1471
-56.8647
-52.842
-53.5138
-50.5653
-19.6211
-13.0432
-13.2508
-7.00805
204.74
198.672
197.927
207.165
-40.6493
-41.2325
-41.4937
-42.1003
-41.5074
-42.3512
-42.0478
-43.1041
-36.6543
-36.4261
-37.0462
-36.6321
-94.5003
-96.2338
-91.4091
-94.5713
-42.8289
-41.8721
-42.4064
-42.1596
-51.0785
-47.8912
-49.4321
-46.9544
-38.1496
-38.6983
-38.923
-39.6451
-39.1011
-41.5563
-41.5765
-43.8867
-24.3902
-25.0709
-25.321
-26.6946
-82.4648
-54.4263
-125.951
0.892747
-105.917
-101.579
-92.5085
-64.6235
-75.071
-60.1312
-70.3602
-66.7105
-34.2107
-33.3744
-36.3825
-32.8649
-36.2039
-35.5956
-36.1743
-34.1144
-38.6475
-40.5401
-44.6119
-38.6983
-24.8068
-22.3483
-45.8446
20.6859
-45.3125
-46.306
-50.1105
-40.9785
-52.4344
-57.2681
-65.125
-48.6879
-33.1778
-32.676
-37.3446
-31.6926
-30.2803
-30.0189
-30.9582
-29.3896
-37.1756
-40.3756
-40.073
-37.3751
-113.393
-111.209
-101.231
-70.92
6.81173
11.4754
-105.458
62.464
-90.3688
-68.3086
-83.2178
-74.6671
-37.9239
-36.8753
-37.2596
-35.7354
-35.5519
-34.6389
-37.3364
-34.0594
-39.3611
-43.1
-45.0591
-39.0946
-46.9577
-46.5007
-50.7944
-40.1745
-31.7352
-27.4855
-79.8232
38.7624
-57.472
-51.0111
-67.0814
-48.6972
-31.8091
-31.0757
-31.8822
-31.3988
-34.8161
-34.4895
-38.4639
-33.4543
-38.0649
-41.4179
-41.2646
-38.0483
-37.1425
-41.8778
-37.521
-39.2737
-35.7654
-36.1936
-36.3537
-35.689
-36.8854
-37.1086
-37.0705
-37.097
-37.3741
-37.9212
-38.1067
-37.505
-39.367
-40.1874
-38.5917
-41.4345
-39.9106
-39.2309
-38.8955
-38.9348
-44.7014
-44.9991
-42.9102
-42.7503
-41.4164
-40.6683
-40.4098
-41.761
-46.4876
-41.8148
-46.1977
-23.856
-45.7305
-41.9153
-42.7835
-44.0962
-56.1012
-55.5711
-52.9387
-62.396
-13.2638
1.59551
6.45224
-16.8562
-49.1087
-48.0171
-47.2767
-50.4776
-45.9179
-43.8746
-44.9625
-44.2104
-52.3467
-53.172
-51.659
-56.1681
-60.2649
-64.2298
-65.4946
-60.6932
-39.915
-44.7799
-39.3711
-42.9038
-38.2894
-38.5145
-39.2035
-37.9594
-37.543
-36.0713
-37.4947
-36.1423
-40.4946
-40.8271
-41.3483
-40.3403
-42.4323
-44.965
-41.5832
-43.181
-39.9803
-40.3708
-39.8178
-41.8701
-38.2223
-37.2315
-39.0084
-37.512
-32.8113
-36.3296
-37.0809
-38.073
-46.8895
-41.2722
-45.456
-22.7972
-16.5972
0.646351
4.85765
-19.081
-47.9172
-44.7429
-45.158
-46.3949
-57.6814
-57.1841
-55.1608
-63.8723
-49.2577
-48.6555
-48.3956
-50.866
-60.5248
-64.1419
-64.9366
-60.4571
-45.3717
-41.9685
-43.809
-42.7711
-52.4508
-53.6759
-51.8747
-56.1777
-105.32
-76.2143
-84.4212
-88.4963
120.32
188.725
154.285
162.917
-79.9006
-65.9515
-71.3764
-72.5442
119.46
183.054
120.518
173.007
-53.1923
-54.9871
-58.1614
-51.9149
-50.1524
-51.5244
-53.7624
-48.5723
-42.1809
-43.8172
-43.876
-43.8092
-30.9633
-27.3205
-29.9291
-28.7915
-36.3465
-37.2553
-37.1826
-37.0107
-30.155
-27.3272
-28.4654
-29.7969
-41.5044
-41.5942
-41.0896
-42.5078
-37.8407
-37.9338
-39.2326
-37.6877
-41.9177
-31.0446
-36.2639
-36.3297
92.7544
174.579
139.413
133.31
-60.2511
-58.8165
-55.9463
-65.9632
-23.717
-16.4491
-24.6217
-13.8146
-32.7357
-35.3561
-33.9287
-34.0287
-24.2162
-25.0566
-26.3742
-24.7649
-44.6393
-44.1388
-43.2242
-44.2671
-42.8133
-41.8862
-44.6296
-39.9496
-99.445
-72.703
-86.3191
-85.8901
159.476
201.188
180.594
189.618
-52.5979
-53.176
-57.1014
-49.812
-53.096
-53.6072
-57.0658
-50.5342
-41.9245
-48.7864
-44.2912
-45.4004
-33.0533
-30.9022
-32.7294
-31.7621
-46.7822
-46.9258
-45.3001
-49.0394
-40.0208
-39.2973
-41.3432
-38.623
-52.1961
-52.9075
-56.7895
-49.1421
-23.4445
-16.7222
-14.0933
-24.6089
-49.9212
-52.0847
-50.1038
-50.8073
-43.0031
-41.9509
-40.0601
-44.67
-38.3052
-39.4788
-38.5954
-39.079
-36.4872
-36.5661
-36.1604
-36.9382
-39.9845
-45.6081
-41.4868
-42.3495
-39.7679
-40.4975
-39.4299
-41.0046
-41.4846
-46.2599
-43.971
-42.9082
-37.1939
-36.234
-36.2122
-36.3815
-42.5403
-42.0351
-41.8581
-42.9319
-41.3805
-41.5724
-41.1066
-41.6171
-39.3088
-37.9968
-38.4841
-38.6043
-45.0051
-40.4544
-43.1338
-42.7467
-47.9876
-44.651
-45.6837
-46.2525
-77.5077
-90.1772
-86.8196
-82.4927
19.0061
5.53297
11.2725
11.2646
-48.2935
-90.1028
-73.5492
-73.6121
-75.2081
-83.3734
-78.4626
-78.4836
-55.9039
-49.5655
-52.891
-52.9126
-38.5853
-40.0265
-39.4608
-39.1785
-36.2879
-36.4664
-36.143
-36.6322
-44.8659
-44.5919
-45.2591
-43.8489
-42.1436
-42.2023
-41.366
-43.0625
-40.9508
-41.494
-41.9977
-40.6945
-41.4387
-44.754
-43.717
-44.2524
-49.104
-45.5506
-47.2969
-46.5809
-78.3213
-90.4962
-82.8321
-87.5712
-91.2572
-77.2607
-81.0331
-70.0016
-39.1769
-38.184
-43.7342
-40.2655
-45.3995
-42.3967
-46.4703
-43.1445
-99.0818
-90.246
-94.0162
-83.3606
-97.7095
-83.4997
-85.7603
-72.9888
-90.9518
-75.449
-84.7203
-70.7177
-46.5461
-45.0036
-46.2111
-46.2938
-40.9566
-41.2861
-44.5598
-42.0403
-74.12
-67.2425
-68.3279
-62.0273
-80.9401
-73.2815
-73.5308
-66.9136
-43.692
-41.2426
-47.0597
-44.2745
-40.4278
-39.6567
-43.9453
-41.7141
-43.1202
-40.4848
-37.2786
-34.2645
-3.0145
7.80707
-1.61291
6.99092
-4.53826
6.88703
-1.97089
7.0631
-43.1596
-40.6112
-37.284
-34.2965
77.1048
106.915
127.974
162.353
107.22
103.076
150.964
149.324
115.201
121.586
147.078
155.551
133.492
147.32
180.065
179.746
-37.2661
-37.4134
-37.9812
-38.2114
-40.3919
-41.2425
-40.0987
-41.0999
-45.9203
-48.7173
-45.2782
-46.5686
-44.9977
-47.477
-43.7117
-45.6437
-38.9705
-39.6015
-39.3374
-40.0148
-47.0987
-49.1271
-45.6441
-47.2794
-45.6371
-48.2041
-44.1441
-44.9093
-38.8757
-38.4931
-39.2577
-39.4417
-35.6559
-36.0484
-35.8009
-35.9063
-37.0122
-36.1124
-36.2314
-36.0334
-38.528
-37.805
-38.1598
-37.4898
-38.6815
-39.2521
-37.9237
-38.5991
-76.5028
-48.7515
-83.047
-66.6879
-66.7772
-69.714
-75.7533
-75.1949
-69.7434
-66.529
-75.1459
-75.7882
-49.7298
-80.1917
-68.5092
-83.9191
-39.3939
-39.6514
-40.1659
-40.2372
-42.8395
-43.7445
-43.7058
-42.3077
-40.7996
-41.7054
-42.7854
-43.4516
-44.4571
-43.9197
-43.9987
-43.2241
-42.466
-42.0053
-43.4532
-43.1089
-44.7827
-43.1836
-45.2431
-42.879
-41.7075
-43.4521
-43.8771
-45.823
-41.6305
-45.6715
-45.4679
-51.7283
-43.0954
-44.1969
-45.3773
-46.4503
-44.489
-44.4562
-46.5032
-47.3235
-37.2858
-38.6979
-37.6605
-38.4428
-36.6119
-37.7571
-37.1135
-37.7542
-53.4569
-55.8147
-50.1432
-52.8497
-33.3272
-35.2906
-34.3282
-36.1434
-33.8368
-35.7827
-34.5518
-36.4777
-53.4133
-55.6996
-50.1184
-52.8553
-32.0762
-31.9283
-30.8506
-30.1089
-33.5677
-33.614
-32.3783
-33.0027
-30.4664
-31.8837
-29.6922
-31.078
-29.1956
-27.3217
-27.9607
-26.5429
-133.408
-33.7907
-106.519
-93.5374
-99.8129
-88.9071
-37.8951
-34.9031
-37.5982
-34.7919
-40.6455
-36.9459
-49.5511
15.915
-49.5891
-15.2156
-53.9634
-51.0013
-37.6973
-31.5711
-31.8573
-30.7732
-37.4901
-34.3426
-107.118
-12.3373
-117.811
37.9152
-99.8732
-98.1555
-38.106
-36.1321
-38.801
-36.4866
-41.5676
-37.9384
-49.977
-15.9703
-67.4737
16.4237
-70.62
-52.4712
-33.0136
-32.7483
-38.8651
-33.4245
-38.3818
-35.175
-37.2679
-37.4792
-36.3955
-36.2338
-36.5008
-36.9281
-37.3962
-37.0283
-39.4314
-41.338
-40.3986
-41.189
-43.3244
-43.7958
-41.7058
-42.2026
-47.5489
-47.1297
-47.5526
-49.5186
-52.9693
-65.4571
-25.8984
-69.5629
-48.2937
-50.8778
-48.2854
-47.2652
-50.6697
-54.8416
-57.3295
-55.0202
-38.4904
-39.2955
-38.5561
-37.7924
-37.9617
-37.8432
-39.6089
-39.9404
-42.2941
-42.2761
-39.5444
-43.0365
-37.2221
-38.4636
-36.5254
-43.2153
-49.0889
-48.6117
-29.4964
-76.0228
-49.3468
-51.0738
-54.9844
-67.2895
-48.559
-50.8716
-57.1139
-54.8083
-47.6941
-46.7748
-50.6911
-54.6797
-121.432
2.21247
-63.3508
18.6901
-125.602
-119.834
72.1624
88.4441
-94.2738
-153.245
-99.3846
-97.8789
-86.545
-88.4716
46.7518
29.5121
-57.5211
-55.5646
-48.3086
-45.5085
-55.5379
-50.5785
-52.6678
-47.3187
-36.2829
-32.5846
-36.8465
-31.9092
-39.6927
-39.6358
-32.1979
-31.3223
-36.0085
-32.6616
-36.4422
-33.8935
-36.1019
-35.8756
-31.0902
-31.8158
-41.7397
-38.7443
-39.3203
-40.1665
-40.5861
-42.55
-39.3363
-39.5928
-52.2043
-48.6971
-53.0141
-50.1031
-47.767
-47.7589
68.1557
69.435
-66.8391
-44.217
-49.0282
-30.0979
-55.0295
-67.1038
-33.3657
-24.7985
-31.0405
-28.2586
-31.538
-29.662
-31.7943
-31.9939
-26.0999
-24.4315
-43.0775
-41.2501
-46.7774
-49.6111
-44.4108
-45.3924
-46.5087
-41.838
-96.7526
55.3668
-96.6764
55.7446
-114.558
-98.6053
118.977
117.912
-62.418
-61.3802
-45.973
-47.0794
-56.0437
-49.4163
-56.5204
-49.7457
-37.1042
-33.7995
-37.5562
-33.4965
-39.9892
-39.4849
-33.66
-33.1053
-50.4395
-40.2264
-42.2794
-44.1299
-44.1846
-48.3707
-43.4246
-40.2062
-58.1263
-41.3497
-46.0332
-29.585
-56.4931
-48.7497
-24.5795
-32.2768
-44.4993
-41.7171
-48.2919
-49.7562
-48.9543
-47.5112
-42.0066
-46.4604
-36.7374
-35.9153
-37.5926
-37.7428
-37.4757
-38.0733
-36.1639
-36.9247
-37.7717
-37.9951
-40.3609
-40.9644
-38.6028
-39.6378
-38.7682
-40.3235
-38.813
-37.8306
-39.3295
-38.1933
-40.3215
-40.0311
-38.0129
-38.1661
-42.5397
-43.025
-43.2412
-43.0187
-42.2745
-42.7737
-41.2439
-42.7647
-40.7224
-43.0902
-40.5301
-43.272
-40.0183
-40.1187
-48.1032
-48.824
-53.0296
-60.9234
-52.2422
-57.4418
-50.008
-50.6563
-68.9082
-64.57
14.1129
-10.6713
13.4411
-11.6448
20.0542
19.7693
-28.153
-28.6018
-67.8198
-62.1296
-67.7341
-62.0842
-71.7012
-71.7219
-59.2433
-59.221
-36.7353
-35.9457
-36.9099
-36.7782
-38.8343
-37.4324
-36.038
-36.462
-42.0113
-41.0198
-43.5399
-43.7496
-43.6114
-43.4655
-41.3737
-42.9019
-38.2777
-37.3587
-41.2174
-39.9355
-40.9521
-39.7584
-37.8816
-37.77
-54.3978
-62.1904
-52.8188
-57.9913
-51.7672
-50.8501
-65.194
-69.9693
-67.3669
-69.214
-60.2207
-52.8373
-54.8315
-63.8892
-50.315
-51.263
-64.515
-63.67
-57.7034
-50.2496
-57.4313
-49.6688
-47.1679
-47.4048
-60.1804
-61.1497
-55.4147
-49.77
-57.1784
-50.7838
-48.5446
-48.6613
-25.6818
-25.7753
-20.8973
-8.52447
-8.7787
-21.0135
-1.54651
-1.92942
197.28
189.41