# vtk DataFile Version 2.0
tri_press
ASCII
DATASET UNSTRUCTURED_GRID
POINTS 3682 float
-0.665 0.215 -2.10457
-0.565 0.255 2.34449
-0.741548 0.775 -1.985
-0.712459 0.965 2.125
0.662681 0.215 -2.105
0.565 0.245 2.34017
0.740311 0.775 -1.985
0.717608 0.965 2.125
-0.649472 0.210528 -0.62155
-0.622564 0.217436 0.86147
-0.842623 0.949105 -0.615
-0.829961 1.00947 0.755
0.644724 0.210396 -0.623277
0.618522 0.214038 0.858447
0.843179 0.948769 -0.615
0.833398 1.00989 0.755
-1.40987 -0.186714 -3.24118
-1.40124 -0.134874 -2.1002
-1.38353 -0.13418 -0.614346
-1.33723 -0.142925 0.894283
-1.27857 -0.124253 2.38205
-1.26754 -0.108679 3.53241
-1.27419 -0.0931133 4.66536
-1.41185 0.139501 -3.22171
-1.41468 0.210593 -2.09308
-1.40801 0.231358 -0.629055
-1.35287 0.230213 0.845235
-1.27073 0.243175 2.31143
-1.25943 0.257765 3.46025
-1.26949 0.273635 4.59687
-1.44697 0.764595 -3.15128
-1.49408 0.833774 -2.01818
-1.55651 0.958943 -0.631189
-1.51754 1.00205 0.747923
-1.40088 0.978144 2.13719
-1.33176 0.991674 3.29136
-1.30697 1.01212 4.44658
-1.46447 1.82004 -3.12987
-1.4922 1.90245 -2.0135
-1.52913 2.03174 -0.663096
-1.53635 2.11496 0.663157
-1.49601 2.13204 2.01497
-1.44258 2.1353 3.13431
-1.39656 2.14594 4.27725
-0.692598 -0.185835 -3.24875
-0.686461 -0.131326 -2.11122
-0.674293 -0.144854 -0.613537
-0.652012 -0.153252 0.907634
-0.615096 -0.122497 2.40589
-0.597021 -0.109238 3.54835
-0.595298 -0.0960004 4.67427
-0.682481 0.133994 -3.22419
-0.574049 0.257846 3.47345
-0.583998 0.270526 4.60348
-0.703197 0.738238 -3.13758
-0.626043 0.985847 3.28862
-0.606691 1.0074 4.44552
-0.712294 1.80226 -3.11638
-0.7303 1.88594 -1.9986
-0.764922 2.02744 -0.654252
-0.787785 2.11792 0.661711
-0.768767 2.1316 2.00672
-0.723955 2.13246 3.12602
-0.682893 2.14275 4.27105
0.6999 -0.18603 -3.24935
0.663741 -0.131466 -2.11197
0.646475 -0.145423 -0.615153
0.618874 -0.1564 0.904975
0.591983 -0.129354 2.40246
0.669211 -0.114537 3.54566
0.724261 -0.0997844 4.67216
0.717216 0.133871 -3.22464
0.692993 0.252451 3.47085
0.741949 0.266869 4.60148
0.755854 0.738127 -3.13784
0.743702 0.983491 3.28739
0.761999 1.00482 4.44404
0.789335 1.80196 -3.11679
0.796551 1.88564 -1.99897
0.788055 2.02711 -0.654664
0.748377 2.11752 0.661199
0.715151 2.13089 2.00606
0.722924 2.13132 3.12515
0.742708 2.14125 4.26998
1.40649 -0.187232 -3.24246
1.37612 -0.135377 -2.10175
1.35517 -0.135531 -0.61709
1.31035 -0.147851 0.889996
1.26928 -0.133634 2.37675
1.3272 -0.117308 3.5277
1.38879 -0.100005 4.66137
1.42696 0.139119 -3.22273
1.40208 0.210284 -2.0942
1.39477 0.230531 -0.631415
1.34536 0.225955 0.841288
1.27875 0.233668 2.30633
1.34683 0.249318 3.4558
1.40641 0.266994 4.59309
1.48254 0.764247 -3.15197
1.49438 0.833477 -2.01867
1.55399 0.958438 -0.632075
1.51625 1.00103 0.746443
1.41054 0.975192 2.13521
1.41766 0.986999 3.28868
1.44176 1.0072 4.44364
1.53205 1.81939 -3.13078
1.54575 1.9018 -2.01435
1.54587 2.03098 -0.664066
1.50525 2.11395 0.661959
1.45678 2.13039 2.01347
1.4468 2.13289 3.13245
1.45486 2.14293 4.27507
-0.758905 0.495 -2.10042
-0.00115952 0.21284 -2.10695
-0.654083 0.215917 -1.36306
-0.687026 0.61 2.28304
0 0.295382 2.29695
-0.600517 0.229483 1.60298
-0.000618488 0.86097 -2.07097
-0.830923 0.90089 -1.3
0.00257447 1.05414 2.21414
-0.811858 1.02788 1.44
0.75674 0.495 -2.10024
0.650459 0.215942 -1.36414
0.692455 0.605 2.28374
0.596833 0.224447 1.59931
0.831045 0.901185 -1.3
0.816384 1.02833 1.44
-0.632622 0.217378 0.11996
-0.878455 0.579817 -0.618275
-0.00237394 0.198212 -0.622413
-0.873631 0.613454 0.808235
-0.00202123 0.205724 0.859958
-0.840351 0.983348 0.07
0.00027754 1.29078 -0.615
0.00171875 1.43239 0.755
0.627763 0.216078 0.117585
0.878615 0.579583 -0.619139
0.877259 0.611964 0.806723
0.842357 0.983398 0.07
-0.879322 0.537408 -1.33153
0.883007 0.537291 -1.33207
-0.00176673 0.205657 -1.3636
-0.000170474 1.01248 -1.3
-0.000889003 0.495 -2.40985
-0.872633 0.596635 0.09498
0.87447 0.595773 0.0937925
-0.00219758 0.205694 0.118773
0.000998147 1.4676 0.07
-0.887107 0.611727 1.52149
0.878405 0.608482 1.51965
-0.00101062 0.220672 1.60114
0.00214661 1.27275 1.44
0.00128724 0.6075 2.33813
-0.730149 0.355 -2.12069
-0.33308 0.21152 -2.10816
-0.661095 0.213905 -1.73381
-0.614511 0.4325 2.30226
-0.2825 0.304919 2.29099
-0.594806 0.230194 1.97374
-0.765662 0.635 -2.05814
-0.371083 0.839779 -2.04978
-0.806116 0.857825 -1.6425
-0.702247 0.7875 2.20652
-0.354942 1.0326 2.1926
-0.783825 1.01811 1.7825
0.330761 0.211518 -2.10837
0.727886 0.355 -2.1208
0.65813 0.213911 -1.73457
0.2825 0.302271 2.28648
0.618572 0.425 2.3018
0.590897 0.224743 1.96974
0.369846 0.839839 -2.04984
0.763684 0.635 -2.05778
0.80601 0.858424 -1.6425
0.360091 1.03235 2.19235
0.708594 0.785 2.20793
0.789818 1.01948 1.7825
-0.648004 0.216996 -0.992305
-0.638669 0.216331 -0.250795
-0.830063 0.362123 -0.619913
-0.327206 0.201803 -0.621982
-0.604243 0.230757 1.23223
-0.62614 0.21886 0.490715
-0.833731 0.372628 0.834853
-0.313966 0.208234 0.860714
-0.839467 0.927691 -0.9575
-0.890217 0.7793 -0.616638
-0.842343 0.967082 -0.2725
-0.491724 1.26104 -0.615
-0.824336 1.0221 1.0975
-0.872144 0.821637 0.781618
-0.835171 0.996425 0.4125
-0.502554 1.3978 0.755
0.643613 0.217148 -0.993708
0.322434 0.201787 -0.622845
0.633952 0.215528 -0.252846
0.829903 0.360873 -0.621208
0.602092 0.224828 1.22888
0.309319 0.207743 0.859203
0.619799 0.218401 0.488016
0.836593 0.36865 0.832585
0.839248 0.927113 -0.9575
0.492614 1.26155 -0.615
0.890567 0.77901 -0.617069
0.843613 0.966928 -0.2725
0.828359 1.02258 1.0975
0.505936 1.3979 0.755
0.875878 0.821201 0.780862
0.837857 0.996622 0.4125
-0.860777 0.516204 -1.71597
-0.379897 0.495 -2.33247
-0.00146312 0.205654 -1.73527
-0.00102426 0.35392 -2.40267
-0.864769 0.376663 -1.3473
-0.327925 0.204548 -1.36333
-0.833879 0.610863 1.90227
-0.342869 0.60875 2.3896
-0.000505308 0.221025 1.94905
0.000643618 0.451441 2.39937
-0.866222 0.420605 1.56224
-0.300764 0.219486 1.60206
-0.000394481 0.957205 -1.68549
-0.000753745 0.677985 -2.32687
-0.892517 0.719149 -1.31577
-0.415547 0.995719 -1.3
0.00236054 1.16375 1.82707
0.00193086 0.830821 2.28573
-0.882168 0.819806 1.48075
-0.404856 1.24316 1.44
0.861536 0.516146 -1.71616
0.377925 0.495 -2.33301
0.870597 0.376617 -1.3481
0.324346 0.20454 -1.36387
0.832341 0.606741 1.9017
0.346871 0.60625 2.38966
0.859264 0.416464 1.55948
0.297911 0.219489 1.60023
0.893219 0.719238 -1.31603
0.415437 0.995852 -1.3
0.880387 0.818403 1.47983
0.409265 1.24304 1.44
-0.820678 0.372981 0.10747
-0.319112 0.208131 0.119366
-0.887571 0.558612 -0.974903
-0.874985 0.588226 -0.261648
-0.00207033 0.205486 -0.993006
-0.00228576 0.205676 -0.25182
-0.871839 0.605045 0.451608
-0.894502 0.61259 1.16486
-0.00210941 0.205687 0.489365
-0.00151592 0.220649 1.23055
-0.882757 0.803124 0.08249
-0.525721 1.43757 0.07
5.35334e-05 1.12491 -0.9575
0.000637844 1.41631 -0.2725
0.00135845 1.47223 0.4125
0.00193268 1.36332 1.0975
0.821885 0.370541 0.105689
0.314168 0.208114 0.118179
0.887583 0.558437 -0.975604
0.876043 0.587678 -0.262673
0.874533 0.603869 0.450258
0.886846 0.610223 1.16319
0.884675 0.802716 0.0818962
0.527701 1.43755 0.07
-0.847589 0.365831 -1.72489
-0.885897 0.385918 -0.983604
-0.887393 0.741805 -0.966201
-0.873665 0.677075 -1.67924
0.847777 0.365808 -1.72536
0.874052 0.677119 -1.67933
0.887407 0.741707 -0.966552
0.886024 0.385803 -0.984656
-0.330502 0.204516 -1.73454
0.327553 0.204514 -1.73492
0.322761 0.204402 -0.993357
-0.326924 0.204485 -0.992656
-0.393315 0.939616 -1.66399
-0.41836 1.09933 -0.9575
0.418583 1.09981 -0.9575
0.392642 0.939703 -1.66399
-0.356488 0.35446 -2.22371
-0.37549 0.656492 -2.25242
0.373886 0.656492 -2.25
0.354343 0.35446 -2.22388
-0.823811 0.368332 -0.256221
-0.822617 0.375099 0.471161
-0.877547 0.812429 0.432054
-0.88688 0.791408 -0.267074
0.824352 0.366478 -0.257759
0.888035 0.79107 -0.267587
0.880324 0.811983 0.431379
0.824639 0.371895 0.469137
-0.321798 0.20769 -0.251308
0.31694 0.207672 -0.252333
0.311625 0.208167 0.488691
-0.31654 0.208181 0.49004
-0.52736 1.38658 -0.2725
-0.525704 1.44082 0.4125
0.527281 1.43865 0.4125
0.528821 1.38687 -0.2725
-0.875038 0.418025 1.19854
-0.815678 0.426552 1.938
-0.830932 0.803653 1.84238
-0.878781 0.815634 1.13118
0.866661 0.414733 1.19603
0.875393 0.814665 1.13034
0.828767 0.801702 1.8421
0.815682 0.420732 1.93572
-0.306528 0.219423 1.23139
0.303081 0.21944 1.22971
0.290206 0.21997 1.95939
-0.291632 0.219959 1.96139
-0.409488 1.33518 1.0975
-0.379899 1.14914 1.80479
0.384678 1.14907 1.80479
0.413412 1.33503 1.0975
-0.312685 0.441971 2.37785
0.314686 0.438221 2.37758
0.353481 0.807911 2.27482
-0.348906 0.809161 2.27519
-0.699575 0.285 -2.11463
-0.49904 0.211539 -2.10808
-0.661501 0.215999 -1.91919
-0.55466 0.34375 2.28828
-0.42375 0.315507 2.28219
-0.582654 0.239846 2.15911
-0.752624 0.705 -2.02059
-0.556316 0.814437 -2.02444
-0.78566 0.82824 -1.81375
-0.705438 0.87625 2.16385
-0.533701 1.00759 2.16759
-0.76005 1.00346 1.95375
0.496721 0.211539 -2.10841
0.697274 0.285 -2.11489
0.658805 0.216055 -1.91978
0.42375 0.310892 2.27607
0.567085 0.335 2.29628
0.579006 0.233814 2.15495
0.555079 0.81513 -2.02513
0.751234 0.705 -2.02063
0.784059 0.82761 -1.81375
0.53885 1.0072 2.1672
0.711045 0.875 2.16441
0.766425 1.00495 1.95375
-0.647632 0.214868 -0.806928
-0.641699 0.215801 -0.436173
-0.810701 0.250858 -0.620731
-0.488252 0.206341 -0.621766
-0.613519 0.223981 1.04685
-0.623248 0.219252 0.676093
-0.819273 0.249469 0.848161
-0.468642 0.212082 0.861092
-0.841689 0.939041 -0.78625
-0.875876 0.86893 -0.615819
-0.842599 0.958209 -0.44375
-0.713516 1.19776 -0.615
-0.826956 1.0156 0.92625
-0.863105 0.921581 0.768309
-0.832884 1.00327 0.58375
-0.671896 1.21491 0.755
0.643307 0.214634 -0.808492
0.483378 0.206493 -0.623061
0.637156 0.215145 -0.438061
0.810821 0.248881 -0.622242
0.610738 0.219002 1.04366
0.464815 0.209102 0.858825
0.621292 0.214088 0.673231
0.823987 0.243129 0.845516
0.841917 0.938645 -0.78625
0.71397 1.1973 -0.615
0.876358 0.868632 -0.616035
0.843518 0.957971 -0.44375
0.830706 1.01606 0.92625
0.675323 1.21521 0.755
[...]
POINT_DATA 3682
SCALARS point_scalars float 1
LOOKUP_TABLE default
-129.657
-36.1549
-41.1897
-41.0597
-131.451
-36.5521
-40.6652
-40.9389
-40.5714
-36.4482
-60.786
-49.8751
-39.8663
-36.4586
-60.2577
-50.0945
27.6827
-73.0478
-42.0263
-35.1664
-45.5312
-36.8787
-35.4702
77.3944
-71.3855
-41.7829
-33.1327
-41.0906
-34.1442
-32.9856
59.4118
-68.1348
-53.322
-44.6603
-44.3574
-35.4575
-33.7281
-4.18184
-48.8007
-93.4833
-63.3888
-44.7124
-41.2573
-37.4038
-41.5589
-145.124
-41.6034
-36.6386
-36.8787
-35.4702
-29.5378
161.633
-30.7588
-30.3542
164.801
-33.6444
-32.362
34.2765
-38.4263
-79.1886
-69.4122
-41.4169
-35.6764
-34.6698
-39.2016
-151.682
-39.8209
-36.5445
-36.5521
-36.5521
-30.6886
164.207
-32.1629
-31.9293
162.676
-33.7894
-32.8816
20.8597
-41.0894
-78.7516
-69.6596
-40.7942
-35.6158
-34.7489
27.6854
-73.8717
-61.0496
-34.4425
-44.9559
-36.5521
-36.5521
62.9476
-70.9933
-40.6757
-34.7812
-41.4359
-34.0189
-33.3811
56.4376
-64.7823
-52.8806
-45.0565
-44.5819
-35.9015
-33.8617
-3.93435
-48.2471
-92.8417
-62.412
-44.767
-41.0291
-37.5352
-62.3549
-117.922
-51.2397
-35.4796
-29.3668
-38.1272
-26.1028
-48.8863
-34.8143
-50.0979
-57.6144
-51.4927
-35.5141
-37.8973
-49.3083
-49.6077
-33.4563
-44.6696
-40.1306
-37.1446
-35.8853
-54.0014
-24.8223
-67.1236
-33.5331
-44.1671
-38.51
-53.7976
-54.7912
-55.9104
-52.1541
-0.718371
207.757
-39.2158
-39.2741
-33.7262
-96.3196
-48.1335
-46.4143
-35.4065
-45.6798
-29.4757
-55.2302
-130.277
-72.4044
-34.2286
-32.4654
-43.5424
-42.3076
-24.6498
-51.1387
-37.4281
-35.075
-46.3902
-130.165
-54.9683
-72.7113
-32.5864
-34.1617
-43.0493
-25.0708
-39.9671
-51.0468
-35.035
-37.491
-46.4774
-41.2923
-34.9266
-40.801
-40.0351
-35.9913
-33.3309
-28.326
-35.3983
-55.9962
-50.9004
-57.4931
-32.8902
-49.8776
-42.2792
-51.4301
-64.5637
-41.1632
-39.9412
-34.8456
-40.2525
-35.653
-35.4446
-33.5821
-32.0217
-55.5744
-32.8304
-50.45
-57.2238
-49.653
-64.6556
-42.9792
-51.5504
-77.1612
169.669
-71.3551
149.012
-52.8677
-52.0499
-49.5672
-32.2623
-36.4832
-22.526
-46.8563
-35.9647
-25.7886
115.517
-55.9682
-8.74794
-39.5506
-34.7301
-50.454
-46.4659
-78.0979
169.917
-54.1961
-52.1218
-48.9444
-32.169
-45.7464
-36.0011
-56.8571
-8.23933
-48.6821
-46.4494
-35.3875
-33.6197
-51.6985
-41.292
-41.1461
-34.87
-37.8773
-43.8786
-34.1029
-34.7029
-44.5736
-84.2477
18.2911
-83.3523
-83.9861
-54.3599
-35.5716
-33.6388
-51.5135
-41.0936
-38.4817
-43.0141
-44.749
-83.3476
-77.8885
-51.1493
-51.4622
-68.5333
-79.1578
-69.3175
-51.3021
-50.024
-72.1494
-72.2231
-41.387
-41.296
-29.0689
11.0172
11.0208
-28.9258
147.303
103.866
104.64
148.29
-37.1787
-33.6587
-42.7557
-47.5785
-37.062
-47.3177
-43.136
-34.3515
-34.8722
-34.8036
-33.9922
-33.8966
-88.3644
-74.4278
-74.4207
-87.8801
-42.9505
-49.5338
-48.958
-43.8438
-42.9113
-44.2984
-48.19
-49.4473
-34.9726
-34.8979
-37.7173
-37.7735
-54.4421
-40.3449
-40.3317
-54.4227
-29.9869
-29.9308
-34.1797
-34.1611
-98.8409
-153.532
-94.9517
-34.4634
-34.3984
-41.9221
-34.5686
-29.1456
-59.639
-38.9418
-36.3793
-43.8352
-153.461
-98.6842
-94.9424
-34.9113
-34.9842
-41.7235
-29.25
-33.1422
-57.8285
-36.35
-38.9983
-43.8451
-43.2293
-36.4313
-40.9073
-39.9178
-37.8052
-33.9707
-28.2515
-35.6992
-62.8786
-55.4465
-59.2323
-86.7282
-49.2568
-44.6892
-49.7122
-56.8251
-43.4607
-39.7339
-35.9861
-40.4019
-37.6187
-35.6623
-34.3502
-32.1233
-62.3096
-85.7639
-54.9866
-58.856
-49.6606
-56.9417
-45.0761
-49.9205
-65.4475
-54.6575
-71.973
127.392
-120.204
-120.392
-88.2863
78.2505
-59.6571
-45.4667
-52.3114
-51.7998
-34.5228
-36.5943
-41.1382
-33.3134
-30.4856
-30.6419
-34.8138
-24.5414
-40.2357
-36.5137
-45.3954
-36.5398
-28.982
-29.0739
-35.3548
33.8535
-47.7998
-45.9264
-54.2844
-19.3456
-34.8496
-34.8367
-37.1428
-33.9437
-49.0284
-50.4799
-50.1285
-48.8663
-60.0517
-48.1835
-70.856
127.601
-59.8681
-45.7261
-53.4665
-51.8925
-34.5098
-36.6401
-41.3068
-33.2549
-40.1824
-36.2492
-43.7198
-36.7228
-48.1017
-46.9123
-54.8058
-19.4994
-48.486
-50.0944
-48.7027
-48.8175
-34.0902
-33.1881
-34.478
-33.5299
-42.5676
-47.3593
-49.313
-42.6626
-40.1905
-40.1484
-44.2989
-36.284
-34.0312
-39.9181
-37.3079
-39.4804
-35.7797
-35.7917
-34.7851
-37.0394
-55.9577
-51.482
-48.544
-65.3425
-25.7222
-25.2361
3.32701
-53.9704
-66.0997
-66.1155
-75.2901
-60.2955
-34.0286
-33.4042
-34.0414
-33.5843
-42.0324
-46.8843
-48.7244
-42.3127
-36.1566
-40.8006
-38.2392
-41.1348
-55.8119
-51.5734
-48.5745
-65.3499
-64.1208
-53.9106
-55.5623
-51.259
-64.5172
-55.1939
-56.2078
-51.4929
-59.9814
-52.0575
-52.082
-46.3087
-13.0843
-2.73259
-2.32044
14.4498
189.14
183.085
182.866
189.552
-37.0258
-40.135
-38.444
-41.6569
-37.1765
-40.1297
-38.7724
-41.8383
-33.6922
-34.0686
-33.7493
-33.7022
-94.5978
-97.3627
-90.624
-94.6097
-50.7449
-47.5763
-48.7856
-46.0382
-49.818
-46.0597
-46.8773
-44.8558
-35.9079
-35.5579
-35.5599
-34.8855
-42.145
-45.7229
-45.7115
-49.4719
-30.0868
-26.5913
-30.3511
-29.7963
-75.2971
118.077
-92.7391
76.4395
-75.4239
-72.5992
-40.3945
-32.4336
-38.0314
-30.1453
-51.5101
-39.5549
-68.7016
71.1851
-38.4553
43.9071
-57.9044
-34.6003
-43.0508
-34.5582
-37.7505
-34.1402
-48.0338
-42.3625
-92.7329
77.0551
-73.9281
118.44
-76.2471
-72.7207
-37.7872
-30.1495
-40.7044
-32.4101
-50.6159
-39.5032
-38.3812
44.1515
-67.9791
71.6677
-57.9084
-34.3959
-37.7375
-34.1148
-43.391
-34.5051
-47.5593
-42.2646
-46.763
-41.1024
-35.7699
-34.9033
-49.681
-38.468
-44.0544
-36.276
-37.593
-35.3431
-32.6278
-33.703
-32.3865
-43.5867
-34.6227
-37.6043
-52.6329
-6.57653
-51.8515
-49.3366
-51.9202
-75.1337
-5.57232
-60.6074
-46.1752
-56.0707
-42.2421
-42.6001
-46.3029
-58.9314
-68.3895
-59.5382
-44.0711
-40.9665
-44.0669
-36.1698
-35.7673
-34.7802
-49.4663
-38.112
-37.738
-35.1773
-34.6799
-37.5341
-33.4148
-33.8476
-33.7374
-40.2039
-52.3716
-6.64469
-5.44273
-60.6696
-51.3307
-48.9909
-51.6421
-74.8743
-46.0846
-56.0491
-68.5095
-59.6102
-42.6859
-43.2523
-46.6528
-58.9175
-78.3516
-75.1184
137.973
154.562
-71.497
-71.5126
162.571
162.194
-63.7181
-48.3776
-60.0373
-46.263
-49.6158
-49.729
-30.5826
-33.1625
-36.8086
-36.8353
-25.5541
-25.498
-44.6731
-50.4268
-35.2821
-36.7636
-26.5562
-26.481
120.083
120.195
-53.0939
-64.8518
-19.0364
5.18739
-39.7327
-39.7231
-34.3097
-34.4162
-52.7065
-47.4391
-50.0991
-43.0938
-79.0791
-76.3404
154.826
137.887
-64.065
-49.2392
-60.1236
-46.3077
-49.1051
-49.3657
-30.4361
-33.0339
-43.8025
-49.6988
-35.256
-36.8024
-66.0193
-53.271
5.16748
-18.8747
-46.4
-51.6125
-43.0714
-50.0935
-36.3012
-34.5486
-34.0393
-33.6209
-51.2999
-51.6822
-39.0318
-44.1274
-40.6796
-40.7084
-34.8656
-34.8345
-35.7486
-40.0865
-44.4831
-43.2418
-34.0798
-34.0428
-34.7847
-34.7489
-43.6157
-45.9809
-89.0426
-76.3057
16.6256
16.3373
-82.3093
-82.2731
-82.4903
-82.5304
-54.0951
-54.0827
-36.317
-34.8555
-34.0185
-33.6758
-51.369
-51.1035
-38.8657
-43.9115
-40.5613
-36.4738
-43.4591
-42.8162
-45.9176
-43.8561
-77.2356
-89.6816
-78.4718
-64.09
-63.8709
-72.6489
-49.2729
-49.5738
-50.3256
-46.3947
-56.2071
-52.1936
-51.6507
-49.592
-68.6105
-71.4496
-65.2097
-57.8307
-78.3668
-72.0705
-64.1828
-64.3475
-66.1055
-58.4315
-64.9346
-70.1039
-55.7118
-49.0322
-52.3454
-52.2654
-49.4944
-47.7758
-50.7603
-49.0124
-95.5405
-89.515
-59.9216
-59.9397
-95.6214
-60.0945
-59.9503
-89.609
-43.8996
-44.0223
-46.2684
-46.1659
-43.8632
-46.0678
-46.2567
-44.0473
-41.961
-27.0736
-14.3865
-36.1587
-71.2086
1.86002
12.1139
-10.6963
-70.3692
-10.9116
11.7992
1.80453
-41.5699
-36.1419
-14.2545
-27.0559
87.862
115.267
156.121
95.6294
46.7411
33.8413
178.818
115.639
47.5339
115.655
178.885
33.6385
89.2602
97.8299
155.057
115.928
-36.8184
-35.0057
-37.9378
-40.3729
-33.0338
-34.7645
-36.0844
-32.5506
-44.7854
-45.9853
-40.8501
-39.6365
-53.7837
-45.6554
-42.8607
-50.2251
-36.317
-39.9961
-37.9443
-34.9598
-53.4099
-49.996
-42.8217
-45.3127
-45.2208
-40.3834
-41.2037
-46.1555
-32.9192
-33.2187
-36.4723
-35.9644
-36.3286
-36.2678
-34.0583
-34.0079
-36.1195
-33.9752
-34.0478
-36.2212
-34.5867
-34.7471
-33.7256
-33.5139
-34.4596
-33.454
-33.6976
-34.7204
-81.0329
-69.9817
-96.5415
-52.0867
-57.7363
-73.7691
-88.4244
-61.807
-57.9303
-61.8766
-88.525
-73.8029
-80.5228
-53.3135
-96.4355
-69.8697
-43.3596
-43.2791
-45.3458
-39.9568
-40.9736
-40.709
-50.4307
-50.4506
-43.7487
-50.3808
-52.0215
-42.0327
-44.93
-40.5983
-46.4752
-48.2919
-41.4068
-39.8393
-44.5189
-43.4184
-45.4126
-47.6849
-45.3407
-42.0781
-43.8511
-42.486
-50.951
-49.2735
-41.3438
-49.2128
-49.5759
-40.7253
-37.3274
-37.3061
-34.9982
-35.7469
-37.269
-35.693
-34.9844
-37.311
-39.6871
-35.6486
-36.1275
-37.9836
-39.87
-38.0374
-36.1361
-35.8245
-54.6698
-52.4522
-49.58
-59.7408
-39.5402
-37.3464
-42.4242
-45.4402
-39.578
-45.3554
-42.4088
-37.3392
-54.7027
-59.7757
-49.5744
-52.3576
-33.1007
-26.7958
-27.9543
-32.6407
-33.0823
-32.5345
-27.947
-26.7678
-34.6565
-33.9144
-30.185
-33.8223
-34.6964
-33.8629
-30.1819
-33.949
-118.736
-159.041
-131.812
-35.5465
-35.0913
-37.4274
-31.3135
-25.5601
-60.8456
-40.0383
-37.9104
-42.4121
-159.141
-116.514
-130.838
-34.543
-35.9559
-37.2748
-25.484
-30.4199
-60.2075
-37.914
-39.8747
-42.6768
-40.6046
-38.5725
-39.8343
-40.1223
-37.2143
-34.7121
-37.4374
-35.9797
-61.4065
-57.6591
-60.0738
-71.1558
-49.4706
-46.8692
-49.9307
-53.7536
-40.6802
-39.7542
-37.7892
-40.2154
-37.0611
-35.9432
-35.3044
-37.1371
-60.8075
-70.5779
-57.1795
-59.6298
-49.8973
-53.9328
-47.1467
-50.1374
-68.0832
-59.5931
-80.9105
66.9799
-118.505
-118.695
-101.997
-21.9687
-55.0424
-48.1563
-51.9679
-51.4741
-35.0345
-36.0005
-38.6315
-33.7766
-29.9393
-29.9943
-34.848
-27.4024
-39.5381
-37.0649
-43.235
-37.2476
-27.0542
-27.1502
-33.3219
-16.0481
-50.3891
-47.4813
-53.5717
-30.3727
-34.8147
-34.8067
-35.9731
-34.2896
-49.1144
-50.2692
-49.6374
-49.5586
-62.1303
-55.3957
-78.6658
65.7361
-55.2652
-48.4178
-52.9222
-51.5765
-35.0126
-36.1325
-38.8781
-33.7258
-38.9374
-37.0819
-41.0458
-37.2367
-50.7564
-47.9928
-54.0841
-30.6206
-48.8552
-49.566
-48.6174
-49.3987
-33.7599
-33.2422
-33.4214
-33.4393
-43.5565
-45.8454
-46.1364
-43.595
-40.2302
-40.1956
-41.0493
-38.1482
-35.8069
-38.4101
-37.1563
-37.7219
-35.8404
-35.8488
-35.2638
-36.9988
-54.9324
-53.2603
-50.7114
-59.6433
-24.8185
-24.6738
-10.027
-39.5801
-66.9624
-66.9692
-70.8314
-63.2329
-33.7441
-33.3567
-33.5402
-33.5061
-43.0379
-45.3524
-45.5737
-43.167
-37.4951
-39.5935
-38.2134
-39.5959
-54.7794
-53.1894
-50.671
-60.0039
-58.661
-54.3567
-55.319
-52.7073
-59.3672
-55.6243
-56.2077
-53.7362
-55.7511
-52.0814
-52.0941
-49.0176
-7.05072
-1.18544
-1.15335
7.15759
193.864
198.494
201.299
194.54
-38.1303
-39.5773
-38.8227
-40.239
-38.2681
-39.6931
-38.9017
-40.4609
-33.709
-33.8526
-33.694
-33.7122
-95.8681
-99.2407
-93.55
-95.8907
-49.0248
-47.8142
-48.5804
-46.821
-48.3184
-46.3861
-46.5575
-45.471
-35.7002
-35.4497
-35.4541
-35.1446
-43.829
-45.6479
-45.6455
-47.461
-29.7284
-30.4053
-30.3685
-29.6149
-72.0736
-57.9398
-100.05
57.39
-138.818
-123.691
-109.539
-58.5565
-81.7501
-65.4618
-75.7203
-72.5251
-34.357
-34.2871
-37.8974
-33.0822
-33.6692
-31.336
-37.4257
-30.8638
-41.7951
-41.403
-50.4674
-40.9208
-38.923
-50.0056
-78.1877
35.3899
-27.9179
-29.6357
-37.2465
-4.74098
-50.6854
-48.8025
-56.9903
-40.656
-38.2683
-36.9799
-40.495
-35.1821
-35.5577
-34.9148
-36.4904
-34.4995
-44.7746
-48.1192
-47.5316
-44.3619
-138.489
-123.816
-109.572
-58.696
-72.9846
-57.5659
-93.2619
57.5981
-82.1486
-65.7267
-76.4771
-72.715
-33.81
-31.3943
-37.6804
-30.9011
-34.4997
-34.268
-38.3555
-32.9895
-41.5353
-41.4523
-48.6918
-40.7231
-28.2132
-30.4892
-37.1726
-4.47591
-36.7527
-41.2394
-75.5244
35.4796
-49.8494
-49.2675
-57.0469
-40.388
-35.5312
-34.8779
-36.4895
-34.4618
-38.2122
-37.1093
-40.6383
-35.1398
-44.8221
-47.1599
-47.2987
-43.9753
-44.054
-43.3827
-42.6766
-41.036
-35.5976
-34.4448
-34.9803
-34.8833
-40.8318
-41.5256
-43.2001
-39.4818
-40.0874
-40.0169
-41.2918
-37.9301
-36.9212
-36.0192
-35.1648
-35.5741
-33.5477
-33.2704
-32.7003
-33.4778
-26.3204
-31.2469
-31.2558
-32.957
-35.3624
-35.6813
-35.1009
-36.364
-63.464
-50.3931
-55.4708
-32.8056
-53.0937
-49.0497
-51.4404
-50.0932
-58.2691
-56.7281
-54.3651
-64.8478
-49.7325
-27.6914
-16.7557
-47.0715
-49.2481
-49.9889
-48.0199
-52.5109
-43.4053
-41.209
-42.1657
-42.2918
-49.9204
-52.8824
-49.0932
-54.6343
-60.9213
-65.4309
-66.4187
-62.858
-44.1249
-43.5307
-41.8662
-40.8433
-39.9462
-40.0053
-41.2741
-37.8115
-35.3989
-34.4261
-34.9943
-34.781
-39.9291
-40.9945
-42.8101
-38.9443
-36.2516
-35.7983
-33.3927
-35.3933
-35.4016
-35.7039
-35.1089
-36.3861
-33.4358
-33.7448
-33.2322
-33.6257
-31.3409
-34.1882
-33.3104
-35.2737
-62.8608
-49.8264
-55.1097
-32.4201
-49.6693
-27.6429
-16.8292
-46.7304
-52.6434
-48.589
-50.9345
-49.6894
-57.9367
-56.6105
-54.0134
-64.643
-49.1585
-49.6772
-47.8327
-52.4515
-61.2877
-65.4885
-66.4115
-62.9498
-43.9808
-41.9602
-42.7265
-43.0244
-49.9679
-52.6655
-49.2472
-54.7097
-73.804
-70.5845
-77.5246
-75.5565
159.659
187.557
157.325
173.371
-78.528
-65.0848
-71.3832
-71.3787
117.294
169.021
163.283
161.055
-52.3741
-53.501
-57.7164
-50.4694
-51.976
-52.0808
-55.6932
-48.9233
-44.5389
-53.6149
-49.7089
-49.752
-33.041
-30.5605
-31.4495
-32.8438
-35.075
-36.1067
-36.562
-36.5762
-23.2628
-23.9993
-23.5728
-23.5497
-46.4931
-47.1885
-45.8909
-48.3445
-36.2573
-35.7315
-35.5969
-36.4002
-31.2175
-20.2732
-25.9689
-25.9348
78.3167
155.639
119.507
119.255
-55.9318
-55.8062
-54.2572
-59.2815
-14.1549
-5.39392
-13.2666
-1.52153
-38.3778
-40.787
-39.6177
-39.6145
-33.5505
-31.36
-34.5549
-34.6407
-50.4772
-49.2863
-51.6788
-48.6338
-47.5571
-45.8814
-48.1704
-44.6957
-75.1758
-70.9225
-78.6216
-76.3315
159.71
185.989
173.455
157.686
-53.763
-54.7074
-57.8551
-51.8767
-52.0658
-52.1173
-55.9158
-48.9825
-44.5192
-52.1736
-49.1031
-49.1846
-32.9645
-30.5611
-31.313
-32.7236
-45.6687
-45.6548
-44.3818
-47.3773
-36.3256
-35.7423
-35.6067
-36.4234
-56.6013
-56.4921
-59.7402
-54.994
-14.1185
-5.05271
-0.810237
-13.0045
-49.1323
-47.2006
-47.1994
-50.3431
-47.5512
-45.8853
-44.68
-48.1664
-35.103
-36.0377
-35.8377
-34.988
-33.5826
-33.6582
-33.8214
-33.5382
-52.0076
-51.2327
-51.3207
-51.9508
-41.9046
-40.7053
-40.1381
-42.5665
-44.5326
-43.8337
-40.8837
-40.803
-35.4958
-34.4133
-34.8875
-34.8446
-37.551
-38.2465
-36.8667
-38.831
-42.0709
-45.4013
-44.3287
-43.4758
-34.3976
-33.886
-34.1053
-34.0815
-35.4969
-34.7322
-34.7135
-34.701
-46.4561
-42.9952
-44.0624
-45.302
-73.1151
-90.5757
-86.453
-79.3144
12.2402
18.0711
17.9016
17.7359
-68.4561
-95.09
-82.872
-82.9832
-79.9108
-87.485
-83.6156
-83.6361
-56.9612
-51.7093
-54.1867
-54.0836
-35.1861
-36.2148
-35.9358
-35.2595
-33.6086
-33.6706
-33.8205
-33.5778
-51.3997
-51.6138
-51.6033
-51.2503
-41.6567
-40.5868
-39.945
-42.3641
-38.287
-38.6965
-39.4104
-37.533
-41.4696
-44.6141
-43.1139
-42.8244
-46.4229
-43.1793
-45.3785
-44.2418
-72.9674
-90.4144
-78.7551
-86.2257
-74.3908
-77.5332
-78.1335
-70.4675
-50.3162
-58.4844
-46.3727
-51.165
-51.5491
-51.7069
-52.686
-51.682
-63.4815
-63.04
-72.3229
-68.5212
-76.1676
-78.5512
-79.4372
-70.7424
-63.0628
-63.2588
-73.562
-69.8181
-51.4173
-51.2352
-52.7256
-51.4267
-47.5368
-57.8746
-47.2707
-50.5275
-80.5007
-72.4587
-71.7614
-65.3743
-80.6189
-72.5576
-71.8107
-65.462
-41.1987
-44.3247
-43.9191
-41.0871
-41.1127
-44.269
-43.8956
-41.1491
-34.6726
-31.7269
-27.6079
-24.0645
4.7675
5.10191
10.8703
14.8256
5.77044
5.13098
8.02269
14.4934
-34.5638
-31.5627
-27.5026
-23.9091
135.055
148.158
140.6
155.748
88.7498
90.5869
126.757
113.611
91.6229
89.259
115.035
126.648
146.56
135.141
156.323
141.975
-36.5947
-37.7289
-36.7572
-37.8767
-33.1558
-32.9685
-34.106
-34.5364
-42.549
-44.338
-41.3261
-43.3235
-48.3785
-49.8056
-45.7065
-46.7879
-36.5285
-37.5067
-36.6999
-37.7196
-48.0795
-49.5222
-45.4765
-46.5801
-42.9445
-44.7257
-41.7531
-43.4741
-33.8829
-33.9548
-34.6145
-35.2539
-34.8907
-35.4962
-34.4007
-34.8715
-35.409
-34.7982
-34.8222
-34.3567
-34.2594
-33.9346
-34.0299
-33.8381
-33.7954
-34.1662
-33.7438
-33.9737
-93.326
-71.076
-90.4053
-81.0567
-64.9504
-72.1588
-75.0477
-80.1349
-72.0175
-64.7281
-80.0724
-75.9857
-71.0102
-92.5501
-80.8224
-89.9357
-41.7096
-45.1343
-43.9678
-44.2924
-43.9371
-50.4083
-49.8318
-53.7327
-45.8587
-48.5797
-49.4208
-51.5223
-44.9552
-42.7102
-45.8844
-42.9802
-42.251
-44.0443
-43.2582
-43.1291
-45.041
-43.7025
-45.09
-43.3379
-45.6128
-47.6467
-48.722
-51.0003
-43.932
-50.1052
-49.5992
-52.9954
-35.1639
-36.0892
-35.0564
-34.8676
-35.0158
-36.0289
-34.9973
-34.836
-36.9868
-38.5224
-37.1995
-37.1974
-37.0116
-38.6194
-37.211
-37.2304
-55.68
-56.8932
-52.2224
-54.2446
-38.9736
-41.0049
-39.9691
-41.6218
-38.9701
-40.9655
-39.9593
-41.6
-55.5658
-56.8328
-52.2173
-54.1465
-31.5544
-29.9259
-30.1526
-27.7558
-29.8694
-31.4298
-27.6461
-30.0567
-33.9347
-34.2696
-34.1764
-34.3118
-34.2862
-33.9728
-34.3243
-34.2258
-109.531
22.4943
-116.933
-59.9051
-87.6966
-95.1214
-38.6509
-33.7619
-37.2711
-33.7247
-43.6057
-39.9688
-77.4771
22.691
-42.4545
0.0519341
-66.8267
-46.5307
-41.6845
-35.8671
-38.222
-35.3195
-43.8573
-41.0988
-116.9
-65.1509
-106.345
24.7845
-87.7066
-95.0642
-37.9073
-33.9624
-38.9702
-33.8771
-43.6338
-40.0717
-42.4916
0.378662
-75.7979
23.3139
-64.4705
-45.9857
-38.2486
-35.2714
-41.7965
-35.8117
-43.9257
-41.3814
-43.0105
-43.9308
-35.9582
-36.3066
-43.2955
-38.3767
-40.5601
-38.0044
-39.4422
-37.4917
-33.0209
-34.2152
-28.4962
-38.1305
-35.0455
-36.9272
-59.2372
-78.3813
-55.9397
-54.6377
-56.1229
-67.1587
-84.5953
-91.3279
-47.2731
-52.4226
-44.676
-44.7061
-47.2904
-53.7113
-57.3842
-55.7838
-43.2195
-44.2297
-40.6166
-37.6711
-35.3794
-36.0311
-44.069
-37.3921
-38.6078
-37.292
-35.14
-36.7187
-34.0624
-34.5519
-31.5586
-39.0725
-58.7182
-77.624
-83.5978
-90.7486
-55.4336
-54.2378
-55.7653
-66.8072
-47.383
-52.425
-57.458
-55.9466
-45.1976
-45.1552
-47.5931
-53.9928
-84.912
62.809
-83.1177
49.4716
-72.1976
-71.8976
125.451
125.073
-103.591
-45.1852
-103.634
-38.2028
-88.7316
-88.7351
98.2569
96.0725
-62.442
-59.6957
-45.8786
-45.746
-58.0629
-49.5347
-55.5009
-48.728
-38.017
-33.1052
-39.3968
-34.3908
-40.9612
-41.6126
-32.9752
-33.5902
-35.648
-28.4568
-35.7033
-28.446
-34.9715
-35.0461
-25.2534
-25.1493
-49.9556
-38.9508
-40.595
-36.0447
-44.4837
-47.2722
-36.1472
-37.1057
-35.1125
-6.80835
-35.1568
-6.70046
-35.2484
-35.2596
32.1513
32.3494
-54.4097
-35.1378
-51.5893
-26.5797
-52.8655
-56.9854
-23.4925
-15.3349
-36.0419
-34.3371
-36.0338
-34.308
-37.2579
-37.2563
-33.904
-33.9389
-49.2252
-46.951
-48.9244
-51.8654
-50.4172
-49.1201
-50.786
-47.4204
-82.2973
62.495
-80.0889
48.397
-71.4198
-70.8718
125.628
125.862
-62.6719
-59.879
-46.8022
-45.9191
-57.904
-50.6894
-55.6444
-48.8259
-38.2981
-33.036
-39.8436
-34.367
-41.9377
-41.0036
-32.897
-33.5519
-46.8097
-38.8771
-41.9522
-36.0026
-42.8311
-46.5072
-36.1738
-37.3511
-54.8678
-35.2602
-51.6054
-27.2451
-57.2567
-53.2904
-15.5398
-23.5925
-48.3614
-46.7534
-48.2997
-51.7951
-48.7184
-49.0663
-47.3249
-50.6797
-34.2387
-33.9797
-32.681
-33.2699
-35.1173
-33.4342
-33.7347
-33.4568
-44.5532
-41.3613
-48.3027
-46.4238
-49.2419
-49.269
-41.4806
-44.0319
-40.9683
-38.1811
-40.9341
-38.1354
-44.1404
-44.1194
-36.2201
-36.2419
-34.4543
-34.8903
-39.5993
-40.2037
-36.0498
-38.3356
-39.4878
-39.6684
-35.1948
-36.5982
-35.2117
-36.5904
-34.8017
-34.7557
-37.128
-37.1194
-52.7129
-62.3836
-47.7433
-56.9387
-47.8904
-49.4956
-67.4083
-63.3985
-10.7516
-39.8181
-10.6094
-39.3964
3.30003
3.24575
-53.8464
-53.8954
-69.9462
-62.9946
-69.9804
-63.0254
-74.9275
-74.9421
-60.3117
-60.3015
-34.1829
-33.9538
-32.9596
-33.4905
-35.0499
-33.9808
-33.7086
-33.4386
-43.9762
-40.8818
-47.7635
-46.0097
-48.6917
-48.6541
-41.1173
-43.6843
-36.0553
-37.315
-40.4744
-41.1742
-39.1155
-37.0999
-40.6418
-41.7739
-53.0046
-62.3294
-47.8707
-57.3457
-49.4579
-48.0687
-63.4715
-67.3272
-63.7975
-64.2503
-58.2282
-51.548
-53.4564
-59.152
-51.1362
-51.3687
-64.4402
-64.7038
-58.6233
-52.993
-59.3883
-54.1109
-51.8747
-51.1825
-59.9229
-59.9293
-55.6819
-48.963
-55.7097
-48.984
-46.0871
-46.2659
-13.2938
-13.2292
-8.15435
4.75966
5.71776
-7.96106
13.8267
13.7489
171.709
191.037