# vtk DataFile Version 2.0
tri_press
ASCII
DATASET UNSTRUCTURED_GRID
POINTS 3682 float
-0.605312 0.125 -1.875
-0.725 0.265 1.84533
-0.625 0.444419 -1.795
-0.765 0.675 1.81475
0.605 0.125 -1.8748
0.725 0.265 1.84533
0.625 0.444113 -1.795
0.765 0.675 1.81471
-0.703649 0.113226 -0.63489
-0.793132 0.110306 0.60522
-0.781586 0.631198 -0.59175
-0.817114 0.69692 0.6115
0.703435 0.113231 -0.634757
0.793081 0.110252 0.605287
0.777562 0.626971 -0.591763
0.816284 0.695988 0.611473
-1.34494 -0.174727 -2.87137
-1.34433 -0.118143 -1.89406
-1.43627 -0.12535 -0.652996
-1.53065 -0.128518 0.595486
-1.52199 -0.0274484 1.83717
-1.50723 0.0404926 2.81754
-1.50352 0.0881104 3.79225
-1.33549 0.0387083 -2.84466
-1.33497 0.117039 -1.87136
-1.45225 0.131977 -0.637468
-1.55118 0.125428 0.599752
-1.51438 0.217392 1.83435
-1.50057 0.283002 2.8142
-1.50063 0.330909 3.79011
-1.34609 0.429332 -2.78086
-1.3604 0.506178 -1.80601
-1.50601 0.637723 -0.597239
-1.57882 0.678181 0.608926
-1.54307 0.683001 1.8184
-1.5168 0.745814 2.79976
-1.50845 0.806234 3.7816
-1.39371 1.12764 -2.71288
-1.41501 1.21825 -1.74357
-1.48392 1.35536 -0.546745
-1.54319 1.44428 0.642136
-1.5551 1.47781 1.83934
-1.54273 1.50799 2.80943
-1.52867 1.55184 3.78725
-0.653887 -0.170945 -2.8737
-0.630214 -0.111272 -1.89748
-0.692235 -0.134576 -0.652498
-0.770272 -0.138324 0.600161
-0.760927 -0.00269826 1.84532
-0.745468 0.0580535 2.82308
-0.742036 0.0970593 3.79545
-0.648589 0.035504 -2.84535
-0.732536 0.301052 2.81876
-0.736623 0.33919 3.79252
-0.654096 0.40324 -2.77628
-0.744785 0.74738 2.79903
-0.741094 0.808369 3.78145
-0.673847 1.1105 -2.70836
-0.679116 1.20244 -1.73859
-0.727293 1.35265 -0.543743
-0.775433 1.44899 0.641783
-0.786484 1.47847 1.83678
-0.774888 1.50649 2.80687
-0.762279 1.55059 3.7854
0.662049 -0.171519 -2.87358
0.666788 -0.111564 -1.89732
0.731469 -0.134791 -0.652379
0.774077 -0.138474 0.600226
0.733663 -0.00278877 1.84534
0.75652 0.0578912 2.82309
0.771879 0.0967901 3.79547
0.641389 0.0349858 -2.84523
0.765011 0.300935 2.81876
0.77841 0.33894 3.79253
0.652619 0.402491 -2.77622
0.778175 0.747218 2.79902
0.783751 0.808076 3.78145
0.737827 1.10909 -2.70832
0.760412 1.20077 -1.73856
0.778955 1.35081 -0.543727
0.774379 1.44774 0.641788
0.764271 1.47774 1.83678
0.766643 1.50592 2.80688
0.772093 1.55005 3.7854
1.34369 -0.176207 -2.87115
1.35404 -0.119476 -1.89381
1.44978 -0.12649 -0.652802
1.53034 -0.129133 0.595597
1.51044 -0.0278094 1.83722
1.5172 0.0400502 2.81758
1.52987 0.0874993 3.79228
1.32032 0.037175 -2.84444
1.31996 0.115401 -1.87112
1.4416 0.130299 -0.637286
1.5477 0.124783 0.599847
1.51702 0.217143 1.83438
1.52419 0.282628 2.81422
1.53625 0.330328 3.79013
1.33675 0.427329 -2.78073
1.34814 0.503519 -1.80591
1.49293 0.633244 -0.597177
1.57322 0.676525 0.608941
1.54582 0.682531 1.81838
1.54113 0.745323 2.79975
1.54473 0.805563 3.78161
1.44481 1.12484 -2.7128
1.47561 1.21502 -1.74351
1.52117 1.35197 -0.546704
1.54155 1.44187 0.642156
1.53825 1.47631 1.83934
1.53674 1.5068 2.80944
1.53815 1.55072 3.78727
-0.60534 0.284709 -1.82518
-0.000155985 0.134208 -1.86569
-0.65999 0.113603 -1.25495
-0.770032 0.47 1.85507
0 0.234038 1.87629
-0.784251 0.162467 1.22528
0 0.49692 -1.84765
-0.801424 0.63594 -1.19338
0 0.757355 1.89708
-0.836189 0.731092 1.21313
0.605096 0.284556 -1.825
0.659622 0.113711 -1.25478
0.77004 0.47 1.85506
0.784161 0.162506 1.22531
0.801613 0.635874 -1.19338
0.836174 0.731026 1.21309
-0.750908 0.109248 -0.014835
-0.808431 0.372212 -0.61332
-0.000106925 0.10145 -0.634823
-0.862782 0.403613 0.60836
-2.51265e-05 0.101532 0.605253
-0.79618 0.660889 0.009875
-0.00201172 0.902988 -0.591757
-0.000415073 0.944157 0.611487
0.750978 0.109022 -0.014735
0.804085 0.370101 -0.61326
0.862823 0.40312 0.60838
0.79201 0.656566 0.00985503
-0.807886 0.328461 -1.22416
0.807769 0.327329 -1.22408
-0.000131455 0.101029 -1.25486
-0.00100586 0.685014 -1.19338
-7.79927e-05 0.284633 -2.02701
-0.82836 0.387913 -0.00248
0.824824 0.386611 -0.00243998
-6.60256e-05 0.101488 -0.014785
-0.0012134 1.01759 0.00986502
-0.885333 0.436807 1.2192
0.885257 0.43656 1.2192
-1.25632e-05 0.110804 1.22529
-0.000207536 0.812543 1.21311
0 0.47 1.99853
-0.571276 0.204855 -1.81604
-0.302734 0.120739 -1.87921
-0.631508 0.120445 -1.56497
-0.752185 0.3675 1.85487
-0.3625 0.264188 1.84614
-0.799241 0.169119 1.5353
-0.629884 0.364564 -1.82481
-0.3125 0.480883 -1.83154
-0.734229 0.561196 -1.49419
-0.764414 0.5725 1.83181
-0.3825 0.742272 1.88201
-0.815112 0.717564 1.51394
0.302422 0.120615 -1.87924
0.572231 0.204778 -1.81708
0.631236 0.12043 -1.56479
0.3625 0.264272 1.84606
0.752258 0.3675 1.85493
0.799218 0.169116 1.53532
0.3125 0.480775 -1.83158
0.629563 0.364335 -1.82451
0.734019 0.560706 -1.49419
0.3825 0.742215 1.88194
0.76232 0.5725 1.82968
0.815437 0.717863 1.5139
-0.683077 0.112157 -0.944918
-0.724344 0.114171 -0.324863
-0.787302 0.227088 -0.624105
-0.352129 0.106836 -0.634857
-0.810143 0.114935 0.915248
-0.770456 0.11134 0.295193
-0.894852 0.223512 0.60679
-0.395867 0.107342 0.605237
-0.795005 0.637069 -0.892563
-0.810026 0.509214 -0.602535
-0.788943 0.646104 -0.290938
-0.444601 0.872698 -0.591753
-0.829421 0.716776 0.912313
-0.857845 0.559215 0.60993
-0.804708 0.676966 0.310688
-0.464058 0.931126 0.611493
0.682865 0.112135 -0.944768
0.351917 0.106836 -0.63479
0.72416 0.114174 -0.324746
0.786493 0.2253 -0.624008
0.810065 0.114935 0.915298
0.395803 0.107342 0.60527
0.770328 0.111339 0.295276
0.894883 0.223221 0.606833
0.795494 0.637328 -0.892573
0.441872 0.873174 -0.59176
0.801415 0.503832 -0.602512
0.784539 0.641521 -0.290954
0.829299 0.716577 0.912283
0.463389 0.930983 0.61148
0.857877 0.558716 0.609927
0.804755 0.676885 0.310664
-0.770687 0.306585 -1.52467
-0.302709 0.284671 -1.99163
-0.00014372 0.124649 -1.56028
-0.000116989 0.209421 -1.99864
-0.805081 0.221032 -1.23955
-0.330061 0.103122 -1.2549
-0.887066 0.453403 1.53714
-0.385016 0.47 1.94608
-6.28162e-06 0.129448 1.55079
0 0.352019 2.02056
-0.868568 0.299637 1.22224
-0.392132 0.131949 1.22528
-0.00050293 0.630743 -1.52052
-3.89963e-05 0.390776 -1.99642
-0.812987 0.482201 -1.20877
-0.401215 0.697839 -1.19338
-0.000103768 0.801718 1.5551
0 0.613677 1.94475
-0.886298 0.583949 1.21616
-0.418198 0.877994 1.21312
0.770974 0.305943 -1.52454
0.302509 0.284595 -1.99151
0.805563 0.22052 -1.23943
0.329745 0.103889 -1.25482
0.887069 0.45328 1.53713
0.38502 0.47 1.94675
0.868574 0.299533 1.22225
0.392074 0.131928 1.2253
0.81291 0.481601 -1.20873
0.400304 0.697915 -1.19338
0.886303 0.583793 1.21615
0.417983 0.878089 1.2131
-0.766427 0.260184 -0.0086575
-0.374614 0.107115 -0.01481
-0.818213 0.350336 -0.91874
-0.818386 0.380062 -0.3079
-0.00011919 0.101023 -0.944843
-8.64752e-05 0.101453 -0.324804
-0.839888 0.395763 0.30294
-0.886709 0.42021 0.91378
-4.55761e-05 0.101513 0.295234
-1.88449e-05 0.100172 0.915273
-0.826948 0.53174 0.0036975
-0.458985 0.959816 0.00987001
-0.00150879 0.79871 -0.892568
-0.00161256 0.98224 -0.290946
-0.000814235 1.01253 0.310676
-0.000311305 0.850529 0.912298
0.76555 0.258992 -0.00858748
0.374526 0.107115 -0.01476
0.818225 0.348715 -0.91867
0.813857 0.378356 -0.30785
0.839531 0.394865 0.30297
0.887004 0.41984 0.91379
0.816382 0.525571 0.00370753
0.456766 0.959813 0.00986002
-0.757817 0.212943 -1.54482
-0.813482 0.231875 -0.931829
-0.820273 0.491953 -0.905651
-0.774601 0.423382 -1.50943
0.757536 0.212649 -1.54466
0.774472 0.422968 -1.50936
0.820238 0.490069 -0.905621
0.813496 0.231093 -0.931719
-0.316397 0.110332 -1.56262
0.316084 0.110824 -1.56253
0.340705 0.10375 -0.944805
-0.340969 0.10375 -0.94488
-0.356858 0.612527 -1.50735
-0.396507 0.776844 -0.892565
0.394039 0.776998 -0.89257
0.356402 0.61257 -1.50735
-0.302721 0.207138 -1.92458
-0.307604 0.37767 -1.97841
0.307504 0.377556 -1.97864
0.302465 0.207099 -1.92453
-0.774975 0.24458 -0.316381
-0.757062 0.278637 0.299066
-0.837556 0.543057 0.306814
-0.818516 0.520491 -0.299419
0.774391 0.242961 -0.316298
0.809016 0.51476 -0.299402
0.837641 0.5424 0.306817
0.756645 0.277892 0.299123
-0.36336 0.106998 -0.324833
0.36321 0.106998 -0.324775
0.385164 0.107229 0.295255
-0.38524 0.107228 0.295213
-0.467273 0.947217 -0.290942
-0.464744 0.951917 0.310682
0.463679 0.952601 0.31067
0.465027 0.947909 -0.29095
-0.870591 0.278298 0.914514
-0.874699 0.333568 1.53622
-0.885464 0.578225 1.52554
-0.884244 0.567108 0.913046
0.870236 0.27811 0.914544
0.884509 0.566674 0.913036
0.885372 0.578147 1.52552
0.874642 0.333516 1.53622
-0.394355 0.116478 0.91526
0.394301 0.116494 0.915285
0.377287 0.158936 1.54306
-0.377316 0.152706 1.54305
-0.413481 0.917975 0.912305
-0.400349 0.835914 1.53452
0.400242 0.835936 1.5345
0.412959 0.918012 0.91229
-0.373758 0.35976 1.97974
0.37376 0.35976 1.98001
0.38376 0.593089 1.93304
-0.383758 0.593089 1.93272
-0.550109 0.164927 -1.80734
-0.454023 0.130628 -1.86935
-0.620138 0.120994 -1.71999
-0.738252 0.31625 1.84976
-0.54375 0.277004 1.83333
-0.777626 0.201554 1.69032
-0.629231 0.404492 -1.81169
-0.46875 0.469801 -1.82042
-0.6834 0.506594 -1.64459
-0.774249 0.62375 1.83282
-0.57375 0.711574 1.85132
-0.794558 0.700784 1.66434
0.453711 0.130632 -1.86919
0.550385 0.164889 -1.80771
0.619845 0.120988 -1.71979
0.54375 0.277149 1.83318
0.737971 0.31625 1.84947
0.776983 0.202184 1.69032
0.46875 0.469523 -1.82037
0.628998 0.404224 -1.81147
0.683252 0.506151 -1.6446
0.57375 0.711618 1.85133
0.774367 0.62375 1.8329
0.794696 0.70091 1.66431
-0.695765 0.11029 -0.789904
-0.713994 0.113701 -0.479876
-0.775852 0.154969 -0.629498
-0.528531 0.108748 -0.634873
-0.801764 0.112494 0.760234
-0.783249 0.109368 0.450206
-0.887065 0.145372 0.606005
-0.593665 0.110492 0.605228
-0.782769 0.628607 -0.742156
-0.802286 0.573446 -0.597143
-0.78514 0.638527 -0.441344
-0.629585 0.784931 -0.591752
-0.823853 0.707433 0.761906
-0.846573 0.632615 0.610715
-0.809898 0.68593 0.461094
-0.630468 0.793786 0.611497
0.695419 0.110415 -0.789762
0.528316 0.108753 -0.634773
0.713792 0.113708 -0.479751
0.77531 0.154093 -0.629383
0.801666 0.112501 0.760292
0.593594 0.110493 0.605278
0.783117 0.109383 0.450281
[...]
POINT_DATA 3682
SCALARS point_scalars float 1
LOOKUP_TABLE default
-60.9974
-33.0361
42.1467
-35.4037
-15.8704
-32.9457
42.3543
-35.3454
-33.1166
-44.7721
-40.7267
-32.565
-33.0431
-45.3816
-40.5798
-32.6553
109.765
-69.6422
-32.535
-50.92
-46.7562
-31.7069
-29.2714
131.572
-69.6422
-43.3798
-55.5969
-48.6112
-31.5617
-27.8957
131.572
-34.9234
-36.1587
-31.8924
-44.521
-31.1657
-31.1657
37.6329
-42.7384
-40.7025
-34.8822
-42.6815
-34.2604
-34.2604
103.204
-110.465
-33.5098
-42.5966
-37.152
-27.7909
-25.6934
174.484
-27.0437
-24.7215
181.273
-27.4393
-24.7215
109.073
-13.3984
-62.103
-48.6394
-35.2145
-29.3965
-26.7934
103.678
-116.646
-34.5385
-43.6367
-36.2665
-27.7563
-25.6212
175.264
-26.97
-25.6212
181.272
-27.8413
-24.5684
109.215
-11.9777
-62.5795
-48.8228
-34.7339
-29.1238
-26.8451
105.963
-65.2211
-46.1148
-51.4291
-46.6396
-31.7613
-29.2149
131.659
-65.2211
-44.4973
-55.7748
-48.5762
-31.4707
-30.1697
131.659
-33.481
-36.4362
-32.1443
-44.6306
-34.436
-31.4707
37.8468
-46.6626
-40.1417
-35.026
-42.5736
-34.1805
-34.1805
52.4876
-113.466
-49.4113
-31.414
-28.4505
-36.0352
30.5806
-64.8056
-26.8908
-45.747
51.1315
-49.4382
-31.2611
-36.0882
-65.653
-45.7228
-28.4559
-34.804
-33.0939
-36.4715
-33.3025
-36.4504
-38.9073
-53.1129
-29.215
-34.9874
-36.7221
-35.5293
-60.1143
-60.4307
-49.2467
-14.1271
199.148
-25.9012
-25.0601
-29.9306
-73.5645
-39.6139
-39.6985
-37.8826
-37.0773
-21.0634
51.7951
-127.965
-76.265
-31.9749
-29.9278
-42.9627
35.0861
36.7724
-18.513
-32.3629
-28.9223
-44.7386
-129.013
42.3947
-75.4488
-29.8465
-31.8404
-43.8201
37.8256
34.8974
-17.8952
-28.8411
-32.2731
-44.8976
-37.0233
-25.4084
-34.9276
-32.9758
-35.9662
-20.3425
-56.1288
-33.0468
-49.7991
-36.0284
-39.0752
-45.7017
-37.1226
-30.8684
-33.9253
-49.0803
-36.9133
-32.9912
-28.2339
-34.8092
-36.0731
-33.0519
-20.3172
-56.4024
-50.414
-45.4499
-35.9463
-37.8879
-37.4948
-49.2383
-31.1258
-33.4488
-56.4362
155.488
-61.6867
130.538
-57.9146
-48.9545
-46.4246
-26.2149
-38.3001
-21.7568
-38.6426
-37.4193
-15.4073
127.631
-63.7429
-29.6232
-31.6277
-21.5375
-41.0052
-39.6911
-55.8718
155.164
-58.2668
-48.8576
-46.4422
-26.1053
-38.7103
-37.4885
-63.8798
-30.3743
-41.101
-39.7703
-25.1138
-29.3128
-45.3388
-29.7026
-38.1609
-30.4661
-20.0807
-37.6074
-31.0269
-38.2611
-29.0084
-58.6328
-10.8858
-63.2625
-65.1428
-43.1528
-24.6801
-29.2792
-46.4967
-29.3118
-19.2447
-37.823
-27.6485
-58.0023
-62.8326
-44.1938
-46.2809
-49.4198
-60.5939
-49.0519
-48.0986
-44.5735
-71.2279
-71.1859
-38.1405
-38.1141
-13.478
-19.2735
-18.9783
-12.9609
85.4709
149.334
149.38
84.2617
-29.0423
-15.521
-26.5885
-32.1083
-29.037
-31.5633
-25.322
-15.1221
-30.0044
-30.0274
-30.4268
-30.4692
-68.3104
-52.3716
-52.0282
-68.5189
-33.0782
-45.561
-47.0832
-37.3213
-33.1286
-37.651
-47.0442
-45.5707
-39.5865
-39.6544
-39.2297
-39.5778
-46.1911
-34.4071
-34.3773
-46.368
-26.4544
-26.3901
-26.1658
-26.2583
13.1643
-8.91139
-104.98
-32.7823
-30.7763
-42.3123
41.8343
34.1236
4.70607
-34.1244
-30.868
-40.6166
-11.4612
8.08717
-103.854
-30.695
-32.6911
-41.7354
34.4033
41.7763
4.35529
-30.7734
-34.0257
-40.5111
-35.0081
-31.4303
-34.1686
-32.289
-42.2915
-26.3426
-54.3854
-34.1459
-44.2815
-37.458
-39.5945
-56.9167
-35.8851
-30.4808
-31.1206
-41.8871
-34.7002
-32.2981
-30.1016
-34.3027
-42.3436
-34.2201
-26.2499
-54.666
-45.6554
-56.8442
-37.3063
-38.9354
-36.0583
-41.4626
-30.7426
-31.1453
52.0695
46.0071
-26.3593
130.919
-125.312
-125.327
-78.7247
22.3482
-60.0622
-42.0799
-56.5072
-48.2057
-31.7384
-31.668
-42.4517
-27.41
-28.6927
-28.6077
-34.7532
-24.308
-37.1094
-39.4422
-38.0484
-36.5162
30.9781
31.4791
5.50407
74.8661
-51.8636
-57.7728
-67.553
-46.1232
-27.6087
-27.5567
-29.4823
-25.0022
-46.8743
-41.5865
-42.0091
-43.8374
49.3152
45.4288
-26.156
131.485
-60.1797
-42.0806
-56.497
-48.1967
-31.652
-31.5102
-42.4122
-27.3443
-37.231
-39.478
-38.1069
-36.5822
-51.8721
-58.3205
-67.018
-49.1475
-46.8917
-41.535
-42.0147
-43.9193
-27.0632
-22.7281
-25.327
-28.182
-34.8674
-35.3073
-41.6814
-31.3325
-33.028
-33.037
-35.1658
-31.518
-46.3795
-32.6469
-30.2887
-37.1757
-33.2648
-33.2799
-32.0312
-35.5408
-37.0582
-35.5417
-31.4889
-47.0029
-39.6399
-39.7261
-24.7723
-55.6743
-53.3602
-53.4337
-58.586
-46.6987
-26.912
-22.3202
-24.8863
-28.0687
-34.8603
-35.4013
-42.6269
-31.1629
-46.7256
-32.8946
-30.2758
-37.3487
-36.4504
-34.5931
-29.9194
-46.1939
-79.3807
-59.5887
-61.3369
-50.1147
-79.6679
-59.9423
-61.5769
-50.3393
-51.0957
-49.2036
-49.1856
-42.6775
-21.9217
-17.1429
-17.0308
-4.14651
193.717
178.407
197.539
193.488
-25.0091
-27.8904
-23.0521
-27.3326
-24.5564
-27.2828
-22.1865
-26.2584
-29.7891
-29.9322
-30.3146
-29.7776
-70.6515
-83.9476
-67.6279
-70.4799
-41.529
-39.1319
-40.2753
-39.5457
-41.5588
-39.2039
-40.3591
-39.6644
-39.7312
-37.7233
-37.7476
-38.3753
-34.0549
-37.595
-37.6322
-39.4775
-23.0603
-20.9669
-22.2035
-22.8725
-38.1405
108.575
-95.9985
-2.27056
-73.19
-74.929
-41.4714
-27.8892
-34.7817
-27.9496
-45.8996
-41.5685
-10.9239
135.88
8.33548
72.7876
-34.8337
-8.86652
-43.3115
-27.5628
-31.9302
-27.0771
-47.9418
-38.1574
-95.9386
-3.87999
-39.0168
107.071
-71.4627
-74.4602
-34.7214
-27.8697
-41.4096
-27.883
-46.0392
-41.6645
8.18689
72.6356
-10.8024
136.454
-34.7953
-7.53363
-31.8789
-27.0083
-43.4247
-27.5062
-48.1358
-38.0927
-41.1882
-37.652
-27.1726
-29.2985
-41.9455
-31.3193
-35.1374
-31.1645
-33.4285
-40.4919
-15.4011
-28.8712
-6.96368
-40.0948
-31.8118
-36.4824
-48.7196
-36.6111
-42.1169
-33.5668
-34.415
-51.2284
-30.297
-57.7928
-35.8976
-47.0897
-28.6878
-33.6762
-28.9444
-44.3438
-49.108
-48.6495
-41.2396
-37.686
-35.1622
-31.1817
-28.7934
-29.2248
-42.7236
-31.1441
-33.5078
-40.5578
-31.8084
-36.5918
-14.9521
-28.6898
-6.76287
-40.144
-50.5034
-36.7773
-30.1605
-58.0844
-43.9921
-32.9608
-33.7407
-51.0326
-36.1626
-47.5388
-49.309
-48.7848
-28.9799
-33.8742
-28.1293
-43.1609
-58.0765
-54.121
109.804
181.633
-63.6945
-63.9241
112.695
112.808
-73.9725
-48.1494
-56.4487
-42.4844
-46.0474
-46.427
-25.9797
-26.3461
-38.5326
-38.6052
-24.0355
-23.9201
-38.7875
-40.8846
-38.8474
-40.5818
-15.5502
-15.4644
134.728
134.488
-52.9734
-81.8416
-28.9592
-17.0544
-32.2981
-32.2932
-22.6668
-22.755
-42.827
-40.3553
-42.6122
-36.827
-56.7856
-53.8608
181.402
110.812
-74.3123
-48.4112
-56.1266
-42.5004
-46.3069
-46.0845
-25.8959
-26.2259
-38.8806
-40.95
-38.8963
-40.9032
-82.2917
-52.8348
-19.2528
-28.3001
-40.5107
-42.8756
-36.8702
-42.6698
-27.4923
-21.1319
-29.3645
-29.6642
-44.6757
-46.1606
-29.252
-30.7758
-38.1895
-38.1782
-30.364
-30.3708
-15.3145
-24.3576
-34.387
-38.1585
-30.8958
-30.9089
-38.2452
-38.2703
-27.2768
-30.5086
-63.4973
-55.2165
-12.7485
-12.7154
-70.5007
-70.3252
-61.137
-61.107
-43.6285
-43.6712
-27.2384
-20.621
-29.3667
-29.6187
-47.5516
-45.4677
-28.7646
-30.2441
-23.2297
-14.8786
-34.5008
-38.4119
-29.6311
-25.486
-55.0954
-62.5364
-42.9361
-69.2038
-77.4399
-34.2414
-40.0377
-41.5491
-49.2693
-46.4407
-42.6855
-55.6252
-51.7136
-41.5628
-7.07818
-18.5783
-80.3201
-77.4937
-52.9487
-34.2192
-77.794
-69.9412
-7.23643
-77.6167
-80.7916
-18.3554
-44.1626
-43.1948
-51.3167
-56.1691
-37.1746
-46.348
-49.6485
-42.2022
-105.04
-82.6065
-53.1358
-57.7757
-104.146
-57.7525
-52.8894
-82.6241
-34.7716
-35.1821
-42.6667
-41.8991
-34.7461
-41.9058
-42.6642
-35.1698
10.6709
-35.3283
-24.0433
6.09811
-51.22
-25.5898
-5.83953
-40.8175
-51.4065
-41.478
-6.90055
-25.4713
10.8193
5.73574
-23.8999
-36.4622
55.4831
118.453
163.246
27.7688
82.5078
73.8005
193.249
150.022
82.6637
150.068
193.21
73.8209
61.2808
28.1611
163.029
119.029
-31.6964
-27.5703
-27.3231
-31.3177
-10.3945
-21.9374
-20.9695
-20.8601
-29.4902
-30.1896
-25.2537
-28.6249
-35.7339
-32.1596
-29.1021
-32.8873
-31.1098
-30.9209
-26.9089
-27.181
-34.7656
-32.0887
-28.4367
-31.886
-29.4918
-28.7496
-23.8457
-28.1717
-10.0089
-20.3239
-20.6519
-21.5996
-30.6496
-31.4396
-29.8098
-28.0951
-30.687
-28.2561
-29.8086
-31.4479
-31.8417
-31.9665
-30.1506
-28.4917
-31.865
-28.592
-30.1669
-31.9674
-53.7903
-49.1014
-74.0908
-55.3695
-37.5172
-58.0308
-65.4823
-44.1621
-37.2757
-44.6593
-65.459
-57.9592
-54.1486
-55.1554
-73.9405
-48.2729
-39.8444
-37.7421
-39.2053
-41.1801
-41.4398
-41.521
-40.9128
-39.6483
-42.2642
-44.7501
-42.1929
-43.4937
-33.4387
-34.6116
-39.7579
-39.6218
-40.0184
-41.2222
-39.3084
-37.8033
-33.779
-39.631
-39.8907
-34.8103
-42.2544
-43.5487
-42.2359
-44.7153
-41.3448
-39.7264
-40.9562
-41.4606
-37.2139
-35.498
-38.6497
-39.0774
-37.3999
-39.0912
-38.671
-35.5265
-35.8841
-34.5461
-40.8077
-39.0511
-36.0485
-38.9869
-40.8097
-34.5492
-36.9442
-46.3567
-39.8016
-46.7443
-35.2714
-30.162
-34.6098
-41.1681
-35.1804
-41.3159
-34.6517
-30.1297
-37.8935
-46.7526
-39.8406
-46.4665
-29.2074
-26.6831
-22.679
-27.3856
-29.1648
-27.3573
-22.2701
-26.6371
-27.9262
-25.7513
-23.381
-27.3789
-27.9915
-27.4577
-23.3901
-25.797
-21.0777
23.6812
-82.7211
-32.6834
-31.6597
-36.3788
44.4096
42.5265
14.2966
-34.7367
-32.6284
-37.802
21.1758
-33.0574
-86.8005
-31.5656
-32.6239
-36.323
42.682
44.454
13.9951
-32.5363
-34.6507
-37.7177
-35.1874
-31.4736
-32.4301
-32.412
-46.7615
-37.3818
-51.4772
-35.9422
-42.6283
-38.6092
-39.7185
-49.1974
-34.4158
-31.267
-31.9091
-36.6196
-35.7773
-32.4021
-30.9981
-32.9468
-47.2062
-36.0717
-37.5818
-51.7331
-43.69
-49.0363
-38.4752
-39.0683
-34.4968
-36.4457
-31.4864
-32.258
52.3709
49.8101
-11.1376
100.434
-118.1
-118.067
-90.1238
51.7026
-54.4682
-45.0778
-55.2392
-48.3492
-31.5578
-31.3081
-35.7985
-28.1494
-28.4223
-28.3615
-30.9842
-26.6508
-36.4151
-35.6482
-37.2653
-35.5201
29.1974
29.5043
18.7593
47.4264
-63.1877
-62.7666
-68.2689
-53.1211
-27.1072
-27.0734
-28.4347
-25.9339
-46.7304
-42.5798
-42.9708
-45.5813
50.3157
48.8303
-11.6216
101.062
-54.5656
-45.0951
-55.3928
-48.3767
-31.4732
-31.2146
-35.7081
-28.1347
-36.4774
-35.7006
-37.3201
-35.5874
-63.5086
-63.529
-68.275
-56.3854
-46.7413
-42.6563
-43.3107
-45.7586
-27.6028
-23.2326
-27.7038
-26.9863
-34.7512
-35.0241
-38.4008
-32.6736
-33.048
-33.0527
-34.1204
-32.062
-40.4699
-34.411
-33.6491
-38.2728
-33.4023
-33.4099
-32.695
-33.4094
-36.2754
-35.9066
-33.5019
-42.591
-39.1272
-39.2341
-31.5493
-47.1956
-53.1092
-53.124
-57.0481
-49.1477
-27.2767
-22.9346
-27.7735
-26.7858
-34.8577
-35.2104
-39.3229
-32.3765
-40.7977
-34.6534
-33.7838
-38.6366
-35.8852
-34.528
-32.1621
-41.5298
-67.3373
-59.7943
-60.5762
-54.7478
-67.6786
-60.1376
-60.8693
-55.0725
-53.3718
-49.2308
-49.213
-45.3558
-25.3841
-14.6357
-13.8455
-4.71747
198.035
188.551
210.227
198.034
-25.3899
-26.9331
-24.5487
-26.6077
-24.7518
-26.2432
-23.8112
-25.6543
-29.8816
-29.9504
-30.0362
-29.8764
-72.7927
-78.5633
-70.3112
-72.7252
-40.1783
-39.3545
-39.9232
-39.4735
-40.2338
-39.4315
-40.0089
-39.5785
-38.9757
-37.8836
-37.8934
-37.4265
-35.4557
-37.2882
-37.3049
-38.4272
-21.7291
-20.2539
-21.5661
-21.43
40.3523
55.6608
5.54287
101.725
-61.795
-133.339
-129.554
-49.626
-101.897
-65.3389
-75.0074
-74.3008
-32.0844
-31.8802
-35.3047
-28.8083
-30.3966
-29.3087
-32.0777
-28.5856
-45.4623
-38.9119
-45.5436
-41.9282
39.0172
37.601
-6.76668
110.469
37.7281
34.1174
18.4067
52.7887
-6.93759
-35.1157
-26.6824
-8.4873
-33.0213
-31.7744
-38.4317
-28.5936
-29.4652
-28.105
-30.6973
-28.0291
-42.9089
-45.6579
-46.8766
-40.5193
-62.486
-133.365
-129.987
-55.5026
31.4901
53.6691
4.64738
112.446
-101.304
-65.1899
-73.8131
-73.5892
-30.3132
-29.2085
-32.001
-28.5007
-31.9515
-31.7907
-35.2044
-28.7962
-44.1513
-39.1952
-45.8804
-42.5799
38.2679
35.4647
18.5889
53.3056
38.9021
37.2604
-6.99703
111.143
-5.95729
-34.7382
-26.4181
-7.6478
-29.3297
-28.0356
-30.6445
-27.9505
-32.8811
-31.8788
-38.456
-28.5234
-42.9306
-45.7066
-47.1163
-40.5336
-35.6503
-39.209
-39.7177
-37.2355
-28.9897
-27.8235
-23.4069
-28.4091
-35.1575
-34.927
-38.5829
-32.7911
-32.5853
-32.9555
-34.2127
-31.7944
-38.9677
-45.244
-31.9566
-42.0278
-18.8193
-21.5819
-17.6213
-26.9057
-56.8223
-51.2649
-28.9316
-57.5891
-33.4291
-33.1926
-32.6011
-33.5865
-46.9267
-55.6638
-49.8852
-49.2643
-36.5385
-35.5956
-38.9067
-34.515
-39.0231
-37.9601
-36.4019
-44.9281
-53.4263
-40.6182
-37.8283
-51.0981
-35.5891
-40.0095
-36.1551
-39.686
-30.5123
-31.6341
-29.5311
-32.3878
-32.9141
-34.585
-30.8376
-38.9882
-45.1465
-52.4728
-50.6852
-48.3344
-35.5487
-39.1786
-39.6761
-37.2341
-32.5999
-32.9682
-34.2297
-31.8105
-29.101
-27.378
-27.7846
-28.6836
-35.1356
-34.8671
-39.0559
-32.3515
-39.0768
-45.2652
-32.055
-42.0467
-33.3618
-33.2147
-32.5911
-33.6631
-18.5798
-21.2857
-17.3005
-26.641
-57.0323
-51.5746
-28.595
-57.7845
-47.5738
-56.0463
-51.1207
-49.4957
-52.7462
-40.968
-37.689
-50.9102
-36.3643
-35.5906
-39.6485
-33.8775
-38.5182
-37.2958
-35.4097
-44.4905
-35.7339
-40.3324
-36.4469
-40.111
-45.3144
-52.565
-50.9271
-48.5027
-30.7724
-31.8916
-29.8172
-32.5933
-33.2306
-32.8413
-30.5515
-38.7072
-42.1787
-74.3353
-57.2911
-55.6662
134.917
181.41
133.612
178.427
-69.586
-53.6116
-62.3695
-62.3739
78.209
168.805
126.881
126.952
-57.0679
-58.7828
-66.7055
-53.2466
-48.6466
-49.1193
-53.1585
-45.1747
-48.5336
-43.3589
-46.276
-46.4032
-26.8426
-24.7849
-26.0754
-26.2927
-37.1946
-39.4038
-38.379
-38.409
-22.136
-20.8574
-23.2445
-23.1672
-38.3194
-38.8653
-38.2465
-39.2661
-37.1875
-37.6638
-37.8267
-38.5085
-8.56835
-20.3053
-15.6531
-15.6575
95.7236
168.399
130.188
129.591
-65.3281
-61.8256
-58.8969
-70.126
-37.9518
-20.1774
-29.1394
-22.1599
-30.6157
-32.7501
-31.8198
-31.818
-22.6606
-22.2314
-21.5988
-21.6712
-41.424
-40.6337
-41.7586
-40.4491
-41.8603
-38.3843
-41.3744
-38.1053
-41.113
-74.8731
-56.3541
-55.2863
135.392
181.601
178.235
133.039
-57.2462
-59.1072
-67.3
-53.5145
-48.5889
-49.075
-53.2215
-45.1147
-48.591
-43.3792
-46.3424
-46.3141
-26.7759
-24.6666
-25.9787
-26.173
-38.3793
-38.9335
-38.3067
-39.3275
-37.2656
-37.7099
-37.8642
-38.6176
-65.2102
-62.175
-70.4522
-58.6605
-39.5675
-20.1601
-21.7671
-30.0843
-41.5227
-40.7246
-40.5737
-41.8274
-41.9421
-38.445
-38.1635
-41.443
-25.2472
-24.9629
-26.5135
-23.0074
-28.7466
-29.5728
-29.3318
-29.4161
-44.2158
-46.2903
-45.1665
-45.8597
-30.4633
-28.8859
-29.0619
-30.1978
-36.7227
-40.2504
-38.1587
-38.1558
-30.8691
-30.2119
-30.4573
-30.4599
-23.1608
-21.4033
-18.2219
-22.9312
-35.8988
-39.8061
-36.1341
-38.1726
-31.4785
-30.5639
-31.0009
-31.0066
-37.7194
-39.0527
-38.0874
-38.0992
-30.0219
-28.0931
-28.1733
-29.7167
-51.913
-66.1516
-60.8154
-56.7564
-17.7569
-5.26788
-11.2559
-11.1788
-62.1981
-74.3687
-69.198
-68.9953
-62.0355
-66.1295
-63.1546
-63.1307
-45.3685
-41.16
-43.2413
-43.2587
-24.7416
-24.5475
-26.1838
-22.4596
-28.6846
-29.553
-29.3129
-29.3735
-44.8314
-47.1872
-47.1166
-45.7812
-30.1036
-28.2625
-28.7911
-29.6762
-22.7677
-20.2142
-21.9848
-17.5375
-35.9242
-40.0481
-36.2853
-38.4077
-28.618
-26.8945
-29.0971
-26.6095
-51.1384
-65.864
-56.4597
-59.9548
-54.0687
-67.6822
-60.3555
-69.2521
-42.9662
-43.97
-44.3998
-44.3681
-47.1305
-45.1873
-48.0648
-46.4918
-28.1258
-41.8905
-52.7455
-76.8456
-52.6411
-65.5025
-58.6285
-69.1641
-27.5195
-42.1404
-52.313
-76.0277
-48.9642
-46.5667
-49.5131
-48.0203
-43.1643
-44.4868
-44.7443
-44.9286
-82.2718
-74.4626
-66.5621
-62.1552
-82.1116
-74.0705
-66.766
-61.8678
-37.9396
-36.6567
-40.14
-38.1826
-37.9038
-36.6323
-40.1121
-38.1633
-3.12326
-10.0755
-15.1363
-21.9527
-26.432
-23.9971
-17.5886
-15.6345
-26.0781
-23.6966
-19.8409
-15.7256
-3.00986
-8.90448
-14.8461
-21.1375
94.9858
48.9217
100.443
123.114
149.855
105.556
172.8
141.263
105.985
151.913
141.25
173.221
46.9442
94.8403
122.835
100.235
-28.5811
-29.8798
-28.4322
-29.1773
-15.5055
-12.0816
-18.8564
-15.1931
-27.6486
-27.7104
-25.4836
-26.4914
-32.7955
-32.8899
-31.3952
-31.3681
-29.0767
-29.9201
-28.1902
-28.985
-32.1729
-32.3636
-30.905
-30.9157
-28.0778
-26.6485
-24.397
-23.947
-15.0806
-11.7312
-18.3566
-14.7576
-29.5338
-30.4776
-29.6612
-30.2202
-30.4989
-29.5741
-30.2325
-29.6798
-31.0507
-29.8586
-30.7064
-29.889
-29.9474
-31.0711
-29.9266
-30.7296
-61.3042
-60.5814
-67.5327
-69.3448
-47.5015
-49.7263
-53.9466
-57.6011
-49.8257
-46.6991
-57.5429
-53.5565
-60.6942
-60.6478
-69.2919
-67.2515
-33.3512
-38.8275
-40.9354
-32.4192
-48.7668
-45.4299
-45.8195
-41.8465
-47.0859
-47.5038
-46.7107
-44.3842
-36.676
-34.9475
-39.6092
-37.9316
-33.4163
-38.8896
-41.0474
-32.5061
-36.9849
-35.1511
-39.8566
-38.2007
-47.1029
-47.564
-46.6297
-44.4316
-48.7286
-45.4382
-45.8417
-41.8988
-38.674
-40.2343
-39.3
-38.4738
-38.818
-40.3219
-39.3315
-38.517
-37.3103
-40.4423
-38.6702
-40.9691
-37.704
-40.6444
-38.8211
-40.7252
-47.6935
-47.1685
-44.3682
-44.6961
-33.5202
-36.3866
-32.9222
-35.8304
-33.4612
-36.3238
-32.9153
-35.8208
-48.0797
-47.3596
-44.4595
-44.7637
-27.1727
-26.9178
-26.0177
-25.6278
-26.8457
-27.1427
-25.5529
-25.9328
-26.2257
-26.7945
-24.8531
-26.2445
-26.8698
-26.3024
-26.3567
-24.9811
-26.9807
87.9932
-159.077
27.2044
-79.8283
-110.454
-35.5256
-29.5992
-33.184
-29.9444
-42.4629
-38.1017
0.30648
73.4627
24.6244
62.7595
-2.00447
12.3534
-38.8164
-29.6484
-34.2045
-29.354
-41.6844
-37.4732
-159.822
24.4522
-26.8044
92.8888
-76.5427
-108.131
-33.0832
-29.865
-35.4449
-29.439
-42.2755
-37.5165
24.8744
62.9273
0.0573781
73.2457
-2.38088
12.1395
-34.0977
-29.2723
-38.717
-29.5953
-41.6122
-37.3876
-36.9351
-34.8656
-32.4392
-30.3193
-38.3661
-32.9105
-33.1612
-31.3677
-44.6591
-38.5759
-8.77946
-32.7813
-18.4133
-66.628
-33.0035
-35.1243
-43.3606
-50.9866
-40.0792
-36.2788
-37.2387
-46.124
-57.4662
-56.2371
-34.2451
-39.0884
-29.7319
-31.9593
-30.4035
-35.7081
-38.7303
-41.2979
-34.5194
-34.9176
-33.187
-31.3607
-29.9956
-30.3005
-39.568
-32.3809
-44.6818
-38.7825
-32.9909
-35.2571
-8.38384
-32.6543
-18.8315
-66.6812
-44.7827
-51.6659
-57.0662
-56.7903
-40.9788
-35.468
-36.3513
-46.0032
-34.5377
-39.2807
-38.5224
-40.9587
-30.0847
-32.2172
-30.3885
-35.5061
-9.75611
97.8514
-8.24386
101.831
-29.4204
-22.6878
125.559
135.881
-94.2744
38.7319
-94.3294
39.236
-79.8936
-79.9109
33.4391
33.5782
-67.3098
-57.5316
-45.5378
-41.6184
-65.4568
-51.2378
-52.3867
-44.3685
-35.4704
-28.2377
-37.6529
-28.2427
-41.9151
-42.8811
-27.3552
-27.4154
-31.5122
-27.5624
-31.4327
-27.5439
-34.4261
-34.4672
-24.5356
-24.5226
-38.5958
-37.946
-38.0815
-39.087
-37.0736
-38.2606
-36.997
-37.3219
17.616
44.3566
18.1393
44.7285
5.17945
5.00118
74.4473
74.4743
-69.9471
-38.2351
-56.3922
-55.0263
-62.5574
-75.9597
-43.4601
-44.5527
-29.0398
-26.4659
-29.0102
-26.422
-29.6967
-29.6695
-25.1043
-25.145
-46.6103
-43.3208
-39.8149
-45.7159
-43.0795
-40.672
-44.8797
-42.5326
-10.4444
99.024
-8.54442
102.072
-29.3211
-22.4265
136.61
125.989
-67.9596
-57.4858
-45.4144
-41.6393
-65.9586
-51.696
-52.2809
-44.391
-35.3777
-28.1992
-37.5757
-28.202
-42.9491
-41.8534
-27.2966
-27.3394
-38.6863
-38.0701
-38.1361
-39.1094
-37.1353
-38.3294
-37.0423
-37.384
-70.1432
-38.6278
-57.3282
-55.3444
-75.7888
-62.1599
-46.3558
-44.5671
-46.6616
-43.3576
-39.698
-46.1029
-40.8426
-43.0861
-42.5246
-45.1381
-26.6862
-27.5969
-20.5734
-27.9553
-26.8514
-22.6227
-28.2667
-28.3059
-38.4848
-32.6244
-38.5185
-33.2401
-41.7254
-41.6292
-31.1841
-31.6712
-34.0893
-32.0177
-34.0998
-32.0266
-35.1558
-35.1498
-31.4967
-31.5006
-37.9349
-50.4922
-30.5743
-34.1922
-28.9609
-29.3662
-39.8627
-35.2492
-32.6499
-33.5165
-32.656
-33.5405
-32.0243
-32.0242
-35.5161
-35.5289
-34.7541
-43.7945
-32.251
-41.1851
-30.8018
-31.9456
-48.045
-45.8495
-31.8212
-47.597
-31.9669
-47.3275
-24.8392
-24.7699
-56.1727
-56.0822
-56.5651
-49.556
-56.6406
-49.5747
-58.7709
-58.7818
-46.6398
-46.651
-26.3973
-27.5794
-20.0671
-27.8562
-26.478
-22.1341
-28.1537
-28.2049
-39.1077
-32.0828
-39.5421
-32.9839
-42.7914
-42.519
-30.9218
-31.5307
-38.0553
-50.7223
-30.764
-34.4324
-29.4256
-28.7929
-39.9947
-35.4198
-34.0247
-42.9333
-30.8454
-40.9261
-31.1353
-28.9702
-45.3961
-47.1884
-78.7251
-80.2407
-67.1219
-54.2239
-56.1352
-68.1508
-49.6145
-50.7826
-78.8878
-80.6105
-67.4189
-54.4886
-68.6296
-56.829
-50.9141
-49.9457
-51.7445
-51.6718
-52.9843
-45.319
-52.9667
-45.3123
-42.653
-42.6572
-22.5747
-22.3506
-26.3214
-6.68426
-7.44916
-26.2797
-3.65549
-4.88622
178.928
196.971
175.291
175.204
198.352
198.315
196.95