# vtk DataFile Version 2.0
tri_press
ASCII
DATASET UNSTRUCTURED_GRID
POINTS 3682 float
-0.715 0.205 -1.8613
-0.67347 0.265 1.955
-0.745 0.712065 -1.795
-0.655 1.025 1.87868
0.705 0.205 -1.87242
0.673471 0.265 1.955
0.745 0.712111 -1.795
0.655 1.025 1.87869
-0.744357 0.181799 -0.5892
-0.742999 0.189314 0.6829
-0.807214 0.90859 -0.57044
-0.780247 1.01594 0.65412
0.739077 0.180414 -0.596613
0.740628 0.188352 0.679194
0.807053 0.908461 -0.570437
0.780365 1.01607 0.654127
-1.47776 -0.208173 -2.86645
-1.47861 -0.149247 -1.86732
-1.4941 -0.163793 -0.593732
-1.47558 -0.17799 0.689333
-1.41922 -0.132121 1.96374
-1.40708 -0.0856294 2.96682
-1.41533 -0.0401088 3.96272
-1.47752 0.109349 -2.84854
-1.48216 0.192236 -1.85494
-1.50731 0.203914 -0.591104
-1.47714 0.20701 0.676778
-1.39218 0.253707 1.94158
-1.38941 0.299374 2.94417
-1.40698 0.34387 3.94184
-1.48997 0.699623 -2.80076
-1.51088 0.778897 -1.80677
-1.55348 0.923394 -0.575641
-1.50755 1.00617 0.652045
-1.392 1.0302 1.88435
-1.39102 1.07166 2.88912
-1.41189 1.11585 3.89476
-1.49809 1.72168 -2.76457
-1.51113 1.8213 -1.777
-1.52994 1.98963 -0.561733
-1.5253 2.12972 0.643266
-1.49387 2.20275 1.85953
-1.47201 2.24059 2.84918
-1.46364 2.27794 3.84923
-0.731734 -0.201787 -2.87213
-0.726253 -0.138969 -1.87445
-0.742153 -0.174148 -0.595174
-0.743863 -0.19155 0.694212
-0.709281 -0.130288 1.97372
-0.699201 -0.0848254 2.97339
-0.703974 -0.0411698 3.96616
-0.728031 0.107841 -2.85155
-0.685084 0.301501 2.94953
-0.697994 0.343245 3.94431
-0.734695 0.671377 -2.79615
-0.684861 1.07035 2.88754
-0.70251 1.11488 3.89386
-0.738251 1.70078 -2.75992
-0.746388 1.80082 -1.77159
-0.767215 1.98287 -0.558745
-0.779519 2.13415 0.641968
-0.767698 2.20647 1.85539
-0.7514 2.24212 2.84504
-0.743206 2.27852 3.84597
0.734547 -0.202026 -2.87931
0.725413 -0.139313 -1.88336
0.740502 -0.175205 -0.601851
0.728853 -0.192394 0.690518
0.685703 -0.130579 1.97247
0.694913 -0.0850773 2.9722
0.706704 -0.0414633 3.96466
0.735108 0.107709 -2.85846
0.689422 0.301336 2.94875
0.703989 0.342992 3.94303
0.753378 0.671304 -2.79957
0.68189 1.07022 2.88692
0.698626 1.11466 3.89272
0.77728 1.70059 -2.76253
0.781075 1.80063 -1.77364
0.769517 1.98267 -0.560364
0.729843 2.13396 0.640634
0.691608 2.20629 1.8542
0.687625 2.24191 2.84376
0.693968 2.27828 3.84451
1.47611 -0.208747 -2.87923
1.47067 -0.150051 -1.88154
1.48875 -0.165396 -0.605022
1.4706 -0.179408 0.682456
1.41418 -0.132899 1.9602
1.40913 -0.0862435 2.96384
1.42038 -0.040739 3.95945
1.47722 0.108944 -2.86069
1.46899 0.191736 -1.86897
1.50028 0.202368 -0.601829
1.48108 0.205678 0.670593
1.40224 0.253096 1.93895
1.39932 0.298882 2.94183
1.41491 0.343309 3.93896
1.50064 0.699349 -2.80842
1.50751 0.778684 -1.81285
1.55102 0.922765 -0.58033
1.51067 1.00567 0.649055
1.39767 1.02982 1.88255
1.39281 1.07127 2.88718
1.41004 1.11537 3.89217
1.53142 1.72125 -2.77012
1.5378 1.82087 -1.78161
1.52995 1.98916 -0.565487
1.48575 2.12928 0.640168
1.4331 2.20232 1.8568
1.41739 2.24012 2.84638
1.41885 2.27742 3.84615
-0.754442 0.458532 -1.85259
-0.005 0.190108 -1.88175
-0.747028 0.176051 -1.22525
-0.685288 0.645 1.93789
4.76837e-07 0.233584 1.98642
-0.723304 0.212087 1.31895
0 0.811263 -1.89418
-0.807637 0.841858 -1.18272
0 1.07528 1.92896
-0.747544 1.05039 1.2664
0.750087 0.458555 -1.8588
0.738692 0.176053 -1.23452
0.68529 0.645 1.9379
0.721698 0.212028 1.3171
0.80723 0.841489 -1.18272
0.747475 1.05033 1.26641
-0.743453 0.185782 0.04685
-0.872407 0.545195 -0.57982
-0.00264031 0.165884 -0.592907
-0.865945 0.602625 0.66851
-0.00118534 0.167978 0.681047
-0.795361 0.963893 0.04184
-8.02581e-05 1.25027 -0.570438
5.86895e-05 1.45822 0.654123
0.740086 0.18415 0.04129
0.87174 0.544437 -0.583525
0.866419 0.60221 0.66666
0.795207 0.963762 0.041845
-0.849423 0.501864 -1.20399
0.849611 0.501496 -1.20862
-0.00382015 0.171397 -1.22988
-4.01291e-05 0.939591 -1.18272
-0.0025 0.458544 -2.15155
-0.875488 0.57391 0.044345
0.875291 0.573324 0.0415675
-0.00191282 0.167216 0.04407
-1.07843e-05 1.43895 0.0418425
-0.865963 0.623812 1.29268
0.865891 0.623605 1.29175
-0.000592429 0.204 1.31802
2.93447e-05 1.35406 1.2664
2.38419e-07 0.645 2.06418
-0.725184 0.331766 -1.84741
-0.36 0.19098 -1.8781
-0.746411 0.175128 -1.54328
-0.708968 0.455 1.97604
-0.336735 0.239243 1.98076
-0.717309 0.219621 1.63698
-0.765534 0.585299 -1.83961
-0.3725 0.790498 -1.87342
-0.788586 0.789229 -1.48886
-0.679434 0.835 1.91758
-0.3275 1.05938 1.91306
-0.729244 1.06567 1.57254
0.35 0.19132 -1.88332
0.71857 0.331778 -1.85664
0.737115 0.175258 -1.55347
0.336736 0.239145 1.98085
0.709086 0.455 1.97616
0.716448 0.21965 1.63605
0.3725 0.791885 -1.87479
0.763402 0.585333 -1.84276
0.788297 0.788982 -1.48886
0.3275 1.05993 1.91362
0.679417 0.835 1.91757
0.729244 1.06567 1.57255
-0.750447 0.17417 -0.907225
-0.744237 0.183458 -0.271175
-0.852239 0.341569 -0.58451
-0.371197 0.178445 -0.591053
-0.726158 0.207694 1.00093
-0.743481 0.187293 0.364875
-0.845884 0.375264 0.675705
-0.371342 0.180147 0.681973
-0.812897 0.880695 -0.87658
-0.865476 0.739725 -0.57513
-0.799954 0.934909 -0.2643
-0.475524 1.22318 -0.570439
-0.764807 1.03407 0.96026
-0.862127 0.828796 0.661315
-0.791849 0.993959 0.34798
-0.488047 1.43298 0.654122
0.743639 0.173479 -0.915565
0.365714 0.178157 -0.59476
0.739947 0.181916 -0.277662
0.850948 0.339656 -0.590069
0.723713 0.207641 0.998145
0.36984 0.177929 0.68012
0.74043 0.186179 0.360242
0.845736 0.374175 0.672927
0.812597 0.88043 -0.876578
0.475335 1.22306 -0.570438
0.865042 0.739271 -0.576981
0.799777 0.934759 -0.264296
0.764861 1.03414 0.960268
0.48802 1.43276 0.654125
0.862124 0.828506 0.660393
0.791977 0.994106 0.347986
-0.856059 0.480198 -1.52829
-0.378471 0.458538 -2.10397
-0.00441007 0.171133 -1.55582
-0.00375 0.324326 -2.1237
-0.845501 0.338957 -1.21462
-0.375424 0.179911 -1.22757
-0.836838 0.634406 1.61528
-0.342644 0.645 2.03211
-0.000295976 0.217474 1.65222
3.57628e-07 0.439292 2.14828
-0.859538 0.41795 1.30581
-0.361948 0.215969 1.31849
-2.00645e-05 0.907411 -1.53845
-0.00125 0.634904 -2.09687
-0.846704 0.671861 -1.19335
-0.403839 0.919688 -1.18272
1.46724e-05 1.23181 1.59768
1.19209e-07 0.860138 2.04006
-0.832893 0.8371 1.27954
-0.373757 1.34491 1.2664
0.855984 0.480026 -1.53371
0.373793 0.45855 -2.10572
0.845453 0.338775 -1.22157
0.367436 0.179085 -1.2322
0.837089 0.634303 1.61483
0.342645 0.645 2.03338
0.85955 0.417816 1.30442
0.360553 0.215963 1.31756
0.84689 0.671493 -1.19567
0.403595 0.917313 -1.18272
0.833654 0.836966 1.27908
0.373752 1.34873 1.26641
-0.851004 0.359079 0.0455975
-0.367104 0.187656 0.04546
-0.858171 0.523529 -0.891903
-0.874239 0.559552 -0.267738
-0.00323023 0.165654 -0.911395
-0.00227657 0.166901 -0.274418
-0.874891 0.588267 0.356428
-0.86272 0.613219 0.980593
-0.00154908 0.167326 0.362558
-0.000888882 0.191114 0.999535
-0.867032 0.784705 0.0430925
-0.503813 1.41368 0.0418413
-6.01936e-05 1.09712 -0.876579
-4.55212e-05 1.38312 -0.264298
2.39526e-05 1.45862 0.347983
4.40171e-05 1.42829 0.960264
0.850676 0.357243 0.0414288
0.363126 0.187604 0.04268
0.858166 0.522967 -0.896071
0.873811 0.55888 -0.270979
0.874971 0.587767 0.354114
0.86246 0.612908 0.979206
0.86689 0.784364 0.0417063
0.503722 1.41361 0.0418438
-0.849722 0.335362 -1.53578
-0.852425 0.351227 -0.899564
-0.861664 0.699377 -0.884241
-0.831264 0.62858 -1.50857
0.849432 0.335276 -1.54359
0.831271 0.628413 -1.51128
0.860992 0.698971 -0.886324
0.852391 0.3506 -0.905818
-0.367712 0.184586 -1.54955
0.358718 0.184388 -1.55464
0.367827 0.171288 -0.91348
-0.374461 0.171528 -0.90931
-0.388169 0.893838 -1.51365
-0.403743 1.07542 -0.876579
0.403541 1.07549 -0.876578
0.388048 0.893922 -1.51365
-0.369236 0.328046 -2.07103
-0.375486 0.610101 -2.06699
0.373147 0.610118 -2.06749
0.361897 0.328052 -2.07462
-0.851535 0.350367 -0.269456
-0.850529 0.366129 0.360651
-0.868424 0.808673 0.352204
-0.86624 0.762208 -0.266019
0.850688 0.348511 -0.27432
0.865993 0.761831 -0.267637
0.868385 0.808374 0.35105
0.850445 0.364589 0.357178
-0.369115 0.183122 -0.272797
0.364435 0.18285 -0.27604
0.36674 0.182253 0.3614
-0.370098 0.182152 0.363717
-0.506827 1.35275 -0.264299
-0.500571 1.43261 0.347982
0.500543 1.43253 0.347984
0.506711 1.3527 -0.264297
-0.859869 0.40696 0.990759
-0.851872 0.436475 1.62613
-0.797683 0.83605 1.59391
-0.850505 0.82319 0.970426
0.860421 0.406549 0.988676
0.850566 0.823053 0.969737
0.797594 0.835983 1.59369
0.851883 0.436408 1.62544
-0.36702 0.20498 1.00023
0.365137 0.205772 0.99884
0.348644 0.229718 1.64413
-0.349342 0.230483 1.6446
-0.381926 1.41221 0.960262
-0.350629 1.20718 1.58511
0.350626 1.20648 1.58512
0.381982 1.41209 0.960266
-0.339689 0.447146 2.12137
0.33969 0.447146 2.12143
0.335073 0.847569 2.02644
-0.335072 0.847569 2.02653
-0.733144 0.268383 -1.86741
-0.5375 0.18102 -1.88667
-0.745803 0.174966 -1.70229
-0.693468 0.36 1.96777
-0.505102 0.25665 1.96335
-0.70389 0.23381 1.79599
-0.761995 0.648682 -1.82403
-0.55875 0.764186 -1.84712
-0.773806 0.75766 -1.64193
-0.674778 0.93 1.90569
-0.49125 1.05199 1.90567
-0.710323 1.06353 1.72561
0.5275 0.190046 -1.88598
0.725012 0.268389 -1.87775
0.736218 0.174969 -1.71294
0.505103 0.256582 1.96342
0.694942 0.36 1.96924
0.703279 0.234006 1.79552
0.55875 0.765228 -1.84812
0.75983 0.648722 -1.82451
0.773445 0.757343 -1.64193
0.49125 1.05205 1.90574
0.674865 0.93 1.90578
0.710455 1.06367 1.72562
-0.743598 0.181789 -0.748213
-0.74443 0.182496 -0.430188
-0.816692 0.252487 -0.586855
-0.560527 0.174622 -0.590127
-0.742681 0.190402 0.841913
-0.743443 0.188101 0.523888
-0.813234 0.272893 0.679303
-0.556606 0.18586 0.682437
-0.811512 0.8961 -0.72351
-0.850235 0.831103 -0.572785
-0.803322 0.921488 -0.41737
-0.693058 1.16927 -0.57044
-0.772782 1.02526 0.80719
-0.836575 0.930059 0.657718
-0.787415 1.00631 0.50105
-0.664469 1.2851 0.654121
0.738257 0.180047 -0.756089
0.553271 0.177534 -0.595687
0.73952 0.181157 -0.437138
0.815064 0.250009 -0.593341
0.74062 0.189547 0.838669
0.553929 0.185751 0.679657
0.740734 0.187061 0.519718
0.813517 0.271096 0.67606
0.811296 0.895916 -0.723507
0.692312 1.168 -0.570437
[...]
POINT_DATA 3682
SCALARS point_scalars float 1
LOOKUP_TABLE default
-99.3217
-49.2945
-60.9666
-38.7481
-90.7807
-48.9417
-65.2552
-38.088
-41.4619
-39.7253
-63.9983
-52.7433
-41.507
-39.8621
-63.5373
-52.604
-13.6578
-92.4254
-41.6179
-38.8771
-55.8628
-47.2465
-42.5664
7.35245
-92.7708
-44.5111
-40.2039
-57.2958
-41.4349
-40.5268
57.2603
-80.1321
-56.0066
-48.9475
-44.9386
-39.8802
-38.3549
-37.9848
-52.324
-88.7568
-62.5
-42.4921
-38.5271
-38.0188
-49.4538
-137.175
-41.7624
-40.6697
-51.4094
-43.4665
-40.6537
76.8104
-40.4856
-40.3807
135.16
-37.6822
-36.9896
11.1943
-25.6391
-81.6275
-63.7578
-41.1003
-35.5841
-35.004
14.5879
-139.021
-41.885
-40.82
-51.0363
-43.1053
-40.4804
63.5572
-40.3006
-40.217
138.267
-36.8962
-35.8869
7.19052
-25.861
-80.9589
-64.4483
-42.754
-34.924
-33.9969
-5.53904
-92.417
-41.3931
-39.0848
-55.268
-46.5389
-42.7561
5.46782
-92.73
-44.279
-40.3906
-56.7437
-43.1436
-40.2414
49.0758
-79.012
-55.8299
-48.9631
-44.5352
-39.404
-37.7174
-44.2377
-52.1898
-88.0572
-62.406
-42.1425
-37.877
-37.2811
-48.2655
-115.118
-54.5924
-41.3479
-48.5611
-43.9579
-28.2138
-52.5595
-32.8196
-46.9549
-44.3999
-54.7815
-40.8088
-43.8052
-52.2918
-46.6643
-38.3549
-48.2888
-44.565
-43.9154
-44.3934
-55.5343
-16.0023
-69.2812
-38.4667
-48.2632
-44.0125
-55.8714
-56.8969
-57.1255
-57.7081
11.6783
205.614
-43.9426
-43.7955
-39.2387
-92.83
-47.8433
-47.5355
-43.2311
-42.9087
-36.3887
-22.4394
-118.914
-82.6187
-43.6302
-48.361
-48.0029
-51.4836
-25.0524
-52.3456
-40.7478
-34.4315
-43.8825
-118.429
-23.483
-83.1455
-48.2128
-43.2126
-47.959
-26.4472
-48.1745
-52.2124
-33.859
-40.1605
-43.4382
-50.6883
-39.0415
-44.1851
-44.3526
-43.8729
-39.114
-40.2718
-43.3617
-62.1887
-53.8611
-59.6849
-24.5073
-49.5667
-47.896
-53.9138
-65.8286
-49.5267
-44.5002
-38.8793
-44.081
-43.6664
-43.5194
-39.0606
-40.4681
-62.3066
-24.193
-53.6827
-59.5654
-49.3784
-65.7316
-47.8494
-54.0966
-96.3048
174.735
-75.2666
155.262
-56.8143
-56.8145
-54.0254
-38.245
-44.218
-39.8863
-46.7787
-43.2303
-12.9665
157.982
-57.5701
4.94337
-34.9005
-34.2759
-48.8986
-44.4131
-97.3318
174.417
-57.0758
-57.0628
-53.4901
-37.8024
-46.5329
-43.1825
-57.5248
4.93315
-48.5968
-44.329
-40.9965
-38.7401
-50.335
-45.4621
-49.2888
-40.3177
-43.8428
-43.0956
-40.2539
-43.0824
-48.4371
-84.4966
21.5523
-80.207
-79.5674
-55.7079
-40.9379
-38.8725
-50.7029
-45.3409
-43.7765
-42.9578
-48.4992
-84.5842
-101.364
-50.595
-52.7731
-76.9634
-103.119
-77.0736
-52.7947
-50.6383
-75.2562
-75.0838
-48.8621
-48.5095
-16.2776
13.6354
13.6265
-16.4061
136.841
127.145
128.199
136.72
-41.895
-41.0357
-47.8349
-50.7379
-41.7937
-50.699
-47.8889
-40.8828
-39.5732
-39.5943
-39.8575
-39.9669
-79.2594
-71.5522
-71.5537
-79.313
-44.0816
-55.3623
-48.7136
-46.5981
-43.5024
-46.4286
-48.1113
-54.8405
-42.4573
-42.2785
-44.6034
-44.7154
-55.561
-36.1646
-35.8803
-55.4495
-40.4416
-40.2895
-36.6291
-37.3058
-38.4882
-121.947
-106.252
-44.5302
-49.177
-50.9484
-51.9406
-24.2552
-60.8499
-40.129
-35.6012
-41.0918
-123.524
-35.6638
-107.531
-48.9075
-44.0987
-50.374
-26.5651
-51.5626
-60.3157
-34.9654
-39.4641
-40.562
-43.2924
-39.7252
-42.2169
-43.4105
-41.6056
-39.246
-39.3564
-41.9325
-67.0692
-58.0818
-61.962
-90.6695
-51.1308
-50.4207
-53.464
-59.3233
-45.0726
-43.3938
-39.7689
-41.8959
-41.77
-41.9452
-39.255
-39.5491
-66.9868
-89.5716
-57.7234
-61.4985
-50.9707
-59.0518
-50.3724
-53.3992
-39.2947
-54.8287
-89.4023
105.327
-116.353
-116.168
-89.5102
43.347
-63.7371
-51.4482
-56.0364
-55.5149
-42.0245
-41.0777
-47.3921
-38.8787
-47.7288
-47.6939
-45.7558
-41.6661
-44.978
-41.8065
-45.3716
-43.752
-22.3079
-22.889
-23.3174
56.7099
-51.2092
-53.695
-58.1709
-9.65816
-33.4969
-33.1488
-33.3893
-30.4843
-45.8916
-48.2836
-48.1047
-47.305
-36.6416
-52.6593
-87.3482
105.863
-64.2301
-51.1794
-55.902
-55.9361
-41.6024
-40.5273
-46.9505
-38.4205
-44.7607
-41.6966
-45.1359
-43.6723
-50.0753
-54.0118
-58.1521
-8.63439
-45.5065
-48.0322
-47.7957
-47.145
-38.5322
-38.3941
-39.6842
-38.7022
-46.2504
-50.7322
-49.8889
-46.7576
-44.552
-44.5613
-45.6042
-41.7177
-42.0153
-45.6781
-44.2194
-42.8189
-44.1208
-44.1025
-42.4064
-48.4289
-57.2092
-54.2808
-51.818
-67.2078
-16.3216
-16.0868
4.78477
-42.0886
-68.4301
-68.3873
-74.9281
-62.4065
-38.5842
-38.4048
-39.5968
-38.8517
-46.2862
-50.6432
-49.8475
-46.6205
-42.2085
-45.6815
-44.2293
-42.738
-57.236
-54.6121
-52.0091
-68.0151
-67.0895
-56.8831
-57.1187
-51.7734
-67.5045
-57.1587
-57.223
-52.0257
-66.1987
-57.405
-57.6347
-53.4347
-2.81642
9.43029
9.64334
22.6939
200.33
182.435
187.615
200.947
-42.3851
-44.6222
-43.5573
-45.8876
-42.2117
-44.4634
-43.438
-45.8357
-39.1292
-39.5261
-39.3082
-39.2442
-91.3641
-95.0862
-87.0001
-91.3967
-52.273
-47.4539
-48.8587
-45.8108
-51.8429
-47.1693
-48.5323
-45.5808
-43.5293
-43.0023
-42.9499
-42.6528
-38.1734
-43.3593
-43.2793
-49.2084
-37.1802
-37.95
-35.4314
-36.8879
-99.3528
98.3113
-91.9978
38.6215
-104.96
-75.9345
-49.657
-40.4031
-45.337
-41.8034
-55.5989
-45.4825
-80.7479
80.5022
-25.4699
60.4872
-68.5874
-26.5166
-45.6659
-38.6208
-34.546
-35.1483
-46.234
-37.7177
-92.2952
45.4373
-98.2366
99.3367
-105.421
-75.8133
-45.1938
-41.6187
-49.1855
-40.1698
-55.1234
-45.3258
-25.622
60.7671
-79.8461
80.4192
-68.2399
-26.8623
-34.1631
-34.1575
-45.1641
-37.9683
-45.7249
-37.3895
-55.1124
-48.437
-40.3796
-39.4072
-47.1896
-42.85
-45.7728
-41.0987
-44.5667
-42.9729
-40.1937
-39.9756
-41.2441
-38.0428
-41.3474
-47.2276
-56.1828
-7.20094
-55.3976
-52.3168
-54.8217
-79.7226
-4.19155
-47.9748
-48.1178
-56.3203
-48.2203
-46.825
-50.4222
-60.7945
-69.0713
-61.2829
-51.9986
-49.1758
-45.2878
-41.1274
-40.225
-39.2806
-47.8353
-42.6659
-44.1026
-42.8807
-41.2798
-47.2106
-40.0243
-39.9084
-41.1706
-38.2521
-56.3228
-6.81058
-3.80004
-47.8822
-55.3304
-52.1552
-54.8122
-80.1852
-47.9911
-56.1958
-69.0419
-61.1501
-48.2666
-46.732
-50.5174
-60.8797
-98.9186
-90.7676
164.24
164.732
-75.4034
-74.9002
143.44
144.912
-67.8403
-52.167
-64.5772
-52.2771
-55.3407
-50.7515
-39.4122
-38.1554
-44.2482
-44.3497
-40.1212
-40.0191
-44.866
-50.6315
-42.2036
-44.6056
-13.171
-13.1894
146.924
147.942
-51.6775
-64.5725
-8.04391
15.8968
-35.2568
-35.0608
-35.2494
-35.7238
-50.0704
-47.2878
-49.9361
-39.2066
-99.9212
-91.8987
165.171
163.823
-69.0457
-52.3417
-64.9155
-52.561
-50.2518
-54.8258
-39.1103
-37.6451
-44.6557
-50.2732
-42.2251
-44.5596
-64.8031
-52.1461
16.2051
-8.04017
-47.1141
-49.6127
-38.9749
-49.6909
-41.3442
-40.8543
-39.3859
-39.1072
-50.8216
-50.9826
-43.6206
-47.7909
-49.0352
-48.9687
-40.1938
-40.1951
-42.2646
-45.5668
-43.091
-44.7389
-40.038
-39.9743
-42.8721
-42.836
-47.6827
-49.4548
-90.3381
-78.213
19.7308
19.8347
-80.0615
-80.0843
-77.8596
-77.8697
-55.6166
-55.5536
-41.1808
-40.7466
-39.4973
-39.3252
-51.1451
-51.2261
-43.5271
-47.7018
-45.5506
-42.1311
-42.8612
-44.6082
-49.4647
-47.7575
-77.6749
-90.5821
-90.1006
-65.4512
-67.9956
-98.221
-44.7392
-48.3662
-52.218
-50.939
-60.7336
-53.8152
-51.7533
-52.4165
-78.6313
-81.8721
-66.1647
-62.2032
-92.6662
-97.58
-68.7312
-65.8261
-77.7186
-61.4069
-66.5319
-80.1789
-60.8398
-52.3584
-52.1576
-54.1717
-47.8087
-50.9131
-52.3717
-48.4844
-94.2036
-90.0678
-65.6165
-63.6973
-96.6865
-64.4622
-65.8122
-90.0569
-44.8393
-45.6394
-53.1344
-52.183
-45.1854
-51.8852
-52.9782
-45.691
-33.729
-16.9159
-3.74663
-23.428
-77.685
3.02107
21.5336
-1.05221
-75.2414
-0.401278
21.2775
3.1254
-33.6436
-23.6308
-3.78586
-17.5045
47.5399
92.8535
175.401
63.7044
47.9966
69.3035
186.092
104.996
50.2865
106.333
185.704
69.8866
50.8989
52.5393
176.079
95.0343
-41.1126
-39.9121
-42.865
-44.7564
-40.0594
-42.4145
-42.1305
-39.8005
-50.712
-50.86
-45.3895
-46.1549
-56.6809
-49.1855
-46.7062
-53.1272
-40.8579
-44.6434
-42.7329
-39.8164
-56.5295
-53.1956
-46.6493
-49.0456
-50.7578
-46.176
-45.3774
-51.0483
-40.0672
-39.658
-41.9608
-42.4031
-40.4716
-41.5714
-39.4469
-38.9084
-40.587
-39.0533
-39.4971
-41.5345
-40.2667
-42.0273
-39.2037
-38.9248
-40.2897
-38.6335
-39.1997
-42.0544
-85.3651
-72.9417
-94.5679
-42.0786
-58.4229
-73.9882
-84.6317
-63.1104
-58.099
-64.0394
-84.68
-73.9684
-83.5763
-42.0616
-94.4807
-73.5011
-34.3092
-44.2572
-45.4697
-40.6357
-52.2024
-48.4898
-51.1365
-50.2208
-44.0845
-47.9898
-52.7804
-46.5192
-49.0101
-44.7826
-45.8438
-47.8362
-34.6166
-40.5868
-45.2487
-44.0644
-48.9248
-47.5979
-45.6343
-44.7197
-43.4002
-45.8783
-52.3173
-47.582
-51.7653
-49.8444
-50.7634
-47.9682
-46.208
-48.3784
-42.2781
-42.1103
-46.2376
-42.0772
-42.3247
-48.3461
-46.054
-45.7704
-43.9195
-44.584
-46.26
-44.7472
-43.8288
-45.7892
-54.7755
-50.7735
-49.4914
-62.2914
-35.7174
-33.8549
-38.401
-41.4284
-35.2731
-41.1432
-38.2306
-33.6027
-54.4722
-62.25
-49.4085
-50.465
-41.7251
-41.6473
-38.517
-39.5538
-41.4465
-39.2477
-38.2903
-41.55
-36.5744
-31.5578
-36.1072
-38.5358
-37.3068
-39.0117
-36.5035
-32.3019
-60.7261
-118.153
-110.9
-46.4623
-49.2762
-50.7723
-57.7785
-23.1767
-70.6267
-39.9632
-36.6009
-39.6954
-114.57
-57.3909
-111.992
-48.9626
-46.0753
-50.3811
-23.1735
-58.21
-69.661
-35.9565
-39.2846
-39.1182
-42.2361
-40.3627
-41.4502
-42.089
-40.6601
-39.529
-38.95
-41.2747
-65.5798
-60.9358
-63.0297
-75.8987
-51.9964
-51.8124
-53.414
-55.327
-42.4451
-42.1799
-40.4109
-41.2692
-40.8407
-41.3144
-39.6354
-39.1439
-65.0102
-74.8125
-60.612
-62.5872
-51.851
-55.0957
-51.7283
-53.2765
-41.4835
-52.1436
-78.5828
46.5609
-115.26
-115.267
-101.333
-17.0595
-58.7037
-52.236
-55.646
-54.9011
-41.5053
-41.2715
-45.1846
-39.1534
-47.7764
-47.6876
-46.4309
-45.5033
-44.3957
-42.6944
-44.5178
-43.9089
-25.2885
-25.5491
-27.9342
-7.57173
-51.0378
-55.0781
-58.6509
-27.9753
-33.0719
-32.9058
-33.1889
-31.3484
-45.6544
-47.6973
-47.5995
-47.5448
-38.0376
-48.8982
-78.4995
53.9453
-59.107
-52.1899
-55.3833
-55.1534
-40.9762
-40.7362
-44.6326
-38.6702
-44.236
-42.5785
-44.301
-43.8085
-48.113
-55.5081
-58.7557
-25.7405
-45.3621
-47.4282
-47.2974
-47.3076
-38.3859
-38.2677
-38.6596
-38.6153
-47.2281
-49.5416
-49.0958
-47.4379
-44.5903
-44.5661
-46.5942
-42.6763
-42.8808
-44.7785
-44.5034
-43.321
-44.2882
-44.2631
-43.358
-45.7929
-56.8736
-54.7771
-53.7655
-60.8627
-15.9034
-15.8525
-2.93362
-30.3094
-68.9338
-68.8994
-72.2126
-65.652
-38.5022
-38.3481
-38.6495
-38.7497
-47.2948
-49.4869
-49.1026
-47.3895
-43.0237
-44.8331
-44.5649
-43.3338
-56.9784
-55.1274
-54.0258
-61.6323
-61.8582
-56.8552
-57.0536
-52.6908
-62.1438
-57.125
-57.221
-52.8661
-61.9161
-57.7719
-57.8051
-55.226
2.28425
11.4369
11.3716
19.5793
200.408
197.388
203.061
201.351
-43.0755
-44.2946
-43.7254
-44.9125
-42.8687
-44.1627
-43.6152
-44.8413
-39.1768
-39.3743
-39.2474
-39.2194
-92.4758
-95.3811
-89.8323
-92.5148
-49.4872
-47.6722
-48.1665
-46.7069
-49.1232
-47.3759
-47.8524
-46.4468
-43.3313
-42.9667
-43.0571
-43.3357
-40.4878
-42.9803
-43.0171
-46.2039
-36.7481
-36.8466
-36.4571
-36.509
-25.1719
-29.0672
-72.7541
33.2042
-127.115
-116.54
-105.022
-24.254
-100.498
-71.3687
-99.4939
-76.9437
-44.0445
-42.7559
-46.0613
-41.1632
-48.6017
-48.412
-46.3749
-44.1287
-50.6403
-46.1255
-54.6546
-46.2417
-52.097
-49.5867
-90.4889
42.6249
-20.8955
-23.2676
-28.8328
0.206633
-56.4103
-53.0526
-63.6135
-36.4864
-40.5381
-40.865
-44.6027
-38.9969
-34.919
-33.9374
-34.39
-34.5069
-42.0612
-45.2864
-44.9305
-40.2501
-124.618
-117.012
-105.092
-34.8769
-22.6454
-27.7625
-64.3875
40.4563
-101.984
-71.7242
-99.8305
-77.3765
-48.415
-48.2311
-46.34
-44.5491
-43.6527
-42.3659
-45.5931
-40.8701
-50.2078
-45.883
-54.2924
-46.0945
-24.15
-24.1874
-29.4207
-1.49674
-50.8921
-48.1068
-89.6839
44.1832
-56.0944
-52.8245
-63.417
-37.026
-34.3302
-33.4427
-33.9537
-33.575
-39.9529
-40.298
-43.9317
-38.4372
-41.5829
-44.836
-44.4535
-39.8891
-46.9705
-50.734
-56.8427
-48.6451
-39.354
-38.8151
-39.3425
-39.1647
-43.1562
-45.3072
-45.2609
-43.3925
-43.9805
-44.63
-47.0281
-41.8004
-46.4678
-41.2349
-43.7953
-43.7559
-39.1888
-38.6237
-39.341
-39.9101
-39.6778
-41.1432
-41.1123
-39.5916
-42.3683
-44.0328
-41.8828
-45.3024
-67.687
-58.3002
-59.7371
-47.2018
-55.771
-52.2226
-54.6024
-53.0333
-60.8872
-58.5909
-57.1826
-66.8537
-45.3407
-18.7082
-15.2376
-36.2074
-50.3573
-48.849
-48.9982
-51.3121
-49.0986
-46.7037
-48.4252
-47.363
-53.6243
-53.7889
-51.8351
-56.9417
-63.2653
-67.4895
-67.7485
-63.9168
-48.0875
-50.0414
-52.6815
-49.2129
-44.1287
-44.7924
-47.2457
-41.7799
-39.186
-38.7652
-39.2183
-39.0487
-42.9092
-45.2432
-45.4001
-43.2423
-46.6363
-41.0354
-43.6989
-43.606
-42.3957
-44.0781
-41.9013
-45.4605
-39.0989
-38.6022
-39.1565
-39.8547
-39.8135
-41.3909
-41.2134
-39.7431
-67.7862
-58.4233
-59.9068
-46.5078
-45.2345
-18.5341
-14.9068
-36.0834
-55.5618
-52.0938
-54.4846
-52.8576
-60.6623
-58.6039
-57.0492
-66.9354
-50.1706
-48.6434
-48.8642
-51.0292
-63.088
-67.4182
-67.6995
-63.748
-49.0629
-46.6734
-48.5009
-47.2657
-53.6693
-53.999
-51.9614
-57.2003
-96.7583
-77.5885
-100.521
-95.3951
144.083
189.736
171.384
172.664
-80.5843
-71.3537
-75.0748
-75.0711
105.464
167.309
148.647
150.002
-56.4373
-56.8786
-61.4739
-52.7557
-56.1494
-57.1095
-60.3967
-54.2522
-50.6579
-54.3411
-54.8492
-52.5078
-38.6301
-37.6664
-38.5499
-38.7353
-45.024
-43.7598
-44.2025
-44.3133
-40.4224
-38.8539
-39.91
-39.8476
-45.9764
-47.2494
-45.6731
-48.3392
-43.2939
-42.9135
-43.446
-43.8066
-16.5969
-7.97627
-12.8784
-12.8853
113.51
169.605
146.65
145.466
-57.4712
-57.4372
-53.3203
-61.2177
0.216796
7.30618
-4.28937
11.0293
-33.8935
-36.2943
-34.9674
-34.823
-32.7812
-34.7639
-34.6137
-34.9005
-48.5803
-49.2179
-49.641
-48.0667
-45.6328
-43.8035
-47.6235
-41.5597
-96.2848
-78.073
-102.097
-96.4705
144.781
191.65
172.767
170.927
-56.6869
-57.2341
-62.137
-53.1417
-56.7345
-57.3137
-60.81
-54.5315
-50.199
-53.8605
-51.9748
-54.3424
-38.1495
-37.2778
-38.1236
-38.3191
-45.7341
-46.9867
-45.4398
-48.0409
-43.2833
-42.8085
-43.4328
-43.9061
-57.3624
-57.4973
-61.1674
-53.3554
0.420267
7.10825
10.9908
-4.36155
-48.2745
-48.9069
-47.7546
-49.3058
-45.4737
-43.6505
-41.3602
-47.4378
-40.2424
-41.7444
-41.2384
-40.8966
-38.6799
-38.9844
-39.4919
-38.5243
-49.6607
-52.0873
-50.4481
-50.4342
-46.0916
-44.9546
-44.4095
-46.594
-46.2778
-51.0822
-49.1583
-49.065
-40.922
-39.8594
-40.2768
-40.2874
-43.769
-43.6746
-42.9632
-44.6927
-42.477
-44.6165
-42.8226
-43.3778
-41.658
-39.4228
-39.8143
-39.7657
-45.5637
-42.2522
-42.765
-42.8042
-50.0284
-47.0195
-48.0258
-48.954
-77.9398
-88.5247
-88.1508
-80.463
14.8517
24.5389
21.1458
21.2394
-60.4009
-92.1811
-80.5489
-80.515
-77.2903
-83.0574
-79.2904
-79.261
-59.1181
-52.1633
-55.6478
-55.6211
-40.1791
-41.6482
-41.1037
-40.8153
-38.8215
-39.0965
-39.6362
-38.6848
-49.8917
-52.3623
-50.6398
-50.8569
-45.9215
-44.7807
-44.2925
-46.4892
-43.7368
-43.5865
-44.6509
-42.8414
-42.4165
-44.3639
-42.6458
-43.2919
-50.1632
-47.0059
-48.9631
-48.1019
-78.2555
-88.5669
-80.5175
-88.4505
-105.865
-101.601
-100.901
-79.9553
-51.237
-49.1223
-52.2751
-50.8079
-53.8846
-54.9589
-52.0833
-52.0426
-84.2731
-70.9429
-83.9588
-69.2395
-106.439
-104.274
-102.166
-81.4101
-84.439
-70.7521
-84.7629
-69.1633
-53.9573
-54.9103
-52.4899
-52.0712
-50.6113
-49.8
-52.1708
-50.9847
-82.666
-75.2209
-75.536
-69.4309
-82.4017
-75.7291
-74.8918
-69.7023
-48.811
-46.1562
-50.3731
-48.7484
-48.264
-46.3131
-50.1747
-48.6439
-19.683
-19.7729
-14.4743
-12.742
7.06809
6.51963
17.0213
17.7017
6.85119
6.59062
17.096
17.7879
-19.9874
-19.9374
-14.4945
-12.7537
124.974
125.04
147.177
141.446
98.9846
102.295
148.856
140.067
103.634
101.613
141.498
149.474
126.529
123.744
139.443
147.959
-41.0505
-42.3073
-41.5496
-42.8716
-40.3959
-40.9977
-40.8357
-41.6686
-47.7076
-49.2376
-46.5999
-47.6204
-51.5097
-52.6738
-49.1661
-50.042
-40.9108
-42.1717
-41.4132
-42.7599
-51.4297
-52.6912
-49.0813
-50.0369
-47.6728
-49.3078
-46.6166
-47.6924
-40.2713
-41.0647
-40.7194
-41.5095
-39.3857
-40.6083
-39.2532
-40.0153
-40.546
-39.2408
-40.019
-39.3869
-40.6923
-39.8978
-39.6997
-39.2459
-40.0101
-41.0218
-39.2214
-39.6436
-94.7855
-61.3533
-88.9157
-78.9159
-66.3418
-70.2839
-74.503
-75.5518
-70.2577
-66.2965
-75.5556
-74.6173
-61.3706
-94.6677
-78.9513
-88.883
-44.4621
-39.6622
-44.5576
-43.6438
-55.3754
-55.6237
-55.1603
-51.963
-47.2923
-47.5931
-49.58
-49.7411
-47.4739
-46.6235
-46.8748
-45.7653
-43.3413
-39.2832
-44.5062
-43.3144
-47.3508
-46.5383
-46.6859
-45.588
-46.8055
-46.9244
-49.0583
-49.2773
-54.8689
-55.1109
-54.6543
-51.5605
-42.6371
-44.9031
-42.0311
-42.8222
-42.4787
-44.8931
-41.8757
-42.703
-44.8145
-44.6948
-44.2394
-44.5408
-44.952
-44.7972
-44.4039
-44.8731
-55.8838
-58.3702
-52.9148
-55.4232
-35.1344
-36.8486
-35.674
-37.3956
-34.8308
-36.5305
-35.4238
-37.1377
-55.7733
-58.2655
-52.7818
-55.3247
-40.3762
-40.7603
-39.9234
-40.4663
-40.5876
-40.1997
-40.3395
-39.7209
-35.7224
-37.3836
-35.7163
-36.7972
-38.0774
-36.515
-37.423
-36.3174
-81.5906
20.2826
-113.585
-45.7887
-90.8119
-101.999
-48.1706
-42.2046
-48.1297
-44.3959
-54.5146
-47.4212
-90.5314
27.4835
-37.2136
14.3276
-73.5153
-47.4933
-43.6403
-38.1889
-35.376
-36.5859
-42.8545
-37.7571
-111.677
-42.2
-71.8892
27.3039
-95.5159
-103.468
-47.9481
-44.0647
-47.6451
-41.8896
-54.0221
-47.2059
-38.2758
16.0137
-90.5121
30.1925
-72.7948
-46.6354
-34.8887
-35.777
-42.9283
-37.5181
-42.2901
-37.267
-43.2974
-44.6258
-40.0714
-39.9397
-42.9254
-41.555
-44.9231
-41.1605
-37.8448
-44.2035
-39.3452
-39.7942
-39.8471
-38.3705
-41.0727
-43.6495
-63.5325
-80.4778
-59.3193
-57.6403
-58.8031
-70.4836
-82.2336
-96.46
-50.3662
-52.6278
-51.1882
-49.6634
-52.4327
-55.8902
-58.4166
-56.9346
-46.5858
-44.5389
-45.5066
-41.0465
-39.9319
-40.1366
-42.6364
-41.2944
-38.209
-44.2627
-41.0798
-43.6064
-39.2696
-39.8124
-40.0153
-38.6087
-63.6539
-80.0679
-81.03
-94.9373
-59.247
-57.3653
-58.584
-69.7996
-50.2407
-52.4063
-58.2796
-56.5028
-51.1872
-49.6118
-52.4494
-55.5573
-70.6109
33.4051
-83.4377
56.0332
-93.6258
-85.1209
101.265
106.587
-101.983
-48.6417
-101.999
-55.5165
-89.7027
-89.6055
56.5657
50.1365
-63.0158
-63.4281
-50.7112
-51.6699
-60.5082
-51.3874
-59.5742
-53.0534
-45.0525
-40.0114
-45.0231
-39.3833
-47.9349
-47.0121
-39.0675
-39.2065
-46.7739
-44.8685
-46.7027
-44.7624
-45.8439
-45.7743
-41.6922
-41.6461
-48.663
-44.5915
-43.0865
-41.8879
-45.1116
-46.1519
-42.8777
-44.29
-28.138
-17.7228
-28.2627
-18.3823
-23.2383
-23.3015
59.0156
61.9935
-60.0659
-26.4499
-54.8537
-28.5978
-55.3215
-59.8895
-13.1753
-4.76935
-33.6592
-32.3075
-33.3714
-31.6103
-33.5939
-33.4416
-30.9081
-31.3055
-46.7869
-44.7085
-48.0759
-49.2293
-48.1057
-47.9899
-49.1913
-44.4182
-63.1471
41.9429
-83.3057
60.6375
-91.3562
-83.8918
108.037
102.484
-63.6015
-64.0153
-50.1941
-51.7926
-61.2445
-51.3894
-60.2113
-53.4676
-44.4817
-39.655
-44.3701
-38.8972
-46.4223
-47.4207
-38.6843
-38.7628
-48.3065
-44.4295
-42.8838
-41.7287
-44.94
-45.9067
-42.8317
-44.2211
-58.6626
-27.6691
-55.1309
-28.5602
-59.6754
-55.5075
-3.7391
-13.2444
-46.3907
-44.3827
-47.8439
-48.9681
-47.7103
-47.7432
-44.2687
-48.9672
-38.8913
-38.627
-38.8163
-38.4868
-39.7651
-39.7162
-38.8878
-38.6516
-47.3516
-45.3588
-51.5664
-49.862
-49.31
-51.1003
-45.6652
-47.946
-46.4221
-42.5606
-46.4185
-42.498
-45.7886
-45.8952
-41.6714
-41.6768
-42.6759
-41.4046
-46.2434
-45.1826
-43.2887
-45.2814
-41.9123
-43.8533
-42.9833
-45.5277
-42.9793
-45.4312
-42.2309
-42.2413
-48.4854
-48.3403
-55.7033
-63.832
-52.5029
-58.4563
-51.3793
-52.5233
-69.8992
-64.8513
-5.52843
-30.9714
-5.39309
-30.8584
4.38982
4.39235
-41.8372
-41.8775
-71.3154
-65.2729
-71.283
-65.2383
-74.7273
-74.7138
-62.4089
-62.3976
-38.8411
-38.7504
-38.7573
-38.5433
-39.6778
-39.6095
-38.9975
-38.8631
-47.5302
-45.3758
-51.5104
-49.7646
-51.0222
-49.3411
-45.548
-47.8021
-42.807
-41.4789
-46.2796
-45.0747
-45.3012
-43.2813
-41.8493
-43.7443
-55.7816
-64.1682
-52.7912
-59.1217
-52.6421
-51.5683
-65.787
-70.5217
-67.4926
-66.552
-61.9085
-53.0747
-52.6693
-62.1178
-52.0157
-51.672
-68.0453
-66.9638
-62.1093
-53.3564
-62.2516
-52.8977
-51.9754
-52.1897
-66.0094
-66.0868
-61.4023
-54.9232
-61.5811
-55.1375
-53.3428
-53.2584
-2.95585
-2.99206
0.450062
16.9332
17.541
0.532975
22.0888
22.3394
190.953
200.794
178.155
180.005
187.501
186.541