# vtk DataFile Version 2.0
tet_velo
ASCII
DATASET UNSTRUCTURED_GRID
POINTS 29498 float
-0.753875 0.165 -2.305
-0.675 0.375 2.36051
-0.755 0.855 -2.09186
-0.716902 1.245 2.145
0.755 0.155 -2.30679
0.675 0.385 2.36749
0.751861 0.855 -2.095
0.716897 1.245 2.145
-0.785519 0.177064 -0.74983
-0.818739 0.187552 0.80534
-0.828503 1.0712 -0.679574
-0.815856 1.20126 0.732713
0.784961 0.175039 -0.748697
0.819479 0.190521 0.809397
0.828886 1.07368 -0.681667
0.815497 1.20195 0.731667
-1.55497 -0.360397 -3.51694
-1.55374 -0.276734 -2.32937
-1.57934 -0.263605 -0.770396
-1.58984 -0.256016 0.817073
-1.51132 -0.127975 2.37845
-1.48323 -0.025478 3.5778
-1.48668 0.0600181 4.75543
-1.5525 0.0468632 -3.46228
-1.55264 0.152791 -2.29026
-1.58805 0.193411 -0.759441
-1.59251 0.208204 0.783885
-1.4736 0.334497 2.31743
-1.45563 0.435143 3.51474
-1.4711 0.519715 4.6971
-1.55438 0.816596 -3.31256
-1.56041 0.917778 -2.13421
-1.61503 1.08424 -0.700801
-1.59863 1.18258 0.722064
-1.49636 1.2458 2.15802
-1.46759 1.34066 3.36013
-1.47453 1.43145 4.5649
-1.56409 2.09391 -3.19688
-1.5712 2.21396 -2.04038
-1.59373 2.40101 -0.65303
-1.59926 2.55835 0.703047
-1.57249 2.65975 2.09144
-1.54485 2.73269 3.2501
-1.52678 2.81105 4.439
-0.773212 -0.354767 -3.52674
-0.762962 -0.266612 -2.3431
-0.781575 -0.270723 -0.768349
-0.811605 -0.269256 0.83616
-0.755016 -0.107243 2.41154
-0.728627 -0.00973842 3.60055
-0.729148 0.0687583 4.76895
-0.771932 0.045159 -3.46586
-0.697758 0.451995 3.53338
-0.713839 0.528461 4.70742
-0.77212 0.790571 -3.29561
-0.707544 1.3453 3.35781
-0.714779 1.43603 4.56493
-0.773247 2.07545 -3.1799
-0.774371 2.19632 -2.02155
-0.79502 2.39667 -0.641685
-0.811199 2.56433 0.701625
-0.799258 2.66429 2.08169
-0.776051 2.73523 3.24048
-0.75832 2.81319 4.43218
0.769224 -0.359985 -3.52803
0.77407 -0.273229 -2.34409
0.794171 -0.272618 -0.767355
0.786031 -0.266741 0.839546
0.695546 -0.100559 2.41674
0.73233 -0.0046084 3.60451
0.763077 0.0723213 4.77181
0.761392 0.0397298 -3.46756
0.73969 0.457296 3.53731
0.770316 0.531954 4.71016
0.763467 0.788191 -3.29783
0.754408 1.34763 3.35953
0.77775 1.43851 4.56683
0.799268 2.07471 -3.18141
0.809124 2.1962 -2.02306
0.80649 2.39721 -0.642752
0.778625 2.56505 0.701219
0.753765 2.66515 2.08191
0.759133 2.73639 3.24115
0.77352 2.81461 4.43316
1.54845 -0.368812 -3.51922
1.55573 -0.285784 -2.33103
1.58337 -0.266602 -0.769197
1.57699 -0.25238 0.822026
1.48621 -0.119094 2.38595
1.49053 -0.0172765 3.58442
1.51872 0.0664142 4.76068
1.54102 0.0383406 -3.46525
1.54748 0.142826 -2.29298
1.58589 0.190497 -0.759018
1.59536 0.211657 0.788366
1.48237 0.343711 2.32489
1.49037 0.443312 3.52112
1.52207 0.525976 4.70211
1.54576 0.811869 -3.31632
1.55567 0.91447 -2.13841
1.6134 1.08474 -0.703113
1.6013 1.18427 0.722371
1.50788 1.24882 2.16039
1.50765 1.34524 3.36363
1.53183 1.43613 4.56854
1.58483 2.09234 -3.19963
1.59697 2.21347 -2.04305
1.60147 2.40178 -0.654852
1.57498 2.55971 0.702493
1.54021 2.66158 2.09207
1.53485 2.73506 3.25153
1.54395 2.81384 4.44096
-0.792129 0.51 -2.23612
0.000562489 0.186609 -2.27929
-0.771962 0.168767 -1.52742
-0.72135 0.81 2.27815
0 0.381061 2.36294
-0.753334 0.274812 1.58293
-0.00156951 0.908249 -2.14668
-0.827497 0.998846 -1.38572
-2.5034e-06 1.25797 2.15797
-0.800627 1.25738 1.43886
0.791105 0.505 -2.23857
0.775673 0.159327 -1.52774
0.714503 0.815 2.2748
0.754459 0.280542 1.58844
0.826478 1.00044 -1.38833
0.800536 1.25781 1.43833
-0.79795 0.186488 0.027755
-0.843452 0.624133 -0.714702
-0.000279398 0.153587 -0.749264
-0.840551 0.694404 0.769027
0.000369929 0.172983 0.807369
-0.822012 1.13606 0.02657
0.000191324 1.40571 -0.68062
-0.000179769 1.64682 0.73219
0.799393 0.185607 0.03035
0.843053 0.62436 -0.715182
0.840512 0.696233 0.770532
0.821796 1.13742 0.025
-0.896813 0.567067 -1.45657
-0.841497 0.659269 0.0271625
-0.880817 0.752202 1.51089
0.000141546 0.157958 -1.52758
4.52656e-05 0.153653 0.0290525
0.000184964 0.262984 1.58568
-0.00050351 0.5075 -2.41769
-1.2517e-06 0.8125 2.36058
-0.000689093 1.08332 -1.38703
5.77742e-06 1.64452 0.025785
-9.11363e-05 1.47578 1.4386
0.896847 0.56468 -1.45804
0.841475 0.660296 0.027675
0.879164 0.755617 1.51339
-1.15326 0.158896 -2.29763
-0.758419 -0.0508062 -2.32405
-0.762904 0.105079 -2.88543
-1.0743 0.354748 2.33897
-0.715008 0.133879 2.38603
-0.686379 0.413497 2.94694
-1.1577 0.886389 -2.11303
-0.76356 0.822786 -2.69374
-0.764686 1.52566 -2.05671
-1.10663 1.2454 2.15151
-0.712223 1.29515 2.7514
-0.75808 1.95465 2.11334
0.764535 -0.0591147 -2.32544
0.758196 0.0973649 -2.88717
1.15124 0.148913 -2.29989
0.685273 0.14222 2.39211
0.707345 0.421148 2.9524
1.07868 0.364356 2.34619
0.757664 0.821596 -2.69642
0.780492 1.5256 -2.05903
1.15376 0.884735 -2.1167
0.735652 1.29632 2.75226
0.735331 1.95508 2.11345
1.11239 1.24691 2.15269
-1.18678 0.185237 -0.754635
-0.783547 -0.0468298 -0.759089
-1.20562 0.197878 0.794613
-0.815172 -0.0408519 0.82075
-1.22177 1.07772 -0.690187
-0.811762 1.73393 -0.660629
-1.20724 1.19192 0.727389
-0.813528 1.88279 0.717169
0.789566 -0.0487893 -0.758026
1.18542 0.182768 -0.753857
0.802755 -0.0381102 0.824471
1.20742 0.201089 0.798882
0.817688 1.73545 -0.66221
1.22114 1.07921 -0.69239
0.797061 1.8835 0.716443
1.2084 1.19311 0.727019
-1.55436 -0.318565 -2.92315
-1.55373 -0.156767 -3.48961
-1.16409 -0.357582 -3.52184
-1.56654 -0.270169 -1.54988
-1.55319 -0.0619715 -2.30981
-1.15835 -0.271673 -2.33624
-1.58459 -0.25981 0.0233384
-1.5837 -0.0350971 -0.764918
-1.18046 -0.267164 -0.769372
-1.55058 -0.191995 1.59776
-1.59117 -0.0239058 0.800479
-1.20072 -0.262636 0.826616
-1.49727 -0.0767264 2.97813
-1.49246 0.103261 2.34794
-1.13317 -0.117609 2.395
-1.48495 0.0172701 4.16662
-1.46943 0.204833 3.54627
-1.10593 -0.0176082 3.58918
-1.47889 0.289867 4.72626
-1.10791 0.0643882 4.76219
-1.55257 0.0998271 -2.87627
-1.55344 0.43173 -3.38742
-1.16221 0.0460111 -3.46407
-1.57034 0.173101 -1.52485
-1.55652 0.535285 -2.21223
-1.59028 0.200807 0.0122222
-1.60154 0.638826 -0.730121
-1.53305 0.271351 1.55066
-1.59557 0.69539 0.752975
-1.46461 0.38482 2.91608
-1.48498 0.790149 2.23772
-1.46337 0.477429 4.10592
-1.46161 0.887901 3.43743
-1.07669 0.443569 3.52406
-1.47282 0.975581 4.631
-1.09247 0.524088 4.70226
-1.55739 0.867187 -2.72338
-1.55923 1.45525 -3.25472
-1.16325 0.803584 -3.30408
-1.58772 1.00101 -1.4175
-1.56581 1.56587 -2.08729
-1.60683 1.13341 0.0106315
-1.60438 1.74262 -0.676915
-1.54749 1.21419 1.44004
-1.59894 1.87046 0.712556
-1.48198 1.29323 2.75907
-1.53443 1.95278 2.12473
-1.47106 1.38605 3.96251
-1.50622 2.03668 3.30511
-1.08757 1.34298 3.35897
-1.50066 2.12125 4.50195
-1.09466 1.43374 4.56491
-1.56765 2.15394 -2.61863
-1.16867 2.08468 -3.18839
-1.58247 2.30748 -1.34671
-1.17279 2.20514 -2.03097
-1.59649 2.47968 0.0250085
-1.19438 2.39884 -0.647358
-1.58587 2.60905 1.39724
-1.20523 2.56134 0.702336
-1.55867 2.69622 2.67077
-1.18588 2.66202 2.08656
-1.53582 2.77187 3.84455
-1.16045 2.73396 3.24529
-1.14255 2.81212 4.43559
-0.768087 -0.31069 -2.93492
-0.772572 -0.154804 -3.4963
-0.00199388 -0.357376 -3.52738
-0.772269 -0.268668 -1.55573
0.00555359 -0.269921 -2.3436
-0.79659 -0.26999 0.0339058
0.00629821 -0.271671 -0.767852
-0.78331 -0.188249 1.62385
-0.012787 -0.267999 0.837853
-0.741821 -0.0584906 3.00605
-0.0297351 -0.103901 2.41414
-0.728887 0.0295099 4.18475
-0.713192 0.221128 3.56696
0.00185184 -0.00717341 3.60253
-0.721493 0.298609 4.73818
0.0169646 0.0705398 4.77038
-0.772026 0.417865 -3.38073
-0.00527016 0.0424444 -3.46671
-0.705798 0.490228 4.1204
-0.702651 0.898646 3.44559
0.0209659 0.454645 3.53534
-0.714309 0.982243 4.63618
0.0282388 0.530207 4.70879
-0.772684 1.43301 -3.23776
-0.0043264 0.789381 -3.29672
-0.711161 1.39066 3.96137
-0.741797 2.04026 3.29914
0.0234321 1.34646 3.35867
-0.736549 2.12461 4.49856
0.0314856 1.43727 4.56588
-0.773809 2.13588 -2.60073
0.0130101 2.07508 -3.18066
-0.784696 2.29649 -1.33162
0.0173763 2.19626 -2.02231
-0.80311 2.4805 0.0299699
0.0057346 2.39694 -0.642219
-0.805228 2.61431 1.39166
-0.0162869 2.56469 0.701422
-0.787654 2.69976 2.66108
-0.0227466 2.66472 2.0818
-0.767186 2.77421 3.83633
-0.00845931 2.73581 3.24081
0.0075999 2.8139 4.43267
0.771647 -0.316607 -2.93606
0.765308 -0.160127 -3.49779
1.15883 -0.364398 -3.52362
0.78412 -0.272924 -1.55572
1.1649 -0.279507 -2.33756
0.790101 -0.26968 0.0360952
1.18877 -0.26961 -0.768276
0.740788 -0.18365 1.62814
1.18151 -0.259561 0.830786
0.713938 -0.0525838 3.01063
1.09088 -0.109827 2.40134
0.747704 0.0338564 4.18816
0.73601 0.226344 3.57091
1.11143 -0.0109425 3.59447
0.766697 0.302138 4.74098
1.1409 0.0693677 4.76624
0.76243 0.413961 -3.38269
1.15121 0.0390352 -3.4664
0.755003 0.494625 4.12373
0.747049 0.902463 3.44842
1.11503 0.450304 3.52921
0.774033 0.985231 4.6385
1.14619 0.528965 4.70614
0.781367 1.43145 -3.23962
1.15462 0.80003 -3.30707
0.766079 1.39307 3.96318
0.75677 2.04201 3.30034
1.13103 1.34644 3.36158
0.775635 2.12656 4.5
1.15479 1.43732 4.56769
0.804196 2.13546 -2.60223
1.19205 2.08353 -3.19052
0.807807 2.29671 -1.3329
1.20305 2.20484 -2.03305
0.792557 2.48113 0.0292333
1.20398 2.3995 -0.648802
0.766195 2.6151 1.39156
1.1768 2.56238 0.701856
0.756449 2.70077 2.66153
1.14699 2.66336 2.08699
0.766326 2.7755 3.83716
1.14699 2.73572 3.24634
1.15874 2.81422 4.43706
1.55209 -0.327298 -2.92513
1.54473 -0.165236 -3.49223
1.56955 -0.276193 -1.55011
1.5516 -0.0714789 -2.31201
1.58018 -0.259491 0.0264145
1.58463 -0.0380522 -0.764107
1.5316 -0.185737 1.60399
1.58617 -0.0203615 0.805196
1.48837 -0.0681853 2.98519
1.48429 0.112309 2.35542
1.50462 0.0245688 4.17255
1.49045 0.213018 3.55277
1.52039 0.296195 4.73139
1.54425 0.0905832 -2.87911
1.54339 0.425105 -3.39078
1.56668 0.166662 -1.526
1.55157 0.528648 -2.21569
1.59062 0.201077 0.0146744
1.59964 0.637617 -0.731065
1.53886 0.277684 1.55663
1.59833 0.697962 0.755369
1.48637 0.393512 2.92301
1.49513 0.796266 2.24264
1.50622 0.484644 4.11161
1.49901 0.894277 3.44237
1.52695 0.981052 4.63533
1.55071 0.86317 -2.72736
1.5653 1.45211 -3.25797
1.58453 0.999603 -1.42076
1.57632 1.56397 -2.09073
[...]
POINT_DATA 29498
VECTORS point_vectors float
-2.90169 -5.82481 9.17577
0.31575 0.0870599 0.689647
-1.29226 0.933987 2.5441
-0.173473 -0.126606 0.155277
3.73124 -8.05348 11.6746
-0.331662 0.128889 0.685399
1.25224 1.05964 2.46089
0.174261 -0.129663 0.159087
0.00624939 0.0212273 0.754494
0.198463 -0.177027 2.08943
-0.00901054 0.00327504 0.200721
0.000502903 0.00149598 0.00450825
-0.0026862 0.0121568 0.452892
-0.206096 -0.13824 1.63793
0.0105575 0.00389249 0.237758
0 0 0
-0.531176 -0.328573 19.947
-1.14333 -0.869299 20.679
-0.244617 -0.416891 21.6336
0.27652 -0.183123 21.8257
0.913759 0.0857339 21.7767
1.13043 0.234807 21.5852
1.26052 0.0582603 21.3268
-0.720419 -0.293803 19.8099
-1.85037 -0.81548 20.6081
-0.42632 -0.642388 21.7
0.174516 -0.461092 21.8867
1.09177 -0.354738 21.8991
1.58675 -0.391965 21.639
1.4529 -0.469717 21.4936
-0.918466 0.0699308 19.6144
-2.16304 0.156294 20.5578
-1.25546 -0.496801 21.6088
-0.469747 -0.547935 21.9378
0.18342 -0.774716 21.9071
0.671658 -0.951586 21.843
0.857454 -0.612787 21.7646
-0.528642 0.364145 20.0159
-0.852051 0.567855 20.4876
-0.833754 0.416638 21.2673
-0.440066 0.101982 21.6774
-0.121395 -0.168509 21.4969
0.0383987 -0.31831 21.3933
0.142974 -0.276751 20.7749
-0.468506 -0.639778 19.5076
-1.50317 -2.8671 20.7853
-0.204617 -0.158705 22.0668
0.366485 0.276248 22.1002
1.15811 1.43886 20.929
1.89093 2.16231 20.3068
1.94148 1.41194 17.9538
-0.696372 -0.610992 19.0504
2.55373 1.67678 12.11
2.51531 1.43205 13.93
-1.07833 0.26084 18.4801
0.817773 -0.850511 5.82974
0.673058 -1.3301 10.4198
-0.440362 0.705421 19.6922
-0.842145 1.34749 20.2372
-0.977693 1.30642 21.2764
-0.433063 0.358546 22.0069
-0.108268 -0.10326 21.713
0.104688 -0.491044 21.0913
-0.0528262 -0.309832 21.7245
0.461421 -0.635456 19.519
1.50057 -2.83156 20.8026
0.2153 -0.136846 22.0664
-0.347611 0.335098 22.1105
-1.08869 1.56809 20.7555
-1.90199 2.13883 20.3252
-1.97249 1.35806 18.2767
0.691481 -0.605977 19.0482
-2.58388 1.48348 12.9787
-2.40162 1.27086 14.5375
1.06547 0.270258 18.4638
-0.905305 -0.874153 7.20395
-0.687687 -1.27297 11.4004
0.45152 0.691752 19.7033
0.859458 1.29667 20.2546
0.983123 1.2929 21.2752
0.438937 0.376815 22.0054
0.107363 -0.100605 21.7253
-0.104359 -0.487703 21.0632
0.0440231 -0.30152 21.7042
0.526718 -0.31868 19.9443
1.12687 -0.856931 20.6884
0.24838 -0.414351 21.6373
-0.284894 -0.181944 21.8267
-0.94201 0.103492 21.7905
-1.14348 0.211361 21.5943
-1.22695 0.0238636 21.2873
0.717006 -0.301931 19.7811
1.84844 -0.818358 20.6177
0.420811 -0.647149 21.7012
-0.177118 -0.465633 21.886
-1.07342 -0.360782 21.9075
-1.53443 -0.414888 21.6482
-1.41521 -0.486264 21.6703
0.921784 0.0677351 19.6112
2.18514 0.153005 20.5622
1.2575 -0.502542 21.6171
0.468599 -0.550912 21.9457
-0.182845 -0.758763 21.8988
-0.675478 -0.912157 21.7112
-0.698069 -0.494506 22.3247
0.52419 0.357355 20.0234
0.842529 0.556327 20.4963
0.828107 0.414357 21.2666
0.44302 0.110041 21.6842
0.123805 -0.178259 21.5222
-0.039864 -0.320875 21.3698
-0.134042 -0.283132 20.7814
-1.38995 -0.0834098 1.78132
-0.000434091 -0.143604 0.532668
-2.4676e-05 0.00372488 0.145093
-0.039679 -0.0808997 0.0131814
-3.45933e-06 0.0108643 0.0299758
0.0339985 0.00473428 0.351564
0.0106262 0.363662 0.797509
-0.513268 -0.319926 1.1544
0.000972992 0.0306308 -0.0960142
0.0158666 0.0138745 0.100431
1.56865 -0.0807098 1.99966
-0.00541729 0.00662148 0.338421
0.0163244 -0.0323096 0.00496657
-0.0082951 0.00238249 0.149401
0.495832 -0.309365 1.10701
-0.0189 0.0164874 0.120231
0.0365092 0.00394433 1.11799
8.54404e-05 0.000389743 0.0045532
-2.04711e-08 -8.1503e-09 -6.21016e-06
-0.00373349 0.0365193 0.157867
0 0 0
0.00376119 0.0217709 0.0855982
0.000898722 0.0240809 0.0505732
-3.4868e-06 -0.00360564 0.0335933
-0.0436348 0.00300547 1.1386
-1.13254e-05 4.73846e-05 0.000562677
0.00316403 0.0299501 0.126826
-0.00371385 0.0213991 0.0838947
2.95435e-06 -0.000231856 0.00275904
7.86036e-05 0.0404611 0.214034
0 0 0
1.73743e-06 -2.89435e-06 0.000447269
5.71441e-07 2.90216e-08 0.000232758
0 0 0
-0.00105849 -0.0793706 0.0136378
0.00110006 -0.109018 0.0465924
-2.4323e-05 8.42359e-05 0.000439954
1.16057e-05 0.021417 0.127738
0.000533639 0.00555041 -0.0133226
-2.41774e-06 -0.000196995 0.00227342
-0.000293422 0.0370745 0.198034
0 0 0
-3.5015 -2.12497 20.4555
-2.64215 -4.9258 21.0313
-1.8424 -1.76131 18.039
1.73789 -0.0503141 17.3402
1.3257 1.59278 14.5762
1.52165 0.728301 6.99723
-4.1984 0.816261 20.6372
-3.23439 1.55821 16.6144
-2.041 2.5238 19.9342
0.142605 -0.552933 17.8638
-1.26944 -0.885396 2.04129
-0.297587 -0.263513 21.5753
2.61085 -4.80317 21.0076
1.81543 -1.77147 18.0442
3.47839 -2.16598 20.4514
-1.23732 1.66149 14.0562
-1.57184 0.741523 7.43927
-1.71993 -0.087007 17.4475
3.21021 1.57629 16.5836
2.05266 2.46983 19.9478
4.24394 0.836639 20.6273
1.20483 -1.01605 2.67193
0.299081 -0.253089 21.5065
-0.141377 -0.579431 18.1075
-0.0277077 -0.912665 21.2641
0.0970922 0.310979 19.1996
0.403493 -0.551928 20.699
0.725916 0.310776 19.2416
-2.13407 -1.23858 21.9719
-2.97892 2.09378 21.3655
-0.825869 -0.882281 21.2809
-0.950309 0.391982 22.5791
-0.103137 0.352602 19.3344
0.0108191 -0.91505 21.2195
-0.787732 0.377862 19.085
-0.401533 -0.569137 20.6744
2.95433 2.05572 21.3687
2.14403 -1.24242 21.9746
0.947678 0.412675 22.5968
0.826273 -0.881836 21.3098
-0.887683 -0.59123 20.1181
-0.615108 -0.327233 19.8736
-0.561051 -0.481359 19.7409
-0.693177 -0.668242 21.4116
-1.48347 -0.885184 20.6625
-1.49405 -1.64291 20.6782
0.0371727 -0.270609 21.7354
-0.362469 -0.569273 21.6566
-0.087652 -0.414987 21.8046
0.566904 -0.0689153 21.8753
0.215824 -0.346389 21.8455
0.419444 -0.0966202 21.9357
1.1587 0.205707 21.7086
1.03225 -0.104478 21.8587
1.30605 0.546102 21.7036
1.2884 0.0983075 20.68
1.38458 -0.0794121 21.5889
1.9336 1.11717 21.331
1.45582 -0.135453 21.6298
1.79167 0.631886 21.5043
-1.30335 -0.552961 19.8992
-0.851924 -0.157577 19.6913
-0.785204 -0.42159 19.4786
-1.11813 -0.770136 21.5736
-2.1675 -0.390425 20.6455
-0.088054 -0.545362 21.7686
-0.800966 -0.72981 21.6851
0.522859 -0.438493 22.0518
-0.105714 -0.617552 21.9396
1.38886 -0.279649 21.6054
0.724846 -0.76221 21.9768
1.4935 0.133961 21.4132
1.34696 -0.748648 21.8044
2.54791 0.0573518 18.9598
1.12131 -0.600088 21.4978
1.9644 0.441507 17.8066
-1.64851 0.181188 19.7842
-0.756262 0.348581 19.794
-1.08068 0.168623 19.1386
-1.70151 -0.213874 21.3103
-1.46708 0.629616 20.452
-0.850552 -0.575971 21.8372
-1.34451 0.2025 21.3979
-0.131256 -0.590444 21.9788
-0.60367 -0.117943 21.8394
0.449193 -0.86201 21.856
-0.0962622 -0.370477 21.7998
0.716502 -0.820423 21.4188
0.274317 -0.577849 21.6274
0.787026 -1.12486 17.3602
0.32077 -0.502031 21.2388
0.797483 -0.999133 16.1816
-0.715804 0.50771 20.1958
-0.524723 0.554958 19.8496
-0.868915 0.534828 20.8826
-0.921284 0.933971 20.3829
-0.669097 0.290287 21.4875
-0.978539 0.765652 21.2622
-0.235209 -0.0630532 21.6179
-0.400853 0.191388 21.881
-0.035358 -0.244967 21.6597
-0.121591 -0.172653 21.6612
0.112653 -0.305778 21.4552
0.0270673 -0.353574 21.8024
0.0566846 -0.309246 21.0811
-1.0059 -1.54048 19.4004
-0.566423 -0.656629 19.3061
0.00195025 -0.821314 19.2526
-0.665999 -0.943976 22.2266
-0.000487792 -4.05521 20.9125
0.0639507 0.0600814 22.0194
6.50144e-05 -0.577978 22.2642
0.814202 0.809403 21.6969
0.00994939 0.163934 21.5588
1.48963 1.81342 20.7601
0.0363674 1.3512 17.9809
1.32957 1.64168 19.9268
2.23909 2.02519 15.2325
0.00703683 2.61358 17.6755
2.57552 1.68751 15.5966
-0.0938515 2.26921 17.3217
-0.909379 -0.314937 18.677
-0.0149692 -0.785861 18.5756
2.71995 1.86928 12.7838
0.984984 -0.742397 2.62489
-0.0268626 2.45917 3.91699
1.7104 -0.212996 12.3097
-0.156701 2.30977 10.819
-0.748548 0.77548 19.1028
-0.00771657 0.4453 17.7449
0.553233 -2.16042 9.04877
0.00719114 -0.820001 21.319
0.0273751 -0.178927 -6.68912
0.0570938 -0.72296 19.5714
-0.0289125 -0.206456 5.18316
-0.655949 1.08763 19.8777
0.00523952 0.891951 19.5277
-0.965625 1.38519 20.7169
0.0208458 1.83532 20.0701
-0.772657 0.904625 21.8056
0.0104572 2.04409 21.2194
-0.251451 0.037561 21.8562
-0.00983056 0.632143 22.2489
-0.078586 -0.166828 21.694
-0.00544074 -0.0254814 21.8145
0.000313848 -0.280722 21.9722
0.00368639 -0.331141 21.2579
-0.00252654 -0.37943 21.521
0.990931 -1.53178 19.4097
0.559183 -0.660566 19.3155
0.551098 -0.487359 19.7485
0.680263 -0.932509 22.2261
1.47703 -1.62998 20.6955
-0.0453426 0.0841449 22.0287
0.0894885 -0.410547 21.8098
-0.776304 0.897822 21.5073
-0.44492 -0.0751794 21.9468
-1.48745 1.87888 20.7263
-1.33578 0.663172 21.5931
-1.35543 1.59572 19.8816
-2.27578 1.93901 15.249
-1.9499 1.07141 21.3289
-2.51187 1.5721 16.0676
-1.76818 0.588946 21.5136
0.900863 -0.320403 18.6651
0.783033 -0.42932 19.47
-2.68267 1.55191 13.6923
-1.19731 -0.814451 4.45119
-2.45515 -0.00244147 19.1407
-1.69175 -0.449655 13.2001
-1.85775 0.290899 18.3504
0.750103 0.769461 19.1055
1.07712 0.163467 19.1213
-0.590927 -2.06453 10.6001
-0.00641838 -0.8372 21.2741
-0.765901 -1.15318 18.917
-0.072017 -0.717755 20.2548
-0.801959 -0.940996 17.077
0.670968 1.06088 19.8913
0.524519 0.544853 19.8574
0.971199 1.36047 20.7219
0.921783 0.902748 20.3916
0.772127 0.916085 21.8059
0.974318 0.755585 21.2613
0.256766 0.0371655 21.861
0.40869 0.207366 21.8938
0.0799004 -0.152813 21.7025
0.13272 -0.164808 21.654
0.00593082 -0.277924 21.9642
-0.0170878 -0.360796 21.7904
-0.0562432 -0.307912 21.0529
0.873793 -0.596731 20.1032
0.607897 -0.32594 19.8624
0.70353 -0.664797 21.4083
1.46352 -0.874608 20.6827
-0.0491069 -0.269659 21.7433
0.356771 -0.5751 21.655
-0.594555 -0.0676979 21.8959
-0.22174 -0.352576 21.8398
-1.16862 0.210369 21.691
-1.05412 -0.110344 21.871
-1.29681 0.0799098 20.6703
-1.35462 -0.115698 21.6086
-1.40957 -0.173505 21.5754
1.30504 -0.561193 19.8802
0.85611 -0.165076 19.6765
1.11357 -0.778745 21.5773
2.19222 -0.393867 20.6458
0.0838953 -0.548242 21.7678
0.801022 -0.735044 21.6948
-0.518163 -0.439664 22.0377
0.108151 -0.620025 21.9412
-1.35941 -0.30096 21.6078
-0.719479 -0.75796 21.9873
-1.43284 0.127261 21.6321
-1.31602 -0.737819 21.7077
-1.06423 -0.497752 21.857
1.65886 0.176561 19.7842
0.750474 0.345521 19.7997
1.70726 -0.21812 21.3299
1.46067 0.618725 20.4555
0.849571 -0.580709 21.8462
1.33909 0.20226 21.3981
0.118172 -0.5931 21.9781
0.610252 -0.118784 21.8557
-0.405313 -0.830019 21.7435
0.0904344 -0.409815 21.7417
-0.668593 -0.816163 21.4434
-0.270492 -0.573595 21.5983
-0.309228 -0.543913 21.006
0.711931 0.500914 20.203
0.86623 0.528308 20.8813
0.672769 0.288132 21.4868
0.238218 -0.0679392 21.6261
0.00629347 -0.251178 21.6175
-0.10441 -0.324349 21.4616
-1.07432 -0.606558 20.0111
-1.37896 -1.80615 18.8342
-1.04703 -0.961144 19.8035
-1.74344 -1.01249 19.2409
-0.664402 -0.474603 19.6063
-2.29678 -2.01794 20.6293
-0.92172 -0.758237 21.4963
-0.399031 -0.226728 20.7562
-0.663378 -0.941657 21.8091
-1.09855 -1.56151 22.5301
0.0415837 -0.609194 21.8546
-0.0250535 -0.441953 21.7286
0.361723 0.288142 18.909
0.16472 -0.237189 21.8371
0.219026 -0.639672 20.6868
0.527357 -0.309942 21.741
0.548608 -0.242833 21.9522
1.32351 0.794282 16.4941
0.842494 0.14501 22.009
0.789653 -0.445874 19.0654
1.69749 0.411563 20.4712
1.30901 -0.0390919 21.7208
1.87426 1.88138 15.4553
1.63868 0.747186 21.5863
1.98347 0.0323642 18.104
2.26227 0.620982 20.3984
1.38042 0.120294 21.1605
2.17452 1.99176 15.2829
1.43996 0.536176 21.3076
2.2947 -0.0986217 18.8729
2.00666 0.674132 19.5141
-1.59533 -0.24424 19.7926
-2.98179 -0.635089 16.5748
-2.53414 0.570582 18.8795
-0.988879 -0.217904 19.2263
-4.90532 -0.620193 20.5486
-1.47853 -0.61183 21.5782
-2.60988 -0.669817 21.8145
-0.580896 -1.32142 21.3423
-0.408994 -0.695841 21.8228
-1.43457 -1.23272 21.7068
0.105103 -0.762785 20.4153
0.221943 -0.600807 22.0716
-0.248037 -0.507092 19.9734
0.962405 -0.570649 16.9206
1.01153 -0.783602 21.8522
-0.184546 -0.980159 1.64033
0.250944 -0.806052 18.1738
1.78322 -0.935524 16.6811
1.10944 -0.638617 21.7143
2.39517 -0.672972 6.65149
0.803789 -1.50095 19.7069
1.56228 -1.42056 17.3284
-1.15446 0.55702 19.9973
-1.41226 1.77988 19.0677
-0.749276 0.793029 20.0493
-0.833152 0.54872 19.4863
-1.92679 1.31514 20.2537
-1.4841 0.429446 20.975
-2.38317 2.09753 20.5342
-0.999482 0.906709 20.8037
-2.07133 0.669999 21.4825
-1.04116 0.0306042 21.7263
-2.30714 1.30391 22.5382
-0.753681 0.496434 21.6821
-0.821535 0.055962 22.1055
-0.292138 -0.267788 21.829
-0.400707 -0.137959 22.0941
-0.24253 -0.0404622 21.7837
-0.198467 -0.394847 21.8083
0.110382 -0.559035 21.6431
-0.253825 -0.45987 21.7414
-0.0412372 -0.21935 21.4126
0.142382 -0.682046 21.645
0.283688 -0.874583 20.8215
0.0782694 -0.815123 22.5726
0.103279 -0.384788 21.2702
0.142646 -0.688346 22.6346
1.36268 -1.79899 18.8605
0.00385556 -2.19909 18.9494
-0.0171219 -2.90853 16.5218
-0.00309734 -0.837819 18.9812
-0.0167958 -6.66259 21.814
0.409246 -0.229785 20.9981
-0.00461713 -1.58446 22.5706
0.00425383 -0.235072 14.3023
-0.379662 0.318873 18.8845
-0.0053503 -0.260499 21.8481
0.0309557 0.181049 13.0412
-1.31913 0.833651 16.2058
0.0276108 0.820373 19.4536
0.00530861 0.98569 8.71279
-1.89031 1.94116 15.3668
0.0200276 1.84629 17.692
0.00840689 0.340642 2.55309
-0.0116817 2.54297 10.8537
-2.24342 1.88944 15.2763
-0.0619506 3.35381 17.6919
-0.153293 3.32781 7.6668
-0.12169 2.16085 14.2834
2.95318 -0.65425 16.5404
-0.0166497 3.14653 13.8231
-0.00987121 -0.426069 17.8156
0.115896 -1.09464 2.16312
0.0353683 0.930081 -4.99831
-0.134192 3.16348 -2.21165
-2.4472 -0.708273 8.46567
0.154287 2.02414 -4.48921
-0.205304 4.13382 -0.412728
1.41889 1.7555 19.0836
0.0098328 1.43156 19.6738
0.00477698 1.1107 18.7088
0.0203838 3.80658 19.4959
2.38538 2.06146 20.548
0.0185405 2.0019 20.5401
0.0147067 4.96624 20.7345
2.31658 1.32963 22.5453
-0.00674138 1.47327 21.9578
-0.0151293 0.986935 22.7814
0.403012 -0.134952 22.0977
-0.0111487 0.157667 21.935
-0.0123135 0.209593 18.6809
0.263233 -0.462308 21.7377
-0.00905695 -0.208724 21.933
0.0064653 -0.52504 21.1435
-0.0940192 -0.808133 22.5402
0.000349973 -0.544357 21.1035
0.015153 -0.524537 20.8016
1.06039 -0.609484 20.0016
1.03704 -0.979097 19.8101
1.73416 -1.03132 19.2202
0.658894 -0.482266 19.6158
2.26528 -2.0049 20.6354
0.915242 -0.766949 21.4927
0.66768 -0.939366 21.8109
1.07994 -1.58074 22.5385
-0.056262 -0.603394 21.8487
0.0187073 -0.44513 21.731
-0.175905 -0.229789 21.8435
-0.222157 -0.647258 20.6583
-0.554565 -0.309744 21.6848
-0.561912 -0.248376 21.9626
-0.875344 0.187408 22.0197
-0.797742 -0.457716 19.0462
-1.73762 0.459646 20.0836
-1.30711 -0.0472484 21.726
-1.66248 0.776119 21.5569
-1.9744 -0.0569545 18.7473
-2.23678 0.545235 20.4559
-1.38427 0.0799178 21.1213
-1.44757 0.529662 21.2943
-2.21102 -0.09654 19.0854
-1.95065 0.571869 19.9205
1.60322 -0.259354 19.7778
2.54172 0.571571 18.8481
0.992913 -0.221281 19.2042
4.9438 -0.628592 20.5309
1.48941 -0.618427 21.5924
2.62054 -0.668751 21.8207
0.57342 -1.32691 21.3262
0.407608 -0.699231 21.8301
1.43692 -1.23135 21.7078
-0.101919 -0.771339 20.4661
-0.22742 -0.606229 22.0737
0.255553 -0.530481 20.0876
-0.959457 -0.56629 17.0466
-1.00358 -0.758997 21.8671
-0.265105 -0.853486 18.7696
-1.7643 -0.922879 18.1551
-0.935243 -0.590022 21.7702
-0.814597 -1.41681 21.3308
-1.48433 -1.27505 17.9733
1.14689 0.549789 20.0078
0.749788 0.773077 20.0608
0.831143 0.539707 19.49
1.91485 1.28045 20.2607
1.47669 0.424994 20.9787
0.996744 0.883229 20.8072
2.05975 0.662197 21.4808
1.04659 0.0307869 21.7316
0.755595 0.506465 21.6829
0.83287 0.0660049 22.1161
0.308538 -0.27757 21.8318
0.250928 -0.029344 21.7936
0.209156 -0.384318 21.8213
-0.100723 -0.531459 21.6189
0.049992 -0.224724 21.4255
-0.155311 -0.663566 21.6077
-0.240962 -0.965911 20.593
-0.100107 -0.387376 21.2722
-0.161628 -0.670745 22.5163
-1.37924 -1.06118 19.5672
-0.747148 -1.18567 22.0996
0.295658 -0.416894 21.7077
1.01927 -0.0811532 21.2502
1.97708 0.49158 19.9739
1.83559 0.242838 20.3068
-2.4611 -0.40804 18.7428
-1.80647 -1.09177 22.5366
-0.100754 -1.07555 20.6198
0.328196 -0.402598 19.3932
1.21199 -0.759424 17.1556
2.39648 -1.32033 17.8532
-1.42462 1.03617 19.6107
-2.04074 0.963536 20.8971
-1.54999 0.360743 22.0257
-0.378978 -0.199902 21.9962
-0.0802991 -0.515586 21.8673
0.119242 -0.680856 22.9715
-0.00704038 -2.71054 18.0356
-0.00625248 -0.999851 18.1361
0.00981582 -0.0828688 13.091
0.0284357 0.736802 10.099
0.00868232 1.30729 9.59677
-0.106721 3.32743 12.9615
-0.0129998 -0.872462 13.6692
0.00742958 0.439276 -0.427423
-0.274987 4.82923 -2.4416
0.0138046 2.66749 18.4445
0.0207559 3.7529 19.8294
-0.00793298 3.47784 23.0691
-0.00978944 0.245583 20.6424
0.000371087 0.0909834 20.1334
0.0081028 -0.670612 21.2767
1.3713 -1.06436 19.576
0.743806 -1.18059 22.0962
-0.310768 -0.41327 21.687
-1.05297 -0.0598598 21.0558
-2.01027 0.452418 19.8947
-1.78883 0.256757 20.466
2.46798 -0.41432 18.7167
1.79563 -1.09035 22.4845
0.102181 -1.08118 20.638
-0.33016 -0.426178 19.464
-1.22931 -0.772951 17.892
-2.27108 -1.26485 18.3117
1.41907 1.0153 19.619
2.02719 0.948085 20.8995
1.55861 0.36598 22.0287
0.387039 -0.201938 22.0045
0.0773594 -0.530809 21.8467
-0.128331 -0.651571 22.9322
-1.58279 -0.315389 1.52053
-0.053804 -0.149835 0.724329
-0.0122813 0.00455959 0.1592
-0.00260913 -0.0738815 -0.0115468
0.00383943 -0.012376 -0.00140036
0 0 0
-1.33631 0.0580913 1.90521
-0.0785333 0.900448 1.38789
-0.637447 -0.0872349 1.45773
-0.00358062 -0.0130529 -0.000326121
-0.0425893 0.0376898 -0.0995991
-0.0212799 -0.0408047 0.263657
0.0555954 -0.166093 0.87275
1.86017 -0.406696 1.29058
0.0101875 0.00468634 0.185394
-0.00110477 -0.00573168 -0.000579255
0.00251562 -0.0802736 -0.0113046
-0.0119333 0.0233033 0.157345
0.0757095 0.794201 1.34338
1.19137 0.0655381 1.71245
0.737312 -0.0915763 1.68192
0.0449103 0.0366081 -0.0969236
0.00244149 -0.00953282 -0.000121479
0.020725 -0.040983 0.267346
-0.00941876 0.0245629 0.261469
0.025416 0.00897955 1.25781
1.09003e-18 3.10543e-18 3.77225e-17
0 0 0
0.0200522 0.00153224 0.097872
0.0792284 -0.00893961 1.20233
-0.00211909 0.000265387 0.064861
0 0 0
-0.376879 -0.31163 0.881481
0 0 0
0.0065626 0.0286092 0.143953
-0.0637947 0.0551276 0.134095
0 0 0
0 0 0
0.00426056 0.0112769 0.0378171
0.10928 -0.0160611 0.589152
0.00207711 0.0250875 0.285848
0 0 0
-0.0322492 0.0089876 1.18606
0 0 0
0 0 0
0 0 0
-0.120209 -0.0277394 1.76205
0.00143948 0.000719329 0.0509525
0.387461 -0.334182 0.940487
0.0672106 0.0583515 0.140719
0 0 0
-0.00661884 0.0283759 0.141918
0 0 0
-0.109256 -0.0152478 0.584581
0 0 0
-0.00445334 0.0118534 0.0398201
-0.00192151 -0.0051481 0.0367335
0 0 0
-2.02665e-08 3.95157e-06 -0.000105204
0.00110252 -0.394675 0.0805691
3.94042e-06 4.42745e-05 0.00172841
0 0 0
0 0 0
-0.0188621 -0.0678594 0.0268771
-0.000144186 0.000177668 0.00415132
0 0 0
1.00846e-05 1.8571e-05 0.00206841
0 0 0
-0.000710439 0.155206 0.0959343
0 0 0
0 0 0
-0.0201476 0.00693454 0.0388006
0 0 0
0 0 0
0 0 0
-0.0073922 0.000109368 -4.63409e-05
0.00130797 -0.000595371 0.000498066
0.00146749 -0.00399137 0.0283713
0 0 0
-2.0396e-06 2.57797e-05 0.00103888
0.0233103 -0.0793781 0.0309295
0 0 0
0 0 0
-1.10983e-05 1.56823e-05 0.00222613
0.0247918 0.00856467 0.0476355
0 0 0
0.00745238 0.000192558 -0.000154809
0 0 0
0.00172949 0.0095293 0.114352
-1.07925e-17 4.62413e-19 -1.07856e-16
0 0 0
2.85409e-07 3.96999e-06 2.28298e-05
0 0 0
-1.01659e-08 -1.87114e-09 -3.66772e-06
-0.00313757 0.0531662 0.276814
-0.0135245 0.0204361 0.106992
0.000111037 0.00276469 0.0308143
-0.000140584 0.00227556 0.018005
0 0 0
-0.053348 0.0641183 0.504692
-0.00014854 0.00804733 0.0209287
3.05241e-05 0.040802 0.122017
1.6291e-06 1.07606e-05 0.000507877
-2.04212e-05 -0.000146189 0.00119902
0 0 0
-0.00165165 0.00942722 0.112622
0 0 0
-1.78928e-06 2.45993e-05 0.000142578
0.00300902 0.0501493 0.264398
0.0319772 0.0445296 0.23935
0.0536137 0.0634342 0.504188
0 0 0
-0.000177793 -0.000342343 0.00301291
-0.0103675 -0.00332545 0.0917018
0 0 0
-3.09576e-05 -0.00134685 0.00779776
1.58065e-05 0.000103798 0.00153916
0 0 0
0.000608229 0.00366563 0.0567617
0 0 0
-0.00168156 -0.00181781 0.0471597
0 0 0
0.00128725 -0.0012785 0.0074793
0 0 0
0 0 0
0 0 0
0 0 0
0 0 0
1.27788e-17 -3.73257e-19 1.27563e-16
0 0 0
0.000241609 0.000110689 0.00186097
-0.00219481 0.000983444 0.016897