# vtk DataFile Version 2.0
tri_press
ASCII
DATASET UNSTRUCTURED_GRID
POINTS 3682 float
-0.753875 0.165 -2.305
-0.675 0.375 2.36051
-0.755 0.855 -2.09186
-0.716902 1.245 2.145
0.755 0.155 -2.30679
0.675 0.385 2.36749
0.751861 0.855 -2.095
0.716897 1.245 2.145
-0.785519 0.177064 -0.74983
-0.818739 0.187552 0.80534
-0.828503 1.0712 -0.679574
-0.815856 1.20126 0.732713
0.784961 0.175039 -0.748697
0.819479 0.190521 0.809397
0.828886 1.07368 -0.681667
0.815497 1.20195 0.731667
-1.55497 -0.360397 -3.51694
-1.55374 -0.276734 -2.32937
-1.57934 -0.263605 -0.770396
-1.58984 -0.256016 0.817073
-1.51132 -0.127975 2.37845
-1.48323 -0.025478 3.5778
-1.48668 0.0600181 4.75543
-1.5525 0.0468632 -3.46228
-1.55264 0.152791 -2.29026
-1.58805 0.193411 -0.759441
-1.59251 0.208204 0.783885
-1.4736 0.334497 2.31743
-1.45563 0.435143 3.51474
-1.4711 0.519715 4.6971
-1.55438 0.816596 -3.31256
-1.56041 0.917778 -2.13421
-1.61503 1.08424 -0.700801
-1.59863 1.18258 0.722064
-1.49636 1.2458 2.15802
-1.46759 1.34066 3.36013
-1.47453 1.43145 4.5649
-1.56409 2.09391 -3.19688
-1.5712 2.21396 -2.04038
-1.59373 2.40101 -0.65303
-1.59926 2.55835 0.703047
-1.57249 2.65975 2.09144
-1.54485 2.73269 3.2501
-1.52678 2.81105 4.439
-0.773212 -0.354767 -3.52674
-0.762962 -0.266612 -2.3431
-0.781575 -0.270723 -0.768349
-0.811605 -0.269256 0.83616
-0.755016 -0.107243 2.41154
-0.728627 -0.00973842 3.60055
-0.729148 0.0687583 4.76895
-0.771932 0.045159 -3.46586
-0.697758 0.451995 3.53338
-0.713839 0.528461 4.70742
-0.77212 0.790571 -3.29561
-0.707544 1.3453 3.35781
-0.714779 1.43603 4.56493
-0.773247 2.07545 -3.1799
-0.774371 2.19632 -2.02155
-0.79502 2.39667 -0.641685
-0.811199 2.56433 0.701625
-0.799258 2.66429 2.08169
-0.776051 2.73523 3.24048
-0.75832 2.81319 4.43218
0.769224 -0.359985 -3.52803
0.77407 -0.273229 -2.34409
0.794171 -0.272618 -0.767355
0.786031 -0.266741 0.839546
0.695546 -0.100559 2.41674
0.73233 -0.0046084 3.60451
0.763077 0.0723213 4.77181
0.761392 0.0397298 -3.46756
0.73969 0.457296 3.53731
0.770316 0.531954 4.71016
0.763467 0.788191 -3.29783
0.754408 1.34763 3.35953
0.77775 1.43851 4.56683
0.799268 2.07471 -3.18141
0.809124 2.1962 -2.02306
0.80649 2.39721 -0.642752
0.778625 2.56505 0.701219
0.753765 2.66515 2.08191
0.759133 2.73639 3.24115
0.77352 2.81461 4.43316
1.54845 -0.368812 -3.51922
1.55573 -0.285784 -2.33103
1.58337 -0.266602 -0.769197
1.57699 -0.25238 0.822026
1.48621 -0.119094 2.38595
1.49053 -0.0172765 3.58442
1.51872 0.0664142 4.76068
1.54102 0.0383406 -3.46525
1.54748 0.142826 -2.29298
1.58589 0.190497 -0.759018
1.59536 0.211657 0.788366
1.48237 0.343711 2.32489
1.49037 0.443312 3.52112
1.52207 0.525976 4.70211
1.54576 0.811869 -3.31632
1.55567 0.91447 -2.13841
1.6134 1.08474 -0.703113
1.6013 1.18427 0.722371
1.50788 1.24882 2.16039
1.50765 1.34524 3.36363
1.53183 1.43613 4.56854
1.58483 2.09234 -3.19963
1.59697 2.21347 -2.04305
1.60147 2.40178 -0.654852
1.57498 2.55971 0.702493
1.54021 2.66158 2.09207
1.53485 2.73506 3.25153
1.54395 2.81384 4.44096
-0.792129 0.51 -2.23612
0.000562489 0.186609 -2.27929
-0.771962 0.168767 -1.52742
-0.72135 0.81 2.27815
0 0.381061 2.36294
-0.753334 0.274812 1.58293
-0.00156951 0.908249 -2.14668
-0.827497 0.998846 -1.38572
-2.5034e-06 1.25797 2.15797
-0.800627 1.25738 1.43886
0.791105 0.505 -2.23857
0.775673 0.159327 -1.52774
0.714503 0.815 2.2748
0.754459 0.280542 1.58844
0.826478 1.00044 -1.38833
0.800536 1.25781 1.43833
-0.79795 0.186488 0.027755
-0.843452 0.624133 -0.714702
-0.000279398 0.153587 -0.749264
-0.840551 0.694404 0.769027
0.000369929 0.172983 0.807369
-0.822012 1.13606 0.02657
0.000191324 1.40571 -0.68062
-0.000179769 1.64682 0.73219
0.799393 0.185607 0.03035
0.843053 0.62436 -0.715182
0.840512 0.696233 0.770532
0.821796 1.13742 0.025
-0.896813 0.567067 -1.45657
0.896847 0.56468 -1.45804
0.000141546 0.157958 -1.52758
-0.000689093 1.08332 -1.38703
-0.00050351 0.5075 -2.41769
-0.841497 0.659269 0.0271625
0.841475 0.660296 0.027675
4.52656e-05 0.153653 0.0290525
5.77742e-06 1.64452 0.025785
-0.880817 0.752202 1.51089
0.879164 0.755617 1.51339
0.000184964 0.262984 1.58568
-9.11363e-05 1.47578 1.4386
-1.2517e-06 0.8125 2.36058
-0.758235 0.3375 -2.25579
-0.376656 0.186815 -2.28113
-0.764431 0.165371 -1.91621
-0.713254 0.5925 2.33441
-0.3375 0.393187 2.34657
-0.738179 0.300894 1.97172
-0.795915 0.6825 -2.18634
-0.378285 0.897523 -2.13517
-0.820743 0.956418 -1.73879
-0.724524 1.0275 2.21698
-0.358452 1.26538 2.16538
-0.76886 1.26128 1.79193
0.377781 0.186404 -2.27744
0.756771 0.33 -2.2564
0.76316 0.15934 -1.91727
0.3375 0.399841 2.3484
0.709655 0.6 2.33605
0.735705 0.311795 1.97797
0.375146 0.897224 -2.13644
0.794697 0.68 -2.19
0.818862 0.957415 -1.74167
0.358447 1.26538 2.16538
0.722746 1.03 2.21695
0.768558 1.26125 1.79167
-0.774813 0.176843 -1.13862
-0.795928 0.177582 -0.361038
-0.850223 0.38273 -0.732266
-0.392531 0.166063 -0.749547
-0.759116 0.258103 1.19413
-0.803331 0.192033 0.416548
-0.84665 0.432475 0.787184
-0.410289 0.178058 0.806354
-0.828619 1.03564 -1.03265
-0.837176 0.848267 -0.697138
-0.825198 1.10357 -0.326502
-0.48212 1.37438 -0.680097
-0.812426 1.2335 1.08579
-0.833189 0.950322 0.75087
-0.81885 1.16857 0.379642
-0.515941 1.63988 0.732452
0.774471 0.173029 -1.13822
0.391451 0.166093 -0.74898
0.795785 0.176715 -0.359173
0.850238 0.381584 -0.731939
0.759559 0.262941 1.19892
0.411769 0.178064 0.808383
0.809492 0.188008 0.419873
0.846544 0.435103 0.789964
0.827742 1.03712 -1.035
0.481665 1.37395 -0.681144
0.836915 0.849492 -0.698424
0.824856 1.10506 -0.328333
0.812161 1.23402 1.085
0.515448 1.63996 0.731928
0.833142 0.951658 0.751099
0.818825 1.16986 0.378333
-0.896482 0.538533 -1.84634
-0.396316 0.50875 -2.37485
0.000352017 0.162285 -1.90343
2.94894e-05 0.347054 -2.40055
-0.899347 0.367917 -1.49199
-0.38591 0.156265 -1.5275
-0.850513 0.781101 1.89452
-0.360676 0.81125 2.33865
9.24822e-05 0.298529 1.97431
-6.25849e-07 0.59678 2.42072
-0.897439 0.513507 1.54691
-0.376574 0.26746 1.5843
-0.0011293 1.00984 -1.76685
-0.00103651 0.707874 -2.38478
-0.860435 0.782956 -1.42114
-0.414093 1.08345 -1.38637
-4.68199e-05 1.29326 1.79828
-1.87755e-06 1.03524 2.30606
-0.840031 1.00479 1.47487
-0.400359 1.47571 1.43873
0.896512 0.53484 -1.8483
0.395301 0.50625 -2.37501
0.899421 0.362003 -1.49289
0.387907 0.15652 -1.52766
0.850474 0.785308 1.89409
0.357251 0.81375 2.33834
0.897375 0.518079 1.55092
0.377322 0.262447 1.58706
0.860971 0.782562 -1.42319
0.412895 1.08326 -1.38768
0.839956 1.00671 1.47586
0.400223 1.47588 1.43846
-0.848552 0.408464 0.0274588
-0.400195 0.167584 0.0284038
-0.859418 0.5956 -1.08563
-0.842168 0.641701 -0.34377
-6.8926e-05 0.159263 -1.13842
-0.000117066 0.153625 -0.360106
-0.840812 0.676836 0.398095
-0.866053 0.723303 1.13996
0.000207597 0.153711 0.418211
0.000277447 0.201506 1.19653
-0.834436 0.899005 0.0268662
-0.522516 1.61332 0.0261775
-0.000248884 1.20019 -1.03382
9.85508e-05 1.55756 -0.327418
-8.69959e-05 1.66583 0.378988
-0.000135453 1.58237 1.08539
0.848492 0.408923 0.0290125
0.400684 0.167701 0.0297012
0.859439 0.59452 -1.08661
0.842152 0.642328 -0.343753
0.840784 0.678265 0.399103
0.867131 0.725925 1.14196
0.83436 0.900219 0.0263375
0.522078 1.61332 0.0253925
-0.898797 0.352708 -1.88128
-0.869563 0.384258 -1.11213
-0.853362 0.815312 -1.05914
-0.875086 0.732728 -1.79257
0.89889 0.346002 -1.88279
0.875174 0.731281 -1.79499
0.85335 0.815791 -1.06081
0.869599 0.380851 -1.11242
-0.381283 0.156228 -1.90982
0.382844 0.156436 -1.91035
0.390124 0.165847 -1.13832
-0.389405 0.162298 -1.13852
-0.396189 1.01121 -1.75282
-0.414124 1.17016 -1.03323
0.413717 1.1683 -1.03441
0.39402 1.01099 -1.75426
-0.386486 0.342277 -2.35092
-0.3873 0.695187 -2.32466
0.385223 0.693937 -2.32575
0.386541 0.338527 -2.35068
-0.849416 0.395583 -0.352404
-0.847578 0.420481 0.407321
-0.832922 0.924218 0.388868
-0.835731 0.873599 -0.335136
0.849393 0.395239 -0.351463
0.83565 0.874862 -0.336043
0.832844 0.925485 0.388718
0.84752 0.422012 0.409488
-0.396662 0.166225 -0.360572
0.396381 0.166269 -0.359639
0.408632 0.168071 0.419042
-0.407691 0.167924 0.417379
-0.515599 1.52041 -0.32696
-0.53006 1.64826 0.379315
0.529616 1.64835 0.37866
0.515152 1.5202 -0.327876
-0.896662 0.477243 1.16705
-0.866101 0.553004 1.93312
-0.846899 1.01614 1.84323
-0.834336 0.976309 1.11287
0.896647 0.480728 1.17044
0.834289 0.977902 1.11348
0.846815 1.01836 1.84288
0.861433 0.559039 1.93603
-0.392879 0.194012 1.19533
0.393623 0.202021 1.19772
0.357411 0.29529 1.97614
-0.357037 0.301857 1.97301
-0.404189 1.58233 1.08559
-0.379406 1.28384 1.79511
0.379335 1.28392 1.79498
0.403941 1.58241 1.0852
-0.349088 0.59464 2.39995
0.347376 0.59839 2.40005
0.357849 1.03262 2.28469
-0.359564 1.03137 2.28487
-0.743778 0.25125 -2.26812
-0.565266 0.157374 -2.3116
-0.747446 0.176893 -2.1106
-0.67911 0.48375 2.33244
-0.50625 0.388677 2.34896
-0.738826 0.305711 2.16611
-0.77656 0.76875 -2.1402
-0.566642 0.887034 -2.12429
-0.797876 0.915714 -1.91532
-0.737675 1.13625 2.19795
-0.537677 1.26362 2.16362
-0.757178 1.26744 1.96846
0.566391 0.155144 -2.30767
0.752061 0.2425 -2.27777
0.745559 0.170691 -2.11203
0.50625 0.40071 2.34966
0.670139 0.4925 2.32958
0.736855 0.316895 2.17273
0.563503 0.886448 -2.12606
0.774377 0.7675 -2.1436
0.795072 0.915917 -1.91833
0.537672 1.26354 2.16354
0.73665 1.1375 2.1978
0.75714 1.26754 1.96833
-0.780421 0.176699 -0.944226
-0.789835 0.178212 -0.555434
-0.844656 0.266504 -0.741048
-0.590353 0.168908 -0.749689
-0.795597 0.216158 0.999736
-0.801662 0.199166 0.610944
-0.848456 0.302133 0.796262
-0.616211 0.179412 0.805847
-0.829774 1.05464 -0.856109
-0.845889 0.96626 -0.688356
-0.827615 1.08815 -0.503038
-0.694646 1.30146 -0.679835
-0.814131 1.21737 0.909249
-0.842891 1.08497 0.741792
-0.817296 1.18486 0.556178
-0.691248 1.47127 0.732583
0.779195 0.174555 -0.943459
0.590026 0.166925 -0.748839
0.789787 0.176463 -0.553935
0.844276 0.264973 -0.740318
0.795927 0.220323 1.00416
0.618684 0.178171 0.80889
0.804778 0.198972 0.614635
0.849114 0.304761 0.799681
0.828845 1.05593 -0.858333
0.694059 1.30138 -0.681405
[...]
POINT_DATA 3682
SCALARS point_scalars float 1
LOOKUP_TABLE default
-107.807
-52.7349
-58.8808
-44.2854
-115.244
-52.9196
-58.0671
-44.4782
-41.3944
-45.8638
-65.6341
-52.2498
-42.0045
-46.1601
-65.9606
-52.3708
-102.326
-126.35
-43.2587
-46.4321
-59.4623
-52.2232
-52.2232
-79.1248
-126.35
-42.9087
-42.5728
-59.3501
-50.349
-49.3069
0.276268
-126.221
-61.5127
-49.6131
-51.1805
-45.4072
-48.5975
-64.7732
-73.6949
-86.4171
-65.6909
-42.6144
-44.9139
-44.3045
-3.51262
-186.112
-41.8736
-52.2423
-56.6369
-52.2232
-49.3001
46.1155
-49.3001
-49.3001
162.417
-42.7409
-48.0447
-18.7972
-49.3309
-73.0334
-73.2251
-48.1053
-40.7026
-39.6445
30.2595
-219.109
-41.4835
-53.8611
-57.1681
-51.8727
-51.8727
30.223
-51.8727
-49.3461
163.433
-43.8529
-48.2439
-19.0093
-50.1078
-73.3196
-73.2177
-47.7104
-39.752
-39.9185
-76.7073
-110.715
-42.773
-46.3476
-60.2869
-52.5867
-51.8727
-70.1561
-122.123
-42.9153
-42.0932
-59.2153
-50.6359
-51.8727
5.8636
-125.36
-61.8399
-49.7326
-51.339
-45.6257
-48.8581
-64.4825
-74.2138
-86.8234
-65.7625
-42.878
-45.1018
-44.5145
-50.0398
-164.15
-61.1839
-47.2674
-51.7247
-49.8275
-32.2548
-57.9598
-38.8093
-50.5851
-48.2623
-61.1524
-47.3146
-49.2296
-57.8348
-50.6579
-39.909
-46.0767
-47.0265
-41.5468
-50.8403
-57.9413
-10.9877
-71.6394
-39.7781
-46.1152
-41.5314
-57.9996
-66.0677
-66.3212
-69.5159
-0.780285
205.567
-44.461
-44.5112
-45.3004
-98.7342
-52.4754
-52.4114
-51.7032
-43.6031
-46.0345
-49.3308
-220.359
-89.263
-50.1059
-51.4876
-54.5644
-56.5616
-38.9208
-72.9257
-46.4671
-38.8916
-44.2449
-220.637
-43.0166
-87.891
-51.3356
-50.0258
-56.362
-39.1096
-56.0924
-72.6241
-38.9826
-46.6944
-44.2571
-50.1182
-40.5613
-43.7179
-45.7593
-50.3875
-41.6809
-39.967
-50.0693
-57.9536
-52.0273
-61.4101
-23.9683
-51.2526
-46.2855
-54.8265
-69.1409
-51.2382
-45.8848
-40.4329
-43.7253
-51.0209
-50.6666
-42.7703
-39.6386
-57.8568
-23.8771
-52.1395
-61.595
-51.307
-69.1788
-46.4309
-54.9077
-101.408
191.538
-96.7514
166.833
-65.7506
-67.8152
-51.992
-46.2485
-50.2803
-49.5871
-52.5436
-51.2996
-30.3129
134.537
-63.8463
-10.8631
-39.2341
-43.0638
-49.0432
-44.8208
-101.872
190.951
-66.0358
-68.0983
-51.7973
-46.3759
-52.4227
-51.7468
-64.2098
-10.9058
-49.0861
-44.8819
-42.4042
-44.0844
-51.2064
-45.3035
-53.6
-44.5742
-43.5721
-44.7436
-49.835
-55.5026
-49.6163
-85.7351
28.852
-68.0508
-90.3559
-54.5045
-42.3372
-44.1667
-51.3576
-45.3906
-43.6015
-44.7864
-49.5853
-85.7259
-105.295
-52.6153
-53.0168
-85.6997
-105.888
-86.1404
-53.1314
-52.7611
-96.659
-97.215
-52.8504
-52.7702
-35.4116
13.3046
13.3637
-35.5266
170.805
115.659
116.826
168.896
-42.2808
-41.808
-48.2428
-51.0929
-42.2648
-51.1626
-48.302
-41.9029
-43.7287
-43.8064
-48.3918
-48.2493
-72.53
-80.6632
-80.7166
-72.4275
-49.2561
-57.1056
-48.887
-46.9967
-49.9844
-47.0703
-48.9059
-55.7176
-56.4363
-55.0009
-50.7657
-51.7341
-55.7148
-40.1688
-40.1968
-55.7319
-49.3386
-49.331
-43.4779
-43.3088
-26.8222
-212.759
-116.996
-50.2116
-51.6719
-58.8382
-46.8867
-41.9358
-74.6966
-45.3158
-39.8653
-42.7106
-216.331
-18.7455
-115.472
-51.1611
-49.7307
-58.6519
-41.0431
-49.3831
-73.5746
-40.0104
-45.4776
-42.7422
-42.8508
-40.6865
-42.1961
-43.8821
-58.9134
-42.9192
-42.521
-50.1769
-64.4658
-58.1285
-63.736
-79.5284
-51.4226
-48.6249
-53.2209
-59.5781
-43.2266
-44.0299
-40.6017
-42.2234
-57.7761
-52.1258
-43.543
-41.8543
-64.5799
-79.3581
-58.3121
-63.8973
-51.5006
-59.6074
-48.7741
-53.3393
-48.1685
-52.381
-117.719
145.812
-169.791
-168.461
-117.991
119.076
-72.1113
-54.7632
-64.7121
-64.4146
-49.2157
-46.6317
-52.9493
-46.6825
-51.6627
-51.619
-52.0379
-49.8315
-53.0114
-50.9296
-51.8209
-49.4869
-43.0233
-42.8275
-40.8302
35.526
-66.9939
-55.9674
-63.3421
-25.5329
-38.613
-38.6597
-39.5619
-37.091
-47.9873
-51.1788
-49.281
-47.6589
-51.198
-51.2136
-117.825
148.449
-71.9956
-55.2314
-64.9475
-64.8123
-49.2057
-46.7564
-52.975
-46.7295
-53.2797
-49.4117
-51.6014
-50.6856
-66.9954
-56.1758
-63.6619
-25.5972
-48.0259
-51.254
-49.3928
-47.7096
-41.1611
-42.0946
-41.1819
-42.4574
-45.1125
-48.5585
-49.4648
-45.3219
-46.6394
-46.6964
-49.7029
-45.2508
-39.2665
-44.1527
-42.7542
-41.312
-50.4637
-50.6506
-48.4217
-55.8183
-59.6637
-56.3875
-54.3867
-71.0645
-11.8013
-11.772
19.6935
-43.9745
-71.491
-71.4983
-81.6632
-62.6574
-41.0611
-42.0583
-41.1294
-42.4946
-45.2499
-48.6718
-49.5529
-45.3462
-39.1411
-44.2354
-42.7546
-41.3628
-59.7682
-56.4255
-54.3493
-71.0608
-79.0252
-66.0858
-66.3267
-60.1276
-79.3689
-66.3936
-66.6176
-60.4016
-81.4125
-69.1981
-69.3268
-60.4805
-14.4522
-3.47131
-3.48167
14.0217
200.477
195.323
192.779
200.591
-43.5215
-45.5613
-44.0981
-47.0969
-43.5272
-45.3973
-44.1071
-47.0915
-44.9964
-44.6089
-46.8021
-45.0372
-95.5966
-91.3862
-97.8633
-95.5936
-54.0529
-52.8292
-50.0302
-48.6773
-53.957
-52.8209
-50.0119
-48.7627
-50.1157
-51.5474
-51.7454
-53.442
-40.8299
-43.8448
-43.9133
-48.1536
-46.2554
-48.0571
-44.6079
-46.3262
-120.107
163.051
-122.056
111.444
-104.909
-91.6454
-56.0918
-49.0735
-52.4496
-49.7652
-60.3051
-53.0553
-119.59
91.5487
-45.1635
46.5154
-88.3534
-44.5429
-51.5075
-44.1377
-39.7697
-37.7857
-47.1134
-41.2201
-122.84
112.575
-119.94
163.821
-105.607
-92.4371
-52.1667
-49.865
-56.8635
-49.1261
-58.8653
-53.5045
-45.2194
47.6567
-119.754
93.3232
-88.7351
-44.539
-39.8149
-38.0448
-51.6337
-44.3574
-47.0817
-41.2499
-54.5921
-51.2777
-41.3887
-42.6442
-45.5656
-42.2735
-48.3442
-44.2151
-46.4731
-55.4364
-41.5744
-45.7786
-41.4083
-35.225
-47.5859
-55.9365
-55.904
-13.755
-53.3563
-51.3543
-55.7273
-82.1808
6.07836
-54.6774
-48.8641
-58.0186
-46.7289
-45.9685
-50.5055
-64.4165
-75.6138
-63.4964
-54.3605
-51.4861
-48.4772
-44.3209
-41.2962
-42.6598
-45.6163
-42.2772
-51.2403
-53.2635
-48.0498
-55.8806
-41.7837
-45.8795
-41.3633
-35.5279
-55.9945
-13.9124
5.89711
-54.5411
-53.4012
-51.434
-55.8268
-82.5014
-49.0037
-58.0453
-75.5099
-63.5444
-46.6704
-46.0507
-50.8307
-64.4795
-104.045
-94.132
177.488
167.63
-97.3294
-97.546
165.102
163.638
-79.6388
-58.6646
-80.0243
-59.1612
-54.0803
-50.4765
-48.2471
-44.9642
-50.0939
-51.1003
-49.5725
-49.5256
-51.0129
-56.1276
-52.5371
-50.5091
-31.3392
-31.3526
128.045
128.838
-56.7707
-74.346
-22.1798
1.13221
-39.4956
-39.5161
-42.9887
-43.0569
-49.2722
-48.029
-49.5919
-41.7519
-104.557
-94.4924
168.827
177.204
-79.9422
-58.9752
-80.3738
-59.4357
-50.4093
-53.5942
-48.2396
-45.1105
-51.2111
-55.9514
-52.8756
-51.0442
-74.6534
-56.882
0.9232
-22.2182
-48.0347
-49.2714
-41.7593
-49.6025
-42.6278
-41.7926
-43.6643
-45.4698
-51.9406
-51.5971
-43.5377
-47.8502
-53.3259
-53.2351
-44.3786
-44.4157
-42.548
-45.8186
-45.8891
-45.9976
-49.7548
-49.6706
-56.1334
-55.3751
-49.6676
-49.6272
-81.5788
-84.0227
25.7523
25.4883
-66.0237
-66.0003
-89.0707
-89.0824
-54.7635
-54.7724
-42.6002
-41.7792
-43.728
-45.5764
-51.7329
-52.1325
-43.5634
-47.8913
-45.8628
-42.6407
-46.3267
-46.1773
-49.7569
-49.6632
-83.9427
-81.7112
-121.748
-78.325
-79.8021
-120.758
-44.1318
-47.5899
-59.3737
-57.8437
-58.1692
-57.9392
-57.9949
-51.3684
-115.794
-113.491
-77.8411
-72.7854
-121.12
-120.302
-80.2096
-78.4897
-116.134
-73.1296
-78.1518
-113.831
-58.3228
-51.4026
-58.2256
-58.1151
-44.0528
-58.277
-59.6022
-47.6657
-116.251
-117.995
-81.2531
-75.8837
-117.845
-76.3764
-81.3999
-117.962
-46.1309
-49.4721
-60.3767
-57.2429
-46.0394
-56.7296
-60.2597
-49.4242
-50.7605
-33.2742
-16.8003
-41.4777
-56.8349
16.968
10.2803
-17.3125
-55.6975
-17.2486
10.2679
17.057
-50.9255
-41.5454
-16.9015
-33.2603
162.782
160.474
192.487
139.334
48.2685
38.1429
182.113
127.336
48.7324
128.123
182.259
39.6101
168.055
141.979
191.995
159.926
-41.3031
-41.2007
-44.2912
-43.6588
-41.5191
-41.9027
-42.5184
-41.4409
-49.1604
-54.0373
-46.7803
-44.8549
-57.2585
-47.9239
-47.4167
-53.8026
-41.2223
-43.5905
-44.1961
-41.134
-57.4005
-53.9912
-47.4238
-47.9631
-49.1887
-44.9035
-46.7915
-53.9958
-41.4934
-41.4191
-42.4938
-41.8949
-42.657
-45.0515
-44.3546
-42.5368
-42.7956
-42.5679
-44.3912
-45.0978
-47.0273
-48.2383
-46.5263
-43.8313
-46.3254
-43.7549
-46.469
-48.0483
-87.8326
-75.4518
-87.2003
-41.4482
-61.5909
-80.8967
-95.4567
-66.9348
-61.5463
-66.932
-95.469
-80.9013
-87.5586
-41.3659
-87.1721
-75.638
-47.0043
-50.7541
-50.7313
-37.636
-58.7808
-53.8768
-56.5613
-54.9806
-47.6919
-48.2977
-51.4221
-53.1459
-48.1702
-44.0201
-48.0415
-49.2399
-42.104
-37.8315
-50.8766
-51.0829
-48.2807
-49.2327
-47.95
-44.1254
-47.6783
-53.2467
-51.3975
-48.3532
-59.7858
-54.2603
-56.3314
-53.9991
-56.287
-55.8138
-53.2545
-51.417
-54.1101
-50.8872
-53.289
-55.949
-52.4845
-52.0536
-50.562
-52.7037
-53.1826
-52.0139
-49.4965
-52.169
-57.5389
-52.7529
-48.478
-62.8397
-40.1817
-39.6339
-41.0634
-43.4478
-40.2443
-43.4593
-41.065
-39.6547
-57.5762
-62.852
-48.4826
-52.7657
-49.4666
-49.8682
-48.3349
-47.9475
-49.5493
-48.1187
-48.3181
-49.9226
-41.6439
-36.9965
-44.8652
-45.6156
-41.3429
-45.453
-44.7136
-36.8604
-65.5836
-177.117
-164.826
-50.8613
-51.9352
-56.0139
-43.8336
-44.2763
-75.8738
-45.1242
-41.1071
-43.8859
-179.293
-60.5139
-167.883
-50.8925
-50.7235
-55.1793
-42.891
-45.0345
-75.4248
-41.2528
-45.3135
-43.9724
-42.7804
-40.9759
-41.4599
-42.5817
-56.6393
-40.5556
-43.2492
-50.457
-67.0184
-61.5075
-64.5944
-80.4371
-52.0247
-50.3075
-52.5938
-55.2376
-41.6291
-42.6521
-40.3686
-42.3956
-56.1367
-52.8479
-41.0372
-42.8214
-66.9606
-80.6013
-61.7733
-64.9618
-52.1115
-55.2609
-50.4392
-52.7388
-48.0731
-49.9322
-129.277
78.1704
-166.649
-166.276
-141.338
-32.6227
-65.9602
-57.3864
-63.1424
-62.5067
-48.3326
-47.1682
-54.3137
-46.953
-51.7138
-51.6759
-54.2187
-50.0826
-50.4095
-50.2852
-52.4487
-49.7479
-37.2968
-37.0929
-40.8215
-3.01695
-61.2839
-55.7521
-63.6099
-41.6116
-38.8562
-38.8763
-39.7655
-35.5815
-49.0721
-51.1004
-49.965
-49.9923
-48.2181
-48.6261
-129.53
79.7698
-66.0313
-57.4627
-63.2211
-62.9025
-48.1882
-47.4278
-54.5486
-47.1438
-50.3235
-49.0637
-51.6435
-48.9004
-61.2981
-55.89
-63.9528
-41.4554
-49.0743
-51.2049
-50.1406
-50.7534
-40.659
-41.0684
-39.9824
-41.7384
-45.3252
-47.0945
-47.709
-45.5632
-46.8645
-46.8921
-48.1606
-45.9976
-40.4142
-43.0197
-42.1275
-41.076
-50.7302
-50.813
-49.4962
-52.3963
-58.7378
-56.9088
-55.654
-63.7291
-11.333
-11.3554
4.691
-24.633
-71.6155
-71.6206
-76.5458
-67.375
-40.3618
-40.8178
-39.9012
-41.7597
-45.37
-47.156
-47.8087
-45.5572
-40.3857
-43.0841
-42.1422
-41.1492
-58.8181
-56.9491
-55.7121
-63.7634
-71.6399
-66.0027
-65.8049
-62.1893
-71.9361
-66.2858
-66.0591
-62.3707
-75.0536
-69.4966
-69.5525
-64.66
-8.60258
-1.51274
-1.51976
5.96176
201.756
201.398
203.031
201.849
-43.5141
-44.5595
-44.2902
-45.7605
-43.6155
-44.558
-44.3028
-45.7586
-45.2168
-44.8617
-45.9494
-45.2375
-98.0999
-97.8971
-99.9491
-98.1004
-54.4858
-52.7796
-50.9146
-50.6105
-54.0753
-52.7527
-50.9735
-50.6615
-50.9362
-51.6327
-51.751
-52.464
-42.0618
-43.652
-43.6472
-45.6729
-46.3384
-47.1016
-45.0251
-46.3586
-39.9885
-45.3714
-112.437
110.512
-204.462
-186.531
-151.922
-1.57652
-98.8615
-80.1606
-99.3368
-89.6064
-49.9708
-49.7565
-57.0935
-49.1415
-51.671
-51.5092
-55.2113
-50.0108
-53.4656
-57.121
-60.2162
-52.5098
-51.9298
-54.8829
-126.033
42.2241
-40.9664
-41.9631
-53.9534
-0.0126816
-74.6661
-72.2434
-87.7757
-53.2224
-46.1854
-46.2728
-53.2238
-45.194
-39.0323
-38.7094
-39.6699
-36.7702
-42.5737
-45.3937
-45.8177
-42.2385
-211.231
-184.486
-152.077
2.7616
-30.9312
-50.3836
-116.185
110.857
-98.0997
-79.4756
-99.4126
-89.7604
-51.4986
-51.3372
-55.3901
-49.9995
-49.9083
-49.7171
-56.9907
-49.197
-52.4684
-59.2774
-60.0937
-56.0681
-40.6844
-42.9657
-54.2211
-0.467876
-53.1253
-54.4914
-125.918
45.1922
-74.4679
-71.6831
-88.5806
-53.1473
-39.1594
-38.782
-39.7208
-36.9922
-46.3766
-46.4424
-53.1278
-45.3708
-42.6207
-45.4245
-45.7947
-42.2679
-44.7636
-52.5718
-54.1774
-50.3416
-40.2908
-42.4116
-40.428
-41.8883
-42.8441
-44.4569
-44.9001
-42.5292
-45.0354
-46.2381
-47.2166
-44.7504
-52.1972
-50.5568
-45.3618
-51.1907
-43.1712
-42.3417
-41.0552
-44.4616
-40.8067
-39.4124
-40.8637
-38.6688
-50.0441
-50.238
-48.68
-51.385
-64.3704
-57.1265
-58.5197
-40.485
-54.6081
-50.2888
-53.7311
-51.3522
-62.6693
-60.5025
-58.4953
-70.4357
-46.2952
-14.2665
-9.17139
-37.6609
-51.2386
-51.0635
-50.3756
-53.4035
-47.2441
-45.2986
-46.622
-46.0652
-53.7915
-55.988
-52.4815
-59.535
-65.3538
-71.1792
-72.5667
-67.8424
-44.927
-55.141
-53.7627
-50.6078
-45.1749
-46.3311
-47.3254
-44.8743
-40.3478
-42.232
-40.2667
-41.9011
-42.8219
-44.4995
-44.9035
-42.5158
-54.5779
-49.2267
-52.4501
-52.1519
-51.2216
-50.5495
-49.2198
-51.8164
-43.8716
-41.3763
-41.3817
-45.1344
-40.3142
-39.2616
-40.7277
-38.0506
-64.1996
-57.2412
-58.5981
-40.4984
-45.874
-14.2025
-8.85464
-37.5715
-54.7324
-50.4222
-53.9456
-51.4153
-62.8375
-60.5926
-58.6225
-70.6469
-51.2962
-51.131
-50.3711
-53.4393
-65.334
-71.1887
-72.6063
-67.8796
-47.5015
-45.4078
-46.7028
-46.1247
-53.8988
-56.0266
-52.6335
-59.5675
-108.985
-88.505
-102.727
-98.8475
179.369
195.54
185.327
185.462
-106.07
-89.5294
-97.0192
-97.1145
153.118
184.183
166.225
164.295
-65.4867
-65.99
-71.6528
-61.5116
-66.4323
-68.7674
-73.3822
-63.0935
-51.8372
-53.2193
-53.1812
-51.2054
-46.3691
-46.2325
-47.1652
-45.2499
-51.0589
-49.7417
-49.8874
-51.0809
-49.7098
-49.4655
-49.6863
-49.6446
-52.3472
-52.7272
-51.6743
-53.833
-50.2273
-51.5072
-51.9372
-51.2702
-38.5087
-21.9944
-30.9705
-30.9944
102.138
174.286
124.643
129.216
-62.8302
-65.7025
-59.8245
-68.9854
-17.1476
-6.51142
-16.8129
-5.08174
-39.3806
-39.7877
-39.3347
-39.345
-40.951
-43.7191
-43.2419
-43.1526
-48.8768
-49.4898
-49.2436
-48.5965
-45.8864
-44.1949
-47.0428
-43.0657
-109.757
-88.9105
-103.245
-99.4643
179.23
195.262
185.603
184.257
-65.6862
-66.2732
-71.9207
-61.8245
-66.7733
-68.9705
-73.6873
-63.3656
-51.7635
-53.0639
-51.1116
-53.0083
-46.4508
-46.3287
-47.17
-45.3665
-52.1867
-52.661
-51.6789
-53.5942
-51.8983
-51.7366
-52.1845
-51.367
-63.1951
-66.0503
-69.3198
-60.0507
-17.1957
-6.48053
-5.16071
-16.7432
-48.9526
-49.5224
-48.6535
-49.2469
-45.897
-44.1789
-43.0984
-47.0504
-41.6146
-43.468
-42.4682
-41.9098
-43.3613
-44.6265
-43.6899
-44.6863
-49.3548
-55.2655
-51.5864
-51.2269
-45.2895
-45.4398
-44.2347
-46.4725
-51.2647
-57.1058
-53.5383
-53.4947
-44.8539
-44.5148
-44.5356
-44.5542
-43.161
-43.8932
-42.8874
-44.729
-40.8602
-47.3566
-43.5287
-46.6712
-49.1392
-47.919
-49.7886
-49.7381
-56.4306
-54.4058
-55.8212
-55.4758
-52.3151
-48.591
-49.4528
-49.6975
-81.2689
-91.7016
-85.7273
-85.3119
27.9481
21.0324
28.2563
27.7337
-56.0103
-79.0317
-67.4047
-67.3562
-86.1758
-94.8216
-90.1103
-90.1169
-58.2084
-51.0849
-54.5625
-54.5672
-41.5691
-43.407
-42.4108
-41.8699
-43.4372
-44.6847
-43.7666
-44.7775
-49.4721
-55.4839
-51.3658
-51.7618
-45.3386
-45.4437
-44.276
-46.506
-43.1864
-43.933
-44.7666
-42.934
-40.8722
-47.8019
-43.9909
-47.0028
-52.1483
-48.5789
-49.6805
-49.4621
-81.1527
-91.691
-85.2313
-85.9122
-125.292
-105.592
-104.947
-90.0087
-53.3988
-47.8331
-57.7747
-52.1814
-54.2487
-52.7174
-54.4905
-52.1699
-96.0587
-85.1684
-89.4092
-79.1382
-125.517
-105.901
-105.598
-90.4096
-96.445
-85.564
-89.8312
-79.4387
-54.354
-52.8065
-54.6613
-52.2948
-53.522
-47.9302
-58.1229
-52.3623
-106.602
-94.656
-97.5058
-87.6531
-107.316
-95.4095
-97.9099
-88.079
-52.3174
-50.0461
-56.3096
-53.1549
-52.1801
-50.017
-55.996
-53.0508
-41.5152
-39.0326
-33.1619
-28.5879
3.31658
14.4593
7.46723
20.6203
3.22043
14.5502
7.37065
20.4125
-41.6259
-39.1536
-33.2655
-28.7015
169.345
151.615
173.06
166.582
107.987
82.6436
145.507
120.674
85.5874
109.899
119.254
146.879
147.784
170.079
165.702
173.637
-41.7914
-42.1863
-42.3923
-43.1126
-41.6545
-41.7572
-41.911
-42.014
-47.2109
-49.3
-46.9889
-49.0221
-51.2555
-53.309
-49.459
-50.6723
-41.7481
-42.1752
-42.3629
-43.1148
-51.3316
-53.3677
-49.5145
-50.7434
-47.2714
-49.6141
-47.039
-48.9638
-41.7531
-41.7713
-41.9916
-42.1447
-43.2203
-43.8731
-43.7712
-44.0971
-43.9617
-43.3305
-44.1536
-43.8357
-48.1338
-46.9916
-49.3717
-46.602
-46.9798
-47.8179
-46.4749
-49.2518
-84.692
-65.0121
-77.8479
-65.389
-71.401
-78.3524
-81.8458
-86.711
-78.2964
-71.6348
-86.7194
-81.8865
-64.9267
-84.6082
-65.3611
-77.9142
-49.534
-41.4076
-50.4236
-47.992
-54.7558
-58.9258
-55.3871
-58.6364
-49.3464
-47.863
-49.6827
-48.9694
-47.5605
-46.2739
-47.6361
-46.4987
-50.9149
-42.4049
-50.9164
-48.5586
-47.6821
-46.3781
-47.6639
-46.5855
-49.3156
-47.8767
-49.6599
-48.9496
-54.2556
-56.8413
-54.6495
-58.1767
-56.434
-56.3318
-54.5185
-56.4267
-54.4334
-56.1051
-53.8047
-55.2819
-51.833
-51.4104
-50.479
-49.8278
-51.2252
-52.3646
-51.3086
-51.2876
-56.6787
-59.2567
-52.5588
-55.1413
-40.0287
-40.6699
-39.8014
-40.7581
-40.065
-40.6963
-39.8231
-40.7766
-56.6972
-59.2789
-52.5713
-55.1546
-49.1689
-49.4902
-49.2438
-49.3715
-49.5218
-49.1738
-49.3912
-49.3039
-40.9416
-43.8953
-42.8796
-44.2509
-43.6582
-40.7494
-44.0808
-42.8406
-118.141
115.554
-152.544
52.4245
-127.703
-115.653
-55.3762
-49.3934
-55.91
-49.7563
-60.4852
-54.0568
-109.159
22.0913
-58.2887
19.2153
-99.6698
-56.5319
-49.4555
-43.2234
-39.6921
-40.4398
-45.9397
-40.616
-152.649
61.689
-124.256
115.707
-127.259
-116.498
-56.139
-49.6909
-55.0387
-49.4611
-60.8697
-52.7661
-58.769
19.3344
-106.448
23.9806
-99.0766
-56.7188
-39.7823
-40.7006
-49.6083
-43.431
-45.9157
-40.6778
-42.3565
-44.7656
-40.8303
-41.6464
-43.3113
-41.525
-44.7844
-43.1564
-54.8424
-57.8399
-41.6551
-44.8095
-41.6498
-41.2072
-47.7523
-53.226
-61.6848
-74.5877
-58.4168
-57.6979
-60.2369
-75.9069
-67.8741
-83.6752
-50.113
-53.7148
-48.8967
-48.5646
-51.1468
-56.9495
-60.1464
-58.2395
-42.1375
-44.699
-44.8483
-43.2259
-40.7226
-41.7203
-43.2008
-41.3835
-53.0159
-54.1711
-48.7571
-57.8124
-41.7954
-45.6063
-41.5599
-39.4458
-61.8298
-74.4615
-67.153
-83.6544
-58.6354
-57.846
-60.3841
-76.1207
-50.186
-53.7566
-60.1217
-58.2738
-49.2168
-48.6559
-51.2338
-56.9689
-119.286
103.644
-130.085
65.7884
-119.73
-115.173
144.122
138.254
-143.192
-40.407
-142.717
-38.7825
-118.626
-118.635
81.2168
80.3564
-75.7438
-73.6203
-57.1764
-55.358
-70.5189
-60.4559
-69.6197
-60.2376
-56.122
-48.0156
-52.6961
-45.7518
-53.0717
-53.5856
-47.0923
-46.0259
-54.4847
-50.1696
-54.5315
-50.1669
-52.0319
-52.0707
-49.8321
-49.8674
-55.1574
-52.5131
-51.6273
-52.4882
-51.1819
-52.8233
-49.5189
-50.1996
-45.0893
2.73817
-45.1977
1.93848
-40.6749
-40.7447
36.7179
35.9309
-73.5033
-45.7055
-59.4943
-36.5553
-60.2844
-67.39
-29.2583
-21.416
-39.7676
-35.6146
-39.7889
-35.7465
-39.58
-39.5893
-36.9139
-36.8436
-47.7264
-46.0994
-50.3933
-53.3196
-48.9703
-49.206
-50.3599
-45.2306
-122.119
105.817
-133.063
67.6915
-119.64
-115.572
143.069
145.923
-75.5741
-73.9574
-57.3069
-56.1223
-70.6902
-60.8208
-70.045
-60.6035
-55.7355
-48.0912
-52.8341
-45.9245
-53.6543
-53.0226
-47.1428
-46.1391
-54.9738
-51.4178
-51.5893
-49.492
-51.1005
-52.5483
-50.275
-51.4012
-73.7825
-45.6975
-59.6616
-36.4742
-67.714
-60.5235
-21.4634
-29.2523
-47.7647
-46.1058
-50.4499
-53.2977
-49.3197
-49.0808
-45.2994
-50.3681
-41.2271
-41.8975
-41.872
-42.9049
-41.1368
-41.2599
-42.0364
-43.0262
-46.8181
-44.9027
-49.9036
-47.9533
-48.7174
-50.4352
-44.0714
-46.4863
-47.8895
-45.7072
-47.9494
-45.7593
-49.6681
-49.6413
-45.2489
-45.2716
-41.1426
-38.6007
-44.4649
-43.9667
-42.1185
-43.858
-39.0237
-42.8097
-49.0656
-51.7698
-49.268
-51.9149
-48.3761
-48.2893
-55.8813
-55.8341
-56.8826
-66.3973
-54.7268
-61.1492
-53.9034
-54.9985
-73.5421
-68.9841
4.15382
-25.8105
4.30562
-25.7649
18.5307
18.5907
-42.7158
-42.7199
-76.0397
-67.4999
-76.0469
-67.5108
-81.5097
-81.5136
-62.7158
-62.7224
-41.1738
-41.91
-41.7935
-42.9723
-41.072
-41.2094
-42.0514
-43.0829
-46.8809
-44.8872
-50.0803
-47.9728
-50.5255
-48.7916
-44.0827
-46.5178
-41.1046
-38.6585
-44.5356
-44.0593
-43.9027
-42.1241
-39.173
-42.9171
-56.9696
-66.5076
-54.7026
-61.202
-54.928
-54.0833
-68.9774
-73.6155
-79.3301
-78.4197
-71.9733
-62.0552
-62.1661
-70.9259
-59.9254
-59.3135
-79.6934
-78.7751
-72.332
-62.3367
-71.2841
-62.3685
-59.5632
-60.1405
-81.4353
-81.502
-74.7885
-64.3759
-74.9256
-64.5023
-60.5098
-60.4555
-15.0369
-15.1137
-10.5676
3.0811
3.05234
-10.5748
12.9833