# vtk DataFile Version 2.0
tet_velo
ASCII
DATASET UNSTRUCTURED_GRID
POINTS 29498 float
-0.809562 0.285 -2.475
-0.795 0.325 2.58458
-0.855 0.682766 -2.355
-0.795 0.724589 2.535
0.809543 0.285 -2.475
0.795 0.325 2.58458
0.855 0.682748 -2.355
0.795 0.724573 2.535
-0.818287 0.284755 -0.788473
-0.85746 0.254061 0.898053
-0.855897 0.717604 -0.725
-0.844548 0.740196 0.905
0.818251 0.284778 -0.788473
0.857536 0.253978 0.898053
0.8559 0.71759 -0.725
0.844548 0.740179 0.905
-1.64353 0.0569678 -3.82947
-1.64546 0.0683868 -2.50289
-1.65551 0.0608261 -0.814901
-1.6759 0.0405378 0.884463
-1.64887 0.0792913 2.57341
-1.63732 0.105374 3.90468
-1.63951 0.119381 5.22727
-1.64646 0.267634 -3.78979
-1.65006 0.28315 -2.46939
-1.65984 0.285319 -0.792396
-1.67939 0.263221 0.889681
-1.632 0.29953 2.56775
-1.62533 0.324552 3.89823
-1.63327 0.338402 5.22266
-1.66664 0.680637 -3.69457
-1.68462 0.694924 -2.37183
-1.68741 0.722429 -0.733373
-1.67639 0.730261 0.901077
-1.63001 0.725862 2.54061
-1.62471 0.749339 3.87343
-1.6333 0.769097 5.20698
-1.68037 1.32601 -3.59424
-1.6891 1.3444 -2.27996
-1.69198 1.37559 -0.659834
-1.68547 1.39827 0.94811
-1.67105 1.40513 2.56883
-1.66116 1.41274 3.88434
-1.65725 1.42546 5.21171
-0.811415 0.0584731 -3.83312
-0.814085 0.0710274 -2.50821
-0.819201 0.0608651 -0.814188
-0.845949 0.0352773 0.891609
-0.82682 0.0925453 2.5859
-0.816447 0.115314 3.91316
-0.817746 0.124958 5.23218
-0.809941 0.267383 -3.79092
-0.804618 0.334999 3.90522
-0.812288 0.343814 5.22636
-0.8255 0.675442 -3.68758
-0.804189 0.751932 3.87231
-0.812258 0.771605 5.20674
-0.83996 1.32222 -3.58733
-0.848106 1.34068 -2.27235
-0.852294 1.37491 -0.655244
-0.851496 1.4005 0.947559
-0.844135 1.40625 2.56489
-0.836237 1.41304 3.88041
-0.832286 1.42583 5.20886
0.837029 0.0584694 -3.83312
0.819796 0.0710293 -2.50821
0.829654 0.060869 -0.814188
0.842016 0.0352233 0.891609
0.802041 0.0925228 2.5859
0.810545 0.115294 3.91316
0.818617 0.124935 5.23218
0.841836 0.267378 -3.79092
0.810675 0.334983 3.90522
0.819455 0.343792 5.22636
0.855133 0.675431 -3.68758
0.810562 0.751913 3.87231
0.819175 0.771584 5.20674
0.843357 1.32221 -3.58733
0.839362 1.34067 -2.27235
0.833534 1.37489 -0.655244
0.822053 1.40048 0.947559
0.81057 1.40623 2.56489
0.811071 1.41302 3.88041
0.81482 1.42581 5.20886
1.66476 0.056958 -3.82947
1.65024 0.0683842 -2.50289
1.66046 0.0608167 -0.814901
1.67534 0.0404609 0.884463
1.63933 0.079232 2.57341
1.63474 0.105326 3.90468
1.64097 0.119333 5.22727
1.66897 0.267622 -3.78979
1.65055 0.283145 -2.46939
1.65882 0.285319 -0.792397
1.68158 0.263138 0.889681
1.63607 0.299476 2.56775
1.6319 0.324508 3.89823
1.64003 0.338356 5.22266
1.68623 0.680617 -3.69457
1.6833 0.694901 -2.37183
1.68382 0.722411 -0.733373
1.67665 0.730214 0.901077
1.63389 0.725811 2.54061
1.63121 0.749295 3.87343
1.63947 0.769051 5.20698
1.68238 1.32599 -3.59424
1.67981 1.34437 -2.27996
1.67373 1.37556 -0.659834
1.65966 1.39823 0.94811
1.6429 1.40509 2.56883
1.63882 1.4127 3.88434
1.64067 1.42542 5.21171
-0.797421 0.483883 -2.38014
-9.50694e-06 0.240289 -2.51971
-0.846786 0.252016 -1.63174
-0.799744 0.524794 2.56453
0 0.364141 2.54544
-0.826698 0.289063 1.74132
0 0.751604 -2.42385
-0.859282 0.704018 -1.54
0 0.601293 2.41171
-0.833559 0.746178 1.72
0.797416 0.483874 -2.38014
0.846769 0.252017 -1.63174
0.788611 0.524787 2.5534
0.826706 0.289051 1.74132
0.859275 0.703993 -1.54
0.833535 0.746137 1.72
-0.818939 0.288342 0.05479
-0.891345 0.501179 -0.756737
-1.78282e-05 0.20105 -0.788473
-0.895001 0.497128 0.901527
3.81982e-05 0.201624 0.898053
-0.849962 0.728639 0.09
1.76753e-06 0.996354 -0.725
3.55614e-08 1.19021 0.905
0.818937 0.288334 0.05479
0.891343 0.501184 -0.756737
0.895002 0.497079 0.901527
0.849965 0.728625 0.09
-0.878319 0.492531 -1.58587
-0.893196 0.499154 0.072395
-0.892491 0.510961 1.73066
-1.36676e-05 0.208123 -1.63174
1.0185e-05 0.201134 0.05479
1.90991e-05 0.252533 1.74132
-4.75347e-06 0.483879 -2.4661
0 0.52479 2.40974
8.83767e-07 0.788209 -1.54
9.01547e-07 1.21232 0.09
1.77807e-08 0.8317 1.72
0.878319 0.492529 -1.58587
0.893162 0.499131 0.072395
0.892459 0.510933 1.73066
-1.22981 0.284075 -2.47219
-0.811823 0.178014 -2.4916
-0.809751 0.276192 -3.13296
-1.2135 0.312265 2.57617
-0.81091 0.208773 2.58524
-0.799809 0.33 3.2449
-1.26981 0.688845 -2.36341
-0.84025 0.679104 -3.02129
-0.851553 1.01172 -2.31367
-1.21251 0.725226 2.53781
-0.799595 0.73826 3.20365
-0.819568 1.06542 2.54995
0.814669 0.178015 -2.4916
0.82569 0.276189 -3.13296
1.23005 0.284072 -2.47219
0.798521 0.208761 2.58524
0.802838 0.329992 3.2449
1.21553 0.312238 2.57617
0.855067 0.679089 -3.02129
0.847181 1.01171 -2.31367
1.26915 0.688825 -2.36341
0.802781 0.738243 3.20365
0.802785 1.0654 2.54995
1.21444 0.725192 2.53781
-1.23906 0.285037 -0.790435
-0.818744 0.17281 -0.801331
-1.26843 0.258641 0.893867
-0.851704 0.144669 0.894831
-1.27165 0.720016 -0.729186
-0.854095 1.04625 -0.690122
-1.26047 0.735228 0.903039
-0.848022 1.07035 0.92628
0.823953 0.172823 -0.801331
1.23854 0.285048 -0.790435
0.849776 0.144601 0.894831
1.26956 0.258558 0.893867
0.844717 1.04624 -0.690122
1.26986 0.72 -0.729186
0.8333 1.07033 0.92628
1.2606 0.735196 0.903039
-1.64449 0.0626773 -3.16618
-1.64499 0.162301 -3.80963
-1.22747 0.0577205 -3.8313
-1.65048 0.0646065 -1.6589
-1.64776 0.175769 -2.48614
-1.22977 0.0697071 -2.50555
-1.6657 0.050682 0.034781
-1.65767 0.173072 -0.803649
-1.23735 0.0608456 -0.814544
-1.66239 0.0599146 1.72894
-1.67765 0.15188 0.887072
-1.26092 0.0379076 0.888036
-1.6431 0.0923324 3.23905
-1.64044 0.189411 2.57058
-1.23785 0.0859183 2.57966
-1.63841 0.112377 4.56598
-1.63132 0.214963 3.90146
-1.22688 0.110344 3.90892
-1.63639 0.228892 5.22497
-1.22863 0.122169 5.22973
-1.64826 0.275392 -3.12959
-1.65655 0.474136 -3.74218
-1.2282 0.267509 -3.79035
-1.65495 0.284234 -1.63089
-1.66734 0.489037 -2.42061
-1.66962 0.27427 0.0486422
-1.67362 0.503874 -0.762885
-1.6557 0.281376 1.72872
-1.67789 0.496741 0.895379
-1.62867 0.312041 3.23299
-1.63101 0.512696 2.55418
-1.6293 0.331477 4.56045
-1.62502 0.536945 3.88583
-1.21497 0.329775 3.90173
-1.63329 0.55375 5.21482
-1.22278 0.341108 5.22451
-1.67563 0.68778 -3.0332
-1.6735 1.00333 -3.64441
-1.24607 0.67804 -3.69108
-1.68601 0.708676 -1.5526
-1.68686 1.01966 -2.32589
-1.6819 0.726345 0.0838522
-1.68969 1.04901 -0.696603
-1.6532 0.728062 1.72085
-1.68093 1.06426 0.924594
-1.62736 0.7376 3.20702
-1.65053 1.0655 2.55472
-1.62901 0.759218 4.5402
-1.64294 1.08104 3.87888
-1.21445 0.750635 3.87287
-1.64528 1.09728 5.20934
-1.22278 0.770351 5.20686
-1.68474 1.33521 -2.9371
-1.26017 1.32412 -3.59078
-1.69054 1.35999 -1.4699
-1.2686 1.34254 -2.27615
-1.68872 1.38693 0.144138
-1.27214 1.37525 -0.657539
-1.67826 1.4017 1.75847
-1.26848 1.39938 0.947835
-1.6661 1.40894 3.22658
-1.25759 1.40569 2.56686
-1.65921 1.4191 4.54803
-1.2487 1.41289 3.88238
-1.24477 1.42565 5.21029
-0.81275 0.0647503 -3.17066
-0.810678 0.162928 -3.81202
0.0128069 0.0584713 -3.83312
-0.816643 0.0659463 -1.6612
0.0028556 0.0710284 -2.50821
-0.832575 0.0480712 0.0387108
0.0052269 0.060867 -0.814188
-0.836385 0.0639113 1.73876
-0.00196647 0.0352503 0.891609
-0.821634 0.10393 3.24953
-0.0123895 0.0925341 2.5859
-0.817096 0.120136 4.57267
-0.810532 0.225157 3.90919
-0.00295085 0.115304 3.91316
-0.815017 0.234386 5.22927
0.000435568 0.124946 5.23218
-0.81772 0.471413 -3.73925
0.0159479 0.26738 -3.79092
-0.808453 0.339406 4.56579
-0.804403 0.543466 3.88876
0.00302862 0.334991 3.90522
-0.812273 0.557709 5.21655
0.00358358 0.343803 5.22636
-0.83273 0.998832 -3.63745
0.0148166 0.675436 -3.68758
-0.808224 0.761768 4.53952
-0.820213 1.08249 3.87636
0.00318654 0.751923 3.87231
-0.822272 1.09872 5.2078
0.00345829 0.771594 5.20674
-0.844033 1.33145 -2.92984
0.00169824 1.32222 -3.58733
-0.8502 1.35779 -1.46379
-0.00437219 1.34067 -2.27235
-0.851895 1.3877 0.146158
-0.00938007 1.3749 -0.655244
-0.847816 1.40337 1.75623
-0.0147216 1.40049 0.947559
-0.840186 1.40964 3.22265
-0.0167825 1.40624 2.56489
-0.834261 1.41944 4.54464
-0.0125829 1.41303 3.88041
-0.00873331 1.42582 5.20886
0.828412 0.0647494 -3.17066
0.839433 0.162924 -3.81202
1.2509 0.0577137 -3.83129
0.824725 0.0659491 -1.6612
1.23502 0.0697068 -2.50555
0.835835 0.0480462 0.0387108
1.24506 0.0608429 -0.814544
0.822029 0.0638731 1.73876
1.25868 0.0378421 0.888036
0.806293 0.103908 3.24953
1.22068 0.0858774 2.57966
0.814581 0.120114 4.57267
0.81061 0.225139 3.90919
1.22264 0.11031 3.90892
0.819036 0.234363 5.22927
1.22979 0.122134 5.22973
0.848485 0.471404 -3.73925
1.25541 0.2675 -3.79035
0.815065 0.339388 4.56579
0.810619 0.543448 3.88876
1.22129 0.329746 3.90173
0.819315 0.557688 5.21655
1.22974 0.341074 5.22451
0.849245 0.99882 -3.63745
1.27068 0.678024 -3.69108
0.814868 0.761748 4.53952
0.810816 1.08247 3.87636
1.22089 0.750604 3.87287
0.816997 1.0987 5.2078
1.22932 0.770317 5.20686
0.841359 1.33144 -2.92984
1.26287 1.3241 -3.59078
0.836448 1.35778 -1.46379
1.25959 1.34252 -2.27615
0.827793 1.38769 0.146158
1.25363 1.37522 -0.657539
0.816311 1.40335 1.75623
1.24085 1.39936 0.947835
0.810821 1.40962 3.22265
1.22674 1.40566 2.56686
0.812945 1.41941 4.54463
1.22495 1.41286 3.88238
1.22774 1.42561 5.21029
1.6575 0.0626711 -3.16618
1.66687 0.16229 -3.80963
1.65535 0.0646005 -1.6589
1.6504 0.175765 -2.48614
1.6679 0.0506388 0.0347809
1.65964 0.173068 -0.803649
1.65734 0.0598465 1.72894
1.67846 0.151799 0.887072
1.63703 0.0922789 3.23905
1.6377 0.189354 2.57058
1.63785 0.112329 4.56598
1.63332 0.214917 3.90146
1.6405 0.228845 5.22497
1.65976 0.275384 -3.12959
1.6776 0.474119 -3.74218
1.65469 0.284232 -1.63089
1.66693 0.489023 -2.42061
1.6702 0.274228 0.0486421
1.67132 0.503865 -0.762885
1.65882 0.281307 1.72872
1.67911 0.496676 0.895379
1.63398 0.311992 3.23299
1.63498 0.512643 2.55418
1.63596 0.331432 4.56045
1.63155 0.536901 3.88583
1.63975 0.553704 5.21482
1.68477 0.687759 -3.0332
1.68431 1.0033 -3.6444
1.68356 0.708656 -1.5526
1.68156 1.01964 -2.32589
1.68023 0.726312 0.0838521
1.67877 1.04898 -0.696603
1.65527 0.728012 1.72085
1.66815 1.06422 0.924593
[...]
POINT_DATA 29498
VECTORS point_vectors float
-4.15588 -3.31747 6.22485
0.132248 0.679552 2.7596
-6.58496 5.00301 10.0723
-0.207745 -0.415638 2.16308
4.17074 -3.32502 6.2443
-0.220792 0.702942 3.0078
6.56565 4.9956 10.0456
0.175673 -0.441672 2.17364
0.0102107 -0.0098995 0.193655
-0.160434 -0.184261 1.39899
-0.0168693 -0.0221803 0.17818
0 0 0
-0.0101196 -0.0098838 0.191956
0.162818 -0.187045 1.4179
0.0170532 -0.0223874 0.179074
0 0 0
-0.407311 -0.0988788 19.8642
-1.10331 -0.415467 20.3119
-0.446111 -0.303138 21.1273
0.0813764 -0.0414243 21.33
0.587866 0.181553 21.1579
0.715361 0.180363 20.82
0.78984 0.0516318 20.4662
-0.43513 -0.052275 19.8201
-1.30115 -0.29368 20.298
-0.531749 -0.340576 21.1437
0.0966159 -0.0852432 21.3753
0.699141 0.0676865 21.1944
0.795478 0.0154697 20.7385
0.558304 -0.0726067 20.9655
-0.490599 0.0439381 19.8155
-1.34687 0.0671484 20.3514
-0.785066 -0.252646 21.134
0.0282535 -0.177819 21.446
0.710599 -0.171584 21.228
0.942976 -0.169348 20.8934
0.489109 -0.214421 20.6866
-0.429014 0.216963 19.9157
-0.911673 0.436272 20.3721
-0.777623 0.193373 21.0659
-0.0856276 -0.101136 21.3733
0.387531 -0.334003 21.0803
0.515881 -0.343881 20.8106
0.3704 -0.354327 20.4573
-0.374696 -0.203162 19.4531
-3.0527 -3.88438 19.9138
0.0767788 -0.18985 16.4087
0.38438 0.0697792 16.9852
0.753024 1.05384 16.1592
1.00759 1.16824 16.1596
0.599826 0.816162 17.5408
-0.435567 -0.137107 19.3432
1.3283 1.15728 13.4922
0.894835 0.488822 15.2409
-0.531766 0.111872 19.2226
1.92828 -0.284556 10.5364
0.849454 -0.137319 14.6446
-0.43763 0.484347 19.4793
-1.43619 1.8467 20.2146
-2.08841 1.59251 21.1726
-0.188768 -0.10281 21.5802
0.445003 -0.80224 20.5924
0.545674 -0.922236 19.8496
0.333024 -0.543716 20.0537
0.385176 -0.203423 19.4656
3.05764 -3.82519 19.9326
-0.0578457 -0.182768 16.7194
-0.385241 0.0706612 16.9114
-0.691586 1.0616 15.5794
-0.941734 1.14815 16.1783
-0.656224 0.761355 17.4874
0.440156 -0.132613 19.3606
-1.44123 1.02434 13.2342
-1.05584 0.391551 15.5652
0.533817 0.113054 19.2522
-1.84618 -0.312862 11.2892
-0.712041 -0.163126 14.9898
0.438093 0.483118 19.4797
1.43536 1.8714 20.2111
2.11155 1.67698 21.1636
0.176159 -0.11308 21.4771
-0.45975 -0.802685 20.2657
-0.631577 -0.923012 19.9846
-0.240547 -0.496872 20.214
0.404101 -0.091642 19.8729
1.10293 -0.41082 20.3206
0.447209 -0.303532 21.1269
-0.0805206 -0.0409634 21.3281
-0.592109 0.183821 21.163
-0.63263 0.174262 20.8216
-0.791812 0.056378 20.3697
0.433719 -0.0446685 19.8365
1.30051 -0.289152 20.2973
0.534016 -0.341096 21.1463
-0.0978196 -0.0824312 21.38
-0.698809 0.0632618 21.1941
-0.781981 0.0424255 20.6863
-0.776403 -0.120552 20.5365
0.486423 0.0421417 19.823
1.3478 0.0638561 20.3548
0.786068 -0.256201 21.1352
-0.0284033 -0.178411 21.4423
-0.709988 -0.172736 21.2271
-0.806907 -0.199011 20.732
-0.766655 -0.20172 20.5225
0.428321 0.217654 19.9144
0.920984 0.443988 20.3722
0.799171 0.197206 21.0732
0.0860075 -0.103729 21.382
-0.399466 -0.345821 21.0811
-0.485202 -0.388145 20.6767
-0.26647 -0.321405 20.546
0 0 0
0.00541157 -3.07686 5.01831
0.0273691 -0.0326705 1.22897
-0.186018 -0.124308 0.297049
-0.00131809 -0.00698637 0.0299514
0.000835283 0.0986679 0.588174
0.00436052 3.70901 4.90082
-0.221191 -0.247713 1.54893
-0.00232683 0.0581001 -0.0333009
0.206703 0.128258 0.660793
0 0 0
-0.0267649 -0.0325644 1.22158
0.308284 -0.0939603 0.220432
-0.000486111 0.0987039 0.586536
0.220571 -0.247011 1.54776
-0.206239 0.128123 0.661371
-0.00214898 0.00381066 0.140612
0 0 0
4.4602e-09 7.91283e-09 -6.2335e-06
0 0 0
1.29997e-06 0.000553605 0.0154222
0 0 0
0.000239835 0.0451009 0.116637
-2.63046e-06 -0.00189293 0.0326247
0.00219633 0.00380137 0.140802
0 0 0
0 0 0
0 0 0
-6.55536e-05 -6.64438e-05 0.00432508
0 0 0
0 0 0
0 0 0
7.37064e-09 7.1068e-09 -1.58866e-05
0 0 0
0.000380966 0.035661 0.0388476
0 0 0
1.74642e-05 0.000663496 0.0254034
-3.47783e-06 0.000471001 0.0235824
1.64433e-08 2.01575e-06 -1.97492e-05
7.11873e-05 -8.34119e-05 0.00485884
0 0 0
2.79269e-06 -6.98661e-06 -0.000118122
-2.62102 -0.912599 20.1845
-4.87041 -5.75576 19.8248
-1.32223 -0.644791 18.3545
1.18144 0.421043 20.2165
0.621329 1.05195 10.6938
1.12567 1.02942 10.2214
-2.76956 0.337353 20.3325
-1.72016 0.537661 18.0529
-2.85594 2.97334 20.3382
1.21381 -0.168036 19.6719
1.33062 -0.186977 8.13555
1.19075 -0.315815 14.0663
4.86762 -5.65512 19.8194
1.32247 -0.626028 18.3917
2.62163 -0.914365 20.1802
-0.546352 1.08574 10.2568
-1.1393 1.04708 10.3995
-1.18772 0.41912 20.2354
1.73039 0.531966 18.1039
2.85647 3.00591 20.3396
2.77361 0.337294 20.3351
-1.34219 -0.166757 8.35629
-1.20232 -0.298949 13.6129
-1.21524 -0.176791 19.7092
-0.3973 -0.718783 21.0808
0.436011 -0.291854 8.4388
0.235361 -0.0431477 21.0542
0.634456 -0.392934 12.1837
-1.30163 -0.65134 21.1815
-3.77397 0.759733 17.4468
0.152248 -0.315223 20.5481
0.690539 0.804524 11.6919
-0.437137 -0.288437 8.70122
0.396943 -0.719143 21.0781
-0.644823 -0.393665 12.0954
-0.234638 -0.0455595 21.0717
3.85887 0.762664 17.091
1.30353 -0.661005 21.1663
-0.749024 0.879828 10.8581
-0.154109 -0.314562 20.5562
-0.760908 -0.243952 19.9076
-0.422133 -0.0808554 19.8438
-0.424574 -0.148877 19.6791
-0.784907 -0.353485 20.9148
-1.1945 -0.362452 20.3084
-1.94765 -1.11917 20.2659
-0.156973 -0.183223 21.2653
-0.478455 -0.320665 21.138
-0.307229 -0.419715 21.3177
0.336744 0.0801247 21.2892
0.0852481 -0.0532166 21.3369
0.18751 0.0542799 21.3973
0.687239 0.206838 20.9436
0.648483 0.131168 21.1745
0.891222 0.523373 21.0083
0.509427 0.00956144 20.5888
0.801072 0.0881425 20.8089
1.08216 0.408367 20.5576
0.674072 -0.0104874 20.7159
0.618246 0.534757 20.6737
-0.84503 -0.157994 19.8611
-0.475414 -0.00175394 19.814
-0.480324 -0.0972705 19.5951
-0.899773 -0.328527 20.9385
-1.33819 -0.102162 20.3082
-0.19588 -0.235679 21.3141
-0.665009 -0.313537 21.139
0.407278 0.0209494 21.3436
0.0688958 -0.140156 21.4206
0.800719 0.085322 20.9314
0.732286 -0.0529805 21.2279
0.795998 -0.0559222 21.0337
0.781799 -0.0457778 20.7045
1.33982 0.316579 19.9598
0.490888 -0.153991 21.1531
0.510142 0.293675 20.6918
-0.932548 0.0745536 19.8755
-0.475109 0.154106 19.8446
-0.565194 0.0737332 19.5523
-1.04046 -0.112592 20.8919
-1.16149 0.311532 20.3705
-0.391344 -0.25129 21.3768
-0.850969 -0.0288721 21.1097
0.401765 -0.15391 21.3795
-0.0443532 -0.162318 21.4154
0.781809 -0.190309 20.9455
0.555958 -0.297162 21.1506
0.818345 -0.189741 21.08
0.655089 -0.3151 20.757
1.37838 -0.266276 19.6811
0.506261 -0.305679 20.067
0.464502 -0.337046 20.1904
-0.701385 0.359221 20.0257
-0.487986 0.336584 19.7199
-0.876561 0.324422 20.7542
-1.29021 0.881869 20.3175
-0.465361 0.055082 21.3237
-1.33992 0.498609 21.1655
0.211576 -0.221798 21.2665
-0.165751 -0.129042 21.6166
0.448001 -0.382955 21.0579
0.469801 -0.536104 21.1802
0.348474 -0.279165 20.6045
0.453565 -0.610411 20.8591
0.410696 -0.50164 20.1407
-1.03936 -0.854262 18.8537
-0.405168 -0.177926 19.3983
0.00440362 -0.338236 19.1739
-0.86266 -0.598649 19.3496
-0.0054616 -6.56685 20.4504
0.17436 -0.0107657 16.4383
0.00399873 -0.121178 11.2603
0.510837 0.554216 16.3537
0.00147455 0.0831626 11.2893
0.962354 1.25105 17.0351
-0.00570376 0.556391 9.88092
0.925733 0.651617 17.2023
1.20824 1.20732 14.1342
-0.0162295 1.06809 10.6417
0.90325 0.648554 15.4538
0.0178197 0.516341 12.9122
-0.490048 -0.0209131 19.2744
0.00878625 -0.20149 19.0421
1.44313 0.445714 12.3632
1.65402 0.426667 11.9087
-0.027594 0.42487 2.91189
0.872144 0.175752 14.9427
0.012447 0.169341 11.5476
-0.498229 0.333091 19.3305
0.00916126 0.151427 18.8319
1.40757 -0.114661 12.5729
1.18177 -0.79155 16.5985
0.0986818 -0.638157 -0.165433
0.398681 -0.56554 18.0535
0.0185073 -0.513184 8.91187
-0.952145 1.22355 19.366
0.000889703 0.620981 19.2266
-1.46119 1.32847 20.6795
-0.00913615 3.0349 20.1991
-1.14431 0.584742 22.0669
-0.0390565 4.48364 20.3743
0.297496 -0.594296 20.886
0.00197505 -0.206424 16.9087
0.573457 -0.962202 20.5961
0.00395105 -0.716791 15.9664
0.39935 -0.682472 20.9017
0.129628 -0.860691 17.8398
0.0282575 -0.597307 14.2322
1.04944 -0.838168 18.8796
0.416923 -0.178715 19.4087
0.422603 -0.144052 19.6919
0.884467 -0.592699 19.5519
1.93378 -1.10537 20.2584
-0.17074 -0.00858018 16.4817
0.317537 -0.424874 21.3076
-0.502992 0.547441 16.0619
-0.1839 0.0549589 21.3905
-0.911174 1.25743 16.7265
-0.906208 0.553677 20.9389
-0.827767 0.667035 16.2514
-1.20015 1.17441 14.0571
-0.96441 0.531337 20.8497
-0.877907 0.622636 15.7297
-0.558591 0.562876 20.8582
0.493123 -0.0202109 19.3038
0.48119 -0.0946074 19.6137
-1.20152 0.545758 13.5364
-1.68028 0.342612 12.1673
-1.34271 0.350216 19.8581
-1.21825 0.00409355 15.2264
-0.773878 0.210799 20.7221
0.502135 0.330149 19.3425
0.565439 0.0723664 19.5774
-1.37709 -0.184427 12.7481
-1.20547 -0.771886 16.5343
-1.33366 -0.310784 19.8542
-0.142738 -0.504881 18.3165
-0.461146 -0.357447 20.2261
0.951773 1.22657 19.3621
0.488275 0.334694 19.7222
1.4595 1.35256 20.6767
1.29506 0.896221 20.3178
1.1595 0.617968 22.0941
1.36804 0.523257 21.1677
-0.330971 -0.601599 20.5021
0.170884 -0.127692 21.6401
-0.547442 -0.972704 20.4043
-0.468102 -0.555982 21.1922
-0.510871 -0.701419 20.6212
-0.519926 -0.580217 20.8626
-0.247125 -0.458179 20.3312
0.757728 -0.233953 19.9088
0.422476 -0.0740169 19.8576
0.785257 -0.348188 20.91
1.19165 -0.35771 20.3122
0.154617 -0.180604 21.2685
0.481446 -0.320485 21.1391
-0.340267 0.0822103 21.2943
-0.0829125 -0.0530991 21.3366
-0.698353 0.188772 20.9781
-0.65139 0.128148 21.1757
-0.617466 0.0790777 20.561
-0.727931 0.132632 20.7405
-0.784107 -0.0320868 20.4531
0.836547 -0.150728 19.8728
0.469183 0.000599004 19.8249
0.898266 -0.324191 20.939
1.33711 -0.102862 20.3102
0.196582 -0.234977 21.313
0.665476 -0.318434 21.1418
-0.405338 0.0212018 21.3414
-0.0704312 -0.139256 21.4217
-0.8061 0.0765123 21.0049
-0.734982 -0.0549941 21.234
-0.548816 -0.000512865 20.9765
-0.787168 -0.106422 20.7273
-0.752368 -0.211439 20.5846
0.924119 0.0713754 19.885
0.472715 0.152142 19.8491
1.04112 -0.117297 20.8929
1.16879 0.314504 20.371
0.389456 -0.254787 21.3792
0.866261 -0.0280863 21.1146
-0.403203 -0.155243 21.3776
0.0427428 -0.166156 21.421
-0.810157 -0.184946 21.0255
-0.562446 -0.30513 21.1572
-0.58598 -0.197225 20.8715
-0.662125 -0.349743 20.7579
-0.766255 -0.201881 20.3863
0.701254 0.361607 20.0277
0.888553 0.328291 20.757
0.478613 0.0523693 21.335
-0.214741 -0.232669 21.272
-0.464713 -0.371665 21.0171
-0.353297 -0.252757 20.6239
-0.808082 -0.208475 19.8807
-1.18777 -0.753312 18.5591
-0.999638 -0.463855 19.5141
-1.17946 -0.320232 19.3605
-0.452293 -0.134827 19.6418
-2.26595 -1.08684 20.22
-0.837229 -0.342285 20.9274
0.0657386 -0.239697 10.2336
-0.911245 -0.618776 21.2574
-1.01556 -0.748005 21.3757
-0.298815 -0.552238 21.3284
-0.170058 -0.200544 21.2792
0.167488 0.0249926 9.81681
-0.00953636 -0.167702 21.393
0.01234 -0.35653 20.9024
0.224611 0.00578708 21.2646
0.371926 0.0586463 21.3043
0.23299 0.586993 9.66538
0.530473 0.305622 21.2844
0.682864 0.247043 20.5317
1.04507 0.490517 20.7767
0.751614 0.157913 20.9353
1.0769 1.27739 13.5824
1.01977 0.588077 20.7667
1.38313 0.436407 19.9906
1.21301 0.354574 20.39
0.652713 -0.0231804 20.8113
1.2949 0.541987 14.5133
0.795319 0.347816 21.7728
1.08911 0.211452 19.3379
0.523452 0.452481 20.8279
-0.943128 -0.035515 19.8497
-1.61871 -0.115192 17.9936
-1.40986 0.212089 19.3067
-0.528789 -0.0115714 19.5647
-3.06465 -0.395148 20.3256
-0.987981 -0.236676 20.9355
-1.55848 -0.253628 21.2061
-0.877493 -0.814579 21.0596
-0.296183 -0.269032 21.3703
-0.490864 -0.622627 20.9636
0.233238 -0.181709 20.5627
0.408157 -0.0714028 21.3796
0.751881 -0.107397 20.0064
1.25631 0.17727 19.3892
0.816398 -0.0494116 20.9458
1.08955 0.38066 6.06868
1.36885 -0.272444 19.8192
1.37146 0.0679334 19.9686
0.931845 -0.151605 21.2722
1.63866 0.217866 9.8448
1.05905 -0.351497 19.461
0.487322 -0.0216857 20.4411
-0.84569 0.261509 19.9319
-1.40095 1.15044 18.7172
-0.932011 0.668578 19.7765
-0.541061 0.230234 19.6173
-1.98088 0.884194 20.332
-1.04475 0.136265 20.831
-2.37574 1.01824 20.5421
-1.25492 0.604706 20.7631
-1.663 -0.0147994 21.2574
-0.490306 -0.121531 21.3678
-0.59605 0.232737 12.9829
-0.781205 0.154907 21.6126
-0.124895 -0.285115 21.5966
0.310259 -0.223715 21.3266
1.29133 0.150684 12.8143
0.27014 -0.373668 21.421
0.755287 -0.604111 21.054
0.666985 -0.323997 20.9345
1.27056 -0.682313 15.6113
0.568189 -0.622743 21.0283
0.862504 -0.569471 20.5993
0.581805 -0.235302 20.8333
0.867877 -0.549726 18.1231
0.457871 -0.464638 20.6095
0.478534 -0.489625 19.6657
1.1981 -0.73897 18.5818
0.0101046 -1.37037 18.0136
0.0164905 -1.0939 17.1273
0.00650528 -0.275519 19.1222
-0.0113113 -7.84899 19.3747
-0.045433 -0.237006 10.4426
0.00601763 -0.606157 14.9373
0.00137168 -0.00931318 3.76116
-0.16844 0.0261834 9.89448
0.000648487 -0.0555524 10.837
0.00163352 0.0771936 5.17267
-0.212289 0.578622 9.39655
0.00476657 0.349879 10.18
-0.0186475 0.295236 3.80303
-1.0701 1.27186 13.4098
-0.0133069 0.752172 10.563
-0.0184902 0.0425929 0.272733
-0.000438547 0.864584 6.59616
-0.994807 0.662909 14.5023
-0.215893 1.01151 13.1256
0.0370765 0.744023 7.99379
0.0151334 0.342841 12.2299
1.62549 -0.115596 18.0481
0.0250117 1.02539 16.3574
0.0106798 -0.0328411 18.8481
-1.1123 0.40602 6.18474
-0.0205508 -0.492648 -2.19149
-0.0265179 -0.847304 -2.53005
-1.47979 0.267186 12.1861
0.0276618 -0.572745 5.48221
0.0154772 -0.171922 10.2297
1.40338 1.13639 18.7271
-0.00209214 1.8825 18.8692
0.00448587 0.483594 18.9501
-0.00773917 5.17143 20.5331
2.37976 1.05335 20.5239
-0.0147011 2.15881 20.4659
-0.0456546 3.99974 9.68678
0.447232 0.349111 12.1819
-0.0164551 1.20411 19.6105
3.61002e-21 1.61028e-18 -2.03769e-17
-1.30373 0.158046 12.1779
-0.000391664 -0.561513 15.5994
-0.0173424 0.353954 1.0768
-1.24689 -0.681555 15.3551
-0.00402082 -1.11048 17.1721
-0.10934 -1.36743 7.68974
-1.05667 -0.670901 17.5279
-0.0999066 -1.03942 18.0888
0.0376223 -0.881088 9.58356
0.803162 -0.198292 19.8911
0.993557 -0.455565 19.5249
1.17492 -0.316793 19.3794
0.450184 -0.127902 19.6545
2.25557 -1.07545 20.2129
0.839287 -0.33649 20.9255
0.914546 -0.618378 21.2459
1.0156 -0.74683 21.3739
0.307692 -0.554361 21.3259
0.169881 -0.198959 21.2806
0.0141434 -0.169936 21.3899
-0.011796 -0.35717 20.9084
-0.222771 0.00577426 21.2572
-0.373339 0.0605148 21.3083
-0.533579 0.315221 21.2636
-0.681659 0.242705 20.5499
-1.05816 0.506067 20.7301
-0.763477 0.138462 20.9878
-1.05576 0.586977 20.6852
-1.3787 0.416859 20.093
-1.12903 0.485342 20.6424
-0.583141 0.0392824 20.7688
-0.786742 0.451537 20.8923
-1.09172 0.28684 19.5034
-0.59241 0.442928 20.8869
0.935817 -0.0321283 19.8611
1.38955 0.205653 19.3357
0.528559 -0.0127528 19.5897
3.06531 -0.393706 20.3261
0.986595 -0.237752 20.9351
1.55779 -0.255199 21.2097
0.874035 -0.814811 21.0307
0.294268 -0.270009 21.3714
0.488421 -0.624661 20.9528
-0.234831 -0.181958 20.5893
-0.407601 -0.0724089 21.3777
-0.751619 -0.10973 20.0317
-1.26448 0.175543 19.3853
-0.834542 -0.0518453 21.01
-1.37549 -0.269012 19.8967
-1.36518 0.0441441 19.9104
-0.524823 -0.0977946 21.0826
-1.0347 -0.303231 19.8301
-0.957253 -0.185232 20.4222
0.843448 0.259818 19.9338
0.932493 0.669768 19.7737
0.54247 0.224404 19.6293
1.9955 0.897848 20.3306
1.05233 0.137437 20.8319
1.26632 0.624947 20.7619
1.6998 -0.00145715 21.2635
0.496485 -0.125138 21.3749
0.801263 0.168485 21.6326
0.130673 -0.288016 21.5679
-0.315523 -0.228861 21.3314
-0.272475 -0.387438 21.4342
-0.771158 -0.608461 20.9585
-0.665083 -0.330964 20.9266
-0.561652 -0.644591 21.0173
-0.849573 -0.558084 20.4857
-0.517946 -0.308023 20.727
-0.50814 -0.499401 20.3781
-0.350411 -0.401795 20.0662
-1.08651 -0.41878 19.4306
-0.913571 -0.65245 21.3231
0.030287 -0.251253 21.2933
0.619811 0.280207 21.0215
1.206 0.517305 20.6032
0.94096 0.307739 21.4884
-1.37899 -0.0817371 19.2668
-1.38835 -0.657144 21.4127
-0.202659 -0.551746 20.7284
0.728075 0.0864108 20.0286
1.45381 0.104681 19.6202
1.29046 -0.0130979 16.7618
-1.23262 0.557964 19.5251
-1.5679 0.268314 20.8951
-0.898092 -0.225495 21.6947
0.465787 -0.429971 21.2991
0.906748 -0.643923 20.6486
0.789798 -0.476934 20.1907
0.0121829 -1.23215 17.5299
0.00458735 -0.156333 5.39489
0.000464779 -0.00513024 4.1568
0.00254075 0.213322 4.39442
-0.0279376 0.495721 5.28255
-0.0894089 0.877767 10.5597
0.0172515 -0.112839 16.3825
0.068061 -0.58182 -3.52173
0.175359 0.301094 4.17344
0.00728273 2.11918 17.6697
-0.00559628 1.90008 18.9693
0 0 0
-0.00310914 0.141394 0.422793
-0.021757 -0.692494 4.70771
-0.135028 -1.53894 8.9112
1.08262 -0.408421 19.4439
0.919233 -0.649485 21.3135
-0.0263671 -0.253806 21.2963
-0.622608 0.283947 20.9968
-1.2194 0.50995 20.6092
-0.918616 0.409998 20.2812
1.35898 -0.0779299 19.2986
1.38446 -0.657209 21.4141
0.200747 -0.550472 20.7323
-0.728343 0.0830743 20.0573
-1.46205 0.0947975 19.7328
-1.14522 0.0176928 19.323
1.23082 0.550149 19.5354
1.58169 0.271012 20.8939
0.915185 -0.224388 21.6981
-0.470951 -0.439143 21.2877
-0.917621 -0.645415 20.5818
-0.978426 -0.685107 19.6699
-4.93328 -1.90238 7.94775
-0.335123 -2.76008 3.51433
-0.15618 -0.161064 2.22588
-0.023278 -0.0711838 0.22047
-0.104794 -0.0792784 -0.0298597
0.0810292 0.0269635 1.21271
-2.08218 0.465256 1.31117
-0.474513 2.57883 1.06855
-0.229946 -0.111659 1.71969
-0.136464 -0.115148 0.643092
-0.014346 0.0045738 -0.00268987
0.317254 0.154145 1.65853
0.332507 -2.76388 3.52481
4.92991 -1.90039 7.94471
0.164228 -0.167338 2.27068
0.106187 -0.0831048 -0.031179
-0.0206569 -0.0395768 0.328154
-0.0790932 0.0282888 1.21363
0.473642 2.58953 1.07908
2.07944 0.462759 1.30771
0.231518 -0.113063 1.71898
0.0146557 0.00515398 -0.00299922
0.188395 -0.117843 0.668141
-0.313216 0.150585 1.66174
0 0 0
0.00179813 -0.000610496 0.193312
0.00075241 -0.00249077 0.068065
0 0 0
0.0143656 0.0201966 0.825278
-0.00241024 0.00520916 0.153752
-0.017676 0.0276097 0.21684
0.000931807 0.00104295 0.0286343
-0.323568 -0.282716 0.827688
-0.000691435 -0.00344307 0.038026
0.000966669 0.00233525 0.0111234
-0.0809919 0.00746257 0.0494713
0.0733053 0.0952823 0.292379
0.00265448 0.0195802 0.0835319
-1.31359e-17 -3.18213e-17 -1.12879e-16
0.0285106 -0.00714367 0.211223
-7.35775e-18 -5.71843e-19 1.56169e-17
0 0 0
-0.00175044 -0.000637578 0.192355
-0.000766609 -0.00252687 0.0673178
-0.0143105 0.0202292 0.833012
-0.00107416 0.00114978 0.0318041
0.00238575 0.0051305 0.15246
0.0175853 0.0274365 0.215829
0.323971 -0.28345 0.830429
0.0816427 0.00760226 0.0500902
0.000692607 -0.0034532 0.0380164
-0.00109955 0.00265403 0.01259
-0.0733497 0.0952731 0.293162
-0.028167 -0.00703577 0.208951
-0.00266624 0.0196 0.0838102
0 0 0
-0.000189355 0.000490091 0.00273785
-0.278757 0.316162 0.461692
2.42896e-05 -0.0018519 0.0512139
0.0130817 -0.252139 0.0759746
-0.00015579 0.00160805 0.0698563
0.00216574 -0.00134139 0.0291719
0.00341841 0.00760084 0.0812312
0 0 0
0 0 0
0 0 0
0 0 0
0 0 0
0.000125035 1.97592 0.516989
1.77678e-06 5.04457e-05 0.00125186
2.13322e-06 1.12923e-05 -7.03491e-05
-0.00151054 6.11903e-05 0.000807818
-0.00409459 0.038444 -0.0206555
-2.37414e-05 0.000882248 -0.00757121
0.00473031 0.0161891 0.101796
2.12653e-06 2.9915e-06 -3.44265e-05
0.274771 0.306082 0.453357
0.000209557 0.000548575 0.00351398
-0.00212111 -0.00131348 0.0287964
0.000102658 0.00136387 0.0684712
0 0 0
-0.00356677 0.00777497 0.0847994
0 0 0
0 0 0
0.00151067 6.01911e-05 0.000776854
-1.17578e-06 6.24493e-06 -3.90113e-05
-1.99243e-06 2.83872e-06 -3.26559e-05
-0.00473111 0.0161279 0.101954
-0.00199536 0.00679802 0.0611379
0 0 0
0 0 0
0 0 0
0 0 0
-1.12615e-08 2.02028e-08 -2.87006e-05
0 0 0
0 0 0
-3.38086e-08 6.79832e-09 3.10525e-05
-2.12096e-07 8.97127e-05 0.00176268
0.00198814 0.0138202 0.0651697
0.0490585 0.0187061 0.655779
0.000125295 -0.000960509 -0.00477117
1.64716e-06 0.0025916 0.0251459
-2.54142e-06 -0.000158394 0.0161433
-3.03208e-06 0.0042326 -0.00461671
0 0 0
0.00197514 0.00673323 0.0605588
0 0 0
0 0 0
0 0 0
0 0 0
-0.0495166 0.018842 0.656662
-0.001973 0.0136447 0.0642073
-0.0129452 0.0733329 0.260465
0 0 0
0.0140865 -0.0489424 0.177164
-0.0013666 -0.00764169 0.0295413
-0.00364923 0.0125379 0.210715
0.00139315 0.0117074 0.0886725
-0.00898332 0.0318786 0.26055
0.00218301 0.0165867 0.0723286
0 0 0
0.000454341 0.00268292 0.0127097