# vtk DataFile Version 2.0
tri_press
ASCII
DATASET UNSTRUCTURED_GRID
POINTS 3682 float
-0.809562 0.285 -2.475
-0.795 0.325 2.58458
-0.855 0.682766 -2.355
-0.795 0.724589 2.535
0.809543 0.285 -2.475
0.795 0.325 2.58458
0.855 0.682748 -2.355
0.795 0.724573 2.535
-0.818287 0.284755 -0.788473
-0.85746 0.254061 0.898053
-0.855897 0.717604 -0.725
-0.844548 0.740196 0.905
0.818251 0.284778 -0.788473
0.857536 0.253978 0.898053
0.8559 0.71759 -0.725
0.844548 0.740179 0.905
-1.64353 0.0569678 -3.82947
-1.64546 0.0683868 -2.50289
-1.65551 0.0608261 -0.814901
-1.6759 0.0405378 0.884463
-1.64887 0.0792913 2.57341
-1.63732 0.105374 3.90468
-1.63951 0.119381 5.22727
-1.64646 0.267634 -3.78979
-1.65006 0.28315 -2.46939
-1.65984 0.285319 -0.792396
-1.67939 0.263221 0.889681
-1.632 0.29953 2.56775
-1.62533 0.324552 3.89823
-1.63327 0.338402 5.22266
-1.66664 0.680637 -3.69457
-1.68462 0.694924 -2.37183
-1.68741 0.722429 -0.733373
-1.67639 0.730261 0.901077
-1.63001 0.725862 2.54061
-1.62471 0.749339 3.87343
-1.6333 0.769097 5.20698
-1.68037 1.32601 -3.59424
-1.6891 1.3444 -2.27996
-1.69198 1.37559 -0.659834
-1.68547 1.39827 0.94811
-1.67105 1.40513 2.56883
-1.66116 1.41274 3.88434
-1.65725 1.42546 5.21171
-0.811415 0.0584731 -3.83312
-0.814085 0.0710274 -2.50821
-0.819201 0.0608651 -0.814188
-0.845949 0.0352773 0.891609
-0.82682 0.0925453 2.5859
-0.816447 0.115314 3.91316
-0.817746 0.124958 5.23218
-0.809941 0.267383 -3.79092
-0.804618 0.334999 3.90522
-0.812288 0.343814 5.22636
-0.8255 0.675442 -3.68758
-0.804189 0.751932 3.87231
-0.812258 0.771605 5.20674
-0.83996 1.32222 -3.58733
-0.848106 1.34068 -2.27235
-0.852294 1.37491 -0.655244
-0.851496 1.4005 0.947559
-0.844135 1.40625 2.56489
-0.836237 1.41304 3.88041
-0.832286 1.42583 5.20886
0.837029 0.0584694 -3.83312
0.819796 0.0710293 -2.50821
0.829654 0.060869 -0.814188
0.842016 0.0352233 0.891609
0.802041 0.0925228 2.5859
0.810545 0.115294 3.91316
0.818617 0.124935 5.23218
0.841836 0.267378 -3.79092
0.810675 0.334983 3.90522
0.819455 0.343792 5.22636
0.855133 0.675431 -3.68758
0.810562 0.751913 3.87231
0.819175 0.771584 5.20674
0.843357 1.32221 -3.58733
0.839362 1.34067 -2.27235
0.833534 1.37489 -0.655244
0.822053 1.40048 0.947559
0.81057 1.40623 2.56489
0.811071 1.41302 3.88041
0.81482 1.42581 5.20886
1.66476 0.056958 -3.82947
1.65024 0.0683842 -2.50289
1.66046 0.0608167 -0.814901
1.67534 0.0404609 0.884463
1.63933 0.079232 2.57341
1.63474 0.105326 3.90468
1.64097 0.119333 5.22727
1.66897 0.267622 -3.78979
1.65055 0.283145 -2.46939
1.65882 0.285319 -0.792397
1.68158 0.263138 0.889681
1.63607 0.299476 2.56775
1.6319 0.324508 3.89823
1.64003 0.338356 5.22266
1.68623 0.680617 -3.69457
1.6833 0.694901 -2.37183
1.68382 0.722411 -0.733373
1.67665 0.730214 0.901077
1.63389 0.725811 2.54061
1.63121 0.749295 3.87343
1.63947 0.769051 5.20698
1.68238 1.32599 -3.59424
1.67981 1.34437 -2.27996
1.67373 1.37556 -0.659834
1.65966 1.39823 0.94811
1.6429 1.40509 2.56883
1.63882 1.4127 3.88434
1.64067 1.42542 5.21171
-0.797421 0.483883 -2.38014
-9.50694e-06 0.240289 -2.51971
-0.846786 0.252016 -1.63174
-0.799744 0.524794 2.56453
0 0.364141 2.54544
-0.826698 0.289063 1.74132
0 0.751604 -2.42385
-0.859282 0.704018 -1.54
0 0.601293 2.41171
-0.833559 0.746178 1.72
0.797416 0.483874 -2.38014
0.846769 0.252017 -1.63174
0.788611 0.524787 2.5534
0.826706 0.289051 1.74132
0.859275 0.703993 -1.54
0.833535 0.746137 1.72
-0.818939 0.288342 0.05479
-0.891345 0.501179 -0.756737
-1.78282e-05 0.20105 -0.788473
-0.895001 0.497128 0.901527
3.81982e-05 0.201624 0.898053
-0.849962 0.728639 0.09
1.76753e-06 0.996354 -0.725
3.55614e-08 1.19021 0.905
0.818937 0.288334 0.05479
0.891343 0.501184 -0.756737
0.895002 0.497079 0.901527
0.849965 0.728625 0.09
-0.878319 0.492531 -1.58587
0.878319 0.492529 -1.58587
-1.36676e-05 0.208123 -1.63174
8.83767e-07 0.788209 -1.54
-4.75347e-06 0.483879 -2.4661
-0.893196 0.499154 0.072395
0.893162 0.499131 0.072395
1.0185e-05 0.201134 0.05479
9.01547e-07 1.21232 0.09
-0.892491 0.510961 1.73066
0.892459 0.510933 1.73066
1.90991e-05 0.252533 1.74132
1.77807e-08 0.8317 1.72
0 0.52479 2.40974
-0.859405 0.384442 -2.48348
-0.404786 0.255193 -2.50481
-0.844937 0.251745 -2.05337
-0.798269 0.424897 2.57545
-0.3975 0.372816 2.53676
-0.821754 0.296126 2.16295
-0.823607 0.583325 -2.36497
-0.4275 0.693745 -2.36598
-0.859606 0.695857 -1.9475
-0.80102 0.624692 2.55341
-0.3975 0.589554 2.39997
-0.824886 0.74599 2.1275
0.404767 0.255242 -2.50476
0.859374 0.384437 -2.48347
0.844913 0.251751 -2.05337
0.3975 0.372817 2.53676
0.798094 0.424893 2.57528
0.821754 0.296125 2.16295
0.4275 0.693806 -2.36605
0.823603 0.583311 -2.36497
0.859614 0.695848 -1.9475
0.3975 0.589573 2.4
0.801035 0.62468 2.55343
0.824866 0.745953 2.1275
-0.816755 0.284166 -1.21011
-0.818524 0.286638 -0.366842
-0.86986 0.385445 -0.772605
-0.429307 0.202593 -0.788473
-0.856212 0.257428 1.31969
-0.820903 0.288498 0.476422
-0.894363 0.366528 0.89979
-0.440937 0.20339 0.898053
-0.857865 0.711087 -1.1325
-0.887523 0.616342 -0.740868
-0.853078 0.72327 -0.3175
-0.469081 0.939247 -0.725
-0.84006 0.744193 1.3125
-0.888832 0.628191 0.903264
-0.846752 0.733915 0.4975
-0.524257 1.16917 0.905
0.816722 0.284185 -1.21011
0.429277 0.202592 -0.788473
0.818506 0.286644 -0.366842
0.869837 0.385461 -0.772605
0.856346 0.25729 1.31969
0.440993 0.20339 0.898053
0.820891 0.288502 0.476422
0.894361 0.366483 0.89979
0.857908 0.711112 -1.1325
0.469113 0.939295 -0.725
0.887496 0.616324 -0.740868
0.853068 0.723243 -0.3175
0.840063 0.74418 1.3125
0.524259 1.16917 0.905
0.888815 0.628149 0.903264
0.846754 0.7339 0.4975
-0.876806 0.488207 -1.983
-0.398713 0.483881 -2.48585
-1.15873e-05 0.223384 -2.07572
-7.13021e-06 0.362084 -2.56913
-0.877649 0.372274 -1.6088
-0.4234 0.210315 -1.63174
-0.885172 0.517878 2.1476
-0.399872 0.524792 2.42137
9.54954e-06 0.276319 2.14338
0 0.444466 2.41525
-0.873117 0.400012 1.73599
-0.413339 0.254418 1.74132
4.41883e-07 0.77137 -1.98192
-2.37674e-06 0.617741 -2.4645
-0.877565 0.598275 -1.56293
-0.429641 0.775034 -1.54
8.89035e-09 0.792722 2.06586
0 0.563042 2.42326
-0.883734 0.628569 1.72533
-0.41678 0.821541 1.72
0.876805 0.488201 -1.98301
0.398706 0.483876 -2.48616
0.87763 0.372273 -1.6088
0.423378 0.210315 -1.63174
0.885307 0.51786 2.14203
0.394306 0.524788 2.42162
0.873102 0.399992 1.73599
0.413363 0.254418 1.74132
0.877565 0.598261 -1.56293
0.429638 0.775032 -1.54
0.883728 0.628535 1.72533
0.416768 0.821544 1.72
-0.870998 0.386283 0.0635925
-0.430473 0.202722 0.05479
-0.886154 0.496855 -1.1713
-0.892334 0.500166 -0.342171
-1.57479e-05 0.201005 -1.21011
-3.82165e-06 0.201092 -0.366842
-0.89243 0.498141 0.486961
-0.894816 0.504045 1.31609
2.41916e-05 0.201177 0.476422
2.86486e-05 0.227306 1.31969
-0.88849 0.622352 0.0811975
-0.536246 1.19301 0.09
1.32565e-06 0.80465 -1.1325
1.33454e-06 1.20147 -0.3175
4.68554e-07 1.20884 0.4975
2.66711e-08 0.960513 1.3125
0.870961 0.386277 0.0635925
0.43048 0.202721 0.05479
0.886124 0.496856 -1.1713
0.892317 0.500157 -0.342171
0.892404 0.498105 0.486961
0.894817 0.504006 1.31609
0.888481 0.622337 0.0811975
0.536246 1.193 0.09
-0.877702 0.378358 -2.01819
-0.866681 0.38262 -1.1907
-0.886365 0.603833 -1.1519
-0.876319 0.5908 -1.96525
0.877702 0.378355 -2.01819
0.876319 0.590786 -1.96525
0.886338 0.603824 -1.1519
0.866656 0.382627 -1.1907
-0.414093 0.225001 -2.06455
0.414072 0.224996 -2.06455
0.416247 0.20102 -1.21011
-0.416276 0.20102 -1.21011
-0.42857 0.758803 -1.96471
-0.428794 0.7906 -1.1325
0.428794 0.790595 -1.1325
0.428569 0.758802 -1.96471
-0.401749 0.373263 -2.54543
-0.413106 0.600533 -2.37425
0.413103 0.600526 -2.37426
0.401736 0.37326 -2.54542
-0.870446 0.385855 -0.354506
-0.86944 0.383026 0.481691
-0.888672 0.625277 0.492231
-0.888215 0.619451 -0.329835
0.870418 0.385859 -0.354506
0.8882 0.619436 -0.329835
0.888661 0.62525 0.492231
0.869398 0.383011 0.481691
-0.42989 0.202657 -0.366842
0.429879 0.202657 -0.366842
0.435859 0.202811 0.476422
-0.435827 0.202811 0.476422
-0.558334 1.17747 -0.3175
-0.534439 1.18946 0.4975
0.534445 1.18947 0.4975
0.558327 1.17744 -0.3175
-0.894717 0.387803 1.31789
-0.872102 0.412455 2.15527
-0.872238 0.626631 2.13755
-0.886983 0.623616 1.3143
0.894716 0.38776 1.31789
0.886995 0.623582 1.3143
0.872322 0.626607 2.13477
0.872173 0.412443 2.15249
-0.421025 0.22907 1.31969
0.421075 0.22907 1.31969
0.405431 0.276619 2.15316
-0.40542 0.276621 2.15316
-0.419527 0.928404 1.3125
-0.40714 0.777187 2.09668
0.407134 0.777189 2.09668
0.419521 0.928405 1.3125
-0.398686 0.434682 2.54314
0.395903 0.43468 2.54333
0.395903 0.593861 2.39817
-0.398686 0.593867 2.39804
-0.832432 0.334721 -2.47719
-0.607174 0.274818 -2.48518
-0.817752 0.27787 -2.26418
-0.797108 0.374949 2.58049
-0.59625 0.382298 2.52728
-0.814089 0.304852 2.37376
-0.84106 0.633045 -2.36174
-0.64125 0.692861 -2.3651
-0.859645 0.691654 -2.15125
-0.801172 0.67464 2.54737
-0.59625 0.582139 2.39255
-0.817827 0.743173 2.33125
0.607155 0.27482 -2.48518
0.832302 0.334718 -2.47708
0.81771 0.277893 -2.26418
0.59625 0.382293 2.52729
0.78327 0.374947 2.56665
0.814089 0.30485 2.37376
0.64125 0.692871 -2.36512
0.841316 0.63303 -2.362
0.859645 0.691636 -2.15125
0.59625 0.58228 2.3927
0.782926 0.674626 2.52912
0.81779 0.743121 2.33125
-0.817772 0.28421 -0.999289
-0.818438 0.285663 -0.577658
-0.846095 0.334089 -0.780539
-0.643955 0.203358 -0.788473
-0.85994 0.252641 1.10887
-0.821799 0.288661 0.687238
-0.892856 0.301822 0.898922
-0.64714 0.232842 0.898053
-0.857278 0.714742 -0.92875
-0.877963 0.6701 -0.732934
-0.85452 0.720469 -0.52125
-0.688999 0.881445 -0.725
-0.842529 0.74242 1.10875
-0.875023 0.68836 0.904132
-0.845301 0.736706 0.70125
-0.707545 1.00097 0.905
0.817739 0.284229 -0.999289
0.643928 0.203358 -0.788473
0.81841 0.28568 -0.577658
0.846083 0.3341 -0.780539
0.85996 0.252615 1.10887
0.647178 0.232857 0.898053
0.821795 0.288659 0.687238
0.892857 0.301776 0.898922
0.857283 0.71473 -0.92875
0.689004 0.881438 -0.725
0.877941 0.670079 -0.732934
0.85452 0.720453 -0.52125
0.842537 0.742411 1.10875
0.70755 1.00097 0.905
[...]
POINT_DATA 3682
SCALARS point_scalars float 1
LOOKUP_TABLE default
-90.4813
-36.7299
-125.049
-32.6891
-90.2815
-36.124
-125.098
-32.6966
-29.5374
-29.1586
-40.1345
-41.2386
-29.5509
-29.1635
-40.1495
-41.248
44.1515
-147.36
-29.7107
-33.0328
-38.343
-34.5006
-34.5006
44.1515
-123.995
-30.7355
-32.1074
-39.4079
-34.5006
-34.5006
-50.348
-113.889
-35.2375
-37.4377
-36.6659
-31.894
-32.3884
-90.3999
-130.81
-70.5251
-45.4039
-33.666
-33.5529
-33.5529
187.101
-117.866
-29.154
-33.85
-38.3626
-33.8943
-34.5006
187.101
-34.5006
-34.5006
182.747
-31.894
-32.3884
-61.6999
-109.146
-66.9246
-50.7157
-32.5334
-33.5529
-33.5529
188.143
-120.284
-29.0373
-34.2515
-38.764
-34.4377
-34.4377
188.143
-34.4377
-34.4377
187.339
-32.3791
-34.4377
-61.8857
-109.064
-63.9789
-50.5507
-32.7022
-33.6957
-33.6957
44.3245
-146.981
-29.7325
-33.0524
-40.326
-34.4377
-34.4377
44.3245
-124.744
-30.7392
-32.1268
-40.246
-34.4377
-34.4377
-73.2408
-114.045
-35.273
-37.4473
-37.1976
-32.3791
-34.4377
-90.8559
-131.136
-70.3851
-45.7074
-34.0479
-33.6957
-33.6957
-11.6584
-114.897
-35.3017
-32.4742
-28.2311
-33.8444
-102.744
-27.7205
-25.3889
-36.5072
-11.6268
-35.3379
-31.8381
-33.8876
-27.6908
-36.4225
-31.4311
-31.999
-33.6681
-35.7639
-36.2671
-42.8482
48.1183
-51.9522
-31.4384
-32.008
-35.776
-42.8507
-33.1377
-33.0717
-44.3083
-18.0699
179.437
-35.1868
-35.1948
-31.7133
-70.7282
-32.5262
-32.5252
-33.6102
-35.8383
-24.7043
-29.8322
-80.5793
-52.7415
-34.1176
-30.6057
-32.9292
-31.6996
-62.5879
-50.4002
-32.9043
-27.6763
-34.2787
-81.1661
-29.7944
-52.6631
-30.4877
-34.1777
-33.071
-62.386
-31.3923
-50.4105
-27.5295
-33.0552
-34.2726
-35.3893
-31.1718
-30.2483
-33.1479
-33.6873
-30.5871
-33.7383
-35.7862
-22.4382
-35.1122
-45.6419
18.3465
-41.4897
-37.2716
-40.0253
-52.4102
-35.377
-33.151
-31.1789
-30.2569
-33.7218
-35.761
-30.5842
-33.736
-22.428
18.3211
-35.1261
-45.7182
-41.4944
-52.3476
-37.2807
-40.0332
-57.4441
153.527
-65.7462
177.88
-33.6592
-43.191
-32.6858
-27.7576
-33.0662
-25.2534
-33.0378
-33.4932
-51.3134
167.805
-31.9523
-21.9226
-31.5684
-24.6499
-33.8472
-35.8113
-57.311
153.264
-33.6219
-43.2369
-32.8108
-27.5806
-33.0873
-33.5079
-31.8986
-21.9201
-33.8725
-35.8144
-33.0622
-31.4997
-28.4461
-35.5125
-38.317
-31.7945
-33.4919
-35.4293
-33.0163
-34.9301
-38.3548
-61.5365
8.24618
-109.418
-58.6729
-38.6611
-33.0666
-31.5029
-28.4304
-35.5377
-33.4907
-35.4459
-38.365
-61.5073
-57.5051
-30.1863
-27.3681
-56.2788
-58.3884
-56.3172
-27.3509
-30.1834
-65.1515
-65.1372
-37.8788
-37.8602
-55.0379
-0.372937
-0.386813
-55.0204
188.698
148.612
148.739
188.523
-32.8834
-31.6127
-36.2244
-39.7022
-32.8974
-39.7504
-36.2263
-31.6133
-31.5421
-31.5438
-32.7028
-32.6956
-95.0975
-52.7072
-52.6657
-95.483
-34.9556
-32.5011
-32.6667
-36.6168
-34.9733
-36.6279
-32.7836
-32.6654
-34.7055
-34.7269
-33.6948
-33.6776
-39.661
-31.1678
-31.1567
-39.6576
-28.0342
-27.7831
-27.5341
-27.6955
-56.1125
-32.0693
-71.9655
-34.585
-31.6232
-36.3723
-31.2539
-41.7556
-80.4219
-33.5529
-29.0488
-33.1602
-31.8241
-56.0571
-71.836
-31.5321
-34.1579
-36.8368
-41.7088
-31.3128
-80.5301
-28.9753
-33.5668
-33.1216
-28.2055
-30.5246
-29.7234
-31.9501
-37.7689
-27.7538
-28.5275
-34.9617
-29.1025
-37.6954
-45.1879
-22.9138
-41.786
-39.506
-39.4325
-48.0981
-28.1698
-31.9517
-30.5336
-29.7363
-37.7504
-34.9274
-27.7707
-28.5335
-29.0933
-22.8496
-37.7107
-45.2443
-41.8034
-48.0864
-39.514
-39.4681
-55.0159
-11.8806
-91.4244
148.665
-118.15
-119.601
-91.8626
100.907
-43.9643
-29.1082
-33.8669
-40.6483
-32.3211
-33.9661
-37.004
-28.9748
-29.2208
-29.1046
-32.4042
-25.9606
-31.0806
-37.1536
-33.573
-33.1535
-90.9367
-90.9922
-84.0285
97.8793
-36.5626
-23.1054
-30.3661
-23.9922
-26.2979
-26.1415
-30.1377
-24.8231
-36.1597
-38.533
-34.7764
-36.4037
-54.846
-15.4546
-92.1974
148.766
-44.0335
-29.165
-33.8716
-40.6813
-32.298
-33.1178
-37.5627
-28.877
-31.1495
-37.1977
-33.6228
-33.1775
-36.529
-23.0824
-30.3229
-23.9846
-35.7911
-38.4759
-34.7909
-36.407
-31.4312
-31.1935
-32.0915
-31.2366
-31.0305
-33.2137
-29.3491
-34.4156
-33.609
-33.614
-35.5767
-32.4475
-35.1712
-36.377
-32.6712
-36.2884
-36.2056
-36.2217
-34.2436
-35.5905
-44.2993
-41.2239
-40.66
-52.0475
37.2479
36.8461
20.095
-28.6024
-52.1858
-52.1835
-55.2495
-46.23
-31.4427
-31.1806
-32.0966
-31.2408
-31.0382
-33.2255
-29.3467
-34.4356
-35.1748
-36.408
-32.6689
-36.2948
-44.3324
-41.2227
-40.6482
-51.992
-41.7545
-33.5003
-32.6517
-30.5728
-41.6382
-33.4405
-32.5906
-30.5432
-52.2436
-44.5961
-44.6278
-41.734
-33.1034
-19.4862
-19.4876
-4.6894
175.056
208.293
184.922
174.947
-34.0506
-35.5747
-34.4362
-36.7475
-34.0567
-35.5939
-34.4355
-36.7599
-31.6824
-31.5761
-32.1887
-31.6852
-69.1144
-82.796
-63.4334
-69.0995
-31.9779
-32.9311
-33.1504
-34.8515
-32.0563
-32.9467
-33.1818
-34.9213
-33.3414
-33.5494
-33.557
-34.2864
-33.7001
-35.8411
-35.8436
-37.8276
-25.8717
-24.9685
-24.4495
-25.6843
-80.1677
188.852
-99.7393
119.462
-54.7521
-61.7313
-37.1541
-29.785
-33.5727
-29.271
-32.3453
-34.2678
-92.1371
152.986
-92.3557
104.361
-53.3031
-53.9561
-35.374
-29.1504
-29.4941
-27.6862
-33.1557
-32.0002
-99.5616
119.002
-78.6944
186.473
-55.2383
-61.7319
-33.51
-29.1262
-37.6155
-29.6727
-32.521
-34.3044
-92.328
104.541
-92.468
153.115
-53.329
-53.9459
-29.4723
-27.5322
-35.842
-29.0603
-33.1012
-31.9766
-32.7526
-37.2974
-31.8484
-31.2337
-28.6916
-31.9449
-35.0611
-32.0377
-34.3181
-34.2129
-30.9724
-31.9986
-29.0295
-36.2935
-34.0733
-34.9548
-26.6849
-8.54069
-30.126
-38.6098
-42.6362
-63.3418
5.71696
-19.9258
-38.5499
-41.9806
-36.015
-37.4165
-38.3022
-44.9768
-52.001
-47.12
-32.744
-37.3058
-35.0683
-32.0393
-31.8615
-31.2366
-28.6955
-31.9572
-34.3433
-34.2391
-34.0876
-34.9088
-30.976
-32.0058
-29.0297
-36.3001
-26.6697
-8.53834
5.67844
-18.6354
-30.1176
-38.6478
-42.6996
-63.4295
-38.5537
-41.9981
-52.336
-47.0682
-36.0212
-37.4192
-38.3076
-44.8731
-58.2282
-57.1457
201.83
157.385
-67.421
-67.4225
160.568
160.326
-42.2653
-34.9707
-51.3718
-39.9492
-32.6859
-32.9688
-27.8225
-27.6518
-33.2225
-33.2312
-25.5177
-25.344
-35.2947
-30.7884
-34.1457
-33.3689
-52.1157
-52.1
159.253
159.275
-28.1982
-40.6187
-35.5027
-10.8242
-31.2578
-31.2609
-25.8869
-26.069
-32.8353
-35.3709
-38.1847
-33.4636
-58.5796
-57.1374
157.551
199.787
-42.1752
-34.9459
-51.3298
-40.0032
-33.092
-32.8258
-27.6593
-27.4626
-35.3305
-30.8695
-34.1645
-33.3818
-40.5458
-28.163
-10.8248
-35.4984
-35.3899
-32.903
-33.4664
-38.1837
-33.1699
-32.5247
-31.39
-31.9025
-29.182
-27.7416
-34.0786
-37.4172
-38.2746
-38.2582
-31.7541
-31.7566
-32.4736
-34.9307
-35.2433
-35.9425
-32.9609
-32.9483
-34.863
-34.8726
-37.2519
-39.3464
-71.6716
-55.7006
5.63541
5.61352
-104.511
-104.496
-57.4892
-57.4903
-38.9221
-38.9317
-33.1803
-32.5256
-31.3922
-31.9071
-27.7235
-29.1722
-34.0964
-37.4532
-34.9317
-32.4716
-35.2603
-35.9568
-39.3745
-37.2517
-55.6354
-71.627
-72.1612
-42.4987
-42.2391
-88.9443
-28.4782
-29.0942
-33.0371
-34.094
-30.9769
-26.6622
-29.0512
-29.5009
-84.7651
-93.2969
-41.3311
-38.9859
-71.3199
-89.2945
-42.0992
-42.5232
-84.9603
-38.9342
-41.237
-93.8405
-30.9632
-29.4961
-29.0168
-26.6297
-28.4886
-34.0718
-33.0125
-29.0936
-96.2187
-105.284
-52.9533
-48.762
-96.1409
-48.7554
-52.9613
-105.143
-33.3235
-35.552
-41.6624
-36.1062
-33.3203
-36.0571
-41.6357
-35.5426
-89.0733
-36.4515
-33.7503
-84.2869
-6.13906
15.8502
-6.48074
-15.5199
-6.14501
-15.5145
-6.48764
15.8062
-89.0817
-84.2151
-33.7509
-36.4389
125.064
185.007
197.196
41.8388
124.364
103.1
177.904
156.647
124.479
156.733
177.39
107.924
125.264
42.0722
197.089
185.158
-31.0589
-32.1457
-34.2911
-33.0372
-27.8276
-30.7492
-33.4214
-31.7346
-37.9431
-39.3311
-35.8776
-34.5323
-41.821
-36.2318
-37.3358
-41.8878
-31.0708
-33.0521
-34.3047
-32.1565
-41.8703
-41.9564
-37.3642
-36.2605
-37.9573
-34.5339
-35.8781
-39.3308
-27.8329
-31.7374
-33.4208
-30.7455
-31.5158
-32.3805
-31.5523
-31.1531
-31.5166
-31.1566
-31.5547
-32.3837
-33.7642
-34.1427
-32.1348
-31.4557
-33.7534
-31.4496
-32.1313
-34.1357
-72.9706
-55.0436
-81.4049
-19.2417
-43.7026
-54.6207
-61.9973
-47.1061
-43.7947
-47.0166
-61.9838
-54.6335
-72.8402
-19.2868
-81.3817
-55.0246
-38.0959
-36.2537
-35.0951
-36.2125
-36.8437
-37.2675
-31.2746
-30.4877
-33.7602
-33.137
-32.6558
-36.3104
-39.6595
-36.7006
-34.8411
-36.8468
-38.0924
-36.2197
-35.1769
-36.2838
-39.6681
-36.8565
-34.8621
-36.7065
-33.9888
-36.8594
-32.7274
-33.1861
-37.4524
-30.5671
-31.3546
-37.7427
-33.8176
-35.4827
-34.2234
-34.5915
-33.8129
-34.6195
-34.2332
-35.4348
-34.6404
-32.7081
-33.3457
-33.3347
-34.6417
-33.3043
-33.3422
-32.7471
-47.7955
-38.8928
-37.9787
-46.4119
-30.5049
-29.782
-33.5382
-34.0954
-30.4373
-34.0933
-33.5429
-29.7917
-47.7763
-46.3924
-37.9823
-38.8909
-31.3052
-27.2264
-26.2263
-28.8418
-31.21
-28.7681
-26.0668
-27.0718
-29.167
-26.0045
-25.7687
-28.9299
-29.256
-29.0377
-25.9506
-26.1711
-54.5198
-31.8097
-118.922
-35.8418
-31.5883
-38.2076
-70.2602
-38.1081
-123.923
-33.3409
-28.9866
-32.9877
-31.7581
-55.8025
-118.793
-31.8974
-35.5948
-39.9775
-38.1705
-69.861
-124.036
-28.9101
-32.9274
-33.2442
-28.903
-29.9458
-29.5503
-30.2292
-36.693
-20.0814
-25.2066
-37.22
-35.358
-38.9394
-43.5171
-49.9265
-41.3282
-40.6265
-40.3414
-44.1606
-28.9008
-30.1571
-29.9487
-29.5648
-36.6885
-37.2156
-20.0355
-25.2201
-35.3345
-49.9133
-38.9548
-43.5505
-41.3454
-44.1556
-40.6356
-40.3644
-44.4282
-17.5647
-123.204
128.938
-138.273
-138.296
-129.526
22.2008
-39.1738
-32.0551
-34.0475
-38.3273
-32.6874
-31.894
-39.3012
-28.9267
-28.4837
-28.4153
-31.8534
-26.4079
-30.1404
-38.3719
-34.2599
-32.4396
-112.126
-111.739
-129.015
1.11186
-31.7157
-25.0629
-29.0427
-25.1307
-25.6324
-25.5282
-29.0045
-25.112
-35.3728
-37.0013
-35.4108
-37.6482
-44.2975
-17.3854
-123.414
128.918
-39.2182
-32.106
-34.0755
-38.3497
-32.3822
-32.8108
-39.5472
-28.8785
-30.1955
-38.416
-34.3073
-32.4731
-31.6795
-25.0378
-29.006
-25.1213
-35.3422
-37.0486
-35.4285
-37.6533
-31.442
-31.345
-31.6637
-31.0528
-31.5216
-32.5855
-30.6331
-33.3574
-33.6567
-33.6603
-34.5202
-32.9813
-35.3431
-36.0084
-32.9781
-36.4825
-36.2936
-36.3055
-35.0704
-36.3301
-43.4217
-42.1073
-41.7591
-47.2059
45.9682
45.9133
35.0332
29.773
-52.0252
-52.0223
-53.3615
-50.7679
-31.4399
-31.3494
-31.6696
-30.9063
-31.53
-32.5959
-30.6363
-33.3735
-35.3563
-36.027
-32.9592
-36.4883
-43.4964
-42.1084
-41.7522
-47.2049
-36.756
-33.3586
-32.8957
-30.5801
-36.6658
-33.2934
-32.8322
-30.5304
-48.099
-44.3862
-44.4093
-43.0466
-25.4997
-18.6034
-18.6065
-11.3586
179.937
198.739
184.121
179.786
-34.6087
-35.3983
-34.8432
-35.9428
-34.6157
-35.4134
-34.8452
-35.9524
-31.7018
-31.6017
-31.9111
-31.7034
-70.3657
-75.856
-66.8197
-70.36
-31.9701
-32.6667
-32.824
-34.178
-32.0278
-32.6753
-32.839
-34.1859
-33.4824
-33.5768
-33.5806
-33.9481
-34.8848
-35.8413
-35.8427
-36.8368
-24.741
-24.8134
-24.652
-24.6359
-50.0274
-47.9387
-108.144
156.518
-61.871
-75.1132
-130.493
62.4268
-51.8383
-51.5974
-51.3027
-58.9611
-34.3113
-32.4815
-39.5358
-29.8187
-31.111
-29.8831
-33.5811
-29.8998
-33.9737
-31.6857
-32.3506
-34.3642
-25.2929
-17.8102
-129.246
134.714
-49.3199
-68.0254
-122.501
26.0905
-61.7818
-42.6962
-51.2774
-51.9203
-33.2349
-33.5414
-37.9835
-29.4124
-28.3748
-27.0416
-28.6055
-27.6816
-32.5447
-33.6958
-34.3355
-33.2269
-61.8758
-76.206
-130.091
62.052
-49.6077
-47.7687
-107.8
157.804
-51.9044
-51.7921
-51.1981
-59.0106
-31.0068
-29.7445
-33.4924
-29.78
-34.2418
-31.7567
-40.4193
-29.6149
-34.1905
-31.7824
-32.5132
-34.4359
-49.1192
-68.1815
-122.509
26.2103
-25.1749
-18.7923
-129.555
134.817
-61.8374
-42.6728
-51.2935
-51.9239
-28.2609
-26.8774
-28.5582
-27.5312
-33.3516
-32.2253
-38.1385
-29.3792
-32.5393
-33.6983
-34.3877
-33.1988
-28.9884
-44.8665
-34.2362
-35.5743
-30.9107
-31.3765
-31.422
-30.9281
-29.9703
-30.5925
-29.3778
-31.1586
-32.7597
-33.4076
-34.1073
-32.4615
-34.7351
-33.6046
-33.8631
-34.1053
-29.7683
-30.9929
-30.7046
-31.1807
-31.453
-34.5331
-25.1079
-37.4172
-35.3943
-36.0264
-34.9116
-35.4163
-25.3314
-21.5347
-25.1688
-13.1516
-36.231
-34.0889
-32.5956
-37.2414
-46.0077
-45.099
-44.3252
-52.5108
2.73509
28.6897
8.96842
10.8545
-41.2537
-39.5683
-40.3538
-43.8379
-38.2523
-36.7572
-36.5328
-37.5614
-39.6975
-40.5039
-39.1934
-42.3525
-50.2983
-52.3639
-52.7875
-53.4882
-29.0019
-44.8133
-34.2251
-35.5731
-32.7611
-33.4125
-34.1122
-32.4637
-30.9228
-31.3852
-31.4346
-30.8918
-29.9812
-30.6001
-29.3858
-31.1691
-34.7277
-33.6361
-33.8949
-34.1388
-35.331
-36.0401
-34.9261
-35.4756
-29.7426
-30.9901
-30.7075
-31.1913
-31.4553
-34.5334
-25.1089
-37.4223
-25.3261
-21.5143
-25.1536
-13.1456
2.80325
28.7751
9.02776
11.0313
-36.2453
-34.1021
-32.5968
-37.268
-46.0808
-45.1592
-44.3948
-52.6549
-41.2527
-39.5805
-40.3907
-43.8228
-50.1837
-52.3577
-52.729
-53.4361
-38.26
-36.7736
-36.5389
-37.5649
-39.7185
-40.5046
-39.1998
-42.3371
-69.7603
-48.7232
-58.0443
-57.3044
152.555
167.385
192.207
155.055
-74.921
-58.7391
-66.3245
-66.3319
155.745
201.344
176.721
176.599
-33.7853
-33.6001
-37.2573
-30.8643
-42.007
-44.1603
-46.5017
-41.1006
-34.3652
-32.0508
-32.6374
-32.7483
-28.3914
-27.0137
-27.8172
-27.6993
-32.9934
-33.247
-33.0995
-33.1046
-25.4503
-25.1235
-25.2916
-25.2417
-32.7628
-32.9048
-36.7728
-30.4327
-33.471
-33.527
-33.8786
-33.4099
-64.4589
-41.3738
-51.5029
-51.4996
144.023
182.058
171.066
171.176
-31.3969
-32.3618
-29.2014
-35.5321
-23.212
-20.6849
-28.3799
-16.1299
-30.6112
-32.6095
-31.4305
-31.4326
-24.6304
-24.6705
-24.866
-24.9822
-34.2903
-33.5021
-33.2857
-34.5726
-35.9428
-35.8197
-37.0619
-34.5644
-70.3751
-48.5487
-57.8244
-57.262
152.825
167.463
155.079
195.833
-33.7658
-33.5471
-37.2018
-30.8414
-42.0457
-44.2012
-46.4955
-41.167
-34.3976
-32.1571
-32.8655
-32.779
-28.2381
-26.8053
-27.6527
-27.516
-32.8152
-32.9336
-36.8036
-30.4923
-33.4887
-33.5386
-33.8931
-33.4243
-31.3472
-32.3045
-35.4676
-29.1572
-23.2073
-20.6842
-16.1278
-28.3768
-34.3093
-33.5314
-34.5841
-33.3284
-35.9459
-35.8231
-34.5683
-37.063
-32.594
-33.5008
-33.1283
-32.8291
-31.3698
-31.6034
-31.4128
-31.6646
-28.5221
-29.7788
-28.7716
-28.0683
-35.1613
-35.6355
-34.7661
-36.4371
-36.8258
-39.9641
-38.3208
-38.311
-32.0625
-31.6348
-31.782
-31.7838
-32.9902
-34.012
-32.9148
-34.2153
-35.8977
-35.0356
-35.3233
-35.6534
-33.5709
-32.5566
-33.0043
-33.0017
-35.302
-34.6169
-34.9072
-34.9126
-39.4346
-37.4845
-37.8517
-38.8413
-56.6398
-66.6851
-65.9443
-58.5348
14.9328
1.81047
7.5133
7.49735
-94.3908
-93.232
-105.098
-105.108
-57.0199
-60.6314
-58.3891
-58.3895
-40.9154
-37.8842
-38.7134
-38.7123
-32.5983
-33.5054
-33.1359
-32.8315
-31.373
-31.6065
-31.4153
-31.6685
-28.5108
-29.7617
-28.0511
-28.7582
-35.1867
-35.6587
-34.7873
-36.4677
-32.9883
-34.0102
-34.2153
-32.9133
-35.9077
-35.0617
-35.3403
-35.6687
-39.4363
-37.4964
-38.8693
-37.8516
-56.6128
-66.6595
-58.4545
-65.9151
-64.0525
-56.0278
-58.1807
-49.1104
-30.9546
-28.5959
-34.4612
-29.571
-27.3245
-28.2992
-27.5506
-27.4495
-68.9883
-55.169
-56.9727
-46.9546
-66.0508
-56.9696
-58.9021
-48.8746
-69.2
-55.1997
-56.9987
-46.9019
-27.3082
-28.2841
-27.5276
-27.4313
-30.9528
-28.5974
-34.4405
-29.5656
-76.8268
-63.6433
-66.8599
-57.5889
-76.8298
-63.639
-66.8731
-57.6161
-37.6934
-36.3642
-39.3882
-38.1078
-37.6786
-36.3528
-39.3601
-38.0881
-70.613
-55.1288
-53.4348
-44.0927
-3.87121
3.46047
-5.12933
2.83447
-3.87678
3.43625
-5.13531
2.81406
-70.5857
-55.1116
-53.4148
-44.0833
180.193
164.1
200.022
165.101
148.828
134.103
157.076
153.508
134.261
149.005
153.598
157.205
163.555
180.346
164.573
199.987
-32.359
-32.5012
-33.0765
-33.4297
-31.3074
-30.6955
-32.1354
-31.9581
-35.9432
-37.2285
-35.5116
-36.7478
-39.4258
-41.0417
-38.4841
-39.556
-32.3723
-32.5144
-33.0888
-33.4443
-39.4717
-41.097
-38.5255
-39.5982
-35.9485
-37.2318
-35.5127
-36.7486
-31.3098
-30.6953
-32.1359
-31.9567
-31.3845
-31.7455
-31.4265
-31.6711
-31.747
-31.3859
-31.6733
-31.4284
-33.304
-32.4475
-32.861
-32.2468
-32.4401
-33.2942
-32.241
-32.8547
-83.7948
-70.5564
-82.0809
-99.7357
-48.2644
-52.3158
-53.9263
-55.751
-52.3473
-48.0957
-55.7496
-53.8849
-71.4134
-84.1214
-99.7823
-81.9656
-34.7228
-35.4653
-34.8877
-35.1258
-34.4332
-32.4166
-32.6017
-31.3912
-33.4703
-32.4974
-32.8247
-32.5272
-37.2989
-37.1636
-35.9603
-36.2404
-34.7432
-35.4751
-34.9151
-35.143
-37.3042
-37.1685
-35.9843
-36.2536
-33.6706
-32.5935
-32.938
-32.6029
-34.7295
-32.5898
-32.7521
-31.5052
-34.4098
-34.9389
-34.4096
-34.8095
-34.4347
-34.8953
-34.4324
-34.824
-33.8903
-34.0362
-33.4179
-33.5448
-33.9233
-34.0216
-33.4248
-33.5345
-40.471
-42.1542
-38.8259
-39.2555
-30.3147
-31.3803
-31.1301
-32.2779
-30.3006
-31.3653
-31.1304
-32.2806
-40.4697
-42.1439
-38.8265
-39.2525
-28.9329
-28.6009
-27.4714
-27.0775
-28.4147
-28.7974
-26.8219
-27.3995
-27.5331
-28.2873
-26.8315
-27.4936
-28.412
-27.6909
-27.6712
-27.0133
-109.214
105.892
-133.018
64.5447
-71.5781
-83.8799
-39.0487
-32.0668
-35.8108
-31.4591
-36.4834
-35.3845
-127.026
117.097
-128.083
41.1418
-82.3519
-83.5963
-36.6677
-30.3577
-30.2281
-29.1253
-33.2149
-31.3948
-132.825
64.8339
-108.997
105.274
-71.0972
-83.7806
-35.7462
-31.3661
-40.653
-32.3482
-37.0334
-35.5091
-127.999
41.2003
-127.291
117.241
-82.4881
-83.6339
-30.1384
-29.0429
-36.3135
-30.1252
-33.2859
-31.2891
-28.4171
-30.0952
-30.724
-30.9516
-29.0095
-30.4028
-32.1299
-31.7894
-37.9235
-34.4625
-27.6407
-31.2092
-20.9739
-37.9737
-36.9938
-33.6099
-29.9862
-19.5588
-34.4268
-40.1812
-43.5092
-55.8191
-5.76121
-54.825
-40.8514
-44.3064
-38.5337
-39.6202
-38.8572
-41.2224
-46.1229
-47.7454
-28.42
-30.0866
-32.133
-31.7895
-30.734
-30.811
-29.0226
-30.4144
-37.9103
-34.4459
-37.0034
-33.6002
-27.6434
-31.2142
-20.9884
-37.9737
-29.9846
-19.5444
-5.82101
-54.6256
-34.4274
-40.2133
-43.5625
-55.8988
-40.8633
-44.3307
-46.2329
-47.7604
-38.5452
-39.6266
-38.8825
-41.2979
-108.784
147.682
-127.23
135.173
-91.4301
-93.2131
160.813
154.066
-140.061
-21.7003
-139.717
-21.0088
-96.3765
-96.3656
111.56
111.161
-42.7962
-46.5765
-33.1386
-34.1537
-37.5518
-30.629
-43.7882
-38.401
-39.652
-28.8478
-38.6768
-28.9689
-37.1851
-36.5664
-28.9363
-28.9916
-32.3483
-28.1111
-32.2817
-27.967
-32.4659
-32.4877
-26.3789
-26.2763
-30.4661
-32.7854
-36.8525
-35.5274
-39.2992
-29.681
-33.886
-33.2276
-130.821
25.4926
-131.089
27.6919
-83.679
-83.6718
96.1403
96.7947
-37.441
-36.0412
-24.9335
-18.6501
-27.9354
-34.0736
-29.7487
-19.0707
-28.6891
-26.2357
-28.6876
-26.0743
-30.0282
-30.0363
-25.1567
-25.2667
-34.6735
-35.41
-37.7111
-39.7549
-33.8903
-35.8464
-37.6511
-35.229
-108.498
147.287
-127.625
135.202
-92.19
-93.8627
154.156
160.953
-42.8725
-46.5932
-33.1494
-34.1991
-37.5533
-30.645
-43.8081
-38.4522
-40.2879
-28.8061
-38.9263
-28.906
-37.185
-37.7878
-28.8445
-28.8827
-30.5412
-32.8327
-36.8891
-35.5571
-39.3362
-29.7385
-33.9089
-33.254
-37.3977
-36.0285
-24.906
-18.636
-34.0212
-27.9006
-19.0674
-29.7396
-34.6743
-35.4089
-37.7168
-39.7628
-35.8443
-33.9269
-35.2317
-37.6534
-31.6884
-30.874
-31.3839
-30.8986
-32.1374
-31.971
-31.1672
-31.3138
-29.9667
-32.1359
-31.3108
-34.9711
-29.2411
-29.4117
-33.7011
-35.2673
-34.4538
-32.9146
-34.4606
-32.9187
-35.5681
-35.5621
-32.4324
-32.4346
-29.5998
-36.7603
-35.1667
-36.7347
-31.7013
-33.6286
-36.2218
-36.4385
-34.9807
-36.298
-34.9904
-36.3449
-34.2152
-34.2107
-35.5637
-35.5331
-43.1707
-48.7686
-40.2868
-43.9635
-40.0411
-41.267
-51.5407
-49.7474
26.9013
29.149
26.7996
29.1311
18.77
18.7317
-25.6301
-25.4843
-53.2355
-51.892
-53.2434
-51.8763
-55.0828
-55.0865
-46.0936
-46.0969
-31.6996
-30.7937
-31.3852
-30.9045
-32.1449
-31.9749
-31.1709
-31.3194
-29.9712
-32.1475
-31.3133
-34.9928
-29.4081
-29.2396
-33.7181
-35.2913
-29.5918
-36.7673
-35.1641
-36.7371
-33.6282
-31.6982
-36.2286
-36.4445
-43.2252
-48.8057
-40.286
-43.9337
-41.3412
-40.0401
-49.6697
-51.5073
-42.08
-41.5383
-37.191
-30.9663
-29.9221
-36.1849
-31.4725
-29.708
-41.9531
-41.4316
-37.0994
-30.9182
-36.1083
-29.8743
-29.676
-31.4453
-52.6445
-52.6601
-48.3868
-43.0767
-48.4037
-43.11
-41.7521
-41.7365
-33.2289
-33.2314
-26.4146
-13.1899
-13.1923
-26.4166
-5.17889
-5.18496
190.104
178.533