# vtk DataFile Version 2.0
tri_press
ASCII
DATASET UNSTRUCTURED_GRID
POINTS 3682 float
-0.575 0.135 -2.08871
-0.649245 0.265 2.025
-0.695 0.645715 -1.825
-0.615 0.806517 2.005
0.560959 0.135 -2.085
0.658516 0.265 2.025
0.678087 0.645 -1.825
0.625 0.805668 2.005
-0.661868 0.116213 -0.717473
-0.741559 0.104604 0.653764
-0.75806 0.789043 -0.548333
-0.718422 0.829671 0.728334
0.666836 0.104975 -0.715
0.750139 0.0975242 0.655
0.760475 0.798639 -0.548333
0.724398 0.833814 0.728334
-1.27025 -0.234576 -3.22584
-1.27312 -0.193875 -2.16688
-1.34248 -0.208064 -0.793291
-1.40556 -0.211127 0.599368
-1.37081 -0.104762 1.97456
-1.35308 -0.038978 3.04136
-1.35558 0.00155004 4.09359
-1.27481 0.0673777 -3.1286
-1.28032 0.126479 -2.07987
-1.36245 0.129447 -0.724503
-1.41676 0.11646 0.639448
-1.34452 0.212087 1.9966
-1.33564 0.27549 3.06201
-1.34813 0.316721 4.11724
-1.32889 0.638663 -2.90711
-1.37144 0.695442 -1.85394
-1.43454 0.792533 -0.562955
-1.41344 0.811192 0.721361
-1.32337 0.813237 2.01408
-1.32632 0.875141 3.08332
-1.34757 0.931602 4.15371
-1.38171 1.58587 -2.64608
-1.40495 1.65366 -1.60731
-1.43171 1.75285 -0.346832
-1.43098 1.808 0.893271
-1.40572 1.82408 2.15457
-1.39075 1.84838 3.19506
-1.38782 1.88817 4.25525
-0.605329 -0.230781 -3.23106
-0.594637 -0.188237 -2.1749
-0.646699 -0.216665 -0.791415
-0.71347 -0.219045 0.611701
-0.690361 -0.0755581 1.99564
-0.67543 -0.017953 3.05573
-0.677031 0.0128163 4.10203
-0.602708 0.0657919 -3.12979
-0.661243 0.296721 3.07388
-0.671902 0.327166 4.12365
-0.644836 0.618123 -2.895
-0.65328 0.878077 3.08165
-0.672737 0.934957 4.15354
-0.687393 1.57402 -2.63413
-0.702605 1.6437 -1.59424
-0.725401 1.75386 -0.338862
-0.733685 1.81324 0.892629
-0.720881 1.82427 2.14827
-0.709495 1.84663 3.18877
-0.706443 1.88692 4.25076
0.655859 -0.231455 -3.22867
0.628756 -0.190295 -2.17193
0.692715 -0.224603 -0.789187
0.727403 -0.225103 0.612934
0.667702 -0.0775666 1.99606
0.669118 -0.019591 3.05613
0.674774 0.0110944 4.10253
0.651554 0.0656754 -3.12748
0.662532 0.295566 3.07414
0.670894 0.325665 4.12408
0.684532 0.618519 -2.89386
0.649921 0.877116 3.08186
0.663127 0.933775 4.15392
0.695416 1.57555 -2.63326
0.701261 1.646 -1.59356
0.69923 1.75681 -0.338321
0.674655 1.81504 0.893075
0.650884 1.82461 2.14867
0.648911 1.84628 3.1892
0.652485 1.88621 4.25125
1.30685 -0.23584 -3.22157
1.28847 -0.197129 -2.16214
1.36782 -0.217946 -0.789523
1.42371 -0.220482 0.601663
1.37296 -0.109937 1.97574
1.35633 -0.0428157 3.04236
1.35774 -0.00202731 4.09468
1.29989 0.0673475 -3.12454
1.26419 0.126262 -2.07518
1.36216 0.12134 -0.720924
1.43164 0.107964 0.641514
1.36348 0.207772 1.99748
1.34587 0.272302 3.06279
1.35114 0.313536 4.11821
1.34305 0.640243 -2.90456
1.34754 0.69904 -1.85192
1.42481 0.798766 -0.561389
1.41967 0.811969 0.722361
1.33802 0.810873 2.01468
1.3299 0.87281 3.08397
1.341 0.929111 4.15457
1.38174 1.58872 -2.64423
1.39395 1.65773 -1.60577
1.40183 1.75758 -0.345578
1.37913 1.81074 0.894307
1.34628 1.82442 2.15549
1.33618 1.84755 3.196
1.33661 1.88671 4.25628
-0.681599 0.390358 -2.00345
-0.0070205 0.133846 -2.08801
-0.636677 0.107363 -1.40309
-0.677733 0.535758 2.06061
0.00463548 0.217264 2.07274
-0.723585 0.156619 1.33938
-0.0084565 0.676853 -1.8565
-0.798354 0.789202 -1.18667
0.005 0.858482 2.05739
-0.703794 0.855177 1.36667
0.665949 0.39 -2.00143
0.62741 0.106476 -1.4
0.687438 0.535334 2.06068
0.728146 0.157443 1.34
0.784354 0.786892 -1.18667
0.710638 0.85568 1.36667
-0.716861 0.0952619 -0.031855
-0.872009 0.452628 -0.632903
0.00248381 0.118232 -0.716237
-0.85603 0.467138 0.691049
0.00429028 0.125223 0.654382
-0.743205 0.814321 0.09
0.00120715 0.951046 -0.548333
0.00298796 1.15758 0.728334
0.714666 0.095071 -0.03
0.861498 0.451807 -0.631667
0.864856 0.465669 0.691667
0.746857 0.820648 0.09
-0.878912 0.421493 -1.29488
0.896948 0.420904 -1.29333
-0.00226834 0.127385 -1.40155
-0.00362468 0.83241 -1.18667
-0.0077385 0.390179 -2.17954
-0.845095 0.459883 0.0290725
0.854687 0.458738 0.03
0.00338705 0.121652 -0.0309275
0.00209755 1.16976 0.09
-0.895644 0.501448 1.35302
0.884119 0.500502 1.35333
0.00446288 0.17242 1.33969
0.00399398 1.03145 1.36667
0.00481774 0.535546 2.22589
-0.597799 0.262679 -2.01558
-0.29101 0.136102 -2.08668
-0.616823 0.110198 -1.7459
-0.682258 0.400379 2.06157
-0.322305 0.216988 2.07301
-0.736843 0.160381 1.68219
-0.698001 0.518036 -1.92393
-0.351728 0.66846 -1.84792
-0.782403 0.753185 -1.50583
-0.645432 0.671138 2.03187
-0.305 0.846671 2.04537
-0.674971 0.846421 1.68583
0.276969 0.134135 -2.08679
0.582426 0.2625 -2.01219
0.604953 0.109969 -1.7425
0.331576 0.21715 2.07285
0.69144 0.400167 2.0613
0.738878 0.165675 1.6825
0.334815 0.66822 -1.84804
0.681807 0.5175 -1.923
0.76713 0.751856 -1.50583
0.315 0.846569 2.04569
0.655167 0.670501 2.03179
0.683672 0.846527 1.68583
-0.65056 0.110501 -1.06028
-0.700114 0.0949878 -0.374664
-0.842615 0.246582 -0.675188
-0.322731 0.131146 -0.716855
-0.717475 0.145708 0.996573
-0.728988 0.100155 0.310954
-0.826391 0.272073 0.672406
-0.356821 0.138541 0.654073
-0.794434 0.80535 -0.8675
-0.867393 0.647014 -0.590618
-0.748172 0.799221 -0.229167
-0.404699 0.922589 -0.548333
-0.709158 0.840474 1.0475
-0.849569 0.679576 0.709691
-0.735633 0.826816 0.409167
-0.422475 1.12314 0.728334
0.644068 0.10878 -1.0575
0.324837 0.131249 -0.715618
0.696441 0.0943337 -0.3725
0.825297 0.247826 -0.673333
0.721694 0.144933 0.9975
0.363552 0.138699 0.654691
0.732412 0.0962883 0.3125
0.835021 0.267835 0.673334
0.781444 0.801796 -0.8675
0.405364 0.923889 -0.548333
0.859589 0.649525 -0.59
0.752046 0.808023 -0.229167
0.71423 0.84146 1.0475
0.427392 1.1231 0.728334
0.858217 0.681537 0.71
0.739829 0.831433 0.409167
-0.876247 0.405925 -1.64917
-0.344669 0.390268 -2.18315
-0.00464442 0.128286 -1.74478
-0.0073795 0.262012 -2.17143
-0.878184 0.264428 -1.34899
-0.319473 0.130407 -1.40232
-0.852459 0.518603 1.70682
-0.336458 0.535652 2.19816
0.00454918 0.175152 1.70621
0.00472661 0.376405 2.23196
-0.880627 0.329034 1.3462
-0.359561 0.172568 1.33954
-0.00604059 0.791797 -1.52158
-0.0080975 0.533516 -2.16893
-0.877192 0.605348 -1.24077
-0.400989 0.810944 -1.18667
0.00449699 0.940518 1.71203
0.00490887 0.697014 2.14305
-0.884999 0.678313 1.35985
-0.3499 1.01077 1.36667
0.895938 0.405452 -1.64738
0.329105 0.390089 -2.03542
0.897483 0.26369 -1.34667
0.312571 0.13015 -1.40077
0.862003 0.517918 1.70701
0.346128 0.53544 2.19781
0.871143 0.328972 1.34667
0.366305 0.172607 1.33985
0.895782 0.603898 -1.24
0.390364 0.810301 -1.18667
0.880647 0.678091 1.36
0.357316 1.01111 1.36667
-0.822177 0.256973 -0.00139123
-0.343512 0.134907 -0.0313912
-0.877383 0.43706 -0.963891
-0.849438 0.456255 -0.301915
0.000107735 0.130201 -1.05889
0.00293543 0.119906 -0.373582
-0.844073 0.46351 0.360061
-0.892607 0.484293 1.02204
0.00383867 0.123393 0.311727
0.00437658 0.165798 0.997036
-0.837828 0.658941 0.0595363
-0.442057 1.13505 0.09
-0.00120877 0.854833 -0.8675
0.00165235 1.08579 -0.229167
0.00254275 1.18132 0.409167
0.00349097 1.0999 1.0475
0.831453 0.253517 2.98023e-08
0.345713 0.134988 -0.0304637
0.892542 0.436355 -0.9625
0.858911 0.455273 -0.300833
0.853637 0.462204 0.360833
0.884489 0.483085 1.0225
0.847024 0.662819 0.06
0.444381 1.13501 0.09
-0.877752 0.263553 -1.69753
-0.878023 0.274424 -1.01209
-0.888193 0.613091 -0.915696
-0.876287 0.561692 -1.5775
0.896769 0.263095 -1.69494
0.895409 0.560699 -1.57661
0.870628 0.614561 -0.915
0.897288 0.27104 -1.01
-0.305242 0.131998 -1.74534
0.29477 0.13209 -1.74364
0.323615 0.132289 -1.0582
-0.324583 0.1324 -1.05959
-0.376359 0.765855 -1.51371
-0.389708 0.838216 -0.8675
0.385603 0.837173 -0.8675
0.36259 0.765325 -1.51371
-0.317839 0.262346 -2.21008
-0.348198 0.525776 -2.13398
0.33196 0.525508 -2.13391
0.303037 0.262256 -2.20928
-0.827187 0.254382 -0.33829
-0.816619 0.268355 0.335507
-0.838519 0.666668 0.384614
-0.843624 0.648484 -0.265541
0.836695 0.246511 -0.336667
0.852759 0.655898 -0.265
0.847718 0.669726 0.385
0.825684 0.264452 0.336667
-0.333111 0.133048 -0.374123
0.335259 0.133151 -0.373041
0.354617 0.136875 0.312114
-0.35023 0.136597 0.311341
-0.436684 1.05543 -0.229167
-0.441316 1.1472 0.409167
0.44519 1.14766 0.409167
0.438584 1.05687 -0.229167
-0.873658 0.307452 1.0093
-0.856371 0.364706 1.6945
-0.819445 0.674725 1.69633
-0.871949 0.663359 1.03477
0.868381 0.305285 1.01
0.88115 0.663916 1.035
0.828901 0.674296 1.69642
0.850033 0.36457 1.69475
-0.364098 0.166164 0.996805
0.37176 0.166187 0.997268
0.34894 0.17465 1.69436
-0.340933 0.174629 1.6942
-0.353808 1.07742 1.0475
-0.32745 0.922986 1.69893
0.336158 0.923348 1.69893
0.360504 1.07702 1.0475
-0.329381 0.388392 2.21456
0.338852 0.388286 2.21446
0.330564 0.683757 2.14931
-0.320729 0.684076 2.14933
-0.524488 0.198839 -1.99023
-0.433005 0.136612 -2.08663
-0.596259 0.122251 -1.91731
-0.669604 0.33269 2.04714
-0.485775 0.222039 2.06796
-0.708376 0.197359 1.8536
-0.696827 0.581876 -1.87479
-0.523364 0.65168 -1.83105
-0.755153 0.715901 -1.66542
-0.625036 0.738827 2.01326
-0.46 0.832682 2.03127
-0.649893 0.831377 1.84542
0.418964 0.133166 -2.0873
0.509222 0.19875 -1.98612
0.58452 0.12092 -1.91375
0.495046 0.22204 2.06796
0.67906 0.332583 2.04723
0.716604 0.197431 1.85375
0.506451 0.651572 -1.83148
0.680358 0.58125 -1.87441
0.739054 0.714873 -1.66542
0.47 0.832529 2.03176
0.63466 0.738084 2.01297
0.65954 0.831302 1.84542
-0.662238 0.107333 -0.888878
-0.686894 0.0996979 -0.546069
-0.813998 0.15052 -0.696331
-0.489837 0.128605 -0.717164
-0.749875 0.104798 0.825168
-0.738983 0.0986705 0.482359
-0.804929 0.177862 0.663085
-0.552894 0.114164 0.653918
-0.78581 0.806759 -0.707917
-0.848708 0.736019 -0.569476
-0.74997 0.790986 -0.38875
-0.595987 0.885032 -0.548333
-0.711156 0.832439 0.887917
-0.814414 0.769833 0.719012
-0.726189 0.827405 0.56875
-0.592607 1.02073 0.728334
0.655288 0.107042 -0.88625
0.491503 0.12678 -0.715309
0.671422 0.109871 -0.54375
0.818372 0.140248 -0.694167
0.755344 0.101801 0.82625
0.560561 0.110682 0.654846
0.738551 0.0996311 0.48375
0.812711 0.172614 0.664167
0.776488 0.805747 -0.707917
[...]
POINT_DATA 3682
SCALARS point_scalars float 1
LOOKUP_TABLE default
-28.564
-34.1377
4.24411
-32.3141
8.61631
-34.8679
2.7387
-32.6653
-35.513
-32.4429
-46.234
-47.3696
-37.0465
-33.7293
-44.7179
-47.4836
-23.5523
-81.7171
-50.2796
-28.6114
-52.3798
-29.39
-28.8977
10.9782
-62.0871
-39.1748
-27.4719
-50.0075
-29.1385
-28.4229
79.3082
-84.4484
-44.1468
-34.9815
-39.5217
-29.4254
-28.3121
6.24618
-64.8546
-67.739
-57.8743
-38.4175
-32.0264
-29.7067
101.761
-72.5298
-38.7159
-32.5753
-38.8097
-28.3856
-26.5552
136.928
-27.5599
-26.6228
148.018
-27.8823
-26.1113
38.3755
-55.2665
-64.9581
-57.2103
-32.1014
-28.4929
-27.7912
66.031
-78.4865
-39.4642
-33.2847
-38.6263
-28.4363
-26.9199
109.552
-28.3821
-27.0557
144.373
-28.0723
-26.6277
33.1712
-58.9319
-65.6061
-57.41
-31.4214
-27.8785
-27.8785
55.9663
-58.1245
-51.7245
-30.5659
-46.4863
-29.7488
-28.9071
55.9663
-85.2377
-35.5859
-30.6122
-43.5035
-29.3798
-28.6327
84.2285
-121.36
-37.6234
-36.4416
-40.2425
-29.6398
-28.5048
13.1052
-73.7025
-72.933
-56.8044
-37.9195
-32.2372
-29.7568
60.1798
-81.3584
-55.4754
-30.8846
-29.7935
-34.9286
4.03644
-52.3992
-28.8947
-45.136
62.9747
-57.3688
-31.311
-34.5009
-55.2654
-44.7488
-31.0711
-40.3548
-36.8941
-29.3138
-38.4249
-48.6869
4.92107
-63.9604
-31.1052
-34.1853
-32.0585
-49.8739
-58.889
-65.0971
-55.0339
-31.5051
200.701
-33.0406
-34.0525
-34.0281
-86.2571
-44.4569
-42.1931
-33.3885
-41.2151
-22.2795
55.8506
-113.981
-83.9759
-31.4331
-31.648
-43.695
35.5087
-12.6168
-60.1574
-31.018
-29.2322
-38.9654
-113.848
60.6042
-84.7183
-32.1132
-31.9832
-41.7243
-12.8015
39.5875
-60.8536
-29.3622
-31.5077
-39.0492
-40.0542
-33.1697
-36.9319
-36.8593
-40.8477
-30.8051
-27.4645
-36.9275
-38.2177
-42.1804
-48.3384
-0.818521
-46.7096
-35.3404
-47.6809
-60.311
-41.2696
-36.9199
-33.3613
-33.6448
-39.6551
-37.1544
-32.0452
-30.6749
-36.6488
0.189851
-36.8909
-49.6964
-46.2438
-60.6098
-36.63
-48.6241
-112.557
192.383
-81.2788
162.433
-59.9421
-54.7267
-46.1477
-26.517
-34.5013
-23.6725
-42.4993
-33.7187
-47.885
43.5733
-57.7416
-37.7877
-33.9868
-25.2045
-48.4338
-41.7432
-130.763
194.552
-65.9948
-54.8084
-46.2745
-27.0208
-40.2134
-33.6465
-64.7126
-37.6282
-45.0546
-41.7205
-31.314
-33.262
-45.056
-33.6626
-41.5527
-34.837
-31.0469
-37.9236
-34.8626
-36.1485
-38.1711
-78.561
-9.90184
-32.2846
-79.0689
-50.5625
-32.0624
-33.3143
-48.9257
-34.4336
-32.4485
-36.9402
-39.5794
-79.0126
-123.189
-47.2838
-47.9925
-108.514
-116.936
-108.4
-44.6685
-51.3805
-80.0994
-79.5839
-41.5039
-41.3871
-47.2845
-17.6706
-16.834
-47.8156
177.027
34.8262
37.7624
164.176
-32.2346
-29.4811
-36.7416
-37.8271
-32.5191
-39.1495
-37.6191
-30.8478
-34.1781
-34.1655
-33.8483
-33.9338
-37.2985
-71.4842
-71.9985
-37.8035
-40.6641
-49.3041
-44.4516
-38.4889
-36.3938
-38.6076
-44.5938
-47.2641
-37.0267
-36.8889
-35.3822
-35.3436
-49.9615
-34.8751
-34.9048
-49.9376
-27.1946
-27.466
-27.3627
-27.0495
61.8952
-131.441
-111.148
-32.0743
-33.4701
-40.9564
28.193
-12.0469
-44.5779
-31.6643
-30.2327
-35.7735
-155.568
64.3904
-113.498
-34.1568
-32.7436
-41.6659
-11.3269
33.7901
-39.8872
-30.4693
-32.3178
-36.1123
-37.7121
-32.9082
-36.5593
-36.2134
-36.015
-31.1425
-28.2352
-35.8001
-38.3717
-46.3171
-47.4605
-17.8709
-47.6554
-42.3062
-47.1156
-53.8818
-36.947
-36.3128
-32.1683
-35.6333
-36.6794
-36.4875
-32.017
-31.192
-36.6691
-15.5105
-41.5258
-47.5987
-47.9427
-54.3878
-43.3491
-48.0224
64.2026
49.757
-41.5453
137.965
-97.68
-109.475
-107.571
-88.9286
-70.0284
-46.5341
-59.8997
-54.3724
-31.0771
-30.6984
-37.8235
-28.061
-30.253
-30.5753
-33.4178
-24.9821
-36.535
-34.4976
-39.688
-34.079
-8.06979
-8.0817
-51.4948
20.9879
-61.2098
-42.8804
-57.117
-43.986
-28.9086
-29.0932
-31.1966
-24.2099
-42.1012
-46.8613
-48.0551
-43.3237
67.3312
56.2529
5.02951
125.479
-71.6966
-47.7667
-65.6881
-54.7843
-31.5102
-31.014
-38.5436
-28.3133
-36.8511
-33.9894
-37.9104
-33.9511
-65.7489
-42.5145
-65.5677
-43.9711
-41.9817
-46.3065
-46.4726
-43.2082
-31.9958
-31.4212
-31.2422
-32.6056
-38.4226
-41.0815
-43.1017
-34.4614
-36.7206
-36.7159
-37.7917
-34.7306
-27.9428
-31.4201
-29.368
-29.2607
-38.4946
-38.435
-36.1094
-36.7468
-49.0777
-47.9921
-44.1261
-63.9462
4.18927
4.35108
1.25939
-7.00931
-63.1927
-63.4264
-71.8437
-56.9376
-32.4632
-31.4271
-31.7123
-32.7435
-33.6058
-35.0673
-38.6431
-34.2132
-31.0572
-33.6697
-31.4233
-33.9461
-49.9861
-48.7484
-45.269
-65.2645
-75.0063
-59.6831
-58.0359
-50.3311
-83.5105
-65.7599
-64.8122
-55.0174
-66.5154
-54.9947
-54.957
-47.1925
-41.6153
-33.0952
-32.929
-22.0334
198.139
199.903
188.125
197.241
-31.9341
-33.47
-32.4188
-35.0797
-32.73
-34.4195
-33.4753
-36.154
-33.8379
-34.2499
-34.1925
-33.8484
-84.1865
-74.3818
-84.7258
-84.3149
-50.4095
-43.7401
-45.8053
-42.1535
-46.6118
-41.2861
-43.0813
-39.9498
-33.4212
-33.4919
-33.4399
-33.5672
-37.408
-41.3664
-41.3643
-45.4527
-23.6994
-20.5878
-24.2694
-24.3538
-31.4293
95.6359
-103.656
-38.8785
-98.3131
-79.1242
-38.2007
-28.4496
-34.6319
-27.8998
-51.4322
-36.8487
-41.4831
56.4527
-36.8128
21.9125
-86.8289
-51.3234
-38.2614
-28.3695
-31.9135
-26.965
-43.1694
-36.3678
-102.589
-48.7123
-1.96891
84.1454
-103.893
-79.0076
-34.8855
-28.4023
-39.4243
-28.8022
-47.9672
-36.7292
-36.6364
22.377
-18.6591
57.5012
-82.0788
-51.9477
-32.0036
-27.2639
-38.8723
-28.6302
-43.2478
-36.4283
-47.1115
-41.1454
-32.3715
-33.8273
-42.7358
-34.2982
-37.8916
-33.9847
-43.8517
-38.5728
-29.6597
-33.2227
-27.9452
-23.384
-34.954
-37.7078
-44.3379
-26.7579
-42.1044
-37.2961
-42.466
-61.7758
-6.99631
-11.8469
-41.8539
-49.8082
-35.759
-35.5727
-43.7922
-56.9056
-65.7809
-54.8416
-48.5072
-41.5781
-37.7999
-33.9903
-32.9879
-33.7853
-40.4486
-32.4881
-37.9296
-38.1761
-35.2027
-37.6663
-30.9966
-32.6008
-29.8542
-31.1581
-43.3986
-24.7933
-5.87194
-12.0826
-38.4458
-38.1477
-44.102
-62.3283
-41.0474
-49.7196
-66.4445
-54.9844
-36.8694
-37.1221
-44.6082
-57.9475
-118.726
-113.883
196.491
157.437
-81.2498
-80.4727
197.82
197.526
-78.95
-50.7552
-66.0437
-46.8245
-47.6341
-44.9753
-26.3271
-26.8602
-34.7424
-34.6749
-24.56
-25.0852
-40.0973
-47.192
-33.8493
-33.9479
-46.8101
-47.1118
43.438
44.1752
-47.4212
-73.6211
-46.0453
-28.0463
-34.1874
-34.2226
-26.0117
-25.6254
-50.2421
-43.5384
-45.6219
-38.1541
-130.825
-124.065
148.212
195.727
-88.2101
-54.5443
-65.7983
-47.0231
-45.6977
-46.8793
-26.8542
-27.2493
-38.7602
-44.4598
-33.7332
-33.8972
-82.461
-54.8655
-27.3039
-46.3884
-41.7319
-47.9904
-38.1377
-45.7456
-31.7675
-30.7959
-33.5802
-33.3132
-45.7723
-46.4505
-32.7189
-35.2252
-41.4625
-41.4559
-34.655
-34.7073
-29.8665
-33.176
-37.9733
-37.2256
-34.6555
-34.6269
-36.3603
-36.3441
-37.6617
-38.1709
-69.8342
-75.8163
-12.6617
-11.8485
-33.0863
-32.6864
-77.7515
-78.0031
-50.3584
-50.3988
-32.3257
-31.7667
-33.6965
-33.433
-46.187
-51.7078
-33.1476
-36.2901
-34.3044
-31.2607
-36.2193
-38.236
-39.569
-38.817
-76.7194
-70.4784
-38.7106
-82.6872
-77.4629
-35.3523
-45.4063
-43.3026
-50.7471
-51.2665
-43.405
-48.6813
-48.9097
-42.0193
-41.9033
-46.3306
-73.4878
-73.9427
-26.3841
3.15115
-86.0361
-89.1524
-34.0054
-79.0901
-82.0696
-7.18025
-40.7101
-37.7127
-54.8936
-51.3206
-45.1691
-53.7129
-54.9847
-39.5278
-99.1648
-107.107
-66.3196
-65.6685
-99.038
-66.0077
-66.1432
-105.378
-37.7574
-37.7689
-47.1535
-46.8497
-37.8954
-46.2245
-47.0912
-37.8544
-38.0427
-51.665
-42.5424
-41.8609
-17.528
-1.00193
-23.1642
-35.1624
-15.0341
-34.3836
-22.7249
-0.24743
-38.2456
-41.8603
-42.4412
-53.1366
80.8847
135.271
198.026
-43.977
37.2529
22.983
196.062
107.228
38.5526
91.0389
191.66
23.499
86.73
1.569
197.762
131.129
-33.508
-31.6199
-32.3946
-34.4573
-28.3863
-28.4649
-31.1899
-30.6408
-43.7442
-44.314
-34.4676
-31.4804
-40.9319
-35.6265
-35.3246
-43.6243
-32.971
-32.8993
-33.0753
-31.7974
-41.8329
-45.132
-36.5144
-35.8277
-43.8759
-33.3924
-35.5936
-45.2934
-29.8893
-31.4256
-32.222
-30.3462
-33.5923
-34.3868
-34.1028
-32.9907
-33.7562
-33.196
-34.1094
-34.4053
-34.2263
-35.9168
-34.0075
-32.965
-33.2109
-32.2479
-33.9981
-35.8413
-39.3537
-69.9161
-72.6008
-7.38278
-54.9537
-70.1528
-83.2302
-59.66
-55.6459
-61.0103
-83.801
-70.4241
-37.0218
-8.22615
-72.7335
-71.3456
-21.0591
-38.443
-41.2643
-26.6439
-39.4193
-38.0533
-48.5273
-44.2737
-38.7874
-47.1427
-51.9496
-37.7418
-42.3551
-32.165
-42.7617
-44.8779
-30.233
-32.6479
-39.5996
-37.6426
-42.903
-43.4191
-40.647
-34.8026
-38.9775
-38.5366
-48.2054
-46.1009
-40.3869
-42.9824
-45.686
-38.9504
-38.0876
-36.8793
-33.6436
-34.0085
-37.2378
-33.8063
-33.5828
-36.8758
-36.794
-33.8782
-33.5202
-34.8443
-36.5105
-34.9211
-33.5484
-33.7923
-51.144
-46.3104
-45.4767
-56.5181
-33.0759
-31.384
-37.6161
-39.7967
-33.1977
-39.7959
-37.6369
-31.4436
-51.4786
-56.4921
-45.491
-46.2348
-29.4523
-25.3815
-22.4436
-27.9769
-29.9109
-28.2739
-23.2476
-25.8244
-28.9604
-26.3562
-25.545
-28.4863
-28.7337
-28.2844
-25.1036
-25.9635
10.9782
-83.7854
-132.281
-32.8797
-33.9991
-38.3839
19.2979
-3.95945
-25.0644
-32.1611
-30.9963
-33.8838
-110.239
31.7138
-121.312
-34.5994
-33.6795
-39.4825
-3.12023
26.4533
-21.901
-31.4566
-32.6747
-34.1844
-39.0238
-32.265
-36.6002
-35.8195
-32.9766
-32.5715
-29.4738
-35.4631
-43.9082
-46.3135
-48.0862
-37.2814
-47.6405
-46.584
-47.1003
-49.7461
-37.6814
-36.4196
-34.9447
-36.9163
-35.0446
-35.7512
-32.4552
-32.0616
-43.5013
-34.642
-43.6919
-47.0201
-47.7111
-50.2863
-46.7781
-47.5174
64.6749
55.4534
17.8146
81.3056
-82.4439
-93.4314
-134.223
-81.3124
-62.2842
-50.4984
-58.9999
-54.3035
-30.9996
-30.708
-34.0352
-28.7367
-29.8204
-30.0177
-31.5181
-25.9643
-35.453
-34.6828
-37.9327
-34.3546
2.38938
2.01434
-30.8512
6.32755
-57.7567
-46.2324
-58.0668
-47.302
-28.9115
-28.9596
-29.9174
-28.6648
-43.3503
-45.7785
-46.8427
-43.9988
66.6247
59.3949
32.9327
85.6179
-64.1121
-51.9298
-63.0256
-55.3709
-31.4156
-31.1889
-34.6855
-29.0861
-35.1372
-34.0766
-36.7687
-34.1676
-62.0974
-47.4409
-61.2413
-48.3097
-43.0692
-45.3032
-45.7062
-43.7668
-31.2919
-31.17
-30.9769
-32.0428
-39.3166
-40.9591
-40.73
-37.969
-36.8178
-36.7744
-36.6168
-36.404
-28.5953
-30.2165
-29.4199
-29.2068
-38.595
-38.617
-36.9859
-37.7335
-48.8392
-48.645
-47.7985
-54.8774
4.98271
4.90528
5.25013
0.855372
-63.8699
-63.9125
-67.6279
-60.5359
-30.7518
-31.6153
-31.4471
-32.2965
-33.8611
-34.7433
-35.5243
-34.248
-31.5676
-32.7113
-31.7668
-32.3925
-49.8114
-49.9032
-48.9626
-56.2121
-65.958
-59.4927
-58.5194
-53.8132
-73.1691
-65.5803
-65.0184
-59.3369
-60.256
-55.1215
-55.0798
-50.763
-37.0281
-31.9514
-31.8727
-26.7394
197.703
201.064
198.204
198.2
-32.4218
-33.3044
-32.7361
-33.8306
-33.283
-34.3184
-33.7561
-35.0057
-33.9745
-34.0803
-34.0585
-33.9649
-85.5554
-84.4581
-87.401
-85.6575
-46.9399
-43.6304
-45.2321
-43.1875
-43.8881
-41.6935
-42.5837
-40.9916
-33.17
-33.435
-33.4311
-33.7059
-39.186
-41.264
-41.2772
-43.3782
-22.5315
-20.9992
-23.5942
-22.9289
63.3252
60.2694
23.3014
60.2103
-122.895
-110.524
-142.987
-50.8525
-92.6006
-78.0873
-86.6654
-78.9421
-31.5869
-31.2578
-34.5833
-29.1023
-32.5593
-30.9017
-33.0268
-29.076
-44.2807
-38.2598
-51.5994
-38.1975
32.9264
41.6791
-3.47892
60.5541
-13.4089
-12.7128
-27.9838
5.08922
-56.001
-63.0702
-70.4397
-54.6477
-31.246
-30.9029
-34.3104
-29.1312
-29.5737
-29.0031
-30.5413
-27.981
-37.4003
-40.4512
-41.8147
-37.2849
-147.757
-114.091
-141.396
-61.8967
65.2957
65.665
39.496
60.9139
-93.395
-79.8026
-87.1255
-79.6597
-33.0334
-31.282
-33.3861
-29.4554
-32.3257
-31.7083
-35.3207
-29.4481
-43.2445
-38.3305
-47.1829
-37.7701
-14.6774
-12.9026
-26.8828
6.99296
37.7739
45.6169
12.5797
59.7243
-57.6339
-68.4923
-70.5629
-55.0199
-29.7582
-29.0629
-30.6715
-28.2582
-31.7213
-31.2354
-35.1304
-29.5107
-37.5619
-40.4914
-41.8389
-37.3832
-38.1849
-43.1189
-44.4373
-40.6676
-32.5702
-32.2762
-32.5988
-33.5288
-36.3942
-37.6696
-39.1021
-36.1712
-36.7223
-36.4056
-37.4186
-35.5122
-48.6822
-35.2056
-45.6158
-39.3267
-30.133
-30.9951
-29.9628
-32.1941
-27.3314
-27.6136
-27.8061
-26.4844
-36.4749
-38.0202
-35.7497
-36.9089
-37.846
-39.8875
-43.0803
-31.7106
-44.6461
-40.9565
-41.2937
-39.9396
-47.5238
-48.8975
-45.6744
-58.6875
-6.93284
2.1454
-2.53214
-3.97755
-47.1836
-46.4225
-44.8969
-48.2171
-38.1842
-32.944
-35.3508
-35.1803
-47.5955
-47.4386
-46.7543
-52.4842
-58.7276
-61.8438
-62.6927
-57.9191
-38.1439
-44.2109
-44.1412
-41.4255
-36.8248
-36.4437
-37.4513
-35.5457
-30.8408
-33.9923
-33.969
-33.6907
-34.2576
-33.4759
-36.4827
-32.2265
-46.3472
-34.6164
-38.065
-38.6796
-36.716
-38.2518
-36.0845
-36.92
-31.9899
-31.3297
-31.3444
-33.2627
-30.6424
-30.7264
-30.2047
-30.8371
-35.6109
-39.2411
-42.2631
-29.3227
-5.62208
2.91546
-2.23615
-3.55191
-38.557
-35.042
-36.1756
-37.7687
-48.7376
-50.1085
-47.7089
-60.0008
-47.2061
-46.0198
-43.6693
-48.1051
-59.1093
-62.0724
-63.4192
-58.024
-39.5477
-34.9147
-36.5022
-36.7475
-48.4904
-48.1802
-47.468
-53.194
-113.749
-91.1946
-114.508
-113.942
186.883
198.718
192.187
197.19
-91.6799
-73.4198
-81.5374
-80.7459
89.5306
190.412
197.742
197.552
-60.1324
-59.8792
-67.4969
-54.7303
-54.4557
-54.7973
-59.9041
-50.3984
-41.777
-51.0726
-46.9108
-45.8316
-27.5668
-25.2559
-26.3451
-26.6924
-34.7519
-33.8309
-34.5625
-34.5175
-24.7952
-21.8203
-23.7936
-24.0819
-41.1165
-43.832
-41.0093
-44.0959
-33.7748
-33.5906
-34.0031
-33.529
-47.9075
-44.5587
-47.0732
-47.2126
31.2661
122.995
43.0096
43.6381
-56.9054
-57.8739
-51.9719
-64.3284
-39.8795
-35.1856
-42.161
-33.3355
-32.6093
-35.5772
-34.0139
-34.0534
-24.5271
-24.9391
-25.4027
-25.2879
-49.175
-46.5907
-51.4231
-46.0724
-42.4167
-41.5707
-43.6451
-40.0279
-97.1112
-99.467
-134.521
-126.314
192.274
196.173
194.596
196.07
-65.9053
-66.0229
-75.1254
-59.5059
-54.6182
-54.8386
-59.8662
-50.5552
-42.7754
-47.8282
-45.8527
-46.5849
-27.8772
-25.8505
-26.8944
-27.1388
-39.2044
-40.9251
-39.1172
-41.8798
-33.7547
-33.5439
-33.9198
-33.4447
-65.2787
-64.7619
-71.881
-59.0758
-39.6904
-34.9912
-32.9201
-42.2102
-45.7454
-43.9159
-43.3357
-47.015
-42.3513
-41.5516
-40.0477
-43.5848
-31.2837
-31.5948
-31.5536
-31.1439
-32.9447
-33.5578
-33.3913
-33.2416
-45.6644
-47.0632
-44.8699
-45.2813
-33.7614
-33.5453
-33.0947
-34.4012
-39.1673
-44.1154
-41.5188
-41.5059
-34.6625
-34.5177
-34.7459
-34.845
-29.9704
-31.8495
-30.3927
-31.8926
-32.0112
-41.0137
-37.9507
-37.7999
-35.4012
-34.4759
-34.8094
-34.7975
-38.1675
-33.8895
-36.1921
-36.3292
-40.2736
-36.4846
-37.9252
-38.1864
-73.0329
-82.8292
-77.9825
-77.8106
-4.55562
-15.7443
-10.1202
-10.9181
-17.2286
-54.1281
-32.8862
-32.7798
-75.6846
-82.2208
-78.7316
-78.8735
-53.8223
-48.0282
-50.4299
-50.4887
-31.7979
-32.396
-32.2061
-32.033
-33.0372
-33.593
-33.4585
-33.3477
-42.881
-51.7124
-47.5013
-50.1157
-34.2818
-34.4493
-33.7419
-35.2788
-31.7177
-33.0615
-33.2907
-31.7984
-34.8328
-39.3004
-36.6575
-37.3801
-41.7031
-37.5659
-39.5998
-38.964
-74.1958
-83.0122
-78.2282
-78.9675
-82.9105
-113.087
-123.538
-101.899
-47.3198
-46.8538
-48.1963
-46.7634
-46.2924
-45.1238
-46.2328
-48.0404
-106.532
-107.749
-111.741
-88.2988
-32.9124
-118.741
-122.055
-116.131
-82.4385
-99.5981
-120.73
-99.7809
-43.8714
-41.4101
-48.5385
-45.0496
-49.9884
-48.6194
-51.4759
-51.7666
-89.3932
-79.4508
-80.6816
-72.6245
-88.7947
-79.0302
-80.1287
-72.2417
-41.5834
-38.9416
-44.0428
-41.4371
-41.2563
-39.0232
-43.8659
-41.4096
-43.9477
-47.354
-47.0848
-48.0603
-21.7132
-11.7661
-22.8531
-15.065
-20.3346
-10.7491
-21.8771
-13.565
-44.9762
-49.0097
-47.4685
-47.9914
147.677
114.968
196.566
198.745
35.7532
36.2692
105.633
37.9219
35.0362
31.5369
41.3789
110.528
113.456
138.037
198.941
195.773
-32.2527
-32.5367
-31.9827
-32.3881
-29.5412
-28.4632
-30.1932
-29.5028
-36.0484
-39.6245
-34.6269
-37.2677
-37.4525
-39.6479
-36.3193
-38.1541
-32.3987
-32.4138
-32.4394
-32.7567
-38.6349
-41.3938
-37.4863
-39.4903
-37.0765
-40.8312
-35.6075
-38.2935
-30.7479
-30.045
-31.2974
-30.9419
-33.9726
-33.9598
-33.8324
-34.3951
-33.9785
-33.8769
-34.4113
-33.8937
-34.4196
-33.3706
-34.2864
-33.5785
-33.6055
-34.3455
-33.6215
-34.2786
-42.874
-25.1505
-51.3549
-35.0695
-65.1046
-68.7145
-74.1906
-75.1408
-69.0045
-65.6262
-75.5344
-74.7191
-24.5947
-42.9305
-34.6109
-51.7001
-41.5831
-33.4192
-39.2347
-38.8623
-42.9739
-50.4908
-48.4847
-50.3075
-41.197
-43.7734
-44.5216
-46.951
-39.6537
-36.5934
-40.232
-37.8735
-36.6966
-33.297
-38.1661
-35.9426
-39.342
-37.8785
-40.4089
-38.1413
-41.752
-43.922
-45.1314
-47.0849
-43.5371
-47.7855
-46.8277
-47.6171
-37.4615
-39.624
-34.3486
-36.6553
-37.259
-39.5099
-34.1828
-36.5904
-36.0026
-35.8975
-35.0227
-34.4606
-35.8376
-35.9534
-34.9523
-34.4567
-50
-52.354
-47.6366
-50.2118
-33.3241
-35.5943
-34.4886
-36.4114
-33.3944
-35.6283
-34.4826
-36.4249
-50.1531
-52.4194
-47.6322
-50.2385
-27.8297
-27.3674
-26.3702
-25.9714
-27.5302
-28.0881
-26.4953
-26.8835
-27.2745
-28.1574
-26.6425
-27.2878
-27.9012
-26.9387
-26.9421
-26.2782
47.5544
80.0109
-139.227
36.5641
-61.0807
-96.7771
-35.4222
-30.6551
-35.3425
-30.7871
-40.7224
-38.0774
-11.0863
46.2825
-27.226
5.26977
-43.0319
-40.6134
-35.5614
-29.801
-31.5111
-29.1004
-38.0631
-33.9921
-135.548
27.4048
57.6974
76.2579
-68.9304
-98.2528
-35.6937
-31.4982
-36.4134
-31.3186
-41.4268
-38.2537
-26.915
6.70321
-3.78232
49.3702
-38.8308
-41.3644
-31.6765
-29.4396
-35.9699
-30.2001
-38.0791
-34.3099
-38.5536
-37.958
-33.2207
-33.3239
-39.1863
-34.6646
-35.8223
-35.094
-28.644
-37.1317
-29.4657
-32.8942
-28.4453
-27.3791
-33.635
-36.8626
-41.9316
-26.1302
-43.4842
-43.0368
-44.0451
-57.6973
-14.7045
-23.9201
-46.7591
-48.854
-43.4657
-42.4681
-46.8088
-50.6706
-54.1349
-52.5518
-37.3655
-37.5107
-36.0248
-35.1214
-32.2587
-32.9095
-38.3696
-33.8599
-32.0908
-37.3114
-35.319
-37.245
-30.533
-33.6662
-30.1212
-31.0388
-40.67
-22.2347
-12.2422
-21.908
-40.3996
-40.8582
-44.7129
-58.5912
-46.9241
-48.8923
-54.9351
-52.9111
-43.8105
-42.9979
-47.7453
-51.6999
29.5607
79.9792
1.58259
71.0742
-40.193
-44.9007
141.343
126.151
-143.365
-94.1082
-139.487
-93.3691
-107.859
-107.54
-58.983
-39.4799
-80.7667
-66.8574
-49.0898
-46.0545
-67.9112
-54.5455
-59.4225
-49.8814
-34.255
-28.7238
-34.2533
-28.8606
-37.911
-37.845
-27.9873
-28.1749
-31.871
-26.7067
-32.0984
-27.0997
-33.6005
-33.646
-24.8186
-24.92
-41.2991
-35.6004
-37.0649
-34.0511
-38.2223
-40.5936
-34.0939
-34.2534
-32.0501
6.12906
-31.1859
6.32158
-47.1766
-48.9401
21.7635
21.9801
-69.4697
-56.3617
-47.7394
-38.205
-53.1039
-64.3858
-48.5646
-40.0497
-30.0337
-27.4159
-30.102
-27.3273
-31.2627
-31.2974
-24.8233
-24.4567
-45.249
-40.7433
-45.9187
-47.2497
-47.6312
-46.5283
-44.9051
-41.5343
36.3888
81.8542
23.1585
74.35
5.37917
-0.179982
121.814
135.022
-86.5877
-67.2423
-52.0191
-47.0002
-74.409
-58.5876
-60.0305
-50.3349
-34.9965
-29.1201
-34.7203
-29.2097
-38.5613
-38.7187
-28.2703
-28.4197
-40.9741
-35.5368
-36.2603
-33.7304
-37.0841
-39.11
-33.9398
-34.151
-73.5185
-59.0697
-49.2524
-37.7266
-71.687
-58.0668
-39.5503
-49.0104
-44.7131
-40.6638
-45.3085
-47.0681
-44.9559
-46.6268
-41.5541
-44.8276
-31.6772
-32.6766
-30.8209
-32.1438
-31.3962
-30.9592
-32.862
-32.3369
-40.029
-37.3604
-40.7268
-38.6851
-43.3838
-42.7247
-34.5186
-34.8599
-36.3611
-36.2256
-36.3196
-36.2454
-37.7821
-37.9001
-34.5941
-34.5864
-28.2063
-27.5126
-31.4319
-31.7039
-28.847
-30.2096
-28.0893
-30.6164
-36.7394
-37.7576
-36.8214
-37.7671
-36.0478
-36.0333
-36.7755
-36.7694
-47.4402
-56.1254
-47.111
-53.3549
-44.4832
-44.0671
-68.3284
-61.8175
3.79322
-0.153921
3.98726
-0.290198
0.0765476
1.06097
-7.10075
-7.20543
-66.6462
-59.5062
-66.73
-59.8738
-71.5709
-71.6769
-56.7658
-56.7916
-31.7962
-32.7885
-31.2693
-32.5912
-31.643
-31.4899
-32.9389
-32.6177
-35.9033
-32.8612
-35.7183
-35.8916
-38.2248
-39.0552
-33.5443
-34.9475
-30.6031
-31.5508
-33.519
-34.0241
-32.2802
-30.8939
-33.4103
-34.2797
-48.8839
-57.6871
-48.2386
-54.1742
-45.3774
-45.5986
-63.1997
-70.3155
-76.163
-74.1755
-66.8373
-54.5984
-53.0079
-64.6169
-50.4074
-49.5282
-84.6454
-82.5109
-74.325
-59.6947
-72.3157
-59.1481
-54.9766
-54.9434
-66.5531
-66.5186
-60.1865
-50.5757
-60.0798
-50.592
-47.2844
-47.1919
-41.7924
-41.8454
-38.4034
-28.2321
-27.937
-38.2361
-22.4427
-22.3049
198.078
197.847
197.93
197.713
192.333