# vtk DataFile Version 2.0
tri_press
ASCII
DATASET UNSTRUCTURED_GRID
POINTS 3682 float
-0.855 0.165 -2.12963
-0.697519 0.155 2.025
-0.765 0.530153 -2.025
-0.565 0.855 2.03884
0.845 0.165 -2.13004
0.745 0.155 2.02086
0.755 0.530629 -2.025
0.565 0.855 2.03884
-0.820407 0.143766 -0.744753
-0.766668 0.141678 0.640124
-0.822385 0.762487 -0.670387
-0.737818 0.852869 0.684227
0.874638 0.098695 -0.746407
0.826646 0.11002 0.637227
0.819814 0.766899 -0.670387
0.736378 0.854921 0.684227
-1.6608 -0.191766 -3.26041
-1.6494 -0.129008 -2.16479
-1.60104 -0.143879 -0.779224
-1.51039 -0.173142 0.612469
-1.42744 -0.171849 1.99855
-1.4174 -0.149678 3.09668
-1.4321 -0.11727 4.19011
-1.66933 0.0672398 -3.21868
-1.66204 0.158313 -2.12637
-1.61822 0.17474 -0.74653
-1.5038 0.164934 0.636124
-1.39053 0.167171 2.01655
-1.40093 0.190308 3.1143
-1.4317 0.222716 4.20871
-1.64154 0.53437 -3.12693
-1.61149 0.618356 -2.03357
-1.61238 0.785137 -0.674341
-1.48147 0.857723 0.682861
-1.3179 0.866444 2.04277
-1.37472 0.886684 3.14242
-1.43939 0.915138 4.24207
-1.62497 1.41075 -3.01135
-1.60776 1.5187 -1.92233
-1.59828 1.70238 -0.572864
-1.56158 1.84398 0.77028
-1.5116 1.90816 2.12028
-1.50262 1.93415 3.21044
-1.51861 1.95742 4.30685
-0.851091 -0.190997 -3.26264
-0.833025 -0.127559 -2.16802
-0.797331 -0.166766 -0.779434
-0.7528 -0.195481 0.615398
-0.708865 -0.184635 2.00415
-0.707835 -0.16087 3.10025
-0.719039 -0.127767 4.19188
-0.865634 0.05979 -3.21951
-0.712479 0.180746 3.1173
-0.729721 0.213239 4.20993
-0.841584 0.495271 -3.12345
-0.696536 0.878983 3.14135
-0.747533 0.907654 4.24138
-0.827904 1.38199 -3.00796
-0.811149 1.49111 -1.91857
-0.81925 1.69133 -0.570725
-0.818982 1.84429 0.769654
-0.799824 1.90786 2.11781
-0.797198 1.93152 3.20792
-0.80939 1.95334 4.30485
0.802871 -0.197957 -3.26321
0.849122 -0.13827 -2.16873
0.869647 -0.20093 -0.780981
0.828231 -0.223115 0.61285
0.766584 -0.194173 2.00087
0.725731 -0.169095 3.09767
0.712112 -0.137302 4.18986
0.78003 0.0561168 -3.21994
0.679465 0.175371 3.11481
0.677253 0.205003 4.20802
0.749347 0.493474 -3.1237
0.600181 0.874886 3.14017
0.625332 0.900569 4.23996
0.760554 1.37764 -3.00835
0.772931 1.48744 -1.91892
0.746063 1.68726 -0.57112
0.675523 1.83919 0.769164
0.61537 1.90196 2.11717
0.60165 1.92469 3.20708
0.603106 1.94543 4.30382
1.62927 -0.208219 -3.26164
1.67374 -0.152979 -2.16628
1.68281 -0.194549 -0.781852
1.60962 -0.219437 0.608362
1.51345 -0.197342 1.99348
1.46211 -0.169706 3.09216
1.44456 -0.137696 4.18629
1.60922 0.0562381 -3.21965
1.6609 0.14487 -2.12744
1.67712 0.126938 -0.748788
1.58498 0.120984 0.632344
1.46199 0.147052 2.01166
1.40955 0.174218 3.11004
1.40362 0.204498 4.20509
1.56881 0.528019 -3.12759
1.59489 0.615316 -2.03403
1.62017 0.772342 -0.675189
1.49902 0.840446 0.681444
1.32893 0.85352 2.04087
1.31706 0.873918 3.13985
1.34121 0.899266 4.23925
1.5545 1.40078 -3.01222
1.56215 1.50954 -1.92314
1.52902 1.69189 -0.573793
1.43905 1.83151 0.769133
1.35207 1.89454 2.11884
1.32546 1.91924 3.20866
1.32573 1.94087 4.30476
-0.824423 0.347576 -2.09174
-0.005 0.161892 -2.13294
-0.840258 0.151829 -1.43719
-0.645914 0.505 2.04657
0.0237405 0.223728 1.9542
-0.739339 0.141094 1.33256
-0.005 0.686413 -2.18102
-0.859224 0.711852 -1.34769
0 0.93405 2.11789
-0.709838 0.912363 1.36153
0.814955 0.347814 -2.09248
0.839459 0.152208 -1.43822
0.65815 0.505 2.033
0.778272 0.140061 1.32904
0.857551 0.718908 -1.34769
0.708768 0.91304 1.36153
-0.793045 0.143215 -0.052315
-0.856192 0.453127 -0.70757
0.0271159 0.117146 -0.74558
-0.870974 0.497274 0.662175
0.0299895 0.11807 0.638675
-0.774404 0.801981 0.00691998
-0.00128555 1.08744 -0.670387
-0.000720205 1.31656 0.684227
0.84296 0.11204 -0.05459
0.857972 0.432797 -0.708397
0.872399 0.482471 0.660727
0.771741 0.804555 0.00691998
-0.861469 0.400351 -1.39244
0.864351 0.390306 -1.39296
0.0110579 0.151239 -1.43771
-0.00314277 0.953971 -1.34769
-0.005 0.347695 -2.25229
-0.866144 0.4752 -0.0226975
0.868982 0.457634 -0.023835
0.0285527 0.1136 -0.0534525
-0.00100288 1.31994 0.00691998
-0.876153 0.501137 1.34705
0.876299 0.493735 1.34529
0.026865 0.143136 1.3308
-0.000360102 1.1607 1.36153
0.0118703 0.505 2.26473
-0.849077 0.256288 -2.12005
-0.43 0.161724 -2.13301
-0.848755 0.157288 -1.78341
-0.676158 0.33 2.04023
-0.336889 0.227211 1.95175
-0.715603 0.150873 1.67878
-0.779352 0.438865 -2.04301
-0.385 0.634352 -2.12908
-0.820718 0.629609 -1.68635
-0.597416 0.68 2.03467
-0.2825 0.910795 2.09464
-0.666068 0.912331 1.70019
0.42 0.16172 -2.13322
0.839478 0.256407 -2.12076
0.841363 0.15947 -1.78413
0.38437 0.228075 1.94882
0.681314 0.33 2.00667
0.766087 0.14308 1.67495
0.375 0.636801 -2.13129
0.769667 0.439222 -2.04343
0.818827 0.637321 -1.68635
0.2825 0.910793 2.09463
0.603857 0.68 2.0282
0.665585 0.91272 1.70019
-0.829681 0.148449 -1.09097
-0.806642 0.143574 -0.398534
-0.870352 0.28242 -0.726162
-0.395745 0.132257 -0.745167
-0.753339 0.14105 0.986343
-0.779399 0.142903 0.293904
-0.889271 0.284251 0.651149
-0.366849 0.132855 0.639399
-0.825625 0.72199 -1.00904
-0.841547 0.608936 -0.688979
-0.799043 0.782882 -0.331733
-0.467522 1.03633 -0.670387
-0.739132 0.89792 1.02288
-0.849934 0.69784 0.673201
-0.751382 0.822696 0.345573
-0.460358 1.26689 0.684227
0.834274 0.148226 -1.09232
0.447055 0.115565 -0.745993
0.87472 0.0894465 -0.400498
0.870768 0.263515 -0.727402
0.788457 0.139043 0.983135
0.428642 0.113397 0.637951
0.835589 0.110245 0.291318
0.888548 0.276733 0.648977
0.824118 0.72834 -1.00904
0.464142 1.03692 -0.670387
0.842413 0.601608 -0.689392
0.795679 0.785629 -0.331733
0.737586 0.898993 1.02288
0.458544 1.26717 0.684227
0.85083 0.691916 0.672477
0.749231 0.82491 0.345573
-0.854805 0.373964 -1.74209
-0.414711 0.347636 -2.2507
0.00302897 0.157271 -1.78533
-0.005 0.254794 -2.22755
-0.858524 0.27609 -1.41482
-0.4146 0.149632 -1.43745
-0.836954 0.503068 1.69681
-0.317022 0.505 2.24452
0.0253027 0.143882 1.6425
0.0178054 0.364364 2.25475
-0.871471 0.321115 1.3398
-0.356237 0.143295 1.33168
-0.00407138 0.905247 -1.76436
-0.005 0.517054 -2.23473
-0.862063 0.556102 -1.37007
-0.431183 0.925068 -1.34769
-0.000180051 1.04316 1.73971
0.00593513 0.719525 2.23455
-0.885766 0.70675 1.35429
-0.355099 1.1229 1.36153
0.845517 0.36906 -1.74272
0.404978 0.347755 -2.25154
0.865834 0.271257 -1.41559
0.425259 0.149499 -1.43797
0.839874 0.499368 1.68914
0.33501 0.505 2.23945
0.871608 0.316898 1.33717
0.402569 0.143355 1.32992
0.862082 0.554607 -1.37033
0.427204 0.925535 -1.34769
0.885797 0.703387 1.35341
0.354204 1.1231 1.36153
-0.898351 0.274829 -0.0375063
-0.380025 0.13285 -0.0528837
-0.868505 0.426739 -1.05001
-0.863528 0.464163 -0.365134
0.0190869 0.148776 -1.09164
0.0278343 0.112641 -0.399516
-0.864979 0.486237 0.319739
-0.886287 0.499205 1.00461
0.0292711 0.112647 0.292611
0.0284272 0.141988 0.984739
-0.841436 0.649172 -0.00788876
-0.49174 1.26903 0.00691998
-0.00221416 0.975792 -1.00904
-0.00114422 1.23309 -0.331733
-0.000861542 1.33808 0.345573
-0.000540154 1.26129 1.02288
0.89689 0.264378 -0.0392125
0.435733 0.112867 -0.0540212
0.869296 0.411552 -1.05068
0.866096 0.445216 -0.366116
0.867545 0.470052 0.318446
0.886154 0.488103 1.00301
0.842355 0.642091 -0.00845751
0.488971 1.26945 0.00691998
-0.817007 0.266189 -1.76275
-0.868407 0.287268 -1.07049
-0.865651 0.581954 -1.02952
-0.832799 0.497483 -1.71422
0.81619 0.263832 -1.76342
0.832713 0.496914 -1.71453
0.865639 0.577228 -1.02986
0.873812 0.268501 -1.0715
-0.4223 0.155646 -1.78437
0.422629 0.155533 -1.78473
0.438068 0.146354 -1.09198
-0.405623 0.146265 -1.09131
-0.408092 0.881771 -1.72535
-0.421509 0.948818 -1.00904
0.418234 0.949101 -1.00904
0.401102 0.882525 -1.72535
-0.422356 0.255541 -2.23016
-0.399856 0.477959 -2.20002
0.389989 0.478138 -2.1999
0.412489 0.255601 -2.23016
-0.888892 0.276354 -0.381834
-0.898064 0.277413 0.306822
-0.838385 0.669856 0.332656
-0.84245 0.629533 -0.348434
0.88798 0.261871 -0.383307
0.84338 0.622348 -0.348925
0.839253 0.663334 0.33201
0.897141 0.268344 0.304882
-0.387725 0.132874 -0.399025
0.442196 0.112611 -0.400007
0.432187 0.113132 0.291965
-0.373437 0.132852 0.293258
-0.492955 1.17933 -0.331733
-0.485745 1.28735 0.345573
0.483449 1.28769 0.345573
0.489886 1.17985 -0.331733
-0.881089 0.320296 0.995477
-0.835581 0.325558 1.6878
-0.822095 0.693375 1.6985
-0.894837 0.690911 1.01375
0.877018 0.306572 0.993071
0.89473 0.686042 1.01294
0.823358 0.691694 1.69467
0.836911 0.323449 1.68205
-0.362288 0.142065 0.985541
0.415443 0.14213 0.983937
0.393469 0.144149 1.65873
-0.346563 0.145554 1.66064
-0.362184 1.22394 1.02288
-0.318799 1.015 1.71995
0.318352 1.01507 1.71995
0.361016 1.22414 1.02288
-0.326956 0.347182 2.20213
0.35969 0.347182 2.19353
0.308755 0.699763 2.19706
-0.299761 0.699763 2.19969
-0.85271 0.210644 -2.12551
-0.6425 0.162162 -2.13252
-0.855006 0.158016 -1.95652
-0.695931 0.2425 2.04171
-0.517204 0.23212 1.94736
-0.707272 0.152225 1.85189
-0.77494 0.484509 -2.03677
-0.575 0.566175 -2.06096
-0.771623 0.558645 -1.85567
-0.581898 0.7675 2.03744
-0.42375 0.883518 2.06736
-0.6258 0.893931 1.86951
0.6325 0.162171 -2.13282
0.843706 0.210704 -2.12687
0.847862 0.157554 -1.95709
0.564685 0.237897 1.93848
0.727285 0.2425 2.02789
0.759432 0.145151 1.84791
0.565 0.572814 -2.06725
0.765453 0.484925 -2.03733
0.770187 0.567248 -1.85567
0.42375 0.88352 2.06736
0.584637 0.7675 2.03373
0.625507 0.894075 1.86951
-0.826306 0.144846 -0.917863
-0.813553 0.143642 -0.571644
-0.880536 0.195515 -0.735458
-0.608606 0.136952 -0.74496
-0.75943 0.141938 0.813233
-0.77255 0.142775 0.467014
-0.879873 0.187013 0.645636
-0.567027 0.136729 0.639761
-0.8236 0.741833 -0.839714
-0.832806 0.686132 -0.679683
-0.811976 0.773946 -0.50106
-0.675738 0.960981 -0.670387
-0.743101 0.88002 0.853553
-0.812142 0.784488 0.678714
-0.743658 0.836841 0.5149
-0.637208 1.13612 0.684227
0.833062 0.144854 -0.919361
0.655959 0.116905 -0.7462
0.852369 0.116381 -0.573453
0.862822 0.186045 -0.736904
0.82089 0.111193 0.810181
0.62648 0.114037 0.637589
0.831056 0.110194 0.464273
0.879185 0.182582 0.643102
0.822684 0.748338 -0.839714
0.672099 0.962154 -0.670387
[...]
POINT_DATA 3682
SCALARS point_scalars float 1
LOOKUP_TABLE default
-65.6156
-40.3735
-79.5
-33.3603
-115.185
-43.5437
-77.1674
-34.2738
-35.6784
-36.4564
-41.9778
-45.5648
-39.2286
-39.5277
-42.5487
-45.894
-65.6156
-163.666
-34.5454
-37.2476
-40.491
-40.484
-30.6489
-65.6156
-163.666
-36.8385
-38.3113
-39.4433
-34.103
-30.3277
-73.3376
-107.915
-40.8727
-39.2493
-41.9343
-31.5462
-30.8354
-79.8668
-68.2649
-60.0958
-60.5226
-40.5688
-33.7284
-31.8761
-1.2347
-107.079
-36.4506
-36.3904
-37.0612
-30.858
-28.522
-1.2347
-29.8165
-27.8963
155.54
-30.6588
-28.4912
-8.57175
-75.7927
-46.1008
-62.7146
-37.3533
-32.0009
-31.2117
6.22808
-88.7567
-37.1605
-39.8128
-38.5839
-32.8207
-29.7728
6.22808
-30.8965
-29.379
176.005
-30.5042
-29.8639
0.236154
-74.4438
-41.9797
-63.173
-36.1822
-32.3582
-31.7302
-126.537
-126.537
-38.9926
-39.0304
-44.3641
-41.23
-34.8865
-40.1156
-127.418
-38.172
-39.8063
-43.9841
-34.8865
-32.0777
26.7745
-103.58
-40.6735
-39.2267
-42.8996
-32.365
-31.8257
-90.0759
-68.2947
-57.9934
-61.0587
-39.7362
-33.8499
-32.7021
-105.282
-147.866
-45.8677
-32.7885
-34.4112
-38.5191
107.064
-61.8695
-32.1573
-49.6517
-108.557
-46.1138
-34.2692
-36.991
-61.7866
-49.8558
-35.0687
-37.9948
-39.4875
-36.7987
-39.8489
-48.3812
8.65675
-70.2709
-34.3116
-37.948
-37.442
-48.8931
-55.9037
-56.7419
-53.8005
-32.7999
189.204
-40.088
-40.6104
-37.5983
-86.7355
-46.4437
-45.7714
-36.2809
-45.3484
-24.45
-88.422
-151.241
-64.3208
-33.8598
-35.4751
-42.2656
-104.159
81.746
-75.3337
-32.5243
-32.2279
-41.6002
-151.657
-92.5625
-61.0014
-36.9205
-35.4161
-40.2567
84.4281
-107.797
-75.5511
-32.6824
-33.6818
-42.1123
-36.5331
-34.7969
-35.7125
-39.1827
-38.3108
-35.6382
-38.1745
-37.1176
-45.6988
-39.4052
-46.568
-3.95667
-51.9892
-37.621
-47.0079
-65.7655
-33.7959
-41.6306
-41.5783
-35.2874
-35.897
-38.952
-37.4984
-39.8176
-45.5497
-3.73314
-39.4922
-47.1495
-52.4794
-65.9703
-37.8415
-47.44
-72.6531
187.029
-79.4506
188.111
-51.9825
-51.9757
-46.6692
-28.0673
-37.0279
-25.2614
-43.8638
-36.9261
-63.739
192.503
-60.5862
-38.3588
-37.3693
-29.459
-49.8716
-45.8134
-66.9455
186.55
-52.6452
-50.7232
-47.3313
-30.0622
-42.5058
-36.2404
-61.1323
-38.4111
-49.7649
-45.9527
-37.4262
-36.5704
-46.1107
-38.9272
-40.3249
-38.5937
-39.3923
-43.4842
-37.9156
-37.5845
-42.6071
-78.082
-10.1832
-29.2117
-82.4267
-57.682
-38.3327
-37.5486
-46.3899
-39.3483
-39.9653
-43.1624
-43.0239
-78.4665
-63.8676
-43.0936
-48.0762
-75.5012
-59.3573
-73.578
-48.2434
-43.0186
-76.327
-75.417
-36.9695
-39.674
-65.5416
-18.0726
-17.9797
-64.6636
163.712
154.046
155.471
156.019
-35.9142
-37.9694
-41.5581
-41.2847
-37.1374
-41.6151
-41.9445
-38.8789
-37.1648
-38.5155
-37.9698
-36.7557
-35.5096
-72.9111
-73.0662
-35.0531
-40.1948
-48.0913
-45.5508
-46.0258
-39.3311
-46.0858
-46.4281
-45.6348
-38.007
-37.0933
-38.1203
-37.9598
-57.1614
-37.9433
-38.1849
-57.3555
-29.2454
-31.1874
-31.2958
-30.4512
-55.1986
-170.034
-91.5616
-36.447
-37.0919
-41.695
-98.5187
22.8144
-79.2425
-32.7888
-32.4628
-37.5022
-170.782
-92.6262
-87.992
-38.8128
-39.4016
-44.2768
29.6444
-96.4777
-77.4152
-33.1301
-33.9174
-38.2298
-33.4571
-35.1783
-36.5045
-38.0044
-38.5192
-36.0173
-38.7117
-36.5999
-40.9655
-40.7786
-44.4832
-41.0519
-49.6774
-41.0213
-45.4836
-56.5719
-23.0213
-40.5889
-34.1489
-36.5844
-45.7303
-41.0538
-37.9485
-39.8536
-41.2605
-40.7283
-40.8723
-44.7363
-49.8183
-56.843
-41.0684
-45.8555
-104.93
-109.713
-95.9315
124.472
-150.967
-150.099
-101.036
88.3779
-44.1247
-41.4327
-49.1207
-49.4537
-33.2288
-32.6583
-38.5257
-30.6897
-34.4777
-35.3081
-37.0493
-28.158
-40.468
-37.6661
-42.1375
-37.754
102.319
103.103
-105.612
163.699
-69.5742
-56.9789
-62.7507
-48.2371
-32.1461
-32.3786
-34.5643
-31.466
-46.3643
-52.6613
-51.0286
-47.9418
-100.177
-112.63
-94.7179
123.521
-43.4637
-39.9224
-49.6264
-48.033
-34.9859
-33.8778
-40.0441
-31.921
-38.4097
-36.5592
-40.6812
-36.6251
-69.0363
-57.5322
-63.4445
-48.2465
-46.693
-52.8029
-51.2236
-48.115
-34.7883
-35.3684
-35.7201
-35.9143
-36.9435
-38.6121
-41.3757
-38.1361
-39.4145
-40.7008
-35.8875
-39.5747
-37.2212
-36.7839
-37.8067
-39.8743
-38.8936
-39.6367
-38.6166
-38.9232
-48.4707
-48.2502
-45.1664
-59.8197
6.67501
6.71138
2.55361
-5.24352
-69.418
-69.5021
-77.8074
-63.3246
-38.3469
-35.0836
-36.7491
-37.2567
-36.715
-38.6165
-41.2711
-38.3227
-38.2614
-37.2138
-38.5645
-40.3798
-48.9235
-48.6618
-45.5723
-60.4269
-61.8426
-54.0072
-58.5073
-49.5127
-63.2624
-54.8736
-59.1727
-49.6207
-64.8238
-53.5301
-52.8214
-45.8422
-46.8632
-34.8835
-34.7903
-21.4215
189.392
184.551
205.584
189.3
-38.9532
-39.646
-40.0859
-41.178
-39.6089
-40.1816
-40.6159
-41.6081
-37.2288
-37.9648
-37.6048
-37.7734
-86.4006
-78.4374
-85.4626
-86.4332
-48.0436
-45.1159
-47.921
-45.6641
-47.6115
-44.2019
-47.631
-45.1993
-36.5649
-36.5187
-36.1427
-36.2304
-40.8488
-45.4918
-45.5623
-50.635
-25.2964
-23.5334
-27.2503
-27.4098
-94.1759
123.172
-98.4412
50.7706
-62.3181
-70.2408
-39.8962
-31.0422
-38.1621
-29.9457
-49.6586
-39.1026
-85.9557
107.573
-96.7241
111.707
-78.1056
-69.3477
-37.947
-30.9866
-34.7993
-31.253
-45.2512
-39.1032
-97.7797
56.2958
-89.3651
118.286
-57.9989
-68.8495
-39.1559
-31.7355
-43.2922
-32.6826
-39.5452
-39.0254
-96.8736
115.518
-80.6219
108.891
-77.2808
-69.0052
-35.142
-31.8262
-39.1101
-31.9133
-46.078
-39.4477
-40.5327
-38.499
-34.7309
-36.2047
-38.9772
-35.4088
-36.2696
-37.8594
-38.5205
-38.7163
-36.7445
-36.1596
-37.8502
-40.5709
-37.1085
-39.0663
-48.4111
-30.1333
-41.5553
-40.2528
-42.9158
-60.2559
-8.14749
-16.9564
-48.9768
-57.6928
-39.3333
-39.672
-44.7933
-56.3281
-70.6072
-62.1014
-39.8141
-34.9138
-31.4195
-39.5054
-37.5792
-38.3931
-39.7184
-35.7089
-37.2016
-36.9051
-38.5953
-43.882
-37.8778
-37.7283
-39.0742
-42.0736
-48.5905
-30.1115
-8.00141
-16.9173
-41.8234
-40.4229
-43.3351
-61.2159
-49.046
-57.7917
-70.802
-62.2377
-39.6263
-39.7585
-45.0288
-56.6644
-66.8031
-75.031
188.955
180.856
-79.1155
-78.6414
178.858
178.885
-55.3633
-45.8721
-62.0979
-44.8016
-47.4541
-46.2718
-28.1939
-29.647
-37.3316
-37.0675
-26.5372
-28.2318
-42.9785
-47.2402
-36.7436
-37.421
-62.6894
-62.6355
188.414
188.75
-52.4793
-70.5604
-49.7021
-29.0691
-37.4954
-37.5905
-30.1737
-29.4335
-49.9315
-48.1888
-50.8882
-41.51
-61.3908
-70.8865
180.855
188.383
-55.9856
-45.8636
-61.0602
-42.9844
-47.1133
-47.3892
-30.4635
-30.9596
-41.4372
-44.2896
-35.8984
-36.922
-71.7108
-52.7463
-29.0502
-49.3991
-48.1218
-50.2679
-41.6829
-51.0043
-36.765
-37.9091
-36.8187
-36.6126
-44.7635
-46.976
-37.9032
-39.9528
-39.1861
-40.4799
-38.0583
-38.7263
-38.8071
-40.2486
-41.7869
-45.2162
-38.0861
-37.4495
-37.6175
-37.425
-42.4002
-42.4021
-75.0982
-75.3143
-12.0342
-11.9802
-28.105
-28.1655
-80.3657
-80.4506
-57.3911
-57.442
-38.0647
-38.6412
-37.8651
-37.5759
-47.1604
-45.0135
-38.5246
-40.3107
-40.6837
-39.5595
-41.2206
-45.3001
-42.795
-42.8214
-75.5407
-75.3924
-91.2869
-49.1326
-58.8966
-94.6563
-35.655
-40.3386
-47.769
-43.6384
-41.2732
-54.496
-51.1797
-42.0781
-79.2515
-89.3547
-66.2689
-72.9222
-88.0338
-92.12
-60.5573
-48.4249
-76.9867
-73.5758
-67.5003
-87.5552
-41.4481
-42.1621
-51.4393
-54.568
-35.4787
-43.6579
-47.8166
-40.3161
-95.3615
-100.857
-64.4069
-57.5462
-93.9984
-56.3181
-63.8483
-100.456
-28.6162
-34.3642
-44.898
-40.853
-35.8185
-43.0612
-45.8432
-36.4836
-83.4085
-56.4531
-46.9901
-90.6937
-30.143
-0.316168
-23.0203
-39.5903
-30.0012
-39.4946
-22.9599
-0.224182
-82.1888
-91.0937
-46.8818
-56.0779
31.4303
144.201
185.163
77.6512
43.4039
159.759
200.145
131.492
47.7486
130.414
199.138
160.494
39.7939
55.5807
183.223
146.29
-34.8417
-34.9569
-38.4659
-36.9559
-37.0891
-37.8393
-39.2166
-36.3263
-42.9969
-45.1762
-41.0754
-38.0912
-41.7145
-39.0639
-40.7761
-45.1857
-34.1099
-37.1349
-39.2043
-38.2422
-41.8888
-45.584
-41.184
-39.2734
-43.0893
-38.5679
-41.5043
-45.5247
-38.9287
-37.7132
-39.8626
-38.753
-36.7415
-38.8907
-37.5216
-36.0033
-39.3456
-37.5161
-38.1123
-39.733
-38.6893
-38.7165
-37.7267
-37.2717
-36.3654
-35.9578
-37.2043
-37.9541
-59.7662
-61.5251
-78.6584
-7.02498
-55.6602
-76.0426
-83.2238
-57.7631
-55.9668
-58.2485
-83.315
-76.1133
-58.8594
-7.02713
-78.762
-62.6278
-41.1612
-41.6413
-44.2445
-40.3932
-40.2501
-39.3259
-47.3691
-46.9056
-37.912
-48.7036
-49.02
-38.1061
-46.252
-38.8428
-47.0807
-50.776
-45.9371
-41.2632
-43.6234
-39.4515
-46.3125
-50.8318
-46.724
-39.1412
-38.9545
-39.4892
-49.142
-49.1639
-43.6685
-41.9277
-46.3784
-41.5032
-37.0359
-39.0597
-36.3966
-37.5451
-42.5651
-36.1471
-36.0272
-40.7815
-42.6591
-37.7306
-36.5053
-37.4612
-42.8794
-38.2618
-36.942
-37.1472
-56.653
-53.0601
-50.6878
-63.0376
-35.5513
-34.6337
-40.9989
-43.0416
-36.0467
-43.2818
-41.0949
-34.7867
-56.8693
-63.111
-50.7503
-53.1716
-33.7813
-28.4649
-24.2312
-30.6402
-33.7378
-32.0835
-26.7537
-29.6688
-32.1408
-31.587
-28.7816
-32.0275
-31.3678
-31.1635
-27.3965
-31.2652
-64.0652
-143.678
-138.801
-40.1563
-37.2437
-37.795
-86.5769
-26.6673
-97.612
-32.9983
-32.7971
-35.292
-149.406
-109.286
-131.9
-39.146
-41.7896
-39.4691
-24.5599
-87.9633
-93.4063
-33.5652
-34.0607
-36.0903
-35.2269
-35.7515
-35.8639
-37.0631
-37.2463
-36.1797
-37.5798
-36.8324
-39.9563
-41.8135
-43.8087
-46.8639
-47.3209
-43.6726
-45.5086
-49.32
-26.2242
-40.9241
-42.8557
-38.6649
-41.1507
-42.0257
-38.7429
-39.391
-40.6587
-47.3234
-41.8331
-44.1027
-47.4963
-49.6805
-43.9153
-45.8527
-104.925
-110.564
-139.659
37.0811
-148.175
-147.852
-120.044
-26.4208
-48.8207
-44.8955
-46.7457
-48.0273
-32.9667
-32.6984
-35.6648
-31.3986
-34.3232
-34.7268
-38.2956
-29.7905
-39.1203
-37.6535
-40.2492
-37.7638
108.735
108.319
-66.2405
142.793
-64.7454
-57.8689
-64.3622
-54.6452
-32.2096
-32.3236
-33.3637
-31.8462
-48.0226
-51.038
-50.2423
-49.6638
-103.782
-118.202
-132.48
29.4169
-49.5545
-43.407
-47.4754
-46.7796
-34.5611
-34.0586
-37.2088
-32.5776
-37.127
-36.6377
-40.163
-36.2553
-64.648
-59.9884
-64.8987
-54.9959
-48.2735
-51.1547
-50.4522
-49.875
-35.0326
-35.2892
-34.5709
-35.5061
-37.6383
-38.2781
-39.2021
-37.6491
-39.398
-39.7793
-37.4046
-39.6411
-36.8677
-36.9191
-36.8589
-37.2177
-39.6039
-40.1482
-39.3129
-39.2443
-48.1993
-48.434
-47.2957
-51.6435
8.03659
8.06527
8.73085
4.18455
-70.1232
-70.1495
-73.8549
-66.8033
-43.1049
-36.4469
-35.2214
-36.175
-37.4601
-38.3191
-39.007
-37.6888
-37.6571
-37.4513
-37.6567
-37.8881
-48.7175
-48.9406
-47.7227
-52.2629
-59.0748
-54.9839
-57.3022
-52.5303
-60.0214
-55.8149
-58.0756
-53.0135
-58.902
-53.8478
-53.4593
-49.4567
-40.5778
-33.2877
-33.2376
-26.9247
186.689
181.281
204.911
185.408
-39.5838
-39.8801
-40.14
-40.6001
-40.1639
-40.4023
-40.665
-41.0763
-37.4486
-37.7871
-37.525
-37.7381
-87.038
-85.4478
-85.8883
-87.0753
-47.197
-45.9659
-47.0496
-45.8552
-46.4294
-45.1023
-46.6332
-45.3088
-36.3999
-36.3906
-36.2023
-36.1943
-42.9406
-45.3736
-45.407
-47.863
-24.2019
-24.0254
-24.8578
-25.5058
-71.3393
-91.5773
-133.206
110.335
-142.205
-150.909
-118.375
-9.70099
-78.23
-50.3682
-63.6791
-66.7077
-34.9972
-33.4815
-37.4862
-32.2331
-36.1467
-34.9655
-39.7517
-31.8476
-40.3755
-42.5658
-49.5242
-39.7647
-108.312
-99.8045
-110.504
43.1541
67.5284
94.1055
-41.385
98.2939
-75.2444
-71.4852
-76.5228
-72.5745
-32.6194
-32.5657
-34.84
-31.4325
-32.2532
-32.1334
-33.401
-31.5691
-39.6821
-43.7606
-43.1369
-40.1805
-143.796
-150.315
-118.048
-5.66569
-92.1475
-94.9049
-133.331
107.197
-74.0919
-46.3017
-60.0794
-64.6922
-37.9497
-36.0474
-41.5759
-33.0194
-37.2785
-35.2415
-40.771
-33.6603
-39.1116
-40.6047
-39.7588
-39.5288
73.643
96.0322
-45.5112
98.7678
-104.579
-98.3652
-107.265
42.245
-74.0789
-70.3074
-75.9781
-72.272
-32.8429
-32.4876
-33.791
-32.1004
-33.7623
-33.7354
-36.1241
-32.4601
-40.2885
-44.1599
-43.8169
-40.5856
-34.3303
-37.3698
-38.2579
-37.8676
-35.1029
-34.8995
-33.7984
-35.6771
-35.9123
-36.3445
-36.6308
-35.6171
-39.0116
-39.1627
-38.3435
-38.2064
-38.5019
-37.4952
-39.1612
-39.6789
-35.7577
-35.489
-35.5912
-35.8932
-38.5982
-37.6883
-38.0968
-39.9797
-36.4841
-38.1675
-37.3063
-37.7585
-42.045
-52.1394
-47.4041
-39.3041
-39.9579
-38.9568
-39.6275
-39.734
-45.7908
-48.4821
-44.0254
-50.3804
-16.6486
3.3181
-3.96915
-8.37412
-50.674
-54.058
-50.769
-53.9191
-38.8978
-37.044
-37.8032
-39.0305
-46.1208
-48.1868
-46.8898
-49.9316
-62.9413
-67.8989
-68.2859
-64.1297
-30.1191
-37.1792
-37.2583
-34.1364
-41.9462
-40.7422
-38.0663
-39.7186
-31.7682
-35.1094
-39.9603
-39.3764
-34.9784
-35.9532
-36.8102
-35.3076
-41.4189
-35.4484
-36.463
-36.725
-38.9789
-39.6431
-39.0135
-40.1715
-37.3524
-36.7716
-37.1217
-37.4607
-40.1451
-39.1163
-39.438
-41.49
-42.2581
-51.8283
-47.5076
-39.2581
-16.1699
3.36948
-3.7772
-8.01084
-40.0265
-39.0294
-39.7361
-39.8257
-46.1537
-49.187
-44.5066
-50.7056
-50.9149
-54.1392
-50.8983
-54.1248
-63.1546
-68.0183
-68.4864
-64.2936
-38.9966
-37.3304
-38.0804
-39.2061
-46.4479
-48.3863
-47.2308
-50.3855
-78.0913
-67.8475
-69.6725
-74.7745
164.944
189.092
187.42
185.814
-88.6896
-71.6744
-79.5084
-79.2454
157.178
190.861
183.714
184.383
-50.6727
-53.017
-53.8453
-49.204
-50.8129
-52.9014
-56.6886
-48.0586
-42.6575
-48.7664
-46.9049
-46.5677
-29.9343
-26.5424
-27.9753
-28.6777
-36.8124
-36.6688
-37.1754
-36.9551
-26.8234
-24.0021
-25.3287
-26.6223
-43.0998
-44.5404
-43.0162
-44.8409
-37.2028
-36.6923
-36.788
-37.1093
-76.1571
-54.0803
-63.066
-62.9593
179.532
200.26
193.246
193.69
-61.4275
-59.6187
-56.0696
-65.3745
-41.5251
-36.4123
-44.6049
-33.7235
-35.9242
-38.9853
-37.4122
-37.4829
-30.3215
-29.2427
-29.7711
-29.3555
-51.4764
-48.7643
-50.5023
-48.2512
-46.6383
-45.5349
-48.2957
-43.561
-74.5586
-66.3192
-63.1589
-69.4062
164.49
189.771
186.77
186.091
-51.2105
-53.7147
-54.668
-49.4802
-49.4105
-51.8855
-55.5599
-46.5542
-43.8986
-48.7313
-47.4618
-47.3044
-31.4758
-28.9322
-30.3115
-30.4275
-41.0077
-43.4488
-41.6067
-42.8618
-36.4747
-36.1264
-36.0063
-36.538
-61.8736
-60.2187
-66.1601
-56.5104
-41.4758
-36.3323
-33.6574
-44.4371
-51.5354
-48.5903
-48.1816
-50.6312
-46.7939
-45.6446
-43.7107
-48.4152
-36.5906
-38.3407
-37.0751
-37.7665
-36.2342
-36.9125
-36.7256
-36.5224
-43.737
-47.7043
-45.4925
-46.6891
-38.6737
-39.3713
-38.3707
-39.4261
-38.1634
-42.8283
-39.8475
-40.5461
-39.0411
-38.24
-38.388
-38.7326
-38.7439
-39.854
-39.0911
-39.754
-42.3302
-44.6627
-42.6755
-44.4128
-38.1867
-37.7284
-38.0432
-37.7228
-38.9797
-36.3969
-37.6427
-37.6118
-43.4431
-41.8772
-42.5498
-42.5794
-71.9299
-83.0427
-77.0043
-76.0636
-4.55319
-15.8752
-10.6554
-10.6326
-16.5649
-61.7753
-28.758
-28.6917
-80.2897
-84.7279
-82.2171
-82.2555
-60.8506
-53.9718
-57.2967
-57.3192
-37.6187
-39.0364
-38.2384
-38.4946
-37.4358
-37.6742
-37.6439
-37.5555
-43.7824
-47.9068
-46.8478
-45.7611
-39.0212
-39.8685
-38.9047
-39.8037
-39.3573
-40.4193
-40.2738
-39.7734
-42.3666
-44.2465
-42.2679
-44.2535
-43.8772
-42.2825
-42.9976
-42.978
-72.5603
-83.1884
-76.3653
-77.2562
-80.0549
-62.986
-64.4682
-54.8928
-42.1982
-41.0044
-43.8609
-43.967
-48.4218
-44.7571
-50.3503
-47.3549
-74.1328
-76.549
-75.1832
-74.6216
-74.3349
-58.7293
-59.2357
-51.5516
-72.4414
-75.2627
-72.2578
-75.0526
-48.594
-45.0619
-50.5578
-47.5364
-41.9579
-41.0424
-43.5818
-44.1457
-85.69
-73.6159
-78.108
-68.5341
-84.8675
-72.4929
-77.4025
-67.5511
-35.8666
-34.3981
-39.906
-38.1352
-38.9645
-38.0235
-42.1149
-40.1925
-77.2729
-66.8435
-63.5888
-56.7479
-23.3074
-12.4296
-23.5109
-14.3113
-23.2606
-12.3309
-23.4094
-14.2809
-77.2885
-66.333
-63.1556
-56.3651
168.247
117.558
181.6
180.58
129.303
126.036
168.489
174.969
129.388
128.568
176.404
169.648
113.958
167.199
174.775
190.784
-35.1445
-35.5079
-36.1902
-37.1317
-37.4511
-37.9461
-37.9786
-38.5085
-40.6372
-42.7166
-40.8899
-42.1872
-40.7487
-42.0977
-40.7001
-41.934
-36.9779
-36.4435
-37.627
-37.8744
-41.0214
-42.4204
-40.9897
-42.3114
-40.9882
-42.9822
-41.2731
-42.5577
-38.4932
-38.9899
-38.7488
-39.2919
-36.707
-37.5515
-36.9224
-37.6188
-38.978
-38.3516
-38.6395
-38.1315
-38.2385
-37.8878
-38.0411
-37.7182
-36.4619
-36.8618
-36.7381
-37.1028
-57.1089
-26.3748
-59.7908
-29.2974
-66.152
-72.3092
-74.8438
-77.882
-72.502
-66.3348
-78.0178
-75.0045
-26.3725
-54.9996
-29.1879
-59.7677
-39.288
-39.4346
-41.4499
-41.0366
-43.7326
-48.9106
-47.7498
-48.6221
-41.6944
-46.2583
-45.9009
-48.1513
-47.2218
-41.7524
-48.5215
-45.5505
-38.3749
-39.8903
-40.0881
-40.2851
-47.1606
-41.8602
-48.2824
-45.8531
-42.8106
-46.998
-46.7119
-48.7593
-45.3859
-43.0818
-46.8953
-46.7704
-38.4438
-39.5046
-36.7525
-37.7975
-37.0029
-40.1983
-36.116
-37.4843
-37.7573
-38.3355
-37.617
-37.265
-37.8929
-38.5639
-37.4866
-37.6079
-57.5656
-60.278
-53.7838
-57.3226
-36.3315
-38.3346
-37.7306
-39.6326
-36.6029
-38.6221
-37.835
-39.8343
-57.6785
-60.3936
-53.8876
-57.4163
-30.1464
-29.5158
-28.6768
-27.7866
-31.4006
-31.7727
-29.832
-30.7834
-31.6012
-31.6713
-30.9097
-31.4228
-30.7603
-30.8959
-30.4679
-29.9623
-138.673
76.7396
-118.227
-36.9295
-91.2485
-94.123
-39.9706
-36.8479
-41.0253
-35.1658
-40.4813
-44.5838
-104.056
-6.19337
-53.631
18.446
-79.1669
-61.0264
-34.9839
-31.7749
-33.9952
-31.791
-38.3314
-36.2908
-117.279
-15.0577
-130.643
69.1595
-87.3445
-91.7122
-42.7088
-36.598
-45.2343
-36.6936
-42.3858
-45.0535
-52.749
24.2816
-103.399
1.70431
-77.1983
-55.6902
-34.5769
-32.5207
-36.0679
-32.6896
-39.2938
-36.8724
-31.8881
-35.3278
-34.0465
-36.1548
-34.1027
-35.5977
-36.999
-37.0954
-41.3755
-35.4752
-36.1297
-35.9883
-37.5914
-36.3912
-36.5545
-37.004
-41.2604
-41.1172
-40.3522
-41.3192
-42.937
-49.9571
-30.8896
-50.639
-49.0291
-51.7714
-41.4395
-42.0768
-44.3007
-48.8606
-55.123
-56.7239
-27.6933
-25.608
-33.9475
-40.2759
-33.8197
-38.125
-39.2133
-36.2659
-46.2656
-41.5447
-39.5516
-41.9461
-38.3428
-38.4468
-39.5082
-41.8221
-41.5478
-40.9697
-30.8829
-50.6323
-40.5614
-41.401
-43.0414
-50.0015
-49.1181
-52.0821
-55.4185
-57.0373
-41.5031
-42.1363
-44.5521
-49.2357
-136.033
96.8116
-117.409
64.6989
-94.9624
-94.9998
141.833
112.003
-120.854
-16.8366
-120.277
-21.6864
-101.087
-100.934
67.0937
88.8161
-44.688
-54.6792
-43.027
-42.1218
-50.93
-47.2522
-53.3138
-45.9922
-36.472
-31.4895
-35.052
-31.5871
-38.9018
-38.2927
-30.5904
-30.8791
-38.4262
-30.3276
-39.4133
-31.1054
-37.2749
-37.0264
-28.1314
-28.785
-44.0882
-39.0544
-40.7249
-37.9677
-41.0443
-43.4223
-38.1175
-37.7174
-75.2524
136.247
-74.9314
137.688
-100.441
-100.827
164.898
165.223
-72.4637
-62.8714
-56.0447
-47.003
-57.4799
-67.5918
-51.161
-45.3912
-33.3561
-31.5491
-33.5286
-31.7631
-34.5829
-34.6613
-31.4942
-31.2369
-47.925
-44.681
-52.3648
-54.2859
-50.1128
-50.8359
-50.4409
-45.4161
-133.065
95.3086
-120.956
58.6628
-93.4268
-93.608
106.889
141.93
-43.8935
-53.6223
-41.7408
-40.0763
-52.1395
-47.0933
-52.0681
-44.2287
-38.377
-32.9693
-36.415
-32.5937
-39.7578
-40.6865
-31.9419
-31.9299
-40.9912
-37.2951
-38.1757
-36.6291
-40.3876
-41.3252
-36.1171
-37.3076
-72.6388
-62.5029
-56.1695
-46.8456
-68.5273
-58.0139
-45.0444
-51.1539
-48.3474
-44.9604
-52.4853
-54.4992
-50.9102
-50.4357
-45.6236
-50.5796
-33.8701
-35.5209
-35.1088
-35.656
-35.3928
-36.0533
-36.024
-35.8947
-38.0224
-36.7836
-39.6189
-38.5764
-40.8523
-41.8272
-37.6451
-38.5944
-37.5951
-39.33
-36.5467
-40.2717
-35.414
-36.2574
-39.2818
-39.7783
-37.3668
-38.196
-36.8253
-37.3732
-37.833
-37.8827
-40.2843
-39.3271
-38.3196
-38.7275
-39.1212
-39.787
-38.7274
-38.3411
-38.7459
-39.3776
-46.9596
-51.6313
-47.4057
-51.0473
-44.6336
-44.7119
-60.9625
-58.6499
5.1764
2.45434
5.23091
2.45185
1.41556
1.42304
-5.67509
-5.6853
-72.6413
-65.8466
-72.7228
-65.9254
-77.3661
-77.4043
-63.1728
-63.2157
-38.7604
-37.984
-36.8547
-36.8312
-37.805
-37.0839
-37.0407
-37.2559
-37.7629
-36.8326
-39.708
-38.6338
-41.8192
-40.8016
-37.7747
-38.7514
-38.4137
-39.3965
-37.183
-37.5685
-38.5015
-38.6152
-41.0225
-39.7056
-47.4914
-52.323
-47.6876
-51.485
-45.1086
-45.0221
-59.2874
-61.6712
-60.2702
-63.8052
-56.5232
-50.9076
-54.6015
-62.3119
-48.5454
-50.3988
-61.6332
-65.2798
-57.2491
-51.3548
-63.3257
-54.9797
-50.5662
-48.741
-64.8299
-64.502
-58.5589
-49.3238
-57.9443
-48.5236
-45.468
-46.0163
-46.7438
-46.6707
-41.2217
-28.5757
-28.4788
-41.184
-21.8476
-21.8195
182.954
199.736