# vtk DataFile Version 2.0
tri_press
ASCII
DATASET UNSTRUCTURED_GRID
POINTS 3682 float
-0.755 0.295 -2.01038
-0.775 0.365 2.01287
-0.725 0.89316 -1.895
-0.625 1.515 1.9542
0.755 0.295 -2.01038
0.775 0.365 2.01287
0.725 0.89316 -1.895
0.625 1.515 1.9542
-0.853426 0.226574 -0.669297
-0.855906 0.254094 0.671787
-0.795472 1.20425 -0.611933
-0.74433 1.39372 0.671133
0.853392 0.226608 -0.669297
0.855902 0.254098 0.671787
0.795472 1.20425 -0.611933
0.744326 1.39371 0.671133
-1.55074 -0.27988 -3.08474
-1.56114 -0.190666 -2.03511
-1.62454 -0.236128 -0.69253
-1.62449 -0.259606 0.66173
-1.56594 -0.185415 2.0053
-1.55222 -0.0915887 3.05974
-1.56117 0.00904635 4.10528
-1.54712 0.134924 -3.04791
-1.55316 0.265466 -2.00462
-1.63096 0.261862 -0.673323
-1.61102 0.280487 0.663194
-1.52182 0.37231 1.9956
-1.52543 0.466116 3.04923
-1.54849 0.562571 4.09665
-1.53394 0.877267 -2.95796
-1.52491 1.00125 -1.91227
-1.58128 1.22664 -0.620527
-1.52368 1.38797 0.667107
-1.41448 1.50836 1.95996
-1.46773 1.59466 3.01599
-1.52431 1.67816 4.07277
-1.53827 2.21156 -2.86666
-1.53722 2.37257 -1.82966
-1.54941 2.65657 -0.556724
-1.53864 2.92688 0.703705
-1.51413 3.11561 1.97724
-1.51832 3.22076 3.01551
-1.54062 3.30687 4.06596
-0.769846 -0.263554 -3.08849
-0.758524 -0.167149 -2.04057
-0.819695 -0.250846 -0.691797
-0.838417 -0.281932 0.669064
-0.802161 -0.197604 2.01812
-0.798014 -0.0995652 3.06844
-0.807576 0.00355946 4.11031
-0.774559 0.137823 -3.04906
-0.789361 0.461799 3.0564
-0.804466 0.559416 4.10045
-0.766176 0.833705 -2.95079
-0.745156 1.59797 3.01484
-0.791579 1.68008 4.07252
-0.763744 2.1776 -2.85957
-0.75911 2.33835 -1.82184
-0.774987 2.64347 -0.552013
-0.781465 2.93309 0.70314
-0.773804 3.12627 1.97321
-0.780733 3.22951 3.01148
-0.799247 3.31313 4.06303
0.775191 -0.263549 -3.08849
0.803722 -0.167142 -2.04057
0.849388 -0.250823 -0.691797
0.833591 -0.281925 0.669064
0.774842 -0.197603 2.01812
0.73055 -0.0995633 3.06844
0.708473 0.00356226 4.11031
0.749451 0.137826 -3.04906
0.703106 0.4618 3.0564
0.690684 0.559418 4.10045
0.735646 0.833707 -2.95079
0.652156 1.59797 3.01484
0.66762 1.68008 4.07252
0.77329 2.1776 -2.85957
0.781581 2.33835 -1.82184
0.771135 2.64347 -0.552013
0.73183 2.9331 0.70314
0.693778 3.12628 1.97321
0.681823 3.22952 3.01148
0.677768 3.31314 4.06303
1.55685 -0.279868 -3.08474
1.58669 -0.190649 -2.03511
1.64708 -0.236096 -0.69253
1.63572 -0.259591 0.66173
1.56161 -0.18541 2.0053
1.50622 -0.0915835 3.05974
1.47779 0.00905207 4.10528
1.52995 0.134932 -3.04791
1.55081 0.265477 -2.00462
1.63547 0.261895 -0.673323
1.62571 0.2805 0.663194
1.53332 0.372314 1.9956
1.47394 0.466119 3.04923
1.45488 0.562576 4.09665
1.51007 0.877272 -2.95796
1.51859 1.00125 -1.91227
1.58144 1.22665 -0.620527
1.53365 1.38798 0.667107
1.42116 1.50836 1.95996
1.40808 1.59466 3.01599
1.42008 1.67816 4.07277
1.54404 2.21157 -2.86666
1.55193 2.37258 -1.82966
1.54525 2.65657 -0.556724
1.50063 2.92688 0.703705
1.4489 3.11562 1.97724
1.43078 3.22077 3.01551
1.42785 3.30687 4.06596
-0.780003 0.59408 -1.99269
0 0.259358 -2.04602
-0.838701 0.226299 -1.33984
-0.776055 0.94 2.05959
0 0.307906 2.06996
-0.840899 0.284101 1.34233
0 0.980313 -1.98215
-0.786036 1.0745 -1.25347
0 1.56736 2.00656
-0.706966 1.47666 1.31267
0.780046 0.59408 -1.99274
0.838295 0.226705 -1.33984
0.776083 0.94 2.05962
0.84079 0.28421 1.34233
0.785994 1.07446 -1.25347
0.706963 1.47666 1.31267
-0.853841 0.241159 0.00124502
-0.878026 0.71541 -0.640615
-1.69694e-05 0.166656 -0.669297
-0.874513 0.823906 0.67146
-1.76753e-06 0.173674 0.671787
-0.772348 1.30143 0.0296
0 1.64754 -0.611933
-2.12315e-06 1.81184 0.671133
0.853814 0.241186 0.00124502
0.878023 0.715427 -0.640615
0.87451 0.823905 0.67146
0.772348 1.30143 0.0296
-0.892655 0.654745 -1.29665
0.892605 0.654753 -1.29665
-8.48469e-06 0.215357 -1.33984
2.77556e-17 1.31169 -1.25347
0 0.59408 -2.2099
-0.879201 0.769658 0.0154225
0.879202 0.769666 0.0154225
-9.36845e-06 0.179406 0.00124502
-1.06157e-06 1.79827 0.0296
-0.859133 0.881953 1.3275
0.859129 0.881953 1.3275
-8.83767e-07 0.212419 1.34233
-1.06157e-06 1.7901 1.31267
0 0.94 2.20037
-0.772641 0.44454 -2.00668
-0.3775 0.259313 -2.04607
-0.830537 0.226963 -1.67511
-0.798508 0.6525 2.05921
-0.3875 0.31338 2.06449
-0.839657 0.292843 1.6776
-0.749552 0.74362 -1.9409
-0.3625 0.959525 -1.96137
-0.764757 0.99307 -1.57423
-0.738706 1.2275 2.04507
-0.3125 1.55201 1.99121
-0.678467 1.50831 1.63343
0.3775 0.259313 -2.04607
0.77264 0.44454 -2.00668
0.830528 0.226972 -1.67511
0.3875 0.293018 2.08485
0.798167 0.6525 2.05887
0.839661 0.292839 1.6776
0.3625 0.959543 -1.96138
0.749553 0.74362 -1.9409
0.764752 0.993066 -1.57423
0.3125 1.55204 1.99124
0.738705 1.2275 2.04507
0.678471 1.50832 1.63343
-0.854074 0.218426 -1.00457
-0.852852 0.234648 -0.334026
-0.857721 0.474994 -0.654956
-0.42897 0.192118 -0.669297
-0.868995 0.248505 1.00706
-0.855349 0.247151 0.336516
-0.858212 0.542498 0.671624
-0.434033 0.201725 0.671787
-0.804364 1.15298 -0.9327
-0.873096 0.978001 -0.626274
-0.784453 1.25338 -0.291167
-0.487256 1.60493 -0.611933
-0.730041 1.43958 0.9919
-0.835931 1.12207 0.671297
-0.760127 1.34936 0.350367
-0.466751 1.79195 0.671133
0.854078 0.218422 -1.00457
0.433227 0.183554 -0.669297
0.852846 0.234654 -0.334026
0.857721 0.475011 -0.654956
0.868989 0.248511 1.00706
0.440759 0.188269 0.671787
0.855338 0.247162 0.336516
0.858208 0.542501 0.671624
0.804409 1.15303 -0.9327
0.487257 1.60493 -0.611933
0.873109 0.978017 -0.626274
0.78447 1.2534 -0.291167
0.730045 1.43958 0.9919
0.466748 1.79195 0.671133
0.835933 1.12207 0.671297
0.760119 1.34935 0.350367
-0.878228 0.624412 -1.64467
-0.390001 0.59408 -2.17795
-4.24234e-06 0.225152 -1.69293
0 0.426719 -2.17331
-0.887563 0.440522 -1.31825
-0.419355 0.214922 -1.33984
-0.839904 0.910976 1.69354
-0.388027 0.94 2.17928
-4.41883e-07 0.240693 1.70615
0 0.623953 2.16971
-0.879899 0.583027 1.33491
-0.42045 0.205258 1.34233
1.38778e-17 1.1565 -1.61781
0 0.787197 -2.15401
-0.875718 0.864624 -1.27506
-0.393018 1.26247 -1.25347
-5.30787e-07 1.76342 1.65961
0 1.25368 2.15579
-0.807594 1.17931 1.32008
-0.353483 1.78084 1.31267
0.878235 0.624417 -1.64469
0.390023 0.59408 -2.17794
0.88766 0.440729 -1.31825
0.419143 0.212358 -1.33984
0.83992 0.910976 1.69356
0.388042 0.94 2.17927
0.879899 0.583081 1.33491
0.420395 0.157437 1.34233
0.875759 0.864607 -1.27506
0.392997 1.26248 -1.25347
0.807594 1.1793 1.32008
0.353481 1.78084 1.31267
-0.860067 0.508635 0.00833377
-0.43027 0.203593 0.00124502
-0.89533 0.685077 -0.968634
-0.87837 0.742534 -0.312596
-1.2727e-05 0.183792 -1.00457
-1.31689e-05 0.171563 -0.334026
-0.874239 0.796782 0.343441
-0.866937 0.852929 0.999479
-5.56799e-06 0.177971 0.336516
-1.32565e-06 0.177783 1.00706
-0.860171 1.05274 0.0225113
-0.49967 1.77684 0.0296
1.38778e-17 1.48473 -0.9327
-5.30787e-07 1.75548 -0.291167
-1.59236e-06 1.80958 0.350367
-1.59236e-06 1.80557 0.9919
0.860069 0.508646 0.00833377
0.435329 0.193442 0.00124502
0.895367 0.68509 -0.968634
0.878367 0.742546 -0.312596
0.874332 0.796786 0.343441
0.866998 0.852929 0.999479
0.860171 1.05275 0.0225113
0.49967 1.77684 0.0296
-0.875426 0.442531 -1.65989
-0.891217 0.455757 -0.986601
-0.881342 0.912226 -0.950667
-0.852667 0.804122 -1.60945
0.875073 0.442635 -1.6599
0.852679 0.804113 -1.60946
0.881323 0.912222 -0.950667
0.891216 0.455873 -0.986601
-0.398427 0.224027 -1.68402
0.398322 0.22274 -1.68402
0.422915 0.184053 -1.00457
-0.423038 0.192547 -1.00457
-0.377759 1.13571 -1.59602
-0.395377 1.44029 -0.9327
0.395367 1.44031 -0.9327
0.377748 1.1357 -1.59602
-0.383751 0.43563 -2.13858
-0.376251 0.765408 -2.10699
0.376262 0.765408 -2.10687
0.383762 0.43563 -2.13857
-0.858901 0.491811 -0.323311
-0.857712 0.52628 0.339979
-0.848482 1.08762 0.346904
-0.867853 1.01598 -0.301882
0.858897 0.491827 -0.323311
0.867839 1.01598 -0.301882
0.848479 1.08762 0.346904
0.857711 0.526287 0.339979
-0.428018 0.20106 -0.334026
0.433767 0.189519 -0.334026
0.437489 0.191966 0.336516
-0.431714 0.203534 0.336516
-0.509404 1.72277 -0.291167
-0.485909 1.78979 0.350367
0.485909 1.7898 0.350367
0.509404 1.72277 -0.291167
-0.871895 0.561013 1.00327
-0.875204 0.617763 1.68557
-0.783432 1.2034 1.66349
-0.82449 1.14406 0.99569
0.871915 0.561041 1.00327
0.824476 1.14406 0.99569
0.783419 1.2034 1.6635
0.875256 0.617791 1.68558
-0.424202 0.157783 1.00706
0.424172 0.159702 1.00706
0.403947 0.183056 1.69187
-0.403975 0.230949 1.69187
-0.362825 1.79442 0.9919
-0.332992 1.75207 1.64652
0.332991 1.75207 1.64652
0.362822 1.79443 0.9919
-0.387764 0.638227 2.14817
0.387771 0.638227 2.14815
0.350271 1.24059 2.13703
-0.350264 1.24059 2.13702
-0.775934 0.36977 -2.02064
-0.56625 0.260915 -2.04447
-0.802071 0.251679 -1.84274
-0.78655 0.50875 2.03584
-0.58125 0.319604 2.05827
-0.823791 0.312459 1.84523
-0.733804 0.81839 -1.91448
-0.54375 0.927025 -1.92887
-0.75084 0.949077 -1.73462
-0.687017 1.37125 2.0048
-0.46875 1.53394 1.97314
-0.662834 1.52276 1.79382
0.56625 0.260901 -2.04448
0.775698 0.36977 -2.02041
0.802434 0.251316 -1.84274
0.58125 0.318608 2.05926
0.786504 0.50875 2.03579
0.823841 0.312409 1.84523
0.54375 0.927154 -1.92899
0.733844 0.81839 -1.91452
0.750859 0.949095 -1.73462
0.46875 1.534 1.9732
0.687018 1.37125 2.0048
0.662934 1.52286 1.79382
-0.881064 0.195186 -0.836932
-0.8527 0.23105 -0.501661
-0.850021 0.353561 -0.662126
-0.645308 0.201125 -0.669297
-0.856581 0.257169 0.839422
-0.855328 0.250922 0.504151
-0.847765 0.402943 0.671705
-0.653492 0.210864 0.671787
-0.7997 1.1784 -0.772317
-0.838982 1.09347 -0.619104
-0.790281 1.22913 -0.45155
-0.697224 1.51631 -0.611933
-0.737066 1.41653 0.831517
-0.785714 1.25568 0.671215
-0.75278 1.37209 0.51075
-0.656318 1.69439 0.671133
0.878588 0.197662 -0.836932
0.64686 0.197979 -0.669297
0.852625 0.231125 -0.501661
0.850029 0.353573 -0.662126
0.856566 0.257184 0.839422
0.654726 0.208393 0.671787
0.855322 0.250928 0.504151
0.847769 0.402942 0.671705
0.799694 1.17839 -0.772317
0.697223 1.51631 -0.611933
0.838966 1.09347 -0.619104
0.790287 1.22914 -0.45155
0.737064 1.41653 0.831517
0.656307 1.69437 0.671133
[...]
POINT_DATA 3682
SCALARS point_scalars float 1
LOOKUP_TABLE default
-103.622
-60.6392
-44.8352
-44.0546
-102.943
-60.5558
-44.6176
-43.6527
-52.8176
-44.885
-85.7938
-59.0359
-53.1991
-45.8345
-85.7528
-58.977
-32.9496
-95.0704
-71.3456
-44.7436
-68.9296
-59.1526
-52.4603
-32.2293
-108.766
-67.9595
-46.262
-66.686
-55.958
-51.7023
28.8978
-95.4894
-72.6575
-55.5999
-50.136
-48.326
-46.7805
-29.7836
-48.1943
-112.187
-67.178
-48.5293
-47.1011
-44.8345
-68.1172
-125.724
-61.0226
-44.6331
-62.2299
-51.5286
-50.8345
-1.41928
-51.5286
-50.4626
134.731
-44.2549
-45.2365
13.8157
-5.4136
-103.838
-65.7912
-46.9074
-43.1462
-42.6867
-60.948
-115.787
-62.6304
-46.6667
-62.6975
-52.4578
-50.5848
39.3475
-50.5848
-50.5472
147.524
-42.6586
-43.4689
13.7504
-5.39036
-103.673
-65.7183
-46.6692
-42.4133
-42.4133
-32.7576
-95.8042
-70.8491
-45.8009
-68.4931
-58.1043
-52.2308
-32.2817
-108.905
-67.8685
-46.6577
-66.2915
-55.7383
-51.4632
29.2057
-95.4598
-72.6404
-55.5634
-49.6248
-47.71
-46.0074
-29.3409
-48.1544
-112.114
-67.0802
-48.0561
-45.7265
-44.4649
-32.2877
-144.012
-63.0778
-53.7587
-55.4441
-55.9432
23.3037
-66.0542
-35.0691
-54.1443
-32.3541
-62.6713
-53.3071
-54.3711
-66.0094
-53.9724
-46.0456
-59.2196
-59.8274
-51.3836
-51.4355
-68.777
-57.4092
-70.5876
-46.2121
-59.2449
-51.3333
-68.6645
-76.5959
-76.5346
-65.7358
21.6127
205.507
-54.0243
-54.0685
-48.645
-99.703
-55.4795
-55.1448
-59.6198
-55.1822
-49.9336
-50.8474
-151.713
-87.4219
-56.361
-54.8518
-63.126
-47.4877
11.4579
-55.3825
-49.3893
-38.7016
-50.6376
-150.048
-50.2036
-87.4983
-55.4288
-56.0951
-62.0982
11.557
-47.4619
-55.253
-38.3791
-48.7743
-50.3328
-56.2871
-46.7808
-54.3664
-58.1586
-61.909
-45.6229
-48.4071
-47.2989
-96.256
-70.2826
-75.36
-58.4193
-56.8828
-55.6515
-62.8045
-67.4833
-56.3514
-59.1228
-47.0255
-54.4811
-61.2315
-48.7795
-45.8757
-48.4826
-97.3567
-58.2764
-70.2884
-75.2986
-56.7823
-67.4238
-55.6161
-62.7154
-96.7286
183.762
-88.3776
167.036
-71.7576
-65.4898
-57.9854
-49.53
-61.5425
-50.8461
-56.9214
-59.8894
-0.240554
160.359
-80.0306
11.3327
-46.5476
-38.8017
-54.2007
-55.6152
-96.6819
183.923
-71.669
-65.0769
-57.5735
-49.0919
-56.4194
-60.9482
-79.924
11.3871
-53.9559
-55.5263
-49.5938
-47.6066
-69.8604
-55.4726
-60.9566
-53.5486
-51.6732
-52.3275
-48.1788
-59.1864
-62.5763
-92.7024
-2.71161
-104.754
-82.2315
-62.4425
-49.689
-47.6428
-69.3516
-55.5015
-51.7066
-52.1191
-62.5618
-92.665
-98.1393
-64.7184
-75.4469
-93.2319
-97.9666
-93.2066
-75.4481
-64.6898
-87.4319
-86.6201
-60.6127
-61.5862
-6.10012
-0.625372
-0.583712
-6.05316
152.13
143.274
143.511
152.006
-50.2565
-48.3835
-57.8372
-64.9738
-50.3401
-64.9498
-57.8309
-48.5049
-50.9113
-51.4533
-47.3029
-47.0046
-99.6588
-77.2698
-77.2271
-99.6285
-47.5821
-62.5904
-52.9234
-54.516
-47.3085
-54.3836
-52.5037
-62.1781
-59.2762
-56.6132
-61.3151
-63.4049
-61.7621
-47.8996
-47.7571
-61.7067
-50.609
-50.4613
-40.9826
-41.8722
-43.63
-164.533
-98.1743
-57.7822
-56.1589
-68.0148
-45.7278
-12.6591
-54.9771
-45.8136
-40.8678
-48.3314
-164.464
-47.021
-98.2085
-56.1379
-57.5617
-67.6179
-12.0088
-44.4604
-54.9909
-40.5224
-45.3034
-47.9459
-71.2062
-49.3139
-52.8429
-56.9472
-45.9707
-44.8982
-47.4035
-45.2174
-91.7653
-78.6066
-80.5563
-110.402
-57.7684
-57.1272
-60.8335
-64.6796
-70.7032
-57.7554
-49.6207
-52.9763
-46.9826
-47.204
-45.6028
-47.6243
-91.7316
-110.354
-78.5867
-80.5066
-57.7001
-64.5566
-57.1249
-60.7615
-49.7236
-49.9267
-109.649
119.845
-148.024
-146.789
-109.762
118.961
-75.7119
-60.1801
-68.5868
-64.7161
-55.1505
-52.0692
-57.1294
-49.3788
-55.0157
-55.3635
-58.6648
-50.7114
-56.918
-56.5698
-56.215
-58.6166
21.5737
21.5679
5.26123
67.0965
-61.6789
-91.3485
-80.8428
-13.7656
-36.3117
-36.0937
-41.5333
-35.1279
-52.855
-55.3389
-53.9053
-55.5839
-48.0567
-49.4167
-109.513
119.904
-75.2293
-60.3519
-68.4795
-63.9119
-54.7842
-51.483
-56.6767
-48.9368
-56.6768
-54.3645
-55.5137
-58.0932
-61.7084
-91.2589
-80.7162
-13.7124
-52.6198
-55.2099
-53.7149
-55.4556
-46.5585
-45.4416
-47.9636
-46.6308
-56.2337
-63.7511
-63.321
-56.9274
-59.0838
-59.3765
-59.6036
-56.3896
-49.7477
-53.4018
-51.2218
-52.144
-50.1028
-50.8874
-48.8425
-53.7227
-72.0443
-65.253
-65.3431
-81.027
-56.2386
-56.2432
-25.5221
-89.7893
-69.7715
-69.743
-75.6979
-66.0688
-46.814
-45.6667
-48.0796
-46.8144
-56.2862
-63.784
-63.907
-56.9502
-49.731
-53.3404
-51.2474
-52.0189
-71.9218
-65.1479
-65.2976
-80.9384
-85.3441
-73.9231
-79.0108
-72.3249
-85.1674
-73.8458
-78.8969
-72.2083
-76.4576
-65.654
-65.2359
-58.9204
20.0581
19.0704
19.0989
14.7407
201.439
190.239
187.024
201.653
-51.6977
-54.7637
-53.0951
-57.6811
-51.7731
-54.7906
-53.1286
-57.7079
-48.392
-50.4521
-48.1715
-48.5869
-98.5538
-107.226
-90.6963
-98.5283
-57.4387
-56.5979
-54.5226
-52.8057
-57.0669
-56.1977
-54.2333
-52.5354
-61.5516
-59.7705
-59.7772
-63.8351
-50.8735
-55.3539
-55.3083
-59.0114
-50.0618
-49.9363
-44.8046
-49.8478
-112.547
120.569
-109.937
115.125
-90.2204
-85.9075
-61.5464
-50.6059
-61.0941
-50.158
-63.7259
-63.9842
-101.081
94.0162
-6.09404
54.5971
-80.4256
-21.4016
-51.4672
-44.0599
-43.5879
-39.2257
-51.3619
-49.2212
-109.272
115.401
-112.577
121.956
-90.1565
-85.4301
-59.9428
-50.3373
-61.2003
-50.4633
-63.2615
-61.4306
-6.09456
54.5294
-101.023
93.9708
-80.339
-21.3475
-43.393
-38.613
-50.9601
-43.3646
-51.0053
-49.0143
-63.1533
-56.2909
-48.5894
-49.0634
-65.1274
-51.4805
-61.8444
-53.9945
-47.9264
-69.5973
-47.1887
-46.1898
-48.1842
-48.3981
-46.9676
-48.211
-83.6466
-26.239
-72.8347
-67.5691
-70.8431
-95.1568
-28.871
-87.1564
-55.6056
-59.8708
-56.6099
-55.0542
-60.3924
-69.8773
-71.7349
-64.3783
-63.1974
-57.9283
-61.5024
-54.4248
-48.7125
-49.466
-65.339
-51.563
-47.5685
-62.6029
-47.6907
-51.4033
-47.3796
-46.5702
-48.3301
-48.3315
-83.6596
-26.3334
-28.8376
-87.0677
-72.8642
-67.556
-70.7876
-95.1232
-55.5304
-59.7872
-71.6709
-64.3226
-56.5942
-54.9737
-60.3879
-69.7707
-99.2309
-93.2332
176.762
166.924
-88.1809
-87.6033
164.124
164.185
-81.4822
-67.7291
-75.5648
-58.7132
-60.2166
-56.0225
-50.5129
-46.2775
-60.8883
-62.5281
-50.9124
-50.77
-54.03
-58.2626
-64.1763
-60.8705
0.463125
0.446829
159.293
159.369
-78.9693
-81.644
3.63473
11.0566
-47.0214
-46.9445
-38.9483
-39.5504
-53.8005
-54.4083
-58.5257
-51.5705
-99.0748
-93.291
166.93
176.7
-81.3643
-67.674
-75.3569
-57.6955
-55.6044
-59.8047
-50.3002
-45.4579
-53.585
-57.8048
-61.3985
-61.6298
-81.5915
-78.906
11.0989
3.67425
-54.2174
-53.5141
-51.462
-58.458
-49.8736
-49.2315
-48.7888
-47.0909
-66.9074
-71.7865
-51.8477
-58.9339
-61.7049
-63.7547
-52.5088
-53.7141
-49.7433
-53.891
-50.2617
-53.466
-48.1902
-47.8658
-59.5797
-60.6499
-60.0739
-63.339
-100.819
-84.6376
-0.639715
-0.752287
-104.5
-104.492
-81.2544
-81.2277
-62.3473
-62.318
-49.958
-49.3347
-49.1514
-47.2702
-71.818
-66.6772
-51.9049
-58.9448
-53.8983
-49.8183
-50.0558
-53.287
-63.3148
-60.0666
-84.5758
-100.782
-111.403
-79.0624
-83.2264
-114.045
-66.876
-63.7587
-70.0039
-65.1438
-81.4817
-85.0665
-75.2886
-66.7333
-77.274
-107.591
-83.0217
-80.6918
-111.487
-114.053
-83.1209
-78.8667
-77.375
-80.644
-82.8684
-107.535
-81.4813
-66.8143
-75.1922
-85.036
-66.9727
-65.1336
-69.9129
-64.1936
-107.246
-110.276
-76.2559
-74.5025
-106.892
-74.1231
-76.0612
-109.646
-63.4478
-60.2979
-57.5486
-58.3198
-64.1404
-59.2875
-57.9125
-60.1002
-24.8915
-19.3897
14.2407
1.12349
-107.847
-25.2504
14.5879
-13.8762
-105.98
-13.7529
14.6059
-25.3034
-25.2167
1.18833
14.2861
-19.4064
90.888
132.068
188.64
74.0585
51.9676
62.972
178.175
104.902
51.8627
105.086
178.473
62.0949
90.8161
74.3027
188.848
132.26
-49.7207
-48.1612
-51.9124
-53.4831
-47.1115
-49.5371
-51.1559
-47.8091
-58.5574
-63.4188
-56.7477
-53.3137
-74.5756
-61.099
-57.0962
-68.08
-49.8509
-53.5327
-51.9602
-48.277
-74.5365
-68.0277
-57.1105
-61.1117
-58.5589
-53.3071
-56.7512
-63.3951
-47.3507
-47.9487
-51.2162
-49.6267
-52.1713
-55.4963
-49.8555
-47.56
-52.6372
-48.0961
-50.1986
-55.9971
-46.7099
-49.0963
-48.0795
-46.4703
-45.7531
-46.2766
-47.8432
-48.2936
-110.567
-86.7509
-104.73
-86.7031
-65.9451
-74.424
-89.0403
-70.5554
-65.833
-70.4544
-89.0208
-74.3958
-110.429
-86.7503
-104.708
-86.6782
-47.084
-54.8212
-52.0928
-50.5239
-64.3236
-59.1984
-58.8227
-58.0224
-49.338
-53.0764
-55.3313
-54.5782
-56.3779
-53.3545
-53.4383
-55.1047
-47.0939
-50.4092
-51.7392
-54.0501
-56.3373
-54.9571
-53.1976
-53.2361
-48.8844
-54.0883
-54.985
-52.8056
-63.9831
-57.4678
-58.4225
-58.8044
-43.6142
-50.8104
-63.3972
-59.2825
-47.2141
-57.4658
-62.6378
-54.7323
-62.9892
-58.8185
-61.0477
-59.7206
-63.1282
-61.969
-62.0388
-59.5419
-61.4057
-58.0764
-58.9843
-65.5335
-46.7751
-42.2123
-50.984
-52.6256
-46.5279
-52.4639
-50.9251
-42.1056
-61.3281
-65.5054
-58.9475
-57.9761
-50.3375
-50.4713
-50.0878
-50.3792
-50.1765
-50.1452
-49.9275
-50.627
-41.3703
-36.0782
-44.7168
-46.7505
-41.8733
-47.4384
-45.2389
-36.5156
-55.9292
-125.653
-112.782
-59.127
-57.5521
-64.188
-44.9293
-19.0838
-51.7328
-44.8343
-41.6632
-46.8986
-124.84
-54.4285
-112.459
-57.6029
-58.9331
-64.1957
-17.6475
-43.9865
-51.8271
-41.302
-44.4502
-46.4929
-61.95
-50.1841
-51.9527
-55.8155
-45.4922
-44.9069
-46.3317
-44.5084
-88.7231
-81.7682
-83.1629
-102.251
-58.3235
-58.074
-59.9645
-61.0568
-62.1523
-56.4188
-50.5203
-52.1327
-46.6199
-46.2625
-45.6551
-46.7718
-88.6879
-102.233
-81.7349
-83.1217
-58.2609
-60.9574
-58.0461
-59.8989
-41.9414
-40.2481
-97.9378
47.263
-146.742
-146.354
-126.53
-80.531
-67.5496
-60.4675
-66.004
-63.8614
-54.5181
-52.9475
-55.7192
-49.8093
-55.2571
-55.7047
-57.0247
-52.1807
-57.1623
-55.2354
-55.5719
-58.7675
24.1612
24.1661
8.00254
46.4403
-65.9343
-69.8859
-79.5411
-43.8407
-35.4378
-35.3184
-39.0747
-34.6005
-53.4282
-54.6314
-53.9934
-55.2413
-43.6312
-40.3944
-97.7189
47.5002
-67.112
-60.1575
-65.8109
-63.3086
-54.1145
-52.4054
-55.2401
-49.3679
-55.6473
-54.3265
-54.6597
-55.8613
-65.9459
-69.7449
-79.4226
-43.7736
-53.229
-54.4829
-53.8199
-55.0804
-45.4932
-46.3914
-46.8889
-46.0532
-57.5628
-61.3122
-61.0976
-57.942
-59.4437
-59.9441
-60.5805
-58.0761
-50.7547
-52.268
-51.2585
-51.6028
-50.8759
-51.4233
-50.1845
-52.1706
-70.5608
-67.6007
-66.5989
-74.3025
-56.3224
-56.306
-37.7734
-75.9427
-70.4534
-70.4396
-73.034
-68.2066
-45.6884
-46.5575
-47.0142
-46.2624
-57.5824
-61.3461
-61.1502
-57.9648
-50.7118
-52.2107
-51.2511
-51.5187
-70.4627
-67.4954
-66.5275
-74.2014
-79.8561
-75.1271
-78.1697
-74.3722
-79.8054
-75.0558
-78.1043
-74.2915
-70.5535
-65.8184
-65.636
-61.6175
21.7233
20.7785
20.7916
19.1171
202.983
201.867
198.731
203.043
-53.627
-54.3853
-53.5247
-55.5128
-53.6957
-54.4272
-53.5638
-55.5463
-48.575
-49.3821
-48.2488
-48.6414
-99.2753
-104.143
-94.9412
-99.2635
-56.7799
-56.0186
-54.9926
-54.3896
-56.4291
-55.6533
-54.6804
-54.0823
-59.5854
-60.8193
-59.5802
-60.3467
-52.9714
-55.2678
-55.2439
-57.1029
-49.9548
-50.1616
-47.7626
-49.8437
-49.1774
-52.3309
-111.217
41.7138
-163.602
-148.902
-130.573
-4.67616
-89.4849
-83.1951
-86.415
-86.7716
-57.1711
-55.5127
-59.0004
-51.6193
-55.4012
-54.9644
-57.4104
-51.326
-67.8574
-58.6083
-63.6948
-63.3602
-47.4609
-47.9861
-84.3652
28.6042
6.51519
15.8318
0.397254
28.8748
-58.4
-59.471
-66.2568
-36.8153
-47.1696
-50.7743
-50.474
-45.3048
-39.8219
-37.541
-41.6002
-38.8322
-49.2197
-51.6896
-50.9224
-49.7956
-162.241
-146.948
-130.141
-3.54999
-47.9501
-51.286
-111.265
42.0742
-89.8424
-83.2049
-86.4935
-86.3738
-56.9579
-55.3947
-57.5585
-51.8967
-56.939
-55.1972
-58.7088
-51.4257
-67.2441
-57.4519
-63.1832
-60.709
6.64473
15.8839
0.40663
29.0555
-47.2287
-47.3123
-84.3924
28.5688
-58.4186
-59.4263
-66.2597
-36.7003
-39.4784
-37.2713
-41.358
-38.3945
-46.6047
-50.1637
-49.9138
-44.7229
-48.8788
-51.4239
-50.5931
-49.5379
-51.7746
-58.1416
-60.5259
-57.4223
-47.6793
-47.3641
-47.7571
-48.0619
-53.5229
-55.273
-58.9049
-52.6672
-57.8726
-58.304
-60.9347
-55.9127
-46.5298
-63.0521
-52.2678
-67.2637
-45.0783
-46.0686
-46.0561
-45.8207
-47.8009
-48.968
-48.3212
-48.4969
-45.7022
-49.0968
-47.0383
-47.4445
-96.6576
-100.977
-90.7441
-70.633
-74.1008
-66.7833
-71.9112
-68.9879
-77.7139
-73.6416
-73.064
-83.4286
-69.3949
-57.9787
-45.8948
-68.967
-57.0156
-56.351
-56.2713
-57.0363
-56.4597
-54.5479
-56.1525
-55.3778
-61.8011
-63.4125
-61.5282
-65.9417
-66.5418
-68.9669
-69.6602
-66.103
-52.2292
-58.2236
-60.6973
-57.2101
-58.8651
-58.8015
-60.8744
-56.678
-47.9007
-47.6231
-47.9058
-48.4045
-53.6495
-55.3576
-59.0586
-52.7572
-47.7588
-61.1125
-51.7866
-67.2648
-47.6089
-50.2978
-48.3018
-49.3346
-45.6136
-46.3008
-46.2997
-46.0243
-47.9463
-49.0016
-48.4369
-48.5113
-96.6634
-100.952
-90.5317
-70.6616
-69.4418
-57.9302
-45.8033
-68.8576
-74.0958
-66.8034
-71.926
-68.9853
-77.6465
-73.5581
-73
-83.3579
-56.9432
-56.2351
-56.1902
-56.9529
-66.4531
-68.9244
-69.6043
-66.0472
-56.4511
-54.4924
-56.1275
-55.3225
-61.7201
-63.3183
-61.488
-65.8238
-107.366
-90.898
-101.432
-94.512
163.541
196.075
184.043
176.657
-95.7838
-82.8596
-88.3265
-88.1322
165.039
174.617
165.798
165.915
-70.3651
-72.7454
-74.7114
-69.9001
-65.3345
-65.4465
-69.9701
-61.6263
-57.1001
-58.0567
-59.054
-57.1891
-49.5409
-50.0261
-50.1054
-48.2695
-60.0642
-62.8896
-61.2519
-61.737
-50.3692
-50.5554
-50.9315
-50.841
-57.0493
-56.8855
-56.971
-56.921
-57.6686
-59.9596
-59.0523
-61.6071
0.717297
10.9269
0.821413
0.790211
119.042
180.185
158.566
158.6
-79.7834
-79.4105
-79.3208
-81.3358
2.90375
16.3921
8.57256
12.5159
-44.2494
-48.6884
-46.7135
-46.6746
-36.3679
-41.69
-38.7646
-39.0947
-53.9714
-54.3715
-54.1779
-54.179
-55.4719
-55.471
-57.0636
-53.6825
-107.376
-90.6595
-101.323
-94.5867
163.67
196.277
176.787
184.145
-70.2688
-72.6644
-74.6049
-69.8388
-64.6072
-64.9528
-69.7434
-60.5546
-56.6818
-57.6582
-56.7675
-58.6444
-49.0506
-49.6918
-49.8074
-47.6425
-56.4563
-56.4385
-56.49
-56.4427
-60.1708
-60.4235
-62.1017
-58.6805
-79.6709
-79.3194
-81.2448
-79.2448
2.99429
16.4282
12.1088
8.59172
-53.7557
-54.1023
-53.9657
-53.9025
-55.3628
-55.4046
-53.5834
-56.9841
-48.7015
-50.4118
-49.6916
-49.5446
-47.1792
-48.0255
-47.9933
-47.3132
-67.4348
-70.5422
-68.4019
-71.1074
-56.0651
-55.0298
-53.7552
-57.0165
-60.3937
-60.863
-61.793
-62.4356
-54.9592
-52.1079
-53.0749
-53.6066
-51.3022
-52.2842
-50.9825
-52.8276
-52.4042
-52.3679
-51.6794
-52.9358
-48.2706
-48.1162
-48.2132
-48.0755
-56.8923
-65.3243
-59.5457
-59.6156
-63.9634
-60.6859
-61.2074
-63.533
-86.2153
-96.8097
-96.7972
-88.7031
-13.1409
7.17252
-2.02036
-1.98158
-99.1951
-107.179
-104.996
-104.991
-78.8179
-85.8291
-82.3467
-82.3327
-64.4417
-60.7464
-62.3691
-62.3522
-48.8083
-50.4985
-49.7802
-49.6425
-47.3061
-48.161
-48.129
-47.386
-67.8824
-70.3457
-70.9437
-67.809
-56.0905
-55.058
-53.7966
-57.0374
-51.3391
-52.3108
-52.8478
-51.029
-52.2338
-52.1263
-51.4626
-52.7427
-63.9373
-60.6959
-63.5151
-61.1957
-86.1585
-96.772
-88.6482
-96.7705
-106.406
-97.1162
-97.8791
-89.3326
-64.1308
-65.0113
-65.9368
-65.4275
-78.5499
-74.006
-77.1428
-72.9545
-101.6
-89.4816
-93.0192
-85.1709
-106.367
-96.9506
-97.6976
-89.1352
-101.572
-89.3859
-93.0163
-85.138
-78.5578
-74.0249
-77.1155
-72.965
-64.1553
-65.0978
-65.8893
-65.3466
-94.8837
-87.0173
-87.835
-81.8642
-94.3415
-86.3706
-86.7643
-81.3898
-60.4593
-62.3359
-57.2189
-55.8236
-59.8016
-61.2014
-60.9457
-66.0379
-7.01401
-13.0824
-2.15811
-3.18458
-8.4751
-14.5168
4.67329
-0.551124
-8.43322
-14.1877
4.7372
-0.500471
-6.90897
-13.0144
-2.12677
-3.1486
137.516
156.186
161.165
157.589
121.288
118.767
155.784
158.545
119.084
121.492
158.761
155.79
156.257
137.012
157.636
161.076
-49.3606
-50.7602
-49.9583
-51.1546
-47.6993
-48.1325
-48.7752
-48.992
-57.2303
-59.4129
-55.5431
-58.3634
-66.3949
-68.1269
-61.4685
-63.5723
-49.4629
-50.8425
-50.0428
-51.2232
-66.3765
-68.086
-61.4644
-63.5467
-57.2209
-59.4101
-55.5387
-58.3582
-47.8603
-48.2784
-48.883
-49.079
-50.0496
-52.2519
-49.8479
-51.768
-52.5388
-50.5023
-52.8534
-50.4128
-47.3887
-46.9702
-47.8139
-47.2316
-46.5155
-47.0208
-46.9947
-47.4572
-105.849
-98.4494
-100.146
-101.286
-74.6236
-74.3963
-81.0385
-79.6422
-74.3377
-74.5532
-79.6072
-80.9891
-98.4231
-105.793
-101.28
-100.067
-46.7973
-46.4262
-50.9874
-48.6301
-62.4162
-63.3634
-61.4695
-60.2002
-51.6679
-51.9156
-54.312
-53.5587
-54.8812
-54.7612
-54.5098
-54.0815
-46.4848
-46.2774
-50.5826
-48.3821
-54.7889
-54.6564
-54.3423
-53.9206
-51.222
-51.5323
-53.8979
-53.1754
-62.0355
-62.9327
-61.0561
-59.757
-59.7759
-48.5713
-70.451
-59.5893
-55.0038
-52.7176
-58.9243
-62.2657
-63.1914
-62.0054
-60.8962
-63.1226
-63.8993
-61.5417
-63.5793
-62.8776
-61.2789
-63.0785
-60.1124
-62.1522
-45.9634
-48.4802
-47.4419
-49.6062
-45.7935
-48.3081
-47.3303
-49.4842
-61.2112
-63.0228
-60.0508
-62.1099
-50.5164
-50.5579
-50.6899
-50.7554
-49.9653
-50.392
-50.598
-50.524
-39.5591
-42.3206
-39.8541
-42.9378
-43.1414
-40.3285
-43.8598
-40.6505
-101.011
33.9313
-133.721
-17.6471
-104.767
-105.929
-61.0935
-51.7753
-58.8216
-51.5462
-66.2071
-65.3293
-63.7393
19.6952
-19.2844
17.8276
-67.5946
-37.5834
-48.2591
-42.7467
-43.7543
-41.0732
-48.7063
-47.9759
-133.278
-12.7878
-100.891
34.4784
-104.819
-106.646
-59.2632
-51.4231
-60.823
-51.5749
-65.8757
-65.2241
-19.8797
18.0928
-63.991
19.8186
-67.7379
-37.447
-43.361
-40.6567
-47.7513
-42.2937
-48.2943
-47.6357
-71.582
-63.0648
-48.8754
-51.0649
-58.9714
-50.8941
-60.4749
-54.4879
-46.8164
-43.5001
-46.069
-45.1515
-47.3202
-47.5971
-45.2064
-45.0151
-86.3456
-110.001
-79.9552
-76.9672
-77.6377
-92.2983
-110.963
-119.795
-57.0976
-59.1203
-57.7345
-56.6694
-59.7034
-63.2763
-64.9575
-62.2044
-71.291
-63.0317
-63.1708
-55.0802
-49.0344
-51.575
-59.1023
-51.033
-47.0453
-46.0499
-46.5919
-47.6318
-46.4327
-46.2565
-47.5589
-47.736
-86.3262
-109.934
-110.772
-119.775
-79.9469
-76.9314
-77.5895
-92.2222
-57.0434
-59.0261
-64.8523
-62.1817
-57.7391
-56.6549
-59.6753
-63.1675
-112.335
58.9877
-94.7159
32.2909
-112.178
-108.017
133.2
103.892
-128.463
-22.8281
-128.083
-22.3655
-109.694
-109.64
110.783
111.396
-76.7886
-73.6947
-63.0607
-59.1278
-71.0437
-67.6504
-69.1817
-61.3482
-57.3386
-51.131
-53.6696
-48.2153
-58.3175
-55.9277
-49.9092
-48.6187
-57.3118
-51.6976
-57.0798
-52.1138
-58.658
-58.9051
-50.5537
-50.6004
-57.0589
-57.8262
-55.1947
-58.095
-56.5951
-56.0871
-55.0621
-61.6288
6.45482
39.7837
6.56001
39.7606
3.73803
3.81147
59.4067
60.2611
-73.9049
-37.4753
-93.3279
-42.4659
-83.7207
-81.8542
-14.7488
-12.5855
-39.5491
-35.9863
-39.4178
-35.6837
-41.7432
-41.7216
-35.3908
-35.6252
-52.9137
-52.6625
-55.1634
-56.9122
-53.449
-54.1808
-57.2454
-53.8958
-112.315
57.8754
-94.6439
32.5041
-112.13
-107.976
103.615
133.362
-76.4815
-73.2931
-63.0868
-58.6959
-70.8889
-67.5973
-68.624
-60.2976
-56.9542
-50.8358
-53.1192
-47.6502
-55.4567
-57.8932
-49.5748
-48.0579
-56.4248
-58.3438
-54.1934
-54.7283
-55.8493
-55.4592
-57.3043
-58.6696
-73.8443
-37.4816
-93.2681
-42.3914
-81.8122
-83.6226
-12.5224
-14.7625
-52.6638
-52.4608
-55.0346
-56.7894
-54.0191
-53.2188
-53.748
-57.1339
-47.1956
-46.7417
-46.6883
-45.8618
-47.984
-47.9953
-47.003
-46.4199
-59.2572
-54.6742
-65.1581
-62.2697
-62.7659
-64.404
-55.052
-58.7929
-59.4856
-57.4888
-60.0279
-57.7378
-58.8198
-59.9145
-56.165
-56.4016
-49.4892
-49.8811
-53.3433
-53.1474
-50.5556
-51.9494
-51.7057
-52.7196
-49.0603
-50.1655
-50.3054
-52.2844
-48.941
-48.6221
-52.3325
-54.4524
-69.6402
-78.1088
-64.5464
-67.4571
-64.5907
-66.6435
-83.0339
-76.3109
-41.2929
-70.2604
-41.2528
-70.1975
-25.1694
-24.9808
-89.2886
-89.304
-72.0144
-67.6063
-71.9868
-67.5776
-75.3336
-75.3196
-65.9362
-65.9215
-47.3385
-47.1297
-46.8478
-46.1131
-48.0973
-48.1206
-47.1526
-46.6154
-59.4929
-54.7208
-65.223
-62.288
-64.5715
-63.5341
-55.0842
-58.8121
-49.5321
-49.8253
-53.3146
-53.0604
-51.958
-50.6013
-51.5773
-52.5952
-69.5658
-78.021
-64.4834
-67.3346
-66.5939
-64.5564
-76.211
-82.9564
-84.2104
-85.4487
-76.8657
-71.8786
-76.4917
-81.8386
-71.1219
-73.7662
-84.0894
-85.2009
-76.7672
-71.8055
-81.7649
-76.3919
-73.6533
-71.014
-76.4306
-76.2544
-70.3867
-61.5878
-70.4205
-60.9738
-57.7619
-58.7349
18.1475
18.1912
17.0661
19.151
19.1839
17.1072
14.6091
14.6096
198.954
195.23
188.756