# vtk DataFile Version 2.0
tri_press
ASCII
DATASET UNSTRUCTURED_GRID
POINTS 3682 float
-0.745 0.045 -2.2264
-0.705 0.125 2.15476
-0.695 0.507296 -1.965
-0.825 0.783204 2.335
0.745 0.045 -2.22612
0.705 0.125 2.15476
0.695 0.507295 -1.965
0.835 0.775 2.33365
-0.728434 0.0748991 -0.766013
-0.775686 0.0409806 0.694373
-0.768133 0.629065 -0.531667
-0.820902 0.73047 0.901667
0.728429 0.0749043 -0.765827
0.775683 0.0409833 0.694467
0.770851 0.625714 -0.532117
0.825212 0.722643 0.900767
-1.51482 -0.286033 -3.49881
-1.50332 -0.231972 -2.34146
-1.50747 -0.218946 -0.880342
-1.54642 -0.251355 0.586308
-1.52785 -0.207686 2.0479
-1.51069 -0.152947 3.20752
-1.50305 -0.100462 4.36293
-1.50575 -0.0233975 -3.37798
-1.49504 0.0408749 -2.2236
-1.50648 0.0797971 -0.767742
-1.55845 0.0654709 0.690623
-1.52454 0.119391 2.147
-1.50393 0.173717 3.30619
-1.49671 0.223781 4.46246
-1.48452 0.48028 -3.1286
-1.46995 0.540538 -1.97302
-1.52967 0.646572 -0.535597
-1.59832 0.726263 0.89996
-1.59914 0.780298 2.33786
-1.54097 0.828599 3.49796
-1.50672 0.873558 4.65846
-1.48348 1.31524 -2.77498
-1.48316 1.3887 -1.62349
-1.51468 1.51457 -0.194991
-1.55552 1.64152 1.22767
-1.56616 1.73252 2.65638
-1.54593 1.78454 3.80834
-1.51767 1.8288 4.96596
-0.768 -0.282706 -3.50059
-0.752924 -0.225611 -2.34406
-0.741927 -0.21977 -0.880079
-0.774631 -0.268173 0.589599
-0.755211 -0.20989 2.05372
-0.73393 -0.154223 3.21137
-0.725084 -0.102403 4.36506
-0.763756 -0.0248518 -3.37856
-0.712614 0.174331 3.30925
-0.71271 0.222832 4.46396
-0.743924 0.465188 -3.12529
-0.740841 0.829551 3.49704
-0.714519 0.873683 4.65802
-0.728334 1.30173 -2.77177
-0.720389 1.37435 -1.61996
-0.738867 1.50652 -0.19299
-0.76795 1.64211 1.22712
-0.773759 1.73556 2.65416
-0.753523 1.78664 3.80613
-0.727585 1.82985 4.96428
0.719875 -0.28345 -3.5005
0.735914 -0.226015 -2.34389
0.741759 -0.220245 -0.879972
0.756752 -0.268757 0.589614
0.717686 -0.210676 2.05363
0.773322 -0.156364 3.21108
0.810573 -0.105336 4.36465
0.713994 -0.0254339 -3.37846
0.799231 0.171683 3.30885
0.830156 0.219512 4.46349
0.707808 0.464464 -3.1253
0.847206 0.824244 3.49622
0.855633 0.869333 4.65738
0.767073 1.29977 -2.77196
0.785038 1.37199 -1.62022
0.804594 1.50298 -0.193404
0.816271 1.63719 1.22651
0.825879 1.73014 2.65343
0.839398 1.78152 3.80542
0.854117 1.82522 4.96364
1.46854 -0.288013 -3.49874
1.48401 -0.233716 -2.34133
1.49906 -0.221312 -0.880359
1.52674 -0.254497 0.58606
1.50499 -0.211369 2.04744
1.54041 -0.157994 3.20684
1.57796 -0.106493 4.36212
1.46321 -0.0252116 -3.37791
1.48548 0.039194 -2.22347
1.50073 0.0769068 -0.767836
1.54977 0.0611448 0.690209
1.52405 0.114624 2.14633
1.5638 0.167668 3.30532
1.5979 0.217058 4.46152
1.45804 0.478096 -3.12869
1.46999 0.538099 -1.97318
1.53235 0.64068 -0.536231
1.59944 0.715923 0.898733
1.61408 0.769187 2.3362
1.62176 0.819026 3.49653
1.63164 0.865128 4.65726
1.51773 1.31112 -2.77538
1.5384 1.38382 -1.624
1.57181 1.50764 -0.195788
1.60087 1.63227 1.22653
1.61875 1.72235 2.65503
1.63009 1.77478 3.80701
1.64056 1.8198 4.96474
-0.721714 0.276148 -2.09741
0 0.0552951 -2.21596
-0.761757 0.0349093 -1.49621
-0.704755 0.454102 2.18464
0 0.122817 2.15694
-0.782117 0.0412159 1.42457
0 0.571215 -2.02892
-0.856181 0.692795 -1.24833
0.005 0.788243 2.34347
-0.825975 0.759861 1.61833
0.72174 0.276148 -2.0973
0.761757 0.0349101 -1.49597
0.704399 0.45 2.1786
0.782113 0.04122 1.42461
0.856264 0.689843 -1.24856
0.835489 0.754205 1.61721
-0.76926 0.0407401 -0.03582
-0.821206 0.351982 -0.64884
-2.57738e-06 0.0408001 -0.76592
-0.849335 0.385725 0.79802
-1.34343e-06 0.0407902 0.69442
-0.77409 0.65934 0.185
0.001359 1.00751 -0.531892
0.00215469 1.08865 0.901217
0.769259 0.040741 -0.0356801
0.821243 0.350309 -0.648972
0.849873 0.381813 0.797617
0.777222 0.653369 0.184325
-0.859805 0.314065 -1.37227
0.859816 0.313228 -1.37227
-1.28869e-06 0.038664 -1.49609
0.000679502 0.706273 -1.24845
0 0.276148 -2.19415
-0.813999 0.368854 0.07459
0.814039 0.366061 0.0743225
-1.9604e-06 0.040796 -0.03575
0.00175685 1.17351 0.184663
-0.889037 0.419914 1.52145
0.889495 0.415907 1.52091
-6.71715e-07 0.0407151 1.42459
0.00357734 0.862345 1.61777
0.0025 0.452051 2.25675
-0.714804 0.160574 -2.14335
-0.3725 0.0571963 -2.21413
-0.742438 0.0508957 -1.8613
-0.729204 0.289551 2.19402
-0.3525 0.122819 2.15694
-0.765665 0.0610017 1.78966
-0.70896 0.391722 -2.03181
-0.3475 0.547453 -2.00516
-0.805186 0.629642 -1.60667
-0.692025 0.618653 2.18696
-0.41 0.788771 2.34228
-0.767313 0.713358 1.97667
0.3725 0.056725 -2.21446
0.714929 0.160574 -2.14327
0.74244 0.0508932 -1.86105
0.3525 0.122825 2.15693
0.730118 0.2875 2.1921
0.765058 0.061609 1.78969
0.3475 0.547459 -2.00516
0.708957 0.391721 -2.03174
0.80594 0.628877 -1.60678
0.42 0.787627 2.34456
0.696659 0.6125 2.18309
0.784423 0.713781 1.97543
-0.764967 0.035033 -1.13111
-0.766048 0.0406192 -0.400917
-0.663623 0.269039 -0.707427
-0.372053 0.0421795 -0.765967
-0.778902 0.0410979 1.05947
-0.772457 0.0408762 0.329277
-0.836046 0.201585 0.746197
-0.387221 0.0421313 0.694397
-0.786748 0.635521 -0.89
-0.808905 0.497641 -0.590253
-0.768638 0.641729 -0.173333
-0.430895 0.913303 -0.531779
-0.859545 0.781272 1.26
-0.860406 0.570741 0.849843
-0.787635 0.685044 0.543333
-0.448855 0.988523 0.901442
0.764966 0.0350342 -1.1309
0.372051 0.0421771 -0.765873
0.766047 0.0406199 -0.400753
0.663501 0.268275 -0.707399
0.778899 0.0411009 1.05954
0.387219 0.0421303 0.694443
0.772456 0.0408775 0.329393
0.835829 0.199873 0.746042
0.788848 0.63307 -0.890338
0.433514 0.91143 -0.532004
0.809204 0.49459 -0.590544
0.77123 0.636736 -0.173896
0.869526 0.777599 1.25899
0.453477 0.985236 0.900992
0.860755 0.563835 0.849192
0.790906 0.677696 0.542546
-0.831256 0.295107 -1.73484
-0.360857 0.276148 -2.17534
-6.44345e-07 0.054678 -1.85603
0 0.165721 -2.19501
-0.861582 0.174487 -1.43424
-0.380879 0.0386835 -1.49615
-0.831805 0.437008 1.85304
-0.351128 0.453077 2.25017
-3.35858e-07 0.0642567 1.79077
0.00125 0.287434 2.18275
-0.892932 0.230565 1.47301
-0.391059 0.0407152 1.42458
0.000339751 0.665219 -1.63868
0 0.423681 -2.17076
-0.857916 0.50343 -1.3103
-0.427751 0.697004 -1.24839
0.00428867 0.767637 1.98062
0.00375 0.620147 2.23694
-0.885601 0.589888 1.56989
-0.411199 0.816006 1.61805
0.845734 0.294688 -1.73478
0.36087 0.276148 -2.17543
0.861587 0.174069 -1.43412
0.380878 0.0386667 -1.49603
0.833148 0.432953 1.84976
0.35345 0.451025 2.2501
0.891769 0.228563 1.47276
0.391056 0.0407149 1.4246
0.857933 0.501536 -1.31041
0.428472 0.696959 -1.2485
0.885048 0.585056 1.56906
0.419533 0.815128 1.61749
-0.80485 0.198187 0.019385
-0.383906 0.0422184 -0.035785
-0.85915 0.333024 -1.01056
-0.81358 0.360418 -0.287125
-1.93303e-06 0.0373937 -1.13101
-2.26889e-06 0.0408836 -0.400835
-0.824545 0.37729 0.436305
-0.894937 0.40282 1.15974
-1.65192e-06 0.0408214 0.329335
-1.00757e-06 0.0407486 1.05951
-0.807362 0.520756 0.129795
-0.450756 1.0456 0.184831
0.00101925 0.827957 -0.890169
0.00155793 1.18067 -0.173615
0.00195577 1.14473 0.54294
0.00286602 0.996627 1.25949
0.804763 0.196844 0.0193212
0.383905 0.0422164 -0.035715
0.85917 0.331769 -1.01062
0.813601 0.358185 -0.287325
0.824556 0.373937 0.43597
0.894978 0.39886 1.15926
0.807963 0.515882 0.129324
0.454219 1.0429 0.184494
-0.740309 0.167531 -1.79807
-0.861312 0.193964 -1.07083
-0.857163 0.496977 -0.950278
-0.85576 0.447576 -1.67075
0.737398 0.167322 -1.79791
0.855772 0.446629 -1.67078
0.857187 0.494774 -0.950478
0.861321 0.193338 -1.07076
-0.37669 0.054699 -1.85867
0.376689 0.0546823 -1.85854
0.372545 0.0373922 -1.13095
-0.372549 0.037409 -1.13106
-0.387625 0.652385 -1.62267
-0.405569 0.755815 -0.890084
0.407288 0.754979 -0.890253
0.387986 0.652332 -1.62273
-0.366679 0.163148 -2.26985
-0.354179 0.407702 -2.11546
0.354185 0.407701 -2.11548
0.366685 0.163148 -2.26989
-0.796819 0.202322 -0.344021
-0.793285 0.213467 0.382791
-0.817299 0.537456 0.489819
-0.805572 0.507918 -0.230229
0.796685 0.201283 -0.344039
0.806064 0.503976 -0.23061
0.817994 0.531676 0.489258
0.793288 0.211863 0.382681
-0.377954 0.0422495 -0.400876
0.377953 0.042247 -0.400794
0.385562 0.0421733 0.329364
-0.385563 0.0421749 0.329306
-0.453983 1.00577 -0.173474
-0.460566 1.03859 0.543137
0.464407 1.03518 0.542743
0.456952 1.00334 -0.173755
-0.890083 0.221959 1.1096
-0.837986 0.260058 1.82135
-0.804302 0.60427 1.91485
-0.894386 0.573993 1.20987
0.8901 0.219981 1.1094
0.894447 0.568642 1.20913
0.805196 0.598778 1.91259
0.838045 0.258032 1.81972
-0.389451 0.0407486 1.05949
0.389449 0.0407481 1.05952
0.371778 0.0641787 1.79023
-0.37178 0.0641684 1.79021
-0.410286 0.910608 1.25975
-0.4106 0.768165 1.97864
0.419767 0.768732 1.97802
0.416608 0.906959 1.25924
-0.351814 0.288493 2.2151
0.352975 0.287467 2.20356
0.386725 0.616324 2.2417
-0.380564 0.6194 2.24202
-0.704905 0.102787 -2.15988
-0.55875 0.0621035 -2.20926
-0.751458 0.0402085 -2.04385
-0.721583 0.207276 2.17887
-0.52875 0.111909 2.16785
-0.738069 0.0902645 1.97221
-0.705113 0.449509 -2.00154
-0.52125 0.530384 -1.98809
-0.755507 0.573882 -1.78583
-0.726339 0.700929 2.22881
-0.6175 0.789067 2.34172
-0.78024 0.732365 2.15583
0.55875 0.062044 -2.20911
0.704888 0.102787 -2.15962
0.751458 0.0402082 -2.04358
0.52875 0.112012 2.16775
0.722032 0.20625 2.1779
0.737554 0.0907795 1.97222
0.52125 0.530384 -1.98809
0.705077 0.449508 -2.00147
0.755834 0.57345 -1.78589
0.6275 0.787166 2.34496
0.72366 0.69375 2.2162
0.797411 0.73209 2.15454
-0.766575 0.0350916 -0.948562
-0.764441 0.0405587 -0.583465
-0.663201 0.188383 -0.73672
-0.558113 0.0428005 -0.76599
-0.777276 0.041057 0.876922
-0.774083 0.0409165 0.511825
-0.825522 0.111455 0.720285
-0.581985 0.0404924 0.694385
-0.773208 0.628061 -0.710833
-0.795745 0.566966 -0.56096
-0.767374 0.634386 -0.3525
-0.59135 0.754858 -0.531723
-0.842637 0.758285 1.08083
-0.848948 0.654753 0.875755
-0.800474 0.703962 0.7225
-0.607762 0.805264 0.901554
0.766573 0.0350933 -0.948363
0.55811 0.0427998 -0.76585
0.764441 0.0405594 -0.58329
0.663087 0.188028 -0.736613
0.777273 0.04106 0.877003
0.581928 0.0406044 0.694455
0.774082 0.0409183 0.51193
[...]
POINT_DATA 3682
SCALARS point_scalars float 1
LOOKUP_TABLE default
-0.79368
-37.4864
-17.8698
-31.3325
-1.45363
-37.4955
-17.9557
-29.2383
-31.2031
-31.7427
-36.4343
-38.5405
-31.1673
-31.3936
-36.322
-37.2478
-0.79368
-110.97
-54.8995
-22.6286
-53.9929
-34.1443
-33.3949
-0.79368
-77.2884
-52.0471
-31.9806
-40.1834
-33.3949
-32.6388
22.1422
-59.7521
-32.9522
-34.4046
-33.748
-31.3325
-29.1351
-15.6074
-80.2901
-38.6898
-51.73
-31.3325
-31.3325
-29.1351
69.8017
-24.7133
-42.0784
-30.3624
-39.9459
-32.6543
-31.0566
133.96
-29.9544
-29.7843
162.852
-29.1351
-29.5531
8.96767
-54.7028
-67.7094
-51.5528
-30.8381
-29.1351
-29.5531
91.8838
-21.1835
-42.0296
-30.4427
-39.4234
-32.6805
-31.0877
116.12
-31.0354
-29.86
174.75
-29.2383
-29.2383
6.96581
-58.8494
-67.7868
-51.3582
-29.2383
-29.2383
-30.5836
-1.45363
-110.78
-54.838
-22.0313
-54.6776
-34.171
-33.4261
-1.45363
-77.8804
-51.8277
-29.2054
-40.141
-33.4261
-29.2383
33.6454
-60.3497
-32.8931
-33.8447
-34.2453
-29.2383
-29.2383
-15.6702
-80.1051
-38.7248
-51.2695
-31.9151
-29.2383
-29.2383
-45.2505
-151.352
-50.6312
-32.874
-33.219
-40.7988
-74.5089
-64.0195
-30.136
-46.3844
-44.3739
-50.5683
-33.0331
-40.761
-63.3981
-46.9136
-28.5498
-32.5741
-34.6128
-25.3806
-32.3919
-37.4495
6.74619
-53.7886
-28.5765
-32.4922
-25.3769
-37.0775
-60.6292
-60.4056
-49.1327
-15.6075
204.736
-29.3065
-29.2187
-30.3509
-72.92
-48.7373
-48.6126
-38.6913
-37.8859
-27.924
-25.9349
-156.578
-63.4314
-33.5493
-34.0728
-46.1956
-9.98115
-59.5293
-42.5551
-32.8098
-29.5426
-33.7007
-156.501
-25.8764
-63.3977
-34.0922
-33.6783
-46.3013
-59.3171
-9.6859
-42.6172
-29.5987
-32.9922
-33.3527
-39.5234
-15.4919
-34.446
-34.2698
-35.9687
-28.3238
-25.2459
-31.9125
-39.5659
-32.6659
-38.8901
-42.413
-51.5042
-27.3831
-34.2646
-54.9125
-39.5227
-34.2597
-15.5843
-34.3644
-35.9285
-31.9246
-27.5918
-25.9976
-39.6526
-42.5836
-32.6126
-38.4145
-51.6241
-54.8985
-27.2467
-34.0408
-52.1418
194.758
-66.272
200.946
-61.2553
-48.7795
-43.6785
-28.3522
-39.8665
-27.5775
-47.5814
-39.0248
-42.6349
133.78
-60.7392
-36.5555
-32.8678
-28.656
-48.1805
-39.6002
-54.8684
194.719
-61.2073
-48.772
-43.7119
-28.4203
-47.4033
-39.0337
-60.6067
-36.5684
-48.1725
-39.6703
-28.8599
-29.8158
-46.4499
-29.7258
-40.0877
-31.4536
-26.0329
-44.0568
-30.7775
-34.9228
-32.0312
-60.2337
22.2336
-108.348
-63.4283
-45.0326
-28.8596
-29.7908
-46.4209
-29.7465
-25.9419
-43.9748
-31.717
-59.7402
-37.5456
-46.8317
-45.2559
-88.4554
-36.996
-89.2333
-45.2016
-46.777
-66.0492
-66.0443
-40.1487
-40.1621
-46.6772
-20.1909
-20.4748
-46.6976
190.577
110.885
110.412
190.788
-24.6719
-24.9118
-28.0782
-32.3794
-24.6947
-32.3456
-27.9237
-24.8083
-30.7283
-30.7302
-30.3167
-30.3438
-66.493
-58.9127
-59.1718
-66.2186
-41.7225
-46.4083
-41.0363
-46.1344
-41.6355
-46.0825
-40.8137
-46.6346
-34.9249
-34.9225
-40.8338
-40.8273
-47.1123
-33.9515
-34.0161
-47.1307
-28.835
-28.8779
-29.4467
-29.3934
-10.0815
-83.3743
-93.5922
-35.249
-35.6229
-40.2348
-11.5556
-1.62623
-33.8864
-31.7247
-29.3857
-29.0459
-83.686
-10.5589
-93.4451
-35.6617
-35.3392
-40.354
-3.47649
-11.6297
-34.0917
-29.4559
-31.9916
-30.2759
-44.81
-31.3601
-35.0198
-33.4555
-35.1826
-28.9384
-27.3054
-31.4234
-36.5956
-33.9136
-37.5142
-45.715
-46.9268
-28.772
-36.0586
-50.7532
-44.8095
-33.44
-31.3171
-34.9114
-34.9883
-31.4808
-28.8522
-28.9341
-36.4407
-45.5247
-33.8002
-37.2027
-45.1374
-50.4964
-28.6633
-35.0917
-34.6962
-23.0079
-57.7496
139.308
-183.527
-183.388
-94.602
122.322
-44.5052
-44.9712
-60.0941
-48.5594
-32.9858
-32.8211
-37.8467
-29.5759
-34.8298
-34.8543
-36.2165
-28.8638
-45.143
-37.9951
-46.1123
-39.4767
-76.2975
-76.413
-49.7049
69.7841
-79.0093
-50.1403
-61.2601
-53.0844
-29.8029
-30.2897
-30.8039
-28.9507
-39.2229
-52.8515
-48.1422
-41.559
-34.813
-22.5211
-56.9851
139.332
-44.6674
-44.9601
-60.1602
-48.57
-33.0529
-32.964
-38.0314
-29.6849
-45.0946
-37.9267
-45.9107
-39.5127
-79.1043
-50.5082
-61.066
-53.1063
-38.6599
-51.3638
-48.4074
-41.6659
-27.8254
-28.2671
-29.1953
-29.1546
-33.6497
-32.3719
-39.9609
-27.3142
-34.5306
-34.5247
-38.7936
-32.8116
-24.9031
-26.4919
-25.144
-36.741
-32.3186
-32.3189
-31.3548
-33.655
-38.741
-35.8188
-33.8008
-48.66
-17.8003
-17.9165
16.9946
-91.0435
-54.0865
-54.0876
-57.5093
-49.4841
-27.8466
-28.1639
-29.2232
-29.0922
-33.5739
-32.3155
-39.1139
-27.2572
-25.0725
-26.2709
-25.0958
-36.7227
-38.3558
-35.4816
-33.6223
-48.5973
-80.6341
-61.3911
-60.5123
-51.7169
-79.3916
-61.1654
-60.3631
-51.6042
-50.7514
-49.064
-49.0545
-43.9119
-31.5769
-22.0421
-22.1062
3.79009
201.54
201.912
139.393
201.531
-28.9325
-30.3556
-27.8763
-30.2748
-28.9108
-30.3377
-27.7774
-30.1392
-30.2028
-30.7364
-30.4875
-30.1913
-71.3577
-82.1063
-67.5068
-71.4407
-50.655
-48.3162
-48.5321
-46.2856
-50.6556
-48.1488
-48.3431
-46.1952
-41.6295
-38.6288
-38.6397
-36.7942
-35.1538
-38.2792
-38.2929
-41.0905
-28.0344
-27.2373
-28.396
-28.0878
-64.359
159.065
-97.8775
85.8977
-47.3724
-63.9088
-38.8258
-30.2017
-37.3878
-29.6294
-48.0617
-41.9243
-53.9064
94.7903
-51.1294
69.9447
-80.9664
-44.3451
-36.5013
-30.2543
-31.5683
-29.5589
-38.1667
-34.4955
-97.7856
85.7653
-63.6982
159.132
-45.2025
-63.949
-37.3978
-29.5721
-38.8443
-30.1381
-48.0567
-41.8927
-51.1728
70.6008
-53.9925
95.9007
-81.5756
-44.3359
-31.6045
-29.5674
-36.973
-30.3111
-38.1083
-34.5872
-45.2115
-40.3957
-19.7222
-29.4275
-45.0894
-28.3485
-38.4948
-32.1445
-40.3913
-34.9685
-25.9133
-29.6431
-24.5014
-30.3639
-30.9217
-33.5525
-42.8342
-35.7964
-36.5459
-31.7842
-34.5476
-48.4653
-23.9921
-57.3881
-47.3563
-49.9865
-26.405
-38.7711
-29.6831
-44.9679
-58.3669
-51.2326
-45.1923
-40.3785
-38.4798
-32.1384
-19.7385
-29.4419
-44.9791
-28.2767
-40.2912
-34.944
-30.9142
-33.5644
-26.4434
-29.5955
-23.9747
-30.4167
-42.8788
-35.8737
-24.4513
-57.3791
-36.4645
-31.739
-34.377
-48.1877
-47.2652
-49.9729
-58.0771
-51.3201
-26.3199
-38.9231
-29.7389
-45.1492
-35.3291
-79.4643
196.953
113.447
-66.4516
-66.4447
199.428
199.393
-87.8317
-51.2953
-50.4743
-43.8557
-44.9489
-41.9649
-28.4829
-28.8238
-40.1154
-40.2286
-27.7516
-27.7619
-44.0207
-49.1858
-36.9518
-42.4107
-43.1167
-43.138
121.172
121.138
-50.9274
-75.851
-42.0989
-24.9381
-33.1827
-33.2261
-28.8439
-28.8155
-48.0203
-47.6114
-43.2204
-36.6399
-36.1633
-82.5034
113.519
196.899
-88.3975
-51.224
-50.4891
-43.8409
-41.9405
-45.0471
-28.5802
-28.864
-43.9024
-48.7747
-36.9553
-42.452
-75.8453
-50.8879
-25.0206
-42.1202
-47.591
-48.3306
-36.7114
-43.2256
-30.0093
-27.6605
-30.0226
-29.9662
-46.9641
-46.0056
-27.6809
-31.0442
-40.1152
-40.1221
-31.2908
-31.2879
-25.3781
-26.7411
-42.4931
-45.2544
-30.6772
-30.6913
-34.9251
-34.9251
-30.1625
-32.6576
-66.2746
-55.0147
12.4349
12.2452
-92.7544
-92.6997
-63.8497
-63.7496
-45.3765
-45.4108
-30.0499
-27.4602
-30.0269
-29.929
-46.0243
-46.9012
-27.6936
-31.0398
-26.6832
-25.303
-42.4453
-45.2227
-32.6449
-30.0734
-54.9385
-65.8183
-71.3655
-73.5739
-86.0092
-58.2181
-54.3
-43.0917
-51.7834
-49.729
-35.7536
-50.7353
-51.4779
-38.4074
-48.1154
-48.0005
-76.5318
-82.2337
-71.0659
-57.6939
-85.1296
-73.724
-48.4869
-82.0213
-76.3246
-47.3594
-35.6265
-38.328
-51.3974
-50.6694
-54.1564
-49.7286
-51.6631
-42.9497
-99.5947
-96.1215
-51.336
-47.0918
-99.5323
-47.1492
-51.3409
-96.0705
-38.6613
-38.7585
-43.789
-43.8104
-38.6834
-43.8236
-43.798
-38.7678
-46.4607
-55.0505
-34.5582
-50.269
-39.2138
6.18188
-7.2992
-40.5891
-38.9963
-40.6716
-7.41715
5.81643
-46.557
-50.2952
-34.6037
-55.0175
92.8204
161.845
199.599
101.123
59.2762
91.1283
123.025
97.8976
61.6838
97.8089
123.005
91.1375
92.6304
100.854
199.595
161.951
-29.373
-30.3604
-29.8853
-26.9584
-22.8745
-24.6601
-27.3873
-28.2361
-28.7394
-31.7813
-28.7755
-25.5973
-33.8401
-30.2707
-31.1295
-33.9437
-29.2982
-26.9013
-29.9047
-30.4172
-33.7231
-33.6029
-31.0621
-30.231
-28.6135
-25.5991
-28.6707
-31.6653
-22.6295
-27.8892
-27.2461
-24.5527
-30.875
-32.6856
-30.5697
-28.9813
-30.8708
-29.0249
-30.5658
-32.6799
-30.239
-31.2946
-30.3398
-29.1334
-30.2523
-29.2247
-30.3206
-31.3015
-47.3764
-49.1833
-80.2823
-70.8459
-49.4613
-58.835
-66.9854
-44.7877
-49.0191
-44.8684
-67.0671
-58.8103
-47.0755
-71.931
-80.2866
-48.9877
-30.3339
-41.8264
-45.3645
-34.4565
-39.9344
-38.4728
-49.9448
-47.1146
-32.6668
-40.9768
-49.8405
-37.0997
-37.3539
-37.4993
-47.007
-48.5645
-30.6264
-34.491
-45.2457
-41.6429
-37.1111
-48.4822
-46.9274
-37.4878
-36.4095
-37.2503
-50.1614
-41.471
-39.928
-47.0406
-49.7083
-38.5292
-33.2262
-33.6313
-36.845
-37.2087
-33.2774
-37.2023
-36.8489
-33.6314
-38.6708
-35.6553
-41.6045
-43.1684
-38.6752
-43.0723
-41.517
-35.6236
-51.1271
-45.9684
-41.6594
-49.7164
-31.3044
-31.0403
-35.5257
-38.1265
-31.1896
-38.2525
-35.567
-31.1503
-51.1271
-49.7343
-41.6982
-46.1599
-31.7525
-28.328
-27.2612
-29.6483
-31.8223
-29.6978
-27.2604
-28.3831
-30.4974
-28.8426
-28.4878
-29.8322
-30.3563
-29.8095
-28.4656
-28.6601
-5.41434
16.8128
-108.533
-36.5699
-36.4522
-39.1159
-16.082
-6.56416
-34.5995
-31.9613
-29.1351
-31.3325
17.9354
-6.38743
-108.275
-36.4889
-36.6315
-39.0442
-6.73317
-16.1723
-34.7532
-29.2383
-29.9037
-31.9151
-43.0908
-26.0025
-34.1497
-32.2241
-29.3565
-30.7655
-34.1765
-31.157
-36.3335
-34.9931
-36.9355
-41.3144
-41.534
-32.9913
-35.6514
-49.5235
-42.9979
-32.1936
-25.9697
-34.0752
-31.0244
-31.3357
-30.5657
-34.2719
-36.1721
-41.1901
-34.8402
-36.7311
-40.8603
-48.5128
-32.1612
-34.9176
-37.2835
-40.7642
-77.4835
83.1045
-172.036
-172.346
-111.777
-67.1534
-42.8832
-46.9869
-58.4174
-48.8737
-32.8401
-32.8198
-35.2623
-30.6575
-33.2321
-33.2381
-34.602
-31.1006
-41.2299
-38.3077
-43.2923
-39.5954
-78.1488
-78.0375
-55.4662
7.39949
-75.5473
-58.6285
-63.0404
-61.3188
-30.12
-30.1121
-29.7793
-29.6446
-43.0223
-49.5447
-49.0897
-43.4473
-37.0804
-39.7373
-76.5107
83.1302
-42.8934
-46.9568
-58.438
-48.8813
-32.9548
-32.9676
-35.4113
-30.696
-41.1984
-38.2604
-43.1605
-39.6001
-75.4277
-58.4274
-62.4852
-61.2412
-43.3565
-50.1361
-49.5665
-43.6203
-27.9574
-28.094
-27.9295
-28.9962
-33.1186
-32.4153
-35.819
-29.6761
-34.675
-34.67
-36.76
-33.6608
-25.0308
-25.5449
-25.5473
-28.6975
-32.3586
-32.3581
-31.9658
-32.9435
-38.3624
-37.4596
-35.3544
-43.4938
-1.17079
-1.26505
7.71579
19.734
-53.8427
-53.8445
-55.0105
-51.6355
-27.9867
-28.046
-28.0254
-28.9583
-33.0787
-32.3393
-35.6683
-29.5864
-24.9839
-25.5603
-25.5692
-28.7882
-38.1016
-37.1168
-35.0183
-43.3401
-68.3051
-61.0985
-60.5568
-55.5589
-67.8695
-60.846
-60.365
-55.391
-48.4304
-49.1293
-49.1231
-46.2242
-24.2186
-17.4645
-17.4984
-6.34166
203.04
204.2
178.987
203.042
-28.9953
-29.9257
-28.6539
-29.6945
-28.9615
-29.8808
-28.562
-29.5874
-30.3062
-30.5645
-30.3527
-30.2995
-72.8204
-76.8465
-70.2702
-72.8949
-48.1588
-48.5515
-48.5909
-47.9512
-47.9678
-48.4032
-48.4768
-47.8736
-39.7077
-38.59
-38.6022
-37.5867
-36.4372
-37.9704
-37.9973
-39.4244
-27.9399
-27.5251
-28.1373
-27.9772
-12.7794
-34.1081
-77.8932
108.406
-139.27
-184
-132.073
-2.70851
-79.9769
-55.9489
-54.2591
-62.3594
-34.1544
-33.1831
-36.2433
-31.1684
-34.3232
-34.075
-35.6352
-30.9555
-43.0606
-47.7631
-48.3058
-43.2918
-18.0965
-12.4237
-45.6034
70.1037
-25.6247
-74.7188
-53.9721
4.89087
-33.3191
-60.5987
-60.0141
-40.3656
-32.391
-32.8728
-34.8284
-31.0575
-29.6004
-29.3432
-30.5542
-29.5426
-31.2897
-37.4063
-37.103
-34.2707
-139.162
-184.065
-132.211
-3.28382
-13.1724
-34.7121
-77.6018
108.084
-79.7474
-56.5008
-52.1194
-62.253
-34.3444
-34.0942
-35.6481
-30.9669
-34.2699
-33.303
-36.2801
-31.2411
-42.4259
-47.9797
-48.3597
-43.2636
-24.6522
-74.6542
-53.9975
6.10604
-18.0755
-11.9275
-45.4557
70.2629
-33.5278
-61.3926
-60.8179
-40.5306
-29.6156
-30.5709
-30.5595
-29.5987
-32.6601
-33.0572
-35.1031
-31.0867
-30.5775
-36.4377
-36.7283
-34.5544
-40.4392
-41.8426
-42.9925
-40.2498
-26.7905
-28.4129
-14.1427
-28.3102
-34.6322
-34.0142
-35.1215
-32.3673
-34.0439
-34.463
-36.6068
-33.0327
-35.1749
-36.2397
-40.1852
-35.0314
-27.7777
-27.7815
-25.8628
-29.074
-25.1805
-24.985
-24.9798
-24.4847
-31.6197
-32.209
-31.5133
-32.5157
-37.3918
-43.8977
-41.0438
-38.5141
-33.1072
-32.4845
-34.1993
-31.8114
-38.2697
-39.2114
-36.1938
-43.7388
-47.6398
-31.8934
-33.7433
-51.2737
-47.3606
-53.1684
-48.276
-52.0531
-27.7822
-26.9297
-26.1848
-32.4259
-35.3359
-34.3791
-31.2854
-42.3761
-53.0563
-54.6055
-56.8383
-53.0951
-40.4347
-41.838
-42.994
-40.2343
-34.0319
-34.4541
-36.5918
-33.0251
-26.8068
-28.4197
-14.2766
-28.3299
-34.5157
-33.9356
-35.003
-32.2811
-34.9527
-36.1643
-39.9749
-34.9883
-31.6454
-32.2129
-31.5188
-32.5287
-27.7577
-27.5481
-25.6374
-28.9554
-26.6314
-25.4676
-24.9386
-25.1212
-37.3316
-44.0377
-41.0992
-38.5809
-47.3134
-31.9326
-33.9943
-51.3717
-33.0375
-32.4445
-34.137
-31.7767
-37.7866
-38.7364
-35.7145
-43.4527
-46.4799
-53.891
-48.1726
-52.189
-53.0934
-54.644
-56.6552
-53.0943
-27.4351
-26.7436
-26.0669
-32.5078
-34.7691
-33.9472
-31.2223
-42.3621
-42.303
-89.6844
-34.9437
-69.9251
168.804
198.052
197.753
164.864
-76.7791
-58.2347
-66.3352
-66.3293
194.475
202.307
200.155
200.129
-60.6982
-61.4571
-70.2785
-55.4054
-48.4935
-48.9221
-48.2874
-46.0242
-40.5555
-48.337
-44.2651
-42.7983
-28.7744
-28.0293
-28.2939
-28.5527
-38.0858
-41.198
-39.9848
-40.0045
-27.5042
-27.698
-27.6252
-27.6755
-47.0722
-48.1001
-44.9969
-47.43
-39.2602
-38.8627
-37.8274
-40.351
-46.565
-37.8183
-42.4927
-42.4942
113.356
152.516
115.396
115.267
-61.0496
-60.4995
-55.1078
-67.4386
-43.6314
-28.5634
-40.456
-30.2475
-31.7554
-33.9126
-32.9494
-32.9706
-28.822
-28.6525
-28.716
-28.6914
-46.9322
-48.3691
-48.4482
-49.1606
-40.3618
-38.8065
-41.3093
-38.0705
-41.3776
-92.117
-34.9692
-75.6034
168.955
198.022
164.763
197.696
-60.7254
-61.2975
-70.3429
-55.336
-48.4955
-48.9113
-48.28
-46.0085
-40.6137
-48.4638
-42.81
-44.371
-28.8881
-28.0886
-28.3591
-28.6039
-46.8864
-47.9048
-44.8893
-47.1578
-39.2734
-38.8726
-37.8349
-40.3612
-60.9146
-60.386
-67.3355
-55.0236
-43.6682
-28.6469
-30.3057
-40.4951
-47.3258
-48.2904
-49.1247
-48.6037
-40.3501
-38.8557
-38.1374
-41.3569
-28.9556
-28.8732
-29.5759
-28.1353
-29.5293
-30.0743
-29.9678
-29.8481
-45.3171
-48.7327
-46.8039
-46.1638
-28.4961
-30.3621
-28.7389
-30.5921
-39.1452
-41.9752
-40.1026
-40.1076
-31.9762
-31.0925
-31.4489
-31.4459
-25.4197
-26.8909
-25.758
-26.3837
-40.5304
-45.4024
-43.1915
-44.8753
-31.086
-30.5311
-30.7612
-30.7694
-34.2838
-35.8459
-34.915
-34.9159
-33.0329
-30.9589
-31.0086
-31.6879
-53.8246
-67.3557
-61.9454
-55.8125
22.3285
12.3482
20.3396
20.2596
-143.732
-90.7201
-104.426
-104.649
-60.9359
-65.1876
-63.8717
-63.6871
-47.2418
-43.0028
-45.1424
-45.1661
-28.9781
-28.8516
-29.599
-28.0934
-29.4587
-30.0578
-29.9593
-29.8144
-45.7292
-48.6547
-46.1472
-46.7562
-28.4554
-30.3625
-28.7965
-30.5785
-25.312
-26.7896
-26.3034
-25.691
-40.5785
-45.342
-43.1607
-44.8598
-32.682
-30.7786
-31.611
-30.9504
-53.5353
-67.3008
-57.1508
-61.4368
-44.4984
-38.8675
-36.6522
-60.7334
-46.4795
-46.3523
-48.5871
-46.994
-44.4149
-40.7733
-47.9065
-45.8812
-58.2641
-84.0091
-84.1261
-90.4156
-43.6957
-38.7207
-36.4258
-61.3221
-58.9311
-84.3637
-85.4096
-90.575
-44.3845
-40.707
-47.9075
-45.8906
-46.4378
-46.2811
-48.5219
-46.9302
-77.0332
-65.3247
-66.3785
-57.6074
-77.0173
-65.3366
-66.3713
-57.6202
-40.3712
-39.003
-41.9904
-40.1134
-40.3882
-39.0188
-42.0079
-40.1208
-49.05
-48.3955
-44.5986
-44.8437
-31.7575
-18.8886
-22.8956
-1.38854
-32.0815
-19.2908
-23.0972
-1.67357
-49.0688
-48.316
-44.6162
-44.8711
171.828
151.245
196.796
199.484
106.744
102.501
109.956
115.283
102.938
106.404
115.216
109.729
151.39
171.846
199.419
196.748
-23.0277
-23.5878
-28.6469
-26.4617
-25.563
-23.7508
-27.352
-24.9314
-27.0005
-29.2721
-27.2352
-29.1257
-32.0294
-33.2179
-31.6017
-32.8192
-23.0516
-23.5714
-28.7318
-26.4509
-31.9974
-33.1846
-31.5809
-32.7902
-27.041
-29.0618
-27.159
-28.9958
-25.505
-23.5945
-27.1582
-24.7852
-30.1772
-31.2745
-30.3455
-31.1187
-31.2704
-30.1843
-31.1183
-30.3495
-30.5896
-29.9792
-30.5571
-30.0252
-30.0139
-30.6081
-30.059
-30.5765
-58.0997
-61.8242
-67.7931
-78.606
-49.5295
-59.7206
-56.8351
-63.3918
-59.3737
-49.2985
-63.2636
-56.5353
-61.4958
-57.6339
-78.5312
-67.495
-41.0441
-38.4133
-43.4825
-41.9353
-41.5584
-47.0169
-45.7831
-51.5026
-38.8489
-40.8251
-41.2457
-44.3294
-46.6935
-43.3361
-46.8122
-45.7026
-40.9074
-38.3643
-43.4179
-41.895
-46.6293
-43.2637
-46.7702
-45.6079
-38.7335
-40.5944
-41.0747
-43.6804
-41.544
-47.1264
-46.0525
-51.7942
-34.9059
-34.252
-35.956
-34.9431
-34.9033
-34.2551
-35.9553
-34.9416
-39.2043
-41.3456
-40.5966
-42.0801
-39.1947
-41.3491
-40.5998
-42.0544
-48.714
-49.3193
-45.1891
-45.9581
-32.6312
-34.2945
-33.5383
-35.1958
-32.6912
-34.373
-33.5899
-35.2617
-48.734
-49.4319
-45.3016
-46.0174
-29.6106
-28.9344
-28.6784
-28.4298
-28.9115
-29.5992
-28.554
-28.7909
-29.6125
-29.8149
-29.0565
-29.1808
-29.7544
-29.482
-29.1365
-29.0675
-68.867
89.8572
-156.958
18.6314
-78.5825
-98.3687
-37.5646
-32.5632
-36.8451
-34.1497
-40.5185
-39.4154
-44.8153
63.0464
-41.8705
35.8286
-41.4823
-35.963
-33.4743
-30.9242
-30.2101
-29.3857
-32.399
-30.3699
-156.539
18.3748
-68.8902
89.9767
-78.3481
-98.2772
-36.8719
-34.1997
-37.562
-32.6449
-40.5358
-39.442
-42.0523
36.4303
-44.8999
63.4237
-41.8419
-36.1283
-30.2986
-29.4559
-34.1044
-31.1336
-33.7078
-30.2628
-50.4719
-39.6708
-31.2553
-29.9032
-38.8111
-32.6562
-36.0326
-32.1007
-34.0297
-33.2674
-25.2364
-29.8239
-25.889
-25.5856
-30.9797
-32.2114
-36.0216
-39.4955
-34.6948
-33.7362
-35.6221
-42.8451
-41.8422
-46.9224
-40.5835
-51.1965
-28.6037
-33.2979
-31.671
-46.1308
-50.4399
-51.0902
-50.3993
-39.643
-36.0101
-32.0904
-31.205
-29.8998
-38.72
-32.5662
-35.2261
-33.311
-31.005
-32.2747
-24.8224
-29.7246
-22.1933
-29.4798
-35.841
-39.2216
-41.6198
-46.749
-34.593
-33.623
-35.401
-42.4748
-39.6882
-51.2964
-49.4876
-50.9054
-28.3135
-33.0587
-31.1997
-45.7833
-83.0765
95.2764
-53.5335
59.744
-57.7375
-52.7893
154.413
120.785
-119.021
-22.3345
-119.141
-21.7508
-94.4325
-94.3889
104.563
104.823
-69.5866
-44.1261
-48.39
-43.9135
-66.6496
-53.5924
-46.5963
-45.9973
-35.736
-30.7265
-35.0049
-30.8097
-38.3
-37.3696
-29.6473
-29.682
-33.1698
-32.0472
-33.1289
-32.1874
-36.053
-36.0458
-28.0515
-28.0866
-47.8337
-43.7114
-39.7589
-37.4698
-42.982
-46.819
-38.115
-41.7688
-56.1175
34.1936
-56.0122
34.2859
-49.8739
-49.8905
76.1876
76.2164
-84.5406
-64.1564
-51.2877
-46.1626
-55.1428
-69.8906
-56.9292
-46.5129
-30.1591
-29.1964
-29.9864
-29.5473
-30.894
-30.9073
-28.9061
-28.945
-38.6054
-38.7216
-49.5653
-48.3984
-44.2845
-49.7165
-43.6523
-40.0797
-82.8691
95.2241
-53.8467
59.8638
-57.0378
-51.9554
120.732
154.471
-69.6813
-44.2536
-48.3986
-43.9027
-66.7035
-53.6339
-46.6145
-45.9868
-35.8408
-30.8204
-35.263
-30.8302
-37.535
-38.3739
-29.7269
-29.741
-47.173
-43.8686
-39.6155
-37.4487
-42.6799
-46.7349
-38.1224
-41.7735
-84.5886
-64.1353
-51.2454
-46.2478
-69.6568
-55.0847
-46.6051
-56.8855
-38.6551
-38.3762
-49.4642
-48.699
-49.6624
-44.5762
-40.1995
-43.727
-29.2612
-28.3502
-27.5264
-28.6668
-30.0858
-28.483
-28.8772
-29.1648
-34.6742
-31.2746
-34.8807
-30.8139
-41.3393
-39.3669
-26.3848
-28.9974
-36.6994
-33.4663
-36.6914
-33.4623
-38.6661
-38.6718
-32.7673
-32.763
-24.8959
-26.7691
-25.2925
-31.3911
-24.8607
-25.397
-36.1304
-37.1012
-31.8688
-32.7785
-31.8671
-32.7806
-31.3565
-31.3617
-33.6405
-33.6404
-36.2681
-43.9944
-33.7487
-42.1497
-32.7453
-34.6716
-48.9464
-47.189
-6.49988
-34.8391
-6.67385
-34.7167
13.8446
13.8202
-89.5352
-93.3746
-56.4748
-51.9413
-56.4782
-51.9322
-57.7421
-57.7497
-49.4285
-49.4235
-29.3357
-28.3966
-26.6152
-28.5866
-30.1266
-28.5253
-29.0887
-29.0049
-34.5455
-31.1952
-34.817
-30.744
-39.0794
-41.1852
-26.3049
-28.9853
-24.9523
-26.8664
-25.2642
-31.3263
-25.39
-24.7973
-36.1067
-37.1544
-35.7846
-43.6916
-33.3979
-41.9472
-34.2244
-32.6863
-47.1196
-48.7885
-83.2406
-77.9607
-69.9046
-55.7509
-55.2891
-67.1508
-51.8611
-51.6195
-81.8089
-77.3104
-69.6144
-55.5994
-66.9642
-55.1739
-51.5219
-51.7412
-51.0269
-51.0268
-48.8759
-46.1882
-48.8796
-46.1775
-43.8821
-43.9074
-32.2802
-32.2913
-28.5345
-14.4291
-14.5289
-28.5844
-1.54724
-1.68201