# vtk DataFile Version 2.0
tri_press
ASCII
DATASET UNSTRUCTURED_GRID
POINTS 3682 float
-0.685 0.095 -1.85889
-0.735 0.175 1.73519
-0.764182 0.615 -1.685
-0.505 0.838211 1.955
0.685 0.095 -1.85703
0.733451 0.175 1.735
0.762483 0.615 -1.685
0.501996 0.835 1.955
-0.721555 0.101779 -0.660863
-0.760113 0.106554 0.537163
-0.767756 0.779372 -0.471667
-0.690402 0.862816 0.741667
0.716656 0.106161 -0.659687
0.760905 0.104729 0.537657
0.764441 0.77712 -0.471667
0.689508 0.862349 0.741667
-1.40064 -0.286472 -2.91902
-1.41163 -0.230231 -1.95455
-1.43014 -0.222475 -0.75697
-1.43029 -0.227896 0.437549
-1.40052 -0.186893 1.63487
-1.40136 -0.152812 2.59806
-1.41809 -0.122258 3.56358
-1.40996 0.0161696 -2.82687
-1.42366 0.0894307 -1.86068
-1.4428 0.118494 -0.660022
-1.42556 0.121914 0.539297
-1.36313 0.158014 1.73965
-1.38233 0.190837 2.70303
-1.41313 0.221376 3.66801
-1.44591 0.59491 -2.64664
-1.48105 0.666082 -1.68082
-1.47489 0.791127 -0.469686
-1.3741 0.852166 0.742556
-1.22505 0.847919 1.95336
-1.31245 0.877192 2.9161
-1.39381 0.911527 3.87858
-1.46229 1.56861 -2.36481
-1.47727 1.65332 -1.39681
-1.47118 1.78811 -0.180627
-1.43109 1.88823 1.03887
-1.38953 1.92581 2.25481
-1.39591 1.94406 3.22232
-1.42997 1.96843 4.18654
-0.679885 -0.284115 -2.9176
-0.689114 -0.224718 -1.95268
-0.709373 -0.230091 -0.756846
-0.729442 -0.238863 0.435764
-0.722975 -0.180659 1.63153
-0.73378 -0.149511 2.59581
-0.749932 -0.122325 3.56233
-0.681501 0.0125045 -2.82622
-0.741263 0.194451 2.70119
-0.757441 0.220974 3.66708
-0.710311 0.572224 -2.64833
-0.684939 0.873345 2.91649
-0.751775 0.908755 3.87874
-0.733327 1.55241 -2.36649
-0.749726 1.63775 -1.39872
-0.756907 1.78341 -0.181737
-0.746347 1.89161 1.03914
-0.731964 1.92647 2.256
-0.743771 1.94238 3.22351
-0.773975 1.9664 4.18744
0.7401 -0.283844 -2.91641
0.711688 -0.22392 -1.95121
0.730486 -0.227495 -0.755788
0.755522 -0.23961 0.436271
0.727656 -0.181232 1.63159
0.650282 -0.150381 2.5959
0.60656 -0.123363 3.56249
0.743744 0.0125678 -2.82508
0.605024 0.193405 2.7012
0.574953 0.219785 3.66721
0.762972 0.572074 -2.64776
0.522658 0.871383 2.91654
0.532276 0.90726 3.87887
0.732944 1.55198 -2.36607
0.72016 1.63713 -1.39839
0.689736 1.78258 -0.181481
0.631859 1.89066 1.03934
0.571059 1.92514 2.25617
0.546388 1.94096 3.22368
0.532173 1.96508 4.18764
1.45633 -0.285952 -2.91691
1.43313 -0.228909 -1.95222
1.45013 -0.219565 -0.755183
1.46494 -0.228675 0.438523
1.41972 -0.188689 1.63524
1.3463 -0.154765 2.59836
1.29694 -0.12432 3.56396
1.45925 0.0163094 -2.82486
1.42826 0.0898565 -1.85835
1.44478 0.12155 -0.658313
1.44746 0.120615 0.540169
1.37922 0.155664 1.73987
1.29896 0.188475 2.70323
1.26079 0.219039 3.66833
1.4833 0.594504 -2.64538
1.47831 0.665213 -1.67982
1.46836 0.790113 -0.468932
1.3813 0.850743 0.742997
1.22278 0.843898 1.95358
1.19876 0.873768 2.91631
1.20361 0.908711 3.87889
1.46048 1.56778 -2.36391
1.44791 1.6522 -1.39607
1.40962 1.78666 -0.180035
1.33247 1.88645 1.03934
1.24866 1.92334 2.25521
1.21382 1.9414 3.22272
1.2001 1.96591 4.18697
-0.738166 0.355 -1.78552
0 0.0906467 -1.86231
-0.719722 0.0819447 -1.25988
-0.634105 0.506605 1.8592
-0.000774503 0.166565 1.74353
-0.757836 0.130497 1.13618
-0.000849485 0.686637 -1.75664
-0.821754 0.752971 -1.07833
-0.00150201 0.874641 1.99304
-0.613431 0.866243 1.34833
0.737321 0.355 -1.78459
0.721533 0.0798753 -1.25836
0.632108 0.505 1.85938
0.756436 0.130607 1.13633
0.820249 0.752847 -1.07833
0.612692 0.865615 1.34833
-0.744032 0.100968 -0.06185
-0.811235 0.440575 -0.566265
-0.00244914 0.0749972 -0.660275
-0.806767 0.484685 0.639415
0.000395939 0.0880538 0.53741
-0.737403 0.829418 0.135
-0.00165743 1.01978 -0.471667
-0.000447284 1.16086 0.741667
0.744771 0.0994543 -0.061015
0.809695 0.44164 -0.565677
0.805201 0.483539 0.639662
0.735258 0.828019 0.135
-0.885079 0.397788 -1.16911
0.882622 0.39832 -1.16835
-0.00122457 0.0637344 -1.25912
-0.00125346 0.866203 -1.07833
-0.000424743 0.355 -1.95717
-0.80565 0.46263 0.036575
0.800885 0.46259 0.0369925
-0.0010266 0.0802266 -0.0614325
-0.00105236 1.18112 0.135
-0.859498 0.495645 1.24226
0.859379 0.49427 1.24233
-0.000189282 0.122559 1.13625
-0.000974646 1.01489 1.34833
-0.00113826 0.505803 2.02638
-0.693026 0.225 -1.80365
-0.3425 0.0909825 -1.86244
-0.711245 0.0795883 -1.55938
-0.691439 0.340803 1.80408
-0.367887 0.173644 1.7365
-0.761334 0.137832 1.43568
-0.761523 0.485 -1.74561
-0.382516 0.678192 -1.74819
-0.839349 0.730367 -1.38167
-0.55127 0.672408 1.88882
-0.253251 0.862031 1.97962
-0.547412 0.840424 1.65167
0.3425 0.090958 -1.86154
0.692575 0.225 -1.80223
0.719315 0.0713891 -1.55769
0.366338 0.18382 1.72623
0.689734 0.34 1.80415
0.759942 0.137805 1.43566
0.380817 0.678109 -1.74811
0.760327 0.485 -1.74522
0.837875 0.730432 -1.38167
0.250247 0.862596 1.98179
0.549084 0.67 1.88922
0.54722 0.840184 1.65167
-0.729341 0.0831587 -0.96037
-0.734037 0.100129 -0.361357
-0.782533 0.263108 -0.613564
-0.368093 0.0762058 -0.660569
-0.770418 0.107082 0.83667
-0.753408 0.102426 0.237657
-0.859533 0.257572 0.588289
-0.38407 0.0888801 0.537287
-0.785883 0.757299 -0.775
-0.815014 0.622733 -0.518966
-0.754354 0.806169 -0.168333
-0.426823 0.98381 -0.471667
-0.657101 0.869714 1.045
-0.791255 0.695086 0.690541
-0.716123 0.848337 0.438333
-0.409022 1.13903 0.741667
0.731002 0.0811106 -0.959023
0.36431 0.0761671 -0.659981
0.733963 0.0995586 -0.360351
0.781163 0.264907 -0.612682
0.770902 0.105436 0.836993
0.384376 0.0889407 0.537533
0.754644 0.100286 0.238321
0.857864 0.256729 0.588659
0.784389 0.757028 -0.775
0.423951 0.983571 -0.471667
0.81058 0.621136 -0.518672
0.751028 0.803748 -0.168333
0.656223 0.869105 1.045
0.408195 1.13894 0.741667
0.789809 0.694172 0.690664
0.71446 0.847261 0.438333
-0.869766 0.376394 -1.47731
-0.369296 0.355 -1.91263
-0.000612284 0.0598529 -1.56072
-0.000212371 0.222823 -1.9726
-0.869786 0.239866 -1.21449
-0.360473 0.0632339 -1.2595
-0.847764 0.501125 1.55073
-0.317622 0.506204 1.99493
-0.000481892 0.139407 1.43989
-0.000956379 0.336184 1.99987
-0.848285 0.313071 1.18922
-0.379013 0.120794 1.13621
-0.00105147 0.737345 -1.41749
-0.000637114 0.520819 -1.95653
-0.895147 0.575379 -1.12372
-0.411504 0.8254 -1.07833
-0.00123833 0.919973 1.67068
-0.00132013 0.690222 2.00916
-0.86555 0.680944 1.29529
-0.307203 0.991646 1.34833
0.870072 0.37666 -1.47647
0.368448 0.355 -1.91296
0.869829 0.239098 -1.21335
0.360154 0.0632417 -1.25874
0.849657 0.499635 1.55086
0.315485 0.505401 1.99502
0.848352 0.312438 1.18933
0.378123 0.120838 1.13629
0.895179 0.575584 -1.12334
0.409498 0.825402 -1.07833
0.865605 0.679942 1.29533
0.305859 0.991245 1.34833
-0.78018 0.279129 -0.0126375
-0.376563 0.0825299 -0.0616413
-0.859415 0.419181 -0.867685
-0.807789 0.451603 -0.264845
-0.00183685 0.0675619 -0.959696
-0.00173787 0.0775942 -0.360854
-0.803763 0.473657 0.337995
-0.865202 0.490165 0.940835
-0.000315331 0.0828422 0.237989
0.000103328 0.102758 0.836831
-0.798591 0.659556 0.0857875
-0.445288 1.15739 0.135
-0.00145544 0.888572 -0.775
-0.00135489 1.13351 -0.168333
-0.00074982 1.18955 0.438333
-0.000710965 1.09309 1.045
0.777567 0.278653 -0.0120112
0.375498 0.0825883 -0.0612238
0.86027 0.41998 -0.867011
0.80316 0.452115 -0.264342
0.799069 0.473065 0.338327
0.865189 0.488905 0.940996
0.793722 0.65813 0.0859963
0.443516 1.15739 0.135
-0.861106 0.232433 -1.51835
-0.871631 0.255522 -0.914028
-0.838095 0.592676 -0.821343
-0.886476 0.53019 -1.42949
0.860745 0.232049 -1.51708
0.888334 0.530292 -1.42907
0.836432 0.592482 -0.821006
0.872498 0.256499 -0.913017
-0.351487 0.0596679 -1.56005
0.351327 0.0596813 -1.5592
0.358629 0.066789 -0.959359
-0.361238 0.0667851 -0.960033
-0.39701 0.777484 -1.39958
-0.398105 0.859767 -0.775
0.395445 0.86015 -0.775
0.395157 0.777389 -1.39958
-0.355898 0.223912 -1.94555
-0.375906 0.502909 -1.91297
0.374633 0.502909 -1.9103
0.355474 0.223912 -1.94539
-0.777744 0.272925 -0.313101
-0.780944 0.287807 0.287826
-0.793734 0.676726 0.388164
-0.804006 0.639746 -0.216589
0.776753 0.273086 -0.312347
0.799588 0.638352 -0.216338
0.788553 0.674545 0.38833
0.778922 0.287087 0.288324
-0.372312 0.0794005 -0.361105
0.369911 0.0793644 -0.360602
0.379937 0.0857653 0.238155
-0.38031 0.0857185 0.237823
-0.44984 1.09817 -0.168333
-0.437333 1.16857 0.438333
0.436037 1.16853 0.438333
0.447411 1.09784 -0.168333
-0.855207 0.304345 0.888753
-0.839985 0.326937 1.49321
-0.773517 0.676676 1.6012
-0.824733 0.677347 0.992918
0.855095 0.303286 0.888994
0.825843 0.676443 0.992998
0.772388 0.674971 1.60126
0.840028 0.326219 1.49326
-0.379436 0.093884 0.836751
0.379387 0.0938521 0.836912
0.372231 0.138762 1.43778
-0.37345 0.138674 1.43779
-0.326314 1.0733 1.045
-0.280227 0.902527 1.66118
0.278053 0.902258 1.66118
0.325194 1.07284 1.045
-0.342754 0.338493 1.97726
0.340912 0.338092 1.97724
0.282866 0.680111 1.9848
-0.285436 0.681315 1.98498
-0.670306 0.16 -1.81256
-0.51375 0.0916225 -1.86204
-0.691227 0.09419 -1.70914
-0.714394 0.257901 1.77081
-0.551444 0.17171 1.73846
-0.763158 0.141425 1.58544
-0.766818 0.55 -1.71927
-0.573349 0.651681 -1.72168
-0.811812 0.68273 -1.53333
-0.506194 0.75531 1.89997
-0.379125 0.853626 1.97082
-0.519128 0.832239 1.80333
0.51375 0.0915898 -1.86067
0.669499 0.16 -1.81034
0.693652 0.0916999 -1.70736
0.549895 0.171606 1.73842
0.712781 0.2575 1.77076
0.761641 0.141458 1.58533
0.57165 0.651547 -1.72155
0.765393 0.55 -1.7191
0.810426 0.682963 -1.53333
0.376121 0.854519 1.97412
0.503061 0.7525 1.89963
0.518783 0.831767 1.80333
-0.713517 0.1044 -0.810617
-0.726131 0.102619 -0.51111
-0.766506 0.175212 -0.637214
-0.550796 0.0770485 -0.660716
-0.769777 0.102307 0.686917
-0.754912 0.106338 0.38741
-0.847446 0.163252 0.562726
-0.577001 0.0878986 0.537225
-0.774766 0.766282 -0.623333
-0.801538 0.706129 -0.495316
-0.760334 0.792049 -0.32
-0.624373 0.935759 -0.471667
-0.674389 0.866902 0.893333
-0.762992 0.790032 0.716104
-0.70409 0.856403 0.59
-0.58499 1.07148 0.741667
0.709858 0.107607 -0.809355
0.547531 0.0770687 -0.659834
0.721488 0.106682 -0.510019
0.765522 0.177228 -0.636184
0.769925 0.101061 0.687325
0.576893 0.0883288 0.537595
[...]
POINT_DATA 3682
SCALARS point_scalars float 1
LOOKUP_TABLE default
-71.2541
-41.9524
-13.8273
-31.0534
-69.3519
-41.7873
-12.6554
-30.718
-41.4654
-38.7354
-46.2382
-50.8102
-40.5062
-38.2481
-46.5904
-50.9435
-82.1252
-98.5414
-58.0272
-32.7539
-44.37
-38.3933
-32.3663
-82.1252
-117.547
-58.0272
-41.1932
-48.6867
-30.9608
-30.9608
36.21
-114.879
-39.7994
-40.81
-38.3516
-31.5129
-30.3373
-19.0158
-87.0364
-67.4893
-54.041
-35.8153
-31.4846
-30.1861
7.77068
-82.1252
-41.822
-34.1424
-42.4989
-32.3663
-28.4038
7.77068
-29.7688
-28.3655
98.6199
-30.1861
-30.1861
-23.8945
-63.8746
-69.924
-58.3474
-31.4846
-30.1861
-30.0019
-0.0788831
-78.1192
-42.5517
-33.9009
-42.343
-32.034
-27.5215
-46.1748
-28.8152
-25.0558
88.0697
-29.6374
-28.9397
-25.183
-60.6519
-68.7773
-57.6517
-30.8324
-29.7861
-28.9397
-78.1192
-97.2004
-58.1719
-32.041
-43.533
-37.8715
-32.034
-78.1192
-118.445
-58.1719
-40.7956
-47.8936
-30.6635
-29.7443
33.6381
-115.092
-39.4389
-40.8146
-36.9844
-30.0524
-30.024
-21.3917
-87.2429
-70.9044
-53.8644
-31.2312
-31.2312
-30.024
9.84655
-156.878
-65.649
-31.1376
-32.8668
-35.9785
-28.9433
-67.5318
-30.5418
-44.1997
13.413
-66.2654
-30.7887
-35.6824
-67.9551
-44.1889
-31.8416
-38.2665
-43.2991
-33.6142
-37.5744
-49.4393
-7.39329
-64.5056
-32.7105
-38.3215
-33.108
-48.9871
-72.3036
-72.0882
-66.4408
-34.5738
201.534
-33.2299
-32.7773
-36.4673
-83.8337
-43.9595
-43.8076
-36.5126
-40.6985
-22.6269
9.60964
-171.431
-95.4134
-33.8013
-34.665
-38.183
7.20057
-25.1639
-82.0611
-30.4438
-30.4057
-36.1867
-170.814
11.0682
-98.3122
-34.6324
-33.3973
-37.7912
-25.5911
9.37946
-81.9048
-30.3179
-30.1375
-36.0863
-55.7423
-32.2675
-39.4655
-42.6229
-43.4962
-27.3046
-40.2459
-36.6679
-47.2879
-38.5598
-48.6915
-12.015
-49.5676
-40.0749
-50.5419
-62.6034
-56.5907
-42.4341
-31.0878
-39.2547
-45.9243
-36.8455
-27.4621
-39.9465
-47.52
-12.0174
-38.8716
-48.2773
-49.6337
-62.5057
-39.9189
-49.9112
-112.201
180.46
-84.6534
164.976
-71.3658
-65.8046
-48.9962
-27.9517
-36.0691
-22.4819
-40.7075
-36.6892
5.67364
194.491
-71.8191
-41.1575
-34.3871
-26.3599
-49.6444
-40.8638
-112.805
180.647
-71.5545
-65.9731
-48.7988
-27.4003
-40.5611
-36.6447
-71.6908
-41.4393
-49.4657
-40.8299
-31.0433
-35.4026
-54.7338
-34.374
-53.5443
-38.7398
-31.969
-37.9132
-36.3619
-39.3461
-39.7603
-76.9292
-6.50954
-61.8014
-78.2882
-49.9033
-30.6441
-35.2547
-55.0826
-34.047
-31.4827
-38.5455
-39.3051
-76.7075
-127.395
-59.5551
-48.9057
-106.575
-128.212
-107.026
-48.9573
-59.78
-82.8392
-82.926
-53.6655
-53.6589
-38.5035
-15.7803
-15.9189
-37.6267
158.768
186.501
186.401
158.891
-32.4134
-25.3245
-39.9069
-39.3021
-32.3662
-38.9645
-39.3728
-25.1912
-37.8541
-37.5517
-35.31
-35.2228
-54.9794
-72.8995
-72.6842
-54.5722
-40.387
-45.7707
-42.0287
-40.2729
-40.7338
-40.3118
-41.7661
-45.3739
-39.9589
-40.1957
-36.9216
-37.0579
-49.6139
-34.6128
-34.5444
-49.5775
-28.5269
-28.0224
-28.1661
-28.4912
-5.55409
-159.562
-115.659
-37.337
-36.7645
-45.0269
3.39431
-16.1799
-51.956
-30.2586
-30.417
-33.3097
-156.517
-5.32876
-110.987
-36.4009
-36.9044
-44.4592
-16.1589
5.17941
-52.4028
-30.2321
-29.9456
-33.1584
-43.9067
-35.9463
-41.1705
-41.8148
-42.0395
-23.2606
-41.7332
-36.5737
-44.2292
-41.4723
-47.9356
-41.2012
-50.7452
-45.9544
-50.6142
-57.7296
-43.7609
-41.1424
-35.1476
-40.8441
-43.1661
-37.3304
-22.8669
-41.645
-44.5771
-41.0642
-41.4984
-47.4269
-50.8126
-57.5175
-45.8239
-50.1145
10.7036
7.09001
-121.191
125.727
-156.954
-156.801
-111.925
95.0855
-79.0647
-58.342
-70.3612
-65.0759
-32.1072
-30.5373
-38.7508
-29.4454
-33.5643
-33.3959
-35.369
-27.4798
-37.2384
-38.2565
-39.0217
-36.3525
-31.9953
-31.4911
-17.395
111.003
-79.311
-55.6755
-72.8952
-52.9497
-30.4722
-30.4379
-32.1398
-26.3914
-39.767
-47.3951
-49.3528
-41.7737
12.3683
8.72538
-122.196
125.141
-81.0833
-58.3689
-70.1567
-65.4013
-31.7518
-30.2569
-38.2532
-29.1397
-36.7766
-38.1425
-38.9053
-36.0979
-79.7573
-56.4555
-73.195
-53.2055
-39.7093
-47.4505
-49.4734
-41.6428
-33.033
-32.3213
-31.1029
-33.9542
-38.9378
-38.1329
-44.3288
-35.5598
-43.1124
-43.0619
-46.3759
-40.7383
-35.1706
-35.3638
-33.4053
-29.9542
-37.3173
-37.3977
-36.8681
-37.7898
-49.304
-50.0905
-44.6841
-64.1557
-7.41057
-7.42104
0.0287749
-31.5355
-64.1472
-64.1008
-72.7454
-56.6286
-32.5402
-28.3965
-31.3825
-33.6694
-38.8778
-38.3713
-44.3084
-35.4156
-34.6143
-35.0856
-32.6746
-30.1126
-48.9902
-49.4214
-44.186
-63.4167
-85.9065
-72.1614
-72.023
-63.2012
-86.4166
-72.2053
-71.9022
-63.1019
-76.1045
-66.1787
-66.2339
-59.0315
-69.5915
-35.873
-35.9428
-20.6463
196.659
184.404
200.949
196.534
-31.6335
-33.7923
-32.3559
-35.8644
-31.218
-33.4547
-31.9151
-35.364
-36.272
-37.3032
-36.1594
-36.2061
-82.6022
-79.0822
-83.2714
-82.5666
-46.501
-42.4219
-45.6029
-43.1791
-46.2495
-42.2609
-45.5079
-43.1873
-36.6278
-36.5358
-36.5304
-37.1484
-37.1992
-40.7207
-40.7007
-44.922
-24.7868
-22.8266
-24.9429
-24.229
-81.1518
106.286
-111.204
103.112
-123.677
-83.7775
-45.3055
-30.212
-37.4255
-30.7938
-43.1542
-37.3926
-111.438
82.091
-32.3605
-11.4835
-107.375
-53.4008
-36.367
-29.4365
-32.4162
-28.1773
-39.6518
-35.2675
-110.921
102.463
-80.6624
106.114
-128.873
-83.9269
-37.3027
-29.7749
-44.9957
-29.8935
-42.7228
-37.1099
-33.2953
-9.03693
-112.507
82.6645
-107.517
-52.9281
-32.322
-27.8445
-36.0694
-29.1008
-39.413
-35.1591
-58.6853
-53.9117
-31.5822
-36.5499
-47.165
-34.6306
-45.4563
-39.9794
-43.3854
-41.6618
-24.767
-33.2733
-20.53
-39.3402
-36.0614
-37.73
-48.1674
-30.562
-41.3548
-39.2629
-44.1094
-63.3462
-7.70278
-33.3421
-47.016
-50.2244
-40.3678
-38.7629
-44.6199
-60.7986
-68.9857
-55.8373
-59.3341
-54.5684
-45.2249
-39.6651
-31.5101
-35.8414
-46.9162
-34.4431
-43.1309
-43.4626
-36.2056
-37.9544
-24.8471
-34.185
-20.3334
-38.9211
-48.5783
-30.8797
-7.65148
-32.3566
-41.5414
-38.974
-43.7213
-63.986
-47.3349
-50.1656
-68.8094
-55.8147
-39.4969
-38.7496
-43.9122
-60.3572
-119.114
-112.294
169.438
177.713
-83.4169
-83.4433
165.409
165.09
-87.0733
-63.5875
-75.4029
-58.5732
-46.0956
-46.934
-28.0092
-28.3067
-36.3045
-36.3595
-25.1568
-24.6835
-40.334
-42.3608
-37.4957
-36.9139
-17.4704
-17.648
187.417
187.489
-60.0726
-82.6102
-44.4999
-28.3923
-34.4512
-34.4487
-26.7433
-27.0332
-51.3136
-45.2548
-44.7881
-37.516
-119.806
-112.805
177.916
169.279
-87.6791
-63.6291
-75.7038
-58.6692
-46.7162
-46.3538
-27.4756
-27.8924
-40.4134
-42.0573
-37.5695
-36.7933
-82.7823
-61.1002
-28.5841
-44.6608
-45.2975
-51.3319
-37.4657
-44.7629
-31.7478
-28.9881
-36.3381
-35.0278
-57.8147
-51.4525
-33.3284
-36.204
-53.5837
-53.6136
-38.5697
-38.4452
-28.5681
-35.4906
-38.8309
-36.2602
-36.1124
-36.088
-39.5638
-39.6421
-39.7861
-39.7078
-72.9473
-77.0528
-8.64395
-8.74086
-60.7104
-60.5656
-77.3636
-77.282
-49.9203
-49.9006
-31.7122
-28.4291
-36.0937
-34.9911
-51.5971
-58.0671
-33.0665
-35.8846
-34.9185
-28.2181
-39.2111
-36.5179
-39.141
-39.2424
-76.8121
-72.9719
-80.3472
-87.8361
-86.4778
-100.751
-51.5035
-45.9222
-63.8398
-62.2341
-42.5874
-58.303
-62.2799
-42.7866
-91.5999
-122.91
-84.8989
-83.5017
-77.2632
-102.643
-87.0877
-88.3577
-92.1302
-83.7719
-85.2251
-124.442
-42.8713
-42.8738
-62.6979
-58.6584
-51.3557
-62.2497
-63.9838
-45.4094
-114.713
-109.388
-75.7847
-75.6326
-114.103
-76.489
-75.8525
-109.297
-44.4279
-46.0292
-58.9414
-58.2902
-44.4586
-58.0836
-58.9277
-46.1907
-41.6022
-56.8619
-45.4426
-21.5598
-28.4824
-1.74901
-23.9456
-40.5044
-29.8807
-40.7866
-24.1747
-1.78912
-42.3931
-21.7319
-45.2819
-57.4167
31.2239
124.417
185.609
125.002
14.6246
124.218
195.503
126.535
14.6149
127.054
195.573
121.554
30.541
125.802
184.133
124.544
-35.0285
-32.1003
-32.5555
-35.0455
-16.3818
-29.3076
-30.2233
-29.6995
-45.2823
-44.5285
-35.5063
-36.0688
-43.6036
-36.9094
-36.0802
-44.5568
-34.6635
-34.8641
-32.2524
-32.1016
-43.2496
-44.1391
-35.6769
-36.6082
-44.5165
-35.1528
-35.0685
-43.9193
-16.6278
-28.1542
-29.8187
-28.8932
-38.9522
-40.613
-37.115
-35.1216
-38.0589
-34.5483
-37.0054
-40.4887
-35.0953
-36.8417
-35.8643
-33.0281
-34.6069
-33.2985
-35.8838
-36.783
-56.3676
-67.2735
-77.98
-32.2498
-59.1721
-72.1856
-82.2913
-62.8371
-58.8396
-62.1634
-82.1972
-72.1225
-56.2975
-31.8878
-77.9975
-66.387
-42.6762
-37.8047
-41.96
-32.0194
-47.7665
-40.9521
-44.6483
-40.8234
-36.3046
-44.9361
-49.6059
-37.5066
-46.58
-33.2499
-44.5513
-49.6272
-42.6835
-31.5609
-41.9017
-38.0812
-46.6835
-49.8067
-44.5615
-32.8969
-36.0358
-36.8382
-49.3527
-44.8475
-47.9328
-40.4823
-44.1248
-40.5559
-37.0772
-37.6836
-37.2361
-37.9789
-37.2191
-37.8684
-37.2678
-37.7719
-39.212
-36.0154
-36.6953
-36.4501
-39.5529
-36.7993
-36.7373
-36.0903
-54.2757
-45.6124
-44.783
-56.4452
-32.6381
-32.2168
-37.2797
-38.2546
-32.5523
-38.1956
-37.2543
-32.1669
-54.2926
-56.4223
-44.8023
-45.6265
-31.6561
-28.6248
-24.2146
-29.6214
-31.2286
-29.314
-23.7027
-28.285
-28.9782
-26.9236
-25.598
-29.1497
-29.1766
-29.4385
-25.9863
-27.1676
-31.2673
-74.8559
-117.215
-39.7303
-38.4277
-43.6465
-3.94738
-16.1924
-33.2012
-30.7035
-30.8303
-32.0097
-76.431
-29.5395
-115.174
-38.0556
-39.3726
-43.2568
-16.009
-2.63033
-33.1966
-30.5474
-30.2908
-31.8143
-43.9157
-39.5157
-42.5907
-41.294
-38.7992
-35.7606
-38.2408
-36.4049
-45.1566
-44.5264
-47.4852
-50.4993
-51.3046
-49.4557
-50.6643
-52.7462
-43.6216
-40.4472
-38.0023
-41.9476
-39.5087
-37.0259
-33.843
-38.0001
-45.7614
-51.7557
-44.7441
-47.2319
-51.3861
-52.7205
-49.8427
-50.5207
11.0526
10.0737
-38.7371
59.1026
-157.208
-157.123
-134.087
0.354767
-71.4434
-61.5321
-69.4473
-64.976
-31.5767
-30.779
-34.2136
-29.9441
-33.2183
-33.1244
-34.0896
-28.8457
-37.1434
-35.5463
-37.6234
-36.0834
-30.2232
-30.0714
-23.7093
-50.628
-74.2194
-61.2676
-72.8636
-61.1364
-30.5213
-30.5075
-31.3634
-28.2276
-41.724
-45.8459
-46.4464
-42.8448
13.197
10.8526
-37.5747
58.7651
-73.2237
-61.2963
-69.8123
-65.4933
-31.2228
-30.4395
-33.7814
-29.6726
-36.739
-35.3296
-37.4956
-35.7566
-74.7061
-61.8085
-73.2654
-61.4359
-41.6743
-45.8853
-46.4657
-42.8316
-32.218
-32.5029
-31.2579
-33.2411
-38.5896
-38.1853
-40.8751
-36.543
-43.2199
-43.1872
-44.6964
-41.9958
-34.1262
-34.0618
-33.9426
-32.4713
-37.513
-37.5508
-36.9904
-37.6904
-49.7213
-49.6961
-47.0786
-55.5631
-7.17683
-7.10552
-2.03908
-19.0592
-64.3411
-64.3176
-69.0396
-60.6155
-31.9351
-31.0832
-33.7718
-32.4867
-38.6012
-38.2135
-40.817
-36.6157
-33.595
-33.6594
-33.1583
-32.2322
-49.3132
-49.2325
-46.5072
-55.0939
-77.9554
-72.1936
-72.2564
-67.7058
-78.0481
-71.9649
-72.1816
-67.5731
-70.8563
-66.3026
-66.3263
-62.512
-45.6068
-35.1753
-35.2027
-27.5336
200.17
201.478
202.166
200.108
-32.3002
-33.5253
-32.801
-34.413
-31.9038
-33.1291
-32.3253
-33.9175
-36.432
-36.8696
-36.2285
-36.4025
-83.6473
-83.5872
-84.5086
-83.6261
-44.9244
-43.1799
-44.7703
-43.4394
-44.7057
-43.0237
-44.6229
-43.359
-36.6359
-36.4854
-36.4845
-36.7625
-38.898
-40.6964
-40.6888
-42.5441
-23.4933
-22.5479
-23.8769
-23.1324
5.21688
12.6166
-43.5288
54.8418
-185.164
-158.714
-133.88
30.2661
-105.869
-91.2984
-110.759
-88.4739
-35.2397
-32.8216
-38.7812
-30.9532
-35.5649
-34.1669
-36.1539
-31.9243
-40.5329
-36.2161
-41.3024
-37.7135
7.68049
7.60668
-46.7878
49.9564
-22.6143
-29.1503
-28.1406
-34.9009
-67.1397
-84.6239
-95.159
-64.8295
-30.3701
-30.4536
-33.0732
-29.8557
-30.3499
-30.484
-31.3854
-29.0724
-34.6875
-37.8225
-38.1354
-35.6855
-183.415
-158.288
-133.419
30.6172
6.89622
14.2111
-40.2999
54.725
-105.339
-94.255
-118.583
-90.0072
-35.1708
-34.0231
-36.5324
-31.1828
-34.834
-32.4371
-38.268
-30.7091
-40.1293
-35.8063
-40.9528
-37.3236
-22.6688
-29.3011
-27.435
-35.1497
9.56576
9.92212
-47.0445
50.2471
-67.2764
-84.6965
-95.0432
-64.8144
-30.1933
-30.4124
-31.2799
-28.7898
-30.053
-30.157
-32.5715
-29.5909
-34.5608
-37.7402
-38.2881
-35.595
-51.308
-55.9068
-57.0853
-54.1947
-33.6822
-31.3987
-30.4734
-35.7729
-40.0061
-39.172
-42.8824
-36.691
-42.3124
-42.8262
-43.4568
-41.2519
-41.8824
-40.9539
-44.842
-42.212
-25.2882
-28.6723
-25.0111
-31.7006
-40.399
-39.1481
-26.7562
-38.7555
-36.5451
-37.1624
-36.3271
-37.2335
-45.239
-50.9809
-48.6481
-40.0097
-39.3493
-38.6845
-39.3954
-39.6326
-48.5117
-49.3347
-46.6747
-55.4458
-19.5746
-8.51131
-7.58822
-19.8513
-49.9163
-48.6362
-49.6931
-49.9351
-42.8202
-37.3152
-40.024
-39.2458
-50.6315
-50.5433
-48.2561
-54.3449
-61.3733
-63.6217
-66.3877
-59.0625
-51.4334
-56.441
-57.8385
-56.3374
-41.9883
-42.7205
-44.1402
-40.9664
-32.0484
-31.1559
-30.5804
-34.6262
-39.7101
-39.0406
-42.7143
-36.4232
-43.0434
-41.6889
-44.1436
-46.0486
-36.7894
-37.2872
-36.4983
-37.4289
-25.3884
-28.1814
-25.5451
-31.8676
-40.0892
-38.7423
-26.5631
-38.4965
-45.4883
-51.457
-48.5363
-40.3202
-19.5514
-8.49635
-7.50497
-20.3819
-39.2099
-38.6038
-39.7714
-39.3441
-48.0014
-48.9856
-45.7537
-54.8128
-50.0255
-48.7193
-49.6938
-49.9305
-60.9433
-63.5533
-66.2332
-59.0175
-42.6645
-37.1298
-39.4231
-39.148
-50.0179
-49.8958
-47.795
-53.8955
-137.358
-95.782
-114.037
-112.759
174.112
191.931
180.26
179.064
-91.3758
-81.9795
-83.8145
-83.8219
153.982
173.184
163.535
163.473
-71.0912
-71.5619
-78.2943
-66.6418
-65.474
-66.0265
-70.7493
-62.0749
-45.0993
-47.4658
-47.4861
-49.5958
-28.8726
-26.1684
-27.9437
-28.0671
-35.6115
-36.4155
-36.1468
-36.1761
-24.4908
-22.3364
-23.3548
-22.9568
-40.1138
-41.5726
-40.4976
-41.4616
-36.5921
-36.602
-36.9949
-36.8567
-7.82148
-34.0583
2.3422
2.3074
187.685
196.396
192.633
192.534
-71.6539
-72.0352
-66.0759
-76.441
-45.6488
-39.1923
-45.9977
-34.9891
-33.1376
-35.7409
-34.4312
-34.4189
-26.9246
-25.385
-26.3995
-26.5725
-52.2316
-46.5481
-52.3125
-47.5675
-41.1837
-40.7627
-42.7642
-39.0576
-138.203
-95.5914
-114.978
-113.194
174.112
191.934
179.179
180.297
-71.1468
-71.672
-78.6952
-66.6956
-65.7148
-66.1375
-71.0195
-62.212
-44.8643
-47.017
-49.4388
-46.9835
-28.4699
-25.5364
-27.4038
-27.5664
-39.9982
-41.4365
-40.4575
-41.2465
-36.4758
-36.5865
-37.0023
-36.7637
-71.7716
-71.8218
-76.5158
-66.3348
-45.9977
-39.3773
-35.1848
-46.2223
-52.3321
-46.462
-47.5445
-52.2904
-41.1557
-40.7353
-39.0202
-42.7357
-31.0337
-31.1401
-31.5204
-30.2339
-34.8532
-35.8939
-35.8688
-35.1578
-48.6234
-59.3386
-56.3841
-53.3336
-34.849
-34.0169
-33.8183
-35.1506
-49.7679
-55.918
-53.5676
-53.5764
-39.6346
-37.936
-38.7065
-38.6506
-32.3719
-32.0536
-30.3317
-33.7019
-30.2634
-43.4972
-38.2064
-37.2592
-36.6835
-36.213
-36.312
-36.2997
-38.7586
-38.1304
-39.2806
-39.3134
-42.371
-37.5641
-39.7172
-39.6411
-71.9948
-80.2303
-76.3361
-77.1556
-0.946991
-13.3412
-7.15486
-7.20859
-45.0472
-74.9902
-61.4045
-61.2741
-75.6352
-80.6488
-78.0874
-78.0434
-53.3221
-47.1787
-49.9225
-49.9078
-30.83
-30.7195
-31.3791
-29.6705
-34.6678
-35.7829
-35.6775
-35.0531
-48.694
-59.474
-53.6637
-56.8147
-34.5948
-33.7091
-33.515
-34.8152
-31.873
-31.6174
-33.1719
-29.9058
-29.7896
-43.611
-38.8785
-37.6945
-41.9558
-37.0731
-39.0902
-39.2583
-71.2775
-80.1872
-76.9032
-76.2703
-125.425
-130.969
-123.99
-100.087
-59.3686
-54.7769
-60.4079
-58.768
-48.3248
-44.7081
-54.7442
-49.867
-128.93
-106.693
-108.022
-92.3566
-127.887
-133.288
-124.562
-100.795
-128.667
-107.191
-108.574
-92.92
-48.3297
-44.7492
-55.0939
-49.9842
-59.8375
-54.6579
-60.5296
-58.8792
-87.2589
-82.8967
-83.4886
-82.5315
-87.1614
-83.2106
-83.5593
-82.7805
-53.8311
-49.3337
-55.7839
-53.5876
-53.7428
-49.4269
-55.7381
-53.6093
-35.7459
-46.4676
-29.9921
-42.368
-21.9365
-10.4537
-21.255
-11.6442
-22.211
-11.0743
-21.4779
-11.7662
-35.3855
-43.3446
-30.371
-42.4384
157.147
138.984
164.72
162.074
148.843
143.937
178.979
179.702
144.763
144.528
178.885
179.035
138.776
157.743
162.088
164.646
-32.1293
-33.2592
-31.978
-32.7463
-24.8007
-22.8604
-27.4033
-26.5802
-40.1382
-42.5589
-37.3995
-39.8919
-39.2218
-41.8138
-37.5518
-39.3297
-31.9947
-33.0765
-31.9581
-32.6579
-38.8549
-41.6016
-37.2026
-38.9652
-39.5235
-41.7398
-36.799
-39.3587
-24.7127
-22.8459
-27.0698
-26.3516
-37.2998
-38.8079
-37.0416
-38.2312
-38.4887
-36.8953
-38.0299
-36.772
-35.6248
-34.6965
-35.719
-35.094
-34.5262
-35.51
-35.0587
-35.6737
-57.7394
-45.0998
-66.7996
-57.7888
-68.2897
-71.0059
-74.7728
-75.9373
-70.8139
-67.9353
-75.7876
-74.5558
-45.0898
-58.0363
-57.525
-66.6224
-41.5873
-39.6006
-40.2504
-39.2463
-47.3528
-44.525
-46.2395
-43.9784
-39.1115
-40.8093
-44.2263
-46.7295
-43.4493
-39.0967
-40.5855
-37.8936
-41.6721
-39.429
-40.6665
-39.771
-43.7697
-38.8606
-40.7998
-37.8892
-38.7373
-40.4942
-44.2063
-46.6395
-47.0731
-44.0497
-45.893
-43.6217
-40.3933
-38.5396
-39.2878
-39.4999
-40.844
-38.7864
-39.4541
-39.6365
-36.8083
-37.4016
-36.5751
-36.8872
-36.9411
-37.616
-36.6643
-37.0143
-49.7229
-52.4968
-47.1555
-49.7481
-33.4452
-34.8771
-34.4999
-36.0407
-33.3596
-34.7835
-34.5061
-35.9843
-49.7104
-52.4619
-47.1314
-49.7073
-29.4427
-29.0929
-28.1188
-26.9787
-28.5853
-29.0571
-26.4016
-27.6086
-28.3018
-28.8037
-27.5207
-28.0032
-29.0826
-28.6118
-28.322
-27.8467
-78.1853
33.2188
-139.143
-41.043
-96.5924
-117.855
-42.0333
-33.1957
-38.7392
-32.3663
-49.0432
-41.0066
-44.3117
29.6468
-28.8564
-4.99493
-71.9333
-44.1536
-32.9814
-29.5168
-31.5285
-29.7171
-35.403
-32.913
-138.069
-42.2426
-72.3406
33.1176
-91.5395
-116.503
-38.3531
-32.0271
-41.7462
-32.7467
-48.8084
-40.7429
-29.2837
-4.95357
-44.1775
29.8777
-72.63
-44.274
-31.409
-29.591
-32.532
-29.2932
-35.1209
-32.7751
-45.6665
-43.8899
-35.5149
-38.0654
-45.5537
-37.7341
-42.1743
-40.2996
-43.7589
-38.4912
-15.073
-33.1898
-17.5267
-40.4212
-35.3854
-37.7177
-44.0478
-42.605
-41.2091
-43.2538
-45.9113
-54.4961
-32.6835
-48.7887
-50.426
-50.9297
-45.8129
-46.3098
-49.454
-53.656
-58.3721
-55.622
-45.5038
-43.8664
-42.7386
-39.5614
-34.9321
-36.6348
-45.1499
-37.3685
-44.0129
-39.3353
-36.1099
-38.0056
-15.351
-33.1307
-17.7439
-40.3193
-44.396
-42.6427
-32.5204
-48.1255
-41.6346
-43.0363
-45.281
-54.322
-50.209
-50.893
-58.0512
-56.127
-45.2192
-46.2251
-48.7052
-53.2357
-38.8047
60.0196
-42.8516
56.0983
-112.338
-122.399
116.069
128.955
-132.707
27.4038
-132.579
28.0236
-109.971
-109.884
121.433
121.633
-85.7284
-75.9464
-60.9841
-58.235
-77.6444
-65.4955
-69.9484
-61.744
-35.9249
-30.2197
-33.5129
-29.8831
-39.9298
-38.1413
-29.5018
-29.4204
-35.328
-30.5012
-35.2262
-30.138
-35.5408
-35.5801
-28.105
-27.9003
-39.0201
-36.7898
-37.5554
-37.9146
-38.207
-39.9191
-36.6508
-36.9161
-28.4738
-74.2778
-28.8016
-73.7777
-18.5287
-18.5828
76.0749
75.2483
-84.584
-68.8018
-57.9257
-48.6957
-65.3746
-76.6891
-54.9066
-46.9245
-31.3931
-28.5989
-31.3453
-28.4582
-32.1638
-32.1411
-26.5019
-26.6485
-42.2049
-38.9237
-49.0847
-46.8562
-47.7769
-50.019
-43.6462
-39.9042
-37.2095
60.5094
-42.7446
56.6304
-113.731
-124.063
128.799
115.525
-89.0275
-77.532
-60.9883
-58.316
-79.894
-65.4816
-70.5244
-61.8394
-35.4959
-29.9207
-33.0563
-29.6241
-37.4746
-39.495
-29.1952
-29.1133
-38.6195
-36.2949
-37.9173
-37.5262
-38.2348
-39.6669
-36.4817
-36.5837
-85.01
-69.2809
-58.3175
-49.1296
-76.8321
-65.8563
-47.145
-55.5505
-42.1247
-38.8587
-49.3646
-46.9033
-50.1895
-47.816
-39.8656
-43.6405
-31.5498
-34.8035
-32.7886
-32.0364
-31.7523
-31.4389
-34.3418
-33.6434
-41.757
-36.6256
-39.9205
-37.229
-45.0699
-43.5802
-35.2631
-36.0603
-44.1433
-41.8895
-44.5914
-41.7777
-46.1046
-46.3702
-40.7259
-40.6723
-36.002
-33.9694
-35.8838
-34.8087
-32.7882
-34.6566
-30.4434
-31.2191
-37.028
-37.504
-37.0984
-37.5902
-36.8659
-36.8384
-37.7461
-37.7871
-46.836
-56.1595
-47.3361
-55.126
-44.592
-44.5743
-66.2739
-63.9818
-2.63812
-17.7657
-2.63951
-18.1774
-0.675753
-0.692343
-31.997
-31.8675
-68.6407
-60.3369
-68.5799
-60.2993
-72.6192
-72.5813
-56.6005
-56.5931
-31.5501
-33.6698
-28.1899
-30.0942
-31.8812
-29.8159
-34.0283
-33.4102
-41.7104
-36.5292
-40.0916
-37.1323
-43.5999
-45.0324
-35.0804
-35.8789
-35.6173
-33.3731
-35.1382
-34.5795
-33.8155
-32.3325
-30.4008
-30.9974
-46.3076
-55.7173
-46.7253
-54.4817
-44.1254
-44.0112
-63.5576
-65.1587
-86.0374
-85.2653
-78.1169
-67.9025
-67.1189
-77.3844
-63.5521
-62.896
-86.7446
-86.1727
-78.3364
-67.8503
-77.4112
-67.2282
-63.0316
-63.4616
-75.9348
-75.9589
-70.6019
-62.3783
-70.6732
-62.4205
-58.9787
-58.9663
-61.8415
-62.2049
-39.1725
-29.1666
-29.247
-38.6791
-21.7345