# vtk DataFile Version 2.0
tet_velo
ASCII
DATASET UNSTRUCTURED_GRID
POINTS 29498 float
-0.785 0.375 -2.26739
-0.789602 0.385 2.285
-0.745 0.825 -2.21046
-0.82596 1.015 2.235
0.785 0.375 -2.26739
0.789602 0.385 2.285
0.745 0.825 -2.21046
0.825955 1.015 2.235
-0.830227 0.334641 -0.749927
-0.874377 0.295358 0.767537
-0.842671 0.959017 -0.72864
-0.843386 0.99608 0.75318
0.830227 0.334641 -0.749927
0.874376 0.295359 0.767537
0.84268 0.959028 -0.72864
0.843382 0.996079 0.75318
-1.62058 0.0415208 -3.4753
-1.61799 0.070242 -2.27561
-1.65953 0.0305916 -0.757223
-1.69994 -0.0143098 0.768336
-1.66941 0.0332352 2.28732
-1.65151 0.0769437 3.48998
-1.6485 0.110231 4.68716
-1.61247 0.317354 -3.45965
-1.60878 0.365252 -2.26385
-1.66339 0.347898 -0.7524
-1.70388 0.310493 0.762257
-1.65265 0.362585 2.27439
-1.63817 0.405326 3.47654
-1.64025 0.437041 4.67488
-1.59589 0.832774 -3.41835
-1.58574 0.878081 -2.22107
-1.66405 0.965657 -0.733919
-1.68758 0.987934 0.750706
-1.6652 1.01187 2.23854
-1.64364 1.0514 3.44217
-1.63857 1.08479 4.64625
-1.60459 1.70826 -3.38319
-1.607 1.76751 -2.19125
-1.64014 1.86935 -0.715654
-1.66658 1.94762 0.752258
-1.66755 1.99273 2.22822
-1.65815 2.02185 3.42094
-1.64838 2.05023 4.62113
-0.811547 0.0471461 -3.4776
-0.794458 0.0791347 -2.27896
-0.82202 0.0252524 -0.756772
-0.862456 -0.0254182 0.772842
-0.836307 0.0427257 2.2952
-0.819195 0.0846209 3.49532
-0.816397 0.114475 4.69025
-0.810396 0.316443 -3.46036
-0.801636 0.414703 3.48095
-0.807229 0.441931 4.67721
-0.795878 0.810837 -3.41394
-0.80714 1.05602 3.44146
-0.804366 1.08852 4.6461
-0.789308 1.69308 -3.37883
-0.783611 1.75307 -2.18645
-0.808431 1.86559 -0.71276
-0.831798 1.95109 0.751911
-0.832905 1.9965 2.22574
-0.823779 2.02478 3.41846
-0.81414 2.05264 4.61933
0.786652 0.0471475 -3.4776
0.808914 0.0791354 -2.27896
0.84112 0.0252531 -0.756773
0.850808 -0.0254175 0.772842
0.798491 0.042726 2.2952
0.820773 0.0846212 3.49532
0.837468 0.114476 4.69025
0.769235 0.316444 -3.46036
0.829015 0.414703 3.48095
0.844461 0.441932 4.67721
0.761062 0.810839 -3.41394
0.84273 1.05602 3.44146
0.852769 1.08852 4.6461
0.823067 1.69309 -3.37883
0.839904 1.75308 -2.18645
0.847891 1.86559 -0.71276
0.841468 1.95109 0.75191
0.839416 1.9965 2.22574
0.845231 2.02478 3.41846
0.853182 2.05264 4.61933
1.5957 0.0415242 -3.4753
1.619 0.0702452 -2.27561
1.66651 0.0305944 -0.757222
1.69189 -0.0143084 0.768336
1.65035 0.033236 2.28732
1.65339 0.0769447 3.48998
1.66742 0.110232 4.68716
1.57777 0.317357 -3.45965
1.59998 0.365256 -2.26385
1.66027 0.347902 -0.752401
1.70229 0.310494 0.762257
1.65399 0.362585 2.27439
1.65811 0.405327 3.47654
1.67284 0.437042 4.67488
1.56827 0.832778 -3.41835
1.58085 0.878087 -2.22107
1.66226 0.965668 -0.733919
1.68782 0.987936 0.750706
1.67164 1.01187 2.23854
1.67272 1.0514 3.44217
1.68226 1.08479 4.64625
1.63195 1.70826 -3.38319
1.65124 1.76752 -2.19125
1.67286 1.86936 -0.715655
1.67784 1.94762 0.752258
1.67746 1.99273 2.22822
1.68106 2.02185 3.42094
1.68725 2.05023 4.62113
-0.79532 0.6 -2.26924
0 0.310981 -2.33141
-0.830425 0.332008 -1.50866
-0.831154 0.7 2.28337
0 0.330721 2.33928
-0.862149 0.31002 1.52627
0 0.875408 -2.26087
-0.833194 0.931367 -1.46955
-2.5034e-06 1.10452 2.32452
-0.843708 1.01457 1.49409
0.795319 0.6 -2.26924
0.830425 0.332008 -1.50866
0.83109 0.7 2.28331
0.862152 0.310016 1.52627
0.833194 0.931368 -1.46955
0.843709 1.01458 1.49409
-0.830924 0.336377 0.00880504
-0.889063 0.646829 -0.739283
-7.11228e-08 0.2507 -0.749927
-0.889073 0.645719 0.760358
-3.55614e-07 0.250573 0.767537
-0.843025 0.977545 0.01227
4.61038e-06 1.2243 -0.72864
-2.02454e-06 1.54087 0.75318
0.830924 0.336377 0.00880504
0.889053 0.646835 -0.739283
0.889062 0.645719 0.760358
0.843018 0.977541 0.01227
-0.884009 0.623415 -1.4891
-0.889067 0.646274 0.0105375
-0.88759 0.672859 1.51018
-3.55614e-08 0.250957 -1.50866
-2.13368e-07 0.250715 0.00880504
-1.77807e-07 0.25091 1.52627
0 0.6 -2.42256
-1.2517e-06 0.7 2.44828
2.30519e-06 1.00201 -1.46955
1.29292e-06 1.50797 0.01227
-2.26397e-06 1.3493 1.49409
0.884007 0.623417 -1.4891
0.889057 0.646277 0.0105375
0.88759 0.672859 1.51018
-1.19689 0.370126 -2.26562
-0.789729 0.227067 -2.27318
-0.797698 0.345721 -2.86387
-1.22112 0.373792 2.27969
-0.812955 0.213863 2.2901
-0.795619 0.399851 2.88297
-1.16537 0.851541 -2.21577
-0.770439 0.817919 -2.8122
-0.764305 1.28904 -2.19845
-1.24558 1.01344 2.23677
-0.81655 1.03551 2.83823
-0.829432 1.50575 2.23037
0.796957 0.227068 -2.27318
0.777117 0.345722 -2.86387
1.19249 0.370128 -2.26562
0.794046 0.213863 2.2901
0.809309 0.399852 2.88297
1.22179 0.373793 2.2797
0.753031 0.817919 -2.8122
0.792452 1.28904 -2.19845
1.16293 0.851544 -2.21577
0.834343 1.03551 2.83823
0.832686 1.50575 2.23037
1.2488 1.01344 2.23677
-1.24681 0.341269 -0.751164
-0.826124 0.179947 -0.75335
-1.28913 0.302926 0.764897
-0.868416 0.13497 0.770189
-1.25336 0.962337 -0.73128
-0.825551 1.4123 -0.7207
-1.26548 0.992007 0.751943
-0.837592 1.47359 0.752545
0.835673 0.179947 -0.75335
1.24525 0.341271 -0.751164
0.862592 0.134971 0.770189
1.28834 0.302927 0.764897
0.845285 1.41231 -0.7207
1.25247 0.962348 -0.73128
0.842425 1.47359 0.752545
1.2656 0.992007 0.751943
-1.61929 0.0558814 -2.87546
-1.61652 0.179437 -3.46748
-1.21606 0.0443335 -3.47645
-1.63876 0.0504168 -1.51642
-1.61339 0.217747 -2.26973
-1.20623 0.0746883 -2.27728
-1.67973 0.0081409 0.0055567
-1.66146 0.189245 -0.754811
-1.24078 0.027922 -0.756998
-1.68467 0.00946269 1.52783
-1.70191 0.148092 0.765297
-1.2812 -0.019864 0.770589
-1.66046 0.0550894 2.88865
-1.66103 0.19791 2.28086
-1.25286 0.0379805 2.29126
-1.65 0.0935871 4.08857
-1.64484 0.241135 3.48326
-1.23535 0.0807823 3.49265
-1.64437 0.273636 4.68102
-1.23245 0.112353 4.6887
-1.61063 0.341303 -2.86175
-1.60418 0.575064 -3.439
-1.21143 0.316898 -3.46001
-1.63608 0.356575 -1.50813
-1.59726 0.621667 -2.24246
-1.68363 0.329195 0.00492849
-1.66372 0.656778 -0.74316
-1.67826 0.336539 1.51832
-1.69573 0.649214 0.756482
-1.64541 0.383955 2.87547
-1.65892 0.687229 2.25646
-1.63921 0.421184 4.07571
-1.6409 0.728362 3.45935
-1.2199 0.410014 3.47875
-1.63941 0.760915 4.66057
-1.22374 0.439486 4.67605
-1.59082 0.855427 -2.81971
-1.60024 1.27052 -3.40077
-1.19588 0.821806 -3.41614
-1.6249 0.921869 -1.47749
-1.59637 1.3228 -2.20616
-1.67581 0.976796 0.00839342
-1.6521 1.4175 -0.724787
-1.67639 0.999904 1.49462
-1.67708 1.46778 0.751482
-1.65442 1.03164 2.84035
-1.66637 1.5023 2.23338
-1.6411 1.06809 4.04421
-1.65089 1.53662 3.43155
-1.22539 1.05371 3.44181
-1.64347 1.56751 4.63369
-1.22147 1.08665 4.64618
-1.60579 1.73788 -2.78722
-1.19695 1.70067 -3.38101
-1.62357 1.81843 -1.45345
-1.1953 1.76029 -2.18885
-1.65336 1.90848 0.0183018
-1.22429 1.86747 -0.714207
-1.66706 1.97017 1.49024
-1.24919 1.94935 0.752084
-1.66285 2.00729 2.82458
-1.25023 1.99461 2.22698
-1.65326 2.03604 4.02104
-1.24096 2.02331 3.4197
-1.23126 2.05143 4.62023
-0.803002 0.0631404 -2.87828
-0.810971 0.181795 -3.46898
-0.0124473 0.0471468 -3.4776
-0.808239 0.0521936 -1.51787
0.00722819 0.079135 -2.27896
-0.842238 -8.28822e-05 0.0080347
0.0095497 0.0252528 -0.756773
-0.849382 0.00865376 1.53402
-0.0058238 -0.0254179 0.772842
-0.827751 0.0636733 2.89526
-0.0189081 0.0427258 2.2952
-0.817796 0.0995479 4.09279
-0.810416 0.249662 3.48814
0.000788875 0.0846211 3.49532
-0.811813 0.278203 4.68373
0.0105356 0.114475 4.69025
-0.803137 0.56364 -3.43715
-0.0205804 0.316443 -3.46036
-0.804433 0.428317 4.07908
-0.804388 0.735359 3.4612
0.0136896 0.414703 3.48095
-0.805797 0.765223 4.66166
0.018616 0.441931 4.67721
-0.792593 1.25196 -3.39638
-0.017408 0.810838 -3.41394
-0.805753 1.07227 4.04378
-0.81546 1.5404 3.42996
0.0177951 1.05602 3.44146
-0.809253 1.57058 4.63272
0.0242016 1.08852 4.6461
-0.78646 1.72308 -2.78264
0.0168791 1.69309 -3.37883
-0.796021 1.80933 -1.4496
0.0281468 1.75307 -2.18645
-0.820114 1.90834 0.0195753
0.0197298 1.86559 -0.71276
-0.832351 1.97379 1.48883
0.00483512 1.95109 0.751911
-0.828342 2.01064 2.8221
0.00325591 1.9965 2.22574
-0.818959 2.03871 4.0189
0.0107261 2.02478 3.41846
0.0195211 2.05264 4.61933
0.797783 0.0631415 -2.87828
0.777944 0.181796 -3.46898
1.19118 0.0443358 -3.47645
0.825017 0.0521942 -1.51787
1.21396 0.0746903 -2.27728
0.845964 -8.22348e-05 0.00803469
1.25381 0.0279237 -0.756998
0.82465 0.00865422 1.53402
1.27135 -0.019863 0.770589
0.809632 0.0636736 2.89526
1.22442 0.037981 2.29126
0.82912 0.0995484 4.09279
0.824894 0.249662 3.48814
1.23708 0.080783 3.49265
0.840965 0.278204 4.68373
1.25244 0.112354 4.6887
0.765148 0.563641 -3.43715
1.1735 0.316901 -3.46001
0.836738 0.428317 4.07908
0.835873 0.73536 3.4612
1.24356 0.410015 3.47874
0.848615 0.765224 4.66166
1.25865 0.439487 4.67605
0.792064 1.25196 -3.39638
1.16467 0.821809 -3.41614
0.84775 1.07227 4.04378
0.843981 1.5404 3.42996
1.25773 1.05371 3.44181
0.852976 1.57058 4.63272
1.26751 1.08665 4.64618
0.831485 1.72308 -2.78264
1.22751 1.70068 -3.38101
0.843897 1.80933 -1.4496
1.24557 1.7603 -2.18885
0.844679 1.90834 0.0195752
1.26037 1.86747 -0.714207
0.840442 1.9738 1.48883
1.25965 1.94936 0.752084
0.842324 2.01064 2.8221
1.25844 1.99462 2.22698
0.849207 2.03871 4.0189
1.26315 2.02331 3.4197
1.27022 2.05144 4.62023
1.60735 0.0558847 -2.87546
1.58674 0.179441 -3.46748
1.64276 0.0504198 -1.51641
1.60949 0.217751 -2.26973
1.6792 0.00814297 0.00555665
1.66339 0.189248 -0.754812
1.67112 0.00946379 1.52783
1.69709 0.148093 0.765297
1.65187 0.0550904 2.88865
1.65217 0.197911 2.28086
1.6604 0.0935882 4.08857
1.65575 0.241136 3.48326
1.67013 0.273637 4.68102
1.58888 0.341307 -2.86175
1.57302 0.575068 -3.439
1.63012 0.356579 -1.50813
1.59042 0.621672 -2.24246
1.68128 0.329198 0.0049284
1.66127 0.656785 -0.74316
1.67814 0.33654 1.51832
1.69506 0.649215 0.756482
1.65605 0.383956 2.87547
1.66281 0.68723 2.25646
1.66547 0.421185 4.07571
1.66542 0.728363 3.45935
1.67755 0.760916 4.66057
1.57456 0.855433 -2.81971
1.60011 1.27052 -3.40077
1.62156 0.921878 -1.47749
1.61605 1.3228 -2.20616
1.67504 0.976802 0.00839332
1.66756 1.41751 -0.724787
1.67973 0.999905 1.49462
1.68283 1.46778 0.751482
[...]
POINT_DATA 29498
VECTORS point_vectors float
-1.2716 -1.23465 4.13738
0.129773 0.293243 1.21152
-1.5976 1.25365 2.5565
0.0691342 0.00332992 0.257837
1.2683 -1.22994 4.12542
-0.130286 0.293677 1.21195
1.59677 1.25457 2.55612
-0.0691802 0.00347667 0.257942
0.0040937 -0.0045232 0.127173
-0.302273 -0.0683859 2.86617
0 0 0
0 0 0
-0.00409704 -0.00450521 0.127613
0.299541 -0.0707653 2.86838
0 0 0
-1.52592e-17 3.21276e-17 1.31593e-16
-0.548257 -0.210545 19.8828
-1.20548 -0.597695 20.5016
-0.496669 -0.392325 21.3226
-0.0369442 -0.108279 21.5445
0.477269 0.218395 21.4914
0.672773 0.314017 21.3328
0.924059 0.0376447 20.9212
-0.607551 -0.136088 19.8097
-1.54056 -0.431915 20.4641
-0.644908 -0.440611 21.3582
-0.0475987 -0.156937 21.607
0.641432 0.101646 21.6006
1.01556 0.244561 21.4921
1.17304 -0.0234854 21.377
-0.693359 0.0515266 19.7406
-1.73628 0.126424 20.3851
-1.0896 -0.269064 21.323
-0.240609 -0.244445 21.7219
0.601895 -0.20902 21.6254
1.02702 -0.24821 21.0041
0.836841 -0.195138 21.2439
-0.471666 0.284077 19.9293
-0.938643 0.549051 20.3663
-0.946136 0.366949 21.1293
-0.339127 0.0164189 21.6302
0.251835 -0.302155 21.5273
0.437941 -0.411854 21.2993
0.410322 -0.328351 20.9034
-0.595321 -0.496223 19.2583
-2.58448 -3.56914 20.8162
-0.227636 -0.373471 20.5707
-0.0150615 -0.00840777 20.451
0.323818 1.149 18.7704
0.538508 1.60285 18.2744
1.04899 1.08894 16.8149
-0.724287 -0.398864 19.0324
0.890708 1.69881 12.2953
1.66256 0.876686 11.2481
-0.828219 0.170256 18.8266
2.05985 0.030367 11.3964
1.49541 -0.400706 16.1855
-0.448252 0.590024 19.5251
-1.08518 1.59876 20.0747
-1.57933 1.69193 21.0326
-0.551028 0.333174 22.2555
0.238371 -0.62671 21.6963
0.403168 -0.877901 21.4871
0.412283 -0.74789 20.5252
0.597023 -0.499385 19.2416
2.57969 -3.44285 20.7944
0.238255 -0.377022 20.6688
0.0129261 -0.00771191 20.3245
-0.243251 1.1565 18.3165
-0.546923 1.59197 18.2633
-1.02796 1.09658 17.1431
0.709556 -0.398384 18.9893
-1.02148 1.64692 13.0895
-1.61075 0.828587 11.8056
0.813378 0.17927 18.7983
-2.08845 0.0297818 12.461
-1.51144 -0.407925 16.8828
0.460159 0.582414 19.5432
1.11236 1.50773 20.0963
1.58227 1.60909 21.0485
0.551346 0.327704 22.2425
-0.240056 -0.624848 21.6944
-0.404336 -0.865822 21.4802
-0.411291 -0.729219 20.7272
0.563938 -0.21849 19.865
1.20295 -0.591661 20.5077
0.497979 -0.388428 21.3161
0.0377957 -0.107396 21.5448
-0.479257 0.231081 21.4864
-0.665416 0.321846 21.3257
-0.919365 0.0473863 20.9036
0.629951 -0.150066 19.7844
1.55883 -0.44501 20.4716
0.649216 -0.4405 21.3586
0.0502388 -0.155982 21.6167
-0.638013 0.0964535 21.6011
-0.989555 0.230048 21.4727
-1.14712 -0.0181495 21.366
0.707582 0.0561829 19.7203
1.74736 0.123492 20.3881
1.08895 -0.267285 21.3315
0.238207 -0.242859 21.7254
-0.591611 -0.204738 21.6239
-1.00274 -0.265067 20.9466
-0.815407 -0.194628 21.151
0.469421 0.27431 19.9423
0.912452 0.516076 20.3774
0.909069 0.345277 21.1249
0.337793 0.0126118 21.6232
-0.239902 -0.290336 21.4954
-0.434532 -0.40043 21.278
-0.400728 -0.314089 20.876
-0.417367 -0.0266157 0.532687
0.00024171 -0.252637 0.846001
-0.00174272 -0.0152926 0.518938
0.087047 0.0443805 0.388271
-0.000654174 -0.0155725 -0.0206439
-0.019864 0.0738431 1.19288
-0.000375157 0.506917 0.653545
-0.419364 -0.172532 1.26356
-0.00129604 0.0420226 -0.0522954
0 0 0
0.415774 -0.0268189 0.530588
0.00174022 -0.0152501 0.519048
-0.0866827 0.0446677 0.38643
0.0200801 0.0737415 1.19008
0.419391 -0.17235 1.26341
0 0 0
-0.00697328 0.0158655 0.295625
2.9886e-08 2.67801e-06 -6.59833e-05
2.16159e-08 -1.6478e-09 3.52029e-06
1.39008e-05 0.000672133 0.00354501
2.5558e-08 3.24576e-07 0.000268055
0 0 0
0.000143581 0.00293722 0.00594675
0 0 0
0.00697453 0.0158734 0.295422
-6.79358e-08 6.08244e-06 -0.000149006
-1.36322e-05 0.000658282 0.00347355
0 0 0
-0.000908211 -0.00260745 0.0361396
0 0 0
-8.52694e-08 -1.30776e-06 -9.99949e-06
-1.20573e-07 9.39024e-08 -1.41365e-05
1.29501e-07 -2.36274e-08 3.64659e-05
3.78784e-08 -3.9807e-08 -3.16076e-05
-7.10508e-07 0.00737898 0.00376582
-0.000688784 0.0628465 -0.0157668
-3.503e-08 8.45457e-05 0.00113907
-1.00355e-05 0.0342018 0.176748
2.97952e-06 0.00713567 -0.0119666
0.000897194 -0.00256889 0.0355877
0 0 0
1.17633e-07 -1.80409e-06 -1.37933e-05
-3.01839 -1.18434 20.4663
-4.25877 -5.23108 21.4231
-2.08331 -1.26769 17.8324
1.10037 0.502361 20.5912
0.253159 1.35466 11.5825
0.247671 1.47376 8.25634
-3.62588 0.664187 20.3113
-2.46639 0.912316 17.2878
-2.37036 2.83601 19.9614
1.03789 -0.309602 20.8776
0.955284 0.427609 7.10378
1.01909 -0.562471 18.0475
4.25961 -5.09136 21.3642
2.07975 -1.28764 17.7415
3.04205 -1.20496 20.4596
-0.16243 1.33826 10.9483
-0.341273 1.49835 8.65863
-1.09789 0.498842 20.5959
2.45617 0.957471 17.2054
2.38496 2.72011 19.9702
3.64595 0.67389 20.31
-1.0285 0.421444 7.88974
-1.01289 -0.561372 18.109
-1.03284 -0.3126 20.9144
-0.540688 -0.78404 21.6552
0.151411 -0.0966029 12.5211
0.0154149 -0.187511 21.6065
0.0846324 -0.103446 15.6261
-1.77871 -0.778679 21.5632
-3.69711 1.83055 20.8758
-0.280662 -0.508112 21.3819
-0.287148 0.473584 17.295
-0.14251 -0.106282 12.9202
0.538306 -0.783347 21.6504
-0.0950783 -0.102157 15.424
-0.0154515 -0.18689 21.6029
3.63673 1.70306 20.9475
1.77952 -0.781122 21.5583
0.322338 0.449459 17.5016
0.280122 -0.507445 21.3786
-0.934536 -0.414201 20.008
-0.582757 -0.174655 19.8443
-0.628647 -0.339839 19.6095
-0.875802 -0.534608 21.0876
-1.40696 -0.553738 20.4782
-1.94808 -1.37639 20.5384
-0.225352 -0.248154 21.452
-0.5494 -0.410495 21.3478
-0.413756 -0.529999 21.5166
0.189708 0.067616 21.6048
-0.0431173 -0.122073 21.5451
-0.002427 -0.0749488 21.6618
0.603465 0.326605 21.3143
0.567951 0.189727 21.5459
0.66636 0.565319 21.529
0.706332 0.460943 20.3624
0.839682 0.277871 21.4034
0.867333 0.861219 21.4273
1.0597 0.0126238 21.1436
0.875053 0.674457 21.7279
-1.12738 -0.288587 19.8904
-0.654894 -0.0588558 19.7622
-0.725135 -0.210732 19.4739
-1.10017 -0.464687 21.1244
-1.68954 -0.204766 20.4421
-0.315161 -0.319874 21.5134
-0.842205 -0.439387 21.3535
0.268184 -0.0146493 21.6865
-0.117383 -0.243492 21.6746
0.769713 0.160267 21.2969
0.68531 -0.0550557 21.645
0.916241 0.201021 20.5427
1.05048 0.0084101 21.2994
1.43739 0.730576 20.4079
1.04599 -0.0849887 21.3317
1.36827 0.414635 17.8942
-1.27887 0.127589 19.8175
-0.608 0.22674 19.7966
-0.798409 0.114617 19.3861
-1.42119 -0.0846869 21.0014
-1.35039 0.484679 20.3399
-0.688889 -0.323554 21.606
-1.16073 0.147718 21.225
0.204197 -0.195298 21.772
-0.356559 -0.103814 21.7198
0.820253 -0.255847 21.4512
0.424676 -0.309103 21.5597
0.783787 -0.370381 21.0906
0.660912 -0.423342 21.1456
1.57456 -0.406007 20.485
0.564569 -0.321887 21.2536
1.31484 -0.289592 19.6878
-0.739353 0.463773 20.0581
-0.520459 0.430849 19.7275
-0.992689 0.482792 20.7558
-1.13509 0.990945 20.2325
-0.700435 0.204696 21.4746
-1.3285 0.794925 21.1512
0.00363821 -0.163835 21.6201
-0.464291 0.106681 21.9049
0.378149 -0.367168 21.3631
0.270362 -0.443896 21.6123
0.566415 -0.527144 20.6161
0.46868 -0.635035 21.337
0.421634 -0.542239 21.3581
-1.43854 -1.50878 18.8299
-0.686538 -0.462967 19.1083
-0.0191563 -0.670653 18.8397
-0.877826 -1.02297 21.6835
0.0231589 -5.84523 21.5694
-0.0689434 -0.132142 20.2394
-0.00310224 -0.441565 16.3236
0.112498 0.369844 19.5473
-0.000587254 -0.152858 16.0455
0.409097 1.32646 19.166
-0.0327066 0.339688 12.5278
0.659701 1.35847 18.254
0.902967 1.88043 15.2679
-0.0111308 0.822823 10.1894
1.37693 1.05468 13.9855
-0.0400227 1.0089 12.492
-0.754407 -0.0901836 18.9195
-0.0286731 -0.520816 18.5376
1.83185 1.74758 13.7413
1.98226 1.34474 7.60706
0.0778602 -2.90499 -5.06466
1.75382 0.35462 12.541
-0.0528065 1.01338 6.47919
-0.627728 0.552763 19.1632
-0.0277757 0.276614 18.2599
2.38146 -0.468883 13.086
1.12799 -0.975367 18.8002
-0.0672527 -1.4279 -1.26642
0.847542 -1.07911 18.4943
-0.0472711 -1.92941 2.84209
-0.803568 1.16858 19.5554
0.0130394 0.776606 19.3033
-1.26839 1.55307 20.5471
0.0597829 2.39619 19.8842
-1.36091 1.23808 22.0041
0.057384 3.19389 20.674
-0.0034359 -0.313133 22.0184
0.00614547 0.82671 22.869
0.320842 -0.767155 21.498
-0.000639299 -0.657225 21.9917
0.17789 -0.674884 21.79
-0.00251581 -0.972937 21.6855
-0.00136572 -0.927856 21.4821
1.4399 -1.51732 18.8148
0.684905 -0.46774 19.0825
0.633646 -0.35344 19.5927
0.881766 -1.0166 21.7277
1.93828 -1.3529 20.536
0.0727105 -0.132065 20.268
0.421889 -0.531968 21.5051
-0.0992587 0.361069 19.2613
0.00519662 -0.0726486 21.6625
-0.363444 1.30633 18.8225
-0.6672 0.605945 21.4645
-0.682155 1.35095 18.3298
-0.921599 1.83259 15.5033
-0.868579 0.857986 21.4181
-1.33445 1.01936 14.428
-0.881228 0.639618 21.6897
0.736414 -0.0906817 18.8834
0.716715 -0.213534 19.4406
-1.84668 1.70783 14.7445
-2.00759 1.25707 8.98327
-1.37017 0.682603 20.7966
-1.70144 0.30867 13.2027
-1.34296 0.378079 18.4458
0.626459 0.552589 19.158
0.800432 0.116755 19.3535
-2.34444 -0.449533 14.2881
-1.12999 -0.936249 19.0568
-1.49105 -0.420856 20.8854
-0.837701 -1.03854 18.6672
-1.24259 -0.275424 19.956
0.826095 1.11121 19.6034
0.520968 0.411605 19.7404
1.28686 1.45913 20.5734
1.11316 0.922115 20.2614
1.35041 1.18036 21.9829
1.29852 0.746835 21.1563
0.00227852 -0.309021 22.0137
0.4612 0.101884 21.8897
-0.321295 -0.763171 21.5023
-0.279767 -0.445351 21.618
-0.181714 -0.655418 21.7434
-0.470591 -0.607949 21.32
-0.417107 -0.524636 21.3146
0.950084 -0.429048 20.0083
0.603406 -0.185252 19.8184
0.872168 -0.518798 21.0899
1.41684 -0.55743 20.4782
0.226575 -0.246028 21.4506
0.5524 -0.40721 21.3431
-0.194277 0.0779263 21.6141
0.0436905 -0.120886 21.5538
-0.604258 0.333695 21.3237
-0.566942 0.190511 21.5411
-0.700045 0.461288 20.3658
-0.831371 0.27333 21.3903
-1.05603 0.0265565 21.1255
1.16628 -0.304207 19.881
0.670966 -0.0552109 19.7429
1.10728 -0.475299 21.1231
1.70736 -0.2085 20.4501
0.318571 -0.322085 21.5147
0.844995 -0.438428 21.3559
-0.272059 -0.0158085 21.6843
0.114069 -0.243529 21.6758
-0.742111 0.156027 21.277
-0.678484 -0.0517088 21.6376
-0.877369 0.200696 20.5445
-1.03533 -0.00106305 21.2677
-1.03262 -0.0783114 21.2564
1.29981 0.131027 19.8068
0.611469 0.225958 19.8012
1.41906 -0.0830259 21.0148
1.32702 0.467242 20.3524
0.685662 -0.32353 21.609
1.14046 0.13379 21.2228
-0.211861 -0.196167 21.775
0.356175 -0.104462 21.716
-0.798055 -0.238419 21.4559
-0.416933 -0.302377 21.5507
-0.80747 -0.355796 20.9917
-0.640858 -0.429245 21.0877
-0.553085 -0.322527 21.2303
0.73263 0.439894 20.0629
0.964424 0.459489 20.753
0.679686 0.193834 21.4706
-0.00349035 -0.168376 21.6213
-0.369208 -0.35623 21.3679
-0.560702 -0.518488 20.6296
-1.0601 -0.361 19.9357
-1.86118 -1.53374 18.2538
-1.2923 -0.785715 19.5803
-1.67279 -0.574985 19.3021
-0.697041 -0.308252 19.5402
-2.43931 -1.38159 20.5077
-0.978078 -0.512168 21.1095
-0.17584 -0.478908 14.0729
-0.980343 -0.867918 21.4347
-1.2888 -0.947988 21.611
-0.448629 -0.638583 21.5859
-0.262798 -0.271322 21.4746
0.0900064 0.000468784 13.4945
-0.151344 -0.275482 21.5904
-0.16265 -0.49007 21.5402
0.0133272 -0.138657 21.6577
0.233894 0.0393346 21.6244
-0.0202018 0.346647 13.0511
0.265995 0.208612 21.7314
0.4209 0.127464 21.3596
0.893455 0.56045 21.3602
0.729589 0.277991 21.3507
0.349083 1.50619 13.3233
0.830993 0.711978 21.2761
1.27608 0.586015 20.6263
1.27042 0.655768 20.7939
0.813378 0.328344 20.4614
1.37973 1.52458 14.6271
0.718554 0.722137 21.582
1.44036 0.921361 20.6454
1.07756 0.590808 20.6755
-1.23066 -0.124811 19.8458
-2.51414 -0.299309 17.2161
-1.934 0.366432 19.0904
-0.781844 -0.0882203 19.3992
-3.66695 -0.40469 20.3703
-1.281 -0.354447 21.1126
-2.18534 -0.264052 21.3515
-1.03965 -0.946142 21.5965
-0.456394 -0.375439 21.5646
-0.974771 -0.801412 21.5322
0.00585895 -0.33666 21.1329
0.262176 -0.114109 21.7463
0.370074 -0.257607 21.1224
1.21039 0.126134 20.2805
0.9052 -0.0390092 21.5005
0.384644 1.18136 4.62107
1.31214 -0.398909 20.5648
1.67398 0.0768097 19.8682
0.938101 -0.086814 20.6666
2.18051 1.02243 12.1557
1.6045 -0.361359 19.9242
1.45878 -0.10829 19.178
-1.01936 0.394599 19.9079
-1.44281 1.49251 18.8023
-0.864713 0.78261 19.8246
-0.683756 0.34014 19.5294
-2.00768 1.15951 20.1963
-1.29379 0.306437 20.8531
-2.36797 1.72445 20.6155
-1.24691 0.900129 20.7014
-2.02636 0.344861 21.325
-0.830791 -0.00614502 21.577
-2.88106 0.203799 20.5374
-1.05061 0.492197 21.7023
-0.61052 -0.138436 22.0921
0.0928039 -0.209067 21.7255
0.979299 0.0605637 17.0166
0.00268828 -0.223886 21.8077
0.57704 -0.551651 21.6951
0.599175 -0.395174 21.3646
1.03629 -0.856397 18.8522
0.396618 -0.532703 21.4572
0.862615 -0.789891 21.3364
0.67041 -0.601497 21.0646
0.989109 -1.26909 19.353
0.380981 -0.522641 21.2375
0.697919 -0.662896 20.2293
1.8582 -1.55489 18.2198
-0.00970076 -2.51129 17.8319
-0.0315123 -2.29082 15.8589
-0.0238523 -0.60303 18.666
0.00813721 -6.27973 19.3716
0.207319 -0.493644 14.6011
0.00739606 -1.22405 18.8745
-0.00291119 -0.0562775 6.45869
-0.0897475 8.77945e-05 13.5633
-0.000616464 -0.272585 15.9122
0.00108559 -0.0285191 8.22638
0.0296974 0.322413 12.5262
-0.00013114 0.0636792 14.4048
-0.0450619 0.175859 3.71126
-0.330453 1.50641 13.2373
-0.0493472 0.0539735 11.6723
0.0405815 -1.26739 -4.82346
0.0333624 -1.03995 2.55962
-1.38445 1.51085 15.3112
-0.016748 0.697688 11.1909
0.0254751 -2.63555 -3.87868
-0.0462387 1.01696 9.4536
2.50356 -0.299997 17.1253
-0.0286873 1.86822 14.9404
-0.0289979 -0.143388 18.1466
-0.492909 1.15108 5.25697
-0.0100464 -0.0373448 -0.611063
-0.0562709 -2.37412 -4.42442
-2.1805 0.987016 13.326
-0.0895017 -2.88691 -0.378964
-0.0703834 -0.358317 3.17812
1.44533 1.46573 18.8205
0.0348377 1.70063 19.2443
-3.57811e-05 0.766064 18.7461
0.0477232 4.66273 19.7069
2.37423 1.64377 20.6368
0.0495514 2.42093 20.3033
0.0577531 5.17013 18.4698
2.87213 0.221022 20.9232
0.0342214 2.83592 22.4687
-0.00268486 -0.0164021 7.00721
-0.968264 0.0613438 17.0694
0.00135767 -0.267047 22.2158
-0.00208577 -0.394298 5.78867
-1.02146 -0.852477 19.035
-0.00221835 -0.843245 21.6336
-0.0313319 -1.49205 10.8237
-0.942056 -1.22338 19.6073
-0.00504444 -1.53357 21.4642
-0.0464102 -1.3085 17.3997
1.08986 -0.381136 19.9206
1.30403 -0.802696 19.5664
1.72033 -0.608666 19.242
0.691579 -0.320238 19.5092
2.43507 -1.37942 20.5034
0.980595 -0.512066 21.1056
0.981762 -0.862461 21.4187
1.28876 -0.956702 21.6143
0.454761 -0.640572 21.5787
0.264254 -0.270666 21.4745
0.152956 -0.276652 21.5896
0.160807 -0.488896 21.5257
-0.0126077 -0.13942 21.6514
-0.236127 0.0437834 21.6271
-0.262546 0.21758 21.7114
-0.420941 0.125172 21.3536
-0.904073 0.588316 21.2732
-0.72527 0.276642 21.3496
-0.829164 0.726551 21.2144
-1.25822 0.566454 20.6773
-1.264 0.616497 20.8677
-0.79286 0.325326 20.4796
-0.714285 0.726746 21.5437
-1.38852 0.830599 20.647
-1.06122 0.566502 21.1223
1.26395 -0.122119 19.8278
1.9708 0.379149 19.0363
0.770048 -0.091646 19.37
3.6942 -0.40515 20.3692
1.28474 -0.351802 21.1155
2.18574 -0.263233 21.3556
1.03548 -0.948448 21.5827
0.459929 -0.376649 21.5669
0.971895 -0.803202 21.525
-0.00449819 -0.337099 21.1349
-0.267539 -0.113703 21.7489
-0.36891 -0.260291 21.1498
-1.20499 0.121354 20.3176
-0.879312 -0.0343242 21.5082
-1.2908 -0.438076 20.8747
-1.62945 0.0617935 20.3293
-0.93458 -0.0735105 20.5991
-1.49254 -0.379128 20.1408
-1.4329 -0.142674 19.8334
1.01321 0.388322 19.9217
0.859603 0.7396 19.8631
0.684102 0.339603 19.5263
1.9589 1.09561 20.2026
1.26751 0.298656 20.8593
1.21503 0.845896 20.7155
1.97413 0.326466 21.3163
0.824663 -0.0100406 21.5703
1.03312 0.459284 21.6862
0.606041 -0.135511 22.0806
-0.0964646 -0.208242 21.7211
-0.00103602 -0.221418 21.8035
-0.58137 -0.546178 21.697
-0.568832 -0.375407 21.3735
-0.398743 -0.534244 21.4466
-0.839702 -0.759255 21.3315
-0.66403 -0.570311 21.0595
-0.412525 -0.535132 21.1689
-0.682818 -0.63062 20.399
-1.48096 -0.731667 19.4392
-1.12219 -0.903618 21.5072
-0.144629 -0.379985 21.6017
0.342388 0.170608 21.6463
1.07395 0.684392 21.1502
0.951056 0.701901 21.3982
-1.96179 -0.16327 19.0992
-1.80213 -0.777845 21.6905
-0.38994 -0.710266 21.3307
0.47182 -0.0408099 20.8092
1.47972 0.130456 20.1922
1.77419 0.177675 19.6939
-1.3349 0.794304 19.4946
-1.91095 0.688003 20.8442
-1.47049 0.0212176 21.9435
0.127488 -0.32104 21.9954
0.753529 -0.69403 21.4028
0.837186 -0.874055 20.9331
-0.0195314 -2.6938 16.6811
-0.00112137 -0.198443 6.27897
-0.000494628 -0.0411661 7.19034
-0.00146052 0.0325252 6.52301
-0.0130808 -0.749394 0.979314
-0.0116581 -0.951397 3.70746
-0.0307836 -0.4743 14.5417
0.0124614 -0.776076 -2.92106
-0.103315 -3.28297 -4.55322
0.0208916 2.46574 17.8702
0.0480776 3.35601 20.2402
0.0103713 2.10724 11.259
-0.00171941 -0.303515 5.58627
-0.0226708 -0.618307 8.30613
-0.0166437 -1.16792 12.6488
1.509 -0.75625 19.3969
1.12334 -0.902467 21.4969
0.145262 -0.381696 21.5958
-0.343826 0.181738 21.5929
-1.06864 0.682429 21.1388
-0.902773 0.652578 21.4138
1.99653 -0.175799 19.0371
1.80355 -0.780885 21.6967
0.385924 -0.710653 21.3151
-0.471158 -0.0444098 20.8313
-1.44716 0.0899993 20.3905
-1.6984 0.0816475 19.7056
1.32821 0.775143 19.5059
1.87978 0.658841 20.8464
1.44264 0.0188687 21.9215
-0.123902 -0.318765 21.994
-0.745233 -0.673376 21.4145
-0.821721 -0.842379 20.9685
-2.28987 -0.584135 2.8349
-0.0377384 -0.342276 1.00546
-0.00573257 -0.0578291 1.13559
0.101162 0.0595457 0.432749
-0.0982296 0.0340426 0.0671941
0.01241 0.0970904 0.42322
-0.0504818 0.0120046 0.059899
-0.147985 0.787056 1.03181
-0.362294 -0.00613369 1.22629
0.149327 0.079104 0.593271
0.00380506 0.0213428 -0.0315097
0.0402098 0.039524 0.25786
0.0369127 -0.341882 1.00333
2.301 -0.588771 2.84587
0.00566055 -0.0579753 1.14049
0.0864277 0.0267264 0.0620421
-0.0671665 0.048997 0.332579
-0.0124061 0.0980884 0.426907
0.147604 0.785505 1.03001
0.0517409 0.0122968 0.0613158
0.359602 -0.00631853 1.21821
-0.0045028 0.0219606 -0.0327699
-0.148794 0.0794343 0.591346
-0.0402936 0.0396144 0.257467
-0.00523516 -0.0115192 0.090743
-0.00282316 0.00630466 0.260188
0.00351666 -0.00929336 0.224812
0 0 0
-0.0182728 0.0934003 0.916081
-0.00995652 0.0214202 0.281692
-0.00272089 0.00836757 0.0394915
0 0 0
-0.320961 -0.171235 0.716883
0 0 0
0 0 0
-0.0156149 0.0130813 0.0336621
0 0 0
-6.48535e-07 -1.20504e-05 -4.94432e-05
0 0 0
0.0234058 0.000154173 0.155136
0.00515804 -0.0113422 0.0893919
0 0 0
0.0028591 0.00638871 0.260336
-0.00351788 -0.00931431 0.224727
0.0184396 0.0931473 0.915027
0 0 0
0.0098857 0.0212662 0.281398
0.00274982 0.00844001 0.039922
0.321568 -0.171606 0.71904
0.0153989 0.0129029 0.0332035
0 0 0
0 0 0
0 0 0
-0.0236046 0.000162841 0.156069
5.82416e-07 -1.08922e-05 -4.46114e-05
0 0 0
-0.013233 -0.00789578 0.135273
-0.0911626 0.147887 0.0667014
5.00729e-06 -0.00316702 0.0373667
7.26492e-05 -0.203122 0.0366747
0.000321378 -0.00289159 0.0739778
0.000962851 -9.95219e-05 0.0116854
0.00263883 0.00472774 0.0504914
-0.0644735 0.0419253 -0.0119097
-7.54282e-07 4.38913e-05 0.00044711
0 0 0
0.000130401 0.00573945 0.0618788
-3.80604e-07 8.34845e-08 3.94604e-05
0 0 0
-1.23982e-06 0.00434422 0.0288786
-0.000378941 -0.00114621 0.00647803
-0.00896744 0.00217031 0.0249724
-0.00016549 0.0204367 -0.00378033
-1.62868e-06 0.000224452 -0.00289166
0 0 0
-0.0019089 -0.000816827 0.00310582
0.0904014 0.146839 0.0661665
0.0135554 -0.00805818 0.138057
-0.000964543 -9.95699e-05 0.0116723
-0.000313885 -0.00288507 0.0734766
0.0646308 0.0421317 -0.0120347
-0.00275197 0.00494981 0.0526727
9.47269e-08 2.16607e-08 1.025e-05
-0.000129334 0.00573547 0.0618506
0.00899757 0.00217852 0.0250864
0.000384399 -0.00116274 0.00657878
0.0018523 -0.000801651 0.00305677
0 0 0
-0.010703 0.0359592 0.398512
0 0 0
0 0 0
-2.27689e-08 -7.7039e-07 -1.08552e-05
0 0 0
-5.7647e-08 6.9526e-09 -1.30248e-05
-6.26628e-08 -3.39889e-06 -1.92553e-05
0 0 0
7.15478e-08 -1.73182e-08 2.22048e-05
-9.40494e-08 -1.43518e-08 -7.76678e-05
-0.000451021 0.00429775 0.0256944
-0.0771288 0.0837135 0.654683
0 0 0
-1.165e-05 0.11382 0.300105
4.71931e-08 3.2955e-05 0.000575653
5.6793e-08 -0.000164248 0.00110209
0 0 0
0.0107174 0.0360172 0.398037
0 0 0
7.79224e-08 -2.62026e-06 -3.68834e-05
9.69906e-08 -5.22207e-06 -2.98183e-05
0 0 0
0.0773544 0.0839834 0.657328
-0.00372024 0.0235431 0.126203
-0.0123773 -0.00938845 0.198585
-0.0114706 -0.00803223 0.0850777
-0.00207734 -0.000667942 0.0589458
0 0 0
-0.00425255 0.014687 0.317558
0 0 0