# vtk DataFile Version 2.0
tri_press
ASCII
DATASET UNSTRUCTURED_GRID
POINTS 3682 float
-0.785 0.375 -2.26739
-0.789602 0.385 2.285
-0.745 0.825 -2.21046
-0.82596 1.015 2.235
0.785 0.375 -2.26739
0.789602 0.385 2.285
0.745 0.825 -2.21046
0.825955 1.015 2.235
-0.830227 0.334641 -0.749927
-0.874377 0.295358 0.767537
-0.842671 0.959017 -0.72864
-0.843386 0.99608 0.75318
0.830227 0.334641 -0.749927
0.874376 0.295359 0.767537
0.84268 0.959028 -0.72864
0.843382 0.996079 0.75318
-1.62058 0.0415208 -3.4753
-1.61799 0.070242 -2.27561
-1.65953 0.0305916 -0.757223
-1.69994 -0.0143098 0.768336
-1.66941 0.0332352 2.28732
-1.65151 0.0769437 3.48998
-1.6485 0.110231 4.68716
-1.61247 0.317354 -3.45965
-1.60878 0.365252 -2.26385
-1.66339 0.347898 -0.7524
-1.70388 0.310493 0.762257
-1.65265 0.362585 2.27439
-1.63817 0.405326 3.47654
-1.64025 0.437041 4.67488
-1.59589 0.832774 -3.41835
-1.58574 0.878081 -2.22107
-1.66405 0.965657 -0.733919
-1.68758 0.987934 0.750706
-1.6652 1.01187 2.23854
-1.64364 1.0514 3.44217
-1.63857 1.08479 4.64625
-1.60459 1.70826 -3.38319
-1.607 1.76751 -2.19125
-1.64014 1.86935 -0.715654
-1.66658 1.94762 0.752258
-1.66755 1.99273 2.22822
-1.65815 2.02185 3.42094
-1.64838 2.05023 4.62113
-0.811547 0.0471461 -3.4776
-0.794458 0.0791347 -2.27896
-0.82202 0.0252524 -0.756772
-0.862456 -0.0254182 0.772842
-0.836307 0.0427257 2.2952
-0.819195 0.0846209 3.49532
-0.816397 0.114475 4.69025
-0.810396 0.316443 -3.46036
-0.801636 0.414703 3.48095
-0.807229 0.441931 4.67721
-0.795878 0.810837 -3.41394
-0.80714 1.05602 3.44146
-0.804366 1.08852 4.6461
-0.789308 1.69308 -3.37883
-0.783611 1.75307 -2.18645
-0.808431 1.86559 -0.71276
-0.831798 1.95109 0.751911
-0.832905 1.9965 2.22574
-0.823779 2.02478 3.41846
-0.81414 2.05264 4.61933
0.786652 0.0471475 -3.4776
0.808914 0.0791354 -2.27896
0.84112 0.0252531 -0.756773
0.850808 -0.0254175 0.772842
0.798491 0.042726 2.2952
0.820773 0.0846212 3.49532
0.837468 0.114476 4.69025
0.769235 0.316444 -3.46036
0.829015 0.414703 3.48095
0.844461 0.441932 4.67721
0.761062 0.810839 -3.41394
0.84273 1.05602 3.44146
0.852769 1.08852 4.6461
0.823067 1.69309 -3.37883
0.839904 1.75308 -2.18645
0.847891 1.86559 -0.71276
0.841468 1.95109 0.75191
0.839416 1.9965 2.22574
0.845231 2.02478 3.41846
0.853182 2.05264 4.61933
1.5957 0.0415242 -3.4753
1.619 0.0702452 -2.27561
1.66651 0.0305944 -0.757222
1.69189 -0.0143084 0.768336
1.65035 0.033236 2.28732
1.65339 0.0769447 3.48998
1.66742 0.110232 4.68716
1.57777 0.317357 -3.45965
1.59998 0.365256 -2.26385
1.66027 0.347902 -0.752401
1.70229 0.310494 0.762257
1.65399 0.362585 2.27439
1.65811 0.405327 3.47654
1.67284 0.437042 4.67488
1.56827 0.832778 -3.41835
1.58085 0.878087 -2.22107
1.66226 0.965668 -0.733919
1.68782 0.987936 0.750706
1.67164 1.01187 2.23854
1.67272 1.0514 3.44217
1.68226 1.08479 4.64625
1.63195 1.70826 -3.38319
1.65124 1.76752 -2.19125
1.67286 1.86936 -0.715655
1.67784 1.94762 0.752258
1.67746 1.99273 2.22822
1.68106 2.02185 3.42094
1.68725 2.05023 4.62113
-0.79532 0.6 -2.26924
0 0.310981 -2.33141
-0.830425 0.332008 -1.50866
-0.831154 0.7 2.28337
0 0.330721 2.33928
-0.862149 0.31002 1.52627
0 0.875408 -2.26087
-0.833194 0.931367 -1.46955
-2.5034e-06 1.10452 2.32452
-0.843708 1.01457 1.49409
0.795319 0.6 -2.26924
0.830425 0.332008 -1.50866
0.83109 0.7 2.28331
0.862152 0.310016 1.52627
0.833194 0.931368 -1.46955
0.843709 1.01458 1.49409
-0.830924 0.336377 0.00880504
-0.889063 0.646829 -0.739283
-7.11228e-08 0.2507 -0.749927
-0.889073 0.645719 0.760358
-3.55614e-07 0.250573 0.767537
-0.843025 0.977545 0.01227
4.61038e-06 1.2243 -0.72864
-2.02454e-06 1.54087 0.75318
0.830924 0.336377 0.00880504
0.889053 0.646835 -0.739283
0.889062 0.645719 0.760358
0.843018 0.977541 0.01227
-0.884009 0.623415 -1.4891
0.884007 0.623417 -1.4891
-3.55614e-08 0.250957 -1.50866
2.30519e-06 1.00201 -1.46955
0 0.6 -2.42256
-0.889067 0.646274 0.0105375
0.889057 0.646277 0.0105375
-2.13368e-07 0.250715 0.00880504
1.29292e-06 1.50797 0.01227
-0.88759 0.672859 1.51018
0.88759 0.672859 1.51018
-1.77807e-07 0.25091 1.52627
-2.26397e-06 1.3493 1.49409
-1.2517e-06 0.7 2.44828
-0.804927 0.4875 -2.28308
-0.3925 0.313696 -2.32869
-0.826978 0.334239 -1.88802
-0.828688 0.5425 2.3025
-0.394801 0.332787 2.33721
-0.825866 0.347519 1.90563
-0.771246 0.7125 -2.24094
-0.3725 0.874269 -2.25973
-0.813109 0.902196 -1.84
-0.830423 0.8575 2.26105
-0.412981 1.09901 2.31901
-0.843913 1.02387 1.86454
0.3925 0.313693 -2.3287
0.804984 0.4875 -2.28314
0.826982 0.334235 -1.88802
0.394801 0.332794 2.33721
0.827435 0.5425 2.30125
0.825986 0.347399 1.90563
0.3725 0.874252 -2.25971
0.771246 0.7125 -2.24094
0.813039 0.902126 -1.84
0.412976 1.09902 2.31902
0.830399 0.8575 2.26103
0.843898 1.02386 1.86454
-0.836745 0.326906 -1.12929
-0.830578 0.335507 -0.370561
-0.887286 0.476914 -0.744605
-0.435357 0.252183 -0.749927
-0.861623 0.309328 1.1469
-0.831271 0.337247 0.388171
-0.888263 0.467269 0.763948
-0.447635 0.252073 0.767537
-0.840505 0.947765 -1.0991
-0.889025 0.814502 -0.733962
-0.842855 0.968288 -0.358185
-0.478618 1.20623 -0.72864
-0.843542 1.00532 1.12364
-0.889083 0.832326 0.756769
-0.843211 0.986818 0.382725
-0.535338 1.49577 0.75318
0.836734 0.326917 -1.12929
0.435357 0.252183 -0.749927
0.830577 0.335507 -0.370561
0.887276 0.47692 -0.744605
0.86162 0.309332 1.1469
0.447634 0.252073 0.767537
0.831271 0.337247 0.388171
0.888275 0.467261 0.763948
0.840509 0.947771 -1.0991
0.478618 1.20622 -0.72864
0.889015 0.814506 -0.733962
0.842851 0.968286 -0.358185
0.843533 1.00532 1.12364
0.535334 1.49576 0.75318
0.889072 0.832324 0.756769
0.843208 0.986817 0.382725
-0.875396 0.611707 -1.87917
-0.39766 0.6 -2.4159
-1.77807e-08 0.250883 -1.92003
0 0.455491 -2.45514
-0.880223 0.477711 -1.49888
-0.415213 0.250964 -1.50866
-0.88494 0.68643 1.89678
-0.415578 0.7 2.43841
-8.89035e-08 0.267601 1.93277
-6.25849e-07 0.515361 2.42316
-0.88918 0.491439 1.51822
-0.431074 0.250922 1.52627
1.1526e-06 0.962035 -1.86521
0 0.737704 -2.36173
-0.885673 0.777391 -1.47933
-0.416596 0.998491 -1.46955
-2.38368e-06 1.14565 1.9093
-1.87755e-06 0.902258 2.41083
-0.886619 0.843717 1.50213
-0.421855 1.32703 1.49409
0.875395 0.611709 -1.87917
0.39766 0.6 -2.4159
0.880205 0.477713 -1.49888
0.415213 0.250964 -1.50866
0.884969 0.68643 1.89675
0.415544 0.7 2.43836
0.88918 0.491438 1.51822
0.431076 0.250922 1.52627
0.885673 0.777393 -1.47933
0.416598 0.998494 -1.46955
0.886619 0.84372 1.50213
0.421854 1.32702 1.49409
-0.887441 0.477602 0.00967127
-0.43613 0.252211 0.00880504
-0.88733 0.635122 -1.11419
-0.889064 0.646551 -0.364373
-5.33421e-08 0.250972 -1.12929
-1.42246e-07 0.250707 -0.370561
-0.88907 0.645996 0.385448
-0.887776 0.659289 1.13527
-2.84491e-07 0.250722 0.388171
-2.66711e-07 0.250896 1.1469
-0.892164 0.824968 0.0114037
-0.533621 1.46698 0.01227
3.45779e-06 1.02405 -1.0991
2.95165e-06 1.40255 -0.358185
-3.65813e-07 1.54191 0.382725
-2.14426e-06 1.49326 1.12364
0.887431 0.477607 0.00967127
0.436129 0.252211 0.00880504
0.88733 0.635126 -1.11419
0.889054 0.646556 -0.364373
0.889059 0.645998 0.385448
0.887776 0.659289 1.13527
0.892157 0.824969 0.0114037
0.533628 1.46699 0.01227
-0.871685 0.482606 -1.8836
-0.888692 0.484223 -1.12174
-0.889061 0.790157 -1.10664
-0.87198 0.744945 -1.85959
0.871672 0.482606 -1.8836
0.871984 0.744946 -1.85959
0.88905 0.790162 -1.10664
0.888692 0.484225 -1.12174
-0.403856 0.250896 -1.90403
0.403856 0.250896 -1.90403
0.415163 0.250978 -1.12929
-0.415163 0.250978 -1.12929
-0.394548 0.961327 -1.85261
-0.418964 1.02073 -1.0991
0.41897 1.02071 -1.0991
0.394549 0.961328 -1.85261
-0.39508 0.471495 -2.44325
-0.38508 0.725102 -2.36183
0.38508 0.725102 -2.36156
0.39508 0.471495 -2.44325
-0.887364 0.477258 -0.367467
-0.886166 0.473279 0.386809
-0.889085 0.827878 0.384087
-0.889041 0.818958 -0.361279
0.887353 0.477263 -0.367467
0.889033 0.818961 -0.361279
0.889074 0.827876 0.384087
0.886158 0.473281 0.386809
-0.435743 0.252197 -0.370561
0.435743 0.252197 -0.370561
0.441827 0.252251 0.388171
-0.441828 0.252251 0.388171
-0.523972 1.37231 -0.358185
-0.541614 1.49564 0.382725
0.541611 1.49564 0.382725
0.523928 1.37222 -0.358185
-0.889352 0.480989 1.14109
-0.88693 0.51697 1.90121
-0.885446 0.850608 1.88066
-0.887463 0.832308 1.12945
0.889352 0.480988 1.14109
0.887463 0.832309 1.12945
0.885369 0.85061 1.88065
0.886914 0.516969 1.90119
-0.434132 0.250909 1.1469
0.434132 0.250909 1.1469
0.412939 0.267955 1.9192
-0.412938 0.267953 1.9192
-0.421775 1.46971 1.12364
-0.417418 1.14131 1.88692
0.417415 1.14131 1.88692
0.421772 1.4697 1.12364
-0.405189 0.52893 2.42249
0.405173 0.52893 2.42296
0.41426 0.879879 2.40195
-0.414279 0.879879 2.40219
-0.800319 0.43125 -2.28059
-0.58875 0.321059 -2.32133
-0.808695 0.351914 -2.07771
-0.808247 0.46375 2.29285
-0.592201 0.343678 2.32632
-0.808293 0.3657 2.09532
-0.762237 0.76875 -2.22981
-0.55875 0.858729 -2.24419
-0.79617 0.880713 -2.02523
-0.829803 0.93625 2.24964
-0.619471 1.07797 2.29797
-0.843998 1.02849 2.04977
0.58875 0.320886 -2.3215
0.800375 0.43125 -2.28065
0.808757 0.351852 -2.07771
0.592201 0.34367 2.32633
0.808391 0.46375 2.293
0.808294 0.365699 2.09532
0.55875 0.858724 -2.24418
0.762408 0.76875 -2.22998
0.796196 0.880739 -2.02523
0.619466 1.07796 2.29796
0.829842 0.93625 2.24968
0.843991 1.02849 2.04977
-0.830067 0.334192 -0.93961
-0.830404 0.335072 -0.560244
-0.858898 0.405706 -0.747266
-0.652813 0.253371 -0.749927
-0.863063 0.30728 0.95722
-0.831445 0.337682 0.577854
-0.883661 0.380143 0.765742
-0.67119 0.253348 0.767537
-0.842513 0.954316 -0.913868
-0.883344 0.895508 -0.731301
-0.842762 0.963652 -0.543413
-0.698424 1.15818 -0.72864
-0.843454 1.00069 0.938408
-0.888597 0.925384 0.754975
-0.843304 0.991454 0.567953
-0.715965 1.29913 0.75318
0.830067 0.334192 -0.93961
0.652812 0.253371 -0.749927
0.830404 0.335072 -0.560244
0.858889 0.405711 -0.747266
0.86306 0.307283 0.95722
0.671189 0.253348 0.767537
0.831444 0.337682 0.577854
0.883664 0.380141 0.765742
0.842517 0.954322 -0.913868
0.698427 1.15818 -0.72864
0.883332 0.895509 -0.731301
0.842775 0.963667 -0.543413
[...]
POINT_DATA 3682
SCALARS point_scalars float 1
LOOKUP_TABLE default
-102.268
-45.4084
-56.3453
-47.8604
-102.223
-45.3649
-56.3394
-47.8283
-37.2719
-37.1088
-52.2572
-49.1512
-37.2608
-37.1644
-52.2272
-49.1879
-19.6993
-83.5923
-56.1243
-36.6432
-44.5265
-44.6222
-38.9902
43.3499
-94.6192
-37.7268
-41.0256
-45.4314
-44.4167
-37.7289
27.8942
-105.86
-45.8675
-45.108
-46.5972
-45.0586
-38.1368
-44.9198
-74.4131
-70.5468
-65.3658
-46.0944
-47.4985
-39.7477
78.1689
-97.9226
-38.8622
-41.3319
-43.8603
-37.9008
-35.8187
89.104
-36.6874
-35.7577
150.918
-38.0417
-37.1546
12.8141
-72.7259
-49.1483
-67.8672
-43.1312
-39.4494
-38.3611
72.4601
-97.8572
-38.8549
-41.0534
-43.7895
-36.6036
-36.438
113.629
-36.6415
-35.9397
160.658
-38.0069
-37.2293
14.2232
-72.1925
-50.5079
-67.8692
-43.1578
-39.591
-38.3402
-19.6921
-83.5535
-56.1038
-36.6763
-44.2204
-44.6417
-39.2492
43.3681
-94.6293
-37.7211
-40.9929
-45.3871
-43.8448
-37.7074
37.191
-105.922
-45.8555
-45.1374
-46.5733
-45.019
-38.4719
-44.9947
-73.3263
-70.515
-65.3541
-46.0656
-47.8155
-39.7078
-63.0806
-123.801
-44.28
-43.9514
-30.1337
-42.9281
-79.4784
-33.5809
-40.2848
-50.8098
-63.1686
-44.2921
-43.8965
-42.8574
-33.5722
-50.8056
-35.5684
-39.7168
-38.8175
-40.8853
-36.7153
-51.0637
18.9262
-77.2466
-35.5545
-39.711
-40.882
-50.9845
-44.3727
-44.3625
-55.176
-12.799
194.89
-40.3474
-40.3369
-35.2418
-89.7665
-43.8768
-43.8586
-40.5897
-49.2857
-32.4137
-63.5971
-116.76
-66.6457
-44.6199
-36.257
-47.5534
-32.523
-69.7444
-53.1494
-45.4107
-39.2567
-47.6409
-116.804
-63.7993
-66.613
-35.8349
-43.9839
-47.5238
-69.7386
-32.4885
-53.1192
-39.3065
-45.3699
-47.6265
-28.9948
-35.6984
-37.7612
-38.3924
-39.8121
-34.694
-39.8809
-36.508
-31.1395
-43.7268
-52.6845
6.34231
-49.0669
-43.4569
-49.6919
-70.4133
-29.0074
-38.39
-35.6964
-37.7553
-39.8547
-36.4987
-34.6851
-39.8637
-31.1184
6.36084
-43.7172
-52.7005
-49.0866
-70.4138
-43.4752
-49.6932
-66.4901
184.331
-80.1572
185.473
-44.3624
-52.6472
-49.8421
-36.8528
-40.7052
-24.3792
-43.2931
-41.2887
-43.6866
131.259
-43.4672
-16.7782
-44.9372
-36.6736
-44.8269
-50.7426
-66.4576
184.367
-44.3508
-52.6419
-49.8193
-36.7755
-43.2746
-41.2452
-43.4583
-16.7796
-44.8119
-50.7364
-37.508
-34.9588
-38.27
-40.2658
-44.3573
-36.1199
-40.0292
-43.8031
-35.5314
-38.4111
-43.5463
-81.6402
10.9759
-44.3889
-86.2743
-63.9832
-37.4862
-34.957
-38.259
-40.4357
-40.0002
-43.7948
-44.9195
-81.6343
-65.3523
-38.1262
-38.5756
-61.7991
-65.3194
-61.82
-38.5577
-38.1201
-76.3845
-76.3676
-43.0017
-43.003
-43.5734
5.84044
5.82123
-43.575
184.655
129.231
129.221
184.709
-37.4985
-36.8587
-43.268
-44.7751
-37.503
-44.8037
-43.3322
-36.8369
-35.7532
-35.7514
-35.1985
-35.1987
-53.8145
-75.373
-75.394
-53.7661
-42.8526
-49.1781
-49.6748
-45.1314
-42.8383
-45.1327
-49.6209
-49.1725
-38.5574
-38.5466
-42.786
-42.8334
-64.1914
-45.3675
-45.3696
-64.1838
-34.7522
-34.622
-37.4666
-37.5123
-85.6823
-98.1312
-72.757
-46.1197
-40.4845
-44.6921
-31.9579
-58.3102
-77.6472
-47.0582
-40.7051
-46.3722
-98.1264
-85.7944
-72.8511
-40.3928
-46.0974
-44.6364
-56.6754
-31.8292
-77.674
-40.6688
-47.0175
-46.359
-44.0193
-35.7879
-37.1166
-38.0422
-40.6757
-32.0222
-38.3549
-37.339
-45.1941
-47.3148
-52.9838
-41.2757
-49.23
-46.5053
-49.2102
-58.5867
-44.0069
-38.0364
-35.783
-37.1096
-40.5709
-37.361
-32.0341
-38.3274
-45.1507
-41.1644
-47.3003
-53.0018
-49.2618
-58.5751
-46.5354
-49.2361
-64.3666
-53.7657
-91.8971
143.362
-120.6
-120.618
-94.4435
44.4826
-53.5045
-38.8883
-44.497
-49.3043
-44.0259
-45.1281
-47.0439
-37.7765
-31.8557
-31.7966
-36.6292
-24.7009
-49.6023
-39.9623
-43.1782
-41.9485
-76.2053
-76.2188
-72.303
52.0386
-42.7834
-30.6998
-41.028
-22.255
-39.6989
-39.7465
-42.614
-38.102
-50.5359
-49.3665
-46.6714
-54.1132
-64.3974
-53.7775
-91.8963
143.381
-53.4845
-38.8738
-44.4875
-49.2932
-43.8749
-45.0767
-46.9997
-37.7361
-49.588
-39.8536
-43.1618
-41.9227
-42.7625
-30.8463
-41.0188
-22.2421
-50.5279
-49.3713
-46.6585
-54.0996
-35.69
-35.3677
-36.482
-34.7454
-38.7575
-41.2387
-39.1713
-40.1632
-38.6435
-38.6432
-41.172
-37.1869
-40.21
-42.0087
-40.0452
-42.6194
-36.6873
-36.684
-36.0142
-37.4853
-51.8209
-50.4154
-47.9632
-64.8715
16.8031
16.891
23.9939
-6.94468
-75.802
-75.799
-82.1085
-71.7479
-35.6857
-35.3511
-36.4642
-34.7411
-38.7516
-41.2318
-39.1604
-40.1668
-40.2009
-42.0155
-40.043
-42.6134
-51.828
-50.3388
-47.8991
-64.8316
-54.3428
-44.5621
-44.1406
-39.1596
-54.3159
-44.5497
-44.1332
-39.1586
-65.2228
-54.7044
-54.7031
-48.8906
-26.167
-13.8697
-13.8713
0.421084
194.456
205.071
161.477
194.457
-39.0699
-40.4327
-40.3777
-41.9811
-39.0727
-40.4698
-40.2547
-42.1021
-35.1687
-35.5045
-35.2672
-35.1682
-88.0161
-74.7972
-89.0364
-88.0207
-45.6785
-43.6296
-44.3295
-42.9791
-45.667
-43.6119
-44.3114
-42.9657
-42.1057
-40.8299
-40.8212
-39.4476
-45.7743
-49.6256
-49.6887
-55.4082
-34.1774
-27.4336
-34.8599
-33.9988
-86.7676
147.531
-89.959
60.2376
-65.7537
-73.2908
-46.4037
-36.8711
-40.214
-35.0058
-49.1849
-44.4117
-93.6449
107.181
-70.649
71.7913
-59.3995
-46.0798
-47.274
-37.9577
-42.4986
-37.9662
-48.7506
-46.0895
-90.0298
59.9709
-86.7824
147.482
-65.7103
-73.2369
-40.1232
-34.6083
-46.3708
-36.8132
-49.1622
-44.3532
-70.6359
71.8174
-93.6397
107.208
-59.3542
-46.0802
-42.4976
-37.9407
-47.2406
-37.9209
-48.6814
-46.0895
-34.8492
-40.9131
-36.5187
-35.4269
-40.114
-37.4355
-40.5364
-36.7181
-42.3637
-38.7952
-35.607
-34.6924
-36.0051
-42.3088
-35.7366
-37.6204
-38.2661
-5.92262
-41.0089
-44.6165
-48.7169
-75.9897
16.7304
-23.8011
-46.8697
-64.2637
-43.2486
-44.2196
-46.6175
-59.3178
-73.0074
-69.4147
-34.8471
-40.9117
-40.5344
-36.7163
-36.5199
-35.4234
-40.1048
-37.435
-42.3467
-38.7808
-35.7368
-37.6067
-35.5927
-34.6927
-35.9978
-42.2909
-38.2348
-5.94444
16.9472
-23.915
-40.9928
-44.6249
-48.7393
-76.0065
-46.8768
-64.2597
-73.001
-69.4026
-43.2794
-44.2096
-46.6689
-59.2806
-65.8918
-64.9986
192.69
158.81
-78.8608
-78.859
190.106
190.116
-53.1435
-38.8489
-61.9695
-46.8382
-49.5014
-49.7294
-35.8438
-37.2962
-41.3887
-41.4173
-28.6788
-28.5652
-41.9111
-46.0595
-39.7185
-43.8594
-43.2765
-43.2768
133.201
133.207
-38.7958
-52.6778
-28.4585
-5.09483
-45.1684
-45.1695
-36.6874
-36.7376
-46.1807
-44.447
-57.0074
-46.9806
-65.8589
-65.0001
158.793
192.739
-53.1171
-38.8446
-61.9582
-46.8364
-49.6969
-49.4751
-35.7434
-37.2369
-41.8947
-46.0349
-39.707
-43.8362
-52.6314
-38.8004
-5.10366
-28.4581
-44.4383
-46.1805
-46.9792
-56.97
-37.5353
-37.3627
-35.1973
-34.9574
-38.5429
-38.1949
-39.0045
-42.2986
-44.0313
-44.0313
-36.0071
-36.0067
-38.6632
-41.5968
-43.3021
-44.4504
-35.4546
-35.4551
-38.4501
-38.4448
-45.0718
-44.4214
-72.2247
-77.4711
9.98812
9.98551
-45.2621
-45.2504
-84.0501
-84.0466
-64.0583
-64.0542
-37.5378
-37.3209
-35.1954
-34.9562
-38.1843
-38.5351
-39.0146
-42.2059
-41.6064
-38.6344
-43.2905
-44.4468
-44.503
-43.6085
-77.5689
-72.3147
-79.7366
-52.8926
-54.2154
-90.5669
-43.1949
-39.2217
-39.2161
-38.6962
-43.3201
-36.8786
-39.1102
-39.6452
-91.8438
-93.9829
-54.0882
-47.9386
-79.7808
-90.5806
-54.1881
-52.8532
-91.8392
-47.9158
-54.0043
-93.9757
-43.2911
-39.6326
-39.1038
-36.8646
-43.1849
-38.6929
-39.2131
-39.2117
-84.8547
-92.9655
-64.3127
-57.247
-84.9142
-57.2069
-64.3104
-92.9735
-40.8306
-40.9663
-48.4598
-43.7943
-40.8383
-43.7991
-48.4601
-40.9664
-71.8905
-32.4811
-26.5524
-71.3059
-8.25207
22.9233
-0.795759
-13.9334
-8.30865
-13.9683
-0.798709
22.9239
-71.8564
-71.31
-26.5531
-32.475
87.4178
149.818
203.337
61.3638
61.2316
58.4416
163.927
125.221
60.7601
125.236
163.92
58.433
87.1128
60.9509
203.345
149.803
-36.6296
-36.5699
-39.0853
-38.7599
-33.6561
-38.5038
-39.0247
-36.2752
-46.3716
-47.6363
-42.1334
-41.5824
-48.5034
-41.9763
-42.1912
-48.3166
-36.629
-38.8302
-39.1005
-36.5678
-48.5146
-48.3614
-42.0504
-41.9822
-46.4126
-41.5988
-41.9629
-47.6909
-33.6564
-36.2489
-38.95
-38.4957
-36.2461
-37.0623
-35.4212
-34.9687
-36.2419
-34.965
-35.4208
-37.062
-35.1542
-35.94
-35.1882
-34.6551
-35.1448
-34.6584
-35.1886
-35.9412
-67.4379
-68.596
-74.2374
-9.82852
-58.09
-80.1814
-86.1585
-61.6633
-58.0641
-61.614
-86.1442
-80.1736
-67.4081
-9.82398
-74.2275
-68.583
-41.7393
-41.4379
-42.4624
-42.3193
-45.4433
-46.7797
-45.7671
-46.75
-47.1684
-46.9826
-45.852
-47.2253
-47.3066
-43.322
-43.5937
-46.3207
-41.7105
-42.3085
-42.4475
-41.4213
-47.3269
-46.3168
-43.5821
-43.3241
-47.1457
-47.1802
-45.8522
-46.9718
-45.3973
-46.7232
-45.7519
-46.7305
-37.9319
-37.5008
-39.5611
-39.8389
-37.8663
-39.8231
-39.555
-37.4959
-43.2055
-37.6615
-42.5015
-45.7587
-43.2785
-45.7686
-42.5166
-37.7106
-56.9382
-59.6455
-55.9043
-71.3986
-43.6739
-42.6246
-46.1682
-49.17
-43.6637
-49.1635
-46.1762
-42.6263
-56.9344
-71.3972
-55.8968
-59.6206
-37.3841
-28.2387
-30.7226
-37.247
-37.5295
-37.2035
-30.5885
-28.1452
-38.3564
-37.9675
-35.4633
-37.8522
-38.3926
-37.8904
-35.5395
-37.9828
-98.6626
-93.1526
-88.2615
-45.4178
-42.6634
-43.6157
-42.01
-47.3474
-73.9601
-47.7478
-43.1227
-46.1053
-93.1257
-98.7415
-88.2226
-42.6526
-45.3705
-43.6832
-47.3885
-42.0244
-73.996
-43.084
-47.7097
-46.0752
-37.8772
-35.8513
-36.7408
-38.3041
-42.7157
-25.5814
-37.1461
-40.9719
-53.3673
-49.9838
-52.6119
-64.0126
-49.1716
-48.2835
-49.1327
-52.785
-37.8742
-38.2968
-35.8422
-36.7331
-42.1477
-41.1401
-25.6103
-37.1366
-53.2754
-63.8625
-49.9632
-52.6268
-49.2048
-52.8075
-48.3179
-49.1703
-63.518
-59.2087
-104.346
71.9079
-122.81
-122.81
-103.546
-73.4271
-48.5159
-41.5975
-44.3833
-46.2572
-43.9951
-44.7663
-45.112
-39.0259
-30.6787
-30.623
-33.261
-27.5786
-45.0672
-41.374
-43.1572
-42.1963
-78.3215
-78.2723
-86.1412
-13.5126
-37.0092
-32.84
-38.8535
-26.8824
-40.0615
-39.9907
-41.337
-38.9109
-50.3029
-50.041
-48.8509
-57.8303
-63.5611
-59.2479
-104.357
72.0375
-48.4464
-41.6071
-44.3831
-46.2597
-43.9393
-44.7114
-45.0633
-38.9745
-45.0627
-41.3627
-43.1403
-42.1304
-36.999
-32.3993
-38.8618
-26.8647
-50.2949
-50.0381
-48.8409
-57.8
-35.6508
-35.5681
-36.0885
-34.4718
-39.2324
-40.381
-39.4407
-39.9221
-38.7702
-38.7702
-39.8887
-37.9228
-40.4537
-41.4559
-40.2574
-40.7821
-36.7087
-36.7072
-36.3297
-37.0914
-51.7122
-50.8269
-49.9855
-56.8661
18.4591
18.518
25.655
6.72333
-76.8914
-76.8891
-80.1234
-74.5579
-35.6426
-35.5507
-36.0716
-34.4658
-39.2267
-40.3749
-39.4314
-39.9353
-40.4475
-41.4572
-40.3595
-40.7767
-51.6983
-50.7194
-49.8797
-56.812
-48.5517
-44.5291
-44.3327
-41.3058
-48.5372
-44.517
-44.3252
-41.2986
-59.6331
-55.0086
-55.008
-51.7604
-19.4046
-13.1561
-13.1566
-5.90745
197.295
201.867
186.647
197.292
-39.698
-40.3996
-40.3615
-41.142
-39.678
-40.4377
-40.2482
-41.1921
-35.2236
-35.3365
-35.2226
-35.2234
-89.2061
-82.3632
-90.8392
-89.2056
-44.6904
-43.7342
-44.1086
-43.3714
-44.6691
-43.7162
-44.0901
-43.3558
-41.2418
-40.6396
-40.6352
-40.0087
-47.1233
-49.3364
-49.304
-52.0049
-32.966
-29.694
-34.4835
-33.0235
-70.6845
-63.9525
-109.091
59.3461
-107.817
-118.101
-99.5599
-45.7671
-72.5551
-59.171
-65.5006
-72.3776
-44.9554
-44.3656
-44.7866
-38.5076
-38.4669
-33.73
-37.9365
-35.3072
-45.1119
-53.069
-48.4873
-45.8052
-31.0143
-41.5635
-106.297
54.7378
-66.7043
-72.6644
-81.922
-4.69253
-60.6726
-47.1334
-58.1997
-47.366
-46.1368
-45.3422
-45.6773
-39.5254
-39.6504
-39.4167
-40.9828
-38.5219
-46.4032
-48.4277
-47.6963
-47.0912
-107.709
-118.111
-99.6488
-45.9664
-70.8425
-64.0692
-109.144
59.2177
-72.5603
-59.158
-65.454
-72.3051
-37.9031
-33.6338
-37.8032
-34.7894
-44.5415
-43.8493
-44.7723
-38.3983
-45.0813
-53.0104
-48.4625
-45.7544
-66.6893
-72.6657
-81.9934
-4.78924
-30.9613
-41.4667
-106.356
54.7847
-60.5571
-47.0867
-58.1626
-47.3698
-39.6249
-39.3904
-40.9768
-38.5122
-46.0938
-45.2967
-45.6364
-39.4816
-46.3842
-48.4177
-47.6638
-47.0911
-45.1557
-36.002
-31.8484
-37.6242
-35.744
-35.7108
-36.035
-34.9788
-37.439
-38.2797
-38.5319
-37.6483
-38.2307
-38.5173
-39.5201
-37.4097
-40.961
-39.6545
-41.6362
-39.0178
-33.9998
-35.2081
-35.1399
-33.8212
-39.2293
-40.2169
-36.0274
-40.1834
-36.544
-36.6395
-36.1152
-37.0582
-35.6211
-30.0096
-36.0772
-17.2147
-45.5876
-42.2261
-42.5949
-44.3058
-53.0441
-52.5894
-51.0856
-61.4438
-8.93651
13.1763
15.653
-6.34987
-49.2425
-49.1182
-47.9929
-55.2648
-44.4645
-42.6583
-43.3213
-43.6252
-49.2814
-49.8941
-48.808
-54.0447
-66.8899
-73.745
-72.3174
-69.7553
-45.1389
-35.9963
-31.8482
-37.6306
-38.2268
-38.5163
-39.5177
-37.4076
-35.7419
-35.7079
-36.0335
-34.9766
-37.4325
-38.2735
-38.5244
-37.6448
-40.9662
-39.6557
-41.5921
-39.0063
-36.5309
-36.634
-36.11
-37.0469
-33.9983
-35.1944
-35.1276
-33.8211
-39.2067
-40.2048
-36.0157
-40.1666
-35.5768
-30.009
-36.0545
-17.2268
-8.8593
13.1463
15.6538
-6.34962
-45.5762
-42.2181
-42.5787
-44.3051
-53.0629
-52.6044
-51.1036
-61.4507
-49.2684
-49.1305
-48.0047
-55.2764
-66.8909
-73.743
-72.3131
-69.7477
-44.4889
-42.6709
-43.3343
-43.6396
-49.2915
-49.8762
-48.8253
-54.0152
-76.0154
-60.0788
-66.2239
-65.9246
170.978
193.079
190.72
173.066
-86.8954
-72.4888
-79.6618
-79.6619
140.047
201.1
179.537
179.537
-44.4639
-44.4461
-48.314
-41.2545
-51.1509
-53.8083
-56.775
-49.4719
-48.9973
-47.683
-49.6736
-49.9032
-37.4687
-35.4889
-36.2312
-37.3384
-38.8542
-42.0665
-40.9165
-40.9312
-23.8458
-24.9667
-25.743
-25.6674
-43.2016
-43.4689
-42.4853
-44.5717
-41.6092
-41.0142
-40.4472
-42.3077
-55.2123
-34.7951
-43.4072
-43.4058
112.321
142.677
137.427
137.44
-42.7562
-43.8727
-40.5754
-47.6056
-19.1498
-15.146
-22.2517
-11.6484
-43.8904
-45.2194
-45.045
-45.0458
-37.6296
-35.4532
-36.6001
-36.6308
-45.4152
-44.5249
-45.2807
-44.6938
-52.0875
-50.1472
-53.5352
-48.6482
-76
-60.0438
-66.1909
-65.9022
171.003
193.093
173.086
190.768
-44.4518
-44.4336
-48.2923
-41.2462
-51.1416
-53.8055
-56.7663
-49.4688
-48.9622
-47.6608
-49.8788
-49.6455
-37.416
-35.3814
-36.1391
-37.2733
-43.1822
-43.4509
-42.468
-44.5537
-41.5932
-41.002
-40.4345
-42.2903
-42.7467
-43.8651
-47.5887
-40.5697
-19.1463
-15.1481
-11.6533
-22.2509
-45.4016
-44.508
-44.6815
-45.2655
-52.0755
-50.1431
-48.6427
-53.4865
-36.905
-38.3836
-37.5891
-37.4209
-34.8341
-35.0762
-35.0502
-34.9279
-38.6746
-38.2589
-38.4532
-38.2968
-40.3375
-40.5098
-39.7102
-41.304
-42.6403
-46.4361
-44.2658
-44.2658
-36.5907
-35.765
-36.0965
-36.0963
-39.8445
-40.2172
-39.3547
-40.8266
-44.9632
-42.7196
-43.5551
-44.0391
-35.7509
-35.3718
-35.512
-35.5122
-37.9368
-38.9177
-38.4211
-38.4185
-45.6052
-42.6724
-43.9936
-43.9154
-78.2979
-85.1037
-77.3237
-80.5323
17.0982
6.05782
10.7778
10.7771
-24.2294
-61.5119
-44.4705
-44.4641
-83.7468
-87.8946
-85.6764
-85.6748
-68.3751
-59.1999
-63.8687
-63.8779
-36.885
-38.3593
-37.5825
-37.3833
-34.8312
-35.0752
-35.0484
-34.9263
-38.6642
-38.2541
-38.2861
-38.4441
-40.3471
-40.5369
-39.7239
-41.2528
-39.9461
-40.1467
-40.8086
-39.3254
-44.9578
-42.7081
-43.545
-44.0329
-46.2889
-43.4845
-44.0957
-42.6435
-78.2383
-85.1663
-80.5638
-77.3418
-74.4903
-65.6019
-65.6127
-59.0788
-37.2443
-41.3612
-37.2759
-38.5285
-38.8043
-39.5689
-38.0186
-38.2043
-72.8571
-60.2865
-63.2506
-56.9831
-74.4603
-65.5632
-65.58
-59.0566
-72.8468
-60.2714
-63.2786
-56.9419
-38.77
-39.5515
-37.9912
-38.1883
-37.2402
-41.3519
-37.2733
-38.5214
-82.9413
-74.5019
-77.7979
-68.8481
-82.9273
-74.4692
-77.7913
-68.834
-42.1536
-41.7193
-44.7495
-43.6278
-42.1562
-41.7211
-44.7508
-43.6281
-54.6273
-44.4399
-43.2801
-35.9423
1.8584
11.1846
0.573908
8.43223
1.85387
11.2293
0.56535
8.42674
-54.6238
-44.4427
-43.2809
-35.9424
173.386
151.393
191.004
188.984
121.322
113.99
141.156
136.843
114.179
121.4
136.874
141.079
151.482
173.486
189.02
191.051
-36.9668
-37.6018
-37.582
-38.3299
-36.1084
-36.3697
-37.134
-37.9048
-43.2565
-44.6259
-42.3985
-44.2863
-44.7944
-46.5115
-43.4188
-44.6254
-36.9697
-37.6042
-37.5872
-38.337
-44.8116
-46.5382
-43.4458
-44.6743
-43.2994
-44.6974
-42.4339
-44.4483
-36.0911
-36.3571
-37.1012
-37.8779
-35.5796
-36.1805
-35.4301
-35.9086
-36.1786
-35.5768
-35.9077
-35.4282
-35.4306
-34.9843
-35.3502
-35.0495
-34.9842
-35.4305
-35.0502
-35.3507
-66.5715
-37.5183
-63.9481
-46.1419
-66.9816
-73.2631
-76.8226
-80.7331
-73.2661
-66.9972
-80.7237
-76.494
-37.3532
-66.541
-46.1158
-63.8563
-42.6474
-44.6236
-41.5151
-43.0787
-48.1925
-48.7716
-49.4311
-47.7448
-49.0083
-49.3736
-49.7823
-47.9041
-45.7909
-45.4714
-44.3015
-44.7976
-42.6321
-44.6087
-41.5001
-43.0656
-45.794
-45.4713
-44.2963
-44.7967
-48.9533
-49.339
-49.7421
-47.9115
-48.1839
-48.736
-49.4075
-47.7009
-38.6397
-38.0792
-39.0984
-38.4957
-38.6266
-38.0675
-39.0878
-38.4877
-41.6052
-43.3146
-42.0583
-43.8723
-41.6703
-43.3671
-42.0983
-43.9061
-64.1407
-68.2576
-60.2848
-64.1373
-43.9735
-45.5636
-45.2624
-46.1452
-43.975
-45.5666
-45.2635
-46.1394
-64.1371
-68.2511
-60.2753
-64.1289
-35.9184
-34.9257
-35.0306
-32.0306
-34.5694
-35.8971
-31.8673
-34.9318
-37.8023
-37.6961
-37.0989
-37.2874
-37.7348
-37.8406
-37.3403
-37.1519
-105.517
29.9718
-95.7779
-18.7526
-77.5953
-77.6861
-45.012
-39.3495
-41.6567
-38.2619
-45.0767
-44.263
-90.0415
40.9933
-82.6437
5.40927
-88.3846
-72.3116
-45.8697
-40.4646
-42.3829
-39.3252
-46.7664
-45.4521
-96.0442
-18.4184
-105.549
29.8665
-77.667
-77.8416
-41.5756
-38.5762
-44.9516
-39.3144
-45.0257
-44.28
-82.4447
4.43147
-90.07
40.954
-88.4027
-72.3353
-42.3617
-39.2858
-45.8228
-40.4253
-46.747
-45.4425
-43.652
-39.703
-36.2134
-35.4701
-37.8499
-36.7486
-39.3088
-36.9323
-40.7887
-39.5387
-32.5267
-33.122
-30.5052
-41.0346
-35.9331
-37.7665
-44.8319
-29.1017
-46.2517
-48.0136
-51.1621
-65.8661
-18.7885
-51.8631
-48.6569
-52.3492
-46.1268
-46.3912
-48.5039
-53.2965
-58.1319
-57.6453
-43.6407
-39.6925
-39.302
-36.9273
-36.2081
-35.4654
-37.8429
-36.7444
-40.7337
-39.3497
-35.9426
-37.7041
-32.5316
-33.1382
-30.5071
-41.0137
-44.7909
-29.2064
-18.7534
-51.8124
-46.2185
-48.017
-51.1767
-65.8937
-48.6836
-52.3844
-58.112
-57.6359
-46.1555
-46.4127
-48.4807
-53.2941
-105.736
73.6231
-107.879
59.9114
-91.0922
-92.8651
148.29
133.59
-101.994
-62.7276
-102.003
-62.6534
-93.9953
-93.9979
42.2568
40.8271
-53.006
-54.2051
-38.7284
-40.527
-48.0981
-41.4045
-53.0601
-46.0936
-44.812
-38.4623
-45.4523
-39.178
-46.9149
-47.1669
-37.4529
-37.9907
-34.6899
-29.7191
-34.6297
-29.7514
-36.896
-36.92
-25.2077
-25.1451
-47.7116
-47.7443
-41.0782
-39.6408
-42.1644
-44.6881
-40.8005
-43.4976
-84.9584
-10.0099
-84.9702
-10.0218
-72.5263
-72.5187
55.1677
55.0813
-46.3366
-35.6775
-34.1738
-21.1356
-38.0412
-43.8799
-27.0923
-18.1917
-41.1581
-38.7764
-41.1594
-38.7816
-42.6412
-42.642
-38.0405
-38.0446
-48.4381
-51.6203
-47.8954
-56.3384
-47.1309
-46.5603
-57.9265
-51.3074
-105.775
73.5392
-107.872
59.9842
-91.0998
-92.8624
133.605
148.289
-52.9709
-54.0882
-38.7201
-40.522
-48.0689
-41.4029
-53.0391
-46.092
-44.7561
-38.4269
-45.4108
-39.1308
-47.1191
-46.8743
-37.4119
-37.9519
-47.685
-47.7664
-41.0497
-39.62
-42.1451
-44.6727
-40.7801
-43.4903
-46.3144
-35.6692
-34.1573
-21.1612
-43.8638
-38.0458
-18.182
-27.0895
-48.4244
-51.6101
-47.8948
-56.3351
-46.5511
-47.1179
-51.2929
-57.9067
-36.1859
-34.6921
-35.8814
-34.2939
-36.5011
-36.4123
-34.8424
-34.6832
-38.9163
-38.7455
-40.5215
-41.69
-39.1565
-39.3455
-39.4033
-40.8691
-39.8016
-37.832
-39.8014
-37.8318
-41.1033
-41.1033
-37.1327
-37.1326
-38.9835
-40.188
-41.7642
-41.6864
-39.3293
-40.821
-42.4265
-42.9419
-36.2848
-37.0824
-36.2825
-37.0782
-35.9884
-35.989
-37.4933
-37.491
-50.5172
-58.4483
-49.3684
-55.2779
-47.9527
-47.9923
-67.0506
-63.3289
23.6089
4.23529
23.3488
4.29368
23.8351
23.8368
-7.54617
-7.53553
-78.4677
-73.634
-78.4643
-73.63
-81.5906
-81.5875
-71.723
-71.7215
-36.1801
-34.6885
-35.8585
-34.2877
-36.4923
-36.3877
-34.8382
-34.6792
-38.9079
-38.7428
-40.5101
-41.6892
-39.334
-39.1458
-39.406
-40.8735
-38.9748
-40.1771
-41.7567
-41.6911
-40.8219
-39.3235
-42.4183
-42.9375
-50.5414
-58.4383
-49.3194
-55.2164
-48.0644
-47.2201
-63.2824
-67.0311
-54.0577
-54.2309
-48.5244
-41.4126
-41.1314
-48.2204
-39.2486
-39.1252
-54.0304
-54.1743
-48.5048
-41.4061
-48.2117
-41.1206
-39.1181
-39.2454
-64.9015
-64.9007
-58.9458
-51.347
-58.9438
-51.3463
-48.7378
-48.7378
-26.1766
-26.1762
-20.0552
-7.03821
-7.04067
-20.0557
0.0878547
0.0866886
200.803
186.244
205.318