# vtk DataFile Version 2.0
tet_velo
ASCII
DATASET UNSTRUCTURED_GRID
POINTS 29498 float
-0.725 0.285 -1.97166
-0.717341 0.335 2.065
-0.625 0.73946 -1.965
-0.553846 0.945 2.025
0.725 0.285 -1.97166
0.717336 0.335 2.065
0.625 0.73946 -1.965
0.553841 0.945 2.025
-0.810685 0.213429 -0.626107
-0.815382 0.222846 0.719447
-0.735305 0.941996 -0.635
-0.69148 0.990402 0.695
0.810684 0.213428 -0.626107
0.81538 0.222844 0.719447
0.735322 0.942015 -0.635
0.691471 0.990397 0.695
-1.4739 -0.0995459 -3.03637
-1.47925 -0.060483 -1.96615
-1.53515 -0.108482 -0.620199
-1.53123 -0.117926 0.728886
-1.46145 -0.0443901 2.07511
-1.44404 -0.000202996 3.14661
-1.45303 0.0282936 4.21572
-1.46498 0.201298 -3.03863
-1.46509 0.270155 -1.97012
-1.53858 0.242578 -0.627186
-1.51603 0.232699 0.717143
-1.41045 0.295175 2.06037
-1.41274 0.337063 3.13166
-1.43787 0.366111 4.20128
-1.42196 0.751528 -3.03879
-1.39028 0.819125 -1.96963
-1.46922 0.94606 -0.637304
-1.41713 0.972685 0.693921
-1.2924 0.955292 2.02654
-1.34876 0.994816 3.09847
-1.4101 1.03515 4.1706
-1.40936 1.71972 -3.05072
-1.3999 1.80555 -1.98389
-1.42058 1.9434 -0.656606
-1.421 2.02342 0.667325
-1.39868 2.03738 1.99477
-1.40272 2.04857 3.06194
-1.42554 2.07301 4.13237
-0.745961 -0.0929913 -3.03737
-0.726125 -0.0503045 -1.96762
-0.77783 -0.12321 -0.620003
-0.795808 -0.125339 0.730853
-0.752055 -0.0234473 2.07854
-0.745504 0.0140435 3.14894
-0.755175 0.0351144 4.21707
-0.751857 0.199215 -3.03894
-0.73413 0.351353 3.13358
-0.75069 0.372131 4.2023
-0.718894 0.718921 -3.03686
-0.685311 0.994219 3.09816
-0.735546 1.03564 4.17054
-0.694204 1.69885 -3.04882
-0.679 1.78659 -1.98179
-0.701661 1.94092 -0.655344
-0.720053 2.029 0.667173
-0.716202 2.03804 1.99369
-0.723089 2.04677 3.06086
-0.741527 2.07139 4.13158
0.708579 -0.0929895 -3.03737
0.762182 -0.0503038 -1.96762
0.806293 -0.123211 -0.620003
0.788528 -0.125341 0.730853
0.718305 -0.0234478 2.07854
0.671656 0.0140431 3.14894
0.649652 0.0351142 4.21707
0.673319 0.199217 -3.03894
0.641768 0.351353 3.13358
0.630541 0.37213 4.2023
0.642057 0.718923 -3.03686
0.586579 0.994219 3.09816
0.606172 1.03564 4.17054
0.715849 1.69885 -3.04882
0.734209 1.7866 -1.9818
0.727225 1.94093 -0.655344
0.681238 2.02901 0.667173
0.636273 2.03804 1.99369
0.623549 2.04677 3.06086
0.621039 2.07139 4.13158
1.44417 -0.0995414 -3.03637
1.49682 -0.060479 -1.96615
1.55804 -0.108481 -0.620199
1.54254 -0.117928 0.728886
1.45534 -0.0443916 2.07511
1.3945 -0.000203762 3.14661
1.36524 0.0282929 4.21572
1.40877 0.201303 -3.03863
1.45939 0.270161 -1.97012
1.54467 0.242582 -0.627186
1.5325 0.232696 0.717143
1.42392 0.295174 2.06037
1.35889 0.337062 3.13166
1.34027 0.36611 4.20128
1.36717 0.751534 -3.03879
1.38528 0.819134 -1.96963
1.47365 0.946076 -0.637304
1.42976 0.972682 0.693921
1.30141 0.95529 2.02654
1.28738 0.994815 3.09847
1.30304 1.03515 4.1706
1.42632 1.71973 -3.05072
1.44314 1.80556 -1.98389
1.4435 1.94341 -0.656607
1.3957 2.02343 0.667325
1.33705 2.03738 1.99477
1.3173 2.04857 3.06194
1.31576 2.07301 4.13237
-0.7024 0.51223 -1.99573
0 0.241241 -2.01542
-0.803874 0.213182 -1.29888
-0.704393 0.64 2.1138
-2.5034e-06 0.3276 2.0724
-0.831994 0.21329 1.39222
0 0.780132 -2.00567
-0.720898 0.881474 -1.3
-2.5034e-06 0.954743 2.03474
-0.673312 1.01835 1.36
0.702447 0.51223 -1.99578
0.803873 0.213183 -1.29888
0.70427 0.64 2.11368
0.831993 0.213287 1.39222
0.720899 0.881476 -1.3
0.67331 1.01835 1.36
-0.816338 0.214832 0.04667
-0.856987 0.577713 -0.630553
-1.28505e-07 0.210761 -0.626107
-0.858078 0.606624 0.707224
-6.09991e-07 0.21076 0.719447
-0.710231 0.963038 0.03
8.35882e-06 1.0723 -0.635
-4.14506e-06 1.33625 0.695
0.816337 0.214831 0.04667
0.856981 0.577721 -0.630553
0.858073 0.60662 0.707224
0.710292 0.963101 0.03
-0.879481 0.544971 -1.29944
-0.858881 0.592168 0.038335
-0.877171 0.623312 1.37611
-6.42526e-08 0.210633 -1.29888
-3.69248e-07 0.21076 0.04667
-1.55669e-06 0.210632 1.39222
0 0.51223 -2.18372
-2.5034e-06 0.64 2.18436
4.17941e-06 0.929795 -1.3
2.10688e-06 1.33458 0.03
-3.32423e-06 1.18437 1.36
0.879482 0.544976 -1.29944
0.858877 0.592171 0.038335
0.87717 0.62331 1.37611
-1.09504 0.277578 -1.97089
-0.725562 0.117348 -1.96964
-0.738428 0.242108 -2.5053
-1.06389 0.315088 2.06269
-0.734698 0.155776 2.07177
-0.725735 0.343177 2.59929
-1.00764 0.779292 -1.96732
-0.671947 0.72919 -2.50093
-0.652 1.26303 -1.9734
-0.923122 0.950146 2.02577
-0.619579 0.96961 2.56158
-0.635024 1.49152 2.00934
0.743591 0.117348 -1.96964
0.699159 0.242108 -2.5053
1.0922 0.277581 -1.97089
0.71782 0.155776 2.07177
0.679552 0.343177 2.59929
1.07063 0.315087 2.06269
0.633528 0.729191 -2.50093
0.679604 1.26303 -1.9734
1.00514 0.779297 -1.96732
0.57021 0.969609 2.56158
0.595057 1.49152 2.00934
0.927624 0.950145 2.02577
-1.17463 0.228004 -0.626646
-0.794257 0.0451093 -0.623055
-1.16571 0.227772 0.718295
-0.805595 0.0487532 0.72515
-1.10226 0.944028 -0.636152
-0.718483 1.44146 -0.645172
-1.05431 0.981544 0.69446
-0.705766 1.5097 0.681087
0.808489 0.0451083 -0.623055
1.17768 0.228005 -0.626647
0.801954 0.0487514 0.72515
1.17394 0.22777 0.718295
0.731273 1.44147 -0.645172
1.10449 0.944045 -0.636152
0.686355 1.5097 0.681087
1.06061 0.98154 0.69446
-1.47658 -0.0800145 -2.50126
-1.46944 0.0508762 -3.0375
-1.10993 -0.0962686 -3.03687
-1.5072 -0.0844827 -1.29318
-1.47217 0.104836 -1.96814
-1.10269 -0.0553938 -1.96689
-1.53319 -0.113204 0.0543436
-1.53687 0.0670479 -0.623693
-1.15649 -0.115846 -0.620101
-1.49634 -0.0811581 1.402
-1.52363 0.0573864 0.723015
-1.16352 -0.121633 0.72987
-1.45275 -0.0222965 2.61086
-1.43595 0.125393 2.06774
-1.10675 -0.0339187 2.07682
-1.44854 0.0140453 3.68117
-1.42839 0.16843 3.13913
-1.09477 0.00692027 3.14778
-1.44545 0.197202 4.2085
-1.1041 0.031704 4.2164
-1.46503 0.235727 -2.50437
-1.44347 0.476413 -3.03871
-1.10842 0.200257 -3.03878
-1.50184 0.256367 -1.29865
-1.42768 0.54464 -1.96987
-1.52731 0.237639 0.0449785
-1.5039 0.594319 -0.632245
-1.46324 0.263937 1.38876
-1.46658 0.602692 0.705532
-1.41159 0.316119 2.59601
-1.35142 0.625234 2.04346
-1.42531 0.351587 3.66647
-1.38075 0.665939 3.11506
-1.07344 0.344208 3.13262
-1.42399 0.70063 4.18594
-1.09428 0.369121 4.20179
-1.40612 0.785326 -2.50421
-1.41566 1.23562 -3.04475
-1.07043 0.735224 -3.03783
-1.42975 0.882592 -1.30347
-1.39509 1.31234 -1.97676
-1.44317 0.959373 0.0283085
-1.4449 1.44473 -0.646955
-1.35477 0.963989 1.36023
-1.41907 1.49805 0.680623
-1.32058 0.975054 2.56251
-1.34554 1.49634 2.01066
-1.37943 1.01498 3.63454
-1.37574 1.5217 3.08021
-1.01704 0.994518 3.09832
-1.41782 1.55408 4.15149
-1.07282 1.03539 4.17057
-1.40463 1.76263 -2.5173
-1.05178 1.70928 -3.04977
-1.41024 1.87448 -1.32025
-1.03945 1.79607 -1.98284
-1.42079 1.98341 0.00535922
-1.06112 1.94216 -0.655975
-1.40984 2.0304 1.33105
-1.07053 2.02621 0.667249
-1.4007 2.04298 2.52835
-1.05744 2.03771 1.99423
-1.41413 2.06079 3.59715
-1.0629 2.04767 3.0614
-1.08353 2.0722 4.13198
-0.736043 -0.0716479 -2.5025
-0.748909 0.0531119 -3.03816
-0.018691 -0.0929904 -3.03737
-0.751977 -0.0867574 -1.29381
0.0180285 -0.0503042 -1.96762
-0.786819 -0.124275 0.0554249
0.0142317 -0.123211 -0.620003
-0.773932 -0.0743932 1.4047
-0.00363974 -0.12534 0.730853
-0.74878 -0.00470187 2.61374
-0.0168754 -0.0234476 2.07854
-0.75034 0.0245789 3.68301
-0.739817 0.182698 3.14126
-0.0369244 0.0140433 3.14894
-0.752933 0.203623 4.20968
-0.0527618 0.0351143 4.21707
-0.735375 0.459068 -3.0379
-0.0392689 0.199216 -3.03894
-0.74241 0.361742 3.66794
-0.70972 0.672786 3.11587
-0.0461809 0.351353 3.13358
-0.743118 0.703885 4.18642
-0.0600743 0.372131 4.2023
-0.706549 1.20888 -3.04284
-0.0384186 0.718922 -3.03686
-0.710428 1.01493 3.63435
-0.7042 1.5205 3.07951
-0.0493661 0.994219 3.09816
-0.738536 1.55352 4.15106
-0.0646868 1.03564 4.17054
-0.686602 1.74272 -2.51531
0.0108222 1.69885 -3.04882
-0.69033 1.86376 -1.31857
0.0276044 1.7866 -1.98179
-0.710857 1.98496 0.00591486
0.012782 1.94093 -0.655344
-0.718128 2.03352 1.33043
-0.0194073 2.029 0.667173
-0.719646 2.04241 2.52727
-0.0399645 2.03804 1.99369
-0.732308 2.05908 3.59622
-0.0497698 2.04677 3.06086
-0.0602438 2.07139 4.13158
0.735381 -0.0716467 -2.5025
0.690949 0.0531136 -3.03816
1.07638 -0.0962654 -3.03687
0.784238 -0.0867574 -1.29381
1.1295 -0.0553914 -1.96689
0.797411 -0.124276 0.0554249
1.18216 -0.115846 -0.620101
0.753417 -0.0743943 1.4047
1.16554 -0.121634 0.72987
0.69498 -0.00470236 2.61374
1.08682 -0.0339197 2.07682
0.660654 0.0245787 3.68301
0.656712 0.182698 3.14126
1.03308 0.00691968 3.14778
0.640096 0.203622 4.20968
1.00745 0.0317036 4.2164
0.657688 0.45907 -3.0379
1.04105 0.20026 -3.03878
0.636155 0.361742 3.66794
0.614173 0.672786 3.11587
1.00033 0.344208 3.13262
0.618357 0.703885 4.18642
0.985406 0.36912 4.20179
0.678953 1.20889 -3.04284
1.00461 0.735229 -3.03783
0.596375 1.01493 3.63435
0.605064 1.5205 3.07951
0.936982 0.994517 3.09832
0.613606 1.55352 4.15106
0.954608 1.03539 4.17057
0.725029 1.74272 -2.51531
1.07108 1.70929 -3.04977
0.730717 1.86376 -1.31857
1.08868 1.79608 -1.98284
0.704231 1.98497 0.00591478
1.08536 1.94217 -0.655975
0.658756 2.03352 1.33043
1.03847 2.02622 0.667249
0.629911 2.04241 2.52727
0.986663 2.03771 1.99423
0.622294 2.05908 3.59622
0.970424 2.04767 3.0614
0.968398 2.0722 4.13198
1.47049 -0.0800102 -2.50126
1.42647 0.050881 -3.0375
1.52743 -0.08448 -1.29318
1.4781 0.104841 -1.96814
1.55029 -0.113205 0.0543435
1.55135 0.0670505 -0.623693
1.49894 -0.0811599 1.402
1.53752 0.0573837 0.723015
1.42492 -0.0222977 2.61086
1.43963 0.125391 2.06774
1.37987 0.0140446 3.68117
1.3767 0.168429 3.13913
1.35276 0.197202 4.2085
1.43408 0.235732 -2.50437
1.38797 0.476419 -3.03871
1.50203 0.256372 -1.29865
1.42233 0.544648 -1.96987
1.53858 0.237639 0.0449784
1.50916 0.594329 -0.632245
1.47821 0.263935 1.38876
1.48113 0.602689 0.705532
1.3914 0.316118 2.59601
1.36266 0.625232 2.04346
1.34958 0.351586 3.66647
1.32314 0.665939 3.11506
1.32166 0.700629 4.18594
1.37622 0.785334 -2.50421
1.39674 1.23563 -3.04475
1.42947 0.882605 -1.30347
1.41421 1.31235 -1.97676
1.45171 0.959379 0.0283084
1.45858 1.44474 -0.646955
[...]
POINT_DATA 29498
VECTORS point_vectors float
-1.94106 -2.84426 4.99673
-0.0107353 0.144542 0.364969
-2.50912 2.94432 5.23878
-0.0212893 -0.0349911 0.0536538
1.94153 -2.83312 4.9913
-0.0331185 0.173586 0.283771
2.50008 2.91828 5.20518
0.0203505 -0.0332627 0.0521105
-0.0454739 0.0617038 1.45115
0.0477844 -0.0581915 1.69306
-0.135406 -0.0732317 0.356227
0 0 0
0.0455466 0.0618969 1.45171
-0.0529542 -0.0669241 1.6783
0.136254 -0.073644 0.357581
0 0 0
-0.601963 -0.269301 19.8251
-1.25111 -0.716797 20.4374
-0.447006 -0.340858 21.227
-0.0170384 -0.0597104 21.3474
0.557554 0.322873 21.3213
0.821175 0.380748 20.9918
0.674459 0.286471 20.5324
-0.696902 -0.184703 19.7083
-1.80632 -0.540967 20.3523
-0.603048 -0.403757 21.3244
-0.0496517 -0.137659 21.4504
0.877257 0.208938 21.3825
1.1113 0.249669 20.9617
0.86977 0.152323 20.6331
-0.748364 0.10218 19.6243
-2.12058 0.359828 20.1559
-1.20191 -0.181298 21.3191
-0.266482 -0.21965 21.6697
0.859923 -0.475075 21.4674
1.20352 -0.485716 21.0813
0.753229 -0.37499 20.5299
-0.453948 0.353245 19.8967
-0.828187 0.668242 20.2672
-0.808484 0.527811 20.982
-0.297765 0.0773048 21.3769
0.146297 -0.302135 21.2824
0.336557 -0.408197 21.0649
0.367161 -0.410081 20.6643
-0.609032 -0.611293 19.2726
-1.76203 -3.34319 20.6949
-0.355299 -0.376411 21.5523
-0.0995048 -0.00661072 20.7328
0.0827032 1.20029 18.4349
0.442625 1.5253 18.0692
0.387364 0.986111 18.3075
-0.753084 -0.445586 18.9548
1.1238 1.68029 9.80253
1.79525 0.915635 13.448
-0.799307 0.186251 18.7304
1.53159 -0.573638 10.7452
1.60323 -0.664792 15.2455
-0.365499 0.619756 19.5777
-0.760489 1.46869 20.0105
-0.913079 1.40106 21.0111
-0.309996 0.325313 21.7598
0.117656 -0.445643 21.3832
0.256144 -0.723949 21.0401
0.139711 -0.44193 21.0053
0.588305 -0.628851 19.2331
1.82087 -3.18861 20.6462
0.348107 -0.367636 21.5308
0.100357 -0.00686745 20.7412
-0.0110679 1.1494 18.0765
-0.199578 1.43582 17.6473
-0.144022 1.15593 17.5689
0.703726 -0.48566 18.8713
-0.687875 1.37107 7.35479
-1.95314 1.01739 10.4677
0.73721 0.210166 18.6418
-1.38953 -0.44399 7.43648
-1.84255 -0.690787 12.56
0.371466 0.612471 19.5891
0.79555 1.40292 20.0315
0.918981 1.36142 21.0139
0.30397 0.35418 21.7741
-0.0960097 -0.445324 21.4017
-0.213051 -0.746041 20.9749
-0.119978 -0.478847 21.158
0.606927 -0.28517 19.8091
1.23012 -0.688182 20.4386
0.45194 -0.346219 21.213
0.0264068 -0.0664569 21.3382
-0.5516 0.331102 21.3252
-0.846491 0.45684 20.9585
-0.659754 0.377859 20.7612
0.721006 -0.20524 19.6655
1.82287 -0.550492 20.3521
0.601374 -0.400995 21.3219
0.0520982 -0.138392 21.4344
-0.855355 0.19546 21.3829
-1.14551 0.317416 20.9475
-0.933908 0.286985 20.8013
0.77187 0.116026 19.5827
2.13494 0.364354 20.1511
1.1943 -0.177836 21.3181
0.264325 -0.215876 21.6552
-0.845076 -0.465738 21.4732
-1.30743 -0.540925 21.0352
-0.90601 -0.437877 20.5135
0.451298 0.345906 19.9034
0.818626 0.630956 20.2786
0.797007 0.507856 20.9818
0.302155 0.0798527 21.386
-0.141639 -0.327228 21.2813
-0.331786 -0.427772 21.0437
-0.301052 -0.422795 20.7001
-1.02915 0.039584 1.02219
-0.000751683 -0.103543 0.490658
-0.0274783 0.0106032 0.341689
-0.000141303 0.00446295 0.015244
-0.00354787 -0.0660138 -0.0588175
-0.0537009 0.0253058 1.60616
-0.0425165 1.91983 1.4856
-0.308683 0.0428001 1.24736
-0.00129727 0.0174286 -0.0187607
0.0594234 0.0358244 0.299
1.02989 0.0400723 1.02325
0.0274828 0.0107996 0.341722
8.91937e-05 0.00505754 0.0143677
0.0535358 0.0260017 1.60446
0.30844 0.0433482 1.24974
-0.0596818 0.0360908 0.297973
-0.0338321 0.0651378 2.21031
1.99375e-05 -0.000134808 0.00266522
3.16617e-08 -5.13195e-08 1.32156e-05
-2.26296e-19 -8.4223e-18 -3.07677e-17
0 0 0
0 0 0
3.64889e-06 0.0175983 0.031881
1.7859e-06 -0.00117038 0.0132706
0.0338438 0.065393 2.21079
-2.02547e-05 -0.000138722 0.00274845
0 0 0
0 0 0
-2.14048e-05 -9.13874e-05 0.000970693
9.01981e-06 0.000380999 0.00251137
-4.24797e-05 0.00785929 0.0401703
-1.08058e-08 -9.18602e-08 8.04932e-06
-4.88031e-08 2.87191e-08 -2.31545e-05
1.97099e-07 -2.59737e-07 -0.000147082
0.000619189 0.162635 0.16041
-0.00188911 0.0624093 -0.0391009
3.75739e-05 0.00557303 0.0457545
-4.67094e-06 0.0174948 0.116159
-1.77264e-07 3.98624e-06 -9.81811e-06
2.20213e-05 -9.25428e-05 0.000991399
-8.79008e-06 0.000375855 0.00247485
2.93495e-05 0.00772979 0.0394389
-3.43376 -1.4929 20.0322
-2.92668 -5.41296 20.6569
-2.15905 -1.49741 17.7592
1.33583 0.956582 17.4081
-0.264013 1.33374 9.29831
0.202552 1.23779 6.04554
-4.24136 1.40325 19.6154
-2.38807 1.00386 16.9893
-1.87718 2.85337 19.6089
1.46635 -0.108114 14.8493
0.558928 -0.143567 5.19444
0.388828 -0.813342 19.5795
3.00097 -5.14397 20.5532
2.14604 -1.55533 17.581
3.47217 -1.52342 20.033
0.332037 1.26356 8.89845
0.19784 1.04714 4.72968
-1.32301 0.930441 17.5393
2.34114 1.08599 16.7632
1.90623 2.7517 19.6336
4.26645 1.42005 19.6069
-0.358478 0.00809075 3.70126
-0.39642 -0.81387 19.3178
-1.46922 -0.113192 15.0586
-0.373713 -0.663288 21.3901
-0.32705 0.0113751 17.4409
-0.0260726 -0.0705489 20.1372
0.00207027 0.0352516 15.7888
-2.01499 -0.543025 21.5201
-2.35931 2.00748 20.9511
-0.171136 -0.22623 19.5964
-0.656442 0.206354 22.0145
0.32187 0.0212907 17.7626
0.380503 -0.663352 21.4027
-0.00839748 0.0296676 15.7047
0.027543 -0.083015 20.2719
2.35054 1.9385 20.9703
2.00998 -0.548373 21.4865
0.655292 0.221415 21.9954
0.197644 -0.266951 19.8228
-0.969828 -0.503568 19.9575
-0.672907 -0.23503 19.7492
-0.652024 -0.425269 19.5771
-0.89115 -0.576322 21.0933
-1.54549 -0.670063 20.4015
-1.82501 -1.62305 20.3834
-0.210818 -0.190768 21.3073
-0.541065 -0.383237 21.2728
-0.353105 -0.428156 21.4365
0.22178 0.112702 21.4475
-0.0388242 -0.106648 21.3836
-0.0208996 -0.0538545 21.4607
0.701372 0.397825 21.1861
0.700768 0.289317 21.3936
0.653372 0.820891 21.0155
0.857263 0.314863 20.8291
0.980717 0.317514 21.0461
0.966688 0.845271 20.9467
0.775223 0.240701 20.6179
0.605077 0.684113 21.375
-1.27163 -0.36786 19.7788
-0.748064 -0.0764345 19.625
-0.760104 -0.298446 19.4064
-1.25564 -0.551248 21.2195
-2.12171 -0.145867 20.2392
-0.286748 -0.281049 21.3586
-0.888903 -0.381792 21.3469
0.318631 0.0273495 21.6089
-0.138112 -0.208795 21.6042
1.03109 0.239024 21.1713
1.02621 -0.125741 21.345
1.15108 0.146199 20.9816
1.25849 -0.204198 20.9571
1.73144 0.827504 18.6555
0.98072 -0.213084 20.4608
1.31476 0.678896 20.3932
-1.41528 0.224365 19.6159
-0.625171 0.293607 19.7349
-0.822108 0.127645 19.2702
-1.74237 0.105819 21.0696
-1.37373 0.732991 20.198
-0.761992 -0.268931 21.5533
-1.16434 0.340201 21.1446
0.293848 -0.260284 21.737
-0.356482 -0.0487078 21.5938
0.979952 -0.53123 21.3038
0.3681 -0.45235 21.386
1.14094 -0.453721 20.7295
0.633982 -0.536357 21.006
1.42279 -0.741755 19.5332
0.462132 -0.579172 20.7286
1.20336 -0.613613 20.4409
-0.654094 0.527686 20.0065
-0.456586 0.466817 19.732
-0.877379 0.652793 20.66
-0.883953 1.04804 20.1361
-0.614312 0.325254 21.2957
-0.928533 0.875131 21.0322
-0.0295352 -0.140281 21.3828
-0.3437 0.197406 21.5433
0.246204 -0.400426 21.1408
0.140939 -0.392604 21.3448
0.307327 -0.398122 20.9473
0.290494 -0.5562 20.9313
0.187825 -0.371219 20.7452
-1.30571 -1.68274 19.0023
-0.683608 -0.539552 19.1013
-0.0214158 -0.859788 18.9011
-0.676345 -1.22588 21.9322
0.0405474 -4.31629 21.4803
-0.202935 -0.117281 21.0736
0.0098693 -0.635128 21.0308
-0.00898301 0.347739 19.5764
-0.00134674 -0.176409 19.2038
0.175596 1.28332 18.4709
-0.0237153 0.364028 14.6077
0.60696 1.33054 18.3204
0.744887 1.84373 14.2398
-0.0856888 0.761533 13.6078
1.09281 0.943731 15.194
0.162532 1.3658 13.7641
-0.853877 -0.15881 18.7649
-0.070029 -0.633284 18.3943
1.5122 1.22977 11.5015
1.81149 0.396594 7.67547
-0.0937532 -0.925925 -2.64485
1.98602 0.379625 12.9058
0.252387 -0.970903 3.22163
-0.604963 0.613734 19.1394
-0.0608905 0.272055 18.1349
1.65678 -0.768017 13.0807
0.482616 -1.1748 20.578
0.189207 -0.15767 -1.12524
0.488221 -0.922081 20.1257
0.12843 -2.02136 3.95724
-0.590004 1.09523 19.6381
0.00823945 0.739663 19.4039
-0.872605 1.47144 20.5511
0.0411189 1.9436 19.8782
-0.751741 1.01435 21.6093
0.025841 2.05855 20.9371
-0.0299208 -0.185852 21.6443
-0.0181348 0.564764 21.9647
0.179948 -0.581654 21.2145
-0.00107185 -0.476861 21.4471
0.298998 -0.710337 20.9515
0.0141302 -0.86488 20.8319
0.00670258 -1.0224 20.5033
1.30249 -1.67951 19.0008
0.650205 -0.572034 19.0395
0.649237 -0.441726 19.5489
0.699805 -1.21188 21.9013
1.77129 -1.51751 20.3874
0.198408 -0.110923 21.0508
0.360688 -0.425684 21.4209
0.0156382 0.336033 19.4417
0.0205887 -0.053962 21.4579
-0.00790534 1.21735 17.4842
-0.637864 0.859745 20.9192
-0.488757 1.38485 17.6023
-0.394648 1.67851 13.135
-0.981078 1.01887 20.9604
-0.830215 1.12604 14.3922
-0.635977 0.796258 20.8046
0.783038 -0.162479 18.6572
0.768892 -0.306318 19.3362
-1.44395 1.36265 9.21988
-1.41436 0.263882 5.06214
-1.70593 1.08713 17.5409
-2.21824 0.383481 9.99992
-1.40035 0.751043 18.8672
0.587732 0.623566 19.1164
0.829402 0.135893 19.1727
-1.68153 -0.783091 10.2651
-0.503877 -1.18614 20.2636
-1.54233 -0.705493 17.6903
-0.481768 -0.962896 20.0623
-1.24276 -0.607888 19.6745
0.612705 1.06681 19.6582
0.458308 0.461837 19.7401
0.899063 1.42331 20.556
0.881041 0.989633 20.1505
0.748702 1.0243 21.6103
0.923765 0.841399 21.0324
0.0392966 -0.175851 21.6633
0.347308 0.210423 21.5487
-0.148259 -0.597222 21.2124
-0.143322 -0.402281 21.3593
-0.278676 -0.754063 20.9205
-0.293388 -0.593971 20.9466
-0.158821 -0.377458 20.726
0.969845 -0.510995 19.9581
0.682793 -0.248546 19.7275
0.893372 -0.55406 21.0731
1.53348 -0.663557 20.4082
0.208843 -0.198133 21.3074
0.540263 -0.379818 21.2578
-0.217133 0.106751 21.44
0.0456471 -0.11031 21.3645
-0.708401 0.430881 21.1853
-0.693458 0.280729 21.3914
-0.900604 0.410539 20.7588
-1.01631 0.383875 21.0439
-0.760394 0.334869 20.8653
1.30776 -0.393432 19.7391
0.775244 -0.0765623 19.5845
1.25676 -0.553255 21.2212
2.14504 -0.149214 20.2349
0.287634 -0.282867 21.3585
0.887444 -0.377917 21.3477
-0.311911 0.0233832 21.5981
0.137734 -0.204287 21.5895
-1.04622 0.258498 21.1638
-0.994386 -0.122886 21.3571
-1.28118 0.212273 20.5631
-1.33794 -0.18812 20.9643
-1.12716 -0.226925 20.4688
1.44842 0.239508 19.5771
0.628173 0.301745 19.7252
1.74366 0.104838 21.0692
1.35342 0.707019 20.208
0.751599 -0.263759 21.5461
1.14664 0.328914 21.1385
-0.289766 -0.256437 21.7255
0.356992 -0.0481058 21.5984
-1.00513 -0.543832 21.2553
-0.36833 -0.46531 21.3889
-1.23573 -0.503099 20.6713
-0.659233 -0.592912 21.0047
-0.493372 -0.636082 20.6273
0.646501 0.505826 20.0175
0.860925 0.621351 20.6635
0.617087 0.324762 21.2967
0.032649 -0.143228 21.4089
-0.244377 -0.400725 21.1691
-0.314196 -0.44098 20.9539
-1.16912 -0.451643 19.8509
-1.7169 -1.77067 18.4052
-1.23999 -0.935589 19.5847
-1.75627 -0.725924 19.1252
-0.722664 -0.388554 19.484
-2.53308 -1.73696 20.2658
-1.07584 -0.585602 21.1524
-0.51395 -0.751901 18.6692
-0.942704 -1.01593 21.4946
-1.57208 -1.20201 22.0269
-0.331737 -0.512095 21.5249
-0.251566 -0.248621 21.3314
-0.126774 0.107911 16.3857
-0.138604 -0.206812 21.4137
-0.0792802 -0.351037 20.6257
0.00856921 -0.0800304 21.1351
0.263504 0.0797036 21.5258
-0.0887201 0.281077 13.2527
0.235277 0.281116 21.5051
0.345791 0.390652 19.4603
0.995539 0.98849 19.6986
0.904648 0.368673 21.1391
0.0845817 1.4366 12.0164
0.785486 0.863469 20.9207
1.45107 0.905835 18.3283
1.30115 0.915072 19.954
1.04483 0.230771 20.7825
1.0961 1.31422 14.2147
0.998476 0.959923 20.6956
1.65021 0.70299 18.5484
0.899722 0.642006 20.6684
-1.40486 -0.105396 19.654
-2.56492 -0.389775 16.9267
-2.01519 0.475104 18.7807
-0.861888 -0.097283 19.264
-4.57903 -0.288896 19.6803
-1.59487 -0.284699 21.2049
-2.86326 0.283243 21.6274
-0.862367 -0.921851 20.9
-0.480429 -0.343501 21.4889
-1.17532 -0.750042 20.8191
-0.00729063 0.0696003 18.1935
0.353213 -0.107706 21.6776
0.829914 0.326497 17.5969
1.51258 0.461341 14.0802
1.18729 -0.145509 21.1734
0.661645 0.568104 3.54691
1.4268 -0.454655 17.559
1.92141 0.165666 18.0541
1.15899 -0.201715 21.1216
2.16994 0.289246 10.5886
1.54948 -0.676755 20.5303
1.48979 0.146914 20.1253
-1.02369 0.548128 19.8055
-1.21911 1.56293 18.8037
-0.687506 0.794182 19.8284
-0.650561 0.420476 19.4745
-1.80148 1.48445 19.9383
-1.35691 0.581406 20.7752
-1.88171 2.12286 20.658
-0.967623 1.0203 20.6195
-1.73872 0.77407 21.1947
-0.84004 0.136063 21.4623
-2.15271 1.30408 22.3403
-0.728433 0.581697 21.4429
-0.524695 0.0227105 21.9196
0.0757993 -0.250152 21.5649
0.146881 -0.495284 20.9969
-0.0494898 -0.166936 21.5326
0.369436 -0.690554 21.4317
0.510005 -0.532777 21.2027
0.442764 -0.966138 20.1357
0.225832 -0.513508 21.1815
0.573541 -0.813015 21.4189
0.582038 -0.492807 20.8352
0.494062 -1.14243 20.3534
0.346593 -0.556266 21.0332
0.512828 -0.774447 20.2978
1.71887 -1.8256 18.3397
-0.00197683 -2.72523 18.2914
-0.079115 -2.90179 15.6538
-0.0578128 -0.788417 18.6314
0.0238741 -5.75757 22.2656
0.53787 -0.75811 18.8175
0.020546 -1.45244 21.8141
0.00269992 -0.213205 13.0627
0.12797 0.113213 16.5062
0.00162941 -0.340886 19.9669
-0.000562871 -0.0366495 11.2787
0.0857589 0.26264 12.921
-0.00324112 0.0781527 16.8987
-0.0558331 0.149775 4.35297
0.155073 1.33965 10.9555
-0.0879458 0.195345 14.1593
-0.0772688 -1.08899 -3.55959
-0.106746 -0.0822203 3.98284
-0.966354 1.37375 13.4111
-0.0480566 0.999751 12.9395
-0.0814076 -0.664479 -0.414916
0.222919 0.585631 9.54505
2.58173 -0.391164 16.6721
-0.0930654 1.93002 14.8202
-0.0592054 -0.210709 18.095
-0.396749 0.61886 2.31228
-0.00635902 0.201272 -1.20114
0.315304 -1.07255 -4.33534
-1.93523 0.470541 8.06716
0.321244 -1.10436 1.56248
0.257898 -2.05849 0.314388
1.21834 1.5628 18.8018
0.0233863 1.41298 19.4332
-0.0187801 0.806711 18.7969
0.0480464 4.02864 19.3492
1.89981 2.06432 20.6757
0.0310044 1.99695 20.4344
0.0285638 4.03443 20.1863
2.15937 1.32349 22.3476
-0.00639174 1.70163 21.7873
-0.0132842 0.58142 21.267
-0.174964 -0.497097 20.7569
-0.00797313 -0.154653 21.7768
0.01284 -0.640736 14.8388
-0.438262 -0.955949 19.757
0.00533844 -0.6538 21.2442
0.054194 -1.11543 17.977
-0.445312 -1.24154 20.0967
0.0257511 -0.592056 21.002
0.0382684 -0.638281 17.8881
1.18354 -0.465994 19.8383
1.24379 -0.946481 19.5701
1.81699 -0.769996 19.0354
0.722762 -0.409012 19.4344
2.48186 -1.69315 20.2696
1.07611 -0.576509 21.1407
0.953942 -0.981404 21.4538
1.57391 -1.20207 22.0264
0.350442 -0.510705 21.5157
0.250587 -0.248668 21.3332
0.139878 -0.208012 21.4069
0.0867804 -0.359821 20.7101
-0.00537678 -0.0843661 21.1591
-0.256845 0.0738758 21.516
-0.23049 0.287714 21.4915
-0.357306 0.369263 19.6678
-0.983825 1.00716 19.6094
-0.922451 0.387393 21.1338
-0.77133 0.940646 20.8612
-1.43367 1.01438 17.3253
-1.28064 1.14882 18.9345
-1.16045 0.265878 20.4866
-0.931096 1.16073 20.8002
-1.59716 0.874946 17.7036
-0.985377 0.704014 19.2508
1.45867 -0.109624 19.6083
2.09623 0.517104 18.6355
0.870824 -0.108944 19.1835
4.62458 -0.290629 19.681
1.59805 -0.286151 21.2085
2.86329 0.282473 21.6286
0.869786 -0.917162 20.9415
0.478801 -0.336411 21.4824
1.17417 -0.733115 20.8679
0.014036 0.0392749 18.4314
-0.346406 -0.10841 21.6843
-0.808758 0.262071 17.9133
-1.51073 0.467118 14.3983
-1.20587 -0.14593 21.1408
-1.45084 -0.394711 16.6116
-2.16173 0.224752 16.5101
-1.27686 -0.17647 20.6743
-1.60838 -0.691115 18.8242
-1.57968 0.226079 18.5403
1.0231 0.54878 19.8066
0.691278 0.767242 19.8444
0.650573 0.431753 19.4511
1.79005 1.42633 19.9508
1.33461 0.563353 20.7731
0.960234 0.979226 20.6258
1.70693 0.748503 21.1952
0.836466 0.134719 21.4592
0.730992 0.585482 21.4451
0.532164 0.0291841 21.9348
-0.0765742 -0.253389 21.5733
0.0514432 -0.165406 21.5542
-0.361637 -0.713531 21.4062
-0.511276 -0.562099 21.2014
-0.224417 -0.528534 21.1992
-0.563276 -0.906026 21.2051
-0.606094 -0.579199 20.9205
-0.352391 -0.61404 21.0096
-0.490362 -0.84345 20.2276
-1.50972 -0.909148 19.3833
-1.18071 -1.14247 21.7115
-0.0788789 -0.250493 21.2713
0.317789 0.328724 20.9013
1.14761 1.02156 19.6771
1.31041 0.845093 19.7718
-2.02727 -0.188663 18.8258
-2.35301 -0.673477 22.1217
-0.303935 -0.585218 19.1525
0.498019 0.599793 16.7824
1.69636 0.282494 16.2615
1.76936 0.155868 18.2896
-1.21615 0.910475 19.4183
-1.79704 1.14733 20.7981
-1.32721 0.402416 21.7677
0.0684072 -0.354513 21.7941
0.512443 -0.777931 21.2872
0.652545 -0.817457 21.0733
-0.0345877 -3.13899 17.1313
0.00142407 -0.664244 14.1593
-0.000434142 -0.0853141 11.7983
-0.00347509 0.0538042 8.90383
-0.169168 -0.369529 3.46135
-0.0776799 0.241625 6.11131
-0.0904881 -0.521332 14.3362
0.040825 -0.621113 -3.57632
0.485844 -1.21656 -2.04911
-0.00144785 2.28903 18.1791
0.031509 3.22974 20.374
-0.00659732 3.54718 22.5646
-0.00868503 -0.477539 17.6944
0.0277391 -0.816736 16.135
0.0489777 -1.45376 17.4813
1.52368 -0.932256 19.3368
1.18884 -1.11762 21.6787
0.0875037 -0.258549 21.3049
-0.315656 0.327323 20.8833
-1.09513 1.11537 19.1949
-1.26413 1.01784 19.2519
2.13967 -0.196786 18.6831
2.35701 -0.676918 22.126
0.315928 -0.59254 19.3085
-0.499749 0.562309 17.0472
-1.68777 0.36336 15.0332
-1.89671 0.180687 16.7274
1.21579 0.91038 19.415
1.77647 1.11169 20.7965
1.32533 0.402882 21.7653
-0.0676016 -0.365851 21.7993
-0.488432 -0.827664 21.2466
-0.619377 -0.918692 20.9165
-0.824143 -0.170069 0.937043
8.7227e-06 -0.195826 0.745251
-0.0274997 -0.179855 0.731412
0.0118714 0.0901068 0.0942205
-0.0730953 -0.00516408 0.0075797
0.0958584 0.355122 1.39132
-0.135909 0.0650859 0.150683
-0.216183 1.10419 1.06358
-0.204905 0.0897491 0.803199
-0.0240272 -0.0021032 -0.0130451
-0.00713712 0.00709227 -0.00959461
0.00416404 -0.0314857 0.179567
-0.000931781 -0.19665 0.743459
0.763147 -0.156076 0.854887
0.0269126 -0.179075 0.727672
0.0806515 -0.0020981 0.0161634
-0.0105926 0.0931756 0.0936184
-0.0920496 0.357772 1.4042
0.204383 1.20174 1.04033
0.151827 0.0721512 0.167986
0.203962 0.0914657 0.805933
0.00680459 0.00801027 -0.0105552
0.0237887 -0.00131029 -0.0131563
-0.00459534 -0.0306605 0.177171
-0.0291406 0.0120825 0.469167
-0.00852807 0.0422851 1.50705
0.000131048 0.00153386 0.0274255
0 0 0
-0.120006 0.1933 1.56871
-0.0338755 0.055172 1.89539
0 0 0
0 0 0
-0.200831 -0.0643666 0.580212
-0.00281304 -0.00568563 0.051513
0 0 0
-0.0587196 0.0399571 0.0909434
0 0 0
0.00128082 0.00310369 0.00925221
0 0 0
0.0673084 -0.00401612 0.249714
0.029257 0.0122224 0.46939
0 0 0
0.00861587 0.0425675 1.50713
-0.000129634 0.00155038 0.027596
0.119903 0.192296 1.56382
0 0 0
0.0336608 0.0551783 1.89539
0 0 0
0.201306 -0.0643397 0.581356
0.0600423 0.0404611 0.0920546
0.00280245 -0.00568668 0.051499
0 0 0
0 0 0
-0.0674735 -0.00395349 0.249579
-0.001392 0.00338053 0.0100287
0 0 0
0 0 0
-0.749078 0.521431 0.443557
-3.10621e-06 -0.00178727 0.0374452
1.20218e-05 -0.273391 0.0924995
-3.88357e-05 -8.88516e-05 0.00245849
7.24436e-07 5.01158e-07 -5.12203e-05
0.0606941 0.0230792 0.32158
-0.0443579 0.0284647 -0.00930384
-4.39211e-05 0.00155614 0.016239
-0.000218354 -0.00310178 -0.00173299
0 0 0
1.83432e-06 -3.93449e-07 -0.000153198
0 0 0
2.52886e-05 0.0131973 0.0621998
-0.0482727 -0.0896788 0.593089
-0.00425536 0.00352625 0.0273604
-6.02103e-20 1.87147e-18 -8.10824e-19
0 0 0
0.0134029 0.0155622 0.12448
6.01594e-05 -0.000145585 0.000575298
0.713408 0.504883 0.425334
0 0 0
-6.09563e-07 4.2247e-07 -4.31992e-05
4.20022e-05 -9.68576e-05 0.00269012
0.0456408 0.0304072 -0.0102573
-0.061183 0.0238133 0.323193
-1.74344e-06 -3.95215e-07 -0.000154588
0 0 0
0.00436223 0.00356247 0.027666
0.048294 -0.0898521 0.592789
-4.15138e-05 -9.77513e-05 0.000383492
-0.0137489 0.0159535 0.126781
-0.000923005 0.00556067 0.0560625
1.08841e-18 8.04229e-21 4.15451e-17
-0.0352686 -0.0296538 0.569482
3.03586e-06 0.000137736 0.00182526
6.4124e-07 -2.48972e-06 0.000279931
-6.09183e-08 4.04471e-08 -3.99022e-05
3.22541e-06 0.000128737 0.00066181
-0.00572163 0.0139489 0.147965
-1.69552e-08 8.40197e-09 -7.85293e-06
2.36478e-07 -5.86792e-07 -0.000448466
0.0022936 0.006976 0.0362662
-0.163976 0.169045 1.29224
2.30943e-05 0.000415354 0.0043315
-7.15013e-06 0.0281672 0.0692556
-6.79657e-06 0.000913486 0.039437
-2.07217e-06 -0.000216692 0.00103683
0 0 0
0.000925671 0.00557504 0.0560568
0.0352954 -0.0293991 0.571259
-2.96949e-06 0.000138209 0.00183264
-3.1671e-06 0.000126648 0.000647742
0.00569225 0.0156647 0.166449
0.163886 0.16939 1.29378