# vtk DataFile Version 2.0
tri_press
ASCII
DATASET UNSTRUCTURED_GRID
POINTS 3682 float
-0.725 0.285 -1.97166
-0.717341 0.335 2.065
-0.625 0.73946 -1.965
-0.553846 0.945 2.025
0.725 0.285 -1.97166
0.717336 0.335 2.065
0.625 0.73946 -1.965
0.553841 0.945 2.025
-0.810685 0.213429 -0.626107
-0.815382 0.222846 0.719447
-0.735305 0.941996 -0.635
-0.69148 0.990402 0.695
0.810684 0.213428 -0.626107
0.81538 0.222844 0.719447
0.735322 0.942015 -0.635
0.691471 0.990397 0.695
-1.4739 -0.0995459 -3.03637
-1.47925 -0.060483 -1.96615
-1.53515 -0.108482 -0.620199
-1.53123 -0.117926 0.728886
-1.46145 -0.0443901 2.07511
-1.44404 -0.000202996 3.14661
-1.45303 0.0282936 4.21572
-1.46498 0.201298 -3.03863
-1.46509 0.270155 -1.97012
-1.53858 0.242578 -0.627186
-1.51603 0.232699 0.717143
-1.41045 0.295175 2.06037
-1.41274 0.337063 3.13166
-1.43787 0.366111 4.20128
-1.42196 0.751528 -3.03879
-1.39028 0.819125 -1.96963
-1.46922 0.94606 -0.637304
-1.41713 0.972685 0.693921
-1.2924 0.955292 2.02654
-1.34876 0.994816 3.09847
-1.4101 1.03515 4.1706
-1.40936 1.71972 -3.05072
-1.3999 1.80555 -1.98389
-1.42058 1.9434 -0.656606
-1.421 2.02342 0.667325
-1.39868 2.03738 1.99477
-1.40272 2.04857 3.06194
-1.42554 2.07301 4.13237
-0.745961 -0.0929913 -3.03737
-0.726125 -0.0503045 -1.96762
-0.77783 -0.12321 -0.620003
-0.795808 -0.125339 0.730853
-0.752055 -0.0234473 2.07854
-0.745504 0.0140435 3.14894
-0.755175 0.0351144 4.21707
-0.751857 0.199215 -3.03894
-0.73413 0.351353 3.13358
-0.75069 0.372131 4.2023
-0.718894 0.718921 -3.03686
-0.685311 0.994219 3.09816
-0.735546 1.03564 4.17054
-0.694204 1.69885 -3.04882
-0.679 1.78659 -1.98179
-0.701661 1.94092 -0.655344
-0.720053 2.029 0.667173
-0.716202 2.03804 1.99369
-0.723089 2.04677 3.06086
-0.741527 2.07139 4.13158
0.708579 -0.0929895 -3.03737
0.762182 -0.0503038 -1.96762
0.806293 -0.123211 -0.620003
0.788528 -0.125341 0.730853
0.718305 -0.0234478 2.07854
0.671656 0.0140431 3.14894
0.649652 0.0351142 4.21707
0.673319 0.199217 -3.03894
0.641768 0.351353 3.13358
0.630541 0.37213 4.2023
0.642057 0.718923 -3.03686
0.586579 0.994219 3.09816
0.606172 1.03564 4.17054
0.715849 1.69885 -3.04882
0.734209 1.7866 -1.9818
0.727225 1.94093 -0.655344
0.681238 2.02901 0.667173
0.636273 2.03804 1.99369
0.623549 2.04677 3.06086
0.621039 2.07139 4.13158
1.44417 -0.0995414 -3.03637
1.49682 -0.060479 -1.96615
1.55804 -0.108481 -0.620199
1.54254 -0.117928 0.728886
1.45534 -0.0443916 2.07511
1.3945 -0.000203762 3.14661
1.36524 0.0282929 4.21572
1.40877 0.201303 -3.03863
1.45939 0.270161 -1.97012
1.54467 0.242582 -0.627186
1.5325 0.232696 0.717143
1.42392 0.295174 2.06037
1.35889 0.337062 3.13166
1.34027 0.36611 4.20128
1.36717 0.751534 -3.03879
1.38528 0.819134 -1.96963
1.47365 0.946076 -0.637304
1.42976 0.972682 0.693921
1.30141 0.95529 2.02654
1.28738 0.994815 3.09847
1.30304 1.03515 4.1706
1.42632 1.71973 -3.05072
1.44314 1.80556 -1.98389
1.4435 1.94341 -0.656607
1.3957 2.02343 0.667325
1.33705 2.03738 1.99477
1.3173 2.04857 3.06194
1.31576 2.07301 4.13237
-0.7024 0.51223 -1.99573
0 0.241241 -2.01542
-0.803874 0.213182 -1.29888
-0.704393 0.64 2.1138
-2.5034e-06 0.3276 2.0724
-0.831994 0.21329 1.39222
0 0.780132 -2.00567
-0.720898 0.881474 -1.3
-2.5034e-06 0.954743 2.03474
-0.673312 1.01835 1.36
0.702447 0.51223 -1.99578
0.803873 0.213183 -1.29888
0.70427 0.64 2.11368
0.831993 0.213287 1.39222
0.720899 0.881476 -1.3
0.67331 1.01835 1.36
-0.816338 0.214832 0.04667
-0.856987 0.577713 -0.630553
-1.28505e-07 0.210761 -0.626107
-0.858078 0.606624 0.707224
-6.09991e-07 0.21076 0.719447
-0.710231 0.963038 0.03
8.35882e-06 1.0723 -0.635
-4.14506e-06 1.33625 0.695
0.816337 0.214831 0.04667
0.856981 0.577721 -0.630553
0.858073 0.60662 0.707224
0.710292 0.963101 0.03
-0.879481 0.544971 -1.29944
0.879482 0.544976 -1.29944
-6.42526e-08 0.210633 -1.29888
4.17941e-06 0.929795 -1.3
0 0.51223 -2.18372
-0.858881 0.592168 0.038335
0.858877 0.592171 0.038335
-3.69248e-07 0.21076 0.04667
2.10688e-06 1.33458 0.03
-0.877171 0.623312 1.37611
0.87717 0.62331 1.37611
-1.55669e-06 0.210632 1.39222
-3.32423e-06 1.18437 1.36
-2.5034e-06 0.64 2.18436
-0.717283 0.398615 -1.98728
-0.3625 0.241311 -2.01535
-0.800188 0.21334 -1.63527
-0.731514 0.4875 2.11005
-0.358672 0.327588 2.07241
-0.808282 0.24053 1.72861
-0.657463 0.625845 -1.97413
-0.3125 0.768425 -1.99396
-0.688018 0.825536 -1.6325
-0.610261 0.7925 2.05054
-0.276924 0.953574 2.03357
-0.634576 1.00267 1.6925
0.3625 0.241304 -2.01536
0.717596 0.398615 -1.98759
0.800188 0.21334 -1.63527
0.358667 0.327612 2.07239
0.731545 0.4875 2.11008
0.808278 0.24053 1.72861
0.3125 0.768415 -1.99395
0.657508 0.625845 -1.97417
0.688021 0.82554 -1.6325
0.276919 0.953584 2.03358
0.610254 0.7925 2.05054
0.634544 1.00265 1.6925
-0.807448 0.213137 -0.962495
-0.812681 0.214961 -0.289718
-0.847824 0.388576 -0.62833
-0.405308 0.212163 -0.626107
-0.828482 0.213274 1.05584
-0.814386 0.220313 0.383058
-0.850098 0.408051 0.713335
-0.410006 0.212172 0.719447
-0.734548 0.918182 -0.9675
-0.823898 0.77373 -0.632777
-0.72275 0.952499 -0.3025
-0.393579 1.05901 -0.635
-0.685721 1.0077 1.0275
-0.816167 0.819207 0.701112
-0.699231 0.975096 0.3625
-0.427883 1.32761 0.695
0.807447 0.213137 -0.962495
0.405308 0.212163 -0.626107
0.812679 0.214961 -0.289718
0.847821 0.38858 -0.62833
0.828479 0.213273 1.05584
0.410005 0.212172 0.719447
0.814385 0.220311 0.383058
0.850092 0.408049 0.713335
0.734544 0.918179 -0.9675
0.393594 1.05901 -0.635
0.82389 0.773737 -0.632777
0.722792 0.952543 -0.3025
0.685709 1.00769 1.0275
0.427876 1.32761 0.695
0.816176 0.819211 0.701112
0.699244 0.975112 0.3625
-0.85364 0.528601 -1.64759
-0.3512 0.51223 -2.16159
-3.21263e-08 0.21076 -1.65715
0 0.376736 -2.18
-0.880271 0.379077 -1.29916
-0.401937 0.210639 -1.29888
-0.846324 0.631656 1.74496
-0.352198 0.64 2.18485
-2.03004e-06 0.219828 1.73231
-2.5034e-06 0.4838 2.15408
-0.880021 0.418301 1.38417
-0.415998 0.210632 1.39222
2.0897e-06 0.87585 -1.65284
0 0.646181 -2.05534
-0.862715 0.713223 -1.29972
-0.360447 0.922557 -1.3
-2.91381e-06 1.08516 1.69737
-2.5034e-06 0.797372 2.08257
-0.817796 0.820831 1.36806
-0.336658 1.1804 1.36
0.853699 0.528603 -1.64761
0.351224 0.51223 -2.16119
0.880271 0.379079 -1.29916
0.401936 0.210638 -1.29888
0.846319 0.631655 1.7449
0.352134 0.64 2.18491
0.880021 0.418299 1.38417
0.415996 0.210632 1.39222
0.862707 0.713226 -1.29972
0.360452 0.922559 -1.3
0.817818 0.820831 1.36806
0.336653 1.1804 1.36
-0.849296 0.397657 0.0425025
-0.408482 0.21217 0.04667
-0.895076 0.561342 -0.964998
-0.858159 0.58494 -0.296109
-9.63789e-08 0.210599 -0.962495
-2.48877e-07 0.210761 -0.289718
-0.859609 0.599396 0.372779
-0.881492 0.614968 1.04167
-4.89619e-07 0.21076 0.383058
-1.08334e-06 0.210631 1.05584
-0.822221 0.796436 0.0341675
-0.44295 1.32448 0.03
6.26911e-06 0.950893 -0.9675
5.23285e-06 1.23991 -0.3025
-1.01909e-06 1.35527 0.3625
-3.73464e-06 1.27098 1.0275
0.849292 0.397658 0.0425025
0.408481 0.21217 0.04667
0.895076 0.561348 -0.964998
0.858154 0.584946 -0.296109
0.859606 0.599396 0.372779
0.881446 0.614965 1.04167
0.822169 0.796428 0.0341675
0.442954 1.32446 0.03
-0.857841 0.388846 -1.64143
-0.896812 0.387324 -0.963746
-0.837747 0.736538 -0.966249
-0.82757 0.669534 -1.64004
0.857795 0.388847 -1.64144
0.827568 0.669535 -1.64005
0.837724 0.736547 -0.966249
0.896814 0.387327 -0.963746
-0.382219 0.210751 -1.64621
0.382218 0.21075 -1.64621
0.403639 0.210604 -0.962495
-0.40364 0.210604 -0.962495
-0.336474 0.866914 -1.64267
-0.364048 0.94841 -0.9675
0.364058 0.94841 -0.9675
0.336476 0.866926 -1.64267
-0.35685 0.387675 -2.1633
-0.33185 0.636013 -2.04428
0.331862 0.636013 -2.03202
0.356862 0.387675 -2.16334
-0.848564 0.393115 -0.292914
-0.850082 0.402661 0.377919
-0.819498 0.807973 0.36764
-0.822895 0.785001 -0.299305
0.848563 0.393116 -0.292914
0.822867 0.785002 -0.299305
0.819475 0.807971 0.36764
0.850077 0.402661 0.377919
-0.406895 0.212167 -0.289718
0.406894 0.212166 -0.289718
0.409243 0.212171 0.383058
-0.409244 0.212171 0.383058
-0.435171 1.22556 -0.3025
-0.444849 1.34491 0.3625
0.444855 1.34491 0.3625
0.435177 1.22554 -0.3025
-0.880029 0.416518 1.04875
-0.844563 0.4529 1.73678
-0.786611 0.806666 1.71873
-0.82354 0.809672 1.03458
0.880034 0.416515 1.04875
0.823513 0.80967 1.03458
0.7866 0.806666 1.7187
0.844564 0.452899 1.73675
-0.411845 0.210633 1.05584
0.411843 0.210633 1.05584
0.387331 0.219617 1.73046
-0.387335 0.219616 1.73046
-0.3412 1.26599 1.0275
-0.306791 1.08406 1.69494
0.306786 1.08406 1.69494
0.341193 1.26599 1.0275
-0.355435 0.48565 2.15454
0.3554 0.48565 2.15454
0.314527 0.794936 2.08375
-0.314561 0.794936 2.08375
-0.722644 0.341807 -1.98097
-0.54375 0.247915 -2.00874
-0.771554 0.24021 -1.80347
-0.727681 0.41125 2.09078
-0.538006 0.327892 2.07211
-0.769934 0.280643 1.89681
-0.63986 0.682652 -1.96819
-0.46875 0.755116 -1.98066
-0.664498 0.790487 -1.79875
-0.590536 0.86875 2.04625
-0.415385 0.953734 2.03373
-0.60566 0.985285 1.85875
0.54375 0.247701 -2.00896
0.72268 0.341807 -1.98101
0.771703 0.240061 -1.80347
0.538001 0.327929 2.07207
0.727646 0.41125 2.09075
0.76993 0.280642 1.89681
0.46875 0.755117 -1.98066
0.640285 0.682652 -1.96862
0.664209 0.790198 -1.79875
0.41538 0.953712 2.03371
0.59018 0.86875 2.0459
0.605643 0.985273 1.85875
-0.808931 0.213419 -0.794301
-0.812451 0.213427 -0.457913
-0.831258 0.300001 -0.627218
-0.607999 0.212791 -0.626107
-0.826731 0.21326 0.887641
-0.819198 0.217265 0.551253
-0.834829 0.314404 0.716391
-0.615045 0.212807 0.719447
-0.736615 0.931778 -0.80125
-0.788398 0.862262 -0.633888
-0.728848 0.947069 -0.46875
-0.576181 1.02398 -0.635
-0.691456 1.00191 0.86125
-0.774754 0.91527 0.698056
-0.694308 0.981701 0.52875
-0.579766 1.19917 0.695
0.80893 0.213418 -0.794301
0.607998 0.212791 -0.626107
0.81245 0.213426 -0.457913
0.831255 0.300003 -0.627218
0.826729 0.213259 0.887641
0.615043 0.212807 0.719447
0.819196 0.217264 0.551253
0.83483 0.3144 0.716391
0.736618 0.931781 -0.80125
0.57619 1.02398 -0.635
0.788403 0.862274 -0.633888
0.728844 0.947066 -0.46875
0.691279 1.00173 0.86125
0.579762 1.19918 0.695
[...]
POINT_DATA 3682
SCALARS point_scalars float 1
LOOKUP_TABLE default
-44.4856
-36.4596
-28.8864
-35.6201
-44.8348
-36.1148
-29.2471
-35.5038
-34.0843
-25.5875
-51.1851
-50.804
-34.0703
-25.2908
-51.1465
-50.7628
-7.35981
-49.575
-33.9616
-31.0177
-44.2334
-36.1618
-34.1938
0.718897
-54.3567
-34.4761
-27.5507
-42.6019
-34.327
-34.327
78.8341
-62.2373
-41.4975
-40.7798
-43.3454
-34.9155
-32.8551
-44.2911
-48.2619
-75.1771
-63.9984
-39.7065
-35.738
-35.738
75.8335
-96.1073
-34.4177
-28.7466
-39.5777
-32.1893
-31.5853
136.941
-31.9643
-32.1047
167.569
-32.4628
-32.3421
-1.17286
-45.5649
-48.653
-68.6649
-38.5441
-34.5757
-33.73
72.2377
-87.8841
-33.9928
-29.2348
-38.8037
-31.7765
-31.3922
131.984
-31.6597
-31.4864
167.593
-32.2271
-31.9311
9.96447
-45.7812
-48.5446
-68.6501
-38.2352
-33.6244
-33.264
-12.3575
-48.4681
-33.9499
-33.4342
-44.0403
-35.7753
-32.7514
30.5891
-54.1639
-34.4742
-28.2347
-42.4337
-34.1357
-32.3406
78.7929
-61.2845
-41.4547
-40.8
-43.3639
-34.7357
-32.7455
-44.9168
-47.9622
-74.9062
-63.963
-39.641
-35.613
-35.613
16.4864
-117.657
-53.1835
-34.5152
-27.3689
-39.8803
-77.2861
-44.3054
-32.6803
-46.9735
16.1577
-53.1688
-34.3646
-39.833
-44.2965
-46.941
-31.3796
-37.4866
-37.4606
-35.491
-33.1033
-54.802
18.1575
-70.4045
-31.3597
-37.4809
-35.4819
-54.7671
-60.5722
-60.6316
-53.4554
-25.4757
192.102
-36.9425
-36.9335
-32.4553
-93.9217
-45.0155
-44.9424
-37.2784
-43.6938
-26.605
-4.59092
-113.504
-75.3649
-34.9606
-31.1918
-48.4862
27.8997
-61.7825
-43.9501
-34.4836
-32.8049
-41.8538
-112.879
-4.5533
-75.3997
-30.9967
-34.7575
-48.2097
-63.7254
27.7041
-43.9906
-32.7022
-34.34
-41.7538
-44.1947
-31.8025
-34.824
-36.9043
-38.663
-30.3237
-28.9829
-32.5485
-35.2895
-42.3593
-56.6051
10.5735
-51.08
-42.7753
-51.8307
-66.5533
-44.185
-36.897
-31.7878
-34.8127
-38.6278
-32.5407
-30.2818
-28.9828
-35.25
10.5561
-42.3414
-56.5296
-51.0428
-66.5349
-42.8135
-51.8067
-55.1348
181.115
-74.1227
162.727
-59.2985
-52.9621
-46.8596
-30.9495
-39.095
-22.7734
-42.0192
-38.21
-43.2031
170.032
-61.7464
-28.6657
-36.8541
-29.8412
-47.4093
-44.362
-54.6222
180.873
-59.3126
-52.9518
-46.7282
-30.7184
-41.929
-38.1485
-61.7748
-28.718
-47.3509
-44.3584
-33.5073
-32.0252
-50.313
-37.0513
-43.433
-34.0455
-36.3603
-43.064
-32.22
-34.9761
-43.7263
-83.5131
-1.77663
-33.0127
-83.5474
-54.1579
-33.4921
-32.0158
-50.3574
-37.041
-36.3524
-42.9821
-43.7131
-83.5031
-50.1288
-51.1635
-47.6702
-57.2516
-49.9705
-56.7866
-47.7463
-51.1789
-72.6312
-72.6171
-42.8215
-42.8289
-42.3617
-7.83391
-7.90039
-42.5815
167.129
154.38
151.493
167.211
-33.5934
-32.7135
-43.3761
-44.1289
-33.5822
-44.0958
-43.4614
-32.6806
-33.472
-33.4643
-31.7346
-31.746
-39.8976
-73.7557
-73.736
-39.9105
-45.2493
-46.0074
-46.768
-44.254
-45.2374
-44.2323
-46.6548
-45.833
-35.3025
-35.2806
-41.4858
-41.637
-54.152
-37.4538
-37.4325
-54.1441
-29.5267
-29.1946
-31.4719
-31.6116
-13.8211
-103.757
-68.4276
-35.376
-33.6594
-42.7368
-0.923441
-57.6816
-46.3637
-34.947
-33.1506
-38.7159
-103.989
-16.879
-68.3903
-33.3779
-35.064
-42.5239
-60.8801
-0.86783
-46.3098
-33.0586
-34.81
-38.6126
-39.99
-32.5851
-34.0704
-36.0447
-37.8614
-29.7095
-23.9552
-31.896
-35.7531
-47.0214
-57.2865
-11.7543
-51.6397
-46.5178
-51.0584
-58.6961
-39.9719
-36.0348
-32.5716
-34.0588
-38.4604
-31.8941
-29.6202
-23.8198
-35.745
-11.856
-47.0125
-57.2491
-51.6081
-58.6509
-46.6049
-50.8594
4.52014
28.8076
-55.1319
138.639
-114.629
-114.553
-89.5217
30.5761
-68.8107
-46.0449
-56.7869
-52.9308
-34.6562
-34.5744
-40.6414
-32.4128
-28.6108
-28.4158
-34.0049
-24.2638
-53.4126
-37.5537
-41.105
-39.3136
-92.7462
-99.887
-57.6669
81.3089
-45.9533
-39.6112
-53.7837
-32.5341
-32.6393
-32.6921
-34.4669
-30.8533
-45.3693
-49.2239
-47.852
-46.1863
3.42397
28.4531
-54.8776
138.732
-68.7745
-46.0353
-56.8605
-52.9157
-34.4661
-34.4286
-40.4832
-32.3047
-53.345
-37.5127
-41.0451
-39.2366
-45.9719
-39.6048
-53.7922
-32.5404
-45.3064
-49.1948
-47.8042
-46.1413
-31.585
-30.8703
-32.5225
-31.6221
-36.1563
-39.6787
-41.1038
-36.8309
-37.2628
-37.2589
-40.0841
-35.4832
-32.6293
-38.9394
-35.9878
-35.2079
-33.0077
-33.0025
-32.527
-33.963
-55.8605
-52.9765
-48.6667
-66.7747
17.0487
17.1013
8.85718
0.551975
-69.4985
-69.4917
-77.6174
-61.5471
-31.5682
-30.8439
-32.5051
-31.6081
-36.1492
-39.6676
-41.073
-36.8219
-32.6163
-38.9453
-35.9701
-35.2223
-55.8191
-52.9339
-48.6362
-66.7143
-91.9011
-60.231
-62.2601
-51.1955
-92.0957
-60.2645
-62.341
-51.2361
-62.3136
-53.027
-53.0217
-47.7221
-35.2015
-26.3121
-26.343
-14.7391
190.965
202.172
155.741
191.048
-34.9866
-37.0627
-36.7093
-39.8562
-34.9749
-37.0527
-36.7028
-39.848
-32.317
-33.0585
-32.1876
-32.3122
-93.1346
-80.2462
-88.8753
-93.1454
-51.8758
-43.0569
-47.5566
-43.3155
-51.7061
-42.9731
-47.5037
-43.2521
-38.6045
-37.5245
-37.4902
-36.0846
-39.8807
-43.8424
-43.8375
-48.3217
-28.2919
-23.068
-29.9249
-28.0456
-51.0296
121.853
-89.2597
47.2832
-42.9907
-72.037
-40.6309
-31.5895
-37.2558
-29.4958
-46.1107
-44.3691
-62.9172
135.539
-54.4359
106.258
-52.1379
-41.4808
-41.3586
-32.345
-34.8125
-31.8443
-44.3378
-39.1264
-89.2339
47.4387
-50.6766
121.92
-42.8436
-72.0236
-37.0432
-29.4121
-40.4246
-31.4145
-45.9357
-44.1854
-55.2697
108.626
-62.6433
136.451
-51.992
-41.694
-34.8176
-31.7636
-41.2033
-32.2244
-44.2336
-39.0847
-50.787
-42.447
-32.6768
-32.8596
-41.6417
-33.7223
-39.5164
-34.8479
-45.4086
-35.7398
-31.5612
-31.156
-31.5727
-31.6971
-32.0214
-33.9244
-45.729
-17.1408
-42.5488
-43.2484
-49.4015
-75.6511
2.10756
-8.69854
-46.5274
-53.6819
-42.8196
-42.5057
-47.1337
-60.0181
-70.4621
-60.5725
-50.7925
-42.4367
-39.5089
-34.8407
-32.6646
-32.849
-41.62
-33.7117
-45.3607
-35.7126
-32.0108
-33.9149
-31.5197
-31.1343
-31.5199
-31.7246
-45.7339
-17.148
1.84628
-8.6938
-42.5386
-43.2307
-49.3806
-75.5195
-46.5128
-53.6534
-70.4458
-60.5694
-42.8163
-42.5258
-47.1326
-59.9826
-52.1224
-59.8991
191.038
143.269
-73.1543
-73.1447
173.369
173.433
-93.7007
-49.2853
-61.7547
-47.0279
-46.1998
-47.564
-29.819
-31.8214
-39.7273
-39.8157
-25.3267
-24.9971
-41.286
-56.6346
-36.5969
-40.2842
-42.9936
-43.0244
157.541
158.845
-53.436
-70.1996
-35.9895
-19.6502
-37.0085
-36.9995
-30.3091
-30.4176
-48.1944
-45.3557
-48.6919
-40.5291
-51.8908
-58.4273
141.194
191.144
-93.7455
-49.2925
-61.7413
-47.0195
-47.4413
-46.0328
-29.5051
-31.7585
-41.2197
-56.4815
-36.5584
-40.1861
-70.393
-53.3899
-19.6928
-36.0689
-45.3281
-48.0899
-40.5186
-48.6799
-33.5794
-33.2794
-32.5783
-31.7489
-50.7059
-49.4424
-35.0832
-39.9248
-43.1457
-43.1498
-33.9254
-33.9213
-34.2841
-39.2917
-45.4336
-43.0032
-32.0886
-32.0938
-35.0637
-35.0512
-43.0966
-44.1253
-78.6871
-78.6753
-3.18391
-3.20861
-33.3969
-33.5304
-81.6121
-81.5884
-54.1473
-54.1433
-33.5667
-33.2591
-32.5698
-31.7381
-49.5468
-50.7568
-35.0735
-39.9091
-39.3407
-34.2627
-45.4447
-42.913
-44.1058
-43.0474
-78.6248
-78.6254
-54.6602
-93.791
-93.2016
-51.4305
-42.8459
-41.4561
-50.4156
-47.7398
-44.2772
-51.297
-52.0116
-41.6142
-56.3153
-59.5956
-83.7436
-54.1317
-54.4517
-51.1214
-93.3143
-93.7914
-56.1101
-54.304
-84.0283
-59.8363
-44.275
-41.5964
-52.0066
-51.3051
-42.8251
-47.8138
-50.4392
-41.4109
-88.2586
-88.9773
-61.4881
-62.2104
-88.1729
-62.1876
-61.4817
-88.9712
-38.996
-39.9592
-47.3802
-46.4768
-39.0064
-46.4881
-47.3848
-39.9631
-52.4676
-37.5963
-35.0091
-55.5553
-9.56451
7.52362
-15.8423
-25.8224
-9.68328
-25.8373
-15.8537
7.50517
-53.3726
-55.831
-35.065
-37.6712
68.2198
137.992
202.45
50.8805
105.056
125.702
150.011
129.061
109.436
128.525
148.296
130.296
68.3084
50.9781
202.473
138.188
-32.9491
-32.5911
-35.0595
-35.0858
-30.1801
-33.661
-34.7561
-32.1793
-47.2704
-47.7542
-39.4768
-39.2979
-48.8311
-39.6013
-39.8644
-49.2062
-32.9379
-35.0774
-35.0488
-32.5769
-48.8053
-49.1797
-39.8524
-39.5883
-47.2334
-39.2714
-39.4742
-47.736
-30.0913
-32.1537
-34.7419
-33.6321
-34.1018
-35.2729
-32.9072
-32.0909
-34.0917
-32.079
-32.9029
-35.2663
-31.2689
-32.4115
-32.0716
-31.2828
-31.289
-31.3002
-32.0768
-32.4167
-57.283
-72.7707
-77.2378
-0.262574
-58.094
-76.133
-86.7802
-62.6194
-58.0541
-62.5767
-86.7734
-76.1434
-57.2578
-0.598957
-77.0303
-72.6621
-31.0232
-40.1989
-42.1542
-32.1344
-41.0252
-40.7329
-54.2494
-58.0672
-40.785
-48.1104
-49.093
-41.272
-46.4655
-39.7926
-45.2509
-46.8213
-31.5864
-32.1111
-42.0856
-40.1656
-46.5011
-46.811
-45.2032
-39.8107
-40.6499
-41.1085
-48.9629
-48.0211
-40.8128
-57.8899
-54.0989
-40.5428
-33.5931
-33.9425
-36.2256
-37.194
-33.6014
-37.1416
-36.2044
-33.9353
-39.7067
-34.8626
-38.9871
-42.0961
-39.9498
-42.2166
-39.0422
-34.9925
-55.5472
-50.1287
-48.4023
-61.2785
-35.7716
-34.5089
-40.035
-42.3147
-35.7183
-42.2863
-40.0307
-34.5484
-55.525
-61.271
-48.3976
-50.1612
-31.8784
-26.2106
-25.6063
-31.7866
-31.6007
-31.6229
-25.2576
-25.9556
-32.3743
-31.0338
-30.4826
-32.5249
-32.4867
-32.7635
-30.6485
-31.1857
-21.8603
-81.7446
-71.7724
-35.8033
-34.816
-39.0714
-11.9246
-43.927
-57.9497
-35.2119
-33.6473
-37.3089
-82.0156
-23.4329
-71.4771
-34.6343
-35.4216
-38.8541
-45.0211
-12.0013
-58.3152
-33.5536
-35.0744
-37.1892
-35.7494
-33.1289
-34.0332
-35.3786
-25.3852
-28.7501
-22.476
-30.823
-41.9718
-50.736
-58.4227
-37.685
-50.6229
-49.4346
-50.7319
-54.7346
-35.7333
-35.3671
-33.1155
-34.0216
-25.9298
-30.8261
-28.5938
-21.8636
-41.9244
-37.5577
-50.7305
-58.5037
-50.552
-54.6916
-49.3459
-50.7803
9.79742
23.0484
-53.7443
96.4969
-114.48
-114.403
-104.194
-114.624
-59.7319
-49.0017
-55.2545
-52.9745
-34.8797
-34.3939
-37.0998
-32.9132
-27.7241
-27.6122
-30.7832
-25.6484
-42.6415
-38.9413
-40.1304
-40.0245
-78.8686
-104.799
-74.0802
28.4987
-44.554
-42.5028
-49.6925
-36.5621
-32.6388
-32.6959
-33.4963
-31.7028
-46.3847
-47.6482
-47.6514
-46.0858
9.10223
22.7531
-54.3765
96.547
-59.7094
-48.9916
-55.1639
-52.9581
-34.7049
-34.2592
-36.9912
-32.833
-42.5487
-38.9256
-40.0971
-39.9424
-44.546
-42.4802
-49.6941
-36.5452
-46.334
-47.6223
-47.6124
-46.0663
-31.0975
-31.383
-32.1509
-31.4776
-36.7529
-38.4941
-38.5983
-37.0995
-37.2581
-37.3697
-38.6765
-36.4055
-34.095
-36.9919
-35.7349
-35.4511
-33.0745
-33.0718
-32.7907
-33.5005
-55.4236
-53.9924
-52.0636
-59.6672
17.782
17.7721
15.2244
13.2779
-70.2598
-70.2564
-74.1941
-65.8006
-31.0795
-31.3599
-32.1319
-31.4615
-36.7468
-38.4869
-38.5841
-37.0915
-34.0832
-36.9888
-35.7214
-35.4364
-55.374
-53.9634
-52.0317
-59.6226
-72.075
-60.4331
-61.2134
-55.1587
-72.195
-60.4796
-61.2864
-55.1975
-57.3996
-53.453
-53.4504
-50.3529
-30.2865
-25.6362
-25.6456
-20.3301
192.02
198.024
169.393
191.999
-35.8943
-37.0521
-36.8474
-38.1967
-35.8841
-37.0427
-36.8392
-38.1879
-32.4143
-32.714
-32.2859
-32.4119
-93.996
-89.1672
-91.9646
-94.0012
-49.7977
-43.667
-46.3854
-43.9633
-49.7945
-43.5909
-46.315
-43.8903
-37.9108
-37.3368
-37.3192
-36.6762
-41.6662
-43.7347
-43.7343
-45.9055
-27.1661
-24.5794
-30.0661
-27.0189
-7.63376
-4.58757
-60.723
82.823
-120.787
-112.1
-104.4
-61.3075
-61.5191
-80.9438
-53.1365
-73.7887
-35.1117
-34.6762
-37.6697
-32.3423
-32.5597
-29.9005
-34.3646
-29.9382
-44.714
-51.2728
-47.0729
-46.3337
12.3487
31.8641
-42.6842
85.1136
-45.9792
-86.6802
-72.7026
27.5764
-49.2488
-47.3694
-49.7121
-40.4934
-34.7575
-34.6306
-37.8963
-33.0217
-32.8977
-32.7567
-33.6751
-32.2482
-40.2857
-43.6718
-43.2026
-40.0958
-120.9
-112.059
-104.353
-60.7843
-12.0751
-5.81271
-59.8696
83.1
-61.512
-80.8573
-53.0322
-73.7839
-32.2656
-29.6472
-34.126
-29.9544
-34.8819
-34.479
-37.459
-32.1772
-44.5237
-51.0623
-46.8717
-46.1371
-49.007
-85.9592
-75.5827
40.6403
12.1771
31.5064
-43.5777
85.8785
-49.147
-47.404
-49.6328
-40.6465
-32.7989
-32.7211
-33.6358
-32.1519
-34.617
-34.4858
-37.7443
-32.9006
-40.1969
-43.6013
-43.1371
-40.0436
-43.0993
-44.1815
-49.5207
-42.478
-32.2812
-31.7019
-32.33
-32.464
-34.392
-35.3846
-36.7627
-34.088
-36.6008
-37.0775
-38.1011
-35.7252
-38.8892
-36.7884
-44.6813
-36.3997
-29.573
-30.7248
-31.0597
-30.7113
-26.3948
-31.1415
-30.4919
-29.7661
-32.2315
-32.8502
-32.2697
-33.1406
-34.2607
-37.8444
-44.0385
-24.6145
-44.2287
-40.9377
-41.9697
-42.9136
-57.0963
-56.6318
-53.1448
-65.0233
2.05331
14.6639
7.90742
4.08168
-51.0989
-49.8834
-49.0139
-52.5899
-44.1339
-40.7142
-42.8483
-42.3952
-51.4265
-52.3262
-50.7921
-55.2445
-62.0727
-68.5283
-68.9487
-64.5037
-43.0891
-44.1664
-49.5154
-42.4669
-36.5921
-37.0718
-38.0938
-35.7179
-32.2672
-31.6861
-32.3166
-32.4517
-34.3802
-35.3757
-36.7464
-34.0776
-38.6985
-36.7439
-44.4962
-36.3558
-32.2252
-32.843
-32.2607
-33.1331
-29.5159
-30.6917
-31.016
-30.6818
-26.3721
-31.129
-30.4384
-29.8069
-34.2609
-37.6425
-44.0273
-24.5419
2.01027
14.6746
7.82795
4.05392
-44.2136
-40.9223
-41.953
-42.8954
-57.0318
-56.5858
-53.1087
-64.9922
-50.9327
-49.8602
-48.9828
-52.56
-62.0394
-68.5183
-68.9348
-64.486
-44.1638
-40.7343
-42.8802
-42.4262
-51.3803
-52.2926
-50.7583
-55.2094
-53.8148
-84.2332
-53.6799
-57.8438
167.243
188.726
193.213
155.921
-79.7655
-68.5961
-73.7972
-73.791
106.501
186.375
169.65
169.686
-58.3236
-59.7697
-70.9044
-53.5101
-52.8475
-53.1014
-56.7214
-49.7631
-44.2699
-48.2661
-46.4963
-47.5041
-31.8612
-29.6846
-30.1296
-32.0022
-37.0919
-39.5368
-39.1438
-39.1901
-23.3816
-22.7248
-23.5059
-23.3038
-41.5825
-42.4671
-41.8607
-46.0319
-38.7012
-37.8185
-37.4924
-39.1454
-48.1435
-39.0728
-43.1734
-43.1433
149.834
165.754
164.191
159.24
-59.6414
-61.9293
-57.2331
-68.5015
-30.4689
-27.3144
-32.579
-24.4565
-35.5873
-38.2954
-36.9061
-36.9018
-30.1882
-29.6345
-29.9693
-30.0271
-47.5599
-47.6011
-48.1723
-46.0662
-45.1451
-44.0199
-46.5357
-42.3366
-53.0735
-84.4054
-53.292
-56.9524
167.304
188.622
155.438
193.256
-58.3431
-60.0442
-70.9291
-53.5198
-52.8344
-53.0235
-56.7098
-50.0655
-44.1037
-48.0402
-47.3735
-46.3441
-31.6842
-29.4143
-29.8341
-31.8828
-41.4914
-42.3795
-41.7832
-45.9133
-38.6302
-37.7691
-37.4421
-39.0684
-59.6493
-61.985
-68.5621
-57.2296
-30.5016
-27.3672
-24.4959
-32.6527
-47.51
-47.5485
-46.0189
-48.0842
-45.1306
-44.0131
-42.3795
-46.5291
-32.9601
-34.2283
-33.5755
-33.4166
-31.8199
-32.1861
-32.2548
-31.8578
-47.2527
-47.0008
-50.6857
-49.9032
-36.8904
-37.0493
-35.9825
-38.3326
-41.6681
-45.4374
-43.3413
-43.3433
-34.7015
-33.4962
-34.0475
-34.0455
-36.2118
-36.5069
-35.2995
-37.5733
-39.9553
-43.3327
-45.0081
-42.2228
-32.3358
-32.1644
-32.1833
-32.1856
-34.4512
-35.5207
-35.0132
-35.0069
-45.9106
-41.7963
-43.5689
-44.0185
-76.0587
-89.3723
-83.4246
-81.8283
3.89373
-7.91713
-2.16601
-2.17567
-14.9134
-56.0779
-33.1572
-33.079
-80.9486
-86.1308
-83.0765
-83.0713
-57.5298
-51.1658
-54.1532
-54.1508
-32.9435
-34.215
-33.5621
-33.3993
-31.8082
-32.1789
-32.2459
-31.8477
-47.2466
-47.0468
-49.9532
-50.7494
-36.8803
-37.0388
-35.9732
-38.3202
-36.1973
-36.5018
-37.5753
-35.2844
-40.0882
-43.2432
-45.038
-42.1066
-45.8814
-41.7878
-44.0028
-43.548
-75.9967
-89.3806
-81.8008
-83.4227
-47.9418
-47.8821
-51.7274
-93.1296
-51.282
-49.199
-45.6515
-50.7847
-46.9325
-44.1527
-51.5364
-48.4267
-58.9432
-54.3934
-60.2504
-60.7222
-47.6926
-47.7715
-51.5323
-93.1057
-58.0986
-54.1886
-59.2143
-60.8479
-46.9576
-44.1531
-51.5602
-48.5603
-51.2931
-49.1826
-45.6557
-50.8197
-78.4071
-72.3984
-72.9328
-67.6125
-78.3918
-72.3799
-72.9218
-67.5972
-42.6327
-41.0268
-44.854
-42.9787
-42.6417
-41.0344
-44.8619
-42.9846
-46.3511
-42.2044
-42.6818
-39.3391
-11.7462
-2.64167
-13.936
-5.05821
-11.8046
-2.71754
-13.997
-5.10581
-46.6778
-42.4429
-42.8203
-39.499
149.22
126.814
183.205
173.02
148.295
133.741
150.094
158.238
133.998
144.02
157.763
147.949
126.856
149.352
173.128
183.332
-33.0946
-33.6038
-33.5784
-34.318
-32.0752
-32.3595
-33.022
-33.4995
-42.784
-44.5998
-41.3789
-43.2733
-43.8797
-46.4653
-42.0284
-44.0363
-33.0825
-33.5928
-33.5665
-34.3078
-43.8524
-46.4415
-42.0049
-44.0112
-42.7493
-44.6382
-41.4545
-43.3047
-32.0372
-32.3181
-32.9966
-33.4726
-33.1886
-34.1007
-32.9808
-33.6959
-34.0932
-33.1793
-33.6898
-32.9728
-31.8301
-31.4677
-31.9298
-31.7057
-31.4835
-31.8415
-31.717
-31.9382
-58.4283
-24.1214
-58.9126
-33.7689
-66.3237
-72.2637
-75.7667
-78.8341
-72.2461
-66.2994
-78.8153
-75.7397
-24.0301
-58.5536
-33.5947
-58.8329
-45.2467
-44.0856
-40.9827
-45.2963
-43.7991
-46.0415
-46.0895
-51.837
-44.4889
-45.7592
-47.4452
-47.5449
-45.0602
-42.9016
-45.0123
-43.9916
-45.2182
-44.1294
-40.9324
-45.2928
-45.0573
-42.9135
-44.9847
-43.9313
-44.3461
-45.6423
-47.3389
-47.4458
-43.611
-45.8644
-45.9155
-51.6543
-35.441
-34.5394
-35.8747
-35.1603
-35.4169
-34.5251
-35.8454
-35.1424
-39.8107
-42.7044
-40.3888
-41.5225
-39.9934
-42.8759
-40.5123
-41.646
-54.8113
-57.1983
-51.355
-54.1056
-36.0704
-38.0646
-37.1693
-38.9627
-36.0443
-38.0336
-37.1548
-38.9472
-54.7953
-57.1844
-51.3448
-54.1004
-30.8344
-29.4876
-29.6464
-27.5076
-29.2462
-30.5823
-27.1465
-29.3227
-31.5552
-31.8887
-30.9108
-31.5583
-32.0185
-31.6696
-31.6874
-31.0484
-63.846
52.7036
-105.457
-11.6541
-58.3138
-88.6627
-37.9018
-32.6802
-37.0283
-32.5865
-41.3936
-41.3436
-57.0356
66.6095
-58.517
41.9099
-54.8322
-48.7376
-37.8453
-33.2564
-34.4952
-32.7122
-40.006
-36.9169
-105.515
-11.5749
-63.1369
52.8623
-58.2894
-88.6414
-36.7588
-32.2313
-37.6554
-32.4432
-41.1844
-41.1114
-61.2188
47.6345
-57.2933
68.6409
-54.6693
-49.0817
-34.4333
-32.6084
-37.7188
-33.133
-39.8772
-36.8477
-42.4163
-38.7864
-32.7539
-33.5746
-36.5727
-33.3127
-37.3499
-34.9278
-33.6766
-33.921
-29.9237
-30.7565
-28.4053
-24.4217
-31.5007
-32.7326
-43.9476
-22.0429
-45.4377
-48.0737
-52.9889
-72.9142
-7.95923
-26.2085
-49.5853
-53.7085
-47.032
-46.3171
-50.0214
-53.8966
-57.4876
-57.7879
-42.3923
-38.7741
-37.3397
-34.9178
-32.7419
-33.5632
-36.5544
-33.3022
-35.2854
-33.9829
-31.484
-32.7457
-29.8226
-30.7136
-28.2729
-24.9748
-43.9306
-22.0903
-8.19715
-26.2895
-45.4283
-48.0691
-52.9582
-73.2303
-49.5426
-53.6613
-57.4419
-57.7772
-47.0413
-46.4444
-50.04
-53.8649
-58.5699
92.603
-42.5324
86.7211
-52.5181
-57.5557
139.583
130.766
-103.497
-97.3
-103.486
-97.2671
-89.45
-89.4529
37.9335
37.9801
-91.2174
-63.993
-47.1831
-46.2682
-67.6775
-51.7255
-56.7947
-49.3488
-37.5483
-32.3771
-37.4651
-33.1256
-40.7417
-40.6965
-32.0137
-32.7614
-31.8807
-27.2613
-31.7285
-27.0214
-34.258
-34.3271
-24.8437
-24.6798
-58.0827
-44.2921
-39.2722
-37.5211
-40.9532
-45.1453
-38.133
-40.6572
-72.8226
75.0096
-73.034
83.2093
-56.6218
-56.7172
98.7624
118.692
-51.3592
-39.6801
-47.2566
-31.0983
-52.3918
-55.4392
-35.1022
-29.5379
-33.4889
-31.867
-33.4898
-31.7854
-34.4908
-34.4945
-30.86
-30.9989
-47.083
-43.5012
-48.0167
-49.0341
-48.3722
-46.797
-48.2224
-44.5545
-58.8428
92.829
-44.3971
87.1585
-52.2282
-57.3626
130.79
139.763
-91.0935
-63.963
-47.3693
-46.2564
-67.7441
-51.8675
-56.7769
-49.3361
-37.3582
-32.2251
-37.3059
-33.0039
-40.5454
-40.5635
-31.8924
-32.6492
-57.9128
-44.1752
-39.1094
-37.458
-40.9102
-45.0305
-38.0685
-40.563
-51.3178
-39.7075
-46.746
-31.1367
-55.4658
-52.3875
-29.5255
-35.1407
-47.003
-43.4614
-47.8696
-49.012
-46.7977
-48.2793
-44.5188
-48.2021
-32.1866
-31.8075
-31.682
-31.0335
-32.5243
-32.4002
-31.8111
-31.4517
-37.7314
-35.4564
-40.1802
-39.5585
-41.1854
-41.2028
-35.8708
-38.0403
-38.4311
-36.2989
-38.4272
-36.295
-40.0893
-40.0912
-35.4142
-35.4093
-33.0916
-32.2404
-39.0647
-39.2292
-34.7918
-37.3627
-33.1741
-37.2705
-32.6813
-33.4591
-32.6763
-33.4533
-32.4963
-32.4988
-33.9529
-33.9491
-52.8023
-62.1936
-51.1433
-57.1902
-48.2044
-48.8933
-70.2417
-64.5524
14.0418
12.1436
14.0404
12.1683
8.59478
8.60175
0.353619
0.555914
-73.1675
-65.1711
-73.1609
-65.165
-77.2059
-77.2088
-61.5354
-61.5332
-32.1712
-31.794
-31.655
-31.0122
-32.5089
-32.3796
-31.7983
-31.4361
-37.7242
-35.4488
-40.1542
-39.5466
-41.1758
-41.1496
-35.8625
-38.0295
-33.0677
-32.2267
-39.0661
-39.2423
-37.3493
-34.7697
-33.1511
-37.308
-52.7683
-62.1283
-51.1088
-57.1473
-48.8647
-48.1787
-64.5031
-70.1761
-92.7238
-90.2284
-71.4332
-54.5361
-55.9477
-74.5805
-50.6006
-51.6374
-92.8795
-90.4579
-71.493
-54.5615
-74.695
-55.9727
-51.6845
-50.6331
-62.0136
-62.0107
-56.8986
-50.0024
-56.8928
-49.9977
-47.3988
-47.4011
-35.1286
-35.1371
-30.8191
-21.594
-21.6066
-30.8357
-14.9147
-14.9163
201.305
166.495
202.919