# vtk DataFile Version 2.0
tri_press
ASCII
DATASET UNSTRUCTURED_GRID
POINTS 3682 float
-0.735 0.405 -1.94921
-0.715 0.445 2.06791
-0.755 1.01699 -1.915
-0.675 1.775 1.89308
0.735 0.405 -1.94914
0.715 0.445 2.06791
0.755 1.01699 -1.915
0.675 1.775 1.89306
-0.738639 0.408027 -0.61017
-0.748821 0.404512 0.72887
-0.794486 1.33581 -0.64564
-0.767565 1.58823 0.62372
0.738439 0.408228 -0.610123
0.748822 0.404511 0.728893
0.795951 1.33728 -0.645647
0.767561 1.58822 0.623707
-1.49441 -0.18223 -2.97005
-1.49381 -0.0628611 -1.92673
-1.49324 -0.0654111 -0.585889
-1.483 -0.121834 0.768977
-1.45361 -0.108905 2.111
-1.44883 -0.0242844 3.1601
-1.45573 0.0900189 4.1985
-1.49619 0.227399 -2.97801
-1.49896 0.38124 -1.9423
-1.50218 0.43349 -0.615012
-1.48467 0.445132 0.718548
-1.43632 0.494934 2.04717
-1.4384 0.581753 3.09529
-1.45167 0.689333 4.13595
-1.50606 0.97098 -2.97436
-1.52072 1.11464 -1.93576
-1.54144 1.37349 -0.655971
-1.50125 1.59603 0.618879
-1.4203 1.76041 1.9
-1.43163 1.8367 2.95099
-1.45323 1.9136 4.00289
-1.50972 2.31627 -3.02128
-1.51818 2.49959 -1.99311
-1.52817 2.82939 -0.735921
-1.52086 3.17684 0.506254
-1.4983 3.43667 1.76417
-1.48716 3.56854 2.79385
-1.48695 3.66138 3.83814
-0.742454 -0.167761 -2.97453
-0.740513 -0.0403483 -1.93327
-0.740668 -0.0733274 -0.584998
-0.744249 -0.155014 0.777791
-0.72901 -0.150341 2.1264
-0.726226 -0.0528575 3.17055
-0.730994 0.0723278 4.20455
-0.741111 0.228492 -2.97938
-0.72107 0.558975 3.1039
-0.729691 0.675904 4.14052
-0.746971 0.929269 -2.96573
-0.714475 1.83886 2.94961
-0.73251 1.91312 4.0026
-0.748782 2.2801 -3.01275
-0.75457 2.46159 -1.98372
-0.76788 2.81011 -0.73026
-0.774329 3.18133 0.505576
-0.766114 3.45174 1.75932
-0.758792 3.58215 2.78901
-0.758293 3.67086 3.83462
0.749535 -0.167557 -2.97449
0.740744 -0.0402094 -1.93322
0.743753 -0.0731302 -0.584957
0.74415 -0.154961 0.777813
0.72071 -0.150319 2.12641
0.714977 -0.0528171 3.17056
0.715144 0.0723968 4.20455
0.751263 0.228658 -2.97934
0.705774 0.559003 3.1039
0.70913 0.675965 4.14052
0.760866 0.929477 -2.96571
0.6907 1.8389 2.9496
0.70008 1.91318 4.00259
0.772201 2.28055 -3.01274
0.773535 2.46212 -1.98372
0.762324 2.81068 -0.730257
0.730876 3.18166 0.505575
0.701276 3.4519 1.75932
0.695442 3.58228 2.789
0.696579 3.67099 3.83462
1.50003 -0.181705 -2.96997
1.49361 -0.0623352 -1.92664
1.49583 -0.0648871 -0.585822
1.48843 -0.121639 0.769014
1.45619 -0.108817 2.11101
1.44465 -0.0241733 3.16011
1.44408 0.0901766 4.19851
1.50263 0.227914 -2.97793
1.49728 0.381834 -1.94221
1.50252 0.434201 -0.61495
1.49125 0.445282 0.718578
1.44446 0.494983 2.04717
1.43317 0.58184 3.09529
1.4362 0.689477 4.13596
1.51635 0.971601 -2.97431
1.52141 1.11548 -1.93572
1.54213 1.375 -0.655952
1.50401 1.59631 0.618879
1.42273 1.76047 1.89998
1.41664 1.8368 2.95099
1.42577 1.91376 4.00289
1.53002 2.31716 -3.02125
1.53255 2.50061 -1.9931
1.52212 2.83044 -0.735911
1.48535 3.17748 0.506256
1.44453 3.43701 1.76417
1.43084 3.56881 2.79384
1.42927 3.66166 3.83814
-0.752455 0.710995 -1.93956
0 0.391493 -1.96268
-0.750416 0.392917 -1.27969
-0.707761 1.11 1.99326
0 0.429547 2.08336
-0.763726 0.39294 1.39839
0 1.04993 -1.94794
-0.786111 1.18777 -1.28032
0 1.79161 1.90968
-0.749557 1.70989 1.2584
0.752497 0.710995 -1.93957
0.750416 0.392917 -1.27963
0.707744 1.11 1.99323
0.763729 0.392938 1.3984
0.786079 1.18774 -1.28032
0.749559 1.70989 1.25838
-0.741756 0.408244 0.05935
-0.8581 0.87192 -0.627905
-0.000100162 0.390963 -0.610147
-0.857763 0.99637 0.676295
6.00593e-07 0.405341 0.728882
-0.786274 1.46727 -0.01096
0.000732175 1.71178 -0.645643
-2.297e-06 1.85642 0.623713
0.741566 0.408434 0.059385
0.859717 0.872752 -0.627885
0.857753 0.996367 0.6763
0.78778 1.46877 -0.01097
-0.884528 0.791458 -1.28001
0.884638 0.791874 -1.27998
-5.00808e-05 0.390495 -1.27966
0.000366088 1.19389 -1.28032
0 0.710995 -2.07832
-0.857871 0.934145 0.024195
0.859477 0.93456 0.0242075
-4.97805e-05 0.390968 0.0593675
0.000364939 1.84439 -0.010965
-0.853536 1.05319 1.3284
0.853536 1.05318 1.32839
3.00296e-07 0.390526 1.3984
-1.1485e-06 1.84762 1.25839
0 1.11 2.02175
-0.749322 0.557997 -1.94998
-0.3675 0.391482 -1.96271
-0.74869 0.392977 -1.61445
-0.717427 0.7775 2.03663
-0.3575 0.429534 2.08338
-0.765208 0.393125 1.73315
-0.754289 0.863992 -1.92784
-0.3775 1.0536 -1.95161
-0.79352 1.12534 -1.59766
-0.682265 1.4425 1.93405
-0.3375 1.78744 1.90552
-0.73011 1.76028 1.57574
0.3675 0.391491 -1.96267
0.749323 0.557997 -1.94993
0.748691 0.392976 -1.61439
0.3575 0.42956 2.08335
0.71746 0.7775 2.03666
0.765211 0.393123 1.73316
0.3775 1.05354 -1.95155
0.754299 0.863992 -1.92783
0.793537 1.12536 -1.59766
0.3375 1.78744 1.90551
0.682256 1.4425 1.93403
0.730058 1.76022 1.57572
-0.752066 0.392934 -0.94493
-0.7402 0.408134 -0.27541
-0.844673 0.616822 -0.619038
-0.372979 0.392277 -0.610158
-0.762085 0.392915 1.06363
-0.744134 0.407532 0.39411
-0.849794 0.67719 0.702583
-0.375125 0.403498 0.728876
-0.801375 1.27287 -0.96298
-0.850036 1.11574 -0.636773
-0.790285 1.40145 -0.3283
-0.487783 1.70561 -0.645642
-0.763103 1.6536 0.94106
-0.797457 1.2847 0.650008
-0.781984 1.53281 0.30638
-0.441704 1.83816 0.623717
0.752069 0.392931 -0.944878
0.372818 0.392297 -0.610135
0.740004 0.408329 -0.275369
0.846306 0.616876 -0.619004
0.762086 0.392914 1.06365
0.375125 0.4035 0.728888
0.743979 0.407688 0.394139
0.849793 0.677186 0.702597
0.801235 1.27273 -0.962985
0.488867 1.70558 -0.645645
0.851448 1.11682 -0.636766
0.791844 1.403 -0.328308
0.762944 1.65344 0.941045
0.441645 1.83805 0.62371
0.797452 1.28469 0.650003
0.781944 1.53277 0.306368
-0.865603 0.751226 -1.60978
-0.376228 0.710995 -2.07545
-2.50404e-05 0.390531 -1.62117
0 0.551244 -1.9618
-0.867392 0.592187 -1.27985
-0.375233 0.390496 -1.27968
-0.839674 1.08159 1.66083
-0.35388 1.11 2.02082
1.50148e-07 0.390647 1.74088
0 0.769773 2.02602
-0.891655 0.723063 1.36339
-0.381863 0.390526 1.39839
0.000183044 1.12757 -1.61413
0 0.88046 -2.03199
-0.85291 0.989613 -1.28016
-0.392872 1.19365 -1.28032
-5.74251e-07 1.82879 1.58404
0 1.4508 1.96376
-0.794158 1.38154 1.2934
-0.374779 1.84107 1.2584
0.865985 0.751434 -1.60977
0.376249 0.710995 -2.07544
0.867456 0.592395 -1.2798
0.375183 0.390495 -1.27965
0.839707 1.08159 1.66081
0.353872 1.11 2.02074
0.891657 0.723061 1.3634
0.381865 0.390526 1.3984
0.852951 0.989806 -1.28015
0.393223 1.19361 -1.28032
0.794155 1.38154 1.29339
0.374779 1.84105 1.25839
-0.84785 0.647177 0.0417725
-0.374558 0.392295 0.0593587
-0.858336 0.831689 -0.953955
-0.858009 0.903033 -0.301855
-7.51212e-05 0.390504 -0.944904
-7.49711e-05 0.390964 -0.27539
-0.857772 0.965258 0.350245
-0.857916 1.02478 1.00235
-2.459e-05 0.391221 0.394125
4.50444e-07 0.390504 1.06364
-0.825947 1.20264 0.0066175
-0.476321 1.82256 -0.0109625
0.000549131 1.39536 -0.962983
0.000548557 1.79941 -0.328304
0.000181321 1.85641 0.306374
-1.72275e-06 1.8561 0.941053
0.849503 0.647006 0.0417963
0.374451 0.392316 0.0593762
0.858354 0.832313 -0.953931
0.859617 0.903656 -0.301839
0.857762 0.965464 0.350254
0.857917 1.02478 1.00235
0.827175 1.20344 0.00661875
0.478937 1.82631 -0.0109675
-0.847958 0.575092 -1.61212
-0.885528 0.616081 -0.949443
-0.855869 1.04674 -0.958468
-0.836037 0.926803 -1.60372
0.848022 0.575196 -1.61208
0.835647 0.926899 -1.60372
0.855818 1.04741 -0.958458
0.885523 0.616443 -0.949404
-0.371367 0.390531 -1.61781
0.371342 0.390531 -1.61778
0.372176 0.390504 -0.944891
-0.372301 0.390504 -0.944917
-0.385186 1.1325 -1.60589
-0.394875 1.38272 -0.962981
0.395782 1.38262 -0.962984
0.385361 1.13597 -1.6059
-0.371864 0.554621 -1.90386
-0.376864 0.872226 -2.05044
0.376874 0.872226 -2.05042
0.371874 0.554621 -1.90386
-0.846299 0.63198 -0.288633
-0.848883 0.662153 0.372178
-0.806774 1.24121 0.328313
-0.841131 1.16076 -0.315078
0.847925 0.631931 -0.288604
0.842583 1.16177 -0.315074
0.806849 1.24133 0.328311
0.848896 0.662472 0.372197
-0.373768 0.392286 -0.2754
0.373635 0.392306 -0.275379
0.377443 0.392598 0.394132
-0.377501 0.392577 0.394117
-0.49274 1.78546 -0.328302
-0.461608 1.83555 0.306377
0.461899 1.8354 0.306371
0.493722 1.78559 -0.328306
-0.894939 0.711752 1.03299
-0.837625 0.750281 1.69699
-0.781066 1.41202 1.61828
-0.799916 1.33692 0.971703
0.894943 0.71175 1.033
0.79991 1.33692 0.971696
0.781088 1.41202 1.61827
0.837103 0.75028 1.69698
-0.378137 0.390504 1.06363
0.378138 0.390504 1.06364
0.369682 0.390642 1.73702
-0.369682 0.390642 1.73701
-0.379282 1.84916 0.941056
-0.35614 1.82338 1.57989
0.356139 1.82338 1.57988
0.379279 1.84916 0.941049
-0.35569 0.773637 2.06368
0.355686 0.773637 2.06368
0.345686 1.44665 1.96338
-0.34569 1.44665 1.96338
-0.745039 0.481499 -1.95247
-0.55125 0.391491 -1.96271
-0.747709 0.393124 -1.78183
-0.705253 0.61125 2.04131
-0.53625 0.429527 2.08338
-0.765866 0.3933 1.90053
-0.754831 0.940491 -1.92161
-0.56625 1.03104 -1.92905
-0.777482 1.07439 -1.75633
-0.682726 1.60875 1.91766
-0.50625 1.77643 1.8945
-0.714343 1.77943 1.73441
0.55125 0.391486 -1.96266
0.745152 0.481499 -1.95252
0.747708 0.393125 -1.78176
0.53625 0.429566 2.08334
0.70523 0.61125 2.04128
0.765868 0.393299 1.90053
0.56625 1.03106 -1.92907
0.754819 0.940491 -1.92159
0.777466 1.07437 -1.75633
0.50625 1.77644 1.8945
0.682713 1.60875 1.91763
0.714331 1.77941 1.73439
-0.741286 0.404547 -0.77755
-0.739419 0.408081 -0.44279
-0.824119 0.496193 -0.614604
-0.559408 0.392954 -0.610164
-0.761231 0.392936 0.89625
-0.743866 0.408634 0.56149
-0.833874 0.523568 0.715726
-0.561933 0.404084 0.728873
-0.798821 1.30523 -0.80431
-0.806462 1.21788 -0.641206
-0.792353 1.3686 -0.48697
-0.722439 1.68332 -0.645641
-0.762798 1.61838 0.78239
-0.786006 1.43821 0.636864
-0.772391 1.55814 0.46505
-0.669511 1.84295 0.623718
0.741289 0.404544 -0.777501
0.559271 0.392977 -0.610129
0.739221 0.408279 -0.442746
0.825657 0.49591 -0.614564
0.761229 0.392937 0.896271
0.561934 0.404085 0.728891
0.743746 0.408754 0.561516
0.833868 0.523568 0.715745
0.800255 1.30666 -0.804316
0.723326 1.68326 -0.645646
0.80762 1.21901 -0.641206
0.79382 1.37006 -0.486978
0.762789 1.61837 0.782376
0.669508 1.84295 0.623708
0.785998 1.4382 0.636855
[...]
POINT_DATA 3682
SCALARS point_scalars float 1
LOOKUP_TABLE default
-131.312
-48.9964
-31.6926
-57.5839
-131.815
-48.9424
-31.7837
-57.551
-46.4447
-30.5444
-107.23
-58.67
-46.4379
-30.2249
-107.641
-58.9116
-126.817
-116.049
-49.3464
-34.1886
-56.0837
-46.2012
-45.6807
-126.817
-109.473
-49.2563
-43.3167
-51.7884
-44.5687
-43.2175
-63.2706
-87.0205
-89.0294
-57.8815
-56.7036
-55.906
-51.5687
-33.0146
-50.5304
-111.586
-66.7899
-56.4523
-58.5286
-57.3586
-105.39
-177.145
-46.0012
-41.3436
-51.7425
-45.0865
-42.2322
86.0632
-43.2175
-42.2889
160.777
-50.5789
-49.9893
48.1637
-22.5627
-111.586
-71.0984
-59.0127
-57.1427
-54.6648
-100.613
-176.73
-45.9838
-41.3095
-51.6124
-45.0774
-42.0546
86.0005
-43.1368
-42.0546
161.172
-50.4157
-50.0068
48.0485
-24.1325
-111.639
-71.1617
-59.2539
-54.9559
-54.6717
-127.118
-116.041
-49.3344
-34.1538
-56.1979
-46.2016
-45.6701
-127.118
-109.356
-49.396
-43.3907
-51.7898
-44.559
-43.2013
-63.3524
-87.4252
-89.147
-58.1799
-56.697
-55.972
-51.5816
-33.1406
-50.3485
-111.639
-66.8865
-56.4623
-57.8716
-57.3306
-72.1091
-227.135
-65.2167
-48.5045
-36.2685
-45.5062
-50.6979
-42.9593
-52.8342
-56.4556
-72.311
-65.1804
-48.5165
-45.5035
-42.6844
-56.5046
-38.6628
-59.7881
-49.4452
-47.8888
-38.7066
-71.7806
-120.882
-72.781
-38.8572
-60.0669
-47.882
-71.8272
-72.3953
-72.3617
-76.1166
43.6224
197.354
-51.6704
-52.1221
-41.104
-104.406
-55.9768
-55.9148
-41.2463
-62.3147
-43.7575
-74.7674
-214.842
-89.9501
-44.5354
-41.2752
-52.5099
-54.3061
-43.4899
-52.295
-51.6594
-53.587
-57.4218
-214.777
-74.766
-89.9076
-41.2343
-44.5366
-52.5267
-43.4451
-54.3729
-52.1091
-53.5948
-51.7105
-57.4251
-55.3199
-41.5985
-51.0785
-48.3782
-43.8996
-36.889
-39.6669
-37.894
-104.345
-81.947
-85.0795
-114.914
-58.071
-54.9207
-64.2454
-69.9045
-55.3136
-48.3862
-41.6826
-51.227
-43.8935
-37.8708
-36.9412
-39.6679
-103.152
-114.872
-82.3286
-85.0791
-58.0489
-69.9449
-55.0211
-64.5831
-100.977
193.937
-102.838
192.756
-69.9437
-73.3559
-56.4492
-46.683
-41.1093
-32.9718
-56.6822
-41.9761
13.4345
187.296
-67.3386
30.4088
-58.4029
-49.7613
-55.5691
-61.6645
-100.745
193.972
-69.8453
-73.2333
-56.4296
-46.7698
-56.6429
-41.9811
-67.1859
30.4484
-55.5012
-61.7163
-44.5474
-40.8137
-65.9212
-55.89
-59.6956
-43.7786
-49.0554
-51.5355
-39.5596
-40.4865
-64.7338
-97.1364
77.5851
-119.408
-86.5419
-65.9958
-44.9037
-40.8503
-65.4823
-56.2404
-49.1842
-51.4764
-65.3787
-97.392
-103.263
-65.9894
-76.1836
-79.5351
-103.132
-78.7287
-75.575
-65.8099
-99.2796
-98.8405
-58.1492
-58.1509
6.71587
70.5928
70.5796
6.34653
191.043
175.259
175.46
190.608
-47.309
-42.0354
-58.9242
-74.3668
-47.568
-74.5536
-59.2724
-42.0974
-42.9959
-43.022
-39.0156
-39.0072
-111.158
-81.9489
-81.9685
-111.072
-52.9748
-55.9997
-56.6718
-54.4761
-52.8988
-54.3946
-56.6723
-55.9343
-40.902
-40.9082
-42.9258
-42.9262
-65.0383
-58.4622
-58.4615
-64.8142
-38.3427
-38.3643
-50.0094
-49.9913
-74.2116
-190.043
-119.556
-43.8635
-45.354
-56.1461
-36.1201
-29.0452
-51.756
-52.9355
-55.5647
-56.5526
-190.321
-74.1794
-119.521
-45.3355
-43.853
-56.2714
-28.9836
-36.1849
-51.7331
-55.5762
-52.9879
-56.5767
-50.6946
-43.4382
-48.231
-47.1316
-48.9115
-34.3141
-32.7471
-36.8119
-125.127
-94.4124
-94.2809
-124.917
-57.6131
-56.7066
-60.379
-63.8122
-50.7079
-47.1425
-43.4498
-48.312
-48.9016
-36.4555
-34.432
-32.7657
-125.981
-126.057
-94.5812
-94.4941
-57.8168
-63.8718
-56.9604
-60.6959
-74.9533
-64.0724
-96.5816
129.901
-226.235
-226.255
-129.935
65.8525
-74.3829
-59.2413
-67.7505
-69.3617
-47.1832
-50.7834
-56.7166
-47.6512
-37.6777
-37.654
-40.4624
-30.706
-47.5342
-43.9225
-54.1597
-43.0891
-53.2982
-53.4931
-5.44306
134.792
-46.7036
-35.4147
-63.9694
6.9863
-52.9825
-52.9858
-55.7463
-50.4487
-56.1147
-56.6429
-56.0725
-60.5863
-75.0382
-64.242
-96.5183
130.079
-74.3434
-59.2146
-67.6775
-69.4337
-47.1923
-50.8098
-56.7338
-47.7671
-47.5381
-43.9162
-54.1316
-43.096
-46.4748
-35.3029
-63.7694
7.15689
-56.1622
-56.7072
-56.092
-60.6662
-39.994
-38.0231
-42.2098
-40.4396
-54.5066
-68.3433
-61.5326
-57.9311
-49.1597
-49.1631
-53.7717
-46.1695
-44.0616
-52.3413
-47.9821
-48.9673
-38.5042
-38.499
-39.4638
-40.0111
-77.5354
-67.0957
-67.4723
-85.0818
-120.002
-120.025
40.752
-128.19
-72.3163
-72.3814
-78.7081
-68.5998
-40.2194
-38.2476
-42.5308
-40.5408
-54.7136
-68.6764
-61.722
-58.2461
-44.0557
-52.3563
-48.0333
-48.9279
-77.5863
-67.4729
-67.9962
-85.2234
-83.298
-71.6094
-70.6453
-70.6986
-83.1737
-71.4923
-70.5862
-70.4435
-87.3792
-75.6154
-75.6124
-67.1146
28.8293
40.6823
40.6751
55.1228
196.668
190.252
199.086
196.931
-47.5018
-54.1061
-50.1719
-58.3082
-47.9239
-54.1781
-50.9007
-58.8054
-41.0314
-42.0563
-39.3114
-41.0449
-102.868
-107.758
-94.4927
-102.973
-56.6422
-59.1328
-55.8935
-54.4209
-56.6176
-59.0618
-55.8261
-54.3541
-41.3614
-41.4123
-41.4144
-40.9287
-60.2666
-62.1378
-62.1458
-63.94
-44.7887
-38.735
-48.6987
-44.8351
-106.413
101.586
-125.948
62.8667
-98.2563
-93.945
-51.0752
-42.325
-43.9895
-36.9879
-59.9338
-45.2427
-97.6074
124.968
-6.65352
136.097
-77.0175
-8.63978
-56.162
-49.777
-55.9993
-50.1457
-56.7917
-58.7271
-125.6
62.808
-106.445
101.655
-98.1565
-94.1104
-43.9791
-36.9953
-51.0794
-42.3377
-59.9393
-45.2474
-6.38673
136.258
-97.8663
124.963
-76.5949
-8.6316
-55.9996
-50.1543
-56.2183
-49.7934
-56.7958
-58.7255
-62.9994
-56.5068
-44.9825
-42.1276
-56.0063
-48.9821
-52.1524
-45.231
-52.3545
-41.9888
-39.5071
-38.1577
-40.6681
-41.1794
-38.9411
-40.2411
-106.918
38.3503
-81.9716
-78.4699
-79.0503
-104.965
46.5058
-125.566
-56.2946
-63.692
-56.4912
-53.728
-61.1261
-72.7891
-75.0595
-66.1982
-62.9131
-56.5032
-52.1567
-45.2468
-45.2208
-42.1838
-56.0682
-49.0833
-52.298
-42.0044
-38.9176
-40.2439
-39.5506
-38.2893
-40.6814
-41.1905
-106.214
38.5523
46.579
-125.554
-82.2469
-78.7316
-79.2361
-105.217
-56.2522
-63.6626
-75.0751
-66.4313
-56.7646
-53.7503
-61.6353
-72.8976
-105.609
-83.1556
190.398
190.029
-101.975
-101.973
191.346
191.509
-80.5588
-64.7694
-84.1648
-64.8078
-55.4211
-56.9767
-44.4565
-49.5595
-41.5721
-41.5729
-33.6412
-33.6487
-54.219
-59.4066
-41.4635
-42.455
11.9819
11.9649
184.504
184.641
-68.7795
-69.9208
19.0385
41.9025
-58.4159
-58.417
-49.8863
-49.8722
-56.1303
-54.9132
-62.9326
-59.8731
-105.5
-82.8094
189.322
190.268
-80.4965
-64.6323
-84.1476
-64.7987
-56.964
-55.4142
-44.3926
-49.6062
-54.1716
-59.3889
-41.4694
-42.4582
-69.8044
-68.4577
41.9215
19.0443
-54.8112
-56.0828
-59.8738
-63.0106
-45.8363
-43.3526
-41.428
-38.3007
-66.3702
-68.2691
-50.8179
-63.3245
-59.313
-59.3135
-43.586
-43.5912
-45.0838
-54.1583
-49.1552
-53.7622
-39.4358
-39.4366
-40.5637
-40.5652
-61.7564
-69.359
-100.486
-87.7035
76.7969
76.827
-116.999
-116.896
-85.3692
-85.3675
-65.6985
-65.6775
-46.1432
-44.0443
-41.4628
-38.3271
-67.7269
-66.0741
-51.1253
-63.6738
-54.4258
-45.1704
-49.1128
-53.693
-69.8372
-62.4369
-87.9786
-100.112
-105.959
-79.3827
-81.9789
-99.1698
-55.9557
-57.519
-66.94
-62.0235
-100.96
-71.1132
-69.4413
-68.7773
-87.9391
-99.6758
-78.6092
-67.9949
-106.031
-99.1275
-81.8683
-79.327
-88.3441
-67.7517
-78.4431
-99.6094
-101.028
-69.0608
-69.1001
-70.7747
-55.7838
-61.9237
-66.7521
-57.5736
-121.632
-128.983
-86.6911
-79.3702
-121.614
-79.3429
-86.6847
-128.996
-50.6145
-53.3852
-66.5962
-62.0915
-50.6103
-62.1053
-66.5998
-53.3844
-14.9432
-2.2242
26.4786
-5.85566
-48.2166
42.3125
52.9503
9.48305
-46.9074
9.61384
52.8549
42.3287
-14.8702
-5.8129
26.4597
-2.10067
42.5627
130.168
189.919
65.5311
95.8503
142.907
197.761
128.568
95.9169
128.658
197.611
142.282
42.734
65.8401
190.16
130.322
-46.6834
-43.0494
-49.0637
-52.4806
-36.8893
-44.1543
-46.2683
-41.0921
-58.268
-63.7051
-55.4156
-52.6334
-87.411
-66.1893
-60.3627
-72.5327
-46.7766
-52.7538
-49.4254
-43.3852
-87.5654
-72.7981
-60.8014
-66.5026
-58.6445
-52.7293
-56.1341
-64.3826
-36.9012
-41.6404
-46.8856
-44.1844
-44.2021
-45.9348
-41.897
-40.7195
-44.2301
-40.8002
-41.9144
-45.9462
-38.0962
-39.3567
-39.0305
-37.292
-38.133
-37.2596
-39.0215
-39.3609
-114.215
-88.9127
-105.877
-127.56
-67.6031
-77.9117
-92.8168
-78.7513
-67.686
-78.96
-92.8452
-77.926
-114.657
-127.589
-105.832
-88.8947
-48.2667
-51.7991
-55.4059
-45.4966
-50.8222
-53.9246
-58.4094
-56.9999
-56.3511
-56.2808
-56.5555
-56.7649
-55.3313
-52.7107
-54.6879
-55.8866
-48.2186
-45.488
-55.3621
-51.7698
-55.5426
-55.908
-54.5961
-52.6716
-56.3645
-56.8156
-56.5294
-56.2878
-50.8232
-56.9948
-58.3788
-53.9301
-40.979
-40.0495
-41.0425
-42.4226
-41.0104
-42.4072
-41.0446
-40.0487
-47.9169
-41.3811
-41.6263
-44.0253
-47.9207
-44.0191
-41.6252
-41.3859
-62.9874
-61.5103
-63.7273
-67.9448
-56.5901
-55.7474
-60.1391
-59.4175
-56.5893
-59.4227
-60.1429
-55.7478
-63.1362
-68.0049
-63.7332
-61.6037
-40.9524
-32.4908
-39.887
-46.4351
-40.9423
-46.4779
-39.9233
-32.4973
-49.9307
-50.3811
-49.0011
-49.7195
-49.917
-49.6967
-48.9647
-50.3761
-101.227
-171.494
-141.707
-44.5938
-47.1039
-53.7247
-26.1262
-18.1401
-71.3202
-54.8858
-56.324
-57.4506
-181.03
-101.498
-141.721
-46.9163
-44.5835
-53.7206
-18.0041
-26.1931
-71.414
-56.3268
-54.8765
-57.4357
-48.4339
-44.4671
-47.9124
-46.3613
-42.4041
-33.1438
-23.0816
-36.0496
-116.842
-99.5606
-100.076
-162.665
-58.0395
-57.7591
-59.5054
-61.3329
-48.4324
-46.3663
-44.4826
-47.9312
-42.3403
-35.4068
-32.9528
-23.0706
-117.445
-164.622
-99.7969
-100.414
-58.2565
-61.4288
-58.0398
-59.7727
-79.4803
-74.2376
-125.572
81.1206
-226.891
-226.904
-159.538
-37.5805
-69.3135
-61.7917
-66.6099
-67.2153
-47.9402
-50.1071
-53.8808
-47.6715
-36.5225
-36.3882
-39.1586
-30.7418
-46.1726
-44.6515
-51.178
-43.8836
-52.4744
-52.6209
-21.959
17.6821
-46.439
-40.1617
-62.6654
-11.9595
-52.884
-52.8894
-54.0815
-50.7729
-56.19
-56.2584
-56.1771
-59.8881
-79.5766
-74.4363
-125.516
81.0803
-69.2759
-61.7597
-66.5554
-67.187
-47.9494
-50.1179
-53.9056
-47.6663
-46.1728
-44.6462
-51.1599
-43.8888
-46.2066
-39.8904
-62.3752
-11.7444
-56.267
-56.3386
-56.2318
-59.9299
-39.4216
-37.7284
-40.0251
-40.2636
-56.7955
-63.5909
-60.5867
-59.0179
-49.3513
-49.3552
-51.4623
-47.6879
-46.0298
-49.8542
-47.8537
-48.2548
-38.6489
-38.6468
-39.8029
-38.8751
-74.4036
-69.3804
-69.6748
-75.7303
-120.554
-120.61
-27.493
-134.319
-72.6163
-72.6647
-75.5114
-70.4548
-39.6026
-38.0009
-40.2325
-40.4265
-57.0397
-63.8971
-60.8268
-59.3149
-46.0222
-49.8524
-47.8726
-48.2286
-74.4712
-69.5118
-69.978
-75.852
-77.4945
-72.2908
-71.9693
-70.0663
-77.3817
-72.1707
-72.0365
-69.9049
-81.4626
-75.8773
-75.8754
-71.3954
36.5322
42.9493
42.9345
50.2686
197.087
189.111
203.188
197.161
-49.3763
-52.7575
-50.7129
-54.2229
-49.8165
-53.1806
-51.1733
-54.6643
-41.0923
-41.3885
-39.8292
-41.0987
-104.133
-107.055
-99.2599
-104.156
-56.2339
-57.2511
-55.5525
-55.4969
-56.188
-57.1853
-55.4986
-55.427
-41.3358
-41.2921
-41.2931
-41.108
-61.2714
-62.2892
-62.2923
-63.1583
-44.0832
-42.5449
-48.1729
-44.108
-75.1959
-71.7365
-110.699
66.4075
-195.737
-223.668
-153.219
-62.4103
-103.287
-81.0795
-96.9346
-91.5395
-43.9206
-45.4688
-49.6837
-43.3183
-43.4369
-39.2388
-43.6122
-37.5528
-51.3756
-49.1094
-61.4189
-46.8285
-50.6578
-61.3736
-124.868
94.1204
-39.017
-50.6613
-19.5979
30.585
-46.8521
-51.1908
-73.8985
-23.4667
-52.2068
-50.9561
-55.5231
-49.81
-54.4566
-53.1159
-54.5196
-50.6965
-56.4396
-55.7499
-56.911
-59.1493
-195.825
-223.748
-153.245
-62.1633
-75.2219
-71.7988
-110.631
66.3946
-103.224
-81.0379
-96.8701
-91.5027
-43.4117
-39.2295
-43.5773
-37.5304
-43.9129
-45.4757
-49.6879
-43.3222
-51.3362
-49.1186
-61.4297
-46.8392
-38.9022
-50.7226
-19.5405
30.5439
-50.7326
-61.4844
-124.984
94.1126
-46.7217
-51.0266
-73.5799
-23.371
-54.4665
-53.1211
-54.5248
-50.7046
-52.2489
-51.0048
-55.6021
-49.8314
-56.4404
-55.7959
-56.9132
-59.1434
-54.6911
-57.0881
-60.3409
-55.7488
-42.2979
-40.5796
-43.6897
-41.6247
-49.6618
-52.6295
-52.7573
-49.9411
-47.8626
-48.7967
-49.7489
-46.6478
-44.8465
-43.3
-49.6595
-42.8389
-35.94
-37.7812
-37.6343
-37.417
-36.4196
-41.9809
-40.1168
-38.7533
-37.3621
-38.2502
-39.4011
-38.3161
-139.261
-43.7896
-122.736
-14.1411
-89.9052
-74.3539
-82.2383
-80.3962
-89.3079
-81.1322
-81.8295
-93.7685
-107.79
-120.86
-13.9025
-130.99
-57.5157
-57.1421
-57.379
-62.5998
-55.4679
-54.4612
-55.3869
-54.3282
-62.2324
-65.5872
-62.5227
-67.9494
-68.3164
-71.136
-72.217
-68.1108
-54.7017
-57.0691
-60.3076
-55.7449
-47.8728
-48.8026
-49.7522
-46.6588
-42.3569
-40.7916
-43.5537
-41.7036
-49.7828
-52.8528
-52.7315
-49.9957
-44.8414
-43.2958
-49.616
-42.8497
-37.332
-38.2396
-39.3687
-38.3108
-36.0242
-37.8029
-37.4806
-37.4872
-36.4271
-41.9764
-40.1204
-38.756
-138.728
-43.3376
-121.64
-13.6055
-107.802
-120.964
-13.7863
-131.264
-90.1095
-74.7022
-82.5543
-80.6799
-89.4608
-81.0554
-81.8894
-93.8695
-57.6642
-57.1618
-57.3075
-62.6029
-68.3521
-71.2125
-72.2472
-68.1689
-55.6302
-54.5228
-55.6427
-54.3931
-62.52
-66.0661
-63.0287
-68.1724
-95.9076
-90.4352
-104.281
-90.1599
173.725
195.755
190.317
195.371
-114.151
-94.1988
-102.834
-102.831
197.981
190.703
191.418
191.391
-68.9319
-70.7073
-74.4077
-67.1565
-71.5806
-74.5488
-78.439
-68.8996
-56.5412
-56.7458
-55.9415
-56.8542
-47.3206
-45.7031
-46.0591
-49.3074
-40.7454
-41.3031
-41.2359
-41.2363
-31.3957
-32.7277
-33.3903
-33.3957
-55.4166
-57.798
-55.1943
-57.3669
-42.4582
-41.6398
-41.7237
-42.2361
5.25522
21.1585
13.1667
13.1614
171.332
193.729
186.571
186.642
-66.0122
-68.3336
-67.215
-68.511
20.2724
36.6994
25.4153
36.9028
-57.2252
-59.3406
-58.3783
-58.3789
-50.3287
-48.7045
-49.858
-49.8496
-55.8368
-55.6546
-55.7996
-55.2581
-61.0229
-62.0183
-62.324
-60.69
-95.6377
-90.3194
-104.156
-89.9271
174.024
196.189
195.371
190.305
-68.8448
-70.5937
-74.3042
-67.0489
-71.5619
-74.5412
-78.4229
-68.8888
-56.561
-56.7092
-56.8108
-55.9307
-47.6337
-45.7664
-45.9842
-49.337
-55.3829
-57.7459
-55.1526
-57.3362
-42.4646
-41.6432
-41.7291
-42.2404
-65.8322
-68.1226
-68.2932
-67.04
20.3963
36.6936
36.9724
25.4357
-55.8023
-55.583
-55.1754
-55.7491
-61.1519
-62.0357
-60.6913
-62.3811
-43.3778
-45.9599
-45.1846
-43.9472
-40.5768
-40.9504
-40.8531
-38.9927
-62.9389
-68.6965
-66.1464
-66.2071
-56.8542
-54.8334
-53.0427
-59.1901
-56.5908
-63.1953
-59.5745
-59.5746
-44.8814
-42.8395
-43.7142
-43.7806
-48.3378
-49.7355
-46.949
-51.1992
-50.0344
-53.0464
-51.1272
-52.2583
-39.489
-39.6919
-39.5391
-39.5373
-40.2285
-40.72
-40.4989
-40.4995
-66.0628
-61.8884
-63.2932
-67.0636
-91.7893
-99.7779
-101.339
-91.4225
70.0151
67.7303
77.3054
77.3372
-126.105
-112.086
-118.882
-118.815
-82.3667
-90.5354
-86.2268
-86.2381
-67.1361
-64.9372
-65.8546
-65.8449
-43.7038
-46.3653
-45.6423
-44.3892
-40.6361
-40.9739
-40.8902
-39.0261
-62.7937
-68.3564
-65.7079
-65.7616
-57.1934
-55.205
-53.3755
-59.5472
-48.43
-50.2203
-51.3793
-47.0495
-49.9863
-52.9815
-51.0787
-52.1888
-66.6532
-62.4777
-67.605
-63.9883
-92.154
-100.588
-92.1918
-100.547
-119.107
-100.388
-105.336
-87.9843
-65.0977
-62.4318
-63.0499
-66.4661
-86.6821
-79.9878
-72.2289
-71.3239
-86.2082
-79.2605
-78.7665
-73.6908
-119.038
-100.262
-105.237
-87.9002
-85.9371
-78.5089
-78.1555
-73.1865
-86.0464
-79.7845
-71.8189
-70.751
-64.9483
-62.1731
-62.9068
-66.2883
-110.472
-96.8358
-100.88
-90.8411
-110.466
-96.7224
-100.876
-90.825
-57.3653
-55.5829
-61.3263
-58.804
-57.3681
-55.5798
-61.3309
-58.8045
-0.0628954
1.5171
9.90306
12.7551
60.4264
70.8417
53.7723
75.9052
60.8992
70.9332
54.0233
75.9416
0.402533
1.17224
9.84638
12.2935
160.107
191.848
190.707
191.155
148.914
160.073
184.1
185.549
160.255
149.049
185.705
184.344
191.089
160.374
191.419
190.428
-45.9595
-48.1082
-46.5327
-48.9881
-40.7361
-41.3582
-42.6863
-43.5189
-57.8719
-59.6382
-57.2307
-60.3837
-76.5734
-77.2014
-68.3767
-72.349
-46.2049
-48.3629
-46.801
-49.3239
-76.8003
-77.903
-68.6863
-72.2889
-58.0734
-60.0737
-57.5167
-60.8972
-40.8103
-41.3885
-43.0638
-43.5899
-42.5766
-44.0242
-42.1396
-43.3201
-44.045
-42.6152
-43.3374
-42.171
-38.9287
-38.6943
-39.2645
-39.1838
-38.6682
-38.9362
-39.1645
-39.2596
-105.828
-119.229
-103.779
-114.433
-79.0399
-78.2426
-84.8849
-83.8937
-78.236
-79.0959
-83.9019
-84.9964
-119.067
-105.828
-114.351
-103.727
-52.7512
-49.1446
-53.4106
-50.9427
-52.7427
-57.8319
-55.2734
-60.3822
-56.3303
-56.7181
-56.7152
-56.6137
-55.3864
-53.6967
-54.6795
-54.2431
-52.6842
-49.0873
-53.3572
-50.8831
-55.3009
-53.6702
-54.5733
-54.1716
-56.3532
-56.7257
-56.7131
-56.5802
-52.7065
-57.8158
-55.2462
-60.3348
-41.3139
-40.5585
-41.1969
-40.6751
-41.3256
-40.5638
-41.2031
-40.6782
-43.2238
-43.9775
-42.1469
-42.701
-43.2276
-44.0089
-42.1477
-42.6993
-64.9216
-65.3888
-63.8051
-65.3731
-57.3644
-58.5555
-58.4458
-59.2491
-57.3618
-58.5561
-58.4461
-59.249
-64.8867
-65.224
-63.9188
-65.3503
-40.4902
-37.0454
-40.4878
-34.7228
-37.046
-40.5118
-34.7371
-40.5305
-50.1052
-49.8986
-49.911
-49.44
-49.8815
-50.0932
-49.4115
-49.8928
-119.167
60.5668
-155.545
-46.1535
-108.232
-119.814
-49.9982
-42.1317
-47.9706
-41.4521
-53.4102
-50.4894
-107.477
86.9159
-22.7615
44.7911
-75.3083
-25.743
-56.7664
-50.3237
-55.1614
-50.9867
-56.5038
-58.2671
-155.576
-46.0444
-119.155
61.308
-108.281
-119.76
-47.9532
-41.4316
-49.9956
-42.0685
-53.4161
-50.5187
-22.7505
44.7895
-107.697
86.969
-75.4556
-25.6905
-55.1669
-50.9996
-56.7734
-50.3423
-56.5004
-58.2641
-52.196
-50.0731
-45.4018
-43.6078
-50.5451
-47.3358
-47.875
-45.5123
-57.0132
-42.5349
-32.7436
-36.6768
-35.889
-36.6361
-38.524
-38.3547
-109.122
-142.526
-98.9432
-90.8863
-89.499
-113.309
-71.1027
-138.392
-56.3849
-60.8239
-57.401
-56.0866
-59.5563
-61.7498
-67.2064
-61.3556
-52.163
-50.078
-47.8809
-45.5301
-45.2389
-43.6358
-50.4817
-47.4549
-56.9465
-42.562
-38.0596
-38.3878
-32.6002
-37.1118
-35.8984
-36.6498
-110.792
-140.547
-72.7868
-139.684
-98.8461
-91.0802
-89.7923
-113.479
-56.646
-60.9085
-67.2715
-61.396
-57.7015
-56.3092
-59.9327
-61.8638
-111.726
84.9024
-131.049
87.1342
-97.5877
-98.5598
129.31
130.655
-157.889
-36.406
-157.919
-36.6962
-129.606
-129.612
65.9685
65.8394
-77.2751
-76.6576
-60.8308
-60.4865
-72.1027
-64.7299
-74.018
-65.5069
-51.8737
-46.5124
-55.3176
-49.6366
-55.813
-56.6862
-47.2548
-49.746
-40.3348
-32.9523
-40.314
-32.9294
-40.7058
-40.708
-31.2124
-31.198
-54.1693
-45.1434
-48.2617
-43.032
-53.5025
-54.826
-42.7164
-43.5486
-22.8245
43.7649
-22.9007
45.3631
-5.34547
-5.32843
134.793
134.846
-67.0361
-18.2967
-67.6481
-10.6409
-64.3234
-66.6936
2.62114
9.83916
-54.1983
-50.7352
-54.2004
-50.7393
-55.8229
-55.8228
-50.4328
-50.4302
-56.3381
-59.0366
-56.1604
-59.4533
-56.1466
-56.034
-61.1984
-59.8996
-111.635
84.9818
-131.032
87.0923
-97.5299
-98.4797
130.831
129.399
-77.2252
-76.6242
-60.7683
-60.4687
-72.0132
-64.6568
-73.8246
-65.4882
-51.8872
-46.5337
-55.366
-49.6453
-56.7189
-55.822
-47.4939
-49.7148
-54.1668
-45.1508
-48.2419
-43.0373
-53.4877
-54.8009
-42.7241
-43.5552
-66.8104
-18.1435
-67.2959
-10.4817
-66.4367
-64.0731
10.0421
2.77018
-56.3781
-59.052
-56.2194
-59.5057
-56.0473
-56.1602
-59.9296
-61.2614
-41.318
-40.2294
-39.3193
-37.2254
-42.7242
-41.6811
-40.259
-38.0351
-55.8404
-53.5771
-68.6314
-67.4608
-59.2129
-64.6241
-54.8516
-61.6475
-51.0332
-47.4362
-51.0339
-47.4351
-53.674
-53.6734
-46.178
-46.1071
-44.0188
-44.5594
-52.3652
-52.3673
-46.0046
-50.0135
-47.449
-50.5618
-39.7919
-38.668
-39.7858
-38.6655
-39.4498
-39.4431
-40.0207
-40.0203
-75.0466
-82.5776
-65.2903
-70.9415
-65.5615
-69.6501
-82.4601
-81.4544
-25.1213
-134.102
-25.1065
-134.235
41.1559
41.1749
-127.936
-128
-74.8921
-70.0419
-74.9041
-70.2217
-78.496
-78.5184
-68.3618
-68.375
-41.8368
-40.3578
-39.6789
-37.2915
-43.0342
-42.0883
-40.3487
-38.122
-56.0019
-53.8169
-68.9428
-67.7847
-64.8613
-59.3504
-55.1453
-61.9699
-44.029
-44.5471
-52.4183
-52.3566
-50.0787
-46.0442
-47.4214
-50.5151
-75.1227
-82.6576
-65.8866
-71.1227
-70.3293
-66.1447
-81.5535
-82.3539
-82.4296
-83.6542
-75.926
-69.1467
-70.6447
-74.6824
-68.171
-70.8202
-82.322
-83.5094
-75.8023
-69.0134
-74.2681
-70.7153
-70.4862
-67.9663
-87.2152
-87.2114
-80.8304
-70.8713
-80.8237
-70.8673
-67.0668
-67.071
28.4289
28.4207
33.874
47.0091
47.0475
33.8631
54.8449
54.811
189.576
202.208
190.043
190.083
198.096
198.208