# vtk DataFile Version 2.0
tet_velo
ASCII
DATASET UNSTRUCTURED_GRID
POINTS 29498 float
-0.863897 0.185 -1.695
-0.818207 0.285 1.805
-0.725 0.855 -1.65862
-0.648653 1.225 1.555
0.863898 0.185 -1.695
0.816642 0.285 1.805
0.725 0.855 -1.65851
0.648654 1.225 1.555
-0.826846 0.240154 -0.528334
-0.834359 0.250745 0.638333
-0.762825 1.04161 -0.587413
-0.72762 1.15518 0.483793
0.826662 0.239817 -0.528334
0.834106 0.249955 0.638333
0.762821 1.0416 -0.58734
0.727634 1.1552 0.48383
-1.65715 -0.289671 -2.55409
-1.65175 -0.205888 -1.659
-1.62096 -0.162304 -0.489858
-1.59885 -0.16715 0.698499
-1.57851 -0.147123 1.86926
-1.57731 -0.101852 2.77228
-1.58389 -0.0439977 3.66062
-1.65157 0.0838924 -2.5702
-1.64399 0.181946 -1.68554
-1.61169 0.251529 -0.534978
-1.5844 0.27011 0.624183
-1.55149 0.301823 1.77658
-1.5628 0.347833 2.67825
-1.57789 0.403628 3.5697
-1.59243 0.80806 -2.57564
-1.54682 0.902148 -1.68705
-1.54685 1.05713 -0.601567
-1.49694 1.15879 0.47716
-1.43407 1.22382 1.56448
-1.49925 1.26567 2.4701
-1.55124 1.31149 3.37695
-1.54621 2.00314 -2.65556
-1.52435 2.11116 -1.78126
-1.51677 2.28132 -0.726744
-1.5053 2.43732 0.307202
-1.49517 2.54545 1.36272
-1.51118 2.60457 2.23913
-1.53978 2.65327 3.13556
-0.858945 -0.28799 -2.56023
-0.850645 -0.201103 -1.66797
-0.822987 -0.166407 -0.488642
-0.816271 -0.182304 0.710575
-0.809079 -0.162528 1.89036
-0.816328 -0.113107 2.7866
-0.824384 -0.05178 3.66891
-0.865149 0.079577 -2.57207
-0.821595 0.338656 2.69006
-0.82803 0.39721 3.57596
-0.817913 0.786149 -2.56381
-0.772438 1.26398 2.4682
-0.813847 1.30921 3.37655
-0.771246 1.98624 -2.64387
-0.750838 2.09433 -1.76838
-0.75174 2.27374 -0.718972
-0.75521 2.4388 0.306286
-0.756071 2.54957 1.35609
-0.772745 2.6077 2.2325
-0.797103 2.65499 3.13074
0.785827 -0.288064 -2.56021
0.833633 -0.201197 -1.66796
0.825149 -0.166733 -0.488638
0.82727 -0.182885 0.710578
0.807937 -0.162744 1.89036
0.748042 -0.113282 2.7866
0.714286 -0.0519741 3.66892
0.768919 0.0795346 -2.57204
0.716974 0.338541 2.69006
0.693136 0.39704 3.57597
0.730126 0.786121 -2.56374
0.660229 1.26389 2.46821
0.667778 1.30906 3.37656
0.771491 1.98617 -2.64381
0.781392 2.09426 -1.76832
0.770936 2.27366 -0.718924
0.738753 2.4387 0.306319
0.708287 2.54946 1.35611
0.694335 2.60757 2.23251
0.686164 2.65484 3.13076
1.60167 -0.289853 -2.55403
1.64445 -0.206123 -1.65896
1.6325 -0.162854 -0.489833
1.61858 -0.168024 0.698514
1.58644 -0.147677 1.86926
1.5302 -0.102271 2.77229
1.49151 -0.0444095 3.66064
1.58699 0.083765 -2.57013
1.64405 0.181811 -1.68549
1.6218 0.251065 -0.534943
1.59929 0.269234 0.624201
1.55947 0.301362 1.77658
1.49762 0.347488 2.67826
1.46695 0.403256 3.56972
1.5369 0.807968 -2.57553
1.55202 0.902087 -1.68692
1.55785 1.05696 -0.601473
1.50826 1.15846 0.477209
1.4372 1.22352 1.56449
1.42508 1.2654 2.47011
1.42902 1.31116 3.37697
1.54838 2.00299 -2.65546
1.55265 2.11101 -1.78116
1.53839 2.28114 -0.726655
1.49866 2.43709 0.307265
1.45881 2.54519 1.36276
1.44324 2.60428 2.23916
1.43846 2.65295 3.13559
-0.84753 0.52 -1.72989
4.76837e-07 0.185399 -1.6946
-0.849499 0.20845 -1.11167
-0.836563 0.755 1.78313
-0.00078252 0.250727 1.83927
-0.82516 0.268996 1.22167
0 0.924601 -1.72817
-0.772702 0.977093 -1.12302
5.06639e-07 1.31338 1.64338
-0.702166 1.20412 1.0194
0.847598 0.52 -1.7299
0.848264 0.209424 -1.11167
0.836291 0.755 1.78364
0.824545 0.268307 1.22167
0.772724 0.977115 -1.12293
0.702161 1.20412 1.01942
-0.831547 0.244505 0.0549999
-0.899007 0.64088 -0.557873
-9.21242e-05 0.199121 -0.528334
-0.899585 0.702964 0.561063
-0.000126747 0.216076 0.638333
-0.742242 1.09542 -0.05181
-1.56441e-06 1.40076 -0.587377
7.30516e-06 1.64838 0.483812
0.831257 0.244013 0.0549999
0.899002 0.64071 -0.557837
0.899587 0.702577 0.561082
0.742254 1.09543 -0.051755
-0.89424 0.58044 -1.11734
-0.899506 0.671922 0.00159496
-0.899381 0.728982 1.12053
-4.58237e-05 0.191389 -1.11167
-0.000109435 0.20498 0.0549999
-0.000454633 0.250852 1.22167
2.38419e-07 0.52 -2.01643
-0.000391006 0.755 1.92976
-7.82205e-07 1.04496 -1.12297
2.87038e-06 1.61773 -0.0517825
3.9059e-06 1.62049 1.01941
0.894242 0.580355 -1.1173
0.899511 0.671644 0.00162247
0.899379 0.728788 1.12054
-1.25394 0.183473 -1.69027
-0.857271 -0.00805131 -1.68148
-0.864523 0.132288 -2.13354
-1.18485 0.293411 1.79079
-0.813643 0.061236 1.84768
-0.819901 0.311828 2.24753
-1.13591 0.878574 -1.67284
-0.771456 0.820574 -2.11121
-0.737919 1.47467 -1.7135
-1.04136 1.22441 1.55974
-0.710545 1.24449 2.0116
-0.702362 1.88729 1.45555
0.848766 -0.00809863 -1.68148
0.816409 0.132267 -2.13352
1.25398 0.183405 -1.69025
0.812289 0.0611281 1.84768
0.766808 0.31177 2.24753
1.18805 0.293181 1.79079
0.727563 0.82056 -2.11113
0.753196 1.47463 -1.71341
1.13851 0.878544 -1.67272
0.654442 1.24444 2.0116
0.67847 1.88723 1.45556
1.04293 1.22426 1.55974
-1.21927 0.245842 -0.531656
-0.824917 0.0368736 -0.508488
-1.20938 0.260427 0.631258
-0.825315 0.0342201 0.674454
-1.15483 1.04937 -0.59449
-0.757282 1.65767 -0.653193
-1.11228 1.15699 0.480477
-0.741415 1.79699 0.39504
0.825905 0.0365422 -0.508486
1.22423 0.245441 -0.531638
0.830688 0.0335348 0.674456
1.2167 0.259595 0.631267
0.766879 1.65763 -0.653132
1.16033 1.04928 -0.594406
0.733194 1.79695 0.395075
1.11795 1.15683 0.48052
-1.65445 -0.247779 -2.10654
-1.65436 -0.102889 -2.56214
-1.25805 -0.28883 -2.55716
-1.63635 -0.184096 -1.07443
-1.64787 -0.0119709 -1.67227
-1.2512 -0.203495 -1.66348
-1.60991 -0.164727 0.104321
-1.61633 0.0446125 -0.512418
-1.22198 -0.164356 -0.48925
-1.58868 -0.157137 1.28388
-1.59162 0.0514798 0.661341
-1.20756 -0.174727 0.704537
-1.57791 -0.124487 2.32077
-1.565 0.07735 1.82292
-1.19379 -0.154825 1.87981
-1.5806 -0.0729247 3.21645
-1.57006 0.12299 2.72526
-1.19682 -0.107479 2.77944
-1.58089 0.179815 3.61516
-1.20414 -0.0478888 3.66477
-1.64778 0.132919 -2.12787
-1.622 0.445976 -2.57292
-1.25836 0.0817347 -2.57114
-1.62784 0.216737 -1.11026
-1.59541 0.542047 -1.6863
-1.59804 0.260819 0.0446027
-1.57927 0.654328 -0.568272
-1.56794 0.285966 1.20038
-1.54067 0.71445 0.550671
-1.55715 0.324828 2.22741
-1.49278 0.762819 1.67053
-1.57035 0.37573 3.12398
-1.53103 0.806753 2.57417
-1.1922 0.343244 2.68415
-1.56456 0.857558 3.47333
-1.20296 0.400419 3.57283
-1.56963 0.855104 -2.13135
-1.56932 1.4056 -2.6156
-1.20517 0.797104 -2.56972
-1.54683 0.979637 -1.14431
-1.53559 1.50666 -1.73416
-1.52189 1.10796 -0.0622036
-1.53181 1.66922 -0.664156
-1.4655 1.1913 1.02082
-1.50112 1.79806 0.392181
-1.46666 1.24474 2.01729
-1.46462 1.88463 1.4636
-1.52524 1.28858 2.92352
-1.50522 1.93512 2.35461
-1.13585 1.26483 2.46915
-1.54551 1.98238 3.25625
-1.18254 1.31035 3.37675
-1.53528 2.05715 -2.21841
-1.15873 1.99469 -2.64972
-1.52056 2.19624 -1.254
-1.1376 2.10275 -1.77482
-1.51103 2.35932 -0.209771
-1.13425 2.27753 -0.722858
-1.50023 2.49139 0.834963
-1.13025 2.43806 0.306744
-1.50317 2.57501 1.80092
-1.12562 2.54751 1.35941
-1.52548 2.62892 2.68734
-1.14196 2.60614 2.23581
-1.16844 2.65413 3.13315
-0.854795 -0.244546 -2.1141
-0.862047 -0.104206 -2.56615
-0.0365592 -0.288027 -2.56022
-0.836816 -0.183755 -1.07831
-0.00850581 -0.20115 -1.66797
-0.819629 -0.174356 0.110967
0.0010808 -0.16657 -0.48864
-0.812675 -0.172416 1.30047
0.00549971 -0.182595 0.710577
-0.812703 -0.137818 2.33848
-0.000570905 -0.162636 1.89036
-0.820356 -0.0824435 3.22775
-0.818962 0.112775 2.73833
-0.0341433 -0.113194 2.7866
-0.826207 0.172715 3.62244
-0.055049 -0.0518771 3.66892
-0.841531 0.432863 -2.56794
-0.0481148 0.0795558 -2.57206
-0.824813 0.367933 3.13301
-0.797017 0.801317 2.57913
-0.0523107 0.338599 2.69006
-0.820939 0.853208 3.47626
-0.0674469 0.397125 3.57596
-0.79458 1.3862 -2.60384
-0.0438934 0.786135 -2.56377
-0.793142 1.28659 2.92238
-0.772592 1.93584 2.35035
-0.0561042 1.26393 2.46821
-0.805475 1.9821 3.25365
-0.0730344 1.30913 3.37655
-0.761042 2.04029 -2.20612
0.000122515 1.98621 -2.64384
-0.751289 2.18404 -1.24367
0.015277 2.0943 -1.76835
-0.753475 2.35627 -0.206343
0.00959812 2.2737 -0.718948
-0.755641 2.49419 0.831188
-0.0082283 2.43875 0.306303
-0.764408 2.57864 1.79429
-0.0238924 2.54952 1.3561
-0.784924 2.63135 2.68162
-0.0392053 2.60763 2.23251
-0.0554696 2.65491 3.13075
0.80973 -0.244631 -2.11408
0.777373 -0.104265 -2.56612
1.19375 -0.288959 -2.55712
0.829391 -0.183965 -1.0783
1.23904 -0.20366 -1.66346
0.82621 -0.174809 0.11097
1.22882 -0.164794 -0.489235
0.817604 -0.172815 1.30047
1.22293 -0.175454 0.704546
0.777989 -0.138013 2.33848
1.19719 -0.155211 1.87981
0.731164 -0.0826279 3.22776
0.732508 0.11263 2.73833
1.13912 -0.107776 2.77944
0.703711 0.172533 3.62244
1.1029 -0.0481918 3.66478
0.749523 0.432828 -2.56789
1.17795 0.0816498 -2.57109
0.705055 0.367791 3.13301
0.688602 0.801215 2.57913
1.1073 0.343014 2.68416
0.680457 0.85305 3.47626
1.08004 0.400148 3.57284
0.750809 1.38615 -2.60378
1.13351 0.797044 -2.56963
0.664004 1.28647 2.92238
0.677282 1.93573 2.35036
1.04265 1.26464 2.46916
0.676971 1.98195 3.25366
1.0484 1.31011 3.37676
0.776442 2.04022 -2.20606
1.15994 1.99458 -2.64964
0.776164 2.18396 -1.24362
1.16702 2.10264 -1.77474
0.754845 2.35618 -0.206302
1.15466 2.2774 -0.722789
0.72352 2.49408 0.831215
1.11871 2.43789 0.306792
0.701311 2.57851 1.79431
1.08355 2.54732 1.35944
0.690249 2.6312 2.68164
1.06879 2.60592 2.23584
1.06231 2.65389 3.13317
1.62306 -0.247988 -2.1065
1.59433 -0.103044 -2.56208
1.63848 -0.184489 -1.0744
1.64425 -0.0121565 -1.67223
1.62554 -0.165439 0.104341
1.62715 0.0441053 -0.512388
1.60251 -0.15785 1.28389
1.60894 0.0506052 0.661358
1.55832 -0.124974 2.32078
1.57295 0.0768422 1.82292
1.51086 -0.0733403 3.21646
1.51391 0.122608 2.72527
1.47923 0.179423 3.61518
1.61552 0.132788 -2.12781
1.56194 0.445867 -2.57283
1.63293 0.216438 -1.11022
1.59804 0.541949 -1.68621
1.61054 0.260149 0.0446289
1.58982 0.654012 -0.568208
1.57938 0.285298 1.20039
1.55378 0.713846 0.550705
1.52854 0.324425 2.22742
1.49833 0.762439 1.67054
1.48229 0.375372 3.12399
1.46135 0.806443 2.57418
1.44798 0.857209 3.47335
1.54446 0.855028 -2.13123
1.54264 1.40548 -2.61549
1.55493 0.979524 -1.1442
1.55234 1.50655 -1.73404
[...]
POINT_DATA 29498
VECTORS point_vectors float
-5.7831 -6.78222 18.5572
0.21872 0.234965 2.3068
-1.25413 0.822814 2.1505
-0.0576644 -0.0774649 0.0339138
5.73958 -6.73855 18.5439
-0.214498 0.219815 2.18256
1.25055 0.819528 2.14782
0.0580048 -0.0769053 0.0331603
0.0235654 0.0211703 0.660625
0.0112142 -0.00499816 0.354482
0 0 0
-1.10149e-17 -1.90116e-17 -5.43962e-17
-0.0249406 0.0205299 0.672676
-0.0133269 -0.00528572 0.411862
0 0 0
0 0 0
-0.775069 -0.498403 20.1227
-1.06577 -0.745134 20.898
-0.359034 -0.47634 21.5925
0.142846 -0.190945 21.7491
0.64968 0.0831468 21.7583
0.974056 0.243582 21.4853
1.00464 0.249331 21.2752
-0.992625 -0.439935 19.9595
-1.57394 -0.729318 20.8777
-0.550822 -0.628011 21.7012
0.0783347 -0.41171 21.8323
0.749813 -0.233365 21.9197
1.20189 -0.128958 21.6268
1.33455 -0.254492 21.5381
-1.22728 0.0250776 19.6962
-2.24586 0.0540709 20.5622
-1.51595 -0.414388 21.6929
-0.600866 -0.554839 21.988
0.0769793 -0.736229 21.9394
0.537281 -0.816104 21.7226
0.789512 -0.882032 21.3787
-0.626733 0.401568 19.9963
-0.935041 0.630923 20.3603
-0.987295 0.58136 21.088
-0.634727 0.224224 21.5603
-0.251725 -0.0526584 21.5602
-0.0699141 -0.227761 21.4703
0.059069 -0.358052 21.1663
-0.911999 -1.23658 19.4933
-1.53219 -2.6448 21.5778
-0.237346 -0.269142 22.1002
0.188994 0.187123 21.7394
0.689717 0.974525 21.6891
1.21881 1.51425 21.0806
1.54006 1.67992 20.5665
-1.42886 -1.2444 18.7397
2.01157 1.08427 12.3029
2.57325 1.33344 15.3984
-1.79233 0.374789 17.8599
-0.0523122 -0.682637 7.00117
1.67401 -1.65413 12.4805
-0.532327 0.802573 19.604
-0.951628 1.50785 19.9772
-1.17095 1.66213 21.0615
-0.703748 0.771024 21.8495
-0.29882 0.0930205 21.7613
-0.149519 -0.177741 21.7173
0.0539237 -0.466764 21.2325
0.890343 -1.31433 19.4305
1.50927 -2.67731 21.6049
0.230125 -0.263311 22.1072
-0.204914 0.185868 21.7749
-0.685921 0.973396 21.6736
-1.12279 1.59245 20.93
-1.44938 1.9412 20.1173
1.38454 -1.32727 18.5118
-1.85224 1.09773 9.15571
-2.57448 1.90082 12.8365
1.74901 0.449817 17.5767
0.644812 -0.951694 2.01127
-1.37864 -1.41619 8.2998
0.533078 0.802332 19.6035
0.974309 1.46268 19.9956
1.1797 1.61636 21.0654
0.699444 0.783586 21.8558
0.287666 0.114137 21.7851
0.146977 -0.161582 21.733
-0.0441341 -0.434628 21.1439
0.799624 -0.525154 20.101
1.07111 -0.752598 20.9042
0.359122 -0.47574 21.5875
-0.133718 -0.198503 21.7466
-0.649783 0.0731093 21.7548
-1.00435 0.279955 21.5084
-1.08072 0.331831 21.1986
1.03986 -0.474127 19.8993
1.57169 -0.730231 20.8769
0.550181 -0.621381 21.6947
-0.0733792 -0.409666 21.8267
-0.740207 -0.23753 21.9147
-1.31206 -0.124049 21.6444
-1.52898 -0.170184 21.5119
1.27267 0.0317704 19.6274
2.23091 0.0530536 20.5654
1.49242 -0.412373 21.6867
0.594793 -0.546062 21.9733
-0.075721 -0.733562 21.9341
-0.521836 -0.912322 21.8113
-0.844693 -0.993986 21.6455
0.627111 0.401006 19.997
0.927799 0.61308 20.3684
0.9756 0.560554 21.0815
0.637488 0.229805 21.5626
0.243531 -0.055706 21.5747
0.0716386 -0.246305 21.5111
-0.0605927 -0.352519 21.2741
-0.475528 -0.0668392 0.895723
0.000910665 -0.0826984 0.591233
0.0171955 -0.000603888 0.834021
0.0575845 -0.0811707 0.23889
-0.00266629 0.0417996 0.276631
0.0150286 0.0136415 0.513832
4.1395e-05 0.147227 0.348934
-0.245879 -0.163053 0.471312
-0.000386779 0.0227281 -0.0244838
0.00327189 0.00742057 0.0290703
0.482047 -0.068052 0.907819
-0.0175575 -0.000454815 0.774764
-0.0553642 -0.0816 0.221286
-0.010054 0.0124823 0.455802
0.24826 -0.16454 0.473351
-0.00334358 0.00757176 0.0296453
0.00286014 0.0129554 0.715988
1.72656e-05 0.000557216 0.00621923
0.000121121 -0.000119837 0.0287954
2.79813e-05 0.000546565 0.00308139
-2.11224e-06 5.74666e-05 0.00183954
0 0 0
-9.37674e-07 0.0265544 0.0445357
-3.18826e-06 0.000589494 0.021595
-0.00488139 0.011702 0.744213
-1.60926e-05 0.000516493 0.00577348
-8.32686e-06 0.000402057 0.00259209
0 0 0
0 0 0
0.000204702 0.0102308 0.0558583
0.000510555 0.00438837 0.0522892
4.59113e-08 5.79146e-08 6.09483e-06
-2.19531e-06 -2.39943e-06 -0.000221548
0 0 0
9.92989e-05 -0.0425068 0.0237553
-0.000200648 -0.023413 0.00580176
0 0 0
1.21463e-05 0.0221482 0.127433
-1.08388e-05 -0.000453754 0.00552747
0 0 0
-0.000211793 0.0102709 0.0558137
-0.000552559 0.00438425 0.0522976
-2.78779 -1.62408 21.1291
-2.48854 -4.01154 22.1269
-3.2071 -2.96498 18.2607
1.25328 -0.000967683 20.9299
1.04014 1.15439 17.745
1.41151 0.759283 8.68438
-4.55736 0.714355 20.5387
-4.66519 2.11585 16.052
-2.31473 2.76015 19.4857
0.208626 -0.741 19.3485
-0.830596 -0.516485 3.30345
-0.649152 -0.116229 21.5819
2.46612 -4.06753 22.1604
3.25274 -3.26283 17.9771
2.78595 -1.62446 21.1327
-1.04773 1.16123 17.769
-1.16184 0.561962 6.79135
-1.24896 -0.0138147 20.9826
4.5938 2.39773 15.6425
2.33565 2.69227 19.5131
4.52782 0.703661 20.5422
1.06041 -0.468123 1.4044
0.653706 -0.0847711 21.5562
-0.20101 -0.753807 19.405
-0.231574 -0.990278 21.8757
0.188857 0.230136 16.8509
0.327444 -0.469623 21.0059
0.533452 0.23096 17.0677
-2.59028 -1.08655 22.2841
-3.72865 2.9085 21.1174
-0.725346 -0.970056 21.4103
-1.75346 0.754463 22.7236
-0.201167 0.225607 16.9166
0.23981 -0.990647 21.9104
-0.54605 0.224958 17.2088
-0.322814 -0.480399 21.1206
3.71425 2.82221 21.1464
2.56917 -1.07318 22.2738
1.74961 0.776293 22.6997
0.740061 -0.961996 21.4693
-1.00661 -0.682571 20.4294
-0.905846 -0.483859 20.0238
-0.944461 -0.818376 19.8549
-0.735467 -0.635656 21.4068
-1.31371 -0.762078 20.9084
-1.44788 -1.41854 21.1192
-0.0797034 -0.321262 21.6936
-0.455942 -0.553115 21.6458
-0.193909 -0.491057 21.8595
0.37054 -0.0662001 21.8114
0.119658 -0.291096 21.752
0.277166 -0.0806357 21.8928
0.830235 0.165675 21.652
0.69443 -0.0607792 21.7947
0.856518 0.426654 21.9456
1.07566 0.266298 21.4168
1.11411 0.0896006 21.5826
1.31226 0.705403 21.4818
1.16304 0.0562832 21.3887
1.54142 0.859362 21.1859
-1.39123 -0.641452 20.2891
-1.19623 -0.227416 19.7641
-1.29022 -0.723954 19.5001
-1.08033 -0.718802 21.4894
-2.01003 -0.465891 20.7932
-0.191002 -0.514948 21.7707
-1.00541 -0.687829 21.7422
0.366739 -0.319631 21.919
-0.20637 -0.559764 21.9383
0.997228 -0.175237 21.802
0.541487 -0.601019 22.0159
1.35766 -0.119928 21.2573
1.05448 -0.602685 21.7744
1.93688 0.143724 20.9017
1.34871 -0.596045 21.2932
2.21449 0.164455 20.0781
-1.86541 0.0981008 19.9537
-0.913927 0.351099 19.8284
-1.6215 0.173281 19.0423
-1.98372 -0.196519 21.3052
-1.56826 0.627244 20.3398
-1.04733 -0.527185 21.9231
-1.55168 0.328441 21.3336
-0.22167 -0.606727 21.9919
-0.856934 -0.0593226 21.8459
0.2776 -0.790635 21.8542
-0.289379 -0.337826 21.7565
0.716072 -0.876016 21.6779
0.020989 -0.538443 21.6606
0.497633 -1.17375 21.1812
0.27859 -0.665647 21.4021
1.03424 -1.29304 20.6038
-0.797544 0.535694 20.1444
-0.642528 0.600853 19.8031
-1.0125 0.661036 20.7202
-1.0365 1.02901 20.1923
-0.822902 0.414282 21.3721
-1.16505 1.02341 21.0946
-0.435948 0.0692334 21.6162
-0.713882 0.456896 21.6833
-0.158928 -0.139739 21.4676
-0.241867 -0.00759122 21.6723
0.00630483 -0.309768 21.4722
-0.106099 -0.248976 21.5585
0.0408185 -0.444475 21.5199
-1.4894 -2.25108 19.9209
-1.18913 -1.32557 19.1443
-0.047925 -1.92932 18.9694
-0.677496 -1.03595 22.3529
-0.0142569 -3.68772 22.2628
-0.0016014 -0.026742 21.7809
0.00959797 -0.512007 21.7096
0.40277 0.469439 21.6638
0.00874653 0.0757439 20.8139
0.970246 1.28355 21.1593
-0.0193001 0.879019 20.3189
1.40158 1.52941 20.5047
1.73169 1.65672 18.1748
0.0177919 1.66927 19.33
2.10675 1.68672 16.9566
0.109055 2.30609 18.8637
-1.88103 -0.61215 17.9366
-0.116639 -2.0967 17.4576
2.49717 1.48711 14.6086
0.808375 -1.26655 6.36606
0.0314272 0.535286 3.83949
2.78564 -0.747152 11.7271
0.167413 2.45766 5.52714
-1.0661 1.01837 18.8746
-0.142007 0.802787 16.0082
0.454077 -1.24956 9.69642
-0.354423 -0.48584 21.4437
-0.227135 0.766684 -5.26221
0.0431048 -1.10629 21.1474
0.0937397 0.585006 -5.56755
-0.741224 1.18792 19.7316
0.000440519 1.04528 19.366
-1.11374 1.69257 20.4283
0.0173261 2.00413 19.7122
-1.00294 1.2995 21.6089
0.024825 2.57022 20.9274
-0.457654 0.331183 21.9423
-0.0105144 1.26781 22.0133
-0.261151 -0.062874 21.8304
-0.0113821 0.32357 21.7925
-0.0729164 -0.245742 21.5335
-0.0169917 -0.0438887 21.6727
0.0316233 -0.362918 21.2689
1.45231 -2.3574 19.9191
1.14296 -1.38459 18.9946
0.943135 -0.880744 19.8073
0.67459 -1.03265 22.3651
1.45907 -1.45688 21.1343
-0.0133537 -0.019201 21.8131
0.194176 -0.492317 21.8551
-0.400156 0.473601 21.6601
-0.274551 -0.0906877 21.8822
-0.915415 1.31741 21.0723
-0.848958 0.421576 21.9464
-1.25692 1.74993 20.1071
-1.48637 1.81529 16.9201
-1.3655 0.844231 21.4127
-2.01918 1.97659 16.4462
-1.68715 1.03999 21.1876
1.8077 -0.673175 17.6436
1.36311 -0.836815 19.3618
-2.43321 1.64182 11.065
-0.422125 -1.1821 2.88488
-2.09111 0.367062 20.0577
-2.52311 -0.422349 6.44033
-2.47562 0.369789 19.3775
1.03557 1.05253 18.8209
1.68107 0.203446 18.8577
0.144874 -1.2713 4.88017
0.382819 -0.400373 21.2706
-0.489745 -1.05298 19.7673
0.0601162 -1.01482 21.4386
-1.26292 -1.4213 17.656
0.750326 1.1721 19.7406
0.642823 0.600359 19.803
1.1338 1.64876 20.4422
1.03709 0.996519 20.2064
1.00363 1.29799 21.6079
1.15829 0.993698 21.0944
0.454571 0.347179 21.953
0.713994 0.469503 21.6858
0.246374 -0.0392805 21.8392
0.248966 0.0168859 21.6687
0.0754482 -0.212253 21.562
0.118455 -0.220996 21.5118
-0.0246914 -0.473302 21.5852
1.0323 -0.714549 20.4256
0.934707 -0.518836 19.9866
0.734652 -0.635238 21.4058
1.31777 -0.768287 20.9084
0.0791441 -0.323748 21.6836
0.454089 -0.549972 21.6394
-0.36409 -0.0718486 21.8092
-0.112379 -0.293933 21.7483
-0.845456 0.170026 21.6422
-0.689628 -0.0559501 21.8061
-1.11671 0.320834 21.3706
-1.19748 0.118179 21.5945
-1.37153 0.103345 21.3161
1.46204 -0.672275 20.2577
1.25145 -0.24239 19.7048
1.07447 -0.714463 21.4817
2.00238 -0.464951 20.7961
0.191441 -0.510138 21.7642
0.992788 -0.678814 21.73
-0.362461 -0.318777 21.9087
0.206404 -0.556609 21.9288
-1.0257 -0.173778 21.8101
-0.535919 -0.596912 22.017
-1.46896 -0.106054 21.3621
-1.14143 -0.697274 21.7384
-1.53997 -0.624856 21.471
1.91271 0.103526 19.919
0.923001 0.361569 19.8054
1.96627 -0.193029 21.2978
1.53904 0.612738 20.3482
1.03273 -0.517166 21.9076
1.52676 0.315033 21.3304
0.221311 -0.601697 21.9848
0.85524 -0.0605616 21.8433
-0.268453 -0.834137 21.8739
0.298862 -0.339968 21.7611
-0.752419 -1.00696 21.7435
0.00552259 -0.558907 21.6872
-0.25478 -0.697357 21.4328
0.795221 0.527665 20.1499
1.00385 0.64169 20.7253
0.818855 0.407863 21.3697
0.445061 0.0831823 21.6238
0.169576 -0.156833 21.5059
0.0128445 -0.311192 21.4433
-1.22541 -0.680637 20.3435
-2.20466 -2.8537 19.3115
-1.33844 -1.22623 20.2423
-2.25328 -1.28816 19.7353
-1.12796 -0.805436 19.6719
-2.02891 -1.61499 21.1488
-0.904821 -0.694206 21.4568
-0.502878 -0.596544 20.7761
-0.753651 -0.931152 21.8182
-1.226 -1.28529 22.2532
-0.146935 -0.67876 21.9925
-0.137802 -0.425725 21.7273
0.379008 0.17355 16.727
0.070897 -0.268234 21.8429
0.105133 -0.715195 21.5169
0.388876 -0.262719 21.8174
0.368318 -0.179156 21.8597
0.713494 0.502631 17.0596
0.528853 0.126267 21.9616
0.648007 -0.277173 20.9347
1.14173 0.283344 21.7059
0.924014 0.0246635 21.7144
1.37317 1.45449 17.8197
1.09627 0.586778 21.7631
1.67142 0.101972 20.7401
1.71267 0.538312 21.4467
1.23489 0.151825 21.3393
2.09806 1.91887 17.9146
1.41997 0.725575 21.2567
2.10045 0.214073 20.3459
1.92204 0.539246 21.1259
-1.78121 -0.338574 20.0868
-5.16063 -1.14862 15.8545
-3.10037 0.512403 19.0171
-1.63056 -0.406479 19.1408
-4.24319 -0.846582 21.0452
-1.56074 -0.607493 21.5063
-3.42837 -0.49505 21.8519
-1.01688 -1.44211 21.91
-0.560037 -0.648105 21.8668
-1.47245 -1.17631 21.7577
0.0250798 -0.600017 19.7141
0.125424 -0.541858 22.0127
-0.141274 -0.722795 20.5309
0.933935 -0.307772 18.2506
0.809925 -0.63389 21.8989
-0.171086 -1.91925 3.34582
0.183198 -1.02541 20.3373
1.50777 -0.802365 19.4351
1.19224 -0.622774 21.585
1.8479 -0.868774 9.65042
0.895599 -1.26418 21.2334
1.98396 -0.801008 20.8242
-1.27945 0.531634 19.9773
-1.66091 1.92743 18.8602
-0.856753 0.845016 19.9398
-1.08697 0.639007 19.4253
-2.15833 1.37355 20.0369
-1.66467 0.519659 20.883
-2.84298 2.65739 20.1361
-1.17638 1.11297 20.6153
-2.45778 0.944149 21.4486
-1.25632 0.120586 21.6907
-3.13824 1.80344 22.7746
-0.987766 0.773132 21.4981
-1.23217 0.114016 22.1752
-0.529909 -0.21136 21.8316
-0.959796 0.141031 22.1615
-0.455689 0.167759 21.8164
-0.484395 -0.341563 21.9432
-0.13766 -0.432638 21.7391
-0.573387 -0.198034 21.6909
-0.195656 -0.139272 21.6846
-0.138207 -0.572835 21.8078
0.179112 -0.634409 21.6104
-0.191365 -0.815857 21.4227
-0.0695189 -0.311817 21.3553
0.200561 -0.741867 21.2698
2.19937 -3.09957 19.2025
-0.0494926 -3.70334 19.6791
-0.113437 -7.19338 15.915
-0.0739597 -2.11603 18.2819
-0.000574555 -5.03835 23.6235
0.495332 -0.585789 20.6406
0.0027564 -1.44916 22.9062
0.014849 -0.0626729 12.4359
-0.395945 0.173294 16.8385
0.0120248 -0.188651 20.8618
0.0182375 0.1805 12.1817
-0.699743 0.488013 17.1385
0.0107439 0.346049 20.2551
-0.032969 0.764919 12.6887
-1.27303 1.5093 16.9234
-0.000122103 1.2613 19.5557
0.00723737 -0.0493601 2.20452
0.0372571 1.4506 12.4438
-1.92505 2.1609 17.4546
0.0320425 2.04928 19.4138
0.104792 1.49776 5.33747
0.202331 2.42786 12.9887
5.30086 -1.23143 15.1917
-0.193537 5.26035 11.7187
-0.146982 -0.990798 15.9099
0.494924 -2.04387 2.05634
-0.109906 -0.0334717 -3.64045
-0.00597576 0.961867 -1.00583
-1.39446 -0.695795 5.13864
-0.272823 1.89775 -5.80458
0.479381 3.63002 -1.93512
1.65138 1.95979 18.833
0.0106987 1.56825 19.4752
-0.0349719 1.51855 18.2028
0.0344945 4.09052 18.823
2.84998 2.60777 20.1587
0.0232738 2.40453 20.1751
0.0303646 6.06462 20.1321
3.13534 1.79684 22.7727
0.00121481 2.09093 21.716
-0.012394 2.04972 22.9138
0.963786 0.167342 22.1667
-0.0162742 0.61282 22.108
-0.0174285 0.408148 18.3867
0.594935 -0.121292 21.5649
-0.0135034 0.112892 21.8453
-0.0668536 0.0594531 16.9994
0.243933 -0.736845 21.1972
-0.0231307 -0.213883 21.7495
-0.115969 -0.597778 18.621
1.26823 -0.720327 20.3277
1.37847 -1.30437 20.2067
2.35007 -1.38886 19.6473
1.15197 -0.892012 19.5648
2.04245 -1.63888 21.1599
0.90164 -0.692964 21.453
0.749145 -0.931884 21.822
1.22198 -1.28244 22.2421
0.151365 -0.683656 21.9858
0.136183 -0.42172 21.7239
-0.0693547 -0.274394 21.8364
-0.0980931 -0.720898 21.5969
-0.379301 -0.271046 21.8282
-0.359721 -0.18588 21.8362
-0.522888 0.11615 21.9587
-0.641268 -0.287466 21.03
-1.13502 0.27191 21.7228
-0.944431 0.0283101 21.7236
-1.10708 0.628788 21.7709
-1.74253 0.186986 20.3123
-1.82539 0.719803 21.2106
-1.3334 0.167682 21.4216
-1.50878 0.936529 21.3456
-2.34003 0.4229 19.3834
-2.10946 0.773277 20.5988
1.834 -0.346595 20.0525
3.29759 0.586119 18.8515
1.70235 -0.434019 18.9498
4.22967 -0.846726 21.0437
1.54538 -0.605041 21.5019
3.40529 -0.49168 21.845
1.02965 -1.43487 21.9962
0.556136 -0.642507 21.8596
1.4701 -1.15984 21.8031
-0.0194861 -0.643822 19.9656
-0.117773 -0.535924 22.006
0.15453 -0.742372 20.6146
-0.929528 -0.319509 18.3457
-0.838909 -0.664872 21.8842
-0.165947 -0.923655 19.4767
-1.56752 -0.696751 17.3342
-1.34468 -0.710122 21.5838
-0.905184 -1.25702 19.8794
-2.35166 -0.891775 18.5887
1.28423 0.533263 19.9734
0.859427 0.833918 19.9446
1.08617 0.668364 19.387
2.14555 1.33204 20.0543
1.64472 0.506208 20.8833
1.17591 1.08371 20.623
2.42826 0.910326 21.4514
1.24149 0.115171 21.68
0.985936 0.767164 21.4964
1.23778 0.117142 22.1772
0.532812 -0.210336 21.8342
0.460321 0.187637 21.829
0.498785 -0.332336 21.9542
0.157853 -0.440628 21.7383
0.192418 -0.10652 21.7055
0.205808 -0.58472 21.8381
-0.152536 -0.706729 21.6659
0.0656627 -0.325592 21.4028
-0.158316 -0.865642 21.4178
-1.76906 -1.32381 20.0366
-0.924618 -1.09083 22.008
0.163361 -0.449401 21.8753
0.684305 -0.053874 21.8011
1.49101 0.45066 21.5341
1.71205 0.553147 21.5062
-3.06595 -0.609164 19.2047
-2.17546 -1.30096 22.5692
-0.333908 -1.05924 20.6042
0.3207 -0.269092 18.8855
1.25842 -0.656805 19.0416
1.89062 -0.829162 20.3672
-1.65284 1.08427 19.5345
-2.41515 1.22737 20.72
-1.95139 0.484317 22.072
-0.745867 -0.154697 22.0977
-0.32324 -0.448228 21.8826
0.0229133 -0.761645 21.7499
-0.0652035 -5.23071 18.5942
0.0148024 -0.75384 17.2917
0.0196336 0.0406335 11.9
-0.0081498 0.300712 11.8271
-0.0131841 0.994873 12.0296
0.0673614 2.18809 13.355
-0.230107 -2.27009 8.7541
-0.0322449 -1.51765 0.593786
0.0576913 1.31543 -2.55681
-0.0217113 2.96463 18.0918
0.0292949 4.57871 19.0735
0.00149349 4.61168 22.9981
-0.0155317 0.789424 21.3424
-0.0432101 0.409526 18.4608
-0.0865086 -0.0971419 17.8846
1.81968 -1.41196 19.9894
0.921047 -1.08983 22.0071
-0.157577 -0.454717 21.8792
-0.67411 -0.0681913 21.8397
-1.52305 0.517144 21.4626
-1.84964 0.773918 21.0186
3.22154 -0.626833 19.0387
2.16894 -1.29509 22.5543
0.344126 -1.06964 20.7459
-0.320313 -0.298013 19.0711
-1.24014 -0.566482 17.5934
-2.01839 -0.652552 18.802
1.65759 1.10188 19.5233
2.39026 1.18725 20.7319
1.93984 0.474185 22.0668
0.758821 -0.149878 22.1097
0.371345 -0.430554 21.9263
0.0446211 -0.78573 21.7827
-0.826785 -0.218046 1.25042
-0.0187802 -0.070652 0.448385
-0.00416466 -0.0506631 1.05047
0.109976 -0.0482308 0.246989
-0.000796903 0.0476189 0.156892
0.0134958 0.03821 0.918391
-1.46771 0.20739 1.91754
-0.0614769 0.517633 0.86224
-0.28346 -0.0808389 0.786927
0 0 0
-0.0142517 0.0057533 -0.00872681
0.0076374 0.0148622 0.0807558
0.0191111 -0.0736237 0.478992
0.828956 -0.213689 1.248
0.00066057 -0.0512524 1.03282
0.00164309 0.00677797 0.030776
-0.117287 -0.0519084 0.265257
-0.0147655 0.0336603 0.866335
0.0626135 0.522909 0.871956
1.44568 0.202743 1.88947
0.284893 -0.0804462 0.789669
0.0140563 0.0058914 -0.0088281
0 0 0
-0.00641415 0.0131798 0.0701651
0.0697012 0.0861712 1.70841
0.00691288 0.019018 0.763371
0.00101905 0.00138399 0.127869
0.00248717 0.000220577 0.0284724
0.161419 -0.142481 3.28717
0.00131411 0.0114086 0.606935
-0.00111236 0.00590225 0.0567359
0.00562706 0.000450514 0.0776782
-0.558484 -0.304442 0.985979
-4.71041e-05 0.00462113 0.0510412
0 0 0
-0.0481005 0.0634959 0.121576
0.00584889 0.0161335 0.0433201
0.0938411 0.156733 0.666206
0 0 0
0.0137869 0.00744986 0.129784
-0.0663168 0.0803622 1.62373
0 0 0
-0.00821851 0.018509 0.785866
-0.00103632 0.00136744 0.129026
-0.180848 -0.102712 3.15224
0 0 0
-0.0021781 0.0115887 0.650868
0.00117194 0.00619105 0.0589621
0.557448 -0.303767 0.98246
0.0545992 0.0723369 0.138044
5.00047e-05 0.00462148 0.0510623
0 0 0
-0.00582386 0.0161007 0.0432261
-0.0140483 0.00753468 0.130807
-0.0932527 0.156222 0.664075
-1.52974e-17 5.44855e-17 1.09934e-16
-0.00188373 -0.00389496 0.0374814
-1.2204 -0.511145 0.657708
2.56343e-09 5.04474e-09 7.32346e-07
0 0 0
-1.94019e-06 -2.71202e-05 0.000302026
0.00132838 8.30498e-05 0.0226217
0.00182989 0.00380439 0.0681252
-0.00697888 -0.0403863 0.00629673
-0.000173226 0.000276187 0.0245319
-8.13082e-05 -0.011908 0.00150752
0.000907277 0.00265943 0.0547608
0.00180837 0.000737779 0.0341005
-0.000533094 0.284105 0.142299
0 0 0
-0.0177682 -0.0437618 0.184232
0 0 0
-0.000339299 -0.104898 0.0282043
0 0 0
0.0267966 0.0379845 0.217434
0.00167335 -0.00221896 0.0259142
1.26537 -0.528046 0.679149
0.00188062 -0.00390213 0.0373968
0 0 0
1.6467e-06 -2.33936e-05 0.000258359
0.00646007 -0.0395438 0.00608456
-0.00184946 0.00379806 0.069116
0 0 0
-0.000899966 0.00290469 0.0572003
0 0 0
0.0175576 -0.0433276 0.18201
-0.00174441 -0.00221416 0.0259156
-0.0245765 0.0341532 0.196044
-0.000467771 0.00516682 0.0491212
0.00510128 0.00011284 0.0615076
0.000139887 -0.0040904 0.0526346
0.000106875 0.00457409 0.0278403
6.06823e-05 0.000537072 0.0165482
6.29936e-07 6.28937e-07 5.4163e-05
5.77372e-05 0.00480641 0.0282068
0.000314385 0.00525315 0.0372633
0 0 0
2.04934e-06 0.00141945 0.0149106
0.0282423 0.0965147 0.338049
-0.0529331 0.0373413 0.410347
-2.61417e-05 0.00617194 0.00931964
3.18621e-06 0.101281 0.261156
-5.23683e-05 0.00496952 0.0769865
-2.24861e-05 -0.000868155 0.0213856
0 0 0
0.000447851 0.00493469 0.0471167
-0.000134885 -0.00418405 0.0536537
-0.000107674 0.00460677 0.0280636
-5.82753e-05 0.00479757 0.0282818
-0.000309165 0.00516591 0.0364803
0.0527557 0.0373191 0.410002
-0.0269472 0.0951226 0.33709
0 0 0
-0.0366334 -0.0339898 0.234681
0 0 0
-0.00465654 -0.0131503 0.104533
-0.0020933 0.00802333 0.080754
0.0125874 0.0404629 0.170682