# vtk DataFile Version 2.0
tri_press
ASCII
DATASET UNSTRUCTURED_GRID
POINTS 3682 float
-0.65838 0.235 -1.835
-0.86576 0.345 1.805
-0.672325 0.855 -1.675
-0.685 0.995 1.68974
0.658355 0.235 -1.835
0.865761 0.345 1.805
0.672325 0.855 -1.675
0.685 0.995 1.68974
-0.774346 0.224828 -0.621667
-0.808416 0.29655 0.591667
-0.828831 1.05395 -0.55342
-0.812992 1.08055 0.56816
0.77433 0.224827 -0.621667
0.808424 0.296535 0.591667
0.828825 1.05394 -0.55342
0.813012 1.08057 0.56816
-1.43735 -0.203299 -2.7968
-1.44262 -0.147233 -1.86288
-1.52984 -0.131486 -0.647173
-1.57459 -0.0800495 0.586999
-1.59959 -0.0329869 1.80426
-1.61366 -0.0190763 2.7458
-1.6222 -0.010268 3.67323
-1.43162 0.152998 -2.74978
-1.43683 0.231354 -1.82589
-1.55082 0.25422 -0.628035
-1.58361 0.294646 0.578076
-1.59556 0.320004 1.77769
-1.61683 0.331981 2.71793
-1.62935 0.343782 3.64836
-1.43981 0.83991 -2.63
-1.45497 0.919717 -1.70231
-1.5877 1.05103 -0.56701
-1.58244 1.0691 0.561792
-1.50065 1.0166 1.69885
-1.57004 1.02915 2.64289
-1.62079 1.05458 3.58811
-1.4749 1.98023 -2.51932
-1.4941 2.06814 -1.60537
-1.55134 2.18449 -0.499816
-1.58514 2.22226 0.585962
-1.58655 2.1929 1.69247
-1.60036 2.17838 2.60843
-1.6266 2.18617 3.54363
-0.699916 -0.204677 -2.80272
-0.679132 -0.147265 -1.87151
-0.750411 -0.148022 -0.646015
-0.78506 -0.079144 0.598598
-0.814482 -0.0181356 1.82454
-0.834264 -0.0112596 2.75955
-0.844005 -0.00829866 3.6812
-0.698652 0.145797 -2.75161
-0.856225 0.337735 2.72927
-0.858651 0.343731 3.65436
-0.703092 0.811612 -2.61866
-0.816744 1.01991 2.64106
-0.859311 1.04826 3.58772
-0.71524 1.96457 -2.5081
-0.720644 2.05539 -1.59301
-0.767393 2.18525 -0.492366
-0.807553 2.22538 0.585068
-0.820134 2.18767 1.68609
-0.836086 2.17049 2.60205
-0.860506 2.17926 3.539
0.717266 -0.204677 -2.80272
0.726923 -0.147265 -1.87151
0.788548 -0.148024 -0.646015
0.822989 -0.0791536 0.598598
0.852633 -0.018139 1.82454
0.782693 -0.0112616 2.75955
0.738121 -0.0083001 3.6812
0.692083 0.145796 -2.75161
0.74751 0.337734 2.72927
0.712401 0.34373 3.65436
0.699225 0.811611 -2.61866
0.682336 1.01991 2.64106
0.677253 1.04826 3.58772
0.780181 1.96457 -2.5081
0.798949 2.05539 -1.59301
0.799765 2.18525 -0.492366
0.760757 2.22538 0.585068
0.714325 2.18767 1.68609
0.69097 2.17049 2.60205
0.674037 2.17926 3.539
1.44919 -0.203301 -2.7968
1.46435 -0.147235 -1.86288
1.55345 -0.13149 -0.647173
1.6092 -0.0800602 0.586998
1.63086 -0.0329945 1.80426
1.58003 -0.0190805 2.7458
1.53232 -0.0102712 3.67323
1.42206 0.152997 -2.74978
1.42655 0.231351 -1.82589
1.54814 0.254218 -0.628035
1.59665 0.294638 0.578076
1.60589 0.319997 1.77769
1.54834 0.331978 2.71793
1.50631 0.343779 3.64836
1.43229 0.839909 -2.63
1.44583 0.919715 -1.70231
1.58211 1.05103 -0.56701
1.5849 1.06912 0.561792
1.49395 1.0166 1.69885
1.47216 1.02915 2.64289
1.4617 1.05458 3.58811
1.52837 1.98023 -2.51932
1.55299 2.06814 -1.60537
1.57352 2.1845 -0.499817
1.54555 2.22226 0.585962
1.49398 2.19291 1.69247
1.46612 2.17839 2.60843
1.44928 2.18617 3.54363
-0.71375 0.545 -1.8034
-1.24872e-05 0.238286 -1.83171
-0.719723 0.226553 -1.22833
-0.808613 0.67 1.7806
4.76837e-07 0.296613 1.85339
-0.854874 0.302989 1.19833
0 0.941792 -1.76179
-0.806903 1.0108 -1.11421
0 1.06159 1.75633
-0.7896 1.07838 1.12895
0.713902 0.545 -1.80356
0.719723 0.226533 -1.22833
0.808653 0.67 1.78064
0.854818 0.303042 1.19833
0.806875 1.01077 -1.11421
0.789586 1.07837 1.12895
-0.791208 0.260862 -0.015
-0.886121 0.639388 -0.587543
-7.70486e-06 0.221991 -0.621667
-0.88763 0.68855 0.579913
3.68662e-06 0.229468 0.591667
-0.820702 1.06704 0.00737
-3.18209e-06 1.4849 -0.55342
9.89924e-06 1.68107 0.56816
0.791211 0.260847 -0.015
0.886152 0.639384 -0.587543
0.887655 0.688553 0.579913
0.820717 1.06705 0.00737
-0.895713 0.592194 -1.17127
0.895714 0.592192 -1.17127
-1.0096e-05 0.221419 -1.22833
-1.59104e-06 1.12618 -1.11421
-6.24359e-06 0.545 -1.9867
-0.886961 0.663969 -0.00381503
0.886994 0.663968 -0.00381503
-2.00912e-06 0.222987 -0.015
3.35858e-06 1.66807 0.00737
-0.895425 0.679275 1.16364
0.895425 0.679276 1.16364
2.08173e-06 0.23806 1.19833
4.94962e-06 1.63017 1.12895
2.38419e-07 0.67 1.96977
-0.698088 0.39 -1.83122
-0.329196 0.238643 -1.83136
-0.692134 0.227694 -1.53167
-0.852053 0.5075 1.80767
-0.43288 0.279755 1.87025
-0.863061 0.321251 1.50167
-0.704481 0.7 -1.75064
-0.336163 0.929685 -1.74969
-0.768599 0.961885 -1.3946
-0.747258 0.8325 1.73562
-0.3425 1.05365 1.74839
-0.754073 1.05346 1.40934
0.329171 0.238438 -1.83156
0.698035 0.39 -1.83119
0.692127 0.227678 -1.53167
0.432881 0.298065 1.85193
0.85193 0.5075 1.80754
0.863062 0.321249 1.50167
0.336163 0.929655 -1.74965
0.704338 0.7 -1.75051
0.768582 0.961867 -1.3946
0.3425 1.05363 1.74837
0.747328 0.8325 1.73569
0.754056 1.05345 1.40934
-0.74846 0.224265 -0.925
-0.78346 0.242162 -0.318333
-0.847877 0.423286 -0.604605
-0.387515 0.222732 -0.621667
-0.825634 0.305781 0.895
-0.799387 0.279132 0.288333
-0.868998 0.482063 0.58579
-0.421736 0.227949 0.591667
-0.828254 1.04276 -0.833815
-0.871769 0.853814 -0.570482
-0.825314 1.06104 -0.273025
-0.505375 1.45134 -0.55342
-0.806125 1.08429 0.848555
-0.867314 0.893052 0.574037
-0.817018 1.07397 0.287765
-0.528316 1.62446 0.56816
0.748442 0.224264 -0.925
0.3875 0.222732 -0.621667
0.783444 0.242164 -0.318333
0.847876 0.423288 -0.604605
0.825655 0.305755 0.895
0.421499 0.228431 0.591667
0.799396 0.279112 0.288333
0.868999 0.482064 0.58579
0.82826 1.04277 -0.833815
0.505351 1.4513 -0.55342
0.871793 0.853815 -0.570482
0.825339 1.06107 -0.273025
0.806106 1.08428 0.848555
0.528271 1.62434 0.56816
0.867294 0.893042 0.574037
0.817077 1.07402 0.287765
-0.886407 0.568597 -1.48733
-0.356878 0.545 -1.95145
-1.12916e-05 0.228283 -1.53002
-9.36538e-06 0.391643 -1.94932
-0.896273 0.409374 -1.1998
-0.359867 0.220955 -1.22833
-0.896171 0.674638 1.47212
-0.404307 0.67 1.95362
1.27928e-06 0.251514 1.52586
3.57628e-07 0.483307 1.99628
-0.896116 0.491132 1.18099
-0.427436 0.234222 1.19833
-7.95522e-07 1.06965 -1.438
-3.12179e-06 0.743396 -1.94018
-0.886527 0.801496 -1.14274
-0.403452 1.10234 -1.11421
2.47481e-06 1.41664 1.44264
1.19209e-07 0.865795 1.87735
-0.870917 0.878827 1.1463
-0.394798 1.60813 1.12895
0.886407 0.568596 -1.48742
0.356948 0.545 -1.95143
0.896273 0.409362 -1.1998
0.359857 0.220955 -1.22833
0.89617 0.674638 1.47214
0.404327 0.67 1.95359
0.896115 0.491159 1.18099
0.42741 0.2375 1.19833
0.886537 0.801482 -1.14274
0.403437 1.09677 -1.11421
0.870916 0.878821 1.1463
0.394795 1.60808 1.12895
-0.860313 0.451802 -0.00940754
-0.405084 0.222967 -0.015
-0.886544 0.615791 -0.879408
-0.88659 0.651678 -0.295679
-8.90043e-06 0.221639 -0.925
-4.85699e-06 0.222569 -0.318333
-0.887293 0.67626 0.288049
-0.887335 0.683913 0.871778
8.38748e-07 0.223407 0.288333
2.88417e-06 0.230275 0.895
-0.869527 0.873352 0.00177749
-0.543773 1.6344 0.00737
-2.38657e-06 1.32023 -0.833815
8.8245e-08 1.60247 -0.273025
6.62891e-06 1.68686 0.287765
7.42443e-06 1.66081 0.848555
0.860324 0.451797 -0.00940754
0.40508 0.222967 -0.015
0.886549 0.615788 -0.879408
0.88658 0.651676 -0.295679
0.887326 0.676261 0.288049
0.887351 0.683915 0.871778
0.869529 0.873348 0.00177749
0.543778 1.6344 0.00737
-0.8872 0.399687 -1.5095
-0.887576 0.420741 -0.902204
-0.87543 0.824082 -0.856611
-0.871134 0.750748 -1.44097
0.887198 0.399681 -1.50954
0.871036 0.750741 -1.44101
0.875425 0.824072 -0.856611
0.887577 0.420734 -0.902204
-0.344531 0.230302 -1.53085
0.344514 0.230241 -1.53085
0.373509 0.22103 -0.925
-0.373522 0.22103 -0.925
-0.369807 1.05891 -1.4163
-0.408935 1.30733 -0.833815
0.408924 1.30731 -0.833815
0.3698 1.0589 -1.4163
-0.343037 0.390821 -1.93202
-0.34652 0.721698 -1.91561
0.346555 0.721698 -1.91558
0.343059 0.390821 -1.93202
-0.854131 0.437526 -0.307006
-0.865399 0.46656 0.288191
-0.868404 0.883194 0.287907
-0.870632 0.863575 -0.284352
0.854135 0.437525 -0.307006
0.870642 0.863572 -0.284352
0.868393 0.883186 0.287907
0.865401 0.466561 0.288191
-0.396301 0.222846 -0.318333
0.39629 0.222848 -0.318333
0.414625 0.223027 0.288333
-0.414654 0.22297 0.288333
-0.538839 1.5714 -0.273025
-0.54517 1.64768 0.287765
0.545175 1.64767 0.287765
0.538825 1.57137 -0.273025
-0.873321 0.491841 0.883389
-0.896727 0.499316 1.48689
-0.866494 0.855664 1.44073
-0.869856 0.881689 0.860166
0.873315 0.491852 0.883389
0.869842 0.881691 0.860166
0.866596 0.85566 1.44074
0.896727 0.49933 1.4869
-0.415821 0.228702 0.895
0.415812 0.230439 0.895
0.430145 0.25013 1.51376
-0.430158 0.244295 1.51376
-0.400644 1.64408 0.848555
-0.368649 1.38649 1.42599
0.368648 1.38654 1.42599
0.400653 1.64409 0.848555
-0.418593 0.495403 1.98639
0.418604 0.495403 1.98639
0.373413 0.849147 1.87141
-0.373403 0.849147 1.87133
-0.694662 0.3125 -1.84954
-0.493788 0.23913 -1.83087
-0.678284 0.22832 -1.68333
-0.862801 0.42625 1.81023
-0.64932 0.281265 1.86873
-0.868574 0.328962 1.65333
-0.690912 0.7775 -1.71533
-0.504244 0.909624 -1.72962
-0.731768 0.919749 -1.5348
-0.726413 0.91375 1.72297
-0.51375 1.03331 1.72805
-0.720232 1.02493 1.54954
0.493763 0.238688 -1.83131
0.694524 0.3125 -1.84942
0.678268 0.228313 -1.68333
0.649321 0.281693 1.86831
0.862752 0.42625 1.81018
0.86877 0.328765 1.65333
0.504244 0.909596 -1.7296
0.690903 0.7775 -1.71532
0.731737 0.919717 -1.5348
0.51375 1.03332 1.72806
0.726589 0.91375 1.72314
0.723337 1.02803 1.54954
-0.761368 0.224581 -0.773333
-0.783128 0.22927 -0.47
-0.803852 0.327686 -0.613136
-0.581174 0.223292 -0.621667
-0.81433 0.303861 0.743333
-0.803721 0.288022 0.44
-0.838491 0.389415 0.588728
-0.631807 0.228788 0.591667
-0.830425 1.05024 -0.693618
-0.850419 0.95394 -0.561951
-0.826846 1.05727 -0.413223
-0.71104 1.34052 -0.55342
-0.81028 1.08314 0.708358
-0.839966 0.986708 0.571098
-0.815057 1.07731 0.427963
-0.694847 1.40089 0.56816
0.761351 0.22458 -0.773333
0.581159 0.223292 -0.621667
0.783115 0.229268 -0.47
0.803834 0.327692 -0.613136
0.814368 0.303816 0.743333
0.631814 0.228777 0.591667
0.80374 0.287993 0.44
0.838492 0.389409 0.588728
0.830405 1.05022 -0.693618
0.711 1.34045 -0.55342
0.850439 0.953943 -0.561951
0.826832 1.05725 -0.413223
[...]
POINT_DATA 3682
SCALARS point_scalars float 1
LOOKUP_TABLE default
-158.682
-67.2889
-21.2245
-45.4889
-159.039
-67.2472
-21.065
-45.5746
-51.4975
-39.5623
-77.1319
-54.1518
-51.5031
-39.6644
-77.1254
-54.243
-42.7075
-114.302
-66.4702
-39.724
-65.9188
-67.251
-54.9631
-4.03537
-116.583
-66.6049
-42.2351
-63.7529
-65.3089
-53.0899
27.3575
-110.896
-67.075
-51.132
-58.943
-55.6323
-51.9628
-24.5816
-66.1803
-108.923
-64.6849
-47.2564
-45.2488
-47.1304
0.519621
-173.767
-50.9038
-40.5708
-65.2492
-53.5647
-52.2548
0.519621
-51.5777
-51.7393
139.498
-49.8794
-50.9792
15.6354
-22.9919
-91.0065
-73.9142
-46.1741
-41.596
-43.3764
0.763415
-174.067
-50.9079
-40.6418
-65.1088
-54.1327
-52.5197
0.763415
-51.4462
-51.7049
139.412
-49.4364
-50.7583
2.22257
-24.0073
-91.0532
-73.916
-45.8822
-41.0909
-44.392
-42.7605
-114.364
-66.5843
-40.3977
-65.9961
-67.2084
-53.9692
-4.13667
-116.467
-66.6697
-42.3211
-63.8807
-65.5166
-51.8544
27.1906
-109.01
-67.107
-51.2681
-59.014
-52.6133
-51.4343
-30.8705
-66.3943
-109.059
-63.379
-46.6887
-45.3365
-46.6405
29.0909
-158.708
-70.5149
-54.4931
-58.434
-50.0397
16.1976
-70.995
-39.5291
-51.9637
28.9481
-70.551
-54.5859
-50.3244
-71.0621
-51.9743
-42.3441
-56.6671
-52.225
-45.787
-45.8615
-62.4421
-44.2843
-74.482
-42.4053
-56.6844
-45.8538
-62.4549
-83.7343
-83.7809
-74.1482
25.4897
201.653
-48.6927
-48.7421
-45.4699
-105.653
-48.9476
-49.0418
-52.7356
-47.5399
-51.2572
29.9278
-157.844
-95.4062
-59.0446
-59.26
-52.5739
14.3447
19.4314
-68.7534
-50.7162
-40.8488
-49.179
-158.11
29.7733
-95.4039
-59.3203
-59.0713
-53.1145
19.3556
13.9947
-68.6302
-41.056
-50.7885
-49.1507
-58.0117
-44.5267
-51.9579
-51.424
-29.1418
-40.4256
-42.2718
-44.8153
-86.5093
-64.8211
-69.0475
-49.5581
-52.711
-49.7522
-57.5806
-68.0089
-58.032
-51.4298
-44.5514
-51.9648
-29.31
-45.0004
-40.5112
-42.3587
-86.485
-49.6031
-64.8308
-69.0318
-52.7838
-67.9845
-49.8276
-57.6591
-132.69
186.577
-96.8549
173.404
-80.5882
-72.8156
-55.0087
-50.6467
-56.2318
-52.0946
-49.2573
-51.4467
-6.89863
146.201
-86.4302
12.2802
-37.9045
-47.5291
-50.1208
-48.3813
-132.599
186.668
-80.6146
-72.8007
-55.1223
-50.7309
-49.4083
-52.5117
-86.4436
12.8184
-50.1585
-48.3663
-44.0538
-44.4205
-67.1418
-51.5758
-60.0129
-47.5763
-46.8207
-46.0053
-45.5505
-48.7137
-55.0312
-97.3059
17.6983
-88.7446
-92.2561
-59.7506
-44.1098
-44.4522
-67.171
-51.6044
-46.8836
-46.0824
-55.0785
-97.3264
-124.092
-65.2592
-72.1208
-111.329
-123.841
-111.032
-72.2753
-65.2773
-94.8513
-94.8282
-59.137
-59.1417
-11.9558
5.08959
5.06628
-11.985
170.793
142.043
142.203
170.983
-45.9698
-42.9486
-51.7166
-59.1686
-46.0014
-59.1893
-51.8762
-43.0219
-46.6101
-46.6266
-44.5638
-44.5021
-93.1591
-80.8406
-80.8363
-93.2187
-41.6719
-54.932
-56.4805
-49.1882
-41.7707
-49.2392
-56.5393
-55.1156
-47.957
-48.1664
-56.6502
-55.3327
-59.1723
-39.6489
-39.6785
-59.1649
-51.7557
-51.6573
-47.1486
-46.8865
-9.20025
-160.813
-124.535
-63.0261
-61.3003
-58.8664
1.94436
17.0305
-53.7462
-48.6734
-42.9138
-46.4568
-161.382
-9.08815
-124.579
-61.1145
-63.049
-59.5173
17.3702
1.37066
-53.8047
-43.0915
-48.8005
-46.5396
-58.4736
-46.0333
-51.6574
-50.653
-40.4412
-40.3802
-40.6964
-43.457
-82.4954
-70.4893
-72.8185
-105.247
-53.1147
-52.581
-55.6388
-60.7545
-58.483
-50.6595
-46.0436
-51.6673
-40.5948
-43.5762
-40.4806
-40.7909
-82.4888
-105.17
-70.4959
-72.7995
-53.2101
-60.7539
-52.6595
-55.7178
28.6372
23.4694
-95.3738
134.162
-157.656
-157.606
-118.072
113.505
-80.8403
-62.89
-77.9936
-71.4047
-57.5542
-52.2123
-59.7162
-50.4512
-58.3357
-58.4929
-60.4376
-53.3023
-51.8059
-57.9
-48.5494
-50.6497
15.0353
14.9821
-17.2172
79.2386
-72.2921
-82.5068
-82.5204
-11.5045
-39.562
-39.688
-37.308
-46.09
-51.3127
-52.7499
-51.8067
-50.4951
29.0247
23.2869
-95.4724
134.037
-80.8533
-62.8888
-78.0215
-71.4047
-57.6042
-52.3216
-59.8197
-50.5176
-52.1536
-58.1205
-48.7422
-51.3992
-72.2773
-82.5524
-82.5409
-11.0766
-51.2882
-52.8136
-51.8341
-50.4662
-42.7744
-40.6494
-43.4412
-43.1142
-53.9323
-60.327
-60.9322
-53.6942
-51.9773
-51.9887
-55.6362
-49.562
-44.1215
-47.6584
-46.1457
-45.6016
-45.6438
-45.6825
-45.8532
-46.9817
-65.6106
-59.7299
-59.0742
-76.4398
-44.9323
-44.9182
-6.28665
-61.8777
-72.832
-72.8272
-83.0681
-66.5424
-42.818
-40.7195
-43.4987
-43.1577
-53.9452
-60.3421
-60.9513
-53.7173
-44.1995
-47.723
-46.2123
-45.6752
-65.6032
-59.7781
-59.1114
-76.4344
-100.445
-82.5037
-85.1222
-74.3824
-100.506
-82.5343
-85.1617
-74.4134
-83.93
-73.7532
-73.748
-65.9362
3.76442
23.0594
23.507
32.0938
200.93
188.073
191.538
200.921
-46.3462
-49.9616
-47.6593
-51.2688
-46.3971
-50.0011
-47.7172
-51.3171
-45.1992
-46.2289
-45.2486
-45.222
-104.287
-106.806
-101.648
-104.297
-52.0633
-49.0224
-49.0177
-47.1451
-52.1706
-49.1421
-49.0848
-47.2347
-54.4844
-52.5015
-52.7904
-51.2813
-41.9083
-47.7624
-47.7595
-52.8932
-51.1432
-51.8603
-48.9933
-51.2034
-92.9435
140.239
-116.672
89.4935
-113.724
-93.2078
-60.0895
-51.4272
-60.2144
-52.445
-54.3048
-53.7639
-85.7921
93.2056
-23.8711
76.2046
-91.0244
-25.189
-54.3008
-47.5193
-39.7815
-44.4903
-52.9585
-42.0113
-116.677
89.408
-92.5786
140.009
-113.615
-93.1899
-60.8394
-52.5613
-60.239
-51.3003
-54.5547
-55.3284
-23.8896
76.2726
-86.243
95.0378
-90.9589
-25.0285
-39.8229
-44.7769
-54.4277
-47.7981
-52.9979
-42.0114
-64.3811
-58.3587
-44.6771
-45.4807
-63.0414
-47.7914
-54.8733
-48.6269
-35.4379
-47.2938
-41.557
-43.0792
-42.5491
-41.9774
-44.8175
-46.0464
-77.4848
-42.3478
-67.8922
-61.7659
-64.232
-90.9019
-22.3651
-71.602
-51.702
-57.5809
-50.3528
-49.2311
-54.8944
-66.7021
-74.9709
-64.3876
-64.4068
-58.361
-54.8743
-48.6379
-44.7015
-45.5018
-63.046
-47.8103
-35.551
-47.5685
-44.9638
-46.2735
-41.6371
-43.1632
-42.6273
-42.0736
-77.577
-42.0772
-22.4604
-71.5163
-67.8974
-61.7769
-64.2387
-90.9061
-51.7515
-57.5606
-74.9667
-64.4035
-50.3604
-49.2969
-54.9777
-66.6901
-129.776
-126.441
180.128
172.603
-96.3691
-96.3046
175.123
175.159
-97.1248
-71.245
-81.987
-64.975
-54.9789
-55.8857
-51.4926
-49.4008
-56.9153
-56.3824
-52.078
-52.0296
-48.3545
-52.3507
-50.6405
-53.4727
-7.44906
-7.4947
149.768
148.983
-78.528
-100.234
-1.90595
21.6776
-38.4714
-38.4962
-47.563
-47.2796
-53.2336
-49.5181
-53.8681
-42.3231
-129.686
-126.055
172.767
180.114
-97.1564
-71.2701
-81.9859
-64.9642
-55.9592
-55.1209
-51.4588
-49.5958
-48.481
-52.528
-50.7561
-54.1112
-100.43
-78.5008
21.8999
-1.94728
-49.5551
-53.2721
-42.3167
-53.8576
-44.9371
-43.3584
-45.2191
-44.1787
-66.1821
-68.8857
-48.6827
-55.0881
-59.7663
-59.7675
-47.3212
-47.3416
-44.897
-49.1128
-44.6975
-47.5114
-45.3366
-45.3028
-48.5383
-48.6049
-53.2183
-56.8685
-103.034
-88.3672
15.8127
15.8927
-86.6073
-86.6228
-90.4376
-90.437
-59.6856
-59.6819
-44.9797
-43.422
-45.2424
-44.2243
-68.9038
-66.2036
-48.7132
-55.113
-49.0805
-44.9643
-44.7904
-47.5744
-56.8975
-53.2915
-88.367
-103.036
-104.048
-94.8534
-98.8514
-96.9734
-71.0069
-60.364
-73.0461
-69.2399
-74.3068
-80.7678
-76.5955
-63.6361
-72.5104
-91.8364
-101.887
-88.7141
-104.258
-95.7414
-98.881
-94.8901
-72.1106
-88.7905
-102.052
-92.0113
-74.3159
-63.6511
-76.6625
-80.6696
-69.1687
-69.263
-73.0732
-60.3788
-116.496
-117.558
-83.4109
-80.2291
-116.44
-80.2264
-83.382
-117.751
-54.3511
-55.4106
-65.6416
-63.9726
-54.3478
-63.9937
-65.6448
-55.4061
-31.0394
-20.6754
5.03826
-18.6836
-98.2926
-8.68035
29.9987
-8.94501
-98.2616
-9.80429
30.501
-8.62139
-31.2177
-18.6994
4.90236
-20.5472
93.3101
142.763
183.396
123.594
77.5945
76.3975
187.905
119.872
74.6019
119.911
187.988
76.4435
91.2113
118.515
183.687
142.756
-46.5679
-43.4916
-47.2976
-50.6805
-40.7945
-44.4534
-45.4977
-41.8072
-53.1162
-56.7909
-50.0233
-48.0936
-67.056
-57.401
-53.1386
-61.5029
-46.5857
-50.7028
-47.3381
-43.5349
-67.0495
-61.5203
-53.174
-57.4196
-53.0959
-48.1367
-50.0831
-56.8533
-40.8823
-41.8746
-45.5572
-44.5261
-47.691
-49.3155
-45.9643
-43.9979
-47.7039
-44.0289
-45.9895
-49.3279
-43.3582
-45.7103
-45.0079
-42.8057
-43.2243
-42.7457
-44.978
-45.6785
-102.315
-82.9138
-105.712
-61.9256
-63.3123
-81.5145
-98.6816
-70.9076
-63.3059
-70.8927
-98.6883
-81.5158
-102.282
-62.1178
-105.716
-82.9125
-39.4734
-51.3583
-47.0096
-43.9756
-60.0629
-59.5951
-52.3264
-51.9045
-50.8968
-52.7414
-51.9399
-58.2323
-51.5934
-47.374
-47.8979
-51.857
-39.5884
-44.0592
-47.1161
-51.5204
-51.6537
-51.9753
-47.9566
-47.4399
-51.0732
-58.3208
-52.0139
-52.7355
-60.2629
-52.1474
-52.4637
-59.7175
-44.1892
-46.8035
-51.0058
-50.8804
-44.4036
-50.9466
-51.1099
-46.8547
-59.3837
-60.4772
-54.5306
-52.893
-57.2937
-52.0971
-54.2744
-59.9908
-58.0092
-54.6091
-53.095
-66.1556
-41.6668
-38.0164
-42.1097
-45.1367
-41.7581
-45.1127
-42.1056
-38.0367
-58.0135
-66.1549
-53.0914
-54.5812
-52.383
-52.9767
-51.8363
-51.2681
-52.29
-51.2659
-51.8178
-53.0573
-45.3551
-45.4639
-49.015
-50.5183
-45.1187
-50.3804
-48.8764
-45.2697
-83.0548
-178.289
-154.126
-66.2012
-63.1478
-63.0796
-7.55454
-1.63286
-37.5108
-47.2128
-43.7175
-45.6104
-178.924
-83.3545
-154.245
-63.1486
-66.2009
-63.3885
-0.889042
-7.90914
-37.4496
-43.8447
-47.2927
-45.7535
-54.8256
-47.7494
-51.7383
-50.4829
-40.4355
-39.9223
-40.5288
-40.6006
-79.7069
-73.5642
-74.7383
-89.7082
-53.7065
-52.9917
-54.7167
-56.8236
-54.7982
-50.4901
-47.7594
-51.7443
-40.5561
-40.6788
-40.0244
-40.6303
-79.6972
-89.7001
-73.5632
-74.7265
-53.7974
-56.856
-53.0724
-54.7989
28.1812
27.8624
-23.6413
83.2039
-158.533
-158.597
-137.628
-121.791
-75.0848
-66.438
-75.3858
-70.6218
-56.0388
-53.3565
-59.4839
-51.1857
-58.1994
-58.2173
-59.221
-55.0646
-52.1588
-48.5061
-48.297
-49.7997
14.1833
14.0586
-29.3583
69.3798
-74.7428
-77.2274
-81.4601
-39.5154
-39.4913
-39.5635
-37.9596
-41.6326
-51.6309
-52.5116
-51.8947
-50.9822
27.5864
27.7475
-23.5821
83.2525
-75.1121
-66.4624
-75.4159
-70.6464
-56.1161
-53.4532
-59.5669
-51.2476
-52.5256
-48.7824
-48.5141
-50.2825
-74.6936
-77.3129
-81.4657
-39.4527
-51.6213
-52.487
-51.9202
-50.9481
-42.8623
-41.2059
-43.206
-41.9807
-55.2431
-58.324
-58.5083
-55.0179
-52.169
-52.1899
-53.82
-50.7961
-44.9351
-46.6918
-45.9064
-45.6566
-45.8322
-45.8088
-45.4644
-46.3859
-64.1409
-61.0785
-60.4704
-68.6322
-44.1582
-44.1706
-23.9742
-54.5635
-74.2528
-74.251
-78.7385
-69.9483
-42.9102
-41.2714
-43.266
-42.0317
-55.2579
-58.3414
-58.5258
-55.0386
-45.0074
-46.7529
-45.9697
-45.7279
-64.1489
-61.1145
-60.5012
-68.6096
-90.9225
-83.0824
-84.2778
-78.5828
-90.979
-83.1193
-84.3313
-78.6224
-78.6153
-74.029
-74.0264
-69.7567
16.5975
24.8394
24.9617
33.6915
205.268
197.89
200.679
205.224
-47.4915
-49.3213
-48.1468
-49.9748
-47.5415
-49.3657
-48.201
-50.0237
-45.4015
-45.7944
-45.2943
-45.4231
-105.198
-105.589
-105.006
-105.199
-50.8544
-48.7646
-48.9942
-47.2196
-50.9539
-48.8703
-49.0748
-47.3123
-53.6389
-52.6674
-52.7796
-52.1908
-44.5862
-47.6031
-47.6017
-50.2348
-51.4121
-51.8575
-50.4768
-51.4568
19.7322
29.1764
-43.149
88.602
-155.727
-155.904
-137.366
-80.853
-106.751
-87.3602
-101.714
-93.3301
-60.8493
-58.0501
-63.9841
-53.1314
-61.1154
-58.4801
-60.3031
-55.6892
-55.3425
-51.1306
-53.3634
-52.4974
7.99947
17.4089
-32.16
63.582
15.0858
15.7937
-24.7566
72.687
-64.0928
-73.7478
-82.9375
-39.2006
-49.9348
-51.2592
-52.2323
-48.8672
-42.0521
-39.8952
-39.9222
-42.8824
-48.1027
-50.4943
-51.0682
-44.9394
-156.076
-155.999
-137.426
-80.5022
20.4231
28.6389
-43.0131
88.4593
-106.745
-87.3742
-101.427
-93.318
-59.848
-59.2002
-60.929
-55.0518
-60.8659
-58.0887
-64.0888
-53.1016
-55.9323
-51.6028
-53.709
-53.1817
16.1066
15.7791
-25.7311
72.7315
7.60157
17.1764
-32.5372
63.0174
-63.9495
-73.97
-82.722
-39.1005
-42.2898
-40.0672
-40.0332
-43.1563
-49.9936
-51.4007
-52.1275
-49.0296
-47.9933
-50.4659
-51.0751
-44.8957
-57.4641
-60.2033
-60.1709
-58.105
-45.7682
-43.5661
-44.4119
-44.5255
-51.7662
-52.9168
-57.0106
-49.4507
-51.0839
-51.7188
-53.1407
-49.8582
-37.3888
-52.3933
-31.4348
-45.5466
-40.8377
-40.8225
-41.0969
-40.9704
-41.3137
-43.2469
-42.4632
-42.1076
-44.1322
-45.3171
-44.5017
-45.3741
-86.1615
-86.8092
-81.9451
-92.7866
-67.4349
-62.6373
-66.3164
-63.2115
-70.7803
-67.6692
-66.1742
-77.7815
-70.5971
-45.9821
-34.534
-62.114
-53.0052
-52.7354
-52.3021
-55.2779
-51.0178
-48.5217
-48.4509
-49.7292
-56.4408
-58.6006
-55.8002
-61.8961
-64.626
-71.2132
-73.3861
-64.8442
-57.5035
-60.2162
-60.2146
-58.1247
-51.0897
-51.7257
-53.1442
-49.8665
-45.7871
-43.5994
-44.4345
-44.5506
-51.7687
-52.928
-57.0087
-49.4642
-37.5439
-52.596
-31.5703
-45.7426
-44.3779
-45.4106
-44.7076
-45.5749
-40.9299
-40.9055
-41.18
-41.0587
-41.4029
-43.331
-42.5436
-42.2015
-86.1796
-86.7495
-81.9823
-92.3246
-70.6866
-45.6547
-34.5859
-62.0758
-67.4439
-62.6492
-66.3235
-63.2226
-70.7593
-67.6626
-66.1737
-77.7782
-53.0844
-52.789
-52.3626
-55.2786
-64.5999
-71.2059
-73.3856
-64.8185
-51.0509
-48.5532
-48.1624
-49.8147
-56.5219
-58.6696
-55.887
-61.8897
-141.441
-110.522
-131.718
-131.943
170.027
195.011
184.246
180.905
-105.921
-89.7851
-96.8071
-96.7669
178.659
178.265
175.686
175.698
-79.3582
-81.8284
-87.5653
-75.4493
-72.1626
-73.3665
-76.8532
-68.7728
-57.014
-53.6719
-54.9931
-55.2239
-50.431
-50.8985
-51.3629
-49.7052
-58.6804
-55.6185
-56.8926
-56.5196
-52.4609
-51.9351
-52.1588
-52.1367
-49.333
-49.2194
-47.4559
-51.5192
-50.7348
-52.2535
-50.9898
-52.7455
-12.9683
-1.00692
-6.95204
-6.97959
93.4006
178.918
150.937
151.002
-86.5381
-85.865
-82.7197
-93.092
3.13673
20.4226
5.28547
21.1004
-37.5245
-38.4137
-38.1366
-38.1386
-47.0387
-48.0916
-47.59
-47.4659
-51.0912
-49.1825
-51.2631
-49.7093
-49.2259
-48.0453
-51.117
-46.085
-141.439
-110.567
-131.602
-131.741
170.1
195.139
181.034
184.234
-79.3853
-81.8555
-87.593
-75.4748
-72.1517
-73.3565
-76.8562
-68.7595
-57.1262
-53.7841
-55.3203
-55.1199
-50.5219
-50.977
-51.376
-49.8867
-49.5025
-49.3539
-47.5929
-51.6852
-52.1157
-52.7106
-51.7827
-53.3664
-86.5713
-85.8672
-93.2838
-82.7254
3.51963
18.8255
21.5976
5.84677
-51.123
-49.2332
-49.743
-51.3058
-49.2104
-48.0375
-46.0728
-51.1072
-43.1695
-45.2108
-44.4369
-43.6194
-43.8468
-44.8697
-44.7594
-44.233
-63.4679
-71.2946
-66.7789
-67.811
-52.5467
-50.7567
-50.1016
-53.2521
-57.6928
-62.7466
-59.9568
-59.9573
-48.4893
-46.8382
-47.5235
-47.547
-46.3952
-47.165
-45.8794
-47.9446
-45.7683
-46.4366
-45.4079
-46.7181
-46.1446
-45.3319
-45.5096
-45.4836
-47.7615
-49.8028
-48.6951
-48.6745
-56.8729
-53.0983
-54.0925
-55.8843
-89.2795
-101.427
-100.668
-92.9873
8.63598
26.7596
17.2927
17.28
-73.4571
-103.007
-88.6989
-88.7057
-87.2558
-96.7864
-91.8214
-91.8207
-63.1215
-56.4169
-59.7524
-59.7505
-43.226
-45.2637
-44.4858
-43.6799
-43.8846
-44.8946
-44.7863
-44.2708
-63.4975
-71.3123
-67.8376
-66.8031
-52.5758
-50.788
-50.1315
-53.2792
-46.4649
-47.2247
-48.0059
-45.9451
-45.8437
-46.5142
-45.4913
-46.7881
-56.917
-53.146
-55.9195
-54.1516
-89.3031
-101.449
-92.9913
-100.685
-138.616
-120.893
-128.96
-107.464
-64.672
-62.2595
-68.8672
-65.795
-74.5925
-69.6753
-75.2732
-70.235
-105.157
-103.999
-117.375
-105.763
-138.448
-120.658
-128.865
-107.513
-104.738
-103.93
-116.81
-105.701
-74.8206
-69.6814
-75.3838
-70.282
-64.6914
-62.2732
-68.8904
-65.8147
-104.216
-93.8577
-95.5919
-87.7512
-104.259
-93.8424
-95.5348
-87.7191
-58.7512
-56.8764
-61.8055
-59.4877
-58.7569
-56.7234
-61.8135
-59.4906
-16.1178
-17.199
-8.95815
-7.21477
-6.81616
-7.61045
15.0561
12.5531
-7.1134
-7.59383
15.0897
12.6311
-16.1736
-17.1729
-9.00464
-7.26773
161.74
171.446
175.26
175.071
118.717
99.7294
160.047
147.482
99.8151
119.403
147.532
160.207
171.699
162.078
175.138
175.375
-45.1186
-46.686
-45.4087
-47.4062
-42.0561
-42.7525
-43.1775
-43.949
-51.5072
-53.2338
-50.3684
-52.4851
-60.3698
-61.5596
-57.1718
-57.9546
-45.1461
-46.7105
-45.4462
-47.4374
-60.3833
-61.5741
-57.1933
-57.983
-51.7639
-53.3393
-50.4669
-52.5753
-42.1334
-42.8295
-43.2468
-44.0182
-46.0949
-47.5286
-45.8481
-47.0297
-47.5425
-46.1132
-47.0454
-45.8678
-45.0465
-43.9621
-45.0183
-44.3053
-43.8875
-44.9773
-44.2466
-44.9714
-106.08
-79.0356
-104.429
-84.2028
-73.1682
-77.53
-84.4315
-86.9073
-77.5242
-73.16
-86.9073
-84.4333
-79.2674
-105.67
-84.1975
-104.381
-38.7622
-41.7114
-45.3646
-43.5633
-57.272
-54.8582
-54.965
-53.4565
-56.2666
-54.7462
-56.5495
-54.922
-50.3064
-49.1217
-49.336
-48.2722
-38.8663
-41.8096
-45.4726
-43.6604
-50.3516
-49.1748
-49.3812
-48.3293
-56.3578
-54.803
-56.6247
-54.9584
-57.4407
-55.0705
-55.1254
-53.6408
-47.586
-46.9286
-49.1477
-48.3206
-47.871
-47.1482
-49.3361
-48.427
-58.7864
-56.2692
-56.8362
-55.2523
-56.5534
-54.4967
-56.0709
-54.3952
-59.4996
-62.0605
-56.5458
-59.5922
-39.7027
-40.4383
-39.0221
-40.2917
-39.629
-40.4632
-39.0452
-40.3041
-59.4907
-62.0584
-56.5354
-59.5865
-51.4765
-51.8815
-51.4802
-51.9017
-51.7937
-51.3557
-51.8318
-51.4165
-45.8986
-47.1668
-47.2499
-48.4528
-46.8524
-45.6186
-48.1946
-46.9203
-82.1742
60.6833
-140.638
-30.0575
-118.652
-117.399
-64.4262
-54.6783
-61.5058
-55.0116
-59.4271
-56.1565
-42.6829
46.4661
-29.7701
62.751
-66.2593
-43.192
-48.9851
-46.5285
-42.1602
-43.9585
-48.408
-43.1323
-140.886
-31.3032
-82.3664
61.8537
-118.84
-117.343
-61.6601
-55.1236
-64.5376
-54.5949
-59.7014
-57.7176
-29.7691
62.5852
-42.4237
45.6366
-66.0962
-43.2637
-42.2794
-44.1828
-49.1931
-46.7058
-48.5436
-43.1729
-63.8998
-54.7659
-46.8557
-47.3166
-57.2157
-48.4387
-52.3433
-49.0012
-39.4171
-43.3624
-39.6704
-41.6323
-40.5086
-40.3899
-42.6932
-44.0672
-78.4096
-97.0465
-72.4812
-68.6842
-69.5047
-83.1191
-104.394
-112.219
-52.2636
-55.1844
-52.4069
-52.1131
-53.9493
-59.1426
-61.9017
-59.4529
-64.3333
-54.7705
-52.3475
-49.0106
-46.8741
-47.3317
-56.9561
-48.4545
-39.5471
-43.5426
-42.8403
-44.2948
-39.7631
-41.7601
-40.5973
-40.4993
-78.4113
-97.0269
-104.961
-112.104
-72.4904
-68.6933
-69.4915
-83.1096
-52.3392
-55.2242
-61.8975
-59.4527
-52.3569
-52.1932
-53.9755
-59.1553
-27.5928
86.6122
-29.2234
70.7918
-95.0015
-92.1179
142.159
127.436
-137.286
-102.068
-137.203
-92.4428
-117.947
-118.014
118.245
118.196
-91.2361
-79.6505
-65.9172
-63.6959
-85.0012
-72.9895
-75.2005
-67.7272
-62.7113
-52.0864
-54.6968
-50.4066
-59.0802
-58.985
-50.8974
-50.4207
-58.736
-55.4311
-59.9788
-55.0007
-60.1993
-60.0927
-53.0577
-53.1592
-51.4999
-51.321
-53.0611
-53.584
-47.5464
-51.6197
-50.3283
-51.5827
-27.5085
71.2088
-26.4298
71.2389
-17.5981
-17.5324
78.1132
78.1282
-81.8409
-39.3865
-83.1919
-53.1312
-82.2354
-87.8146
-18.1986
-7.07275
-38.4151
-43.0924
-38.4838
-43.3168
-37.6315
-37.6349
-45.746
-45.6034
-51.8139
-47.7537
-52.3308
-54.2097
-51.8607
-51.8139
-53.338
-47.8027
-26.8664
86.4304
-29.2459
70.7385
-95.0932
-92.2379
127.347
142.14
-91.2624
-79.6578
-65.9462
-63.6811
-85.0322
-73.015
-75.1999
-67.7037
-62.8023
-52.0911
-54.8101
-50.5003
-59.0845
-59.1884
-50.9245
-50.5203
-51.7595
-51.9399
-53.2573
-53.7167
-47.7174
-51.8344
-50.6702
-52.0974
-81.9318
-39.3103
-83.2216
-54.2409
-87.7146
-82.2566
-6.23341
-18.0273
-51.796
-47.7095
-52.442
-54.1758
-51.7087
-51.8862
-47.8526
-53.3068
-43.0309
-43.0643
-41.2439
-41.1776
-43.2417
-42.0005
-43.5127
-42.8529
-56.6736
-52.0606
-61.8185
-58.783
-60.427
-62.0173
-52.171
-55.4129
-53.5861
-50.5431
-53.5923
-50.5531
-55.6076
-55.6023
-49.5035
-49.5197
-44.2641
-44.019
-47.6362
-47.4607
-45.2933
-47.0907
-44.8226
-46.4536
-45.3235
-46.1718
-45.3653
-46.2314
-45.8369
-45.8465
-46.9764
-46.938
-63.147
-72.9209
-57.9466
-64.9301
-57.9303
-60.2496
-79.595
-73.4855
-24.6738
-53.9053
-24.9688
-53.9177
-6.74033
-6.71177
-61.6615
-61.7317
-77.3693
-69.5525
-77.3712
-69.5515
-82.6904
-82.6917
-66.4674
-66.4668
-43.0774
-43.1005
-41.3129
-41.2443
-43.2918
-42.0615
-43.5495
-42.904
-56.6845
-52.0782
-61.8337
-58.7994
-62.0354
-60.4452
-52.1938
-55.4343
-44.3392
-44.0994
-47.6569
-47.53
-47.1497
-45.3618
-44.9009
-46.523
-63.1561
-72.9094
-58.0074
-64.9135
-60.2727
-57.9786
-73.474
-79.5917
-99.6189
-100.803
-89.5879
-77.2488
-80.1393
-92.1914
-73.7407
-75.2335
-99.6594
-100.92
-89.6186
-77.2781
-92.2735
-80.178
-75.2752
-73.7708
-83.8098
-83.7987
-78.1238
-69.4615
-78.1023
-69.4588
-65.9127
-65.9141
5.52182
5.96067
14.2882
31.8271
30.9698
14.423
31.5772
31.5547
195.523
197.624
184.996
185.1
190.507
190.525