# vtk DataFile Version 2.0
tet_velo
ASCII
DATASET UNSTRUCTURED_GRID
POINTS 29498 float
-0.603014 0.265 -2.105
-0.655 0.355 2.09975
-0.644367 0.805 -1.895
-0.635 1.02913 2.015
0.603009 0.265 -2.105
0.655 0.355 2.09971
0.644357 0.805 -1.895
0.635 1.02913 2.015
-0.665936 0.249407 -0.703417
-0.712132 0.250539 0.698167
-0.778512 1.01698 -0.591667
-0.753149 1.06945 0.711667
0.665713 0.249626 -0.70343
0.712134 0.250536 0.69814
0.778484 1.01696 -0.591667
0.748382 1.06468 0.711667
-1.31173 -0.154778 -3.2361
-1.3115 -0.0949024 -2.15419
-1.36095 -0.102773 -0.750066
-1.39178 -0.110741 0.673831
-1.36057 -0.0452075 2.07962
-1.35052 -0.000928845 3.16969
-1.35601 0.0315157 4.24466
-1.30946 0.173742 -3.16642
-1.31373 0.258313 -2.09524
-1.38183 0.273384 -0.710233
-1.40391 0.26463 0.683619
-1.3421 0.320853 2.07051
-1.33884 0.363271 3.15919
-1.35195 0.396286 4.23737
-1.33005 0.794386 -2.99949
-1.35842 0.877497 -1.92424
-1.46152 1.02305 -0.606215
-1.44333 1.05564 0.704855
-1.34332 1.04028 2.02477
-1.34238 1.08006 3.11752
-1.35969 1.12277 4.21155
-1.36187 1.86032 -2.82295
-1.38478 1.95764 -1.76242
-1.43383 2.10309 -0.476243
-1.45407 2.1872 0.788757
-1.43339 2.20586 2.07596
-1.41478 2.22029 3.13864
-1.40717 2.24781 4.22194
-0.638386 -0.152644 -3.24244
-0.623566 -0.0895855 -2.16344
-0.660576 -0.114796 -0.74883
-0.698464 -0.120547 0.686243
-0.681236 -0.028496 2.10132
-0.672373 0.0100643 3.18441
-0.675497 0.0360069 4.25318
-0.633985 0.168007 -3.16838
-0.662911 0.374492 3.17134
-0.672808 0.400086 4.2438
-0.646386 0.762895 -2.98734
-0.663811 1.07798 3.11556
-0.679723 1.1217 4.21112
-0.66135 1.8404 -2.81094
-0.672437 1.93973 -1.74918
-0.715464 2.09997 -0.468268
-0.746358 2.19091 0.787797
-0.740359 2.20516 2.06912
-0.726229 2.21738 3.13181
-0.719269 2.2451 4.21697
0.65581 -0.15278 -3.24245
0.646238 -0.0896318 -2.16344
0.683884 -0.114814 -0.748843
0.70207 -0.12072 0.68622
0.665103 -0.0286446 2.10129
0.6704 0.00977434 3.18439
0.677878 0.0355428 4.25316
0.646986 0.167905 -3.16838
0.664771 0.374264 3.17131
0.67438 0.399628 4.24378
0.66631 0.762768 -2.98734
0.655574 1.0776 3.11555
0.666763 1.12111 4.21111
0.723795 1.83994 -2.81094
0.736756 1.93916 -1.74919
0.730363 2.09887 -0.468271
0.690265 2.18913 0.787793
0.655403 2.20367 2.06912
0.651016 2.21624 3.1318
0.654649 2.24412 4.21696
1.32146 -0.155156 -3.23611
1.31802 -0.0951776 -2.1542
1.37056 -0.103374 -0.750087
1.3985 -0.111753 0.673793
1.36107 -0.0458642 2.07957
1.35465 -0.00171755 3.16965
1.36061 0.0304808 4.24463
1.31236 0.173427 -3.16643
1.30391 0.258138 -2.09525
1.37634 0.272648 -0.710251
1.40862 0.26302 0.683584
1.35209 0.320318 2.07046
1.34634 0.362536 3.15915
1.35537 0.395239 4.23734
1.33995 0.794002 -2.99949
1.35245 0.877221 -1.92425
1.4545 1.02165 -0.606221
1.43933 1.05099 0.704842
1.34547 1.03881 2.02475
1.33782 1.07892 3.1175
1.34819 1.12146 4.21152
1.41315 1.85934 -2.82295
1.43202 1.95642 -1.76242
1.44079 2.10093 -0.476251
1.4066 2.18397 0.788747
1.36189 2.20302 2.07595
1.34726 2.21802 3.13863
1.34608 2.24583 4.22192
-0.667314 0.535 -2.04362
-2.5034e-06 0.264346 -2.10565
-0.638965 0.252714 -1.40421
-0.648262 0.692065 2.06064
0 0.330978 2.12375
-0.702575 0.28376 1.39896
-4.97699e-06 0.873844 -1.96384
-0.726813 0.926362 -1.24333
0 1.07927 2.06514
-0.707912 1.06313 1.36333
0.667332 0.535 -2.04365
0.63896 0.252714 -1.40422
0.648508 0.692065 2.06086
0.702533 0.283801 1.39893
0.726812 0.92637 -1.24333
0.708009 1.06322 1.36333
-0.68928 0.249727 -0.00262499
-0.848119 0.633192 -0.647542
-0.00011113 0.266859 -0.703423
-0.854974 0.659993 0.704917
5.80089e-07 0.273051 0.698153
-0.764524 1.04191 0.0600001
-1.39232e-05 1.29678 -0.591667
-0.00238319 1.4516 0.711667
0.686872 0.252132 -0.00264502
0.84812 0.633291 -0.647548
0.848789 0.65761 0.704903
0.764516 1.0419 0.0600001
-0.847691 0.584096 -1.32377
-0.866828 0.646592 0.0286875
-0.850803 0.676029 1.38115
-5.68165e-05 0.276271 -1.40421
-5.52747e-05 0.269937 -0.002635
2.90044e-07 0.303301 1.39894
-3.74019e-06 0.535 -2.2579
0 0.692065 2.18992
-9.45009e-06 1.00089 -1.24333
-0.00119856 1.46779 0.0600001
-0.0011916 1.28367 1.36333
0.847611 0.584145 -1.32377
0.866768 0.64545 0.0286775
0.850297 0.674837 1.38113
-0.95837 0.261657 -2.10012
-0.61329 0.0877073 -2.13422
-0.6185 0.216504 -2.63669
-0.998552 0.337927 2.08513
-0.668118 0.163252 2.10054
-0.658956 0.364746 2.63554
-1.00139 0.841249 -1.90962
-0.645377 0.783947 -2.44117
-0.658402 1.37236 -1.82209
-0.989161 1.03471 2.01988
-0.649406 1.05356 2.56528
-0.687679 1.61715 2.04206
0.624623 0.0876841 -2.13422
0.624998 0.216453 -2.63669
0.953458 0.261569 -2.10012
0.660051 0.163178 2.1005
0.659885 0.364632 2.63551
1.00354 0.337659 2.08509
0.655334 0.783884 -2.44117
0.690557 1.37208 -1.82209
0.998405 0.84111 -1.90962
0.645287 1.05336 2.56528
0.645202 1.6164 2.04206
0.990236 1.03397 2.01987
-1.02388 0.261396 -0.706825
-0.663256 0.0673057 -0.726124
-1.05802 0.257585 0.690893
-0.705298 0.0649961 0.692205
-1.12002 1.02001 -0.598941
-0.746988 1.55847 -0.529967
-1.09824 1.06254 0.708261
-0.749753 1.63018 0.749732
0.674799 0.067406 -0.726137
1.02103 0.261137 -0.706841
0.707102 0.0649082 0.69218
1.06038 0.256778 0.690862
0.754423 1.55791 -0.529969
1.11649 1.0193 -0.598944
0.719324 1.62691 0.74973
1.09386 1.05784 0.708254
-1.31161 -0.12484 -2.69515
-1.31059 0.00948216 -3.20126
-0.975056 -0.153711 -3.23927
-1.33623 -0.0988378 -1.45213
-1.31261 0.0817055 -2.12471
-0.967533 -0.0922439 -2.15881
-1.37637 -0.106757 -0.0381177
-1.37139 0.0853055 -0.730149
-1.01076 -0.108784 -0.749448
-1.37617 -0.0779742 1.37672
-1.39785 0.0769448 0.678725
-1.04512 -0.115644 0.680037
-1.35554 -0.0230682 2.62465
-1.35134 0.137823 2.07506
-1.0209 -0.0368517 2.09047
-1.35327 0.0152934 3.70718
-1.34468 0.181171 3.16444
-1.01145 0.00456772 3.17705
-1.35398 0.213901 4.24102
-1.01575 0.0337613 4.24892
-1.31159 0.216028 -2.63083
-1.31976 0.484064 -3.08295
-0.971724 0.170875 -3.1674
-1.34778 0.265849 -1.40274
-1.33607 0.567905 -2.00974
-1.39287 0.269007 -0.0133072
-1.42168 0.648218 -0.658224
-1.37301 0.292742 1.37706
-1.42362 0.660135 0.694237
-1.34047 0.342062 2.61485
-1.34271 0.680568 2.04764
-1.34539 0.379778 3.69828
-1.34061 0.721665 3.13836
-1.00087 0.368881 3.16527
-1.35582 0.759529 4.22446
-1.01238 0.398186 4.24058
-1.34424 0.835942 -2.46187
-1.34596 1.32735 -2.91122
-0.988219 0.77864 -2.99341
-1.40997 0.950274 -1.26523
-1.3716 1.41757 -1.84333
-1.45243 1.03935 0.0493199
-1.44768 1.56307 -0.541229
-1.39333 1.04796 1.36481
-1.4487 1.62142 0.746806
-1.34285 1.06017 2.57114
-1.38836 1.62307 2.05036
-1.35103 1.10142 3.66453
-1.37858 1.65017 3.12808
-1.0031 1.07902 3.11654
-1.38343 1.68529 4.21674
-1.0197 1.12223 4.21133
-1.37332 1.90898 -2.29268
-1.01161 1.85036 -2.81694
-1.40931 2.03037 -1.11933
-1.02861 1.94868 -1.7558
-1.44395 2.14514 0.156257
-1.07465 2.10153 -0.472255
-1.44373 2.19653 1.43236
-1.10022 2.18905 0.788277
-1.42408 2.21307 2.6073
-1.08687 2.20551 2.07254
-1.41097 2.23405 3.68029
-1.0705 2.21883 3.13523
-1.06322 2.24645 4.21945
-0.630976 -0.121115 -2.70294
-0.636186 0.00768179 -3.20541
0.00871184 -0.152712 -3.24245
-0.642071 -0.102191 -1.45613
0.011336 -0.0896086 -2.16344
-0.67952 -0.117671 -0.0312939
0.0116539 -0.114805 -0.748837
-0.68985 -0.0745213 1.39378
0.00180267 -0.120633 0.686231
-0.676805 -0.00921583 2.64287
-0.00806661 -0.0285703 2.10131
-0.673935 0.0230356 3.7188
-0.667642 0.192278 3.17788
-0.000986326 0.00991932 3.1844
-0.674152 0.218046 4.24849
0.00119058 0.0357748 4.25317
-0.640186 0.465451 -3.07786
0.00650038 0.167956 -3.16838
-0.667859 0.387289 3.70757
-0.663361 0.726237 3.14345
0.000929772 0.374378 3.17132
-0.676265 0.760892 4.22746
0.00078612 0.399857 4.24379
-0.653868 1.30165 -2.89914
0.00996183 0.762832 -2.98734
-0.671767 1.09984 3.66334
-0.69502 1.64768 3.12369
-0.00411857 1.07779 3.11556
-0.699496 1.6834 4.21405
-0.00647995 1.1214 4.21112
-0.666894 1.89006 -2.28006
0.0312225 1.84017 -2.81094
-0.693951 2.01985 -1.10873
0.0321594 1.93945 -1.74919
-0.730911 2.14544 0.159765
0.00744942 2.09942 -0.468269
-0.743358 2.19804 1.42846
-0.0280465 2.19002 0.787795
-0.733294 2.21127 2.60047
-0.0424776 2.20441 2.06912
-0.722749 2.23124 3.67439
-0.0376068 2.21681 3.13181
-0.0323104 2.24461 4.21696
0.651024 -0.121206 -2.70294
0.651398 0.00756284 -3.20541
0.988633 -0.153968 -3.23928
0.665061 -0.102223 -1.45614
0.982128 -0.0924047 -2.15882
0.692977 -0.117767 -0.0313118
1.02722 -0.109094 -0.749465
0.683586 -0.0746821 1.39376
1.05028 -0.116236 0.680006
0.667752 -0.00943511 2.64284
1.01309 -0.0372544 2.09043
0.674139 0.0226585 3.71878
0.667586 0.192019 3.17785
1.01253 0.0040284 3.17702
0.676129 0.217585 4.24847
1.01924 0.0330118 4.2489
0.656648 0.465337 -3.07786
0.979673 0.170666 -3.1674
0.669575 0.386946 3.70754
0.660172 0.725932 3.14343
1.00555 0.3684 3.16523
0.670571 0.760367 4.22744
1.01487 0.397434 4.24056
0.695053 1.30136 -2.89914
1.00313 0.778385 -2.99342
0.661168 1.09935 3.66333
0.653295 1.64692 3.12368
0.996699 1.07826 3.11653
0.660706 1.68261 4.21403
1.00748 1.12128 4.21131
0.730275 1.88955 -2.28006
1.06847 1.84964 -2.81695
0.733559 2.01902 -1.10873
1.08439 1.94779 -1.75581
0.710314 2.144 0.159761
1.08558 2.0999 -0.472261
0.672834 2.1964 1.42845
1.04843 2.18655 0.78827
0.65321 2.20995 2.60046
1.00865 2.20334 2.07253
0.652832 2.23018 3.67438
0.999136 2.21713 3.13521
1.00036 2.24498 4.21944
1.31974 -0.125167 -2.69515
1.31691 0.00913534 -3.20127
1.34429 -0.0992758 -1.45214
1.31096 0.0814801 -2.12472
1.38453 -0.107563 -0.0381471
1.37345 0.0846371 -0.730169
1.37979 -0.0788084 1.37668
1.40356 0.0756335 0.678689
1.35786 -0.0237909 2.62461
1.35658 0.137227 2.07502
1.35763 0.0143816 3.70714
1.3505 0.180409 3.1644
1.35799 0.21286 4.24098
1.30813 0.215782 -2.63084
1.32615 0.483715 -3.08296
1.34012 0.265393 -1.40275
1.32818 0.567679 -2.00975
1.39248 0.267834 -0.0133335
1.41542 0.64715 -0.658236
1.38035 0.291669 1.37702
1.42398 0.657003 0.694213
1.34921 0.341427 2.61481
1.34878 0.679563 2.04761
1.35085 0.378888 3.69825
1.34208 0.720729 3.13833
1.35178 0.758351 4.22443
1.3462 0.835612 -2.46187
1.37655 1.32667 -2.91122
[...]
POINT_DATA 29498
VECTORS point_vectors float
-1.76962 -6.3287 9.2786
-0.0280679 0.19666 0.595407
-0.644572 0.798766 1.77698
0.0414119 -0.0793222 0.213834
1.75167 -6.34058 9.29296
0.035531 0.19592 0.602703
0.642903 0.796405 1.7719
-0.0449023 -0.0717902 0.209588
-0.00298729 0.000128111 0.0660593
-0.000354328 -0.000205071 0.0215803
-0.23811 -0.00188315 1.09322
0.00547852 0.0126842 0.0407029
0 0 0
9.0305e-05 -0.000203416 0.0164202
0.187488 0.00819223 0.991359
-0.0019518 0.00434063 0.0139225
-0.528495 -0.319603 19.7741
-1.2568 -1.00041 20.3104
-0.450785 -0.628725 21.3554
0.09233 -0.105276 21.5061
0.613374 0.356305 21.3498
0.822486 0.440127 20.9551
0.656802 0.309368 20.9706
-0.678995 -0.289503 19.649
-1.98278 -0.943854 20.1999
-0.751649 -0.758454 21.4709
0.0808631 -0.222414 21.6741
0.902503 0.211178 21.424
1.11742 0.257497 21.0083
0.888026 0.232319 21.0162
-0.917364 0.0878493 19.5261
-2.30436 0.258032 20.2465
-1.45015 -0.246627 21.4258
-0.213456 -0.305898 21.8063
0.816549 -0.445258 21.3867
1.14682 -0.488323 21.0495
0.905077 -0.34011 20.3858
-0.586644 0.457645 19.898
-0.90223 0.704478 20.3691
-0.807856 0.504114 21.1405
-0.21816 0.00440345 21.4562
0.187232 -0.296659 21.2968
0.329655 -0.399253 21.0101
0.271585 -0.365484 20.7147
-0.436808 -0.621361 19.3335
-1.29738 -3.15809 20.3903
-0.00228956 -0.563017 21.6837
0.108908 0.160616 21.3783
0.11146 1.10696 19.5934
0.255 1.34971 19.2071
0.3051 1.00026 18.699
-0.586149 -0.575363 18.9823
0.506959 1.61277 9.15701
1.4618 1.226 12.0989
-0.968092 0.21769 18.3821
1.26368 -0.219822 8.63531
1.85638 -0.32387 13.6636
-0.454964 0.82069 19.5757
-0.839233 1.51742 20.1522
-0.930077 1.46687 21.3166
-0.235752 0.135383 21.8366
0.108743 -0.490922 21.4303
0.225136 -0.589858 20.9594
0.0505074 -0.387122 21.0034
0.441313 -0.610515 19.3407
1.34951 -3.08319 20.3584
0.00259368 -0.561053 21.6776
-0.112447 0.167939 21.3874
-0.0870247 1.07747 19.5514
-0.251078 1.32309 19.2408
-0.304553 0.973704 18.735
0.600151 -0.56647 19.0038
-0.472602 1.60472 9.18354
-1.44305 1.21415 12.0865
0.983775 0.211296 18.4144
-1.24726 -0.173384 8.37739
-1.89609 -0.277697 13.3175
0.493399 0.788656 19.6018
0.885761 1.44647 20.1717
0.940846 1.44017 21.3155
0.230649 0.162594 21.8563
-0.085643 -0.493951 21.4602
-0.196754 -0.604877 20.963
-0.0311477 -0.406856 21.103
0.520671 -0.317068 19.7929
1.2507 -0.988342 20.3146
0.448131 -0.622161 21.3512
-0.0919941 -0.105274 21.4935
-0.602801 0.35143 21.3434
-0.810487 0.429556 20.9612
-0.659313 0.304809 20.9524
0.681569 -0.2873 19.6518
2.00727 -0.962315 20.1932
0.748961 -0.762672 21.4779
-0.0838295 -0.219119 21.6588
-0.884102 0.202716 21.4251
-1.09343 0.249069 21.0067
-0.880572 0.22347 21.0137
0.912454 0.0835202 19.5344
2.32395 0.26317 20.2444
1.45579 -0.256581 21.4386
0.201373 -0.311768 21.7951
-0.809005 -0.445919 21.4355
-1.15408 -0.481877 21.0393
-0.922715 -0.330497 20.365
0.578254 0.424981 19.9248
0.892035 0.662911 20.376
0.806143 0.494771 21.1411
0.229489 0.0168656 21.4779
-0.183892 -0.31653 21.3231
-0.329866 -0.413686 20.9646
-0.213581 -0.359493 20.8199
-0.953798 -0.0458475 1.15166
0.000247536 -0.0123788 0.134536
-0.000524603 6.80951e-05 0.00792466
0 0 0
-0.00218091 0.0262537 0.0946227
-0.0261591 0.013157 0.283137
2.88096e-05 0.0510422 0.154306
-0.143942 -0.0164771 0.228037
-0.00133496 0.0188783 -0.053826
0 0 0
0.945909 -0.0450164 1.14359
0.000510353 6.57331e-05 0.00786357
0 0 0
0.0241676 0.0127936 0.27975
0.144407 -0.0164689 0.228711
0 0 0
-2.41249e-06 -5.05717e-07 4.05955e-05
0 0 0
1.47422e-05 -0.000491479 0.00715197
0 0 0
1.13505e-05 0.00103425 0.0512816
0.00168885 0.00459358 0.012869
7.81979e-05 0.076298 0.1402
-3.52446e-05 -0.000956237 0.00940299
0 0 0
0 0 0
0 0 0
-0.00157918 0.00439513 0.0128286
-0.00186431 -0.00242698 0.032572
0 0 0
0.0101186 0.017008 0.104016
1.07424e-07 3.60782e-07 3.21911e-05
-8.13458e-08 -6.49675e-07 -0.000121406
8.78408e-08 -1.17293e-06 -8.85179e-05
-4.34432e-05 -0.00279856 0.00982549
0 0 0
-0.00013194 0.000738265 0.0234243
1.11459e-06 0.000427473 0.00724323
0 0 0
0.0040351 -0.00637347 0.141542
5.44415e-19 5.87359e-18 4.04644e-17
-0.00738115 0.0125382 0.0775098
-3.70108 -2.41016 19.6862
-2.01486 -5.19179 20.4996
-1.78045 -1.70547 17.7409
1.10414 1.17707 16.5366
-0.320058 1.27607 12.6782
-0.297843 1.25463 5.87199
-4.35255 1.07769 19.9632
-3.28978 1.55807 16.4109
-1.96117 2.66144 19.8644
1.35297 -0.0636201 16.5502
0.697456 0.255979 4.91908
0.405732 -0.903768 20.4775
2.07083 -5.09471 20.4731
1.79319 -1.67641 17.7809
3.745 -2.47503 19.6822
0.357118 1.21614 12.6364
0.333127 1.22867 5.89764
-1.10555 1.13823 16.7906
3.2944 1.52534 16.4824
2.00551 2.54672 19.8907
4.3809 1.09508 19.9617
-0.675098 0.323158 4.75227
-0.440146 -0.895214 19.7206
-1.35008 -0.0556346 16.7019
-0.383627 -0.975764 19.6356
0.0508495 -0.220441 17.5623
0.152454 0.136116 18.5607
-0.065232 0.246123 16.356
-2.51194 -0.666407 21.6098
-2.90204 2.41661 21.4327
-0.156155 -0.406798 20.2338
-0.390541 0.0207672 21.9702
-0.0556782 -0.229079 17.7637
0.364347 -0.959835 19.5134
0.0529142 0.247849 16.4748
-0.1569 0.133315 18.6704
2.90239 2.36552 21.4482
2.51719 -0.684693 21.5882
0.373278 0.022578 21.8218
0.130041 -0.401668 20.11
-0.89635 -0.600982 19.8615
-0.601502 -0.307262 19.7137
-0.527885 -0.463105 19.5862
-0.931891 -0.930305 21.115
-1.60312 -1.02428 20.2501
-1.53056 -1.84918 20.2454
-0.154304 -0.357099 21.4495
-0.57397 -0.694389 21.4186
-0.219013 -0.767855 21.5396
0.362922 0.144104 21.501
0.090809 -0.159916 21.582
0.173788 -0.0203247 21.5744
0.730852 0.420035 21.1522
0.757099 0.307972 21.3828
0.633958 0.770157 21.0904
0.86708 0.354827 20.7664
0.953897 0.350768 21.0733
0.938206 0.874961 20.9518
0.740675 0.244488 21.1279
0.60975 0.620211 21.3784
-1.27471 -0.5492 19.6394
-0.834256 -0.135188 19.5381
-0.679038 -0.390569 19.3592
-1.45201 -0.969538 21.2474
-2.44693 -0.375692 20.1824
-0.297747 -0.508884 21.6225
-1.13489 -0.64632 21.492
0.499393 0.0149752 21.6461
-0.020018 -0.314913 21.8151
1.03751 0.265369 21.2105
1.01279 -0.146379 21.4117
1.26734 0.203824 20.4002
1.25891 -0.168242 21.0338
1.42046 1.06276 18.148
1.11723 -0.231961 20.3507
1.2212 0.776166 19.0281
-1.67453 0.184257 19.587
-0.792139 0.374832 19.6543
-1.03038 0.138792 19.0286
-1.93621 -0.0484235 21.0365
-1.52672 0.733489 20.2788
-0.840356 -0.327685 21.7632
-1.31166 0.382784 21.2805
0.380279 -0.343986 21.7342
-0.295055 -0.0969761 21.6859
0.968833 -0.493747 21.2448
0.384832 -0.457301 21.3878
1.10508 -0.40807 20.71
0.559189 -0.52428 20.8954
1.41067 -0.607275 18.9133
0.369765 -0.452491 20.9404
1.40586 -0.48387 19.4906
-0.778135 0.616682 20.0765
-0.553711 0.632955 19.7384
-0.922781 0.661021 20.7688
-0.96214 1.07006 20.2762
-0.536182 0.275391 21.3995
-0.9726 0.920575 21.2535
0.0271486 -0.183358 21.3635
-0.250089 0.0788877 21.6477
0.258707 -0.375343 21.1169
0.175682 -0.404068 21.3203
0.238763 -0.328664 20.9959
0.298335 -0.527554 20.8997
0.12073 -0.372247 20.9673
-0.920637 -1.52499 19.1208
-0.504224 -0.615001 19.173
0.00328006 -0.743935 19.1431
-0.296906 -1.36567 21.8795
0.0189658 -3.92165 20.9793
0.0591064 -0.171776 21.4903
0.0116799 -0.472934 21.5804
0.0880199 0.612025 20.499
0.00469543 0.134758 20.844
0.114111 1.25016 18.9355
-0.00227065 0.620144 18.4277
0.496511 1.28124 19.302
0.303526 1.79434 15.7765
-0.0402905 0.792414 18.2957
0.775668 1.10755 15.5822
-0.0213613 1.38481 17.1016
-0.824453 -0.260133 18.5875
0.00845023 -0.714735 18.644
1.09348 1.40597 10.5903
1.52479 0.661505 6.5703
0.0294469 -0.838259 -0.512464
1.86246 0.576346 11.4587
0.0281294 -0.475883 4.28203
-0.772066 0.845773 18.9557
0.0214938 0.41946 17.5578
1.54213 -0.671057 11.0005
0.551231 -1.11045 19.794
0.020797 -0.613387 -0.221442
0.512597 -0.886775 19.3121
0.0260333 -2.07291 2.65243
-0.685563 1.25371 19.7755
0.0297301 1.01099 19.4082
-0.952218 1.61002 20.6187
0.0577254 1.97072 20.0145
-0.599033 0.814068 21.8333
0.0124247 2.24874 21.367
-0.00884882 -0.274867 21.6189
-0.00981194 0.265331 22.0184
0.175997 -0.598977 21.2968
0.00645062 -0.527782 21.4776
0.246219 -0.767813 20.5796
0.0138187 -0.775106 21.0458
-0.00348359 -0.860102 20.857
0.928648 -1.49156 19.1496
0.50957 -0.600075 19.1863
0.525387 -0.457612 19.5902
0.310117 -1.36747 21.8511
1.5215 -1.80913 20.2471
-0.0589648 -0.157393 21.4994
0.235 -0.761906 21.5295
-0.0900189 0.603154 20.4803
-0.173827 -0.0176457 21.565
-0.0984569 1.21837 18.9415
-0.624667 0.766218 21.071
-0.498261 1.26362 19.346
-0.296269 1.76226 15.8237
-0.930241 0.857498 20.9577
-0.763142 1.08231 15.5952
-0.6167 0.600961 21.4462
0.841891 -0.256468 18.6175
0.684543 -0.389721 19.3644
-1.07555 1.40768 10.5978
-1.47458 0.661481 6.42782
-1.41085 1.04145 18.2105
-1.86012 0.593177 11.283
-1.21104 0.770597 19.0471
0.795928 0.813142 19.0045
1.02808 0.128607 19.0657
-1.5455 -0.645293 10.6626
-0.579558 -1.10856 19.2618
-1.41492 -0.600756 18.8806
-0.544786 -0.903983 19.1243
-1.40974 -0.473376 19.4977
0.723011 1.20068 19.7904
0.568212 0.601702 19.769
0.985636 1.55475 20.6315
0.967099 0.994753 20.2969
0.595128 0.832062 21.8436
0.973053 0.904918 21.252
0.0189458 -0.272659 21.6215
0.254735 0.0795653 21.6784
-0.153009 -0.609242 21.2914
-0.165329 -0.420152 21.3224
-0.233834 -0.7789 20.7013
-0.290705 -0.527325 20.8861
-0.0961426 -0.364679 20.9612
0.89068 -0.597403 19.8635
0.597801 -0.304945 19.7273
0.926717 -0.921542 21.1101
1.6063 -1.02889 20.2549
0.15997 -0.349732 21.4356
0.573568 -0.690085 21.422
-0.356121 0.130774 21.4841
-0.0896679 -0.158193 21.5674
-0.714528 0.416715 21.1578
-0.745136 0.292814 21.3864
-0.854283 0.338868 20.7668
-0.941422 0.338239 21.0802
-0.74579 0.239996 21.1148
1.28086 -0.552941 19.6328
0.834727 -0.135337 19.5415
1.45753 -0.983193 21.2585
2.48184 -0.378697 20.1758
0.283854 -0.501732 21.6265
1.13508 -0.652522 21.4994
-0.487279 0.00907712 21.6376
0.0112969 -0.313425 21.8
-1.01932 0.256929 21.2235
-0.99038 -0.142065 21.4022
-1.24827 0.201152 20.4572
-1.24271 -0.169982 21.04
-1.12064 -0.220757 20.3552
1.67206 0.181201 19.5901
0.778483 0.363294 19.6752
1.95046 -0.0512081 21.0426
1.50554 0.708972 20.2863
0.827812 -0.340049 21.7733
1.3103 0.37507 21.2862
-0.373479 -0.340827 21.7305
0.298668 -0.103094 21.708
-0.962657 -0.490574 21.2424
-0.388325 -0.47349 21.3897
-1.1126 -0.403825 20.6683
-0.586155 -0.550672 20.8919
-0.381555 -0.476137 20.9537
0.761721 0.581888 20.0984
0.911722 0.634225 20.7715
0.539665 0.281191 21.4085
-0.0350151 -0.195554 21.4089
-0.243794 -0.378348 21.1154
-0.238781 -0.374605 21.0224
-1.07783 -0.608886 19.7526
-1.27429 -1.68331 18.5648
-1.02742 -1.01329 19.5406
-1.6594 -0.96271 18.9713
-0.619117 -0.46001 19.492
-2.34485 -2.30945 20.0491
-1.15225 -0.990478 21.1877
-0.0264676 -0.835036 19.6942
-0.718981 -1.3681 21.4632
-1.48181 -2.06076 21.4416
-0.253777 -0.951264 21.4286
-0.2057 -0.429292 21.5244
-0.0686027 0.0354985 16.4783
0.010432 -0.370177 21.5698
-0.0553184 -0.356104 18.532
0.202364 -0.00863494 20.8185
0.431141 0.0996789 21.5784
-0.256167 0.661839 14.0297
0.390975 0.388924 21.3815
0.529074 0.683008 17.4598
0.841838 1.03082 19.3858
0.91532 0.390209 21.1824
-0.109948 1.47341 13.9537
0.768794 0.841456 20.9991
1.23483 1.09468 17.1731
1.06292 1.08349 19.2128
1.14143 0.193686 20.3842
0.79307 1.35014 14.6215
0.828175 0.98803 21.162
1.45288 0.908494 18.6043
0.882453 0.608496 19.5169
-1.62419 -0.226626 19.512
-2.90358 -0.642791 16.4463
-2.47951 0.576365 18.6448
-0.91611 -0.203871 19.13
-5.09424 -0.594983 19.6367
-1.83591 -0.569126 21.2239
-3.11605 -0.134181 21.3486
-1.09404 -1.25109 19.6834
-0.564352 -0.511169 21.7583
-1.25105 -0.744541 21.1117
0.206182 0.0939205 17.8464
0.521355 -0.17913 21.6997
0.834112 0.0289509 18.2193
1.38089 0.677274 14.0944
1.19111 -0.130196 21.121
0.144429 1.07109 2.56914
1.39891 -0.331874 18.2211
1.88565 0.336803 17.1003
1.16709 -0.223673 21.0159
1.88387 0.734017 9.14714
1.52945 -0.601811 19.2052
1.52112 0.164946 18.386
-1.23418 0.621997 19.8256
-1.48649 1.98754 18.916
-0.787059 0.920994 19.9259
-0.858935 0.592684 19.3382
-1.94684 1.48007 20.0973
-1.50782 0.570493 20.8074
-2.25717 2.3004 20.2999
-1.0339 1.05608 20.7319
-2.05164 0.927777 21.4509
-0.82725 0.125834 21.6394
-1.794 1.09902 22.6367
-0.628954 0.505794 21.625
-0.404407 -0.0670855 22.0221
0.140275 -0.304882 21.605
0.271761 -0.658407 20.8606
0.0210947 -0.233568 21.4998
0.414436 -0.686972 21.5376
0.502846 -0.504056 21.2143
0.470302 -0.99962 20.3955
0.244617 -0.485312 21.1325
0.561455 -0.826645 21.3126
0.662732 -0.441298 20.6647
0.54584 -1.06108 19.2787
0.248558 -0.505326 21.0734
0.370238 -0.665595 20.5737
1.29217 -1.63761 18.5953
0.0157428 -2.0712 18.7283
0.0124741 -2.82022 16.2354
0.0088528 -0.811551 18.9041
0.0193005 -5.86009 22.5438
0.0127978 -0.867671 19.8718
0.0100252 -1.25712 22.1755
0.015965 -0.136509 15.1902
0.0738748 0.0538003 16.6027
0.00978264 -0.156587 21.1108
0.00757835 0.20082 14.0667
0.240091 0.651841 14.1398
-0.00224399 0.391909 19.4622
-0.0149675 0.404919 9.85115
0.135837 1.42866 13.9399
-0.017602 0.491369 18.126
-0.0414975 -1.01638 -2.22105
-0.0235356 0.294489 8.23299
-0.78467 1.34379 14.6308
-0.0187718 1.2017 16.9804
-0.00550387 -0.144597 0.733688
-0.00241734 0.943667 12.322
2.89644 -0.638623 16.5149
0.0339139 3.39729 13.4582
0.00911511 -0.345509 17.9855
-0.0796115 1.11633 2.46456
-0.00455541 0.177784 -0.49368
0.0661337 -1.56631 -4.13123
-1.84805 0.750748 9.02155
0.0301883 -0.951237 0.637569
0.0421348 -1.4467 0.531943
1.52446 1.865 18.9831
0.0442606 1.62549 19.5982
0.0264018 1.22401 18.51
0.0547893 3.79498 19.6573
2.2702 2.22136 20.3326
0.0470581 2.1931 20.4556
0.0228955 5.40345 21.0781
1.80571 1.11966 22.6742
-0.00905567 1.24171 22.0867
-0.0135257 0.171372 20.7411
-0.27804 -0.671862 20.7039
-0.00311314 -0.276594 21.7611
-0.0039434 -0.708414 14.7586
-0.456113 -1.00607 20.1103
0.0105066 -0.66615 21.3668
-0.00643963 -1.02039 16.714
-0.544083 -1.08559 19.0249
0.00821657 -0.593578 20.9136
0.00827618 -0.965818 17.3509
1.07795 -0.611121 19.7596
1.02522 -0.993622 19.5568
1.66461 -0.961708 18.9749
0.6246 -0.462576 19.4938
2.33096 -2.27871 20.0547
1.15153 -0.987801 21.1921
0.747907 -1.3573 21.444
1.45089 -2.0643 21.3729
0.263324 -0.946855 21.456
0.202185 -0.421977 21.5202
-0.00836821 -0.355502 21.5645
0.0388349 -0.329726 18.5508
-0.20298 -0.0101301 20.8613
-0.422184 0.0937816 21.5707
-0.388494 0.384243 21.3782
-0.530828 0.648057 17.663
-0.829782 1.02059 19.3809
-0.901556 0.376012 21.1747
-0.758582 0.839508 20.9936
-1.21982 1.06715 17.3094
-1.05075 1.06108 19.2479
-1.12332 0.196891 20.4139
-0.832711 0.97332 21.2092
-1.44261 0.892415 18.6964
-0.879584 0.593234 19.5546
1.62678 -0.227826 19.513
2.46771 0.562908 18.6654
0.91543 -0.19895 19.1559
5.15461 -0.594837 19.6169
1.84517 -0.582109 21.2343
3.13125 -0.142102 21.3571
1.07478 -1.25167 19.5833
0.547352 -0.514034 21.7622
1.2197 -0.764424 21.0537
-0.218706 0.101602 17.8245
-0.508686 -0.180039 21.7008
-0.81653 0.0369022 18.2925
-1.38178 0.676616 14.3627
-1.16875 -0.134768 21.1354
-1.39055 -0.308218 18.1968
-1.8729 0.346072 17.0911
-1.163 -0.223748 21.0162
-1.54108 -0.594156 19.136
-1.51453 0.183724 18.3382
1.2124 0.597393 19.8446
0.793898 0.861388 19.9567
0.860221 0.559439 19.3767
1.92975 1.4103 20.1185
1.4932 0.555736 20.8121
1.03405 1.01583 20.7406
2.04237 0.913945 21.4528
0.83187 0.115404 21.6525
0.634213 0.517494 21.6368
0.411883 -0.0743438 22.0457
-0.138788 -0.31144 21.6189
-0.0149409 -0.235055 21.5168
-0.406678 -0.709386 21.5561
-0.505812 -0.524503 21.2062
-0.242583 -0.509934 21.1669
-0.544121 -0.844296 21.3672
-0.686865 -0.467215 20.6912
-0.257809 -0.555143 21.0088
-0.368728 -0.687325 20.4736
-1.29619 -1.04624 19.2811
-0.969985 -1.74389 21.7617
0.0185596 -0.429731 20.9492
0.492805 0.53028 20.0907
0.944122 1.06329 19.4306
1.14053 0.948261 19.8832
-2.34851 -0.388866 18.5148
-2.51636 -1.23168 21.6254
-0.32517 -0.574079 18.5138
0.733394 0.626655 16.3073
1.57723 0.508509 15.8869
1.7435 0.31062 17.3116
-1.51127 1.16042 19.4479
-2.03382 1.1808 20.6986
-1.28691 0.383306 22.0477
0.153119 -0.445304 21.8061
0.533542 -0.75795 21.2754
0.674202 -0.756752 21.1388
0.0226395 -2.58658 17.8857
0.0145954 -0.544199 17.2449
0.0125419 0.00844309 14.2003
-0.00352096 0.294966 11.9283
-0.0700107 0.0510003 8.79793
-0.0141627 0.598557 8.96347
0.0249412 -0.745389 13.4574
0.0170034 -0.882907 -2.8473
0.0484977 -0.646101 -1.42813
0.0472585 3.00354 18.3404
0.0452525 3.67033 19.6246
-0.0110786 2.24653 22.6627
-0.00799802 -0.605092 17.8188
-0.00639667 -0.860306 15.811
0.00394152 -1.3752 16.882
1.29835 -1.04051 19.2934
0.985272 -1.71734 21.7468
-0.020593 -0.417493 21.0029
-0.489788 0.514319 20.1381
-0.930247 1.04545 19.4491
-1.13766 0.932866 19.9528
2.33956 -0.388103 18.5374
2.49975 -1.24899 21.5765
0.285133 -0.560212 18.4796
-0.716741 0.608075 16.4358
-1.55255 0.511221 15.9473
-1.7355 0.32338 17.2638
1.49193 1.09331 19.4873
2.00671 1.13831 20.7115
1.30377 0.378224 22.0657
-0.145474 -0.457907 21.8408
-0.523086 -0.777196 21.2928
-0.653397 -0.777683 21.085
-2.14305 -0.351618 1.01181
-0.00202485 -0.0228758 0.176358
-0.0172045 -0.00433808 0.275647
0.0123787 0.00510473 0.0436946
-0.0613942 0.050248 0.170866
-0.0170195 0.0154814 0.147596
0 0 0
-0.0296756 0.25015 0.628582
-0.160394 0.0654575 0.650449
-0.00486731 0.00746453 0.00344701
0.00702837 0.0187849 -0.0330527
0.0081863 0.00127051 0.0558406
0.00386907 -0.0223634 0.176377
2.13977 -0.35442 1.01304
0.0184416 -0.004349 0.279076
0.0310361 0.0244684 0.131511
-0.0122157 0.00482169 0.0429158
0.0187348 0.0158247 0.152292
0.0290965 0.247114 0.621096
0 0 0
0.161812 0.0658137 0.655703
-0.00895828 0.0195434 -0.0340385
0.00531761 0.00827802 0.00269674
-0.00835614 0.00145706 0.0559152
0.00633873 -0.00492656 0.168064
-0.00128636 5.57077e-05 0.0345627
0 0 0
0 0 0
-0.067674 0.0378453 0.407606
0 0 0
0 0 0
0 0 0
-0.770663 -0.120649 0.716684
-0.0146766 -0.0117787 0.228343
0.00105703 0.00437252 0.0241996
-0.0650995 0.0742675 0.173207
0.0127586 0.0181861 0.0749316
0.00463371 0.0161438 0.0716989
0.0109094 0.0224432 0.088595
0.00351084 -0.00165189 0.020895
-0.00642733 -0.00491178 0.169982
0 0 0
0 0 0
0 0 0
0.0637896 0.0380958 0.403169
0 0 0
0 0 0
0 0 0
0.803366 -0.129254 0.74466
0.064018 0.0731002 0.170268
0.0145058 -0.0111687 0.225241
-0.00107303 0.00442267 0.0245431
-0.000409157 0.000628414 0.00238321
-0.00280622 -0.00119806 0.0154365
-0.00518344 0.0167038 0.0748382
-0.00742586 0.0167322 0.0461267
-0.124398 -0.069393 0.495754
-0.184473 0.0406217 0.124581
-1.28236e-06 -2.33654e-06 0.000696482
0 0 0
0 0 0
0 0 0
0 0 0
0 0 0
-6.53173e-05 0.00284188 0.0449102
-0.000299835 0.00040041 -0.00141233
0.000163952 0.00478745 0.0268023
-4.50818e-18 1.48392e-18 1.42788e-16
-0.000663823 0.640677 0.655546
2.9355e-06 0.000915302 0.00553735
-0.0207351 -0.0381273 0.253792
-0.00474353 0.00103462 0.00965852
0 0 0
0 0 0
0.000581241 0.000658677 0.00531573
-1.4386e-05 -3.7042e-06 2.69204e-05
0.182254 0.0401493 0.123082
0.107694 -0.060857 0.437081
-5.06191e-08 2.8881e-08 2.63136e-06
0 0 0
0 0 0
0 0 0
0 0 0
-0.00019482 0.00483963 0.0276897
0.00454041 0.000998768 0.00929116
0.0206552 -0.0378729 0.253296
3.90618e-06 -1.28647e-06 8.5822e-06
-0.000578896 0.00066309 0.00530002
0 0 0
0 0 0
0.000329443 -0.000997337 0.00765779
0 0 0
2.57427e-07 6.59872e-07 7.23614e-05
1.20391e-07 2.49438e-07 5.58049e-05
0 0 0
6.68052e-05 0.00120152 0.00824973
1.47269e-09 8.16454e-09 1.44284e-06
-3.95076e-07 4.01713e-06 0.000133308
0.0141383 0.0672778 0.383518
-0.000461768 0.00442215 0.0658326
2.28051e-05 0.00424504 0.00758389
0.000102809 0.0670287 0.324468
1.94553e-05 -9.65857e-05 0.00630775
8.5794e-06 -0.00370158 0.0194914
0 0 0
0 0 0
-0.000513967 -0.00153949 0.0121654
0 0 0
0 0 0
-6.24044e-06 0.000231088 0.00176702
0.000697776 0.00511884 0.0764849
-0.0149882 0.0652693 0.394854
-0.0806003 -0.0616175 0.335539
-0.183004 -0.0355939 0.480387
0 0 0
-0.004557 -0.0116612 0.0710713
0 0 0
-0.00111529 0.0128859 0.0978009
0 0 0
0.0085365 0.0334342 0.154994
0 0 0
0 0 0
0 0 0
0.00231491 0.00117412 0.015606
0 0 0
8.93783e-07 -4.09106e-08 7.39685e-05
0 0 0
0 0 0
4.72569e-19 5.11887e-19 8.03424e-17
-2.69578e-20 -1.99272e-19 -3.2795e-17
0 0 0
0 0 0
0 0 0
6.42687e-06 5.04043e-06 0.000174609
0 0 0
0.00184131 0.00146761 0.0219997
0 0 0
0 0 0
0 0 0
0 0 0
-0.0240893 0.00598385 -0.00336279