# vtk DataFile Version 2.0
tet_velo
ASCII
DATASET UNSTRUCTURED_GRID
POINTS 29498 float
-0.655 0.145 -1.89479
-0.722703 0.135 1.855
-0.725 0.471476 -1.825
-0.755 0.787363 1.795
0.655309 0.145 -1.895
0.722703 0.135 1.855
0.725 0.47157 -1.825
0.755 0.787356 1.795
-0.693927 0.125307 -0.64486
-0.713795 0.124674 0.60507
-0.840587 0.682358 -0.618334
-0.829934 0.767001 0.588333
0.694134 0.125307 -0.645
0.713902 0.12467 0.605
0.840575 0.682407 -0.618334
0.829863 0.766957 0.588333
-1.41534 -0.177641 -2.88773
-1.41253 -0.116913 -1.90511
-1.44315 -0.130959 -0.654053
-1.45938 -0.16163 0.605706
-1.46011 -0.164019 1.85749
-1.46297 -0.142722 2.84371
-1.46707 -0.110163 3.82328
-1.41524 0.0497599 -2.86836
-1.41929 0.135373 -1.89046
-1.46581 0.149179 -0.647836
-1.47672 0.141843 0.598679
-1.46567 0.146769 1.84214
-1.46715 0.168271 2.82775
-1.47141 0.199191 3.80873
-1.44828 0.462856 -2.81749
-1.4875 0.544852 -1.83783
-1.57672 0.696174 -0.624707
-1.57127 0.767325 0.585354
-1.51279 0.790021 1.79931
-1.49606 0.807352 2.78672
-1.49205 0.830651 3.77469
-1.48319 1.23446 -2.77371
-1.51027 1.33603 -1.80052
-1.55731 1.50642 -0.601428
-1.58084 1.64399 0.588339
-1.56896 1.71548 1.78789
-1.54937 1.74524 2.76204
-1.53405 1.76807 3.74528
-0.687728 -0.173307 -2.89057
-0.676948 -0.108588 -1.90923
-0.699629 -0.141568 -0.653545
-0.715427 -0.175975 0.611154
-0.721069 -0.176216 1.86704
-0.720702 -0.152218 2.85019
-0.721645 -0.117324 3.82702
-0.680926 0.0455265 -2.86925
-0.720846 0.160455 2.83309
-0.723511 0.193041 3.81155
-0.70225 0.430755 -2.81216
-0.740314 0.80421 2.78585
-0.738374 0.827511 3.77449
-0.722253 1.21134 -2.76844
-0.737907 1.3137 -1.79471
-0.777106 1.49853 -0.597931
-0.80563 1.64683 0.587902
-0.80326 1.71927 1.78487
-0.787727 1.74742 2.75902
-0.774964 1.76894 3.74308
0.712763 -0.173292 -2.89071
0.687915 -0.108584 -1.9094
0.708128 -0.141569 -0.653671
0.723005 -0.175978 0.611084
0.730644 -0.176218 1.86702
0.748191 -0.152221 2.85016
0.760182 -0.117328 3.827
0.714334 0.0455493 -2.86938
0.75124 0.160451 2.83307
0.761801 0.193036 3.81153
0.744151 0.430807 -2.81223
0.759281 0.804203 2.78583
0.761036 0.827505 3.77447
0.788529 1.21137 -2.76849
0.79848 1.31374 -1.79475
0.796251 1.49855 -0.597962
0.769362 1.64683 0.587876
0.745152 1.71926 1.78484
0.742104 1.74741 2.759
0.744558 1.76893 3.74305
1.42995 -0.177609 -2.88797
1.4115 -0.116893 -1.90538
1.44197 -0.130955 -0.654266
1.46329 -0.161641 0.605576
1.46975 -0.164028 1.85743
1.48717 -0.142731 2.84365
1.50172 -0.110173 3.82322
1.43176 0.0498061 -2.86858
1.40993 0.135405 -1.89073
1.45823 0.149188 -0.648039
1.47667 0.141826 0.598563
1.47092 0.14676 1.84209
1.49082 0.168262 2.8277
1.5044 0.199181 3.80868
1.47396 0.462939 -2.81763
1.48324 0.544949 -1.83795
1.56999 0.696218 -0.624795
1.56668 0.767287 0.585297
1.51045 0.790001 1.79928
1.50679 0.807337 2.78668
1.50944 0.830638 3.77464
1.53896 1.23453 -2.77381
1.5559 1.33609 -1.80061
1.56819 1.50645 -0.601499
1.5486 1.64398 0.58828
1.51875 1.71546 1.78784
1.5073 1.74522 2.76199
1.50413 1.76805 3.74522
-0.706102 0.308238 -1.876
0.000154525 0.138172 -1.90172
-0.678916 0.130701 -1.26983
-0.762939 0.461181 1.84909
0 0.174541 1.81546
-0.723398 0.124688 1.23004
0 0.523665 -1.87714
-0.873603 0.667727 -1.22167
0 0.836675 1.84432
-0.826259 0.810974 1.19167
0.70625 0.308285 -1.8761
0.679174 0.1307 -1.27
0.76294 0.461178 1.84909
0.72346 0.124677 1.23
0.873479 0.66768 -1.22167
0.826253 0.810978 1.19167
-0.703698 0.125153 -0.019895
-0.870577 0.403833 -0.631597
0.000103229 0.12229 -0.64493
-0.813616 0.445838 0.596702
5.3559e-05 0.122002 0.605035
-0.830552 0.719972 -0.015
-5.65821e-06 0.992251 -0.618334
-3.53533e-05 1.03575 0.588333
0.703862 0.125144 -0.02
0.870591 0.403857 -0.631667
0.813619 0.445814 0.596667
0.830536 0.719999 -0.015
-0.884402 0.356035 -1.24575
-0.865944 0.424835 -0.0174475
-0.889758 0.45351 1.21085
0.000128877 0.129402 -1.26991
7.83942e-05 0.122162 -0.0199475
2.67795e-05 0.121917 1.23002
7.72625e-05 0.308261 -2.00774
0 0.46118 2.03362
-2.82911e-06 0.767928 -1.22167
-2.05058e-05 1.0923 -0.015
-1.76767e-05 0.904636 1.19167
0.884402 0.356071 -1.24583
0.865945 0.424835 -0.0175
0.889759 0.453496 1.21083
-1.03715 0.140186 -1.89263
-0.665974 0.0182061 -1.90201
-0.667963 0.0952632 -2.38202
-1.09419 0.140884 1.84857
-0.721886 -0.0206079 1.86102
-0.721775 0.147727 2.34404
-1.10625 0.508164 -1.83142
-0.713625 0.451115 -2.31858
-0.731453 0.892589 -1.80985
-1.1339 0.788692 1.79716
-0.747657 0.795787 2.29042
-0.77913 1.25332 1.78993
0.671612 0.0182079 -1.9022
0.684822 0.0952747 -2.38219
1.03262 0.140203 -1.89286
0.726673 -0.020609 1.86101
0.736971 0.147726 2.34404
1.09681 0.14088 1.84854
0.734575 0.451188 -2.31861
0.76174 0.892654 -1.80987
1.10412 0.508259 -1.83147
0.757141 0.79578 2.29042
0.750076 1.25331 1.78992
1.13272 0.788678 1.79714
-1.07987 0.137243 -0.646348
-0.696778 -0.00813066 -0.649203
-1.09526 0.133259 0.601875
-0.714611 -0.0256504 0.608112
-1.20865 0.689266 -0.62152
-0.808846 1.09044 -0.608132
-1.2006 0.767163 0.586844
-0.817782 1.20692 0.588117
0.701131 -0.00813102 -0.649336
1.07618 0.137247 -0.64652
0.718453 -0.0256544 0.608042
1.09529 0.133248 0.601781
0.818413 1.09048 -0.608148
1.20528 0.689312 -0.621564
0.799612 1.20689 0.588105
1.19827 0.767122 0.586815
-1.41393 -0.147277 -2.39642
-1.41529 -0.0639408 -2.87804
-1.05153 -0.175474 -2.88915
-1.42784 -0.123936 -1.27958
-1.41591 0.00923018 -1.89778
-1.04474 -0.11275 -1.90717
-1.45126 -0.146294 -0.0241736
-1.45448 0.00911027 -0.650945
-1.07139 -0.136263 -0.653799
-1.45974 -0.162825 1.2316
-1.46805 -0.00989342 0.602193
-1.0874 -0.168802 0.60843
-1.46154 -0.153371 2.3506
-1.46289 -0.00862525 1.84981
-1.09059 -0.170118 1.86227
-1.46502 -0.126443 3.3335
-1.46506 0.0127747 2.83573
-1.09183 -0.14747 2.84695
-1.46924 0.0445139 3.81601
-1.09436 -0.113744 3.82515
-1.41727 0.0925664 -2.37941
-1.43176 0.256308 -2.84292
-1.04809 0.0476432 -2.86881
-1.44255 0.142276 -1.26915
-1.4534 0.340113 -1.86415
-1.47126 0.145511 -0.0245784
-1.52127 0.422677 -0.636272
-1.4712 0.144306 1.22041
-1.524 0.454584 0.592017
-1.46641 0.15752 2.33494
-1.48923 0.468395 1.82073
-1.46928 0.183731 3.31824
-1.48161 0.487812 2.80723
-1.094 0.164363 2.83042
-1.48173 0.514921 3.79171
-1.09746 0.196116 3.81014
-1.46789 0.503854 -2.32766
-1.46574 0.848659 -2.7956
-1.07527 0.446806 -2.81482
-1.53211 0.620513 -1.23127
-1.49888 0.94044 -1.81918
-1.574 0.731749 -0.0196764
-1.56702 1.1013 -0.613067
-1.54203 0.778673 1.19233
-1.57606 1.20566 0.586846
-1.50443 0.798686 2.29302
-1.54088 1.25275 1.7936
-1.49406 0.819002 3.2807
-1.52272 1.2763 2.77438
-1.11819 0.805781 2.78628
-1.51305 1.29936 3.75998
-1.11521 0.829081 3.77459
-1.49673 1.28524 -2.28711
-1.10272 1.2229 -2.77107
-1.53379 1.42122 -1.20097
-1.12409 1.32487 -1.79761
-1.56908 1.57521 -0.00654431
-1.16721 1.50248 -0.599679
-1.5749 1.67974 1.18812
-1.19324 1.64541 0.58812
-1.55916 1.73036 2.27497
-1.18611 1.71737 1.78638
-1.54171 1.75665 3.25366
-1.16855 1.74633 2.76053
-1.1545 1.7685 3.74418
-0.682338 -0.140947 -2.3999
-0.684327 -0.0638902 -2.87991
0.0125174 -0.173299 -2.89064
-0.688289 -0.125078 -1.28139
0.00548344 -0.108586 -1.90931
-0.707528 -0.158771 -0.0211958
0.00424932 -0.141569 -0.653608
-0.718248 -0.176095 1.2391
0.00378857 -0.175976 0.611119
-0.720885 -0.164217 2.35862
0.00478749 -0.176217 1.86703
-0.721173 -0.134771 3.33861
-0.720774 0.00411856 2.84164
0.0137442 -0.152219 2.85018
-0.722578 0.0378587 3.81929
0.0192687 -0.117326 3.82701
-0.691588 0.238141 -2.84071
0.0167042 0.0455379 -2.86932
-0.722179 0.176748 3.32232
-0.73058 0.482332 2.80947
0.0151966 0.160453 2.83308
-0.730942 0.510276 3.79302
0.019145 0.193039 3.81154
-0.712251 0.821047 -2.7903
0.0209505 0.430781 -2.81219
-0.739344 0.815861 3.28017
-0.76402 1.27581 2.77243
0.00948369 0.804207 2.78584
-0.756669 1.29823 3.75878
0.0113311 0.827508 3.77448
-0.73008 1.26252 -2.28157
0.0331381 1.21136 -2.76846
-0.757507 1.40612 -1.19632
0.0302863 1.31372 -1.79473
-0.791368 1.57268 -0.00501472
0.00957235 1.49854 -0.597946
-0.804445 1.68305 1.18638
-0.0181345 1.64683 0.587889
-0.795493 1.73334 2.27194
-0.029054 1.71926 1.78485
-0.781345 1.75818 3.25105
-0.0228116 1.74741 2.75901
-0.0152025 1.76894 3.74306
0.700339 -0.140938 -2.40005
0.713549 -0.0638712 -2.88005
1.07136 -0.17545 -2.88934
0.698021 -0.125076 -1.28153
1.04971 -0.112739 -1.90739
0.715566 -0.158774 -0.0212937
1.07505 -0.136262 -0.653969
0.726824 -0.176098 1.23905
1.09315 -0.168809 0.60833
0.739417 -0.16422 2.35859
1.10019 -0.170123 1.86222
0.754186 -0.134775 3.33858
0.749715 0.00411489 2.84162
1.11768 -0.147476 2.84691
0.760991 0.0378539 3.81926
1.13095 -0.113751 3.82511
0.729242 0.238178 -2.84081
1.07305 0.0476777 -2.86898
0.75652 0.176744 3.3223
0.755261 0.482327 2.80945
1.12103 0.164356 2.83039
0.761418 0.510271 3.793
1.1331 0.196108 3.8101
0.76634 0.821091 -2.79036
1.10905 0.446873 -2.81493
0.760159 0.815854 3.28015
0.750692 1.27581 2.77242
1.13304 0.80577 2.78626
0.752797 1.29822 3.75876
1.13524 0.829071 3.77455
0.793504 1.26256 -2.28162
1.16375 1.22295 -2.77115
0.797365 1.40614 -1.19636
1.17719 1.32491 -1.79768
0.782806 1.57269 -0.00504273
1.18222 1.5025 -0.59973
0.757257 1.68304 1.18636
1.15898 1.64541 0.588078
0.743628 1.73333 2.27192
1.13195 1.71736 1.78634
0.743331 1.75817 3.25102
1.1247 1.74632 2.76049
1.12434 1.76849 3.74414
1.42072 -0.147251 -2.39667
1.43086 -0.0639013 -2.87828
1.42673 -0.123924 -1.27982
1.41071 0.00925609 -1.89805
1.45263 -0.146298 -0.0243451
1.4501 0.00911645 -0.651153
1.46652 -0.162834 1.2315
1.46998 -0.00990726 0.602069
1.47846 -0.153379 2.35054
1.47033 -0.00863398 1.84976
1.49444 -0.126452 3.33344
1.48899 0.0127656 2.83568
1.50306 0.0445039 3.81595
1.42085 0.0926058 -2.37966
1.45286 0.256372 -2.84311
1.43408 0.142297 -1.26938
1.44658 0.340177 -1.86434
1.46745 0.145507 -0.0247382
1.51411 0.422703 -0.636417
1.47379 0.144293 1.22032
1.52168 0.454556 0.59193
1.48087 0.157511 2.33489
1.49068 0.46838 1.82068
1.49761 0.183721 3.31819
1.49881 0.4878 2.80719
1.50692 0.514909 3.79166
1.4786 0.503944 -2.32779
1.50646 0.848732 -2.79572
[...]
POINT_DATA 29498
VECTORS point_vectors float
-2.09264 -5.45262 6.14899
-0.047385 0.716604 2.45638
-0.89777 0.465959 1.31106
0.136137 -0.248163 1.10588
2.11308 -5.50194 6.26
0.0517114 0.717994 2.49329
0.877385 0.463047 1.28229
-0.137959 -0.245235 1.10578
-0.000633678 -5.99505e-05 0.0133034
0.00129176 0.000101876 0.047722
0.0427023 0.0908245 0.526743
0.027221 0.0234947 0.089428
0.000589092 -5.59656e-05 0.0122275
-0.00125381 9.56553e-05 0.0459549
-0.0444668 0.0922358 0.528991
-0.027511 0.0235863 0.0892423
-0.567102 -0.262691 19.7834
-1.31904 -0.764523 20.2923
-0.509981 -0.395111 21.244
-0.0332192 -0.0400995 21.2647
0.441935 0.26932 21.2352
0.665309 0.376745 21.009
0.678365 0.241502 20.6547
-0.683531 -0.193236 19.6897
-1.71751 -0.589051 20.2068
-0.658896 -0.409752 21.3208
-0.0496387 -0.112158 21.3088
0.602089 0.151812 21.3266
0.917001 0.203467 21.011
0.846276 0.0714185 20.7407
-0.747345 -0.00589012 19.6518
-1.75697 0.0160741 20.1729
-0.951584 -0.183049 21.2651
-0.176057 -0.146481 21.3487
0.544913 -0.247935 21.381
0.861887 -0.368958 20.9829
0.763154 -0.301567 20.7931
-0.585234 0.324162 19.8062
-1.08711 0.608083 20.2162
-0.831339 0.374054 21.0256
-0.259815 0.0297499 21.2333
0.125899 -0.244865 21.1286
0.284846 -0.349615 20.9613
0.349893 -0.348016 20.6145
-0.541371 -0.557286 19.2337
-1.97108 -3.8647 20.3714
-0.320092 -0.34964 20.6894
-0.157513 0.0394323 19.9722
0.073433 0.876029 19.8106
0.354574 1.19291 19.1088
0.473916 1.15582 18.2633
-0.650931 -0.47575 18.9693
0.693051 1.38176 10.4772
1.13903 0.972322 13.2348
-0.845343 -0.0182369 18.6501
1.49926 -0.603726 10.3646
1.38559 -1.03142 14.1009
-0.573969 0.692744 19.2486
-1.42519 1.99424 19.6688
-1.43625 1.59681 21.3838
-0.349386 0.216445 21.6408
0.0622756 -0.4065 21.3063
0.18166 -0.650035 21.0378
0.131317 -0.6884 20.7531
0.54575 -0.546714 19.2562
1.9888 -3.80229 20.3605
0.318344 -0.348268 20.7429
0.156443 0.0426175 19.9977
-0.083617 0.869108 19.8493
-0.3839 1.1694 19.2132
-0.525911 1.05907 18.6546
0.671231 -0.455284 19.0127
-0.823873 1.38699 11.3196
-1.20367 0.926376 13.6435
0.85618 -0.0155167 18.7415
-1.53074 -0.577889 10.907
-1.37927 -1.01574 14.3937
0.603302 0.645272 19.3183
1.45832 1.89338 19.7055
1.43318 1.52949 21.3789
0.344857 0.226235 21.6617
-0.0504924 -0.415552 21.3243
-0.16782 -0.661288 21.0478
-0.112685 -0.704997 20.7652
0.567412 -0.260641 19.788
1.31993 -0.764787 20.2914
0.511152 -0.396719 21.2431
0.0349398 -0.0394193 21.259
-0.437915 0.255719 21.2342
-0.660146 0.350054 20.9991
-0.666927 0.209712 20.6509
0.676927 -0.189041 19.7077
1.73961 -0.603951 20.2089
0.657979 -0.414947 21.3266
0.0511821 -0.113382 21.3064
-0.594579 0.143074 21.3265
-0.878639 0.194222 20.9956
-0.775838 0.0599522 20.8828
0.738503 -0.00896229 19.6715
1.77283 0.0151709 20.1672
0.958993 -0.18482 21.269
0.174047 -0.144661 21.3492
-0.545441 -0.247028 21.3813
-0.849791 -0.363143 20.9782
-0.725408 -0.287362 20.8695
0.574353 0.307777 19.8334
1.04581 0.562605 20.235
0.821326 0.367456 21.0233
0.263394 0.0301592 21.2355
-0.127223 -0.2547 21.1269
-0.28665 -0.365168 20.9574
-0.326955 -0.351288 20.6709
-1.86587 -0.323605 1.53089
0.000178126 -0.0547779 0.311456
-0.00311711 0.000958906 0.184757
-0.00112402 0.000646658 0.00431283
0.00578765 0.00392095 0.019544
-0.00754291 0.00401122 0.376642
0.000756397 0.120864 0.202997
-0.669125 -0.0697422 2.43071
-0.000646876 -0.00210337 0.0138983
0.0818951 0.143639 0.859422
1.86148 -0.331817 1.47509
0.0030599 0.000955524 0.185208
0.00118092 0.000726571 0.00435428
0.00700727 0.00323694 0.367163
0.6608 -0.0701528 2.40807
-0.0824593 0.143661 0.859104
-0.000106573 1.38135e-05 0.00316283
0.000596961 0.00437511 0.0447054
1.85695e-06 -5.2416e-06 0.000568988
-0.000959078 0.018927 0.0270207
-1.17572e-06 3.06453e-07 0.00111305
0.155274 0.201949 0.828114
-3.87618e-05 0.0683263 0.202438
-0.00134802 -0.00358039 0.0273701
0.000126866 1.65894e-05 0.00376834
-0.000560657 0.00477274 0.0484015
0.000833231 0.0192925 0.0282872
-0.154483 0.201148 0.819234
-0.00698682 -0.00670176 0.114173
0 0 0
-0.000519089 0.00334935 0.0480018
2.43091e-07 6.6392e-07 5.96179e-05
1.11576e-08 2.02581e-09 1.15976e-05
-1.01978e-08 1.30691e-08 1.93184e-05
0 0 0
-0.0108318 -0.0336183 -0.0653458
-0.00440519 0.124867 0.309427
5.83664e-06 7.82051e-05 0.00176815
-2.53317e-05 -0.000119209 0.00108093
0.00480574 -0.00376273 0.0702554
-4.30098e-18 2.37426e-17 1.47271e-16
0.000537822 0.00340396 0.048542
-3.36938 -1.75322 19.7704
-3.18732 -6.37304 20.3975
-1.77987 -1.4886 17.749
0.986892 0.755837 19.3934
-0.0433164 1.07036 14.1644
0.0657191 1.01385 7.61223
-3.75465 0.114934 19.6471
-2.46601 0.234137 16.9468
-3.06301 3.2854 18.7531
1.09086 -0.281148 20.1145
0.830172 -0.520115 6.91294
0.258168 -0.775799 20.7459
3.20428 -6.30073 20.376
1.79258 -1.43172 17.8308
3.41736 -1.79129 19.7656
0.0350909 1.07287 14.2632
-0.121801 1.05131 7.96932
-0.976782 0.74553 19.3767
2.45708 0.226692 17.1214
3.09888 3.08453 18.8491
3.78532 0.122397 19.6436
-0.874038 -0.501585 7.21524
-0.277755 -0.758326 20.3872
-1.08945 -0.271533 20.0984
-0.319435 -0.445899 20.1521
-0.286331 -0.061918 14.1602
0.0124273 0.155145 19.1102
-0.0560295 0.0480723 13.4885
-1.39613 -0.680012 21.8002
-3.31033 1.52961 21.9332
-0.187777 -0.293764 21.0841
-0.480028 -0.0101149 21.2787
0.295769 -0.060575 14.2029
0.311324 -0.432135 20.0722
0.0596531 0.0501544 13.572
-0.0123027 0.15783 19.1107
3.26343 1.46468 21.9486
1.39821 -0.691326 21.8012
0.444438 0.00314448 21.0932
0.181977 -0.291213 21.0571
-0.942527 -0.487025 19.8718
-0.633474 -0.233631 19.7373
-0.618256 -0.409764 19.5463
-1.00956 -0.692527 21.0262
-1.52395 -0.677493 20.2475
-1.91239 -1.72377 20.1849
-0.212655 -0.173077 21.2481
-0.590966 -0.411963 21.2724
-0.395882 -0.496408 21.4943
0.171669 0.0877356 21.3226
-0.0484265 -0.0838601 21.2759
-0.0389958 -0.0107119 21.2646
0.593658 0.331698 21.0906
0.510021 0.214606 21.2595
0.489492 0.612261 21.2359
0.695046 0.350522 20.7932
0.790631 0.308125 20.9226
0.792603 0.842266 20.6519
0.798748 0.164288 20.5122
0.82008 0.79477 20.456
-1.20338 -0.360475 19.7268
-0.730053 -0.114056 19.6489
-0.743576 -0.336683 19.3786
-1.34207 -0.634657 21.1007
-1.86087 -0.305337 20.1505
-0.263355 -0.232078 21.3078
-0.823202 -0.350155 21.3269
0.203292 -0.00313534 21.4125
-0.110516 -0.156221 21.3282
0.81693 0.196186 21.1316
0.640608 -0.0616585 21.3794
0.952495 0.125903 20.9258
0.990613 -0.0765596 20.9855
1.39127 0.839846 19.361
0.957228 -0.131504 20.9126
1.19585 0.558658 19.4956
-1.27653 0.0129613 19.7004
-0.715832 0.202079 19.6947
-0.893849 0.00208203 19.2243
-1.53814 -0.0977261 20.9601
-1.50694 0.43713 20.17
-0.504077 -0.189419 21.3482
-1.02266 0.133813 21.1616
0.127093 -0.152789 21.4088
-0.261357 -0.0830309 21.329
0.742251 -0.307014 21.1464
0.300881 -0.32173 21.2043
0.862888 -0.37619 20.8034
0.500857 -0.481566 20.9203
1.41687 -0.521417 19.6758
0.476927 -0.380854 20.431
1.23438 -0.616716 18.9164
-0.859772 0.500605 19.913
-0.649864 0.488696 19.5484
-1.07425 0.538024 20.6888
-1.384 1.16946 19.9995
-0.534097 0.189887 21.2067
-1.19533 0.76222 21.2089
-0.0372145 -0.103471 21.2221
-0.319673 0.0957193 21.4166
0.235141 -0.312687 21.0047
0.117098 -0.34232 21.1935
0.33546 -0.408384 20.819
0.282214 -0.532346 20.891
0.228788 -0.474215 20.9541
-1.20263 -1.55584 18.8016
-0.609011 -0.526059 19.0969
0.00852378 -0.757617 18.9236
-0.605754 -1.25529 22.0353
0.00866781 -5.14102 21.3067
-0.252391 -0.061264 20.0589
0.000495673 -0.43288 19.1663
-0.0706874 0.285201 19.7777
-0.000353271 -0.111797 18.0274
0.19023 1.07294 19.4257
-0.00781374 0.437721 17.5485
0.499296 1.18187 18.4727
0.456288 1.44462 15.5034
0.0115675 0.663515 16.0435
0.586068 1.17608 16.1721
0.00244323 0.941366 15.0661
-0.748686 -0.265308 18.7637
0.0244124 -0.625335 18.485
1.194 1.63777 12.7422
1.39238 0.573193 5.77779
0.0106992 -0.323824 1.15693
1.95493 0.649678 11.4621
0.0114741 0.331971 3.88293
-0.744148 0.493628 18.8638
0.0332968 0.00582706 17.9882
2.18308 -0.892513 13.2444
0.455418 -1.08864 20.5797
0.011558 -0.284176 0.121479
0.473835 -1.0495 20.4845
-0.0508241 -0.721755 5.58029
-0.986951 1.34306 19.2064
0.0355432 0.924405 18.9366
-1.61635 2.09175 20.5743
0.0655788 3.03266 19.2627
-0.861611 0.815878 21.7504
0.0317765 3.08132 21.498
-0.0711117 -0.151372 21.4606
-0.00982888 0.446682 21.9624
0.136376 -0.544215 21.1709
-0.00396746 -0.382437 21.4311
0.285139 -0.655651 20.649
-0.00128583 -0.688048 21.1804
-0.000655309 -0.924644 21.1659
1.20607 -1.52256 18.8358
0.625128 -0.51236 19.1293
0.612545 -0.393426 19.5652
0.605369 -1.25779 22.0364
1.90579 -1.70755 20.1853
0.253615 -0.0551944 20.1268
0.397234 -0.494928 21.4908
0.0634037 0.284271 19.7846
0.0368147 -0.0124307 21.2769
-0.221562 1.06133 19.5558
-0.48923 0.591053 21.2601
-0.583856 1.18607 18.8561
-0.514084 1.46305 15.9717
-0.801591 0.806436 20.6807
-0.654327 1.1201 16.5791
-0.844798 0.743699 20.4858
0.772919 -0.252098 18.8207
0.737065 -0.337672 19.4013
-1.3174 1.60857 13.0775
-1.44244 0.60196 6.5211
-1.37315 0.754388 19.6888
-1.93614 0.625765 12.1545
-1.19488 0.502852 19.6473
0.763089 0.454452 18.9387
0.888102 0.00208993 19.2687
-2.21325 -0.883342 13.7062
-0.463872 -1.07934 20.433
-1.37555 -0.519196 19.8339
-0.470916 -1.05596 20.4829
-1.22756 -0.595347 19.1692
1.02145 1.23671 19.287
0.650476 0.459594 19.59
1.62865 1.97738 20.5931
1.34561 1.05651 20.0467
0.862101 0.824412 21.7584
1.18365 0.740021 21.2014
0.0682562 -0.150782 21.4645
0.324327 0.107375 21.4348
-0.120029 -0.551535 21.1947
-0.116045 -0.348976 21.2197
-0.269379 -0.667302 20.6661
-0.281782 -0.540011 20.9046
-0.248757 -0.494048 20.889
0.941026 -0.48081 19.8742
0.628838 -0.230679 19.7527
1.00938 -0.69336 21.0259
1.53357 -0.686746 20.2485
0.215448 -0.172776 21.2451
0.590691 -0.415195 21.2761
-0.167516 0.0848123 21.3175
0.0508053 -0.084933 21.2712
-0.585724 0.314981 21.086
-0.50136 0.204366 21.2636
-0.682219 0.338156 20.7987
-0.767448 0.309375 20.9188
-0.734643 0.150897 20.5807
1.19871 -0.358418 19.7325
0.725952 -0.111523 19.6644
1.35118 -0.647238 21.1103
1.88155 -0.312243 20.1474
0.263243 -0.233894 21.3097
0.824809 -0.359997 21.3299
-0.199686 -0.0047338 21.4066
0.109486 -0.158187 21.3265
-0.790859 0.183527 21.1223
-0.634191 -0.0629569 21.3751
-0.911364 0.128193 20.8796
-0.953738 -0.0761283 20.9878
-0.92207 -0.130535 21.0256
1.25853 0.0106145 19.7154
0.703664 0.191602 19.7246
1.55175 -0.101063 20.9658
1.46635 0.413351 20.1882
0.504638 -0.19 21.3494
1.01982 0.134363 21.1605
-0.127074 -0.152542 21.4064
0.262635 -0.0882786 21.3351
-0.732895 -0.301788 21.1455
-0.308275 -0.334928 21.2139
-0.846775 -0.369484 20.768
-0.504402 -0.489341 20.9277
-0.478835 -0.38608 20.4362
0.834167 0.468258 19.9444
1.04142 0.519916 20.6877
0.537442 0.192128 21.2096
0.0424269 -0.104256 21.2374
-0.235414 -0.319418 21.0226
-0.337061 -0.415286 20.8052
-1.09364 -0.457842 19.8045
-1.48297 -1.57231 18.3383
-1.19889 -0.906157 19.4462
-1.5999 -0.780887 19.0543
-0.68514 -0.377843 19.4586
-2.56662 -1.8787 20.0316
-1.18025 -0.680615 21.0848
-0.131412 -0.397602 16.1748
-1.02731 -1.25669 21.4977
-1.77822 -1.66079 21.9693
-0.370731 -0.511923 21.3205
-0.242266 -0.210662 21.2802
-0.251908 0.0703189 13.3983
-0.158807 -0.152126 21.3206
-0.0292603 0.00886561 19.3499
-0.0167633 0.0372872 20.5891
0.177873 0.0424275 21.3617
-0.0870725 0.237026 13.5118
0.155955 0.216027 21.3151
0.259005 0.282415 19.2151
0.720759 0.729035 20.5891
0.70674 0.300747 21.1015
0.125292 1.25682 14.6573
0.671467 0.764686 21.0015
1.2217 0.834805 19.2429
1.02047 0.887594 20.219
0.864133 0.233774 20.9682
0.846648 1.40982 15.6075
0.848433 0.842799 20.4322
1.25844 0.71785 18.9629
0.987412 0.772581 20.2621
-1.28714 -0.200007 19.6852
-2.24212 -0.779541 17.1656
-1.96521 0.0950231 18.8685
-0.837885 -0.176059 19.2555
-3.91526 -0.84027 19.6264
-1.51672 -0.406939 21.0839
-2.72165 -0.312518 21.5504
-0.730835 -0.763544 21.5432
-0.368707 -0.25345 21.3386
-0.627545 -0.601435 21.4861
0.0896852 0.042001 19.2696
0.18404 -0.103602 21.4364
0.165033 -0.0554821 20.7524
1.23856 0.392888 18.3707
0.894293 -0.068507 21.1382
0.128399 0.367214 2.37263
1.29357 -0.380204 19.4971
1.69846 0.265251 18.3085
1.01111 -0.0853259 21.1973
1.87949 0.492429 10.8193
1.33944 -0.634654 19.3387
1.60188 0.201487 18.9587
-1.15217 0.336694 19.7692
-1.69778 1.43828 18.2255
-1.02727 0.842988 19.6171
-0.810956 0.325497 19.3373
-2.41074 1.19369 19.7606
-1.42526 0.327587 20.8067
-3.40067 2.65522 20.7964
-1.46957 1.10378 20.6921
-1.73753 0.342045 21.4887
-0.6116 -0.00204206 21.32
-1.69513 0.450645 21.7438
-0.726945 0.397396 21.435
-0.375934 -0.0720638 21.586
0.0269819 -0.183577 21.3333
0.0413213 -0.351592 21.1011
-0.051408 -0.13644 21.3538
0.326105 -0.536175 21.408
0.428774 -0.408853 21.0699
0.312508 -0.968538 20.6927
0.218499 -0.426592 21.1031
0.557111 -0.776723 21.0337
0.475365 -0.520901 20.7134
0.470854 -1.13711 20.7244
0.3281 -0.547621 20.7495
0.624029 -0.69691 20.6497
1.49632 -1.53868 18.3917
0.016843 -2.41322 18.1147
0.029097 -2.41359 16.2224
0.013157 -0.70394 18.6757
-0.000570499 -6.47563 21.4873
0.133615 -0.402221 16.2248
0.0020333 -1.11618 21.4096
0.00118091 -0.107058 10.855
0.257243 0.0755605 13.4903
0.00022286 -0.220921 18.2124
-0.000804903 -0.0225395 10.3331
0.085791 0.24281 13.6095
-0.00215108 0.0648617 17.6772
-0.0284907 0.428733 9.36853
-0.160101 1.26909 14.9616
-0.00650381 0.470499 17.0492
-0.00464378 -0.594612 0.522356
-0.0148064 0.40473 9.01602
-0.954779 1.39765 15.9655
0.0081033 0.920445 15.8191
0.00746866 0.349785 2.18503
0.0202418 1.10574 9.41284
2.23797 -0.741393 17.3032
0.0457256 0.939653 14.3492
0.0271018 -0.386566 18.15
-0.168062 0.390186 2.71298
-0.0104606 0.641432 -0.141669
0.057332 -0.77816 -3.86543
-1.93221 0.514445 11.6743
-0.0282176 -0.948972 2.24693
-0.0229523 -1.65201 -3.048
1.73121 1.31494 18.3127
0.0603378 1.96658 18.736
0.0407741 0.715435 18.3342
0.0613612 5.38006 18.0053
3.39811 2.52043 20.8319
0.0617258 3.38967 20.2762
0.0260966 5.34017 20.8484
1.69984 0.456486 21.7321
-0.00659588 1.613 22.2109
0.0045897 0.0731569 17.417
-0.0856601 -0.338241 20.7834
-0.0046216 -0.105605 21.5577
0.00376737 -0.561613 16.2087
-0.319468 -0.95072 20.374
-0.00197685 -0.546093 21.3024
-0.000406335 -0.916853 16.8584
-0.469757 -1.13878 20.6953
0.0078438 -0.671894 20.9255
-0.000876723 -0.938669 17.4208
1.08705 -0.455405 19.8137
1.19121 -0.889139 19.4648
1.59173 -0.768944 19.0809
0.683134 -0.36719 19.4729
2.56698 -1.88224 20.0275
1.18779 -0.688654 21.0892
1.03087 -1.24742 21.4899
1.78398 -1.6752 21.9782
0.372724 -0.508925 21.3183
0.241576 -0.210875 21.2838
0.15918 -0.152394 21.324
0.0290455 0.0167783 19.3035
0.0165061 0.0360522 20.6184
-0.172105 0.037486 21.3514
-0.159604 0.212275 21.3395
-0.257601 0.280135 19.2463
-0.713019 0.712536 20.6198
-0.685202 0.28469 21.0926
-0.668373 0.726734 21.0735
-1.20866 0.784364 19.482
-0.998189 0.824522 20.3109
-0.841872 0.228634 20.9686
-0.866739 0.813481 20.3746
-1.24091 0.613666 19.5474
-1.00518 0.674923 20.2568
1.27958 -0.196077 19.6938
1.93995 0.0862071 18.9152
0.829723 -0.170783 19.2922
3.98113 -0.846865 19.6153
1.53237 -0.416866 21.0899
2.7324 -0.317283 21.5587
0.723766 -0.767905 21.5165
0.367612 -0.258662 21.3413
0.627219 -0.6073 21.4772
-0.0938713 0.0483719 19.2413
-0.184134 -0.103525 21.4355
-0.167751 -0.0471593 20.7274
-1.23149 0.392546 18.3897
-0.872855 -0.0674968 21.1336
-1.27092 -0.381022 19.5835
-1.64991 0.229972 18.6525
-0.998756 -0.0751504 21.2021
-1.28784 -0.620596 19.6096
-1.54211 0.14696 19.0554
1.12044 0.315742 19.8041
1.01178 0.778012 19.6706
0.800956 0.310225 19.391
2.35013 1.10484 19.8043
1.40524 0.323131 20.803
1.44575 1.03907 20.6996
1.71998 0.339485 21.4814
0.615403 -0.00329132 21.3241
0.730822 0.405238 21.4424
0.378974 -0.0746567 21.6016
-0.0245641 -0.190791 21.3437
0.051952 -0.138369 21.3695
-0.322627 -0.555382 21.4224
-0.438062 -0.421045 21.0763
-0.214483 -0.452012 21.099
-0.553641 -0.788299 21.0333
-0.478229 -0.527293 20.7066
-0.326242 -0.555251 20.7405
-0.622938 -0.701973 20.6482
-1.41898 -0.878843 19.2724
-1.28225 -1.4969 21.7485
-0.10722 -0.0965054 20.7895
0.218327 0.258478 20.6003
0.919071 0.863874 20.3509
1.09529 0.844442 20.4164
-1.91606 -0.425133 18.8814
-2.42253 -0.993829 21.9733
-0.095477 -0.362974 20.4776
0.222484 0.181735 19.1907
1.48443 0.335512 18.0465
1.74689 0.180466 18.6412
-1.56278 0.724676 19.2127
-2.38432 0.854328 20.952
-0.999103 0.0614267 21.6683
0.0211742 -0.233126 21.5407
0.487372 -0.685442 21.1849
0.556825 -0.807367 20.5668
0.0216954 -2.60137 17.2515
0.00392963 -0.192304 12.4827
0.000568448 -0.0389628 10.342
-0.00428314 0.0439903 10.0417
-0.0211468 0.0896522 9.13511
0.0167819 0.842137 9.30341
0.0426559 -1.16246 14.7985
0.0291438 -0.163661 -3.57818
0.0548285 -1.28759 -3.73793
0.0605723 2.43882 17.0058
0.0480065 5.26506 19.6868
-0.00275419 1.65834 18.1622
0.0173913 -0.368599 15.7183
0.00378017 -0.634567 16.2492
0.000481495 -1.19121 18.1912
1.41007 -0.863145 19.2885
1.28462 -1.49339 21.746
0.108208 -0.0962714 20.7996
-0.219063 0.252327 20.6464
-0.906588 0.820442 20.4262
-1.07793 0.745062 20.4974
1.89358 -0.414586 18.9163
2.42988 -1.00063 21.9856
0.0896867 -0.35474 20.4196
-0.220004 0.183415 19.1884
-1.45677 0.313171 18.2673
-1.65749 0.133473 19.0031
1.53512 0.683082 19.292
2.34096 0.817688 20.9515
1.00748 0.0635081 21.6773
-0.0229303 -0.240714 21.5585
-0.483911 -0.700344 21.1917
-0.554563 -0.815122 20.5755
-0.543512 -0.26503 0.609982
-0.00291984 -0.1614 0.802451
0.00904337 -0.00656909 0.280356
-0.0127226 -0.00903266 -0.00540471
0 0 0
-0.0347355 0.0174004 0.641593
-1.24501 -0.0771671 1.75136
-0.0222039 0.108482 0.166431
-0.866565 0.266986 1.93307
-0.0145916 0.00999134 0.0028446
-0.0310632 -0.0183425 0.0838063
0.0753287 -0.00762939 0.633345
0.00300042 -0.159702 0.794747
0.550631 -0.268612 0.617812
-0.00868355 -0.00656347 0.282368
0 0 0
0.0127613 -0.00879397 -0.00548376
0.0359049 0.0182196 0.661528
0.0208088 0.101865 0.156078
1.23879 -0.0894504 1.77086
0.864961 0.264512 1.92943
0.0335459 -0.0200381 0.0998889
0.0149303 0.0106231 0.00396762
-0.0758913 -0.00720282 0.633815
-0.00309864 0.000232773 0.202643
-0.000231049 2.17596e-05 0.00872365
0 0 0
0 0 0
-0.0153175 0.010311 0.251811
-0.00103925 0.000681878 0.0448525
-0.00130801 0.0129449 0.227022
0 0 0
-0.0711291 -0.0801166 0.56953
0.0016033 0.00576681 0.0453324
0.01309 0.0266149 0.158571
-0.00919002 0.0121669 0.0409678
0.300773 0.305655 1.37736
0 0 0
0.280319 0.318659 1.00536
0.352271 0.0268363 0.648601
0.00267854 0.000195117 0.201628
0 0 0
0.00022753 2.13121e-05 0.0085735
0 0 0
0.0149517 0.010077 0.250776
0 0 0
0.00103677 0.000677655 0.0452109
0.00133966 0.0123278 0.210011
0.0683271 -0.0775597 0.552683
0.0089647 0.0119125 0.0399714
-0.00163905 0.00605649 0.0462502
-0.0127852 0.0262193 0.155902
-0.302673 0.308356 1.38684
0 0 0
0 0 0
-0.280882 0.318589 1.00193
-0.0235087 -0.0118258 0.0888793
-0.0687254 -0.0965293 0.0531713
4.86914e-07 -1.00972e-06 0.00011814
0 0 0
-0.0577829 -0.0533614 0.967169
0 0 0
0.00198069 0.00445372 0.0419725
-0.0924998 0.0015369 -0.0125102
4.56628e-07 -5.28248e-07 -0.000176002
-0.000576161 -0.0138482 -0.00973284
0 0 0
3.51702e-08 -1.24923e-08 -2.12326e-05
-4.3507e-06 0.217209 0.21241
-4.6469e-05 0.0362806 0.102908
-0.00873549 -0.0078557 0.128086
0 0 0
0 0 0
-8.57791e-05 -0.000458562 0.00475256
-0.0023116 0.00766806 0.0903829
0 0 0
0.0744145 -0.104501 0.0578538
0.0366582 -0.0186191 0.140405
0 0 0
0.047705 -0.045742 0.777079
0.0979196 0.0022929 -0.0141013
-0.00199995 0.00449124 0.0422733
-1.87796e-08 -1.74222e-08 -3.10587e-05
1.31914e-20 4.90503e-18 5.59178e-17
0.071747 0.0295055 0.137487
0.0186224 -0.0139676 0.257089
0 0 0
0.00232094 0.00767094 0.090128
0.00315866 0.0172341 0.131877
0 0 0
0.00331274 0.00428816 0.152546
-8.10694e-05 0.00240145 0.0175016
-1.59756e-07 -1.74308e-07 -4.2009e-05
-5.8497e-09 -1.28033e-09 -3.21397e-06
0.00245255 0.00823927 0.0518472
-0.000104516 8.80475e-05 0.00141933
4.00311e-09 -1.51515e-09 -1.91412e-05
-2.65065e-08 1.02306e-08 3.99091e-05
0 0 0
0.051595 0.0427767 0.687108
4.45486e-05 0.0600814 0.154911
-2.95898e-05 0.00530923 0.0408006
9.86165e-05 -0.00191216 0.0443143
-1.18013e-05 8.72897e-06 -0.000410078
0 0 0
-0.00318182 0.0173821 0.132628
-0.00136433 0.00521092 0.155482
8.28251e-05 0.00239629 0.0174515