# vtk DataFile Version 2.0
tet_velo
ASCII
DATASET UNSTRUCTURED_GRID
POINTS 29498 float
-0.669686 0.125 -2.185
-0.655 0.165 2.16276
-0.705 0.763607 -2.005
-0.605 1.005 2.16475
0.795 0.115 -2.17526
0.648351 0.165 2.165
0.715 0.765253 -1.995
0.600005 1.005 2.165
-0.639043 0.164081 -0.735747
-0.641653 0.169909 0.713507
-0.774669 0.947074 -0.615084
-0.752091 1.03829 0.774834
0.713637 0.164146 -0.728507
0.67689 0.168677 0.718247
0.777541 0.946042 -0.608333
0.751855 1.0386 0.778333
-1.3683 -0.317761 -3.37886
-1.36995 -0.246486 -2.24442
-1.34604 -0.213854 -0.793497
-1.31734 -0.225497 0.670004
-1.30317 -0.238609 2.12199
-1.31542 -0.232959 3.26162
-1.3354 -0.215074 4.39166
-1.39069 0.0397109 -3.31046
-1.39744 0.125942 -2.18262
-1.37275 0.182168 -0.742992
-1.33032 0.187354 0.702603
-1.29335 0.172696 2.14338
-1.31298 0.178322 3.28193
-1.34011 0.196264 4.41371
-1.43241 0.735931 -3.15656
-1.44956 0.818013 -2.02624
-1.47686 0.963947 -0.627079
-1.41738 1.03595 0.768492
-1.29655 1.01733 2.16877
-1.32217 1.01954 3.30946
-1.36103 1.03479 4.45065
-1.47276 1.8992 -2.96985
-1.48473 1.99489 -1.84819
-1.49746 2.14564 -0.469339
-1.48532 2.25796 0.89705
-1.45158 2.29514 2.27658
-1.43699 2.30228 3.39965
-1.44161 2.31144 4.5349
-0.647501 -0.320859 -3.37883
-0.654048 -0.246454 -2.24646
-0.640987 -0.222591 -0.789703
-0.63858 -0.238659 0.679741
-0.648691 -0.248135 2.13683
-0.660741 -0.241772 3.27214
-0.674778 -0.22294 4.39848
-0.667263 0.0310011 -3.30764
-0.664997 0.170096 3.2907
-0.682323 0.18848 4.41915
-0.708266 0.710043 -3.14518
-0.667772 1.0113 3.30958
-0.701686 1.02787 4.45186
-0.74684 1.88039 -2.959
-0.755468 1.97688 -1.83682
-0.773186 2.13878 -0.461649
-0.781712 2.26003 0.898699
-0.770589 2.29556 2.27421
-0.762632 2.30025 3.39719
-0.76794 2.30858 4.5336
0.799722 -0.326185 -3.37027
0.785785 -0.252909 -2.23777
0.73179 -0.223817 -0.78274
0.694757 -0.239607 0.684569
0.664433 -0.248507 2.1399
0.648989 -0.242119 3.27501
0.644173 -0.223384 4.40159
0.784516 0.0256067 -3.29868
0.630057 0.169873 3.29307
0.628802 0.188103 4.42199
0.737632 0.708013 -3.13616
0.605374 1.01113 3.31133
0.605818 1.02753 4.45446
0.708713 1.879 -2.95146
0.707981 1.97584 -1.8296
0.693278 2.13796 -0.455598
0.648813 2.25954 0.903201
0.599934 2.29521 2.27758
0.583823 2.29987 3.40033
0.575965 2.30813 4.53689
1.52223 -0.326676 -3.36244
1.5084 -0.2558 -2.2282
1.44741 -0.217165 -0.780085
1.38499 -0.227136 0.679583
1.33438 -0.239623 2.1287
1.31718 -0.233826 3.26782
1.31301 -0.216049 4.39817
1.51158 0.030826 -3.29345
1.51401 0.115439 -2.16558
1.45265 0.179231 -0.729365
1.3805 0.185965 0.711683
1.31108 0.171919 2.14902
1.29592 0.177644 3.28733
1.29559 0.195409 4.41976
1.4729 0.730992 -3.13951
1.47723 0.814073 -2.00915
1.49066 0.961464 -0.613881
1.42382 1.03547 0.776566
1.28949 1.01686 2.17299
1.27025 1.019 3.31407
1.27187 1.03403 4.45632
1.43574 1.89618 -2.95508
1.43552 1.99248 -1.83408
1.41932 2.14382 -0.457344
1.36444 2.25683 0.906268
1.29684 2.29432 2.28375
1.26746 2.30143 3.40631
1.25462 2.31048 4.54172
-0.740477 0.444304 -2.14813
0.062657 0.112215 -2.18791
-0.67962 0.119285 -1.46037
-0.721632 0.585 2.25539
-0.00332448 0.162079 2.1668
-0.684761 0.13102 1.43813
0.005 0.856826 -2.0924
-0.758982 0.874488 -1.31004
-0.00249752 1.04537 2.20525
-0.699521 1.04262 1.46979
0.782101 0.440127 -2.11223
0.774285 0.119607 -1.45188
0.716335 0.585 2.25716
0.698426 0.131033 1.44162
0.763819 0.873196 -1.30167
0.696036 1.04191 1.47167
-0.63898 0.168363 -0.01112
-0.888526 0.555578 -0.675415
0.0372972 0.165938 -0.732127
-0.893781 0.604101 0.74417
0.0176184 0.171376 0.715877
-0.762056 0.99136 0.079875
0.00143592 1.23667 -0.611709
-0.000117853 1.41482 0.776583
0.693328 0.168348 -0.00513005
0.891598 0.555094 -0.66842
0.893707 0.60364 0.74829
0.764454 0.992078 0.085
-0.887311 0.499941 -1.38521
-0.895355 0.579839 0.0343775
-0.877289 0.59455 1.45396
0.0499771 0.11318 -1.45613
0.0274578 0.170479 -0.00812501
0.00714695 0.128867 1.43988
0.0338285 0.442215 -2.36612
-0.002911 0.585 2.36788
0.00321796 1.03095 -1.30585
0.000659033 1.41867 0.0824375
-0.00130769 1.21982 1.47073
0.878204 0.49761 -1.37678
0.898424 0.579367 0.039935
0.885471 0.59432 1.45665
-1.03356 0.125471 -2.18381
-0.661867 -0.060727 -2.21573
-0.668474 0.0780005 -2.74632
-0.974176 0.168848 2.15307
-0.651846 -0.0415674 2.1498
-0.659999 0.167548 2.72673
-1.07728 0.79081 -2.01562
-0.706633 0.736825 -2.57509
-0.730234 1.37024 -1.92091
-0.950776 1.01117 2.16676
-0.636386 1.00815 2.73716
-0.687794 1.65028 2.21948
0.790392 -0.0689545 -2.20652
0.789758 0.0703033 -2.73697
1.1545 0.11522 -2.17042
0.656392 -0.0417534 2.15245
0.639204 0.167437 2.72903
0.979714 0.168459 2.15701
0.726316 0.736633 -2.56558
0.71149 1.37055 -1.9123
1.09612 0.789663 -2.00208
0.602689 1.00807 2.73816
0.59997 1.6501 2.22129
0.944748 1.01093 2.169
-1.00589 0.173125 -0.739369
-0.640015 -0.029255 -0.762725
-0.985987 0.178631 0.708055
-0.640117 -0.034375 0.696624
-1.12576 0.955511 -0.621081
-0.773928 1.54293 -0.538366
-1.08474 1.03712 0.771663
-0.766901 1.64916 0.836766
0.722713 -0.0298351 -0.755624
1.08314 0.171689 -0.728936
0.685823 -0.0354649 0.701408
1.02869 0.177321 0.714965
0.73541 1.542 -0.531966
1.1341 0.953753 -0.611107
0.700334 1.64907 0.840767
1.08784 1.03703 0.77745
-1.36913 -0.282124 -2.81164
-1.3795 -0.139025 -3.34466
-1.0079 -0.31931 -3.37884
-1.358 -0.23017 -1.51896
-1.3837 -0.0602722 -2.21352
-1.012 -0.24647 -2.24544
-1.33169 -0.219676 -0.0617465
-1.35939 -0.0158432 -0.768245
-0.993516 -0.218223 -0.7916
-1.31025 -0.232053 1.396
-1.32383 -0.0190716 0.686304
-0.977958 -0.232078 0.674873
-1.30929 -0.235784 2.69181
-1.29826 -0.0329562 2.13269
-0.97593 -0.243372 2.12941
-1.32541 -0.224017 3.82664
-1.3142 -0.0273183 3.27178
-0.98808 -0.237366 3.26688
-1.33776 -0.00940507 4.40269
-1.00509 -0.219007 4.39507
-1.39407 0.0828265 -2.74654
-1.41155 0.387821 -3.23351
-1.02898 0.035356 -3.30905
-1.38509 0.154055 -1.46281
-1.4235 0.471977 -2.10443
-1.35153 0.184761 -0.0201946
-1.4248 0.573057 -0.685035
-1.31184 0.180025 1.42299
-1.37385 0.61165 0.735547
-1.30317 0.175509 2.71266
-1.29495 0.595014 2.15608
-1.32655 0.187293 3.84782
-1.31758 0.598932 3.29569
-0.988989 0.174209 3.28631
-1.35057 0.615527 4.43218
-1.01122 0.192372 4.41643
-1.44098 0.776972 -2.5914
-1.45258 1.31757 -3.06321
-1.07034 0.722987 -3.15087
-1.46321 0.89098 -1.32666
-1.46714 1.40645 -1.93721
-1.44712 0.999947 0.0707064
-1.48716 1.55479 -0.548209
-1.35697 1.02664 1.46863
-1.45135 1.64695 0.832771
-1.30936 1.01844 2.73911
-1.37407 1.65624 2.22267
-1.3416 1.02717 3.88006
-1.37958 1.66091 3.35456
-0.994972 1.01542 3.30952
-1.40132 1.67312 4.49278
-1.03136 1.03133 4.45126
-1.47875 1.94705 -2.40902
-1.1098 1.8898 -2.96442
-1.4911 2.07027 -1.15876
-1.1201 1.98589 -1.8425
-1.49139 2.2018 0.213855
-1.13532 2.14221 -0.465494
-1.46845 2.27655 1.58681
-1.13352 2.25899 0.897875
-1.44429 2.29871 2.83812
-1.11108 2.29535 2.27539
-1.4393 2.30686 3.96728
-1.09981 2.30126 3.39842
-1.10478 2.31001 4.53425
-0.650774 -0.283656 -2.81264
-0.657382 -0.144929 -3.34324
0.0761104 -0.323522 -3.37455
-0.647517 -0.234523 -1.51808
0.0658684 -0.249682 -2.24212
-0.639783 -0.230625 -0.0549814
0.0454015 -0.223204 -0.786222
-0.643635 -0.243397 1.40829
0.0280884 -0.239133 0.682155
-0.654716 -0.244954 2.70449
0.00787106 -0.248321 2.13837
-0.66776 -0.232356 3.83531
-0.662869 -0.0358381 3.28142
-0.0058761 -0.241946 3.27357
-0.678551 -0.0172302 4.40882
-0.0153029 -0.223162 4.40004
-0.687765 0.370522 -3.22641
0.0586265 0.0283039 -3.30316
-0.67366 0.179288 3.85493
-0.666384 0.5907 3.30014
-0.0174701 0.169985 3.29188
-0.692005 0.608173 4.43551
-0.0267609 0.188291 4.42057
-0.727553 1.29522 -3.05209
0.0146827 0.709028 -3.14067
-0.684729 1.01958 3.88072
-0.715202 1.65578 3.35338
-0.0311989 1.01122 3.31045
-0.734813 1.66822 4.49273
-0.0479341 1.0277 4.45316
-0.751154 1.92864 -2.39791
-0.0190635 1.87969 -2.95523
-0.764327 2.05783 -1.14923
-0.0237435 1.97636 -1.83321
-0.777449 2.1994 0.218525
-0.039954 2.13837 -0.458624
-0.77615 2.27779 1.58646
-0.0664495 2.25978 0.90095
-0.76661 2.2979 2.8357
-0.0853272 2.29538 2.2759
-0.765286 2.30441 3.9654
-0.0894044 2.30006 3.39876
-0.0959875 2.30835 4.53525
0.792753 -0.289547 -2.80402
0.792119 -0.150289 -3.33448
1.16097 -0.326431 -3.36636
0.758787 -0.238363 -1.51026
1.14709 -0.254354 -2.23299
0.713273 -0.231712 -0.0490855
1.0896 -0.220491 -0.781413
0.679595 -0.244057 1.41223
1.03987 -0.233372 0.682076
0.656711 -0.245313 2.70745
0.999406 -0.244065 2.1343
0.646581 -0.232752 3.8383
0.639523 -0.0361229 3.28404
0.983084 -0.237972 3.27141
0.636487 -0.0176409 4.41179
0.978591 -0.219717 4.39988
0.761074 0.36681 -3.21742
1.14805 0.0282164 -3.29606
0.629429 0.178988 3.85753
0.617715 0.590503 3.3022
0.962989 0.173759 3.2902
0.61731 0.607818 4.43823
0.962196 0.191756 4.42087
0.723172 1.2935 -3.04381
1.10526 0.719502 -3.13783
0.605596 1.01933 3.8829
0.594599 1.6555 3.35583
0.93781 1.01506 3.3127
0.590891 1.66783 4.49568
0.938844 1.03078 4.45539
0.708347 1.92742 -2.39053
1.07223 1.88759 -2.95327
0.70063 2.0569 -1.1426
1.07175 1.98416 -1.83184
0.671046 2.19875 0.223802
1.0563 2.14089 -0.456471
0.624374 2.27737 1.59039
1.00663 2.25819 0.904735
0.591879 2.29754 2.83896
0.948387 2.29476 2.28067
0.579894 2.304 3.96861
0.92564 2.30065 3.40332
0.91529 2.3093 4.5393
1.51531 -0.291238 -2.79532
1.51691 -0.147925 -3.32794
1.47791 -0.236482 -1.50414
1.5112 -0.0701803 -2.19689
1.4162 -0.222151 -0.0502514
1.45003 -0.0189672 -0.754725
1.35968 -0.23338 1.40414
1.38274 -0.0205856 0.695633
1.32578 -0.236724 2.69826
1.32273 -0.0338519 2.13886
1.31509 -0.224937 3.83299
1.30655 -0.0280907 3.27758
1.3043 -0.0103202 4.40896
1.5128 0.0731325 -2.72951
1.49224 0.380909 -3.21648
1.48333 0.147335 -1.44747
1.49562 0.464756 -2.08736
1.41657 0.182598 -0.00884101
1.47165 0.570347 -0.671623
1.34579 0.178942 1.43035
1.40216 0.610715 0.744124
1.3035 0.174781 2.71817
1.30028 0.594387 2.161
1.29576 0.186527 3.85355
1.28308 0.59832 3.3007
1.28373 0.614718 4.43804
1.47507 0.772532 -2.57433
1.45432 1.31359 -3.0473
1.48395 0.887768 -1.31152
1.45637 1.40328 -1.92162
[...]
POINT_DATA 29498
VECTORS point_vectors float
-5.05857 -8.675 10.3349
-0.164673 0.31021 1.1978
-1.91857 2.20429 4.44012
0.0379371 -0.038705 0.224874
7.95656 -9.25492 18.7627
0.165351 0.397398 1.60532
1.51465 1.60749 3.86796
-0.036003 -0.0478099 0.24985
-2.85359e-18 -1.43875e-18 -3.70252e-17
0 0 0
0 0 0
0 0 0
-0.00161891 0.00100015 0.0371357
0.000367009 -3.0196e-05 0.00599678
0 0 0
0 0 0
-0.571365 -0.330038 19.7647
-1.40005 -1.04064 20.4764
-0.322903 -0.496064 21.5619
0.0317496 -0.104464 21.6118
0.495303 0.420214 21.5623
0.73303 0.493558 20.9196
0.693747 0.428303 20.7598
-0.758062 -0.261549 19.6437
-2.18609 -0.937975 20.431
-0.567509 -0.69459 21.7012
0.022285 -0.179288 21.6441
0.930139 0.40721 21.3014
1.16375 0.360184 21.2608
0.979375 0.37022 21.1668
-0.937816 0.141251 19.5624
-2.31681 0.375658 20.5317
-1.32118 -0.276164 21.5874
-0.212536 -0.275863 21.9437
0.908387 -0.495076 21.5667
1.06817 -0.517541 21.3036
1.08838 -0.300455 20.7771
-0.562886 0.478579 20.0152
-0.828278 0.672642 20.5482
-0.679236 0.435587 21.2525
-0.139155 0.00373047 21.594
0.220457 -0.310506 21.356
0.306152 -0.356467 21.0698
0.264433 -0.371696 20.868
-0.473983 -0.644401 19.3312
-1.49024 -3.52868 20.6111
-0.032691 -0.0918148 21.5622
-0.0905339 -0.00332075 20.778
-0.00202155 0.827586 20.8199
0.19542 0.982635 20.8819
0.285532 0.916331 19.8889
-0.700792 -0.591841 18.8599
0.311791 1.73597 11.1296
1.21516 0.743887 12.6586
-1.09772 0.317318 18.3036
1.79455 -0.202189 9.53965
1.36285 -0.407237 14.9815
-0.49499 0.878975 19.7111
-0.820841 1.43795 20.4139
-0.807444 1.19666 21.4397
-0.17872 0.0627106 21.9037
0.126489 -0.500939 21.5218
0.243354 -0.56072 20.9016
0.126899 -0.429877 20.7705
0.538985 -0.602822 19.4037
1.65609 -2.95369 20.6057
0.0526634 -0.0784575 21.6602
0.092845 0.0268049 20.9326
0.00594894 0.87288 20.8389
-0.147767 1.04868 20.926
-0.201115 1.00632 19.5748
0.751526 -0.487067 19.0078
-0.176723 1.62156 10.2816
-1.07983 0.899746 12.2828
1.15659 0.32548 18.345
-1.63507 -0.272879 7.53181
-1.44184 -0.429814 13.2152
0.487612 0.904505 19.6963
0.796639 1.49801 20.4035
0.755256 1.31617 21.4405
0.164856 0.0666892 21.9576
-0.106514 -0.525471 21.4987
-0.192751 -0.632671 21.0395
-0.0764556 -0.48713 20.3195
0.551057 -0.297124 19.8578
1.21769 -0.823181 20.5376
0.343324 -0.459468 21.5111
-0.0285556 -0.0935311 21.5982
-0.516227 0.418021 21.5482
-0.751905 0.507237 20.8816
-0.677879 0.485644 20.7379
0.758765 -0.249881 19.7552
1.81617 -0.687345 20.4926
0.571084 -0.626742 21.6094
0.000391263 -0.181624 21.6846
-0.935192 0.393481 21.3155
-1.17779 0.3885 21.2182
-0.978373 0.471796 21.1536
0.932686 0.129087 19.6068
2.21538 0.321144 20.5835
1.2891 -0.267065 21.5922
0.19784 -0.276415 21.9475
-0.936996 -0.520035 21.5455
-1.10709 -0.56587 21.2684
-1.15719 -0.378523 20.5479
0.579864 0.512046 20.0012
0.848128 0.717982 20.5566
0.700111 0.490988 21.2873
0.140996 -0.00148875 21.641
-0.208535 -0.349779 21.3614
-0.302125 -0.464739 21.0481
-0.267517 -0.449729 20.9646
-1.17421 -0.014335 1.19737
0.00501793 -0.186197 0.698461
-0.00449594 0.00320866 0.172533
0.00252724 0.0157992 0.0149052
0.00672146 0.0364135 0.259279
-0.016312 0.00376596 0.264206
-0.00706812 0.393041 0.825349
-0.059735 -0.00767025 0.148508
0.00220707 0.0204367 -0.0512433
0 0 0
0.773997 -0.00858323 1.1058
0.00733161 0.00826815 0.26089
0.00926341 0.0255454 0.00112399
0.00768272 0.00167426 0.123011
0.0597717 -0.00705234 0.152362
-0.00155428 0.000654194 0.00513524
0 0 0
2.15302e-05 -0.000168813 0.0293412
0 0 0
0.00092465 0.0115912 0.0539577
-0.000154733 -0.00106742 0.0374131
0 0 0
0.000619752 0.0914487 0.20556
0.000102722 -0.00453981 0.0513617
0.00102885 0.000406775 0.0258522
3.53399e-05 -0.000202298 0.0305086
-0.00113518 0.0155769 0.0696107
0 0 0
-7.43149e-05 -0.00113009 0.011009
0 0 0
-2.82793e-18 -1.74178e-17 -8.52751e-17
-1.15405e-08 -1.74635e-07 -1.38018e-05
0.000185542 0.00169085 0.0538789
-5.79609e-07 -1.52432e-07 -8.30466e-05
0.0155979 -0.0870404 0.0769523
0.00137561 0.100338 -0.0434291
0 0 0
4.07815e-06 0.000695993 0.00991154
-3.91839e-05 0.000550599 -0.00104997
0 0 0
0.000167839 0.00437329 0.0258656
-0.00278462 0.0173286 0.105113
-4.26887 -2.63332 19.9886
-2.5322 -5.86488 20.7503
-2.04019 -1.94756 17.5526
0.809684 1.50004 14.6444
-0.351454 1.02726 14.5301
-0.529088 0.986427 6.74255
-4.49491 1.35457 20.461
-3.39772 1.80302 16.5021
-1.95849 2.60927 20.2732
1.45207 0.126343 14.72
0.748525 0.206225 4.64907
0.4245 -0.943115 21.1829
2.91098 -4.75977 20.4907
2.07408 -1.63952 18.0619
3.33795 -1.79246 20.3397
0.361205 1.08236 14.5357
0.641184 0.969528 6.31596
-0.855748 1.53953 14.7542
3.48982 1.79993 16.584
1.95588 2.66237 20.2882
4.29995 1.17989 20.6211
-0.644827 0.144597 4.03576
-0.380397 -0.990424 20.6486
-1.46984 0.0950826 14.5961
0.193005 -0.518397 13.8274
0.140877 0.342834 13.4393
-0.431974 0.878097 12.0791
-0.254727 0.0276477 13.5755
-2.25043 -0.801101 21.3728
-2.50406 2.07372 21.6063
-0.0880842 -0.136029 19.3662
-0.30427 0.00232515 22.3772
-0.217382 0.41986 14.5871
0.0860888 -0.849177 18.1803
0.237401 0.0560808 14.0485
0.337904 0.713795 14.29
2.55558 2.31251 21.5982
2.21548 -0.790041 21.406
0.282484 0.00356167 22.2757
0.0691221 -0.144551 19.4174
-0.996828 -0.662206 19.8836
-0.654068 -0.308205 19.7216
-0.56528 -0.497197 19.5438
-0.897866 -0.871907 21.4455
-1.79771 -1.05496 20.4538
-1.71006 -2.05689 20.4703
-0.0950034 -0.299234 21.5392
-0.393879 -0.610369 21.6094
-0.0143694 -0.411886 21.7754
0.229218 0.150343 21.6814
0.0466155 -0.13857 21.6777
0.039227 0.00602036 21.4719
0.629165 0.536038 21.53
0.71962 0.459621 21.5329
0.380325 0.77924 21.4495
0.705257 0.473835 20.966
0.944486 0.442888 21.0596
0.530692 0.853303 21.1822
0.838072 0.396711 20.9667
0.530305 0.794426 21.1991
-1.44213 -0.552731 19.6958
-0.891226 -0.113956 19.5487
-0.840293 -0.463377 19.3165
-1.37251 -0.871462 21.6241
-2.60945 -0.280393 20.482
-0.231401 -0.490275 21.7147
-0.98243 -0.635514 21.6989
0.415554 0.123536 21.5812
-0.0183839 -0.284911 21.7942
1.07092 0.52031 21.0411
1.17277 -0.0270667 21.1462
1.31963 0.297088 20.0479
1.2633 -0.0706744 21.3013
1.01823 1.31938 16.7015
1.40977 0.0130711 20.7734
1.10166 0.767641 17.7575
-1.74533 0.319577 19.674
-0.809696 0.420071 19.7643
-1.12425 0.21138 19.0335
-1.77993 -0.0206394 21.3204
-1.45919 0.764782 20.5134
-0.792171 -0.308464 21.8634
-1.15456 0.357706 21.4091
0.424307 -0.324514 21.8511
-0.230077 -0.0735536 21.8053
1.06106 -0.535265 21.3018
0.43966 -0.474809 21.5042
1.07954 -0.529835 20.9031
0.586582 -0.551247 20.9547
1.72432 -0.448675 18.6302
0.439643 -0.37494 20.97
1.36032 -0.497387 19.96
-0.741848 0.628775 20.2411
-0.582743 0.651049 19.8744
-0.801834 0.584381 20.9449
-0.900688 1.00529 20.4962
-0.42636 0.240169 21.5308
-0.809271 0.786973 21.345
0.0834711 -0.192578 21.4984
-0.151528 0.0137601 21.7407
0.264224 -0.335889 21.2119
0.197711 -0.393194 21.4125
0.321125 -0.359849 20.8656
0.279978 -0.521354 21.0357
0.224559 -0.437635 20.8873
-1.00444 -1.6622 19.124
-0.585415 -0.6746 19.0849
0.0757249 -0.805057 19.1088
-0.440184 -1.1873 22.5166
0.101493 -4.38765 21.1835
0.0148053 0.0462165 21.0124
-0.00982564 -0.0644988 21.116
-0.096044 0.28484 20.8478
0.00377093 -0.124607 20.1314
0.0275873 0.95044 20.0207
0.022784 0.463995 19.9866
0.525314 1.16564 20.1123
0.0882934 1.36257 15.7851
0.0331529 0.738211 20.2977
0.750345 0.830109 16.2738
0.0175298 1.0229 15.8414
-0.940931 -0.177002 18.375
0.0721722 -0.859183 18.3792
0.56459 1.57687 12.126
1.3139 0.983351 5.52639
-0.0866872 0.248421 0.94486
1.87349 0.392142 9.73721
0.116305 0.929522 8.51417
-0.851122 0.992201 19.0518
0.0218731 0.573526 17.4394
1.84224 -0.706581 11.6833
0.63835 -1.07322 20.3882
0.12314 -0.97175 0.415661
0.513131 -0.925986 19.9598
0.0937848 -1.86063 4.24042
-0.698347 1.26678 19.9761
-0.0199121 1.11781 19.5184
-0.849857 1.3821 20.8732
-0.0427425 1.93825 20.3114
-0.503902 0.635776 21.8618
-0.037506 1.86598 21.4644
0.0233092 -0.294799 21.7296
-0.0126524 0.130086 22.0528
0.219027 -0.586685 21.4406
0.0269223 -0.554821 21.4397
0.250302 -0.666307 20.6555
0.0379019 -0.827767 21.0637
-0.018309 -0.625176 20.8263
1.09771 -1.45563 19.2893
0.636601 -0.577004 19.2289
0.58203 -0.425113 19.6635
0.55065 -1.1364 22.3474
1.60793 -1.61092 20.5149
-0.00345551 0.0657886 21.1439
0.0629136 -0.464165 21.6939
0.0963788 0.318103 20.9943
-0.0733396 -0.0116601 21.5767
-0.00650756 0.995724 20.0382
-0.416434 0.802026 21.4909
-0.474904 1.14663 20.1034
0.00652146 1.3991 15.6213
-0.521976 0.905001 21.2152
-0.640472 0.953032 15.9288
-0.502086 0.83077 21.228
1.06853 -0.176621 18.5079
0.831456 -0.408268 19.4137
-0.450999 1.69882 11.8513
-1.15327 0.96289 3.95402
-1.02404 1.42771 16.2264
-2.03272 0.455248 7.89768
-1.14591 0.818554 17.0518
0.857126 1.01045 19.0332
1.14783 0.208756 19.0718
-1.99783 -0.804554 9.70292
-0.508812 -1.23659 20.2938
-1.81965 -0.421298 17.2854
-0.484001 -1.0218 19.7673
-1.35114 -0.507412 18.8011
0.684228 1.31181 19.9564
0.579691 0.687766 19.8546
0.806539 1.45762 20.8732
0.905279 1.05422 20.4936
0.459691 0.753271 21.9006
0.826415 0.859394 21.369
-0.0244829 -0.318726 21.7365
0.160981 0.0312132 21.8066
-0.175687 -0.63138 21.4169
-0.157117 -0.45479 21.4657
-0.198872 -0.678992 20.8203
-0.262718 -0.54036 21.0262
-0.172932 -0.436635 20.8298
0.921054 -0.541124 20.012
0.645092 -0.282113 19.8057
0.834354 -0.718716 21.3253
1.51327 -0.79484 20.5375
0.0925232 -0.268952 21.5325
0.45316 -0.567722 21.5599
-0.245163 0.146386 21.6716
-0.0252594 -0.14581 21.6628
-0.64838 0.51452 21.5178
-0.735398 0.444865 21.5277
-0.709599 0.474174 20.9906
-0.962063 0.461683 21.0258
-0.828126 0.47872 20.9457
1.34347 -0.493175 19.8559
0.877575 -0.0968917 19.6196
1.24238 -0.724919 21.4753
2.25732 -0.280853 20.5497
0.240418 -0.448044 21.6858
0.9713 -0.573367 21.6402
-0.412163 0.104031 21.6372
0.0306768 -0.268358 21.8531
-1.09618 0.519739 21.0258
-1.19023 -0.0315788 21.1775
-1.36417 0.35778 19.972
-1.31755 -0.0697955 21.3131
-1.47674 0.022918 19.5925
1.71414 0.299297 19.7446
0.825612 0.42893 19.7683
1.72415 -0.0380014 21.3116
1.48248 0.775956 20.5303
0.764701 -0.304223 21.8655
1.20859 0.385715 21.4374
-0.442663 -0.33243 21.8606
0.233882 -0.0811436 21.8581
-1.09455 -0.585267 21.2585
-0.441113 -0.522765 21.5183
-1.19503 -0.544755 20.7807
-0.620158 -0.705665 20.9935
-0.443296 -0.499678 20.7376
0.76524 0.665836 20.2297
0.827164 0.642236 20.9459
0.456902 0.268943 21.5536
-0.0879194 -0.213866 21.5639
-0.26205 -0.39943 21.2009
-0.236962 -0.38353 21.0149
-1.19798 -0.641416 19.8059
-1.43882 -1.95831 18.5337
-1.11352 -1.11521 19.5506
-1.92118 -1.10002 18.9115
-0.683697 -0.49064 19.438
-2.70722 -2.55901 20.3212
-1.13243 -0.919453 21.5621
-0.232201 -0.390072 17.72
-0.695814 -1.21633 21.9135
-0.980457 -1.5211 20.5143
0.188715 -0.473731 20.5465
-0.114923 -0.394233 21.6334
0.0605367 0.20567 13.7229
0.0970941 -0.157489 21.5156
-0.0670026 0.11958 12.715
-0.0705251 0.164353 18.9075
0.328904 0.161671 21.7138
-0.36724 0.272556 14.252
0.131636 0.336562 21.5948
-0.0597282 1.09894 13.6556
0.494089 1.14736 19.474
0.834195 0.527013 21.2725
-0.239149 1.12567 15.2373
0.485154 0.878357 21.1659
0.875057 1.43718 16.3581
0.930245 1.2534 20.4712
1.00264 0.38798 20.5261
0.101937 1.55852 16.7885
0.755339 0.92195 20.7548
1.26722 1.08551 18.6644
0.777854 1.0999 20.9777
-1.73623 -0.190319 19.5877
-3.13169 -0.5928 16.2117
-2.68344 0.772642 18.693
-1.04951 -0.138543 19.0376
-5.80081 -0.363466 20.0875
-1.67243 -0.502652 21.5468
-2.77631 -0.242686 21.6946
-0.562731 -1.18031 17.9411
-0.497413 -0.517399 21.8454
-1.17464 -0.644289 20.3061
0.226317 0.652966 14.5363
0.555663 -0.0780338 21.5161
1.00187 0.356925 17.194
1.28062 0.817346 11.364
1.34729 0.0628353 20.7257
0.125647 1.12302 1.88609
1.48361 -0.187662 16.8639
2.09887 0.677636 15.4472
1.44375 -0.239074 20.3077
2.0866 0.939809 7.83277
1.71736 -0.481303 19.7107
1.64163 0.202607 15.2553
-1.22336 0.695383 19.9924
-1.53497 2.03443 19.1728
-0.786272 0.894003 20.1103
-0.872428 0.664552 19.4367
-1.84771 1.49942 20.3984
-1.36766 0.564794 21.0246
-2.00107 2.00949 20.8018
-0.905382 0.937988 20.9383
-1.76675 0.826184 21.5763
-0.732075 0.155113 21.7327
-1.47496 0.951879 22.5949
-0.51755 0.427512 21.6835
-0.302658 -0.0343444 22.1029
0.178634 -0.306604 21.7059
0.251882 -0.672337 21.7639
0.0764159 -0.247821 21.6125
0.463349 -0.685096 21.6066
0.530723 -0.544503 21.3391
0.514913 -1.04012 21.0715
0.24798 -0.458748 21.281
0.612436 -0.838156 21.3587
0.644426 -0.557756 20.9418
0.609007 -1.0957 19.9887
0.266631 -0.457931 21.0074
0.476304 -0.649026 20.4729
1.50202 -1.59924 18.7985
0.127579 -2.32671 18.67
0.235026 -3.1375 15.9999
0.0630104 -0.84802 18.7809
0.169752 -6.92238 22.9678
0.256971 -0.475225 18.9829
0.00943732 -1.18895 22.7194
0.00284656 0.287813 10.6845
-0.0691456 0.272812 14.3917
-0.00649444 0.0289021 20.3852
0.00283137 -0.102694 11.1824
0.375186 0.322985 14.6333
0.0151315 0.0682431 20.1661
0.0436825 0.376397 11.3962
0.249536 1.17013 15.1489
0.0330897 0.494352 19.6964
0.01958 -0.601795 0.04621
0.0777644 0.690995 11.6562
0.0153207 1.66104 16.5198
0.0266484 0.791236 19.8737
-0.0588857 -0.083562 1.90785
0.0391625 1.06296 11.2433
3.29688 -0.521943 16.582
0.0590693 3.754 13.302
0.0480881 -0.262088 17.6853
-0.0681023 1.03887 1.34443
0.0313887 0.151648 0.319157
0.0215729 -2.44718 -3.94775
-2.27315 0.963938 6.1825
0.232309 -2.1432 2.07594
0.0802999 -0.739267 2.90876
1.53796 2.08389 19.1648
-0.0320899 1.71869 19.8087
-0.0058382 1.40543 18.5636
-0.0423551 4.07734 20.0202
1.99631 2.10689 20.7681
-0.0388856 1.94049 20.7861
-0.0753926 4.47864 21.3115
1.49439 1.10973 22.7105
-0.0310217 1.02123 22.0704
-0.0172544 0.199703 22.2609
-0.203863 -0.74434 21.7273
0.0145343 -0.35129 21.7799
0.0206255 -0.913365 18.5348
-0.443558 -1.11313 20.616
0.0436832 -0.687451 21.4042
0.0358824 -1.34956 18.6948
-0.604412 -1.17453 19.8637
0.0395611 -0.70045 20.7509
0.0940011 -1.20115 19.8018
1.12439 -0.542691 19.9397
1.07849 -0.930944 19.7144
1.80854 -0.928089 19.2307
0.707597 -0.430773 19.5272
2.3715 -1.86193 20.4555
1.04588 -0.734377 21.4028
0.755143 -1.08672 21.7476
1.38172 -1.49664 22.1563
-0.0555089 -0.660535 21.2251
0.142098 -0.374206 21.5864
-0.0943065 -0.197179 21.5699
0.0294784 -0.162251 15.8314
0.0121513 0.0972573 19.6013
-0.328964 0.141928 21.7133
-0.179492 0.353066 21.6579
-0.0127932 1.08597 14.7398
-0.554151 1.18303 19.7013
-0.852628 0.531579 21.26
-0.508193 0.911181 21.1944
-0.886875 1.52878 16.1869
-0.932962 1.31731 20.2516
-1.03344 0.415378 20.486
-0.757925 0.925385 20.7294
-1.23065 1.15229 17.6277
-0.772629 1.07214 20.4476
1.63911 -0.175109 19.7225
2.66933 0.756879 18.7784
1.07517 -0.128068 19.1212
4.94915 -0.414906 20.4401
1.57744 -0.451814 21.4656
2.71348 -0.264912 21.6701
0.743663 -1.14848 19.4083
0.492788 -0.474701 21.8444
1.14045 -0.646543 20.3593
-0.211009 0.549547 15.5273
-0.545239 -0.0782105 21.617
-1.04357 0.331812 17.2724
-1.29488 0.786223 11.3324
-1.39887 0.0696971 20.6753
-1.505 -0.171451 15.9314
-2.23467 0.73556 14.4984
-1.54711 -0.141722 20.1941
-1.69614 -0.550873 17.9592
-1.72403 0.246868 14.1699
1.24799 0.710005 20.0051
0.787232 0.955768 20.0997
0.887126 0.676529 19.43
1.86804 1.53133 20.418
1.3969 0.582774 21.0369
0.915505 1.00645 20.9324
1.84795 0.90189 21.606
0.754518 0.160167 21.7785
0.522828 0.46523 21.7564
0.310393 -0.0346028 22.1813
-0.191286 -0.330899 21.7432
-0.0541978 -0.283838 21.6473
-0.454335 -0.760788 21.6379
-0.56082 -0.642984 21.2939
-0.232737 -0.53393 21.3554
-0.583509 -0.914455 21.5064
-0.678351 -0.628177 20.7906
-0.251428 -0.660636 20.7906
-0.474143 -0.771874 20.2332
-1.49794 -1.18101 19.2715
-0.792637 -1.45972 22.2627
0.182487 -0.13909 19.4007
0.0328076 0.603141 19.3058
0.686042 1.1533 20.0453
0.910361 1.27213 20.6507
-2.61735 -0.28883 18.4539
-1.65046 -1.02959 20.4576
-0.13379 -0.253047 15.9205
0.569764 1.08158 13.1885
1.44492 0.749967 13.2788
1.98113 0.64551 17.1307
-1.46384 1.20294 19.6303
-1.80323 1.07828 21.0079
-1.0797 0.370844 22.0707
0.229516 -0.426352 21.9084
0.579587 -0.777865 21.3731
0.655114 -0.791157 20.839
0.177094 -2.91052 17.6534
0.0124351 -0.283558 14.5836
0.000319036 0.173571 11.0635
0.0147863 0.0344526 11.8895
0.065436 0.190254 11.3351
0.069786 1.17104 11.5194
0.177758 -0.863612 13.0089
-0.0610523 -0.69532 -2.15284
0.104157 -3.24075 -2.6312
-0.019843 3.15243 18.4759
-0.0562977 3.28321 20.406
-0.0594729 2.16354 22.8312
0.0117258 -0.64271 20.008
0.0344343 -1.06054 18.4758
0.044078 -1.23724 18.8083
1.42047 -0.978085 19.4947
0.940207 -1.31293 22.0078
-0.170374 -0.263861 20.2059
-0.104078 0.609604 19.6865
-0.708937 1.22784 20.0665
-0.862119 1.30308 20.3377
2.54597 -0.236753 18.7619
1.92197 -0.937963 22.1021
0.183849 -0.363373 17.1639
-0.588315 1.04499 13.7862
-1.47485 0.77766 12.5317
-2.05406 0.663425 16.0727
1.49132 1.23717 19.6307
1.83346 1.12158 21.0047
1.13826 0.423922 22.1422
-0.23404 -0.485438 21.9801
-0.555779 -0.875775 21.3686
-0.601209 -0.933998 20.5484
0 0 0
-0.0244442 -0.250605 1.15069
-0.00753558 0.0014305 0.0819644
0.0190383 0.0333639 0.0596934
-0.0559298 0.0452982 0.290222
-0.0272463 0.0256567 0.210047
-1.4427 0.589855 2.11127
-0.0274469 0.128662 0.317786
-0.0224654 0.00085861 0.0641928
-0.0221049 0.0187256 -0.00634293
0.0235913 0.0554527 -0.0783884
0.0179161 -0.00436551 0.156527
-0.163424 -0.701939 1.64601
4.20786 -0.164224 3.03317
0.0432421 0.0173527 0.477048
0.0608357 0.0440476 0.273507
-0.00889348 0.0163129 0.0309376
0.0297401 0.0273493 0.204
0.0162165 0.0706546 0.17324
1.67844 0.299141 2.66347
0.0507004 0.000608046 0.143421
-0.0132228 0.0407778 -0.0697995
0.0400071 0.0251444 -0.0183186
-0.0119748 -0.00406138 0.116245
0.0109795 0.00598592 0.261142
0 0 0
0 0 0
0.0056694 0.00204557 0.0831756
-0.0393418 0.00541404 0.353306
-5.19507e-18 7.32878e-19 8.4214e-17
0 0 0
0 0 0
-0.0824749 -0.0322657 0.127601
-0.00400473 -0.00402248 0.124913
0 0 0
0 0 0
0.00229943 0.00303859 0.0107056
0.00486346 0.0133893 0.0532557
0 0 0
0.0346763 0.000871714 0.185959
-0.0102337 0.00494962 0.222336
-0.00818139 0.00238406 0.103252
-0.000804147 0.00134212 0.101988
0 0 0
0.0116008 0.0036322 0.0874564
5.01846e-05 9.58756e-06 0.000744062
0.000401034 9.38126e-05 0.00538243
-2.52205e-19 -2.90273e-18 -9.81458e-18
0.0618484 -0.0242944 0.0966576
0 0 0
0.00378779 -0.00364697 0.125677
0 0 0
-0.00805295 0.0102145 0.036227
-0.028475 -0.00144571 0.172359
-0.00478584 0.0133325 0.0522363
0 0 0
0 0 0
-0.185588 -0.0090763 0.110878
6.61877e-09 1.40999e-06 2.66838e-05
0.00347515 -0.0578553 0.00808345
-0.00207879 -0.00538826 0.0858517
9.55901e-09 -9.25204e-09 -7.84534e-07
0 0 0
-0.047246 0.0844254 -0.0324453
0 0 0
0.0115538 -0.0483014 -0.0476049
0.000845226 0.00483563 0.0330651
4.20168e-06 -3.23821e-07 -0.000131984
0.331114 3.43258 2.4694
0.00419313 1.85085 3.11518
-0.00167624 -0.0105825 0.0732491
0 0 0
0 0 0
0 0 0
0.014755 0.0187006 0.111929
-0.00196205 0.000101327 -0.00116719
0.128072 -0.0302225 0.0548245
0 0 0
-4.77558e-06 4.47122e-06 0.000442206
0 0 0
0.0495564 0.0745638 -0.0285557
0 0 0
-2.02879e-06 -1.23636e-07 -5.33737e-05
-0.00139974 0.00890423 0.0686951
0 0 0
0.00434475 -0.0184043 0.127123
0.00220707 0.000138441 -0.00136551
-0.0178497 0.021765 0.132443
0 0 0
0.000721527 0.000512619 0.0979675
-0.00373742 -0.0187366 0.162025
-0.000274126 0.0028132 0.0328539
0.00021116 0.00268201 0.0803093
-2.92901e-20 5.27323e-20 8.62508e-18
0.000527339 0.0146108 0.0711947
1.10577e-05 0.00489066 0.025943
-3.51217e-07 -1.9687e-07 -6.96756e-05
5.53648e-08 -1.57002e-07 1.81172e-05
0.00363791 0.0192864 0.0774381
-0.00404519 0.0203569 0.357707
0 0 0
3.41714e-05 0.0230116 0.136646
4.71491e-05 0.000463258 0.0574251
-0.000319827 -0.00585982 0.0288188
-0.000857486 -0.000730941 0.129026
0 0 0
0.000468366 -0.00449466 0.0337265
0.000316316 0.00316788 0.0320536
-0.000475073 0.0128405 0.0605265
-0.000132614 0.00931924 0.0517185
0.00473746 0.0178337 0.321096
-0.00902768 0.0399118 0.165091
0 0 0
-0.0174976 -0.0128806 0.0927555
-0.00131164 -0.00378897 0.0543831
-0.00576243 -0.0148441 0.0797633
0 0 0
0.00212602 0.0131972 0.102384
0 0 0
0.00645524 0.0210348 0.0783662
-5.3469e-05 0.00135083 0.0111363
0.000212838 0.000604538 0.00201309
0.00117534 0.000433434 0.00729847
0.00779314 0.00253229 0.0450628
-1.47116e-06 2.23803e-07 6.25594e-06