# vtk DataFile Version 2.0
tri_press
ASCII
DATASET UNSTRUCTURED_GRID
POINTS 3682 float
-0.669686 0.125 -2.185
-0.655 0.165 2.16276
-0.705 0.763607 -2.005
-0.605 1.005 2.16475
0.795 0.115 -2.17526
0.648351 0.165 2.165
0.715 0.765253 -1.995
0.600005 1.005 2.165
-0.639043 0.164081 -0.735747
-0.641653 0.169909 0.713507
-0.774669 0.947074 -0.615084
-0.752091 1.03829 0.774834
0.713637 0.164146 -0.728507
0.67689 0.168677 0.718247
0.777541 0.946042 -0.608333
0.751855 1.0386 0.778333
-1.3683 -0.317761 -3.37886
-1.36995 -0.246486 -2.24442
-1.34604 -0.213854 -0.793497
-1.31734 -0.225497 0.670004
-1.30317 -0.238609 2.12199
-1.31542 -0.232959 3.26162
-1.3354 -0.215074 4.39166
-1.39069 0.0397109 -3.31046
-1.39744 0.125942 -2.18262
-1.37275 0.182168 -0.742992
-1.33032 0.187354 0.702603
-1.29335 0.172696 2.14338
-1.31298 0.178322 3.28193
-1.34011 0.196264 4.41371
-1.43241 0.735931 -3.15656
-1.44956 0.818013 -2.02624
-1.47686 0.963947 -0.627079
-1.41738 1.03595 0.768492
-1.29655 1.01733 2.16877
-1.32217 1.01954 3.30946
-1.36103 1.03479 4.45065
-1.47276 1.8992 -2.96985
-1.48473 1.99489 -1.84819
-1.49746 2.14564 -0.469339
-1.48532 2.25796 0.89705
-1.45158 2.29514 2.27658
-1.43699 2.30228 3.39965
-1.44161 2.31144 4.5349
-0.647501 -0.320859 -3.37883
-0.654048 -0.246454 -2.24646
-0.640987 -0.222591 -0.789703
-0.63858 -0.238659 0.679741
-0.648691 -0.248135 2.13683
-0.660741 -0.241772 3.27214
-0.674778 -0.22294 4.39848
-0.667263 0.0310011 -3.30764
-0.664997 0.170096 3.2907
-0.682323 0.18848 4.41915
-0.708266 0.710043 -3.14518
-0.667772 1.0113 3.30958
-0.701686 1.02787 4.45186
-0.74684 1.88039 -2.959
-0.755468 1.97688 -1.83682
-0.773186 2.13878 -0.461649
-0.781712 2.26003 0.898699
-0.770589 2.29556 2.27421
-0.762632 2.30025 3.39719
-0.76794 2.30858 4.5336
0.799722 -0.326185 -3.37027
0.785785 -0.252909 -2.23777
0.73179 -0.223817 -0.78274
0.694757 -0.239607 0.684569
0.664433 -0.248507 2.1399
0.648989 -0.242119 3.27501
0.644173 -0.223384 4.40159
0.784516 0.0256067 -3.29868
0.630057 0.169873 3.29307
0.628802 0.188103 4.42199
0.737632 0.708013 -3.13616
0.605374 1.01113 3.31133
0.605818 1.02753 4.45446
0.708713 1.879 -2.95146
0.707981 1.97584 -1.8296
0.693278 2.13796 -0.455598
0.648813 2.25954 0.903201
0.599934 2.29521 2.27758
0.583823 2.29987 3.40033
0.575965 2.30813 4.53689
1.52223 -0.326676 -3.36244
1.5084 -0.2558 -2.2282
1.44741 -0.217165 -0.780085
1.38499 -0.227136 0.679583
1.33438 -0.239623 2.1287
1.31718 -0.233826 3.26782
1.31301 -0.216049 4.39817
1.51158 0.030826 -3.29345
1.51401 0.115439 -2.16558
1.45265 0.179231 -0.729365
1.3805 0.185965 0.711683
1.31108 0.171919 2.14902
1.29592 0.177644 3.28733
1.29559 0.195409 4.41976
1.4729 0.730992 -3.13951
1.47723 0.814073 -2.00915
1.49066 0.961464 -0.613881
1.42382 1.03547 0.776566
1.28949 1.01686 2.17299
1.27025 1.019 3.31407
1.27187 1.03403 4.45632
1.43574 1.89618 -2.95508
1.43552 1.99248 -1.83408
1.41932 2.14382 -0.457344
1.36444 2.25683 0.906268
1.29684 2.29432 2.28375
1.26746 2.30143 3.40631
1.25462 2.31048 4.54172
-0.740477 0.444304 -2.14813
0.062657 0.112215 -2.18791
-0.67962 0.119285 -1.46037
-0.721632 0.585 2.25539
-0.00332448 0.162079 2.1668
-0.684761 0.13102 1.43813
0.005 0.856826 -2.0924
-0.758982 0.874488 -1.31004
-0.00249752 1.04537 2.20525
-0.699521 1.04262 1.46979
0.782101 0.440127 -2.11223
0.774285 0.119607 -1.45188
0.716335 0.585 2.25716
0.698426 0.131033 1.44162
0.763819 0.873196 -1.30167
0.696036 1.04191 1.47167
-0.63898 0.168363 -0.01112
-0.888526 0.555578 -0.675415
0.0372972 0.165938 -0.732127
-0.893781 0.604101 0.74417
0.0176184 0.171376 0.715877
-0.762056 0.99136 0.079875
0.00143592 1.23667 -0.611709
-0.000117853 1.41482 0.776583
0.693328 0.168348 -0.00513005
0.891598 0.555094 -0.66842
0.893707 0.60364 0.74829
0.764454 0.992078 0.085
-0.887311 0.499941 -1.38521
0.878204 0.49761 -1.37678
0.0499771 0.11318 -1.45613
0.00321796 1.03095 -1.30585
0.0338285 0.442215 -2.36612
-0.895355 0.579839 0.0343775
0.898424 0.579367 0.039935
0.0274578 0.170479 -0.00812501
0.000659033 1.41867 0.0824375
-0.877289 0.59455 1.45396
0.885471 0.59432 1.45665
0.00714695 0.128867 1.43988
-0.00130769 1.21982 1.47073
-0.002911 0.585 2.36788
-0.666763 0.284652 -2.12825
-0.303515 0.112233 -2.19283
-0.677631 0.119164 -1.82269
-0.705274 0.375 2.22603
-0.329162 0.169506 2.15881
-0.675606 0.142284 1.80045
-0.750577 0.603955 -2.10441
-0.35 0.831148 -2.06963
-0.737452 0.824508 -1.65752
-0.661651 0.795 2.2084
-0.303749 1.03795 2.19777
-0.652436 1.02399 1.81727
0.428829 0.111927 -2.18327
0.756084 0.277563 -2.11128
0.782433 0.119513 -1.81357
0.322513 0.169552 2.15989
0.699004 0.375 2.22774
0.678985 0.14242 1.80331
0.36 0.831428 -2.06409
0.775047 0.60269 -2.08011
0.745307 0.825122 -1.64833
0.298754 1.03801 2.19795
0.656775 0.795 2.20968
0.648257 1.02369 1.81833
-0.68162 0.119395 -1.09806
-0.642328 0.162906 -0.373433
-0.873457 0.304993 -0.705581
-0.30605 0.154656 -0.733937
-0.682778 0.130893 1.07582
-0.640955 0.168497 0.351193
-0.878117 0.331805 0.728839
-0.314706 0.165264 0.714692
-0.768004 0.911959 -0.962563
-0.879077 0.775066 -0.645249
-0.764467 0.965321 -0.267604
-0.439002 1.19664 -0.613396
-0.738229 1.05288 1.12231
-0.866882 0.84317 0.759502
-0.761406 1.01916 0.427354
-0.460638 1.39562 0.775708
0.76614 0.119698 -1.0902
0.380581 0.154815 -0.730317
0.706874 0.162855 -0.366818
0.87997 0.320944 -0.698464
0.706578 0.130935 1.07994
0.349595 0.165344 0.717062
0.685115 0.168506 0.356558
0.87815 0.339733 0.733268
0.772279 0.911218 -0.955
0.442611 1.1976 -0.610021
0.882312 0.774439 -0.638377
0.766551 0.964614 -0.261667
0.737554 1.05386 1.125
0.460184 1.39534 0.777458
0.866859 0.84316 0.763312
0.761537 1.01872 0.431667
-0.883757 0.472122 -1.76667
-0.353324 0.443259 -2.32261
0.0563171 0.11274 -1.82202
0.0482427 0.277215 -2.31321
-0.882197 0.309613 -1.42279
-0.314821 0.113154 -1.45825
-0.834497 0.589775 1.85467
-0.362271 0.585 2.35155
0.00191123 0.141054 1.80334
-0.00311774 0.373539 2.32982
-0.872761 0.362785 1.44605
-0.338807 0.128864 1.43901
0.00410898 1.01928 -1.69912
0.0194142 0.64952 -2.31992
-0.882105 0.687214 -1.34762
-0.377882 0.969129 -1.30795
-0.00190261 1.0685 1.83799
-0.00270426 0.815187 2.25737
-0.851775 0.818587 1.46188
-0.350415 1.19833 1.47026
0.877738 0.468868 -1.7445
0.407965 0.441171 -2.30688
0.881047 0.308609 -1.41433
0.412131 0.113145 -1.45401
0.830519 0.58966 1.8569
0.356712 0.585 2.35168
0.876821 0.362677 1.44913
0.352786 0.128858 1.44075
0.878116 0.685403 -1.33922
0.383519 0.969159 -1.30376
0.853002 0.818114 1.46416
0.347364 1.19836 1.4712
-0.879803 0.317783 0.0116288
-0.311735 0.157472 -0.00962248
-0.894296 0.527759 -1.03031
-0.891592 0.567708 -0.320519
0.0436372 0.113607 -1.09413
0.0323775 0.166284 -0.370126
-0.897184 0.59197 0.389274
-0.884073 0.599326 1.09907
0.0225381 0.17713 0.353876
0.0123827 0.128433 1.07788
-0.879149 0.810821 0.0571263
-0.47588 1.39538 0.0811562
0.00232694 1.02857 -0.958781
0.00104748 1.3769 -0.264636
0.00027059 1.42732 0.42951
-0.000712771 1.35408 1.12366
0.884384 0.329603 0.0174025
0.36636 0.157479 -0.00662753
0.887186 0.526352 -1.0226
0.894865 0.567231 -0.314243
0.897107 0.591503 0.394113
0.886405 0.59898 1.10247
0.882984 0.811495 0.0624675
0.477513 1.39529 0.0837187
-0.872312 0.297132 -1.79468
-0.89012 0.334721 -1.06419
-0.882833 0.71927 -0.996437
-0.885473 0.645585 -1.7121
0.866898 0.293086 -1.77904
0.876336 0.644046 -1.69642
0.88657 0.717985 -0.988799
0.889701 0.334115 -1.0564
-0.309168 0.112711 -1.82235
0.42048 0.11269 -1.8178
0.393799 0.113592 -1.09216
-0.307847 0.113587 -1.09609
-0.363941 0.921514 -1.67832
-0.382249 0.994711 -0.960672
0.386504 0.998214 -0.956891
0.371759 0.921784 -1.67373
-0.328419 0.280933 -2.29181
-0.351662 0.626738 -2.29943
0.383982 0.626105 -2.28781
0.418397 0.277389 -2.29175
-0.87633 0.311538 -0.346976
-0.880371 0.324089 0.370234
-0.875186 0.828081 0.408314
-0.879172 0.792973 -0.294062
0.881904 0.32541 -0.340531
0.88235 0.792818 -0.287955
0.875243 0.827489 0.41289
0.882863 0.33387 0.375335
-0.30934 0.155168 -0.37178
0.373886 0.155316 -0.368472
0.359612 0.158142 0.355217
-0.311454 0.164903 0.352535
-0.484118 1.34936 -0.26612
-0.472857 1.4047 0.428432
0.473441 1.4045 0.430589
0.486579 1.34948 -0.263151
-0.877729 0.374895 1.08744
-0.836066 0.368893 1.82756
-0.804323 0.806793 1.83597
-0.859111 0.819892 1.11069
0.883162 0.374418 1.0912
0.860868 0.819618 1.11373
0.799105 0.806557 1.83762
0.838112 0.368838 1.83011
-0.325412 0.128423 1.07685
0.35002 0.128414 1.07891
0.33765 0.141049 1.80333
-0.333985 0.140936 1.80189
-0.363259 1.33759 1.12298
-0.327082 1.06104 1.82763
0.323059 1.06106 1.82816
0.361616 1.33698 1.12433
-0.345717 0.37427 2.31047
0.339613 0.37427 2.31064
0.327733 0.805093 2.24108
-0.33301 0.805093 2.24022
-0.675179 0.204826 -2.16358
-0.4866 0.115453 -2.19208
-0.671095 0.124645 -2.00384
-0.683023 0.27 2.19728
-0.492081 0.168421 2.15962
-0.664929 0.154016 1.9816
-0.718724 0.683781 -2.04564
-0.5275 0.792602 -2.03254
-0.726093 0.798925 -1.83126
-0.636349 0.9 2.1896
-0.454374 1.02829 2.18807
-0.63268 1.01846 1.99101
0.611914 0.111307 -2.18142
0.746337 0.196282 -2.11406
0.78106 0.124913 -1.99442
0.485432 0.183093 2.14663
0.67654 0.27 2.19923
0.663795 0.153583 1.98416
0.5375 0.793262 -2.02446
0.739587 0.683971 -2.03212
0.734742 0.799776 -1.82167
0.449379 1.02827 2.18824
0.631495 0.9 2.19045
0.628079 1.01829 1.99167
-0.644968 0.157101 -0.916903
-0.641361 0.162818 -0.55459
-0.844391 0.190467 -0.720664
-0.472727 0.159007 -0.734842
-0.681781 0.130836 0.894663
-0.641932 0.168575 0.53235
-0.856491 0.202554 0.721173
-0.482401 0.159144 0.714099
-0.775619 0.933799 -0.788823
-0.847075 0.871171 -0.630166
-0.766423 0.953052 -0.441344
-0.645755 1.1497 -0.61424
-0.745608 1.04604 0.948573
-0.810521 0.941249 0.767168
-0.7577 1.02968 0.601094
-0.638618 1.28146 0.775271
0.724771 0.15704 -0.909351
0.547366 0.158966 -0.729412
0.711483 0.162274 -0.547663
0.87431 0.203792 -0.713485
0.710677 0.130863 0.899091
0.516996 0.159505 0.717654
0.681019 0.168576 0.537403
0.868385 0.208773 0.725758
0.778956 0.932676 -0.781667
0.649165 1.15 -0.609177
[...]
POINT_DATA 3682
SCALARS point_scalars float 1
LOOKUP_TABLE default
-125.378
-42.2147
-54.6888
-38.7962
-121.737
-42.2057
-57.0931
-38.9069
-37.4922
-29.4934
-66.4852
-54.6907
-37.2677
-28.8795
-66.362
-54.606
-111.531
-102.552
-53.0836
-36.1739
-45.9524
-37.7073
-33.5768
-111.531
-102.552
-38.2664
-37.6023
-44.7573
-34.8516
-33.8208
69.0644
-92.0569
-51.7596
-50.4049
-42.191
-34.8635
-34.8635
-33.2734
-61.8469
-87.8681
-65.6198
-39.6583
-39.0047
-37.6493
50.2601
-145.868
-39.7449
-29.796
-41.1067
-34.9431
-33.4579
50.2601
-32.7697
-32.541
148.819
-34.2935
-33.4676
-46.3895
-46.1713
-88.5638
-67.3197
-37.7694
-37.4423
-36.0468
30.6503
-144.998
-39.0681
-29.4925
-41.9071
-34.1767
-34.169
66.3199
-33.0073
-32.7137
152.042
-34.5761
-33.7255
-51.0766
-46.8955
-91.1408
-68.2384
-37.4124
-36.3554
-35.4386
-76.7667
-112.219
-40.2332
-35.1688
-46.4655
-38.0359
-34.1355
-76.7667
-112.051
-38.5683
-37.2683
-44.6262
-35.2439
-34.2944
30.7453
-89.728
-52.177
-50.4065
-42.2732
-35.2547
-34.7202
-65.7346
-60.7083
-88.4021
-65.4971
-39.6918
-38.4752
-37.4305
2.03254
-159.422
-59.8651
-36.6277
-37.0405
-42.2427
-55.6445
-42.1035
-36.8679
-50.835
-40.7372
-58.2586
-36.9283
-42.9216
-40.9394
-50.7302
-32.2127
-42.875
-39.2067
-45.0133
-28.1815
-55.5478
-0.288247
-71.2293
-32.0733
-43.5964
-44.9219
-55.785
-58.5874
-56.4948
-61.8486
-21.9702
205.939
-42.2466
-43.0611
-31.6889
-87.301
-47.5469
-48.6872
-41.1865
-46.4354
-32.0749
55.6113
-174.54
-92.3664
-36.8315
-37.6416
-44.657
-25.0387
-56.0358
-57.4142
-36.9357
-36.4846
-43.1698
-185.135
-12.1913
-92.9476
-38.0682
-37.059
-45.3331
-55.5053
-48.706
-57.1185
-36.5352
-37.0907
-43.1553
-51.378
-33.9284
-39.3017
-38.8998
-41.0653
-31.5409
-39.8393
-29.4315
-38.2375
-50.2875
-59.9809
-1.02769
-54.3415
-50.0335
-55.907
-69.0366
-52.6269
-38.6165
-33.7312
-40.2612
-41.9308
-29.6253
-31.519
-39.0427
-38.6178
-1.82153
-50.6606
-60.2568
-55.1681
-68.9527
-50.0169
-55.79
-104.492
178.876
-89.2874
178.145
-60.5842
-61.5813
-46.2505
-33.1451
-41.8276
-28.5455
-46.0561
-41.435
-47.5735
153.243
-56.6135
-24.4652
-41.1009
-34.1699
-50.1008
-47.1852
-94.1714
169.928
-59.1516
-61.1152
-46.6112
-33.531
-46.9716
-41.7441
-54.5127
-24.2536
-50.969
-47.1567
-38.1989
-31.6551
-47.6674
-42.2717
-52.0593
-33.7977
-43.7621
-43.8273
-29.8414
-39.5411
-48.7599
-80.739
-0.268449
-89.7198
-79.0099
-57.9978
-38.7485
-31.4614
-46.3144
-42.7534
-43.4881
-44.4733
-49.615
-80.8788
-107.031
-47.92
-46.6305
-95.87
-99.0849
-88.5715
-45.884
-47.9407
-90.6033
-90.7121
-52.1156
-51.9711
-45.8064
-0.64716
-0.718701
-45.4739
169.216
134.574
130.252
140.023
-38.1967
-39.4666
-49.8106
-49.754
-38.6491
-50.2137
-49.6652
-39.0768
-33.9291
-33.8736
-30.6525
-30.0036
-90.61
-72.5728
-72.5581
-90.6226
-41.8748
-47.1864
-45.5098
-47.7676
-43.4244
-48.4065
-45.4858
-48.4093
-39.5959
-39.8682
-43.175
-42.7872
-58.707
-41.4417
-41.454
-58.6466
-30.8
-31.4605
-34.4753
-34.2605
42.9036
-202.217
-123.785
-38.4037
-39.6407
-43.0117
-33.6695
-57.2345
-65.6845
-37.7681
-36.8398
-40.6391
-160.537
-33.9895
-127.867
-40.0728
-38.5985
-43.7704
-54.8488
-35.7716
-69.0565
-36.9559
-38.0969
-40.7391
-43.4238
-35.0905
-36.8278
-38.4446
-36.6838
-30.9882
-34.7485
-29.3531
-54.4973
-56.4614
-62.9335
-49.2185
-54.7144
-53.9577
-55.0086
-62.5626
-42.4754
-37.9914
-34.8234
-38.2215
-37.4561
-29.5647
-30.644
-33.8396
-55.5236
-50.6542
-56.8283
-63.1351
-55.0086
-62.4761
-53.9696
-54.9383
22.7207
-12.9281
-101.11
136.009
-162.3
-164.738
-117.071
146.085
-72.1026
-53.2097
-60.8378
-60.6969
-36.3887
-36.4262
-42.6953
-33.9551
-36.0601
-36.3018
-38.1043
-30.7183
-45.5606
-40.6683
-45.5367
-41.7749
-58.0183
-59.9003
-34.016
63.6295
-48.968
-39.0234
-54.8464
-29.8075
-36.7351
-36.6633
-39.2315
-34.6858
-46.7477
-53.6665
-50.1081
-48.5893
-32.349
-44.9418
-116.472
117.584
-70.0567
-51.8594
-59.7054
-59.6515
-36.6921
-36.77
-42.688
-34.2923
-46.5113
-41.3324
-46.0039
-42.2445
-48.1412
-38.0471
-52.9321
-29.4464
-46.7413
-53.5303
-50.4965
-48.6018
-33.3865
-31.8195
-34.6041
-31.7976
-40.9004
-45.6252
-44.229
-42.3707
-39.165
-39.0596
-44.8387
-35.8156
-42.6439
-47.3356
-44.0405
-44.2366
-28.4246
-28.4851
-29.1989
-33.5657
-57.6348
-56.8076
-53.4825
-67.8001
0.442659
-0.0381062
12.032
-52.7407
-71.0267
-71.0005
-75.3146
-65.3682
-33.5779
-31.8539
-35.3779
-31.7172
-41.7018
-46.2538
-45.0262
-42.8887
-42.3496
-47.3112
-43.7866
-44.2465
-58.0686
-57.2124
-53.986
-68.247
-72.9873
-59.7856
-57.251
-50.2312
-70.1861
-57.7691
-55.276
-48.9066
-72.1495
-61.7897
-61.6284
-55.5948
-43.5256
-22.7748
-22.7461
-8.9276
202.98
186.257
179.174
196.743
-40.1687
-42.1826
-43.5298
-44.9192
-40.7707
-42.7436
-43.5426
-45.8753
-31.6305
-33.2134
-30.4731
-31.5928
-86.1263
-89.3227
-84.3257
-86.1804
-48.5354
-46.8689
-49.27
-45.9362
-49.4923
-47.8268
-50.2689
-46.211
-42.0195
-41.2233
-41.3779
-40.4621
-43.4216
-46.7207
-46.6939
-51.4721
-32.4281
-28.372
-34.4312
-32.6506
-125.441
101.837
-119.936
60.667
-109.695
-91.5133
-43.1832
-32.9746
-39.6236
-31.2782
-48.2118
-43.2918
-81.4523
60.8784
-50.9361
51.8034
-77.9108
-48.2762
-42.6235
-34.5775
-39.1531
-34.6402
-44.733
-41.9863
-121.994
11.9978
-132.09
94.6773
-100.146
-90.5086
-40.0931
-31.8462
-42.9773
-33.5036
-49.19
-43.7496
-51.5988
31.6067
-94.9894
51.4876
-77.2297
-48.0931
-39.2019
-34.7879
-42.519
-34.8335
-44.7403
-42.0028
-47.9237
-51.7399
-35.4246
-33.8508
-44.4085
-38.2258
-44.531
-35.6673
-41.7775
-39.9342
-35.091
-30.8168
-39.6652
-43.1562
-29.9442
-33.4376
-46.3262
-10.1934
-48.938
-50.2069
-55.2411
-79.2788
11.4069
-46.3032
-51.4581
-59.8271
-49.5893
-49.3305
-54.5358
-63.9046
-70.4551
-65.401
-48.7491
-52.2079
-44.1199
-35.5701
-36.0812
-33.6865
-44.1502
-38.9543
-42.4042
-40.3779
-29.5253
-33.5702
-35.5834
-30.8681
-39.1982
-43.8365
-46.6437
-10.2861
10.9089
-47.5352
-49.2976
-50.5505
-55.5474
-79.8172
-52.8779
-59.7056
-70.4175
-65.3755
-49.4811
-49.3631
-54.4045
-63.5254
-106.205
-99.8836
171.642
170.583
-89.258
-88.4684
176.448
171.858
-75.3152
-51.265
-72.2016
-55.2899
-45.2611
-46.0282
-30.8022
-34.3503
-42.2391
-42.0387
-29.2587
-29.8143
-44.3392
-48.3851
-40.5434
-42.5096
-49.1178
-48.1805
152.521
147.569
-49.445
-70.8856
-37.1419
-12.8042
-41.2049
-41.1985
-34.2623
-34.1335
-48.4314
-49.5637
-51.9514
-43.7965
-99.0952
-91.689
159.272
159.696
-72.6461
-49.9432
-71.8861
-55.0754
-46.1337
-46.2671
-31.5019
-34.5268
-44.5448
-49.0359
-40.8134
-42.8309
-67.5886
-48.0702
-12.7211
-36.798
-50.2198
-49.1033
-43.7981
-51.8871
-38.2469
-39.0486
-33.0726
-30.7545
-48.0491
-47.1291
-39.9695
-45.2939
-52.0935
-52.0488
-33.7641
-33.7569
-41.4829
-46.345
-42.7456
-45.0919
-30.0343
-29.8093
-39.5304
-39.6362
-49.9432
-49.0843
-84.3495
-77.0825
0.0440384
-0.0234081
-90.9513
-90.6868
-77.5801
-77.5734
-58.0538
-58.0251
-38.5527
-39.258
-33.0309
-30.7099
-45.6616
-47.0568
-40.5122
-45.7558
-46.1414
-41.2125
-44.0133
-45.5206
-49.6204
-49.9555
-77.2125
-84.5054
-115.964
-75.171
-74.3251
-113.682
-43.5155
-43.7176
-50.7986
-51.3203
-51.6252
-49.2949
-49.4378
-45.6376
-75.7736
-92.8885
-71.3323
-66.5123
-115.646
-122.426
-71.8409
-72.3609
-78.6852
-63.5297
-68.0373
-108.977
-51.4131
-46.4756
-48.0836
-47.9678
-43.6496
-49.3388
-49.6136
-44.2136
-124.088
-117.239
-72.0485
-72.0059
-124.078
-70.7281
-71.9853
-117.782
-43.2684
-44.5082
-55.4571
-53.9687
-44.0195
-54.5436
-55.5138
-44.789
-55.2482
-40.2613
-41.9346
-37.009
-14.7306
12.6562
-10.0004
-19.6702
-15.9255
-19.4404
-9.90825
12.3599
-56.668
-40.8485
-42.1161
-39.7705
66.8043
118.524
183.9
123.548
9.00019
106.939
173.86
126.91
1.04306
110.008
172.352
85.355
91.1372
101.285
181.962
100.02
-35.9724
-35.7617
-39.9442
-40.0987
-35.106
-41.7541
-41.0194
-34.9637
-53.697
-54.1949
-46.3686
-46.4878
-55.9223
-45.4493
-45.0489
-54.2868
-36.6066
-40.7091
-40.4902
-36.0406
-56.2395
-54.7194
-45.6434
-45.9099
-53.6548
-46.299
-46.2941
-54.7256
-35.2287
-35.6514
-41.274
-41.4583
-35.4304
-35.774
-33.1952
-33.1663
-35.1803
-33.1457
-33.1887
-35.6595
-30.0259
-29.4477
-30.5795
-31.2221
-30.2873
-31.1924
-30.6491
-29.5189
-90.038
-70.9924
-89.0678
-48.5503
-62.4277
-74.3207
-82.4182
-65.924
-62.3369
-66.8102
-82.467
-74.3013
-89.1464
-49.0645
-89.1241
-71.4734
-37.5695
-43.4974
-45.0142
-43.0137
-44.3902
-43.2261
-47.4747
-49.6999
-42.0499
-47.8371
-48.8667
-42.943
-53.0786
-46.4418
-47.2165
-52.0752
-45.7025
-43.0693
-45.2467
-43.7943
-53.135
-52.4174
-47.7733
-46.5029
-42.1071
-42.6018
-50.0043
-47.8278
-44.3732
-51.3733
-48.1938
-43.1966
-34.1932
-33.5446
-40.4173
-40.7046
-34.3028
-41.1223
-40.5762
-33.5973
-41.696
-38.6243
-42.2725
-44.261
-40.9005
-43.7188
-42.0894
-38.4033
-61.193
-53.7377
-51.6245
-65.1772
-39.3926
-39.2385
-43.5218
-44.6869
-39.4531
-44.6597
-43.5105
-39.254
-61.482
-65.1448
-51.4256
-53.6168
-34.3647
-31.1306
-28.9049
-32.7326
-34.8047
-33.27
-29.3073
-31.4783
-35.0829
-34.6437
-34.4382
-34.8267
-34.8321
-34.5692
-34.3055
-34.5631
16.6345
-145.54
-185.812
-40.5557
-41.9129
-41.2546
-39.9302
-62.4698
-80.8579
-38.7091
-37.5815
-39.3723
-79.5934
-58.5304
-140.338
-42.5718
-41.346
-42.0322
-55.6775
-35.0711
-79.5008
-37.7114
-39.0219
-39.493
-39.9075
-35.9082
-36.61
-37.9701
-27.1082
-30.5557
-31.3722
-29.5065
-67.5831
-61.5041
-64.9345
-81.0378
-54.8155
-53.7542
-54.992
-58.9634
-39.7276
-37.4391
-35.409
-38.2304
-26.8843
-29.4748
-29.9524
-28.1918
-66.9074
-81.4735
-61.5226
-65.1351
-54.9612
-58.9594
-53.6591
-54.8632
11.4105
-5.09798
-74.4602
91.0256
-159.99
-160.838
-136.207
-8.91107
-64.9866
-55.9726
-60.8669
-60.1684
-36.3133
-36.7589
-40.2141
-34.678
-36.1121
-37.0038
-36.6284
-32.754
-43.3534
-41.3776
-44.1538
-41.9683
-57.0743
-57.1339
-51.6632
-55.418
-44.5805
-39.3796
-50.7536
-35.0927
-36.822
-36.8222
-38.2229
-35.315
-48.8785
-52.0613
-50.313
-50.1483
-36.3863
-42.3413
-102.083
58.6061
-63.0383
-54.4189
-59.6733
-58.7213
-36.6461
-37.0304
-40.3495
-35.0175
-44.2379
-41.9992
-44.6249
-42.5051
-43.6752
-38.4067
-48.9161
-34.3657
-48.5558
-51.908
-50.3298
-49.9915
-32.9976
-31.985
-32.9191
-31.9706
-41.7627
-44.082
-43.3273
-42.5693
-39.2053
-39.1603
-41.7093
-37.2455
-43.7314
-46.1979
-44.3582
-45.523
-28.2719
-28.2273
-28.6118
-26.9247
-56.6596
-55.2921
-55.0671
-59.6359
0.315066
0.084069
10.6346
-17.5405
-71.257
-71.2484
-73.0617
-68.5402
-33.0238
-32.0263
-33.0693
-31.8429
-42.5433
-44.7856
-44.1305
-43.1849
-43.5476
-46.1364
-44.1578
-45.4988
-56.9827
-56.2542
-55.7978
-60.1632
-64.7292
-59.3626
-57.8654
-53.9076
-62.4253
-57.2129
-55.8998
-51.4488
-66.3316
-61.6321
-61.7838
-58.4099
-31.2563
-22.032
-22.0275
-14.9415
205.114
196.004
201.201
203.705
-41.1179
-42.2316
-42.7666
-43.4326
-41.7787
-42.8474
-43.4212
-44.3707
-31.6805
-32.3892
-31.0236
-31.7001
-87.0309
-89.2457
-86.1022
-87.0571
-48.3424
-46.9817
-47.91
-47.1409
-49.705
-48.2745
-49.3592
-47.1578
-41.5806
-41.1845
-41.2626
-40.8092
-44.8599
-46.4857
-46.4722
-48.6774
-32.1975
-29.8832
-34.6009
-32.3115
71.8487
40.2971
-74.071
88.8356
-181.341
-165.473
-143.259
-74.9911
-106.43
-81.1462
-107.819
-91.7248
-37.2128
-36.6692
-40.2239
-34.1552
-38.5233
-36.785
-38.2216
-33.6218
-43.5701
-45.7021
-48.5463
-43.7512
-30.1622
-19.8064
-62.9865
27.8071
-53.9158
-59.0739
-56.4292
-52.3536
-63.4656
-53.3021
-69.5134
-51.4537
-36.9494
-36.6075
-41.1288
-35.0443
-36.5575
-36.434
-37.8302
-35.1539
-41.7362
-44.7982
-44.0265
-42.4768
-213.275
-172.512
-150.659
-103.84
-11.6331
-20.9149
-116.177
72.5394
-109.632
-79.373
-101.453
-90.7403
-39.6106
-37.0981
-38.7278
-34.4033
-37.4648
-36.9108
-40.3358
-34.5904
-44.1861
-46.583
-49.3391
-44.1554
-55.4882
-60.4223
-56.7741
-55.4226
-44.8446
-45.2109
-81.6023
13.8715
-62.658
-53.4039
-67.5207
-51.3352
-36.6629
-36.486
-37.9017
-35.2637
-37.3238
-36.8625
-41.0978
-35.3219
-41.8115
-44.8315
-44.2061
-42.4901
-49.2748
-51.2763
-48.2023
-51.7004
-34.3607
-33.5004
-34.2894
-33.9663
-37.7696
-40.0606
-40.5992
-38.9005
-38.6027
-39.1506
-41.0984
-37.1724
-41.7276
-40.3369
-41.8556
-40.3038
-31.2824
-31.6395
-32.8232
-31.1789
-37.8511
-41.4771
-39.6851
-42.5289
-29.9625
-28.8456
-29.9771
-27.4629
-43.6905
-38.5625
-44.8593
-22.0111
-53.2714
-47.6677
-49.3504
-50.282
-61.3724
-58.6916
-58.3943
-67.3931
-11.5693
0.381653
8.61461
-21.8695
-54.0767
-54.2799
-51.3875
-58.937
-51.8367
-48.725
-49.6772
-49.6562
-55.0945
-56.8952
-54.9493
-59.7695
-66.1203
-70.5479
-69.3821
-68.2198
-48.2627
-50.9122
-49.4148
-52.7449
-38.2293
-38.9334
-40.7822
-37.0251
-34.1827
-33.5058
-34.3665
-33.6568
-39.3198
-40.8645
-41.478
-39.4799
-42.6899
-41.0685
-42.6154
-40.8707
-29.9099
-28.905
-29.9585
-27.756
-31.1346
-31.7424
-32.6369
-31.1334
-37.2042
-41.0653
-39.3221
-42.2189
-43.8974
-38.0753
-45.7437
-22.3366
-12.8817
-0.371287
7.892
-23.0785
-53.6292
-48.1881
-49.7448
-50.6685
-61.7113
-59.0309
-58.664
-67.6823
-54.601
-54.6221
-53.6532
-59.0718
-66.0038
-70.5031
-69.3653
-68.1399
-51.9438
-48.6851
-49.6025
-49.7087
-54.9999
-56.7872
-54.8901
-59.5933
-119.726
-84.4685
-105.785
-102.133
160.879
192.401
176.597
179.084
-101.684
-79.5069
-88.941
-89.7879
166.709
187.409
178.925
176.448
-60.4429
-60.2333
-67.0608
-55.424
-61.2619
-62.1905
-66.1581
-58.0772
-45.4277
-47.3239
-45.6003
-46.2509
-33.5098
-32.7473
-31.5379
-34.4372
-39.6437
-42.8638
-41.9625
-41.8613
-30.1743
-27.6137
-28.9437
-29.1315
-45.8282
-46.4367
-45.7434
-47.2022
-41.6036
-41.2932
-40.9818
-41.967
-15.54
-63.0835
-57.1648
-56.4068
132.062
162.055
150.773
147.053
-55.7818
-56.5828
-51.9736
-62.9941
-26.0473
-23.6735
-30.8744
-17.9654
-40.3204
-42.1428
-41.1193
-41.1177
-34.3862
-34.17
-34.198
-34.1587
-49.9918
-50.1178
-49.408
-50.3915
-47.6114
-46.929
-49.3366
-45.3252
-110.657
-79.4167
-96.1099
-91.8763
148.424
187.314
168.598
166.53
-59.4585
-58.4279
-66.2602
-53.9404
-60.5446
-61.5209
-65.6902
-57.7358
-45.1621
-48.6448
-46.56
-46.3953
-33.9277
-33.0774
-32.1353
-34.651
-46.6422
-47.4151
-45.4377
-48.3006
-41.9915
-41.53
-41.2104
-42.282
-53.8869
-54.5931
-60.2718
-50.2739
-25.7169
-23.3491
-17.7367
-30.5013
-50.8295
-50.9652
-51.0502
-50.6216
-47.5621
-46.8833
-45.3431
-49.2883
-36.534
-39.124
-37.9965
-38.5159
-31.6986
-31.5751
-31.9707
-31.2092
-46.3699
-47.7014
-47.824
-47.3673
-42.2818
-42.2128
-40.9507
-43.6577
-48.9843
-53.5113
-52.0933
-52.0463
-34.7023
-33.3371
-33.7634
-33.7602
-43.812
-43.7586
-42.4894
-44.9945
-43.0899
-45.0428
-43.2949
-44.2717
-29.5459
-30.1534
-29.9226
-29.8169
-39.148
-40.027
-39.5384
-39.5865
-50.9773
-46.5999
-49.5564
-48.9949
-76.6416
-84.3917
-83.4271
-78.5327
7.54962
-3.21913
-0.202282
-0.235271
-83.3199
-88.0088
-90.6388
-90.5466
-77.2173
-81.5006
-78.757
-78.7576
-61.6963
-54.7985
-57.97
-57.9563
-37.7367
-39.7391
-38.6144
-39.0215
-31.6399
-31.534
-31.8837
-31.4999
-45.6905
-47.7659
-45.8956
-46.7248
-42.7712
-42.7246
-41.4958
-44.1355
-43.5359
-43.5145
-44.7573
-42.2193
-43.7482
-45.3056
-44.2557
-44.7713
-51.72
-47.6113
-49.5336
-50.0374
-76.8092
-84.4753
-78.7321
-83.5344
-130.733
-108.142
-105.576
-87.3922
-47.8224
-48.5188
-47.9227
-48.0918
-46.4673
-47.4404
-47.562
-46.9258
-95.5686
-85.6626
-97.8191
-82.5563
-121.411
-99.6279
-97.9123
-81.7427
-96.7942
-84.6444
-90.8606
-76.8592
-46.0488
-47.8211
-46.1529
-45.886
-48.1943
-46.8981
-48.5284
-47.4297
-103.544
-90.9891
-89.6174
-79.9776
-104.754
-91.1465
-90.3498
-79.9482
-52.1101
-48.4317
-53.1102
-52.0338
-51.8393
-48.9345
-53.2243
-52.0295
-47.4813
-46.8012
-47.5505
-42.3346
-3.34596
7.21167
-6.43288
0.343577
-3.39903
7.09552
-6.48587
0.291866
-47.5422
-46.4958
-46.2033
-41.9635
146.287
141.348
171.343
174.06
93.3913
113.544
149.307
141.384
106.181
79.7033
136.313
142.028
103.611
102.923
165.953
152.84
-36.8425
-38.2869
-38.2481
-38.9206
-38.0037
-39.5097
-39.4041
-40.3964
-49.7012
-51.9591
-47.9586
-50.0036
-50.0697
-52.1036
-47.2722
-49.4748
-37.7775
-38.6757
-38.5959
-39.5271
-50.3846
-52.5332
-47.6818
-49.8778
-49.5574
-51.7897
-47.7847
-49.8953
-38.5358
-39.1072
-39.232
-40.1722
-33.8778
-34.4827
-33.5188
-33.8318
-34.406
-33.7972
-33.7928
-33.4719
-29.9182
-30.8941
-30.2251
-30.4005
-30.1893
-29.7711
-30.8775
-29.8422
-88.1674
-79.5442
-85.5563
-92.2969
-67.7761
-71.5365
-74.6854
-75.6442
-71.5047
-67.7834
-75.6424
-74.712
-79.3246
-88.7394
-89.926
-85.8016
-41.9223
-41.7457
-42.979
-42.2628
-45.9256
-47.6857
-46.3975
-48.1918
-44.2568
-45.3023
-45.782
-47.0069
-50.2747
-48.79
-48.1389
-46.244
-43.1792
-43.1294
-43.977
-43.7536
-50.6874
-48.8135
-48.8661
-46.6619
-44.1469
-45.1773
-45.7787
-47.1282
-46.0048
-48.7017
-47.7401
-49.2383
-39.7318
-39.1798
-40.1038
-39.5442
-40.0373
-39.2547
-40.3946
-39.6944
-41.4788
-43.6778
-42.6511
-43.9159
-41.0602
-43.2007
-42.3521
-43.5525
-59.3231
-61.8768
-55.4263
-58.2635
-40.3906
-41.6853
-41.3034
-42.5642
-40.42
-41.7004
-41.3124
-42.5669
-59.2282
-61.9663
-55.3385
-58.2104
-31.9981
-30.6666
-30.7162
-29.9766
-31.1889
-32.6152
-30.5881
-31.4119
-34.5444
-34.5781
-34.3336
-34.503
-34.3536
-34.3547
-34.3017
-34.1771
-92.1859
115.974
-158.032
-11.5821
-128.529
-124.449
-42.3779
-35.8204
-39.7068
-35.9691
-45.3697
-41.4546
-65.0172
2.73624
-58.194
-28.6177
-71.2809
-58.375
-41.1413
-35.6313
-38.0532
-35.6351
-41.635
-39.8398
-170.564
27.2034
-123.94
67.9028
-116.405
-126.158
-40.8686
-36.0943
-42.1716
-36.2683
-45.6927
-42.0921
-59.1544
-32.7363
-78.2584
-8.8212
-72.7001
-60.5061
-38.1416
-35.8368
-41.2954
-35.8957
-41.6623
-39.8805
-42.6554
-43.6301
-35.2292
-35.2058
-38.1076
-36.485
-41.0126
-36.6595
-39.4586
-35.094
-32.7343
-30.6543
-34.9294
-31.2036
-30.0865
-28.3749
-52.3488
-41.9493
-56.4253
-56.4964
-59.8069
-75.5763
-25.8366
-74.2728
-53.6257
-57.2225
-53.9249
-53.4525
-54.3368
-58.8113
-62.1327
-61.4381
-41.6569
-42.9603
-40.4963
-36.3459
-35.0463
-34.9375
-40.5614
-37.1814
-42.1122
-34.9119
-29.7666
-28.1128
-31.7568
-30.2968
-34.811
-30.3673
-53.1013
-43.4128
-28.2931
-76.2041
-56.6528
-56.8761
-60.0642
-75.2683
-53.7985
-57.5402
-62.0608
-61.5022
-53.8436
-53.5204
-54.2913
-58.7193
-65.6844
84.3842
-68.6269
80.7504
-107.906
-98.3995
133.091
137.034
-136.707
8.48443
-138.341
-12.4447
-116.979
-116.929
124.254
119.681
-75.2438
-71.7768
-52.0208
-53.8766
-66.7446
-55.52
-65.541
-57.2796
-40.8474
-33.9317
-40.6835
-35.0365
-43.3152
-42.86
-32.9867
-34.8128
-36.9086
-33.2032
-37.1407
-33.5059
-38.2777
-38.1676
-30.7711
-30.9732
-48.6646
-44.4616
-41.8069
-40.7362
-45.1759
-47.1892
-41.174
-42.5222
-48.5986
-55.2011
-45.6958
-62.4245
-34.1758
-35.7099
102.69
101.616
-58.7678
-44.2457
-46.0542
-27.9786
-51.3676
-60.1151
-34.965
-25.2188
-38.1363
-35.3436
-38.1903
-35.3569
-39.2474
-39.252
-34.6923
-34.658
-47.3276
-45.9716
-52.5793
-54.7374
-49.1048
-51.2355
-51.2355
-46.4273
-109.839
58.9966
-91.1608
53.825
-116.908
-113.347
116.674
110.428
-71.9789
-70.1668
-50.4794
-53.0782
-66.1572
-54.26
-64.3001
-56.387
-40.9995
-34.3472
-40.9241
-35.308
-42.8458
-43.4131
-33.4749
-35.0465
-50.7667
-45.0985
-42.2759
-41.2269
-45.0851
-48.3102
-41.6071
-43.0217
-56.1057
-43.5703
-44.3391
-27.3356
-58.7056
-49.4816
-24.9376
-34.4356
-47.2093
-45.8581
-52.5766
-54.5368
-51.5491
-49.1519
-46.37
-51.1428
-34.3247
-32.9472
-32.712
-31.482
-35.2538
-34.6495
-32.3831
-31.3186
-41.72
-40.4302
-45.5558
-45.5693
-43.7987
-44.8103
-41.0994
-43.7593
-41.6024
-37.1851
-41.5005
-37.2389
-44.71
-44.8302
-35.7993
-35.6916
-42.0424
-43.6502
-46.7224
-47.3406
-42.7906
-45.2188
-43.4388
-45.1672
-29.0709
-27.0041
-28.9529
-27.0842
-29.2266
-29.2889
-33.5596
-33.5876
-56.5048
-62.871
-55.6733
-61.8892
-53.9626
-53.9385
-69.3028
-65.7508
10.8968
-16.1888
10.4453
-16.8027
12.2235
12.1015
-52.3639
-52.3988
-72.5159
-68.567
-72.4931
-68.5284
-75.0474
-75.0348
-65.0673
-65.05
-35.0673
-32.933
-33.0209
-31.4352
-35.2788
-35.5842
-32.3284
-31.3078
-42.5184
-41.1306
-46.2626
-46.0698
-45.7328
-44.4524
-41.6675
-44.2607
-41.7643
-43.555
-46.6048
-47.3595
-45.0048
-42.524
-43.429
-45.2397
-56.9112
-63.3372
-55.8978
-62.3488
-54.4518
-54.6807
-66.2258
-69.7113
-73.7265
-71.9481
-66.0072
-54.6521
-52.8998
-63.4005
-50.5868
-49.8337
-71.1104
-69.0486
-64.2755
-52.2084
-60.8759
-50.8418
-48.6345
-49.3591
-72.1031
-72.0272
-66.2716
-58.3283
-66.0937
-58.2114
-55.5428
-55.5824
-43.009
-43.0663
-31.5499
-15.9379
-15.8213