# vtk DataFile Version 2.0
tet_velo
ASCII
DATASET UNSTRUCTURED_GRID
POINTS 29498 float
-0.735 0.135 -1.81369
-0.820509 0.145 1.715
-0.745992 0.555 -1.655
-0.735 0.717504 1.785
0.735 0.135 -1.81372
0.82051 0.145 1.715
0.745997 0.555 -1.655
0.735 0.71752 1.785
-0.762607 0.139229 -0.63746
-0.794552 0.139121 0.53877
-0.863694 0.730534 -0.508333
-0.858377 0.783049 0.638333
0.762601 0.139236 -0.63748
0.794819 0.138855 0.53876
0.863765 0.730607 -0.508333
0.858354 0.783035 0.638333
-1.54201 -0.189876 -2.80539
-1.53832 -0.137176 -1.87624
-1.56219 -0.131129 -0.699246
-1.58026 -0.14714 0.483699
-1.58639 -0.153329 1.66119
-1.59377 -0.154715 2.59279
-1.60144 -0.151495 3.51985
-1.53946 0.0624609 -2.73666
-1.54019 0.133566 -1.81075
-1.57927 0.160185 -0.639508
-1.59288 0.151933 0.534394
-1.58294 0.138498 1.7062
-1.59485 0.13634 2.63738
-1.606 0.140329 3.56541
-1.54705 0.544934 -2.59093
-1.56415 0.614195 -1.66379
-1.65049 0.741093 -0.512707
-1.64082 0.776673 0.636285
-1.55366 0.731717 1.78794
-1.58315 0.727111 2.72034
-1.61144 0.734035 3.65313
-1.56422 1.38986 -2.39455
-1.58083 1.47124 -1.47184
-1.62378 1.59731 -0.33034
-1.64807 1.67104 0.804788
-1.63959 1.67177 1.9466
-1.63494 1.66009 2.86995
-1.64051 1.65683 3.79951
-0.763235 -0.190933 -2.8073
-0.750131 -0.135739 -1.87903
-0.764382 -0.141782 -0.698878
-0.782275 -0.15666 0.487433
-0.796724 -0.15316 1.66773
-0.805879 -0.156595 2.59723
-0.812015 -0.155125 3.52241
-0.759759 0.0550745 -2.73726
-0.815932 0.134401 2.64104
-0.819953 0.136177 3.56734
-0.761514 0.517533 -2.58727
-0.803573 0.719646 2.71976
-0.827713 0.728227 3.65301
-0.763521 1.37172 -2.39094
-0.769841 1.45458 -1.46786
-0.806642 1.59304 -0.327942
-0.839955 1.6739 0.804498
-0.845142 1.67092 1.94454
-0.84427 1.65675 2.8679
-0.849881 1.65323 3.79802
0.761238 -0.190932 -2.80732
0.757216 -0.135739 -1.87905
0.778289 -0.141808 -0.698896
0.805756 -0.156838 0.487423
0.819165 -0.153227 1.66772
0.791043 -0.156645 2.59722
0.77489 -0.155178 3.52241
0.75427 0.0550773 -2.73728
0.772372 0.13437 2.64104
0.761163 0.136132 3.56734
0.765917 0.517539 -2.58728
0.739785 0.719628 2.71975
0.741158 0.72819 3.653
0.823953 1.37173 -2.39094
0.837205 1.45459 -1.46787
0.834163 1.59305 -0.327947
0.79638 1.67388 0.804494
0.753882 1.6709 1.94454
0.73938 1.65672 2.86789
0.733052 1.65319 3.79801
1.53766 -0.189874 -2.80542
1.53766 -0.137174 -1.87628
1.56996 -0.131186 -0.699276
1.60131 -0.147384 0.48368
1.60807 -0.153497 1.66119
1.5884 -0.154834 2.59279
1.57188 -0.151606 3.51984
1.53109 0.0624695 -2.7367
1.53191 0.133584 -1.81079
1.5765 0.160169 -0.639537
1.60148 0.151675 0.534377
1.59299 0.138357 1.70619
1.57121 0.136244 2.63738
1.55803 0.14023 3.5654
1.54911 0.544951 -2.59095
1.56182 0.614228 -1.66381
1.64822 0.741146 -0.51272
1.64159 0.776583 0.636277
1.55035 0.731636 1.78793
1.53658 0.727042 2.72034
1.53571 0.733952 3.65313
1.61598 1.38988 -2.39456
1.63371 1.47126 -1.47185
1.64358 1.59732 -0.330351
1.61194 1.67101 0.804779
1.56207 1.67171 1.94659
1.53959 1.66003 2.86995
1.53007 1.65676 3.79951
-0.764654 0.345 -1.7585
0 0.121412 -1.82729
-0.7611 0.124818 -1.22558
-0.820442 0.431252 1.79269
5.06639e-07 0.146701 1.7133
-0.799838 0.149752 1.12689
2.5034e-06 0.618907 -1.71891
-0.850104 0.688028 -1.08167
0 0.748661 1.81615
-0.829399 0.782987 1.21167
0.764677 0.345 -1.75854
0.761101 0.124818 -1.2256
0.820399 0.43126 1.79264
0.799796 0.149796 1.12688
0.850124 0.688047 -1.08167
0.829385 0.782985 1.21167
-0.778145 0.139609 -0.049345
-0.852008 0.434882 -0.572897
-3.35956e-06 0.132225 -0.63747
-0.876098 0.461085 0.588552
0.000133401 0.133428 0.538765
-0.859532 0.755288 0.065
3.526e-05 0.960795 -0.508333
-1.15409e-05 0.841093 0.638333
0.778085 0.13967 -0.04936
0.852016 0.434921 -0.572907
0.876071 0.460945 0.588547
0.859525 0.755287 0.065
-0.878277 0.389941 -1.15362
-0.829665 0.447983 0.00782752
-0.870724 0.446168 1.16928
-1.67978e-06 0.123418 -1.22559
6.50208e-05 0.133687 -0.0493525
6.69539e-05 0.141586 1.12688
1.2517e-06 0.345 -2.12938
2.5332e-07 0.431256 2.12306
1.88817e-05 0.762667 -1.08167
1.18595e-05 1.09174 0.065
-5.77045e-06 0.823924 1.21167
0.878267 0.389961 -1.15363
0.829654 0.447933 0.00782001
0.870726 0.446102 1.16927
-1.1376 0.134283 -1.81222
-0.742566 -0.000369584 -1.84636
-0.74738 0.0950373 -2.27547
-1.20172 0.141749 1.7106
-0.808616 -0.00407983 1.69136
-0.818221 0.139701 2.17802
-1.15507 0.584597 -1.6594
-0.753753 0.536266 -2.12114
-0.757917 1.00479 -1.56143
-1.14433 0.724611 1.78647
-0.769287 0.718575 2.25238
-0.790071 1.19421 1.86477
0.746108 -0.000369513 -1.84639
0.744635 0.0950386 -2.2755
1.13345 0.134292 -1.81225
0.819838 -0.00411374 1.69136
0.796441 0.139685 2.17802
1.20675 0.141679 1.7106
0.755957 0.536269 -2.12114
0.791601 1.0048 -1.56143
1.15391 0.584614 -1.65941
0.737392 0.718574 2.25238
0.744441 1.19421 1.86477
1.14267 0.724578 1.78647
-1.17094 0.149707 -0.638484
-0.763495 -0.00127672 -0.668169
-1.19372 0.145527 0.536582
-0.788414 -0.00876973 0.513102
-1.25709 0.735814 -0.51052
-0.835168 1.16179 -0.418138
-1.2496 0.779861 0.637309
-0.849166 1.22847 0.721416
0.770445 -0.0012861 -0.668188
1.16955 0.149703 -0.638509
0.800287 -0.0089917 0.513092
1.19815 0.145265 0.536569
0.848964 1.16183 -0.41814
1.25599 0.735877 -0.510527
0.827367 1.22846 0.721414
1.24997 0.779809 0.637305
-1.54016 -0.163526 -2.34081
-1.54073 -0.0637073 -2.77103
-1.15262 -0.190404 -2.80634
-1.55025 -0.134152 -1.28774
-1.53926 -0.00180474 -1.8435
-1.14423 -0.136458 -1.87764
-1.57122 -0.139134 -0.107773
-1.57073 0.0145277 -0.669377
-1.16329 -0.136456 -0.699062
-1.58332 -0.150234 1.07245
-1.58657 0.00239669 0.509046
-1.18127 -0.1519 0.485566
-1.59008 -0.154022 2.12699
-1.58466 -0.00741548 1.6837
-1.19156 -0.153244 1.66446
-1.5976 -0.153105 3.05632
-1.59431 -0.00918758 2.61509
-1.19982 -0.155655 2.59501
-1.60372 -0.00558327 3.54263
-1.20673 -0.15331 3.52113
-1.53983 0.0980136 -2.27371
-1.54326 0.303698 -2.6638
-1.14961 0.0587677 -2.73696
-1.55973 0.146875 -1.22513
-1.55217 0.37388 -1.73727
-1.58608 0.156059 -0.0525571
-1.61488 0.450639 -0.576108
-1.58791 0.145216 1.1203
-1.61685 0.464303 0.585339
-1.5889 0.137419 2.17179
-1.5683 0.435108 1.74707
-1.60042 0.138334 3.10139
-1.589 0.431725 2.67886
-1.20539 0.135371 2.63921
-1.60872 0.437182 3.60927
-1.21297 0.138253 3.56637
-1.5556 0.579565 -2.12736
-1.55563 0.967399 -2.49274
-1.15428 0.531234 -2.5891
-1.60732 0.677644 -1.08825
-1.57249 1.04272 -1.56782
-1.64565 0.758883 0.0617889
-1.63713 1.1692 -0.421524
-1.59724 0.754195 1.21211
-1.64444 1.22386 0.720537
-1.56841 0.729414 2.25414
-1.59663 1.20174 1.86727
-1.5973 0.730573 3.18674
-1.60905 1.1936 2.79515
-1.19336 0.723378 2.72005
-1.62597 1.19543 3.72632
-1.21958 0.731131 3.65307
-1.57252 1.43055 -1.93319
-1.16387 1.38079 -2.39274
-1.60231 1.53428 -0.901091
-1.17534 1.46291 -1.46985
-1.63592 1.63417 0.237224
-1.21521 1.59517 -0.329141
-1.64383 1.6714 1.37569
-1.24401 1.67247 0.804643
-1.63727 1.66593 2.40828
-1.24237 1.67134 1.94557
-1.63772 1.65846 3.33473
-1.23961 1.65842 2.86893
-1.24519 1.65503 3.79877
-0.756683 -0.163336 -2.34317
-0.761497 -0.0679292 -2.77228
-0.000998668 -0.190933 -2.80731
-0.757257 -0.138761 -1.28895
0.00354268 -0.135739 -1.87904
-0.773329 -0.149221 -0.105722
0.0069535 -0.141795 -0.698887
-0.789499 -0.15491 1.07758
0.0117405 -0.156749 0.487428
-0.801301 -0.154877 2.13248
0.0112207 -0.153194 1.66773
-0.808947 -0.15586 3.05982
-0.810906 -0.011097 2.61913
-0.00741812 -0.15662 2.59722
-0.815984 -0.00947428 3.54488
-0.0185625 -0.155152 3.52241
-0.760637 0.286304 -2.66227
-0.00274483 0.0550759 -2.73727
-0.817943 0.135289 3.10419
-0.809753 0.427023 2.6804
-0.02178 0.134386 2.64104
-0.823833 0.432202 3.61017
-0.029395 0.136154 3.56734
-0.762517 0.944625 -2.48911
0.00220165 0.517536 -2.58728
-0.815643 0.723936 3.18638
-0.823922 1.1882 2.79383
-0.0318941 0.719637 2.71975
-0.838797 1.19073 3.72551
-0.0432776 0.728209 3.653
-0.766681 1.41315 -1.9294
0.0302162 1.37172 -2.39094
-0.788242 1.52381 -0.897902
0.0336819 1.45458 -1.46786
-0.823299 1.63347 0.238278
0.0137605 1.59304 -0.327944
-0.842549 1.67241 1.37452
-0.0217878 1.67389 0.804496
-0.844706 1.66384 2.40622
-0.0456301 1.67091 1.94454
-0.847076 1.65499 3.33296
-0.0524453 1.65674 2.8679
-0.0584142 1.65321 3.79802
0.759227 -0.163336 -2.34319
0.757754 -0.0679274 -2.7723
1.14945 -0.190403 -2.80637
0.767753 -0.138774 -1.28898
1.14744 -0.136457 -1.87767
0.792023 -0.149323 -0.105736
1.17412 -0.136497 -0.699086
0.812461 -0.155033 1.07757
1.20354 -0.152111 0.485552
0.805104 -0.154936 2.13247
1.21362 -0.153362 1.66445
0.782966 -0.155912 3.05982
0.781707 -0.0111375 2.61913
1.18972 -0.15574 2.595
0.768027 -0.0095232 3.54487
1.17338 -0.153392 3.52113
0.760093 0.286308 -2.66228
1.14268 0.0587734 -2.73699
0.766768 0.135251 3.10419
0.756079 0.426999 2.68039
1.17179 0.135307 2.63921
0.75116 0.432161 3.61017
1.1596 0.138181 3.56637
0.794935 0.944632 -2.48911
1.15751 0.531245 -2.58912
0.740471 0.723909 3.18638
0.739582 1.18817 2.79382
1.13818 0.723335 2.72005
0.737105 1.19069 3.72551
1.13844 0.731071 3.65306
0.830579 1.41316 -1.9294
1.21997 1.3808 -2.39275
0.835684 1.52382 -0.897907
1.23546 1.46293 -1.46986
0.815271 1.63347 0.238274
1.23887 1.59518 -0.329149
0.775131 1.67239 1.37452
1.20416 1.67245 0.804637
0.746631 1.66381 2.40621
1.15798 1.6713 1.94556
0.736216 1.65496 3.33295
1.13949 1.65837 2.86892
1.13156 1.65497 3.79876
1.53766 -0.163524 -2.34085
1.53437 -0.0637024 -2.77106
1.55381 -0.13418 -1.28778
1.53478 -0.00179486 -1.84353
1.58564 -0.139285 -0.107798
1.57323 0.0144917 -0.669407
1.60469 -0.150441 1.07243
1.6014 0.00214551 0.509029
1.59823 -0.154165 2.12699
1.60053 -0.0075697 1.68369
1.58014 -0.15322 3.05631
1.57981 -0.00929516 2.61508
1.56495 -0.00568835 3.54262
1.5315 0.0980269 -2.27374
1.5401 0.30371 -2.66382
1.5542 0.146877 -1.22516
1.54686 0.373906 -1.7373
1.58899 0.155922 -0.05258
1.61236 0.450658 -0.576129
1.59723 0.145016 1.12029
1.62154 0.464129 0.585327
1.5821 0.137301 2.17179
1.57167 0.434997 1.74706
1.56462 0.138237 3.10139
1.55389 0.431643 2.67886
1.54687 0.437091 3.60926
1.55546 0.57959 -2.12738
[...]
POINT_DATA 29498
VECTORS point_vectors float
-1.46067 -3.79226 9.06419
0.0523123 0.521686 4.05906
-0.828243 0.317283 1.3285
0.0696989 -0.220529 0.447957
1.47259 -3.78833 9.07598
-0.0674548 0.504952 4.11563
0.926389 0.36701 1.44669
-0.0707461 -0.219795 0.449389
-0.000284713 0.000141473 0.00420195
-0.0599438 0.052473 1.44144
-0.202665 -0.0668142 0.799927
0.067172 0.175113 0.550917
0.00031166 0.00012539 0.00459865
0.062961 0.0546925 1.47282
0.205307 -0.0676757 0.809326
-0.0660938 0.174433 0.549758
-0.586797 -0.249509 19.8592
-1.09656 -0.548808 20.3454
-0.528031 -0.400638 21.1375
-0.0382463 -0.132478 21.2061
0.365062 0.108301 21.226
0.638784 0.225753 20.9546
0.618316 0.227364 20.8449
-0.737869 -0.192068 19.8012
-1.45573 -0.442008 20.3442
-0.663818 -0.393806 21.1992
-0.085796 -0.188384 21.2618
0.469964 0.0258369 21.2742
0.742331 0.100056 21.0161
0.744266 0.0618842 21.0874
-0.890172 0.0542108 19.7449
-1.57679 0.0488636 20.4336
-0.893988 -0.153292 21.1704
-0.228215 -0.167894 21.3452
0.520741 -0.241454 21.3355
0.762238 -0.285928 20.9651
0.711938 -0.286269 21.3585
-0.675812 0.420938 19.9848
-0.892155 0.537744 20.4821
-0.669463 0.316454 21.0312
-0.179436 -0.00712998 21.2142
0.167808 -0.262319 21.1194
0.285323 -0.340728 20.9067
0.334214 -0.343423 20.6021
-0.652026 -0.62837 19.2512
-1.84551 -3.34217 20.5236
-0.0724664 -0.318922 20.9618
-0.039572 0.086386 19.8003
0.21061 0.724667 19.8026
0.558651 1.16969 19.659
0.702704 1.03612 19.9722
-0.916158 -0.570568 18.8428
0.845962 1.39833 13.1438
1.31789 1.0426 15.2334
-1.37425 0.267034 18.2925
1.44308 -0.549998 10.2638
1.49852 -0.778916 14.1711
-0.772185 1.0816 19.4419
-1.18194 1.74396 20.2848
-1.05562 1.24023 21.3792
-0.230335 0.0848758 21.5722
0.105167 -0.461496 21.2386
0.249294 -0.671117 20.9118
0.203704 -0.68205 20.529
0.648874 -0.62344 19.255
1.86083 -3.28199 20.5028
0.0722464 -0.32466 20.9716
0.0236781 0.083718 19.9705
-0.241606 0.71791 19.9846
-0.531919 1.17251 19.5896
-0.631982 1.0827 19.6256
0.916714 -0.572185 18.8322
-0.657393 1.38712 12.0677
-1.24185 1.10959 14.6596
1.37631 0.264509 18.3008
-1.25935 -0.675421 8.28845
-1.57858 -0.775398 12.1871
0.789331 1.04916 19.4688
1.21731 1.60689 20.3106
1.05863 1.18723 21.3704
0.227578 0.0912771 21.5989
-0.0800564 -0.477897 21.2687
-0.222398 -0.699756 20.9464
-0.129256 -0.743209 20.5687
0.588621 -0.252232 19.8565
1.09887 -0.54964 20.3453
0.527572 -0.39982 21.1335
0.0439508 -0.137473 21.2013
-0.359562 0.0956339 21.2275
-0.650813 0.226865 20.9409
-0.630536 0.233474 20.8136
0.74356 -0.195199 19.794
1.4752 -0.448563 20.341
0.666175 -0.395738 21.2006
0.0861701 -0.186994 21.2589
-0.462655 0.026843 21.2719
-0.761264 0.112697 21.0119
-0.760456 0.0797023 21.145
0.888921 0.0536158 19.7462
1.58095 0.0498228 20.432
0.895641 -0.154147 21.1718
0.22666 -0.169103 21.3431
-0.522687 -0.241246 21.3368
-0.805897 -0.31261 20.951
-0.723876 -0.290466 21.327
0.648724 0.391727 20.0138
0.857973 0.507586 20.4839
0.657472 0.305255 21.0241
0.183003 -0.00783027 21.2189
-0.169254 -0.277215 21.1166
-0.291285 -0.348821 20.9518
-0.342542 -0.365506 20.66
-0.500169 -0.104067 0.697204
-0.00021686 -0.0122465 0.203788
-0.00898812 0.000819833 0.149325
0.0187875 0.000247579 0.0686297
-5.81267e-05 0.00613951 0.0678235
-0.0102357 0.0137971 0.349056
2.61224e-07 0.010993 0.0263856
-0.317041 -0.166119 1.60571
-0.000100372 0.00604614 -0.0178999
0.0626636 0.0211472 0.435488
0.502365 -0.104381 0.698895
0.00883734 0.000815678 0.149109
-0.0183268 0.000473216 0.0665973
0.0109248 0.0148441 0.360395
0.323039 -0.17442 1.64152
-0.0629126 0.0213613 0.435229
-0.00997728 0.00631357 0.200979
0 0 0
0 0 0
-0.000723786 0.00500784 0.060655
-2.30789e-05 0.000127783 0.0211024
0.114861 0.20968 1.28413
5.24525e-07 0.000765003 0.00182426
0 0 0
0.00987011 0.00629206 0.198898
0 0 0
0.000660688 0.00470848 0.0594541
-0.114584 0.20925 1.28499
-0.00114742 -0.000822073 0.018512
0 0 0
0 0 0
3.2385e-07 -1.2365e-06 -8.26639e-05
-5.31408e-08 -1.01083e-07 0.000192204
0 0 0
2.00701e-06 -0.298286 0.640735
-0.00138279 -0.073774 -0.0176068
5.02169e-05 0.00204948 0.0178451
8.71191e-09 0.00065792 0.0163136
1.54251e-06 8.97052e-05 -0.00268265
0.00117735 -0.000840121 0.0190166
0 0 0
0 0 0
-2.85583 -1.3792 20.201
-2.83353 -5.30478 20.7909
-2.3834 -1.78128 17.8032
0.805008 0.307022 20.8507
0.14545 0.844878 15.4591
0.564406 1.28332 10.346
-3.43981 0.366799 20.3251
-3.84841 1.52293 16.7843
-2.48528 2.93815 20.1306
1.07725 -0.201763 19.289
0.601921 -0.685605 6.1586
0.331199 -0.809835 20.4032
2.86741 -5.24167 20.7638
2.3876 -1.78889 17.7877
2.88996 -1.39622 20.1881
-0.166681 0.854812 15.6968
-0.46088 1.25362 9.48112
-0.794103 0.290065 20.887
3.848 1.50373 16.8053
2.52038 2.73952 20.1539
3.44566 0.36871 20.3208
-0.375791 -0.75012 5.15246
-0.350952 -0.799195 19.835
-1.0795 -0.19 19.2392
-0.518893 -0.84343 21.6503
-0.126472 0.158678 14.5771
0.0579416 -0.255102 20.7784
-0.185738 0.213949 14.2259
-1.46152 -0.448825 21.5566
-2.48381 1.45498 21.6626
-0.381728 -0.296273 21.4336
-0.371368 0.0149599 21.9245
0.120932 0.151569 14.7028
0.51786 -0.844703 21.6423
0.183996 0.230799 14.4762
-0.05715 -0.258153 20.821
2.44191 1.3876 21.652
1.46373 -0.451539 21.56
0.373825 0.0132674 21.9418
0.379774 -0.29962 21.4396
-0.87847 -0.403702 20.0087
-0.674786 -0.225569 19.8303
-0.681008 -0.399862 19.5868
-0.922234 -0.541788 20.9172
-1.27587 -0.523696 20.3555
-1.68222 -1.36892 20.3011
-0.228964 -0.251081 21.1962
-0.604961 -0.411508 21.1531
-0.381643 -0.620713 21.4333
0.146504 -0.0132324 21.2703
-0.0691903 -0.170973 21.224
0.0502055 -0.151022 21.3234
0.534384 0.187623 21.1191
0.405931 0.0666741 21.2284
0.49834 0.339827 21.3294
0.667343 0.200844 20.8452
0.683709 0.170959 20.9836
0.822903 0.60648 20.7549
0.71157 0.174978 20.9013
0.881543 0.601001 20.3799
-1.1395 -0.320404 19.9327
-0.84303 -0.0740653 19.7489
-0.889208 -0.342861 19.4249
-1.17176 -0.475495 20.9786
-1.60225 -0.212872 20.377
-0.317061 -0.291496 21.2298
-0.805293 -0.31253 21.2038
0.163439 -0.0740874 21.3277
-0.181466 -0.205845 21.3196
0.656618 0.0828891 21.1324
0.520381 -0.0990308 21.3351
0.78588 0.112088 20.6946
0.823127 -0.0932434 20.9623
1.22884 0.486883 20.609
0.765144 -0.146207 21.6089
1.14999 0.375302 20.3977
-1.35071 0.0688393 19.9519
-0.85171 0.288272 19.8246
-1.21857 0.113871 19.2029
-1.28001 -0.0689287 20.9644
-1.31624 0.425225 20.4503
-0.556136 -0.191132 21.2912
-0.873038 0.141557 21.1096
0.148049 -0.184694 21.389
-0.219979 -0.0710857 21.3164
0.688128 -0.27714 21.1062
0.322687 -0.314194 21.1706
0.796993 -0.259543 20.5628
0.496736 -0.419394 20.8356
1.26684 -0.430422 20.1836
0.484214 -0.38929 20.5801
1.17378 -0.298977 19.5593
-0.840356 0.523792 20.1863
-0.777803 0.675203 19.7517
-0.837973 0.455576 20.7939
-1.17503 1.02661 20.4058
-0.426519 0.148282 21.1786
-0.895712 0.610709 21.1833
0.0270026 -0.151723 21.1461
-0.21852 0.0225109 21.3835
0.235443 -0.324607 20.9424
0.155205 -0.377612 21.1105
0.336654 -0.35571 20.7649
0.320765 -0.519603 20.8672
0.239263 -0.440192 20.9734
-1.33042 -1.59742 19.0282
-0.772483 -0.627146 19.0713
-0.00231112 -0.933576 18.7737
-0.428102 -1.36839 22.1515
0.00335806 -4.5645 21.8195
-0.0573427 -0.0155482 20.1357
0.000472883 -0.259437 18.8194
0.0471928 0.254448 19.6666
0.00253514 -0.0355371 17.3158
0.397071 1.10277 19.8168
0.00329187 0.429104 17.0281
0.698374 1.15834 19.8814
0.656015 1.38544 17.0424
-0.0061123 0.736702 17.0083
0.891715 1.19284 18.0106
0.0260475 1.05489 15.8986
-1.19261 -0.280894 18.4547
-0.00695887 -0.896887 17.959
1.16732 1.45103 14.3961
1.41839 0.503121 8.08279
-0.0705079 0.0771858 3.24111
1.7241 0.556992 12.5631
0.032044 0.646368 7.78285
-1.1361 1.01238 18.7852
0.00481324 0.660841 16.7437
1.9488 -0.752946 13.0884
0.562976 -1.02433 20.3249
0.122527 0.225971 -2.85757
0.630625 -0.890039 20.5078
0.214469 -0.518752 1.46311
-1.01661 1.57717 19.7496
0.0379542 1.54107 19.1073
-1.21994 1.56362 20.8069
0.0799435 2.55472 20.0977
-0.615922 0.601286 21.6633
0.0255513 2.37774 21.59
-0.0153494 -0.247755 21.398
-0.00968277 0.248341 21.8331
0.176712 -0.584393 21.0662
-0.00474668 -0.440063 21.4405
0.315942 -0.663367 20.6537
0.0156706 -0.73055 21.0742
-0.0013578 -0.79786 21.1175
1.33003 -1.58947 19.0354
0.771118 -0.627704 19.0684
0.681913 -0.402531 19.586
0.445754 -1.36335 22.1271
1.68205 -1.35988 20.2981
0.0473689 -0.0223805 20.2071
0.388596 -0.61237 21.4232
-0.0547675 0.264898 19.7466
-0.0458936 -0.151358 21.3279
-0.405382 1.0991 19.8374
-0.493821 0.315544 21.3327
-0.661111 1.19721 19.5556
-0.562438 1.41969 16.7145
-0.82362 0.622042 20.7136
-0.826196 1.25079 17.5486
-0.912651 0.647278 20.3004
1.19477 -0.280573 18.4518
0.893655 -0.348396 19.4151
-1.06955 1.57809 13.7878
-1.25077 0.45902 6.22867
-1.27347 0.547906 20.4645
-1.78093 0.648161 10.8601
-1.19295 0.469773 20.278
1.14813 0.954809 18.8535
1.21695 0.113258 19.2076
-1.85454 -0.791434 10.7014
-0.577296 -1.03661 19.4658
-1.38114 -0.423996 19.5086
-0.62391 -0.982936 19.2617
-1.25553 -0.249005 19.0022
1.05004 1.47671 19.7873
0.780741 0.631997 19.7852
1.24429 1.46421 20.8143
1.1485 0.932042 20.4231
0.616679 0.606835 21.6704
0.882033 0.584937 21.1772
0.0186458 -0.254896 21.416
0.224084 0.0308885 21.4034
-0.14628 -0.603494 21.0978
-0.145102 -0.401429 21.1304
-0.272808 -0.723584 20.6382
-0.295614 -0.559488 20.8646
-0.25622 -0.517492 20.7325
0.88132 -0.405204 20.0076
0.677556 -0.229092 19.8265
0.921765 -0.541085 20.9154
1.28459 -0.528506 20.3548
0.231006 -0.252309 21.1962
0.605623 -0.410578 21.1506
-0.141013 -0.0218125 21.2646
0.0723165 -0.171341 21.2217
-0.533592 0.183146 21.1148
-0.400635 0.0629253 21.2338
-0.676144 0.202472 20.8521
-0.692857 0.188633 20.9851
-0.724083 0.186279 20.9353
1.15417 -0.324146 19.9251
0.845136 -0.0760528 19.7458
1.18142 -0.480477 20.9823
1.61376 -0.216354 20.375
0.31698 -0.290573 21.2315
0.806895 -0.313321 21.2044
-0.162294 -0.0770828 21.3153
0.178582 -0.205177 21.3189
-0.657444 0.0859482 21.1281
-0.515951 -0.100269 21.3301
-0.827891 0.118686 20.7301
-0.854754 -0.0811836 20.955
-0.805537 -0.138749 21.6821
1.35101 0.0689467 19.9512
0.820728 0.278987 19.8475
1.28295 -0.0692001 20.966
1.28591 0.412085 20.453
0.555154 -0.191851 21.2931
0.86446 0.140292 21.1069
-0.149002 -0.185792 21.388
0.223379 -0.0762083 21.3236
-0.702697 -0.283918 21.1008
-0.326002 -0.332851 21.1671
-0.842199 -0.287222 20.6603
-0.511982 -0.461885 20.8762
-0.488233 -0.387438 20.5325
0.792523 0.475351 20.2059
0.811975 0.428947 20.7905
0.429097 0.149618 21.1827
-0.02395 -0.155353 21.1692
-0.237825 -0.33892 20.976
-0.338665 -0.381615 20.7171
-1.02046 -0.388586 19.9746
-1.78881 -1.7572 18.5154
-1.18798 -0.820449 19.6561
-1.7691 -0.763644 19.3418
-0.789465 -0.388723 19.495
-2.22668 -1.47125 20.2601
-1.05112 -0.528836 20.9402
-0.0565403 -0.648152 17.6727
-1.04842 -1.15506 21.3379
-1.64075 -1.30811 21.6775
-0.417896 -0.728764 21.5828
-0.280057 -0.283215 21.2055
-0.251983 0.212035 13.9659
-0.0913773 -0.313972 21.3561
-0.0844577 -0.475984 21.0537
0.0797802 -0.191423 21.1371
0.145539 -0.0519883 21.2935
-0.0119618 0.257865 14.3505
0.2063 0.0421389 21.3511
0.262659 0.013532 20.7257
0.648858 0.352616 21.1562
0.592476 0.143993 21.1164
0.428016 1.33697 16.1535
0.714878 0.517612 21.1646
1.12464 0.458445 20.5724
0.990376 0.562329 20.7023
0.761343 0.183252 20.8299
0.74759 1.44652 17.7703
0.873938 0.614188 20.6227
1.1437 0.465162 20.6034
1.0108 0.65674 20.3843
-1.31762 -0.127808 19.9061
-3.5397 -0.61134 16.654
-2.37242 0.298951 19.2034
-1.06862 -0.15819 19.2923
-3.53696 -0.559265 20.2244
-1.2867 -0.289949 20.993
-2.22622 -0.147121 21.374
-0.994898 -0.83748 21.8201
-0.447996 -0.283636 21.2767
-0.857123 -0.472006 21.5725
-0.157371 -0.387926 20.924
0.15669 -0.139444 21.3805
0.296322 -0.231457 20.8005
1.04485 0.15926 19.8229
0.738416 -0.0893785 21.1059
0.59833 0.0910136 3.88932
1.23455 -0.370349 19.5215
1.45384 0.0801117 20.0743
0.89346 -0.0684882 20.5323
1.79747 0.754407 10.6391
1.25444 -0.40003 19.9761
1.35066 0.0677506 18.908
-1.13425 0.415378 20.034
-1.99082 2.20338 18.8545
-1.06624 0.952094 19.9988
-1.07649 0.561493 19.4175
-2.06786 1.1354 20.3535
-1.16465 0.291159 20.8591
-2.44995 1.86879 20.9033
-1.09844 0.858186 20.8245
-1.4501 0.382065 21.3441
-0.554169 0.0224028 21.266
-1.34128 0.642982 22.1784
-0.548776 0.304671 21.3739
-0.340308 -0.0478594 21.5906
0.0759585 -0.195346 21.2857
0.085953 -0.480072 21.4079
0.0164663 -0.21093 21.3154
0.367698 -0.566982 21.3418
0.428421 -0.384007 21.0346
0.421948 -0.91286 20.2102
0.258437 -0.439705 21.028
0.616068 -0.712203 20.8868
0.467418 -0.455917 20.8226
0.559269 -1.01227 20.5231
0.347342 -0.547428 20.6339
0.69005 -0.618522 20.6143
1.78972 -1.75431 18.5151
0.00158637 -2.96254 18.1869
-0.00875821 -4.21333 14.9184
-0.00413549 -0.958618 18.4199
-0.0011741 -4.3207 21.4086
0.0504098 -0.667471 17.8709
-0.000419915 -1.02072 21.31
0.00301782 0.0839355 9.65878
0.249213 0.220347 14.139
0.00110763 -0.108044 17.7137
0.00219655 0.0215375 9.64178
0.0333269 0.286894 14.595
0.00239262 0.127038 17.0459
0.00122245 0.326277 10.0611
-0.405234 1.33943 16.0027
-0.000220619 0.64225 17.1399
-0.0673542 -0.3696 2.08451
-0.0152891 0.540654 11.4204
-0.685299 1.54628 17.3165
-0.021514 0.98083 16.3622
-0.00388666 0.362221 5.33013
0.0375324 1.03674 12.6019
3.53999 -0.609038 16.6536
0.010045 5.93464 13.1572
3.67735e-05 -0.460729 17.0972
-0.418147 0.0332265 3.08595
-0.0708408 1.0351 -2.29273
0.0668081 -0.341101 -4.00073
-1.7064 0.762679 8.42802
0.152519 -0.381398 -1.23965
0.0303603 -0.291554 -1.42247
2.00786 2.06052 18.9356
0.058748 2.28241 19.4722
0.040533 1.70515 17.9677
0.0612803 4.53808 19.8064
2.44134 1.78676 20.9197
0.060208 2.61658 20.6121
0.0331928 5.11283 21.2178
1.34544 0.649243 22.1735
-0.00499696 1.16052 22.0972
-0.0161655 0.0646036 14.7529
-0.124475 -0.464609 21.1096
-0.00487731 -0.218968 21.4715
-0.0043273 -0.4331 11.892
-0.430006 -0.906314 19.4925
0.00097206 -0.604413 21.3357
0.00699031 -0.75995 12.9065
-0.54689 -1.08116 19.284
0.0268156 -0.73695 20.8821
0.0292726 -0.812038 13.9739
1.02645 -0.391784 19.972
1.18976 -0.822335 19.6556
1.77813 -0.773078 19.3281
0.79323 -0.393936 19.4881
2.23151 -1.47399 20.2568
1.05396 -0.531083 20.9405
1.05176 -1.14542 21.3288
1.64846 -1.31883 21.6866
0.426211 -0.723838 21.5764
0.279512 -0.280004 21.2085
0.0991565 -0.312458 21.3496
0.0879575 -0.477034 21.067
-0.0718246 -0.194356 21.1797
-0.144222 -0.0566614 21.2819
-0.209929 0.0407185 21.3611
-0.274061 0.00820671 20.7632
-0.638145 0.326933 21.2025
-0.58914 0.146487 21.1144
-0.711507 0.506859 21.1642
-1.13718 0.475294 20.5169
-0.989565 0.610405 20.6119
-0.784127 0.19539 20.8488
-0.886184 0.636729 20.599
-1.16322 0.531697 20.5424
-1.04801 0.72818 20.2747
1.3245 -0.129559 19.9021
2.36847 0.298132 19.2052
1.07177 -0.159329 19.2869
3.56352 -0.56498 20.2167
1.29239 -0.292872 20.9957
2.22875 -0.146156 21.3766
0.995697 -0.841493 21.8236
0.447285 -0.283744 21.2761
0.856748 -0.474054 21.5732
0.155431 -0.390807 20.9581
-0.158358 -0.14061 21.3759
-0.298501 -0.233619 20.788
-1.03474 0.15438 19.8572
-0.749074 -0.088127 21.0998
-1.2882 -0.340202 19.0578
-1.50647 0.140261 19.632
-0.942355 -0.0719341 20.6248
-1.35454 -0.320315 19.2508
-1.45664 0.125861 18.222
1.11077 0.401316 20.0493
1.03821 0.865731 20.0441
1.06918 0.538023 19.4492
2.01429 1.05911 20.3561
1.1461 0.284516 20.8564
1.08294 0.794609 20.8269
1.42585 0.367904 21.3366
0.556749 0.0215013 21.2689
0.550444 0.309553 21.3785
0.348744 -0.0437911 21.6113
-0.0727334 -0.206127 21.3017
-0.00938697 -0.218595 21.3323
-0.361664 -0.594342 21.3673
-0.436292 -0.404146 21.0421
-0.236226 -0.476595 21.0432
-0.617278 -0.785869 20.8561
-0.490642 -0.49767 20.7533
-0.336229 -0.576843 20.7754
-0.708972 -0.672222 20.6292
-1.46166 -0.829007 19.4828
-1.28564 -1.27011 21.4893
-0.0620067 -0.392782 21.3099
0.251441 0.0185953 21.1729
0.919476 0.494528 20.9667
1.07103 0.629134 20.4303
-2.19636 -0.281323 19.1378
-2.11444 -0.776318 21.7207
-0.39625 -0.656184 21.1803
0.314191 -0.0516982 20.4726
1.36557 0.103749 19.9207
1.49001 -0.00307562 19.8038
-1.69978 0.985211 19.6374
-1.79345 0.694331 20.9748
-0.897611 0.141497 21.5739
0.0853228 -0.301598 21.5072
0.505863 -0.661216 21.1275
0.579624 -0.715663 20.5291
-0.00172973 -3.68271 16.9407
0.00116396 -0.105765 11.7323
0.00254129 0.00859146 9.44359
0.00107286 0.12081 9.62322
-0.00937963 0.408082 10.2656
-0.0144612 1.05471 12.0933
-0.000613888 -0.968443 11.0508
-0.0891782 -0.506424 -2.45034
0.00642282 -0.32438 -2.75494
0.0672792 3.80588 18.1106
0.0547182 3.91934 20.115
-0.00390599 1.7124 20.5783
0.00782956 -0.361482 12.91
0.0043959 -0.422974 12.3807
0.0242699 -1.05254 14.2294
1.46825 -0.835042 19.475
1.28922 -1.26485 21.4848
0.0744972 -0.395512 21.3295
-0.257033 0.0116101 21.2289
-0.91859 0.495566 20.9495
-1.08303 0.681227 20.3925
2.20201 -0.282909 19.1299
2.12065 -0.780977 21.7289
0.396593 -0.65614 21.1848
-0.318393 -0.0640964 20.5114
-1.38103 0.148907 19.4399
-1.66303 0.0934808 19.0071
1.67056 0.927022 19.6769
1.7578 0.65849 20.9743
0.902937 0.143487 21.5798
-0.084627 -0.313889 21.5294
-0.492375 -0.711156 21.1575
-0.575765 -0.789803 20.5903
-0.764919 -0.253295 0.956549
0.00607866 -0.0208482 0.282638
0.000512355 -0.00140592 0.478685
0.0584644 0.012313 0.167779
-0.015932 0.0157153 0.141434
-0.00241071 0.00443795 0.0713331
0 0 0
0 0 0
-0.563039 0.188455 2.03865
0.0299051 -0.034674 0.105408
-0.0181431 0.00093438 -0.00472175
0.0448768 -0.0463896 0.326209
-0.00716442 -0.0214745 0.285867
0.76318 -0.252445 0.957973
-0.00135726 -0.00141412 0.478342
0.0151138 0.0151465 0.135554
-0.0555595 0.0143859 0.168433
0.00340912 0.00629052 0.100485
0 0 0
0 0 0
0.567004 0.188792 2.04818
0.0178047 0.0010518 -0.00492058
-0.0299932 -0.0345019 0.105473
-0.0453877 -0.0459868 0.326116
-0.000705355 -0.00110815 0.0676001
-0.00434569 0.00149235 0.0661715
0 0 0
0 0 0
0.00697122 0.0345064 0.984783
-0.0179215 0.0240582 0.570133
0.000152111 0.000581564 0.00590643
0 0 0
-0.352491 -0.159923 1.06822
3.74918e-18 2.6216e-18 2.89802e-17
-0.0235642 0.00477622 0.464251
-0.185008 0.161715 0.446476
0.0254622 0.0101274 0.131542
-0.18433 0.117617 0.612701
0.286034 0.287923 1.32486
0.00630629 8.77265e-05 0.0102726
0.000653503 -0.00111721 0.0677196
0 0 0
0.00418534 0.00143502 0.0635483
0 0 0
0.00162927 0.0406308 0.993412
0 0 0
0.018279 0.0240205 0.569862
-9.00783e-05 0.000335853 0.00345567
0.351157 -0.159067 1.06426
0.18414 0.160798 0.444269
0 0 0
0.023603 0.0047221 0.465302
-0.0257921 0.0102561 0.133222
-0.00638171 9.63634e-05 0.0104077
0.184082 0.115984 0.611614
-0.28415 0.286435 1.32009
-0.0207225 -0.0106011 0.103063
-2.48639 -1.29532 1.98754
-1.34174e-07 3.20551e-07 1.24503e-05
0 0 0
-0.0208516 -0.0191926 0.342245
4.26245e-07 5.25579e-07 4.51537e-05
-0.000308779 0.00446852 0.0374294
-1.35628e-17 -2.32551e-18 -2.13916e-18
6.56377e-08 2.48308e-07 2.57051e-05
-0.000562621 -0.0373647 -0.0234813
0 0 0
0 0 0
1.22854e-05 0.0753891 0.13167
0 0 0
-0.0010377 -0.00151641 0.0258353
-0.0160522 0.00629669 0.0583183
0.000442082 0.00425098 -0.00536463
-4.57742e-06 0.000280941 -0.00280705
0 0 0
0.01226 -0.00994924 0.0823466
2.49885 -1.30153 1.99756
0.0202596 -0.0103552 0.100684
-4.12265e-07 7.45244e-07 6.35971e-05
0.020823 -0.0192032 0.34212
0 0 0
0.000334635 0.00478618 0.0377423
0 0 0
-0.00122708 0.0123936 0.0882663
0.0163157 0.00639526 0.0593381
0.0010278 -0.00145785 0.0254172
-0.0124891 -0.0101001 0.0831103
-2.7565e-18 9.94246e-18 4.92112e-17
0 0 0
0 0 0
0 0 0
0.000588703 0.00443422 0.0305927
2.07965e-08 -9.13677e-08 -1.26479e-05
-8.09471e-10 -6.67889e-08 -7.44197e-06
0 0 0
0 0 0
-2.55537e-08 1.24598e-08 2.66608e-05
1.41932e-07 -5.9581e-07 -0.000117359
-4.79292e-19 -3.16236e-17 -1.36266e-16
0.0519161 0.116671 1.373
0 0 0
9.08841e-06 0.0074339 0.0634451
5.56984e-06 -0.00289881 0.0112626
-4.29571e-07 -1.75384e-06 5.23383e-05
0 0 0
0 0 0
1.14064e-19 3.37938e-20 6.02612e-18
-0.000596593 0.00447997 0.0309548
0 0 0
0 0 0
-0.0519461 0.118972 1.39563
0 0 0
-0.0327961 -0.0196731 0.161979
-0.0626578 -0.0248149 0.226413
0 0 0
-0.00936385 -0.0239156 0.195302
0 0 0
0 0 0
0 0 0
-1.05826e-05 0.000243179 0.000794121
0 0 0
5.42133e-06 0.00169434 0.00779206
0 0 0
0.000981639 0.0120452 0.0741466
0 0 0
0 0 0
6.16454e-07 4.37424e-07 7.62121e-05