# vtk DataFile Version 2.0
tet_velo
ASCII
DATASET UNSTRUCTURED_GRID
POINTS 29498 float
-0.776251 0.045 -1.545
-0.765 0.085 1.4307
-0.745 0.365015 -1.495
-0.565 0.685 1.4674
0.776252 0.045 -1.545
0.765 0.085 1.4307
0.745 0.365015 -1.495
0.565 0.685 1.4674
-0.787274 0.0435599 -0.5531
-0.796775 0.0436418 0.4388
-0.746623 0.5333 -0.507533
-0.700317 0.653656 0.479933
0.787277 0.0435573 -0.5531
0.79678 0.0436369 0.4388
0.746626 0.533302 -0.507533
0.700327 0.653665 0.479933
-1.52669 -0.255202 -2.35923
-1.53189 -0.19627 -1.56748
-1.53231 -0.19765 -0.575467
-1.51443 -0.21901 0.41744
-1.47893 -0.199375 1.40953
-1.47619 -0.161796 2.20164
-1.48796 -0.117056 2.99307
-1.52865 -0.0429331 -2.33582
-1.53233 0.0345153 -1.54456
-1.53217 0.0596531 -0.553408
-1.50173 0.0633229 0.438143
-1.44246 0.090239 1.42938
-1.4564 0.127833 2.22143
-1.48049 0.17076 3.01301
-1.51561 0.345191 -2.28776
-1.50631 0.418312 -1.49632
-1.49481 0.551727 -0.50819
-1.42306 0.649079 0.479626
-1.31205 0.686678 1.46784
-1.38771 0.719486 2.26007
-1.45559 0.755813 3.05236
-1.49974 1.04712 -2.21901
-1.49329 1.13944 -1.42823
-1.48051 1.3008 -0.44154
-1.45246 1.45193 0.544197
-1.42624 1.54249 1.53094
-1.43709 1.58553 2.32181
-1.46845 1.62072 3.11362
-0.767851 -0.249453 -2.35951
-0.769313 -0.186725 -1.5679
-0.773834 -0.204239 -0.575411
-0.775816 -0.234061 0.418
-0.760784 -0.207982 1.41051
-0.767907 -0.168256 2.20231
-0.780149 -0.122134 2.99346
-0.773001 -0.0439659 -2.33591
-0.771632 0.123228 2.22198
-0.784096 0.166724 3.0133
-0.763895 0.322097 -2.28721
-0.717706 0.718033 2.25999
-0.772704 0.754265 3.05235
-0.752934 1.02845 -2.21847
-0.749278 1.12041 -1.42763
-0.74757 1.29267 -0.44118
-0.741455 1.45539 0.544154
-0.734753 1.54759 1.53063
-0.748615 1.58882 2.3215
-0.775644 1.62258 3.11339
0.765695 -0.249453 -2.35951
0.779374 -0.186725 -1.5679
0.787397 -0.204241 -0.575411
0.788053 -0.234065 0.418
0.758425 -0.207983 1.41051
0.69129 -0.168257 2.20231
0.653981 -0.122134 2.99346
0.757094 -0.0439657 -2.33591
0.65341 0.123227 2.22198
0.628072 0.166724 3.0133
0.74448 0.322097 -2.28722
0.584149 0.718033 2.25999
0.594747 0.754265 3.05235
0.74262 1.02846 -2.21847
0.739848 1.12041 -1.42763
0.721372 1.29267 -0.44118
0.679473 1.45539 0.544154
0.634026 1.54759 1.53063
0.615416 1.58882 2.3215
0.605288 1.62258 3.11339
1.53103 -0.255201 -2.35923
1.54419 -0.19627 -1.56748
1.55019 -0.197651 -0.575467
1.5384 -0.219013 0.41744
1.49021 -0.199377 1.40953
1.42461 -0.161797 2.20164
1.38178 -0.117056 2.99307
1.52276 -0.0429324 -2.33582
1.53653 0.0345158 -1.54456
1.54083 0.0596526 -0.553408
1.52027 0.0633208 0.438143
1.45568 0.0902373 1.42938
1.38416 0.127832 2.22143
1.35141 0.17076 3.01301
1.50495 0.345192 -2.28776
1.50767 0.418314 -1.49632
1.499 0.551731 -0.50819
1.43395 0.649087 0.479626
1.31487 0.686679 1.46784
1.29762 0.719487 2.26007
1.30417 0.755814 3.05236
1.49106 1.04712 -2.21901
1.48498 1.13944 -1.42823
1.45905 1.30081 -0.44154
1.4031 1.45193 0.544197
1.34158 1.5425 1.53094
1.31701 1.58553 2.32181
1.30894 1.62072 3.11362
-0.737851 0.205008 -1.49723
4.76837e-07 0.041284 -1.54872
-0.782722 0.0433201 -1.04905
-0.682537 0.385 1.46659
0 0.0814723 1.43423
-0.79332 0.0518885 0.93475
0 0.442412 -1.5724
-0.843636 0.546982 -1.00127
0 0.715796 1.4982
-0.650469 0.687138 0.973667
0.739943 0.205008 -1.49932
0.782724 0.0433192 -1.04905
0.682534 0.385 1.46658
0.793278 0.0519308 0.93475
0.843621 0.546967 -1.00127
0.650473 0.687142 0.973667
-0.792043 0.043583 -0.05715
-0.780977 0.28843 -0.530317
1.5902e-06 0.0409089 -0.5531
-0.782256 0.348649 0.459367
2.59819e-06 0.0409851 0.4388
-0.730142 0.60015 -0.0138
1.41455e-06 0.727605 -0.507533
4.59664e-06 0.953346 0.479933
0.792044 0.0435817 -0.05715
0.78101 0.28843 -0.530317
0.782261 0.348651 0.459367
0.730155 0.600163 -0.0138
-0.87145 0.246719 -1.02516
-0.789159 0.318539 -0.035475
-0.896481 0.366824 0.954208
1.03352e-06 0.0407931 -1.04905
2.0942e-06 0.0409474 -0.05715
1.2991e-06 0.0497958 0.93475
2.38419e-07 0.205008 -1.57473
0 0.385 1.64148
7.07277e-07 0.62476 -1.00127
3.0056e-06 0.936498 -0.0138
2.29832e-06 0.860091 0.973667
0.871449 0.246719 -1.02516
0.789162 0.31854 -0.035475
0.896482 0.366825 0.954208
-1.15429 0.0397577 -1.54478
-0.772782 -0.0708625 -1.55645
-0.774626 0.000517047 -1.94045
-1.10373 0.0876195 1.43004
-0.762892 -0.0614908 1.4206
-0.768316 0.104114 1.82634
-1.12566 0.391663 -1.49566
-0.754448 0.343556 -1.89111
-0.747139 0.742713 -1.46132
-0.938525 0.685839 1.46762
-0.641353 0.701517 1.86369
-0.649876 1.11629 1.49901
0.777813 -0.0708627 -1.55645
0.766673 0.000517146 -1.94045
1.15639 0.0397579 -1.54478
0.761712 -0.0614914 1.4206
0.709205 0.104114 1.82634
1.11034 0.0876186 1.43004
0.74474 0.343556 -1.89111
0.742424 0.742714 -1.46132
1.12634 0.391664 -1.49566
0.574575 0.701517 1.86369
0.599513 1.1163 1.49901
0.939935 0.68584 1.46762
-1.15972 0.0516065 -0.553254
-0.780554 -0.0803398 -0.564256
-1.14925 0.0534823 0.438472
-0.786296 -0.0952097 0.4284
-1.12071 0.542513 -0.507862
-0.747096 0.912985 -0.474357
-1.06169 0.651368 0.47978
-0.720886 1.05452 0.512044
0.787337 -0.080342 -0.564256
1.16405 0.051605 -0.553254
0.792416 -0.0952138 0.4284
1.15853 0.0534788 0.438472
0.733999 0.912988 -0.474357
1.12281 0.542517 -0.507862
0.6899 1.05453 0.512044
1.06714 0.651376 0.479779
-1.52929 -0.225736 -1.96335
-1.52767 -0.149067 -2.34752
-1.14727 -0.252327 -2.35937
-1.5321 -0.19696 -1.07147
-1.53211 -0.0808775 -1.55602
-1.1506 -0.191498 -1.56769
-1.52337 -0.20833 -0.0790135
-1.53224 -0.0689983 -0.564437
-1.15307 -0.200945 -0.575439
-1.49668 -0.209192 0.913485
-1.50808 -0.0778434 0.427792
-1.14512 -0.226535 0.41772
-1.47756 -0.180586 1.80559
-1.4607 -0.0545679 1.41945
-1.11986 -0.203678 1.41002
-1.48208 -0.139426 2.59736
-1.46629 -0.0169818 2.21154
-1.12205 -0.165026 2.20197
-1.48422 0.026852 3.00304
-1.13406 -0.119595 2.99327
-1.53049 -0.00420889 -1.94019
-1.52213 0.151129 -2.31179
-1.15083 -0.0434495 -2.33586
-1.53225 0.0470842 -1.04898
-1.51932 0.226414 -1.52044
-1.51695 0.061488 -0.0576321
-1.51349 0.30569 -0.530799
-1.47209 0.076781 0.933762
-1.4624 0.356201 0.458885
-1.44943 0.109036 1.82541
-1.37725 0.388459 1.44861
-1.46844 0.149296 2.61722
-1.42205 0.423659 2.24075
-1.11401 0.12553 2.2217
-1.46804 0.463287 3.03268
-1.13229 0.168742 3.01315
-1.51096 0.381751 -1.89204
-1.50768 0.696155 -2.25339
-1.13975 0.333644 -2.28749
-1.50056 0.485019 -1.00225
-1.4998 0.778876 -1.46228
-1.45894 0.600403 -0.0142822
-1.48766 0.926265 -0.474865
-1.36756 0.667879 0.973733
-1.43776 1.0505 0.511911
-1.34988 0.703082 1.86396
-1.36915 1.11459 1.49939
-1.42165 0.73765 2.65622
-1.4124 1.15251 2.29094
-1.05271 0.718759 2.26003
-1.46202 1.18827 3.08299
-1.11415 0.755039 3.05235
-1.49652 1.09328 -1.82362
-1.12634 1.03779 -2.21874
-1.4869 1.22012 -0.934886
-1.12128 1.12993 -1.42793
-1.46648 1.37637 0.0513288
-1.11404 1.29674 -0.44136
-1.43935 1.49721 1.03757
-1.09696 1.45366 0.544176
-1.43167 1.56401 1.92637
-1.0805 1.54504 1.53078
-1.45277 1.60312 2.71772
-1.09285 1.58717 2.32166
-1.12205 1.62165 3.11351
-0.768582 -0.218089 -1.96371
-0.770426 -0.146709 -2.34771
-0.00107757 -0.249453 -2.35951
-0.771574 -0.195482 -1.07165
0.00503041 -0.186725 -1.5679
-0.774825 -0.21915 -0.0787053
0.00678144 -0.20424 -0.575411
-0.7683 -0.221021 0.914255
0.00611812 -0.234063 0.418
-0.764346 -0.188119 1.80641
-0.00117989 -0.207982 1.41051
-0.774028 -0.145195 2.59788
-0.769769 -0.0225144 2.21214
-0.0383082 -0.168257 2.20231
-0.782122 0.0222953 3.00338
-0.063084 -0.122134 2.99346
-0.768448 0.139065 -2.31156
-0.00795363 -0.0439658 -2.33591
-0.777864 0.144976 2.61764
-0.744669 0.42063 2.24098
-0.0591111 0.123228 2.22198
-0.7784 0.460494 3.03282
-0.0780119 0.166724 3.0133
-0.758415 0.675276 -2.25284
-0.00970794 0.322097 -2.28722
-0.745205 0.736149 2.65617
-0.73316 1.15343 2.29074
-0.0667783 0.718033 2.25999
-0.774174 1.18842 3.08287
-0.088979 0.754265 3.05235
-0.751106 1.07443 -1.82305
-0.00515672 1.02846 -2.21847
-0.748424 1.20654 -0.934407
-0.00471456 1.12041 -1.42763
-0.744513 1.37403 0.0514872
-0.013099 1.29267 -0.44118
-0.738104 1.50149 1.03739
-0.0309914 1.45539 0.544154
-0.741684 1.5682 1.92607
-0.0503635 1.54759 1.53063
-0.76213 1.6057 2.71745
-0.0665995 1.58882 2.3215
-0.0851779 1.62258 3.11339
0.772535 -0.218089 -1.96371
0.761395 -0.146709 -2.34771
1.14836 -0.252327 -2.35937
0.783385 -0.195483 -1.07165
1.16178 -0.191498 -1.56769
0.787725 -0.219153 -0.0787053
1.16879 -0.200946 -0.575439
0.773239 -0.221024 0.914255
1.16323 -0.226539 0.41772
0.724858 -0.18812 1.80641
1.12432 -0.20368 1.41002
0.672636 -0.145195 2.59788
0.67235 -0.0225148 2.21214
1.05795 -0.165027 2.20197
0.641026 0.0222952 3.00338
1.01788 -0.119595 2.99327
0.750787 0.139066 -2.31156
1.13993 -0.0434491 -2.33586
0.640741 0.144976 2.61764
0.618779 0.42063 2.24098
1.01879 0.12553 2.2217
0.611409 0.460495 3.03282
0.98974 0.168742 3.01315
0.74355 0.675276 -2.25284
1.12472 0.333644 -2.28749
0.589448 0.736149 2.65617
0.599783 1.15343 2.29074
0.940885 0.71876 2.26003
0.600017 1.18842 3.08287
0.949456 0.755039 3.05235
0.741234 1.07443 -1.82305
1.11684 1.03779 -2.21874
0.73061 1.20654 -0.934407
1.11242 1.12993 -1.42793
0.700422 1.37403 0.0514871
1.09021 1.29674 -0.44136
0.656749 1.50149 1.03739
1.04129 1.45366 0.544176
0.624721 1.56821 1.92607
0.987803 1.54504 1.53078
0.610352 1.6057 2.71745
0.966214 1.58718 2.32166
0.957116 1.62165 3.11351
1.53761 -0.225736 -1.96335
1.5269 -0.149067 -2.34752
1.54719 -0.196961 -1.07147
1.54036 -0.0808773 -1.55602
1.5443 -0.208332 -0.0790135
1.54551 -0.0689994 -0.564437
1.51431 -0.209195 0.913485
1.52934 -0.0778461 0.427792
1.45741 -0.180587 1.80559
1.47295 -0.0545699 1.41945
1.40319 -0.139427 2.59736
1.40438 -0.0169825 2.21154
1.36659 0.0268518 3.00304
1.52964 -0.00420828 -1.94019
1.51386 0.15113 -2.31179
1.53868 0.0470842 -1.04898
1.5221 0.226415 -1.52044
1.53055 0.0614867 -0.0576322
1.51991 0.305692 -0.530799
1.48798 0.076779 0.933762
1.47711 0.356204 0.458884
1.41992 0.109035 1.82541
1.38528 0.388458 1.44861
1.36779 0.149296 2.61722
1.34089 0.423659 2.24075
1.32779 0.463287 3.03268
1.50631 0.381753 -1.89204
[...]
POINT_DATA 29498
VECTORS point_vectors float
-8.16389 -9.23853 16.8196
0.173473 0.233442 1.17935
-1.38788 0.886639 2.03777
-0.231078 -0.201871 0.213845
8.17912 -9.21966 16.6989
-0.172091 0.23283 1.17567
1.3743 0.880148 2.02696
0.231058 -0.200807 0.212303
-0.0139131 0.0166125 0.213334
0.00156409 0.00371603 0.0509077
-0.0332983 -0.0277311 0.109416
0 0 0
0.0140033 0.0166503 0.213744
-0.00209883 0.00373994 0.0506925
0.0325888 -0.027141 0.107362
0 0 0
-0.66861 -0.240344 19.8619
-1.16276 -0.509446 20.3703
-0.560742 -0.354156 21.1003
-0.0704231 -0.191657 21.2283
0.469797 0.0490568 21.2923
0.778563 0.158618 21.0603
0.849083 0.0967835 20.8404
-0.774187 -0.192544 19.8208
-1.4104 -0.387835 20.3287
-0.713343 -0.357128 21.148
-0.176419 -0.291055 21.2676
0.55603 -0.12757 21.4043
0.920775 -0.0580244 21.1453
0.991407 -0.12719 20.7901
-0.895468 0.0123342 19.7118
-1.69301 0.0151813 20.3113
-1.00791 -0.188764 21.1472
-0.508516 -0.316721 21.3933
0.349449 -0.612176 21.4578
0.684047 -0.628578 21.0917
0.721906 -0.561444 20.745
-0.726534 0.367914 19.8619
-1.08608 0.592123 20.2932
-0.887412 0.356809 20.8993
-0.452596 0.102551 21.1718
-0.0489789 -0.209673 21.0807
0.126358 -0.350158 20.9567
0.194033 -0.362821 20.7961
-0.751098 -0.747487 19.1412
-2.2612 -3.69237 20.2855
-0.383529 -0.160153 21.1345
0.125972 0.093401 20.7107
0.454261 0.919199 19.5747
0.868968 1.33981 19.1646
1.23788 1.50141 18.5123
-0.974874 -0.586946 18.7969
1.32504 1.02927 9.97269
2.02654 0.980157 13.1946
-1.19008 0.0330843 18.4151
0.413583 -0.838715 9.35404
1.04885 -1.14249 14.4927
-0.791137 0.959909 19.1605
-1.46418 2.09108 19.8906
-1.53199 1.57248 20.98
-0.607726 0.528344 21.623
-0.147806 -0.18671 21.2841
0.0223656 -0.479284 21.0448
0.0992411 -0.599436 20.7335
0.755153 -0.74531 19.1315
2.28538 -3.63491 20.3025
0.367342 -0.164376 21.2464
-0.115698 0.0897873 20.8449
-0.451272 0.919883 19.5719
-0.681413 1.40243 18.4319
-0.996336 1.61506 17.2622
0.969496 -0.586879 18.778
-0.857224 0.946666 6.23103
-1.82118 1.2514 10.4169
1.18986 0.043468 18.3459
0.064853 -0.792784 4.66728
-0.614458 -0.980863 9.28681
0.782164 0.971488 19.1488
1.45696 2.11542 19.884
1.53102 1.65595 20.9712
0.599652 0.591761 21.6707
0.150118 -0.160087 21.279
0.0126995 -0.465381 21.088
-0.0627248 -0.598205 20.6308
0.666501 -0.230919 19.8654
1.1469 -0.494426 20.3718
0.564261 -0.355287 21.0795
0.0765582 -0.174935 21.2217
-0.468872 0.046621 21.2841
-0.814856 0.185853 21.1015
-0.950977 0.218685 20.7052
0.775143 -0.197671 19.7979
1.40108 -0.385273 20.3354
0.711961 -0.355407 21.138
0.176141 -0.278493 21.2443
-0.54133 -0.130236 21.3847
-1.04196 -0.0507968 21.1495
-1.18562 -0.131568 20.8598
0.903127 0.0119837 19.689
1.69228 0.0141495 20.3097
1.0071 -0.188161 21.1431
0.506769 -0.308798 21.3807
-0.346216 -0.606379 21.4532
-0.739071 -0.739069 21.0657
-0.709691 -0.74416 20.8878
0.727229 0.372352 19.8578
1.09126 0.6012 20.291
0.907508 0.374529 20.9055
0.465681 0.119464 21.1973
0.0576064 -0.23244 21.1343
-0.139392 -0.386391 20.9465
-0.188226 -0.42524 20.7444
-4.97043 -1.30179 2.75454
0.000113966 -0.0802425 0.215358
-0.087483 0.0271548 0.416824
-0.0165298 -0.0112801 -0.0284694
-2.57738e-05 0.00256066 0.0139692
0.00725723 0.0151624 0.539205
9.28864e-06 0.119216 0.200681
-0.439471 -0.24595 2.31145
-0.00315089 0.0548304 -0.182296
0 0 0
13.0178 -1.9939 6.50179
0.088539 0.0279088 0.416712
0.0164852 -0.0114852 -0.0283283
-0.00750763 0.0153856 0.539813
0.439332 -0.244724 2.3048
0 0 0
0.00814316 -0.0024772 0.118714
0.000213711 -0.00278424 0.00163889
7.08797e-09 2.14175e-06 8.89467e-05
0.000525798 0.0120854 0.0185962
-6.92323e-09 7.86868e-07 7.27462e-05
0.00496232 0.014057 0.0672319
-6.51539e-05 0.0118681 0.0293853
-3.69164e-06 -0.00109972 0.0372159
-0.00793358 -0.00240019 0.11892
-0.00021703 -0.00290094 0.00151722
-0.000507513 0.0120399 0.018185
-0.00492165 0.0140879 0.0683172
0.00153267 0.00231405 0.204828
0 0 0
-0.000727609 0.0181029 0.373345
-1.40662e-07 1.7547e-05 2.40709e-05
3.40584e-09 7.50259e-07 4.77015e-05
-6.97921e-09 -3.8394e-06 -0.000143423
-3.37431e-06 -0.00315728 0.000667626
-1.76189e-05 -0.00125118 4.58134e-05
-8.82128e-06 0.0207327 0.114838
-9.80751e-06 0.0433403 0.239142
-4.82795e-06 4.06761e-05 0.000343073
-0.0017857 0.000864401 0.204988
-1.21621e-18 6.13121e-18 7.11275e-17
0.000614636 0.0182452 0.374992
-2.91285 -1.23314 20.0325
-3.55817 -5.79444 20.0221
-2.29745 -1.66081 17.8054
1.09731 0.180382 19.1939
0.246424 1.05704 12.9184
0.701734 0.788399 6.60351
-3.85195 0.333166 19.8969
-3.09596 0.430454 16.5556
-3.18465 3.77758 19.2113
0.763965 -0.559022 15.9579
-0.701687 -0.677124 4.4216
-0.178076 -0.410074 20.1213
3.556 -5.68828 19.9869
2.30171 -1.68728 17.771
2.90025 -1.23176 20.0314
-0.241723 1.05456 12.9073
-0.394879 0.561629 5.07036
-1.08319 0.168705 19.3408
3.10308 0.445291 16.4602
3.17497 3.82137 19.1936
3.84908 0.334568 19.8903
1.15168 -0.580943 2.48886
0.15348 -0.405854 18.9498
-0.761218 -0.572277 16.0087
-0.626784 -0.686336 21.4303
-0.360416 0.313237 14.4955
-0.109846 -0.439864 20.0601
0.491731 0.0476161 14.3927
-1.37192 -0.853676 21.4187
-3.26178 1.54817 21.0533
-0.837203 -0.510653 19.7006
-1.1119 0.525882 21.6913
0.379588 0.330266 14.6779
0.638916 -0.695338 21.4609
-0.47734 0.0495622 14.5401
0.113716 -0.445917 20.2247
3.31437 1.62684 20.9673
1.3658 -0.839876 21.3616
1.01111 0.559152 21.1364
0.839045 -0.529085 19.8581
-0.954325 -0.381399 20.0256
-0.718173 -0.218657 19.8365
-0.786198 -0.451426 19.5605
-0.976173 -0.481505 20.9011
-1.28946 -0.454817 20.3506
-1.85364 -1.33764 20.2418
-0.279785 -0.26332 21.1806
-0.635256 -0.370667 21.1255
-0.488097 -0.591845 21.4853
0.166755 -0.0953512 21.3158
-0.119063 -0.247892 21.2467
0.0698078 -0.287274 21.3589
0.667013 0.113604 21.1806
0.502926 -0.0361227 21.3334
0.722299 0.339556 21.2898
0.824565 0.143489 20.8731
0.84098 0.053102 21.001
1.12442 0.589209 20.5274
0.946969 -0.0113926 20.8543
1.16822 0.523854 20.2712
-1.13477 -0.298873 19.9573
-0.854365 -0.0972913 19.7536
-0.943968 -0.36391 19.3945
-1.20346 -0.405789 20.9379
-1.65387 -0.243684 20.3252
-0.399618 -0.333176 21.192
-0.851854 -0.332342 21.1844
0.103757 -0.240518 21.4309
-0.322388 -0.365025 21.342
0.790021 -0.0907202 21.274
0.618856 -0.400427 21.4582
0.99368 -0.0710692 20.8367
0.934794 -0.411637 21.0654
1.5572 0.231892 19.6844
1.04208 -0.362923 20.5778
1.49246 0.143482 19.9719
-1.35171 -0.00174167 19.8515
-0.847722 0.241219 19.7335
-1.15653 0.0288956 19.1928
-1.43634 -0.0683342 20.9648
-1.47654 0.41727 20.2942
-0.752217 -0.281538 21.2424
-1.08036 0.119767 21.0173
-0.141365 -0.392081 21.5509
-0.565809 -0.047013 21.3056
0.526038 -0.628895 21.3118
0.0443194 -0.389325 21.2731
0.68004 -0.59744 20.8432
0.278349 -0.498973 20.972
0.857965 -0.991942 20.1237
0.41102 -0.52103 20.704
0.884102 -0.80149 20.4617
-0.936766 0.507869 20.0101
-0.850174 0.630896 19.5425
-1.04073 0.488975 20.6617
-1.42924 1.15864 20.1428
-0.692022 0.23457 21.0738
-1.2538 0.753108 20.9815
-0.219343 -0.0638212 21.1815
-0.560026 0.260872 21.361
0.0568253 -0.290044 21.0353
-0.0972823 -0.219653 21.212
0.162914 -0.393923 20.8638
0.0798691 -0.430011 20.9835
0.183558 -0.500808 20.6959
-1.51821 -1.73556 18.8548
-0.845195 -0.670702 18.9823
1.58836e-05 -1.15671 18.5435
-0.855831 -1.31393 22.4708
0.0202203 -6.37522 21.1577
-0.102606 0.0395591 20.5852
-0.00773071 -0.363486 15.8617
0.361568 0.378202 20.0659
-0.00702633 0.0295682 16.6397
0.63187 1.21178 19.1354
-0.00242967 0.575099 15.441
1.14243 1.50005 18.5218
1.03664 1.53652 14.5391
-0.00882679 0.97212 14.6887
1.59372 1.59354 15.8164
0.0487684 1.3545 13.822
-1.10624 -0.317271 18.5702
-0.0136969 -0.955554 17.8787
1.83922 1.16282 12.0825
1.23883 -0.26729 6.39532
-0.0952223 -0.00454358 1.60457
1.96878 -0.185047 11.047
0.232207 0.510177 3.35905
-1.0899 0.70353 18.6285
-0.0296726 0.082448 17.1861
0.970539 -0.995785 12.3231
0.0908027 -0.829304 20.5259
0.0168504 0.602065 -4.8836
0.21664 -0.935075 20.5904
0.250089 0.769225 -1.3537
-1.21296 1.62865 19.252
-0.00577738 1.37861 18.6851
-1.52577 1.81321 20.5871
-0.0114274 3.15398 19.5648
-1.16517 1.16644 21.5124
-0.0345117 3.1495 20.7257
-0.300937 0.0731974 21.4725
-0.0396507 0.992692 21.9727
-0.0624022 -0.346548 21.1767
-0.0183982 -0.00207349 21.3383
0.0845525 -0.556373 20.8738
-0.0103351 -0.372626 21.2395
0.0261482 -0.517656 20.7944
1.52102 -1.71583 18.8666
0.843502 -0.670505 18.9649
0.784839 -0.454558 19.5681
0.850495 -1.31906 22.4693
1.83942 -1.31115 20.2408
0.104363 0.0370663 20.7236
0.496796 -0.594233 21.4719
-0.35341 0.381313 20.1311
-0.0615741 -0.290237 21.3638
-0.580228 1.23832 19.0209
-0.72042 0.328087 21.3
-0.841477 1.52457 17.2031
-0.767508 1.35067 13.0449
-1.14823 0.699936 20.491
-1.29639 1.69496 14.0378
-1.18772 0.725529 20.274
1.09787 -0.32678 18.5342
0.951389 -0.375272 19.3763
-1.56735 1.45722 8.61639
-0.908997 -0.0736573 2.38267
-1.64963 0.550864 17.1441
-1.90338 0.053082 6.5522
-1.85175 0.375279 17.9608
1.08474 0.718511 18.5897
1.16852 0.0260137 19.1682
-0.624292 -0.974203 7.27846
0.00174089 -0.821902 19.8081
-0.908602 -0.939993 17.2785
-0.105898 -0.963749 18.9672
-1.00079 -0.920525 18.5868
1.20614 1.64267 19.2419
0.850428 0.638496 19.5345
1.52079 1.86497 20.5784
1.43182 1.17876 20.1371
1.15914 1.25568 21.5467
1.27893 0.788287 20.9855
0.290178 0.100528 21.4983
0.579588 0.293642 21.4013
0.0973517 -0.332991 21.2116
0.109458 -0.209824 21.229
-0.0390192 -0.562293 20.9123
-0.0561918 -0.45476 21.0074
-0.17378 -0.531096 20.6821
0.940256 -0.378568 20.018
0.71819 -0.215818 19.8287
0.973533 -0.474109 20.8888
1.27877 -0.446206 20.3552
0.287973 -0.256805 21.1658
0.637273 -0.370511 21.1105
-0.17607 -0.0851252 21.3014
0.124205 -0.234649 21.2288
-0.691679 0.124382 21.185
-0.487854 -0.0379253 21.3167
-0.91854 0.212117 20.92
-0.942176 0.0935394 21.0245
-1.06875 0.129657 20.6713
1.12672 -0.299795 19.9362
0.858872 -0.0980501 19.7271
1.19723 -0.407116 20.9351
1.64828 -0.237648 20.3169
0.400982 -0.328761 21.1822
0.84927 -0.327821 21.1782
-0.103866 -0.231718 21.4021
0.317157 -0.353054 21.3266
-0.829836 -0.0830034 21.2939
-0.606255 -0.392566 21.451
-1.19012 -0.0943894 20.943
-1.04664 -0.496723 21.1071
-1.29087 -0.449057 20.1038
1.36118 0.00135159 19.847
0.853901 0.245217 19.7248
1.43593 -0.0710524 20.9622
1.48341 0.421672 20.2966
0.753766 -0.283923 21.2399
1.09382 0.125173 21.0222
0.143341 -0.387518 21.5409
0.579828 -0.0419037 21.3229
-0.556406 -0.69166 21.2356
-0.0315654 -0.40142 21.2807
-0.75235 -0.793512 20.9978
-0.289953 -0.590898 21.0193
-0.394143 -0.61595 20.6349
0.939421 0.516411 20.0073
1.05386 0.503012 20.6638
0.719038 0.259002 21.0858
0.225553 -0.0611349 21.1985
-0.0411689 -0.330211 21.0422
-0.173871 -0.44879 20.8206
-1.03666 -0.34724 19.9874
-1.85893 -1.76999 18.4043
-1.32992 -0.852769 19.6046
-1.7332 -0.689245 19.3232
-0.871936 -0.415219 19.484
-2.36365 -1.3644 20.1425
-1.0878 -0.460447 20.924
-0.811676 -0.396842 16.6849
-1.26233 -1.09495 21.3793
-1.8869 -1.12883 21.774
-0.526374 -0.666988 21.5411
-0.336497 -0.309641 21.179
0.133564 0.147078 14.1966
-0.12911 -0.387192 21.3716
-0.22203 -0.493767 20.5935
0.00886456 -0.398295 21.0004
0.143608 -0.17127 21.3516
0.478513 0.336342 13.4938
0.341575 -0.0718866 21.4163
0.257766 -0.295011 19.7824
0.926536 0.306126 20.5631
0.720434 0.0295077 21.1966
0.653653 1.32203 13.6017
0.946734 0.491676 21.1576
1.38573 0.242201 19.3101
1.35501 0.526139 20.0091
0.942965 0.0566548 20.8546
1.45474 1.62503 15.457
1.27438 0.615769 20.1777
1.60418 0.285802 19.6288
1.27358 0.420357 20.2477
-1.30015 -0.167136 19.8771
-2.90727 -0.875166 16.8065
-2.27031 0.105443 18.9572
-1.0897 -0.232788 19.26
-3.80265 -0.666053 19.9316
-1.39842 -0.285921 20.9942
-2.36633 -0.111163 21.773
-0.773943 -0.676347 21.2589
-0.544471 -0.372618 21.2217
-1.15312 -0.986923 20.379
-0.175452 -0.511353 19.044
0.0289314 -0.352445 21.5413
-0.0256532 -0.00955919 18.5154
1.28762 0.0358007 15.6375
0.806551 -0.408427 21.3245
-0.0951691 -0.758216 2.01388
0.726222 -0.861307 18.5694
1.60131 -0.464126 19.0366
0.990971 -0.31632 20.7946
1.91576 -0.218208 9.20628
0.977965 -0.982771 20.059
1.65578 -0.579182 19.4199
-1.21869 0.360038 19.8918
-2.07223 1.85478 18.1778
-1.19729 0.962932 19.7107
-1.09834 0.411587 19.2577
-2.48141 1.22138 20.0211
-1.34149 0.293614 20.7941
-2.86902 2.11819 21.1454
-1.38598 0.958809 20.6841
-1.79899 0.319765 21.1752
-0.863565 0.0260407 21.1831
-2.71578 1.09509 21.6498
-0.966317 0.544399 21.2596
-0.904107 0.102973 21.6368
-0.238715 -0.201284 21.3531
-0.303316 -0.111558 20.7769
-0.277913 -0.0114447 21.3088
-0.122301 -0.504849 21.5055
0.187354 -0.49726 21.1244
-0.136956 -0.612565 20.6885
-0.00443963 -0.351354 21.0942
0.207354 -0.745694 21.145
0.365043 -0.515954 20.828
0.191078 -0.961238 20.5895
0.152927 -0.498862 20.8511
0.378936 -0.767916 20.7456
1.85984 -1.77064 18.3973
0.0063485 -3.06099 17.813
-0.0182015 -3.46458 15.1893
-0.00657483 -1.05502 18.2401
0.0415973 -7.81963 18.0471
0.8171 -0.417961 16.8628
0.00757165 -1.58094 18.5999
-0.00549228 -0.0264621 5.96851
-0.112421 0.154071 14.3706
-0.00721819 -0.102254 15.9852
-0.00490062 0.071296 7.96322
-0.478785 0.339909 13.5582
-0.00376378 0.25486 15.8702
-0.00339292 0.475612 7.82573
-0.478087 1.23051 12.7305
-0.0101027 0.705941 14.8492
-0.140184 -0.745644 1.42248
-0.0310672 0.561932 7.88095
-1.0865 1.62243 13.8408
0.0431211 1.24961 13.7097
0.0470094 0.740136 2.43116
0.0881192 1.21332 8.9343
2.9153 -0.892053 16.7281
-0.0343937 1.47057 12.9448
-0.0154356 -0.525203 17.4521
0.416933 -0.618803 1.13646
-0.144375 0.998984 -3.88932
0.17965 0.19459 -4.15705
-1.82125 0.0253246 4.63281
0.146454 0.553396 -3.17621
0.511438 0.785748 -1.63548
2.06763 1.88102 18.1376
-0.00799453 2.48068 18.7483
-0.0189449 1.15492 17.6856
-0.0103725 5.6565 18.8558
2.87143 2.17165 21.1423
-0.0287021 3.00023 20.2507
-0.0426254 4.83418 18.7683
2.8073 1.20611 21.6506
-0.0582884 2.43112 21.9066
-0.0214415 0.917735 18.961
0.154066 -0.0849984 19.8519
-0.0335437 0.296235 21.6188
-0.0141306 0.0347742 13.8771
0.150712 -0.556347 19.6229
-0.0203234 -0.169404 21.3182
-0.0670618 -0.351899 15.0283
-0.109608 -0.989467 20.0479
-0.00386638 -0.514387 21.0632
-0.0123021 -0.730537 15.7093
1.02574 -0.345632 19.9699
1.32694 -0.850689 19.6169
1.73707 -0.698212 19.3135
0.873093 -0.425883 19.4787
2.33824 -1.34531 20.1503
1.08464 -0.456135 20.9191
1.26387 -1.08595 21.3564
1.88204 -1.12875 21.7529
0.537227 -0.663611 21.5338
0.338906 -0.304636 21.1675
0.139924 -0.391048 21.366
0.234051 -0.506059 20.6947
-0.00120562 -0.403227 21.1034
-0.143885 -0.164754 21.3364
-0.3325 -0.0886057 21.442
-0.2504 -0.295712 19.913
-0.91782 0.291542 20.616
-0.754329 0.0443922 21.2096
-0.951988 0.54436 21.166
-1.41606 0.374543 18.1238
-1.46068 0.711399 19.4779
-1.06901 0.0856275 20.8804
-1.30369 0.776951 20.059
-1.83539 0.500852 17.8203
-1.50319 0.686774 19.1524
1.30033 -0.163892 19.8671
2.30118 0.10647 18.9256
1.09861 -0.23473 19.2367
3.787 -0.663815 19.9197
1.39358 -0.285276 20.9839
2.36629 -0.104336 21.7656
0.790913 -0.67109 21.3137
0.541329 -0.361746 21.2149
1.14787 -0.977043 20.4086
0.194268 -0.509377 19.1881
-0.0264013 -0.344448 21.5258
0.0390165 -0.0526584 18.6567
-1.28561 0.0214528 15.8695
-0.855509 -0.437107 21.318
-0.738139 -0.767681 16.9001
-1.69322 -0.384181 15.4239
-1.1642 -0.462929 20.9772
-1.11386 -1.01885 18.2508
-1.93662 -0.467432 17.2357
1.22686 0.367929 19.8874
1.20227 0.979869 19.6999
1.10253 0.418089 19.2426
2.49328 1.24102 20.012
1.35111 0.300082 20.7988
1.39461 0.988101 20.6812
1.83389 0.328637 21.1771
0.87999 0.0306117 21.1924
0.998597 0.590783 21.2823
0.932862 0.125524 21.6599
0.24689 -0.206063 21.3769
0.289054 0.0027118 21.342
0.149846 -0.504579 21.5414
-0.166742 -0.519982 21.154
0.0205213 -0.344393 21.1312
-0.146697 -0.794148 21.211
-0.371473 -0.611971 20.8514
-0.124414 -0.515813 20.8715
-0.332615 -0.860228 20.9173
-1.52905 -0.828459 19.4794
-1.52938 -1.1878 21.5917
-0.160343 -0.460098 21.1947
0.343427 -0.181703 20.9042
1.20018 0.466758 20.1275
1.45403 0.508827 19.9558
-2.07612 -0.388964 19.0729
-2.32237 -0.600909 22.0236
-0.286606 -0.716371 19.9433
0.0579923 -0.246655 18.7487
1.42728 -0.291862 17.2297
1.66066 -0.580935 19.3896
-1.77538 0.833859 19.3125
-2.11605 0.742623 21.0389
-1.49452 0.229999 21.473
-0.389423 -0.182058 21.6389
0.0261556 -0.627442 21.3409
0.325557 -0.786904 20.9499
-0.00645345 -3.42725 16.7227
-0.00706962 -0.239243 6.78803
-0.00558052 0.0295998 6.79544
-0.0025508 0.202677 7.99131
-0.0263533 0.327461 7.4864
0.0565539 1.15996 8.42013
-0.0207051 -1.58208 13.1503
-0.143075 -0.484147 -2.86258
0.444202 0.699257 -3.41433
-0.0171849 3.49439 16.7802
-0.0209347 4.2243 20.2445
-0.0427708 3.9974 20.1786
-0.0124968 0.0174924 16.1006
-0.0566134 0.00886682 15.0751
-0.0389205 -0.696789 16.2628
1.52895 -0.833598 19.4825
1.52208 -1.16392 21.5605
0.171742 -0.469174 21.2513
-0.334968 -0.187911 20.9782
-1.24594 0.573086 19.6044
-1.64844 0.776402 19.208
2.09042 -0.391247 19.0479
2.32917 -0.592263 22.0147
0.311654 -0.704893 19.9871
-0.0615522 -0.269131 18.9124
-1.44502 -0.220127 15.3296
-1.9633 -0.466373 16.7731
1.78896 0.851123 19.2951
2.13591 0.757563 21.0446
1.53245 0.248484 21.4876
0.399979 -0.171074 21.6775
0.0338121 -0.657977 21.4265
-0.287201 -0.878752 21.022
-3.09037 -0.925712 1.62067
0.02316 -0.406299 0.808162
-0.140757 0.0267195 0.753122
-0.0309665 -0.120103 0.00147144
-0.0168117 0.103349 0.306104
-0.0190831 0.0380084 0.64883
-3.34286 0.129968 2.90161
-0.108835 0.413531 0.47453
-2.35848 1.45686 5.17933
0 0 0
-0.075917 0.0191933 -0.0729587
-0.0547036 -0.0429488 0.177484
-0.0242905 -0.401267 0.797558
3.65572 -1.457 2.96361
0.138634 0.0262456 0.749292
0.0166559 0.102358 0.305845
0.0322754 -0.124255 -0.0022727
0.0186585 0.0368839 0.653369
0.109089 0.414857 0.478082
3.43311 0.198795 3.26559
2.3585 1.4621 5.1846
0.0749235 0.0200465 -0.0745677
0 0 0
0.0542986 -0.0425885 0.175575
-0.0341672 0.00836182 0.368211
0.00559281 -0.00308803 0.180457
0 0 0
-1.15951e-17 -1.30887e-18 -1.15171e-16
0.00527406 0.040226 0.432772
0.00631106 -0.000592992 0.0724431
0.00140694 0.0045385 0.0368099
0 0 0
0 0 0
-7.82359e-05 -0.00378686 0.0127826
-0.00942241 0.0134005 0.354679
-0.0639146 0.0176415 0.0647576
0 0 0
0.00813496 0.0291229 0.0542088
0.00261885 0.00442997 0.0194565
0.0212815 -0.00185737 0.136367
0.0334634 0.00378967 0.331748
0 0 0
-0.00541631 -0.00298701 0.180889
0 0 0
-0.00557091 0.0404694 0.434411
0 0 0
-0.00617722 -0.00024236 0.0721189
-0.00149677 0.00495309 0.0362786
0 0 0
0.0552168 0.0263236 0.0815466
7.2288e-05 -0.00340822 0.0114195
0.00960623 0.0129962 0.350884
0 0 0
-0.021258 -0.00194783 0.136308
-0.00811092 0.0289988 0.0539166
-0.00259019 0.00438688 0.0193254
0 0 0
-0.0307212 -0.0275651 0.0246883
1.72963e-07 6.83612e-05 -0.000138228
0 0 0
0 0 0
0.000390466 0.000376636 0.0131534
0.0207828 0.0304487 0.295448
-0.105104 -0.0544665 0.00314199
3.02765e-08 -9.24746e-07 -2.48406e-05
-0.00265672 -0.365906 -0.0822865
-2.13371e-05 0.00498574 0.0711728
0.000581413 0.000272912 0.0114109
0 0 0
3.88054e-05 0.0991822 0.298667
0.000442486 -0.000181477 0.0313094
0 0 0
0 0 0
-3.6746e-05 0.00439467 -0.0133697
0.138309 0.262756 2.08297
-0.000712986 -0.00224034 0.00983504
0.0274789 -0.0245374 0.022101
-3.71332e-17 1.41978e-17 -1.50459e-16
-0.000419587 0.000373223 0.0132514
0 0 0
0.105076 -0.0549604 0.00310727
-0.0206152 0.0300912 0.293572
-0.000586261 0.000273796 0.0114272
4.58091e-05 0.00502099 0.0726332
0 0 0
-0.000437664 -0.000271477 0.0308409
0.000706251 -0.00222119 0.00973171
-0.139461 0.263502 2.07463
0.0046431 0.0141572 0.267266
0.000204385 6.87658e-06 0.00162089
0.00364447 0.00149012 0.0767135
0.00065468 0.000160895 0.030124
-1.79841e-07 1.83112e-05 0.000333799
1.614e-08 1.6316e-06 9.39066e-05
0.00030909 0.002424 0.0145851
-0.461921 0.311747 1.21518
-1.98243e-10 1.27208e-07 1.00431e-05
-1.10069e-06 0.0001324 0.00726702
0.000279642 0.00157194 0.0101099
-0.157369 0.190463 1.13617
0 0 0
1.45073e-05 0.00356974 0.00842445
-2.79134e-05 0.00581953 0.10754
-1.49252e-06 -0.00105378 0.00923181
-0.000204 6.83952e-06 0.00162514
-0.00450228 0.0144741 0.263797
-0.00356616 0.00141078 0.0756034
-0.000626037 7.75747e-06 0.0298668
-0.000305882 0.00244288 0.0145481
0.460115 0.316817 1.21363
0.156556 0.189501 1.13099