# vtk DataFile Version 2.0
tet_velo
ASCII
DATASET UNSTRUCTURED_GRID
POINTS 29498 float
-0.845 0.125 -1.85347
-0.719657 0.255 2.085
-0.651027 0.535 -1.975
-0.770515 0.855 1.855
0.845 0.125 -1.85347
0.722465 0.255 2.085
0.651031 0.535 -1.975
0.770515 0.855 1.855
-0.848152 0.1234 -0.540647
-0.849601 0.123503 0.772177
-0.812856 0.763667 -0.698333
-0.811266 0.828914 0.578333
0.849127 0.123361 -0.540647
0.851489 0.123488 0.772177
0.812894 0.763702 -0.698333
0.811268 0.828915 0.578333
-1.68153 -0.248639 -2.80794
-1.66818 -0.17515 -1.77217
-1.67291 -0.174223 -0.458408
-1.66177 -0.182048 0.862627
-1.58784 -0.095379 2.177
-1.56009 -0.0248357 3.21578
-1.55789 0.0342153 4.249
-1.664 0.0181974 -2.88171
-1.64845 0.116813 -1.84988
-1.6699 0.143904 -0.543156
-1.65587 0.139608 0.766821
-1.5554 0.225958 2.07424
-1.53571 0.295083 3.11251
-1.54262 0.353292 4.14691
-1.58147 0.511592 -3.01909
-1.52148 0.607966 -1.98576
-1.6231 0.769086 -0.703689
-1.62835 0.819162 0.575824
-1.57269 0.857276 1.85859
-1.54253 0.923307 2.89836
-1.5387 0.986679 3.93859
-1.54354 1.38881 -3.25234
-1.52424 1.50027 -2.22443
-1.56219 1.66662 -0.95408
-1.59617 1.78231 0.308478
-1.59099 1.84672 1.57921
-1.57336 1.89482 2.60791
-1.55683 1.94848 3.64419
-0.876967 -0.244807 -2.81028
-0.845041 -0.167689 -1.77557
-0.842905 -0.183573 -0.457951
-0.84984 -0.19391 0.867198
-0.793099 -0.0822906 2.18499
-0.767597 -0.0153188 3.2212
-0.764213 0.0387595 4.25214
-0.879212 0.01366 -2.88243
-0.739425 0.305886 3.11698
-0.749099 0.358001 4.14928
-0.810713 0.480359 -3.01461
-0.747156 0.92549 2.89764
-0.74425 0.988616 3.93843
-0.75197 1.36875 -3.24792
-0.722721 1.48203 -2.21956
-0.754202 1.66313 -0.951145
-0.791539 1.7863 0.308126
-0.792119 1.84877 1.57669
-0.775883 1.89543 2.60539
-0.758761 1.94888 3.64236
0.75678 -0.244809 -2.81028
0.833573 -0.167696 -1.77557
0.845718 -0.1836 -0.457951
0.819651 -0.193926 0.867198
0.739455 -0.0822954 2.18499
0.775002 -0.0153229 3.2212
0.804662 0.0387551 4.25214
0.723042 0.0136601 -2.88243
0.784402 0.305883 3.11698
0.813448 0.357997 4.14928
0.675912 0.480362 -3.01462
0.802514 0.925488 2.89764
0.825195 0.988613 3.93843
0.800577 1.36876 -3.24792
0.835523 1.48204 -2.21956
0.845125 1.66314 -0.951145
0.822344 1.7863 0.308126
0.809829 1.84877 1.57669
0.818871 1.89543 2.60539
0.835341 1.94888 3.64236
1.5769 -0.248643 -2.80794
1.64871 -0.175161 -1.77217
1.67352 -0.174257 -0.458408
1.64561 -0.182075 0.862627
1.56365 -0.0953921 2.177
1.56966 -0.0248455 3.21578
1.59671 0.0342056 4.249
1.54604 0.0181983 -2.88171
1.63424 0.116813 -1.84988
1.67214 0.143876 -0.543156
1.65828 0.139584 0.766821
1.56275 0.225948 2.07424
1.57224 0.295076 3.11251
1.60208 0.353283 4.14691
1.4879 0.511599 -3.01909
1.52109 0.607981 -1.98576
1.63283 0.769106 -0.703689
1.63509 0.819156 0.575824
1.58622 0.85727 1.85859
1.5918 0.923302 2.89836
1.61535 0.986672 3.93859
1.58547 1.38882 -3.25234
1.61893 1.50028 -2.22443
1.64433 1.66664 -0.954081
1.63355 1.78231 0.308478
1.61874 1.84671 1.57921
1.62245 1.89481 2.60791
1.63608 1.94847 3.64419
-0.732214 0.33 -1.89844
0 0.121037 -1.85743
-0.847456 0.12332 -1.19706
-0.763617 0.555 1.98853
0.00140399 0.272319 2.06768
-0.850368 0.123513 1.42859
1.99676e-06 0.614038 -2.05404
-0.808439 0.72583 -1.33667
0 0.943492 1.94349
-0.821703 0.872769 1.21667
0.732235 0.33 -1.89845
0.847944 0.1233 -1.19706
0.764548 0.555 1.98806
0.852701 0.12352 1.42859
0.808443 0.725832 -1.33667
0.821716 0.872781 1.21667
-0.848829 0.1235 0.115765
-0.863568 0.443534 -0.61949
0.000487689 0.132279 -0.540647
-0.895847 0.476209 0.675255
0.00094377 0.142877 0.772177
-0.809919 0.794148 -0.06
1.90065e-05 0.972768 -0.698333
1.01856e-06 1.25929 0.578333
0.850372 0.12336 0.115765
0.863567 0.443532 -0.61949
0.895847 0.476201 0.675255
0.809913 0.79414 -0.06
-0.871271 0.386767 -1.26686
-0.867221 0.459871 0.0278825
-0.886779 0.515604 1.32263
0.000243844 0.129851 -1.19706
0.00071573 0.137352 0.115765
0.00117388 0.159508 1.42859
9.98378e-07 0.33 -1.9625
0.000701994 0.555 2.10692
1.05016e-05 0.834445 -1.33667
1.00125e-05 1.25825 -0.06
5.09282e-07 1.12801 1.21667
0.871269 0.386766 -1.26686
0.867218 0.459866 0.0278825
0.886779 0.515601 1.32263
-1.24672 0.120906 -1.85167
-0.845021 -0.0213443 -1.81452
-0.862106 0.06933 -2.36795
-1.13753 0.240479 2.07962
-0.756378 0.0863547 2.13499
-0.729541 0.280443 2.60099
-1.08625 0.571483 -1.98038
-0.73087 0.50768 -2.49481
-0.686874 1.00852 -2.09728
-1.1716 0.856138 1.8568
-0.758836 0.890245 2.37632
-0.781317 1.35189 1.71585
0.839286 -0.0213478 -1.81452
0.784021 0.06933 -2.36795
1.23962 0.120906 -1.85167
0.73096 0.0863523 2.13499
0.753433 0.280441 2.60099
1.14261 0.240474 2.07962
0.663472 0.507681 -2.49481
0.743277 1.00852 -2.09728
1.08606 0.571491 -1.98038
0.786515 0.890244 2.37632
0.790172 1.35189 1.71585
1.17837 0.856135 1.8568
-1.25903 0.133652 -0.541901
-0.845529 -0.0300864 -0.499299
-1.25274 0.131556 0.769499
-0.849721 -0.0352035 0.819688
-1.21798 0.766376 -0.701011
-0.783529 1.2134 -0.824739
-1.21981 0.824038 0.577079
-0.801403 1.30761 0.44323
0.847422 -0.0301196 -0.499299
1.26064 0.133618 -0.541901
0.83557 -0.035219 0.819688
1.25489 0.131536 0.769499
0.829009 1.21342 -0.824739
1.22286 0.766404 -0.701011
0.816806 1.30761 0.44323
1.22318 0.824035 0.577079
-1.67486 -0.211894 -2.29005
-1.67277 -0.115221 -2.84483
-1.27925 -0.246723 -2.80911
-1.67055 -0.174687 -1.11529
-1.65831 -0.0291685 -1.81102
-1.25661 -0.171419 -1.77387
-1.66734 -0.178136 0.20211
-1.67141 -0.0151595 -0.500782
-1.25791 -0.178898 -0.458179
-1.62481 -0.138714 1.51981
-1.65882 -0.0212198 0.814724
-1.25581 -0.187979 0.864913
-1.57397 -0.0601074 2.69639
-1.57162 0.0652894 2.12562
-1.19047 -0.0888348 2.18099
-1.55899 0.00468979 3.73239
-1.5479 0.135124 3.16414
-1.16384 -0.0200773 3.21849
-1.55026 0.193753 4.19795
-1.16105 0.0364874 4.25057
-1.65623 0.0675051 -2.36579
-1.62274 0.264895 -2.9504
-1.27161 0.0159287 -2.88207
-1.65917 0.130359 -1.19652
-1.58496 0.36239 -1.91782
-1.66289 0.141756 0.111833
-1.6465 0.456495 -0.623422
-1.60564 0.182783 1.42053
-1.64211 0.479385 0.671323
-1.54555 0.260521 2.59337
-1.56404 0.541617 1.96641
-1.53917 0.324188 3.62971
-1.53912 0.609195 3.00543
-1.13757 0.300485 3.11474
-1.54066 0.669985 4.04275
-1.14586 0.355646 4.14809
-1.55147 0.559779 -2.50242
-1.56251 0.950199 -3.13571
-1.19609 0.495975 -3.01685
-1.57229 0.688526 -1.34473
-1.52286 1.05412 -2.1051
-1.62572 0.794124 -0.0639324
-1.59264 1.21785 -0.828885
-1.60052 0.838219 1.21721
-1.61226 1.30073 0.442151
-1.55761 0.890291 2.37847
-1.58184 1.352 1.7189
-1.54062 0.954993 3.41847
-1.55795 1.40906 2.75313
-1.14484 0.924398 2.898
-1.54777 1.46758 3.79139
-1.14148 0.987648 3.93851
-1.53389 1.44454 -2.73839
-1.14775 1.37878 -3.25013
-1.54321 1.58344 -1.58926
-1.12348 1.49115 -2.222
-1.57918 1.72446 -0.322801
-1.15819 1.66488 -0.952612
-1.59358 1.81451 0.943843
-1.19385 1.7843 0.308302
-1.58218 1.87077 2.09356
-1.19155 1.84774 1.57795
-1.5651 1.92165 3.12605
-1.17462 1.89512 2.60665
-1.1578 1.94868 3.64328
-0.861004 -0.206248 -2.29292
-0.87809 -0.115574 -2.84635
-0.0600936 -0.244808 -2.81028
-0.843973 -0.175631 -1.11676
-0.00573422 -0.167692 -1.77557
-0.846373 -0.188742 0.204624
0.00140603 -0.183587 -0.457951
-0.82147 -0.1381 1.52609
-0.0150945 -0.193918 0.867198
-0.780348 -0.0488047 2.70309
-0.0268219 -0.082293 2.18499
-0.765905 0.0117204 3.73667
-0.753511 0.145283 3.16909
0.00370286 -0.0153209 3.2212
-0.756656 0.19838 4.20071
0.0202246 0.0387573 4.25214
-0.844962 0.24701 -2.94852
-0.0780851 0.01366 -2.88243
-0.744262 0.331943 3.63313
-0.743291 0.615688 3.00731
0.0224883 0.305884 3.11698
-0.746674 0.673309 4.04385
0.0321745 0.357999 4.14928
-0.781341 0.924555 -3.13127
-0.0674 0.48036 -3.01462
-0.745703 0.957053 3.41804
-0.761519 1.41046 2.75151
0.027679 0.925489 2.89764
-0.751505 1.46875 3.7904
0.0404727 0.988615 3.93843
-0.737345 1.42539 -2.73374
0.0243035 1.36875 -3.24792
-0.738461 1.57258 -1.58535
0.056401 1.48203 -2.21956
-0.772871 1.72472 -0.321509
0.0454614 1.66314 -0.951145
-0.791829 1.81754 0.942409
0.0154023 1.7863 0.308126
-0.784001 1.8721 2.09104
0.00885512 1.84877 1.57669
-0.767322 1.92216 3.12388
0.0214943 1.89543 2.60539
0.0382898 1.94888 3.64236
0.795176 -0.206252 -2.29292
0.739911 -0.115574 -2.84635
1.16684 -0.246726 -2.80911
0.839645 -0.175648 -1.11676
1.24114 -0.171428 -1.77387
0.832684 -0.188763 0.204624
1.25962 -0.178929 -0.458179
0.779553 -0.138111 1.52609
1.23263 -0.188 0.864913
0.757229 -0.0488092 2.70309
1.15155 -0.0888438 2.18099
0.789832 0.0117161 3.73667
0.779702 0.14528 3.16909
1.17233 -0.0200842 3.21849
0.809055 0.198376 4.20071
1.20069 0.0364803 4.25057
0.699477 0.247011 -2.94852
1.13454 0.0159292 -2.88207
0.798925 0.33194 3.63313
0.793458 0.615685 3.00731
1.17832 0.300479 3.11474
0.819322 0.673305 4.04385
1.20776 0.35564 4.14809
0.738245 0.92456 -3.13127
1.08191 0.49598 -3.01685
0.813855 0.957051 3.41804
0.810693 1.41046 2.75151
1.19716 0.924395 2.898
0.830268 1.46874 3.7904
1.22027 0.987643 3.93851
0.81805 1.4254 -2.73374
1.19303 1.37879 -3.25013
0.840324 1.57259 -1.58535
1.22722 1.49116 -2.222
0.833734 1.72472 -0.321509
1.24473 1.66489 -0.952613
0.816086 1.81754 0.942409
1.22795 1.78431 0.308302
0.81435 1.8721 2.09104
1.21428 1.84774 1.57795
0.827106 1.92215 3.12388
1.22066 1.89512 2.60665
1.23571 1.94867 3.64328
1.6128 -0.211902 -2.29005
1.56147 -0.115222 -2.84483
1.66111 -0.174709 -1.11529
1.64147 -0.029174 -1.81102
1.65957 -0.178166 0.20211
1.67283 -0.0151908 -0.500782
1.60463 -0.138733 1.51981
1.65195 -0.0212456 0.814724
1.56665 -0.0601188 2.69639
1.5632 0.0652777 2.12562
1.58319 0.00468004 3.73239
1.57095 0.135115 3.16414
1.5994 0.193744 4.19795
1.59014 0.0675055 -2.36579
1.51697 0.264899 -2.9504
1.65319 0.130344 -1.19652
1.57766 0.362397 -1.91782
1.66521 0.14173 0.111833
1.65249 0.456491 -0.623423
1.61052 0.182766 1.42053
1.64669 0.47937 0.671323
1.56749 0.260512 2.59337
1.57448 0.541609 1.96641
1.58716 0.324179 3.62971
1.58202 0.609189 3.00543
1.60872 0.669978 4.04275
1.5045 0.55979 -2.50242
1.53669 0.950208 -3.13571
1.57696 0.688544 -1.34473
1.57001 1.05413 -2.1051
[...]
POINT_DATA 29498
VECTORS point_vectors float
-1.94123 -1.73696 5.33826
-0.2022 0.13364 0.474465
-1.46189 1.40132 2.66208
0.121536 -0.158564 0.862519
1.93842 -1.73771 5.33637
0.218746 0.145156 0.509992
1.45049 1.39449 2.64617
-0.122533 -0.156024 0.858674
-0.0111385 0.0151344 1.65216
-0.055062 0.0707026 1.40024
-0.0263749 -0.03425 0.176976
0 0 0
0.0127216 0.0167196 1.74852
0.0605804 0.08006 1.55233
0.0281249 -0.0360447 0.182492
0 0 0
-0.653016 -0.31392 19.9829
-1.05916 -0.579067 20.6918
-0.386818 -0.367518 21.2657
0.0444311 -0.104898 21.47
0.563398 0.183714 21.342
0.829329 0.262216 21.1866
0.718199 0.0858308 20.5856
-0.724792 -0.203017 19.8859
-1.37721 -0.48718 20.5649
-0.572085 -0.392566 21.2771
-0.0293642 -0.177043 21.4679
0.678292 0.0312197 21.4848
0.994437 0.0718378 20.9748
0.883853 -0.0721315 20.4781
-0.721031 0.0140532 19.7166
-1.86782 0.0750575 20.2317
-1.14565 -0.234775 21.2724
-0.356698 -0.207844 21.5867
0.478647 -0.246347 21.5307
0.84847 -0.355887 21.1887
0.667364 -0.381269 20.7635
-0.426865 0.26435 19.8558
-0.880375 0.577756 20.098
-0.975929 0.526881 20.8824
-0.495481 0.175898 21.4154
0.0632558 -0.179011 21.394
0.280588 -0.370106 21.1699
0.327942 -0.389192 20.8899
-0.836873 -0.843202 19.3218
-1.47253 -2.6139 21.5957
-0.0840841 -0.271821 21.2541
0.0870093 0.147672 20.6394
0.184144 1.21205 17.6688
0.662942 1.61673 16.6199
0.71918 1.0389 16.9833
-0.985036 -0.652057 18.9767
0.89622 1.64746 7.95035
2.03644 0.952791 11.6988
-0.929949 0.0213004 18.8029
1.43453 -0.280491 10.0273
1.44435 -0.922733 14.0771
-0.380286 0.485484 19.4901
-0.989022 1.621 19.566
-1.30117 1.73132 20.747
-0.717583 0.750672 21.9813
0.0668038 -0.351729 21.5954
0.232166 -0.640817 21.2766
0.314206 -0.752299 20.8864
0.808892 -0.954939 19.1921
1.43081 -2.63544 21.637
0.0868677 -0.268169 21.2646
-0.074187 0.151451 20.5673
-0.0275111 1.13531 17.0037
-0.672708 1.59802 16.7222
-0.819077 0.932929 17.3591
0.935231 -0.723339 18.769
-1.05204 1.65978 9.31314
-1.89921 0.896209 13.6569
0.845003 0.024763 18.5768
-1.54677 -0.241673 11.8562
-1.36251 -0.814423 15.6163
0.395509 0.46799 19.5114
1.03426 1.42475 19.6585
1.33141 1.5392 20.7869
0.718051 0.720392 21.9608
-0.069843 -0.346835 21.5931
-0.241928 -0.621512 21.2758
-0.324653 -0.716922 20.9159
0.698145 -0.358424 19.9116
1.07864 -0.591879 20.6952
0.38934 -0.36408 21.2593
-0.0442603 -0.102502 21.4606
-0.570573 0.190716 21.3367
-0.818233 0.268608 21.1791
-0.698563 0.0939545 20.5779
0.808758 -0.246526 19.7987
1.39868 -0.503294 20.5748
0.568263 -0.395181 21.2802
0.0243126 -0.176204 21.4704
-0.670533 0.0292918 21.4844
-0.936773 0.077509 20.9196
-0.837347 -0.0554385 20.4845
0.793782 0.0190596 19.619
1.86887 0.0755729 20.2356
1.13257 -0.230648 21.2679
0.353815 -0.206782 21.5834
-0.469094 -0.244537 21.5188
-0.791879 -0.331591 21.2018
-0.649827 -0.375222 20.7343
0.424721 0.256175 19.8739
0.831992 0.512653 20.1471
0.919883 0.464174 20.8804
0.475441 0.164828 21.3945
-0.0618294 -0.176447 21.3856
-0.274535 -0.352314 21.1538
-0.317561 -0.366134 20.8669
0 0 0
-3.41793e-05 -0.00413199 0.0308901
-0.0724076 0.0656165 1.75375
-0.0193774 0.00368728 0.00147898
-0.00320406 -0.0539399 -0.0484099
-0.0783488 0.104724 2.2769
0.000599937 0.272011 0.457768
-0.0747409 -0.0150503 0.276151
-0.00115652 0.0229465 -0.0488113
0.0899591 0.0655783 0.318889
0 0 0
0.0756872 0.0682418 1.80798
0.0188382 0.00391029 0.00115686
0.0834954 0.113148 2.50215
0.0749437 -0.0151522 0.27702
-0.090362 0.0659603 0.319167
-0.0250674 0.0205035 1.29412
0 0 0
-0.000276379 -0.000358478 0.0346692
-0.00830724 0.0168461 0.0842085
0 0 0
0.000720564 0.00164122 0.00724067
-6.64367e-06 0.00396452 0.00983771
-9.15724e-06 -0.000851732 0.00800235
0.0291981 0.026534 1.43404
0 0 0
0.00834078 0.0169216 0.0844619
-0.000711819 0.00161577 0.00710463
-0.00036665 -0.000446532 0.0174869
0 0 0
0 0 0
0 0 0
0 0 0
0 0 0
-0.000364646 0.000356321 -0.000131274
0.000169001 0.000852135 -0.000238235
0 0 0
4.55509e-06 0.00196189 0.0154427
-1.36828e-06 3.35208e-05 -5.25664e-05
0.000364846 -0.000434305 0.0173765
0 0 0
0 0 0
-2.63372 -1.28033 20.6865
-2.26554 -4.49276 22.6155
-2.56333 -1.89259 18.2697
1.15344 0.607943 18.6497
-0.202195 1.23231 8.87883
0.0672161 1.1284 4.81946
-4.39662 0.653616 19.4415
-2.57264 0.46658 16.9459
-2.34757 3.02327 18.7026
0.87802 -0.251882 20.2496
0.657209 -0.00785123 6.1958
0.576081 -0.62742 19.7026
2.20877 -4.56819 22.6944
2.65484 -2.24004 17.8821
2.66551 -1.31032 20.6837
0.310137 1.13211 8.27013
-0.185627 1.13491 5.29768
-1.14383 0.588115 18.7447
2.51951 0.556655 16.5384
2.42078 2.76866 18.8236
4.391 0.656175 19.4306
-0.795961 0.0301756 7.29334
-0.568916 -0.617908 19.763
-0.86038 -0.273202 20.3942
-0.515312 -0.801427 21.6526
0.00467317 -0.00748437 16.3626
0.046146 -0.264284 21.1816
0.0331816 0.195985 15.7847
-1.84634 -0.651413 21.6054
-2.98229 1.98583 20.737
-0.573368 -0.431611 21.4096
-0.986629 0.489745 21.0406
-0.000721252 -0.00573882 16.4569
0.516945 -0.802233 21.6494
-0.0296729 0.189216 15.3844
-0.0449289 -0.270176 21.207
2.94268 1.73668 20.8229
1.83417 -0.641049 21.5986
1.05176 0.458289 21.3874
0.567741 -0.42518 21.429
-0.961544 -0.481199 20.1966
-0.710871 -0.258032 19.93
-0.803947 -0.486802 19.7101
-0.690176 -0.487935 21.1133
-1.23646 -0.540741 20.6323
-1.51075 -1.235 20.9109
-0.150528 -0.243361 21.367
-0.482428 -0.400113 21.2859
-0.248187 -0.487689 21.4553
0.301461 0.0379963 21.4497
0.00441334 -0.149589 21.4676
0.141422 -0.089652 21.5395
0.701668 0.241271 21.1896
0.615452 0.123659 21.3808
0.782635 0.551616 21.3252
0.799789 0.205061 21.1053
0.908324 0.17558 20.9829
1.13647 0.698244 20.5773
0.803403 0.0366346 20.5896
0.887018 0.692332 20.8682
-1.11887 -0.35704 20.0534
-0.741786 -0.0960215 19.7883
-0.915101 -0.351348 19.5548
-0.970775 -0.467385 21.1014
-1.71068 -0.26327 20.4073
-0.280462 -0.305362 21.3938
-0.848692 -0.380774 21.3007
0.297036 -0.0584089 21.5479
-0.1888 -0.23943 21.5528
0.881804 0.0746774 21.3018
0.632629 -0.132414 21.4783
0.982138 0.0431586 21.7061
1.02368 -0.146662 21.0228
1.61226 0.609156 18.7416
0.840639 -0.230021 20.5694
1.39007 0.585298 20.2909
-1.27181 0.0446542 19.7679
-0.601467 0.190782 19.7667
-0.891553 0.0220308 19.3393
-1.60437 -0.0926285 21.0077
-1.41016 0.521197 20.0864
-0.762808 -0.257504 21.4804
-1.25586 0.245097 21.0738
0.0767882 -0.186887 21.6461
-0.499365 -0.0286175 21.5518
0.681642 -0.307335 21.374
0.244186 -0.273405 21.452
0.9337 -0.423214 20.9951
0.480966 -0.442231 21.1839
1.29703 -0.557962 20.3877
0.521849 -0.455812 20.8484
1.17816 -0.600736 20.4371
-0.642472 0.413387 19.9116
-0.441943 0.365929 19.6732
-1.01643 0.621918 20.5211
-1.04899 1.01299 19.8709
-0.812936 0.364837 21.1948
-1.26146 0.999187 20.8698
-0.178392 -0.0181011 21.4494
-0.641587 0.378087 21.6547
0.194107 -0.270365 21.2856
0.0722986 -0.263074 21.5267
0.368381 -0.371679 21.084
0.284023 -0.498612 21.1866
0.393356 -0.507175 21.0397
-1.65701 -2.05345 19.5146
-0.946181 -0.770356 19.1424
-0.0825492 -1.42056 18.6932
-0.387549 -0.766018 22.0334
-0.0120935 -3.36193 23.0996
0.0213446 -0.0440572 20.7975
-0.00255778 -0.279491 18.3989
0.135119 0.555828 19.3511
-0.00322967 0.0479262 17.5352
0.338918 1.35467 17.2772
-0.0526038 0.332928 12.9616
0.690419 1.39902 17.2693
0.782242 1.86337 12.8677
-0.0181261 0.813263 10.7344
1.27618 1.03653 13.8572
-0.0638122 1.44272 11.3342
-0.991809 -0.319965 18.7586
-0.150459 -1.08747 18.0307
1.628 1.26555 10.0785
1.13391 0.653725 5.44
0.0702075 -0.932876 -3.3751
2.18234 0.39027 11.0338
-0.0782477 -1.36986 1.93217
-0.612686 0.403322 19.1394
-0.105438 0.0634123 17.9709
1.85922 -0.657859 12.7755
0.63423 -0.985999 20.3601
-0.0293257 -0.420334 -0.0577674
0.568383 -1.13907 20.2566
-0.308199 -2.07697 5.2777
-0.655324 0.956833 19.3593
0.0144688 0.599128 19.3018
-1.1702 1.82491 20.2813
0.11268 2.17488 19.2868
-1.29899 1.56477 21.483
0.113352 2.71361 20.4695
-0.211968 0.053738 21.8972
0.0200219 1.35487 22.4482
0.15469 -0.517435 21.4462
-0.000864888 -0.371705 21.8481
0.288107 -0.740931 21.1147
-0.00718475 -0.750873 21.3754
-0.00487159 -0.821373 21.0615
1.65494 -2.26965 19.4281
0.883046 -0.847781 18.9699
0.832377 -0.587836 19.6195
0.387398 -0.755573 22.0213
1.52948 -1.29543 20.9348
-0.0151822 -0.0340674 20.7991
0.250907 -0.493397 21.4533
-0.0869718 0.543871 18.9815
-0.144242 -0.0819356 21.5159
-0.281177 1.334 17.1289
-0.796391 0.634796 21.0908
-0.731127 1.39026 17.5173
-0.864337 1.83262 13.1406
-1.1313 0.660552 20.6017
-1.39817 0.910019 14.34
-0.881451 0.608323 20.886
0.928786 -0.351551 18.54
0.956173 -0.459075 19.3807
-1.62977 1.18171 11.4768
-1.2294 0.621432 6.9366
-1.52113 0.498095 19.3235
-2.03159 0.330531 13.2367
-1.27496 0.474784 20.3767
0.594736 0.423182 19.1004
0.907911 0.0264899 19.2046
-1.84837 -0.582455 14.2184
-0.628427 -0.947983 20.6354
-1.20555 -0.539913 20.6865
-0.615002 -1.06509 20.3217
-1.08313 -0.56059 20.506
0.691102 0.894327 19.422
0.445963 0.35057 19.6902
1.23498 1.65667 20.321
1.04288 0.885096 19.9368
1.29429 1.38676 21.4737
1.19755 0.862857 20.8809
0.209633 0.0514381 21.8814
0.630828 0.352043 21.6278
-0.160465 -0.506343 21.4438
-0.0714388 -0.257655 21.5155
-0.294408 -0.706439 21.0797
-0.286912 -0.486454 21.1801
-0.376698 -0.482889 21.0131
1.00958 -0.519844 20.1937
0.759372 -0.302019 19.8532
0.697393 -0.488574 21.1113
1.25639 -0.558766 20.6408
0.154803 -0.241743 21.3636
0.481465 -0.403125 21.2862
-0.306013 0.046739 21.4502
-0.00551892 -0.15163 21.4639
-0.703389 0.249612 21.1949
-0.617475 0.124299 21.3748
-0.780103 0.215139 21.081
-0.869965 0.180676 20.9663
-0.776991 0.046471 20.5891
1.2072 -0.411181 20.028
0.818424 -0.11994 19.6886
0.972921 -0.476314 21.1136
1.72541 -0.268564 20.41
0.279461 -0.308365 21.393
0.843053 -0.377193 21.3006
-0.29729 -0.0603394 21.5428
0.187108 -0.237817 21.5513
-0.858346 0.0658254 21.2987
-0.625155 -0.128604 21.4718
-0.957408 0.0529849 21.7116
-0.974247 -0.122309 21.0233
-0.821507 -0.221328 20.5494
1.34594 0.0705946 19.7176
0.605957 0.194396 19.7536
1.59527 -0.0914811 21.0077
1.36975 0.479845 20.1211
0.756895 -0.254894 21.4771
1.19202 0.233257 21.0642
-0.0756357 -0.184982 21.6392
0.488717 -0.0239109 21.5387
-0.658402 -0.297689 21.3705
-0.238204 -0.263955 21.4504
-0.868433 -0.395099 20.8647
-0.454046 -0.406452 21.156
-0.513736 -0.43556 20.8019
0.624487 0.383712 19.9512
0.971195 0.557679 20.5334
0.774041 0.339209 21.1815
0.173551 -0.019716 21.4399
-0.191732 -0.264189 21.2764
-0.362143 -0.355955 21.0626
-1.06399 -0.426395 20.1179
-2.16312 -2.15764 18.8946
-1.3589 -0.946426 19.9581
-1.76766 -0.743285 19.6003
-0.86209 -0.420493 19.6328
-2.01513 -1.3384 20.8481
-0.826378 -0.488159 21.1076
-0.291575 -0.279739 17.9545
-0.670241 -0.770043 21.4471
-1.1678 -1.00864 21.6691
-0.327458 -0.631013 21.5195
-0.216643 -0.283183 21.3785
0.0286443 0.090596 15.868
-0.0324507 -0.293709 21.4825
-0.171678 -0.54206 21.3952
0.127194 -0.182244 21.5774
0.299315 -0.00816296 21.4624
-0.101478 0.460008 12.9513
0.427136 0.225508 21.5273
0.457718 0.135569 20.5214
1.00731 0.648085 20.2098
0.784573 0.17393 21.2901
0.0768505 1.34524 11.0425
0.925371 0.703776 20.7366
1.30275 0.613407 18.5989
1.31585 0.653889 20.5014
0.890964 0.12411 21.4057
1.20362 1.35994 13.2431
1.18798 0.759187 20.1522
1.64718 0.451892 18.4199
1.0718 0.655472 20.7622
-1.26511 -0.175021 19.8786
-2.99229 -0.92045 17.1252
-1.96359 0.149589 18.9397
-0.932646 -0.195146 19.4045
-4.01427 -0.715453 20.1959
-1.34411 -0.342187 21.1158
-2.69665 -0.211204 21.664
-1.03693 -0.866835 21.6561
-0.509946 -0.350052 21.4537
-1.21434 -0.691751 21.6331
-0.17111 -0.348637 20.9902
0.196247 -0.158482 21.6276
0.165763 -0.216352 21.0245
1.11766 0.231511 18.4517
0.855085 -0.126842 21.2763
-0.0170514 0.592348 2.58704
1.07634 -0.41442 20.4285
1.68362 0.0265998 18.7053
1.03111 -0.170093 21.6444
2.07469 0.382623 8.7625
1.29244 -0.599308 20.7718
1.50866 0.0650414 20.0275
-0.989318 0.344299 19.7978
-1.29504 1.16509 18.538
-0.719017 0.653475 19.6768
-0.667256 0.305992 19.4907
-2.11919 1.31659 19.6048
-1.46389 0.434275 20.6885
-2.51734 2.60418 20.6215
-1.23866 1.14225 20.4263
-2.00353 0.618506 21.1234
-0.959036 0.0883402 21.3945
-3.29026 1.42122 22.2099
-1.10655 0.774127 21.3434
-0.813322 0.0997466 21.9421
-0.0841156 -0.142788 21.5753
0.253864 -0.195406 20.3986
-0.208839 0.0172782 21.6603
0.32166 -0.431743 21.6639
0.403675 -0.3731 21.3404
0.561916 -0.813946 20.0766
0.201628 -0.397167 21.3564
0.585384 -0.70427 21.2904
0.523063 -0.462154 21.0197
0.746107 -1.14775 20.2292
0.349031 -0.559224 20.9492
0.618755 -0.728284 20.8969
2.18015 -2.47848 18.6978
-0.0984194 -4.21123 18.9725
-0.193801 -5.09435 15.0079
-0.103987 -1.30266 18.3037
-0.00778311 -2.69461 17.842
0.298539 -0.27182 17.8893
-0.00309163 -0.769886 20.1052
-0.00568179 -0.0329728 9.01533
-0.0251472 0.0919533 15.707
-0.00406538 -0.0852541 17.7056
0.000108619 0.0773297 9.63317
0.0982712 0.4317 12.6377
-0.00796618 0.273011 15.3136
-0.0776383 -0.0155334 3.9031
-0.0654554 1.33403 11.0255
-0.0374598 0.264467 11.8784
0.0101514 -0.995441 -3.69908
0.0128611 0.277704 3.01232
-1.2709 1.34214 13.6197
0.037604 1.26834 10.5664
0.07327 -0.977539 -0.419954
-0.0738669 0.555862 7.68222
3.0732 -1.0147 16.5301
-0.165748 1.143 14.3163
-0.155195 -0.518972 17.7772
-0.0778495 0.601313 3.1981
0.00628841 0.769521 -0.183109
0.015124 -1.11567 -4.28128
-2.07886 0.284234 10.3638
-0.178136 -1.04452 1.68402
-0.26166 -2.69733 -0.340488
1.29859 1.15653 18.5528
0.0534588 1.27092 19.0462
-0.0192967 0.593125 18.735
0.105535 4.54383 18.1258
2.5621 2.37739 20.6586
0.0856765 2.56017 20.0849
0.117324 4.40631 19.5103
3.12579 1.21112 22.154
0.0897404 2.95452 21.5719
0.005668 0.616765 16.2672
-0.207372 -0.194317 20.6558
0.00571271 0.149048 22.1598
-0.00562458 -0.578172 11.7534
-0.553344 -0.793631 20.2657
-0.00162583 -0.579852 21.6524
-0.0224156 -0.953757 15.5525
-0.776733 -1.07266 20.2841
-0.0148137 -0.955052 21.0874
-0.0736957 -1.15658 18.0349
1.14436 -0.479674 20.1049
1.41787 -1.10122 19.9131
1.91122 -0.91462 19.4118
0.904408 -0.530142 19.476
2.04895 -1.39577 20.8597
0.832277 -0.494859 21.1128
0.666348 -0.782305 21.451
1.16852 -1.02003 21.6741
0.334958 -0.635787 21.5107
0.217609 -0.285326 21.3762
0.0272723 -0.294635 21.479
0.174715 -0.546805 21.4146
-0.126818 -0.18095 21.5296
-0.30226 -0.0103213 21.4648
-0.424158 0.251087 21.4874
-0.454589 0.124485 20.563
-1.00223 0.694044 20.0021
-0.773916 0.172835 21.2883
-0.916176 0.732174 20.6609
-1.27802 0.542804 19.0419
-1.27942 0.593278 20.7181
-0.868606 0.134758 21.3984
-1.19633 0.691226 20.156
-1.61087 0.289103 18.913
-0.981181 0.556608 20.8588
1.36816 -0.19631 19.8405
2.03768 0.166259 18.7813
0.957392 -0.213149 19.2234
4.03904 -0.725707 20.1813
1.34275 -0.342615 21.1182
2.68523 -0.210476 21.6536
1.0392 -0.862635 21.664
0.506939 -0.34759 21.4525
1.20985 -0.683036 21.6485
0.173085 -0.354351 21.0392
-0.197103 -0.155939 21.6226
-0.159648 -0.223366 21.0822
-1.10815 0.21078 18.6329
-0.835266 -0.117004 21.274
-1.03457 -0.427637 20.6566
-1.55185 -0.054382 19.5279
-0.986202 -0.14758 21.5511
-1.19112 -0.56693 20.9709
-1.37692 -0.0564111 20.1123
0.98132 0.339832 19.8098
0.721739 0.595939 19.7185
0.665636 0.323055 19.4649
2.03574 1.15749 19.6885
1.40818 0.407711 20.6871
1.20653 0.992372 20.4506
1.89425 0.546298 21.1287
0.918953 0.0885786 21.3791
1.06158 0.695849 21.3182
0.794145 0.0957894 21.9151
0.0821987 -0.13675 21.5627
0.212461 0.018773 21.6388
-0.315849 -0.418643 21.6561
-0.394426 -0.35901 21.3254
-0.199499 -0.389117 21.3434
-0.595969 -0.675036 21.2853
-0.494837 -0.41797 21.0275
-0.356069 -0.531704 20.9698
-0.624274 -0.632613 21.0247
-1.58525 -0.882975 19.7877
-0.870888 -0.903098 21.5388
-0.0729832 -0.419333 21.5491
0.479185 0.177316 21.2181
1.21202 0.734915 20.2594
1.42028 0.659605 19.6321
-2.02141 -0.381593 19.1762
-1.94955 -0.829405 21.8899
-0.500477 -0.668403 21.2273
0.370222 0.023988 20.1392
1.32848 0.114216 18.5463
1.62119 0.0747622 18.4938
-1.24553 0.670936 19.312
-2.18019 1.07154 20.726
-1.6433 0.309871 21.7269
-0.100166 -0.16313 21.8949
0.483994 -0.583514 21.4148
0.592077 -0.769244 21.1544
-0.131965 -5.13223 17.3809
-0.0047395 -0.147806 9.64029
-0.0031302 0.00140968 9.19577
-0.0200764 0.147812 7.69665
-0.0311036 -0.305178 2.42968
0.0535876 0.203915 4.17406
-0.205441 -1.77779 12.7795
0.0390968 -0.324738 -3.24591
-0.136874 -1.82782 -3.34973
0.0077146 1.86216 17.6709
0.097158 4.09631 20.2488
0.0735271 5.40896 21.0302
-0.00742745 -0.457503 13.0841
-0.00903041 -0.635481 13.4624
-0.0718533 -1.39872 17.7632
1.67509 -1.04671 19.7122
0.870641 -0.916021 21.5382
0.0736201 -0.423862 21.539
-0.476592 0.199621 21.1155
-1.20454 0.714934 20.2654
-1.39524 0.551707 19.9868
2.16806 -0.437512 18.9729
1.94956 -0.833572 21.8878
0.504733 -0.668048 21.2697
-0.367511 0.00732813 20.243
-1.3051 0.0498148 19.2072
-1.51782 -0.0018275 19.168
1.24123 0.660152 19.3272
2.08525 0.960681 20.7342
1.56507 0.288342 21.6915
0.102027 -0.158326 21.8764
-0.483845 -0.558891 21.4117
-0.590703 -0.734161 21.0645
-0.0711803 -0.0143748 0.0736213
-0.000435082 -0.00490415 0.0554293
-0.105745 0.0301413 2.11605
-0.0116197 -0.000275061 -0.00637111
0 0 0
0.0214386 0.194254 0.955511
-0.484453 0.0584757 0.574715
-0.0706804 0.3388 0.493244
-0.166581 0.13677 0.493274
-0.012327 -0.0028949 0.00768447
-0.012197 -0.00409766 0.00451272
0.0359276 0.017657 0.22834
-0.000296063 -0.00522289 0.0597361
0.0953337 -0.0193786 0.0986231
0.108309 0.0311503 2.15057
0 0 0
0.00743513 -4.57042e-05 -0.00411282
-0.0311967 0.224976 1.08046
0.0709283 0.338454 0.492668
0.488836 0.0615887 0.578945
0.167302 0.137534 0.495715
0.0100267 -0.00338629 0.00256062
0.00897158 -0.00383037 0.015083
-0.0361083 0.0179088 0.227641
-0.0265709 0.141051 2.29008
-0.0201108 0.00880241 1.15041
0 0 0
0 0 0
-0.0761675 0.0899961 1.90357
-0.0301747 0.0236485 1.48304
-0.00978569 0.0191433 0.290879
0 0 0
-0.0518262 -0.0390398 0.159964
-0.000887539 -0.00227777 0.0400354
-0.00110924 0.00245089 0.0653975
-0.00988826 0.00608557 0.0144664
0.0564128 0.0837876 0.267649
-0.00168966 0.023146 0.0774147
0.000500314 0.0010327 0.00312943
0.0539074 0.000400005 0.322315
0.0265916 0.148724 2.38774
0 0 0
0.0220293 0.00949244 1.21592
0 0 0
0.0829679 0.102906 2.1147
6.60987e-19 -1.6484e-19 -1.60791e-17
0.0343799 0.0262675 1.64408
0.010943 0.0199221 0.299238
0.0516243 -0.0388847 0.159436
0.00804994 0.0047889 0.0117094
0.000883837 -0.00225239 0.0400484
0.000985368 0.00251911 0.0649141
-0.0585373 0.0873625 0.277539
-0.0534231 0.000537081 0.319235
0.00169711 0.0234846 0.0785356
-0.000553007 0.00113957 0.00345899
-0.00752512 -0.00794125 0.106246
0 0 0
0 0 0
0 0 0
-0.000205303 0.000910779 0.0134807
0 0 0
0.00587668 0.0215042 0.210876
-0.0295268 0.0119529 -0.00263264
0 0 0
-0.00165681 -0.0161794 -0.0154738
7.13778e-06 9.76755e-05 0.000828386
0 0 0
-0.00193661 0.148133 0.161275
1.79924e-05 0.0166797 0.0616887
-6.03337e-05 -0.000245078 0.0061873
-0.00992619 0.00711217 0.0480822
0.000399648 0.0213823 -0.00866488
-1.37384e-05 0.000671032 -0.00210289
0.000176929 0.000882059 0.0046429
0.00082233 -0.00146244 0.00575959
0 0 0
0.00786335 -0.00826244 0.110722
0 0 0
0.000207591 0.000925398 0.0135727
0.0244203 0.0100156 -0.00304052
-0.00574383 0.0211571 0.20688
0 0 0
-6.71826e-06 9.23258e-05 0.000781562
0.00989619 0.00709703 0.0479685
5.67064e-05 -0.00022981 0.00586561
-0.000835336 -0.0014243 0.00534767
-0.000189701 0.000948854 0.00498415
0 0 0
0 0 0
1.61897e-18 -2.85838e-18 4.03302e-17
0 0 0
0 0 0
0 0 0
8.7373e-20 -2.31391e-18 -1.20067e-17
0 0 0
0 0 0
0 0 0
0.00122494 0.0154671 0.0671129
-0.0709868 0.0769765 0.580209
2.45342e-07 0.000463005 0.00507648
-1.58903e-05 0.0215135 0.0465169
-1.03574e-05 0.000192132 0.0137222
-2.94404e-06 -0.000617407 0.00290589
0 0 0
0 0 0
0 0 0
0 0 0
0 0 0
0 0 0
0.0698947 0.0767751 0.578229
-0.00122125 0.0154221 0.066874
-0.00414417 -0.00105704 0.0961573
-1.40485e-17 -1.99199e-17 2.68947e-16
0 0 0
-0.000144751 -0.0372603 0.174077
0 0 0
0.000183143 0.00847673 0.0702643
0 0 0
0.00150923 0.0210561 0.070569
0 0 0
0 0 0
0.00203165 0.00121923 0.0213503
0.00394846 0.00913435 0.0541141
0 0 0
0 0 0
0 0 0
0 0 0
0 0 0
0 0 0
0 0 0
0 0 0
0 0 0
0 0 0
0 0 0
1.00748e-18 -6.48612e-18 -6.08952e-17
0 0 0
1.79234 -2.73783 -0.56878
-0.19836 0.281986 0.121793
0.201975 0.29064 0.123465