# vtk DataFile Version 2.0
tri_press
ASCII
DATASET UNSTRUCTURED_GRID
POINTS 3682 float
-0.595 0.145 -2.00105
-0.679353 0.255 1.965
-0.662054 0.675 -1.945
-0.595 0.925207 2.035
0.591223 0.145 -2.005
0.679358 0.255 1.965
0.662643 0.675 -1.945
0.595 0.925207 2.035
-0.689142 0.115642 -0.679033
-0.738276 0.131293 0.642983
-0.765109 0.883809 -0.618333
-0.723595 0.948048 0.708334
0.679808 0.12246 -0.681667
0.732464 0.135849 0.641667
0.765761 0.884068 -0.618333
0.72368 0.947937 0.708334
-1.29939 -0.277991 -3.09132
-1.30687 -0.219995 -2.03167
-1.37642 -0.235096 -0.709683
-1.41327 -0.232467 0.611338
-1.38033 -0.14895 1.93325
-1.3706 -0.0929039 2.99252
-1.37802 -0.051017 4.05254
-1.29793 0.04964 -3.06097
-1.30752 0.133434 -2.00093
-1.39447 0.139383 -0.678214
-1.41862 0.142373 0.644
-1.35357 0.217413 1.96665
-1.35438 0.271256 3.02604
-1.37163 0.313323 4.08599
-1.32676 0.662953 -3.00206
-1.36129 0.745693 -1.94277
-1.44809 0.887734 -0.616991
-1.41394 0.931262 0.709092
-1.30642 0.933523 2.03488
-1.33118 0.98468 3.09415
-1.36673 1.03655 4.15346
-1.36102 1.71367 -2.9101
-1.3846 1.81186 -1.84987
-1.42236 1.96118 -0.52274
-1.42867 2.05596 0.805382
-1.40529 2.08893 2.13264
-1.39632 2.11455 3.19314
-1.40222 2.15205 4.25281
-0.625665 -0.272704 -3.09195
-0.616522 -0.210803 -2.03218
-0.67464 -0.245648 -0.710467
-0.718239 -0.23987 0.610348
-0.699704 -0.12971 1.93204
-0.694503 -0.0796198 2.99162
-0.701066 -0.0444376 4.05189
-0.621218 0.0468582 -3.06161
-0.687662 0.284773 3.02528
-0.699431 0.31922 4.08546
-0.641969 0.63344 -3.00308
-0.668255 0.984723 3.09402
-0.69879 1.0375 4.15323
-0.66371 1.69504 -2.91108
-0.678108 1.79504 -1.85085
-0.712942 1.95924 -0.523428
-0.732642 2.06148 0.805129
-0.725707 2.09016 2.13266
-0.720946 2.11355 3.19316
-0.725977 2.15121 4.25274
0.663523 -0.271532 -3.0945
0.647802 -0.209124 -2.03534
0.695345 -0.240463 -0.71284
0.718269 -0.235822 0.609035
0.682075 -0.128311 1.93159
0.662446 -0.07839 2.9912
0.653572 -0.0429901 4.05136
0.655518 0.0475238 -3.06406
0.646748 0.285579 3.025
0.643429 0.320473 4.085
0.680261 0.633875 -3.0043
0.616855 0.985353 3.0938
0.627799 1.03859 4.15283
0.719496 1.696 -2.91201
0.725643 1.79595 -1.85158
0.715428 1.96025 -0.524005
0.674449 2.0625 0.804654
0.635023 2.09118 2.13224
0.625111 2.11467 3.19271
0.62328 2.15248 4.25222
1.32673 -0.275197 -3.09586
1.31797 -0.216096 -2.03672
1.3823 -0.227252 -0.713694
1.41783 -0.225561 0.608893
1.37836 -0.145175 1.93199
1.35033 -0.089896 2.99146
1.33808 -0.047907 4.05138
1.31716 0.0516277 -3.06528
1.29669 0.135818 -2.00591
1.38274 0.146941 -0.682025
1.42154 0.14892 0.641801
1.3622 0.220374 1.96571
1.33203 0.273673 3.02521
1.32529 0.316103 4.08496
1.34929 0.664344 -3.00478
1.35479 0.746733 -1.94493
1.44015 0.890635 -0.618658
1.41509 0.934148 0.708026
1.30873 0.935491 2.03423
1.29679 0.98664 3.09346
1.30517 1.039 4.15254
1.40744 1.71576 -2.91207
1.41891 1.81393 -1.85151
1.41978 1.96347 -0.524076
1.37989 2.05831 0.804278
1.32865 2.09125 2.13166
1.30964 2.11699 3.19214
1.30506 2.15472 4.25171
-0.645704 0.41 -1.9902
-0.00188851 0.121904 -2.02612
-0.654839 0.117553 -1.34004
-0.700054 0.590104 2.06288
2.5034e-06 0.22758 1.99242
-0.747347 0.154614 1.30399
0.000294507 0.75167 -2.02167
-0.774509 0.840331 -1.28167
0 0.970011 2.0798
-0.694878 0.972208 1.37167
0.643738 0.41 -1.9918
0.649987 0.119258 -1.34333
0.700016 0.590104 2.06284
0.745058 0.156278 1.30333
0.774969 0.840301 -1.28167
0.694947 0.972179 1.37167
-0.718029 0.119148 -0.018025
-0.851524 0.499726 -0.648683
-0.00466714 0.132303 -0.68035
-0.860478 0.53967 0.675658
-0.00290613 0.143579 0.642325
-0.753348 0.924925 0.045
0.000325739 1.03653 -0.618333
4.26614e-05 1.27478 0.708334
0.707884 0.127406 -0.02
0.852677 0.503264 -0.65
0.860646 0.541893 0.675
0.753839 0.925121 0.045
-0.864992 0.454863 -1.31085
0.864311 0.456632 -1.3125
-0.00327782 0.135483 -1.34169
0.000310123 0.964578 -1.28167
-0.000797004 0.41 -2.25016
-0.848861 0.519698 0.0134875
0.84976 0.522579 0.0125
-0.00378663 0.137159 -0.0190125
0.0001842 1.27946 0.045
-0.888178 0.564887 1.33783
0.888943 0.565998 1.3375
-0.00145182 0.181524 1.30366
2.13307e-05 1.14572 1.37167
1.2517e-06 0.590104 2.24957
-0.600237 0.2775 -1.97551
-0.298444 0.121914 -2.02512
-0.640987 0.115209 -1.67055
-0.703053 0.422552 2.02729
-0.339675 0.224557 1.99544
-0.761239 0.156917 1.6345
-0.669671 0.5425 -1.98339
-0.33088 0.729371 -1.99937
-0.756325 0.79571 -1.61333
-0.650872 0.757655 2.05228
-0.2975 0.959152 2.06895
-0.659891 0.963659 1.70333
0.294667 0.121916 -2.0271
0.597032 0.2775 -1.97795
0.635147 0.117587 -1.67417
0.33968 0.224561 1.99544
0.703264 0.422552 2.0275
0.757979 0.159868 1.63417
0.331469 0.729956 -1.99996
0.669315 0.5425 -1.98453
0.756872 0.795716 -1.61333
0.2975 0.959234 2.06903
0.65081 0.757655 2.05222
0.659937 0.963656 1.70333
-0.668892 0.119696 -1.00954
-0.70354 0.11744 -0.348529
-0.832362 0.276669 -0.663858
-0.341578 0.134627 -0.679692
-0.737663 0.148102 0.973488
-0.729302 0.124071 0.312479
-0.822685 0.323828 0.659321
-0.364854 0.148911 0.642654
-0.769523 0.861784 -0.95
-0.863113 0.719166 -0.633508
-0.759813 0.904951 -0.286667
-0.406148 1.00768 -0.618333
-0.705538 0.956429 1.04
-0.859528 0.777605 0.691996
-0.742226 0.940241 0.376667
-0.426777 1.24142 0.708334
0.663298 0.122459 -1.0125
0.332738 0.137046 -0.681009
0.693903 0.124876 -0.350833
0.834875 0.278546 -0.665834
0.728415 0.156409 0.9725
0.35863 0.152013 0.641996
0.719523 0.132279 0.310833
0.823847 0.325225 0.658333
0.769947 0.861767 -0.95
0.406735 1.00768 -0.618333
0.86354 0.720826 -0.634167
0.760314 0.905108 -0.286667
0.705711 0.956455 1.04
0.426572 1.24078 0.708334
0.859374 0.778521 0.691667
0.742698 0.940468 0.376667
-0.848743 0.432431 -1.65053
-0.323251 0.41 -2.20884
-0.00258317 0.131105 -1.6839
-0.00134276 0.265952 -2.18938
-0.860258 0.286208 -1.32545
-0.329059 0.130694 -1.34086
-0.86263 0.577495 1.70035
-0.350027 0.590104 2.2172
-0.000724656 0.188291 1.64804
1.87755e-06 0.408842 2.1915
-0.892377 0.35975 1.32091
-0.374399 0.175587 1.30383
0.000302315 0.881351 -1.65167
-0.000251248 0.580835 -2.22922
-0.878909 0.647597 -1.29626
-0.387099 0.892737 -1.28167
1.06654e-05 1.05252 1.72574
6.25849e-07 0.780057 2.16414
-0.894458 0.768548 1.35475
-0.347428 1.12614 1.37167
0.847715 0.433316 -1.65215
0.32147 0.41 -2.20947
0.864405 0.287945 -1.32792
0.323355 0.130473 -1.34251
0.862903 0.578051 1.70017
0.350008 0.590104 2.21719
0.892361 0.361138 1.32042
0.371803 0.175351 1.3035
0.879295 0.648466 -1.29708
0.387639 0.893007 -1.28167
0.894385 0.769089 1.35458
0.347484 1.12612 1.37167
-0.821057 0.300617 -0.00226873
-0.354108 0.141753 -0.0185187
-0.866665 0.477294 -0.979769
-0.852597 0.509712 -0.317598
-0.00397248 0.139587 -1.01102
-0.00422689 0.135152 -0.349681
-0.84884 0.529684 0.344573
-0.885865 0.552279 1.00674
-0.00334638 0.139869 0.311656
-0.00217897 0.176248 0.972994
-0.849553 0.746535 0.0292438
-0.448059 1.24515 0.045
0.000317931 1.00209 -0.95
0.00025497 1.1793 -0.286667
0.000113431 1.29738 0.376667
3.19961e-05 1.21677 1.04
0.821955 0.303426 -0.00375003
0.345772 0.144836 -0.0195063
0.870544 0.479948 -0.98125
0.853477 0.512921 -0.31875
0.849664 0.532236 0.34375
0.885972 0.553946 1.00625
0.849976 0.747938 0.02875
0.448069 1.24441 0.045
-0.845026 0.281854 -1.66054
-0.857857 0.296946 -0.994653
-0.878395 0.669682 -0.964884
-0.85912 0.595049 -1.63193
0.847257 0.282722 -1.66316
0.856822 0.595483 -1.63274
0.878463 0.671066 -0.965625
0.86159 0.300403 -0.996875
-0.313751 0.126378 -1.67723
0.309011 0.126342 -1.67904
0.330463 0.134242 -1.01176
-0.337982 0.134344 -1.01028
-0.358989 0.830324 -1.6325
-0.384746 0.935416 -0.95
0.385341 0.935419 -0.95
0.359554 0.830392 -1.6325
-0.310848 0.271726 -2.15255
-0.327065 0.561668 -2.18873
0.32647 0.561668 -2.18928
0.308069 0.271726 -2.15282
-0.825659 0.289168 -0.333064
-0.816888 0.314714 0.328526
-0.848596 0.759098 0.36062
-0.85654 0.732954 -0.302132
0.826765 0.291811 -0.334792
0.856948 0.734477 -0.302708
0.849034 0.760409 0.360208
0.818105 0.316723 0.327292
-0.347862 0.138151 -0.349105
0.339577 0.140296 -0.350257
0.352216 0.148395 0.311245
-0.35951 0.145272 0.312068
-0.43974 1.15169 -0.286667
-0.447447 1.26334 0.376667
0.447453 1.26286 0.376667
0.440218 1.15168 -0.286667
-0.884154 0.347616 0.990116
-0.863093 0.391151 1.66742
-0.835342 0.763101 1.70184
-0.884067 0.756203 1.02337
0.884125 0.350005 0.989375
0.883902 0.757002 1.02313
0.835299 0.763372 1.70175
0.865851 0.391845 1.66717
-0.372495 0.171143 0.973241
0.368291 0.167788 0.972747
0.355742 0.181812 1.6411
-0.357037 0.181794 1.64127
-0.354602 1.19468 1.04
-0.322464 1.03581 1.71453
0.322492 1.036 1.71453
0.354673 1.1947 1.04
-0.344851 0.415697 2.15594
0.344844 0.415697 2.15607
0.323754 0.768856 2.16677
-0.323763 0.768856 2.16663
-0.612456 0.21125 -2.00312
-0.446722 0.12193 -2.02461
-0.623471 0.124627 -1.8358
-0.694105 0.338776 1.99905
-0.509514 0.223593 1.99641
-0.733291 0.192964 1.79975
-0.673108 0.60875 -1.97144
-0.496467 0.708366 -1.97837
-0.718083 0.744248 -1.77917
-0.614081 0.841431 2.03479
-0.44625 0.947488 2.05728
-0.630711 0.947699 1.86917
0.442945 0.121935 -2.02757
0.609619 0.21125 -2.00697
0.619856 0.124623 -1.83958
0.509519 0.223609 1.99639
0.695476 0.338776 2.00041
0.732977 0.193126 1.79958
0.497056 0.708408 -1.97841
0.673443 0.60875 -1.97223
0.718654 0.744255 -1.77917
0.44625 0.947353 2.05715
0.614162 0.841431 2.03487
0.630676 0.947639 1.86917
-0.678542 0.118145 -0.844286
-0.69634 0.116543 -0.513781
-0.832244 0.160409 -0.671446
-0.511845 0.132164 -0.679363
-0.74204 0.135627 0.808236
-0.725767 0.135704 0.477731
-0.810761 0.21242 0.651152
-0.546698 0.149835 0.642819
-0.769516 0.874996 -0.784167
-0.84339 0.816127 -0.625921
-0.762532 0.894451 -0.4525
-0.59768 0.969848 -0.618333
-0.713844 0.951517 0.874167
-0.824903 0.879497 0.700165
-0.733622 0.944856 0.5425
-0.597496 1.13935 0.708334
0.670254 0.123758 -0.847084
0.503859 0.134582 -0.681338
0.686835 0.123689 -0.51625
0.83507 0.161639 -0.67375
0.729648 0.146921 0.807083
0.541957 0.15111 0.641831
0.725968 0.134089 0.47625
0.81331 0.21296 0.65
0.770014 0.875078 -0.784167
[...]
POINT_DATA 3682
SCALARS point_scalars float 1
LOOKUP_TABLE default
-100.368
-38.2826
2.07949
-34.6199
-102.022
-37.8524
2.02932
-34.25
-38.7983
-34.656
-46.2522
-50.4677
-38.6016
-34.9982
-46.952
-50.3649
5.06684
-92.8052
-36.7745
-30.674
-49.835
-34.5434
-31.3613
5.06684
-90.467
-39.324
-30.5322
-51.8785
-31.8026
-30.8254
64.3201
-61.1168
-43.7207
-38.889
-42.2331
-31.6231
-31.4363
14.6544
-55.8775
-67.9225
-62.8998
-40.4808
-35.069
-32.3777
14.5623
-163.226
-38.9468
-35.7746
-42.7291
-32.1496
-29.2624
63.7992
-30.8254
-29.2624
102.675
-30.9387
-29.8369
13.6999
-43.3072
-55.3156
-62.5771
-34.9042
-31.348
-31.1808
-59.2012
-139.406
-39.0835
-34.9118
-42.062
-31.5989
-27.9697
66.4191
-30.0629
-27.5699
111.361
-30.3146
-28.8869
20.4435
-46.5209
-55.3413
-62.4862
-34.02
-30.8561
-30.722
10.5818
-93.4355
-44.5892
-30.1416
-56.5561
-34.0854
-30.4619
10.5818
-92.4498
-40.0509
-29.2841
-54.4616
-31.156
-30.4619
62.6262
-62.1999
-43.5298
-38.7898
-41.8823
-31.2758
-30.7935
14.2153
-56.2958
-66.7974
-62.7942
-40.068
-34.7116
-31.2301
36.5507
-136.756
-57.8242
-33.4858
-33.3498
-37.6138
-12.2298
-52.9047
-31.2815
-47.6195
37.875
-58.331
-33.0504
-38.199
-52.6854
-47.4854
-34.7957
-40.7497
-37.8046
-32.2983
-38.902
-54.0927
1.24586
-67.9463
-34.7174
-40.4966
-32.4222
-54.0293
-69.2465
-69.2165
-55.0064
-35.8896
197.881
-36.7224
-36.8647
-35.2163
-87.1048
-46.5194
-46.2534
-35.6441
-44.0507
-22.0107
53.6162
-143.127
-88.6628
-34.4049
-35.6014
-44.9358
22.9724
-16.0144
-52.6195
-33.2705
-31.6363
-41.1949
-144.274
54.9083
-87.098
-35.2261
-33.9114
-45.0177
-16.0938
23.3123
-52.5797
-31.4497
-32.8928
-40.9914
-42.9076
-36.6223
-40.3241
-38.1518
-38.2509
-33.5986
-29.8512
-37.4219
-40.3508
-42.7071
-55.4683
-1.83375
-49.4623
-37.9169
-51.6264
-64.3718
-43.8187
-38.2427
-35.4409
-40.1282
-36.2445
-36.7221
-33.8562
-30.1458
-40.061
-1.88901
-42.5914
-55.3466
-49.3957
-64.3209
-37.8567
-51.589
-111.661
171.935
-79.9508
174.328
-69.2089
-55.2048
-49.3053
-29.7679
-36.8533
-23.8824
-44.4372
-36.1991
-29.8348
175.783
-67.9867
-37.1092
-36.4736
-27.4981
-49.5411
-44.5185
-113.863
172.882
-69.1019
-55.4831
-48.9313
-29.1367
-43.8591
-36.2337
-67.6432
-37.0588
-49.3465
-44.4558
-34.9923
-34.9914
-52.3304
-38.8889
-43.3236
-36.2017
-33.9256
-39.2258
-35.64
-36.4189
-42.2658
-82.5622
-24.8213
-23.7168
-83.7691
-53.9567
-35.2754
-34.8676
-52.0452
-38.7811
-34.1332
-38.7324
-42.2323
-81.9634
-113.32
-51.7445
-49.4885
-96.255
-112.316
-94.8985
-49.4737
-52.5734
-80.3465
-80.5566
-43.6289
-43.376
-35.8129
-25.247
-25.2404
-35.4641
161.917
165.361
165.154
162.224
-37.4893
-32.6512
-39.6226
-43.666
-36.9827
-43.6406
-39.7486
-32.8037
-36.2546
-35.8462
-35.2151
-35.3578
-32.3912
-76.534
-76.4916
-32.4958
-40.5114
-50.8521
-47.3109
-40.9436
-39.189
-40.6983
-46.9665
-51.2426
-37.0124
-36.8089
-37.7807
-37.8275
-53.1589
-37.1823
-37.0875
-53.1204
-29.5768
-28.9947
-29.4948
-29.9208
32.3405
-145.656
-111.85
-35.5846
-37.5346
-46.1259
19.2338
-11.5997
-30.1172
-33.7737
-32.6362
-37.8387
-152.54
32.3838
-114.606
-37.1098
-35.0611
-45.9058
-11.7026
22.6395
-30.3228
-32.357
-33.2761
-37.5707
-40.2156
-38.1494
-36.7269
-38.1414
-39.8757
-32.7642
-29.9191
-37.6984
-38.8088
-45.5032
-51.7751
-14.3444
-50.9054
-44.5255
-50.9192
-57.7426
-40.8326
-38.0229
-36.4293
-39.3524
-38.8991
-36.6923
-33.4596
-29.6924
-38.6674
-14.2811
-45.3157
-51.619
-50.8158
-57.697
-44.6229
-50.8822
50.463
28.052
-43.3503
89.785
-137.951
-138.486
-101.065
150.95
-70.5346
-48.9926
-70.146
-55.7572
-33.7872
-33.3451
-40.4121
-31.0535
-34.0288
-33.7927
-36.9353
-24.5056
-40.4892
-36.4702
-43.1719
-36.8763
-15.099
-15.4442
-18.2235
58.283
-56.4884
-46.6125
-68.1951
-41.8614
-31.3793
-31.2915
-33.4791
-27.7798
-44.6197
-49.2116
-50.4998
-46.0507
51.4055
29.0431
-44.4911
91.1878
-71.1473
-49.938
-67.3012
-56.1766
-33.3178
-32.9417
-39.9636
-30.7285
-39.8759
-36.2591
-42.4148
-37.365
-56.1561
-46.3007
-67.9373
-41.7915
-44.4623
-49.0934
-50.2949
-45.9422
-35.4806
-34.0713
-34.5798
-34.8933
-40.6627
-41.2772
-46.4413
-39.4902
-37.8795
-37.8357
-39.7391
-37.2705
-30.5832
-34.4977
-32.26
-34.3667
-38.7976
-38.6693
-36.7061
-36.6864
-55.074
-52.7504
-47.9661
-70.9364
0.772206
0.777539
-10.151
-2.53536
-67.0339
-66.9999
-75.7599
-60.7893
-35.496
-34.0789
-34.9848
-34.7123
-40.4084
-41.0968
-46.3273
-39.2909
-30.7468
-34.4933
-32.4729
-34.0515
-55.0299
-52.784
-48.0446
-70.7333
-86.4672
-69.365
-68.4671
-59.1991
-85.8594
-69.2046
-68.1005
-58.8274
-65.0504
-54.9998
-55.1242
-48.2885
-35.788
-35.5748
-35.7388
-31.0788
193.752
178.77
200.497
193.858
-35.7063
-37.9674
-35.4865
-38.7626
-35.9176
-38.0322
-35.6353
-38.8589
-35.1371
-35.4871
-35.2137
-35.1269
-85.8094
-65.9633
-88.3607
-85.4478
-51.2442
-45.1535
-47.609
-44.1659
-51.2447
-44.5925
-47.3724
-43.807
-35.8415
-35.7701
-35.8161
-35.2568
-39.8155
-44.1083
-44.0777
-48.6141
-25.4964
-21.9318
-26.0242
-24.6532
-50.5367
79.3361
-101.421
79.0032
-113.748
-82.3113
-41.5059
-31.0999
-39.0559
-30.4552
-51.2901
-39.5567
-40.0043
98.7166
-27.676
46.7946
-69.4245
-40.2977
-40.8289
-31.1886
-34.2385
-29.7777
-46.2737
-38.7615
-101.978
80.2129
-49.8459
82.2152
-112.644
-82.4808
-38.6841
-29.8335
-40.9844
-30.6751
-54.364
-39.3497
-27.7563
48.0554
-41.6756
98.8344
-69.0181
-40.2387
-34.0958
-29.3967
-40.4407
-30.8629
-45.9447
-38.6065
-51.1998
-43.4894
-37.5463
-36.3254
-46.9429
-38.5484
-39.9427
-37.3094
-43.1863
-37.1987
-32.5064
-34.8165
-30.7271
-26.393
-36.1001
-37.1952
-46.891
-28.2653
-45.308
-43.4893
-48.5169
-68.0943
-11.8989
-8.08702
-43.2927
-53.0223
-37.9249
-38.4565
-46.5188
-61.7015
-69.9905
-58.7544
-51.787
-43.9412
-40.1619
-36.8929
-34.9013
-35.6763
-46.1077
-37.8665
-40.4347
-36.777
-35.9745
-36.9191
-32.6265
-34.9386
-30.9527
-27.1215
-46.9237
-28.1981
-11.7947
-8.10819
-44.9745
-43.3663
-48.4575
-67.768
-43.1166
-52.9344
-70.1683
-58.7103
-38.1216
-38.3224
-46.4307
-61.6621
-114.421
-105.462
160.536
170.006
-79.4635
-79.597
169.493
170.01
-86.3107
-58.6697
-65.5932
-48.2879
-49.7997
-48.5539
-29.7067
-29.8635
-37.0483
-37.0862
-26.4665
-25.7938
-43.0178
-51.125
-35.4431
-36.6155
-32.1685
-32.0362
178.568
178.774
-58.4233
-83.9387
-38.3859
-30.8533
-36.7078
-36.6613
-28.272
-28.5814
-52.9698
-45.3378
-48.6579
-40.7494
-115.121
-106.48
170.339
162.655
-85.7952
-59.0211
-65.8064
-48.5567
-48.1667
-49.6801
-29.0767
-29.3341
-42.4317
-50.3374
-35.9532
-36.5378
-83.321
-57.9176
-30.7956
-38.2803
-45.1014
-52.6984
-40.663
-48.5998
-36.2218
-33.9059
-35.5134
-35.0327
-52.837
-51.4412
-38.0021
-40.5386
-43.4005
-43.3011
-36.2404
-36.0908
-33.0313
-35.9942
-40.2898
-39.0713
-35.5256
-35.6
-36.6292
-36.6281
-41.0863
-43.3487
-63.9119
-80.0613
-26.7165
-26.6885
-25.5156
-25.593
-81.7416
-81.8026
-53.8622
-53.8419
-36.4203
-34.0734
-35.3041
-34.9528
-51.8822
-52.6709
-37.73
-40.4898
-36.142
-33.1741
-39.7035
-38.7322
-43.3611
-40.91
-80.0164
-64.129
-59.4683
-79.595
-87.1224
-45.9291
-46.2867
-46.3594
-59.408
-56.0057
-46.6503
-57.9027
-58.5477
-45.1319
-31.7082
-44.3826
-84.2991
-79.5261
-60.2452
-46.2156
-86.6763
-82.7565
-32.6335
-78.5077
-84.0824
-45.6108
-46.3951
-44.9053
-57.8598
-57.7753
-44.6002
-57.2831
-59.3599
-45.9548
-101.862
-100.803
-64.9507
-66.6808
-102.716
-66.988
-65.0519
-101.078
-40.5085
-39.8018
-48.2573
-48.7945
-40.2077
-48.3489
-48.1829
-39.7367
-31.7768
-44.4762
-36.4863
-20.3614
-17.5385
-10.5558
-29.8645
-35.2094
-17.4613
-35.3085
-29.8734
-10.5345
-31.7305
-19.5922
-36.413
-44.209
51.2361
83.1149
171.257
110.705
43.4875
67.7138
190.673
109.963
42.8231
109.453
190.956
66.6632
24.0636
111.775
171.295
85.4721
-39.097
-35.9876
-36.8722
-38.7572
-30.6807
-31.239
-34.5244
-33.5958
-45.6253
-47.2889
-37.5002
-34.1593
-48.0106
-40.8501
-39.9108
-48.7628
-36.5052
-38.4469
-36.9573
-36.3321
-48.0261
-48.7673
-39.9623
-40.736
-45.7565
-34.3503
-37.6338
-47.1271
-31.2159
-33.7844
-34.6914
-31.4169
-37.4453
-37.3265
-35.5127
-35.4701
-36.7551
-35.147
-35.4024
-37.1615
-35.4631
-36.4675
-35.1861
-34.6171
-35.591
-34.7881
-35.2375
-36.5937
-31.7432
-72.307
-65.0227
-3.62431
-58.879
-74.9152
-86.4126
-64.5878
-58.8727
-64.6071
-86.5203
-74.896
-32.0282
-3.69261
-65.2558
-72.5569
-25.088
-41.2523
-43.5372
-31.6304
-42.9753
-41.0178
-51.611
-47.3736
-40.7734
-50.114
-52.6305
-40.6389
-45.5298
-35.8682
-44.8693
-47.1564
-29.3681
-31.7212
-42.9289
-41.1901
-45.4399
-47.011
-44.5404
-35.703
-40.3809
-40.2484
-52.5526
-49.8621
-42.3783
-46.4066
-51.7096
-40.5426
-36.971
-36.8002
-35.3007
-35.8199
-36.3216
-36.0966
-35.4159
-36.676
-40.6555
-37.4277
-35.9822
-37.6294
-40.9359
-37.7532
-36.0148
-37.6412
-54.576
-49.491
-48.6176
-60.3893
-35.3354
-33.6354
-40.0301
-42.3866
-35.1428
-42.2672
-39.9929
-33.5607
-54.5684
-60.3577
-48.5935
-49.395
-31.7877
-26.9518
-25.7763
-30.8684
-31.3504
-30.5075
-25.0268
-26.3961
-31.0557
-28.2021
-27.0426
-30.7434
-31.4112
-31.0648
-27.5941
-28.536
-37.7714
-157.562
-138.557
-36.9445
-38.0152
-42.0652
12.0425
-5.56154
-15.0725
-34.7159
-33.5198
-35.7465
-159.86
-39.2494
-140.027
-37.6022
-36.4486
-41.7487
-5.82468
11.3158
-15.2065
-33.1868
-34.306
-35.4355
-39.5607
-38.8326
-34.724
-38.13
-36.515
-32.8386
-30.7498
-37.1524
-43.3399
-45.5703
-50.4309
-35.866
-50.8231
-49.7147
-50.3056
-53.3471
-39.6979
-37.9427
-37.6465
-38.9165
-37.8109
-35.8959
-33.9013
-30.0148
-43.8257
-35.4929
-45.3734
-50.2822
-50.722
-53.274
-49.645
-50.3208
42.8226
31.1409
-8.39069
65.7884
-137.172
-137.346
-116.596
-24.0003
-63.5385
-53.1045
-65.4782
-56.4652
-33.6158
-33.4735
-36.9407
-31.5664
-33.5214
-33.3913
-35.3742
-27.8445
-38.2917
-36.9454
-40.9827
-37.3044
-12.9308
-13.0793
-13.304
-34.8317
-56.3439
-49.6735
-61.3947
-46.5762
-31.3089
-31.2927
-32.1894
-29.4957
-46.032
-48.3556
-49.0287
-47.0781
44.295
32.5685
-8.92861
66.7066
-64.056
-53.832
-64.3013
-56.9744
-33.1674
-33.049
-36.4134
-31.2107
-38.5311
-36.9224
-40.6637
-38.1407
-56.0931
-49.2902
-61.1397
-46.4086
-45.8942
-48.2328
-48.8553
-46.9499
-34.8102
-34.3563
-34.4578
-34.7575
-40.6876
-40.9548
-42.2652
-39.9491
-37.8556
-37.826
-38.0527
-37.9447
-31.3668
-33.3347
-32.1699
-32.9249
-38.9072
-38.8351
-37.4691
-37.8089
-54.4095
-53.3481
-51.6982
-60.2145
1.16082
1.16334
-2.87982
1.35367
-67.8677
-67.8216
-71.793
-64.1641
-35.0502
-34.1899
-36.2011
-34.527
-40.4138
-40.739
-42.0032
-39.7548
-31.5838
-33.3596
-32.3417
-32.9106
-54.3784
-53.3563
-51.7054
-60.1832
-75.8434
-68.9311
-69.1379
-63.6275
-76.3397
-69.2278
-68.8139
-63.3285
-59.5573
-55.015
-55.0792
-51.3825
-37.0863
-35.8263
-35.9257
-34.324
196.259
185.152
207.134
196.345
-36.109
-37.4056
-36.0731
-37.5822
-36.248
-37.4852
-36.2203
-37.6895
-35.1994
-35.2451
-35.2319
-35.195
-87.3775
-82.2229
-89.0675
-87.2608
-48.4059
-45.8346
-47.0101
-45.3487
-48.1855
-45.626
-46.7595
-44.9973
-35.7163
-35.6874
-35.7093
-35.4123
-41.8119
-44.1138
-44.0996
-46.0398
-23.1892
-20.8229
-24.1895
-22.7868
50.9196
52.5028
-18.8324
68.8228
-141.81
-140.116
-118.283
1.31775
-97.2372
-79.0225
-114.676
-84.8144
-34.7669
-34.1803
-37.6624
-31.6424
-36.3817
-34.8104
-37.5244
-31.84
-47.521
-41.7948
-50.9207
-40.7244
20.5067
26.6964
-7.95922
60.7089
-14.0374
-16.3068
-22.4349
-27.6792
-37.3159
-52.2816
-57.1777
-46.2822
-33.4621
-33.1917
-36.8225
-31.7413
-32.0516
-31.43
-32.7698
-30.5164
-39.4847
-42.9424
-45.2423
-39.6756
-143.945
-140.737
-118.862
3.76194
51.8548
53.4287
-19.5873
70.2222
-97.2781
-79.2011
-114.059
-84.6129
-35.9727
-34.4919
-37.1133
-31.2918
-34.2676
-33.7012
-37.1932
-31.2229
-47.2566
-40.8431
-50.8411
-40.5624
-14.0589
-16.7005
-22.7733
-27.1541
21.099
26.8286
-8.61626
61.1519
-37.2293
-52.0522
-57.3014
-46.1885
-31.8342
-31.282
-32.6033
-30.2121
-33.0766
-32.8117
-36.4225
-31.3959
-39.2611
-42.7595
-44.9492
-39.5088
-41.2822
-45.7695
-46.5465
-43.4502
-37.2417
-35.9734
-37.6892
-36.288
-40.2134
-40.4811
-42.2954
-39.3207
-38.4102
-37.8262
-38.945
-37.9712
-39.6467
-36.2619
-43.2768
-37.3958
-34.6474
-33.3374
-32.6033
-34.0655
-29.8187
-30.1212
-30.4418
-29.0026
-37.0539
-38.4325
-36.6719
-37.1616
-38.7292
-43.961
-45.4898
-33.2971
-44.0416
-41.8105
-42.0419
-43.4077
-54.5526
-55.1838
-52.2367
-68.5473
-5.97363
0.322414
-5.80269
-2.13476
-50.4019
-48.8362
-46.9585
-51.2495
-40.2471
-36.0954
-37.9029
-38.0021
-51.2542
-52.0682
-50.2249
-56.5363
-61.8923
-65.8029
-67.143
-61.7081
-42.1461
-46.7561
-48.1715
-44.0643
-38.4001
-37.794
-39.2525
-37.6712
-35.5151
-35.7101
-32.2172
-35.6129
-39.8648
-40.2596
-42.0485
-38.8616
-37.3269
-35.2521
-41.0411
-36.6661
-36.3205
-38.1273
-36.3065
-36.6632
-33.3107
-33.9168
-32.5105
-34.4723
-30.1869
-30.3901
-30.627
-29.3335
-38.5592
-43.9279
-45.3421
-33.1828
-5.91516
0.249509
-5.52703
-2.19992
-43.8896
-41.6785
-41.6799
-43.3119
-54.3247
-55.1669
-52.1616
-68.3356
-50.3166
-48.7442
-46.8531
-51.1799
-61.8328
-65.7387
-67.4152
-61.6037
-40.19
-36.0345
-37.9752
-37.9021
-51.2706
-51.9667
-50.2036
-56.5189
-83.6191
-105.176
-113.634
-107.738
141.559
183.376
167.718
175.335
-89.6958
-71.6427
-79.7511
-79.8901
163.505
181.225
171.388
174.172
-69.3573
-69.586
-76.5029
-62.9413
-55.3992
-54.9909
-59.9169
-51.4755
-44.5557
-52.2883
-49.5485
-49.1186
-30.6009
-27.791
-29.6694
-29.7896
-37.2324
-36.273
-36.89
-36.9145
-23.6998
-24.1286
-24.7609
-24.3868
-43.9864
-44.7543
-43.6084
-47.1775
-36.5032
-35.9416
-35.7278
-36.4172
-24.666
-33.7102
-30.7011
-30.9134
132.498
191.218
182.586
182.499
-69.1135
-68.0275
-62.0685
-74.882
-38.4389
-34.7554
-38.3219
-35.2229
-34.8764
-38.0339
-36.5618
-36.538
-27.094
-26.8319
-27.6844
-27.8891
-51.2626
-48.4759
-52.6103
-46.8171
-45.1368
-44.1816
-46.5698
-42.6159
-84.3804
-103.409
-115.017
-110.324
139.94
183.909
175.959
167.895
-68.7363
-69.164
-76.2535
-63.1113
-55.7189
-55.2344
-60.2067
-51.7378
-44.1608
-52.1669
-48.713
-49.2558
-30.1702
-26.9503
-28.9858
-29.2092
-43.3798
-44.1505
-43.147
-46.3922
-36.5561
-35.9928
-36.1453
-36.391
-68.8341
-67.6271
-74.2111
-61.7928
-38.3848
-34.9337
-35.1511
-38.1761
-51.0572
-48.2494
-46.5825
-52.3731
-45.0531
-44.1361
-42.6123
-46.513
-34.7575
-35.3131
-35.5777
-34.3512
-34.9498
-34.9855
-35.2217
-35.0175
-50.0711
-55.7824
-52.7083
-51.725
-39.2567
-38.4187
-38.3452
-39.5813
-41.2774
-45.6345
-43.366
-43.3115
-36.6939
-35.7908
-36.2312
-36.1625
-32.8644
-34.7353
-33.3409
-34.8278
-36.3167
-42.4265
-39.7658
-38.891
-36.1439
-35.3338
-35.6032
-35.6463
-37.6411
-35.2219
-36.4127
-36.4339
-44.389
-40.3212
-41.696
-42.9153
-78.3152
-83.8583
-78.2088
-81.9498
-13.9214
-27.5347
-24.1958
-24.2026
-11.9444
-36.5131
-24.102
-24.1157
-79.999
-86.8838
-83.2163
-83.2456
-57.463
-51.046
-53.9628
-53.9474
-35.1284
-35.5783
-35.8315
-34.6048
-34.8159
-34.947
-35.1954
-34.8405
-50.2261
-55.1432
-51.8261
-52.4502
-39.0655
-38.4033
-38.1817
-39.5023
-33.0766
-34.9428
-34.9847
-33.447
-36.0142
-41.9644
-39.1487
-38.4819
-44.622
-40.3677
-42.9033
-41.5059
-77.3487
-83.2695
-81.7924
-78.0051
-76.9538
-111.854
-113.81
-108.629
-52.0389
-50.8841
-55.7271
-52.6004
-47.192
-47.3001
-54.1496
-51.1359
-67.6973
-86.0612
-102.039
-98.2137
-72.6306
-111.047
-113.323
-107.685
-70.0697
-85.0932
-100.439
-96.7401
-47.18
-46.9871
-54.1474
-51.3247
-52.4483
-50.6624
-56.1312
-52.7346
-89.9121
-80.8997
-79.463
-72.2689
-90.2944
-81.2376
-79.7016
-72.4694
-43.7918
-41.5948
-45.9059
-43.4447
-43.4473
-41.3171
-45.6526
-43.2851
-32.4888
-38.0319
-34.5722
-37.3645
-25.342
-17.9357
-27.6665
-27.3601
-25.3235
-17.9108
-27.7631
-27.3252
-32.3278
-37.8946
-34.266
-37.6196
140.055
143.322
164.142
165.645
144
137.333
169.122
172.736
137.268
144.208
172.743
169.253
142.339
141.007
165.261
163.269
-37.3762
-37.9885
-36.8136
-37.7031
-32.4896
-31.5212
-33.4023
-32.8644
-37.9843
-42.502
-37.4559
-40.3917
-43.5936
-46.4051
-41.8808
-43.5727
-36.9568
-37.2155
-36.8603
-37.2763
-43.5624
-46.3595
-41.8615
-43.5734
-38.1582
-42.5901
-37.588
-40.5106
-32.6458
-31.7476
-33.5252
-32.9744
-36.2944
-36.7364
-35.8402
-36.206
-36.2364
-35.7282
-35.9458
-35.5669
-35.6047
-35.0966
-35.3824
-35.2254
-35.1715
-35.6492
-35.1432
-35.5161
-39.5294
-17.3049
-46.1566
-28.1366
-70.3673
-73.5136
-78.807
-79.8823
-72.9099
-70.3668
-79.8896
-78.8952
-17.3626
-39.5017
-28.5325
-46.4303
-40.7488
-32.5444
-41.5419
-40.7446
-46.5641
-51.7072
-50.269
-51.4089
-44.0563
-47.0165
-47.8224
-50.5935
-42.2523
-39.2185
-43.1491
-40.0069
-38.6952
-32.2583
-40.8338
-39.9755
-42.0372
-39.0297
-42.9012
-39.7129
-43.6709
-46.6709
-47.4586
-50.2884
-46.0469
-53.311
-50.3021
-52.3939
-37.209
-38.2674
-35.2306
-36.74
-36.9462
-37.757
-35.4166
-36.7263
-38.598
-38.331
-37.3467
-37.0783
-38.7244
-38.4911
-37.4017
-37.1573
-53.3982
-55.7957
-51.0432
-53.4566
-35.6984
-37.9072
-36.97
-38.9366
-35.5817
-37.7811
-36.8941
-38.8494
-53.3487
-55.7459
-50.9981
-53.4271
-30.5017
-29.7581
-29.82
-28.2374
-29.1132
-30.0468
-27.5634
-29.2643
-29.631
-30.4826
-28.7661
-29.5836
-30.8289
-30.0049
-29.9863
-29.1804
-52.228
74.7809
-124.181
-36.905
-97.3987
-104.464
-38.9829
-33.2108
-39.1579
-33.7741
-45.1426
-42.3483
-12.6716
43.4653
-26.7716
1.64391
-25.6794
-36.2652
-37.9053
-32.2654
-33.7945
-31.7473
-40.2508
-36.2412
-125.962
-40.2929
-48.9312
81.5078
-99.7413
-105.535
-38.8058
-33.2948
-38.4452
-32.7574
-44.7057
-42.11
-27.0101
1.86418
-12.8678
43.8177
-25.9309
-36.1331
-33.5761
-31.3925
-37.5957
-31.8858
-39.9071
-36.0231
-39.999
-40.4437
-39.3821
-37.6257
-44.2585
-39.8628
-38.4801
-38.1467
-40.6209
-39.6757
-30.9121
-34.1011
-30.4201
-28.9637
-36.5003
-37.6309
-42.8603
-27.5007
-44.8219
-47.182
-49.0058
-58.3699
-12.8907
-18.1075
-49.617
-52.2203
-44.9597
-44.6817
-50.1596
-54.4212
-58.1838
-56.2103
-40.6844
-40.8293
-38.6506
-37.6275
-35.8962
-36.6932
-46.19
-38.3438
-44.1194
-38.3076
-35.8873
-37.0631
-31.4567
-34.6809
-30.3139
-29.5127
-42.668
-27.3037
-12.7685
-18.1812
-44.5566
-47.0357
-48.9437
-58.7353
-49.5217
-52.1574
-58.1675
-56.1738
-44.9184
-44.6202
-50.1112
-54.3993
-14.7147
64.0962
-8.48371
66.0834
-44.1823
-45.1549
76.4298
101.078
-116.536
8.02894
-116.884
11.6843
-100.983
-101.152
134.635
111.826
-79.1179
-68.2357
-52.3207
-48.5749
-72.1444
-61.3706
-60.6235
-51.7737
-37.0582
-31.5586
-36.7566
-31.6137
-40.7136
-40.5164
-31.0158
-30.9954
-36.0426
-29.4121
-35.7635
-29.0247
-37.179
-37.3007
-25.7914
-25.4533
-44.8419
-38.5089
-39.2933
-36.0882
-41.7797
-44.8403
-36.2526
-37.3145
-15.1353
-27.5542
-16.1509
-27.4567
-18.9824
-18.4951
68.4926
67.949
-66.9075
-49.5209
-55.6759
-38.4969
-64.4102
-73.5982
-43.0796
-38.7037
-32.3657
-29.697
-32.2827
-29.519
-33.556
-33.5204
-27.7963
-27.9864
-47.8529
-43.0439
-48.8349
-50.1336
-51.0532
-49.2852
-48.0363
-44.1762
-12.7253
65.868
-9.00092
66.3245
-44.9644
-46.337
101.435
77.4583
-81.5449
-68.6061
-54.3121
-49.3062
-73.5368
-62.0569
-60.9723
-52.1939
-36.5842
-31.1847
-36.254
-31.268
-40.0883
-40.2581
-30.6824
-30.67
-44.5023
-38.3817
-39.4176
-36.1783
-41.3433
-43.8402
-36.9809
-37.1993
-66.2416
-49.3129
-55.9673
-38.3903
-72.6007
-64.2521
-38.592
-43.0103
-47.6494
-42.9091
-48.6867
-50.0141
-49.0986
-50.8156
-44.0611
-47.9268
-36.122
-35.2741
-33.4535
-34.3642
-35.5227
-34.0107
-35.1977
-34.8722
-42.6359
-39.4655
-41.9256
-41.1497
-46.4479
-45.9908
-39.0487
-40.1172
-38.104
-38.028
-38.1286
-37.9259
-39.741
-39.7084
-37.3055
-37.2368
-30.8813
-29.1945
-34.2696
-35.0469
-31.673
-33.0641
-33.4891
-35.1962
-37.2565
-37.8861
-37.1195
-37.7392
-36.6111
-36.6578
-36.7408
-36.6647
-52.4288
-62.0021
-50.8371
-58.0145
-47.6467
-48.3291
-74.535
-67.2868
-3.12008
0.839162
-3.10281
0.797291
-10.2925
-10.2943
-2.81173
-2.81085
-70.9747
-63.4831
-70.8835
-63.4654
-75.5549
-75.5396
-60.6629
-60.6608
-36.623
-35.0792
-33.3703
-34.0757
-35.7925
-34.2933
-34.982
-34.643
-42.3126
-39.1663
-41.7374
-41.0199
-45.7199
-46.4433
-38.7701
-39.9609
-31.0515
-29.6319
-34.3832
-34.9658
-33.2473
-31.8064
-33.4058
-34.9124
-52.3975
-62.0008
-51.1184
-57.9855
-48.3776
-47.739
-67.3313
-74.2058
-87.5277
-85.4622
-76.5076
-63.8294
-62.9835
-74.0599
-59.5339
-58.854
-86.7103
-84.4745
-76.7313
-63.3716
-74.0771
-62.5049
-58.3635
-59.0881
-64.9895
-65.086
-59.4272
-51.3301
-59.5574
-51.4252
-48.2957
-48.2109
-36.0654
-35.9273
-35.5346
-33.3436
-33.3856
-35.581
-31.0214
-31.0267
181.071