# vtk DataFile Version 2.0
tri_press
ASCII
DATASET UNSTRUCTURED_GRID
POINTS 3682 float
-0.795 0.105 -2.00873
-0.637116 0.205 2.055
-0.815 0.495 -1.80348
-0.575 0.855 2.00881
0.795 0.105 -2.00869
0.637102 0.205 2.055
0.815 0.495 -1.80347
0.575 0.855 2.00881
-0.777241 0.103465 -0.654153
-0.755584 0.105827 0.700424
-0.805394 0.685394 -0.532717
-0.747995 0.827995 0.738047
0.777237 0.103463 -0.654127
0.755537 0.105864 0.700437
0.805409 0.685409 -0.53271
0.748132 0.828132 0.73805
-1.56985 -0.252365 -3.11384
-1.57275 -0.183978 -2.06375
-1.54474 -0.184513 -0.707004
-1.4813 -0.198737 0.666608
-1.38262 -0.138732 2.02477
-1.36271 -0.0765649 3.08182
-1.37722 -0.0163269 4.12599
-1.57669 0.00236234 -3.04135
-1.58337 0.0918415 -2.00041
-1.55185 0.120756 -0.659977
-1.47066 0.12838 0.688005
-1.33166 0.191855 2.03005
-1.32958 0.253196 3.08591
-1.36053 0.311842 4.13281
-1.58618 0.468928 -2.87284
-1.60063 0.553772 -1.82844
-1.57131 0.705231 -0.545139
-1.46578 0.815795 0.732225
-1.29721 0.858414 2.01713
-1.31252 0.91445 3.07646
-1.35691 0.971655 4.13688
-1.57248 1.29764 -2.6831
-1.57508 1.404 -1.65125
-1.55744 1.58654 -0.395127
-1.51249 1.75448 0.842936
-1.4553 1.85408 2.09994
-1.42948 1.90802 3.13362
-1.42753 1.95884 4.18488
-0.784044 -0.244978 -3.11923
-0.791387 -0.172291 -2.07162
-0.777562 -0.191771 -0.705938
-0.757495 -0.21504 0.677208
-0.696115 -0.136878 2.0433
-0.681746 -0.0753314 3.09439
-0.691406 -0.0169741 4.13327
-0.785651 0.00223546 -3.04301
-0.658897 0.256269 3.09628
-0.681119 0.311911 4.1383
-0.792476 0.444037 -2.86247
-0.644715 0.9145 3.0748
-0.680788 0.97177 4.13652
-0.789509 1.27772 -2.67285
-0.795616 1.38374 -1.63996
-0.79391 1.57869 -0.388316
-0.781248 1.75952 0.842123
-0.755114 1.8595 2.09411
-0.737057 1.91108 3.1278
-0.733572 1.96066 4.18065
0.796895 -0.24497 -3.11921
0.786214 -0.172287 -2.07159
0.770888 -0.191762 -0.705914
0.733426 -0.215008 0.677222
0.654049 -0.136864 2.0433
0.654777 -0.075315 3.0944
0.665596 -0.0169516 4.13327
0.804667 0.00224091 -3.04298
0.64026 0.256281 3.09628
0.657358 0.311932 4.13831
0.811236 0.444044 -2.86246
0.617969 0.914516 3.0748
0.645446 0.971793 4.13653
0.787127 1.27774 -2.67284
0.778464 1.38376 -1.63994
0.751025 1.57873 -0.388306
0.69579 1.75958 0.842131
0.643594 1.85955 2.09411
0.637483 1.91112 3.1278
0.645614 1.96069 4.18066
1.58374 -0.252345 -3.11379
1.5743 -0.183961 -2.06369
1.54578 -0.184477 -0.706962
1.47879 -0.19867 0.666634
1.37286 -0.138688 2.02478
1.35045 -0.0765227 3.08183
1.35922 -0.016278 4.126
1.59372 0.00237933 -3.0413
1.58743 0.0918547 -2.00036
1.5574 0.120793 -0.659936
1.48427 0.128465 0.688029
1.34786 0.191892 2.03006
1.32775 0.253234 3.08592
1.34515 0.31189 4.13283
1.60246 0.468947 -2.87281
1.60419 0.55379 -1.82841
1.57487 0.70529 -0.545113
1.47537 0.815944 0.73224
1.30791 0.85847 2.01714
1.30125 0.914496 3.07647
1.32974 0.971708 4.13689
1.57102 1.29768 -2.68307
1.56022 1.40405 -1.65123
1.52097 1.58661 -0.395106
1.44376 1.75459 0.842952
1.36547 1.85417 2.09995
1.34354 1.9081 3.13363
1.3471 1.95892 4.18489
-0.76999 0.3 -1.87109
0 0.101178 -2.01253
-0.787443 0.102909 -1.33144
-0.667565 0.53 2.09341
-7.00355e-06 0.19728 2.06272
-0.722664 0.129099 1.37771
0 0.647731 -1.95621
-0.862314 0.642314 -1.1681
0 0.89162 2.04543
-0.684731 0.864731 1.37343
0.770002 0.3 -1.87108
0.787453 0.102897 -1.33141
0.667673 0.53 2.09353
0.721568 0.130184 1.37772
0.862313 0.642313 -1.16809
0.684722 0.864722 1.37343
-0.767348 0.10371 0.0231351
-0.828139 0.394429 -0.593435
-1.62724e-06 0.102465 -0.65414
-0.840372 0.466911 0.719235
-2.33375e-05 0.104293 0.70043
-0.784782 0.764782 0.102665
7.49424e-06 1.03683 -0.532713
6.82357e-05 1.24992 0.738048
0.767354 0.103697 0.023155
0.828143 0.394436 -0.593418
0.840424 0.466998 0.719243
0.784858 0.764859 0.10267
-0.897147 0.347215 -1.24977
0.897147 0.347218 -1.24975
-8.13619e-07 0.101437 -1.33143
3.74712e-06 0.817906 -1.16809
0 0.3 -2.09023
-0.836466 0.43067 0.0629
0.836469 0.430717 0.0629125
-1.24823e-05 0.103385 0.023145
3.7865e-05 1.25127 0.102668
-0.897648 0.498455 1.37557
0.897648 0.498499 1.37557
-1.51705e-05 0.166216 1.37772
3.41179e-05 1.08753 1.37343
-3.50177e-06 0.53 2.2103
-0.734676 0.2025 -1.89209
-0.3975 0.101185 -2.01253
-0.792345 0.102832 -1.67009
-0.665373 0.3675 2.08724
-0.318562 0.20253 2.05747
-0.6938 0.153139 1.71636
-0.798928 0.3975 -1.84372
-0.4075 0.619319 -1.9278
-0.895695 0.625695 -1.48579
-0.623261 0.6925 2.05309
-0.2875 0.884625 2.03844
-0.642609 0.872609 1.69112
0.3975 0.10119 -2.01251
0.734695 0.2025 -1.89208
0.792347 0.102829 -1.67005
0.318548 0.202709 2.05729
0.665373 0.3675 2.08725
0.693922 0.153005 1.71636
0.4075 0.625353 -1.93383
0.798952 0.3975 -1.84373
0.895695 0.625695 -1.48578
0.2875 0.884624 2.03843
0.62306 0.6925 2.05289
0.642618 0.872618 1.69112
-0.782458 0.103071 -0.992798
-0.772315 0.103566 -0.315509
-0.820068 0.240258 -0.623794
-0.387939 0.104329 -0.654147
-0.73676 0.119827 1.03907
-0.762254 0.10398 0.361779
-0.833322 0.268697 0.709829
-0.376763 0.107142 0.700427
-0.810909 0.640909 -0.850408
-0.826497 0.544777 -0.563076
-0.798079 0.728079 -0.215026
-0.468448 0.99262 -0.532715
-0.72138 0.85138 1.05574
-0.821159 0.660941 0.728641
-0.769744 0.799744 0.420356
-0.46156 1.21415 0.738048
0.782457 0.103069 -0.992768
0.387935 0.10433 -0.654133
0.772318 0.103557 -0.315486
0.820071 0.240259 -0.623773
0.736755 0.119822 1.03908
0.376725 0.107143 0.700433
0.762257 0.103969 0.361796
0.833317 0.268763 0.70984
0.810341 0.640341 -0.8504
0.46844 0.992583 -0.532712
0.826493 0.544781 -0.563064
0.79808 0.72808 -0.21502
0.721358 0.851358 1.05574
0.461658 1.21414 0.738049
0.82122 0.661036 0.728647
0.76973 0.79973 0.42036
-0.898063 0.323607 -1.56043
-0.384995 0.3 -2.06668
-4.0681e-07 0.101042 -1.67198
0 0.200589 -2.07685
-0.898577 0.225062 -1.29061
-0.393722 0.101452 -1.33143
-0.822603 0.514228 1.73449
-0.333784 0.53 2.19628
-1.1087e-05 0.169753 1.72022
-5.25266e-06 0.36364 2.20337
-0.89426 0.313777 1.37664
-0.36134 0.17868 1.37771
1.87356e-06 0.689528 -1.56215
0 0.473865 -2.12283
-0.89711 0.494765 -1.20893
-0.431155 0.786853 -1.1681
1.70589e-05 0.939522 1.70943
-1.75089e-06 0.71081 2.11064
-0.895386 0.681593 1.3745
-0.342349 1.06159 1.37343
0.89806 0.323609 -1.56042
0.385001 0.3 -2.06762
0.898578 0.225058 -1.29058
0.393726 0.101452 -1.33142
0.822523 0.514249 1.73455
0.333835 0.53 2.19633
0.894257 0.314341 1.37665
0.360776 0.178679 1.37772
0.89711 0.494765 -1.20892
0.431158 0.790253 -1.16809
0.895385 0.68161 1.3745
0.342378 1.06159 1.37343
-0.829152 0.253567 0.0430176
-0.382582 0.105744 0.02314
-0.843749 0.370822 -0.921603
-0.834367 0.41255 -0.265268
-1.22043e-06 0.101865 -0.992783
-7.05479e-06 0.102927 -0.315498
-0.836315 0.44879 0.391068
-0.897847 0.482683 1.0474
-1.79099e-05 0.103841 0.361788
-1.9254e-05 0.130729 1.03907
-0.828251 0.60654 0.0827825
-0.495465 1.21421 0.102666
5.62068e-06 0.849207 -0.850404
2.26796e-05 1.19342 -0.215023
5.30504e-05 1.26125 0.420358
5.11768e-05 1.20082 1.05574
0.82915 0.253588 0.0430337
0.382568 0.105747 0.02315
0.843855 0.370827 -0.921584
0.83437 0.412576 -0.265253
0.836317 0.448857 0.391078
0.897848 0.482748 1.04741
0.828242 0.606577 0.0827913
0.495521 1.21421 0.102669
-0.898416 0.213781 -1.61526
-0.861665 0.237004 -0.9572
-0.824722 0.517338 -0.886005
-0.895749 0.446132 -1.52311
0.898416 0.213779 -1.61523
0.895749 0.446133 -1.5231
0.824416 0.517344 -0.885992
0.861686 0.237004 -0.957176
-0.395611 0.101056 -1.67103
0.395613 0.101055 -1.67101
0.391172 0.101879 -0.992775
-0.391172 0.10188 -0.99279
-0.419328 0.740655 -1.52397
-0.416924 0.817665 -0.850406
0.416933 0.814126 -0.850402
0.419329 0.742975 -1.52397
-0.391247 0.201544 -2.00488
-0.396247 0.435683 -2.07777
0.396251 0.435683 -2.07772
0.391251 0.201544 -2.00487
-0.825385 0.246525 -0.290388
-0.829315 0.262093 0.376423
-0.824545 0.63366 0.405712
-0.830529 0.577236 -0.240147
0.825387 0.246535 -0.290369
0.830537 0.577264 -0.240137
0.824544 0.633713 0.405719
0.829316 0.262134 0.376437
-0.385259 0.105039 -0.315503
0.38525 0.10504 -0.315492
0.379645 0.106447 0.361792
-0.379671 0.106446 0.361783
-0.501072 1.14165 -0.215024
-0.484488 1.22613 0.420357
0.48456 1.22612 0.420359
0.501101 1.14164 -0.215022
-0.896714 0.300073 1.04324
-0.833848 0.340639 1.72542
-0.757637 0.687047 1.71281
-0.89559 0.664523 1.05157
0.896712 0.300386 1.04324
0.895589 0.664587 1.05157
0.757629 0.687055 1.71284
0.797876 0.340921 1.72545
-0.369572 0.13497 1.03907
0.369267 0.13497 1.03908
0.339662 0.177948 1.71829
-0.339951 0.177946 1.71829
-0.358156 1.17633 1.05574
-0.314924 0.924196 1.70027
0.314939 0.924171 1.70027
0.358239 1.1763 1.05574
-0.326173 0.36557 2.1929
0.326191 0.36557 2.19305
0.310667 0.701655 2.12811
-0.310642 0.701655 2.12837
-0.716313 0.15375 -1.90189
-0.59625 0.101207 -2.01252
-0.794757 0.102831 -1.83941
-0.651417 0.28625 2.07129
-0.477839 0.203224 2.05678
-0.673806 0.170722 1.88568
-0.809007 0.44625 -1.82564
-0.61125 0.576024 -1.8845
-0.879387 0.584387 -1.64463
-0.606447 0.77375 2.03827
-0.43125 0.877228 2.03104
-0.614353 0.869353 1.84996
0.59625 0.101205 -2.01249
0.716231 0.15375 -1.90177
0.794764 0.102823 -1.83937
0.477825 0.203539 2.05646
0.651412 0.28625 2.0713
0.67164 0.172875 1.88568
0.61125 0.57606 -1.88453
0.809059 0.44625 -1.82568
0.879351 0.584351 -1.64463
0.43125 0.87723 2.03104
0.606378 0.77375 2.0382
0.614458 0.869458 1.84997
-0.77975 0.103367 -0.823475
-0.774794 0.1035 -0.484831
-0.805174 0.168601 -0.638974
-0.581971 0.105135 -0.65415
-0.748579 0.11042 0.869746
-0.756413 0.107409 0.531101
-0.805733 0.181622 0.705126
-0.564397 0.110038 0.700425
-0.808574 0.663574 -0.691562
-0.819105 0.616665 -0.547896
-0.801894 0.706894 -0.373871
-0.6764 0.917965 -0.532716
-0.735702 0.840702 0.896892
-0.80052 0.752439 0.733344
-0.759874 0.814874 0.579201
-0.618126 1.04777 0.738047
0.779747 0.103366 -0.823447
0.581946 0.105177 -0.65413
0.774789 0.103499 -0.484806
0.805161 0.168608 -0.63895
0.748514 0.110475 0.869757
0.564479 0.109808 0.700435
0.75633 0.107484 0.531116
0.805728 0.181663 0.705138
0.80858 0.66358 -0.691555
0.676454 0.918055 -0.532711
[...]
POINT_DATA 3682
SCALARS point_scalars float 1
LOOKUP_TABLE default
-47.4293
-41.7642
1.87656
-34.1657
-47.8013
-41.7079
0.456251
-34.0839
-34.7382
-31.047
-45.3823
-45.3163
-34.7567
-31.5889
-45.1379
-44.2075
-69.7145
-104.339
-52.7765
-31.7821
-58.0091
-40.5724
-35.5421
-47.4293
-119.927
-34.547
-35.1297
-45.0358
-36.4297
-35.1472
53.4306
-122.161
-41.9082
-36.2526
-38.0107
-35.1785
-34.681
-13.2257
-93.7648
-90.4477
-55.6677
-34.8494
-34.4754
-32.772
-61.2115
-107.122
-36.459
-34.7738
-42.2152
-37.1392
-37.017
-61.2115
-35.3202
-35.2022
153.747
-33.8907
-33.8565
23.1065
-70.0307
-84.0006
-58.6527
-32.2258
-31.3649
-30.6194
-61.024
-107.01
-36.4762
-35.0995
-41.9138
-36.9783
-36.9783
-61.024
-35.1585
-35.1701
152.509
-33.898
-33.898
28.4684
-63.95
-84.0234
-58.6744
-32.1668
-31.2692
-30.1535
-61.7226
-104.5
-52.784
-31.9074
-57.9473
-40.556
-35.5538
-47.8013
-120.06
-34.5679
-35.3138
-44.6829
-36.4014
-35.1091
47.8022
-122.379
-41.7064
-36.1988
-37.9796
-35.1308
-34.6441
-14.8187
-93.7373
-90.2188
-55.5667
-34.7918
-34.3883
-32.6894
13.2867
-185.426
-60.7133
-35.2655
-40.1568
-41.7513
-35.1947
-62.3443
-30.3581
-46.5024
12.8766
-60.7576
-35.2066
-41.5635
-62.2401
-46.4644
-34.1137
-35.0863
-39.3218
-27.105
-41.0451
-47.9656
11.9081
-63.4576
-34.1186
-35.0718
-27.0995
-47.897
-65.281
-65.3412
-60.1678
-8.59376
188.118
-36.0702
-36.0618
-35.5436
-91.9763
-49.8352
-49.7839
-38.1727
-37.8459
-29.9818
3.90337
-179.048
-108.945
-37.0537
-40.5885
-47.2284
1.64106
-21.6558
-94.2585
-35.0341
-30.6711
-37.7183
-179.202
3.36229
-109.004
-40.5627
-37.0221
-47.3667
-21.2746
0.504339
-94.1252
-30.6221
-34.9587
-37.7474
-49.0158
-34.0854
-34.2081
-39.0489
-42.5622
-30.8384
-20.3556
-41.2947
-41.1482
-38.1096
-47.7683
-1.72008
-48.3322
-33.9586
-46.5452
-59.943
-49.0315
-39.0603
-34.0877
-34.2111
-42.6828
-41.2793
-30.884
-20.4105
-41.2587
-1.74013
-38.0277
-47.6168
-48.3389
-59.8909
-33.822
-46.4857
-105.494
169.562
-88.1745
172.633
-65.9584
-60.6086
-44.9921
-33.431
-40.5068
-34.3593
-47.7362
-37.7311
-34.0229
173.144
-63.2497
-18.9471
-32.201
-27.5453
-55.4972
-38.8576
-105.582
169.686
-66.0132
-60.6453
-44.8975
-33.3664
-47.658
-37.7172
-63.2748
-17.701
-55.446
-38.845
-33.7747
-35.0638
-44.5293
-35.5846
-46.6587
-36.0748
-33.5027
-46.3743
-37.0728
-41.5505
-40.4416
-81.7215
16.7001
-67.4934
-76.1771
-49.2628
-33.7807
-35.0654
-44.5471
-35.5537
-33.5069
-46.3219
-40.4019
-81.6148
-120.396
-48.2598
-41.5679
-99.0198
-120.481
-99.0903
-41.5981
-48.2713
-92.2756
-92.3048
-46.6943
-46.6726
-41.5712
2.84292
2.16184
-41.2717
150.961
156.431
157.164
151.099
-33.4771
-29.9737
-38.9079
-40.2051
-33.4699
-40.1196
-38.8879
-29.9842
-35.6952
-35.6985
-36.3711
-36.3733
-71.9628
-66.9832
-66.9122
-71.7372
-46.4352
-48.2076
-42.5788
-44.3055
-46.3931
-44.2373
-42.5041
-46.6641
-41.9605
-41.9521
-40.8042
-40.8122
-49.9959
-33.4304
-33.4093
-49.9896
-35.1857
-35.1483
-31.1269
-31.2416
-26.2315
-15.6589
-99.747
-38.186
-41.3676
-42.0392
1.26698
8.64746
-94.4651
-34.9368
-31.3381
-35.3817
-15.4224
-26.647
-99.8722
-41.3174
-38.1306
-42.0302
7.68556
0.300086
-94.8673
-31.2801
-34.8493
-35.3303
-38.6082
-34.9905
-34.677
-37.9299
-48.8557
-33.2821
-16.6399
-40.5508
-42.7743
-41.1412
-47.2916
-63.5997
-46.4995
-42.2343
-45.6309
-52.3442
-38.6371
-37.9455
-34.9817
-34.6866
-48.7377
-40.5164
-33.1488
-17.2256
-42.4508
-63.3522
-40.9934
-47.1416
-46.5426
-52.2591
-41.4445
-46.2365
14.176
6.97349
-134.308
134.967
-215.629
-215.398
-119.737
133.511
-76.6336
-52.6115
-65.4678
-59.6647
-36.247
-34.9729
-39.141
-34.0911
-40.618
-40.603
-40.3142
-35.8077
-44.7739
-41.1109
-46.756
-39.6369
-44.9045
-46.4417
-45.9036
100.653
-78.0148
-47.8297
-62.9986
-39.2253
-30.4318
-30.4034
-31.2168
-25.9778
-41.9044
-49.3735
-53.2718
-41.2987
13.6533
7.19795
-134.508
134.753
-76.6835
-52.6443
-65.5227
-59.7095
-36.1918
-34.8992
-39.0405
-34.004
-44.5629
-41.1656
-47.084
-39.6117
-78.1556
-47.8584
-62.9525
-39.6763
-41.8638
-49.322
-53.2219
-41.2824
-32.2258
-34.0474
-33.4177
-34.3461
-34.5741
-36.1758
-37.4509
-34.9895
-39.3159
-39.3213
-42.3299
-37.3482
-24.071
-28.756
-29.9492
-35.7555
-41.2769
-41.2694
-38.7583
-43.1876
-48.6863
-47.0356
-43.2237
-59.8403
10.8811
10.9778
27.6651
-18.9265
-62.9438
-62.9303
-69.6671
-56.7675
-32.2364
-34.061
-33.4264
-34.3487
-34.5721
-36.1369
-37.4633
-34.9587
-24.0925
-28.7283
-29.9833
-35.7527
-48.5593
-47.0121
-43.1524
-59.7493
-79.2476
-65.8648
-64.2736
-55.7046
-79.3274
-65.9216
-64.3403
-55.7285
-71.0569
-60.4836
-60.5076
-52.2779
-11.8232
-10.2815
-11.2219
2.78068
183.808
184.019
209.392
183.788
-34.7429
-36.2792
-35.0416
-38.0014
-34.7419
-36.2567
-35.049
-37.9816
-35.4573
-35.5234
-36.028
-35.4461
-90.6233
-97.4276
-83.697
-90.5968
-54.0991
-48.8129
-51.157
-47.723
-54.0362
-48.7646
-51.1006
-47.6828
-37.6188
-37.2621
-37.2536
-39.8349
-34.539
-37.9413
-37.9354
-42.6447
-31.1901
-33.0521
-28.3146
-31.12
-99.0008
133.897
-132.121
83.3201
-119.129
-94.1117
-39.9405
-35.4488
-40.6313
-36.0757
-46.5298
-42.0824
-125.753
108.578
-41.7698
93.1252
-98.3961
-59.2249
-38.5383
-33.5077
-31.7382
-30.2285
-40.7471
-34.6206
-132.122
83.3621
-99.159
133.333
-119.263
-94.1581
-40.6133
-36.053
-39.8276
-35.3408
-46.4653
-42.1093
-42.2246
97.5276
-125.899
108.958
-98.3902
-55.5875
-31.7075
-30.0983
-38.4499
-33.432
-40.6581
-34.5991
-51.9809
-46.1504
-33.3159
-34.8782
-37.6563
-33.3942
-42.2148
-36.9225
-45.725
-40.7713
-28.2855
-35.0598
-26.4974
-39.6278
-38.1264
-42.2022
-41.2436
-18.1142
-38.0352
-39.1169
-43.1572
-68.0181
10.7659
-40.6702
-46.1395
-51.2079
-35.1163
-35.5886
-42.9521
-54.8308
-62.7286
-56.011
-51.9892
-46.1758
-42.2411
-36.9269
-33.317
-34.8804
-37.6799
-33.3831
-45.6784
-40.7984
-38.12
-42.191
-28.3022
-35.0642
-26.5648
-39.5844
-41.3285
-18.9353
10.4034
-40.399
-38.0108
-39.0244
-43.0403
-67.6405
-46.078
-51.1889
-62.6864
-56.0024
-35.1179
-35.4638
-42.9437
-54.727
-111.869
-102.288
150.443
180.213
-89.6792
-89.7011
158.853
158.87
-82.1171
-57.5988
-72.514
-52.5918
-47.8056
-43.3769
-34.9179
-32.5915
-40.5732
-40.5797
-34.8183
-34.7934
-45.9698
-53.7851
-40.0664
-39.7725
-39.2254
-37.15
163.621
164.414
-52.0728
-76.4178
-26.5863
-9.57476
-32.5468
-32.5336
-28.6015
-28.6934
-49.8323
-50.207
-43.6845
-35.5473
-111.947
-102.373
180.255
149.897
-82.188
-57.6206
-72.554
-52.6192
-43.2814
-47.736
-34.8795
-32.5548
-45.9484
-53.9725
-40.0531
-39.755
-76.5386
-52.0994
-9.48575
-27.3907
-50.158
-49.7779
-35.5349
-43.6789
-33.7564
-33.6891
-35.1123
-35.456
-46.3179
-42.921
-34.2936
-37.5203
-46.7808
-46.7687
-36.0295
-36.0367
-31.657
-36.6105
-46.3605
-46.9251
-36.8375
-36.8399
-41.8184
-41.8153
-39.4659
-41.0875
-87.7575
-72.0989
13.1468
13.1823
-66.5551
-66.445
-74.3207
-74.2982
-49.3046
-49.3075
-33.7491
-33.7055
-35.1146
-35.4565
-42.9398
-46.3313
-34.2765
-37.4671
-36.5981
-31.6711
-46.3092
-46.8702
-41.0177
-39.5091
-72.0085
-87.5576
-83.4117
-82.5598
-80.7952
-122.619
-37.6868
-37.2766
-56.8313
-57.0601
-39.9962
-48.9452
-54.2782
-37.4894
-123.479
-135.015
-77.9256
-75.774
-83.5101
-122.804
-80.8701
-82.624
-123.676
-75.8666
-78.0108
-135.206
-39.8976
-37.4888
-54.2998
-48.9812
-37.7158
-57.0881
-56.8557
-37.2984
-138.875
-124
-71.7895
-72.2802
-138.926
-72.3291
-71.8171
-124.001
-41.278
-42.4113
-52.5466
-51.9004
-41.2534
-51.8673
-52.5297
-42.4028
-28.8739
-55.9887
-16.9941
-43.0068
-42.2423
23.425
0.402949
-28.3784
-41.9441
-30.8736
0.0190394
23.3496
-36.3839
-43.6344
-17.3773
-54.7815
53.7463
130.03
177.415
88.0352
46.9442
111.152
197.811
133.619
47.5453
134.092
197.811
112.509
54.3755
90.0752
177.411
131.776
-33.4472
-33.3839
-34.8208
-34.0229
-28.6245
-28.2274
-33.6819
-35.2048
-41.0117
-42.1493
-37.217
-35.2278
-42.4689
-36.5945
-38.3241
-44.4167
-33.4329
-34.0053
-34.8093
-33.3854
-42.3347
-44.3201
-38.2828
-36.5403
-41.6858
-35.2207
-37.2266
-42.6547
-28.5413
-35.2167
-33.6922
-28.2606
-36.0329
-37.2393
-35.4341
-34.38
-36.0376
-34.385
-35.455
-37.242
-36.6456
-38.7905
-35.9132
-34.4993
-36.6518
-34.4957
-35.9143
-38.6523
-75.822
-63.4749
-95.2555
-20.6313
-53.4964
-68.4235
-81.5947
-56.6634
-53.3555
-56.5838
-81.5675
-68.4078
-75.6119
-20.5085
-95.2197
-63.3347
-52.2527
-44.1572
-46.8126
-38.3109
-40.5143
-40.0869
-53.5373
-54.141
-37.6056
-45.5884
-54.3017
-38.792
-42.7701
-32.73
-48.7286
-53.7958
-51.5219
-38.3017
-46.7835
-44.1459
-42.7985
-53.8615
-48.6833
-32.6963
-37.5266
-38.6989
-54.2171
-45.5355
-40.3258
-54.4184
-53.5254
-39.9817
-43.637
-42.8745
-39.8194
-40.1193
-43.5829
-40.0824
-39.8131
-42.8663
-41.0595
-40.3798
-38.8221
-40.6888
-41.1055
-40.7352
-38.8276
-40.3889
-50.6279
-46.1162
-42.9247
-56.2848
-32.708
-31.3625
-34.7992
-37.2127
-32.6679
-37.2268
-34.791
-31.3448
-50.5865
-56.278
-42.9176
-46.0915
-36.4643
-35.7646
-33.7343
-35.0569
-36.5526
-35.033
-33.6963
-35.7396
-32.7924
-27.1864
-29.5902
-33.7517
-32.8885
-33.8336
-29.6685
-27.2884
-57.527
-74.6566
-92.2193
-40.4007
-42.1143
-42.1424
4.84694
21.136
-47.5496
-34.9707
-32.1683
-34.4735
-75.1502
-57.791
-92.7063
-42.054
-40.3779
-41.7109
18.1879
3.4059
-47.947
-32.0962
-34.88
-34.4069
-37.5413
-35.3494
-35.1076
-37.0466
-44.9414
-28.0668
-19.2294
-39.873
-44.428
-43.2827
-46.4479
-58.3279
-45.8155
-44.2591
-45.4026
-48.6903
-37.5592
-37.0629
-35.3562
-35.1203
-44.6185
-39.7849
-28.5061
-20.3027
-44.1454
-57.9925
-43.0821
-46.2418
-45.8992
-48.6297
-42.8722
-44.2776
15.0926
11.6485
-54.8086
71.4258
-186.565
-186.492
-145.325
26.9608
-67.2471
-56.3543
-64.1341
-59.5434
-35.8914
-34.6608
-37.2102
-34.3325
-40.4636
-40.4554
-40.6182
-37.1528
-42.5755
-41.1458
-45.7861
-40.9158
-42.5709
-43.2108
-39.2347
15.8602
-70.054
-54.2368
-63.641
-54.7445
-30.38
-30.3669
-30.9373
-25.4471
-43.9421
-48.1298
-48.2934
-43.5531
14.6157
13.1072
-55.0978
70.6744
-67.294
-56.3946
-64.1858
-59.588
-35.8365
-34.5837
-37.1249
-34.2873
-42.3004
-41.1605
-45.7627
-40.8821
-70.1066
-54.2679
-63.6643
-56.0901
-43.9003
-48.147
-48.2399
-43.5237
-33.2229
-32.4855
-33.5969
-33.9554
-34.7043
-35.5179
-35.7957
-34.9809
-39.345
-39.3476
-40.7516
-38.1822
-25.511
-28.3599
-28.6251
-25.6492
-41.0875
-41.0834
-39.767
-42.9652
-48.4356
-47.3934
-45.8315
-53.0812
12.0539
12.3918
23.3308
-2.40802
-63.332
-63.3375
-66.4406
-60.1029
-33.2342
-32.4976
-33.6036
-33.9575
-34.6976
-35.4934
-35.7959
-34.9547
-25.4998
-28.3491
-28.6402
-25.6819
-48.3257
-47.3642
-45.756
-52.9957
-71.3378
-65.8247
-64.816
-60.521
-71.4132
-65.8827
-64.8789
-60.559
-64.5416
-60.138
-60.1515
-55.9389
-10.0522
-9.1661
-9.21451
-3.37517
187.3
186.24
201.492
187.288
-35.3397
-36.3148
-35.6254
-36.9606
-35.3359
-36.299
-35.6264
-36.947
-35.5291
-35.4573
-35.6923
-35.529
-91.7139
-96.2086
-87.9512
-91.7087
-51.4566
-49.3322
-50.4183
-48.6719
-51.3861
-49.2844
-50.3643
-48.6268
-36.5984
-38.1772
-38.1735
-38.9968
-35.9839
-37.8487
-37.846
-40.0368
-30.2954
-32.0019
-27.8452
-30.2508
-5.48157
11.2275
-31.8873
84.4093
-85.3709
-248.033
-170.538
19.9361
-144.984
-89.0469
-106.598
-97.7581
-37.4714
-36.5442
-38.21
-35.8311
-40.8867
-40.7992
-40.8315
-37.1634
-43.1001
-47.3725
-48.6319
-43.1115
-2.40322
5.09331
-89.3185
63.8791
-6.47247
-34.4718
-37.9671
27.2636
-113.869
-87.2463
-101.549
-76.6657
-34.7561
-35.1583
-37.5227
-33.9199
-30.9338
-30.5135
-31.1411
-29.9153
-36.3687
-39.2864
-39.5946
-35.7105
-85.4163
-247.815
-170.497
19.989
-5.98636
10.671
-32.1347
83.8136
-145.059
-89.0965
-106.745
-97.8141
-40.8467
-40.7758
-40.8203
-37.1204
-37.433
-36.4966
-38.129
-35.8793
-43.3628
-47.4681
-48.5901
-43.1997
-5.20346
-36.982
-40.8756
35.8561
-3.02708
2.41573
-89.6858
63.3963
-113.824
-87.1105
-101.475
-74.8409
-30.8787
-30.4725
-31.1004
-29.8301
-34.6752
-35.0859
-37.4364
-33.8478
-36.454
-39.2684
-39.473
-35.681
-44.503
-49.9173
-52.3108
-46.2837
-32.7095
-34.2084
-33.51
-34.4043
-34.3039
-34.2878
-35.4149
-33.6427
-38.686
-39.2462
-40.5875
-37.8091
-44.7745
-40.9395
-45.3361
-40.8365
-31.2946
-32.712
-29.3685
-34.0338
-17.9298
-22.5413
-23.8382
-21.9848
-40.8821
-41.4724
-39.3335
-41.9634
-41.3174
-43.9607
-41.3428
-37.5191
-39.4132
-36.9634
-37.8991
-38.555
-47.1597
-48.5972
-45.6913
-55.742
-23.7084
8.17108
8.28973
-17.1267
-47.6281
-49.5247
-48.8069
-48.2667
-38.3304
-30.6222
-31.1248
-36.0807
-46.0495
-46.724
-46.1279
-50.1605
-56.3854
-62.2154
-61.9045
-58.8818
-44.5261
-49.9432
-52.3182
-46.3052
-38.7028
-39.2542
-40.6002
-37.8156
-32.7124
-34.2086
-33.5135
-34.4036
-34.3107
-34.2891
-35.4304
-33.6349
-44.9522
-41.0213
-45.327
-40.9961
-40.8637
-41.4612
-39.3229
-41.9461
-31.2932
-32.7332
-29.4158
-34.0447
-17.9738
-22.5906
-23.9389
-22.0069
-41.1083
-44.3072
-41.4772
-36.8447
-24.1169
8.15049
8.10261
-17.2415
-39.3029
-36.9078
-37.839
-38.4633
-47.0055
-48.4563
-45.5552
-55.5495
-47.6288
-49.5195
-48.798
-48.2698
-56.3347
-62.1916
-61.8531
-58.8527
-38.0245
-30.5576
-31.0985
-35.9313
-46.1596
-46.5537
-46.0954
-50.1212
-130.363
-89.6542
-107.934
-103.617
154.168
177.881
156.576
179.849
-102.018
-78.2334
-88.6833
-88.6984
160.853
178.385
169.417
169.413
-66.1742
-65.9368
-72.997
-60.9371
-60.1892
-60.7347
-65.8668
-56.3231
-41.3201
-51.2299
-46.6349
-43.6836
-33.8802
-32.3259
-34.5708
-32.524
-40.197
-40.4336
-40.5192
-40.5226
-34.8765
-33.7214
-34.4933
-34.479
-47.3459
-48.2812
-46.7905
-49.3619
-38.3235
-36.9586
-39.2087
-38.2736
-55.704
-21.7883
-37.4752
-32.6502
146.768
196.188
156.875
157.836
-63.1877
-63.7698
-58.5412
-69.062
-29.3954
-12.8505
-19.7733
-14.56
-31.8095
-33.1967
-32.3068
-32.3002
-27.8105
-28.0107
-27.7908
-27.8523
-56.6076
-52.0389
-56.4533
-52.0332
-39.8072
-38.3105
-41.0277
-36.9672
-130.458
-89.7359
-108.018
-103.704
153.254
177.777
179.767
156.564
-66.229
-65.9915
-73.0617
-60.9773
-60.2302
-60.7652
-65.9069
-56.3546
-41.2303
-51.1161
-43.6039
-46.5284
-33.8662
-32.2493
-34.5251
-32.5139
-47.1553
-48.2243
-46.7733
-49.3292
-38.3055
-36.9419
-39.1928
-38.2588
-63.1811
-63.8294
-69.1963
-58.5637
-23.3247
-14.1519
-14.2749
-21.357
-56.5736
-51.9787
-51.9869
-56.3916
-39.7978
-38.3033
-36.9568
-41.1112
-33.5969
-34.2305
-33.8622
-33.6595
-34.7449
-35.2989
-35.0424
-35.1697
-40.5518
-50.2998
-45.452
-43.6307
-35.1984
-35.992
-34.8551
-36.4372
-44.3083
-49.1736
-46.701
-46.6946
-36.6148
-35.758
-36.1105
-36.1104
-32.4589
-34.2954
-32.5431
-34.8017
-45.6685
-46.9796
-46.2453
-46.5427
-37.8377
-36.513
-37.0469
-37.048
-42.2869
-40.6982
-41.6555
-41.6529
-41.5779
-39.2112
-39.9809
-40.8889
-69.201
-87.1467
-81.6042
-77.0184
24.2062
9.96764
15.7986
15.4499
-42.3081
-92.3501
-68.2627
-68.2347
-72.6735
-79.9334
-75.475
-75.4652
-52.9102
-46.0532
-49.1099
-49.1164
-33.6058
-34.2326
-33.8604
-33.6692
-34.7472
-35.2995
-35.0446
-35.1712
-40.571
-50.3055
-43.6493
-45.4835
-35.1665
-35.9638
-34.8322
-36.3968
-32.4657
-34.304
-34.7937
-32.5542
-45.5947
-46.9354
-46.1934
-46.4898
-41.5293
-39.1814
-40.8338
-39.9602
-69.0442
-87.0653
-76.9331
-81.6114
-130.324
-119.821
-116.065
-95.6919
-50.7555
-41.8656
-54.0324
-47.5771
-41.1866
-39.1501
-45.1913
-42.1573
-121.334
-97.6312
-100.229
-85.8544
-130.504
-119.935
-116.142
-95.7608
-121.453
-97.6777
-100.307
-85.9133
-41.2053
-39.1465
-45.2367
-42.1874
-50.7708
-41.8771
-54.0419
-47.5892
-109.368
-92.5485
-91.5348
-80.7167
-109.383
-92.5833
-91.5588
-80.7544
-46.4303
-44.2892
-49.4151
-46.8253
-46.4053
-44.2701
-49.3896
-46.8079
-43.1736
-48.1823
-45.2714
-36.1644
-3.77293
7.70601
-3.77653
8.82967
-4.09725
7.18617
-4.48805
8.13358
-43.6647
-47.0245
-45.2426
-36.0245
146.755
151.386
142.567
149.761
132.148
121.161
172.168
174.925
122.616
133.238
175.749
172.457
151.043
146.658
149.749
142.779
-33.2961
-33.3526
-33.5191
-33.8065
-28.7593
-28.9863
-31.511
-30.8213
-37.7318
-40.1077
-38.1251
-38.8335
-39.6703
-41.8011
-38.781
-40.7943
-33.2944
-33.3428
-33.5133
-33.7949
-39.578
-41.7
-38.7128
-40.7165
-37.7593
-39.9875
-38.1104
-38.8577
-28.7793
-29.0138
-31.5291
-30.8347
-35.3714
-36.2102
-35.3508
-35.9377
-36.2141
-35.3751
-35.9405
-35.3535
-37.1513
-35.8527
-36.7179
-35.861
-35.8533
-37.1554
-35.8622
-36.7206
-90.4686
-53.8194
-85.5782
-62.8258
-60.0421
-65.1831
-69.4543
-72.0028
-65.1052
-59.9248
-71.9564
-69.3802
-53.6499
-90.2539
-62.0965
-85.4069
-46.2301
-48.3815
-45.9091
-46.5026
-42.3678
-45.9625
-48.9416
-55.3554
-40.2914
-41.8822
-42.8484
-45.4002
-43.1128
-38.4492
-48.6503
-46.61
-46.1906
-48.3206
-45.8799
-46.4535
-43.0368
-38.3647
-48.6064
-46.5549
-40.2031
-41.812
-42.7643
-45.338
-42.5511
-45.825
-48.3954
-56.4712
-41.6098
-42.5353
-40.8965
-41.9588
-41.605
-42.5277
-40.8851
-41.9511
-40.611
-41.1665
-40.7225
-40.7198
-40.6274
-41.1707
-40.7323
-40.7293
-51.0132
-53.1181
-46.7719
-49.6113
-32.6826
-33.9
-32.917
-34.1999
-32.6631
-33.8792
-32.8995
-34.1821
-51.0015
-53.1176
-46.7578
-49.6131
-35.4265
-35.2424
-35.0234
-35.093
-35.2033
-35.339
-35.0626
-34.9872
-30.5896
-32.7832
-29.4851
-31.9192
-32.8758
-30.714
-31.9899
-29.5839
-39.7107
34.7235
-172.223
-11.2623
-84.0817
-148.645
-39.3558
-37.4855
-41.5657
-38.3816
-41.3386
-41.142
-91.7773
48.8366
-35.5797
43.7399
-115.205
-30.3159
-36.657
-33.689
-31.8249
-32.363
-36.8499
-33.5471
-172.24
-10.6758
-39.9992
34.461
-84.0661
-148.695
-41.5263
-38.3624
-39.2601
-37.2868
-41.4624
-41.0916
-30.3002
43.0995
-91.9989
47.6332
-115.49
-34.5543
-31.777
-32.2632
-36.5733
-33.6188
-36.7813
-33.5024
-37.7171
-40.5449
-33.7847
-35.4258
-35.9122
-33.8465
-39.4129
-36.7985
-55.5116
-44.5626
-31.0314
-35.0164
-23.0589
-20.9665
-38.034
-42.1615
-41.2984
-50.9293
-40.532
-41.8914
-44.6853
-57.6382
-53.5079
-81.7215
-45.65
-48.4919
-41.2193
-42.3863
-44.1113
-50.0963
-52.6813
-51.6415
-37.7493
-40.5656
-39.432
-36.8074
-33.7706
-35.4358
-35.9393
-33.8432
-54.7224
-44.3982
-38.0129
-42.1111
-30.845
-35.0584
-23.3177
-21.7685
-41.1198
-50.2001
-53.0522
-81.3031
-40.3992
-41.7442
-44.4889
-57.4201
-45.4537
-48.4948
-52.5662
-51.5781
-41.5484
-42.2533
-45.131
-49.8966
-42.442
78.6592
-71.6794
70.5265
-132.715
-134.799
132.025
140.885
-152.292
49.1375
-152.25
49.4876
-120.663
-120.667
96.1455
94.8939
-82.307
-73.4208
-55.5427
-51.7669
-72.4841
-60.0406
-65.0298
-55.6031
-38.0479
-35.2153
-37.3137
-34.1082
-39.6987
-38.6491
-34.775
-33.4888
-40.7465
-37.3525
-40.7364
-37.3298
-40.3335
-40.3384
-35.7403
-35.7281
-53.2544
-41.5943
-43.1072
-40.5692
-45.2225
-48.7595
-39.6072
-40.1244
-40.1773
58.8736
-41.4308
58.7332
-43.7848
-44.7133
113.282
114.594
-76.783
-75.4075
-48.2582
-45.5694
-56.2574
-68.2228
-47.5677
-32.4097
-30.9401
-27.2989
-30.9198
-27.1513
-31.2542
-31.2453
-26.3475
-26.4139
-43.5794
-39.1357
-51.3372
-47.3285
-48.7593
-54.9264
-43.9141
-39.0366
-42.7489
78.17
-72.0747
70.087
-132.889
-134.985
141.26
133.394
-82.3666
-73.4706
-55.5742
-51.8007
-72.5466
-60.0828
-65.0799
-55.6414
-37.9397
-35.176
-37.2227
-34.0482
-38.5543
-39.5932
-34.7327
-33.3701
-52.9722
-41.5057
-43.1323
-40.4935
-45.3318
-48.3795
-39.5769
-40.0848
-77.1186
-75.2064
-48.2936
-45.7461
-68.6628
-56.2889
-34.9383
-43.0194
-43.5337
-39.1098
-51.3244
-47.3458
-54.8783
-48.7037
-39.0183
-43.8874
-33.0544
-33.9381
-34.3972
-33.9151
-33.3163
-33.4651
-34.2917
-34.3483
-35.5057
-34.155
-36.3389
-36.3149
-37.3355
-37.3351
-34.4422
-35.7201
-40.7546
-38.1853
-40.7614
-38.1716
-42.4222
-42.4182
-37.3462
-37.3478
-26.325
-24.2042
-31.9145
-29.2901
-29.288
-32.4579
-36.7585
-34.6477
-39.731
-42.6739
-39.584
-42.668
-38.7425
-38.7454
-43.0751
-43.0744
-46.4245
-54.8971
-44.8184
-51.5578
-42.5946
-43.6042
-61.7308
-58.0716
20.2597
-5.08998
20.2753
-4.9592
26.4789
26.5574
-18.7719
-18.7202
-65.6273
-59.7046
-65.6123
-59.697
-69.2425
-69.2253
-56.285
-56.2684
-33.0614
-33.9399
-34.4125
-33.9182
-33.321
-33.476
-34.2975
-34.3517
-35.5149
-34.1439
-36.319
-36.2643
-37.3431
-37.353
-34.419
-35.679
-26.3699
-24.243
-31.9089
-29.2442
-32.4656
-29.313
-36.7661
-34.6159
-46.3106
-54.7432
-45.1316
-51.4854
-43.523
-42.4358
-57.9863
-61.6266
-80.1342
-78.6124
-72.3635
-61.1453
-59.5784
-70.1372
-56.4396
-54.9966
-80.2117
-78.6949
-72.4318
-61.1837
-70.2385
-59.6117
-55.0187
-56.4661
-71.2254
-71.2424
-65.2644
-56.2347
-65.2899
-56.2544
-52.4029
-52.3935
-13.3267
-13.9754
-16.7973
-5.4509
-5.81947
-10.7014
1.60175
1.54734
181.461
188.654
180.838
180.844
200.257