# vtk DataFile Version 2.0
tet_velo
ASCII
DATASET UNSTRUCTURED_GRID
POINTS 29498 float
-0.743533 0.175 -2.125
-0.745 0.185 2.13092
-0.745 0.775 -1.90272
-0.645 1.08383 2.025
0.712787 0.175 -2.125
0.715 0.185 2.13262
0.745 0.775 -1.90272
0.645 1.08383 2.025
-0.748442 0.173914 -0.70636
-0.756103 0.170074 0.71228
-0.796247 0.962523 -0.59348
-0.75667 1.05922 0.71576
0.768805 0.123053 -0.705793
0.772462 0.123467 0.713414
0.796254 0.962531 -0.59348
0.756683 1.05924 0.71576
-1.50559 -0.268152 -3.26515
-1.5008 -0.211217 -2.17398
-1.49847 -0.213279 -0.752467
-1.48793 -0.237092 0.691045
-1.47147 -0.231837 2.11441
-1.47576 -0.203584 3.21466
-1.48815 -0.164909 4.29813
-1.50758 0.0934047 -3.19343
-1.50771 0.171709 -2.11421
-1.51195 0.198608 -0.714065
-1.48755 0.195048 0.695891
-1.44808 0.202772 2.09814
-1.46195 0.232697 3.19683
-1.48272 0.271444 4.28387
-1.50911 0.774411 -3.01923
-1.51774 0.845275 -1.93543
-1.54387 0.988123 -0.609873
-1.48809 1.06811 0.707884
-1.39436 1.09421 2.0355
-1.43175 1.12174 3.13845
-1.473 1.15521 4.24299
-1.50927 1.93789 -2.84047
-1.51493 2.03025 -1.77312
-1.52576 2.19191 -0.483062
-1.51502 2.33113 0.783336
-1.48991 2.40844 2.07446
-1.48626 2.44476 3.14401
-1.49834 2.47515 4.23657
-0.755546 -0.268733 -3.27213
-0.744449 -0.212188 -2.18416
-0.73916 -0.234652 -0.750873
-0.74633 -0.262123 0.705227
-0.751484 -0.247712 2.13903
-0.758764 -0.216838 3.23146
-0.768072 -0.176893 4.30796
-0.755744 0.0866658 -3.19554
-0.755364 0.22139 3.21065
-0.767725 0.260867 4.29133
-0.751675 0.742653 -3.00561
-0.726509 1.11431 3.13646
-0.761456 1.14746 4.24274
-0.749207 1.91242 -2.82698
-0.751729 2.005 -1.75827
-0.767658 2.17916 -0.474061
-0.774126 2.32899 0.782393
-0.765509 2.40725 2.06698
-0.765776 2.4417 3.13657
-0.776687 2.47044 4.23122
0.732704 -0.27767 -3.272
0.737092 -0.224886 -2.184
0.773812 -0.274857 -0.750339
0.768707 -0.300848 0.706217
0.721064 -0.261441 2.14036
0.691333 -0.228584 3.2325
0.679422 -0.190468 4.30877
0.728145 0.0816423 -3.19547
0.674277 0.213666 3.21166
0.668168 0.249066 4.29209
0.744365 0.739458 -3.00556
0.653375 1.10829 3.13694
0.657805 1.13718 4.24331
0.766622 1.9052 -2.82686
0.771547 1.99822 -1.75816
0.757897 2.17143 -0.473923
0.719721 2.32026 0.782574
0.683166 2.39799 2.06723
0.67055 2.43142 3.13689
0.664333 2.45881 4.23162
1.48574 -0.289539 -3.26484
1.4931 -0.240844 -2.17358
1.52887 -0.275198 -0.751559
1.51973 -0.30059 0.692628
1.46373 -0.268284 2.11644
1.42866 -0.232145 3.21647
1.41329 -0.193952 4.29964
1.48107 0.0783978 -3.19321
1.48351 0.154112 -2.11399
1.52925 0.140605 -0.7133
1.51612 0.133614 0.69735
1.44505 0.173575 2.1001
1.40912 0.20955 3.19854
1.39929 0.245373 4.28531
1.49711 0.764136 -3.01907
1.50752 0.838222 -1.93533
1.54549 0.967351 -0.609596
1.49981 1.04168 0.708421
1.39795 1.07477 2.03625
1.38011 1.10301 3.13948
1.3832 1.13221 4.24411
1.52183 1.92186 -2.84019
1.52783 2.01458 -1.77286
1.51644 2.17393 -0.482738
1.47209 2.31099 0.78376
1.42166 2.38752 2.07501
1.40084 2.4225 3.1447
1.39295 2.45089 4.23738
-0.79922 0.475 -2.06881
-0.015373 0.116947 -2.18305
-0.800976 0.119468 -1.41568
-0.724395 0.634415 2.10736
-0.015 0.184425 2.13234
-0.78341 0.144679 1.4216
0 0.862244 -1.98996
-0.808547 0.906685 -1.2481
0 1.12197 2.06314
-0.73305 1.10374 1.37038
0.772695 0.475 -2.05766
0.772509 0.117313 -1.4154
0.716625 0.634415 2.11544
0.7584 0.139564 1.42302
0.80855 0.906688 -1.2481
0.733067 1.10376 1.37038
-0.75079 0.173476 0.00295997
-0.879967 0.568218 -0.64992
0.0101816 0.140694 -0.706077
-0.883135 0.614649 0.71402
0.00817959 0.142522 0.712847
-0.779351 1.01377 0.0611401
3.89068e-06 1.31209 -0.59348
6.36417e-06 1.48388 0.71576
0.770724 0.123169 0.00381005
0.876454 0.542792 -0.649637
0.885575 0.591351 0.714587
0.779362 1.01378 0.0611401
-0.877907 0.521609 -1.33189
-0.8816 0.591434 0.03205
-0.882057 0.624532 1.39599
-0.00259569 0.115594 -1.41554
0.00918062 0.141608 0.00338501
-0.00341021 0.140991 1.42231
-0.00768651 0.475 -2.30478
-0.00750001 0.634415 2.30027
1.94534e-06 0.999954 -1.2481
5.12743e-06 1.48671 0.0611401
3.18209e-06 1.34327 1.37038
0.87575 0.508896 -1.33175
0.886714 0.567072 0.0324751
0.879549 0.612883 1.3967
-1.12562 0.173355 -2.11961
-0.743991 -0.0185938 -2.15458
-0.749638 0.130833 -2.66027
-1.09654 0.193886 2.11453
-0.748242 -0.0313561 2.13497
-0.750182 0.203195 2.67079
-1.13137 0.810137 -1.91908
-0.748338 0.758826 -2.45417
-0.748364 1.39 -1.8305
-1.01968 1.08902 2.03025
-0.685755 1.09907 2.58073
-0.705254 1.74554 2.04599
0.724939 -0.024943 -2.1545
0.720466 0.128321 -2.66024
1.09815 0.164556 -2.11949
0.718032 -0.0382203 2.13649
0.694638 0.199333 2.67214
1.08002 0.179287 2.11636
0.744683 0.757229 -2.45414
0.758274 1.38661 -1.83044
1.12626 0.806611 -1.91903
0.649187 1.09606 2.58097
0.664083 1.74091 2.04611
1.02147 1.0793 2.03063
-1.1302 0.186261 -0.710212
-0.743801 -0.0303693 -0.728617
-1.12183 0.182561 0.704086
-0.751216 -0.0460241 0.708753
-1.17006 0.975323 -0.601677
-0.781952 1.57084 -0.53377
-1.12238 1.06367 0.711822
-0.765398 1.69411 0.749077
0.771308 -0.0759019 -0.728066
1.14903 0.131829 -0.709547
0.770585 -0.0886909 0.709815
1.14429 0.12854 0.705382
0.777076 1.56698 -0.533702
1.17087 0.964941 -0.601538
0.738202 1.68975 0.749167
1.12825 1.05046 0.71209
-1.50319 -0.239684 -2.71956
-1.50658 -0.0873736 -3.22929
-1.13057 -0.268443 -3.26864
-1.49963 -0.212248 -1.46322
-1.50425 -0.0197537 -2.1441
-1.12262 -0.211702 -2.17907
-1.4932 -0.225186 -0.0307109
-1.50521 -0.00733546 -0.733266
-1.11882 -0.223966 -0.75167
-1.4797 -0.234465 1.40273
-1.48774 -0.0210217 0.693468
-1.11713 -0.249607 0.698136
-1.47361 -0.217711 2.66454
-1.45978 -0.0145329 2.10627
-1.11148 -0.239775 2.12672
-1.48195 -0.184246 3.75639
-1.46885 0.0145564 3.20575
-1.11726 -0.210211 3.22306
-1.48543 0.0532679 4.291
-1.12811 -0.170901 4.30304
-1.50765 0.132557 -2.65382
-1.50834 0.433908 -3.10633
-1.13166 0.0900353 -3.19449
-1.50983 0.185159 -1.41414
-1.51272 0.508492 -2.02482
-1.49975 0.196828 -0.00908668
-1.52791 0.593366 -0.661969
-1.46782 0.19891 1.39701
-1.48782 0.631581 0.701888
-1.45501 0.217734 2.64748
-1.42122 0.648493 2.06682
-1.47233 0.252071 3.74035
-1.44685 0.677216 3.16764
-1.10865 0.227044 3.20374
-1.47786 0.713327 4.26343
-1.12522 0.266156 4.2876
-1.51342 0.809843 -2.47733
-1.50919 1.35615 -2.92985
-1.13039 0.758532 -3.01242
-1.5308 0.916699 -1.27265
-1.51633 1.43776 -1.85428
-1.51598 1.02812 0.0490057
-1.53481 1.59002 -0.546467
-1.44123 1.08116 1.37169
-1.50156 1.69962 0.74561
-1.41306 1.10797 2.58698
-1.44214 1.75133 2.05498
-1.45238 1.13847 3.69072
-1.45901 1.78325 3.14123
-1.07913 1.11802 3.13746
-1.48567 1.81518 4.23978
-1.11723 1.15134 4.24287
-1.5121 1.98407 -2.30679
-1.12924 1.92515 -2.83372
-1.52034 2.11108 -1.12809
-1.13333 2.01763 -1.7657
-1.52039 2.26152 0.150137
-1.14671 2.18554 -0.478561
-1.50247 2.36978 1.4289
-1.14457 2.33006 0.782865
-1.48808 2.4266 2.60923
-1.12771 2.40785 2.07072
-1.4923 2.45996 3.69029
-1.12602 2.44323 3.14029
-1.13751 2.4728 4.23389
-0.749998 -0.24046 -2.72814
-0.755645 -0.0910338 -3.23384
-0.0114211 -0.273202 -3.27207
-0.741804 -0.22342 -1.46752
-0.00367878 -0.218537 -2.18408
-0.742745 -0.248387 -0.0228234
0.017326 -0.254754 -0.750606
-0.748907 -0.254917 1.42213
0.0111888 -0.281486 0.705722
-0.755124 -0.232275 2.68524
-0.0152103 -0.254576 2.13969
-0.763418 -0.196866 3.76971
-0.757064 0.00227593 3.22105
-0.0337156 -0.222711 3.23198
-0.767898 0.041987 4.29965
-0.0443251 -0.18368 4.30837
-0.753709 0.414659 -3.10058
-0.013799 0.0841541 -3.19551
-0.761545 0.241128 3.75099
-0.740937 0.667848 3.17356
-0.0405438 0.217528 3.21116
-0.76459 0.704166 4.26704
-0.0497787 0.254967 4.29171
-0.750441 1.32754 -2.91629
-0.00365504 0.741055 -3.00559
-0.743983 1.13089 3.6896
-0.746143 1.77801 3.13651
-0.0365673 1.1113 3.1367
-0.769071 1.80895 4.23698
-0.0518255 1.14232 4.24303
-0.750468 1.95871 -2.29263
0.00870711 1.90881 -2.82692
-0.759693 2.09208 -1.11617
0.00990928 2.00161 -1.75821
-0.770892 2.25407 0.154166
-0.00488049 2.17529 -0.473992
-0.769818 2.36812 1.42469
-0.0272024 2.32462 0.782484
-0.765643 2.42448 2.60177
-0.0411716 2.40262 2.06711
-0.771231 2.45607 3.68389
-0.0476131 2.43656 3.13673
-0.0561768 2.46463 4.23142
0.734898 -0.251278 -2.728
0.730425 -0.0980138 -3.23374
1.10922 -0.283604 -3.26842
0.755452 -0.249871 -1.46717
1.11509 -0.232865 -2.17879
0.771259 -0.287853 -0.0220611
1.15134 -0.275027 -0.750949
0.744886 -0.281144 1.42329
1.14422 -0.300719 0.699422
0.706198 -0.245012 2.68643
1.0924 -0.264862 2.1284
0.685377 -0.209526 3.77063
0.682805 -0.00745891 3.22208
1.06 -0.230365 3.22449
0.673795 0.0292991 4.30043
1.04636 -0.19221 4.30421
0.736255 0.41055 -3.10052
1.10461 0.0800201 -3.19434
0.671222 0.231366 3.75188
0.663826 0.660976 3.1743
1.0417 0.211608 3.2051
0.662986 0.693121 4.2677
1.03373 0.24722 4.2887
0.755493 1.32233 -2.91621
1.12074 0.751797 -3.01232
0.65559 1.12273 3.69012
0.661962 1.76986 3.13691
1.01674 1.10565 3.13821
0.661069 1.79799 4.23747
1.0205 1.13469 4.24371
0.769084 1.95171 -2.29251
1.14422 1.91353 -2.83353
0.764722 2.08482 -1.11604
1.14969 2.0064 -1.76551
0.738809 2.24584 0.154325
1.13717 2.17268 -0.478331
0.701444 2.35912 1.4249
1.09591 2.31562 0.783167
0.676858 2.41471 2.60206
1.05241 2.39275 2.07112
0.667442 2.44512 3.68426
1.0357 2.42696 3.1408
1.02864 2.45485 4.2345
1.48942 -0.265191 -2.71921
1.4834 -0.105571 -3.22902
1.51098 -0.258021 -1.46257
1.4883 -0.0433657 -2.14378
1.5243 -0.287894 -0.0294655
1.52906 -0.0672962 -0.732429
1.49173 -0.284437 1.40453
1.51793 -0.0834879 0.694989
1.44619 -0.250215 2.66646
1.45439 -0.0473546 2.10827
1.42098 -0.213049 3.75806
1.41889 -0.0112978 3.20751
1.40629 0.0257104 4.29248
1.48229 0.116255 -2.6536
1.48909 0.421267 -3.10614
1.50638 0.147359 -1.41364
1.49552 0.496167 -2.02466
1.52269 0.13711 -0.00797472
1.53737 0.553978 -0.661448
1.48058 0.153594 1.39873
1.50796 0.587645 0.702885
1.42708 0.191562 2.64932
1.4215 0.624173 2.06818
1.4042 0.227462 3.74193
1.39462 0.656278 3.16901
1.39124 0.68879 4.26471
1.50232 0.801179 -2.4772
1.50947 1.343 -2.92963
1.52651 0.902786 -1.27246
1.51768 1.4264 -1.85409
[...]
POINT_DATA 29498
VECTORS point_vectors float
-6.04438 -7.51755 9.26435
-0.0335184 0.454714 1.6265
-2.02334 0.856284 3.43082
0.0255863 -0.0353965 0.236928
3.33823 -3.793 6.49044
-0.0157337 0.347823 1.14279
1.99263 0.893214 3.42435
0.00109191 -0.0638824 0.249164
0 0 0
-0.0040438 -0.000140547 0.171408
0 0 0
0 0 0
0.00254997 0.00257193 0.0387885
-0.007205 -0.00559788 0.283108
0 0 0
0 0 0
-0.598297 -0.317675 19.8479
-1.29867 -0.8194 20.5551
-0.381921 -0.441013 21.5341
0.06547 -0.0682031 21.6217
0.486485 0.303038 21.5654
0.703887 0.443077 21.159
0.738324 0.28899 20.6052
-0.79896 -0.253145 19.7336
-1.86564 -0.680714 20.5163
-0.604631 -0.607049 21.631
0.0150246 -0.227991 21.7625
0.749642 0.193438 21.6613
1.05237 0.262391 21.4556
1.05248 0.18577 21.0325
-1.02003 0.13369 19.6356
-2.12501 0.192443 20.5898
-1.29143 -0.261286 21.5995
-0.324197 -0.265462 21.9624
0.671723 -0.408174 21.7453
0.978264 -0.507747 21.5044
0.841055 -0.413565 20.9299
-0.604194 0.467079 20.0526
-0.872251 0.655652 20.544
-0.752966 0.46892 21.26
-0.20813 0.0107985 21.6218
0.123463 -0.227891 21.4216
0.287524 -0.38362 21.1556
0.263131 -0.361326 20.8816
-0.600172 -0.694061 19.3253
-1.9371 -3.36777 20.6093
-0.180781 -0.165412 21.8771
-0.00135872 0.0675171 21.5542
0.149543 0.789783 21.2774
0.309132 1.06133 20.9054
0.488122 1.05747 20.7664
-0.844942 -0.582626 18.8694
0.613469 1.91143 11.4298
1.60963 0.981677 12.8684
-1.32664 0.445934 18.2136
1.34914 -0.0331968 9.71998
1.6799 -0.711867 15.8218
-0.533952 0.918279 19.6819
-0.887131 1.50737 20.3561
-0.929177 1.34369 21.4551
-0.25685 0.203362 21.9741
0.0837093 -0.38222 21.6281
0.203602 -0.522575 21.1984
0.230167 -0.538822 20.8152
0.573917 -0.688311 19.3304
1.82764 -3.25584 20.5586
0.196986 -0.363119 22.0129
-0.0180011 0.066884 21.6844
-0.0936565 0.833166 21.2914
-0.172451 1.10375 20.5239
-0.186603 1.29824 20.0109
0.822194 -0.604365 18.8363
-0.123236 1.82044 9.87678
-1.2985 1.30228 12.2128
1.31662 0.43008 18.2084
-1.0804 -0.126657 7.60745
-1.76079 -0.840833 13.0399
0.541114 0.912392 19.681
0.904755 1.49233 20.3595
0.934543 1.37468 21.4638
0.252572 0.213518 22.0026
-0.0712749 -0.406041 21.6709
-0.186612 -0.525348 21.1739
-0.210941 -0.496841 20.7373
0.588358 -0.322846 19.8337
1.27283 -0.833241 20.5302
0.431095 -0.421916 21.5052
-0.0629808 -0.0601477 21.6162
-0.49438 0.308057 21.5725
-0.730702 0.434453 21.1498
-0.726609 0.412145 20.6867
0.804517 -0.261189 19.7105
1.92728 -0.74031 20.4736
0.64476 -0.569556 21.6137
0.00169241 -0.210647 21.719
-0.765599 0.215589 21.6913
-1.13397 0.278897 21.4252
-1.07099 0.326954 21.1552
1.02757 0.126631 19.6154
2.18692 0.217591 20.5643
1.28531 -0.262594 21.6158
0.30431 -0.261265 21.9434
-0.704416 -0.419382 21.7428
-1.12519 -0.5478 21.4284
-1.05624 -0.414112 20.6372
0.608935 0.457019 20.0479
0.883731 0.65246 20.5413
0.775401 0.480763 21.2731
0.224597 0.0126728 21.6571
-0.136938 -0.263346 21.459
-0.294245 -0.424647 21.0904
-0.238831 -0.401694 21.0186
-0.804042 -0.180047 1.64259
-0.000275309 -1.60499 2.42672
0.0452661 -0.0262471 2.13113
-0.00964757 0.0194928 0.017378
0.000184546 0.0169059 0.114013
-0.0326997 0.0439045 0.870088
2.70961e-05 0.0584245 0.174353
-0.38691 -0.333333 1.0442
0.00493633 0.0149602 -0.075371
0.0068695 0.00766525 0.0301036
3.30045 -0.441217 5.07123
0.00847004 0.00391647 0.297088
0.0195445 0.0127292 -0.00911211
0.0353442 0.0248287 0.417225
0.390616 -0.337212 1.05619
-0.00491447 0.00543589 0.0220151
-0.000593952 0.000772501 0.051723
-0.000447452 -0.00143518 0.0646325
-0.000176308 6.20322e-05 0.00331316
0 0 0
0.000922971 0.000407705 0.0137663
0 0 0
1.88421e-06 0.0837737 0.186647
4.05267e-06 -0.000396533 0.00495743
0.0049085 0.0044921 0.211838
0 0 0
-0.000508555 0.0114583 0.0604936
0 0 0
-0.0017608 -0.00351164 0.0601266
-5.32464e-05 0.00190847 0.0140174
3.76591e-05 0.000617624 0.00459835
8.1521e-08 -3.86484e-07 -2.03373e-05
-4.88715e-07 -1.24977e-07 -5.00045e-05
0 0 0
-0.0499387 0.0251235 0.10944
0.000302635 0.172639 -0.0335032
-6.39783e-05 0.00290627 0.0194136
1.02221e-05 0.0051823 0.0435231
2.7207e-05 5.43325e-05 3.76649e-05
0 0 0
0.00119011 0.0131447 0.113464
1.37407e-18 -9.89203e-18 -9.44661e-17
-3.59652 -1.763 20.4874
-3.51833 -5.51388 20.6054
-2.33348 -1.80826 17.6091
1.00323 0.925588 19.0832
0.00685823 1.10516 16.3483
0.0877542 1.11556 7.93385
-4.13111 0.777871 20.6061
-3.91854 2.04866 16.631
-2.13465 2.6609 20.1568
1.25048 -0.0121828 17.4433
0.72369 0.431044 4.93707
0.309869 -0.80364 21.3754
3.34992 -5.43201 20.4472
2.3022 -1.8486 17.5595
3.68639 -1.89023 20.2804
0.176378 1.1596 15.6022
0.237732 1.14866 6.65073
-1.04847 1.03636 18.4736
3.89183 1.9601 16.6379
2.14371 2.63927 20.1546
4.18084 0.863479 20.537
-0.476579 0.366321 3.91427
-0.292722 -0.83306 21.2821
-1.26045 -0.070183 17.5907
-0.128621 -0.919906 20.7217
0.351744 0.392003 15.7699
0.0768598 -0.000255931 19.2074
0.104501 0.158222 16.3783
-2.11696 -0.836452 21.7509
-3.00166 2.18296 21.6971
-0.29525 -0.321492 20.2598
-0.527231 0.166494 22.5361
-0.110334 -0.0297374 18.315
0.268553 -0.905289 21.5807
-0.0790277 0.17268 17.5052
-0.103091 -0.116088 20.1814
3.02715 2.20724 21.7012
2.05747 -0.849714 21.7445
0.536205 0.170877 22.6001
0.280538 -0.351068 20.363
-1.00317 -0.569184 20.02
-0.712464 -0.293883 19.8052
-0.634024 -0.479151 19.5993
-0.866626 -0.69839 21.3141
-1.56107 -0.788491 20.5554
-1.77965 -1.66157 20.5584
-0.0893815 -0.222245 21.5849
-0.506936 -0.544448 21.5779
-0.157811 -0.454864 21.7329
0.257414 0.125931 21.6614
0.0334779 -0.158533 21.671
0.0957636 -0.0127379 21.6828
0.616842 0.389876 21.4416
0.601788 0.278813 21.6072
0.465058 0.587417 21.6232
0.738693 0.342423 21.1899
0.90091 0.357505 21.29
0.720415 0.781919 21.0743
0.902437 0.261375 20.8638
0.754729 0.80954 21.2646
-1.39524 -0.470359 19.8593
-0.92826 -0.0876485 19.6324
-0.913898 -0.450031 19.3476
-1.27623 -0.730531 21.4495
-2.1648 -0.291699 20.5835
-0.240532 -0.42916 21.6607
-0.989625 -0.550401 21.6282
0.343516 -0.00957172 21.8109
-0.140069 -0.310818 21.9211
0.916772 0.269722 21.4541
0.84759 -0.120557 21.6185
1.16874 0.23281 21.3064
1.17108 -0.115381 21.2191
1.3142 0.908548 19.4011
1.15164 -0.226436 20.9436
1.30378 0.734048 19.7983
-1.7283 0.231831 19.856
-0.856788 0.440379 19.8011
-1.23802 0.241548 19.0957
-1.73887 -0.0891607 21.2949
-1.45908 0.684115 20.4974
-0.827464 -0.316237 21.8442
-1.22177 0.30897 21.435
0.203767 -0.288444 21.9388
-0.359902 -0.0456064 21.8489
0.869223 -0.442835 21.5669
0.301455 -0.37878 21.6097
1.02598 -0.460014 21.3991
0.54069 -0.491872 21.2556
1.3586 -0.55084 19.4561
0.553925 -0.516538 20.9204
1.55441 -0.406655 19.7738
-0.768641 0.606072 20.259
-0.6267 0.675885 19.897
-0.879244 0.603518 20.966
-0.968143 1.03191 20.485
-0.498891 0.238796 21.5397
-0.92165 0.848704 21.3792
0.00104036 -0.136028 21.5652
-0.264691 0.110716 21.7999
0.218269 -0.31146 21.3727
0.148473 -0.308686 21.4981
0.273171 -0.302387 21.0335
0.244642 -0.504279 21.2668
0.322215 -0.574946 20.9444
-1.2342 -1.68032 19.143
-0.732116 -0.648194 19.0754
-0.00995697 -0.887425 19.0219
-0.707311 -1.21043 22.471
-0.0150355 -5.02599 21.1387
-0.0491129 0.016262 21.5975
-0.0509021 -0.439484 22.006
0.0434037 0.332743 21.5427
0.00728749 -0.101285 20.6786
0.21947 0.943703 20.9799
0.0390064 0.384897 19.6911
0.780823 1.3328 20.0881
0.415322 1.57021 16.7257
0.086715 0.698117 18.9242
0.928237 1.05926 16.9374
0.0453285 1.29087 14.7092
-1.20883 -0.195205 18.3865
-0.0151643 -0.887082 18.2469
1.06575 1.48369 11.7072
1.05521 1.13185 5.41172
-0.24389 -0.579648 -2.17919
2.15618 0.476555 11.8228
0.182569 0.711978 6.44434
-0.947133 1.0686 19.0209
-0.00136173 0.768808 17.0378
1.70127 -0.801486 12.7801
0.465844 -1.04885 21.3946
0.0629472 -0.921934 1.85354
0.538203 -0.913008 19.9668
0.0339784 -2.28205 3.65179
-0.737825 1.30467 19.9411
0.00957208 1.16409 19.5161
-0.995883 1.54161 20.8493
0.0184134 2.00425 20.1921
-0.604013 0.781742 21.9183
-0.00808837 2.14947 21.5182
-0.0343925 -0.17964 21.8348
-0.00806481 0.340925 22.1356
0.162918 -0.488566 21.4528
0.013802 -0.426365 21.6113
0.125855 -0.664079 20.8731
0.022004 -0.593477 21.3616
-0.00850872 -0.726853 20.9096
1.19729 -1.65698 19.1629
0.710467 -0.664974 19.052
0.621051 -0.486272 19.6021
0.660888 -1.30686 22.2281
1.71174 -1.66753 20.5015
0.0437696 -0.0918548 21.7764
0.252313 -0.51839 21.6908
-0.0493146 0.370326 21.629
-0.0914897 -0.0377397 21.7049
-0.128784 1.00961 20.6295
-0.478308 0.630538 21.6275
-0.587253 1.37848 19.4303
-0.111082 1.50363 15.7581
-0.657885 0.863031 21.1648
-0.63121 1.33162 16.2584
-0.66022 0.846071 21.2493
1.17668 -0.201931 18.3676
0.913549 -0.471407 19.3328
-0.885408 1.6154 11.0826
-0.72473 1.01318 3.74193
-1.27953 1.17643 18.0044
-2.35218 0.583177 9.14078
-1.34777 0.79939 18.2389
0.950561 1.0607 19.0168
1.2317 0.232297 19.0871
-1.649 -0.809197 10.1727
-0.448846 -1.13904 21.1049
-1.5083 -0.611235 18.6362
-0.501889 -0.994702 20.035
-1.57756 -0.562858 19.5343
0.754669 1.29357 19.9394
0.636463 0.672299 19.8938
1.0058 1.54558 20.85
0.98181 1.02603 20.4857
0.600632 0.827796 21.9475
0.940695 0.8683 21.3881
0.0393758 -0.18744 21.8525
0.270815 0.12003 21.8333
-0.149398 -0.506271 21.4687
-0.14138 -0.333784 21.5042
-0.103057 -0.662689 20.9229
-0.235121 -0.546969 21.2649
-0.271555 -0.565752 20.9383
0.975411 -0.577804 20.0045
0.708906 -0.299156 19.7805
0.885186 -0.693754 21.2674
1.5649 -0.824844 20.524
0.146725 -0.223082 21.5736
0.540057 -0.5143 21.5489
-0.253359 0.119876 21.6637
-0.0364483 -0.138124 21.6358
-0.615308 0.39151 21.4593
-0.613854 0.299559 21.616
-0.74026 0.401814 21.1728
-0.935122 0.383263 21.3126
-0.906014 0.381927 20.9561
1.38591 -0.482467 19.8303
0.936111 -0.10585 19.6131
1.30812 -0.742287 21.4475
2.2657 -0.302886 20.546
0.265858 -0.393106 21.6511
0.974137 -0.519297 21.6339
-0.324672 5.39895e-06 21.8398
0.135766 -0.278819 21.9008
-0.986499 0.312679 21.4349
-0.882384 -0.113017 21.6424
-1.33706 0.273092 20.8609
-1.30197 -0.140673 21.3905
-1.37513 -0.20959 20.6543
1.76767 0.232438 19.8147
0.857724 0.437476 19.7864
1.76521 -0.0740543 21.3113
1.47363 0.684014 20.5085
0.804569 -0.310747 21.8547
1.23796 0.310721 21.4495
-0.216222 -0.280588 21.9724
0.359137 -0.0530229 21.8719
-0.924118 -0.48423 21.5506
-0.32245 -0.413007 21.6277
-1.14136 -0.524981 21.2277
-0.546405 -0.56021 21.2235
-0.49843 -0.534003 21.1161
0.772078 0.601924 20.2581
0.89088 0.607999 20.9638
0.520844 0.263493 21.5578
0.000823206 -0.142211 21.5971
-0.224938 -0.330212 21.3596
-0.231588 -0.348038 21.1622
-1.19343 -0.558978 19.9629
-1.73734 -1.89205 18.5178
-1.22056 -1.00025 19.658
-2.00302 -0.948481 19.1397
-0.802952 -0.475307 19.4526
-2.55561 -1.87118 20.531
-1.08075 -0.724073 21.3781
-0.127892 -0.632557 18.7068
-0.849112 -1.06522 21.7448
-1.37697 -1.43178 22.2345
-0.0729738 -0.661017 21.8122
-0.160936 -0.34514 21.6006
0.237393 0.236663 15.9778
0.0459775 -0.191955 21.6489
0.0864629 -0.486218 19.9041
0.170724 -0.087923 21.3296
0.283972 0.0594553 21.7198
-0.0460481 0.414056 16.4322
0.239528 0.251417 21.7673
0.411131 0.497446 19.3675
0.732577 0.759884 21.0532
0.753122 0.358697 21.4263
0.145224 1.28675 16.7128
0.616946 0.706453 21.4247
1.17875 0.916971 19.3869
1.10718 0.877459 21.0431
0.972404 0.304068 21.0425
0.530366 1.50534 17.3282
0.850269 0.912606 21.0061
1.59479 0.854418 19.5005
0.958938 0.879062 21.4568
-1.66601 -0.16687 19.7908
-3.61479 -0.351487 16.3631
-2.71799 0.667909 18.9803
-1.1702 -0.125875 19.1098
-4.42547 -0.618051 20.5582
-1.6176 -0.4794 21.4289
-2.74743 -0.269837 21.7674
-0.979692 -1.17481 20.8354
-0.535432 -0.472059 21.7933
-1.23172 -0.801187 21.2302
0.0173832 0.0509357 17.9818
0.317064 -0.186548 21.8717
0.569019 0.110837 19.032
1.19051 0.697178 14.9511
1.06516 -0.121576 21.4355
-0.139894 1.26278 1.95757
1.22403 -0.272436 18.8978
1.68555 0.315665 17.7924
1.28822 -0.168582 21.5449
1.88995 0.749188 8.48501
1.54852 -0.579211 19.9398
1.81225 0.227567 19.1593
-1.23432 0.631471 20.0403
-1.6803 2.11715 19.1722
-0.834245 0.909813 20.1171
-0.962568 0.678342 19.4738
-1.95459 1.39668 20.3749
-1.42411 0.520854 21.0281
-2.42085 2.20031 20.6568
-1.02392 0.999156 20.9437
-1.93774 0.787692 21.6165
-0.837691 0.124943 21.7584
-1.87323 1.12903 22.7594
-0.612538 0.487675 21.7312
-0.475324 0.0342358 22.162
0.0467334 -0.222786 21.7921
0.138172 -0.484668 21.7986
-0.00717691 -0.17302 21.7108
0.32944 -0.564436 21.752
0.436537 -0.438717 21.4525
0.396435 -0.922898 21.3341
0.203694 -0.393183 21.3227
0.626125 -0.771382 21.1138
0.641792 -0.447032 21.04
0.576799 -1.12493 19.7794
0.192907 -0.446906 21.0937
0.441673 -0.583822 21.1437
1.68852 -1.89499 18.5263
-0.013407 -2.63893 18.5266
-0.0403129 -3.12117 15.6192
-0.0105294 -0.949787 18.56
-0.0368285 -8.37584 22.4506
0.15188 -0.863514 19.9701
-0.0277438 -1.54176 22.7975
-0.112123 0.0332409 11.5599
-0.0908818 0.0943731 17.3547
-0.0282384 -0.200209 21.1636
0.0870321 -0.00243031 11.8011
0.0612514 0.469263 16.2642
0.0365846 0.0996968 20.2014
0.104291 0.307524 10.4375
0.0857554 1.29314 15.5761
0.05648 0.428224 18.945
0.0434807 -0.713066 -1.69233
0.062681 0.518923 9.16727
-0.263655 1.64301 16.6487
0.0600267 0.786934 18.0396
-0.119448 -0.882151 -0.260936
0.237476 1.33775 10.1058
3.60156 -0.424917 16.3121
0.0135649 5.02649 12.6904
-0.00435587 -0.273342 17.4178
0.26132 1.28001 0.995942
0.06628 0.512057 0.737641
0.00876647 -2.03083 -3.20461
-1.84 0.833924 6.47639
0.198501 -1.25982 2.21423
0.0375172 -1.81656 -0.362089
1.69441 2.09999 19.1645
0.0140518 1.71164 19.764
0.00592699 1.56041 18.4735
0.0157553 3.88189 19.7863
2.42948 2.19763 20.6581
0.00216991 2.1979 20.6809
-0.0140827 5.10613 21.3947
1.92042 1.17941 22.7838
-0.0181394 1.25601 22.1489
-0.0123309 0.510579 22.5392
-0.163829 -0.528564 21.5169
0.000146243 -0.177517 21.916
0.0186596 -0.709704 19.3096
-0.359776 -0.966521 21.2136
0.0257511 -0.597897 21.634
0.0371118 -1.20135 19.8389
-0.548528 -1.19348 19.7156
0.0173743 -0.725494 20.8571
0.0890696 -1.33878 19.0817
1.19193 -0.569137 19.9278
1.18494 -1.00765 19.6638
1.97272 -0.997235 19.0763
0.799356 -0.492797 19.4388
2.51782 -1.94936 20.4198
1.09975 -0.734958 21.3478
0.865356 -1.13176 21.6838
1.51385 -1.53285 22.2291
0.227164 -0.659298 21.8015
0.19954 -0.324349 21.5951
0.0235757 -0.233986 21.6758
-0.025079 -0.48913 20.6672
-0.132877 -0.102019 21.4896
-0.273294 0.0632306 21.7358
-0.246994 0.255165 21.7836
-0.363181 0.46504 19.2145
-0.718869 0.866336 20.6892
-0.787077 0.391233 21.4745
-0.604588 0.777459 21.463
-1.192 1.11431 18.2153
-1.16521 1.15821 20.6987
-1.02962 0.359768 20.9888
-0.861492 0.982327 20.9336
-1.56951 1.09379 19.2114
-0.934134 1.06744 21.119
1.68708 -0.193061 19.7736
2.70805 0.648845 18.9461
1.16529 -0.136919 19.0965
4.67994 -0.615034 20.3588
1.66214 -0.455691 21.4545
2.72922 -0.238387 21.7994
0.939943 -1.0576 21.0233
0.508934 -0.436168 21.7923
1.16835 -0.791929 21.1504
-0.00140201 0.0235885 18.3005
-0.326121 -0.158016 21.9252
-0.567534 0.095408 19.0435
-1.22519 0.607889 14.7824
-1.15077 -0.117118 21.4908
-1.30283 -0.269714 18.2681
-1.89308 0.409213 16.1389
-1.48724 -0.240702 21.2531
-1.66888 -0.659457 19.1223
-1.91566 0.297909 17.6718
1.24157 0.621593 20.045
0.84517 0.903965 20.1148
0.963153 0.671645 19.4685
1.96138 1.39458 20.3724
1.44277 0.519332 21.0338
1.03425 1.00259 20.9429
1.97071 0.792559 21.6328
0.84581 0.12765 21.7774
0.625954 0.512371 21.7541
0.481345 0.0257764 22.1987
-0.0635121 -0.232633 21.8284
0.0174208 -0.172403 21.7175
-0.346521 -0.617222 21.7781
-0.466712 -0.495253 21.4754
-0.208127 -0.444369 21.343
-0.607213 -0.858525 21.269
-0.688467 -0.492671 20.8988
-0.179399 -0.489127 21.1196
-0.482058 -0.709357 20.8253
-1.58888 -1.03319 19.4084
-1.00979 -1.24412 21.959
0.144054 -0.345675 21.4961
0.357834 0.314227 21.2999
0.881462 0.842786 20.8938
1.19098 1.02272 20.86
-2.6947 -0.234539 18.806
-2.2121 -1.17509 22.2414
-0.35543 -0.667569 19.0723
0.444782 0.48701 16.772
1.3428 0.490048 16.5091
1.91225 0.172635 17.7269
-1.55881 1.19348 19.6865
-2.01817 1.04947 20.9903
-1.27465 0.399713 22.1154
0.0737479 -0.309268 21.9916
0.463751 -0.671982 21.5428
0.723077 -0.757935 21.2345
-0.0179212 -3.06313 17.3031
-0.0367107 -0.523155 14.1182
-0.0294824 -0.0121519 11.3967
0.116819 0.0972707 11.3712
0.131972 0.0555461 9.45041
0.0462952 0.858042 8.80384
-0.0255784 -0.603017 12.101
-0.142479 -0.276218 -1.45159
0.222712 -2.63699 -2.16334
0.0130008 3.27883 18.5779
0.00323128 3.97812 19.7984
-0.0244152 2.68461 22.9965
0.00153894 -0.43113 21.3154
0.0228752 -0.880069 19.687
0.0456502 -1.43493 18.9441
1.57769 -1.07846 19.3863
1.0943 -1.33732 21.9262
-0.0296899 -0.353343 21.606
-0.352289 0.29871 21.3256
-0.868845 1.00316 20.5575
-1.15317 1.31748 20.8472
2.68534 -0.259168 18.7647
2.29401 -1.0438 22.3663
0.353013 -0.655919 19.551
-0.461923 0.440546 17.038
-1.35551 0.475111 15.1063
-2.02176 0.30321 16.0398
1.5612 1.1878 19.676
2.0286 1.05015 20.9991
1.30478 0.39571 22.1489
-0.0765737 -0.334127 22.0372
-0.476499 -0.733785 21.5541
-0.660505 -0.862934 21.5261
-1.16781 -0.336755 2.00755
-0.0624521 -0.822726 1.02876
0.204892 -0.356431 3.11662
-0.0212827 -0.0174147 -0.0113591
-0.0168763 0.0194579 0.0462494
-0.107433 0.141674 1.43494
-0.514984 0.00869553 0.760549
-0.00740438 0.135901 0.306781
-0.0597125 0.00408503 0.208428
-0.0232764 0.0156789 -0.0152011
0.0167062 0.00988539 -0.0395083
0 0 0
0.0593966 -0.912295 1.09356
1.63963 -0.436167 2.29009
-0.0876334 -0.231338 1.07193
0 0 0
0 0 0
0.0847021 0.0819183 0.697014
0.00675302 0.132961 0.301156
0.515055 0.0145734 0.760304
0.0596885 0.00499678 0.210814
-0.00797333 0.00867586 -0.0378645
0.0233198 0.0114349 -0.014738
0 0 0
0.0918225 -0.0487439 1.36892
-0.00023336 0.000190627 0.0133521
-2.1265e-19 5.89872e-20 -9.03052e-18
0 0 0
-0.0698174 0.0271351 0.931026
-0.00438665 0.00172209 0.0813809
0 0 0
0 0 0
-0.127896 -0.0770715 0.321332
-0.00104061 0.00165604 0.0680965
1.66656e-17 3.58468e-17 2.38881e-16
-0.103336 0.101809 0.27288
0 0 0
0.00436717 0.0175878 0.0606631
0 0 0
0.0571231 -0.00843196 0.313811
-0.00744643 -0.00719187 0.302458
0 0 0
0.0012777 0.00215504 0.144544
-0.00272823 -0.000876127 0.115068
0.0117853 0.00223543 0.261087
0 0 0
0.0071274 0.00591327 0.273593
0 0 0
0.131406 -0.0795549 0.330688
0.103633 0.102203 0.274121
0.00128447 0.00146594 0.0811151
0 0 0
0 0 0
-0.0561868 -0.00857382 0.313481
-0.011307 0.0452032 0.162452
0 0 0
-0.0327498 -0.00810859 0.14352
-0.74889 0.122005 0.293354
0 0 0
0.0117942 -1.20208 0.457999
0 0 0
0 0 0
0.00362423 0.00424698 0.0239961
-0.130479 0.346672 -0.172265
0.000263132 0.00042868 0.0277973
0 0 0
0 0 0
0 0 0
0.0125293 1.27441 0.524666
-7.34108e-05 0.0113073 0.0579614
-0.000151318 -0.000330422 0.00218936
-0.00391612 0.000753977 0.00632602
0.00590924 0.100656 -0.00262713
0.000108048 0.00214133 -0.00471753
0.00263196 0.00997468 0.0523031
-6.10546e-05 -0.000370229 0.00101396
0.575661 0.015477 0.239045
-7.922e-17 1.82725e-17 -3.49001e-16
0 0 0
0 0 0
0.131403 0.255315 -0.165078
-0.00356248 0.00368937 0.0239882
0 0 0
0 0 0
0.00406162 0.00079552 0.00663086
0.000130324 -0.000297427 0.00191886
0.000101572 -0.00036711 0.000998517
-0.0039223 0.0146744 0.0837063
0 0 0
0 0 0
-1.38819e-05 -6.4e-05 0.00123657
-8.32525e-05 0.00115749 0.0132103
1.82793e-06 -3.82298e-07 -4.18996e-05
4.27085e-07 -3.66002e-07 -6.77407e-05
6.74399e-06 0.00466435 0.0263216
0 0 0
-1.4749e-06 -1.27357e-07 -7.17079e-05
0 0 0
8.57172e-06 0.00210923 0.0127573
-0.0349437 0.079333 0.657015
-9.6111e-06 0.0087606 0.0182492
7.66079e-06 0.0209412 0.0929635
1.03612e-05 0.000229304 0.0180501
4.49381e-05 -0.00238238 0.0148149
0 0 0
0 0 0
0 0 0
0.00216659 0.013353 0.199123
-0.000321112 0.0104735 0.0624561
-0.000667599 0.00337674 0.0323431
0.0353209 0.0793967 0.657711
-0.000123852 0.00367427 0.023019
-0.0521644 -0.0348183 0.274593
-0.0917287 -0.0398918 0.41048
0 0 0
0 0 0
0 0 0
0.000359991 0.00949578 0.0537168
0 0 0
0.0122738 0.0480641 0.17478
-4.07527e-18 -7.15925e-18 -5.37836e-17
0.00120889 0.0147147 0.0571753
0.00528908 0.0116058 0.0750628
0.0259345 0.0144124 0.165165
0 0 0
0 0 0
0 0 0
0 0 0
-2.97287e-18 -3.20513e-19 -3.83277e-17
0 0 0
0 0 0
0 0 0
0 0 0
0 0 0
0 0 0
0 0 0
-0.168302 -0.211937 0.100986
0.432111 -0.990844 0.320015
-0.603552 0.98666 0.686226
0.713702 1.115 0.786349
0 0 0
0 0 0
-0.000100174 0.00381781 -0.000281932