# vtk DataFile Version 2.0
tri_press
ASCII
DATASET UNSTRUCTURED_GRID
POINTS 3682 float
-0.743533 0.175 -2.125
-0.745 0.185 2.13092
-0.745 0.775 -1.90272
-0.645 1.08383 2.025
0.712787 0.175 -2.125
0.715 0.185 2.13262
0.745 0.775 -1.90272
0.645 1.08383 2.025
-0.748442 0.173914 -0.70636
-0.756103 0.170074 0.71228
-0.796247 0.962523 -0.59348
-0.75667 1.05922 0.71576
0.768805 0.123053 -0.705793
0.772462 0.123467 0.713414
0.796254 0.962531 -0.59348
0.756683 1.05924 0.71576
-1.50559 -0.268152 -3.26515
-1.5008 -0.211217 -2.17398
-1.49847 -0.213279 -0.752467
-1.48793 -0.237092 0.691045
-1.47147 -0.231837 2.11441
-1.47576 -0.203584 3.21466
-1.48815 -0.164909 4.29813
-1.50758 0.0934047 -3.19343
-1.50771 0.171709 -2.11421
-1.51195 0.198608 -0.714065
-1.48755 0.195048 0.695891
-1.44808 0.202772 2.09814
-1.46195 0.232697 3.19683
-1.48272 0.271444 4.28387
-1.50911 0.774411 -3.01923
-1.51774 0.845275 -1.93543
-1.54387 0.988123 -0.609873
-1.48809 1.06811 0.707884
-1.39436 1.09421 2.0355
-1.43175 1.12174 3.13845
-1.473 1.15521 4.24299
-1.50927 1.93789 -2.84047
-1.51493 2.03025 -1.77312
-1.52576 2.19191 -0.483062
-1.51502 2.33113 0.783336
-1.48991 2.40844 2.07446
-1.48626 2.44476 3.14401
-1.49834 2.47515 4.23657
-0.755546 -0.268733 -3.27213
-0.744449 -0.212188 -2.18416
-0.73916 -0.234652 -0.750873
-0.74633 -0.262123 0.705227
-0.751484 -0.247712 2.13903
-0.758764 -0.216838 3.23146
-0.768072 -0.176893 4.30796
-0.755744 0.0866658 -3.19554
-0.755364 0.22139 3.21065
-0.767725 0.260867 4.29133
-0.751675 0.742653 -3.00561
-0.726509 1.11431 3.13646
-0.761456 1.14746 4.24274
-0.749207 1.91242 -2.82698
-0.751729 2.005 -1.75827
-0.767658 2.17916 -0.474061
-0.774126 2.32899 0.782393
-0.765509 2.40725 2.06698
-0.765776 2.4417 3.13657
-0.776687 2.47044 4.23122
0.732704 -0.27767 -3.272
0.737092 -0.224886 -2.184
0.773812 -0.274857 -0.750339
0.768707 -0.300848 0.706217
0.721064 -0.261441 2.14036
0.691333 -0.228584 3.2325
0.679422 -0.190468 4.30877
0.728145 0.0816423 -3.19547
0.674277 0.213666 3.21166
0.668168 0.249066 4.29209
0.744365 0.739458 -3.00556
0.653375 1.10829 3.13694
0.657805 1.13718 4.24331
0.766622 1.9052 -2.82686
0.771547 1.99822 -1.75816
0.757897 2.17143 -0.473923
0.719721 2.32026 0.782574
0.683166 2.39799 2.06723
0.67055 2.43142 3.13689
0.664333 2.45881 4.23162
1.48574 -0.289539 -3.26484
1.4931 -0.240844 -2.17358
1.52887 -0.275198 -0.751559
1.51973 -0.30059 0.692628
1.46373 -0.268284 2.11644
1.42866 -0.232145 3.21647
1.41329 -0.193952 4.29964
1.48107 0.0783978 -3.19321
1.48351 0.154112 -2.11399
1.52925 0.140605 -0.7133
1.51612 0.133614 0.69735
1.44505 0.173575 2.1001
1.40912 0.20955 3.19854
1.39929 0.245373 4.28531
1.49711 0.764136 -3.01907
1.50752 0.838222 -1.93533
1.54549 0.967351 -0.609596
1.49981 1.04168 0.708421
1.39795 1.07477 2.03625
1.38011 1.10301 3.13948
1.3832 1.13221 4.24411
1.52183 1.92186 -2.84019
1.52783 2.01458 -1.77286
1.51644 2.17393 -0.482738
1.47209 2.31099 0.78376
1.42166 2.38752 2.07501
1.40084 2.4225 3.1447
1.39295 2.45089 4.23738
-0.79922 0.475 -2.06881
-0.015373 0.116947 -2.18305
-0.800976 0.119468 -1.41568
-0.724395 0.634415 2.10736
-0.015 0.184425 2.13234
-0.78341 0.144679 1.4216
0 0.862244 -1.98996
-0.808547 0.906685 -1.2481
0 1.12197 2.06314
-0.73305 1.10374 1.37038
0.772695 0.475 -2.05766
0.772509 0.117313 -1.4154
0.716625 0.634415 2.11544
0.7584 0.139564 1.42302
0.80855 0.906688 -1.2481
0.733067 1.10376 1.37038
-0.75079 0.173476 0.00295997
-0.879967 0.568218 -0.64992
0.0101816 0.140694 -0.706077
-0.883135 0.614649 0.71402
0.00817959 0.142522 0.712847
-0.779351 1.01377 0.0611401
3.89068e-06 1.31209 -0.59348
6.36417e-06 1.48388 0.71576
0.770724 0.123169 0.00381005
0.876454 0.542792 -0.649637
0.885575 0.591351 0.714587
0.779362 1.01378 0.0611401
-0.877907 0.521609 -1.33189
0.87575 0.508896 -1.33175
-0.00259569 0.115594 -1.41554
1.94534e-06 0.999954 -1.2481
-0.00768651 0.475 -2.30478
-0.8816 0.591434 0.03205
0.886714 0.567072 0.0324751
0.00918062 0.141608 0.00338501
5.12743e-06 1.48671 0.0611401
-0.882057 0.624532 1.39599
0.879549 0.612883 1.3967
-0.00341021 0.140991 1.42231
3.18209e-06 1.34327 1.37038
-0.00750001 0.634415 2.30027
-0.777524 0.325 -2.10305
-0.379453 0.123903 -2.1761
-0.795299 0.12419 -1.77034
-0.73368 0.409708 2.11812
-0.38 0.190755 2.12559
-0.779041 0.150003 1.77626
-0.760164 0.625 -1.97382
-0.3725 0.846751 -1.97447
-0.800797 0.864866 -1.57541
-0.667545 0.859122 2.04903
-0.3225 1.11478 2.05595
-0.687171 1.09193 1.69769
0.348707 0.123921 -2.17608
0.750243 0.325 -2.09883
0.771631 0.117173 -1.7702
0.35 0.198848 2.11835
0.712911 0.409708 2.12113
0.750518 0.148464 1.77782
0.3725 0.846763 -1.97448
0.75711 0.625 -1.97845
0.800798 0.864867 -1.57541
0.3225 1.11478 2.05595
0.662441 0.859122 2.05185
0.687237 1.092 1.69769
-0.799582 0.121818 -1.06102
-0.749083 0.174228 -0.3517
-0.85553 0.350403 -0.67814
-0.369903 0.155759 -0.706218
-0.786986 0.140147 1.06694
-0.751368 0.173854 0.35762
-0.864032 0.370155 0.71315
-0.370096 0.16403 0.712563
-0.805563 0.93777 -0.92079
-0.86962 0.781127 -0.6217
-0.786458 0.986804 -0.26617
-0.467246 1.27556 -0.59348
-0.745243 1.08187 1.04307
-0.876242 0.865106 0.71489
-0.771589 1.04007 0.38845
-0.477463 1.46981 0.71576
0.773363 0.117477 -1.0606
0.388612 0.133636 -0.705935
0.769788 0.123088 -0.350992
0.859872 0.314301 -0.677715
0.76507 0.131877 1.06822
0.381007 0.151622 0.71313
0.771621 0.123291 0.358612
0.853145 0.345346 0.714
0.805564 0.937772 -0.92079
0.467253 1.27556 -0.59348
0.87084 0.769904 -0.621558
0.786459 0.986805 -0.26617
0.745272 1.08189 1.04307
0.477467 1.4698 0.71576
0.877376 0.853418 0.715174
0.771021 1.0395 0.38845
-0.866345 0.498305 -1.70035
-0.403453 0.475 -2.26952
-0.00898435 0.114218 -1.7993
-0.0115298 0.295973 -2.28868
-0.873107 0.320539 -1.37379
-0.401786 0.122314 -1.41561
-0.852599 0.629473 1.75167
-0.365948 0.634415 2.26606
-0.00920511 0.14233 1.77733
-0.01125 0.40942 2.27703
-0.859202 0.384606 1.4088
-0.39341 0.171914 1.42195
9.7267e-07 0.947533 -1.61903
-0.00384326 0.668622 -2.2754
-0.875942 0.714147 -1.29
-0.404272 0.986499 -1.2481
1.59104e-06 1.19333 1.71676
-0.00375 0.878192 2.18883
-0.876166 0.864137 1.38319
-0.366523 1.32487 1.37038
0.86607 0.491948 -1.6947
0.382504 0.475 -2.26814
0.870552 0.313105 -1.37357
0.384957 0.122211 -1.41547
0.851637 0.623649 1.75607
0.354563 0.634415 2.2685
0.863989 0.376224 1.40986
0.377495 0.173135 1.42266
0.876011 0.707792 -1.28992
0.404276 0.986497 -1.2481
0.877022 0.858321 1.38354
0.366535 1.32486 1.37038
-0.859873 0.360616 0.017505
-0.369702 0.159748 0.00317249
-0.877175 0.544914 -0.990905
-0.879568 0.579826 -0.308935
0.00379298 0.116927 -1.06081
0.00968113 0.141151 -0.351346
-0.88346 0.603041 0.373035
-0.884111 0.61959 1.05501
0.0086801 0.142065 0.358116
0.00238469 0.13593 1.06758
-0.877076 0.8259 0.046595
-0.499713 1.47032 0.0611401
2.91801e-06 1.15066 -0.92079
4.50905e-06 1.43327 -0.26617
5.7458e-06 1.49747 0.38845
4.77313e-06 1.43703 1.04307
0.848788 0.335086 0.0181426
0.384976 0.142341 0.00359753
0.877403 0.525844 -0.990693
0.883785 0.554932 -0.308581
0.88824 0.579212 0.373531
0.884701 0.602117 1.05564
0.877511 0.81266 0.0468076
0.499733 1.47034 0.0611401
-0.862791 0.322769 -1.73535
-0.877251 0.345802 -1.02596
-0.868279 0.739759 -0.955848
-0.87161 0.669573 -1.63788
0.864761 0.319052 -1.73245
0.873329 0.666396 -1.63506
0.869035 0.730227 -0.955741
0.876431 0.323014 -1.02564
-0.390619 0.117773 -1.78482
0.366832 0.117673 -1.78475
0.387225 0.126551 -1.0607
-0.385458 0.126264 -1.06091
-0.388386 0.940819 -1.59722
-0.401197 1.11704 -0.92079
0.401202 1.11704 -0.92079
0.388388 0.9408 -1.59722
-0.391453 0.310487 -2.25506
-0.387977 0.646811 -2.20921
0.377502 0.646811 -2.21438
0.365606 0.310487 -2.25433
-0.857646 0.355537 -0.330318
-0.861972 0.365376 0.365328
-0.878446 0.846397 0.380743
-0.873022 0.803351 -0.287553
0.859614 0.322052 -0.329786
0.874115 0.791252 -0.287375
0.879029 0.833832 0.380991
0.851003 0.340198 0.366071
-0.369787 0.157784 -0.351523
0.386903 0.13777 -0.351169
0.382931 0.147104 0.358364
-0.369909 0.161869 0.357868
-0.501326 1.40863 -0.26617
-0.495169 1.48323 0.38845
0.495179 1.48323 0.38845
0.501339 1.40864 -0.26617
-0.868764 0.388484 1.06097
-0.843081 0.397157 1.76397
-0.855443 0.86163 1.72468
-0.876875 0.850536 1.04904
0.876346 0.366816 1.06193
0.877388 0.841807 1.04936
0.85522 0.858722 1.72688
0.84215 0.392966 1.76694
-0.383686 0.158159 1.06726
0.383908 0.161146 1.0679
0.363748 0.179599 1.77757
-0.386705 0.175671 1.77679
-0.372428 1.4294 1.04307
-0.344512 1.17684 1.70722
0.344518 1.17685 1.70722
0.37244 1.42941 1.04307
-0.372974 0.409564 2.24295
0.352281 0.409564 2.24682
0.338531 0.868657 2.13938
-0.344224 0.868657 2.13847
-0.746989 0.25 -2.10049
-0.561493 0.142184 -2.15782
-0.789876 0.129135 -1.94767
-0.760391 0.297354 2.14557
-0.5625 0.183773 2.13236
-0.763185 0.166337 1.95359
-0.751862 0.7 -1.93755
-0.55875 0.830385 -1.9581
-0.780664 0.827699 -1.73906
-0.658916 0.971476 2.03966
-0.48375 1.10549 2.04666
-0.666349 1.08814 1.86135
0.530747 0.142164 -2.15784
0.71759 0.25 -2.09799
0.759013 0.129283 -1.9476
0.5325 0.183324 2.13408
0.734047 0.297354 2.14697
0.734198 0.165294 1.95522
0.55875 0.830367 -1.95809
0.749641 0.7 -1.93917
0.779947 0.826981 -1.73906
0.48375 1.10549 2.04666
0.656347 0.971476 2.04105
0.666387 1.08818 1.86135
-0.792329 0.129548 -0.88369
-0.748762 0.174071 -0.52903
-0.841357 0.242473 -0.69225
-0.561855 0.159471 -0.706289
-0.755252 0.171404 0.88961
-0.751665 0.174035 0.53495
-0.841378 0.25446 0.712715
-0.564246 0.16476 0.712422
-0.801219 0.950461 -0.757135
-0.848 0.879358 -0.60759
-0.791239 0.97455 -0.429825
-0.673078 1.2017 -0.59348
-0.751779 1.07137 0.879415
-0.837938 0.972906 0.715325
-0.761398 1.04692 0.552105
-0.645701 1.32179 0.71576
0.768532 0.122817 -0.883194
0.579864 0.126034 -0.705864
0.769326 0.123041 -0.528393
0.838388 0.206653 -0.691754
0.772857 0.123581 0.890814
0.577723 0.135568 0.713272
0.77204 0.123381 0.536013
0.838388 0.221614 0.713707
0.801227 0.950469 -0.757135
0.673042 1.20162 -0.59348
0.849817 0.874353 -0.607519
0.79124 0.974551 -0.429825
[...]
POINT_DATA 3682
SCALARS point_scalars float 1
LOOKUP_TABLE default
-49.3197
-47.2092
-63.121
-42.2088
-19.0052
-46.3327
-60.3053
-42.7851
-39.6944
-33.5412
-63.3283
-55.7645
-41.6813
-36.4177
-63.6441
-55.9706
-59.662
-113.838
-57.0764
-34.6997
-46.6131
-47.1192
-38.7479
3.56259
-112.98
-55.1657
-35.35
-47.9553
-41.1152
-38.812
-4.91609
-86.7651
-53.0938
-49.9602
-49.2353
-39.3812
-37.3283
-31.5949
-65.8868
-87.2584
-66.9413
-43.0265
-41.9731
-41.9731
20.4343
-170.569
-52.9471
-33.6996
-45.7382
-38.4506
-35.2611
142.867
-36.5882
-35.2611
146.597
-37.5673
-36.7629
-12.7582
-44.6324
-85.4415
-68.9321
-49.0119
-40.0361
-38.8864
8.3799
-161.185
-42.5742
-36.6931
-45.8936
-39.5163
-35.7017
130.336
-37.5455
-35.7017
153.015
-38.777
-37.4844
-12.1848
-46.2382
-85.0117
-69.7105
-48.9972
-40.5131
-39.0766
5.25584
-96.6134
-53.5852
-34.234
-52.9872
-46.802
-38.6566
5.25584
-65.5184
-53.9294
-36.328
-52.5079
-43.0571
-38.6566
56.0698
-86.2806
-53.3639
-49.9337
-50.0295
-39.871
-38.1089
-30.4327
-66.0412
-87.2112
-67.0873
-43.4357
-42.5652
-42.5652
-64.5269
-218.823
-59.4922
-39.6263
-37.3823
-42.8472
-34.8538
-49.6883
-40.6856
-54.2585
-62.0553
-61.0626
-40.1524
-42.8458
-49.9447
-54.5731
-35.2144
-46.1526
-42.0571
-44.278
-36.6237
-59.6124
-24.6871
-75.6886
-36.5229
-45.7413
-44.2416
-59.8357
-62.8947
-64.5627
-63.5832
5.27732
204.315
-43.9546
-43.7515
-36.2065
-97.9269
-47.6391
-48.7804
-40.0677
-51.2545
-37.9995
-83.4534
-181.856
-82.4575
-40.2707
-40.6401
-46.6588
-56.1332
-36.4206
-65.8792
-39.3344
-40.2818
-48.5602
-183.298
-69.5474
-88.0563
-41.4516
-40.1432
-46.8431
-35.788
-43.5434
-65.9926
-40.4642
-39.9873
-48.7906
-48.1077
-35.814
-42.9065
-41.7961
-46.2925
-34.7727
-38.651
-35.0619
-55.5587
-51.0482
-62.572
-26.1252
-53.8079
-48.8207
-58.6297
-70.9222
-47.6084
-41.6641
-37.4386
-42.7212
-39.7711
-37.3504
-36.4303
-38.6378
-55.8127
-26.2498
-50.9538
-62.8286
-54.0915
-71.0196
-48.7361
-58.8668
-87.6044
168.183
-98.2983
151.108
-61.4696
-62.1674
-51.5164
-37.8019
-40.577
-29.8186
-46.2338
-41.0766
-23.7438
149.393
-61.3941
-6.66145
-44.1976
-38.2824
-49.3959
-51.8455
-94.3505
171.88
-65.1129
-62.0897
-52.5686
-38.2005
-48.3215
-40.6032
-62.3162
-6.56869
-49.9695
-51.8968
-39.9967
-35.4904
-50.5838
-44.3299
-51.4202
-37.834
-43.8148
-46.1906
-35.9268
-39.3324
-49.8519
-89.0639
17.9422
-94.2065
-87.6034
-63.1441
-40.1155
-36.5568
-51.3037
-44.2554
-43.7954
-47.2282
-49.4159
-89.1934
-76.6001
-48.9892
-51.1747
-86.0454
-88.049
-87.6173
-51.6061
-50.4711
-94.8123
-94.882
-49.9814
-51.3286
-31.5811
7.8133
7.85865
-31.4168
158.274
91.034
92.6823
152.852
-40.5047
-39.4881
-49.623
-50.682
-40.5143
-50.6726
-49.5297
-39.9608
-36.9442
-38.052
-36.514
-35.1303
-83.2693
-79.8743
-79.9906
-83.3932
-47.2733
-49.4762
-52.4191
-49.292
-48.9177
-49.0717
-53.3877
-51.4382
-40.0422
-39.088
-41.9273
-41.7369
-62.9826
-44.6613
-44.7571
-63.051
-34.1023
-34.7746
-38.1134
-37.7276
-58.4155
-100.975
-116.521
-42.9779
-43.2252
-46.0551
-49.631
-39.2151
-69.2525
-40.5187
-40.3525
-44.7723
-91.5332
-42.9422
-98.2829
-43.5376
-42.5734
-47.2034
-37.7512
-42.854
-68.002
-40.748
-41.1645
-45.0944
-54.9704
-36.8969
-40.4554
-40.8913
-29.2365
-34.2213
-35.5465
-34.2008
-60.7555
-56.1006
-63.2951
-74.7357
-54.74
-53.2456
-56.747
-63.2085
-45.3377
-41.2177
-38.4969
-41.4601
-42.5035
-38.5108
-36.5476
-36.4357
-61.1716
-74.9594
-55.9991
-63.3675
-55.0159
-63.3861
-53.2529
-56.9934
-94.4509
-75.1992
-87.5462
119.053
-208.809
-215.469
-135.158
57.2586
-70.2995
-52.3691
-60.4786
-60.484
-39.7074
-39.4592
-45.9795
-37.3536
-38.6008
-38.9899
-39.6319
-30.535
-43.0738
-42.7227
-45.5136
-41.9225
-37.7347
-37.5069
-34.0424
-0.581547
-55.2747
-49.8103
-58.9649
-23.1025
-40.5292
-40.5962
-42.5874
-38.6226
-52.2313
-53.7354
-51.8474
-54.1692
-76.6059
-51.4344
-78.1923
120.873
-74.9347
-52.8152
-64.6705
-61.003
-40.0564
-40.0548
-46.6895
-38.1098
-44.1449
-41.4294
-47.7338
-41.3955
-55.4063
-50.0392
-59.6626
-23.0658
-52.4705
-54.0417
-52.1947
-54.2812
-35.2756
-35.0135
-38.465
-35.0727
-44.3769
-48.0911
-47.8268
-45.0546
-42.062
-41.953
-47.9897
-39.5151
-42.4073
-46.05
-43.8234
-45.3106
-35.999
-37.1518
-36.118
-36.0245
-60.9457
-58.4487
-55.1952
-70.337
-23.86
-23.944
3.09176
-61.5118
-74.9295
-74.9735
-81.3361
-69.7692
-36.8413
-36.4179
-38.8554
-36.5501
-44.3373
-47.7502
-48.6196
-44.5165
-41.9459
-46.0407
-43.9067
-45.4886
-61.2211
-58.7168
-54.7203
-70.5434
-76.3323
-62.2957
-62.443
-55.0839
-78.9073
-65.0646
-63.6026
-56.2478
-75.9208
-63.2887
-63.1582
-56.3538
-10.3663
2.48335
2.54488
19.9588
197.51
196.106
187.546
197.047
-42.0533
-44.2042
-43.871
-46.4144
-41.8147
-44.0152
-43.7768
-46.2442
-35.8738
-36.7887
-35.9455
-36.3944
-95.3995
-95.3555
-93.2206
-95.4526
-51.346
-47.0953
-48.3482
-46.3695
-52.1792
-48.5911
-49.0252
-47.2339
-40.0849
-40.3431
-40.1069
-39.8038
-47.0303
-51.3406
-51.3591
-56.7939
-38.4373
-32.5441
-38.2141
-36.8716
-96.8071
128.598
-131.814
80.7115
-78.0375
-91.84
-47.0371
-36.1693
-41.2412
-34.2769
-49.0163
-43.4965
-87.4008
52.4224
-43.9445
29.7746
-76.2616
-42.1329
-47.4878
-37.6436
-42.7755
-38.1091
-51.1886
-45.7882
-131.616
82.339
-69.0298
124.299
-69.6508
-92.6118
-41.4508
-35.4121
-47.8488
-37.2127
-52.2453
-43.7797
-43.6694
32.6194
-85.4038
57.9285
-76.7544
-41.961
-42.8912
-38.4208
-48.3598
-38.2602
-51.888
-45.9172
-46.4091
-51.0066
-38.6445
-36.1924
-51.0882
-41.1162
-48.3141
-38.6809
-47.5993
-41.4464
-38.0869
-34.7791
-39.1435
-44.6988
-35.0833
-34.7513
-53.5119
-19.0503
-50.4611
-50.9972
-55.82
-80.8052
-5.87742
-58.211
-52.6197
-63.8528
-49.1692
-47.688
-54.8327
-68.024
-75.0829
-68.6511
-48.7449
-49.0613
-46.0529
-39.5807
-39.1468
-37.8251
-51.9562
-40.9904
-48.7812
-39.634
-36.8914
-38.5486
-38.567
-36.6024
-39.5573
-42.2669
-53.6073
-19.0185
-5.94288
-58.1799
-50.4786
-50.8176
-55.629
-81.0536
-52.3962
-63.957
-75.1938
-68.7289
-49.0826
-47.9269
-54.7628
-68.274
-81.7856
-91.5167
178.952
148.554
-97.1346
-97.0576
158.372
156.495
-74.5094
-54.1509
-73.9156
-55.5542
-50.7303
-52.2114
-34.2279
-37.7335
-40.7822
-40.8079
-31.1108
-31.9143
-44.9362
-48.3142
-40.9684
-40.951
-25.5484
-25.4626
115.062
118.77
-55.0302
-75.3257
-19.7076
4.46249
-44.3276
-44.3572
-38.1181
-37.9801
-51.7952
-48.3418
-57.4705
-47.6933
-93.2648
-94.503
150.122
178.972
-81.8166
-55.7891
-74.0671
-54.9006
-53.161
-51.8006
-35.3447
-38.1555
-46.694
-50.4502
-39.8863
-41.0798
-76.2648
-55.6576
4.56655
-19.6142
-48.7524
-52.6718
-47.7591
-57.5304
-40.2166
-39.8065
-35.9957
-35.2358
-49.9895
-50.9374
-42.4115
-47.074
-50.8458
-51.5397
-37.4657
-37.9733
-41.7581
-46.1993
-47.0421
-46.6782
-36.2259
-35.5472
-39.8837
-39.1227
-50.0632
-49.9249
-88.7479
-84.0197
16.0867
16.0754
-92.5072
-92.5395
-86.1406
-86.1876
-63.0728
-63.1056
-40.6351
-40.0333
-37.1037
-36.3035
-51.4877
-51.1567
-42.2262
-46.8092
-46.1433
-41.7793
-48.2321
-47.1285
-50.0978
-49.741
-84.134
-88.8775
-106.616
-72.9312
-75.2177
-89.099
-56.1141
-48.5856
-54.7755
-52.9384
-55.2436
-54.2048
-54.8208
-48.5225
-85.5039
-85.4961
-76.8889
-67.3192
-80.0815
-70.4285
-79.9797
-84.5074
-84.136
-68.071
-78.579
-83.7764
-55.2941
-48.6456
-55.7522
-54.6711
-53.6296
-55.136
-55.9791
-49.8647
-129.568
-134.042
-75.5113
-71.6941
-128.904
-72.9081
-75.4553
-133.845
-45.206
-47.2866
-55.8567
-53.7015
-50.0062
-54.2764
-56.2576
-48.3925
-51.5994
-30.9815
-12.8216
-36.6348
-54.1176
3.25658
16.2478
-16.9672
-54.2943
-16.9026
16.2715
3.24615
-51.1475
-36.4838
-12.6725
-30.9109
63.547
142.206
193.005
64.7789
39.183
20.4268
179.083
77.2907
43.1245
85.8962
182.092
20.4155
62.5031
66.4414
191.29
139.109
-39.2507
-38.4885
-42.1554
-42.9329
-37.5747
-41.8744
-41.8723
-38.3477
-53.9673
-54.8517
-46.3494
-45.9807
-56.0102
-47.5091
-46.5467
-54.8788
-39.5251
-42.8079
-42.0934
-39.0167
-55.9995
-55.0497
-46.5292
-47.2218
-53.9107
-45.98
-46.228
-54.6897
-38.2117
-38.5161
-41.831
-41.761
-37.7185
-39.2034
-36.4517
-35.4564
-39.2238
-37.0058
-36.9585
-39.5851
-37.1001
-36.5137
-36.1642
-36.4306
-34.5525
-34.9183
-35.6132
-35.6562
-96.9707
-74.7104
-94.2072
-56.2148
-64.5074
-79.9715
-91.6348
-67.6647
-64.7027
-67.834
-91.6876
-80.0249
-97.1218
-56.2917
-94.2527
-74.9347
-34.9204
-43.9502
-45.8066
-44.7402
-46.8382
-46.5235
-49.7192
-47.9344
-47.778
-51.1749
-52.5043
-46.5172
-52.7499
-46.3563
-47.0556
-51.4219
-34.2429
-44.7908
-47.0286
-45.9067
-53.3203
-51.6699
-47.6538
-46.5627
-48.5475
-47.2791
-53.6083
-51.6666
-48.378
-50.732
-50.8929
-47.1757
-32.7476
-34.9495
-40.1607
-41.7807
-38.1841
-40.3383
-39.688
-36.9706
-43.0336
-40.0485
-40.2412
-41.8112
-42.7212
-41.7472
-40.2779
-39.8483
-59.6512
-59.279
-57.0815
-69.5224
-43.207
-42.609
-47.2247
-49.3885
-43.3753
-49.5717
-47.2377
-42.6519
-59.8139
-69.5613
-57.107
-59.3586
-37.0923
-30.9044
-33.2236
-36.36
-37.8247
-37.2329
-33.8004
-31.6969
-38.5843
-38.5231
-38.144
-38.5481
-38.0553
-37.9993
-37.9926
-38.3975
-36.1281
-19.9446
-138.618
-46.491
-45.0862
-46.1945
-54.7746
-37.1227
-74.7838
-41.6007
-40.9412
-43.0045
-30.0797
-19.8765
-126.907
-44.5974
-45.202
-45.5881
-35.3979
-49.8607
-74.0278
-41.3383
-42.2633
-43.387
-45.959
-37.896
-38.6922
-40.1841
-32.819
-33.3877
-34.5917
-33.9147
-63.1273
-59.2067
-63.7264
-78.9612
-55.0646
-55.0304
-56.1689
-58.7749
-43.6268
-41.1846
-39.3443
-42.6604
-38.0019
-38.5338
-36.4867
-34.5776
-63.3276
-79.2261
-59.2748
-63.8968
-55.3441
-58.9977
-55.3064
-56.3898
-85.6962
-71.5249
-103.057
40.9011
-219.787
-218.654
-168.643
-34.0876
-63.5467
-54.9517
-59.6654
-59.6839
-39.6583
-39.9431
-43.0654
-37.5613
-37.7591
-38.0822
-39.6893
-35.6013
-43.5937
-43.5133
-44.0745
-42.451
-35.7765
-35.756
-37.4934
-32.2442
-51.9864
-48.5848
-56.3801
-35.3219
-40.6453
-40.6745
-41.8097
-39.3453
-53.0226
-54.2916
-53.1769
-55.5911
-64.7769
-57.0449
-75.9995
43.055
-67.1026
-56.3995
-63.6857
-60.6554
-40.1703
-40.4269
-43.6808
-38.3459
-43.2239
-42.1635
-45.8445
-41.8949
-51.6814
-48.8112
-56.6652
-35.3493
-53.3058
-54.6428
-53.4494
-55.7454
-35.1207
-35.1056
-36.543
-34.9971
-45.1782
-47.0378
-46.5527
-45.6382
-42.1389
-42.0361
-44.8306
-40.7081
-43.3493
-45.1462
-43.969
-44.7968
-36.3719
-36.9358
-36.2959
-36.5113
-60.2108
-59.0297
-57.9958
-63.9888
-24.3321
-24.3642
-9.13801
-39.763
-75.5149
-75.5363
-78.8823
-72.7874
-36.6286
-36.3954
-37.478
-36.5778
-45.0345
-46.6901
-46.8034
-44.8776
-43.127
-45.1253
-44.1454
-44.9484
-60.4585
-59.2626
-58.0465
-64.2023
-68.7707
-62.6431
-62.8022
-58.6449
-70.5893
-64.7072
-64.1082
-59.7727
-69.058
-63.5197
-63.419
-59.6006
-2.11
4.68346
4.71058
13.9542
203.89
202.271
201.021
204.44
-42.8637
-44.0328
-43.8924
-45.1031
-42.7328
-43.8473
-43.7165
-45.0677
-36.0582
-36.4558
-36.0328
-36.3145
-96.7591
-95.7542
-96.4378
-96.7552
-48.9531
-47.4549
-48.0071
-46.8639
-50.138
-48.7743
-48.8277
-47.9332
-39.9418
-40.1405
-40.0319
-40.1247
-48.9362
-51.3689
-51.3779
-53.9182
-37.8605
-33.7769
-38.5401
-37.9281
-79.2572
-97.1658
-115.884
57.9729
-157.011
-198.538
-172.339
-4.40493
-98.6604
-76.136
-78.2482
-88.5424
-41.3212
-39.7589
-44.8708
-37.2186
-41.8096
-39.8276
-41.1158
-36.1211
-46.3001
-43.362
-48.9461
-44.4949
-49.8155
-67.6828
-87.5454
12.544
-37.5511
-39.3446
-47.1549
-25.7961
-65.257
-60.6279
-74.9463
-51.6857
-39.6343
-39.1613
-44.856
-38.0165
-40.134
-40.4475
-41.6341
-38.7625
-46.2931
-50.8731
-49.5285
-47.417
-151.778
-197.614
-161.877
-7.25013
-61.0718
-73.7134
-97.5435
51.1704
-93.5952
-85.6638
-65.8148
-90.465
-41.9361
-40.6
-41.7519
-36.6885
-40.9661
-40.0637
-44.6158
-37.8164
-47.3339
-44.9037
-52.1765
-45.0658
-36.6997
-39.2852
-46.67
-24.2077
-40.6112
-49.9423
-78.976
19.261
-64.4622
-60.7608
-75.1906
-51.5694
-40.4627
-40.5501
-41.7691
-39.0307
-40.2701
-39.8089
-45.5195
-38.6714
-46.5406
-51.1064
-49.9705
-47.5712
-51.8059
-50.3456
-44.8239
-50.7312
-36.2274
-35.5214
-36.9478
-35.8312
-41.949
-43.5172
-46.3601
-41.7968
-41.4995
-41.9174
-44.753
-40.0058
-37.1925
-42.0176
-49.7028
-42.774
-34.5611
-34.8623
-36.1255
-34.6279
-36.4781
-40.6235
-38.9077
-39.1873
-34.516
-35.6172
-35.0801
-34.9725
-60.7832
-52.8312
-55.4452
-44.4235
-53.2628
-49.3542
-50.7487
-51.1608
-63.3422
-61.8645
-58.7771
-68.5793
-41.2585
-23.454
-13.7526
-42.5582
-54.1871
-53.1348
-53.0826
-58.0525
-50.7578
-47.1492
-48.9809
-48.4023
-58.0036
-58.4468
-57.6129
-63.4627
-68.4887
-73.6643
-73.1777
-69.7744
-47.4377
-49.8041
-46.415
-48.4878
-41.2818
-41.863
-43.3647
-40.687
-37.8419
-37.0369
-38.1929
-37.7058
-41.8477
-43.6118
-46.2612
-41.705
-41.0178
-40.9925
-46.9788
-39.9111
-37.5658
-37.359
-37.1336
-37.7013
-36.4915
-36.3672
-37.4567
-36.5705
-37.2674
-39.6715
-39.219
-35.6976
-61.0715
-53.0695
-55.5603
-44.4691
-41.465
-23.5054
-13.8473
-42.6327
-53.1272
-49.2218
-50.6919
-51.0459
-62.9794
-62.1318
-58.7093
-68.8102
-54.4666
-53.4205
-53.2519
-58.2255
-68.6355
-73.733
-73.2907
-69.86
-50.6511
-47.0867
-48.898
-48.3977
-58.229
-58.7928
-57.6587
-63.7069
-80.1689
-84.7716
-84.3064
-90.1795
153.153
187.664
180.127
152.351
-114.722
-85.6503
-97.7548
-97.7751
110.773
182.093
152.845
153.939
-61.2393
-61.8555
-67.2353
-57.6359
-61.37
-62.8046
-67.3048
-58.4655
-48.8232
-52.4771
-51.145
-51.9852
-37.9814
-38.0874
-35.6278
-38.4235
-40.0802
-40.2381
-40.6733
-40.6248
-29.2063
-30.8396
-30.2738
-30.5946
-46.1875
-46.6551
-45.4797
-47.6469
-41.3813
-40.6496
-41.2937
-40.9268
-28.6564
-17.7213
-24.1743
-24.134
97.0074
166.827
132.676
135.592
-60.0795
-62.187
-57.6966
-67.672
-13.5331
-1.36468
-13.2039
-0.8599
-43.1742
-45.5925
-44.2192
-44.2296
-38.6688
-37.8413
-38.2337
-38.131
-50.3251
-48.5805
-50.8957
-48.5632
-52.6734
-51.4929
-54.5378
-49.6062
-87.1749
-89.1429
-93.8947
-94.5187
153.533
189.501
156.772
180.093
-65.2966
-65.0617
-72.0679
-59.8357
-61.4659
-62.5999
-67.3864
-58.1254
-49.681
-53.2018
-52.9737
-52.2638
-38.5154
-38.5649
-36.6045
-38.6999
-48.2266
-48.4521
-47.5308
-49.9262
-40.9062
-40.2148
-40.5055
-40.8202
-60.9202
-63.0937
-68.5966
-58.4189
-13.4594
-1.27651
-0.75591
-13.1002
-50.8107
-49.2039
-49.0111
-51.603
-52.7388
-51.5317
-49.6639
-54.4566
-39.228
-40.664
-40.1007
-39.8086
-35.303
-35.6743
-35.7071
-35.3582
-49.322
-52.5104
-50.188
-50.9542
-44.6016
-44.318
-43.22
-45.58
-49.6268
-53.641
-51.1591
-51.495
-38.5794
-37.2378
-37.7038
-37.912
-43.8008
-43.8459
-42.706
-44.9824
-46.2183
-46.0951
-46.4552
-46.2002
-36.0152
-35.9115
-36.0787
-35.7427
-37.7393
-39.5337
-39.8267
-39.2835
-52.5684
-47.8293
-49.8916
-49.6781
-79.6573
-93.0445
-88.1114
-86.5343
11.6571
20.3121
17.2407
17.2302
-82.0937
-93.8531
-94.043
-94.0617
-84.5398
-90.6062
-87.2506
-87.2729
-66.2137
-59.8571
-63.0405
-63.0484
-39.2497
-40.6885
-41.0547
-40.024
-36.5211
-36.4421
-36.8145
-36.42
-50.28
-53.4932
-51.5798
-51.139
-44.2167
-44.139
-43.1955
-45.5197
-43.8278
-43.8245
-44.9756
-42.6014
-46.7572
-46.7986
-47.8584
-46.7705
-51.9265
-47.6575
-49.8009
-49.6501
-79.8459
-93.1285
-86.6659
-88.2378
-78.1075
-75.4703
-80.0827
-81.6749
-47.8882
-50.7254
-51.5973
-49.7047
-51.8138
-50.2984
-52.7484
-50.9966
-85.2465
-81.1728
-89.5993
-83.3112
-70.2045
-80.2507
-92.3036
-92.9906
-85.8072
-82.2665
-91.8516
-84.7428
-52.1114
-50.4886
-53.2068
-51.516
-49.8259
-51.8847
-52.9717
-50.7956
-111.152
-93.4632
-96.1304
-82.9388
-111.046
-93.8813
-95.999
-83.0647
-49.4509
-48.1299
-52.2102
-50.3452
-51.1295
-49.8054
-53.2033
-51.3608
-36.8824
-36.3391
-28.2173
-25.7937
-1.19774
3.69929
8.30211
12.9491
-0.963433
3.69362
8.379
12.9863
-36.6557
-36.1568
-28.0851
-25.6784
149.477
122.953
171.18
163.191
67.0561
71.4509
125.201
106.532
72.8831
68.9615
108.266
129.573
123.822
150.959
160.526
167.146
-39.3869
-40.6412
-40.2811
-41.2345
-38.7413
-39.3055
-39.562
-40.4529
-49.3419
-51.8372
-47.6113
-49.7393
-50.8209
-52.9082
-48.8719
-50.424
-39.6984
-40.8069
-40.7143
-41.3086
-50.6585
-52.8323
-48.4613
-50.413
-49.2742
-51.8054
-47.4476
-49.5546
-39.1645
-39.8242
-39.967
-40.4576
-36.6018
-37.7003
-36.406
-37.2266
-38.7542
-37.919
-37.9693
-37.542
-36.6296
-36.4478
-36.3494
-36.4495
-34.975
-35.113
-35.1788
-35.3022
-88.9737
-70.4543
-88.6433
-88.5267
-74.5921
-77.5447
-82.2857
-84.0995
-77.6535
-74.7713
-84.1777
-82.4041
-70.5027
-89.1406
-88.0738
-88.7498
-46.7027
-49.177
-44.7746
-47.4139
-48.7892
-49.1527
-50.092
-48.4687
-50.5951
-52.2505
-52.3729
-52.4881
-51.4282
-48.2289
-48.5243
-47.3296
-49.0062
-50.635
-46.5332
-48.8848
-50.985
-48.8408
-48.8023
-47.7848
-51.4877
-53.1188
-53.3043
-53.4518
-50.5433
-51.7504
-51.1426
-50.7557
-40.5324
-37.957
-40.7871
-40.1153
-39.1022
-39.2654
-39.6677
-39.1606
-41.634
-43.1635
-41.253
-41.4699
-41.481
-42.2958
-41.1138
-41.0845
-63.4728
-66.0236
-60.3937
-63.0541
-43.6521
-45.0595
-44.4413
-46.0774
-43.7339
-45.1685
-44.5021
-46.1527
-63.5565
-66.0984
-60.4511
-63.1109
-35.4322
-33.7779
-33.8469
-32.433
-34.7212
-36.3349
-33.3203
-34.8693
-38.3146
-38.1365
-38.1351
-38.0329
-37.6251
-37.9696
-37.6365
-37.8802
-117.6
37.0122
-166.605
11.3146
-110.941
-126.864
-47.5294
-38.2775
-42.7823
-39.6421
-46.2854
-43.9687
-85.0603
6.91158
-53.7678
-3.82358
-77.9887
-56.0786
-45.4399
-38.6233
-41.8581
-38.8403
-47.075
-43.6925
-170.147
6.70843
-106.437
30.4548
-88.8431
-126.311
-42.9573
-40.2
-45.0484
-38.7374
-49.5547
-44.2637
-53.0728
-1.79815
-81.3835
12.0411
-76.663
-55.3452
-42.0728
-39.3046
-46.1544
-39.2426
-47.6792
-43.8934
-56.193
-51.7915
-37.7916
-37.1117
-47.3717
-39.9271
-44.7855
-38.9873
-32.7713
-31.0435
-35.5407
-34.3023
-37.0142
-29.7355
-34.4002
-33.6897
-58.4901
-69.8712
-55.7516
-56.3484
-58.9821
-73.3841
-59.2072
-83.6112
-54.5198
-57.4641
-53.6128
-52.8325
-56.3166
-59.9696
-63.5878
-61.6478
-47.5367
-45.1171
-42.6054
-40.2503
-38.9741
-38.9504
-47.4115
-40.13
-40.5081
-38.5582
-37.4476
-38.5883
-37.0528
-37.1635
-37.4785
-33.6696
-58.7108
-70.1658
-59.3953
-83.9599
-55.7176
-56.2638
-59.2169
-73.592
-54.6596
-57.699
-63.78
-61.8011
-53.5224
-52.8857
-56.5208
-60.2069
-113.15
55.7202
-93.0218
4.77872
-90.2463
-83.8603
135.824
68.6257
-170.472
-27.9734
-166.346
-19.3291
-134.592
-134.54
64.1638
62.185
-71.6128
-70.4083
-52.2487
-53.4559
-65.5609
-56.0942
-65.3802
-56.9062
-43.61
-37.295
-43.8119
-38.295
-46.181
-46.1524
-36.6721
-38.2065
-39.0946
-34.7285
-39.2032
-34.8529
-39.7337
-39.6426
-30.621
-30.9219
-46.5023
-42.066
-43.5291
-42.2529
-44.2662
-47.3052
-42.6119
-41.3985
-40.5068
-35.991
-40.3132
-35.7536
-34.7004
-34.5791
4.08422
3.40445
-62.7208
-41.6958
-53.8944
-33.6763
-56.29
-63.4
-26.6726
-19.2573
-41.765
-39.1427
-41.8182
-39.2242
-42.5782
-42.5959
-38.5716
-38.5256
-50.8189
-51.4984
-53.3165
-58.681
-51.5831
-51.5677
-56.6875
-51.8364
-87.23
43.4465
-76.1485
17.7451
-76.8076
-81.1416
74.5098
139.324
-83.8815
-72.8181
-54.2284
-53.1185
-72.4123
-59.2655
-66.3333
-56.9203
-44.0664
-38.0887
-44.2342
-38.929
-46.8981
-46.9119
-37.517
-38.6222
-48.9546
-42.2239
-43.8613
-40.5652
-46.614
-50.0917
-41.0809
-41.4139
-63.0817
-41.6701
-54.1943
-33.7056
-63.978
-56.847
-19.2117
-26.6244
-51.1118
-51.625
-53.6056
-58.8137
-51.8935
-51.9331
-51.9256
-56.7993
-36.6277
-35.2447
-36.3807
-34.8303
-38.4607
-38.3672
-35.2383
-34.9851
-45.9038
-43.4864
-48.3266
-47.7659
-48.2879
-47.8968
-43.8334
-46.0852
-44.8158
-40.442
-44.406
-40.7109
-47.7343
-48.2675
-39.3783
-39.5601
-41.9342
-43.3025
-45.965
-46.1509
-42.7354
-44.8828
-44.923
-45.7892
-35.7754
-35.7479
-36.7394
-37.2375
-36.3373
-35.9113
-35.2924
-36.3958
-58.4774
-66.0169
-57.3084
-61.6985
-55.1946
-55.1759
-72.2155
-68.9541
-7.78893
-40.4217
-7.82135
-40.3322
3.54302
3.52425
-60.3078
-60.3483
-77.4376
-72.2173
-77.4845
-72.2574
-81.0113
-81.0379
-69.7506
-69.7695
-37.6071
-36.9308
-37.9559
-36.4712
-38.8382
-38.7485
-36.735
-36.4569
-46.2521
-43.415
-48.2741
-47.4121
-48.4912
-49.2301
-43.6503
-45.8456
-41.7866
-42.8427
-45.9511
-46.2362
-44.9454
-42.6633
-45.1438
-45.9402
-58.5357
-66.2505
-57.4256
-61.9256
-54.699
-54.7538
-69.1404
-72.4384
-75.5989
-77.0504
-67.929
-58.2536
-58.1426
-68.0783
-54.9727
-55.1393
-79.321
-78.6499
-71.4346
-60.4115
-69.5756
-59.156
-56.1738
-56.3296
-75.9016
-75.1318
-68.6465
-59.3962
-68.5603
-59.1326
-56.2599
-56.3679
-10.7637
-10.8251
-4.9222
9.35358
9.40703
-4.86105
18.9869
18.9918
198.242
191.818
195.732