# vtk DataFile Version 2.0
tet_velo
ASCII
DATASET UNSTRUCTURED_GRID
POINTS 29498 float
-0.670521 0.145 -2.235
-0.685811 0.265 2.195
-0.739704 0.595 -2.005
-0.710505 0.805 2.195
0.645508 0.145 -2.235
0.685718 0.265 2.195
0.741805 0.595 -2.005
0.710731 0.805 2.195
-0.715914 0.144704 -0.758333
-0.754363 0.151351 0.718333
-0.82954 0.764569 -0.605
-0.823869 0.838631 0.795
0.699825 0.144087 -0.758333
0.746023 0.151291 0.718333
0.830068 0.763621 -0.605
0.824262 0.838173 0.795
-1.43579 -0.206561 -3.45708
-1.43513 -0.151125 -2.30645
-1.47181 -0.147274 -0.8278
-1.49431 -0.144456 0.666279
-1.45465 -0.0705149 2.14623
-1.44133 -0.0206422 3.30322
-1.44551 0.0162615 4.44843
-1.43193 0.0644273 -3.36964
-1.43699 0.138452 -2.22739
-1.48846 0.162089 -0.763654
-1.50683 0.165106 0.706978
-1.43704 0.229569 2.17218
-1.42866 0.277554 3.32809
-1.43947 0.315029 4.4758
-1.45837 0.576522 -3.17324
-1.49741 0.648767 -2.02782
-1.57313 0.773205 -0.616356
-1.56655 0.822397 0.789679
-1.46823 0.815464 2.20261
-1.44715 0.860819 3.3617
-1.4514 0.908258 4.52177
-1.48275 1.44812 -2.9363
-1.50837 1.53327 -1.80236
-1.54868 1.6635 -0.415748
-1.56623 1.75069 0.954337
-1.54549 1.77855 2.34175
-1.51942 1.79898 3.47736
-1.50164 1.83163 4.62906
-0.703821 -0.203845 -3.46202
-0.695073 -0.145728 -2.31366
-0.720461 -0.156101 -0.826832
-0.749532 -0.153435 0.675971
-0.723442 -0.0528206 2.16317
-0.709689 -0.00871487 3.31472
-0.710807 0.0215971 4.45508
-0.692821 0.0611261 -3.37116
-0.69447 0.289662 3.33757
-0.704007 0.319653 4.48082
-0.707317 0.553338 -3.16376
-0.706951 0.859463 3.36017
-0.712028 0.907952 4.52144
-0.720092 1.43264 -2.92692
-0.736272 1.5189 -1.79203
-0.770697 1.66073 -0.409523
-0.79709 1.75508 0.95359
-0.79129 1.77888 2.33641
-0.770326 1.79694 3.47203
-0.754179 1.82969 4.62519
0.705725 -0.204066 -3.46202
0.679799 -0.14594 -2.31366
0.713275 -0.156581 -0.826832
0.732837 -0.1536 0.675971
0.697991 -0.0528807 2.16317
0.722943 -0.0088042 3.31472
0.742635 0.0214611 4.45509
0.712505 0.0609663 -3.37116
0.726898 0.2896 3.33757
0.74657 0.319529 4.48082
0.754749 0.553166 -3.16376
0.734665 0.859387 3.36017
0.748672 0.907817 4.52144
0.796099 1.43226 -2.92692
0.802316 1.51845 -1.79203
0.79714 1.66021 -0.409523
0.764634 1.75465 0.95359
0.731868 1.77859 2.33641
0.73093 1.7967 3.47203
0.739286 1.82946 4.62519
1.42685 -0.207116 -3.45708
1.4078 -0.151755 -2.30645
1.45152 -0.148171 -0.8278
1.47945 -0.144931 0.666279
1.44444 -0.0707349 2.14623
1.4545 -0.0208797 3.30322
1.47435 0.0159563 4.44843
1.43279 0.0639373 -3.36964
1.40577 0.13789 -2.22739
1.46479 0.161047 -0.763654
1.49923 0.164638 0.706978
1.44285 0.229421 2.17218
1.45548 0.277359 3.32809
1.47705 0.314745 4.4758
1.48549 0.576 -3.17324
1.49118 0.648136 -2.02782
1.56465 0.771911 -0.616356
1.5642 0.821641 0.789679
1.47252 0.815233 2.20261
1.46921 0.860587 3.3617
1.48347 0.907949 4.52177
1.54861 1.44733 -2.9363
1.5612 1.53237 -1.80236
1.5679 1.6625 -0.415749
1.54043 1.74986 0.954337
1.49916 1.77796 2.34175
1.48695 1.79849 3.47736
1.48888 1.83116 4.62906
-0.704347 0.37 -2.11923
-0.0125065 0.152663 -2.22734
-0.698681 0.139388 -1.49667
-0.734794 0.535 2.23164
-4.64916e-05 0.253566 2.20643
-0.751435 0.176827 1.45667
0.0010505 0.652297 -2.0623
-0.829336 0.724499 -1.305
0.00011301 0.843489 2.23349
-0.799505 0.854134 1.495
0.694411 0.37 -2.12075
0.677865 0.139345 -1.49667
0.734214 0.535 2.23099
0.747295 0.176722 1.45667
0.830266 0.72364 -1.305
0.799826 0.853916 1.495
-0.733324 0.149842 -0.02
-0.894086 0.454637 -0.681667
-0.00804452 0.145724 -0.758333
-0.898114 0.494991 0.756667
-0.00416978 0.148362 0.718333
-0.826165 0.80106 0.0949999
0.00026389 1.0039 -0.605
0.000196403 1.2505 0.795
0.720261 0.150352 -0.02
0.894041 0.453854 -0.681667
0.898115 0.494732 0.756667
0.826589 0.800321 0.0949999
-0.888293 0.412318 -1.40083
-0.895314 0.474814 0.0375
-0.885328 0.514996 1.47583
-0.0102755 0.138389 -1.49667
-0.00610715 0.147121 -0.02
-0.00210814 0.198173 1.45667
-0.00572801 0.37 -1.98518
3.32594e-05 0.535 2.33527
0.000657196 0.818051 -1.305
0.000230146 1.28512 0.0949999
0.000154707 1.03649 1.495
0.888298 0.411927 -1.40083
0.89521 0.474293 0.0375
0.884973 0.514866 1.47583
-1.05376 0.141726 -2.23119
-0.682797 -0.000363874 -2.27433
-0.681671 0.103063 -2.80308
-1.06142 0.247285 2.18359
-0.704626 0.10609 2.17909
-0.69014 0.277331 2.76628
-1.11856 0.621884 -2.01641
-0.72351 0.574169 -2.58438
-0.737988 1.05695 -1.89851
-1.08937 0.810232 2.19881
-0.708728 0.832232 2.77759
-0.750897 1.29194 2.26571
0.662654 -0.000470042 -2.27433
0.679006 0.102983 -2.80308
1.02564 0.141445 -2.23119
0.691854 0.10606 2.17909
0.706308 0.2773 2.76628
1.06428 0.24721 2.18359
0.748277 0.574083 -2.58438
0.77206 1.05673 -1.89852
1.11649 0.621568 -2.01641
0.722698 0.832193 2.77759
0.7213 1.2918 2.26571
1.09162 0.810117 2.19881
-1.10219 0.153396 -0.760994
-0.718187 -0.00569837 -0.792583
-1.1306 0.158229 0.712656
-0.751948 -0.00104205 0.697152
-1.20134 0.768887 -0.610678
-0.800119 1.21265 -0.507261
-1.19521 0.830514 0.79234
-0.81048 1.29686 0.874295
0.70655 -0.00624741 -0.792583
1.08231 0.152567 -0.760994
0.73943 -0.00115438 0.697152
1.12262 0.157964 0.712656
0.813604 1.21191 -0.507262
1.19736 0.767766 -0.610678
0.794448 1.29641 0.874295
1.19423 0.829907 0.792339
-1.43546 -0.178843 -2.88176
-1.43386 -0.0710669 -3.41336
-1.06981 -0.205203 -3.45955
-1.45347 -0.149199 -1.56712
-1.43606 -0.00633663 -2.26692
-1.0651 -0.148426 -2.31006
-1.48306 -0.145865 -0.0807605
-1.48013 0.00740748 -0.795727
-1.09613 -0.151687 -0.827316
-1.47448 -0.107486 1.40625
-1.50057 0.0103247 0.686628
-1.12192 -0.148946 0.671125
-1.44799 -0.0455785 2.72472
-1.44584 0.0795272 2.1592
-1.08905 -0.0616678 2.1547
-1.44342 -0.00219033 3.87583
-1.43499 0.128456 3.31565
-1.07551 -0.0146785 3.30897
-1.44249 0.165645 4.46212
-1.07816 0.0189293 4.45176
-1.43446 0.101439 -2.79851
-1.44515 0.320475 -3.27144
-1.06238 0.0627767 -3.3704
-1.46273 0.15027 -1.49552
-1.4672 0.39361 -2.1276
-1.49765 0.163597 -0.0283382
-1.53079 0.467647 -0.690005
-1.47194 0.197338 1.43958
-1.53669 0.493751 0.748328
-1.43285 0.253562 2.75013
-1.45264 0.522517 2.1874
-1.43406 0.296292 3.90194
-1.43791 0.569187 3.34489
-1.06157 0.283608 3.33283
-1.44543 0.611644 4.49878
-1.07174 0.317341 4.47831
-1.47789 0.612645 -2.60053
-1.47056 1.01232 -3.05477
-1.08284 0.56493 -3.1685
-1.53527 0.710986 -1.32209
-1.50289 1.09102 -1.91509
-1.56984 0.797801 0.0866617
-1.5609 1.21835 -0.516052
-1.51739 0.818931 1.49615
-1.56639 1.28654 0.872008
-1.45769 0.838142 2.78215
-1.50686 1.29701 2.27218
-1.44927 0.884539 3.94173
-1.48329 1.3299 3.41953
-1.07705 0.860141 3.36093
-1.47652 1.36995 4.57542
-1.08171 0.908105 4.52161
-1.49556 1.49069 -2.36933
-1.10142 1.44038 -2.93161
-1.52853 1.59839 -1.10905
-1.12232 1.52608 -1.79719
-1.55746 1.7071 0.269294
-1.15969 1.66212 -0.412635
-1.55586 1.76462 1.64804
-1.18166 1.75289 0.953963
-1.53245 1.78876 2.90955
-1.16839 1.77871 2.33908
-1.51053 1.81531 4.05321
-1.14487 1.79796 3.4747
-1.12791 1.83066 4.62713
-0.699447 -0.174786 -2.88784
-0.698321 -0.0713593 -3.41659
0.000952249 -0.203955 -3.46202
-0.707767 -0.150914 -1.57025
-0.00763698 -0.145834 -2.31366
-0.734997 -0.154768 -0.0754305
-0.00359323 -0.156341 -0.826832
-0.736487 -0.103128 1.41957
-0.00834774 -0.153518 0.675971
-0.716566 -0.0307677 2.73894
-0.0127257 -0.0528507 2.16317
-0.710248 0.0064411 3.8849
-0.70208 0.140474 3.32614
0.00662704 -0.00875953 3.31472
-0.707407 0.170625 4.46795
0.015914 0.0215291 4.45508
-0.700069 0.307232 -3.26746
0.00984171 0.0610462 -3.37116
-0.699238 0.304657 3.90919
-0.700711 0.574563 3.34887
0.0162139 0.289631 3.33757
-0.708017 0.613803 4.50113
0.0212819 0.319591 4.48082
-0.713704 0.992989 -3.04534
0.0237163 0.553252 -3.16376
-0.709489 0.883708 3.94081
-0.738639 1.3282 3.4161
0.0138569 0.859425 3.36017
-0.733103 1.36882 4.57332
0.0183222 0.907885 4.52144
-0.728182 1.47577 -2.35948
0.0380033 1.43245 -2.92692
-0.753485 1.58982 -1.10078
0.0330217 1.51868 -1.79203
-0.783894 1.70791 0.272034
0.0132213 1.66047 -0.409523
-0.79419 1.76698 1.645
-0.0162283 1.75487 0.95359
-0.780808 1.78791 2.90422
-0.0297106 1.77873 2.33641
-0.762253 1.81331 4.04861
-0.0196985 1.79682 3.47203
-0.00744658 1.82957 4.62519
0.692762 -0.175003 -2.88784
0.709115 -0.0715499 -3.41659
1.06629 -0.205591 -3.45955
0.696537 -0.151261 -1.57025
1.0438 -0.148847 -2.31006
0.723056 -0.155091 -0.0754305
1.0824 -0.152376 -0.827316
0.715414 -0.10324 1.41957
1.10614 -0.149266 0.671125
0.710467 -0.0308425 2.73894
1.07121 -0.0618078 2.1547
0.732789 0.00632846 3.8849
0.72492 0.140398 3.32614
1.08872 -0.014842 3.30897
0.744603 0.170495 4.46795
1.10849 0.0187087 4.45176
0.733627 0.307066 -3.26746
1.07265 0.0624518 -3.3704
0.736734 0.304565 3.90919
0.730781 0.574493 3.34887
1.09119 0.283479 3.33283
0.747621 0.613673 4.50113
1.11181 0.317137 4.47831
0.775424 0.992711 -3.04534
1.12012 0.564583 -3.1685
0.741669 0.883602 3.94081
0.732797 1.32805 3.4161
1.10194 0.859987 3.36093
0.743979 1.36864 4.57332
1.11607 0.907883 4.52161
0.799207 1.47535 -2.35948
1.17235 1.43979 -2.93161
0.799728 1.58933 -1.10078
1.18176 1.52541 -1.79719
0.780887 1.70743 0.272033
1.18252 1.66135 -0.412636
0.748251 1.76662 1.645
1.15253 1.75225 0.953963
0.731399 1.78765 2.90422
1.11551 1.77827 2.33908
0.735108 1.81308 4.04861
1.10894 1.7976 3.4747
1.11408 1.83031 4.62713
1.41732 -0.179435 -2.88176
1.42982 -0.0715894 -3.41336
1.42966 -0.149963 -1.56712
1.40678 -0.0069323 -2.26692
1.46549 -0.146551 -0.0807606
1.45815 0.00643795 -0.795727
1.46194 -0.107833 1.40625
1.48934 0.00985316 0.686628
1.44947 -0.0458073 2.72472
1.44364 0.0793429 2.1592
1.46442 -0.00246168 3.87583
1.45499 0.12824 3.31565
1.4757 0.165351 4.46212
1.41928 0.100914 -2.79851
1.45914 0.319969 -3.27144
1.43528 0.149468 -1.49552
1.44848 0.393013 -2.1276
1.48201 0.162842 -0.0283383
1.51472 0.466479 -0.690005
1.47104 0.197029 1.43958
1.53171 0.493139 0.748328
1.44917 0.25339 2.75013
1.45768 0.522327 2.1874
1.46627 0.296052 3.90194
1.46235 0.568973 3.34489
1.48026 0.611347 4.49878
1.48834 0.612068 -2.60053
1.51705 1.01167 -3.05477
1.52792 0.710023 -1.32209
[...]
POINT_DATA 29498
VECTORS point_vectors float
-6.92834 -7.44823 14.9686
0.100856 0.178567 0.6119
-1.37995 0.659384 2.58053
-0.180749 -0.527617 0.513623
7.35493 -7.97621 15.1806
-0.0999474 0.179743 0.616565
1.48376 0.721018 2.80991
0.17882 -0.528425 0.516043
0 0 0
0.00464286 0.000235485 0.0702694
-0.00558318 -0.0059999 0.0601259
0 0 0
0 0 0
-0.00142646 0.000130731 0.0257907
0.00485536 -0.00574974 0.057633
0 0 0
-0.452583 -0.166051 19.7926
-1.34417 -0.688479 20.1601
-0.509363 -0.485141 21.416
0.174165 -0.181589 21.5469
0.83337 0.115923 21.4429
1.07648 0.152944 21.1068
0.936025 -0.0990065 20.7842
-0.56936 -0.125451 19.7114
-1.78811 -0.548511 20.1216
-0.661631 -0.573644 21.4548
0.134838 -0.342443 21.629
1.01667 -0.133387 21.4918
1.26438 -0.126497 21.1871
1.13669 -0.29869 20.9736
-0.709711 0.0708281 19.6403
-1.88155 0.151462 20.3102
-1.12214 -0.364066 21.3363
-0.196792 -0.425534 21.662
0.635833 -0.676477 21.4746
0.997332 -0.715721 21.1708
0.914141 -0.628149 20.6764
-0.599504 0.399712 19.8722
-0.993562 0.635334 20.3997
-0.941072 0.332543 21.1463
-0.32227 -0.0931705 21.4375
0.0423503 -0.375428 21.2887
0.200283 -0.457943 21.0262
0.203514 -0.224819 20.9769
-0.382492 -0.340586 19.4098
-2.22254 -3.0663 19.0543
-0.1808 0.139202 21.7397
0.591965 0.413726 20.94
0.957156 1.35951 19.017
1.50972 1.53228 17.9367
1.31667 0.883822 17.4993
-0.480953 -0.23763 19.1756
2.22698 1.58451 12.0792
2.01456 1.04171 13.8333
-0.742735 0.141066 18.7661
1.38314 -1.36811 7.26019
1.34586 -0.288499 14.8572
-0.559716 0.819277 19.41
-1.16235 1.78357 20.1493
-1.54406 1.71039 21.2408
-0.496644 0.116004 21.8189
-0.195002 -0.398152 21.4289
-0.00747043 -0.676494 20.8785
-0.0637876 -0.812057 19.8645
0.384289 -0.33181 19.4198
2.17451 -3.0965 19.0661
0.16771 0.0930603 21.6978
-0.552014 0.394412 20.8243
-0.875382 1.34823 18.8456
-1.50151 1.50508 17.8832
-1.31025 0.848524 17.8444
0.495212 -0.22962 19.2152
-2.32009 1.54389 12.4488
-1.93321 0.957071 14.2906
0.791215 0.125774 18.8345
-1.53932 -1.39088 8.48325
-1.3036 -0.401748 15.2362
0.583375 0.786832 19.4454
1.20233 1.6659 20.1761
1.54374 1.63386 21.2443
0.496985 0.138739 21.8431
0.225624 -0.373603 21.4654
0.0218879 -0.680025 20.8733
0.0666761 -0.817768 19.7992
0.456234 -0.17559 19.7909
1.36905 -0.726142 20.134
0.511216 -0.505659 21.426
-0.169203 -0.187948 21.5529
-0.836012 0.128404 21.4473
-1.06326 0.14802 21.1145
-0.928225 -0.120002 20.7304
0.571849 -0.123332 19.7121
1.85347 -0.584525 20.0761
0.664408 -0.590442 21.4701
-0.129758 -0.342105 21.6344
-1.0035 -0.133934 21.4916
-1.22065 -0.109358 21.1612
-1.13596 -0.324688 20.9163
0.697272 0.0670609 19.6617
1.89809 0.159739 20.3089
1.13168 -0.362121 21.3437
0.194747 -0.421502 21.6653
-0.634887 -0.666628 21.4757
-0.974232 -0.69298 21.1423
-0.879177 -0.551378 20.8183
0.576754 0.367926 19.9141
0.961278 0.583788 20.4138
0.927383 0.323024 21.1458
0.329122 -0.0923351 21.4464
-0.0346949 -0.387338 21.2982
-0.189504 -0.46345 21.0361
-0.201828 -0.238658 20.9877
-2.09145 -0.402445 0.964373
-0.0225091 -7.93274 10.8893
0.00573799 0.000984895 0.0868295
0.0686533 -0.152111 0.168824
0.00150561 0.0444554 0.0834454
0.0324786 0.0128918 0.478557
0.00113048 0.134019 0.261736
-0.182293 -0.100496 0.686032
0.00138273 0.0915134 -0.227838
0.00586578 0.00331936 0.0798348
2.96066 -0.795346 1.84015
-0.0026986 0.00140992 0.122896
-0.0659282 -0.140873 0.15946
-0.0298913 0.0127346 0.456746
0.173174 -0.0956059 0.650493
-0.00610483 0.00341707 0.0831365
0.000122997 -5.88984e-07 0.000983149
-3.56276e-07 -0.000830731 0.00726486
0 0 0
-4.03709e-05 0.00100405 0.0132738
-2.292e-05 6.31512e-06 0.00854515
0 0 0
-3.40265e-05 0.0339864 0.0743809
-2.35365e-05 -0.00277755 0.0303535
0 0 0
3.97196e-06 -0.000779486 0.00682668
4.75202e-05 0.00118607 0.0155677
0 0 0
-0.00365783 -0.0227277 0.199821
1.58375e-05 0.000621503 0.00833671
0.00184482 0.000869437 0.0412028
-1.30391e-09 -6.70939e-10 -1.34814e-07
0 0 0
0 0 0
0 0 0
0.000310194 -0.101821 0.0067772
-1.07853e-06 0.00289528 0.0239674
0.000337563 0.00666309 0.0956963
0.00035331 0.00290722 -0.0079292
0.00369837 -0.0233106 0.200837
-1.34463e-05 0.000500999 0.00669269
-0.00157071 0.000742244 0.0358633
-3.38772 -1.49651 19.3565
-3.34303 -4.4028 18.2091
-1.32999 -0.881366 18.0924
1.66207 0.309815 17.4836
0.61952 1.35701 12.0402
1.56292 1.09985 8.16488
-3.80105 0.69649 20.0792
-2.33224 0.809419 17.1497
-2.43453 2.93925 19.9445
0.927208 -0.89467 17.8599
-0.242189 -1.17472 4.00708
-0.0625433 -0.625151 17.2897
3.24564 -4.47147 18.2085
1.33289 -0.885115 18.1062
3.55391 -1.65749 19.206
-0.541667 1.32781 11.7927
-1.61051 1.1069 8.37775
-1.64935 0.305239 17.5388
2.3402 0.741707 17.2822
2.46528 2.80346 19.9685
3.81623 0.707338 20.0628
0.158828 -1.17746 4.53791
0.0770126 -0.593676 16.3157
-0.926946 -0.907127 17.9225
-0.165334 -0.938229 19.8059
0.778989 0.312337 16.881
0.42406 -0.390258 19.2336
0.904918 0.266285 15.8128
-1.85046 -0.954047 21.4578
-3.78615 1.9139 21.1078
-0.318177 -0.743185 20.7954
-0.37467 -0.0879548 19.4248
-0.652415 0.285739 16.7155
0.106355 -0.90389 19.1814
-0.836315 0.25234 15.494
-0.413278 -0.374104 18.9811
3.73101 1.82398 21.1706
1.864 -0.970276 21.4479
0.301208 -0.04705 18.9192
0.309156 -0.736302 20.7637
-0.821605 -0.374792 19.8062
-0.508484 -0.153936 19.7594
-0.446581 -0.234783 19.6174
-1.15779 -0.717706 21.09
-1.57367 -0.649146 20.1305
-1.90441 -1.47165 19.7822
-0.109937 -0.327367 21.4876
-0.596373 -0.534197 21.4339
-0.274527 -0.55822 21.7227
0.471132 -0.0366953 21.5685
0.151488 -0.27584 21.5801
0.391859 -0.104862 21.6024
1.00536 0.176377 21.2502
0.944754 0.00899585 21.4715
1.20375 0.596914 20.8496
1.15912 0.111902 20.6308
1.18647 -0.000539647 21.2595
1.62212 0.779964 20.6941
1.03636 -0.198848 20.8789
1.2294 0.487661 21.2827
-1.0716 -0.275479 19.6661
-0.646523 -0.0492687 19.6389
-0.5968 -0.212023 19.466
-1.41902 -0.627248 21.2054
-1.97224 -0.19569 20.1778
-0.22355 -0.483771 21.5332
-0.917016 -0.515643 21.3832
0.525048 -0.239298 21.6552
-0.0225993 -0.440694 21.6899
1.24172 -0.103543 21.3206
0.918841 -0.477656 21.4605
1.41644 -0.121846 20.452
1.21542 -0.564358 21.2782
1.87516 0.496161 18.1479
1.19337 -0.761338 20.6397
1.54595 0.352695 18.0583
-1.31372 0.141512 19.6995
-0.717306 0.275769 19.7206
-0.83751 0.100762 19.2444
-1.54565 -0.135856 21.0593
-1.46544 0.551627 20.3521
-0.683557 -0.4285 21.5703
-1.19667 0.0490739 21.2401
0.232585 -0.48693 21.6413
-0.337387 -0.277759 21.5831
0.829101 -0.743772 21.3348
0.213761 -0.580903 21.3517
0.762908 -0.505843 21.1694
0.44895 -0.709323 21.1491
1.28759 -1.13178 17.942
0.433028 -0.378277 20.8123
0.958393 -1.22439 18.9051
-0.851012 0.563168 20.0617
-0.634622 0.585074 19.6737
-1.04284 0.508721 20.8052
-1.19407 1.10786 20.2957
-0.651342 0.121393 21.4048
-1.30094 0.786345 21.2335
-0.0978847 -0.261935 21.39
-0.42243 -0.0204758 21.6231
0.156444 -0.459999 21.2104
-0.0513995 -0.444279 21.3579
0.339968 -0.75481 20.6424
0.18044 -0.731962 21.0959
0.116415 -0.478366 20.9858
-0.871909 -0.917621 18.9423
-0.424231 -0.288995 19.3123
0.000817282 -0.403912 19.2211
-1.52408 -1.20474 22.4412
-0.00617629 -4.95921 17.5803
0.407646 0.314115 21.1646
0.0125807 -0.630299 9.02683
0.824655 0.730643 19.8024
-0.0041774 -0.104166 8.67314
1.22909 1.62842 18.9648
0.0270986 0.562469 8.8992
1.25012 1.52659 19.5336
1.90964 1.66693 15.6755
-0.020853 1.41348 10.09
1.66653 0.963477 15.6664
-0.0819843 1.79989 13.2025
-0.590667 -0.0662712 18.8925
0.00300856 -0.348055 18.8573
2.17348 1.05711 12.5553
2.22308 -0.00772814 8.52544
-0.025333 2.03249 5.3069
2.12153 0.560261 12.3302
-0.0913813 1.56762 10.7207
-0.699295 0.62813 18.9912
0.0169403 0.205318 18.2383
0.97853 -1.13974 9.02682
0.297886 -1.30978 18.9259
-0.0950937 1.33694 -5.08717
0.115244 -1.2424 18.6642
-0.0965519 1.42669 -0.735378
-0.909627 1.4634 19.5683
0.047 1.07989 19.1389
-1.35011 1.68176 20.5726
0.0697586 2.43622 19.9592
-1.07866 0.869047 21.9741
0.037268 3.25538 21.0394
-0.272751 -0.229313 21.5141
-0.0222232 0.515151 22.0524
-0.0654204 -0.600794 21.296
-0.0275911 0.0176086 21.5627
-0.084829 -0.69517 20.7549
-0.00537513 -0.473853 20.5372
-0.002777 -0.484801 20.546
0.860128 -0.917422 18.955
0.429267 -0.287337 19.3291
0.441965 -0.237447 19.6142
1.42198 -1.23075 22.4378
1.92071 -1.53325 19.7506
-0.381021 0.276402 21.0501
0.287621 -0.563259 21.7301
-0.780833 0.73267 19.6698
-0.384151 -0.0938855 21.5574
-1.18321 1.615 18.806
-1.19575 0.637511 20.7542
-1.22351 1.44653 19.5941
-1.92249 1.61082 15.5678
-1.59018 0.732674 20.6783
-1.64885 0.924808 16.0681
-1.19935 0.439197 21.2161
0.63742 -0.0776271 18.9588
0.589082 -0.21214 19.4636
-2.13781 0.921916 12.9849
-2.22132 -0.118326 9.31998
-1.80805 0.40323 18.5513
-2.04394 0.480508 12.7655
-1.48695 0.2813 18.5029
0.738129 0.583757 19.0581
0.824174 0.0932049 19.2781
-1.06299 -1.12472 10.0225
-0.294086 -1.30892 18.8844
-1.25731 -1.09914 18.6162
-0.128823 -1.22946 18.6984
-0.924386 -1.27593 19.306
0.950879 1.38774 19.6201
0.632834 0.531746 19.7167
1.37698 1.60477 20.5923
1.18175 1.01955 20.3178
1.07921 0.874236 21.9781
1.28286 0.750044 21.2342
0.2972 -0.205891 21.5572
0.426935 -0.0151218 21.6393
0.0969616 -0.579562 21.3647
0.0675214 -0.444624 21.3712
0.0658806 -0.691358 20.8119
-0.173876 -0.754352 21.1805
-0.110079 -0.495552 20.9437
0.822666 -0.384825 19.7913
0.51284 -0.159572 19.7604
1.18445 -0.764285 21.1056
1.63005 -0.694311 20.0952
0.117299 -0.34335 21.4925
0.597068 -0.554864 21.4479
-0.467794 -0.0429558 21.567
-0.148173 -0.279886 21.585
-0.998079 0.180089 21.2531
-0.937092 0.0110869 21.4697
-1.11716 0.10329 20.69
-1.1561 0.0101655 21.2347
-1.03209 -0.222345 20.8233
1.07957 -0.284847 19.6412
0.642134 -0.0438822 19.655
1.46631 -0.672578 21.2315
2.03513 -0.202642 20.158
0.225827 -0.488503 21.5496
0.92145 -0.535742 21.4046
-0.520082 -0.236268 21.6548
0.0201734 -0.435717 21.6969
-1.20934 -0.103134 21.3332
-0.913331 -0.467502 21.4705
-1.31436 -0.154046 20.5943
-1.20628 -0.564731 21.248
-1.14985 -0.670245 20.8009
1.29316 0.13122 19.7196
0.709075 0.255283 19.7587
1.55962 -0.130474 21.0684
1.43535 0.519137 20.3577
0.682798 -0.426381 21.5768
1.1901 0.0499749 21.2411
-0.236496 -0.482757 21.6441
0.341473 -0.283384 21.5931
-0.817448 -0.722186 21.3409
-0.211236 -0.593036 21.3649
-0.723333 -0.498965 21.1757
-0.451403 -0.710341 21.1504
-0.437056 -0.36534 20.8453
0.807494 0.508907 20.0971
1.02735 0.479675 20.8107
0.653164 0.121986 21.4079
0.102767 -0.265683 21.3997
-0.154229 -0.471096 21.2198
-0.340181 -0.738744 20.6252
-0.956671 -0.351247 19.7416
-1.08457 -0.930393 18.5658
-0.936474 -0.614193 19.4321
-1.34408 -0.524342 19.0891
-0.52452 -0.232937 19.5427
-2.54177 -1.57555 19.5762
-1.289 -0.682087 21.1799
-0.718282 -0.0469918 19.1892
-1.31689 -1.2627 21.6277
-1.91556 -1.50279 22.0927
-0.17956 -0.711426 21.4574
-0.164113 -0.418539 21.5045
1.08645 0.203102 15.8634
0.154591 -0.317318 21.6017
0.19125 -0.701146 19.1434
0.474669 -0.249834 20.8119
0.499689 -0.142222 21.6055
0.843651 0.513717 13.2384
0.738874 0.180663 21.3555
0.817133 -0.104767 18.4842
1.49492 0.523264 19.6252
1.16807 0.078839 21.2542
1.3046 1.61905 14.0908
1.45575 0.752952 20.6655
2.01048 0.328591 18.5418
1.7373 0.671933 19.7287
1.37454 -0.0427666 20.4153
1.70455 1.2793 16.0403
1.39597 0.62211 20.9459
1.8128 -0.0525129 19.5239
1.38162 0.417492 19.9055
-1.2502 -0.105487 19.6322
-1.87348 -0.304177 17.3469
-1.9999 0.330913 18.8651
-0.693652 -0.0621796 19.3063
-4.30922 -0.379965 19.5435
-1.51511 -0.37825 21.1794
-2.37081 -0.334983 21.52
-0.855682 -1.20981 20.8145
-0.448739 -0.51583 21.5452
-1.02748 -0.987363 21.1306
0.190749 -0.556779 19.5005
0.411927 -0.431039 21.6682
0.345288 -0.532457 19.3589
1.51142 -0.389433 16.6426
1.16334 -0.524201 21.2829
1.1859 -0.444052 4.50668
1.11823 -1.08034 18.4351
2.12112 -0.43588 17.9563
1.12927 -0.330848 20.9964
2.25315 0.204106 10.7288
1.21673 -1.07484 18.385
1.65879 -0.12754 16.5297
-1.15889 0.477965 19.8743
-1.60646 1.84539 18.6396
-0.968792 0.944397 19.8494
-0.781034 0.446365 19.4059
-2.16712 1.30336 20.204
-1.37576 0.284735 20.876
-2.54829 1.87467 20.6319
-1.32866 0.981603 20.733
-2.08737 0.346802 21.3768
-0.808976 -0.133769 21.5356
-2.23622 0.23496 21.2706
-0.881127 0.373879 21.6329
-0.542338 -0.287142 21.8713
0.00102825 -0.441206 21.4983
0.0931729 -0.435423 17.7156
-0.17178 -0.286441 21.4803
0.0389456 -0.815724 21.4196
0.344825 -0.694911 21.2034
0.0803437 -0.889806 17.6799
0.0886978 -0.614059 21.1912
0.450458 -1.07148 20.8058
0.416829 -0.660562 21.0108
0.337818 -1.18009 19.3541
0.0928206 -0.563958 21.1446
0.29606 -0.876152 19.6912
1.0758 -0.930925 18.5748
-0.00231565 -1.28089 18.3744
-0.00184117 -1.1627 17.1511
-0.00435711 -0.400205 19.0423
-0.00738535 -6.67237 15.6303
0.782194 -0.129116 19.3621
0.0161543 -3.74834 19.4167
-0.00231868 -0.0891684 -0.510384
-0.992129 0.18664 15.586
-0.00624027 -0.189047 7.38091
0.00915638 -0.0509571 3.83986
-0.820173 0.516475 13.0061
0.0240186 0.205446 8.53756
0.0105121 0.46245 4.58741
-1.29397 1.59227 14.0268
0.0055788 0.999541 9.73106
0.0105129 0.363633 1.94086
-0.0194896 1.86152 7.90227
-1.68024 1.18033 16.0924
-0.04886 2.06039 12.1541
-0.0756826 1.74221 6.28112
-0.0866828 1.68376 11.9616
1.89436 -0.314872 17.4101
0.0370766 1.45252 15.0595
0.0373201 -0.127386 18.5396
-1.21469 -0.482263 4.78882
-0.00272489 1.16796 -4.74518
-0.0940793 0.901313 -1.72987
-2.19644 0.05798 11.5061
-0.0881008 1.52012 -2.06132
-0.0818067 1.35668 6.03969
1.65444 1.70857 18.7458
0.0627093 1.97801 19.2896
0.0544737 0.87643 18.5618
0.0570403 4.58771 19.6831
2.55992 1.77212 20.6617
0.0359349 2.58759 20.2576
0.037574 5.48438 18.6901
2.23949 0.231379 21.2261
-0.00462617 1.91141 22.5373
-0.00136437 -0.065948 11.0954
-0.109144 -0.417405 17.4048
-0.0256554 0.150055 21.8074
-0.00719298 0.378388 3.14549
-0.0693069 -0.880092 17.3599
-0.0128417 -0.256813 21.4902
0.00254027 -0.734719 7.16287
-0.339765 -1.17667 19.348
-0.00778092 -0.237328 19.2803
-0.00511333 -0.336229 11.2318
0.963647 -0.362336 19.7156
0.938675 -0.630707 19.4227
1.34953 -0.532005 19.0759
0.515639 -0.236465 19.5341
2.59049 -1.69092 19.514
1.32767 -0.735923 21.2051
1.31939 -1.30421 21.6479
1.93535 -1.60695 22.1068
0.175697 -0.693575 21.3643
0.168903 -0.431705 21.5158
-0.144213 -0.314108 21.578
-0.201594 -0.67411 18.669
-0.461158 -0.235287 20.6536
-0.496115 -0.143328 21.6078
-0.730921 0.203264 21.2982
-0.810349 -0.097254 18.3652
-1.48542 0.547008 19.4538
-1.15086 0.0764116 21.2577
-1.44383 0.756802 20.632
-1.9718 0.286422 18.8152
-1.68841 0.600238 20.0107
-1.29028 -0.0636523 20.5399
-1.3917 0.572937 20.8467
-1.83124 -0.0758328 19.5889
-1.33427 0.355963 20.2887
1.25143 -0.10305 19.6299
1.96131 0.312238 18.9266
0.701837 -0.0600114 19.3348
4.48076 -0.395092 19.4354
1.55664 -0.397461 21.2052
2.37677 -0.338792 21.5236
0.824447 -1.22951 20.5085
0.444878 -0.522624 21.5722
1.01589 -0.991978 21.0961
-0.194444 -0.545189 19.4215
-0.414175 -0.425449 21.6738
-0.349258 -0.533488 19.3799
-1.51197 -0.392713 16.7179
-1.135 -0.507538 21.3034
-1.12106 -1.07575 18.705
-2.04302 -0.422787 18.5516
-1.08724 -0.334863 21.0273
-1.19699 -1.05735 19.0365
-1.60358 -0.19405 16.9519
1.12285 0.436495 19.9045
0.967952 0.863771 19.8881
0.777683 0.415106 19.4549
2.11321 1.20051 20.2205
1.36022 0.280139 20.8777
1.30129 0.9134 20.7456
2.06289 0.336442 21.3791
0.811252 -0.134431 21.5407
0.883237 0.377042 21.6359
0.547701 -0.291917 21.8865
0.00444418 -0.446706 21.5054
0.178736 -0.284531 21.4924
-0.0214353 -0.833172 21.4067
-0.345867 -0.69996 21.2108
-0.0749092 -0.627185 21.2012
-0.450337 -1.07624 20.7748
-0.413976 -0.657849 21.011
-0.0750749 -0.564288 21.1893
-0.307298 -0.868267 19.7209
-1.17328 -0.617552 19.2472
-1.49265 -1.43714 21.9127
0.23095 -0.49525 20.9165
0.859111 0.0415352 20.1808
1.76753 0.607156 19.79
1.58857 0.344442 20.1845
-1.74899 -0.178137 18.8347
-2.19869 -0.790668 22.1411
-0.216507 -1.01226 20.0475
0.661356 -0.306947 18.4617
1.8313 -0.513283 17.5737
1.82088 -0.642224 18.9399
-1.51625 0.948528 19.4045
-2.05004 0.716785 20.8834
-1.35155 -0.0351416 21.9122
-0.129902 -0.570922 21.6694
0.274849 -0.948737 21.1998
0.392098 -0.964654 21.0414
-0.0148474 -1.34248 17.7525
0.0271304 -0.649666 2.94976
0.00175679 -0.102074 1.32328
0.0183459 0.227019 4.308
0.00311404 0.715483 5.7175
-0.0666187 1.57442 8.8369
0.0258369 -0.562412 15.4886
-0.00015492 0.396161 -2.20131
-0.0789823 2.31223 2.92149
0.0658037 2.87117 17.8067
0.0454202 3.55825 20.0322
0.00483512 1.18363 12.7643
-0.0156487 0.0912911 6.50745
-0.021123 0.541006 3.26525
0.00231619 -0.217769 7.999
1.17427 -0.631996 19.2328
1.50662 -1.49982 21.9633
-0.226058 -0.47995 20.7511
-0.851041 0.0605079 20.028
-1.75189 0.583938 19.8604
-1.60353 0.328888 20.2202
1.74292 -0.182768 18.8585
2.19475 -0.811095 22.0395
0.201558 -1.0008 19.8467
-0.662851 -0.304322 18.4524
-1.80716 -0.523867 17.8602
-1.78991 -0.633506 19.6231
1.48808 0.886054 19.4643
2.01209 0.683145 20.8866
1.35337 -0.0374508 21.9172
0.135419 -0.581432 21.6582
-0.27291 -0.963226 21.1935
-0.39442 -0.961726 21.0535
-1.26347 -0.176952 0.508126
-1.19674 -8.84514 11.5789
-0.0235884 0.000943836 0.295976
0.109688 -0.0393889 0.163925
-0.036321 0.0662765 0.182979
-0.018346 0.0243515 0.336409
-1.23135 0.167078 1.49529
-0.0212062 0.158371 0.288428
-0.133258 0.0278602 0.486052
0.0164809 -0.0791948 0.0471621
-0.153892 -0.00203139 -0.0396843
-0.0109552 -0.0163835 0.0737444
0.575644 -9.72582 12.18
0 0 0
0.0497963 0.00244036 0.267652
0.0366177 0.0671392 0.184608
-0.109842 -0.037397 0.164495
0.0220923 0.0239976 0.377756
0.023013 0.151347 0.270649
0.973555 0.164367 1.1126
0.114756 0.0248082 0.418916
0.15235 -0.00258011 -0.0376951
-0.0173907 -0.0797979 0.0479605
0.0117712 -0.0176292 0.0796131
0.0139173 -0.00188635 0.115173
0.00201491 0.000114781 0.0117714
0 0 0
0 0 0
0.02107 0.00918819 0.35445
0.00199203 -4.10889e-05 0.0260385
1.68302e-05 0.00102111 0.0763316
0 0 0
-0.267647 -0.197957 0.614434
-0.0033712 -0.0162051 0.117588
0 0 0
-0.0328685 0.0230533 0.0548595
0 0 0
0.00142773 0.00961613 0.0741058
0 0 0
0.0319147 -0.022711 0.215202
-0.021861 2.5967e-05 0.15349
0 0 0
0 0 0
0 0 0
-0.0149084 0.00694262 0.259598
0 0 0
-0.00018353 -2.97945e-06 0.00186795
-5.77708e-05 0.000744028 0.0656807
0.274322 -0.203679 0.631957
0.0310779 0.0221144 0.0529007
0.0035965 -0.0169466 0.121774
0 0 0
0 0 0
-0.0315871 -0.0221117 0.210473
-0.00144146 0.00968496 0.07456
0 0 0
-0.0526135 -0.0189105 0.216171
0 0 0
5.65218e-07 -1.50758e-05 7.00819e-05
0 0 0
-0.00223897 -0.00824104 0.0803645
-1.48254e-05 1.89866e-06 -3.13733e-06
0.00544926 -0.0011232 0.0425352
-0.0275864 -0.037713 0.00538136
0.000674718 0.00141022 0.0505298
0.000143181 -0.0393984 -0.0112168
2.55031e-18 2.22403e-18 7.42723e-17
1.212e-05 1.7794e-05 0.000230228
6.86582e-05 0.224192 0.212747
0.000473138 0.0116072 0.0563811
-6.53455e-05 -0.000255757 0.00224896
0 0 0
2.20406e-05 -0.00196613 -9.86927e-05
1.04869e-05 0.000182658 -0.00126293
0.0038433 0.00196311 0.105413
0 0 0
0 0 0
0.0587957 -0.0227555 0.23911
0 0 0
0.00227498 -0.00825541 0.0795994
0.0268965 -0.0365057 0.00507622
-0.00544917 -0.00109987 0.0426379
-7.15623e-06 1.17431e-05 0.00015218
0 0 0
0.000636881 0.000266012 0.00224617
5.352e-05 -0.000213153 0.00185435
0.00319958 0.00107514 -0.00415372
-0.00373627 0.00193287 0.102605
-4.79611e-05 0.000295938 0.035413
0.000575627 -1.10074e-06 0.00194225
0 0 0
5.1752e-05 5.32365e-05 0.0273277
-1.08979e-07 2.20569e-08 5.21593e-06
-3.61467e-07 8.78021e-08 2.66707e-06
-1.39934e-05 0.00172644 0.0196381
0 0 0
1.17841e-08 -4.9601e-09 -9.57796e-07
0 0 0
0.00124729 0.0129646 0.0937028
-0.0495263 0.0691149 1.35578
0 0 0
-1.80042e-05 0.0122304 0.0310617
-4.30932e-05 1.73179e-05 0.00433528
-6.10504e-06 0.000502857 -0.000390232
-0.000655468 -6.26605e-07 0.00237194
4.83501e-05 0.000323113 0.0372336
0 0 0
-3.49225e-05 0.000124075 0.0256491
1.39366e-05 0.00174499 0.0198096
0 0 0
0.0488556 0.0705345 1.36256
-0.00123802 0.0125052 0.089699
-0.0569431 -0.0283506 0.204993
-0.0344318 -0.0137879 0.144582
-0.00196731 -0.0260875 0.230212
0 0 0
0.000117806 -0.000497582 0.0116913
-1.65991e-06 0.00053178 0.012115
-0.000184678 0.000985546 0.0422318
0.00442845 0.0335502 0.196605
0 0 0
0.00129648 0.006864 0.0641731
0.015171 0.00180912 0.122638
0.00727493 -0.00708027 0.0653354
0 0 0