# vtk DataFile Version 2.0
tri_press
ASCII
DATASET UNSTRUCTURED_GRID
POINTS 3682 float
-0.670521 0.145 -2.235
-0.685811 0.265 2.195
-0.739704 0.595 -2.005
-0.710505 0.805 2.195
0.645508 0.145 -2.235
0.685718 0.265 2.195
0.741805 0.595 -2.005
0.710731 0.805 2.195
-0.715914 0.144704 -0.758333
-0.754363 0.151351 0.718333
-0.82954 0.764569 -0.605
-0.823869 0.838631 0.795
0.699825 0.144087 -0.758333
0.746023 0.151291 0.718333
0.830068 0.763621 -0.605
0.824262 0.838173 0.795
-1.43579 -0.206561 -3.45708
-1.43513 -0.151125 -2.30645
-1.47181 -0.147274 -0.8278
-1.49431 -0.144456 0.666279
-1.45465 -0.0705149 2.14623
-1.44133 -0.0206422 3.30322
-1.44551 0.0162615 4.44843
-1.43193 0.0644273 -3.36964
-1.43699 0.138452 -2.22739
-1.48846 0.162089 -0.763654
-1.50683 0.165106 0.706978
-1.43704 0.229569 2.17218
-1.42866 0.277554 3.32809
-1.43947 0.315029 4.4758
-1.45837 0.576522 -3.17324
-1.49741 0.648767 -2.02782
-1.57313 0.773205 -0.616356
-1.56655 0.822397 0.789679
-1.46823 0.815464 2.20261
-1.44715 0.860819 3.3617
-1.4514 0.908258 4.52177
-1.48275 1.44812 -2.9363
-1.50837 1.53327 -1.80236
-1.54868 1.6635 -0.415748
-1.56623 1.75069 0.954337
-1.54549 1.77855 2.34175
-1.51942 1.79898 3.47736
-1.50164 1.83163 4.62906
-0.703821 -0.203845 -3.46202
-0.695073 -0.145728 -2.31366
-0.720461 -0.156101 -0.826832
-0.749532 -0.153435 0.675971
-0.723442 -0.0528206 2.16317
-0.709689 -0.00871487 3.31472
-0.710807 0.0215971 4.45508
-0.692821 0.0611261 -3.37116
-0.69447 0.289662 3.33757
-0.704007 0.319653 4.48082
-0.707317 0.553338 -3.16376
-0.706951 0.859463 3.36017
-0.712028 0.907952 4.52144
-0.720092 1.43264 -2.92692
-0.736272 1.5189 -1.79203
-0.770697 1.66073 -0.409523
-0.79709 1.75508 0.95359
-0.79129 1.77888 2.33641
-0.770326 1.79694 3.47203
-0.754179 1.82969 4.62519
0.705725 -0.204066 -3.46202
0.679799 -0.14594 -2.31366
0.713275 -0.156581 -0.826832
0.732837 -0.1536 0.675971
0.697991 -0.0528807 2.16317
0.722943 -0.0088042 3.31472
0.742635 0.0214611 4.45509
0.712505 0.0609663 -3.37116
0.726898 0.2896 3.33757
0.74657 0.319529 4.48082
0.754749 0.553166 -3.16376
0.734665 0.859387 3.36017
0.748672 0.907817 4.52144
0.796099 1.43226 -2.92692
0.802316 1.51845 -1.79203
0.79714 1.66021 -0.409523
0.764634 1.75465 0.95359
0.731868 1.77859 2.33641
0.73093 1.7967 3.47203
0.739286 1.82946 4.62519
1.42685 -0.207116 -3.45708
1.4078 -0.151755 -2.30645
1.45152 -0.148171 -0.8278
1.47945 -0.144931 0.666279
1.44444 -0.0707349 2.14623
1.4545 -0.0208797 3.30322
1.47435 0.0159563 4.44843
1.43279 0.0639373 -3.36964
1.40577 0.13789 -2.22739
1.46479 0.161047 -0.763654
1.49923 0.164638 0.706978
1.44285 0.229421 2.17218
1.45548 0.277359 3.32809
1.47705 0.314745 4.4758
1.48549 0.576 -3.17324
1.49118 0.648136 -2.02782
1.56465 0.771911 -0.616356
1.5642 0.821641 0.789679
1.47252 0.815233 2.20261
1.46921 0.860587 3.3617
1.48347 0.907949 4.52177
1.54861 1.44733 -2.9363
1.5612 1.53237 -1.80236
1.5679 1.6625 -0.415749
1.54043 1.74986 0.954337
1.49916 1.77796 2.34175
1.48695 1.79849 3.47736
1.48888 1.83116 4.62906
-0.704347 0.37 -2.11923
-0.0125065 0.152663 -2.22734
-0.698681 0.139388 -1.49667
-0.734794 0.535 2.23164
-4.64916e-05 0.253566 2.20643
-0.751435 0.176827 1.45667
0.0010505 0.652297 -2.0623
-0.829336 0.724499 -1.305
0.00011301 0.843489 2.23349
-0.799505 0.854134 1.495
0.694411 0.37 -2.12075
0.677865 0.139345 -1.49667
0.734214 0.535 2.23099
0.747295 0.176722 1.45667
0.830266 0.72364 -1.305
0.799826 0.853916 1.495
-0.733324 0.149842 -0.02
-0.894086 0.454637 -0.681667
-0.00804452 0.145724 -0.758333
-0.898114 0.494991 0.756667
-0.00416978 0.148362 0.718333
-0.826165 0.80106 0.0949999
0.00026389 1.0039 -0.605
0.000196403 1.2505 0.795
0.720261 0.150352 -0.02
0.894041 0.453854 -0.681667
0.898115 0.494732 0.756667
0.826589 0.800321 0.0949999
-0.888293 0.412318 -1.40083
0.888298 0.411927 -1.40083
-0.0102755 0.138389 -1.49667
0.000657196 0.818051 -1.305
-0.00572801 0.37 -1.98518
-0.895314 0.474814 0.0375
0.89521 0.474293 0.0375
-0.00610715 0.147121 -0.02
0.000230146 1.28512 0.0949999
-0.885328 0.514996 1.47583
0.884973 0.514866 1.47583
-0.00210814 0.198173 1.45667
0.000154707 1.03649 1.495
3.32594e-05 0.535 2.33527
-0.628871 0.2575 -2.11855
-0.341514 0.141015 -2.23899
-0.683352 0.143443 -1.86583
-0.728107 0.4 2.23112
-0.342929 0.253549 2.20645
-0.724759 0.214778 1.82583
-0.745786 0.4825 -2.08588
-0.369327 0.63953 -2.04953
-0.809696 0.684925 -1.655
-0.709966 0.67 2.20063
-0.355196 0.83932 2.22932
-0.769265 0.843827 1.845
0.316501 0.141068 -2.23893
0.588383 0.2575 -2.0963
0.66046 0.143398 -1.86583
0.342836 0.253583 2.20642
0.72793 0.4 2.23096
0.720291 0.217076 1.82583
0.371428 0.639424 -2.04942
0.742867 0.4825 -2.08764
0.810544 0.683828 -1.655
0.355422 0.839257 2.22926
0.710169 0.67 2.20069
0.76981 0.843989 1.845
-0.710356 0.138987 -1.1275
-0.724261 0.147631 -0.389167
-0.871998 0.266171 -0.72
-0.362423 0.144326 -0.758333
-0.748922 0.168066 1.0875
-0.744439 0.150002 0.349167
-0.880728 0.295926 0.7375
-0.379163 0.150064 0.718333
-0.831279 0.746375 -0.955
-0.889429 0.623411 -0.643334
-0.828094 0.783057 -0.255
-0.460725 0.976411 -0.605
-0.818045 0.85274 1.145
-0.890806 0.681718 0.775833
-0.82466 0.819489 0.445
-0.499832 1.22056 0.795
0.691621 0.138939 -1.1275
0.3462 0.144285 -0.758333
0.707632 0.14963 -0.389167
0.870735 0.262069 -0.72
0.742597 0.168069 1.0875
0.370805 0.150071 0.718333
0.733982 0.149982 0.349167
0.880171 0.293961 0.7375
0.831948 0.745411 -0.955
0.461156 0.975743 -0.605
0.889538 0.622479 -0.643334
0.828576 0.782219 -0.255
0.818503 0.852504 1.145
0.50019 1.22026 0.795
0.89084 0.681278 0.775833
0.825098 0.818919 0.445
-0.867048 0.391159 -1.76003
-0.355038 0.37 -1.98451
-0.011391 0.143688 -1.862
-0.00911726 0.261332 -1.98496
-0.888889 0.275853 -1.44875
-0.354478 0.13832 -1.49667
-0.856062 0.524998 1.85373
-0.367381 0.535 2.32374
-0.00107731 0.215957 1.83155
-6.61612e-06 0.394283 2.31691
-0.873227 0.345911 1.46625
-0.376772 0.197746 1.45667
0.000853849 0.764 -1.68365
-0.00233875 0.511148 -2.22198
-0.88647 0.568409 -1.35292
-0.41434 0.801087 -1.305
0.000133858 0.915365 1.86424
7.31349e-05 0.689244 2.26863
-0.884262 0.684565 1.48542
-0.399675 1.00957 1.495
0.867178 0.390963 -1.76079
0.344341 0.37 -1.99741
0.888916 0.275636 -1.44875
0.333795 0.138309 -1.49667
0.856139 0.524933 1.85341
0.367124 0.535 2.32378
0.873158 0.345794 1.46625
0.372593 0.197744 1.45667
0.88647 0.567783 -1.35292
0.415461 0.801035 -1.305
0.884279 0.684391 1.48542
0.39999 1.00976 1.495
-0.876462 0.281257 0.00874999
-0.370721 0.146472 -0.02
-0.887954 0.433477 -1.04125
-0.894817 0.464725 -0.322083
-0.00916002 0.137744 -1.1275
-0.00707584 0.146425 -0.389167
-0.896344 0.484902 0.397083
-0.891969 0.504993 1.11625
-0.00513846 0.148042 0.349167
-0.00313896 0.167059 1.0875
-0.889461 0.652298 0.0662499
-0.511697 1.24055 0.0949999
0.000460543 0.854622 -0.955
0.000247018 1.17087 -0.255
0.000213274 1.27315 0.445
0.000175555 1.15921 1.145
0.87561 0.278385 0.00874999
0.358219 0.146452 -0.02
0.887971 0.43289 -1.04125
0.894807 0.464073 -0.322083
0.896332 0.484512 0.397083
0.891681 0.504799 1.11625
0.88955 0.651632 0.0662499
0.512325 1.24055 0.0949999
-0.847528 0.266677 -1.81293
-0.888764 0.287762 -1.08438
-0.886504 0.589006 -0.998125
-0.869877 0.525454 -1.70752
0.847227 0.266568 -1.81331
0.870946 0.525142 -1.7079
0.88653 0.58826 -0.998125
0.888771 0.287303 -1.08438
-0.347996 0.143632 -1.86392
0.325148 0.143632 -1.86392
0.339842 0.137739 -1.1275
-0.358229 0.137735 -1.1275
-0.391833 0.749566 -1.66932
-0.414489 0.844905 -0.955
0.415314 0.844845 -0.955
0.393445 0.74948 -1.66932
-0.348276 0.259416 -1.98426
-0.362182 0.496824 -2.20497
0.357885 0.496824 -2.20533
0.330421 0.259416 -1.9853
-0.873941 0.273859 -0.355625
-0.87878 0.288499 0.373125
-0.890288 0.667085 0.421042
-0.889403 0.637833 -0.288542
0.872922 0.270352 -0.355625
0.889522 0.637044 -0.288542
0.890343 0.666529 0.421042
0.878126 0.286055 0.373125
-0.36657 0.145402 -0.389167
0.352206 0.145375 -0.389167
0.364671 0.147943 0.349167
-0.3751 0.147951 0.349167
-0.506213 1.14848 -0.255
-0.513329 1.24568 0.445
0.513756 1.2454 0.445
0.506676 1.14802 -0.255
-0.880732 0.334541 1.10188
-0.854164 0.372956 1.83978
-0.852695 0.677282 1.84937
-0.892173 0.675688 1.13063
0.880741 0.334403 1.10188
0.891917 0.675422 1.13063
0.852336 0.677196 1.84921
0.854271 0.372897 1.83962
-0.378019 0.166979 1.0875
0.37176 0.166977 1.0875
0.357714 0.225723 1.82869
-0.35985 0.225106 1.82869
-0.405756 1.12913 1.145
-0.377436 0.909689 1.85462
0.377706 0.909745 1.85462
0.40611 1.12905 1.145
-0.355155 0.397141 2.31135
0.35498 0.397141 2.31137
0.361273 0.679622 2.26644
-0.361288 0.679622 2.26644
-0.604566 0.20125 -2.13165
-0.506017 0.142241 -2.23776
-0.677245 0.143914 -2.05042
-0.705058 0.3325 2.21116
-0.51437 0.253541 2.20646
-0.719382 0.225792 2.01042
-0.740574 0.53875 -2.04327
-0.554515 0.618746 -2.02875
-0.778325 0.643588 -1.83
-0.707016 0.7375 2.1946
-0.532851 0.832544 2.22254
-0.748297 0.832825 2.02
0.481004 0.142294 -2.23771
0.591664 0.20125 -2.14037
0.653224 0.14396 -2.05042
0.514277 0.253591 2.20641
0.704994 0.3325 2.21115
0.71545 0.228592 2.01042
0.556616 0.618511 -2.02851
0.741064 0.53875 -2.04505
0.779251 0.642491 -1.83
0.533077 0.832535 2.22253
0.707203 0.7375 2.1946
0.748551 0.832775 2.02
-0.716206 0.138775 -0.942917
-0.722037 0.144218 -0.57375
-0.853877 0.175477 -0.739167
-0.539009 0.144834 -0.758333
-0.74503 0.166322 0.902917
-0.749942 0.150135 0.53375
-0.857534 0.203645 0.727917
-0.564898 0.154437 0.718333
-0.82948 0.754542 -0.78
-0.866065 0.69728 -0.624167
-0.828957 0.773953 -0.43
-0.676643 0.93351 -0.605
-0.822947 0.847676 0.97
-0.872473 0.767742 0.785417
-0.824445 0.829241 0.62
-0.680607 1.06711 0.795
0.699166 0.13807 -0.942917
0.522711 0.144789 -0.758333
0.701231 0.149356 -0.57375
0.852111 0.169662 -0.739167
0.736639 0.167351 0.902917
0.559209 0.149092 0.718333
0.740522 0.150117 0.53375
0.857188 0.20058 0.727917
0.830016 0.753524 -0.78
0.677345 0.933147 -0.605
0.866639 0.696468 -0.624167
0.829469 0.773067 -0.43
0.82333 0.847285 0.97
0.680945 1.06665 0.795
0.872647 0.767274 0.785417
[...]
POINT_DATA 3682
SCALARS point_scalars float 1
LOOKUP_TABLE default
-44.5151
-47.0581
-31.9665
-40.5032
-65.4147
-47.0836
-31.9791
-40.5305
-43.5672
-40.3619
-50.27
-46.64
-43.7889
-40.4955
-50.1705
-46.6373
-44.5151
-92.2611
-48.7268
-39.0201
-47.9507
-42.3845
-39.0919
60.1038
-82.1562
-42.0567
-39.2052
-47.3039
-40.9229
-39.0919
44.2326
-61.6611
-43.8028
-43.0518
-44.4487
-39.0995
-38.4882
-24.4504
-52.4691
-88.8297
-51.3956
-39.1233
-38.6404
-38.6404
87.2045
-44.5151
-47.8279
-39.7844
-46.4145
-39.3657
-38.4829
87.2045
-38.4681
-38.2283
176.886
-37.6365
-37.7518
63.6304
-44.4742
-85.5394
-56.1601
-34.9519
-36.1857
-36.5472
77.2394
-65.4147
-47.0432
-39.8762
-46.0425
-38.9924
-38.5696
77.2394
-38.4966
-38.1244
174.566
-37.6654
-37.958
27.7673
-45.7929
-86.7083
-56.2462
-34.943
-36.2507
-36.5995
-65.4147
-99.7918
-48.7107
-39.4849
-47.9771
-42.4226
-39.1186
-65.4147
-108.786
-43.5355
-39.2555
-47.2681
-40.9505
-39.1186
48.507
-63.8515
-43.8926
-43.0349
-44.4594
-39.5895
-38.5173
-29.5378
-50.1279
-90.8855
-51.4132
-39.1482
-38.6768
-38.6768
64.9769
-9.76006
-64.5161
-40.3558
-41.3151
-41.7475
-18.1253
-45.213
-29.6083
-40.7195
72.9694
-64.2123
-40.3974
-41.8903
-45.2418
-40.694
-37.3319
-40.5606
-53.8734
-40.7227
-39.4724
-52.148
19.176
-58.2281
-37.4526
-40.522
-40.6935
-51.988
-58.4244
-58.4104
-82.0851
-14.8226
157.03
-40.6998
-40.6931
-40.8608
-116.038
-43.3813
-43.3206
-40.3224
-34.8865
-35.0074
112.019
30.4584
-85.0073
-42.529
-43.6521
-42.143
3.86878
-12.1775
-51.1566
-39.325
-32.8448
-37.9146
28.4246
125.886
-86.2904
-43.7586
-42.5583
-41.9414
-12.339
5.97825
-50.6405
-32.928
-39.3687
-37.9631
-51.0979
-39.5254
-40.0377
-52.3976
-38.9981
-37.4488
-39.3639
-39.5031
-36.7843
-43.0158
-55.2198
11.5826
-45.1943
-42.7761
-48.5004
-58.5888
-51.0575
-52.3859
-39.3541
-40.0036
-39.0776
-39.5304
-37.5088
-39.4038
-36.6517
11.6194
-43.0355
-55.2321
-45.1736
-58.5425
-42.7531
-48.4407
-71.5299
160.617
-118.257
161.132
-61.926
-81.2447
-47.5562
-37.3582
-40.0542
-38.4024
-42.9182
-41.0063
-35.9305
149.947
-55.2723
-20.2215
-31.6411
-32.4578
-42.5114
-35.7502
-71.5985
158.112
-61.9348
-81.2432
-47.5448
-37.3886
-42.859
-41.0246
-55.2002
-20.2582
-42.5074
-35.7303
-37.8624
-39.9309
-43.0309
-40.9139
-65.8136
-45.9439
-40.1293
-40.8636
-38.8625
-40.8593
-45.0908
-89.9406
8.99829
-35.8589
-75.2748
-42.391
-37.8958
-39.9394
-42.9275
-40.9462
-40.1025
-40.9296
-45.0515
-89.9251
-71.3547
-45.2506
-41.0526
-67.7747
-73.3943
-67.2032
-41.0174
-45.2545
-115.394
-116.158
-64.292
-64.2501
-39.2534
-0.679214
-0.243328
-39.2422
156.564
154.752
151.548
154.482
-38.1415
-38.0684
-43.1932
-46.0695
-38.1418
-46.2394
-43.1296
-38.0385
-44.5324
-44.5177
-38.4399
-38.4052
-50.5043
-68.4706
-68.387
-50.0794
-40.0881
-48.2118
-45.5557
-41.9625
-40.2124
-41.9492
-45.5493
-48.2035
-41.6331
-41.7761
-39.8877
-39.996
-43.3809
-32.5005
-32.5402
-43.3763
-38.8464
-38.8642
-36.2273
-36.1857
76.7933
87.2045
-123.96
-43.6361
-45.6273
-44.7893
-3.4649
-12.5093
-42.6979
-40.0481
-35.3428
-38.5881
77.2394
86.1126
-123.588
-45.6831
-43.6634
-44.4665
-12.4119
-2.44241
-43.3389
-35.4068
-40.0855
-38.6218
-49.4271
-42.1574
-42.9537
-48.659
-42.0382
-38.3006
-40.2009
-39.9497
-41.5714
-45.3013
-53.7946
-28.7064
-46.1504
-44.561
-47.8332
-53.2297
-49.5061
-48.587
-42.0038
-43.4918
-41.958
-40.033
-38.4177
-40.7722
-40.5909
-27.2318
-45.3052
-55.2163
-46.1171
-53.1744
-44.5375
-47.8249
95.0421
17.9479
-72.8954
156.087
-12.0828
-14.6934
-9.76006
130.074
-72.7515
-56.7274
-63.7655
-74.1981
-41.4891
-39.243
-45.3937
-37.7347
-41.9319
-41.9906
-40.9397
-39.3881
-47.9132
-40.1163
-42.3814
-42.116
-12.3218
-12.5839
-42.4225
69.0174
-50.8083
-39.3351
-54.6169
-27.5032
-30.8217
-30.8945
-31.3904
-29.6721
-38.7581
-43.1835
-41.5077
-37.5649
127.141
29.6691
-79.1898
152.259
-72.8778
-56.5082
-63.7405
-73.8432
-41.5072
-39.2503
-45.404
-37.7636
-47.4525
-40.1825
-42.4783
-41.9678
-50.7852
-39.2619
-54.709
-27.5101
-38.7439
-43.1777
-41.5182
-37.5411
-38.0569
-37.2713
-36.1935
-38.4739
-40.1532
-41.3441
-41.3103
-40.4481
-53.6433
-53.6706
-59.2693
-49.4709
-39.9856
-41.6334
-40.1898
-41.2258
-39.4577
-39.4865
-38.893
-40.5526
-54.1092
-50.1323
-48.8292
-66.2207
18.3851
18.477
21.1947
-3.51564
-58.5668
-58.5421
-66.5008
-49.661
-37.8744
-37.2076
-36.2309
-38.4406
-40.0498
-41.3309
-41.1954
-40.5336
-39.9324
-41.6138
-40.1704
-41.3372
-53.9738
-50.0285
-48.7341
-66.1484
-75.4955
-60.3151
-56.6874
-48.7035
-75.7803
-60.3163
-56.6499
-48.6512
-94.7202
-82.167
-82.2441
-73.3992
-26.1542
-16.4531
-16.4999
-3.05379
158.718
158.808
207.698
157.882
-39.106
-40.8948
-40.3446
-42.5216
-39.1327
-41.0177
-40.3168
-42.5062
-40.672
-43.0196
-39.5229
-40.6796
-105.519
-74.7833
-91.0432
-105.506
-45.1205
-43.2881
-43.1467
-41.7056
-45.1155
-43.2478
-43.0985
-41.6842
-39.9903
-40.4634
-40.4806
-40.6342
-32.5027
-35.097
-35.1009
-37.8654
-35.9392
-37.2383
-32.9579
-35.966
-91.2804
181.393
-51.329
87.1696
-70.7724
-95.8461
-46.683
-38.9351
-42.2998
-40.4868
-47.678
-40.9171
-61.525
122.823
-41.5547
58.2503
-58.4651
-43.6568
-44.9198
-37.459
-31.8716
-34.7582
-43.5446
-33.7035
-56.1028
30.2166
-103.87
178.29
-72.0169
-95.141
-42.3281
-40.5513
-46.6176
-38.9063
-47.6897
-40.2119
-41.4862
53.9234
-63.0692
124.733
-57.7873
-43.5549
-31.936
-34.7984
-44.9422
-37.4855
-43.5604
-33.7483
-45.8953
-59.2582
-38.1866
-41.8642
-45.1025
-38.2352
-57.8266
-48.2811
-39.6294
-40.9018
-36.2992
-37.9179
-38.5397
-40.4432
-38.5838
-41.5643
-40.0581
-13.0542
-40.847
-45.1595
-50.2202
-83.4027
10.81
-10.7184
-43.1104
-46.3045
-42.925
-42.0565
-45.1203
-56.4614
-63.4184
-50.9027
-45.9364
-59.0311
-57.8635
-48.3051
-38.6356
-41.8556
-44.9179
-38.2209
-39.7893
-41.2766
-38.637
-41.783
-35.8889
-37.9766
-38.565
-40.5852
-39.8827
-12.9017
10.5764
-10.7388
-40.6438
-45.3985
-50.4226
-83.7982
-43.0647
-46.2957
-63.3719
-50.884
-42.8897
-42.0524
-45.0539
-56.4219
-72.1398
-69.1533
160.804
198.75
-118.375
-118.838
162.001
160.485
-80.1203
-51.2233
-93.7153
-72.1152
-48.1052
-46.6504
-38.1733
-36.1196
-39.8946
-39.8821
-38.5795
-38.5775
-41.0273
-45.2555
-41.2693
-40.4656
-37.1425
-37.1588
153.701
154.395
-46.0962
-70.8009
-30.0053
-10.0735
-31.871
-31.8997
-33.8975
-33.8533
-44.3475
-41.7435
-38.7859
-33.6829
-73.4591
-68.0894
199.141
157.959
-80.5167
-51.1776
-94.0136
-72.1104
-46.6425
-48.0921
-38.1862
-36.1537
-40.9724
-45.1816
-41.3207
-40.5254
-70.6119
-46.0427
-9.97007
-29.983
-41.715
-44.3721
-33.7748
-38.7868
-38.0057
-37.8753
-41.8245
-38.7892
-44.331
-41.7829
-39.1906
-42.9631
-65.5011
-65.5482
-45.6606
-45.6806
-38.9894
-41.3916
-40.388
-41.2712
-38.7767
-38.7634
-41.1078
-41.1631
-44.1378
-45.8487
-94.104
-77.012
7.04521
6.7945
-38.2136
-37.9734
-74.9743
-74.9132
-42.7487
-42.7314
-38.1068
-37.8332
-41.824
-38.7513
-41.66
-44.266
-39.1124
-43.0602
-41.3539
-38.946
-40.4246
-41.3098
-45.8762
-44.0869
-76.994
-94.458
-99.332
-78.0247
-78.4655
-79.185
-48.9503
-42.5763
-49.9606
-52.4218
-41.3504
-44.85
-47.2036
-40.605
-55.161
-66.0811
-71.5081
-64.1613
-101.801
-91.2155
-78.7604
-78.3578
-55.6372
-64.0088
-71.5277
-67.8533
-41.1342
-40.3734
-47.1487
-44.7573
-49.53
-52.344
-49.9247
-42.4843
-121.082
-12.0828
-94.9197
-83.5864
-119.46
-83.1123
-95.0309
-14.6934
-54.0109
-59.0135
-73.3583
-65.6991
-53.9886
-65.9533
-73.2276
-58.9929
-39.2964
-35.6176
-26.8211
-41.7821
-9.10089
18.8907
-4.69747
-20.8971
-8.50437
-20.82
-4.70216
18.9424
-39.154
-41.8369
-26.8593
-35.5911
137.81
142.891
160.448
130.732
55.24
75.0859
201.05
167.201
56.8611
168.261
201.143
74.9498
141.038
128.42
159.39
135.31
-37.2318
-37.0384
-39.3186
-39.118
-37.7105
-39.2199
-39.0094
-36.0425
-45.2155
-47.3566
-41.9989
-41.3268
-48.844
-42.2566
-42.9875
-49.8786
-35.7739
-39.203
-39.4643
-37.3691
-49.4105
-49.8255
-43.0721
-42.382
-45.1705
-41.3013
-41.9592
-47.2823
-37.584
-35.8355
-38.9769
-39.2057
-45.6142
-49.3069
-42.7977
-39.8069
-45.5603
-39.7835
-42.8045
-49.3164
-38.4309
-38.8329
-39.3822
-38.0325
-38.4357
-37.9569
-39.3661
-38.8391
-68.8239
-74.2271
-86.2707
-4.4425
-54.5434
-66.2616
-88.0809
-60.3836
-54.4577
-60.3277
-87.9668
-66.2542
-70.7448
-4.30561
-87.5394
-74.0946
-41.0159
-40.7838
-41.4045
-40.9482
-48.1764
-46.0279
-45.1262
-45.9335
-44.1568
-42.8321
-44.9906
-45.1724
-43.9464
-41.4678
-41.7577
-41.7491
-41.1396
-41.2599
-41.3776
-40.7954
-43.9064
-41.7068
-41.7546
-41.4973
-44.1708
-45.1946
-45.0063
-42.857
-48.1071
-45.485
-45.0847
-46.0206
-41.7602
-40.8481
-40.8067
-41.6056
-42.2843
-41.6194
-40.8386
-40.9138
-43.3201
-41.3321
-40.0903
-42.7191
-43.1404
-42.5079
-40.094
-41.317
-50.2973
-41.3231
-38.0858
-49.8028
-33.3018
-31.4471
-32.8825
-34.9966
-33.3382
-34.9866
-32.8812
-31.4924
-50.2548
-49.7945
-38.1173
-41.312
-41.0178
-39.7264
-37.6441
-38.1768
-41.1611
-38.1997
-37.6483
-39.7354
-37.197
-31.7177
-34.1382
-37.2384
-37.1626
-37.2154
-34.1027
-31.6375
19.221
-9.65489
-13.3716
-45.7805
-46.1514
-46.3567
-16.3641
-15.392
-39.0665
-40.9258
-37.0223
-38.8912
85.413
32.0787
-51.2785
-46.1927
-45.8137
-45.7615
-15.5489
-14.9887
-39.1174
-37.079
-40.9612
-38.9308
-47.7659
-42.5002
-41.2189
-46.1037
-43.5027
-39.1979
-41.571
-40.3479
-47.9215
-47.35
-53.6006
-56.9023
-46.2256
-45.5963
-47.1951
-49.3084
-47.6716
-46.1858
-43.6396
-41.0747
-43.906
-40.3529
-39.2977
-41.8292
-47.8168
-55.2043
-47.2994
-54.1526
-46.208
-49.2835
-45.5845
-47.1993
109.514
44.8898
-65.5201
138.761
-10.297
-11.1385
-9.76006
60.5108
-69.3393
-60.2986
-64.4165
-68.6263
-41.0938
-39.7095
-42.9418
-38.1751
-41.4114
-41.4517
-41.4423
-40.7632
-42.9445
-40.5949
-41.9423
-41.6827
-14.5364
-14.5736
-33.9652
6.55608
-49.0499
-41.4705
-50.6619
-34.3321
-29.8998
-29.9463
-31.7337
-28.8669
-39.3693
-41.8494
-41.0803
-39.3584
130.303
58.3755
-54.1629
131.767
-69.208
-60.3387
-64.3668
-68.2687
-41.1109
-39.7571
-43.0056
-38.1999
-42.7284
-40.5963
-42.0467
-41.5758
-49.037
-41.2913
-50.8169
-34.2697
-39.3722
-41.8219
-41.0858
-39.3118
-37.5811
-37.1182
-36.3228
-37.7168
-40.3388
-40.8271
-41.3061
-40.379
-53.8259
-53.8295
-56.2554
-51.6955
-40.3908
-41.1518
-40.3889
-41.7068
-39.4606
-39.4727
-39.0824
-39.9482
-53.2429
-51.3147
-50.6136
-58.5348
18.9975
19.0439
22.6127
10.0201
-58.3322
-58.3261
-62.2661
-54.0697
-37.2654
-37.2175
-36.7494
-37.8479
-40.2557
-40.8049
-41.2042
-40.4186
-40.3429
-41.1291
-40.3694
-41.7047
-53.1068
-51.1604
-50.4704
-58.4175
-65.5163
-59.291
-57.6238
-52.8749
-65.5717
-59.2853
-57.6024
-52.8528
-87.463
-82.1004
-82.1169
-77.5595
-20.5881
-15.3728
-15.3705
-8.78764
157.51
157.846
195.035
157.028
-39.8281
-40.8329
-40.5243
-41.5162
-39.8171
-40.8789
-40.5033
-41.5064
-40.8387
-41.8654
-40.1082
-40.8331
-113.785
-111.248
-104.402
-114.138
-44.2105
-43.3319
-43.3267
-41.4264
-44.1651
-43.2878
-43.2647
-41.3999
-40.1775
-40.339
-40.3646
-40.4917
-33.6656
-34.9354
-34.9248
-36.2701
-35.194
-36.3881
-33.0548
-35.2153
106.297
128.173
-75.1308
152.671
102.385
24.4113
19.7994
24.5417
-101.87
-76.8574
-73.2026
-87.936
-43.0349
-42.0119
-45.0139
-39.6764
-44.6539
-42.7711
-43.5105
-42.1778
-42.9137
-44.4931
-46.5544
-40.9224
-8.76132
9.0458
-58.3794
80.8753
-15.6903
-11.4897
-33.1273
6.3478
-46.5225
-49.8675
-54.6966
-47.0772
-39.3229
-39.3467
-42.6917
-37.8322
-33.9761
-31.7106
-32.2027
-33.675
-37.7305
-38.397
-41.2305
-35.1846
73.2964
-9.29744
-9.29744
3.09707
109.989
124.324
-65.2421
135.282
-105.425
-77.6363
-74.0116
-87.5263
-44.7157
-42.8713
-43.6051
-42.2044
-43.0573
-42.0339
-44.9816
-39.6999
-43.0107
-45.6394
-46.5413
-40.4288
-15.4479
-11.8106
-33.3343
9.73079
-5.45317
18.2753
-56.4637
88.48
-46.2698
-49.6159
-53.9853
-46.8632
-34.0516
-31.8032
-32.274
-33.7567
-39.3653
-39.394
-42.7336
-37.8636
-37.7934
-38.3795
-41.2691
-35.2265
-50.2643
-53.4882
-45.2814
-55.2892
-40.441
-38.7583
-38.2
-40.332
-40.7265
-40.0435
-43.1268
-38.3781
-50.9096
-53.3025
-55.2836
-50.2263
-38.4075
-39.3391
-39.6689
-39.7472
-37.7078
-37.3512
-36.5706
-37.7431
-39.1775
-39.6464
-38.9055
-40.4237
-39.6141
-39.4671
-39.0101
-40.2427
-36.9959
-36.7329
-39.1403
-25.2638
-43.9654
-42.1405
-41.8316
-44.2035
-54.6395
-54.6632
-52.6536
-66.2669
1.12901
16.2942
14.03
3.80318
-45.7464
-44.0199
-44.0809
-46.8447
-43.5451
-42.1197
-42.832
-42.4232
-48.0956
-49.195
-47.1867
-52.2894
-57.1213
-58.6294
-61.7412
-55.3489
-50.3066
-53.4334
-45.2585
-55.081
-50.8313
-53.2961
-55.3282
-50.2297
-39.8708
-39.0041
-38.5377
-40.312
-41.1463
-39.9447
-42.8896
-38.2246
-38.5459
-39.4531
-39.8785
-40.0394
-39.6597
-39.5147
-39.0125
-40.4038
-37.8362
-37.24
-36.3841
-37.8146
-39.3088
-39.6388
-38.9586
-40.4627
-36.6604
-36.9906
-38.9559
-25.1548
1.44518
16.3706
14.0933
4.00966
-43.9975
-42.1472
-41.7545
-44.3406
-55.2952
-54.566
-52.7945
-65.4792
-45.7011
-44.0271
-44.0608
-46.8129
-57.0118
-58.6002
-61.7175
-55.3187
-43.517
-42.1016
-42.8079
-42.4083
-48.0488
-49.1083
-47.1234
-52.2149
-69.445
-78.1907
-71.7614
-71.0009
193.069
159.72
161.567
165.999
-137.772
-103.761
-118.275
-118.625
151.321
160.037
161.363
160.792
-62.6479
-61.259
-70.5385
-55.806
-78.845
-82.0152
-86.5752
-76.2736
-46.8902
-46.6565
-47.7753
-47.1714
-37.5982
-36.7581
-37.8759
-36.3152
-40.7105
-39.8114
-40.0476
-40.001
-38.9438
-37.7943
-38.4464
-38.4504
-42.7417
-43.2499
-41.2175
-43.4796
-41.5669
-40.6637
-41.1524
-40.8723
-39.7509
-31.4444
-36.4178
-36.4221
111.39
190.885
153.664
153.379
-55.1427
-55.9269
-49.9865
-62.7166
-23.4203
-17.8193
-24.9101
-15.6685
-31.3955
-31.9258
-31.7181
-31.7362
-31.4594
-33.1247
-32.8564
-32.8268
-42.0113
-42.8926
-43.7515
-41.4754
-36.467
-35.3568
-37.1241
-34.5127
-70.9976
-78.3901
-72.5759
-70.4985
194.126
158.201
168.953
158.326
-62.6487
-61.2204
-70.6053
-55.7772
-78.8671
-82.0826
-86.759
-76.3241
-46.9027
-46.6447
-47.1625
-47.7597
-37.7685
-36.7893
-37.8924
-36.3645
-42.7008
-43.1942
-41.2127
-43.4234
-41.4993
-40.6976
-41.1777
-40.9329
-55.1198
-55.8665
-62.6687
-49.916
-23.4939
-17.8833
-15.661
-24.9261
-42.0202
-42.8689
-41.4581
-43.7607
-36.4124
-35.3555
-34.6071
-37.2055
-37.3664
-38.5085
-37.9085
-37.8119
-39.2011
-40.4649
-40.6875
-39.3297
-40.9037
-45.6598
-43.6607
-42.4285
-40.6241
-40.9479
-39.961
-41.8108
-62.3676
-69.5646
-65.7285
-65.5707
-47.673
-44.3989
-45.8833
-45.9903
-40.0763
-40.2425
-39.5518
-40.6963
-40.4704
-42.0287
-40.6563
-41.0096
-38.817
-39.105
-38.8484
-38.8441
-40.9182
-40.7472
-40.893
-40.9239
-46.6338
-43.7304
-44.5724
-45.4632
-78.5905
-97.8987
-93.9303
-81.9845
14.8426
2.47765
8.44753
8.49848
-17.8938
-51.4633
-36.8871
-36.7888
-70.7883
-80.827
-75.2047
-75.191
-45.6587
-39.8896
-42.5544
-42.5431
-37.3964
-38.5226
-37.9787
-37.8045
-39.1964
-40.4515
-40.6794
-39.3418
-40.7807
-45.5704
-42.3179
-43.5751
-40.6829
-41.0771
-39.9225
-41.8759
-40.0543
-40.2091
-40.6635
-39.5194
-40.563
-42.0298
-40.7018
-41.0649
-46.5802
-43.7045
-45.4389
-44.5259
-78.5281
-98.0214
-81.9625
-94.2551
-76.0283
-71.9592
-71.7254
-75.9105
-45.6886
-44.474
-47.5967
-44.9625
-40.5709
-40.0479
-43.1012
-41.4074
-60.7047
-64.6345
-68.0499
-69.4455
-79.7214
-73.7068
-73.5115
-76.9412
-59.608
-64.2341
-66.9937
-69.521
-40.4721
-39.8201
-42.99
-41.3504
-45.7339
-44.4319
-47.5701
-44.9279
-129.102
-108.075
-117.798
-102.836
-128.944
-107.415
-118.635
-103.375
-62.4294
-60.8421
-67.9677
-65.2104
-62.3222
-60.8206
-67.9308
-65.1707
-42.8279
-41.0735
-37.7442
-34.6914
-5.54435
5.18454
-4.87719
4.44791
-5.49688
5.45213
-4.83632
3.83837
-42.7612
-40.9723
-37.7469
-34.6839
195.821
141.907
159.511
160.173
145.054
117.395
186.6
153.167
112.786
144.429
153.027
185.738
120.92
183.684
158.397
156.206
-37.602
-38.1932
-38.0733
-38.6216
-37.687
-38.2625
-37.9047
-38.5552
-42.7288
-43.7905
-42.1785
-44.0806
-45.7335
-48.078
-44.3395
-46.1652
-37.6561
-38.2576
-38.1352
-38.549
-45.9714
-48.2824
-44.4692
-46.2624
-42.6874
-43.7158
-42.1316
-44.0264
-37.6173
-38.2485
-37.8466
-38.5253
-43.3885
-46.2098
-43.1307
-45.265
-46.2039
-43.3496
-45.3048
-43.1275
-38.4601
-38.1862
-38.6415
-38.5923
-38.1308
-38.417
-38.5554
-38.6222
-79.6325
-29.3427
-70.7814
-39.2325
-61.527
-66.4839
-71.5432
-72.7958
-66.3699
-61.5326
-72.7147
-71.4903
-29.5731
-80.4996
-39.0156
-70.4136
-39.9674
-40.2841
-41.015
-40.0474
-47.8711
-48.1227
-47.9604
-46.7739
-45.5474
-44.9324
-46.2821
-45.088
-42.5276
-41.9057
-42.3552
-41.5257
-40.101
-40.4167
-41.0406
-40.1015
-42.4808
-41.9281
-42.318
-41.5302
-45.5367
-44.9261
-46.2644
-45.1176
-47.8569
-48.1207
-47.952
-46.7518
-41.6372
-42.0023
-41.3523
-41.347
-41.8869
-42.2044
-41.4354
-41.4576
-41.0161
-40.001
-39.8433
-40.457
-41.1095
-40.3207
-39.892
-40.4137
-44.5937
-46.8001
-40.9185
-43.0686
-32.0689
-32.9659
-32.1842
-33.1283
-32.119
-33.0107
-32.2176
-33.1621
-44.5939
-46.7879
-40.9136
-43.0641
-38.8294
-39.5002
-38.4386
-38.7525
-39.5311
-38.872
-38.745
-38.4514
-35.6868
-37.0043
-35.0984
-36.3344
-36.9722
-35.6285
-36.3003
-35.0515
-48.7047
120.782
-96.3464
80.7713
-113.224
-126.668
-46.0747
-41.8257
-45.3378
-44.1595
-47.8632
-43.5485
-52.2651
41.764
-28.5094
10.1604
-52.2988
-37.2161
-42.7388
-38.1523
-33.5406
-36.6183
-42.3517
-35.0038
-117.142
101.687
-18.937
133.199
-116.518
-122.702
-45.4462
-44.0772
-46.014
-41.8691
-47.6157
-43.5745
-28.4073
10.7533
-52.4267
46.3169
-52.9076
-36.8067
-33.6095
-36.6681
-42.7773
-38.1809
-42.3744
-35.0646
-48.4883
-51.345
-39.289
-43.9507
-46.366
-36.9382
-52.301
-47.0946
-42.8085
-41.5881
-38.1436
-38.3474
-38.4347
-41.5908
-39.35
-40.7919
-42.1071
-27.5349
-42.8666
-47.5798
-51.0672
-63.2524
-11.2388
-49.8934
-45.1552
-48.0184
-44.8602
-44.088
-46.5253
-50.6577
-53.9971
-51.8554
-48.9403
-51.4184
-52.3549
-47.0483
-39.9978
-43.5412
-45.2808
-37.0744
-42.887
-41.8706
-38.8993
-41.1486
-38.0047
-38.4642
-38.6352
-41.6693
-41.9631
-27.3216
-10.9538
-47.6964
-42.7695
-47.849
-51.856
-72.6894
-45.1082
-47.9855
-53.9436
-51.84
-44.8346
-44.066
-46.5125
-50.5965
-84.9546
142.781
-68.6357
127.36
-75.2615
-69.7309
142.957
170.342
-12.0828
38.5396
-14.6934
80.3923
-10.297
-10.9694
132.202
134.974
-77.8231
-76.5017
-53.1976
-61.0491
-75.2645
-57.1474
-79.0788
-69.9111
-44.0238
-38.9258
-42.5881
-37.5972
-45.7461
-45.2581
-38.0165
-37.2802
-41.9806
-40.9137
-42.0262
-41.1547
-41.0309
-41.0447
-39.4438
-39.5056
-47.5147
-46.2385
-40.7271
-40.9177
-40.9284
-43.7153
-41.8956
-42.7816
-34.5253
0.283703
-34.8049
0.740282
-42.0347
-41.9751
69.721
69.9132
-56.8694
-41.7315
-42.9102
-29.769
-49.0175
-60.9252
-31.7428
-23.8976
-31.7923
-30.7052
-31.8359
-30.7915
-31.3939
-31.4179
-30.4977
-30.4492
-41.405
-36.2538
-42.3195
-43.1577
-42.3664
-41.0998
-39.3062
-36.4275
-73.2568
133.536
-60.5403
130.835
-85.1735
-72.4392
170.366
128.458
-78.1606
-76.1593
-53.0851
-60.6956
-75.36
-57.0893
-78.6741
-69.6003
-44.0353
-38.9478
-42.6296
-37.6251
-45.2644
-45.7478
-38.0385
-37.3037
-45.8907
-46.3444
-40.6856
-40.8871
-40.9781
-43.7559
-41.847
-42.5409
-56.8296
-41.7771
-42.8358
-29.7305
-60.9192
-48.9376
-23.851
-31.7504
-41.4172
-36.2958
-42.2725
-43.1734
-41.0831
-42.3712
-36.3121
-39.2815
-37.0082
-38.7088
-35.7911
-37.4248
-37.2826
-37.9986
-38.9159
-38.1851
-41.8516
-39.5844
-41.3549
-41.8092
-41.8583
-40.7858
-39.7451
-41.1964
-56.0813
-51.4441
-56.1231
-51.45
-59.1982
-59.1994
-49.4325
-49.4332
-39.4276
-40.9004
-41.4461
-41.9891
-39.6984
-40.7125
-41.0836
-41.4529
-39.0931
-40.014
-39.0964
-40.0632
-38.8839
-38.8796
-40.6157
-40.6468
-52.3378
-62.2558
-48.9038
-54.9503
-48.0823
-49.6708
-70.0607
-63.0235
21.3448
9.52997
21.5635
9.77391
20.7965
20.4064
-3.85126
-3.6423
-62.6108
-54.0481
-62.6071
-54.0325
-66.5421
-66.5394
-49.4723
-49.4632
-37.3066
-38.5509
-36.2068
-37.4285
-37.4018
-37.9981
-39.0676
-38.1194
-41.683
-39.5937
-41.2758
-41.8849
-40.6464
-41.7231
-39.8485
-41.2944
-39.4007
-40.549
-41.4294
-41.9821
-40.6892
-39.6787
-41.3226
-41.4989
-52.2328
-62.0507
-48.8179
-54.8586
-49.5857
-47.9805
-62.9611
-69.9623
-77.3399
-73.6555
-68.0831
-54.372
-51.2666
-63.4506
-49.2447
-48.045
-77.6504
-73.8612
-68.1333
-54.3571
-63.4731
-51.2191
-47.9935
-49.201
-94.8043
-94.9163
-87.5991
-77.4625
-87.6597
-77.5352
-73.7408
-73.3641
-26.2907
-26.3316
-21.4471
-10.3144
-10.4073
-21.4688
-3.4549
-3.47592
159.491
171.725
159.273
158.766
201.944