# vtk DataFile Version 2.0
tet_velo
ASCII
DATASET UNSTRUCTURED_GRID
POINTS 29498 float
-0.695 0.335 -2.6613
-0.825 0.405 2.72748
-0.758464 0.845 -2.575
-0.825 1.15067 2.665
0.695 0.335 -2.6613
0.825 0.405 2.72748
0.758457 0.845 -2.575
0.825 1.15067 2.665
-0.814765 0.281901 -0.86504
-0.862233 0.3011 0.93122
-0.847156 1.0134 -0.828334
-0.848525 1.09448 0.918333
0.815723 0.280944 -0.86504
0.862232 0.301102 0.93122
0.84693 1.01318 -0.828334
0.84853 1.09449 0.918333
-1.51057 -0.0694299 -4.09342
-1.51883 -0.0272751 -2.67628
-1.61424 -0.0620071 -0.878736
-1.68088 -0.0649678 0.928788
-1.67785 0.00906513 2.72717
-1.67023 0.0735893 4.14843
-1.66885 0.131227 5.56207
-1.50706 0.251308 -4.0681
-1.51363 0.31766 -2.65637
-1.62849 0.30235 -0.868482
-1.69032 0.311971 0.923874
-1.67164 0.390316 2.71272
-1.66566 0.454003 4.13328
-1.66701 0.51 5.54854
-1.53484 0.842246 -4.00354
-1.55865 0.906084 -2.58976
-1.65468 1.01996 -0.835679
-1.68638 1.08645 0.914891
-1.66944 1.14781 2.66993
-1.66496 1.20835 4.09254
-1.66706 1.26387 5.5158
-1.58355 1.84278 -3.94399
-1.60327 1.92522 -2.53764
-1.64485 2.06555 -0.799632
-1.67315 2.18857 0.927684
-1.67809 2.27431 2.66621
-1.67584 2.33038 4.07364
-1.67432 2.38274 5.49148
-0.72784 -0.0600279 -4.09662
-0.71484 -0.0142882 -2.68095
-0.79201 -0.0712201 -0.87811
-0.846777 -0.0741319 0.935057
-0.842283 0.0146612 2.73813
-0.835473 0.0782592 4.15587
-0.835103 0.133784 5.56638
-0.72517 0.253445 -4.06909
-0.829682 0.460183 4.13941
-0.83289 0.513277 5.55179
-0.747424 0.818446 -3.99741
-0.829207 1.21213 4.09155
-0.832883 1.26697 5.51558
-0.779456 1.82556 -3.93792
-0.789277 1.90844 -2.53096
-0.818656 2.0608 -0.795605
-0.84077 2.19252 0.9272
-0.844575 2.27889 2.66276
-0.842423 2.33397 4.07019
-0.841276 2.38558 5.48898
0.773235 -0.0601942 -4.09662
0.767084 -0.0145217 -2.68095
0.829464 -0.0718761 -0.87811
0.850179 -0.0742706 0.935057
0.826948 0.0146295 2.73813
0.829663 0.0782121 4.15587
0.830942 0.133713 5.56638
0.757296 0.253344 -4.06909
0.830942 0.460153 4.13941
0.832117 0.513218 5.55179
0.774011 0.818369 -3.99741
0.830799 1.2121 4.09155
0.831743 1.26692 5.51558
0.812656 1.82541 -3.93792
0.822423 1.90827 -2.53096
0.83129 2.06063 -0.795605
0.829106 2.19239 0.9272
0.825346 2.27881 2.66276
0.82495 2.3339 4.07019
0.824642 2.3855 5.48897
1.54349 -0.0698261 -4.09342
1.54321 -0.0278241 -2.67628
1.63056 -0.0629636 -0.878736
1.68286 -0.0653472 0.928787
1.67084 0.00894497 2.72717
1.66567 0.0734646 4.14843
1.66443 0.131068 5.56207
1.52419 0.251007 -4.0681
1.50621 0.317282 -2.65637
1.62231 0.301331 -0.868482
1.68935 0.311668 0.923874
1.67234 0.390254 2.71272
1.66623 0.453912 4.13328
1.66525 0.509863 5.54854
1.54531 0.842006 -4.00354
1.5471 0.905851 -2.58976
1.64419 1.01941 -0.835679
1.6833 1.08623 0.914891
1.66997 1.14776 2.66993
1.66543 1.20827 4.09254
1.66453 1.26374 5.51579
1.60806 1.84245 -3.94399
1.62415 1.92487 -2.53764
1.64969 2.06519 -0.799633
1.66086 2.1883 0.927683
1.66022 2.27412 2.66621
1.65867 2.3302 4.07364
1.6572 2.38255 5.49148
-0.773281 0.59 -2.6647
0 0.319571 -2.67673
-0.78118 0.282154 -1.76317
-0.781586 0.777835 2.65283
0 0.403462 2.72902
-0.866717 0.32995 1.82935
-3.48687e-06 0.870182 -2.60018
-0.846298 0.97269 -1.70167
0 1.14648 2.66081
-0.836387 1.1222 1.79167
0.773276 0.59 -2.6647
0.781141 0.282192 -1.76317
0.78159 0.777835 2.65283
0.866714 0.329953 1.82935
0.846303 0.972701 -1.70167
0.836386 1.1222 1.79167
-0.846205 0.283795 0.03309
-0.89429 0.647652 -0.846687
0.000478712 0.215641 -0.86504
-0.890017 0.697792 0.924777
-7.0596e-07 0.227812 0.93122
-0.852091 1.05819 0.045
-0.000113129 1.28766 -0.828334
2.30165e-06 1.6553 0.918333
0.846054 0.283946 0.03309
0.894342 0.647063 -0.846687
0.890024 0.697796 0.924777
0.852091 1.0582 0.045
-0.880366 0.618826 -1.73242
-0.892166 0.672722 0.039045
-0.873105 0.737814 1.81051
0.000239356 0.254977 -1.76317
0.000239003 0.224052 0.03309
-3.5298e-07 0.231534 1.82935
-1.74344e-06 0.59 -2.76337
0 0.777835 2.65282
-5.83078e-05 1.05134 -1.70167
-5.54135e-05 1.66966 0.045
1.15083e-06 1.18817 1.79167
0.880368 0.618531 -1.73242
0.892198 0.67243 0.039045
0.873107 0.737816 1.81051
-1.10432 0.32633 -2.65884
-0.70492 0.160356 -2.67112
-0.710085 0.294222 -3.36519
-1.24832 0.397658 2.7201
-0.833642 0.209831 2.73281
-0.827341 0.432592 3.43345
-1.15856 0.875542 -2.58238
-0.752944 0.831723 -3.2862
-0.773871 1.37672 -2.55298
-1.24722 1.14924 2.66746
-0.827103 1.1814 3.37828
-0.834788 1.71478 2.66388
0.731042 0.160239 -2.67112
0.726148 0.294172 -3.36519
1.1006 0.326141 -2.65884
0.825974 0.209815 2.73281
0.827971 0.432577 3.43345
1.24867 0.397627 2.7201
0.766234 0.831685 -3.2862
0.79044 1.37664 -2.55298
1.15278 0.875426 -2.58238
0.8279 1.18138 3.37828
0.825173 1.71474 2.66388
1.24749 1.14922 2.66746
-1.22163 0.292126 -0.866761
-0.803388 0.105341 -0.871575
-1.27628 0.306536 0.927547
-0.854505 0.113484 0.933139
-1.25092 1.01668 -0.832006
-0.832906 1.5371 -0.811969
-1.26745 1.09046 0.916612
-0.844648 1.6435 0.922767
0.822593 0.104534 -0.871575
1.21902 0.291137 -0.866761
0.856205 0.113416 0.933139
1.27579 0.306385 0.927547
0.83911 1.53691 -0.811969
1.24556 1.0163 -0.832006
0.838818 1.64344 0.922767
1.26591 1.09036 0.916612
-1.5147 -0.0483525 -3.38485
-1.50882 0.0909391 -4.08076
-1.11921 -0.0647289 -4.09502
-1.56654 -0.0446411 -1.77751
-1.51623 0.145193 -2.66633
-1.11684 -0.0207816 -2.67861
-1.64756 -0.0634875 0.0250259
-1.62137 0.120171 -0.873609
-1.20313 -0.0666136 -0.878423
-1.67936 -0.0279513 1.82798
-1.6856 0.123501 0.926331
-1.26383 -0.0695499 0.931922
-1.67404 0.0413272 3.4378
-1.67474 0.199691 2.71994
-1.26007 0.0118632 2.73265
-1.66954 0.102408 4.85525
-1.66795 0.263796 4.14086
-1.25285 0.0759242 4.15215
-1.66793 0.320613 5.55531
-1.25197 0.132505 5.56423
-1.51035 0.284484 -3.36224
-1.52095 0.546777 -4.03582
-1.11611 0.252376 -4.0686
-1.57106 0.310005 -1.76243
-1.53614 0.611872 -2.62307
-1.65941 0.30716 0.0276963
-1.64159 0.661157 -0.852081
-1.68098 0.351143 1.8183
-1.68835 0.699208 0.919383
-1.66865 0.42216 3.423
-1.67054 0.769065 2.69132
-1.66633 0.482002 4.84091
-1.66531 0.831176 4.11291
-1.24767 0.457093 4.13635
-1.66703 0.886935 5.53217
-1.24995 0.511639 5.55016
-1.54674 0.874165 -3.29665
-1.55919 1.34251 -3.97376
-1.14113 0.830346 -4.00048
-1.60667 0.963025 -1.71272
-1.58096 1.41565 -2.5637
-1.67053 1.05321 0.0396062
-1.64977 1.54276 -0.817656
-1.67791 1.11713 1.79241
-1.67976 1.63751 0.921288
-1.6672 1.17808 3.38123
-1.67377 1.71106 2.66807
-1.66601 1.23611 4.80417
-1.6704 1.76936 4.08309
-1.24708 1.21024 4.09205
-1.67069 1.8233 5.50364
-1.24997 1.26542 5.51569
-1.59341 1.884 -3.24081
-1.1815 1.83417 -3.94096
-1.62406 1.99538 -1.66863
-1.19627 1.91683 -2.5343
-1.659 2.12706 0.0640259
-1.23175 2.06318 -0.797618
-1.67562 2.23144 1.79694
-1.25696 2.19055 0.927442
-1.67697 2.30234 3.36992
-1.26133 2.2766 2.66448
-1.67508 2.35656 4.78256
-1.25913 2.33217 4.07192
-1.2578 2.38416 5.49023
-0.72134 -0.037158 -3.38878
-0.726505 0.0967085 -4.08286
0.0226975 -0.060111 -4.09662
-0.753425 -0.0427541 -1.77953
0.0261219 -0.014405 -2.68095
-0.819394 -0.072676 0.0284737
0.0187269 -0.0715481 -0.87811
-0.84453 -0.0297353 1.83659
0.00170086 -0.0742013 0.935057
-0.838878 0.0464602 3.447
-0.00766757 0.0146453 2.73813
-0.835288 0.106021 4.86112
-0.832577 0.269221 4.14764
-0.00290462 0.0782356 4.15587
-0.833996 0.32353 5.55908
-0.00208079 0.133748 5.56638
-0.736297 0.535945 -4.03325
0.0160631 0.253394 -4.06909
-0.831286 0.48673 4.8456
-0.829445 0.836155 4.11548
0.000629934 0.460168 4.13941
-0.832886 0.890126 5.53368
-0.00038646 0.513247 5.55179
-0.76344 1.32201 -3.96767
0.0132936 0.818408 -3.99741
-0.831045 1.23955 4.80357
-0.835815 1.77305 4.08087
0.00079632 1.21211 4.09155
-0.83708 1.82628 5.50228
-0.000569605 1.26695 5.51558
-0.784367 1.867 -3.23444
0.0166002 1.82548 -3.93792
-0.803967 1.98462 -1.66328
0.0165727 1.90836 -2.53096
-0.829713 2.12666 0.0657977
0.00631688 2.06072 -0.795605
-0.842673 2.2357 1.79498
-0.00583189 2.19246 0.9272
-0.843499 2.30643 3.36647
-0.00961454 2.27885 2.66276
-0.84185 2.35978 4.77958
-0.00873624 2.33393 4.07019
-0.00831707 2.38554 5.48898
0.770159 -0.037358 -3.38878
0.765265 0.0965749 -4.08286
1.15836 -0.0650101 -4.09502
0.798274 -0.0431989 -1.77953
1.15515 -0.0211729 -2.67861
0.839821 -0.0730734 0.0284737
1.23001 -0.0674199 -0.878423
0.838564 -0.0298206 1.83659
1.26652 -0.0698089 0.931922
0.828306 0.0464208 3.447
1.24889 0.0117872 2.73265
0.830303 0.105963 4.86112
0.830303 0.269183 4.14764
1.24767 0.0758383 4.15215
0.831529 0.323466 5.55908
1.24769 0.132391 5.56423
0.765654 0.535857 -4.03325
1.14074 0.252175 -4.06859
0.831529 0.486686 4.8456
0.830871 0.836126 4.11548
1.24859 0.457033 4.13635
0.83193 0.890069 5.53368
1.24868 0.51154 5.55016
0.793334 1.32189 -3.96767
1.15966 0.830188 -4.00048
0.831271 1.23951 4.80357
0.827875 1.773 4.08087
1.24811 1.21018 4.09205
0.828193 1.82621 5.50228
1.24814 1.26533 5.51569
0.81754 1.86684 -3.23444
1.21036 1.83393 -3.94096
0.826856 1.98445 -1.66328
1.22328 1.91657 -2.5343
0.830198 2.12651 0.0657976
1.24049 2.06291 -0.797619
0.827226 2.2356 1.79498
1.24498 2.19035 0.927442
0.825148 2.30635 3.36647
1.24278 2.27646 2.66448
0.824796 2.3597 4.77958
1.24181 2.33205 4.07192
1.24092 2.38402 5.49023
1.54335 -0.0488251 -3.38485
1.53384 0.0905903 -4.08076
1.58689 -0.0453939 -1.77751
1.52471 0.144729 -2.66633
1.65671 -0.0641554 0.0250258
1.62644 0.119184 -0.873609
1.67685 -0.0282011 1.82798
1.68611 0.12316 0.926331
1.66826 0.0412048 3.4378
1.67159 0.199599 2.71994
1.66505 0.102266 4.85525
1.66595 0.263688 4.14086
1.66484 0.320466 5.55531
1.5152 0.284144 -3.36224
1.53475 0.546506 -4.03582
1.56426 0.309306 -1.76243
1.52666 0.611566 -2.62307
1.65583 0.3065 0.0276962
1.63325 0.660372 -0.852081
1.68085 0.350961 1.8183
1.68633 0.698947 0.919383
1.66928 0.422083 3.423
1.67116 0.769008 2.69132
1.66574 0.481888 4.84091
1.66583 0.831089 4.11291
1.66489 0.886802 5.53217
1.54621 0.873929 -3.29665
1.57669 1.34223 -3.97376
1.59565 0.962632 -1.71272
1.58563 1.41536 -2.5637
1.66374 1.05282 0.0396061
1.64694 1.5423 -0.817656
1.67664 1.11699 1.79241
[...]
POINT_DATA 29498
VECTORS point_vectors float
-0.708454 -1.32827 2.22361
0.139365 0.351759 1.05146
-11.1725 5.82682 10.7742
0.576617 0.285159 2.09301
0.708624 -1.32857 2.22516
-0.244251 0.380947 1.23206
11.1892 5.83406 10.7832
-0.519674 0.0801201 2.25783
0.0260948 0.00886128 0.684391
-0.0540658 0.113723 1.50376
0 0 0
0.00747714 0.0363445 0.0943154
-0.0277736 0.00594833 0.717886
0.131353 0.183811 1.43367
0 0 0
-0.0073925 0.0359604 0.0947421
-0.434896 -0.209453 19.8493
-1.28893 -0.798244 20.4808
-0.431734 -0.463363 21.4776
0.0565811 -0.0716349 21.7424
0.472917 0.229692 21.6438
0.809104 0.404889 20.9677
0.575966 0.240022 21.0883
-0.487823 -0.148451 19.7617
-1.80329 -0.675165 20.403
-0.582676 -0.566534 21.5276
0.0704407 -0.150133 21.8351
0.620149 0.122653 21.7073
0.832498 0.151803 21.1443
0.657735 0.19565 21.4874
-0.565661 0.0182 19.7366
-1.95619 0.120936 20.348
-1.22808 -0.443504 21.4982
-0.104801 -0.272574 21.9916
0.671731 -0.182184 21.742
0.90169 -0.566293 21.0211
0.589814 -0.393634 21.2138
-0.430562 0.24417 19.9084
-0.923215 0.553358 20.342
-1.07676 0.409457 21.2803
-0.265388 -0.0484798 21.9207
0.288115 -0.335936 21.6306
0.425137 -0.369008 21.3489
0.604671 -0.44363 20.619
-0.329872 -0.365686 19.4746
-1.97313 -3.54692 20.4867
-0.30984 -0.365159 21.4395
-0.00652412 0.156114 20.9785
0.391471 0.906368 19.5098
0.939751 1.22582 17.9406
0.807154 0.917496 16.8687
-0.403773 -0.259712 19.2423
1.56189 1.68064 11.8861
0.89252 0.463775 12.0898
-0.507706 0.0568996 19.0939
2.55548 -0.23213 16.4021
1.51514 -0.477017 16.9229
-0.34986 0.473876 19.5671
-1.01285 1.50377 20.0335
-1.77462 1.99044 21.076
-0.442085 0.0987011 22.3829
0.180881 -0.677265 21.8286
0.418412 -1.00308 21.1272
0.301086 -0.339491 21.5319
0.344719 -0.362987 19.4792
2.04211 -3.2802 20.4821
0.314851 -0.379028 21.6655
0.0656956 0.0858443 21.0182
-0.43568 1.17506 19.7061
-0.638086 1.65157 19.2883
-1.04891 1.12808 17.8315
0.41607 -0.257785 19.2562
-1.6443 1.82193 12.9176
-1.41175 0.395558 13.7983
0.516457 0.0541055 19.1117
-2.29464 -0.503463 14.3494
-1.28711 -0.282562 16.9311
0.360361 0.467489 19.578
1.0233 1.4595 20.049
1.78302 1.94434 21.0878
0.454777 0.103282 22.3928
-0.134283 -0.681502 21.8285
-0.399592 -0.828602 21.2346
-0.229935 -0.434179 21.5558
0.446838 -0.188459 19.8667
1.25564 -0.747404 20.4873
0.42238 -0.459153 21.4792
-0.0505867 -0.0709032 21.7589
-0.544412 0.262428 21.6785
-0.732305 0.338051 21.3282
-0.550358 0.0540801 20.9696
0.499217 -0.142908 19.7787
1.8382 -0.69478 20.3911
0.586713 -0.573181 21.5325
-0.061359 -0.149895 21.8662
-0.706677 0.117662 21.7577
-1.01158 0.14878 21.307
-0.590282 -0.121058 21.326
0.573301 0.0255206 19.726
1.97957 0.117752 20.3424
1.24327 -0.454807 21.5102
0.11108 -0.273545 21.9928
-0.72175 -0.236839 21.7823
-1.13611 -0.309138 21.2195
-0.475942 -0.35639 21.2348
0.429739 0.241018 19.9171
0.911507 0.536968 20.3507
1.07579 0.402114 21.2845
0.269485 -0.0588387 21.9189
-0.281517 -0.356682 21.6701
-0.495287 -0.387977 21.1693
-0.490383 -0.438789 20.6529
-1.54841 -0.304266 2.23088
-0.00491371 -0.329979 0.738253
0.021786 -0.00558835 0.520064
-0.0497783 0.024525 -0.0220104
0.0333645 -0.0249153 -0.0202442
0.00850207 0.0324601 1.80232
-0.000223571 2.65402 2.08357
-0.0606308 -0.0523375 0.186654
0.125788 0.457249 -0.267637
0.314196 0.303844 0.758696
1.55146 -0.304581 2.23411
-0.0218274 -0.00596292 0.521506
0.0499462 0.0034898 -0.0150368
-0.0521699 -0.00195913 1.75204
0.0608175 -0.052543 0.186793
-0.286482 0.273074 0.752953
-0.0640714 0.0630008 1.9811
0 0 0
0.00356425 -0.0049623 0.132471
0 0 0
-0.00186989 0.00386739 0.167058
0.00212515 0.0118521 0.031182
1.64287e-08 1.44793e-05 2.68786e-05
-3.67087e-05 -0.00173698 0.0364013
0.086927 0.0801087 1.98413
0 0 0
5.41038e-06 -5.69558e-05 -0.000273809
-0.00212531 0.0118436 0.0311366
-0.00018816 -0.00124344 0.0231042
0 0 0
0 0 0
0 0 0
0 0 0
0.0676933 -0.0244448 0.665516
0.00351042 0.102916 0.112873
0 0 0
-8.45502e-08 -1.7767e-05 -0.00011598
4.82748e-05 0.00805966 0.119984
0 0 0
0.000191221 -0.00124621 0.0233505
0 0 0
0 0 0
-3.60299 -1.92679 20.187
-3.28805 -5.76 20.4583
-1.36918 -1.05853 18.1386
0.924231 0.462509 20.6339
0.380288 1.05529 12.6864
-0.426364 1.57316 7.33991
-4.05312 0.754574 20.0039
-1.78519 0.582132 17.646
-2.27493 2.79769 19.7338
1.11335 -0.133769 20.8511
1.58037 0.857823 9.50699
1.01566 -0.838322 19.0706
3.32239 -5.42696 20.4164
1.39316 -1.03679 18.1761
3.63289 -1.95632 20.1813
-0.554668 1.31987 13.1179
-0.68381 1.56729 9.25286
-1.10983 0.4733 20.7987
1.79167 0.554672 17.7093
2.28413 2.7279 19.7512
4.1119 0.772734 19.9858
-1.59309 0.449976 10.085
-0.948406 -0.888213 18.841
-1.1582 -0.259373 20.9607
-0.3363 -0.884938 21.4676
0.111202 -0.127458 16.9562
0.245726 -0.104898 21.4406
0.0150253 0.244597 16.1358
-1.96293 -1.22419 21.5445
-4.87688 2.247 20.33
-0.0939785 -0.567717 21.4309
0.647104 0.727214 14.2293
-0.0793484 -0.160785 17.3944
0.333685 -0.881393 21.457
0.128624 0.144972 16.0078
-0.208203 -0.0934171 21.4477
4.83814 2.18405 20.3857
1.97658 -1.25876 21.5156
-0.66669 0.74163 13.787
0.0987581 -0.573248 21.4062
-0.877167 -0.485755 19.9141
-0.467568 -0.185838 19.8024
-0.423833 -0.312355 19.6369
-0.840945 -0.646056 21.2426
-1.54137 -0.76844 20.4294
-1.84694 -1.73099 20.4249
-0.153663 -0.272777 21.6545
-0.487151 -0.499426 21.5049
-0.310083 -0.526863 21.6438
0.256946 0.0912045 21.7429
0.0578649 -0.0917902 21.7633
0.114745 0.0144361 21.8101
0.651205 0.313182 21.6228
0.550404 0.199646 21.6633
0.613983 0.510381 21.6195
0.943489 0.228985 20.8527
0.833399 0.263929 21.0406
1.03249 0.898658 21.8803
0.586808 0.228177 21.2903
0.720076 0.759203 21.4975
-1.09634 -0.372383 19.7198
-0.529022 -0.0636528 19.7115
-0.515655 -0.219521 19.5263
-1.08612 -0.655271 21.3187
-1.96451 -0.29941 20.3689
-0.220399 -0.376812 21.7532
-0.868649 -0.623633 21.5461
0.337696 0.0151691 21.8285
0.0226281 -0.260514 21.9389
0.943365 0.206078 21.7111
0.720044 0.00556043 21.7978
1.15119 0.155862 21.8568
0.937311 -0.234807 20.9406
1.28032 1.14842 20.342
0.627343 -0.0712907 21.3422
0.768723 0.348096 18.2646
-1.23898 0.107972 19.6728
-0.495947 0.181017 19.786
-0.595828 0.0495685 19.4364
-1.53712 -0.194053 21.1105
-1.40596 0.53578 20.3043
-0.670725 -0.439395 21.9227
-1.40588 0.0735976 21.3809
0.340151 -0.17891 21.9268
-0.250444 -0.189262 21.9977
0.921812 -0.179533 21.7977
0.500128 -0.353533 21.7114
0.95279 -0.294333 21.4508
0.725056 -0.628143 21.1325
1.91183 -0.0202163 19.5593
0.518051 -0.498943 21.0296
1.28142 -0.283863 19.4448
-0.675625 0.424793 20.0297
-0.424312 0.34128 19.7611
-1.05216 0.498631 20.7939
-1.06885 0.945769 20.2044
-0.757316 0.193464 21.7701
-1.52108 0.888217 21.2641
0.0750072 -0.231025 21.8552
-0.361185 0.000282568 22.1069
0.395386 -0.361575 21.2922
0.331961 -0.484023 21.7114
0.600559 -0.457881 21.1252
0.506608 -0.62171 21.0437
0.590177 -0.58266 21.1493
-0.956184 -1.25273 19.0084
-0.36237 -0.32238 19.3617
0.00762018 -0.453403 19.2914
-0.794468 -0.971142 21.9388
0.067439 -5.27971 20.6051
-0.106235 -0.0599628 21.2053
0.0355077 -0.794575 19.4225
0.149745 0.424167 20.0622
-0.0241138 -0.101713 16.9075
0.439558 0.952488 18.8685
0.352669 0.466706 13.4666
0.93663 1.23076 16.7876
1.36478 1.39073 13.3295
0.183065 1.30171 12.2494
0.845759 0.732269 14.09
-0.12809 0.893978 12.7813
-0.493129 -0.122407 19.1229
0.0167628 -0.330115 19.0456
1.37438 0.820589 11.3292
2.30926 0.762741 10.9775
-1.3072 -1.11682 -3.62181
1.64583 0.14253 14.254
-0.334002 0.464109 7.68356
-0.441257 0.383901 19.3143
0.0145018 0.103483 18.7811
1.96804 -0.648978 16.2285
1.2597 -1.08554 19.0111
-0.698479 -1.93143 -2.00361
0.765689 -0.920402 19.2044
-0.053793 -1.10904 7.7755
-0.659693 0.963244 19.5762
0.0127639 0.563736 19.426
-1.25591 1.52564 20.4857
0.0325074 2.15694 19.8206
-1.30926 1.15452 22.4466
0.0184002 3.55778 20.6906
-0.0325856 -0.410676 22.0901
-0.00128757 0.498832 22.6977
0.27623 -0.677191 21.5493
0.00476443 -0.622567 21.8891
0.30803 -0.694751 20.5312
-0.0671499 -1.09661 20.7321
0.022671 -0.190893 21.0649
0.98657 -1.21212 19.0569
0.375542 -0.322317 19.3625
0.43214 -0.306605 19.6517
0.791196 -0.949806 21.9117
1.8023 -1.59858 20.4239
0.094856 -0.0496409 21.2237
0.318106 -0.529241 21.6394
-0.156349 0.521567 20.0606
-0.0831224 0.00578869 21.831
-0.56711 1.40251 19.4167
-0.728846 0.620424 21.6835
-1.06367 1.62011 17.2691
-1.176 1.86156 14.7211
-0.998655 1.00582 21.5489
-1.22741 0.857821 15.4614
-0.704681 0.778502 21.5701
0.509771 -0.117918 19.1528
0.522857 -0.219495 19.5349
-1.77544 1.03908 14.3887
-2.03852 1.04867 10.8243
-1.63145 0.857668 19.4102
-1.53599 0.276148 15.1678
-0.938585 0.0377831 18.82
0.450467 0.37584 19.3255
0.597722 0.0505977 19.4495
-1.54699 -0.625204 15.7498
-1.21565 -1.30335 18.8138
-1.52016 -0.522211 20.6951
-0.858562 -0.933758 18.8839
-0.922793 -0.175711 19.6083
0.668984 0.935868 19.5931
0.428674 0.337216 19.7719
1.27495 1.487 20.5002
1.06891 0.922229 20.2158
1.31804 1.15149 22.4491
1.51696 0.865768 21.2694
0.0573662 -0.413351 22.1092
0.374651 -0.00456949 22.1228
-0.308655 -0.774769 21.3928
-0.322917 -0.505281 21.6944
-0.21249 -0.710519 21.6532
-0.500235 -0.737722 21.5072
-0.46959 -0.651781 21.0945
0.865044 -0.474855 19.9416
0.47911 -0.170032 19.8245
0.835058 -0.637189 21.229
1.52438 -0.746734 20.4254
0.151603 -0.268005 21.6621
0.486656 -0.502201 21.5062
-0.283936 0.0946887 21.7916
-0.0484652 -0.096381 21.7865
-0.759261 0.389994 21.4383
-0.634542 0.211482 21.7128
-0.980101 0.348023 20.9105
-0.928899 0.255283 21.2542
-0.537525 -0.0660116 21.1806
1.09552 -0.368317 19.7368
0.540358 -0.0712444 19.7201
1.09043 -0.662671 21.3229
2.0165 -0.307299 20.3523
0.226503 -0.383315 21.7565
0.881163 -0.631765 21.5546
-0.36406 0.00722416 21.8781
-0.0150985 -0.256397 21.9465
-0.973697 0.185746 21.4572
-0.789396 -0.0337686 21.8157
-0.982955 0.176616 21.3147
-1.24694 -0.137266 21.2201
-0.509858 -0.233505 21.2204
1.23236 0.103884 19.701
0.499174 0.171727 19.7962
1.54995 -0.192428 21.1221
1.40203 0.530537 20.3066
0.673302 -0.44706 21.9296
1.41706 0.0723467 21.3871
-0.346505 -0.198779 21.9662
0.26766 -0.197249 21.9869
-0.944954 -0.25863 21.5399
-0.51159 -0.399004 21.6877
-1.00508 -0.322339 21.2606
-0.658908 -0.489148 21.2423
-0.450383 -0.443359 21.1506
0.671192 0.411211 20.0393
1.04811 0.487458 20.7977
0.76615 0.191718 21.7743
-0.0664957 -0.246401 21.8574
-0.406148 -0.394942 21.4236
-0.433471 -0.347216 20.8003
-1.01066 -0.437194 19.8065
-1.17104 -1.20946 18.5891
-1.01663 -0.824895 19.5241
-1.41287 -0.65827 19.0879
-0.472043 -0.282762 19.5763
-2.59816 -1.96042 20.3377
-0.954919 -0.653516 21.2873
-0.321236 -0.414182 17.6533
-0.803963 -0.901979 21.553
-0.984345 -1.1234 21.8022
-0.287901 -0.653041 21.6448
-0.175986 -0.301368 21.6805
0.116442 0.0570185 16.3208
-0.0627263 -0.24289 21.7736
0.00550606 -0.473615 21.3737
0.193862 -0.0333444 21.7556
0.286508 0.0732365 21.7568
0.135617 0.40826 13.975
0.319187 0.256316 21.7875
0.486531 0.200433 21.0387
0.793572 0.499211 21.3446
0.798272 0.23078 21.6359
0.350671 1.24436 13.9797
0.72965 0.690645 21.3083
1.08068 0.589435 20.7253
1.09044 0.848302 21.6794
1.16722 0.221876 21.5511
1.24777 1.07374 12.2957
0.967012 0.804798 21.6901
1.33525 0.472934 20.3225
0.722103 0.616469 20.2612
-1.1919 -0.146724 19.6453
-1.71367 -0.355684 17.6426
-1.67353 0.29549 18.9472
-0.577514 -0.0943075 19.4546
-4.47859 -0.732856 19.9372
-1.33782 -0.516035 21.2636
-2.18105 -0.440564 21.5007
-0.936135 -1.20014 20.7605
-0.39634 -0.481293 21.8519
-0.907003 -1.03691 21.7285
0.211398 -0.32913 20.6849
0.369834 -0.0820165 21.8898
0.639889 -0.144634 21.0206
1.02319 0.324667 19.7761
0.878972 -0.0200503 21.4837
0.203952 2.12182 3.20701
1.32709 -0.283745 21.218
1.94924 0.306983 19.4893
1.16906 -0.0460919 21.3829
1.71211 0.345912 11.5778
1.37244 -0.173659 19.6836
1.39017 0.0555106 19.5883
-0.952998 0.398596 19.8273
-1.12647 1.21964 18.8267
-0.737944 0.676876 19.8195
-0.534539 0.267833 19.5702
-1.98809 1.2311 20.0993
-1.42586 0.302503 20.8772
-2.48427 1.6844 20.4915
-1.29304 0.913691 20.6834
-2.51632 0.365865 21.381
-0.920088 -0.112615 21.9068
-0.850658 0.535035 14.7293
-1.05094 0.470206 22.0439
-0.382687 -0.221651 22.3605
0.21588 -0.274287 21.8962
1.04072 -0.334484 16.7657
0.0935439 -0.350661 22.0098
0.672664 -0.630158 21.8658
0.675424 -0.420214 21.4617
0.960469 -1.15423 19.9222
0.448719 -0.529909 21.2927
0.730618 -0.776122 21.7382
0.703753 -0.43889 21.417
1.35183 -1.17929 18.6676
0.295606 -0.500427 20.9422
0.538517 -0.73187 21.6226
1.2141 -1.17121 18.6208
0.0324039 -1.80713 18.4101
0.0169158 -1.55324 17.063
0.014533 -0.404008 19.1694
0.0293008 -8.57889 21.0576
0.357046 -0.432076 18.0139
0.043918 -1.64015 21.6306
0.0610196 -0.376119 10.4444
-0.132322 0.0574535 16.5181
0.0535157 -0.31371 17.7455
-0.0827092 0.0284824 8.46222
-0.26682 0.477411 13.6276
0.151496 0.185973 14.9159
0.639056 0.135221 3.87666
-0.784693 1.70261 14.8934
0.791673 0.176928 12.3469
-0.284614 -2.7148 -4.13487
-0.562067 0.0924474 4.31381
-1.44155 1.57659 14.9542
0.0324122 1.09305 11.8276
-0.0882243 0.679306 4.84543
-0.245442 0.723355 10.2998
1.73068 -0.360909 17.7029
0.0235663 1.0039 16.1175
0.0197067 -0.154999 18.7902
-0.439146 1.13862 4.65379
0.105467 -0.86634 1.26774
-1.34825 -2.10518 -5.33257
-1.60874 0.682782 12.8529
-0.0469653 -1.63416 4.67759
-0.0711697 -0.742961 3.31717
1.14157 1.18451 18.8613
0.0201122 1.32717 19.3251
0.0128968 0.476591 19.0406
0.029403 4.55665 19.3348
2.48957 1.64044 20.4984
0.0318031 2.28542 20.218
0.0196332 6.04088 17.7049
0.867091 0.528113 14.7682
0.00528289 2.37152 22.985
0.00159539 -0.0582511 9.08245
-1.00587 -0.327243 16.3834
-0.00263462 -0.166966 22.1988
-0.0996885 -0.325391 6.95105
-0.896175 -1.18124 19.63
-0.0134842 -0.82529 21.4617
0.168102 -1.14307 11.3041
-1.05173 -1.21976 18.3961
-0.0852058 -0.489277 20.6945
-0.0471754 -0.923412 17.8168
0.995355 -0.4282 19.8402
1.00083 -0.771152 19.5712
1.40491 -0.652958 19.1124
0.474184 -0.278852 19.5859
2.54484 -1.87687 20.343
0.954021 -0.6492 21.2785
0.817957 -0.887764 21.5167
0.977697 -1.1216 21.7768
0.300056 -0.653563 21.6622
0.174925 -0.303325 21.6886
0.0665677 -0.241351 21.765
-0.00270192 -0.470766 21.3467
-0.150095 -0.0338083 21.7758
-0.319062 0.0796772 21.8123
-0.352095 0.287282 21.8552
-0.52402 0.19305 21.1017
-0.955311 0.581123 21.4372
-0.88365 0.287582 21.4488
-0.911045 0.810053 21.2584
-1.39494 0.594018 20.7452
-1.72981 0.890979 20.672
-0.970909 0.279208 21.2193
-0.985026 0.602534 20.3991
-1.33722 0.285865 19.4672
-0.748117 0.504242 20.4775
1.21142 -0.161897 19.6906
1.66267 0.289666 18.9674
0.584242 -0.0919118 19.4688
4.54359 -0.746148 19.9325
1.35787 -0.521524 21.2688
2.18464 -0.455134 21.4908
0.929115 -1.21253 20.6626
0.402387 -0.484024 21.8683
0.910228 -1.05892 21.6833
-0.199201 -0.325439 20.6894
-0.389936 -0.0985687 21.9241
-0.623207 -0.19042 21.0428
-1.16285 0.222777 19.9691
-1.03564 -0.0926362 21.6109
-1.44342 -0.423344 21.159
-1.85631 -0.0558212 20.4352
-1.07599 -0.0664269 21.3577
-1.36294 -0.779258 19.9425
-1.02289 -0.0252715 19.6276
0.950123 0.392069 19.8377
0.741065 0.65907 19.8355
0.547165 0.263828 19.5829
1.98157 1.20442 20.1063
1.42839 0.300187 20.8809
1.29229 0.89024 20.6939
2.51776 0.359849 21.3855
0.927844 -0.114828 21.9141
1.05854 0.468935 22.048
0.394458 -0.236441 22.3605
-0.212087 -0.288002 21.9074
-0.0768316 -0.359723 22.0353
-0.655543 -0.698473 21.9019
-0.659203 -0.481163 21.513
-0.404484 -0.590651 21.2721
-1.08318 -0.928838 21.0923
-0.738307 -0.440563 21.1219
-0.410998 -0.656624 21.3217
-0.494513 -0.82676 21.5322
-1.21234 -0.805266 19.3141
-0.887838 -0.979189 21.6891
-0.0012353 -0.335394 21.7127
0.418982 0.231006 21.5377
0.995132 0.571029 21.1339
1.20889 0.725815 21.2788
-1.65611 -0.26137 18.8924
-1.7341 -1.12607 21.8355
-0.22786 -0.788216 20.6069
0.557055 0.095391 20.3324
1.39082 0.182353 20.3555
1.56037 0.0591782 19.7191
-1.15582 0.722732 19.4222
-2.04241 0.637984 20.8063
-1.47439 -0.074574 22.3684
0.337416 -0.450399 22.125
0.768866 -0.782815 21.7151
0.76809 -0.688072 22.1001
0.0281345 -1.74473 17.7543
0.0183827 -0.644734 11.7762
-0.0108745 -0.0391301 8.76892
0.369158 0.117962 6.8633
0.824676 -1.09863 0.619512
-0.0382996 1.04901 7.73589
0.0168969 -0.50421 16.2099
-0.362881 -1.90095 -1.92593
-0.281122 -0.64312 -0.492392
0.0237666 1.834 18.1298
0.0256635 3.36276 19.9807
0.00272465 0.779957 8.65018
-0.0849091 0.187238 5.14576
-0.0224938 -0.739925 10.5544
0.0946137 -1.23328 16.7965
1.20111 -0.787308 19.3516
0.895932 -0.970483 21.6667
0.00854794 -0.340106 21.7347
-0.460272 0.248899 21.592
-1.2577 0.67665 21.2774
-1.20796 0.521342 19.7054
1.65869 -0.25153 18.9225
1.73996 -1.14186 21.8242
0.224141 -0.788739 20.5324
-0.573295 0.055581 20.3867
-1.64017 0.0556472 20.6522
-1.6157 -0.215666 19.0732
1.15627 0.70544 19.4473
2.03768 0.627732 20.8107
1.48468 -0.0873348 22.3744
-0.31076 -0.47942 22.148
-0.786058 -0.813142 21.5417
-0.660789 -0.727895 20.5425
-1.65284 -0.579977 2.10939
-0.0399984 -0.340694 0.774072
-0.00910942 -0.0187606 0.720602
0.0825315 0.0240432 0.462055
-0.0211496 -0.0125102 -0.00926092
0.0033107 0.00357506 0.0905182
0 0 0
-0.447213 2.97733 1.84884
-0.507897 -0.0956377 1.85329
-0.0150337 0.0364654 0.0168303
0.340181 0.333793 -0.244653
0.309338 0.283201 0.85462
0.0509448 -0.331314 0.737635
1.62752 -0.571361 2.07525
0.00933173 -0.0183803 0.720394
0.158187 0.0205593 0.0337271
-0.124899 -0.03734 0.538867
-0.00433672 0.00356901 0.0939138
0.448017 2.97477 1.84958
0 0 0
0.508925 -0.0962302 1.85553
0.0114002 0.141006 -0.134541
0.0158406 0.0174539 0.0205308
-0.255794 0.230014 0.861715
0.00487792 -0.00283112 0.11236
-0.0217573 0.0362258 1.66841
0 0 0
0 0 0
0.00590414 0.241701 2.55102
-0.010708 0.0126957 0.471303
-0.00140179 0.0109851 0.0640169
0 0 0
-0.140143 -0.21762 0.497474
-7.9605e-06 -6.70216e-05 0.000711615
0.00159842 0.0186344 0.0659697
-5.81614e-05 1.86231e-05 4.65426e-05
0.0132046 0.0425739 0.0866983
0.00273265 0.0213829 0.0714267
0.00889669 0.0423642 0.0990582
0.0164347 -0.0041448 0.116424
-0.00454157 -0.00293489 0.115932
0 0 0
-0.00118465 0.0210237 1.65551
0 0 0
-0.0739247 0.1311 2.01478
0 0 0
0.0126138 0.0105536 0.42331
0.00169414 0.0123876 0.0645612
0.140469 -0.218253 0.497791
0.000145839 4.68346e-05 0.000116822
7.22954e-06 -6.06146e-05 0.000635369
-0.0016052 0.0186518 0.0659852
-0.0127439 0.0408014 0.0865522
-0.0162089 -0.00411199 0.116042
-0.00272616 0.0213374 0.0721792
-0.00890383 0.0424127 0.0993753
-0.000307697 -7.56193e-05 0.0146074
-0.0839617 0.115418 0.121888
2.13777e-05 -0.000651507 0.0139693
-0.000324852 -0.169642 0.0858673
1.33434e-05 -0.000283392 0.0113863
0.00217001 -0.000919385 0.0264771
0 0 0
0 0 0
0.00142378 0.000445818 0.0201401
0.0925189 0.17655 -0.034201
-5.37181e-05 0.00208259 0.0118551
0.0118184 0.00726425 0.217598
-1.72268e-06 0.157377 0.0723658
0 0 0
0 0 0
7.52742e-05 -3.12543e-05 -0.000217638
0 0 0
0 0 0
-7.70217e-06 -7.3293e-05 -0.000178993
0 0 0
0.0957842 0.119783 0.124849
0.000305622 -7.99781e-05 0.014691
0 0 0
-1.30768e-05 -0.000265599 0.0109133
0 0 0
0 0 0
-0.00712589 0.0121707 0.124974
4.15987e-05 0.0017526 0.0119659
-1.68689e-05 -6.98245e-06 -4.86207e-05
0 0 0
0 0 0
-0.00109846 0.0103694 0.0277178
-0.000115481 0.000807145 0.00630846
0 0 0
-0.00158666 -0.00415062 0.0406245
0 0 0
-0.000529436 -6.06297e-05 0.0701803
0.000357904 0.000747325 0.021643
0 0 0
0.00341959 0.0112022 0.0566667
-0.00244502 0.000180841 0.0855886
0.0302221 0.0186702 0.77915
0.000351064 0.00272135 0.0076461
-0.000337446 0.0058181 0.0951296
-1.02314e-07 -1.09808e-05 -5.76792e-05
0.000122477 0.218168 0.428822
2.45229e-05 -3.61437e-05 0.0185589
0 0 0
0 0 0
0.000121716 0.000839343 0.00630291
0.00164314 -0.0042753 0.042272
0 0 0
0 0 0
-0.00342563 0.0104599 0.0579306
0.000422939 0.0056348 0.0926211
-0.000337135 0.00261421 0.00731077
-0.0134724 -0.00506593 0.398993
-0.00262063 -0.00336622 0.0433304
-0.00703858 -0.0339486 0.3203
-6.24286e-06 -4.89078e-05 0.000242895
-5.08131e-06 3.1353e-05 0.000434297
0.000118296 0.000918112 0.00315433
-0.00029872 0.00237103 0.0169473
0.00180558 0.0139174 0.043097
0.00334092 0.00780489 0.0581046
0.00283076 0.019275 0.0634457
0.00080029 0.00801771 0.0861828
0 0 0
0 0 0
-0.000238565 -0.00123107 0.0294454
0.00245543 0.00193194 0.0790585