# vtk DataFile Version 2.0
tri_press
ASCII
DATASET UNSTRUCTURED_GRID
POINTS 3682 float
-0.695 0.335 -2.6613
-0.825 0.405 2.72748
-0.758464 0.845 -2.575
-0.825 1.15067 2.665
0.695 0.335 -2.6613
0.825 0.405 2.72748
0.758457 0.845 -2.575
0.825 1.15067 2.665
-0.814765 0.281901 -0.86504
-0.862233 0.3011 0.93122
-0.847156 1.0134 -0.828334
-0.848525 1.09448 0.918333
0.815723 0.280944 -0.86504
0.862232 0.301102 0.93122
0.84693 1.01318 -0.828334
0.84853 1.09449 0.918333
-1.51057 -0.0694299 -4.09342
-1.51883 -0.0272751 -2.67628
-1.61424 -0.0620071 -0.878736
-1.68088 -0.0649678 0.928788
-1.67785 0.00906513 2.72717
-1.67023 0.0735893 4.14843
-1.66885 0.131227 5.56207
-1.50706 0.251308 -4.0681
-1.51363 0.31766 -2.65637
-1.62849 0.30235 -0.868482
-1.69032 0.311971 0.923874
-1.67164 0.390316 2.71272
-1.66566 0.454003 4.13328
-1.66701 0.51 5.54854
-1.53484 0.842246 -4.00354
-1.55865 0.906084 -2.58976
-1.65468 1.01996 -0.835679
-1.68638 1.08645 0.914891
-1.66944 1.14781 2.66993
-1.66496 1.20835 4.09254
-1.66706 1.26387 5.5158
-1.58355 1.84278 -3.94399
-1.60327 1.92522 -2.53764
-1.64485 2.06555 -0.799632
-1.67315 2.18857 0.927684
-1.67809 2.27431 2.66621
-1.67584 2.33038 4.07364
-1.67432 2.38274 5.49148
-0.72784 -0.0600279 -4.09662
-0.71484 -0.0142882 -2.68095
-0.79201 -0.0712201 -0.87811
-0.846777 -0.0741319 0.935057
-0.842283 0.0146612 2.73813
-0.835473 0.0782592 4.15587
-0.835103 0.133784 5.56638
-0.72517 0.253445 -4.06909
-0.829682 0.460183 4.13941
-0.83289 0.513277 5.55179
-0.747424 0.818446 -3.99741
-0.829207 1.21213 4.09155
-0.832883 1.26697 5.51558
-0.779456 1.82556 -3.93792
-0.789277 1.90844 -2.53096
-0.818656 2.0608 -0.795605
-0.84077 2.19252 0.9272
-0.844575 2.27889 2.66276
-0.842423 2.33397 4.07019
-0.841276 2.38558 5.48898
0.773235 -0.0601942 -4.09662
0.767084 -0.0145217 -2.68095
0.829464 -0.0718761 -0.87811
0.850179 -0.0742706 0.935057
0.826948 0.0146295 2.73813
0.829663 0.0782121 4.15587
0.830942 0.133713 5.56638
0.757296 0.253344 -4.06909
0.830942 0.460153 4.13941
0.832117 0.513218 5.55179
0.774011 0.818369 -3.99741
0.830799 1.2121 4.09155
0.831743 1.26692 5.51558
0.812656 1.82541 -3.93792
0.822423 1.90827 -2.53096
0.83129 2.06063 -0.795605
0.829106 2.19239 0.9272
0.825346 2.27881 2.66276
0.82495 2.3339 4.07019
0.824642 2.3855 5.48897
1.54349 -0.0698261 -4.09342
1.54321 -0.0278241 -2.67628
1.63056 -0.0629636 -0.878736
1.68286 -0.0653472 0.928787
1.67084 0.00894497 2.72717
1.66567 0.0734646 4.14843
1.66443 0.131068 5.56207
1.52419 0.251007 -4.0681
1.50621 0.317282 -2.65637
1.62231 0.301331 -0.868482
1.68935 0.311668 0.923874
1.67234 0.390254 2.71272
1.66623 0.453912 4.13328
1.66525 0.509863 5.54854
1.54531 0.842006 -4.00354
1.5471 0.905851 -2.58976
1.64419 1.01941 -0.835679
1.6833 1.08623 0.914891
1.66997 1.14776 2.66993
1.66543 1.20827 4.09254
1.66453 1.26374 5.51579
1.60806 1.84245 -3.94399
1.62415 1.92487 -2.53764
1.64969 2.06519 -0.799633
1.66086 2.1883 0.927683
1.66022 2.27412 2.66621
1.65867 2.3302 4.07364
1.6572 2.38255 5.49148
-0.773281 0.59 -2.6647
0 0.319571 -2.67673
-0.78118 0.282154 -1.76317
-0.781586 0.777835 2.65283
0 0.403462 2.72902
-0.866717 0.32995 1.82935
-3.48687e-06 0.870182 -2.60018
-0.846298 0.97269 -1.70167
0 1.14648 2.66081
-0.836387 1.1222 1.79167
0.773276 0.59 -2.6647
0.781141 0.282192 -1.76317
0.78159 0.777835 2.65283
0.866714 0.329953 1.82935
0.846303 0.972701 -1.70167
0.836386 1.1222 1.79167
-0.846205 0.283795 0.03309
-0.89429 0.647652 -0.846687
0.000478712 0.215641 -0.86504
-0.890017 0.697792 0.924777
-7.0596e-07 0.227812 0.93122
-0.852091 1.05819 0.045
-0.000113129 1.28766 -0.828334
2.30165e-06 1.6553 0.918333
0.846054 0.283946 0.03309
0.894342 0.647063 -0.846687
0.890024 0.697796 0.924777
0.852091 1.0582 0.045
-0.880366 0.618826 -1.73242
0.880368 0.618531 -1.73242
0.000239356 0.254977 -1.76317
-5.83078e-05 1.05134 -1.70167
-1.74344e-06 0.59 -2.76337
-0.892166 0.672722 0.039045
0.892198 0.67243 0.039045
0.000239003 0.224052 0.03309
-5.54135e-05 1.66966 0.045
-0.873105 0.737814 1.81051
0.873107 0.737816 1.81051
-3.5298e-07 0.231534 1.82935
1.15083e-06 1.18817 1.79167
0 0.777835 2.65282
-0.764525 0.4625 -2.69338
-0.3475 0.319585 -2.67672
-0.764617 0.28205 -2.21223
-0.855765 0.591418 2.74262
-0.4125 0.404967 2.72751
-0.86274 0.350593 2.27841
-0.661077 0.7175 -2.51505
-0.379234 0.870182 -2.60018
-0.841689 0.948152 -2.13833
-0.790968 0.964253 2.64659
-0.4125 1.14868 2.66301
-0.827175 1.13292 2.22833
0.3475 0.319557 -2.67674
0.764509 0.4625 -2.69337
0.764569 0.282098 -2.21223
0.4125 0.404984 2.7275
0.855642 0.591418 2.7425
0.862751 0.350582 2.27841
0.379227 0.870182 -2.60018
0.661116 0.7175 -2.5151
0.841692 0.948162 -2.13833
0.4125 1.14871 2.66304
0.790962 0.964253 2.64658
0.82717 1.13291 2.22833
-0.798782 0.281218 -1.31411
-0.83047 0.282864 -0.415975
-0.885084 0.449499 -0.855864
-0.404803 0.253451 -0.86504
-0.875416 0.304584 1.38029
-0.860435 0.286232 0.482155
-0.89372 0.490649 0.927998
-0.435685 0.255319 0.93122
-0.845663 0.991983 -1.265
-0.878281 0.834307 -0.83751
-0.853957 1.04013 -0.391667
-0.492143 1.28755 -0.828334
-0.845183 1.11107 1.355
-0.872632 0.897819 0.921555
-0.85032 1.07635 0.481667
-0.561588 1.64955 0.918333
0.798755 0.281245 -1.31411
0.411411 0.241672 -0.86504
0.830356 0.282977 -0.415975
0.884983 0.449028 -0.855864
0.875431 0.304569 1.38029
0.432337 0.262015 0.93122
0.860466 0.2862 0.482155
0.893721 0.490652 0.927998
0.845662 0.991987 -1.265
0.491951 1.28751 -0.828334
0.878312 0.833961 -0.83751
0.853965 1.04014 -0.391667
0.845181 1.11107 1.355
0.561594 1.64955 0.918333
0.872632 0.897821 0.921555
0.850319 1.07635 0.481667
-0.892294 0.604413 -2.19856
-0.386642 0.59 -2.76341
0.000119678 0.266312 -2.21995
-8.71718e-07 0.454786 -2.76696
-0.880649 0.45049 -1.74779
-0.39047 0.262664 -1.76317
-0.877517 0.757824 2.23167
-0.390793 0.777835 2.65282
-1.7649e-07 0.279013 2.27918
0 0.590649 2.77383
-0.873478 0.533882 1.81993
-0.433358 0.243731 1.82935
-3.08973e-05 0.985855 -2.15092
-2.61515e-06 0.730091 -2.58968
-0.875742 0.795758 -1.71704
-0.423178 1.05135 -1.70167
5.75413e-07 1.16127 2.22624
0 0.962159 2.64678
-0.864452 0.930007 1.80109
-0.418193 1.18817 1.79167
0.8923 0.604266 -2.19856
0.386637 0.59 -2.76337
0.880642 0.450362 -1.74779
0.39069 0.266961 -1.76317
0.877512 0.757825 2.23167
0.390795 0.777835 2.65282
0.873478 0.533884 1.81993
0.433357 0.252317 1.82935
0.875743 0.795616 -1.71704
0.423122 1.05135 -1.70167
0.865692 0.930009 1.80109
0.418194 1.18817 1.79167
-0.88904 0.468332 0.0360675
-0.424178 0.251533 0.03309
-0.894195 0.633239 -1.28955
-0.893267 0.660187 -0.403821
0.000359034 0.242542 -1.31411
0.000358857 0.224973 -0.415975
-0.891093 0.685257 0.481911
-0.879486 0.717803 1.36764
0.000119148 0.226199 0.482155
-5.2947e-07 0.222037 1.38029
-0.875446 0.867117 0.0420225
-0.576077 1.66394 0.045
-8.57182e-05 1.11493 -1.265
-8.42711e-05 1.59531 -0.391667
-2.65559e-05 1.66993 0.481667
1.72624e-06 1.45335 1.355
0.889026 0.468238 0.0360675
0.419615 0.261062 0.03309
0.89426 0.632797 -1.28955
0.893307 0.659746 -0.403821
0.891111 0.685113 0.481911
0.879505 0.717806 1.36764
0.875459 0.866971 0.0420225
0.576022 1.66394 0.045
-0.89554 0.456495 -2.2054
-0.896645 0.457633 -1.30183
-0.88025 0.813143 -1.27728
-0.885224 0.756629 -2.16845
0.89554 0.456431 -2.2054
0.885256 0.756558 -2.16845
0.880273 0.812869 -1.27728
0.89665 0.457183 -1.30183
-0.368985 0.270849 -2.21609
0.369095 0.269925 -2.21609
0.399395 0.253719 -1.31411
-0.398807 0.252017 -1.31411
-0.401206 0.986855 -2.14463
-0.423406 1.11494 -1.265
0.423265 1.11494 -1.265
0.401175 0.986855 -2.14463
-0.367071 0.458643 -2.76763
-0.382938 0.723795 -2.46495
0.382932 0.723795 -2.46495
0.367069 0.458643 -2.76763
-0.887065 0.458914 -0.409898
-0.89138 0.47949 0.482033
-0.874023 0.88246 0.481789
-0.87686 0.85071 -0.397744
0.887005 0.458632 -0.409898
0.876882 0.850464 -0.397744
0.874029 0.882388 0.481789
0.891374 0.479445 0.482033
-0.413772 0.253929 -0.415975
0.410406 0.261581 -0.415975
0.425821 0.261847 0.482155
-0.429205 0.254879 0.482155
-0.59389 1.5953 -0.391667
-0.575367 1.66981 0.481667
0.57534 1.66981 0.481667
0.593764 1.59528 -0.391667
-0.883702 0.516664 1.37396
-0.894642 0.56265 2.25504
-0.860205 0.94713 2.23
-0.870538 0.913073 1.36132
0.883701 0.516667 1.37396
0.870545 0.913076 1.36132
0.860156 0.947131 2.23
0.894637 0.562651 2.25504
-0.432238 0.243456 1.38029
0.432236 0.246792 1.38029
0.422928 0.298213 2.2788
-0.422929 0.213916 2.2788
-0.421227 1.45335 1.355
-0.415346 1.1612 2.22729
0.415347 1.1612 2.22729
0.42123 1.45335 1.355
-0.401647 0.591033 2.77371
0.401648 0.591033 2.77376
0.401648 0.963206 2.64677
-0.401647 0.963206 2.64677
-0.734697 0.39875 -2.68228
-0.52125 0.319592 -2.67671
-0.755562 0.282771 -2.43677
-0.843226 0.498209 2.7379
-0.61875 0.404967 2.72751
-0.862818 0.358848 2.50295
-0.684723 0.78125 -2.51998
-0.568849 0.870182 -2.60018
-0.827962 0.924462 -2.35667
-0.797889 1.05746 2.6457
-0.61875 1.14864 2.66297
-0.82199 1.1377 2.44667
0.52125 0.31955 -2.67675
0.734684 0.39875 -2.68226
0.755562 0.282771 -2.43677
0.61875 0.404989 2.72749
0.843272 0.498209 2.73794
0.862819 0.358848 2.50295
0.568842 0.870182 -2.60018
0.684693 0.78125 -2.51996
0.82796 0.924467 -2.35667
0.61875 1.14842 2.66275
0.797877 1.05746 2.64569
0.821991 1.1377 2.44667
-0.807109 0.281224 -1.08957
-0.822588 0.282412 -0.640508
-0.869305 0.35601 -0.860452
-0.608737 0.269771 -0.86504
-0.886297 0.28537 1.15575
-0.861441 0.293559 0.706688
-0.8743 0.397713 0.929609
-0.651241 0.273647 0.93122
-0.845346 1.00163 -1.04667
-0.868287 0.926639 -0.832922
-0.854922 1.03113 -0.61
-0.722136 1.25545 -0.828334
-0.846963 1.10289 1.13667
-0.858598 0.995161 0.919944
-0.849434 1.08543 0.7
-0.758098 1.4781 0.918333
0.807309 0.281024 -1.08957
0.612344 0.263754 -0.86504
0.823178 0.281822 -0.640508
0.869248 0.355538 -0.860452
0.887563 0.284103 1.15575
0.651259 0.273609 0.93122
0.861448 0.293552 0.706688
0.874314 0.397708 0.929609
0.845343 1.00163 -1.04667
0.722026 1.25552 -0.828334
0.868321 0.926421 -0.832922
0.854935 1.03115 -0.61
0.846966 1.10289 1.13667
0.758099 1.4781 0.918333
[...]
POINT_DATA 3682
SCALARS point_scalars float 1
LOOKUP_TABLE default
-58.759
-45.1443
12.8776
-47.0955
-59.0589
-52.1692
12.6656
-50.9681
-39.423
-38.4777
-55.2652
-52.6169
-40.2616
-37.001
-55.3801
-52.9298
58.6502
-76.7706
-40.876
-40.1301
-47.1912
-42.6076
-42.4759
97.6748
-82.2002
-39.9314
-42.196
-48.573
-42.3288
-42.3288
85.2048
-143.824
-49.693
-49.8805
-45.8187
-46.7122
-41.2177
29.352
-77.6703
-115.897
-66.0446
-47.7059
-46.7122
-46.7122
101.126
-109.129
-39.007
-38.3333
-45.4853
-38.5406
-37.6697
138.481
-37.6697
-37.6697
155.544
-46.7122
-38.033
83.8493
-77.2125
-80.8738
-67.8024
-46.6512
-46.7122
-46.7122
109.16
-97.2783
-39.7136
-42.3255
-52.0736
-44.8133
-43.4925
113.221
-43.4925
-43.4925
149.651
-50.8672
-43.1653
82.6785
-77.3384
-82.5486
-67.739
-49.6297
-50.8672
-50.8672
58.6844
-77.4256
-41.3276
-52.5172
-52.8673
-49.099
-48.7267
97.6281
-84.2736
-40.2302
-42.6072
-54.1608
-48.3437
-48.3437
85.302
-142.156
-49.9114
-50.2769
-49.7289
-50.8672
-46.4134
29.2041
-77.1159
-115.926
-66.0284
-51.1291
-50.8672
-50.8672
-8.16134
-129.699
-44.9273
-41.0211
-35.586
-37.2887
-3.00853
-39.9466
-44.0137
-53.0108
-8.13125
-45.0274
-45.7461
-39.5117
-40.0589
-53.0336
-39.2772
-41.954
-41.4978
-45.7648
-40.6233
-58.0602
45.287
-68.5612
-38.6035
-42.1542
-46.3103
-58.163
-42.8817
-42.9759
-52.5417
-8.47401
197.485
-46.4787
-46.4859
-40.9945
-109.447
-41.4544
-42.8234
-45.0121
-52.1899
-40.6821
-14.4716
-124.908
-70.6701
-43.4995
-35.4534
-42.8533
64.5639
73.1829
-63.3875
-42.4886
-42.3774
-49.8785
-123.437
-14.5234
-70.8579
-42.9347
-49.3296
-45.4597
73.4934
65.0208
-63.5139
-43.3071
-46.8274
-50.2918
-40.7374
-39.0991
-39.8854
-40.032
-43.1946
-39.9799
-42.4598
-39.0614
-35.8194
-46.2376
-63.4913
39.5331
-54.3466
-48.67
-53.7591
-67.9157
-40.4771
-41.8364
-39.3148
-40.2132
-45.6143
-37.512
-39.5202
-42.9196
-35.9423
39.5339
-46.4093
-63.5947
-54.6192
-67.8284
-49.107
-53.9451
-85.1566
189.219
-78.7006
160.124
-42.9142
-50.4803
-44.5929
-38.5681
-43.2534
-35.215
-38.8241
-41.8592
-40.4925
152.039
-42.0867
-12.6205
-49.4554
-41.9652
-45.1772
-53.0676
-85.2975
189.57
-42.9848
-50.5751
-47.0662
-42.1257
-40.4793
-46.7066
-42.19
-12.6525
-46.1941
-52.7841
-42.6657
-42.3376
-37.9382
-46.016
-42.13
-39.9468
-45.7481
-45.5878
-39.1993
-42.4492
-51.3999
-95.0636
17.3845
-93.5723
-83.0621
-53.4781
-42.5274
-39.2151
-38.0711
-46.1051
-45.8675
-46.6895
-51.4738
-95.137
-79.9954
-40.585
-37.4293
-81.9794
-80.0301
-82.1123
-37.5599
-40.6873
-75.7675
-75.8037
-42.2808
-42.7024
-40.9879
10.4985
10.4769
-41.0401
164.08
149.416
149.312
162.694
-41.8839
-42.7206
-49.3022
-52.7108
-41.9729
-52.822
-49.4772
-42.6846
-38.1094
-39.1241
-38.5158
-38.9925
-95.0856
-75.2577
-75.2774
-95.2009
-44.2942
-44.2807
-45.0023
-48.0706
-45.9263
-48.7813
-47.028
-47.0216
-41.1007
-45.0283
-45.004
-43.3403
-55.0957
-49.728
-49.2839
-54.8741
-33.8018
-41.3038
-42.4523
-40.1561
-32.9386
-112.698
-97.0086
-43.7706
-38.31
-45.7568
53.3606
69.189
-85.8807
-43.6764
-41.7458
-45.3148
-114.665
-33.3999
-97.1025
-45.9939
-50.173
-50.0128
79.0193
53.3793
-86.0758
-44.6797
-47.8985
-46.7874
-38.2991
-38.4233
-38.8512
-39.6899
-43.6231
-40.4495
-40.626
-38.8326
-44.8331
-50.1526
-63.6485
-38.8899
-52.9352
-50.2745
-52.5412
-62.526
-38.2922
-41.0364
-39.6774
-39.2979
-52.9238
-35.8077
-39.832
-40.7165
-44.989
-38.4591
-50.3123
-63.8796
-53.2735
-62.5788
-50.6535
-52.7946
-6.30261
13.2343
-91.4579
165.63
-127.929
-126.461
-120.837
55.3949
-54.417
-40.5685
-42.6745
-48.0209
-41.9503
-41.471
-45.827
-38.0988
-33.7903
-38.9511
-41.4544
-32.2233
-44.0803
-39.0416
-37.9713
-40.9575
57.6364
57.7059
-77.1489
165.103
-47.4455
-34.4766
-41.5825
-19.7393
-43.6343
-43.4177
-46.9039
-42.3555
-50.9625
-55.7023
-47.6852
-53.3849
-6.25445
13.6158
-91.7766
167.074
-54.5554
-40.5097
-42.7518
-48.4738
-46.4595
-46.0797
-49.4887
-42.5984
-46.413
-41.7997
-39.7444
-44.3084
-47.5496
-34.5839
-41.6924
-19.8019
-51.1276
-55.7609
-48.3731
-53.1775
-39.4562
-39.5304
-41.4764
-40.3772
-40.8715
-43.5413
-39.5694
-44.4567
-40.0088
-41.725
-39.8389
-42.5379
-44.4832
-46.9655
-45.5579
-46.7428
-40.3873
-40.3549
-39.5297
-42.29
-60.9488
-55.567
-54.4571
-73.1281
44.7705
44.8346
30.0785
8.62235
-68.6296
-68.5784
-75.2169
-60.8227
-38.9868
-39.0653
-41.2386
-38.5869
-41.1165
-43.7234
-39.7394
-44.629
-45.0535
-47.4634
-45.8228
-47.653
-61.0401
-55.7012
-54.5478
-73.24
-56.5288
-42.913
-42.6849
-36.5349
-56.6374
-42.9936
-42.7858
-36.6308
-61.6969
-52.1064
-52.1065
-46.3679
-22.4537
-9.44452
-9.45824
4.53309
195.492
204.057
156.495
195.614
-44.6041
-46.5806
-46.1261
-48.4752
-44.56
-46.602
-46.1678
-48.5189
-43.9507
-40.6905
-39.7077
-40.2985
-106.764
-126.342
-93.4436
-106.792
-43.3541
-40.1524
-42.8733
-42.6009
-45.1313
-41.6665
-44.0772
-43.7956
-44.1299
-42.7588
-45.8156
-42.8281
-51.5106
-52.677
-52.343
-51.9566
-39.6021
-41.8126
-41.1389
-41.53
-83.0542
155.925
-113.415
61.996
-78.5692
-72.3261
-45.3029
-35.9998
-43.345
-31.4414
-44.6116
-45.0573
-118.221
136.284
-76.4128
148.722
-76.6207
-43.0913
-45.5757
-39.2078
-46.5753
-40.6489
-45.6164
-49.8275
-114.312
62.4118
-84.0944
155.816
-78.6379
-72.4965
-45.7848
-41.2232
-49.3878
-42.6555
-47.3961
-46.236
-76.5124
148.616
-118.544
136.672
-76.7514
-43.1814
-46.5239
-42.5238
-48.7931
-42.7456
-47.164
-49.6649
-42.7891
-42.2565
-40.5695
-38.3227
-38.7554
-40.9
-39.8965
-39.2659
-43.9133
-41.9425
-41.9733
-39.181
-42.6433
-46.2772
-38.7362
-42.1356
-37.3456
-3.52654
-40.8872
-50.8291
-57.5933
-102.301
22.0931
-0.452844
-50.202
-57.9807
-48.7491
-48.7394
-51.3008
-62.6394
-70.9926
-64.3411
-42.8699
-41.3892
-39.03
-42.7835
-40.616
-38.8141
-38.9451
-41.1944
-45.8613
-45.2821
-38.3695
-44.1788
-41.8382
-38.3941
-42.6981
-47.8151
-37.4729
-3.5947
22.0835
-0.81963
-41.0383
-51.0091
-57.7092
-102.352
-50.7276
-57.7184
-70.9723
-64.1398
-49.0344
-49.34
-51.4846
-62.7302
-82.3117
-84.6093
202.665
144.318
-77.7664
-77.8546
162.727
162.538
-55.5374
-36.3935
-59.7217
-45.1011
-44.5772
-44.7293
-39.6981
-39.14
-44.0816
-43.2455
-33.076
-38.3769
-40.4303
-41.2363
-41.2916
-42.4551
-40.4531
-40.4751
153.806
153.818
-36.3522
-54.7583
-24.7504
-1.12547
-49.8454
-49.2366
-42.2609
-41.2668
-45.4986
-46.1738
-53.4502
-51.9029
-82.4061
-84.7517
144.267
202.771
-55.62
-36.4625
-60.2278
-44.6459
-47.0451
-47.2052
-42.678
-42.2116
-42.0112
-43.2345
-44.9126
-45.701
-54.879
-36.4645
-1.1538
-24.7917
-46.9954
-46.8404
-51.5149
-53.1654
-42.497
-42.8006
-39.8996
-39.829
-38.4099
-37.6917
-43.8668
-48.6274
-41.9445
-42.0975
-38.71
-39.6552
-44.347
-47.2167
-44.6633
-46.5644
-39.0168
-39.1129
-41.4452
-43.6338
-50.2017
-52.4824
-116.563
-81.925
15.8849
15.8786
-92.13
-92.1131
-81.5361
-81.535
-54.0107
-53.8357
-42.4073
-42.7047
-38.8994
-38.5918
-37.833
-38.5332
-43.9498
-48.7282
-47.3703
-44.4131
-46
-47.4905
-52.5547
-50.3099
-81.9718
-116.62
-77.9296
-54.8469
-55.9695
-88.6667
-37.8325
-39.3892
-36.5582
-36.1492
-42.8835
-36.6329
-36.4126
-39.9138
-119.677
-108.015
-56.3414
-52.6494
-78.1914
-89.2746
-56.0641
-54.929
-119.971
-52.7759
-56.4533
-108.274
-43.033
-40.0733
-36.5122
-36.7435
-38.0659
-36.2164
-36.6512
-39.5719
-104.658
-119.835
-61.057
-57.3477
-104.592
-57.2971
-61.1858
-120.285
-38.5792
-39.8734
-45.9056
-43.3864
-38.7859
-43.3853
-46.1417
-39.897
-73.8268
-29.5077
-22.9049
-76.5473
-8.72706
28.7859
3.27195
-11.5196
-8.69767
-11.5833
3.26268
28.7865
-73.9465
-76.587
-22.9224
-29.5807
74.2663
187.567
204.157
57.4468
138.82
153.111
151.055
129.773
136.039
129.76
151.061
153.12
74.1385
57.9877
204.215
187.743
-39.5856
-41.2694
-44.494
-42.5705
-41.6659
-44.2043
-44.5259
-41.7983
-50.5272
-52.6483
-47.8168
-46.9547
-56.1238
-46.8602
-48.9372
-56.4312
-39.9666
-42.7777
-44.4746
-41.0747
-56.3533
-56.5164
-48.9889
-47.0281
-50.799
-47.2386
-47.895
-52.7726
-41.5246
-41.6221
-44.5177
-44.4132
-38.5638
-40.6527
-41.3039
-39.5483
-41.2648
-38.5384
-39.7969
-43.7819
-37.8632
-39.2731
-39.0975
-38.4116
-38.9921
-39.4557
-39.8697
-39.054
-110.628
-84.2476
-125.375
8.54885
-60.8453
-74.4504
-91.1311
-66.458
-60.9498
-66.5504
-91.1462
-74.4245
-111.216
8.67962
-125.418
-84.337
-46.1978
-39.8261
-41.3671
-46.4616
-44.9873
-45.6829
-41.9945
-41.228
-45.0726
-46.8003
-44.3705
-45.855
-50.3689
-47.3611
-44.126
-48.9196
-48.9413
-47.6083
-42.7483
-41.597
-50.8462
-49.4598
-45.1415
-48.1028
-47.8852
-49.3842
-46.001
-47.7599
-49.1759
-43.281
-43.8979
-49.5401
-41.0519
-42.1132
-40.8538
-41.4314
-50.4384
-44.8785
-44.081
-42.0143
-48.4424
-43.3882
-44.6754
-47.2794
-44.2335
-42.9221
-44.7963
-40.9318
-60.6538
-54.5443
-52.6154
-61.7382
-46.4375
-47.0238
-51.9078
-52.0489
-47.0183
-51.7677
-51.4459
-46.5642
-60.6597
-61.5937
-52.29
-54.327
-35.719
-29.4796
-40.8412
-39.0735
-43.2792
-42.9763
-42.3823
-36.8006
-42.9581
-42.4244
-41.776
-42.5857
-39.5862
-38.4327
-40.2046
-41.7958
-41.9244
-91.8617
-91.187
-44.1017
-40.4874
-48.5518
45.1034
83.7499
-68.4681
-46.2974
-43.0716
-44.4796
-92.2956
-42.2559
-91.2103
-47.7878
-50.7676
-54.639
83.8092
45.9827
-68.5087
-46.6696
-50.5116
-46.9284
-40.0371
-38.0689
-39.6888
-39.0973
-36.113
-40.3482
-39.8628
-38.565
-50.9047
-52.6458
-60.6094
-71.6569
-52.6445
-51.1412
-52.5425
-56.5007
-40.4004
-40.2042
-39.3264
-40.3192
-34.6798
-35.2081
-39.402
-39.728
-51.0774
-71.57
-52.7933
-61.0234
-52.9785
-56.7261
-51.4897
-52.8258
-7.60839
-6.75902
-54.9156
109.864
-129.626
-128.663
-145.56
-40.4042
-48.6985
-42.2063
-43.3232
-46.8863
-41.3194
-41.1022
-50.146
-38.3689
-34.2201
-37.348
-38.479
-32.481
-37.605
-38.591
-37.433
-39.07
35.1362
35.1749
-106.627
123.907
-40.9204
-36.9126
-42.3167
-28.3161
-43.984
-43.7467
-46.017
-42.8519
-51.8115
-54.0724
-49.8064
-54.1011
-7.53826
-6.73824
-55.1174
109.727
-48.8138
-42.1806
-43.437
-46.8128
-45.9193
-45.8275
-54.9976
-42.9529
-39.7481
-40.614
-39.3513
-42.3903
-41.0225
-37.0395
-42.44
-28.4017
-51.8775
-54.1807
-50.1906
-53.8636
-38.2675
-38.9827
-40.1631
-39.7855
-41.3891
-42.6514
-40.6556
-43.2741
-40.7367
-41.8542
-41.1561
-41.6321
-45.1541
-46.3298
-45.5902
-46.1292
-40.6545
-40.664
-39.8932
-40.1532
-59.4954
-56.7226
-56.0482
-65.3925
45.0508
45.0445
37.109
40.7937
-68.5903
-68.5559
-71.6738
-65.4023
-37.6197
-38.3953
-39.7564
-38.4855
-41.608
-42.8423
-40.8456
-43.469
-45.7186
-46.8541
-45.9758
-46.8571
-59.5899
-56.8385
-56.1451
-65.5028
-48.1717
-43.0286
-42.7877
-39.3569
-48.2744
-43.1178
-42.8849
-39.4483
-56.6327
-52.4302
-52.4035
-49.0291
-15.6219
-8.70307
-8.70946
-2.5007
196.972
207.195
165.735
196.667
-45.5469
-46.584
-46.3106
-47.4398
-45.5319
-46.5907
-46.3295
-47.4667
-41.6739
-41.1324
-40.1689
-40.6022
-108.776
-118.119
-101.036
-108.79
-41.9444
-40.8367
-42.1425
-42.1021
-43.4615
-42.2728
-43.4287
-43.3669
-46.1112
-43.4889
-45.0964
-42.7832
-52.0047
-52.3895
-52.1748
-52.113
-40.213
-40.9591
-40.7182
-41.186
-23.7074
-9.51196
-53.9624
95.417
-120.375
-126.497
-136.227
-32.67
-83.9618
-62.2886
-69.4816
-70.5174
-43.7312
-42.5706
-47.9347
-38.0763
-36.6265
-34.3718
-38.4951
-33.1084
-43.4925
-45.6703
-44.3994
-44.4032
50.9942
16.0503
-108.497
109.151
75.7945
62.6007
-109.75
109.211
-72.4611
-54.9107
-73.7599
-47.6982
-42.9708
-41.972
-50.1448
-39.2652
-41.8146
-43.0475
-44.7165
-41.4344
-47.8967
-49.9583
-46.3623
-50.7208
-123.023
-123.806
-136.954
-32.4267
-23.8528
-9.52066
-52.7274
95.3776
-84.1167
-62.4074
-69.6176
-70.7477
-44.5714
-41.0375
-44.6331
-42.0794
-49.8494
-47.859
-53.2225
-43.3749
-46.5244
-48.0926
-47.087
-46.4954
77.4543
62.7437
-109.879
109.438
52.2423
16.2397
-108.958
109.336
-73.0393
-55.0118
-73.89
-47.7983
-43.7611
-43.1971
-45.1101
-42.7931
-47.2236
-46.4597
-54.592
-43.1657
-48.7231
-50.2377
-47.5995
-50.6136
-37.7985
-40.2993
-43.016
-41.488
-37.8765
-39.3008
-39.7027
-38.4007
-39.3807
-40.3417
-39.4601
-40.3246
-40.1971
-39.99
-41.0947
-39.4965
-46.4471
-42.5412
-43.7456
-43.1508
-40.6446
-39.2002
-41.4738
-39.4197
-41.4922
-43.5643
-42.4773
-43.0268
-38.3489
-40.143
-39.1173
-39.8351
-39.409
-34.0138
-37.4955
-20.1568
-48.145
-44.6951
-43.4594
-48.7932
-64.1739
-62.3379
-60.1344
-79.347
22.7498
43.5183
29.1978
35.8984
-53.4902
-53.8763
-51.5516
-60.9409
-49.4983
-47.809
-48.6568
-48.6993
-53.099
-54.3825
-52.371
-58.2809
-67.2314
-68.538
-69.5
-67.5759
-37.6574
-40.024
-43.0121
-40.9923
-41.8202
-40.8047
-41.2299
-43.4847
-38.5687
-39.1373
-39.775
-38.8181
-39.7645
-40.6243
-39.7255
-40.663
-50.7431
-44.1724
-45.7629
-44.8288
-36.2255
-39.3575
-38.1244
-36.5412
-40.2061
-38.812
-41.2389
-38.7033
-41.7872
-44.1073
-42.6539
-44.0221
-39.5378
-34.1459
-37.6225
-20.2611
22.7865
43.5075
29.2163
35.8951
-48.3157
-44.8698
-43.6207
-48.9819
-64.2952
-62.4327
-60.2455
-79.4304
-53.8146
-54.0787
-51.9725
-60.658
-67.1832
-68.4544
-69.4524
-67.439
-49.9065
-48.275
-49.0128
-49.2202
-53.3176
-54.5406
-52.556
-58.4574
-100.099
-68.9731
-83.9227
-85.6466
183.333
194.077
204.058
156.703
-93.3601
-68.9288
-78.3863
-78.3669
109.901
187.918
154.189
155.629
-42.7538
-42.8818
-47.6186
-39.504
-49.1789
-51.4709
-54.3231
-47.5473
-44.9751
-44.1951
-44.6273
-44.6514
-38.2641
-39.11
-38.8661
-38.6299
-44.3072
-42.7032
-43.6166
-43.2428
-32.4526
-41.2907
-34.4502
-37.1213
-38.3648
-39.4206
-39.7082
-39.1888
-41.7926
-42.4625
-42.066
-41.6425
-55.434
-31.6221
-40.4568
-40.4673
161.258
154.989
154.422
154.437
-41.6515
-42.372
-38.5097
-47.068
-15.387
-10.7351
-18.749
-7.43617
-48.1146
-50.7065
-49.6832
-49.2883
-42.3097
-41.5702
-42.1402
-41.6641
-46.5318
-43.8301
-45.5645
-45.412
-53.1637
-52.9305
-53.3306
-52.5906
-100.256
-69.0819
-84.0506
-85.7881
182.066
193.131
157.081
204.048
-42.8194
-42.9563
-47.7007
-39.5642
-49.9515
-51.4309
-54.7961
-47.3371
-47.9862
-46.2961
-47.0572
-47.1822
-42.383
-41.8888
-42.2915
-42.0984
-40.0925
-41.013
-41.3095
-40.9568
-44.8812
-47.0031
-45.4842
-45.6866
-41.7575
-42.4737
-47.1783
-38.6117
-15.4304
-10.7571
-7.46817
-18.7854
-47.4455
-44.9081
-46.2033
-46.7556
-52.9422
-52.5897
-52.2644
-53.0517
-41.9561
-43.612
-42.612
-42.7202
-41.1722
-45.1882
-41.6053
-40.6643
-38.7709
-36.6082
-38.0858
-37.82
-45.3983
-46.3986
-44.9167
-47.2356
-39.2894
-44.0605
-42.0597
-42.1909
-42.0811
-39.7836
-40.0527
-39.9861
-45.6182
-45.9132
-45.0564
-46.4325
-46.4679
-43.6389
-45.1869
-46.0467
-39.206
-39.3454
-39.1854
-39.0526
-41.894
-42.2251
-42.074
-43.493
-52.9306
-49.821
-50.7804
-51.9878
-84.547
-102.684
-104.718
-87.7677
23.7353
10.5154
17.0327
17.0304
-41.0389
-121.209
-92.9603
-92.9345
-79.0752
-87.6184
-82.7138
-82.712
-56.3985
-52.2484
-53.6499
-53.5456
-41.7592
-43.5283
-42.4801
-42.5979
-38.8202
-39.813
-39.0483
-38.8188
-38.9186
-36.7304
-37.9636
-38.212
-45.5326
-46.4495
-45.0037
-47.331
-45.7995
-45.9871
-46.5712
-45.153
-47.5025
-44.7868
-46.4024
-47.0578
-53.0135
-49.8799
-52.0569
-50.8662
-84.6442
-102.728
-87.8235
-104.805
-89.2441
-79.3551
-80.9664
-68.4833
-42.1056
-39.9937
-36.5786
-39.1736
-37.3239
-38.8338
-36.3775
-37.5471
-100.018
-78.9951
-83.4709
-66.1488
-89.2636
-79.3974
-81.0249
-68.5553
-100.209
-79.1321
-83.613
-66.279
-37.4541
-38.9735
-36.4995
-37.6775
-42.2053
-40.1354
-36.6538
-39.2934
-90.9242
-74.5324
-76.8653
-66.5999
-90.5494
-74.5785
-76.9042
-66.8686
-41.9448
-38.2157
-42.6079
-41.8062
-43.1077
-38.9797
-43.3606
-42.1531
-55.1431
-41.6362
-40.649
-33.1174
5.33379
15.8474
4.21352
13.7977
5.29385
15.8289
4.15298
13.7852
-55.211
-41.7087
-40.6851
-33.1633
161.644
118.324
189.402
158.588
147.734
149.028
141.875
152.214
148.934
147.521
152.183
141.768
115.044
162.846
160.621
189.465
-41.167
-41.433
-42.2346
-42.7955
-42.2214
-42.6671
-42.7442
-43.5095
-48.9644
-50.3467
-48.2307
-49.6819
-52.114
-55.0538
-50.4226
-52.7687
-41.2508
-41.6335
-42.2237
-42.878
-52.2595
-55.1693
-50.528
-52.8557
-49.1882
-50.5275
-48.3962
-49.8196
-42.1281
-42.6692
-42.6772
-43.5304
-38.3513
-38.6478
-38.592
-37.8002
-40.645
-39.0739
-39.2701
-38.8231
-38.462
-38.3835
-38.7286
-38.5069
-39.0827
-38.8263
-39.2883
-38.8427
-115.589
-45.3386
-115.306
-90.9068
-68.647
-73.3643
-77.6808
-79.3553
-73.3665
-68.6923
-79.3597
-77.7145
-45.4613
-116.176
-90.9561
-115.434
-44.0748
-45.8978
-42.0436
-44.4065
-44.3347
-44.0774
-44.4769
-43.5361
-45.0203
-45.2572
-44.8308
-45.226
-49.1306
-48.6325
-47.2303
-47.1499
-45.8884
-47.5583
-43.6379
-45.8756
-49.7458
-49.3025
-48.0045
-47.9833
-47.5491
-47.088
-47.0142
-46.8674
-47.6311
-46.865
-47.1654
-45.8805
-41.3821
-41.2526
-41.0682
-41.0673
-44.8379
-48.2916
-44.2192
-43.8156
-46.7728
-45.5516
-44.4963
-44.8696
-50.0303
-45.4437
-42.7532
-38.8791
-55.8807
-59.0108
-53.8854
-54.4979
-48.2476
-49.6329
-49.8515
-50.9378
-47.9144
-49.3545
-49.2565
-50.5006
-55.65
-58.7877
-53.6341
-54.288
-34.549
-31.5423
-38.9861
-33.5854
-40.9207
-42.2423
-40.2389
-42.6334
-42.5425
-42.5667
-42.3504
-42.3353
-39.5949
-40.5529
-39.6717
-40.7427
-60.0619
48.7912
-127.185
-14.1582
-77.439
-101.017
-48.4473
-38.0541
-41.8226
-37.016
-45.088
-45.9777
-103.75
89.7813
-98.5942
112.811
-104.335
-75.9247
-47.275
-39.8548
-44.2908
-40.5319
-44.3236
-47.101
-126.77
-14.8146
-60.4088
48.7266
-77.5888
-101.03
-48.784
-44.5769
-54.0836
-44.1825
-49.3238
-50.2957
-99.2394
113.347
-104.266
91.239
-104.614
-76.0571
-45.7014
-43.8131
-51.2468
-43.6921
-46.8404
-47.8444
-35.7748
-38.6907
-38.9891
-38.3934
-39.0233
-38.9916
-40.2348
-38.8568
-45.5784
-41.3096
-41.4314
-39.2075
-41.353
-39.0702
-38.9274
-39.999
-43.878
-36.2633
-46.5094
-53.6768
-59.4361
-89.9057
-10.6745
-65.4071
-51.35
-56.5911
-50.3291
-50.2995
-51.4047
-56.7784
-60.9252
-61.8496
-35.9417
-38.5056
-40.3496
-41.5014
-39.5896
-40.329
-39.3561
-39.4683
-50.4218
-50.4705
-37.1467
-33.7417
-41.1971
-38.0666
-41.2282
-39.9548
-44.0308
-36.3575
-10.6141
-65.1957
-46.6629
-53.9109
-59.6549
-90.474
-51.766
-56.7756
-61.0244
-61.8808
-50.6529
-50.7317
-51.6678
-56.9962
-53.1194
125.28
-52.868
78.4493
-89.2993
-99.2035
187.279
134.891
-143.611
-37.7382
-144.522
-37.061
-120.925
-120.677
55.9882
56.2535
-54.8595
-55.5378
-37.2901
-42.271
-46.9979
-39.4835
-52.11
-45.7212
-48.4768
-39.1727
-48.7815
-38.5912
-45.8475
-45.854
-38.3356
-38.0832
-37.6259
-30.782
-41.2246
-37.6366
-42.2729
-41.0593
-30.2373
-34.5025
-41.4082
-44.4084
-39.3312
-40.5883
-39.0798
-38.3869
-41.8965
-41.438
-110.063
95.8272
-110.105
95.9007
-76.9794
-77.0001
154.238
154.254
-51.8638
-36.3843
-37.0405
-24.1373
-38.3844
-46.3492
-24.5392
-16.1013
-45.7188
-42.4281
-45.5142
-42.602
-47.0417
-46.7263
-42.4183
-42.1593
-48.2375
-52.8355
-50.9134
-57.4775
-47.151
-48.378
-53.9955
-52.7666
-51.5886
125.327
-53.173
78.4502
-89.7637
-99.4835
134.378
187.482
-54.9541
-55.7024
-37.0176
-42.1776
-47.0802
-39.4668
-52.4504
-45.4708
-53.4615
-43.2211
-53.4418
-42.9726
-49.4632
-49.6131
-42.7269
-42.5478
-43.3857
-47.5263
-41.3805
-44.32
-40.8358
-40.2322
-45.4903
-44.8179
-51.9813
-36.4719
-37.1542
-24.2986
-46.4706
-38.4817
-16.1706
-24.603
-48.873
-52.5491
-51.2717
-57.214
-48.9524
-47.9364
-52.5262
-53.7891
-40.4007
-39.2511
-41.1223
-39.4203
-41.3757
-41.6858
-40.087
-39.9182
-40.0257
-41.7407
-41.6367
-45.3449
-39.4964
-39.6725
-43.4896
-45.5195
-40.1259
-40.1672
-41.7828
-43.538
-39.9569
-39.7033
-41.0606
-43.3902
-44.2647
-45.318
-46.9074
-47.1739
-44.8959
-46.2081
-46.5167
-46.9603
-39.7314
-40.3217
-39.6203
-40.9329
-39.4826
-39.443
-42.6932
-41.7827
-58.4417
-71.2816
-53.8602
-61.0808
-53.4879
-55.5161
-77.7182
-69.3202
36.0348
40.9881
35.9988
41.0256
29.8543
29.8564
8.50764
8.8864
-71.2035
-65.9352
-71.1574
-65.9191
-75.0274
-75.0124
-61.0641
-60.9905
-40.0844
-38.5391
-40.8911
-38.5691
-41.1324
-41.4795
-38.5668
-38.4876
-40.2467
-41.9811
-41.8104
-45.5283
-39.8361
-39.6728
-43.6768
-45.6879
-44.6165
-46.177
-47.2885
-47.7969
-46.4853
-45.1426
-47.5321
-47.7829
-58.5301
-71.3704
-53.9899
-61.2135
-55.6005
-53.5914
-69.4214
-77.8383
-56.5113
-56.4455
-47.9057
-39.485
-39.1334
-48.095
-36.7462
-36.3559
-56.6105
-56.5574
-47.9958
-39.5553
-48.2022
-39.2337
-36.4476
-36.8467
-61.5006
-61.529
-56.0973
-48.6686
-56.1792
-48.6022
-46.218
-46.3265
-22.4933
-22.5021
-16.2992
-3.66845
-3.68082
-16.3149
4.25249
4.2487
206.494
164.001
200.627
200.667
159.846
159.85
164.238
206.507
-44.596
-44.5673
-45.514
-47.6868
-45.3174
-46.9357