# vtk DataFile Version 2.0
tet_velo
ASCII
DATASET UNSTRUCTURED_GRID
POINTS 29498 float
-0.690326 0.185 -1.995
-0.675 0.285 2.02879
-0.644896 0.705 -2.025
-0.585 1.06223 2.085
0.685 0.185 -1.99497
0.615 0.315 2.10968
0.644529 0.705 -2.025
0.585 1.06223 2.085
-0.702127 0.201423 -0.653737
-0.722917 0.208858 0.687527
-0.781515 0.980661 -0.655
-0.741567 1.07976 0.715
0.6905 0.1995 -0.626753
0.700915 0.209085 0.741463
0.781437 0.980828 -0.655
0.741524 1.07983 0.715
-1.42078 -0.270214 -3.0835
-1.41598 -0.177418 -1.99543
-1.42279 -0.160126 -0.652998
-1.41417 -0.170304 0.682967
-1.37454 -0.123507 2.02495
-1.37157 -0.0763527 3.11068
-1.38601 -0.0283977 4.20172
-1.4141 0.0579636 -3.09264
-1.41389 0.178937 -2.00165
-1.43352 0.228409 -0.657072
-1.40973 0.228607 0.682996
-1.33463 0.268899 2.02697
-1.34326 0.315115 3.11218
-1.36903 0.363598 4.20274
-1.39426 0.673605 -3.11586
-1.39743 0.791351 -2.02339
-1.47907 0.994019 -0.659739
-1.42288 1.06924 0.703522
-1.28747 1.07015 2.06483
-1.3099 1.10828 3.13627
-1.35006 1.15754 4.21535
-1.3768 1.76946 -3.14282
-1.38555 1.90607 -2.0493
-1.41975 2.11415 -0.677636
-1.42366 2.25754 0.696223
-1.39072 2.31319 2.06353
-1.37412 2.34176 3.14798
-1.3763 2.37808 4.2287
-0.717816 -0.268492 -3.07815
-0.702888 -0.171713 -1.98731
-0.707413 -0.173219 -0.643263
-0.722912 -0.18368 0.696058
-0.711216 -0.114145 2.03952
-0.710735 -0.0702589 3.12484
-0.720552 -0.0263293 4.21556
-0.71407 0.0500383 -3.08912
-0.690387 0.320652 3.12276
-0.707833 0.365062 4.21524
-0.693285 0.635044 -3.1152
-0.655146 1.10505 3.14561
-0.689892 1.15589 4.22598
-0.662933 1.74384 -3.14113
-0.662569 1.88238 -2.04771
-0.697549 2.10831 -0.67437
-0.721796 2.26249 0.702366
-0.711265 2.3152 2.07218
-0.70074 2.34123 3.1575
-0.702553 2.37722 4.23874
0.675511 -0.268618 -3.07212
0.688983 -0.172071 -1.97972
0.695226 -0.174313 -0.617823
0.683328 -0.181256 0.743187
0.619283 -0.0962073 2.10277
0.606907 -0.0564246 3.17439
0.607394 -0.017217 4.25392
0.666585 0.049975 -3.0857
0.602293 0.335477 3.17082
0.607761 0.374082 4.25161
0.668067 0.635037 -3.1129
0.605072 1.11114 3.16824
0.616341 1.16199 4.25285
0.751551 1.74393 -3.13538
0.767388 1.88247 -2.04229
0.756777 2.10846 -0.667819
0.703955 2.26285 0.710976
0.654252 2.31624 2.08377
0.64268 2.34329 3.173
0.641509 2.38008 4.25775
1.382 -0.27044 -3.06868
1.39737 -0.178044 -1.97653
1.40908 -0.161171 -0.609758
1.38696 -0.165617 0.758285
1.31151 -0.102009 2.12153
1.28577 -0.0553835 3.19676
1.28354 -0.0124495 4.27404
1.37569 0.0578016 -3.08232
1.39947 0.178527 -1.99087
1.42345 0.226881 -0.620641
1.40038 0.231273 0.752428
1.30145 0.291827 2.12058
1.27676 0.336411 3.1938
1.28043 0.379263 4.27142
1.38058 0.673579 -3.10846
1.40016 0.791321 -2.01863
1.48439 0.993673 -0.646538
1.43257 1.0695 0.729054
1.29243 1.07566 2.10055
1.27524 1.11923 3.18516
1.28603 1.16867 4.26854
1.45887 1.76967 -3.12993
1.47673 1.90629 -2.03664
1.47526 2.11452 -0.662203
1.42023 2.25847 0.716407
1.35311 2.31559 2.08977
1.32829 2.34598 3.18081
1.32245 2.38372 4.26737
-0.713176 0.445 -2.05557
-0.00266299 0.181456 -1.99853
-0.705079 0.18436 -1.32437
-0.688482 0.673615 2.11538
-0.03 0.305864 2.06337
-0.726576 0.219312 1.35816
-0.000183493 0.772415 -2.09242
-0.759067 0.888692 -1.34
0 1.09281 2.11558
-0.704563 1.11227 1.4
0.711691 0.445 -2.05691
0.694879 0.185121 -1.31086
0.636352 0.688615 2.13369
0.70014 0.21986 1.42557
0.758899 0.88883 -1.34
0.704526 1.1123 1.4
-0.716251 0.201412 0.016895
-0.876394 0.591042 -0.654368
-0.00581346 0.191826 -0.640245
-0.881048 0.644307 0.701263
-0.0110009 0.209037 0.714495
-0.758159 1.02683 0.03
-3.88884e-05 1.2487 -0.655
-2.15673e-05 1.47541 0.715
0.6986 0.2014 0.057355
0.876128 0.590164 -0.640877
0.881257 0.64446 0.728232
0.758132 1.02698 0.03
-0.865199 0.518021 -1.33218
-0.877035 0.617675 0.0234475
-0.879823 0.658961 1.37908
-0.00423822 0.178047 -1.31762
-0.00840718 0.198424 0.037125
-0.0205004 0.249881 1.39187
-0.00142324 0.445 -2.2574
-0.015 0.681115 2.20124
-0.000111191 0.966943 -1.34
-3.02279e-05 1.4575 0.03
-1.07837e-05 1.32902 1.4
0.868874 0.517582 -1.32543
0.87716 0.617312 0.0436775
0.877682 0.666537 1.41279
-1.05211 0.181968 -1.99833
-0.696607 0.00664336 -1.99115
-0.702198 0.117519 -2.54206
-1.00481 0.276949 2.02788
-0.693108 0.0854277 2.03416
-0.682694 0.302826 2.57577
-1.02116 0.748175 -2.0242
-0.66909 0.670022 -2.5701
-0.653732 1.29369 -2.03635
-0.936237 1.06619 2.07492
-0.620073 1.08364 2.61531
-0.648133 1.68871 2.07859
0.686991 0.00646459 -1.98735
0.675793 0.117487 -2.54033
1.04223 0.181763 -1.99292
0.617142 0.109396 2.10622
0.608647 0.325239 2.64025
0.958224 0.303414 2.11513
0.656298 0.670018 -2.56895
0.705959 1.29373 -2.03364
1.02234 0.748161 -2.02182
0.595036 1.08668 2.62662
0.619626 1.68924 2.08438
0.938713 1.06894 2.09278
-1.06783 0.214916 -0.655405
-0.70477 0.0141023 -0.6485
-1.06632 0.218733 0.685262
-0.722914 0.0125893 0.691792
-1.13029 0.98734 -0.657369
-0.739532 1.54449 -0.664685
-1.08222 1.0745 0.709261
-0.731682 1.67112 0.708683
0.692863 0.0125932 -0.622288
1.05697 0.21319 -0.623697
0.692122 0.0139145 0.742325
1.05065 0.220179 0.746945
0.769107 1.54464 -0.66141
1.13291 0.987251 -0.650769
0.722739 1.67134 0.712988
1.08705 1.07467 0.722027
-1.41838 -0.223816 -2.53946
-1.41744 -0.106125 -3.08807
-1.0693 -0.269353 -3.08082
-1.41938 -0.168772 -1.32421
-1.41493 0.000759407 -1.99854
-1.05943 -0.174566 -1.99137
-1.41848 -0.165215 0.0149848
-1.42816 0.0341412 -0.655035
-1.0651 -0.166672 -0.64813
-1.39436 -0.146905 1.35396
-1.41195 0.0291517 0.682982
-1.06854 -0.176992 0.689513
-1.37306 -0.0999299 2.56782
-1.35459 0.0726957 2.02596
-1.04288 -0.118826 2.03224
-1.37879 -0.0523752 3.6562
-1.35742 0.119381 3.11143
-1.04115 -0.0733058 3.11776
-1.37752 0.1676 4.20223
-1.05328 -0.0273635 4.20864
-1.414 0.11845 -2.54715
-1.40418 0.365784 -3.10425
-1.06409 0.054001 -3.09088
-1.42371 0.203673 -1.32936
-1.40566 0.485144 -2.01252
-1.42163 0.228508 0.012962
-1.4563 0.611214 -0.658406
-1.37218 0.248753 1.35498
-1.41631 0.648925 0.693259
-1.33894 0.292007 2.56958
-1.31105 0.669525 2.0459
-1.35614 0.339356 3.65746
-1.32658 0.711699 3.12423
-1.01682 0.317884 3.11747
-1.35955 0.760571 4.20904
-1.03843 0.36433 4.20899
-1.39584 0.732478 -2.56963
-1.38553 1.22153 -3.12934
-1.04377 0.654325 -3.11553
-1.43825 0.892685 -1.34157
-1.39149 1.34871 -2.03635
-1.45098 1.03163 0.0218919
-1.44941 1.55408 -0.668687
-1.35518 1.0697 1.38418
-1.42327 1.66339 0.699873
-1.29869 1.08922 2.60055
-1.3391 1.69167 2.06418
-1.32998 1.13291 3.67581
-1.34201 1.72502 3.14213
-0.982524 1.10667 3.14094
-1.36318 1.76781 4.22202
-1.01998 1.15671 4.22066
-1.38117 1.83776 -2.59606
-1.01987 1.75665 -3.14198
-1.40265 2.01011 -1.36347
-1.02406 1.89422 -2.04851
-1.42171 2.18584 0.00929326
-1.05865 2.11123 -0.676003
-1.40719 2.28537 1.37988
-1.07273 2.26002 0.699294
-1.38242 2.32748 2.60576
-1.05099 2.31419 2.06786
-1.37521 2.35992 3.68834
-1.03743 2.3415 3.15274
-1.03943 2.37765 4.23372
-0.710352 -0.220103 -2.53273
-0.715943 -0.109227 -3.08363
-0.0211524 -0.268555 -3.07514
-0.705151 -0.172466 -1.31528
-0.00695266 -0.171892 -1.98352
-0.715163 -0.178449 0.0263974
-0.00609347 -0.173766 -0.630543
-0.717064 -0.148912 1.36779
-0.0197919 -0.182468 0.719623
-0.710975 -0.0922017 2.58218
-0.0459662 -0.105176 2.07115
-0.715644 -0.0482941 3.6702
-0.700561 0.125197 3.1238
-0.0519141 -0.0633417 3.14961
-0.714193 0.169366 4.2154
-0.0565792 -0.0217731 4.23474
-0.703677 0.342541 -3.10216
-0.0237426 0.0500066 -3.08741
-0.69911 0.342857 3.669
-0.672767 0.712852 3.13418
-0.044047 0.328065 3.14679
-0.698863 0.760474 4.22061
-0.0500362 0.369572 4.23343
-0.678109 1.18944 -3.12817
-0.0126087 0.635041 -3.11405
-0.672519 1.13047 3.6858
-0.677943 1.72314 3.15156
-0.0250366 1.10809 3.15693
-0.696223 1.76655 4.23236
-0.0367754 1.15894 4.23942
-0.662751 1.81311 -2.59442
0.0443088 1.74388 -3.13826
-0.680059 1.99534 -1.36104
0.0524096 1.88242 -2.045
-0.709673 2.1854 0.0139978
0.029614 2.10838 -0.671095
-0.716531 2.28885 1.38727
-0.0089208 2.26267 0.706671
-0.706003 2.32822 2.61484
-0.0285069 2.31572 2.07797
-0.701646 2.35922 3.69812
-0.0290302 2.34226 3.16525
-0.0305221 2.37865 4.24825
0.682247 -0.220345 -2.52592
0.671048 -0.109322 -3.07891
1.02875 -0.269529 -3.0704
0.692105 -0.173192 -1.29877
1.04317 -0.175057 -1.97813
0.689277 -0.177785 0.0626823
1.05215 -0.167742 -0.61379
0.651306 -0.138732 1.42298
1.03514 -0.173436 0.750736
0.613095 -0.076316 2.63858
0.965396 -0.0991081 2.11215
0.60715 -0.0368208 3.71415
0.6046 0.139526 3.1726
0.946341 -0.055904 3.18557
0.607577 0.178433 4.25276
0.945465 -0.0148332 4.26398
0.667326 0.342506 -3.0993
1.02114 0.0538883 -3.08401
0.605027 0.35478 3.71121
0.603683 0.723307 3.16953
0.939527 0.335944 3.18231
0.612051 0.768034 4.25223
0.944098 0.376672 4.26152
0.709809 1.18948 -3.12414
1.02432 0.654308 -3.11068
0.610707 1.13656 3.71055
0.623876 1.72721 3.17062
0.940154 1.11518 3.1767
0.628925 1.77103 4.2553
0.951186 1.16533 4.2607
0.759469 1.8132 -2.58883
1.10521 1.7568 -3.13265
0.762083 1.99546 -1.35505
1.12206 1.89438 -2.03947
0.730366 2.18566 0.0215782
1.11602 2.11149 -0.665011
0.679103 2.28955 1.39737
1.06209 2.26066 0.713691
0.648466 2.32977 2.62838
1.00368 2.31592 2.08677
0.642094 2.36168 3.71537
0.985484 2.34463 3.1769
0.98198 2.3819 4.26256
1.38968 -0.224242 -2.5226
1.37884 -0.106319 -3.0755
1.40322 -0.169608 -1.29314
1.39842 0.000241273 -1.9837
1.39802 -0.163394 0.0742637
1.41626 0.0328548 -0.615199
1.34923 -0.133813 1.43991
1.39367 0.0328285 0.755356
1.29864 -0.0786961 2.65914
1.30648 0.0949092 2.12106
1.28466 -0.0339165 3.7354
1.28127 0.140514 3.19528
1.28198 0.183407 4.27273
1.38758 0.118164 -2.5366
1.37813 0.36569 -3.09539
1.41146 0.202704 -1.30576
1.39981 0.484924 -2.00475
1.41192 0.229077 0.0658933
1.45392 0.610277 -0.633589
1.35092 0.26155 1.43651
1.41648 0.650389 0.740741
1.2891 0.314119 2.65719
1.29694 0.683741 2.11057
1.2786 0.357837 3.73261
1.276 0.727819 3.18948
1.28323 0.773968 4.26998
1.39037 0.73245 -2.56355
1.41972 1.22162 -3.11919
1.44227 0.892497 -1.33258
1.43844 1.3488 -2.02764
1.45848 1.03159 0.0412583
[...]
POINT_DATA 29498
VECTORS point_vectors float
-0.34398 -2.02945 4.44082
0.102094 0.186755 0.640841
-3.15464 2.72115 4.20912
-0.186583 -0.154183 0.117166
0.321561 -2.48285 5.5174
-0.0371435 0.125312 0.375277
3.04952 2.64772 4.09796
0.188842 -0.15869 0.121705
0 0 0
0.00542003 0.0022432 0.130088
-0.00499667 -0.00835575 0.0741642
0.00640145 0.0138075 0.0460591
-0.000975862 0.0001388 0.0248483
-0.00103285 0.000895732 0.0943947
0.00584435 -0.00947079 0.0825185
-0.00635728 0.0136861 0.0460264
-0.606401 -0.369724 19.8705
-1.20203 -0.917439 20.6427
-0.329825 -0.531408 21.4743
0.167178 -0.158196 21.6076
0.750361 0.23641 21.5242
1.08402 0.379891 21.0853
0.956439 0.224798 20.7473
-0.749515 -0.312078 19.7252
-1.8683 -0.863235 20.5216
-0.589917 -0.715742 21.5591
0.12821 -0.36901 21.751
1.0905 -0.0253708 21.6132
1.37755 0.0837275 21.1766
1.10315 0.0814555 21.0985
-0.824713 0.0334408 19.568
-2.34085 0.192185 20.1781
-1.45229 -0.352145 21.4812
-0.375721 -0.474812 21.8361
0.540882 -0.849096 21.5599
0.960636 -0.97565 21.293
0.965073 -0.746874 20.337
-0.489635 0.349588 19.8594
-0.904785 0.693321 20.2233
-0.881138 0.560739 21.0513
-0.36017 0.0610074 21.4755
0.00722423 -0.252167 21.36
0.152462 -0.400813 20.9804
0.0782914 -0.314118 21.1113
-0.598026 -0.80408 19.404
-1.35487 -2.95489 21.2234
-0.0348832 -0.326721 21.7545
0.2178 0.188355 21.4094
0.611887 1.17302 20.602
0.933331 1.52553 20.0467
0.788618 1.16345 19.9183
-0.739194 -0.669313 19.0085
1.72946 1.51532 11.2351
2.03767 1.26188 14.1121
-0.867869 0.0277168 18.5923
0.153555 -0.786162 6.15006
1.3125 -1.21921 11.7476
-0.372244 0.630126 19.5181
-0.803783 1.45961 19.9055
-0.984102 1.56659 21.0793
-0.383934 0.34555 21.774
-0.0966832 -0.247488 21.5178
0.0431932 -0.425721 20.9583
0.0211235 -0.401569 20.9765
0.570326 -0.81335 19.3837
1.30807 -2.96723 21.2757
0.0374657 -0.308596 21.7248
-0.202237 0.220687 21.2472
-0.456692 1.26519 19.8155
-0.732634 1.56687 19.3462
-0.721506 1.43412 19.1746
0.720274 -0.709823 18.9436
-1.52003 1.48295 9.59003
-2.07706 1.60218 12.8864
0.843804 0.0279606 18.545
-0.0835991 -0.80603 4.81426
-1.26446 -1.11533 10.0809
0.407718 0.603338 19.5681
0.879792 1.37845 19.9446
1.02421 1.45743 21.0869
0.376632 0.346832 21.7817
0.0942034 -0.243375 21.504
-0.0424355 -0.429444 20.9827
-0.0245274 -0.391794 21.0658
0.620077 -0.407526 19.8576
1.21591 -0.96558 20.6686
0.303954 -0.523651 21.4864
-0.188789 -0.146133 21.6196
-0.849494 0.322545 21.5348
-1.18145 0.420252 20.984
-0.926545 0.25692 21.0922
0.776489 -0.330557 19.6938
1.91898 -0.898352 20.5307
0.564694 -0.718122 21.5614
-0.171061 -0.36228 21.7532
-1.20196 -0.0231434 21.5601
-1.48599 0.00419755 21.16
-1.30228 -0.0318972 20.8718
0.837776 0.0371016 19.5585
2.3355 0.18931 20.1904
1.4318 -0.352113 21.4857
0.355619 -0.469547 21.8278
-0.548706 -0.855112 21.4978
-0.973093 -0.985541 21.2983
-1.12587 -0.837253 20.0865
0.480159 0.317587 19.893
0.882862 0.611035 20.2619
0.847654 0.509583 21.0572
0.353336 0.0545528 21.4826
-0.00227352 -0.261839 21.374
-0.149254 -0.399623 20.9193
-0.071894 -0.335121 21.1456
-0.116407 -0.00664099 0.136634
0.00015222 -0.046975 0.402329
0.000327957 0.000537134 0.0711793
-0.0142843 -0.0409782 0.013352
-0.00117816 0.00937566 0.0477887
0.00450513 0.00584226 0.448359
0.00306261 0.573005 1.07624
-0.0967087 6.67424e-05 0.241436
0.00251991 0.0980271 -0.116098
0.015817 0.000566756 0.0985236
0.280014 -0.0161252 0.332657
-0.00143546 0.0012133 0.159986
0 0 0
0.00615934 0.0173986 0.675841
0.0983582 0.000970772 0.246463
-0.0149583 0.000231267 0.0945967
0.000328882 0.000692218 0.0878772
0.000547801 0.00402965 0.085488
6.86431e-06 1.1374e-05 0.00149513
1.89197e-05 0.000894804 0.00735675
1.18251e-05 3.1972e-05 0.00220143
0.000299457 0.00085498 0.00347167
-0.000165616 0.167987 0.349505
8.25889e-06 -0.000377049 0.0230324
-0.000229587 5.67299e-05 0.0117156
-7.41729e-05 0.00306976 0.0602552
-3.18329e-05 0.00103399 0.00896918
-0.000408632 0.00116438 0.0047282
0 0 0
6.87828e-05 0.000911884 0.00812255
0.00335362 0.00474357 0.0588735
3.36905e-08 4.44104e-08 7.04037e-06
2.94884e-05 5.44615e-05 0.0109586
-2.71167e-08 -2.35681e-07 -3.52781e-06
4.23534e-06 -0.00408614 0.00411739
0 0 0
0.000182136 0.000549608 0.00400177
-2.82112e-05 0.0011319 0.0102443
-1.10568e-07 2.12033e-05 -3.92746e-05
0.00254865 -0.00786125 0.105501
-7.97553e-05 0.00119544 0.0104554
-0.0286185 0.01847 0.263893
-3.42405 -2.22404 20.5768
-1.98349 -4.59037 21.7937
-2.18123 -2.22095 17.9267
1.46554 0.697682 16.8711
0.537912 1.37268 14.5862
1.01196 1.03053 7.93269
-4.60514 0.942624 19.5901
-2.68115 0.751879 16.6358
-2.01418 2.81941 19.318
0.667706 -0.532372 14.1595
-0.593129 -0.572341 2.70208
-0.16659 -0.521738 20.5235
1.93594 -4.60783 21.8423
2.20109 -2.33319 17.8136
3.48082 -2.29448 20.5924
-0.329198 1.35776 12.6068
-0.871473 0.904259 6.17036
-1.54386 0.828166 14.946
2.6787 0.775907 16.5537
2.07674 2.6107 19.3837
4.58353 0.924234 19.6013
0.586355 -0.526916 2.28512
0.175585 -0.504718 20.4952
-0.659998 -0.577204 14.3366
-0.118575 -0.93578 19.8154
0.202218 0.0471811 16.8582
0.249623 -0.121801 18.3255
0.28573 0.275252 16.4762
-2.49193 -0.888553 21.7349
-2.90809 2.4336 21.133
-0.456911 -0.600587 20.2238
-0.817879 0.24499 22.2109
-0.178157 0.0586715 16.7711
0.0464064 -0.892684 19.3734
-0.272803 0.2911 16.0326
-0.219944 -0.0609152 17.7865
2.86911 2.26368 21.182
2.46141 -0.878694 21.7356
0.806092 0.248495 22.1591
0.449998 -0.596982 20.2646
-0.97538 -0.685939 20.0538
-0.674061 -0.354009 19.8121
-0.630591 -0.576532 19.6614
-0.781871 -0.776271 21.2902
-1.54039 -0.951829 20.5808
-1.51717 -1.73859 20.765
-0.0567872 -0.329503 21.5288
-0.448574 -0.631363 21.5146
-0.118481 -0.562628 21.6544
0.442948 0.0409053 21.6393
0.161162 -0.261603 21.6726
0.288626 -0.0550845 21.7081
0.918808 0.317563 21.3619
0.914755 0.160779 21.5997
0.918964 0.674496 21.427
1.01699 0.374555 21.1525
1.25885 0.247965 21.2183
1.28075 0.801751 21.1327
1.05996 0.137439 20.9367
1.00511 0.538522 21.4833
-1.35861 -0.564063 19.7938
-0.814791 -0.196187 19.6082
-0.811683 -0.504714 19.4086
-1.23043 -0.882193 21.4181
-2.35521 -0.438938 20.3353
-0.189569 -0.549218 21.6639
-1.03209 -0.704349 21.5762
0.549585 -0.201974 21.7777
-0.0644498 -0.532316 21.8658
1.28425 0.0259911 21.3755
1.07015 -0.569315 21.4654
1.5738 -0.0343423 20.7786
1.37228 -0.602164 21.2261
1.99719 0.576755 18.7273
1.27748 -0.629722 20.2749
1.62854 0.203404 19.5249
-1.54625 0.117275 19.5652
-0.687644 0.273982 19.674
-0.924147 0.0193127 19.1561
-1.99346 -0.11557 21.1089
-1.53261 0.722283 20.1338
-0.915932 -0.469771 21.7781
-1.39754 0.368354 21.2469
0.153337 -0.604351 21.8204
-0.501289 -0.10712 21.7144
0.707254 -0.897491 21.3852
0.0738654 -0.492465 21.4753
0.973726 -0.799003 20.8392
0.243788 -0.610013 21.0441
1.08698 -0.913647 18.112
0.233836 -0.495896 21.2829
1.42121 -1.23983 18.5982
-0.71096 0.54521 19.9689
-0.473911 0.472308 19.6889
-0.977949 0.699531 20.6286
-0.946315 1.05636 20.0762
-0.655393 0.333911 21.3511
-1.03972 0.977397 21.102
-0.133401 -0.125353 21.4177
-0.408554 0.1918 21.6226
0.080145 -0.314527 21.2516
-0.0270272 -0.276414 21.3323
0.0932232 -0.314869 21.3138
0.10032 -0.46503 21.1171
0.0984629 -0.456042 21.1207
-1.19085 -1.9267 19.3784
-0.67345 -0.753767 19.1871
-0.0150175 -1.0862 19.0705
-0.401209 -1.07926 22.1137
-0.0152084 -3.58329 21.865
0.0953906 -0.0670968 21.4861
-0.00404916 -0.323062 21.0853
0.373262 0.562342 20.8989
0.00210794 0.157769 20.4087
0.79565 1.39039 20.2313
0.0209287 0.992912 18.7641
1.14117 1.6409 19.9006
1.34629 1.76457 17.0425
0.071537 1.41442 18.4494
1.33494 1.32337 17.3945
0.0864243 2.16012 18.0186
-0.866006 -0.346504 18.653
-0.0282671 -0.965318 18.5066
2.05833 1.37078 12.4465
1.57974 -0.241116 6.36201
0.00728398 0.632734 4.64811
2.14888 0.286889 12.384
0.242913 2.10003 10.0698
-0.645408 0.610218 18.9904
-0.0147085 0.0862435 17.958
0.70886 -0.991015 8.40398
0.0127489 -0.880969 19.8681
-0.0279531 0.981469 -5.04931
0.103034 -0.979767 18.6706
-0.0104371 1.26344 -1.6968
-0.594193 1.09389 19.5828
0.0233367 0.745322 19.3603
-0.948701 1.63146 20.4219
0.0853864 1.92361 19.7349
-0.740831 1.01268 21.6808
0.0426255 2.23577 21.018
-0.18934 -0.0583848 21.6061
-0.00689294 0.574828 21.914
-0.0279322 -0.3633 21.4245
-0.00102253 -0.147863 21.4662
0.0549694 -0.519012 20.5484
0.012632 -0.417599 21.2789
0.00192571 -0.479176 21.1159
1.17398 -2.00426 19.3605
0.652567 -0.787351 19.1347
0.640071 -0.587667 19.6422
0.389571 -1.04606 22.1346
1.51289 -1.79896 20.8257
-0.0885439 -0.0567773 21.3789
0.100013 -0.537277 21.6603
-0.320653 0.635761 20.5964
-0.312333 -0.00987142 21.6941
-0.630272 1.4792 19.5797
-0.94679 0.874751 21.2074
-0.98227 1.83983 19.4959
-1.13636 1.80506 16.0096
-1.28218 0.951658 21.0101
-1.22117 1.60531 17.0003
-1.04855 0.657538 20.8684
0.832832 -0.355431 18.588
0.820439 -0.51681 19.3531
-1.98406 1.55672 11.5727
-1.48839 -0.273046 4.8082
-1.98992 0.906897 17.4677
-2.09561 0.304305 9.83544
-1.75866 0.463808 18.1254
0.667671 0.594392 19.0291
0.92676 0.0201986 19.1365
-0.608427 -0.942088 6.57736
-0.0250331 -0.860582 19.7905
-1.11092 -0.976655 17.4202
-0.120633 -0.970302 18.7781
-1.3649 -1.30097 18.1337
0.647782 1.01442 19.6506
0.496439 0.451019 19.7203
1.00264 1.52296 20.4576
0.940323 0.933406 20.1367
0.754984 0.976631 21.6834
1.0332 0.90832 21.1104
0.179721 -0.060554 21.602
0.405348 0.187655 21.6283
0.024506 -0.35437 21.3799
0.0378298 -0.278495 21.3487
-0.0353889 -0.49731 20.8257
-0.0949825 -0.458521 21.0593
-0.0844783 -0.432714 21.1228
1.00009 -0.728862 20.0531
0.695166 -0.375923 19.787
0.754919 -0.78751 21.3208
1.56692 -0.986596 20.6072
0.0365044 -0.330548 21.5342
0.415206 -0.627883 21.5224
-0.50944 0.0835092 21.6593
-0.206691 -0.243619 21.6874
-1.03017 0.385319 21.3568
-1.06178 0.210545 21.4919
-1.22573 0.443176 20.8803
-1.32921 0.271212 21.1986
-1.07088 0.149305 21.2436
1.40423 -0.601852 19.7796
0.841201 -0.209264 19.5825
1.21438 -0.895113 21.4448
2.38318 -0.444964 20.3471
0.17063 -0.541139 21.6813
1.01374 -0.706336 21.5865
-0.648014 -0.183215 21.788
0.0404231 -0.525751 21.8677
-1.40757 0.0394197 21.1417
-1.11573 -0.604237 21.4262
-1.84215 0.0757771 20.0805
-1.4327 -0.582208 21.3393
-1.47217 -0.838558 19.9947
1.56227 0.119187 19.563
0.683617 0.262686 19.7026
1.976 -0.121638 21.1183
1.48256 0.653185 20.174
0.885017 -0.457079 21.7709
1.34837 0.340726 21.2423
-0.176784 -0.608123 21.8102
0.485567 -0.116119 21.7104
-0.720296 -0.913487 21.307
-0.0819637 -0.504864 21.4715
-0.934233 -0.789373 20.904
-0.247436 -0.667288 21.0098
-0.183216 -0.403634 21.5803
0.689808 0.482556 20.0109
0.94878 0.630542 20.6574
0.634313 0.305656 21.3576
0.128311 -0.134938 21.4274
-0.0621651 -0.315061 21.2411
-0.0661864 -0.340344 21.3828
-1.1506 -0.652569 19.9476
-1.62467 -2.16277 18.8065
-1.17525 -1.17653 19.7845
-1.84571 -1.12854 19.1922
-0.733593 -0.548706 19.5167
-2.23429 -2.09439 20.7211
-0.995154 -0.844328 21.3549
-0.13363 -0.61364 19.5818
-0.639527 -1.07992 21.656
-1.19076 -1.67432 21.8947
-0.0572955 -0.761745 21.6188
-0.104065 -0.442247 21.5933
0.205457 0.121041 16.4519
0.107485 -0.299118 21.6555
0.102864 -0.470248 18.7518
0.37904 -0.142379 21.0317
0.51456 -0.0591112 21.7221
0.315624 0.542012 15.4352
0.551193 0.269356 21.685
0.647392 0.29681 17.5585
1.2419 0.772503 20.0999
1.14448 0.208034 21.3632
0.865543 1.58384 15.4954
1.12526 0.779189 21.2017
1.7333 0.616017 17.9109
1.62681 0.767678 20.1582
1.39991 0.193874 20.8184
1.56544 1.53151 16.5178
1.37466 1.0073 21.1391
1.9962 0.459171 19.3315
1.24905 0.452194 20.3257
-1.56411 -0.307513 19.6418
-2.80861 -0.978631 16.7088
-2.22613 0.29554 18.6486
-0.918986 -0.237695 19.207
-4.90361 -0.886483 19.9443
-1.73648 -0.614791 21.3558
-3.2684 -0.22591 21.6149
-0.909446 -1.34286 20.3203
-0.513251 -0.637224 21.786
-1.36138 -0.952724 21.0572
0.161893 -0.0984207 17.5352
0.465307 -0.499511 21.7583
0.432645 -0.173161 17.7465
1.36533 -0.0835023 12.9594
1.24638 -0.593893 21.2696
0.263217 -0.668519 2.78396
0.740015 -0.762664 16.6608
1.88964 -0.365073 16.9723
1.2583 -0.493731 21.3658
2.12732 0.384669 9.19841
1.19815 -1.13188 18.3368
1.84728 -0.578523 18.4145
-1.12384 0.533269 19.742
-1.27275 1.54789 18.6712
-0.734548 0.787732 19.7681
-0.719367 0.418953 19.3678
-2.00522 1.49705 19.7853
-1.59631 0.597799 20.7499
-2.3057 2.42298 20.281
-1.05865 1.10181 20.5606
-2.13448 0.917655 21.3234
-1.00222 0.12926 21.6163
-2.12687 1.2829 22.5387
-0.773065 0.616233 21.5306
-0.689148 -0.00408605 21.9774
-0.122898 -0.323523 21.6501
-0.218612 -0.386673 21.2938
-0.163075 -0.106107 21.5276
-0.0564326 -0.589515 21.5768
0.202342 -0.566523 21.3659
-0.103442 -0.646535 20.4997
0.0323786 -0.375967 21.184
0.234133 -0.836476 21.3517
0.570265 -0.554562 20.4579
0.242383 -0.93125 18.43
0.06953 -0.484797 21.231
0.0918522 -0.673078 21.0694
1.60839 -2.24835 18.7494
-0.0380512 -2.95734 18.9603
-0.0646038 -4.0455 16.0822
-0.0180405 -1.05479 18.778
-0.0101658 -4.86639 23.4022
0.135926 -0.567837 19.4509
-0.00774264 -1.1428 22.3469
0.00287635 0.0227799 13.349
-0.222317 0.103047 16.0648
-0.00299375 -0.108977 20.6139
0.0121089 0.196947 12.951
-0.242747 0.565616 14.3828
0.0189101 0.552559 19.5239
0.00388673 0.777526 10.718
-0.592952 1.63388 14.1623
0.0311821 1.22829 18.4825
-0.0308391 -0.17602 2.47957
0.00627873 1.34727 12.3436
-1.44997 1.71059 15.9182
0.0842986 1.98948 18.6865
0.140029 1.2394 5.8891
0.260616 2.20279 15.2191
2.81677 -1.01343 16.5485
-0.0302653 1.713 14.2325
-0.018074 -0.470332 18.0119
-0.127187 -0.510521 1.96531
-0.0412423 0.869178 -4.85051
0.21242 0.260807 -2.58215
-1.91272 0.599002 7.63229
-0.12759 1.41546 -3.93168
0.189255 2.05709 0.231418
1.31844 1.47988 18.7369
0.047523 1.37921 19.3729
0.0121023 0.804194 18.6581
0.0804868 4.01076 18.9563
2.32597 2.26523 20.3325
0.0831597 2.14794 20.2662
0.0725033 4.99268 20.5302
2.10453 1.23178 22.5184
0.0130828 1.57328 21.8698
-0.00749861 0.848159 22.0766
0.211877 -0.390398 21.1511
-0.00764679 0.0448169 21.6562
-0.00999725 -0.0401808 15.9199
0.121855 -0.629785 20.4404
-0.00430493 -0.285324 21.5298
-0.00987722 -0.547266 16.7529
-0.211941 -0.919126 18.5381
-0.00539836 -0.533409 20.8132
0.0258792 -0.694914 16.4656
1.18927 -0.697884 19.9295
1.20743 -1.24386 19.7739
1.90091 -1.18351 19.1157
0.742148 -0.571916 19.4885
2.26163 -2.16918 20.761
0.967881 -0.858328 21.3884
0.608526 -1.06092 21.6763
1.07763 -1.66742 21.7646
0.015512 -0.728189 21.5596
0.0817764 -0.438494 21.6053
-0.118467 -0.276982 21.6665
-0.0995159 -0.385752 18.1895
-0.402117 -0.087887 20.859
-0.598658 -0.0177571 21.7519
-0.589141 0.39351 21.5941
-0.718419 0.436762 16.5303
-1.29555 1.02048 18.9384
-1.28872 0.311716 21.2337
-1.16008 1.00923 21.1122
-1.80356 0.762272 15.9185
-1.64961 1.15031 18.7388
-1.63561 0.334125 20.5858
-1.29367 1.11915 20.9768
-1.96956 0.60122 17.5921
-1.39151 0.73089 18.8576
1.61093 -0.312679 19.6196
2.24764 0.300565 18.6186
0.923274 -0.244348 19.1761
4.97792 -0.900955 19.94
1.72558 -0.629548 21.3823
3.2534 -0.234167 21.6147
0.870683 -1.32691 20.1398
0.49152 -0.628058 21.7989
1.35289 -0.941195 21.1474
-0.16743 -0.0430818 17.3347
-0.529871 -0.517022 21.7438
-0.422773 -0.245402 18.0874
-1.35514 -0.162253 11.6562
-1.31155 -0.604199 20.9903
-0.723573 -0.765401 16.007
-2.05663 -0.449736 15.0473
-1.31376 -0.457441 21.2776
-1.2056 -1.19834 17.4751
-1.94549 -0.369132 17.2504
1.1035 0.502138 19.7825
0.747779 0.731995 19.8285
0.728625 0.410949 19.3828
1.96205 1.38369 19.8413
1.5413 0.546771 20.7674
1.05572 1.00069 20.5839
2.05602 0.818892 21.3333
0.968331 0.114134 21.6102
0.760809 0.589953 21.5222
0.678059 -0.0111248 21.9783
0.118819 -0.331756 21.6405
0.163521 -0.110838 21.5289
0.06687 -0.595832 21.5663
-0.193712 -0.589841 21.3749
-0.0263789 -0.383311 21.2227
-0.180347 -0.834471 21.5037
-0.642541 -0.56963 20.2026
-0.0646047 -0.503212 21.0289
-0.0908569 -0.705231 20.3871
-1.49574 -1.20174 19.5022
-0.810396 -1.35419 21.8915
0.187426 -0.424038 21.2232
0.691969 0.270544 20.6295
1.4892 0.828056 20.0695
1.69629 0.778993 20.4402
-2.29289 -0.506744 18.7209
-2.34338 -1.33188 21.9849
-0.200078 -0.687408 18.4574
0.625207 0.22833 15.6102
1.56246 -0.317716 15.2213
1.92578 -0.214652 17.6051
-1.32807 0.919114 19.2968
-2.12743 1.26364 20.6343
-1.52593 0.422994 21.9553
-0.208311 -0.366065 21.7998
0.0755789 -0.709016 21.4275
0.363195 -0.96623 21.5393
-0.0464064 -3.63965 17.8704
-0.00101042 -0.495373 16.3842
0.00306846 0.052395 12.8129
0.0356413 0.494731 11.7044
0.010083 0.872469 11.1998
0.156039 1.77285 12.9738
-0.0426194 -1.43947 13.7299
-0.0113416 -0.188244 -1.79638
0.291312 1.40893 -0.344858
0.0466845 2.27233 18.0325
0.0871657 3.75502 19.7071
0.0165847 3.13842 22.7927
-0.0083571 -0.0587475 19.3213
-0.0169006 -0.135115 16.6579
0.00855203 -0.804888 16.2856
1.52491 -1.2663 19.4815
0.744739 -1.33259 21.9267
-0.200708 -0.400092 21.1114
-0.736495 0.435699 19.932
-1.49213 1.11577 19.0603
-1.66583 0.920238 18.7266
2.33724 -0.527906 18.6547
2.30483 -1.33978 21.957
0.180851 -0.654719 18.3638
-0.694574 0.226987 15.1672
-1.54217 -0.347144 13.6967
-1.99062 -0.0512058 15.8388
1.32165 0.882943 19.3471
2.07965 1.14693 20.67
1.49301 0.400599 21.9438
0.209266 -0.376539 21.8054
-0.0565311 -0.714948 21.4649
-0.327908 -0.927599 21.0136
-0.465207 -0.205139 0.666136
-0.0161495 -0.0577168 0.387946
-0.00475231 -0.000561511 0.143562
0.0291558 -0.00852726 0.055841
-0.00514532 0.0178361 0.0659424
0.0195379 0.08979 0.672844
-0.800688 0.2854 0.854339
-0.211839 1.04433 1.17042
-0.314068 0.167707 1.0222
-0.00904014 -0.0190269 -0.00231328
-0.0242193 0.0168486 -0.0291344
-0.0100233 -0.0146304 0.0381758
0.0164918 -0.0588652 0.393861
0.362213 -0.16456 0.523495
0.0106002 -0.000216007 0.241814
0.00774326 0.0231354 0.0781809
-0.0327613 -0.0327513 0.0437832
-0.0177348 0.0586397 0.361609
0.187214 0.929133 1.02258
0.833444 0.296038 0.88946
0.31406 0.169468 1.02458
0.0246604 0.0158969 -0.0276761
0.0155206 -0.0343259 -0.00352331
0.0102424 -0.0147292 0.0379376
0.0237334 0.00590175 0.475155
6.87542e-05 0.000186716 0.0270882
0 0 0
-9.16241e-06 -2.59841e-06 -0.000179754
-0.00207207 0.00499186 0.318205
0.00124362 0.00158722 0.13867
0 0 0
0 0 0
-0.111941 -0.0807007 0.202771
-0.000676069 0.00205082 0.0721667
0.00197846 0.00481356 0.0197585
-0.152258 0.186232 0.425033
0.000324352 0.000606874 0.00297229
0.0133178 0.0370348 0.164541
0.000778309 0.00190038 0.00604025
0.025203 0.00191905 0.314423
-0.00831936 0.00563028 0.253056
-8.30135e-05 1.60661e-05 0.00153942
-0.000277038 4.85537e-05 0.00971773
0 0 0
0.00325342 0.00664788 0.199508
-0.000122327 5.95098e-05 0.00382143
-0.00105843 0.00193582 0.0779403
0.133705 0.0959747 0.712857
0.108789 -0.0786432 0.196179
0.155334 0.191257 0.434646
0.000818012 0.00224147 0.0816142
-0.0018632 0.00451958 0.0185037
0 0 0
-0.0250826 0.00198545 0.313183
-0.00895164 0.0251794 0.111604
-0.000777018 0.00189784 0.00604436
-0.0243273 -0.0124903 0.0947195
-0.191663 -0.138033 0.131573
-1.44336e-07 -7.2303e-08 -2.20937e-05
-0.00146399 -0.0817498 0.0209869
-0.000910523 -0.00283787 0.0425699
0.000639523 9.19571e-05 0.012271
0.00718365 -0.000157776 0.0525127
0 0 0
-1.23756e-05 0.000303404 0.0040382
0.000602803 -0.0259453 -0.00239599
0.00172069 0.00682007 0.0978906
0.000610888 0.000346776 0.0167246
-0.0107717 2.43612 1.72969
-0.00018097 0.0141108 0.0619609
-0.00195514 -0.00280462 0.0201329
-0.000617638 0.000311718 0.00184182
0 0 0
0.000274229 0.00662064 -0.0179469
0.00544906 0.00453095 0.0922022
-0.00431171 -0.000241713 0.000258163
0.213784 -0.154298 0.148246
0.00877352 -0.00608329 0.0539446
-0.000366916 5.8402e-05 0.00797341
0.000500608 -0.00288325 0.0353076
0 0 0
-0.0165189 -0.00067506 0.120252
-0.000319543 0.000410819 0.0163173
-0.00134055 0.00190832 0.0265545
0.000614356 0.000312062 0.00184626
0.00113933 -0.00162358 0.0116327
0.00420388 -0.000218365 0.000208766
-0.00269603 0.00118885 0.0415675
-0.00226538 0.00772567 0.101191
0.000488092 9.6212e-05 0.0165785
0 0 0
0.000148193 0.00584773 0.0662366
0.000567166 0.00505717 0.124183
-2.34175e-08 -5.48669e-08 -7.34647e-06
0 0 0
0 0 0
5.87677e-05 0.000177089 0.00780431
1.03207e-06 8.80031e-05 0.00137006
0 0 0
-0.0257623 0.0314115 0.317345
0 0 0
-7.29411e-05 0.0580794 0.219526
2.89173e-06 2.07141e-05 0.0011428
1.69738e-05 -0.0116735 0.0820863