# vtk DataFile Version 2.0
tet_velo
ASCII
DATASET UNSTRUCTURED_GRID
POINTS 29498 float
-0.73024 0.265 -2.015
-0.805 0.325 2.00938
-0.743116 0.715 -1.925
-0.725 1.22599 1.845
0.730245 0.265 -2.015
0.805 0.325 2.00938
0.743116 0.715 -1.925
0.725 1.22599 1.845
-0.816212 0.223948 -0.67354
-0.833126 0.251954 0.66792
-0.847552 0.995805 -0.668333
-0.81081 1.13543 0.588333
0.81582 0.224343 -0.67354
0.83314 0.251942 0.66792
0.847553 0.995806 -0.668333
0.810812 1.13543 0.588333
-1.5416 -0.192758 -3.05104
-1.54677 -0.109254 -2.01183
-1.607 -0.133015 -0.66818
-1.6256 -0.147871 0.692538
-1.60488 -0.0981643 2.03763
-1.60092 -0.0297161 3.08387
-1.60663 0.0476132 4.11709
-1.53838 0.126107 -3.03652
-1.54364 0.244499 -2.00658
-1.62118 0.255178 -0.679425
-1.62634 0.272332 0.655361
-1.58659 0.335301 1.98414
-1.5907 0.403875 3.02919
-1.60318 0.478179 4.06517
-1.54505 0.696405 -2.98369
-1.55697 0.809994 -1.95024
-1.64059 1.01174 -0.680893
-1.61137 1.13395 0.582448
-1.53921 1.22273 1.85342
-1.56678 1.2857 2.90198
-1.59675 1.34936 3.95163
-1.56686 1.74332 -2.9682
-1.57922 1.88535 -1.94745
-1.61214 2.12517 -0.70559
-1.62122 2.33877 0.51799
-1.60746 2.4817 1.76073
-1.60598 2.56076 2.78334
-1.61514 2.62627 3.82373
-0.757351 -0.18202 -3.05651
-0.74387 -0.0928313 -2.01981
-0.796766 -0.146411 -0.667109
-0.82077 -0.16557 0.703257
-0.810811 -0.110531 2.05637
-0.810931 -0.0384592 3.09659
-0.816422 0.0414481 4.12445
-0.756877 0.125432 -3.03821
-0.809778 0.397839 3.03968
-0.817373 0.473754 4.07072
-0.7612 0.657019 -2.97321
-0.790328 1.28637 2.90029
-0.815552 1.34916 3.95127
-0.770002 1.71414 -2.95783
-0.774074 1.85668 -1.93602
-0.80391 2.11494 -0.698705
-0.822429 2.34317 0.517164
-0.819484 2.48893 1.75483
-0.820484 2.56645 2.77744
-0.828496 2.6301 3.81945
0.771962 -0.181962 -3.05651
0.779374 -0.0927409 -2.01981
0.821689 -0.146145 -0.66711
0.82658 -0.165522 0.703257
0.805194 -0.110522 2.05637
0.781431 -0.038444 3.09659
0.768994 0.0414716 4.12445
0.754961 0.125465 -3.03821
0.765957 0.397848 3.03967
0.758504 0.473773 4.07072
0.759979 0.657038 -2.97321
0.737556 1.28638 2.90029
0.743799 1.34918 3.95127
0.809088 1.71417 -2.95783
0.820198 1.85672 -1.93602
0.814961 2.11498 -0.698705
0.783575 2.3432 0.517164
0.755243 2.48895 1.75483
0.746417 2.56648 2.77744
0.742925 2.63013 3.81945
1.55148 -0.192624 -3.05104
1.56282 -0.109055 -2.01183
1.62139 -0.132644 -0.66818
1.63651 -0.147732 0.692537
1.60893 -0.0981264 2.03763
1.58225 -0.0296751 3.08388
1.56704 0.0476659 4.11709
1.53352 0.126202 -3.03652
1.5369 0.244622 -2.00658
1.6195 0.255566 -0.679425
1.63425 0.272441 0.655361
1.59412 0.335318 1.98414
1.56531 0.403904 3.02919
1.55458 0.478225 4.06517
1.54039 0.696467 -2.98369
1.55028 0.81004 -1.95024
1.63675 1.01188 -0.680893
1.61431 1.13403 0.582448
1.54055 1.22275 1.85342
1.53089 1.28573 2.90198
1.53498 1.3494 3.95163
1.59816 1.7434 -2.9682
1.61265 1.88543 -1.94745
1.61838 2.12525 -0.705591
1.5896 2.33885 0.51799
1.55312 2.48176 1.76073
1.53891 2.56081 2.78334
1.53446 2.62633 3.82373
-0.791237 0.49 -2.02456
2.5034e-06 0.220983 -2.05902
-0.798152 0.219548 -1.34427
-0.818153 0.775495 1.98034
0 0.299944 2.03444
-0.814059 0.293481 1.33865
0 0.767796 -1.9778
-0.856064 0.916132 -1.29667
0 1.27751 1.89652
-0.788986 1.20179 1.21667
0.791285 0.49 -2.0246
0.798792 0.218912 -1.34427
0.818154 0.775495 1.98034
0.814071 0.29347 1.33865
0.856056 0.916125 -1.29667
0.788982 1.20179 1.21667
-0.827175 0.235445 -0.00281
-0.882815 0.609877 -0.670937
-0.000195792 0.213598 -0.67354
-0.882664 0.693693 0.628127
7.23552e-06 0.218344 0.66792
-0.829292 1.06573 -0.04
3.5298e-07 1.41918 -0.668333
7.0596e-07 1.58136 0.588333
0.827175 0.235447 -0.00281
0.882931 0.610074 -0.670937
0.882664 0.693687 0.628127
0.829195 1.06563 -0.04
-0.893077 0.549938 -1.32047
-0.881091 0.651785 -0.021405
-0.894404 0.734594 1.27766
-9.66441e-05 0.195182 -1.34427
-9.42781e-05 0.215503 -0.00281
3.61776e-06 0.257967 1.33865
1.2517e-06 0.49 -2.18729
0 0.775495 2.10927
1.7649e-07 1.03233 -1.29667
5.2947e-07 1.56259 -0.04
3.5298e-07 1.57342 1.21667
0.893074 0.550037 -1.32047
0.881093 0.651881 -0.021405
0.894433 0.734591 1.27766
-1.13694 0.25475 -2.01079
-0.737055 0.0860843 -2.01741
-0.743558 0.195216 -2.5266
-1.1958 0.33015 1.99676
-0.807906 0.107234 2.03287
-0.807389 0.36142 2.52453
-1.15004 0.762497 -1.93762
-0.752158 0.686009 -2.4491
-0.758595 1.28584 -1.93051
-1.1321 1.22436 1.84921
-0.757664 1.25618 2.37265
-0.772242 1.85746 1.79992
0.754809 0.0861295 -2.01741
0.742603 0.195232 -2.5266
1.13357 0.254811 -2.01079
0.805097 0.107239 2.03287
0.785478 0.361424 2.52453
1.19956 0.330159 1.99676
0.751547 0.686019 -2.4491
0.781657 1.28586 -1.93051
1.1467 0.76252 -1.93762
0.731278 1.25618 2.37265
0.740121 1.85747 1.79992
1.13277 1.22437 1.84921
-1.2187 0.239563 -0.676483
-0.806489 0.0387688 -0.670325
-1.22973 0.262143 0.66164
-0.826948 0.0431923 0.685589
-1.24407 1.00377 -0.674613
-0.825731 1.55537 -0.683519
-1.21109 1.13469 0.585391
-0.81662 1.7393 0.552749
0.818754 0.0390989 -0.670325
1.21766 0.239954 -0.676483
0.82986 0.0432097 0.685589
1.2337 0.262191 0.66164
0.831257 1.55539 -0.683519
1.24215 1.00384 -0.674613
0.797193 1.73932 0.552749
1.21256 1.13473 0.585391
-1.54419 -0.151006 -2.53144
-1.53999 -0.0333258 -3.04378
-1.14948 -0.187389 -3.05378
-1.57689 -0.121135 -1.34001
-1.5452 0.0676224 -2.00921
-1.14532 -0.101043 -2.01582
-1.6163 -0.140443 0.0121788
-1.61409 0.0610819 -0.673803
-1.20188 -0.139713 -0.667645
-1.61524 -0.123017 1.36508
-1.62597 0.0622309 0.673949
-1.22318 -0.15672 0.697897
-1.6029 -0.0639402 2.56075
-1.59573 0.118568 2.01088
-1.20784 -0.104348 2.047
-1.60377 0.00894853 3.60048
-1.59581 0.187079 3.05653
-1.20593 -0.0340877 3.09023
-1.6049 0.262896 4.09113
-1.21152 0.0445306 4.12077
-1.54101 0.185303 -2.52155
-1.54172 0.411256 -3.01011
-1.14763 0.12577 -3.03737
-1.58241 0.249839 -1.343
-1.5503 0.527247 -1.97841
-1.62376 0.263755 -0.0120321
-1.63089 0.63346 -0.680159
-1.60647 0.303817 1.31975
-1.61886 0.703143 0.618905
-1.58864 0.369588 2.50666
-1.5629 0.779018 1.91878
-1.59694 0.441027 3.54718
-1.57874 0.844787 2.96558
-1.20024 0.400857 3.03443
-1.59996 0.91377 4.0084
-1.21027 0.475967 4.06795
-1.55101 0.7532 -2.46697
-1.55595 1.21986 -2.97595
-1.15313 0.676712 -2.97845
-1.59878 0.910868 -1.31557
-1.5681 1.34767 -1.94884
-1.62598 1.07285 -0.0492221
-1.62636 1.56845 -0.693242
-1.57529 1.17834 1.21794
-1.61629 1.73636 0.550219
-1.55299 1.25422 2.3777
-1.57333 1.85222 1.80708
-1.58176 1.31753 3.42681
-1.58638 1.92323 2.84266
-1.17855 1.28603 2.90114
-1.60594 1.98782 3.88768
-1.20615 1.34926 3.95145
-1.57304 1.81433 -2.45782
-1.16843 1.72873 -2.96301
-1.59568 2.00526 -1.32652
-1.17665 1.87101 -1.94174
-1.61668 2.23197 -0.0938001
-1.20802 2.12005 -0.702148
-1.61434 2.41024 1.13936
-1.22182 2.34097 0.517577
-1.60672 2.52123 2.27203
-1.21347 2.48532 1.75778
-1.61056 2.59352 3.30353
-1.21323 2.56361 2.78039
-1.22182 2.62819 3.82159
-0.750611 -0.137426 -2.53816
-0.757114 -0.0282938 -3.04736
0.00730513 -0.181991 -3.05651
-0.770318 -0.119621 -1.34346
0.0177517 -0.0927861 -2.01981
-0.808768 -0.15599 0.0180738
0.0124613 -0.146278 -0.66711
-0.815791 -0.13805 1.37981
0.00290499 -0.165546 0.703257
-0.810871 -0.0744951 2.57648
-0.00280852 -0.110527 2.05637
-0.813677 0.00149443 3.61052
-0.810355 0.17969 3.06813
-0.0147505 -0.0384516 3.09659
-0.816897 0.257601 4.09759
-0.0237137 0.0414598 4.12445
-0.759038 0.391226 -3.00571
-0.000957563 0.125448 -3.03821
-0.813576 0.435796 3.5552
-0.800053 0.842104 2.96998
-0.0219107 0.397844 3.03967
-0.816463 0.911459 4.011
-0.0294345 0.473764 4.07072
-0.765601 1.18558 -2.96552
-0.000610578 0.657028 -2.97321
-0.80294 1.31777 3.42578
-0.805406 1.92641 2.83887
-0.0263855 1.28637 2.90029
-0.822024 1.98963 3.88536
-0.0358767 1.34917 3.95127
-0.772038 1.78541 -2.44693
0.0195431 1.71415 -2.95783
-0.788992 1.98581 -1.31736
0.0230622 1.8567 -1.93602
-0.813169 2.22906 -0.0907705
0.00552572 2.11496 -0.698705
-0.820957 2.41605 1.136
-0.0194269 2.34319 0.517164
-0.819984 2.52769 2.26614
-0.0321209 2.48894 1.75483
-0.82449 2.59828 3.29845
-0.0370334 2.56646 2.77744
-0.0427857 2.63012 3.81945
0.775668 -0.137352 -2.53816
0.763461 -0.0282489 -3.04736
1.16172 -0.187293 -3.05378
0.800531 -0.119443 -1.34346
1.1711 -0.100898 -2.01582
0.824135 -0.155834 0.0180737
1.22154 -0.139395 -0.667645
0.815887 -0.138022 1.37981
1.23154 -0.156627 0.697897
0.793312 -0.074483 2.57648
1.20706 -0.104324 2.047
0.775212 0.00151377 3.61052
0.773694 0.179702 3.06813
1.18184 -0.0340595 3.09023
0.763749 0.257622 4.09759
1.16802 0.0445687 4.12077
0.75747 0.391251 -3.00571
1.14424 0.125833 -3.03737
0.76223 0.435811 3.5552
0.751757 0.842113 2.96998
1.16563 0.400876 3.03443
0.751151 0.911478 4.011
1.15654 0.475999 4.06795
0.784533 1.18561 -2.96552
1.15018 0.676753 -2.97845
0.740678 1.31778 3.42578
0.741987 1.92643 2.83887
1.13422 1.28605 2.90114
0.743362 1.98966 3.88536
1.13939 1.34929 3.95145
0.814643 1.78545 -2.44693
1.20362 1.72879 -2.96301
0.81758 1.98585 -1.31736
1.21642 1.87107 -1.94174
0.799268 2.22909 -0.0907706
1.21667 2.12012 -0.702148
0.769409 2.41608 1.136
1.18659 2.34102 0.517577
0.75083 2.52771 2.26614
1.15418 2.48536 1.75778
0.744671 2.5983 3.29845
1.14266 2.56365 2.78039
1.13869 2.62823 3.82159
1.55715 -0.150839 -2.53144
1.5425 -0.0332111 -3.04378
1.5921 -0.120849 -1.34001
1.54986 0.0677835 -2.00921
1.62895 -0.140188 0.0121787
1.62044 0.061461 -0.673803
1.62272 -0.122929 1.36508
1.63538 0.0623543 0.673949
1.59559 -0.0639007 2.56075
1.60153 0.118596 2.01088
1.57465 0.0089954 3.60048
1.57378 0.187114 3.05653
1.56081 0.262945 4.09113
1.53521 0.185412 -2.52155
1.53695 0.411335 -3.01011
1.5782 0.250094 -1.343
1.54359 0.527331 -1.97841
1.62687 0.264003 -0.0120322
1.62812 0.633723 -0.680159
1.61419 0.303879 1.31975
1.62428 0.703235 0.618905
1.57971 0.369611 2.50666
1.56734 0.779034 1.91878
1.55995 0.441064 3.54718
1.5481 0.844815 2.96558
1.54478 0.913814 4.0084
1.54533 0.753254 -2.46697
1.56927 1.21994 -2.97594
1.59352 0.91096 -1.31557
1.58147 1.34774 -1.94884
1.62553 1.07296 -0.0492222
1.62756 1.56857 -0.693242
[...]
POINT_DATA 29498
VECTORS point_vectors float
-8.40779 -10.466 12.0013
0.223126 0.335653 2.15221
-1.57152 1.14717 2.27656
-0.0282919 -0.134835 0.194723
8.42511 -10.4674 12.0439
-0.222522 0.335049 2.14871
1.5762 1.15014 2.28194
0.0286557 -0.134611 0.193477
0.0375157 0.010098 1.46818
0.0259593 -0.0119654 0.480018
0.00218996 0.00787843 0.0307971
0.00307027 0.009116 0.0278346
-0.0365596 0.0111241 1.42412
-0.0259267 -0.0119089 0.482095
-0.00217781 0.00784084 0.0307078
-0.00309539 0.00920201 0.0278287
-0.64809 -0.359645 19.9238
-1.26796 -0.837178 20.6294
-0.34747 -0.51289 21.566
0.173056 -0.21841 21.7358
0.701213 0.0463992 21.7014
1.07466 0.19848 21.4939
1.15584 0.160835 20.413
-0.792734 -0.317372 19.7855
-1.81075 -0.776555 20.5462
-0.509065 -0.665823 21.6731
0.135188 -0.413154 21.7752
0.812779 -0.267643 21.7998
1.29443 -0.163446 21.3683
1.27783 0.103807 21.1546
-0.937382 -0.0589134 19.6472
-2.157 -0.139811 20.3736
-1.35161 -0.506697 21.649
-0.445496 -0.562717 21.8688
0.194061 -0.723735 21.8651
0.640174 -0.827494 21.5843
0.676174 -0.74944 21.1116
-0.637701 0.321066 19.8765
-1.12226 0.594528 20.2842
-1.08103 0.473196 21.1964
-0.519305 0.0706581 21.5891
-0.173768 -0.14547 21.5099
0.000902209 -0.330747 21.3851
0.0965266 -0.331629 21.1948
-0.668572 -0.820211 19.3301
-1.97216 -3.75142 20.9539
-0.108987 -0.28498 21.9788
0.306083 0.182094 21.7241
0.866418 1.02729 21.0754
1.40393 1.6153 20.9911
1.11531 1.28654 20.4216
-0.844925 -0.700643 18.9013
2.29283 1.29842 13.186
2.58609 1.17788 15.8605
-1.08891 -0.0281084 18.3751
-0.121129 -1.3117 6.96076
0.957823 -1.72942 12.3508
-0.569813 0.708056 19.3672
-1.28997 1.76915 19.674
-1.49491 1.86788 21.3096
-0.642187 0.532795 21.9087
-0.261173 -0.0746025 21.8023
-0.0660728 -0.307057 21.5387
0.028095 -0.487583 21.2386
0.6686 -0.79601 19.3351
2.03711 -3.56904 20.877
0.0993874 -0.300445 21.9914
-0.311066 0.179082 21.723
-0.86245 1.03311 21.0433
-1.38393 1.70302 20.87
-1.02055 1.45104 20.3237
0.845266 -0.698251 18.8962
-2.19584 1.32182 11.8612
-2.65289 1.45515 14.7281
1.08647 -0.0272797 18.3741
0.403481 -1.25957 5.06091
-0.953427 -1.79041 10.4771
0.586845 0.691515 19.395
1.31294 1.71027 19.7029
1.50316 1.84403 21.3078
0.637672 0.558667 21.9296
0.261756 -0.0589097 21.8191
0.0639104 -0.274275 21.5529
0.000430202 -0.437089 21.4395
0.645383 -0.358344 19.9121
1.26149 -0.832512 20.633
0.352115 -0.521626 21.5539
-0.167091 -0.225667 21.7305
-0.700388 0.0404652 21.7013
-1.09708 0.224949 21.4721
-1.20782 0.148939 20.3899
0.794755 -0.317316 19.7839
1.83046 -0.790648 20.553
0.509925 -0.668106 21.6814
-0.130904 -0.413258 21.7791
-0.807231 -0.269282 21.808
-1.32326 -0.172863 21.3796
-1.36246 0.096688 21.168
0.940728 -0.0610254 19.6515
2.1701 -0.140014 20.3799
1.35874 -0.510063 21.6559
0.442361 -0.560048 21.8699
-0.189086 -0.725228 21.8648
-0.654676 -0.854418 21.5807
-0.68163 -0.782187 21.2281
0.633319 0.313311 19.8917
1.09017 0.557041 20.3075
1.07634 0.467124 21.196
0.527851 0.0648108 21.5885
0.170804 -0.17233 21.5068
-0.0211088 -0.321555 21.3552
-0.0777152 -0.347963 21.191
-1.15174 -0.106136 1.29446
-0.000375488 -0.112616 0.633331
0.00314716 -0.00186105 0.0875635
0.0390153 -0.133355 0.120695
-0.000105663 0.0273705 0.16409
0.0440701 0.0134116 0.797784
-2.04127e-05 0.0311858 0.0486705
-0.491783 -0.318572 1.15514
-0.000219133 0.0117608 -0.0113028
0.0036717 0.00910354 0.0648615
1.15864 -0.107344 1.30235
-0.00233496 -0.00262017 0.0901087
-0.0396134 -0.134359 0.12128
-0.0448516 0.013525 0.800974
0.493224 -0.320113 1.15953
-0.00370043 0.00920618 0.0644953
0.0401391 0.00874035 1.72877
9.02099e-05 0.000709721 0.00449362
5.24297e-22 2.11615e-19 8.96272e-18
1.85498e-05 0.00292665 0.0214355
-2.39032e-08 2.85817e-06 0.000457051
0.00235121 0.00884122 0.0226967
0.000721435 0.0402295 0.0915741
0 0 0
-0.0399144 0.00906952 1.73245
-0.000121211 0.000948006 0.00601785
-1.92046e-05 0.00294067 0.0215143
-0.00246224 0.00933413 0.0239438
-0.000582417 -0.00363833 0.0702724
0 0 0
-6.70993e-05 0.0048066 0.057447
-3.17293e-07 9.33641e-08 -2.32484e-05
2.02587e-09 -1.28421e-07 -2.66504e-05
-4.60635e-07 -3.95708e-06 -5.72877e-05
-0.000135531 -0.185152 0.108105
-0.000405205 -0.100775 0.0274367
0 0 0
-4.20017e-06 0.00275999 0.0255787
-3.02137e-07 -1.15052e-05 0.000394083
0.00132427 -0.00663367 0.123231
0 0 0
0.000125282 0.00497702 0.0585515
-3.61104 -1.91856 20.4453
-3.30242 -6.23944 20.8843
-2.21343 -1.9958 17.6723
1.42924 -0.0208404 21.2787
1.12038 1.15129 17.0311
1.42313 0.761453 9.36326
-4.37639 0.0923892 20.065
-3.20681 0.596863 16.3874
-2.94599 2.82872 18.8342
0.24778 -0.696454 19.3078
-0.868429 -1.03751 3.58517
-0.487016 -0.283667 21.1611
3.39696 -6.04162 20.8222
2.21917 -1.99617 17.6707
3.64623 -1.93953 20.4426
-1.11153 1.15135 16.98
-1.31246 0.706343 8.41693
-1.42347 -0.0332601 21.3355
3.2053 0.59954 16.3853
2.96295 2.73421 18.8839
4.40715 0.104765 20.0563
1.01605 -1.07449 2.68595
0.495977 -0.25046 21.1251
-0.240271 -0.705167 19.2974
-0.152553 -0.94092 22.014
0.238698 0.0678303 18.079
0.420628 -0.468749 21.5565
0.54709 0.196892 17.7116
-2.22228 -1.26457 22.3064
-4.53089 2.56886 22.0292
-0.686486 -0.926581 21.6196
-1.40857 0.380032 22.1249
-0.236631 0.0441656 18.1729
0.152036 -0.941731 22.0106
-0.544059 0.196532 17.7435
-0.415213 -0.472904 21.5978
4.49165 2.50538 22.0279
2.22964 -1.27109 22.3083
1.35096 0.422574 21.8081
0.686727 -0.926803 21.6277
-1.0084 -0.635997 20.106
-0.727727 -0.363919 19.8523
-0.708097 -0.590139 19.6552
-0.859233 -0.731893 21.357
-1.52386 -0.839939 20.5962
-1.81418 -1.78502 20.693
-0.0521561 -0.343531 21.6691
-0.448462 -0.57883 21.5983
-0.177975 -0.530862 21.8274
0.424004 -0.0936385 21.7737
0.14816 -0.300663 21.7356
0.31836 -0.113971 21.8656
0.913879 0.132606 21.5708
0.762658 -0.0720334 21.733
0.948583 0.383899 21.8627
0.983329 0.192155 21.3007
1.17753 0.0305764 21.5171
1.48865 0.720847 21.4129
1.2261 0.165983 20.7945
1.25431 0.456 21.1556
-1.33083 -0.527975 19.925
-0.883179 -0.225853 19.6794
-0.887998 -0.529556 19.4292
-1.21274 -0.831042 21.4596
-2.00656 -0.50069 20.4816
-0.137 -0.524388 21.7271
-0.904404 -0.739946 21.6806
0.429353 -0.336932 21.8618
-0.107987 -0.598165 21.8419
1.06444 -0.213595 21.6685
0.644763 -0.619533 21.9359
1.39215 -0.339516 21.5472
1.08803 -0.655578 21.6197
2.0826 0.112573 20.9182
0.976677 -0.563633 21.1792
2.06982 0.190063 20.3021
-1.60301 -0.0621093 19.7642
-0.822854 0.213591 19.7184
-1.12503 -0.0534601 19.1302
-1.92895 -0.347331 21.206
-1.67271 0.454058 20.2223
-0.835144 -0.572677 21.8293
-1.50384 0.144243 21.4283
-0.129752 -0.611644 21.8802
-0.681763 -0.1796 21.7808
0.395703 -0.789152 21.7389
-0.162367 -0.420814 21.7019
0.817573 -0.862653 21.5307
0.169435 -0.597202 21.5727
0.709865 -1.0704 20.5878
0.330849 -0.84516 20.7645
1.01573 -1.33808 21.2327
-0.876764 0.470164 20.0111
-0.682357 0.501197 19.6317
-1.19716 0.603319 20.741
-1.33779 1.07362 20.0312
-0.793702 0.249638 21.5053
-1.39283 0.954504 21.2736
-0.314231 -0.0558709 21.6068
-0.641278 0.266332 21.7274
-0.0820473 -0.240217 21.4811
-0.189376 -0.167765 21.6965
0.064356 -0.360341 21.2454
-0.0408484 -0.318431 21.4207
0.154787 -0.539777 20.8048
-1.34744 -1.91534 19.1035
-0.733331 -0.779756 19.1438
0.00498861 -1.08914 18.9461
-0.647759 -1.27461 22.4963
0.0563204 -5.47196 21.6152
0.10427 -0.0448531 21.7562
0.010244 -0.447235 21.0344
0.574119 0.538334 21.611
-0.00124125 0.11308 19.8821
1.15022 1.36535 20.8702
0.0021513 1.03398 18.9015
1.68841 1.78559 20.7238
1.94434 1.80573 16.9153
0.0151224 2.03842 18.7209
2.07493 1.38241 16.727
0.12528 3.19841 17.9601
-1.02107 -0.448927 18.5528
-0.000427895 -0.958596 18.3059
2.62459 1.38066 15.3834
1.39768 -0.782757 7.75606
0.0494902 0.901207 4.34342
2.61968 -0.370399 12.4672
0.119895 2.85909 7.31122
-0.876821 0.615297 18.8001
-0.000677561 0.00430726 17.4853
1.37599 -1.38645 9.71839
-0.257764 -0.748168 21.292
-0.0951839 1.66776 -6.23009
-0.00549915 -0.827138 21.2537
-0.0957262 1.95023 -3.02709
-0.925034 1.2428 19.3691
0.0208036 0.915332 19.0822
-1.54916 2.07462 20.3693
0.0583989 2.59384 19.2265
-1.06729 1.12803 21.8561
0.0131709 3.15732 21.28
-0.391113 0.141763 21.8773
-0.0196603 0.966049 22.109
-0.196155 -0.194198 21.6778
-0.0193656 0.133275 21.8232
-0.0181918 -0.501885 21.0633
-0.0204672 -0.170189 21.6038
-0.0193789 -0.509893 20.6453
1.36497 -1.83856 19.1413
0.734221 -0.770783 19.1416
0.706445 -0.585004 19.6616
0.65375 -1.26477 22.4491
1.77334 -1.68048 20.6803
-0.10971 -0.0511529 21.7938
0.191315 -0.532397 21.8119
-0.572684 0.540006 21.6096
-0.315009 -0.116614 21.858
-1.1276 1.38054 20.8016
-0.947868 0.382328 21.8602
-1.67163 1.86879 20.5885
-1.9152 1.91878 16.7513
-1.49749 0.751736 21.461
-2.13938 1.64333 15.7271
-1.27017 0.5139 21.2646
1.02401 -0.446983 18.5509
0.89115 -0.531172 19.4161
-2.59333 1.56941 14.335
-1.17166 -0.668506 6.07542
-2.1498 0.211201 20.5543
-2.63558 -0.340797 10.4161
-2.18953 0.188112 20.1208
0.88776 0.602704 18.8236
1.12283 -0.0553148 19.1281
-1.30341 -1.35722 8.25666
0.252439 -0.689186 20.9558
-0.706084 -1.02051 19.7563
0.0991285 -0.845422 21.3199
-0.97828 -1.47213 20.7994
0.939313 1.20577 19.403
0.691189 0.488933 19.654
1.56153 2.00014 20.395
1.325 1.01947 20.0695
1.06013 1.15472 21.8622
1.38858 0.939959 21.272
0.383386 0.163054 21.8932
0.647732 0.286908 21.7457
0.207087 -0.17822 21.7301
0.204648 -0.142415 21.6997
0.0203043 -0.484533 20.9628
0.055508 -0.341499 21.4471
-0.136229 -0.566431 20.7649
0.996281 -0.625928 20.1241
0.725165 -0.360309 19.8547
0.866918 -0.736327 21.3421
1.51793 -0.84317 20.6041
0.0588628 -0.353851 21.664
0.450239 -0.583441 21.5945
-0.420386 -0.0986543 21.7824
-0.142218 -0.304858 21.7324
-0.921273 0.138573 21.572
-0.758397 -0.0705896 21.7417
-1.0147 0.194534 21.318
-1.2093 0.0372579 21.5367
-1.28249 0.145525 20.7577
1.34234 -0.53348 19.9272
0.886627 -0.228776 19.6824
1.21752 -0.837623 21.4695
2.03166 -0.508609 20.4923
0.139499 -0.526102 21.7297
0.907995 -0.748874 21.6922
-0.42697 -0.340129 21.8632
0.108386 -0.597952 21.84
-1.07161 -0.217193 21.6813
-0.641823 -0.619234 21.9338
-1.41779 -0.307891 21.5831
-1.12005 -0.6695 21.6651
-0.931701 -0.561308 21.2608
1.61071 -0.0654352 19.7663
0.816425 0.20574 19.7353
1.93791 -0.351523 21.2174
1.64589 0.44149 20.2316
0.833769 -0.572434 21.8322
1.50154 0.141596 21.4287
0.130387 -0.608722 21.8829
0.689843 -0.179958 21.7883
-0.378819 -0.794389 21.7367
0.170714 -0.425349 21.7279
-0.843582 -0.910756 21.5541
-0.141967 -0.625384 21.6119
-0.288032 -0.982254 20.6317
0.860982 0.442318 20.0342
1.18236 0.584879 20.7452
0.799516 0.252939 21.5053
0.320002 -0.0678852 21.5999
0.0787999 -0.233403 21.4881
-0.0553466 -0.370565 21.219
-1.17285 -0.612481 20.021
-1.76788 -2.13637 18.4466
-1.30039 -1.15198 19.7135
-1.91034 -1.07726 19.2054
-0.804602 -0.565909 19.5418
-2.5848 -2.01313 20.6129
-1.01563 -0.785748 21.3873
-0.274433 -0.782674 19.0676
-0.862541 -1.12396 21.8184
-1.34265 -1.45179 22.3254
-0.14303 -0.683874 21.95
-0.0977245 -0.421278 21.6849
0.362952 0.0986714 17.5733
0.0967316 -0.293733 21.8119
0.196095 -0.629119 21.5803
0.420501 -0.264505 21.8467
0.425159 -0.175495 21.8059
0.902312 0.524591 16.7452
0.598861 0.100344 21.9277
0.771878 -0.305702 21.449
1.24862 0.257947 21.6864
1.0086 0.00130444 21.6171
1.52923 1.4865 17.1793
1.22479 0.589512 21.6232
1.81181 0.0339317 21.1575
1.75842 0.48936 21.6167
1.19057 -0.100029 21.4423
2.17041 1.7398 16.2727
1.58627 0.879533 21.3895
2.2922 0.163067 20.323
1.47351 0.400219 21.1437
-1.50492 -0.341424 19.8313
-2.91375 -0.979439 16.6539
-2.45325 0.0816205 18.8259
-1.05671 -0.316019 19.2083
-4.3301 -0.963956 20.2633
-1.59313 -0.716416 21.4037
-3.40014 -0.949672 21.7171
-0.808358 -1.55361 22.2335
-0.436005 -0.67364 21.7952
-1.29934 -1.20156 22.2555
0.126698 -0.788578 21.0654
0.216543 -0.583496 21.9338
-0.195793 -0.667855 20.579
1.08019 -0.474761 19.6736
0.899981 -0.631665 21.7719
0.409335 -1.61888 4.32076
0.345977 -1.01006 20.3454
1.69796 -0.718301 20.227
1.28824 -0.65392 21.3041
2.45393 -0.532413 9.94048
1.02913 -1.32277 20.9455
1.94808 -0.966518 19.8128
-1.27027 0.384174 19.8324
-1.75803 1.59017 18.385
-1.00155 0.811193 19.7259
-0.924918 0.365389 19.3402
-2.50806 1.20052 19.7689
-1.7458 0.374906 20.8853
-3.9254 3.00029 19.8702
-1.53281 1.1874 20.6228
-2.52572 0.585061 21.7104
-1.06717 -0.0577674 21.7029
-2.67187 0.941528 22.4353
-1.00951 0.604993 21.6543
-1.01736 -0.0646663 22.063
-0.387756 -0.299916 21.7692
-0.745 0.0123271 21.557
-0.379824 0.0102394 21.7558
-0.336758 -0.435878 21.8241
-0.0128285 -0.495117 21.6523
-0.413035 -0.399481 21.1058
-0.106356 -0.276772 21.589
-0.0169327 -0.728422 21.7506
0.293183 -0.639743 21.2346
-0.0132431 -1.16951 21.2752
0.0159366 -0.431084 21.5295
0.216268 -0.634722 22.0633
1.77462 -2.08834 18.4929
0.0295709 -2.92496 18.3422
-0.000285681 -3.13945 15.8314
0.00441526 -1.07631 18.6862
0.0321501 -8.75444 23.0612
0.311268 -0.856629 19.5516
0.0240417 -1.6553 22.689
-0.00225886 0.0304743 10.3755
-0.36029 0.0942657 17.656
0.00164551 -0.144987 19.9515
-0.00120589 0.125423 11.2446
-0.897373 0.527699 16.7555
0.00155594 0.550718 19.1484
-0.0001153 0.83356 10.8511
-1.49357 1.52485 16.8747
0.00763612 1.43246 18.3416
0.00251353 0.0926826 2.95011
0.045272 1.54832 11.265
-2.15141 1.84235 15.9394
0.0533225 2.49234 18.2033
0.0320384 2.54087 4.66346
0.146906 3.06984 12.622
2.9161 -0.978848 16.6496
-0.00153921 1.6229 13.3272
0.000116598 -0.564691 17.7451
-0.287916 -1.67695 3.61035
-0.0446534 0.121603 -4.64733
-0.0413987 0.681005 -2.43168
-2.28441 -0.399469 7.79611
0.0590284 0.400303 -5.6458
0.350546 3.82131 -0.595382
1.77564 1.53911 18.4414
0.0367306 1.73685 18.9888
0.0130956 0.886919 18.2373
0.0479994 4.7322 17.7295
3.90975 2.89479 19.9267
0.0445553 3.23805 19.9713
0.014994 6.70173 21.4194
2.68378 0.987775 22.4339
-0.013923 1.99673 22.0908
-0.0194826 1.34129 21.0855
0.735824 0.0447599 21.4268
-0.0194216 0.366649 21.9861
-0.0264162 0.301513 17.5476
0.426159 -0.342841 21.0096
-0.0161927 -0.00991531 21.643
-0.0494481 0.182858 17.5674
0.0281746 -1.14781 21.1588
0.0172198 -0.410425 21.1931
-0.107686 -0.55918 18.9041
1.15661 -0.60781 20.0431
1.3012 -1.12983 19.7141
1.92009 -1.08079 19.1943
0.80259 -0.566392 19.5467
2.55315 -1.95427 20.6078
1.02038 -0.789035 21.3763
0.866098 -1.10587 21.7847
1.34718 -1.4565 22.3352
0.155412 -0.68837 21.9393
0.0986353 -0.423052 21.6871
-0.0946624 -0.29817 21.8039
-0.192459 -0.630493 21.5941
-0.410826 -0.267347 21.8524
-0.418615 -0.182163 21.7997
-0.594355 0.097389 21.9225
-0.766466 -0.311342 21.4871
-1.24362 0.252567 21.6874
-1.01539 0.00204377 21.6223
-1.22986 0.607936 21.6119
-1.84767 0.0591251 21.0504
-1.83721 0.527644 21.45
-1.2189 -0.0803257 21.4684
-1.65264 0.928703 21.3916
-2.40271 0.231366 20.1072
-1.58903 0.410471 20.9855
1.52544 -0.349443 19.8357
2.45678 0.0833633 18.8159
1.05924 -0.315247 19.2051
4.35756 -0.969262 20.2604
1.60734 -0.724468 21.4148
3.41528 -0.957026 21.7215
0.80646 -1.56173 22.2309
0.434829 -0.673644 21.8008
1.295 -1.1958 22.2352
-0.122744 -0.799845 21.1144
-0.216712 -0.581771 21.9351
0.197595 -0.671617 20.6068
-1.07453 -0.486956 19.7167
-0.915258 -0.644032 21.7798
-0.33632 -0.956374 19.812
-1.7389 -0.63144 19.647
-1.36416 -0.653417 21.3728
-1.10951 -1.35573 19.7365
-2.15598 -1.07031 19.466
1.25482 0.375101 19.848
1.00674 0.777672 19.7602
0.926186 0.360719 19.3523
2.46614 1.14993 19.8008
1.72786 0.373077 20.8873
1.52411 1.14337 20.631
2.51119 0.580487 21.7036
1.0736 -0.0566542 21.7038
1.0162 0.617267 21.66
1.03308 -0.0536081 22.0774
0.400613 -0.301273 21.7715
0.393167 0.022233 21.7812
0.360456 -0.434585 21.8298
0.0245042 -0.514511 21.6401
0.116498 -0.246692 21.5464
0.0505984 -0.742943 21.7175
-0.263854 -0.657763 21.2823
0.00655766 -0.45419 21.4972
-0.190173 -0.710578 22.209
-1.59127 -1.16511 19.4867
-1.04276 -1.29406 22.0412
0.179554 -0.426395 21.8453
0.765108 -0.0772403 21.8296
1.59204 0.393705 21.6041
1.99087 0.47764 21.0849
-2.3571 -0.580399 18.8758
-2.18811 -1.5986 22.3433
-0.159886 -1.14147 21.5086
0.410996 -0.475012 20.4287
1.35355 -0.750393 20.1365
1.93083 -0.797063 20.1251
-1.66156 0.787176 19.2807
-2.88546 1.02105 20.7352
-1.68561 0.17115 22.0766
-0.596287 -0.264318 21.9871
-0.183444 -0.567068 21.7694
0.139773 -0.807772 21.5339
0.0255757 -3.34053 17.2504
0.00798048 -0.486897 11.2912
-0.00331591 0.0400919 10.5473
0.00111595 0.478308 10.5385
0.0107871 1.12508 10.7138
0.0533203 2.51821 11.571
-0.000801779 -1.32641 13.8463
-0.00527815 -0.404342 -0.329649
0.173073 3.26564 -2.5029
0.0344135 2.58578 17.3348
0.0433182 5.93671 18.4005
-0.0139178 3.27938 22.1605
-0.0152498 0.524185 20.0852
-0.0398342 0.290612 16.9315
-0.0610065 -0.567704 18.6734
1.58783 -1.15784 19.4971
1.05575 -1.28348 22.0099
-0.169621 -0.429702 21.8446
-0.758817 -0.0833793 21.8428
-1.61445 0.419591 21.5785
-2.05643 0.558756 20.9609
2.36466 -0.581641 18.8669
2.18748 -1.60821 22.354
0.161504 -1.1445 21.5229
-0.409255 -0.491163 20.487
-1.36092 -0.719982 19.7832
-2.05653 -0.838197 19.633
1.65416 0.768263 19.3067
2.84548 0.987506 20.7431
1.69886 0.177683 22.0824
0.612445 -0.261508 22.002
0.218721 -0.566264 21.774
-0.108493 -0.876416 21.6658
0 0 0
0.0283075 -0.309703 0.802391
-0.0221222 0.00119747 0.445974
-0.0207402 -0.0497124 0.0265495
0.00364924 0.0647383 0.202909
0.0372125 0.0395985 1.05066
0 0 0
-0.0394195 0.15284 0.279223
-0.568595 -0.0361023 0.965571
0.0321322 -0.0812776 0.217573
-0.0279749 0.00517158 -0.00778818
0.00388403 0.00452902 0.0754985
-0.0271386 -0.306644 0.795756
0 0 0
0.022417 0.00133615 0.4502
-0.00373482 0.0645757 0.202458
0.0203735 -0.0500077 0.0265375
-0.0375423 0.0390073 1.0402
0.0388948 0.151011 0.275954
0 0 0
0.575278 -0.0362468 0.97708
0.0278334 0.00528116 -0.00793036
-0.0321117 -0.082128 0.218777
-0.00389232 0.00457038 0.0744968
0.0100248 -0.0407902 1.71388
0.0418112 0.0127826 1.88897
0.000143663 0.00280817 0.0364586
0.00130635 9.78964e-05 0.00814106
0.0658406 -0.0048252 0.549188
0.0231279 0.00188677 1.2984
0 0 0
0.000472869 5.79995e-05 0.00943927
-0.199323 -0.119668 1.11562
0.0052209 0.0292011 0.0760271
0 0 0
-0.0437483 0.0669581 0.156138
0.004248 0.0126586 0.0525208
0 0 0
0.00334475 0.010553 0.0332537
0.0122088 0.00440171 0.116692
-0.0122788 -0.0357626 1.69616
-0.00141335 0.000106105 0.00883203
-0.0409236 0.0132508 1.88172
-0.000137751 0.00276376 0.0353736
-0.0660276 -0.00566338 0.552778
-0.000466645 5.72343e-05 0.00931022
-0.0228922 0.00222919 1.29847
0 0 0
0.200229 -0.119392 1.11006
0.0445116 0.067986 0.158583
-0.00512987 0.0287336 0.0748807
0 0 0
-0.00429778 0.0128026 0.0525014
-0.012264 0.00440983 0.116709
0 0 0
-0.00334491 0.0106045 0.0331085
-9.06051e-05 -0.0011836 0.00711627
0 0 0
6.55332e-08 -6.39233e-07 3.05971e-05
0 0 0
-0.000466584 -0.00239002 0.029837
0.000487407 1.12233e-05 0.00571128
4.05588e-05 2.68704e-06 0.000411502
-0.00940512 -0.035721 0.00121747
-9.19382e-06 0.000268801 0.00483963
4.03833e-20 3.10188e-18 -8.86846e-20
0.00545378 0.00801711 0.173796
0.0124192 0.00757294 0.11876
0.0226637 0.201089 0.167717
-1.09742e-05 0.0203765 0.0531822
-0.00164958 -0.00372064 0.035815
0 0 0
-7.68506e-05 -0.00894127 0.00374176
-0.000277353 -0.0116772 0.0535918
-2.19495e-18 -5.02702e-18 -6.02462e-17
0.000362721 -0.000157248 0.00676548
0 0 0
0 0 0
-0.000800605 2.64915e-05 0.00949626
0.000387493 -0.00202224 0.025052
0.00938331 -0.0360747 0.00123785
-2.12379e-05 1.26802e-06 0.000215553
-0.0119384 0.00702424 0.112255
-0.0054465 0.00788714 0.1737
0 0 0
0.00162446 -0.00364465 0.0351622
-0.000369345 -0.000157584 0.00678909
0 0 0
-0.000420239 0.00302523 0.0226393
0.000905463 4.3278e-05 0.0107235
0 0 0
0 0 0
8.66711e-05 0.00442395 0.0620117
-1.60198e-10 2.61884e-08 3.80221e-06
0.000145826 0.00362175 0.0209067
-2.99412e-05 0.000166061 0.00128425
-1.37456e-09 9.46862e-08 1.68417e-05
0 0 0
0.00085538 0.0050604 0.01383
-0.0155838 0.0297122 0.391036
-3.13717e-05 0.0675873 0.110581
-3.13702e-06 0.0291787 0.13085
-3.37965e-06 0.000979647 0.024621
-7.79873e-07 6.72528e-06 0.00163258
-0.000873304 4.22353e-05 0.0103424
0.000416155 0.00299452 0.022355
0 0 0
0 0 0
-0.000146787 0.00363877 0.0209733
2.94155e-05 0.00015861 0.00123318
0.0154575 0.0298082 0.392054
-0.000852209 0.00510147 0.0139216
0 0 0
8.48288e-18 1.20251e-17 -6.51623e-17