# vtk DataFile Version 2.0
tet_velo
ASCII
DATASET UNSTRUCTURED_GRID
POINTS 29498 float
-0.672647 0.275 -2.265
-0.665 0.295 2.27539
-0.725 0.695861 -2.115
-0.635 0.988348 2.185
0.675 0.275 -2.26891
0.665 0.295 2.27539
0.715 0.695 -2.12484
0.635 0.988548 2.185
-0.723054 0.228711 -0.751537
-0.731954 0.223928 0.761927
-0.825823 0.92418 -0.681667
-0.786568 1.01242 0.751667
0.724649 0.228685 -0.754143
0.732749 0.223917 0.760623
0.82473 0.929246 -0.688227
0.784886 1.01392 0.748387
-1.42879 -0.11416 -3.47122
-1.42909 -0.0563883 -2.29149
-1.46042 -0.0898941 -0.77618
-1.45129 -0.119635 0.754647
-1.39633 -0.0820652 2.27126
-1.3854 -0.0462415 3.45736
-1.39537 -0.0132753 4.6316
-1.43144 0.172893 -3.42581
-1.43631 0.260643 -2.25455
-1.4822 0.256535 -0.754913
-1.45745 0.241755 0.751379
-1.36899 0.276908 2.25251
-1.36831 0.311438 3.43762
-1.38859 0.343755 4.61455
-1.4581 0.695379 -3.31216
-1.48665 0.779568 -2.13676
-1.55818 0.937356 -0.691587
-1.50375 1.00022 0.747264
-1.36775 0.996529 2.19381
-1.37087 1.0269 3.38213
-1.39717 1.06166 4.57183
-1.48335 1.64735 -3.20291
-1.50178 1.75378 -2.04016
-1.53237 1.93144 -0.619694
-1.53113 2.06059 0.783084
-1.4943 2.1091 2.20398
-1.46951 2.12981 3.36761
-1.46122 2.15436 4.54819
-0.697978 -0.107625 -3.47874
-0.687398 -0.0452188 -2.301
-0.716999 -0.103025 -0.776823
-0.728811 -0.133344 0.763639
-0.697784 -0.0763814 2.28813
-0.688865 -0.0430257 3.46861
-0.694719 -0.0132413 4.63775
-0.696784 0.169701 -3.43019
-0.676429 0.315732 3.44683
-0.690674 0.343896 4.61905
-0.716028 0.659588 -3.30547
-0.676125 1.02468 3.3799
-0.698667 1.0602 4.57076
-0.731217 1.62291 -3.19589
-0.741065 1.73081 -2.03201
-0.771661 1.92587 -0.615375
-0.789916 2.06642 0.780753
-0.775867 2.11243 2.19734
-0.757685 2.13045 3.36111
-0.749824 2.15424 4.5432
0.722001 -0.107072 -3.48331
0.710712 -0.0448871 -2.30478
0.732801 -0.102776 -0.779564
0.7238 -0.133199 0.762071
0.678902 -0.0762703 2.2875
0.684876 -0.0427886 3.46781
0.695312 -0.0128561 4.63658
0.716014 0.170079 -3.43537
0.675879 0.315932 3.44628
0.689708 0.34427 4.61799
0.730669 0.659888 -3.31252
0.662946 1.025 3.37926
0.679778 1.06066 4.56963
0.765313 1.62429 -3.20177
0.774801 1.73256 -2.03786
0.764473 1.92804 -0.620242
0.715987 2.06805 0.777358
0.670073 2.11346 2.19508
0.663857 2.13127 3.35923
0.669105 2.155 4.54135
1.44588 -0.11265 -3.4804
1.43995 -0.0548952 -2.29964
1.46981 -0.0885182 -0.782383
1.45674 -0.118872 0.750861
1.39788 -0.0815777 2.26919
1.38998 -0.0456095 3.45528
1.39972 -0.0124155 4.629
1.44075 0.174304 -3.43602
1.43174 0.262393 -2.26383
1.48196 0.258576 -0.76179
1.46692 0.242609 0.747598
1.38258 0.277296 2.251
1.37669 0.31202 3.4359
1.39124 0.344601 4.61214
1.46398 0.696935 -3.32478
1.47613 0.781838 -2.15028
1.55349 0.942712 -0.701681
1.50536 1.00259 0.741781
1.37237 0.997386 2.19187
1.36451 1.02773 3.38019
1.3816 1.06266 4.56925
1.50964 1.6502 -3.21416
1.52344 1.75723 -2.05123
1.52103 1.93545 -0.628998
1.46935 2.0637 0.776369
1.40638 2.11118 2.19929
1.38627 2.1315 3.36364
1.38571 2.15592 4.54434
-0.737226 0.48543 -2.2284
0.00117651 0.294722 -2.24723
-0.687236 0.26247 -1.50827
-0.717791 0.641674 2.29799
0 0.302415 2.26798
-0.744909 0.213032 1.51866
-0.00500003 0.811797 -2.23629
-0.812997 0.847606 -1.39833
0 1.03545 2.232
-0.74858 1.03818 1.46833
0.734214 0.485 -2.23609
0.689186 0.26248 -1.51153
0.717858 0.641774 2.29805
0.745299 0.213035 1.51801
0.809898 0.852156 -1.40653
0.748015 1.0393 1.46669
-0.727595 0.226229 0.0051949
-0.876777 0.576445 -0.716602
0.000797314 0.224909 -0.75284
-0.87644 0.618174 0.756797
0.000397648 0.229135 0.761275
-0.81133 0.973434 0.035
-0.000546643 1.19286 -0.684947
-0.00084077 1.43348 0.750027
0.728789 0.226211 0.00323999
0.877118 0.578965 -0.721185
0.876493 0.618918 0.754505
0.809395 0.976169 0.03008
-0.885416 0.530938 -1.4533
-0.875896 0.59731 0.0200974
-0.885988 0.629924 1.4935
0.00098691 0.266472 -1.5099
0.000597481 0.226899 0.00421745
0.000198824 0.249028 1.51833
-0.00191176 0.485215 -2.42182
0 0.641724 2.40008
-0.00277333 0.970644 -1.40243
-0.000693707 1.43374 0.03254
-0.000420385 1.24567 1.46751
0.884723 0.531983 -1.45903
0.876103 0.598942 0.01666
0.885993 0.630346 1.49235
-1.05448 0.267821 -2.25978
-0.680023 0.114891 -2.283
-0.684716 0.22235 -2.84759
-1.01699 0.285954 2.26395
-0.681392 0.109309 2.28176
-0.670714 0.305366 2.86111
-1.10582 0.737714 -2.12588
-0.720514 0.677725 -2.71023
-0.733033 1.21334 -2.0735
-1.00138 0.992439 2.18941
-0.655562 1.00651 2.78245
-0.705434 1.55039 2.19117
0.692856 0.115056 -2.28685
0.695507 0.22254 -2.85214
1.05337 0.268696 -2.26637
0.671951 0.109365 2.28145
0.670439 0.305466 2.86083
1.02379 0.286148 2.26319
0.722835 0.677444 -2.71868
0.7449 1.21378 -2.08135
1.09556 0.738419 -2.13756
0.648973 1.00678 2.78213
0.652536 1.551 2.19004
1.00368 0.992967 2.18843
-1.10263 0.242623 -0.753225
-0.720026 0.0628429 -0.76418
-1.0947 0.232842 0.756653
-0.730383 0.045292 0.762783
-1.192 0.930768 -0.686627
-0.798742 1.42503 -0.648521
-1.14516 1.00632 0.749466
-0.788242 1.53942 0.76621
0.728725 0.0629545 -0.766854
1.1033 0.24363 -0.757967
0.728275 0.0453593 0.761347
1.09983 0.233263 0.754111
0.794601 1.42865 -0.654234
1.18911 0.935979 -0.694954
0.750437 1.54098 0.762872
1.14512 1.00825 0.745084
-1.42894 -0.0852743 -2.88136
-1.43011 0.0293662 -3.44851
-1.06338 -0.110893 -3.47498
-1.44475 -0.0731412 -1.53384
-1.4327 0.102127 -2.27302
-1.05824 -0.0508035 -2.29624
-1.45586 -0.104764 -0.0107668
-1.47131 0.0833206 -0.765546
-1.08871 -0.0964595 -0.776502
-1.42381 -0.10085 1.51295
-1.45437 0.0610602 0.753013
-1.09005 -0.126489 0.759143
-1.39087 -0.0641534 2.86431
-1.38266 0.0974216 2.26188
-1.04706 -0.0792233 2.27969
-1.39038 -0.0297584 4.04448
-1.37685 0.132598 3.44749
-1.03713 -0.0446336 3.46299
-1.39198 0.16524 4.62308
-1.04504 -0.0132583 4.63467
-1.43388 0.216768 -2.84018
-1.44477 0.434136 -3.36898
-1.06411 0.171297 -3.428
-1.45926 0.258589 -1.50473
-1.46148 0.520105 -2.19565
-1.46983 0.249145 -0.00176698
-1.52019 0.596946 -0.72325
-1.41322 0.259332 1.50194
-1.4806 0.620987 0.749322
-1.36865 0.294173 2.84506
-1.36837 0.636719 2.22316
-1.37845 0.327596 4.02609
-1.36959 0.669168 3.40987
-1.02237 0.313585 3.44223
-1.39288 0.702705 4.59319
-1.03963 0.343826 4.6168
-1.47238 0.737473 -2.72446
-1.47073 1.17137 -3.25754
-1.08707 0.677484 -3.30882
-1.52241 0.858462 -1.41417
-1.49421 1.26667 -2.08846
-1.53096 0.968787 0.0278388
-1.54527 1.4344 -0.655641
-1.43575 0.998374 1.47054
-1.51744 1.5304 0.765174
-1.36931 1.01171 2.78797
-1.43103 1.55282 2.19889
-1.38402 1.04428 3.97698
-1.42019 1.57836 3.37487
-1.0235 1.02579 3.38101
-1.4292 1.60801 4.56001
-1.04792 1.06093 4.57129
-1.49256 1.70057 -2.62154
-1.10728 1.63513 -3.1994
-1.51707 1.84261 -1.32993
-1.12142 1.7423 -2.03608
-1.53175 1.99602 0.0816947
-1.15201 1.92866 -0.617535
-1.51271 2.08484 1.49353
-1.16052 2.0635 0.781918
-1.4819 2.11946 2.78579
-1.13508 2.11077 2.20066
-1.46536 2.14209 3.9579
-1.1136 2.13013 3.36436
-1.10552 2.1543 4.54569
-0.692688 -0.0764219 -2.88987
-0.697381 0.0310378 -3.45446
0.0120117 -0.107348 -3.48102
-0.702198 -0.0741219 -1.53891
0.0116568 -0.0450529 -2.30289
-0.722905 -0.118185 -0.0065922
0.00790097 -0.1029 -0.778194
-0.713297 -0.104863 1.52589
-0.00250573 -0.133271 0.762855
-0.693324 -0.0597036 2.87837
-0.00944077 -0.0763259 2.28782
-0.691792 -0.0281335 4.05318
-0.682647 0.136353 3.45772
-0.00199431 -0.0429072 3.46821
-0.692696 0.165328 4.6284
0.000296837 -0.0130487 4.63716
-0.706406 0.414645 -3.36783
0.00961514 0.16989 -3.43278
-0.683551 0.329814 4.03294
-0.676277 0.670205 3.41337
-0.000274889 0.315832 3.44656
-0.69467 0.702048 4.5949
-0.000483012 0.344083 4.61852
-0.723623 1.14125 -3.25068
0.00732033 0.659738 -3.30899
-0.687396 1.04244 3.97533
-0.716905 1.57756 3.3705
-0.00658915 1.02484 3.37958
-0.724246 1.60722 4.55698
-0.00944464 1.06043 4.57019
-0.736141 1.67686 -2.61395
0.0170476 1.6236 -3.19883
-0.756363 1.82834 -1.32369
0.0168676 1.73168 -2.03493
-0.780789 1.99615 0.0826889
-0.00359399 1.92696 -0.617809
-0.782892 2.08943 1.48905
-0.0369647 2.06724 0.779056
-0.766776 2.12144 2.77922
-0.0528974 2.11294 2.19621
-0.753754 2.14234 3.95215
-0.0469141 2.13086 3.36017
-0.0403596 2.15462 4.54227
0.716357 -0.0759793 -2.89405
0.719008 0.031504 -3.45934
1.08394 -0.109861 -3.48186
0.721756 -0.0738314 -1.54217
1.07533 -0.0498911 -2.30221
0.7283 -0.117987 -0.00874643
1.1013 -0.0956469 -0.780974
0.701351 -0.104734 1.52479
1.09027 -0.126035 0.756466
0.681889 -0.0595295 2.87766
1.03839 -0.078924 2.27835
0.690094 -0.0278224 4.0522
0.680378 0.136572 3.45705
1.03743 -0.0441991 3.46154
0.69251 0.165707 4.62729
1.04752 -0.0126358 4.63279
0.723342 0.414984 -3.37394
1.07838 0.172192 -3.4357
0.682793 0.330101 4.03214
0.669413 0.670468 3.41277
1.02628 0.313976 3.44109
0.684743 0.702464 4.59381
1.04048 0.344436 4.61507
0.747991 1.14209 -3.25714
1.09733 0.678412 -3.31865
0.671362 1.04283 3.97445
0.663401 1.57813 3.36924
1.01373 1.02637 3.37973
0.674441 1.60783 4.55549
1.03069 1.06166 4.56944
0.770057 1.67842 -2.61982
1.13748 1.63724 -3.20797
0.769637 1.8303 -1.32905
1.14912 1.74489 -2.04455
0.74023 1.99805 0.078558
1.14275 1.93175 -0.62462
0.69303 2.09075 1.48622
1.09267 2.06587 0.776863
0.666965 2.12236 2.77715
1.03823 2.11232 2.19719
0.666481 2.14313 3.95029
1.02506 2.13138 3.36143
1.02741 2.15546 4.54284
1.44291 -0.0837726 -2.89002
1.44332 0.0308271 -3.45821
1.45488 -0.0717067 -1.54101
1.43584 0.103749 -2.28173
1.46327 -0.103695 -0.0157612
1.47588 0.0850288 -0.772087
1.42731 -0.100225 1.51003
1.46183 0.0618684 0.749229
1.39393 -0.0635936 2.86223
1.39023 0.097859 2.2601
1.39485 -0.0290125 4.04214
1.38334 0.133205 3.44559
1.39548 0.166093 4.62057
1.43625 0.218348 -2.84993
1.45237 0.43562 -3.3804
1.45685 0.260484 -1.51281
1.45393 0.522115 -2.20705
1.47444 0.250592 -0.00709593
1.51772 0.600644 -0.731736
1.42475 0.259952 1.4993
1.48614 0.622599 0.74469
1.37963 0.294658 2.84345
1.37747 0.637341 2.22143
1.38397 0.328311 4.02402
1.3706 0.669873 3.40804
1.38642 0.703633 4.5907
1.47006 0.739387 -2.73753
1.48681 1.17357 -3.26947
1.51481 0.862275 -1.42598
[...]
POINT_DATA 29498
VECTORS point_vectors float
-0.748088 -2.33148 3.84281
0.00285161 0.155847 0.494777
-0.896126 0.374854 1.49767
-0.0179126 -0.10473 0.246034
0.612965 -1.82681 3.09301
-0.00340291 0.158344 0.50497
0.706509 0.547151 1.19567
0.016823 -0.106581 0.25062
-0.000722553 -0.00103336 0.0356505
-1.19691e-17 -5.54573e-19 -1.48759e-16
-0.00263714 -0.00084938 0.0619244
0 0 0
0 0 0
0 0 0
0.00427827 -0.00145703 0.106353
0 0 0
-0.483053 -0.253076 19.8144
-1.28016 -0.797805 20.3279
-0.50204 -0.449234 21.334
0.0295391 -0.0373406 21.5134
0.602954 0.424463 21.3793
0.803271 0.476521 21.1406
0.760443 0.275445 21.0405
-0.595727 -0.185345 19.7046
-1.82015 -0.686839 20.2502
-0.637405 -0.528528 21.435
0.0682878 -0.133971 21.6153
0.970072 0.33324 21.4048
1.17537 0.31864 21.3321
1.02419 0.210513 21.4327
-0.708468 0.0349985 19.6277
-1.96666 0.0981731 20.2866
-1.17702 -0.279821 21.3722
-0.203313 -0.296602 21.7353
0.885372 -0.46814 21.4676
1.0909 -0.499025 21.1283
0.936551 -0.309814 20.7007
-0.520593 0.337039 19.8746
-0.957548 0.627443 20.3355
-0.901502 0.430222 21.1166
-0.271008 -0.00622558 21.4853
0.194929 -0.329703 21.3561
0.327957 -0.39914 21.128
0.273464 -0.330528 20.8587
-0.389039 -0.449646 19.407
-1.7744 -3.29102 20.1741
-0.443597 -0.450584 21.6205
-0.0757379 0.124301 21.3349
0.0792221 1.09855 20.1632
0.364437 1.33369 19.0621
0.852237 0.83882 17.3807
-0.56131 -0.369812 19.1402
0.914288 1.91454 11.4847
1.68947 0.933888 12.0631
-0.744151 0.0278439 18.7875
1.94327 -0.217914 9.88912
1.32017 -0.355074 15.5494
-0.476534 0.672693 19.4556
-1.0314 1.64334 20.0612
-1.26238 1.6095 21.1796
-0.345376 0.195174 21.9385
0.11337 -0.521279 21.454
0.23148 -0.628596 21.0939
0.171986 -0.542091 20.4918
0.398785 -0.441912 19.4266
1.81642 -3.14936 20.1646
0.428322 -0.429222 21.6175
0.0808198 0.131968 21.3379
-0.045362 1.08056 20.0547
-0.361363 1.33928 19.0396
-0.857695 0.837675 17.3786
0.564241 -0.363369 19.1472
-0.908139 1.91727 11.4817
-1.66518 0.932809 12.0464
0.74151 0.0359343 18.833
-1.88584 -0.2172 9.38419
-1.31118 -0.332822 15.2944
0.490171 0.645874 19.4804
1.0604 1.58576 20.0694
1.24751 1.62 21.172
0.334605 0.231059 21.9768
-0.0794673 -0.51494 21.5001
-0.216056 -0.677342 21.117
-0.167439 -0.561074 20.1627
0.47531 -0.242946 19.8205
1.26258 -0.773642 20.3306
0.505618 -0.451036 21.3324
-0.0303659 -0.0400806 21.5101
-0.59706 0.426031 21.3838
-0.805559 0.464712 21.1344
-0.761569 0.26456 21.0284
0.5871 -0.178456 19.7056
1.83416 -0.689488 20.2317
0.646765 -0.529475 21.4384
-0.0640753 -0.138481 21.6108
-0.955521 0.311552 21.4102
-1.15168 0.317041 21.3666
-1.03391 0.202669 21.4401
0.696007 0.0357208 19.6279
1.98461 0.107318 20.2676
1.19386 -0.273886 21.3696
0.206653 -0.294482 21.7414
-0.878111 -0.465342 21.4603
-1.08572 -0.503242 21.1306
-0.953511 -0.321826 20.6369
0.510471 0.32693 19.885
0.93854 0.602409 20.3363
0.907229 0.445209 21.114
0.284139 0.00867736 21.5228
-0.181309 -0.346878 21.3735
-0.309445 -0.423614 21.0561
-0.263396 -0.369502 20.9445
-1.19723 -0.0920491 1.38863
0.00637609 -5.04084 6.90403
0.00201236 0.000383648 0.163914
0.0524125 0.00085594 0.15987
3.02896e-05 0.0028143 0.0329162
-0.075662 0.0988115 0.788018
-0.000724532 0.219374 0.54634
0 0 0
2.17311e-05 0.0152119 -0.0382153
0.00945508 0.00606991 0.0433607
1.21871 -0.152193 1.34388
-0.00416705 0.000216625 0.171805
-0.0524827 0.000632076 0.160326
0.078682 0.0993048 0.847598
0.0187076 -0.0107727 0.0606579
-0.00980538 0.00621566 0.0448429
0.000233137 -1.12159e-05 0.0148975
-9.30098e-05 -0.00033528 0.0223277
0.000192228 -0.00539992 0.0820013
-0.00163043 0.0255046 0.102206
-7.64431e-06 0.00269935 0.0501134
0.00624397 0.0121538 0.0562501
-3.67891e-06 0.0150287 0.0310783
-3.47469e-06 -0.0017699 0.0299096
-0.000257649 -6.89312e-06 0.0162516
0.000160227 -0.000757323 0.0432972
0.00186223 0.0270124 0.106068
-0.0027951 0.00595921 0.0259549
0 0 0
-0.000440645 0.00589349 0.0362662
0.00571584 0.0176847 0.147941
-1.81251e-07 -1.77401e-07 1.4155e-05
4.22988e-08 -1.90337e-08 6.62504e-05
0 0 0
-0.0165561 -0.337985 0.189965
0.000587957 0.0859101 -0.0473076
-0.000228267 0.000475291 0.00452619
-2.74283e-06 0.00374788 0.0412947
-2.0601e-06 0.00052132 -0.0011593
0.00730598 -0.00140273 0.185228
0.000426179 0.00566916 0.0349831
-0.00556871 0.0172729 0.143338
-3.46325 -1.88006 19.8284
-2.74376 -5.36797 20.0635
-1.53439 -1.23943 18.0262
1.22868 1.20474 17.0374
-0.17268 1.24013 13.7523
-0.0383683 1.20596 7.7109
-4.13592 0.516784 20.037
-2.54548 0.518807 16.8799
-2.37643 2.97617 19.7508
1.41727 -0.0186505 16.1069
0.621858 0.0575345 5.20037
0.484428 -0.843578 19.1367
2.8018 -5.22526 20.0346
1.53194 -1.21487 18.0652
3.49013 -1.88736 19.8071
0.193331 1.21222 13.6526
0.043277 1.21154 7.72052
-1.23646 1.18493 17.3993
2.50554 0.498025 16.9204
2.38656 2.91136 19.734
4.20317 0.578918 19.9754
-0.597655 0.064711 5.00136
-0.529694 -0.805307 18.1938
-1.41857 -0.0208761 16.2438
-0.407274 -0.594464 20.1209
-0.123006 -0.19669 18.1411
0.0953706 0.155034 18.7695
0.142147 0.123751 16.387
-1.95404 -0.8637 21.4606
-3.44819 2.15418 21.1882
-0.144915 -0.330044 20.152
-0.539521 0.022949 21.2606
0.104441 -0.100147 18.0915
0.413723 -0.601447 20.1264
-0.142634 0.134009 16.3781
-0.105262 0.141088 18.8975
3.42926 2.18232 21.1684
1.99805 -0.856108 21.4473
0.471534 0.0734108 20.8316
0.157515 -0.336111 20.1588
-0.871726 -0.491433 19.8692
-0.544061 -0.218541 19.763
-0.483389 -0.348886 19.6291
-0.942428 -0.687593 21.0936
-1.52416 -0.762746 20.3015
-1.80278 -1.72363 20.2
-0.194224 -0.233426 21.4435
-0.571536 -0.490543 21.3811
-0.410639 -0.549652 21.5429
0.312975 0.200757 21.566
0.0471435 -0.0868321 21.5668
0.0320279 0.0369602 21.5974
0.725988 0.490255 21.2279
0.795653 0.410999 21.4033
0.59758 0.888908 21.1228
0.734369 0.538345 20.6044
0.994712 0.440274 21.2591
0.811977 1.14883 21.1094
0.892315 0.242979 21.2366
0.696883 0.943201 21.6983
-1.15189 -0.392998 19.6933
-0.654785 -0.10499 19.6541
-0.628859 -0.282982 19.4455
-1.2537 -0.671103 21.201
-1.99189 -0.296371 20.2721
-0.240373 -0.344746 21.5474
-0.926756 -0.507352 21.4095
0.507479 0.09933 21.6693
-0.0190931 -0.270799 21.7362
1.11058 0.38721 21.2258
1.12508 -0.0929181 21.3279
1.06146 0.23052 20.4801
1.26383 -0.0994847 21.4157
1.4304 1.12156 18.285
1.17656 -0.242759 20.8246
1.34357 0.582353 16.9267
-1.37295 0.0763182 19.6904
-0.659269 0.236713 19.7197
-0.782703 0.0335199 19.2578
-1.56812 -0.135928 21.0548
-1.46668 0.559084 20.2852
-0.701869 -0.321918 21.6616
-1.23129 0.187778 21.2504
0.376987 -0.333066 21.7378
-0.326183 -0.120818 21.6664
1.04832 -0.526455 21.2243
0.428235 -0.479403 21.4458
0.937179 -0.47427 20.9157
0.580593 -0.553949 21.0049
1.74756 -0.598681 19.1927
0.415631 -0.361184 20.9295
1.25839 -0.562825 19.6024
-0.765149 0.51304 20.0202
-0.558794 0.504442 19.664
-1.00466 0.565701 20.7363
-1.08931 1.06279 20.2116
-0.61669 0.22335 21.4384
-1.16757 0.867235 21.1945
0.0160099 -0.207981 21.4142
-0.325545 0.0780156 21.7249
0.293751 -0.404562 21.2296
0.162972 -0.425704 21.4142
0.387361 -0.461866 20.7356
0.324251 -0.589887 21.1352
0.250941 -0.490101 21.2068
-0.980988 -1.32032 19.0283
-0.478434 -0.428128 19.2791
0.00585726 -0.572962 19.1946
-0.852987 -1.12543 21.8653
0.0245008 -4.73855 20.0441
-0.230363 -0.0759837 21.4591
0.00458465 -1.0203 20.9442
0.0167412 0.568942 20.7128
-0.00207419 -0.194407 19.4429
0.223922 1.2403 19.9702
-0.0018264 0.373703 16.6179
-0.0344268 1.41206 20.0039
0.655066 1.75309 16.3559
-0.000318019 0.831391 15.766
1.27357 0.895233 14.722
0.000402697 0.983817 14.4402
-0.642182 -0.210059 18.9704
0.00871465 -0.490524 18.8064
1.79402 1.50162 11.9579
2.05339 1.03284 7.51403
0.00181995 -0.663185 0.0173302
1.85821 0.371521 11.6443
0.0155562 0.937634 9.42564
-0.661918 0.539084 18.9945
0.00834346 0.0597746 18.2242
2.06237 -0.558249 11.6672
0.709157 -1.0514 19.2134
0.0164967 -0.765497 -2.29245
0.51307 -0.93755 18.9554
0.000719375 -1.38879 1.95817
-0.804471 1.27589 19.5528
0.00993171 0.886131 19.2384
-1.17281 1.6055 20.5403
0.0315102 2.30212 19.8976
-0.873134 0.955558 21.8871
-0.00991147 2.72438 21.0492
-0.0285177 -0.285835 21.7065
-0.0212764 0.442163 22.2037
0.186577 -0.622574 21.3225
0.00699531 -0.50076 21.5895
0.127685 -0.660275 21.1324
0.0198365 -0.740907 21.2495
-0.00671447 -0.637808 21.2758
0.991092 -1.28265 19.063
0.483154 -0.416728 19.2922
0.486115 -0.340647 19.6393
0.848465 -1.09843 21.8125
1.77881 -1.67022 20.2021
0.229292 -0.0578989 21.4763
0.414513 -0.556147 21.5433
-0.00599813 0.567716 20.6906
-0.0356755 0.0382775 21.5927
-0.196633 1.22792 19.894
-0.593579 0.903374 21.1099
0.0481862 1.42085 20.0088
-0.657269 1.7562 16.3457
-0.817873 1.15064 21.0994
-1.26365 0.893942 14.713
-0.697194 0.949678 21.7155
0.643119 -0.205552 19.0031
0.618788 -0.277636 19.4543
-1.80467 1.52546 11.9574
-2.01232 1.02918 7.24354
-1.42605 1.11205 18.3223
-1.8331 0.381479 11.5041
-1.33584 0.57918 16.9374
0.668857 0.513799 19.0382
0.768179 0.0347716 19.2795
-2.09703 -0.554262 11.2661
-0.652289 -1.11499 18.9513
-1.76472 -0.583978 19.017
-0.519514 -0.974196 18.8201
-1.25609 -0.559453 19.5413
0.829691 1.22939 19.5787
0.556238 0.485896 19.68
1.17409 1.58524 20.5417
1.07843 1.02278 20.218
0.87202 1.02645 21.9191
1.16829 0.880948 21.1895
0.0391675 -0.277179 21.7166
0.340206 0.107305 21.7597
-0.150788 -0.626828 21.3371
-0.146318 -0.451403 21.4359
-0.106439 -0.698686 21.2537
-0.320634 -0.621037 21.1276
-0.227095 -0.491932 21.1881
0.858174 -0.471117 19.8845
0.536192 -0.21409 19.7569
0.940392 -0.679627 21.0789
1.51246 -0.749565 20.2892
0.197053 -0.235413 21.443
0.579856 -0.493333 21.3784
-0.308081 0.190054 21.5581
-0.0422549 -0.0921536 21.5556
-0.720627 0.487302 21.2343
-0.790356 0.397346 21.4045
-0.744539 0.536333 20.5767
-0.985065 0.427689 21.2536
-0.897742 0.233614 21.2342
1.14571 -0.382323 19.689
0.647238 -0.101864 19.6606
1.26483 -0.675239 21.1903
2.01615 -0.295716 20.2597
0.243346 -0.347972 21.545
0.940192 -0.514308 21.4128
-0.495657 0.0878729 21.6661
0.0241889 -0.272672 21.7341
-1.09932 0.37352 21.2272
-1.1029 -0.0973712 21.3375
-1.06626 0.223221 20.4472
-1.26104 -0.103045 21.4099
-1.19143 -0.247252 20.8033
1.35858 0.0756621 19.6866
0.64936 0.229822 19.7321
1.59194 -0.128884 21.0496
1.44925 0.552148 20.2784
0.711641 -0.325128 21.661
1.24415 0.196542 21.2474
-0.372472 -0.33115 21.7375
0.33978 -0.12109 21.7032
-1.04564 -0.529388 21.217
-0.436282 -0.506472 21.4412
-0.946301 -0.46891 20.8773
-0.590951 -0.623609 21.0223
-0.415549 -0.404703 20.7804
0.753631 0.498289 20.0263
0.998065 0.560131 20.7327
0.640469 0.247456 21.4543
-0.0143319 -0.21114 21.4768
-0.276311 -0.420254 21.2132
-0.312162 -0.47012 20.8672
-1.02272 -0.456288 19.7797
-1.19629 -1.33476 18.5969
-1.04319 -0.845906 19.4914
-1.52077 -0.733064 19.0582
-0.557393 -0.344584 19.5449
-2.48642 -1.93754 20.0451
-1.0935 -0.705065 21.1485
-0.557712 -0.401522 18.8969
-0.916546 -1.08847 21.4359
-1.36995 -1.32723 21.5245
-0.425049 -0.638639 21.5247
-0.213438 -0.291896 21.5034
0.0254121 0.0566327 16.7735
-0.127354 -0.208381 21.5769
-0.013141 -0.17655 19.1762
0.0867074 0.0623098 20.9215
0.407631 0.171873 21.631
-0.0411591 0.59084 15.2126
0.295727 0.457865 21.5926
0.578597 0.667479 18.2189
0.886412 1.11209 19.9364
0.947931 0.457597 21.2164
0.104689 1.43652 14.8253
0.735109 0.989989 21.0748
1.38136 1.19215 18.072
1.01202 1.2467 19.481
0.957942 0.386762 20.4664
0.731928 1.49745 16.3894
0.581364 0.829977 21.856
1.51836 0.96902 20.3211
0.999065 0.778976 19.5978
-1.29125 -0.199634 19.6638
-2.09644 -0.689905 17.2794
-2.02545 0.19439 18.8626
-0.710781 -0.141419 19.324
-4.37624 -0.719989 19.8174
-1.47028 -0.448036 21.1702
-2.44709 -0.402752 21.5436
-0.791301 -1.02081 20.2513
-0.44623 -0.42677 21.6436
-1.00968 -0.798406 20.9991
0.178863 0.132559 18.1492
0.542215 -0.14753 21.7056
0.814003 0.11812 18.4363
1.50976 0.629507 14.6267
1.20966 -0.134285 21.1534
0.575535 0.829319 3.51439
1.50997 -0.365849 17.8157
2.08251 0.44987 16.3922
1.23511 -0.165199 20.3566
2.31162 0.915637 10.0656
1.71905 -0.545372 19.567
1.51933 0.0205635 16.5086
-1.11183 0.430929 19.8344
-1.49674 1.62078 18.6054
-0.871426 0.8647 19.797
-0.740472 0.380571 19.3951
-2.09856 1.32707 20.0696
-1.42693 0.367545 20.8376
-2.39928 1.99338 20.5159
-1.19045 1.00803 20.6845
-2.05006 0.549987 21.374
-0.81691 0.0208017 21.5975
-2.29547 0.679018 22.26
-0.803113 0.497836 21.645
-0.472472 -0.119548 22.0413
0.12866 -0.308426 21.6212
0.30083 -0.598005 20.1965
-0.0115019 -0.236852 21.575
0.416967 -0.757464 21.6009
0.551356 -0.57149 21.2783
0.526633 -1.00824 19.8703
0.243764 -0.52541 21.2414
0.650341 -0.916985 21.3911
0.633945 -0.604375 20.8275
0.605028 -1.14511 19.3934
0.155892 -0.402503 21.258
0.464351 -0.649367 19.9424
1.19809 -1.28731 18.6363
0.0165945 -1.84872 18.5041
0.00799889 -2.03231 16.8014
0.0086157 -0.548411 18.9865
0.0207865 -7.20533 20.0042
0.573223 -0.410573 19.006
0.0126472 -1.98403 21.8904
-0.000284185 -0.510813 13.2042
-0.0164862 0.0796257 16.7881
0.000494104 -0.507035 19.9841
0.0022359 -0.00625761 11.2656
0.0430901 0.586257 15.1734
0.00043769 0.126123 17.9248
-0.00431942 0.255235 8.07801
-0.0782582 1.4278 14.7481
-0.00312842 0.407334 16.4966
0.00134305 -0.89279 -1.58692
-0.00243256 0.802084 7.67567
-0.72787 1.51072 16.3978
0.00536362 1.52753 15.3728
0.00217019 -1.00428 1.19913
0.00739148 0.968156 11.9235
2.06307 -0.669178 17.3427
0.000615725 1.17502 14.5457
0.00886847 -0.311339 18.408
-0.545451 0.830808 3.39265
-0.00363844 0.0371516 -1.61767
0.0173549 -1.4953 -4.23592
-2.32918 0.934993 9.84528
0.0115782 -2.02499 -1.31026
0.0292822 0.0625168 4.72208
1.49031 1.56768 18.6462
0.0160995 1.73214 19.2773
0.00976321 0.764313 18.5588
0.0211986 4.40343 19.5779
2.3854 1.97733 20.5191
0.0122203 2.37418 20.3067
-0.0119956 5.29032 19.7564
2.34618 0.740219 22.0809
-0.0419367 1.76486 22.2504
-0.000368558 0.275414 18.7688
-0.434538 -0.542177 19.1054
-0.00776665 -0.234318 21.8315
0.00161191 -0.562163 12.8567
-0.516056 -1.0074 19.2036
0.0140433 -0.629221 21.4021
-0.00121927 -1.22562 15.0461
-0.619231 -1.16942 19.1592
0.0122291 -0.852166 20.9855
0.0287791 -1.12157 18.5757
1.00973 -0.441315 19.7736
1.03814 -0.818958 19.5095
1.5035 -0.718449 19.0666
0.553773 -0.330733 19.5492
2.46443 -1.90342 20.0428
1.10103 -0.700998 21.131
0.927654 -1.07174 21.4026
1.38084 -1.32361 21.4506
0.427399 -0.643159 21.535
0.21802 -0.295686 21.4997
0.124292 -0.20997 21.5723
0.0144598 -0.189654 19.2398
-0.0933087 0.0586666 20.9111
-0.404078 0.164556 21.6281
-0.296197 0.462916 21.5861
-0.578666 0.648387 18.3593
-0.886368 1.11493 19.9154
-0.947676 0.456779 21.2198
-0.733934 0.995175 21.0612
-1.37934 1.17166 18.198
-1.0112 1.24178 19.4885
-0.970425 0.383994 20.4341
-0.57168 0.851723 21.8701
-1.52881 0.955254 20.297
-0.995221 0.782199 19.6281
1.27654 -0.194453 19.6678
1.98727 0.184131 18.8659
0.702547 -0.135013 19.3418
4.42454 -0.709893 19.7942
1.49083 -0.45243 21.1643
2.50051 -0.384944 21.5259
0.814372 -1.03201 20.3099
0.453213 -0.432443 21.6441
1.03611 -0.806548 21.0273
-0.174317 0.122497 18.2078
-0.529809 -0.149943 21.7097
-0.806435 0.110711 18.4567
-1.50833 0.631918 14.8641
-1.19748 -0.14316 21.1653
-1.51006 -0.355801 17.7
-2.08864 0.453109 16.3045
-1.22928 -0.163196 20.3505
-1.73049 -0.558861 19.4364
-1.51903 0.0302142 16.3962
1.09166 0.418537 19.8451
0.866686 0.833324 19.8141
0.734385 0.369004 19.4147
2.07983 1.29573 20.0617
1.42731 0.375079 20.8285
1.18199 0.992165 20.6835
2.05532 0.571719 21.3648
0.845794 0.0257524 21.6118
0.81966 0.544989 21.6607
0.494534 -0.109121 22.0799
-0.133859 -0.322152 21.6491
0.017052 -0.24228 21.5851
-0.396918 -0.790992 21.6338
-0.554094 -0.603216 21.2328
-0.228711 -0.563797 21.287
-0.634922 -0.933763 21.4794
-0.678242 -0.623899 20.8377
-0.146531 -0.433872 21.2532
-0.467531 -0.68945 19.8003
-1.2357 -0.834155 19.311
-1.0895 -1.24301 21.6428
-0.069786 -0.219624 21.1447
0.451456 0.589311 20.5287
0.99603 1.13178 19.7791
1.02915 0.867286 20.9844
-1.83157 -0.338594 18.8463
-1.86885 -0.998778 21.5926
-0.132525 -0.544353 19.0779
0.735071 0.616246 16.8191
1.75998 0.491374 16.6115
1.86481 0.471522 19.0273
-1.41876 0.875482 19.364
-2.04165 0.842665 20.8107
-1.32768 0.179299 21.99
0.142169 -0.480084 21.8731
0.560428 -0.846638 21.3237
0.653169 -0.923819 20.8106
0.0146396 -1.94855 17.8545
-0.00628072 -1.10738 15.5059
0.00350777 -0.196245 11.4878
0.000495792 0.124317 10.0688
-0.0089981 -0.102366 7.57742
0.00189935 0.518808 8.4059
0.00483381 -0.987576 15.5036
-0.00444817 -0.655707 -3.96723
0.040544 -2.06744 -2.72438
0.0247278 2.59647 17.7428
0.00838948 3.43441 19.994
-0.0287913 2.8469 20.9335
0.00418632 -0.473496 14.5941
-0.000475066 -0.670783 13.8948
0.0143148 -0.992065 15.6945
1.2251 -0.817336 19.3236
1.10235 -1.23276 21.601
0.0643005 -0.224625 21.1495
-0.452423 0.585352 20.5152
-0.997131 1.12955 19.7766
-1.03088 0.87236 20.9791
1.81228 -0.330215 18.8553
1.88668 -1.01535 21.5347
0.137545 -0.557684 19.1385
-0.737194 0.604609 16.9713
-1.75361 0.492461 16.6362
-1.87152 0.473202 18.8615
1.40228 0.841083 19.3768
2.02838 0.849274 20.8028
1.37318 0.212993 22.0094
-0.137158 -0.499965 21.9125
-0.557206 -0.874567 21.3421
-0.582703 -0.947209 20.9959
0 0 0
0.46664 -6.17823 7.05299
-0.0107149 -0.000300801 0.195276
0.0330967 0.0193587 0.0836859
-0.0543561 0.0406258 0.145897
-0.0335798 0.0296969 0.313378
-1.47796 0.457615 1.71332
-0.155067 0.562673 0.895958
-0.140299 0.0176716 0.423256
0.00720428 -0.033752 0.0301976
-0.000580629 0.0128078 -0.0483146
0.0216998 -0.00377364 0.185173
-0.486302 -5.51159 6.12178
0 0 0
0.0114434 -0.000121548 0.218217
0.057439 0.0404253 0.149255
-0.0332347 0.0191299 0.0836754
0.0322074 0.0295457 0.304276
0.223379 0.871962 1.06234
1.1632 0.188925 1.37533
0.326049 0.0398397 0.991745
0.00055476 0.0129883 -0.04991
0.0365384 -0.00892558 -0.0169167
-0.0189541 -0.00343701 0.160406
-0.0191769 -0.0605024 0.611129
0 0 0
9.35319e-05 -0.000240001 0.0564533
0 0 0
-0.00534833 0.00429001 0.287924
0.00048909 -2.75288e-05 0.0258533
-0.00330739 0.0131697 0.124197
0 0 0
-0.0523056 -0.0436005 0.12476
-0.000653348 -0.000163128 0.0591334
0 0 0
-0.0104067 0.0109379 0.0288469
0 0 0
0.00130254 0.011255 0.0384325
0.00124501 0.00222427 0.00782713
0.0369449 -0.00227619 0.18922
-0.00110429 -0.0198424 0.139094
0 0 0
-6.06488e-05 -2.03913e-06 0.00277373
-5.15884e-05 -0.000336315 0.0136833
0.00568651 0.00299387 0.317262
0 0 0
-0.000431454 -2.04044e-05 0.0227777
-0.00624512 0.0177387 0.281029
0.117034 -0.0983314 0.285752
0.0122738 0.0129357 0.0340559
0.0017409 -0.00253865 0.039317
0 0 0
0 0 0
-0.0292567 -0.00355916 0.149235
-0.0018906 0.016215 0.0550995
0 0 0
-0.0116502 -0.0124608 0.163942
-0.0734518 -0.0686232 0.0382177
-8.71944e-08 -2.68898e-06 8.06591e-05
0 0 0
-0.00282975 0.00164264 0.076106
-2.34825e-05 2.90157e-06 -0.000154861
0 0 0
-0.0619517 0.028593 -0.0169065
5.56399e-05 0.00214224 0.0360708
1.36684e-05 -0.00667265 -0.00564993
0.00366307 0.00836932 0.106494
0 0 0
0 0 0
-8.40938e-06 0.0105616 0.0591339
-0.00703835 -0.0109716 0.262254
-0.0231793 0.00407791 0.076275
0 0 0
0 0 0
0.0113911 0.0142828 0.121145
-0.00258938 0.000265986 -0.0010677
0.0666754 -0.0133623 0.0551998
0 0 0
0 0 0
0.00169139 0.00147144 0.0480908
0.0599181 0.0278197 -0.016151
0 0 0
0 0 0
-0.00376351 0.0087122 0.108904
0.0102292 0.000568724 0.0343037
0.00649999 -0.00714861 0.231217
0.00275743 0.0002757 -0.00110418
-0.0113439 0.0128416 0.10734
-0.000502463 0.0151537 0.183423
0 0 0
0 0 0
-0.000503379 0.0125515 0.104058
-0.000207497 -0.0347306 0.230999
6.53168e-08 -8.96849e-08 4.48061e-05
-5.28068e-05 0.00234766 0.0103182
-0.000146129 0.0113793 0.0957763
4.98504e-09 1.51294e-08 2.47813e-05
0 0 0
0.00174248 0.0106769 0.0392349
-0.0206283 0.0269554 0.33559
0 0 0
-0.000211172 0.11708 0.338216
-2.70873e-06 6.75972e-05 0.00771812
-2.98523e-06 -0.00617428 0.0330275
0 0 0
0.000414056 0.0117286 0.141493
0 0 0
0.00049855 0.0122622 0.101396
8.91855e-05 0.00382649 0.0167994
-8.79546e-05 0.0111864 0.0915097
0.0235456 0.035291 0.424361
-0.00483249 0.022957 0.0856097
-0.0231434 -0.0338013 0.316517
-0.0116932 -0.0109159 0.0786448
0 0 0
-0.00403422 -0.0238132 0.118627
-5.77158e-05 0.00986423 0.236091
0.0017598 0.0128574 0.125741
-0.000233539 0.00688116 0.0662527
0.00251391 0.0195462 0.0678867