# vtk DataFile Version 2.0
tri_press
ASCII
DATASET UNSTRUCTURED_GRID
POINTS 3682 float
-0.672647 0.275 -2.265
-0.665 0.295 2.27539
-0.725 0.695861 -2.115
-0.635 0.988348 2.185
0.675 0.275 -2.26891
0.665 0.295 2.27539
0.715 0.695 -2.12484
0.635 0.988548 2.185
-0.723054 0.228711 -0.751537
-0.731954 0.223928 0.761927
-0.825823 0.92418 -0.681667
-0.786568 1.01242 0.751667
0.724649 0.228685 -0.754143
0.732749 0.223917 0.760623
0.82473 0.929246 -0.688227
0.784886 1.01392 0.748387
-1.42879 -0.11416 -3.47122
-1.42909 -0.0563883 -2.29149
-1.46042 -0.0898941 -0.77618
-1.45129 -0.119635 0.754647
-1.39633 -0.0820652 2.27126
-1.3854 -0.0462415 3.45736
-1.39537 -0.0132753 4.6316
-1.43144 0.172893 -3.42581
-1.43631 0.260643 -2.25455
-1.4822 0.256535 -0.754913
-1.45745 0.241755 0.751379
-1.36899 0.276908 2.25251
-1.36831 0.311438 3.43762
-1.38859 0.343755 4.61455
-1.4581 0.695379 -3.31216
-1.48665 0.779568 -2.13676
-1.55818 0.937356 -0.691587
-1.50375 1.00022 0.747264
-1.36775 0.996529 2.19381
-1.37087 1.0269 3.38213
-1.39717 1.06166 4.57183
-1.48335 1.64735 -3.20291
-1.50178 1.75378 -2.04016
-1.53237 1.93144 -0.619694
-1.53113 2.06059 0.783084
-1.4943 2.1091 2.20398
-1.46951 2.12981 3.36761
-1.46122 2.15436 4.54819
-0.697978 -0.107625 -3.47874
-0.687398 -0.0452188 -2.301
-0.716999 -0.103025 -0.776823
-0.728811 -0.133344 0.763639
-0.697784 -0.0763814 2.28813
-0.688865 -0.0430257 3.46861
-0.694719 -0.0132413 4.63775
-0.696784 0.169701 -3.43019
-0.676429 0.315732 3.44683
-0.690674 0.343896 4.61905
-0.716028 0.659588 -3.30547
-0.676125 1.02468 3.3799
-0.698667 1.0602 4.57076
-0.731217 1.62291 -3.19589
-0.741065 1.73081 -2.03201
-0.771661 1.92587 -0.615375
-0.789916 2.06642 0.780753
-0.775867 2.11243 2.19734
-0.757685 2.13045 3.36111
-0.749824 2.15424 4.5432
0.722001 -0.107072 -3.48331
0.710712 -0.0448871 -2.30478
0.732801 -0.102776 -0.779564
0.7238 -0.133199 0.762071
0.678902 -0.0762703 2.2875
0.684876 -0.0427886 3.46781
0.695312 -0.0128561 4.63658
0.716014 0.170079 -3.43537
0.675879 0.315932 3.44628
0.689708 0.34427 4.61799
0.730669 0.659888 -3.31252
0.662946 1.025 3.37926
0.679778 1.06066 4.56963
0.765313 1.62429 -3.20177
0.774801 1.73256 -2.03786
0.764473 1.92804 -0.620242
0.715987 2.06805 0.777358
0.670073 2.11346 2.19508
0.663857 2.13127 3.35923
0.669105 2.155 4.54135
1.44588 -0.11265 -3.4804
1.43995 -0.0548952 -2.29964
1.46981 -0.0885182 -0.782383
1.45674 -0.118872 0.750861
1.39788 -0.0815777 2.26919
1.38998 -0.0456095 3.45528
1.39972 -0.0124155 4.629
1.44075 0.174304 -3.43602
1.43174 0.262393 -2.26383
1.48196 0.258576 -0.76179
1.46692 0.242609 0.747598
1.38258 0.277296 2.251
1.37669 0.31202 3.4359
1.39124 0.344601 4.61214
1.46398 0.696935 -3.32478
1.47613 0.781838 -2.15028
1.55349 0.942712 -0.701681
1.50536 1.00259 0.741781
1.37237 0.997386 2.19187
1.36451 1.02773 3.38019
1.3816 1.06266 4.56925
1.50964 1.6502 -3.21416
1.52344 1.75723 -2.05123
1.52103 1.93545 -0.628998
1.46935 2.0637 0.776369
1.40638 2.11118 2.19929
1.38627 2.1315 3.36364
1.38571 2.15592 4.54434
-0.737226 0.48543 -2.2284
0.00117651 0.294722 -2.24723
-0.687236 0.26247 -1.50827
-0.717791 0.641674 2.29799
0 0.302415 2.26798
-0.744909 0.213032 1.51866
-0.00500003 0.811797 -2.23629
-0.812997 0.847606 -1.39833
0 1.03545 2.232
-0.74858 1.03818 1.46833
0.734214 0.485 -2.23609
0.689186 0.26248 -1.51153
0.717858 0.641774 2.29805
0.745299 0.213035 1.51801
0.809898 0.852156 -1.40653
0.748015 1.0393 1.46669
-0.727595 0.226229 0.0051949
-0.876777 0.576445 -0.716602
0.000797314 0.224909 -0.75284
-0.87644 0.618174 0.756797
0.000397648 0.229135 0.761275
-0.81133 0.973434 0.035
-0.000546643 1.19286 -0.684947
-0.00084077 1.43348 0.750027
0.728789 0.226211 0.00323999
0.877118 0.578965 -0.721185
0.876493 0.618918 0.754505
0.809395 0.976169 0.03008
-0.885416 0.530938 -1.4533
0.884723 0.531983 -1.45903
0.00098691 0.266472 -1.5099
-0.00277333 0.970644 -1.40243
-0.00191176 0.485215 -2.42182
-0.875896 0.59731 0.0200974
0.876103 0.598942 0.01666
0.000597481 0.226899 0.00421745
-0.000693707 1.43374 0.03254
-0.885988 0.629924 1.4935
0.885993 0.630346 1.49235
0.000198824 0.249028 1.51833
-0.000420385 1.24567 1.46751
0 0.641724 2.40008
-0.644733 0.380215 -2.1865
-0.335735 0.293452 -2.24753
-0.684453 0.264224 -1.88663
-0.710315 0.468337 2.30561
-0.3325 0.302277 2.26811
-0.686384 0.272587 1.89702
-0.745651 0.590646 -2.18624
-0.365 0.791032 -2.21285
-0.817233 0.819968 -1.75667
-0.678283 0.815011 2.24338
-0.3175 1.02647 2.22307
-0.708724 1.0302 1.82667
0.338088 0.295992 -2.24694
0.643916 0.38 -2.19181
0.686599 0.264234 -1.89022
0.3325 0.302805 2.26759
0.710306 0.468387 2.3056
0.685927 0.27324 1.8967
0.355 0.790375 -2.21754
0.740692 0.59 -2.19655
0.812663 0.823792 -1.76569
0.3175 1.02694 2.22344
0.676124 0.815161 2.24122
0.707848 1.03027 1.82585
-0.714916 0.235819 -1.1299
-0.725371 0.227423 -0.373171
-0.858162 0.373455 -0.734069
-0.354172 0.240723 -0.752189
-0.743304 0.213608 1.14029
-0.729781 0.225072 0.383561
-0.865167 0.390566 0.759362
-0.355564 0.246961 0.761601
-0.821149 0.887631 -1.04
-0.877923 0.763624 -0.699134
-0.819017 0.949248 -0.323333
-0.466107 1.16436 -0.683307
-0.770804 1.02853 1.11
-0.868716 0.833903 0.754232
-0.800962 0.994941 0.393333
-0.485314 1.40617 0.750847
0.7167 0.2358 -1.13284
0.355762 0.24072 -0.753492
0.726764 0.227402 -0.375452
0.857544 0.375495 -0.737664
0.743889 0.213611 1.13932
0.356356 0.246961 0.760949
0.73075 0.225084 0.381932
0.865243 0.391107 0.757564
0.818115 0.891502 -1.04738
0.463345 1.16356 -0.686587
0.87757 0.767429 -0.704706
0.817532 0.953177 -0.329073
0.769977 1.03014 1.10754
0.482938 1.40553 0.749207
0.868631 0.835389 0.751446
0.798801 0.996704 0.389233
-0.871268 0.508184 -1.84085
-0.369569 0.485323 -2.384
0.00108171 0.264701 -1.87857
-0.000367627 0.389969 -2.22925
-0.873109 0.396704 -1.48078
-0.343125 0.266502 -1.50908
-0.820799 0.635799 1.89574
-0.358896 0.641699 2.38387
9.9412e-05 0.268374 1.89315
0 0.472069 2.42006
-0.869648 0.421478 1.50608
-0.372355 0.24929 1.5185
-0.00388668 0.911809 -1.81936
-0.00345589 0.648506 -2.30435
-0.894991 0.689272 -1.42582
-0.407885 0.958456 -1.40038
-0.000210193 1.08274 1.84976
0 0.838585 2.32213
-0.858806 0.834052 1.48091
-0.3745 1.22443 1.46792
0.865184 0.508491 -1.84756
0.366151 0.485108 -2.3866
0.869479 0.397231 -1.48528
0.345087 0.266501 -1.51071
0.820893 0.63606 1.8952
0.358929 0.641749 2.38385
0.869923 0.42169 1.50518
0.372749 0.249305 1.51817
0.894922 0.692069 -1.43278
0.403562 0.958355 -1.40448
0.858386 0.834825 1.47952
0.373797 1.22441 1.4671
-0.863634 0.380825 0.0126462
-0.354923 0.243716 0.00470617
-0.871353 0.553692 -1.08495
-0.8768 0.586878 -0.348252
0.000892112 0.2311 -1.13137
0.000697397 0.225859 -0.374311
-0.875954 0.607742 0.388447
-0.89417 0.624049 1.12515
0.000497564 0.228003 0.382746
0.000298236 0.247306 1.1398
-0.876239 0.801685 0.0275487
-0.510687 1.41294 0.03377
-0.00165999 1.00941 -1.04369
-0.000620175 1.36852 -0.326203
-0.000767239 1.44696 0.391283
-0.000630578 1.38228 1.10877
0.863542 0.382028 0.00994998
0.356113 0.243715 0.00372872
0.871377 0.555474 -1.09011
0.877067 0.588953 -0.352263
0.876075 0.60893 0.385583
0.89437 0.624632 1.12343
0.876186 0.804274 0.02337
0.508162 1.41257 0.03131
-0.859088 0.388459 -1.86374
-0.863967 0.399641 -1.10743
-0.87352 0.719792 -1.06248
-0.878834 0.639959 -1.79876
0.851106 0.388616 -1.86889
0.876582 0.641035 -1.80662
0.873251 0.723087 -1.06874
0.865001 0.400528 -1.11147
-0.33943 0.264698 -1.8826
0.341587 0.264691 -1.88439
0.353905 0.231223 -1.1321
-0.352127 0.231234 -1.13064
-0.386443 0.903721 -1.78801
-0.410535 0.984343 -1.04185
0.407827 0.983307 -1.04554
0.379281 0.903118 -1.79252
-0.352652 0.385092 -2.22986
-0.367284 0.619576 -2.35157
0.360575 0.619253 -2.33158
0.35212 0.384984 -2.22989
-0.861832 0.376673 -0.360712
-0.864696 0.385548 0.386004
-0.873822 0.818466 0.39089
-0.877363 0.782796 -0.335793
0.861373 0.378347 -0.363857
0.877329 0.786077 -0.340668
0.873758 0.820506 0.387408
0.864658 0.386435 0.383757
-0.354571 0.242171 -0.373741
0.355961 0.24217 -0.374882
0.356242 0.245324 0.382339
-0.35525 0.245324 0.383154
-0.508697 1.32925 -0.324768
-0.505886 1.42532 0.392308
0.503808 1.42557 0.390258
0.506084 1.32873 -0.327638
-0.879598 0.421265 1.13272
-0.817304 0.444908 1.89638
-0.80411 0.824531 1.8612
-0.869219 0.824675 1.11757
0.879719 0.421554 1.13137
0.869104 0.825622 1.11548
0.804348 0.824993 1.86052
0.817522 0.445039 1.89595
-0.369067 0.247532 1.14005
0.369661 0.247536 1.13956
0.352624 0.268587 1.89493
-0.352428 0.268605 1.89509
-0.384102 1.36411 1.10939
-0.346 1.07613 1.83821
0.345649 1.07597 1.8378
0.38291 1.365 1.10816
-0.345698 0.470203 2.40408
0.345715 0.470228 2.40405
0.338215 0.826873 2.32191
-0.338198 0.826798 2.3199
-0.668459 0.327608 -2.23552
-0.504191 0.267115 -2.27337
-0.67982 0.268342 -2.07582
-0.685374 0.381668 2.28822
-0.49875 0.296326 2.27406
-0.680254 0.279231 2.08621
-0.734593 0.643253 -2.14989
-0.545 0.74376 -2.16424
-0.789272 0.77607 -1.93583
-0.659821 0.90168 2.21737
-0.47625 1.01387 2.2105
-0.679863 1.01727 2.00583
0.506544 0.267117 -2.2763
0.659008 0.3275 -2.22991
0.682085 0.268331 -2.07956
0.49875 0.297475 2.27292
0.684876 0.381693 2.28772
0.679041 0.280542 2.08604
0.535 0.741715 -2.17022
0.726268 0.6425 -2.15912
0.782255 0.777819 -1.94526
0.47625 1.01337 2.20985
0.657595 0.901854 2.21514
0.679904 1.01789 2.00542
-0.716438 0.234812 -0.94072
-0.724243 0.228036 -0.562354
-0.845114 0.27383 -0.742803
-0.542915 0.226112 -0.751863
-0.742531 0.213866 0.95111
-0.730846 0.224522 0.572744
-0.841304 0.285876 0.760644
-0.550756 0.22145 0.761764
-0.823021 0.905441 -0.860833
-0.858958 0.847444 -0.690401
-0.821905 0.936198 -0.5025
-0.694373 1.14109 -0.682487
-0.780772 1.02256 0.930833
-0.843767 0.931224 0.752949
-0.795922 1.00584 0.5725
-0.659023 1.25546 0.751257
0.743763 0.209154 -0.943489
0.543514 0.228084 -0.753818
0.725735 0.228015 -0.564798
0.845477 0.274899 -0.745904
0.743186 0.213897 0.949969
0.551412 0.22172 0.760786
0.731741 0.224509 0.571278
0.841425 0.286298 0.759094
0.821962 0.910913 -0.867803
0.690272 1.13887 -0.687407
[...]
POINT_DATA 3682
SCALARS point_scalars float 1
LOOKUP_TABLE default
-35.3828
-40.9057
-13.3582
-36.9476
16.703
-40.9326
-9.02623
-36.9526
-39.5468
-35.2913
-56.1248
-49.9817
-39.0525
-35.195
-56.6803
-49.9776
-30.5893
-110.5
-40.0181
-33.9301
-39.7051
-35.9969
-33.3674
82.0835
-91.633
-37.7936
-34.8833
-39.8675
-35.6942
-33.1489
77.5888
-77.5713
-47.1366
-44.4886
-41.1368
-35.7518
-33.0714
11.1356
-54.8549
-83.153
-62.1474
-40.4164
-35.9465
-34.9132
143.861
-38.6962
-43.2129
-35.3226
-39.8356
-32.4355
-31.9765
143.861
-32.5908
-31.599
181.875
-32.942
-31.9732
43.6516
-37.7454
-79.8608
-62.8075
-37.6015
-33.6596
-33.2133
146.546
-64.6538
-44.9765
-35.3774
-39.9643
-32.4387
-31.9844
146.546
-32.6146
-31.6102
180.823
-32.893
-31.9745
28.531
-41.7113
-78.787
-64.0413
-37.2883
-33.6112
-33.1922
31.8936
-105.296
-40.1136
-34.1095
-39.502
-36.0052
-33.4376
31.8936
-100.588
-38.2368
-36.755
-39.7964
-35.6976
-33.1568
58.7195
-75.9878
-47.1402
-44.6003
-41.0873
-35.7397
-33.075
7.48654
-56.9422
-74.525
-62.466
-40.3052
-35.9323
-34.9068
25.9859
-12.0036
-43.4017
-36.1406
-30.7065
-45.6066
-76.4813
-45.3611
-34.9388
-48.5943
27.6137
-42.4812
-36.1217
-45.4109
-44.7239
-48.628
-35.2109
-39.4957
-40.7021
-38.916
-39.5267
-53.8471
12.9171
-68.1683
-35.1089
-39.815
-38.8029
-53.5838
-49.9025
-48.8645
-51.8536
-8.9384
187.324
-40.2252
-40.2503
-36.9804
-94.483
-48.2602
-48.2493
-38.8905
-43.5539
-27.4777
41.2719
-14.8819
-68.6772
-37.2539
-34.1305
-38.4567
-0.887019
-45.5609
-55.522
-35.9034
-34.3093
-41.5864
-12.2792
47.006
-68.0071
-34.0054
-37.2479
-38.4827
-45.1597
3.74819
-55.73
-34.3098
-35.6389
-41.5772
-35.3526
-36.2904
-37.5737
-40.561
-37.3878
-35.0355
-35.113
-37.7839
-37.1422
-45.1118
-55.9845
2.95055
-49.7375
-43.5149
-50.9668
-64.3993
-27.3655
-40.8697
-36.0064
-37.9967
-37.3173
-37.7533
-34.9178
-36.1237
-37.052
3.48787
-45.4179
-56.2325
-49.8837
-64.4205
-43.5171
-51.0937
-79.7868
190.365
-81.6476
41.3882
-48.1863
-50.0906
-42.8295
-31.6582
-37.0539
-22.447
-47.5092
-40.2722
-30.5697
168.028
-51.1762
-15.8685
-38.408
-28.8351
-49.4764
-44.2682
-76.6253
192.198
-47.1193
-49.9569
-42.7847
-31.636
-47.4792
-40.2589
-50.6558
-16.6506
-49.4473
-44.2808
-37.402
-36.3431
-40.0932
-40.71
-43.003
-38.559
-39.5601
-44.7496
-37.0647
-37.4706
-45.6769
-84.7017
15.3445
-69.7834
-80.0569
-55.1793
-37.4532
-36.3482
-40.4266
-40.8521
-39.569
-44.8652
-45.5087
-84.8454
-80.7918
-42.0211
-38.7265
-82.3782
-78.225
-79.1904
-38.6559
-42.3405
-79.3071
-79.4284
-42.4925
-42.4554
-33.0804
6.85071
6.84105
-33.3645
56.0772
154.162
155.764
56.0062
-37.7066
-36.9015
-43.977
-46.72
-37.8034
-46.9828
-44.0543
-36.7321
-37.7164
-37.6973
-36.4214
-36.4747
-65.7844
-70.6101
-70.715
-64.1895
-43.4989
-43.0277
-42.6048
-46.9034
-43.5915
-46.8488
-42.5766
-42.9984
-37.8154
-37.8207
-37.9167
-37.9131
-55.7388
-38.8916
-38.881
-55.8342
-30.3916
-30.3998
-32.1601
-32.2408
41.6313
-135.513
-96.453
-38.2126
-37.7442
-37.7433
-1.87867
-13.8601
-46.6974
-36.492
-34.5233
-39.4307
-138.363
65.5171
-96.0375
-37.7361
-38.2622
-37.6205
-9.61953
-2.17719
-42.4517
-34.5511
-36.5375
-39.4283
-40.1645
-37.274
-38.5679
-39.8596
-37.4201
-35.1629
-34.2676
-36.9384
-48.1301
-49.5247
-55.9771
-47.079
-50.5001
-47.3352
-50.2361
-56.6619
-47.856
-40.0165
-36.8346
-38.7259
-37.4033
-37.1323
-35.1201
-35.211
-48.055
-46.2118
-49.8302
-56.1954
-50.6323
-56.8862
-47.4355
-50.4146
23.453
6.48767
-74.5048
159.326
-13.241
-11.9492
-121.246
31.6419
-53.2876
-35.0342
-46.8764
-46.6303
-36.783
-35.6494
-39.7867
-32.9883
-31.6735
-31.6985
-34.1722
-26.4414
-43.6144
-42.0179
-48.9238
-42.2807
-62.0382
-65.1164
-44.1052
163.837
-58.5181
-35.6831
-51.9417
-24.3498
-34.6579
-34.6602
-36.5468
-32.6841
-45.2619
-49.8814
-48.1105
-46.3282
30.2937
17.2195
-84.645
161.799
-52.536
-33.6313
-44.9141
-46.1452
-36.7691
-35.6263
-39.7241
-32.9974
-43.6755
-42.7284
-48.7649
-42.2475
-58.1839
-35.8912
-51.5076
-24.173
-45.1246
-49.9491
-48.1203
-46.2882
-35.5843
-34.982
-36.3621
-35.757
-38.155
-41.7218
-38.2823
-40.3304
-40.5562
-40.6567
-44.0064
-40.1075
-36.3588
-41.4747
-39.1735
-39.7165
-39.3432
-39.339
-37.6937
-37.1672
-55.1776
-52.4661
-50.1989
-66.5168
11.4052
11.4895
23.164
-14.7873
-67.454
-67.4792
-73.9499
-61.8871
-35.4238
-34.9131
-36.3346
-35.7308
-38.518
-41.9789
-38.5266
-40.5368
-36.1536
-41.4229
-39.1649
-39.6416
-55.4836
-52.8572
-49.3417
-66.7597
-59.5823
-49.3394
-50.5397
-44.9199
-58.4179
-48.0087
-49.8644
-44.3688
-62.9255
-51.4669
-51.4173
-43.9971
-20.6333
-11.521
-11.494
2.97828
198.987
134.551
184.568
199.933
-38.6463
-40.4975
-39.9086
-42.5896
-38.6878
-40.5775
-39.9024
-42.5866
-36.8563
-37.5343
-36.8272
-36.8545
-93.2858
-95.4422
-86.9497
-93.1459
-48.4627
-47.507
-49.5259
-46.3194
-48.4043
-47.5249
-49.5686
-46.3368
-38.8566
-39.1582
-39.1604
-38.1825
-40.1688
-43.6908
-43.6977
-48.2594
-28.7599
-22.578
-28.6661
-28.7945
-90.8468
148.022
-119.241
51.5833
-78.441
-73.3441
-39.3125
-32.5375
-35.5759
-31.3046
-42.58
-38.5773
-63.992
99.69
-42.9626
123.845
-75.9662
-38.1927
-40.9313
-33.1029
-36.6351
-32.8022
-42.5269
-39.5142
-119.877
51.4961
-98.1912
135.393
-76.3758
-73.2358
-35.5875
-31.3064
-39.2592
-32.5528
-42.5269
-38.5612
-43.074
127.439
-67.2067
100.429
-74.7827
-39.6862
-36.6369
-32.8237
-40.9299
-33.126
-42.5187
-39.5315
-41.1735
-39.9578
-36.75
-37.0944
-37.5195
-37.6947
-44.1493
-39.016
-42.2409
-38.0493
-35.7535
-35.8198
-36.4208
-39.4883
-36.9992
-37.4155
-40.0063
-4.64267
-41.9892
-46.4207
-50.8605
-82.2915
14.5384
-24.9625
-48.812
-57.0529
-43.7867
-44.4012
-47.7419
-57.9721
-68.5132
-61.0282
-40.6745
-40.0371
-44.5593
-39.0636
-36.7504
-36.8947
-38.2979
-37.8506
-42.2665
-38.1046
-36.9656
-37.3631
-35.5227
-35.4985
-36.5406
-38.8706
-39.6444
-4.96236
14.7965
-24.461
-42.0392
-46.6932
-51.397
-83.4656
-49.0275
-57.1644
-68.7032
-61.1309
-43.8482
-44.4114
-47.877
-57.975
-79.0999
-82.9174
132.853
182.333
-80.8693
-81.327
41.5939
41.336
-58.7137
-42.3752
-61.0334
-42.1696
-43.065
-42.6284
-30.695
-31.589
-37.3398
-37.3365
-25.318
-25.3287
-45.0566
-47.7794
-39.0192
-39.8888
-30.9295
-31.0169
176.572
174.677
-43.2994
-60.4896
-25.1882
-2.81249
-38.5624
-38.5689
-30.3052
-30.2841
-46.2382
-48.4024
-49.0531
-41.0345
-77.2014
-77.914
180.952
131.088
-57.3231
-41.9806
-60.9362
-42.0596
-42.5339
-43.0329
-30.7063
-31.6348
-45.2092
-47.6959
-39.0249
-39.9146
-60.2168
-43.4903
-2.19348
-25.3369
-48.5852
-46.0979
-41.0367
-49.0571
-37.5778
-37.2461
-36.8748
-36.2437
-41.5324
-38.8222
-38.9656
-43.1725
-42.8972
-42.8367
-38.3838
-38.3878
-38.074
-41.7525
-44.3669
-44.8892
-36.9273
-36.9407
-37.5774
-37.5787
-44.8857
-46.2251
-94.7584
-75.8468
12.9299
12.8712
-66.5378
-65.7322
-78.3475
-78.4081
-55.2616
-55.2835
-37.6199
-37.3003
-36.8566
-36.2367
-38.9193
-41.8834
-39.074
-43.3672
-41.7788
-38.055
-44.377
-45.0477
-46.6013
-44.9821
-76.0692
-94.6968
-100.931
-57.375
-59.3159
-81.9737
-37.2921
-37.6475
-44.0733
-40.6124
-45.122
-40.2255
-45.362
-39.6812
-57.3367
-72.485
-60.1722
-61.4096
-109.855
-91.1633
-57.7022
-55.9507
-55.2991
-61.4684
-59.2128
-80.0263
-45.3043
-39.8424
-45.272
-40.7308
-41.7532
-40.0733
-43.1359
-38.0273
-99.951
-121.961
-62.8101
-57.3036
-100.393
-56.9743
-62.8381
-122.306
-45.6909
-44.0953
-43.6323
-37.6989
-43.7076
-38.0442
-43.6464
-43.9453
-41.1689
-35.357
-21.5201
-44.1066
-16.5513
21.7112
1.70015
-12.7033
-14.0538
-12.6719
1.8572
21.7966
-40.9049
-43.9779
-21.6443
-34.7829
146.168
151.244
125.352
39.6878
52.0353
128.631
187.338
141.321
51.0918
143.549
183.914
133.053
150.109
38.988
125.398
153.816
-37.1458
-36.603
-38.8592
-38.7233
-35.2958
-37.5818
-38.4325
-36.0552
-47.6334
-48.93
-42.2041
-41.5945
-50.591
-42.7388
-42.9556
-50.4212
-37.1227
-38.9183
-38.92
-36.6105
-50.9344
-51.1254
-43.0961
-42.9476
-47.7225
-41.5999
-42.2124
-49.2446
-35.4207
-36.2
-38.3918
-37.5974
-38.1824
-39.8658
-37.3828
-36.1464
-38.024
-36.1248
-37.3797
-39.9019
-36.814
-37.5374
-36.7037
-35.5945
-36.7674
-35.4256
-36.7093
-37.5506
-80.0205
-73.3005
-94.7093
-17.8125
-56.6974
-72.7358
-84.9735
-62.2609
-56.8443
-62.4224
-84.9825
-72.7953
-76.6041
-17.4445
-95.1182
-73.8459
-39.7311
-44.9243
-45.7402
-40.2174
-40.3333
-39.4206
-48.3584
-46.8141
-41.1143
-45.4649
-48.0344
-40.3628
-48.4321
-41.4107
-47.3289
-48.908
-37.8743
-40.428
-45.7708
-45.1333
-48.4743
-49.0471
-47.4122
-41.108
-41.0498
-40.3092
-48.0169
-45.3418
-40.262
-46.8225
-48.2461
-39.364
-37.7283
-37.1647
-38.3809
-40.2423
-37.1846
-40.2673
-38.382
-37.1537
-36.6603
-34.5701
-39.124
-40.7939
-36.6537
-40.743
-39.1204
-34.5603
-55.7417
-51.1206
-48.4865
-61.9053
-37.1495
-36.5794
-40.3759
-42.271
-37.153
-42.2718
-40.431
-36.5801
-55.8157
-61.9324
-48.4907
-51.1185
-34.2448
-28.0234
-25.6138
-32.4979
-34.2601
-32.5053
-25.6281
-28.0224
-33.4111
-32.5979
-29.7825
-32.9498
-33.406
-32.9051
-29.8493
-32.5893
8.67065
-63.5479
-131.386
-40.5827
-39.2282
-38.5996
-5.97341
-4.02461
-32.6275
-36.9252
-35.1857
-38.2077
-56.951
26.9626
-143.595
-39.2509
-40.6394
-38.4666
-0.412743
-4.98054
-30.5726
-35.1748
-36.9618
-38.2246
-40.5169
-37.9823
-40.26
-38.3362
-35.6752
-35.1644
-33.5092
-37.3334
-53.8683
-52.5109
-56.1011
-74.9248
-49.9791
-49.0003
-50.3544
-52.4842
-44.1616
-38.1593
-37.3459
-39.8707
-35.4792
-37.3221
-35.1285
-33.5504
-54.425
-76.8306
-52.9728
-56.4559
-50.0448
-52.6269
-49.0694
-50.5271
20.9317
12.4132
-52.3477
95.5758
-12.5817
-11.8382
-173.516
25.1071
-47.9358
-39.5238
-45.6486
-44.6922
-36.7947
-35.7731
-39.075
-33.536
-30.9391
-30.9467
-32.4582
-27.8901
-49.6446
-47.2159
-49.6763
-42.5745
-73.0181
-73.0887
-51.0841
97.4079
-54.0879
-38.6815
-49.7178
-33.6873
-34.8558
-34.8608
-35.5965
-33.9654
-46.471
-49.3811
-48.1477
-48.8068
28.6405
21.9367
-50.454
99.0996
-47.0835
-38.444
-44.1274
-44.0742
-36.7763
-35.7505
-39.0234
-33.5429
-49.7064
-47.0995
-49.5705
-42.6394
-53.6963
-38.5454
-49.0752
-32.9097
-46.4544
-49.4354
-48.1794
-48.7214
-35.3693
-34.9929
-35.5585
-35.3641
-38.6987
-40.4525
-38.8123
-40.0143
-40.7338
-40.7971
-40.9847
-41.101
-37.4764
-40.4421
-38.9177
-37.6935
-39.2673
-39.2491
-38.2164
-38.326
-54.7765
-52.9929
-52.1701
-59.6533
12.7162
12.7825
21.2182
-1.1495
-67.9988
-68.0151
-70.8303
-65.3672
-35.2517
-34.9191
-35.5065
-35.2947
-39.0417
-40.7283
-39.1646
-40.2672
-37.3053
-40.3742
-38.8717
-37.6205
-54.627
-53.2828
-51.2547
-59.8473
-53.4168
-49.5951
-50.4671
-47.5977
-52.4223
-48.4402
-49.3992
-46.7513
-56.7175
-51.7821
-51.7597
-47.6576
-14.5851
-9.24935
-9.35166
-2.84283
200.439
167.278
204.402
200.613
-39.3923
-40.3826
-40.0502
-41.3651
-39.4281
-40.4395
-40.0558
-41.3862
-36.9429
-37.1938
-36.8346
-36.9414
-94.2349
-97.135
-90.5269
-94.1614
-49.075
-47.6755
-48.9126
-46.4646
-49.0216
-47.6628
-48.9424
-46.4932
-39.366
-38.9588
-38.9602
-38.5517
-41.6455
-43.516
-43.5107
-45.6584
-27.5612
-24.4165
-28.5465
-27.6021
50.4683
22.4673
-62.5213
110.254
-49.3474
-13.297
-188.187
26.4989
-80.4115
-60.071
-77.1393
-69.5067
-37.4832
-36.8299
-38.738
-33.4199
-35.8762
-32.8401
-34.5067
-32.4486
-37.8397
-39.1593
-40.9725
-38.5747
1.43826
7.84932
-44.8635
65.0443
-27.8327
-57.3022
-43.5674
35.0274
-58.2459
-61.8865
-68.0623
-45.6907
-35.9962
-36.0063
-40.2469
-33.7585
-34.3341
-34.4525
-35.3916
-33.5133
-40.6047
-43.1448
-42.1595
-40.3237
-50.9026
-11.4079
-185.015
27.1848
54.8623
31.2199
-87.4639
113.022
-79.3603
-59.3124
-75.3855
-69.1567
-35.8643
-32.5378
-34.5426
-32.4457
-37.4871
-36.8198
-38.7165
-33.4284
-37.8722
-39.2734
-40.938
-38.5568
-28.4396
-55.7526
-43.7458
24.3558
0.108838
14.4896
-45.1073
68.6171
-55.4857
-61.2486
-68.276
-46.1146
-34.3462
-34.4474
-35.3981
-33.5157
-36.0452
-35.7115
-40.2077
-33.7839
-40.5405
-43.1366
-42.1788
-40.3784
-40.4221
-30.5763
-39.1055
-36.32
-36.6971
-35.839
-36.2204
-36.6209
-37.7265
-37.8189
-37.1792
-37.482
-40.5494
-40.1052
-42.4091
-39.7028
-39.2268
-36.1012
-39.859
-38.5808
-35.0531
-34.9789
-35.0449
-35.3719
-34.6986
-35.5901
-35.9742
-35.3635
-37.2828
-39.0804
-37.3433
-37.6043
-43.7294
-35.3089
-39.7957
-17.8229
-47.3154
-43.2836
-43.229
-46.0206
-56.1058
-55.4471
-53.7156
-65.1168
-7.62611
8.58986
11.2203
-9.65274
-50.4333
-49.4133
-49.2087
-53.4724
-45.3127
-42.3965
-43.6878
-43.7384
-50.527
-51.6646
-49.4842
-54.2494
-61.8992
-66.1592
-66.23
-63.7847
-38.2768
-28.4423
-37.5438
-34.8722
-40.789
-40.2804
-42.75
-39.7066
-36.3728
-35.6201
-36.0919
-36.3207
-38.0589
-38.1949
-37.836
-37.7063
-39.1322
-36.1326
-39.8841
-38.7488
-37.2611
-39.0521
-37.3257
-37.5528
-34.9707
-34.8928
-34.9487
-35.1876
-37.1975
-35.3525
-36.1621
-34.2423
-41.884
-35.3656
-39.37
-18.694
-6.77499
8.81328
11.6193
-9.07597
-47.575
-43.5499
-43.4883
-46.3063
-56.3974
-55.8446
-53.8506
-65.5218
-50.4107
-49.4337
-49.4366
-53.7021
-61.9306
-66.1717
-66.7792
-63.6014
-45.3228
-42.3736
-43.7058
-43.7089
-50.6672
-51.8581
-49.6897
-54.3102
-87.9397
-69.0338
-79.7691
-81.3375
174.821
198.134
173.851
195.051
-95.5091
-70.8178
-81.5726
-81.6109
37.2304
76.0313
40.9771
40.8781
-47.7521
-48.8236
-51.8734
-45.7185
-48.7409
-50.8958
-54.9123
-45.8475
-40.9519
-45.7226
-43.0219
-42.7158
-32.603
-30.316
-31.0705
-31.7602
-35.7895
-37.8355
-37.1659
-37.1636
-23.9163
-21.9271
-22.819
-22.8259
-47.8958
-47.3099
-45.6555
-48.9154
-41.6793
-39.5378
-39.6292
-40.6436
-36.7111
-25.5268
-30.5086
-30.5041
160.891
181.044
169.707
170.461
-51.8527
-50.7659
-47.5216
-54.4419
-18.3395
-13.1767
-20.553
-8.81369
-37.6976
-39.1442
-38.4507
-38.4563
-30.5347
-28.8333
-29.2364
-29.2321
-48.8836
-49.973
-48.7305
-48.3447
-45.0425
-43.8651
-46.4758
-42.4649
-87.8542
-66.3523
-76.6106
-76.6218
174.054
199.034
194.077
171.752
-46.5748
-47.5342
-50.4204
-44.6899
-48.5527
-50.8392
-54.795
-45.7278
-40.907
-45.6763
-42.6474
-42.9828
-32.6047
-30.2822
-31.0864
-31.7987
-47.8277
-47.3443
-45.628
-48.9684
-41.6377
-39.54
-39.625
-40.658
-51.4687
-50.2276
-54.1677
-47.2685
-18.7966
-13.145
-9.79272
-20.7426
-48.8497
-49.9784
-48.9922
-48.5363
-45.0428
-43.9294
-42.4706
-46.4752
-36.7795
-38.0768
-37.38
-37.304
-36.2451
-36.6316
-36.5659
-36.2787
-37.9953
-43.6652
-40.4953
-39.376
-40.632
-40.572
-39.7888
-41.7395
-45.6764
-40.6601
-43.2556
-43.131
-39.2632
-37.9565
-38.5072
-38.5104
-39.2834
-39.7147
-38.7528
-40.5919
-43.5182
-46.3679
-44.6178
-44.8901
-37.2997
-36.8886
-37.0201
-37.0263
-37.2079
-37.8116
-37.4952
-37.4938
-47.4761
-43.9082
-45.2349
-46.0348
-75.8423
-90.0434
-90.2985
-79.2467
21.0611
8.57306
14.7697
14.3583
-36.5582
-88.3938
-69.1265
-68.8704
-77.1073
-83.5826
-79.6451
-79.6709
-58.5527
-51.5127
-55.2357
-55.2416
-36.8015
-38.1246
-37.4211
-37.4727
-36.2498
-36.6309
-36.5618
-36.2762
-38.1708
-44.0393
-39.5435
-40.8415
-40.8118
-40.686
-39.8998
-41.9206
-39.2941
-39.7055
-40.6031
-38.7494
-43.7046
-46.3431
-44.63
-45.1263
-47.2943
-43.8512
-46.1646
-45.1394
-76.3154
-89.9558
-79.2661
-90.8171
-92.1149
-82.7365
-80.7449
-67.5783
-42.2839
-38.5719
-45.019
-41.6836
-39.2786
-40.1341
-39.8203
-38.5995
-83.4466
-80.0465
-84.0074
-70.817
-87.753
-77.4581
-78.2382
-66.3506
-82.2266
-79.4365
-79.2932
-70.0517
-39.0344
-40.1391
-39.5312
-38.6066
-42.1897
-39.4137
-44.0653
-42.1076
-92.8432
-76.9391
-80.6222
-68.6536
-93.0433
-76.9828
-80.7511
-68.648
-41.3303
-45.7724
-39.0288
-42.7016
-41.3412
-45.4099
-39.0487
-42.6195
-37.7092
-35.8067
-31.859
-29.3027
2.94368
12.5412
1.93634
10.2253
2.70856
12.5458
2.6446
10.3473
-38.1119
-36.4585
-32.0739
-29.5059
53.3329
61.0614
92.6303
46.6978
122.713
137.663
169.556
170.892
147.979
131.172
169.243
168.932
60.2705
59.3901
46.2865
93.1637
-37.2089
-37.5626
-37.7086
-38.3474
-36.2648
-36.8035
-37.0814
-37.5888
-43.9514
-45.7759
-42.7898
-44.4448
-46.7221
-48.7047
-44.7537
-46.4794
-37.2428
-37.6662
-37.7453
-38.4494
-47.0007
-49.0656
-44.9708
-46.7786
-44.0288
-45.9182
-42.8234
-44.5803
-35.9013
-36.9002
-36.7793
-37.5891
-37.6315
-38.3245
-37.2872
-38.1039
-38.3334
-37.5342
-38.1023
-37.2533
-36.7002
-36.2851
-36.6909
-36.2917
-36.4209
-36.7422
-36.3213
-36.716
-89.0941
-43.518
-83.8606
-59.6898
-63.4331
-70.1847
-72.9635
-75.8702
-70.1959
-63.2807
-75.9504
-73.062
-42.2119
-87.4093
-59.1492
-83.6229
-43.2957
-42.7242
-44.7316
-44.0215
-41.1598
-42.5712
-43.12
-44.7859
-41.5284
-42.4543
-42.6731
-44.1269
-48.2822
-45.6188
-48.0482
-45.4504
-43.3363
-43.1477
-44.8741
-44.0648
-48.377
-45.631
-47.6732
-45.4169
-41.4686
-42.45
-42.5755
-44.1165
-41.1032
-42.5435
-43.0903
-44.7097
-37.3779
-37.379
-38.4883
-37.7099
-37.407
-37.3595
-38.4947
-37.7061
-36.9144
-38.1221
-37.6042
-38.5206
-36.912
-38.125
-37.5995
-38.5116
-56.2504
-58.3578
-52.0733
-55.4644
-37.8054
-39.127
-38.7202
-39.7779
-37.8348
-39.1368
-38.725
-39.7718
-56.347
-58.4507
-52.0996
-55.5177
-31.7859
-30.5678
-30.4896
-28.2836
-30.5737
-31.7925
-28.2972
-30.4996
-32.455
-32.7575
-31.0892
-31.7222
-32.7319
-32.406
-31.7074
-31.107
-60.2415
66.7213
-131.651
124.801
-109.399
-93.7967
-40.4032
-35.0325
-36.2975
-37.0234
-40.5803
-37.1159
-39.4751
40.9219
-39.1573
11.3106
-50.7129
-43.4338
-40.1716
-34.0424
-35.7763
-33.681
-40.5114
-37.8296
-132.451
133.237
-52.338
78.1864
-119.265
-94.0629
-36.3614
-36.9909
-40.4058
-35.0437
-40.4734
-37.1021
-35.9832
11.8821
-38.9255
41.83
-47.4448
-42.5052
-35.7866
-33.7251
-40.2283
-34.0323
-40.525
-37.8211
-33.003
-44.1735
-36.8227
-37.7178
-40.3995
-37.3793
-41.4924
-38.8143
-41.965
-37.7673
-34.7551
-35.815
-35.0143
-31.6036
-36.3336
-40.0628
-46.9189
-43.4119
-47.6673
-50.2889
-53.6302
-67.6873
-24.2945
-73.3436
-49.8071
-52.4487
-47.5142
-48.1487
-49.1477
-53.4616
-56.3059
-55.7753
-33.748
-48.0163
-42.6569
-38.7719
-36.6441
-37.3601
-40.9034
-37.4019
-41.9865
-37.5457
-36.344
-39.8657
-34.8266
-35.7924
-35.3901
-31.3211
-46.9208
-41.9593
-21.9239
-72.4619
-48.0446
-50.6363
-53.9272
-68.0178
-50.0381
-52.5627
-56.5012
-55.8497
-47.5756
-48.0464
-49.303
-53.5002
-49.3186
95.2148
-53.7099
96.0504
-78.4522
-73.4449
157.95
152.79
-177.313
23.5364
-176.184
24.0656
-122.247
-122.418
41.4496
41.6265
-56.8793
-54.6179
-39.3914
-35.8235
-50.5502
-44.2156
-51.5962
-42.0981
-39.027
-33.3537
-39.8404
-33.4733
-39.6141
-39.9947
-32.7208
-32.9675
-33.0237
-29.2612
-33.0475
-29.2621
-34.2679
-34.2623
-26.8671
-26.8692
-45.4636
-41.7714
-44.2282
-41.3551
-46.2464
-50.2636
-41.3086
-43.4061
-51.4457
70.7836
-50.588
71.594
-43.9787
-44.0698
153.352
154.258
-61.4774
-45.5119
-38.7863
-25.0142
-44.819
-56.3651
-29.6695
-18.0378
-35.5224
-33.8115
-35.5212
-33.8178
-36.5573
-36.5567
-32.6465
-32.6514
-45.2254
-44.0202
-49.5196
-51.6682
-46.9165
-48.7597
-48.752
-44.1127
-50.4295
101.64
-52.4116
99.8214
-88.4237
-83.1577
153.879
159.096
-55.7109
-54.1209
-38.2598
-34.9472
-49.4983
-43.2824
-51.1707
-41.8357
-38.9827
-33.3567
-39.691
-33.4972
-39.9363
-39.5546
-32.7302
-33.0074
-45.4737
-41.8138
-44.5287
-41.4032
-46.1888
-50.3275
-41.2874
-43.429
-61.4218
-44.9168
-39.1292
-24.7041
-56.6716
-44.8123
-17.4801
-29.4185
-45.0874
-44.004
-49.5749
-51.814
-48.9617
-46.7488
-44.1093
-48.7868
-35.8254
-35.7395
-35.2372
-35.1299
-36.347
-36.1428
-35.9944
-35.6934
-37.8378
-38.4774
-40.6238
-42.3816
-37.8767
-38.8625
-39.3538
-41.3813
-40.9436
-40.8453
-41.0851
-40.9049
-44.0058
-43.9422
-40.0387
-40.0587
-37.2365
-34.9853
-41.4092
-41.4413
-38.268
-40.3818
-39.9672
-40.7475
-38.0601
-38.2453
-38.0467
-38.2351
-37.6546
-37.6608
-37.1466
-37.142
-52.8553
-62.5511
-50.695
-57.4799
-49.5481
-50.1309
-69.582
-63.72
18.6205
-2.98966
18.8078
-2.36247
22.9108
22.9198
-16.2011
-16.0006
-69.8308
-64.6407
-69.8449
-64.6759
-73.6512
-73.6683
-61.9069
-61.9295
-35.7472
-35.6299
-35.2094
-35.1349
-36.38
-36.2096
-35.9856
-35.6909
-38.3068
-38.7446
-40.894
-42.6171
-39.0679
-38.2005
-39.5542
-41.5878
-37.2164
-34.5615
-41.3797
-41.3868
-40.381
-38.2645
-40.2111
-40.3844
-53.376
-62.9118
-51.0745
-57.5885
-51.0382
-48.9143
-63.8564
-69.9605
-59.6014
-60.2156
-52.6489
-47.1438
-47.8874
-53.9582
-44.5321
-45.2729
-58.1165
-58.8712
-51.4193
-45.839
-53.3488
-47.4528
-44.9246
-43.8587
-62.8146
-63.0487
-56.3151
-47.4734
-56.2747
-47.2424
-43.8863
-43.8933
-20.7378
-20.7947
-16.0609
-4.98777
-5.04294
-16.1225
2.68628
2.75046
179.899
201.677
135.722
135.691
183.042
183.818
202.023