# vtk DataFile Version 2.0
tet_velo
ASCII
DATASET UNSTRUCTURED_GRID
POINTS 29498 float
-0.835 0.355 -2.13227
-0.875 0.265 1.98947
-0.795 0.755 -2.08936
-0.815 0.863459 2.035
0.835 0.355 -2.13227
0.875 0.265 1.98947
0.795 0.755 -2.08936
0.815 0.863468 2.035
-0.881025 0.292309 -0.758357
-0.87946 0.277207 0.615557
-0.833107 0.822594 -0.714573
-0.824267 0.843239 0.660214
0.881026 0.292308 -0.758357
0.879461 0.277206 0.615557
0.833123 0.822613 -0.714573
0.824273 0.843252 0.660214
-1.68347 0.0915334 -3.2537
-1.68674 0.0914256 -2.15422
-1.71909 0.0401653 -0.78033
-1.72813 0.00359208 0.593385
-1.72498 -0.0124487 1.96726
-1.72418 -0.011816 3.06667
-1.72467 -0.00589447 4.16621
-1.67889 0.3306 -3.23193
-1.67861 0.344595 -2.13236
-1.71861 0.30497 -0.758296
-1.72252 0.28316 0.615686
-1.717 0.274778 1.98973
-1.72002 0.275726 3.08915
-1.72287 0.280103 4.18866
-1.66119 0.778897 -3.18864
-1.64571 0.791066 -2.0891
-1.67908 0.827782 -0.714444
-1.67751 0.844732 0.660274
-1.67104 0.859555 2.03491
-1.69468 0.858431 3.1343
-1.71093 0.856366 4.23367
-1.66001 1.52267 -3.12304
-1.65518 1.54665 -2.02337
-1.66408 1.60267 -0.648434
-1.67081 1.65577 0.726694
-1.67498 1.68803 2.10162
-1.685 1.69817 3.20128
-1.69723 1.69961 4.30074
-0.844068 0.0971604 -3.25365
-0.835586 0.0992811 -2.15414
-0.864661 0.0348283 -0.780341
-0.872502 -0.002421 0.593274
-0.870711 -0.0203178 1.96707
-0.873308 -0.0171635 3.06654
-0.875438 -0.00908555 4.16613
-0.846625 0.331853 -3.23192
-0.875809 0.271588 3.08904
-0.876854 0.277847 4.18861
-0.833821 0.764616 -3.18875
-0.856779 0.859531 3.13431
-0.869931 0.856829 4.23367
-0.826593 1.51172 -3.12315
-0.819425 1.53569 -2.02349
-0.826386 1.59847 -0.648505
-0.833146 1.65723 0.726702
-0.837099 1.69156 2.10168
-0.846232 1.70144 3.20134
-0.856835 1.70201 4.30079
0.831696 0.097163 -3.25365
0.855458 0.0992824 -2.15414
0.877889 0.0348289 -0.780342
0.875405 -0.00242051 0.593274
0.869893 -0.0203169 1.96707
0.846501 -0.0171608 3.06654
0.831977 -0.00908144 4.16613
0.815333 0.331855 -3.23192
0.836308 0.271591 3.08904
0.825044 0.277852 4.18861
0.80125 0.764619 -3.18875
0.816387 0.859537 3.13432
0.816744 0.856835 4.23367
0.830794 1.51172 -3.12315
0.838613 1.5357 -2.02349
0.841266 1.59848 -0.648505
0.83668 1.65724 0.726702
0.832125 1.69157 2.10168
0.827796 1.70145 3.20133
0.823633 1.70202 4.30079
1.67342 0.0915402 -3.2537
1.69648 0.0914316 -2.15422
1.72876 0.0401709 -0.78033
1.73386 0.00359662 0.593385
1.72601 -0.0124441 1.96726
1.70421 -0.0118092 3.06667
1.68723 -0.00588609 4.16621
1.65628 0.330607 -3.23193
1.67628 0.344602 -2.13236
1.72022 0.304979 -0.758296
1.72636 0.283166 0.615686
1.71825 0.274784 1.98973
1.69388 0.275734 3.08915
1.67932 0.280112 4.18866
1.63706 0.778905 -3.18864
1.6425 0.791077 -2.0891
1.67992 0.827804 -0.714444
1.68068 0.844749 0.660274
1.67164 0.859569 2.03491
1.66745 0.858443 3.1343
1.66593 0.856377 4.23367
1.66265 1.52268 -3.12304
1.67008 1.54666 -2.02337
1.67725 1.60269 -0.648434
1.67569 1.65579 0.726693
1.67149 1.68805 2.10162
1.66871 1.69818 3.20128
1.6666 1.69963 4.30074
-0.71837 0.555 -2.01419
0 0.347991 -2.13928
-0.897582 0.284084 -1.44531
-0.867106 0.564229 2.03434
0 0.239753 2.01472
-0.895924 0.25241 1.30251
0 0.757471 -2.09183
-0.832037 0.80678 -1.40197
0 0.876036 2.04757
-0.819808 0.853524 1.34761
0.718257 0.555 -2.01407
0.897582 0.284084 -1.44531
0.867104 0.564234 2.03434
0.895924 0.252409 1.30251
0.832046 0.806791 -1.40197
0.819812 0.853535 1.34761
-0.880242 0.284758 -0.0714
-0.898357 0.557451 -0.736465
4.95225e-07 0.150801 -0.758357
-0.898397 0.560223 0.637885
3.18077e-07 0.151037 0.615557
-0.828714 0.832944 -0.02718
7.91966e-06 1.00687 -0.714573
3.14653e-06 1.35848 0.660214
0.880243 0.284757 -0.0714
0.898359 0.55746 -0.736465
0.898396 0.560229 0.637885
0.828722 0.832956 -0.02718
-0.896535 0.556226 -1.42364
-0.898375 0.558837 -0.04929
-0.895855 0.562226 1.32506
2.47613e-07 0.150829 -1.44531
4.06651e-07 0.150909 -0.0714
1.59038e-07 0.190555 1.30251
0 0.555 -2.04258
0 0.564232 2.14017
3.95983e-06 0.861334 -1.40197
5.53309e-06 1.35848 -0.02718
1.57326e-06 1.11933 1.34761
0.896534 0.55623 -1.42364
0.898377 0.558845 -0.04929
0.895855 0.562231 1.32506
-1.2568 0.349797 -2.13231
-0.835293 0.227141 -2.1432
-0.840812 0.343426 -2.68209
-1.296 0.269889 1.9896
-0.872855 0.122341 1.97827
-0.875405 0.268294 2.53926
-1.22036 0.773033 -2.08923
-0.814411 0.759808 -2.63905
-0.807212 1.14534 -2.05643
-1.24302 0.861507 2.03496
-0.83589 0.861495 2.58466
-0.82605 1.27751 2.06834
0.845229 0.227141 -2.1432
0.825167 0.343427 -2.68209
1.25564 0.349801 -2.13231
0.872447 0.122342 1.97827
0.855654 0.268296 2.53926
1.29662 0.269892 1.9896
0.798125 0.759809 -2.63905
0.816806 1.14535 -2.05643
1.21875 0.773039 -2.08923
0.815694 0.861503 2.58466
0.823562 1.27752 2.06834
1.24332 0.861518 2.03496
-1.29982 0.29864 -0.758326
-0.872843 0.163568 -0.769349
-1.30099 0.280183 0.615621
-0.875981 0.137393 0.604416
-1.25609 0.825188 -0.714509
-0.829747 1.21053 -0.681539
-1.25089 0.843986 0.660244
-0.828707 1.25023 0.693458
0.879457 0.163568 -0.769349
1.30062 0.298643 -0.758327
0.877433 0.137393 0.604416
1.30291 0.280186 0.615621
0.837194 1.21054 -0.681539
1.25652 0.825208 -0.714509
0.830476 1.25024 0.693458
1.25247 0.844 0.660244
-1.68511 0.0914795 -2.70396
-1.68118 0.211067 -3.24282
-1.26377 0.0943469 -3.25367
-1.70292 0.0657955 -1.46728
-1.68267 0.21801 -2.14329
-1.26116 0.0953534 -2.15418
-1.72361 0.0218787 -0.0934729
-1.71885 0.172568 -0.769313
-1.29188 0.0374968 -0.780336
-1.72655 -0.00442831 1.28032
-1.72532 0.143376 0.604535
-1.30031 0.000585542 0.593329
-1.72458 -0.0121324 2.51696
-1.72099 0.131165 1.9785
-1.29785 -0.0163833 1.96716
-1.72443 -0.00885525 3.61644
-1.7221 0.131955 3.07791
-1.29874 -0.0144898 3.0666
-1.72377 0.137104 4.17744
-1.30006 -0.00749001 4.16617
-1.67875 0.337598 -2.68214
-1.67004 0.554749 -3.21029
-1.26276 0.331227 -3.23192
-1.69861 0.324783 -1.44533
-1.66216 0.56783 -2.11073
-1.72056 0.294065 -0.071305
-1.69884 0.566376 -0.73637
-1.71976 0.278969 1.30271
-1.70001 0.563946 0.63798
-1.71851 0.275252 2.53944
-1.69402 0.567167 2.01232
-1.72144 0.277915 3.63891
-1.70735 0.567079 3.11172
-1.29791 0.273657 3.0891
-1.7169 0.568234 4.21117
-1.29986 0.278975 4.18863
-1.65345 0.784981 -2.63887
-1.6606 1.15078 -3.15584
-1.24751 0.771756 -3.18869
-1.6624 0.809424 -1.40177
-1.65044 1.16886 -2.05624
-1.6783 0.836257 -0.0270849
-1.67158 1.21523 -0.681439
-1.67427 0.852143 1.34759
-1.67416 1.25025 0.693484
-1.68286 0.858993 2.58461
-1.67301 1.27379 2.06827
-1.7028 0.857399 3.68398
-1.68984 1.2783 3.16779
-1.27573 0.858981 3.13431
-1.70408 1.27799 4.26721
-1.29043 0.856598 4.23367
-1.65759 1.53466 -2.57321
-1.2433 1.51719 -3.1231
-1.65963 1.57466 -1.3359
-1.2373 1.54117 -2.02343
-1.66745 1.62922 0.0391299
-1.24523 1.60057 -0.648469
-1.6729 1.6719 1.41416
-1.25198 1.6565 0.726698
-1.67999 1.6931 2.65145
-1.25604 1.68979 2.10165
-1.69112 1.69889 3.75101
-1.26562 1.6998 3.20131
-1.27703 1.70081 4.30077
-0.839827 0.0982207 -2.70389
-0.845346 0.214507 -3.24278
-0.00618603 0.0971617 -3.25365
-0.850123 0.0670547 -1.46724
0.00993614 0.0992818 -2.15414
-0.868582 0.0162037 -0.0935336
0.00661374 0.0348286 -0.780342
-0.871606 -0.0113694 1.28017
0.00145177 -0.00242075 0.593274
-0.87201 -0.0187407 2.5168
-0.000408691 -0.0203174 1.96707
-0.874373 -0.0131245 3.61634
-0.874559 0.127212 3.07779
-0.0134035 -0.0171622 3.06654
-0.876146 0.134381 4.17737
-0.0217305 -0.0090835 4.16613
-0.840223 0.548234 -3.21033
-0.0156459 0.331854 -3.23192
-0.876332 0.274718 3.63882
-0.866294 0.565559 3.11168
-0.0197505 0.27159 3.08904
-0.873393 0.567338 4.21114
-0.0259052 0.277849 4.18861
-0.830207 1.13817 -3.15595
-0.0162853 0.764617 -3.18875
-0.863355 0.85818 3.68399
-0.851506 1.28048 3.16783
-0.0201959 0.859534 3.13431
-0.863383 1.27942 4.26723
-0.0265934 0.856832 4.23367
-0.823009 1.5237 -2.57332
0.00210032 1.51172 -3.12315
-0.822906 1.56708 -1.336
0.00959394 1.53569 -2.02349
-0.829766 1.62785 0.0390986
0.00743964 1.59847 -0.648505
-0.835123 1.67439 1.41419
0.00176663 1.65723 0.726702
-0.841666 1.6965 2.65151
-0.00248716 1.69156 2.10168
-0.851534 1.70172 3.75106
-0.009218 1.70144 3.20134
-0.0166012 1.70201 4.30079
0.843577 0.0982227 -2.70389
0.823514 0.214509 -3.24278
1.25256 0.0943516 -3.25367
0.866673 0.0670556 -1.46724
1.27597 0.095357 -2.15418
0.876647 0.0162042 -0.0935336
1.30333 0.0374999 -0.780336
0.872649 -0.0113687 1.28017
1.30463 0.000588055 0.593329
0.858197 -0.0187389 2.5168
1.29795 -0.0163805 1.96716
0.839239 -0.0131211 3.61634
0.841405 0.127215 3.07779
1.27536 -0.014485 3.0666
0.828511 0.134385 4.17737
1.25961 -0.00748377 4.16617
0.808292 0.548237 -3.21033
1.23581 0.331231 -3.23192
0.830676 0.274721 3.63882
0.826348 0.565564 3.11168
1.26509 0.273663 3.0891
0.820894 0.567343 4.21114
1.25218 0.278982 4.18864
0.816022 1.13817 -3.15595
1.21915 0.771762 -3.18869
0.816566 0.858186 3.68399
0.822092 1.28049 3.16782
1.24192 0.85899 3.13431
0.820189 1.27943 4.26723
1.24133 0.856606 4.23367
0.834703 1.52371 -2.57332
1.24672 1.5172 -3.1231
0.839939 1.56709 -1.336
1.25435 1.54118 -2.02343
0.838973 1.62786 0.0390985
1.25926 1.60058 -0.64847
0.834402 1.6744 1.41419
1.25619 1.65651 0.726698
0.82996 1.69651 2.65151
1.25181 1.68981 2.10165
0.825714 1.70173 3.75106
1.24825 1.69981 3.20131
1.24511 1.70082 4.30076
1.68495 0.0914859 -2.70396
1.66485 0.211074 -3.24282
1.71262 0.0658013 -1.46728
1.68638 0.218017 -2.14329
1.73131 0.0218838 -0.0934729
1.72449 0.172575 -0.769313
1.72994 -0.00442372 1.28032
1.73011 0.143381 0.604535
1.71511 -0.0121266 2.51696
1.72213 0.13117 1.9785
1.69572 -0.00884767 3.61644
1.69905 0.131962 3.07791
1.68328 0.137113 4.17744
1.66628 0.337605 -2.68214
1.64667 0.554756 -3.21029
1.69825 0.32479 -1.44533
1.65939 0.56784 -2.11073
1.72329 0.294072 -0.0713051
1.70007 0.566391 -0.73637
1.7223 0.278975 1.30271
1.70352 0.563957 0.63798
1.70606 0.275259 2.53944
1.69494 0.567177 2.01232
1.6866 0.277923 3.63891
1.68067 0.567089 3.11172
1.67262 0.568245 4.21117
1.63978 0.784991 -2.63887
1.64985 1.15079 -3.15584
1.66121 0.809441 -1.40177
[...]
POINT_DATA 29498
VECTORS point_vectors float
-6.67315 -3.31799 9.52803
0.423699 0.339417 3.22735
-11.2677 7.37058 13.2248
0.32026 -0.00812262 1.62945
6.6714 -3.31581 9.5248
-0.418568 0.339276 3.21104
11.264 7.37323 13.2289
-0.337107 0.000179187 1.65692
0.0145549 -0.0254877 0.210735
-0.00550189 0.00885648 0.12081
-0.00417992 -0.00836204 0.045156
0 0 0
-0.0145644 -0.0255263 0.21083
0.00551127 0.00892395 0.120527
0.00422249 -0.00843227 0.0454662
0 0 0
-0.598097 -0.149784 19.8515
-1.31365 -0.465999 20.4127
-0.623782 -0.354993 21.3552
-0.0351443 -0.120173 21.5689
0.429331 0.13625 21.51
0.731581 0.187337 21.2573
0.676587 0.304951 20.6649
-0.654416 -0.058574 19.7868
-1.5584 -0.269763 20.3872
-0.74144 -0.366453 21.3843
-0.0373991 -0.165164 21.6252
0.533065 0.0345871 21.5439
0.882193 0.134965 21.3225
0.883204 0.136223 20.8118
-0.687128 0.0849597 19.7662
-1.70701 0.172595 20.3554
-1.11001 -0.260934 21.3663
-0.1964 -0.278973 21.7233
0.535838 -0.256947 21.5762
0.86751 -0.257037 21.1738
0.904812 -0.330075 20.942
-0.539568 0.315065 19.9158
-1.04128 0.585939 20.3631
-1.0352 0.302615 21.2109
-0.341463 -0.0693109 21.6523
0.227218 -0.334679 21.4797
0.47181 -0.495463 21.1082
0.464398 -0.45578 20.9499
-0.629115 -0.353405 19.1796
-4.25497 -4.29702 18.9592
0.319558 -0.41319 16.728
0.376046 0.0178486 17.283
0.594048 0.847239 18.5623
0.906168 1.32303 19.6343
0.753042 1.14253 19.9355
-0.724317 -0.183504 19.0102
1.34392 1.47804 13.854
1.68917 0.982555 16.4761
-0.758732 0.224407 18.9143
1.70549 0.235136 10.8825
1.96144 -0.268231 15.3113
-0.504021 0.638845 19.458
-1.34013 1.90496 19.974
-2.27786 2.05322 20.9645
-0.696176 0.125902 22.3257
0.045426 -0.719288 21.6481
0.302933 -1.00321 21.7605
0.39623 -0.941509 20.1171
0.626155 -0.355512 19.1684
4.20238 -4.01325 19.1236
-0.238975 -0.427236 17.151
-0.372857 0.0176928 17.3579
-0.588707 0.839453 18.5285
-0.844436 1.36027 19.3311
-0.662606 1.23413 19.5572
0.724095 -0.186455 18.9626
-1.1415 1.60604 12.6163
-1.76981 1.03346 14.926
0.753453 0.237933 18.8555
-1.68651 0.355393 9.41609
-2.00408 -0.284209 13.9117
0.505222 0.635664 19.4601
1.34676 1.86283 19.9856
2.26591 1.98189 20.9848
0.69241 0.126395 22.3244
-0.0496403 -0.717334 21.6177
-0.302609 -1.02658 21.663
-0.397394 -0.966414 20.0314
0.60987 -0.156185 19.8453
1.31708 -0.458273 20.4237
0.620405 -0.350059 21.3471
0.0358437 -0.120219 21.5648
-0.421012 0.131888 21.5022
-0.739815 0.212162 21.259
-0.71757 0.300268 20.6196
0.662439 -0.0700315 19.7628
1.57576 -0.273454 20.398
0.744259 -0.362642 21.3823
0.0430499 -0.160276 21.6267
-0.524304 0.037199 21.5488
-0.89406 0.142057 21.317
-0.926158 0.127567 20.774
0.693208 0.0938874 19.7531
1.71178 0.175124 20.3618
1.11037 -0.258541 21.3714
0.191196 -0.280336 21.7255
-0.531474 -0.254741 21.577
-0.899695 -0.252837 21.1725
-0.908959 -0.327283 20.9947
0.535339 0.317202 19.921
1.03263 0.571684 20.3672
1.01974 0.296524 21.2088
0.340173 -0.0689084 21.6483
-0.227418 -0.33497 21.4795
-0.481096 -0.490914 21.1268
-0.476594 -0.478283 20.9434
-2.08958e-16 1.29391e-17 5.56055e-17
0 0 0
0.0455656 -0.116597 1.01639
0.201165 0.054134 1.00657
0.00424842 0.0130505 0.0308194
0.000900224 0.0151076 0.425025
-0.00237844 12.1711 5.24549
-0.333377 -0.237079 0.839648
-0.000788209 0.0199752 -0.0603368
0.000636188 0.00105052 0.00365828
0 0 0
-0.0454582 -0.116633 1.01593
-0.199026 0.057002 0.998682
-0.000904456 0.0151053 0.42441
0.333891 -0.237043 0.839741
-0.000656083 0.0010859 0.00375046
-0.00188081 0.00775493 0.330555
0 0 0
-2.00452e-09 2.60437e-08 1.04719e-05
2.30871e-07 1.51519e-05 8.26215e-05
3.23084e-09 -1.01497e-08 -7.67121e-06
0 0 0
-1.68858e-06 -0.00120193 -0.000964889
7.06958e-09 -2.1656e-07 -8.91032e-05
0.00187174 0.00772353 0.330396
0 0 0
5.64128e-09 -3.6948e-07 -2.01037e-06
0 0 0
-1.98864e-06 -1.08379e-05 0.000107593
-6.59184e-08 -3.65787e-06 -2.27864e-05
0.00120766 0.00814422 0.057841
-1.32829e-09 2.12456e-07 -1.65295e-05
-2.68319e-08 -2.37361e-08 0.0001118
-1.64161e-05 0.000598999 0.00930192
0 0 0
0 0 0
2.09404e-09 -6.92066e-07 -3.34138e-06
1.52113e-07 -1.76661e-05 -0.000513337
0 0 0
2.97259e-06 -1.62012e-05 0.000160984
-8.52716e-08 4.73476e-06 2.95093e-05
-0.00122191 0.00825499 0.0582966
-3.14082 -0.813842 20.0979
-6.81772 -5.37667 17.86
-1.94092 -0.741187 17.8075
0.899357 0.22109 21.4353
0.644362 0.857392 13.2521
0.743484 1.0681 10.2114
-3.48213 0.724454 19.9624
-2.04605 0.862624 17.5733
-2.73551 3.22578 19.593
0.930505 -0.411197 20.714
0.921022 0.569564 7.67327
0.93744 -0.349682 13.8839
6.77164 -5.13829 18.035
1.92827 -0.753296 17.7454
3.15049 -0.819637 20.1003
-0.634347 0.849812 13.202
-0.570085 1.08987 9.42898
-0.889935 0.220439 21.4307
2.04838 0.89852 17.5
2.73475 3.16409 19.6106
3.49307 0.728839 19.9625
-0.822044 0.639778 6.77702
-0.946046 -0.344186 13.7803
-0.928103 -0.40477 20.711
-0.723435 -0.751708 21.7789
0.442764 -0.258873 5.47926
0.151633 -0.223949 21.6941
0.238158 -0.221102 8.04171
-1.75647 -0.717807 21.5629
-4.70119 1.44146 19.7672
-0.101305 -0.616317 21.0523
0.374066 1.03204 9.934
-0.472701 -0.316635 6.24334
0.725675 -0.748197 21.7778
-0.234972 -0.220817 8.1434
-0.148733 -0.224546 21.7013
4.61574 1.42168 19.9239
1.75338 -0.717834 21.5639
-0.36643 1.02741 10.0748
0.102844 -0.615465 21.0791
-0.993726 -0.312627 19.9501
-0.622789 -0.112243 19.8193
-0.689099 -0.253006 19.5428
-1.08263 -0.482864 21.0764
-1.4516 -0.40126 20.4038
-2.36226 -1.16953 20.1829
-0.298539 -0.245961 21.5046
-0.668371 -0.351815 21.3758
-0.589823 -0.514369 21.6298
0.211967 0.00472781 21.6137
-0.0321445 -0.131051 21.5756
0.0739514 -0.044109 21.7473
0.569983 0.187859 21.4036
0.472588 0.10329 21.5121
0.629637 0.401885 21.6448
0.762393 0.229698 21.1853
0.797633 0.184488 21.2806
0.998499 0.779147 21.2664
0.790249 0.239285 20.7688
0.879651 0.597075 20.987
-1.15186 -0.156008 19.8724
-0.684144 -0.00687959 19.7607
-0.780967 -0.134918 19.441
-1.25395 -0.357984 21.0937
-1.68935 -0.109981 20.377
-0.360894 -0.295581 21.5574
-0.901572 -0.349832 21.3746
0.272674 -0.0525916 21.6858
-0.0996891 -0.252094 21.6999
0.720196 0.0929678 21.4578
0.583571 -0.107463 21.6097
0.96354 0.0797949 21.4933
1.01896 -0.0694407 21.29
1.28935 0.497274 21.3203
0.985399 -0.0664303 20.7167
1.08758 0.429737 21.1318
-1.226 0.163245 19.8476
-0.654396 0.236075 19.8227
-0.822127 0.175379 19.3956
-1.49459 -0.0192311 21.0433
-1.41398 0.463245 20.3437
-0.65808 -0.30461 21.6508
-1.17501 0.0519936 21.2922
0.215884 -0.246404 21.7246
-0.304263 -0.186168 21.7214
0.728333 -0.258877 21.4905
0.389936 -0.356642 21.5535
1.01608 -0.27029 21.2159
0.678392 -0.439702 21.2685
1.46189 -0.548804 21.1906
0.606294 -0.445549 20.8801
1.42158 -0.511197 20.3013
-0.806098 0.471127 20.055
-0.573174 0.463275 19.6981
-1.0971 0.484499 20.8056
-1.32222 1.05963 20.1939
-0.751193 0.117556 21.5343
-1.6095 0.7659 21.2614
0.0104146 -0.230886 21.5999
-0.490157 -0.0157994 21.9072
0.358291 -0.403355 21.3705
0.217932 -0.508715 21.6077
0.555176 -0.453415 21.0024
0.515047 -0.725204 21.0916
0.411017 -0.573444 21.1224
-1.52296 -1.14518 18.4533
-0.667811 -0.286451 19.0899
-0.00321465 -0.571669 18.7255
-0.693341 -0.914462 18.016
0.0429169 -8.65945 17.2488
0.339855 -0.143871 16.6002
-0.00447151 -0.121316 8.32642
0.536394 0.404937 17.701
-0.00219615 -0.0195365 9.93734
0.655246 1.14317 18.9474
-0.0167082 0.273052 11.2597
1.05206 1.53655 19.7503
1.02096 1.49699 15.6971
-0.0645629 0.46483 11.1993
1.30804 1.04809 17.1936
0.0183129 1.71714 12.0672
-0.767626 -0.00442746 18.9389
-0.0141532 -0.257223 18.4213
1.65153 1.28395 14.797
1.52559 0.860304 9.59409
-0.0887407 -1.79883 -4.15183
2.19763 0.712612 15.5414
0.148256 0.0649518 4.78212
-0.691137 0.540423 19.1437
-0.0167822 0.347352 18.3238
2.0848 -0.147317 12.8552
1.33815 -1.08799 17.432
0.153432 -1.01737 -2.80307
1.13162 -1.00095 19.2728
0.125902 -1.11137 -0.261648
-0.899445 1.27504 19.4232
0.0025045 0.868483 19.1598
-1.61662 1.73924 20.5636
0.0216535 2.86286 19.6754
-1.6739 1.10525 22.4691
0.026435 4.40654 20.181
-0.229756 -0.433644 22.0218
0.000751003 0.777498 21.6488
0.205713 -0.902677 21.6577
-0.00242268 -0.187692 18.9556
0.433994 -1.04482 20.4094
-0.00313931 -0.87223 18.7339
0.015548 -1.00307 18.1064
1.53152 -1.1374 18.4644
0.668783 -0.298055 19.0551
0.690637 -0.258599 19.5307
0.852304 -0.952008 18.7805
2.30595 -1.11712 20.183
-0.325319 -0.146502 16.8201
0.596203 -0.510228 21.6181
-0.53669 0.404931 17.7193
-0.0716951 -0.0457856 21.7438
-0.622708 1.12624 18.748
-0.623657 0.398197 21.6392
-0.976644 1.55995 19.353
-0.924944 1.55733 15.2994
-1.00472 0.826265 21.2761
-1.20187 1.14813 16.7632
-0.888323 0.656066 21.0849
0.764933 -0.00485696 18.8875
0.789783 -0.132565 19.4009
-1.57981 1.35656 13.5138
-1.21409 1.05313 7.79589
-1.33882 0.515926 21.0553
-2.2735 0.770292 13.9427
-1.18103 0.518805 21.0671
0.685702 0.546043 19.1247
0.821301 0.175953 19.3674
-2.05748 -0.133505 11.4609
-1.37959 -1.08846 16.7909
-1.48556 -0.516328 20.8486
-1.14324 -1.01951 19.1385
-1.52642 -0.535686 20.1443
0.903909 1.25964 19.4326
0.570439 0.462017 19.7017
1.61756 1.69937 20.5749
1.31509 1.02646 20.2018
1.66895 1.08177 22.4521
1.58609 0.742484 21.2599
0.227594 -0.432751 22.0235
0.486426 -0.0174611 21.9037
-0.200607 -0.900357 21.6267
-0.218409 -0.510669 21.6088
-0.419358 -1.06156 20.2717
-0.501617 -0.740938 21.1327
-0.41089 -0.602004 21.1031
0.993378 -0.296671 19.963
0.632866 -0.123977 19.7996
1.06798 -0.463222 21.0863
1.45103 -0.396395 20.4057
0.29792 -0.244478 21.5021
0.671271 -0.346869 21.3703
-0.211352 0.00570937 21.612
0.0361129 -0.129103 21.576
-0.578423 0.204438 21.4084
-0.462677 0.10485 21.5135
-0.769914 0.247463 21.2105
-0.804635 0.208402 21.2673
-0.835464 0.233585 20.7276
1.09918 -0.160245 19.8754
0.691456 -0.00396171 19.7486
1.25808 -0.358994 21.0916
1.70227 -0.112329 20.3932
0.366032 -0.292259 21.5573
0.905861 -0.345974 21.3767
-0.270769 -0.0554189 21.6697
0.100304 -0.251783 21.7029
-0.7172 0.0917332 21.4525
-0.580062 -0.103291 21.6105
-0.982716 0.104856 21.5595
-1.03736 -0.0558854 21.194
-1.04089 -0.0784154 20.7266
1.23717 0.168152 19.846
0.662651 0.232342 19.8152
1.49495 -0.0152579 21.055
1.40196 0.458327 20.3469
0.657797 -0.303623 21.6514
1.16586 0.0472125 21.2891
-0.223753 -0.244286 21.7225
0.299969 -0.181097 21.7208
-0.738671 -0.259505 21.491
-0.389892 -0.35415 21.5515
-1.06137 -0.284615 21.232
-0.694897 -0.437519 21.2868
-0.610365 -0.450442 20.9208
0.80459 0.464237 20.0581
1.08185 0.472505 20.8091
0.744802 0.116901 21.5303
-0.0085285 -0.231432 21.5983
-0.362013 -0.404638 21.3738
-0.566228 -0.465264 20.9984
-1.08271 -0.259161 19.9136
-1.74444 -0.984398 18.0989
-1.3697 -0.610747 19.4275
-1.63732 -0.359131 19.2072
-0.735427 -0.223513 19.492
-2.71745 -1.04703 20.1633
-1.15392 -0.429081 21.0729
0.1769 -0.4857 6.17644
-1.40321 -0.826002 21.5451
-1.63298 -0.806886 21.6403
-0.61671 -0.623282 21.7067
-0.323179 -0.258225 21.5159
0.179504 -0.114477 7.0218
-0.195215 -0.272348 21.7183
-0.204447 -0.513199 21.8335
0.135073 -0.128854 21.7695
0.236272 -0.00994116 21.638
0.42333 0.212355 10.9416
0.356516 0.179205 21.7493
0.490011 0.0166021 21.5667
0.788272 0.333451 21.6109
0.636826 0.154692 21.4227
0.862493 1.20394 15.1039
0.826888 0.540213 21.5197
1.17258 0.334421 21.3037
1.15541 0.6444 21.2979
0.858719 0.162491 21.3375
1.37959 1.46929 16.3479
1.09153 0.776683 21.2182
1.58062 0.293307 20.6794
0.992942 0.532159 21.0929
-1.2144 -0.037414 19.8351
-2.26484 0.00742053 17.1538
-1.73731 0.369749 19.1457
-0.818125 -0.000950852 19.4029
-3.88119 -0.186949 20.0605
-1.39407 -0.245558 21.1108
-2.30712 0.00739402 21.5204
-1.22482 -0.865965 21.7242
-0.483358 -0.34474 21.6257
-0.844753 -0.855441 21.5567
0.0709779 -0.428846 20.8221
0.262209 -0.153679 21.7269
0.469839 -0.422242 20.8126
0.994135 -0.107204 20.6659
0.794229 -0.0785521 21.4522
0.316823 0.822841 5.70678
1.19113 -0.471728 20.9317
1.62106 0.0795507 20.8874
1.05519 -0.0506172 21.5287
2.15804 0.813249 12.4855
1.59002 -0.537572 20.4775
1.62988 0.185417 20.2798
-1.06313 0.380912 19.9278
-1.49072 1.44641 18.6182
-0.962831 0.803519 19.789
-0.740029 0.352625 19.5135
-2.16268 1.1861 20.1086
-1.38534 0.292131 20.9038
-2.87797 1.82355 20.8857
-1.47064 0.918515 20.7584
-2.17873 0.157779 21.4241
-0.782161 -0.0989295 21.6282
-0.938179 0.632384 12.7518
-1.14966 0.355151 21.8562
-0.529113 -0.317949 21.9946
0.122131 -0.279906 21.6748
0.963337 0.432018 11.3934
-0.0455388 -0.31415 21.7686
0.497957 -0.639583 21.6735
0.555718 -0.408591 21.4134
1.04464 -0.621662 15.8418
0.37079 -0.637994 21.4737
0.882022 -0.892923 21.4481
0.748324 -0.449892 20.9335
1.38311 -1.22554 17.9741
0.707531 -0.636368 20.7977
1.13481 -0.631428 20.2077
1.75008 -0.999402 18.0748
0.00728744 -1.91444 17.1009
-0.0231848 -1.22969 15.8775
-0.00780972 -0.447246 18.5893
0.0233548 -11.5882 13.8981
-0.197503 -0.561944 7.14306
-0.00139927 -0.483879 8.05524
-0.00129126 0.0028071 1.25849
-0.187847 -0.119678 7.39248
-0.00385224 -0.0800927 8.91001
-0.00138861 0.00442854 3.0707
-0.424103 0.212972 10.9529
-0.00412301 0.262799 10.5059
-0.0277468 0.21456 4.31501
-0.766078 1.1921 14.5728
-0.0442189 -0.0381674 11.4115
-0.12726 -0.882469 -3.8487
-0.0904045 -0.59889 3.36859
-1.28972 1.49994 15.8716
-0.0230525 1.06935 11.295
0.0220348 -1.25678 0.769449
0.115538 1.25057 9.25797
2.25032 0.0182614 17.0862
-0.0257408 1.56907 15.6137
-0.01875 -0.0133791 18.2176
-0.110562 0.92975 4.91243
0.0357035 -0.40514 -2.01011
0.154988 -2.50914 -6.04169
-2.07424 0.891209 11.1815
0.222406 -1.03468 -1.88295
0.177292 -1.74126 -2.13432
1.48742 1.44948 18.6107
0.010047 1.85402 18.9876
-0.00673476 0.757546 18.668
0.016679 5.5159 19.0495
2.87353 1.77663 20.8902
0.0189518 2.8594 20.2065
0.0148874 3.98127 13.4413
1.03567 0.564196 13.2692
0.0112989 2.85583 23.2764
-5.16181e-05 0.00273569 1.2822
-0.965691 0.439009 11.3576
-0.0015381 0.126735 20.5775
-0.0363336 0.814989 -1.2378
-1.06449 -0.599358 15.413
-0.00506203 -0.581627 19.3194
0.0351808 -0.191348 3.28723
-1.40982 -1.279 17.4113
-0.00888709 -1.29632 18.6891
0.0132471 -1.41034 7.22291
1.0502 -0.237161 19.9204
1.3743 -0.610266 19.4309
1.65815 -0.363128 19.1727
0.740243 -0.231554 19.471
2.685 -1.01633 20.1696
1.14601 -0.422412 21.0703
1.398 -0.820107 21.5221
1.63633 -0.80379 21.641
0.621112 -0.620539 21.6996
0.325826 -0.254275 21.5163
0.199989 -0.274884 21.7107
0.207853 -0.511844 21.8367
-0.131266 -0.12867 21.7677
-0.234667 -0.0118559 21.6253
-0.353161 0.179731 21.7466
-0.486829 0.0175663 21.563
-0.780893 0.329821 21.6065
-0.635903 0.161307 21.4173
-0.820089 0.548172 21.517
-1.18297 0.344323 21.2541
-1.165 0.685981 21.2979
-0.871979 0.183442 21.3817
-1.1268 0.843496 21.1749
-1.64834 0.371082 20.2454
-1.00306 0.595214 21.2051
1.2429 -0.0357427 19.8344
1.74883 0.375888 19.1167
0.825709 -0.00179332 19.3657
3.89609 -0.190306 20.0637
1.39635 -0.241809 21.1158
2.30927 0.00430279 21.5229
1.22424 -0.867113 21.7289
0.488087 -0.343067 21.6247
0.843584 -0.85131 21.5688
-0.0694467 -0.428355 20.8369
-0.265904 -0.152833 21.7222
-0.46878 -0.421514 20.8258
-0.986457 -0.104741 20.6724
-0.797996 -0.0775824 21.4607
-1.20552 -0.45628 20.8044
-1.67516 0.105024 20.4061
-1.09594 -0.0392722 21.6397
-1.65469 -0.559584 20.3439
-1.72331 0.283861 20.1882
1.0655 0.381003 19.9255
0.960589 0.79168 19.797
0.737757 0.360504 19.4993
2.14798 1.16467 20.1135
1.37822 0.285158 20.9058
1.45764 0.895464 20.7629
2.14289 0.152552 21.4177
0.77712 -0.095373 21.6238
1.13782 0.346461 21.8464
0.527674 -0.31194 21.9955
-0.122191 -0.276938 21.6726
0.0437501 -0.31421 21.7675
-0.500236 -0.636056 21.6662
-0.558499 -0.411687 21.4139
-0.370028 -0.644 21.475
-0.900335 -0.896537 21.3719
-0.778882 -0.460646 20.9442
-0.715157 -0.674785 20.8115
-1.1519 -0.663582 20.1799
-1.50509 -0.524043 19.3433
-1.51695 -0.799983 21.6105
-0.160463 -0.378826 21.7969
0.444234 0.0996491 21.7174
1.00465 0.450216 21.4299
1.3658 0.543499 20.8837
-1.83199 -0.0161465 19.0923
-2.12198 -0.647466 21.7692
-0.459249 -0.696247 21.214
0.52183 -0.208655 20.7457
1.28158 -0.096737 20.7698
1.73241 0.115539 19.7354
-1.41753 0.754926 19.4403
-2.05743 0.62941 20.9584
-1.40427 -0.180311 22.0507
0.107295 -0.460447 21.8616
0.711763 -0.747783 21.5486
0.818665 -0.784919 21.5808
-0.0051535 -1.76046 16.4005
0 0 0
-0.00169902 -0.0028419 2.14707
-0.00436407 0.187323 3.92935
-0.117084 -0.462029 2.95035
-0.00724905 0.0591079 5.85993
-0.0263394 0.0813778 15.0027
0.0036858 -1.05667 -3.73129
0.280154 -3.08038 -5.14341
-0.00325774 2.30367 17.6083
0.0186646 3.708 20.3567
0 0 0
0.00192358 0.45729 0.246365
-0.0211365 0.126484 1.6681
0.0367822 -0.918923 6.719
1.51013 -0.531602 19.3317
1.51357 -0.791567 21.6004
0.165564 -0.378211 21.7906
-0.440698 0.0982224 21.7134
-1.00652 0.459951 21.4136
-1.39569 0.631633 20.85
1.85259 -0.0168317 19.0579
2.12711 -0.650124 21.7725
0.459625 -0.69591 21.2242
-0.519415 -0.209003 20.7487
-1.28903 -0.0719223 20.5679
-1.81417 0.178809 19.2792
1.41903 0.759672 19.4333
2.04014 0.619218 20.9552
1.39234 -0.17713 22.0479
-0.108622 -0.458162 21.8602
-0.722304 -0.752576 21.5316
-0.882069 -0.799447 21.4362
-6.17569 -0.430705 5.30561
-0.0231719 -0.100185 0.0817653
-0.0993579 -0.135642 1.10097
0.0837159 0.00999101 0.36013
-0.0548137 0.0387797 0.0817708
-0.00107627 0.0440476 0.906819
-1.21085 0.329868 0.391123
-2.86884 11.7809 4.50042
-0.360754 -0.262556 1.99552
0.262939 0.0613046 1.30208
0.0328192 0.0361518 -0.101544
0.126566 0.178633 0.773617
0.0232152 -0.100356 0.0818704
6.17572 -0.431131 5.30427
0.0996984 -0.136009 1.1034
0.0511658 0.0415339 0.0876206
-0.0826388 0.0107757 0.357203
0.00169395 0.0444763 0.905222
2.86745 11.7674 4.49409
1.2089 0.328541 0.390894
0.360287 -0.262579 1.99317
-0.0371707 0.0379341 -0.105527
-0.269537 0.0701963 1.31927
-0.128228 0.181263 0.774774
0.0101709 -0.0800031 0.868851
0.00112556 -0.00213814 0.11191
0.000180823 -0.00155638 0.0244847
0 0 0
0.00658706 -0.00150561 0.174
-0.00268225 0.0105701 0.260873
-0.000156729 0.0027655 0.0199306
0 0 0
-0.178969 -0.271851 0.569244
-0.000501089 -0.00192699 0.0106896
0.000671546 0.00153642 0.00545393
-0.027241 -0.00578317 0.00638915
0 0 0
9.71575e-05 0.000228136 0.00105973
0 0 0
0.0117654 0.00148036 0.0817585
-0.0101644 -0.0800662 0.868605
0 0 0
-0.00112828 -0.00215018 0.111882
-0.00017989 -0.00154804 0.0243028
-0.00664587 -0.00156191 0.173497
0 0 0
0.00268165 0.0105616 0.260728
0.000157512 0.00277409 0.0199352
0.179045 -0.27188 0.569407
0.0275622 -0.00583048 0.00652497
0.000531383 -0.00204339 0.0113201
-0.000663272 0.00151737 0.00538775
0 0 0
-0.0118168 0.00148802 0.0818256
-9.44282e-05 0.000221665 0.00102752
0 0 0
-0.000988179 0.00121718 0.00914726
0 0 0
1.03958e-05 -0.00167729 0.0271127
-0.00121179 0.00366954 0.0345876
0 0 0
-4.56229e-06 3.73157e-07 -3.71881e-05
3.92392e-05 0.000191464 0.00157624
0 0 0
0 0 0
-0.00612106 -0.0648797 -0.0604871
0 0 0
0.000631314 0.000746645 0.0115886
-1.22317e-07 0.00134336 0.000252263
0 0 0
-0.0299717 -0.0930277 0.231953
-7.41876e-05 7.80549e-06 7.70531e-05
0 0 0
1.37463e-19 -2.55609e-18 9.43429e-18
0.00250625 0.00347072 0.0224824
-0.000971179 0.000478644 -0.000938444
0 0 0
0.00108652 0.00134022 0.0100668
4.55204e-06 3.70207e-07 -3.70158e-05
0 0 0
0 0 0
-4.01217e-05 0.000200571 0.00162015
-0.000649661 0.000744345 0.0115548
0 0 0
7.22244e-05 7.62002e-06 7.52372e-05
0.0295301 -0.0919267 0.229147
0.00105482 0.000519747 -0.00101555
-0.00247001 0.00345879 0.0221623
-0.000148344 0.00346009 0.0359592
7.2789e-18 -9.48808e-20 9.51422e-17
0 0 0
3.8628e-08 9.79985e-07 1.52629e-05
0 0 0
-1.94852e-09 4.77977e-09 9.5838e-06
8.75744e-08 4.99949e-06 2.76132e-05
5.58527e-06 0.000100484 0.000693173
-2.62215e-10 -4.35445e-11 8.95105e-07
0 0 0
0.00038971 0.000861658 0.00415849
0.00536683 0.000297661 0.0763535
3.12049e-06 0.000198625 -0.00564845
-0.000461884 0.0742359 0.110885
5.25187e-08 -3.87763e-06 -0.00020555
1.75709e-05 -0.000633642 0.00347087
0 0 0
0.000147836 0.00345406 0.0359188
0 0 0
-2.53387e-08 6.41959e-07 1.00176e-05
1.44797e-08 -8.27031e-07 -4.56537e-06
-5.54245e-06 9.96836e-05 0.000685405
-0.00543589 0.00030275 0.0764112
-0.000390659 0.0008642 0.00417224
-0.0389088 0.0147511 0.421739
-0.00864995 -0.0167126 0.0491349
0 0 0
-0.0126046 -0.0480177 0.130724
8.9775e-06 0.000569328 0.0201483
0.00019519 0.000407295 0.00413232