# vtk DataFile Version 2.0
tet_velo
ASCII
DATASET UNSTRUCTURED_GRID
POINTS 29498 float
-0.638942 0.255 -1.975
-0.715 0.495 2.09966
-0.683768 0.645 -2.045
-0.689781 0.725 2.135
0.643221 0.255 -1.975
0.715 0.495 2.09966
0.683768 0.645 -2.045
0.689781 0.725 2.135
-0.734365 0.26493 -0.61678
-0.79995 0.304697 0.74144
-0.770465 0.75636 -0.651667
-0.794116 0.804673 0.741667
0.73521 0.266937 -0.61678
0.800386 0.305688 0.74144
0.770467 0.756362 -0.651667
0.794159 0.804715 0.741667
-1.38108 -0.0223478 -3.06059
-1.38708 0.0200953 -1.95995
-1.46848 0.0415559 -0.602634
-1.53203 0.0968025 0.747611
-1.49768 0.237472 2.10433
-1.48153 0.306251 3.20205
-1.48437 0.341779 4.30517
-1.37763 0.196645 -3.08296
-1.38214 0.25035 -1.97849
-1.48165 0.276436 -0.614343
-1.54323 0.307523 0.746641
-1.47321 0.421537 2.11011
-1.46506 0.486601 3.20833
-1.47692 0.525144 4.31031
-1.39823 0.618576 -3.13757
-1.41627 0.673487 -2.03455
-1.50895 0.75456 -0.646466
-1.54302 0.775306 0.744104
-1.45928 0.742637 2.13151
-1.45865 0.807779 3.22828
-1.47634 0.872363 4.32459
-1.43882 1.29197 -3.19308
-1.45605 1.35086 -2.0848
-1.49728 1.42259 -0.685334
-1.52747 1.44315 0.7217
-1.52267 1.42124 2.1208
-1.51177 1.4293 3.22831
-1.50841 1.46763 4.32846
-0.668191 -0.0209162 -3.05832
-0.656143 0.0225465 -1.95664
-0.717554 0.0344087 -0.603078
-0.7783 0.0979279 0.743172
-0.754807 0.281214 2.09657
-0.741586 0.336686 3.19679
-0.744073 0.358269 4.30212
-0.666202 0.195407 -3.08226
-0.72735 0.515205 3.20399
-0.73839 0.539091 4.30801
-0.682588 0.607313 -3.14191
-0.721875 0.807408 3.22898
-0.738939 0.87426 4.32474
-0.707069 1.28694 -3.19738
-0.714651 1.34745 -2.08953
-0.744121 1.42665 -0.688186
-0.774333 1.44863 0.722043
-0.778449 1.41759 2.12324
-0.770105 1.42292 3.23075
-0.76659 1.46286 4.33024
0.704547 -0.0205887 -3.05832
0.70083 0.02303 -1.95664
0.754281 0.035891 -0.603078
0.778016 0.0988846 0.743172
0.723218 0.281537 2.09657
0.725751 0.33698 3.19679
0.730629 0.358623 4.30212
0.689491 0.195591 -3.08226
0.721548 0.515397 3.20399
0.728703 0.539397 4.30801
0.700253 0.607428 -3.14191
0.712218 0.807562 3.22898
0.723285 0.874531 4.32474
0.741208 1.2872 -3.19738
0.751781 1.34769 -2.08953
0.760141 1.42691 -0.688186
0.743706 1.44891 0.722043
0.716675 1.41786 2.12324
0.712695 1.42321 3.23075
0.715338 1.46319 4.33023
1.4083 -0.0215713 -3.06059
1.40966 0.0211988 -1.95995
1.48614 0.0437578 -0.602634
1.53548 0.0985142 0.747611
1.48757 0.238362 2.10433
1.47292 0.306976 3.20205
1.47385 0.342542 4.30517
1.39055 0.197192 -3.08296
1.3788 0.251016 -1.97849
1.47742 0.278591 -0.614343
1.54681 0.309128 0.746641
1.48069 0.422219 2.11011
1.46537 0.487179 3.20833
1.46966 0.525825 4.31031
1.40524 0.618946 -3.13757
1.40811 0.673747 -2.03455
1.50103 0.755343 -0.646466
1.54315 0.776094 0.744104
1.46384 0.74311 2.13151
1.45418 0.808258 3.22828
1.46278 0.872972 4.32459
1.46531 1.29253 -3.19308
1.48146 1.3514 -2.0848
1.5051 1.42319 -0.685334
1.50088 1.44379 0.7217
1.47213 1.42185 2.1208
1.46116 1.42993 3.22831
1.46033 1.46831 4.32846
-0.6866 0.45 -2.03524
0.00213951 0.248928 -1.98107
-0.70526 0.241358 -1.29589
-0.703264 0.61 2.1182
0 0.469957 2.1247
-0.797834 0.35949 1.42055
0 0.700326 -2.10033
-0.76583 0.739393 -1.34833
0 0.728762 2.13876
-0.787352 0.81024 1.43833
0.687236 0.45 -2.03374
0.708734 0.24145 -1.29589
0.703328 0.61 2.11827
0.79798 0.360056 1.42055
0.765845 0.739408 -1.34833
0.787353 0.810241 1.43833
-0.750235 0.301736 0.0623299
-0.832181 0.510645 -0.634224
0.00042253 0.195255 -0.61678
-0.880135 0.554685 0.741553
0.000217839 0.24168 0.74144
-0.777579 0.775804 0.045
1.06157e-06 0.853096 -0.651667
2.12104e-05 1.19872 0.741667
0.750855 0.303256 0.0623299
0.832553 0.511649 -0.634224
0.880099 0.555202 0.741553
0.77757 0.775795 0.045
-0.82337 0.480322 -1.32211
-0.855598 0.532665 0.053665
-0.868632 0.582343 1.42944
0.00128102 0.198209 -1.29589
0.000320185 0.198504 0.0623299
0.000108919 0.281958 1.42055
0.00106975 0.45 -2.13271
0 0.61 2.13797
5.30787e-07 0.818409 -1.34833
1.1136e-05 1.19406 0.045
1.06052e-05 0.941208 1.43833
0.823549 0.480825 -1.32211
0.855972 0.533426 0.053665
0.868557 0.582601 1.42944
-1.01054 0.252675 -1.97674
-0.647543 0.138773 -1.96582
-0.652572 0.225204 -2.52863
-1.0941 0.458269 2.10489
-0.734904 0.388107 2.09811
-0.721175 0.505103 2.65183
-1.05002 0.659243 -2.03977
-0.683178 0.626156 -2.59346
-0.699209 0.996225 -2.06727
-1.07453 0.733819 2.13326
-0.705828 0.766204 2.68199
-0.734115 1.07129 2.12912
0.672025 0.139015 -1.96582
0.666356 0.225295 -2.52863
1.01101 0.253008 -1.97674
0.719109 0.388268 2.09811
0.718274 0.505199 2.65182
1.09784 0.458609 2.10489
0.69201 0.626214 -2.59346
0.717775 0.996343 -2.06727
1.04594 0.659373 -2.03977
0.701 0.766281 2.68199
0.703228 1.07143 2.12912
1.07681 0.734055 2.13326
-1.10801 0.270683 -0.615562
-0.725959 0.149669 -0.609929
-1.17159 0.30611 0.74404
-0.789125 0.201312 0.742306
-1.13971 0.75546 -0.649066
-0.757293 1.0915 -0.669926
-1.16857 0.78999 0.742885
-0.784225 1.12665 0.731855
0.744746 0.151414 -0.609929
1.10632 0.272764 -0.615562
0.789201 0.202286 0.742306
1.1736 0.307408 0.74404
0.765304 1.09164 -0.669926
1.13575 0.755852 -0.649066
0.768933 1.12681 0.731855
1.16865 0.790405 0.742885
-1.38408 -0.00112626 -2.51027
-1.37936 0.0871487 -3.07177
-1.02464 -0.021632 -3.05945
-1.42778 0.0308256 -1.28129
-1.38461 0.135223 -1.96922
-1.02161 0.0213209 -1.95829
-1.50026 0.0691792 0.0724884
-1.47507 0.158996 -0.608489
-1.09302 0.0379823 -0.602856
-1.51486 0.167137 1.42597
-1.53763 0.202163 0.747126
-1.15516 0.0973652 0.745392
-1.48961 0.271862 2.65319
-1.48545 0.329505 2.10722
-1.12624 0.259343 2.10045
-1.48295 0.324015 3.75361
-1.4733 0.396426 3.20519
-1.11156 0.321469 3.19942
-1.48065 0.433461 4.30774
-1.11422 0.350024 4.30365
-1.37988 0.223498 -2.53073
-1.38793 0.407611 -3.11027
-1.02192 0.196026 -3.08261
-1.43189 0.263393 -1.29642
-1.3992 0.461918 -2.00652
-1.51244 0.29198 0.0661489
-1.4953 0.515498 -0.630404
-1.50822 0.36453 1.42838
-1.54312 0.541415 0.745372
-1.46914 0.454069 2.65922
-1.46624 0.582087 2.12081
-1.47099 0.505872 3.75932
-1.46186 0.64719 3.21831
-1.09621 0.500903 3.20616
-1.47663 0.698753 4.31745
-1.10766 0.532117 4.30916
-1.40725 0.646031 -2.58606
-1.41853 0.955275 -3.16533
-1.04041 0.612945 -3.13974
-1.46261 0.714023 -1.34051
-1.43616 1.01217 -2.05967
-1.52598 0.764933 0.0488189
-1.50312 1.08857 -0.6659
-1.50115 0.758972 1.43781
-1.53524 1.10923 0.732902
-1.45896 0.775208 2.6799
-1.49097 1.08194 2.12616
-1.46749 0.840071 3.77644
-1.48521 1.11854 3.2283
-1.09026 0.807593 3.22863
-1.49238 1.16999 4.32653
-1.10764 0.873311 4.32467
-1.44744 1.32142 -2.63894
-1.07295 1.28946 -3.19523
-1.47667 1.38672 -1.38507
-1.08535 1.34916 -2.08717
-1.51237 1.43287 0.0181832
-1.1207 1.42462 -0.68676
-1.52507 1.43219 1.42125
-1.1509 1.44589 0.721872
-1.51722 1.42527 2.67456
-1.15056 1.41941 2.12202
-1.51009 1.44846 3.77839
-1.14094 1.42611 3.22953
-1.1375 1.46524 4.32935
-0.662167 0.000815179 -2.50748
-0.667196 0.0872455 -3.07029
0.0181783 -0.0207524 -3.05832
-0.686848 0.0284776 -1.27986
0.022343 0.0227883 -1.95664
-0.747927 0.0661683 0.0700472
0.0183639 0.0351498 -0.603078
-0.766554 0.189571 1.41987
-0.000141863 0.0984062 0.743172
-0.748197 0.30895 2.64668
-0.0157948 0.281375 2.09657
-0.742829 0.347478 3.74945
-0.734468 0.425946 3.20039
-0.00791727 0.336833 3.19679
-0.741231 0.44868 4.30507
-0.00672182 0.358446 4.30212
-0.674395 0.40136 -3.11209
0.0116447 0.195499 -3.08226
-0.73287 0.527148 3.756
-0.724613 0.661306 3.21648
-0.00290129 0.515301 3.20399
-0.738664 0.706675 4.31637
-0.00484307 0.539244 4.30801
-0.694829 0.947129 -3.16964
0.00883222 0.60737 -3.14191
-0.730407 0.840834 3.77686
-0.74599 1.11516 3.22987
-0.00482847 0.807485 3.22898
-0.752765 1.16856 4.32749
-0.00782692 0.874395 4.32474
-0.71086 1.3172 -2.64345
0.0170694 1.28707 -3.19738
-0.729386 1.38705 -1.38886
0.0185652 1.34757 -2.08953
-0.759227 1.43764 0.0169286
0.00801005 1.42678 -0.688186
-0.776391 1.43311 1.42264
-0.0153135 1.44877 0.722043
-0.774277 1.42025 2.677
-0.0308866 1.41772 2.12324
-0.768348 1.44289 3.78049
-0.0287047 1.42306 3.23075
-0.025626 1.46303 4.33023
0.702688 0.00122069 -2.50748
0.697019 0.087501 -3.07029
1.05642 -0.02108 -3.05945
0.727555 0.0294605 -1.27986
1.05524 0.0221144 -1.95829
0.766149 0.0673878 0.0700472
1.12021 0.0398244 -0.602856
0.750617 0.190211 1.41987
1.15675 0.0986994 0.745392
0.724485 0.309258 2.64668
1.10539 0.259949 2.10045
0.72819 0.347802 3.74946
0.723649 0.426189 3.20039
1.09934 0.321978 3.19942
0.729666 0.44901 4.30507
1.10224 0.350582 4.30365
0.694872 0.401509 -3.11209
1.04002 0.196391 -3.08261
0.725125 0.527397 3.756
0.716883 0.66148 3.21648
1.09346 0.501288 3.20616
0.725994 0.706964 4.31637
1.09918 0.532611 4.30916
0.720731 0.947312 -3.16964
1.05275 0.613187 -3.13974
0.717752 0.841046 3.77686
0.712457 1.11539 3.22987
1.0832 0.80791 3.22863
0.719312 1.16886 4.32749
1.09303 0.873751 4.32467
0.746495 1.31744 -2.64345
1.10326 1.28986 -3.19523
0.755961 1.3873 -1.38886
1.11662 1.34954 -2.08717
0.751924 1.43791 0.0169285
1.13262 1.42505 -0.68676
0.730191 1.43338 1.42264
1.12229 1.44635 0.721871
0.714685 1.42053 2.677
1.0944 1.41986 2.12202
0.714017 1.4432 3.78049
1.08693 1.42657 3.22953
1.08783 1.46575 4.32935
1.40898 -0.00018626 -2.51027
1.39943 0.0878104 -3.07177
1.4479 0.0324783 -1.28129
1.39423 0.136107 -1.96922
1.51081 0.071136 0.0724883
1.48178 0.161174 -0.608489
1.51152 0.168438 1.42597
1.54114 0.203821 0.747126
1.48025 0.272669 2.65319
1.48413 0.33029 2.10722
1.47339 0.324759 3.75361
1.46915 0.397078 3.20519
1.47176 0.434184 4.30774
1.38468 0.224104 -2.53073
1.3979 0.408069 -3.11027
1.42811 0.264803 -1.29642
1.39345 0.462381 -2.00652
1.51212 0.293859 0.0661489
1.48923 0.516967 -0.630405
1.51375 0.365673 1.42838
1.54498 0.542611 0.745372
1.47303 0.454699 2.65922
1.47227 0.582664 2.12081
1.46752 0.506502 3.75932
1.45978 0.647719 3.21831
1.46622 0.699399 4.31745
1.40667 0.646346 -2.58606
1.43527 0.955737 -3.16533
1.45457 0.714545 -1.34051
1.44478 1.01257 -2.05967
1.52209 0.765718 0.0488189
1.50306 1.08927 -0.6659
1.5035 0.759602 1.43781
[...]
POINT_DATA 29498
VECTORS point_vectors float
-9.37959 -9.44359 15.8765
0.237953 0.202904 0.7656
-7.7677 4.99612 9.72186
-0.00447819 -0.284142 0.861678
9.79692 -9.66152 16.9507
-0.229962 0.200702 0.748779
7.28386 4.83688 9.39937
0.000846158 -0.291547 0.851646
0.0428312 -0.037942 0.41417
-1.18362e-17 -1.2751e-17 8.224e-17
-0.212454 -0.268556 0.7345
0.025612 0.0702763 0.242162
-0.0392314 -0.034804 0.383621
0 0 0
0.212883 -0.268821 0.735213
-0.0257607 0.0707516 0.243092
-0.557155 -0.193982 19.7584
-1.32915 -0.571214 20.3192
-0.5564 -0.377005 21.1105
0.0283229 -0.146401 21.2772
0.723035 0.0853538 21.1025
0.879961 0.0765726 20.6869
0.726645 -0.0297577 20.5688
-0.582472 -0.125621 19.7066
-1.61735 -0.414438 20.247
-0.680821 -0.397107 21.1224
-0.00824237 -0.184896 21.3363
0.812505 -0.0220009 21.1527
0.960703 -0.0592053 20.8249
0.842954 -0.149949 20.5294
-0.555408 0.061753 19.6942
-1.57889 0.168949 20.1365
-1.01348 -0.20444 21.0368
-0.150037 -0.207432 21.3985
0.770818 -0.27093 21.1839
0.877362 -0.304639 20.8544
0.578253 -0.298857 20.6059
-0.40239 0.217151 19.8292
-0.904615 0.512446 20.123
-0.947129 0.334858 20.8413
-0.272537 -0.0437141 21.2873
0.322509 -0.362417 21.0839
0.418741 -0.427254 20.7562
0.341666 -0.336402 20.5702
-0.505463 -0.438808 19.2349
-2.74422 -3.97265 20.405
0.115155 -0.310763 18.2279
1.24807 -0.483903 15.0065
0.611782 1.22907 9.03486
1.50656 1.37282 13.1375
1.29927 0.514257 14.5105
-0.546954 -0.294658 19.0867
1.76806 0.741916 10.7756
1.53201 0.35902 14.0153
-0.548859 0.0779564 19.0466
1.93656 -0.565101 10.5564
1.05609 -0.246266 14.9485
-0.363746 0.446155 19.491
-1.14807 1.62786 19.755
-1.66848 1.66025 20.5648
-0.472946 0.153896 22.0051
0.254781 -0.791927 20.8556
0.433631 -1.01541 20.3973
0.244071 -0.675326 20.5159
0.520904 -0.421533 19.2609
2.81277 -3.62943 20.3812
-0.0346348 -0.351812 18.8233
-1.25174 -0.477271 14.9426
-0.458141 1.23866 8.03863
-1.45119 1.39247 12.7258
-1.32277 0.541351 14.1838
0.565499 -0.285927 19.1105
-1.74729 0.749765 10.6295
-1.54646 0.37768 13.7737
0.561363 0.0795 19.0674
-1.91348 -0.546982 10.3158
-1.05257 -0.253218 14.6626
0.381377 0.436915 19.5075
1.16461 1.5723 19.7758
1.67385 1.60468 20.5842
0.474392 0.167524 22.0358
-0.232032 -0.815245 20.656
-0.406339 -1.02141 20.5087
-0.231175 -0.680932 20.6082
0.547751 -0.185048 19.7828
1.29554 -0.543481 20.3295
0.559811 -0.369499 21.0958
-0.0247926 -0.149449 21.2716
-0.731264 0.0828382 21.1133
-0.884061 0.0760474 20.6972
-0.727373 -0.0268658 20.6128
0.580397 -0.120618 19.7122
1.62666 -0.416366 20.2461
0.682999 -0.400661 21.1255
0.0086837 -0.186307 21.3365
-0.800201 -0.0211801 21.1161
-0.959846 -0.0603855 20.8234
-0.850557 -0.151749 20.5379
0.553172 0.0610201 19.7004
1.59622 0.178547 20.1331
1.02099 -0.205106 21.0405
0.148954 -0.206476 21.401
-0.767149 -0.266821 21.1409
-0.880481 -0.30786 20.8599
-0.592005 -0.310916 20.5928
0.39881 0.214788 19.8413
0.88784 0.486837 20.1323
0.940099 0.326949 20.84
0.287884 -0.0420382 21.3114
-0.329842 -0.387453 21.0941
-0.439136 -0.446768 20.7305
-0.383002 -0.38317 20.5159
-3.02488 -0.88231 2.67381
0.00610172 -2.11938 3.53713
0.00227581 -0.00922261 0.158279
0.0335172 0.000125679 0.142339
0 0 0
-0.000480521 0.0318259 0.235654
0.0217673 0.331058 0.811746
-0.539344 -0.0880993 2.91671
-0.00125534 0.172552 -0.126789
0.0439011 -0.0167236 0.564161
2.01882 -0.587574 1.82085
-0.00407264 -0.017928 0.275043
-0.0429663 0.00262574 0.141605
-1.90292e-05 0.0343238 0.25609
0.536349 -0.0855248 2.91266
-0.0436902 -0.0166621 0.5614
0.00427496 -0.00749168 0.12636
0 0 0
0 0 0
-0.00602146 0.060268 0.622971
-9.47303e-06 0.00427113 0.0208799
0.0102538 0.0254289 0.100599
0 0 0
-5.54998e-06 -0.000148638 0.00427056
-0.00402361 -0.0072704 0.118464
8.26513e-05 -0.00110008 0.00438298
0.00581158 0.0629694 0.642503
-0.0102581 0.0254405 0.100701
-0.00289243 -0.00841041 0.0788167
-0.00982751 0.00941087 0.432124
0.00554482 0.0115609 0.0818643
-1.00534e-06 -6.3015e-06 0.000243061
-3.17614e-06 1.6558e-06 0.000404637
0 0 0
-0.0014 -0.557545 0.437956
-0.00134232 0.0391172 -0.0240481
2.67048e-06 0.000187711 0.00164964
2.36044e-06 0.00151423 0.0578448
-3.00883e-05 0.0100313 -0.0229513
0.00284066 -0.00856311 0.0798636
0.00979412 0.00896378 0.429868
-0.00341062 0.00711868 0.0508134
-3.20876 -1.22083 20.1529
-4.49027 -6.0658 20.4364
-1.70044 -1.13111 17.8383
1.42882 0.110882 18.9418
0.541463 0.801239 4.11068
1.1504 0.838496 6.60857
-3.20641 0.615891 19.7973
-1.66792 0.466119 17.7934
-2.36045 2.82522 19.3366
1.32686 -0.403153 18.5879
1.04576 -0.168807 6.48605
0.738822 -0.553822 12.5717
4.47859 -5.61089 20.4354
1.71391 -1.10248 17.8948
3.20508 -1.2132 20.1559
-0.458405 0.783698 3.49195
-1.12716 0.849376 6.5246
-1.42125 0.108004 18.9594
1.66746 0.458267 17.8335
2.37443 2.71715 19.3662
3.23442 0.627808 19.7963
-1.02981 -0.149793 6.33469
-0.672045 -0.525236 11.3783
-1.31938 -0.406801 18.6681
-0.580047 -0.708971 21.1327
0.569513 -0.269017 9.36076
0.0208618 -0.367251 21.0658
1.17701 -1.66204 7.8664
-1.64298 -0.645551 21.0907
-3.09863 1.47145 19.6398
-0.258503 -0.428911 20.917
0.226082 0.504246 14.9133
-0.516831 -0.292116 10.0708
0.575697 -0.712101 21.0791
-1.16993 -1.65492 7.78534
-0.0222561 -0.363616 21.0498
3.08913 1.4335 19.7103
1.6467 -0.664192 21.0393
-0.349124 0.592878 13.8602
0.253496 -0.426252 20.8957
-0.99334 -0.403899 19.8302
-0.574454 -0.160376 19.7286
-0.5862 -0.314672 19.5299
-0.974662 -0.490563 20.936
-1.47071 -0.493729 20.2888
-2.09055 -1.40977 20.2939
-0.255512 -0.27389 21.225
-0.610479 -0.384621 21.1228
-0.481837 -0.547852 21.3721
0.387617 -0.00154877 21.2909
0.0186856 -0.167996 21.3131
0.129169 -0.2476 21.4141
0.856507 0.113862 20.9215
0.779726 0.0264448 21.1403
1.22428 0.358045 20.3167
0.847116 -0.033453 20.7222
0.927735 0.0246378 20.7054
1.4107 0.297611 19.5319
0.75522 -0.0745273 20.6377
0.935432 0.117636 19.7455
-1.10509 -0.264503 19.7172
-0.578742 -0.0409545 19.6829
-0.609126 -0.185222 19.4457
-1.16832 -0.411025 20.954
-1.70963 -0.124287 20.1806
-0.342622 -0.31643 21.2559
-0.85125 -0.329391 21.0808
0.420537 -0.0824884 21.3365
-0.0846315 -0.215077 21.3716
0.929722 -0.00692815 20.8993
0.817282 -0.168186 21.1761
0.875422 -0.133977 20.8373
0.949906 -0.193574 20.7969
1.64728 0.0335687 19.1699
0.695721 -0.267221 20.5738
1.18935 -0.0331859 19.2367
-1.0586 0.12386 19.6968
-0.495508 0.165393 19.7571
-0.616698 0.065654 19.4073
-1.35385 -0.00713204 20.7875
-1.2731 0.45999 20.0992
-0.633594 -0.24532 21.2911
-1.07761 0.105103 20.9311
0.368444 -0.228333 21.3804
-0.255736 -0.152179 21.357
0.892621 -0.301629 20.907
0.519084 -0.383569 21.1148
0.714633 -0.290911 20.7553
0.640463 -0.452508 20.7388
1.3527 -0.510505 18.8226
0.405812 -0.258407 20.4507
0.837003 -0.541444 19.5038
-0.648417 0.374314 19.8878
-0.41088 0.326207 19.6595
-0.978578 0.455029 20.5354
-1.13383 0.975802 19.9703
-0.702906 0.147104 21.1848
-1.36637 0.745547 20.8289
0.0776395 -0.238395 21.235
-0.397148 0.0260395 21.5773
0.392456 -0.433682 20.9263
0.337904 -0.562512 21.1597
0.384666 -0.381317 20.5826
0.466843 -0.643051 20.7853
0.330987 -0.495873 20.292
-1.31935 -1.48699 18.6249
-0.529913 -0.369112 19.1624
0.0161279 -0.596904 18.946
-0.848352 -1.05499 20.7779
0.0787828 -6.20459 20.6979
0.552881 -0.245452 15.9092
-0.00627666 -0.220767 12.4507
0.186596 0.611458 10.2818
-6.06548e-05 0.481687 7.87934
1.03186 1.30664 11.4884
-0.0596193 -0.0110224 1.53898
1.46555 0.886048 13.4544
1.63255 1.09928 11.6948
0.00451949 0.196638 2.65655
1.45186 0.445736 14.258
0.0237741 0.85501 8.65096
-0.565935 -0.0691214 19.0193
0.0101476 -0.38292 18.7291
1.72065 0.700939 12.8451
2.01898 0.131693 9.61124
0.0294071 -1.02825 -4.28579
1.36538 0.108279 13.7407
0.014778 0.366723 3.66565
-0.449323 0.346893 19.2582
0.00654669 0.106489 18.6858
1.23194 -0.633016 12.4792
0.935766 -1.03682 16.4416
0.0401744 -0.2603 -2.14097
0.616893 -0.61296 18.7532
0.0246525 -0.7885 5.45288
-0.716572 0.952191 19.3466
0.00767511 0.555424 19.2979
-1.26019 1.51837 20.4135
0.0322539 2.51728 19.5356
-1.54908 1.25986 21.9782
0.0269194 3.16908 19.9614
0.0517053 -0.515092 21.5009
-0.0187498 0.425843 20.7146
0.353612 -0.938769 20.743
-0.013352 -0.548257 17.0799
0.349044 -0.86274 20.2546
0.0190737 -1.08666 18.0456
0.000873894 -0.60549 18.3983
1.35283 -1.41587 18.707
0.544643 -0.354668 19.1862
0.584699 -0.305033 19.5441
0.869317 -1.05866 20.8691
2.00455 -1.303 20.3006
-0.521754 -0.264429 16.3614
0.495822 -0.54 21.3581
-0.113409 0.613531 9.80561
-0.126242 -0.244533 21.4105
-0.925613 1.37353 10.7222
-1.24745 0.388505 20.047
-1.48233 0.920024 13.1534
-1.59443 1.11324 11.4162
-1.42002 0.3314 19.4156
-1.47108 0.468594 13.9729
-0.946897 0.125835 19.604
0.583008 -0.0678159 19.043
0.614938 -0.183235 19.4554
-1.73073 0.718818 12.6794
-1.99207 0.143705 9.4262
-1.65454 0.0393234 19.1444
-1.38658 0.134437 13.4303
-1.19636 -0.0283828 19.1313
0.460541 0.337438 19.2804
0.618264 0.0648538 19.4194
-1.23079 -0.644349 12.2294
-0.897354 -1.02235 15.5201
-1.37009 -0.514663 18.6943
-0.620369 -0.625262 18.1436
-0.851536 -0.528545 19.3362
0.728041 0.925766 19.3798
0.412856 0.319658 19.6684
1.26997 1.47141 20.4194
1.11033 0.922049 19.9882
1.55129 1.27953 21.9902
1.35342 0.729203 20.833
-0.0500525 -0.546063 21.3186
0.404286 0.033962 21.5961
-0.322945 -0.979753 20.595
-0.332671 -0.599134 21.1846
-0.309793 -0.883438 20.2171
-0.472268 -0.695495 20.7534
-0.319961 -0.521233 20.3189
0.972088 -0.388703 19.8617
0.569489 -0.153055 19.7424
0.970746 -0.475833 20.918
1.44903 -0.475371 20.3004
0.257005 -0.272566 21.2268
0.611509 -0.38044 21.1203
-0.391202 -0.0017639 21.2966
-0.0174386 -0.17009 21.311
-0.865564 0.112779 20.9211
-0.779637 0.025613 21.1157
-0.870891 -0.0295341 20.687
-0.928761 0.0239835 20.7104
-0.7538 -0.0728251 20.6753
1.10377 -0.260385 19.723
0.577748 -0.0404412 19.6889
1.17473 -0.414601 20.958
1.73091 -0.124365 20.1791
0.343464 -0.319214 21.2596
0.856817 -0.33752 21.0886
-0.416018 -0.0845859 21.3371
0.0834875 -0.216581 21.3748
-0.926825 -0.00668173 20.897
-0.809414 -0.165709 21.1169
-0.879645 -0.135028 20.8321
-0.950616 -0.195055 20.7959
-0.706494 -0.276807 20.5647
1.06088 0.124465 19.6974
0.491597 0.159972 19.7689
1.36455 -0.0029287 20.7933
1.25747 0.452507 20.1091
0.636321 -0.247161 21.2957
1.07668 0.105911 20.9338
-0.368168 -0.227814 21.3808
0.259064 -0.15173 21.3726
-0.891893 -0.303014 20.9081
-0.533722 -0.402368 21.1224
-0.726603 -0.295296 20.7405
-0.650178 -0.464451 20.7261
-0.435075 -0.291171 20.4177
0.640752 0.364932 19.9018
0.964684 0.439351 20.5362
0.71216 0.151994 21.1903
-0.0823252 -0.249 21.2593
-0.412043 -0.467879 20.952
-0.423799 -0.418455 20.6246
-1.06331 -0.327636 19.7647
-1.54423 -1.41442 18.2032
-1.26533 -0.785668 19.4236
-1.54682 -0.57289 19.0814
-0.600573 -0.25318 19.4863
-2.6406 -1.4345 20.2171
-1.07285 -0.457383 20.9373
0.0167795 -0.549543 12.5554
-1.17998 -0.893178 21.3151
-1.57723 -0.823004 21.4965
-0.523812 -0.61858 21.3569
-0.293204 -0.29499 21.2386
0.479088 -0.38888 8.09418
-0.137782 -0.392696 21.3771
-0.184883 -0.590561 20.8848
0.0751687 -0.320587 21.2574
0.420633 -0.0427447 21.3254
-0.191471 0.408345 4.28464
0.70778 0.115643 21.0548
0.79299 -0.0595595 20.3124
1.35455 0.241514 19.7985
0.896938 0.055704 20.9125
1.00849 1.1187 8.72373
1.37546 0.376776 20.2186
1.56584 0.0906408 19.2183
1.5737 0.139495 19.2496
0.889703 -0.0787081 20.7429
1.61742 0.82339 13.1871
1.31551 0.213121 19.1477
1.40738 0.0840837 19.1545
1.08959 0.049055 19.4874
-1.1275 -0.0810387 19.6826
-1.80341 -0.338257 17.5903
-1.48154 0.218799 19.0461
-0.637275 -0.0468385 19.3948
-3.5758 -0.281194 19.9046
-1.29671 -0.231982 20.8798
-2.07119 0.0202134 21.113
-0.998009 -0.842214 21.153
-0.479056 -0.311168 21.2765
-0.994645 -0.733872 21.2405
-0.0844304 -0.413689 20.8043
0.397171 -0.161809 21.3595
0.694719 -0.377541 20.0788
1.42886 -0.123637 18.4543
0.940777 -0.175384 20.8918
1.22759 0.391895 5.91271
1.41929 -0.501515 19.3174
1.63065 -0.212957 18.6222
0.749537 -0.219884 21.0182
1.50193 -0.0113798 11.8277
1.02148 -0.476723 18.8156
1.03136 -0.27699 18.856
-0.879235 0.30834 19.7709
-1.13851 1.01595 18.6871
-0.752827 0.637723 19.6468
-0.526592 0.268681 19.533
-1.88802 1.10269 19.8604
-1.21929 0.302664 20.6254
-2.19807 1.67462 20.7007
-1.2432 0.885643 20.4953
-1.86634 0.27431 20.9179
-0.747517 -0.051809 21.2654
-2.10795 0.142463 17.7126
-1.08492 0.463368 21.4387
-0.443776 -0.1623 21.7171
0.197567 -0.273854 21.312
0.880998 -0.136299 13.6651
0.1005 -0.344106 21.4096
0.686541 -0.732635 20.7895
0.62994 -0.429376 20.9336
0.872052 -0.914956 15.0239
0.452732 -0.648302 21.0003
0.823305 -0.776583 20.3808
0.555122 -0.364671 20.5247
0.802576 -0.911218 17.3225
0.461736 -0.58616 20.6584
0.622144 -0.596606 20.119
1.55253 -1.35964 18.281
0.0577721 -2.29753 17.7835
0.0235622 -1.84598 16.4047
0.0163638 -0.494968 18.8351
0.0403674 -9.06285 21.1333
0.059442 -0.635598 13.7201
0.0217233 -1.36288 17.5946
-0.00864273 0.0504386 4.16013
-0.462996 -0.408636 8.57569
-0.0112663 -0.00896716 9.24361
-0.000379629 0.333627 2.51802
0.205828 0.377005 3.87357
0.000419483 0.215768 4.54141
-0.0205632 -0.362595 -0.23634
-0.942272 1.15767 8.28591
-0.0677386 -0.307876 0.627043
-0.00042928 -1.1398 -4.41962
0.00965518 -0.337798 -0.615845
-1.63153 0.850009 12.9533
0.00682405 0.580031 4.4781
0.012462 0.375567 -1.31217
0.0187849 0.628314 5.55226
1.80983 -0.335285 17.6344
0.0110368 0.856047 16.259
0.0082278 -0.103356 18.6375
-1.21063 0.404765 5.76558
0.0177841 -0.458961 -3.54344
0.0380717 -0.74323 -3.53809
-1.50758 0.00713071 11.6258
0.0437783 -0.0942616 2.61309
0.0213179 -0.259946 5.19374
1.15264 0.994615 18.7299
0.0200197 1.39394 18.9767
0.008718 0.471874 19.0016
0.0327132 4.65755 19.0281
2.19952 1.62747 20.7029
0.02942 2.30841 20.2658
0.0234899 3.02566 14.8862
2.07679 0.155627 17.5065
-0.0101875 2.81344 22.6453
0.00184642 -0.0814117 2.33902
-0.886106 -0.114271 12.5009
-0.011033 -0.382382 18.0958
-0.0221444 0.593397 0.0969133
-0.856756 -0.919939 14.3079
-0.0040211 -0.880635 17.6912
0.0136987 -0.63928 5.46524
-0.803701 -0.931728 16.6261
0.0152021 -0.730055 18.2638
-0.000835423 -1.16168 8.9688
1.05083 -0.316375 19.7835
1.23678 -0.735438 19.4552
1.54179 -0.551866 19.1053
0.602519 -0.253277 19.5003
2.57995 -1.35351 20.2171
1.06907 -0.451433 20.935
1.17428 -0.852158 21.2741
1.58406 -0.816811 21.493
0.538585 -0.608672 21.3543
0.294868 -0.296228 21.2402
0.14998 -0.389542 21.3902
0.188109 -0.586196 20.8078
-0.0747742 -0.315982 21.2383
-0.421563 -0.0455746 21.3253
-0.71853 0.121523 20.9515
-0.790551 -0.0617983 20.3488
-1.35693 0.252561 19.6138
-0.900329 0.0548667 20.9133
-1.39729 0.404795 20.0516
-1.56105 0.089413 19.2258
-1.58031 0.161424 19.1823
-0.904592 -0.0753296 20.7205
-1.3025 0.230384 19.1632
-1.41219 0.089928 19.1399
-1.09934 0.055627 19.3633
1.12691 -0.0804204 19.687
1.48079 0.21731 19.0574
0.641662 -0.0447825 19.4081
3.58191 -0.285284 19.9097
1.30732 -0.234094 20.8869
2.07426 0.0206698 21.1193
0.988736 -0.855477 21.0863
0.47965 -0.315439 21.2867
0.99802 -0.742397 21.1951
0.0823621 -0.414918 20.8313
-0.393294 -0.162365 21.3659
-0.691425 -0.382528 20.1139
-1.42684 -0.13296 18.4941
-0.936211 -0.176697 20.8849
-1.42078 -0.501358 19.2823
-1.64309 -0.213803 18.5319
-0.758467 -0.224818 21.0108
-1.02991 -0.482914 18.65
-1.04172 -0.268338 18.7171
0.869082 0.30135 19.7853
0.747177 0.619664 19.6693
0.529471 0.266765 19.5433
1.86464 1.07146 19.8685
1.21178 0.301697 20.6272
1.23477 0.851034 20.4975
1.85566 0.269305 20.9168
0.75158 -0.0498677 21.2727
1.09094 0.47435 21.4434
0.45357 -0.165793 21.6858
-0.20527 -0.281082 21.3304
-0.0958044 -0.357972 21.4338
-0.693368 -0.750723 20.5764
-0.638628 -0.44744 20.9451
-0.445418 -0.691493 20.9912
-0.825484 -0.809931 20.3493
-0.576405 -0.38538 20.5495
-0.452733 -0.64034 20.6022
-0.618831 -0.613554 20.1397
-1.41788 -0.693873 19.2323
-1.36954 -0.887302 21.422
-0.144785 -0.474586 21.1659
0.764866 0.0307201 20.6142
1.49434 0.256664 19.62
1.4597 0.145048 18.9802
-1.58875 -0.13986 18.9898
-1.90838 -0.468015 21.3921
-0.460372 -0.756613 20.8693
0.777031 -0.195891 20.0132
1.56332 -0.197352 18.6345
1.2266 -0.153728 18.345
-1.09375 0.596395 19.3801
-1.7691 0.661468 20.6846
-1.38429 -0.00607057 21.6446
0.285279 -0.491796 21.4109
0.846433 -0.773055 20.5074
0.775747 -0.65217 20.4107
0.0467036 -2.20524 17.0914
-0.00312951 -0.290611 6.46541
-0.00308801 0.00904849 2.898
-0.000231783 0.0376519 0.64015
-0.0363054 -0.700428 -2.68323
0.00127346 0.474897 1.1485
0.0150257 -0.440407 15.9759
0.0174255 -0.762612 -3.88932
0.0339442 0.247206 1.32409
0.0229399 1.63275 17.8966
0.0188354 2.88256 20.3009
2.22458e-05 0.0223801 0.695536
-0.0177383 0.281883 0.777778
0.01059 -0.280398 2.80932
0.0113383 -0.824267 8.16381
1.39352 -0.654091 19.2837
1.3704 -0.864567 21.3902
0.156086 -0.471344 21.2039
-0.769858 0.0318774 20.5428
-1.49758 0.273265 19.4282
-1.4495 0.158711 18.9901
1.58707 -0.138729 19.0076
1.91332 -0.467484 21.3827
0.459076 -0.759923 20.8568
-0.776164 -0.201014 20.0689
-1.56513 -0.196666 18.6114
-1.22979 -0.161267 18.2118
1.08801 0.5839 19.397
1.75304 0.6431 20.6812
1.40154 -0.00448491 21.6392
-0.287318 -0.509861 21.3672
-0.855726 -0.804389 20.455
-0.779186 -0.682261 20.3623
-0.74313 -0.323454 0.8341
-0.151422 -2.29538 3.53467
0.0104978 -0.0160753 0.319531
0.0497181 0.0167882 0.130251
0 0 0
0.0208569 0.0205339 0.140647
-4.06898 0.372016 2.57401
-0.0834609 0.750405 1.05353
-0.455466 0.183808 2.7318
0.039379 -0.049509 0.310229
-0.0848216 0.1017 -0.0785819
0.0485122 -0.121974 0.646165
0.178912 -2.55184 3.67574
0.675682 -0.296173 0.748898
-0.00939957 -0.0114914 0.333716
0 0 0
-0.0465045 0.0160044 0.121191
-0.0207835 0.0213906 0.144135
0.0839362 0.754976 1.05704
5.60879 0.493304 4.06084
0.451258 0.186608 2.72556
0.085289 0.104746 -0.0801171
-0.144469 -0.0765685 0.475682
-0.0494196 -0.120722 0.645214
0.00102742 -0.00250805 0.0297054
0.00348487 -0.00534394 0.0774262
0 0 0
0 0 0
0.00641575 0.0184015 0.332169
0.000924537 -0.0019025 0.0245013
-0.0123183 0.00885989 0.0800649
4.21428e-05 0.000759532 0.00356523
-0.571294 -0.43643 1.57594
1.83347e-05 5.15869e-05 -0.000204329
-0.00250168 0.00182113 0.0772004
0 0 0
0.0912047 0.123517 0.678429
-7.58728e-05 0.00209168 0.0112008
0.00041654 0.000876113 0.00302134
0.0110934 -0.00373912 0.0777931
-0.00461559 -0.0154946 0.752067
0 0 0
-0.00303328 -0.00462664 0.0667941
0 0 0
-0.00579027 0.0178682 0.319017
-4.14823e-05 0.000730346 0.00339818
-0.000643981 -0.00134455 0.0176661
0.0122963 0.00882686 0.0795421
0.568088 -0.433152 1.5676
0 0 0
-1.78185e-05 5.01577e-05 -0.000197945
0.00244891 0.00182137 0.0761489
-0.0912715 0.123359 0.676647
-0.0110479 -0.00370027 0.0772487
5.45253e-05 0.00178016 0.00942868
-0.000528578 0.00111339 0.00385428
-0.0198103 -0.0122255 0.141254
-0.839609 -1.44792 0.61338
0 0 0
-0.000189181 -0.116738 0.105183
-0.00535883 -0.0363241 0.326854
7.19822e-06 -2.82093e-06 0.000110504
0.00386471 0.00015539 0.0196523
0 0 0
2.03311e-05 0.000423708 0.00320706
0 0 0
0.0026011 0.00914971 0.0726354
0 0 0
0.00365403 0.0160826 0.00159053
5.30161e-07 0.000290898 0.00256412
-0.0385273 -0.0360659 0.259538
-0.00289754 0.00119259 0.0183875
-0.000841662 0.0393558 -0.0190494
2.01211e-06 8.77929e-06 -3.73887e-05
0.0117272 -0.00386881 0.0985734
-8.04135e-18 3.89851e-18 -9.34468e-18
0.850621 -1.4381 0.614352
0.0221575 -0.0138556 0.158221
-6.20698e-06 -2.43133e-06 9.53225e-05
0.00565722 -0.0351214 0.323629
4.06684e-17 1.54639e-17 -7.22901e-19
-0.0046431 0.000234578 0.0235818
0 0 0
-0.00294235 0.0106535 0.0859299
0.00290546 0.00119663 0.0184443
0.0465236 -0.0440925 0.314147
6.22225e-18 3.04278e-18 -7.27617e-18
-0.0118257 -0.0038612 0.0993136
0 0 0
0.00029003 1.94994e-05 0.00300624
-0.00396373 -0.0324668 0.219334
-0.00956844 -0.0178199 0.391394
-0.000118936 -0.000346738 0.0180978
-9.68054e-05 -4.60544e-06 0.0107717
-0.00116313 0.0175652 0.148465
0.0033425 0.0011646 0.0999975
0 0 0
3.11398e-07 -3.32616e-06 -9.9943e-05
8.58428e-05 0.000439421 0.00321459
-0.00315104 0.0039647 0.0783016
2.87946e-05 0.0187934 0.180077
5.25913e-05 0.495389 0.755931
0 0 0
-1.64527e-05 -0.00289967 0.00812143
-0.000298334 2.01503e-05 0.00310838
5.84791e-19 -2.13567e-18 1.0811e-16
0.00368856 -0.0314265 0.211961
0.0104546 -0.0196666 0.42503