# vtk DataFile Version 2.0
tri_press
ASCII
DATASET UNSTRUCTURED_GRID
POINTS 3682 float
-0.779291 0.385 -2.115
-0.755 0.455 2.16345
-0.775 0.625 -2.13085
-0.781553 0.745 2.125
0.779291 0.385 -2.115
0.755 0.455 2.16345
0.775 0.625 -2.13085
0.781553 0.745 2.125
-0.823846 0.355682 -0.68885
-0.833467 0.361297 0.7373
-0.837674 0.725489 -0.712234
-0.846475 0.772106 0.706383
0.823825 0.355702 -0.68885
0.833507 0.361257 0.7373
0.837661 0.725477 -0.712234
0.846479 0.77211 0.706383
-1.60432 0.181152 -3.2407
-1.60524 0.205273 -2.1028
-1.63952 0.186278 -0.676451
-1.64774 0.187766 0.75141
-1.60161 0.250466 2.17788
-1.58601 0.288426 3.31641
-1.58807 0.31265 4.45378
-1.60044 0.337891 -3.25133
-1.60095 0.376271 -2.11425
-1.64663 0.368721 -0.689373
-1.65043 0.36863 0.736184
-1.58083 0.423132 2.16121
-1.57089 0.459412 3.29963
-1.57964 0.484083 4.43724
-1.59885 0.624434 -3.27048
-1.60053 0.661818 -2.13309
-1.65604 0.729927 -0.713349
-1.66196 0.75747 0.705861
-1.59833 0.751552 2.12575
-1.58017 0.786193 3.26448
-1.5831 0.819848 4.40331
-1.6098 1.1214 -3.30488
-1.61539 1.16895 -2.16861
-1.63832 1.24621 -0.751312
-1.653 1.29781 0.664365
-1.64214 1.31212 2.08174
-1.62573 1.32493 3.21817
-1.61401 1.3472 4.35618
-0.797522 0.185457 -3.24118
-0.787566 0.211576 -2.1035
-0.815655 0.179624 -0.676356
-0.832533 0.183146 0.752362
-0.799451 0.267681 2.17955
-0.784781 0.300521 3.31754
-0.785102 0.318925 4.45443
-0.796416 0.33804 -3.25148
-0.767452 0.471506 3.30056
-0.776567 0.489733 4.43774
-0.794428 0.609721 -3.26955
-0.774704 0.786784 3.26433
-0.778193 0.821144 4.40328
-0.796126 1.11154 -3.30396
-0.795996 1.15974 -2.1676
-0.813817 1.24504 -0.750701
-0.831988 1.30164 0.664292
-0.829415 1.31282 2.08122
-0.815602 1.32396 3.21765
-0.804283 1.3464 4.3558
0.795006 0.185457 -3.24118
0.803718 0.211579 -2.1035
0.826071 0.179632 -0.676356
0.815711 0.183122 0.752363
0.766999 0.267671 2.17955
0.789175 0.300514 3.31754
0.807302 0.318918 4.45444
0.784888 0.338039 -3.25148
0.793789 0.471501 3.30056
0.811743 0.489726 4.43774
0.785394 0.60972 -3.26955
0.802956 0.786781 3.26433
0.816129 0.821139 4.40328
0.82093 1.11154 -3.30396
0.83054 1.15973 -2.1676
0.834168 1.24504 -0.750701
0.819363 1.30164 0.664292
0.802435 1.31281 2.08122
0.80476 1.32396 3.21765
0.813008 1.3464 4.3558
1.59907 0.181152 -3.2407
1.60941 0.205277 -2.1028
1.6423 0.186283 -0.676451
1.6386 0.187736 0.75141
1.58775 0.250442 2.17788
1.59185 0.288409 3.31641
1.60872 0.312635 4.45378
1.5886 0.33789 -3.25133
1.59539 0.376272 -2.11425
1.64388 0.36873 -0.689373
1.65109 0.368597 0.736184
1.58591 0.423111 2.16121
1.59239 0.459398 3.29963
1.61114 0.484069 4.43725
1.58987 0.624431 -3.27048
1.59662 0.661812 -2.13309
1.65428 0.729921 -0.713349
1.66344 0.757461 0.70586
1.60467 0.75154 2.12575
1.6039 0.786183 3.26448
1.61742 0.819836 4.40331
1.62998 1.12139 -3.30488
1.64196 1.16894 -2.16861
1.65393 1.2462 -0.751313
1.64445 1.2978 0.664365
1.62361 1.31211 2.08174
1.61942 1.32492 3.21817
1.6241 1.34719 4.35618
-0.722549 0.505 -2.06833
0 0.392096 -2.1079
-0.82119 0.35072 -1.40193
-0.777889 0.6 2.15384
0 0.487387 2.13106
-0.832535 0.369847 1.45038
0 0.658954 -2.1648
-0.829739 0.698647 -1.42154
0 0.744304 2.1243
-0.839289 0.783828 1.41569
0.722547 0.505 -2.06833
0.82119 0.350719 -1.40193
0.778234 0.6 2.15418
0.832575 0.369806 1.45038
0.829767 0.698675 -1.42154
0.839275 0.783814 1.41569
-0.825909 0.361236 0.024225
-0.85679 0.540586 -0.700542
-1.02891e-05 0.162023 -0.68885
-0.880897 0.566701 0.721842
1.99381e-05 0.188003 0.7373
-0.836906 0.74363 -0.00292504
-6.32993e-06 0.875169 -0.712234
1.90714e-06 1.15417 0.706383
0.825921 0.361225 0.024225
0.856785 0.54059 -0.700542
0.880899 0.566683 0.721842
0.836908 0.743631 -0.00292504
-0.851478 0.522793 -1.41173
0.851509 0.522795 -1.41173
-5.14455e-06 0.219193 -1.40193
-3.16496e-06 0.810377 -1.42154
0 0.505 -2.13093
-0.85956 0.553643 0.01065
0.85956 0.553636 0.01065
4.8245e-06 0.176545 0.024225
-2.21139e-06 1.17182 -0.00292504
-0.886721 0.583351 1.43303
0.886704 0.583342 1.43303
9.96905e-06 0.273478 1.45038
9.53572e-07 0.923269 1.41569
0 0.6 2.15595
-0.766384 0.445 -2.10713
-0.389645 0.367518 -2.13248
-0.798246 0.369854 -1.75846
-0.791099 0.5275 2.1833
-0.3775 0.453317 2.16513
-0.804166 0.402025 1.80691
-0.719443 0.565 -2.07026
-0.3875 0.649963 -2.15581
-0.810673 0.670127 -1.7762
-0.780764 0.6725 2.14046
-0.390776 0.743954 2.12395
-0.815547 0.76954 1.77035
0.389645 0.367519 -2.13248
0.766594 0.445 -2.10734
0.798281 0.369819 -1.75846
0.3775 0.453336 2.16511
0.791256 0.5275 2.18346
0.804168 0.402023 1.80691
0.3875 0.649973 -2.15582
0.719442 0.565 -2.07026
0.810666 0.670119 -1.7762
0.390776 0.743967 2.12397
0.781312 0.6725 2.14101
0.815544 0.769537 1.77035
-0.826181 0.349537 -1.04539
-0.825094 0.358242 -0.332313
-0.844399 0.446093 -0.694696
-0.459376 0.163956 -0.68885
-0.843474 0.355099 1.09384
-0.828184 0.362771 0.380763
-0.865179 0.46 0.729571
-0.46061 0.186878 0.7373
-0.835984 0.714346 -1.06689
-0.860237 0.63954 -0.706388
-0.836655 0.733924 -0.357579
-0.443414 0.849478 -0.712234
-0.84906 0.784145 1.06104
-0.882676 0.678899 0.714113
-0.840152 0.756329 0.351729
-0.512973 1.14261 0.706383
0.826178 0.34954 -1.04539
0.459361 0.163955 -0.68885
0.825074 0.358262 -0.332313
0.844398 0.446099 -0.694696
0.843429 0.355143 1.09384
0.46064 0.186877 0.7373
0.8282 0.362755 0.380763
0.865178 0.459983 0.729571
0.835988 0.71435 -1.06689
0.45305 0.868769 -0.712234
0.860236 0.63954 -0.706388
0.836655 0.733924 -0.357579
0.84906 0.784146 1.06104
0.512981 1.14262 0.706383
0.882663 0.678884 0.714113
0.840145 0.756323 0.351729
-0.830044 0.513896 -1.74003
-0.361274 0.505 -2.05777
-2.57227e-06 0.249107 -1.75491
0 0.448548 -2.10775
-0.843993 0.436756 -1.40683
-0.410597 0.219193 -1.40193
-0.858134 0.591675 1.79344
-0.388944 0.6 2.15688
4.98452e-06 0.265248 1.79072
0 0.543693 2.18625
-0.876297 0.476599 1.4417
-0.416263 0.272127 1.45038
-1.58248e-06 0.756396 -1.79317
0 0.581977 -2.15248
-0.85388 0.61072 -1.41664
-0.414871 0.786221 -1.42154
4.76786e-07 0.878714 1.77
0 0.672152 2.14193
-0.892936 0.683589 1.42436
-0.419644 0.92349 1.41569
0.830025 0.513897 -1.74003
0.361273 0.505 -2.05772
0.843971 0.436757 -1.40683
0.410593 0.219193 -1.40193
0.858126 0.591671 1.79361
0.389117 0.6 2.15688
0.876298 0.476574 1.4417
0.416293 0.231851 1.45038
0.853826 0.610735 -1.41664
0.414882 0.786221 -1.42154
0.892964 0.683578 1.42436
0.419638 0.92349 1.41569
-0.84754 0.455037 0.0174375
-0.459307 0.176182 0.024225
-0.856563 0.531689 -1.05614
-0.857246 0.547115 -0.344946
-7.71682e-06 0.170188 -1.04539
-2.7323e-06 0.169209 -0.332313
-0.866843 0.560172 0.366246
-0.896495 0.575026 1.07744
1.23813e-05 0.178776 0.380763
1.49536e-05 0.220127 1.09384
-0.86225 0.655645 0.00386247
-0.518517 1.15785 -0.00292504
-4.74745e-06 0.830633 -1.06689
-4.27066e-06 1.11836 -0.357579
-1.52124e-07 1.17322 0.351729
1.43036e-06 1.04825 1.06104
0.847539 0.455032 0.0174375
0.459315 0.176181 0.024225
0.856563 0.531692 -1.05614
0.857247 0.547113 -0.344946
0.866844 0.56016 0.366246
0.896496 0.575012 1.07744
0.862244 0.655639 0.00386247
0.518516 1.15785 -0.00292504
-0.819505 0.440878 -1.74925
-0.847367 0.442445 -1.05076
-0.861517 0.621879 -1.06151
-0.831099 0.58786 -1.75811
0.819622 0.440878 -1.74925
0.831105 0.587867 -1.75811
0.861448 0.621884 -1.06151
0.847196 0.442451 -1.05076
-0.400121 0.249798 -1.75669
0.400119 0.249791 -1.75669
0.41125 0.170188 -1.04539
-0.411263 0.170188 -1.04539
-0.401186 0.735184 -1.78468
-0.416856 0.810139 -1.06689
0.416855 0.810135 -1.06689
0.401191 0.735182 -1.78468
-0.37546 0.446774 -2.08705
-0.374387 0.573488 -2.0762
0.374387 0.573488 -2.07615
0.375459 0.446774 -2.08704
-0.845176 0.450962 -0.338629
-0.855077 0.45816 0.373504
-0.869589 0.665835 0.358988
-0.860164 0.647053 -0.351263
0.845171 0.450964 -0.338629
0.860162 0.64705 -0.351263
0.869578 0.665823 0.358988
0.855075 0.458149 0.373504
-0.4596 0.169551 -0.332313
0.459596 0.169551 -0.332313
0.461099 0.179286 0.380763
-0.46108 0.179286 0.380763
-0.519297 1.08033 -0.357579
-0.519939 1.15862 0.351729
0.519946 1.15863 0.351729
0.519266 1.08028 -0.357579
-0.884205 0.470299 1.08564
-0.840715 0.502049 1.80017
-0.859104 0.678045 1.78189
-0.895347 0.676497 1.06924
0.884207 0.470272 1.08564
0.895729 0.676487 1.06924
0.859088 0.678039 1.78198
0.840714 0.502037 1.80026
-0.416493 0.223944 1.09384
0.416528 0.213608 1.09384
0.396896 0.269922 1.79882
-0.396881 0.279181 1.79882
-0.42144 1.04962 1.06104
-0.40521 0.875224 1.77017
0.405207 0.875224 1.77017
0.421439 1.04962 1.06104
-0.383222 0.535597 2.19139
0.383309 0.535597 2.19139
0.389947 0.672326 2.14211
-0.38986 0.672326 2.14211
-0.777025 0.415 -2.11525
-0.584468 0.371216 -2.12878
-0.77129 0.394906 -1.93673
-0.776334 0.49125 2.17666
-0.56625 0.453364 2.16509
-0.783933 0.424163 1.98518
-0.717102 0.595 -2.07043
-0.58125 0.63259 -2.13844
-0.79511 0.649837 -1.95352
-0.789361 0.70875 2.14093
-0.586165 0.743905 2.1239
-0.799432 0.758153 1.94767
0.584468 0.371162 -2.12884
0.777013 0.415 -2.11524
0.771264 0.394931 -1.93673
0.56625 0.453393 2.16506
0.775743 0.49125 2.17607
0.783937 0.424159 1.98518
0.58125 0.633734 -2.13958
0.717278 0.595 -2.07061
0.795112 0.649839 -1.95352
0.586165 0.743924 2.12392
0.780593 0.70875 2.13217
0.799423 0.758143 1.94767
-0.823544 0.354079 -0.867119
-0.824356 0.357075 -0.510581
-0.834357 0.40077 -0.691773
-0.688708 0.165624 -0.68885
-0.843482 0.353186 0.915569
-0.830435 0.362424 0.559031
-0.85106 0.40978 0.733436
-0.689966 0.188233 0.7373
-0.837591 0.72068 -0.889561
-0.854395 0.685234 -0.709311
-0.836727 0.72927 -0.534906
-0.659086 0.824569 -0.712234
-0.848395 0.778754 0.883711
-0.867483 0.726956 0.710248
-0.843401 0.764305 0.529056
-0.70336 1.00463 0.706383
0.823524 0.354099 -0.867119
0.688607 0.1658 -0.68885
0.824323 0.357109 -0.510581
0.834358 0.400778 -0.691773
0.843477 0.353191 0.915569
0.689765 0.188684 0.7373
0.830447 0.362412 0.559031
0.851043 0.40977 0.733436
0.83759 0.720679 -0.889561
0.658985 0.824381 -0.712234
0.854386 0.685227 -0.709311
0.836725 0.729268 -0.534906
0.848407 0.778766 0.883711
[...]
POINT_DATA 3682
SCALARS point_scalars float 1
LOOKUP_TABLE default
-7.01408
-33.3616
61.1757
-33.9485
-29.3642
-33.1168
60.8594
-33.8511
-35.3092
-21.4833
-34.1855
-40.9637
-35.2649
-21.4706
-34.1472
-40.9364
-7.69818
-98.5093
-34.7561
-53.5314
-32.9067
-32.7766
-32.7766
-7.69818
-98.5093
-34.3661
-47.8626
-32.765
-32.7766
-32.7766
46.6581
-92.4677
-34.5244
-36.4573
-34.1953
-32.7766
-32.7766
-67.8319
-51.3689
-34.2034
-41.7931
-33.5866
-34.3441
-34.3441
142.273
-115.005
-38.5451
-33.6534
-32.6882
-29.4422
-29.4422
142.273
-29.4422
-29.4422
142.273
-29.4315
-29.4422
44.2842
-71.8049
-26.9382
-53.8104
-32.022
-32.1008
-32.703
152.555
-71.7829
-38.3758
-26.6335
-32.2948
-29.3149
-29.3149
152.555
-29.3149
-29.3149
152.555
-29.2745
-29.3149
45.3291
-50.0844
-27.5867
-53.8992
-31.8695
-31.9771
-32.9683
-30.9462
-96.9897
-34.7079
-53.3944
-32.8178
-32.4856
-32.4856
-30.9462
-96.9897
-34.323
-47.7123
-32.6753
-32.4856
-32.4856
30.7812
-92.494
-34.4802
-36.4273
-34.191
-32.4856
-32.4856
-69.2296
-51.4179
-33.9281
-41.8745
-33.5103
-34.25
-34.25
50.6127
19.823
-38.0447
-33.1626
-23.5445
-36.4486
39.8126
-34.4321
-25.3655
-41.3119
47.9597
-38.1212
-32.9201
-36.2531
-34.4228
-41.2371
-32.8351
-34.2561
-48.9711
-34.6919
-39.8685
-43.1068
24.3866
-61.1236
-32.8025
-34.2182
-34.6557
-43.0541
-37.6079
-37.582
-44.2032
-22.5162
201.582
-35.1267
-35.095
-38.573
-89.1785
-39.9732
-39.9218
-31.6138
-37.7963
-21.5104
46.2567
-16.0156
-46.206
-33.2549
-26.6849
-35.7447
70.8983
130.36
-45.7063
-33.5819
-26.9052
-35.9707
-15.9121
30.4868
-46.0445
-26.283
-32.9787
-35.7626
130.219
69.6145
-45.6915
-26.7437
-33.2959
-35.9123
-31.6596
-34.3468
-34.494
-46.8325
-38.4195
-31.1559
-31.2291
-40.5024
-27.2952
-34.7882
-45.4935
12.9285
-43.4207
-36.9915
-39.2981
-59.0535
-31.6603
-46.813
-34.2947
-34.4485
-38.1155
-40.2696
-31.1521
-31.1865
-27.3166
12.6043
-34.7451
-45.5002
-43.3934
-59.0417
-36.9615
-39.2639
-50.9164
196.165
-73.2557
200.618
-37.5116
-41.4705
-36.142
-26.1036
-30.6985
-20.9799
-39.8985
-32.8091
-33.9073
208.134
-36.9059
-24.4452
-31.4897
-23.2034
-40.591
-38.1445
-50.8383
196.384
-37.4931
-41.4447
-36.0993
-25.8311
-39.8929
-31.8603
-36.8899
-24.4439
-40.5548
-38.1291
-33.4671
-37.1978
-33.0501
-36.1556
-49.6696
-41.4101
-33.0795
-39.4632
-38.0476
-37.7202
-37.9419
-76.2994
0.800729
-39.8864
-71.0591
-46.2181
-33.4404
-37.1613
-32.9846
-36.117
-33.0581
-39.3483
-37.9065
-76.2627
-49.3402
-33.7347
-31.7391
-51.018
-49.2331
-50.975
-31.7193
-33.2382
-74.7167
-74.6496
-46.8442
-46.8565
-36.8915
-5.79799
-5.75141
-36.8931
195.527
192.403
192.583
195.563
-34.6158
-31.5147
-35.3444
-39.2677
-34.5764
-39.2283
-35.3159
-31.4986
-39.6298
-39.5895
-36.7437
-36.7918
-30.5849
-62.5127
-62.4962
-30.5872
-39.1243
-35.9897
-36.0734
-40.4305
-38.9493
-40.2378
-36.0186
-35.9776
-38.0946
-36.9102
-33.2328
-31.9369
-47.5273
-31.7616
-31.7131
-47.5395
-25.8855
-25.5648
-26.0884
-26.3108
20.6064
33.63
-66.3726
-32.9678
-28.3978
-34.0717
92.7253
63.0138
-71.5281
-34.1203
-28.2033
-33.8019
32.5561
1.20123
-65.7362
-28.095
-32.6994
-34.0092
62.9803
92.1349
-71.6175
-28.0451
-33.8526
-33.7335
-39.7788
-34.6138
-34.7024
-42.5352
-50.5719
-29.2727
-27.0027
-40.0259
-30.8834
-34.2089
-40.5889
-11.0278
-42.3789
-39.3276
-40.0631
-49.8692
-39.785
-42.547
-34.5739
-34.6534
-50.5196
-39.7207
-29.2568
-26.9645
-30.7907
-10.8895
-34.1627
-40.5783
-42.3557
-49.844
-39.2986
-40.0416
48.8896
52.7439
-78.7902
185.303
5.96627
6.16829
-107.239
136.447
-46.2675
-33.9676
-37.5696
-40.797
-32.9857
-32.7261
-34.4773
-27.3627
-24.4442
-24.1986
-29.1216
-21.3427
-37.691
-37.3092
-38.1352
-33.4309
79.3013
77.2555
-36.4703
173.707
-37.8749
-30.946
-36.2135
-26.9526
-25.8935
-25.7488
-28.8777
-24.0655
-38.4907
-42.8234
-41.1624
-40.3588
45.3468
52.0025
-78.7418
185.589
-46.1636
-33.9154
-37.5669
-40.7241
-32.7876
-32.5019
-34.4079
-27.2153
-37.6906
-37.0158
-38.0181
-33.0627
-37.8859
-30.9562
-36.1986
-26.9422
-38.4676
-42.7948
-41.0986
-40.3035
-33.8197
-31.9374
-33.1423
-35.2435
-34.3315
-34.4782
-34.1765
-35.3512
-48.5236
-48.5123
-52.8285
-45.0605
-33.6364
-35.4996
-32.6081
-38.6541
-40.0064
-39.8583
-39.5069
-40.4291
-44.8854
-41.4067
-40.3028
-56.4594
22.5926
21.7435
12.4671
26.1141
-60.8158
-60.8111
-65.7491
-54.3626
-33.7785
-31.9205
-33.1152
-35.1577
-34.29
-34.4371
-34.1855
-35.3095
-33.5965
-35.4681
-32.5831
-38.604
-44.9492
-41.3661
-40.2625
-56.4128
-42.6214
-37.508
-37.4611
-33.9421
-42.5812
-37.4816
-37.4328
-33.9133
-52.6369
-43.2978
-43.2843
-43.6121
-30.7972
-22.6999
-22.6968
-11.1475
201.748
199.953
203.173
201.753
-34.1524
-36.1066
-33.917
-36.3349
-34.1229
-36.0702
-33.8946
-36.3015
-38.1823
-39.7648
-37.5557
-38.1288
-87.3697
-109.566
-77.7375
-87.3693
-38.3001
-40.2504
-39.9199
-39.8177
-38.2288
-40.2266
-39.8669
-39.7379
-29.2018
-32.0498
-31.5177
-34.6774
-34.7723
-37.8409
-37.8335
-41.1931
-23.4897
-20.8954
-22.3821
-23.1093
-76.8883
182.016
-53.0122
141.725
-46.4067
-67.4724
-33.5962
-27.5369
-31.4969
-25.916
-35.9296
-33.3278
-81.789
178.205
-48.4298
191.431
-49.5234
-38.3371
-34.2397
-27.4999
-29.1963
-26.5768
-35.9763
-33.0061
-53.1101
140.64
-76.6581
182.27
-46.2522
-67.3222
-31.1147
-25.5907
-33.5224
-27.4399
-35.9449
-33.9358
-48.5854
190.883
-81.7427
178.363
-49.4904
-38.2723
-29.1103
-26.3842
-34.1959
-27.3518
-35.9176
-32.9424
-33.0232
-38.5405
-34.2771
-36.6496
-35.8742
-34.5332
-51.0494
-42.9748
-38.5955
-37.5306
-31.2245
-33.607
-30.7689
-42.1403
-38.8381
-41.5985
-30.7366
-12.9463
-33.2883
-37.4489
-42.0814
-72.1624
4.27174
13.9236
-42.0861
-50.172
-35.8265
-39.2741
-37.133
-48.7762
-60.2158
-55.8652
-32.8937
-38.5276
-51.0324
-42.9473
-34.2356
-36.567
-36.0474
-34.4924
-38.4107
-37.1682
-38.7182
-41.0506
-31.2126
-33.6866
-30.7456
-42.0785
-30.7305
-12.9901
4.15334
13.7962
-33.2648
-37.4057
-42.0365
-72.1926
-42.0417
-50.1867
-60.2122
-55.8541
-35.7996
-39.2957
-37.1007
-48.7442
-50.636
-51.4474
195.212
194.101
-74.5499
-74.5157
202.976
202.992
-43.8727
-34.0245
-50.8511
-40.1601
-36.0184
-36.2312
-26.1081
-26.1709
-31.0481
-31.0656
-22.8499
-22.675
-38.421
-37.5437
-35.0138
-30.5879
-34.7073
-34.6691
200.177
200.833
-33.6207
-41.7103
-32.2512
-15.6963
-31.4989
-31.4761
-24.2506
-24.5106
-38.4853
-40.6714
-42.0521
-34.9214
-50.5624
-51.3948
194.187
195.192
-43.8469
-34.0027
-50.8014
-40.1528
-36.1797
-35.989
-25.816
-25.9202
-38.2852
-37.4132
-34.3926
-30.1268
-41.6557
-33.6038
-15.6789
-32.2712
-40.6123
-38.4343
-34.8953
-42.0443
-34.3623
-32.3194
-38.2767
-36.2333
-33.6033
-32.477
-35.2802
-37.4269
-49.1206
-49.1286
-41.0196
-40.9783
-32.2393
-34.0711
-39.4836
-39.7785
-37.737
-37.7768
-37.8434
-37.6416
-36.5577
-39.1368
-101.942
-66.4232
-0.793872
-0.73258
-38.0954
-37.8794
-69.2822
-69.2781
-46.4384
-46.4332
-34.3276
-32.2997
-38.2423
-36.2074
-32.4393
-33.5124
-35.2409
-37.3884
-34.0486
-32.2201
-39.3027
-39.5513
-39.0952
-36.5337
-66.403
-101.928
-69.8308
-45.2128
-43.1908
-82.503
-37.8183
-34.764
-34.1211
-33.8798
-32.4297
-33.1701
-33.7907
-33.6583
-85.2002
-83.7317
-42.2393
-40.9817
-69.4072
-82.3122
-43.1521
-45.1906
-85.2098
-40.9478
-42.1889
-83.6826
-32.3877
-33.651
-33.7673
-33.1694
-37.9585
-33.8538
-34.0921
-34.7813
-54.4821
-78.3108
-52.1432
-51.7548
-54.3428
-51.6166
-52.0112
-78.3066
-48.8014
-52.4976
-42.6929
-33.1647
-48.9129
-33.1316
-42.7014
-52.5072
-57.1492
-32.4911
-31.7079
-43.0982
-8.89706
10.6856
-12.5057
-20.2876
-8.92352
-20.2936
-12.4792
10.7478
-57.0339
-43.1941
-31.7228
-32.4844
159.897
184.068
201.379
158.344
133.108
201.331
200.567
184.34
134.021
184.514
200.559
200.929
162.96
158.103
201.399
184.323
-34.4006
-33.9738
-35.1619
-34.8688
-29.9183
-31.6715
-33.0126
-32.0481
-38.0116
-39.0276
-35.0562
-33.9381
-38.9887
-36.1955
-37.391
-41.8412
-34.3633
-34.827
-35.1265
-33.9382
-38.9425
-41.7937
-37.3525
-36.1513
-37.9866
-33.9116
-35.0302
-38.9953
-29.8974
-32.0317
-32.9928
-31.6471
-39.203
-44.6307
-39.4354
-35.802
-39.1496
-35.7254
-39.4191
-44.6167
-35.0657
-39.3569
-37.203
-33.859
-35.1559
-33.8937
-37.2264
-39.4367
-38.032
-64.6382
-110.706
25.6778
-48.6637
-64.4865
-75.6011
-51.0264
-48.6286
-50.9912
-75.5967
-64.4838
-37.7243
25.5478
-110.752
-64.5653
-47.9399
-37.6924
-39.2181
-38.1203
-33.5673
-34.3133
-38.0165
-38.1507
-33.9976
-38.6621
-38.4351
-34.3078
-41.0555
-38.6253
-39.8105
-42.185
-47.8049
-38.0909
-39.1144
-37.533
-41.0189
-42.143
-39.7368
-38.6905
-33.959
-34.2391
-38.3746
-38.6307
-33.487
-38.1235
-37.9241
-34.2434
-47.5372
-40.9108
-34.8227
-34.9516
-47.4809
-34.4345
-34.6055
-40.6703
-33.718
-29.5351
-29.1838
-32.6703
-33.8521
-32.7493
-29.6797
-29.4598
-50.6015
-45.1215
-41.3901
-54.8178
-30.6359
-28.8562
-34.7604
-36.1467
-30.5274
-36.1115
-34.7479
-28.8165
-50.5806
-54.8147
-41.3859
-45.1126
-27.785
-23.1899
-23.1162
-27.3923
-27.6097
-27.25
-22.6733
-22.7683
-27.6393
-24.8917
-23.7007
-27.2377
-27.7888
-27.3835
-24.0177
-25.1045
7.73763
43.4902
-105.707
-33.1934
-30.0113
-33.088
65.8499
132.603
-73.4578
-34.2097
-30.0374
-32.7666
24.1982
-13.3694
-101.179
-29.7354
-32.9453
-32.9081
132.371
65.2891
-74.565
-29.8671
-34.1968
-32.7381
-36.002
-34.5392
-34.92
-38.2942
-51.8043
-27.0826
-24.6961
-17.1877
-33.2767
-33.8742
-37.2788
-30.5891
-41.8682
-40.061
-40.6125
-44.8243
-35.9587
-38.2736
-34.5006
-34.8716
-51.6853
-17.239
-27.0664
-24.6631
-33.2254
-30.5102
-33.8223
-37.254
-41.8494
-44.8014
-40.0341
-40.5856
48.5577
53.5621
-112.58
157.105
26.4312
26.0493
-67.3142
136.447
-40.5988
-36.3558
-37.7264
-40.0359
-32.9868
-32.7832
-34.9967
-28.0972
-23.8912
-23.7236
-25.8383
-21.9688
-38.7103
-36.8526
-37.1238
-34.1336
49.8236
50.077
-49.7578
137.229
-36.5619
-32.9451
-35.3124
-29.7997
-25.5052
-25.4146
-27.4342
-24.6712
-39.7119
-42.045
-41.2045
-41.6562
42.6181
52.5036
-112.266
157.38
-40.5692
-36.3406
-37.75
-40.0105
-32.7696
-32.5882
-34.9594
-27.9846
-38.5575
-36.639
-36.9504
-33.8558
-36.5365
-32.9536
-35.3023
-29.7889
-39.6844
-42.0176
-41.1379
-41.6222
-33.4538
-32.5316
-32.997
-33.2199
-34.2983
-34.33
-34.1641
-34.6866
-48.8674
-48.8616
-50.811
-47.5911
-34.3158
-34.9715
-33.2718
-36.6378
-39.9228
-39.8485
-39.814
-40.5185
-44.0674
-42.3857
-41.9329
-49.1776
24.0752
23.7739
17.6382
30.2871
-61.0591
-61.0578
-63.2325
-57.8537
-33.4113
-32.5083
-32.9684
-33.167
-34.2586
-34.2905
-34.1421
-34.6442
-34.2775
-34.9375
-33.2418
-36.6107
-44.0145
-42.3387
-41.8868
-49.1136
-39.5132
-37.6021
-37.3955
-36.0701
-39.4733
-37.5751
-37.3695
-36.0505
-46.0941
-43.9549
-43.9487
-43.328
-26.6895
-22.4539
-22.451
-17.2606
202.382
199.684
202.111
202.381
-34.6145
-35.6617
-34.6219
-35.6686
-34.5837
-35.6285
-34.5946
-35.636
-38.5437
-39.7475
-37.6889
-38.4559
-88.7827
-100.07
-82.3057
-88.7853
-38.5076
-40.1198
-40.0446
-40.4725
-38.4261
-40.0818
-39.9987
-40.3902
-29.9799
-31.9327
-31.4466
-33.5023
-36.3667
-37.8032
-37.7998
-39.2734
-22.1029
-21.1429
-21.9544
-21.8506
33.5125
48.2308
-100.469
148.807
29.8202
-27.9452
-18.5143
96.8282
-49.1726
-45.3714
-46.3968
-56.5219
-33.0204
-33.1369
-32.9477
-28.4688
-27.5714
-25.1501
-28.9951
-26.2052
-34.8298
-35.686
-35.7754
-34.7175
83.6235
54.0889
-105.646
143.844
70.9726
47.1293
-104.955
155.027
-56.9891
-43.2033
-48.0208
-39.7728
-34.076
-33.0342
-34.9625
-28.5395
-27.4747
-26.3605
-28.1578
-26.7199
-34.7475
-37.0386
-35.9466
-34.6451
25.4063
-26.8204
-18.4591
95.2763
15.8887
48.3175
-99.5024
148.363
-48.7631
-45.3088
-46.2367
-56.323
-27.2244
-24.792
-28.3274
-25.8602
-32.7282
-32.9271
-32.816
-28.2161
-34.8518
-35.7556
-35.8192
-35.6222
71.5176
41.3936
-105.343
153.041
82.6656
54.248
-106.035
143.861
-56.9981
-43.1879
-47.9968
-39.7555
-27.3176
-26.1949
-28.0357
-26.5423
-33.9799
-32.7713
-34.915
-28.4105
-34.6679
-36.9876
-35.8874
-34.578
-42.4828
-32.5122
-32.5415
-24.8554
-34.4657
-33.9421
-34.1586
-34.8085
-34.5876
-34.4055
-34.8215
-34.4393
-45.9822
-47.7618
-49.0996
-45.1616
-41.2481
-37.3301
-38.2263
-37.5572
-30.2132
-31.4533
-31.1585
-31.4856
-29.0829
-32.903
-30.7995
-38.6461
-41.1823
-40.1677
-39.5901
-41.6962
-27.7689
-28.6642
-29.0479
-19.0287
-34.5842
-34.6627
-33.9663
-35.9736
-43.8264
-45.3258
-43.8476
-56.8483
4.51895
18.4072
8.88015
18.2729
-42.926
-43.1938
-42.7698
-47.2935
-38.2936
-35.9821
-36.4295
-37.8713
-39.9739
-40.0598
-37.9875
-43.1322
-56.1843
-60.2946
-59.5356
-57.9297
-42.5141
-32.4841
-32.4896
-24.9199
-45.9591
-47.7455
-49.0826
-45.1379
-34.4174
-33.8952
-34.1153
-34.7451
-34.5402
-34.3616
-34.7771
-34.3966
-41.1681
-37.0103
-38.05
-37.2462
-40.9505
-39.959
-39.4224
-41.3616
-30.1999
-31.4451
-31.1498
-31.4956
-29.0418
-32.8608
-30.7698
-38.5921
-27.7554
-28.6785
-29.0532
-19.1161
3.11823
19.1972
8.68289
16.5623
-34.5414
-34.6202
-33.9352
-35.9278
-43.766
-45.3308
-43.7999
-56.8178
-42.8976
-43.1684
-42.732
-47.2497
-56.1698
-60.2885
-59.5283
-57.9306
-38.2638
-35.9523
-36.4007
-37.8464
-39.9498
-40.0149
-37.9532
-43.0833
-61.3597
-45.8815
-50.8313
-51.1951
195.237
199.821
195.729
195.249
-92.9831
-61.7655
-73.5194
-73.5076
151.439
200.222
204.467
204.484
-37.5418
-37.509
-39.639
-36.0944
-40.3883
-42.4455
-43.6702
-40.2304
-35.1157
-37.2859
-36.1058
-36.1823
-26.8374
-24.9975
-26.1172
-26.1227
-31.1013
-30.0022
-30.8329
-30.8105
-21.0118
-20.9137
-20.8404
-20.4825
-39.0368
-40.1855
-39.423
-39.2582
-33.7471
-32.3086
-34.2045
-31.0356
-35.2399
-32.9549
-34.401
-34.3999
196.124
206.174
202.339
202.323
-36.3799
-37.3234
-35.592
-38.8594
-25.7318
-23.4422
-28.5241
-20.2115
-30.1213
-33.1769
-31.4903
-31.4797
-23.5972
-22.7939
-23.4595
-23.6278
-40.914
-40.2807
-39.7973
-40.5675
-38.5786
-37.9363
-39.949
-36.4394
-61.2559
-45.8276
-50.756
-51.1328
195.299
199.858
195.364
195.799
-37.5314
-37.4854
-39.6076
-36.0813
-40.3442
-42.426
-43.6342
-40.2147
-35.0614
-37.2438
-36.1341
-36.0699
-26.6457
-24.6395
-25.8379
-25.86
-38.9762
-40.1721
-39.3175
-39.1716
-32.8378
-31.7272
-32.7973
-31.6914
-36.365
-37.3015
-38.8318
-35.5728
-25.729
-23.4394
-20.2022
-28.5341
-40.8638
-40.2344
-40.5039
-39.7642
-38.5623
-37.9245
-36.4197
-39.9368
-33.2885
-33.7619
-33.9892
-32.9538
-36.3546
-37.719
-38.2527
-36.2836
-33.7399
-33.0126
-33.323
-32.7672
-35.8949
-36.2302
-35.6976
-36.7891
-53.2131
-45.6246
-49.5352
-49.5393
-42.7274
-40.4015
-41.3134
-41.3057
-32.7974
-33.3581
-32.6527
-33.5501
-38.874
-39.8494
-39.4978
-39.6042
-38.6135
-37.6796
-37.9609
-37.9827
-38.9606
-36.0359
-37.7316
-37.6659
-39.0722
-37.0383
-37.3583
-38.624
-67.0399
-84.2789
-86.3548
-70.447
6.6761
-5.07372
0.364572
0.395619
2.43798
-100.046
-40.1293
-40.0256
-68.4064
-74.1837
-70.6318
-70.6303
-49.6713
-43.4781
-46.4254
-46.413
-33.2622
-33.7335
-33.9574
-32.9311
-36.321
-37.7423
-38.2205
-36.2563
-33.743
-32.9905
-32.7155
-33.244
-35.8553
-36.1921
-35.6588
-36.7505
-32.7746
-33.3367
-33.5283
-32.632
-38.7191
-39.7652
-39.345
-39.4204
-39.0346
-37.0043
-38.5841
-37.327
-67.0137
-84.2643
-70.4183
-86.3327
-55.9757
-47.3689
-50.321
-45.7058
-33.2787
-35.9131
-33.1817
-33.71
-31.2183
-32.6232
-31.9033
-32.1855
-62.3535
-50.2196
-51.4765
-45.562
-55.8093
-47.2253
-50.2382
-45.6662
-62.3045
-50.183
-51.4285
-45.5306
-31.2063
-32.5903
-31.9045
-32.1614
-32.9663
-35.9693
-33.1031
-33.4582
-93.0451
-73.818
-75.0213
-61.1583
-92.9572
-73.7034
-74.9731
-61.102
-43.7357
-50.9527
-42.2679
-48.3026
-43.7554
-50.9692
-42.2755
-48.3134
-41.2918
-37.8036
-35.2777
-35.4988
-8.9681
-0.75868
-10.6226
-2.84311
-8.97141
-0.795744
-10.5923
-2.7637
-41.2699
-37.8119
-35.1895
-35.5126
193.709
190.833
194.681
199.016
190.656
193.339
192.679
198.015
193.358
190.694
197.273
192.844
190.386
193.806
199.035
194.632
-34.4242
-34.6165
-34.554
-34.9049
-31.3027
-31.1804
-31.8943
-31.8788
-35.4201
-36.2771
-34.694
-35.668
-38.6285
-40.2509
-38.2778
-39.3103
-34.3895
-34.576
-34.5171
-34.8653
-38.5875
-40.2107
-38.239
-39.2699
-35.3938
-36.2465
-34.6687
-35.6413
-31.288
-31.1614
-31.8791
-31.8609
-38.5526
-40.8394
-38.8151
-40.4322
-40.8013
-38.484
-40.4071
-38.7801
-37.4974
-35.8391
-37.3443
-36.3546
-35.8554
-37.5759
-36.3862
-37.3947
-52.6075
-0.1289
-81.3594
-29.8632
-56.0912
-61.2501
-64.5123
-66.6955
-61.2404
-56.0671
-66.6877
-64.4879
-0.0588033
-52.8157
-29.6922
-81.2045
-38.8378
-39.9483
-38.5072
-39.395
-35.0701
-35.9706
-35.9604
-36.8155
-35.3149
-36.0142
-36.1549
-37.1701
-41.12
-39.3734
-40.969
-40.037
-38.6665
-39.7671
-38.3609
-39.2089
-41.0476
-39.1718
-40.941
-39.8042
-35.2572
-35.9565
-36.102
-37.1195
-35.0337
-35.9722
-35.9398
-36.8084
-38.145
-39.8659
-36.4833
-37.9964
-37.7406
-38.7086
-35.3993
-37.6642
-33.284
-33.0096
-31.5334
-33.8795
-32.1215
-32.2775
-31.4465
-31.3639
-49.5765
-51.7392
-44.5324
-46.9088
-30.4938
-32.2222
-31.5649
-33.3122
-30.4291
-32.1649
-31.5282
-33.2767
-49.5973
-51.7332
-44.5134
-46.9087
-26.7752
-25.8131
-25.9936
-24.4134
-25.4333
-26.579
-23.9381
-25.6868
-26.2402
-26.7739
-25.2149
-25.9927
-26.9468
-26.4465
-26.2307
-25.4835
-100.784
135.397
-34.1951
121.026
-67.7695
-57.6692
-33.115
-29.0377
-31.4401
-28.077
-33.8826
-34.8199
-93.099
127.372
-88.0411
94.2226
-75.205
-64.3345
-34.1308
-29.1465
-30.1225
-27.9739
-33.8328
-32.6316
-34.0812
120.082
-98.9184
149.67
-67.1224
-56.9125
-30.9811
-27.8381
-32.952
-28.8677
-33.8039
-34.7139
-88.8376
94.8216
-93.2565
127.072
-75.2522
-64.3143
-29.9669
-27.8195
-34.1519
-28.8972
-33.7729
-32.5248
-38.7996
-46.2752
-34.4012
-36.087
-35.1124
-34.4426
-43.78
-41.2956
-48.9874
-50.9284
-29.3999
-30.0892
-29.1483
-44.6074
-36.1595
-55.6228
-31.3781
-20.0408
-33.5499
-36.5194
-39.9347
-52.0414
-7.85042
-16.5656
-41.6485
-45.973
-38.6587
-40.257
-39.0621
-43.6509
-48.8963
-48.8593
-38.9235
-46.2458
-43.8187
-41.285
-34.3646
-36.044
-35.0613
-34.4015
-48.85
-50.7402
-36.0693
-55.2526
-29.3816
-30.056
-29.1231
-44.5056
-31.3209
-19.9538
-7.93189
-16.1123
-33.5165
-36.4574
-39.873
-51.8798
-41.6179
-45.9549
-48.8694
-48.8297
-38.6303
-40.2322
-39.0389
-43.6028
-102.976
154.804
-99.9957
150.897
-80.633
-82.0533
183.482
183.632
-41.6952
114.358
-41.8343
113.853
-98.0377
-98.0396
150.931
150.876
-45.7555
-52.1672
-33.6755
-33.8605
-39.9077
-36.0085
-43.7881
-38.4481
-33.4852
-28.2877
-35.3519
-28.2131
-34.5942
-34.3505
-27.3781
-27.3642
-26.7824
-23.8421
-26.3562
-23.5017
-29.1052
-29.0676
-22.0266
-21.753
-37.9691
-34.852
-37.5883
-34.7862
-37.8286
-39.6789
-34.5987
-32.7887
-70.517
138.538
-70.3293
138.671
-38.806
-38.8386
200.798
201.936
-39.3677
-33.9234
-32.2199
-25.584
-34.7921
-38.2594
-30.2424
-24.003
-27.4509
-25.4765
-27.4039
-25.2968
-28.8563
-28.8347
-24.3994
-24.5316
-38.5299
-37.7166
-42.5174
-44.8542
-40.3478
-41.5207
-42.7358
-38.3718
-102.646
154.746
-100.325
151.028
-80.5244
-82.0256
183.928
183.814
-45.7096
-51.9883
-33.6465
-33.8426
-39.9029
-35.9981
-43.7014
-38.3946
-33.4042
-28.1376
-35.2172
-28.0668
-34.2826
-34.5241
-27.2298
-27.2178
-37.9663
-34.9274
-37.4065
-34.3323
-37.682
-39.6128
-33.738
-31.8366
-39.3527
-33.9087
-32.2258
-25.5997
-38.2209
-34.7836
-23.9973
-30.2435
-38.5052
-37.6803
-42.4825
-44.8369
-41.4772
-40.3099
-38.3491
-42.7914
-33.8
-34.0754
-31.9694
-32.3455
-33.6002
-32.6459
-36.2146
-34.0165
-34.4514
-34.4901
-34.0902
-35.2426
-34.4949
-33.8609
-35.0704
-35.7551
-50.3927
-47.155
-50.3822
-47.142
-52.7621
-52.767
-44.9647
-44.9578
-32.2753
-36.481
-34.5235
-36.9817
-32.0784
-33.2108
-38.3814
-38.661
-39.8167
-40.772
-39.708
-40.5744
-39.45
-39.4923
-40.6767
-40.575
-43.7108
-53.1483
-40.2198
-45.8149
-39.9745
-41.1504
-59.8697
-53.3376
15.8292
27.9623
16.0089
28.4896
12.024
12.0337
26.2222
26.2126
-62.6421
-57.964
-62.6396
-57.9601
-65.3792
-65.3779
-54.1014
-54.1068
-33.7626
-34.0184
-31.9555
-32.3247
-33.5671
-32.6247
-36.1061
-33.9295
-34.4134
-34.4479
-34.0626
-35.1969
-33.8604
-34.5083
-35.0287
-35.7125
-32.2446
-36.4396
-34.4943
-36.9563
-33.1851
-32.0539
-38.3431
-38.6666
-43.6547
-53.0819
-40.1829
-45.766
-41.104
-39.9374
-53.2992
-59.8203
-42.8888
-42.4483
-39.532
-36.2026
-35.8702
-39.2675
-34.0489
-33.8114
-42.8484
-42.4045
-39.4903
-36.184
-39.2341
-35.8487
-33.7847
-34.0203
-52.4131
-52.4046
-45.1912
-42.4732
-45.1725
-42.4625
-43.3118
-43.316
-30.7744
-30.7777
-27.1857
-18.2529
-18.239
-27.1891
-11.5695
-11.5553
201.62
201.38
202.936
202.927
202.275
202.292