# vtk DataFile Version 2.0
tri_press
ASCII
DATASET UNSTRUCTURED_GRID
POINTS 3682 float
-0.584487 0.315 -1.765
-0.6865 0.215 1.955
-0.697041 0.615 -1.715
-0.725 0.585 1.9934
0.584487 0.315 -1.765
0.6865 0.215 1.955
0.697041 0.615 -1.715
0.725 0.585 1.9934
-0.723169 0.176989 -0.525
-0.722901 0.177928 0.715
-0.779714 0.678353 -0.478867
-0.821756 0.701076 0.757267
0.723174 0.176984 -0.525
0.72294 0.177889 0.715
0.779717 0.678357 -0.478867
0.821745 0.701065 0.757267
-1.31696 0.0956971 -2.77826
-1.32817 0.0667604 -1.7878
-1.43201 -0.0339392 -0.547703
-1.46364 -0.0573278 0.693175
-1.43532 -0.0394572 1.93334
-1.42847 -0.0491577 2.92411
-1.43263 -0.0727077 3.91429
-1.31568 0.303187 -2.75465
-1.32638 0.296134 -1.76462
-1.45541 0.202423 -0.525268
-1.47845 0.179257 0.714427
-1.42754 0.179677 1.95385
-1.42303 0.167638 2.94457
-1.43112 0.145651 3.93487
-1.36413 0.672506 -2.70634
-1.40612 0.66498 -1.71615
-1.51225 0.683661 -0.479439
-1.55167 0.679289 0.756998
-1.47239 0.599608 1.99378
-1.44942 0.586192 2.98466
-1.4481 0.576652 3.97559
-1.42573 1.31354 -2.63679
-1.45494 1.32276 -1.64718
-1.50317 1.36397 -0.411722
-1.53824 1.37594 0.822903
-1.53298 1.32878 2.0584
-1.51192 1.28922 3.0481
-1.49524 1.26375 4.0386
-0.620342 0.104507 -2.7785
-0.610012 0.0780199 -1.78817
-0.700982 -0.0477261 -0.547655
-0.728225 -0.0583006 0.693664
-0.710417 -0.019047 1.93419
-0.702303 -0.035828 2.92469
-0.703807 -0.06631 3.91463
-0.615352 0.306801 -2.75472
-0.692436 0.179869 2.94505
-0.700212 0.150669 3.93512
-0.653766 0.654077 -2.70586
-0.710806 0.58317 2.98458
-0.712024 0.575729 3.97557
-0.69862 1.30053 -2.63632
-0.716312 1.31025 -1.64666
-0.748979 1.36243 -0.411408
-0.781628 1.38166 0.822865
-0.785628 1.32899 2.05813
-0.768462 1.28656 3.04783
-0.753948 1.26134 4.03841
0.690821 0.104505 -2.7785
0.668562 0.0780181 -1.78817
0.726515 -0.0477341 -0.547655
0.718548 -0.0583283 0.693664
0.698237 -0.0190578 1.93419
0.722613 -0.0358368 2.92469
0.739729 -0.0663198 3.91463
0.680933 0.3068 -2.75472
0.728107 0.179863 2.94504
0.743953 0.15066 3.93512
0.71255 0.654077 -2.70586
0.73913 0.583165 2.98459
0.745746 0.575721 3.97557
0.742538 1.30053 -2.63632
0.750383 1.31025 -1.64666
0.762769 1.36243 -0.411408
0.751596 1.38165 0.822865
0.726058 1.32898 2.05813
0.723959 1.28655 3.04783
0.728599 1.26133 4.0384
1.36853 0.0956923 -2.77826
1.35384 0.066755 -1.7878
1.43801 -0.033956 -0.547703
1.4568 -0.0573691 0.693175
1.43224 -0.039485 1.93334
1.4462 -0.0491789 2.92411
1.46404 -0.0727287 3.91429
1.35527 0.303184 -2.75464
1.31834 0.296132 -1.76462
1.44486 0.202411 -0.525268
1.47631 0.179213 0.714427
1.43307 0.179654 1.95385
1.4501 0.16762 2.94457
1.46805 0.145632 3.93487
1.39614 0.672504 -2.70634
1.39388 0.66498 -1.71615
1.50024 0.683657 -0.479439
1.54789 0.679264 0.756998
1.47336 0.59959 1.99378
1.4683 0.586177 2.98466
1.47508 0.576634 3.97559
1.46004 1.31354 -2.63679
1.4766 1.32275 -1.64718
1.50663 1.36396 -0.411722
1.50945 1.37593 0.822903
1.48278 1.32876 2.0584
1.47177 1.2892 3.0481
1.47022 1.26373 4.0386
-0.68435 0.465 -1.78359
0 0.264167 -1.81583
-0.701118 0.198704 -1.145
-0.675718 0.4 1.94417
0 0.210796 1.9592
-0.726671 0.174493 1.335
0 0.647456 -1.74746
-0.805925 0.714224 -1.09693
0 0.554786 1.96319
-0.835295 0.704954 1.37533
0.684442 0.465 -1.78368
0.701057 0.198766 -1.145
0.675556 0.4 1.94401
0.727022 0.174142 1.335
0.805948 0.714247 -1.09693
0.835297 0.704957 1.37533
-0.721651 0.178842 0.095
-0.850381 0.427671 -0.501933
2.12315e-06 0.189362 -0.525
-0.85971 0.439502 0.736133
1.96931e-05 0.183537 0.715
-0.795215 0.684195 0.1392
1.77017e-06 0.941278 -0.478867
-5.65821e-06 1.07879 0.757267
0.721684 0.178809 0.095
0.850355 0.427671 -0.501933
0.859713 0.439477 0.736133
0.795203 0.684183 0.1392
-0.863009 0.446335 -1.12097
0.863008 0.446335 -1.12097
1.06157e-06 0.221073 -1.145
8.85084e-07 0.762296 -1.09693
0 0.465 -2.00525
-0.85411 0.433586 0.1171
0.854091 0.433574 0.1171
1.09081e-05 0.184062 0.095
-1.94402e-06 1.12439 0.1392
-0.894386 0.419751 1.35517
0.89439 0.419738 1.35517
9.84656e-06 0.176676 1.335
-2.82911e-06 0.878849 1.37533
0 0.4 1.95453
-0.629111 0.39 -1.76899
-0.292244 0.268446 -1.81155
-0.691385 0.20827 -1.455
-0.663248 0.3075 1.93172
-0.34325 0.211005 1.95899
-0.727463 0.173869 1.645
-0.682961 0.54 -1.74156
-0.34852 0.632747 -1.73275
-0.777454 0.690583 -1.40597
-0.68662 0.4925 1.95505
-0.3625 0.554979 1.96338
-0.791219 0.656049 1.68437
0.292244 0.26835 -1.81165
0.629096 0.39 -1.76897
0.691378 0.208277 -1.455
0.34325 0.211005 1.95899
0.663219 0.3075 1.93169
0.727463 0.17387 1.645
0.34852 0.632735 -1.73274
0.683035 0.54 -1.74163
0.777513 0.690642 -1.40597
0.3625 0.55498 1.96338
0.686566 0.4925 1.95499
0.791221 0.656051 1.68437
-0.710678 0.189312 -0.835
-0.720746 0.17958 -0.215
-0.802375 0.29453 -0.513467
-0.365413 0.175516 -0.525
-0.75184 0.149157 1.025
-0.721585 0.179077 0.405
-0.809784 0.299476 0.725567
-0.370351 0.162913 0.715
-0.794453 0.697923 -0.7879
-0.822622 0.5568 -0.4904
-0.787041 0.68085 -0.169833
-0.422266 0.874635 -0.478867
-0.836423 0.710913 1.0663
-0.856948 0.578396 0.7467
-0.805964 0.690114 0.448233
-0.471771 1.01171 0.757267
0.711014 0.188976 -0.835
0.365341 0.175667 -0.525
0.720765 0.179561 -0.215
0.802375 0.294522 -0.513467
0.753056 0.147941 1.025
0.370384 0.162905 0.715
0.721631 0.179031 0.405
0.809784 0.299454 0.725567
0.794464 0.697933 -0.7879
0.422268 0.874635 -0.478867
0.822616 0.556803 -0.4904
0.78703 0.680839 -0.169833
0.83642 0.71091 1.0663
0.471774 1.01174 0.757267
0.856945 0.578378 0.7467
0.805956 0.690105 0.448233
-0.810063 0.455668 -1.45228
-0.342175 0.465 -1.96896
5.30787e-07 0.235966 -1.48042
0 0.364583 -1.90783
-0.829763 0.32252 -1.13298
-0.350559 0.198082 -1.145
-0.829443 0.409875 1.64967
-0.337859 0.4 1.94984
4.92328e-06 0.16802 1.6471
0 0.305398 1.93205
-0.889865 0.297122 1.34508
-0.363331 0.127653 1.335
4.42542e-07 0.729774 -1.42219
0 0.556228 -1.95487
-0.875652 0.58028 -1.10895
-0.402962 0.751086 -1.09693
-1.41455e-06 0.791027 1.66926
0 0.477393 1.9744
-0.895241 0.562353 1.36525
-0.417649 0.872532 1.37533
0.81005 0.455668 -1.45232
0.342221 0.465 -1.96895
0.829813 0.322551 -1.13298
0.350529 0.197448 -1.145
0.828662 0.409869 1.64959
0.337778 0.4 1.94984
0.889869 0.29694 1.34508
0.363516 0.127662 1.335
0.875652 0.580291 -1.10895
0.402974 0.751019 -1.09693
0.895241 0.562348 1.36525
0.417647 0.872506 1.37533
-0.803118 0.298596 0.10605
-0.369459 0.164174 0.095
-0.857064 0.437003 -0.81145
-0.851876 0.430629 -0.192417
1.59236e-06 0.210398 -0.835
6.51564e-06 0.186657 -0.215
-0.858009 0.436544 0.426617
-0.885396 0.429626 1.04565
1.53006e-05 0.181796 0.405
1.47698e-05 0.169798 1.025
-0.835872 0.564495 0.12815
-0.478587 1.06625 0.1392
1.32763e-06 0.786098 -0.7879
-8.69279e-08 1.09505 -0.169833
-3.80112e-06 1.12518 0.448233
-4.24366e-06 0.986057 1.0663
0.803105 0.298583 0.10605
0.369502 0.164127 0.095
0.857089 0.437003 -0.81145
0.851862 0.430622 -0.192417
0.858015 0.436525 0.426617
0.885414 0.429607 1.04565
0.835874 0.564492 0.12815
0.478584 1.06625 0.1392
-0.781095 0.35626 -1.45364
-0.832949 0.312425 -0.823225
-0.846679 0.566646 -0.799675
-0.814957 0.56014 -1.42912
0.781065 0.356275 -1.45366
0.814984 0.560146 -1.42914
0.846616 0.566652 -0.799675
0.833187 0.312439 -0.823225
-0.321401 0.221743 -1.46771
0.321386 0.221909 -1.46771
0.356058 0.178032 -0.835
-0.356071 0.177964 -0.835
-0.375741 0.714075 -1.41408
-0.396409 0.760906 -0.7879
0.396417 0.759992 -0.7879
0.375747 0.714073 -1.41408
-0.317209 0.377292 -1.89559
-0.345348 0.548114 -1.93067
0.345371 0.548114 -1.93053
0.317232 0.377292 -1.89554
-0.802219 0.296827 -0.203708
-0.806228 0.299147 0.415808
-0.844958 0.57072 0.437425
-0.828891 0.560469 -0.181125
0.8022 0.296822 -0.203708
0.828903 0.560477 -0.181125
0.844962 0.570711 0.437425
0.806215 0.299133 0.415808
-0.369979 0.164759 -0.215
0.369999 0.164743 -0.215
0.369944 0.163513 0.405
-0.369905 0.163543 0.405
-0.46678 1.00315 -0.169833
-0.483696 1.05601 0.448233
0.483697 1.05603 0.448233
0.466765 1.00312 -0.169833
-0.872723 0.302919 1.03533
-0.790772 0.302311 1.64733
-0.835775 0.527426 1.66702
-0.876805 0.566321 1.05598
0.872731 0.302812 1.03533
0.876769 0.566309 1.05598
0.835768 0.527424 1.66698
0.790454 0.30222 1.64729
-0.362386 0.127839 1.025
0.362498 0.127844 1.025
0.353383 0.133904 1.64605
-0.35329 0.133895 1.64605
-0.414265 0.956872 1.0663
-0.390074 0.77704 1.67681
0.390074 0.777085 1.67681
0.414258 0.956865 1.0663
-0.340554 0.306449 1.93198
0.340514 0.306449 1.93198
0.350139 0.484947 1.96615
-0.350179 0.484947 1.96615
-0.60874 0.3525 -1.76893
-0.438365 0.278152 -1.80185
-0.642981 0.25659 -1.61
-0.668912 0.26125 1.9374
-0.514875 0.211125 1.95888
-0.695451 0.205966 1.8
-0.689853 0.5775 -1.72813
-0.522781 0.626818 -1.72682
-0.747123 0.662667 -1.56048
-0.692741 0.53875 1.96115
-0.54375 0.555008 1.96341
-0.763034 0.625448 1.83888
0.438365 0.278012 -1.80199
0.608717 0.3525 -1.76891
0.642999 0.256572 -1.61
0.514875 0.211125 1.95888
0.658374 0.26125 1.92686
0.69544 0.205976 1.8
0.522781 0.626749 -1.72675
0.690044 0.5775 -1.72832
0.7472 0.662744 -1.56048
0.54375 0.555009 1.96341
0.692682 0.53875 1.96109
0.763038 0.625453 1.83888
-0.729151 0.170923 -0.68
-0.721276 0.178966 -0.37
-0.773647 0.230322 -0.519233
-0.553511 0.157813 -0.525
-0.727389 0.173524 0.87
-0.721488 0.179257 0.56
-0.77591 0.233918 0.720283
-0.55306 0.157551 0.715
-0.786074 0.687128 -0.633383
-0.802233 0.618109 -0.484633
-0.783399 0.679624 -0.32435
-0.610882 0.796279 -0.478867
-0.829975 0.70688 0.911783
-0.844416 0.642268 0.751983
-0.811039 0.692774 0.60275
-0.640156 0.843179 0.757267
0.729146 0.170929 -0.68
0.553513 0.157814 -0.525
0.721289 0.178953 -0.37
0.773613 0.230334 -0.519233
0.730844 0.170069 0.87
0.553082 0.157557 0.715
0.72154 0.179205 0.56
0.775904 0.233901 0.720283
0.786064 0.687118 -0.633383
0.610862 0.796233 -0.478867
0.802229 0.618111 -0.484633
0.7834 0.679625 -0.32435
0.829969 0.706874 0.911783
0.640126 0.843134 0.757267
0.844405 0.642252 0.751983
0.811371 0.693105 0.60275
-0.647396 0.4275 -1.76695
-0.674204 0.5025 -1.75312
-0.74897 0.460334 -1.61793
[...]
POINT_DATA 3682
SCALARS point_scalars float 1
LOOKUP_TABLE default
18.3336
-34.8214
25.2557
-32.6706
17.9424
-34.5899
25.3348
-32.5765
-35.0362
-21.1847
-30.9041
-39.4708
-35.103
-21.108
-30.8963
-39.4995
88.6782
-30.4319
-40.4507
-17.8645
-58.0447
-34.7672
-34.7672
106.296
-27.3264
-31.7343
-26.2488
-36.5906
-34.7672
-34.7672
81.1391
-35.081
-29.3092
-31.1401
-36.9407
-32.4051
-32.4051
25.5567
-44.9021
-34.249
-39.7566
-37.2321
-32.4051
-32.4051
168.844
-56.1843
-37.6515
-22.8257
-35.963
-34.7672
-34.7672
193.133
-34.7672
-34.7672
153.375
-32.4051
-32.4051
80.1436
-42.8303
-48.1528
-55.8544
-33.2441
-32.4051
-32.4051
153.56
-47.3714
-37.7946
-22.7445
-35.8153
-34.5272
-34.5272
188.136
-34.5272
-34.5272
156.616
-32.3077
-32.3077
85.698
-44.4502
-51.5415
-55.8353
-32.8358
-32.3077
-32.3077
89.0699
-30.723
-45.8416
-19.0606
-57.8912
-34.5272
-34.5272
87.3486
-28.486
-31.8812
-27.1003
-36.4843
-34.5272
-34.5272
80.9952
-34.7109
-29.3297
-31.1489
-36.8497
-32.3077
-32.3077
25.7144
-45.2165
-34.1848
-39.7635
-36.8328
-32.3077
-32.3077
47.6654
-104.013
-49.516
-31.8902
-25.7123
-44.2737
-3.979
-51.4008
-25.3079
-49.7608
47.7527
-48.9424
-31.7932
-43.9987
-51.3606
-49.6879
-27.9026
-30.502
-35.0236
-27.2516
-28.1733
-38.9753
17.8082
-58.7151
-27.9025
-30.5894
-27.2928
-38.9722
-58.4972
-58.4615
-46.5298
-17.4417
205.139
-29.4441
-29.4544
-30.4382
-85.0415
-49.0289
-48.9321
-33.1776
-37.0154
-22.4168
37.8179
-63.6726
-57.5947
-32.8188
-30.192
-46.9624
33.972
-1.7373
-45.7965
-31.9723
-29.003
-40.2064
-63.0025
37.8503
-53.4675
-30.0105
-32.7134
-47.2359
-1.65142
34.1289
-45.7863
-28.8723
-31.8813
-40.1317
-36.1387
-29.7681
-31.7717
-35.5535
-40.1989
-25.9827
-20.7819
-25.7519
-35.2954
-28.7443
-37.1623
-3.132
-42.5919
-31.267
-39.41
-56.0029
-36.2055
-35.539
-29.7508
-31.8283
-40.7494
-25.7343
-25.9806
-20.8664
-35.2927
-3.13977
-28.7631
-37.1681
-42.5719
-55.9904
-31.2784
-39.4322
-39.8391
191.656
-61.3444
105.234
-56.0711
-45.932
-43.9962
-27.9092
-33.0634
-23.367
-46.9898
-36.4128
-38.5673
58.1304
-59.0247
-27.7202
-31.8768
-22.5267
-51.3756
-39.1254
-40.1414
191.119
-56.0666
-45.9611
-43.8273
-27.7067
-46.8426
-36.2641
-59.0375
-27.7034
-51.2591
-39.1178
-27.9046
-29.6261
-42.7318
-29.9752
-39.0609
-33.6492
-28.5896
-34.938
-28.2572
-32.3971
-32.8192
-74.0063
11.4686
-76.6303
-75.311
-44.918
-27.9093
-29.6127
-42.5371
-29.9805
-28.6013
-34.8959
-32.8302
-73.9984
-33.5158
-42.3652
-40.5491
-42.7847
-34.7476
-42.651
-40.5415
-41.9315
-60.6482
-60.5949
-39.3326
-39.3374
-38.9145
-7.43567
-7.41613
-38.9296
122.514
78.6376
78.393
121.847
-29.2986
-26.394
-32.4213
-31.9391
-29.2726
-31.9566
-32.4329
-26.398
-32.9147
-32.9031
-27.422
-27.4407
-55.4237
-65.7321
-65.7151
-55.3046
-34.8886
-44.4676
-41.5122
-35.0252
-34.8067
-34.9737
-41.4016
-44.4209
-34.9815
-34.8748
-37.9204
-37.8951
-46.5418
-33.0966
-33.1326
-46.5363
-28.3392
-28.1749
-27.9471
-28.1426
34.2329
-31.236
-36.5337
-33.617
-32.5898
-36.6938
32.1872
13.2973
-21.0825
-32.3369
-30.4179
-35.8729
-28.8616
34.1666
-36.3916
-32.4578
-33.3044
-36.5942
13.2408
31.7509
-21.1909
-30.337
-32.2395
-35.7829
-39.1279
-31.9739
-32.9864
-36.3429
-19.7576
-23.5602
-19.2896
-24.2183
-32.8025
-29.4331
-34.8422
-28.6811
-40.4015
-33.6453
-39.4386
-51.0471
-38.9235
-36.3161
-31.9876
-32.8955
-20.1904
-24.1771
-23.5354
-19.2224
-32.7927
-28.6957
-29.4423
-34.8336
-40.4148
-51.02
-33.6612
-39.3864
34.1643
38.9256
-22.5651
134.552
-118.264
-118.224
-82.1183
62.5427
-67.4803
-41.0341
-54.4497
-45.9605
-32.218
-31.7935
-37.2135
-29.915
-27.2192
-27.0615
-31.1772
-23.545
-42.963
-41.4828
-44.6414
-38.6541
-4.90039
-4.87383
-31.2524
8.88979
-47.3671
-43.6186
-55.6191
-36.8861
-26.7408
-26.5832
-30.4634
-23.6075
-45.7066
-47.1203
-51.9434
-43.0268
34.2992
38.9682
-22.6675
134.478
-69.3105
-41.2632
-54.44
-45.9752
-32.1197
-31.7015
-37.1184
-29.7997
-43.1419
-39.1241
-44.3144
-38.3603
-46.8705
-43.5498
-55.5801
-36.8842
-45.6533
-47.1022
-51.858
-42.9881
-28.8684
-26.8284
-27.6569
-28.8019
-31.2654
-29.4041
-33.9873
-29.7843
-34.842
-34.8558
-35.3242
-35.5824
-24.0178
-29.5561
-27.9138
-28.702
-27.9391
-27.9394
-27.9576
-26.1092
-38.4884
-39.6206
-34.7775
-52.1496
14.0959
14.0202
22.3208
-9.11595
-57.9816
-57.9759
-67.0526
-51.1602
-28.8823
-26.8489
-27.6337
-28.7871
-31.3785
-29.4358
-34.0668
-29.796
-24.0897
-29.5745
-27.9307
-28.7134
-38.4922
-39.6198
-34.7862
-52.1637
-70.776
-57.7634
-58.9808
-47.2512
-70.9576
-57.8068
-58.9732
-47.3147
-53.3264
-46.6424
-46.6543
-42.0067
-28.7804
-21.824
-21.8138
-2.13804
202.311
139.561
181.539
202.382
-28.4553
-29.9388
-29.116
-30.9951
-28.4588
-29.9464
-29.126
-31.0059
-30.2833
-31.8588
-29.2209
-30.2706
-83.8951
-98.6311
-80.8563
-83.9127
-54.9271
-48.3697
-49.2965
-43.8678
-54.9974
-48.2635
-49.1942
-43.7778
-33.6836
-34.2731
-34.218
-33.4269
-34.7496
-37.4827
-37.4732
-40.6837
-24.5055
-23.0317
-21.945
-24.2775
-19.8705
100.539
-78.0774
69.7327
-25.4836
-63.5595
-37.1038
-30.2508
-34.4133
-28.4792
-47.5795
-41.7725
-27.5513
93.1872
-24.9546
16.941
-44.9442
-48.9868
-37.0619
-29.9487
-31.0837
-28.4555
-40.6989
-35.5753
-78.3017
69.6736
-20.0861
100.596
-25.3398
-63.6016
-34.2958
-28.3001
-37.0218
-30.1647
-47.4488
-41.5443
-24.944
15.7402
-27.6526
93.0921
-44.8511
-48.9678
-31.0305
-28.2904
-36.9705
-29.8518
-40.6173
-35.5168
-40.6908
-37.7038
-29.7307
-31.633
-39.6266
-30.0962
-36.6277
-34.2479
-36.689
-38.1105
-25.9594
-26.5494
-24.4022
-23.2132
-26.6147
-23.9337
-38.7331
-21.1111
-32.6511
-30.4451
-33.9844
-53.5095
-1.91687
-20.8685
-38.1024
-47.9208
-31.7973
-32.7091
-34.616
-52.4683
-60.7752
-51.8535
-40.3614
-37.6608
-36.575
-34.2446
-29.6554
-31.6156
-40.4709
-30.0585
-35.5695
-38.152
-26.5656
-24.179
-25.9263
-26.5269
-24.4139
-23.4057
-38.7269
-21.0611
-2.05364
-20.8584
-32.6612
-30.4437
-33.9964
-53.4799
-38.089
-47.9051
-60.7137
-51.846
-31.8073
-32.6935
-34.6236
-52.4482
-37.0457
-41.3861
151.132
172.347
-60.4658
-60.608
111.344
111.383
-76.655
-46.3444
-51.7143
-41.9712
-44.1624
-42.5166
-28.0829
-27.8383
-33.5487
-33.5733
-25.3473
-25.1739
-43.413
-56.4615
-35.3321
-37.5795
-38.0974
-38.1006
72.3136
72.0481
-51.0443
-57.1001
-37.9995
-16.1303
-32.0783
-32.0795
-24.4095
-24.6311
-51.8375
-45.6239
-42.5871
-35.9276
-38.8945
-41.1552
172.13
151.671
-76.5863
-46.4038
-51.7858
-41.9425
-42.3646
-44.0761
-27.8886
-27.636
-43.3397
-56.3693
-35.2194
-37.4926
-57.0752
-51.0215
-16.1193
-37.9992
-45.614
-51.8205
-35.9004
-42.6593
-28.6427
-27.3725
-31.0779
-28.432
-43.0193
-42.246
-29.5133
-30.5669
-38.8369
-38.8481
-33.5064
-33.4974
-27.1845
-30.2932
-34.8531
-34.6536
-28.0959
-28.1082
-32.5517
-32.5156
-32.6801
-32.651
-80.2422
-68.5044
4.90838
5.48363
-65.8893
-65.9151
-73.8563
-73.8554
-45.0148
-45.0281
-28.6356
-27.3781
-31.0609
-28.4167
-42.2242
-42.4501
-29.504
-30.5801
-30.3007
-27.1954
-34.7702
-34.6037
-32.667
-32.6909
-68.4908
-80.3688
-22.0989
-80.5344
-74.0773
-16.5536
-43.2615
-36.433
-46.5698
-44.8331
-33.0044
-49.6397
-48.0759
-33.2271
-28.1775
-22.2949
-65.3043
-50.5808
-22.1081
-16.6998
-74.1211
-80.2085
-28.2542
-50.5542
-65.2484
-22.434
-33.0016
-33.2522
-48.0685
-49.6578
-43.9256
-44.6967
-46.8804
-36.6807
-72.3975
-79.7012
-52.7157
-54.5173
-72.4599
-54.8101
-52.77
-79.6236
-36.1121
-35.5921
-42.0972
-40.7421
-36.1254
-40.7478
-42.1037
-35.6347
-20.1784
-46.0075
-30.7242
-31.5861
-20.3656
16.4255
-4.77296
-27.8155
-20.4338
-27.8064
-4.75237
15.7837
-20.1798
-31.6128
-30.718
-45.9965
61.9395
118.075
136.924
85.3996
22.8976
11.9818
174.362
127.324
22.0232
127.363
175.488
13.2518
64.0125
85.6452
137.067
116.987
-30.6421
-28.3925
-29.0874
-29.957
-23.7372
-25.8745
-28.0577
-27.0675
-33.7692
-34.8621
-30.649
-29.8798
-32.0085
-29.8995
-31.1404
-34.8979
-30.568
-29.956
-29.0848
-28.3296
-31.9921
-34.911
-31.1518
-29.9074
-33.7551
-29.8949
-30.659
-34.8688
-23.6887
-27.0132
-28.066
-25.8912
-33.6541
-35.4249
-31.7333
-30.0831
-33.6349
-30.067
-31.7187
-35.4345
-25.3814
-27.6151
-29.1368
-27.6389
-25.4139
-27.6552
-29.1508
-27.6585
-47.7926
-52.8965
-97.5845
-9.43566
-52.0043
-65.618
-79.1926
-51.91
-52.0307
-51.921
-79.1883
-65.6173
-47.8024
-9.38523
-97.561
-52.8726
-19.9768
-42.1073
-43.727
-26.5131
-37.5557
-36.9651
-56.0638
-51.9692
-36.7653
-48.1386
-53.7377
-37.1635
-35.5824
-30.3282
-44.5219
-46.5746
-21.1083
-26.5796
-43.6085
-42.1552
-35.574
-46.5374
-44.4627
-30.3206
-36.6778
-37.07
-53.7549
-48.0936
-37.4603
-51.9738
-56.0165
-36.874
-21.3282
-25.715
-33.1211
-37.9249
-21.5262
-37.6244
-33.0824
-25.8591
-35.0813
-31.9006
-34.4834
-40.7242
-35.1708
-40.7215
-34.5207
-31.9687
-49.4717
-45.346
-40.7901
-50.9324
-32.6795
-30.5198
-34.9034
-39.2143
-32.6041
-39.1681
-34.8926
-30.4945
-49.4531
-50.9315
-40.8198
-45.3222
-30.7267
-25.3481
-24.9032
-30.1512
-30.5991
-30.0346
-24.6954
-25.1676
-30.1033
-25.453
-24.1384
-29.6997
-30.1893
-29.8099
-24.3749
-25.6629
28.0908
11.9666
-27.8118
-34.8229
-34.114
-36.2768
29.4918
20.274
-15.2203
-32.553
-30.9369
-34.9973
10.4602
27.8753
-27.7189
-33.9008
-34.5545
-36.1693
20.171
28.9951
-15.0325
-30.8524
-32.4695
-34.8998
-42.235
-33.2051
-34.4101
-36.5655
-19.3458
-22.4083
-19.4286
-23.1331
-31.3271
-30.1566
-32.7165
-35.2277
-39.7784
-36.2829
-38.3402
-46.792
-42.0089
-36.5306
-33.2457
-34.4425
-18.8536
-23.0381
-22.4
-19.2324
-31.3284
-35.0896
-30.1606
-32.7241
-39.7941
-46.7417
-36.3092
-38.4279
39.664
43.1081
-11.3788
90.0915
-99.549
-99.6717
-107.554
20.8934
-57.2015
-43.9189
-53.4718
-47.1698
-32.0344
-31.7654
-37.1529
-30.6
-26.1188
-26.0213
-31.5559
-24.5685
-41.452
-48.07
-42.7327
-40.3045
-4.50867
-4.48819
-20.9764
6.96731
-51.6449
-48.6308
-53.7334
-43.4032
-25.6715
-25.5763
-29.774
-24.4699
-49.0021
-48.0679
-51.0116
-46.7068
39.7396
43.1988
-10.981
90.3131
-56.6668
-43.8412
-53.3858
-47.0201
-31.9371
-31.669
-37.0442
-30.5095
-41.2707
-43.6826
-42.0682
-39.8034
-51.4784
-48.5572
-53.7972
-43.4058
-48.9373
-48.0157
-50.9415
-46.6448
-28.564
-27.1481
-27.7428
-28.3609
-31.116
-30.0324
-31.8435
-30.1314
-34.6485
-34.6559
-33.3486
-36.5956
-25.7102
-28.6856
-27.4692
-27.472
-28.1865
-28.1794
-28.2318
-27.4782
-38.6712
-39.4779
-36.7753
-45.5433
17.4733
17.5023
22.1918
6.1814
-58.8154
-58.814
-62.8494
-54.5809
-28.5603
-27.1493
-27.6733
-28.3449
-31.245
-30.0842
-31.9375
-30.1655
-25.7661
-28.7131
-27.4937
-27.5175
-38.6737
-39.4766
-36.7773
-45.5397
-69.1993
-58.4763
-58.5451
-51.4756
-69.2948
-58.4212
-58.5435
-51.5262
-49.7242
-46.5133
-46.5152
-43.9814
-22.9951
-19.2491
-19.283
-9.71163
204.027
174.301
206.74
204.084
-28.8767
-29.6483
-29.3362
-30.133
-28.8849
-29.6592
-29.3456
-30.1438
-30.375
-31.0782
-29.8159
-30.3656
-84.6629
-89.4737
-83.2264
-84.6679
-52.2721
-48.7966
-49.3124
-47.5755
-52.2161
-48.6968
-49.2138
-47.4686
-33.3732
-33.5139
-33.4982
-32.5253
-35.6774
-37.0799
-37.0757
-38.7345
-22.9939
-22.7184
-22.1759
-22.8582
35.3349
34.2694
-14.1746
75.3949
-56.1513
-123.595
-96.6308
33.5679
-37.789
-78.1471
-36.2723
-71.251
-32.7914
-32.4467
-37.0818
-30.8596
-31.3204
-28.7116
-34.9705
-29.1047
-41.2939
-43.6087
-49.4349
-44.4815
33.9587
35.1793
-13.6492
84.955
3.82666
-5.19341
-15.5892
4.57835
-42.9639
-53.0396
-44.4612
-49.7285
-32.0077
-31.8064
-37.9373
-30.6263
-29.8111
-27.8784
-30.2984
-28.7596
-37.9292
-42.496
-40.4799
-37.4998
-54.0361
-123.235
-96.5081
34.1122
35.341
34.303
-14.1948
75.3963
-37.0713
-77.0042
-34.3224
-70.4822
-31.1679
-28.4909
-34.8207
-28.9241
-32.8899
-32.3468
-36.9974
-30.7827
-41.2016
-44.4355
-49.36
-44.471
3.88307
-5.13983
-15.8483
4.59671
34.0163
35.3689
-13.6495
85.0356
-42.9466
-53.0631
-44.398
-49.7488
-29.7132
-27.7252
-30.2396
-28.613
-31.9132
-31.7157
-37.8356
-30.5477
-37.8498
-42.4341
-40.3995
-37.432
-31.385
-38.9729
-38.6561
-36.5808
-30.9398
-28.9812
-30.0509
-30.8524
-31.9205
-31.1813
-37.8001
-30.678
-35.6777
-35.3864
-36.5649
-34.5913
-32.1557
-39.749
-40.8528
-39.7792
-24.9189
-26.6958
-25.7427
-26.0605
-19.8721
-22.4871
-22.8141
-15.8545
-24.8801
-26.8925
-26.2364
-25.3227
-33.192
-40.0057
-36.9944
-29.4453
-28.9159
-29.0776
-29.9139
-29.4949
-36.2573
-37.9786
-35.2634
-44.1525
-15.657
6.89227
-1.29922
-10.6899
-41.2523
-45.3159
-39.9496
-46.5367
-32.3504
-30.3192
-31.1829
-31.8396
-39.3316
-39.704
-36.8902
-46.0606
-54.0559
-57.45
-58.8096
-53.9243
-31.7602
-38.8536
-38.555
-36.6016
-35.6491
-35.3951
-36.5503
-34.5683
-30.9255
-28.9885
-29.9426
-30.829
-31.9427
-31.2521
-38.4441
-30.6766
-32.7992
-43.473
-40.2258
-40.3626
-24.8468
-26.918
-26.212
-25.1334
-24.9084
-26.716
-25.7036
-26.0386
-19.9154
-22.5664
-22.8385
-16.0491
-33.1975
-39.9987
-36.9955
-29.4071
-15.6858
6.98746
-1.33817
-10.6809
-28.9297
-29.1018
-29.935
-29.4955
-36.2571
-37.9812
-35.2722
-44.1414
-41.2561
-45.2959
-39.9313
-46.5233
-54.0306
-57.4397
-58.8046
-53.9186
-32.3641
-30.3288
-31.1795
-31.8413
-39.3246
-39.7019
-36.8979
-46.0379
-32.2401
-53.2711
-38.4137
-40.6546
173.781
186.505
175.193
186.28
-69.9098
-56.932
-61.0704
-61.2042
89.6889
121.462
107.116
107.149
-55.1713
-56.7009
-68.4773
-50.3752
-45.5447
-47.0217
-48.3432
-42.4937
-39.4468
-51.0828
-44.4159
-43.3068
-29.0773
-26.3322
-27.986
-27.9076
-31.7649
-33.4959
-33.2304
-33.2367
-23.4777
-22.885
-24.0894
-23.9671
-45.8137
-47.9448
-46.5293
-49.8956
-37.6966
-35.0763
-35.8595
-37.0118
-38.2653
-33.1121
-38.0975
-38.0816
26.0926
127.448
58.7216
58.5862
-58.2683
-59.4918
-54.7367
-61.5359
-33.029
-24.8799
-32.5992
-21.1037
-30.9027
-33.2549
-31.893
-31.8819
-22.9652
-22.0885
-22.7517
-22.8974
-52.3561
-50.1487
-52.8997
-48.1611
-40.8974
-37.9935
-40.7133
-37.5234
-33.0598
-52.5913
-39.7942
-40.4049
173.774
186.561
186.108
178.151
-55.1906
-56.68
-68.6359
-50.3099
-45.6804
-47.031
-48.2856
-42.6693
-39.3494
-51.0465
-43.1245
-44.3004
-28.9227
-26.094
-27.786
-27.7081
-45.6074
-47.8332
-46.2856
-49.8042
-37.4573
-34.969
-35.7231
-36.9132
-58.2994
-59.4747
-61.5275
-54.715
-33.0244
-24.8437
-21.0902
-32.5961
-52.2533
-50.0323
-48.0789
-52.773
-40.8662
-37.981
-37.4899
-40.6847
-27.7384
-28.1528
-28.2973
-27.5947
-29.2429
-29.9397
-30.2855
-28.9809
-37.6781
-45.294
-42.8527
-42.4369
-29.9374
-29.9084
-29.673
-30.1052
-37.2867
-40.2257
-38.8273
-38.8385
-34.6208
-32.7057
-33.5783
-33.5717
-28.2072
-28.9852
-27.7977
-29.3987
-29.889
-40.1382
-35.0403
-34.7463
-28.0459
-28.5944
-28.1876
-28.1938
-28.4554
-34.0163
-32.1282
-32.1184
-33.7702
-31.8858
-32.6992
-32.7423
-62.35
-80.802
-79.6328
-70.76
17.9253
4.48389
10.1947
9.51457
-33.7261
-103.12
-73.2465
-73.2594
-71.0977
-78.2451
-74.9044
-74.9109
-47.3864
-42.4527
-44.8805
-44.8786
-27.7392
-28.1549
-28.2906
-27.5998
-29.2287
-29.9274
-30.2694
-28.9677
-37.6889
-45.1654
-42.3852
-42.5897
-29.9451
-29.9144
-29.6723
-30.1154
-28.219
-28.9964
-29.4101
-27.8099
-29.867
-40.0828
-34.985
-34.6988
-33.7803
-31.8967
-32.7567
-32.7072
-62.3468
-80.8282
-70.7618
-79.7174
-28.8391
-30.9304
-35.5775
-61.3603
-42.1813
-37.7683
-42.7391
-42.6326
-39.1785
-35.5018
-47.1206
-41.5668
-37.3776
-44.1748
-41.9022
-46.5638
-29.095
-31.1714
-37.1344
-60.6092
-37.513
-44.0649
-41.7323
-46.4426
-39.1758
-35.5035
-47.117
-41.5605
-41.6789
-36.746
-42.8283
-42.1089
-67.9451
-62.0634
-59.873
-56.2741
-68.2136
-62.1159
-59.8058
-56.2472
-39.4683
-38.3354
-40.7536
-38.9437
-39.4907
-38.3805
-40.7586
-38.9304
-35.9982
-42.5842
-37.8207
-40.878
-14.54
-4.66157
-11.782
-0.582348
-14.4725
-4.65923
-11.8
-0.340532
-36.0031
-42.5875
-37.8224
-40.8717
120.096
98.5946
138.502
117.417
84.8661
32.1311
132.909
74.6204
31.8745
83.8761
74.573
132.669
97.6105
118.743
117.34
138.29
-29.3481
-29.6314
-28.9426
-29.3863
-26.1433
-25.624
-26.933
-26.7797
-32.1345
-33.5
-31.2561
-32.6288
-31.3255
-32.8951
-31.2158
-32.394
-29.3206
-29.6075
-28.9251
-29.3671
-31.3387
-32.9115
-31.2314
-32.4119
-32.1554
-33.5102
-31.2641
-32.6405
-26.142
-25.6318
-26.9426
-26.7894
-32.3148
-33.4566
-31.9587
-33.254
-33.4456
-32.3004
-33.25
-31.9411
-26.9849
-26.9815
-27.8732
-27.9457
-27.0043
-27.0166
-27.9616
-27.8825
-62.9404
-35.2682
-67.6153
-50.4788
-58.9295
-63.9459
-67.04
-71.2525
-63.9454
-58.9225
-71.2507
-67.0072
-35.204
-62.8609
-50.4285
-67.5363
-36.1767
-32.7207
-37.6811
-34.9722
-40.076
-45.3515
-44.1049
-56.1266
-38.9871
-41.0611
-41.9408
-46.2126
-36.4911
-33.4213
-40.2863
-34.4386
-35.3559
-32.6057
-37.6996
-34.8918
-36.4558
-33.3883
-40.2645
-34.383
-38.8992
-40.9726
-41.8112
-46.1641
-39.9303
-45.2922
-44.0224
-56.1044
-36.264
-28.2179
-34.8436
-33.5275
-36.181
-28.5581
-34.7571
-33.4596
-36.7584
-39.354
-33.8593
-37.8679
-36.851
-39.3195
-33.8337
-37.8421
-47.6177
-49.1597
-44.2387
-45.4701
-31.9356
-34.3032
-32.4211
-34.5452
-31.8834
-34.2516
-32.3993
-34.5129
-47.613
-49.1559
-44.2384
-45.4652
-29.4458
-28.4106
-28.2263
-26.8311
-28.2393
-29.2889
-26.6327
-28.042
-28.0585
-28.9629
-26.4222
-27.6312
-29.1073
-28.2403
-27.8333
-26.6358
-19.1905
61.3969
-74.841
23.6332
-23.8779
-65.803
-37.9072
-31.4443
-35.6581
-31.6052
-37.3464
-36.0429
-13.2862
40.1776
-5.79614
22.1393
-26.9542
-15.3089
-37.272
-30.7151
-31.7212
-30.3064
-36.5903
-33.9631
-75.1542
25.6566
-19.1668
61.1575
-23.7534
-65.7856
-35.4911
-31.4728
-37.6365
-31.3984
-37.2388
-35.9752
-5.69221
21.9504
-13.3844
40.2434
-27.0455
-15.2827
-31.6357
-30.2244
-37.1739
-30.6357
-36.503
-33.8822
-39.7599
-35.1903
-31.0065
-32.8785
-40.423
-31.4748
-36.7505
-34.9541
-20.345
-19.14
-23.8472
-24.6381
-22.0962
-12.3718
-24.8292
-23.8714
-33.2434
-29.2257
-30.2767
-30.5967
-33.0442
-41.6038
-21.8294
-37.5781
-37.7997
-45.7056
-33.1995
-34.4057
-36.196
-46.645
-51.558
-50.6373
-40.2645
-35.1136
-36.7112
-34.932
-30.9695
-32.8535
-40.391
-31.3368
-23.6227
-19.503
-24.7912
-23.7572
-23.7802
-24.6006
-21.969
-12.4838
-33.2288
-29.2552
-21.8738
-37.5562
-30.2883
-30.5947
-33.0275
-41.5473
-37.8018
-45.6269
-51.518
-50.6099
-33.1737
-34.4097
-36.155
-46.6807
-18.6032
70.1769
-17.025
95.0833
-18.584
-23.003
125.15
132.539
-104.837
49.1537
-104.798
49.3789
-80.8686
-80.7394
76.5455
76.558
-75.5343
-58.6295
-43.1467
-40.9365
-65.2821
-48.3939
-49.5317
-42.8218
-36.7963
-30.7501
-37.7135
-30.565
-36.9389
-37.2462
-30.0749
-29.8257
-33.2576
-26.0619
-33.1481
-25.8898
-31.4055
-31.4492
-24.124
-24.0163
-47.5484
-41.8458
-41.5137
-40.2035
-44.8415
-45.9602
-38.2025
-39.2853
-19.8615
9.51659
-19.8524
9.5227
-32.4816
-32.4871
11.5854
11.6616
-47.8452
-46.963
-46.1196
-36.0706
-52.978
-55.0093
-41.1208
-32.8079
-29.8476
-26.2059
-29.8138
-26.0188
-30.4739
-30.4615
-24.1375
-24.2537
-46.6761
-41.9299
-46.5573
-47.3122
-51.7345
-49.1223
-44.1159
-40.9415
-18.419
70.24
-16.8586
95.2752
-18.656
-23.1186
132.36
125.289
-75.7001
-59.3458
-43.2546
-40.9373
-65.2592
-48.4567
-49.6103
-42.8118
-36.6857
-30.6486
-37.6091
-30.4815
-37.1502
-36.8435
-29.9609
-29.712
-47.0226
-41.9248
-41.3066
-38.9846
-44.4568
-45.9434
-37.8255
-39.1671
-47.7688
-46.9427
-46.0566
-36.0611
-55.0031
-52.9822
-32.7977
-41.1202
-46.6215
-41.8767
-46.5173
-47.2918
-49.0526
-51.6934
-40.8999
-44.0848
-28.4845
-29.4271
-26.9641
-27.2019
-28.062
-27.3955
-29.3811
-28.1921
-34.6926
-30.5558
-30.7083
-29.5312
-35.2066
-33.551
-30.0118
-29.6573
-34.1736
-35.8959
-34.1551
-35.9186
-35.3179
-35.3294
-35.5052
-35.5087
-24.9674
-22.627
-29.5445
-29.9379
-26.8496
-28.9587
-27.9652
-29.5769
-27.7404
-27.3335
-27.7397
-27.2549
-27.8939
-27.8996
-26.1287
-26.1845
-36.4752
-45.2551
-37.0636
-45.7475
-34.8119
-34.8814
-52.7824
-51.6211
17.3679
5.15713
17.2774
5.20919
20.9089
19.533
-8.57614
-8.44602
-62.193
-54.8431
-62.1841
-54.84
-66.8205
-66.818
-50.8875
-50.8867
-28.3777
-29.4083
-26.9458
-27.186
-28.0302
-27.3582
-29.3657
-28.1771
-34.8267
-30.5842
-30.748
-29.547
-33.5801
-35.351
-30.022
-29.6696
-24.9975
-22.7353
-29.56
-29.954
-28.975
-26.8663
-27.9903
-29.5783
-36.4839
-45.2565
-37.0665
-45.7424
-34.894
-34.8156
-51.6135
-52.763
-72.6475
-66.4997
-70.2413
-50.6746
-52.5186
-67.3538
-47.0564
-47.9802
-72.949
-66.5604
-70.5815
-50.7519
-67.3245
-52.5229
-47.9784
-47.2328
-53.2654
-53.2733
-49.4557
-44.2508
-49.5085
-44.2419
-41.9976
-42.0024
-29.2323
-29.2004
-26.4808
-12.3384
-12.322
-26.4884
-2.44394
-2.47413
174.476
199.844
138.15
138.296
175.37
177.475
199.811
174.399
-28.7167
-28.2695