# vtk DataFile Version 2.0
tri_press
ASCII
DATASET UNSTRUCTURED_GRID
POINTS 3682 float
-0.873568 0.165 -1.745
-0.685 0.245 1.88311
-0.805 0.655 -1.7923
-0.625 0.925194 1.805
0.873568 0.165 -1.745
0.685 0.245 1.88311
0.805 0.655 -1.7923
0.625 0.925194 1.805
-0.816608 0.185771 -0.53563
-0.79332 0.172869 0.67374
-0.836321 0.836386 -0.5932
-0.7665 0.91663 0.6059
0.816588 0.18579 -0.53563
0.79315 0.173039 0.67374
0.836326 0.83639 -0.5932
0.764535 0.914665 0.6059
-1.69154 -0.211917 -2.6789
-1.68589 -0.146011 -1.71552
-1.62966 -0.132437 -0.50588
-1.55684 -0.152424 0.705822
-1.46611 -0.113222 1.91563
-1.4473 -0.0705671 2.87987
-1.45905 -0.0293673 3.84252
-1.69299 0.077566 -2.70624
-1.69151 0.161001 -1.74398
-1.63123 0.200281 -0.536343
-1.5431 0.191764 0.672219
-1.41914 0.232986 1.88005
-1.41666 0.275001 2.84414
-1.44313 0.315271 3.80713
-1.66509 0.629587 -2.75804
-1.6521 0.70995 -1.79536
-1.63408 0.848706 -0.594721
-1.52425 0.910202 0.605187
-1.38096 0.929228 1.80602
-1.39677 0.9675 2.77053
-1.43625 1.00797 3.73518
-1.62515 1.57281 -2.84347
-1.61616 1.66682 -1.88232
-1.60302 1.81392 -0.685013
-1.5648 1.92777 0.510079
-1.51362 1.98648 1.70749
-1.49214 2.01937 2.66886
-1.49129 2.05337 3.63239
-0.865976 -0.210107 -2.67956
-0.864962 -0.141036 -1.71648
-0.823859 -0.138701 -0.505751
-0.795169 -0.165938 0.70712
-0.738378 -0.110989 1.9179
-0.724952 -0.0693145 2.88141
-0.73254 -0.0300861 3.84341
-0.8688 0.0727897 -2.70645
-0.704381 0.277613 2.84541
-0.722932 0.314957 3.80781
-0.844247 0.604812 -2.75677
-0.688641 0.966578 2.77033
-0.71998 1.0071 3.73514
-0.811066 1.55538 -2.84221
-0.804346 1.65019 -1.88094
-0.807902 1.80852 -0.68418
-0.801248 1.9306 0.509979
-0.7772 1.98872 1.70678
-0.762133 2.01999 2.66815
-0.759364 2.05335 3.63187
0.820933 -0.210167 -2.67956
0.838049 -0.141067 -1.71648
0.809399 -0.138734 -0.505751
0.772812 -0.165903 0.70712
0.699812 -0.111008 1.9179
0.698973 -0.0694023 2.88141
0.70868 -0.0302442 3.84342
0.821476 0.0727465 -2.70644
0.685114 0.27754 2.84541
0.700819 0.314798 3.80781
0.807109 0.604761 -2.75677
0.664157 0.966435 2.77033
0.690632 1.00688 3.73514
0.820249 1.5552 -2.84221
0.821737 1.64996 -1.88094
0.794491 1.80808 -0.68418
0.737105 1.92988 0.509979
0.691931 1.98812 1.70678
0.688017 2.01954 2.66815
0.696912 2.05297 3.63187
1.65718 -0.212078 -2.6789
1.67226 -0.146143 -1.71552
1.62778 -0.132699 -0.50588
1.55495 -0.152706 0.705822
1.45733 -0.113389 1.91563
1.43566 -0.0708175 2.87987
1.44337 -0.0297246 3.84252
1.66188 0.0774327 -2.70624
1.69221 0.160918 -1.74398
1.63908 0.199941 -0.536343
1.55628 0.191247 0.672219
1.43385 0.232857 1.88005
1.41414 0.274761 2.84414
1.42999 0.314903 3.80714
1.64501 0.629431 -2.75804
1.65902 0.709839 -1.79536
1.64317 0.848127 -0.594721
1.53354 0.908331 0.605187
1.39174 0.928678 1.80602
1.38816 0.967081 2.77054
1.41581 1.00749 3.73518
1.63472 1.57242 -2.84347
1.6319 1.66632 -1.88232
1.59495 1.81305 -0.685014
1.51758 1.92647 0.510079
1.44803 1.98535 1.70749
1.4308 2.01847 2.66886
1.43646 2.05261 3.63239
-0.855155 0.41 -1.78452
0 0.172509 -1.73749
-0.857638 0.162835 -1.14032
-0.703307 0.585097 1.89236
0 0.250104 1.87801
-0.77336 0.174734 1.27843
0 0.745355 -1.88266
-0.855868 0.7809 -1.19275
0 0.999111 1.87892
-0.725485 0.950647 1.20545
0.855192 0.41 -1.78456
0.858408 0.162066 -1.14032
0.703247 0.585097 1.8923
0.772406 0.175689 1.27843
0.855871 0.780903 -1.19275
0.724865 0.950027 1.20545
-0.798334 0.18595 0.069055
-0.881743 0.511079 -0.564415
-9.65196e-06 0.149934 -0.53563
-0.877812 0.54475 0.63982
-8.4781e-05 0.158558 0.67374
-0.806057 0.881154 0.00634998
2.11788e-06 1.09311 -0.5932
-0.000982525 1.29443 0.6059
0.798341 0.185943 0.069055
0.881736 0.51109 -0.564415
0.877795 0.543852 0.63982
0.806015 0.881112 0.00634998
-0.896985 0.460539 -1.16653
0.896981 0.460545 -1.16653
-4.82598e-06 0.143889 -1.14032
1.05894e-06 0.907902 -1.19275
0 0.41 -2.10731
-0.880784 0.527914 0.0377025
0.880771 0.527471 0.0377025
-4.72165e-05 0.154725 0.069055
-0.000490203 1.31155 0.00634998
-0.887027 0.564923 1.24194
0.887032 0.564474 1.24194
-4.23905e-05 0.162229 1.27843
-0.000491262 1.15538 1.20545
0 0.585097 2.08561
-0.862968 0.2875 -1.76337
-0.436784 0.172787 -1.73721
-0.852225 0.177296 -1.44266
-0.697695 0.415049 1.89128
-0.3425 0.264511 1.8636
-0.753207 0.18584 1.58077
-0.839226 0.5325 -1.79756
-0.4025 0.730696 -1.868
-0.859959 0.747475 -1.49253
-0.672065 0.755146 1.85659
-0.3125 0.983835 1.86364
-0.681425 0.944103 1.50522
0.436784 0.172499 -1.7375
0.863019 0.2875 -1.76342
0.85219 0.177331 -1.44266
0.3425 0.268895 1.85922
0.697671 0.415049 1.89125
0.753177 0.185871 1.58077
0.4025 0.730516 -1.86782
0.83954 0.5325 -1.79787
0.86004 0.747556 -1.49253
0.3125 0.983245 1.86305
0.672133 0.755146 1.85666
0.681342 0.94402 1.50522
-0.824577 0.186849 -0.837973
-0.80643 0.186901 -0.233288
-0.857485 0.34427 -0.550023
-0.40614 0.172191 -0.53563
-0.78501 0.172132 0.976083
-0.791403 0.183833 0.371398
-0.861343 0.345921 0.65678
-0.393431 0.172257 0.67374
-0.846747 0.809296 -0.892975
-0.872028 0.68023 -0.578808
-0.82185 0.859431 -0.293425
-0.461541 1.05151 -0.5932
-0.747903 0.935548 0.905675
-0.858839 0.749031 0.62286
-0.789229 0.901842 0.306125
-0.464764 1.26757 0.6059
0.824559 0.186867 -0.837973
0.406125 0.17219 -0.53563
0.806429 0.186903 -0.233288
0.857475 0.344284 -0.550023
0.785157 0.171985 0.976083
0.393248 0.172367 0.67374
0.791404 0.183832 0.371398
0.861336 0.345514 0.65678
0.846745 0.809294 -0.892975
0.461541 1.05151 -0.5932
0.872023 0.680236 -0.578808
0.821802 0.859383 -0.293425
0.748445 0.93609 0.905675
0.463348 1.26769 0.6059
0.859001 0.748176 0.62286
0.789152 0.901765 0.306125
-0.89671 0.43527 -1.47553
-0.427577 0.41 -2.03622
-2.41299e-06 0.159497 -1.4389
0 0.291255 -2.04444
-0.897114 0.311687 -1.15342
-0.428822 0.142015 -1.14032
-0.865716 0.57501 1.56715
-0.351654 0.585097 2.04587
-2.11953e-05 0.190507 1.57822
0 0.4176 2.04345
-0.874267 0.369829 1.26018
-0.386701 0.163691 1.27843
5.2947e-07 0.855498 -1.5377
0 0.577678 -2.05469
-0.89538 0.62072 -1.17964
-0.427933 0.897465 -1.19275
-0.000245631 1.04998 1.54218
0 0.792104 2.00898
-0.869706 0.757785 1.22369
-0.362988 1.133 1.20545
0.896709 0.435273 -1.47555
0.427596 0.41 -2.03495
0.89712 0.311305 -1.15342
0.429201 0.14194 -1.14032
0.865774 0.574786 1.56712
0.351624 0.585097 2.04587
0.874347 0.370082 1.26018
0.386182 0.166795 1.27843
0.89538 0.620724 -1.17964
0.427936 0.897462 -1.19275
0.870065 0.757251 1.22369
0.362187 1.13306 1.20545
-0.850845 0.351289 0.0533788
-0.398237 0.172245 0.069055
-0.882467 0.485809 -0.865474
-0.881159 0.519496 -0.263356
-7.23897e-06 0.139732 -0.837973
-2.84342e-05 0.152494 -0.233288
-0.880232 0.536332 0.338761
-0.886446 0.554836 0.940879
-6.59988e-05 0.156849 0.371398
-6.35858e-05 0.157195 0.976083
-0.867851 0.716749 0.0220262
-0.495829 1.28146 0.00634998
1.58841e-06 0.920286 -0.892975
-0.000244043 1.23769 -0.293425
-0.000736364 1.31994 0.306125
-0.000736894 1.23227 0.905675
0.850751 0.351109 0.0533788
0.398192 0.172244 0.069055
0.88247 0.485818 -0.865474
0.88115 0.519281 -0.263356
0.880197 0.535661 0.338761
0.886391 0.554163 0.940879
0.867881 0.716536 0.0220262
0.495347 1.2815 0.00634998
-0.897298 0.299594 -1.45909
-0.870249 0.330056 -0.851723
-0.877592 0.647226 -0.879224
-0.896008 0.57661 -1.48403
0.897299 0.299403 -1.4591
0.896008 0.576612 -1.48404
0.877573 0.647232 -0.879224
0.870192 0.329873 -0.851723
-0.432803 0.163508 -1.44078
0.432993 0.163508 -1.44078
0.418745 0.162002 -0.837973
-0.418565 0.161983 -0.837973
-0.415217 0.845071 -1.51511
-0.423046 0.89029 -0.892975
0.42305 0.912751 -0.892975
0.415218 0.845071 -1.51511
-0.432181 0.289377 -1.96882
-0.415039 0.555089 -2.00734
0.415048 0.555089 -2.00734
0.43219 0.289377 -1.97036
-0.854314 0.347705 -0.248322
-0.847183 0.353061 0.355079
-0.866265 0.73435 0.322443
-0.870051 0.698546 -0.278391
0.854267 0.34762 -0.248322
0.870064 0.698442 -0.278391
0.866319 0.733795 0.322443
0.847074 0.352796 0.355079
-0.402184 0.172226 -0.233288
0.402155 0.172225 -0.233288
0.395736 0.172274 0.371398
-0.395823 0.172274 0.371398
-0.496018 1.20115 -0.293425
-0.490474 1.29487 0.306125
0.489519 1.29494 0.306125
0.495822 1.20126 -0.293425
-0.878757 0.364319 0.958481
-0.863154 0.392439 1.57396
-0.814041 0.756465 1.53619
-0.856733 0.744237 0.923277
0.878747 0.364263 0.958481
0.856961 0.743254 0.923277
0.814029 0.756198 1.53617
0.863123 0.392565 1.57394
-0.391702 0.163643 0.976083
0.391357 0.164884 0.976083
0.364341 0.200387 1.57949
-0.364601 0.200242 1.57949
-0.373365 1.2119 0.905675
-0.337744 1.0384 1.5237
0.337343 1.03685 1.5237
0.371982 1.21202 0.905675
-0.347077 0.416324 2.06832
0.347062 0.416324 2.06829
0.332062 0.773625 1.97411
-0.332077 0.773625 1.97416
-0.861223 0.22625 -1.74714
-0.655176 0.164353 -1.74565
-0.856097 0.177948 -1.59383
-0.694764 0.330024 1.89061
-0.51375 0.257097 1.87101
-0.729069 0.205455 1.73194
-0.825178 0.59375 -1.79799
-0.60375 0.700779 -1.83808
-0.839414 0.708172 -1.64241
-0.647628 0.84017 1.82989
-0.46875 0.962889 1.8427
-0.656996 0.938432 1.65511
0.655176 0.162885 -1.74712
0.859965 0.22625 -1.74588
0.855916 0.178128 -1.59383
0.51375 0.257098 1.87101
0.694823 0.330024 1.89067
0.728882 0.205641 1.73194
0.60375 0.700784 -1.83808
0.825698 0.59375 -1.79851
0.83923 0.707988 -1.64241
0.46875 0.962074 1.84188
0.647653 0.84017 1.82992
0.657068 0.938504 1.65511
-0.821588 0.185315 -0.686801
-0.811352 0.186503 -0.384459
-0.83991 0.263589 -0.542826
-0.614476 0.172775 -0.53563
-0.796456 0.16521 0.824911
-0.791812 0.178901 0.522569
-0.846074 0.250024 0.66526
-0.593242 0.172829 0.67374
-0.84188 0.823187 -0.743088
-0.856683 0.759562 -0.586004
-0.829002 0.847824 -0.443313
-0.694216 1.03452 -0.5932
-0.75654 0.925428 0.755788
-0.832467 0.842729 0.61438
-0.779913 0.911284 0.456013
-0.642913 1.14666 0.6059
0.821586 0.185317 -0.686801
0.614464 0.172775 -0.53563
0.811336 0.186519 -0.384459
0.839885 0.26361 -0.542826
0.794094 0.167571 0.824911
0.593136 0.172829 0.67374
0.791789 0.178924 0.522569
0.846156 0.24982 0.66526
0.841654 0.82296 -0.743088
0.693789 1.03366 -0.5932
0.856682 0.759567 -0.586004
[...]
POINT_DATA 3682
SCALARS point_scalars float 1
LOOKUP_TABLE default
-107.183
-43.6332
-40.8225
-35.8879
-106.582
-43.4832
-41.2271
-35.6914
-36.5819
-33.6385
-58.347
-49.4067
-36.5391
-33.814
-56.9952
-49.4539
-45.9526
-111.58
-36.687
-40.6332
-52.3921
-41.1782
-37.2176
-34.7711
-117.159
-38.5808
-36.8576
-52.5259
-36.701
-36.5366
4.45257
-109.107
-47.1423
-43.4289
-45.0032
-36.4593
-35.9076
-13.8326
-76.2972
-81.5006
-64.7967
-40.7061
-35.3229
-35.0708
-17.7504
-133.414
-36.4766
-34.8693
-45.4139
-36.6582
-36.5559
18.5315
-36.6385
-36.5559
156.518
-34.8267
-34.9062
37.1286
-66.0397
-66.8561
-66.7136
-37.8412
-32.4317
-30.7045
28.8756
-130.338
-36.437
-35.5879
-44.8164
-36.9293
-36.9612
28.8756
-36.9293
-36.0584
157.373
-34.6511
-34.6551
36.6179
-69.165
-65.5382
-66.8484
-37.7527
-31.6787
-30.3066
-51.0754
-111.844
-36.6558
-33.0577
-52.1925
-41.0564
-36.4968
-31.7029
-117.617
-38.537
-36.6394
-52.4116
-36.5258
-36.5034
26.8459
-108.748
-45.8234
-43.3209
-44.8522
-36.1685
-35.7776
-14.1761
-75.8319
-81.0754
-65.0136
-40.5678
-35.1334
-34.094
-91.4576
-93.1942
-57.5755
-38.0357
-41.7314
-46.143
-28.0414
-57.2309
-30.8834
-45.3268
-91.3935
-56.4821
-37.8475
-45.7687
-57.4042
-45.3388
-33.0312
-40.6916
-40.5687
-37.3683
-37.2613
-55.3125
12.2547
-62.9649
-33.0414
-40.6006
-37.3332
-55.405
-59.7979
-59.7884
-56.5797
-19.2753
195.781
-39.2133
-39.246
-35.223
-101.466
-45.8096
-45.6871
-46.6313
-39.8088
-32.5987
-92.0081
-95.767
-69.8137
-39.1484
-42.5191
-51.8809
-59.267
-17.3214
-80.2155
-36.6137
-31.4172
-39.5032
-96.3102
-92.1786
-69.8073
-42.61
-38.991
-51.6972
-17.5606
-59.5763
-80.0803
-31.2236
-36.4014
-39.3891
-43.5234
-34.8971
-37.8882
-38.8382
-42.1361
-32.5022
-33.3787
-36.3259
-48.2416
-46.6018
-57.5061
4.60688
-46.3882
-42.5061
-51.8125
-62.0026
-43.5532
-38.8124
-34.8678
-37.8639
-42.3373
-36.4512
-32.5584
-33.3839
-48.2312
5.00024
-46.3404
-57.6803
-46.4649
-62.2721
-42.47
-51.9657
-86.1924
171.603
-69.0643
178.724
-58.9947
-57.2054
-52.9378
-35.2466
-48.7521
-36.2427
-45.9372
-46.6554
-40.6154
158.784
-60.3312
-25.5765
-33.7336
-29.1665
-47.5675
-40.4821
-86.2021
170.906
-58.9867
-57.893
-52.7414
-35.0937
-45.7454
-46.1984
-60.3411
-25.8376
-47.4491
-40.4444
-35.6911
-34.6161
-47.1003
-40.1869
-50.8763
-36.2903
-38.7571
-40.8221
-35.641
-42.0264
-45.3181
-92.8935
5.64855
-54.3124
-83.6494
-49.3636
-35.7092
-34.628
-47.0668
-40.1584
-38.7824
-40.7836
-45.3733
-93.0435
-81.2811
-47.4446
-47.7049
-88.1854
-81.3077
-88.1791
-47.6261
-47.4014
-68.8838
-68.7327
-48.6643
-48.6366
-44.0267
-2.94763
-3.52934
-44.1141
173.698
128.84
128.806
173.091
-36.8343
-34.3719
-43.7936
-46.9547
-36.8172
-46.9331
-43.9044
-34.409
-35.5263
-35.5106
-35.0311
-34.9858
-55.1564
-77.2214
-77.4362
-55.4436
-42.6227
-55.7868
-47.4381
-41.3964
-42.5616
-41.3263
-47.2503
-55.5565
-41.7899
-41.9914
-49.6763
-50.043
-49.5571
-34.7729
-34.679
-49.5444
-36.1932
-36.1241
-32.9214
-33.219
-87.4275
-107.499
-97.5159
-40.1569
-42.5302
-49.3025
-46.9443
-10.2897
-73.0156
-36.5713
-32.7027
-37.1855
-108.879
-88.1554
-97.5578
-42.3351
-40.0174
-49.1255
-10.6277
-47.4432
-72.8825
-32.5045
-36.3342
-37.0789
-38.9892
-35.455
-37.1758
-37.7738
-39.9119
-32.3522
-31.6821
-35.7792
-51.9667
-51.44
-59.9352
-46.7641
-47.401
-47.0809
-51.1994
-55.5415
-38.9483
-37.7203
-35.4151
-37.1509
-39.3965
-35.8355
-32.407
-31.8084
-51.7411
-43.5724
-51.02
-59.7531
-47.3315
-56.0193
-47.057
-51.2842
-93.8006
-78.9153
-117.794
125.906
-94.558
-94.2789
-79.1882
38.7922
-53.8745
-57.4164
-58.9202
-56.8547
-38.5383
-37.1191
-44.0331
-35.6296
-41.9369
-41.8959
-46.9699
-36.7707
-50.0463
-42.8215
-46.1441
-46.4322
-28.922
-28.7011
-47.3628
54.6898
-67.7298
-49.7606
-61.6906
-35.5424
-30.9548
-30.8615
-32.3792
-26.8568
-42.869
-46.0193
-46.2514
-42.3413
-93.9333
-76.4939
-117.797
125.524
-55.9377
-57.5965
-58.7392
-57.8182
-38.3637
-36.9161
-43.8199
-35.5173
-49.6836
-42.8411
-45.9764
-46.3634
-68.1463
-49.7674
-61.747
-35.7378
-42.5997
-45.9806
-46.1516
-41.9025
-33.7977
-33.3988
-35.1933
-34.0692
-39.1401
-43.0277
-41.24
-40.7111
-39.7374
-39.6409
-43.6307
-37.4767
-35.6904
-39.6721
-37.3604
-38.0625
-36.9726
-37.0678
-36.3085
-39.273
-56.4661
-53.4387
-50.0503
-70.9261
11.2494
11.2842
17.4019
-15.9077
-63.7337
-63.6982
-73.3534
-59.5521
-33.7873
-33.4166
-35.2106
-34.0679
-39.0816
-42.8776
-41.1624
-40.6407
-35.6634
-39.6392
-37.3601
-37.9831
-56.6232
-53.6287
-52.037
-71.1158
-69.8263
-59.3445
-60.0741
-51.0083
-69.8261
-59.3376
-60.0707
-50.986
-60.5928
-57.1778
-57.4293
-52.5415
-31.2332
-20.8123
-20.9238
-7.07446
195.647
170.735
187.739
194.8
-37.3645
-39.6807
-38.8221
-41.8104
-37.3858
-39.6874
-38.8622
-41.8718
-35.0416
-35.5146
-35.2909
-35.0343
-100.077
-93.8278
-92.9553
-100.145
-49.8462
-45.8423
-46.0578
-44.6269
-49.6802
-45.7226
-45.947
-44.5348
-49.3891
-46.6436
-46.3868
-44.2184
-36.3771
-39.9471
-39.9299
-43.8011
-33.7637
-33.6944
-30.4829
-33.5753
-113.75
92.0131
-81.5502
73.3294
-77.3933
-68.6404
-45.8859
-36.2774
-46.2984
-37.2549
-56.2403
-50.7781
-114.432
109.587
-49.0735
61.6309
-89.2769
-53.7374
-42.3444
-34.45
-32.8657
-31.8084
-45.0221
-36.1988
-81.4585
71.9403
-113.874
89.699
-77.3874
-68.3539
-46.0467
-37.2071
-45.6812
-36.3861
-56.0135
-50.5658
-49.1516
62.1446
-114.279
109.798
-89.3083
-53.5216
-32.7518
-31.4521
-42.1433
-34.2338
-44.8115
-36.1053
-46.7206
-46.9404
-36.1232
-34.9357
-39.8857
-37.4769
-42.6867
-36.7367
-42.8901
-41.8044
-33.3771
-34.2315
-32.8057
-37.9973
-35.5971
-38.5848
-49.3385
-14.9012
-44.9203
-47.4728
-51.5237
-86.449
7.47752
-19.1773
-44.0143
-50.3747
-42.6099
-41.6956
-49.2324
-61.2725
-69.1361
-56.0014
-46.6666
-46.9528
-42.7144
-36.7107
-36.1029
-34.9034
-39.9449
-37.4412
-42.8044
-41.8281
-35.6721
-38.8101
-33.4109
-34.2653
-32.8241
-37.8849
-49.252
-14.0112
7.53446
-18.9729
-44.7349
-47.3144
-51.5458
-86.408
-44.0022
-50.4254
-69.3583
-55.6568
-42.5833
-41.6471
-49.3636
-61.4226
-84.1373
-86.8739
165.695
172.252
-68.8893
-69.0928
174.637
173.914
-66.4766
-51.3396
-58.9049
-56.5492
-54.7939
-50.2447
-35.556
-33.5187
-48.7926
-48.9718
-36.2608
-36.2317
-44.1776
-49.6133
-43.991
-50.7717
-40.4719
-40.4934
149.243
148.749
-51.399
-70.6871
-35.8742
-14.5748
-34.1019
-34.0518
-30.4579
-30.7708
-50.9247
-43.865
-44.4834
-37.1766
-84.1571
-86.8723
172.328
164.753
-66.4639
-51.3598
-58.527
-56.9118
-50.0606
-54.5843
-35.4515
-33.2893
-44.0604
-49.4438
-44.1928
-49.73
-70.6964
-51.3554
-15.0323
-36.0059
-43.812
-50.7777
-37.1242
-44.4709
-36.203
-35.127
-34.8719
-34.6652
-47.2329
-47.2996
-38.3675
-42.9159
-49.8394
-49.675
-36.0358
-36.0221
-37.091
-41.2311
-42.0535
-39.5921
-35.4663
-35.4468
-41.9052
-42.0901
-44.1106
-46.3348
-90.1767
-84.6181
3.20784
3.40585
-53.3604
-53.3131
-82.9221
-82.9907
-49.2469
-49.2295
-36.2054
-35.1523
-34.8682
-34.6898
-47.2404
-47.1994
-38.3428
-42.8915
-41.2766
-37.1146
-42.0084
-39.5498
-46.3643
-44.2366
-84.7072
-89.9005
-111.087
-63.2696
-68.3888
-116.445
-39.8755
-40.5506
-51.0448
-51.126
-49.1978
-52.3751
-50.8529
-42.7516
-100.32
-118.295
-70.1476
-72.5483
-111.414
-116.481
-68.3844
-63.2614
-100.063
-72.5741
-70.1503
-118.306
-48.8466
-42.6309
-50.8254
-52.3412
-40.0162
-51.1765
-51.04
-40.5035
-84.8494
-79.8992
-59.7028
-57.4365
-84.6586
-56.7973
-59.9061
-79.8827
-41.2701
-43.4269
-54.9879
-57.5602
-41.3178
-57.3646
-55.0843
-43.3515
-59.322
-43.6289
-32.1892
-47.6164
-18.1307
14.6565
-8.48811
-26.1886
-19.5819
-26.5459
-9.25681
14.6303
-59.9775
-47.6603
-32.266
-43.7027
-26.8168
121.445
168.278
71.9074
68.6522
85.9875
186.36
125.665
68.519
126.09
186.496
86.4481
-26.9444
70.9299
168.732
122.216
-36.7602
-35.5967
-37.8304
-38.9448
-32.7573
-35.2801
-36.9863
-34.6004
-47.927
-49.2759
-41.2005
-39.8743
-52.1096
-43.238
-42.4363
-51.1998
-36.7276
-38.892
-37.8315
-35.5964
-51.9403
-51.2789
-42.4551
-43.142
-47.922
-39.8645
-41.276
-49.4287
-32.8144
-34.6245
-37.015
-35.2845
-35.9947
-37.3666
-35.2992
-34.3374
-35.9458
-34.3201
-35.3058
-37.3109
-34.8948
-36.1316
-35.097
-34.0273
-34.8411
-34.0119
-35.094
-36.0908
-83.0219
-77.215
-94.1205
-13.1224
-58.8027
-72.8928
-92.0437
-65.1982
-58.9183
-65.3322
-92.0574
-72.9196
-82.7339
-12.942
-94.2001
-77.4413
-35.536
-43.5624
-44.5872
-37.9701
-46.9078
-45.0737
-49.5989
-50.8559
-41.8364
-46.632
-51.4237
-43.6052
-45.4334
-39.5924
-44.1069
-44.9506
-35.814
-37.8852
-44.4847
-43.4748
-45.3581
-44.9185
-44.0371
-39.5336
-41.637
-43.3905
-51.2381
-46.5438
-46.7086
-50.66
-49.4214
-44.866
-37.779
-38.9914
-44.0897
-43.7613
-37.7826
-43.7064
-44.2531
-39.0746
-46.3552
-47.0732
-49.4285
-50.0982
-46.6782
-51.0629
-50.2346
-47.1545
-52.0691
-46.0433
-44.0927
-56.1597
-34.1013
-32.4831
-36.5416
-38.7294
-33.9431
-38.7665
-36.476
-32.4365
-51.6991
-56.1073
-44.0729
-46.0998
-37.9661
-36.6403
-34.5666
-35.7653
-43.1769
-35.6756
-34.4361
-36.554
-33.7998
-28.399
-31.5129
-34.2588
-34.0438
-34.4447
-31.7635
-28.7319
-125.088
-118.136
-123.73
-41.7808
-43.2086
-45.8341
-42.2911
-1.39688
-82.6812
-36.7422
-33.7396
-36.5644
-118.722
-120.859
-124.093
-43.0272
-41.642
-45.6383
-1.45542
-42.7701
-83.0876
-33.2855
-36.5178
-36.4011
-37.3143
-36.0185
-36.6402
-37.0941
-32.6322
-31.3826
-31.8281
-35.4636
-56.2223
-54.6786
-59.8526
-73.4258
-48.3304
-48.8465
-50.6938
-51.9246
-37.2799
-37.0362
-35.9704
-36.6078
-33.4284
-35.5431
-31.5225
-32.0239
-55.464
-69.4798
-53.964
-59.2715
-48.3253
-51.9971
-48.8662
-50.7359
-93.3961
-88.4975
-131.873
31.9328
-94.0018
-94.2967
-84.5516
-137.455
-54.4271
-55.9697
-59.0797
-56.5804
-38.2454
-37.7212
-40.7051
-36.1032
-41.7881
-41.7731
-44.7346
-37.929
-47.8458
-44.0642
-45.5802
-46.1414
-29.8717
-30.1149
-47.2629
12.0284
-63.5749
-53.2676
-61.3683
-47.368
-30.9064
-30.858
-31.7312
-27.5088
-44.2034
-45.735
-45.3588
-43.945
-93.2365
-89.0683
-131.967
29.5084
-53.9393
-56.4019
-58.2506
-57.5513
-38.0798
-37.5245
-40.5067
-35.9689
-47.4478
-43.8409
-45.3889
-46.1095
-63.5888
-53.4363
-61.3696
-47.5292
-44.172
-45.7962
-45.2963
-44.0223
-34.2593
-32.8563
-33.9796
-33.8048
-39.982
-41.775
-40.3732
-40.9417
-40.2818
-40.2345
-42.2317
-38.4723
-36.43
-38.437
-36.8327
-37.8878
-37.151
-37.1769
-36.7888
-37.8973
-55.8903
-54.1272
-52.3716
-62.2944
12.1749
12.0657
18.2244
0.336842
-63.5572
-63.348
-68.4971
-56.5519
-34.2579
-32.8707
-33.994
-33.8007
-39.9093
-41.66
-40.2856
-40.8561
-36.4005
-38.4037
-36.8065
-37.8356
-56.0143
-54.3582
-52.5079
-62.4126
-64.1191
-59.5393
-59.8684
-55.1016
-64.1137
-59.5294
-59.8608
-55.0883
-57.9634
-56.7889
-57.1852
-54.4786
-25.5441
-19.5719
-19.6183
-13.0322
202.139
187.074
205.276
202.078
-38.1792
-39.4153
-38.9752
-40.3821
-38.2061
-39.4362
-39.0158
-40.4258
-35.1873
-35.351
-35.2277
-35.1703
-101.167
-105.089
-97.4585
-101.199
-47.5292
-45.89
-45.8313
-46.1323
-47.3878
-45.7698
-45.7168
-46.0174
-48.1956
-46.682
-46.5504
-45.6363
-37.9124
-39.8021
-39.7905
-41.8283
-32.863
-32.9956
-30.9919
-32.7446
-89.6998
-93.0878
-123.543
-8.6343
-100.485
-93.8352
-87.7846
-85.3335
-80.0069
-62.3211
-74.8225
-68.658
-39.5335
-38.8538
-42.0153
-36.6325
-42.5742
-42.0201
-45.2084
-38.1841
-50.1866
-51.876
-56.1575
-50.2561
-53.9096
-65.4822
-118.126
49.1846
-11.0298
-25.2265
-43.7326
30.2868
-74.7157
-73.7093
-87.9208
-59.2595
-36.6424
-36.7099
-39.7922
-34.9715
-31.8422
-31.0711
-32.0386
-31.1896
-38.0507
-40.7356
-42.9587
-37.5344
-101.306
-94.4578
-87.8931
-84.2915
-89.7912
-93.1639
-123.578
-8.48113
-79.9305
-62.2343
-74.8623
-68.4193
-42.386
-42.0249
-45.3029
-37.9293
-39.3668
-38.6754
-41.8291
-36.5311
-50.0055
-51.4462
-55.9299
-50.1152
-11.7695
-25.1554
-43.6558
30.3408
-54.3925
-65.4277
-118.233
49.1178
-74.1803
-73.8858
-87.9709
-58.4684
-31.6293
-30.9376
-31.8903
-30.8564
-36.4212
-36.5024
-39.5736
-34.7689
-37.9766
-40.5225
-42.835
-37.3885
-40.735
-51.8124
-45.5045
-45.5329
-35.1365
-34.5234
-35.4458
-34.7839
-37.5343
-38.464
-38.0502
-37.825
-38.3733
-39.2307
-40.7017
-37.5931
-44.1979
-42.2462
-42.2118
-41.6963
-32.3851
-31.8341
-33.1484
-33.5359
-32.1404
-34.6926
-33.1083
-34.4025
-35.9661
-36.7351
-36.0157
-36.5131
-49.7887
-48.9936
-50.1919
-28.3094
-48.6884
-44.4714
-45.3511
-47.3582
-58.2549
-57.0634
-53.8554
-66.5431
-4.91915
9.49395
8.85273
-4.21546
-46.8363
-46.128
-45.2192
-48.7285
-44.4657
-40.9823
-42.3306
-42.1492
-51.4328
-52.6399
-50.5747
-56.3689
-59.6689
-63.452
-65.7118
-59.0123
-40.7228
-51.9519
-45.5144
-45.5423
-38.3377
-39.1895
-40.6927
-37.5635
-35.1032
-34.5035
-35.4237
-34.7489
-37.5143
-38.4199
-37.8711
-37.7848
-43.4171
-42.5479
-42.2383
-41.7136
-36.0385
-36.9128
-36.1151
-36.6412
-32.4258
-31.8665
-33.1913
-33.5688
-32.1857
-34.6768
-33.099
-34.3773
-49.8421
-48.9202
-50.1318
-28.1193
-3.99202
9.62117
9.01718
-3.76535
-48.3784
-44.2716
-45.1132
-47.1305
-58.4012
-57.2344
-53.9439
-66.8456
-46.5131
-46.3317
-45.2209
-48.7266
-61.3039
-63.3887
-65.9771
-58.4287
-44.4072
-40.9478
-42.3097
-42.1053
-51.6802
-52.8038
-50.7327
-56.503
-100.301
-76.9588
-85.2195
-86.5549
155.723
186.064
162.071
179.116
-73.9385
-64.4993
-68.9587
-69.1251
164.786
176.158
184.3
184.378
-58.8679
-59.1447
-61.8754
-54.7765
-57.1421
-57.2811
-56.4742
-56.2993
-48.5591
-53.3909
-53.9847
-51.9516
-35.5236
-34.7869
-35.3887
-34.489
-46.6272
-50.7046
-48.7998
-48.8738
-35.8871
-35.4719
-36.2296
-36.2057
-45.9283
-45.9095
-45.311
-47.4869
-46.6222
-46.683
-45.2352
-48.3641
-43.9784
-36.2359
-40.3328
-40.3326
118.086
173.546
147.666
146.309
-60.8248
-60.3788
-55.6329
-64.8859
-29.6345
-22.6311
-30.8543
-20.2901
-32.8999
-34.9419
-33.8515
-33.8273
-28.1419
-30.1173
-29.4819
-29.6578
-47.472
-46.7768
-49.7099
-45.5333
-41.0213
-40.1787
-42.3431
-38.7335
-100.303
-76.966
-85.2349
-86.5579
156.102
185.857
178.971
161.553
-58.9437
-59.1318
-61.8264
-54.7896
-57.9664
-57.8565
-57.1244
-56.0474
-48.3426
-53.188
-51.7639
-53.782
-35.3999
-34.589
-35.2635
-34.2836
-45.7765
-45.6837
-45.1685
-47.3554
-46.3887
-46.4002
-44.8723
-47.6719
-60.8549
-60.381
-64.9006
-55.6301
-29.9343
-22.8062
-20.6335
-31.0451
-47.3511
-46.6608
-45.445
-49.6112
-41.0764
-40.1523
-38.6855
-42.3228
-35.5467
-36.4612
-35.9976
-35.4606
-34.3544
-34.8426
-34.7066
-34.5793
-43.9168
-49.3345
-47.063
-47.1976
-40.467
-39.9831
-39.2161
-41.4065
-46.5027
-52.7333
-50.3234
-50.3032
-36.9356
-35.8836
-36.2165
-36.2102
-38.1732
-38.7319
-37.9515
-39.9442
-39.208
-41.2531
-41.5428
-39.8564
-35.9822
-35.4427
-35.5947
-35.5918
-41.0301
-43.1114
-41.9514
-42.0237
-47.5535
-43.5866
-44.8169
-45.9374
-86.088
-95.9726
-95.256
-87.8417
12.2436
-0.144239
4.35862
4.98559
-36.0867
-74.3726
-54.1053
-54.1009
-78.3243
-88.5435
-83.5224
-83.5456
-52.888
-46.5899
-49.1796
-49.3389
-35.5656
-36.4793
-36.0097
-35.4828
-34.3564
-34.8665
-34.7069
-34.5931
-43.8577
-49.3191
-47.1552
-47.0257
-40.4178
-39.9724
-39.1892
-41.3796
-38.198
-38.7682
-39.9758
-37.9756
-39.1827
-41.1676
-41.4824
-39.8326
-48.5036
-43.6835
-45.9834
-44.9989
-86.3884
-96.098
-87.9396
-95.5423
-93.8245
-79.5087
-82.9199
-72.8915
-47.7572
-43.1833
-50.5486
-47.3937
-48.2454
-46.0741
-49.505
-47.4834
-102.733
-89.3564
-87.3399
-78.2492
-93.8759
-79.5485
-82.9451
-72.9027
-102.717
-89.3615
-87.335
-78.2559
-48.1636
-45.9431
-49.4609
-47.4098
-47.6859
-43.2601
-50.5369
-47.365
-74.5773
-68.7396
-68.8983
-63.6758
-74.4518
-68.4964
-68.9061
-63.4651
-47.8482
-45.1032
-53.7384
-49.3591
-47.8359
-45.0611
-53.5009
-49.1814
-47.3733
-48.436
-41.4194
-40.4361
-7.83583
1.62116
-7.43462
0.628641
-10.8276
1.67217
-8.49074
1.32085
-47.429
-48.5016
-41.4996
-40.5355
157.442
148.486
169.085
167.281
124.126
99.1015
153.587
154.75
98.8871
124.295
154.737
153.746
149.301
161.542
167.324
167.533
-36.4974
-37.1542
-36.5158
-37.5466
-33.772
-33.2891
-34.6161
-35.9651
-43.7932
-46.1415
-42.5193
-43.5171
-47.2969
-48.8656
-44.909
-46.7089
-36.481
-37.1267
-36.5079
-37.525
-47.2139
-48.8466
-44.8843
-46.7222
-43.8311
-46.2929
-42.5787
-43.6253
-33.8179
-33.3228
-34.6417
-35.9908
-35.2279
-36.0752
-35.1835
-35.7961
-36.0518
-35.2016
-35.7929
-35.1721
-35.3162
-34.6977
-35.2985
-34.8012
-34.6622
-35.2638
-34.7704
-35.2428
-71.1946
-33.5546
-71.4636
-51.8584
-69.9197
-73.2726
-80.9432
-81.2171
-73.4826
-70.2089
-81.3558
-81.14
-33.4745
-71.7898
-51.9781
-70.6113
-42.7006
-42.1584
-42.7496
-42.3562
-51.5095
-56.0306
-55.2977
-54.1575
-45.0443
-46.4877
-49.0323
-49.9591
-42.7972
-41.4747
-41.5789
-40.2452
-42.5918
-42.0852
-42.6217
-42.3206
-42.7556
-41.4191
-41.4989
-40.1813
-44.8514
-46.2874
-48.8468
-49.7701
-51.2876
-55.7964
-55.0735
-53.9482
-41.7636
-40.7492
-42.8334
-41.8424
-41.8568
-41.0215
-43.3213
-42.1502
-47.0669
-50.3628
-48.467
-52.1881
-47.0007
-50.5937
-49.2926
-53.2271
-49.7487
-52.258
-46.7469
-49.3864
-33.8152
-35.2957
-34.4061
-35.8389
-33.7356
-35.2034
-34.3353
-35.7656
-49.808
-52.2354
-46.7411
-49.3526
-36.1588
-36.4921
-35.8717
-36.2289
-36.4812
-36.2835
-36.2072
-35.7904
-32.181
-33.7381
-31.7576
-33.3331
-33.989
-32.4999
-33.5273
-32.087
-114.795
-50.7112
-97.955
-123.149
-109.634
-89.1444
-43.1324
-38.0962
-44.7432
-40.0936
-48.5343
-47.4193
-102.791
34.9757
-43.6044
38.825
-89.0986
-66.605
-39.4688
-34.7766
-33.2254
-33.4096
-40.38
-35.3065
-98.6398
-124.491
-114.707
-49.5285
-110.031
-88.8647
-44.5418
-39.4241
-42.9477
-38.01
-48.3317
-47.174
-43.4395
38.2525
-102.998
34.8244
-88.8432
-67.7027
-33.0289
-33.1467
-39.2339
-34.5487
-40.2215
-35.181
-39.1922
-40.3375
-35.9751
-35.5314
-37.7909
-37.009
-39.0096
-36.7314
-35.2397
-37.9067
-31.9211
-34.2091
-32.2272
-29.5358
-35.3188
-36.1026
-51.2396
-49.6469
-50.4243
-52.086
-55.7047
-77.323
-28.007
-62.9182
-46.9152
-49.0712
-47.7201
-46.0087
-50.1253
-54.8596
-57.1653
-53.4823
-39.1658
-40.2769
-38.9632
-36.6771
-35.9422
-35.4638
-37.6582
-36.9723
-38.5384
-37.689
-35.3791
-36.1322
-31.9813
-34.2648
-32.3039
-29.7208
-50.9003
-48.4135
-25.4404
-62.8989
-50.0154
-51.7553
-55.4991
-78.3246
-46.8805
-49.009
-57.4391
-53.6304
-47.7654
-45.9989
-50.3494
-54.7166
-127.55
23.7472
-129.199
50.2195
-116.359
-117.575
126.82
125.836
-85.9934
-139.999
-85.5033
-142.859
-79.6167
-78.6591
43.4065
42.4909
-60.6509
-56.4824
-52.6048
-57.5802
-59.7423
-55.1598
-54.9903
-57.2756
-41.3333
-36.3327
-40.2212
-34.8665
-44.6855
-44.097
-35.768
-35.1302
-44.359
-38.1195
-44.8526
-38.0641
-47.0233
-47.0333
-36.5128
-36.4625
-50.6054
-50.8577
-42.6817
-43.4483
-44.8407
-48.2049
-44.9812
-48.2477
-45.3141
8.17911
-45.3024
7.53545
-47.7082
-47.7619
83.3062
84.8714
-73.0635
-55.2542
-52.3212
-37.5526
-56.8329
-66.6138
-38.6914
-30.4166
-31.8101
-28.3682
-31.7494
-28.0905
-32.4259
-32.3956
-27.3955
-27.5918
-44.3985
-40.7268
-45.3505
-46.8669
-46.835
-45.4992
-44.3922
-40.3938
-127.59
21.958
-129.411
47.7161
-116.378
-117.558
126.011
126.82
-61.051
-55.776
-52.7423
-57.8238
-59.4827
-55.3273
-55.8106
-56.7556
-41.1407
-36.1512
-40.0046
-34.6837
-43.879
-44.4734
-35.6724
-34.9823
-50.3525
-49.7877
-42.6608
-43.3696
-44.7108
-47.9972
-44.8815
-48.4996
-73.0051
-55.2891
-52.2949
-37.5938
-66.6607
-56.8629
-30.7843
-38.7651
-44.2558
-40.633
-45.3297
-46.8896
-45.436
-46.6797
-40.1004
-44.7171
-34.2334
-33.871
-33.606
-33.6062
-35.4556
-34.9493
-34.1836
-33.9852
-39.0964
-39.2628
-42.2424
-43.4811
-40.8004
-41.7616
-39.674
-41.8773
-41.4718
-38.33
-41.4608
-38.2726
-43.6358
-43.6312
-37.5689
-37.4983
-35.1653
-36.6297
-39.3771
-39.6808
-36.2529
-38.5927
-37.7735
-38.7592
-36.53
-37.225
-36.5813
-37.2614
-36.2632
-36.2474
-39.1553
-39.2009
-53.1382
-64.6149
-51.3601
-59.0526
-49.509
-50.525
-74.2388
-67.7916
16.3393
0.467371
16.0877
0.66652
16.3338
16.1854
-14.5462
-14.261
-68.2872
-60.1306
-68.2742
-60.0848
-73.2315
-73.2436
-56.5392
-56.5352
-34.2315
-33.8513
-33.6277
-33.6206
-35.4636
-34.9694
-34.1741
-33.992
-39.0474
-39.2066
-42.0982
-43.3506
-41.6679
-40.7404
-39.6146
-41.7961
-35.1613
-36.5715
-39.3552
-39.6305
-38.5854
-36.2562
-37.7152
-38.678
-53.2569
-64.7497
-51.5507
-59.1759
-50.5464
-49.7502
-67.9509
-74.4458
-68.9522
-69.8769
-63.1301
-54.7849
-55.2944
-64.5105
-51.1308
-50.8012
-68.9508
-69.8776
-63.1171
-54.7814
-64.5118
-55.2784
-50.7658
-51.1202
-60.4415
-60.6986
-57.0114
-55.6432
-57.5057
-55.11
-53.2865
-53.2878
-31.5153
-31.5566
-26.7011
-15.0259
-15.152