# vtk DataFile Version 2.0
tet_velo
ASCII
DATASET UNSTRUCTURED_GRID
POINTS 29498 float
-0.790684 0.335 -2.285
-0.753415 0.125 2.195
-0.825 0.893323 -2.075
-0.657996 1.285 2.005
0.790679 0.335 -2.285
0.753415 0.125 2.195
0.825 0.893323 -2.075
0.657996 1.285 2.005
-0.790585 0.252676 -0.791667
-0.83822 0.122618 0.701667
-0.787394 1.04194 -0.715
-0.747364 1.18814 0.645
0.79058 0.252677 -0.791667
0.834525 0.126311 0.701667
0.787402 1.04195 -0.715
0.747353 1.18813 0.645
-1.57 -0.100161 -3.45552
-1.57564 -0.0755929 -2.31426
-1.57559 -0.174785 -0.817478
-1.58792 -0.335422 0.706137
-1.54428 -0.383866 2.20518
-1.5296 -0.356684 3.35751
-1.53594 -0.313609 4.48936
-1.57575 0.262912 -3.39846
-1.58161 0.313104 -2.27176
-1.57456 0.265255 -0.800921
-1.5814 0.164549 0.681918
-1.50874 0.152903 2.15531
-1.50678 0.181587 3.30576
-1.52459 0.217688 4.44196
-1.59069 0.924172 -3.2469
-1.60244 0.96434 -2.11469
-1.56814 1.07857 -0.734749
-1.51786 1.18909 0.635746
-1.43671 1.26552 2.01824
-1.46821 1.28366 3.17421
-1.50801 1.29416 4.3319
-1.59157 2.09366 -3.11982
-1.59333 2.16871 -2.00758
-1.57513 2.35374 -0.670866
-1.54344 2.57571 0.637108
-1.51637 2.73394 1.97521
-1.51515 2.79478 3.09037
-1.52878 2.81899 4.2335
-0.77813 -0.0852822 -3.46413
-0.787076 -0.0533983 -2.32681
-0.78632 -0.175897 -0.815795
-0.815248 -0.367243 0.722992
-0.786673 -0.411894 2.23465
-0.778289 -0.374339 3.37751
-0.784764 -0.323842 4.50093
-0.78015 0.266951 -3.40111
-0.766856 0.169957 3.32225
-0.779822 0.211595 4.45068
-0.793265 0.8945 -3.23042
-0.737506 1.29148 3.17156
-0.770559 1.29864 4.33134
-0.802977 2.06525 -3.10352
-0.809117 2.13768 -1.98962
-0.800943 2.33656 -0.660039
-0.78495 2.58063 0.635809
-0.771731 2.74987 1.96594
-0.773018 2.80973 3.0811
-0.784101 2.83017 4.22677
0.807667 -0.0851636 -3.46413
0.793959 -0.0533161 -2.32681
0.800518 -0.175434 -0.815795
0.811541 -0.364747 0.722992
0.755074 -0.410932 2.23465
0.730777 -0.37359 3.37751
0.719963 -0.323031 4.50093
0.812368 0.267021 -3.40111
0.714128 0.170455 3.32225
0.709539 0.212309 4.45068
0.818336 0.894557 -3.23042
0.682051 1.29185 3.17156
0.695317 1.29925 4.33134
0.78349 2.06542 -3.10352
0.772264 2.13784 -1.98962
0.755355 2.33679 -0.660039
0.731132 2.58099 0.635809
0.706742 2.75034 1.96594
0.700382 2.81028 3.0811
0.699267 2.83079 4.22677
1.59907 -0.0998439 -3.45552
1.587 -0.0752861 -2.31426
1.58812 -0.173697 -0.817478
1.59378 -0.331923 0.706137
1.53422 -0.38145 2.20518
1.49677 -0.354899 3.35751
1.48105 -0.311903 4.48936
1.60323 0.263129 -3.39846
1.58756 0.313245 -2.27176
1.57901 0.265885 -0.800921
1.58892 0.168184 0.681918
1.51596 0.154971 2.15531
1.47563 0.183073 3.30576
1.46649 0.219242 4.44196
1.60944 0.924352 -3.2469
1.60314 0.964441 -2.11469
1.56727 1.07881 -0.734749
1.52317 1.19038 0.635746
1.44211 1.26686 2.01824
1.43338 1.28484 3.17421
1.4444 1.29551 4.3319
1.57434 2.09405 -3.11982
1.56147 2.1691 -2.00758
1.53554 2.35428 -0.670866
1.49812 2.57653 0.637108
1.46137 2.73498 1.97521
1.44968 2.79595 3.09037
1.449 2.82027 4.2335
-0.819089 0.614162 -2.19125
-2.5034e-06 0.302072 -2.31793
-0.890417 0.194055 -1.53833
-0.817064 0.705 2.21136
0 0.121358 2.19864
-0.673159 0.246467 1.44833
0 0.900571 -2.08225
-0.781955 0.943391 -1.395
0 1.29198 2.01198
-0.72572 1.25961 1.325
0.81902 0.614162 -2.19118
0.890414 0.194054 -1.53833
0.817064 0.705 2.21136
0.673279 0.246347 1.44833
0.78196 0.943396 -1.395
0.725719 1.25961 1.325
-0.78134 0.22071 -0.0450001
-0.875894 0.64731 -0.753334
-2.30574e-06 0.120684 -0.791667
-0.875893 0.655379 0.673333
-0.00184766 0.0534963 0.701667
-0.767054 1.11472 -0.035
3.8538e-06 1.30954 -0.715
-5.37372e-06 1.39363 0.645
0.781336 0.220711 -0.0450001
0.875894 0.647315 -0.753334
0.875893 0.657221 0.673333
0.767051 1.11471 -0.035
-0.889161 0.630736 -1.46667
-0.875896 0.651345 -0.04
-0.876698 0.68019 1.38667
-2.40457e-06 0.120437 -1.53833
-0.000924981 0.120675 -0.0450001
-0.000923828 0.102622 1.44833
-1.2517e-06 0.614162 -2.25609
0 0.705 2.2704
1.9269e-06 0.981201 -1.395
-7.5996e-07 1.39363 -0.035
-2.68686e-06 1.34669 1.325
0.889162 0.630738 -1.46667
0.876003 0.652268 -0.04
0.876687 0.68111 1.38667
-1.18615 0.324052 -2.27838
-0.78888 0.140801 -2.3059
-0.785417 0.300976 -2.84305
-1.13108 0.138952 2.17515
-0.770044 -0.143447 2.21482
-0.760135 0.147478 2.75863
-1.21372 0.928832 -2.09485
-0.809132 0.893912 -2.65271
-0.817058 1.5155 -2.03231
-1.04735 1.27526 2.01162
-0.697751 1.28824 2.58828
-0.714864 2.01744 1.98547
0.792319 0.140842 -2.3059
0.801523 0.301011 -2.84305
1.18912 0.324123 -2.27838
0.754244 -0.142966 2.21482
0.733772 0.147728 2.75863
1.13469 0.139986 2.17515
0.821668 0.89394 -2.65271
0.798632 1.51558 -2.03231
1.21407 0.928882 -2.09485
0.670024 1.28843 2.58828
0.682369 2.01767 1.98547
1.05005 1.27593 2.01162
-1.18257 0.258966 -0.796294
-0.788452 0.0383894 -0.803731
-1.20981 0.143583 0.691792
-0.826734 -0.122313 0.71233
-1.17776 1.06026 -0.724875
-0.794168 1.68925 -0.687519
-1.13261 1.18862 0.640373
-0.766157 1.88439 0.640405
0.795549 0.0386216 -0.803731
1.1848 0.259281 -0.796294
0.823033 -0.119218 0.71233
1.21172 0.147248 0.691792
0.771378 1.68937 -0.68752
1.17734 1.06038 -0.724875
0.739242 1.88456 0.640405
1.13526 1.18926 0.640373
-1.57282 -0.0878768 -2.88489
-1.57288 0.0813755 -3.42699
-1.17406 -0.0927214 -3.45983
-1.57561 -0.125189 -1.56587
-1.57863 0.118755 -2.29301
-1.18136 -0.0644956 -2.32053
-1.58175 -0.255103 -0.0556707
-1.57507 0.0452349 -0.809199
-1.18095 -0.175341 -0.816636
-1.5661 -0.359644 1.45566
-1.58466 -0.0854362 0.694027
-1.20158 -0.351332 0.714565
-1.53694 -0.370275 2.78134
-1.52651 -0.115481 2.18024
-1.16548 -0.39788 2.21991
-1.53277 -0.335147 3.92344
-1.51819 -0.0875488 3.33164
-1.15394 -0.365512 3.36751
-1.53027 -0.0479603 4.46566
-1.16035 -0.318725 4.49514
-1.57868 0.288008 -2.83511
-1.58322 0.593542 -3.32268
-1.17795 0.264932 -3.39978
-1.57809 0.289179 -1.53634
-1.59202 0.638722 -2.19322
-1.57798 0.214902 -0.0595014
-1.57135 0.671913 -0.767835
-1.54507 0.158726 1.41861
-1.54963 0.676821 0.658832
-1.50776 0.167245 2.73054
-1.47272 0.709211 2.08678
-1.51568 0.199638 3.87386
-1.4875 0.732624 3.23999
-1.13682 0.175772 3.31401
-1.5163 0.755924 4.38693
-1.1522 0.214642 4.44632
-1.59656 0.944256 -2.6808
-1.59113 1.50892 -3.18336
-1.19198 0.909336 -3.23866
-1.58529 1.02146 -1.42472
-1.59788 1.56652 -2.06113
-1.543 1.13383 -0.0495013
-1.57163 1.71616 -0.702807
-1.47728 1.22731 1.32699
-1.53065 1.8824 0.636427
-1.45246 1.27459 2.59623
-1.47654 1.99973 1.99673
-1.48811 1.28891 3.75306
-1.49168 2.03922 3.13229
-1.10286 1.28757 3.17288
-1.5184 2.05658 4.2827
-1.13929 1.2964 4.33162
-1.59245 2.13119 -2.5637
-1.19727 2.07946 -3.11167
-1.58423 2.26123 -1.33922
-1.20122 2.15319 -1.9986
-1.55929 2.46473 -0.0168789
-1.18804 2.34515 -0.665452
-1.5299 2.65483 1.30616
-1.1642 2.57817 0.636459
-1.51576 2.76436 2.53279
-1.14405 2.74191 1.97057
-1.52196 2.80689 3.66194
-1.14408 2.80225 3.08574
-1.15644 2.82458 4.23014
-0.782603 -0.0693402 -2.89547
-0.77914 0.0908346 -3.43262
0.0147681 -0.0852229 -3.46413
-0.786698 -0.114648 -1.5713
0.00344133 -0.0533572 -2.32681
-0.800784 -0.27157 -0.0464012
0.00709891 -0.175666 -0.815795
-0.800961 -0.389568 1.47882
-0.00185349 -0.365995 0.722992
-0.782481 -0.393117 2.80608
-0.0157999 -0.411413 2.23465
-0.781526 -0.349091 3.93922
-0.772572 -0.102191 3.34988
-0.0237561 -0.373965 3.37751
-0.782293 -0.0561233 4.47581
-0.0324003 -0.323436 4.50093
-0.786708 0.580726 -3.31576
0.0161088 0.266986 -3.40111
-0.773339 0.190776 3.88647
-0.752181 0.730716 3.24691
-0.0263637 0.170206 3.32225
-0.775191 0.755118 4.39101
-0.0351416 0.211952 4.45068
-0.798121 1.47987 -3.16697
0.0125357 0.894529 -3.23042
-0.754033 1.29506 3.75145
-0.755262 2.0506 3.12633
-0.0277273 1.29166 3.17156
-0.77733 2.06441 4.27905
-0.0376213 1.29895 4.33134
-0.806047 2.10146 -2.54657
-0.00974352 2.06533 -3.10352
-0.80503 2.23712 -1.32483
-0.0184262 2.13776 -1.98962
-0.792946 2.4586 -0.0121149
-0.0227941 2.33667 -0.660039
-0.778341 2.66525 1.30087
-0.0269092 2.58081 0.635809
-0.772374 2.7798 2.52352
-0.0324943 2.75011 1.96594
-0.77856 2.81995 3.65394
-0.0363177 2.81 3.0811
-0.0424171 2.83048 4.22677
0.800813 -0.0692398 -2.89547
0.810017 0.0909288 -3.43262
1.20337 -0.0925037 -3.45983
0.797238 -0.114375 -1.5713
1.19048 -0.0643011 -2.32053
0.806029 -0.270091 -0.0464012
1.19432 -0.174565 -0.816637
0.783307 -0.387839 1.47882
1.20266 -0.348335 0.714565
0.742925 -0.392261 2.80608
1.14465 -0.396191 2.21991
0.72537 -0.34831 3.93922
0.722453 -0.101567 3.34988
1.11378 -0.364244 3.36751
0.714751 -0.055361 4.47581
1.10051 -0.317467 4.49514
0.815352 0.580789 -3.31576
1.2078 0.265075 -3.39978
0.711834 0.191382 3.88647
0.69809 0.731154 3.24691
1.09488 0.176764 3.31401
0.702428 0.755781 4.39101
1.08801 0.215776 4.44632
0.800913 1.47999 -3.16697
1.21389 0.909455 -3.23866
0.688684 1.29555 3.75145
0.691217 2.05106 3.12633
1.05772 1.28835 3.17288
0.697292 2.06502 4.27905
1.06986 1.29738 4.33162
0.777877 2.10163 -2.54657
1.17892 2.07973 -3.11167
0.76381 2.23732 -1.32483
1.16686 2.15347 -1.9986
0.743243 2.45889 -0.012115
1.14545 2.34553 -0.665453
0.718937 2.66566 1.30087
1.11463 2.57876 0.636458
0.703562 2.78031 2.52352
1.08406 2.74266 1.97057
0.699825 2.82053 3.65394
1.07503 2.80311 3.08574
1.07413 2.82553 4.23014
1.59304 -0.087565 -2.88489
1.60115 0.0816426 -3.42699
1.58756 -0.124491 -1.56587
1.58728 0.118979 -2.29301
1.59095 -0.25281 -0.0556708
1.58357 0.0460941 -0.809199
1.564 -0.356686 1.45566
1.59135 -0.0818694 0.694027
1.5155 -0.368174 2.78134
1.52509 -0.113239 2.18024
1.48891 -0.333401 3.92344
1.4862 -0.0859128 3.33164
1.47377 -0.0463304 4.46566
1.59539 0.288187 -2.83511
1.60633 0.593741 -3.32268
1.58328 0.289565 -1.53634
1.59535 0.638843 -2.19322
1.58397 0.217034 -0.0595015
1.57314 0.672346 -0.767835
1.55244 0.161578 1.41861
1.55604 0.679282 0.658832
1.4958 0.169022 2.73054
1.47903 0.710914 2.08678
1.47106 0.201158 3.87386
1.45451 0.733956 3.23999
1.45545 0.757376 4.38693
1.60629 0.944397 -2.6808
1.59189 1.5092 -3.18336
1.58521 1.02162 -1.42472
1.5823 1.56677 -2.06113
1.54522 1.13459 -0.0495014
[...]
POINT_DATA 29498
VECTORS point_vectors float
-6.0238 -4.58403 7.08274
0.195771 0.505497 2.45113
-5.59653 4.74936 8.87158
0.319985 -0.133305 1.56971
6.04 -4.57921 7.1053
-0.050456 0.402427 1.94422
5.49327 4.76496 9.35121
-0.338618 -0.089522 1.47687
0.000186528 0.00141171 0.00823485
-0.0879039 -0.0389339 0.762695
0 0 0
0 0 0
-0.000177489 0.00149665 0.00843448
0.0414962 0.00511101 0.592518
0 0 0
-3.90268e-18 1.48272e-17 3.51411e-17
-0.623221 -0.23939 19.8307
-1.44118 -0.67992 20.4827
-0.510378 -0.305558 21.5368
-0.11395 -0.00653707 21.683
0.334739 0.336257 21.6641
0.569778 0.554225 21.2014
0.668709 0.188046 20.5952
-0.744956 -0.139534 19.7102
-1.90419 -0.458119 20.4584
-0.614714 -0.414125 21.6522
-0.0935317 -0.0453512 21.7604
0.636846 0.287159 21.7846
1.05618 0.436385 21.4867
1.13423 0.153474 21.3409
-0.880323 0.200848 19.7083
-1.88453 0.357623 20.5704
-1.29654 -0.165051 21.624
-0.297018 -0.209583 21.9396
0.543926 -0.432853 21.8538
0.968605 -0.610031 21.5596
0.818515 -0.493681 21.2514
-0.495396 0.396849 20.0796
-0.756362 0.600269 20.5692
-0.634121 0.454414 21.2913
-0.221556 0.109894 21.5149
0.025475 -0.155333 21.45
0.180293 -0.303262 21.3341
0.22032 -0.30792 21.1724
-0.580743 -0.51121 19.245
-3.16048 -3.84871 19.6547
-0.572837 -0.125902 21.4819
-0.406045 -0.210604 21.7481
-0.02375 0.660931 21.715
0.244833 1.06997 21.4125
0.272353 1.03092 21.9441
-0.782589 -0.327185 18.8236
0.942166 1.99653 12.5832
1.6036 1.15944 14.1863
-0.983531 0.484377 18.6537
1.70191 -0.824743 12.3481
1.45266 -1.0229 18.4794
-0.417546 0.739677 19.7991
-0.753536 1.31405 20.4082
-0.708196 1.10844 21.405
-0.204866 0.235739 21.7967
0.0352123 -0.200393 21.5909
0.126446 -0.407612 21.6373
0.148942 -0.402523 21.0772
0.589276 -0.504365 19.2661
3.168 -3.7974 19.6655
0.554655 -0.118816 21.5048
0.354801 -0.224097 21.6859
0.0213192 0.384634 21.4577
-0.155244 0.602311 21.7696
-0.375315 1.00927 21.4691
0.794768 -0.324469 18.8409
-0.0751897 1.67622 7.35317
-1.31452 0.547731 10.7824
0.986609 0.463996 18.6971
-1.74765 -0.502044 10.8677
-1.58469 -0.982296 17.3184
0.404668 0.748739 19.7865
0.728822 1.36104 20.3905
0.681438 1.13747 21.4014
0.179327 0.257024 21.8012
-0.054995 -0.189693 21.6016
-0.132574 -0.378389 21.5531
-0.154459 -0.402585 21.0906
0.617203 -0.224485 19.8436
1.43009 -0.665622 20.4898
0.506513 -0.311581 21.5146
0.101348 -0.0275497 21.638
-0.261036 0.259428 21.605
-0.455137 0.455072 21.2616
-0.642926 0.276529 20.8772
0.73259 -0.130547 19.7379
1.89445 -0.458619 20.4601
0.605698 -0.41243 21.6391
0.0926494 -0.0481762 21.7195
-0.500273 0.260304 21.6842
-0.900101 0.411689 21.7551
-1.1435 0.352369 21.5295
0.868805 0.198598 19.7272
1.88966 0.347396 20.5682
1.28033 -0.158465 21.6271
0.293077 -0.190248 21.9138
-0.509254 -0.348928 21.7988
-0.954415 -0.550506 21.6511
-1.00827 -0.440538 20.8678
0.492603 0.40217 20.0786
0.756515 0.614364 20.5564
0.638268 0.479623 21.2885
0.210135 0.115097 21.5211
-0.0485731 -0.148942 21.4319
-0.213298 -0.287996 21.3442
-0.244918 -0.329846 21.1824
-3.40135 -0.0787935 3.27729
-3.80604e-05 -0.0159094 0.00867577
-0.0882569 -0.146152 1.16278
0.0247563 -0.0163924 0.134347
-0.0757733 0.0136633 0.0206073
0 0 0
-0.000341932 0.499945 1.64482
-0.23519 -0.0795195 0.360075
-0.015223 -0.0758075 0.254866
0.0590898 0.0553401 0.370391
3.37531 -0.0785211 3.26508
0.0867634 -0.147932 1.16158
-0.0408612 0.0685961 0.113295
0 0 0
0.235327 -0.0794856 0.36154
-0.0628498 0.062861 0.361706
-0.00678987 0.0206983 0.199248
1.98729e-06 -3.35183e-06 0.000243161
0 0 0
0 0 0
0.00255567 -0.0228878 0.0814911
0 0 0
-0.00126389 1.0915 1.62247
2.94792e-06 -1.30973e-06 0.000637485
0.00630534 0.0194561 0.19979
-2.01038e-06 -3.35027e-06 0.000247247
0 0 0
0 0 0
-0.00044505 -0.00206897 0.0154063
0 0 0
0 0 0
0 0 0
0 0 0
0 0 0
0 0 0
-0.00123144 0.0108416 -0.00281322
8.49791e-08 -2.15001e-06 -1.33861e-05
-2.45069e-08 -6.81796e-07 -3.80196e-05
-7.75864e-06 -3.96834e-05 0.000540645
0.000433724 -0.00202206 0.0150316
0 0 0
6.29057e-07 -1.23881e-05 -0.000125408
-3.6968 -1.18779 20.2472
-5.83194 -5.37933 18.796
-2.1186 -1.05512 17.5648
0.859682 0.761847 20.7046
0.119956 0.955783 18.9393
0.477417 1.27584 9.39981
-3.60926 0.991715 20.6419
-2.79782 1.7934 17.1855
-1.80174 2.32453 20.2381
0.836992 -0.279673 18.5774
1.05909 -0.251873 8.26742
0.0997457 -0.495201 21.8616
5.82595 -5.31005 18.8142
2.13212 -1.05172 17.6132
3.67073 -1.17907 20.2451
-0.052242 0.59006 18.146
1.11293 1.17883 5.17081
-0.625938 0.691728 20.3999
2.80212 1.75765 17.2451
1.78603 2.37664 20.2251
3.59722 0.992475 20.6323
-1.05286 0.050914 7.19813
-0.13166 -0.449259 21.8582
-0.83857 -0.178723 18.5871
-0.17131 -0.568912 21.7099
-0.0478642 0.437793 11.7803
-0.217476 0.0654343 21.535
-0.433473 -0.433442 19.181
-2.43186 -0.817559 21.4868
-2.17531 2.3402 21.7105
-0.467731 -0.405518 20.2908
-0.472783 0.314056 22.2689
0.0399426 0.437787 12.0941
0.176544 -0.5752 21.7063
0.33354 -0.408515 18.9253
0.20692 0.0502516 21.444
2.15335 2.45126 21.7072
2.42872 -0.81176 21.4707
0.439583 0.34306 22.2731
0.457425 -0.374277 20.2637
-1.05447 -0.46677 19.9461
-0.708684 -0.200895 19.7717
-0.654265 -0.347572 19.5673
-1.04112 -0.554995 21.2812
-1.68026 -0.614879 20.4662
-2.20333 -1.48394 20.3321
-0.231301 -0.0826891 21.5963
-0.577178 -0.355633 21.5885
-0.448191 -0.290847 21.7628
0.120979 0.171251 21.7165
-0.108896 -0.0177717 21.7133
-0.221248 -0.0252058 21.7667
0.478714 0.463947 21.5632
0.460654 0.361465 21.7009
0.276485 0.552189 21.763
0.682549 0.477163 21.2267
0.806088 0.498091 21.4123
0.527286 0.754117 21.3911
0.90135 0.169118 20.9682
0.592133 0.709018 21.0763
-1.35366 -0.289162 19.8034
-0.846963 -0.00121762 19.6918
-0.847633 -0.232476 19.3507
-1.34143 -0.499194 21.4186
-2.01524 -0.0783504 20.5308
-0.275764 -0.219281 21.6503
-0.950489 -0.453423 21.6648
0.264658 0.116845 21.8741
-0.115886 -0.147847 21.96
0.896274 0.391394 21.636
0.823031 -0.0466492 21.7933
1.06676 0.375097 21.4502
1.30611 -0.0865251 21.3427
1.33681 0.999774 20.406
1.24211 -0.252125 21.5661
1.30528 0.805014 20.0886
-1.48154 0.342046 19.8839
-0.698314 0.410141 19.8765
-1.03971 0.35372 19.2382
-1.63429 0.0824672 21.23
-1.28393 0.7015 20.5061
-0.760825 -0.210758 21.8603
-1.1179 0.40483 21.4337
0.125904 -0.290046 21.9436
-0.346044 0.0240139 21.7725
0.826909 -0.508856 21.7003
0.17297 -0.3088 21.748
0.978181 -0.531491 21.4428
0.492516 -0.475019 21.4851
1.32812 -0.855953 20.1007
0.54652 -0.54494 20.8251
1.48789 -0.646575 19.524
-0.649838 0.537094 20.2688
-0.494838 0.571267 19.938
-0.746625 0.590637 20.9446
-0.817199 0.933385 20.4885
-0.434395 0.290973 21.4611
-0.714901 0.713474 21.3679
-0.0772347 -0.0578058 21.5652
-0.209331 0.142502 21.7283
0.132456 -0.215457 21.4448
0.0261299 -0.216778 21.5734
0.217073 -0.243708 21.146
0.15705 -0.375425 21.6189
0.233017 -0.4286 21.2209
-1.35813 -1.42392 18.7063
-0.69686 -0.42301 19.0027
0.0103407 -0.677542 18.8598
-1.4404 -1.42706 22.6007
-0.0155925 -7.11186 18.7709
-0.470463 -0.0891234 21.6391
-0.010745 -0.747825 18.8691
-0.176304 0.344616 21.7996
-0.0200287 -0.64578 20.7328
0.13479 0.949339 21.4762
-0.21929 0.176016 20.5324
0.711118 1.21716 20.814
0.53968 1.51591 18.423
-0.452994 0.662367 20.2597
0.895177 1.15975 18.7923
-0.0623019 0.966488 16.5192
-0.911933 0.0205568 18.6612
0.0159158 -0.446945 18.2944
1.21908 1.53706 13.1434
1.53812 0.705173 5.61658
0.125984 -0.290231 -2.0726
2.33763 0.292401 11.9128
0.338498 0.823234 5.30977
-0.699164 0.844743 19.2645
0.0143894 0.774108 17.9038
1.68631 -1.21326 14.9209
0.291092 -0.899933 21.5676
-0.222389 -0.86106 5.71631
0.277502 -0.731023 20.9288
0.0676745 -2.05769 10.0127
-0.605543 1.08485 20.0093
-0.00597403 0.940725 19.6259
-0.820335 1.2882 20.8971
-0.0214848 1.78622 20.2785
-0.426397 0.651472 21.7198
-0.0320129 1.58985 21.4755
-0.0615382 -0.0578884 21.766
-0.0223867 0.317389 21.9064
0.0589024 -0.328722 21.6273
-0.0224986 -0.243083 21.6943
0.122666 -0.376863 21.611
-0.0140283 -0.428026 21.8687
-0.0433057 -0.518879 21.1547
1.36158 -1.39555 18.728
0.707558 -0.416999 19.0171
0.652884 -0.340744 19.5767
1.41311 -1.40922 22.5477
2.18031 -1.4571 20.3298
0.443369 -0.0868154 21.6323
0.442039 -0.301825 21.7465
0.141066 0.280343 21.6855
0.203913 -0.0461839 21.7223
-0.0289834 0.382494 21.3446
-0.191705 0.397664 21.6374
-0.372186 0.861829 21.1642
-0.0605091 0.993555 16.0072
-0.385014 0.590873 21.5505
-0.838897 0.805773 16.3289
-0.5422 0.746711 21.0606
0.930902 0.0218495 18.6894
0.854076 -0.225697 19.3827
-0.609273 1.10958 8.91326
-1.19132 0.360136 4.49681
-0.8631 1.01326 18.751
-2.04533 -0.17352 8.5557
-1.20212 0.800483 18.3202
0.69421 0.84375 19.2665
1.03119 0.337618 19.271
-1.65342 -1.31465 13.7577
-0.290691 -0.863354 21.5313
-1.37139 -0.711916 19.3673
-0.276231 -0.744989 21.0938
-1.51862 -0.516734 19.6159
0.586442 1.10593 19.994
0.487606 0.579458 19.9257
0.791823 1.3442 20.8859
0.810647 0.966204 20.4769
0.399797 0.679035 21.7238
0.707482 0.756131 21.373
0.0376238 -0.0338333 21.767
0.191457 0.165273 21.738
-0.0931897 -0.309469 21.6071
-0.0580959 -0.182873 21.6142
-0.104844 -0.335671 21.5162
-0.165051 -0.374609 21.6491
-0.242898 -0.425211 21.1814
1.04073 -0.453651 19.9607
0.692025 -0.185756 19.8046
1.01854 -0.544603 21.289
1.65572 -0.603696 20.4771
0.234366 -0.0917617 21.5673
0.574144 -0.353893 21.5781
-0.113448 0.14096 21.674
0.0997057 -0.0328649 21.6742
-0.364648 0.348441 21.5803
-0.359966 0.29915 21.6214
-0.62155 0.469916 21.3259
-0.674105 0.47087 21.4114
-0.893213 0.314449 21.2033
1.34155 -0.280804 19.8102
0.829452 -0.0022564 19.7114
1.33763 -0.499828 21.3985
2.01022 -0.0808302 20.5379
0.268775 -0.216249 21.6312
0.940611 -0.450501 21.6518
-0.233161 0.10656 21.8073
0.118441 -0.14259 21.9209
-0.669405 0.37349 21.5829
-0.714853 0.0272986 21.7194
-1.1284 0.456836 21.316
-1.1983 -0.0256751 21.2457
-1.4201 -0.0926838 21.3824
1.45726 0.340165 19.9027
0.695918 0.416729 19.8892
1.62551 0.0791035 21.2354
1.29305 0.712694 20.4982
0.75343 -0.201625 21.8449
1.12579 0.421717 21.4296
-0.12 -0.247871 21.9009
0.340579 0.0409152 21.777
-0.772847 -0.40516 21.6913
-0.189528 -0.282267 21.693
-0.934909 -0.540894 21.5517
-0.494935 -0.416045 21.5073
-0.517273 -0.54099 20.9999
0.647943 0.547388 20.2491
0.743912 0.612113 20.9378
0.439271 0.310937 21.4608
0.0616626 -0.042084 21.5539
-0.14514 -0.209354 21.4387
-0.21911 -0.253197 21.1689
-1.2131 -0.404435 19.8804
-1.78535 -1.3368 18.1034
-1.33018 -0.818445 19.5
-1.89431 -0.56293 19.0216
-0.767818 -0.30386 19.4607
-2.91677 -1.49256 20.3184
-1.19376 -0.542657 21.3526
0.355928 -1.17224 13.8912
-1.31075 -0.97051 21.7608
-1.62878 -0.872323 22.1416
-0.299706 -0.313595 21.8712
-0.261528 -0.1685 21.5923
-0.0576336 0.163462 16.2046
-0.273785 -0.0837434 21.6172
0.000946373 -0.157434 21.1626
-0.264151 0.00882598 21.8188
0.194414 0.184705 21.8079
-0.00990928 0.712163 17.0461
0.0529408 0.301516 21.8665
0.586862 0.505441 20.4364
0.471011 0.714073 21.7583
0.632873 0.478712 21.5962
0.325617 1.28363 18.374
0.440248 0.707824 21.5651
1.22564 0.932567 20.664
1.0363 1.10614 21.2273
0.764841 0.481142 21.1876
0.612435 1.63865 18.6837
0.621335 0.811802 20.7874
1.63883 0.885452 20.1743
0.97113 0.97347 21.1525
-1.51299 -0.0235293 19.8128
-2.84402 0.225504 16.7997
-2.26032 0.751656 19.0776
-1.01159 0.00924748 19.2085
-4.42119 -0.169538 20.4788
-1.56345 -0.282 21.4077
-2.52083 -0.0885357 21.6201
-0.797795 -1.06249 19.8215
-0.465946 -0.312792 21.8266
-1.20967 -0.705287 20.7419
0.0732933 0.22437 18.3506
0.32654 -0.0922812 21.9838
0.227603 -0.159748 19.3047
1.12403 0.626228 16.7027
1.13659 -0.0607862 21.6115
0.100663 1.08056 2.04681
1.09871 -0.580273 19.5038
1.82428 0.196598 17.7523
1.27083 -0.172746 21.7476
2.24349 0.342175 9.11424
1.28704 -0.962064 20.2543
2.01405 -0.106906 17.8868
-1.03838 0.604606 20.0914
-1.30427 1.75371 19.3196
-0.682833 0.805392 20.1483
-0.770654 0.61288 19.5987
-1.65785 1.29104 20.3984
-1.27762 0.580528 20.9979
-1.92573 2.05502 20.7255
-0.823893 0.896106 20.9318
-1.66643 0.930295 21.6047
-0.746807 0.202614 21.7205
-1.12865 1.03638 22.4112
-0.460182 0.404725 21.6358
-0.436901 0.135841 22
-0.0565398 -0.153973 21.7816
-0.117453 -0.157409 22.137
-0.0856589 -0.0918278 21.6899
0.147145 -0.428041 21.7919
0.350603 -0.486082 21.5233
0.197347 -0.720307 21.7279
0.0889813 -0.322183 21.5214
0.450688 -0.639386 21.2813
0.44865 -0.548364 21.2925
0.345705 -0.906788 21.7019
0.194837 -0.370139 21.4115
0.379265 -0.547268 21.4354
1.79061 -1.32342 18.121
0.0108982 -2.18198 17.6944
0.0188725 -1.68198 15.6225
0.0112082 -0.591023 18.5571
-0.034479 -10.895 15.978
-0.330888 -1.26031 14.4306
-0.00444513 -2.05217 21.2597
-0.0514589 -0.0604595 6.23725
0.0341242 0.155552 16.1957
-0.0169001 -0.615666 20.6435
0.0255485 -0.631366 13.001
-0.023097 0.629877 16.5032
-0.0917963 -0.0957835 20.5855
-0.572366 0.248555 12.4467
0.15074 0.511334 16.7202
-0.40628 0.280981 19.8084
-0.931328 -0.132722 -1.23439
-0.590014 0.661389 10.4349
-0.167511 1.30119 15.0859
-0.45365 0.810176 19.5292
0.287422 -0.363244 -0.549877
0.0768929 0.906172 8.49336
2.83899 0.214266 16.9133
0.0227075 3.31187 14.8345
0.0174638 0.115352 17.8519
-0.279282 2.23744 1.5115
-0.47967 -0.113634 3.20318
0.322756 -1.86063 -2.12677
-1.80052 0.0561828 6.11463
-0.0258045 -1.5368 9.23675
0.386703 -0.974832 2.2293
1.29013 1.7683 19.3097
-0.0130354 1.45063 19.8162
-0.000479277 1.21771 18.9123
-0.0366661 3.68385 19.9588
1.89703 2.10885 20.7077
-0.028044 1.76815 20.8189
-0.0451017 3.91363 21.7473
1.09742 1.0978 22.4319
-0.029732 0.922487 21.8559
-0.0304986 0.59257 22.4956
0.0838111 -0.128104 22.1304
-0.0237243 -0.0481878 21.8269
-0.0402787 -0.449198 22.0086
-0.224161 -0.663839 21.7233
-0.024254 -0.368858 21.8509
-0.0237775 -0.986005 21.5261
-0.367337 -0.875875 21.6479
-0.0111338 -0.589655 21.5381
0.0619116 -1.15215 21.6936
1.19695 -0.397745 19.8962
1.30831 -0.780746 19.5265
1.86127 -0.54523 19.0708
0.768436 -0.29732 19.4718
2.8906 -1.47298 20.3132
1.17503 -0.525749 21.3426
1.30319 -0.959922 21.7359
1.62378 -0.871996 22.1232
0.304504 -0.329625 21.8465
0.259964 -0.171189 21.5587
0.256408 -0.0941618 21.5993
-0.00921061 -0.172187 21.156
0.249159 -0.00926296 21.7602
-0.176353 0.161368 21.7423
-0.0522333 0.250982 21.7935
-0.551168 0.477891 20.3539
-0.319589 0.570646 21.546
-0.462392 0.397723 21.575
-0.239653 0.478836 21.592
-0.663935 0.87995 19.9718
-0.675715 1.017 21.0721
-0.759028 0.474342 21.1166
-0.552599 0.762349 20.9311
-1.39689 1.12773 19.5905
-0.853398 1.16899 20.8991
1.48976 -0.0247933 19.8265
2.22988 0.738598 19.1073
0.994851 0.0106432 19.2499
4.39535 -0.16692 20.4693
1.55917 -0.277909 21.3978
2.51368 -0.0852256 21.6078
0.797132 -1.06098 19.8579
0.463817 -0.306293 21.8064
1.20364 -0.692347 20.7525
-0.074864 0.209167 18.4203
-0.29476 -0.0674325 21.9423
-0.230398 -0.112908 19.2955
-1.02196 0.794488 16.5166
-0.966409 0.00540849 21.5254
-1.0929 -0.374658 19.1321
-1.71582 0.673334 16.234
-1.40819 -0.12347 21.4323
-1.36952 -0.944309 19.4246
-1.9744 -0.0129285 16.3824
1.04048 0.613354 20.0723
0.676553 0.823271 20.1376
0.766354 0.608974 19.5941
1.66102 1.33089 20.3834
1.28229 0.595606 21.0022
0.81344 0.934432 20.9217
1.67758 0.979805 21.6021
0.756358 0.216259 21.7114
0.451336 0.43997 21.6346
0.424085 0.163626 22.0028
0.0419274 -0.129978 21.775
0.0528534 -0.0695913 21.6863
-0.172754 -0.382285 21.7809
-0.35084 -0.422335 21.5469
-0.120453 -0.303021 21.5825
-0.462629 -0.597771 21.2848
-0.428215 -0.493588 21.3731
-0.211595 -0.391297 21.3965
-0.397234 -0.572629 21.5898
-1.59063 -0.760689 19.2645
-1.50402 -0.920821 21.963
-0.167688 -0.0585665 21.6356
0.214877 0.444548 21.8774
0.723471 0.910365 21.5057
1.01499 1.00515 21.1041
-2.38027 0.0372164 18.8667
-2.16388 -0.766705 22.3679
-0.133352 -0.517716 18.8734
0.592417 0.467401 17.4313
1.57404 0.411785 17.7219
2.04454 0.00405584 17.3313
-1.26464 1.04599 19.7638
-1.70651 1.08028 20.9673
-0.98819 0.498589 22.0061
-0.0760157 -0.174338 21.9452
0.306925 -0.584053 21.623
0.384342 -0.744831 21.6371
0.0155408 -2.18974 16.6951
0.00730281 -0.0981811 4.9422
-0.0297156 -0.176655 9.38759
-0.199458 0.127341 11.8017
-1.21319 0.192271 11.1976
-0.137373 1.10037 9.84284
0.0254312 0.517219 13.9497
0.49791 -0.141297 -0.445842
1.18964 -1.64597 -0.803483
-0.0106816 2.63215 18.7402
-0.0362037 3.36196 20.3
-0.0355533 1.74648 22.76
-0.0321942 -0.0409858 22.2509
-0.0371984 -0.717349 21.8797
-0.017818 -0.994806 21.6256
1.57049 -0.72561 19.2967
1.50048 -0.919355 21.9337
0.154623 -0.0705707 21.6114
-0.198902 0.400863 21.7657
-0.360382 0.696571 21.3449
-0.879358 1.20114 21.035
2.33912 0.033718 18.9168
2.1555 -0.76307 22.36
0.130919 -0.524209 18.9447
-0.572065 0.491965 17.4514
-1.30482 0.833526 16.6413
-2.0515 -0.00195136 15.3256
1.26264 1.0563 19.7508
1.71968 1.1184 20.9548
0.985725 0.529022 22.015
0.0574733 -0.145313 21.9401
-0.325745 -0.535132 21.6393
-0.415146 -0.740789 21.693
-4.34203 -1.04877 4.81119
-0.0367192 -0.183012 0.140096
0.0681981 -0.0839364 0.508683
0.163054 0.0785007 0.538021
-0.102115 0.0871156 0.14522
-0.0202585 0.0132077 0.538967
-3.6599 0.939834 3.38163
-0.0538854 0.229947 0.709572
-0.15319 -0.0220735 0.478776
0.113931 -0.0144378 0.433584
0.00546101 -0.120564 0.438114
0.0372555 0.00823459 0.233199
0.0420842 -0.183606 0.135737
4.38858 -1.0409 4.90535
-0.0690878 -0.0876236 0.505516
-0.00871271 -0.0191304 -0.025221
-0.0839808 0.16477 0.409599
0.0204181 0.0140425 0.447131
0.0537534 0.229976 0.70908
3.55944 0.920777 3.31871
0.154392 -0.0218716 0.479889
-0.0411907 -0.110979 0.415034
-0.146583 0.0297617 0.43134
-0.0412456 0.0162688 0.220378
0.0741614 -0.00807058 1.5509
-0.000564037 0.00344091 0.0536025
0 0 0
0 0 0
0.00231555 0.01545 0.318136
-0.0227772 0.0585144 0.281267
0 0 0
0 0 0
-0.195665 -0.0139031 0.029765
0.00557066 0.0238081 0.11265
0.000128324 0.000472808 0.000578071
-0.0209362 0.0517533 0.0644907
0.0444528 0.117976 0.363477
0.0488152 0.0964007 0.337358
0 0 0
0.000366567 -1.40024e-05 0.00325867
-0.077195 -0.0125827 1.55028
0 0 0
0.000516277 0.00327324 0.0538499
0 0 0
-0.00777398 0.0138269 0.433095
0 0 0
0.0192057 0.0490874 0.284907
0 0 0
0.19659 -0.0140437 0.0299168
0.0206462 0.051636 0.0644934
-0.00554765 0.0237125 0.112699
-0.000133296 0.000491079 0.000598639
-0.0459332 0.121643 0.357733
-0.000397464 -1.36455e-05 0.00325109
-0.049343 0.0966509 0.330236
0 0 0
1.84184e-05 -4.56849e-05 -0.000289733
-0.0088576 0.0172411 0.00951804
3.00772e-05 -0.00033397 0.00756798
-0.000682009 -0.0963484 0.0454189
-0.00142913 -0.000212259 0.0258402
5.72329e-06 1.98664e-07 3.29261e-05
0.000137228 0.00115513 0.00737878
-0.010696 0.0265338 -0.00793092
7.15215e-07 -2.3217e-08 -5.72881e-06
-6.76244e-05 0.000111474 -9.03763e-06
0 0 0
0 0 0
0 0 0
0 0 0
0 0 0
0 0 0
-3.89222e-05 7.33571e-05 -2.37502e-05
0 0 0
0 0 0
0.000224546 -0.000147151 0.00200888
0.00959646 0.0187029 0.0103273
0 0 0
0 0 0
0.00143803 -0.000231806 0.026016
-0.00399002 0.0547415 -0.0134164
-0.000131331 0.00135282 0.00701562
-0.0046892 0.0027463 0.0893631
0 0 0
0 0 0
0 0 0
-0.000280595 -0.000145233 0.00199343
0 0 0
0 0 0
0 0 0
0.000177726 -0.00781813 0.0267638
1.08099e-07 -2.39265e-05 -9.43415e-05
0 0 0
0 0 0
0 0 0
0.00158217 0.0120853 0.113151
0 0 0
-0.000568572 -1.03791e-05 0.0146333
0.020809 0.115486 0.213324
2.82188e-06 1.0723e-06 6.5567e-05
-0.000783384 0.0143099 -0.111558
-0.000117703 0.00911504 0.119193
2.5794e-06 2.48e-07 2.97176e-05
-2.19454e-06 -1.56884e-05 0.00022904
-0.00191929 -0.000430345 0.0334211
0 0 0
-0.000176191 -0.00784998 0.0267872
1.19848e-08 2.65595e-06 1.05189e-05
-5.85058e-09 6.65359e-07 2.2399e-06
-0.00165685 0.0136576 0.118487
-3.04066e-06 1.04764e-06 6.36654e-05
-0.0419052 0.198951 0.376495
0 0 0
2.04867e-05 2.06744e-05 -0.000245561
0 0 0
0 0 0
0 0 0
0.0298094 0.115022 0.233421
0 0 0
0.00941922 0.0370239 0.0846287
0 0 0
2.30178e-05 0.000260016 0.00148194
-3.03101e-05 0.000142255 0.00111095
0.00446475 0.00604677 0.0393234
0.0098104 -0.0072476 0.197837
-0.0405151 -0.0086399 0.265499
0.000302646 1.76935e-06 0.00411035
-0.000618037 -0.000126318 0.0150073
0 0 0
-0.00205429 -0.000238512 0.0265024
0 0 0
-0.00167091 -0.000469356 0.018493
-5.88339e-06 -3.65044e-07 0.000327672
0 0 0
-8.58894e-06 -4.74143e-07 0.000237424
-0.0100417 -0.00536942 0.119941
-0.300072 -0.0693209 0.0804225