# vtk DataFile Version 2.0
tri_press
ASCII
DATASET UNSTRUCTURED_GRID
POINTS 3682 float
-0.725 0.195 -1.96764
-0.687595 0.375 2.095
-0.695 0.740304 -1.935
-0.695 1.07087 2.025
0.725 0.195 -1.96764
0.685 0.325 2.02995
0.705 0.744652 -1.935
0.695 1.07088 2.025
-0.741071 0.22646 -0.613427
-0.770662 0.244401 0.740787
-0.808116 0.963609 -0.615
-0.776481 1.04216 0.705
0.722943 0.227057 -0.63511
0.73404 0.24596 0.69742
0.80909 0.960818 -0.615
0.776995 1.0408 0.705
-1.49349 -0.236115 -3.03206
-1.49171 -0.152919 -1.96524
-1.50582 -0.122847 -0.611684
-1.51046 -0.111661 0.749311
-1.45987 -0.0256572 2.10342
-1.44187 0.0430036 3.17304
-1.44396 0.102187 4.23667
-1.48479 0.0869841 -3.02445
-1.48662 0.190685 -1.96119
-1.51021 0.244627 -0.611518
-1.50868 0.26145 0.742783
-1.43439 0.351342 2.09316
-1.42271 0.418485 3.16303
-1.4318 0.475907 4.22742
-1.46918 0.702527 -3.00213
-1.47688 0.803834 -1.9396
-1.54782 0.97027 -0.612838
-1.51885 1.03605 0.713457
-1.43934 1.0807 2.04232
-1.42358 1.15159 3.12373
-1.42924 1.217 4.19914
-1.45832 1.74809 -2.98334
-1.46906 1.86244 -1.92332
-1.50162 2.03027 -0.606594
-1.51098 2.15251 0.705972
-1.48922 2.22503 2.02631
-1.46876 2.27872 3.09386
-1.45597 2.33691 4.16674
-0.749753 -0.23436 -3.03707
-0.74031 -0.148319 -1.97282
-0.751287 -0.131147 -0.619368
-0.771874 -0.125862 0.740191
-0.731788 -0.0247712 2.09416
-0.71524 0.0420663 3.16332
-0.715804 0.0986476 4.22651
-0.742659 0.0818239 -3.02749
-0.695831 0.421055 3.1559
-0.704308 0.473297 4.21809
-0.725557 0.675323 -3.00128
-0.695916 1.14955 3.116
-0.700837 1.21408 4.19054
-0.703797 1.72996 -2.98333
-0.706908 1.84561 -1.9231
-0.738394 2.02585 -0.608317
-0.75897 2.15462 0.700925
-0.749955 2.22486 2.01859
-0.733358 2.27677 3.08544
-0.720999 2.33441 4.15811
0.720894 -0.234305 -3.0419
0.72551 -0.148389 -1.97889
0.724785 -0.130993 -0.639812
0.716388 -0.129056 0.702298
0.688113 -0.0543051 2.0433
0.709179 0.0191678 3.12347
0.725184 0.0835231 4.19567
0.718472 0.0823494 -3.03023
0.714962 0.396447 3.11725
0.731549 0.458313 4.18885
0.726191 0.677015 -3.00313
0.722067 1.13941 3.0978
0.738717 1.20388 4.16894
0.792875 1.72999 -2.98795
0.803264 1.84535 -1.92746
0.794034 2.02471 -0.613582
0.759601 2.15313 0.694005
0.73456 2.22261 2.00927
0.736168 2.27302 3.07298
0.745705 2.32938 4.14282
1.46351 -0.236333 -3.04395
1.46988 -0.153432 -1.98041
1.47459 -0.123713 -0.646433
1.46267 -0.119088 0.688757
1.42636 -0.0607894 2.02576
1.43354 0.0083612 3.10382
1.44993 0.0756846 4.17853
1.46297 0.0874337 -3.03271
1.47564 0.19045 -1.96983
1.48949 0.243872 -0.640792
1.47832 0.257545 0.686962
1.42646 0.313863 2.01788
1.4355 0.383264 3.0974
1.45429 0.449862 4.17219
1.47467 0.704228 -3.00806
1.48709 0.805474 -1.94342
1.55001 0.967634 -0.623444
1.51677 1.03418 0.692931
1.44288 1.07165 2.0136
1.44621 1.13337 3.08442
1.46361 1.19835 4.15637
1.54029 1.74776 -2.99369
1.55297 1.86156 -1.93349
1.55246 2.02794 -0.618998
1.51886 2.14931 0.689747
1.48397 2.22004 2.00522
1.47696 2.27103 3.06747
1.48245 2.32698 4.13565
-0.740317 0.467652 -1.98164
0 0.1914 -1.97124
-0.734742 0.209024 -1.29053
-0.691519 0.722935 2.06022
-0.0012975 0.322838 2.08964
-0.733537 0.305292 1.41789
0.005 0.829733 -2.02225
-0.80715 0.907549 -1.275
0 1.11836 2.07249
-0.773567 1.09434 1.365
0.751663 0.469826 -1.98798
0.725804 0.209196 -1.30138
0.703987 0.69794 2.04146
0.694891 0.300109 1.36368
0.808473 0.904163 -1.275
0.773823 1.09366 1.365
-0.754121 0.237176 0.06368
-0.857508 0.595034 -0.614213
-0.00906398 0.226706 -0.624269
-0.881875 0.643282 0.722894
-0.0183107 0.245658 0.719103
-0.787001 0.997588 0.0450001
0.000487227 1.30406 -0.615
0.000257048 1.50745 0.705
0.72832 0.23668 0.0311549
0.857712 0.593937 -0.625055
0.881031 0.643379 0.70121
0.787779 0.995545 0.0450001
-0.84604 0.531343 -1.28277
0.845009 0.531882 -1.28819
-0.00453199 0.204614 -1.29595
0.00274361 1.01415 -1.275
0.0025 0.468739 -2.13495
-0.857253 0.619158 0.05434
0.856671 0.618658 0.0380775
-0.0136873 0.236003 0.0474175
0.000372138 1.46574 0.0450001
-0.895443 0.683108 1.39145
0.895647 0.67066 1.36434
-0.00980411 0.284865 1.39079
0.000128524 1.45057 1.365
-0.000648752 0.710438 2.17175
-0.732679 0.331326 -1.97466
-0.3625 0.1914 -1.97124
-0.727456 0.204427 -1.62909
-0.666711 0.548968 2.05476
-0.344446 0.323896 2.11734
-0.744502 0.30621 1.75645
-0.727612 0.603978 -1.96827
-0.345 0.81948 -2.01309
-0.766388 0.839239 -1.605
-0.685776 0.896903 2.03513
-0.3475 1.10981 2.06394
-0.760435 1.10876 1.695
0.3625 0.191404 -1.97124
0.743353 0.332413 -1.98283
0.723159 0.204341 -1.63451
0.341851 0.322685 2.06103
0.705457 0.51147 2.04667
0.695792 0.306708 1.69682
0.355 0.820675 -2.01211
0.739067 0.607239 -1.97223
0.774124 0.841795 -1.605
0.3475 1.10983 2.06395
0.69359 0.88441 2.02733
0.760612 1.10847 1.695
-0.736101 0.219548 -0.95198
-0.745455 0.23396 -0.274873
-0.844876 0.387954 -0.61382
-0.375226 0.226266 -0.618848
-0.730822 0.296125 1.07934
-0.759152 0.244029 0.402233
-0.860976 0.426488 0.73184
-0.394501 0.245001 0.729945
-0.815132 0.943077 -0.945
-0.850078 0.787954 -0.614607
-0.795897 0.978937 -0.285
-0.483814 1.29383 -0.615
-0.774473 1.0677 1.035
-0.837866 0.847066 0.713947
-0.779983 1.01812 0.375
-0.499307 1.4972 0.705
0.722308 0.220192 -0.968243
0.35739 0.225981 -0.629689
0.723753 0.233747 -0.301978
0.844763 0.383279 -0.630083
0.692796 0.294704 1.03055
0.358377 0.244784 0.708262
0.728755 0.243745 0.364287
0.858567 0.419154 0.699315
0.81632 0.940029 -0.945
0.485464 1.29379 -0.615
0.850921 0.786138 -0.620028
0.7969 0.976647 -0.285
0.774864 1.06669 1.035
0.500058 1.49699 0.705
0.837834 0.846499 0.703105
0.780629 1.01641 0.375
-0.837426 0.499498 -1.6322
-0.368908 0.468195 -2.10533
-0.00226599 0.200027 -1.6336
0.00125 0.330069 -2.09752
-0.842535 0.370183 -1.28665
-0.369637 0.204593 -1.29324
-0.805126 0.703022 1.72583
-0.346084 0.716686 2.18109
-0.0055508 0.310118 1.74021
-0.000973128 0.516638 2.2083
-0.894992 0.4942 1.40467
-0.371671 0.288429 1.40434
0.0038718 0.943847 -1.64863
0.00375 0.649236 -2.20065
-0.848916 0.719446 -1.27888
-0.402203 1.01049 -1.275
6.42619e-05 1.39246 1.71874
-0.000324376 0.9144 2.19318
-0.837767 0.888725 1.37822
-0.386719 1.4415 1.365
0.837344 0.500854 -1.63809
0.377082 0.469282 -2.10607
0.842337 0.370539 -1.29478
0.360636 0.204533 -1.29866
0.808578 0.6843 1.7029
0.351669 0.704189 2.17772
0.895094 0.485384 1.36401
0.342543 0.286804 1.37724
0.847242 0.718022 -1.28159
0.405608 1.0107 -1.275
0.837762 0.882162 1.36467
0.386976 1.4415 1.365
-0.837346 0.412338 0.05901
-0.384659 0.23508 0.0555487
-0.858932 0.563189 -0.94849
-0.850244 0.607096 -0.279937
-0.00679798 0.218595 -0.960111
-0.0113757 0.234596 -0.288426
-0.866992 0.63122 0.388617
-0.895345 0.663195 1.05717
-0.015999 0.243703 0.38326
-0.0140574 0.255467 1.05495
-0.836201 0.81541 0.0496701
-0.505423 1.45588 0.0450001
0.00161542 1.17338 -0.945
0.000429682 1.40986 -0.285
0.000314593 1.48988 0.375
0.000192786 1.49454 1.035
0.836463 0.405686 0.0346162
0.358022 0.234931 0.0392862
0.858437 0.56291 -0.956621
0.850433 0.606298 -0.293489
0.866124 0.631019 0.369644
0.895382 0.657019 1.03278
0.837143 0.814561 0.0415388
0.506619 1.45573 0.0450001
-0.833739 0.350755 -1.63064
-0.851881 0.390465 -0.950235
-0.860263 0.749384 -0.946745
-0.835898 0.661712 -1.6186
0.83365 0.351476 -1.6363
0.836349 0.662631 -1.62154
0.860113 0.7477 -0.950811
0.853772 0.390518 -0.962432
-0.366069 0.199876 -1.63134
0.361568 0.199867 -1.63405
0.358788 0.218495 -0.964177
-0.372352 0.218599 -0.956046
-0.373602 0.95086 -1.62681
-0.403009 1.16083 -0.945
0.405198 1.16069 -0.945
0.380304 0.950751 -1.62681
-0.365704 0.330698 -2.07132
-0.356954 0.626607 -2.1639
0.366041 0.628237 -2.16363
0.369791 0.331241 -2.07239
-0.837649 0.401877 -0.277405
-0.84281 0.422588 0.395425
-0.837751 0.831596 0.381808
-0.845738 0.802981 -0.282468
0.837563 0.396008 -0.297733
0.845609 0.801138 -0.289244
0.837718 0.830645 0.372322
0.840718 0.415818 0.366966
-0.378735 0.233089 -0.281649
0.356452 0.232963 -0.295202
0.357015 0.242228 0.373774
-0.388391 0.242418 0.392747
-0.509786 1.40519 -0.285
-0.506794 1.4854 0.375
0.507721 1.48512 0.375
0.511219 1.40511 -0.285
-0.890741 0.469021 1.06826
-0.800034 0.521584 1.74114
-0.80469 0.892814 1.71042
-0.838318 0.865724 1.04609
0.893981 0.465027 1.03166
0.838275 0.862126 1.03389
0.806252 0.883286 1.69895
0.81452 0.498427 1.69986
-0.383078 0.256954 1.06714
0.350204 0.254805 1.04275
0.342197 0.3098 1.71852
-0.358058 0.307545 1.74833
-0.387415 1.48617 1.035
-0.36711 1.38665 1.70687
0.367238 1.3871 1.70687
0.387801 1.48616 1.035
-0.345265 0.532803 2.17264
0.34676 0.514054 2.18184
0.349585 0.899405 2.16567
-0.346792 0.905651 2.16514
-0.724222 0.263163 -1.96653
-0.54375 0.191414 -1.97123
-0.722896 0.203045 -1.79836
-0.653959 0.461984 2.05169
-0.516021 0.405023 2.0506
-0.745609 0.311045 1.92572
-0.709455 0.672141 -1.94979
-0.52 0.809784 -2.00394
-0.7384 0.797477 -1.77
-0.691616 0.983886 2.03129
-0.52125 1.09787 2.052
-0.737846 1.09994 1.86
0.54375 0.191417 -1.97122
0.734399 0.263706 -1.97546
0.720818 0.202932 -1.80107
0.513426 0.323178 2.04615
0.700801 0.418235 2.04388
0.694176 0.312074 1.86338
0.53 0.81103 -2.00192
0.720779 0.675945 -1.95236
0.749745 0.803407 -1.77
0.52125 1.09788 2.052
0.695321 0.977645 2.02719
0.737918 1.09979 1.86
-0.740006 0.221585 -0.782703
-0.74355 0.229924 -0.44415
-0.833747 0.286821 -0.613623
-0.55809 0.22648 -0.616137
-0.773239 0.247766 0.910063
-0.763977 0.245145 0.57151
-0.850912 0.317898 0.736313
-0.581656 0.246551 0.735366
-0.812267 0.953986 -0.78
-0.837569 0.880017 -0.614803
-0.802138 0.971405 -0.45
-0.69203 1.22085 -0.615
-0.775005 1.05446 0.87
-0.820053 0.951054 0.709474
-0.778237 1.03014 0.54
-0.665988 1.32587 0.705
0.723063 0.223187 -0.801676
0.540368 0.226116 -0.6324
0.724042 0.229708 -0.468544
0.833544 0.280323 -0.632596
0.73679 0.24696 0.863986
0.545782 0.246225 0.702841
0.731361 0.244889 0.530854
0.84772 0.306848 0.698368
0.813366 0.951085 -0.78
0.693184 1.21912 -0.615
0.837863 0.877407 -0.617514
0.803318 0.969055 -0.45
0.775466 1.05328 0.87
0.666422 1.32468 0.705
0.820369 0.950127 0.704053
[...]
POINT_DATA 3682
SCALARS point_scalars float 1
LOOKUP_TABLE default
-102.604
-43.8491
-35.7715
-39.4871
-135.095
-48.7869
-41.8958
-36.8075
-43.7398
-42.8201
-62.1606
-46.1167
-43.964
-41.7336
-61.4229
-45.577
-85.435
-115.838
-42.4355
-46.2867
-50.8243
-44.4492
-44.4492
45.866
-115.838
-45.0759
-37.5786
-49.8418
-44.4492
-39.4999
43.88
-93.4704
-56.1238
-43.0599
-45.574
-39.8018
-36.8413
-4.63338
-51.1042
-85.6649
-57.471
-48.2689
-39.3333
-39.3333
-27.4652
-173.932
-44.1285
-42.9021
-49.8388
-39.4697
-38.782
97.974
-38.8192
-38.8646
175.196
-36.2582
-36.1197
8.19654
-27.2171
-73.5646
-59.8724
-38.1959
-35.2645
-34.5772
-3.13838
-187.704
-44.4851
-41.666
-44.6254
-38.652
-38.0506
102.676
-37.7862
-38.0506
146.636
-32.9191
-32.8739
39.9714
-29.5139
-82.9875
-59.6406
-36.0904
-33.5972
-30.9515
-121.032
-116.615
-43.0317
-35.385
-49.1351
-49.1646
-39.0338
32.9959
-116.615
-45.2763
-50.3592
-50.9966
-41.8519
-38.0557
56.1595
-83.1239
-55.6061
-42.4976
-43.5198
-37.3074
-34.4131
-7.35369
-52.9213
-85.9932
-56.97
-45.7925
-36.6056
-36.6056
-38.4972
-172.537
-61.7785
-39.9935
-42.5454
-41.4282
-7.9583
-60.2419
-27.8517
-49.5872
-59.276
-62.1641
-38.9673
-40.5697
-60.5061
-48.2818
-37.2589
-49.2346
-46.9862
-39.1988
-40.4066
-50.4054
-35.5255
-67.703
-36.8553
-49.01
-38.6312
-50.0039
-60.9023
-59.5327
-72.9656
10.953
192.371
-38.8434
-38.616
-39.0517
-72.781
-53.7988
-51.6181
-41.1093
-49.3647
-36.9715
-32.0717
-184.888
-87.6133
-40.1778
-42.5864
-46.2174
-34.767
-19.9281
-49.8658
-39.3974
-32.8442
-49.3021
-184.903
-63.6174
-87.5257
-43.706
-40.1159
-42.9848
-20.883
-44.828
-53.3546
-29.4616
-37.7351
-47.1592
-50.2222
-37.8402
-45.8015
-45.6644
-40.8214
-36.4246
-36.6681
-41.0386
-67.6902
-54.2347
-55.0396
-36.1127
-47.4205
-42.2819
-45.8185
-61.6707
-50.6841
-45.9929
-38.0002
-45.6402
-43.9643
-40.7829
-36.8292
-36.0049
-66.2094
-35.8495
-53.794
-54.5828
-46.6473
-61.224
-41.7638
-45.4046
-92.1751
181.142
-98.6209
134.218
-59.8162
-70.5441
-49.9438
-37.795
-39.9823
-38.1386
-49.4782
-40.9163
-16.6448
175.829
-63.2439
3.86624
-38.5286
-33.4287
-51.7118
-50.4918
-90.049
181.59
-59.0161
-70.88
-49.4025
-37.0501
-47.8491
-40.9354
-61.3715
3.11812
-50.2725
-49.7354
-36.8429
-38.3876
-53.7377
-42.9919
-56.7302
-41.0621
-36.9833
-45.9174
-38.7755
-42.4791
-43.6247
-66.0127
-2.06758
-76.8764
-70.6203
-61.4089
-36.6243
-38.4425
-53.0101
-42.9077
-36.7424
-44.21
-43.2954
-65.7509
-90.4068
-51.9815
-58.3088
-91.8939
-88.429
-86.3938
-57.2704
-51.9235
-96.5582
-96.7824
-55.5892
-55.0373
-21.226
-6.32592
-6.21753
-21.6404
132.057
167.56
169.342
130.488
-40.2472
-34.6049
-41.0019
-47.4209
-40.1311
-47.0509
-40.6152
-34.5304
-39.9262
-40.1872
-38.295
-38.2301
-77.8396
-63.6554
-63.2334
-77.5926
-47.1441
-50.5975
-50.14
-45.8563
-46.4012
-44.8265
-48.6929
-51.703
-42.5615
-42.1843
-40.027
-40.4542
-60.2349
-40.6087
-39.2277
-59.8573
-38.4938
-37.5023
-34.0824
-36.2684
-48.402
-200.259
-121.292
-41.3395
-42.1979
-50.5588
-26.3211
-9.45704
-44.7102
-39.3639
-35.4087
-43.7339
-206.863
-60.5512
-118.81
-45.8416
-43.1061
-44.741
-13.0618
-33.4879
-51.6199
-32.9261
-37.215
-41.2855
-46.5589
-40.677
-43.7349
-44.2774
-54.3102
-38.4273
-34.9684
-42.0603
-66.0276
-57.1417
-58.7622
-80.3679
-46.1449
-44.4586
-45.9812
-52.8019
-46.5299
-44.7277
-40.9843
-43.6432
-50.7364
-41.3501
-38.5846
-36.434
-65.1377
-79.9351
-56.5459
-58.2202
-45.5187
-52.2229
-43.8986
-45.5422
-32.6901
-38.3071
-107.637
142.688
-175.848
-175.024
-122.608
90.915
-71.6204
-55.2237
-59.7668
-67.1432
-40.3872
-39.3606
-45.2824
-37.889
-43.3253
-42.9874
-41.102
-39.6657
-42.7802
-40.1966
-47.089
-40.4049
-18.875
-16.4923
-18.9296
80.456
-48.9995
-66.1016
-66.3398
-5.93728
-30.0586
-27.5434
-33.6728
-28.9285
-51.3225
-48.4704
-49.7562
-52.1399
-60.6733
-57.344
-99.6415
144.259
-71.8814
-55.8285
-59.1268
-67.6719
-39.5251
-37.9874
-43.9606
-36.7781
-40.751
-39.2525
-45.6741
-40.6279
-50.9973
-63.2016
-63.8197
-8.12982
-49.6949
-47.4842
-48.3804
-51.0762
-36.4246
-35.8144
-36.1573
-37.8155
-47.4616
-51.2914
-52.9675
-45.9389
-46.6097
-46.7806
-51.3491
-43.6944
-38.0156
-41.3272
-37.4785
-41.5538
-40.5158
-40.43
-39.4183
-41.5512
-50.689
-47.7304
-46.5391
-57.8253
-34.8564
-34.6937
-19.6504
-60.6759
-66.5855
-66.391
-68.242
-65.2034
-37.0491
-36.5296
-36.071
-37.6643
-47.2934
-50.9472
-52.6794
-45.7291
-37.3575
-40.7093
-37.0858
-40.9726
-50.2659
-47.2973
-45.7709
-57.4034
-72.1074
-60.3527
-61.4074
-56.0338
-70.035
-59.3235
-59.7432
-55.2529
-84.0258
-72.358
-72.5044
-63.91
-4.79221
8.99741
8.82216
13.8991
188.89
167.439
200.42
188.786
-37.5672
-40.4005
-37.8013
-41.2106
-37.356
-40.2061
-37.5343
-40.9396
-38.8403
-39.6731
-38.8661
-38.9223
-70.017
-66.7129
-75.8364
-69.8975
-59.9164
-51.9663
-54.026
-48.212
-58.0624
-49.8969
-52.1954
-46.7406
-40.406
-41.105
-41.0831
-41.9475
-43.7103
-49.7651
-49.3636
-55.3655
-37.3349
-37.3546
-36.3331
-36.8836
-114.463
89.7307
-121.864
105.762
-89.7064
-93.0339
-45.4805
-38.0112
-42.0922
-40.1678
-52.9804
-41.7713
-77.5318
94.0541
-22.5412
85.0916
-80.128
-27.6186
-46.1737
-37.5432
-36.0433
-34.332
-50.2193
-44.3614
-122.103
104.672
-107.211
94.0661
-87.8815
-93.4959
-41.55
-39.3089
-44.2821
-37.0241
-54.0732
-40.7134
-23.0195
83.77
-82.8928
93.7441
-76.3574
-28.4082
-34.2595
-30.9425
-44.3144
-35.6299
-48.4441
-42.4028
-51.5371
-53.2143
-39.2474
-38.7068
-49.5195
-42.9727
-49.8096
-42.5033
-43.7449
-40.8453
-33.9023
-37.5897
-35.598
-43.0302
-39.2941
-43.2452
-62.1631
-31.1231
-58.0502
-50.4187
-51.3615
-69.8025
-23.0492
-66.3225
-46.1516
-57.7477
-41.3222
-43.4755
-43.4387
-53.3646
-62.3852
-61.9027
-52.0203
-53.8443
-50.1402
-42.7763
-38.6039
-39.0333
-49.253
-42.7893
-45.8675
-41.7531
-39.2345
-42.7417
-34.0493
-37.6396
-35.2101
-41.131
-60.8127
-30.8957
-22.8153
-66.1543
-57.4907
-49.9982
-50.9313
-69.2492
-45.2017
-57.0965
-62.0417
-61.5203
-40.8754
-42.6386
-43.0949
-52.9024
-91.1981
-92.4497
160.215
191.302
-98.1922
-98.2385
129.261
129.74
-71.1519
-55.0879
-81.5683
-61.8421
-50.011
-49.9768
-38.3522
-37.3564
-39.9322
-40.0242
-38.1973
-37.9791
-46.4788
-61.294
-41.683
-40.2294
-17.6528
-17.7843
168.458
169.233
-59.2307
-73.4243
-10.4476
7.95788
-39.2353
-38.5318
-33.3167
-34.5891
-55.2239
-48.7654
-55.4988
-45.3346
-89.1136
-89.2361
190.434
159.683
-69.3684
-54.3805
-81.8516
-62.1256
-48.9018
-50.2832
-37.5627
-35.965
-45.3375
-54.0178
-41.6549
-40.2413
-70.8867
-57.9043
7.64153
-11.1444
-47.4303
-53.8672
-44.3062
-54.9455
-37.8086
-35.7511
-38.7005
-38.1345
-52.4836
-55.6391
-41.3638
-44.9505
-56.5748
-56.2044
-40.7578
-40.829
-35.5455
-39.54
-46.7765
-45.5544
-38.6695
-38.6217
-42.7073
-42.5292
-41.3446
-46.0293
-67.6534
-65.8955
-2.84019
-2.70217
-77.1437
-76.9979
-69.5686
-69.4283
-61.2384
-60.9918
-37.7949
-35.5498
-38.9039
-38.4132
-54.8065
-51.8846
-41.2853
-44.7595
-39.2128
-35.3059
-44.8314
-44.4291
-45.7435
-41.0173
-65.568
-67.3742
-109.995
-70.6347
-71.5717
-115.685
-47.3216
-51.2979
-55.8075
-54.6188
-62.0081
-62.1234
-56.4681
-54.8233
-62.6511
-95.5091
-72.3287
-72.1751
-107.075
-104.681
-69.6838
-69.0817
-72.4418
-68.8757
-70.2619
-91.0605
-61.3501
-54.4645
-55.4412
-60.411
-46.6188
-54.0756
-55.0933
-51.109
-120.663
-122.562
-83.4595
-77.7314
-121.056
-78.2398
-83.5592
-122.544
-48.502
-51.0978
-63.4591
-59.7566
-48.1458
-59.3084
-63.3318
-50.915
-32.1316
-16.1789
-5.98672
-20.8475
-74.6291
-19.7581
12.3228
-6.05612
-74.5385
-6.87712
12.372
-19.592
-33.2772
-20.6984
-6.20288
-16.7448
44.5219
136.055
165.641
113.052
77.7515
78.6405
197.588
128.768
76.8353
129.526
197.687
74.3557
57.6835
112.082
165.565
134.701
-41.6636
-36.4254
-38.7289
-44.3174
-35.1812
-36.5072
-36.4862
-35.2463
-44.0123
-45.0589
-40.11
-40.0303
-53.8221
-48.1597
-43.01
-47.3433
-41.5361
-44.1342
-38.6102
-36.5744
-53.3396
-47.4807
-42.8544
-47.8747
-43.5435
-39.5404
-39.8326
-44.7675
-35.2622
-34.5257
-36.2577
-36.0117
-41.3513
-43.3751
-39.3861
-37.6925
-41.7065
-37.9096
-39.434
-43.5227
-39.0159
-39.3863
-38.7619
-37.7617
-39.1851
-37.2155
-38.6915
-39.3865
-82.1197
-60.6243
-67.3549
-60.602
-52.8836
-67.5823
-73.3887
-54.7047
-52.3706
-54.2851
-73.2621
-67.4233
-81.4609
-60.3996
-67.2397
-60.1827
-55.6708
-44.5491
-47.9472
-40.9711
-46.5254
-45.3491
-61.6629
-55.5706
-45.7595
-53.4712
-56.98
-45.9271
-44.6941
-42.9818
-48.8012
-48.7242
-53.1349
-40.0693
-46.6754
-43.5631
-43.9949
-47.715
-47.2087
-42.0858
-43.5524
-44.1976
-55.4111
-51.9664
-46.4985
-50.5841
-57.8322
-44.1523
-48.1773
-41.7821
-41.8906
-40.654
-45.8466
-40.5828
-41.9225
-41.5944
-42.2637
-41.1869
-40.3508
-39.9909
-44.4061
-40.4697
-40.308
-41.2675
-51.3136
-54.5111
-55.4477
-64.6551
-38.9774
-34.7147
-44.0952
-48.6079
-36.8781
-47.0756
-43.5579
-33.7073
-50.6883
-64.4377
-55.1485
-53.7241
-40.9113
-39.5975
-37.7172
-38.3621
-39.9214
-37.2761
-37.3215
-39.3807
-34.8169
-28.9713
-35.9266
-36.0636
-37.2044
-37.7525
-36.5851
-31.4745
-89.7775
-169.602
-158.872
-42.3297
-41.649
-47.7003
-29.2809
-11.3312
-48.1993
-39.8678
-36.0899
-41.1492
-182.972
-95.1919
-157.292
-46.3284
-46.3485
-44.9998
-15.035
-33.7855
-54.5425
-33.5473
-37.56
-38.6148
-45.8314
-41.7583
-43.4109
-43.6866
-47.5084
-39.9869
-37.962
-42.6989
-63.9892
-59.7715
-60.5334
-72.7518
-45.9912
-45.5584
-46.1582
-48.8852
-46.2173
-44.131
-41.9343
-43.5525
-44.6548
-41.6599
-39.8979
-40.4846
-63.203
-72.0432
-59.0388
-59.8717
-45.4026
-48.3028
-45.0539
-45.6816
-34.7775
-38.4701
-77.8026
46.7585
-173.914
-173.769
-145.205
8.906
-65.9727
-58.6199
-60.2088
-64.7971
-40.2836
-39.4286
-43.1645
-38.0053
-43.0089
-42.7159
-41.6764
-41.4567
-41.37
-41.0096
-45.0445
-40.4427
-14.9993
-11.546
-28.3014
20.1604
-54.5877
-69.4584
-68.9824
-25.129
-28.7923
-27.3882
-31.1141
-27.5889
-50.3487
-48.9062
-49.4643
-51.5408
-57.8589
-60.443
-97.3759
60.0202
-66.5271
-59.1096
-59.8366
-65.3588
-39.3295
-38.4224
-42.0787
-36.9781
-40.6111
-39.4417
-43.4783
-40.3271
-54.8981
-64.3111
-65.6876
-28.8516
-48.8399
-47.7833
-48.118
-50.2635
-36.4466
-36.7739
-35.8951
-37.4966
-48.3156
-50.2188
-50.9992
-47.5856
-46.8843
-46.9604
-49.0404
-45.173
-38.3795
-40.3247
-38.459
-40.3257
-40.436
-40.3996
-39.876
-40.9476
-51.1825
-49.2362
-48.7085
-53.4388
-35.2773
-35.1936
-26.3557
-47.6451
-67.4417
-67.3432
-68.4613
-66.1919
-36.7474
-37.2135
-36.1662
-37.2145
-48.1242
-49.9214
-50.7155
-47.391
-37.8639
-39.7555
-37.833
-39.5983
-50.4852
-48.9069
-47.9769
-52.9881
-65.5208
-60.6928
-61.0462
-58.0895
-64.1888
-59.4773
-59.5287
-56.9526
-78.2328
-72.7865
-72.848
-68.18
2.84355
10.4323
10.411
15.4937
190.891
183.388
198.768
190.612
-38.0605
-39.5722
-38.3202
-39.9359
-37.8807
-39.3776
-38.0974
-39.6689
-38.9901
-39.2793
-39.1123
-39.0301
-71.7782
-67.6282
-76.946
-71.7273
-58.5999
-52.5383
-54.7248
-50.9604
-54.9096
-50.4981
-52.4181
-49.1378
-40.7648
-41.1145
-41.0949
-41.512
-46.5863
-49.5184
-49.3046
-52.5403
-37.1318
-37.2188
-36.4921
-36.9038
-36.6558
-28.1741
-98.6685
52.3604
-186.66
-182.278
-145.041
-6.85666
-100.443
-78.5817
-90.332
-90.7359
-40.9741
-40.2261
-43.9141
-38.5122
-42.7222
-43.5935
-43.0083
-41.5712
-45.7154
-43.1076
-52.7796
-42.9568
-32.9712
-36.5998
-61.1675
43.4162
-7.39229
-15.7009
-31.5724
46.8763
-46.6406
-47.6002
-65.715
-33.5012
-39.2766
-39.4099
-43.4821
-37.6431
-34.2725
-31.4412
-34.4306
-33.1445
-46.2847
-50.7391
-49.873
-47.1638
-189.887
-178.238
-145.205
-8.40198
-62.3837
-63.3773
-92.3698
58.3027
-99.6348
-78.5361
-88.6052
-91.1364
-44.6615
-42.9622
-42.4207
-41.0175
-41.3024
-39.7609
-42.7922
-37.5945
-43.3566
-41.6467
-51.9879
-41.422
-9.13286
-13.8879
-32.7595
46.7425
-37.77
-47.4902
-84.4327
40.0596
-49.9393
-51.5055
-67.6841
-33.9281
-31.2183
-28.2421
-32.2031
-29.3984
-37.3801
-37.879
-41.6489
-35.8287
-44.0359
-48.85
-47.8844
-45.0214
-47.6086
-53.4817
-50.0789
-52.1616
-39.1816
-36.7373
-38.8537
-38.1189
-45.0952
-46.6173
-47.5621
-44.3589
-45.0273
-46.2184
-47.6219
-43.9276
-46.2038
-39.6862
-42.6199
-40.6236
-37.4113
-35.5835
-33.9308
-37.19
-35.6303
-37.5586
-36.2291
-37.4717
-41.4822
-40.6816
-40.0795
-42.0036
-68.8679
-70.0666
-64.921
-68.197
-55.6842
-52.4952
-55.8789
-52.441
-56.9385
-52.8293
-53.2228
-61.2106
-50.9632
-33.9889
-28.5068
-47.6323
-46.7123
-48.0467
-47.534
-50.3234
-43.2828
-41.9754
-41.7895
-42.7786
-45.9107
-46.1325
-44.5872
-49.4909
-57.5553
-65.0107
-62.1739
-62.598
-47.6948
-54.0268
-49.9384
-52.5523
-45.3859
-46.4531
-47.968
-44.2303
-39.3417
-37.4388
-37.6785
-38.3898
-44.9442
-46.4799
-47.4093
-44.1658
-49.5513
-39.5887
-44.9449
-42.9511
-41.064
-40.5413
-39.9273
-41.6517
-37.5157
-36.3651
-34.5302
-37.2599
-35.4719
-36.657
-35.8089
-35.663
-67.6914
-66.6401
-63.7132
-67.5336
-50.7835
-33.777
-28.2506
-47.4072
-55.2302
-52.12
-55.3194
-52.1082
-56.4188
-52.4709
-52.7763
-60.7147
-46.0222
-47.1649
-46.8139
-49.6005
-57.0226
-64.7185
-61.7795
-62.199
-42.7012
-41.2907
-41.2527
-42.1063
-45.5042
-45.7311
-44.213
-49.0276
-112.61
-80.275
-91.8008
-91.6232
172.716
186.936
172.28
189.069
-108.608
-90.6503
-98.3812
-98.4153
124.651
149.574
128.969
128.956
-59.582
-60.0617
-64.759
-57.2655
-69.0282
-71.6253
-75.7327
-65.9289
-47.2516
-54.7494
-50.0531
-49.9853
-38.0163
-37.4817
-38.3291
-37.4474
-40.3192
-40.1555
-39.9476
-39.9677
-38.8676
-37.5084
-38.2118
-38.0702
-47.2899
-50.995
-47.544
-53.846
-40.6252
-41.0685
-41.3359
-40.6067
-16.8296
-12.0579
-16.9806
-17.0172
136.094
201.833
163.078
169.805
-64.5838
-62.1744
-60.6685
-67.61
-0.0340801
6.73757
-3.43417
8.63922
-35.7925
-41.1443
-38.8299
-38.4733
-31.1001
-35.5061
-33.408
-34.183
-50.649
-52.7168
-53.7535
-50.203
-51.2845
-50.0735
-53.0929
-48.0146
-101.186
-77.8976
-89.5793
-88.9873
178.559
187.156
188.35
173.255
-58.8886
-59.1115
-63.779
-56.5227
-69.4944
-71.8863
-76.0407
-66.253
-46.0936
-55.771
-49.2729
-49.9988
-36.9834
-36.876
-37.5436
-36.4181
-46.8846
-48.9
-45.756
-50.1219
-40.5341
-41.056
-41.3651
-40.6225
-62.6002
-60.4431
-65.708
-58.8365
-1.27861
6.33382
8.07965
-4.18023
-49.217
-51.4881
-48.9621
-51.8144
-50.3718
-49.4863
-47.1547
-52.4343
-36.4868
-37.2222
-37.2776
-36.3568
-38.0952
-38.65
-38.4178
-38.3594
-54.0043
-54.3405
-52.9987
-54.6675
-44.3863
-41.4177
-42.1479
-44.0192
-53.97
-60.0396
-56.7828
-56.5061
-42.2989
-40.2567
-40.981
-41.0421
-37.3151
-37.2046
-36.1555
-38.288
-44.0687
-46.6304
-46.581
-45.4756
-39.0469
-38.6516
-38.756
-38.7283
-42.2945
-42.2442
-42.5881
-42.4707
-44.8736
-42.4939
-42.6704
-44.8661
-63.4451
-68.095
-64.8821
-67.7807
-11.3561
7.84163
-2.23153
-2.1499
-68.7519
-73.1313
-77.1731
-77.105
-68.8825
-73.1213
-70.4273
-70.3601
-64.0071
-58.1097
-61.2658
-61.1459
-36.2478
-37.0383
-37.18
-36.1072
-38.0712
-38.7244
-38.5696
-38.6011
-53.4522
-53.6203
-53.9262
-52.2846
-44.2417
-41.2838
-42.0428
-43.8497
-36.7857
-37.068
-37.9481
-35.9312
-42.2876
-45.7072
-44.5301
-44.2079
-44.3485
-42.2173
-44.5219
-42.4309
-63.2768
-67.9108
-67.6209
-64.6425
-111.922
-90.2945
-91.2114
-78.8229
-52.0647
-51.1252
-53.0837
-52.0785
-60.0849
-58.8635
-58.3163
-56.8136
-98.9861
-88.7323
-92.4338
-80.3908
-108.356
-88.1928
-89.124
-76.5938
-91.8193
-82.9976
-88.2239
-77.3518
-58.8352
-58.1041
-57.1757
-55.8809
-51.8871
-51.3128
-52.178
-51.5874
-107.111
-95.0854
-97.5702
-88.3246
-107.336
-95.4851
-97.7428
-88.7918
-54.7808
-52.717
-58.5079
-56.1823
-54.1991
-52.2493
-58.3517
-55.6991
-20.039
-24.069
-19.2592
-18.289
-12.3039
-16.1618
2.35835
-3.8892
-11.9983
-15.9812
2.36468
-3.75222
-20.3937
-24.9166
-19.6374
-18.1002
122.508
125.444
141.16
131.166
143.291
125.129
191.436
172
122.953
142.948
171.468
191.155
121.618
116.149
130.961
140.698
-39.7126
-41.6099
-38.8076
-40.7975
-34.335
-35.0806
-34.912
-34.9993
-41.107
-42.1623
-40.1513
-40.8935
-48.5081
-49.3332
-45.9952
-46.7804
-39.5418
-41.4267
-38.7912
-40.7083
-48.2873
-48.9001
-45.7666
-46.4738
-40.7297
-41.8059
-39.7241
-40.5562
-34.2717
-34.686
-34.9275
-34.8336
-39.3404
-41.1133
-39.1817
-40.3985
-41.3842
-39.6209
-40.5922
-39.4336
-38.6894
-38.0108
-38.5219
-38.145
-37.9364
-38.6849
-38.0367
-38.4554
-82.0722
-72.7925
-73.6507
-76.8774
-58.6506
-63.3585
-64.1664
-67.6267
-63.0039
-58.3198
-67.389
-63.7822
-72.6335
-81.5911
-76.6621
-73.4777
-46.2054
-47.3509
-46.0066
-46.9968
-47.3673
-51.7973
-50.0463
-57.2201
-48.2901
-50.1252
-50.1664
-53.1973
-46.1746
-44.3386
-47.2327
-45.6859
-46.4963
-45.3019
-46.612
-44.9978
-45.139
-43.4447
-46.1531
-44.5689
-46.484
-48.4721
-48.8226
-52.1261
-47.2041
-54.5821
-51.0888
-59.8171
-41.4225
-42.8654
-42.1132
-42.8545
-41.5434
-42.5289
-42.0705
-42.5359
-40.5109
-40.2808
-39.9342
-40.1173
-41.1681
-40.979
-40.1787
-40.1601
-59.6819
-62.021
-57.6909
-60.8131
-39.0628
-42.0412
-39.8595
-43.0664
-37.3898
-40.3011
-38.8063
-41.8811
-59.1126
-61.6079
-57.2
-60.4587
-38.1665
-40.1251
-38.28
-38.2143
-38.2731
-37.141
-37.8816
-37.3016
-32.7271
-35.2717
-33.4799
-35.1913
-37.2828
-35.46
-36.8918
-35.303
-110.284
27.107
-148.402
-49.691
-117.179
-119.492
-45.4988
-40.7358
-47.8879
-41.3208
-50.3602
-45.8241
-58.9988
37.4172
-33.3228
56.5542
-50.7159
-42.1625
-43.5882
-37.4637
-36.916
-36.336
-44.7136
-40.6285
-148.507
-33.642
-109.352
24.4861
-119.334
-119.791
-43.279
-43.7281
-44.6925
-40.4021
-49.6857
-42.8407
-33.2129
51.9272
-69.5263
36.3825
-61.2146
-45.253
-34.2677
-33.7418
-41.457
-35.277
-42.4722
-38.3851
-44.4861
-47.3547
-41.1301
-40.9038
-46.0084
-43.1447
-46.1035
-42.6977
-58.7266
-50.5827
-36.0439
-39.0445
-35.2694
-38.2981
-40.4284
-44.1332
-64.0674
-74.1919
-58.9988
-55.4547
-56.4313
-67.5487
-74.0731
-86.8974
-45.548
-48.4345
-44.119
-44.6367
-45.0552
-48.996
-52.622
-51.9877
-42.9988
-47.6584
-46.5527
-43.0707
-41.0254
-41.2649
-46.1633
-42.8209
-57.554
-46.6026
-40.0369
-43.0399
-36.3248
-38.8622
-36.0161
-31.381
-63.3381
-72.5095
-73.4647
-86.3946
-58.4497
-54.8532
-55.9199
-66.9356
-44.9354
-47.7699
-52.0962
-51.3919
-43.6485
-44.0633
-44.6096
-48.5022
-87.6256
53.701
-71.3483
55.3478
-113.775
-101.358
143.623
135.026
-145.247
-55.9535
-145.116
-59.8751
-122.491
-122.487
55.8503
51.7799
-70.7525
-75.0248
-54.8582
-57.6665
-64.2029
-56.3183
-72.0121
-62.9438
-43.7309
-38.7011
-43.3558
-37.8788
-45.2994
-45.4687
-38.183
-37.6917
-41.8004
-41.5607
-41.9343
-40.9225
-41.1137
-41.1502
-39.5981
-39.4657
-50.5575
-41.0895
-42.6673
-40.2876
-45.9289
-49.838
-40.6248
-39.9801
-33.8227
40.7797
-33.4329
37.754
-19.8765
-19.6692
71.0747
73.2284
-65.5118
-23.3978
-66.0193
-42.8719
-64.5878
-67.5375
-10.4755
-3.12922
-32.3745
-29.9295
-30.9988
-27.1563
-34.1234
-33.5957
-28.7194
-30.1512
-51.855
-51.305
-48.4491
-50.9469
-51.3655
-49.2765
-54.3067
-50.6077
-99.1387
60.1479
-91.5833
63.3495
-102.289
-94.9776
137.052
145.349
-69.2953
-75.5591
-54.6651
-58.1733
-63.6468
-56.1305
-72.5464
-63.4598
-42.4319
-37.6608
-41.8278
-36.1706
-43.9884
-44.028
-37.2282
-36.2333
-47.165
-40.1447
-41.8069
-39.8881
-44.5625
-47.4016
-40.8346
-40.1685
-64.4218
-22.4377
-63.2899
-42.6883
-64.9488
-62.1746
-4.62103
-12.5426
-50.288
-49.558
-47.4818
-49.993
-48.1585
-49.5062
-49.3457
-53.3796
-35.8581
-37.1509
-35.6508
-36.6259
-35.7441
-35.759
-37.5396
-37.5466
-49.2793
-45.9183
-53.0276
-49.6734
-52.1142
-53.8573
-45.1044
-46.8668
-48.6398
-44.8007
-48.8235
-44.9643
-51.3097
-51.2292
-43.6015
-43.6721
-37.2465
-38.3999
-40.5964
-42.0267
-36.8071
-38.8994
-41.0781
-42.3562
-39.8931
-41.1225
-39.862
-40.9911
-39.405
-39.4053
-41.6259
-41.5384
-47.8597
-55.9066
-46.8393
-50.9003
-45.8917
-46.8735
-58.8172
-56.1757
-26.7019
-46.9308
-26.5313
-46.8259
-19.6681
-19.6288
-60.7004
-60.6011
-67.531
-65.4093
-67.3463
-65.2055
-68.1686
-68.0897
-65.1266
-65.0158
-36.1028
-37.3392
-33.8869
-37.3483
-36.2084
-35.2688
-37.6655
-37.9477
-49.0641
-45.7591
-52.6281
-49.3738
-53.5053
-51.8915
-44.9085
-46.6257
-36.7023
-38.2821
-40.0377
-41.2441
-38.3531
-36.3232
-40.535
-41.3779
-47.7807
-55.4925
-46.5656
-50.4683
-45.8433
-45.3567
-55.7553
-58.4151
-71.7969
-72.1685
-65.2874
-57.5824
-58.321
-65.6816
-55.9777
-56.2838
-69.859
-70.1927
-64.1096
-56.7036
-64.1694
-56.8119
-55.3812
-55.2143
-84.2279
-83.8966
-77.6265
-67.598
-77.7541
-67.7383
-63.7431
-63.483
-4.86564
-4.97819
1.32142
13.5239
13.4602
1.11104
13.6102
13.6596
178.935
197.499
165.171
165.429