# vtk DataFile Version 2.0
tri_press
ASCII
DATASET UNSTRUCTURED_GRID
POINTS 3682 float
-0.835 0.275 -1.82537
-0.782922 0.275 1.995
-0.845 0.545 -1.92789
-0.735 0.915016 1.935
0.835 0.275 -1.82537
0.782922 0.275 1.995
0.845 0.545 -1.92789
0.735 0.915016 1.935
-0.828192 0.264448 -0.551913
-0.85478 0.220501 0.721543
-0.820549 0.680555 -0.64026
-0.804613 0.824624 0.64737
0.828193 0.264447 -0.551913
0.854867 0.220414 0.721543
0.820559 0.680564 -0.64026
0.804605 0.824615 0.64737
-1.65538 0.00628056 -2.8066
-1.65787 0.0555228 -1.78216
-1.65304 0.0334832 -0.509071
-1.65479 -0.0279262 0.761167
-1.61479 -0.0106741 2.03402
-1.60193 0.0424019 3.05728
-1.60646 0.10317 4.08273
-1.65836 0.195175 -2.85277
-1.66079 0.260681 -1.82678
-1.65166 0.272478 -0.55093
-1.65072 0.248864 0.723643
-1.58772 0.287168 1.99922
-1.58405 0.340949 3.02268
-1.59724 0.39755 4.04766
-1.66273 0.531127 -2.94908
-1.66576 0.589998 -1.92367
-1.64348 0.705854 -0.638161
-1.61519 0.822279 0.648354
-1.55042 0.904798 1.93359
-1.56398 0.951666 2.95647
-1.58832 0.993963 3.97917
-1.65941 1.14922 -3.08288
-1.65848 1.23115 -2.05535
-1.64668 1.39366 -0.765247
-1.62841 1.57946 0.527914
-1.60932 1.71891 1.81787
-1.60423 1.78875 2.84509
-1.6091 1.83737 3.86933
-0.82649 0.0159865 -2.80569
-0.831576 0.0700184 -1.78083
-0.826575 0.0325082 -0.50925
-0.841916 -0.0492584 0.759375
-0.815321 -0.0254439 2.03088
-0.806437 0.0332236 3.05516
-0.810402 0.0975849 4.08149
-0.827945 0.197958 -2.85249
-0.794734 0.335522 3.02093
-0.805031 0.394431 4.04674
-0.832142 0.512303 -2.95083
-0.77959 0.95625 2.95675
-0.799949 0.996663 3.97923
-0.834412 1.13086 -3.08461
-0.836325 1.21099 -2.05726
-0.830591 1.38251 -0.766398
-0.82296 1.58308 0.528052
-0.814511 1.7289 1.81886
-0.81157 1.79772 2.84607
-0.814932 1.84397 3.87005
0.837343 0.0159844 -2.80569
0.832359 0.0700166 -1.78083
0.833665 0.0324966 -0.50925
0.836322 -0.0493178 0.759375
0.787951 -0.0254668 2.03088
0.780028 0.0332055 3.05516
0.779206 0.0975653 4.08149
0.839914 0.197957 -2.85249
0.771347 0.33551 3.02093
0.774191 0.394414 4.04674
0.84065 0.512303 -2.95083
0.755232 0.95624 2.95675
0.76711 0.996647 3.97923
0.821096 1.13086 -3.08461
0.815121 1.21099 -2.05726
0.805656 1.38251 -0.766398
0.788885 1.58307 0.528052
0.770182 1.72889 1.81886
0.767269 1.79771 2.84607
0.769229 1.84396 3.87005
1.66717 0.00627488 -2.8066
1.66263 0.0555172 -1.78216
1.65998 0.0334572 -0.509071
1.65724 -0.0280106 0.761167
1.60594 -0.0107323 2.03402
1.58494 0.0423587 3.05728
1.58091 0.103128 4.08273
1.66965 0.195172 -2.85277
1.66431 0.26068 -1.82678
1.65481 0.272464 -0.55093
1.65727 0.248775 0.723643
1.59422 0.287118 1.99922
1.57233 0.340913 3.02268
1.5728 0.397512 4.04767
1.66978 0.531126 -2.94907
1.66672 0.59 -1.92367
1.64381 0.705855 -0.638161
1.61953 0.822242 0.648354
1.55594 0.904763 1.93359
1.55075 0.951637 2.95647
1.56155 0.993929 3.97917
1.64783 1.14922 -3.08288
1.64048 1.23114 -2.05535
1.6252 1.39365 -0.765247
1.60047 1.57944 0.527913
1.57335 1.71888 1.81787
1.56559 1.78872 2.84509
1.56693 1.83734 3.86933
-0.804299 0.41 -1.84093
0 0.197418 -1.90295
-0.88129 0.22003 -1.18864
-0.820359 0.595008 2.0264
0 0.322929 1.94707
-0.901675 0.164927 1.35827
0 0.673632 -2.05652
-0.895344 0.675347 -1.28408
0 0.922314 1.9423
-0.786323 0.886336 1.29119
0.804496 0.41 -1.84113
0.881287 0.220034 -1.18864
0.82036 0.595008 2.0264
0.901675 0.164927 1.35827
0.895344 0.675347 -1.28408
0.786251 0.886264 1.29119
-0.82439 0.259572 0.084815
-0.867691 0.472502 -0.596087
5.30458e-07 0.123881 -0.551913
-0.866921 0.522563 0.684457
4.36984e-05 0.130789 0.721543
-0.814302 0.75431 0.003555
4.84359e-06 1.05015 -0.64026
-4.34903e-06 1.29237 0.64737
0.824393 0.259568 0.084815
0.867695 0.472506 -0.596087
0.866918 0.522515 0.684457
0.814286 0.754294 0.003555
-0.898254 0.441251 -1.23636
0.898254 0.441253 -1.23636
2.65229e-07 0.123492 -1.18864
2.4218e-06 0.892762 -1.28408
0 0.41 -2.13318
-0.861378 0.497532 0.044185
0.861377 0.49751 0.044185
2.21144e-05 0.124316 0.084815
2.47283e-07 1.32092 0.003555
-0.896852 0.558785 1.32473
0.896853 0.558761 1.32473
2.18492e-05 0.123476 1.35827
-2.17451e-06 1.02375 1.29119
0 0.595008 2.17823
-0.800276 0.3425 -1.81378
-0.4175 0.212652 -1.88772
-0.87773 0.22793 -1.50701
-0.813243 0.435004 2.0223
-0.391461 0.263935 2.00606
-0.887323 0.174939 1.67664
-0.803413 0.4775 -1.86317
-0.4225 0.62475 -2.00764
-0.874285 0.614287 -1.60598
-0.764733 0.755012 1.96775
-0.3675 0.920221 1.9402
-0.786439 0.926454 1.61309
0.4175 0.212666 -1.8877
0.800445 0.3425 -1.81394
0.877711 0.227949 -1.50701
0.391461 0.263953 2.00605
0.813243 0.435004 2.0223
0.887314 0.174948 1.67664
0.4225 0.624375 -2.00727
0.803485 0.4775 -1.86324
0.874272 0.614274 -1.60598
0.3675 0.920238 1.94022
0.764748 0.755012 1.96777
0.786458 0.926472 1.61309
-0.879693 0.217287 -0.870278
-0.826203 0.262098 -0.233549
-0.855539 0.364676 -0.574
-0.449373 0.12361 -0.551913
-0.9015 0.169442 1.03991
-0.822779 0.256842 0.403179
-0.86004 0.371937 0.703
-0.450981 0.12842 0.721543
-0.858142 0.678146 -0.962168
-0.85511 0.582023 -0.618173
-0.817683 0.717689 -0.318353
-0.479621 1.00405 -0.64026
-0.798447 0.858459 0.969278
-0.839884 0.675652 0.665913
-0.809828 0.789838 0.325463
-0.50804 1.26996 0.64737
0.879696 0.217284 -0.870278
0.449366 0.123627 -0.551913
0.826205 0.262096 -0.233549
0.855539 0.364679 -0.574
0.901499 0.169442 1.03991
0.451039 0.128434 0.721543
0.822858 0.256763 0.403179
0.860063 0.371879 0.703
0.858142 0.678146 -0.962168
0.481775 1.00834 -0.64026
0.855181 0.582062 -0.618173
0.817691 0.717698 -0.318353
0.798394 0.858406 0.969278
0.508217 1.27032 0.64737
0.839888 0.675628 0.665913
0.809799 0.789809 0.325463
-0.897781 0.425625 -1.53864
-0.40215 0.41 -2.08987
1.32614e-07 0.123489 -1.5458
0 0.303709 -2.07431
-0.897402 0.330641 -1.2125
-0.440645 0.124745 -1.18864
-0.885182 0.576897 1.67556
-0.41018 0.595008 2.15514
1.09246e-05 0.130619 1.65267
0 0.458969 1.953
-0.899287 0.361856 1.3415
-0.450827 0.125401 1.35827
1.2109e-06 0.831704 -1.6703
0 0.541816 -2.17265
-0.896797 0.558299 -1.26022
-0.447671 0.891837 -1.28408
-1.08726e-06 0.974022 1.61674
0 0.758661 2.03581
-0.886131 0.722561 1.30796
-0.393163 1.02067 1.29119
0.89778 0.425626 -1.53874
0.402248 0.41 -2.08985
0.897402 0.330643 -1.2125
0.440644 0.124608 -1.18864
0.885198 0.576885 1.67556
0.41018 0.595008 2.15514
0.899291 0.361844 1.3415
0.450848 0.125339 1.35827
0.896798 0.5583 -1.26022
0.447673 0.891837 -1.28408
0.886221 0.722513 1.30796
0.393124 1.02068 1.29119
-0.8495 0.375244 0.0645
-0.44442 0.127471 0.084815
-0.891402 0.456876 -0.916223
-0.863627 0.485017 -0.275951
3.97843e-07 0.12374 -0.870278
1.13224e-05 0.124075 -0.233549
-0.859411 0.510047 0.364321
-0.893167 0.540674 1.00459
3.29064e-05 0.130911 0.403179
3.27738e-05 0.123475 1.03991
-0.843344 0.628673 0.02387
-0.514292 1.2519 0.003555
3.6327e-06 0.932676 -0.962168
2.54544e-06 1.23144 -0.318353
-2.05087e-06 1.34045 0.325463
-3.26177e-06 1.14831 0.969278
0.849502 0.37523 0.0645
0.444434 0.127489 0.084815
0.891405 0.456879 -0.916223
0.863628 0.485008 -0.275951
0.859409 0.510012 0.364321
0.893175 0.540638 1.00459
0.843351 0.628662 0.02387
0.514299 1.25192 0.003555
-0.896931 0.33657 -1.52282
-0.893947 0.349558 -0.89325
-0.888318 0.567413 -0.939195
-0.896312 0.517899 -1.57231
0.896931 0.336572 -1.52287
0.896311 0.5179 -1.57236
0.888052 0.567417 -0.939195
0.893912 0.34956 -0.89325
-0.429072 0.125724 -1.5264
0.429072 0.125654 -1.5264
0.42737 0.123549 -0.870278
-0.42737 0.123581 -0.870278
-0.435085 0.819679 -1.63814
-0.428972 0.930488 -0.962168
0.428978 0.930488 -0.962168
0.435087 0.819658 -1.63814
-0.409825 0.323105 -2.04062
-0.412325 0.509658 -2.12435
0.412374 0.509658 -2.12438
0.409874 0.323105 -2.0407
-0.852228 0.370106 -0.25475
-0.846657 0.377647 0.38375
-0.840702 0.651706 0.344892
-0.849183 0.605326 -0.297152
0.852229 0.370101 -0.25475
0.849189 0.605323 -0.297152
0.840711 0.651691 0.344892
0.846656 0.377618 0.38375
-0.447692 0.123949 -0.233549
0.447695 0.123967 -0.233549
0.447626 0.128183 0.403179
-0.44759 0.128167 0.403179
-0.518362 1.17078 -0.318353
-0.512039 1.26267 0.325463
0.512049 1.2627 0.325463
0.518388 1.17083 -0.318353
-0.898681 0.366694 1.02225
-0.894872 0.39843 1.6761
-0.860779 0.738786 1.64433
-0.86216 0.698077 0.986935
0.898681 0.366654 1.02225
0.862172 0.698039 0.986935
0.86077 0.738762 1.64433
0.894938 0.398424 1.6761
-0.439097 0.120934 1.03991
0.439152 0.120952 1.03991
0.421155 0.137734 1.66465
-0.421144 0.137716 1.66465
-0.397736 1.1373 0.969278
-0.380331 0.971777 1.61492
0.380312 0.971778 1.61492
0.397712 1.13735 0.969278
-0.40082 0.446986 2.13
0.400821 0.446986 2.13
0.38884 0.756837 2.01719
-0.38884 0.756837 2.01715
-0.794637 0.30875 -1.79657
-0.62625 0.223 -1.87737
-0.864957 0.242874 -1.66619
-0.804629 0.355002 2.0152
-0.587192 0.26436 2.00564
-0.835067 0.225025 1.83582
-0.805904 0.51125 -1.87723
-0.63375 0.60916 -1.99205
-0.858549 0.578549 -1.76694
-0.750103 0.835014 1.95161
-0.55125 0.930494 1.95048
-0.781417 0.941433 1.77405
0.62625 0.223012 -1.87736
0.794695 0.30875 -1.79663
0.864732 0.243098 -1.66619
0.587192 0.264374 2.00563
0.804629 0.355002 2.0152
0.835067 0.225025 1.83582
0.63375 0.609109 -1.992
0.805991 0.51125 -1.87732
0.858549 0.57855 -1.76694
0.55125 0.930545 1.95053
0.750196 0.835014 1.95171
0.781442 0.941457 1.77405
-0.840537 0.254274 -0.711095
-0.827156 0.263314 -0.392731
-0.843461 0.313765 -0.562957
-0.671349 0.128897 -0.551913
-0.887841 0.185271 0.880726
-0.824249 0.253202 0.562361
-0.86282 0.293514 0.712272
-0.675774 0.128673 0.721543
-0.836656 0.67666 -0.801214
-0.832377 0.628563 -0.629217
-0.819025 0.699031 -0.479306
-0.680116 0.902362 -0.64026
-0.801567 0.841578 0.808324
-0.82408 0.751054 0.656642
-0.807405 0.807415 0.486416
-0.65236 1.03936 0.64737
0.840538 0.254272 -0.711095
0.67135 0.128897 -0.551913
0.827157 0.263313 -0.392731
0.843461 0.313766 -0.562957
0.887895 0.185216 0.880726
0.675828 0.128674 0.721543
0.824256 0.253195 0.562361
0.862823 0.293468 0.712272
0.836531 0.676536 -0.801214
0.680242 0.902602 -0.64026
0.832383 0.62857 -0.629217
0.819025 0.699031 -0.479306
[...]
POINT_DATA 3682
SCALARS point_scalars float 1
LOOKUP_TABLE default
-18.8061
-39.407
-9.17302
-44.2838
-18.9841
-39.3914
-9.22565
-44.2521
-34.0165
-23.3194
-37.832
-42.589
-34.0095
-23.3645
-37.8248
-42.6005
67.9836
-113.474
-33.4222
-35.8838
-54.7589
-39.0508
-36.3177
67.9836
-151.745
-37.49
-33.015
-52.4591
-36.701
-36.5784
67.9836
-95.1506
-38.8263
-34.0126
-50.4157
-37.5498
-37.5498
67.9836
-90.1505
-44.0352
-48.1192
-51.0139
-43.8145
-37.5498
103.07
-77.5957
-34.5046
-31.3715
-40.3595
-35.9367
-35.2664
104.181
-36.0051
-35.9498
165.352
-37.0253
-35.9498
112.696
-110.807
-37.0063
-68.8412
-45.281
-41.1596
-37.0041
103.219
-78.2054
-34.3393
-31.5419
-39.6685
-35.9178
-35.0459
104.153
-35.8081
-35.9527
165.351
-37.0218
-35.9527
112.638
-111.254
-37.3198
-68.831
-45.2706
-40.1793
-36.8007
67.9665
-113.513
-33.3944
-35.8844
-54.5467
-39.0255
-36.2766
67.9665
-151.429
-37.5046
-33.0388
-52.474
-36.6776
-36.843
67.9665
-95.2157
-38.8223
-34.0204
-50.4079
-37.5389
-37.5389
67.9665
-92.5385
-40.2001
-48.1155
-51.0027
-43.7925
-37.5389
30.6478
-73.2778
-56.0755
-42.0701
-29.0502
-44.4324
106.497
-62.3425
-38.1037
-46.2122
29.633
-56.0701
-41.9819
-44.4299
-62.3311
-46.2351
-30.3224
-35.6402
-41.0878
-30.1237
-34.2535
-41.3355
22.2393
-70.0721
-30.3225
-35.6537
-30.1279
-41.3319
-58.3905
-58.3822
-64.9516
-25.3067
173.248
-33.3783
-33.3802
-35.2359
-93.2615
-46.5123
-46.5088
-40.0661
-47.7771
-31.9953
22.3546
-54.6693
-90.8325
-41.1391
-33.8676
-57.5015
11.6326
91.5498
-61.8947
-42.2109
-37.8704
-46.8916
-54.506
22.0476
-90.7489
-33.8489
-41.1422
-57.4983
91.6886
10.5928
-61.921
-37.8684
-42.2199
-46.9203
-51.4471
-31.0571
-34.9173
-40.0489
-43.2122
-27.5353
-27.0719
-33.8644
-48.7078
-36.4509
-39.6448
-4.17658
-46.9956
-36.7664
-41.7388
-72.9426
-51.4626
-40.0467
-31.0546
-34.9182
-43.2024
-33.8642
-27.5392
-27.0918
-48.7041
-5.08901
-36.4602
-39.6311
-47.0307
-73.2169
-36.7737
-41.7363
-85.7032
153.583
-95.2757
67.2161
-57.523
-64.6746
-53.3282
-35.6889
-41.443
-28.5063
-46.0227
-41.7601
-46.9826
175.917
-59.706
-35.9562
-42.5216
-35.5791
-47.6366
-48.1463
-85.6858
153.483
-57.5134
-64.5336
-53.3325
-35.6818
-46.0223
-41.7684
-59.703
-35.9369
-47.646
-48.1457
-31.531
-33.1067
-46.8667
-33.4759
-49.2651
-36.8045
-32.1901
-40.6249
-33.3983
-37.8948
-37.2115
-75.9631
-2.75053
-35.0183
-91.8577
-53.067
-31.5339
-33.1055
-46.8636
-33.5265
-32.191
-40.6247
-37.2168
-75.7964
-87.37
-48.3131
-47.3905
-85.4812
-87.3269
-85.4582
-47.4044
-48.3116
-98.059
-98.4021
-48.6634
-48.6641
-49.5223
-15.1654
-15.1231
-49.5881
84.2859
185.094
185.129
84.3088
-31.9243
-29.396
-37.0048
-36.166
-31.9271
-36.1581
-37.0042
-29.3985
-35.4803
-35.476
-32.6465
-32.6471
-61.8196
-67.0638
-67.2036
-63.2493
-43.0691
-54.929
-52.7552
-39.9187
-43.0928
-39.9102
-52.7252
-54.9158
-38.568
-38.5668
-45.1531
-45.1625
-54.617
-42.7688
-42.7649
-54.6147
-32.3483
-32.3232
-36.2323
-36.2357
20.8752
-28.3436
-102.743
-40.2282
-36.0609
-45.9608
7.3374
66.0151
-79.7896
-43.146
-38.9177
-50.8453
-28.1803
20.6534
-102.61
-36.0517
-40.2028
-45.937
66.0052
7.15542
-79.7734
-38.9111
-43.138
-50.8668
-39.7753
-31.7125
-34.3768
-37.3276
-34.3021
-22.4859
-25.8028
-33.5739
-41.9312
-37.1295
-37.9031
-42.359
-43.6942
-39.0101
-42.1721
-53.7035
-39.7748
-37.3268
-31.7034
-34.3723
-34.3097
-33.5744
-22.4808
-25.8371
-41.9295
-42.4267
-37.1287
-37.8887
-43.7187
-53.6997
-39.0193
-42.1785
25.1954
18.6854
-133.318
77.6797
-71.8377
-71.5214
-101.645
-38.9415
-67.5542
-51.3889
-56.9623
-62.2201
-41.8987
-42.2522
-46.5046
-36.4652
-29.9982
-29.9995
-35.5117
-28.2937
-48.1788
-42.7553
-45.6349
-43.0468
99.0472
99.107
-72.0253
129.755
-73.3418
-57.6526
-62.1252
-48.0409
-37.8901
-37.8883
-40.0644
-35.856
-45.1544
-47.9538
-46.7105
-49.6568
24.9121
18.1366
-133.348
77.8916
-67.5484
-51.3794
-56.9548
-62.04
-41.9144
-42.2476
-46.4958
-36.4623
-48.1763
-42.7524
-45.6337
-43.0491
-73.3311
-57.708
-62.1213
-47.5725
-45.1858
-47.9726
-46.7309
-49.6646
-30.589
-29.5195
-30.7844
-30.9571
-35.5474
-35.8395
-40.7877
-33.571
-40.7802
-40.7784
-44.5205
-38.5697
-28.4429
-33.2948
-30.873
-34.8593
-34.184
-34.1843
-33.7158
-35.7421
-40.7015
-41.5006
-38.8584
-54.7232
15.8052
15.8619
11.2105
10.4036
-70.7234
-70.7297
-80.8679
-58.7048
-30.5898
-29.5187
-30.7864
-30.9555
-35.5564
-35.8545
-40.7937
-33.5829
-28.4497
-33.2977
-30.8758
-34.8426
-40.6978
-41.4961
-38.861
-54.6613
-69.1542
-57.8814
-58.7884
-51.4789
-69.1396
-57.8721
-58.7825
-51.4789
-78.9188
-64.8729
-64.8505
-55.7901
-35.5493
-28.8844
-28.869
-14.7223
165.105
127.253
203.238
166.545
-32.3617
-33.4973
-32.9872
-34.9697
-32.3649
-33.5057
-32.9881
-34.9743
-35.01
-35.674
-33.484
-35.0091
-87.6994
-85.135
-92.993
-87.7017
-49.6855
-46.3
-46.6889
-44.5045
-49.681
-46.2987
-46.6826
-44.5013
-40.9013
-40.4931
-40.4939
-39.0687
-45.1953
-47.8553
-47.8495
-49.7796
-33.0863
-28.7432
-36.2416
-33.0846
-128.546
54.8669
-93.0209
-8.01212
-89.5797
-101.129
-45.8883
-34.823
-37.9708
-32.5412
-55.7751
-49.9893
-115.544
107.262
-80.2916
109.243
-81.8317
-48.7554
-49.9464
-36.7921
-40.3323
-36.3196
-49.8048
-44.6475
-92.5605
-7.99804
-128.465
55.7634
-89.5194
-101.155
-37.9605
-32.5093
-45.8709
-34.7874
-55.7754
-49.9856
-80.5406
109.071
-115.397
107.255
-81.8251
-48.789
-40.3317
-36.3198
-49.9569
-36.7835
-49.8112
-44.6676
-50.3015
-48.5261
-31.4058
-33.1695
-40.7567
-32.4376
-43.6147
-37.1738
-43.7077
-39.6276
-28.3991
-30.6938
-26.8173
-33.871
-33.0631
-35.8646
-47.5676
-37.1079
-41.3106
-35.2692
-37.8652
-54.934
-8.1949
-25.1686
-42.9543
-60.323
-36.7816
-37.8327
-38.6747
-53.1903
-67.8418
-61.6896
-50.3068
-48.5296
-43.6125
-37.1701
-31.4049
-33.1647
-40.7574
-32.3908
-43.7026
-39.6267
-33.0627
-35.8654
-28.4038
-30.692
-26.8297
-33.7979
-47.5855
-37.0929
-8.264
-24.9948
-41.2979
-35.2533
-37.8566
-54.8638
-42.9583
-60.3184
-67.8616
-61.6823
-36.7869
-37.8363
-38.6747
-53.1696
-86.2982
-85.6464
122.242
178.89
-95.7838
-95.8172
69.789
72.6036
-68.674
-51.0998
-78.1444
-55.2857
-54.1693
-52.818
-33.1455
-36.6773
-42.5917
-42.5991
-28.6762
-28.6729
-44.3647
-49.1797
-40.2355
-43.6231
-46.9404
-46.9871
189.645
189.626
-52.5245
-70.4816
-42.2688
-25.6523
-42.4847
-42.4942
-35.9586
-35.9584
-48.5232
-44.8137
-50.7577
-45.4271
-86.2666
-85.6255
178.897
122.143
-68.6538
-51.0986
-78.1539
-55.268
-52.8083
-54.1551
-33.1258
-36.6728
-44.3675
-49.1764
-40.233
-43.6093
-70.4736
-52.5221
-25.6333
-42.2513
-44.8232
-48.534
-45.4272
-50.7576
-31.7988
-30.8229
-34.288
-32.4386
-47.1983
-46.931
-32.6557
-34.529
-49.1449
-49.1497
-36.4848
-36.4833
-30.7056
-34.504
-42.0864
-39.3693
-33.2079
-33.208
-38.0702
-38.0702
-37.4505
-36.7551
-85.0203
-70.4992
-6.2116
-6.18633
-28.7785
-28.787
-87.0333
-87.0422
-53.4505
-53.4512
-31.8033
-30.8243
-34.2851
-32.4373
-46.9399
-47.1983
-32.6726
-34.5443
-34.5026
-30.7075
-42.0959
-39.3691
-36.7611
-37.4502
-70.4208
-84.3573
-122.129
-68.1196
-68.951
-133.223
-40.1983
-40.9324
-51.1411
-50.9936
-41.6995
-55.3571
-51.823
-40.82
-95.731
-130.041
-69.5171
-74.0375
-122.006
-133.167
-68.9334
-68.1053
-95.6108
-74.0339
-69.5051
-129.992
-41.6911
-40.8028
-51.8206
-55.3517
-40.1981
-50.9947
-51.1389
-40.9398
-77.2321
-99.5376
-79.121
-75.3816
-77.4424
-75.4123
-79.1166
-99.5854
-42.6583
-44.1092
-55.3801
-53.9341
-42.6411
-53.9304
-55.392
-44.1115
-81.3703
-46.0748
-38.6083
-67.2945
-37.9255
6.6346
-17.5276
-41.3666
-37.8934
-41.3527
-17.502
6.62922
-81.4912
-67.3464
-38.6256
-46.4306
35.0513
73.5211
123.299
-28.4101
109.914
110.522
198.367
94.0413
109.81
93.8941
198.378
110.618
36.9769
-30.7659
123.239
73.6548
-32.0331
-31.1182
-32.5803
-32.9825
-24.722
-28.811
-31.818
-30.0585
-38.6603
-38.8314
-34.872
-33.6628
-36.721
-34.235
-34.8061
-38.3715
-32.0184
-32.9608
-32.5873
-31.1207
-36.7066
-38.3774
-34.8138
-34.2624
-38.6675
-33.6655
-34.8711
-38.8322
-24.7263
-30.0597
-31.8418
-28.817
-34.5392
-38.2457
-35.3114
-32.2186
-34.5321
-32.2155
-35.3104
-38.1226
-30.62
-33.5738
-33.1396
-30.456
-30.6221
-30.4588
-33.14
-33.5735
-52.6407
-55.8651
-90.2566
8.1831
-53.3776
-80.8625
-87.8972
-53.7455
-53.3707
-53.7151
-87.9059
-80.8785
-52.5883
8.12722
-90.1466
-55.7361
-33.9162
-44.077
-44.4143
-33.9362
-45.7034
-46.6978
-49.3163
-48.9973
-51.9722
-45.3909
-50.2111
-48.2324
-39.8104
-36.2207
-44.0569
-47.3129
-33.8902
-33.8982
-44.4155
-44.0765
-39.8349
-47.3351
-44.0516
-36.2176
-51.9797
-48.2308
-50.2267
-45.4075
-45.6723
-48.9963
-49.3135
-46.6918
-36.5021
-35.6675
-39.3435
-41.0245
-36.5003
-41.0249
-39.3439
-35.6677
-41.1333
-35.8856
-41.5267
-46.4763
-41.143
-46.4991
-41.5274
-35.8931
-54.9021
-53.8644
-50.0481
-59.2446
-42.1438
-40.0227
-45.1629
-46.9278
-42.1308
-46.9211
-45.1632
-40.0219
-54.9065
-59.2499
-50.0478
-53.8856
-34.7487
-28.7787
-28.7873
-35.1257
-34.7341
-35.108
-28.7841
-28.7778
-37.0389
-36.0464
-36.3938
-37.1279
-37.0525
-37.139
-36.3935
-36.0495
9.7018
22.1028
-114.343
-39.8085
-37.3442
-41.9414
-14.6906
51.5226
-89.5756
-43.803
-40.6778
-48.952
21.9901
9.50447
-114.553
-37.3337
-39.7875
-41.9182
51.2761
-14.8904
-89.544
-40.6717
-43.7712
-48.9203
-36.6078
-32.3695
-34.1619
-34.7649
-24.7254
-21.1785
-24.3844
-30.1378
-39.9661
-37.5298
-37.1685
-40.345
-42.8955
-40.6933
-42.3891
-48.6682
-36.6015
-34.7565
-32.3606
-34.1562
-24.7401
-30.1518
-21.1984
-24.423
-39.9563
-40.3773
-37.5255
-37.1603
-42.9149
-48.6657
-40.7068
-42.4008
25.1276
26.5411
-127.175
65.7983
-76.874
-76.877
-87.5159
-53.7354
-61.0229
-52.9706
-56.5553
-59.6564
-41.788
-42.2894
-43.5895
-37.2665
-29.4012
-29.4234
-32.8281
-28.527
-45.794
-43.3646
-45.0892
-43.654
110.962
111.189
-32.3332
136.535
-67.9548
-59.572
-63.0338
-57.222
-37.9975
-37.9964
-38.9982
-36.881
-44.9246
-47.0494
-45.9785
-50.2538
24.8238
25.2471
-123.036
65.7926
-61.0177
-52.9856
-56.5487
-59.6231
-41.6306
-42.2804
-43.571
-37.332
-45.7916
-43.3622
-45.0874
-43.6512
-67.9423
-59.5856
-63.0281
-57.2197
-44.9302
-47.084
-46.0009
-50.2707
-30.5497
-30.0429
-30.5485
-30.3927
-35.5874
-35.7132
-37.9573
-34.1469
-40.9966
-40.9959
-42.6591
-39.7322
-29.1727
-31.4332
-29.9467
-31.8924
-34.2457
-34.2458
-33.9584
-34.4234
-41.0986
-41.4593
-40.0142
-48.0408
20.9043
20.8587
18.5407
19.6092
-69.7309
-69.7077
-76.4238
-62.8422
-30.5509
-30.0426
-30.5497
-30.3911
-35.6
-35.7272
-37.965
-34.2587
-29.1805
-31.4355
-29.9475
-31.8855
-41.1007
-41.4548
-40.0139
-48.0084
-63.1196
-58.1269
-58.5428
-54.4382
-63.1083
-58.1181
-58.5356
-54.4339
-71.4176
-64.8962
-64.8886
-60.0059
-30.8821
-26.2678
-26.2662
-20.3164
171.288
147.813
190.468
171.282
-32.7959
-33.5344
-33.2057
-34.0793
-32.8379
-33.541
-33.2085
-34.0823
-35.2566
-35.3327
-34.3567
-35.2558
-91.8642
-88.7513
-94.075
-91.8783
-47.8793
-46.3676
-46.6095
-45.4155
-47.8755
-46.3651
-46.6051
-45.4127
-40.4805
-40.1728
-40.1731
-39.5952
-46.6096
-47.8074
-47.8059
-48.5627
-33.3538
-29.6913
-37.4066
-33.357
21.5231
23.663
-120.66
56.519
-48.1118
-67.6917
-79.8072
-57.8785
-107.563
-76.3332
-91.3483
-102.265
-40.6139
-41.318
-43.0241
-36.1397
-34.888
-32.1154
-35.3003
-33.1485
-51.7484
-53.1976
-56.693
-53.8968
9.51422
18.2981
-101.486
70.9099
91.7151
88.972
-24.739
91.1639
-66.8793
-65.076
-74.3643
-50.3359
-42.3367
-42.0941
-46.9015
-37.9989
-38.1166
-37.8198
-39.1019
-36.6746
-47.7012
-45.5451
-47.5557
-47.1167
-48.1691
-67.4742
-79.3042
-57.4439
21.2498
23.3214
-120.387
56.4449
-107.327
-76.3333
-91.2781
-101.89
-34.8738
-32.0993
-35.3338
-33.2237
-40.59
-41.3531
-43.0059
-36.1207
-51.7279
-53.1955
-56.6949
-53.8863
91.8905
88.9177
-21.4434
90.3978
9.27592
14.3948
-101.576
70.8799
-66.9305
-65.0662
-74.3727
-50.3614
-38.1122
-37.8179
-39.1007
-36.6711
-42.3399
-42.0889
-46.8989
-37.9875
-47.7196
-45.579
-47.5762
-47.0809
-45.5851
-51.1731
-51.0002
-49.3415
-31.3269
-30.8437
-31.2224
-31.7905
-34.6452
-35.1626
-37.7706
-32.9958
-39.3286
-40.431
-41.7893
-38.3852
-40.641
-42.4546
-43.7312
-40.6346
-25.5019
-28.6576
-27.9747
-28.4335
-26.3621
-27.9166
-26.0616
-28.9156
-33.6109
-34.0682
-33.4692
-34.213
-44.894
-53.3421
-48.2317
-45.4252
-36.8208
-36.042
-38.7233
-35.3213
-38.7935
-40.2529
-38.6458
-46.1147
-26.8035
8.55189
-5.03767
-7.11688
-44.9812
-48.3689
-45.3336
-53.6846
-37.7196
-35.3245
-36.6131
-37.0076
-41.908
-41.4464
-39.9547
-47.5086
-61.1249
-73.0954
-68.61
-68.0601
-45.5865
-51.2534
-51.0081
-49.3502
-39.3266
-40.4281
-41.7852
-38.3823
-31.3202
-30.8431
-31.2207
-31.7882
-34.6433
-35.1665
-37.7715
-32.9908
-40.6469
-42.4506
-43.7218
-40.6311
-33.611
-34.068
-33.4697
-34.212
-25.5104
-28.649
-27.9797
-28.4352
-26.3941
-27.9258
-26.0807
-29.0045
-44.9099
-53.3098
-48.2388
-45.3592
-27.4267
8.7691
-4.63946
-7.99162
-36.8255
-36.0563
-38.7201
-35.3297
-38.7794
-40.2462
-38.6355
-46.0851
-45.023
-48.3733
-45.3604
-53.723
-61.1448
-73.1353
-68.5702
-69.1281
-37.7254
-35.3278
-36.6164
-37.0107
-41.9002
-41.4447
-39.954
-47.4933
-99.6705
-76.3021
-85.9687
-85.9138
143.912
163.865
137.913
167.595
-103.104
-87.5256
-95.36
-95.3725
18.1636
104.342
64.9688
59.4829
-57.2864
-57.7018
-62.4238
-53.8995
-63.8664
-64.8927
-71.1101
-59.5782
-50.6755
-52.2669
-53.8167
-53.1316
-35.9089
-34.2179
-34.0958
-37.1072
-39.0332
-41.4705
-41.7834
-41.7877
-28.4226
-28.6472
-28.644
-28.6402
-45.8642
-46.174
-45.0773
-47.4246
-42.3502
-41.0104
-40.9658
-42.6703
-57.3886
-40.8116
-46.95
-46.9998
132.891
209.022
185.861
185.819
-60.6663
-59.1467
-55.8341
-64.4006
-39.909
-32.8303
-40.9604
-30.1985
-41.311
-43.9481
-42.5074
-42.5182
-35.5593
-35.8912
-35.8852
-35.877
-47.3945
-47.0608
-48.271
-45.7613
-48.6704
-47.9451
-49.287
-46.6917
-99.6699
-76.2848
-85.9451
-85.8956
143.973
163.84
167.541
137.855
-57.2775
-57.6923
-62.4091
-53.8941
-63.5304
-64.8416
-70.9164
-59.55
-50.6677
-52.2666
-53.1271
-53.8144
-35.8983
-34.2149
-34.0808
-37.1038
-45.8635
-46.1733
-45.0779
-47.4232
-42.3624
-41.0132
-40.9642
-42.6792
-60.6647
-59.1421
-64.3947
-55.8341
-39.8722
-32.8129
-30.1614
-40.9513
-47.4106
-47.0613
-45.7546
-48.2846
-48.6704
-47.945
-46.6915
-49.2864
-31.1603
-31.9358
-31.694
-31.249
-32.0131
-34.4048
-33.5292
-32.6019
-43.993
-49.3533
-46.8465
-46.7591
-33.4148
-33.5174
-33.0344
-33.9833
-46.6979
-52.2512
-49.2398
-49.2419
-37.6075
-36.1603
-36.7268
-36.7262
-31.5248
-32.6518
-31.4344
-33.1834
-38.5996
-42.8253
-41.3281
-40.1099
-33.5232
-33.3973
-33.3504
-33.3502
-37.2667
-38.5
-37.9543
-37.9541
-38.0205
-35.964
-37.3781
-37.0972
-63.7144
-82.6445
-82.6785
-73.8172
3.7462
-8.58599
-3.54427
-3.53136
-8.32521
-74.2144
-32.0842
-32.1219
-86.445
-93.7367
-90.5661
-90.5717
-55.6829
-51.4591
-53.1325
-53.1314
-31.1627
-31.9388
-31.6977
-31.2511
-32.0118
-34.4036
-33.5288
-32.6
-43.9852
-49.3551
-46.762
-46.8438
-33.0665
-33.5299
-33.07
-34.0155
-31.5327
-32.651
-33.184
-31.3913
-38.5936
-42.823
-41.3299
-40.111
-38.0244
-35.9704
-37.1038
-37.3772
-63.703
-82.6166
-74.019
-82.8521
-104.175
-88.0014
-86.8326
-76.5372
-49.1445
-44.9608
-49.5493
-47.592
-47.5085
-44.2282
-50.4491
-47.1356
-95.0924
-84.2987
-85.6149
-77.822
-104.178
-87.9532
-86.7962
-76.5098
-95.0956
-84.2746
-85.5941
-77.8085
-47.5219
-44.2199
-50.486
-47.131
-49.1419
-44.9625
-49.5476
-47.5922
-104.108
-99.3906
-96.5104
-86.8756
-104.304
-99.6862
-96.6112
-86.9194
-48.3758
-45.9
-51.638
-48.975
-48.3756
-45.8969
-51.6461
-48.9808
-60.8917
-49.4649
-48.2209
-44.0207
-22.8626
-11.4295
-20.347
-9.82533
-22.8364
-11.4132
-20.325
-9.78444
-61.0225
-49.5567
-48.2699
-44.0425
77.6495
41.2772
102.734
78.7878
178.347
157.519
187.615
190.815
157.674
178.365
190.852
187.634
41.2489
77.3718
79.6638
102.615
-31.6566
-32.0979
-31.8843
-32.2723
-28.9408
-28.3324
-30.1944
-30.0578
-36.9334
-37.725
-35.8344
-37.2016
-35.6426
-37.107
-35.3238
-36.4939
-31.6556
-32.0864
-31.8902
-32.2826
-35.6189
-37.0988
-35.3275
-36.498
-36.9372
-37.726
-35.8318
-37.2021
-28.9442
-28.3363
-30.1962
-30.0599
-34.6935
-36.2242
-34.9319
-36.0805
-36.2195
-34.6888
-36.0776
-34.9277
-32.7947
-32.0702
-32.9892
-32.6288
-32.0716
-32.7953
-32.6298
-32.9893
-73.8329
-37.7955
-79.2357
-34.3202
-58.9374
-67.1642
-68.873
-79.4458
-67.1686
-58.9326
-79.4557
-68.7218
-37.5469
-73.7562
-34.286
-78.5727
-43.4325
-40.2199
-43.7068
-42.6376
-51.045
-55.5086
-54.1232
-51.5139
-51.9283
-51.8801
-52.7382
-51.5594
-40.8027
-38.7885
-42.1019
-39.3984
-43.441
-40.0805
-43.7122
-42.6588
-40.7911
-38.7928
-42.0963
-39.395
-51.9154
-51.8729
-52.7234
-51.5763
-51.04
-55.5068
-54.1051
-51.5035
-38.9526
-37.6982
-39.5268
-38.2796
-38.952
-37.6985
-39.5244
-38.279
-41.581
-47.1052
-43.8586
-44.715
-41.5927
-47.0997
-43.8694
-44.7213
-56.505
-57.5562
-52.5423
-53.9041
-41.6083
-43.355
-42.515
-44.1116
-41.6099
-43.3559
-42.5417
-44.1118
-56.5098
-57.5947
-52.5412
-53.8906
-33.739
-32.27
-32.6724
-29.2413
-32.2421
-33.7174
-29.2239
-32.6508
-36.1981
-36.502
-36.1027
-36.4139
-36.5095
-36.2021
-36.4184
-36.1048
-126.695
56.4911
-70.3383
-4.53557
-114.186
-74.0891
-42.2109
-36.1142
-37.9898
-35.1718
-45.8688
-42.8707
-95.5061
84.8186
-63.4869
78.0203
-87.0902
-80.3484
-48.0265
-38.2418
-41.1038
-37.467
-52.6605
-45.3872
-70.5409
-5.1337
-126.683
56.4169
-114.17
-74.709
-37.9982
-35.2742
-42.1685
-36.0879
-45.8574
-42.8581
-63.624
78.0392
-95.5272
84.8113
-87.0416
-80.2433
-41.0892
-37.4483
-48.0026
-38.2287
-52.678
-45.3805
-39.9067
-41.3019
-31.87
-32.4008
-37.2353
-32.7008
-38.9025
-36.4887
-32.4695
-41.2089
-23.5161
-22.2507
-23.7085
-27.7038
-32.8227
-34.3951
-41.8133
-41.5946
-39.1674
-36.4507
-37.2715
-43.3763
-38.8763
-51.5949
-41.9899
-48.1478
-38.8014
-39.373
-40.168
-48.1635
-53.2596
-53.9427
-39.9057
-41.3258
-38.9208
-36.4914
-31.858
-32.3941
-37.2321
-32.6922
-32.4585
-41.2056
-32.8252
-34.3933
-23.5147
-22.2502
-23.7477
-27.7008
-41.8081
-41.6009
-38.5416
-51.634
-39.1654
-36.4459
-37.2571
-43.363
-42.019
-48.162
-53.2544
-53.9333
-38.8106
-39.376
-40.1741
-48.1576
-115.953
59.7754
-119.721
71.0365
-133.399
-132.369
79.0134
85.4176
-89.1603
-63.1406
-89.2608
-62.8604
-101.42
-101.43
-39.779
-41.6575
-67.7991
-71.9622
-50.9276
-52.8242
-61.8023
-53.2777
-68.3859
-57.7058
-43.1585
-36.3417
-45.3683
-37.9805
-46.5351
-47.3208
-35.5148
-37.5167
-33.3328
-29.2263
-33.3244
-29.2279
-35.4556
-35.4602
-28.6677
-28.664
-48.7333
-47.7289
-43.6391
-41.5616
-44.6967
-47.0981
-41.9237
-44.5485
-35.6396
107.526
-35.6445
107.623
-72.8186
-73.0346
118.069
118.111
-75.5668
-53.1617
-56.8532
-50.4102
-58.0996
-66.9423
-49.7535
-44.252
-38.9162
-36.5808
-38.9152
-36.5773
-40.0437
-40.0433
-36.1863
-36.1864
-44.7783
-48.528
-47.3699
-52.8566
-45.8982
-46.4334
-51.472
-48.1847
-115.59
59.8464
-115.842
71.0309
-133.39
-132.344
85.6142
79.2703
-67.7893
-71.9635
-50.928
-52.8254
-61.7911
-53.2728
-68.2035
-57.6932
-43.1401
-36.3244
-45.3579
-37.969
-47.3159
-46.5244
-35.5024
-37.5074
-48.7321
-47.7221
-43.6369
-41.56
-44.6957
-47.097
-41.9251
-44.5471
-75.5633
-53.0568
-56.8629
-50.3719
-66.9385
-58.1048
-44.2965
-49.3874
-44.7986
-48.5648
-47.3923
-52.8196
-46.4496
-45.917
-48.1784
-51.4391
-30.8494
-30.0565
-29.7904
-29.6929
-30.9689
-30.4833
-31.6866
-29.7253
-38.1861
-33.6779
-38.1492
-34.5411
-40.8842
-40.7263
-33.2556
-33.8108
-42.4416
-39.4846
-42.4396
-39.4437
-44.6011
-44.6023
-38.5157
-38.515
-27.8277
-30.5288
-33.193
-34.4265
-29.8226
-32.1809
-34.2064
-35.5691
-33.8407
-34.2874
-33.8408
-34.2878
-33.6842
-33.684
-35.6488
-35.6491
-39.38
-47.8245
-40.0955
-47.7928
-38.8873
-38.7989
-55.2949
-54.0901
12.916
15.0573
12.8442
14.9807
9.82322
9.86201
10.3556
10.2641
-78.1075
-63.7286
-78.1203
-63.7381
-81.1678
-81.175
-58.8461
-58.8215
-30.851
-30.0568
-29.7907
-29.6906
-30.9716
-30.4849
-31.6846
-29.7213
-38.1863
-33.681
-38.1548
-34.5694
-40.7196
-40.8933
-33.3159
-34.0439
-27.835
-30.5461
-33.1916
-34.4262
-32.1829
-29.8269
-34.1772
-35.559
-39.3843
-47.7838
-40.0959
-47.8007
-38.8055
-38.8886
-54.0645
-55.2522
-69.1116
-69.3508
-62.8149
-54.018
-54.838
-63.4246
-51.2348
-51.6197
-69.0955
-69.337
-62.8019
-54.0132
-63.416
-54.8353
-51.6186
-51.2336
-78.7118
-78.7114
-71.454
-60.1299
-71.4346
-60.1119
-55.7615
-55.7666
-36.4763
-36.4998
-35.4784
-23.2874
-23.2738
-35.4715
-15.3897
-15.3844
149.635
184.151
124.538
124.703
200.975
200.934
185.512
149.776
-32.5604
-32.129