# vtk DataFile Version 2.0
tet_velo
ASCII
DATASET UNSTRUCTURED_GRID
POINTS 29498 float
-0.671027 0.165 -1.785
-0.806305 0.165 1.705
-0.72283 0.625 -1.675
-0.795 0.755 1.73012
0.67103 0.165 -1.785
0.806305 0.165 1.705
0.722829 0.625 -1.675
0.795 0.755 1.73012
-0.72978 0.151339 -0.621667
-0.767323 0.158889 0.541667
-0.823143 0.74459 -0.53996
-0.828344 0.769067 0.59508
0.72977 0.151352 -0.621667
0.767324 0.158889 0.541667
0.823142 0.744589 -0.53996
0.82835 0.769074 0.59508
-1.44205 -0.147793 -2.74326
-1.44197 -0.116685 -1.82393
-1.49239 -0.123456 -0.659863
-1.5384 -0.131136 0.509896
-1.56852 -0.129507 1.67444
-1.57669 -0.124035 2.59612
-1.57727 -0.115123 3.51346
-1.43961 0.115978 -2.69843
-1.44243 0.161388 -1.78219
-1.50877 0.166655 -0.62363
-1.55421 0.16464 0.537476
-1.58146 0.164908 1.69658
-1.58663 0.170103 2.61786
-1.58485 0.179006 3.53612
-1.46384 0.623107 -2.60084
-1.4904 0.667605 -1.68342
-1.57906 0.748128 -0.544151
-1.60435 0.767879 0.593116
-1.59142 0.760095 1.73293
-1.59467 0.763985 2.65538
-1.59463 0.772701 3.57821
-1.50032 1.46576 -2.47571
-1.52162 1.51874 -1.56254
-1.56646 1.60093 -0.432438
-1.59876 1.65143 0.691562
-1.60631 1.66455 1.82196
-1.60487 1.66766 2.73575
-1.60329 1.67283 3.65548
-0.70215 -0.146941 -2.74509
-0.690353 -0.114093 -1.82659
-0.726757 -0.13098 -0.659506
-0.758136 -0.136222 0.513473
-0.782587 -0.131348 1.68069
-0.789166 -0.126213 2.60037
-0.789648 -0.117522 3.51592
-0.697265 0.112271 -2.699
-0.798778 0.168142 2.62136
-0.796136 0.176588 3.53797
-0.713558 0.604337 -2.59734
-0.802917 0.760946 2.65482
-0.804244 0.770196 3.57809
-0.733665 1.45359 -2.47225
-0.744396 1.50766 -1.55872
-0.777989 1.59831 -0.43014
-0.806201 1.65293 0.691287
-0.814082 1.66467 1.81999
-0.813505 1.66674 2.73378
-0.813268 1.67167 3.65405
0.725931 -0.146939 -2.74509
0.712003 -0.11409 -1.82659
0.746125 -0.130971 -0.659506
0.778415 -0.13622 0.513473
0.8037 -0.131348 1.68069
0.796669 -0.126213 2.60037
0.790098 -0.117521 3.51592
0.719977 0.112272 -2.699
0.793581 0.168142 2.62136
0.786989 0.176589 3.53797
0.740404 0.604338 -2.59734
0.787548 0.760947 2.65482
0.780945 0.770198 3.57809
0.78575 1.45359 -2.47225
0.796536 1.50766 -1.55872
0.802222 1.59832 -0.43014
0.792245 1.65293 0.691287
0.780419 1.66467 1.81999
0.774682 1.66674 2.73378
0.769966 1.67167 3.65405
1.45696 -0.147788 -2.74326
1.44833 -0.116678 -1.82393
1.4989 -0.123443 -0.659863
1.55007 -0.13113 0.509896
1.58205 -0.129505 1.67444
1.5835 -0.124033 2.59612
1.57758 -0.11512 3.51346
1.44969 0.115981 -2.69843
1.43395 0.161392 -1.78219
1.50195 0.166669 -0.62363
1.55389 0.164646 0.537476
1.58298 0.164909 1.69658
1.58336 0.170105 2.61786
1.57626 0.179009 3.53612
1.4781 0.623109 -2.60084
1.48427 0.667607 -1.68342
1.57172 0.748134 -0.544151
1.59965 0.767888 0.593116
1.58614 0.760097 1.73293
1.57975 0.763988 2.65538
1.57179 0.772704 3.57821
1.5434 1.46576 -2.47571
1.56047 1.51874 -1.56254
1.58208 1.60093 -0.432438
1.58455 1.65144 0.691562
1.57498 1.66456 1.82196
1.56726 1.66766 2.73575
1.5605 1.67284 3.65548
-0.693214 0.395 -1.72629
1.49012e-06 0.158453 -1.79155
-0.713155 0.145418 -1.20333
-0.848014 0.46 1.76492
0 0.157485 1.71252
-0.783463 0.165296 1.12333
-5.06639e-07 0.711882 -1.76188
-0.837862 0.74967 -1.10748
0 0.853508 1.82863
-0.835135 0.785496 1.1626
0.692682 0.395 -1.72575
0.713028 0.145548 -1.20333
0.847995 0.46 1.7649
0.782876 0.165883 1.12333
0.837817 0.749627 -1.10748
0.835139 0.785501 1.1626
-0.746298 0.157368 -0.04
-0.862901 0.447965 -0.580813
-5.29964e-06 0.149044 -0.621667
-0.881645 0.463978 0.568373
5.31937e-07 0.15645 0.541667
-0.828925 0.76001 0.02756
-6.9074e-07 1.09779 -0.53996
3.12121e-06 1.1653 0.59508
0.7463 0.157367 -0.04
0.862877 0.44797 -0.580813
0.881649 0.463981 0.568373
0.828913 0.759999 0.02756
-0.879213 0.421482 -1.15541
-0.852595 0.455971 -0.00621998
-0.89451 0.461989 1.14297
-1.90476e-06 0.14198 -1.20333
-2.38385e-06 0.156287 -0.04
2.65969e-07 0.14978 1.12333
4.91738e-07 0.395 -2.0706
0 0.46 2.07259
-5.9869e-07 0.810318 -1.10748
1.21523e-06 1.20846 0.02756
1.5606e-06 1.01181 1.1626
0.879213 0.421485 -1.15541
0.852594 0.455976 -0.00621998
0.894485 0.461991 1.14297
-1.05673 0.163194 -1.78359
-0.68069 0.0254537 -1.8058
-0.684146 0.138636 -2.242
-1.19388 0.164954 1.70079
-0.794446 0.0168259 1.69285
-0.802541 0.166571 2.16318
-1.10662 0.646303 -1.67921
-0.718194 0.614668 -2.13617
-0.733613 1.06633 -1.61686
-1.19321 0.757547 1.73153
-0.798959 0.757973 2.19247
-0.804541 1.20984 1.77505
0.691517 0.0254552 -1.8058
0.695504 0.138636 -2.242
1.05249 0.163196 -1.78359
0.805003 0.0168262 1.69285
0.799943 0.166571 2.16318
1.19464 0.164955 1.70079
0.731616 0.614669 -2.13617
0.759682 1.06633 -1.61686
1.10355 0.646303 -1.67921
0.791274 0.757974 2.19247
0.787709 1.20984 1.77505
1.19057 0.757549 1.73153
-1.11928 0.158997 -0.622649
-0.728269 0.0101796 -0.640586
-1.16077 0.161765 0.539571
-0.76273 0.0113334 0.52757
-1.2011 0.746359 -0.542055
-0.800566 1.17145 -0.48505
-1.21635 0.768473 0.594098
-0.817272 1.211 0.643183
0.737947 0.0101902 -0.640586
1.11586 0.15901 -0.622649
0.77287 0.0113343 0.52757
1.16061 0.161768 0.539571
0.812682 1.17145 -0.48505
1.19743 0.746362 -0.542055
0.810297 1.211 0.643183
1.214 0.768481 0.594098
-1.44201 -0.132239 -2.2836
-1.44083 -0.0159075 -2.72085
-1.0721 -0.147367 -2.74418
-1.46718 -0.12007 -1.2419
-1.4422 0.0223517 -1.80306
-1.06616 -0.115389 -1.82526
-1.51539 -0.127296 -0.0749832
-1.50058 0.0216 -0.641747
-1.10957 -0.127218 -0.659684
-1.55346 -0.130322 1.09217
-1.5463 0.0167518 0.523686
-1.14827 -0.133679 0.511685
-1.5726 -0.126771 2.13528
-1.57499 0.0177005 1.68551
-1.17555 -0.130428 1.67757
-1.57698 -0.119579 3.05479
-1.58166 0.023034 2.60699
-1.18293 -0.125124 2.59825
-1.58106 0.0319413 3.52479
-1.18346 -0.116323 3.51469
-1.44102 0.138683 -2.24031
-1.45173 0.369542 -2.64964
-1.06844 0.114124 -2.69872
-1.4756 0.164022 -1.20291
-1.46642 0.414497 -1.73281
-1.53149 0.165648 -0.0430771
-1.54392 0.457392 -0.583891
-1.56784 0.164774 1.11703
-1.57928 0.46626 0.565296
-1.58405 0.167506 2.15722
-1.58644 0.462501 1.71475
-1.58574 0.174554 3.07699
-1.59065 0.467044 2.63662
-1.1927 0.169123 2.61961
-1.58974 0.475853 3.55716
-1.19049 0.177797 3.53705
-1.47712 0.645356 -2.14213
-1.48208 1.04443 -2.53827
-1.0887 0.613722 -2.59909
-1.53473 0.707867 -1.11379
-1.50601 1.09317 -1.62298
-1.59171 0.758004 0.0244828
-1.57276 1.17453 -0.488294
-1.59789 0.763987 1.16302
-1.60156 1.20965 0.642339
-1.59304 0.76204 2.19416
-1.59887 1.21232 1.77744
-1.59465 0.768343 3.1168
-1.59977 1.21582 2.69557
-1.19879 0.762466 2.6551
-1.59896 1.22277 3.61684
-1.19944 0.771449 3.57815
-1.51097 1.49225 -2.01912
-1.11699 1.45967 -2.47398
-1.54404 1.55983 -0.997487
-1.13301 1.5132 -1.56063
-1.58261 1.62618 0.129562
-1.17222 1.59962 -0.431289
-1.60254 1.65799 1.25676
-1.20248 1.65218 0.691424
-1.60559 1.66611 2.27885
-1.2102 1.66461 1.82097
-1.60408 1.67025 3.19562
-1.20919 1.6672 2.73477
-1.20828 1.67225 3.65477
-0.696252 -0.130517 -2.28584
-0.699708 -0.0173352 -2.72204
0.0118904 -0.14694 -2.74509
-0.708555 -0.122536 -1.24305
0.0108253 -0.114091 -1.82659
-0.742446 -0.133601 -0.0730162
0.0096839 -0.130976 -0.659506
-0.770362 -0.133785 1.09708
0.0101397 -0.136221 0.513473
-0.785876 -0.128781 2.14053
0.0105565 -0.131348 1.68069
-0.789407 -0.121868 3.05814
-0.793972 0.0209641 2.61086
0.00375157 -0.126213 2.60037
-0.792892 0.0295325 3.52694
0.000224772 -0.117522 3.51592
-0.705412 0.358304 -2.64817
0.011356 0.112272 -2.699
-0.797457 0.172365 3.07967
-0.800848 0.464544 2.63809
-0.00259844 0.168142 2.62136
-0.80019 0.473392 3.55803
-0.00457334 0.176588 3.53797
-0.723612 1.02896 -2.5348
0.0134228 0.604337 -2.59734
-0.803581 0.765571 3.11645
-0.808211 1.21384 2.6943
-0.00768452 0.760947 2.65482
-0.808756 1.22093 3.61607
-0.0116497 0.770197 3.57809
-0.739031 1.48062 -2.01549
0.0260426 1.45359 -2.47225
-0.761192 1.55298 -0.994432
0.0260699 1.50766 -1.55872
-0.792095 1.62562 0.130573
0.0121165 1.59831 -0.43014
-0.810141 1.6588 1.25564
-0.00697812 1.65293 0.691287
-0.813793 1.66571 2.27689
-0.0168315 1.66467 1.81999
-0.813386 1.66921 3.19392
-0.0194118 1.66674 2.73378
-0.021651 1.67167 3.65405
0.718967 -0.130514 -2.28584
0.722954 -0.0173336 -2.72204
1.09145 -0.147364 -2.74418
0.729064 -0.12253 -1.24305
1.08017 -0.115384 -1.82526
0.76227 -0.133596 -0.0730162
1.12251 -0.127207 -0.659684
0.791058 -0.133784 1.09708
1.16424 -0.133675 0.511685
0.800185 -0.12878 2.14053
1.19288 -0.130426 1.67757
0.793383 -0.121867 3.05814
0.795125 0.0209649 2.61086
1.19009 -0.125123 2.59825
0.788543 0.029534 3.52694
1.18384 -0.11632 3.51469
0.730191 0.358305 -2.64817
1.08483 0.114127 -2.69872
0.790285 0.172366 3.07967
0.790565 0.464545 2.63809
1.18847 0.169124 2.61961
0.783967 0.473393 3.55803
1.18163 0.177799 3.53705
0.763077 1.02896 -2.5348
1.10925 0.613723 -2.59909
0.784247 0.765573 3.11645
0.781115 1.21384 2.6943
1.18365 0.762468 2.6551
0.775455 1.22094 3.61607
1.17637 0.771451 3.57815
0.791143 1.48062 -2.01549
1.16458 1.45968 -2.47398
0.799379 1.55299 -0.994433
1.1785 1.5132 -1.56063
0.797233 1.62562 0.130573
1.19215 1.59962 -0.431289
0.786332 1.6588 1.25564
1.1884 1.65218 0.691424
0.77755 1.66571 2.27689
1.1777 1.66462 1.82097
0.772324 1.66921 3.19392
1.17097 1.6672 2.73477
1.16523 1.67226 3.65477
1.45265 -0.132233 -2.2836
1.45333 -0.0159035 -2.72085
1.47362 -0.12006 -1.2419
1.44114 0.022357 -1.80306
1.52449 -0.127286 -0.0749833
1.50043 0.0216131 -0.641747
1.56606 -0.130317 1.09217
1.55198 0.0167579 0.523686
1.58278 -0.126769 2.13528
1.58252 0.0177023 1.68551
1.58054 -0.119576 3.05479
1.58343 0.0230364 2.60699
1.57692 0.0319445 3.52479
1.44182 0.138687 -2.24031
1.4639 0.369545 -2.64963
1.46795 0.16403 -1.20291
1.45911 0.414499 -1.73281
1.52792 0.165657 -0.0430772
1.53684 0.457401 -0.583891
1.56844 0.164778 1.11703
1.57677 0.466267 0.565296
1.58317 0.167507 2.15722
1.58456 0.462503 1.71475
1.57981 0.174557 3.07699
1.58156 0.467047 2.63662
1.57403 0.475856 3.55716
1.48119 0.645358 -2.14213
1.51075 1.04444 -2.53827
1.52799 0.70787 -1.11379
1.52237 1.09317 -1.62298
1.58568 0.758011 0.0244828
[...]
POINT_DATA 29498
VECTORS point_vectors float
-1.03444 -4.01209 5.74139
0.218634 0.324334 2.01608
-1.84713 1.38757 3.50997
0.164734 -0.132149 0.755496
0.987153 -4.00606 5.70611
-0.217625 0.323626 2.00618
1.84823 1.38974 3.51123
-0.165552 -0.1305 0.754388
-0.000618824 0.000206969 0.0142909
-0.0211344 0.00801917 0.533107
-0.00309952 0.0181465 0.408586
0.0280985 0.0385212 0.156837
0.000627302 0.000215622 0.015031
0.0210739 0.00799534 0.533842
0.00341994 0.0177507 0.409176
-0.0283373 0.0388434 0.157483
-0.679736 -0.314608 19.8145
-1.29241 -0.787291 20.3959
-0.550419 -0.424734 21.2496
-0.0588585 -0.0847163 21.2749
0.342225 0.13584 21.2694
0.622775 0.259299 21.0173
0.629293 0.276219 20.9815
-0.856069 -0.249464 19.702
-1.77677 -0.661136 20.3613
-0.711076 -0.430426 21.3351
-0.0914428 -0.141849 21.339
0.444869 0.0631285 21.3436
0.747321 0.145686 21.0761
0.742097 0.132827 21.1822
-0.958621 0.0929197 19.6591
-1.93731 0.145464 20.3978
-0.977649 -0.164573 21.3081
-0.186633 -0.129602 21.4256
0.486825 -0.152787 21.3856
0.77503 -0.200573 21.0611
0.801852 -0.200219 21.3229
-0.693494 0.457686 19.9265
-1.00068 0.64102 20.4345
-0.785166 0.35582 21.1117
-0.21149 0.0117812 21.3107
0.197878 -0.247632 21.1755
0.339419 -0.350641 20.9722
0.398792 -0.32672 20.5852
-0.730754 -0.823495 19.0998
-1.51104 -3.56359 20.614
-0.241074 -0.449843 21.1493
-0.131907 0.0582158 19.9879
0.170417 0.735538 19.783
0.461783 1.16671 19.3699
0.61799 1.08269 19.5456
-0.993781 -0.710756 18.6358
0.698657 1.32724 11.8234
1.18584 1.20386 14.0289
-1.39264 0.311653 18.1638
1.26885 -0.252434 9.17632
1.7998 -0.562898 12.7793
-0.711992 1.04692 19.4132
-1.20052 1.86674 20.1598
-1.3294 1.49874 21.4896
-0.231346 0.103336 21.7963
0.204858 -0.526803 21.3793
0.336437 -0.739075 21.0666
0.301865 -0.790371 20.8246
0.730712 -0.797729 19.132
1.57265 -3.49505 20.5706
0.239601 -0.450904 21.2105
0.123413 0.0588963 20.0572
-0.194993 0.725794 19.9069
-0.47473 1.15419 19.4064
-0.602893 1.09399 19.5523
1.00221 -0.689529 18.6806
-0.667959 1.3176 11.6802
-1.17659 1.21508 13.9096
1.39591 0.292073 18.2395
-1.22121 -0.257261 8.50161
-1.83506 -0.616295 12.161
0.736494 1.01533 19.4459
1.23154 1.76742 20.1893
1.32926 1.44569 21.4765
0.227969 0.107117 21.8068
-0.197903 -0.54112 21.3947
-0.324263 -0.754582 21.0775
-0.278093 -0.823289 20.8285
0.678625 -0.311297 19.8211
1.28445 -0.773664 20.3962
0.554333 -0.420981 21.2423
0.0652295 -0.089822 21.2689
-0.339841 0.126947 21.273
-0.62277 0.256468 21.0045
-0.631446 0.269017 20.9621
0.846441 -0.24415 19.715
1.80062 -0.675057 20.3587
0.710544 -0.433794 21.339
0.0941577 -0.142827 21.3368
-0.441855 0.0633983 21.3453
-0.745371 0.148991 21.0748
-0.741666 0.131969 21.1862
0.947924 0.0837307 19.6741
1.96298 0.150903 20.3948
0.982925 -0.166441 21.3127
0.186209 -0.12872 21.4263
-0.489465 -0.152482 21.3894
-0.786575 -0.206038 21.0559
-0.826054 -0.2147 21.3531
0.6693 0.427369 19.9636
0.96995 0.605386 20.4468
0.777149 0.350837 21.1116
0.213607 0.0117096 21.3137
-0.200596 -0.254724 21.176
-0.344462 -0.352801 20.9945
-0.407104 -0.336142 20.6039
0 0 0
1.76109e-05 -0.00449229 0.0370138
-0.0136514 -4.12584e-05 0.188854
0.0387524 0.00314376 0.163191
-9.57417e-05 0.00530602 0.0501046
0.00350143 0.0109507 0.649364
0.000803775 0.0504283 0.157798
-0.575955 -0.29973 1.44801
-0.000206652 0.00252757 -0.00842461
0.166743 0.2583 0.908364
0 0 0
0.0133654 -3.81279e-05 0.185024
-0.0386318 0.00313773 0.162543
-0.00386563 0.00904388 0.635758
0.573107 -0.298213 1.44161
-0.16802 0.259487 0.912392
-0.00178619 0.000341563 0.0389647
0.000130022 0.000649583 0.0165811
0 0 0
0.001098 0.00775027 0.0597901
5.72165e-21 -3.463e-20 -4.54745e-17
0.0179194 0.0485371 0.168207
0.00186535 0.059507 0.146958
-0.00163861 -0.0222973 0.0852593
0.00189807 0.000378553 0.0407805
-0.000126808 0.000629133 0.0161141
-0.00109098 0.00775905 0.0600013
-0.0178935 0.0484923 0.168363
-0.000412887 -0.000372487 0.00874483
0.000573766 0.0021427 0.0141525
-0.00806002 0.0119827 0.162573
-1.46876e-07 -4.81307e-07 9.47517e-05
-9.8514e-10 2.23983e-08 1.12079e-05
-2.93276e-07 1.7471e-07 0.000484467
-9.46792e-05 -0.0556378 0.0819483
-0.000316381 0.00598162 -0.00433552
0 0 0
1.18812e-05 0.00177495 0.0373658
-1.25916e-05 0.000321756 -0.00098107
0.000426659 -0.000387108 0.00901681
-0.000569322 0.0021225 0.0140296
0.00800811 0.0119127 0.161473
-3.51493 -2.07473 20.0262
-2.03593 -5.6479 20.8456
-2.55069 -2.33512 17.5612
0.743395 0.36554 20.7645
0.145473 0.861337 15.1431
0.465976 1.13641 8.99713
-4.12236 0.8007 20.0657
-3.88354 1.54571 16.5221
-2.46065 3.04283 19.9286
0.94013 -0.19018 20.5991
0.598541 -0.201408 5.89818
0.702409 -0.65435 19.5204
2.12814 -5.59802 20.7841
2.54933 -2.28763 17.6149
3.56057 -2.11483 20.0094
-0.157296 0.865185 15.3118
-0.444286 1.11408 8.87969
-0.739191 0.361436 20.7603
3.86872 1.49003 16.6172
2.48908 2.94356 19.9518
4.15407 0.818836 20.0594
-0.538573 -0.209803 5.51845
-0.73315 -0.630981 19.2224
-0.942644 -0.182078 20.5544
-0.482429 -0.732902 20.974
-0.307476 -0.00487674 14.9642
0.0365667 -0.0773628 20.3291
-0.254265 0.19012 13.9396
-1.48856 -0.589781 21.7287
-3.19933 1.51601 21.8675
-0.173288 -0.289559 21.2014
-0.249498 0.0627482 20.7632
0.309717 -0.00793431 15.1985
0.476395 -0.723941 20.9109
0.258295 0.205097 14.1659
-0.0349435 -0.076938 20.3209
3.13336 1.45109 21.8766
1.49431 -0.600482 21.7297
0.213006 0.0803322 20.5638
0.169961 -0.288262 21.1754
-1.03241 -0.558078 19.958
-0.766852 -0.289109 19.7635
-0.794667 -0.532163 19.4882
-0.995894 -0.68303 21.0613
-1.5551 -0.754774 20.3772
-1.80198 -1.79918 20.3448
-0.253281 -0.226404 21.2881
-0.645199 -0.450225 21.2822
-0.405668 -0.600263 21.5253
0.122019 0.0274989 21.3333
-0.087362 -0.129068 21.2944
0.0026963 -0.0960944 21.4129
0.515202 0.222424 21.1603
0.377826 0.101999 21.277
0.464076 0.375112 21.4117
0.666148 0.246357 20.9088
0.663124 0.212308 21.0616
0.781152 0.657783 20.8099
0.698217 0.221013 20.9951
0.841169 0.714697 20.4247
-1.35641 -0.424585 19.8256
-0.936323 -0.097461 19.6444
-0.996464 -0.440581 19.2684
-1.31901 -0.618555 21.1687
-1.99931 -0.301753 20.3881
-0.341313 -0.273611 21.3398
-0.864822 -0.331037 21.3492
0.139523 -0.030357 21.3857
-0.159624 -0.155077 21.4009
0.634136 0.1214 21.2119
0.474528 -0.0406455 21.3875
0.787414 0.154881 20.7807
0.827258 -0.0291914 21.0245
1.15852 0.558619 20.6631
0.833077 -0.0408538 21.656
1.15017 0.414441 20.3829
-1.53199 0.140145 19.8231
-0.891554 0.347481 19.7519
-1.28636 0.145591 19.0676
-1.51099 -0.0381691 21.0716
-1.48095 0.560917 20.4035
-0.55737 -0.177709 21.4082
-0.989454 0.146452 21.2273
0.13695 -0.109983 21.4338
-0.221478 -0.0716721 21.4134
0.669958 -0.187633 21.2018
0.350179 -0.260267 21.2572
0.829315 -0.180296 20.6745
0.555284 -0.36883 20.9549
1.28136 -0.351183 20.5249
0.620934 -0.358632 20.6947
1.20808 -0.270692 20.0769
-0.890469 0.59316 20.1192
-0.754004 0.694457 19.6999
-0.978182 0.541826 20.8287
-1.2324 1.14115 20.3221
-0.500069 0.175144 21.2859
-1.08526 0.716584 21.2901
0.0317072 -0.12469 21.2818
-0.241843 0.0548859 21.5251
0.307302 -0.310525 21.0491
0.231988 -0.380407 21.2366
0.412581 -0.369841 20.892
0.393223 -0.549523 20.9504
0.390338 -0.514186 20.9317
-1.39308 -2.00925 19.003
-0.862591 -0.797055 18.8897
0.0132612 -1.17599 18.652
-0.516227 -1.49789 22.0177
0.020553 -3.8305 21.6714
-0.166874 -0.114712 20.2752
0.00262312 -0.384571 20.1456
-0.027262 0.234262 19.7417
0.00106813 -0.0605724 18.3201
0.319778 1.07804 19.8058
0.00110622 0.459701 17.7421
0.596967 1.21955 19.3854
0.562215 1.38049 16.7805
-0.00892389 0.674408 17.091
0.806634 1.30793 17.3657
0.0182582 1.06422 16.2421
-1.2577 -0.308901 18.2461
0.0268835 -1.07837 17.748
1.03477 1.53029 13.1424
0.973039 0.60755 6.02489
-0.0267551 -0.0897043 2.13756
1.62216 0.789977 11.1083
0.0118222 0.511229 6.95022
-1.08907 1.02612 18.7709
0.034493 0.6487 16.6558
1.79312 -0.430733 11.4396
0.836995 -0.967545 19.9457
0.0371337 -0.256207 -1.33029
0.817147 -0.966174 20.1969
0.0549524 -1.08582 1.52681
-0.981866 1.58006 19.6577
0.0372799 1.44782 19.1038
-1.40534 1.81912 20.7553
0.0650954 2.62499 19.9195
-0.770193 0.735262 21.92
0.0287641 3.02594 21.6811
0.0640938 -0.291196 21.5776
-0.00503515 0.176281 22.1876
0.278229 -0.650984 21.2107
0.000492848 -0.643825 21.4231
0.372888 -0.757665 20.7764
0.00149961 -0.911336 21.241
0.00212079 -1.12932 20.7307
1.40101 -1.95094 19.0326
0.87646 -0.780979 18.9306
0.792078 -0.519774 19.5039
0.542561 -1.49137 21.9838
1.78762 -1.7446 20.3426
0.160945 -0.115686 20.5557
0.413317 -0.600463 21.5133
0.0163027 0.235522 19.78
-0.00154574 -0.0996489 21.4084
-0.34331 1.06409 19.8979
-0.461514 0.356923 21.4091
-0.611205 1.19057 19.4122
-0.556789 1.36556 16.7756
-0.775847 0.638385 20.8288
-0.801237 1.31562 17.3019
-0.844678 0.714422 20.4014
1.26225 -0.30106 18.3068
0.992358 -0.430288 19.2912
-1.01114 1.54 13.0321
-0.915847 0.614269 5.66461
-1.15926 0.559329 20.6025
-1.62145 0.81027 10.664
-1.15311 0.447679 20.3013
1.11889 0.979865 18.841
1.273 0.134901 19.1038
-1.79827 -0.444651 10.7826
-0.854629 -0.958691 19.464
-1.31151 -0.338002 20.4137
-0.822177 -0.997732 19.6449
-1.23363 -0.248813 19.8677
1.017 1.50065 19.6934
0.754725 0.659764 19.7271
1.40965 1.73331 20.7654
1.21705 1.0712 20.3338
0.769484 0.72938 21.9144
1.06423 0.684087 21.2796
-0.0652279 -0.296539 21.5902
0.242087 0.0567889 21.5323
-0.270718 -0.664986 21.228
-0.23284 -0.393247 21.2456
-0.353374 -0.800729 20.7573
-0.384166 -0.570355 20.9541
-0.395545 -0.547395 20.9618
1.02645 -0.546514 19.9644
0.76151 -0.285295 19.779
0.993749 -0.672324 21.0552
1.55696 -0.757629 20.3796
0.251794 -0.222835 21.2879
0.646511 -0.450939 21.2814
-0.1158 0.0188698 21.3234
0.091479 -0.13049 21.2893
-0.512175 0.216661 21.1572
-0.375813 0.100886 21.2873
-0.662211 0.248602 20.9141
-0.658892 0.221929 21.0641
-0.694808 0.214733 20.9779
1.35455 -0.424168 19.8271
0.931689 -0.0932703 19.6572
1.32547 -0.629882 21.1795
2.02587 -0.309137 20.3822
0.340927 -0.274351 21.3426
0.87061 -0.336308 21.3546
-0.138393 -0.0319021 21.3819
0.160804 -0.155464 21.4004
-0.629162 0.121948 21.21
-0.473076 -0.0412635 21.387
-0.790916 0.158123 20.7932
-0.834208 -0.0288799 21.0201
-0.85153 -0.0437051 21.7187
1.52473 0.136545 19.8282
0.877521 0.331096 19.7792
1.52776 -0.0406735 21.0792
1.45713 0.5401 20.4099
0.559155 -0.179322 21.411
0.984326 0.14642 21.2257
-0.136103 -0.109408 21.4343
0.222166 -0.0739072 21.417
-0.673753 -0.188933 21.2007
-0.354864 -0.267308 21.2561
-0.846228 -0.181854 20.6963
-0.566303 -0.383629 20.967
-0.643544 -0.373048 20.7197
0.85141 0.548661 20.1421
0.96063 0.524078 20.8256
0.499992 0.174811 21.2865
-0.0296129 -0.125782 21.2932
-0.309818 -0.316571 21.0631
-0.413113 -0.379998 20.8773
-1.20353 -0.518751 19.8932
-1.85159 -2.28532 18.4135
-1.336 -1.05366 19.5559
-1.98517 -0.96682 19.1016
-0.896288 -0.518236 19.3889
-2.50363 -2.04314 20.2291
-1.16427 -0.670216 21.1258
-0.556614 -0.722426 17.3493
-1.04319 -1.27659 21.5202
-1.72089 -1.59273 22.1146
-0.404266 -0.679465 21.5508
-0.313694 -0.270859 21.3115
-0.253076 0.104104 13.9757
-0.150047 -0.286109 21.4371
-0.135745 -0.299159 20.3596
0.0421816 -0.0957971 21.1551
0.120411 -0.00585905 21.355
-0.0615624 0.25775 14.086
0.162856 0.0824038 21.4331
0.202178 0.0891446 20.4821
0.606915 0.396008 21.2025
0.566421 0.182457 21.1687
0.348133 1.29762 15.7719
0.679906 0.561289 21.246
1.05022 0.498936 20.6868
0.963694 0.626588 20.7458
0.739659 0.230171 20.8816
0.705906 1.45004 17.1211
0.866564 0.675412 20.6802
1.10937 0.566889 20.6449
0.970756 0.707733 20.5324
-1.52144 -0.193127 19.7794
-3.90543 -0.779807 16.1049
-2.60053 0.444031 18.9007
-1.19038 -0.190808 19.0996
-4.69272 -0.688313 19.8898
-1.49182 -0.363656 21.1709
-2.50109 -0.12394 21.702
-0.923244 -0.723775 21.1001
-0.44551 -0.253266 21.3895
-0.713793 -0.547961 21.4132
-0.0607887 -0.17694 20.428
0.14158 -0.0807455 21.4297
0.25153 -0.0667526 20.8005
0.927097 0.174699 20.1788
0.710327 -0.0311893 21.1877
0.0679517 0.0659635 2.69094
1.12937 -0.312225 20.4873
1.39959 0.179051 20.0944
0.915481 -0.00375807 20.6255
1.4638 0.846361 8.34906
1.28058 -0.376189 20.1959
1.36789 0.260011 18.4417
-1.2529 0.496038 19.9603
-1.94678 2.21509 18.7754
-1.04637 0.997459 19.9129
-1.0566 0.607574 19.3478
-2.24128 1.36139 20.2558
-1.32238 0.351043 20.9239
-2.81253 2.14368 20.8313
-1.26979 1.0154 20.8376
-1.67556 0.375503 21.5242
-0.60246 0.0138418 21.3903
-1.53643 0.422811 21.4751
-0.650182 0.361564 21.5309
-0.323133 -0.065929 21.7185
0.0881322 -0.160683 21.3804
0.468451 -0.316241 20.1254
0.0489281 -0.187985 21.4137
0.467879 -0.472591 21.4297
0.480263 -0.334014 21.1187
0.722293 -0.825847 19.7858
0.332474 -0.454916 21.1439
0.753757 -0.648919 20.9272
0.587326 -0.364133 20.9244
0.850967 -1.0436 20.1499
0.432452 -0.554161 20.8313
0.775684 -0.609245 20.6245
1.8611 -2.22023 18.4609
0.0340339 -3.35035 18.4685
0.0435297 -5.69666 14.8147
0.0168815 -1.25066 18.2354
0.00159194 -3.92413 20.8737
0.562042 -0.739354 17.6535
0.00301113 -1.30079 21.7836
0.00293757 0.000106842 12.1026
0.256031 0.110858 14.1906
0.00102781 -0.142931 18.9554
0.00106345 0.0113405 10.7886
0.0640798 0.268363 14.2729
0.000624652 0.0549965 17.8908
0.000437133 0.370189 10.6177
-0.357726 1.28634 15.8487
-0.00136806 0.62955 17.538
-0.0344878 -0.498264 1.8447
-0.0143059 0.443045 11.1562
-0.704202 1.45221 17.0848
-0.019109 0.960699 16.51
-0.00238844 -0.388459 3.43347
0.0177635 1.05376 12.1188
3.86182 -0.764372 16.2394
0.0796728 6.2118 11.6024
0.0339217 -0.513443 16.8926
-0.00988262 0.0650673 2.53425
-0.0221136 1.16557 -0.725
0.0246687 -0.904404 -4.23054
-1.4096 0.881048 7.75723
0.0530796 -0.933863 -0.358277
0.00212496 -0.682566 -2.97658
1.96443 2.12603 18.8386
0.0590156 2.24644 19.3722
0.0465361 1.65065 18.0108
0.0458269 4.43077 19.6449
2.80163 2.05375 20.8653
0.0441561 2.98196 20.4506
0.0323832 5.75786 19.9403
1.53571 0.422529 21.5159
0.00267894 1.44865 22.5259
0.00380666 -0.384932 11.2319
-0.511665 -0.301014 19.8372
-0.0021453 -0.401446 21.7175
0.00669831 -0.667634 9.57531
-0.750049 -0.801722 19.3791
0.0012462 -0.77213 21.2015
0.0120992 -1.01447 11.6836
-0.884749 -1.05316 19.6752
0.00760191 -0.862895 21.0067
0.0238017 -1.27222 12.5547
1.1963 -0.514604 19.9016
1.32703 -1.02991 19.5841
1.9734 -0.954387 19.1159
0.893519 -0.511488 19.4052
2.49219 -2.02125 20.2273
1.16639 -0.670349 21.1255
1.05332 -1.25402 21.4981
1.71733 -1.60206 22.1184
0.411573 -0.681723 21.5551
0.312468 -0.268812 21.3147
0.156885 -0.29006 21.4417
0.134938 -0.294358 20.3205
-0.0391977 -0.108157 21.2286
-0.11602 -0.0117046 21.3432
-0.164903 0.0785588 21.4318
-0.200241 0.0880808 20.4788
-0.600666 0.3804 21.2214
-0.559619 0.184757 21.1675
-0.67681 0.546324 21.2418
-1.04429 0.50021 20.6685
-0.955657 0.623999 20.7415
-0.738898 0.231896 20.8993
-0.865487 0.659462 20.6857
-1.12264 0.57237 20.5584
-0.975171 0.718273 20.5016
1.51851 -0.19049 19.7815
2.57506 0.426578 18.9388
1.18595 -0.188582 19.1346
4.78452 -0.700454 19.8766
1.5085 -0.372493 21.1813
2.51125 -0.128455 21.7152
0.912381 -0.723556 21.0016
0.446776 -0.256103 21.3898
0.713439 -0.556033 21.3963
0.0601426 -0.174792 20.403
-0.141081 -0.0804703 21.4297
-0.253574 -0.0609911 20.7693
-0.924854 0.178009 20.1498
-0.712251 -0.0324399 21.1865
-1.1362 -0.304499 20.3964
-1.40185 0.193091 19.8654
-0.920555 0.00126221 20.6073
-1.30511 -0.353906 20.0123
-1.38831 0.273813 18.259
1.23371 0.472095 19.9807
1.03905 0.944539 19.9412
1.04604 0.579203 19.3886
2.19511 1.27499 20.2648
1.30969 0.341634 20.9234
1.24626 0.958223 20.8396
1.65459 0.365928 21.5168
0.603596 0.0136813 21.3912
0.648162 0.359845 21.5279
0.32362 -0.0663233 21.7271
-0.0874178 -0.165213 21.3866
-0.0494392 -0.190012 21.4225
-0.470571 -0.482956 21.437
-0.48572 -0.340534 21.1199
-0.328626 -0.470129 21.15
-0.753977 -0.670458 20.9297
-0.59589 -0.381054 20.9066
-0.437644 -0.575901 20.8328
-0.8072 -0.615525 20.6522
-1.63343 -1.06457 19.339
-1.29062 -1.45582 21.7868
-0.116444 -0.316967 21.2404
0.208338 0.0782984 21.1786
0.879402 0.558788 20.9224
1.01837 0.69863 20.5522
-2.54079 -0.376173 18.7867
-2.41228 -0.83857 22.2376
-0.329616 -0.470351 20.6242
0.188988 0.0486648 20.2445
1.2329 0.165919 19.8852
1.5496 0.163454 19.4556
-1.74557 1.10779 19.4955
-2.06252 0.832879 21.0573
-0.960976 0.0951473 21.7654
0.138532 -0.231044 21.6067
0.617083 -0.596894 21.244
0.714275 -0.702002 20.6666
0.0440034 -4.42887 17.4372
0.0043812 -0.445279 14.1372
0.00114243 0.0210493 11.0494
0.000708188 0.0096887 10.6254
-0.00831044 0.39235 10.26
-0.025809 0.764828 11.7938
0.0658527 -1.15806 9.68459
-0.0226176 -0.0496105 -2.41823
0.0193891 -1.49409 -4.0651
0.0447668 3.85798 18.1462
0.0472498 4.54581 19.4698
0.00223452 0.845878 13.0619
0.00625729 -0.603825 9.62429
0.00719298 -0.672977 10.2472
0.0196194 -1.22861 12.7145
1.6201 -1.04766 19.3578
1.29638 -1.44211 21.7712
0.122194 -0.323884 21.2794
-0.205815 0.070129 21.2041
-0.870441 0.547213 20.9321
-1.01719 0.696481 20.5542
2.51642 -0.36898 18.8179
2.42991 -0.845758 22.2571
0.324234 -0.468738 20.5713
-0.187349 0.0522294 20.2178
-1.23557 0.175807 19.7791
-1.58551 0.177958 19.2417
1.71241 1.04659 19.538
2.02583 0.801851 21.053
0.960542 0.094854 21.7654
-0.141724 -0.234924 21.6211
-0.615744 -0.613786 21.2543
-0.73953 -0.721842 20.6776
-1.77973 -0.359953 1.57663
0.00100826 -0.0388835 0.267909
-0.0572141 -0.0252084 0.557858
0.106031 0.0446317 0.316466
0 0 0
-0.00681401 0.0137516 0.461871
-1.71884 0.474409 2.13503
-0.00485788 0.0451126 0.128322
-0.72369 0.401691 2.44379
0.0790904 -0.0207061 0.246487
-0.0165263 -0.00454892 0.00791654
0.123904 0.0481773 0.849477
-0.0010287 -0.0390955 0.269401
1.7301 -0.335314 1.53619
0.0588648 -0.0258176 0.568998
0 0 0
-0.105421 0.0445431 0.315394
0.00656886 0.0136408 0.46138
0.00492716 0.0450539 0.128297
1.73397 0.478666 2.15236
0.714861 0.39631 2.40887
0.0159611 -0.00429562 0.00748443
-0.0782313 -0.0206726 0.244978
-0.122968 0.0474856 0.839466
-0.0053592 -0.00319782 0.192355
-8.6915e-05 2.2182e-05 0.00250687
-0.0248386 0.0814331 0.81644
0 0 0
-0.00215128 0.00251312 0.533864
-0.00384076 0.00151518 0.0720791
0.000166598 0.00120132 0.0103578
-2.03766e-19 5.43735e-20 1.63441e-17
-0.166759 -0.154457 0.538997
2.77357e-19 5.90154e-20 4.16936e-17
0.0213429 0.0502514 0.279213
-0.0398597 0.0411189 0.116874
0.0599548 0.0829851 0.293657
0.00181292 0.0118736 0.0470962
0.00378822 0.00697172 0.0216763
0.242183 0.0843096 0.635372
0.00554499 -0.00301501 0.190993
0 0 0
0.000108766 2.85302e-05 0.00310817
0.0244382 0.0808413 0.805987
0.00217097 0.00205944 0.545151
3.97697e-19 1.09364e-19 3.27016e-17
0.00384265 0.0015111 0.0723472
-0.000173271 0.00122555 0.0106169
0.16634 -0.153754 0.536549
0.0394232 0.0412717 0.117048
0 0 0
-0.0214061 0.0502344 0.279744
-0.0595763 0.082506 0.291616
-0.243854 0.0835886 0.639425
-0.00174782 0.0120166 0.047524
-0.00329877 0.00628514 0.0192131
-0.0537026 -0.0232334 0.261622
-1.73073 -0.211154 1.23065
0 0 0
0 0 0
-0.000955851 0.00310607 0.0576914
0 0 0
0.000364542 0.00657186 0.0624328
0 0 0
0 0 0
-0.00122917 -0.0488053 -0.0249827
-0.00262946 0.00667038 0.170776
-0.00618139 0.00248045 0.137366
7.5303e-05 1.91801 0.799707
-1.00743e-05 0.011368 0.0606534
0 0 0
-0.0556067 -0.0108136 0.0557706
0 0 0
0 0 0
-0.00466445 0.0160088 0.164437
-1.41781e-18 2.22901e-18 -9.86217e-18
1.6881 -0.230405 1.19169
0.0524875 -0.0229483 0.25447
0 0 0
0.00092137 0.00305982 0.0567474
0 0 0
-0.000362371 0.00663508 0.0629107
0.00642577 0.00244851 0.174236
0.00259977 0.00659343 0.168536
0 0 0
0 0 0
0 0 0
0.00466085 0.0160566 0.164486
0.00810958 0.0437561 0.477647
-8.46913e-05 1.65075e-05 0.00578159
0 0 0
0.000579974 0.00787056 0.0774992
2.5654e-07 -1.11234e-07 -0.000187613
-3.70146e-09 3.84566e-07 4.79181e-05
0 0 0
-0.00014143 0.00448256 0.0301322
2.11373e-10 -3.04505e-09 -2.06584e-06
1.08522e-09 3.33125e-09 -4.80239e-06
0.00167351 0.00760039 0.0410144
0.0313417 0.0941309 1.12419
-1.48598e-06 0.0179535 0.0431682
1.29019e-05 0.00918692 0.0520595
-4.92319e-06 -0.000215385 0.00597494
-6.21618e-06 -0.000327655 0.00191298
8.27767e-05 1.63233e-05 0.0057653
-0.00813072 0.0438335 0.477141
0 0 0
-0.000579531 0.00784717 0.0772791
0 0 0
0.00012002 0.00526703 0.0352129
-0.0310853 0.0941758 1.12603
-0.0016742 0.00759191 0.0410524