# vtk DataFile Version 2.0
tri_press
ASCII
DATASET UNSTRUCTURED_GRID
POINTS 3682 float
-0.854119 0.265 -1.875
-0.793856 0.395 1.975
-0.753308 0.885 -1.845
-0.515 1.555 1.77512
0.854119 0.265 -1.875
0.793858 0.395 1.975
0.753308 0.885 -1.845
0.515 1.555 1.77512
-0.829589 0.312775 -0.591667
-0.842186 0.323425 0.691667
-0.739303 1.17376 -0.638293
-0.659108 1.39634 0.568413
0.829581 0.312784 -0.591667
0.842196 0.323416 0.691667
0.739247 1.17371 -0.638293
0.659112 1.39634 0.568413
-1.62183 -0.287893 -2.84245
-1.62495 -0.16455 -1.84647
-1.59573 -0.128767 -0.561157
-1.56185 -0.152465 0.739579
-1.51514 -0.110988 2.02619
-1.50991 -0.0210039 3.02853
-1.52355 0.0896333 4.01909
-1.62298 0.10018 -2.855
-1.62321 0.249865 -1.86739
-1.58623 0.331537 -0.596985
-1.53737 0.358389 0.680317
-1.46411 0.427096 1.95219
-1.4816 0.518542 2.95345
-1.5116 0.624153 3.94651
-1.57994 0.821482 -2.85858
-1.54555 0.963098 -1.86781
-1.50227 1.20435 -0.649643
-1.39211 1.4007 0.563095
-1.27028 1.54542 1.78273
-1.37783 1.6284 2.78716
-1.46949 1.7123 3.79258
-1.53416 2.08772 -2.92158
-1.51251 2.25933 -1.94228
-1.48062 2.5503 -0.74896
-1.43247 2.84675 0.427847
-1.39908 3.06902 1.62197
-1.42082 3.18989 2.60294
-1.46846 3.28349 3.59999
-0.833084 -0.278463 -2.84739
-0.835511 -0.148835 -1.85368
-0.815491 -0.134435 -0.560189
-0.811431 -0.180075 0.749266
-0.789852 -0.13989 2.04313
-0.79892 -0.0409529 3.04002
-0.814376 0.0768826 4.02574
-0.842472 0.0989637 -2.85652
-0.803582 0.503132 2.96292
-0.818721 0.614557 3.95153
-0.810271 0.78727 -2.84911
-0.723539 1.6298 2.78563
-0.797009 1.71175 3.79225
-0.775142 2.05866 -2.91221
-0.760646 2.22908 -1.93196
-0.748647 2.53523 -0.742738
-0.730567 2.85037 0.427101
-0.719729 3.08016 1.61664
-0.743912 3.19964 2.59762
-0.784689 3.29014 3.59612
0.796165 -0.278468 -2.84739
0.83184 -0.148836 -1.85368
0.82719 -0.134433 -0.56019
0.826529 -0.180081 0.749266
0.782134 -0.139892 2.04313
0.686103 -0.0409553 3.04002
0.632336 0.0768797 4.02575
0.78306 0.0989585 -2.85652
0.634395 0.50313 2.96292
0.597161 0.614554 3.95153
0.749072 0.787263 -2.84911
0.539219 1.6298 2.78563
0.553473 1.71174 3.79225
0.746877 2.05865 -2.91221
0.743504 2.22906 -1.93196
0.7155 2.53521 -0.742738
0.662957 2.85036 0.427101
0.612416 3.08015 1.61664
0.589678 3.19963 2.59762
0.576008 3.29014 3.59612
1.60152 -0.287908 -2.84245
1.63329 -0.164563 -1.84647
1.61901 -0.128773 -0.561157
1.59378 -0.152474 0.739579
1.52647 -0.110995 2.02619
1.43216 -0.0210097 3.02853
1.37002 0.0896264 4.01909
1.59002 0.100164 -2.855
1.63057 0.249847 -1.86739
1.60191 0.331525 -0.596985
1.56301 0.358381 0.680317
1.47984 0.427091 1.95219
1.37664 0.518537 2.95345
1.32839 0.624147 3.94651
1.5439 0.821461 -2.85858
1.55092 0.963067 -1.86781
1.51274 1.2043 -0.649643
1.40896 1.40069 0.563095
1.2755 1.54542 1.78273
1.25501 1.6284 2.78716
1.26373 1.71229 3.79257
1.51104 2.08769 -2.92158
1.49984 2.2593 -1.94228
1.457 2.55026 -0.74896
1.3817 2.84673 0.427847
1.31016 3.06901 1.62197
1.28277 3.18988 2.60294
1.27427 3.28348 3.59999
-0.84216 0.575 -1.89845
0 0.261484 -1.87852
-0.83847 0.292272 -1.23333
-0.727341 0.975 1.94797
9.83477e-07 0.394583 1.97542
-0.851587 0.325646 1.33333
0 0.985873 -1.94587
-0.716083 0.999159 -1.24165
0 1.58943 1.80955
-0.611907 1.50052 1.17177
0.842188 0.575 -1.89847
0.838211 0.292531 -1.23333
0.727321 0.975 1.94795
0.851529 0.325706 1.33333
0.71608 0.999157 -1.24165
0.611869 1.50048 1.17177
-0.830545 0.323442 0.05
-0.84779 0.74327 -0.61498
-4.15884e-06 0.260873 -0.591667
-0.844437 0.859882 0.63004
5.18117e-06 0.261077 0.691667
-0.696448 1.28229 -0.03494
-2.82147e-05 1.35705 -0.638293
2.08363e-06 1.63407 0.568413
0.830551 0.323438 0.05
0.847789 0.743246 -0.61498
0.844419 0.859879 0.63004
0.696437 1.28228 -0.03494
-0.895312 0.659135 -1.23749
0.895313 0.659123 -1.23749
-2.07942e-06 0.260619 -1.23333
-1.41073e-05 1.10539 -1.24165
0 0.575 -2.20825
-0.84939 0.801576 0.00753
0.849389 0.801563 0.00753
5.11165e-07 0.260972 0.05
-1.30655e-05 1.6105 -0.03494
-0.867904 0.917441 1.25255
0.867888 0.91744 1.25255
3.08232e-06 0.296479 1.33333
1.04182e-06 1.62783 1.17177
4.91738e-07 0.975 2.09949
-0.841488 0.42 -1.88007
-0.42706 0.266884 -1.87312
-0.840039 0.284892 -1.55417
-0.812017 0.685 2.01291
-0.396928 0.405184 1.96482
-0.844094 0.33895 1.65417
-0.811526 0.73 -1.88551
-0.376654 0.966656 -1.92666
-0.743375 0.950759 -1.54332
-0.612148 1.265 1.85252
-0.2575 1.58546 1.80558
-0.599079 1.56339 1.47344
0.42706 0.266863 -1.87314
0.841549 0.42 -1.88013
0.839693 0.285237 -1.55417
0.396929 0.406864 1.96314
0.811971 0.685 2.01286
0.844206 0.33884 1.65417
0.376654 0.966653 -1.92665
0.811569 0.73 -1.88556
0.743372 0.950756 -1.54332
0.2575 1.58546 1.80558
0.612149 1.265 1.85252
0.599054 1.56336 1.47344
-0.861748 0.274806 -0.9125
-0.829489 0.318687 -0.270833
-0.834437 0.530149 -0.603323
-0.427023 0.262372 -0.591667
-0.85106 0.320362 1.0125
-0.834096 0.325703 0.370833
-0.866868 0.579875 0.660853
-0.435853 0.262726 0.691667
-0.715387 1.07416 -0.93997
-0.835649 0.979568 -0.626637
-0.709598 1.21975 -0.336617
-0.39489 1.31586 -0.638293
-0.634027 1.44695 0.87009
-0.779932 1.14219 0.599227
-0.696679 1.35822 0.266737
-0.379457 1.61501 0.568413
0.861745 0.274808 -0.9125
0.427017 0.262372 -0.591667
0.829487 0.31869 -0.270833
0.834431 0.530142 -0.603323
0.851061 0.320362 1.0125
0.435861 0.262726 0.691667
0.834116 0.325685 0.370833
0.866466 0.580068 0.660853
0.715386 1.07415 -0.93997
0.394851 1.31586 -0.638293
0.835663 0.979549 -0.626637
0.709613 1.21977 -0.336617
0.634026 1.44695 0.87009
0.37946 1.61501 0.568413
0.780102 1.14228 0.599227
0.696682 1.35822 0.266737
-0.894247 0.617067 -1.56797
-0.42108 0.575 -2.15335
-1.03971e-06 0.260569 -1.55592
0 0.418242 -2.13746
-0.89294 0.475703 -1.23541
-0.419236 0.260637 -1.23333
-0.859421 0.94622 1.60026
-0.36367 0.975 2.07319
2.0329e-06 0.318941 1.65438
7.37607e-07 0.684791 2.21459
-0.894194 0.621543 1.29294
-0.425792 0.306027 1.33333
-7.05367e-06 1.05109 -1.59376
0 0.780437 -2.18451
-0.887104 0.829147 -1.23957
-0.358048 1.08823 -1.24165
5.20909e-07 1.61156 1.49066
2.45869e-07 1.28222 2.00606
-0.743796 1.20898 1.21216
-0.305953 1.61518 1.17177
0.894247 0.617062 -1.56798
0.421094 0.575 -2.15188
0.892939 0.475827 -1.23541
0.419104 0.260637 -1.23333
0.858939 0.94622 1.60025
0.363661 0.975 2.07319
0.894194 0.621573 1.29294
0.425766 0.305999 1.33333
0.887086 0.82914 -1.23957
0.358033 1.08824 -1.24165
0.743762 1.20896 1.21216
0.305935 1.61518 1.17177
-0.849835 0.557576 0.028765
-0.4301 0.262552 0.05
-0.826754 0.701202 -0.926235
-0.853461 0.772423 -0.303725
-3.11913e-06 0.260718 -0.9125
-1.82384e-06 0.260932 -0.270833
-0.841769 0.830729 0.318785
-0.861425 0.888661 0.941295
2.84617e-06 0.261031 0.370833
4.13175e-06 0.272698 1.0125
-0.812727 1.06184 -0.013705
-0.416942 1.58382 -0.03494
-2.1161e-05 1.12738 -0.93997
-2.06401e-05 1.55281 -0.336617
-5.49094e-06 1.62785 0.266737
1.56273e-06 1.63107 0.87009
0.850133 0.557419 0.028765
0.430102 0.262551 0.05
0.826756 0.701185 -0.926235
0.853453 0.772404 -0.303725
0.841766 0.830721 0.318785
0.861436 0.88866 0.941295
0.810853 1.06089 -0.013705
0.416927 1.58382 -0.03494
-0.893105 0.447852 -1.56107
-0.867367 0.501863 -0.919368
-0.858072 0.893832 -0.933103
-0.895469 0.779574 -1.55565
0.893105 0.447914 -1.56107
0.895469 0.77957 -1.55565
0.858071 0.893808 -0.933103
0.867367 0.501921 -0.919368
-0.423148 0.260585 -1.55505
0.423082 0.260585 -1.55505
0.416946 0.260737 -0.9125
-0.417016 0.260737 -0.9125
-0.367351 1.03556 -1.56854
-0.363857 1.10662 -0.93997
0.363821 1.10712 -0.93997
0.367343 1.03556 -1.56854
-0.42407 0.419121 -2.1546
-0.398867 0.755218 -2.06778
0.398874 0.755218 -2.06737
0.424077 0.419121 -2.1546
-0.842641 0.54361 -0.287279
-0.855797 0.570003 0.344809
-0.800872 1.10429 0.292761
-0.826508 1.02186 -0.320171
0.84267 0.543586 -0.287279
0.82648 1.02183 -0.320171
0.800862 1.10428 0.292761
0.8558 0.569993 0.344809
-0.42856 0.262464 -0.270833
0.428558 0.262464 -0.270833
0.43298 0.262641 0.370833
-0.432975 0.262641 0.370833
-0.440494 1.51899 -0.336617
-0.401089 1.60519 0.266737
0.401083 1.60519 0.266737
0.440469 1.519 -0.336617
-0.885512 0.606598 0.976898
-0.886689 0.653272 1.62721
-0.725073 1.23699 1.53685
-0.757301 1.16855 0.905693
0.885512 0.60661 0.976898
0.757276 1.16854 0.905693
0.725131 1.23698 1.53685
0.886691 0.653286 1.62721
-0.423441 0.288997 1.0125
0.423433 0.288653 1.0125
0.411348 0.31898 1.65427
-0.41136 0.319919 1.65427
-0.317753 1.61726 0.87009
-0.281726 1.60248 1.48205
0.281717 1.60248 1.48205
0.317746 1.61726 0.87009
-0.380299 0.684896 2.16849
0.380295 0.684896 2.16849
0.31058 1.27361 1.96447
-0.310585 1.27361 1.96447
-0.842578 0.3425 -1.87231
-0.640589 0.26687 -1.87313
-0.838306 0.283719 -1.71458
-0.794794 0.54 1.98581
-0.595392 0.394555 1.97545
-0.826778 0.359172 1.81458
-0.782162 0.8075 -1.865
-0.564981 0.926614 -1.88661
-0.755132 0.92467 -1.69416
-0.535645 1.41 1.78589
-0.38625 1.57761 1.79773
-0.568328 1.57048 1.62428
0.640589 0.266855 -1.87314
0.842599 0.3425 -1.87233
0.837725 0.2843 -1.71458
0.595394 0.394628 1.97537
0.795349 0.54 1.98636
0.826806 0.359146 1.81458
0.564981 0.926637 -1.88664
0.782164 0.8075 -1.86501
0.755103 0.924641 -1.69416
0.38625 1.57762 1.79774
0.535661 1.41 1.78591
0.568302 1.57046 1.62428
-0.828541 0.310918 -0.752083
-0.82943 0.31584 -0.43125
-0.802328 0.436305 -0.597495
-0.640587 0.263012 -0.591667
-0.848395 0.320121 0.852083
-0.8369 0.325805 0.53125
-0.827727 0.46505 0.67626
-0.653866 0.263381 0.691667
-0.719515 1.11613 -0.789132
-0.771674 1.06877 -0.632465
-0.715795 1.1881 -0.487455
-0.584486 1.27959 -0.638293
-0.64655 1.42163 0.719252
-0.712947 1.26598 0.58382
-0.669784 1.36917 0.417575
-0.561967 1.59104 0.568413
0.828527 0.310932 -0.752083
0.640582 0.263012 -0.591667
0.829431 0.31584 -0.43125
0.802331 0.436301 -0.597495
0.84839 0.320128 0.852083
0.653873 0.263381 0.691667
0.836915 0.32579 0.53125
0.827729 0.465043 0.67626
0.719277 1.11589 -0.789132
0.584457 1.2796 -0.638293
0.771639 1.06872 -0.632465
0.71582 1.18813 -0.487455
0.646552 1.42163 0.719252
0.56197 1.59104 0.568413
[...]
POINT_DATA 3682
SCALARS point_scalars float 1
LOOKUP_TABLE default
-120.414
-54.941
-84.3726
-44.1021
-120.912
-55.0403
-84.2417
-44.2652
-39.0893
-32.5427
-91.4018
-55.619
-39.1005
-32.5797
-91.4343
-55.6544
-71.3345
-132.662
-38.7912
-46.0146
-56.4348
-54.1337
-47.121
-69.1859
-109.787
-38.9954
-44.6371
-59.5175
-50.2854
-45.4858
14.7755
-104.916
-57.24
-50.0054
-47.4908
-43.5884
-41.6996
-85.714
-74.5596
-101.388
-63.7485
-50.1224
-46.2724
-44.8161
-24.3544
-153.824
-40.1135
-50.0469
-55.5181
-46.1628
-45.6965
33.6014
-45.2792
-45.3145
136.738
-38.9579
-38.3244
-61.1078
-44.9589
-96.3795
-67.6202
-46.988
-44.7617
-44.2957
-58.9878
-154.804
-40.1173
-50.0524
-55.4831
-45.2803
-45.2803
35.5679
-45.2803
-45.2803
158.315
-36.6315
-36.5403
-52.1824
-44.1294
-95.1536
-68.4551
-46.4846
-44.4492
-39.9644
-71.9096
-132.907
-38.8004
-46.0406
-56.4617
-54.2235
-45.23
-4.84012
-109.835
-39.0067
-44.6596
-59.5882
-50.3393
-45.23
14.8067
-105.126
-57.0382
-50.1034
-47.6076
-41.9256
-41.5061
-85.5946
-74.6671
-101.511
-63.7808
-50.3957
-46.47
-44.9797
-90.1772
-117.826
-54.1485
-44.6859
-51.4648
-49.5567
-63.8237
-35.8445
-40.0025
-47.6517
-90.3916
-54.4362
-44.7847
-49.56
-35.8392
-48.1127
-37.9914
-45.5721
-45.3137
-42.9234
-48.2811
-67.6482
40.1342
-67.5632
-38.0043
-45.6043
-42.9759
-67.6417
-61.2359
-61.2834
-61.626
3.38517
204.554
-46.3285
-46.3395
-42.3962
-99.7243
-48.4736
-48.5574
-52.7602
-52.2066
-42.6831
-104.532
-113.984
-75.3593
-50.0245
-51.7261
-60.4082
-62.5812
-88.9154
-55.5133
-40.7641
-40.8466
-49.7298
-114.01
-105.293
-75.2891
-51.8999
-50.0789
-60.5226
-88.9329
-62.8665
-55.5029
-40.9685
-40.8984
-49.7362
-55.698
-38.154
-40.6002
-44.1753
-46.282
-36.8212
-36.4947
-47.8707
-31.2106
-61.6644
-78.7105
30.527
-49.7436
-51.4836
-61.6262
-65.5549
-55.4658
-44.1771
-38.1602
-40.6196
-46.3154
-47.8779
-36.8478
-36.572
-31.2036
30.767
-61.7273
-78.7344
-49.8813
-65.5872
-51.5634
-61.6507
-87.183
181.289
-80.3245
191.69
-60.8115
-59.8727
-53.5145
-41.8913
-55.2807
-44.8661
-50.6795
-51.3169
-23.1599
159.546
-61.8285
-4.03214
-45.8517
-31.3379
-47.797
-51.5561
-87.1817
181.29
-60.8366
-59.8789
-53.5612
-41.9881
-50.7473
-51.3109
-61.8602
-4.03397
-47.8945
-51.5685
-40.296
-41.3597
-49.7008
-47.3667
-51.3183
-42.5758
-43.8179
-45.0628
-44.3317
-52.2581
-58.9627
-94.5683
26.4426
-93.8329
-79.0317
-57.817
-40.2916
-41.3619
-49.8157
-47.3924
-43.8395
-45.135
-58.232
-94.5854
-86.0311
-51.1167
-53.6381
-85.3711
-86.0176
-85.4782
-53.6336
-51.2244
-78.9208
-78.908
-50.0292
-50.0193
-28.7048
16.932
17.1323
-28.836
148.708
128.845
128.932
148.959
-40.8602
-38.7911
-54.81
-60.8972
-40.8688
-60.9093
-54.846
-38.8117
-41.4796
-41.4803
-43.3172
-43.3128
-79.9521
-75.0964
-75.1157
-80.1039
-42.594
-55.4745
-47.6002
-49.9625
-42.6489
-50.095
-47.6335
-55.5553
-50.256
-50.2656
-56.0933
-56.0158
-56.7531
-46.387
-46.4015
-56.8008
-44.3966
-44.411
-36.1565
-36.0019
-112.667
-118.29
-99.6588
-51.321
-52.3341
-56.9204
-63.4785
-77.0114
-77.3829
-40.6898
-43.1579
-48.5206
-118.416
-113.605
-99.5491
-52.4928
-51.3694
-56.972
-76.8843
-63.5368
-77.3123
-43.3192
-40.8337
-48.7176
-40.9576
-38.3162
-39.9316
-42.4222
-55.8972
-36.4416
-32.9895
-47.2445
-50.4168
-76.3982
-87.9137
0.164153
-52.8715
-53.1439
-61.1484
-61.5037
-40.9709
-42.4239
-38.3244
-39.9512
-55.9051
-47.2542
-36.4776
-33.0216
-48.7664
0.231035
-76.5175
-88.0189
-52.9507
-61.5002
-53.2114
-61.1831
-96.5009
-71.9594
-116.579
122.483
-118.472
-118.599
-97.4454
-98.6472
-64.1226
-46.8932
-58.7191
-57.4511
-45.1556
-42.6499
-52.2904
-42.3406
-51.5015
-51.5647
-55.0238
-45.8211
-55.276
-48.1626
-50.0186
-50.3287
-74.0114
-73.8649
-40.6963
109.389
-44.9349
-28.8692
-55.7376
-14.6845
-40.3265
-40.392
-42.947
-34.7109
-45.7693
-50.5386
-48.5722
-50.5757
-96.7788
-72.1134
-116.611
123.174
-63.6474
-47.5735
-58.7066
-57.47
-45.2833
-42.7671
-52.396
-42.4401
-55.3142
-48.2189
-50.0688
-50.3643
-45.0477
-28.8887
-55.7784
-14.683
-45.42
-50.7766
-48.7438
-50.6189
-38.3459
-37.036
-39.1115
-39.9762
-42.5888
-51.7753
-45.5851
-46.9706
-45.0665
-45.0668
-47.8469
-43.5845
-39.6929
-46.6425
-43.0357
-43.0421
-48.2197
-48.2234
-46.0544
-51.3955
-73.4339
-62.5972
-61.7962
-81.0587
40.3463
40.4639
45.3545
-6.45589
-67.1745
-67.1882
-73.773
-62.0215
-38.3541
-37.0577
-39.1274
-39.9814
-42.6159
-51.818
-45.6484
-46.9965
-39.7326
-46.7311
-43.0767
-43.1054
-73.468
-62.5742
-61.7107
-81.0749
-69.8881
-61.3586
-61.2469
-56.4383
-69.9193
-61.3891
-61.3027
-57.9438
-69.3368
-61.2147
-61.2141
-55.8102
-10.0258
1.21102
1.20859
15.1262
199.398
172.982
200.372
199.386
-43.6058
-47.6379
-44.7243
-51.2201
-43.6181
-47.6686
-44.72
-51.3018
-42.1465
-42.2015
-43.1152
-42.1472
-98.4615
-110.712
-88.836
-98.486
-50.8806
-50.0376
-47.1694
-47.4573
-50.9753
-50.1171
-47.2436
-47.5604
-53.7753
-52.5282
-52.5422
-52.1817
-49.1187
-52.0489
-52.061
-54.605
-42.725
-42.7856
-34.4407
-42.776
-112.059
81.3729
-97.3139
-29.1637
-82.9965
-77.0504
-53.9506
-44.7734
-56.2001
-45.4217
-57.7758
-56.9211
-107.068
72.587
-48.3844
101.6
-72.2148
-38.5832
-47.4273
-38.5396
-43.5122
-37.1672
-47.4176
-47.1096
-97.3033
-28.0392
-112.133
87.1897
-82.9893
-77.0162
-56.349
-45.5234
-54.0749
-44.788
-57.8391
-57.0129
-48.3968
101.942
-106.975
72.6939
-72.2078
-38.608
-43.5704
-37.2956
-47.5313
-38.6808
-47.1724
-47.1102
-51.8569
-48.5803
-39.9129
-40.1073
-42.7261
-40.715
-46.7032
-42.3897
-43.97
-48.4008
-37.2481
-41.6846
-36.8338
-41.2467
-45.2397
-53.4355
-48.8559
2.11062
-56.6185
-61.666
-69.3636
-106.457
29.4215
-4.10457
-49.1696
-55.1274
-54.1506
-50.01
-58.7842
-70.0521
-70.1277
-60.5344
-51.8548
-48.6092
-46.7078
-42.3903
-39.9202
-40.1097
-42.7686
-40.7263
-44.013
-48.4154
-45.2454
-53.447
-37.2765
-41.692
-36.8665
-41.234
-48.7879
2.01662
29.5798
-3.98475
-56.6535
-61.7309
-69.3841
-106.475
-49.3146
-55.2122
-70.1562
-60.5777
-54.212
-50.0986
-58.7527
-70.0691
-87.1291
-86.1341
173.506
157.884
-79.812
-79.7988
190.73
190.807
-69.1983
-55.1848
-67.5816
-54.2529
-54.9046
-49.798
-43.2756
-37.2189
-55.4778
-55.4333
-44.7526
-44.7584
-49.2688
-54.5589
-50.4773
-53.3204
-24.3933
-24.3806
162.675
160.643
-56.1989
-67.897
-16.3955
6.37468
-46.078
-46.0927
-33.0309
-32.8956
-47.1141
-46.5791
-53.6818
-48.9401
-87.1304
-86.2257
157.968
173.373
-69.2128
-55.1927
-67.577
-54.2657
-49.8709
-54.928
-43.3223
-37.4021
-49.3354
-54.6311
-50.5084
-53.3566
-67.9268
-56.1709
6.40942
-16.4097
-46.7469
-47.1479
-48.9279
-53.725
-40.6575
-39.0295
-41.1661
-42.057
-49.7061
-51.5646
-44.0026
-52.6118
-50.9897
-50.9876
-42.3266
-42.3265
-41.2031
-47.8817
-42.2421
-49.0467
-44.1012
-44.0576
-52.0166
-52.0263
-49.8755
-59.5705
-110.265
-84.2709
23.5633
23.5832
-85.163
-85.1889
-78.26
-78.2738
-57.6004
-57.6181
-40.6641
-39.0796
-41.1674
-42.0601
-51.6009
-49.8767
-44.0152
-52.6512
-47.7872
-41.2201
-42.3083
-49.1052
-59.6871
-49.6259
-84.2988
-110.333
-108.701
-67.3019
-69.9534
-113.816
-42.4926
-43.4988
-55.8978
-53.5839
-61.5519
-54.6896
-57.6538
-50.3183
-94.8712
-113.72
-69.1768
-60.2511
-108.621
-113.906
-69.9726
-67.3035
-94.9546
-60.268
-69.2206
-113.387
-61.948
-50.3545
-57.559
-54.6643
-42.5304
-53.7555
-55.8233
-43.5555
-98.0747
-97.0889
-68.9169
-65.293
-98.0626
-65.2747
-68.9118
-97.0636
-45.0707
-47.5245
-55.4347
-52.1084
-45.0664
-52.0456
-55.4328
-47.5234
-56.3674
-24.6138
-11.5818
-42.4141
9.18439
39.6494
13.0586
-5.6012
9.35856
-5.60266
13.062
39.8825
-56.387
-42.4184
-11.5825
-24.6473
1.40499
93.863
173.689
-103.737
8.97418
97.5949
176.093
100.955
8.64032
101.098
175.791
98.3094
0.533811
-103.081
173.735
92.1705
-39.8639
-39.7973
-44.3316
-43.5978
-35.8055
-40.1588
-42.3043
-38.0906
-57.9051
-56.3626
-47.2086
-46.9888
-75.329
-52.728
-52.119
-65.5601
-39.8741
-43.6196
-44.3605
-39.8041
-75.3961
-65.6103
-52.1756
-52.7635
-57.9549
-47.0582
-47.0334
-56.3623
-35.8415
-38.1145
-42.3178
-40.1919
-40.8595
-43.2933
-41.9558
-39.8545
-40.8614
-39.8581
-41.956
-43.2929
-43.6663
-45.9277
-42.8878
-40.5275
-43.6577
-40.521
-42.8866
-45.925
-73.2108
-104.759
-111.014
-1.37336
-64.9322
-72.9377
-88.1167
-74.1347
-64.9207
-74.1489
-88.139
-72.9524
-73.5436
-1.5211
-111.063
-104.822
-45.8377
-49.0027
-48.1937
-40.6757
-56.5357
-52.5988
-53.0686
-55.5494
-47.9688
-46.778
-48.5293
-49.0065
-51.1316
-46.8236
-45.9101
-48.6107
-45.8657
-40.71
-48.2688
-49.054
-51.2245
-48.8216
-46.1523
-46.9067
-48.118
-49.0969
-48.5964
-46.7805
-56.6129
-55.6194
-53.2046
-52.7148
-55.6901
-51.6047
-51.851
-49.0849
-55.7017
-49.0947
-51.8621
-51.6105
-57.4791
-55.358
-53.7152
-53.0772
-57.3475
-53.0219
-53.6917
-55.2946
-56.3994
-52.2239
-54.4139
-61.7278
-44.7385
-43.0769
-49.1053
-48.8705
-44.8281
-48.7409
-49.1155
-43.1066
-56.496
-61.7479
-54.4252
-52.333
-45.2626
-45.6884
-42.7611
-42.504
-45.2603
-42.5838
-42.8004
-45.6894
-38.9276
-35.5723
-35.3309
-39.7377
-38.7857
-39.5793
-35.2056
-35.4929
-118.909
-133.83
-131.281
-53.3592
-53.8046
-56.6456
-71.4983
-80.8888
-92.364
-41.2061
-43.5564
-46.1212
-134.137
-119.58
-131.32
-53.9423
-53.4268
-56.7485
-80.3045
-71.3253
-92.477
-43.7158
-41.3588
-46.2977
-39.8852
-38.5445
-39.3459
-41.3801
-49.2941
-36.049
-31.8666
-44.5452
-73.9089
-88.1065
-101.021
-57.2676
-54.2186
-54.4404
-57.1571
-57.1768
-39.8983
-41.3778
-38.5512
-39.3653
-49.3117
-44.5589
-36.0799
-31.9029
-73.8453
-56.9271
-88.2227
-101.161
-54.2729
-57.2163
-54.4955
-57.1962
-93.741
-82.2525
-122.271
31.4974
-118.229
-118.301
-110.413
-121.923
-59.9637
-51.2697
-57.1957
-55.3705
-44.959
-43.7839
-50.1028
-42.939
-51.4654
-51.4934
-53.1731
-47.2807
-50.8122
-48.6242
-48.9077
-50.3155
-65.1618
-65.0039
-53.5397
48.1465
-41.4486
-31.179
-46.7671
-25.151
-40.0646
-40.0947
-41.2046
-36.1834
-45.2173
-47.9982
-47.9212
-49.2798
-93.8897
-82.3494
-122.486
31.0755
-60.3888
-50.5031
-57.0842
-55.3668
-45.0587
-43.8736
-50.2148
-43.0295
-50.8423
-48.6285
-48.9461
-50.35
-41.4287
-31.2004
-46.6574
-25.0393
-46.6383
-48.3148
-48.2367
-49.6017
-38.2388
-37.6718
-39.0007
-38.6518
-43.7554
-48.3174
-45.2303
-46.3531
-45.2618
-45.2619
-46.4765
-44.3428
-41.2837
-44.432
-42.8446
-43.1066
-48.2625
-48.2644
-47.1038
-49.6542
-70.4319
-64.9946
-64.3682
-73.7933
40.7127
40.803
46.9022
22.5231
-67.5139
-67.5213
-70.9566
-64.5885
-38.2507
-37.689
-39.0161
-38.6595
-43.7857
-48.3521
-45.2724
-46.3812
-41.3293
-44.4958
-42.895
-43.1587
-70.4413
-64.978
-64.3503
-73.8019
-64.3925
-61.3687
-61.0983
-58.593
-64.4295
-61.4075
-61.1535
-58.5972
-65.1982
-61.5176
-61.5169
-58.5254
-3.43427
2.7897
2.7895
9.2759
198
187.875
202.036
198.037
-44.5489
-47.1865
-45.5354
-48.2311
-44.5637
-47.2076
-45.5293
-48.2321
-42.3326
-42.2335
-42.6838
-42.3328
-99.2984
-106.297
-95.052
-99.3105
-49.4197
-49.7224
-47.7961
-47.7529
-49.5002
-49.8039
-47.8728
-47.845
-53.2392
-52.7054
-52.7132
-52.4558
-50.849
-52.1721
-52.1784
-53.3519
-42.8348
-43.0737
-39.8576
-42.864
-110.134
-100.413
-126.47
4.16302
-115.437
-116.946
-109.51
-129.192
-86.7445
-67.4064
-79.4432
-75.3755
-51.249
-47.0166
-52.9618
-45.5888
-52.6635
-51.5119
-54.363
-46.3987
-57.7002
-58.1797
-60.515
-57.188
-59.9763
-61.2123
-95.1021
2.36514
-83.1054
-86.8694
-65.1203
46.8327
-64.4021
-49.0385
-65.4215
-46.6027
-40.2671
-41.2899
-45.7228
-39.2141
-42.127
-40.7473
-42.1279
-37.8945
-49.9297
-46.9529
-48.7649
-48.3396
-115.482
-117.026
-109.526
-128.998
-111.106
-100.966
-127.077
4.68068
-86.5882
-67.1883
-79.4211
-75.3197
-52.8231
-51.4522
-54.6232
-46.6128
-51.3377
-47.0518
-53.0967
-45.6373
-57.7853
-58.2281
-60.6306
-57.2797
-83.1378
-86.8215
-65.1388
47.0412
-60.2239
-61.4788
-96.2602
2.31918
-64.489
-49.0916
-65.4234
-46.6356
-42.2649
-40.8429
-42.2124
-38.0255
-40.4064
-41.4249
-45.849
-39.3493
-50.1264
-44.2477
-47.7927
-48.5416
-47.7685
-45.3076
-54.001
-49.6216
-38.2061
-38.33
-39.4509
-39.045
-40.3144
-41.2973
-41.2967
-40.3636
-43.5205
-44.6594
-45.4381
-43.1086
-46.9844
-47.5221
-45.0129
-47.5354
-36.7343
-36.7528
-36.5637
-39.4299
-33.8346
-38.9086
-36.9716
-41.1066
-47.5494
-48.1485
-46.4824
-49.9572
-32.8479
-29.1818
-44.2288
-10.3789
-67.1037
-55.8417
-59.4726
-61.886
-81.4677
-76.0837
-72.5347
-102.319
21.5742
36.8487
35.5376
18.2277
-51.6581
-51.2778
-48.8393
-55.3603
-52.1359
-49.3156
-52.1662
-50.8026
-65.7703
-59.9494
-59.4332
-64.5756
-63.6576
-66.5329
-68.1639
-62.7358
-47.7629
-45.8403
-53.9025
-49.5662
-43.5231
-44.6603
-45.441
-43.1096
-38.2129
-38.3342
-39.4591
-39.0479
-40.3318
-41.3209
-41.3244
-40.3784
-47.007
-47.5697
-45.0501
-47.566
-47.5586
-48.154
-46.4888
-49.9657
-36.7658
-36.776
-36.5922
-39.4419
-33.8894
-38.944
-37.056
-41.0599
-32.8922
-29.1829
-44.1335
-10.4443
21.8241
37.0953
35.7316
18.4512
-67.2295
-55.8883
-59.5283
-61.9398
-81.5152
-76.1281
-72.5703
-102.315
-51.763
-51.4565
-48.9936
-55.4941
-63.6976
-66.5569
-68.1922
-62.7726
-52.2057
-49.43
-52.2307
-50.9408
-65.8011
-59.9549
-59.4828
-64.5763
-98.4852
-77.5198
-87.3897
-86.589
159.776
196.288
182.501
171.525
-87.8353
-74.2462
-80.1447
-80.1395
102.474
178.83
190.861
191.12
-59.894
-61.095
-63.9848
-57.213
-58.8252
-60.6864
-63.3703
-56.8635
-53.0788
-52.3391
-54.6078
-51.3424
-41.9873
-42.6482
-42.7156
-39.8135
-56.0388
-54.3456
-55.3339
-55.3127
-45.8672
-42.705
-44.8297
-44.8352
-50.7652
-50.5132
-49.7842
-52.0273
-50.6837
-52.1573
-50.7438
-52.3134
-31.5891
-17.3803
-23.338
-23.3261
99.7189
189.46
147.212
144.227
-58.5307
-61.9465
-58.3367
-63.3301
-8.35245
-0.991941
-10.108
0.67928
-44.453
-47.4898
-45.948
-45.9568
-32.9424
-31.7042
-31.8915
-31.9183
-48.8309
-46.2423
-49.1137
-44.6623
-51.0529
-51.8574
-52.5256
-50.3853
-98.455
-77.5418
-87.3939
-86.6168
159.68
196.186
171.858
182.463
-59.9292
-61.1198
-64.0135
-57.2295
-58.8386
-60.6878
-63.3709
-56.874
-53.1268
-52.4503
-51.4261
-54.6309
-42.0953
-42.7139
-42.7796
-39.9573
-50.8273
-50.5885
-49.8509
-52.0985
-50.7047
-52.1736
-50.7621
-52.3547
-58.5437
-61.996
-63.363
-58.3264
-8.35916
-0.997582
0.733287
-10.1189
-48.939
-46.3442
-44.8221
-49.1727
-51.0684
-51.8696
-50.3808
-52.558
-39.5126
-42.3818
-40.5612
-39.2193
-40.7495
-41.825
-41.1949
-41.6352
-46.4355
-54.3108
-49.2649
-50.2445
-47.1892
-47.3704
-45.2854
-49.8376
-49.4455
-53.4282
-51.2194
-51.2187
-42.9999
-42.3071
-42.5063
-42.5061
-43.4393
-44.2359
-42.3812
-45.3612
-43.4184
-46.6547
-43.7703
-46.4673
-45.1296
-43.6635
-44.2721
-44.2361
-52.1908
-52.2582
-52.2032
-52.2079
-60.5032
-55.5116
-54.01
-58.8597
-89.3599
-97.4531
-101.236
-89.4929
34.5395
21.2504
25.3732
25.7833
-45.241
-109.653
-92.7053
-90.5681
-75.9674
-83.1553
-78.9002
-78.9077
-59.7588
-56.1157
-57.7681
-57.7759
-39.52
-42.4035
-40.5467
-39.2463
-40.7531
-41.8264
-41.1966
-41.638
-46.5425
-53.0962
-50.3254
-49.4229
-47.2151
-47.3992
-45.3047
-49.8708
-43.4709
-44.243
-45.3803
-42.4022
-43.478
-46.748
-43.8417
-46.5267
-60.3146
-55.6283
-59.1508
-53.6638
-89.38
-97.4816
-89.5276
-101.281
-99.5194
-84.9462
-86.7279
-76.2449
-52.0315
-46.6573
-51.8805
-50.1785
-52.3568
-54.84
-54.6314
-53.3399
-103.222
-80.3709
-86.2866
-75.759
-99.5032
-84.9243
-86.7219
-76.2382
-102.531
-80.4003
-86.4419
-75.8051
-52.3389
-54.8569
-54.6106
-53.3456
-52.0842
-46.7311
-51.8975
-50.4318
-86.8353
-77.9053
-79.5539
-72.6299
-86.8216
-77.8834
-79.54
-72.6206
-49.314
-48.2549
-52.0243
-50.6078
-49.2955
-48.2476
-52.0119
-50.603
-36.9944
-32.0898
-26.3381
-22.0132
11.3982
20.8861
11.8828
21.5564
11.4392
21.1859
11.9636
21.3042
-37.0063
-32.1204
-26.3245
-22.0323
109.358
66.3696
161.534
183.865
112.082
92.6989
143.576
152.16
92.9669
112.261
152.283
143.773
67.0528
109.152
183.964
161.473
-40.0124
-40.8381
-40.6188
-42.3476
-37.7384
-37.2337
-38.9976
-40.0755
-55.0245
-56.746
-51.4894
-52.2236
-61.4512
-65.9316
-56.1916
-60.299
-40.0198
-40.845
-40.6256
-42.3568
-61.4718
-65.9303
-56.2314
-60.357
-55.0946
-56.7639
-51.4969
-52.2685
-37.7679
-37.256
-39.0453
-40.0851
-40.8596
-41.8666
-41.2527
-41.9744
-41.8672
-40.8611
-41.9745
-41.2536
-44.185
-42.6339
-43.794
-42.6242
-42.628
-44.1801
-42.6205
-43.7909
-83.5564
-33.8857
-108.95
-81.6264
-72.7962
-72.1646
-79.0248
-77.0858
-72.1857
-72.8087
-77.1027
-79.0461
-34.6107
-83.6496
-81.3785
-109.075
-43.1147
-40.6338
-46.924
-42.0804
-56.0384
-57.2315
-54.8284
-54.8244
-48.3569
-46.7954
-49.1962
-46.2104
-49.0737
-50.1189
-48.5173
-50.8905
-43.1655
-40.6758
-46.9903
-42.136
-49.1987
-50.1913
-48.6558
-51.0089
-48.4325
-46.8003
-49.2634
-46.2493
-56.1348
-57.3144
-54.9165
-54.8892
-49.6548
-52.5371
-50.3953
-51.4958
-49.6671
-52.5203
-50.4408
-51.5142
-57.4386
-56.5443
-55.8017
-54.3007
-57.2376
-56.4316
-55.7185
-54.3252
-55.9402
-58.4435
-55.081
-57.2658
-44.9084
-46.6659
-46.2138
-47.7074
-44.9436
-46.6716
-46.2305
-47.704
-56.0054
-58.4891
-55.1291
-57.2961
-44.2476
-45.4214
-43.2417
-44.5277
-45.4155
-44.2453
-44.5316
-43.2705
-36.6925
-37.5363
-34.3807
-35.7352
-37.4
-36.5552
-35.5533
-34.2306
-130.819
-14.3655
-113.38
-100.357
-105.469
-97.4014
-54.4808
-46.2915
-54.6983
-46.7905
-56.8925
-58.2014
-92.5081
-0.835028
-69.1298
-43.3816
-87.0655
-65.3968
-45.8295
-39.4764
-43.5447
-39.4317
-49.1234
-45.8597
-113.408
-100.778
-131.212
-16.6037
-105.422
-97.3716
-54.8394
-46.9332
-54.506
-46.3308
-56.9457
-58.3402
-69.1852
-43.6368
-92.6353
-1.26429
-87.5536
-65.4234
-43.6603
-39.5891
-45.9863
-39.6177
-49.345
-45.9912
-42.2099
-41.9676
-39.4627
-39.1738
-40.759
-39.7354
-43.5229
-41.4605
-49.547
-56.2983
-35.4928
-40.8311
-35.0462
-40.0099
-45.1704
-50.4128
-64.2682
-8.77146
-70.2475
-77.8802
-80.464
-125.536
11.2658
-25.6683
-51.9805
-53.8703
-54.2907
-52.2131
-59.6765
-63.4453
-62.8882
-57.816
-42.2417
-41.9652
-43.5252
-41.4621
-39.4735
-39.1757
-40.7859
-39.7493
-49.5717
-56.301
-45.1794
-50.4229
-35.5279
-40.8447
-35.0852
-40.03
-63.2835
-8.67793
11.4855
-25.5789
-70.4819
-77.9478
-80.5399
-125.288
-52.0779
-53.9433
-62.9242
-57.859
-54.3386
-52.2855
-59.7227
-63.4764
-124.468
6.44275
-117.842
31.3207
-115.797
-114.772
111.696
119.481
-110.72
-122.338
-110.775
-122.123
-97.3066
-97.2959
-77.7848
-77.9679
-65.6438
-63.3675
-52.0461
-49.4531
-62.1699
-54.7512
-60.8676
-54.5038
-49.8864
-42.8895
-47.7736
-40.6396
-52.932
-51.3512
-43.0639
-41.1471
-53.2756
-47.3562
-53.3394
-47.2228
-55.1119
-55.0861
-45.7685
-45.7677
-55.6969
-53.5966
-47.7629
-48.8485
-49.3545
-52.2253
-49.3323
-51.9013
-56.3851
67.003
-56.3584
68.1447
-40.5735
-40.5946
102.506
107.083
-54.8043
-31.3534
-45.68
-16.4542
-54.514
-57.0219
-19.526
-9.56224
-41.4314
-36.7771
-41.4768
-36.8406
-42.9858
-43.0026
-35.0149
-34.9652
-46.4663
-48.6026
-50.2818
-51.2535
-49.0086
-46.1879
-51.3047
-49.7937
-124.919
7.59145
-117.979
31.4323
-115.858
-114.766
119.667
111.569
-65.5088
-63.2769
-52.2227
-49.6841
-62.3853
-54.7735
-60.8756
-54.3951
-50.0043
-42.9874
-47.8867
-40.769
-51.4379
-53.0236
-43.1369
-41.2789
-55.7612
-53.6517
-47.8064
-48.8298
-49.4038
-52.2888
-49.3329
-51.9458
-54.825
-31.4287
-45.6796
-16.4681
-57.0466
-54.5684
-9.56697
-19.5509
-46.6623
-47.9157
-50.5142
-51.4395
-46.4196
-49.0866
-49.7207
-51.4172
-39.5346
-38.5905
-37.8607
-38.5144
-39.5372
-38.7291
-39.8688
-40.1731
-42.757
-43.0156
-50.6977
-52.4052
-44.4311
-47.1937
-44.8663
-49.6047
-46.2326
-44.0594
-46.2333
-44.0595
-47.6923
-47.6921
-43.5017
-43.5015
-39.7726
-39.7637
-46.8717
-46.61
-41.2758
-44.6794
-41.3567
-44.7354
-46.9727
-49.6467
-46.9758
-49.6512
-46.0074
-46.0061
-51.5737
-51.5769
-68.9737
-84.6671
-60.1446
-66.9148
-58.5507
-63.7675
-92.0458
-76.3698
44.4177
21.713
44.5202
21.7035
43.1762
43.2092
-3.63288
-3.9643
-70.4603
-64.2556
-70.476
-64.2683
-73.5694
-73.5779
-61.9685
-61.9778
-39.5435
-38.5963
-37.888
-38.5255
-39.5461
-38.7523
-39.873
-40.1787
-42.7913
-43.0396
-50.7338
-52.4451
-47.2437
-44.4947
-44.8887
-49.6356
-39.8159
-39.7999
-46.9513
-46.6975
-44.7314
-41.3134
-41.4049
-44.8069
-69.0102
-84.7276
-60.1034
-66.9157
-63.7663
-58.4984
-76.377
-92.0921
-70.0724
-69.5844
-64.655
-58.1174
-58.8373
-64.11
-56.1108
-56.9164
-70.0954
-69.6239
-64.6813
-58.119
-64.1562
-58.869
-57.8788
-57.0444
-69.2252
-69.2223
-64.7556
-58.137
-64.7531
-58.138
-55.7044
-55.7039
-10.4313
-10.431
-4.77221
7.18981
7.19206
-4.77658
14.6666
14.6662
188.29
191.223
174.394
174.458
192.201
193.959