# vtk DataFile Version 2.0
tri_press
ASCII
DATASET UNSTRUCTURED_GRID
POINTS 3682 float
-0.851606 0.245 -1.875
-0.605 0.345 2.08247
-0.755 0.751055 -1.925
-0.615 0.995 2.08352
0.851606 0.245 -1.875
0.605 0.345 2.08246
0.755 0.750797 -1.925
0.615 0.995 2.08352
-0.756722 0.291016 -0.555843
-0.749283 0.249586 0.763313
-0.794825 0.918861 -0.588827
-0.757642 1.00966 0.747347
0.756723 0.291015 -0.555847
0.74927 0.249598 0.763307
0.794897 0.918762 -0.588827
0.75761 1.00954 0.747347
-1.63325 -0.126632 -2.92181
-1.62047 -0.0568864 -1.85967
-1.54372 -0.0317015 -0.54095
-1.4759 -0.0666072 0.774342
-1.37146 -0.0206456 2.09277
-1.34458 0.0256744 3.1535
-1.35392 0.0653281 4.21684
-1.63205 0.161403 -2.94069
-1.62454 0.244687 -1.87669
-1.54232 0.299632 -0.554662
-1.4678 0.274472 0.765835
-1.32309 0.320552 2.08754
-1.3109 0.365778 3.1485
-1.3352 0.40466 4.21129
-1.59234 0.718602 -2.98323
-1.57058 0.798052 -1.91993
-1.55674 0.935704 -0.586305
-1.4774 0.998019 0.748529
-1.33074 1.00091 2.08183
-1.31495 1.04167 3.1421
-1.33668 1.08412 4.20214
-1.54385 1.66119 -3.03424
-1.53194 1.7532 -1.9684
-1.52445 1.89735 -0.629253
-1.50051 2.00932 0.713561
-1.45294 2.05959 2.05253
-1.4197 2.08691 3.118
-1.40322 2.11893 4.17991
-0.846215 -0.126321 -2.92071
-0.842467 -0.0533646 -1.85807
-0.777024 -0.0349304 -0.541166
-0.753765 -0.0830426 0.772188
-0.684605 -0.0121542 2.08901
-0.660781 0.031509 3.15094
-0.664798 0.0670383 4.21536
-0.847311 0.155688 -2.94035
-0.629432 0.373117 3.1464
-0.64923 0.406579 4.21018
-0.811848 0.696251 -2.98533
-0.632491 1.04123 3.14243
-0.649939 1.08387 4.20221
-0.767563 1.64497 -3.03632
-0.75668 1.73751 -1.97069
-0.76194 1.89201 -0.630635
-0.765374 2.01313 0.713726
-0.744252 2.06208 2.05371
-0.71794 2.08722 3.11918
-0.70081 2.11867 4.18076
0.773762 -0.126367 -2.92071
0.795219 -0.0533776 -1.85807
0.75442 -0.0349379 -0.541169
0.720959 -0.0830413 0.772183
0.628313 -0.0121562 2.089
0.658584 0.0315012 3.15094
0.68924 0.0670239 4.21536
0.777193 0.155623 -2.94035
0.65777 0.37311 3.14639
0.691082 0.406565 4.21017
0.758911 0.696107 -2.98533
0.661277 1.04122 3.14243
0.692996 1.08386 4.20221
0.785934 1.64486 -3.03632
0.792301 1.7374 -1.97069
0.77277 1.89192 -0.630636
0.721129 2.01305 0.713725
0.677933 2.06203 2.05371
0.680223 2.08719 3.11918
0.697139 2.11863 4.18076
1.57431 -0.126734 -2.92181
1.59246 -0.0569499 -1.85967
1.53414 -0.0317461 -0.540955
1.46347 -0.0666328 0.774332
1.35206 -0.0206603 2.09276
1.35098 0.0256522 3.15349
1.38053 0.065295 4.21683
1.58279 0.161268 -2.94069
1.62279 0.244598 -1.87669
1.54852 0.29957 -0.554666
1.47686 0.274435 0.765826
1.33724 0.320542 2.08753
1.34097 0.365757 3.14849
1.37697 0.404627 4.21128
1.56234 0.718368 -2.98323
1.57981 0.797792 -1.91993
1.56797 0.935545 -0.586307
1.48692 0.997887 0.748526
1.34516 1.00087 2.08183
1.34575 1.04163 3.14209
1.37991 1.08407 4.20213
1.56255 1.66098 -3.03424
1.56479 1.75299 -1.9684
1.53813 1.89717 -0.629255
1.47195 2.00918 0.713559
1.40745 2.05949 2.05253
1.39454 2.08683 3.118
1.40562 2.11886 4.1799
-0.826625 0.498028 -1.92332
0 0.253736 -1.86626
-0.824767 0.247405 -1.21542
-0.658526 0.67 2.13152
0 0.34265 2.08482
-0.686689 0.287745 1.42289
0 0.811207 -1.98528
-0.839773 0.899819 -1.25691
0 1.03109 2.11961
-0.729354 1.04536 1.41543
0.826628 0.497898 -1.92332
0.825857 0.246315 -1.21542
0.658485 0.67 2.13148
0.686683 0.287751 1.42288
0.839899 0.899729 -1.25691
0.728635 1.0446 1.41543
-0.740866 0.282437 0.103735
-0.863276 0.604938 -0.572335
5.6569e-07 0.212471 -0.555845
-0.879827 0.629623 0.75533
-6.36417e-06 0.212421 0.76331
-0.776702 0.96473 0.07926
3.64149e-05 1.16167 -0.588827
-1.62634e-05 1.39387 0.747347
0.740872 0.282431 0.10373
0.863276 0.604888 -0.572337
0.879824 0.62957 0.755327
0.776758 0.964657 0.07926
-0.876712 0.551483 -1.23617
0.876716 0.551393 -1.23617
2.82845e-07 0.196101 -1.21542
1.82074e-05 0.995552 -1.25691
0 0.497963 -2.28497
-0.866371 0.617281 0.0914975
0.866368 0.617229 0.091495
-2.89924e-06 0.215173 0.103732
1.00757e-05 1.38808 0.07926
-0.885776 0.649812 1.41916
0.885283 0.649785 1.41916
-3.18209e-06 0.225424 1.42289
-8.13171e-06 1.23259 1.41543
0 0.67 2.29441
-0.830306 0.371514 -1.89035
-0.425803 0.245106 -1.87489
-0.82617 0.258218 -1.54521
-0.593601 0.5075 2.06883
-0.3025 0.347865 2.0796
-0.663537 0.29868 1.75268
-0.801992 0.624541 -1.93534
-0.3775 0.797848 -1.97186
-0.840983 0.869034 -1.59096
-0.634229 0.8325 2.10499
-0.3075 1.02183 2.11035
-0.669372 1.01738 1.74948
0.425803 0.245121 -1.87488
0.830376 0.371449 -1.89042
0.825898 0.258491 -1.54521
0.3025 0.34787 2.07959
0.593956 0.5075 2.06918
0.663629 0.298588 1.75267
0.3775 0.797791 -1.97193
0.802035 0.624348 -1.93538
0.841105 0.868919 -1.59096
0.3075 1.02188 2.1104
0.634262 0.8325 2.10502
0.6693 1.01728 1.74948
-0.778767 0.281187 -0.885633
-0.747234 0.288286 -0.226054
-0.834628 0.435662 -0.564089
-0.388809 0.230846 -0.555844
-0.733379 0.253273 1.0931
-0.742568 0.268518 0.433524
-0.8774 0.408182 0.759322
-0.377718 0.224856 0.763312
-0.81122 0.903261 -0.92287
-0.859799 0.777274 -0.580581
-0.785711 0.941743 -0.254783
-0.443711 1.1329 -0.588827
-0.753918 1.03793 1.08139
-0.871445 0.845997 0.751338
-0.767048 0.987071 0.413303
-0.455789 1.35568 0.747347
0.778737 0.281218 -0.885635
0.388818 0.23083 -0.555846
0.747233 0.288287 -0.226058
0.834611 0.435645 -0.564092
0.733979 0.252672 1.0931
0.376342 0.227589 0.763308
0.74257 0.268516 0.433518
0.8774 0.408158 0.759317
0.811303 0.903151 -0.92287
0.443777 1.13284 -0.588827
0.859817 0.77719 -0.580582
0.785848 0.94173 -0.254783
0.753945 1.03789 1.08139
0.455785 1.35568 0.747347
0.871474 0.845935 0.751337
0.766938 0.986854 0.413303
-0.867962 0.524755 -1.57974
-0.413313 0.497995 -2.2036
1.41422e-07 0.233794 -1.54084
0 0.37585 -2.26862
-0.864363 0.399444 -1.22579
-0.412383 0.222842 -1.21542
-0.850085 0.659906 1.77534
-0.329263 0.67 2.26656
-1.59104e-06 0.252951 1.75385
0 0.506325 2.245
-0.871679 0.468778 1.42103
-0.343346 0.230621 1.42289
9.10372e-06 0.934681 -1.6211
0 0.654585 -2.27187
-0.877159 0.725651 -1.24654
-0.419878 0.975517 -1.25691
-4.06585e-06 1.1005 1.76752
0 0.850544 2.20267
-0.890113 0.847587 1.4173
-0.364681 1.21225 1.41543
0.867963 0.524646 -1.57975
0.413314 0.497931 -2.20355
0.86459 0.398854 -1.2258
0.412929 0.21629 -1.21542
0.85011 0.659893 1.77532
0.329243 0.67 2.26656
0.871591 0.468768 1.42102
0.34334 0.240958 1.42289
0.877155 0.725561 -1.24654
0.419958 0.975509 -1.25691
0.889903 0.847193 1.4173
0.364313 1.21227 1.41543
-0.833866 0.434735 0.0976162
-0.376661 0.236353 0.103734
-0.87055 0.578211 -0.904251
-0.863827 0.61111 -0.240419
4.24267e-07 0.202154 -0.885634
-1.16678e-06 0.211459 -0.226056
-0.868266 0.623452 0.423414
-0.889888 0.639717 1.08725
-4.63171e-06 0.213643 0.433521
-4.77313e-06 0.208929 1.0931
-0.864306 0.81239 0.0853787
-0.479507 1.35873 0.07926
2.73112e-05 1.00782 -0.92287
2.32453e-05 1.29669 -0.254783
-3.09384e-06 1.41084 0.413303
-1.21976e-05 1.33565 1.08139
0.833861 0.434709 0.0976125
0.378391 0.232888 0.103731
0.870566 0.578141 -0.904253
0.863824 0.611059 -0.240421
0.868269 0.6234 0.423411
0.889888 0.639678 1.08724
0.864328 0.812325 0.0853775
0.479575 1.35875 0.07926
-0.858487 0.385479 -1.56248
-0.845486 0.423711 -0.894942
-0.872012 0.743775 -0.913561
-0.8716 0.675096 -1.58535
0.858489 0.385152 -1.56248
0.871602 0.674955 -1.58535
0.871786 0.743693 -0.913561
0.845401 0.423403 -0.894944
-0.419093 0.238431 -1.54303
0.419366 0.238526 -1.54303
0.395645 0.229663 -0.885634
-0.395372 0.229392 -0.885633
-0.398689 0.913264 -1.60603
-0.408636 0.977392 -0.92287
0.408713 0.978826 -0.92287
0.398729 0.913264 -1.60603
-0.419558 0.373682 -2.24591
-0.395406 0.639563 -2.24993
0.395407 0.639466 -2.2499
0.419558 0.373649 -2.2459
-0.83385 0.435397 -0.233237
-0.82082 0.438865 0.428469
-0.86691 0.828711 0.418359
-0.86108 0.794346 -0.247601
0.833843 0.435374 -0.23324
0.861109 0.794276 -0.247602
0.866737 0.828548 0.418357
0.824432 0.437033 0.428465
-0.384083 0.230903 -0.226055
0.3841 0.230869 -0.226057
0.37723 0.230512 0.43352
-0.377178 0.230627 0.433523
-0.473875 1.27034 -0.254783
-0.474156 1.37022 0.413303
0.474176 1.37021 0.413303
0.473919 1.27028 -0.254783
-0.876391 0.454191 1.09017
-0.845488 0.488139 1.76401
-0.82698 0.840044 1.76241
-0.895339 0.833615 1.08432
0.876497 0.454176 1.09017
0.895341 0.833375 1.08432
0.827053 0.839846 1.7624
0.846935 0.488134 1.76399
-0.358995 0.218367 1.0931
0.358986 0.230434 1.0931
0.32292 0.283398 1.75326
-0.322923 0.260041 1.75327
-0.371755 1.32069 1.08139
-0.336091 1.09191 1.7585
0.335907 1.09196 1.7585
0.371555 1.32076 1.08139
-0.315881 0.506912 2.22033
0.315871 0.506912 2.22032
0.318371 0.841522 2.18425
-0.318381 0.841522 2.18424
-0.81996 0.308257 -1.86168
-0.638705 0.245715 -1.87429
-0.825157 0.26534 -1.71011
-0.57255 0.42625 2.0489
-0.45375 0.331305 2.09616
-0.644612 0.311497 1.91758
-0.77918 0.687798 -1.93085
-0.56625 0.788128 -1.96211
-0.807807 0.81986 -1.75798
-0.629639 0.91375 2.09928
-0.46125 1.01102 2.09954
-0.639592 1.00359 1.9165
0.638705 0.245657 -1.87434
0.819758 0.308225 -1.86148
0.824301 0.266196 -1.71011
0.45375 0.331373 2.09609
0.572578 0.42625 2.04892
0.644417 0.311692 1.91757
0.56625 0.787961 -1.96213
0.778955 0.687572 -1.93063
0.808245 0.82005 -1.75798
0.46125 1.01102 2.09954
0.6296 0.91375 2.09924
0.639605 1.0036 1.9165
-0.764344 0.289502 -0.720738
-0.751095 0.290533 -0.390949
-0.804046 0.359154 -0.559966
-0.58065 0.245161 -0.555844
-0.745697 0.247063 0.928208
-0.750773 0.254204 0.598419
-0.85548 0.307815 0.761318
-0.563059 0.238104 0.763313
-0.800741 0.90878 -0.755848
-0.834815 0.851819 -0.584704
-0.790181 0.930215 -0.421805
-0.647201 1.08175 -0.588827
-0.755117 1.02313 0.914368
-0.828123 0.934619 0.749343
-0.76188 0.9979 0.580325
-0.611179 1.1916 0.747347
0.764345 0.289501 -0.720741
0.580593 0.245277 -0.555846
0.751095 0.290533 -0.390953
0.804037 0.359145 -0.559969
0.740868 0.251892 0.928201
0.564139 0.235929 0.763308
0.750784 0.254193 0.598413
0.856173 0.307459 0.761312
0.800823 0.908679 -0.755848
0.647578 1.08228 -0.588827
0.834858 0.851726 -0.584704
0.790269 0.930142 -0.421805
[...]
POINT_DATA 3682
SCALARS point_scalars float 1
LOOKUP_TABLE default
-85.6992
-35.8792
2.16418
-35.4706
-85.703
-35.9668
2.1435
-35.4943
-32.4639
-32.2049
-45.6456
-48.8865
-32.4452
-32.1071
-45.5473
-48.9149
-14.8786
-85.6992
-32.6049
-61.2537
-46.5876
-35.8987
-30.9424
42.4519
-120.899
-33.7886
-48.3476
-45.7042
-31.4966
-31.0873
66.0379
-99.8629
-38.3251
-39.4077
-42.3405
-32.0647
-31.6594
29.0604
-74.1467
-60.5535
-57.3326
-40.2177
-35.4574
-34.4849
-32.0772
-92.6762
-33.3452
-43.7998
-37.8211
-31.4941
-29.3905
90.3704
-30.443
-29.395
124.913
-31.9411
-30.7018
52.5689
-43.8414
-49.0323
-65.6257
-36.4011
-33.305
-32.2695
-23.3897
-120.89
-33.303
-43.193
-37.5271
-31.6427
-29.6047
89.622
-30.5006
-29.4719
124.902
-31.8884
-31.224
52.7688
-44.2595
-49.1
-65.5445
-36.4781
-33.3233
-32.284
-15.4297
-85.703
-32.525
-61.3351
-46.6823
-35.982
-30.9895
58.7598
-120.359
-33.7846
-49.2549
-45.8101
-31.5623
-31.0501
64.3599
-100.459
-38.2485
-39.3558
-42.5917
-32.1041
-31.6915
29.7393
-76.0731
-60.4945
-57.9127
-40.1957
-35.4848
-34.4872
-54.7182
-74.2533
-51.6192
-32.6887
-28.0602
-39.3836
-3.50147
-53.0474
-33.7042
-50.8468
-54.7257
-51.5767
-32.739
-39.1071
-53.1282
-50.8176
-29.1632
-35.4688
-37.1729
-35.7242
-35.3461
-49.7321
4.12614
-69.599
-29.2142
-35.4635
-35.7707
-49.7007
-52.5216
-52.5616
-52.4224
-26.9695
204.071
-34.1165
-34.1077
-32.129
-87.7001
-47.0019
-46.9705
-40.6696
-44.6041
-25.3219
-107.62
-81.1762
-61.1114
-32.5208
-30.1308
-41.9434
-25.931
-2.90263
-72.0773
-33.2074
-33.6779
-41.4127
-81.7211
-107.661
-60.7736
-30.4025
-32.6184
-42.0331
-2.91175
-25.5386
-72.0542
-33.6883
-33.2523
-41.4337
-42.4205
-30.1523
-33.5731
-35.9186
-45.7136
-26.4116
-33.3734
-35.7358
-39.5386
-38.3658
-48.3846
-4.56148
-52.9666
-39.5713
-48.8564
-64.2607
-42.4021
-35.7962
-30.1442
-33.5704
-46.0221
-36.922
-26.4432
-34.0381
-39.6929
-4.72945
-38.3169
-48.2662
-52.9946
-64.2262
-39.5451
-48.8017
-73.6419
188.122
-54.5402
157.006
-52.1696
-51.9229
-48.1079
-29.9634
-38.1539
-21.1409
-44.7898
-40.0734
-39.5098
107.64
-53.1002
-33.3729
-37.8787
-29.5475
-50.5063
-45.6354
-73.6479
188.455
-52.1951
-51.3648
-48.1458
-30.0312
-44.7811
-40.7686
-53.2133
-33.3049
-50.4869
-45.625
-31.1287
-31.3124
-42.9566
-34.356
-44.9554
-33.4393
-33.3033
-44.2146
-33.2193
-39.5023
-39.6845
-81.1391
-1.42407
-40.3606
-82.705
-55.9428
-31.1333
-31.3329
-42.9537
-34.3434
-33.3163
-44.222
-39.6636
-81.1375
-69.2782
-44.0653
-41.1612
-77.3427
-69.3226
-77.3306
-41.2534
-44.1034
-57.2563
-57.5055
-43.7713
-43.3797
-42.3559
-10.8352
-10.6741
-42.3518
100.747
105.794
105.69
100.319
-31.6348
-28.3369
-40.3466
-39.1774
-31.6395
-39.1426
-40.205
-28.4876
-32.6094
-32.4943
-32.3509
-32.2062
-50.5467
-70.0455
-70.011
-50.3616
-44.0555
-48.8585
-46.6269
-43.8709
-44.0453
-43.8644
-46.6784
-48.9353
-40.4552
-39.8634
-37.9917
-38.9478
-56.648
-38.5463
-38.5896
-56.655
-27.9856
-28.0887
-31.2379
-31.2065
-84.3829
-94.7044
-86.3817
-32.8152
-32.9161
-39.5923
-10.6361
7.00403
-50.4371
-34.5677
-34.1193
-37.9797
-94.8693
-84.423
-84.5469
-33.157
-32.8848
-39.5984
7.20117
-10.7301
-50.6512
-34.1372
-34.5862
-38.0003
-35.4728
-30.7889
-32.5846
-34.4981
-49.7434
-27.4982
-22.4763
-36.0482
-41.4734
-41.3524
-48.2708
-35.9785
-49.4067
-43.4563
-48.4448
-55.0058
-35.5082
-34.4402
-30.7542
-32.5574
-49.3607
-35.8248
-27.4223
-23.1157
-41.3712
-36.0745
-41.2756
-48.4299
-49.4424
-55.0389
-43.4095
-48.3997
-89.7361
-32.3185
-109.192
60.0643
-74.116
-74.9201
-65.0986
-63.7068
-54.8797
-55.1192
-51.4838
-54.6518
-32.4031
-33.0198
-38.6575
-31.3561
-28.7106
-28.7733
-34.0479
-24.6818
-40.6355
-39.7765
-42.8967
-40.5049
-5.3962
-5.39661
-26.7668
25.574
-67.6219
-44.9201
-54.2366
-41.8386
-33.634
-33.6376
-35.6003
-30.5214
-45.9966
-54.1556
-52.8624
-48.0435
-89.7723
-32.3279
-109.213
60.0793
-54.5864
-55.3372
-51.555
-54.5414
-32.5139
-33.0601
-38.68
-31.3924
-40.7707
-39.7714
-42.9206
-37.6918
-67.5986
-45.0517
-54.453
-41.7954
-45.9822
-54.2086
-52.8755
-48.0338
-29.7414
-27.9371
-30.0561
-30.4152
-34.5305
-36.658
-37.6528
-34.3727
-36.8063
-36.7124
-40.3376
-34.7415
-34.5852
-37.017
-33.2985
-42.7896
-35.5973
-36.0253
-34.2938
-38.2209
-49.3462
-49.3493
-44.5902
-62.37
3.24455
3.13593
8.67209
-15.5036
-68.0747
-68.0735
-76.3612
-62.8719
-29.7292
-28.0251
-30.0767
-30.5249
-34.5291
-36.6378
-37.6546
-34.3605
-34.6965
-37.043
-33.304
-42.816
-49.2692
-49.3592
-44.5548
-62.3338
-59.6679
-52.2973
-52.3394
-49.1946
-59.6727
-52.3292
-52.4024
-49.2039
-51.3955
-51.8202
-52.0316
-54.2851
-36.4462
-28.316
-28.2753
-15.2528
197.854
195.483
217.792
198.044
-32.6066
-34.2874
-33.7494
-36.247
-32.6045
-34.276
-33.7402
-36.2333
-31.839
-32.7973
-32.2449
-31.9995
-86.7582
-70.3445
-88.3414
-86.7351
-49.3217
-46.2067
-48.2405
-45.2412
-49.3515
-46.1874
-48.2185
-45.2583
-40.3264
-40.2022
-40.3852
-41.0842
-40.6632
-44.8492
-44.7536
-49.4682
-26.7595
-22.2249
-30.2905
-26.8367
-100.467
46.0505
-70.884
-46.002
-66.4138
-59.135
-40.2987
-31.2376
-35.2992
-27.8134
-50.0243
-39.1674
-116.633
75.5423
-32.1419
25.9041
-83.0854
-51.8608
-39.6051
-31.5194
-36.0094
-31.3112
-45.068
-39.635
-70.8175
-46.4063
-100.484
46.1415
-66.4252
-59.1911
-34.4351
-27.9837
-40.3232
-31.2754
-50.0978
-38.9301
-32.1252
25.8046
-116.793
75.1731
-83.0329
-51.8561
-36.0173
-31.3397
-39.6322
-31.553
-45.1178
-39.6444
-43.1638
-42.2976
-30.3722
-31.5656
-36.4056
-31.937
-38.9801
-33.819
-43.4993
-43.0742
-26.63
-30.7923
-27.184
-47.4555
-33.3613
-40.4918
-40.6497
-21.7356
-38.2611
-38.6573
-43.4625
-66.7064
0.310174
-23.0484
-45.9245
-57.3607
-39.6221
-40.7845
-45.6257
-56.8012
-66.5218
-60.878
-43.1873
-42.4429
-38.951
-33.6955
-30.4403
-31.4788
-36.4205
-31.9336
-43.4841
-42.7675
-33.823
-39.3871
-26.6951
-30.8701
-27.0863
-47.371
-40.703
-22.9214
-0.160035
-23.1607
-38.2375
-38.6421
-43.3871
-66.5273
-45.9092
-57.3695
-66.5356
-60.8651
-39.8554
-40.8029
-45.544
-56.7436
-71.4813
-75.2238
180.232
193.224
-56.507
-55.7751
125.632
125.721
-56.8109
-49.8102
-53.9056
-53.3874
-48.5256
-47.6087
-28.6567
-31.5229
-38.2318
-38.5466
-23.8048
-23.8788
-43.4481
-48.0731
-41.1742
-41.1675
-40.3948
-40.3725
133.286
133.685
-47.03
-61.6444
-41.2729
-23.4546
-38.0421
-38.043
-30.5075
-30.4773
-51.7664
-47.9241
-50.5785
-41.6089
-71.4876
-75.2291
193.356
180.349
-56.7659
-49.8524
-51.8652
-55.0221
-47.6512
-48.5949
-28.7393
-31.5708
-43.438
-48.0661
-41.2931
-41.0391
-61.6622
-47.1059
-23.3089
-41.2468
-47.9516
-51.7971
-41.6073
-50.5761
-31.54
-30.5127
-31.9762
-30.9186
-43.9264
-42.2
-32.892
-36.325
-44.7241
-44.3364
-33.2865
-33.2182
-30.9425
-35.9476
-43.9636
-44.5737
-33.0564
-32.9473
-39.8489
-39.6494
-38.3305
-39.5989
-78.0798
-75.5668
-3.96688
-3.69621
-40.2863
-40.205
-80.1594
-80.1536
-56.1286
-56.1363
-31.5374
-30.4791
-31.7983
-31.6358
-42.3204
-43.9601
-32.8889
-36.3028
-35.9199
-30.9714
-43.96
-44.5815
-39.5662
-38.3666
-75.5042
-78.0222
-97.4232
-55.9587
-58.3591
-104.031
-35.6444
-37.1114
-49.5692
-52.479
-39.5816
-46.3618
-48.4447
-37.9117
-100.564
-112.847
-60.6246
-64.8803
-97.1577
-104.012
-58.3438
-55.9121
-100.945
-64.8154
-60.6476
-112.95
-39.5541
-37.917
-48.5015
-46.4278
-35.6673
-52.5272
-49.6053
-37.1242
-75.725
-68.2635
-51.8246
-51.3709
-75.8208
-50.4269
-52.5735
-67.6339
-37.5406
-39.8577
-53.7855
-53.7254
-37.5369
-52.4584
-54.5962
-39.8815
-36.5448
-52.229
-37.2876
-27.9848
-19.5963
7.47202
-17.6546
-32.6414
-19.7157
-32.4749
-17.5789
7.43294
-36.481
-27.9924
-37.2778
-52.2607
0.209361
55.0052
199.171
-71.2407
50.3818
20.4677
197.6
71.4514
50.2128
71.2608
197.814
20.4626
0.178673
-71.0764
199.383
55.03
-31.2266
-30.5468
-32.864
-33.0305
-23.4816
-30.8704
-32.052
-29.1568
-44.034
-44.1591
-36.0382
-35.6815
-42.4475
-36.1321
-36.3601
-44.0891
-31.1718
-33.0247
-32.8596
-30.5412
-42.2778
-44.032
-36.3402
-36.1081
-44.1046
-35.5969
-36.0225
-44.1526
-23.3991
-29.1421
-32.0432
-30.8394
-32.5776
-34.6003
-32.6292
-31.0093
-32.4959
-30.8808
-32.4907
-34.5268
-32.3962
-34.5105
-32.2046
-30.4357
-32.2611
-30.0658
-31.8165
-34.1564
-67.3582
-65.9549
-69.8302
-15.8109
-55.599
-74.2169
-86.4558
-59.0011
-55.5256
-58.969
-86.4514
-74.2239
-67.3011
-15.8877
-69.8202
-65.8953
-52.9465
-41.67
-44.4898
-45.2757
-41.5067
-39.5542
-48.7098
-45.6842
-40.0236
-49.287
-50.6574
-38.8865
-44.0078
-41.2227
-46.3182
-51.4782
-52.722
-45.3005
-44.4967
-41.6571
-44.0331
-51.5282
-46.3367
-41.2572
-40.0572
-38.9057
-50.6897
-49.3242
-41.5451
-45.7392
-48.7043
-39.5719
-43.595
-38.4766
-41.2137
-39.4298
-43.3718
-40.9805
-41.1353
-38.4099
-36.1528
-34.2084
-40.6492
-41.3539
-35.8395
-40.8078
-40.4909
-34.2682
-54.3628
-53.1063
-49.6874
-62.5916
-36.7104
-35.7426
-40.8511
-43.3336
-36.7231
-43.3321
-40.8536
-35.7465
-54.3625
-62.5945
-49.684
-53.1025
-31.6498
-25.7066
-24.8263
-30.6136
-31.7287
-30.6664
-24.9085
-25.7464
-32.2249
-30.3419
-30.8314
-31.9285
-32.1914
-31.902
-30.8066
-30.3158
-84.7639
-112.652
-132.41
-34.4757
-35.1239
-38.3014
-2.87574
13.4295
-36.2722
-35.4309
-34.5274
-36.3284
-112.785
-84.7755
-132.137
-35.2955
-34.5569
-38.3157
13.8196
-2.83291
-36.0778
-34.547
-35.4261
-36.3506
-33.8841
-31.5146
-32.3651
-33.5044
-51.3632
-31.2743
-24.5697
-34.9872
-44.5836
-42.9922
-46.9075
-54.8096
-49.1604
-45.8403
-48.5517
-51.486
-33.884
-33.4856
-31.4912
-32.3414
-52.3412
-34.627
-31.214
-24.7398
-44.4855
-54.9095
-42.9022
-46.9478
-49.1878
-51.4699
-45.8521
-48.568
-74.9217
-42.2828
-137.472
45.8898
-73.9784
-74.27
-69.5312
-162.965
-53.1351
-51.1927
-51.6768
-53.2859
-32.5031
-33.0548
-35.2645
-31.6098
-28.242
-28.2478
-30.4844
-26.1745
-39.7773
-39.6058
-41.4005
-39.8357
-3.77025
-3.79785
-15.7676
6.74416
-58.8781
-49.0036
-54.9689
-46.8381
-33.6391
-33.6422
-34.6453
-32.3481
-48.3953
-52.6888
-52.1915
-49.0013
-74.9879
-42.2638
-137.422
45.9507
-52.3487
-51.8256
-51.7633
-52.8054
-32.5558
-33.0858
-35.3015
-31.6553
-39.6763
-39.3857
-41.3912
-39.1844
-59.0079
-49.0832
-55.1776
-46.8318
-48.3298
-52.7772
-52.1354
-48.9743
-29.3929
-28.5485
-29.5236
-29.7381
-34.9854
-36.0032
-36.3378
-34.7121
-37.0504
-37.0082
-39.1784
-35.6993
-35.063
-36.2742
-34.0353
-38.9625
-35.603
-35.6749
-34.9103
-36.6172
-49.6067
-49.4179
-47.453
-54.9404
3.87406
3.792
8.91179
-4.50951
-69.3878
-69.3882
-73.0414
-65.9716
-29.4044
-28.6624
-29.5642
-29.8554
-34.983
-35.9922
-36.3433
-34.7019
-35.1214
-36.3173
-34.0887
-38.9976
-49.5544
-49.4064
-47.4147
-54.8869
-55.748
-52.3669
-52.5896
-49.7237
-55.7682
-52.4011
-52.6424
-49.7721
-53.8699
-50.7784
-52.773
-52.7245
-32.1099
-27.2896
-27.2644
-22.2226
198.099
197.416
203.661
198.231
-33.3323
-34.1928
-33.9207
-35.0872
-33.3266
-34.1828
-33.9126
-35.0755
-32.0592
-32.7056
-31.795
-32.1773
-87.4512
-83.7101
-89.7828
-87.4411
-47.4789
-46.5516
-47.5702
-46.1613
-47.4388
-46.5137
-47.5359
-46.2191
-39.8053
-40.5215
-40.5438
-41.903
-42.4777
-44.5775
-44.6169
-46.84
-25.3623
-23.1547
-28.0079
-25.4111
-104.48
-107.914
-120.245
22.567
-85.0988
-76.8491
-77.5631
-144.212
-70.2764
-57.175
-63.8322
-60.05
-32.8357
-32.433
-36.2943
-31.831
-31.1069
-29.4788
-32.6592
-28.5992
-40.1891
-41.9536
-48.2098
-39.9448
-20.2607
-36.256
-107.124
54.9878
-1.13931
-4.99122
-19.6427
11.9306
-70.151
-72.8677
-81.3076
-61.3626
-33.7145
-33.0813
-36.4993
-32.0452
-33.791
-33.62
-34.7806
-32.0316
-39.6146
-43.6249
-43.3177
-40.3242
-85.298
-78.3795
-77.7594
-144.08
-104.545
-108.203
-120.086
22.3231
-70.4315
-57.2173
-63.7285
-60.0369
-31.4291
-29.6203
-32.5034
-28.8986
-32.8261
-32.5064
-36.3238
-31.9228
-40.2567
-42.1941
-48.24
-39.9733
-1.23729
-4.98881
-19.607
12.0133
-20.3751
-35.8963
-107.146
52.9699
-70.8922
-72.8579
-81.1573
-61.445
-33.8064
-33.6255
-34.7908
-32.0522
-33.7561
-33.1247
-36.5352
-32.0902
-39.6268
-43.6291
-43.3597
-40.3385
-38.2712
-50.4146
-42.6619
-42.0074
-30.3746
-29.9181
-30.1975
-30.8123
-33.0304
-34.0006
-34.6623
-32.584
-35.3626
-36.4347
-37.3319
-34.7581
-43.8979
-42.8321
-43.8928
-44.4115
-25.6196
-26.7979
-25.979
-29.5543
-28.5765
-34.8033
-25.7612
-47.2806
-35.858
-35.8814
-34.9839
-38.4013
-39.8283
-41.6598
-40.8838
-30.1169
-39.7926
-37.3562
-38.0896
-38.4661
-48.0137
-48.971
-45.7753
-54.7886
-14.5398
1.41724
0.137864
-12.6142
-50.4132
-53.5655
-49.1463
-55.7663
-41.4119
-38.1395
-39.4214
-39.8363
-48.569
-49.185
-46.483
-52.3741
-58.776
-66.605
-65.5226
-63.3464
-38.3381
-50.4888
-42.7294
-42.0817
-35.2626
-36.3363
-37.2031
-34.6449
-30.3563
-29.899
-30.2295
-30.7571
-33.0114
-33.9992
-34.6661
-32.5786
-43.0879
-43.0048
-43.9339
-44.6368
-35.966
-36.8158
-35.778
-39.1137
-25.6231
-26.8465
-26.0127
-29.6192
-29.2106
-34.9827
-25.7606
-47.4118
-39.7955
-41.8676
-40.9549
-31.3876
-14.6179
1.28023
-0.170866
-12.8146
-39.7283
-37.3244
-38.0598
-38.4251
-47.8305
-48.8846
-45.6734
-54.7184
-50.4429
-53.6092
-49.176
-55.7798
-58.9627
-66.602
-65.5891
-63.3228
-41.3966
-38.1305
-39.4244
-39.8263
-48.6281
-49.1304
-46.5218
-52.3377
-85.7633
-65.928
-72.6722
-74.3207
130.871
196.39
184.665
192.915
-59.7749
-49.6008
-55.9025
-54.2628
112.938
196.65
130.043
129.677
-51.8768
-52.2803
-54.2656
-49.8213
-53.3579
-52.4497
-55.0733
-50.673
-43.2292
-50.2661
-48.2489
-47.9878
-31.0158
-28.6759
-29.3696
-31.0523
-35.84
-40.0527
-38.1649
-38.3129
-22.3897
-21.7712
-21.8691
-21.9127
-43.783
-45.6062
-44.3227
-45.1549
-40.1552
-40.0237
-41.1771
-39.9108
-34.673
-39.1821
-39.9462
-39.9403
31.2174
175.542
123.272
123.945
-53.1562
-52.5506
-49.6477
-57.0105
-37.1693
-30.1398
-37.5083
-28.1048
-36.8833
-39.1009
-37.9244
-37.9253
-28.928
-29.4767
-29.8755
-29.8585
-52.3165
-49.0117
-51.2214
-49.2242
-46.5814
-45.0422
-47.984
-43.4142
-85.7558
-65.9324
-72.6757
-74.3269
130.81
196.607
193.036
185.045
-51.9016
-52.3118
-54.1961
-49.9318
-53.03
-51.7238
-51.8446
-52.1036
-43.2636
-50.2978
-48.0206
-48.3011
-31.0646
-28.7488
-29.4464
-31.1155
-43.7947
-45.5954
-44.3179
-45.147
-40.3219
-40.9117
-41.2792
-40.7676
-53.2752
-52.6259
-57.1193
-49.7218
-37.0959
-30.0857
-27.9926
-37.4692
-52.3135
-48.9928
-49.2556
-51.1827
-46.5783
-45.038
-43.4173
-47.9748
-30.6274
-31.9146
-31.3242
-30.8312
-30.8367
-31.5345
-32.1245
-30.1674
-39.8671
-46.973
-43.395
-42.5068
-34.3248
-34.3859
-33.6066
-35.2458
-42.5307
-50.0943
-44.7403
-44.8264
-33.9068
-33.0958
-33.4545
-33.4227
-33.0294
-33.5765
-32.1827
-34.5174
-44.4537
-44.6622
-44.186
-44.4106
-33.6942
-32.8247
-33.202
-33.1529
-38.8904
-40.1875
-39.5287
-39.5791
-41.7888
-37.7266
-39.426
-39.6342
-73.7332
-85.0283
-80.0703
-77.6521
5.12141
-8.86125
-1.85703
-1.86175
-27.5173
-54.2316
-40.3772
-40.139
-79.5093
-85.686
-82.0936
-82.0927
-59.3458
-52.5297
-55.9985
-56.0011
-30.6354
-31.9168
-31.3276
-30.8277
-30.9311
-31.7409
-31.7295
-31.2324
-39.8434
-46.9722
-42.403
-43.4426
-34.3123
-34.3737
-33.5991
-35.2284
-33.0207
-33.5741
-34.5114
-32.2
-44.4645
-44.6747
-44.1885
-44.4146
-41.7638
-37.7099
-39.6071
-39.4161
-73.7806
-85.0158
-77.6487
-80.1136
-80.1956
-68.4548
-70.2798
-62.8322
-43.6734
-39.0307
-49.9328
-44.4868
-40.7019
-39.3637
-43.791
-41.7716
-90.9514
-79.5807
-76.0151
-68.7886
-80.2375
-68.5371
-70.2911
-62.8057
-90.9336
-79.5536
-76.0154
-68.7974
-40.7472
-39.3256
-43.9449
-41.8722
-43.7159
-39.0577
-49.9332
-44.5259
-63.4843
-57.8068
-56.8552
-52.6233
-63.4981
-57.9682
-56.8238
-53.4587
-43.1476
-41.018
-49.524
-44.4227
-43.0426
-40.9987
-48.842
-43.9438
-39.184
-45.399
-41.3152
-43.0276
-14.8269
-4.36
-18.6867
-7.13502
-14.1769
-3.98791
-18.4681
-7.47562
-39.1514
-45.375
-41.3104
-43.0163
47.7619
8.32623
151.024
135.077
78.8428
42.0098
165.421
128.449
41.8167
79.345
123.973
165.621
8.49087
47.2748
135.203
151.336
-31.0166
-31.7148
-31.6098
-32.1792
-27.4949
-26.8577
-30.2406
-29.3623
-39.3538
-43.3492
-37.66
-39.4096
-38.8618
-41.1422
-37.5888
-39.472
-31.0492
-31.7233
-31.6133
-32.1802
-38.8445
-41.0933
-37.5613
-39.4354
-39.3538
-43.149
-37.6168
-39.3911
-27.5953
-27.1352
-30.0765
-29.5103
-32.1093
-33.082
-32.1831
-33.0374
-32.9783
-31.9598
-32.9419
-32.0554
-32.7409
-31.6542
-32.7531
-31.8572
-31.5504
-32.4736
-31.8039
-32.6047
-65.1754
-37.1944
-61.5258
-41.6286
-61.9269
-68.1236
-72.5027
-76.318
-68.0931
-61.8573
-76.3045
-72.4598
-37.067
-64.7363
-41.5119
-61.4664
-44.0563
-45.1232
-43.301
-43.7153
-44.7031
-49.6756
-48.7028
-49.781
-43.068
-46.0555
-46.9505
-49.7875
-43.525
-42.0338
-46.3433
-44.4367
-44.0367
-45.0782
-43.2939
-43.7083
-43.4931
-42.0457
-46.3658
-44.4462
-43.109
-46.1054
-47.0135
-49.8305
-44.8009
-49.7318
-48.8145
-49.604
-42.3057
-40.2032
-40.1305
-40.1861
-39.6732
-39.244
-40.6331
-40.039
-36.3028
-37.728
-38.1077
-40.1174
-36.8872
-38.9635
-38.7709
-41.336
-57.6864
-59.3643
-53.5868
-56.3318
-37.1523
-39.0673
-38.2509
-39.9959
-37.1596
-39.074
-38.2564
-40.0038
-57.693
-59.3622
-53.5282
-56.3377
-29.8091
-27.8805
-28.1925
-26.0015
-27.9931
-29.8971
-26.1038
-28.286
-31.1492
-31.2996
-30.9066
-31.2804
-31.2644
-31.1216
-31.2407
-30.8768
-122.719
-11.1415
-86.9787
-46.0995
-93.0934
-79.5098
-36.6489
-36.7024
-34.2287
-31.6509
-42.211
-37.0844
-69.4302
44.8538
-14.7592
25.5991
-73.8902
-35.6566
-37.953
-32.8291
-35.3262
-33.0094
-39.5356
-37.1506
-87.1393
-46.34
-122.202
-11.5722
-92.7589
-79.6817
-34.2411
-31.8
-36.6544
-36.7684
-42.2421
-37.0306
-14.6518
25.7415
-70.118
44.8918
-74.0287
-35.5805
-35.3412
-33.0347
-37.8621
-32.9104
-39.5679
-37.1651
-35.6133
-36.1456
-30.8824
-31.6345
-33.7675
-31.7644
-35.7812
-33.3965
-53.1351
-45.3089
-23.3639
-31.5399
-20.7761
-51.6577
-34.7397
-44.6227
-40.5481
-36.7767
-40.2249
-42.1001
-44.7755
-59.9364
-24.1979
-49.3723
-47.4727
-51.4626
-43.381
-43.1682
-46.3334
-51.7147
-55.1958
-54.9398
-35.6385
-36.2046
-35.7477
-33.3241
-30.8343
-31.5854
-33.761
-31.7491
-52.9517
-45.9275
-34.2733
-44.2492
-23.2736
-31.5776
-20.4613
-51.8992
-40.5011
-36.375
-23.8422
-49.4982
-40.172
-41.9028
-44.5483
-59.7731
-47.5055
-51.4933
-55.1788
-54.9624
-43.4173
-43.1805
-46.322
-51.7153
-132.122
47.4438
-127.408
54.4466
-107.038
-110.419
56.8872
66.405
-71.3176
-160.864
-71.7347
-160.707
-66.0715
-65.681
-60.7725
-61.0281
-55.5834
-53.7144
-55.2636
-52.1375
-53.217
-49.9308
-54.8209
-51.7862
-35.4466
-30.9571
-35.9354
-32.118
-39.1188
-38.7302
-31.0255
-31.8393
-30.8666
-26.9246
-30.9642
-26.9641
-34.0667
-34.066
-24.9085
-24.953
-43.5224
-40.5722
-40.9337
-39.7969
-42.8797
-42.1461
-39.9111
-39.9951
-16.3402
6.79087
-16.3776
6.82471
-27.3473
-27.3556
26.1085
25.7938
-67.3633
-61.0899
-47.0315
-39.2297
-50.2152
-58.3541
-48.061
-36.6285
-34.6491
-31.9713
-34.6618
-31.9779
-35.6756
-35.6775
-30.3866
-30.3701
-48.2119
-44.2949
-52.8231
-53.9157
-51.8854
-53.1433
-50.4068
-45.6076
-132.073
47.3899
-127.297
54.2883
-107.016
-110.49
66.2435
56.8734
-55.4524
-53.5449
-55.3229
-52.8194
-53.0002
-50.1036
-53.9982
-52.8343
-35.4891
-31.0118
-35.9751
-32.1538
-38.7348
-39.1372
-31.067
-31.8686
-43.5246
-41.0334
-40.9389
-39.8306
-42.8063
-42.1819
-38.8405
-38.5877
-67.2445
-61.2146
-47.1062
-39.3214
-59.0674
-50.2596
-36.5262
-48.0715
-48.2224
-44.2879
-52.986
-53.9427
-53.2555
-51.7866
-45.6006
-50.4054
-30.0644
-30.3382
-28.3498
-29.1312
-30.3278
-29.673
-30.8884
-29.8156
-35.5649
-33.5415
-37.1484
-36.2729
-37.435
-37.7809
-33.6906
-35.1755
-38.2478
-35.5649
-38.1017
-35.491
-40.1243
-40.1168
-34.744
-34.7126
-31.698
-40.6214
-36.0099
-38.3895
-32.1415
-34.4103
-43.7697
-42.0426
-34.9432
-37.0595
-35.3765
-37.004
-34.3953
-34.2427
-38.3417
-38.2539
-46.7896
-55.4053
-46.9967
-53.6187
-44.6544
-44.2536
-64.0511
-60.293
7.48761
-5.28108
7.37588
-5.3113
8.46107
8.4154
-15.4766
-15.501
-71.3733
-65.4406
-71.3799
-65.4391
-75.8468
-75.8493
-62.8108
-62.8114
-30.0595
-30.2734
-28.3807
-29.3589
-30.3365
-29.6894
-30.6874
-30.4277
-35.5706
-33.536
-37.1397
-36.2483
-37.7866
-37.4448
-33.682
-35.158
-31.721
-40.651
-36.0981
-38.4057
-34.386
-32.1379
-43.7951
-42.0758
-46.7133
-55.3324
-46.9682
-53.5822
-44.2045
-44.6307
-60.2732
-64.0191
-58.9533
-60.0166
-54.952
-49.8306
-49.5202
-56.1565
-49.3995
-48.995
-58.9504
-60.0314
-54.9452
-49.8749
-56.2051
-49.5904
-49.0057
-49.4126
-52.3962
-52.2715
-51.6367
-52.5894
-54.4446
-51.5391
-55.4039
-55.5679
-36.4757
-36.4669
-33.2422
-23.3818
-23.325
-33.2053
-16.0154
-15.9479
198.25