# vtk DataFile Version 2.0
tet_velo
ASCII
DATASET UNSTRUCTURED_GRID
POINTS 29498 float
-0.745 0.225 -1.67917
-0.781835 0.235 1.595
-0.705 0.605 -1.54284
-0.732029 0.825 1.695
0.745 0.225 -1.67919
0.781835 0.235 1.595
0.705 0.605 -1.54284
0.73203 0.825 1.695
-0.789427 0.196185 -0.58778
-0.78891 0.212313 0.50361
-0.777687 0.74201 -0.46356
-0.771745 0.800392 0.61572
0.789264 0.196348 -0.587793
0.788709 0.212514 0.503603
0.777683 0.742007 -0.46356
0.771746 0.800392 0.61572
-1.52062 -0.0756727 -2.60872
-1.52124 -0.0395687 -1.74046
-1.55294 -0.0565974 -0.648752
-1.55885 -0.0636786 0.445389
-1.54999 -0.0483715 1.5373
-1.54892 -0.0250788 2.40657
-1.55101 0.00307888 3.27397
-1.51506 0.161163 -2.5449
-1.51404 0.215175 -1.67796
-1.55737 0.21363 -0.588618
-1.55747 0.220536 0.501818
-1.54143 0.239702 1.5914
-1.54447 0.262943 2.46049
-1.54956 0.290062 3.3283
-1.49816 0.60183 -2.41388
-1.48719 0.653888 -1.54644
-1.54417 0.748829 -0.46535
-1.54166 0.799223 0.614882
-1.51034 0.825881 1.6962
-1.52804 0.846728 2.5658
-1.54373 0.869817 3.43556
-1.49939 1.35939 -2.22644
-1.49907 1.42511 -1.36082
-1.52051 1.53623 -0.283656
-1.53519 1.62853 0.790897
-1.53529 1.68217 1.86819
-1.53806 1.70922 2.73408
-1.54464 1.73192 3.60251
-0.762341 -0.0709235 -2.6095
-0.749935 -0.0321775 -1.7416
-0.777134 -0.0645358 -0.648603
-0.784172 -0.0711318 0.446918
-0.780219 -0.0538505 1.53997
-0.781774 -0.0293198 2.40838
-0.784258 -0.000150182 3.27502
-0.763274 0.160267 -2.54515
-0.782971 0.259654 2.46199
-0.785487 0.287419 3.32909
-0.749444 0.581459 -2.41238
-0.769963 0.845681 2.56556
-0.782939 0.868733 3.43551
-0.740415 1.34475 -2.22496
-0.734693 1.41096 -1.35919
-0.752193 1.53162 -0.282674
-0.7692 1.63072 0.790778
-0.773124 1.68486 1.86734
-0.776475 1.71097 2.73324
-0.782105 1.7329 3.6019
0.743842 -0.0708936 -2.60952
0.766246 -0.0321358 -1.74162
0.788589 -0.0644004 -0.648615
0.786577 -0.0709726 0.446911
0.780192 -0.053793 1.53997
0.763608 -0.0292717 2.40838
0.754349 -9.52255e-05 3.27502
0.72737 0.160284 -2.54516
0.754257 0.259686 2.46199
0.748003 0.287467 3.32909
0.716962 0.581469 -2.41239
0.737005 0.845706 2.56556
0.73974 0.868775 3.4355
0.764392 1.34477 -2.22497
0.776646 1.41099 -1.35919
0.779287 1.53165 -0.282677
0.765077 1.63075 0.790775
0.75055 1.6849 1.86734
0.745331 1.71101 2.73323
0.743021 1.73294 3.60189
1.50384 -0.0756008 -2.60874
1.52641 -0.0394705 -1.74048
1.56016 -0.0563842 -0.648772
1.56427 -0.0634261 0.445376
1.55318 -0.0482208 1.53729
1.53698 -0.0249622 2.40656
1.52611 0.00319578 3.27397
1.48719 0.161213 -2.54493
1.50869 0.215232 -1.67799
1.5573 0.213824 -0.588637
1.56147 0.220784 0.501807
1.54495 0.239825 1.59139
1.52726 0.263038 2.46049
1.51886 0.290167 3.32829
1.47403 0.601864 -2.41389
1.48401 0.65391 -1.54645
1.54488 0.748895 -0.465359
1.5444 0.799325 0.614876
1.51114 0.825962 1.6962
1.50609 0.846804 2.5658
1.50736 0.86991 3.43555
1.51928 1.35944 -2.22645
1.53249 1.42517 -1.36083
1.54338 1.53629 -0.283663
1.53424 1.6286 0.790891
1.51796 1.68225 1.86818
1.51109 1.70931 2.73407
1.50885 1.73202 3.60251
-0.738569 0.415 -1.62457
0 0.162049 -1.74213
-0.795126 0.18268 -1.13348
-0.784555 0.53 1.67262
0 0.250598 1.5794
-0.784138 0.224891 1.04931
0 0.628265 -1.5661
-0.792484 0.724646 -1.0032
4.76837e-07 0.892305 1.76231
-0.780234 0.841043 1.15536
0.738566 0.415 -1.62458
0.794787 0.183019 -1.13349
0.784501 0.53 1.67257
0.783916 0.225113 1.0493
0.792491 0.724653 -1.0032
0.780222 0.841031 1.15536
-0.788568 0.204849 -0.042085
-0.861904 0.469098 -0.52567
-8.16358e-05 0.188653 -0.587787
-0.891387 0.506353 0.559665
-0.000100692 0.219212 0.503607
-0.772672 0.769157 0.07608
-1.75083e-06 1.00579 -0.46356
3.89014e-07 1.12741 0.61572
0.78845 0.204968 -0.042095
0.861885 0.469177 -0.525677
0.891387 0.506453 0.559662
0.772649 0.769134 0.07608
-0.854039 0.442049 -1.06834
-0.839272 0.487725 0.0169975
-0.852594 0.518176 1.10233
-4.08179e-05 0.173044 -1.13348
-9.1164e-05 0.196758 -0.04209
-5.03461e-05 0.238955 1.0493
0 0.415 -1.90958
2.38419e-07 0.53 1.94136
-8.75417e-07 0.807441 -1.0032
-6.8091e-07 1.15276 0.07608
4.32926e-07 0.951327 1.15536
0.854032 0.442089 -1.06835
0.839248 0.487815 0.0169925
0.852588 0.518227 1.10233
-1.12952 0.220087 -1.67857
-0.747467 0.0964112 -1.71039
-0.754137 0.192634 -2.11216
-1.16163 0.237351 1.5932
-0.781027 0.0905747 1.56749
-0.782403 0.247327 2.0285
-1.09609 0.629444 -1.54464
-0.727222 0.593229 -1.97761
-0.719846 1.00798 -1.45101
-1.12118 0.82544 1.6956
-0.750996 0.83534 2.13028
-0.752576 1.25493 1.78117
0.755623 0.0964321 -1.7104
0.736185 0.192642 -2.11218
1.12685 0.220116 -1.67859
0.781014 0.0906035 1.56749
0.768046 0.247343 2.02849
1.16339 0.237412 1.5932
0.710981 0.593235 -1.97761
0.740823 1.00799 -1.45102
1.09451 0.629455 -1.54465
0.734517 0.835353 2.13028
0.74129 1.25495 1.78117
1.12158 0.825481 1.6956
-1.1734 0.204908 -0.588199
-0.78328 0.0658244 -0.618191
-1.17319 0.216424 0.502714
-0.786541 0.0705906 0.475264
-1.16093 0.74542 -0.464455
-0.76494 1.13682 -0.373117
-1.1567 0.799808 0.615301
-0.770473 1.21555 0.703249
0.788927 0.0659738 -0.618204
1.17328 0.205086 -0.588215
0.787643 0.0707709 0.475257
1.17509 0.216649 0.502705
0.778485 1.13683 -0.373119
1.16128 0.745451 -0.464459
0.768412 1.21557 0.703248
1.15807 0.799859 0.615298
-1.52093 -0.0576207 -2.17459
-1.51784 0.0427451 -2.57681
-1.14148 -0.0732981 -2.60911
-1.53709 -0.048083 -1.1946
-1.51764 0.087803 -1.70921
-1.13559 -0.0358731 -1.74103
-1.5559 -0.060138 -0.101682
-1.55516 0.0785165 -0.618685
-1.16504 -0.0605666 -0.648677
-1.55442 -0.0560251 0.991343
-1.55816 0.0784285 0.473603
-1.17151 -0.0674052 0.446153
-1.54945 -0.0367251 1.97193
-1.54571 0.0956653 1.56435
-1.1651 -0.051111 1.53864
-1.54996 -0.011 2.84027
-1.54669 0.118932 2.43353
-1.16535 -0.0271993 2.40747
-1.55029 0.14657 3.30113
-1.16763 0.00146435 3.2745
-1.51455 0.188169 -2.11143
-1.50661 0.381497 -2.47939
-1.13917 0.160715 -2.54503
-1.53571 0.214403 -1.13329
-1.50061 0.434531 -1.6122
-1.55742 0.217083 -0.0434
-1.55077 0.48123 -0.526984
-1.54945 0.230119 1.04661
-1.54957 0.509879 0.55835
-1.54295 0.251323 2.02595
-1.52588 0.532791 1.6438
-1.54701 0.276503 2.8944
-1.53625 0.554835 2.51315
-1.16372 0.261299 2.46124
-1.54665 0.57994 3.38193
-1.16753 0.288741 3.32869
-1.49267 0.627859 -1.98016
-1.49877 0.980609 -2.32016
-1.1238 0.591645 -2.41313
-1.51568 0.701358 -1.0059
-1.49313 1.0395 -1.45363
-1.54291 0.774026 0.0747657
-1.53234 1.14253 -0.374503
-1.526 0.812552 1.15554
-1.53843 1.21388 0.70289
-1.51919 0.836304 2.131
-1.52281 1.25403 1.7822
-1.53588 0.858272 3.00068
-1.53305 1.27798 2.64994
-1.149 0.846204 2.56568
-1.54418 1.30087 3.51904
-1.16333 0.869275 3.43553
-1.49923 1.39225 -1.79363
-1.1199 1.35207 -2.2257
-1.50979 1.48067 -0.822237
-1.11688 1.41804 -1.36
-1.52785 1.58238 0.253621
-1.13635 1.53392 -0.283165
-1.53524 1.65535 1.32954
-1.1522 1.62962 0.790837
-1.53667 1.6957 2.30113
-1.15421 1.68352 1.86777
-1.54135 1.72057 3.1683
-1.15727 1.7101 2.73366
-1.16337 1.73241 3.6022
-0.756138 -0.0515505 -2.17555
-0.762807 0.0446718 -2.57733
-0.00924969 -0.0709085 -2.60951
-0.763534 -0.0483566 -1.1951
0.00815582 -0.0321567 -1.74161
-0.780653 -0.0678338 -0.100843
0.00572795 -0.0644681 -0.648609
-0.782196 -0.0624912 0.993445
0.00120226 -0.0710522 0.446914
-0.780997 -0.0415852 1.97418
-1.36245e-05 -0.0538218 1.53997
-0.783016 -0.014735 2.8417
-0.782372 0.115167 2.43519
-0.00908275 -0.0292957 2.40838
-0.784873 0.143635 3.30206
-0.0149545 -0.000122704 3.27502
-0.756359 0.370863 -2.47877
-0.017952 0.160275 -2.54515
-0.784229 0.273537 2.89554
-0.776467 0.552668 2.51378
-0.0143571 0.25967 2.46199
-0.784213 0.578076 3.3823
-0.0187423 0.287443 3.32909
-0.74493 0.963103 -2.31867
-0.0162407 0.581464 -2.41239
-0.776451 0.857207 3.00053
-0.773219 1.27832 2.6494
-0.0164792 0.845693 2.56556
-0.782522 1.30082 3.5187
-0.0215997 0.868754 3.43551
-0.737554 1.37786 -1.79208
0.0119885 1.34476 -2.22497
-0.743443 1.47129 -0.820932
0.0209767 1.41097 -1.35919
-0.760697 1.58117 0.254052
0.0135471 1.53164 -0.282676
-0.771162 1.65779 1.32906
-0.0020615 1.63073 0.790776
-0.7748 1.69791 2.30029
-0.011287 1.68488 1.86734
-0.77929 1.72193 3.16757
-0.0155724 1.71099 2.73323
-0.0195422 1.73292 3.6019
0.755044 -0.0515147 -2.17557
0.735606 0.0446951 -2.57734
1.12384 -0.0732472 -2.60913
0.777418 -0.0482681 -1.19512
1.14633 -0.0358032 -1.74105
0.787583 -0.0676865 -0.100852
1.17437 -0.0603923 -0.648694
0.783385 -0.0623828 0.993441
1.17542 -0.0671993 0.446144
0.7719 -0.0415323 1.97417
1.16669 -0.0510069 1.53863
0.758979 -0.0146834 2.8417
0.758933 0.115207 2.43518
1.15029 -0.0271169 2.40747
0.751176 0.143686 3.30205
1.14023 0.00155028 3.27449
0.722166 0.370876 -2.47877
1.10728 0.160748 -2.54504
0.75113 0.273577 2.89554
0.745631 0.552696 2.51377
1.14076 0.261362 2.46124
0.743871 0.578121 3.3823
1.13343 0.288817 3.32869
0.740677 0.963121 -2.31868
1.0955 0.591667 -2.41314
0.738373 0.85724 3.00053
0.741168 1.27836 2.6494
1.12155 0.846255 2.56568
0.741381 1.30086 3.5187
1.12355 0.869342 3.43553
0.770519 1.37788 -1.79208
1.14184 1.35211 -2.22571
0.777967 1.47132 -0.820935
1.15457 1.41808 -1.36001
0.772182 1.5812 0.254049
1.16133 1.53397 -0.28317
0.757814 1.65782 1.32906
1.14966 1.62968 0.790833
0.74794 1.69795 2.30029
1.13425 1.68357 1.86776
0.744176 1.72198 3.16756
1.12821 1.71016 2.73365
1.12593 1.73248 3.6022
1.51513 -0.0575356 -2.17461
1.49552 0.042806 -2.57683
1.54329 -0.0479273 -1.19463
1.51755 0.0878807 -1.70924
1.56221 -0.0599051 -0.101698
1.55873 0.0787199 -0.618705
1.55873 -0.0558235 0.991334
1.56287 0.0786788 0.473592
1.54508 -0.0365915 1.97193
1.54907 0.095802 1.56434
1.53155 -0.0108832 2.84026
1.53212 0.119038 2.43353
1.52249 0.146682 3.30113
1.49794 0.188222 -2.11146
1.48061 0.381539 -2.47941
1.53299 0.214528 -1.13331
1.49635 0.434571 -1.61222
1.55938 0.217304 -0.0434153
1.55109 0.481359 -0.526998
1.55321 0.230304 1.0466
1.55294 0.510055 0.558342
1.53611 0.251431 2.02594
1.52804 0.532893 1.6438
1.52306 0.276603 2.89439
1.51667 0.554921 2.51314
1.51311 0.580038 3.38192
1.47902 0.627887 -1.98017
1.49666 0.980653 -2.32017
[...]
POINT_DATA 29498
VECTORS point_vectors float
-1.86116 -1.27063 2.95604
-0.0121284 0.302474 2.08093
-1.31164 0.990752 2.6672
0.0886096 -0.231534 1.3149
1.85614 -1.26581 2.9655
0.0062336 0.317077 2.14377
1.31436 0.99276 2.67049
-0.0901363 -0.230068 1.3129
-0.00665921 0.0121943 0.110568
0.0145698 0.0139321 0.316198
0.00784377 0.0161905 0.317595
0.0371038 0.0255761 0.165263
0.00672687 0.011802 0.108423
-0.0119644 0.0119688 0.310415
-0.00759247 0.0160666 0.317572
-0.0370086 0.0254788 0.164835
-0.614169 -0.271899 19.8544
-1.12047 -0.593835 20.3556
-0.508384 -0.468652 21.0994
0.0178624 -0.229807 21.1916
0.461072 0.0281542 21.171
0.691101 0.141101 20.8848
0.757854 0.0796285 20.6302
-0.717558 -0.203418 19.7876
-1.46624 -0.507635 20.3259
-0.63788 -0.479759 21.1737
-0.0328612 -0.303643 21.2498
0.564487 -0.103531 21.2058
0.809255 -0.0773585 20.9108
0.774689 -0.001722 20.6046
-0.910876 0.0443036 19.7025
-1.75492 0.0144335 20.3667
-0.963409 -0.271334 21.1867
-0.256396 -0.291078 21.3372
0.457673 -0.39562 21.214
0.666367 -0.381918 20.8497
0.686117 -0.433361 20.497
-0.721378 0.417871 19.8852
-1.05473 0.544551 20.4149
-0.77609 0.290675 20.9987
-0.258841 -0.0384871 21.1663
0.0928491 -0.293201 21.0229
0.219995 -0.366678 20.8682
0.191685 -0.351445 20.4747
-0.718709 -0.653173 19.1765
-2.12095 -3.88504 20.2972
0.0342784 -0.294234 20.4476
0.369913 0.219149 19.7261
0.429736 0.878371 19.2648
0.745782 1.3287 19.3079
1.007 1.19197 18.3667
-0.93697 -0.545938 18.8083
1.09039 1.54214 11.7413
1.4623 1.48445 15.3257
-1.3242 0.213125 18.2755
1.21596 -0.589115 11.1641
1.60005 -0.735733 14.1869
-0.80297 1.05933 19.3028
-1.46228 1.97886 20.11
-1.38875 1.41703 21.4045
-0.379409 0.158867 21.6064
-0.00278437 -0.415344 21.1826
0.105655 -0.594714 20.8832
0.0964031 -0.57589 20.6912
0.70767 -0.666579 19.1477
2.15753 -3.77186 20.2707
-0.0383092 -0.317411 20.6194
-0.367255 0.218829 19.7487
-0.427649 0.875856 19.2671
-0.717079 1.3451 19.2703
-0.962355 1.26024 18.2451
0.913248 -0.575211 18.756
-0.976032 1.55427 10.8932
-1.47857 1.55417 14.4448
1.31405 0.226707 18.1968
-1.10873 -0.573409 9.8193
-1.61151 -0.735255 13.369
0.813127 1.03795 19.3225
1.48087 1.88155 20.1378
1.38253 1.33993 21.3963
0.378463 0.160495 21.6079
0.00593719 -0.41609 21.1848
-0.0964359 -0.598619 20.8879
-0.0742838 -0.58347 20.6793
0.619687 -0.273624 19.8408
1.11186 -0.584932 20.3507
0.506944 -0.467013 21.0936
-0.014263 -0.230189 21.1853
-0.460933 0.0263426 21.1663
-0.695407 0.145208 20.8834
-0.766914 0.0888049 20.6496
0.738168 -0.214911 19.7608
1.4786 -0.515909 20.3262
0.63733 -0.479839 21.1736
0.0336956 -0.298867 21.2463
-0.562374 -0.105376 21.2011
-0.819077 -0.0578373 20.9128
-0.811571 -0.022855 20.6597
0.930419 0.0537606 19.6735
1.76525 0.0152205 20.3666
0.964375 -0.271585 21.1859
0.258078 -0.291803 21.3362
-0.459767 -0.392523 21.219
-0.664555 -0.409735 20.8863
-0.711034 -0.457849 20.5511
0.713904 0.407885 19.8976
1.01366 0.502491 20.4172
0.75867 0.281734 20.9861
0.256907 -0.0380634 21.1733
-0.0916801 -0.295961 21.0224
-0.217125 -0.373849 20.8633
-0.186247 -0.347979 20.4991
-0.219335 0.00316649 0.304426
0.000712665 -0.0511998 0.542956
-0.0210547 0.0171914 0.629604
0.0372233 -0.00336344 0.102452
-1.35165e-05 0.0036622 0.0414722
-0.063346 0.0446191 1.2951
-6.38877e-06 0.00801763 0.0251819
-0.0593279 -0.0124313 0.269587
-0.000449622 0.0282574 -0.0500366
0.049981 0.0464291 0.676746
0.217692 0.00307939 0.301918
0.0202087 0.0172918 0.617461
-0.0366925 -0.00315248 0.100977
0.0630542 0.0442314 1.30252
0.0599186 -0.0125579 0.271876
-0.0499529 0.0463317 0.675453
0.00535915 0.00532439 0.266842
0.000376045 0.0012526 0.0426414
0 0 0
-0.00253451 0.00349894 0.0925324
-4.86192e-06 0.00293704 0.0550726
0.0133975 0.0130433 0.0688044
0 0 0
-1.31581e-06 -0.0120863 0.106009
-0.00544895 0.00542104 0.271772
-0.000373559 0.00123684 0.0421683
0.00240674 0.00349814 0.0905234
-0.0132931 0.0129494 0.0682668
0 0 0
0.00074424 0.00135566 0.0119746
0 0 0
0 0 0
-3.3609e-05 0.000379783 0.0281506
-1.83059e-07 3.50746e-05 0.0016273
-0.00665742 2.34888 2.24442
-0.000275546 -0.015645 -0.00793085
0 0 0
2.14169e-06 0.0056063 0.0584942
-4.70545e-07 6.55341e-06 -0.000599877
0 0 0
-0.00071237 0.00129798 0.0114579
0 0 0
-3.02211 -1.34719 20.1315
-3.67953 -6.39238 20.0478
-2.44124 -1.54388 17.6049
1.04411 0.162199 20.3747
0.189521 1.05054 14.7809
0.691786 1.46325 9.28477
-3.92548 0.480965 20.1777
-3.51245 1.43495 16.496
-2.99455 3.30477 19.726
0.8278 -0.691532 20.2676
0.527661 -0.496857 7.28533
0.102871 -0.675103 20.0816
3.73377 -6.21587 19.9782
2.42775 -1.61872 17.5174
3.04039 -1.37137 20.1233
-0.19215 1.04364 14.788
-0.592714 1.4413 8.72615
-1.03916 0.155046 20.3974
3.52415 1.50233 16.3544
2.9932 3.15331 19.7744
3.94368 0.486753 20.1754
-0.401393 -0.468784 6.50999
-0.118985 -0.656213 19.8101
-0.825877 -0.689942 20.234
-0.527298 -0.988488 21.4912
0.154084 0.128678 13.7768
0.140741 -0.523013 20.7651
0.449654 0.288166 13.806
-1.57905 -0.699154 21.5873
-3.19024 1.33569 21.6408
-0.481239 -0.469884 21.0512
-0.638503 0.0949827 21.0376
-0.153169 0.118977 13.9407
0.528458 -0.990548 21.4913
-0.441906 0.286851 13.8288
-0.138386 -0.523285 20.7823
3.11162 1.27225 21.7264
1.5783 -0.699447 21.5789
0.634738 0.0987962 21.0163
0.480408 -0.470997 21.0601
-0.912097 -0.439799 19.995
-0.669547 -0.254349 19.8207
-0.72461 -0.44614 19.5449
-0.906791 -0.589373 20.8893
-1.29365 -0.556215 20.3368
-1.804 -1.47719 20.251
-0.197339 -0.341398 21.1632
-0.580461 -0.469418 21.131
-0.306169 -0.719069 21.4339
0.245628 -0.101222 21.2121
-0.0116156 -0.264337 21.218
0.249363 -0.25435 21.3303
0.617316 0.096138 21.0353
0.507223 -0.0311643 21.1871
0.726101 0.282701 21.2486
0.724647 0.145127 20.7353
0.766376 0.0663001 20.9001
1.00427 0.525803 20.7908
0.764626 0.061976 20.5526
0.982564 0.428568 20.4924
-1.14223 -0.359406 19.9032
-0.834818 -0.122384 19.7276
-0.883548 -0.366338 19.4224
-1.16132 -0.549876 20.9517
-1.67797 -0.285157 20.3327
-0.29367 -0.395706 21.2128
-0.817277 -0.40581 21.1833
0.248158 -0.205403 21.273
-0.166763 -0.341382 21.3092
0.742596 -0.0443887 21.0577
0.550988 -0.269816 21.2598
0.889466 -0.0375222 20.7896
0.777379 -0.242537 20.8816
1.36872 0.25758 20.2073
0.75818 -0.307828 21.0235
1.18496 0.197054 19.7824
-1.41848 0.055527 19.8638
-0.915304 0.267506 19.7843
-1.20336 0.0746221 19.17
-1.41917 -0.165908 20.9796
-1.46584 0.404375 20.3928
-0.605653 -0.306699 21.2809
-0.989284 0.0409373 21.1052
0.115409 -0.32928 21.329
-0.307812 -0.179609 21.2954
0.603958 -0.43321 21.0428
0.238107 -0.412244 21.1243
0.707938 -0.429855 20.7721
0.390661 -0.456472 20.8285
0.999446 -0.762039 20.4049
0.403346 -0.452714 20.4778
0.838559 -0.678872 20.7101
-0.950548 0.528456 20.0958
-0.831359 0.67995 19.6431
-0.98591 0.448356 20.7684
-1.38832 1.09693 20.3229
-0.519051 0.120788 21.1432
-1.11797 0.637636 21.2092
-0.0466901 -0.17875 21.118
-0.346536 0.0227901 21.3791
0.177539 -0.339861 20.9074
0.0526664 -0.389964 21.0914
0.275411 -0.36975 20.7361
0.185808 -0.510054 20.8253
0.22289 -0.458871 20.737
-1.41601 -1.67017 18.8601
-0.803106 -0.624402 19.0333
-0.0114168 -0.975764 18.6016
-0.469165 -1.46499 21.9988
-0.00621526 -4.45644 22.3532
0.21823 0.0346904 19.8122
0.00118645 -0.000923038 19.3182
0.375168 0.45756 19.3171
-0.00137089 0.414475 18.5511
0.589186 1.23244 19.2814
-0.00176257 0.694361 17.8135
0.916462 1.30368 19.1203
0.796901 1.42538 16.2869
-0.000630206 1.03779 17.9488
1.24812 1.41819 16.6484
-0.000693922 1.34193 17.9657
-1.16318 -0.273069 18.4349
-0.0375723 -0.824431 17.9364
1.43402 1.50586 13.5851
1.57403 0.529352 7.92346
-0.0275035 0.0490017 3.32408
1.88719 0.21562 13.5449
-0.0106387 1.2316 6.93787
-1.13243 0.907539 18.7181
-0.0384214 0.510964 16.8852
1.37109 -0.724131 12.9478
0.268322 -0.936691 20.4452
0.0302217 -0.140698 -2.06248
0.239434 -0.906552 20.4978
0.111407 -0.327789 0.566123
-1.20223 1.66268 19.528
0.0171357 1.52296 18.9104
-1.58903 1.82115 20.7853
0.0557869 3.0581 19.7538
-0.858596 0.714862 21.7074
0.0447944 2.94557 21.6155
-0.129259 -0.208005 21.3984
-0.00185003 0.3723 21.9234
0.0597902 -0.531014 21.0441
-0.00386758 -0.345425 21.367
0.1496 -0.599756 20.6152
-0.00363274 -0.591744 21.1324
0.000716755 -0.595776 20.6298
1.41418 -1.6689 18.8603
0.787086 -0.646278 18.9929
0.732504 -0.462172 19.5227
0.488104 -1.45708 21.986
1.78473 -1.44099 20.2487
-0.219749 0.030519 19.8744
0.319211 -0.715668 21.4199
-0.373173 0.459323 19.3286
-0.24301 -0.25618 21.3279
-0.573028 1.23524 19.2644
-0.722617 0.277774 21.2446
-0.882136 1.36849 19.021
-0.710146 1.4338 15.8827
-1.0112 0.552985 20.7592
-1.19825 1.4791 16.4999
-1.00534 0.470891 20.4845
1.15957 -0.275967 18.3422
0.890479 -0.371794 19.377
-1.36426 1.56352 12.7531
-1.47567 0.555526 6.75462
-1.3993 0.318374 19.9699
-1.92402 0.314774 12.7176
-1.2119 0.305346 19.379
1.13149 0.916529 18.7071
1.22945 0.0836982 19.1114
-1.34638 -0.716342 11.7338
-0.27376 -0.92468 20.0469
-1.04352 -0.759434 20.1119
-0.21706 -0.91229 20.4437
-0.934875 -0.683286 20.0565
1.22723 1.61326 19.5485
0.827899 0.66123 19.6621
1.58517 1.71448 20.7991
1.36005 1.02637 20.3304
0.858342 0.701402 21.6985
1.09413 0.602901 21.1961
0.129685 -0.206708 21.4026
0.346869 0.0233731 21.3803
-0.0536761 -0.531829 21.0548
-0.053926 -0.390321 21.1018
-0.136471 -0.598333 20.6571
-0.18738 -0.517512 20.8267
-0.230137 -0.480977 20.7561
0.916991 -0.442704 19.9855
0.685332 -0.260414 19.7946
0.907877 -0.587728 20.886
1.2939 -0.555882 20.3334
0.201129 -0.342156 21.159
0.578278 -0.466102 21.1278
-0.239528 -0.0991003 21.2025
0.0131593 -0.260781 21.2132
-0.614294 0.101415 21.0343
-0.505405 -0.0308223 21.1823
-0.733634 0.154759 20.7406
-0.773834 0.0694987 20.9011
-0.7921 0.0472112 20.61
1.16302 -0.369694 19.8877
0.855788 -0.135548 19.6967
1.16233 -0.551421 20.9527
1.69192 -0.289522 20.3311
0.293162 -0.393492 21.2102
0.816674 -0.405699 21.185
-0.247753 -0.204547 21.2711
0.165975 -0.339942 21.3078
-0.743013 -0.0460847 21.0673
-0.546674 -0.271203 21.2526
-0.910884 -0.0273561 20.795
-0.815957 -0.260799 20.8847
-0.78339 -0.331901 21.0737
1.44921 0.0618398 19.847
0.915952 0.269591 19.7825
1.42237 -0.166833 20.9813
1.43198 0.386989 20.3943
0.606105 -0.305777 21.28
0.977744 0.0405687 21.0983
-0.111545 -0.327634 21.3311
0.30728 -0.182133 21.2933
-0.614087 -0.422167 21.0403
-0.232758 -0.40754 21.1167
-0.734496 -0.454477 20.7877
-0.400355 -0.4662 20.8428
-0.411248 -0.466997 20.4402
0.928436 0.501182 20.1092
0.950207 0.424147 20.7611
0.510774 0.11738 21.1331
0.0519704 -0.175819 21.1189
-0.180598 -0.344812 20.9111
-0.265855 -0.375565 20.7287
-1.02916 -0.41714 19.9466
-1.84998 -1.7495 18.3368
-1.246 -0.845514 19.5714
-1.8096 -0.736149 19.2411
-0.797558 -0.429782 19.492
-2.36059 -1.52408 20.1891
-1.04203 -0.571429 20.9156
-0.197746 -0.464808 15.0494
-1.03749 -1.2246 21.3739
-1.61604 -1.33459 21.6607
-0.372523 -0.872556 21.5457
-0.248189 -0.366771 21.1945
0.244512 0.232434 13.5344
0.0416201 -0.444888 21.3667
-0.0698856 -0.705298 21.0024
0.253871 -0.399243 21.1679
0.245108 -0.147827 21.2375
0.172542 0.530061 13.9475
0.457567 -0.00786968 21.3306
0.528069 -0.160997 20.4946
0.902788 0.260025 20.9037
0.677233 0.0309118 21.0435
0.516675 1.45539 15.1393
0.914633 0.449719 21.0102
1.29948 0.262899 20.1709
1.26961 0.423658 20.6087
0.826609 0.0648412 20.777
1.12625 1.4374 16.4768
1.05808 0.496837 20.6329
1.43489 0.286026 19.8671
1.05725 0.229319 20.7938
-1.31304 -0.18592 19.8608
-3.33162 -0.466301 16.5695
-2.38438 0.279847 19.0368
-1.07873 -0.163605 19.248
-3.89624 -0.521178 20.1025
-1.32169 -0.392795 20.9848
-2.48931 -0.337213 21.5646
-1.02624 -0.961963 21.6756
-0.455026 -0.393981 21.2505
-0.951327 -0.710611 21.3387
-0.202168 -0.588926 20.7179
0.205787 -0.300835 21.3081
0.166557 -0.520807 20.8585
1.14072 -0.198608 19.5044
0.733127 -0.262116 21.0745
0.703936 0.143918 4.22287
0.95029 -0.760489 20.3625
1.49062 -0.279644 19.6278
0.845111 -0.280503 20.7394
2.00449 0.525022 10.2829
0.90931 -0.760837 20.6637
1.24573 -0.215031 19.5271
-1.26389 0.392007 19.9724
-2.10474 2.20631 18.5699
-1.18104 0.977219 19.8818
-1.11683 0.536568 19.3603
-2.35258 1.18121 20.2265
-1.30826 0.2382 20.8587
-3.22071 2.05351 21.034
-1.35542 0.915921 20.835
-1.6877 0.245552 21.3849
-0.655317 -0.0821741 21.2496
-1.85993 0.534041 21.7154
-0.719933 0.315151 21.393
-0.517363 -0.159258 21.6017
-0.0156691 -0.301304 21.2356
-0.0822652 -0.346751 20.6263
-0.0970501 -0.207176 21.2664
0.180431 -0.619816 21.2936
0.359639 -0.456281 20.9745
0.157991 -0.830918 20.3988
0.140131 -0.451863 20.9815
0.397952 -0.737048 20.9208
0.448151 -0.439723 20.7813
0.368837 -0.952354 20.4532
0.219866 -0.510147 20.711
0.413116 -0.655245 20.6068
1.85666 -1.78537 18.3005
-0.00101197 -3.09318 17.9117
-0.0572447 -3.78567 14.5415
-0.0132229 -0.935088 18.2947
-0.0151066 -2.97761 18.386
0.193523 -0.475718 15.3179
-0.00293846 -0.778375 21.1997
0.00269137 0.242663 10.7556
-0.239737 0.231285 13.6314
-0.00130126 0.2053 18.6562
-0.00185167 0.400542 10.7679
-0.170963 0.531508 13.9614
-0.00167307 0.484622 17.972
-0.00204495 0.530128 11.2728
-0.474117 1.45316 14.9637
-0.00310005 0.895845 17.7782
-0.0364766 -0.305177 2.4422
-0.0266605 0.779639 11.7757
-1.05868 1.48224 16.0892
0.00404989 1.21982 17.7163
-0.024674 0.204578 3.9217
-0.0123422 1.40033 12.581
3.34303 -0.46245 16.384
-0.064622 4.48891 13.2226
-0.0437356 -0.356388 17.2096
-0.579135 0.1173 3.61113
-0.0315537 0.755945 -1.75108
0.0360615 -0.562187 -4.50737
-2.00461 0.613314 9.19317
0.0556865 -0.334787 -0.831621
0.115088 -0.147883 -1.92858
2.10898 2.17037 18.5944
0.0326054 2.49097 19.1038
-0.00402932 1.52156 17.847
0.0496517 5.07936 18.9306
3.18937 1.94792 21.0462
0.0657949 3.22402 20.5312
0.0488759 5.49883 19.766
1.8506 0.520908 21.7262
0.0081888 1.49624 22.2479
0.00416709 -0.0400745 14.7052
0.0648898 -0.336511 20.5288
-0.00258609 -0.126359 21.5422
0.0031601 -0.47275 13.2405
-0.167754 -0.80168 20.0344
-0.00266319 -0.470607 21.1172
0.00102538 -0.741174 14.2775
-0.368955 -0.951646 20.3237
0.00468145 -0.610334 20.8764
-0.00262836 -0.771148 13.8972
1.04416 -0.425241 19.9315
1.25235 -0.854393 19.5634
1.85819 -0.761887 19.1877
0.805153 -0.450192 19.462
2.34618 -1.5049 20.1891
1.04124 -0.570697 20.913
1.0442 -1.2078 21.3548
1.61657 -1.34253 21.6672
0.382698 -0.870155 21.5375
0.248983 -0.365357 21.1907
-0.0329164 -0.446959 21.3582
0.0718399 -0.706078 21.0144
-0.247604 -0.400652 21.1718
-0.24105 -0.145185 21.2305
-0.45298 -0.00972713 21.3263
-0.526694 -0.164631 20.5198
-0.898183 0.253439 20.9093
-0.675227 0.0342375 21.0478
-0.915915 0.457479 20.997
-1.30709 0.282128 20.0634
-1.28259 0.462561 20.5741
-0.844594 0.07312 20.7846
-1.07832 0.550449 20.5752
-1.46041 0.358504 19.584
-1.08593 0.330766 20.4402
1.34097 -0.193142 19.8444
2.41549 0.298677 18.9828
1.08416 -0.167621 19.2087
3.93228 -0.515668 20.1018
1.32527 -0.396711 20.9882
2.49226 -0.336859 21.5661
1.02713 -0.961965 21.6769
0.455504 -0.395043 21.2514
0.950437 -0.708486 21.3252
0.202938 -0.590383 20.7515
-0.201944 -0.297881 21.3092
-0.164713 -0.521473 20.8623
-1.13668 -0.200095 19.5421
-0.739533 -0.261655 21.0551
-0.967872 -0.745057 20.1012
-1.54364 -0.240143 19.2925
-0.871035 -0.30569 20.7472
-0.943847 -0.750109 20.4678
-1.35072 -0.158054 19.0647
1.25169 0.384323 19.9785
1.16296 0.923458 19.9099
1.11861 0.539591 19.3573
2.31267 1.11882 20.2466
1.28925 0.228116 20.8555
1.33086 0.860591 20.8336
1.65413 0.244502 21.37
0.64991 -0.0798792 21.2483
0.71189 0.305427 21.386
0.5175 -0.160111 21.6012
0.00898311 -0.301504 21.25
0.101402 -0.206745 21.2714
-0.177808 -0.623802 21.2989
-0.357553 -0.472206 20.9744
-0.139169 -0.462347 20.9833
-0.388094 -0.755947 20.9206
-0.451733 -0.450727 20.7613
-0.216046 -0.522164 20.7434
-0.422463 -0.680493 20.637
-1.48037 -0.850866 19.4401
-1.29038 -1.33032 21.5222
0.0440123 -0.582132 21.2955
0.529289 -0.0919231 21.077
1.15388 0.388971 20.7923
1.16049 0.38826 20.6765
-2.25319 -0.284364 19.0701
-2.17492 -0.95231 21.7457
-0.410182 -0.801942 20.9139
0.441064 -0.340609 20.1558
1.36737 -0.2648 19.7218
1.50403 -0.225551 19.4933
-1.83874 0.974668 19.4914
-2.12509 0.642982 21.051
-1.09815 0.022858 21.5939
-0.0910843 -0.397735 21.502
0.328797 -0.704724 21.0843
0.452049 -0.734219 20.614
-0.0186197 -3.69229 16.6485
0.0135965 -0.0148005 11.1256
-0.00321836 0.234464 10.6683
-0.00109123 0.353998 10.8129
-0.0106791 0.607318 11.166
-0.0180454 0.976029 11.4185
-0.0786132 -0.0339542 11.7802
-0.0440762 -0.489944 -2.86799
0.129491 -0.937439 -3.59034
0.0155444 3.69191 17.6476
0.0502956 5.12039 19.9267
0.00520259 1.60779 16.4048
0.00220083 -0.40465 12.5804
-0.00296566 -0.471243 13.7772
-0.000941282 -0.596488 13.8129
1.49484 -0.877092 19.4195
1.29195 -1.32129 21.5112
-0.0353399 -0.58316 21.2963
-0.525299 -0.0939761 21.0784
-1.15561 0.403095 20.7703
-1.18897 0.449584 20.5254
2.29338 -0.296352 19.0043
2.17818 -0.955505 21.7518
0.411635 -0.800632 20.921
-0.439019 -0.343285 20.1841
-1.38221 -0.232166 19.4052
-1.57455 -0.197949 19.2507
1.83037 0.956806 19.5035
2.07779 0.601311 21.0437
1.09116 0.0193615 21.5877
0.0912041 -0.396955 21.5075
-0.321667 -0.716484 21.0945
-0.46404 -0.766787 20.6122
-2.73546 -0.441353 2.61618
0.0111118 -0.259074 1.1656
-0.0982123 -0.0560376 1.59933
0.0821847 0.0255886 0.329632
0 0 0
-0.0667347 0.0716853 1.12774
-0.917317 0.15802 1.2768
9.36662e-18 -1.26932e-16 -3.54589e-16
-0.369619 0.0686478 0.922968
0.0801031 -0.00802574 0.283935
-0.0411677 0.000846508 0.00204544
0.0132078 -0.0062459 0.171666
-0.0100253 -0.258046 1.16695
2.3222 -0.391071 2.24329
0.12347 -0.0875686 2.08861
0 0 0
-0.0855896 0.0265715 0.342998
0.0648564 0.0848445 1.08639
0 0 0
0.918369 0.157975 1.27929
0.377051 0.0699502 0.940407
0.0410742 0.00108024 0.00181868
-0.0794615 -0.00766304 0.282294
-0.0132582 -0.00613914 0.17107
0.00570999 0.00210179 0.342483
0.00524771 0.0124726 0.72015
6.30969e-05 -0.000148938 0.00796305
0 0 0
-0.0231711 0.0337966 0.844455
0.0165747 0.00272181 0.335984
1.42466e-19 -4.0891e-19 -2.97304e-17
0 0 0
-0.0236624 -0.0167648 0.136014
-0.00292876 -0.0106046 0.175525
0.00176082 0.00314342 0.047128
-0.152702 0.136035 0.43511
0.0328728 0.0329759 0.245477
-0.0137368 0.054361 0.540169
0.0557864 0.0503117 0.199944
0.00956433 -0.00173308 0.0369766
-0.0129501 0.0108338 0.455128
0 0 0
-0.00513575 0.0133901 0.734645
-5.90854e-05 -0.000137777 0.0072845
0.0231057 0.0326965 0.843264
0 0 0
-0.0168088 0.00306287 0.347799
0 0 0
0.0231273 -0.016383 0.133028
0.161417 0.0992412 0.414562
0.0029405 -0.0106923 0.176597
-0.00176676 0.00316186 0.0472572
-0.0331895 0.0332852 0.247018
-0.00923742 -0.00168179 0.0357233
0.0140311 0.0549807 0.541647
-0.0555219 0.0500706 0.198837
-0.0560413 -0.0495695 0.351157
-0.231317 0.173807 0.258062
1.17923e-19 3.21777e-18 1.2203e-16
0 0 0
-0.0072641 -0.0100442 0.279432
-6.43654e-05 6.7577e-06 0.000962723
0 0 0
-0.0198765 -0.00223638 -0.00322808
3.7515e-07 -9.99853e-07 -6.66739e-05
0.00824227 -0.0531303 -0.0201644
0.00110481 0.00195089 0.0168942
0 0 0
1.75089e-05 0.0641242 0.0944996
0 0 0
-0.000850301 -0.000608056 0.0271166
0 0 0
-0.000123975 0.0102796 -0.0056063
0 0 0
0 0 0
0 0 0
0.247334 0.187116 0.277083
0.0561404 -0.0496672 0.35118
0.00175123 0.00020472 0.0254569
0.00731364 -0.0101975 0.281173
0.0200877 -0.00224976 -0.00327177
0 0 0
0 0 0
-0.00109144 0.00193571 0.0167424
0 0 0
0.000849658 -0.000607895 0.0270652
0 0 0
-1.19621e-17 1.01274e-17 2.32963e-16
3.68156e-06 6.22218e-05 0.00096559
0.000636766 0.000539807 0.0309956
6.91344e-19 5.40142e-19 -5.25448e-17
-1.14432e-18 -2.82506e-18 -3.73233e-17
9.46774e-07 -1.39533e-06 -0.000109911
-4.32517e-05 0.000816455 0.0191549
0 0 0
0 0 0
-0.000130004 0.0242073 0.411512
-6.35957e-07 0.00070785 0.0252019
0 0 0
-0.0127993 0.0361596 0.427744
0 0 0
-1.10546e-05 0.0681909 0.252307
3.57729e-07 -8.13997e-05 0.00250945
-2.4367e-05 0.00562661 0.00973316
-0.000714632 0.00048044 0.0310689
-4.07123e-06 6.82383e-05 0.00105399
0 0 0
0 0 0
0 0 0
0 0 0
0.013286 0.0375281 0.442347
0 0 0
-0.0732177 -0.106306 0.58524
-0.263217 -0.0525085 0.728348
-0.000921355 0.000420178 0.0683868
-0.00230349 -0.013934 0.236659
3.23092e-06 7.91648e-05 0.00121166
0.00233718 0.0055169 0.0519374
0 0 0
-0.00326678 0.0227014 0.0664856
-0.00436159 0.0137773 0.109947
0 0 0