# vtk DataFile Version 2.0
tri_press
ASCII
DATASET UNSTRUCTURED_GRID
POINTS 3682 float
-0.692093 0.115 -1.845
-0.805 0.205 1.72214
-0.713056 0.455 -1.675
-0.765 0.68718 1.815
0.689627 0.115 -1.845
0.805 0.205 1.72328
0.710624 0.455 -1.675
0.765 0.687185 1.815
-0.765326 0.109403 -0.655953
-0.847719 0.0946458 0.533093
-0.80018 0.602203 -0.511667
-0.773212 0.635314 0.651667
0.764311 0.108773 -0.655573
0.84717 0.0943722 0.533853
0.799628 0.603273 -0.511667
0.774051 0.636966 0.651667
-1.46612 -0.167718 -2.85637
-1.46859 -0.12119 -1.91538
-1.53332 -0.128437 -0.725642
-1.61106 -0.144125 0.469262
-1.61708 -0.0721868 1.65944
-1.60856 -0.0108626 2.60256
-1.60584 0.0393488 3.54175
-1.46201 0.0450263 -2.78068
-1.46375 0.108385 -1.8425
-1.54072 0.11988 -0.657813
-1.61745 0.106297 0.529161
-1.60748 0.183245 1.71434
-1.60207 0.243726 2.65709
-1.60297 0.292502 3.59712
-1.47208 0.441148 -2.62203
-1.48248 0.502682 -1.68275
-1.55835 0.603767 -0.515602
-1.57232 0.630355 0.649692
-1.56974 0.682145 1.81731
-1.58167 0.740462 2.76094
-1.59273 0.791368 3.70502
-1.50163 1.12331 -2.40359
-1.51324 1.19464 -1.46821
-1.54595 1.30094 -0.30941
-1.56464 1.37972 0.843786
-1.56934 1.4389 2.00279
-1.57581 1.48597 2.93862
-1.58384 1.5331 3.87987
-0.719279 -0.163887 -2.85798
-0.706123 -0.114761 -1.91772
-0.751252 -0.132579 -0.725175
-0.817772 -0.152864 0.472748
-0.819147 -0.0621626 1.66541
-0.813275 -0.00261957 2.60668
-0.813085 0.0442625 3.54421
-0.717678 0.0431127 -2.78115
-0.809665 0.253504 2.66047
-0.81192 0.298013 3.599
-0.724948 0.421284 -2.61879
-0.794726 0.745877 2.76056
-0.805374 0.795653 3.70506
-0.740137 1.11078 -2.40037
-0.74383 1.18334 -1.46466
-0.769237 1.29911 -0.307244
-0.784389 1.38246 0.843618
-0.786352 1.44178 2.0011
-0.79175 1.48857 2.93694
-0.798873 1.53546 3.87869
0.733045 -0.163803 -2.85789
0.7355 -0.114811 -1.91762
0.78708 -0.132937 -0.724817
0.830382 -0.153049 0.473412
0.802014 -0.062188 1.66631
0.787963 -0.00257542 2.60737
0.77871 0.0443691 3.54475
0.718283 0.0432064 -2.7811
0.782953 0.253547 2.66114
0.775533 0.298126 3.59952
0.724977 0.42144 -2.61876
0.770019 0.745991 2.76088
0.770566 0.795828 3.70544
0.76771 1.11118 -2.40029
0.778228 1.18385 -1.46459
0.781254 1.29982 -0.307151
0.775565 1.38323 0.843739
0.775124 1.44234 2.00126
0.773489 1.48898 2.93715
0.770522 1.53579 3.87896
1.4745 -0.167468 -2.85616
1.48117 -0.121089 -1.91511
1.55127 -0.128591 -0.725033
1.62048 -0.144156 0.470323
1.61005 -0.0721538 1.6608
1.58937 -0.0107208 2.60377
1.57563 0.0395959 3.54277
1.45746 0.0453253 -2.78053
1.45492 0.108649 -1.84235
1.53665 0.119917 -0.6573
1.61911 0.106484 0.530139
1.6079 0.183273 1.71566
1.58374 0.243877 2.65824
1.57153 0.292769 3.59809
1.46618 0.441609 -2.62193
1.47264 0.503302 -1.68269
1.55081 0.605088 -0.515416
1.57169 0.631944 0.650052
1.57094 0.682575 1.81781
1.56489 0.740793 2.76163
1.5623 0.791758 3.70577
1.52202 1.12411 -2.4034
1.53644 1.19564 -1.46803
1.55275 1.30226 -0.309193
1.55666 1.38111 0.84407
1.55846 1.43995 2.00316
1.5581 1.48677 2.93908
1.55631 1.53378 3.88041
-0.690167 0.285 -1.74759
-0.00123301 0.129891 -1.83011
-0.745267 0.0956437 -1.25048
-0.718737 0.44609 1.70231
0 0.167345 1.76037
-0.856712 0.11947 1.12762
-0.00121602 0.532962 -1.75296
-0.812456 0.584439 -1.09333
0 0.729167 1.85698
-0.803234 0.695375 1.23333
0.687785 0.285 -1.74766
0.743222 0.095634 -1.25029
0.719528 0.446092 1.70367
0.856539 0.119232 1.12857
0.812357 0.586368 -1.09333
0.802912 0.695463 1.23333
-0.807823 0.100723 -0.06143
-0.759898 0.355803 -0.58381
-0.000507168 0.0969605 -0.655763
-0.77095 0.36498 0.59238
-0.000274179 0.0834534 0.533473
-0.78403 0.616092 0.0700001
-0.000276358 0.783298 -0.511667
0.000419216 1.03064 0.651667
0.806796 0.100517 -0.06086
0.760356 0.356023 -0.58362
0.770879 0.365669 0.59276
0.784626 0.617907 0.0700001
-0.815752 0.320401 -1.17191
0.815825 0.320512 -1.17181
-0.00087009 0.0962783 -1.25038
-0.000746191 0.671783 -1.09333
-0.00122452 0.285 -1.83459
-0.753115 0.360391 0.00428501
0.754948 0.360846 0.00457001
-0.000390674 0.0901222 -0.061145
7.14287e-05 1.02653 0.0700001
-0.870169 0.405535 1.18048
0.870179 0.405881 1.18095
-0.00013709 0.0900543 1.12809
0.000209608 0.867068 1.23333
0 0.446091 2.00706
-0.670934 0.2 -1.7761
-0.346663 0.102333 -1.85767
-0.72423 0.0997724 -1.54774
-0.716784 0.325545 1.66714
-0.4025 0.179199 1.74823
-0.850368 0.142723 1.42488
-0.707186 0.37 -1.71687
-0.357136 0.505599 -1.7256
-0.800192 0.557156 -1.38417
-0.77733 0.566635 1.79412
-0.3825 0.704162 1.83198
-0.788301 0.695462 1.52417
0.344197 0.102323 -1.85768
0.668399 0.2 -1.77602
0.72194 0.0998015 -1.54764
0.4025 0.196857 1.73114
0.71672 0.325546 1.66793
0.850077 0.142808 1.42592
0.354704 0.504643 -1.72464
0.704823 0.37 -1.71695
0.799341 0.558535 -1.38417
0.3825 0.704164 1.83198
0.777613 0.566639 1.79468
0.788136 0.695504 1.52417
-0.762855 0.0949644 -0.953215
-0.791787 0.0998509 -0.358692
-0.77613 0.225844 -0.619882
-0.386487 0.0960408 -0.655858
-0.858293 0.10098 0.830355
-0.827795 0.0976602 0.235832
-0.824665 0.222147 0.562737
-0.424624 0.0877937 0.533283
-0.807888 0.594891 -0.8025
-0.774931 0.476449 -0.547738
-0.790101 0.607144 -0.220833
-0.420614 0.733523 -0.511667
-0.78515 0.662271 0.9425
-0.825574 0.526893 0.622023
-0.77965 0.626731 0.360833
-0.460191 0.980568 0.651667
0.761043 0.0949269 -0.95293
0.385317 0.0960378 -0.655668
0.790974 0.0992247 -0.358217
0.776061 0.225535 -0.619597
0.85798 0.100677 0.83121
0.425035 0.0857392 0.533663
0.827337 0.0970912 0.236497
0.82477 0.222148 0.563307
0.807667 0.596495 -0.8025
0.419995 0.733925 -0.511667
0.775097 0.477201 -0.547643
0.790736 0.609199 -0.220833
0.7846 0.662333 0.9425
0.460505 0.980344 0.651667
0.826995 0.528582 0.622213
0.780266 0.628364 0.360833
-0.807321 0.302701 -1.45975
-0.345696 0.285 -1.91121
-0.00105155 0.108269 -1.54025
-0.00122876 0.207445 -1.84006
-0.810518 0.208023 -1.21119
-0.373069 0.0924989 -1.25043
-0.866791 0.425812 1.44139
-0.359368 0.446091 1.94284
-6.85448e-05 0.107097 1.44423
0 0.306718 1.9575
-0.871665 0.262503 1.15405
-0.428424 0.0904616 1.12785
-0.000981108 0.631322 -1.42315
-0.00122027 0.408981 -1.94003
-0.813897 0.45242 -1.13262
-0.406601 0.659182 -1.09333
0.000104804 0.76466 1.54516
0 0.587629 1.97912
-0.865586 0.550455 1.2069
-0.401512 0.828552 1.23333
0.807356 0.302756 -1.45973
0.34328 0.285 -1.91121
0.811543 0.208073 -1.21105
0.371176 0.0924987 -1.25033
0.866537 0.425987 1.44231
0.359764 0.446092 1.94296
0.871651 0.262556 1.15476
0.428201 0.0904745 1.12833
0.814042 0.45344 -1.13257
0.405806 0.658655 -1.09333
0.865313 0.550672 1.20714
0.401561 0.828524 1.23333
-0.728272 0.256656 -0.0285725
-0.406315 0.0910064 -0.0612875
-0.815397 0.338102 -0.877858
-0.756009 0.358097 -0.289763
-0.000688629 0.0944671 -0.953073
-0.000448921 0.0905789 -0.358454
-0.761248 0.362686 0.298333
-0.880016 0.385257 0.886428
-0.000332427 0.0891898 0.236164
-0.000205634 0.0871415 0.830783
-0.770778 0.489344 0.0371425
-0.47028 0.97791 0.0700001
-0.000511275 0.689507 -0.8025
-0.000102465 0.926363 -0.220833
0.000245322 1.04081 0.360833
0.000314412 0.960951 0.9425
0.73023 0.256003 -0.028145
0.405361 0.0910031 -0.0610025
0.815462 0.338267 -0.877715
0.757977 0.358435 -0.289525
0.761849 0.363258 0.298665
0.880009 0.385775 0.886855
0.77254 0.490753 0.037285
0.470187 0.977894 0.0700001
-0.798638 0.204011 -1.50374
-0.811961 0.220313 -0.915536
-0.817125 0.465712 -0.840179
-0.811397 0.41121 -1.42196
0.80204 0.204036 -1.50369
0.811444 0.41172 -1.42195
0.817127 0.466544 -0.840108
0.814344 0.220236 -0.915323
-0.359866 0.0985047 -1.54399
0.357686 0.0985075 -1.54394
0.376539 0.0919006 -0.953001
-0.377993 0.0919011 -0.953144
-0.381869 0.612944 -1.40366
-0.403415 0.67881 -0.8025
0.402741 0.67885 -0.8025
0.380255 0.612994 -1.40366
-0.346179 0.203723 -1.92102
-0.351416 0.389491 -1.88457
0.348992 0.389491 -1.88485
0.343739 0.203723 -1.92105
-0.732674 0.251013 -0.324227
-0.731414 0.261929 0.267082
-0.775195 0.496628 0.329583
-0.772948 0.482943 -0.255298
0.734811 0.249936 -0.323871
0.774933 0.484534 -0.255179
0.825314 0.522441 0.329749
0.733257 0.261197 0.267581
-0.397391 0.0915442 -0.358573
0.396329 0.0915404 -0.358336
0.41447 0.0898266 0.23633
-0.415255 0.089829 0.235998
-0.451543 0.867908 -0.220833
-0.472193 0.993153 0.360833
0.472325 0.993077 0.360833
0.451146 0.868019 -0.220833
-0.880864 0.246158 0.858391
-0.861537 0.294024 1.43313
-0.856388 0.558545 1.48278
-0.874884 0.525301 0.914464
0.880852 0.246288 0.859033
0.874873 0.525995 0.914678
0.857005 0.558655 1.48324
0.86094 0.294051 1.43412
-0.42621 0.08599 0.830569
0.425825 0.0863415 0.830996
0.415351 0.109419 1.43508
-0.415462 0.109318 1.43455
-0.393954 0.939244 0.9425
-0.392006 0.732696 1.53466
0.39203 0.732932 1.53466
0.394398 0.939182 0.9425
-0.380934 0.316131 1.9297
0.381132 0.316132 1.92972
0.371132 0.577134 1.93762
-0.370934 0.577132 1.93739
-0.661615 0.1575 -1.79065
-0.519378 0.102424 -1.85758
-0.715235 0.100312 -1.69637
-0.746876 0.265272 1.68062
-0.60375 0.172672 1.75461
-0.833571 0.167974 1.57351
-0.713041 0.4125 -1.69886
-0.535096 0.494569 -1.71457
-0.760591 0.510045 -1.52958
-0.75451 0.626907 1.7879
-0.57375 0.700347 1.82817
-0.777037 0.691707 1.66958
0.516912 0.102416 -1.85758
0.65937 0.1575 -1.79087
0.712848 0.100337 -1.69632
0.60375 0.169821 1.75832
0.746973 0.265273 1.68172
0.833321 0.168122 1.5746
0.532664 0.494535 -1.71453
0.71051 0.4125 -1.69876
0.760025 0.511809 -1.52958
0.57375 0.700341 1.82816
0.755453 0.626912 1.78899
0.776951 0.691727 1.66958
-0.754202 0.112072 -0.804584
-0.783962 0.0992214 -0.507323
-0.770263 0.167856 -0.637918
-0.579102 0.0963306 -0.655906
-0.856864 0.0939547 0.681724
-0.839545 0.0943649 0.384463
-0.826317 0.163334 0.547915
-0.636911 0.0897397 0.533188
-0.804597 0.59911 -0.657083
-0.776054 0.533575 -0.529703
-0.795058 0.60459 -0.36625
-0.619972 0.687011 -0.511667
-0.770239 0.63985 0.797083
-0.803905 0.583359 0.636845
-0.777644 0.632236 0.50625
-0.607701 0.78994 0.651667
0.753297 0.111231 -0.804252
0.577851 0.0963311 -0.655621
0.782823 0.0988194 -0.506895
0.770211 0.167142 -0.637585
0.85954 0.09056 0.682532
[...]
POINT_DATA 3682
SCALARS point_scalars float 1
LOOKUP_TABLE default
-21.1209
-40.218
-5.72738
-39.6248
-18.5344
-39.5472
-4.59495
-39.0822
-26.8685
-26.7866
-32.3425
-42.2962
-26.9003
-26.6877
-31.577
-42.5139
92.5221
-78.8297
-44.4825
-25.9997
-45.3235
-37.7956
-32.2659
92.5221
-79.7878
-44.4825
-42.2659
-46.4366
-37.7956
-30.1219
-42.9742
-72.4187
-31.9644
-43.1368
-41.938
-37.0101
-36.9364
-8.58123
-71.8106
-32.5955
-40.39
-41.0593
-36.9364
-36.9364
96.3718
-84.6688
-28.4349
-29.9029
-42.1029
-32.2781
-29.6829
96.3718
-30.3012
-28.6359
96.3718
-29.6899
-28.9937
47.3831
-55.774
-50.5154
-59.2655
-37.0506
-30.6978
-29.0097
95.7647
-84.4999
-28.3695
-29.5803
-40.7534
-31.205
-29.2411
95.7647
-29.5586
-27.9079
95.7647
-29.3123
-28.017
44.3193
-56.8539
-50.2739
-59.1806
-36.634
-30.2987
-28.5477
91.311
-77.7183
-44.8397
-25.8997
-44.4889
-37.2706
-31.6578
91.311
-79.1418
-43.7759
-42.1252
-45.7964
-37.2706
-29.7194
91.311
-73.9865
-31.2877
-42.7276
-41.3757
-36.5253
-36.4657
-5.88638
-72.1469
-32.7289
-40.0936
-40.5337
-36.4657
-36.4657
16.3965
-159.257
-49.1873
-37.2463
-31.0365
-38.9868
-8.59713
-52.5607
-29.6541
-45.5424
25.5802
-49.0877
-36.6188
-38.4462
-52.8303
-45.2712
-23.2511
-31.5032
-33.2418
-20.8493
-32.6395
-38.2979
18.4835
-67.7568
-23.3929
-31.2392
-21.3702
-38.6631
-56.8655
-57.105
-50.9707
-28.7371
194.804
-25.2567
-25.5284
-29.9831
-92.2838
-42.3033
-41.8762
-37.7531
-40.6626
-21.7688
52.2171
-183.785
-72.7162
-38.9314
-33.9013
-46.3273
-47.2375
5.63179
-70.6553
-37.0086
-30.8861
-40.7247
-183.064
47.2543
-73.1518
-32.8785
-38.2839
-45.6595
4.35857
-42.574
-70.0475
-30.6031
-36.5076
-40.4663
-39.4771
-23.7075
-32.0514
-31.4608
-41.9786
-23.9361
-19.9507
-31.6774
-37.8046
-29.9725
-34.9852
-3.03574
-42.2713
-33.4103
-39.9861
-62.4415
-39.4796
-31.4582
-22.8514
-31.8457
-41.3724
-31.8632
-24.0838
-20.0565
-37.8078
-2.54508
-29.6157
-35.1594
-42.1924
-62.3722
-33.1774
-40.3915
-88.0474
190.947
-75.6758
203.689
-56.7841
-48.2414
-45.1023
-27.8403
-38.8312
-23.8165
-41.7902
-38.6378
-47.7389
125.577
-55.5211
-37.1729
-34.3694
-24.8814
-42.6435
-41.9862
-90.2758
189.275
-57.0779
-48.1802
-44.7545
-27.0891
-41.3409
-38.0522
-55.726
-37.2596
-42.1331
-41.8905
-24.6687
-28.5734
-42.2916
-26.5333
-40.2566
-30.8652
-23.482
-47.7102
-30.5344
-36.1228
-27.788
-71.568
-4.47843
-12.6632
-80.4549
-51.5202
-24.9099
-28.5613
-42.2967
-26.6571
-23.87
-47.1934
-27.9485
-71.8624
-77.4545
-42.8119
-42.7659
-90.5329
-78.3839
-92.2318
-42.7396
-42.9563
-70.039
-69.8888
-38.5492
-38.566
-48.1626
-16.9054
-17.0733
-48.5061
189.011
113.142
110.026
189.273
-26.2989
-23.455
-23.9358
-27.9405
-26.387
-28.0767
-28.7157
-23.7798
-29.3422
-29.3473
-29.3789
-29.4368
-22.5637
-66.9386
-67.1078
-22.2278
-47.7804
-44.7763
-44.8545
-46.2313
-47.3368
-45.7782
-44.6628
-44.4084
-36.7452
-36.4495
-40.0602
-41.7488
-51.307
-35.6409
-35.5083
-51.2283
-28.6896
-28.3935
-27.9233
-28.4692
59.8826
-91.0984
-100.695
-38.733
-36.3385
-42.6606
-23.5758
15.1415
-36.9215
-39.311
-33.1537
-38.4318
-93.1618
59.6778
-100.099
-36.6928
-38.0791
-41.9146
19.6013
-20.5262
-35.2923
-32.7514
-38.7585
-38.0748
-36.7162
-25.9759
-29.7757
-29.7793
-40.5203
-20.0129
-20.8178
-31.4493
-34.5256
-30.3606
-32.4074
-24.1205
-41.37
-39.8906
-41.3952
-49.0328
-36.681
-29.8061
-26.121
-29.7113
-40.9688
-31.7868
-20.1542
-20.8986
-34.5162
-23.9578
-29.965
-32.577
-41.162
-49.0467
-39.9575
-41.5113
39.3958
-6.60339
-74.6914
141.877
-173.116
-169.296
-105.669
109.757
-58.8417
-42.1786
-55.746
-46.7159
-38.2694
-35.8712
-47.1227
-29.3825
-32.0902
-31.701
-35.2434
-27.0983
-41.3967
-42.2433
-40.7396
-38.8092
-3.34676
-2.31632
-33.4794
50.5147
-71.1633
-43.896
-54.551
-43.2039
-29.8886
-29.7314
-32.0724
-27.15
-43.807
-46.0584
-42.6402
-43.8061
36.0026
-12.3289
-69.1365
142.08
-58.6768
-42.2082
-55.9513
-46.6939
-37.6264
-35.2653
-46.4365
-28.9829
-40.8234
-41.769
-40.2816
-38.0943
-70.7445
-43.8095
-54.6901
-43.228
-43.5327
-45.8491
-42.0833
-43.6488
-23.373
-23.01
-24.4046
-26.439
-33.0261
-30.0463
-37.9525
-27.8205
-32.7318
-32.7003
-36.489
-31.009
-19.4382
-20.1263
-21.6827
-38.4896
-32.4434
-32.4543
-31.2762
-34.8364
-36.9005
-38.9834
-32.5644
-51.0106
12.3122
12.519
7.61689
12.2165
-66.961
-66.9363
-73.551
-59.4468
-24.6749
-23.1032
-24.6703
-26.4323
-32.7604
-29.7679
-37.8292
-27.7722
-19.7459
-20.8214
-22.267
-38.3729
-37.0865
-39.3719
-34.1665
-51.3047
-72.4128
-56.6972
-56.3449
-46.6603
-73.8192
-57.3041
-56.5917
-46.7283
-60.2122
-50.0319
-49.8919
-44.9377
-36.8359
-30.0682
-30.0221
-17.4762
193.864
197.143
199.489
194.904
-24.6285
-25.8347
-24.6523
-26.6783
-24.8861
-26.0374
-24.9146
-26.9659
-29.632
-30.2234
-30.0386
-29.6177
-86.8044
-55.3893
-89.129
-86.8331
-43.6998
-42.1959
-42.2351
-43.8074
-43.2755
-41.7631
-41.8064
-43.383
-39.2089
-38.0579
-37.7799
-36.8275
-36.9858
-40.9178
-40.8833
-45.3923
-24.8523
-22.421
-23.2684
-23.7832
-96.2984
142.45
-102.231
142.24
-71.6184
-67.9606
-48.3462
-30.1166
-38.0416
-30.0392
-44.775
-44.1185
-60.7388
136.435
-41.4873
51.7297
-86.7399
-49.2747
-42.0953
-30.0748
-33.132
-29.2079
-43.0742
-37.263
-101.871
139.375
-88.9155
142.53
-74.2177
-67.7176
-36.8353
-30.0602
-47.8845
-29.3527
-44.2487
-42.6533
-41.5958
49.7392
-56.538
137.535
-87.8082
-49.3111
-32.9338
-28.7978
-41.4988
-29.7156
-42.9671
-37.0819
-42.597
-37.592
-26.677
-27.3549
-37.2897
-28.5989
-34.941
-29.2912
-45.7146
-37.8113
-23.1457
-27.9827
-20.2163
-38.8058
-30.4811
-35.1075
-41.3691
-25.5181
-37.059
-28.8635
-29.6608
-47.8932
-9.49316
-6.79312
-40.0416
-49.9861
-28.8611
-35.1583
-33.6345
-49.9609
-63.0752
-57.0862
-42.5535
-37.5921
-34.9266
-29.2931
-26.6679
-27.4112
-37.2534
-28.4082
-45.2906
-37.3701
-30.3628
-34.9891
-23.3691
-27.9253
-20.5792
-38.7795
-41.4364
-25.4919
-9.54688
-6.37912
-36.848
-28.9204
-29.8606
-47.7496
-39.7347
-49.7973
-63.2379
-57.0464
-29.6212
-34.9894
-35.8827
-50.1779
-86.687
-91.0368
189.886
181.456
-74.287
-73.7658
199.46
199.764
-73.4276
-47.1784
-56.6297
-42.626
-44.5865
-45.6179
-28.2332
-28.0764
-39.1702
-39.6538
-26.4
-25.7763
-43.1962
-43.0058
-37.3566
-41.1759
-56.7556
-56.6776
119.37
123.984
-45.4516
-72.3106
-42.4805
-25.9242
-34.632
-34.5535
-25.7994
-26.4722
-44.0137
-43.495
-45.8974
-38.4176
-86.8753
-93.3064
180.819
191.349
-74.9192
-46.9905
-56.5188
-42.5906
-45.258
-44.3071
-27.4816
-27.4068
-42.7708
-42.6016
-36.99
-40.2342
-72.7766
-45.4809
-25.9303
-42.3933
-43.1637
-43.4769
-38.3053
-45.8148
-25.3187
-23.0004
-28.766
-28.7754
-42.4303
-42.4792
-26.2143
-27.3674
-39.6356
-39.6836
-30.4854
-30.4788
-23.1264
-25.0141
-48.3455
-47.5642
-30.2421
-30.2707
-36.3027
-36.1788
-27.0352
-27.1842
-55.7859
-74.8563
-8.11431
-7.68813
-12.5236
-12.4878
-77.9321
-77.9669
-51.4886
-51.5226
-25.5031
-23.2483
-28.7678
-28.7453
-42.4359
-42.6051
-26.2744
-27.4869
-25.464
-23.4398
-47.8524
-47.091
-27.376
-26.5144
-75.0443
-55.4498
-93.2638
-72.2909
-72.8654
-95.7056
-37.844
-37.4506
-47.2321
-46.9356
-37.2121
-45.1956
-45.9555
-37.5268
-57.0602
-65.105
-72.643
-74.4565
-90.1543
-90.9433
-76.0242
-73.5172
-52.9771
-74.8047
-73.2851
-61.3555
-36.9984
-37.3902
-46.0122
-45.2126
-37.7882
-46.9994
-47.069
-37.4187
-101.612
-104.926
-58.936
-54.8496
-101.208
-54.8106
-58.6759
-103.607
-33.7664
-35.9595
-44.0951
-41.2517
-33.7747
-41.2571
-44.1726
-35.9899
-32.0373
-49.9215
-36.0143
-34.3081
-23.1982
3.05669
-20.1212
-33.2744
-22.9681
-33.2672
-19.9851
2.75616
-32.1805
-34.2891
-35.9882
-50.0407
150.203
141.422
193.786
134.528
67.3488
50.2549
194.969
146.086
65.8968
145.96
194.613
49.92
148.14
134.977
194.588
141.408
-29.938
-24.8325
-25.3457
-27.8732
-20.9213
-20.2078
-24.1377
-23.0075
-36.9382
-34.2279
-26.2717
-23.7383
-29.7883
-28.2076
-26.8751
-30.1175
-29.6633
-27.698
-25.5344
-24.9513
-29.9217
-30.2906
-27.0159
-28.1829
-36.9975
-24.4538
-26.4238
-34.2662
-21.2367
-23.2806
-24.3831
-20.6649
-28.1737
-30.4817
-29.8623
-26.9249
-28.1905
-26.9785
-29.8538
-30.4467
-29.5066
-31.0017
-29.6929
-27.0946
-29.709
-27.1155
-29.7138
-31.0355
-33.8736
-50.298
-47.9392
8.70898
-48.688
-71.686
-86.6648
-50.7439
-48.9432
-51.0269
-86.6917
-71.7085
-33.7399
8.81433
-47.427
-50.4929
-41.8384
-42.0887
-43.799
-38.9717
-46.1584
-47.3624
-43.4794
-42.5409
-41.7865
-44.5542
-43.609
-44.17
-35.4214
-39.752
-43.4313
-43.6552
-41.7096
-38.7867
-43.3726
-41.6854
-35.2901
-43.334
-43.0154
-39.5619
-41.2746
-43.4448
-43.1793
-43.9499
-45.4592
-42.0931
-43.0782
-46.8139
-35.5359
-34.855
-36.9938
-38.2883
-35.4337
-37.9122
-36.806
-34.8054
-39.3805
-35.8382
-39.4583
-40.8352
-40.4609
-41.9406
-39.8544
-36.1694
-51.7274
-46.5614
-45.4493
-58.6338
-34.892
-32.3145
-37.3283
-40.3516
-34.6397
-40.2104
-37.2804
-32.2161
-51.6485
-58.6375
-45.4154
-46.4206
-31.4983
-28.8051
-24.2762
-29.6568
-30.2124
-29.2275
-23.2728
-27.9375
-30.8142
-27.342
-24.377
-29.2049
-31.2236
-29.5584
-25.2836
-27.7389
5.48829
11.1021
-93.9419
-40.8322
-37.7033
-43.2856
-15.9333
14.4408
-36.1324
-39.7378
-35.4157
-39.2109
11.8636
6.68555
-93.3657
-37.4862
-40.1397
-42.8635
16.9893
-11.8049
-34.5393
-34.9795
-39.1921
-38.7671
-29.6038
-21.6769
-27.4293
-28.2104
-30.4761
-25.374
-25.1497
-31.6282
-33.3843
-31.8677
-32.1687
-31.5848
-41.8093
-40.2269
-42.1547
-45.8842
-29.3488
-28.323
-21.8223
-27.4209
-29.904
-31.7587
-25.3449
-24.9723
-33.0334
-31.2608
-31.2569
-31.846
-41.9183
-45.9652
-40.496
-42.2578
-12.2605
11.8494
-129.009
141.057
-163.409
-152.793
-120.739
119.278
-52.8304
-44.2517
-53.4339
-46.7394
-37.7985
-36.6609
-38.9355
-30.9088
-31.3693
-31.1587
-33.1732
-28.5875
-40.0121
-41.6744
-39.4967
-38.5422
-7.17448
-7.11297
-22.3229
25.9226
-63.7298
-47.2071
-53.5238
-49.1811
-29.683
-29.5886
-30.8179
-28.2391
-43.314
-46.3226
-44.2387
-44.8112
-9.54271
10.5414
-113.84
145.68
-52.8695
-44.3408
-53.6545
-46.7623
-37.199
-36.0751
-38.3116
-30.4937
-39.5076
-41.1627
-39.0229
-37.8663
-63.9184
-47.2332
-53.6151
-49.2692
-43.031
-46.0766
-43.8425
-44.6261
-23.7585
-24.381
-21.8271
-25.7454
-32.6251
-30.3451
-34.5576
-28.9419
-33.1289
-33.1105
-34.569
-32.1394
-19.0564
-19.7196
-20.9345
-17.8522
-32.597
-32.5881
-31.5819
-33.9913
-37.7409
-38.7896
-35.4562
-45.9509
15.6202
15.4703
13.8424
16.6421
-67.6494
-67.6456
-70.6651
-63.7155
-23.0948
-24.5894
-22.1306
-25.7759
-32.365
-30.0932
-34.3643
-28.6722
-19.4907
-20.2254
-21.497
-18.4967
-38.1915
-38.9685
-36.4606
-46.1644
-63.682
-56.5356
-56.618
-50.8596
-64.1053
-57.2734
-56.8714
-51.0502
-54.5442
-50.7521
-50.6369
-47.808
-34.1577
-29.3154
-29.1455
-22.8164
194.678
195.449
193.767
195.23
-24.8446
-25.515
-24.9533
-25.9072
-25.0918
-25.7858
-25.2195
-26.1784
-29.901
-30.0609
-29.9686
-29.8943
-92.0818
-79.4933
-89.9991
-92.0644
-42.0313
-42.3019
-42.2691
-42.7162
-41.6162
-41.8719
-41.84
-42.2968
-38.4152
-37.8676
-37.7325
-37.2767
-38.7137
-40.7721
-40.7534
-42.7811
-23.1418
-22.7178
-22.4324
-22.4062
53.0694
72.4351
-125.996
147.131
-148.022
-170.541
-121.679
94.8133
-90.6206
-64.055
-74.8441
-66.7514
-39.0388
-38.5803
-39.6684
-31.7274
-34.946
-32.7527
-35.8752
-31.7175
-45.7413
-44.168
-45.7307
-45.7995
-41.2463
-30.4022
-66.5078
103.21
9.52756
4.18471
-20.9735
30.8785
-50.7439
-72.7408
-78.4731
-50.3036
-37.879
-36.5184
-41.0794
-31.3515
-31.5972
-30.2865
-31.9829
-29.644
-39.0546
-41.1007
-41.8629
-38.6888
-148.99
-169.363
-121.593
92.8635
55.1646
66.6927
-122.382
147.643
-89.8702
-64.0875
-77.6594
-66.598
-35.0562
-32.2869
-35.6854
-31.6077
-38.3945
-37.935
-39.0224
-31.1811
-44.9339
-43.5857
-45.1709
-44.8541
11.2823
4.2293
-20.6608
29.8742
-37.0291
-32.2117
-62.6707
101.05
-51.0458
-75.238
-78.4162
-50.2773
-31.2733
-30.0426
-31.7451
-29.2792
-37.3079
-35.984
-40.5333
-30.9352
-38.7611
-40.8443
-41.6869
-38.4726
-41.8283
-39.6416
-42.5045
-37.8846
-27.1555
-24.9898
-25.7565
-26.237
-31.4797
-32.438
-32.6431
-30.4881
-30.6793
-32.1809
-32.7524
-30.3844
-46.9195
-42.5045
-44.0771
-38.8021
-24.684
-22.9009
-23.4552
-26.0997
-19.4192
-19.9921
-17.5593
-16.8927
-31.2211
-32.0976
-30.981
-33.2855
-36.1615
-41.4557
-40.0725
-31.4277
-30.3378
-29.9925
-32.7677
-29.4361
-32.8672
-35.5597
-32.5649
-42.7123
-13.2083
6.0882
-5.94958
-3.90937
-40.859
-45.0318
-39.0187
-49.7009
-37.6992
-26.3234
-28.9232
-36.3415
-40.7983
-39.3341
-37.2112
-45.9633
-54.6427
-65.3836
-62.676
-60.1763
-41.8598
-39.7003
-42.5757
-37.8872
-30.6923
-32.1586
-32.7459
-30.3835
-27.1532
-25.8503
-24.9889
-26.205
-31.3167
-32.2114
-32.5602
-30.2515
-47.1674
-42.0139
-43.4072
-38.3443
-31.5601
-32.1829
-30.7817
-33.56
-24.6974
-22.9702
-23.5852
-26.1099
-19.4946
-20.1938
-17.926
-17.1345
-36.0341
-41.3998
-40.1306
-31.4266
-13.1478
6.75404
-5.642
-3.51177
-29.9774
-29.6904
-32.5004
-29.2014
-33.0935
-35.7075
-32.7638
-42.8252
-40.751
-44.7735
-38.7739
-49.4092
-55.1715
-65.3047
-62.7458
-60.0241
-37.5852
-27.1229
-29.4347
-36.5982
-40.878
-40.0272
-37.7978
-46.1587
-73.3258
-82.5357
-87.2622
-89.8593
149.781
195.016
190.205
187.954
-88.776
-66.7914
-75.6264
-75.1215
206.591
200.414
199.355
200.356
-56.4285
-56.904
-63.9118
-51.5237
-47.3106
-49.2111
-51.6963
-45.067
-46.1343
-44.7113
-44.8268
-45.6297
-28.7609
-26.7152
-27.9421
-27.9046
-37.0736
-39.418
-38.786
-39.0048
-25.4867
-22.745
-24.8808
-24.3802
-41.4999
-42.0208
-41.9914
-41.8119
-38.9562
-38.3283
-37.9695
-39.6524
-40.5403
-42.6661
-51.8611
-51.8125
71.2138
187.592
132.31
130.587
-55.1525
-56.0838
-49.0685
-62.5048
-39.6701
-32.6031
-40.6237
-31.2209
-33.0884
-35.6192
-34.4276
-34.3909
-25.6296
-24.0885
-24.9327
-25.3637
-42.6819
-42.4099
-42.455
-43.3194
-42.9226
-41.2174
-43.7469
-40.0438
-71.0357
-84.7134
-88.3642
-92.1621
150.199
196.851
189.783
189.222
-56.7031
-57.2507
-64.1653
-51.831
-47.2823
-49.0919
-51.6157
-45.0226
-45.7621
-44.3355
-45.2487
-44.5173
-28.2368
-25.7624
-27.188
-27.1856
-41.0437
-41.5806
-41.5583
-41.3413
-38.236
-37.9045
-37.5126
-38.9552
-55.3575
-56.3109
-62.782
-49.1886
-39.6519
-32.6118
-31.1364
-40.998
-42.1188
-41.9476
-42.8667
-41.9898
-42.7931
-41.157
-39.9359
-43.6636
-24.8637
-24.4772
-24.9876
-24.0466
-27.7193
-29.1831
-28.6143
-28.6587
-42.2638
-43.8683
-42.3706
-42.3029
-27.0632
-26.1299
-26.3432
-26.9235
-38.5285
-42.4472
-40.1358
-40.1637
-30.6965
-30.5053
-30.7629
-30.7485
-22.6821
-24.2521
-23.2104
-24.1555
-51.5016
-45.7786
-47.939
-47.5301
-30.8643
-30.2455
-30.4622
-30.4757
-35.8161
-36.2986
-36.192
-36.1346
-29.0011
-27.4685
-27.3955
-27.8347
-62.6465
-80.4033
-62.2614
-76.8705
1.89141
-10.8794
-5.64231
-5.22479
1.74307
-29.3644
-12.551
-12.5375
-76.6172
-86.2659
-79.9078
-79.9184
-55.9783
-47.9502
-51.6111
-51.5957
-25.0972
-24.7268
-25.208
-24.3098
-27.7134
-29.1673
-28.6116
-28.6394
-42.2043
-43.9298
-42.2814
-42.518
-27.0227
-26.2974
-26.4171
-27.0492
-23.0879
-24.5793
-24.7127
-23.5351
-50.8673
-45.3262
-47.4321
-47.0582
-31.1246
-27.735
-27.7906
-27.6288
-63.148
-80.5058
-77.0348
-62.227
-66.5125
-70.9724
-82.0852
-87.0327
-42.6158
-43.1922
-44.0328
-42.5836
-42.027
-40.136
-43.4582
-42.7908
-74.8499
-87.2969
-91.1752
-83.5167
-61.679
-73.7425
-81.5555
-88.4595
-76.4236
-88.4506
-93.1256
-84.5276
-42.0187
-40.1158
-43.4099
-42.7566
-42.7056
-44.1666
-44.1478
-42.7434
-84.5608
-67.9745
-72.3203
-62.09
-84.3096
-67.8059
-71.9361
-61.9634
-38.0611
-37.2339
-40.4489
-39.1568
-38.0697
-37.2594
-40.4769
-39.2017
-47.4553
-48.2247
-51.2875
-46.1828
-21.1454
-12.8513
-21.2915
-12.6545
-21.2585
-13.1184
-21.3498
-12.7099
-46.7202
-48.302
-52.0095
-46.0084
148.883
172.529
188.874
200.853
132.949
72.0395
152.715
121.251
72.4584
132.441
122.888
159.25
174.635
148.957
201.58
189.003
-26.6088
-26.931
-25.739
-26.1778
-23.1466
-22.4068
-24.2459
-23.2073
-26.674
-29.8336
-25.0429
-25.6916
-28.2405
-28.1201
-27.9134
-28.2968
-26.5943
-26.9176
-25.9569
-26.2723
-28.276
-28.2983
-28.0168
-28.4191
-28.7491
-33.4014
-25.6817
-24.7447
-23.3778
-22.6849
-24.5332
-23.5318
-28.4541
-29.0918
-28.9554
-30.0058
-29.1005
-28.4823
-30.0007
-28.9627
-29.8828
-28.7956
-29.889
-29.0223
-28.8626
-29.966
-29.0645
-29.9314
-42.1123
-13.8423
-35.3163
-14.1288
-56.6891
-64.5095
-70.351
-74.2964
-64.7036
-56.9408
-74.3756
-70.5499
-13.3128
-41.5745
-14.139
-35.0888
-46.6023
-53.8784
-44.8738
-48.0817
-45.3697
-44.7623
-44.6385
-44.5249
-44.5454
-44.1258
-45.3058
-45.0872
-43.6635
-39.9601
-45.136
-46.8956
-46.2102
-53.2749
-44.4428
-47.5998
-43.2358
-39.4117
-44.7494
-46.3999
-44.1535
-44.0374
-45.0096
-44.5894
-44.9587
-44.3195
-44.3157
-44.1795
-37.182
-36.1919
-36.952
-36.4828
-36.8037
-36.0311
-36.5869
-36.2747
-38.8194
-40.1917
-39.7661
-40.7935
-40.0967
-42.914
-40.6242
-41.979
-51.3696
-54.7876
-48.5806
-51.5058
-34.3645
-36.4333
-34.9696
-36.9399
-34.2096
-36.2793
-34.8645
-36.821
-51.2416
-54.7105
-48.497
-51.4582
-29.2517
-29.297
-28.3363
-27.5921
-29.0576
-28.8788
-27.0057
-27.8025
-28.2732
-28.8829
-26.9458
-27.6973
-29.2841
-28.7519
-28.2899
-27.5938
-94.0241
149.258
-132.383
96.3718
-82.2706
-101
-43.7377
-33.8407
-37.5538
-32.6245
-44.1515
-41.919
-55.7667
52.0654
-7.27448
36.227
-47.1593
-23.8813
-42.413
-32.9185
-33.7165
-32.1803
-40.5641
-36.3328
-132.573
95.7647
-87.3505
149.151
-81.0482
-100.414
-37.6032
-31.7522
-43.0091
-33.0438
-43.4541
-41.0837
-7.52239
36.5127
-51.6173
50.0579
-43.5721
-23.1625
-33.4117
-31.7554
-41.8343
-32.4908
-40.1211
-36.0413
-37.2595
-33.2999
-28.1089
-28.0495
-32.1423
-30.5411
-31.2313
-28.8142
-40.6825
-37.0041
-17.2239
-28.8094
-20.4245
-19.1026
-30.4638
-32.8372
-36.4349
-29.9147
-32.4241
-30.2021
-31.5319
-37.7472
-22.064
-27.3126
-37.9243
-45.9428
-38.899
-38.7393
-38.9833
-45.7034
-47.3885
-50.7887
-37.2818
-33.1173
-31.2477
-28.836
-27.9152
-28.0174
-32.0406
-30.3525
-40.7061
-37.1586
-30.0554
-33.3586
-17.316
-28.6404
-20.6764
-19.284
-36.2531
-29.8445
-21.7839
-26.8949
-32.0797
-30.0858
-31.7469
-37.4942
-37.7378
-46.0392
-47.7006
-51.1097
-38.7765
-38.7256
-39.1379
-45.8625
-103.22
146.157
-92.7212
136.702
-88.1769
-68.2732
141.906
141.666
-130.62
30.5485
-129.2
32.4267
-105.879
-105.23
63.5074
56.893
-70.8032
-55.2753
-45.7222
-41.0878
-62.7251
-51.0701
-49.9338
-43.4819
-39.1846
-31.3336
-39.3786
-30.952
-47.1518
-46.9813
-29.4677
-29.46
-34.1602
-29.2261
-33.8179
-28.5848
-35.4304
-35.5961
-27.8945
-27.4947
-41.9559
-41.5311
-41.8759
-39.1419
-41.023
-41.5422
-38.5607
-40.0205
-24.0334
19.9867
-24.0352
20.0101
-33.7065
-33.7251
51.7101
50.9251
-72.1265
-57.8416
-44.9178
-39.3986
-47.9917
-63.1233
-48.1215
-38.2929
-31.0712
-28.5426
-30.9415
-28.2936
-32.1672
-32.1195
-26.9526
-27.1816
-44.085
-41.4643
-43.0192
-47.959
-42.8157
-43.6946
-44.9218
-41.9964
-103.933
147.386
-86.1423
136.24
-84.7201
-64.504
141.833
142.026
-71.5328
-55.2251
-45.8276
-41.0924
-63.001
-51.1782
-49.9704
-43.4806
-38.5417
-30.8769
-38.6862
-30.5509
-46.0781
-46.3843
-29.0474
-29.0915
-41.4679
-40.701
-41.4768
-38.7817
-40.5731
-41.054
-37.9719
-39.3298
-72.2374
-57.9051
-44.8656
-39.3508
-63.3867
-48.0303
-38.3152
-48.14
-43.728
-41.2821
-42.7456
-47.7751
-43.2222
-42.3744
-41.8634
-44.7829
-23.8586
-25.8615
-22.1423
-25.4366
-23.8378
-23.9496
-26.7195
-26.687
-33.2184
-29.7835
-33.9623
-28.9375
-37.706
-37.776
-27.7482
-28.0951
-34.0691
-31.6238
-34.0365
-31.5942
-36.3374
-36.3497
-30.9396
-30.9186
-20.1559
-17.8196
-22.6453
-24.396
-20.5411
-22.8576
-39.2607
-40.1017
-31.3426
-33.907
-31.311
-33.9006
-31.1941
-31.2094
-34.8499
-34.8248
-33.2769
-45.1566
-36.6221
-46.0458
-33.707
-33.5594
-50.5024
-50.9322
9.04487
13.0903
6.89165
13.1907
6.39878
6.94588
10.8348
10.7976
-69.7311
-62.3639
-69.7405
-62.3795
-72.7831
-72.788
-59.0651
-59.0634
-24.1298
-25.9666
-22.3043
-25.4337
-24.0001
-24.2127
-26.734
-26.6762
-33.0886
-29.5381
-33.7222
-28.6625
-37.6544
-37.572
-27.6145
-28.011
-20.9314
-18.2935
-22.799
-24.9652
-23.5546
-21.1341
-39.1286
-39.8444
-33.3854
-45.2638
-36.8791
-46.2679
-33.0777
-34.3208
-51.2022
-50.6954
-72.4887
-72.951
-63.9246
-51.2251
-50.4983
-62.8555
-47.0138
-46.2327
-74.6983
-73.7956
-64.4829
-51.6962
-63.3262
-50.6293
-46.296
-46.9454
-59.9383
-59.7347
-53.5123
-46.9244
-53.2847
-46.8218
-44.7355
-44.7814
-34.7681
-35.0837
-35.4266
-24.7202
-24.7038
-35.4055
-18.1842
-18.0901
193.454
192.996
194.239
195.603
201.254
201.251
194.219