# vtk DataFile Version 2.0
tri_press
ASCII
DATASET UNSTRUCTURED_GRID
POINTS 3682 float
-0.735 0.175 -1.9665
-0.884024 0.145 1.975
-0.735 0.595 -1.95449
-0.642121 0.925 2.075
0.735 0.175 -1.9665
0.884024 0.145 1.975
0.735 0.595 -1.95449
0.642117 0.925 2.075
-0.795051 0.154623 -0.652667
-0.834208 0.155142 0.661167
-0.780913 0.781873 -0.611327
-0.731889 0.873808 0.731837
0.794771 0.154904 -0.652667
0.834217 0.155133 0.661167
0.780921 0.781882 -0.611327
0.731888 0.87381 0.731837
-1.50238 -0.183395 -3.05198
-1.51007 -0.128325 -1.98917
-1.55253 -0.14383 -0.676091
-1.58332 -0.176728 0.631081
-1.6092 -0.192075 1.94366
-1.62243 -0.172715 3.00404
-1.63082 -0.136839 4.06892
-1.50255 0.0868326 -3.03543
-1.50833 0.164256 -1.96941
-1.55821 0.175361 -0.650631
-1.57846 0.171913 0.665511
-1.59666 0.16979 1.98373
-1.62043 0.190028 3.04452
-1.63446 0.223463 4.10845
-1.50357 0.586505 -3.01056
-1.50627 0.659908 -1.94576
-1.54058 0.796835 -0.606982
-1.49717 0.878541 0.733872
-1.44307 0.923006 2.07209
-1.54044 0.938833 3.13167
-1.60746 0.959352 4.19087
-1.51307 1.47515 -2.95121
-1.5169 1.56824 -1.88201
-1.52668 1.73103 -0.533728
-1.51927 1.87823 0.82088
-1.515 1.96984 2.16886
-1.54432 2.00948 3.23742
-1.5886 2.03506 4.29982
-0.742656 -0.17794 -3.05009
-0.738102 -0.118912 -1.98641
-0.773927 -0.152385 -0.676462
-0.801186 -0.191325 0.627373
-0.829862 -0.21204 1.93718
-0.852304 -0.187356 2.99964
-0.864025 -0.146534 4.06638
-0.746053 0.0843933 -3.03485
-0.876298 0.177551 3.0409
-0.878967 0.215366 4.10653
-0.747733 0.558335 -3.01419
-0.812919 0.936743 3.13225
-0.86761 0.956688 4.19099
-0.752619 1.45366 -2.9548
-0.754139 1.54691 -1.88596
-0.767247 1.72216 -0.53611
-0.771432 1.88034 0.821166
-0.776123 1.97512 2.1709
-0.805575 2.01369 3.23945
-0.845553 2.03756 4.3013
0.761562 -0.177898 -3.05009
0.769328 -0.118847 -1.98641
0.805727 -0.152196 -0.676462
0.842104 -0.191291 0.627373
0.863295 -0.212033 1.93718
0.767024 -0.187345 2.99964
0.70572 -0.146517 4.06638
0.746325 0.0844169 -3.03485
0.722271 0.177558 3.0409
0.673514 0.21538 4.10653
0.742805 0.55835 -3.01419
0.637871 0.936749 3.13225
0.631943 0.956701 4.19099
0.761682 1.4537 -2.9548
0.763633 1.54694 -1.88597
0.751597 1.72219 -0.53611
0.720178 1.88037 0.821166
0.685816 1.97514 2.1709
0.661588 2.01371 3.23945
0.63998 2.03758 4.3013
1.52249 -0.183296 -3.05198
1.53253 -0.128181 -1.98917
1.57952 -0.143564 -0.676091
1.62346 -0.176629 0.631081
1.63739 -0.192048 1.94366
1.56196 -0.172685 3.00404
1.49494 -0.1368 4.06892
1.50566 0.0869028 -3.03543
1.50891 0.164346 -1.96941
1.56326 0.175639 -0.650631
1.59581 0.171991 0.665511
1.60536 0.169803 1.98373
1.52001 0.19005 3.04452
1.46096 0.223496 4.10845
1.49963 0.586553 -3.01056
1.50267 0.659945 -1.94576
1.53913 0.796942 -0.606982
1.50358 0.878597 0.733872
1.43742 0.923018 2.07209
1.41546 0.938852 3.13167
1.40311 0.959382 4.19087
1.51949 1.47521 -2.95121
1.52144 1.56831 -1.88201
1.51148 1.7311 -0.533728
1.4757 1.87828 0.82088
1.43356 1.96989 2.16886
1.40969 2.00952 3.23742
1.39295 2.03511 4.29982
-0.659774 0.385 -1.88527
0 0.161857 -1.97964
-0.770727 0.15911 -1.30958
-0.805603 0.535 2.06753
0 0.141118 1.97888
-0.855861 0.153326 1.31808
0 0.687424 -2.04691
-0.838102 0.768581 -1.28291
-1.99676e-06 0.939239 2.08924
-0.710207 0.922606 1.40342
0.659823 0.385 -1.88532
0.770164 0.159673 -1.30958
0.80559 0.535 2.06752
0.855423 0.153764 1.31808
0.838136 0.768616 -1.28291
0.710208 0.92261 1.40342
-0.814241 0.155271 0.00424999
-0.827172 0.468248 -0.631997
-0.000140325 0.151184 -0.652667
-0.817058 0.514475 0.696502
4.55801e-06 0.14961 0.661167
-0.758789 0.830228 0.0602551
3.57808e-06 0.937224 -0.611327
-3.03841e-07 1.25306 0.731837
0.814249 0.155263 0.00424999
0.827184 0.468393 -0.631997
0.817058 0.514471 0.696502
0.758779 0.83022 0.0602551
-0.87837 0.426624 -1.29625
0.87837 0.426696 -1.29625
-7.01626e-05 0.158049 -1.30958
1.78904e-06 0.869716 -1.28291
0 0.385 -1.72706
-0.816363 0.491361 0.0322525
0.816377 0.491432 0.0322525
-6.78836e-05 0.150101 0.00424999
1.63712e-06 1.16249 0.0602551
-0.896455 0.524737 1.36075
0.896454 0.524736 1.36075
2.27901e-06 0.142953 1.31808
-1.1503e-06 1.05321 1.40342
-9.98378e-07 0.535 2.20542
-0.723388 0.28 -1.95189
-0.3675 0.161935 -1.97957
-0.760198 0.159721 -1.63804
-0.841092 0.34 2.01754
-0.442012 0.201972 1.91803
-0.861504 0.157601 1.64654
-0.672162 0.49 -1.89465
-0.3675 0.676479 -2.03597
-0.829754 0.724994 -1.6187
-0.694903 0.73 2.04231
-0.321062 0.93874 2.08874
-0.686366 0.934005 1.73921
0.3675 0.161936 -1.97956
0.723414 0.28 -1.95191
0.760195 0.159724 -1.63804
0.442012 0.201133 1.91887
0.841067 0.34 2.01752
0.861417 0.157689 1.64654
0.3675 0.676254 -2.03574
0.672123 0.49 -1.89462
0.829716 0.724956 -1.6187
0.321058 0.938743 2.08874
0.6949 0.73 2.04231
0.686367 0.93401 1.73921
-0.779507 0.160249 -0.981125
-0.80417 0.155423 -0.324208
-0.80001 0.316986 -0.642332
-0.397766 0.152564 -0.652667
-0.844247 0.155021 0.989625
-0.824319 0.155111 0.332708
-0.774778 0.360236 0.678834
-0.414469 0.157641 0.661167
-0.818108 0.783828 -0.947118
-0.82651 0.636295 -0.621662
-0.768376 0.804575 -0.275536
-0.428958 0.936555 -0.611327
-0.71769 0.894849 1.06763
-0.803949 0.708879 0.714169
-0.74746 0.854139 0.396046
-0.451272 1.23409 0.731837
0.779671 0.160085 -0.981125
0.397536 0.152602 -0.652667
0.804179 0.155415 -0.324208
0.799713 0.317281 -0.642332
0.844251 0.155017 0.989625
0.414785 0.157024 0.661167
0.824259 0.155172 0.332708
0.774773 0.360234 0.678834
0.818116 0.783837 -0.947118
0.428943 0.936515 -0.611327
0.826498 0.63636 -0.621662
0.768377 0.804578 -0.275536
0.717683 0.894845 1.06763
0.451406 1.23436 0.731837
0.803936 0.708872 0.714169
0.74745 0.854132 0.396046
-0.867287 0.405812 -1.59076
-0.329887 0.385 -1.75574
-3.50813e-05 0.158454 -1.64461
0 0.273428 -1.73958
-0.879608 0.292867 -1.30291
-0.385399 0.158123 -1.30958
-0.897112 0.529869 1.71414
-0.402802 0.535 2.19203
1.1395e-06 0.1426 1.64848
-4.99189e-07 0.338059 2.186
-0.898968 0.339032 1.33942
-0.427929 0.144298 1.31808
8.94519e-07 0.817177 -1.66491
0 0.536212 -2.06037
-0.876616 0.597603 -1.28958
-0.41905 0.869752 -1.28291
-1.57353e-06 0.989846 1.74633
-1.49757e-06 0.73712 2.13071
-0.847208 0.723672 1.38208
-0.355104 1.03802 1.40342
0.867279 0.405848 -1.59078
0.329911 0.385 -1.75574
0.879605 0.293185 -1.30291
0.385047 0.158126 -1.30958
0.897112 0.529868 1.71414
0.402794 0.535 2.19203
0.898962 0.33925 1.33942
0.427713 0.144083 1.31808
0.876616 0.597656 -1.28958
0.419069 0.869752 -1.28291
0.847238 0.723673 1.38208
0.355103 1.03804 1.40342
-0.769094 0.34642 0.0182513
-0.406762 0.153472 0.00424999
-0.878693 0.447436 -0.964121
-0.814428 0.479805 -0.299872
-0.000105244 0.157695 -0.981125
-0.000104104 0.150827 -0.324208
-0.817065 0.502918 0.364377
-0.81726 0.519606 1.02863
-3.16628e-05 0.149632 0.332708
3.41851e-06 0.149437 0.989625
-0.808676 0.671345 0.0462538
-0.453184 1.14394 0.0602551
2.68356e-06 0.907978 -0.947118
2.6076e-06 1.03033 -0.275536
6.66638e-07 1.2581 0.396046
-7.2707e-07 1.17891 1.06763
0.769103 0.346453 0.0182513
0.406651 0.153562 0.00424999
0.878692 0.447545 -0.964121
0.814455 0.479912 -0.299872
0.817064 0.502952 0.364377
0.817269 0.519603 1.02863
0.80867 0.671372 0.0462538
0.45311 1.14379 0.0602551
-0.866853 0.286434 -1.6144
-0.880161 0.302151 -0.972623
-0.87635 0.611332 -0.955619
-0.86244 0.543801 -1.60473
0.86684 0.286592 -1.61441
0.862431 0.543828 -1.60474
0.87634 0.611397 -0.955619
0.880159 0.302416 -0.972623
-0.376449 0.158518 -1.64133
0.376274 0.158535 -1.64133
0.391181 0.157882 -0.981125
-0.391497 0.157756 -0.981125
-0.393275 0.821314 -1.64181
-0.404752 0.908009 -0.947118
0.404765 0.908009 -0.947118
0.393284 0.821314 -1.64181
-0.348693 0.276714 -1.80795
-0.348693 0.513106 -1.73532
0.348706 0.513106 -1.7354
0.348706 0.276714 -1.80955
-0.76626 0.34085 -0.31204
-0.77226 0.353166 0.348543
-0.806408 0.69016 0.380212
-0.811138 0.650592 -0.287704
0.766298 0.340922 -0.31204
0.811133 0.65064 -0.287704
0.806393 0.690167 0.380212
0.772262 0.353181 0.348543
-0.403014 0.151517 -0.324208
0.402436 0.152396 -0.324208
0.410678 0.155372 0.332708
-0.410645 0.155498 0.332708
-0.430347 1.0188 -0.275536
-0.467856 1.22027 0.396046
0.467847 1.22025 0.396046
0.430328 1.01876 -0.275536
-0.767699 0.33692 1.00913
-0.89959 0.339516 1.68034
-0.879799 0.726836 1.72668
-0.803942 0.708907 1.04813
0.76775 0.337026 1.00913
0.803932 0.708907 1.04813
0.879749 0.726836 1.72667
0.899588 0.339625 1.68034
-0.422515 0.152845 0.989625
0.422412 0.151352 0.989625
0.434862 0.143155 1.64751
-0.434971 0.143158 1.64751
-0.360524 1.16513 1.06763
-0.338083 0.990147 1.74277
0.33808 0.990147 1.74277
0.360524 1.16513 1.06763
-0.422407 0.339029 2.1706
0.422403 0.339029 2.17055
0.361926 0.73356 2.15106
-0.361932 0.73356 2.15113
-0.729203 0.2275 -1.9592
-0.55125 0.161658 -1.97984
-0.754853 0.160106 -1.80227
-0.853468 0.2425 1.98718
-0.663018 0.141059 1.97894
-0.870259 0.153806 1.81077
-0.745538 0.5425 -1.96653
-0.55125 0.641972 -2.00146
-0.791625 0.669245 -1.78659
-0.66561 0.8275 2.05575
-0.481591 0.934836 2.08484
-0.670813 0.936072 1.9071
0.55125 0.161657 -1.97984
0.729127 0.2275 -1.95913
0.754853 0.160106 -1.80227
0.663018 0.14108 1.97892
0.853476 0.2425 1.98719
0.870284 0.153781 1.81077
0.55125 0.641974 -2.00146
0.745576 0.5425 -1.96657
0.791431 0.669051 -1.78659
0.481587 0.934826 2.08483
0.665604 0.8275 2.05575
0.670809 0.936072 1.9071
-0.784463 0.160253 -0.816896
-0.799195 0.155439 -0.488438
-0.881588 0.193776 -0.647499
-0.595758 0.154895 -0.652667
-0.839222 0.155086 0.825396
-0.829234 0.155156 0.496938
-0.736963 0.291454 0.670001
-0.625508 0.154052 0.661167
-0.801619 0.784959 -0.779222
-0.810505 0.71248 -0.616494
-0.772658 0.791237 -0.443431
-0.623271 0.895884 -0.611327
-0.721286 0.880825 0.899732
-0.77538 0.795074 0.723003
-0.741141 0.86544 0.563941
-0.614791 1.10037 0.731837
0.784446 0.160269 -0.816896
0.595583 0.154894 -0.652667
0.799136 0.155498 -0.488438
0.881587 0.19392 -0.647499
0.839229 0.155079 0.825396
0.625298 0.154483 0.661167
0.829186 0.155204 0.496938
0.736957 0.291452 0.670001
0.801465 0.784806 -0.779222
[...]
POINT_DATA 3682
SCALARS point_scalars float 1
LOOKUP_TABLE default
-83.8155
-51.625
12.5467
-41.114
-83.9459
-51.6833
12.5096
-41.1651
-35.3052
-28.1451
-35.8907
-45.0531
-35.2917
-28.1628
-35.8754
-45.0057
-34.1936
-104.174
-34.2814
-25.5227
-51.5988
-51.5988
-37.2978
-34.1936
-104.174
-38.4912
-27.7231
-53.4774
-42.0812
-36.2871
57.7494
-105.547
-41.8149
-36.6917
-56.1937
-38.0628
-36.6311
6.1823
-86.0318
-32.0955
-59.6987
-42.2922
-41.5726
-40.3612
18.8476
-124.884
-35.5178
-27.8948
-49.9283
-38.4051
-35.5305
18.8476
-36.1487
-34.5749
144.013
-35.7423
-35.376
98.2717
-73.6664
-19.3593
-74.9701
-40.8803
-40.3612
-40.3612
19.4332
-121.836
-35.3609
-27.9096
-58.9415
-36.7548
-34.7083
19.4332
-35.3779
-33.3397
146.521
-35.8207
-34.8402
91.1536
-74.3595
-19.5318
-76.3991
-40.9181
-39.8862
-36.5555
-34.452
-104.21
-34.3294
-25.5482
-51.5813
-52.335
-36.7175
-34.452
-104.21
-38.5296
-27.7461
-53.5516
-40.1351
-36.3493
57.7165
-105.904
-41.7736
-36.7441
-55.6782
-38.1343
-35.9275
6.11704
-86.0522
-31.4725
-65.8323
-42.269
-41.6247
-40.4113
37.3488
-157.61
-53.7585
-39.8272
-37.5231
-36.9726
40.8855
-55.0838
-36.2138
-49.0444
37.1734
-53.6806
-39.9075
-37.0749
-55.0882
-48.938
-29.2221
-37.607
-37.298
-29.5727
-30.1503
-39.038
-8.83672
-82.1664
-29.2371
-37.6121
-29.5987
-39.0403
-62.6894
-62.6816
-60.2991
-38.4171
197.801
-30.0342
-30.052
-30.7838
-29.2308
-43.7072
-43.7115
-33.8731
-47.2957
-29.561
11.1363
-175.575
-77.8842
-43.6881
-41.2937
-39.0557
38.2317
39.1375
-84.8889
-38.0992
-36.8148
-46.2696
-175.836
11.3133
-77.9406
-41.5577
-43.7629
-39.4085
38.6333
38.1072
-84.9402
-36.8488
-38.1729
-46.3084
-38.8866
-31.1811
-37.8708
-36.4068
-28.2477
-28.4165
-27.3078
-29.171
-47.5666
-36.7538
-34.5372
-15.6642
-44.7172
-35.5361
-42.9462
-76.3988
-38.9314
-36.4341
-31.2226
-37.8875
-28.2871
-29.2549
-28.4286
-27.3308
-47.6236
-15.6703
-36.7417
-34.5521
-44.7613
-76.4396
-35.5902
-42.9451
-92.0616
197.101
-87.5721
197.8
-61.3074
-58.2742
-48.2242
-33.3476
-35.9522
-27.5209
-44.0547
-34.1623
-53.676
195.267
-62.3261
-40.9352
-41.0723
-33.5156
-38.2395
-47.2555
-92.0612
197.117
-61.2971
-58.2896
-48.2954
-33.4569
-44.0545
-34.2037
-62.3409
-40.9224
-38.2667
-47.3225
-29.822
-30.2807
-47.7563
-30.0093
-45.1883
-32.9791
-30.2787
-25.8264
-29.9802
-31.1318
-33.2564
-39.6764
-24.6844
3.2419
-88.2576
-59.7645
-29.8351
-30.2801
-47.7653
-30.0139
-30.3036
-25.8449
-33.2816
-39.5637
-89.2978
-46.375
-48.2409
-86.1914
-89.3113
-86.1422
-48.2588
-46.3805
-84.7412
-84.773
-43.5526
-43.5424
-55.8004
-28.4699
-28.4636
-55.7564
197.438
197.018
197.037
197.46
-30.0209
-28.5481
-35.0843
-31.2208
-30.0265
-31.223
-35.1239
-28.5682
-32.3093
-32.3072
-29.4115
-29.4107
-4.67512
-68.2152
-68.1992
-4.69784
-23.1944
-44.9122
-54.2749
-32.9961
-23.2237
-33.0464
-54.3672
-44.9691
-30.7277
-30.7844
-37.7692
-37.8615
-59.9911
-41.2435
-41.2572
-60.0012
-33.7544
-33.8612
-34.7907
-34.7231
-6.36955
-168.614
-109.02
-49.9002
-48.3674
-43.4659
37.5174
30.6397
-58.6205
-38.1325
-38.2568
-43.8948
-168.357
-6.2696
-109.015
-48.4712
-49.771
-43.5499
29.5365
37.5315
-58.5659
-38.3064
-38.2022
-43.9514
-35.0526
-31.8956
-38.3712
-35.6651
-29.1349
-27.8545
-27.4966
-28.5504
-42.6769
-36.4687
-33.0743
-24.2683
-44.5516
-40.4191
-44.3366
-57.9857
-35.1103
-35.6818
-31.8847
-38.4718
-29.1636
-28.5812
-27.8654
-27.5199
-42.6221
-24.3088
-36.4504
-33.0283
-44.5542
-57.976
-40.4478
-44.3285
25.5092
38.6778
-134.081
172.301
-160.336
-160.356
-107.864
187.857
-63.5538
-45.6723
-58.3915
-56.0866
-42.022
-38.6161
-51.424
-35.5926
-39.1341
-39.1944
-36.5063
-30.8032
-37.8522
-29.7859
-41.9436
-34.6159
30.4242
30.5028
-84.0944
106.88
-56.8486
-52.9184
-60.8763
-44.596
-36.2556
-36.2677
-38.3817
-34.6681
-48.6566
-47.9969
-43.1782
-48.6898
25.5223
38.5786
-134.102
169.384
-63.6263
-45.6096
-58.3828
-56.1
-42.0876
-38.7102
-51.5481
-35.6659
-37.4779
-29.7715
-41.876
-34.6715
-56.8781
-52.9646
-60.9262
-44.5717
-48.6872
-48.0479
-43.3387
-48.7006
-30.0461
-28.7157
-29.6266
-29.8294
-38.0849
-37.0711
-45.8193
-31.8104
-37.0604
-37.0684
-40.4019
-34.8214
-28.0983
-32.2069
-30.1899
-28.1523
-30.0034
-30.0115
-29.9534
-30.5483
-37.0581
-41.0466
-35.9445
-50.622
-10.3586
-10.3702
-17.4419
1.56888
-81.8841
-81.8861
-92.5232
-69.5023
-30.0077
-28.7345
-29.6402
-29.8339
-38.0675
-37.0659
-45.8387
-31.8114
-28.1219
-32.2432
-30.216
-28.1761
-37.0599
-41.0479
-35.9602
-50.6294
-77.2411
-62.2551
-62.343
-53.2367
-77.2274
-62.2457
-62.3363
-53.2369
-72.2638
-59.8137
-59.8232
-51.5899
-47.6351
-39.062
-39.0597
-30.8822
197.605
197.85
197.719
197.614
-29.6779
-29.9533
-30.1148
-31.3171
-29.6926
-29.9645
-30.1374
-31.3402
-30.666
-31.6787
-30.2655
-30.6669
-29.0211
-7.49072
-62.8089
-29.0166
-45.9325
-44.8872
-38.3441
-21.6895
-45.9706
-44.8868
-38.3407
-21.6776
-35.0268
-34.0436
-34.0508
-31.6885
-44.159
-47.2419
-47.2277
-52.0881
-30.7508
-26.6066
-33.6517
-30.8357
-117.419
107.594
-106.468
115.08
-84.043
-80.6633
-47.7604
-36.5134
-42.7977
-35.4954
-42.9673
-37.9399
-122.182
145.528
-82.5346
109.385
-83.1432
-68.3242
-51.2189
-35.4933
-38.8047
-35.1538
-51.897
-42.8951
-106.483
107.708
-117.511
106.33
-84.0575
-80.7038
-42.8604
-35.5973
-47.8373
-36.5569
-43.0085
-37.9477
-82.3918
109.719
-122.262
145.85
-83.1686
-68.25
-38.8127
-35.2056
-51.3453
-35.5689
-51.9951
-42.9152
-44.38
-41.936
-30.1265
-31.764
-44.9923
-32.3544
-38.8307
-33.932
-23.4725
-30.4755
-28.5977
-28.9714
-28.2569
-25.6297
-29.3
-30.2444
-48.9158
-35.1464
-45.0218
-31.3735
-32.5109
-34.0029
-22.4936
-3.38067
-38.7305
-59.8202
-35.7015
-34.4006
-39.1884
-56.5114
-80.1372
-66.8495
-44.5105
-41.9522
-38.8556
-33.9271
-30.1443
-31.7617
-44.9623
-32.3584
-23.5137
-30.4791
-29.2983
-30.2196
-28.6177
-28.9734
-28.2785
-25.6563
-48.9194
-35.1043
-22.4986
-3.40722
-45.0086
-31.3577
-32.5171
-33.9877
-38.7817
-59.8347
-80.1102
-66.8443
-35.7434
-34.4564
-39.2052
-56.509
-92.2116
-90.5394
197.208
196.996
-87.7576
-86.9332
197.622
197.628
-77.4135
-51.8873
-69.7347
-49.7649
-46.4923
-50.6828
-32.9166
-34.8968
-36.4792
-36.4717
-29.8593
-29.9551
-18.0755
-43.5327
-31.469
-35.3661
-53.829
-53.8102
196.963
196.973
-53.1592
-73.5045
-49.32
-33.9972
-41.0266
-41.0322
-33.7749
-33.7362
-48.368
-32.3627
-52.1452
-43.9115
-92.2122
-90.5276
197.015
197.224
-77.4069
-51.8882
-69.7549
-49.7737
-50.7658
-46.5545
-33.0399
-34.968
-18.1278
-43.5629
-31.5264
-35.521
-73.4503
-53.1692
-33.991
-49.2489
-32.4127
-48.4274
-43.9209
-52.0925
-30.0049
-28.8123
-31.1262
-29.6948
-47.1638
-47.951
-29.9882
-30.2465
-44.7894
-44.7808
-32.8424
-32.8368
-29.2207
-32.4759
-23.5793
-28.8813
-29.8473
-29.8436
-31.0614
-31.0796
-34.2164
-32.1763
-18.3626
-61.0624
-25.5556
-25.5583
1.93493
1.92909
-83.4974
-83.4847
-59.492
-59.494
-30.0124
-28.8299
-31.092
-29.7034
-47.9625
-47.1699
-29.9946
-30.2518
-32.5081
-29.2424
-23.6007
-28.9052
-32.192
-34.2514
-61.0558
-18.3452
-105.645
-73.4972
-77.7224
-129.71
-37.894
-45.5853
-52.7048
-49.7527
-43.683
-54.3449
-53.2671
-45.4947
-101.173
-135.655
-76.6589
-67.776
-105.69
-129.785
-77.7113
-73.5266
-101.022
-67.6706
-76.6372
-135.658
-43.6666
-45.4829
-53.2712
-54.3814
-37.7299
-49.7552
-52.7035
-45.6845
-103.246
-107.504
-71.6385
-66.6854
-103.261
-66.7146
-71.4497
-107.504
-37.4353
-40.0213
-51.194
-47.965
-37.41
-47.9581
-51.1809
-40.0109
-70.2602
-52.2951
-48.1298
-81.3096
-31.2903
-18.5857
-31.5846
-39.7412
-31.34
-39.7319
-31.5849
-18.5911
-69.9538
-81.2529
-48.0931
-52.2437
56.218
138.373
197.682
194.866
97.6253
132.425
197.483
160.372
97.6015
160.668
197.492
132.686
55.6163
195.12
197.691
139.203
-32.4024
-30.4095
-29.8741
-32.1746
-28.4037
-28.9409
-29.2818
-28.6319
-40.0834
-37.5777
-31.958
-32.6564
-31.9645
-31.2938
-30.664
-34.3902
-32.4028
-32.1792
-29.8833
-30.3779
-31.9371
-34.3973
-30.679
-31.2897
-40.0978
-32.691
-31.9866
-37.6001
-28.4253
-28.6488
-29.3007
-28.9638
-33.3358
-34.6245
-31.5486
-30.6602
-33.3376
-30.6558
-31.5443
-34.6238
-28.7731
-29.8032
-30.1273
-29.3038
-28.7515
-29.291
-30.1244
-29.7985
-21.8404
-45.2778
-9.3506
0.510948
-56.9776
-89.614
-63.7436
-52.2143
-56.9931
-52.2036
-63.7536
-89.6119
-21.8193
0.49353
-9.34044
-45.5349
-24.0033
-21.0059
-20.355
-26.4222
-46.6077
-49.3751
-44.8278
-41.6694
-49.4258
-48.222
-47.3931
-52.1697
-39.8943
-30.9521
-26.0489
-38.6147
-24.106
-26.447
-20.1601
-20.959
-39.931
-38.6793
-25.9834
-30.9855
-49.5241
-52.3262
-47.4362
-48.2907
-46.662
-41.6793
-44.8625
-49.4878
-29.5131
-30.4206
-31.641
-31.1505
-29.5573
-31.2033
-31.6557
-30.4396
-40.9865
-37.3848
-35.2739
-36.0106
-41.0045
-35.9996
-35.2384
-37.339
-57.4228
-53.7219
-52.1233
-69.2642
-40.3852
-38.3888
-44.0571
-45.3609
-40.4142
-45.379
-44.0611
-38.3944
-57.4346
-69.2563
-52.1266
-53.7224
-39.0544
-31.8619
-28.7099
-35.7352
-39.0992
-35.7863
-28.8203
-31.9421
-35.7721
-34.5798
-33.9642
-36.111
-35.712
-36.0476
-33.9212
-34.5448
-40.1094
-142.944
-138.259
-55.5906
-59.6251
-45.3902
25.9632
23.6085
-43.0788
-39.4035
-39.5511
-42.1346
-142.651
-40.0959
-138.372
-60.8406
-55.4411
-45.4413
23.5813
26.0091
-43.3901
-39.6023
-39.4716
-42.1862
-35.2093
-34.6445
-35.0748
-35.2033
-26.3077
-27.3584
-28.0297
-28.1919
-40.4087
-36.2396
-33.5048
-33.0672
-45.0342
-42.4548
-44.9163
-49.5116
-35.2598
-35.2023
-34.6083
-35.1174
-26.3316
-28.2085
-27.3673
-28.0495
-40.3617
-33.1097
-36.2223
-33.476
-45.04
-49.5391
-42.4573
-44.8893
29.51
38.7806
-105.455
65.2352
-161.536
-161.492
-124.015
53.8653
-58.0835
-49.3632
-56.641
-54.5875
-40.9117
-39.1356
-46.6782
-36.3794
-37.8918
-37.9217
-36.5366
-33.0027
-37.0125
-34.0515
-40.2207
-35.0003
35.1203
35.0633
-74.6805
34.7209
-52.0676
-54.7249
-58.6084
-48.4909
-36.2913
-36.2991
-37.2126
-35.1411
-49.1461
-49.6746
-45.6546
-49.8075
29.6659
38.66
-105.467
61.382
-58.1463
-49.2195
-56.5984
-54.5663
-41.0037
-39.2158
-46.7907
-36.4369
-36.9011
-34.1081
-40.1058
-34.9932
-51.9489
-54.7782
-58.6214
-48.4751
-49.2643
-49.6691
-45.6878
-49.8262
-29.9671
-28.7203
-27.9702
-29.311
-37.8282
-37.3446
-41.9588
-33.9859
-37.2527
-37.2567
-38.674
-35.9718
-28.6213
-30.8035
-29.9697
-28.966
-30.1179
-30.1212
-30.0278
-30.3179
-37.9549
-40.1607
-37.5993
-43.312
-9.21193
-9.21825
-13.1033
-3.52578
-82.1698
-82.1705
-85.732
-76.6997
-29.98
-28.7375
-27.9904
-29.3199
-37.8309
-37.3414
-41.941
-33.9862
-28.6455
-30.8329
-29.9959
-28.9915
-37.9604
-40.1639
-37.6055
-43.3142
-68.9878
-62.4697
-62.6515
-57.1917
-68.9765
-62.4619
-62.6437
-57.188
-65.856
-60.2053
-60.2024
-55.6079
-42.9597
-38.5946
-38.5975
-34.7314
197.779
197.826
197.753
197.782
-29.8255
-29.9782
-30.0496
-30.506
-29.8415
-29.9929
-30.0709
-30.5265
-30.758
-31.1767
-30.4945
-30.7584
-29.1572
-16.0144
-46.2878
-29.1592
-45.2223
-44.4531
-40.8407
-32.4487
-45.2472
-44.4516
-40.8595
-32.4308
-34.473
-33.981
-33.9846
-32.5827
-45.5125
-47.2495
-47.2502
-49.4414
-29.8871
-27.8285
-32.8399
-29.9422
5.55661
17.7386
-84.1925
75.3954
-169.722
-164.197
-125.599
85.4906
-91.1389
-70.0945
-83.2326
-78.3169
-45.4587
-43.096
-51.5762
-37.7209
-44.7815
-40.9167
-44.6143
-38.2714
-39.3183
-37.9887
-42.0404
-37.9919
36.7214
38.8253
-96.9357
50.5181
37.0767
34.467
-66.7602
36.506
-71.348
-69.5049
-83.7012
-77.8711
-38.1812
-38.1502
-44.4745
-36.5549
-37.4049
-36.4448
-37.7146
-35.6475
-45.0342
-47.2731
-49.2293
-44.501
-169.687
-164.811
-125.597
83.8898
5.67825
17.8283
-84.2631
73.7662
-91.1773
-70.1861
-83.2661
-78.3632
-44.6174
-41.0323
-44.7745
-39.0031
-45.4797
-43.153
-51.6659
-37.792
-39.3664
-38.0538
-42.1007
-38.0281
36.6203
34.8469
-67.3717
37.0769
36.5921
38.7044
-96.9832
50.3078
-71.1635
-69.5634
-83.7326
-77.8953
-37.4494
-36.4661
-37.7415
-35.6959
-38.2476
-38.228
-44.5822
-36.6236
-45.0824
-47.3127
-49.2957
-44.5234
-37.0639
-42.3801
-41.8333
-40.7047
-30.22
-30.3513
-30.329
-31.3179
-38.6985
-38.1454
-44.8387
-34.6114
-36.2914
-36.7737
-37.4618
-34.9605
-27.7212
-28.3489
-25.1053
-29.864
-27.7085
-28.2079
-27.9146
-28.6213
-27.2179
-27.6388
-27.857
-26.5243
-28.5431
-29.7391
-29.3029
-29.696
-45.4876
-50.6856
-49.3993
-40.4183
-36.7026
-36.8683
-40.4956
-33.4201
-33.4599
-35.3908
-33.5435
-40.2118
-20.1697
-12.3526
-18.8092
-9.10938
-44.2447
-45.4319
-41.5514
-55.1701
-37.8966
-33.7383
-35.5611
-35.1336
-43.8676
-42.1285
-40.8499
-47.2272
-69.7427
-80.3468
-77.8997
-71.9325
-37.1398
-42.3439
-42.0831
-40.7382
-36.3189
-36.79
-37.4828
-35.0393
-30.2379
-30.3401
-30.4162
-31.3268
-38.7211
-38.1441
-44.8766
-34.6156
-27.7519
-28.4186
-25.1625
-29.8989
-28.6236
-29.7681
-29.2884
-29.7573
-27.7197
-28.2344
-27.9307
-28.6313
-27.241
-27.6619
-27.879
-26.5488
-45.5062
-50.7023
-49.4059
-40.4005
-20.1915
-12.365
-18.8187
-9.11058
-36.6896
-36.8603
-40.4802
-33.402
-33.4979
-35.394
-33.5467
-40.2192
-44.257
-45.4663
-41.5909
-55.2933
-69.7974
-80.3704
-77.8489
-71.9625
-37.9441
-33.7851
-35.6118
-35.1838
-43.8604
-42.1284
-40.8563
-47.2271
-102.814
-85.4287
-92.17
-91.5619
197.12
197.25
197.16
197.046
-96.6731
-79.6039
-87.4364
-87.4346
198.491
197.837
197.784
197.788
-60.6094
-61.8752
-67.913
-55.9503
-57.3287
-59.1938
-63.5519
-53.6686
-49.9214
-46.9184
-47.3106
-49.277
-34.7708
-31.9452
-32.9482
-34.7537
-36.3022
-35.5238
-36.0894
-36.072
-29.2115
-26.2435
-28.0216
-28.0806
-43.242
-44.6365
-33.7634
-43.3587
-34.8763
-34.0604
-32.657
-34.6087
-62.3352
-50.1648
-53.5754
-53.587
196.308
197.71
197.185
197.19
-62.2238
-62.2999
-57.2162
-67.353
-42.4414
-39.7656
-44.9264
-37.6408
-39.7064
-42.4999
-41.0629
-41.0656
-34.411
-33.1088
-33.5797
-33.5579
-40.297
-36.8271
-42.9158
-33.7311
-47.6584
-47.3033
-49.4825
-45.5835
-102.817
-85.4157
-92.1665
-91.5583
197.136
197.265
197.063
197.176
-60.5982
-61.8658
-67.9038
-55.9452
-57.3491
-59.205
-63.569
-53.6832
-50.0184
-46.9713
-49.3531
-47.3772
-34.8579
-32.0548
-33.0685
-34.8229
-43.2775
-44.6404
-33.7269
-43.3782
-35.1124
-34.0749
-32.6529
-34.6307
-62.2539
-62.3001
-67.3191
-57.23
-42.4239
-39.7594
-37.6279
-44.9128
-40.3637
-36.8159
-33.7774
-42.9522
-47.6693
-47.3437
-45.589
-49.4899
-30.069
-29.5353
-30.3611
-29.0233
-30.1261
-30.499
-30.6838
-29.9897
-46.5819
-50.0339
-47.4715
-47.8381
-30.5017
-29.9048
-29.9967
-30.0172
-42.559
-48.171
-45.1146
-45.1019
-33.8377
-32.2836
-32.9673
-32.9655
-30.3026
-30.214
-29.629
-31.2832
-27.0912
-23.5987
-24.3835
-27.193
-29.9268
-30.0932
-29.95
-29.9481
-30.7884
-31.5029
-31.1157
-31.122
-34.4586
-32.2297
-33.7781
-32.7367
-50.8713
-31.6562
-27.0991
-51.0192
-21.2593
-27.5759
-24.906
-24.9092
4.08557
-0.733583
3.04
3.03231
-97.186
-75.6784
-87.6765
-87.6717
-64.5187
-55.3129
-59.5691
-59.5784
-30.083
-29.5491
-30.3717
-29.039
-30.1311
-30.5026
-30.6596
-29.9965
-46.6104
-50.0382
-47.8482
-47.4793
-30.5038
-29.9129
-30.0022
-30.022
-30.3283
-30.2379
-31.3109
-29.6515
-27.1119
-23.6249
-24.4031
-27.2121
-34.4803
-32.2548
-32.7587
-33.8077
-50.8702
-31.5985
-51.0295
-27.0965
-97.488
-86.548
-90.5767
-84.6906
-45.9594
-45.1844
-48.6009
-46.8091
-48.4492
-46.9256
-50.4029
-48.1172
-94.2838
-82.8298
-88.3973
-79.3644
-97.5134
-86.5643
-90.5803
-84.6937
-94.3082
-82.7951
-88.3777
-79.3381
-48.4701
-46.9532
-50.4118
-48.1297
-45.976
-45.1761
-48.6073
-46.8127
-94.2529
-83.0816
-86.055
-76.8384
-94.2863
-83.1216
-86.0738
-76.8634
-42.8476
-41.0754
-46.4553
-44.3047
-42.8364
-41.062
-46.4462
-44.2945
-63.2559
-60.9047
-54.1416
-52.4274
-30.9732
-25.9046
-31.0761
-26.6415
-30.9531
-25.9048
-31.0684
-26.6416
-63.0426
-60.8165
-54.1187
-52.3989
185.678
197.558
197.27
197.376
196.961
188.331
196.998
197.107
188.48
197.002
197.117
197.019
197.571
186.034
197.389
197.285
-30.0823
-30.897
-29.826
-29.9017
-28.5533
-28.5493
-28.5623
-28.8293
-35.4443
-36.8371
-33.7908
-34.7047
-30.8848
-31.8527
-30.6188
-31.6342
-30.0878
-30.902
-29.8315
-29.9083
-30.877
-31.8555
-30.623
-31.6416
-35.487
-36.8695
-33.8285
-34.742
-28.5734
-28.5703
-28.5811
-28.8501
-32.0945
-33.0616
-31.6837
-32.6528
-33.0268
-32.092
-32.6383
-31.6446
-29.3761
-29.1743
-29.6644
-29.5323
-29.1942
-29.3518
-29.5426
-29.6577
-14.9689
-2.46662
-9.2787
-0.316876
-64.8604
-78.8183
-66.113
-76.248
-78.8032
-64.8659
-76.2292
-66.1186
-2.48671
-15.0216
-0.320534
-9.29759
-23.5936
-24.6192
-21.061
-23.2056
-46.0903
-43.9561
-45.6934
-44.0374
-56.5332
-53.678
-52.6858
-51.0809
-35.854
-33.6277
-32.314
-30.6993
-23.6264
-24.6483
-21.0964
-23.2309
-35.9116
-33.6861
-32.3608
-30.7368
-56.6642
-53.779
-52.7715
-51.1311
-46.1563
-44.0094
-45.752
-44.0841
-30.8069
-30.2789
-31.2414
-30.9801
-30.8645
-30.1374
-31.4121
-31.033
-40.001
-37.272
-37.152
-36.5129
-39.9665
-37.5819
-37.1574
-36.633
-60.8073
-64.5467
-55.6687
-59.5823
-39.9489
-41.8563
-41.0431
-42.5177
-39.9719
-41.8734
-41.0524
-42.529
-60.8241
-64.5523
-55.6731
-59.5867
-35.4825
-34.4817
-33.228
-31.6975
-34.5877
-35.5918
-31.8117
-33.3414
-35.4187
-35.2459
-33.9946
-34.4074
-35.1779
-35.3665
-34.3295
-33.9405
-93.4721
54.078
-125.82
-1.78991
-103.66
-103.162
-52.2121
-40.8288
-42.6468
-42.7902
-46.1229
-41.1264
-64.0318
70.6678
-39.7029
42.8723
-78.5798
-56.3897
-45.3331
-36.3832
-39.4937
-36.555
-47.4807
-41.7
-125.783
-2.25724
-93.5273
53.8774
-103.649
-103.204
-42.7959
-42.5509
-52.2801
-40.9104
-46.1771
-41.1845
-39.0799
42.564
-64.1026
70.4055
-78.5191
-56.3125
-39.5297
-36.6191
-45.4195
-36.4495
-47.563
-41.7382
-34.3961
-36.2979
-30.6827
-32.764
-37.2486
-38.2345
-36.3284
-34.384
-26.7191
-28.9957
-27.5802
-28.324
-28.0933
-25.7528
-28.6493
-29.0994
-43.4535
-37.6068
-40.3089
-33.5529
-32.3635
-34.5823
-27.9805
-19.5387
-42.4471
-48.2167
-39.9425
-40.2344
-41.8496
-48.8271
-57.2445
-56.963
-34.444
-36.3292
-36.3494
-34.3938
-30.6891
-32.7691
-37.4049
-38.216
-26.7486
-29.0229
-28.7059
-29.0851
-27.595
-28.3437
-28.1162
-25.7845
-43.4095
-37.6467
-28.019
-19.5165
-40.2942
-33.5256
-32.3402
-34.4625
-42.4633
-48.1931
-57.2623
-56.9783
-40.3733
-40.2615
-41.8521
-48.8076
-75.345
67.5611
-101.713
46.1209
-132.689
-137.903
161.17
174.468
-124.366
62.6692
-124.361
62.6528
-107.832
-107.828
187.312
185.645
-70.6382
-64.6689
-48.2023
-46.7054
-64.8449
-53.6156
-60.985
-51.6818
-49.4818
-36.6322
-44.229
-36.6979
-50.5935
-52.168
-35.5908
-35.9294
-37.4624
-34.3415
-37.5129
-34.4173
-36.7154
-36.6996
-30.9604
-31.0035
-40.4524
-36.4542
-27.1906
-30.8223
-33.166
-41.46
-32.6525
-35.3476
-70.9145
36.0062
-71.8816
35.939
-83.9807
-83.654
129.337
129.302
-63.184
-53.4484
-55.0819
-45.1799
-57.3059
-64.4118
-47.857
-42.3502
-37.2187
-35.1672
-37.2297
-35.1902
-38.386
-38.3879
-34.6201
-34.6035
-49.1227
-46.7405
-42.5194
-54.5205
-45.8058
-40.1395
-51.1235
-46.6981
-75.2908
68.4821
-101.641
43.8482
-132.74
-137.922
172.394
160.365
-70.6579
-64.7045
-48.1797
-46.6993
-64.8516
-53.6047
-61.0073
-51.6886
-49.5745
-36.6967
-44.073
-36.7574
-52.3142
-50.7143
-35.6654
-35.9943
-40.3248
-36.417
-27.1236
-30.8657
-33.08
-41.4529
-32.7065
-35.3505
-63.1607
-53.3965
-55.1519
-45.1977
-64.3016
-57.3499
-42.3315
-47.827
-49.1823
-46.7824
-42.5615
-54.3948
-40.223
-45.9111
-46.7126
-51.1297
-29.8201
-30.2754
-28.5178
-28.9375
-33.1539
-28.7707
-30.1987
-29.551
-43.6189
-34.4657
-41.3543
-33.6814
-45.9
-45.6917
-32.0237
-31.4906
-38.3561
-35.756
-38.3659
-35.7605
-40.3237
-40.318
-34.7773
-34.7781
-28.6579
-27.3053
-32.5366
-31.6869
-29.4031
-31.301
-27.0497
-29.4311
-29.8675
-30.1921
-29.8741
-30.1979
-29.9155
-29.9129
-30.5184
-30.5214
-36.0722
-43.1717
-39.3376
-45.519
-36.8347
-35.2677
-49.6433
-50.8492
-14.3826
-4.91981
-14.3899
-4.93074
-17.6983
-17.7024
1.28574
1.27821
-84.6676
-76.0461
-84.6692
-76.1575
-91.0146
-91.0133
-69.4729
-69.4886
-29.7258
-30.2725
-28.5377
-28.9499
-33.1771
-28.7859
-30.1975
-29.56
-42.8521
-34.4729
-41.3437
-33.6766
-45.6838
-45.9685
-32.0266
-31.4883
-28.6813
-27.3296
-32.5724
-31.7223
-31.3298
-29.4269
-27.0734
-29.4573
-36.0765
-43.1802
-39.3483
-45.5197
-35.2869
-36.8484
-50.835
-49.6753
-77.4787
-77.0326
-68.9941
-56.7356
-57.1271
-68.665
-52.9959
-53.3146
-77.468
-77.0172
-68.9899
-56.7299
-68.6487
-57.1275
-53.316
-52.9959
-72.1561
-72.1622
-65.2695
-55.1315
-65.2795
-54.7963
-51.5547
-51.5501
-47.5294
-47.5616
-43.4336
-35.3405
-35.3395
-43.4301
-30.9893
-30.9928
197.659
197.52
197.851
197.854
197.678
197.682
197.53
197.668