# vtk DataFile Version 2.0
tri_press
ASCII
DATASET UNSTRUCTURED_GRID
POINTS 3682 float
-0.755 0.405 -2.08125
-0.785 0.405 2.06331
-0.799237 0.945 -2.025
-0.725 1.405 1.89021
0.755 0.405 -2.08128
0.785 0.405 2.06331
0.79924 0.945 -2.025
0.725 1.405 1.89021
-0.78521 0.38479 -0.69973
-0.825957 0.354043 0.68179
-0.804339 1.12818 -0.71993
-0.757166 1.25909 0.58514
0.78521 0.38479 -0.69975
0.825979 0.354021 0.68178
0.804347 1.12819 -0.71993
0.757166 1.25909 0.58514
-1.53767 -0.0329692 -3.14055
-1.54314 0.0280152 -2.06595
-1.56519 0.00187279 -0.682449
-1.59047 -0.0563207 0.716434
-1.57741 -0.035393 2.10123
-1.57072 0.0291657 3.18217
-1.57334 0.106036 4.25137
-1.5411 0.305118 -3.1399
-1.54722 0.388438 -2.07365
-1.56924 0.397813 -0.705032
-1.58822 0.380334 0.670469
-1.56063 0.429779 2.04055
-1.56019 0.495686 3.12042
-1.56844 0.567367 4.19211
-1.56072 0.929531 -3.11715
-1.57798 1.00643 -2.04775
-1.58006 1.1485 -0.731249
-1.54386 1.26486 0.579837
-1.51328 1.38812 1.89781
-1.53509 1.44733 2.98083
-1.55771 1.49932 4.06485
-1.57515 2.00562 -3.14052
-1.5828 2.10702 -2.08256
-1.5817 2.29513 -0.790847
-1.56432 2.50044 0.48439
-1.54958 2.66957 1.7769
-1.5525 2.76168 2.83653
-1.56341 2.82599 3.9122
-0.75625 -0.0221975 -3.14548
-0.758681 0.0440504 -2.07315
-0.776906 -0.00101484 -0.681489
-0.807119 -0.0777918 0.726096
-0.798599 -0.05751 2.11812
-0.79542 0.0152385 3.19363
-0.798887 0.0982252 4.258
-0.756577 0.30721 -3.14142
-0.791477 0.486156 3.12987
-0.797561 0.562733 4.19712
-0.772625 0.904154 -3.1077
-0.772502 1.45386 2.97931
-0.791501 1.503 4.06453
-0.788619 1.98369 -3.13117
-0.796476 2.08396 -2.07227
-0.800176 2.28349 -0.784642
-0.790922 2.50308 0.483643
-0.781509 2.68046 1.77158
-0.785206 2.77254 2.83122
-0.794664 2.83424 3.90834
0.789101 -0.0221974 -3.1455
0.776065 0.0440503 -2.07317
0.795884 -0.00101738 -0.681508
0.813092 -0.0778066 0.726086
0.783824 -0.0575157 2.11812
0.764995 0.0152341 3.19363
0.754582 0.0982207 4.258
0.789004 0.30721 -3.14144
0.754757 0.486153 3.12987
0.747832 0.562729 4.19711
0.799452 0.904155 -3.10771
0.734436 1.45386 2.97931
0.738641 1.50299 4.06452
0.7864 1.98369 -3.13118
0.781116 2.08396 -2.07227
0.769202 2.28349 -0.784646
0.754499 2.50308 0.483639
0.745985 2.68045 1.77158
0.742371 2.77254 2.83121
0.739454 2.83424 3.90833
1.56649 -0.0329692 -3.14058
1.55645 0.0280151 -2.06598
1.57801 0.00186764 -0.68248
1.59929 -0.0563412 0.716415
1.57356 -0.0354073 2.10122
1.54898 0.0291555 3.18216
1.53516 0.106026 4.25136
1.56535 0.305118 -3.13993
1.54884 0.388439 -2.07369
1.57055 0.397811 -0.705061
1.59404 0.380312 0.670452
1.56404 0.429767 2.04055
1.53687 0.495677 3.12042
1.52639 0.567358 4.19211
1.57796 0.929532 -3.11717
1.57533 1.00644 -2.04777
1.57614 1.1485 -0.731261
1.54559 1.26485 0.579829
1.51513 1.38811 1.8978
1.50948 1.44732 2.98083
1.5119 1.49931 4.06485
1.57149 2.00562 -3.14053
1.56684 2.10703 -2.08257
1.55331 2.29513 -0.790858
1.53232 2.50044 0.484381
1.51715 2.66956 1.7769
1.51203 2.76168 2.83653
1.51024 2.82598 3.91219
-0.809331 0.675 -2.08534
0 0.361738 -2.12453
-0.820542 0.344458 -1.39049
-0.804445 0.905 2.02621
0 0.358274 2.11004
-0.831356 0.353644 1.37255
1.49012e-06 0.972642 -2.05264
-0.824099 1.0589 -1.37247
0 1.44075 1.92596
-0.741426 1.33239 1.23768
0.809353 0.675 -2.08537
0.820543 0.344457 -1.39052
0.804446 0.905 2.02621
0.831474 0.353526 1.37254
0.824099 1.0589 -1.37247
0.741426 1.33239 1.23768
-0.786981 0.388019 -0.00897002
-0.836635 0.756485 -0.70983
3.55614e-08 0.323961 -0.69974
-0.836626 0.806565 0.633465
1.09951e-05 0.271424 0.681785
-0.772259 1.18514 -0.067395
4.24662e-06 1.27474 -0.71993
1.43067e-07 1.58702 0.58514
0.786981 0.388019 -0.00898504
0.836635 0.756489 -0.70984
0.836626 0.806554 0.63346
0.772267 1.18515 -0.067395
-0.896665 0.715743 -1.38148
0.896665 0.715744 -1.38149
1.77807e-08 0.321334 -1.3905
2.86837e-06 1.10524 -1.37247
7.45058e-07 0.675 -2.16165
-0.836631 0.781525 -0.0381825
0.836631 0.781521 -0.03819
5.51531e-06 0.31933 -0.00897753
2.19484e-06 1.5592 -0.067395
-0.895274 0.855783 1.30511
0.895273 0.855777 1.30511
5.49753e-06 0.252445 1.37255
7.15335e-08 1.58703 1.23768
0 0.905 2.0985
-0.787118 0.54 -2.08825
-0.3775 0.366152 -2.12011
-0.809881 0.352619 -1.73587
-0.816583 0.655 2.06662
-0.3925 0.362944 2.10537
-0.806084 0.381416 1.71793
-0.789995 0.81 -2.04088
-0.399618 0.970791 -2.05079
-0.82799 1.01827 -1.69873
-0.778775 1.155 1.97226
-0.3625 1.43635 1.92156
-0.733562 1.36904 1.56394
0.3775 0.366151 -2.12012
0.787136 0.54 -2.08829
0.809875 0.352625 -1.7359
0.3925 0.362945 2.10536
0.816583 0.655 2.06662
0.806087 0.381413 1.71793
0.399621 0.970777 -2.05078
0.789994 0.81 -2.04088
0.828033 1.01831 -1.69873
0.3625 1.43636 1.92157
0.778785 1.155 1.97227
0.733562 1.36904 1.56394
-0.823243 0.344257 -1.04511
-0.786095 0.386405 -0.35435
-0.817862 0.567168 -0.70478
-0.40151 0.336566 -0.699735
-0.852155 0.330345 1.02717
-0.787906 0.389594 0.33641
-0.821055 0.585423 0.657628
-0.429715 0.27925 0.681788
-0.818683 1.09801 -1.0462
-0.834127 0.949153 -0.71488
-0.779267 1.14763 -0.393663
-0.435786 1.2687 -0.71993
-0.749294 1.29573 0.911408
-0.825484 1.04712 0.609303
-0.764982 1.22238 0.258873
-0.458123 1.58213 0.58514
0.823244 0.344256 -1.04513
0.40151 0.336565 -0.699745
0.786095 0.386405 -0.354368
0.817866 0.567168 -0.704795
0.852183 0.330317 1.02716
0.429731 0.27925 0.681783
0.787912 0.389588 0.336398
0.821055 0.585411 0.65762
0.818609 1.09793 -1.0462
0.435787 1.26869 -0.71993
0.834128 0.949156 -0.714885
0.77927 1.14763 -0.393663
0.749294 1.29573 0.911408
0.458123 1.58213 0.58514
0.825481 1.04711 0.6093
0.764987 1.22239 0.258873
-0.89628 0.695371 -1.73341
-0.404665 0.675 -2.15753
8.89035e-09 0.329103 -1.75751
3.72529e-07 0.518369 -2.17737
-0.898468 0.5301 -1.38598
-0.410271 0.323268 -1.3905
-0.836711 0.880391 1.66566
-0.402223 0.905 2.09975
2.74876e-06 0.324679 1.74129
0 0.631637 2.15389
-0.897715 0.604713 1.33883
-0.415675 0.316014 1.37255
2.17924e-06 1.06991 -1.71255
1.11759e-06 0.823821 -2.09461
-0.879758 0.887322 -1.37697
-0.412048 1.10456 -1.37247
3.57667e-08 1.58703 1.58182
0 1.17287 2.06875
-0.820999 1.09408 1.27139
-0.370713 1.58408 1.23768
0.896279 0.695372 -1.73343
0.404677 0.675 -2.15752
0.898468 0.530101 -1.386
0.410271 0.323268 -1.39051
0.83669 0.880388 1.66566
0.402223 0.905 2.09975
0.897715 0.604652 1.33883
0.41574 0.316043 1.37255
0.879768 0.887322 -1.37698
0.412051 1.10456 -1.37247
0.821003 1.09408 1.27139
0.370713 1.58408 1.23768
-0.820206 0.580572 -0.0235763
-0.402138 0.336373 -0.00897378
-0.895801 0.736114 -1.04565
-0.836632 0.769005 -0.374006
2.66711e-08 0.317706 -1.04512
2.77544e-06 0.321648 -0.354359
-0.83683 0.794045 0.297641
-0.895372 0.831174 0.969289
8.25518e-06 0.315124 0.336404
8.24629e-06 0.267703 1.02717
-0.829988 0.996105 -0.0527888
-0.477167 1.55425 -0.067395
3.55749e-06 1.12992 -1.0462
3.22073e-06 1.55277 -0.393663
1.16896e-06 1.56497 0.258873
1.073e-07 1.58702 0.911408
0.820209 0.580569 -0.0235875
0.402144 0.336373 -0.00898129
0.895802 0.736116 -1.04567
0.836633 0.769005 -0.374015
0.83683 0.794037 0.297635
0.895372 0.831165 0.969285
0.82999 0.996105 -0.0527925
0.477172 1.55425 -0.067395
-0.897956 0.53505 -1.73464
-0.897824 0.550369 -1.04538
-0.836534 0.914828 -1.04593
-0.885291 0.848661 -1.71607
0.897955 0.53505 -1.73466
0.885322 0.848661 -1.71608
0.836516 0.91483 -1.04593
0.897824 0.55037 -1.0454
-0.393886 0.334469 -1.74669
0.393886 0.334469 -1.74671
0.401438 0.323111 -1.04513
-0.401438 0.323111 -1.04512
-0.405833 1.07009 -1.70564
-0.407108 1.12927 -1.0462
0.407113 1.12927 -1.0462
0.405836 1.07009 -1.70564
-0.391083 0.529184 -2.17278
-0.402141 0.81691 -2.09056
0.402149 0.81691 -2.09056
0.391089 0.529184 -2.17281
-0.819034 0.57387 -0.364178
-0.820629 0.582998 0.317026
-0.850235 1.03286 0.278257
-0.832059 0.97263 -0.383834
0.819037 0.573868 -0.364191
0.83206 0.972631 -0.383839
0.850244 1.03286 0.278254
0.820631 0.582991 0.317016
-0.401824 0.336469 -0.354354
0.401827 0.336469 -0.354363
0.401706 0.336274 0.336401
-0.401695 0.336274 0.336407
-0.524079 1.54668 -0.393663
-0.464095 1.56109 0.258873
0.46408 1.56106 0.258873
0.524085 1.54668 -0.393663
-0.897878 0.592509 0.998229
-0.877783 0.629857 1.69179
-0.810964 1.12454 1.6148
-0.823916 1.06346 0.940348
0.897878 0.59247 0.998224
0.823919 1.06345 0.940346
0.810973 1.12454 1.6148
0.877661 0.629826 1.69179
-0.414324 0.269543 1.02717
0.414367 0.269542 1.02716
0.40412 0.335908 1.72961
-0.404088 0.33589 1.72961
-0.374648 1.58399 0.911408
-0.366606 1.58417 1.57288
0.366606 1.58417 1.57288
0.374648 1.58399 0.911408
-0.397361 0.643318 2.14503
0.397361 0.643318 2.14504
0.382361 1.16394 2.06628
-0.382361 1.16394 2.06627
-0.771783 0.4725 -2.08547
-0.56625 0.376138 -2.11012
-0.786072 0.375178 -1.90856
-0.802875 0.53 2.06705
-0.58875 0.373635 2.09468
-0.793177 0.395573 1.89062
-0.796799 0.8775 -2.03512
-0.599427 0.96446 -2.04446
-0.827618 0.995641 -1.86187
-0.752656 1.28 1.932
-0.54375 1.42817 1.91338
-0.729649 1.38739 1.72708
0.56625 0.376097 -2.11018
0.771711 0.4725 -2.08543
0.786098 0.375152 -1.90859
0.58875 0.373592 2.09472
0.802847 0.53 2.06702
0.793168 0.395582 1.89062
0.59943 0.964465 -2.04446
0.796786 0.8775 -2.03511
0.827551 0.995571 -1.86187
0.54375 1.4282 1.91341
0.752667 1.28 1.93201
0.729654 1.38739 1.72708
-0.818382 0.350368 -0.87242
-0.785652 0.385598 -0.52704
-0.801611 0.475942 -0.702255
-0.600082 0.347233 -0.699733
-0.857015 0.324235 0.85448
-0.788345 0.390405 0.5091
-0.846515 0.458228 0.669709
-0.640945 0.290429 0.681789
-0.815179 1.11676 -0.883064
-0.826016 1.04206 -0.717405
-0.790007 1.13611 -0.556796
-0.649105 1.25653 -0.71993
-0.753207 1.27739 0.748274
-0.780064 1.14747 0.597221
-0.761059 1.24072 0.422006
-0.682922 1.57117 0.58514
0.818382 0.350368 -0.872441
0.600075 0.347248 -0.699748
0.785653 0.385597 -0.527059
0.801614 0.475941 -0.702273
0.857059 0.324191 0.854471
0.640877 0.290592 0.681781
0.788353 0.390397 0.509089
0.846519 0.458215 0.6697
0.815193 1.11677 -0.883064
0.649108 1.25652 -0.71993
0.826021 1.04206 -0.717408
0.790024 1.13612 -0.556796
0.753207 1.27739 0.748274
[...]
POINT_DATA 3682
SCALARS point_scalars float 1
LOOKUP_TABLE default
-92.3415
-57.6473
-81.0507
-46.2739
-92.2056
-56.9175
-81.7721
-43.7595
-42.3043
-23.6891
-79.7118
-46.9654
-42.2092
-23.4918
-79.5033
-46.6237
-80.3781
-66.9574
-46.5555
-47.8863
-52.1879
-58.0202
-49.9155
-29.1962
-61.5831
-46.2361
-46.3653
-51.0684
-50.6023
-48.8674
-56.1739
-132.757
-65.165
-44.5411
-48.344
-48.382
-45.9917
-23.816
-81.2003
-149.255
-53.292
-49.8768
-45.8991
-45.1337
26.732
-143.357
-46.6454
-41.5761
-56.6358
-50.0527
-48.4288
117.441
-48.8674
-48.2844
155.145
-43.0341
-44.0427
-35.9709
-79.0976
-118.992
-53.292
-49.1346
-44.8678
-39.8929
26.828
-143.596
-48.4232
-41.4293
-56.8219
-49.4589
-47.7695
118.859
-48.1242
-47.7629
146.898
-40.9121
-42.3722
-36.2015
-78.9506
-113.931
-53.5406
-47.4192
-42.4397
-36.7003
-80.2825
-66.7048
-46.3705
-47.6808
-51.5217
-57.2575
-49.259
-29.3743
-61.5509
-46.1328
-46.1211
-50.3042
-49.9157
-48.2683
-55.6649
-132.74
-65.0876
-44.202
-46.6414
-46.3938
-44.8224
-26.2548
-80.8796
-149.04
-53.001
-48.0169
-42.4081
-42.4925
-57.9497
-162.467
-61.3213
-52.2462
-53.0823
-59.0526
-95.5682
-47.1492
-31.664
-46.1176
-57.4463
-61.2763
-50.9653
-58.3595
-47.0734
-45.2982
-31.8882
-43.6404
-44.1889
-36.34
-41.2741
-57.4939
38.7725
-57.8092
-31.7755
-43.515
-36.0299
-57.2328
-62.3463
-62.2701
-67.8503
-10.1389
196.156
-39.855
-39.6724
-33.6654
-84.8524
-50.4604
-49.6748
-63.1181
-46.7618
-45.6979
-90.7227
-148.033
-89.0758
-52.6972
-54.414
-56.752
-59.2967
-61.6076
-70.0506
-47.557
-36.8364
-46.355
-149.128
-90.7446
-88.9814
-53.9975
-51.7904
-56.196
-61.6407
-59.2621
-69.9713
-34.5664
-45.4127
-44.9976
-54.1128
-33.8232
-42.1266
-43.8444
-56.2382
-28.1657
-30.1612
-37.4346
-46.2912
-51.8543
-71.3354
37.4527
-46.6605
-42.8803
-50.2012
-56.1068
-54.0619
-43.8093
-33.7218
-42.0106
-56.0772
-37.3316
-28.0181
-29.863
-46.1517
37.5801
-51.7088
-71.1271
-46.141
-55.8971
-42.5316
-49.9267
-88.3876
185.652
-97.3123
167.431
-63.4253
-65.932
-53.7715
-46.7931
-51.3615
-46.6696
-53.9966
-59.123
-44.3665
177.65
-55.1773
-16.2044
-43.0666
-33.1568
-47.2625
-46.9052
-88.3464
185.821
-63.3543
-65.9102
-52.719
-46.1002
-53.3725
-58.9462
-55.1147
-16.1661
-46.4205
-46.3986
-35.1385
-32.9662
-56.7482
-41.9422
-53.8648
-37.0886
-37.435
-44.5488
-32.2087
-53.5989
-48.4672
-79.1536
14.0207
-134.817
-62.6776
-51.2157
-34.9821
-32.925
-56.649
-41.7926
-37.1957
-44.0106
-48.264
-79.0454
-95.5878
-57.7497
-51.9994
-76.1484
-95.5356
-76.0628
-51.8929
-57.6326
-93.7847
-93.7566
-53.0783
-53.1406
-47.3537
7.48614
7.54858
-47.334
169.116
173.269
173.463
169.25
-36.8296
-32.3992
-45.1435
-53.183
-36.7245
-53.0013
-44.8868
-32.2081
-36.2672
-36.2376
-30.442
-30.4865
-132.328
-57.806
-57.6475
-132.279
-53.6884
-60.2928
-48.3937
-46.0611
-53.2028
-45.5052
-47.0467
-59.3918
-56.6574
-56.5633
-50.6425
-50.8209
-50.4842
-45.7989
-44.6014
-50.2095
-47.0472
-46.5975
-36.7467
-39.4953
-93.924
-120.545
-88.398
-54.8816
-56.0624
-50.0935
-59.4326
-48.5134
-92.3951
-46.5529
-39.7158
-46.1406
-120.581
-94.0085
-88.4822
-55.4845
-54.0683
-49.489
-48.9938
-59.6783
-92.0644
-37.323
-44.1146
-44.3479
-47.1318
-35.2508
-41.627
-42.9624
-48.5126
-22.4416
-28.3894
-40.7307
-54.9138
-61.7616
-77.2437
5.07145
-46.6679
-46.3511
-48.1471
-53.6525
-47.0518
-42.9051
-35.1543
-41.5203
-48.3155
-40.544
-22.2822
-28.144
-54.736
5.23532
-61.5965
-77.0558
-46.2545
-53.3386
-46.0096
-47.8453
-87.452
-65.0837
-99.2805
158.731
-162.818
-163.53
-140.453
86.1407
-69.4484
-56.1043
-63.1847
-63.9109
-52.6355
-50.4992
-51.0286
-46.5125
-53.4804
-53.2807
-51.5954
-48.527
-54.5191
-58.81
-54.8455
-60.0922
-77.8943
-77.8148
-71.7916
125.789
-58.705
-43.2902
-53.5561
-24.5045
-33.5832
-32.168
-38.4822
-28.6675
-46.2306
-46.1999
-46.3353
-46.4958
-87.4086
-64.497
-99.3034
158.785
-69.4242
-56.0406
-63.1201
-63.8588
-51.6287
-48.7939
-49.8946
-45.714
-54.1923
-59.4209
-54.2449
-59.7844
-58.6469
-43.181
-53.4837
-24.4446
-45.1855
-45.5501
-45.4913
-45.8364
-32.8662
-30.5483
-33.9292
-32.2215
-42.3686
-46.56
-46.2287
-42.7951
-44.0884
-44.0099
-48.845
-39.8628
-33.4635
-39.6971
-36.6774
-36.7845
-41.0319
-41.0189
-32.3282
-51.347
-63.2906
-52.9138
-54.6169
-66.3727
39.3232
39.4162
24.2534
-36.5892
-57.4082
-57.2983
-62.3086
-54.1719
-32.7649
-30.417
-33.7812
-32.1603
-42.2436
-46.4307
-46.1436
-42.5338
-32.9397
-39.3578
-36.3946
-36.397
-63.0553
-52.6636
-54.3919
-66.1781
-75.8861
-63.2511
-60.8542
-56.1195
-75.8204
-63.1762
-60.7801
-56.0317
-78.2843
-67.4203
-67.4243
-60.0931
-26.6466
-11.5657
-11.548
2.73071
194.532
199.266
191.55
194.669
-37.2185
-41.174
-38.5485
-43.5575
-37.0473
-41.0086
-38.342
-43.3642
-33.528
-35.0539
-32.7468
-33.5041
-83.5576
-106.064
-71.9454
-83.5038
-53.6826
-52.6585
-49.2419
-50.9132
-52.7131
-51.9797
-48.4294
-50.2168
-52.9554
-59.5502
-59.6712
-56.4239
-44.8619
-46.8824
-46.6086
-48.8008
-46.0122
-46.2355
-41.4826
-45.5712
-74.1213
147.87
-132.647
104.511
-93.1982
-87.8646
-50.8529
-46.5924
-52.0153
-48.3808
-61.3213
-50.663
-107.955
151.435
-73.7847
116.653
-73.8912
-52.1485
-46.6345
-42.3535
-43.2941
-36.4508
-47.0237
-47.9098
-132.608
104.522
-74.0313
147.965
-92.6224
-87.8157
-51.7107
-48.0841
-50.0792
-45.9357
-60.5762
-50.3571
-73.8067
116.798
-107.898
151.644
-73.8775
-52.0452
-41.4448
-33.2079
-44.959
-40.1753
-45.6644
-46.4563
-58.2259
-52.5377
-35.5252
-35.2302
-46.0981
-38.0912
-48.4702
-38.9036
-56.3683
-60.2216
-30.8896
-28.6505
-30.4959
-31.0772
-29.3727
-53.5249
-51.3368
-5.21594
-49.3075
-53.7285
-61.1194
-108.414
17.797
-24.0384
-46.2973
-49.317
-44.4423
-43.4327
-50.0351
-53.8769
-60.6636
-52.8629
-58.1157
-52.4526
-48.4071
-38.8822
-35.402
-35.1797
-46.0178
-37.8952
-55.9868
-59.96
-29.3169
-53.435
-30.6928
-28.5801
-30.2519
-30.8249
-51.216
-5.12084
17.8802
-23.8681
-49.1878
-53.5634
-60.92
-108.221
-45.7581
-48.9308
-60.4812
-52.6262
-44.1236
-43.0037
-49.7702
-53.344
-91.9112
-83.7994
194.56
181.424
-96.6877
-96.6752
170.611
170.717
-76.6492
-57.0091
-74.2084
-58.6534
-57.2252
-50.3225
-47.3307
-44.5347
-51.1589
-51.2674
-46.914
-46.6454
-53.3806
-56.9427
-61.3151
-52.0986
-45.2393
-45.239
179.138
179.277
-50.0509
-67.8435
-31.6256
-3.55057
-44.0036
-43.3321
-33.666
-35.5401
-47.7892
-46.9669
-48.4497
-45.8638
-91.8589
-83.7087
181.61
194.735
-76.5903
-56.9247
-74.2819
-58.6399
-49.1643
-56.1949
-46.8458
-43.1625
-52.8774
-56.1893
-61.1972
-51.9284
-67.7412
-49.9615
-3.50078
-31.5937
-46.2568
-46.7386
-45.1179
-48.0847
-36.0419
-33.9465
-34.4098
-31.7201
-56.5972
-55.2265
-39.0513
-46.5603
-53.6632
-53.6966
-36.9349
-36.9034
-34.8681
-40.9377
-50.7506
-44.8907
-31.6841
-31.7034
-55.1058
-55.066
-45.9956
-51.1448
-99.9956
-66.9401
12.6935
12.7246
-133.828
-133.922
-61.561
-61.4894
-51.0655
-50.9217
-35.9029
-33.7661
-34.3733
-31.6768
-55.1051
-56.5202
-38.9128
-46.3962
-40.6892
-34.6422
-50.219
-44.3571
-50.9465
-45.7734
-66.8178
-99.8914
-71.6488
-75.5826
-76.6843
-83.2848
-46.4187
-46.1982
-56.7214
-56.7585
-54.2211
-52.0587
-54.9449
-47.448
-104.339
-108.857
-73.5919
-62.3164
-71.6176
-83.227
-76.6196
-75.5355
-104.148
-62.1937
-73.5273
-108.868
-54.0837
-47.3722
-54.8546
-51.962
-46.3445
-56.6782
-56.6351
-46.1086
-122.393
-134.738
-76.7994
-70.4853
-122.38
-70.5262
-76.7842
-134.738
-48.1841
-48.7751
-59.7467
-57.1558
-48.274
-57.1713
-59.7571
-48.8065
-77.5365
-38.743
-27.809
-71.9581
3.07803
23.225
1.3513
-13.6109
3.18863
-13.5232
1.37479
23.2672
-77.2705
-71.9802
-27.7962
-38.6669
98.9627
168.727
199.528
96.8404
117.661
134.157
191.067
151.416
117.971
151.544
191.207
134.267
99.044
96.9146
199.664
168.848
-36.7254
-34.7769
-38.2615
-39.9799
-27.5672
-33.8358
-36.0726
-32.7437
-47.4539
-51.7579
-41.8945
-40.2539
-63.3337
-46.822
-45.2494
-57.9715
-36.6106
-39.8544
-38.1084
-34.6455
-63.1544
-57.7479
-45.0709
-46.6739
-47.1603
-39.9604
-41.6784
-51.5295
-27.3479
-32.5727
-35.8765
-33.5635
-37.6556
-39.7082
-34.9593
-33.5887
-37.6068
-33.5351
-34.9371
-39.615
-25.3209
-30.9259
-32.4591
-30.6915
-25.4133
-30.762
-32.4829
-30.9456
-119.932
-80.0972
-104.898
-34.5781
-54.3309
-62.1069
-70.6907
-61.2255
-54.0788
-61.041
-70.6281
-62.0149
-119.729
-34.5008
-104.855
-79.9025
-32.4297
-54.9061
-51.8956
-31.5496
-50.2789
-51.5055
-55.8527
-57.3232
-46.2979
-46.7867
-50.2998
-49.3133
-46.2343
-40.659
-48.7373
-46.42
-32.167
-31.436
-51.2923
-54.4576
-45.8171
-45.7338
-47.9649
-40.2438
-44.5775
-47.9416
-49.2957
-45.7246
-49.5978
-56.6835
-55.0075
-50.5828
-47.2024
-51.9758
-59.3318
-62.0995
-47.2624
-61.9512
-59.2647
-51.904
-51.6862
-51.5131
-52.5996
-51.7095
-52.1239
-51.9896
-52.679
-51.6787
-49.7023
-47.7718
-48.7571
-53.8989
-46.908
-40.1178
-45.2673
-46.1872
-44.9039
-45.254
-44.8548
-39.0714
-49.303
-53.7769
-48.5631
-47.2739
-48.1594
-48.5513
-46.9659
-46.891
-47.6925
-46.2233
-46.6545
-48.3974
-37.5206
-29.2538
-41.8597
-44.083
-40.0904
-45.3163
-42.7946
-31.4685
-82.407
-104.238
-126.303
-56.61
-57.3425
-51.3715
-58.4395
-41.0709
-115.855
-46.1679
-42.3413
-44.8671
-104.056
-82.388
-126.322
-56.654
-55.809
-50.7324
-40.9889
-59.2081
-115.958
-39.8719
-43.7348
-42.8648
-47.8971
-36.601
-41.6256
-42.0167
-32.7088
-14.6554
-27.4757
-35.7812
-68.3219
-70.6483
-81.9469
-65.7682
-46.7234
-46.1362
-47.4593
-49.1937
-47.8048
-41.9418
-36.5044
-41.5203
-32.4937
-35.6414
-14.5124
-27.2525
-68.1129
-65.5016
-70.4703
-81.7674
-46.3505
-48.8152
-45.7968
-47.1419
-75.6288
-67.4013
-136.456
98.7711
-160.3
-157.546
-183.301
-16.808
-62.9583
-59.0424
-62.4751
-62.6727
-52.3912
-51.8039
-52.7108
-46.8414
-53.2169
-53.1341
-53.3347
-49.8203
-53.5377
-64.5649
-54.9079
-60.4941
-86.1758
-86.6145
-87.8746
39.018
-52.2605
-45.7815
-53.4221
-32.6113
-32.4786
-31.7082
-34.6211
-29.6328
-46.1105
-46.0948
-46.1599
-46.8866
-75.3514
-67.1244
-136.683
98.7248
-62.9219
-58.9895
-62.4256
-62.6411
-51.2721
-50.3187
-51.452
-45.9151
-53.1814
-64.0081
-54.2338
-60.1798
-52.1838
-45.6892
-53.3434
-32.5402
-45.1898
-45.3662
-45.3273
-46.1231
-32.4144
-31.3225
-32.9205
-31.7481
-42.7429
-44.9001
-45.0074
-42.9685
-44.1917
-44.1878
-46.8391
-41.6057
-34.9665
-37.9259
-36.3871
-36.3283
-42.4876
-42.5319
-32.0745
-50.9277
-59.9314
-54.8833
-57.2771
-61.7156
39.0227
39.0739
26.9217
48.9442
-57.7308
-57.6762
-59.9631
-55.8995
-32.3067
-31.2011
-32.7842
-31.6681
-42.6222
-44.7737
-44.9336
-42.8398
-34.6216
-37.601
-36.0818
-36.0295
-59.6849
-54.6317
-57.0268
-61.4613
-67.9226
-62.8893
-61.5176
-58.3598
-67.8507
-62.8136
-61.4416
-58.2781
-72.5273
-67.7468
-67.7609
-63.746
-18.3633
-10.553
-10.5278
-3.38285
195.754
203.659
189.903
195.831
-38.5225
-40.5189
-39.1785
-41.5119
-38.3446
-40.3457
-38.9859
-41.3241
-33.6493
-34.3473
-33.0599
-33.6315
-84.5442
-93.6673
-77.8773
-84.5176
-51.4327
-51.7506
-50.3479
-50.1081
-50.5927
-51.0239
-49.5214
-49.3759
-56.843
-61.0214
-60.9883
-63.0076
-45.7894
-46.8289
-46.6899
-47.7388
-45.9986
-45.798
-44.3408
-45.7907
-83.6697
-88.6906
-119.527
92.5358
-124.774
-150.478
-173.806
5.55837
-85.0408
-81.8513
-87.5961
-86.6113
-54.1296
-52.3299
-51.2704
-47.4054
-55.3705
-53.8143
-54.3376
-50.0727
-51.0542
-59.9171
-59.6215
-51.0165
-56.1269
-64.5574
-156.394
102.639
-60.6967
-74.557
-92.2252
41.9262
-75.7801
-65.8112
-74.7185
-57.1406
-46.6865
-48.9969
-46.6801
-43.5813
-38.2778
-35.242
-39.2304
-36.3831
-46.2838
-46.2465
-46.5994
-47.5863
-124.841
-150.558
-173.948
5.52429
-83.7142
-88.6632
-119.439
92.5439
-84.9652
-81.8505
-88.1474
-86.5689
-54.8629
-53.4972
-54.0042
-49.6843
-53.3048
-51.3491
-50.41
-46.6065
-50.4724
-59.4613
-58.9559
-50.6457
-60.8674
-73.8349
-92.3495
41.9911
-56.2032
-64.3072
-156.388
102.745
-75.7409
-65.8116
-74.715
-57.0094
-35.9316
-33.2133
-37.1875
-33.6138
-44.4425
-47.0559
-44.7857
-41.7711
-44.7256
-45.0589
-45.2362
-46.1159
-50.5169
-54.243
-58.7361
-52.2481
-34.4492
-33.3258
-34.465
-34.4195
-41.6996
-42.2228
-44.6934
-39.1364
-43.5335
-44.0891
-46.8966
-40.7371
-59.6716
-56.3841
-57.2002
-56.5598
-25.9894
-29.5691
-29.6399
-27.7757
-29.3831
-31.298
-30.0813
-31.8858
-38.627
-38.8345
-27.5307
-51.4034
-47.893
-43.9247
-52.8398
-18.4716
-55.7984
-48.7567
-50.2328
-53.1079
-74.4101
-67.1248
-67.2749
-83.4612
31.0377
39.2729
20.8663
50.4977
-46.6685
-46.2901
-46.0931
-48.8749
-45.3517
-41.3963
-43.1892
-43.0781
-49.0928
-51.3995
-49.9758
-52.8066
-55.5002
-56.8521
-58.1216
-54.3917
-50.4354
-54.1689
-58.63
-52.1721
-43.4849
-44.0685
-46.8553
-40.713
-34.3494
-33.2275
-34.3458
-34.3519
-41.5928
-42.099
-44.5761
-39.0276
-59.4963
-56.2901
-56.9071
-56.3786
-38.4256
-38.7322
-27.286
-51.3017
-25.8321
-29.4302
-29.4588
-27.6778
-29.1057
-30.9467
-29.8077
-31.5822
-47.7346
-43.8235
-52.7043
-18.3682
31.1877
39.3715
20.9567
50.7889
-55.643
-48.6209
-50.1006
-52.9515
-74.2129
-66.9046
-67.0678
-83.2534
-46.2039
-45.7127
-45.5694
-48.4004
-55.2453
-56.6897
-57.9278
-54.1685
-45.0061
-41.0483
-42.8321
-42.6933
-48.807
-51.1369
-49.7084
-52.4885
-79.7704
-88.0498
-89.7466
-86.4265
177.236
192.107
196.837
178.687
-112.197
-86.5184
-96.9196
-96.9239
133.875
187.771
170.167
170.228
-63.3132
-63.5931
-68.8711
-59.4151
-65.2351
-66.8943
-69.5666
-61.951
-50.9902
-58.5687
-56.2456
-51.9798
-46.7547
-46.4593
-47.1291
-46.2605
-51.2001
-51.8864
-51.2859
-51.3396
-48.1322
-46.0456
-46.9652
-46.8254
-54.5433
-53.3994
-53.5146
-55.0463
-59.9938
-59.5252
-64.2912
-54.4645
-56.1588
-35.3567
-44.5226
-44.5234
156.219
187.196
179.122
179.196
-52.6243
-59.2041
-52.2908
-59.9837
-19.7813
-13.5296
-23.7061
-9.40418
-41.6347
-43.9242
-43.4112
-43.0685
-30.0113
-36.8505
-33.0636
-34.0623
-46.6209
-48.0621
-47.3486
-47.0063
-46.8066
-46.9262
-47.6043
-46.3077
-79.7746
-87.9806
-89.695
-86.3613
177.369
192.278
178.862
197.017
-63.2447
-63.529
-68.8064
-59.3374
-65.1485
-66.8913
-69.5587
-61.9586
-49.9396
-57.6674
-50.8847
-55.2016
-46
-45.8469
-46.5695
-45.3653
-53.9239
-52.7316
-52.9237
-54.3564
-59.7385
-59.083
-64.1463
-54.3023
-52.5642
-59.1342
-59.9175
-52.215
-19.7339
-13.491
-9.36205
-23.6725
-45.7704
-47.238
-46.2309
-46.4128
-46.2116
-46.5274
-45.6961
-47.1776
-34.3691
-36.0919
-35.6177
-34.5893
-32.5938
-33.324
-33.6476
-32.3329
-50.9693
-55.1858
-56.7534
-55.7754
-42.3831
-41.4213
-40.4584
-44.0267
-51.188
-56.7937
-53.8088
-53.8289
-38.334
-36.0112
-37.0261
-37.016
-37.0806
-37.9172
-36.1894
-38.9963
-36.073
-50.8638
-46.9362
-45.0959
-32.1564
-32.4067
-32.0765
-32.078
-52.5485
-52.9762
-54.1363
-54.1058
-51.1503
-46.0011
-47.2049
-49.7964
-74.6069
-81.8728
-87.493
-72.5644
19.7508
8.8959
13.7414
13.7572
-131.367
-122.096
-134.537
-134.571
-62.2614
-66.9586
-62.4288
-62.3942
-52.6094
-49.9524
-51.19
-51.1176
-34.219
-35.928
-35.4706
-34.4219
-32.5403
-33.2935
-33.6085
-32.2908
-50.8383
-55.092
-55.6653
-56.6656
-42.2402
-41.2647
-40.3138
-43.8703
-36.8208
-37.6956
-38.7522
-35.9551
-35.6282
-50.23
-46.4124
-44.5523
-50.9427
-45.8022
-49.5948
-46.995
-74.4721
-81.7913
-72.4509
-87.3871
-66.6248
-95.0702
-94.0946
-89.2822
-57.8897
-51.7942
-56.2054
-57.3914
-50.8419
-49.9226
-51.444
-53.6472
-82.0923
-72.9576
-80.8069
-75.4276
-66.5678
-95.0191
-94.0469
-89.2309
-81.9989
-72.9297
-80.7072
-75.3846
-50.7297
-49.7914
-51.3478
-53.5199
-57.7457
-51.6903
-56.1113
-57.3146
-108.449
-91.3641
-96.0885
-82.2094
-108.436
-91.3089
-96.0698
-82.1913
-52.6936
-50.6761
-55.7709
-53.3493
-52.7725
-50.7319
-55.8285
-53.4515
-58.6257
-49.5069
-46.1367
-39.2848
2.71006
12.8009
2.27018
10.7199
2.78803
12.8726
2.326
10.7668
-58.6234
-49.4584
-46.1319
-39.265
165.651
140
186.549
172.311
166.071
160.053
179.411
178.394
160.25
166.267
178.573
179.602
140.085
165.781
172.445
186.71
-36.0434
-37.294
-36.4341
-37.825
-31.4231
-31.4754
-33.2269
-33.5682
-46.4868
-48.732
-42.2108
-43.3735
-53.7589
-56.6689
-49.6572
-52.2726
-35.9201
-37.172
-36.2919
-37.6928
-53.5859
-56.4778
-49.4844
-52.0818
-46.2253
-48.469
-41.96
-43.1405
-31.2241
-31.2509
-33.0338
-33.3506
-35.7994
-37.4718
-35.2642
-36.6299
-37.4469
-35.7622
-36.6033
-35.2302
-29.8458
-29.5405
-31.1992
-31.062
-29.5987
-29.8954
-31.1057
-31.23
-126.668
-120.445
-117.487
-135.075
-54.3014
-59.1185
-61.9033
-60.1897
-58.9408
-54.0046
-60.0784
-61.7684
-120.366
-126.516
-135.491
-117.389
-55.1742
-42.906
-53.3515
-52.2702
-54.1204
-61.1932
-58.8383
-61.1634
-49.0037
-47.3593
-49.1016
-48.2358
-47.0991
-44.3297
-46.5327
-45.2706
-54.7327
-42.544
-52.8473
-51.7585
-46.5396
-43.8423
-45.9097
-44.7275
-47.4507
-45.9893
-47.8611
-47.043
-53.3878
-60.3745
-57.8391
-60.3227
-58.0265
-54.7064
-58.6212
-55.9387
-57.8609
-54.6354
-58.512
-55.8845
-50.798
-49.9133
-50.9665
-51.0871
-51.0553
-50.092
-51.1234
-51.2625
-50.0323
-51.5853
-49.4125
-50.8349
-45.4332
-46.7951
-44.7841
-45.6105
-43.8975
-45.4258
-43.8229
-44.6794
-49.7034
-51.3329
-49.0972
-50.6227
-46.8718
-47.8543
-46.8379
-47.1354
-47.5703
-46.3244
-46.7779
-46.2976
-34.3116
-38.5035
-34.9602
-39.8794
-41.076
-37.4948
-41.9249
-37.4857
-117.348
60.1546
-156.881
37.4718
-76.842
-114.745
-50.7235
-49.3261
-55.7116
-50.46
-50.2437
-50.8541
-147.799
97.2383
-85.5752
67.3242
-103.993
-82.1781
-45.8792
-41.6797
-42.8694
-39.6208
-46.0484
-48.7828
-156.764
37.4993
-117.239
60.1441
-76.9069
-114.711
-55.219
-49.8996
-50.0108
-48.7006
-49.5733
-50.3774
-85.6413
67.4701
-147.672
97.3381
-103.707
-82.0796
-40.4823
-37.1688
-43.9018
-39.4849
-44.3002
-46.6247
-46.7029
-48.8262
-35.7023
-36.3589
-45.9431
-38.0683
-46.1557
-39.4545
-38.2127
-57.0364
-25.3322
-22.0392
-23.4287
-32.3576
-22.747
-54.0022
-59.7135
-21.1777
-57.9689
-63.733
-70.2693
-115.066
7.7444
-24.7601
-45.798
-48.5213
-47.2291
-46.0338
-47.4502
-50.4665
-52.7659
-53.3089
-46.6151
-48.7513
-46.0911
-39.4047
-35.5918
-36.2898
-45.8361
-37.9611
-37.9993
-56.9476
-22.6463
-53.7411
-25.1336
-21.9281
-23.2177
-32.0918
-59.5585
-21.023
7.86566
-25.724
-57.816
-63.5614
-70.0823
-114.897
-45.3838
-48.0718
-52.4757
-52.9532
-46.9131
-45.658
-47.1554
-50.1259
-126.571
103.548
-149.962
100.432
-89.8437
-104.387
166.017
147.525
-179.637
-8.55739
-179.697
-8.56234
-139.549
-139.587
91.7495
91.801
-73.5138
-67.7806
-56.4388
-56.6007
-68.0271
-59.4605
-66.8575
-60.2571
-52.7449
-47.7453
-51.4968
-45.7449
-51.364
-50.225
-46.7721
-46.1453
-53.0584
-49.9412
-52.8905
-49.742
-51.3946
-51.5968
-48.5898
-48.5118
-57.063
-52.147
-56.5462
-61.0987
-55.2254
-55.4063
-67.6257
-53.7335
-88.3656
24.6285
-88.4152
25.7601
-71.7032
-71.7089
129.27
129.271
-61.5152
-45.6272
-52.0016
-23.6369
-52.2217
-56.7054
-31.4291
-18.4166
-36.181
-32.0879
-35.0166
-30.1725
-39.0508
-38.5089
-28.4905
-29.6805
-46.462
-46.1069
-46.1007
-46.5858
-46.5728
-46.1507
-47.1317
-46.4028
-126.537
103.652
-150.156
100.501
-89.8406
-104.413
147.58
166.109
-73.4831
-67.784
-56.3704
-56.5483
-67.9706
-59.3466
-66.8572
-60.2577
-51.7249
-46.9718
-49.8979
-44.5377
-48.9669
-50.3404
-46.0638
-45.2017
-56.5423
-51.8423
-56.4313
-60.9456
-54.6474
-54.8038
-67.4532
-53.4558
-61.4375
-45.5572
-51.9023
-23.5204
-56.5384
-52.1361
-18.3619
-31.3746
-45.423
-45.0688
-45.4374
-45.9956
-45.3924
-45.6303
-45.6133
-46.5628
-33.742
-32.9644
-31.5941
-30.3223
-34.3924
-33.3911
-32.8977
-31.523
-44.3533
-40.8352
-46.5606
-46.7954
-46.0731
-46.6743
-41.2366
-44.4938
-47.0307
-41.2714
-46.9959
-41.4258
-48.8125
-48.8331
-39.8089
-39.8116
-33.5325
-33.6158
-39.8015
-39.9242
-35.3415
-38.3314
-33.2562
-38.7829
-28.805
-53.252
-28.8023
-53.1951
-31.6801
-31.679
-51.175
-51.1132
-62.173
-69.8054
-53.029
-56.4181
-52.8475
-56.3222
-70.7024
-63.6402
26.0193
51.6377
26.0668
51.7378
24.1043
24.1262
-36.0698
-36.1411
-59.5265
-55.5756
-59.4261
-55.4608
-62.318
-62.2718
-54.1299
-54.0679
-33.6212
-32.8934
-31.4377
-30.2322
-34.2534
-33.2322
-32.8422
-31.4587
-44.2456
-40.7164
-46.4465
-46.6556
-46.5699
-45.9988
-41.1056
-44.3524
-33.2251
-33.3871
-39.4815
-39.558
-38.0427
-35.0619
-32.9851
-38.3884
-61.9354
-69.58
-52.7876
-56.1395
-56.0822
-52.6305
-63.4448
-70.5048
-76.3103
-74.6393
-68.677
-59.2214
-57.0642
-66.001
-56.4556
-55.7225
-76.2446
-74.5734
-68.6063
-59.1409
-65.933
-56.9835
-55.6385
-56.3684
-77.6412
-77.596
-71.4844
-63.3694
-71.488
-63.3641
-60.0052
-60.0087
-26.9332
-26.9271
-19.5686
-4.81083
-4.79107
-19.5626
2.52624
2.53749
202.642
189.188
202.173
202.255