# vtk DataFile Version 2.0
tet_velo
ASCII
DATASET UNSTRUCTURED_GRID
POINTS 29498 float
-0.60551 0.165 -1.875
-0.725 0.305 1.84566
-0.625 0.483993 -1.795
-0.765 0.715 1.81449
0.605 0.165 -1.87497
0.725 0.305 1.84566
0.625 0.483691 -1.795
0.765 0.715 1.81446
-0.70378 0.153227 -0.63478
-0.794039 0.149464 0.60544
-0.781524 0.670853 -0.591837
-0.817002 0.736667 0.611327
0.703437 0.15323 -0.63476
0.793083 0.150251 0.60545
0.777522 0.666649 -0.591847
0.816186 0.73575 0.611307
-1.34523 -0.134668 -2.87127
-1.34462 -0.078047 -1.89394
-1.43667 -0.0854364 -0.652766
-1.53158 -0.089236 0.595873
-1.52262 0.0120875 1.83768
-1.50761 0.0803195 2.81809
-1.5038 0.1281 3.7928
-1.33572 0.0786216 -2.8446
-1.33518 0.157007 -1.87132
-1.45248 0.171863 -0.637352
-1.552 0.164676 0.599955
-1.5148 0.25706 1.83463
-1.50075 0.322939 2.81452
-1.50075 0.37097 3.79044
-1.34616 0.468888 -2.78086
-1.36042 0.545774 -1.80604
-1.50596 0.67738 -0.597328
-1.57892 0.717756 0.608756
-1.54322 0.722797 1.81817
-1.51678 0.785828 2.79958
-1.50834 0.846355 3.78147
-1.39355 1.16676 -2.7131
-1.41482 1.25742 -1.74383
-1.48368 1.39467 -0.54714
-1.5429 1.48377 0.641564
-1.5548 1.51754 1.83864
-1.54239 1.54788 2.80871
-1.52828 1.59185 3.78656
-0.654132 -0.130845 -2.87366
-0.630443 -0.0711223 -1.89743
-0.692501 -0.0945364 -0.652295
-0.771124 -0.0989815 0.600557
-0.76135 0.0369959 1.84587
-0.745669 0.0980286 2.82364
-0.742181 0.137177 3.79601
-0.648783 0.0754429 -2.84534
-0.732536 0.341155 2.81909
-0.736613 0.379382 3.79286
-0.654151 0.442798 -2.77627
-0.744645 0.787532 2.79884
-0.740884 0.848612 3.78131
-0.673671 1.14963 -2.70857
-0.678915 1.24162 -1.73884
-0.727038 1.39198 -0.544133
-0.775113 1.48855 0.641198
-0.78612 1.51828 1.83605
-0.774481 1.54648 2.80613
-0.761816 1.5907 3.78468
0.661939 -0.131388 -2.87364
0.666726 -0.0713948 -1.8974
0.731416 -0.0946459 -0.652278
0.77385 -0.0985633 0.600565
0.733474 0.0371249 1.84587
0.756496 0.0980383 2.82364
0.771921 0.137094 3.79601
0.641318 0.0749439 -2.84532
0.765127 0.341152 2.81909
0.778582 0.379297 3.79285
0.652618 0.442067 -2.77626
0.778393 0.787458 2.79882
0.784091 0.848462 3.7813
0.738038 1.14827 -2.70857
0.760626 1.24 -1.73884
0.779204 1.3902 -0.544139
0.774703 1.48739 0.641187
0.764686 1.51767 1.83604
0.767138 1.54604 2.80612
0.772673 1.59031 3.78467
1.34364 -0.136067 -2.87125
1.35403 -0.0793035 -1.89391
1.44977 -0.0863244 -0.652742
1.53027 -0.08905 0.595882
1.51038 0.0122793 1.83768
1.51724 0.0802872 2.81808
1.52998 0.127882 3.79279
1.32031 0.0771469 -2.84458
1.31999 0.15541 -1.87129
1.44163 0.170337 -0.637331
1.54775 0.164865 0.599959
1.5171 0.257284 1.83462
1.52435 0.322907 2.8145
1.53647 0.370748 3.79042
1.3368 0.466939 -2.78084
1.34818 0.543154 -1.80603
1.49294 0.672981 -0.597332
1.57325 0.716413 0.608735
1.54595 0.722638 1.81814
1.5414 0.78561 2.79956
1.54512 0.845997 3.78145
1.44505 1.16406 -2.7131
1.47586 1.2543 -1.74383
1.52144 1.39142 -0.54715
1.54189 1.48157 0.641545
1.5387 1.51629 1.83861
1.53727 1.54696 2.80869
1.53878 1.59103 3.78654
-0.605408 0.324497 -1.82515
-0.000254989 0.174205 -1.86578
-0.660148 0.15361 -1.25489
-0.770667 0.51 1.85574
0 0.27386 1.8768
-0.784228 0.202524 1.22555
0 0.536422 -1.84758
-0.801411 0.675572 -1.19342
0 0.797294 1.89677
-0.835982 0.770814 1.21291
0.605029 0.324346 -1.82501
0.659623 0.15371 -1.25487
0.770506 0.51 1.85557
0.784081 0.202586 1.22556
0.80158 0.67549 -1.19342
0.836011 0.770793 1.21288
-0.751244 0.149011 -0.01467
-0.808381 0.41204 -0.613308
-0.000171512 0.141443 -0.63477
-0.862785 0.443065 0.608383
-0.000478147 0.141542 0.605445
-0.796095 0.700591 0.009745
-0.00200111 0.942539 -0.591842
-0.000408003 0.983765 0.611317
0.750991 0.149009 -0.014655
0.804059 0.40994 -0.613303
0.862815 0.443 0.608378
0.791917 0.696263 0.00973004
-0.807518 0.368268 -1.22415
-0.82832 0.427553 -0.00246251
-0.885041 0.476533 1.21923
-0.000213251 0.141037 -1.25488
-0.00032483 0.141509 -0.0146625
-0.000239074 0.163431 1.22555
-0.000127494 0.324421 -2.02701
0 0.51 1.99838
-0.00100056 0.724619 -1.19342
-0.00120456 1.04839 0.00973752
-0.000204001 0.852151 1.2129
0.807549 0.367143 -1.22414
0.824736 0.42647 -0.00246248
0.885034 0.4765 1.21922
-0.970345 0.161003 -1.87316
-0.617977 0.0469389 -1.88621
-0.627147 0.120221 -2.36017
-1.1199 0.28103 1.84015
-0.743175 0.170998 1.84576
-0.728768 0.323078 2.33238
-0.99271 0.514884 -1.80052
-0.639575 0.463395 -2.28564
-0.651957 0.862807 -1.76692
-1.15411 0.718899 1.81633
-0.754823 0.751266 2.30666
-0.77556 1.11664 1.82527
0.635863 0.0468026 -1.88619
0.623159 0.119972 -2.36014
0.962495 0.160205 -1.87313
0.729237 0.171062 1.84576
0.745064 0.323076 2.33237
1.12105 0.281142 1.84014
0.638809 0.462879 -2.28563
0.692813 0.861845 -1.76692
0.986592 0.513423 -1.80051
0.771696 0.751229 2.30664
0.764843 1.11633 1.82525
1.15547 0.718819 1.8163
-1.07813 0.162545 -0.636066
-0.69814 0.0293453 -0.643538
-1.17302 0.15707 0.602698
-0.782581 0.0252414 0.602999
-1.14374 0.674117 -0.594582
-0.754281 1.03142 -0.567985
-1.19796 0.727211 0.610041
-0.796058 1.11261 0.626262
0.717426 0.0292921 -0.643519
1.07253 0.161783 -0.636045
0.783466 0.0258437 0.603008
1.17042 0.157558 0.602705
0.778363 1.02843 -0.567993
1.13523 0.669815 -0.594589
0.795444 1.11157 0.626247
1.19472 0.726082 0.610021
-1.34493 -0.106357 -2.38261
-1.34048 -0.028023 -2.85794
-0.999683 -0.132756 -2.87247
-1.39064 -0.0817417 -1.27335
-1.3399 0.0394799 -1.88263
-0.987531 -0.0745846 -1.89569
-1.48412 -0.0873362 -0.0284464
-1.44457 0.0432134 -0.645059
-1.06458 -0.0899864 -0.65253
-1.5271 -0.0385743 1.21678
-1.54179 0.03772 0.597914
-1.15135 -0.0941088 0.598215
-1.51511 0.0462035 2.32788
-1.51871 0.134574 1.83616
-1.14198 0.0245417 1.84177
-1.50571 0.10421 3.30544
-1.50418 0.201629 2.8163
-1.12664 0.089174 2.82086
-1.50228 0.249535 3.79162
-1.12299 0.132638 3.7944
-1.33545 0.117814 -2.35796
-1.34094 0.273755 -2.81273
-0.992251 0.0770323 -2.84497
-1.39383 0.164435 -1.25434
-1.3478 0.35139 -1.83868
-1.50224 0.16827 -0.0186983
-1.47922 0.424622 -0.61734
-1.5334 0.210868 1.21729
-1.56546 0.441216 0.604356
-1.50778 0.29 2.32458
-1.52901 0.489928 1.8264
-1.50075 0.346955 3.30248
-1.50876 0.554384 2.80705
-1.11664 0.332047 2.81681
-1.50455 0.608662 3.78595
-1.11868 0.375176 3.79165
-1.35329 0.507331 -2.29345
-1.36986 0.817825 -2.74698
-1.00015 0.455843 -2.77856
-1.43319 0.611577 -1.20168
-1.38762 0.901597 -1.77493
-1.54244 0.697568 0.00571418
-1.49482 1.03602 -0.572234
-1.56107 0.720277 1.21346
-1.56091 1.10076 0.62516
-1.53 0.754313 2.30888
-1.54901 1.12017 1.82841
-1.51256 0.816092 3.29053
-1.52958 1.16685 2.80415
-1.13071 0.78668 2.79921
-1.51831 1.2191 3.78402
-1.12461 0.847484 3.78139
-1.40419 1.21209 -2.22846
-1.03361 1.1582 -2.71083
-1.44925 1.32604 -1.14549
-1.04687 1.24952 -1.74133
-1.51329 1.43922 0.0472119
-1.10536 1.39333 -0.545637
-1.54885 1.50065 1.2401
-1.15901 1.48616 0.641381
-1.5486 1.53271 2.32368
-1.17046 1.51791 1.83735
-1.53534 1.56986 3.29763
-1.15844 1.54718 2.80742
-1.14505 1.59128 3.78562
-0.642288 -0.100984 -2.38554
-0.651458 -0.027701 -2.8595
0.00390376 -0.131116 -2.87365
-0.661472 -0.0828293 -1.27486
0.0181411 -0.0712585 -1.89742
-0.731812 -0.0967589 -0.0258691
0.0194576 -0.0945911 -0.652287
-0.766237 -0.0309928 1.22321
0.00136303 -0.0987724 0.600561
-0.75351 0.0675123 2.33475
-0.0139383 0.0370604 1.84587
-0.743925 0.117603 3.30983
-0.739102 0.219592 2.82137
0.00541351 0.0980335 2.82364
-0.739397 0.258279 3.79443
0.0148698 0.137135 3.79601
-0.651467 0.25912 -2.8108
-0.00373263 0.0751934 -2.84533
-0.734574 0.360268 3.30598
-0.73859 0.564343 2.80897
0.0162959 0.341154 2.81909
-0.738748 0.613997 3.78708
0.0209845 0.379339 3.79285
-0.663911 0.796214 -2.74242
-0.000766457 0.442433 -2.77627
-0.742765 0.818072 3.29007
-0.759563 1.167 2.80248
0.0168737 0.787495 2.79883
-0.75135 1.21966 3.783
0.0216035 0.848537 3.7813
-0.676293 1.19563 -2.2237
0.0321834 1.14895 -2.70857
-0.702976 1.3168 -1.14149
0.0408557 1.24081 -1.73884
-0.751076 1.44027 0.0485324
0.0260829 1.39109 -0.544136
-0.780617 1.50342 1.23863
-0.000205316 1.48797 0.641193
-0.780301 1.53238 2.32109
-0.0107171 1.51798 1.83605
-0.768149 1.56859 3.29541
-0.00367165 1.54626 2.80612
0.00542845 1.59051 3.78468
0.664333 -0.101391 -2.38552
0.651629 -0.028222 -2.85948
1.00279 -0.133728 -2.87244
0.699071 -0.0830203 -1.27484
1.01038 -0.0753491 -1.89566
0.752633 -0.0966046 -0.0258566
1.09059 -0.0904851 -0.65251
0.753662 -0.0307192 1.22322
1.15206 -0.0938067 0.598224
0.744985 0.0675816 2.33475
1.12193 0.0247021 1.84177
0.764208 0.117566 3.30982
0.760812 0.219595 2.82136
1.13687 0.0891627 2.82086
0.775251 0.258196 3.79443
1.15095 0.132488 3.7944
0.646968 0.258506 -2.81079
0.980814 0.0760454 -2.84495
0.771855 0.360224 3.30597
0.77176 0.564305 2.80895
1.14474 0.33203 2.8168
0.781336 0.613879 3.78707
1.15753 0.375022 3.79164
0.695328 0.795169 -2.74242
0.994709 0.454503 -2.77855
0.781242 0.81796 3.29006
0.772765 1.16675 2.80247
1.1599 0.786534 2.79919
0.778382 1.21939 3.78298
1.1646 0.847229 3.78138
0.749332 1.19413 -2.2237
1.09155 1.15617 -2.71083
0.769915 1.3151 -1.14149
1.11824 1.24715 -1.74134
0.776953 1.43879 0.0485242
1.15032 1.39081 -0.545644
0.769694 1.50253 1.23861
1.1583 1.48448 0.641366
0.765912 1.53185 2.32108
1.15169 1.51698 1.83733
0.769905 1.56817 3.29539
1.15221 1.5465 2.8074
1.15573 1.59067 3.7856
1.34884 -0.107685 -2.38258
1.33198 -0.0294602 -2.85791
1.4019 -0.0828139 -1.27333
1.33701 0.0380533 -1.8826
1.49002 -0.0876872 -0.0284299
1.4457 0.0420062 -0.645036
1.52033 -0.0383854 1.21678
1.53901 0.0379076 0.59792
1.51381 0.0462832 2.32788
1.51374 0.134781 1.83615
1.52361 0.104085 3.30543
1.52079 0.201597 2.81629
1.53323 0.249315 3.7916
1.32015 0.116278 -2.35793
1.32856 0.272043 -2.81271
1.38081 0.162873 -1.25431
1.33409 0.349282 -1.83866
1.49469 0.167601 -0.0186858
1.46729 0.421659 -0.617331
1.53242 0.211074 1.21729
1.5605 0.440639 0.604347
1.52072 0.290095 2.32456
1.53152 0.489961 1.82638
1.53041 0.346827 3.30246
1.53287 0.554259 2.80703
1.54079 0.608373 3.78594
1.34249 0.505047 -2.29343
1.39093 0.815501 -2.74697
1.42056 0.608067 -1.20168
[...]
POINT_DATA 29498
VECTORS point_vectors float
-6.70897 -7.99589 14.1599
0.0343256 0.0779116 0.230825
-1.63326 1.02407 3.05522
0.0667812 -0.0913246 0.374782
6.67348 -8.05435 14.0499
-0.0343088 0.079347 0.234362
1.69878 0.984373 3.11724
-0.0646343 -0.0918639 0.370627
0 0 0
-0.000691347 -0.000637639 0.0451391
0.0619886 0.0684893 0.46834
0.0532678 0.143963 0.72947
0 0 0
0.00144594 -0.000749112 0.0752119
-0.0344328 0.0392205 0.311289
-0.0466429 0.133665 0.68608
-0.507831 -0.217611 19.7666
-1.27021 -0.682061 20.1573
-0.576602 -0.421883 21.0563
-0.110544 -0.154574 21.1572
0.503559 0.0802374 21.1029
0.745686 0.138126 20.7885
0.63825 0.0192275 20.5955
-0.593088 -0.163575 19.691
-1.64945 -0.541059 20.0754
-0.715065 -0.393507 21.1076
-0.176905 -0.185143 21.2011
0.615565 -0.0192782 21.2112
0.842364 0.00211598 20.8268
0.695252 -0.134307 20.8882
-0.680292 0.00414868 19.6395
-1.86405 0.0353116 20.0398
-0.95089 -0.129046 21.0828
-0.2924 -0.104733 21.2276
0.509095 -0.219188 21.1995
0.73636 -0.333321 20.788
0.539411 -0.271749 20.721
-0.556711 0.285709 19.7902
-1.07071 0.600013 20.1598
-0.827014 0.348547 20.9229
-0.250575 0.0489091 21.1079
0.17721 -0.244764 20.9835
0.287108 -0.335079 20.8561
0.299202 -0.327783 20.5969
-0.479998 -0.471281 19.2807
-2.03727 -3.7366 19.6645
-0.248359 -0.398565 20.2791
0.193021 -0.234411 19.3984
0.594165 1.29357 14.8013
0.992785 1.35654 14.9751
0.907485 0.81733 15.5077
-0.571742 -0.390017 19.0651
1.19705 0.981968 8.45924
1.29886 0.596292 11.9736
-0.737434 -0.00589422 18.7783
1.17548 -0.75364 10.5087
0.821838 -0.846346 14.4933
-0.552356 0.646776 19.2413
-1.38839 2.0517 19.6392
-1.42893 1.51089 21.2604
-0.301428 0.268285 21.5735
0.149717 -0.509956 21.2239
0.287533 -0.690319 20.7978
0.130111 -0.631727 20.3722
0.480539 -0.466253 19.2906
2.12299 -3.43533 19.6581
0.242539 -0.408724 20.4587
-0.190118 -0.233172 19.3991
-0.508652 1.28448 14.2604
-1.02457 1.32602 15.1343
-0.937174 0.783029 15.7327
0.568348 -0.390763 19.0617
-1.27313 0.95318 9.43244
-1.27483 0.534032 12.9385
0.737682 -0.00550244 18.7752
-1.23046 -0.726329 11.4441
-0.813138 -0.813986 14.9779
0.566 0.607065 19.3008
1.44311 1.83067 19.719
1.41789 1.35323 21.2459
0.302351 0.275378 21.574
-0.14354 -0.515971 21.2245
-0.285443 -0.691697 20.8058
-0.137978 -0.626632 20.3766
0.510173 -0.218804 19.7657
1.25887 -0.668603 20.1621
0.573832 -0.409979 21.0458
0.115471 -0.156503 21.1541
-0.51507 0.0852592 21.1238
-0.736618 0.150947 20.7778
-0.598235 0.0212316 20.6849
0.593958 -0.166548 19.6865
1.68643 -0.569367 20.0598
0.713717 -0.39725 21.1176
0.180285 -0.188917 21.1995
-0.61082 -0.0242116 21.2118
-0.809112 -0.00506241 20.8127
-0.643859 -0.129858 21.0202
0.685384 0.00408072 19.6302
1.90829 0.0349016 20.0282
0.953239 -0.139228 21.0938
0.297358 -0.105661 21.2274
-0.506202 -0.218914 21.1998
-0.711954 -0.320983 20.7915
-0.501568 -0.269898 20.8026
0.549376 0.272726 19.8131
1.03053 0.540976 20.1829
0.793192 0.313132 20.9053
0.252547 0.0490323 21.108
-0.178509 -0.249928 20.9813
-0.287606 -0.33379 20.8592
-0.304563 -0.327941 20.5865
0 0 0
5.09126e-05 -0.0156059 0.0991712
-0.00582065 -0.000421193 0.145682
0.0114458 0.00402792 0.0692864
-0.000186185 0.000103415 0.00120139
0.0179814 0.0144953 0.464389
-0.000288001 0.155346 0.289429
-0.386451 0.00400061 1.47264
-0.000745619 0.00148218 0.0297925
0.015208 0.0250801 0.286876
0 0 0
0.00551993 -0.000377056 0.146504
-0.0111245 0.00490613 0.0695321
-0.0176673 0.0142535 0.457886
0.371383 0.0186614 1.43412
-0.015501 0.0255573 0.287633
-0.00735643 0.0494213 1.54095
0 0 0
0 0 0
-1.24642e-17 -1.43855e-17 1.64454e-16
5.24739e-08 -1.59875e-08 4.363e-05
0.144152 0.265031 1.27132
0.000100466 0.0243685 0.0778345
-2.28628e-05 -0.00427019 0.0183188
0.0881692 0.120871 1.17902
0 0 0
0 0 0
-0.1007 0.200594 0.918939
0 0 0
-0.00773567 0.0206428 0.327436
0 0 0
-3.13827e-07 -9.48523e-07 7.49938e-05
0 0 0
-1.24804e-05 0.000463304 0.0145545
5.48816e-05 -0.101529 0.0472442
0 0 0
0 0 0
-8.97019e-05 0.00352411 0.0720117
0 0 0
0 0 0
0.0050543 0.0126948 0.226942
0 0 0
-3.14226 -1.55056 19.474
-3.20815 -5.6266 18.8594
-1.58233 -1.25322 18.0027
1.18601 0.21496 19.4843
0.147163 1.14414 6.55009
0.458155 0.902048 5.09538
-3.80826 0.31271 19.3203
-2.24172 0.244878 17.1802
-2.90703 3.33682 18.7078
1.00865 -0.360256 20.3787
0.625837 -0.591718 6.60658
0.582921 -0.735658 19.5541
3.25604 -5.3184 18.9355
1.57971 -1.26016 17.9892
3.18719 -1.60337 19.4511
-0.0680685 1.09411 6.19316
-0.52349 0.901688 5.56498
-1.18775 0.208534 19.4807
2.24309 0.244583 17.1734
2.96075 3.06425 18.8121
3.87936 0.326031 19.2861
-0.695247 -0.588632 7.1054
-0.598507 -0.720206 19.3479
-1.00245 -0.3648 20.4172
-0.622122 -0.735025 21.3456
-0.289744 0.00477842 13.5548
-0.350961 -0.429027 21.2725
0.64101 -0.515301 14.4754
-1.38816 -0.484185 21.4784
-2.93607 1.35331 21.5527
-0.503351 -0.126335 21.3095
-0.396313 0.334263 20.756
0.30622 0.0080624 14.1695
0.602849 -0.71308 21.3239
-0.653745 -0.508975 14.3653
0.354662 -0.43249 21.2165
2.86451 1.18677 21.5544
1.35936 -0.516408 21.4535
0.393343 0.35793 20.7217
0.517496 -0.126099 21.2889
-0.871071 -0.421224 19.8054
-0.558691 -0.196819 19.7221
-0.546368 -0.334179 19.553
-1.03279 -0.65219 20.8493
-1.43208 -0.62003 20.1271
-1.84672 -1.57078 19.9406
-0.318238 -0.269402 21.0868
-0.651954 -0.414013 21.079
-0.47535 -0.613788 21.305
0.180051 -0.0295361 21.25
-0.144467 -0.182805 21.1714
-0.0974951 -0.335547 21.3697
0.6778 0.129996 20.9185
0.561494 0.0355841 21.1656
0.911759 0.405025 20.9613
0.756245 0.0825835 20.7675
0.812426 0.0802644 20.8273
1.19389 0.49303 20.3393
0.654606 -0.0672851 20.7887
0.972388 0.2736 20.088
-1.07542 -0.315343 19.6909
-0.637269 -0.0967566 19.6547
-0.642108 -0.257543 19.4137
-1.32141 -0.563649 20.9038
-1.79938 -0.297967 20.0595
-0.411854 -0.271264 21.113
-0.851444 -0.311861 21.1134
0.195311 -0.0931745 21.3031
-0.257637 -0.153493 21.2281
0.779739 -0.00793977 20.9747
0.555491 -0.13229 21.2023
0.819165 -0.0662288 20.7695
0.807449 -0.192969 20.7909
1.40395 0.247504 19.4557
0.656768 -0.205496 20.9729
1.12909 0.00421106 18.8691
-1.2395 0.0236699 19.6168
-0.652893 0.185624 19.6847
-0.783248 -0.00172011 19.2605
-1.52715 -0.0501794 20.8504
-1.48656 0.447954 20.0979
-0.582456 -0.121898 21.1563
-0.985582 0.155771 21.0102
0.0897415 -0.160244 21.3044
-0.301619 -0.0260026 21.1974
0.664235 -0.274489 20.9671
0.318133 -0.282489 21.0822
0.688722 -0.325157 20.6631
0.491442 -0.404885 20.7397
1.18091 -0.574671 19.8457
0.370596 -0.312874 20.3044
0.815324 -0.461127 19.3926
-0.829076 0.461684 19.8803
-0.626263 0.452734 19.5377
-1.05707 0.529249 20.6131
-1.37154 1.14566 19.9574
-0.528607 0.184266 21.0805
-1.1571 0.716099 21.0924
-0.0107828 -0.10445 21.1361
-0.312601 0.134549 21.3249
0.27717 -0.326886 20.9307
0.193662 -0.371892 21.1236
0.321055 -0.319977 20.6519
0.321929 -0.535086 20.7921
0.25973 -0.455897 20.6662
-1.10067 -1.32462 18.8232
-0.520428 -0.431553 19.1804
0.000835052 -0.611341 19.0037
-0.634814 -1.42882 21.4708
0.0209141 -4.69581 20.8679
-0.0819174 -0.200755 19.3008
0.00962215 -0.412186 18.7724
0.418251 0.564086 16.8828
-0.000835899 -0.0329458 16.938
0.72887 1.35109 14.8335
-0.0166337 0.758705 10.2094
1.17239 1.32189 15.2519
1.10121 1.32481 11.3632
-0.0028265 0.667448 9.1033
1.14403 0.714409 12.8232
0.000136341 0.869151 10.5822
-0.642405 -0.214933 18.898
-0.00369127 -0.501483 18.6597
1.49745 1.0006 11.6888
1.33985 0.0929466 6.51945
-0.00316236 -0.130325 -0.730465
1.23113 -0.0332236 12.0634
-0.0127054 0.108856 2.20427
-0.675369 0.429157 18.9316
-0.00130464 0.0134476 18.1964
1.63351 -1.00749 13.3254
0.6241 -0.971257 19.5976
0.0118591 -0.149978 0.545496
0.473217 -0.771177 19.8379
-0.0480465 -0.453387 6.90985
-0.977207 1.33999 19.1509
0.0223569 0.85704 18.9259
-1.59605 1.99207 20.5732
0.12344 3.02241 19.3172
-0.83991 0.814726 21.6138
0.0868699 3.05611 21.3733
0.00279302 -0.174736 21.4394
-0.00311534 0.330165 21.9659
0.220456 -0.642363 21.0193
-0.000617627 -0.540712 21.3846
0.300893 -0.695327 20.5987
-0.00129319 -0.778971 20.9454
0.000197517 -0.586485 20.8078
1.10783 -1.2746 18.8834
0.520627 -0.430757 19.1835
0.54371 -0.331992 19.5602
0.68029 -1.48457 21.8109
1.80951 -1.47315 19.9517
0.0859392 -0.219045 19.5069
0.491782 -0.59798 21.2919
-0.409137 0.572076 16.6725
0.0962617 -0.334575 21.3717
-0.700727 1.33925 14.6348
-0.933354 0.438557 20.8461
-1.2234 1.29378 15.3306
-1.15592 1.28747 11.7136
-1.18073 0.468025 20.3616
-1.16325 0.670168 13.27
-0.979087 0.245386 20.1708
0.641871 -0.215661 18.8923
0.641479 -0.26321 19.3996
-1.56752 0.938023 12.9709
-1.40034 0.109838 7.73086
-1.35471 0.18799 19.7757
-1.19852 -0.100932 13.0366
-1.13554 -0.0440653 18.9843
0.688238 0.418349 18.9634
0.785296 -0.00327912 19.2542
-1.65452 -0.989023 13.8871
-0.625 -0.96255 19.6955
-1.1222 -0.557266 20.1061
-0.474658 -0.743078 20.1348
-0.814653 -0.417921 19.9114
1.00605 1.22075 19.2411
0.629098 0.430241 19.5646
1.6199 1.80664 20.6014
1.33397 1.01866 20.0062
0.844019 0.781637 21.5828
1.10579 0.648387 21.0704
-0.00440158 -0.172817 21.4491
0.315234 0.138404 21.3245
-0.210702 -0.641482 21.0258
-0.193048 -0.375239 21.1282
-0.30125 -0.691961 20.6022
-0.319581 -0.536303 20.7931
-0.260233 -0.451227 20.6915
0.869391 -0.418623 19.8081
0.557858 -0.198495 19.7246
1.01867 -0.634768 20.8411
1.43645 -0.624571 20.1277
0.316713 -0.263435 21.0866
0.649326 -0.409271 21.08
-0.177924 -0.0358497 21.2435
0.148974 -0.185622 21.1679
-0.676285 0.133456 20.9188
-0.565045 0.035494 21.1748
-0.735287 0.0859154 20.7341
-0.788064 0.0777775 20.8153
-0.610144 -0.0642275 20.9066
1.0837 -0.323043 19.6801
0.642681 -0.0987083 19.6428
1.34357 -0.579712 20.9175
1.84619 -0.307863 20.0445
0.411218 -0.274891 21.1125
0.848905 -0.322275 21.1229
-0.194735 -0.0953004 21.3037
0.26057 -0.157555 21.2268
-0.757568 -0.00991959 20.9594
-0.549547 -0.134987 21.2003
-0.78698 -0.058537 20.7152
-0.788038 -0.179019 20.7749
-0.614151 -0.205388 21.0659
1.25769 0.0225771 19.6005
0.64793 0.180094 19.6966
1.56113 -0.0600539 20.8679
1.44829 0.415238 20.1164
0.584655 -0.124847 21.1531
0.968018 0.147311 21.0026
-0.0871656 -0.161549 21.3054
0.304937 -0.0254735 21.1987
-0.649967 -0.270424 20.9668
-0.318123 -0.283848 21.0839
-0.664616 -0.313249 20.5873
-0.488556 -0.398538 20.7326
-0.352974 -0.297765 20.2928
0.80884 0.434538 19.9096
1.01167 0.471459 20.6132
0.520341 0.176204 21.069
0.0127265 -0.106886 21.141
-0.276189 -0.327666 20.9368
-0.321794 -0.318402 20.6548
-0.998994 -0.395761 19.7505
-1.29922 -1.2964 18.4662
-1.07533 -0.762874 19.4098
-1.39787 -0.611638 19.107
-0.598597 -0.311965 19.4873
-2.45471 -1.65859 19.73
-1.16845 -0.621565 20.8834
-0.253389 -0.585744 15.6296
-1.17741 -1.26248 21.271
-1.88037 -1.43215 21.6512
-0.529629 -0.687429 21.4152
-0.370292 -0.284233 21.0958
-0.0309014 -0.026041 13.6002
-0.233627 -0.406046 21.1989
-0.346775 -0.487933 20.9403
-0.204821 -0.418308 21.3379
0.185599 -0.0645449 21.2772
0.259021 0.481038 9.04391
0.405074 0.0376292 21.3663
0.391766 -0.137733 20.5394
1.07622 0.336381 20.3795
0.734954 0.0705566 20.9517
0.61104 1.21992 9.4286
1.0925 0.514317 20.6556
1.35878 0.256806 19.306
1.34286 0.409212 19.5407
0.795985 0.00239331 20.6384
1.37527 1.45672 13.2766
1.06979 0.370382 20.5545
1.31931 0.132672 18.6488
1.01992 0.132227 19.3034
-1.15715 -0.182607 19.6449
-2.02001 -0.681502 17.3857
-1.80493 0.0585379 18.8396
-0.724717 -0.136486 19.3123
-3.86096 -0.744368 19.2916
-1.48746 -0.367274 20.8961
-2.65671 -0.184872 21.3995
-0.959782 -0.658472 21.3716
-0.506617 -0.22044 21.1418
-0.815793 -0.333189 21.31
-0.49509 -0.226639 21.1349
0.133579 -0.136626 21.3075
0.0954151 -0.183446 21.2411
1.17174 -0.0735007 19.6677
0.76415 -0.15481 20.9296
0.279381 0.0263707 2.61364
1.16377 -0.464733 19.7599
1.43621 -0.177169 18.9061
0.793468 -0.201676 20.9645
1.65342 -0.111613 11.5427
1.02823 -0.596851 19.4942
1.10343 -0.0857652 18.8853
-1.08015 0.320044 19.7278
-1.5685 1.35799 18.2751
-1.02656 0.815795 19.5789
-0.737777 0.296321 19.353
-2.4018 1.22103 19.6495
-1.38838 0.321888 20.7251
-3.13141 2.57768 20.9025
-1.44642 1.06369 20.6474
-1.61638 0.308886 21.2764
-0.62073 0.0478818 21.1459
-1.44499 0.546101 20.8487
-0.711053 0.406706 21.2986
-0.445665 0.0558248 21.4589
0.0115947 -0.144175 21.2328
0.297081 -0.153668 20.4414
-0.011045 -0.139032 21.2872
0.422695 -0.538625 21.2864
0.437801 -0.351582 20.9177
0.578874 -0.882281 19.6663
0.278042 -0.486103 20.95
0.628258 -0.722305 20.7304
0.431223 -0.440104 20.5864
0.554159 -0.91506 19.572
0.326274 -0.525469 20.5823
0.552683 -0.587711 20.546
1.30445 -1.27337 18.4918
0.0180387 -2.06827 18.1401
-0.00567212 -2.21151 16.4402
0.000363369 -0.580962 18.8133
0.0159414 -6.26608 22.2475
0.272638 -0.645847 16.3426
0.0130417 -1.30711 20.7601
0.00782643 -0.0839935 10.7609
0.0113288 -0.0695687 13.7993
0.00242301 -0.202545 17.4668
-0.000783852 -0.00205691 9.85564
-0.24575 0.474199 8.83574
-0.00249443 0.402925 13.5181
-0.018902 0.349759 2.61133
-0.619238 1.22018 9.49089
-0.0217757 0.486513 9.57906
0.0115721 -0.513285 -1.25883
0.00544391 0.215325 2.82469
-1.46184 1.42399 13.5473
-0.00917151 1.14255 10.1738
-0.00125091 0.398417 1.23726
-0.00709904 0.349885 6.21947
2.02086 -0.683733 17.372
-0.00269674 0.949133 14.6859
-0.00271757 -0.323458 18.3767
-0.344413 0.0377111 3.06568
0.00758427 0.408016 -0.50763
-0.0281149 -0.392932 -3.16652
-1.72598 -0.154976 12.7491
-0.0200728 -1.0033 3.08867
-0.0489805 -0.115643 0.664861
1.58336 1.28911 18.3842
0.0697666 1.93812 18.7251
0.021382 0.644273 18.4352
0.100139 5.24946 18.2071
3.12478 2.33644 20.9718
0.0907334 3.28192 20.2864
0.0736168 4.70119 19.3359
1.45057 0.520352 20.8899
0.0202458 1.5989 22.1983
-0.00712967 -0.360318 13.2885
-0.307037 -0.149016 20.4132
-0.00266602 -0.24862 21.7638
-0.000376651 -0.747492 12.6852
-0.592988 -0.859406 19.3083
1.48921e-05 -0.6907 21.1181
-0.0124915 -1.00862 14.984
-0.562648 -0.904156 19.8578
-0.00138832 -0.777072 20.6658
-0.0184785 -0.741536 17.4198
1.00162 -0.400585 19.7513
1.06595 -0.750736 19.4272
1.4072 -0.622156 19.0863
0.59871 -0.316646 19.4826
2.42216 -1.63245 19.7522
1.17149 -0.622696 20.8858
1.17654 -1.2071 21.2269
1.88715 -1.44903 21.6579
0.537099 -0.663847 21.3949
0.367332 -0.282591 21.0984
0.244274 -0.401916 21.2033
0.341848 -0.478672 20.8805
0.204845 -0.418132 21.3173
-0.183206 -0.0699276 21.2743
-0.410643 0.0408097 21.3577
-0.392237 -0.142591 20.5345
-1.08915 0.351516 20.2191
-0.722643 0.0669328 20.9477
-1.09442 0.514268 20.6401
-1.33049 0.230155 19.507
-1.3095 0.365645 19.7547
-0.766492 0.00936026 20.599
-1.05311 0.323089 20.6944
-1.28534 0.0314287 19.1749
-1.02532 0.092882 19.4084
1.17148 -0.188241 19.6276
1.81625 0.0590225 18.8219
0.726505 -0.138837 19.3004
3.95048 -0.760382 19.2562
1.51702 -0.376623 20.9092
2.69494 -0.19629 21.4393
0.918322 -0.6537 21.3459
0.506375 -0.228014 21.1382
0.809274 -0.346029 21.2614
0.503704 -0.232816 21.1152
-0.13277 -0.138206 21.3089
-0.0901231 -0.184705 21.2401
-1.16641 -0.0770792 19.7207
-0.745759 -0.148499 20.9181
-1.13215 -0.463615 19.924
-1.38571 -0.202966 19.3816
-0.773617 -0.19116 20.8949
-0.957359 -0.555854 20.055
-1.05641 -0.117526 19.1108
1.06208 0.307022 19.7481
1.01624 0.755508 19.6259
0.735417 0.282407 19.3817
2.31538 1.11499 19.6985
1.36104 0.304525 20.7208
1.39151 0.929236 20.6651
1.55679 0.267257 21.2604
0.617551 0.044433 21.1392
0.703623 0.387496 21.2827
0.454986 0.0606978 21.4596
-0.00928641 -0.14587 21.2347
0.0119996 -0.137037 21.2932
-0.425477 -0.544715 21.2878
-0.435431 -0.350288 20.9198
-0.276139 -0.488951 20.952
-0.627995 -0.709063 20.7327
-0.426026 -0.434385 20.6082
-0.326602 -0.523216 20.5784
-0.559508 -0.576945 20.5298
-1.23514 -0.721692 19.2687
-1.46733 -1.38965 21.4442
-0.265184 -0.453848 21.1145
0.433528 -0.054275 21.0808
1.25754 0.400769 19.8299
1.14413 0.39308 18.9735
-1.66209 -0.322809 18.9148
-2.41121 -0.854151 21.6197
-0.570926 -0.434752 21.0535
0.199245 -0.169547 20.7398
1.34199 -0.0986253 18.5858
1.35191 -0.152861 18.7765
-1.44044 0.679713 19.1813
-2.24364 0.839104 20.8929
-0.97539 0.124238 21.4236
0.0223518 -0.190936 21.496
0.542847 -0.665115 21.0243
0.508082 -0.667273 20.5597
0.0143739 -2.25261 17.4479
0.0156269 -0.510977 12.7497
0.00102486 -0.0391557 9.92647
-0.00412146 0.218538 5.85294
-0.0103235 -0.1826 2.96587
-0.0161067 1.07681 5.03266
-0.00497153 -1.01657 15.2808
0.00712515 -0.111298 -3.33595
-0.011128 -0.692983 -1.8879
0.0619329 2.32548 17.178
0.0836486 4.77008 19.7994
-0.00362378 1.11871 14.3019
0.000495202 -0.659147 12.302
-0.00541616 -0.752788 14.0355
-0.0115438 -1.0581 17.0865
1.23165 -0.724127 19.2722
1.46956 -1.35357 21.4155
0.277053 -0.44922 21.1215
-0.437774 -0.0519336 21.0304
-1.24598 0.386454 19.8948
-1.12058 0.30765 19.3804
1.68425 -0.32752 18.8853
2.44528 -0.874507 21.6652
0.559329 -0.435399 21.0182
-0.194733 -0.175567 20.7475
-1.3149 -0.11424 18.8998
-1.25718 -0.18182 19.3069
1.41568 0.631123 19.2365
2.17408 0.769368 20.8923
0.965164 0.118116 21.4063
-0.0196026 -0.188708 21.5025
-0.540317 -0.660859 21.0215
-0.510301 -0.655077 20.5372
-0.642276 -0.40042 0.639883
0.140593 -2.16724 2.6206
-0.00400863 -0.00532783 0.437046
0.0214952 0.0192349 0.071511
-0.00562693 -0.000179634 0.000396861
0.0119322 0.0838993 1.16349
-1.04831 0.0329112 1.31932
-0.0202321 0.083996 0.171703
-0.300291 0.0785376 0.750426
-0.0552288 0.0190819 -0.0143664
-0.0463202 0.00809144 -0.0123658
0.0104108 -0.0183614 0.14958
-0.133526 -2.13452 2.62712
0.75517 -0.472724 0.74328
0.00165994 -0.00538667 0.432212
0.00543872 -0.000277112 0.000116339
-0.0216502 0.0220258 0.078465
-0.0142085 0.0908513 1.2105
0.0192183 0.0797303 0.16348
1.02528 0.0402084 1.29226
0.300184 0.0739184 0.751754
0.0454195 0.00936658 -0.01339
0.0294164 0.0111257 -0.0056619
-0.0112164 -0.0202153 0.162574
-0.00146831 -0.00310356 0.202749
0.0438691 -0.0240361 0.427325
0 0 0
0 0 0
0.0232451 0.00953808 1.35612
0.305277 -0.431169 2.89514
-0.0586577 -0.00390195 0.61203
1.48695e-18 -1.61723e-18 5.36151e-17
-0.0977918 -0.104356 0.834972
3.49719e-19 -6.58407e-18 -1.21532e-16
0.0607447 0.0942814 0.733877
-0.087515 0.0630434 0.286547
0.0158961 0.04143 0.317307
-0.00313993 0.00237812 0.0446447
0.272077 0.343654 1.06319
0.102404 0.0373676 0.230118
0.000270129 -0.00340445 0.190245
0 0 0
-0.0434205 -0.0228361 0.423486
0 0 0
-0.0206305 0.011524 1.44557
-6.59364e-19 -6.47124e-19 2.13748e-17
-0.319088 -0.443654 2.80515
0.0601032 -0.00593208 0.631887
0.090724 -0.0940185 0.737505
0.0892385 0.0650835 0.2925
1.00407e-18 -4.31164e-18 -8.22679e-17
-0.0490638 0.0723117 0.546484
-0.0162747 0.0446403 0.335647
-0.0973467 0.0358977 0.215536
0.00313379 0.00238404 0.0446563
-0.275503 0.397812 1.16604
-0.0921401 -0.0459378 0.304716
-0.670568 -0.86202 0.866774
4.80006e-06 -0.000274137 0.00681249
-9.03646e-05 -0.0421973 0.0261649
-0.0374335 -0.0325941 0.90283
0 0 0
0.01666 0.00833046 0.235165
0 0 0
-0.00015608 0.00280793 0.0706752
0 0 0
0 0 0
-0.000894445 0.00384231 0.104903
-0.00024734 0.305084 0.332597
2.09753e-06 0.0708511 0.216749
-0.00238132 -0.00237307 0.0874078
-0.049816 0.0521471 0.271317
0 0 0
-4.27042e-05 -0.000163922 0.00347688
2.58751e-06 3.07774e-05 0.000685205
0.00458011 -0.00790829 0.084415
0.67467 -0.868526 0.856474
0.097907 -0.0468354 0.319176
0 0 0
0.0344391 -0.0283009 0.867026
0 0 0
-0.0168085 0.00846781 0.236098
0.000827437 0.00392357 0.106975
0 0 0
0.0444649 0.0412522 0.226186
0.00446872 -0.00389298 0.0796052
-0.00403446 -0.00794376 0.0834267
-2.60361e-06 3.21549e-05 0.000698709
0 0 0
0 0 0
-0.00664152 -0.00136656 0.174359
-0.00101098 0.00164357 0.0405027
-4.74236e-07 -6.82574e-07 0.000343029
3.46014e-08 -4.06508e-08 4.406e-05
-0.0134076 0.0295352 0.1032
-0.000564141 -0.0010254 0.0258463
8.25459e-08 -1.70965e-08 3.25043e-05
0 0 0
-0.000115861 0.000972999 0.00641099
0.100681 0.0569697 0.768066
2.55444e-05 0.00374684 0.0112059
-0.00141246 0.0439042 0.243521
-4.0592e-05 -0.00101705 0.0342109
0 0 0
0 0 0
0 0 0
0.00591555 0.000854512 0.180233
0.000252318 0.000851054 0.00946445
0.0114401 0.0217495 0.0927611
0.000732296 -0.00122353 0.0326221
-0.102303 0.0653261 0.770838
0 0 0
-0.0431436 -0.0352451 0.122975
-0.0998942 -0.0310448 0.267288
-0.0200162 0.017701 0.347663
-0.00277138 -0.000417602 0.0596324
0 0 0
-0.000159666 0.000813438 0.0101099
0 0 0