# vtk DataFile Version 2.0
tet_velo
ASCII
DATASET UNSTRUCTURED_GRID
POINTS 29498 float
-0.715 0.245 -2.07802
-0.645 0.315 2.13618
-0.74719 0.645 -1.935
-0.570522 0.895 2.055
0.715 0.245 -2.07784
0.645 0.315 2.13616
0.747188 0.645 -1.935
0.570533 0.895 2.055
-0.789986 0.170014 -0.673287
-0.801747 0.158253 0.731447
-0.834087 0.87412 -0.605
-0.783921 0.966176 0.725
0.789942 0.170058 -0.673174
0.802051 0.157949 0.731493
0.833429 0.873459 -0.605
0.783874 0.966123 0.725
-1.49941 -0.139771 -3.20093
-1.50662 -0.0916459 -2.10708
-1.5527 -0.147533 -0.700419
-1.53589 -0.174362 0.721285
-1.4256 -0.0797843 2.12921
-1.39789 -0.020454 3.22926
-1.41221 0.0165315 4.31783
-1.50037 0.145629 -3.15631
-1.50947 0.227027 -2.07062
-1.57055 0.200969 -0.678495
-1.53184 0.177546 0.720365
-1.3648 0.258199 2.11392
-1.35815 0.31442 3.21292
-1.39267 0.351898 4.30391
-1.5156 0.655937 -3.04609
-1.53704 0.734436 -1.95728
-1.60057 0.887001 -0.616097
-1.52188 0.938619 0.719797
-1.32177 0.909001 2.06241
-1.33683 0.960927 3.16449
-1.38775 1.01344 4.26754
-1.53194 1.59036 -2.93694
-1.54619 1.69313 -1.85934
-1.56787 1.86692 -0.542376
-1.55239 1.98179 0.758482
-1.49897 2.00569 2.07622
-1.47022 2.01958 3.15544
-1.46727 2.04999 4.25033
-0.734476 -0.13112 -3.20571
-0.726459 -0.0781688 -2.11407
-0.771667 -0.162952 -0.699444
-0.791551 -0.187461 0.730746
-0.721257 -0.0508752 2.14573
-0.700638 -0.000527945 3.24047
-0.710663 0.0260799 4.32432
-0.73456 0.144121 -3.15776
-0.671892 0.334772 3.22216
-0.698129 0.360499 4.30881
-0.7456 0.619125 -3.03683
-0.654345 0.960624 3.16302
-0.69727 1.01456 4.26723
-0.756011 1.5652 -2.92778
-0.764345 1.66941 -1.84926
-0.791065 1.86235 -0.536294
-0.804329 1.9897 0.757766
-0.783477 2.00781 2.07103
-0.76305 2.018 3.15026
-0.758542 2.04839 4.24657
0.760526 -0.131204 -3.20559
0.759145 -0.0782085 -2.11393
0.793151 -0.16299 -0.699343
0.768636 -0.187674 0.730795
0.66465 -0.0509622 2.14574
0.665137 -0.000605609 3.24048
0.676685 0.0259853 4.32434
0.749735 0.14405 -3.15765
0.649012 0.334719 3.22216
0.667764 0.360415 4.30883
0.76013 0.619032 -3.03677
0.622315 0.960577 3.16302
0.653549 1.01448 4.26724
0.788684 1.56499 -2.92774
0.793761 1.66916 -1.84923
0.775228 1.86207 -0.53627
0.712042 1.98952 0.757785
0.649307 2.00769 2.07105
0.641497 2.01789 3.15027
0.650184 2.04828 4.24658
1.52009 -0.139993 -3.20072
1.52347 -0.0918448 -2.10685
1.56618 -0.147742 -0.700246
1.53545 -0.174701 0.721377
1.41075 -0.0800162 2.12924
1.38033 -0.020645 3.22929
1.38742 0.0163267 4.31786
1.5094 0.145407 -3.15612
1.50536 0.226786 -2.0704
1.57127 0.200718 -0.67833
1.54642 0.177199 0.720448
1.38375 0.258007 2.11394
1.35487 0.314261 3.21294
1.37187 0.351709 4.30395
1.5232 0.655659 -3.04596
1.53187 0.73406 -1.95719
1.59767 0.886331 -0.616024
1.53067 0.938356 0.719839
1.33425 0.908851 2.06243
1.32269 0.960782 3.16451
1.35321 1.01325 4.26757
1.55782 1.58994 -2.93685
1.56532 1.69265 -1.85927
1.55059 1.86641 -0.542319
1.478 1.98142 0.758527
1.39084 2.00544 2.07626
1.36496 2.01935 3.15548
1.36771 2.04976 4.25037
-0.758059 0.445 -2.03347
0 0.22387 -2.09906
-0.79147 0.16853 -1.37565
-0.664403 0.605 2.15223
0 0.311953 2.13922
-0.764491 0.195509 1.43381
-1.01328e-06 0.784689 -2.07469
-0.838929 0.80785 -1.27
5.48363e-06 0.948144 2.10814
-0.727967 0.981334 1.39
0.758856 0.445 -2.03418
0.791209 0.168791 -1.37551
0.66336 0.605 2.15117
0.765703 0.194297 1.43383
0.839134 0.808056 -1.27
0.727899 0.981257 1.39
-0.793926 0.166074 0.0290799
-0.889921 0.522067 -0.639143
-2.19216e-05 0.172081 -0.67323
-0.888379 0.562215 0.728223
0.000152382 0.150395 0.73147
-0.815955 0.927099 0.0600001
-0.000329068 1.15151 -0.605
-2.31976e-05 1.34281 0.725
0.793831 0.166169 0.0291599
0.889976 0.521758 -0.639087
0.888157 0.562036 0.728247
0.816075 0.927215 0.0600001
-0.875487 0.483533 -1.32283
-0.890862 0.542141 0.04454
-0.867038 0.583607 1.41191
-1.09608e-05 0.176999 -1.37558
6.52302e-05 0.171038 0.0291199
7.6191e-05 0.187424 1.43382
-5.06639e-07 0.445 -2.27514
2.74181e-06 0.605 2.23136
-0.000165041 0.940482 -1.27
-0.000176133 1.36955 0.0600001
-8.85701e-06 1.1527 1.39
0.87549 0.483379 -1.32275
0.890846 0.541897 0.04458
0.867044 0.583518 1.41191
-1.11223 0.236013 -2.07432
-0.72073 0.0834156 -2.09605
-0.72478 0.194561 -2.61789
-1.0049 0.286599 2.12505
-0.683129 0.132062 2.14096
-0.658446 0.324886 2.67917
-1.14212 0.689718 -1.94614
-0.746395 0.632062 -2.48591
-0.755768 1.15721 -1.89213
-0.946144 0.902 2.05871
-0.612433 0.927812 2.60901
-0.677 1.4514 2.06302
0.737073 0.0833958 -2.09588
0.732367 0.194525 -2.61775
1.11018 0.235893 -2.07412
0.654825 0.132019 2.14095
0.647006 0.32486 2.67916
1.01437 0.286504 2.12505
0.753659 0.632016 -2.48589
0.770475 1.15708 -1.89211
1.13953 0.68953 -1.94609
0.596424 0.927789 2.60901
0.60992 1.45134 2.06302
0.952394 0.901926 2.05872
-1.18027 0.185491 -0.675891
-0.780827 0.003531 -0.686366
-1.16679 0.167899 0.725906
-0.796649 -0.0146036 0.731097
-1.21733 0.88056 -0.610548
-0.812576 1.36823 -0.570647
-1.1529 0.952398 0.722399
-0.794125 1.47794 0.741383
0.791547 0.00353375 -0.686258
1.18061 0.185388 -0.675752
0.785344 -0.0148628 0.731144
1.17423 0.167574 0.725971
0.804328 1.36777 -0.570635
1.21555 0.879895 -0.610512
0.747958 1.47782 0.741393
1.15727 0.95224 0.72242
-1.50301 -0.115708 -2.654
-1.49989 0.0029291 -3.17862
-1.11694 -0.135446 -3.20332
-1.52966 -0.11959 -1.40375
-1.50804 0.0676904 -2.08885
-1.11654 -0.0849073 -2.11058
-1.54429 -0.160948 0.010433
-1.56162 0.0267177 -0.689457
-1.16218 -0.155243 -0.699931
-1.48074 -0.127073 1.42525
-1.53386 0.0015918 0.720825
-1.16372 -0.180911 0.726016
-1.41174 -0.0501191 2.67924
-1.3952 0.0892072 2.12157
-1.07343 -0.0653297 2.13747
-1.40505 -0.00196125 3.77355
-1.37802 0.146983 3.22109
-1.04926 -0.0104909 3.23487
-1.40244 0.184215 4.31087
-1.06144 0.0213057 4.32107
-1.50492 0.186328 -2.61347
-1.50798 0.400783 -3.1012
-1.11746 0.144875 -3.15704
-1.54001 0.213998 -1.37456
-1.52326 0.480731 -2.01395
-1.55119 0.189257 0.0209349
-1.58556 0.543985 -0.647296
-1.44832 0.217872 1.41714
-1.52686 0.558082 0.720081
-1.36148 0.28631 2.66342
-1.34328 0.5836 2.08817
-1.37541 0.333159 3.75842
-1.34749 0.637674 3.18871
-1.01502 0.324596 3.21754
-1.39021 0.682666 4.28573
-1.0454 0.356199 4.30636
-1.52632 0.695186 -2.50168
-1.52377 1.12315 -2.99151
-1.1306 0.637531 -3.04146
-1.56881 0.810719 -1.28669
-1.54162 1.21378 -1.90831
-1.56123 0.91281 0.05185
-1.58422 1.37696 -0.579236
-1.42182 0.92381 1.3911
-1.53713 1.4602 0.739139
-1.3293 0.934964 2.61345
-1.41037 1.45735 2.06932
-1.36229 0.987181 3.71602
-1.40352 1.49025 3.15997
-0.995587 0.960775 3.16376
-1.42751 1.53171 4.25893
-1.04251 1.014 4.26739
-1.53907 1.64175 -2.39814
-1.14398 1.57778 -2.93236
-1.55703 1.78003 -1.20086
-1.15527 1.68127 -1.8543
-1.56013 1.92435 0.108053
-1.17947 1.86463 -0.539335
-1.52568 1.99374 1.41735
-1.17836 1.98575 0.758124
-1.48459 2.01263 2.61583
-1.14122 2.00675 2.07363
-1.46875 2.03478 3.70288
-1.11664 2.01879 3.15285
-1.11291 2.04919 4.24845
-0.730468 -0.104645 -2.65989
-0.734518 0.00650038 -3.18173
0.013025 -0.131162 -3.20565
-0.749063 -0.12056 -1.40676
0.016343 -0.0781886 -2.114
-0.781609 -0.175206 0.015651
0.0107421 -0.162971 -0.699394
-0.756404 -0.119168 1.43824
-0.0114576 -0.187567 0.730771
-0.710947 -0.0257016 2.6931
-0.0283036 -0.0509187 2.14573
-0.705651 0.012776 3.7824
-0.686265 0.167122 3.23132
-0.0177503 -0.000566777 3.24048
-0.704396 0.19329 4.31657
-0.016989 0.0260326 4.32433
-0.74008 0.381623 -3.09729
0.00758729 0.144086 -3.15771
-0.685011 0.347636 3.76549
-0.663119 0.647698 3.19259
-0.0114403 0.334745 3.22216
-0.6977 0.687532 4.28802
-0.0151823 0.360457 4.30882
-0.750805 1.09216 -2.9823
0.00726517 0.619078 -3.0368
-0.675808 0.987594 3.71512
-0.708697 1.48931 3.15664
-0.0160151 0.9606 3.16302
-0.727906 1.53148 4.2569
-0.0218606 1.01452 4.26724
-0.760178 1.61731 -2.38852
0.0163366 1.5651 -2.92776
-0.777705 1.76588 -1.19278
0.0147078 1.66929 -1.84924
-0.797697 1.92603 0.110736
-0.00791844 1.86221 -0.536282
-0.793903 1.99876 1.4144
-0.0461436 1.98961 0.757776
-0.773264 2.0129 2.61064
-0.067085 2.00775 2.07104
-0.760796 2.03319 3.69841
-0.0607765 2.01795 3.15026
-0.054179 2.04833 4.24657
0.759836 -0.104706 -2.65976
0.75513 0.00642293 -3.18162
1.14031 -0.135598 -3.20316
0.776148 -0.120599 -1.40664
1.14131 -0.0850266 -2.11039
0.780893 -0.175332 0.015726
1.17967 -0.155366 -0.699795
0.716643 -0.119318 1.43827
1.15204 -0.181188 0.726086
0.664894 -0.0257839 2.69311
1.0377 -0.0654892 2.13749
0.670911 0.0126898 3.78241
0.657074 0.167057 3.23132
1.02273 -0.0106253 3.23489
0.672225 0.1932 4.31658
1.03205 0.021156 4.3211
0.754933 0.381541 -3.09721
1.12957 0.144729 -3.15688
0.658388 0.347567 3.7655
0.635663 0.647648 3.19259
1.00194 0.32449 3.21755
0.660657 0.687449 4.28803
1.01982 0.356062 4.30639
0.774407 1.09201 -2.98226
1.14166 0.637345 -3.04137
0.637932 0.98753 3.71513
0.631906 1.48923 3.15665
0.972504 0.960679 3.16377
0.651866 1.53138 4.25691
1.00338 1.01387 4.26741
0.791223 1.61708 -2.38848
1.17325 1.57747 -2.9323
0.784494 1.76562 -1.19275
1.17954 1.68091 -1.85425
0.743635 1.9258 0.110758
1.16291 1.86424 -0.539294
0.680675 1.9986 1.41442
1.09502 1.98547 0.758156
0.645402 2.01279 2.61066
1.02007 2.00656 2.07365
0.64584 2.03308 3.69843
1.00323 2.01862 3.15287
1.00894 2.04902 4.24848
1.52178 -0.115919 -2.65379
1.51475 0.00270722 -3.17842
1.54482 -0.119793 -1.40355
1.51441 0.0674709 -2.08863
1.55081 -0.161221 0.0105654
1.56873 0.026488 -0.689288
1.4731 -0.127359 1.42531
1.54093 0.00124895 0.720912
1.39554 -0.0503306 2.67927
1.39725 0.0889954 2.12159
1.38387 -0.00215915 3.77358
1.3676 0.146808 3.22111
1.37964 0.184018 4.3109
1.50738 0.186097 -2.61326
1.5163 0.400533 -3.10104
1.53831 0.213752 -1.37436
1.51861 0.480423 -2.01379
1.55884 0.188958 0.0210586
1.58447 0.543524 -0.647177
1.46508 0.217603 1.4172
1.53854 0.557778 0.720143
1.36931 0.286134 2.66344
1.359 0.583429 2.08819
1.36337 0.332985 3.75844
1.33878 0.637521 3.18873
1.36254 0.682481 4.28576
1.52753 0.694859 -2.50158
1.54051 1.1228 -2.99141
1.56477 0.810195 -1.28661
1.5486 1.21336 -1.90823
1.56417 0.912344 0.0519074
[...]
POINT_DATA 29498
VECTORS point_vectors float
-3.37879 -4.44846 4.64732
0.217703 0.20295 0.57583
-2.15706 1.25602 3.90734
-0.141893 -0.098049 0.0304879
3.36734 -4.42774 4.61768
-0.216907 0.216271 0.612824
2.17421 1.25836 3.94818
0.136312 -0.0955453 0.0289679
0.0213741 -0.0204111 0.63117
0.0109028 -0.00230727 0.3902
-0.00359683 -0.00218183 0.065142
0 0 0
-0.0208269 -0.019716 0.629776
-0.0116222 -0.00210609 0.413401
0.000177218 -9.77984e-05 0.00367216
0 0 0
-0.559705 -0.25274 19.8295
-1.26649 -0.698678 20.3941
-0.481585 -0.434407 21.3471
0.137424 -0.0846387 21.5584
0.860828 0.238034 21.4305
1.09341 0.230995 21.0395
0.931209 0.084024 20.8031
-0.663772 -0.191602 19.7444
-1.72341 -0.558666 20.3435
-0.65841 -0.509056 21.4193
0.12812 -0.237836 21.651
1.1754 -0.0450619 21.5297
1.3453 -0.0227284 21.1744
1.09248 -0.0383323 21.1058
-0.796639 0.0309612 19.6632
-1.87311 0.0563 20.3668
-1.14997 -0.271621 21.3843
-0.212461 -0.39004 21.728
0.732397 -0.818535 21.4031
1.0541 -0.833318 21.212
0.883831 -0.71606 20.4394
-0.576993 0.358188 19.9164
-0.975841 0.616108 20.3666
-0.877195 0.388302 21.1263
-0.33008 -0.0178244 21.4429
0.0442388 -0.312941 21.3523
0.223813 -0.468455 21.2021
0.247326 -0.533345 20.7314
-0.548212 -0.557322 19.2678
-1.95688 -3.57372 20.2294
-0.437431 -0.487571 21.6857
0.0340533 0.15053 21.2985
0.884482 1.4262 18.7425
1.32929 1.50008 17.9903
1.12091 1.03037 18.267
-0.677361 -0.460517 19.0059
2.05693 1.31038 10.5783
2.03786 1.0715 13.8572
-0.979147 0.098755 18.5987
0.624651 -0.94409 5.42418
1.13173 -0.900739 12.3652
-0.549148 0.781219 19.4452
-1.10118 1.68901 20.0844
-1.27637 1.54619 21.2299
-0.391483 0.207638 21.7947
-0.0806125 -0.333014 21.3706
0.0480712 -0.577012 21.2538
-0.0107723 -0.456633 20.9324
0.560369 -0.538746 19.2981
2.01096 -3.39118 20.2217
0.43284 -0.46924 21.6829
-0.0202815 0.146616 21.2522
-0.755202 1.42748 18.0217
-1.247 1.54783 17.8607
-1.09461 1.12036 18.1166
0.688298 -0.449602 19.0226
-1.9738 1.33829 10.2481
-2.08141 1.19404 13.199
0.985747 0.099456 18.6279
-0.54308 -0.913465 4.30136
-1.04675 -0.889343 11.0396
0.560951 0.766541 19.4637
1.12298 1.63932 20.0955
1.27305 1.57712 21.227
0.391334 0.253396 21.8424
0.112669 -0.293566 21.4195
-0.0115642 -0.530846 21.2173
-0.0539591 -0.454902 21.1707
0.560283 -0.249013 19.8355
1.24775 -0.675253 20.41
0.485563 -0.435984 21.343
-0.13022 -0.0867527 21.5546
-0.869167 0.257104 21.4452
-1.1078 0.237806 21.0171
-0.933857 0.110572 20.8639
0.664585 -0.191306 19.7482
1.73773 -0.570228 20.3466
0.660564 -0.510169 21.4206
-0.119777 -0.238241 21.6382
-1.1467 -0.0460795 21.4835
-1.34722 -0.0188085 21.1745
-1.09945 -0.0248969 21.1491
0.789085 0.028234 19.6797
1.88358 0.057903 20.3729
1.15254 -0.273969 21.3914
0.208983 -0.381458 21.7232
-0.721817 -0.805504 21.4172
-1.07252 -0.856893 21.1946
-0.955064 -0.787581 20.2757
0.572497 0.353399 19.9272
0.965436 0.599109 20.3724
0.892453 0.39966 21.1304
0.353932 -0.00428931 21.4792
-0.0101922 -0.349299 21.3388
-0.19737 -0.477846 21.1074
-0.157485 -0.450651 20.9662
-0.655955 -0.0113282 0.779161
-0.000407878 -0.0435901 0.22258
-0.0068058 -0.00585271 0.503982
-0.0144387 -0.0530003 0.03405
-0.000480336 0.0240123 0.088284
0.0137792 0.00450964 0.185903
-0.0168119 0.620879 1.6243
-0.214551 -0.129331 0.718633
-5.01445e-05 0.017718 -0.0561071
0.00132975 -0.00435747 0.0278571
0.808876 -0.0275528 0.989387
0.00617536 -0.00573082 0.51317
0.0159328 -0.0510826 0.0319955
-0.0137345 0.00467914 0.194346
0.218515 -0.136392 0.730927
-0.00132016 -0.00575188 0.0350032
0.00542367 -0.00269739 0.346389
-5.23704e-05 -0.00026916 0.0188772
0 0 0
0 0 0
0.000560093 -0.0044997 0.158017
0 0 0
4.42082e-05 0.0228293 0.0430588
-4.12949e-05 -0.00114962 0.0103106
-0.00609173 -0.00329047 0.358764
4.63498e-05 -0.000269238 0.0174061
0 0 0
0 0 0
-0.00167675 -0.00158714 0.0414555
-7.85087e-05 0.00282809 0.0249756
0.00525659 0.00449739 0.0663453
0 0 0
0 0 0
0 0 0
0.0044037 -0.290215 0.248079
-1.80328e-05 -0.00402934 0.00345194
8.64937e-05 0.00223883 0.0613377
-1.13858e-05 0.00817554 0.0865452
0.000204658 0.0014976 -0.00410442
0.0016756 -0.00154559 0.0415602
7.1113e-05 0.00287514 0.0253683
-0.00544198 0.00456344 0.0674701
-3.43296 -1.53771 20.0176
-3.21564 -5.78683 19.974
-1.9499 -1.39984 17.7842
1.75674 0.51027 16.2241
0.974487 1.33863 10.735
1.63253 0.707592 6.94922
-3.81799 0.407984 20.1804
-3.09494 0.788513 16.7514
-2.53954 2.94217 19.8051
0.748516 -0.764903 12.5321
-0.608956 -0.738595 1.63743
-0.0649873 -0.574248 16.7151
3.2878 -5.5972 19.9354
1.94883 -1.38002 17.8171
3.45701 -1.55777 20.0118
-0.870569 1.31806 10.2623
-1.57841 0.706536 6.73245
-1.75202 0.491808 16.5673
3.09475 0.781611 16.8042
2.55281 2.86763 19.8157
3.83801 0.420347 20.1751
0.627849 -0.68814 1.32499
0.0649008 -0.517028 15.98
-0.764499 -0.755485 12.8575
-0.443233 -0.848938 21.5112
-0.150565 -0.105721 17.6657
0.318878 -0.133517 20.6489
0.228952 0.238798 17.114
-1.92653 -0.74843 21.7004
-3.3211 1.97937 21.3382
-0.191273 -0.534448 20.2495
-0.634387 -0.0480152 21.3106
0.153063 -0.0989219 17.8194
0.445634 -0.849088 21.5147
-0.228918 0.230575 16.9553
-0.31675 -0.14824 20.7947
3.33046 2.04465 21.325
1.93003 -0.757399 21.7015
0.533527 -0.00578727 20.6406
0.197719 -0.545735 20.3384
-0.931802 -0.472035 19.9427
-0.630951 -0.230151 19.7949
-0.614795 -0.402216 19.5539
-0.945415 -0.609689 21.0984
-1.49795 -0.651549 20.3529
-1.89215 -1.64009 20.3016
-0.160053 -0.251915 21.4932
-0.583954 -0.483018 21.3699
-0.376184 -0.544129 21.5716
0.485244 0.0845849 21.5964
0.125233 -0.171772 21.574
0.183695 -0.00153023 21.7369
1.01986 0.284495 21.2581
1.0297 0.144836 21.5144
1.16505 0.806293 21.0362
1.14408 0.218384 20.7314
1.2401 0.102804 21.2466
1.49655 0.91927 20.9664
1.05666 -0.00326876 20.9328
1.11623 0.526732 21.4459
-1.18853 -0.350749 19.815
-0.742274 -0.0959958 19.6789
-0.745174 -0.3407 19.4149
-1.25139 -0.606989 21.1906
-1.84229 -0.270603 20.3616
-0.265155 -0.38347 21.5428
-0.906097 -0.475886 21.4097
0.616495 -0.115629 21.7274
-0.00822826 -0.376859 21.742
1.34357 -0.0181362 21.249
1.13766 -0.498134 21.4716
1.59545 -0.0722944 20.4804
1.39631 -0.455016 21.1502
2.00021 0.524386 18.0583
1.19902 -0.631252 20.3318
1.57347 0.208306 18.7829
-1.40403 0.0709505 19.7871
-0.736583 0.26736 19.7551
-0.963128 0.0557409 19.2395
-1.58945 -0.132468 21.0746
-1.44613 0.517001 20.3256
-0.711427 -0.343999 21.6437
-1.17477 0.162795 21.2547
0.31694 -0.578889 21.7239
-0.363889 -0.191842 21.5998
0.865823 -0.889894 21.2953
0.181465 -0.563954 21.4001
0.970346 -0.682334 20.8826
0.427718 -0.672715 21.1373
1.33718 -0.968676 17.1886
0.283855 -0.606176 21.0377
1.31867 -1.44237 18.816
-0.791537 0.521306 20.0679
-0.632106 0.541022 19.6943
-0.998844 0.544752 20.7706
-1.16261 1.07975 20.2438
-0.619105 0.189329 21.3989
-1.1262 0.801815 21.2103
-0.112392 -0.197065 21.3525
-0.396624 0.0622412 21.6043
0.13007 -0.453003 21.1666
-0.0299998 -0.379227 21.3447
0.175938 -0.379316 21.0692
0.137794 -0.498729 20.885
-0.024514 -0.340426 21.5075
-1.19037 -1.51872 18.9134
-0.603719 -0.516194 19.1507
0.00694822 -0.741854 18.9355
-0.94608 -1.44668 22.1099
5.4179e-05 -5.02498 20.8391
-0.191398 -0.188082 21.2036
0.0028342 -0.769713 21.2249
0.43672 0.747782 20.0714
0.00242799 -0.108948 20.0024
1.09411 1.56252 18.6227
0.0142069 1.08 15.6072
1.15488 1.47229 19.1232
1.79486 1.65663 15.7745
0.0268985 1.61456 16.1557
1.50386 1.19274 16.4378
0.0773656 1.94812 16.9483
-0.865144 -0.224698 18.7388
0.00603163 -0.648424 18.545
2.21828 1.05505 11.955
1.96136 -0.287804 6.2108
0.016944 1.47863 4.9033
2.17815 0.405836 12.8851
0.0710775 2.05225 10.9492
-0.807686 0.666159 18.9481
0.0135347 0.161529 17.8091
0.80858 -0.827408 8.59288
0.118733 -1.11177 19.0804
0.0900813 1.74712 -6.26353
0.00755116 -1.15188 19.3466
0.060321 1.71804 -5.19212
-0.880466 1.34468 19.5745
0.0135117 1.05341 19.1732
-1.22031 1.63647 20.6
0.0256595 2.42369 19.9048
-0.866013 0.896622 21.8242
-0.0176997 2.76212 21.141
-0.169565 -0.164231 21.5926
-0.0487982 0.511049 21.9882
-0.0200161 -0.454853 21.2868
-0.0367013 -0.131385 21.5774
0.0206864 -0.609781 21.4078
-0.0156364 -0.483951 21.1602
0.00142079 -0.114816 21.8919
1.20505 -1.46558 18.9589
0.615327 -0.501027 19.175
0.621607 -0.398402 19.5671
0.952099 -1.4004 22.0965
1.83828 -1.52337 20.2954
0.194246 -0.183587 21.2165
0.387176 -0.544369 21.5619
-0.40285 0.734338 19.7265
-0.183775 0.00766102 21.7415
-0.992069 1.58396 17.8445
-1.15357 0.885704 20.9884
-1.13789 1.56343 18.9765
-1.70176 1.67517 15.4158
-1.51657 0.976663 20.9775
-1.47135 1.27895 16.2945
-1.15777 0.580535 21.355
0.883738 -0.222789 18.7589
0.748121 -0.340687 19.4258
-2.22861 1.14462 11.6664
-1.875 -0.218039 5.51428
-2.02188 0.564035 17.8903
-2.13802 0.45565 11.8577
-1.60331 0.256034 18.5059
0.817799 0.648726 18.9736
0.963995 0.053859 19.254
-0.705413 -0.838186 7.18356
0.00488959 -1.05416 18.4638
-1.37949 -0.991261 16.6152
0.0184779 -1.21024 18.8797
-1.35683 -1.39979 18.4747
0.893092 1.31034 19.5977
0.631482 0.522403 19.7108
1.22574 1.62354 20.6033
1.16026 1.04531 20.254
0.861224 0.974022 21.8589
1.14096 0.829069 21.2133
0.178252 -0.13874 21.5816
0.409879 0.0966985 21.6351
0.0488238 -0.422015 21.311
0.0493468 -0.367282 21.3721
0.0300937 -0.614277 21.396
-0.121373 -0.547434 21.0043
0.0529371 -0.383185 21.5897
0.923857 -0.46384 19.9627
0.635555 -0.228719 19.7999
0.948866 -0.60465 21.0868
1.48635 -0.645063 20.362
0.15808 -0.256117 21.4979
0.584718 -0.483713 21.3631
-0.485986 0.0838596 21.6036
-0.117064 -0.176566 21.5629
-1.03267 0.302687 21.2584
-1.02649 0.141738 21.5117
-1.17346 0.227345 20.7005
-1.24833 0.117295 21.2356
-1.06257 0.0228686 20.9932
1.18962 -0.35227 19.8164
0.737988 -0.093652 19.689
1.25648 -0.611628 21.1917
1.86302 -0.280355 20.3725
0.263614 -0.383001 21.5431
0.904812 -0.480855 21.4202
-0.601557 -0.11945 21.7151
0.00871343 -0.371468 21.7339
-1.33194 -0.0256104 21.2577
-1.10977 -0.481065 21.4019
-1.6323 -0.054385 20.4457
-1.41321 -0.46063 21.1484
-1.25689 -0.690632 20.1983
1.39976 0.0682829 19.7967
0.731102 0.256645 19.773
1.59496 -0.132847 21.0813
1.4388 0.509725 20.331
0.708721 -0.343398 21.6454
1.19142 0.162147 21.2606
-0.310238 -0.572561 21.7149
0.38289 -0.197502 21.6316
-0.868908 -0.890074 21.2925
-0.165726 -0.581791 21.4176
-0.979607 -0.710125 20.8117
-0.4014 -0.707534 21.2123
-0.250999 -0.637802 21.1864
0.784041 0.50528 20.0788
0.997665 0.544454 20.772
0.64676 0.206389 21.4246
0.126164 -0.202715 21.3901
-0.0923154 -0.441629 21.2097
-0.123151 -0.361534 21.2366
-1.07359 -0.43759 19.8775
-1.52097 -1.57693 18.4285
-1.23637 -0.927033 19.493
-1.71325 -0.746048 19.1066
-0.684312 -0.390234 19.4892
-2.56041 -1.75313 20.182
-1.09769 -0.627316 21.142
-0.700409 -0.797051 18.101
-1.02751 -1.09395 21.4993
-1.51547 -1.28651 21.8501
-0.365769 -0.660883 21.6612
-0.215678 -0.336327 21.5097
0.039488 -0.0292824 16.9233
-0.0940049 -0.270848 21.6399
-0.0295066 -0.470577 20.9929
0.298028 -0.0522716 21.5598
0.550718 -0.00574943 21.6569
0.653381 0.626493 13.744
0.646691 0.391823 21.6696
0.928308 0.283751 18.9602
1.55696 0.814092 19.6304
1.25166 0.200281 21.2286
1.37991 1.54689 13.4157
1.37175 0.878252 20.9009
1.97965 0.440739 17.413
1.69068 0.826294 19.2864
1.46088 0.121366 20.47
1.68802 1.26363 15.4404
1.41204 0.836795 21.131
1.91591 0.202942 19.1569
1.28804 0.490979 19.6807
-1.34017 -0.169812 19.7711
-2.60933 -0.649406 16.9915
-2.22481 0.251347 18.9743
-0.888443 -0.145822 19.2796
-4.08666 -0.587185 20.0877
-1.4743 -0.409997 21.1549
-2.55394 -0.328425 21.512
-1.01059 -1.01943 21.388
-0.452192 -0.454998 21.6108
-1.06743 -0.825875 21.3385
0.19953 -0.25018 19.3817
0.560232 -0.398061 21.7288
0.677248 -0.271094 17.3583
1.41315 -0.338029 12.8803
1.32849 -0.515539 21.0916
0.430522 -0.718998 2.5128
0.912577 -0.914512 15.6243
2.02175 -0.546263 16.1713
1.1976 -0.482307 21.178
2.14433 0.326862 9.60168
1.30506 -1.2378 18.5355
1.71696 -0.497009 18.0137
-1.14149 0.433418 19.9032
-1.74051 1.81494 18.6318
-0.936648 0.868957 19.8342
-0.83327 0.421915 19.424
-2.15978 1.23515 20.1374
-1.41973 0.364272 20.8671
-2.52274 2.0742 20.6192
-1.22369 0.995675 20.7256
-1.91955 0.532926 21.3987
-0.803718 -0.0132214 21.5556
-2.18009 0.73318 22.1901
-0.794653 0.456875 21.5644
-0.548757 -0.177512 21.9397
-0.0254245 -0.397178 21.5517
-0.0738882 -0.49919 19.4023
-0.161723 -0.209686 21.5056
0.00506463 -0.73913 21.3479
0.315255 -0.67994 21.3042
-0.0614256 -0.779786 18.0089
0.0543941 -0.458284 21.2243
0.300025 -0.905149 21.4697
0.472583 -0.560996 21.0516
0.238011 -1.04658 19.0684
0.141571 -0.534576 21.3941
0.126575 -0.826434 21.0807
1.52848 -1.53923 18.4823
0.024079 -2.34214 18.2044
0.0116814 -2.50921 15.9546
0.00616402 -0.767055 18.7204
-0.0675065 -7.3797 22.1933
0.699673 -0.790417 18.3501
-0.00553455 -1.87649 22.3447
0.0172696 -0.271023 13.6523
-0.0371725 -0.0267524 16.9481
0.00158443 -0.410154 20.0876
0.0153121 -0.0456704 12.9207
-0.642395 0.598053 13.2972
0.0153445 0.546732 17.7746
0.00887265 0.737621 6.70393
-1.30271 1.58682 12.9363
0.0227611 1.31713 15.9721
-0.000588608 0.123702 2.12145
0.0209936 1.87001 10.5567
-1.67223 1.3477 15.3131
0.0681982 2.10824 16.8907
0.0585129 1.36738 5.7298
0.0768328 1.90151 14.6179
2.65241 -0.633336 17.0364
0.026276 2.03703 13.5495
0.00597986 -0.322122 18.0802
-0.369516 -0.687293 2.22992
-0.00581676 1.13177 -4.4314
0.0789464 0.761377 -1.7749
-2.15531 0.435093 9.03082
0.137749 2.08566 -6.22261
0.0846955 1.95207 2.82954
1.75105 1.76605 18.669
0.0197219 1.90979 19.29
0.0157494 0.984775 18.4003
0.024804 4.58398 19.5907
2.52418 2.06204 20.6214
0.00838219 2.50729 20.3526
-0.0221259 5.37739 19.9534
2.25954 0.823217 22.1639
-0.0498418 1.66665 22.1548
-0.0288288 0.271602 18.3341
0.0172841 -0.487815 18.4916
-0.0386523 0.0199864 21.6199
-0.0641599 0.0735749 9.35878
0.0924981 -0.694456 17.2197
-0.0244813 -0.279416 21.4269
0.000340161 -0.53531 11.8267
-0.197172 -1.01887 18.5672
-0.0203813 -0.465911 21.6403
-0.00480464 -0.695281 13.4625
1.06244 -0.430042 19.8953
1.22774 -0.89603 19.51
1.70509 -0.739744 19.1201
0.685178 -0.384512 19.4976
2.53132 -1.7069 20.1877
1.10076 -0.629091 21.1272
1.0348 -1.06719 21.4667
1.51835 -1.28973 21.8485
0.378446 -0.661421 21.6553
0.215125 -0.336078 21.5136
0.0978643 -0.271102 21.636
0.035207 -0.475731 21.0529
-0.295812 -0.0490041 21.5497
-0.543971 -0.010531 21.6523
-0.642765 0.425672 21.6414
-0.931339 0.261528 19.2435
-1.56644 0.851249 19.4641
-1.25372 0.192381 21.2247
-1.369 0.923683 20.8694
-1.97779 0.443052 17.3574
-1.72111 0.886489 19.0316
-1.51384 0.142137 20.4183
-1.41657 0.890047 21.2242
-1.9177 0.237885 18.9121
-1.32518 0.547227 19.3892
1.342 -0.17131 19.7795
2.21648 0.246673 18.9876
0.889905 -0.14512 19.2938
4.10407 -0.588503 20.0846
1.48044 -0.414644 21.1645
2.56103 -0.33385 21.5184
1.00534 -1.02118 21.3827
0.446212 -0.455115 21.6184
1.06213 -0.827244 21.3578
-0.198048 -0.282302 19.6141
-0.544567 -0.39386 21.7272
-0.661805 -0.300248 17.5732
-1.42155 -0.315151 13.2959
-1.32059 -0.519604 21.1275
-0.902498 -0.913823 15.3289
-2.05975 -0.56709 15.7261
-1.23909 -0.458202 21.0515
-1.34381 -1.22067 17.9015
-1.75543 -0.436645 17.6642
1.13151 0.423532 19.9156
0.931805 0.830351 19.8543
0.832126 0.412843 19.4426
2.14496 1.20735 20.1394
1.4254 0.363138 20.869
1.22381 0.990064 20.727
1.94401 0.547202 21.4024
0.821185 -0.0208733 21.5739
0.816204 0.508633 21.5951
0.57097 -0.170967 21.9725
0.02414 -0.41616 21.5771
0.173397 -0.194616 21.5265
0.0286734 -0.746955 21.1003
-0.295604 -0.696616 21.3008
-0.0328295 -0.479054 21.2358
-0.310876 -0.976187 20.8536
-0.482548 -0.634659 21.0376
-0.119244 -0.598058 21.4368
-0.100745 -0.897178 20.7595
-1.40797 -0.888235 19.3609
-1.21166 -1.20392 21.681
-0.0278431 -0.350138 21.5806
0.868514 0.379909 20.8998
1.72925 0.859902 19.5138
1.66846 0.541527 20.1871
-2.10013 -0.302012 18.9362
-2.13441 -0.968315 21.8818
-0.309466 -0.710881 20.4126
0.851766 0.102816 16.7797
1.63612 -0.536416 14.786
1.81834 -0.208358 16.7955
-1.55082 0.890761 19.4538
-2.06821 0.857676 20.8716
-1.30192 0.148411 21.9357
-0.127311 -0.51574 21.7653
0.144787 -0.823903 21.301
0.391194 -1.06784 21.2737
0.0239232 -2.62033 17.3812
0.029207 -0.946956 14.8841
0.0130295 -0.149216 12.6459
0.0116995 0.473112 9.56106
0.0114195 0.866736 8.227
0.0722864 1.65861 11.0871
0.0240297 -1.09121 14.2576
0.00328911 0.28795 -1.8346
0.118361 1.29305 2.05212
0.0291833 3.03284 17.6852
0.00359383 3.62167 20.08
-0.0433266 2.68374 21.4166
-0.0178824 -0.111013 13.2554
-0.134651 0.0197757 10.0975
-0.116241 -0.571728 12.2645
1.40134 -0.865602 19.3809
1.22293 -1.18838 21.6536
0.0327101 -0.350502 21.5812
-0.867065 0.391078 20.8205
-1.73454 0.902903 19.3205
-1.66066 0.559076 20.1026
2.09273 -0.302003 18.9526
2.13522 -0.972252 21.888
0.311425 -0.714197 20.4791
-0.854618 0.0737937 17.0784
-1.63396 -0.536398 14.6206
-1.83786 -0.195025 16.2837
1.54102 0.869226 19.4768
2.0688 0.855595 20.8701
1.34813 0.173024 21.9626
0.153968 -0.534473 21.7521
-0.125296 -0.843564 21.0634
-0.387651 -1.14183 20.8657
-2.84624 -0.983542 3.77927
0.0121227 -0.277985 0.508948
-0.0638946 -0.0489334 0.885408
0.118941 -0.0843051 0.158675
-0.0016569 0.0224632 0.0802181
0.0336471 0.0483263 0.292127
-0.450886 0.0473118 0.619377
-0.0794849 0.412248 0.714292
-0.145044 0.0124107 0.39752
-0.0178851 -0.0383881 0.00904085
-0.135305 0.0261131 -0.0830541
-0.0258575 -0.0360917 0.0699798
-0.0106028 -0.288953 0.536505
2.87736 -0.973903 3.80034
0.0632113 -0.049658 0.882748
0.00010613 0.036862 0.136583
-0.122341 -0.0842228 0.163024
-0.0350361 0.0471159 0.284085
0.0812249 0.439228 0.758335
0.406453 0.0452186 0.552732
0.122204 0.011771 0.332087
0.127175 0.025846 -0.0799287
0.0177782 -0.0383381 0.00909128
0.0188114 -0.0260285 0.0504269
-0.00494405 0.0435768 0.49823
0.000664362 -0.0266101 0.513737
-0.00279655 0.0155813 0.412776
0.00104821 -0.00013993 0.0277048
0.017876 0.0114868 0.384021
0.00686707 -0.00296522 0.259923
0 0 0
-7.58293e-19 2.18754e-18 -1.03571e-16
-0.0245127 -0.0191282 0.0803327
-0.00247372 -0.00416752 0.133878
0.000578801 0.00169534 0.0208382
-0.0289815 0.0249061 0.0687603
0 0 0
0.0393472 0.10149 0.622491
0 0 0
0.00622254 -0.00325196 0.0390804
-0.00172535 0.00879199 0.202957
-0.00106096 -0.000139273 0.0269334
-0.000302168 -0.0261689 0.518974
0.00200094 0.0135379 0.355323
-0.0188321 0.0111924 0.389715
0 0 0
-0.00587893 -0.00301767 0.267061
0 0 0
0.0377977 -0.0296187 0.123245
0.0297574 0.0253019 0.0700789
0.00212815 -0.00364551 0.118687
0 0 0
0 0 0
-0.00737572 -0.00406059 0.0470351
-0.0399326 0.0939775 0.58533
0 0 0
0 0 0
-0.783796 -0.426247 0.503947
0.000548891 -0.00417795 0.0519484
0.00171328 -0.170146 0.0430522
0 0 0
-0.000306272 -0.0029193 0.0595458
0.00163072 -0.00169053 0.00890254
-2.61323e-17 -1.59817e-17 1.1352e-17
2.73596e-05 0.0019305 0.00972653
-5.95802e-05 -0.00942457 -0.00161016
0 0 0
0 0 0
0.00311098 1.95242 1.46543
-0.000231541 0.0144585 0.0718329
0 0 0
-0.0611824 0.0398472 0.292663
0 0 0
0 0 0
0.0304902 -0.00312341 0.236273
-0.00168447 0.000491034 -0.00186474
0.797335 -0.459318 0.519822
0 0 0
4.52169e-05 -0.0028642 0.0585215
0 0 0
0 0 0
-0.00249248 -0.00266141 0.013991
0 0 0
0 0 0
0.0463772 0.0292939 0.222169
0 0 0
0.00230605 0.000684222 -0.00260381
-0.0307123 -0.00339403 0.237559
-0.00249936 0.0171471 0.210608
0.00102392 -9.67237e-05 0.0333633
0 0 0
-1.94685e-05 0.00117218 0.0150966
0 0 0
0 0 0
-5.76532e-05 0.00730204 0.0574116
0.00115027 0.00236729 0.0354919
0 0 0
-1.76451e-06 3.25036e-05 0.00392059
0.00591934 0.0434971 0.248289
-0.0242009 0.0390957 0.414165
0 0 0
-0.000248687 0.15059 0.497838
-3.65575e-05 0.00150617 0.0727658
6.64128e-06 -0.000229701 0.00893922
-0.000989826 -9.38777e-05 0.0317545
0.00241088 0.0157439 0.192355
0.00026218 -0.000931951 0.0124064
1.93627e-05 0.00119461 0.0153289
8.55397e-05 0.00615873 0.0487262
-0.00115048 0.00242923 0.0357491
0.0236123 0.0400311 0.415782
-0.00502826 0.0428978 0.251314
0 0 0
0 0 0
0.00524357 -0.0020683 0.0620295
0 0 0
-0.00303583 0.0182545 0.253795
0.000570834 0.00706511 0.0717456
-0.00185424 0.0138728 0.165422
0.00581894 0.0189519 0.107289
0 0 0
0.0223733 0.0347718 0.33397
0.0119714 -0.00498759 0.0504278
0.00439702 -0.0160423 0.0491177
0 0 0
0 0 0
0.000178552 -6.4147e-05 0.00807535
-0.000212874 -6.55234e-05 0.00811103