# vtk DataFile Version 2.0
tri_press
ASCII
DATASET UNSTRUCTURED_GRID
POINTS 3682 float
-0.715 0.245 -2.07802
-0.645 0.315 2.13618
-0.74719 0.645 -1.935
-0.570522 0.895 2.055
0.715 0.245 -2.07784
0.645 0.315 2.13616
0.747188 0.645 -1.935
0.570533 0.895 2.055
-0.789986 0.170014 -0.673287
-0.801747 0.158253 0.731447
-0.834087 0.87412 -0.605
-0.783921 0.966176 0.725
0.789942 0.170058 -0.673174
0.802051 0.157949 0.731493
0.833429 0.873459 -0.605
0.783874 0.966123 0.725
-1.49941 -0.139771 -3.20093
-1.50662 -0.0916459 -2.10708
-1.5527 -0.147533 -0.700419
-1.53589 -0.174362 0.721285
-1.4256 -0.0797843 2.12921
-1.39789 -0.020454 3.22926
-1.41221 0.0165315 4.31783
-1.50037 0.145629 -3.15631
-1.50947 0.227027 -2.07062
-1.57055 0.200969 -0.678495
-1.53184 0.177546 0.720365
-1.3648 0.258199 2.11392
-1.35815 0.31442 3.21292
-1.39267 0.351898 4.30391
-1.5156 0.655937 -3.04609
-1.53704 0.734436 -1.95728
-1.60057 0.887001 -0.616097
-1.52188 0.938619 0.719797
-1.32177 0.909001 2.06241
-1.33683 0.960927 3.16449
-1.38775 1.01344 4.26754
-1.53194 1.59036 -2.93694
-1.54619 1.69313 -1.85934
-1.56787 1.86692 -0.542376
-1.55239 1.98179 0.758482
-1.49897 2.00569 2.07622
-1.47022 2.01958 3.15544
-1.46727 2.04999 4.25033
-0.734476 -0.13112 -3.20571
-0.726459 -0.0781688 -2.11407
-0.771667 -0.162952 -0.699444
-0.791551 -0.187461 0.730746
-0.721257 -0.0508752 2.14573
-0.700638 -0.000527945 3.24047
-0.710663 0.0260799 4.32432
-0.73456 0.144121 -3.15776
-0.671892 0.334772 3.22216
-0.698129 0.360499 4.30881
-0.7456 0.619125 -3.03683
-0.654345 0.960624 3.16302
-0.69727 1.01456 4.26723
-0.756011 1.5652 -2.92778
-0.764345 1.66941 -1.84926
-0.791065 1.86235 -0.536294
-0.804329 1.9897 0.757766
-0.783477 2.00781 2.07103
-0.76305 2.018 3.15026
-0.758542 2.04839 4.24657
0.760526 -0.131204 -3.20559
0.759145 -0.0782085 -2.11393
0.793151 -0.16299 -0.699343
0.768636 -0.187674 0.730795
0.66465 -0.0509622 2.14574
0.665137 -0.000605609 3.24048
0.676685 0.0259853 4.32434
0.749735 0.14405 -3.15765
0.649012 0.334719 3.22216
0.667764 0.360415 4.30883
0.76013 0.619032 -3.03677
0.622315 0.960577 3.16302
0.653549 1.01448 4.26724
0.788684 1.56499 -2.92774
0.793761 1.66916 -1.84923
0.775228 1.86207 -0.53627
0.712042 1.98952 0.757785
0.649307 2.00769 2.07105
0.641497 2.01789 3.15027
0.650184 2.04828 4.24658
1.52009 -0.139993 -3.20072
1.52347 -0.0918448 -2.10685
1.56618 -0.147742 -0.700246
1.53545 -0.174701 0.721377
1.41075 -0.0800162 2.12924
1.38033 -0.020645 3.22929
1.38742 0.0163267 4.31786
1.5094 0.145407 -3.15612
1.50536 0.226786 -2.0704
1.57127 0.200718 -0.67833
1.54642 0.177199 0.720448
1.38375 0.258007 2.11394
1.35487 0.314261 3.21294
1.37187 0.351709 4.30395
1.5232 0.655659 -3.04596
1.53187 0.73406 -1.95719
1.59767 0.886331 -0.616024
1.53067 0.938356 0.719839
1.33425 0.908851 2.06243
1.32269 0.960782 3.16451
1.35321 1.01325 4.26757
1.55782 1.58994 -2.93685
1.56532 1.69265 -1.85927
1.55059 1.86641 -0.542319
1.478 1.98142 0.758527
1.39084 2.00544 2.07626
1.36496 2.01935 3.15548
1.36771 2.04976 4.25037
-0.758059 0.445 -2.03347
0 0.22387 -2.09906
-0.79147 0.16853 -1.37565
-0.664403 0.605 2.15223
0 0.311953 2.13922
-0.764491 0.195509 1.43381
-1.01328e-06 0.784689 -2.07469
-0.838929 0.80785 -1.27
5.48363e-06 0.948144 2.10814
-0.727967 0.981334 1.39
0.758856 0.445 -2.03418
0.791209 0.168791 -1.37551
0.66336 0.605 2.15117
0.765703 0.194297 1.43383
0.839134 0.808056 -1.27
0.727899 0.981257 1.39
-0.793926 0.166074 0.0290799
-0.889921 0.522067 -0.639143
-2.19216e-05 0.172081 -0.67323
-0.888379 0.562215 0.728223
0.000152382 0.150395 0.73147
-0.815955 0.927099 0.0600001
-0.000329068 1.15151 -0.605
-2.31976e-05 1.34281 0.725
0.793831 0.166169 0.0291599
0.889976 0.521758 -0.639087
0.888157 0.562036 0.728247
0.816075 0.927215 0.0600001
-0.875487 0.483533 -1.32283
0.87549 0.483379 -1.32275
-1.09608e-05 0.176999 -1.37558
-0.000165041 0.940482 -1.27
-5.06639e-07 0.445 -2.27514
-0.890862 0.542141 0.04454
0.890846 0.541897 0.04458
6.52302e-05 0.171038 0.0291199
-0.000176133 1.36955 0.0600001
-0.867038 0.583607 1.41191
0.867044 0.583518 1.41191
7.6191e-05 0.187424 1.43382
-8.85701e-06 1.1527 1.39
2.74181e-06 0.605 2.23136
-0.748481 0.345 -2.0677
-0.3575 0.233552 -2.08942
-0.79005 0.16995 -1.72684
-0.679296 0.46 2.1688
-0.3225 0.313964 2.13721
-0.723318 0.236682 1.785
-0.754226 0.545 -1.98584
-0.373596 0.748408 -2.03841
-0.820201 0.753567 -1.6025
-0.607573 0.75 2.09373
-0.285258 0.932569 2.09257
-0.654339 0.943261 1.7225
0.3575 0.233538 -2.08935
0.748588 0.345 -2.06767
0.789994 0.170005 -1.72667
0.3225 0.313741 2.13742
0.679343 0.46 2.16883
0.722812 0.237188 1.78499
0.373593 0.748559 -2.03856
0.754334 0.545 -1.9859
0.819379 0.752745 -1.6025
0.285269 0.931776 2.09178
0.607604 0.75 2.09374
0.652538 0.94145 1.7225
-0.783459 0.176541 -1.02447
-0.789255 0.170745 -0.322103
-0.873189 0.329422 -0.656215
-0.39656 0.167936 -0.673259
-0.774096 0.185904 1.08263
-0.790481 0.169519 0.380263
-0.866343 0.349594 0.729835
-0.401064 0.153791 0.731458
-0.836774 0.841251 -0.9375
-0.889323 0.711753 -0.622072
-0.826242 0.901831 -0.2725
-0.465787 1.10997 -0.605
-0.762905 0.980716 1.0575
-0.888113 0.790177 0.726612
-0.801348 0.948048 0.3925
-0.471658 1.31387 0.725
0.784262 0.175738 -1.02434
0.396526 0.167938 -0.673202
0.789244 0.170756 -0.322007
0.872175 0.3298 -0.65613
0.774162 0.185838 1.08266
0.401286 0.153803 0.731482
0.790434 0.169566 0.380327
0.867017 0.349035 0.72987
0.837998 0.842474 -0.9375
0.465322 1.11003 -0.605
0.888799 0.711157 -0.622043
0.82596 0.901545 -0.2725
0.762742 0.980545 1.0575
0.471941 1.3145 0.725
0.887459 0.789801 0.726623
0.80111 0.947804 0.3925
-0.858748 0.464267 -1.67815
-0.37903 0.445 -2.21854
-5.48041e-06 0.189347 -1.73732
-2.5332e-07 0.334435 -2.19327
-0.868763 0.326032 -1.34924
-0.395741 0.169891 -1.37562
-0.809834 0.594304 1.78207
-0.3322 0.605 2.21641
3.80955e-05 0.236967 1.78652
1.37091e-06 0.458476 2.26465
-0.859031 0.389558 1.42286
-0.382207 0.184409 1.43382
-8.3027e-05 0.876177 -1.67234
-7.59959e-07 0.614844 -2.21196
-0.878248 0.645692 -1.29641
-0.419547 0.929955 -1.27
-1.68669e-06 1.02322 1.74907
4.11272e-06 0.776572 2.14454
-0.843573 0.782471 1.40095
-0.363988 1.12661 1.39
0.858742 0.46419 -1.67847
0.379428 0.445 -2.21885
0.868768 0.326085 -1.34913
0.395599 0.169892 -1.37554
0.81001 0.594259 1.78154
0.331681 0.605 2.21643
0.858515 0.388907 1.42287
0.38289 0.184409 1.43382
0.878247 0.645717 -1.29638
0.419485 0.92852 -1.27
0.843592 0.782388 1.40096
0.363945 1.12637 1.39
-0.872337 0.339136 0.03681
-0.398643 0.16513 0.0290999
-0.88508 0.5028 -0.980985
-0.890335 0.532104 -0.297302
-1.64412e-05 0.171098 -1.02441
2.16543e-05 0.171433 -0.322055
-0.891774 0.552178 0.386382
-0.884835 0.572911 1.07007
0.000108806 0.163894 0.380295
0.000114286 0.164218 1.08265
-0.888613 0.752222 0.05227
-0.501616 1.33543 0.0600001
-0.000247054 0.964793 -0.9375
-0.000252601 1.31181 -0.2725
-9.96653e-05 1.3725 0.3925
-1.60273e-05 1.27404 1.0575
0.871828 0.339288 0.0368699
0.398678 0.165144 0.0291399
0.887069 0.502569 -0.98092
0.890306 0.531828 -0.297253
0.891459 0.551966 0.386413
0.884838 0.572777 1.07008
0.888592 0.752121 0.05229
0.501456 1.3354 0.0600001
-0.852746 0.335516 -1.70249
-0.8806 0.336036 -1.00273
-0.887401 0.671892 -0.959243
-0.861383 0.595346 -1.64033
0.852753 0.335542 -1.70257
0.86138 0.595359 -1.64048
0.887509 0.671663 -0.95921
0.880626 0.335996 -1.00263
-0.37662 0.196474 -1.73208
0.37655 0.196449 -1.732
0.39528 0.168575 -1.02437
-0.395372 0.168579 -1.02444
-0.396571 0.868244 -1.63742
-0.418377 0.953894 -0.9375
0.418017 0.931694 -0.9375
0.396539 0.86841 -1.63742
-0.368265 0.339718 -2.13802
-0.376313 0.579922 -2.18091
0.376511 0.579922 -2.18119
0.368464 0.339718 -2.13799
-0.87247 0.334426 -0.309703
-0.871984 0.343043 0.383323
-0.885171 0.769604 0.389441
-0.888001 0.731504 -0.284901
0.872073 0.334509 -0.30963
0.888007 0.731295 -0.284877
0.884884 0.76939 0.389457
0.87161 0.343068 0.38337
-0.3977 0.166335 -0.322079
0.397698 0.166349 -0.322031
0.400021 0.159396 0.380311
-0.399887 0.159393 0.380279
-0.508919 1.27313 -0.2725
-0.493357 1.33809 0.3925
0.493712 1.33897 0.3925
0.508633 1.2732 -0.2725
-0.873009 0.374896 1.07635
-0.805891 0.424779 1.78353
-0.784635 0.766235 1.75228
-0.874323 0.773333 1.06378
0.873381 0.37445 1.07637
0.874815 0.773233 1.06379
0.785424 0.766194 1.75202
0.804706 0.424454 1.78327
-0.391502 0.161184 1.08264
0.391996 0.161189 1.08265
0.352695 0.236616 1.78576
-0.352354 0.236484 1.78576
-0.37798 1.24756 1.0575
-0.324623 1.00747 1.73579
0.324607 1.01029 1.73579
0.377935 1.24776 1.0575
-0.32735 0.459238 2.25067
0.327091 0.459238 2.25095
0.308475 0.763286 2.12662
-0.308729 0.763286 2.12713
-0.729037 0.295 -2.07016
-0.53625 0.232102 -2.0909
-0.771383 0.188617 -1.90243
-0.667959 0.3875 2.1583
-0.48375 0.311499 2.13968
-0.690051 0.269949 1.96059
-0.746942 0.595 -1.95665
-0.560393 0.700822 -1.99082
-0.790095 0.705683 -1.76875
-0.587269 0.8225 2.07258
-0.42789 0.9138 2.0738
-0.605535 0.912235 1.88875
0.53625 0.232046 -2.09082
0.729172 0.295 -2.07013
0.771977 0.188023 -1.90226
0.48375 0.310546 2.14062
0.667484 0.3875 2.15781
0.69033 0.26967 1.96058
0.560391 0.700674 -1.99067
0.747212 0.595 -1.9569
0.790001 0.70559 -1.76875
0.427901 0.914793 2.07479
0.587123 0.8225 2.07243
0.605905 0.912594 1.88875
-0.779935 0.180065 -0.848879
-0.7811 0.1789 -0.497695
-0.862757 0.234133 -0.664751
-0.593598 0.168324 -0.673273
-0.777083 0.182917 0.907038
-0.799628 0.160372 0.555855
-0.868138 0.236877 0.730641
-0.606629 0.145574 0.731453
-0.836781 0.859036 -0.77125
-0.8674 0.795784 -0.613536
-0.830393 0.888203 -0.43875
-0.695636 1.08344 -0.605
-0.773471 0.973504 0.89125
-0.850462 0.885399 0.725806
-0.792516 0.956994 0.55875
-0.662151 1.20874 0.725
0.780122 0.179878 -0.848757
0.593653 0.16816 -0.673188
0.781132 0.178868 -0.49759
0.862786 0.234065 -0.664652
0.777161 0.182839 0.907077
0.606817 0.145579 0.731488
0.794878 0.165122 0.55591
0.868031 0.236744 0.730682
0.836511 0.858764 -0.77125
0.695274 1.08354 -0.605
0.868213 0.795858 -0.613522
0.830346 0.888154 -0.43875
0.773395 0.973421 0.89125
[...]
POINT_DATA 3682
SCALARS point_scalars float 1
LOOKUP_TABLE default
-41.3274
-41.8875
-31.9227
-34.1907
-40.8518
-41.5929
-32.5637
-34.2015
-39.128
-50.0577
-56.5984
-50.5136
-39.1314
-50.8628
-56.5533
-50.455
-24.3697
-78.7124
-38.6881
-43.7003
-43.6713
-39.8194
-37.8171
-11.2534
-68.0966
-39.8822
-43.1072
-42.9371
-38.1428
-36.8241
73.0397
-85.7232
-47.9369
-47.9695
-39.1565
-36.3479
-36.1021
0.46928
-55.9377
-75.9758
-57.2286
-36.3911
-34.1817
-34.1817
111.372
-91.8015
-38.5274
-50.1127
-42.4241
-36.7634
-36.5413
111.372
-36.6785
-36.0455
176.158
-35.5671
-35.5397
53.2454
-40.8272
-76.1061
-60.2019
-33.8288
-32.4108
-31.5091
109.716
-82.281
-37.6151
-50.6418
-42.4811
-36.6698
-36.5103
109.716
-36.6592
-36.0314
171.553
-35.562
-35.4028
51.0934
-41.5623
-75.7949
-61.4634
-33.1329
-32.2535
-30.3687
-23.9703
-79.0594
-38.7292
-44.1493
-43.5738
-39.7833
-37.8263
-11.2411
-69.8201
-40.0671
-41.8589
-42.8347
-38.1672
-36.8351
75.4797
-85.585
-48.0113
-47.2688
-39.1592
-36.3131
-36.0927
-19.1471
-54.7557
-75.5982
-57.1822
-35.6441
-34.1833
-33.99
-28.0335
-161.328
-52.9404
-36.0244
-39.5638
-47.4148
-58.7998
-49.515
-30.2543
-41.8655
-22.7
-52.9506
-35.998
-47.6653
-49.3966
-41.8286
-37.3052
-42.5809
-41.9997
-42.689
-46.4076
-55.705
12.3023
-60.645
-37.1809
-42.5891
-42.5235
-55.7022
-53.758
-53.7129
-59.0778
-13.0699
198.272
-42.3495
-42.3564
-38.3082
-96.6011
-46.8093
-46.8703
-49.8134
-35.8337
-31.9656
-12.8608
-149.128
-79.1607
-38.6269
-39.8837
-47.4081
-27.0834
-31.9817
-54.3973
-35.4545
-31.5012
-35.5517
-151.69
-13.0076
-79.0376
-39.809
-38.6224
-47.69
-31.746
-25.5777
-53.3119
-31.5411
-35.4483
-35.5245
-45.1798
-34.4343
-39.5355
-41.0665
-43.8773
-37.7031
-40.0015
-45.9493
-43.0651
-47.0027
-57.6386
0.111526
-47.7837
-47.4006
-53.1594
-59.3086
-45.2459
-41.1082
-34.4998
-39.5595
-43.9034
-46.1239
-37.9628
-39.7217
-43.1599
0.22141
-47.0294
-57.7671
-47.7687
-59.3451
-47.6352
-53.026
-82.0657
177.717
-74.96
172.605
-53.6207
-58.2436
-42.8998
-34.0453
-47.7705
-35.955
-47.0044
-49.3249
-29.9821
160.892
-53.8927
-18.8913
-32.07
-31.2115
-45.2656
-36.6368
-82.0443
178.647
-53.5724
-58.3584
-42.9202
-34.0362
-47.0409
-49.4442
-53.9672
-18.5701
-45.2794
-36.6542
-39.5415
-38.0664
-45.6051
-42.2698
-48.944
-38.8844
-42.7341
-45.9524
-40.5622
-47.8624
-48.1371
-88.1354
11.6945
-78.4097
-76.5301
-44.9718
-39.5124
-38.0968
-45.5697
-42.2777
-42.704
-45.9258
-47.9022
-87.8111
-82.066
-47.551
-45.6205
-82.015
-81.9158
-81.9069
-45.483
-47.5311
-72.335
-72.823
-47.9035
-47.902
-33.1544
-0.467638
-0.17822
-33.1033
153.795
139.216
142.907
155.327
-39.0394
-40.2374
-47.0712
-47.8045
-39.0841
-47.8685
-46.9971
-40.3189
-38.3406
-38.3709
-40.4555
-40.4222
-78.6482
-70.8093
-71.0431
-78.987
-45.179
-45.1739
-40.447
-46.9098
-44.9864
-46.5839
-40.4576
-45.2235
-47.238
-47.2647
-47.4637
-47.1616
-45.6621
-32.7406
-32.762
-45.6551
-36.394
-36.3777
-32.7794
-32.8047
-10.866
-156.107
-78.1491
-40.2352
-39.9957
-44.4765
-25.3526
-20.1337
-46.3593
-35.1419
-32.6165
-33.9356
-155.061
-10.9034
-79.2806
-40.0358
-40.2261
-44.206
-20.183
-25.3881
-46.539
-32.557
-35.1731
-33.9848
-39.4971
-36.0149
-38.5249
-39.8054
-43.4657
-40.3225
-42.612
-48.9341
-49.1902
-50.335
-57.6996
-56.3354
-49.0673
-48.7032
-51.4949
-56.255
-39.6136
-39.8461
-36.0578
-38.543
-43.5112
-49.0067
-39.146
-42.9449
-48.7987
-56.595
-50.3845
-57.8009
-49.1422
-56.1854
-48.6688
-51.5218
-23.7911
-27.8725
-81.1518
150.919
-149.511
-160.258
-93.7952
97.9193
-61.5737
-48.9466
-52.9736
-56.2064
-38.2461
-35.6203
-39.9318
-34.6743
-39.8344
-39.7656
-42.5197
-37.7231
-50.7568
-44.8901
-47.4384
-48.4756
-49.2933
-50.1505
-37.9403
121.831
-54.8333
-44.7589
-55.4352
-28.7504
-30.7661
-30.7874
-31.335
-28.8229
-38.3606
-45.5441
-43.9652
-38.1146
-28.0595
-25.902
-80.6433
152.79
-61.605
-48.8046
-52.9395
-56.3739
-38.165
-35.63
-39.9216
-34.6622
-51.0089
-44.822
-47.5794
-48.6436
-55.1577
-44.9038
-55.5713
-28.4182
-38.3159
-45.5705
-43.9499
-38.1116
-36.8148
-38.5634
-38.3158
-37.8108
-41.0839
-44.2586
-43.3851
-42.3279
-41.7729
-41.7807
-44.951
-39.9321
-40.763
-44.6056
-43.1052
-45.6119
-46.5269
-46.7785
-42.5679
-46.9819
-56.8465
-55.0002
-51.1904
-68.1386
9.63136
9.59945
23.1927
-22.0102
-60.5761
-60.4951
-70.1807
-52.098
-36.8317
-38.6809
-38.2415
-37.843
-41.0751
-44.2865
-43.6687
-42.3573
-40.7387
-44.6125
-43.1114
-45.6037
-56.8893
-54.986
-51.0636
-68.1109
-62.1776
-53.5947
-53.9698
-48.9148
-62.142
-53.544
-53.9652
-48.7917
-65.6435
-58.4131
-58.4725
-53.1568
-21.7619
-14.5066
-14.4983
-0.8623
189.095
159.917
190.142
187.963
-40.8494
-42.3185
-42.275
-44.4618
-40.8508
-42.3172
-42.2895
-44.4331
-38.2324
-38.4625
-38.1342
-38.2509
-95.3456
-100.254
-86.0054
-95.2112
-45.6061
-46.5763
-46.6872
-46.2424
-45.5065
-46.6239
-46.7744
-46.2448
-49.113
-49.677
-49.729
-50.3593
-33.2844
-36.0848
-36.111
-39.4276
-32.6999
-35.0434
-31.686
-32.7396
-77.5639
160.036
-93.047
92.2068
-81.2808
-74.0191
-41.4024
-36.5721
-42.9292
-37.5147
-45.9478
-46.9219
-77.3518
90.7053
-41.8252
85.0858
-77.7232
-37.1478
-38.8039
-34.6723
-31.8749
-32.0216
-38.6391
-33.6039
-94.167
95.5686
-77.9545
159.188
-80.8338
-74.1474
-42.5489
-37.5172
-41.3057
-36.5623
-45.877
-47.833
-41.8091
83.0178
-77.806
92.2558
-77.4926
-37.683
-31.8407
-32.0326
-38.7969
-34.6828
-38.6792
-33.6083
-48.7489
-46.6757
-37.5565
-37.2348
-41.3554
-39.0123
-43.9952
-39.2052
-43.7089
-45.4687
-38.989
-40.0919
-41.1617
-46.1468
-42.4202
-46.5865
-46.4321
-14.9402
-45.5629
-47.7661
-52.1332
-78.7303
8.9323
-24.3863
-46.94
-47.5422
-46.4127
-45.0745
-49.9664
-60.1982
-65.8494
-52.8435
-48.8136
-46.4495
-44.0353
-39.2509
-37.637
-37.2632
-41.6154
-39
-43.3926
-45.4854
-42.4662
-46.2606
-39.1375
-40.0942
-41.0029
-46.3701
-46.3695
-15.7946
8.23478
-24.4004
-45.6714
-47.7739
-52.2056
-79.5851
-46.9195
-47.5289
-65.784
-52.8228
-46.4392
-44.956
-49.9345
-60.1541
-81.7178
-81.542
157.98
175.892
-73.5592
-74.0455
176.605
166.499
-61.7183
-47.9734
-65.4112
-52.8397
-44.111
-41.9312
-36.0443
-33.6091
-47.4024
-47.4543
-36.1631
-36.1497
-45.9051
-48.744
-49.7084
-49.518
-31.4293
-31.0921
156.823
159.656
-48.4333
-62.6737
-25.9459
-8.72217
-32.2603
-32.2854
-31.9527
-31.9661
-42.7698
-46.8544
-40.275
-34.1304
-81.6553
-81.4546
177.145
159.136
-61.6942
-47.9314
-65.6063
-52.8444
-41.965
-44.2182
-36.0282
-33.6057
-45.9544
-48.8089
-49.7705
-49.7229
-62.6921
-48.3806
-8.68516
-26.1068
-46.8401
-42.7096
-34.1443
-40.2852
-39.2661
-39.7933
-38.1146
-38.0657
-46.4639
-45.3535
-40.593
-44.5624
-48.6239
-48.6424
-38.7545
-38.7687
-41.3061
-44.4113
-45.5878
-46.351
-40.508
-40.4827
-47.8861
-47.9155
-47.0846
-46.8984
-91.5115
-77.9773
8.55407
8.55211
-79.1856
-79.1785
-75.2926
-75.3236
-44.9367
-44.9334
-39.2406
-39.8675
-38.1383
-38.1096
-45.3792
-46.3284
-40.6026
-44.5965
-44.3639
-41.3131
-45.5478
-46.2707
-47.1584
-47.0776
-77.9032
-91.3313
-66.6142
-61.4166
-62.0972
-82.2053
-39.1048
-42.4566
-48.6731
-47.3462
-48.3915
-48.5827
-48.2998
-44.2726
-59.9627
-82.2757
-62.082
-64.1047
-67.7199
-81.976
-62.0642
-61.4026
-60.1507
-64.371
-62.0591
-82.4248
-48.2554
-44.4051
-48.2466
-48.6646
-39.2611
-47.2603
-48.5819
-42.8422
-93.9738
-92.6754
-65.6195
-63.6467
-94.4521
-63.7114
-65.7511
-94.3311
-43.1129
-44.7014
-53.4897
-50.7326
-42.9866
-50.7668
-53.5061
-44.7049
-41.6155
-32.6005
-22.8916
-41.8272
-14.7254
19.0402
-2.43349
-22.1398
-14.8477
-22.1796
-2.44101
19.0721
-41.8385
-42.227
-23.1016
-32.1233
112.997
147.806
161.544
109.784
58.869
110.249
182.698
132.477
59.2523
132.18
181.552
111.163
111.351
68.0432
158.128
148.038
-37.0485
-38.0001
-40.748
-40.5737
-40.5268
-41.938
-40.8661
-38.7108
-48.7931
-49.9593
-44.2346
-44.5891
-52.0768
-44.5254
-44.3985
-51.1151
-37.0955
-40.5997
-40.7343
-37.9589
-52.1462
-51.2941
-44.4196
-44.5445
-48.8316
-44.4942
-44.2283
-49.9664
-40.241
-38.7826
-40.9219
-41.8703
-37.7594
-39.7566
-38.3671
-37.753
-37.8021
-37.7675
-38.3781
-39.7727
-41.7648
-42.4547
-38.1624
-38.0041
-41.7748
-37.9536
-38.1237
-42.4004
-78.4065
-72.3757
-98.0949
-20.3379
-57.1076
-68.9029
-84.3844
-64.0509
-57.0753
-63.9652
-84.3701
-68.9296
-78.0303
-20.3532
-98.1499
-72.4859
-46.0231
-45.2558
-46.0484
-46.5246
-42.5554
-40.9231
-47.2602
-49.841
-36.8417
-41.3619
-44.0386
-39.3606
-47.0987
-44.8207
-46.6768
-46.2673
-45.8682
-46.476
-46.0742
-45.236
-47.079
-46.288
-46.6437
-44.8332
-36.8199
-39.3927
-43.9558
-41.3883
-42.4541
-50.0108
-47.1564
-40.9024
-44.7396
-46.8915
-50.0996
-47.8585
-44.5704
-47.9274
-50.1187
-46.5301
-42.9597
-42.529
-49.3035
-50.3943
-44.3095
-50.0902
-49.2394
-42.6096
-53.0247
-42.1421
-39.6448
-52.4253
-32.6508
-31.4998
-33.5061
-35.3231
-32.6274
-35.3208
-33.5084
-31.4931
-53.0482
-52.4338
-39.6199
-42.137
-38.0298
-37.5261
-35.3844
-36.1959
-38.0385
-36.1866
-35.3683
-37.553
-33.9447
-30.27
-32.1707
-34.8127
-33.9133
-34.8068
-32.1799
-30.2725
-24.6131
-88.469
-80.0488
-41.3392
-40.5892
-42.0664
-24.9538
-11.8694
-43.6607
-34.9347
-33.056
-33.6261
-88.0413
-24.6587
-79.7787
-40.4159
-41.3177
-41.8891
-12.0884
-25.4544
-43.404
-33.1321
-34.9664
-33.6879
-37.5171
-38.551
-38.6356
-39.8881
-47.6218
-43.858
-47.1085
-50.0517
-55.5099
-53.0828
-56.7104
-72.8483
-49.8363
-49.5648
-51.016
-52.2169
-37.5599
-39.9066
-38.5791
-38.6429
-47.4598
-50.2386
-42.827
-47.4733
-55.3877
-73.0223
-52.9754
-56.6456
-49.8547
-52.1712
-49.5878
-50.8923
-25.6004
-27.9406
-64.6402
95.8244
-160.17
-162.62
-112.824
26.1384
-56.5841
-50.6618
-52.3444
-54.8079
-37.103
-35.4022
-38.0985
-35.1805
-39.6867
-39.6568
-40.8566
-38.3332
-50.9142
-45.5978
-46.9201
-47.7793
-55.5562
-56.5466
-42.4531
31.6827
-49.9479
-48.1552
-52.8666
-38.921
-30.4769
-30.4256
-31.4724
-27.6923
-39.9461
-43.7193
-42.8187
-39.9227
-21.9792
-27.4879
-63.1658
96.9574
-56.624
-50.6164
-52.2959
-54.8883
-37.0616
-35.4483
-37.988
-35.1787
-51.3216
-45.453
-47.1401
-48.0054
-50.3852
-48.0098
-53.6094
-38.8194
-39.9783
-43.6309
-42.7739
-39.8938
-37.0389
-37.6953
-37.5116
-37.6207
-41.8638
-43.3836
-42.9246
-42.3481
-41.9488
-41.9501
-43.3523
-40.8441
-41.673
-43.8931
-43.0349
-44.1651
-46.8023
-46.9938
-44.1987
-48.0143
-56.4383
-55.3566
-53.3029
-60.9035
11.7195
11.7166
20.8987
-3.98383
-60.6435
-60.5175
-64.9837
-56.3586
-36.9564
-37.6878
-37.3922
-37.6244
-41.8608
-43.4149
-42.9647
-42.3754
-41.4698
-43.7738
-42.892
-44.1163
-56.3908
-55.3796
-53.2429
-60.9819
-57.2239
-53.6219
-53.7793
-50.5288
-57.1876
-53.5721
-53.7507
-50.4457
-62.2773
-58.8754
-58.9156
-55.8865
-17.3296
-13.2496
-13.258
-6.28337
190.041
173.118
208.68
188.602
-41.5611
-42.225
-42.3169
-43.3485
-41.5682
-42.2288
-42.3492
-43.3478
-38.2795
-38.3913
-38.3525
-38.2888
-96.2936
-99.3208
-92.6228
-96.2314
-46.6168
-46.4372
-46.9256
-46.7408
-46.5889
-46.5174
-46.9906
-46.7724
-49.4737
-49.7746
-49.7967
-50.2815
-34.4978
-35.9005
-35.9327
-37.4692
-32.2192
-33.5365
-31.535
-32.1877
-14.9637
-17.1729
-64.3387
112.913
-169.67
-141.183
-111.138
-16.1955
-80.2807
-70.0678
-83.3063
-75.4244
-39.2586
-38.2834
-40.2459
-37.0557
-40.1476
-39.8038
-41.429
-38.3668
-44.9547
-48.642
-47.0627
-47.6315
-26.2223
-26.6076
-49.6869
40.9568
-21.5316
-38.2396
-42.0444
46.6107
-53.4087
-58.1414
-64.3613
-43.724
-35.2895
-35.568
-37.6697
-34.903
-31.9848
-30.9888
-31.9358
-31.3624
-34.7316
-36.9358
-37.0263
-34.3492
-169.318
-152.822
-112.69
-10.3906
-14.7688
-18.371
-64.0454
112.302
-80.1205
-70.1046
-82.8351
-75.3828
-40.2629
-39.7657
-40.6895
-38.4207
-39.2422
-38.5474
-40.1593
-37.0571
-44.8278
-48.8997
-47.0502
-47.942
-20.7188
-39.015
-42.2206
43.9821
-25.6984
-24.5647
-50.5405
40.073
-53.7811
-57.3812
-64.1341
-44.2003
-31.9663
-31.1081
-31.9545
-31.3862
-35.2773
-35.5637
-37.6742
-34.894
-34.7143
-36.9142
-37.0449
-34.3508
-41.3992
-50.0269
-47.4942
-45.5156
-34.3908
-36.5297
-36.173
-35.6468
-38.9964
-40.2718
-40.2942
-39.2106
-40.565
-41.4935
-42.3528
-39.9646
-43.1972
-44.4546
-43.4483
-44.7431
-37.4214
-38.6596
-37.768
-39.4153
-37.5575
-40.2966
-41.1846
-43.3352
-46.5101
-46.2218
-44.1124
-47.0138
-44.6201
-43.0913
-46.2671
-30.2753
-48.4418
-45.4415
-46.1262
-47.2887
-57.9552
-57.2859
-54.3908
-64.6011
-10.2376
6.49585
7.9574
-10.2987
-48.5408
-46.4844
-47.671
-49.0001
-48.1083
-45.5158
-45.4777
-46.8884
-52.689
-54.2389
-52.1842
-56.2282
-58.7544
-60.2167
-62.6838
-56.8891
-41.5866
-49.6965
-47.562
-45.4755
-40.6114
-41.5167
-42.3959
-40.0116
-34.4446
-36.5699
-36.2788
-35.6861
-39.029
-40.2746
-40.4623
-39.1934
-43.1651
-44.4545
-43.4227
-44.7552
-46.622
-46.4902
-44.1778
-46.7163
-38.4814
-38.793
-38.0193
-39.3503
-37.9135
-40.0602
-40.9171
-43.4665
-45.0547
-43.3707
-46.5664
-30.876
-9.81287
6.52734
7.68067
-10.3231
-48.5036
-45.4753
-46.2435
-47.2598
-58.078
-57.3613
-54.4893
-64.9773
-48.5402
-46.5439
-47.6191
-48.9481
-58.7216
-59.9106
-62.6214
-56.8585
-48.1315
-45.7729
-45.6457
-46.6919
-52.6807
-54.1749
-52.1405
-56.154
-93.7445
-69.1028
-81.7401
-81.7372
163.649
189.53
164.474
188.167
-81.7827
-69.8453
-74.4014
-74.6773
148.74
165.815
167.27
164.99
-53.6349
-53.5265
-56.5571
-51.0139
-57.5566
-58.3233
-61.5717
-55.8531
-41.5939
-44.4639
-43.5092
-42.4496
-34.4528
-33.4699
-35.1991
-33.9902
-44.6352
-48.8825
-47.3393
-47.2655
-36.5978
-35.6114
-35.9619
-35.9622
-47.3849
-46.7562
-46.5144
-48.6086
-49.1517
-49.5175
-49.3971
-49.538
-34.4679
-26.1258
-30.5629
-30.1572
148.472
171.904
153.307
153.055
-55.2745
-54.066
-50.1718
-57.6358
-21.8212
-16.8099
-22.1547
-13.3303
-31.5998
-32.4794
-32.1126
-32.1406
-30.3767
-31.568
-31.3927
-31.4065
-44.6629
-45.8724
-43.9073
-46.6104
-37.2587
-36.2867
-38.2269
-35.2211
-93.5578
-69.0487
-81.7029
-81.6917
161.984
189.657
189.107
164.932
-53.5651
-53.4788
-56.521
-50.9607
-57.704
-58.4048
-61.7621
-55.9052
-41.6236
-44.4434
-42.462
-43.495
-34.4404
-33.4609
-35.1846
-34
-47.4508
-46.7837
-46.5931
-48.6795
-49.2971
-49.6017
-49.4871
-49.6955
-55.3867
-54.0957
-57.6681
-50.1959
-21.4594
-16.6571
-12.8628
-22.3634
-44.6453
-45.9175
-46.6379
-43.8812
-37.2807
-36.3153
-35.2473
-38.286
-39.2093
-40.2079
-39.4024
-39.6674
-37.9705
-38.1691
-38.0758
-38.1389
-44.1501
-47.7147
-46.0609
-45.4163
-42.317
-42.3142
-41.4151
-43.3753
-46.8681
-50.9527
-48.8367
-48.8476
-39.326
-38.6091
-38.8459
-38.8527
-42.9358
-42.4818
-42.0259
-43.5211
-45.4862
-45.9841
-45.7348
-46.209
-40.8324
-39.2787
-40.519
-40.5048
-46.7685
-49.4764
-47.9082
-47.9247
-50.2958
-45.726
-47.2199
-47.5046
-78.4753
-91.6681
-90.5441
-82.9391
18.0355
5.01089
10.9328
10.5689
-49.8008
-90.9752
-79.1272
-78.9705
-73.8382
-79.9232
-76.2574
-76.2435
-48.1219
-41.8721
-44.674
-44.6668
-39.1916
-40.1917
-39.3587
-39.6697
-38.001
-38.1945
-38.1023
-38.1755
-44.5798
-47.434
-45.3984
-46.0553
-42.3399
-42.3172
-41.4182
-43.3955
-42.9701
-42.4409
-43.5147
-41.9674
-45.4587
-45.9755
-45.7028
-46.1674
-50.0116
-45.6726
-47.4098
-47.2805
-77.4585
-91.5294
-82.9353
-89.9681
-91.0572
-81.4753
-81.8717
-68.1672
-48.1834
-42.9627
-49.346
-46.6073
-46.0041
-45.4102
-46.7495
-45.4117
-92.2383
-80.0404
-81.4589
-70.3595
-90.949
-81.2675
-81.784
-68.132
-91.8505
-79.846
-81.3513
-70.334
-45.7701
-45.3762
-46.6423
-45.4064
-48.2653
-43.1182
-49.252
-46.4767
-80.9234
-72.486
-72.6843
-68.0262
-81.75
-72.7906
-73.283
-68.3514
-47.4524
-45.9072
-50.1171
-48.3444
-47.4489
-45.8807
-50.1337
-48.3522
-36.9152
-35.066
-32.4548
-29.9961
-6.20909
4.03435
-5.5291
4.48396
-4.43871
4.94456
-6.27787
4.42035
-36.8102
-35.2692
-32.2225
-30.024
161.705
153.032
150.157
173.466
106.131
105.871
159.047
154.138
104.38
106.703
160.503
161.007
154.804
162.404
170.52
151.537
-38.6613
-38.9867
-39.2013
-39.855
-40.0067
-40.7298
-39.9374
-40.7657
-46.7996
-48.2821
-45.5063
-47.2281
-47.8984
-49.9622
-45.9802
-47.6785
-38.6998
-39.0218
-39.2189
-39.8804
-47.9451
-50.0138
-46.0248
-47.7564
-46.7542
-48.286
-45.3899
-47.1653
-40.1007
-40.8659
-40.0104
-40.8066
-38.0483
-38.7144
-38.151
-38.6012
-38.7506
-38.0784
-38.6241
-38.1769
-41.0656
-40.403
-40.5024
-39.2687
-40.3762
-41.028
-39.232
-40.4708
-92.7285
-46.5096
-88.5532
-75.8245
-66.4231
-68.463
-74.0951
-73.3371
-68.5705
-66.491
-73.42
-74.0514
-46.5172
-92.818
-75.7102
-88.9862
-44.826
-45.1664
-45.1252
-45.3276
-43.0435
-45.3427
-44.7712
-47.1038
-39.4907
-39.5781
-41.252
-41.9003
-46.8714
-46.6295
-46.675
-46.8191
-44.5452
-44.5153
-45.2327
-45.2758
-46.7258
-46.704
-46.744
-46.4923
-39.4793
-39.5814
-41.2794
-41.868
-43.1278
-45.2928
-44.8452
-47.1406
-46.6063
-46.2725
-48.9424
-47.5792
-46.6223
-46.2776
-48.9873
-47.6092
-44.9026
-48.0803
-47.6802
-49.1447
-44.7024
-47.0188
-47.5594
-48.8763
-46.4455
-49.0598
-42.6884
-45.152
-32.1964
-33.1039
-32.469
-33.3576
-32.1642
-33.1487
-32.4839
-33.4018
-46.4503
-49.0533
-42.6656
-45.1422
-36.3863
-36.7673
-36.2136
-36.2243
-36.755
-36.374
-36.2184
-36.2035
-32.7227
-33.8323
-32.5068
-33.1471
-33.8596
-32.7091
-33.1662
-32.5149
-55.8919
84.9729
-116.944
34.6012
-71.8532
-89.7807
-41.6034
-39.0155
-41.9929
-38.7198
-43.7437
-44.649
-49.9855
33.8965
-35.5626
12.3644
-49.189
-38.3248
-36.4463
-34.5131
-32.4877
-33.2882
-35.547
-33.1382
-117.211
33.278
-55.6429
84.4166
-73.4569
-90.3244
-41.0562
-38.7617
-41.5052
-39.0522
-43.5773
-44.1011
-36.4172
15.511
-50.3047
33.8121
-49.0296
-37.6527
-32.4423
-33.2568
-36.4894
-34.5711
-35.3975
-33.1894
-38.1559
-41.7082
-36.1285
-36.7069
-39.0721
-37.9606
-40.6977
-38.8361
-44.4262
-44.0112
-40.4709
-41.1333
-41.154
-48.0675
-44.3734
-47.9371
-49.7833
-45.0602
-49.4251
-51.3091
-54.1683
-67.0587
-34.0604
-73.7059
-48.9229
-49.9118
-48.7206
-47.4991
-50.7741
-53.9621
-56.0111
-54.8825
-38.2999
-41.8076
-40.7593
-38.8978
-36.1884
-36.7345
-39.1437
-37.9808
-44.3357
-43.8331
-44.3336
-47.7459
-39.3511
-40.8722
-41.0737
-47.6394
-49.6551
-44.0543
-33.799
-73.2858
-49.373
-51.3869
-54.2014
-67.1733
-48.981
-49.911
-55.9964
-54.7765
-48.7385
-47.5323
-50.8036
-53.9189
-65.4519
104.718
-58.0697
72.2678
-81.8559
-81.7977
140.854
144.959
-110.988
8.328
-113.785
11.9005
-93.2226
-94.0695
87.9778
94.7079
-61.5372
-62.998
-46.7028
-49.8841
-55.9285
-50.8851
-59.4476
-53.1231
-39.4493
-36.7201
-37.9078
-35.0148
-40.4813
-39.6274
-35.6537
-34.7322
-40.9728
-38.2655
-40.8953
-38.4269
-42.5206
-42.5502
-37.6853
-37.61
-51.1946
-50.6907
-44.5452
-46.5072
-46.4873
-49.8654
-47.4062
-50.3261
-48.0436
4.6415
-48.1113
3.6382
-39.098
-39.445
120.592
122.815
-62.7878
-42.4917
-47.7859
-32.932
-52.1918
-59.8686
-29.4515
-25.0083
-31.5833
-29.2416
-31.6025
-29.2297
-31.3827
-31.3757
-29.4355
-29.4611
-39.8916
-36.6157
-46.0829
-44.1699
-42.518
-45.52
-40.0112
-36.5795
-64.389
102.428
-57.9636
74.2049
-81.4245
-81.791
145.851
141.258
-61.5177
-63.0512
-46.5967
-49.7742
-55.9104
-50.8205
-59.5618
-53.416
-39.3222
-36.7019
-37.942
-34.9997
-39.6552
-40.4662
-35.6457
-34.7198
-51.3461
-50.9619
-44.5641
-46.5446
-46.5636
-50.0105
-47.5157
-50.5639
-63.2293
-41.7871
-48.0461
-33.1723
-60.0001
-52.0872
-24.8735
-28.468
-39.8855
-36.5971
-46.0985
-44.1835
-45.5489
-42.5214
-36.5782
-40.0081
-37.009
-37.5445
-38.1002
-37.8434
-38.2399
-38.5972
-37.725
-37.8661
-41.619
-40.7517
-44.2928
-44.2928
-42.9597
-43.7782
-41.4873
-43.3305
-43.0994
-40.6133
-43.1016
-40.6283
-44.8792
-44.8835
-39.8934
-39.9006
-41.7667
-44.8531
-44.4258
-44.7419
-42.4176
-43.8535
-46.2253
-44.8778
-43.9421
-47.9631
-44.0272
-47.584
-42.5177
-42.4834
-46.8882
-46.6605
-54.0419
-62.8369
-52.9512
-58.9976
-49.9242
-52.0823
-70.3612
-65.9168
17.3789
-4.47572
17.3517
-4.4919
21.8289
21.7325
-21.2581
-21.2941
-64.7934
-56.3881
-64.7032
-56.3927
-69.8635
-70.0363
-52.1684
-52.181
-36.9949
-37.5453
-38.1858
-37.9043
-38.1482
-38.5882
-37.7471
-37.9137
-41.6428
-40.7554
-44.2971
-44.3361
-43.9227
-43.2699
-41.5189
-43.3735
-41.6232
-44.8896
-44.408
-44.6391
-43.861
-42.4504
-46.2198
-44.8711
-54.1053
-62.9228
-52.9299
-58.9133
-51.7222
-49.9795
-65.8612
-70.3288
-62.1327
-62.1485
-56.9223
-50.8394
-48.8486
-57.1729
-48.8174
-48.8442
-62.0977
-62.1174
-56.8826
-50.7752
-57.1627
-48.8007
-48.7472
-48.7103
-65.5618
-65.6363
-62.6532
-55.9165
-62.7035
-55.9331
-53.329
-53.3273
-21.9672
-22.1273
-18.4146
-8.14395
-8.12305
-18.5283
-1.12588
-1.18924
173.769
190.621
163.833
161.583