# vtk DataFile Version 2.0
tri_press
ASCII
DATASET UNSTRUCTURED_GRID
POINTS 3682 float
-0.735 0.325 -2.14647
-0.705 0.415 2.24113
-0.789945 0.955 -2.015
-0.75643 1.135 2.135
0.735 0.325 -2.14649
0.705 0.415 2.24115
0.785 0.955 -2.01997
0.75643 1.135 2.135
-0.796286 0.283714 -0.683937
-0.816294 0.283706 0.778597
-0.833491 1.06972 -0.631667
-0.820235 1.12763 0.751667
0.794986 0.285014 -0.683944
0.816294 0.283706 0.778603
0.832639 1.07216 -0.63498
0.819427 1.12847 0.75001
-1.53768 -0.094875 -3.30448
-1.54224 -0.0673063 -2.16573
-1.5872 -0.0972909 -0.701304
-1.60243 -0.101138 0.778766
-1.54275 -0.0125211 2.2445
-1.52077 0.0481862 3.38969
-1.52277 0.0907443 4.52291
-1.53839 0.266828 -3.26794
-1.54349 0.31166 -2.13764
-1.59811 0.296425 -0.688577
-1.60551 0.293188 0.767369
-1.51607 0.377739 2.21791
-1.50067 0.436625 3.36202
-1.51117 0.478725 4.49783
-1.56283 0.9539 -3.17221
-1.58391 0.997051 -2.03794
-1.62786 1.07396 -0.642739
-1.6164 1.11157 0.746537
-1.54561 1.13627 2.14313
-1.51641 1.19287 3.29041
-1.51646 1.24322 4.43886
-1.58956 2.06175 -3.08872
-1.60237 2.11784 -1.96676
-1.6197 2.21133 -0.596513
-1.62055 2.28486 0.756452
-1.59859 2.32677 2.12723
-1.57554 2.36087 3.2503
-1.55911 2.40116 4.38997
-0.751742 -0.0874459 -3.31031
-0.74649 -0.0570344 -2.17371
-0.785808 -0.102994 -0.700778
-0.813455 -0.10746 0.788407
-0.769006 0.00740521 2.26168
-0.747516 0.0631124 3.40128
-0.747222 0.0993211 4.5295
-0.75015 0.269094 -3.27055
-0.722624 0.452248 3.37156
-0.734729 0.487111 4.50275
-0.769835 0.937925 -3.16382
-0.735282 1.19724 3.28863
-0.736751 1.24753 4.43828
-0.790654 2.05093 -3.08023
-0.798717 2.10759 -1.95724
-0.8135 2.21014 -0.591032
-0.820721 2.2897 0.755046
-0.808742 2.3296 2.12133
-0.789047 2.36233 3.24447
-0.773398 2.40259 4.38565
0.782894 -0.0869345 -3.31136
0.772635 -0.056564 -2.17405
0.800713 -0.101983 -0.700982
0.790408 -0.107195 0.788276
0.72163 0.0074998 2.2616
0.75668 0.0632769 3.4011
0.783834 0.099585 4.52918
0.778479 0.269471 -3.27196
0.766107 0.452362 3.37143
0.791973 0.487349 4.50245
0.791891 0.938343 -3.16678
0.783964 1.19738 3.28843
0.800585 1.24779 4.43791
0.802509 2.05185 -3.08274
0.805949 2.10867 -1.95984
0.804735 2.21138 -0.593203
0.789269 2.29064 0.753568
0.776013 2.3302 2.1204
0.78211 2.36281 3.24375
0.793613 2.40305 4.38498
1.55999 -0.0935893 -3.30687
1.55379 -0.065871 -2.16734
1.59116 -0.0953575 -0.702441
1.58889 -0.100248 0.778082
1.52101 -0.012138 2.2441
1.53012 0.0486318 3.38918
1.55568 0.0913405 4.52218
1.55462 0.267986 -3.27096
1.53942 0.312995 -2.13985
1.59345 0.298731 -0.690155
1.60515 0.294034 0.766564
1.52126 0.37798 2.21764
1.53379 0.436988 3.36158
1.56111 0.479279 4.49713
1.57291 0.955162 -3.17724
1.57485 0.998621 -2.0437
1.62118 1.07708 -0.647009
1.61592 1.11307 0.744301
1.55377 1.13668 2.14247
1.55506 1.19331 3.28979
1.57272 1.24383 4.43803
1.59677 2.06364 -3.09342
1.60364 2.11998 -1.97154
1.60833 2.21367 -0.600548
1.59389 2.28669 0.753611
1.57361 2.328 2.12535
1.57182 2.36189 3.24879
1.57906 2.40213 4.38858
-0.796993 0.64 -2.11526
0 0.29276 -2.17872
-0.783712 0.286288 -1.4152
-0.746976 0.775 2.20433
0 0.435419 2.22072
-0.801852 0.308148 1.50986
-0.00247249 1.03954 -2.10203
-0.824614 1.02526 -1.32333
0 1.1737 2.1737
-0.805703 1.14869 1.44333
0.79517 0.64 -2.1184
0.784022 0.285978 -1.41522
0.747092 0.775 2.20445
0.802059 0.307941 1.50988
0.823693 1.02845 -1.32748
0.805299 1.14911 1.44251
-0.803568 0.286432 0.04733
-0.855691 0.676716 -0.657802
-0.000649936 0.282357 -0.68394
-0.873502 0.70567 0.765132
-3.5298e-07 0.281972 0.7786
-0.832862 1.10467 0.0599999
-0.000426021 1.46028 -0.633323
-0.000404072 1.73394 0.750838
0.806228 0.283772 0.0473299
0.855727 0.678588 -0.659462
0.873467 0.70609 0.764307
0.831692 1.10598 0.057515
-0.884286 0.658358 -1.36927
0.884295 0.659294 -1.37135
-0.000324968 0.282528 -1.41521
-0.00144926 1.13832 -1.3254
-0.00123625 0.64 -2.23938
-0.861549 0.691193 0.053665
0.861129 0.692339 0.0524225
-0.000325144 0.282197 0.04733
-0.000415047 1.73163 0.0587575
-0.886274 0.740335 1.4766
0.88628 0.740545 1.47619
-1.7649e-07 0.322302 1.50987
-0.000202036 1.70399 1.44292
0 0.775 2.25609
-0.777512 0.4825 -2.14238
-0.3675 0.292782 -2.17869
-0.777431 0.287569 -1.78084
-0.763754 0.595 2.26049
-0.3525 0.436773 2.21936
-0.75575 0.35925 1.8755
-0.778176 0.7975 -2.04984
-0.396209 1.02739 -2.08863
-0.818077 1.00092 -1.66917
-0.752662 0.955 2.17062
-0.378215 1.16775 2.16775
-0.794756 1.15553 1.78917
0.3675 0.292782 -2.1787
0.776427 0.4825 -2.14379
0.776758 0.288242 -1.78085
0.3525 0.436816 2.21933
0.763724 0.595 2.26048
0.755747 0.359253 1.87551
0.391264 1.02714 -2.09087
0.774887 0.7975 -2.05399
0.816935 1.00432 -1.67372
0.378215 1.16775 2.16775
0.752669 0.955 2.17063
0.794557 1.15575 1.78875
-0.791379 0.283621 -1.04957
-0.80065 0.28435 -0.318303
-0.871849 0.457285 -0.670869
-0.397791 0.284389 -0.683939
-0.803838 0.301162 1.14423
-0.807696 0.287304 0.412963
-0.887387 0.473443 0.771864
-0.407652 0.28383 0.778598
-0.830851 1.04929 -0.9775
-0.855997 0.87892 -0.644734
-0.834018 1.08804 -0.285833
-0.486963 1.40501 -0.632495
-0.814563 1.13975 1.0975
-0.85655 0.921492 0.758399
-0.827323 1.11693 0.405833
-0.548213 1.70657 0.751253
0.789198 0.285802 -1.04958
0.396818 0.284387 -0.683942
0.800309 0.284691 -0.318307
0.872014 0.458472 -0.671703
0.803096 0.301904 1.14424
0.407648 0.283836 0.778602
0.811181 0.283819 0.412967
0.887383 0.473647 0.771455
0.830014 1.05216 -0.981228
0.485048 1.4041 -0.634152
0.85588 0.881224 -0.647221
0.83295 1.08985 -0.288733
0.813949 1.14038 1.09626
0.547225 1.70663 0.750424
0.856586 0.922352 0.757158
0.826356 1.11802 0.403763
-0.87632 0.649179 -1.74226
-0.399115 0.64 -2.19214
-0.000162484 0.282614 -1.79697
-0.000618123 0.46638 -2.34233
-0.875996 0.472323 -1.39224
-0.392019 0.282573 -1.41521
-0.835683 0.757667 1.84046
-0.373488 0.775 2.24381
-8.8245e-08 0.36498 1.8653
0 0.60521 2.34391
-0.882908 0.524242 1.49323
-0.400926 0.322302 1.50987
-0.00196087 1.09759 -1.71372
-0.00185437 0.839771 -2.16234
-0.877248 0.841806 -1.3463
-0.413032 1.12644 -1.32437
-0.000101018 1.52572 1.80831
0 0.974352 2.22508
-0.841216 0.944511 1.45997
-0.402952 1.68875 1.44313
0.876279 0.649647 -1.74487
0.396967 0.64 -2.19257
0.876005 0.472636 -1.39328
0.391848 0.282565 -1.41521
0.835765 0.757773 1.84032
0.373546 0.775 2.2438
0.882913 0.524243 1.49303
0.401029 0.322302 1.50987
0.876655 0.843874 -1.34941
0.411122 1.12637 -1.32644
0.84122 0.944826 1.45935
0.402549 1.68881 1.44271
-0.876294 0.466945 0.0504975
-0.402029 0.28415 0.04733
-0.86373 0.667537 -1.01354
-0.859045 0.683954 -0.302068
-0.000487452 0.282434 -1.04958
-0.00048754 0.282276 -0.318305
-0.860643 0.698431 0.409398
-0.894343 0.723002 1.12087
-0.000162749 0.282122 0.412965
-2.64735e-07 0.299196 1.14424
-0.860814 0.904738 0.0568325
-0.560909 1.70669 0.0593787
-0.000937638 1.18325 -0.979364
-0.000420534 1.69502 -0.287283
-0.00040956 1.73688 0.404798
-0.000303054 1.72511 1.09688
0.876275 0.466757 0.0498762
0.402369 0.28415 0.0473299
0.863331 0.668941 -1.0154
0.858592 0.685464 -0.30352
0.86062 0.699215 0.408365
0.894351 0.723318 1.12025
0.860718 0.906312 0.0549687
0.559674 1.70687 0.0581363
-0.866468 0.477411 -1.76155
-0.877214 0.476269 -1.03155
-0.841375 0.857512 -0.995518
-0.864954 0.819653 -1.70571
0.866408 0.477568 -1.76286
0.863811 0.820687 -1.7093
0.841227 0.859625 -0.998316
0.87735 0.477219 -1.03249
-0.379759 0.282658 -1.7889
0.379674 0.282651 -1.78891
0.394508 0.282469 -1.04958
-0.395243 0.28247 -1.04957
-0.40462 1.08968 -1.69144
-0.414995 1.17121 -0.978432
0.413614 1.17306 -0.980296
0.401193 1.08957 -1.69372
-0.383307 0.47444 -2.31078
-0.397662 0.818636 -2.20412
0.394115 0.818636 -2.20318
0.382234 0.47444 -2.31097
-0.874744 0.461778 -0.310186
-0.875319 0.473455 0.411181
-0.859348 0.913448 0.407616
-0.85858 0.891916 -0.293951
0.874816 0.462279 -0.310913
0.858488 0.893862 -0.296126
0.859312 0.914662 0.406064
0.875328 0.473453 0.410666
-0.39991 0.284269 -0.318304
0.399593 0.284268 -0.318306
0.404987 0.284036 0.412966
-0.404817 0.284036 0.412964
-0.562437 1.63285 -0.286558
-0.555402 1.70832 0.405316
0.554324 1.7085 0.40428
0.560574 1.63191 -0.288008
-0.890215 0.509465 1.13255
-0.845988 0.559621 1.85798
-0.831533 0.949755 1.81481
-0.848509 0.930581 1.10918
0.890216 0.509571 1.13224
0.848536 0.931054 1.10825
0.831539 0.949913 1.81454
0.845978 0.559622 1.85792
-0.404537 0.299196 1.14423
0.404588 0.299196 1.14424
0.376765 0.371132 1.8704
-0.376713 0.37108 1.8704
-0.406636 1.70973 1.09719
-0.390584 1.5194 1.79874
0.390382 1.51963 1.79853
0.40603 1.70982 1.09657
-0.362994 0.600105 2.33041
0.363023 0.600105 2.33041
0.375881 0.964676 2.24724
-0.375852 0.964676 2.24724
-0.765956 0.40375 -2.15412
-0.55125 0.302498 -2.16897
-0.772107 0.290393 -1.96365
-0.742164 0.505 2.2586
-0.52875 0.440474 2.21566
-0.715527 0.401973 2.05831
-0.783008 0.87625 -2.03136
-0.593077 1.00879 -2.06941
-0.810815 0.984766 -1.84208
-0.767123 1.045 2.16539
-0.567322 1.16016 2.16016
-0.787973 1.15765 1.96208
0.55125 0.302367 -2.16912
0.765289 0.40375 -2.15471
0.770279 0.292221 -1.96367
0.52875 0.440538 2.21561
0.74216 0.505 2.25861
0.716631 0.400869 2.05833
0.588132 1.00853 -2.07287
0.778869 0.87625 -2.0359
0.809108 0.987799 -1.84685
0.567322 1.16017 2.16017
0.767121 1.045 2.16539
0.787876 1.15776 1.96188
-0.793954 0.283546 -0.866753
-0.798477 0.284023 -0.50112
-0.867464 0.353801 -0.677403
-0.59767 0.282788 -0.683938
-0.802654 0.299846 0.961414
-0.810868 0.286632 0.59578
-0.885713 0.361638 0.775231
-0.612317 0.283081 0.778598
-0.832926 1.06026 -0.804584
-0.847493 0.975693 -0.638201
-0.833974 1.0791 -0.45875
-0.716265 1.34944 -0.632081
-0.817423 1.13372 0.924583
-0.847587 1.02916 0.755033
-0.823358 1.12186 0.57875
-0.699661 1.44798 0.75146
0.791834 0.285666 -0.866762
0.596859 0.282786 -0.683943
0.796919 0.285581 -0.501125
0.867605 0.35469 -0.677823
0.8079 0.2946 0.961422
0.612314 0.283085 0.778603
0.813808 0.283692 0.595785
0.885622 0.361784 0.775029
0.832096 1.06293 -0.808104
0.714804 1.35005 -0.634566
0.847276 0.978201 -0.641101
0.833101 1.08131 -0.461856
[...]
POINT_DATA 3682
SCALARS point_scalars float 1
LOOKUP_TABLE default
-49.8674
-58.2362
-119.013
-47.8651
-52.0125
-58.1942
-111.029
-47.8154
-43.3145
-53.7715
-67.593
-51.2294
-43.0625
-53.2346
-68.136
-51.3497
-8.23567
-107.367
-46.3446
-53.3755
-55.4221
-54.3205
-53.8665
12.2372
-113.698
-41.0682
-49.9624
-55.2731
-53.6492
-50.2177
13.1737
-105.008
-62.5992
-47.6068
-51.5875
-50.5235
-50.3724
-59.551
-77.4632
-125.799
-56.0117
-44.8792
-47.4016
-46.0728
4.24401
-173.75
-43.9312
-53.2818
-58.2916
-50.3016
-49.6189
105.362
-49.6986
-49.2959
147.256
-48.032
-49.5734
-48.2883
-57.7789
-108.099
-59.743
-43.5108
-42.7337
-44.9164
4.43367
-161.818
-43.6865
-52.8483
-57.7215
-50.3007
-49.6424
104.407
-49.9259
-49.2144
146.614
-47.9832
-49.5669
-45.4354
-57.7707
-108.269
-59.6571
-43.4704
-42.2767
-44.9582
-10.9792
-106.583
-46.3023
-52.8835
-55.4403
-54.2811
-53.8577
14.9137
-112.967
-40.8986
-49.0928
-55.2864
-53.6217
-50.2125
28.7366
-106.969
-63.529
-47.6681
-51.5684
-50.4946
-50.4127
-66.7627
-78.972
-127.637
-57.4723
-47.026
-47.4255
-47.6831
-77.5925
-209.619
-57.0635
-50.9522
-54.2684
-53.5986
-92.6342
-46.823
-37.7133
-49.1123
-74.7748
-57.3032
-50.9428
-53.6168
-46.4939
-49.1096
-43.1437
-46.686
-46.4299
-44.3592
-50.8464
-59.9828
47.6737
-63.6844
-43.1469
-46.6745
-44.3726
-60.134
-57.4265
-57.51
-64.5606
3.49329
202.837
-48.3748
-48.3976
-44.253
-106.052
-53.7265
-53.7171
-55.5982
-45.625
-49.4368
-55.3
-187.81
-84.8076
-54.328
-54.9254
-57.2225
-89.5368
-112.517
-59.9826
-51.6269
-40.4296
-47.5788
-188.023
-56.3336
-85.895
-54.9173
-54.3199
-57.2555
-113.633
-83.4112
-60.6441
-40.3528
-51.6133
-47.5468
-46.7875
-42.6058
-43.4567
-45.6062
-50.9182
-42.8892
-46.8985
-50.3926
-48.4997
-53.0884
-64.3029
27.5944
-50.2116
-47.312
-55.3363
-59.4101
-46.8745
-45.5552
-42.2817
-43.3911
-49.5343
-50.4206
-43.3163
-46.8546
-49.6745
28.354
-53.1292
-64.5093
-50.2574
-59.426
-47.38
-55.4176
-88.6053
192.041
-91.4991
139.35
-57.2105
-62.6625
-52.0947
-48.971
-56.9954
-49.919
-52.8249
-55.2638
-31.056
167.254
-55.7157
-5.66472
-33.9821
-48.1914
-51.5898
-47.2793
-88.8948
192.473
-57.2648
-62.6791
-52.0885
-48.9674
-52.8211
-55.2849
-55.6474
-5.77688
-51.5626
-47.2974
-45.4646
-43.7294
-46.3084
-48.3711
-52.651
-44.0029
-46.6881
-50.6787
-46.4693
-54.06
-53.2317
-95.1001
24.64
-108.224
-78.1721
-53.5306
-45.4621
-43.7458
-46.298
-48.3618
-46.7537
-50.6918
-53.1754
-95.4267
-85.6209
-47.493
-44.2321
-75.3032
-85.6424
-75.5978
-44.2732
-47.6233
-89.004
-88.9971
-51.2165
-51.3375
-34.6434
16.1325
15.6746
-34.7176
149.783
152.806
150.691
150.172
-44.4825
-43.2464
-49.5437
-53.6634
-44.406
-53.7633
-49.5969
-43.3597
-43.4287
-43.3888
-46.0187
-45.9538
-96.2589
-70.5902
-70.6667
-95.3484
-49.9237
-54.6273
-50.5014
-50.6534
-49.9429
-50.7054
-50.4761
-54.6088
-53.2651
-53.2618
-56.2502
-56.2149
-54.1277
-37.0355
-37.0575
-54.151
-49.6838
-49.6811
-48.4658
-48.4706
-29.7256
-149.437
-117.875
-54.7812
-55.8664
-53.8448
-105.417
-103.971
-82.8654
-50.1384
-43.066
-47.2219
-150.627
-30.4483
-116.542
-55.8914
-54.7714
-53.895
-103.532
-96.4134
-83.9714
-43.0378
-50.106
-47.1816
-46.6152
-42.5379
-41.0556
-44.7333
-49.1197
-45.6647
-51.1429
-52.416
-63.0074
-59.5188
-65.9271
-87.5834
-50.6171
-48.8764
-52.7358
-55.1843
-46.4446
-44.6411
-42.2057
-40.9209
-49.8773
-53.0542
-45.6741
-50.8396
-62.5418
-87.278
-59.553
-66.2565
-50.6914
-55.2223
-48.9843
-52.8422
-71.3926
-87.1172
-107.453
128.799
-208.875
-207.072
-118.285
62.8647
-66.9948
-50.7835
-55.9167
-60.5213
-53.6686
-51.4235
-54.4244
-48.5549
-54.4087
-54.3708
-54.3098
-50.7412
-58.2811
-51.0867
-53.0517
-54.4927
-91.0744
-90.729
-55.6525
135.268
-50.648
-44.7575
-52.5173
-17.0742
-38.0806
-38.2378
-32.7669
-48.469
-48.1297
-49.7872
-50.0003
-48.4065
-69.789
-81.8005
-107.5
127.691
-67.2219
-51.0079
-55.9844
-60.5795
-53.659
-51.3993
-54.404
-48.5494
-58.1612
-51.4821
-53.0732
-54.4711
-50.8679
-44.162
-52.3743
-17.1944
-48.113
-49.8089
-49.9815
-48.4334
-42.8449
-43.1008
-44.634
-43.29
-45.0075
-48.9378
-46.1982
-47.505
-46.2062
-46.1868
-48.9692
-44.8484
-45.249
-45.2629
-45.7874
-48.2202
-50.754
-50.7636
-48.3525
-53.4232
-62.4722
-57.3064
-56.8549
-74.2694
44.1722
44.3895
52.2094
-7.79399
-63.2355
-63.2
-70.1133
-58.5779
-42.7751
-42.7998
-44.6227
-43.3261
-44.9769
-48.9584
-46.1247
-47.882
-45.2536
-45.2954
-45.8185
-48.233
-62.5941
-57.4064
-56.9192
-74.3778
-67.8521
-57.473
-56.9152
-51.3311
-68.1159
-57.5297
-56.981
-51.4235
-75.4118
-64.1173
-64.1128
-57.7352
-12.9959
0.955017
0.9157
15.6093
199.483
202.543
180.902
199.68
-46.4382
-48.5699
-47.6346
-49.8824
-46.4455
-48.5954
-47.6529
-49.9066
-44.1016
-43.8366
-45.109
-44.1
-104.913
-140.07
-88.4093
-105.037
-52.7785
-52.8775
-53.825
-52.5565
-52.7542
-52.8709
-53.8088
-52.5517
-57.3848
-55.5261
-55.5246
-54.3645
-39.7998
-46.1665
-46.1816
-51.0311
-49.4111
-48.8368
-48.4552
-49.41
-114.295
118.305
-115.21
66.2178
-84.6235
-87.7056
-54.7975
-49.3146
-54.0323
-50.7591
-55.0092
-55.737
-101.669
92.9058
-60.5231
75.7923
-67.7405
-41.0287
-53.7708
-48.7479
-36.9909
-46.8697
-49.1124
-40.7145
-115.22
66.0412
-114.07
116.493
-84.4711
-87.6478
-54.0424
-50.7582
-54.7944
-49.3107
-54.9901
-55.8738
-60.6497
77.732
-102.918
93.252
-68.1781
-41.2884
-37.0259
-46.8826
-53.7452
-48.7534
-49.0785
-40.7215
-46.8497
-49.7861
-42.8146
-42.9403
-46.3668
-43.8507
-47.9413
-44.0847
-49.2496
-51.506
-42.2229
-45.219
-43.4027
-49.0354
-47.9748
-52.8543
-45.9999
-4.31794
-50.2344
-53.6372
-57.9683
-93.9357
34.3011
-20.7155
-50.5996
-52.4537
-48.2679
-49.191
-51.8768
-62.7666
-64.0009
-56.9617
-47.2328
-49.745
-47.9
-44.0307
-42.5722
-42.8554
-46.3217
-43.7179
-49.246
-51.496
-48.0476
-52.8178
-42.4346
-45.3477
-43.4609
-49.0717
-46.5171
-3.67713
34.774
-19.0192
-50.1608
-53.7699
-58.263
-94.4618
-50.6129
-52.7872
-64.0632
-56.9676
-48.3178
-49.1564
-51.9511
-62.8159
-86.3086
-85.5797
191.839
151.644
-90.9655
-90.9675
163.293
163.276
-67.0502
-50.6659
-72.8716
-55.9164
-54.0749
-51.3575
-48.5593
-48.9871
-56.2986
-56.2999
-49.8858
-49.8847
-51.9497
-57.7593
-53.6834
-57.551
-31.3436
-31.427
171.991
172.113
-47.9552
-65.0769
-18.6908
5.92236
-34.9676
-34.9827
-48.2316
-48.235
-50.4506
-51.5575
-50.5072
-43.1248
-86.4079
-85.5197
151.654
192.199
-67.2466
-50.6551
-72.8748
-55.9215
-51.3404
-54.062
-48.5558
-48.9828
-51.951
-57.7842
-53.6836
-57.5398
-65.1779
-48.2278
5.82196
-19.0216
-51.5396
-50.4282
-43.1385
-50.5277
-45.206
-44.3282
-43.3426
-44.5828
-47.2739
-45.7484
-46.0822
-50.1912
-52.275
-52.3872
-43.8544
-43.8398
-44.8875
-47.688
-50.3362
-50.2761
-46.3644
-46.3389
-53.9063
-53.9036
-50.892
-52.4562
-127.966
-79.5405
22.66
22.5136
-97.8229
-97.2142
-76.592
-76.6215
-54.2152
-54.2384
-45.19
-44.3474
-43.3302
-44.6263
-45.5981
-47.3116
-46.0505
-50.2274
-47.7331
-44.9463
-50.3499
-50.2807
-52.5254
-50.9442
-79.639
-128.505
-112.723
-66.1975
-67.7163
-110.349
-47.7206
-45.3976
-51.0805
-49.6198
-55.6914
-49.2967
-51.3934
-47.4747
-96.5852
-103.764
-67.815
-57.1861
-112.05
-110.248
-68.0517
-66.2756
-97.7562
-57.2943
-68.1008
-104.73
-55.4368
-47.4361
-51.5255
-48.6361
-47.6539
-49.5773
-51.1114
-45.3756
-117.675
-117.237
-74.5243
-70.7959
-117.676
-70.837
-74.5176
-117.239
-46.8086
-48.6786
-57.2731
-54.03
-46.8974
-54
-57.2711
-48.6935
-63.8669
-26.9543
-13.8951
-56.0235
-42.6925
48.3665
14.3329
-8.55313
-38.3
-8.51354
14.2791
48.3741
-64.1062
-56.1157
-13.9741
-27.0065
25.8366
131.574
198.771
51.0858
69.5517
136.168
172.149
92.5991
69.88
93.7008
173.01
137.522
25.6893
50.8261
199.262
129.312
-41.9838
-43.8948
-46.5106
-45.5053
-40.9635
-44.4402
-45.7098
-43.2737
-50.2168
-53.507
-48.7812
-46.5978
-58.8755
-49.8782
-50.1944
-56.7359
-41.6875
-45.4625
-46.5074
-43.9407
-59.0896
-56.7556
-50.2319
-49.9394
-50.2841
-46.6368
-48.8195
-53.604
-41.764
-43.2252
-45.7411
-44.4651
-43.4262
-44.6327
-43.7056
-42.9459
-43.3088
-42.9301
-43.7012
-44.6192
-47.8592
-48.2669
-44.9933
-44.0496
-47.6806
-43.9644
-44.9748
-48.2428
-112.531
-82.6238
-141.39
-9.83657
-58.2299
-68.9603
-86.5163
-68.0944
-58.2508
-68.1492
-86.5543
-69.061
-112.277
-9.40587
-141.592
-82.8445
-47.6763
-51.6003
-52.2185
-49.0882
-55.1782
-54.9014
-55.6156
-59.0924
-51.5259
-49.3298
-51.5362
-54.6589
-50.4268
-47.8556
-52.7034
-50.1827
-48.1929
-49.1055
-52.2192
-51.5683
-50.4301
-50.1778
-52.7238
-47.9032
-51.4968
-54.6402
-51.4274
-49.3022
-55.2141
-59.0952
-55.6136
-54.8966
-50.7617
-53.3163
-54.2125
-52.3455
-50.5135
-52.3436
-54.2109
-53.3139
-54.3053
-54.2357
-57.4297
-57.3531
-54.3656
-57.463
-57.4313
-54.1391
-52.9623
-50.4951
-50.2845
-58.2631
-39.5494
-34.1151
-40.6926
-47.0486
-39.5451
-47.0316
-40.672
-34.1628
-53.0593
-58.2646
-50.2856
-50.5362
-50.8408
-50.8342
-48.8038
-48.5352
-50.8343
-48.5309
-48.8022
-50.8435
-47.6547
-48.2994
-48.4892
-48.9088
-47.6518
-48.9162
-48.4939
-48.307
-24.3584
-86.1791
-152.173
-57.7121
-57.1245
-54.8953
-118.892
-86.1763
-97.4116
-49.492
-44.5928
-46.5518
-87.7781
-26.5066
-153.42
-57.1192
-57.6537
-55.0495
-85.9887
-111.648
-95.5897
-44.6214
-49.4065
-47.6043
-45.2764
-42.7536
-42.7944
-44.2216
-51.2791
-49.5297
-53.9863
-53.4976
-67.0458
-62.8871
-66.8588
-90.1701
-50.8879
-50.2662
-52.0212
-52.9179
-45.2345
-44.1164
-42.5743
-41.5575
-50.4263
-53.2528
-50.4571
-53.4274
-67.4692
-91.2484
-63.974
-67.1567
-50.9753
-53.0167
-50.3679
-52.124
-74.7647
-77.6368
-114.272
40.3147
-206.953
-209.02
-148.068
36.3015
-61.4449
-53.553
-55.8445
-59.1311
-52.4804
-51.3533
-55.8704
-47.9945
-54.1172
-54.0324
-55.19
-51.7749
-57.3621
-51.6542
-53.4895
-54.1637
-91.8065
-91.9434
-75.5172
-38.298
-48.6151
-45.6227
-51.4332
-28.3886
-38.1229
-38.0718
-34.3514
-44.0255
-48.6362
-49.3906
-49.4376
-48.384
-72.4209
-73.7814
-113.416
41.0381
-62.017
-53.8488
-55.9776
-59.2187
-52.4666
-51.34
-55.8634
-47.9859
-57.4087
-51.3902
-53.5008
-54.1608
-48.6842
-44.9997
-50.8263
-28.0441
-48.6268
-49.3976
-49.4245
-48.4168
-43.0286
-43.2323
-43.8839
-43.1383
-45.9651
-47.6531
-46.0883
-47.1955
-46.3847
-46.3769
-47.5716
-45.4422
-44.8803
-44.2493
-44.6045
-45.249
-50.8252
-50.8302
-49.5077
-52.5402
-61.5882
-58.6955
-57.6948
-66.1585
46.0581
46.1283
57.546
26.2326
-63.5548
-63.5486
-66.7221
-60.9759
-42.9221
-43.2099
-43.7076
-43.212
-45.9373
-47.6623
-46.0406
-47.1309
-44.8886
-44.2588
-44.6238
-45.2485
-61.5016
-58.7723
-57.7957
-66.2225
-62.3217
-57.479
-57.3478
-53.8038
-62.4144
-57.5438
-57.4377
-53.8758
-69.5521
-64.6946
-64.6984
-61.3043
-5.35434
2.80311
2.79161
9.59935
202.228
202.168
190.326
202.331
-47.3358
-48.6255
-48.0608
-48.8192
-47.3673
-48.6355
-48.0674
-48.8373
-44.1962
-43.9682
-44.5779
-44.1996
-105.727
-119.799
-96.1131
-105.781
-55.1209
-52.9601
-54.2647
-52.8013
-55.1007
-52.9508
-54.2392
-52.7884
-56.5971
-55.5685
-55.5678
-54.8874
-42.8536
-45.8484
-45.8609
-49.7891
-49.2892
-49.1444
-49.2785
-49.2874
-51.0678
-65.7141
-109.026
64.4899
-179.41
-198.275
-145.083
-19.0047
-102.56
-74.6281
-85.2459
-86.8002
-54.5632
-54.0353
-56.4256
-50.1969
-55.1998
-54.6888
-57.2768
-51.6712
-56.5484
-60.635
-55.8709
-55.5125
-96.9797
-86.5752
-130.169
33.479
-109.058
-103.3
-81.6284
-16.6863
-67.804
-55.2167
-67.8378
-47.0192
-51.0318
-51.3903
-54.6845
-48.7281
-41.8107
-39.3248
-38.0602
-43.7713
-46.9843
-47.8389
-48.1121
-43.7521
-182.629
-201.784
-145.088
-20.3329
-45.8897
-64.954
-106.936
68.6515
-101.513
-73.9033
-85.2079
-86.7649
-55.1927
-54.6797
-57.2674
-51.6677
-54.5544
-54.0258
-56.4224
-50.1921
-56.4391
-60.5606
-55.8614
-55.6061
-109.932
-102.799
-82.0024
-12.0565
-85.497
-81.7917
-129.938
36.8499
-68.7162
-55.8208
-68.6974
-47.1854
-41.7342
-39.0851
-38.1795
-43.8892
-51.009
-51.3712
-54.6623
-48.7273
-46.9385
-47.8123
-48.0781
-43.7497
-46.51
-48.4422
-45.4718
-48.8654
-42.4937
-42.6979
-42.9774
-42.7362
-42.6737
-44.1715
-44.6519
-43.5613
-45.2696
-45.9169
-46.7906
-44.6719
-48.9096
-49.9144
-49.2855
-50.9511
-42.7359
-42.4588
-41.9318
-44.4585
-48.2714
-45.8692
-46.0669
-47.9504
-50.6394
-50.627
-49.1777
-52.1389
-58.6497
-45.0976
-50.249
-25.963
-56.3288
-50.6462
-52.2527
-53.2378
-65.2524
-63.4235
-61.2134
-75.2373
-4.19316
39.3984
36.7617
5.21018
-50.4263
-50.1491
-50.1182
-50.4547
-47.5951
-46.633
-47.7143
-48.0289
-54.0357
-56.328
-53.6106
-59.0479
-56.5674
-61.8792
-61.3162
-59.3558
-45.9955
-48.8136
-45.8088
-48.754
-45.1965
-45.8849
-46.7432
-44.6182
-41.9506
-42.4329
-42.8603
-42.6208
-42.6056
-44.1176
-44.6193
-43.4476
-49.5261
-51.0438
-49.1397
-50.9788
-50.7964
-50.6426
-49.2412
-52.1117
-42.748
-42.8724
-42.6138
-44.6626
-48.162
-45.8666
-46.0193
-47.946
-58.1595
-44.5585
-50.6803
-24.9475
-2.86209
39.7996
37.2093
5.96175
-56.4272
-50.6874
-52.1429
-53.3674
-65.458
-63.6301
-61.187
-75.4066
-50.4875
-50.1703
-50.158
-50.4891
-56.5921
-61.8747
-61.3848
-59.3496
-47.6568
-46.6661
-47.7629
-48.14
-54.1462
-56.3944
-53.7186
-59.1134
-99.2572
-75.246
-87.1521
-88.1621
170.251
195.009
192.04
177.691
-103.11
-82.0243
-91.7514
-91.7506
38.9071
200.508
154.448
154.27
-56.7061
-57.2601
-61.7968
-53.4155
-61.6827
-63.6753
-67.2881
-58.991
-53.0063
-51.5166
-52.7542
-51.7848
-48.87
-49.2038
-48.8332
-49.0729
-55.0917
-57.3038
-56.4325
-56.5118
-50.1807
-49.123
-49.9083
-49.9079
-52.4796
-52.9708
-52.2442
-55.0494
-55.0407
-55.4257
-54.3583
-56.5506
-41.4339
-21.1368
-30.7373
-30.7744
172.196
179.312
171.714
171.824
-53.9785
-56.6913
-52.3635
-60.3882
-10.598
-1.92046
-12.1088
-0.122432
-33.0314
-36.4429
-34.265
-34.274
-47.9491
-48.2427
-48.2555
-48.257
-50.6441
-52.6805
-50.8644
-51.3745
-48.0724
-46.6027
-48.8411
-45.264
-99.3735
-75.6132
-87.3062
-88.6767
172.648
195.401
177.765
192.418
-56.7821
-57.312
-61.8845
-53.4401
-61.7126
-63.6166
-67.3039
-59.0039
-52.993
-51.5013
-51.7702
-52.7507
-48.8655
-49.2005
-48.8294
-49.0693
-52.486
-52.9638
-52.2417
-55.0252
-55.0359
-55.4504
-54.356
-56.5428
-53.9893
-56.7713
-60.4431
-52.3249
-10.7352
-1.98066
-0.251205
-12.197
-50.6188
-52.6486
-51.3556
-50.8373
-48.096
-46.6161
-45.2897
-48.8637
-45.4558
-45.8965
-45.3819
-45.1198
-43.5108
-43.9317
-43.483
-44.0937
-45.9319
-49.004
-46.6554
-46.3404
-48.1757
-48.4583
-47.0731
-48.9704
-50.6433
-55.103
-52.5665
-52.5682
-44.3267
-43.841
-43.9762
-43.9751
-46.2662
-47.1072
-45.8939
-46.9821
-50.1042
-51.3984
-50.4627
-50.7379
-47.3431
-45.7335
-46.4474
-46.4355
-53.6397
-54.1891
-53.9777
-53.9765
-55.9149
-51.1772
-51.6595
-52.8875
-84.5701
-103.296
-108.649
-86.3506
38.4044
20.0577
23.9917
23.8287
-51.7671
-144.764
-106.189
-105.912
-73.9415
-82.7087
-77.8241
-77.8503
-56.2733
-50.0995
-54.1969
-54.2429
-45.4695
-45.8984
-45.3767
-45.1184
-43.5347
-43.9434
-43.4854
-44.1245
-45.9163
-49.0697
-46.2687
-46.6399
-48.1782
-48.4889
-47.0666
-48.9715
-46.2753
-47.147
-47.0396
-45.9555
-50.1092
-51.4068
-50.4758
-50.7452
-55.8881
-51.1864
-52.9084
-51.6987
-84.8475
-103.485
-86.5304
-109.147
-103.647
-84.8883
-85.8737
-74.5942
-47.2406
-45.9312
-49.4125
-47.4787
-43.6291
-47.1921
-45.5973
-44.9128
-84.9122
-69.8915
-79.8314
-68.1452
-103.515
-84.8634
-85.9101
-74.7067
-85.3121
-70.4128
-79.9416
-68.3405
-44.0371
-46.7434
-46.3292
-44.8024
-47.3852
-45.9535
-49.4045
-47.5454
-100.142
-88.5186
-90.2003
-80.1535
-100.141
-88.484
-90.203
-80.152
-50.5361
-49.4033
-53.3537
-51.8218
-50.564
-49.4364
-53.3404
-51.8331
-45.4028
-37.631
-32.4655
-26.7996
6.31297
23.2028
11.5499
19.863
5.02057
23.1458
11.2486
19.3304
-45.5695
-37.7284
-32.5508
-26.6303
130.215
108.976
183.841
162.197
127.113
131.792
154.685
165.756
130.948
128.678
165.949
154.125
108.235
129.927
162.658
184.336
-44.1421
-44.2045
-44.8429
-45.229
-42.7744
-42.3783
-43.7644
-44.0985
-48.9022
-50.625
-48.5694
-50.2477
-53.7479
-55.7592
-51.7611
-53.1063
-44.0642
-44.0918
-44.8018
-45.1806
-53.856
-55.8974
-51.827
-53.2511
-48.9559
-50.6886
-48.6217
-50.304
-42.9245
-42.4908
-43.837
-44.1792
-43.1836
-43.6822
-43.3139
-43.6656
-43.633
-43.1258
-43.6406
-43.2871
-46.9553
-45.7463
-46.2191
-45.2559
-45.6536
-46.8842
-45.201
-46.1767
-129.678
-58.7431
-128.572
-85.0832
-66.7973
-67.1978
-74.6676
-74.5428
-67.2591
-66.8187
-74.5996
-74.743
-57.9829
-129.532
-84.7908
-128.018
-49.6701
-49.3728
-50.6709
-50.2358
-54.4571
-54.8866
-54.2704
-56.466
-51.3777
-49.8905
-50.9758
-50.2072
-51.2684
-50.6315
-50.8104
-50.4653
-49.6845
-49.4063
-50.678
-50.2523
-51.2554
-50.5691
-50.8315
-50.5144
-51.3532
-49.8609
-50.9545
-50.1861
-54.4527
-54.8574
-54.2569
-56.4612
-52.6016
-52.8807
-53.4152
-53.6719
-52.6299
-52.8613
-53.4179
-53.6678
-54.2461
-56.3654
-56.2661
-57.7022
-54.2155
-56.2757
-56.1829
-57.6912
-54.4521
-55.8704
-52.0664
-54.2078
-36.6819
-38.386
-35.9369
-39.772
-36.701
-38.4069
-35.9564
-39.7969
-54.4549
-55.8812
-52.0865
-54.234
-49.4325
-50.0812
-48.8176
-49.7934
-50.0789
-49.429
-49.7915
-48.8369
-47.7343
-48.7807
-48.0931
-48.8292
-48.7817
-47.7345
-48.8345
-48.0996
-110.083
23.609
-158.942
13.5216
-107.659
-121.11
-56.9718
-51.7863
-58.0547
-51.8725
-55.9746
-52.3378
-125.18
24.3332
-87.7472
11.6133
-90.4935
-68.7336
-52.9137
-48.306
-40.9651
-45.5404
-49.4095
-42.5126
-158.571
13.21
-106.987
23.5889
-106.98
-120.728
-57.8849
-51.8644
-56.9794
-51.7912
-56.0183
-52.2991
-88.5246
8.61762
-124.878
26.6418
-91.9432
-68.9084
-40.8279
-45.577
-52.8673
-48.2874
-49.3813
-42.5071
-45.669
-46.5668
-42.8074
-43.0667
-44.5645
-41.3765
-45.6625
-43.9289
-48.4162
-50.3794
-41.0887
-47.289
-48.4919
-49.3476
-49.5448
-53.2911
-59.2546
-74.2551
-58.5651
-59.0596
-62.1974
-79.8558
-62.1938
-115.939
-50.3019
-51.3308
-49.6197
-49.6044
-51.622
-55.3374
-56.555
-53.9607
-45.3149
-46.4348
-45.5723
-43.8221
-41.8692
-42.8646
-44.8286
-41.2483
-49.2687
-50.4638
-49.7778
-52.4837
-40.6093
-47.5951
-48.5059
-48.8436
-59.0897
-72.7978
-60.1426
-115.19
-58.4547
-59.2511
-62.5193
-80.7203
-50.3651
-51.4264
-56.5757
-54.0215
-49.6923
-49.7025
-51.7184
-55.3863
-112.759
55.7504
-118.413
24.5338
-107.525
-105.448
130.909
118.872
-147.135
32.9452
-147.14
32.6616
-118.576
-118.574
56.8819
56.969
-66.0607
-69.2864
-49.4607
-52.7395
-60.7911
-52.5592
-65.0577
-56.9274
-54.8621
-49.4662
-55.1155
-49.2544
-54.8315
-54.5301
-48.715
-48.7856
-56.0813
-51.7674
-56.0316
-51.7497
-54.8856
-54.6381
-50.7321
-50.7545
-60.1633
-57.168
-51.0359
-51.8801
-52.2259
-56.0733
-53.1259
-55.8603
-76.1423
-51.793
-76.3419
-50.0061
-55.3802
-55.4582
143.076
149.024
-56.8182
-36.2956
-48.9687
-23.8554
-52.4956
-54.617
-21.8613
-12.1389
-35.3837
-44.4945
-35.3688
-44.5565
-33.2437
-33.232
-48.4801
-48.4844
-48.6684
-46.1845
-49.8865
-49.8956
-49.7294
-50.1414
-49.2326
-47.8859
-111.899
53.4953
-117.171
24.2693
-107.48
-105.82
117.884
129.886
-66.2845
-69.4452
-49.5268
-52.7965
-60.9546
-52.5979
-65.1247
-56.9747
-54.8641
-49.4608
-55.1024
-49.241
-54.5107
-54.8193
-48.7102
-48.7807
-60.1504
-57.0167
-51.0892
-51.8944
-52.2029
-56.0911
-53.0761
-55.8764
-56.7045
-36.1766
-48.778
-23.4167
-54.642
-52.0451
-12.1925
-21.9185
-48.6428
-46.1827
-49.8958
-49.9494
-50.1298
-49.7051
-47.8917
-49.2797
-43.2832
-42.8225
-43.3766
-43.5354
-43.4796
-47.0695
-43.0855
-43.5801
-45.1367
-45.2665
-48.2494
-49.4644
-45.0834
-46.6013
-46.3676
-48.5929
-47.3305
-45.3069
-47.313
-45.2866
-48.9008
-48.9062
-44.7859
-44.7778
-45.1998
-47.0109
-46.0401
-45.9814
-45.2526
-45.9626
-48.808
-47.7138
-49.4059
-52.4709
-49.4247
-52.4736
-48.3347
-48.3236
-53.3584
-53.3583
-59.7106
-70.491
-55.3981
-62.2694
-54.2221
-57.3035
-78.1204
-70.448
53.2154
24.6542
53.4499
25.0381
51.3465
51.3663
-8.31693
-8.03364
-65.7923
-60.7671
-65.8735
-60.7335
-69.8695
-69.9067
-58.5173
-58.518
-43.3416
-42.8369
-42.6619
-43.6874
-43.4257
-47.0477
-43.0977
-43.6395
-45.1186
-45.2175
-48.224
-49.515
-46.5226
-45.0021
-46.3907
-48.6004
-45.2092
-47.022
-46.0698
-45.9683
-45.9924
-45.281
-48.8208
-47.7233
-59.8641
-70.6424
-55.5196
-62.3411
-57.4179
-54.2804
-70.5276
-78.2625
-67.7311
-67.9131
-62.2506
-53.7693
-53.7786
-61.9576
-51.0761
-51.6328
-68.3277
-68.1516
-62.3096
-53.8198
-62.059
-53.8436
-51.7532
-51.1311
-75.3025
-75.3062
-68.9525
-60.4725
-68.9587
-60.477
-57.6519
-57.6529
-13.031
-13.0584
-6.52611
7.75717
7.71788
-6.58452
15.7695
15.7498
198.85
190.326
201.65
201.709
180.817
180.92
190.04