# vtk DataFile Version 2.0
tri_press
ASCII
DATASET UNSTRUCTURED_GRID
POINTS 3682 float
-0.695 0.125 -1.80201
-0.585 0.315 2.05077
-0.623714 0.645 -1.785
-0.560275 0.915 1.935
0.695 0.125 -1.8027
0.585 0.315 2.05077
0.623316 0.645 -1.785
0.560283 0.915 1.935
-0.696625 0.150042 -0.51775
-0.753724 0.119609 0.76651
-0.706158 0.83859 -0.545
-0.677388 0.920966 0.695
0.696412 0.150255 -0.51821
0.753985 0.119348 0.76628
0.706118 0.838813 -0.545
0.677337 0.921043 0.695
-1.39388 -0.27949 -2.79508
-1.38912 -0.206618 -1.78537
-1.39493 -0.193474 -0.499944
-1.4088 -0.2095 0.794378
-1.32101 -0.0876146 2.08055
-1.28843 0.000656973 3.09394
-1.29273 0.0636707 4.10053
-1.38823 0.0280759 -2.80237
-1.38381 0.119739 -1.79751
-1.3958 0.16141 -0.520735
-1.40498 0.142132 0.760012
-1.26936 0.257968 2.03764
-1.25236 0.343726 3.05041
-1.27282 0.406424 4.05846
-1.35886 0.612695 -2.80462
-1.3408 0.701494 -1.79803
-1.38728 0.848528 -0.551441
-1.35554 0.899824 0.692004
-1.23857 0.920165 1.93945
-1.23469 1.00213 2.95407
-1.26166 1.07818 3.96928
-1.34427 1.6005 -2.84125
-1.3396 1.70236 -1.84125
-1.35604 1.8535 -0.609037
-1.35612 1.95946 0.61363
-1.32748 2.01138 1.84633
-1.3084 2.05654 2.84737
-1.30293 2.11503 3.85771
-0.709341 -0.276376 -2.79809
-0.696347 -0.200015 -1.7897
-0.693762 -0.19837 -0.499512
-0.732493 -0.223547 0.799903
-0.670087 -0.0587446 2.0903
-0.643121 0.0218607 3.10054
-0.645884 0.0749524 4.10433
-0.710561 0.0242495 -2.80338
-0.611383 0.366151 3.05585
-0.630241 0.41731 4.06132
-0.685448 0.588103 -2.79922
-0.599093 1.0064 2.95315
-0.622401 1.08246 3.96905
-0.66311 1.58441 -2.83591
-0.654067 1.68754 -1.83534
-0.672839 1.85113 -0.605497
-0.688199 1.965 0.613147
-0.676591 2.01339 1.8432
-0.661403 2.05637 2.84424
-0.654167 2.11501 3.85542
0.666279 -0.276324 -2.79854
0.693531 -0.199956 -1.79025
0.709331 -0.198246 -0.499927
0.711179 -0.223686 0.799674
0.601772 -0.058801 2.09022
0.615289 0.0218269 3.10046
0.632989 0.0749254 4.10423
0.652176 0.0242867 -2.8038
0.611356 0.366129 3.05581
0.632809 0.417286 4.06124
0.63569 0.588142 -2.79943
0.604247 1.00639 2.95311
0.631613 1.08244 3.96897
0.687141 1.58449 -2.83607
0.700189 1.68764 -1.83547
0.692638 1.85123 -0.605598
0.655332 1.96507 0.613064
0.623486 2.01342 1.84313
0.625093 2.05638 2.84416
0.637002 2.11502 3.85533
1.35761 -0.279363 -2.79587
1.38457 -0.206461 -1.78625
1.40496 -0.193285 -0.500645
1.40335 -0.209631 0.793951
1.29415 -0.0877396 2.08033
1.27317 0.00058269 3.09375
1.28523 0.0636183 4.10033
1.34476 0.0281891 -2.80312
1.37835 0.119881 -1.79838
1.39848 0.161669 -0.521401
1.41329 0.141981 0.759628
1.28065 0.25785 2.03748
1.26052 0.343662 3.05027
1.27942 0.406376 4.05828
1.32475 0.612813 -2.80509
1.34037 0.701641 -1.7984
1.39045 0.848829 -0.551733
1.36311 0.899887 0.691818
1.25267 0.920113 1.93934
1.24831 1.00209 2.95395
1.27464 1.07815 3.96912
1.36439 1.60067 -2.84159
1.37663 1.70255 -1.84153
1.37384 1.8537 -0.609271
1.33501 1.95959 0.613437
1.29086 2.01143 1.84616
1.28246 2.05656 2.84719
1.29123 2.11504 3.85752
-0.701249 0.385 -1.8354
0 0.128547 -1.79881
-0.695455 0.137879 -1.15988
-0.607972 0.615 2.02822
0 0.308505 2.05726
-0.659097 0.22757 1.40864
-0.00019902 0.721919 -1.86192
-0.699631 0.77649 -1.165
3.99351e-06 0.955673 1.97567
-0.648663 0.947815 1.315
0.701332 0.385 -1.83602
0.695598 0.137735 -1.16046
0.607995 0.615 2.02824
0.659878 0.226789 1.40853
0.69954 0.776729 -1.165
0.648663 0.947874 1.315
-0.737731 0.122269 0.12438
-0.808291 0.494316 -0.531375
-0.000106632 0.161034 -0.51798
-0.808103 0.520288 0.730755
0.00013046 0.192859 0.766395
-0.69691 0.884916 0.075
-1.99757e-05 1.07195 -0.545
-2.54978e-05 1.29106 0.695
0.742504 0.117496 0.124035
0.808844 0.494534 -0.531605
0.808497 0.520195 0.73064
0.697156 0.885357 0.075
-0.843774 0.439658 -1.16244
0.841813 0.439767 -1.16273
-5.33158e-05 0.155324 -1.16017
-0.000109498 0.897495 -1.165
-9.951e-05 0.385 -2.10653
-0.815443 0.507302 0.09969
0.815604 0.507365 0.0995175
1.19144e-05 0.176959 0.124207
-2.27368e-05 1.28681 0.075
-0.894615 0.567644 1.36182
0.894615 0.567598 1.36176
6.52302e-05 0.269268 1.40858
-1.07522e-05 1.14265 1.315
1.99676e-06 0.615 2.11694
-0.703783 0.255 -1.82436
-0.3475 0.127287 -1.7999
-0.697112 0.129554 -1.48095
-0.602162 0.465 2.04517
-0.2925 0.319859 2.04591
-0.656279 0.237055 1.72971
-0.672645 0.515 -1.82036
-0.311957 0.699035 -1.83904
-0.681627 0.7307 -1.475
-0.58857 0.765 1.98606
-0.280136 0.950794 1.97079
-0.613635 0.940573 1.625
0.3475 0.127283 -1.80024
0.703781 0.255 -1.82498
0.697311 0.129355 -1.48158
0.2925 0.319852 2.04592
0.60216 0.465 2.04517
0.655895 0.237438 1.72965
0.311558 0.699189 -1.83919
0.672465 0.515 -1.82065
0.681042 0.730479 -1.475
0.280143 0.950831 1.97083
0.588562 0.765 1.98604
0.613628 0.940592 1.625
-0.696066 0.143934 -0.838815
-0.741346 0.111987 -0.196685
-0.799645 0.298585 -0.524563
-0.34706 0.158149 -0.517865
-0.660784 0.219216 1.08758
-0.742142 0.124524 0.445445
-0.859893 0.280459 0.748633
-0.370474 0.16888 0.766453
-0.704497 0.809142 -0.855
-0.79435 0.685016 -0.538188
-0.701984 0.862203 -0.235
-0.394597 1.03829 -0.545
-0.659609 0.930974 1.005
-0.788096 0.743302 0.712878
-0.69177 0.907562 0.385
-0.417707 1.26401 0.695
0.695894 0.144106 -0.839333
0.3469 0.158149 -0.518095
0.740813 0.11252 -0.197088
0.800241 0.298588 -0.524908
0.659845 0.220155 1.0874
0.370668 0.168883 0.766338
0.748588 0.118078 0.445158
0.860373 0.280206 0.74846
0.704535 0.809477 -0.855
0.394547 1.03838 -0.545
0.794887 0.685377 -0.538303
0.702046 0.862493 -0.235
0.659609 0.931068 1.005
0.417541 1.26382 0.695
0.788121 0.743221 0.71282
0.692048 0.908002 0.385
-0.830315 0.412329 -1.49892
-0.350674 0.385 -2.07628
-2.66579e-05 0.150102 -1.47949
-4.9755e-05 0.256773 -2.04466
-0.821168 0.288768 -1.16116
-0.347754 0.148441 -1.16002
-0.749134 0.591322 1.69502
-0.303985 0.615 2.09515
3.26151e-05 0.272255 1.73292
9.98378e-07 0.461753 2.1249
-0.856903 0.397607 1.38523
-0.329516 0.271477 1.40861
-0.000154259 0.840346 -1.51346
-0.000149265 0.55346 -2.04177
-0.857131 0.608074 -1.16372
-0.34987 0.847122 -1.165
-3.37933e-06 0.996143 1.64534
2.99513e-06 0.785337 2.03281
-0.753246 0.757729 1.33841
-0.324337 1.11822 1.315
0.828317 0.412384 -1.49938
0.350616 0.385 -2.07668
0.820958 0.288751 -1.16159
0.347772 0.14844 -1.16031
0.749147 0.591299 1.695
0.303999 0.615 2.09577
0.856627 0.397193 1.38514
0.329971 0.271483 1.40855
0.856064 0.608248 -1.16386
0.349715 0.847003 -1.165
0.753238 0.757736 1.33838
0.324326 1.11852 1.315
-0.806048 0.300055 0.112035
-0.358609 0.170115 0.124294
-0.798258 0.466987 -0.846908
-0.814314 0.500809 -0.215843
-7.99736e-05 0.153454 -0.839074
-4.73586e-05 0.162701 -0.196886
-0.814699 0.513795 0.415223
-0.886476 0.543966 1.04629
7.11873e-05 0.169795 0.445301
9.78452e-05 0.250724 1.08749
-0.798726 0.717384 0.087345
-0.43524 1.25941 0.075
-6.47368e-05 0.898796 -0.855
-2.13563e-05 1.2264 -0.235
-2.41173e-05 1.29992 0.385
-1.8125e-05 1.24738 1.005
0.806674 0.29862 0.111776
0.359811 0.170122 0.124121
0.79869 0.467151 -0.847166
0.814802 0.500949 -0.216044
0.8151 0.51378 0.415079
0.886476 0.543897 1.0462
0.799215 0.717778 0.0872587
0.435232 1.25941 0.075
-0.808507 0.271884 -1.48993
-0.794221 0.305474 -0.842861
-0.778882 0.637264 -0.850954
-0.850396 0.561537 -1.48696
0.805384 0.271876 -1.49048
0.846687 0.561624 -1.48719
0.779259 0.637461 -0.851083
0.794284 0.305573 -0.843249
-0.347627 0.146164 -1.48022
0.347636 0.146169 -1.48053
0.347962 0.146308 -0.839203
-0.34806 0.146308 -0.838945
-0.330913 0.792465 -1.49423
-0.35148 0.85879 -0.855
0.351382 0.885694 -0.855
0.330637 0.792549 -1.49423
-0.349087 0.255887 -2.01091
-0.331315 0.53423 -2.02637
0.331087 0.53423 -2.02663
0.349058 0.255887 -2.00725
-0.804711 0.298388 -0.206264
-0.809863 0.30181 0.430334
-0.797549 0.732412 0.400111
-0.799149 0.702505 -0.225421
0.805243 0.297712 -0.206566
0.799629 0.702867 -0.225522
0.797891 0.732611 0.400039
0.81082 0.300765 0.430118
-0.35285 0.164102 -0.196786
0.353371 0.164105 -0.196987
0.362833 0.174315 0.445229
-0.362134 0.174312 0.445373
-0.434301 1.18761 -0.235
-0.432495 1.27375 0.385
0.432477 1.2738 0.385
0.434309 1.18774 -0.235
-0.85565 0.358777 1.06693
-0.742487 0.431303 1.71236
-0.717086 0.761365 1.66001
-0.778765 0.739178 1.02564
0.855556 0.358483 1.0668
0.778822 0.739177 1.0256
0.717157 0.761368 1.66
0.742469 0.431097 1.71232
-0.353156 0.233247 1.08753
0.353515 0.233236 1.08745
0.311236 0.279521 1.73129
-0.311008 0.27952 1.73131
-0.331522 1.22633 1.005
-0.302236 0.982119 1.63517
0.302235 0.982253 1.63517
0.331491 1.22634 1.005
-0.298242 0.463376 2.117
0.298249 0.463376 2.11697
0.292071 0.775168 2.05209
-0.29206 0.775168 2.05205
-0.687022 0.19 -1.80082
-0.52125 0.127396 -1.7997
-0.696576 0.126757 -1.64148
-0.573141 0.39 2.02753
-0.43875 0.323635 2.04213
-0.633088 0.263579 1.89024
-0.640763 0.58 -1.79526
-0.467835 0.679075 -1.81908
-0.660991 0.696171 -1.63
-0.582031 0.84 1.96814
-0.420205 0.947148 1.96715
-0.59237 0.933202 1.78
0.52125 0.127396 -1.80022
0.701383 0.19 -1.81583
0.696676 0.126658 -1.64214
0.43875 0.323668 2.0421
0.572952 0.39 2.02734
0.632938 0.263728 1.89021
0.467437 0.679315 -1.81932
0.640324 0.58 -1.79526
0.660761 0.696322 -1.63
0.420213 0.946859 1.96686
0.581879 0.84 1.96798
0.592337 0.933177 1.78
-0.694034 0.149299 -0.678283
-0.73849 0.11151 -0.357218
-0.798348 0.199207 -0.521156
-0.519789 0.158202 -0.517808
-0.670855 0.205812 0.927043
-0.763288 0.106712 0.605978
-0.818707 0.194085 0.757571
-0.553823 0.160797 0.766481
-0.707907 0.826446 -0.7
-0.763728 0.76854 -0.541594
-0.703932 0.850258 -0.39
-0.578582 0.994847 -0.545
-0.668442 0.925914 0.85
-0.752841 0.842184 0.703939
-0.685651 0.915336 0.54
-0.572015 1.14143 0.695
0.693812 0.149521 -0.678771
0.519651 0.158211 -0.518153
0.737865 0.112135 -0.357649
0.799013 0.199078 -0.521559
0.671788 0.204878 0.926841
0.553958 0.160853 0.766309
0.752309 0.117691 0.605719
0.819053 0.19384 0.75737
0.708235 0.827053 -0.7
0.578554 0.995039 -0.545
0.764055 0.768871 -0.541651
0.704105 0.850676 -0.39
0.668462 0.926044 0.85
0.571976 1.14151 0.695
0.752861 0.842198 0.70391
[...]
POINT_DATA 3682
SCALARS point_scalars float 1
LOOKUP_TABLE default
-55.5529
-33.4683
-12.7594
-31.4964
-74.3384
-33.6266
-12.9148
-31.7085
-31.8806
-50.9438
-56.1822
-48.9915
-30.8823
-46.2094
-56.2313
-49.013
-53.4215
-111.564
-33.113
-54.748
-37.4972
-33.3446
-33.3446
10.8648
-111.426
-33.6713
-49.022
-35.3007
-31.4273
-30.2685
80.3551
-75.066
-44.5958
-42.8638
-35.1841
-30.7559
-30.3416
-8.12961
-69.0338
-73.4307
-59.8284
-34.7242
-30.8596
-30.1374
33.587
-59.6278
-31.1431
-48.8865
-36.1117
-33.3446
-30.1617
69.5997
-30.3387
-29.7334
158.947
-28.0051
-29.3232
18.5587
-41.7352
-59.9149
-63.9987
-32.7336
-28.7794
-27.2542
34.6016
-80.8043
-32.734
-52.8852
-36.1018
-33.4933
-30.302
72.0157
-30.4688
-29.9075
173.686
-28.3353
-29.5425
18.4176
-42.4774
-59.6
-64.0265
-27.4765
-39.5399
-39.5399
-78.0603
-107.429
-33.3013
-45.4016
-37.5137
-33.4933
-33.4933
17.1446
-110.053
-33.7689
-52.2757
-35.4341
-38.7733
-38.7733
85.6943
-78.423
-44.63
-42.8694
-30.0462
-39.4191
-39.5399
-8.00555
-68.2907
-73.4781
-59.8268
-27.4765
-39.5399
-39.5399
9.20591
-99.828
-51.5898
-30.3937
-33.4068
-36.4486
-27.1334
-50.5395
-28.7113
-43.8456
13.2585
-52.3489
-30.6382
-36.5669
-50.3373
-43.8253
-34.2745
-37.0688
-37.7284
-30.9731
-48.1373
-54.36
15.7544
-64.1266
-34.4655
-37.0948
-31.1351
-54.471
-56.9501
-56.7958
-50.9282
-14.885
206.802
-38.3934
-38.5192
-35.1448
-88.8629
-53.6772
-53.7052
-33.8452
-37.9635
-24.0211
12.0723
-131.555
-80.7226
-31.5498
-33.8483
-38.004
23.0219
-35.8474
-56.0098
-30.9708
-28.426
-35.9598
-131.73
5.52045
-80.4415
-34.0008
-31.7348
-38.1424
-35.6544
21.927
-55.6446
-28.5441
-31.279
-36.0244
-43.7094
-36.1853
-34.7778
-37.5018
-38.0955
-35.9351
-34.1483
-46.5146
-35.4913
-43.0994
-56.6807
5.77893
-45.8428
-40.7483
-51.5313
-61.3892
-40.005
-37.3739
-36.1901
-34.8126
-38.4797
-46.6497
-36.2595
-34.6869
-35.0986
5.80985
-43.1485
-56.745
-45.9078
-61.3262
-40.8042
-51.6355
-97.6943
158.514
-69.7284
194.448
-55.079
-52.738
-38.3512
-27.6499
-34.0477
-29.9427
-48.3371
-34.892
-30.4991
156.882
-60.7712
-18.7059
-31.5975
-23.3643
-48.5932
-38.9249
-95.2781
158.248
-55.1631
-52.8222
-38.4634
-28.016
-48.361
-34.9677
-60.7383
-18.6225
-48.6935
-38.8655
-35.7233
-36.2589
-39.6412
-38.1356
-44.6709
-37.2359
-36.9185
-43.3711
-40.8698
-38.8784
-44.0959
-82.0218
9.20925
-62.7862
-76.2354
-50.8415
-35.8706
-36.2258
-39.4605
-38.2728
-37.2255
-43.3356
-44.2877
-82.1171
-92.0555
-40.4344
-40.6035
-108.19
-89.6099
-104.37
-40.6295
-40.0495
-75.8335
-75.9538
-44.3641
-44.6083
-34.3564
2.63894
2.64392
-34.299
93.0668
132.069
133.41
95.4882
-35.5433
-33.9483
-43.7715
-45.0038
-35.6481
-45.0879
-43.8943
-34.227
-36.2571
-36.2253
-38.7963
-38.7983
-60.2761
-69.6296
-69.7857
-60.6941
-42.8094
-38.3711
-38.6878
-45.9716
-42.9289
-46.0353
-38.7948
-38.4651
-39.4042
-39.5259
-34.4847
-34.3324
-50.9007
-32.5563
-32.5898
-50.9351
-30.3107
-30.4412
-26.8522
-26.4478
0.651261
-149.753
-115.218
-32.2681
-33.9397
-37.0223
25.492
-29.5429
-51.0329
-31.4992
-28.8275
-33.3284
-151.596
-5.28858
-113.113
-34.0949
-32.4603
-36.8427
-29.0207
25.0744
-51.1948
-29.0459
-31.8238
-33.4421
-36.0588
-35.7809
-33.248
-36.3875
-45.0478
-39.6479
-34.9943
-50.4444
-45.7587
-48.4371
-57.2534
-29.7372
-48.0643
-45.5231
-50.5136
-54.5506
-36.0599
-36.2866
-35.9966
-33.3252
-46.4942
-50.9186
-37.68
-34.7545
-45.3932
-29.4975
-48.521
-57.284
-48.1241
-54.5266
-45.5393
-50.5982
9.66261
17.3889
-112.69
120.913
-108.673
-108.639
-82.96
134.113
-63.2575
-40.8463
-53.6364
-52.3341
-31.2576
-30.5243
-34.7614
-29.0813
-33.6563
-33.7727
-33.3892
-29.672
-37.5062
-36.5246
-45.1109
-35.294
-28.6712
-28.8948
-32.5835
61.2979
-54.5009
-41.9806
-61.3693
-25.7518
-28.5887
-28.6454
-29.9538
-21.4632
-39.7699
-46.6628
-45.116
-40.7653
7.38926
14.7553
-113.028
120.336
-63.3686
-45.2204
-53.882
-52.5858
-31.4619
-30.785
-34.963
-29.3109
-37.6486
-36.49
-45.1017
-35.3853
-54.2661
-41.4942
-61.2072
-25.7329
-39.7571
-46.7716
-45.1377
-40.7829
-34.7767
-34.5597
-34.461
-35.4006
-35.674
-39.3519
-37.207
-37.4513
-37.5935
-37.4859
-40.5156
-36.5702
-27.4262
-36.1964
-34.8523
-31.3951
-49.5091
-49.5481
-48.5958
-42.9189
-56.1612
-52.6611
-48.8429
-66.2509
14.5913
14.5572
23.4002
-14.4365
-63.7628
-63.7353
-70.2383
-57.906
-34.074
-35.5879
-34.2724
-35.4033
-35.6889
-39.3993
-37.1065
-37.4648
-27.645
-36.3076
-34.9835
-31.5471
-56.2881
-52.7559
-48.9751
-66.3676
-70.8629
-56.1997
-58.0963
-51.6567
-70.6625
-56.1484
-58.0778
-51.5591
-58.9772
-51.8135
-51.8205
-45.1959
-26.8821
-16.185
-16.1001
-3.15645
195.385
185.33
175.319
195.409
-36.6876
-38.8417
-37.7705
-41.0476
-36.8394
-39.0468
-37.9951
-41.0198
-35.5605
-35.6511
-37.8814
-35.721
-88.0996
-91.1393
-82.8538
-88.1657
-45.4783
-50.8444
-54.1703
-49.6435
-45.6121
-50.7585
-54.3637
-49.7062
-32.1899
-34.1911
-34.2455
-35.949
-34.1795
-38.146
-38.1504
-43.4188
-25.218
-27.3957
-23.5061
-25.5722
-124.69
98.7774
-94.9422
-12.2137
-88.3449
-78.6746
-34.7778
-30.5907
-34.0997
-30.7802
-39.6054
-34.6509
-47.2462
78.9956
-37.9342
66.1365
-84.0447
-40.8686
-35.5501
-28.9791
-30.382
-26.0951
-37.8908
-33.4693
-95.1392
-13.1729
-125.624
99.068
-86.1675
-78.6803
-34.0456
-30.9351
-34.9318
-30.7319
-39.6711
-34.8764
-37.8843
62.3714
-47.7784
77.3994
-82.7563
-40.528
-30.4559
-26.6487
-35.7222
-29.2555
-37.9787
-33.5313
-40.0936
-43.301
-34.2855
-36.0309
-35.6741
-34.6988
-40.5508
-36.2093
-40.5297
-38.5474
-34.7631
-38.1856
-31.7848
-49.6978
-41.5942
-45.0887
-41.5456
-9.98771
-41.2305
-44.2616
-50.4719
-79.8721
14.5971
-24.0639
-46.3411
-51.8738
-41.7134
-41.9912
-49.7268
-58.8067
-65.4285
-57.139
-39.2267
-42.6294
-40.3932
-36.1554
-34.2896
-35.9977
-35.4902
-34.823
-40.6244
-38.739
-41.6376
-45.2658
-35.17
-38.1273
-31.9192
-49.8314
-41.257
-10.0269
14.647
-24.2103
-41.2529
-44.3642
-50.5477
-80.0426
-46.4095
-51.9107
-65.3635
-57.1126
-41.8607
-42.0405
-49.8384
-58.9181
-96.7867
-98.997
133.721
166.989
-72.5664
-72.6317
175.509
174.984
-68.365
-51.3852
-62.5128
-45.9207
-38.2595
-38.8017
-29.2895
-27.2734
-34.2521
-34.1966
-29.6981
-29.7905
-44.8015
-50.0247
-36.7412
-32.8928
-31.4903
-31.4181
156.565
153.781
-49.6121
-75.3008
-27.8059
-8.78639
-31.8238
-31.8441
-24.8737
-24.4845
-43.7268
-49.8161
-44.2285
-35.0658
-94.976
-95.7431
167.699
133.943
-67.8953
-51.1306
-62.6203
-45.889
-38.919
-38.3581
-29.5215
-27.6575
-44.8612
-50.1815
-36.8132
-32.9832
-75.7263
-49.5083
-8.7941
-27.7795
-49.9212
-43.759
-35.0864
-44.2453
-36.1862
-34.9702
-35.4832
-36.8568
-40.1847
-38.9601
-36.6088
-41.2307
-45.4656
-45.5424
-36.8217
-36.8
-35.0543
-39.9653
-44.0261
-41.8413
-40.0944
-40.0755
-39.1095
-39.164
-42.5337
-45.1584
-87.7487
-75.1348
8.93822
8.57385
-61.7384
-61.9336
-74.7555
-74.7919
-50.7682
-50.7261
-36.2781
-35.2719
-35.4573
-36.9577
-38.7764
-39.9023
-36.7223
-41.3254
-40.2238
-35.2964
-44.1251
-41.8091
-45.2718
-42.7665
-75.1933
-87.5302
-113.325
-66.5683
-69.8773
-121.696
-33.0369
-36.3054
-51.9576
-50.1623
-44.9113
-48.5754
-50.1951
-38.6727
-43.5595
-97.9035
-72.0706
-78.4705
-111.78
-121.609
-69.6178
-66.3256
-43.7631
-79.6436
-72.0347
-100.046
-44.9352
-38.557
-50.1438
-48.435
-34.519
-49.9017
-51.7777
-36.2193
-102.252
-89.0005
-60.3742
-63.0869
-102.044
-63.2084
-60.4143
-89.1104
-38.9354
-41.2867
-45.255
-45.332
-39.2466
-45.2902
-45.2959
-41.3188
-41.2995
-33.8764
-25.8861
-34.8608
-4.7813
20.5718
-4.75356
-17.0954
-2.387
-17.2729
-4.54536
20.3308
-41.3028
-34.8713
-25.8453
-33.7578
37.816
109.248
170.26
-40.3954
68.1939
83.4942
166.04
124.311
66.3774
124.504
167.009
85.9562
28.0485
-42.9512
169.766
109.902
-34.4386
-34.5051
-37.1311
-35.8883
-34.7762
-32.6977
-36.0585
-33.3089
-46.3876
-47.7533
-40.2893
-38.0878
-50.0443
-40.238
-41.7521
-50.114
-34.5508
-35.9967
-37.2118
-34.0324
-50.1127
-50.2229
-41.7995
-40.4546
-46.4999
-38.2027
-40.4543
-47.8994
-33.8873
-33.6977
-36.2899
-32.8774
-35.7997
-36.5998
-35.4966
-35.3487
-35.7945
-35.3056
-35.5045
-36.5556
-41.1493
-45.0376
-37.5369
-36.5888
-41.377
-36.5051
-37.7535
-44.9712
-74.6865
-72.7719
-90.1689
-16.1096
-56.4518
-69.0725
-80.8589
-61.568
-56.5064
-61.659
-80.8855
-69.045
-74.5532
-16.2464
-90.1311
-72.7417
-51.7384
-42.2324
-47.242
-41.5573
-35.7301
-34.6755
-48.6081
-48.7528
-34.9767
-41.8741
-44.5176
-35.2498
-45.9273
-36.3095
-52.0569
-47.3045
-52.6028
-41.6156
-47.3074
-42.2398
-45.9587
-47.4799
-52.0346
-36.3309
-35.1027
-35.4571
-44.6206
-41.8295
-35.8615
-48.8732
-48.7383
-34.8544
-44.5271
-43.8094
-36.3888
-36.6367
-44.868
-36.6946
-36.4356
-43.8862
-35.6401
-33.6367
-32.4077
-34.348
-35.6825
-34.2376
-32.367
-33.5931
-51.6294
-46.135
-43.5448
-57.8791
-31.1132
-30.0271
-34.439
-36.4783
-31.2222
-36.5079
-34.4497
-30.0683
-51.6296
-57.8461
-43.5563
-46.1456
-31.0414
-30.0593
-27.9515
-30.0195
-31.213
-30.17
-28.1887
-30.1522
-29.193
-23.2421
-24.9655
-29.3822
-28.9128
-29.124
-24.6055
-22.7838
5.13607
-98.4073
-171.671
-32.7652
-33.5424
-36.0651
7.96505
-28.5516
-45.8372
-31.9075
-29.7163
-32.4179
-110.902
-17.6018
-169.959
-33.7039
-32.9535
-36.2054
-26.9502
7.90067
-45.897
-29.9395
-32.2017
-32.5425
-34.9193
-30.7429
-31.7385
-35.2969
-54.4881
-44.5404
-46.1053
-49.5803
-56.0336
-51.901
-56.6561
-66.3728
-48.6227
-47.6321
-49.6529
-50.8767
-34.8734
-35.2571
-31.1062
-31.6617
-56.8463
-50.8617
-41.8207
-40.9176
-56.1896
-66.1344
-51.9827
-56.6634
-48.6436
-50.8757
-47.6584
-49.6849
16.5219
13.8319
-37.4877
82.2775
-100.2
-100.24
-92.5764
-26.256
-56.8625
-47.1327
-52.2
-52.0349
-30.9115
-30.2745
-33.4278
-29.568
-33.5975
-33.6094
-34.2652
-31.7123
-36.273
-36.4232
-42.4302
-35.2979
-26.2449
-27.3276
-30.8037
-17.0491
-53.7269
-46.3271
-58.1758
-34.5826
-28.6965
-28.721
-29.3596
-23.3302
-41.6291
-45.3213
-44.4221
-42.9606
14.8843
14.6609
-38.5595
82.7761
-57.2499
-48.6656
-52.9123
-52.4835
-31.1628
-30.5269
-33.6904
-29.7799
-36.497
-36.3936
-42.5409
-35.3805
-53.5452
-46.1244
-57.9707
-34.5095
-41.6269
-45.3048
-44.3873
-42.9709
-35.1423
-34.0981
-33.8487
-35.1956
-36.2924
-38.0286
-36.9771
-37.2609
-37.6701
-37.6287
-38.686
-36.9317
-28.3548
-33.4866
-33.2862
-27.6142
-48.8215
-48.8213
-50.4424
-45.5041
-55.3655
-53.3781
-51.8034
-59.3573
15.5358
15.5962
22.3876
0.0213136
-64.0987
-64.0822
-67.3585
-61.231
-34.0096
-34.4451
-33.9074
-35.3351
-36.3104
-38.0665
-36.9572
-37.2857
-28.5273
-33.6336
-33.4163
-27.876
-55.4314
-53.4947
-51.9412
-59.4648
-62.8245
-56.5122
-57.7791
-54.2174
-62.7938
-56.4171
-57.6716
-53.6159
-54.7971
-51.1014
-51.1094
-47.9714
-21.8091
-15.4588
-15.409
-8.95904
204.802
194.673
197.362
204.787
-37.4694
-38.6492
-38.0687
-39.5749
-37.6066
-38.7745
-38.2379
-39.615
-35.1726
-35.4552
-37.1675
-35.2164
-88.8298
-92.7298
-85.9122
-88.8998
-55.0897
-52.409
-55.5412
-50.8808
-54.856
-52.3373
-55.6853
-50.9583
-32.7927
-33.8982
-33.9306
-34.8578
-35.9569
-38.0232
-38.0283
-40.5953
-24.2358
-25.3926
-23.4291
-24.4796
-9.43525
11.5987
-84.658
46.6588
-138.279
-119.836
-111.496
-52.4048
-94.0066
-71.0991
-86.8691
-80.2966
-31.9835
-31.3641
-33.8299
-30.8057
-34.0438
-33.6139
-34.6664
-31.6919
-37.5866
-36.9728
-40.2037
-35.1944
25.4084
20.5142
-7.53876
59.1257
-31.4014
-33.8334
-37.1748
-11.3815
-52.6206
-55.5351
-64.8423
-47.0754
-31.2575
-30.6879
-35.34
-29.5804
-28.4934
-28.4899
-29.3282
-27.2628
-34.462
-37.4577
-37.1293
-34.3006
-138.819
-119.71
-111.671
-51.8523
-8.88564
8.40128
-91.8063
51.2984
-93.3204
-70.9989
-85.9317
-80.2256
-34.2148
-33.7159
-34.6723
-31.8629
-32.1634
-31.5602
-34.0397
-30.9608
-37.545
-37.0861
-40.2656
-35.4569
-31.1336
-33.9849
-37.2158
-11.3053
24.7349
18.2312
-8.62938
58.7784
-52.7909
-55.015
-64.3366
-46.8493
-28.6492
-28.5756
-29.4262
-27.6876
-31.5879
-30.9666
-35.6897
-29.8348
-34.5609
-37.5229
-37.2078
-34.3564
-38.5056
-43.8788
-40.3327
-43.2418
-35.48
-34.8928
-35.2199
-36.1714
-34.0515
-35.1905
-35.1111
-34.6056
-37.3285
-37.2111
-38.5285
-36.8196
-40.5454
-36.986
-39.8218
-38.1726
-35.045
-35.3849
-34.3655
-38.1696
-36.8791
-29.0534
-27.8497
-48.0218
-47.5579
-48.5079
-44.3688
-49.4691
-35.9194
-37.8899
-40.199
-24.1935
-45.4311
-41.0716
-42.3049
-43.8013
-57.02
-56.5657
-53.5874
-65.9477
-2.60796
11.8398
14.2689
-5.54422
-47.067
-45.6847
-46.1896
-48.7201
-43.3278
-38.8588
-41.0818
-40.9685
-51.1356
-52.0298
-50.3696
-54.7672
-59.4555
-63.0936
-63.6713
-59.7227
-37.9455
-42.4633
-38.2098
-41.8124
-37.2179
-37.0517
-38.3718
-36.7353
-35.5195
-34.9939
-35.5444
-36.1621
-34.1142
-35.2054
-35.0409
-34.7061
-41.3176
-37.0722
-39.9778
-38.4012
-47.7596
-48.5918
-44.4622
-49.6252
-37.2098
-36.005
-35.1091
-38.153
-37.9414
-29.3474
-28.0712
-48.3609
-35.1465
-37.7075
-40.0662
-24.4433
-2.41335
11.7106
14.3196
-5.62632
-45.4999
-41.1201
-42.2707
-43.8899
-57.0934
-56.6493
-53.7123
-66.0867
-47.1085
-45.7624
-46.2557
-48.7592
-59.4266
-63.0521
-63.6296
-59.6897
-43.3507
-38.938
-41.148
-41.0174
-51.2825
-52.129
-50.5067
-54.8784
-121.053
-82.2455
-97.4808
-96.9794
136.928
183.877
129.179
177.16
-76.5642
-63.8011
-70.8054
-70.8378
186.869
187.93
180.768
180.986
-54.3842
-55.7543
-60.9436
-52.1471
-52.515
-52.426
-57.1423
-49.1209
-36.4382
-41.4578
-38.3024
-38.5734
-28.3889
-26.3507
-28.3914
-27.4796
-33.8487
-33.0123
-34.211
-34.186
-30.2661
-28.7403
-29.9005
-29.9841
-46.844
-49.4866
-46.2156
-50.3908
-35.1852
-34.5291
-35.7554
-34.1289
-30.1327
-29.9781
-30.0575
-30.0149
128.136
170.264
159.726
157.976
-62.2521
-59.5015
-55.1001
-66.1796
-21.6992
-17.0016
-23.4022
-13.498
-30.9657
-32.6906
-31.6615
-31.6676
-22.0112
-23.521
-23.9412
-23.7144
-46.6305
-50.0432
-46.4278
-49.7096
-39.6637
-38.3909
-41.2411
-36.759
-121.188
-80.5364
-95.7648
-94.9782
137.15
183.405
177.046
129.314
-54.5515
-55.7806
-61.1985
-52.3449
-52.6572
-52.4651
-57.2436
-49.1593
-36.5713
-41.571
-38.6903
-38.4073
-28.6845
-26.7367
-28.7415
-27.8603
-46.8477
-49.5068
-46.26
-50.5206
-35.2666
-34.5893
-35.8309
-34.207
-62.1441
-59.3877
-66.5689
-54.7912
-21.6664
-16.8898
-13.4274
-23.3493
-46.7642
-50.0407
-49.7856
-46.4331
-39.6787
-38.3804
-36.7724
-41.4102
-35.0642
-36.0875
-36.1117
-35.3371
-36.1961
-35.7172
-35.6517
-36.7133
-37.9213
-44.4043
-39.9472
-39.1735
-37.7549
-38.7324
-37.2711
-39.3667
-42.3017
-45.2516
-45.1051
-45.1362
-36.8113
-36.708
-37.0707
-37.0694
-36.0774
-37.3105
-35.8377
-38.2753
-41.7783
-46.1839
-43.6599
-42.7955
-44.015
-36.8212
-40.0959
-40.063
-40.213
-37.1579
-39.0265
-39.0513
-46.5876
-42.4564
-43.3288
-44.7019
-75.371
-86.5925
-84.2414
-77.9157
16.5237
4.01144
8.84979
8.65825
-37.7815
-82.5569
-62.736
-62.3051
-72.9909
-79.7717
-75.9497
-76.0052
-54.2727
-46.6711
-50.8581
-50.8874
-35.1009
-36.2416
-36.2172
-35.6318
-36.1908
-35.5728
-35.6292
-36.76
-37.757
-44.2309
-39.0078
-39.704
-37.8947
-38.8621
-37.3965
-39.4805
-36.2966
-37.5735
-38.5658
-36.1295
-41.4433
-46.2664
-43.7382
-42.6705
-46.7115
-42.793
-44.8535
-43.5452
-75.5244
-86.7486
-77.9564
-84.3425
-111.925
-89.494
-95.0869
-78.2099
-40.175
-37.091
-45.6079
-40.4383
-41.4978
-39.6666
-44.1976
-39.2481
-107.67
-99.6578
-104.623
-90.2953
-111.359
-87.1251
-92.8674
-76.6426
-110.046
-98.4845
-99.6665
-88.0771
-41.3613
-39.4832
-43.9888
-39.1418
-39.6621
-36.7548
-45.1507
-40.0767
-84.4779
-76.579
-74.4967
-68.5983
-84.6234
-76.6574
-74.6031
-68.7008
-43.4086
-41.9411
-45.274
-45.3658
-43.794
-42.1619
-45.422
-45.5173
-36.7148
-37.0391
-33.0793
-31.3561
-0.730294
8.51403
-3.71224
5.86976
-2.50387
8.7449
-3.62765
7.22227
-36.6991
-36.9342
-33.0306
-31.2943
107.037
32.9942
137.787
156.578
96.9918
110.231
146.164
142.132
110.873
96.513
142.362
146.81
35.2887
107.523
154.992
138.057
-34.204
-34.9345
-36.1505
-36.0797
-32.7597
-33.4025
-34.8434
-34.6931
-42.7666
-47.348
-41.7649
-42.9569
-44.6789
-47.4172
-42.97
-45.2999
-34.2552
-35.0626
-36.2478
-36.1885
-44.7729
-47.4989
-43.0582
-45.3941
-42.964
-47.428
-41.9631
-43.0865
-33.4076
-33.5666
-35.2084
-34.8723
-36.1271
-36.1326
-35.8906
-36.7241
-36.092
-36.0895
-36.6893
-35.8659
-40.1227
-38.4929
-39.3103
-37.5654
-38.5144
-40.1113
-37.5514
-39.3162
-71.7015
-42.092
-78.1044
-60.9691
-64.5399
-67.5487
-72.3871
-72.7059
-67.5647
-64.6102
-72.7831
-72.4318
-42.141
-71.94
-61.0593
-78.0499
-41.6945
-43.3639
-43.5517
-43.7614
-36.2376
-38.5655
-38.2922
-42.1361
-36.7605
-38.4968
-38.7789
-40.9958
-46.025
-43.435
-48.8642
-46.1252
-41.7809
-43.5181
-43.6197
-43.8646
-46.0892
-43.4854
-48.9588
-46.1246
-36.8915
-38.5949
-38.8933
-41.0932
-36.3461
-38.6523
-38.388
-42.2417
-39.2164
-41.4207
-37.8522
-39.2454
-39.3799
-41.5659
-37.9441
-39.3366
-34.3376
-34.7067
-34.2968
-33.384
-34.2084
-34.5064
-34.2129
-33.2754
-51.2913
-54.1678
-47.5126
-50.7705
-31.5049
-32.9417
-32.1381
-33.5177
-31.5759
-32.9936
-32.1724
-33.5522
-51.3474
-54.1884
-47.5365
-50.7972
-30.4376
-30.4122
-29.9066
-30.1121
-30.5504
-30.5732
-30.2433
-30.0698
-26.7948
-28.4094
-25.6069
-27.1827
-28.0733
-26.3711
-26.7822
-25.1654
-117.621
-7.96777
-126.292
33.5301
-111.592
-109.598
-34.9905
-31.4212
-35.9234
-32.0557
-36.9749
-36.8908
-25.8692
60.2159
-34.6043
27.6632
-51.0069
-45.1327
-34.2623
-29.6385
-29.8326
-28.882
-34.7226
-31.7706
-125.518
32.9818
-123.411
-170.077
-107.606
-109.03
-35.5533
-32.2503
-35.1781
-31.6054
-36.994
-36.9641
-35.0684
28.0066
-25.2577
60.3157
-51.4694
-45.1363
-29.9989
-29.1466
-34.4853
-29.9282
-34.8505
-31.9204
-33.5205
-38.4315
-34.9876
-36.3066
-33.2168
-33.2054
-36.6061
-36.3098
-47.7452
-44.3013
-35.8751
-43.0327
-36.8217
-59.3182
-44.1129
-50.3353
-46.0059
-27.274
-47.4025
-49.5529
-53.2611
-72.3181
-10.4774
-50.2336
-47.5227
-48.8934
-45.8501
-45.7181
-48.9069
-53.3688
-54.9135
-52.6868
-33.8728
-38.1664
-36.402
-36.2826
-35.2663
-36.3615
-33.1097
-33.3845
-48.9655
-44.9395
-44.7261
-50.557
-34.8093
-41.4415
-36.051
-61.2839
-46.146
-26.2943
-9.17058
-50.2514
-47.4115
-49.6126
-53.3459
-72.5257
-47.5527
-48.9283
-54.8977
-52.6714
-45.8643
-45.7541
-48.9842
-53.4453
-66.2516
79.3723
-11.2185
80.8146
-119.389
-109.296
106.425
124.917
-99.0711
-126.359
-99.1469
-126.45
-84.2723
-84.3078
85.6732
87.1436
-65.3491
-63.0872
-48.562
-44.936
-59.4205
-50.5104
-57.1236
-48.4727
-33.508
-30.2367
-34.2252
-29.5986
-34.6429
-35.0096
-29.7447
-28.9623
-34.4545
-32.1654
-34.5395
-31.9748
-33.4604
-33.4304
-29.9815
-29.9187
-46.5166
-35.1894
-40.2109
-36.2878
-43.61
-48.2054
-35.8688
-34.6982
-36.03
-32.0324
-36.1228
-31.3434
-32.1188
-32.1997
72.5749
73.5533
-67.8854
-40.5409
-46.5803
-28.1008
-54.1393
-70.4438
-30.5332
-22.1329
-29.292
-24.2838
-29.3401
-24.6051
-29.9688
-29.993
-21.961
-21.698
-40.7905
-38.2478
-46.6751
-47.3002
-43.6401
-46.6098
-43.5147
-38.4058
-68.378
80.4021
-11.7822
81.1564
-119.376
-110.959
125.004
107.029
-65.5058
-63.2186
-49.1339
-45.1977
-59.5959
-51.3096
-57.3074
-48.7114
-33.7498
-30.401
-34.4865
-29.8119
-35.2185
-34.8287
-29.9183
-29.198
-46.5949
-35.2989
-40.208
-36.336
-43.6379
-48.3156
-35.9607
-34.7818
-67.5628
-40.3513
-46.4634
-28.1147
-70.3169
-53.935
-22.177
-30.4537
-40.6938
-38.2769
-46.9166
-47.3007
-46.6272
-43.657
-38.4319
-43.526
-34.7958
-35.345
-33.7166
-36.521
-35.0341
-33.4051
-35.2984
-35.8199
-35.8866
-35.7441
-38.9109
-39.8019
-36.6692
-37.7988
-36.5569
-38.7785
-38.9804
-36.6225
-38.8921
-36.5474
-40.3241
-40.5005
-36.3569
-36.3471
-30.4318
-32.4836
-37.1333
-35.9772
-33.5528
-36.38
-36.1776
-31.4507
-47.035
-47.7442
-47.0948
-47.8036
-47.5936
-47.5755
-43.163
-43.2004
-52.9938
-62.616
-50.8618
-56.482
-47.9544
-49.3779
-69.3279
-63.5835
21.0723
-0.684257
20.9043
-0.643523
21.4452
21.5752
-14.283
-14.6897
-66.4631
-60.9585
-66.4248
-60.9376
-70.0827
-70.0556
-58.016
-57.9676
-34.4567
-35.2196
-34.426
-36.7261
-34.8723
-33.6427
-35.3486
-35.8227
-35.8261
-35.8091
-38.8948
-39.8999
-37.6942
-36.5965
-36.6226
-38.8758
-30.6496
-32.5947
-37.2425
-36.0563
-36.4959
-33.7106
-36.3282
-31.4996
-53.0998
-62.7601
-50.9905
-56.5987
-49.5198
-48.1202
-63.6391
-69.474
-70.4608
-71.2006
-62.2909
-52.3836
-56.1175
-63.7235
-52.6896
-50.9991
-70.1285
-71.0929
-62.2888
-52.2925
-63.8474
-56.0499
-50.9099
-52.5291
-58.9843
-59.0243
-55.8324
-48.4531
-55.8528
-48.4373
-44.7367
-44.7582
-26.5993
-26.6005
-20.8865
-10.4636
-10.3516
-20.8876
-3.66794
-3.58342
176.143
196.667
179.287
179.21