# vtk DataFile Version 2.0
tet_velo
ASCII
DATASET UNSTRUCTURED_GRID
POINTS 29498 float
-0.842148 0.185 -1.885
-0.625 0.265 2.05821
-0.755 0.674343 -1.925
-0.617652 0.915 2.085
0.842148 0.185 -1.885
0.625 0.265 2.05821
0.755 0.674085 -1.925
0.617659 0.915 2.085
-0.761712 0.21972 -0.570597
-0.761325 0.174391 0.743807
-0.79568 0.841025 -0.588333
-0.760117 0.931463 0.748334
0.761714 0.219718 -0.570597
0.761323 0.174393 0.743807
0.795755 0.840925 -0.588333
0.760152 0.931407 0.748334
-1.62476 -0.17973 -2.93809
-1.61379 -0.114403 -1.87765
-1.5488 -0.0987757 -0.563819
-1.49146 -0.139868 0.745528
-1.39415 -0.0987136 2.05898
-1.36895 -0.0552949 3.11757
-1.37821 -0.0181381 4.17958
-1.62358 0.10336 -2.95008
-1.61719 0.183333 -1.88721
-1.54807 0.229375 -0.569051
-1.48404 0.199577 0.747104
-1.34693 0.241445 2.06484
-1.3365 0.283791 3.12374
-1.36052 0.320039 4.18503
-1.58785 0.647686 -2.98032
-1.56846 0.723654 -1.91837
-1.56006 0.858462 -0.585036
-1.4861 0.919697 0.749879
-1.34303 0.920537 2.08279
-1.33449 0.958233 3.14077
-1.35981 0.997463 4.19847
-1.54518 1.57565 -3.00895
-1.53489 1.66537 -1.94366
-1.52955 1.8094 -0.603105
-1.50787 1.92255 0.742249
-1.46339 1.97247 2.08257
-1.43405 1.99785 3.14737
-1.42152 2.02702 4.2075
-0.838317 -0.178656 -2.93665
-0.834358 -0.109927 -1.87555
-0.778412 -0.102447 -0.5641
-0.762015 -0.156674 0.742713
-0.698108 -0.0908796 2.05406
-0.676533 -0.0498941 3.11423
-0.681093 -0.0166608 4.17765
-0.839508 0.0981076 -2.94964
-0.648002 0.290789 3.12099
-0.667152 0.321807 4.18357
-0.80763 0.624561 -2.98308
-0.646319 0.957938 3.14122
-0.666854 0.997317 4.19856
-0.768169 1.55868 -3.01167
-0.758481 1.64886 -1.94666
-0.764709 1.80368 -0.604913
-0.769023 1.92655 0.742466
-0.749955 1.97536 2.08412
-0.727123 1.99854 3.14892
-0.713682 2.02704 4.20862
0.774314 -0.178701 -2.93665
0.794344 -0.10994 -1.87555
0.761257 -0.102455 -0.5641
0.733933 -0.156678 0.742713
0.645712 -0.0908824 2.05406
0.667842 -0.0499002 3.11423
0.692664 -0.0166713 4.17765
0.776067 0.0980434 -2.94964
0.664112 0.290785 3.12099
0.692311 0.321797 4.18357
0.759361 0.624418 -2.98308
0.661608 0.957932 3.14122
0.691301 0.997305 4.19856
0.785951 1.55858 -3.01167
0.792085 1.64875 -1.94666
0.773707 1.8036 -0.604913
0.723667 1.9265 0.742465
0.680457 1.97533 2.08412
0.680954 1.99851 3.14892
0.695452 2.02702 4.20862
1.57298 -0.179829 -2.93809
1.59028 -0.114463 -1.87765
1.54251 -0.098814 -0.563819
1.48248 -0.139889 0.745528
1.37699 -0.0987264 2.05898
1.37022 -0.0553117 3.11757
1.39338 -0.0181624 4.17958
1.57914 0.103229 -2.95008
1.61553 0.183246 -1.88721
1.55398 0.229323 -0.569052
1.49368 0.199551 0.747104
1.36091 0.241436 2.06484
1.35792 0.283777 3.12374
1.38776 0.320016 4.18503
1.56032 0.647457 -2.98032
1.57642 0.723398 -1.91837
1.57002 0.858321 -0.585036
1.49545 0.919624 0.749879
1.35641 0.920516 2.08279
1.35512 0.958212 3.14077
1.38651 0.997435 4.19847
1.56295 1.57545 -3.00895
1.56544 1.66518 -1.94366
1.541 1.80925 -0.603106
1.47766 1.92246 0.742248
1.41424 1.9724 2.08257
1.4004 1.9978 3.14737
1.40969 2.02698 4.2075
-0.821961 0.429671 -1.92839
0 0.177441 -1.89256
-0.825054 0.179236 -1.2278
-0.668126 0.59 2.11841
0 0.261401 2.06181
-0.704737 0.208121 1.40101
0 0.73453 -1.98532
-0.840208 0.822552 -1.25667
3.48687e-06 0.953718 2.12372
-0.732714 0.967061 1.41667
0.821991 0.429543 -1.92842
0.824933 0.179357 -1.2278
0.668131 0.59 2.11841
0.704728 0.20813 1.40101
0.840329 0.822457 -1.25667
0.731897 0.966195 1.41667
-0.745975 0.212599 0.086605
-0.863565 0.530372 -0.579465
1.09582e-06 0.13543 -0.570597
-0.879108 0.552927 0.74607
-1.06157e-06 0.135689 0.743807
-0.778128 0.886473 0.08
3.72242e-05 1.08515 -0.588333
1.75291e-05 1.31725 0.748334
0.745974 0.2126 0.086605
0.863565 0.530321 -0.579465
0.879107 0.5529 0.74607
0.778164 0.886377 0.08
-0.87717 0.480022 -1.24223
-0.866381 0.54165 0.0833025
-0.88767 0.571463 1.40884
5.47909e-07 0.117454 -1.2278
1.71222e-08 0.143584 0.086605
-5.30787e-07 0.145234 1.40101
0 0.429607 -2.28083
1.74344e-06 0.59 2.29434
1.86121e-05 0.91895 -1.25667
2.73766e-05 1.31143 0.08
1.0508e-05 1.15542 1.41667
0.87717 0.479932 -1.24223
0.866379 0.541611 0.0833025
0.887743 0.57145 1.40884
-1.22967 0.184166 -1.88611
-0.838253 0.0375363 -1.88028
-0.840828 0.141554 -2.41732
-0.985966 0.253222 2.06152
-0.661554 0.0870602 2.05613
-0.636501 0.277895 2.5896
-1.16173 0.698999 -1.92169
-0.781315 0.649452 -2.45404
-0.75674 1.1616 -1.93583
-0.980341 0.917769 2.08389
-0.631985 0.936469 2.61311
-0.683803 1.44518 2.08456
0.818246 0.0375301 -1.88028
0.809107 0.141522 -2.41732
1.22884 0.184123 -1.88611
0.635356 0.0870588 2.05613
0.644556 0.277892 2.5896
0.992957 0.253218 2.06152
0.75718 0.649252 -2.45404
0.773543 1.16142 -1.93583
1.16571 0.698741 -1.92169
0.639633 0.936466 2.61311
0.649058 1.44516 2.08456
0.987033 0.917758 2.08389
-1.15489 0.224548 -0.569824
-0.770062 0.0586364 -0.567349
-1.12268 0.186984 0.745455
-0.76167 0.00885806 0.74326
-1.17787 0.849744 -0.586685
-0.780195 1.32235 -0.596623
-1.12311 0.92558 0.749106
-0.76457 1.42901 0.7454
0.761486 0.0586316 -0.567349
1.15785 0.224521 -0.569824
0.747628 0.00885744 0.74326
1.1275 0.186972 0.745455
0.784731 1.32226 -0.596623
1.18289 0.849623 -0.586685
0.741909 1.42895 0.745399
1.1278 0.925516 0.749106
-1.61928 -0.147067 -2.40787
-1.62417 -0.0381852 -2.94408
-1.23154 -0.179193 -2.93737
-1.58129 -0.106589 -1.22073
-1.61549 0.0344651 -1.88243
-1.22407 -0.112165 -1.8766
-1.52013 -0.119322 0.0908543
-1.54843 0.0652997 -0.566435
-1.16361 -0.100611 -0.56396
-1.44281 -0.119291 1.40225
-1.48775 0.0298545 0.746316
-1.12674 -0.148271 0.744121
-1.38155 -0.0770042 2.58827
-1.37054 0.0713657 2.06191
-1.04613 -0.0947966 2.05652
-1.37358 -0.0367165 3.64857
-1.35272 0.114248 3.12066
-1.02274 -0.0525945 3.1159
-1.36936 0.150951 4.1823
-1.02965 -0.0173995 4.17861
-1.62039 0.143346 -2.41865
-1.60572 0.375523 -2.9652
-1.23154 0.100734 -2.94986
-1.58263 0.206354 -1.22813
-1.59282 0.453494 -1.90279
-1.51605 0.214476 0.0890264
-1.55406 0.543919 -0.577044
-1.41549 0.220511 1.40597
-1.48507 0.559637 0.748491
-1.34171 0.262618 2.59429
-1.34498 0.580991 2.07381
-1.34851 0.301915 3.65438
-1.3355 0.621012 3.13226
-0.99225 0.28729 3.12237
-1.36016 0.658751 4.19175
-1.01383 0.320923 4.1843
-1.57816 0.68567 -2.44935
-1.56652 1.11167 -2.99463
-1.19774 0.636123 -2.9817
-1.56426 0.791058 -1.2517
-1.55168 1.19451 -1.93102
-1.52308 0.88908 0.0824215
-1.5448 1.33393 -0.59407
-1.41457 0.920117 1.41633
-1.49699 1.42112 0.746064
-1.33876 0.939385 2.61178
-1.40321 1.4465 2.08268
-1.34715 0.977848 3.66962
-1.38427 1.47804 3.14407
-0.990406 0.958085 3.14099
-1.39066 1.51224 4.20298
-1.01333 0.99739 4.19852
-1.54004 1.62051 -2.4763
-1.15667 1.56717 -3.01031
-1.53222 1.73739 -1.27338
-1.14669 1.65711 -1.94516
-1.51871 1.86598 0.0695717
-1.14713 1.80654 -0.604009
-1.48563 1.94751 1.41241
-1.13845 1.92455 0.742357
-1.44872 1.98516 2.61497
-1.10667 1.97391 2.08335
-1.42778 2.01244 3.67743
-1.08059 1.99819 3.14814
-1.0676 2.02703 4.20806
-0.836338 -0.144292 -2.4061
-0.838912 -0.0402744 -2.94315
-0.0320019 -0.178679 -2.93665
-0.806385 -0.106187 -1.21983
-0.0200074 -0.109934 -1.87555
-0.770214 -0.129561 0.0893065
-0.00857755 -0.102451 -0.5641
-0.730061 -0.123777 1.39839
-0.0140409 -0.156676 0.742713
-0.68732 -0.0703869 2.58414
-0.0261979 -0.090881 2.05406
-0.678813 -0.0332775 3.64594
-0.662267 0.120448 3.11761
-0.00434525 -0.0498971 3.11423
-0.674122 0.152573 4.18061
0.00578584 -0.0166661 4.17765
-0.823569 0.361334 -2.96636
-0.0317203 0.0980755 -2.94964
-0.657577 0.306298 3.65228
-0.64716 0.624364 3.1311
0.00805512 0.290787 3.12099
-0.667003 0.659562 4.19107
0.0125797 0.321802 4.18357
-0.7879 1.09162 -2.99737
-0.0241347 0.624489 -2.98308
-0.656586 0.977628 3.66989
-0.686721 1.47824 3.14507
0.0076443 0.957935 3.14122
-0.690268 1.51218 4.20359
0.0122234 0.997311 4.19856
-0.763325 1.60377 -2.47916
0.00889072 1.55863 -3.01167
-0.761595 1.72627 -1.27579
0.0168023 1.64881 -1.94666
-0.766866 1.86511 0.0687762
0.00449922 1.80364 -0.604913
-0.759489 1.95095 1.41329
-0.0226783 1.92652 0.742466
-0.738539 1.98695 2.61652
-0.034749 1.97534 2.08412
-0.720402 2.01279 3.67877
-0.0230845 1.99852 3.14892
-0.00911484 2.02703 4.20862
0.784329 -0.14432 -2.4061
0.77519 -0.0403286 -2.94315
1.17365 -0.179265 -2.93737
0.7778 -0.106197 -1.21983
1.19231 -0.112201 -1.8766
0.747595 -0.129566 0.0893065
1.15189 -0.100634 -0.56396
0.689822 -0.12378 1.39839
1.10821 -0.148284 0.744121
0.656777 -0.0703913 2.58414
1.01135 -0.0948044 2.05652
0.680253 -0.0332857 3.64594
0.665977 0.120442 3.11761
1.01903 -0.0526059 3.1159
0.692488 0.152563 4.18061
1.04302 -0.0174168 4.17862
0.767714 0.361231 -2.96636
1.1776 0.100636 -2.94986
0.678212 0.306291 3.65228
0.66286 0.624358 3.1311
1.01102 0.287281 3.12237
0.691806 0.659551 4.19107
1.04003 0.320907 4.1843
0.772656 1.0915 -2.99737
1.15984 0.635937 -2.9817
0.676454 0.977618 3.66989
0.671281 1.47822 3.14507
1.00836 0.958072 3.14099
0.693377 1.51216 4.20359
1.03891 0.99737 4.19852
0.789018 1.60367 -2.47916
1.17445 1.56701 -3.01031
0.782896 1.72618 -1.27579
1.17876 1.65697 -1.94516
0.748687 1.86505 0.0687761
1.15735 1.80643 -0.604009
0.702062 1.95091 1.41329
1.10067 1.92448 0.742357
0.680705 1.98692 2.61652
1.04735 1.97387 2.08335
0.688203 2.01276 3.67877
1.04068 1.99816 3.14814
1.05257 2.027 4.20806
1.58163 -0.147146 -2.40787
1.57606 -0.0382998 -2.94408
1.5664 -0.106638 -1.22073
1.6029 0.0343917 -1.88243
1.5125 -0.119352 0.0908543
1.54825 0.0652546 -0.566435
1.42973 -0.119308 1.40225
1.48808 0.0298309 0.746316
1.3736 -0.077019 2.58827
1.36895 0.0713549 2.06191
1.3818 -0.036737 3.64858
1.36407 0.114233 3.12066
1.39057 0.150927 4.1823
1.59733 0.143238 -2.41865
1.56973 0.375343 -2.9652
1.58475 0.206285 -1.22813
1.59597 0.453322 -1.90279
1.52383 0.214437 0.0890263
1.562 0.543822 -0.577044
1.4273 0.220494 1.40597
1.49456 0.559587 0.748491
1.35942 0.262607 2.59429
1.35866 0.580976 2.07381
1.37284 0.301897 3.65439
1.35652 0.620994 3.13226
1.38713 0.658726 4.19175
1.56837 0.685427 -2.44935
1.56164 1.11145 -2.99463
1.57322 0.790859 -1.2517
1.57093 1.19429 -1.93102
[...]
POINT_DATA 29498
VECTORS point_vectors float
-4.36464 -4.63594 13.5701
-0.00749765 0.0745904 0.284923
-0.928829 0.65376 1.81521
-0.0590106 -0.129044 0.232021
4.27302 -4.66385 13.6818
0.00816021 0.0769586 0.286557
0.918419 0.644639 1.79297
0.0587834 -0.12876 0.231822
0.0170288 0.00729376 0.346149
0.024002 -0.0694125 0.52424
0 0 0
0 0 0
-0.0158954 0.00742417 0.347405
-0.0233723 -0.0690698 0.524111
0 0 0
0 0 0
-0.644268 -0.287815 19.9401
-1.11456 -0.583664 20.6448
-0.371775 -0.330979 21.26
0.0318972 -0.109482 21.4398
0.64955 0.302586 21.4124
0.965976 0.468436 20.9225
0.776681 0.314241 20.6827
-0.75143 -0.2058 19.8688
-1.42985 -0.480497 20.6272
-0.494496 -0.403789 21.3263
-0.0273632 -0.218469 21.533
0.979564 0.164426 21.3992
1.23188 0.241639 21.0339
0.93551 0.17329 20.8809
-0.802842 0.0458616 19.7408
-1.7567 0.0830383 20.4715
-0.957038 -0.261704 21.3015
-0.259191 -0.281604 21.6301
0.814043 -0.581043 21.4463
1.16806 -0.615741 21.07
0.858536 -0.548157 20.4903
-0.524808 0.343458 19.9231
-0.906371 0.605981 20.3429
-0.829963 0.383053 21.0594
-0.316617 0.0254805 21.4023
0.126089 -0.303767 21.3124
0.291439 -0.437337 21.0668
0.306549 -0.423936 20.7163
-0.798984 -0.811861 19.2994
-1.63347 -2.78215 21.4037
-0.275029 -0.0763318 20.5659
-0.0151192 -0.0424538 20.514
0.342455 1.10012 18.9015
0.531614 1.42566 18.4839
0.47846 1.24724 18.8174
-1.05275 -0.633246 18.8427
0.97612 1.40377 9.01294
1.88445 1.0238 12.0021
-1.10205 0.183768 18.6028
1.21461 -0.545626 7.80023
1.39304 -0.705409 12.5124
-0.47348 0.697771 19.5119
-1.00012 1.62358 20.0753
-1.15105 1.4014 21.0783
-0.399057 0.290584 21.8137
0.0518823 -0.429264 21.3833
0.179589 -0.663591 21.1227
0.130334 -0.486288 20.8992
0.773678 -0.868494 19.2304
1.5384 -2.88183 21.4639
0.305021 -0.0852976 20.4245
0.0202173 -0.0386527 20.4495
-0.248928 1.09371 18.3394
-0.503971 1.42352 18.4289
-0.483148 1.21415 18.9217
1.0416 -0.661716 18.7726
-1.03209 1.44909 9.38294
-1.91693 0.984754 12.198
1.08124 0.195876 18.4967
-1.2538 -0.569746 8.32531
-1.39221 -0.70242 13.072
0.479622 0.689313 19.5213
1.02423 1.57036 20.086
1.15446 1.3876 21.08
0.398812 0.317183 21.8408
-0.0343047 -0.428474 21.4065
-0.158345 -0.666167 21.0854
-0.133628 -0.488678 20.9296
0.665569 -0.313179 19.9142
1.13043 -0.604967 20.6552
0.381804 -0.340761 21.2573
-0.0266191 -0.115147 21.4445
-0.656531 0.314247 21.4217
-0.961938 0.464621 20.922
-0.78171 0.304821 20.6453
0.790773 -0.216654 19.828
1.42773 -0.485262 20.6341
0.493776 -0.399232 21.3246
0.0285572 -0.217043 21.5235
-0.963498 0.151658 21.4015
-1.21191 0.213922 21.0371
-0.940014 0.145715 20.8139
0.825692 0.0507136 19.7201
1.73742 0.0800108 20.4754
0.946218 -0.254683 21.2999
0.256166 -0.275571 21.6267
-0.796957 -0.566365 21.457
-1.1374 -0.595824 21.0866
-0.812778 -0.51884 20.5357
0.521678 0.340801 19.9298
0.894329 0.579678 20.3491
0.821641 0.376283 21.0585
0.325396 0.0340278 21.4186
-0.115896 -0.323513 21.3104
-0.284857 -0.447834 21.0501
-0.29961 -0.419666 20.7219
-3.74947 -0.455052 3.40179
4.212e-05 -0.00218905 0.0221273
-0.0231537 0.0105661 0.834854
-0.0217487 -0.0125753 -0.0178207
-0.00127431 -0.00197307 -0.00329922
0.000281027 0.0030159 0.0894269
5.0623e-06 0.0280668 0.0665771
-0.171924 -0.101047 0.886264
-0.000260352 0.0186448 -0.044578
0.0385308 -0.0143293 0.323605
3.7538 -0.459498 3.40824
0.0327396 0.0133819 0.880015
0.0216268 -0.0125756 -0.0176527
-0.000822812 0.00282602 0.0859914
0.173486 -0.101758 0.893859
-0.0403801 -0.0133889 0.339308
-0.000626691 0.000422219 0.0649563
0 0 0
0 0 0
-1.07892e-05 2.74807e-05 0.00016754
0.000583065 0.000836218 0.0750155
0 0 0
4.69445e-05 0.0115414 0.0275586
-4.49341e-06 -0.00330274 0.0385206
0.00051137 0.000322574 0.065241
0 0 0
4.9227e-06 1.25906e-05 7.71188e-05
0 0 0
-0.000100401 -0.00020691 0.00457795
-2.01993e-05 0.000187002 0.00163964
0 0 0
0 0 0
0 0 0
0 0 0
-0.000516374 -0.178098 0.76293
-0.00805741 -0.000492587 -0.0124697
-3.29824e-05 0.00677837 0.0454853
-5.16801e-05 0.0212286 0.12508
1.09708e-07 0.000366042 -0.00091874
0.000107014 -0.000207679 0.00486161
2.09895e-05 0.000193979 0.00171681
0 0 0
-2.56403 -1.24609 20.8663
-2.48913 -4.16578 21.9743
-2.78081 -2.06553 18.2006
1.25377 1.00908 15.3127
0.0637293 1.1694 11.4073
-0.0884636 0.806743 5.41574
-3.71393 0.513772 20.4162
-3.32281 1.10744 17.0189
-2.32306 2.93969 19.784
1.3635 -0.352632 15.5389
-0.0466081 -0.283132 3.9869
0.266 -0.6821 19.1475
2.3617 -4.31409 22.1103
2.84054 -2.23122 18.049
2.56363 -1.25194 20.8624
-0.00208345 1.10897 10.7968
0.0395516 0.851191 5.62254
-1.27143 0.980702 15.6763
3.35948 1.18888 16.8603
2.34482 2.86175 19.8021
3.68379 0.499121 20.4179
0.0118573 -0.297202 4.16924
-0.27783 -0.671378 18.9055
-1.37039 -0.348405 15.8718
-0.187421 -0.635095 20.8681
-0.0853094 0.318802 12.5996
-0.0562369 -0.196547 19.6547
0.218164 -0.183557 15.5565
-1.48291 -0.852382 21.2495
-2.85293 1.71133 21.1451
-0.251043 -0.324851 19.8724
-0.781706 0.164309 21.7596
0.123049 0.304432 12.4207
0.199681 -0.634575 20.9116
-0.251489 -0.191684 15.248
0.0567213 -0.200332 19.7475
2.84565 1.68089 21.1501
1.47591 -0.832749 21.3219
0.785466 0.185425 21.7329
0.26055 -0.337899 19.974
-0.958252 -0.46993 20.1542
-0.70814 -0.253914 19.9019
-0.770257 -0.484268 19.6914
-0.749228 -0.479268 21.1598
-1.25358 -0.547213 20.6396
-1.57923 -1.28216 20.839
-0.160634 -0.217623 21.346
-0.440997 -0.368272 21.2931
-0.221349 -0.37296 21.502
0.31704 0.0776914 21.5531
0.00382084 -0.172543 21.4673
0.0552167 -0.106192 21.561
0.807764 0.38231 21.2681
0.798964 0.265029 21.4734
0.762718 0.780668 21.025
0.945172 0.437388 21.0192
1.11828 0.35696 21.0632
1.11913 0.911025 20.8775
0.869414 0.253523 20.8073
0.749777 0.692512 21.4661
-1.19341 -0.362176 20.0546
-0.797381 -0.0918858 19.7749
-0.953733 -0.37671 19.4821
-0.977186 -0.457299 21.2437
-1.64711 -0.209252 20.5585
-0.242218 -0.321639 21.3874
-0.723514 -0.397378 21.3197
0.40141 -0.0521292 21.6902
-0.130046 -0.279736 21.6246
1.15387 0.216674 21.1769
1.06499 -0.203261 21.3495
1.37348 0.0897534 20.6342
1.38707 -0.241881 21.0028
1.75736 0.940787 17.6959
1.16744 -0.324585 20.355
1.39565 0.461545 19.477
-1.35522 0.0926786 19.8904
-0.703273 0.262613 19.8004
-1.04616 0.101658 19.2898
-1.37799 -0.119322 21.1517
-1.36592 0.513746 20.3599
-0.638478 -0.293998 21.4866
-1.07618 0.125713 21.1779
0.283185 -0.373621 21.7291
-0.365319 -0.116063 21.5536
0.955961 -0.657268 21.2824
0.311623 -0.490859 21.391
1.14157 -0.595206 20.6516
0.514962 -0.61181 21.0757
1.53764 -0.797867 17.9833
0.432384 -0.632093 20.7271
1.28099 -0.845638 19.4724
-0.722775 0.494637 20.0644
-0.554278 0.509008 19.7254
-0.916153 0.519336 20.7521
-1.07777 1.06647 20.2099
-0.61589 0.216739 21.3118
-1.06898 0.761137 21.1068
-0.0620318 -0.160993 21.3669
-0.380871 0.132736 21.5959
0.211806 -0.434091 21.1366
0.0988506 -0.394554 21.3375
0.247779 -0.372731 20.948
0.233154 -0.55165 20.9038
0.129393 -0.39284 20.82
-1.56217 -1.9556 19.4344
-0.915253 -0.778836 19.0913
-0.0437702 -1.30889 18.7219
-0.661403 -0.893435 21.9233
-0.0353827 -3.32205 22.1219
-0.151607 -0.0503453 20.3643
-0.0207539 -0.366272 18.1359
0.201009 0.520782 19.7185
0.0125026 -0.155387 18.1388
0.426865 1.25511 18.8964
-0.00212727 0.701292 15.3739
0.838864 1.52542 18.3329
0.813477 1.62472 14.9814
-0.010832 1.00294 14.8037
1.01122 1.20602 15.8256
-0.000524655 1.8509 15.2434
-1.12226 -0.280677 18.6134
-0.0581561 -1.11421 17.8926
1.67087 1.29434 10.8811
1.45564 0.167868 5.39541
0.01191 -0.388119 -0.508182
2.23253 0.504129 10.7626
-0.0554422 0.64143 5.63182
-0.781135 0.65531 19.0571
-0.0485139 0.347845 17.4967
1.42017 -0.792618 10.2927
0.404494 -1.09094 20.2555
-0.0403192 0.387944 -3.75448
0.360326 -0.978849 20.1809
-0.057709 -1.37237 0.294325
-0.769419 1.216 19.601
0.00705132 0.927196 19.2708
-1.12148 1.5346 20.6504
0.0267699 2.28054 19.8807
-0.921926 0.981644 21.6786
0.00931583 2.4408 20.9538
-0.0840276 -0.179869 21.6264
-0.0250311 0.596614 22.096
0.120602 -0.556663 21.2506
-0.00772114 -0.391117 21.5741
0.197876 -0.678573 20.9823
0.00424015 -0.757084 21.0118
0.00688526 -0.743718 20.7665
1.53525 -2.13428 19.3618
0.898675 -0.821627 19.0207
0.769234 -0.523142 19.6393
0.665417 -0.924918 21.9464
1.62536 -1.36637 20.8514
0.158543 -0.0497827 20.1555
0.223298 -0.372167 21.5
-0.17968 0.516861 19.4812
-0.0513289 -0.100953 21.5281
-0.372412 1.24762 18.5246
-0.748678 0.838663 20.9521
-0.835137 1.52254 18.3581
-0.824697 1.62307 15.0282
-1.11661 0.913769 20.8843
-1.02169 1.1643 15.9796
-0.758896 0.676948 21.4549
1.10172 -0.290387 18.4789
0.954275 -0.420022 19.3997
-1.70118 1.282 11.0591
-1.5093 0.205115 5.78451
-1.74739 0.873169 17.9789
-2.18839 0.477136 11.4419
-1.37504 0.426327 19.8274
0.774339 0.66788 19.0391
1.05488 0.0992508 19.2386
-1.43121 -0.794074 10.826
-0.407092 -1.08607 20.2151
-1.49123 -0.800791 18.3794
-0.35973 -0.975257 20.1834
-1.26524 -0.871511 19.819
0.778881 1.18796 19.6185
0.553366 0.500634 19.7349
1.12887 1.49532 20.6554
1.06837 1.01384 20.2267
0.921806 1.0044 21.6886
1.0632 0.74628 21.1067
0.0829165 -0.180586 21.6268
0.391126 0.14534 21.6128
-0.106743 -0.565876 21.2522
-0.09004 -0.400503 21.3589
-0.187918 -0.688177 20.9761
-0.227584 -0.564404 20.9318
-0.126907 -0.395986 20.8299
0.978424 -0.495893 20.1536
0.745874 -0.272997 19.8689
0.758036 -0.487395 21.1683
1.26194 -0.566431 20.6527
0.163217 -0.227736 21.3493
0.443699 -0.375855 21.2888
-0.31523 0.0707488 21.5536
-0.00321239 -0.176344 21.4632
-0.810051 0.391712 21.2657
-0.800229 0.262529 21.4731
-0.936006 0.411087 21.0126
-1.10671 0.338472 21.0731
-0.877683 0.236244 20.7577
1.23181 -0.372015 20.0468
0.831232 -0.105837 19.7463
0.975451 -0.457332 21.2428
1.64265 -0.211286 20.567
0.242726 -0.316472 21.3869
0.71652 -0.395212 21.3223
-0.395509 -0.0544558 21.6801
0.129621 -0.277202 21.6205
-1.1342 0.200136 21.18
-1.04095 -0.204879 21.3628
-1.32617 0.0808902 20.7368
-1.35154 -0.248735 21.0063
-1.12374 -0.343387 20.3606
1.37319 0.0933164 19.8893
0.704797 0.263115 19.8047
1.36463 -0.11539 21.1485
1.34284 0.495869 20.3673
0.630042 -0.282844 21.4807
1.06358 0.123622 21.1772
-0.277553 -0.368713 21.7173
0.370827 -0.116575 21.563
-0.942335 -0.64318 21.3007
-0.309156 -0.498926 21.3963
-1.12289 -0.572766 20.6832
-0.513242 -0.61607 21.0823
-0.434509 -0.629197 20.733
0.715252 0.477765 20.0758
0.904304 0.508324 20.752
0.621186 0.221637 21.3164
0.0660657 -0.162808 21.3798
-0.203272 -0.432809 21.1488
-0.249375 -0.386126 20.9553
-1.07788 -0.433159 20.1114
-2.10646 -2.16741 18.9266
-1.33606 -0.986314 19.9075
-1.8848 -0.81802 19.5819
-0.868098 -0.442513 19.5972
-2.06604 -1.34919 20.8632
-0.861132 -0.475818 21.1782
-0.651003 -0.253855 16.4791
-0.76499 -0.756161 21.5315
-1.09394 -0.909409 21.8855
-0.16125 -0.492252 21.4744
-0.201047 -0.280149 21.3652
0.0313365 0.117589 13.9891
-0.0547152 -0.230696 21.4368
-0.00114086 -0.369443 19.931
0.0561473 -0.170607 20.9892
0.362669 0.0191788 21.6241
0.236165 0.547291 13.0217
0.398096 0.29542 21.4958
0.487672 0.315151 17.6242
1.04845 0.946724 19.354
1.0089 0.336327 21.2002
0.221251 1.25259 12.3892
0.930558 0.856698 20.8755
1.4182 0.908307 16.6225
1.40625 0.990266 19.3392
1.22115 0.273365 20.6423
1.20594 1.42519 14.9051
1.1901 1.07548 20.8866
1.7163 0.741117 18.2285
1.02528 0.578183 20.0362
-1.32696 -0.154228 19.9492
-3.65163 -0.784638 16.9981
-2.24715 0.302929 19.1299
-1.05063 -0.170031 19.3364
-3.55303 -0.581483 20.7037
-1.20888 -0.328974 21.2154
-2.04354 -0.318673 21.7368
-0.629574 -0.870266 20.9677
-0.412228 -0.375485 21.453
-0.908915 -0.826855 20.6572
-0.112645 -0.0438427 18.5222
0.396133 -0.218423 21.7326
0.715947 0.121705 18.1516
1.36933 0.333248 12.1945
1.25731 -0.233871 21.1508
0.0931623 0.122194 2.18298
1.3113 -0.638625 17.0947
2.13851 0.0410074 16.3192
1.31848 -0.245107 20.7102
2.11832 0.456694 8.42408
1.49814 -0.867971 19.0483
1.65187 -0.0385561 18.8037
-1.07916 0.425411 19.9419
-1.58058 1.6945 18.7958
-0.841987 0.816499 19.8388
-0.809692 0.422794 19.4907
-2.04989 1.25345 20.1922
-1.28075 0.331742 20.8947
-2.31188 1.85497 20.925
-1.1152 0.95068 20.7254
-1.75067 0.407462 21.2832
-0.770848 -0.00224298 21.442
-2.26508 0.868415 22.1651
-0.804699 0.505875 21.4594
-0.567616 -0.0549913 21.8687
0.029919 -0.302223 21.5614
0.0264277 -0.459381 20.7719
-0.0768988 -0.185923 21.5244
0.249714 -0.710171 21.431
0.446724 -0.598037 21.2574
0.283169 -0.838135 19.6692
0.173929 -0.497157 21.1796
0.480584 -0.860371 21.2412
0.550573 -0.54819 20.9101
0.406385 -1.13367 19.9525
0.298385 -0.544235 21.0657
0.387026 -0.811835 20.4517
2.1178 -2.35423 18.8283
-0.0563386 -3.77879 18.9736
-0.0748378 -6.50328 15.3349
-0.0463343 -1.3255 18.3073
-0.0178469 -3.117 20.182
0.696517 -0.278444 16.0304
-0.0265982 -1.35348 21.0265
-0.0238121 0.00354978 8.09128
-0.0390163 0.107375 13.7233
-0.00335232 -0.246555 17.8202
0.0541569 -0.0535494 10.3687
-0.217664 0.529578 12.582
0.0172043 0.282295 16.7892
-0.0367978 0.494743 5.89957
-0.196305 1.25884 12.2416
-0.00459465 0.579997 14.8081
0.0074909 -1.03428 -1.12587
-0.00813366 0.535672 7.45666
-1.22103 1.41852 15.0105
0.010759 1.48693 15.1543
-0.00781357 0.144736 2.43255
-0.0357488 1.47389 11.5017
3.77504 -0.842564 16.7366
-0.0669843 3.71022 13.045
-0.0550517 -0.422272 17.3703
-0.126934 0.139587 2.30188
0.00491244 0.565183 -3.07112
-0.0418434 -0.463377 -5.38127
-2.11601 0.42734 8.91695
-0.0594837 -0.614673 -1.48514
-0.0591075 -0.595044 -0.169872
1.58091 1.69246 18.7956
0.0153787 1.66933 19.3234
-0.0108568 1.0042 18.5003
0.0307514 4.46799 19.4185
2.31141 1.81464 20.9298
0.0229293 2.30496 20.4943
0.0118991 4.45172 20.0052
2.29777 0.871613 22.1011
-0.0164663 1.92279 21.9367
-0.00907883 0.456592 19.5133
-0.0848902 -0.443554 20.3234
-0.0102745 -0.134452 21.656
0.00454945 -0.456585 13.2736
-0.280872 -0.826608 19.5524
-4.2605e-05 -0.568115 21.3093
0.00808957 -0.999484 16.6459
-0.404644 -1.13666 19.9351
0.00635645 -0.641795 21.2725
4.29358e-05 -0.694372 17.4168
1.10929 -0.459832 20.1108
1.38928 -1.06827 19.8661
1.9438 -0.889416 19.5091
0.876165 -0.484884 19.5398
2.10535 -1.41246 20.8738
0.865795 -0.487271 21.1886
0.776768 -0.778218 21.5487
1.09887 -0.908656 21.878
0.166503 -0.489049 21.4607
0.200349 -0.285233 21.3699
0.0597444 -0.220751 21.4178
0.00939617 -0.370304 19.9638
-0.0513823 -0.169933 20.9424
-0.360121 0.0144681 21.6179
-0.393176 0.324119 21.4515
-0.493079 0.30208 17.8112
-1.04077 0.983787 19.1791
-1.00077 0.331339 21.1952
-0.924505 0.888598 20.8586
-1.43956 0.879506 16.9831
-1.40328 0.960378 19.4526
-1.20193 0.244962 20.6487
-1.19612 1.06458 20.8723
-1.71524 0.701213 18.6874
-1.01192 0.552964 20.3116
1.36069 -0.163682 19.949
2.28043 0.319684 19.0871
1.07525 -0.170601 19.2471
3.53384 -0.585499 20.7009
1.20466 -0.327443 21.2165
2.03342 -0.312257 21.7223
0.641769 -0.863374 21.0423
0.409743 -0.369203 21.4514
0.912522 -0.820434 20.7455
0.111434 -0.066808 18.6859
-0.387778 -0.217691 21.7282
-0.697413 0.0854167 18.3317
-1.38384 0.329389 12.5789
-1.23206 -0.234229 21.1784
-1.30489 -0.646394 17.4289
-2.09209 0.0390762 16.7144
-1.27202 -0.280572 20.9413
-1.47261 -0.866049 19.4391
-1.63134 -0.0727968 19.1435
1.07284 0.419461 19.9511
0.842842 0.793282 19.8576
0.809366 0.429364 19.4803
2.02727 1.21083 20.2047
1.26503 0.325906 20.8943
1.11145 0.923482 20.7293
1.7297 0.401562 21.2798
0.770525 -0.00319391 21.4433
0.814337 0.519198 21.4667
0.580717 -0.0507172 21.8862
-0.0311509 -0.307487 21.5729
0.0827533 -0.18369 21.5434
-0.23469 -0.728386 21.4219
-0.444703 -0.602729 21.2559
-0.168595 -0.514833 21.1917
-0.487916 -0.86996 21.1924
-0.552109 -0.552206 20.9102
-0.2948 -0.560907 21.0825
-0.388976 -0.804147 20.4603
-1.62407 -0.929141 19.7526
-0.890972 -0.837898 21.6746
0.00629986 -0.296158 21.1252
0.537257 0.299047 20.5294
1.19334 0.989007 19.3035
1.44118 0.935393 19.7733
-2.29448 -0.357602 19.2133
-1.60913 -0.71228 22.0397
-0.230015 -0.575607 19.4558
0.497833 0.347663 16.378
1.578 0.185905 14.2892
1.93291 0.0853723 16.5983
-1.45583 0.875578 19.5241
-1.86577 0.75797 20.988
-1.29606 0.164898 21.7485
-0.0183554 -0.399425 21.7926
0.375589 -0.796171 21.3075
0.552881 -0.92762 21.012
-0.065735 -5.03025 17.9093
0.0389088 -0.700359 11.7553
0.0234758 -0.0377672 8.92861
0.0200146 0.266886 8.20382
-0.0350069 -0.145934 6.36008
0.0050927 0.972885 8.94182
-0.0920419 -1.39684 11.3065
0.0109793 -0.440857 -4.66849
-0.0647599 -0.643795 -2.90878
0.000775856 2.82978 17.9689
0.0173302 3.55384 20.4926
-0.0185573 3.57219 21.4378
0.0115249 -0.413795 15.3375
0.00130928 -0.543044 14.7386
0.00192518 -1.15491 16.5987
1.68182 -1.00477 19.6871
0.890674 -0.850265 21.6894
-0.00830695 -0.286072 21.0765
-0.532425 0.313709 20.3672
-1.19084 0.995454 19.2608
-1.44849 0.911435 19.9538
2.35992 -0.372256 19.1573
1.60655 -0.709301 22.0258
0.23833 -0.58259 19.5958
-0.503905 0.321518 16.6243
-1.58033 0.166949 14.7544
-1.89909 0.0793291 16.9983
1.4528 0.869511 19.5294
1.84433 0.73955 20.9857
1.30654 0.16914 21.7518
0.0233086 -0.408945 21.8004
-0.372167 -0.812243 21.2908
-0.555667 -0.930172 20.9977
-0.732061 -0.249164 1.59011
-0.00676476 -0.0153537 0.132479
-0.031873 0.00842271 0.258457
-0.0438803 -0.014247 -0.0282874
-0.037487 0.00529446 0.0242149
-0.00966585 0.0185563 0.150058
-0.548514 0.0144581 0.857293
-0.00746426 0.0506679 0.120539
-0.431572 -0.0894036 1.46939
-0.00990979 -0.0074739 -0.00167404
-0.0149422 0.00660274 -0.0223179
-0.00576093 -0.010503 0.050728
0.0082443 -0.0182203 0.158804
0.72931 -0.259629 1.59746
0.0387566 0.00948371 0.32346
0.0382195 0.00768612 0.030297
0.0435688 -0.013464 -0.0275048
0.00821205 0.018825 0.152078
0.00756668 0.0508916 0.12114
0.559713 0.0137148 0.872019
0.427133 -0.0896125 1.45872
0.0147976 0.00656187 -0.0222438
0.00994142 -0.00754938 -0.00158576
0.00566405 -0.0104688 0.0504692
0.0311109 0.047177 0.468778
0.00983049 0.00556852 0.505042
0.00175103 0.00114464 0.0752832
0 0 0
0 0 0
-0.0102286 -0.0325543 0.495119
-3.04773e-17 4.9136e-18 1.20394e-16
0.00300327 -0.000814411 0.0826565
-0.0966806 -0.119797 0.347475
-0.000391354 -0.00268954 0.0584899
0.000951333 0.00201955 0.0184437
-0.0462662 0.036745 0.105192
0 0 0
0.00663682 0.0788448 0.300392
0 0 0
0.102661 0.0406912 0.41092
-0.0300573 0.0485998 0.472919
0 0 0
-0.010802 0.00526918 0.503326
-0.00155448 0.00135808 0.0760353
0 0 0
-0.0201167 0.0138595 0.302605
0.00749973 -0.0344664 0.488291
0 0 0
0.0931776 -0.116089 0.341334
0.0467096 0.0367883 0.105479
0.000390509 -0.00267668 0.0584362
-0.00103581 0.00217803 0.0200467
0 0 0
-0.102206 0.0405385 0.408195
-0.00654212 0.0785753 0.300296
0 0 0
-0.00735173 -0.00572872 0.140126
0 0 0
-0.00118213 -0.002923 0.0611391
0.00188108 -1.87016 0.0384188
0 0 0
0 0 0
0.0236209 0.0050156 0.115138
-0.0328416 -0.00516643 -0.00522786
-1.12087e-05 0.000318965 0.00259017
0 0 0
2.88137e-05 8.41601e-05 0.00109252
0 0 0
-0.00166266 1.17157 0.817685
-4.8482e-06 0.0287084 0.120285
0 0 0
-0.0103169 0.00549605 0.0417991
-4.09507e-06 0.0035638 -0.00136863
0 0 0
0.0079213 0.0105813 0.0894539
-0.00178769 -0.00291456 0.0134037
-8.34741e-17 1.3223e-17 1.03691e-17
0.00739169 -0.00556512 0.14075
0.00243322 -0.0113248 0.12118
0 0 0
0.0330043 -0.00513179 -0.00526774
-0.0235984 0.00494029 0.115029
1.84953e-18 -7.59068e-18 -1.48073e-16
-3.30127e-05 8.23667e-05 0.00113063
0.0103486 0.0055159 0.0419302
0 0 0
0.0017637 -0.00288712 0.0133881
-0.00623725 0.0084067 0.0715959
-0.000903691 0.00336991 0.0397973
0.00121735 -6.29676e-05 0.0269697
0.000900628 -0.00300371 0.0189118
-3.05585e-05 0.000462917 0.00746136
0 0 0
0.000219415 0.000177692 0.0196204
-0.000212796 0.00405798 0.0211888
0 0 0
0 0 0
-9.59255e-11 1.76729e-10 3.47352e-07
0.000967612 0.00395337 0.019347
-0.15145 0.0987966 1.70131
6.16288e-20 -4.97881e-19 7.58953e-18
7.04242e-06 0.00335497 0.00993777
-1.08398e-05 0.00265594 0.0953447
-2.30938e-06 -0.00107733 0.00457833
-0.00120423 -2.44951e-05 0.0265704
0.000882903 0.00330934 0.0397679
-0.000908964 -0.00291999 0.018746
3.08545e-05 0.000463207 0.00762952
0.000126689 0.00223049 0.0114151
0 0 0
0.148061 0.0982141 1.68195
-0.000880829 0.00360784 0.0177452
-0.0118271 -0.00780616 0.200899
-0.00570559 -0.00336631 0.105652
0.000666915 -0.000440465 0.00745697
0.000335252 -0.00156876 0.00778232
-0.00105492 0.00286673 0.0506215
0.000897392 0.0127823 0.114137