# vtk DataFile Version 2.0
tet_velo
ASCII
DATASET UNSTRUCTURED_GRID
POINTS 29498 float
-0.735 0.435 -2.38668
-0.745 0.455 2.36932
-0.827672 0.775 -2.235
-0.776553 0.965 2.305
0.735 0.435 -2.38678
0.745 0.455 2.36932
0.827672 0.775 -2.235
0.776548 0.965 2.305
-0.805862 0.374138 -0.801347
-0.805949 0.384051 0.783987
-0.868015 0.895716 -0.721667
-0.851547 0.959621 0.791667
0.805872 0.374128 -0.801414
0.805949 0.384051 0.783953
0.868018 0.895721 -0.721667
0.851533 0.959611 0.791667
-1.55484 0.154557 -3.66105
-1.56226 0.176264 -2.42162
-1.6101 0.133763 -0.834421
-1.61349 0.124263 0.767266
-1.57171 0.171476 2.35568
-1.5607 0.208512 3.60109
-1.56563 0.23896 4.83544
-1.55801 0.378435 -3.61108
-1.56771 0.419958 -2.37951
-1.62653 0.392395 -0.806331
-1.61873 0.392517 0.773331
-1.5552 0.438572 2.34789
-1.54889 0.474571 3.59229
-1.55971 0.504311 4.82899
-1.59843 0.784628 -3.49094
-1.63587 0.824193 -2.25641
-1.67997 0.90277 -0.732314
-1.65827 0.949143 0.786681
-1.5842 0.967142 2.31216
-1.5659 1.00055 3.55954
-1.56983 1.03244 4.80785
-1.63399 1.48702 -3.36486
-1.65482 1.54262 -2.14111
-1.67437 1.64434 -0.640362
-1.67284 1.72994 0.844869
-1.64974 1.77494 2.34637
-1.62865 1.8005 3.57171
-1.61551 1.82663 4.81215
-0.75145 0.162452 -3.66572
-0.749891 0.187116 -2.42842
-0.795523 0.125157 -0.833531
-0.809408 0.117436 0.776357
-0.781383 0.178801 2.37159
-0.770064 0.213801 3.61189
-0.772114 0.241506 4.84169
-0.748191 0.380549 -3.61253
-0.755534 0.480615 3.60119
-0.765504 0.507017 4.8337
-0.779709 0.765531 -3.48205
-0.767749 1.00181 3.5581
-0.772145 1.03383 4.80754
-0.810713 1.47297 -3.35607
-0.826579 1.52881 -2.13142
-0.844175 1.64058 -0.634523
-0.850947 1.73389 0.84416
-0.839745 1.7781 2.34136
-0.822733 1.80223 3.5667
-0.810822 1.82785 4.80851
0.806149 0.162451 -3.66579
0.780915 0.187114 -2.4285
0.808178 0.12515 -0.833591
0.79514 0.117434 0.776324
0.757678 0.1788 2.37158
0.781299 0.2138 3.61188
0.799641 0.241504 4.84167
0.807198 0.380549 -3.61259
0.785743 0.480614 3.60118
0.803513 0.507016 4.83369
0.834106 0.765531 -3.48208
0.795414 1.00181 3.55809
0.80622 1.03383 4.80753
0.834062 1.47297 -3.35609
0.832869 1.52881 -2.13144
0.827408 1.64057 -0.634538
0.807288 1.73388 0.844147
0.787699 1.7781 2.34135
0.788694 1.80222 3.56668
0.795287 1.82785 4.80849
1.59682 0.154554 -3.66117
1.57727 0.17626 -2.42175
1.61287 0.133753 -0.834523
1.60597 0.124258 0.767203
1.56289 0.171474 2.35565
1.57172 0.208509 3.60107
1.59024 0.238957 4.83541
1.59667 0.378433 -3.61119
1.56472 0.419956 -2.37964
1.62151 0.392385 -0.806428
1.61951 0.39251 0.773275
1.56076 0.43857 2.34787
1.57266 0.474569 3.59227
1.59254 0.504307 4.82896
1.63169 0.784628 -3.49101
1.62974 0.824194 -2.25647
1.67253 0.902767 -0.732357
1.65719 0.949131 0.786654
1.58794 0.967139 2.31214
1.58656 1.00055 3.55952
1.59852 1.03244 4.80782
1.65172 1.48702 -3.36491
1.6552 1.54262 -2.14115
1.65508 1.64433 -0.640396
1.63404 1.72993 0.84484
1.60573 1.77494 2.34635
1.59814 1.8005 3.57168
1.60018 1.82663 4.81213
-0.787646 0.605 -2.31715
0 0.400161 -2.42157
-0.80312 0.37188 -1.59401
-0.755096 0.71 2.33148
0 0.425674 2.39865
-0.824589 0.370411 1.57665
0 0.82028 -2.28028
-0.859617 0.847132 -1.47833
-2.47359e-06 0.990335 2.33033
-0.838555 0.986816 1.54833
0.787447 0.605 -2.317
0.803237 0.371763 -1.5941
0.755117 0.71 2.3315
0.824614 0.370386 1.57664
0.859613 0.847128 -1.47833
0.838529 0.986793 1.54833
-0.805179 0.379821 -0.00867999
-0.891996 0.634927 -0.761507
4.66513e-06 0.303491 -0.80138
-0.895262 0.671836 0.787827
7.11228e-08 0.317903 0.78397
-0.860715 0.928602 0.0350001
1.36711e-06 1.17482 -0.721667
-7.02279e-06 1.44034 0.791667
0.805185 0.379815 -0.00873005
0.891999 0.634925 -0.76154
0.895302 0.671831 0.78781
0.860711 0.928601 0.0350001
-0.855456 0.619964 -1.53617
-0.89299 0.653382 0.01316
-0.88496 0.690918 1.56249
2.33256e-06 0.311666 -1.59406
2.36813e-06 0.310993 -0.00870502
3.55614e-08 0.319732 1.57665
0 0.605 -2.40459
-1.2368e-06 0.71 2.38152
6.83553e-07 0.989217 -1.47833
-2.82784e-06 1.42623 0.0350001
-4.74819e-06 1.13057 1.54833
0.855454 0.619962 -1.53622
0.892993 0.653378 0.013135
0.884953 0.690915 1.56249
-1.15135 0.427479 -2.3831
-0.742446 0.311058 -2.40755
-0.741596 0.407775 -2.9996
-1.1501 0.446786 2.35861
-0.763191 0.3169 2.37046
-0.750267 0.467807 2.98526
-1.23177 0.799597 -2.24571
-0.80369 0.770265 -2.85852
-0.827126 1.1519 -2.18321
-1.18038 0.966071 2.30858
-0.772151 0.983403 2.93155
-0.808149 1.37155 2.32318
0.757958 0.311057 -2.40764
0.771099 0.407774 -2.99969
1.14986 0.427478 -2.38321
0.751339 0.3169 2.37045
0.765372 0.467807 2.98525
1.15288 0.446785 2.35859
0.830889 0.770265 -2.85854
0.83027 1.1519 -2.18322
1.22871 0.799597 -2.24573
0.785981 0.983403 2.93155
0.782123 1.37155 2.32317
1.18224 0.966069 2.30857
-1.2162 0.383266 -0.803839
-0.800693 0.249647 -0.817439
-1.21234 0.388284 0.778659
-0.807679 0.250743 0.780172
-1.27399 0.899243 -0.726991
-0.856095 1.26815 -0.678095
-1.25491 0.954382 0.789174
-0.851247 1.34675 0.817913
0.807025 0.249639 -0.817502
1.21369 0.383257 -0.803921
0.800545 0.250743 0.780139
1.21273 0.38828 0.778614
0.847713 1.26815 -0.678102
1.27027 0.899244 -0.727012
0.829411 1.34675 0.817907
1.25436 0.954371 0.78916
-1.55855 0.165411 -3.04134
-1.55642 0.266496 -3.63607
-1.15315 0.158505 -3.66339
-1.58618 0.155013 -1.62802
-1.56498 0.298111 -2.40057
-1.15608 0.18169 -2.42502
-1.6118 0.129013 -0.0335779
-1.61831 0.263079 -0.820376
-1.20281 0.12946 -0.833976
-1.5926 0.14787 1.56147
-1.61611 0.25839 0.770298
-1.21145 0.12085 0.771811
-1.56621 0.189994 2.97839
-1.56346 0.305024 2.35179
-1.17655 0.175138 2.36364
-1.56317 0.223736 4.21827
-1.5548 0.341541 3.59669
-1.16538 0.211156 3.60649
-1.56267 0.371635 4.83222
-1.16887 0.240233 4.83857
-1.56286 0.399196 -2.9953
-1.57822 0.581532 -3.55101
-1.1531 0.379492 -3.6118
-1.59712 0.406177 -1.59292
-1.60179 0.622076 -2.31796
-1.62263 0.392456 -0.0165002
-1.65325 0.647582 -0.769323
-1.58696 0.415544 1.56061
-1.6385 0.67083 0.780006
-1.55204 0.456572 2.97009
-1.5697 0.702857 2.33003
-1.5543 0.489441 4.21064
-1.5574 0.737561 3.57591
-1.15221 0.477593 3.59674
-1.56477 0.768375 4.81842
-1.16261 0.505664 4.83134
-1.61715 0.804411 -2.87368
-1.61621 1.13583 -3.4279
-1.18907 0.77508 -3.48649
-1.65792 0.863481 -1.49436
-1.64534 1.18341 -2.19876
-1.66912 0.925956 0.0271832
-1.67717 1.27355 -0.686338
-1.62124 0.958143 1.54942
-1.66555 1.33954 0.815775
-1.57505 0.983847 2.93585
-1.61697 1.37104 2.32927
-1.56787 1.01649 4.18369
-1.59728 1.40053 3.56562
-1.16683 1.00118 3.55882
-1.59267 1.42954 4.81
-1.17099 1.03313 4.80769
-1.6444 1.51482 -2.75299
-1.22235 1.48 -3.36047
-1.66459 1.59348 -1.39074
-1.2407 1.53571 -2.13627
-1.6736 1.68714 0.102254
-1.25927 1.64246 -0.637442
-1.66129 1.75244 1.59562
-1.26189 1.73191 0.844514
-1.6392 1.78772 2.95904
-1.24475 1.77652 2.34387
-1.62208 1.81357 4.19193
-1.22569 1.80137 3.5692
-1.21316 1.82724 4.81033
-0.750671 0.174784 -3.04707
-0.749821 0.271501 -3.63913
0.0273494 0.162452 -3.66575
-0.772707 0.156136 -1.63097
0.0155119 0.187115 -2.42846
-0.802465 0.121297 -0.0285866
0.00632736 0.125154 -0.833561
-0.795395 0.148118 1.57397
-0.007134 0.117435 0.776341
-0.775723 0.196301 2.99174
-0.0118524 0.1788 2.37159
-0.771089 0.227653 4.22679
-0.762799 0.347208 3.60654
0.00561749 0.213801 3.61188
-0.768809 0.374262 4.83769
0.0137636 0.241505 4.84168
-0.76395 0.57304 -3.54729
0.0295037 0.380549 -3.61256
-0.760519 0.493816 4.21744
-0.761642 0.74121 3.57964
0.0151045 0.480614 3.60119
-0.768825 0.770424 4.82062
0.0190046 0.507017 4.83369
-0.795211 1.11925 -3.41906
0.0271987 0.765531 -3.48206
-0.769947 1.01782 4.18282
-0.795241 1.40202 3.5624
0.0138324 1.00181 3.5581
-0.791484 1.43084 4.80802
0.0170374 1.03383 4.80753
-0.818646 1.50089 -2.74374
0.0116743 1.47297 -3.35608
-0.835377 1.58469 -1.38297
0.00314466 1.52881 -2.13143
-0.847561 1.68723 0.104818
-0.00838354 1.64058 -0.63453
-0.845346 1.75599 1.59276
-0.0218292 1.73389 0.844153
-0.831239 1.79016 2.95403
-0.0260231 1.7781 2.34135
-0.816778 1.81504 4.1876
-0.0170198 1.80223 3.56669
-0.00776744 1.82785 4.8085
0.793532 0.174783 -3.04714
0.806674 0.2715 -3.63919
1.20148 0.158503 -3.66348
0.794546 0.156132 -1.63104
1.17909 0.181687 -2.42512
0.801659 0.121292 -0.0286333
1.21052 0.129452 -0.834057
0.776409 0.148117 1.57395
1.20055 0.120846 0.771764
0.769488 0.1963 2.99173
1.16028 0.175137 2.36362
0.79047 0.227652 4.22677
0.783521 0.347207 3.60653
1.17651 0.211155 3.60647
0.801577 0.37426 4.83768
1.19494 0.24023 4.83854
0.820652 0.57304 -3.54734
1.20193 0.379491 -3.61189
0.794628 0.493815 4.21743
0.790579 0.741209 3.57964
1.1792 0.477591 3.59673
0.804867 0.770423 4.82061
1.19803 0.505662 4.83132
0.834084 1.11925 -3.41909
1.2329 0.775079 -3.48654
0.800817 1.01782 4.18281
0.792054 1.40201 3.56239
1.19099 1.00118 3.55881
0.800753 1.43084 4.80801
1.20237 1.03313 4.80768
0.833465 1.50089 -2.74377
1.24289 1.47999 -3.3605
0.830138 1.58469 -1.38299
1.24403 1.53571 -2.1363
0.817348 1.68723 0.104805
1.24125 1.64245 -0.637467
0.797494 1.75599 1.59275
1.22066 1.73191 0.844494
0.788196 1.79016 2.95402
1.19671 1.77652 2.34385
0.79199 1.81504 4.18759
1.19342 1.80136 3.56918
1.19773 1.82724 4.81031
1.58704 0.165407 -3.04146
1.59674 0.266494 -3.63618
1.59507 0.155006 -1.62813
1.57099 0.298108 -2.40069
1.60942 0.129005 -0.0336598
1.61719 0.263069 -0.820475
1.58443 0.147866 1.56143
1.61274 0.258384 0.770239
1.5673 0.189991 2.97836
1.56182 0.305022 2.35176
1.58098 0.223733 4.21824
1.57219 0.341539 3.59667
1.59139 0.371632 4.83219
1.5807 0.399195 -2.99541
1.61418 0.58153 -3.5511
1.59312 0.406171 -1.59303
1.59723 0.622075 -2.31805
1.62051 0.392448 -0.0165765
1.64702 0.647576 -0.769392
1.59014 0.41554 1.56057
1.63835 0.670821 0.779964
1.56671 0.45657 2.97007
1.57435 0.702855 2.33001
1.5826 0.489438 4.21062
1.57961 0.737559 3.57589
1.59553 0.768371 4.81839
1.63071 0.804411 -2.87374
1.6417 1.13583 -3.42796
1.65114 0.863481 -1.49441
1.64247 1.18341 -2.19881
1.66486 0.925949 0.0271484
1.66381 1.27355 -0.686376
1.62257 0.958135 1.5494
1.64561 1.33953 0.815747
1.58725 0.983843 2.93583
[...]
POINT_DATA 29498
VECTORS point_vectors float
-4.74579 -4.6307 8.13081
0.143741 0.374408 0.899837
-1.64554 0.844493 3.30992
0.0499142 -0.0302831 0.217532
4.76328 -4.64894 8.16013
-0.135894 0.353985 0.87742
1.68228 0.856319 3.37784
-0.0503244 -0.025283 0.209352
0.0195462 0.0135557 0.420792
-0.0412382 0.00359271 0.467675
-0.00427881 -0.00541699 0.239944
0.0131426 0.0295506 0.116827
-0.0196572 0.0133177 0.421546
0.0413916 0.00369974 0.465404
0.00432778 -0.00556012 0.239792
-0.0130504 0.0293155 0.115982
-0.439875 -0.141927 19.8544
-1.21346 -0.522332 20.3025
-0.510449 -0.395781 21.2036
0.00784408 -0.096526 21.3752
0.558153 0.209927 21.352
0.781517 0.244767 20.9358
0.929001 0.143437 20.2493
-0.479649 -0.0954568 19.8145
-1.38532 -0.365905 20.2931
-0.635887 -0.422141 21.2312
0.00130502 -0.16469 21.4689
0.689267 0.0910247 21.3967
0.973123 0.104147 20.6854
0.851479 -0.0147712 20.7341
-0.557151 0.0115646 19.7951
-1.47038 0.00737529 20.3419
-0.919533 -0.278936 21.2134
-0.139628 -0.241579 21.53
0.61673 -0.234198 21.419
0.97756 -0.297536 20.7456
0.782518 -0.230208 20.3982
-0.502557 0.226598 19.8982
-1.01362 0.435513 20.3656
-0.905008 0.189864 21.1104
-0.245357 -0.083088 21.4703
0.288471 -0.321212 21.2857
0.452149 -0.365169 21.0359
0.49737 -0.31241 20.8874
-0.412192 -0.315459 19.3923
-2.94802 -3.91231 19.6639
-0.0347673 -0.268971 19.5518
0.130112 0.0683162 18.0055
0.407973 1.16191 16.2478
0.874045 1.65017 17.069
0.715958 0.803755 17.3953
-0.492818 -0.217575 19.2314
1.0216 1.72194 10.5758
1.04937 0.8806 14.3761
-0.65178 0.0697567 19.0109
1.78148 -0.279238 10.3078
1.5542 -0.507092 14.1206
-0.522363 0.550762 19.3635
-1.53303 1.80034 20.0798
-2.06012 1.61226 21.1913
-0.50515 0.142224 22.1207
0.232943 -0.70671 21.5122
0.490148 -0.921474 20.2236
0.53327 -0.749495 20.1453
0.425925 -0.299118 19.4171
2.94596 -3.60778 19.7193
0.0489402 -0.273144 19.6838
-0.131807 0.0668773 17.7835
-0.348277 1.15646 15.7682
-0.783337 1.59661 16.9767
-0.75257 0.774227 17.5525
0.510068 -0.210301 19.2642
-1.01787 1.39294 12.06
-1.09691 0.783837 14.9547
0.657545 0.0624129 19.0692
-1.79214 -0.389509 11.002
-1.49387 -0.484795 14.8584
0.529125 0.539864 19.3823
1.5384 1.78689 20.0838
2.06829 1.6778 21.1835
0.510019 0.169895 22.1631
-0.208711 -0.736444 21.5499
-0.495223 -0.941263 20.0091
-0.52863 -0.758511 20.086
0.434606 -0.141694 19.8465
1.18603 -0.510513 20.3
0.508183 -0.400905 21.2027
-0.00963267 -0.101493 21.3742
-0.560726 0.210114 21.3584
-0.778805 0.246044 20.9197
-0.917251 0.150223 20.2678
0.475248 -0.0903702 19.81
1.39209 -0.367114 20.2896
0.638073 -0.42735 21.2381
-0.00284952 -0.16466 21.4733
-0.684401 0.0864685 21.3972
-0.954575 0.105594 20.68
-0.852524 0.00222394 20.6744
0.54211 0.0108527 19.8159
1.48238 0.00960183 20.3401
0.929445 -0.27956 21.2162
0.139675 -0.240498 21.5305
-0.623308 -0.228908 21.4308
-0.972338 -0.298627 20.7804
-0.784022 -0.218612 20.4319
0.500383 0.220389 19.9061
1.01481 0.434626 20.3652
0.925308 0.195305 21.1171
0.257486 -0.078491 21.4904
-0.289659 -0.328144 21.3115
-0.447244 -0.370128 21.0451
-0.49718 -0.31447 20.8926
-1.31062 -0.24427 1.36325
-0.000147989 -0.313528 0.460313
0.0332064 -0.128373 1.41906
-0.0734768 -0.0151874 -0.0344249
-9.01039e-05 -0.0191174 -0.00798313
-0.00273897 0.065328 1.39847
0.000392486 0.0761857 0.116119
-0.0563187 -0.0567121 0.562948
7.57766e-07 2.47554e-05 -2.41129e-05
0.0616002 0.0943642 0.34272
1.18243 -0.220375 1.22746
-0.0323802 -0.129116 1.43519
0.0735891 -0.00933941 -0.0347002
0.00269151 0.0650163 1.39966
0.0566426 -0.0570031 0.564503
-0.0615635 0.0942546 0.342273
-0.0152479 0.031368 0.743811
8.89976e-08 -6.45447e-07 1.04422e-05
-8.15696e-09 -4.45481e-07 8.5608e-05
0 0 0
8.90248e-08 1.85308e-05 0.00386089
0.00321983 0.00828125 0.0435422
4.58899e-06 0.00822425 0.015686
-3.37431e-05 -0.00275979 0.0559637
0.0154263 0.0313055 0.744058
-1.33041e-06 -9.6259e-06 0.000155883
0 0 0
-0.00316214 0.00822325 0.0431088
0 0 0
-1.92099e-07 6.34342e-06 5.33643e-05
0.000845712 0.00799202 0.0787082
-2.61876e-06 -0.000141478 0.00717849
4.84034e-08 2.52534e-08 1.68531e-05
1.68282e-07 9.53296e-06 0.00190486
0 0 0
7.83158e-06 0.000151528 -3.63367e-05
8.35459e-08 9.85642e-05 0.000799045
-6.30429e-06 0.0128307 0.102367
0 0 0
0 0 0
2.22752e-07 7.35098e-06 6.19798e-05
-0.000838882 0.00796491 0.0782441
-2.9442 -1.10428 20.0783
-4.8543 -5.95898 19.332
-1.46342 -0.80366 18.1201
1.11442 0.551309 19.4061
0.337566 1.17139 9.15755
0.399655 1.33368 7.49612
-2.81916 0.144653 20.3422
-2.15861 0.48261 17.6134
-3.1544 2.82335 20.0278
1.14936 -0.126816 19.8209
0.807636 0.0963712 6.19643
1.18422 -0.366212 16.1034
4.81333 -5.46114 19.3585
1.49121 -0.780281 18.2202
2.96399 -1.11056 20.0801
-0.284649 1.14485 8.75499
-0.426003 1.31632 8.1774
-1.10796 0.544308 19.4533
2.14905 0.439017 17.7628
3.14934 2.79666 20.0316
2.84044 0.145756 20.3451
-0.986771 0.152395 6.88241
-1.21048 -0.34892 15.3162
-1.14762 -0.1313 19.8654
-0.52981 -0.764791 21.4881
0.0666139 0.327638 10.6617
0.114748 -0.103217 20.6706
0.116421 -0.0313346 11.2103
-1.44115 -0.74997 21.5658
-4.11468 0.826227 20.018
-0.106781 -0.419883 21.1357
0.113967 0.513101 15.6514
-0.102709 0.324189 10.9268
0.529405 -0.765409 21.4815
-0.129586 -0.0384927 10.9136
-0.112924 -0.103085 20.6728
4.18374 0.861425 19.8886
1.44598 -0.759815 21.5568
-0.256643 0.648894 14.6829
0.105516 -0.421525 21.1296
-0.817969 -0.30016 19.8858
-0.459762 -0.118692 19.8345
-0.472989 -0.244448 19.6301
-0.914225 -0.496038 20.9332
-1.31905 -0.468196 20.2914
-1.99305 -1.27237 20.1397
-0.211527 -0.248166 21.3199
-0.552401 -0.416022 21.2355
-0.420148 -0.572155 21.4509
0.262439 0.0588768 21.4206
0.0215684 -0.123029 21.4255
0.0702885 -0.0530798 21.4308
0.728786 0.266322 21.1694
0.630542 0.164448 21.3719
0.782043 0.587929 21.2177
0.781324 0.231311 20.7152
0.87732 0.174457 20.8106
1.11903 0.749456 20.7651
0.914463 0.0686571 20.4679
0.924295 0.510671 20.7018
-0.94165 -0.224267 19.8237
-0.512236 -0.0509977 19.8027
-0.552415 -0.156291 19.5247
-1.06564 -0.438073 20.96
-1.45829 -0.202425 20.3311
-0.272214 -0.316286 21.3753
-0.750539 -0.40349 21.2347
0.316468 -0.0178711 21.4955
-0.0370247 -0.216937 21.5118
0.915831 0.139036 21.1701
0.723541 -0.0689262 21.4743
0.898455 0.155418 20.9582
0.987357 -0.0880399 20.7025
1.51197 0.64216 19.5048
0.873896 -0.143814 20.255
1.45473 0.508766 20.0587
-1.07204 0.0295661 19.8421
-0.568446 0.138358 19.8106
-0.669988 0.0445492 19.4578
-1.22467 -0.14957 20.8879
-1.28447 0.271716 20.3627
-0.538206 -0.307228 21.438
-1.02 -0.0313038 21.1725
0.254878 -0.203493 21.5375
-0.225256 -0.162157 21.5236
0.8453 -0.269132 21.1773
0.468631 -0.329412 21.3558
0.849292 -0.316821 21.2931
0.63761 -0.364852 20.9458
1.57603 -0.39421 19.5273
0.622981 -0.346486 20.8078
0.999496 -0.368712 19.653
-0.80164 0.373845 20.0403
-0.573838 0.349127 19.663
-1.01717 0.34348 20.7571
-1.37396 0.889499 20.2458
-0.627481 0.0562173 21.3884
-1.42115 0.566089 21.2083
0.0660347 -0.204138 21.4334
-0.375656 -0.0253534 21.7192
0.42744 -0.363376 21.1792
0.321134 -0.470727 21.394
0.486717 -0.429172 20.714
0.540293 -0.592836 20.8402
0.556855 -0.507707 21.1346
-1.09066 -1.00696 18.7694
-0.456354 -0.283963 19.2936
0.0111593 -0.41454 19.1383
-0.832166 -1.06997 20.5466
0.0549638 -6.90135 19.6016
0.103217 0.00321826 18.319
-0.00212601 -0.361221 14.1744
0.138945 0.431398 16.8058
-5.91758e-05 -0.0198051 12.2256
0.558492 1.37234 16.7424
-0.0245079 0.342885 9.21278
0.549518 1.45977 18.5403
0.986666 1.73573 14.0251
0.0552079 0.122182 6.94124
0.900413 0.840487 15.9169
-0.0246988 0.554282 10.0937
-0.571972 -0.092537 19.1136
0.0146867 -0.287668 18.9136
1.24877 1.28824 13.6249
1.79363 0.979164 7.56683
-0.336249 -1.56137 -4.52548
1.27029 0.890444 11.6155
-0.117651 -0.450345 -0.120758
-0.613934 0.37168 19.1485
0.0244307 0.116016 18.5274
1.68857 -0.497749 12.6558
1.14613 -0.990414 17.7626
0.0598748 -1.48735 -1.18965
0.613926 -0.729776 19.2135
-0.0653217 -1.23945 2.56272
-1.05515 1.26498 19.3503
0.0115913 0.778694 19.0604
-1.65784 1.53922 20.5792
0.00923907 3.01608 19.8195
-1.42161 0.826981 22.0422
-0.0337912 4.09853 20.6974
0.0381653 -0.438465 21.856
-0.0206112 0.489361 21.5425
0.341777 -0.845186 21.2443
0.00454844 -0.675404 20.506
0.437651 -0.814004 19.9746
0.00488353 -1.11672 17.8505
0.0123656 -0.666654 20.4865
1.11311 -0.945251 18.8463
0.473368 -0.270913 19.3237
0.476243 -0.233952 19.6596
0.929251 -1.09194 21.1186
1.9132 -1.21224 20.1563
-0.100008 0.0038969 18.2981
0.426395 -0.572189 21.4436
-0.126848 0.417109 16.4521
-0.0715787 -0.0488263 21.4194
-0.566185 1.39508 16.701
-0.789471 0.614461 21.1239
-0.569102 1.45362 18.5466
-0.917066 1.54283 14.7683
-1.09635 0.697735 20.8098
-0.94235 0.767786 16.412
-0.880574 0.488781 20.8654
0.587472 -0.0838288 19.164
0.561804 -0.152326 19.5599
-1.28674 1.20617 14.4696
-1.91891 0.962198 8.04797
-1.4574 0.610136 19.7594
-1.34373 0.729015 12.566
-1.38542 0.482723 20.2267
0.62749 0.357573 19.1824
0.679924 0.0434401 19.4909
-1.65696 -0.469597 13.4849
-1.16557 -1.00497 17.7383
-1.52212 -0.401512 19.7689
-0.613966 -0.723484 19.24
-0.95794 -0.350603 19.7876
1.06318 1.23999 19.3614
0.572949 0.338604 19.6758
1.65618 1.55316 20.5761
1.3711 0.883219 20.2468
1.45043 0.900166 22.0873
1.44949 0.58743 21.211
-0.0219713 -0.446679 21.8842
0.391816 -0.0192742 21.7506
-0.32507 -0.85808 21.3512
-0.317954 -0.503982 21.408
-0.433981 -0.829901 19.8365
-0.551974 -0.631162 20.9306
-0.54983 -0.520913 21.087
0.79398 -0.291538 19.8999
0.455907 -0.116622 19.8258
0.90473 -0.494776 20.9234
1.30959 -0.463344 20.2823
0.207905 -0.252293 21.3237
0.552996 -0.41781 21.2371
-0.266276 0.0597684 21.4259
-0.0231096 -0.1239 21.4284
-0.722723 0.271782 21.1749
-0.629938 0.160776 21.3675
-0.788124 0.228732 20.7114
-0.867152 0.175642 20.7978
-0.896613 0.0777273 20.488
0.922141 -0.214483 19.8338
0.507243 -0.0503594 19.807
1.07059 -0.440543 20.9618
1.46972 -0.200479 20.3282
0.272745 -0.31824 21.3785
0.757517 -0.407101 21.2389
-0.314882 -0.0194438 21.4944
0.0395755 -0.215907 21.5091
-0.913081 0.129129 21.1693
-0.719585 -0.0650882 21.4801
-0.899948 0.132903 20.9406
-0.970847 -0.0792455 20.7322
-0.877888 -0.127921 20.2923
1.0532 0.0304068 19.8555
0.560855 0.131251 19.8259
1.23163 -0.150354 20.8926
1.28829 0.274894 20.3622
0.540258 -0.306246 21.4391
1.03984 -0.0322694 21.1765
-0.256701 -0.203018 21.5321
0.233003 -0.171023 21.5329
-0.844718 -0.259052 21.1832
-0.474672 -0.337091 21.3658
-0.806023 -0.280114 21.2396
-0.638669 -0.382057 20.9398
-0.615768 -0.34278 20.8139
0.798164 0.366351 20.0446
1.02834 0.34759 20.7575
0.646549 0.0617182 21.4005
-0.0636704 -0.20493 21.4441
-0.417811 -0.355843 21.2342
-0.500986 -0.434215 20.702
-0.892296 -0.270702 19.8508
-1.29376 -0.962286 18.4123
-1.05863 -0.613329 19.4592
-1.35056 -0.444151 19.2424
-0.51231 -0.204023 19.5689
-2.44968 -1.24755 20.1137
-0.988187 -0.48334 20.9567
0.128362 -0.605859 12.0378
-1.08403 -0.896007 21.2526
-1.33324 -0.91456 21.3566
-0.453794 -0.661999 21.5222
-0.224207 -0.28128 21.3453
0.135128 0.0958567 11.1866
-0.0835421 -0.278738 21.4416
-0.062507 -0.433309 20.9984
0.0954052 -0.0874306 21.1906
0.299124 0.0228137 21.4652
-0.0328325 0.363048 9.55356
0.356689 0.246516 21.4223
0.509215 0.233586 20.4316
0.973358 0.601188 20.4894
0.832038 0.205922 21.1527
0.503335 1.43226 12.086
0.977787 0.734151 20.9134
1.36561 0.597277 19.8215
1.3362 0.724305 19.8299
0.839889 0.193364 20.8367
0.961553 1.38204 15.8857
1.03972 0.654968 20.6423
1.67336 0.584864 19.2053
1.18782 0.498355 20.3118
-1.02025 -0.110688 19.8213
-1.85037 -0.294054 17.7338
-1.60069 0.147051 19.2458
-0.626043 -0.0766249 19.4785
-3.12967 -0.466315 20.2371
-1.14899 -0.333473 20.9448
-1.86444 -0.414104 21.1472
-0.884214 -0.863656 21.4418
-0.37466 -0.343434 21.4103
-0.698842 -0.700743 21.493
0.118729 -0.236489 20.6975
0.327471 -0.104549 21.5428
0.547877 -0.155991 20.5456
1.2214 0.308778 18.8804
0.945753 -0.0675346 21.2768
0.381382 0.698935 4.00792
1.37499 -0.261519 20.0571
1.5738 0.194023 19.3368
0.887206 -0.100432 21.1238
1.69113 1.06663 10.6044
1.24911 -0.394806 19.3509
1.05546 -0.120984 19.214
-0.984485 0.256371 19.9097
-1.64696 1.29967 18.5528
-1.02389 0.709692 19.7607
-0.643816 0.236513 19.5369
-2.10424 0.807282 20.2421
-1.20216 0.130063 20.8205
-2.94418 1.3693 20.7605
-1.42552 0.725012 20.7348
-1.81515 0.0189069 21.3428
-0.657005 -0.12006 21.4379
-1.533 -0.0905391 17.1731
-0.968764 0.257635 21.6273
-0.428978 -0.254901 21.8451
0.16438 -0.236398 21.4948
1.19615 0.146608 15.5545
0.0720207 -0.289758 21.5944
0.59675 -0.609566 21.4501
0.608504 -0.38027 21.1756
1.11452 -0.761177 17.2028
0.428438 -0.589285 21.1575
0.796557 -0.78938 21.3593
0.571241 -0.424033 20.9749
0.95128 -0.96969 19.1119
0.373198 -0.538981 21.0671
0.636447 -0.488417 20.1997
1.31951 -0.91837 18.5307
0.0416313 -1.54905 17.9231
0.039555 -1.20463 16.8599
0.0121163 -0.373307 19.013
0.030755 -10.2836 19.6325
-0.068916 -0.634631 12.7191
0.00601607 -1.0586 16.1727
-0.00234884 -0.0477857 5.49752
-0.13279 0.0965707 11.1618
-0.00150485 -0.142486 12.5605
0.00160334 0.0312734 5.21521
0.0408025 0.34634 9.18864
0.00301723 0.104763 10.7516
-0.0324852 0.0709693 1.99918
-0.465448 1.43328 12.4748
0.0985007 0.0840511 8.4013
0.469571 -1.19381 -4.90346
-0.106822 -0.670413 0.880496
-0.992918 1.32573 16.5256
-0.00994503 0.259289 9.12821
-0.0348293 -0.0961831 -0.609921
-0.0528893 0.093567 4.89565
1.87054 -0.299452 17.8529
0.042889 1.13955 15.4032
0.0307162 -0.124371 18.7055
-0.442883 0.662854 4.36602
0.181386 0.14801 -1.98323
-0.21686 -1.67822 -3.7611
-1.67347 1.0009 11.5899
-0.103702 -1.21751 1.14423
-0.110946 -0.51425 2.60353
1.6521 1.27167 18.6128
0.0154059 2.03131 18.8238
0.0182027 0.554086 18.6954
0.00520524 5.67596 19.628
2.94488 1.38797 20.7609
-0.0065925 2.77878 20.2475
-0.0200823 4.50242 13.5529
1.3949 0.00229924 16.3731
-0.0471816 2.66468 22.4038
0.00485554 -0.138723 2.40058
-1.31764 0.216765 14.636
-0.010144 -0.358044 20.7609
0.0143722 -0.180638 3.44004
-1.13893 -0.757012 16.906
0.00698621 -0.855373 20.306
0.018446 -1.48637 9.73367
-0.944139 -0.971348 19.1186
0.0121496 -1.09811 18.4315
-0.00544135 -1.25002 14.6853
0.867013 -0.256905 19.8596
1.03882 -0.583671 19.5129
1.33581 -0.433145 19.2879
0.520201 -0.197361 19.6007
2.40251 -1.20325 20.116
0.984754 -0.483652 20.952
1.0803 -0.881877 21.2371
1.3364 -0.917008 21.3612
0.460078 -0.661288 21.5208
0.225 -0.284436 21.346
0.0842788 -0.279134 21.4393
0.0638661 -0.433188 20.9872
-0.0947765 -0.0842866 21.1626
-0.298877 0.0229334 21.4639
-0.357299 0.256245 21.4035
-0.506097 0.230835 20.4467
-0.968121 0.61371 20.3824
-0.821007 0.206629 21.1565
-0.96674 0.718515 20.819
-1.34811 0.553077 20.1209
-1.28221 0.699359 19.8425
-0.851578 0.181883 20.8337
-0.982934 0.635439 20.7417
-1.59532 0.527421 19.3231
-1.13164 0.474317 20.4771
0.998663 -0.110217 19.836
1.56863 0.140446 19.3059
0.635983 -0.0727896 19.5091
3.14866 -0.465648 20.2377
1.15878 -0.334014 20.948
1.87108 -0.417663 21.1564
0.881595 -0.869289 21.4014
0.376047 -0.342914 21.4136
0.698994 -0.706917 21.474
-0.117494 -0.237298 20.6965
-0.325563 -0.103458 21.5438
-0.546034 -0.158335 20.5609
-1.21757 0.303646 18.9403
-0.937964 -0.0647979 21.2708
-1.37162 -0.267234 20.2
-1.58008 0.160548 19.6556
-0.862651 -0.0815336 21.0714
-1.22529 -0.393922 19.5183
-1.01246 -0.148993 19.4297
0.976098 0.250265 19.918
1.01924 0.692306 19.77
0.640434 0.231225 19.5597
2.09974 0.806299 20.2423
1.21206 0.132169 20.8226
1.43191 0.733565 20.7331
1.85532 0.0222951 21.3544
0.671988 -0.12774 21.4484
1.00194 0.276831 21.6475
0.443127 -0.256268 21.8662
-0.171935 -0.244018 21.5071
-0.0772003 -0.306289 21.617
-0.602918 -0.634865 21.452
-0.623696 -0.363128 21.2218
-0.445423 -0.627536 21.1539
-0.789012 -0.780956 21.3675
-0.579879 -0.425983 20.9688
-0.388582 -0.56327 21.054
-0.633389 -0.482687 20.2226
-1.19398 -0.537841 19.3381
-1.19467 -0.903326 21.3006
-0.0633203 -0.353287 21.3462
0.445893 0.239619 21.0347
1.18023 0.702353 20.4719
1.35654 0.619916 19.9238
-1.53932 -0.172528 19.1813
-1.61572 -0.741092 21.301
-0.24625 -0.626222 21.0682
0.59929 0.123491 20.0297
1.52432 0.210798 19.6526
1.43119 -0.0119771 19.2023
-1.39536 0.570408 19.4828
-1.90056 0.327198 20.8687
-1.14878 -0.184616 21.7658
0.225126 -0.403669 21.7142
0.792779 -0.708843 21.0802
0.899463 -0.708337 20.3138
0.048053 -1.46639 17.3427
-0.00359117 -0.188211 4.82303
-0.000813143 -0.0102403 5.14932
0.0002446 0.0328296 4.13382
0.416816 -0.569721 0.705369
-0.0202944 -0.132318 3.79135
0.0416051 -0.349064 15.8769
-0.128029 -0.834145 -3.94724
-0.109927 -0.88408 -0.0539914
0.0307266 2.34197 17.2826
-0.00621538 3.33688 19.4372
0 0 0
-0.00417068 0.0784392 2.19561
0.0428686 -0.505403 6.74499
-0.00947962 -1.03515 11.0765
1.1801 -0.514751 19.3842
1.19895 -0.895381 21.2916
0.0651047 -0.352524 21.3415
-0.444751 0.245487 20.9946
-1.17116 0.660658 20.5795
-1.28912 0.581429 20.0324
1.52063 -0.16593 19.2285
1.62255 -0.746131 21.3083
0.245495 -0.626142 21.0342
-0.596984 0.118574 20.0538
-1.52367 0.187788 19.8932
-1.37483 -0.0604571 19.3499
1.37506 0.546339 19.507
1.91197 0.332235 20.8685
1.17337 -0.181752 21.7831
-0.22334 -0.416784 21.7324
-0.821459 -0.736074 21.0245
-0.896127 -0.704161 20.319
-0.750898 -0.222666 0.910572
-0.143569 -1.0374 0.814465
-0.057356 -0.0690321 1.16345
-0.0235962 -0.0901208 0.189828
-0.0657733 0.0291784 0.0493504
0.0288957 0.023931 0.548949
-3.67562 0.129819 4.27367
-0.0222517 0.126885 0.173913
-0.128922 -0.0946623 1.11516
-0.0126069 0.00126862 -0.00415384
-0.00318747 0.0026882 -0.00302203
0.12112 0.109806 0.665821
0.142517 -1.02655 0.816922
0.765034 -0.227242 0.927383
0.0570564 -0.0692331 1.16316
0.0674913 0.0312195 0.0516453
0.0474766 -0.0671707 0.17178
-0.0289436 0.0241644 0.55068
0.0222212 0.127213 0.174162
3.62824 0.127977 4.20731
0.128866 -0.094901 1.11362
0.00380506 0.00244213 -0.00279497
0.0118052 0.00207913 -0.00375773
-0.121968 0.110339 0.668713
0.0708667 -0.146364 1.38705
-0.00656437 0.0211174 0.775656
0.00226616 -0.00639463 0.0722195
0 0 0
-0.0579288 0.174151 2.71372
-0.021349 0.0348979 0.729703
0 0 0
4.64862e-05 3.98099e-06 0.00119612
-0.0795081 -0.087729 0.462514
-2.94958e-05 -0.000107599 0.00218431
0.00762727 0.0286887 0.18817
-0.0167842 0.0159534 0.0328199
0.00559878 0.011376 0.0451523
0.0014364 0.0121568 0.0634631
0.0243074 0.055553 0.220419
0.173795 0.0655983 0.714508
-0.0716072 -0.150173 1.40938
0 0 0
0.0067408 0.0210434 0.77617
-0.0022681 -0.006407 0.0725423
0.058121 0.173362 2.70454
-0.000311385 3.30142e-05 0.0080868
0.0215762 0.0348213 0.728581
0 0 0
0.0797389 -0.0879315 0.463505
0.0228757 0.0170323 0.0374157
2.5581e-05 -9.31252e-05 0.0018827
-0.00760282 0.028606 0.187767
-0.00561263 0.0114054 0.0452248
-0.174406 0.065691 0.716523
-0.00144217 0.0121669 0.0636654
-0.0215321 0.0487628 0.19481
-0.00358537 0.00240398 0.0776214
0 0 0
0 0 0
-4.26782e-07 -0.00991634 0.00442095
0 0 0
0.00480067 -0.00126295 0.0557482
0.00148901 0.00487241 0.0520942
-0.0135764 0.00551302 -0.00121016
7.43728e-06 0.00355403 0.032194
0.0231448 0.152883 -0.29325
0.000959177 0.00390305 0.0645371
0 0 0
-4.62068e-06 0.0901776 0.0490503
2.75897e-09 1.88655e-06 1.10014e-05
-0.000657381 -0.00133728 0.0152993
-0.000552307 0.000305562 0.0027382
0.00342989 0.114809 0.00377454
1.56747e-05 0.00061592 -0.00755455
0.0101141 0.0264404 0.146989
0 0 0
0 0 0
0.00360278 0.00241507 0.0779139
-0.00473869 -0.00124691 0.0552885
0 0 0
0.0160607 0.00549639 -0.00124797
-0.00148349 0.00488701 0.0520062
0 0 0
-0.00090169 0.00374968 0.0614416
0.00056053 0.00031021 0.00278139
0.000677441 -0.00138137 0.0157775
1.08616e-18 6.83181e-19 -1.35393e-18
-0.0100951 0.0263967 0.14671
-0.000715753 0.00275778 0.0373199
0.000638629 5.45806e-05 0.0205398
-0.0411706 0.00947216 0.254405
0 0 0
0 0 0
-1.07879e-06 7.06221e-06 0.00201658
-1.41304e-05 0.000265788 0.0018198
0.0020177 0.0142887 0.119386
0 0 0
8.74615e-08 5.19575e-06 0.00253344
0.000229252 0.00176938 0.011143
-0.0880912 0.0787805 1.04068
2.07547e-06 0.000173738 0.00145901
0.00184389 0.0542764 0.17427
-1.67322e-05 0.00257541 0.0889881
-4.98315e-06 -0.00625423 0.0230159
-0.000712332 5.60857e-05 0.0229611
0.000700211 0.00269787 0.0365672
0.0467708 0.0106038 0.28924
0 0 0
1.40126e-05 0.000263675 0.00180572