# vtk DataFile Version 2.0
tri_press
ASCII
DATASET UNSTRUCTURED_GRID
POINTS 3682 float
-0.735 0.435 -2.38668
-0.745 0.455 2.36932
-0.827672 0.775 -2.235
-0.776553 0.965 2.305
0.735 0.435 -2.38678
0.745 0.455 2.36932
0.827672 0.775 -2.235
0.776548 0.965 2.305
-0.805862 0.374138 -0.801347
-0.805949 0.384051 0.783987
-0.868015 0.895716 -0.721667
-0.851547 0.959621 0.791667
0.805872 0.374128 -0.801414
0.805949 0.384051 0.783953
0.868018 0.895721 -0.721667
0.851533 0.959611 0.791667
-1.55484 0.154557 -3.66105
-1.56226 0.176264 -2.42162
-1.6101 0.133763 -0.834421
-1.61349 0.124263 0.767266
-1.57171 0.171476 2.35568
-1.5607 0.208512 3.60109
-1.56563 0.23896 4.83544
-1.55801 0.378435 -3.61108
-1.56771 0.419958 -2.37951
-1.62653 0.392395 -0.806331
-1.61873 0.392517 0.773331
-1.5552 0.438572 2.34789
-1.54889 0.474571 3.59229
-1.55971 0.504311 4.82899
-1.59843 0.784628 -3.49094
-1.63587 0.824193 -2.25641
-1.67997 0.90277 -0.732314
-1.65827 0.949143 0.786681
-1.5842 0.967142 2.31216
-1.5659 1.00055 3.55954
-1.56983 1.03244 4.80785
-1.63399 1.48702 -3.36486
-1.65482 1.54262 -2.14111
-1.67437 1.64434 -0.640362
-1.67284 1.72994 0.844869
-1.64974 1.77494 2.34637
-1.62865 1.8005 3.57171
-1.61551 1.82663 4.81215
-0.75145 0.162452 -3.66572
-0.749891 0.187116 -2.42842
-0.795523 0.125157 -0.833531
-0.809408 0.117436 0.776357
-0.781383 0.178801 2.37159
-0.770064 0.213801 3.61189
-0.772114 0.241506 4.84169
-0.748191 0.380549 -3.61253
-0.755534 0.480615 3.60119
-0.765504 0.507017 4.8337
-0.779709 0.765531 -3.48205
-0.767749 1.00181 3.5581
-0.772145 1.03383 4.80754
-0.810713 1.47297 -3.35607
-0.826579 1.52881 -2.13142
-0.844175 1.64058 -0.634523
-0.850947 1.73389 0.84416
-0.839745 1.7781 2.34136
-0.822733 1.80223 3.5667
-0.810822 1.82785 4.80851
0.806149 0.162451 -3.66579
0.780915 0.187114 -2.4285
0.808178 0.12515 -0.833591
0.79514 0.117434 0.776324
0.757678 0.1788 2.37158
0.781299 0.2138 3.61188
0.799641 0.241504 4.84167
0.807198 0.380549 -3.61259
0.785743 0.480614 3.60118
0.803513 0.507016 4.83369
0.834106 0.765531 -3.48208
0.795414 1.00181 3.55809
0.80622 1.03383 4.80753
0.834062 1.47297 -3.35609
0.832869 1.52881 -2.13144
0.827408 1.64057 -0.634538
0.807288 1.73388 0.844147
0.787699 1.7781 2.34135
0.788694 1.80222 3.56668
0.795287 1.82785 4.80849
1.59682 0.154554 -3.66117
1.57727 0.17626 -2.42175
1.61287 0.133753 -0.834523
1.60597 0.124258 0.767203
1.56289 0.171474 2.35565
1.57172 0.208509 3.60107
1.59024 0.238957 4.83541
1.59667 0.378433 -3.61119
1.56472 0.419956 -2.37964
1.62151 0.392385 -0.806428
1.61951 0.39251 0.773275
1.56076 0.43857 2.34787
1.57266 0.474569 3.59227
1.59254 0.504307 4.82896
1.63169 0.784628 -3.49101
1.62974 0.824194 -2.25647
1.67253 0.902767 -0.732357
1.65719 0.949131 0.786654
1.58794 0.967139 2.31214
1.58656 1.00055 3.55952
1.59852 1.03244 4.80782
1.65172 1.48702 -3.36491
1.6552 1.54262 -2.14115
1.65508 1.64433 -0.640396
1.63404 1.72993 0.84484
1.60573 1.77494 2.34635
1.59814 1.8005 3.57168
1.60018 1.82663 4.81213
-0.787646 0.605 -2.31715
0 0.400161 -2.42157
-0.80312 0.37188 -1.59401
-0.755096 0.71 2.33148
0 0.425674 2.39865
-0.824589 0.370411 1.57665
0 0.82028 -2.28028
-0.859617 0.847132 -1.47833
-2.47359e-06 0.990335 2.33033
-0.838555 0.986816 1.54833
0.787447 0.605 -2.317
0.803237 0.371763 -1.5941
0.755117 0.71 2.3315
0.824614 0.370386 1.57664
0.859613 0.847128 -1.47833
0.838529 0.986793 1.54833
-0.805179 0.379821 -0.00867999
-0.891996 0.634927 -0.761507
4.66513e-06 0.303491 -0.80138
-0.895262 0.671836 0.787827
7.11228e-08 0.317903 0.78397
-0.860715 0.928602 0.0350001
1.36711e-06 1.17482 -0.721667
-7.02279e-06 1.44034 0.791667
0.805185 0.379815 -0.00873005
0.891999 0.634925 -0.76154
0.895302 0.671831 0.78781
0.860711 0.928601 0.0350001
-0.855456 0.619964 -1.53617
0.855454 0.619962 -1.53622
2.33256e-06 0.311666 -1.59406
6.83553e-07 0.989217 -1.47833
0 0.605 -2.40459
-0.89299 0.653382 0.01316
0.892993 0.653378 0.013135
2.36813e-06 0.310993 -0.00870502
-2.82784e-06 1.42623 0.0350001
-0.88496 0.690918 1.56249
0.884953 0.690915 1.56249
3.55614e-08 0.319732 1.57665
-4.74819e-06 1.13057 1.54833
-1.2368e-06 0.71 2.38152
-0.770224 0.52 -2.36082
-0.3675 0.403892 -2.41781
-0.780905 0.391595 -1.99035
-0.787998 0.5825 2.38835
-0.3725 0.428088 2.39623
-0.789986 0.407514 1.97299
-0.81956 0.69 -2.28798
-0.413836 0.817225 -2.27722
-0.845452 0.812873 -1.85667
-0.770077 0.8375 2.32249
-0.388278 0.986144 2.32614
-0.825335 0.993689 1.92667
0.3675 0.403905 -2.41785
0.770276 0.52 -2.36094
0.78091 0.39159 -1.99044
0.3725 0.428125 2.3962
0.788245 0.5825 2.3886
0.790035 0.407465 1.97298
0.413836 0.817221 -2.27722
0.81948 0.69 -2.28792
0.845451 0.812872 -1.85667
0.388273 0.986145 2.32615
0.769998 0.8375 2.32242
0.825349 0.993708 1.92667
-0.816219 0.361281 -1.19768
-0.805508 0.376992 -0.405013
-0.861764 0.498115 -0.781427
-0.418843 0.306987 -0.801363
-0.836991 0.355509 1.18032
-0.805406 0.382094 0.387653
-0.865741 0.520376 0.785907
-0.418407 0.320111 0.783978
-0.869672 0.87728 -1.1
-0.892779 0.771709 -0.741587
-0.864388 0.912182 -0.343333
-0.498957 1.16517 -0.721667
-0.846176 0.974344 1.17
-0.889912 0.823982 0.789747
-0.856689 0.94467 0.413333
-0.532661 1.41375 0.791667
0.816327 0.361173 -1.19776
0.418747 0.307193 -0.801397
0.805515 0.376985 -0.405072
0.861763 0.498112 -0.781477
0.836939 0.355561 1.1803
0.418628 0.319671 0.783962
0.805409 0.382091 0.387612
0.865769 0.520369 0.785882
0.869679 0.877288 -1.1
0.498957 1.16516 -0.721667
0.892783 0.77171 -0.741603
0.864381 0.912177 -0.343333
0.846176 0.974347 1.17
0.532682 1.41381 0.791667
0.88991 0.823967 0.789739
0.856771 0.944754 0.413333
-0.844367 0.612482 -1.92666
-0.393823 0.605 -2.3953
1.16628e-06 0.318387 -2.00781
0 0.50258 -2.47525
-0.834581 0.495922 -1.56509
-0.401559 0.31193 -1.59403
-0.87551 0.700459 1.94699
-0.377549 0.71 2.38164
1.77807e-08 0.331687 1.98765
-6.18398e-07 0.567837 2.4576
-0.866943 0.530665 1.56957
-0.412294 0.322785 1.57665
3.41776e-07 0.940173 -1.87931
0 0.71264 -2.38101
-0.864185 0.733548 -1.50725
-0.429808 0.98777 -1.47833
-3.61089e-06 1.09614 1.93933
-1.85519e-06 0.850167 2.39766
-0.878954 0.838867 1.55541
-0.41928 1.119 1.54833
0.844378 0.612481 -1.92661
0.393723 0.605 -2.3953
0.83457 0.495863 -1.56516
0.401619 0.311924 -1.59408
0.875509 0.700458 1.94699
0.377558 0.71 2.38159
0.866891 0.530651 1.56956
0.412307 0.322788 1.57664
0.864192 0.733545 -1.50727
0.429807 0.987769 -1.47833
0.878943 0.838854 1.55541
0.419262 1.11915 1.54833
-0.863008 0.509639 0.00224003
-0.418616 0.313352 -0.0086925
-0.885804 0.627445 -1.14884
-0.892493 0.644154 -0.374173
3.49885e-06 0.308176 -1.19772
3.51663e-06 0.30997 -0.405043
-0.893997 0.662609 0.400493
-0.893335 0.681377 1.17516
1.21962e-06 0.312195 0.387633
5.33421e-08 0.318874 1.18031
-0.890869 0.798 0.0240801
-0.540145 1.39699 0.0350001
1.02533e-06 1.02105 -1.1
-7.30367e-07 1.35598 -0.343333
-4.92531e-06 1.45107 0.413333
-5.88549e-06 1.37239 1.17
0.862993 0.509644 0.00220248
0.418675 0.313241 -0.00871754
0.886378 0.627443 -1.14888
0.892496 0.644151 -0.374203
0.893998 0.662604 0.400473
0.893337 0.681373 1.17515
0.890871 0.797999 0.0240676
0.540152 1.39701 0.0350001
-0.819492 0.507961 -1.9585
-0.852833 0.500227 -1.17326
-0.889639 0.749435 -1.12442
-0.852555 0.711774 -1.89166
0.819493 0.507931 -1.95852
0.852558 0.711773 -1.89164
0.889643 0.749434 -1.12444
0.852874 0.500195 -1.17332
-0.384529 0.318594 -1.99908
0.38456 0.318595 -1.99913
0.402279 0.308142 -1.19774
-0.402244 0.308159 -1.1977
-0.421822 0.939889 -1.86799
-0.431908 1.01995 -1.1
0.431908 1.01995 -1.1
0.421821 0.939889 -1.86799
-0.380661 0.51129 -2.4709
-0.403829 0.70132 -2.37933
0.40378 0.70132 -2.37933
0.380612 0.51129 -2.47091
-0.862379 0.503881 -0.389593
-0.864212 0.515089 0.394073
-0.890333 0.810963 0.406913
-0.891777 0.784831 -0.358753
0.862374 0.50388 -0.389637
0.891779 0.78483 -0.358768
0.890334 0.810954 0.406903
0.86424 0.515077 0.394042
-0.418088 0.311452 -0.405028
0.417993 0.311653 -0.405057
0.419115 0.31553 0.387622
-0.418985 0.315785 0.387643
-0.547252 1.33648 -0.343333
-0.53939 1.41134 0.413333
0.539384 1.41135 0.413333
0.547237 1.33645 -0.343333
-0.874403 0.529304 1.17774
-0.851627 0.556582 1.95999
-0.868189 0.838183 1.93683
-0.887635 0.827298 1.17258
0.874296 0.529296 1.17772
0.888297 0.827287 1.17257
0.868174 0.838177 1.93683
0.851628 0.556575 1.95999
-0.407635 0.321511 1.18031
0.407641 0.321514 1.1803
0.392403 0.334563 1.98031
-0.392397 0.334562 1.98032
-0.422529 1.35856 1.17
-0.403779 1.0945 1.933
0.403767 1.0945 1.933
0.422513 1.35857 1.17
-0.375024 0.575169 2.45912
0.375029 0.575169 2.45907
0.382915 0.843834 2.38669
-0.382913 0.843834 2.38709
-0.750346 0.4775 -2.37148
-0.55125 0.415131 -2.40656
-0.77137 0.39988 -2.18851
-0.765287 0.51875 2.37762
-0.55875 0.437249 2.38707
-0.776843 0.421907 2.17115
-0.826952 0.7325 -2.26482
-0.620754 0.808045 -2.26804
-0.837149 0.794524 -2.04583
-0.78461 0.90125 2.32504
-0.582415 0.971936 2.31194
-0.814783 0.993183 2.11583
0.55125 0.415155 -2.40661
0.750324 0.4775 -2.37155
0.771278 0.399972 -2.18861
0.55875 0.437245 2.38708
0.765281 0.51875 2.37762
0.776849 0.421901 2.17115
0.620754 0.808069 -2.26807
0.826957 0.7325 -2.26484
0.837155 0.794529 -2.04583
0.58241 0.971939 2.31194
0.784609 0.90125 2.32504
0.814774 0.993179 2.11583
-0.862766 0.315984 -0.999513
-0.805684 0.375566 -0.60318
-0.835047 0.43551 -0.791387
-0.625619 0.31403 -0.801355
-0.835438 0.355812 0.982153
-0.805678 0.383072 0.58582
-0.837907 0.451182 0.784947
-0.626498 0.323441 0.783983
-0.869815 0.88747 -0.910833
-0.884445 0.835736 -0.731627
-0.866186 0.903934 -0.5325
-0.737406 1.13828 -0.721667
-0.848848 0.966969 0.980834
-0.872961 0.892918 0.790707
-0.854229 0.952257 0.6025
-0.707667 1.21781 0.791667
0.862766 0.315984 -0.999584
0.62562 0.314039 -0.801405
0.805691 0.375559 -0.603243
0.835049 0.435505 -0.791445
0.835325 0.355925 0.982124
0.6265 0.323438 0.783958
0.805679 0.383071 0.585783
0.837897 0.451191 0.784918
0.869814 0.88747 -0.910833
0.736999 1.13746 -0.721667
0.884464 0.835747 -0.731635
0.866207 0.903957 -0.5325
0.848849 0.966973 0.980834
[...]
POINT_DATA 3682
SCALARS point_scalars float 1
LOOKUP_TABLE default
-43.9266
-40.5032
-102.069
-38.7066
-44.0686
-40.1638
-102.248
-39.4607
-36.6119
-25.7955
-45.3363
-42.3736
-36.5199
-26.0986
-45.3061
-42.3743
-40.0582
-97.5624
-59.6626
-32.2799
-42.2799
-36.6942
-34.0377
48.2773
-117.055
-38.8061
-33.9889
-43.6506
-36.2084
-34.0377
48.2773
-118.815
-41.3779
-39.2427
-43.6051
-37.3611
-34.3409
-39.3074
-65.5743
-62.1054
-47.5348
-41.5903
-38.5164
-38.5164
91.2034
-101.523
-39.5913
-30.5742
-38.8688
-33.2365
-33.2365
185.03
-33.2365
-33.2365
178.766
-33.2365
-33.2365
69.5398
-56.7236
-71.6974
-57.5536
-37.5893
-33.711
-33.0302
144.298
-95.25
-39.5949
-30.5736
-38.7512
-35.0835
-32.5649
141.339
-32.9739
-32.6015
139.853
-33.2263
-32.6447
56.2795
-55.9917
-71.7076
-58.8206
-37.7172
-33.9036
-33.1428
-40.3866
-97.4049
-59.6448
-32.32
-42.1254
-38.1617
-36.3312
48.2379
-116.844
-38.7868
-34.0084
-43.5395
-36.3312
-36.3312
48.2379
-120.45
-41.3603
-39.2595
-43.6853
-37.4587
-36.3312
-39.6702
-65.6093
-63.1319
-48.0564
-41.775
-39.2819
-39.2819
-62.5723
-90.1073
-38.5004
-35.3619
-27.1305
-39.9292
-22.1093
-32.0595
-33.9652
-43.5649
-62.6459
-38.5721
-35.3196
-39.9077
-32.052
-43.5812
-32.0871
-38.5468
-37.3941
-36.3032
-32.6739
-43.5729
17.6809
-65.9499
-32.0363
-38.5337
-36.3194
-43.5298
-34.6605
-34.669
-50.9117
-17.8222
188.706
-36.0315
-36.0283
-32.3573
-78.272
-38.3203
-38.3259
-36.7071
-42.0204
-24.1961
-50.0751
-76.4915
-54.3487
-36.669
-31.9693
-38.1446
-75.0074
-10.5863
-46.8579
-36.038
-33.2291
-39.8738
-70.9629
-50.1899
-54.4072
-32.0369
-36.8562
-38.1347
-10.7014
-75.1108
-46.8844
-33.3204
-36.0898
-39.8644
-26.3418
-32.5307
-37.6501
-37.2035
-38.2617
-31.5967
-31.9377
-32.4918
-33.1597
-40.5563
-45.2953
6.9906
-43.8064
-39.1082
-42.1239
-60.2043
-26.3231
-37.1915
-32.5141
-37.6362
-38.2543
-32.5283
-31.5104
-31.9682
-33.1463
7.15282
-40.5387
-45.2938
-43.8186
-60.2166
-39.1265
-42.1893
-52.8587
181.446
-80.0384
187.886
-35.5899
-48.4428
-38.4827
-30.2757
-37.5282
-21.7225
-38.7884
-37.1289
-44.5839
137.058
-33.7596
-20.7463
-38.0832
-27.6271
-39.8284
-43.0261
-52.8763
181.28
-35.6003
-48.4362
-38.4875
-30.7672
-38.7729
-37.1342
-33.7688
-20.7518
-39.838
-43.0319
-33.7279
-32.1109
-32.4147
-36.8701
-41.1717
-33.5571
-35.4373
-39.1269
-32.5054
-34.2371
-39.2854
-68.5073
5.43525
-63.805
-74.2664
-52.5216
-33.7276
-32.1135
-32.434
-36.8639
-35.4512
-39.1442
-39.273
-68.4965
-53.3379
-28.4251
-34.8872
-50.1158
-53.3823
-50.1648
-34.8897
-28.4693
-77.1587
-77.1575
-40.0761
-40.0761
-43.9502
0.180179
0.176356
-43.9463
181.322
138.569
138.231
181.148
-34.4032
-33.1592
-38.4599
-40.3739
-34.3994
-40.3675
-38.4834
-33.1706
-33.2013
-33.1859
-32.0637
-32.0573
-74.9431
-60.6295
-60.6209
-74.9463
-38.867
-37.8877
-38.7673
-40.4305
-38.8587
-40.5088
-38.7871
-37.8648
-34.3612
-34.3648
-39.5247
-39.4946
-54.4349
-38.0491
-38.0679
-54.3587
-29.7648
-30.2385
-31.4979
-31.1906
-39.2435
-22.3439
-81.1059
-38.7959
-34.8984
-41.3106
-79.991
-13.6489
-68.2873
-37.8297
-33.8504
-39.869
-22.286
-39.4209
-81.43
-34.8459
-38.6692
-41.3179
-13.768
-80.1887
-68.2866
-34.0775
-37.9266
-39.8711
-55.3564
-33.3907
-37.1815
-37.0988
-36.604
-30.8939
-28.8209
-32.3878
-39.9506
-42.5987
-45.8098
-58.0869
-43.036
-40.6275
-42.0531
-49.5387
-55.3161
-37.0861
-33.3479
-37.1683
-36.6216
-32.3988
-30.9526
-28.8461
-39.9427
-57.7851
-42.5791
-45.8023
-43.0374
-49.5217
-40.6318
-42.1083
-50.2985
-72.1132
-83.6835
154.024
-81.8195
-81.5761
-106.544
118.975
-48.0229
-33.9937
-36.1434
-44.8985
-35.1993
-35.4292
-40.5649
-32.5815
-28.6283
-28.5515
-33.7218
-21.6606
-41.465
-35.6933
-39.2365
-38.2948
-20.5321
-20.5104
-67.462
51.1842
-38.4986
-30.4407
-33.718
-24.2746
-33.5384
-33.5485
-35.3849
-31.5878
-40.5425
-44.2306
-40.9647
-44.7087
-50.3548
-71.6128
-83.6403
154.255
-47.9897
-34.0466
-36.1466
-44.8907
-35.1192
-35.4724
-40.5531
-32.7451
-41.493
-35.6956
-39.2114
-38.4907
-38.522
-30.4389
-33.7271
-24.2675
-40.5312
-44.2447
-40.9738
-44.7145
-32.3276
-31.8045
-32.8185
-31.7376
-38.163
-39.3413
-40.7466
-37.4359
-37.347
-37.3445
-39.0913
-35.4716
-34.3394
-37.7681
-35.4433
-38.3382
-32.6058
-32.6121
-33.0863
-33.2982
-44.4071
-42.6935
-41.5225
-54.4639
16.0201
15.995
15.9762
-15.119
-65.1681
-63.6915
-69.8092
-59.9438
-32.3364
-31.7085
-32.822
-31.7361
-38.1467
-39.3263
-40.7139
-37.4248
-34.3609
-37.7994
-35.4608
-38.3174
-44.3995
-42.7084
-41.4852
-54.4551
-41.4188
-34.9134
-34.2667
-31.1952
-41.4137
-34.9229
-34.2725
-31.1868
-60.8024
-50.2724
-50.2684
-45.2886
-30.9773
-18.5524
-18.555
-6.43815
187.67
200.932
178.948
187.619
-34.8064
-36.4339
-35.61
-37.5399
-34.8033
-36.4287
-35.6158
-37.5337
-32.2781
-32.7336
-32.2972
-32.2864
-75.6231
-76.4736
-77.5338
-75.6891
-38.5613
-38.4921
-38.6051
-38.501
-38.5709
-38.4882
-38.6139
-38.489
-37.4699
-36.8107
-36.8154
-35.3659
-40.8689
-42.2779
-42.2791
-45.3455
-26.2818
-23.3211
-25.7856
-26.5388
-85.0253
173.801
-100.086
118.841
-51.831
-72.1012
-41.0251
-32.7783
-36.6811
-30.2107
-37.6996
-40.7363
-76.8499
132.878
-65.4148
60.7748
-48.3985
-44.1813
-40.3672
-32.5267
-35.2628
-32.4911
-38.8952
-39.019
-100.054
119.849
-85.0261
173.77
-51.8691
-72.095
-36.6664
-30.533
-40.9549
-32.9604
-37.6735
-40.7684
-65.3971
61.6673
-76.8743
132.852
-48.4577
-44.1922
-35.3014
-32.6389
-40.4095
-32.7457
-38.9218
-39.0527
-25.741
-38.2287
-33.3572
-32.7562
-46.6961
-35.1083
-38.939
-34.8829
-39.3481
-34.8029
-32.2968
-31.4977
-32.8123
-37.9203
-32.4645
-33.2959
-35.1492
-9.25034
-39.482
-40.6887
-42.828
-61.4596
9.95137
-35.955
-41.8083
-57.7325
-38.4794
-39.8845
-40.2951
-50.4454
-59.8275
-59.296
-25.7674
-38.2295
-38.9438
-34.8712
-33.3587
-32.7485
-46.6223
-35.1024
-39.3382
-34.8081
-32.4561
-33.2949
-32.3098
-31.5012
-32.8266
-37.9106
-35.1464
-9.26503
9.94145
-35.7984
-39.4683
-40.6804
-42.8227
-61.5318
-41.8511
-57.5595
-59.819
-59.3021
-38.5048
-39.8009
-40.3369
-50.4387
-53.3108
-52.0551
191.435
175.961
-78.7762
-78.7704
194.056
194.037
-43.5797
-31.8398
-58.0348
-43.4143
-38.2775
-38.6418
-30.157
-30.9244
-38.0423
-38.0179
-24.8567
-25.1119
-37.4117
-39.2159
-35.6011
-38.2736
-43.6414
-43.6461
142.08
144.235
-30.1777
-39.8695
-31.8907
-10.9447
-38.0513
-38.0562
-28.7465
-28.6593
-39.119
-40.6155
-46.899
-40.9007
-53.3343
-52.0751
175.801
190.722
-43.5768
-31.8412
-58.0206
-43.4126
-38.6544
-38.273
-30.6273
-31.2833
-37.4051
-39.256
-35.6106
-38.2665
-39.8278
-30.1635
-10.9376
-31.9027
-40.5594
-39.132
-40.9112
-46.8996
-34.0571
-33.4066
-32.4648
-31.8909
-29.9857
-34.4902
-35.5532
-38.5005
-40.8756
-40.8752
-33.447
-33.4414
-34.234
-36.8778
-38.918
-39.4335
-32.3944
-32.393
-34.2563
-34.2582
-38.72
-39.7791
-74.556
-63.5422
4.26406
4.26163
-63.9027
-63.8896
-71.8455
-71.8328
-53.0324
-53.0256
-34.0543
-33.4117
-32.4587
-31.8854
-34.5201
-30.0222
-35.5478
-38.494
-36.8951
-34.2476
-38.9145
-39.5088
-39.7721
-38.7253
-63.5501
-74.5548
-86.7844
-44.9422
-42.3296
-87.0508
-56.7803
-43.9436
-31.6942
-31.6269
-40.1653
-31.1401
-30.6836
-39.7869
-72.6382
-80.4245
-40.3228
-39.6055
-86.7337
-87.0189
-42.3281
-44.9245
-72.6806
-39.5936
-40.3204
-80.4145
-40.1524
-39.7672
-30.6713
-31.137
-56.6764
-31.7064
-31.6896
-43.8998
-93.4495
-105.352
-59.9626
-54.7037
-93.4512
-54.6653
-59.9574
-105.36
-40.674
-39.0007
-44.7953
-40.7046
-40.6774
-40.7088
-44.7962
-38.9994
-66.5532
-33.5126
-31.1456
-66.008
-14.3319
14.9357
-7.47742
-17.2536
-14.3133
-17.2444
-7.47602
14.9231
-66.5231
-65.6999
-31.149
-33.5162
110.498
177.379
199.733
119.479
72.4636
60.0234
180.364
154.189
72.497
154.217
180.314
60.5554
109.025
119.379
199.765
177.495
-34.0283
-33.0921
-35.1585
-36.2549
-31.7272
-34.0825
-34.4228
-32.5187
-40.2275
-40.7732
-37.0401
-36.9367
-43.1479
-38.8953
-37.9876
-42.1998
-34.0273
-36.2465
-35.1546
-33.0945
-43.1387
-42.1923
-37.9812
-38.8844
-40.2675
-36.9573
-37.0453
-40.7509
-31.7429
-32.5258
-34.4283
-34.0996
-34.1706
-35.3274
-32.65
-32.1928
-34.1597
-32.19
-32.6469
-35.3228
-31.5675
-33.0164
-32.1913
-31.5272
-31.5613
-31.5291
-32.1917
-33.0129
-66.4763
-57.4757
-76.8249
-16.6006
-49.673
-68.1055
-74.9428
-52.0307
-49.662
-52.0245
-74.9378
-68.0989
-66.5148
-16.5551
-76.8214
-57.4701
-38.1298
-36.9064
-37.7846
-38.1868
-41.12
-40.6167
-38.6379
-40.6788
-40.0022
-39.4127
-38.8025
-40.5915
-41.2452
-39.013
-39.5776
-42.0446
-38.1331
-38.1709
-37.774
-36.9006
-41.2293
-42.0447
-39.537
-38.9694
-40.0705
-40.6069
-38.8144
-39.4083
-41.0416
-40.7615
-38.6518
-40.5792
-33.203
-33.2897
-35.4176
-35.8589
-33.2151
-35.8862
-35.4206
-33.2923
-39.0578
-34.687
-37.7499
-38.5042
-39.0404
-38.6738
-37.7494
-34.7068
-50.1023
-51.6837
-45.739
-60.1089
-36.5606
-35.25
-40.9083
-41.5212
-36.6369
-41.535
-40.912
-35.2573
-50.0811
-60.1178
-45.7376
-51.6835
-32.7549
-24.8999
-25.6144
-32.7753
-33.4442
-32.9343
-25.8818
-24.9945
-33.0864
-31.7659
-27.6835
-32.7816
-32.882
-32.5862
-27.4905
-31.792
-40.7698
-19.0548
-93.363
-40.3621
-37.1971
-40.2137
-86.654
-30.8492
-102.192
-38.4434
-35.1652
-41.746
-18.9461
-40.9402
-93.4391
-37.048
-40.0717
-40.0695
-30.9446
-87.025
-102.167
-35.3301
-38.796
-41.9145
-48.1418
-34.1892
-36.7249
-36.8008
-30.4835
-29.9511
-26.1262
-30.8934
-44.1391
-43.8279
-45.6218
-59.1225
-42.5647
-41.3233
-42.0444
-45.8923
-48.1218
-36.787
-34.1614
-36.7078
-30.515
-30.8912
-29.9344
-26.1233
-44.1148
-59.0037
-43.8034
-45.5972
-42.564
-45.8979
-41.3249
-42.0685
-57.4626
-62.8522
-124.65
101.89
-83.8985
-83.7294
-97.3591
47.3383
-43.1405
-35.9686
-36.6934
-41.5901
-35.3427
-35.4376
-46.7274
-33.1807
-27.5004
-27.4348
-30.1087
-23.8098
-41.2542
-37.1652
-39.629
-39.4586
-20.7058
-21.15
-65.9123
-5.32068
-35.6306
-31.0612
-33.0554
-29.2535
-33.8489
-33.8535
-33.8387
-33.3288
-41.5231
-43.4157
-41.7728
-46.9925
-57.3771
-62.8207
-124.503
102.015
-42.9672
-36.0028
-36.6584
-41.5649
-35.2724
-35.4228
-46.6961
-33.2002
-41.2061
-37.1526
-39.6025
-39.4458
-35.6373
-31.0646
-33.0577
-29.2429
-41.5495
-43.4281
-41.7833
-47.0734
-32.3092
-31.9513
-32.4184
-31.6634
-38.3439
-38.953
-39.4917
-37.8944
-37.3813
-37.3801
-38.3409
-36.7999
-35.5118
-37.0962
-35.719
-37.8996
-32.6512
-32.6537
-32.8424
-32.9431
-43.9189
-43.1427
-42.5447
-49.202
17.3597
17.3423
20.9679
4.97496
-65.7441
-65.7665
-67.9271
-63.4653
-32.3388
-31.9453
-32.4289
-31.6622
-38.3281
-38.9379
-39.4698
-37.8805
-35.5216
-37.125
-35.7364
-37.945
-43.9045
-43.1246
-42.5036
-49.1908
-37.6985
-34.8092
-34.4945
-32.5302
-37.7037
-34.8196
-34.5007
-32.529
-54.8673
-50.7362
-50.734
-47.9862
-23.8194
-18.001
-18.0035
-12.3841
188.404
186.082
187.55
188.391
-35.411
-36.2565
-35.7824
-36.734
-35.4076
-36.2519
-35.7835
-36.7298
-32.325
-32.501
-32.287
-32.3244
-77.6398
-79.8794
-78.3821
-77.6448
-38.8383
-38.4119
-38.4307
-38.3299
-38.8447
-38.4143
-38.4376
-38.3335
-37.5874
-36.7289
-36.7328
-36.0074
-41.8043
-42.0937
-42.0938
-43.344
-25.024
-23.7855
-25.2758
-25.1455
-46.071
-49.4174
-108.518
117.592
-47.2365
-69.4899
-94.8888
65.6119
-72.6667
-47.5155
-52.7239
-64.9051
-38.1186
-35.2012
-43.3064
-34.0366
-33.1287
-30.1858
-34.1683
-30.9651
-40.0749
-39.0109
-37.729
-40.5646
-73.5203
-72.8992
-117.416
78.5981
-10.5718
-14.691
-71.3684
13.1335
-55.8281
-42.562
-47.5886
-47.1273
-37.0713
-35.6963
-46.4799
-33.1386
-33.3699
-33.2356
-33.8719
-33.0067
-39.6266
-39.8436
-38.9901
-40.2591
-47.0728
-69.2232
-94.6448
54.0052
-46.2341
-49.4998
-108.556
117.448
-72.636
-47.5316
-52.771
-64.9344
-33.3663
-30.153
-34.1791
-31.1628
-38.1046
-35.1696
-43.1343
-33.8469
-40.0305
-39.0181
-37.71
-40.5851
-10.6011
-14.8468
-71.3396
12.975
-73.6733
-72.9559
-117.338
78.5528
-55.8725
-42.5775
-47.6275
-47.1612
-33.4988
-33.2738
-33.9498
-33.1111
-37.1715
-35.7197
-46.5345
-33.2692
-39.6684
-39.8768
-39.0163
-40.3054
-26.7125
-31.4671
-25.0174
-34.7199
-32.8551
-32.4691
-32.9062
-32.1446
-37.4129
-37.8727
-41.0378
-35.9593
-37.2406
-37.2212
-38.4955
-36.1283
-36.4291
-37.5299
-39.2733
-35.6465
-31.3186
-31.8046
-31.9535
-31.139
-30.5644
-33.1539
-32.4656
-35.8643
-32.3859
-32.5574
-32.3889
-32.8801
-36.5184
-30.9368
-34.5071
-20.0149
-41.5438
-39.9267
-40.0836
-40.7203
-45.5482
-44.8236
-44.0702
-52.5394
-8.39969
12.9861
13.1498
-10.3038
-43.2649
-43.7821
-42.6243
-49.4659
-39.9877
-38.351
-38.7141
-39.4567
-41.9637
-42.2702
-41.0889
-46.5025
-53.6251
-64.039
-60.4297
-61.6123
-26.6633
-31.3771
-24.9736
-34.7482
-37.228
-37.2142
-38.5047
-36.1231
-32.8173
-32.5049
-32.916
-32.1399
-37.4005
-37.8569
-41.0058
-35.951
-36.4153
-37.5283
-39.2644
-35.6472
-32.4054
-32.5735
-32.3846
-32.9159
-31.2938
-31.7521
-31.9692
-31.1444
-30.5894
-33.186
-32.4858
-35.8687
-36.5058
-30.9308
-34.5018
-20.1039
-10.0833
13.0163
13.2669
-10.1836
-41.5258
-39.9095
-40.0663
-40.7076
-45.5514
-44.8183
-44.0664
-52.5501
-43.2735
-43.7929
-42.6341
-49.4801
-53.607
-64.0252
-60.4341
-61.6064
-39.9972
-38.3773
-38.7342
-39.4564
-42.0223
-42.3408
-41.1588
-46.5051
-63.9492
-46.5538
-53.2123
-52.4267
170.252
185.924
180.302
181.236
-94.8998
-68.7529
-79.3229
-79.3162
158.74
198.725
190.758
190.752
-35.8851
-35.3921
-39.4093
-33.2922
-46.971
-49.5213
-52.1477
-45.7416
-39.1696
-38.3635
-38.4154
-38.542
-31.8308
-28.3748
-30.173
-30.6813
-36.4065
-37.1702
-37.6768
-37.6688
-20.68
-24.5325
-22.6716
-22.7545
-38.9361
-38.697
-37.9713
-39.985
-37.4272
-36.9429
-36.3312
-38.1966
-52.6522
-36.9733
-43.8109
-43.8209
98.664
163.283
139.026
137.625
-33.7305
-33.9786
-32.0545
-35.9887
-22.3117
-19.4722
-26.1852
-16.0011
-36.6518
-39.4482
-38.0873
-38.0887
-29.9534
-26.1131
-28.1563
-28.2073
-40.4566
-39.1447
-39.7451
-40.0748
-43.6249
-42.5971
-44.3964
-42.2325
-63.9548
-46.5599
-53.2312
-52.4453
170.319
185.605
181.1
180.197
-35.8972
-35.4036
-39.4151
-33.3082
-46.9681
-49.5155
-52.1323
-45.7359
-39.1657
-38.3723
-38.5503
-38.4162
-32.1639
-28.7435
-30.6745
-31.0847
-38.9165
-38.687
-37.9623
-39.9751
-37.4483
-36.9466
-36.3418
-38.1513
-33.7395
-33.9858
-35.9968
-32.0581
-22.3163
-19.4753
-16.0104
-26.1832
-40.4652
-39.1546
-40.0887
-39.7559
-43.6277
-42.5993
-42.2388
-44.4024
-33.3088
-34.1797
-33.878
-33.5628
-31.9582
-32.1864
-32.2124
-32.0207
-39.6065
-30.4866
-31.3711
-33.4908
-37.1198
-36.6435
-36.2082
-37.642
-39.6373
-43.0542
-41.0807
-41.0807
-34.1816
-33.0861
-33.5225
-33.5199
-35.3843
-35.528
-34.828
-36.0998
-38.4792
-38.9468
-38.9415
-39.2933
-32.6977
-32.3976
-32.4748
-32.4742
-33.7243
-34.7886
-34.2394
-34.2404
-40.3815
-38.332
-38.9714
-39.6268
-61.0348
-72.5278
-71.811
-66.4001
10.557
0.00549712
5.119
5.11742
-44.7052
-74.1857
-63.673
-64.2436
-72.4992
-75.9292
-73.6046
-73.5977
-56.6391
-48.4112
-52.6495
-52.6458
-33.3098
-34.1779
-33.8771
-33.5643
-31.9587
-32.1871
-32.205
-32.0223
-39.6429
-30.4553
-33.5112
-31.3901
-37.1122
-36.638
-36.2023
-37.6357
-35.4008
-35.5386
-36.115
-34.8416
-38.4518
-38.9363
-38.9422
-39.3382
-40.3642
-38.3236
-39.6161
-38.9656
-61.0283
-72.5215
-66.4238
-71.796
-66.1839
-52.1986
-53.2996
-47.4735
-27.2082
-39.4107
-30.2731
-28.8408
-35.0153
-37.819
-31.3588
-34.6329
-60.2622
-49.2215
-51.0548
-44.2917
-66.1864
-52.245
-53.3324
-47.5053
-60.2973
-49.2933
-51.0811
-44.2817
-35.0135
-37.8131
-31.3441
-34.6422
-27.2532
-39.4056
-30.2679
-28.8713
-92.5018
-75.4504
-77.7728
-65.8754
-92.5083
-75.4348
-77.7704
-65.8639
-39.4595
-38.9316
-41.5392
-40.5428
-39.4621
-38.9221
-41.5386
-40.5423
-52.7484
-43.9748
-43.6302
-37.6386
-3.64384
4.90606
-4.9433
2.71752
-3.65007
4.90729
-4.93491
2.71549
-52.7372
-43.9782
-43.629
-37.644
172.568
159.857
195.755
189.233
139.591
103.844
162.885
145.768
104.121
139.507
141.669
162.687
160.632
172.527
195.018
196.912
-33.9152
-34.6571
-34.2314
-34.905
-32.7488
-33.0203
-33.2722
-33.6268
-38.4131
-39.3814
-37.6153
-38.5891
-40.6366
-41.5565
-39.4163
-40.1531
-33.913
-34.6529
-34.229
-34.9005
-40.6294
-41.5509
-39.4096
-40.1467
-38.435
-39.412
-37.6353
-38.6072
-32.7599
-33.0326
-33.2795
-33.6394
-32.9861
-33.8093
-32.7972
-33.3406
-33.7975
-32.9751
-33.3304
-32.7779
-32.2625
-31.7786
-32.2609
-31.8769
-31.7734
-32.2539
-31.892
-32.2557
-78.5259
-58.5151
-72.1015
-65.203
-54.6339
-59.8984
-62.0269
-68.1415
-59.8776
-54.6285
-68.1263
-62.0287
-58.7508
-78.5823
-65.2187
-72.1812
-38.8555
-38.0735
-38.0187
-38.7798
-38.958
-37.7976
-38.1032
-37.857
-39.2228
-38.8582
-38.7154
-38.7765
-41.1331
-40.1589
-40.5611
-39.8446
-38.8466
-38.072
-38.0151
-38.7724
-41.2201
-40.0922
-40.5695
-39.9496
-39.2529
-38.8819
-38.7319
-38.7923
-38.9162
-37.7704
-38.0906
-37.8696
-34.5263
-33.7973
-34.9685
-34.2865
-34.5316
-33.799
-34.9747
-34.2891
-38.8439
-40.2717
-38.6184
-38.6634
-38.7763
-40.2455
-38.5887
-38.629
-57.0949
-58.5786
-50.1758
-53.6542
-36.6081
-38.3107
-38.0116
-39.3845
-36.6366
-38.338
-38.0224
-39.3991
-57.1008
-58.5852
-50.14
-53.6479
-31.3434
-29.6492
-30.3031
-27.5192
-30.1464
-32.359
-27.9336
-30.6906
-32.0428
-32.4173
-30.2821
-31.2701
-32.1253
-31.8251
-30.9302
-30.0779
-100.444
90.4109
-85.8899
63.8909
-83.0159
-83.6872
-42.7046
-34.2822
-36.8666
-34.3672
-41.0802
-40.4673
-112.21
50.4583
-64.1605
28.4458
-70.726
-68.1055
-43.7904
-33.8155
-35.8169
-33.2992
-40.0256
-38.8254
-86.4082
63.6406
-100.433
90.1874
-82.9851
-83.6634
-36.8999
-34.7249
-42.5009
-34.9224
-40.9221
-40.4302
-64.1501
29.5224
-112.141
50.4331
-70.7648
-68.1315
-35.95
-33.4843
-43.9063
-33.9948
-40.0796
-38.9076
-56.4725
-47.6262
-33.5657
-33.2833
-44.8344
-34.8913
-39.4306
-35.3514
-37.5896
-34.3997
-31.325
-30.6675
-30.8865
-33.3975
-31.6363
-32.9635
-40.3504
-35.1059
-41.705
-43.0926
-44.4382
-54.4274
-25.0381
-70.032
-41.9764
-46.0245
-40.3853
-40.9975
-40.9763
-45.9277
-49.5231
-49.6471
-56.4368
-47.6013
-39.4177
-35.3393
-33.5783
-33.2718
-44.8151
-34.8877
-37.6003
-34.4263
-31.6455
-32.9788
-31.3507
-30.6759
-30.9061
-33.4209
-40.3398
-35.0824
-25.2547
-70.0027
-41.6865
-43.0764
-44.4306
-54.4518
-41.9691
-46.0419
-49.5099
-49.6291
-40.4079
-40.9938
-41.0475
-45.9278
-115.297
126.213
-123.372
98.0012
-86.1995
-82.4259
151.157
156.311
-95.7013
52.952
-95.7523
52.903
-108.079
-108.103
104.205
104.228
-46.4341
-52.8927
-31.9144
-38.3414
-40.7135
-34.0972
-48.7041
-42.5673
-44.2056
-33.2806
-47.1015
-33.1532
-40.8138
-40.6102
-32.6554
-32.5925
-31.3261
-26.3166
-31.2949
-26.298
-33.9137
-33.9273
-22.6321
-22.6209
-41.1334
-38.8655
-36.3812
-35.8472
-38.406
-40.2456
-36.8267
-38.894
-66.2707
-1.04432
-66.2584
-1.04919
-65.6405
-65.7945
55.7341
55.4471
-39.3871
-35.6883
-30.827
-24.491
-32.0841
-35.886
-28.8334
-20.6981
-33.6695
-33.1398
-33.6904
-33.1084
-35.3255
-35.3271
-31.366
-31.5061
-39.7567
-42.0316
-42.7315
-51.4407
-40.1486
-41.4981
-47.5741
-42.9509
-115.222
126.213
-123.268
98.0097
-86.1589
-82.3924
156.385
151.522
-46.4172
-52.867
-32.0599
-38.314
-40.7208
-34.1267
-48.6556
-42.57
-44.1391
-33.2886
-47.1082
-33.2392
-40.6134
-40.7886
-32.8168
-32.7677
-41.2287
-38.8229
-36.3785
-35.8734
-38.3887
-40.091
-36.8678
-38.6418
-39.3868
-35.6937
-30.824
-24.477
-35.8821
-32.0877
-20.6966
-28.8404
-39.7709
-42.0586
-42.7349
-51.4363
-41.506
-40.1597
-42.9602
-47.5687
-32.675
-31.988
-32.1626
-31.3164
-32.9666
-32.6633
-31.8839
-31.5997
-39.9044
-36.9691
-39.5436
-39.125
-42.1789
-40.2108
-36.8405
-38.114
-38.3029
-36.7101
-38.3026
-36.707
-39.0655
-39.0652
-35.4091
-35.407
-34.1448
-36.9924
-37.2189
-38.4667
-34.7893
-36.2029
-38.3794
-38.6859
-32.7811
-32.9026
-32.7863
-32.9076
-33.1087
-33.1067
-33.2963
-33.2977
-43.3156
-50.7112
-41.6597
-47.5987
-41.1706
-41.859
-55.8762
-53.1278
19.7789
2.79204
19.8134
2.82998
15.7782
15.765
-15.5114
-15.4997
-66.6546
-63.229
-66.7476
-63.3902
-69.4176
-69.4061
-59.9696
-59.9783
-32.7021
-31.9884
-32.1872
-31.3161
-33.0193
-32.6682
-31.8814
-31.5968
-39.8767
-36.9577
-39.5247
-39.1124
-40.1839
-42.1397
-36.8308
-38.1029
-34.1645
-36.9967
-37.2396
-38.5885
-36.2212
-34.8065
-38.3755
-38.6572
-43.308
-50.7063
-41.6559
-47.6039
-41.8435
-41.1306
-53.1185
-55.8733
-41.8647
-40.8232
-38.8316
-32.834
-32.3506
-36.6663
-31.4168
-30.9892
-41.8614
-40.8182
-38.8361
-32.8386
-36.6749
-32.3476
-30.9794
-31.409
-60.5022
-60.499
-54.0989
-47.4042
-54.0932
-47.4022
-45.1396
-45.1403
-30.9068
-30.9088
-24.3694
-13.2613
-13.2655
-24.3705
-6.69942
-6.70003