# vtk DataFile Version 2.0
tet_velo
ASCII
DATASET UNSTRUCTURED_GRID
POINTS 29498 float
-0.765 0.115 -1.83026
-0.825 0.095 1.92657
-0.785 0.985 -1.65
-0.655 1.645 1.80143
0.765 0.115 -1.83026
0.825 0.075 1.92647
0.785 0.985 -1.65
0.655 1.645 1.80143
-0.799826 0.0935076 -0.577983
-0.823514 0.0831528 0.674293
-0.762638 1.22597 -0.499523
-0.723491 1.45016 0.650953
0.823084 0.0635829 -0.578017
0.830007 0.0633264 0.674227
0.762641 1.22597 -0.499523
0.723487 1.45015 0.650953
-1.5299 -0.54961 -2.82361
-1.53711 -0.466135 -1.86256
-1.55951 -0.490004 -0.607656
-1.57379 -0.550895 0.667739
-1.57259 -0.556845 1.92437
-1.57627 -0.487891 2.89387
-1.58395 -0.388704 3.84772
-1.53674 -0.0194431 -2.77007
-1.54214 0.0932528 -1.82014
-1.56302 0.116786 -0.585042
-1.56643 0.122206 0.659226
-1.55316 0.155528 1.89628
-1.56756 0.227687 2.86434
-1.58256 0.32024 3.82151
-1.54824 0.96678 -2.63443
-1.55021 1.06795 -1.6803
-1.53421 1.2661 -0.514591
-1.489 1.46663 0.643905
-1.43881 1.63202 1.81156
-1.50784 1.69806 2.78385
-1.56128 1.76009 3.75744
-1.55917 2.64051 -2.50748
-1.55753 2.78006 -1.56859
-1.54372 3.05202 -0.435895
-1.51902 3.36346 0.674869
-1.50648 3.61123 1.80864
-1.52537 3.73623 2.74976
-1.55811 3.81822 3.71224
-0.75508 -0.53682 -2.83018
-0.756425 -0.448613 -1.87215
-0.777201 -0.502526 -0.606383
-0.799016 -0.586397 0.680588
-0.805604 -0.606877 1.94684
-0.816836 -0.523268 2.90911
-0.826387 -0.411583 3.85653
-0.762566 -0.0170968 -2.7721
-0.827055 0.199151 2.87691
-0.833838 0.302378 3.82816
-0.774195 0.93187 -2.62184
-0.780497 1.69873 2.78181
-0.824272 1.75713 3.757
-0.790204 2.6072 -2.49504
-0.79166 2.74415 -1.55489
-0.785434 3.03071 -0.427636
-0.772341 3.36393 0.67387
-0.768503 3.62354 1.80155
-0.787868 3.74767 2.74268
-0.816994 3.8252 3.70709
0.792239 -0.54192 -2.83019
0.795648 -0.455961 -1.87216
0.826872 -0.525343 -0.606415
0.829043 -0.605741 0.680529
0.815197 -0.624932 1.94677
0.75039 -0.537881 2.90905
0.71108 -0.424019 3.85649
0.781963 -0.0199575 -2.7721
0.718169 0.185737 2.87685
0.688011 0.290858 3.82811
0.777926 0.930066 -2.62185
0.658563 1.6919 2.78179
0.658332 1.74824 3.75697
0.751243 2.60315 -2.49505
0.744949 2.74037 -1.5549
0.732944 3.02646 -0.427644
0.713975 3.35922 0.673859
0.691389 3.61831 1.80153
0.675831 3.74133 2.74266
0.662037 3.81768 3.70706
1.56861 -0.561783 -2.82363
1.57325 -0.483125 -1.86259
1.60554 -0.524641 -0.60771
1.61129 -0.584507 0.667646
1.5887 -0.58769 1.92425
1.53044 -0.515067 2.89376
1.48589 -0.413012 3.84763
1.55661 -0.0279848 -2.77008
1.55132 0.0831063 -1.82016
1.58848 0.0837787 -0.585087
1.58952 0.0915409 0.65914
1.5623 0.127333 1.89616
1.49773 0.202893 2.86424
1.46002 0.297575 3.82143
1.54824 0.960971 -2.63443
1.54459 1.06394 -1.6803
1.53521 1.25426 -0.514607
1.49706 1.45343 0.643873
1.43751 1.61968 1.81152
1.42178 1.68214 2.78379
1.41751 1.74185 3.75738
1.52171 2.63153 -2.5075
1.51384 2.77133 -1.56861
1.49628 3.04212 -0.435914
1.46741 3.35254 0.674844
1.43613 3.59937 1.80861
1.42003 3.72264 2.74972
1.41003 3.80271 3.71219
-0.810079 0.55 -1.77521
0 0.124207 -1.82105
-0.783197 0.10347 -1.20412
-0.771867 0.87 1.89587
0 0.0815704 1.92995
-0.840681 0.0726524 1.30043
0 1.0486 -1.7136
-0.732934 1.0646 -1.07476
0 1.69341 1.84984
-0.696988 1.55532 1.22619
0.810065 0.55 -1.77519
0.782014 0.101319 -1.20414
0.772173 0.86 1.89612
0.816843 0.0798234 1.30035
0.732932 1.0646 -1.07476
0.696986 1.55532 1.22619
-0.816756 0.0832438 0.048155
-0.877402 0.659739 -0.538753
0.011629 0.083033 -0.578
-0.87619 0.766655 0.662623
0.00324654 0.0792577 0.67426
-0.747159 1.34216 0.075715
1.69707e-06 1.69567 -0.499523
-1.69773e-06 1.72087 0.650953
0.826545 0.0634546 0.048105
0.877083 0.644779 -0.53877
0.876669 0.75674 0.66259
0.747155 1.34215 0.075715
-0.894394 0.60487 -1.13944
-0.877359 0.713197 0.061935
-0.877088 0.818328 1.26331
0.00581452 0.110566 -1.20413
0.00743779 0.0811461 0.04813
0.00162327 0.0774621 1.30039
0 0.55 -2.03725
0 0.865 1.98256
8.48535e-07 1.16222 -1.07476
-3.29272e-10 1.708 0.075715
-8.48864e-07 1.71924 1.22619
0.894364 0.597389 -1.13945
0.877301 0.700759 0.06191
0.878439 0.80837 1.26327
-1.15357 0.104126 -1.8252
-0.760713 -0.166807 -1.85121
-0.763783 0.0489516 -2.30118
-1.18908 0.125264 1.91142
-0.815302 -0.255939 1.93671
-0.826027 0.147076 2.40174
-1.16761 1.02647 -1.66515
-0.779597 0.958435 -2.13592
-0.78833 1.86458 -1.60244
-1.0469 1.63851 1.8065
-0.717749 1.67187 2.29162
-0.711751 2.63427 1.80149
0.780324 -0.170481 -1.85121
0.773481 0.0475212 -2.30118
1.15816 0.0990532 -1.82521
0.820099 -0.274966 1.93662
0.771584 0.130368 2.40166
1.19365 0.101167 1.91132
0.781463 0.957533 -2.13592
0.764974 1.86269 -1.60245
1.16479 1.02447 -1.66515
0.656782 1.66845 2.29161
0.673195 2.63165 1.80148
1.04625 1.63234 1.80647
-1.18142 0.105147 -0.581513
-0.788513 -0.204509 -0.592183
-1.19497 0.102679 0.66676
-0.811265 -0.251622 0.677441
-1.14842 1.24604 -0.507057
-0.774036 2.12834 -0.463579
-1.10625 1.45839 0.647429
-0.747916 2.40704 0.662412
0.824978 -0.23088 -0.592216
1.20578 0.0736808 -0.581552
0.829525 -0.271207 0.677378
1.20976 0.0774336 0.666683
0.747792 2.12622 -0.463584
1.14892 1.24012 -0.507065
0.718731 2.40469 0.662406
1.11028 1.45179 0.647413
-1.5335 -0.507873 -2.34309
-1.53332 -0.284527 -2.79684
-1.14249 -0.543215 -2.82689
-1.54831 -0.47807 -1.23511
-1.53962 -0.186441 -1.84135
-1.14677 -0.457374 -1.86736
-1.56665 -0.52045 0.0300413
-1.56126 -0.186609 -0.596349
-1.16835 -0.496265 -0.60702
-1.57319 -0.55387 1.29605
-1.57011 -0.214345 0.663482
-1.1864 -0.568646 0.674163
-1.57443 -0.522368 2.40912
-1.56287 -0.200659 1.91032
-1.1891 -0.581861 1.93561
-1.58011 -0.438298 3.37079
-1.57192 -0.130102 2.8791
-1.19655 -0.50558 2.90149
-1.58326 -0.034232 3.83462
-1.20517 -0.400143 3.85213
-1.53944 0.0369048 -2.29511
-1.54249 0.473669 -2.70225
-1.14965 -0.0182699 -2.77108
-1.55258 0.10502 -1.20259
-1.54617 0.580601 -1.75022
-1.56472 0.119496 0.0370919
-1.54862 0.691443 -0.549816
-1.55979 0.138867 1.27775
-1.52771 0.794417 0.651565
-1.56036 0.191608 2.38031
-1.49598 0.893775 1.85392
-1.57506 0.273963 3.34293
-1.5377 0.962876 2.82409
-1.19731 0.213419 2.87063
-1.57192 1.04017 3.78948
-1.2082 0.311309 3.82483
-1.54923 1.01736 -2.15736
-1.55371 1.80364 -2.57095
-1.16122 0.949325 -2.62813
-1.54221 1.16702 -1.09744
-1.55387 1.92401 -1.62445
-1.51161 1.36636 0.0646571
-1.53896 2.15906 -0.475243
-1.4639 1.54932 1.22773
-1.50401 2.41505 0.659387
-1.47332 1.66504 2.29771
-1.47264 2.62163 1.8101
-1.53456 1.72908 3.27065
-1.5166 2.71715 2.7668
-1.14417 1.6984 2.78283
-1.55969 2.78916 3.73484
-1.19278 1.75861 3.75722
-1.55835 2.71029 -2.03804
-1.17469 2.62385 -2.50126
-1.55062 2.91604 -1.00224
-1.17459 2.76211 -1.56174
-1.53137 3.20774 0.119487
-1.16457 3.04136 -0.431765
-1.51275 3.48735 1.24175
-1.14568 3.36369 0.674369
-1.51593 3.67373 2.2792
-1.13749 3.61739 1.80509
-1.54174 3.77723 3.231
-1.15662 3.74195 2.74622
-1.18755 3.82171 3.70966
-0.755753 -0.492717 -2.35116
-0.758823 -0.276958 -2.80114
0.0185793 -0.53937 -2.83018
-0.766813 -0.47557 -1.23927
0.0196113 -0.452287 -1.87216
-0.788108 -0.544462 0.037102
0.0248355 -0.513935 -0.606399
-0.80231 -0.596637 1.31372
0.0150134 -0.596069 0.680558
-0.81122 -0.565073 2.42798
0.00479683 -0.615905 1.9468
-0.821611 -0.467426 3.38282
-0.821946 -0.162058 2.89301
-0.0332232 -0.530575 2.90908
-0.830112 -0.0546025 3.84235
-0.0576531 -0.417801 3.85651
-0.76838 0.457387 -2.69697
0.00969863 -0.0185272 -2.7721
-0.830447 0.250765 3.35253
-0.803776 0.948942 2.82936
-0.054443 0.192444 2.87688
-0.829055 1.02976 3.79258
-0.0729138 0.296618 3.82813
-0.782199 1.76953 -2.55844
0.00186581 0.930968 -2.62184
-0.802385 1.72793 3.26941
-0.784183 2.7232 2.76225
-0.060967 1.69532 2.7818
-0.820633 2.79117 3.73204
-0.0829703 1.75269 3.75698
-0.790932 2.67568 -2.02497
-0.0194802 2.60518 -2.49505
-0.788547 2.88743 -0.991262
-0.0233559 2.74226 -1.55489
-0.778887 3.19732 0.123117
-0.0262448 3.02858 -0.42764
-0.770422 3.49373 1.23771
-0.0291827 3.36157 0.673864
-0.778186 3.6856 2.27211
-0.0385567 3.62092 1.80154
-0.802431 3.78643 3.22488
-0.0560186 3.7445 2.74267
-0.0774783 3.82144 3.70708
0.793943 -0.498941 -2.35117
0.787101 -0.280939 -2.80114
1.18043 -0.551851 -2.82691
0.81126 -0.490652 -1.23929
1.18445 -0.469543 -1.86737
0.827957 -0.565542 0.0370572
1.21621 -0.524992 -0.607062
0.82212 -0.615337 1.31365
1.22017 -0.595124 0.674087
0.782793 -0.581406 2.42791
1.20195 -0.606311 1.93551
0.730735 -0.48095 3.38277
0.734279 -0.176072 2.89295
1.14042 -0.526474 2.9014
0.699546 -0.0665804 3.8423
1.09849 -0.418516 3.85206
0.779945 0.455054 -2.69697
1.16928 -0.0239712 -2.77109
0.70309 0.238297 3.35248
0.688366 0.938819 2.82932
1.10795 0.194315 2.87055
0.673171 1.01955 3.79254
1.07401 0.294216 3.82477
0.764585 1.76661 -2.55845
1.16308 0.945518 -2.62814
0.658447 1.72007 3.26938
0.667197 2.71662 2.76222
1.04017 1.68702 2.78279
0.660184 2.78296 3.73201
1.03792 1.74504 3.75717
0.748096 2.67176 -2.02497
1.13648 2.61734 -2.50127
0.738946 2.88342 -0.99127
1.12939 2.75585 -1.56175
0.72346 3.19284 0.123108
1.11461 3.03429 -0.431779
0.702682 3.48876 1.2377
1.09069 3.35588 0.674351
0.68361 3.67982 2.27209
1.06376 3.60884 1.80507
0.668934 3.7795 3.22486
1.04793 3.73199 2.74619
1.03603 3.81019 3.70963
1.57093 -0.522454 -2.34311
1.56261 -0.294884 -2.79685
1.5894 -0.503883 -1.23515
1.56229 -0.200009 -1.84137
1.60842 -0.554574 0.029968
1.59701 -0.220431 -0.596398
1.59999 -0.586099 1.29595
1.60041 -0.246483 0.663393
1.55957 -0.551378 2.40901
1.5755 -0.230178 1.91021
1.50817 -0.46404 3.3707
1.51409 -0.156087 2.879
1.47295 -0.0577188 3.83453
1.55396 0.0275608 -2.29512
1.55242 0.466493 -2.70226
1.5699 0.0834425 -1.20262
1.54795 0.573523 -1.75023
1.589 0.0876598 0.0370265
1.56184 0.669021 -0.549847
1.57591 0.109437 1.27765
1.54329 0.772483 0.651507
1.53002 0.165113 2.3802
1.4999 0.873507 1.85384
1.47887 0.250234 3.34283
1.45975 0.942517 2.82401
1.43876 1.01971 3.7894
1.54641 1.01246 -2.15737
1.53498 1.79625 -2.57097
1.5399 1.1591 -1.09745
1.52921 1.91764 -1.62446
1.51614 1.35384 0.0646331
1.51574 2.14819 -0.475261
1.46728 1.53655 1.2277
[...]
POINT_DATA 29498
VECTORS point_vectors float
-4.337 -8.21666 12.9452
0.0521542 0.525874 3.05479
-1.95386 1.69693 4.13192
0.371545 -0.00753948 1.37689
4.53093 -8.0679 12.6744
-0.225512 0.696591 3.42829
1.95286 1.69435 4.13087
-0.35422 -0.0508183 1.43297
0 0 0
-0.0457194 -0.00488743 1.74012
4.16774e-05 0.00505167 0.0123053
0 0 0
0.0183405 -0.0111535 1.00677
3.20668e-05 0.000681513 0.0917319
-3.85711e-05 0.00521121 0.01276
0 0 0
-0.68794 -0.460266 20.1027
-1.10002 -0.852173 20.7857
-0.560519 -0.481103 21.7717
-0.105627 -0.125532 21.9391
0.157585 0.101589 21.9318
0.365188 0.220244 21.8327
0.671839 0.444645 21.5848
-1.11791 -0.492414 19.7974
-2.05649 -0.936237 20.8179
-0.803995 -0.601328 21.9567
-0.120694 -0.219843 22.0415
0.319957 0.0430471 22.1242
0.666751 0.23111 22.1625
1.25422 0.358717 22.2917
-1.4386 0.243017 19.6116
-2.46874 0.357116 20.7333
-1.80176 -0.150968 22.0895
-0.615647 -0.137459 22.3281
0.107782 -0.22956 22.2854
0.571067 -0.434337 22.153
0.999603 -0.444449 21.7626
-0.518722 0.434186 20.2658
-0.679837 0.540207 20.7589
-0.512752 0.345546 21.2888
-0.193267 -7.69574e-05 22.003
0.106811 -0.0727017 21.805
0.22394 -0.051174 21.0817
0.0809584 -0.0390039 20.4669
-0.625229 -0.996622 19.5895
-1.32426 -2.50097 20.9077
-0.513163 -0.609122 22.047
-0.184618 -0.0735893 22.0804
-0.0519619 0.17275 22.0893
0.0865429 0.405194 22.1561
0.427784 1.18379 21.4425
-1.19104 -1.20144 18.645
-0.579684 1.32985 7.49818
1.25729 1.06645 10.7003
-1.89708 0.852431 17.6462
1.00191 -0.431536 15.4041
1.30092 -1.12519 17.1641
-0.388126 0.771492 20.045
-0.575329 1.07458 20.6343
-0.478163 0.764296 21.3654
-0.17587 0.0394631 22.334
0.000335917 -0.0943512 21.5228
0.156121 -0.0665862 20.9798
0.0464795 -0.0642937 20.4935
0.64519 -0.974353 19.6332
1.34266 -2.39035 20.872
0.522961 -0.620886 22.0836
0.218985 -0.0612654 22.1232
0.116989 0.329864 22.188
0.0413514 0.762173 22.2244
-0.409092 1.44596 21.5907
1.20512 -1.16327 18.6929
0.447572 1.64988 6.98895
-1.55944 1.85197 9.52674
1.90904 0.844186 17.6609
-0.872895 -0.687796 11.7506
-1.15234 -1.43723 15.1345
0.390375 0.780771 20.0384
0.596949 1.17717 20.5321
0.468523 0.78262 21.3857
0.206864 0.0327752 22.3494
0.00812324 -0.109459 21.6461
-0.0912809 -0.0702526 21.0087
-0.0592423 -0.0680316 20.5165
0.698174 -0.463281 20.0933
1.0502 -0.805057 20.7775
0.557427 -0.437028 21.7879
0.124651 -0.0968155 21.9472
-0.188152 0.175663 21.9988
-0.416193 0.349907 21.8095
-0.753689 0.624317 21.5702
1.10541 -0.487787 19.8258
2.03214 -0.928627 20.8244
0.802396 -0.563221 21.9394
0.121731 -0.180174 22.0758
-0.443037 0.117873 22.2127
-0.976701 0.357727 22.1619
-1.64469 0.378665 21.8407
1.44371 0.239899 19.6187
2.50256 0.35686 20.7376
1.80077 -0.173009 22.1213
0.597539 -0.177772 22.3748
-0.149661 -0.32606 22.352
-0.66138 -0.636701 22.1205
-1.12149 -0.614065 21.5529
0.53657 0.446473 20.2542
0.708112 0.560306 20.7417
0.533416 0.360135 21.3185
0.226684 0.00447099 22.0794
-0.0617711 -0.085538 21.7464
-0.206593 -0.0601652 21.1004
-0.0741801 -0.0242208 20.5176
-0.893066 -0.0477693 1.17499
-0.00245632 -0.346959 1.23424
-0.00570089 0.00349423 0.597623
-0.0389661 0.16906 -0.0351673
0.107117 0.0263297 0.159672
-0.0580284 0.0672367 1.87539
0.000203929 0.0741039 0.214972
0 0 0
0.0391354 -0.138929 0.621829
0.0190559 0.0390909 0.366916
0.886569 -0.0448347 1.16776
-0.000643399 0.00726288 0.762023
0.05633 0.0917567 -0.0367169
0.0723419 0.0819978 1.51842
-5.74665e-17 2.32046e-17 -3.6689e-17
-0.0134721 0.0259999 0.379292
-0.0233857 0.0211052 1.0822
2.65492e-05 0.000841539 0.0122968
0.000193193 -0.00175953 0.055946
0.000105564 0.00121788 0.00533988
0.00111518 0.000828029 0.0341145
0.00110536 0.00566596 0.00579152
0.00023392 0.0346807 0.169645
0 0 0
0.000403516 0.00324035 0.56033
-1.0374e-05 0.000571508 0.00828248
-0.000354734 0.00614291 0.0295306
-0.00109013 0.00557884 0.00598108
-0.000895347 -0.0106464 0.0720928
0.000514084 0.00655016 0.0288422
0.000542849 0.00358886 0.0190235
1.88364e-08 8.8465e-07 6.9478e-05
0.000128988 -0.000212072 0.023616
0 0 0
0.00106396 -0.066853 0.0631055
0.00420804 0.0102522 -0.000300334
0 0 0
1.21478e-05 2.70242e-05 0.0018566
3.63814e-06 -6.5796e-07 0.000159552
0.000820751 -0.0100874 0.0721952
-1.97403e-05 0.00114098 0.00559269
0 0 0
-3.64986 -2.39683 20.9161
-2.3736 -4.15138 21.2803
-2.75242 -2.89291 17.7592
0.554836 0.479839 20.7273
-0.0947647 0.449284 21.5649
-0.398502 0.721588 6.66665
-4.4751 1.11927 20.7719
-4.6734 2.79579 16.3838
-1.79746 2.34919 20.0179
0.200823 -0.18881 20.9455
0.75535 0.00243973 10.026
0.00454795 -0.148724 22.285
2.47375 -4.12091 21.2013
2.75086 -2.82255 17.8117
3.65704 -2.35879 20.9164
0.144088 0.669354 21.6992
0.220299 0.718843 5.7926
-0.730733 0.629618 21.1713
4.687 2.77512 16.4046
1.79896 2.40385 19.9999
4.51447 1.13109 20.7857
-0.620278 -0.302706 7.86498
0.0559975 -0.178184 22.3188
-0.21352 -0.340779 20.998
-0.491435 -0.91324 22.0885
-0.55823 -0.430239 22.1811
0.09897 -0.0485187 21.0684
-0.209642 0.0680795 21.8996
-3.08037 -0.521626 22.6848
-1.78282 2.32067 22.2501
-0.911739 -0.275265 22.2876
-0.407954 0.446794 22.4157
0.652519 -0.513116 22.379
0.56932 -0.874077 22.3562
0.303327 0.0806378 21.965
-0.100863 -0.0432255 21.5929
1.80686 2.39733 22.2897
3.07181 -0.565615 22.6861
0.453535 0.435828 22.4541
0.909539 -0.338104 22.4226
-0.957952 -0.70189 20.3341
-0.846999 -0.532177 19.9255
-0.738746 -0.765153 19.8291
-0.877422 -0.712102 21.5496
-1.5166 -0.970808 20.8126
-1.34843 -1.55366 20.8469
-0.282237 -0.284186 21.8454
-0.604256 -0.482552 21.8452
-0.449986 -0.51625 21.9749
0.0410414 -0.0101923 21.9692
-0.0683834 -0.0945132 21.9796
-0.104582 -0.0476012 21.9947
0.253502 0.173362 21.9017
0.265843 0.147205 22.0083
0.0857902 0.222523 21.9685
0.499962 0.406215 21.6197
0.52673 0.312348 22.0115
0.323859 0.479705 22.0424
0.984582 0.439201 21.796
0.709787 0.674224 21.7407
-1.68416 -0.762988 20.0653
-1.39951 -0.207969 19.6067
-1.25944 -0.811288 19.2892
-1.48492 -0.837338 21.7388
-2.61166 -0.373019 20.8145
-0.386185 -0.395668 22.029
-1.27919 -0.573414 22.1126
0.0658098 -0.082392 22.1381
-0.308468 -0.266707 22.3294
0.457791 0.132145 22.0851
0.339958 -0.152966 22.2376
0.941773 0.339972 21.8186
0.855027 -0.155047 22.2672
0.772922 0.669486 20.6014
1.30455 -0.302189 21.9824
1.8482 0.945811 19.6453
-2.12998 0.3876 19.955
-0.93167 0.550733 19.9596
-1.79988 0.475954 18.8738
-2.24192 0.0831445 21.5336
-1.41778 0.833399 20.6457
-1.11801 -0.162721 22.3425
-1.18222 0.601574 21.6768
-0.233608 -0.156606 22.3067
-0.410908 0.142254 22.1049
0.358221 -0.316724 22.1769
-0.0080709 -0.0943279 21.8821
0.702789 -0.58509 21.8877
0.209652 -0.248661 21.8196
0.746492 -0.592255 21.3937
0.35646 -0.306269 21.7014
1.29391 -0.799432 21.223
-0.595556 0.509565 20.4145
-0.48643 0.60136 20.1502
-0.650396 0.491266 21.0159
-0.707098 0.799663 20.6704
-0.370567 0.166589 21.6766
-0.582335 0.590294 21.2999
-0.0494945 -0.0504068 22.0382
-0.208217 0.0449617 22.2522
0.226733 -0.0626636 21.3872
-0.00151573 -0.074949 21.4841
0.116845 -0.0469025 20.6391
0.200192 -0.0558642 21.0411
0.0756042 -0.0415 20.4633
-1.03479 -1.87623 19.8038
-0.889306 -1.14722 19.1771
0.028893 -1.33891 19.325
-0.825284 -1.35284 22.1109
0.0387706 -3.42342 21.0196
-0.326589 -0.275743 22.0699
0.0219065 -0.951665 22.3318
-0.105879 0.0412315 22.1175
0.0391018 -0.296291 22.2056
-0.00315983 0.271427 22.0472
0.13876 -0.0212038 22.1356
0.115176 0.674311 21.9607
-0.173873 0.678502 19.38
0.268899 0.173945 22.5639
0.703034 1.67566 17.4087
0.145626 0.852544 20.3288
-1.83897 -0.507097 17.5868
0.0247377 -1.72331 17.8156
0.666031 1.89292 8.6972
0.618745 2.05671 4.27518
-0.103604 -1.92307 -4.26006
2.20538 0.142365 10.3285
-0.0982831 -0.885353 -2.97432
-0.968426 1.30695 19.2497
0.0134446 1.44443 15.9846
1.25593 -1.19659 18.472
0.195682 -0.396656 22.141
0.589638 -0.48737 6.22064
0.227814 -0.581764 21.9964
0.37869 -1.84143 11.7237
-0.48784 0.953463 20.2914
-0.00952961 0.994113 19.9517
-0.577042 0.994482 21.1191
-0.00493031 1.49089 20.4081
-0.372526 0.353111 21.975
-0.00683907 1.05774 21.3397
-0.0779433 -0.0323422 21.8333
0.0175241 0.0739897 22.4204
0.104665 -0.074731 21.1015
0.0136928 -0.119339 21.5603
0.0631976 -0.0765365 20.6245
0.0518324 -0.069619 20.9894
0.0133055 -0.0662665 20.5052
1.02369 -1.82203 19.829
0.885233 -1.11906 19.2066
0.751853 -0.70662 19.871
0.841319 -1.36093 22.0735
1.33433 -1.46876 20.8368
0.343111 -0.294159 22.0812
0.468759 -0.488893 21.9554
0.167019 0.101366 22.1891
0.137607 -0.0090994 22.039
0.0726471 0.552673 22.1985
-0.0856185 0.34535 22.0537
-0.137121 1.07799 21.8596
0.0802824 1.20875 19.2854
-0.348555 0.727557 22.0095
-0.41203 2.27716 17.0468
-0.659129 0.950713 21.563
1.85005 -0.501065 17.6412
1.25911 -0.794901 19.3268
-0.758342 2.46203 8.78539
-0.603018 1.34808 3.0036
-1.26761 1.11441 19.3508
-1.96645 -0.0121519 6.55125
-2.14274 1.3614 19.0321
0.970164 1.3315 19.2255
1.8105 0.46786 18.8843
-1.04285 -1.30297 14.6237
-0.106872 -0.435985 22.1004
-0.812621 -0.802602 21.3099
-0.160306 -0.61675 22.0055
-1.22729 -1.17957 21.2878
0.494784 0.989815 20.2401
0.493139 0.618158 20.141
0.561691 1.03641 21.0869
0.711196 0.83732 20.6497
0.369457 0.362063 21.957
0.626293 0.621861 21.3201
0.102021 -0.0573635 22.0098
0.244939 0.0447397 22.277
-0.0760563 -0.0869039 21.258
0.020828 -0.0919482 21.5147
-0.0729013 -0.077715 20.6725
-0.151519 -0.0657472 21.0561
-0.0668115 -0.0456346 20.5167
0.936597 -0.673805 20.3553
0.843165 -0.521521 19.9468
0.860297 -0.668683 21.5118
1.49937 -0.950482 20.8079
0.295476 -0.259534 21.8592
0.607317 -0.457203 21.8298
-0.039473 0.0448968 22.0082
0.0802155 -0.0628404 22.0424
-0.316671 0.280783 21.939
-0.332606 0.232801 22.0979
-0.576876 0.542628 21.5071
-0.703259 0.505843 22.0803
-1.04921 0.609869 21.816
1.652 -0.762246 20.0971
1.40347 -0.204162 19.6245
1.45314 -0.815906 21.7176
2.61497 -0.380696 20.829
0.397132 -0.363108 22.0508
1.24926 -0.559565 22.1272
-0.102762 -0.0312609 22.2108
0.275664 -0.26578 22.3924
-0.696667 0.230577 22.1521
-0.484336 -0.217892 22.3696
-1.25981 0.422036 21.9804
-1.12067 -0.245583 22.0427
-1.59189 -0.47741 21.762
2.14684 0.38668 19.9641
0.948916 0.549024 19.9801
2.26021 0.0682347 21.5561
1.4553 0.863657 20.6097
1.11311 -0.193154 22.3787
1.2396 0.633332 21.7109
0.215465 -0.220144 22.3556
0.446995 0.135785 22.1464
-0.421861 -0.456634 22.2159
0.0157009 -0.151387 21.9489
-0.768441 -0.697358 22.1316
-0.20291 -0.292947 21.7611
-0.330448 -0.398597 21.6893
0.608401 0.52189 20.4166
0.66347 0.513517 21.0272
0.408599 0.185046 21.7173
0.0807472 -0.0499011 22.1121
-0.202987 -0.0739063 21.4092
-0.108513 -0.0340571 20.6929
-1.26467 -0.792604 20.1995
-1.64422 -2.41036 19.1626
-1.10806 -1.20562 20.0908
-2.38541 -1.53129 19.324
-0.947829 -0.814532 19.5994
-2.15051 -2.02714 20.9024
-1.09177 -0.789601 21.6179
-1.13308 -1.34265 23.0172
-0.887265 -1.04458 21.8009
-1.53973 -1.68122 22.6402
-0.480996 -0.627765 22.1737
-0.277173 -0.246246 21.9652
-0.326758 -0.0658544 21.9644
-0.214969 -0.249545 21.9755
-0.058588 -0.386643 21.4694
-0.0381253 -0.0462068 22.0607
0.0807767 0.0350262 22.0473
-0.1301 0.172165 21.8043
0.00239238 0.0691638 22.0069
0.214943 0.205695 20.9151
0.234531 0.353123 22.0271
0.379626 0.234351 22.0136
-0.103919 0.57344 20.7603
0.185978 0.299088 21.952
0.56821 0.521664 20.7732
0.494773 0.695243 21.6249
0.7763 0.466682 22.0932
0.292581 1.26738 18.875
0.518202 0.593062 22.0686
1.19483 0.729074 20.3042
1.22767 0.970619 21.2034
-2.15153 -0.293676 19.9281
-5.29861 -0.758732 15.0927
-3.33785 0.984809 18.9861
-1.76629 -0.321712 18.8227
-5.44983 -0.657537 20.9402
-2.03039 -0.519335 21.8133
-3.81934 -0.150843 21.895
-1.1501 -1.13599 20.9887
-0.710361 -0.431097 22.2805
-1.74825 -0.512172 22.6482
0.034535 -0.147149 18.6569
-0.0206879 -0.194219 22.3299
-0.316666 -0.0823782 20.9489
0.714728 0.519806 16.9401
0.533202 -0.111104 22.1827
-0.0562817 2.86426 1.55974
0.4492 -0.39716 21.7283
1.17714 0.332908 19.2673
1.21726 -0.0690419 22.2562
1.74653 1.1434 7.56977
0.851736 -0.791377 21.5088
2.08918 -0.227275 20.3436
-1.21438 0.743058 20.2424
-1.37193 1.93805 19.5142
-0.604633 0.721722 20.387
-1.04926 0.91711 19.6508
-1.74774 1.42689 20.4137
-1.41574 0.812763 21.1913
-2.18996 2.72831 20.7399
-0.715531 0.706445 21.1086
-1.55394 1.19833 21.9222
-0.7403 0.349856 22.0092
-0.879891 1.10367 22.5664
-0.455988 0.337019 21.9541
-0.453149 0.295733 22.2031
-0.181273 0.0472209 22.0108
-0.165481 0.109777 22.3339
-0.0829913 -0.00509478 21.7298
0.00140872 -0.130056 22.1591
0.126575 -0.226136 21.9411
0.105779 -0.315723 22.2325
0.139044 -0.0627614 21.1362
0.212508 -0.322453 21.8572
0.275032 -0.335858 21.7093
0.414157 -0.71754 21.5592
0.0774556 -0.0606337 20.5691
0.340571 -0.451284 21.7906
1.65575 -2.32296 19.22
0.0421865 -2.49913 19.5457
0.0405518 -5.08383 15.7651
0.019161 -1.60557 18.7086
0.0176055 -5.91993 21.8191
1.2152 -1.36477 22.9282
0.0357097 -1.87487 22.3452
-0.00456537 -0.982649 20.9187
0.430872 -0.123393 22.1701
0.021353 -0.57065 22.2004
0.0270283 -0.344552 20.1546
0.23314 0.278321 21.7871
0.0691536 -0.153148 22.2159
0.284605 -0.0513011 18.7538
0.10734 0.991622 20.771
0.198274 0.0697445 22.1856
1.14491 -0.170834 -2.37519
0.741304 -0.222935 12.554
-0.19645 1.82133 17.9925
0.229879 0.5613 21.8672
-0.363754 -1.8406 -5.70837
0.214448 1.0391 6.54203
5.24495 -0.770433 15.1984
0.0195979 6.07544 12.1509
0.0288576 -0.75987 15.8654
0.334802 2.22943 1.43498
0.686783 0.124178 3.18794
-0.777063 -1.71684 -2.65645
-1.44699 0.581234 4.87931
0.420624 -1.24781 9.83571
-0.730535 -2.03698 -4.67211
1.37268 1.96877 19.5002
-0.00894799 1.25168 20.1001
-0.00649326 1.79711 18.792
-0.0253191 3.44525 19.4341
2.20371 2.83141 20.7047
-0.0169152 1.45309 21.0367
-0.0190712 3.2122 22.4377
0.909242 1.12536 22.6112
0.0150635 0.518203 22.1061
0.0119269 0.647245 22.5803
0.218445 0.0892999 22.368
0.0188658 -0.00575905 21.8333
0.033207 -0.128189 22.3005
-0.0408935 -0.357499 22.2139
0.0431578 -0.091449 21.1231
0.0194264 -0.54072 22.1457
-0.260604 -0.74303 21.5461
0.0172017 -0.0962852 20.6174
0.0478995 -0.872882 21.786
1.25632 -0.778251 20.2168
1.08274 -1.13128 20.1306
2.36705 -1.49527 19.3561
0.95065 -0.77928 19.643
2.14667 -1.95523 20.8831
1.08921 -0.764261 21.5955
0.890742 -0.996162 21.7556
1.54233 -1.59639 22.5721
0.56357 -0.617192 22.1498
0.294891 -0.224358 21.9904
0.258739 -0.226327 21.9937
0.102612 -0.379545 21.8873
0.091961 -0.0139079 22.1514
-0.103089 0.0893618 22.1164
0.035709 0.148622 22.0861
-0.290883 0.266361 21.2546
-0.277216 0.512557 22.2177
-0.536566 0.3627 22.0557
-0.197959 0.511106 22.0225
-1.01142 0.867308 20.5438
-0.751925 1.06028 21.7891
-0.923208 0.583093 21.9446
-0.493836 0.85782 22.0608
-1.40085 1.32305 18.0586
-1.38069 1.65797 21.0575
2.15196 -0.296284 19.9399
3.35569 0.984229 18.9865
1.77023 -0.326841 18.8545
5.44953 -0.659906 20.9535
2.0112 -0.519519 21.8276
3.8334 -0.183585 21.9203
1.15498 -1.0953 21.2213
0.690614 -0.428431 22.3072
1.73034 -0.537364 22.6253
-0.0337491 -0.180892 19.0121
-0.0289249 -0.212504 22.4378
0.317349 -0.183281 21.0926
-0.874127 0.292026 17.3973
-0.774168 -0.22706 22.2208
-0.51633 -0.525886 21.1399
-1.47376 0.256995 17.269
-1.50729 -0.302337 22.2123
-1.01976 -1.11974 20.7279
-2.6061 -0.189695 18.8383
1.25558 0.765841 20.2064
0.616003 0.745894 20.3772
1.06019 0.937771 19.6293
1.78111 1.48301 20.4011
1.46761 0.82775 21.184
0.748323 0.760238 21.1217
1.61858 1.2562 21.961
0.784124 0.355779 22.0669
0.489664 0.341063 21.9749
0.489343 0.284208 22.2375
0.195092 0.0120702 22.0325
0.111947 -0.0185505 21.7656
0.0247552 -0.165209 22.1841
-0.108374 -0.280775 21.9421
-0.0941466 -0.0754733 21.1471
-0.185111 -0.437971 22.0347
-0.273049 -0.402596 21.8202
-0.062495 -0.0682834 20.612
-0.284023 -0.578973 21.7108
-1.5969 -1.45629 19.7997
-1.11627 -1.24854 22.0839
-0.174725 -0.255174 22.0954
0.0708159 0.121345 22.0722
0.345367 0.474718 21.9683
0.867022 0.903979 21.5838
-3.6356 -0.482716 18.6682
-2.67782 -1.11588 22.8463
-0.331856 -0.698087 19.5277
0.273667 0.265924 18.0124
0.825188 0.500558 18.4666
1.62463 0.0689813 20.2731
-1.411 1.25014 19.9265
-1.88888 1.49633 21.0961
-0.911775 0.676498 22.2648
-0.128534 0.06998 22.1521
0.139054 -0.292567 22.0156
0.291311 -0.46022 22.0265
0.0335963 -3.75284 18.4405
0.00317309 -2.13606 23.1449
-0.00229669 -0.557182 20.3003
0.0966822 -0.198434 19.4863
0.620557 -0.0566435 16.1431
0.425908 0.191204 9.13427
0.0490431 -1.45155 9.38269
0.214684 0.397869 -1.00295
-0.746781 -1.84441 -4.54417
-0.0120984 2.82072 18.9985
-0.04015 4.40247 20.176
0.000234216 1.50308 22.7826
0.0309795 0.279974 22.2937
0.0363528 -0.344983 22.2179
0.101198 -0.681477 21.6374
1.58459 -1.39695 19.8278
1.14949 -1.20201 22.0262
0.259707 -0.252281 22.1234
-0.0521962 0.205996 22.1908
-0.516599 0.774628 22.0783
-1.16253 1.42829 21.2849
3.62191 -0.487996 18.7065
2.68348 -1.09722 22.9137
0.356599 -0.657959 19.7646
-0.307532 0.178159 18.3558
-1.09946 0.339423 17.0364
-2.07452 0.0280015 18.432
1.43336 1.28831 19.9172
1.9205 1.54566 21.0949
0.955602 0.692393 22.3012
0.171161 0.051068 22.1775
-0.10602 -0.326189 22.0407
-0.23721 -0.581502 21.9578
-0.228178 -0.0552279 0.308715
-0.123063 -0.656802 2.44088
-0.032628 -0.00915879 0.825214
0.00720347 0.0682142 0.149964
-0.0434208 -0.0609624 0.921514
-0.102741 0.134992 2.45093
0 0 0
-0.103735 0.1818 0.540273
-0.472646 -0.193091 0.663879
0.104482 0.123544 0.251276
0.0445583 -0.0923239 0.537286
0.0180472 0.0559275 0.703087
0.0703705 -0.671605 2.11698
0.219778 -0.0508762 0.294888
0.0201573 -0.00851593 0.80183
0.088251 0.0669324 0.499471
-0.0507791 0.040965 0.259637
0.0689497 0.0678435 0.845287
0.103568 0.184748 0.546123
0 0 0
0.475397 -0.194959 0.667926
-0.000742689 -0.103926 0.556922
-0.0528365 0.0584251 0.16312
-0.00169758 0.0254539 0.730711
0.00710386 -0.00974702 0.134848
-0.0187972 0.0142483 1.06687
0 0 0
0 0 0
-0.140275 0.0397223 1.87367
-0.0369772 0.0310332 1.53964
8.69446e-07 -1.77061e-05 -8.04288e-05
0 0 0
-1.72225 -0.898809 2.17778
0.000613022 0.00521087 0.0183923
0.000148837 0.00100943 0.00179995
-0.0904048 0.386956 1.46982
0.00829415 0.0233277 0.0898143
0 0 0
0.00380151 0.0139103 0.0304143
0.00599035 0.00077326 0.0497875
-0.000326523 -0.000324732 0.00240192
0 0 0
0.00286718 0.00165831 0.744385
0 0 0
-0.0268912 0.107963 0.884043
0 0 0
0.00141796 0.000681417 0.348397
-3.59304e-19 3.75473e-18 2.56632e-17
1.73579 -0.905031 2.19029
0.092264 0.383467 1.46096
-0.000837123 0.00712265 0.0251911
-0.000158167 0.00108277 0.001969
-0.00728463 0.0199997 0.0924795
-0.00486715 0.000649459 0.0504347
0 0 0
-0.00373485 0.0133168 0.0316815
-0.00928484 -0.0146011 0.116981
-0.452719 -0.0303553 0.167286
7.89919e-07 4.39574e-07 3.75652e-05
0 0 0
0 0 0
0 0 0
0.00124052 0.00266252 0.0217833
0.00119242 0.0175644 -0.000613436
2.8486e-05 7.07706e-07 0.000285534
0 0 0
0 0 0
0 0 0
0 0 0
5.59998e-06 1.91187e-05 -0.000734834
0 0 0
-0.0256301 -0.010194 -0.00989055
0 0 0
0.000474576 -0.000649152 0.0235561
0 0 0
0 0 0
0.453701 -0.0440539 0.166904
0.0082433 -0.0126132 0.119849
-1.8573e-06 1.22191e-06 7.01508e-05
0 0 0
0.00356771 0.00918293 -0.000640054
0 0 0
0 0 0
0 0 0
0 0 0
0 0 0
-1.95655e-18 -7.50505e-20 3.40059e-17
0 0 0
0 0 0
0 0 0
0 0 0
6.16723e-05 0.00310447 0.0175833
0 0 0
7.28411e-07 -4.28419e-07 9.98869e-05
0.000465276 0.00725581 0.0315896
0.000521146 0.00587401 0.0215123
5.93546e-07 -3.33237e-07 6.05141e-05
6.51477e-19 -4.15958e-19 1.38335e-17
0.0871335 0.199785 0.31016
0.000254206 7.907e-05 0.00409318
0.000256389 0.0713897 0.0697187
0 0 0
0 0 0
6.73795e-06 -1.63152e-06 0.000445605
0 0 0
0 0 0
0 0 0
-6.61875e-05 0.00284717 0.0161934
-0.000508875 0.00718255 0.0322248
-0.000815131 0.00884154 0.0358707
-0.000177369 6.727e-05 0.00366479
-0.0616372 0.151414 0.250807
1.58855e-18 -2.1871e-19 -4.91152e-17
0 0 0
-5.45168e-06 0.00129635 0.0119466
-0.000425446 -0.0038516 0.0316805
0 0 0
0.0269139 0.0623692 0.109405
0 0 0
0.0169392 0.0499405 0.103621
-0.000137047 0.000795774 0.00677923
0 0 0
-0.000161237 0.00749487 0.0538031
0 0 0
0 0 0
9.67465e-06 1.84548e-07 3.38191e-05
0 0 0
0 0 0
0 0 0
0 0 0
0 0 0
0 0 0
0 0 0
0 0 0
0 0 0
0 0 0
0 0 0
0 0 0
0 0 0
0 0 0
-0.01597 0.0380867 -0.00753881
0.126159 0.077751 -0.0205968
0.00207954 0.00618025 -0.00062134
0.000457777 0.00246726 -0.00035623