# vtk DataFile Version 2.0
tri_press
ASCII
DATASET UNSTRUCTURED_GRID
POINTS 3682 float
-0.705 0.185 -1.88868
-0.820233 0.235 1.885
-0.705 0.725 -1.84239
-0.765 0.955 1.78016
0.705 0.185 -1.88868
0.820238 0.235 1.885
0.705 0.725 -1.84242
0.785 0.952544 1.775
-0.761925 0.183153 -0.630787
-0.816255 0.1839 0.627107
-0.805047 0.881713 -0.634873
-0.784125 0.917459 0.572643
0.761928 0.183151 -0.630787
0.816259 0.1839 0.627107
0.810923 0.880105 -0.636613
0.789456 0.907819 0.569193
-1.48564 -0.196232 -2.86784
-1.48431 -0.147658 -1.88217
-1.53377 -0.147503 -0.622804
-1.589 -0.158124 0.646997
-1.60867 -0.125268 1.90724
-1.60803 -0.0885117 2.89725
-1.60469 -0.0515868 3.87931
-1.47971 0.115285 -2.86321
-1.47857 0.180929 -1.8831
-1.54122 0.19872 -0.633574
-1.59408 0.195355 0.620717
-1.60618 0.233114 1.87121
-1.60617 0.269699 2.86032
-1.60364 0.305475 3.84395
-1.48017 0.71214 -2.83938
-1.48521 0.776413 -1.85701
-1.56517 0.885563 -0.641861
-1.57492 0.918717 0.56992
-1.5686 0.954513 1.78593
-1.58344 0.98841 2.77632
-1.592 1.02166 3.76763
-1.49858 1.7036 -2.84196
-1.50777 1.77778 -1.8672
-1.5424 1.88937 -0.669004
-1.56321 1.97056 0.518299
-1.56599 2.02306 1.71683
-1.57014 2.05728 2.69232
-1.5762 2.08919 3.67833
-0.735256 -0.194638 -2.87149
-0.719514 -0.143724 -1.88737
-0.754045 -0.154528 -0.622668
-0.798226 -0.167234 0.652763
-0.813164 -0.127097 1.91771
-0.813629 -0.0899493 2.90396
-0.811745 -0.0533713 3.88275
-0.732624 0.11111 -2.86457
-0.81525 0.269334 2.86539
-0.811988 0.304247 3.84616
-0.731262 0.6897 -2.83343
-0.794881 0.988288 2.77381
-0.802842 1.021 3.76608
-0.733994 1.68864 -2.83627
-0.734349 1.7639 -1.86099
-0.761332 1.88468 -0.665751
-0.779441 1.97017 0.516646
-0.779877 2.02331 1.71196
-0.783208 2.0573 2.68744
-0.788854 2.08885 3.67449
0.730988 -0.195187 -2.87187
0.739008 -0.14403 -1.88757
0.77756 -0.154951 -0.622903
0.811734 -0.16773 0.652463
0.812157 -0.127576 1.91727
0.794861 -0.0910613 2.90271
0.783897 -0.0550041 3.88107
0.717277 0.110694 -2.86487
0.790938 0.268175 2.8638
0.781719 0.302513 3.84423
0.721404 0.689197 -2.83381
0.783343 0.986093 2.7706
0.780839 1.01875 3.76354
0.778999 1.68716 -2.83727
0.793661 1.7621 -1.86217
0.798609 1.88169 -0.667501
0.791388 1.96582 0.51418
0.791166 2.01932 1.70905
0.789824 2.05395 2.68461
0.786557 2.08589 3.67191
1.47805 -0.197698 -2.86884
1.48926 -0.148939 -1.88304
1.5443 -0.149582 -0.623963
1.59777 -0.160787 0.645386
1.60979 -0.127439 1.90515
1.59516 -0.091304 2.89435
1.58146 -0.0550768 3.87587
1.46328 0.113994 -2.86413
1.4704 0.179844 -1.88396
1.53831 0.196194 -0.634975
1.59658 0.191456 0.618534
1.6101 0.230834 1.86839
1.59244 0.266706 2.85677
1.57939 0.301771 3.84008
1.46983 0.710614 -2.8405
1.48115 0.7749 -1.85827
1.566 0.880972 -0.644759
1.58065 0.908333 0.564928
1.58457 0.948889 1.77941
1.57991 0.983745 2.77068
1.575 1.01704 3.76277
1.53637 1.70046 -2.84403
1.55472 1.77399 -1.86964
1.57358 1.88352 -0.672435
1.57635 1.96254 0.513639
1.57773 2.01549 1.7114
1.57719 2.05073 2.68695
1.57476 2.08333 3.67335
-0.743298 0.455 -1.90383
0 0.181441 -1.89224
-0.734566 0.182973 -1.25973
-0.809674 0.595 1.84964
2.5034e-06 0.237109 1.88289
-0.807144 0.220551 1.25605
0 0.79511 -1.91252
-0.802244 0.850577 -1.23863
0.01 1.01602 1.83983
-0.774737 0.936404 1.1764
0.74334 0.455 -1.90389
0.734567 0.182973 -1.25973
0.813941 0.593772 1.84132
0.807142 0.220556 1.25605
0.805145 0.849736 -1.23952
0.789267 0.93222 1.1721
-0.789221 0.183395 -0.00184
-0.878114 0.532433 -0.63283
1.40015e-06 0.187746 -0.630787
-0.861281 0.550679 0.599875
1.66893e-06 0.194109 0.627107
-0.799021 0.904021 -0.031115
0.00293842 0.959405 -0.635743
0.00266538 1.36034 0.570918
0.789228 0.183391 -0.00184
0.878097 0.531628 -0.6337
0.861199 0.545859 0.59815
0.804823 0.898595 -0.03371
-0.880366 0.493716 -1.24918
0.880359 0.493314 -1.24963
7.00077e-07 0.187468 -1.25973
0.00146921 0.943963 -1.23907
0 0.455 -2.11237
-0.87798 0.541556 -0.0164775
0.87786 0.538744 -0.017775
1.53454e-06 0.191148 -0.00184
0.0028019 1.22127 -0.0324125
-0.896562 0.57284 1.21623
0.896593 0.569816 1.21408
2.08616e-06 0.215617 1.25605
0.0063327 1.27329 1.17425
0.00500126 0.594386 2.13168
-0.741304 0.32 -1.91341
-0.3525 0.181444 -1.89224
-0.720881 0.182888 -1.57421
-0.822747 0.415 1.87511
-0.410115 0.235574 1.88443
-0.813025 0.228439 1.57053
-0.7248 0.59 -1.87376
-0.3525 0.767607 -1.885
-0.766665 0.800832 -1.54051
-0.773845 0.775 1.80141
-0.3775 0.988641 1.81312
-0.770618 0.946451 1.47828
0.3525 0.181451 -1.89223
0.741317 0.32 -1.91343
0.720882 0.182888 -1.57421
0.41012 0.240802 1.8792
0.825484 0.414386 1.87156
0.813034 0.228434 1.57053
0.3525 0.767616 -1.88503
0.724797 0.59 -1.87378
0.767002 0.799297 -1.54097
0.3975 0.985092 1.80822
0.781242 0.773158 1.78993
0.787134 0.942382 1.47355
-0.748255 0.183053 -0.94526
-0.775574 0.183273 -0.316313
-0.880477 0.327564 -0.631808
-0.381758 0.183857 -0.630787
-0.83019 0.183735 0.94158
-0.802823 0.183563 0.312633
-0.863023 0.355162 0.613491
-0.409964 0.18533 0.627107
-0.807689 0.870189 -0.936753
-0.878221 0.725394 -0.633852
-0.800279 0.891113 -0.332994
-0.415127 0.948705 -0.635308
-0.774523 0.922023 0.874523
-0.839401 0.742418 0.586259
-0.791716 0.910882 0.270764
-0.480815 1.31907 0.571781
0.748257 0.183052 -0.94526
0.381759 0.183859 -0.630787
0.775579 0.18327 -0.316313
0.880675 0.327059 -0.632243
0.830194 0.183734 0.94158
0.409968 0.185328 0.627107
0.802848 0.183541 0.312633
0.862902 0.352793 0.612628
0.812835 0.869721 -0.938065
0.421092 0.948077 -0.636178
0.878479 0.722851 -0.635157
0.806474 0.887951 -0.335162
0.780439 0.911097 0.870645
0.487587 1.31713 0.570056
0.851877 0.740114 0.583672
0.798491 0.904558 0.267742
-0.867434 0.474358 -1.57651
-0.371649 0.455 -2.08096
3.50039e-07 0.185687 -1.57599
0 0.318221 -2.05764
-0.8718 0.338345 -1.25446
-0.367282 0.181495 -1.25973
-0.895798 0.58392 1.53293
-0.402336 0.594693 2.09899
2.29478e-06 0.226605 1.56947
0.00250188 0.415747 2.06482
-0.897554 0.396695 1.23614
-0.403571 0.204516 1.25605
0.000734605 0.890275 -1.57579
0 0.625055 -2.13318
-0.88328 0.672147 -1.24391
-0.400387 0.923461 -1.23885
0.00816636 1.14716 1.50704
0.00750064 0.805205 2.0858
-0.887099 0.754622 1.19631
-0.384202 1.24316 1.17533
0.86743 0.474157 -1.57676
0.37167 0.455 -2.08104
0.87176 0.338143 -1.25468
0.367284 0.181488 -1.25973
0.895879 0.581794 1.5277
0.409471 0.594079 2.09753
0.897573 0.395186 1.23506
0.403572 0.204515 1.25605
0.883255 0.671525 -1.24457
0.403307 0.923027 -1.2393
0.887388 0.751018 1.19309
0.3978 1.24174 1.17317
-0.864685 0.346933 -0.00915875
-0.395739 0.185012 -0.00184
-0.896496 0.513075 -0.941006
-0.876991 0.536995 -0.324654
1.05012e-06 0.18957 -0.94526
1.46735e-06 0.189776 -0.316313
-0.872623 0.546118 0.291699
-0.878169 0.56176 0.908051
1.60174e-06 0.191713 0.312633
1.87755e-06 0.204457 0.94158
-0.872784 0.73993 -0.0237962
-0.449923 1.16627 -0.0317637
0.00220382 0.95833 -0.937409
0.00287016 1.06851 -0.334078
0.00273364 1.33646 0.269253
0.00449904 1.34303 0.872584
0.864959 0.34536 -0.0098075
0.395742 0.185016 -0.00184
0.896504 0.512471 -0.941663
0.876912 0.535186 -0.325738
0.872362 0.542302 0.290188
0.878349 0.557838 0.906113
0.873005 0.734501 -0.0257425
0.455556 1.16342 -0.0330613
-0.855557 0.329172 -1.57536
-0.883371 0.348069 -0.943133
-0.885483 0.68961 -0.938879
-0.869061 0.631073 -1.55851
0.8555 0.329072 -1.57548
0.870224 0.630762 -1.55886
0.885571 0.688696 -0.939864
0.883361 0.347767 -0.943461
-0.359891 0.181207 -1.5751
0.359892 0.181194 -1.5751
0.374124 0.181762 -0.94526
-0.374122 0.181764 -0.94526
-0.376444 0.86608 -1.55815
-0.400721 0.947226 -0.937081
0.405119 0.946783 -0.937737
0.377904 0.865806 -1.55838
-0.362074 0.31911 -2.01998
-0.362074 0.607528 -2.06848
0.362085 0.607528 -2.06781
0.362085 0.31911 -2.01998
-0.870126 0.338476 -0.320484
-0.860514 0.352718 0.302166
-0.86976 0.748008 0.281232
-0.874246 0.732034 -0.328824
0.870384 0.337426 -0.321025
0.87431 0.72796 -0.33045
0.869766 0.74097 0.278965
0.861047 0.350518 0.30141
-0.388752 0.184428 -0.316313
0.388753 0.184433 -0.316313
0.403126 0.18463 0.312633
-0.402876 0.185123 0.312633
-0.413648 1.01974 -0.333536
-0.488417 1.28877 0.270009
0.494702 1.28654 0.268497
0.419252 1.01761 -0.33462
-0.887498 0.381992 0.924816
-0.896947 0.405848 1.55173
-0.8716 0.764811 1.50561
-0.863037 0.744345 0.891287
0.887463 0.380033 0.923846
0.863374 0.738929 0.888379
0.873083 0.762088 1.50062
0.896977 0.404786 1.54911
-0.405849 0.183099 0.94158
0.405851 0.183098 0.94158
0.406846 0.222589 1.57
-0.406843 0.222589 1.57
-0.387466 1.31832 0.873553
-0.380851 1.11952 1.49266
0.39765 1.11762 1.49029
0.39693 1.31727 0.871614
-0.406226 0.415374 2.06556
0.409796 0.415067 2.06483
0.403486 0.789181 2.03753
-0.389918 0.790102 2.04096
-0.723891 0.2525 -1.90178
-0.52875 0.18146 -1.89222
-0.713917 0.182967 -1.73144
-0.823015 0.325 1.88158
-0.615174 0.234519 1.88548
-0.820987 0.227361 1.72776
-0.717642 0.6575 -1.86082
-0.52875 0.745073 -1.86247
-0.741755 0.768838 -1.69145
-0.727625 0.865 1.74899
-0.57125 0.942046 1.76687
-0.76751 0.950426 1.62922
0.52875 0.18146 -1.89222
0.723892 0.2525 -1.90179
0.713917 0.182968 -1.73144
0.615179 0.23355 1.88645
0.824283 0.324693 1.8797
0.821235 0.227118 1.72776
0.52875 0.745058 -1.86247
0.717431 0.6575 -1.86063
0.741926 0.768074 -1.69169
0.59125 0.930697 1.75349
0.741557 0.862851 1.7409
0.784862 0.946259 1.62427
-0.755058 0.183135 -0.788023
-0.768749 0.183213 -0.47355
-0.87198 0.229969 -0.631298
-0.572307 0.182574 -0.630787
-0.823247 0.183793 0.784343
-0.80942 0.18385 0.46987
-0.848605 0.265048 0.620299
-0.61388 0.183074 0.627107
-0.80775 0.877333 -0.785813
-0.867648 0.816561 -0.634363
-0.803215 0.886965 -0.483934
-0.616391 0.927818 -0.635091
-0.781738 0.922154 0.723583
-0.836569 0.842341 0.579451
-0.788088 0.914338 0.421704
-0.660644 1.17461 0.572212
0.75506 0.183134 -0.788023
0.57231 0.182573 -0.630787
0.768754 0.18321 -0.47355
0.87196 0.229776 -0.631515
0.82325 0.183793 0.784343
0.613884 0.183074 0.627107
0.809541 0.183733 0.46987
0.848454 0.26391 0.619868
0.813762 0.876795 -0.787339
0.622198 0.926471 -0.636396
[...]
POINT_DATA 3682
SCALARS point_scalars float 1
LOOKUP_TABLE default
-109.129
-55.5582
-41.5601
-43.4933
-109.082
-55.797
-41.9142
-45.3722
-39.1234
-34.9755
-28.1619
-51.0552
-39.1173
-35.0122
-28.6014
-50.6869
-59.7449
-95.1076
-37.5413
-33.0483
-55.5624
-52.895
-44.0959
34.6035
-95.1076
-38.0464
-34.0503
-55.5049
-53.7238
-41.3244
26.9769
-82.4857
-38.1291
-44.9753
-51.3046
-42.7166
-40.6714
-25.7434
-48.0491
-34.0698
-75.837
-41.4312
-37.7524
-37.7524
30.7805
-160.041
-38.981
-36.6374
-55.876
-45.0458
-43.6612
132.716
-41.6709
-41.2993
98.5059
-37.7524
-40.6278
19.5369
-43.2462
-18.8336
-79.064
-41.0705
-37.7524
-35.3205
30.4984
-160.005
-39.0498
-36.4774
-56.1028
-44.9004
-41.9372
127.823
-42.3905
-41.3323
97.4007
-39.3785
-40.7327
15.2549
-44.0541
-19.3309
-79.0794
-41.2232
-36.7385
-35.8736
-63.3228
-89.8122
-37.5672
-33.0709
-55.8861
-53.05
-44.4174
34.6844
-98.417
-38.0415
-34.1087
-55.7783
-53.9358
-41.4185
27.0461
-82.2646
-37.929
-48.0092
-51.7893
-42.8925
-40.8228
-25.932
-47.8164
-35.2025
-75.7179
-44.9686
-44.9686
-38.1318
-16.2495
-144.871
-54.2292
-45.1303
-47.371
-40.4184
-26.6836
-52.0661
-32.8509
-46.2765
-18.5211
-54.2186
-46.0602
-40.5621
-50.7306
-47.0023
-36.0878
-40.1326
-40.8928
-37.4757
-41.0103
-55.6616
-1.54608
-88.5384
-36.1015
-39.8312
-37.3371
-55.2317
-57.4318
-57.4524
-61.156
-40.0843
196.88
-38.8374
-38.8486
-37.1274
-5.65948
-44.6774
-44.7679
-42.2172
-46.0565
-38.113
-17.5919
-153.754
-78.9319
-49.0211
-48.4008
-43.2421
-25.5211
-28.5415
-46.5317
-43.8108
-34.8169
-43.7266
-153.768
-18.4587
-79.0216
-49.971
-49.4563
-43.4309
-27.8225
-25.7003
-46.3022
-35.3146
-44.4915
-44.2937
-42.5448
-36.4701
-38.923
-40.3727
-48.4331
-36.0275
-33.5935
-39.354
-38.2752
-37.7666
-30.2371
-10.0153
-48.4072
-42.77
-55.9068
-81.2375
-42.5511
-40.3729
-36.4743
-38.9539
-48.5605
-39.391
-36.0428
-33.647
-38.8234
-10.2448
-37.7997
-30.681
-47.8008
-81.1135
-44.3525
-55.5397
-92.688
179.757
-84.137
96.9035
-55.4871
-59.6714
-50.421
-40.2206
-43.6767
-40.4176
-44.0089
-41.8338
-40.7615
180.862
-61.6325
-41.773
-35.9449
-34.6913
-44.4403
-47.3559
-92.9098
179.691
-55.4515
-59.6799
-50.3623
-40.3776
-44.1201
-41.9977
-61.6528
-41.754
-44.5142
-47.6831
-37.5512
-36.6652
-45.4531
-36.5006
-48.1282
-38.0415
-40.0404
-35.9165
-38.2132
-41.6599
-42.753
-8.75042
-22.0696
21.2724
-91.348
-66.28
-37.5726
-36.6592
-45.4786
-36.5153
-40.0406
-35.7984
-42.5621
-8.71223
-91.4412
-44.1503
-46.4495
-80.5349
-91.2737
-80.965
-46.5601
-44.1392
-83.2979
-83.3056
-47.0125
-47.0088
-41.7568
-27.4571
-27.6111
-41.6547
96.6388
151.089
151.1
96.5808
-36.4503
-37.2666
-45.123
-38.2372
-36.4661
-38.2243
-44.9964
-37.2821
-37.4308
-37.4369
-37.4053
-37.3517
4.59904
-84.9416
-85.123
4.11651
-36.837
-49.5269
-50.5538
-39.5737
-36.8943
-39.334
-50.8777
-49.6573
-43.6931
-43.7395
-43.8354
-43.3808
-65.2051
-37.4901
-37.8268
-65.4039
-40.9579
-41.0818
-39.321
-38.7885
-36.8008
-187.039
-107.054
-52.3076
-50.7531
-48.7715
-20.6269
-44.8798
-46.0596
-41.4213
-37.7276
-40.167
-186.964
-37.4139
-107.046
-51.8506
-52.6332
-48.7344
-44.4757
-20.6514
-46.1384
-38.5994
-42.9458
-41.6637
-40.3117
-37.4905
-37.7755
-39.4272
-37.0235
-35.724
-33.4141
-38.5099
-30.7561
-38.0109
-27.6681
-18.673
-49.0782
-49.2002
-54.1967
-64.6412
-40.3117
-39.4303
-37.4915
-37.801
-37.0606
-38.5575
-35.7819
-33.4309
-31.1013
-18.9902
-38.0609
-27.5784
-48.5524
-64.1606
-46.6467
-54.076
-13.5441
-11.8945
-72.1771
134.984
-145.734
-145.728
-105.791
62.5444
-63.8437
-47.4871
-54.5396
-57.2505
-47.5985
-44.4723
-53.0517
-39.8424
-47.5673
-47.7592
-44.6629
-42.3632
-42.8407
-40.3702
-42.9172
-40.755
-28.4265
-28.4684
-36.5814
45.8777
-48.7888
-45.3825
-61.7249
-44.36
-33.3416
-33.736
-33.7655
-30.5527
-46.5388
-46.8777
-45.4766
-49.2188
-14.3986
-12.0382
-72.1046
134.926
-63.8462
-47.5036
-54.482
-57.2593
-48.1601
-45.0464
-53.7488
-40.0716
-43.0886
-40.4706
-43.0158
-40.9338
-48.9614
-45.5085
-61.8609
-44.4793
-46.6895
-45.5701
-45.8204
-49.6197
-36.1648
-36.2059
-37.0049
-36.1499
-38.5292
-38.6857
-43.783
-36.7595
-40.7515
-40.7516
-43.8277
-39.311
-34.8558
-40.2023
-39.203
-34.0652
-40.4499
-40.471
-39.0184
-41.2558
-44.4127
-56.3901
-48.2374
-36.9982
-3.69723
-3.84012
-11.6329
8.36579
-86.2052
-86.1572
-91.2977
-75.4079
-36.1757
-36.2299
-37.0212
-36.1609
-38.573
-38.647
-43.7959
-36.987
-34.793
-40.0853
-39.1368
-34.0202
-44.8909
-55.7597
-48.0225
-39.5217
-69.1364
-56.5289
-58.6727
-48.6992
-69.2078
-56.5192
-58.6956
-48.7267
-70.7313
-60.7723
-60.7785
-53.7898
-43.6995
-40.6177
-40.6009
-31.5467
197.325
171.364
206.211
197.288
-38.131
-37.4756
-39.9012
-40.1936
-38.1542
-37.4975
-39.9072
-40.1269
-37.0158
-37.4341
-37.4234
-37.0176
-4.56091
15.6759
-48.0746
-4.59517
-46.9134
-44.3824
-44.8341
-41.5142
-46.9951
-44.4787
-44.9225
-41.547
-42.8236
-42.0198
-42.1127
-41.5494
-39.8073
-46.5182
-46.6778
-55.3095
-38.6994
-41.2378
-36.11
-39.2347
-86.0205
89.6081
-107.287
55.8508
-87.6649
-81.5878
-55.005
-41.1661
-44.9756
-42.9297
-48.564
-43.0192
-60.808
81.0544
-38.1738
30.4176
-58.5029
-44.4159
-49.1625
-40.0225
-35.5011
-37.0797
-47.3598
-40.1389
-107.29
55.6356
-84.6101
88.88
-87.5539
-81.612
-45.7635
-43.1628
-55.4128
-41.3078
-48.6932
-43.4697
-37.925
34.8153
-60.7967
80.6808
-58.5641
-44.396
-35.9227
-37.9357
-49.7649
-40.345
-48.0611
-40.695
-43.9471
-45.4552
-36.2594
-36.8276
-43.0262
-36.3441
-43.0901
-38.5332
-36.5221
-46.7077
-36.7575
-36.6269
-36.1079
-32.1503
-38.2215
-41.4874
-46.1058
-32.4984
-40.3738
-38.6341
-39.1335
-13.341
-18.2053
-2.29617
-45.8763
-62.7816
-44.8167
-39.171
-51.2526
-83.0754
-85.4078
-72.1039
-43.9371
-45.4617
-43.0938
-38.5366
-36.2684
-36.8207
-43.0089
-36.3847
-36.5704
-46.7991
-38.276
-41.5438
-36.7846
-36.6399
-36.0955
-32.1499
-46.2597
-32.653
-18.3865
-2.77966
-40.4174
-38.8253
-39.4871
-13.742
-45.3664
-62.4947
-85.0917
-72.2359
-44.841
-38.5817
-50.7087
-79.8959
-92.863
-90.7902
156.996
173.84
-83.8991
-83.9015
93.4988
93.6491
-66.4597
-47.6361
-69.3309
-52.4428
-49.9631
-51.2436
-41.2181
-39.1279
-43.7425
-43.5312
-40.5873
-40.6814
-42.7882
-45.8513
-41.8873
-42.4138
-40.6468
-40.5971
163.708
164.328
-50.8965
-73.2448
-44.9864
-36.2616
-36.3683
-36.5043
-36.6649
-36.0602
-48.195
-40.2562
-56.4938
-41.1896
-92.8551
-91.0873
173.919
156.941
-66.407
-47.6605
-69.3404
-52.4472
-51.2883
-50.0254
-41.2518
-39.4276
-42.7672
-45.9885
-41.9641
-42.6745
-73.2799
-50.8474
-36.3402
-44.9454
-40.1267
-48.156
-41.456
-56.5764
-37.0613
-37.8247
-36.8548
-36.7886
-44.6877
-46.0871
-36.3966
-36.9722
-47.8255
-47.8226
-37.8661
-37.8701
-38.4982
-42.269
-36.1136
-37.2804
-37.8743
-37.8493
-41.9593
-41.9996
-44.6021
-40.0131
4.39619
-39.5734
-23.4112
-23.5144
17.4586
17.1832
-90.9358
-90.5177
-66.1419
-66.3083
-37.0697
-37.8501
-36.8548
-36.7953
-46.1441
-44.6939
-36.4234
-36.9979
-42.2335
-38.5049
-36.13
-37.1219
-39.9576
-44.426
-38.4644
4.07973
-93.3469
-64.2192
-67.8428
-79.5347
-38.7108
-45.1099
-48.3991
-46.4374
-41.0375
-50.2622
-49.0624
-41.6616
-52.0415
-67.551
-69.5683
-63.9043
-92.7375
-77.8027
-67.8531
-64.1661
-52.0256
-64.0222
-69.6075
-67.5188
-40.7767
-41.6863
-49.0801
-50.3944
-38.7102
-46.4884
-48.4204
-45.1149
-108.211
-105.996
-70.3745
-67.0475
-108.226
-67.0629
-70.3808
-105.994
-41.9302
-43.634
-53.431
-50.4932
-41.9261
-50.4856
-53.4287
-43.6312
-42.1402
-43.9058
-44.2726
-37.681
-25.3634
-13.2751
-32.8132
-40.9759
-25.5276
-41.1391
-32.8796
-13.3817
-42.5828
-37.6278
-44.2424
-43.7697
99.837
136.023
165.406
83.3027
38.217
38.7731
195.468
119.561
37.4136
119.475
195.637
36.0087
86.6814
83.025
165.281
136.06
-36.6599
-36.5072
-37.2444
-36.4328
-35.7005
-37.5832
-38.7353
-37.4694
-50.7392
-49.8545
-41.8712
-41.684
-37.432
-38.714
-38.4237
-44.5458
-36.6729
-36.4995
-37.2675
-36.5203
-37.7997
-44.1848
-38.4178
-38.8523
-50.2187
-41.6145
-41.8119
-49.3419
-35.7486
-37.509
-38.7473
-37.5688
-37.8236
-39.046
-37.2688
-36.3077
-37.8167
-36.3153
-37.2685
-39.0494
-37.3381
-38.8614
-37.2541
-36.2641
-37.2935
-36.2309
-37.2399
-38.8399
-13.977
-15.2486
14.4674
5.56537
-70.3474
-89.8086
-43.7349
-71.0553
-69.5787
-72.124
-42.4164
-89.9144
-14.2804
5.38556
14.3219
-15.6758
-31.7013
-42.7079
-42.5101
-32.7585
-55.4926
-54.7972
-46.4348
-44.895
-47.4146
-47.9096
-47.4513
-51.4702
-47.0159
-36.5845
-40.189
-44.1682
-31.7125
-32.6983
-42.5644
-42.779
-46.8433
-43.6763
-40.1616
-36.4172
-47.3491
-52.1718
-47.5106
-48.028
-55.7117
-44.9573
-46.5478
-55.2477
-40.8806
-42.3144
-41.7016
-40.8076
-40.9416
-40.9198
-41.7391
-42.3487
-46.1633
-45.0208
-42.7545
-42.597
-45.5233
-42.3059
-42.6113
-44.7778
-58.4131
-55.9735
-55.626
-75.0987
-38.1301
-34.195
-40.2607
-43.6939
-38.6424
-44.121
-40.3992
-34.424
-58.0252
-75.0391
-55.7486
-55.895
-42.9862
-42.2625
-41.3217
-41.4186
-43.4074
-41.5364
-41.3315
-42.3002
-38.4942
-33.8925
-37.5444
-39.844
-38.2076
-39.5667
-37.1643
-32.9278
-72.1422
-163.46
-143.321
-54.286
-52.7796
-50.3231
-29.2524
-43.3821
-49.417
-39.3873
-39.2796
-42.8708
-163.444
-72.0229
-143.293
-53.0453
-54.5339
-50.5272
-40.2935
-29.3611
-50.2333
-39.6529
-39.1953
-44.1569
-40.22
-38.2064
-38.1241
-39.062
-35.2068
-34.8806
-33.6995
-37.7432
-29.7705
-34.2822
-26.7923
-23.5187
-49.8321
-50.3637
-52.5863
-56.5105
-40.212
-39.0626
-38.2035
-38.1321
-35.2483
-37.7872
-34.94
-33.7491
-30.255
-23.7334
-34.8755
-26.7038
-49.3204
-56.0552
-49.9426
-52.6138
-17.9514
-11.8929
-67.7936
74.5209
-143.457
-143.465
-123.346
3.74678
-58.5425
-50.4706
-53.9804
-55.9535
-46.4239
-45.0167
-48.9216
-40.5454
-47.354
-47.4402
-45.7989
-44.2583
-41.3664
-39.7695
-42.135
-40.4317
-28.3182
-28.447
-30.3882
-32.7189
-47.9443
-50.911
-58.6523
-46.7909
-32.9137
-33.0916
-33.0652
-30.5644
-46.452
-45.4308
-45.6433
-49.4349
-16.2025
-11.4558
-67.4951
74.4393
-58.535
-50.4672
-53.9193
-55.9589
-47.0037
-45.6166
-49.5115
-40.9457
-41.5151
-39.8956
-42.2546
-40.6003
-48.2555
-51.2594
-58.5309
-46.6896
-46.8223
-45.8941
-46.1357
-49.6406
-35.9433
-35.9603
-36.5559
-35.9732
-39.0691
-40.651
-42.0619
-37.6359
-40.8476
-40.8482
-42.027
-40.1289
-36.1632
-38.8163
-38.4692
-35.6705
-40.6778
-40.6884
-39.6886
-41.5615
-56.3098
-56.5499
-51.781
-63.1634
-2.10927
-2.17386
-6.53589
3.12784
-88.0955
-88.1673
-92.1309
-81.4443
-35.9586
-35.9838
-36.5679
-35.9883
-39.1137
-40.4012
-42.0591
-37.9353
-36.066
-38.6878
-38.3779
-35.5102
-55.8217
-55.4685
-51.431
-64.0535
-62.5212
-57.1533
-57.9034
-52.7453
-62.5512
-57.1622
-57.917
-52.76
-65.6045
-60.9917
-60.9952
-57.2542
-41.1333
-40.3753
-40.3815
-36.7577
197.768
184.914
205.872
197.65
-38.4543
-38.1456
-39.5088
-39.3194
-38.473
-38.1619
-39.504
-39.3158
-37.1045
-37.2786
-37.1713
-37.1068
-4.98144
7.62389
-21.026
-4.76061
-45.7148
-44.5173
-44.8114
-43.7207
-45.8058
-44.6065
-44.8974
-43.7902
-42.4398
-42.1838
-42.2304
-41.8864
-42.7117
-45.9865
-46.0862
-50.8995
-38.1099
-40.8487
-36.2034
-38.15
-19.5657
-15.1636
-80.3384
77.287
-170.773
-150.126
-127.081
-3.21832
-91.0978
-70.3534
-84.0256
-80.2168
-49.7618
-48.3456
-51.9919
-43.0701
-49.0284
-48.0022
-46.4498
-45.3681
-45.0813
-43.0069
-46.6608
-42.8844
-23.5242
-13.0011
-54.4019
52.8165
-32.507
-27.1388
-32.1952
-36.841
-49.2689
-47.4285
-52.5329
-44.8214
-42.2153
-44.0792
-46.1937
-41.2533
-35.8987
-34.0312
-34.9756
-35.583
-41.5271
-44.594
-44.4716
-41.4876
-170.808
-150.129
-127.077
-3.59019
-20.6408
-15.6767
-79.5964
76.1691
-91.2494
-70.3774
-83.5672
-80.2582
-50.5074
-48.37
-47.8308
-48.8439
-50.2163
-48.8037
-52.3869
-43.3474
-45.195
-43.4372
-46.9321
-43.2485
-31.8446
-27.1798
-31.9304
-37.4371
-24.6156
-13.1411
-54.2617
52.6876
-49.4906
-47.2344
-52.6514
-44.5823
-36.4866
-34.4782
-35.4414
-36.5595
-43.3817
-44.6348
-46.9893
-41.677
-42.406
-45.5404
-45.1714
-42.2493
-41.0274
-44.9067
-42.4421
-44.3509
-36.8604
-36.179
-36.2982
-36.5677
-38.4619
-38.4674
-40.03
-37.9272
-39.958
-40.564
-41.6606
-39.3217
-40.937
-46.7387
-39.9523
-47.9628
-35.4203
-35.6359
-36.4231
-36.208
-33.6947
-33.7982
-34.7049
-32.2907
-38.9032
-39.9055
-38.7767
-40.2827
-33.0173
-42.0337
-44.8401
-34.6242
-37.6906
-38.0126
-38.6291
-37.975
-29.2018
-33.4006
-36.3898
-22.3738
-13.9921
-6.3954
-13.8857
-6.02449
-49.0202
-47.1097
-47.1911
-55.4523
-45.2232
-42.3136
-45.2517
-41.0604
-55.1562
-56.3067
-53.7984
-64.6253
-77.4409
-84.9567
-84.4301
-76.4084
-41.0312
-44.9196
-42.458
-44.3584
-39.9608
-40.5591
-41.6621
-39.324
-36.8668
-36.191
-36.3005
-36.5744
-38.4883
-38.5047
-40.0162
-37.9857
-41.0492
-46.8168
-40.1451
-48.057
-38.9473
-39.9334
-38.8301
-40.3256
-35.4532
-35.6631
-36.4429
-36.2388
-33.7221
-33.8079
-34.7437
-32.2768
-33.5978
-42.1734
-45.3494
-34.7406
-14.2538
-6.58249
-14.1081
-6.28012
-37.5802
-38.043
-38.6702
-38.027
-29.5601
-33.93
-37.258
-23.0238
-48.406
-46.018
-46.6443
-55.1075
-76.7779
-84.9985
-84.3853
-76.4117
-45.3805
-42.2223
-45.8329
-40.0001
-54.8158
-55.8417
-53.5827
-63.8828
-99.4718
-78.0691
-92.9085
-92.2466
164.396
192.819
177.552
178.925
-93.3943
-76.7975
-83.9266
-83.9293
98.9337
139.885
100.591
99.3115
-55.0776
-55.9344
-60.0284
-51.3112
-58.7379
-60.3211
-64.1523
-55.8382
-54.4766
-48.4192
-50.1374
-50.9097
-40.245
-39.6887
-41.0885
-39.2817
-44.1563
-43.1699
-43.718
-43.6171
-40.5867
-40.6674
-40.4547
-40.5162
-43.6853
-44.2442
-43.2631
-44.787
-41.3448
-42.097
-41.7811
-42.082
-38.8994
-43.814
-40.858
-40.8187
128.152
199.319
175.605
175.705
-62.4887
-59.4395
-55.004
-67.1646
-42.5018
-41.1068
-43.2242
-39.7086
-34.6978
-37.6411
-36.0608
-36.1278
-32.9101
-35.9791
-35.4419
-34.9579
-44.4493
-44.7029
-46.1469
-42.7445
-47.8982
-46.866
-51.5732
-43.9196
-99.8378
-78.2329
-93.0085
-92.5149
164.348
192.777
178.906
177.472
-55.0287
-55.9106
-59.9944
-51.2836
-58.747
-60.3309
-64.1624
-55.844
-54.6304
-48.4861
-50.8753
-50.1648
-40.4224
-40.0143
-41.2083
-39.5917
-43.7753
-44.3414
-43.339
-44.905
-41.522
-42.232
-41.9094
-42.2869
-62.5857
-59.4614
-67.1798
-55.0098
-42.5292
-41.074
-39.7291
-43.206
-44.6136
-44.8016
-42.7658
-46.2401
-48.2275
-47.1127
-44.1735
-51.835
-37.2351
-37.8022
-37.2846
-37.7779
-36.4122
-36.8466
-36.7122
-36.7334
-45.2267
-45.8957
-45.4655
-45.9052
-36.362
-36.9105
-36.3755
-36.7129
-45.8129
-50.7443
-48.0713
-48.0695
-38.6143
-37.6654
-37.9969
-37.9981
-39.6347
-40.0923
-39.196
-41.0899
-34.64
-38.1918
-35.8804
-36.207
-38.6706
-37.7177
-38.0451
-38.0352
-41.3031
-41.571
-41.5274
-41.5442
-44.8449
-41.4328
-43.8307
-41.4038
-14.5838
-4.93663
-0.252764
-20.6353
-16.866
-26.8796
-22.4747
-22.5084
15.2961
22.1836
20.462
20.3411
-93.908
-76.3431
-91.4956
-91.0455
-71.1917
-60.5009
-66.3189
-66.3849
-37.2638
-37.8218
-37.3146
-37.7907
-36.4158
-36.8378
-36.7091
-36.7134
-45.2268
-45.9111
-45.9242
-45.4834
-36.3666
-36.9362
-36.4022
-36.7188
-39.6036
-40.0845
-41.0873
-39.1896
-34.5381
-38.1954
-35.8836
-36.1284
-44.6441
-41.3384
-41.2843
-43.6124
-15.2161
-4.73977
-20.2581
-0.500746
-101.125
-89.7412
-92.3258
-76.1005
-44.7044
-44.9814
-45.7305
-44.1841
-46.203
-43.2638
-48.6637
-46.3366
-71.5421
-66.5193
-87.7619
-81.995
-102.694
-89.6667
-92.1946
-76.0901
-71.3192
-66.6664
-88.0905
-82.3754
-46.2751
-43.3108
-48.7398
-46.4542
-44.6831
-45.0015
-45.7647
-44.182
-93.5187
-82.82
-83.6807
-75.5204
-93.5239
-82.8349
-83.6826
-75.5307
-46.3395
-44.881
-49.5022
-47.4844
-46.3341
-44.8766
-49.4979
-47.4824
-41.1485
-42.7686
-40.799
-43.9377
-29.8021
-22.906
-31.8436
-25.1421
-29.8827
-23.07
-31.9486
-25.2201
-41.0265
-42.6626
-40.7172
-43.8332
93.1006
109.465
120.45
93.6205
115.941
113.687
164.646
156.39
110.814
115.556
156.605
164.765
109.377
93.6023
93.7876
120.404
-36.3886
-36.2862
-36.7973
-36.4047
-36.8785
-36.7533
-37.552
-37.8666
-45.066
-47.0446
-43.5927
-45.0671
-38.7181
-38.8567
-37.4272
-38.6719
-36.4105
-36.3176
-36.8054
-36.4261
-38.4733
-38.8318
-37.4996
-38.6875
-44.9513
-46.9259
-43.5209
-44.9419
-36.9012
-36.7455
-37.5908
-37.8786
-37.1321
-37.912
-37.0894
-37.6603
-37.917
-37.1374
-37.6694
-37.0924
-37.8022
-37.0481
-37.6541
-37.0271
-37.0061
-37.7382
-36.9972
-37.6035
-4.89373
1.04538
6.55054
12.1943
-82.8524
-87.1766
-69.5925
-88.2371
-87.2712
-85.6184
-88.3884
-68.608
0.78947
-5.35942
11.8649
6.14903
-37.5047
-33.9907
-40.4428
-36.4956
-53.6432
-49.3554
-49.8594
-47.307
-51.0328
-49.7097
-51.3082
-50.1299
-42.5618
-37.1898
-39.2709
-38.3532
-37.5743
-33.9645
-40.4433
-36.5022
-42.4116
-36.4411
-39.2292
-38.2106
-51.3187
-50.3485
-51.4042
-50.2701
-53.5632
-49.4825
-49.9314
-47.481
-45.6206
-42.5223
-42.7258
-43.1299
-45.6989
-42.5897
-42.7803
-43.1938
-44.6526
-43.8061
-43.7547
-43.321
-44.0615
-43.3054
-43.4207
-42.982
-64.4418
-69.1648
-60.5184
-65.7257
-36.2935
-38.6729
-36.7218
-39.0252
-36.6954
-39.0367
-36.9798
-39.3248
-64.5984
-69.1877
-60.7107
-65.8564
-41.0271
-41.5859
-40.9568
-40.6851
-41.7942
-41.3698
-40.8094
-41.0658
-38.7442
-40.0506
-38.0405
-39.5721
-39.7431
-38.0523
-39.1402
-37.4387
-91.0962
39.6698
-131.187
40.6674
-102.596
-107.134
-53.7493
-44.9543
-47.5543
-45.4481
-54.86
-46.1595
-58.3155
29.3823
-41.6826
9.33793
-48.3989
-48.1306
-46.1572
-38.6512
-37.758
-38.3344
-43.157
-39.0858
-131.197
36.0567
-90.1688
39.5094
-102.174
-107.156
-48.1507
-45.205
-53.9629
-45.1571
-55.2649
-46.5907
-41.7054
7.74583
-58.1509
29.4159
-48.3446
-49.5879
-38.5213
-38.7042
-47.357
-38.8458
-43.9579
-39.3667
-37.2011
-41.3109
-37.0312
-37.5121
-38.5197
-37.7749
-40.4847
-38.5309
-33.4591
-40.2517
-35.5712
-36.6401
-34.7554
-31.6309
-37.7936
-39.5827
-34.3002
-28.0074
-39.0252
-37.7228
-35.3272
-20.4153
-21.8659
-15.9414
-47.8309
-54.0608
-50.4604
-48.2266
-52.9384
-60.2019
-67.209
-61.2946
-37.2167
-41.3137
-40.4879
-38.5344
-37.0299
-37.5224
-38.5122
-37.7819
-33.472
-40.3122
-37.8325
-39.6354
-35.6155
-36.6873
-34.7907
-31.6391
-34.1846
-28.1398
-22.1797
-16.2709
-39.3712
-37.6098
-35.2845
-20.567
-47.5351
-53.5743
-66.6032
-60.8565
-50.4233
-45.7225
-52.699
-59.8777
-71.5639
87.5523
-62.2284
72.4808
-75.6467
-69.9279
140.589
131.356
-124.214
2.79404
-124.211
2.84466
-105.659
-105.661
94.998
94.2102
-63.0951
-65.4246
-46.1212
-49.1475
-58.8916
-50.4353
-61.8575
-53.6001
-50.6969
-42.8301
-47.7203
-40.4655
-53.7456
-52.288
-41.1751
-39.191
-46.0604
-44.181
-46.291
-44.213
-44.854
-44.744
-42.2572
-42.2807
-44.4497
-42.4124
-42.9563
-40.1827
-41.8434
-43.7558
-40.4112
-41.3464
-30.5642
-39.0858
-30.5397
-38.4843
-37.0001
-37.3493
31.1151
30.9975
-55.3461
-44.4617
-48.3422
-43.8404
-55.0998
-64.4692
-45.5362
-43.8086
-33.483
-32.0281
-33.7983
-32.9748
-33.8751
-33.9977
-31.8047
-31.1694
-46.9864
-45.6745
-46.9115
-51.9931
-45.6381
-45.7938
-52.8782
-46.2754
-71.149
87.8267
-62.1336
72.4697
-75.2404
-69.9049
131.296
140.572
-62.9932
-65.4409
-46.1185
-49.1556
-58.843
-50.314
-61.8688
-53.6079
-51.3285
-43.0573
-48.4254
-40.8258
-53.0185
-54.2705
-41.299
-39.465
-44.037
-42.6824
-42.94
-40.2902
-41.889
-43.8506
-40.5526
-41.5717
-55.4486
-44.4044
-48.5155
-43.8764
-64.6491
-55.2901
-43.9334
-45.4531
-47.0822
-45.796
-45.9041
-51.8503
-45.9099
-45.8471
-46.6338
-53.0853
-36.2687
-36.1066
-37.0343
-36.0238
-36.6558
-37.2752
-36.1763
-36.1883
-41.0819
-37.1906
-40.0335
-39.1993
-44.7175
-42.5805
-36.5749
-37.4415
-41.9352
-39.8796
-41.936
-39.8818
-43.758
-43.7569
-39.1923
-39.1935
-36.7543
-33.104
-41.1491
-38.835
-38.3235
-40.3152
-33.2704
-35.2692
-39.5121
-41.1402
-39.5307
-41.1666
-38.9974
-38.9882
-42.2271
-42.245
-45.9116
-27.9916
-53.0809
-70.0033
-49.6285
-46.1299
-18.3946
-55.1309
-8.35663
0.91865
-8.47715
0.782957
-12.079
-12.1288
7.71236
7.6042
-89.34
-79.7545
-89.3888
-79.8473
-90.7974
-90.9012
-75.2624
-75.286
-36.2805
-36.1164
-37.057
-36.0471
-36.6769
-37.301
-36.1872
-36.1916
-41.1001
-37.2814
-40.0562
-39.4004
-42.6108
-44.7218
-36.6541
-37.7053
-36.7312
-33.0306
-41.0702
-38.6047
-40.2523
-38.2806
-33.1819
-35.0352
-46.1017
-28.3538
-52.5984
-68.5795
-45.9094
-48.4129
-56.1252
-19.3785
-68.114
-69.2987
-61.2859
-52.5189
-53.5782
-63.7667
-48.5988
-48.8416
-68.1686
-69.3529
-61.2864
-52.5232
-63.7899
-53.5889
-48.8769
-48.6238
-70.5903
-70.5945
-65.242
-56.8838
-65.2497
-56.8873
-53.6425
-53.6404
-43.7755
-43.7968
-41.541
-37.8992
-37.9505
-41.53
-31.9077
-31.9382
184.288
199.078
169.389
169.345