# vtk DataFile Version 2.0
tri_press
ASCII
DATASET UNSTRUCTURED_GRID
POINTS 3682 float
-0.705 0.175 -2.102
-0.645 0.225 2.1831
-0.695 0.643829 -2.085
-0.625 0.915 2.12771
0.705 0.175 -2.102
0.645 0.225 2.1831
0.695 0.643829 -2.085
0.625 0.915 2.12771
-0.715964 0.160703 -0.673633
-0.712891 0.160443 0.754733
-0.814141 0.876694 -0.680763
-0.767621 0.943897 0.723474
0.715964 0.160703 -0.673633
0.712891 0.160443 0.754733
0.814166 0.876718 -0.680763
0.767602 0.943879 0.723474
-1.45809 -0.225003 -3.22982
-1.45333 -0.158165 -2.09679
-1.45405 -0.166074 -0.667802
-1.4238 -0.185109 0.766045
-1.3639 -0.149748 2.19544
-1.35269 -0.117533 3.33048
-1.36263 -0.0873334 4.4618
-1.45644 0.0741151 -3.23
-1.45766 0.167706 -2.0996
-1.47096 0.186904 -0.675308
-1.42632 0.176668 0.751159
-1.33597 0.20788 2.17592
-1.33482 0.238912 3.31061
-1.3547 0.269017 4.44272
-1.45484 0.632511 -3.22357
-1.46787 0.72365 -2.09218
-1.53707 0.886541 -0.684337
-1.47188 0.934926 0.721799
-1.33966 0.924886 2.13011
-1.33929 0.952596 3.2658
-1.36259 0.986345 4.4018
-1.45481 1.62615 -3.23208
-1.46663 1.73454 -2.10431
-1.49736 1.90318 -0.704283
-1.49664 2.01298 0.690538
-1.45938 2.04746 2.09081
-1.43354 2.0633 3.21912
-1.42326 2.08616 4.35248
-0.728688 -0.222584 -3.23138
-0.716193 -0.152029 -2.09906
-0.718848 -0.178746 -0.667498
-0.714877 -0.197431 0.769095
-0.680205 -0.144132 2.20078
-0.670771 -0.114715 3.33409
-0.676245 -0.087805 4.46389
-0.726173 0.0676782 -3.23048
-0.656944 0.242426 3.31359
-0.670899 0.268387 4.4443
-0.720305 0.597392 -3.22059
-0.658393 0.948958 3.26532
-0.677879 0.983616 4.4017
-0.710585 1.60298 -3.22913
-0.71428 1.71321 -2.10105
-0.747637 1.89817 -0.702324
-0.768635 2.01707 0.690303
-0.754486 2.04842 2.08913
-0.735272 2.06189 3.21744
-0.725344 2.08436 4.35126
0.711168 -0.222582 -3.23138
0.714242 -0.152028 -2.09906
0.719581 -0.178746 -0.667498
0.704095 -0.197431 0.769095
0.659584 -0.144132 2.20078
0.669752 -0.114716 3.33409
0.683373 -0.0878058 4.4639
0.706067 0.0676803 -3.23048
0.662651 0.242425 3.31359
0.679379 0.268386 4.4443
0.712898 0.597395 -3.22059
0.653813 0.948957 3.26532
0.672382 0.983614 4.4017
0.767415 1.60299 -3.22913
0.779651 1.71322 -2.10106
0.76478 1.89818 -0.702324
0.710656 2.01707 0.690303
0.664576 2.04842 2.08913
0.659618 2.06189 3.21744
0.666879 2.08436 4.35126
1.44038 -0.224997 -3.22982
1.44639 -0.15816 -2.09679
1.4539 -0.166072 -0.667802
1.42441 -0.185111 0.766045
1.3633 -0.14975 2.19544
1.35917 -0.117534 3.33048
1.37279 -0.0873353 4.4618
1.43773 0.0741216 -3.23
1.44961 0.167715 -2.0996
1.47023 0.186909 -0.675308
1.43478 0.176663 0.751159
1.34884 0.207879 2.17592
1.34745 0.238911 3.31061
1.36586 0.269015 4.44272
1.44993 0.632519 -3.22357
1.46767 0.723663 -2.09218
1.53842 0.88656 -0.684337
1.47618 0.934912 0.721799
1.34567 0.924882 2.13011
1.34029 0.952593 3.2658
1.35984 0.986342 4.4018
1.50361 1.62616 -3.23208
1.51829 1.73455 -2.10431
1.51052 1.90319 -0.704284
1.45194 2.01297 0.690538
1.38781 2.04745 2.09081
1.36891 2.06329 3.21912
1.37038 2.08615 4.35248
-0.721288 0.409414 -2.11479
0 0.178281 -2.09872
-0.717388 0.160945 -1.38782
-0.640697 0.57 2.1611
0 0.218285 2.18981
-0.716953 0.154714 1.46892
0 0.708934 -2.15011
-0.793041 0.798732 -1.38288
0 0.950702 2.16341
-0.729151 0.962289 1.42559
0.721327 0.409414 -2.11483
0.717388 0.160945 -1.38782
0.640705 0.57 2.16111
0.716955 0.154712 1.46892
0.792999 0.798689 -1.38288
0.729114 0.962252 1.42559
-0.71442 0.16058 0.04055
-0.879012 0.518698 -0.677198
-3.55614e-08 0.159225 -0.673633
-0.875543 0.55217 0.739103
0 0.159066 0.754733
-0.798118 0.917533 0.021355
1.23754e-05 1.15961 -0.680763
-9.19328e-06 1.36494 0.723474
0.71442 0.16058 0.04055
0.879014 0.518711 -0.677198
0.875553 0.552161 0.739103
0.798111 0.917525 0.021355
-0.840884 0.464056 -1.38535
0.840884 0.464063 -1.38535
-1.77807e-08 0.159439 -1.38782
6.18768e-06 0.878078 -1.38288
0 0.409414 -2.29623
-0.882955 0.535434 0.0309525
0.882955 0.535436 0.0309525
-1.77807e-08 0.159145 0.04055
1.59104e-06 1.36354 0.021355
-0.830256 0.561085 1.44725
0.830252 0.56108 1.44725
0 0.151925 1.46892
-4.59664e-06 1.17521 1.42559
0 0.57 2.22753
-0.723833 0.292207 -2.11908
-0.3525 0.179434 -2.09757
-0.718067 0.1611 -1.74491
-0.665739 0.3975 2.19499
-0.3225 0.220351 2.18775
-0.690382 0.180451 1.82601
-0.731568 0.526622 -2.12332
-0.3475 0.698139 -2.13931
-0.766058 0.743318 -1.73394
-0.639473 0.7425 2.15103
-0.3125 0.944868 2.15758
-0.683721 0.94529 1.77665
0.3525 0.179341 -2.09766
0.723836 0.292207 -2.11909
0.718069 0.161098 -1.74491
0.3225 0.220405 2.18769
0.66574 0.3975 2.19499
0.690383 0.180451 1.82601
0.3475 0.69827 -2.13944
0.731495 0.526622 -2.12324
0.76607 0.74333 -1.73394
0.3125 0.944853 2.15756
0.639348 0.7425 2.15091
0.683715 0.945284 1.77665
-0.716744 0.160756 -1.03073
-0.715185 0.160648 -0.316542
-0.883004 0.296942 -0.675416
-0.358143 0.159641 -0.673633
-0.717684 0.154816 1.11183
-0.713654 0.160512 0.397642
-0.887457 0.309686 0.746918
-0.356733 0.159179 0.754733
-0.783325 0.817447 -1.03182
-0.867239 0.708027 -0.678981
-0.801148 0.892131 -0.329704
-0.458864 1.12175 -0.680763
-0.740591 0.945299 1.07453
-0.857334 0.76591 0.731289
-0.790173 0.938019 0.372414
-0.475283 1.33736 0.723474
0.716744 0.160756 -1.03073
0.358143 0.159642 -0.673633
0.715185 0.160648 -0.316542
0.883003 0.296949 -0.675416
0.717684 0.154816 1.11183
0.356733 0.159179 0.754733
0.713654 0.160512 0.397642
0.887459 0.309683 0.746918
0.783338 0.81746 -1.03182
0.458898 1.12178 -0.680763
0.86724 0.70804 -0.678981
0.801127 0.892111 -0.329704
0.740601 0.945308 1.07453
0.475271 1.33736 0.723474
0.857287 0.765874 0.731289
0.79023 0.938075 0.372414
-0.8316 0.436735 -1.75007
-0.360644 0.409414 -2.2718
-8.89035e-09 0.159534 -1.74327
0 0.293848 -2.24346
-0.837224 0.312501 -1.38658
-0.358694 0.159391 -1.38782
-0.787294 0.565542 1.80418
-0.320349 0.57 2.22714
0 0.177881 1.82937
0 0.394143 2.28991
-0.834317 0.357899 1.45809
-0.358477 0.151909 1.46892
3.09384e-06 0.821773 -1.76649
0 0.559174 -2.25983
-0.833879 0.631394 -1.38412
-0.396518 0.869472 -1.38288
-2.29832e-06 0.990324 1.7945
0 0.760351 2.22227
-0.81868 0.761687 1.43642
-0.364578 1.14942 1.42559
0.831436 0.436739 -1.75009
0.360663 0.409414 -2.27166
0.837238 0.312504 -1.38658
0.358694 0.159391 -1.38782
0.787299 0.56554 1.80418
0.320352 0.57 2.22708
0.834317 0.357896 1.45809
0.358477 0.151911 1.46892
0.833878 0.631376 -1.38412
0.396502 0.869454 -1.38288
0.81852 0.761666 1.43642
0.364555 1.14943 1.42559
-0.884331 0.305185 0.0357513
-0.357436 0.15941 0.04055
-0.835276 0.491377 -1.03127
-0.88232 0.527066 -0.323123
-2.66711e-08 0.159319 -1.03073
-2.66711e-08 0.159216 -0.316542
-0.885315 0.543802 0.385028
-0.851574 0.556627 1.09318
-8.89035e-09 0.159056 0.397642
0 0.151988 1.11183
-0.882996 0.747713 0.0261538
-0.495418 1.33326 0.021355
9.28153e-06 0.951877 -1.03182
6.98321e-06 1.31011 -0.329704
-3.80112e-06 1.3675 0.372414
-6.89496e-06 1.31858 1.07453
0.884331 0.305186 0.0357513
0.357436 0.159411 0.04055
0.835186 0.491387 -1.03127
0.882319 0.527073 -0.323123
0.885318 0.543798 0.385028
0.851567 0.556621 1.09318
0.883002 0.747715 0.0261538
0.495416 1.33325 0.021355
-0.821961 0.302354 -1.74749
-0.84182 0.326101 -1.031
-0.814549 0.664545 -1.03155
-0.810829 0.579008 -1.742
0.821877 0.302356 -1.7475
0.809585 0.578999 -1.74201
0.814548 0.664545 -1.03155
0.841819 0.326105 -1.031
-0.355597 0.159479 -1.74409
0.355597 0.159479 -1.74409
0.358338 0.159279 -1.03073
-0.358338 0.159279 -1.03073
-0.372009 0.815402 -1.75022
-0.401791 0.928085 -1.03182
0.401796 0.928086 -1.03182
0.372001 0.815403 -1.75022
-0.356572 0.293028 -2.22234
-0.354072 0.542898 -2.25309
0.354082 0.542898 -2.25305
0.356582 0.293028 -2.22223
-0.886225 0.299785 -0.319832
-0.886726 0.30702 0.391335
-0.869121 0.756289 0.378721
-0.870424 0.725523 -0.326414
0.886225 0.299789 -0.319832
0.870414 0.725524 -0.326414
0.869122 0.756283 0.378721
0.886725 0.307019 0.391335
-0.35779 0.159525 -0.316542
0.35779 0.159525 -0.316542
0.357084 0.159296 0.397642
-0.357084 0.159295 0.397642
-0.503585 1.28039 -0.329704
-0.487397 1.3394 0.372414
0.487388 1.33939 0.372414
0.503602 1.28041 -0.329704
-0.843531 0.357103 1.1025
-0.810798 0.3777 1.81509
-0.774895 0.752094 1.79041
-0.842695 0.75486 1.08386
0.84353 0.357099 1.1025
0.842628 0.754843 1.08386
0.774783 0.752083 1.79042
0.8108 0.377698 1.8151
-0.357461 0.151963 1.11183
0.357461 0.151964 1.11183
0.340489 0.181456 1.82769
-0.340488 0.181413 1.82769
-0.374196 1.30008 1.07453
-0.338539 0.983989 1.78558
0.338527 0.983995 1.78558
0.374176 1.30008 1.07453
-0.321424 0.395821 2.27344
0.321426 0.395821 2.27344
0.316426 0.751425 2.23185
-0.316424 0.751425 2.23187
-0.717633 0.233604 -2.11376
-0.52875 0.176853 -2.10015
-0.712483 0.167101 -1.92345
-0.652162 0.31125 2.18584
-0.48375 0.221311 2.18679
-0.665678 0.204738 2.00455
-0.708589 0.585225 -2.09946
-0.52125 0.67704 -2.11821
-0.738328 0.701373 -1.90947
-0.625548 0.82875 2.13268
-0.46875 0.937169 2.14988
-0.660268 0.936053 1.95218
0.52875 0.176797 -2.1002
0.717657 0.233604 -2.11378
0.712621 0.166962 -1.92345
0.48375 0.221314 2.18679
0.652163 0.31125 2.18584
0.665549 0.204867 2.00455
0.52125 0.677011 -2.11818
0.708495 0.585225 -2.09937
0.738329 0.701374 -1.90947
0.46875 0.937108 2.14982
0.62577 0.82875 2.1329
0.66027 0.936054 1.95218
-0.716259 0.160825 -0.852179
-0.715567 0.160683 -0.495088
-0.849761 0.203684 -0.674525
-0.537055 0.160169 -0.673633
-0.718096 0.154821 0.933279
-0.713272 0.160478 0.576188
-0.867815 0.201244 0.750826
-0.534868 0.159699 0.754733
-0.788895 0.837232 -0.856293
-0.849294 0.796662 -0.679872
-0.803397 0.880165 -0.505234
-0.669478 1.06517 -0.680763
-0.751624 0.942116 0.899003
-0.819234 0.858282 0.727381
-0.777637 0.939698 0.547944
-0.648797 1.19532 0.723474
0.716259 0.160825 -0.852179
0.537055 0.160169 -0.673633
0.715567 0.160683 -0.495088
0.849754 0.203691 -0.674525
0.718096 0.154821 0.933279
0.534868 0.159699 0.754733
0.713272 0.160478 0.576188
0.87571 0.197295 0.750826
0.788731 0.837069 -0.856293
0.669485 1.06516 -0.680763
0.849284 0.796669 -0.679872
0.803416 0.880184 -0.505234
[...]
POINT_DATA 3682
SCALARS point_scalars float 1
LOOKUP_TABLE default
-91.5627
-38.9004
-11.692
-36.3865
-91.8428
-38.7659
-11.6151
-36.3087
-38.012
-35.8419
-67.1562
-52.2515
-37.9755
-35.9161
-67.1583
-52.2568
27.105
-97.4625
-41.0876
-43.1037
-42.8216
-38.8274
-33.4136
24.1013
-96.5488
-42.2297
-48.947
-42.8216
-34.6618
-32.474
79.3359
-89.2311
-57.1275
-49.7624
-40.6655
-34.4877
-32.8405
7.63883
-49.6837
-90.9744
-61.6295
-38.8034
-35.7642
-35.7642
7.51904
-148.377
-37.7134
-36.0794
-38.0188
-34.2482
-31.4401
127.837
-32.0469
-30.8018
169.823
-32.9574
-32.7147
43.4187
-44.5873
-94.182
-63.276
-36.9763
-34.9271
-33.4842
7.92339
-148.661
-37.6935
-36.1321
-37.9979
-34.1243
-31.3111
127.361
-31.9629
-30.6563
170.224
-32.8752
-32.6413
53.9938
-46.9658
-94.1994
-63.254
-36.7539
-34.5533
-33.4317
15.8962
-98.3102
-41.0509
-46.1597
-42.6728
-38.691
-33.304
23.9988
-96.5719
-42.2055
-50.15
-42.6728
-34.5293
-32.3691
79.3675
-89.2224
-57.0403
-49.7531
-40.5836
-34.4152
-32.7494
7.74692
-49.6714
-90.7
-61.6136
-38.7809
-35.6969
-35.6969
-27.2347
-130.258
-46.3768
-34.4832
-30.5495
-41.1009
-23.8439
-41.6913
-35.472
-47.2066
-26.6199
-46.352
-34.3783
-41.0679
-41.6723
-47.1675
-35.5302
-45.9241
-37.6113
-47.7517
-35.0869
-57.0411
0.680724
-66.5878
-35.5106
-45.9014
-47.7707
-57.0189
-43.6458
-43.6537
-54.2208
-2.34945
195.682
-45.3863
-45.3679
-34.9798
-93.5243
-44.935
-44.8345
-40.3334
-42.966
-26.9362
-39.5068
-130.777
-66.478
-34.6923
-33.6461
-42.7941
-10.0766
-20.3665
-50.7772
-34.8974
-34.6999
-40.892
-130.72
-39.3536
-66.4759
-33.5432
-34.5704
-42.7288
-20.3575
-10.256
-50.9446
-34.5564
-34.7991
-40.8752
-37.7498
-36.3292
-41.8276
-37.3597
-38.7863
-35.5935
-47.9032
-35.1717
-32.6235
-52.5789
-62.3539
-0.0693301
-47.4823
-49.0872
-59.2399
-63.5647
-37.762
-37.3506
-36.3151
-41.8028
-38.7609
-35.1681
-35.5469
-48.1906
-32.6425
-0.114057
-52.5516
-62.3297
-47.5144
-63.5638
-49.0792
-59.217
-72.4288
187.091
-75.8635
154.785
-43.4454
-52.3966
-44.0936
-30.4692
-38.0401
-23.1128
-42.6448
-40.7754
-28.8168
171.693
-44.824
-9.22221
-38.1259
-29.3454
-45.4127
-43.5258
-72.2026
187.203
-43.448
-52.3808
-43.9764
-30.3341
-42.6115
-40.7604
-44.822
-9.22608
-45.3255
-43.525
-40.5202
-35.0215
-32.7188
-47.2321
-42.4989
-35.6397
-45.8383
-42.6913
-34.9747
-38.2864
-52.0204
-84.963
25.6495
-91.6323
-75.3703
-55.3956
-40.4969
-35.0114
-32.7419
-47.2015
-45.8263
-42.6892
-52.0077
-84.9517
-71.6484
-34.1974
-31.6717
-64.3538
-71.6051
-64.0991
-31.6687
-34.2158
-74.3384
-74.3327
-41.6736
-41.6845
-31.8224
13.2836
13.2876
-31.8156
145.951
157.886
157.786
146.026
-42.5449
-41.1027
-50.8939
-52.7997
-42.5223
-52.7649
-50.8922
-41.0461
-35.6339
-35.6258
-35.0363
-35.0476
-94.2434
-69.8825
-69.8771
-94.196
-40.6513
-45.4182
-43.1528
-45.8136
-40.6234
-45.8007
-43.0601
-45.2833
-38.3894
-38.3851
-39.0234
-39.0625
-55.953
-38.7078
-38.7035
-55.9473
-29.4961
-29.3338
-31.776
-31.8605
-46.4594
-143.926
-90.0016
-35.6057
-36.177
-39.5367
-5.44503
2.2107
-58.3347
-35.9295
-34.3398
-38.4963
-143.468
-46.5841
-90.2153
-36.0589
-35.4893
-39.4433
1.90748
-5.30636
-58.3121
-34.2972
-35.8373
-38.455
-36.8229
-36.928
-40.3234
-37.1286
-40.3629
-35.8612
-43.0692
-35.4163
-35.7331
-59.1742
-65.8236
-44.5011
-49.2632
-51.0967
-54.1638
-57.5677
-36.8219
-37.1143
-36.9142
-40.2584
-40.4331
-35.4228
-35.8003
-45.2568
-35.7122
-45.6176
-59.1362
-65.5049
-49.2991
-57.5613
-51.108
-54.171
-28.9714
-21.7317
-92.4707
150.656
-133.939
-134.162
-91.5155
76.2624
-54.3179
-41.1929
-42.4195
-50.0358
-34.505
-34.4635
-41.1442
-32.2252
-31.3999
-31.3347
-34.587
-25.8122
-44.215
-38.9349
-42.7824
-41.0837
-26.7136
-26.2325
-39.7688
93.0817
-39.804
-38.4357
-45.9634
-18.4259
-35.3444
-35.3653
-36.6589
-32.9225
-44.453
-46.669
-45.9527
-45.3775
-28.7046
-20.8313
-92.595
150.539
-54.2925
-41.1673
-42.419
-50.0134
-34.3949
-34.3912
-41.0279
-32.1282
-44.1628
-38.9166
-42.7354
-41.0605
-39.7754
-38.4526
-46.0002
-18.4215
-44.4178
-46.7197
-45.8981
-45.373
-35.811
-35.4834
-38.1543
-35.1083
-43.7885
-48.5606
-31.9408
-49.0134
-37.5527
-37.5473
-39.4857
-36.3726
-48.0888
-47.995
-46.9317
-44.6041
-35.1048
-35.1007
-35.1391
-37.3724
-59.5995
-55.3485
-54.957
-67.4402
0.554876
0.544871
28.6233
-54.9459
-66.0338
-66.0313
-69.8685
-62.3844
-35.7951
-35.4533
-38.1314
-35.0933
-43.7606
-48.5356
-31.9289
-48.9787
-48.1502
-47.9922
-46.9296
-44.6295
-59.5914
-55.3473
-54.947
-67.4164
-51.5187
-43.5735
-44.3334
-38.6245
-51.531
-43.5774
-44.339
-38.6032
-63.3066
-53.5804
-53.5693
-47.0697
-15.9674
-4.13077
-4.13308
12.3627
193.038
170.99
197.061
193.083
-43.0251
-45.9158
-44.5434
-47.8318
-43.0039
-45.8945
-44.5246
-47.4421
-34.9944
-35.1877
-34.9313
-34.9903
-90.8981
-96.3838
-83.97
-90.895
-43.6123
-43.5358
-45.312
-42.6953
-43.5102
-43.5088
-45.2497
-42.6893
-41.1007
-40.4333
-40.4657
-39.1821
-39.7145
-43.0091
-42.986
-47.6704
-28.0404
-25.0802
-28.2972
-27.94
-94.5308
130.78
-92.748
74.6892
-68.7278
-70.8936
-41.5346
-31.8959
-36.0804
-30.3635
-45.5485
-40.5155
-88.576
116.097
-41.1283
90.2336
-60.6012
-35.6906
-40.5462
-32.7762
-36.6253
-33.1955
-42.4833
-39.2132
-92.9293
75.0915
-94.5509
130.34
-68.7209
-70.8695
-36.0222
-30.1966
-41.4011
-31.7827
-45.4368
-40.4658
-41.1504
89.1792
-88.7559
116.096
-60.5915
-35.6992
-36.6171
-33.1496
-40.4482
-32.7001
-42.41
-39.2048
-34.6009
-40.3676
-39.6502
-35.7124
-31.7757
-44.4754
-38.9811
-36.2772
-40.3788
-38.5518
-38.3233
-35.1791
-42.2193
-44.1407
-35.203
-37.5069
-32.2386
-2.41305
-32.0616
-54.8807
-57.6717
-89.7132
16.0067
-43.2048
-46.5758
-55.9293
-50.5008
-45.3119
-56.0715
-65.6605
-65.9282
-61.8205
-34.6368
-40.3554
-38.9715
-36.2688
-39.6348
-35.7012
-31.7853
-44.4497
-40.2867
-38.5479
-35.195
-37.5076
-38.2503
-35.1576
-42.1277
-44.1189
-32.2391
-2.42279
15.9689
-43.073
-32.0429
-54.8144
-57.6267
-89.7102
-46.5848
-55.9905
-65.9122
-61.817
-50.5036
-45.419
-56.1553
-65.6352
-72.9742
-70.0051
163.489
191.332
-75.8427
-75.833
140.442
138.711
-51.4824
-37.8647
-61.6618
-45.9511
-44.8321
-43.5484
-30.1366
-30.624
-38.2628
-38.2849
-25.7491
-25.6109
-40.8719
-43.0594
-39.3575
-42.1789
-29.3121
-29.3122
168.315
168.316
-40.1089
-51.8137
-20.6975
2.43607
-38.2819
-38.2815
-29.8408
-29.9122
-44.0363
-44.247
-48.6055
-40.4835
-72.9036
-69.794
191.32
163.179
-51.4858
-37.863
-61.6469
-45.9378
-43.4447
-44.7071
-29.9873
-30.5064
-40.84
-42.9802
-39.3475
-42.159
-51.8105
-40.1178
2.4346
-20.7058
-44.2457
-43.9555
-40.4815
-48.6092
-40.9565
-39.5918
-35.233
-34.9892
-33.4966
-32.0394
-44.8649
-49.7781
-42.3361
-42.3436
-35.6329
-35.6416
-43.7724
-47.8349
-41.3694
-44.6704
-34.9939
-34.9994
-38.3162
-38.3133
-49.9099
-50.2253
-87.4618
-77.528
23.3473
23.3502
-92.8386
-92.8296
-74.2902
-74.2874
-55.7437
-55.744
-40.9355
-39.559
-35.2243
-34.9773
-32.0502
-33.512
-44.8364
-49.7417
-47.828
-43.745
-41.3625
-44.6701
-50.2095
-49.9028
-77.5153
-87.4464
-94.2749
-52.4087
-51.5741
-94.6131
-34.9634
-31.5069
-38.2298
-37.6322
-33.0439
-41.3944
-39.1793
-31.8284
-86.9945
-89.5701
-51.453
-50.6848
-94.3588
-94.6819
-51.5704
-52.4141
-87.1741
-50.6164
-51.4806
-89.4854
-33.023
-31.816
-39.1666
-41.4099
-35.0075
-37.6222
-38.2233
-31.512
-91.8615
-92.8797
-63.0663
-58.7911
-92.2333
-58.7669
-63.0547
-93.1266
-38.2348
-39.3743
-46.8619
-44.0926
-38.2472
-44.1105
-46.871
-39.3805
-45.9788
-26.7032
-16.9201
-39.2205
-8.96265
26.2679
10.0275
-10.4216
-8.96192
-10.4302
10.0255
26.3336
-45.9917
-39.3427
-16.9195
-26.7164
28.6462
144.87
167.707
49.7896
74.9294
111.812
195.541
149.212
74.909
149.28
195.508
111.822
29.1987
49.7987
167.899
144.66
-41.025
-38.3598
-43.5832
-46.5093
-38.6473
-45.3448
-42.0232
-37.6012
-53.2839
-53.865
-47.3037
-48.2145
-59.7887
-51.9101
-48.5236
-56.1124
-41.0052
-46.4806
-43.5594
-38.3422
-59.6498
-56.0922
-48.5095
-51.8679
-53.2857
-48.2153
-47.2925
-53.8695
-38.3558
-37.5645
-41.9969
-45.3315
-36.2719
-36.3571
-35.2153
-35.327
-36.2598
-35.3146
-35.2128
-36.352
-35.3664
-35.1595
-34.9437
-35.083
-35.3803
-35.1019
-34.9501
-35.1548
-90.4366
-74.4562
-94.0258
-51.8653
-59.1748
-68.9342
-82.9107
-62.6925
-59.1486
-62.6798
-82.9074
-68.9296
-90.1116
-51.9105
-94.0041
-74.4292
-43.9028
-40.583
-41.6536
-44.3677
-43.0344
-41.3614
-43.039
-43.9538
-40.74
-44.4618
-43.761
-40.6476
-48.3234
-44.862
-43.5678
-45.6279
-43.8341
-44.3969
-41.6455
-40.5204
-48.3582
-45.625
-43.5612
-44.9042
-40.6533
-40.5362
-43.6537
-44.4027
-42.9042
-43.8754
-42.9441
-41.2402
-37.5854
-37.4037
-39.2665
-39.3561
-37.5973
-39.3412
-39.261
-37.4025
-37.3151
-35.0045
-41.4209
-43.1957
-37.3906
-43.2284
-41.4299
-35.0381
-54.1682
-50.7997
-47.9801
-62.4021
-36.9475
-36.5969
-39.9611
-41.5942
-36.9328
-41.5825
-39.9583
-36.6108
-54.1483
-62.4019
-47.9753
-50.7941
-32.7593
-27.3114
-26.9576
-32.2669
-32.6405
-32.1632
-26.8312
-27.2024
-33.1114
-32.9787
-29.1259
-32.2759
-33.1768
-32.3659
-29.21
-33.008
-69.5975
-136.324
-119.075
-38.1931
-37.2015
-38.22
-4.42147
9.06858
-63.3373
-36.4046
-34.9807
-37.512
-136.025
-69.838
-119.815
-37.0025
-38.059
-38.0971
8.92921
-4.26774
-63.372
-34.9242
-36.3147
-37.4584
-38.5051
-37.2368
-40.1482
-37.2613
-37.9745
-36.0792
-39.4011
-35.5958
-52.2182
-64.4099
-68.4153
-76.6539
-50.8792
-51.5282
-53.0943
-55.2265
-38.4601
-37.2418
-37.2225
-40.0513
-38.0681
-35.6199
-36.0685
-38.0739
-52.2987
-77.924
-64.3375
-68.055
-50.9013
-55.215
-51.5437
-53.1221
-27.6846
-24.3664
-92.261
81.5259
-132.142
-132.062
-107.175
5.47906
-49.9397
-43.5357
-43.6368
-48.3347
-34.4683
-34.471
-38.8967
-32.7628
-30.7802
-30.7467
-32.4684
-27.5798
-42.8172
-39.7076
-41.8894
-41.0714
-25.1736
-25.2318
-39.7029
-5.34665
-39.6238
-40.0012
-46.3671
-28.2547
-35.4588
-35.3854
-35.9787
-33.3991
-45.6113
-46.4669
-46.8884
-48.0149
-28.4442
-24.3098
-92.3217
81.7127
-49.914
-43.5108
-43.6271
-48.3102
-34.3635
-34.369
-38.771
-32.672
-42.7762
-39.6817
-41.8421
-41.0433
-39.5797
-39.9986
-46.3582
-28.24
-45.5786
-46.5051
-46.8407
-48.0008
-35.6723
-35.4649
-36.4757
-35.2533
-44.7135
-47.1187
-41.1258
-48.6557
-37.5998
-37.5967
-38.4135
-36.9198
-47.7423
-47.7452
-48.3334
-45.6269
-35.17
-35.1677
-35.2218
-36.1649
-58.1683
-55.9841
-56.2145
-62.6568
0.56345
0.805416
19.39
-20.8342
-66.4795
-66.4787
-68.2209
-64.7031
-35.6552
-35.4409
-36.4545
-35.2358
-44.6879
-47.0964
-41.1109
-48.6248
-47.7739
-47.7557
-48.3451
-45.6524
-58.1582
-55.9294
-56.2026
-62.6326
-46.7962
-43.6572
-43.8504
-41.2564
-46.8099
-43.6637
-43.8577
-41.2554
-58.1602
-53.8092
-53.6048
-50.1877
-8.85272
-2.79823
-2.79905
5.16486
199.174
186.744
206.953
199.187
-44.1978
-45.5324
-45.0505
-46.8332
-44.1781
-45.5155
-45.032
-46.8233
-34.9854
-35.0758
-34.9299
-34.9826
-92.7609
-96.0078
-89.0181
-92.7585
-44.2011
-44.429
-45.264
-44.3267
-44.0758
-44.3173
-45.2003
-44.3402
-41.2213
-40.3772
-40.3736
-39.7518
-41.1416
-42.919
-42.9049
-44.9817
-27.2132
-27.5202
-27.5532
-27.1585
-40.504
-33.8158
-97.135
63.4399
-133.809
-133.598
-108.633
-25.7693
-75.4217
-59.8244
-67.7535
-68.5545
-34.7884
-34.623
-38.2312
-32.5131
-34.9605
-32.4135
-34.5603
-31.731
-41.2239
-44.4194
-44.9579
-41.3489
-8.49484
-18.2401
-86.2004
71.0215
-7.92178
-24.0513
-43.4477
38.1915
-54.2361
-44.7521
-57.3743
-39.5474
-35.3442
-34.7889
-38.9102
-33.2779
-34.1839
-35.0379
-35.5874
-33.1369
-39.6283
-42.5165
-41.3464
-39.7296
-133.688
-133.411
-108.944
-25.8042
-39.561
-32.9636
-97.4573
63.2318
-75.457
-59.8006
-67.7634
-68.5193
-34.8455
-32.3263
-34.4853
-31.5978
-34.6813
-34.5085
-38.1054
-32.4091
-41.1577
-44.3567
-44.8597
-41.2933
-7.75348
-25.12
-43.6458
36.6654
-8.43172
-19.1946
-86.0078
70.8764
-54.2768
-44.7748
-57.3895
-39.5689
-34.1532
-34.8775
-35.5756
-33.1514
-35.2386
-34.6891
-38.8048
-33.1992
-39.5984
-42.4896
-41.2631
-39.7236
-37.1901
-39.3955
-35.3452
-39.3806
-36.6605
-36.0292
-37.6586
-35.8994
-41.026
-42.7669
-37.4498
-44.0694
-37.2475
-37.4632
-38.0899
-36.7409
-39.1663
-38.3411
-40.1707
-38.5928
-35.7575
-35.5199
-36.5541
-35.3239
-46.5442
-48.2814
-43.5697
-48.272
-35.0958
-35.094
-35.2644
-36.2825
-32.0803
-35.8598
-33.3536
-16.3411
-55.5483
-50.3266
-45.6386
-55.032
-64.0662
-60.7998
-60.3841
-72.9362
-7.5011
0.64358
10.0511
-23.5889
-48.3363
-46.8276
-47.8608
-51.2924
-49.8787
-48.4016
-50.4094
-46.7677
-55.7952
-59.3998
-58.094
-62.4928
-62.6495
-65.1349
-64.7371
-62.7914
-37.1813
-39.3789
-35.3629
-39.3721
-37.2362
-37.4559
-38.0806
-36.732
-36.6468
-36.0147
-37.6426
-35.887
-40.9867
-42.7395
-37.4064
-44.0456
-39.1804
-38.3311
-40.0346
-38.5872
-35.0953
-35.0892
-35.2588
-36.282
-35.6988
-35.4837
-36.4867
-35.293
-47.2105
-48.4053
-43.606
-48.337
-32.1015
-35.876
-33.3637
-16.3472
-7.57715
0.599503
10.13
-23.3833
-55.517
-50.301
-45.6247
-54.9734
-63.9958
-60.7778
-60.3424
-72.9645
-48.3816
-46.8367
-47.892
-51.3265
-62.6514
-65.13
-64.7322
-62.777
-49.8813
-48.3962
-50.4123
-46.6723
-55.7873
-59.4465
-58.0418
-62.482
-83.8645
-58.6348
-72.8657
-71.2126
177.584
191.323
176.369
191.045
-82.9873
-69.0328
-75.9465
-75.9333
141.461
167.416
153.654
154.459
-43.4173
-43.5397
-46.6269
-40.8445
-51.3559
-53.1106
-56.6569
-48.9449
-42.6583
-44.1589
-44.3787
-43.6771
-31.4978
-29.1362
-30.798
-30.4045
-36.448
-39.7393
-38.0691
-38.0724
-24.3015
-22.8278
-23.8563
-23.7618
-42.4737
-42.9974
-42.0467
-42.324
-40.9384
-40.6081
-39.9938
-41.9592
-34.2705
-22.4738
-29.0071
-29.0053
145.093
184.209
170.208
171.207
-45.7312
-44.7159
-42.78
-47.4632
-13.1109
-6.48978
-14.5546
-3.87713
-37.6228
-38.6608
-38.1687
-38.1687
-31.6851
-28.7386
-29.4573
-29.4966
-45.4851
-45.3297
-44.8511
-45.1919
-44.1238
-43.2004
-45.8058
-41.8146
-84.0964
-58.5417
-72.7462
-70.9709
177.619
191.422
191.11
175.655
-43.4161
-43.5428
-46.6338
-40.8417
-51.3367
-53.0976
-56.6411
-48.8818
-42.5427
-44.0785
-43.5739
-44.2555
-31.3758
-29.0089
-30.6659
-30.2755
-42.4474
-42.9385
-42.0369
-42.2523
-40.9219
-40.5967
-39.981
-41.943
-45.7438
-44.7186
-47.4798
-42.7777
-13.111
-6.49323
-3.87504
-14.5627
-45.4157
-45.2428
-45.1346
-44.7696
-44.1164
-43.275
-41.8134
-45.8074
-39.4622
-41.7553
-40.7285
-40.3031
-35.0508
-35.0071
-35.1133
-34.9863
-28.2167
-36.1747
-33.1657
-32.3378
-48.0879
-46.5388
-46.0208
-48.4064
-40.8518
-44.5335
-42.4936
-42.498
-35.9708
-35.3783
-35.6455
-35.6426
-46.1617
-45.1471
-44.8511
-46.7768
-43.9754
-41.9175
-41.7952
-43.6491
-35.0554
-34.9455
-34.9847
-34.9877
-37.8347
-38.7335
-38.2944
-38.2928
-53.071
-49.2711
-51.4738
-50.431
-76.8942
-88.6163
-85.7955
-81.7666
30.5332
18.7749
25.2446
25.2436
-79.999
-94.0957
-92.9293
-92.9234
-72.347
-79.0432
-75.1341
-75.1325
-59.4222
-51.2331
-55.3651
-55.3656
-39.4388
-41.7328
-40.7066
-40.2762
-35.0382
-34.9994
-35.104
-34.9753
-28.2125
-36.199
-32.3582
-33.1824
-48.054
-46.5096
-45.9915
-48.3738
-46.151
-45.1326
-46.7673
-44.8336
-43.9867
-41.9121
-41.7887
-43.6511
-53.0576
-49.2608
-50.4098
-51.4673
-76.8913
-88.6065
-81.75
-85.7879
-83.597
-70.7209
-72.5185
-58.5482
-34.3287
-30.6907
-36.2223
-33.7955
-31.3991
-27.0676
-36.8503
-32.0663
-75.06
-62.0004
-67.4862
-56.2684
-83.545
-70.7114
-72.4678
-58.53
-75.7492
-62.0364
-67.2215
-55.8852
-31.3974
-27.0616
-36.8535
-32.0692
-34.3653
-30.7205
-36.2316
-33.8096
-83.2169
-72.8862
-75.3299
-67.4343
-83.2312
-72.8736
-75.3244
-67.4224
-41.085
-40.1695
-43.5063
-42.0589
-41.0971
-40.1794
-43.5186
-42.0683
-37.3885
-33.5332
-30.4956
-26.123
5.49617
17.4966
8.03955
19.4514
5.33055
17.4875
8.03529
19.43
-37.392
-33.5348
-30.4935
-26.133
141.717
138.347
153.517
141.953
139.371
126.12
176.073
162.272
125.768
140.558
162.183
176.021
138.595
141.651
141.89
153.412
-41.2829
-43.0786
-41.6688
-43.7142
-39.7786
-41.4657
-40.0863
-42.4683
-50.6171
-53.274
-49.0789
-50.7274
-53.8167
-54.8095
-51.3221
-51.8556
-41.266
-43.0592
-41.6455
-43.6874
-53.7641
-54.7732
-51.2827
-51.8294
-50.6192
-53.2765
-49.0748
-50.7186
-39.7097
-41.3898
-40.0443
-42.4274
-35.6477
-35.9287
-35.3885
-35.64
-35.9205
-35.6381
-35.6334
-35.3802
-35.1186
-35.0799
-35.0091
-34.9881
-35.0954
-35.1287
-35.0018
-35.0175
-97.8912
-70.4702
-91.4671
-92.7774
-66.4608
-67.7567
-73.2016
-72.409
-67.7374
-66.4583
-72.4021
-73.1987
-70.4131
-97.8034
-92.3827
-91.4427
-40.3492
-41.7303
-40.1873
-41.0134
-44.5595
-45.472
-45.4096
-44.9613
-41.9336
-42.9055
-43.3892
-43.5184
-45.8962
-46.9087
-44.1553
-45.7707
-40.2985
-41.7142
-40.1659
-41.0003
-45.8883
-47.0115
-44.142
-45.7622
-41.8385
-42.8203
-43.2841
-43.4373
-44.4272
-45.3534
-45.2734
-44.8584
-38.4635
-37.9452
-38.8343
-38.3475
-38.4592
-37.9439
-38.8252
-38.3435
-37.5132
-39.6768
-38.5676
-40.8635
-37.5614
-39.7211
-38.5995
-40.89
-56.2802
-59.3702
-52.0581
-55.7726
-37.8037
-38.9367
-38.4706
-39.3708
-37.8002
-38.9303
-38.4699
-39.3679
-56.2833
-59.3714
-52.0578
-55.7758
-31.1492
-29.742
-29.4884
-27.5423
-29.5924
-31.0126
-27.3786
-29.3225
-32.9453
-32.5085
-30.4687
-31.0114
-32.5881
-33.0059
-31.1128
-30.556
-99.6363
4.21009
-112.719
-42.3918
-94.899
-90.0634
-39.9789
-33.7499
-36.2902
-34.3761
-42.8205
-38.1364
-78.3283
52.7149
-35.711
41.9499
-75.7243
-46.1751
-39.6395
-33.8639
-35.6723
-33.5438
-40.0197
-37.3012
-113.111
-41.86
-100.231
5.22726
-94.9482
-90.4878
-36.1959
-34.2538
-39.8461
-33.6388
-42.5911
-38.0558
-35.8468
42.3723
-78.3868
52.4841
-75.7922
-46.2016
-35.6348
-33.4853
-39.5329
-33.7901
-39.9552
-37.3017
-34.0686
-37.9459
-38.618
-36.4471
-38.1629
-41.21
-37.58
-36.6542
-43.7844
-38.0559
-36.7837
-35.5688
-36.8391
-46.0044
-35.4616
-36.6194
-33.8525
-34.0105
-49.8215
-60.505
-63.0287
-82.754
-17.1529
-72.1363
-49.2838
-50.8461
-52.302
-49.8862
-53.8788
-56.6824
-58.0955
-54.6579
-34.0995
-37.9335
-37.5659
-36.6408
-38.6028
-36.4337
-38.1227
-41.1965
-43.8257
-38.0829
-35.458
-36.6331
-36.5668
-35.544
-35.8477
-47.4013
-33.8258
-33.9123
-17.269
-71.8953
-49.8264
-60.3695
-62.8307
-82.2058
-49.3073
-50.8487
-58.0865
-54.6444
-52.3258
-49.9132
-53.8765
-56.6487
-92.2163
78.4554
-88.176
84.8098
-93.5185
-89.7666
146.36
154.903
-110.266
-57.2945
-110.059
-57.2376
-92.2817
-92.4627
65.9192
65.8079
-51.2682
-56.7064
-37.9276
-42.8022
-46.7267
-41.3433
-54.0254
-46.8013
-38.1579
-32.5773
-38.5317
-32.9509
-41.2698
-40.7349
-32.3556
-32.1841
-33.1073
-28.9976
-33.0598
-28.9066
-34.7008
-34.7182
-26.1839
-26.1255
-45.876
-43.7685
-39.7098
-39.1993
-41.6476
-42.7247
-40.0745
-42.7561
-40.494
8.62926
-40.5537
8.55703
-38.8615
-38.8525
102.004
101.791
-47.0662
-31.5393
-42.109
-22.365
-43.1664
-50.0355
-22.3268
-15.0992
-35.7775
-33.5293
-35.773
-33.4743
-36.6297
-36.649
-32.9473
-32.9636
-44.381
-43.5289
-46.7119
-50.5336
-45.6162
-45.8759
-48.0736
-43.3177
-92.4044
78.3605
-88.0101
85.2569
-93.6019
-89.8701
154.916
146.203
-51.2682
-56.6792
-37.9144
-42.7823
-46.724
-41.3367
-54.0017
-46.7809
-38.0346
-32.4946
-38.4362
-32.8666
-40.6188
-41.1589
-32.259
-32.0883
-45.7947
-43.7279
-39.6676
-39.1818
-41.596
-42.6621
-40.0555
-42.7294
-46.9918
-31.5406
-42.129
-22.3717
-50.0021
-43.1696
-15.0985
-22.3323
-44.336
-43.5024
-46.6983
-50.5004
-45.8373
-45.5631
-43.3061
-48.1478
-36.7359
-35.4772
-36.1829
-35.2446
-38.1518
-37.9524
-35.2029
-35.0844
-39.513
-46.3027
-42.6706
-51.1698
-31.9369
-31.9369
-47.7377
-50.3623
-38.3542
-36.8868
-38.3483
-36.8815
-39.4656
-39.4691
-36.3806
-36.3777
-47.6561
-46.9054
-48.9052
-45.4626
-46.2415
-47.5054
-44.4055
-44.7521
-35.2325
-36.1917
-35.2285
-36.1895
-35.1371
-35.1406
-37.3785
-37.3778
-58.3042
-66.7106
-54.0801
-58.7873
-53.575
-55.1227
-70.5889
-65.2733
18.1223
-20.3993
18.2108
-20.3816
28.2527
28.2794
-54.8229
-54.8328
-67.5781
-64.3066
-67.5726
-64.3048
-69.6647
-69.6627
-62.4539
-62.4529
-36.7185
-35.4632
-36.1464
-35.2209
-38.1332
-37.9286
-35.1892
-35.0674
-39.5095
-46.2742
-42.656
-51.1331
-31.923
-31.9321
-47.7062
-50.3239
-47.6907
-46.9539
-48.9068
-45.47
-47.5044
-46.2369
-44.4366
-44.7786
-58.2852
-66.6945
-54.0861
-58.7741
-55.1142
-53.5811
-65.2481
-70.568
-51.6899
-51.5275
-46.7629
-41.1804
-41.7952
-47.1538
-38.4628
-38.8204
-51.692
-51.5515
-46.7698
-41.1784
-47.163
-41.7948
-38.7988
-38.4471
-63.2807
-63.2714
-58.0719
-49.9472
-58.0604
-49.9372
-47.0677
-47.0733
-16.0693
-16.0715
-10.2358
3.00457
3.00214
-10.239
11.7637
11.7631
180.58
204.724
169.993
170.042