# vtk DataFile Version 2.0
tet_velo
ASCII
DATASET UNSTRUCTURED_GRID
POINTS 29498 float
-0.769869 0.195 -1.915
-0.692526 0.225 1.835
-0.725 0.65895 -1.795
-0.702093 0.655 1.625
0.769869 0.195 -1.915
0.692533 0.225 1.835
0.732837 0.645 -1.795
0.702106 0.655 1.625
-0.752344 0.196744 -0.665
-0.729057 0.20425 0.585
-0.841336 0.781605 -0.655
-0.826183 0.772771 0.485
0.752339 0.196751 -0.665
0.729121 0.20419 0.585
0.846853 0.772593 -0.655
0.82803 0.767346 0.485
-1.56616 -0.0972452 -2.86846
-1.55737 -0.0652157 -1.91251
-1.53816 -0.0578236 -0.659669
-1.49327 -0.0538758 0.615313
-1.44556 -0.0446777 1.87002
-1.44018 -0.056156 2.8351
-1.4492 -0.0738831 3.78327
-1.56104 0.155803 -2.848
-1.55839 0.201287 -1.90407
-1.55098 0.216815 -0.672634
-1.49728 0.208407 0.568707
-1.42875 0.198369 1.80226
-1.42945 0.185236 2.76578
-1.44466 0.170293 3.71754
-1.54261 0.655529 -2.77622
-1.54482 0.703914 -1.82774
-1.61097 0.783283 -0.671293
-1.56979 0.762698 0.477366
-1.45754 0.675402 1.63593
-1.44713 0.662251 2.604
-1.45828 0.660568 3.5735
-1.52746 1.4801 -2.75125
-1.53493 1.53024 -1.81925
-1.56755 1.59062 -0.698464
-1.57977 1.5831 0.398614
-1.55382 1.51895 1.52055
-1.52802 1.47794 2.45496
-1.51273 1.45872 3.41244
-0.792564 -0.10373 -2.87555
-0.779492 -0.0704323 -1.92287
-0.764108 -0.0695366 -0.658281
-0.7416 -0.0560272 0.629219
-0.71558 -0.0298944 1.89433
-0.709945 -0.0481 2.85159
-0.71415 -0.0719374 3.79282
-0.788222 0.144629 -2.85019
-0.699941 0.191682 2.77938
-0.710253 0.170425 3.72474
-0.767512 0.631187 -2.76262
-0.711232 0.653721 2.60181
-0.720498 0.654455 3.57303
-0.741939 1.46599 -2.7378
-0.7413 1.51864 -1.80443
-0.773954 1.58906 -0.689532
-0.803251 1.58359 0.397542
-0.797266 1.51265 1.5129
-0.777557 1.46945 2.44731
-0.763415 1.45123 3.40688
0.749713 -0.106624 -2.87555
0.75977 -0.0713526 -1.92287
0.750031 -0.0701111 -0.658281
0.729098 -0.0564749 0.629219
0.706374 -0.030201 1.89433
0.724287 -0.0486895 2.85159
0.741371 -0.0729229 3.79282
0.747342 0.140737 -2.85019
0.722385 0.191245 2.77938
0.740795 0.169496 3.72474
0.750888 0.622915 -2.76262
0.723699 0.653071 2.60181
0.738579 0.653328 3.57303
0.817513 1.45897 -2.7378
0.832117 1.51137 -1.80443
0.822346 1.58289 -0.689532
0.774265 1.57921 0.397542
0.730728 1.50983 1.5129
0.726361 1.46725 2.44731
0.734112 1.44919 3.40688
1.52672 -0.103874 -2.86846
1.53773 -0.0696556 -1.91251
1.52776 -0.0610644 -0.659669
1.48904 -0.0560202 0.615313
1.448 -0.0459736 1.87002
1.45688 -0.0577714 2.8351
1.47611 -0.0761153 3.78327
1.52757 0.147405 -2.848
1.54982 0.195194 -1.90407
1.54961 0.212358 -0.672635
1.50224 0.205822 0.568707
1.43909 0.197437 1.80226
1.45191 0.183832 2.76578
1.474 0.168137 3.71754
1.53508 0.641503 -2.77622
1.5542 0.687885 -1.82774
1.62009 0.771358 -0.671293
1.5749 0.755687 0.477366
1.46201 0.673298 1.63593
1.45901 0.660289 2.604
1.47576 0.658005 3.5735
1.59575 1.46692 -2.75125
1.61219 1.51682 -1.81925
1.61021 1.57914 -0.698465
1.56154 1.57471 0.398614
1.50415 1.51326 1.52055
1.48686 1.47337 2.45496
1.48821 1.4545 3.41244
-0.714834 0.426975 -1.8224
0 0.181341 -1.92866
-0.770795 0.186183 -1.29
-0.703816 0.44 1.73651
3.51667e-06 0.238957 1.82104
-0.725885 0.199532 1.21
0.0039185 0.68002 -1.82305
-0.811478 0.748587 -1.225
6.49691e-06 0.810472 1.78047
-0.79087 0.740618 1.055
0.717349 0.42 -1.821
0.770715 0.186265 -1.29
0.703854 0.44 1.73653
0.737084 0.188338 1.21
0.820346 0.739298 -1.225
0.791537 0.737643 1.055
-0.734461 0.206737 -0.04
-0.890069 0.489174 -0.66
-2.11589e-06 0.196967 -0.665
-0.862506 0.48851 0.535
3.20781e-05 0.20271 0.585
-0.8477 0.791128 -0.085
0.00275875 0.9504 -0.655
0.000923358 1.27814 0.485
0.734466 0.206735 -0.04
0.890222 0.484672 -0.66
0.862521 0.485768 0.535
0.85131 0.783839 -0.085
-0.82226 0.458075 -1.2575
-0.89429 0.488842 -0.0625
-0.789224 0.464255 1.1325
-1.05794e-06 0.184337 -1.29
1.49811e-05 0.201668 -0.04
1.77974e-05 0.218407 1.21
0.00195925 0.423487 -1.98916
5.00679e-06 0.44 2.00469
0.00333862 0.86944 -1.225
0.00184105 1.25765 -0.085
0.000464927 0.99975 1.055
0.822333 0.452336 -1.2575
0.894292 0.48522 -0.0625
0.789087 0.462884 1.1325
-1.16413 0.198144 -1.90954
-0.774681 0.0622838 -1.91893
-0.779046 0.169815 -2.38259
-1.06064 0.211685 1.81863
-0.704053 0.0975528 1.86467
-0.696233 0.208341 2.30719
-1.13491 0.681432 -1.81137
-0.746256 0.645068 -2.27881
-0.73315 1.0888 -1.79972
-1.07982 0.665201 1.63046
-0.706662 0.65436 2.11341
-0.749679 1.08382 1.56895
0.764819 0.0618237 -1.91893
0.758606 0.167868 -2.38259
1.15984 0.195097 -1.90954
0.699454 0.0973995 1.86467
0.707459 0.208122 2.30719
1.06581 0.211218 1.81863
0.741863 0.633958 -2.27881
0.782477 1.07818 -1.79972
1.14352 0.666443 -1.81137
0.712903 0.654035 2.11341
0.716417 1.08241 1.56895
1.08206 0.664149 1.63046
-1.15166 0.20678 -0.668817
-0.758226 0.0636039 -0.66164
-1.11317 0.206328 0.576854
-0.735329 0.0741113 0.60711
-1.22615 0.782444 -0.663146
-0.807645 1.18533 -0.672266
-1.19799 0.767734 0.481183
-0.814717 1.17818 0.441271
0.751185 0.0633199 -0.66164
1.15098 0.204554 -0.668817
0.72911 0.0738577 0.60711
1.11568 0.205006 0.576854
0.8346 1.17774 -0.672266
1.23347 0.771976 -0.663146
0.801147 1.17328 0.441271
1.20146 0.761517 0.481183
-1.56176 -0.0812305 -2.39049
-1.5636 0.0292789 -2.85823
-1.17936 -0.100488 -2.87201
-1.54777 -0.0615197 -1.28609
-1.55788 0.0680356 -1.90829
-1.16843 -0.067824 -1.91769
-1.51572 -0.0558497 -0.0221782
-1.54457 0.0794958 -0.666152
-1.15114 -0.0636801 -0.658975
-1.46942 -0.0492768 1.24267
-1.49528 0.0772655 0.59201
-1.11744 -0.0549515 0.622266
-1.44287 -0.0504168 2.35256
-1.43716 0.0768457 1.83614
-1.08057 -0.0372861 1.88218
-1.44469 -0.0650195 3.30918
-1.43481 0.0645402 2.80044
-1.07506 -0.052128 2.84335
-1.44693 0.048205 3.7504
-1.08168 -0.0729102 3.78804
-1.55972 0.178545 -2.37604
-1.55183 0.405666 -2.81211
-1.17463 0.150216 -2.8491
-1.55469 0.209051 -1.28835
-1.55161 0.452601 -1.86591
-1.52413 0.212611 -0.0519636
-1.58098 0.500049 -0.671964
-1.46302 0.203388 1.18548
-1.53354 0.485553 0.523036
-1.4291 0.191803 2.28402
-1.44314 0.436886 1.71909
-1.43706 0.177765 3.24166
-1.43829 0.423744 2.68489
-1.06469 0.188459 2.77258
-1.45147 0.41543 3.64552
-1.07746 0.170359 3.72114
-1.54372 0.679722 -2.30198
-1.53504 1.06781 -2.76374
-1.15506 0.643358 -2.76942
-1.5779 0.743599 -1.24952
-1.53988 1.11708 -1.8235
-1.59038 0.772991 -0.0969636
-1.58926 1.18695 -0.684879
-1.51366 0.71905 1.05665
-1.57478 1.1729 0.43799
-1.45234 0.668826 2.11996
-1.50568 1.09718 1.57824
-1.45271 0.661409 3.08875
-1.48758 1.0701 2.52948
-1.07918 0.657986 2.6029
-1.48551 1.05964 3.49297
-1.08939 0.657511 3.57326
-1.53119 1.50517 -2.28525
-1.1347 1.47304 -2.74453
-1.55124 1.56043 -1.25886
-1.13811 1.52444 -1.81184
-1.57366 1.58686 -0.149925
-1.17075 1.58984 -0.693998
-1.5668 1.55103 0.959582
-1.19151 1.58335 0.398078
-1.54092 1.49845 1.98775
-1.17554 1.5158 1.51672
-1.52038 1.46833 2.9337
-1.15279 1.4737 2.45113
-1.13807 1.45497 3.40966
-0.786028 -0.0870813 -2.39921
-0.790393 0.0204496 -2.86287
-0.0214257 -0.105177 -2.87555
-0.7718 -0.0699845 -1.29057
-0.00986132 -0.0708925 -1.92287
-0.752854 -0.0627819 -0.0145308
-0.00703843 -0.0698238 -0.658281
-0.72859 -0.0429608 1.26178
-0.00625101 -0.056251 0.629219
-0.712762 -0.0389972 2.37296
-0.00460281 -0.0300477 1.89433
-0.712047 -0.0600187 3.3222
-0.704943 0.0717911 2.81549
0.00717105 -0.0483947 2.85159
-0.712202 0.0492439 3.75878
0.0136104 -0.0724301 3.79282
-0.777867 0.387908 -2.8064
-0.0204402 0.142683 -2.85019
-0.705097 0.181054 3.25206
-0.705586 0.422702 2.6906
0.0112221 0.191464 2.77938
-0.715376 0.41244 3.64888
0.015271 0.169961 3.72474
-0.754726 1.04859 -2.75021
-0.00831213 0.627051 -2.76262
-0.715865 0.654088 3.08742
-0.744394 1.06159 2.52456
0.0062337 0.653396 2.60181
-0.741956 1.05284 3.48996
0.00904047 0.653891 3.57303
-0.741619 1.49232 -2.27112
0.0377868 1.46248 -2.7378
-0.757627 1.55385 -1.24698
0.0454088 1.515 -1.80443
-0.788603 1.58632 -0.145995
0.0241958 1.58597 -0.689532
-0.800258 1.54812 0.95522
-0.0144931 1.5814 0.397542
-0.787411 1.49105 1.9801
-0.0332691 1.51124 1.5129
-0.770486 1.46034 2.9271
-0.0255981 1.46835 2.44731
-0.0146515 1.45021 3.40688
0.754741 -0.0889882 -2.39921
0.748527 0.0170566 -2.86287
1.13821 -0.105249 -2.87201
0.7549 -0.0707319 -1.29057
1.14875 -0.0705041 -1.91769
0.739564 -0.063293 -0.0145308
1.13889 -0.0655877 -0.658975
0.717736 -0.0433379 1.26178
1.10907 -0.0562476 0.622266
0.71533 -0.0394452 2.37296
1.07719 -0.0380873 1.88218
0.732829 -0.0608062 3.32221
0.723336 0.0712777 2.81549
1.09058 -0.0532305 2.84335
0.741083 0.0482868 3.75878
1.10874 -0.0745191 3.78804
0.749115 0.381826 -2.8064
1.13746 0.144071 -2.8491
0.73159 0.180371 3.25206
0.723042 0.422158 2.6906
1.08715 0.187539 2.77258
0.739687 0.411412 3.64888
1.1074 0.168817 3.72114
0.7842 1.04094 -2.75021
1.14299 0.632209 -2.76942
0.731139 0.653199 3.08742
0.72503 1.06016 2.52456
1.09136 0.65668 2.6029
0.736345 1.05126 3.48996
1.10717 0.655667 3.57326
0.824815 1.48517 -2.27112
1.20663 1.46294 -2.74453
0.827232 1.54713 -1.24698
1.22215 1.51409 -1.81184
0.798305 1.58105 -0.145995
1.21628 1.58102 -0.693999
0.752496 1.54452 0.95522
1.1679 1.57696 0.398078
0.728544 1.48854 1.9801
1.11744 1.51154 1.51672
0.730236 1.45822 2.9271
1.10661 1.47031 2.45113
1.11116 1.45185 3.40966
1.53222 -0.0867647 -2.39049
1.52714 0.0217656 -2.85823
1.53274 -0.06536 -1.28609
1.54377 0.0627692 -1.90829
1.5084 -0.0585423 -0.0221783
1.53869 0.0756468 -0.666152
1.46852 -0.0509969 1.24267
1.49564 0.0749009 0.59201
1.45244 -0.0518725 2.35256
1.44354 0.0757315 1.83614
1.4665 -0.0669434 3.30918
1.4544 0.0630304 2.80044
1.47505 0.0460108 3.75041
1.5387 0.171299 -2.37604
1.53133 0.394454 -2.81211
1.54971 0.203776 -1.28835
1.55201 0.44154 -1.86591
1.52592 0.20909 -0.0519637
1.58485 0.491858 -0.671964
1.47066 0.201629 1.18548
1.53857 0.480755 0.523036
1.4455 0.190634 2.28402
1.45055 0.435367 1.71909
1.46296 0.175985 3.24166
1.45546 0.42206 2.68489
1.47488 0.413071 3.64552
1.54464 0.664694 -2.30198
1.56541 1.05421 -2.76374
1.58714 0.729622 -1.24952
1.58319 1.10235 -1.8235
1.59749 0.763523 -0.0969637
[...]
POINT_DATA 29498
VECTORS point_vectors float
-0.905753 -0.865147 1.91098
0.19732 0.31937 1.59232
-2.00546 1.28592 3.05368
0.0272791 -0.196932 0.327319
0.906189 -0.872111 1.90622
-0.199329 0.323411 1.6059
2.16143 0.744983 3.89667
-0.0257968 -0.194852 0.32309
0.0128406 -0.00269865 0.25015
-0.0837327 -0.00172514 0.42411
-0.0714883 -0.0563346 0.305951
0.0335771 0.0323032 0.211828
-0.0123747 -0.00250269 0.245809
0.0628413 -0.00644185 0.300133
0.105789 -0.0865187 0.471532
-0.0105518 0.0102996 0.0678017
-0.602815 -0.279021 19.8727
-1.11017 -0.629909 20.389
-0.511313 -0.55332 21.224
0.147742 -0.177208 21.3911
0.704304 0.100904 21.3045
0.930442 0.241007 21.0184
0.872664 0.139516 20.7095
-0.705024 -0.205746 19.7861
-1.45513 -0.534081 20.3273
-0.753766 -0.608598 21.2978
0.124586 -0.315721 21.5074
0.833842 -0.0831637 21.359
1.11991 0.0315504 21.0236
1.13233 -0.0408508 20.5086
-0.804901 0.0250065 19.7054
-1.7156 0.047206 20.2674
-1.16989 -0.269136 21.2166
-0.237682 -0.405252 21.5271
0.579335 -0.505979 21.5183
0.977586 -0.541417 21.1813
0.946244 -0.554135 21.0972
-0.562307 0.323373 19.8834
-0.980889 0.561127 20.2467
-0.993482 0.382325 20.9381
-0.540223 -0.0121262 21.3265
-0.0586447 -0.323656 21.2516
0.198524 -0.514017 21.1402
0.323642 -0.560327 20.8966
-0.635758 -0.640952 19.2732
-1.89819 -3.39343 20.8277
0.0831483 -0.125591 20.495
-0.0928905 0.332001 19.1051
0.416957 1.23634 18.659
0.9906 1.65561 19.7685
0.838828 1.31994 19.5429
-0.791257 -0.502415 18.9503
1.53975 1.69408 13.7616
1.58625 1.25793 16.0878
-1.0038 0.140355 18.5752
1.59263 -0.371241 7.53366
2.32823 0.0842487 11.9561
-0.555188 0.74619 19.3789
-1.19964 1.80139 19.8296
-1.60063 1.73925 20.9119
-0.964613 0.54865 21.952
-0.444501 -0.278642 21.7048
-0.101176 -0.725674 20.9108
0.226634 -1.08591 19.7721
0.615391 -0.65958 19.2476
1.86846 -3.51513 20.8662
-0.0669884 -0.112967 20.4304
0.0980958 0.320554 19.085
-0.401434 1.23205 18.5863
-1.01502 1.6419 19.8634
-0.855489 1.26576 19.7084
0.772432 -0.521231 18.922
-1.61826 1.68128 14.2081
-1.61783 1.21287 16.2925
0.998725 0.134245 18.5339
-1.64215 -0.346459 7.96924
-2.29994 0.0460612 12.3003
0.594308 0.698717 19.4262
1.26367 1.62602 19.8789
1.62572 1.61715 20.928
0.966627 0.584026 21.9831
0.453247 -0.244868 21.3805
0.10852 -0.712582 20.4639
-0.210923 -1.08818 19.6823
0.606214 -0.295623 19.855
1.11778 -0.650411 20.3917
0.509344 -0.561245 21.229
-0.14809 -0.179971 21.3909
-0.69622 0.099005 21.2975
-0.905305 0.239625 21.0314
-0.842927 0.110987 20.7317
0.719705 -0.219435 19.7637
1.46539 -0.549007 20.3289
0.752214 -0.611336 21.2973
-0.121596 -0.317583 21.5021
-0.817993 -0.0854467 21.3657
-1.08153 0.0258585 21.0282
-1.05325 -0.0769131 20.6298
0.810795 0.0164059 19.7002
1.69343 0.0209877 20.2737
1.15352 -0.277575 21.2149
0.234634 -0.402738 21.524
-0.576923 -0.493297 21.4207
-0.963826 -0.518734 21.1605
-0.928758 -0.55203 21.0835
0.549334 0.299311 19.9173
0.934615 0.49672 20.2686
0.964973 0.347974 20.9358
0.553029 -0.0124099 21.337
0.074548 -0.344941 21.2763
-0.193692 -0.542837 21.1693
-0.333954 -0.572029 20.8901
-1.30027 0.0562947 0.643811
-0.000167574 -0.13093 0.625303
0.0121733 -0.00284334 0.200027
0.0499538 -0.0451831 0.141631
0 0 0
0.000760859 0.034298 0.451154
-0.00024069 0.22637 0.27828
-0.0298808 -0.00784869 0.127185
0.000703871 0.034101 -0.0537929
0.0354889 0.0209007 0.207152
1.15681 0.0508499 0.562149
-0.0116331 -0.00271988 0.191505
-0.0473983 -0.0415643 0.126961
0.0164578 0.0397536 1.0461
0.244592 -0.0639307 1.07344
-0.0241365 0.0154953 0.147255
-0.000365707 0.000284328 0.00964896
-0.000446826 -0.00133078 0.0167304
4.7508e-05 0.00255556 0.0994777
0.000565023 0.00106931 0.00708468
0 0 0
0.0278067 0.0329928 0.312313
0 0 0
-1.34267e-05 -0.000314247 0.00338817
0.000297488 0.000221917 0.00749694
0.000411998 -0.00122228 0.0156784
-0.000485218 0.000914732 0.00607937
-0.0225608 0.0275859 0.265407
0 0 0
0 0 0
0.00132772 0.0029442 0.0227879
-4.29411e-07 3.10646e-07 3.52668e-05
-1.56039e-05 -0.000261301 0.0404132
0 0 0
0.0225617 0.104759 0.046932
8.0139e-05 -0.00641083 0.00142862
1.09399e-06 0.000202256 0.00108028
-7.60753e-06 0.0237903 0.213201
1.74878e-05 0.000359131 -0.00187475
0 0 0
0 0 0
-0.00120487 0.0027672 0.02095
-2.76908 -1.44848 20.1601
-2.96805 -5.13804 20.9806
-1.99588 -1.51472 17.9311
1.28255 0.758993 18.5156
0.314725 1.22573 12.7007
1.11963 1.08914 9.60126
-3.61211 0.531574 20.0401
-2.78295 1.02705 16.8198
-2.69951 3.0216 19.456
1.12427 -0.458613 17.8753
0.386983 -0.956283 4.38717
-0.00837003 -0.267793 9.78953
2.92694 -5.22479 21.0168
1.989 -1.57381 17.8397
2.78151 -1.4732 20.1549
-0.30149 1.22365 12.6404
-1.146 1.16586 10.0301
-1.28594 0.737805 18.597
2.81046 0.973726 16.7565
2.8039 2.8412 19.5252
3.60032 0.458206 20.0603
-0.426986 -0.943427 4.5817
0.022733 -0.214774 8.124
-1.1183 -0.459029 17.8958
-0.646956 -1.3654 21.0158
0.420776 0.159921 14.493
0.378916 0.167504 18.6655
-0.464666 0.309581 12.7444
-1.86174 -0.550215 21.5503
-3.35574 1.7524 20.9438
-0.120671 -0.865034 21.1155
-1.16992 0.0187905 18.7063
-0.408856 0.157098 14.3117
0.638968 -1.36596 21.0037
0.459175 0.286487 12.7019
-0.379433 0.161699 18.714
3.29352 1.56594 21.0208
1.83508 -0.550914 21.5607
1.07673 0.0586176 17.9196
0.118416 -0.856472 21.1396
-0.893897 -0.454143 20.018
-0.667612 -0.253844 19.8353
-0.65905 -0.419625 19.626
-0.893763 -0.663611 20.9777
-1.27018 -0.602318 20.3648
-1.65495 -1.44325 20.4145
-0.155886 -0.380285 21.361
-0.635016 -0.591224 21.2534
-0.145931 -0.812328 21.5216
0.419994 -0.0189334 21.3954
0.144479 -0.258799 21.4459
0.392315 0.0480077 21.4209
0.870449 0.184747 21.164
0.776991 0.0033257 21.3771
0.985206 0.689932 21.0754
0.920093 0.162261 20.8648
1.03949 0.136331 20.9641
1.32227 0.868691 20.7636
1.06003 0.0640162 20.5021
1.10953 0.719041 21.0081
-1.13055 -0.34644 19.8949
-0.773447 -0.110948 19.7394
-0.810822 -0.362885 19.4537
-1.21957 -0.651255 21.0024
-1.61534 -0.27249 20.3003
-0.302821 -0.488386 21.4334
-1.00604 -0.474867 21.2665
0.471093 -0.186799 21.4923
-0.0680383 -0.400046 21.5153
1.03003 -0.035278 21.2082
0.751566 -0.336604 21.5154
1.1113 -0.0260313 20.8584
1.15908 -0.235703 21.0934
1.77198 0.738151 19.57
1.13146 -0.297273 20.7896
1.53861 0.500191 20.1325
-1.30197 0.0489419 19.8054
-0.745318 0.228722 19.7739
-1.01479 0.0563578 19.2222
-1.55828 -0.115695 20.8864
-1.37849 0.434937 20.2314
-0.741532 -0.382075 21.4602
-1.19554 0.110965 21.071
0.187051 -0.434458 21.5028
-0.489546 -0.260077 21.4609
0.807443 -0.51217 21.34
0.148113 -0.527433 21.33
1.10508 -0.513061 20.9643
0.504006 -0.640711 21.1514
1.6634 -0.560411 18.7231
0.741802 -0.710651 20.613
1.64653 -0.333383 19.242
-0.791845 0.459078 20.0004
-0.625662 0.512968 19.6571
-1.03919 0.50685 20.6229
-1.20544 1.03986 20.0862
-0.818519 0.196433 21.2036
-1.37271 0.840559 20.9793
-0.274335 -0.187535 21.3473
-0.769851 0.138141 21.5836
0.087255 -0.419274 21.1965
-0.210954 -0.387349 21.414
0.317984 -0.549358 20.9994
0.117225 -0.68386 21.3234
0.361111 -0.834106 20.9642
-1.3177 -1.66583 18.9948
-0.719598 -0.619476 19.119
-0.0207596 -0.915895 18.8361
-0.428741 -0.900968 21.6413
-0.00123008 -4.29602 21.8132
0.0715554 0.178729 19.638
0.00332689 -0.143426 19.3627
0.0251516 0.622258 18.8141
-0.00906271 -0.048828 16.9308
0.725169 1.5212 19.4132
0.0158447 0.758254 16.2043
1.1352 1.41801 18.9305
1.16882 1.75862 16.7959
-0.00131466 1.51085 17.5953
1.10705 1.32159 18.4017
-0.0078811 1.6433 18.7965
-0.93057 -0.246825 18.71
-0.029473 -0.751719 18.296
1.68711 1.75139 16.2757
2.34031 0.519987 8.75309
-0.0120984 1.10138 7.78449
2.31118 1.0095 12.9281
-0.0332441 1.39552 11.8926
-0.820703 0.655031 18.9348
-0.0173434 0.28106 17.6536
2.28091 -0.0542163 10.0691
0.373016 -0.766643 11.3727
-0.030028 1.05906 -3.09435
0.776391 -1.14963 13.376
-0.0827168 0.806877 -1.46809
-0.907023 1.33013 19.3978
0.0413948 0.982975 19.0899
-1.40878 1.80815 20.4356
0.0997349 2.60603 19.5592
-1.55506 1.37662 21.7232
0.0701859 3.29535 20.5394
-0.578502 0.00802193 21.8008
-0.026545 1.37939 22.3624
-0.315592 -0.475236 21.3921
-0.0378765 0.173339 17.7818
0.0905773 -0.951312 20.4418
-0.0112452 -0.27549 14.0397
0.00243704 -0.846774 13.4299
1.29072 -1.72235 18.9548
0.699894 -0.635835 19.09
0.669101 -0.452949 19.5861
0.437582 -0.895137 21.6543
1.68527 -1.51243 20.4143
-0.0586856 0.175066 19.617
0.120739 -0.81053 21.5292
-0.0295503 0.599285 18.736
-0.396723 0.0650986 21.4164
-0.728362 1.52466 19.4891
-0.983861 0.702104 21.07
-1.171 1.39412 18.9924
-1.23739 1.73707 17.1557
-1.30631 0.831071 20.7748
-1.13743 1.27623 18.6059
-1.11546 0.667326 20.9651
0.923709 -0.26028 18.6484
0.824085 -0.379769 19.4031
-1.73893 1.75431 16.4708
-2.33705 0.548087 9.27926
-1.75398 0.662982 19.7008
-2.2742 0.954424 13.4012
-1.56117 0.477213 20.1155
0.842344 0.630677 18.9635
1.02122 0.0467911 19.2034
-2.28977 -0.0314237 10.4792
-0.345763 -0.763786 10.693
-1.6407 -0.556708 18.8505
-0.783376 -1.14634 13.2192
-1.61647 -0.329533 19.3618
0.950643 1.21584 19.4685
0.630666 0.470549 19.6883
1.44304 1.66244 20.473
1.2154 0.912396 20.1168
1.56732 1.35548 21.7242
1.34009 0.755996 20.9879
0.590643 0.0449223 21.8539
0.791242 0.146249 21.6101
0.324373 -0.436602 20.8538
0.240278 -0.387537 21.4503
-0.108113 -0.963351 20.0343
-0.0998713 -0.698025 21.3361
-0.358921 -0.856899 21.0013
0.903855 -0.47456 20.0143
0.680535 -0.267675 19.8126
0.896187 -0.673316 20.9827
1.28932 -0.620984 20.3665
0.150401 -0.382931 21.3671
0.637174 -0.599697 21.256
-0.420241 -0.0259593 21.3928
-0.141014 -0.262078 21.4445
-0.854087 0.177585 21.1667
-0.767257 0.0141829 21.3249
-0.89883 0.151247 20.8938
-1.01185 0.137039 20.9837
-1.02163 0.0373202 20.5527
1.15426 -0.361341 19.8851
0.786015 -0.123291 19.7221
1.22129 -0.659396 21.0055
1.61483 -0.290827 20.3013
0.302518 -0.489157 21.431
0.999722 -0.478692 21.264
-0.465831 -0.18742 21.4861
0.0696814 -0.401387 21.5149
-1.00128 -0.0453049 21.2171
-0.745821 -0.31146 21.4084
-1.07483 -0.0142135 20.8349
-1.12484 -0.229384 21.1001
-1.07027 -0.317599 20.8714
1.30079 0.03382 19.8074
0.743868 0.214875 19.7884
1.5341 -0.129858 20.8866
1.34448 0.390589 20.249
0.729518 -0.383182 21.4549
1.16266 0.0954533 21.0696
-0.183038 -0.430542 21.4987
0.491882 -0.264881 21.4675
-0.797818 -0.504106 21.3385
-0.149339 -0.542632 21.3504
-1.09473 -0.498122 20.9466
-0.512972 -0.657536 21.1529
-0.748284 -0.710569 20.6162
0.75776 0.416881 20.0359
1.00426 0.465743 20.6177
0.814583 0.185887 21.2043
0.287983 -0.193925 21.357
-0.0725778 -0.441908 21.2094
-0.324957 -0.583685 21.0332
-1.00267 -0.426081 19.9709
-1.63754 -1.70176 18.5292
-1.19819 -0.864427 19.6755
-1.63795 -0.748743 19.3134
-0.738559 -0.402481 19.5371
-2.18536 -1.55146 20.3059
-1.04607 -0.667759 20.9842
0.220501 -0.233646 16.4779
-0.802918 -1.20507 21.3726
-1.60121 -1.71996 21.5908
-0.234935 -1.1425 21.5332
-0.234379 -0.451436 21.3983
-0.0360547 0.296398 13.3271
0.190814 -0.393176 21.5306
-0.0371747 -0.577527 19.3763
0.442652 0.0769555 20.6161
0.451614 -0.107672 21.4415
-0.191659 0.53344 12.2056
0.610707 0.380593 21.2535
0.697486 0.547401 18.5352
1.16862 0.758053 20.1917
0.968268 0.0827225 21.149
0.810667 1.51035 15.1613
1.20177 0.800766 20.9845
1.62586 0.684442 19.1807
1.53469 0.78802 20.4299
1.0211 0.0410024 20.9667
1.41265 1.57732 17.5812
1.30946 0.835586 20.7493
1.53906 0.658972 19.4731
1.34413 0.687292 20.7824
-1.23888 -0.174994 19.8381
-2.76577 -0.566466 16.7611
-2.12472 0.269476 19.034
-0.956567 -0.170758 19.304
-3.96124 -0.612774 20.0193
-1.46217 -0.397863 20.9508
-2.55114 -0.100994 21.208
-1.48509 -0.937611 21.5428
-0.526723 -0.48568 21.465
-1.07356 -0.855756 21.7225
0.263634 -0.452061 19.5629
0.366077 -0.347678 21.5046
0.595923 -0.647421 19.5705
1.34187 0.190759 16.9072
0.994745 -0.302139 21.3351
1.23487 -0.531189 5.2093
1.38129 -0.633043 18.4528
1.95404 0.0845791 18.4646
1.20881 -0.250367 20.8381
2.47905 1.00886 11.5971
1.71896 -0.428852 19.4226
1.93807 0.10246 18.7613
-1.1048 0.364576 19.8815
-1.63542 1.63184 18.5355
-0.943944 0.820197 19.7484
-0.859354 0.401809 19.3914
-2.15316 1.16252 19.9914
-1.38968 0.306555 20.7223
-2.82082 2.14261 20.654
-1.35371 1.01651 20.5743
-2.01328 0.397909 21.1983
-0.896876 -0.0909538 21.3627
-2.99366 0.83237 21.3846
-1.19097 0.523317 21.4181
-0.911016 -0.371331 21.8498
-0.13084 -0.410546 21.4613
-0.0627189 -0.10062 13.6573
-0.428063 -0.17668 21.5327
-0.0120486 -0.894541 20.9481
0.325003 -0.577088 21.2762
-0.0654182 -0.463816 10.3477
-0.0758568 -0.535242 21.3373
0.5983 -1.03849 20.2918
0.680969 -0.720338 21.1892
0.539111 -1.0287 12.0688
0.268721 -0.779768 21.2741
0.799509 -1.05635 20.3491
1.62514 -1.77305 18.4501
-0.0322651 -2.76347 18.2663
-0.0408257 -2.9099 15.8836
-0.0290258 -0.898491 18.5709
0.00724044 -5.23205 23.1126
-0.209025 -0.223068 16.2538
0.00763892 -0.883038 21.3459
0.0019447 0.140208 11.0528
0.0440797 0.290693 13.1869
-0.000514989 -0.0451521 17.8862
-0.024863 -0.0837894 9.6288
0.136351 0.468062 12.5177
0.0186006 0.268416 16.3569
0.00557258 0.551436 9.24556
-0.826827 1.5302 15.3848
0.00678841 1.1614 16.9575
-0.00691883 0.293887 4.69063
-0.00783796 1.36395 13.3289
-1.45988 1.54556 17.6445
-0.0105586 1.58382 18.4028
-0.0158559 1.8313 10.6237
-0.0327859 1.73692 16.0979
2.76039 -0.605331 16.6802
-0.0125955 2.27947 14.0359
-0.0257442 -0.3555 17.8385
-1.27363 -0.46909 5.46349
0.0137902 0.211592 -2.07256
-0.0258585 0.621294 -0.386605
-2.47997 1.03873 12.1571
-0.0674452 0.977453 -2.35529
-0.0397719 0.832416 3.52153
1.6696 1.54093 18.5973
0.0824872 1.83119 19.0309
0.0181604 0.966895 18.347
0.0838112 5.165 18.7791
2.84539 1.94035 20.71
0.084315 2.82946 20.2097
0.0983039 4.86919 17.7925
2.98245 0.782244 21.369
0.0168592 3.20575 22.2761
-0.00110365 -0.0861748 1.8952
-0.0231966 -0.0232463 12.2416
-0.0313853 0.456852 20.5833
-0.0468247 0.512744 -2.65065
0.106985 -0.430554 9.27036
-0.046758 0.0861612 15.5418
-0.0659744 1.06082 -5.6795
-0.534556 -1.02704 11.7509
-0.0577434 -0.425762 13.538
-0.0108845 1.15155 -4.71025
1.03286 -0.443921 19.959
1.23027 -0.935995 19.6276
1.69266 -0.782624 19.2595
0.744246 -0.43473 19.5063
2.19865 -1.59698 20.3086
1.05707 -0.680519 20.9892
0.776591 -1.22536 21.3945
1.58879 -1.74228 21.5999
0.210342 -1.14296 21.5253
0.230279 -0.456134 21.4037
-0.205554 -0.377047 21.5279
0.0343982 -0.575486 19.3948
-0.445762 0.0849884 20.614
-0.444253 -0.114282 21.4416
-0.594594 0.407098 21.1539
-0.697297 0.505838 18.761
-1.16453 0.762153 20.2056
-0.945716 0.069961 21.1575
-1.19468 0.787588 20.9862
-1.61417 0.644674 19.2919
-1.51838 0.727942 20.5515
-0.993963 0.0297796 20.9993
-1.29867 0.778613 20.7239
-1.49401 0.565682 19.7593
-1.35706 0.625588 20.6725
1.25554 -0.190656 19.8313
2.14606 0.242617 19.0281
0.968183 -0.180274 19.2681
3.93128 -0.657948 20.0351
1.4538 -0.408699 20.9506
2.53054 -0.130511 21.2108
1.48011 -0.946724 21.5555
0.521417 -0.487116 21.462
1.05602 -0.843365 21.7376
-0.258941 -0.45693 19.616
-0.361068 -0.3467 21.5092
-0.588656 -0.645449 19.6162
-1.32843 0.171984 17.027
-0.976939 -0.29054 21.3088
-1.36797 -0.641691 18.6042
-1.91533 0.0390598 18.783
-1.18427 -0.242486 20.8106
-1.70095 -0.433865 19.5038
-1.91457 0.0662619 18.8018
1.08888 0.336942 19.9016
0.952883 0.739778 19.791
0.855702 0.379621 19.4203
2.0796 1.01543 20.0283
1.35971 0.278537 20.7263
1.33718 0.903344 20.5816
1.9456 0.352734 21.1999
0.883369 -0.0969358 21.3607
1.18998 0.508179 21.4172
0.922938 -0.382872 21.8702
0.133479 -0.419757 21.4655
0.447315 -0.171045 21.5502
0.0194298 -0.901944 20.5957
-0.319032 -0.590176 21.2964
0.101305 -0.540823 21.3677
-0.604954 -1.05791 20.1967
-0.691234 -0.727393 21.1862
-0.258097 -0.800415 21.2615
-0.806639 -1.05753 20.3507
-1.41028 -0.843744 19.4889
-1.05028 -1.49792 21.4713
0.189479 -0.545572 21.0796
0.696843 0.453079 20.3744
1.4135 0.771741 20.4624
1.40842 0.728869 20.778
-2.06305 -0.321635 19.0477
-2.53761 -0.877625 21.5087
-0.57432 -0.843974 20.788
0.774286 -0.0207213 17.8612
1.689 0.05792 17.8925
1.92566 0.0339475 18.9595
-1.4952 0.80922 19.3959
-2.11587 0.795304 20.7624
-1.64687 -0.00327938 21.7336
-0.389483 -0.681783 21.7206
0.250397 -0.961652 20.5051
0.831627 -1.04082 19.8942
-0.0361337 -3.0663 17.2474
-0.00277736 -0.163928 13.2349
-0.00324759 0.0427771 10.2353
0.0289254 0.214409 9.21242
-0.00042995 0.925902 11.3379
-0.0151858 1.72305 15.2293
-0.0280354 -0.736473 13.6358
0.0109793 -0.436307 -0.587471
-0.0108856 1.1535 1.93703
0.0542258 2.65613 17.4891
0.0842372 4.23218 20.3034
0.00609247 0.757786 6.32624
-0.0163773 0.637526 -0.433814
-0.0441164 0.944244 -4.28134
-0.0500639 2.33052 -6.45651
1.43516 -0.90034 19.4529
1.02114 -1.52331 21.4925
-0.200165 -0.533345 21.0558
-0.697127 0.444858 20.4032
-1.40633 0.74005 20.558
-1.37956 0.649106 20.822
2.08902 -0.343488 19.0095
2.5245 -0.915784 21.5098
0.575766 -0.845449 20.826
-0.766659 -0.0323443 17.9307
-1.67117 0.0234652 18.1001
-1.89099 -0.0333722 19.1546
1.4734 0.743596 19.4517
2.05853 0.714624 20.7737
1.62403 -0.0206457 21.7292
0.388083 -0.70158 21.5999
-0.24326 -0.978094 20.3638
-0.837274 -1.04886 19.8631
0 0 0
-0.0169392 -0.436876 1.25291
0.00291909 0.00116815 0.590964
0 0 0
-0.0010824 0.00757653 0.067201
0.0115583 0.0174997 0.421629
-0.244277 0.0295135 0.121922
0 0 0
-0.0874151 -0.00170597 0.280419
0.0841978 -0.0882988 0.233629
-0.0135116 -0.00321007 -0.00386079
0.05229 -0.0164668 0.307226
0.017669 -0.452183 1.32449
0 0 0
-0.00245335 0.0011173 0.578761
0 0 0
0 0 0
-0.0110921 0.0176734 0.399552
0 0 0
0.0992344 0.00952671 0.122417
0.397063 0.00078725 1.30836
0.0137435 -0.00340449 -0.00375288
-0.0840625 -0.0887314 0.226675
-0.0498012 -0.0131314 0.290329
0.0387139 0.0395485 0.742225
-0.00026237 0.00076116 0.0648654
0 0 0
0.00419393 0.0019104 0.103861
-0.0410874 -0.0192182 0.716676
-0.00987971 0.00351722 0.079015
0 0 0
0.00200536 -0.00359955 0.0531251
-0.0275757 -0.0133133 0.114811
-0.0016068 -0.00430377 0.0320591
-0.0349883 -0.0244094 0.355644
0 0 0
0.0431149 0.0451142 0.233558
0 0 0
0.0717951 0.0770903 0.485361
0.0381077 0.00615377 0.245164
-0.0380814 0.0420134 0.761194
-0.0011621 0.000509662 0.0266157
0.000278781 0.000694954 0.0613377
0 0 0
0.0471971 0.0157257 0.737144
0 0 0
0.010662 0.00362961 0.086217
0 0 0
0.132546 -0.0617296 0.554761
0 0 0
0.00125884 -0.00414009 0.0366273
0.0141267 -0.0177631 0.266532
-0.0501373 0.0497138 0.258714
-0.0477003 0.00607105 0.331251
-0.000113468 0.00018001 0.00127057
-0.0402393 0.0441075 0.286119
-0.00275365 -0.00228382 0.0249667
0 0 0
-3.41233e-07 1.66518e-07 1.53358e-05
0 0 0
0 0 0
0.00110579 -9.74392e-06 0.0133739
0.00333603 0.0035944 0.0425588
-0.000688335 -0.00103866 0.000243759
0 0 0
0.00240013 -0.0686132 0.0213528
0 0 0
0.00761987 0.000976539 0.770747
9.04425e-05 0.330343 0.241691
3.91013e-05 0.0134354 0.0463915
0 0 0
0 0 0
0.000353701 -0.00751988 -0.00624467
0.000748711 0.0177358 -0.0761641
0.00368483 0.0103343 0.0533036
-0.00761525 0.000217892 -0.0121565
6.75787e-17 1.19054e-16 8.04373e-17
0.00295812 -0.0025844 0.0271239
0 0 0
0 0 0
0.000148661 -0.000225743 5.29316e-05
-0.003431 0.00362984 0.043566
0 0 0
0 0 0
2.94208e-17 8.46231e-18 9.00338e-17
0 0 0
0.0074343 0.000238205 -0.0116494
-0.00368301 0.0106635 0.0537527
0 0 0
-0.000557941 0.000180285 0.0265849
0 0 0
-0.000630015 -0.000183576 0.0323515
0.000171812 0.00691558 0.183383
-2.22221e-06 0.000182632 0.0277523
0 0 0
1.57342e-18 3.82756e-18 1.54768e-17
4.13645e-07 5.68628e-07 0.000201613
0 0 0
0.000377019 0.000938492 0.0169537
-0.0912738 0.0429563 0.865192
0.000129789 0.0118989 0.0607566
-0.00064023 0.666921 1.00948
3.52914e-05 0.0010472 0.0115611
0.000145831 -0.00841754 0.0923663
0 0 0
0 0 0
0 0 0
0.000470496 -0.00012727 0.0246408
0 0 0
0 0 0
0.0980361 0.0456356 0.967901
-0.000219717 0.000553013 0.0100745
0 0 0
-0.00599332 -0.00586691 0.0563584
-0.00490404 -0.00256225 0.0223053
-0.00201104 -0.0034666 0.0256893
0 0 0
-0.000463915 -0.000732591 0.0260656
0 0 0
0 0 0
-1.50981e-18 -2.0977e-18 -1.51767e-17
0 0 0
0 0 0
0.00361261 0.00260204 0.0335857
-0.000179282 0.000102763 0.00872441
0 0 0
0.011331 0.0123562 0.282896
-0.00627853 0.00513908 0.121085
0.000421385 0.000278217 0.0585868
0 0 0
-0.000940394 0.000192332 0.0548668
0 0 0
0.013892 -0.00462981 0.732218
0 0 0
-0.000265705 0.000485468 0.00417187
-1.71515e-18 3.54231e-18 4.42535e-17
0 0 0