# vtk DataFile Version 2.0
tri_press
ASCII
DATASET UNSTRUCTURED_GRID
POINTS 3682 float
-0.769869 0.195 -1.915
-0.692526 0.225 1.835
-0.725 0.65895 -1.795
-0.702093 0.655 1.625
0.769869 0.195 -1.915
0.692533 0.225 1.835
0.732837 0.645 -1.795
0.702106 0.655 1.625
-0.752344 0.196744 -0.665
-0.729057 0.20425 0.585
-0.841336 0.781605 -0.655
-0.826183 0.772771 0.485
0.752339 0.196751 -0.665
0.729121 0.20419 0.585
0.846853 0.772593 -0.655
0.82803 0.767346 0.485
-1.56616 -0.0972452 -2.86846
-1.55737 -0.0652157 -1.91251
-1.53816 -0.0578236 -0.659669
-1.49327 -0.0538758 0.615313
-1.44556 -0.0446777 1.87002
-1.44018 -0.056156 2.8351
-1.4492 -0.0738831 3.78327
-1.56104 0.155803 -2.848
-1.55839 0.201287 -1.90407
-1.55098 0.216815 -0.672634
-1.49728 0.208407 0.568707
-1.42875 0.198369 1.80226
-1.42945 0.185236 2.76578
-1.44466 0.170293 3.71754
-1.54261 0.655529 -2.77622
-1.54482 0.703914 -1.82774
-1.61097 0.783283 -0.671293
-1.56979 0.762698 0.477366
-1.45754 0.675402 1.63593
-1.44713 0.662251 2.604
-1.45828 0.660568 3.5735
-1.52746 1.4801 -2.75125
-1.53493 1.53024 -1.81925
-1.56755 1.59062 -0.698464
-1.57977 1.5831 0.398614
-1.55382 1.51895 1.52055
-1.52802 1.47794 2.45496
-1.51273 1.45872 3.41244
-0.792564 -0.10373 -2.87555
-0.779492 -0.0704323 -1.92287
-0.764108 -0.0695366 -0.658281
-0.7416 -0.0560272 0.629219
-0.71558 -0.0298944 1.89433
-0.709945 -0.0481 2.85159
-0.71415 -0.0719374 3.79282
-0.788222 0.144629 -2.85019
-0.699941 0.191682 2.77938
-0.710253 0.170425 3.72474
-0.767512 0.631187 -2.76262
-0.711232 0.653721 2.60181
-0.720498 0.654455 3.57303
-0.741939 1.46599 -2.7378
-0.7413 1.51864 -1.80443
-0.773954 1.58906 -0.689532
-0.803251 1.58359 0.397542
-0.797266 1.51265 1.5129
-0.777557 1.46945 2.44731
-0.763415 1.45123 3.40688
0.749713 -0.106624 -2.87555
0.75977 -0.0713526 -1.92287
0.750031 -0.0701111 -0.658281
0.729098 -0.0564749 0.629219
0.706374 -0.030201 1.89433
0.724287 -0.0486895 2.85159
0.741371 -0.0729229 3.79282
0.747342 0.140737 -2.85019
0.722385 0.191245 2.77938
0.740795 0.169496 3.72474
0.750888 0.622915 -2.76262
0.723699 0.653071 2.60181
0.738579 0.653328 3.57303
0.817513 1.45897 -2.7378
0.832117 1.51137 -1.80443
0.822346 1.58289 -0.689532
0.774265 1.57921 0.397542
0.730728 1.50983 1.5129
0.726361 1.46725 2.44731
0.734112 1.44919 3.40688
1.52672 -0.103874 -2.86846
1.53773 -0.0696556 -1.91251
1.52776 -0.0610644 -0.659669
1.48904 -0.0560202 0.615313
1.448 -0.0459736 1.87002
1.45688 -0.0577714 2.8351
1.47611 -0.0761153 3.78327
1.52757 0.147405 -2.848
1.54982 0.195194 -1.90407
1.54961 0.212358 -0.672635
1.50224 0.205822 0.568707
1.43909 0.197437 1.80226
1.45191 0.183832 2.76578
1.474 0.168137 3.71754
1.53508 0.641503 -2.77622
1.5542 0.687885 -1.82774
1.62009 0.771358 -0.671293
1.5749 0.755687 0.477366
1.46201 0.673298 1.63593
1.45901 0.660289 2.604
1.47576 0.658005 3.5735
1.59575 1.46692 -2.75125
1.61219 1.51682 -1.81925
1.61021 1.57914 -0.698465
1.56154 1.57471 0.398614
1.50415 1.51326 1.52055
1.48686 1.47337 2.45496
1.48821 1.4545 3.41244
-0.714834 0.426975 -1.8224
0 0.181341 -1.92866
-0.770795 0.186183 -1.29
-0.703816 0.44 1.73651
3.51667e-06 0.238957 1.82104
-0.725885 0.199532 1.21
0.0039185 0.68002 -1.82305
-0.811478 0.748587 -1.225
6.49691e-06 0.810472 1.78047
-0.79087 0.740618 1.055
0.717349 0.42 -1.821
0.770715 0.186265 -1.29
0.703854 0.44 1.73653
0.737084 0.188338 1.21
0.820346 0.739298 -1.225
0.791537 0.737643 1.055
-0.734461 0.206737 -0.04
-0.890069 0.489174 -0.66
-2.11589e-06 0.196967 -0.665
-0.862506 0.48851 0.535
3.20781e-05 0.20271 0.585
-0.8477 0.791128 -0.085
0.00275875 0.9504 -0.655
0.000923358 1.27814 0.485
0.734466 0.206735 -0.04
0.890222 0.484672 -0.66
0.862521 0.485768 0.535
0.85131 0.783839 -0.085
-0.82226 0.458075 -1.2575
0.822333 0.452336 -1.2575
-1.05794e-06 0.184337 -1.29
0.00333862 0.86944 -1.225
0.00195925 0.423487 -1.98916
-0.89429 0.488842 -0.0625
0.894292 0.48522 -0.0625
1.49811e-05 0.201668 -0.04
0.00184105 1.25765 -0.085
-0.789224 0.464255 1.1325
0.789087 0.462884 1.1325
1.77974e-05 0.218407 1.21
0.000464927 0.99975 1.055
5.00679e-06 0.44 2.00469
-0.72409 0.310987 -1.85044
-0.384935 0.181365 -1.92864
-0.775332 0.185592 -1.6025
-0.681352 0.3325 1.76893
-0.346261 0.220902 1.8391
-0.716016 0.205455 1.5225
-0.728047 0.542962 -1.81683
-0.360541 0.631376 -1.77091
-0.783671 0.719201 -1.51
-0.709944 0.5475 1.68774
-0.351043 0.757612 1.72761
-0.766257 0.717584 1.34
0.384935 0.181362 -1.92864
0.725014 0.3075 -1.8494
0.775318 0.185606 -1.6025
0.346268 0.233653 1.82635
0.682324 0.3325 1.7699
0.715984 0.205494 1.5225
0.368378 0.626495 -1.77301
0.730113 0.5325 -1.81302
0.793899 0.709457 -1.51
0.351056 0.757604 1.7276
0.710512 0.5475 1.6883
0.766821 0.716321 1.34
-0.766222 0.186811 -0.9775
-0.742983 0.20216 -0.3525
-0.893768 0.306679 -0.6625
-0.378056 0.193089 -0.665
-0.736746 0.192615 0.8975
-0.727835 0.209417 0.2725
-0.856785 0.315878 0.56
-0.365538 0.201429 0.585
-0.82861 0.767299 -0.94
-0.881536 0.643306 -0.6575
-0.847345 0.789193 -0.37
-0.438986 0.905398 -0.655
-0.810477 0.758645 0.77
-0.853648 0.635293 0.51
-0.837595 0.782603 0.2
-0.498166 1.19653 0.485
0.766216 0.186819 -0.9775
0.375376 0.198444 -0.665
0.742995 0.202151 -0.3525
0.893745 0.304479 -0.6625
0.736439 0.192928 0.8975
0.36206 0.208483 0.585
0.728145 0.209111 0.2725
0.856678 0.314551 0.56
0.835999 0.758345 -0.94
0.445808 0.9035 -0.655
0.882758 0.635743 -0.6575
0.850929 0.780063 -0.37
0.811742 0.754453 0.77
0.50081 1.19541 0.485
0.854282 0.631061 0.51
0.839893 0.775816 0.2
-0.808672 0.442525 -1.53995
-0.356437 0.425231 -1.88612
-5.28972e-07 0.183601 -1.60933
0.000979625 0.302414 -2.01659
-0.825269 0.322129 -1.27375
-0.385398 0.180578 -1.29
-0.771234 0.452128 1.4345
-0.351905 0.44 1.94658
1.0657e-05 0.222424 1.51552
4.26173e-06 0.339479 2.06965
-0.784329 0.331893 1.17125
-0.362934 0.17204 1.21
0.00362856 0.805598 -1.52402
0.00293887 0.551754 -1.93519
-0.828864 0.603331 -1.24125
-0.40407 0.792991 -1.225
0.000235712 0.964458 1.41774
5.75185e-06 0.625236 1.92981
-0.808683 0.602436 1.09375
-0.395203 0.955678 1.055
0.809106 0.436168 -1.53925
0.359654 0.421744 -1.88736
0.825959 0.3193 -1.27375
0.385357 0.186674 -1.29
0.771241 0.451442 1.43452
0.351929 0.44 1.94654
0.784766 0.325611 1.17125
0.368551 0.203117 1.21
0.827803 0.595817 -1.24125
0.411842 0.787381 -1.225
0.808683 0.600263 1.09375
0.396001 0.955434 1.055
-0.890676 0.309639 -0.05125
-0.36842 0.201808 -0.04
-0.884121 0.473625 -0.95875
-0.894337 0.489008 -0.36125
-1.58692e-06 0.185072 -0.9775
6.4326e-06 0.203075 -0.3525
-0.882945 0.488676 0.23625
-0.803824 0.476383 0.83375
2.35296e-05 0.201917 0.2725
2.49377e-05 0.202443 0.8975
-0.883472 0.646224 -0.07375
-0.499846 1.17822 -0.085
0.00304869 0.925353 -0.94
0.0022999 1.2045 -0.37
0.00138221 1.28477 0.2
0.000694142 1.24055 0.77
0.890583 0.307876 -0.05125
0.366468 0.205746 -0.04
0.881546 0.468504 -0.95875
0.894429 0.484946 -0.36125
0.882951 0.485494 0.23625
0.803743 0.474326 0.83375
0.884203 0.64023 -0.07375
0.504353 1.1763 -0.085
-0.808214 0.316558 -1.57122
-0.873692 0.332544 -0.968125
-0.875802 0.61936 -0.949375
-0.814755 0.573147 -1.52497
0.808904 0.3134 -1.57087
0.814975 0.564158 -1.52462
0.876544 0.612225 -0.949375
0.873263 0.330006 -0.968125
-0.385166 0.180646 -1.60591
0.385146 0.185001 -1.60591
0.380763 0.188381 -0.9775
-0.380786 0.179068 -0.9775
-0.382305 0.732501 -1.51701
-0.411679 0.85207 -0.94
0.418324 0.849473 -0.94
0.39011 0.736059 -1.51701
-0.370686 0.306701 -1.93614
-0.358489 0.547358 -1.82999
0.364016 0.542127 -1.83286
0.372294 0.304957 -1.9377
-0.895416 0.306562 -0.356875
-0.877296 0.310976 0.254375
-0.873022 0.642989 0.218125
-0.883771 0.645399 -0.365625
0.895371 0.304574 -0.356875
0.88435 0.638422 -0.365625
0.87363 0.637839 0.218125
0.877167 0.309445 0.254375
-0.372572 0.19878 -0.3525
0.370031 0.203877 -0.3525
0.364097 0.207449 0.2725
-0.366642 0.202293 0.2725
-0.491083 1.08514 -0.37
-0.503911 1.19719 0.2
0.507438 1.19557 0.2
0.496513 1.08277 -0.37
-0.80173 0.339137 0.865625
-0.763845 0.332197 1.4785
-0.780557 0.574968 1.38725
-0.8315 0.616538 0.801875
0.80222 0.335295 0.865625
0.831739 0.61341 0.801875
0.780499 0.573882 1.38726
0.763864 0.329056 1.47851
-0.363723 0.172026 0.8975
0.366564 0.1992 0.8975
0.35741 0.218872 1.51901
-0.354597 0.204918 1.51901
-0.403916 1.19523 0.77
-0.373123 0.919725 1.37887
0.373529 0.919756 1.37887
0.405239 1.19471 0.77
-0.349083 0.335989 2.00447
0.349099 0.335989 2.00451
0.351493 0.586368 1.87982
-0.351474 0.586368 1.87982
-0.78136 0.252994 -1.9171
-0.577402 0.181368 -1.92863
-0.777718 0.185179 -1.75875
-0.715459 0.27875 1.83049
-0.519394 0.22666 1.83334
-0.713376 0.206122 1.67875
-0.729777 0.600956 -1.80917
-0.54277 0.660563 -1.79836
-0.759422 0.694162 -1.6525
-0.70822 0.60125 1.65857
-0.526568 0.71079 1.68079
-0.742447 0.694565 1.4825
0.577402 0.181363 -1.92864
0.78199 0.25125 -1.91675
0.777645 0.185251 -1.75875
0.519401 0.227345 1.83266
0.715347 0.27875 1.83037
0.713375 0.20613 1.67875
0.550607 0.65774 -1.806
0.740362 0.58875 -1.8129
0.770769 0.684629 -1.6525
0.526581 0.710772 1.68077
0.708817 0.60125 1.65916
0.744088 0.695285 1.4825
-0.74491 0.20615 -0.82125
-0.745753 0.201362 -0.50875
-0.877096 0.224691 -0.66375
-0.563341 0.198634 -0.665
-0.740193 0.191141 0.74125
-0.725521 0.209759 0.42875
-0.839063 0.236993 0.5725
-0.543797 0.209841 0.585
-0.83605 0.775529 -0.7975
-0.867352 0.715414 -0.65625
-0.845426 0.786485 -0.5125
-0.652521 0.868222 -0.655
-0.818851 0.766229 0.6275
-0.843616 0.705882 0.4975
-0.83249 0.778289 0.3425
-0.661125 0.982551 0.485
0.74506 0.206002 -0.82125
0.563374 0.198565 -0.665
0.745764 0.201354 -0.50875
0.876214 0.224029 -0.66375
0.737367 0.193972 0.74125
0.543844 0.20983 0.585
0.725537 0.209747 0.42875
0.838827 0.236407 0.5725
0.842421 0.766463 -0.7975
0.660799 0.866983 -0.655
0.869648 0.706589 -0.65625
0.849986 0.777423 -0.5125
0.82035 0.761364 0.6275
0.663056 0.978651 0.485
0.844539 0.700895 0.4975
0.834823 0.772443 0.3425
-0.717397 0.368981 -1.83435
-0.721023 0.484969 -1.8192
-0.798412 0.43475 -1.68117
-0.535635 0.426103 -1.86995
[...]
POINT_DATA 3682
SCALARS point_scalars float 1
LOOKUP_TABLE default
-80.7854
-47.1066
-54.4519
-38.6194
-80.0359
-47.1353
-72.4661
-38.6381
-36.5363
-31.2561
-44.0004
-49.1088
-36.5304
-30.9641
-44.4145
-48.8192
-80.5236
-122.174
-40.5564
-40.7171
-46.344
-43.6702
-40.6645
36.1981
-122.174
-41.0743
-42.1093
-46.344
-43.6702
-40.2213
35.955
-99.2846
-45.8792
-46.6091
-40.4993
-40.9281
-40.2307
-46.6
-55.601
-46.1815
-57.5046
-39.8177
-39.396
-36.802
77.2152
-105.561
-36.8362
-31.087
-47.0962
-40.6037
-40.3039
140.151
-39.7568
-40.3039
158.21
-37.999
-38.2209
62.5298
-75.1568
-72.3693
-66.792
-35.8666
-34.2668
-35.0328
76.5305
-131.621
-36.6328
-31.7378
-47.1387
-40.6372
-40.47
156.989
-39.83
-40.47
156.725
-38.0501
-38.5725
47.7134
-68.2444
-67.6076
-66.3054
-35.4776
-33.9856
-35.0797
-79.9229
-125.637
-40.4083
-41.2182
-46.3536
-43.6734
-40.6372
48.9535
-125.637
-40.4083
-42.4563
-46.3536
-42.4281
-39.7509
36.889
-101.412
-45.9902
-46.4709
-40.6262
-40.7849
-40.2426
-56.4892
-56.6442
-44.4584
-57.6918
-39.5039
-39.3918
-36.838
-1.17969
-129.854
-47.9668
-41.6061
-43.0119
-38.2157
10.0949
-39.2375
-31.5998
-40.0925
-5.91246
-47.911
-41.9679
-39.8344
-40.0769
-40.0932
-34.2686
-44.6622
-37.5366
-43.2865
-31.0053
-57.4067
21.3797
-65.0329
-34.2571
-44.6759
-43.3172
-56.6123
-47.341
-47.4697
-54.6349
-24.777
192.901
-45.4764
-45.3892
-31.7968
-89.1501
-37.224
-37.2086
-38.3504
-37.2567
-35.6086
-5.4768
-166.952
-66.2913
-41.1252
-43.2966
-40.471
-35.4801
8.46003
-53.8744
-40.6935
-33.6658
-39.4734
-167.669
-7.3898
-66.3412
-42.8676
-41.181
-40.3007
15.6749
-33.6854
-56.3425
-33.7378
-40.8073
-39.3129
-45.6169
-34.2205
-42.4422
-37.2078
-34.3122
-33.5363
-42.4835
-30.656
-39.0589
-45.5744
-53.6271
-3.67143
-44.0664
-44.9328
-53.2897
-60.4966
-45.6558
-37.1867
-34.2052
-42.3976
-36.3068
-30.9083
-33.5396
-42.8416
-39.6784
-4.41235
-45.6561
-53.3401
-44.0788
-60.3837
-44.9143
-52.9921
-79.9215
172.451
-74.9076
204.684
-48.6029
-54.2598
-39.7877
-36.9811
-42.4515
-36.5518
-37.8397
-39.1461
-44.0617
139.049
-43.9698
-34.3654
-34.5107
-32.5242
-38.4142
-38.8323
-79.9053
173.676
-48.7264
-54.2963
-39.7727
-37.0084
-38.1366
-40.3657
-44.1905
-34.1599
-38.3637
-38.9093
-42.0564
-32.5514
-45.4718
-43.4299
-45.6945
-33.0704
-44.8084
-38.3635
-31.8606
-40.0294
-49.8547
-86.998
-4.48598
-42.5069
-73.9073
-46.4031
-41.9907
-32.4748
-45.7876
-43.4609
-44.7672
-38.268
-49.5504
-86.4638
-82.3951
-41.4882
-46.0849
-78.5797
-82.3929
-78.5411
-46.3063
-41.7113
-75.9712
-76.0602
-44.8838
-45.2309
-64.3781
-16.992
-17.31
-66.0174
192.211
108.32
114.37
192.963
-40.9732
-41.7099
-48.4194
-46.7175
-41.1586
-46.5554
-48.3426
-41.6321
-33.4951
-33.4767
-32.06
-32.071
-27.5016
-67.5763
-67.6464
-29.5338
-38.4503
-41.2506
-39.2962
-40.7635
-38.3349
-40.6512
-39.3003
-41.1391
-37.253
-37.5362
-42.4419
-43.1557
-47.7599
-34.9929
-35.0115
-47.7846
-37.1253
-37.1185
-35.6604
-35.6026
13.1146
-166.756
-96.0076
-43.6718
-44.2226
-44.2145
-55.626
-7.35299
-59.4357
-39.454
-34.8988
-39.4137
-160.766
11.2954
-96.2907
-44.3367
-43.6566
-44.1491
2.13489
-51.0868
-64.1405
-34.9647
-39.4972
-39.648
-35.1628
-34.9695
-39.3238
-36.932
-33.8423
-32.8457
-38.3881
-31.4957
-41.9126
-46.329
-49.0935
-28.1696
-46.2317
-46.4041
-51.0465
-54.5492
-35.0704
-36.9116
-34.9378
-39.2576
-34.5706
-31.4845
-32.8355
-38.917
-42.5509
-30.0135
-46.2675
-49.0369
-46.3617
-54.5151
-46.3041
-50.9419
-3.74784
-11.3491
-125.18
164.947
-147.822
-147.717
-95.4387
113.353
-54.4137
-44.8012
-46.7276
-52.1903
-41.7982
-40.578
-42.6986
-37.4258
-43.0014
-42.7183
-42.2664
-40.8584
-38.4537
-39.615
-38.0913
-39.2723
7.18961
8.11932
-46.0257
74.3451
-50.9853
-37.6806
-42.2958
-35.4947
-32.2567
-32.3168
-32.577
-31.7713
-39.2498
-41.5402
-39.1867
-39.6892
-6.1266
-11.0149
-125.386
163.136
-54.4139
-44.7798
-46.6577
-52.1136
-41.9466
-40.9314
-42.4281
-37.4499
-38.7063
-36.7317
-38.6307
-39.7694
-51.9768
-38.9501
-42.0023
-35.4069
-39.2067
-41.494
-39.1427
-39.7481
-34.3375
-34.276
-37.7624
-33.0289
-43.8039
-45.2366
-47.6497
-43.1088
-37.4306
-37.4552
-39.387
-34.2328
-42.6839
-44.0124
-44.0086
-42.3948
-32.0017
-31.1957
-31.8658
-36.6689
-56.0317
-56.5033
-52.7293
-71.5547
16.0699
15.7651
6.89748
35.841
-64.157
-64.1391
-75.3449
-53.7225
-34.3648
-34.2923
-37.703
-32.9955
-43.827
-45.2552
-47.6803
-43.1195
-42.7397
-44.0211
-44.0164
-42.3649
-55.3645
-56.1042
-52.396
-71.0389
-60.381
-48.2254
-45.7896
-39.546
-60.4147
-48.3387
-45.9909
-39.6838
-62.7053
-54.7976
-54.7948
-49.107
-36.8215
-27.0202
-27.3241
-13.8667
179.878
203.425
171.067
179.181
-43.6285
-44.634
-45.2162
-47.3861
-43.5597
-44.5951
-45.1423
-47.2522
-32.0134
-32.1762
-31.9763
-31.9931
-89.3877
-117.691
-78.2001
-89.3873
-38.2908
-37.2796
-37.4403
-37.4671
-38.271
-37.3071
-37.4101
-37.3921
-39.8375
-38.9208
-39.8199
-39.8155
-36.261
-37.8764
-37.9172
-38.2419
-36.4212
-36.0005
-34.0326
-36.4559
-126.229
168.654
-102.237
122.558
-73.233
-73.134
-43.8863
-37.1085
-41.8585
-40.5703
-40.2344
-42.2868
-104.356
177.932
-83.5279
69.5975
-71.9546
-60.4168
-41.1443
-36.3819
-33.3388
-34.595
-39.0545
-35.9457
-102.345
120.31
-126.46
166.822
-73.1939
-72.9497
-41.8996
-40.5918
-43.8456
-37.1243
-39.8926
-42.0904
-80.9521
72.0536
-108.482
177.546
-73.861
-61.0936
-33.3816
-34.6683
-41.0202
-36.43
-38.8521
-35.9852
-44.4195
-44.5677
-37.058
-33.7192
-46.7082
-41.0004
-38.8323
-34.598
-38.921
-37.4629
-38.5593
-32.4087
-41.7756
-42.0002
-31.9141
-35.2474
-43.9186
-22.3639
-45.8798
-45.768
-49.5999
-61.3451
-10.2931
-1.92475
-41.8709
-48.0737
-46.8192
-43.0801
-50.3195
-60.7681
-67.362
-53.7028
-44.5326
-44.4777
-39.0366
-34.6352
-37.1577
-33.687
-46.415
-41.0542
-38.703
-37.2984
-31.8598
-35.2603
-38.4833
-32.4033
-41.8956
-41.7272
-44.2402
-22.3492
-10.9027
-3.06354
-46.1684
-45.6663
-49.3498
-62.004
-41.7953
-48.2004
-66.9208
-53.7145
-46.7491
-43.0429
-50.1836
-60.588
-81.533
-78.7672
186.224
151.928
-75.8515
-75.837
195.045
195.077
-61.2952
-41.8309
-62.5931
-48.64
-40.4237
-39.5456
-36.9986
-36.3541
-42.2554
-42.5928
-36.8748
-36.964
-37.629
-39.0487
-38.4376
-41.3721
-50.0329
-50.6298
130.82
134.473
-37.7435
-57.3801
-46.8726
-24.6159
-34.7132
-34.7305
-34.1035
-34.0422
-38.4465
-38.9035
-39.7085
-36.818
-81.4212
-78.4966
153.866
186.369
-61.2645
-41.9545
-62.6491
-48.6749
-39.5669
-40.3927
-37.0155
-36.3919
-37.4953
-39.2009
-38.7959
-41.3828
-57.1768
-38.9135
-24.7888
-47.2955
-38.8742
-38.431
-36.8655
-39.7837
-41.8425
-42.0596
-32.8953
-32.2886
-42.5325
-48.3605
-42.3641
-44.568
-45.372
-45.2911
-33.2296
-33.1817
-43.1751
-46.5466
-37.8499
-39.8313
-31.8916
-31.9685
-37.8589
-38.4436
-49.4165
-48.7506
-109.953
-73.4747
-7.90384
-8.06955
-20.6377
-20.2582
-72.8457
-72.8522
-46.9348
-47.1416
-41.8455
-42.0059
-32.8358
-32.295
-48.8082
-42.8747
-42.3887
-44.5251
-46.4614
-43.152
-37.7478
-39.6744
-48.4924
-49.2043
-73.0427
-108.861
-110.376
-56.6386
-61.4435
-128.367
-37.3731
-47.6748
-41.5522
-42.5268
-44.7318
-41.4612
-36.9302
-47.1325
-84.7119
-120.263
-58.996
-56.0251
-111.256
-128.08
-61.3533
-57.155
-89.3542
-56.0759
-59.3015
-121.693
-44.9136
-47.214
-37.1447
-42.1632
-37.3132
-42.7129
-41.8094
-47.4996
-100.066
-98.6603
-63.0723
-59.9537
-99.5447
-59.8582
-63.0674
-98.69
-37.4693
-39.4778
-49.1423
-47.2573
-37.549
-47.3338
-49.1174
-39.5228
-78.5157
-46.6821
-39.3834
-55.473
-24.178
3.27383
-17.0537
-27.6727
-25.9801
-27.8938
-17.2999
3.05258
-79.0945
-56.6179
-39.8306
-46.577
144.297
163.091
189.733
110.567
124.639
91.7965
160.276
173.203
141.214
168.405
160.636
93.8211
143.373
110.001
190.101
163.076
-37.5971
-37.7872
-43.1034
-42.1905
-37.6244
-42.7412
-43.4621
-38.2378
-48.4913
-52.3977
-47.0811
-45.2688
-47.4391
-44.355
-46.188
-51.4091
-37.5739
-42.224
-43.0721
-37.8195
-47.2611
-51.1912
-46.1053
-44.3001
-48.4011
-45.2368
-46.9536
-52.1383
-37.6076
-38.1729
-43.4005
-42.7717
-34.5923
-34.4334
-32.4323
-33.3567
-34.5634
-33.3084
-32.3831
-34.4204
-32.0513
-31.8056
-32.0587
-32.6819
-32.0321
-32.702
-32.1018
-32.0235
-45.7238
-74.4183
-116.606
26.5557
-57.1869
-73.986
-77.4782
-65.5442
-57.0509
-65.1967
-77.4048
-73.8727
-46.1021
26.5679
-116.947
-73.5539
-38.9908
-38.5633
-37.2282
-42.5487
-45.7817
-43.4876
-38.561
-38.96
-40.219
-38.3689
-38.1239
-41.7253
-44.109
-42.4517
-37.7254
-40.0678
-38.9126
-42.3872
-37.1443
-37.5253
-44.1175
-39.9886
-37.6827
-42.3851
-40.3954
-41.4913
-38.1043
-38.3589
-45.8497
-39.3813
-38.6657
-43.3657
-32.9783
-35.665
-39.3854
-38.242
-33.4005
-38.2441
-39.4163
-36.0494
-42.3186
-41.9274
-41.3506
-40.7996
-42.4149
-40.9291
-39.793
-42.3114
-50.1843
-42.1213
-38.5458
-54.1654
-34.7579
-32.871
-36.4051
-37.6161
-34.8179
-37.6742
-36.4327
-32.8873
-50.2776
-54.178
-38.5717
-42.1756
-39.9691
-40.3187
-36.5437
-37.3544
-39.7992
-37.3653
-36.5738
-40.3046
-35.7211
-32.9283
-35.2808
-36.4816
-35.6593
-36.4428
-35.2353
-32.8628
-33.2492
-144.787
-133.153
-46.8095
-44.7656
-46.3315
-58.2456
-21.3211
-76.9556
-38.8884
-35.8828
-38.1506
-145.424
-34.0401
-134.01
-44.8552
-46.7888
-46.3086
-13.506
-57.5401
-77.6653
-35.9577
-38.8987
-38.2747
-34.6458
-36.6965
-36.9232
-37.0651
-30.2888
-31.7926
-33.1152
-31.3232
-43.7575
-46.7979
-46.5087
-40.9908
-47.5581
-47.7312
-50.1528
-52.4176
-34.6974
-37.0482
-36.6627
-36.9127
-31.8236
-31.3654
-31.7012
-33.6084
-44.0912
-41.1575
-46.81
-46.7976
-47.5003
-52.3479
-47.4549
-49.9136
-5.59591
-3.7675
-140.645
122.138
-134.532
-134.432
-111.452
11.8372
-50.6132
-46.0811
-46.1306
-50.3097
-41.9028
-41.1853
-42.421
-38.2995
-42.9713
-42.7891
-43.1637
-41.4031
-37.4446
-41.1431
-37.9126
-38.5003
8.89067
9.37428
-38.2458
44.1514
-43.4293
-37.4126
-41.6415
-36.4038
-31.7668
-31.8367
-32.2329
-31.4087
-39.6958
-40.742
-39.6112
-40.2835
-8.36674
-7.28725
-140.321
119.846
-50.5664
-46.0455
-46.0301
-50.2204
-42.1333
-41.6045
-42.7886
-38.3029
-39.8625
-37.3752
-38.5428
-39.1282
-44.1424
-39.0069
-41.8742
-36.6524
-39.6876
-40.7078
-39.5904
-40.3334
-35.0323
-33.7915
-35.253
-33.4818
-44.3998
-44.8849
-45.7767
-44.116
-37.5148
-37.5152
-38.2496
-35.9181
-42.9592
-43.5958
-43.5686
-42.876
-31.1619
-31.0327
-31.7576
-32.6804
-57.064
-57.279
-54.745
-65.5274
20.3063
20.295
14.6776
30.731
-64.9425
-64.9744
-71.6326
-59.0686
-35.0308
-33.7619
-35.2435
-33.4557
-44.3898
-44.9157
-45.8094
-44.1056
-43.0043
-43.619
-43.5932
-43.0914
-56.4002
-56.8105
-54.1489
-65.0026
-52.7073
-47.8684
-46.6559
-43.1588
-52.8008
-47.963
-46.7931
-43.3286
-58.3103
-54.6881
-54.6975
-51.6139
-30.7131
-25.3638
-25.3984
-19.2888
189.31
200.238
183.94
189.062
-44.5347
-45.2522
-45.362
-46.3835
-44.4594
-45.1746
-45.2804
-46.2654
-31.8852
-31.7215
-32.045
-31.8715
-88.9287
-97.6119
-82.9738
-88.9282
-37.7511
-37.2595
-37.3186
-37.1678
-37.789
-37.2625
-37.2838
-37.0997
-38.2549
-38.4596
-38.3506
-38.6447
-37.0544
-37.3998
-37.4166
-37.3049
-35.895
-35.9494
-34.852
-35.9542
7.01164
-5.51272
-113.227
110.992
-168.529
-161.964
-126.038
8.53232
-77.0936
-59.6725
-68.577
-70.2397
-41.6854
-41.3735
-43.1162
-37.7107
-43.4727
-43.0063
-43.2523
-41.6295
-41.2137
-39.907
-37.6151
-42.1598
-46.5808
-20.8492
-108.788
130.837
9.53729
9.33267
-65.6318
42.0802
-61.3299
-52.4367
-63.4585
-54.2503
-40.1593
-40.404
-41.021
-37.112
-34.1836
-33.1058
-33.3462
-34.0355
-39.3341
-38.563
-39.216
-37.5868
-169.13
-160.844
-126.542
5.48507
8.64246
-8.43003
-114.289
109.013
-77.1519
-59.7153
-68.4553
-70.1554
-43.5265
-42.6329
-42.5054
-41.0558
-41.613
-41.4502
-43.232
-37.7082
-41.1096
-39.9789
-37.3711
-41.9834
26.3481
15.8504
-65.6157
50.1749
-43.2978
-20.9504
-108.104
130.278
-64.0502
-54.1999
-65.1708
-54.854
-34.2509
-33.1771
-33.4067
-34.1108
-40.2194
-40.6121
-41.0208
-37.1521
-39.2383
-38.5087
-38.9904
-37.6328
-40.141
-44.6724
-46.7309
-44.7883
-34.5131
-34.0918
-35.4654
-33.875
-40.8691
-43.2668
-43.9369
-41.8811
-37.0691
-37.4139
-37.9124
-35.981
-36.6012
-36.2041
-37.6685
-36.8391
-33.2029
-34.1881
-34.7499
-32.672
-41.4757
-42.4033
-42.0315
-45.4157
-31.1881
-32.2815
-31.6194
-31.1571
-40.2285
-38.2662
-43.0085
-28.6506
-45.8741
-45.4381
-45.946
-45.4742
-51.6067
-55.2234
-51.4245
-59.8049
-14.3406
8.85725
-6.67935
-1.35544
-45.275
-42.9224
-42.7764
-45.7557
-45.6228
-44.3934
-45.9093
-44.0142
-52.4048
-54.9241
-51.6769
-58.2823
-57.1182
-63.2093
-64.5082
-57.4631
-39.9621
-44.6651
-46.7889
-44.71
-37.04
-37.4545
-38.0111
-35.9573
-34.4991
-34.1108
-35.4461
-33.8546
-40.6278
-43.3333
-43.856
-41.9215
-36.2591
-35.4428
-37.7734
-37.043
-31.091
-30.0428
-31.5826
-32.9292
-33.2481
-34.1629
-34.6477
-32.6748
-41.9815
-42.5041
-42.207
-45.3194
-40.9708
-38.9987
-42.9916
-28.796
-15.3436
8.34377
-7.41557
-2.62151
-45.926
-45.5403
-46.0269
-45.5831
-51.6932
-54.7819
-50.8796
-59.2878
-45.1806
-42.5538
-42.6415
-45.7517
-57.216
-63.1947
-64.2971
-57.5051
-45.5785
-44.3981
-45.8554
-44.0005
-52.1376
-54.5651
-51.3925
-58.1219
-95.8061
-69.2601
-81.1617
-79.4954
171.719
173.95
180.087
164.252
-83.7878
-68.0346
-75.1005
-75.1122
197.715
204.401
202.565
201.977
-48.0652
-48.3955
-53.5486
-44.6385
-53.4282
-54.6911
-58.0102
-51.1752
-41.371
-38.7893
-40.0587
-39.5989
-37.0163
-36.8311
-37.1102
-36.7768
-41.485
-43.2419
-42.2509
-42.6452
-38.4006
-35.8195
-36.4076
-36.4418
-38.0887
-37.4935
-37.9465
-38.3904
-39.4542
-38.8044
-38.7178
-39.4593
-47.7737
-41.0824
-45.1495
-45.4409
104.724
158.398
139.962
141.804
-43.0668
-44.9855
-39.2791
-49.9573
-35.3243
-30.8519
-40.2282
-29.2419
-32.9481
-35.5856
-34.5393
-34.5508
-32.1273
-33.2628
-33.0835
-33.0291
-38.8449
-37.8677
-38.2592
-38.6718
-39.2297
-38.4741
-39.0867
-37.8585
-95.6362
-69.3839
-81.0175
-79.3961
171.889
174.351
164.524
180.948
-48.0663
-48.5023
-53.6028
-44.7552
-53.4282
-54.6431
-58.0635
-51.2393
-41.2952
-38.828
-39.5918
-40.0344
-37.0434
-36.8624
-37.1359
-36.8056
-38.6697
-37.6488
-38.0254
-38.6997
-39.8627
-40.676
-39.601
-40.9899
-43.0849
-45.1174
-50.1112
-39.8189
-34.9885
-30.959
-29.1617
-40.2731
-38.8048
-37.8268
-38.606
-38.2309
-39.3015
-38.5279
-37.9242
-39.1393
-40.5889
-42.803
-41.7679
-42.0919
-32.7354
-32.1627
-32.8906
-32.3032
-49.6547
-37.2722
-43.2953
-48.2337
-42.8537
-44.0011
-42.9568
-43.9399
-42.4843
-47.0676
-45.5354
-45.5209
-33.5252
-32.6481
-33.0803
-33.0625
-44.5503
-45.1498
-43.9873
-45.5979
-40.6266
-37.5539
-37.861
-38.751
-31.8437
-31.8956
-31.8643
-31.907
-40.3589
-39.585
-38.519
-38.6685
-51.2322
-48.5647
-49.745
-49.377
-80.4241
-88.2666
-101.432
-79.2119
0.444304
-9.41807
-5.25162
-5.43814
18.6288
-114.772
-32.9296
-32.9987
-73.7986
-75.4501
-73.5944
-73.6403
-49.675
-41.1832
-45.9954
-45.8303
-40.552
-42.7391
-41.6835
-42.0302
-32.6892
-32.1884
-32.644
-32.3725
-49.262
-38.0661
-48.8693
-43.7759
-42.8807
-43.9664
-42.9743
-43.9088
-44.5294
-45.097
-45.5285
-43.9551
-40.4707
-37.4901
-37.802
-38.6373
-50.9555
-48.3755
-49.0964
-49.4951
-80.0129
-88.267
-78.7882
-101.143
-97.8807
-78.5579
-81.901
-70.9799
-43.0239
-46.5273
-39.6705
-42.2877
-44.9677
-45.5559
-43.0051
-47.8249
-89.1438
-76.2475
-78.6218
-67.2139
-97.6942
-77.9785
-81.8541
-70.9906
-91.2317
-77.2911
-78.3155
-67.0179
-45.1681
-46.1119
-42.8109
-48.0369
-43.1733
-46.2535
-39.9264
-42.4033
-86.841
-74.8837
-76.1291
-68.2998
-86.9629
-74.8499
-76.1013
-68.3888
-44.6041
-41.7733
-46.5415
-45.3457
-44.754
-41.9553
-46.5128
-45.1332
-77.2876
-65.7584
-56.1784
-54.0576
-19.9104
-13.8277
-20.4595
-11.8186
-20.1428
-14.2566
-20.7112
-12.1587
-80.353
-67.6242
-57.7381
-55.1734
187.793
196.765
189.208
190.226
125.433
89.3243
134.719
120.395
94.2733
133.298
122.938
139.656
196.889
187.284
190.379
188.611
-39.2793
-40.9108
-41.4302
-41.7547
-40.915
-41.5913
-42.0035
-42.3954
-47.5882
-49.2887
-47.565
-49.0116
-46.0568
-48.1142
-45.5356
-47.8493
-39.4822
-41.0147
-41.5139
-41.8132
-45.8808
-47.9338
-45.4368
-47.6651
-47.5215
-49.1711
-47.4723
-48.8685
-40.7909
-41.6599
-41.934
-42.3584
-33.6321
-33.9775
-33.1341
-33.3685
-33.9777
-33.5918
-33.278
-33.1317
-31.9578
-32.1531
-31.9263
-32.2109
-32.1947
-31.9438
-32.1937
-32.0242
-59.0364
-7.54547
-78.6683
-14.0668
-63.539
-67.1859
-69.8585
-70.9492
-67.4177
-63.4778
-70.9479
-69.6376
-8.96347
-60.4605
-13.5695
-78.6435
-38.8645
-39.0935
-37.8066
-38.109
-43.489
-40.9817
-40.8203
-39.8958
-40.0233
-39.2008
-39.4062
-38.9893
-41.3259
-42.046
-39.6714
-40.194
-38.6844
-38.8399
-37.6451
-38.0202
-41.2655
-42.0092
-39.5696
-40.0505
-40.0244
-39.0256
-39.4196
-38.9896
-43.3402
-40.6626
-40.7575
-39.8621
-37.3866
-36.4477
-37.9727
-37.2462
-37.4067
-36.8912
-38.2024
-37.8343
-41.3482
-42.0655
-42.9612
-42.8595
-40.7659
-42.2827
-42.6415
-45.5785
-48.9238
-50.8136
-41.7536
-46.8693
-33.9489
-35.2827
-34.78
-35.866
-33.9756
-35.3135
-34.8036
-35.9148
-48.9761
-50.8663
-41.7674
-46.9123
-37.312
-39.1429
-36.8759
-37.0047
-39.0601
-37.3459
-37.0462
-36.8949
-35.1308
-36.1329
-34.9568
-36.0304
-36.0779
-35.0642
-35.9831
-34.8926
-104.973
125.847
-127.836
8.72066
-101.873
-96.5886
-46.363
-40.8016
-43.5821
-41.0467
-46.042
-42.7588
-89.1638
106.356
-56.3215
67.3539
-71.4452
-69.8325
-40.5445
-36.4054
-34.5989
-35.3272
-39.7746
-36.4252
-126.839
18.1156
-107.569
123.224
-101.761
-96.5077
-43.5663
-40.9214
-46.3829
-40.811
-46.0269
-42.6769
-51.9888
91.6087
-92.6954
110.517
-74.9892
-69.6343
-34.6637
-35.393
-40.515
-36.4466
-40.0517
-36.5076
-35.5833
-36.0326
-35.9569
-34.6105
-39.2175
-38.8989
-36.9372
-35.8409
-35.9011
-32.4481
-33.9487
-32.1603
-36.8349
-38.504
-31.6197
-31.6251
-43.9579
-34.3112
-45.7195
-46.6329
-48.7445
-49.9357
-24.0255
-37.0875
-45.1558
-48.6546
-47.5659
-45.0942
-49.5537
-54.8521
-56.0524
-52.2863
-35.0752
-35.9596
-36.9131
-35.8149
-35.8959
-34.578
-38.8121
-38.7998
-36.3618
-32.8727
-31.6829
-32.1629
-33.9358
-32.1772
-36.8473
-39.1931
-44.5051
-36.3075
-27.0724
-38.121
-45.9805
-46.3594
-48.4773
-49.7926
-45.1982
-48.7235
-55.9237
-52.2607
-47.4562
-45.0589
-49.3702
-54.8754
-134.889
112.439
-120.113
133.397
-127.533
-123.15
164.236
167.268
-118.479
-30.8702
-118.326
-31.8108
-96.0731
-96.0739
87.222
87.1436
-54.0456
-57.4413
-43.6078
-46.1779
-50.9928
-44.6737
-55.6261
-49.486
-43.1316
-38.3465
-41.6298
-37.5512
-43.0269
-42.2846
-37.5354
-37.2269
-43.0616
-41.403
-42.4923
-41.362
-42.096
-42.3398
-41.0782
-41.0594
-38.3454
-40.1076
-38.5249
-38.4534
-38.6148
-38.0789
-38.709
-39.9003
-41.4412
55.5413
-40.62
57.9445
-47.3055
-47.9454
85.3714
87.6287
-54.7787
-46.6675
-41.3197
-30.6932
-40.7301
-47.9018
-40.5458
-31.3243
-32.4147
-32.3859
-32.4525
-32.4542
-32.7377
-32.7522
-32.169
-32.1302
-38.4398
-38.8365
-40.7687
-42.7245
-38.8132
-39.5027
-40.804
-38.5699
-136.237
111.698
-125.319
130.01
-127.013
-123.468
163.153
162.77
-53.5562
-57.3567
-43.6804
-46.1076
-50.9601
-44.7487
-55.5449
-49.4126
-43.5207
-38.3479
-41.7338
-37.5833
-42.0379
-42.8663
-37.5528
-37.2593
-38.9299
-40.2082
-36.4902
-37.7624
-37.9031
-39.2181
-38.8584
-40.3975
-54.9367
-46.1485
-41.5781
-31.9224
-47.6486
-40.9579
-31.2684
-40.6081
-38.4326
-38.8789
-40.7024
-42.802
-39.4447
-38.7992
-38.634
-40.8516
-35.5557
-33.7036
-36.0972
-33.1148
-37.765
-37.872
-33.3293
-32.7061
-45.3012
-42.9739
-45.8168
-45.0875
-47.8607
-47.2929
-42.6131
-43.6554
-38.2469
-35.9765
-38.2443
-35.9832
-39.4421
-39.4419
-34.3065
-34.2997
-42.6061
-43.6339
-44.5908
-43.4012
-43.3765
-44.5819
-42.8386
-42.3467
-32.0533
-33.5022
-31.6803
-33.499
-31.8439
-31.9567
-36.2651
-36.3844
-53.4446
-65.4624
-54.2494
-61.9427
-52.9672
-52.29
-73.3032
-68.2771
9.83738
24.413
9.54288
24.1871
5.72298
5.70631
31.3307
31.1019
-70.907
-58.6469
-70.8475
-58.6673
-74.5171
-74.2055
-53.8434
-53.8589
-35.8821
-33.6861
-36.1346
-33.099
-37.7144
-37.7825
-33.282
-32.6806
-45.3238
-42.9519
-45.8715
-45.061
-47.318
-47.7759
-42.639
-43.62
-42.6606
-43.6044
-44.5858
-43.4408
-44.5614
-43.398
-42.7693
-42.2929
-52.9184
-64.8568
-53.8323
-61.6217
-51.9777
-52.6861
-67.6622
-72.2199
-60.8979
-59.7275
-53.5617
-44.375
-41.3878
-51.3406
-40.6309
-37.6919
-60.8837
-59.8331
-53.6258
-44.5103
-51.5699
-41.6698
-37.7763
-40.8059
-62.77
-62.7802
-58.5581
-51.7087
-58.5595
-51.7227
-49.1057
-49.0879
-36.772
-37.0229
-33.2385
-21.7861
-22.104
-33.2661
-14.5338
-14.6519
185.037
172.16
198.617
198.041
170.296