# vtk DataFile Version 2.0
tri_press
ASCII
DATASET UNSTRUCTURED_GRID
POINTS 3682 float
-0.735 0.145 -1.62906
-0.717982 0.075 1.625
-0.705 0.514821 -1.675
-0.615 0.909857 1.415
0.743475 0.145 -1.625
0.753459 0.075 1.625
0.715 0.513177 -1.675
0.635 0.920748 1.405
-0.739552 0.111442 -0.544373
-0.724879 0.0971093 0.540313
-0.750241 0.721741 -0.645
-0.738086 0.871265 0.385
0.760313 0.108157 -0.541667
0.755679 0.0927849 0.541667
0.769692 0.730393 -0.648333
0.755803 0.879027 0.378333
-1.48253 -0.22121 -2.41784
-1.47879 -0.159993 -1.57307
-1.4752 -0.190097 -0.486738
-1.44648 -0.247153 0.611216
-1.41851 -0.280375 1.69853
-1.41824 -0.263921 2.54812
-1.42608 -0.225384 3.38886
-1.48206 0.0399543 -2.46191
-1.4793 0.127622 -1.62312
-1.4832 0.134033 -0.547316
-1.44672 0.121125 0.533949
-1.40275 0.103285 1.61079
-1.41216 0.121209 2.45919
-1.42702 0.156918 3.30148
-1.47074 0.508479 -2.53339
-1.463 0.589008 -1.69143
-1.48881 0.748534 -0.652862
-1.45076 0.871141 0.38225
-1.3519 0.909008 1.42156
-1.39007 0.921991 2.27059
-1.42758 0.94224 3.12075
-1.46402 1.38636 -2.68268
-1.46155 1.49546 -1.84928
-1.47043 1.70134 -0.829497
-1.46957 1.90193 0.178449
-1.45237 2.0191 1.19827
-1.44966 2.06215 2.03176
-1.45976 2.08669 2.87649
-0.74445 -0.211922 -2.42118
-0.735156 -0.145263 -1.57814
-0.733156 -0.199489 -0.486265
-0.717507 -0.267802 0.617379
-0.70636 -0.304957 1.70952
-0.711005 -0.281455 2.55489
-0.717526 -0.236688 3.39207
-0.746494 0.0395643 -2.46293
-0.718337 0.107222 2.46389
-0.724689 0.147996 3.3032
-0.736036 0.476141 -2.52669
-0.701168 0.921139 2.26682
-0.73122 0.940704 3.11819
-0.725244 1.36032 -2.67648
-0.719829 1.46902 -1.84265
-0.731267 1.69042 -0.826349
-0.745726 1.90824 0.175976
-0.745402 2.02982 1.19212
-0.746309 2.07065 2.0256
-0.754684 2.09248 2.87153
0.73382 -0.211334 -2.41927
0.749187 -0.145387 -1.57527
0.760442 -0.201527 -0.48428
0.7607 -0.270452 0.618149
0.756168 -0.305183 1.70912
0.723375 -0.279716 2.55291
0.707163 -0.23407 3.38936
0.725176 0.0400193 -2.46097
0.697144 0.109993 2.46109
0.688094 0.151266 3.29993
0.719207 0.476554 -2.52614
0.650265 0.927521 2.26083
0.660387 0.945421 3.11369
0.746631 1.36291 -2.67742
0.75582 1.47241 -1.84417
0.749467 1.69534 -0.829123
0.711965 1.91393 0.171704
0.669804 2.03582 1.18693
0.657326 2.07625 2.02059
0.654622 2.09741 2.86708
1.47663 -0.219398 -2.41508
1.49235 -0.15885 -1.56956
1.50556 -0.190846 -0.48485
1.49592 -0.248588 0.610613
1.47372 -0.27889 1.69577
1.44414 -0.259906 2.54359
1.42646 -0.220096 3.38341
1.46888 0.0418574 -2.45923
1.48732 0.129765 -1.61963
1.50716 0.134839 -0.546096
1.4877 0.120944 0.531987
1.44861 0.1068 1.60629
1.41694 0.126994 2.45316
1.4053 0.16334 3.29505
1.46154 0.51095 -2.5327
1.47356 0.592695 -1.69158
1.50982 0.758106 -0.656714
1.4753 0.880812 0.373697
1.37368 0.921359 1.4096
1.36379 0.932669 2.26037
1.37202 0.951093 3.11229
1.48273 1.39173 -2.68462
1.49153 1.50223 -1.85228
1.48664 1.71052 -0.834726
1.44544 1.91244 0.170586
1.39222 2.03015 1.18876
1.37222 2.07266 2.0224
1.36807 2.09617 2.86798
-0.709909 0.32991 -1.64194
0.0042375 0.154706 -1.61732
-0.734183 0.131314 -1.08672
-0.700399 0.492428 1.55391
0.0177385 0.0755032 1.6245
-0.723649 0.0838364 1.08266
0.005 0.573633 -1.73463
-0.786954 0.677614 -1.16
0.00999999 1.00013 1.49483
-0.698258 0.912275 0.9
0.717165 0.329088 -1.63793
0.744162 0.134311 -1.08333
0.727337 0.497874 1.54811
0.755297 0.0831651 1.08333
0.797371 0.67681 -1.16167
0.716562 0.921048 0.891667
-0.729196 0.107295 -0.00203001
-0.779791 0.416591 -0.594687
0.0103805 0.114146 -0.54302
-0.80085 0.484187 0.462657
0.0154003 0.10454 0.54099
-0.754121 0.80646 -0.13
0.0097256 1.10645 -0.646667
0.00885835 1.42529 0.381667
0.75596 0.102507 0
0.801143 0.419275 -0.595
0.822262 0.485906 0.46
0.772618 0.81458 -0.135
-0.836548 0.373251 -1.12336
0.824751 0.374182 -1.1225
0.00730901 0.139943 -1.08503
0.0073628 0.890313 -1.16083
0.00461875 0.329499 -1.79117
-0.794569 0.450389 -0.066015
0.815856 0.452591 -0.0675
0.0128904 0.113918 -0.00101501
0.00929198 1.35397 -0.1325
-0.847398 0.488308 0.991328
0.837685 0.49189 0.9875
0.0165694 0.0839326 1.083
0.00942917 1.38437 0.895833
0.0138692 0.495151 1.73869
-0.715526 0.237455 -1.62857
-0.365381 0.155029 -1.61802
-0.736998 0.13575 -1.35789
-0.742427 0.283714 1.62269
-0.350122 0.0997533 1.60025
-0.717696 0.0825373 1.35383
-0.711785 0.422366 -1.6628
-0.35 0.546352 -1.70694
-0.737202 0.587443 -1.4175
-0.66984 0.701143 1.49659
-0.3025 0.964427 1.46435
-0.661565 0.916003 1.1575
0.373856 0.154236 -1.61678
0.7228 0.237044 -1.62394
0.747115 0.136359 -1.35417
0.385599 0.0948572 1.60514
0.776991 0.286437 1.62315
0.751178 0.0822827 1.35417
0.36 0.54612 -1.70753
0.718955 0.421133 -1.65934
0.747551 0.586359 -1.41833
0.3225 0.970636 1.46011
0.693354 0.709311 1.48874
0.680624 0.925741 1.14833
-0.737464 0.120781 -0.815545
-0.736462 0.10728 -0.273202
-0.750438 0.268634 -0.56953
-0.360192 0.121582 -0.543697
-0.73064 0.0840963 0.811485
-0.725013 0.104227 0.269142
-0.860893 0.241634 0.501485
-0.35006 0.110183 0.540652
-0.755398 0.686478 -0.9025
-0.772116 0.572716 -0.619843
-0.754395 0.766314 -0.3875
-0.437204 1.04799 -0.645833
-0.722554 0.896152 0.6425
-0.785678 0.685831 0.423828
-0.747624 0.840383 0.1275
-0.466141 1.35133 0.383333
0.754629 0.118842 -0.8125
0.38137 0.119105 -0.542343
0.76009 0.103378 -0.270833
0.771063 0.268548 -0.568333
0.761137 0.0823257 0.8125
0.381605 0.106532 0.541328
0.754536 0.0989297 0.270833
0.857391 0.255136 0.500833
0.747639 0.667709 -0.905
0.454524 1.04805 -0.6475
0.792742 0.578496 -0.621667
0.77366 0.774991 -0.391667
0.740212 0.904067 0.635
0.484076 1.35565 0.38
0.806369 0.691135 0.419167
0.765997 0.848591 0.121667
-0.824282 0.351581 -1.38265
-0.352645 0.329705 -1.7611
0.00577325 0.143229 -1.35117
0.00442813 0.242103 -1.74773
-0.829717 0.252282 -1.10504
-0.363437 0.140085 -1.08587
-0.828871 0.490368 1.27262
-0.343265 0.49379 1.71848
0.0171539 0.0867882 1.35375
0.0158039 0.285327 1.71842
-0.855258 0.286072 1.03699
-0.35354 0.0852727 1.08283
0.0061814 0.795395 -1.44773
0.00480937 0.451566 -1.79871
-0.849953 0.525433 -1.14168
-0.389796 0.876799 -1.16042
0.00971458 1.2644 1.19533
0.0119346 0.747642 1.61059
-0.772063 0.700292 0.945664
-0.344414 1.344 0.897917
0.81342 0.351635 -1.38021
0.360892 0.329294 -1.76346
0.813764 0.254246 -1.10292
0.375735 0.139954 -1.08418
0.826962 0.494882 1.2678
0.370603 0.496513 1.71274
0.836655 0.287528 1.03542
0.385933 0.0837592 1.08316
0.834029 0.525496 -1.14208
0.402367 0.877362 -1.16125
0.762634 0.706469 0.939583
0.362995 1.34541 0.89375
-0.761557 0.279005 -0.0340225
-0.353716 0.119481 -0.00152251
-0.846109 0.394921 -0.859023
-0.787673 0.43349 -0.330351
0.00884476 0.126957 -0.814023
0.0116355 0.111429 -0.272018
-0.799662 0.467288 0.198321
-0.854249 0.486247 0.726993
0.0141454 0.111607 0.269988
0.0159849 0.0873371 0.811993
-0.785295 0.6339 -0.0980075
-0.480614 1.29661 -0.13125
0.0085442 0.935731 -0.90375
0.00950879 1.25213 -0.389583
0.00907517 1.40399 0.124583
0.00914376 1.41869 0.63875
0.782023 0.279491 -0.03375
0.380612 0.115839 -0.000507504
0.837066 0.396728 -0.85875
0.809078 0.435933 -0.33125
0.821222 0.469248 0.19625
0.845342 0.488898 0.72375
0.80609 0.639512 -0.10125
0.497508 1.29738 -0.13375
-0.820718 0.244869 -1.37027
-0.843135 0.25815 -0.837284
-0.81609 0.547299 -0.880761
-0.827897 0.473899 -1.40007
0.804878 0.245645 -1.36719
0.825855 0.473314 -1.39927
0.813698 0.550165 -0.881875
0.832346 0.258981 -0.835625
-0.364409 0.142941 -1.35453
0.374796 0.143297 -1.35267
0.380541 0.126911 -0.813261
-0.364011 0.127059 -0.814784
-0.369898 0.791185 -1.43262
-0.380027 0.930387 -0.903125
0.396038 0.930635 -0.904375
0.381184 0.791475 -1.43303
-0.359013 0.239779 -1.69111
-0.351323 0.436966 -1.78015
0.360446 0.436349 -1.77976
0.367374 0.239574 -1.69136
-0.755913 0.273861 -0.301776
-0.763974 0.283945 0.233731
-0.788153 0.661198 0.16291
-0.77924 0.603575 -0.358925
0.776622 0.27398 -0.301042
0.80019 0.609391 -0.361458
0.80893 0.666674 0.158958
0.785274 0.28453 0.233542
-0.357892 0.118654 -0.27261
0.38173 0.115994 -0.271425
0.38036 0.112683 0.27041
-0.351132 0.116343 0.269565
-0.466403 1.18729 -0.388542
-0.478741 1.3347 0.126042
0.496531 1.33799 0.123125
0.483281 1.18725 -0.390625
-0.860003 0.28836 0.769239
-0.835451 0.284893 1.31322
-0.747584 0.700717 1.21506
-0.795297 0.689009 0.684746
0.845149 0.288437 0.768125
0.778317 0.694468 0.679375
0.738823 0.70789 1.20807
0.826279 0.286982 1.31099
-0.354139 0.0890279 0.811739
0.385736 0.0871499 0.812246
0.385766 0.0866617 1.35396
-0.351831 0.0876836 1.35379
-0.354514 1.37971 0.640625
-0.323457 1.22392 1.17642
0.342748 1.22912 1.17183
0.372663 1.38059 0.636875
-0.346693 0.284521 1.71033
0.378101 0.285882 1.7095
0.346552 0.728476 1.5928
-0.322882 0.724392 1.5953
-0.711873 0.191228 -1.61543
-0.550191 0.156094 -1.61746
-0.736018 0.140356 -1.49347
-0.730569 0.179357 1.62421
-0.534052 0.0798195 1.62018
-0.717154 0.0794538 1.48941
-0.712186 0.468593 -1.67269
-0.5275 0.528249 -1.68863
-0.712837 0.542868 -1.54625
-0.645395 0.8055 1.45877
-0.45875 0.931645 1.43418
-0.641593 0.91624 1.28625
0.558666 0.154882 -1.61563
0.719934 0.191022 -1.61127
0.749491 0.136483 -1.48958
0.569529 0.117223 1.58278
0.764834 0.180719 1.62368
0.752265 0.0786948 1.48958
0.5375 0.527732 -1.68935
0.719244 0.467155 -1.66943
0.723775 0.542268 -1.54667
0.47875 0.940421 1.42728
0.664002 0.815029 1.44669
0.661039 0.926472 1.27667
-0.738123 0.116496 -0.679959
-0.738176 0.109192 -0.408788
-0.851657 0.136707 -0.556952
-0.553223 0.109809 -0.544035
-0.732455 0.085907 0.675899
-0.726729 0.098885 0.404728
-0.883515 0.124057 0.520899
-0.531281 0.116023 0.540483
-0.753327 0.704617 -0.77375
-0.762525 0.647901 -0.632422
-0.752728 0.744437 -0.51625
-0.637034 0.971486 -0.645417
-0.731726 0.885114 0.51375
-0.76949 0.782351 0.404414
-0.743641 0.85661 0.25625
-0.607055 1.12118 0.384167
0.757661 0.113309 -0.677083
0.57435 0.106613 -0.542005
0.759582 0.106387 -0.40625
0.854035 0.144179 -0.555
0.761996 0.0839672 0.677083
0.568281 0.100382 0.541498
0.75653 0.0944346 0.40625
0.886524 0.133966 0.52125
[...]
POINT_DATA 3682
SCALARS point_scalars float 1
LOOKUP_TABLE default
-36.1299
-52.4834
12.0768
-47.2391
-48.3587
-48.9718
11.7508
-46.2936
-40.4405
-33.184
-56.3369
-55.5101
-38.9172
-34.6921
-56.8996
-56.5782
-20.879
-102.921
-40.482
-59.0401
-51.5819
-53.0072
-53.0072
-20.879
-81.7746
-40.37
-53.736
-57.683
-47.0776
-42.1531
14.7431
-70.8353
-52.4903
-50.2945
-53.1777
-43.3206
-42.1531
6.60811
-61.8912
-75.6257
-80.4204
-56.4868
-49.9465
-46.1673
-67.8019
-129.183
-40.2263
-42.1791
-51.7003
-53.0072
-40.6869
41.8526
-40.8849
-40.6869
138.038
-42.7775
-41.2348
125.257
-40.1466
-46.3125
-82.7999
-57.676
-50.3527
-43.6352
-67.6745
-124.204
-40.2362
-45.2529
-48.7586
-48.7091
-33.564
43.7312
-33.564
-33.564
135.236
-37.4429
-36.9716
124.622
-48.7608
-64.462
-81.4124
-56.0182
-49.1206
-42.8842
-32.2379
-77.6796
-42.7314
-52.9163
-48.075
-47.9235
-33.564
-32.2379
-77.6796
-41.6343
-52.9163
-47.4754
-43.0419
-35.889
35.6275
-74.819
-52.1599
-52.2928
-48.4895
-38.6933
-36.9716
11.1252
-65.9839
-79.8611
-82.6684
-55.1781
-48.4327
-46.3358
-30.1655
-135.111
-53.6561
-46.5104
-39.7025
-44.1361
107.708
-92.2796
-43.4563
-59.5925
-46.6188
-51.787
-44.0164
-40.4
-85.7604
-56.8114
-33.5463
-46.8773
-42.2529
-37.9729
-33.8598
-55.5684
19.9441
-88.3267
-33.5746
-42.4487
-46.8944
-57.2845
-69.6374
-65.476
-60.0099
-11.9184
174.823
-39.3702
-41.9907
-35.6812
-88.1945
-56.798
-50.9255
-38.4545
-60.9613
-36.5335
-27.9919
-131.285
-78.4484
-45.9197
-46.7518
-47.8959
-5.22126
104.31
-37.205
-47.1896
-43.6598
-53.8615
-129.784
-43.6669
-77.3922
-39.4238
-43.108
-41.042
106.608
-16.5707
-47.3203
-42.8441
-45.7118
-51.7199
-40.6104
-37.7494
-45.2583
-42.0761
-44.3566
-31.0083
-32.0348
-32.4683
-63.5119
-50.1253
-55.6232
-2.50772
-58.8672
-48.7757
-54.981
-74.7735
-38.9952
-41.5214
-37.9922
-41.8619
-41.2672
-33.1587
-32.4602
-34.394
-59.5349
-2.36679
-45.9716
-57.8346
-58.162
-75.5708
-51.638
-56.9782
-108.935
177.736
-84.3294
142.188
-64.5695
-58.1869
-56.8778
-41.0708
-37.9488
-34.6789
-53.2627
-40.1327
-19.6863
202.024
-77.5623
-26.5427
-46.4783
-40.8511
-62.6432
-61.1193
-102.284
178.303
-60.6792
-57.4428
-51.8583
-35.2828
-46.2273
-38.5618
-72.5761
-24.4964
-56.966
-61.1105
-37.2272
-34.9815
-63.4971
-40.2726
-47.2306
-39.2754
-38.5242
-53.664
-33.7356
-37.7704
-46.4215
-91.133
14.8773
-41.3348
-97.8702
-75.7592
-37.5877
-35.2048
-59.4711
-42.5768
-42.7593
-48.5587
-48.7721
-96.2527
-107.153
-58.1658
-63.4122
-97.4145
-96.3651
-99.1885
-58.924
-53.2966
-81.9971
-81.0899
-45.1623
-45.8612
-33.4213
-2.2241
-1.13077
-33.8304
173.319
198.483
198.602
174.324
-38.7423
-32.3276
-46.5854
-46.5231
-40.8917
-48.289
-49.6015
-35.7206
-38.7312
-38.5899
-33.5236
-32.9611
-60.5721
-85.417
-86.4994
-57.5913
-50.8699
-56.8291
-54.0061
-54.3622
-46.9164
-53.5574
-49.2703
-49.5955
-38.911
-38.2727
-37.9151
-40.1575
-72.9377
-47.732
-47.3004
-72.2301
-40.0775
-32.5935
-40.752
-42.8937
-27.5155
-126.869
-103.246
-47.0369
-47.9862
-47.2885
6.0582
54.0125
-10.2051
-47.1383
-44.2468
-50.705
-125.763
-47.9802
-104.555
-41.1058
-43.0467
-40.8629
54.4669
0.344592
-23.9167
-43.1917
-45.816
-49.181
-41.4167
-38.8583
-41.8054
-41.6038
-41.8567
-32.7763
-27.7393
-30.9558
-60.805
-52.287
-55.9157
-71.7363
-57.2278
-51.9347
-55.2261
-62.6754
-39.644
-40.2571
-38.7555
-39.2286
-44.7872
-32.9407
-35.3523
-33.6526
-51.564
-66.5871
-51.6799
-57.0698
-57.6119
-62.8369
-53.7463
-56.4971
-37.467
-19.023
-72.4308
149.804
-134.822
-134.503
-103.572
82.306
-64.4817
-46.1022
-60.5039
-55.8006
-46.2897
-46.5947
-55.0839
-42.4769
-42.3939
-38.722
-37.4059
-35.1197
-44.8547
-43.1606
-50.6326
-42.3108
112.557
114
31.7894
167.954
-84.0864
-75.9793
-88.2706
-51.4205
-43.6076
-43.1381
-43.8188
-42.9299
-57.5062
-59.8153
-60.7326
-60.5957
-50.1907
-33.2855
-80.8312
147.077
-61.3809
-43.1027
-57.0814
-54.6081
-42.6307
-44.9299
-50.3593
-37.4432
-40.452
-40.4655
-44.8797
-39.0817
-77.9559
-73.4932
-80.712
-45.152
-54.7386
-57.7235
-55.6205
-60.2205
-34.7266
-32.6741
-37.3636
-34.4025
-46.244
-47.8296
-50.8547
-41.8223
-42.2078
-41.9739
-44.9561
-40.9948
-35.4966
-44.0569
-38.757
-41.9292
-33.6863
-33.7562
-34.356
-35.9734
-55.5829
-55.4136
-50.2956
-72.9897
15.5131
15.7052
28.6349
-11.4019
-85.7747
-86.0008
-92.2185
-84.0187
-36.1547
-32.5241
-36.9563
-34.6261
-42.2791
-43.6167
-46.2966
-42.7573
-42.7045
-49.0116
-44.2924
-42.2156
-57.4485
-57.4145
-52.3551
-74.3924
-83.3534
-67.5362
-72.5983
-62.5501
-80.8778
-63.3866
-68.3306
-57.6525
-70.6062
-59.8198
-59.4945
-52.5285
-21.8591
-15.4462
-14.7553
-0.541065
174.316
148.249
203.853
174.426
-37.4734
-39.7106
-39.0193
-42.5144
-39.5197
-42.1972
-42.259
-45.5035
-35.4915
-36.9965
-34.6951
-35.5769
-87.3168
-69.4945
-97.1576
-86.9545
-58.6286
-55.0045
-59.7222
-55.5554
-51.4602
-48.4713
-53.9939
-51.1674
-38.638
-39.011
-38.2759
-38.2454
-53.2992
-61.1618
-61.1417
-68.6947
-38.737
-34.0712
-41.2899
-34.8652
-79.1635
102.308
-99.758
73.362
-99.0631
-77.9137
-53.7399
-41.7119
-39.917
-40.5024
-56.9889
-41.0715
-62.6175
159.734
18.342
163.197
-77.5048
-44.1383
-51.3356
-43.3141
-44.7407
-43.3203
-54.1503
-51.5398
-98.9691
91.2122
-90.1115
98.5245
-89.9211
-78.5181
-37.5228
-33.5152
-48.0355
-35.7443
-48.6086
-38.4936
17.4246
162.229
-71.0549
156.049
-85.4759
-49.7545
-44.1273
-41.9438
-48.2758
-41.3561
-50.7242
-51.1542
-54.0949
-43.22
-37.6688
-38.6188
-49.0104
-40.5452
-45.3558
-40.1517
-47.4274
-41.0033
-29.0527
-32.3479
-29.5878
-55.5441
-33.4352
-36.7298
-62.861
-27.0222
-52.6997
-47.0356
-50.3815
-82.6612
6.54091
-29.0351
-56.0551
-66.2422
-47.5006
-50.5501
-50.3881
-67.3626
-78.8866
-78.0618
-48.4682
-42.75
-43.9746
-40
-39.3994
-38.477
-46.7452
-40.4013
-43.2011
-39.6141
-34.0744
-36.0997
-32.3036
-33.149
-37.848
-57.7429
-58.1371
-21.0413
9.51844
-26.2885
-49.0398
-47.951
-52.135
-83.2318
-56.1393
-65.9083
-79.8974
-77.473
-50.5125
-52.1239
-52.8795
-68.7609
-112.75
-103.313
163.76
195.531
-84.2857
-83.8675
168.164
163.115
-77.1264
-57.1577
-68.6954
-50.9483
-57.341
-54.7988
-39.2757
-43.0429
-37.6124
-38.7962
-37.3444
-32.6248
-50.998
-54.4379
-39.5109
-40.7299
-22.8116
-22.7041
202.108
202.13
-70.5078
-89.3538
-33.7052
-16.4427
-46.8634
-46.5638
-40.7084
-42.2226
-58.9763
-58.7282
-67.9414
-54.4827
-99.9315
-102.858
195.524
166.132
-73.4194
-52.7768
-67.7698
-50.1748
-50.3641
-50.506
-30.7105
-40.6714
-46.9463
-47.2261
-38.5202
-38.6246
-86.2398
-63.724
-14.3683
-32.4197
-55.659
-54.3248
-54.2026
-68.0696
-37.8484
-35.0854
-36.2734
-33.9395
-60.7385
-64.2229
-39.0104
-42.9448
-46.7549
-47.1249
-39.1563
-39.1372
-34.6606
-42.5693
-53.9605
-48.1411
-33.6605
-33.5248
-38.0996
-37.7811
-46.5385
-46.4458
-84.4303
-96.1524
10.4166
10.9088
-39.9301
-40.1412
-94.6964
-94.5819
-75.3967
-75.3547
-40.8011
-36.3901
-36.464
-34.2768
-60.2024
-56.6857
-41.1002
-45.0896
-46.0767
-39.2906
-49.8468
-46.743
-48.6395
-49.181
-90.7464
-79.7433
-83.6916
-72.8526
-80.515
-78.0857
-41.8865
-50.4948
-60.0476
-53.137
-57.4149
-77.1237
-66.0551
-51.252
-48.1114
-64.8827
-85.4176
-102.353
-85.521
-89.4778
-76.7952
-68.5123
-55.8162
-101.481
-82.1411
-70.9165
-50.0654
-47.5121
-60.5767
-68.3421
-40.6465
-47.1659
-55.0151
-46.1688
-93.639
-103.149
-69.8616
-66.6061
-91.872
-65.1556
-70.0099
-102.836
-43.1683
-44.5625
-51.9875
-47.2664
-45.8306
-48.6079
-52.359
-45.0341
13.4605
-50.3376
-24.6688
24.1953
-47.812
22.0439
-4.59169
-38.5903
-39.4392
-30.3184
-3.65582
23.3582
13.1103
23.717
-24.0715
-48.8268
16.8479
135.204
153.777
84.6914
135.991
168.292
201.746
157.767
135.815
155.716
201.658
168.024
13.1917
90.4916
152.222
131.613
-41.1117
-34.9421
-38.1352
-40.9278
-29.7759
-33.5431
-36.2848
-33.2594
-51.4861
-50.5762
-42.5732
-43.2638
-50.808
-44.1447
-42.5341
-50.2867
-40.8573
-41.394
-40.4357
-38.6429
-52.1302
-52.3977
-45.2596
-44.9837
-53.6201
-47.5469
-45.7521
-52.6908
-36.1524
-33.0088
-38.971
-40.874
-39.5167
-40.8241
-36.8302
-35.7154
-39.4128
-35.777
-36.8732
-40.7658
-34.2383
-34.3194
-34.627
-33.8297
-32.9856
-33.4852
-34.4923
-34.1667
-86.7023
-79.4363
-67.3518
-10.5321
-64.7508
-90.3133
-97.5845
-70.0801
-65.6375
-71.6686
-97.4608
-90.6039
-90.9354
-10.3898
-66.674
-80.6253
-58.31
-47.3712
-53.4543
-45.0641
-53.9689
-55.3962
-56.4381
-52.5778
-50.1426
-58.5129
-62.8437
-52.4599
-54.1764
-45.7146
-55.2843
-59.2595
-58.2929
-44.1348
-49.5131
-44.6532
-55.6258
-56.0493
-51.4448
-49.1715
-48.5542
-47.8132
-57.248
-53.5529
-45.7514
-46.4118
-49.222
-50.7191
-36.7413
-36.1644
-38.6751
-39.5801
-35.9632
-39.2955
-38.1647
-35.9052
-39.7247
-37.0537
-38.3724
-39.263
-41.8953
-42.5395
-39.3557
-38.4643
-65.8622
-64.5871
-68.3185
-82.1835
-46.099
-44.2932
-53.9316
-56.4658
-45.5575
-55.5399
-53.7028
-43.8475
-66.1963
-82.141
-68.333
-63.9603
-42.8395
-37.3899
-37.2302
-40.9518
-36.0353
-33.5876
-31.9478
-33.5333
-42.0522
-42.4421
-41.1611
-39.0727
-43.7039
-42.5158
-42.3546
-43.2034
-30.0371
-134.517
-127.05
-50.5568
-48.3188
-49.3645
9.59914
22.7119
-15.0662
-47.2407
-44.929
-48.4252
-132.936
-39.9626
-112.59
-42.1161
-45.5026
-44.6692
29.0192
5.7778
-23.7044
-43.9209
-46.19
-47.2877
-42.396
-40.0639
-41.4468
-40.5192
-35.2459
-32.7852
-30.0878
-32.582
-58.7234
-54.082
-55.9322
-69.8828
-56.2997
-53.8387
-55.4127
-57.8383
-40.523
-39.7083
-40.4051
-35.5958
-38.5842
-33.6229
-35.29
-35.9591
-52.5922
-69.3196
-54.1862
-56.7574
-57.2267
-58.3865
-55.2699
-56.4598
-33.2814
-25.4038
-62.528
74.9019
-135.121
-135.193
-116.71
72.0248
-58.6446
-49.8879
-58.8762
-54.42
-46.2223
-46.5324
-51.3998
-42.8042
-40.9379
-38.9265
-38.4424
-36.544
-44.0121
-44.0303
-47.654
-43.0365
108.481
109.564
77.4862
133.563
-88.1287
-89.7309
-89.8321
-70.4022
-43.529
-43.3479
-43.4343
-43.1488
-58.8593
-59.883
-59.8747
-60.2441
-49.5623
-41.2194
-72.9312
74.7873
-56.6451
-45.5514
-55.1591
-52.7098
-43.097
-44.5886
-47.8362
-39.8156
-40.4329
-40.8435
-42.6667
-39.4948
-82.0947
-83.5936
-84.9304
-63.5658
-56.0231
-57.3266
-55.9527
-58.8737
-34.145
-33.0608
-34.3789
-34.011
-46.5005
-47.4084
-49.8557
-43.4982
-42.2603
-42.1087
-43.3376
-41.8315
-35.6996
-41.2886
-39.0145
-40.1706
-33.8168
-33.8467
-34.2437
-33.9508
-55.2581
-55.3949
-52.5438
-64.0994
19.1371
19.2044
28.3362
6.66369
-87.5344
-87.6008
-91.1383
-86.0398
-34.12
-32.8185
-33.8042
-34.2747
-42.3521
-42.899
-43.0526
-43.1071
-45.2251
-47.8704
-45.2287
-46.2247
-57.1565
-57.18
-54.5531
-65.2911
-75.2157
-68.4957
-70.9259
-65.7303
-71.8735
-64.2896
-66.6863
-60.8681
-64.8319
-60.0611
-59.848
-55.9599
-18.266
-12.9672
-12.5724
-7.35133
176.22
164.709
191.687
176.198
-38.3172
-39.5047
-39.2799
-40.8811
-40.7469
-42.0758
-42.0319
-43.6217
-35.6227
-36.2958
-35.1531
-35.661
-88.4166
-80.3694
-95.7737
-88.4513
-58.0841
-55.9286
-57.7355
-55.9993
-51.046
-49.7072
-52.4818
-51.1499
-38.58
-38.6756
-38.3287
-38.38
-56.8705
-61.0369
-60.9405
-64.7203
-37.6358
-35.0898
-39.6613
-35.5107
-28.6937
-31.4198
-70.91
57.1683
-124.841
-134.947
-113.27
59.8267
-89.3664
-71.5884
-91.4839
-77.277
-46.0041
-45.7876
-48.714
-42.4572
-47.7907
-44.9488
-44.969
-41.5084
-46.5767
-47.1261
-59.1312
-42.4543
2.68116
-12.5795
-53.1412
100.842
87.3762
113.046
71.2045
104.795
-41.331
-52.0488
-60.8484
-50.2288
-47.1553
-47.146
-49.5714
-43.7105
-43.8188
-43.6109
-43.9947
-43.5251
-51.9779
-55.6172
-53.9135
-52.7224
-122.578
-134.282
-112.204
83.9181
-42.6135
-47.6657
-75.2249
48.0719
-90.4274
-69.2846
-86.0256
-77.7621
-40.5927
-38.9309
-39.6207
-35.3784
-42.1308
-42.912
-46.2264
-36.6284
-40.2114
-40.9516
-45.9974
-38.5901
90.9021
113.503
70.4102
112.364
-4.77512
-24.988
-67.0776
94.0094
-49.1812
-50.0845
-69.4878
-66.0142
-42.838
-42.9201
-43.2704
-42.4721
-46.4606
-45.1195
-48.0872
-41.5807
-50.394
-53.1756
-51.3868
-51.7158
-41.3119
-42.4183
-48.6248
-41.8523
-38.366
-36.4018
-38.2052
-38.2595
-44.8255
-45.868
-51.2299
-42.1828
-42.2788
-42.0227
-43.7161
-41.1947
-45.387
-42.9977
-47.1255
-42.2923
-31.3318
-31.671
-29.7559
-31.8624
-28.5932
-35.0635
-27.087
-48.1499
-31.7114
-33.3295
-33.2401
-33.3133
-61.5975
-69.3262
-63.374
-47.3332
-51.0832
-49.007
-52.0735
-47.8769
-55.4687
-55.7456
-52.8268
-69.1801
-27.6773
7.7109
5.66044
-12.4991
-58.2692
-59.3296
-57.7144
-63.0343
-50.5745
-46.5303
-48.0606
-49.5157
-55.0776
-55.3393
-52.5286
-60.5732
-67.7636
-81.8056
-76.8639
-76.9428
-39.6429
-40.3812
-44.2093
-40.6249
-41.3712
-41.4927
-42.7881
-40.8121
-38.1335
-36.751
-36.6455
-38.2726
-41.1279
-42.5684
-45.5309
-41.2776
-42.2943
-39.8764
-41.9728
-40.5162
-32.7709
-33.5934
-33.8077
-33.2688
-33.4354
-32.7098
-31.8516
-33.0089
-32.7556
-40.0103
-37.3219
-49.8671
-54.9651
-66.4601
-58.7125
-41.65
-25.2657
8.79263
6.13051
-10.8648
-48.4167
-44.7889
-46.578
-47.9278
-56.9623
-57.5719
-54.733
-70.803
-58.0376
-57.9222
-56.7627
-62.4981
-68.4713
-82.0028
-77.8555
-78.5374
-52.6873
-50.3461
-51.0368
-51.827
-56.6
-57.4515
-54.8486
-62.2416
-95.82
-94.2224
-108.826
-104.269
179.88
171.474
168.976
187.717
-93.9255
-76.9585
-85.5908
-82.8508
133.047
157.765
165.259
168.354
-62.6388
-66.147
-69.4897
-60.2946
-57.1477
-59.1545
-63.1799
-54.2732
-54.9235
-58.5547
-56.5482
-57.4873
-42.2335
-39.4612
-40.1932
-42.1534
-37.6029
-38.8854
-37.7
-38.3459
-35.5632
-33.5445
-35.9599
-33.5671
-52.0132
-54.3597
-51.744
-54.5062
-40.977
-39.4771
-39.8002
-40.4248
-9.08055
-22.605
-20.3336
-20.4115
186.449
203.988
203.087
203.081
-82.2461
-74.5546
-73.2686
-82.7811
-35.1768
-19.9903
-30.7112
-21.6447
-44.9462
-49.4238
-46.7047
-46.5587
-41.8282
-41.0112
-40.9436
-41.476
-61.4606
-61.5329
-61.2767
-62.2386
-61.5696
-61.5792
-64.5473
-57.654
-103.065
-88.7852
-101.615
-103.227
178.797
172.136
187.706
169.329
-58.9922
-61.9892
-66.5036
-56.1659
-56.1587
-58.6044
-62.3711
-53.544
-50.4661
-52.2938
-52.628
-50.2195
-36.108
-34.3967
-34.8546
-37.5128
-45.3503
-47.2389
-46.5693
-47.1704
-38.8307
-38.3558
-38.5443
-38.6053
-76.2787
-70.1994
-78.2214
-67.3167
-31.4373
-18.6351
-19.4793
-28.6058
-56.1204
-55.9303
-56.8021
-56.633
-61.5846
-61.1452
-57.5348
-64.3497
-39.285
-37.0985
-37.8318
-36.5274
-34.731
-35.2695
-35.5885
-34.41
-56.6774
-61.7794
-61.6516
-64.5229
-40.7638
-39.9864
-39.5146
-41.426
-46.0917
-49.3514
-47.0339
-47.2485
-40.0478
-38.2108
-39.2457
-39.2401
-38.5348
-38.7332
-36.6707
-40.4883
-45.6106
-55.4188
-55.1161
-48.3606
-33.8162
-34.3163
-33.7441
-33.6668
-37.4403
-38.0292
-37.9059
-37.7371
-48.4861
-44.2602
-46.3719
-46.3346
-87.5219
-86.9281
-88.6379
-95.6962
23.8886
6.29516
13.8458
13.5597
-24.5307
-49.2786
-40.8561
-41.7662
-93.6311
-98.2858
-97.5724
-97.5059
-80.5479
-72.4804
-75.7835
-75.7207
-37.5369
-38.4237
-38.5468
-37.2385
-35.0191
-35.4144
-35.7778
-34.6946
-52.8203
-56.4382
-59.7618
-57.4131
-42.6142
-42.4702
-41.7635
-43.6937
-43.4091
-42.4001
-44.4521
-41.1213
-43.6245
-50.4644
-50.1195
-46.3732
-50.5376
-47.063
-48.6802
-48.9451
-90.5682
-87.0258
-94.3153
-87.7608
-101.632
-105.852
-110.684
-90.2228
-56.1954
-55.4974
-55.1119
-59.1515
-62.72
-57.3744
-69.2139
-64.052
-82.3256
-91.2271
-100.85
-100.891
-107.432
-94.5099
-98.071
-82.1589
-84.6552
-96.7941
-99.6002
-98.2528
-58.3992
-52.5293
-62.2706
-59.3836
-51.2765
-52.3218
-48.8482
-54.5673
-90.0523
-80.137
-83.2105
-75.0178
-89.9019
-79.4796
-82.7205
-74.0359
-44.13
-44.6068
-47.0126
-46.0479
-44.7165
-45.8512
-47.6757
-46.7406
-12.3374
-36.6477
-27.2488
-35.1218
-12.3567
2.11319
-9.69168
5.65426
-8.66612
4.04585
-7.75372
6.33433
-12.8421
-40.9553
-26.4249
-34.3721
161.785
164.519
169.351
166.877
186.402
187.91
200.768
200.707
188.381
184.687
200.78
200.029
162.806
158.782
165.758
170.443
-38.2969
-39.3735
-38.1886
-38.6558
-31.0538
-30.1864
-33.474
-32.7592
-46.7927
-48.7148
-44.4949
-46.4619
-46.6047
-48.359
-44.7345
-46.4419
-40.9602
-40.2849
-40.6525
-41.0612
-48.0618
-50.1246
-46.6198
-48.4734
-49.9869
-51.1548
-47.7985
-49.3043
-34.9733
-35.8234
-36.2105
-37.257
-38.6779
-39.3292
-37.5664
-38.9453
-39.242
-38.4274
-38.9587
-37.5515
-33.5863
-33.3587
-33.5363
-33.9065
-32.662
-33.0552
-33.4928
-33.2709
-92.7481
-39.9048
-68.5995
-41.6136
-75.201
-81.9032
-91.0917
-91.7659
-82.8411
-76.4017
-92.0616
-89.5686
-38.9597
-95.9194
-41.3018
-70.0577
-48.8686
-52.7483
-50.7382
-52.4993
-57.4047
-55.209
-57.7524
-55.4185
-52.7109
-53.9648
-53.6007
-55.7657
-54.542
-50.9692
-57.1552
-54.4595
-45.3529
-51.1217
-46.6749
-48.5556
-55.3285
-53.1191
-53.9342
-51.3734
-47.8792
-49.6432
-49.4722
-51.4149
-46.7061
-48.4575
-50.3882
-47.5581
-39.7434
-38.5006
-39.1948
-38.4335
-38.9138
-37.9496
-38.3886
-37.9327
-37.5772
-38.1256
-37.6153
-38.8861
-40.2735
-40.9394
-39.4367
-41.0079
-69.1309
-76.3092
-70.8553
-74.5297
-45.9991
-48.5343
-47.2537
-51.5465
-45.4442
-48.4589
-46.8993
-51.5331
-68.454
-76.0957
-70.9619
-74.5412
-41.0523
-40.2049
-39.8104
-38.6106
-34.2063
-33.9114
-32.1593
-30.8973
-41.3329
-40.9614
-40.7554
-41.3411
-43.0178
-43.1092
-43.1578
-42.6788
-83.851
17.2321
-108.065
-47.8708
-82.3334
-95.0494
-50.6842
-43.0371
-46.9758
-44.0906
-53.017
-43.9709
-29.4368
96.435
44.3871
113.896
-27.8878
7.33172
-48.6467
-44.6244
-44.9937
-43.937
-50.6112
-48.7626
-106.551
-38.9024
-79.8712
22.6063
-82.5927
-93.9026
-43.6686
-37.9607
-47.6659
-36.4429
-47.3054
-40.2348
44.453
115.44
-40.2996
88.4998
-44.0485
3.58936
-44.1413
-42.6798
-47.0863
-43.0969
-48.7409
-48.3656
-39.9732
-44.9266
-39.0403
-39.3205
-47.2896
-41.0136
-42.6844
-40.7528
-51.9136
-36.0066
-30.8231
-33.1191
-28.6036
-36.6945
-32.5977
-33.1476
-59.3439
-62.6887
-54.8424
-51.2981
-53.1583
-70.8546
-56.9175
-84.9638
-55.9058
-61.1017
-51.3258
-52.9871
-53.2085
-59.2881
-63.743
-63.7718
-39.411
-42.49
-41.3351
-40.5915
-39.9098
-39.1486
-41.5592
-42.4543
-52.8039
-37.012
-33.9336
-34.3511
-36.197
-34.618
-36.2244
-53.5568
-50.6957
-55.0576
-52.0015
-84.2037
-49.7615
-51.8999
-54.6348
-72.2074
-56.7166
-61.4545
-64.2252
-64.0316
-53.247
-55.3058
-55.1977
-60.4992
-59.9506
67.2294
-60.2193
90.372
-74.8205
-68.5395
142.915
154.08
-116.486
76.5567
-116.225
76.4952
-103.498
-103.667
67.673
34.0647
-70.0511
-65.2732
-51.2931
-47.1452
-65.3187
-56.4663
-61.1007
-51.9843
-49.1142
-41.759
-50.4955
-43.3846
-55.5448
-52.6913
-42.03
-42.4339
-40.5362
-38.6138
-38.0684
-34.4548
-37.021
-37.9253
-36.3813
-34.2822
-49.2806
-43.7582
-45.1639
-41.9963
-48.7122
-52.6422
-39.9315
-42.3521
77.0309
128.147
76.6606
129.052
27.8879
27.5927
170.664
170.7
-97.5937
-73.1821
-78.2149
-62.3004
-83.5845
-90.3368
-48.0156
-45.7649
-43.7165
-43.3837
-43.2614
-42.8131
-44.0304
-43.8041
-42.6126
-43.0896
-57.7388
-56.6106
-59.5277
-62.0413
-59.9864
-59.5894
-62.6208
-58.2465
-67.472
61.0341
-73.5534
83.8357
-84.9531
-76.5207
152.691
140.174
-66.2635
-63.2837
-44.8865
-45.402
-61.575
-52.3716
-59.7213
-50.7809
-45.2338
-37.0436
-47.8618
-40.1124
-47.7786
-50.9693
-35.6797
-39.1553
-43.5659
-39.5844
-42.3068
-39.672
-44.9023
-45.2682
-39.1888
-39.1379
-96.7651
-69.7037
-70.97
-53.1205
-86.5416
-72.7198
-39.6146
-46.3055
-54.1307
-55.4817
-56.9804
-60.8931
-56.6207
-55.3973
-57.7078
-62.1716
-34.5108
-35.2239
-32.7239
-32.9674
-34.794
-35.0434
-35.14
-33.8908
-50.2197
-42.5982
-50.3763
-45.3694
-50.754
-51.0452
-41.2605
-42.7489
-43.3217
-41.7917
-43.019
-41.5661
-44.8573
-45.0541
-40.9254
-40.8996
-33.3457
-38.1899
-43.7033
-43.5554
-36.2907
-40.9914
-41.8989
-44.2456
-34.0697
-33.9193
-34.1622
-33.7668
-34.3657
-34.301
-36.0513
-35.9326
-52.7361
-67.1811
-52.819
-61.9411
-50.5302
-50.2058
-75.4647
-71.1466
22.2734
0.316404
23.1725
0.903359
25.9758
27.5788
-10.6213
-10.9663
-88.6553
-84.0346
-88.7882
-84.1479
-91.7539
-91.8232
-83.3209
-83.4061
-35.217
-35.5139
-31.0481
-33.5598
-36.4326
-32.9427
-35.1255
-34.1323
-43.9682
-41.6496
-44.1756
-45.246
-46.9072
-46.1419
-41.9668
-43.7064
-41.1327
-42.2362
-48.3514
-50.4226
-45.9072
-42.5723
-41.3911
-45.9201
-54.7569
-67.9801
-54.7668
-63.5678
-52.3547
-52.4557
-72.4297
-76.954
-82.1022
-84.5454
-72.6162
-63.3267
-69.1397
-77.7947
-61.1078
-64.2002
-78.5269
-81.2402
-69.6751
-58.5978
-74.5612
-63.7568
-58.8952
-56.1396
-70.1248
-69.9499
-64.6289
-55.7811
-64.4705
-55.4358
-52.3479
-52.5695
-22.7144
-22.3364
-20.9291
-11.2948
-10.2719
-20.183
-1.62111
-1.18464
165.255
192.609
150.662
150.737
203.2
203.227
190.064
164.803
-37.77
-37.1153