# vtk DataFile Version 2.0
tet_velo
ASCII
DATASET UNSTRUCTURED_GRID
POINTS 29498 float
-0.705765 0.165 -2.075
-0.730863 0.275 2.085
-0.735 0.755 -1.97233
-0.615 1.04755 2.115
0.70726 0.165 -2.075
0.735 0.275 2.08243
0.735 0.755 -1.97365
0.615 1.04942 2.115
-0.752646 0.163151 -0.688333
-0.797153 0.163677 0.698333
-0.785056 0.942572 -0.609887
-0.750779 1.04581 0.752557
0.755021 0.163153 -0.68919
0.800426 0.163661 0.69662
0.786278 0.944418 -0.610767
0.751414 1.04769 0.752117
-1.45901 -0.280121 -3.21185
-1.46387 -0.216238 -2.11221
-1.4982 -0.216228 -0.725018
-1.518 -0.225402 0.666991
-1.47777 -0.155757 2.05458
-1.46735 -0.0970485 3.15619
-1.4763 -0.0465066 4.2541
-1.46077 0.0699842 -3.16927
-1.46647 0.154693 -2.07222
-1.50869 0.180275 -0.689618
-1.51862 0.181651 0.695158
-1.44497 0.249171 2.07821
-1.4481 0.306562 3.17952
-1.46894 0.356473 4.27821
-1.47508 0.732499 -3.07731
-1.49041 0.813852 -1.97915
-1.52864 0.95565 -0.613014
-1.48678 1.03167 0.751401
-1.37327 1.0531 2.11803
-1.41226 1.10683 3.22071
-1.45907 1.16116 4.32349
-1.49131 1.84766 -2.95728
-1.50139 1.94629 -1.86277
-1.5158 2.10565 -0.504255
-1.50848 2.23342 0.849113
-1.48359 2.29875 2.20793
-1.47993 2.33828 3.30308
-1.49331 2.38219 4.40322
-0.7169 -0.274778 -3.21371
-0.712749 -0.207212 -2.1148
-0.74026 -0.223941 -0.725159
-0.773133 -0.238061 0.669423
-0.751162 -0.145146 2.05918
-0.747258 -0.0895748 3.15916
-0.75563 -0.043357 4.25561
-0.717697 0.0681905 -3.17012
-0.741659 0.315282 3.182
-0.755298 0.359751 4.27927
-0.728666 0.707413 -3.07482
-0.713428 1.10744 3.21989
-0.752716 1.1621 4.32298
-0.740542 1.82979 -2.9548
-0.747003 1.92909 -1.85999
-0.764055 2.1011 -0.502718
-0.773073 2.23879 0.848523
-0.766217 2.30237 2.20593
-0.766448 2.33964 3.30107
-0.777668 2.38296 4.40164
0.743111 -0.274476 -3.21418
0.738198 -0.207049 -2.11513
0.76845 -0.223784 -0.726019
0.784848 -0.237915 0.66789
0.73809 -0.144956 2.05715
0.70594 -0.0890602 3.15753
0.690581 -0.0426401 4.25431
0.735564 0.068436 -3.1706
0.682563 0.315905 3.18043
0.674825 0.360552 4.27803
0.742844 0.707727 -3.07567
0.639191 1.10868 3.21912
0.652113 1.16315 4.32203
0.756492 1.83056 -2.95565
0.75836 1.93002 -1.86085
0.746129 2.10234 -0.503503
0.706695 2.24017 0.847857
0.664783 2.30374 2.20532
0.652737 2.34091 3.30038
0.649475 2.38411 4.40086
1.48244 -0.279324 -3.21294
1.48124 -0.215519 -2.11323
1.51897 -0.215427 -0.72669
1.53796 -0.224588 0.664415
1.4844 -0.154865 2.0514
1.44316 -0.0958231 3.15332
1.42316 -0.0450211 4.25161
1.47408 0.0707498 -3.17039
1.46681 0.155474 -2.07314
1.51279 0.181333 -0.691191
1.53425 0.182724 0.692738
1.4607 0.250289 2.07516
1.41632 0.308002 3.17681
1.40367 0.358109 4.27584
1.48353 0.733441 -3.07887
1.48719 0.815019 -1.98083
1.52673 0.958088 -0.614566
1.49283 1.03431 0.749996
1.37743 1.0557 2.11672
1.3634 1.1091 3.21899
1.37327 1.16321 4.32157
1.50314 1.84925 -2.95894
1.5066 1.94815 -1.86444
1.49708 2.10801 -0.505816
1.45284 2.23603 0.847718
1.39775 2.30135 2.2066
1.37724 2.34073 3.30163
1.37264 2.38445 4.40162
-0.783348 0.46 -2.08663
0.000747502 0.161409 -2.07859
-0.730412 0.162869 -1.38167
-0.697482 0.661275 2.12455
0.00206852 0.283704 2.07501
-0.783977 0.19937 1.39167
0 0.809656 -2.02765
-0.779469 0.868227 -1.29111
0 1.09134 2.15786
-0.720363 1.08415 1.43378
0.784295 0.46 -2.08749
0.732342 0.162875 -1.3821
0.700097 0.66221 2.12381
0.787481 0.199563 1.38952
0.780537 0.869606 -1.29221
0.720661 1.08601 1.43356
-0.77491 0.163404 0.005
-0.876846 0.552862 -0.64911
0.0011872 0.160694 -0.688762
-0.870357 0.604745 0.725445
0.00163631 0.160945 0.697477
-0.769546 0.995821 0.071335
0.00061094 1.233 -0.610327
0.000317492 1.43964 0.752337
0.777725 0.163405 0.00371492
0.878522 0.553785 -0.649978
0.871814 0.605677 0.724368
0.770576 0.997786 0.070675
-0.876759 0.506431 -1.33639
-0.876747 0.578803 0.0381675
-0.87906 0.63301 1.41272
0.000967353 0.160554 -1.38188
0.00141176 0.16082 0.00435746
0.00185242 0.186643 1.3906
0.000373751 0.46 -2.30019
0.00103426 0.661742 2.23567
0.00030547 0.947057 -1.29166
0.000464216 1.43025 0.071005
0.000158746 1.42984 1.43367
0.87629 0.506893 -1.33715
0.878192 0.579731 0.037195
0.876581 0.633944 1.41154
-1.08612 0.159846 -2.07361
-0.709257 -0.0211061 -2.0949
-0.711731 0.116595 -2.62256
-1.08791 0.262086 2.08161
-0.741012 0.0649272 2.07209
-0.736261 0.295141 2.6335
-1.1127 0.784426 -1.97574
-0.731833 0.731207 -2.52357
-0.741001 1.34204 -1.91616
-0.994134 1.05032 2.11651
-0.664214 1.07749 2.66745
-0.690608 1.67496 2.16047
0.722729 -0.0210246 -2.09506
0.721412 0.116718 -2.6228
1.08704 0.160237 -2.07407
0.736545 0.0650222 2.06979
0.708781 0.295453 2.63143
1.09785 0.262645 2.0788
0.738922 0.731363 -2.52466
0.74668 1.34251 -1.91725
1.11109 0.785009 -1.97724
0.627095 1.07905 2.66706
0.639891 1.67658 2.16016
0.996216 1.05256 2.11586
-1.13067 0.171713 -0.688976
-0.746453 -0.0303948 -0.706746
-1.15789 0.172664 0.696746
-0.785143 -0.0371922 0.683878
-1.15685 0.949111 -0.611451
-0.774555 1.52184 -0.556303
-1.11878 1.03874 0.751979
-0.761926 1.6423 0.80054
0.761735 -0.0303155 -0.707605
1.1339 0.172243 -0.690191
0.792637 -0.0371273 0.682255
1.16734 0.173192 0.694679
0.766203 1.52338 -0.557135
1.15651 0.951253 -0.612666
0.729054 1.64393 0.799987
1.12212 1.041 0.751056
-1.46144 -0.24818 -2.66203
-1.45989 -0.105068 -3.19056
-1.08796 -0.27745 -3.21278
-1.48104 -0.216233 -1.41861
-1.46517 -0.0307726 -2.09221
-1.08831 -0.211725 -2.1135
-1.5081 -0.220815 -0.0290135
-1.50344 -0.0179765 -0.707318
-1.11923 -0.220084 -0.725088
-1.49788 -0.19058 1.36079
-1.51831 -0.0218756 0.681075
-1.14556 -0.231732 0.668207
-1.47256 -0.126403 2.60539
-1.46137 0.0467071 2.0664
-1.11446 -0.150451 2.05688
-1.47183 -0.0717776 3.70515
-1.45773 0.104757 3.16786
-1.10731 -0.0933116 3.15768
-1.47262 0.154983 4.26616
-1.11596 -0.0449318 4.25486
-1.46362 0.112339 -2.62074
-1.46792 0.401242 -3.12329
-1.08923 0.0690874 -3.16969
-1.48758 0.167484 -1.38092
-1.47844 0.484272 -2.02568
-1.51365 0.180963 0.00277014
-1.51866 0.567963 -0.651316
-1.48179 0.215411 1.38669
-1.5027 0.606662 0.72328
-1.44653 0.277866 2.62887
-1.40912 0.651136 2.09812
-1.45852 0.331517 3.72886
-1.43018 0.706697 3.20011
-1.09488 0.310922 3.18076
-1.46401 0.758818 4.30085
-1.11212 0.358112 4.27874
-1.48274 0.773175 -2.52823
-1.4832 1.29008 -3.01729
-1.10187 0.719956 -3.07606
-1.50953 0.884751 -1.29608
-1.4959 1.38007 -1.92096
-1.50771 0.993662 0.0691934
-1.52222 1.53065 -0.558635
-1.43002 1.04239 1.43471
-1.49763 1.63254 0.800257
-1.39276 1.07997 2.66937
-1.42843 1.67592 2.16298
-1.43567 1.134 3.7721
-1.4461 1.72255 3.26189
-1.06284 1.10714 3.2203
-1.47619 1.77167 4.36335
-1.1059 1.16163 4.32323
-1.49635 1.89697 -2.41003
-1.11593 1.83873 -2.95604
-1.50859 2.02597 -1.18351
-1.1242 1.93769 -1.86138
-1.51214 2.16953 0.172429
-1.13993 2.10337 -0.503487
-1.49604 2.26608 1.52852
-1.14078 2.2361 0.848818
-1.48176 2.31851 2.7555
-1.1249 2.30056 2.20693
-1.48662 2.36023 3.85315
-1.12319 2.33896 3.30207
-1.13549 2.38257 4.40243
-0.714825 -0.240995 -2.66425
-0.717299 -0.103294 -3.19192
0.0131054 -0.274627 -3.21394
-0.726505 -0.215577 -1.41998
0.0127243 -0.207131 -2.11496
-0.756696 -0.231001 -0.0278678
0.0140949 -0.223863 -0.725589
-0.762147 -0.191604 1.3643
0.00585786 -0.237988 0.668656
-0.74921 -0.11736 2.60917
-0.00653591 -0.145051 2.05817
-0.751444 -0.0664659 3.70739
-0.744458 0.112854 3.17058
-0.0206591 -0.0893175 3.15835
-0.755464 0.158197 4.26744
-0.0325247 -0.0429986 4.25496
-0.723182 0.387802 -3.12247
0.00893385 0.0683132 -3.17036
-0.748478 0.337517 3.73063
-0.727543 0.711361 3.20095
-0.0295479 0.315594 3.18122
-0.754007 0.760927 4.30113
-0.0402364 0.360151 4.27865
-0.734604 1.2686 -3.01481
0.00708889 0.70757 -3.07524
-0.733072 1.13477 3.77144
-0.739938 1.72354 3.26048
-0.0371188 1.10806 3.21951
-0.765192 1.77253 4.36231
-0.0503015 1.16262 4.32251
-0.743772 1.87944 -2.4074
0.00797528 1.83018 -2.95523
-0.755529 2.01509 -1.18135
0.00567847 1.92955 -1.86042
-0.768564 2.16995 0.172902
-0.00896321 2.10172 -0.503111
-0.769645 2.27058 1.52723
-0.0331894 2.23948 0.84819
-0.766332 2.32101 2.7535
-0.050717 2.30306 2.20563
-0.772058 2.3613 3.85135
-0.0568552 2.34027 3.30072
-0.0640964 2.38353 4.40125
0.740655 -0.240763 -2.66465
0.739338 -0.10302 -3.19239
1.11278 -0.2769 -3.21356
0.753324 -0.215416 -1.42057
1.10972 -0.211284 -2.11418
0.776649 -0.23085 -0.0290647
1.14371 -0.219605 -0.726355
0.761469 -0.191435 1.36252
1.16141 -0.231252 0.666152
0.722015 -0.117008 2.60734
1.11124 -0.14991 2.05428
0.69826 -0.0658502 3.70592
0.694251 0.113422 3.16898
1.07455 -0.0924417 3.15543
0.682703 0.158956 4.26617
1.05687 -0.0438306 4.25296
0.739204 0.388081 -3.12313
1.10482 0.0695929 -3.17049
0.678694 0.338228 3.72923
0.660877 0.712291 3.19978
1.04944 0.311953 3.17862
0.663469 0.761849 4.30003
1.03925 0.35933 4.27694
0.749668 1.26915 -3.01566
1.11319 0.720584 -3.07727
0.645652 1.13591 3.77058
0.645964 1.72479 3.25975
1.0013 1.10889 3.21905
0.650794 1.77363 4.36144
1.01269 1.16318 4.3218
0.757426 1.88029 -2.40825
1.12981 1.83991 -2.95729
0.752244 2.01618 -1.18218
1.13248 1.93908 -1.86265
0.726412 2.17126 0.172177
1.1216 2.10517 -0.504659
0.685739 2.27196 1.52659
1.07977 2.2381 0.847787
0.65876 2.32233 2.75285
1.03127 2.30255 2.20596
0.651106 2.36251 3.85062
1.01499 2.34082 3.30101
1.01106 2.38428 4.40124
1.48184 -0.247422 -2.66309
1.47826 -0.104287 -3.19167
1.50011 -0.215473 -1.41996
1.47403 -0.0300226 -2.09319
1.52847 -0.220007 -0.0311377
1.51588 -0.017047 -0.708941
1.51118 -0.189726 1.35791
1.53611 -0.0209319 0.678576
1.46378 -0.125344 2.60236
1.47255 0.0477121 2.06328
1.43316 -0.0704221 3.70246
1.42974 0.106089 3.16506
1.41342 0.156544 4.26373
1.47045 0.113112 -2.62177
1.47881 0.402095 -3.12463
1.4898 0.168403 -1.38217
1.477 0.485246 -2.02699
1.52352 0.182028 0.000773101
1.51976 0.56971 -0.652879
1.49748 0.216507 1.38395
1.51354 0.608515 0.721367
1.43851 0.279146 2.62599
1.41907 0.652994 2.09594
1.41 0.333056 3.72632
1.38986 0.708549 3.1979
1.38847 0.760658 4.29871
1.48536 0.77423 -2.52985
1.49333 1.29134 -3.0189
1.50696 0.886553 -1.2977
1.4969 1.38159 -1.92264
[...]
POINT_DATA 29498
VECTORS point_vectors float
-3.27488 -4.6675 8.51263
0.124405 0.264468 0.975286
-2.27674 1.44661 4.82423
-0.108835 -0.123603 0.0491402
3.26365 -4.71907 8.57745
-0.129363 0.214239 0.906982
2.28551 1.39977 4.86222
0.127609 -0.103683 0.0248329
0.00018369 0.000347387 0.0234377
0.00929235 -0.000985883 0.165567
-0.00265892 -0.00234364 0.0803274
0.00440052 0.00891387 0.042889
-0.000722519 0.000352532 0.0349264
-0.00929748 -0.0036422 0.232457
0.00250013 -0.00195084 0.0796177
-0.00406587 0.00825158 0.0391975
-0.572178 -0.319594 19.8526
-1.22457 -0.819815 20.547
-0.407419 -0.467704 21.4405
0.12747 -0.134676 21.6034
0.735046 0.155126 21.5611
1.04267 0.271033 21.1628
0.991218 0.121578 20.6779
-0.739098 -0.262572 19.7367
-1.79182 -0.719442 20.528
-0.627282 -0.589835 21.5209
0.0812195 -0.316321 21.6917
0.990163 -0.0979143 21.6509
1.28565 -0.0624402 21.2917
1.18134 -0.0523935 21.0541
-0.880698 0.0867486 19.6295
-2.02012 0.178762 20.4513
-1.28809 -0.321127 21.4679
-0.352199 -0.455786 21.7703
0.533313 -0.778404 21.6616
0.819155 -0.786442 21.44
0.769711 -0.551062 20.9531
-0.540904 0.400165 19.9644
-0.858652 0.617318 20.4252
-0.801107 0.432045 21.1172
-0.309317 0.0283603 21.4505
0.00230216 -0.262053 21.3509
0.165288 -0.371857 21.1562
0.19274 -0.455204 20.6488
-0.55294 -0.71947 19.3628
-1.60197 -3.11436 20.8171
-0.199268 -0.460413 21.8145
0.149967 0.0687596 21.7082
0.764309 1.18514 20.4799
1.14574 1.57425 19.9076
1.00154 1.0875 19.6405
-0.751364 -0.612158 18.9333
1.9815 1.37413 11.5758
2.12739 1.03755 14.9459
-1.03629 0.257206 18.4821
0.590716 -1.08349 9.32576
1.34208 -1.28094 15.4791
-0.466017 0.774419 19.6531
-0.844152 1.3944 20.1982
-0.969598 1.34541 21.2447
-0.383406 0.273941 21.7463
-0.127961 -0.260356 21.5942
0.039745 -0.446299 20.7398
-0.00951626 -0.333002 21.2069
0.573855 -0.691163 19.3955
1.62811 -3.00285 20.8149
0.192546 -0.472224 21.8287
-0.168514 0.0658057 21.7383
-0.769804 1.12417 20.3716
-1.08823 1.51689 19.6033
-0.962557 1.25254 19.3576
0.763492 -0.597756 18.9555
-1.81836 1.14148 9.89434
-2.22072 1.35498 12.7429
1.0518 0.260082 18.5075
0.0520078 -0.842817 4.78806
-1.09262 -1.07935 11.1978
0.467586 0.769087 19.6568
0.846497 1.3863 20.2007
0.946035 1.37879 21.237
0.353489 0.328197 21.7562
0.092138 -0.205452 21.5645
-0.0557865 -0.401898 20.7671
0.0101245 -0.297494 21.4141
0.566274 -0.313853 19.8583
1.20522 -0.801363 20.5479
0.428649 -0.46261 21.4165
-0.11738 -0.145341 21.5738
-0.713075 0.122812 21.5426
-1.0393 0.255079 21.177
-1.01057 0.153265 20.7599
0.739959 -0.25677 19.7359
1.78926 -0.719579 20.5341
0.631451 -0.592464 21.5131
-0.0789508 -0.322001 21.6554
-0.926135 -0.141763 21.6173
-1.273 -0.0978216 21.3504
-1.18941 -0.00558415 21.2242
0.869744 0.0813958 19.6434
2.02505 0.179296 20.4519
1.29459 -0.320967 21.468
0.351301 -0.447926 21.7562
-0.459504 -0.762687 21.6113
-0.756849 -0.799748 21.5646
-0.956574 -0.771099 20.551
0.536713 0.391214 19.9712
0.851605 0.607293 20.4201
0.798719 0.448919 21.116
0.330236 0.0425177 21.4555
0.0120441 -0.240799 21.3635
-0.13527 -0.359705 21.0517
-0.069604 -0.330371 21.166
-1.80144 -0.221558 2.75532
-4.64658e-05 -0.0224381 0.0856073
0.00921006 -0.000561341 0.126402
-0.00118824 -0.00148089 8.00776e-05
-0.000231429 0.000797809 0.00465325
0.0273461 0.0172365 0.679641
-6.61927e-05 0.0395004 0.123788
-0.810894 -0.32476 1.68328
-0.00690257 0.00845365 -0.0111577
0.00323136 0.0025769 0.036381
1.67637 -0.220855 2.55464
-0.00617396 -0.000402503 0.0754976
0 0 0
-0.033786 0.0154562 0.732375
0.844777 -0.356754 1.76585
-0.00270582 0.00226078 0.0296226
0.00143602 0.00103711 0.266694
0 0 0
3.69664e-09 -3.98956e-09 -1.90301e-06
1.17772e-05 0.000180315 0.00121264
-3.60348e-08 2.50024e-08 1.33333e-05
0 0 0
-0.000200055 0.0760539 0.161249
-6.31368e-05 8.63339e-05 0.0137461
-0.00279197 0.000921437 0.314489
0 0 0
-5.36677e-06 7.85437e-05 0.000547607
0 0 0
-0.000456248 -0.00100264 0.00978413
3.79328e-06 4.87355e-05 0.000531864
0.0109279 0.00610331 0.135035
-8.78626e-08 3.40221e-07 3.2942e-05
-2.09925e-08 9.74095e-09 1.30997e-05
0 0 0
0.00170507 0.0129122 0.0973508
0 0 0
-9.58331e-06 0.000318907 0.00200123
-6.28357e-05 0.00667783 0.070708
-0.00062124 -0.00111141 0.0439035
0.000903316 -0.00202355 0.0191471
-0.00012478 0.00266736 0.0285022
-0.00857732 0.00410801 0.105544
-3.43197 -1.92789 20.5899
-2.63077 -5.16002 21.2473
-2.16099 -1.94742 17.7774
1.5242 0.277914 18.7342
0.930921 1.35943 14.5297
1.33634 0.971692 8.08575
-3.80981 0.768205 20.4316
-3.23333 1.48641 16.6876
-1.94607 2.40147 19.9912
0.762357 -0.662967 16.6689
-0.484682 -1.10571 3.66314
-0.223806 -0.591108 20.7871
2.68678 -5.01595 21.2117
2.16427 -1.93014 17.8027
3.43756 -1.92943 20.6027
-0.952491 1.25529 14.2837
-1.21963 0.627614 7.06743
-1.46571 0.176899 18.8449
3.21222 1.46728 16.7504
1.94122 2.38632 19.9889
3.81789 0.770919 20.4457
0.861909 -1.0212 1.17396
0.211933 -0.43292 20.4241
-0.643107 -0.630245 16.5545
-0.367803 -0.899686 20.9486
0.153355 -0.158892 17.8167
0.242607 -0.308862 20.3648
0.312729 0.124091 17.307
-2.20421 -0.883729 21.6564
-2.84363 2.15667 21.379
-0.447925 -0.700945 20.4535
-0.909794 0.216766 22.0481
-0.179287 -0.193475 17.9812
0.387241 -0.904913 20.9866
-0.334925 0.120665 17.3687
-0.247967 -0.330255 20.5392
2.84536 2.2257 21.3576
2.21565 -0.878372 21.6449
0.883864 0.273987 21.9086
0.457811 -0.71267 20.5025
-0.962835 -0.587906 20.02
-0.659216 -0.298172 19.8017
-0.603519 -0.500908 19.6258
-0.823507 -0.691017 21.2168
-1.48895 -0.815227 20.5408
-1.60189 -1.62048 20.6231
-0.118388 -0.277243 21.5476
-0.534385 -0.545835 21.4692
-0.268971 -0.577772 21.6284
0.406985 0.0116968 21.6822
0.0968868 -0.23741 21.617
0.193801 -0.104954 21.76
0.920067 0.238247 21.442
0.86976 0.0656063 21.6158
0.944566 0.542807 21.6529
0.936671 0.2259 21.2162
1.19485 0.118337 21.3714
1.37962 0.740427 20.9729
1.14071 -0.0104574 20.8393
1.1061 0.509909 21.2094
-1.30802 -0.483692 19.8473
-0.845905 -0.119676 19.6324
-0.839316 -0.463468 19.3864
-1.19501 -0.713329 21.3357
-2.09115 -0.32199 20.507
-0.24386 -0.449681 21.6071
-0.972091 -0.573018 21.5178
0.474674 -0.20425 21.8064
-0.0834309 -0.45672 21.7971
1.21139 -0.0628951 21.4261
0.936172 -0.538449 21.5899
1.44518 -0.176501 20.9839
1.23961 -0.472103 21.4321
1.91862 0.282946 19.2196
1.10548 -0.577667 20.8856
1.63297 0.0873253 19.6057
-1.58937 0.193633 19.7632
-0.754447 0.342115 19.7646
-1.03893 0.153824 19.1726
-1.6962 -0.109009 21.1216
-1.39363 0.61666 20.3923
-0.80201 -0.421035 21.7282
-1.2406 0.269109 21.2842
0.112383 -0.566278 21.8248
-0.461558 -0.14001 21.6485
0.717491 -0.844045 21.479
0.0960887 -0.506318 21.5152
0.809283 -0.71888 21.3195
0.24747 -0.632601 20.9745
1.09598 -0.970802 19.1525
0.337355 -0.482212 21.1586
1.39487 -1.26973 19.1021
-0.725479 0.559536 20.1567
-0.556769 0.567497 19.8192
-0.884328 0.564441 20.7941
-0.921987 0.934375 20.3525
-0.579873 0.241339 21.4065
-0.962389 0.819136 21.1911
-0.137271 -0.14718 21.4056
-0.385538 0.126211 21.6102
0.0638525 -0.296921 21.2391
-0.0346235 -0.280849 21.4139
0.181029 -0.452769 20.8985
0.100141 -0.460061 21.0041
0.0380057 -0.332003 21.1602
-1.1495 -1.70795 19.2226
-0.670294 -0.684035 19.1016
0.00954953 -0.915143 19.0834
-0.617551 -1.22961 22.1333
0.0262587 -4.25729 21.3929
-0.0220866 -0.171257 21.6229
-0.00381593 -0.549562 21.5009
0.430442 0.544829 21.1437
-0.0109111 -0.00925033 20.8098
0.959726 1.40383 20.0379
-0.0448582 1.06945 18.2221
1.25856 1.61387 19.804
1.64141 1.75075 16.7422
-0.0129118 1.41874 17.5773
1.55231 1.25025 17.3967
-0.0685087 2.37168 17.6615
-0.998407 -0.226747 18.5298
0.00693093 -0.87628 18.4135
2.12797 1.06987 12.9661
1.78845 -0.618397 7.21407
-0.0814104 1.04955 5.19357
2.3462 0.125146 14.0561
0.210737 2.43768 10.8354
-0.802396 0.85618 19.0641
0.00569668 0.445413 17.6634
1.00516 -0.963966 11.6536
-0.0777472 -0.895774 21.0047
0.259501 1.50098 -4.97925
0.0405616 -0.982526 18.4336
0.508102 1.61955 -1.4427
-0.686301 1.16886 19.8356
0.00649821 0.963049 19.4555
-0.957478 1.4532 20.6345
0.00750579 1.90685 20.0498
-0.688116 0.814951 21.7012
-0.0155334 2.14549 21.1969
-0.22462 -0.0609072 21.6629
-0.0355805 0.536839 21.8596
-0.065354 -0.402396 21.5536
-0.030531 -0.157861 21.4247
0.0693359 -0.632745 20.3229
0.00125196 -0.467152 20.8709
-0.047393 -0.283268 21.4417
1.16501 -1.65963 19.2832
0.685419 -0.662148 19.1355
0.60443 -0.487708 19.6438
0.624889 -1.20712 22.0439
1.59426 -1.57114 20.6067
0.00830063 -0.180211 21.6683
0.285962 -0.5857 21.614
-0.45006 0.526834 21.1175
-0.195542 -0.12034 21.7416
-0.947927 1.33824 19.8762
-0.937279 0.496984 21.6177
-1.27069 1.71535 19.4329
-1.57421 1.63153 16.2088
-1.35327 0.731062 21.0256
-1.4802 1.44984 16.9102
-1.17331 0.509901 21.3042
1.01704 -0.225091 18.5554
0.839616 -0.460504 19.3921
-2.11351 1.10867 11.1057
-1.39586 -0.795388 4.87281
-1.91995 0.328754 18.4444
-2.11732 0.197356 10.4427
-1.751 0.218223 18.6955
0.80691 0.849343 19.0801
1.03534 0.152289 19.1883
-0.418093 -0.99072 6.47501
0.156321 -0.745777 20.1733
-0.958071 -0.982001 17.976
-0.0743921 -0.885616 18.0383
-1.30909 -1.45712 18.2901
0.689296 1.15911 19.8385
0.556411 0.558166 19.8255
0.948306 1.46177 20.6276
0.932827 0.941042 20.3253
0.661666 0.879318 21.7053
0.960938 0.846868 21.1836
0.187302 -0.0208354 21.6454
0.38518 0.16172 21.6286
0.0320672 -0.33599 21.4817
0.052912 -0.242552 21.4415
-0.0548509 -0.540348 20.1359
-0.104634 -0.458192 20.9286
-0.0299266 -0.319575 21.2859
0.943327 -0.567328 20.0235
0.661716 -0.292178 19.8
0.825393 -0.667466 21.1956
1.47139 -0.798516 20.5411
0.134053 -0.285588 21.5323
0.540498 -0.548138 21.4536
-0.396868 -0.00887682 21.6519
-0.0937813 -0.24823 21.5763
-0.898245 0.205741 21.4424
-0.825577 0.0255555 21.5811
-0.989865 0.229202 21.1785
-1.19073 0.090924 21.4238
-1.17103 0.0362871 20.9693
1.29958 -0.477543 19.8504
0.833487 -0.11492 19.6463
1.19076 -0.711289 21.3262
2.09659 -0.320958 20.5203
0.243941 -0.450046 21.5957
0.971578 -0.573446 21.5174
-0.455827 -0.219857 21.7709
0.0872807 -0.452114 21.7733
-1.16984 -0.109393 21.4204
-0.853408 -0.549918 21.5627
-1.58863 -0.139854 20.9354
-1.21217 -0.53126 21.5073
-1.28147 -0.751187 20.5386
1.5812 0.189335 19.7678
0.745657 0.338103 19.7744
1.69943 -0.108225 21.1196
1.38566 0.612479 20.391
0.803744 -0.419059 21.7197
1.2496 0.277661 21.285
-0.0889769 -0.557429 21.7858
0.471304 -0.131462 21.6588
-0.614876 -0.845188 21.4757
-0.0670642 -0.479916 21.5004
-0.771513 -0.679205 21.4738
-0.190353 -0.606326 20.9779
-0.195957 -0.394994 21.6631
0.720711 0.550312 20.1598
0.880581 0.570904 20.7891
0.585995 0.259161 21.4075
0.134042 -0.133205 21.4603
-0.0395678 -0.288713 21.2405
-0.0478995 -0.342385 21.4097
-1.12173 -0.572239 19.9502
-1.62147 -1.96628 18.621
-1.15044 -1.04854 19.707
-1.89229 -1.02222 19.1529
-0.745375 -0.488495 19.473
-2.3643 -1.95237 20.6421
-1.01733 -0.712895 21.2708
-0.30493 -0.764509 19.9484
-0.809293 -1.05589 21.578
-1.37812 -1.38812 21.9027
-0.298851 -0.740561 21.7308
-0.185994 -0.387528 21.564
0.173366 0.00780662 17.0561
-0.0118667 -0.314886 21.6698
0.00811146 -0.564102 20.6619
0.257986 -0.215472 21.5243
0.426672 -0.0969398 21.7304
0.62044 0.568633 15.7776
0.533117 0.17778 21.7997
0.723909 -0.0611368 19.7362
1.3124 0.531073 20.703
1.10618 0.126407 21.4205
1.20233 1.51916 15.4971
1.18931 0.713239 21.1587
1.79788 0.286752 19.3335
1.57024 0.601084 20.8409
1.28412 0.0679909 21.0007
1.68059 1.40631 16.4849
1.44781 0.872016 20.9497
2.11536 0.232591 19.3275
1.2921 0.417735 20.6253
-1.55608 -0.216332 19.7566
-3.09962 -0.586041 16.6429
-2.41555 0.549463 18.9021
-1.02884 -0.156992 19.1604
-4.3036 -0.574422 20.5349
-1.53957 -0.478445 21.2855
-2.73896 -0.242838 21.4517
-0.937041 -1.23186 20.9315
-0.483794 -0.533197 21.7048
-1.2038 -0.919896 21.1276
0.124119 -0.376116 18.8333
0.377076 -0.462263 21.8269
0.225994 -0.482314 18.8423
1.33663 -0.25625 15.5908
1.18357 -0.559883 21.4081
0.313882 -0.891012 3.26736
0.791834 -0.946397 18.2868
1.76279 -0.521113 17.8906
1.14897 -0.533543 21.3405
2.24048 0.302637 10.3211
1.19257 -1.19602 19.4827
1.86884 -0.738042 18.5094
-1.14197 0.555976 19.9687
-1.44644 1.79592 19.1052
-0.773714 0.819428 20.0104
-0.82011 0.54583 19.4704
-1.85032 1.29125 20.2241
-1.3995 0.457967 20.8687
-2.22861 2.0649 20.4514
-1.0126 0.94558 20.7454
-1.95214 0.735202 21.425
-0.868257 0.0543153 21.5968
-1.94242 0.976462 22.4601
-0.710797 0.492 21.5384
-0.691362 -0.0554578 21.901
-0.133277 -0.324559 21.642
-0.393461 -0.262577 21.513
-0.17084 -0.132955 21.5682
-0.0554494 -0.613252 21.6225
0.200499 -0.567205 21.4298
-0.151521 -0.730525 20.8435
0.0137862 -0.36346 21.2761
0.105487 -0.769249 21.4736
0.543167 -0.663797 20.7141
0.104848 -0.890457 19.0184
0.0426989 -0.431704 21.3524
0.118768 -0.515889 20.7137
1.62902 -1.92668 18.661
0.0275647 -2.60646 18.7524
0.0120333 -3.51998 15.8604
0.00420117 -0.928594 18.6752
0.0183891 -6.43605 23.0764
0.310847 -0.808718 20.2771
0.0125487 -1.43694 22.3532
-0.0109532 -0.13001 12.7949
-0.194257 -0.0038377 17.1792
-0.0101987 -0.261719 20.921
-0.0172401 0.0528017 12.6914
-0.655831 0.543444 15.7278
-0.0217667 0.491171 19.4049
-0.0939499 0.886494 9.61364
-1.15759 1.40115 14.7447
-0.0557883 1.32806 17.8757
-0.237859 0.111332 2.76537
-0.0866259 1.64782 12.0624
-1.66411 1.45437 15.9368
-0.0286713 2.0983 18.4029
0.171369 1.43529 5.98244
0.143896 2.37379 15.1091
3.09947 -0.575544 16.6761
0.0169822 3.2793 13.495
0.00752166 -0.314536 17.7682
-0.0272467 -1.32372 1.94596
0.00890816 0.881407 -4.29239
0.498448 0.858564 -1.3902
-1.85597 0.328181 7.7345
0.250739 1.67434 -4.31629
0.62577 2.46733 0.561904
1.44987 1.77559 19.1132
0.00826077 1.54376 19.6576
0.00946271 1.20246 18.615
0.00607066 3.66065 19.7021
2.21759 2.0714 20.4419
-0.00703865 2.08167 20.4677
-0.0294526 4.94011 20.8963
1.94451 1.07521 22.4846
-0.031814 1.34707 21.8689
-0.0436782 0.905386 21.4988
0.343196 -0.190731 21.1824
-0.034085 0.0722157 21.6498
-0.129965 -0.118702 17.1635
0.177236 -0.514512 20.4545
-0.0571979 -0.33477 21.3758
-0.262917 -0.597715 18.0107
-0.14673 -0.782476 18.5612
-0.00967413 -0.658659 20.315
-0.0472709 -0.891737 18.4049
1.11669 -0.554574 19.9551
1.15041 -1.01561 19.7205
1.88329 -1.01508 19.1742
0.751617 -0.485194 19.4803
2.33836 -1.90429 20.6353
1.01051 -0.707111 21.252
0.823112 -1.0371 21.5425
1.37105 -1.37121 21.8791
0.31987 -0.747034 21.7149
0.19137 -0.397277 21.5513
0.0207889 -0.328611 21.6592
-0.000284642 -0.580532 20.8012
-0.254601 -0.230327 21.5372
-0.407736 -0.120988 21.6906
-0.537774 0.147091 21.7749
-0.716917 -0.101628 19.8798
-1.27989 0.446499 20.6871
-1.07645 0.0861075 21.4239
-1.17532 0.664484 21.1327
-1.73598 0.220077 18.9214
-1.59873 0.652575 20.226
-1.42551 0.097729 20.9145
-1.45988 0.924763 20.9647
-2.03426 0.214153 19.0959
-1.39235 0.50684 19.8846
1.54617 -0.211652 19.7728
2.40072 0.546138 18.9126
1.02677 -0.154608 19.1801
4.31109 -0.583506 20.5537
1.54009 -0.480496 21.2805
2.74244 -0.246292 21.4352
0.939165 -1.23024 20.9391
0.482462 -0.533195 21.6969
1.21124 -0.917488 21.1425
-0.129378 -0.409154 19.0292
-0.350021 -0.46617 21.7929
-0.191547 -0.483133 18.8363
-1.2389 -0.315687 15.6177
-1.1065 -0.610338 21.3803
-0.593899 -0.84155 17.2465
-1.71744 -0.658105 16.2453
-1.23035 -0.513731 21.3593
-1.12462 -1.30278 18.025
-1.93796 -0.619997 17.4895
1.13081 0.547601 19.9775
0.77302 0.804738 20.0146
0.817845 0.53927 19.4767
1.83146 1.27621 20.2249
1.4013 0.461635 20.866
1.00564 0.951688 20.7428
1.96896 0.762351 21.4174
0.879226 0.0691874 21.5976
0.708663 0.522766 21.548
0.703779 -0.0322512 21.9014
0.154972 -0.316495 21.6272
0.175822 -0.101962 21.541
0.11569 -0.540463 21.6027
-0.166176 -0.550699 21.4368
0.00647559 -0.332622 21.349
-0.027288 -0.698933 21.7747
-0.638124 -0.634308 20.2817
-0.0538224 -0.46639 21.3211
-0.0816414 -0.604185 19.8474
-1.54078 -1.11771 19.4218
-0.990203 -1.22705 21.759
0.015049 -0.441894 21.5898
0.699809 0.0858154 21.2074
1.56401 0.60573 20.8685
1.83754 0.671408 20.4752
-2.46944 -0.294268 18.8191
-2.0847 -1.09274 21.9829
-0.257762 -0.835396 19.5493
0.589649 -0.128431 17.6026
1.51897 -0.534192 17.0309
1.75666 -0.304196 18.3114
-1.40337 1.01069 19.5966
-1.92803 0.987087 20.8004
-1.31498 0.258524 21.9167
-0.274711 -0.360306 21.8122
0.0668675 -0.738155 21.5247
0.433748 -0.864741 21.155
0.0140675 -3.26227 17.5634
-0.000656654 -0.581734 15.1483
-0.0130293 -0.0551501 12.3192
-0.0362632 0.41556 11.1972
-0.1156 0.993736 10.4914
0.0992145 1.9643 12.7708
0.0160198 -0.895455 13.1343
0.0423818 -0.0423052 -0.360572
0.601609 1.52078 1.2496
0.00984269 2.8289 18.4851
-0.00923726 3.5591 19.752
-0.0453256 2.71185 22.6732
-0.0517536 0.107124 20.2293
-0.204946 -0.118802 17.3543
-0.116261 -0.82645 18.2595
1.52419 -1.08824 19.4449
1.00595 -1.204 21.7141
-0.00347739 -0.453232 21.5905
-0.695593 0.0505108 21.2177
-1.5283 0.554036 20.5705
-1.79805 0.650539 20.3244
2.45205 -0.29396 18.8409
2.05727 -1.09962 21.9533
0.263267 -0.849098 19.671
-0.577238 -0.172348 17.7401
-1.33554 -0.589336 15.9293
-1.79618 -0.278857 16.6471
1.39256 0.999373 19.6029
1.92849 0.995599 20.7898
1.35107 0.294403 21.9261
0.29661 -0.327462 21.8067
0.0139051 -0.665096 21.5481
-0.208689 -0.883537 21.7957
-4.22792 -1.31548 3.38871
-0.00664516 -0.0428629 0.161184
0.0104849 -0.00484151 0.374137
0.0431012 -0.011169 0.104841
-0.000393167 0.00209827 0.0114166
0.0875575 0.158923 1.29597
0 0 0
-0.00316138 0.239088 0.61944
-0.374484 -0.0500081 1.00487
-0.00519606 -0.0136902 0.00198668
-0.0409102 -0.00169052 -0.00429124
0 0 0
0.0071861 -0.0453524 0.170861
4.60088 -1.42188 3.57549
-0.0094025 -0.00377262 0.345404
-1.29791e-18 3.46453e-18 2.23805e-17
-0.0574661 -0.0245378 0.145078
-0.100732 0.138861 1.25176
0.00262489 0.242581 0.628224
0 0 0
0.426683 -0.0628059 1.10968
0.0339382 0.0116902 -0.0162559
0.00937894 -0.025651 0.000193084
0 0 0
0.00837933 -0.00345169 0.199275
0.001834 0.000401804 0.302231
0 0 0
0 0 0
0.0205268 0.0238906 0.478661
0.0120206 -0.001254 0.565412
0 0 0
0 0 0
-0.119266 -0.104282 0.352585
-0.00515454 -0.00200236 0.251684
0 0 0
-0.0931951 0.0925683 0.235314
0.00378042 0.00665376 0.0461299
0.00685553 0.0145164 0.0758512
0.000241693 0.000509137 0.00200699
0.0175443 0.00726691 0.20638
-0.0122741 -0.00489031 0.239734
0 0 0
-0.00276242 -0.000102353 0.323561
0 0 0
-0.0274077 0.0208417 0.511601
0 0 0
-0.0112747 -0.0014411 0.473118
0 0 0
0.108863 -0.0941099 0.321286
0.0936255 0.094127 0.2384
0.00427709 -2.20559e-05 0.230948
0 0 0
-0.00415166 0.00737723 0.0484387
-0.0184685 0.00731297 0.200331
-0.00763998 0.0159736 0.0842841
-0.000284824 0.000594899 0.0026707
-0.0589679 -0.0496715 0.419572
-0.445357 -0.11092 0.235779
7.4722e-08 1.38708e-06 -5.48866e-05
5.68819e-05 -1.6964 0.356556
-0.00363827 -0.00942529 0.0849356
3.54696e-06 3.16945e-07 4.93117e-05
0 0 0
0 0 0
0 0 0
-9.81693e-05 -0.000362337 -1.17132e-05
0 0 0
0 0 0
0 0 0
4.9652e-06 6.5834e-05 0.000347331
-0.046089 -0.107379 0.50858
-0.00754627 0.00148547 0.0135362
0 0 0
-0.00830518 -0.01594 0.0644642
0.00583671 0.00510454 0.175272
0.00144333 -0.00254337 0.056195
0.427205 -0.14727 0.196621
0.0300352 -0.0305666 0.25091
-5.21584e-06 4.24362e-07 6.63566e-05
0.00154131 -0.00681346 0.0591335
0 0 0
0 0 0
0 0 0
3.0454e-18 -2.94606e-18 -7.81952e-17
0.00761483 0.00152091 0.0137935
0.0418452 -0.0946094 0.462881
-0.00279661 -0.00238198 0.0555398
-0.00631356 0.0062193 0.195731
0 0 0
0 0 0
0.000194735 -0.000601741 0.00518951
-0.000282484 0.00412469 0.0781848
-1.24461e-07 3.15851e-07 5.04522e-05
-3.52682e-09 1.96806e-09 2.32079e-06
0.000142068 0.00423477 0.0258798
-0.00421257 0.0107379 0.184483
4.023e-08 -1.13945e-08 -2.12957e-05
-6.27431e-08 5.00369e-07 1.41434e-05
-0.0383137 0.120738 1.09359
-0.0557397 0.0471525 0.895418
-2.60419e-05 0.00244216 0.00591378
-0.000178121 0.062248 0.225733
-8.17167e-05 0.00090063 0.038142
-5.12763e-05 -8.47406e-05 0.00623898
0 0 0
0 0 0
0 0 0
4.19871e-05 0.00028295 0.0065618
-0.000128489 0.00432834 0.0278109
0.00192079 0.0068659 0.123571
0.0527624 0.0470899 0.880201
0.029414 0.101113 0.941991
0 0 0
0 0 0
0.00824832 -0.034797 0.663123
-0.000942854 -0.00571756 0.0313315
-1.40254e-20 -2.98617e-18 -1.1129e-16
0.00182206 0.0253731 0.181359
0 0 0
0.00346021 0.0093292 0.0510977
-6.05503e-19 -6.71728e-19 -3.50985e-17
0.0587182 0.140528 1.16295