# vtk DataFile Version 2.0
tri_press
ASCII
DATASET UNSTRUCTURED_GRID
POINTS 3682 float
-0.765 0.225 -2.04732
-0.748054 0.335 2.065
-0.735 0.567166 -2.015
-0.635 0.992803 2.075
0.765 0.225 -2.04649
0.748378 0.335 2.065
0.735 0.575 -2.00591
0.635 0.993074 2.075
-0.805949 0.215069 -0.676547
-0.830212 0.221824 0.694227
-0.824791 0.832169 -0.651667
-0.77579 0.958381 0.711667
0.806057 0.215069 -0.675993
0.830428 0.221824 0.694504
0.823317 0.836008 -0.645607
0.774759 0.960142 0.714697
-1.56254 -0.155404 -3.15477
-1.5643 -0.0701977 -2.06199
-1.59018 -0.0744716 -0.690747
-1.5886 -0.0895089 0.68253
-1.53182 -0.0182351 2.05395
-1.51796 0.0521917 3.14761
-1.52729 0.119653 4.23976
-1.56006 0.0951429 -3.14011
-1.56258 0.209972 -2.04847
-1.59944 0.239885 -0.678732
-1.58374 0.243974 0.692135
-1.49214 0.318766 2.06208
-1.49362 0.388168 3.15555
-1.51636 0.453992 4.24791
-1.54887 0.542244 -3.10933
-1.54725 0.651785 -2.01856
-1.6036 0.847066 -0.654108
-1.5445 0.947691 0.710386
-1.41932 0.995962 2.07519
-1.45586 1.06034 3.16913
-1.50355 1.12566 4.26291
-1.54819 1.38613 -3.0678
-1.5517 1.51995 -1.97736
-1.57107 1.73786 -0.616617
-1.56454 1.91568 0.742904
-1.53446 2.01718 2.10423
-1.52744 2.0762 3.19589
-1.53867 2.13409 4.28911
-0.781086 -0.147416 -3.15374
-0.770095 -0.0575762 -2.06153
-0.792667 -0.0853636 -0.689635
-0.812382 -0.106323 0.684238
-0.778981 -0.0146762 2.05623
-0.772134 0.0546014 3.1493
-0.780273 0.119626 4.24097
-0.782801 0.0934588 -3.1382
-0.761704 0.392503 3.15698
-0.776819 0.454669 4.24893
-0.772567 0.507866 -3.10576
-0.731895 1.06072 3.16941
-0.771394 1.12601 4.26338
-0.764401 1.36174 -3.06461
-0.762821 1.49637 -1.97417
-0.786153 1.73127 -0.61421
-0.799516 1.9216 0.744053
-0.789619 2.02239 2.10449
-0.786941 2.07907 3.19603
-0.795739 2.13586 4.28938
0.770442 -0.14598 -3.15131
0.787271 -0.0571614 -2.06027
0.812536 -0.0851368 -0.688774
0.811423 -0.106163 0.684762
0.753685 -0.0145513 2.0565
0.726263 0.0548707 3.14974
0.715736 0.120063 4.24168
0.755164 0.0954893 -3.13514
0.704138 0.392736 3.1573
0.701448 0.455096 4.24958
0.74861 0.512311 -3.1001
0.664467 1.0611 3.16984
0.68189 1.12654 4.26413
0.792285 1.36521 -3.05984
0.801696 1.49988 -1.96927
0.787757 1.73399 -0.610121
0.739844 1.92336 0.746855
0.695589 2.02353 2.10627
0.685325 2.07999 3.19745
0.685196 2.13673 4.29072
1.5543 -0.152177 -3.14949
1.57291 -0.0681574 -2.05802
1.60563 -0.0731449 -0.687841
1.60052 -0.0886949 0.684306
1.53053 -0.0176878 2.05497
1.4902 0.0529064 3.1488
1.47503 0.120628 4.24134
1.53958 0.0993755 -3.13371
1.55822 0.212889 -2.04341
1.60257 0.241708 -0.675063
1.59753 0.244911 0.694079
1.50577 0.319217 2.06281
1.46326 0.388836 3.15655
1.45624 0.454956 4.24942
1.53168 0.549522 -3.09959
1.54438 0.660026 -2.00759
1.60342 0.852173 -0.645957
1.55153 0.950212 0.714701
1.42578 0.996968 2.07653
1.41388 1.06129 3.17043
1.42894 1.12682 4.26463
1.57077 1.39256 -3.0588
1.58055 1.52634 -1.96829
1.57114 1.74291 -0.608964
1.51802 1.91909 0.748329
1.45796 2.01949 2.10787
1.4381 2.07811 3.19886
1.43641 2.13587 4.29189
-0.762418 0.396083 -2.04358
0 0.233368 -2.03854
-0.786578 0.218931 -1.36193
-0.705216 0.663901 2.08369
0.000161976 0.335659 2.06434
-0.809171 0.258374 1.37961
0 0.670765 -2.11014
-0.853513 0.773285 -1.33333
0 1.04544 2.1275
-0.725704 0.995901 1.39333
0.764628 0.4 -2.04083
0.786647 0.218916 -1.36124
0.70518 0.664037 2.08349
0.809431 0.258384 1.37975
0.849915 0.776261 -1.32576
0.724859 0.996587 1.39485
-0.815972 0.220555 0.00884008
-0.853746 0.523619 -0.664107
5.40261e-05 0.212582 -0.67627
-0.851615 0.590102 0.702947
0.000107984 0.219597 0.694365
-0.805106 0.90009 0.03
-0.000737159 1.17473 -0.648637
-0.000515482 1.43939 0.713182
0.816134 0.220555 0.00925505
0.854211 0.525538 -0.6608
0.851928 0.590983 0.7046
0.803753 0.90279 0.0345451
-0.885922 0.459851 -1.34763
0.885895 0.462769 -1.3435
2.70131e-05 0.217282 -1.36159
-0.000368579 0.92424 -1.32955
0 0.398041 -2.16697
-0.86179 0.556861 0.01942
0.862196 0.558261 0.0219001
8.10049e-05 0.219327 0.00904757
-0.000626321 1.43516 0.0322725
-0.895828 0.627002 1.38647
0.895817 0.62751 1.3873
0.00013498 0.252002 1.37968
-0.000257741 1.24391 1.39409
8.09878e-05 0.663969 2.15982
-0.741213 0.310541 -2.02295
-0.3825 0.227827 -2.04429
-0.777788 0.219966 -1.70463
-0.742167 0.499451 2.08988
-0.373946 0.333442 2.06656
-0.802737 0.272563 1.72231
-0.760981 0.481624 -2.04156
-0.3675 0.631038 -2.07464
-0.800457 0.676426 -1.67417
-0.666459 0.828352 2.0757
-0.3175 1.03488 2.11701
-0.684848 0.998848 1.73417
0.3825 0.227806 -2.04389
0.741829 0.3125 -2.02067
0.777819 0.219963 -1.70387
0.37427 0.333455 2.06655
0.742396 0.499519 2.08986
0.803067 0.27253 1.72238
0.3675 0.638188 -2.07333
0.761982 0.4875 -2.03554
0.800041 0.683214 -1.66583
0.3175 1.03494 2.11693
0.666587 0.828556 2.07574
0.684259 0.99916 1.73492
-0.794359 0.218905 -1.01924
-0.812789 0.215983 -0.333853
-0.834179 0.367178 -0.670327
-0.402574 0.214572 -0.676408
-0.810159 0.249631 1.03692
-0.822883 0.221399 0.351533
-0.833739 0.40955 0.698587
-0.415207 0.2204 0.694296
-0.830036 0.793611 -0.9925
-0.849576 0.683048 -0.657887
-0.816732 0.867913 -0.310833
-0.47616 1.13024 -0.650152
-0.755478 0.981872 1.0525
-0.845414 0.790097 0.707307
-0.790875 0.929662 0.370833
-0.487324 1.39723 0.712424
0.794459 0.218886 -1.01862
0.402682 0.214572 -0.676132
0.812923 0.215984 -0.333369
0.8346 0.368071 -0.668397
0.810389 0.249645 1.03713
0.415423 0.2204 0.694434
0.823073 0.221397 0.351879
0.834138 0.409923 0.699552
0.828321 0.797839 -0.985683
0.4747 1.13219 -0.647122
0.849946 0.686364 -0.653203
0.815278 0.871142 -0.305531
0.754634 0.98319 1.05477
0.486001 1.39752 0.713939
0.845618 0.791699 0.709649
0.789732 0.931942 0.374621
-0.873662 0.427967 -1.69561
-0.381209 0.397062 -2.17049
1.35065e-05 0.220253 -1.70006
0 0.315705 -2.16544
-0.885966 0.339391 -1.35478
-0.393276 0.217338 -1.36176
-0.845073 0.645452 1.73508
-0.352568 0.663935 2.14101
0.000148478 0.292507 1.72201
0.000121482 0.499814 2.21003
-0.884473 0.442688 1.38304
-0.404518 0.257694 1.37965
-0.00018429 0.878185 -1.71984
0 0.534403 -2.21457
-0.886349 0.616568 -1.34048
-0.426941 0.909411 -1.33144
-0.000128871 1.07796 1.7608
4.04939e-05 0.854706 2.09066
-0.819758 0.811451 1.3899
-0.362981 1.21604 1.39371
0.87396 0.431385 -1.69216
0.382314 0.399021 -2.17008
0.88597 0.340843 -1.35237
0.393337 0.217335 -1.36141
0.844619 0.645773 1.7354
0.35263 0.664003 2.14068
0.884451 0.442947 1.38353
0.404783 0.257722 1.37972
0.886324 0.619515 -1.33463
0.424773 0.909897 -1.32765
0.819618 0.812049 1.39107
0.362301 1.21577 1.39447
-0.836951 0.389673 0.0141301
-0.407998 0.219836 0.00894383
-0.884747 0.491735 -1.00587
-0.858777 0.54024 -0.322343
4.05196e-05 0.212595 -1.01893
6.75155e-05 0.212853 -0.333611
-0.860426 0.573481 0.361183
-0.895866 0.608552 1.04471
9.44943e-05 0.219594 0.351706
0.000121482 0.23013 1.03702
-0.85484 0.739171 0.02471
-0.512806 1.3875 0.0311362
-0.000552869 0.981728 -0.989091
-0.00068174 1.35372 -0.308182
-0.000570901 1.44339 0.372727
-0.000386612 1.40007 1.05364
0.837469 0.390256 0.0155776
0.40816 0.219836 0.00915131
0.884793 0.494154 -1.00215
0.859207 0.5419 -0.31945
0.861115 0.574622 0.36325
0.895859 0.609246 1.04595
0.855019 0.741548 0.0282226
0.511226 1.3883 0.0334088
-0.866145 0.324966 -1.70012
-0.886504 0.354367 -1.01256
-0.874219 0.647231 -0.999185
-0.87208 0.549096 -1.68489
0.86637 0.326671 -1.69801
0.877505 0.553507 -1.679
0.871383 0.650144 -0.993916
0.886461 0.355573 -1.01038
-0.387888 0.219752 -1.70234
0.387919 0.21975 -1.70196
0.398196 0.212592 -1.01877
-0.398112 0.212593 -1.01908
-0.39722 0.843668 -1.697
-0.419852 0.936992 -0.990796
0.418031 0.94067 -0.987387
0.396137 0.844502 -1.69284
-0.381855 0.313123 -2.16847
-0.374355 0.508014 -2.17455
0.374907 0.510952 -2.17379
0.382407 0.314102 -2.16808
-0.834934 0.378741 -0.328098
-0.837593 0.398488 0.356358
-0.852695 0.765918 0.366008
-0.853979 0.711995 -0.316588
0.835489 0.379436 -0.32641
0.854274 0.714852 -0.31249
0.852854 0.767891 0.368936
0.838091 0.398946 0.357565
-0.406398 0.214981 -0.333732
0.406532 0.214981 -0.33349
0.411775 0.220152 0.351793
-0.411586 0.220152 0.35162
-0.515702 1.30131 -0.309508
-0.503269 1.39877 0.37178
0.501861 1.39941 0.373674
0.514332 1.30298 -0.306856
-0.886638 0.424325 1.04082
-0.857625 0.471069 1.72869
-0.786274 0.819902 1.73462
-0.835685 0.792846 1.04861
0.886635 0.424675 1.04154
0.835975 0.793805 1.05036
0.786129 0.820302 1.73516
0.857922 0.471233 1.72889
-0.409785 0.231334 1.03697
0.410026 0.231472 1.03708
0.389526 0.30109 1.72219
-0.389232 0.301088 1.72216
-0.375567 1.37574 1.05307
-0.34024 1.06532 1.74748
0.3399 1.06531 1.74786
0.374711 1.37558 1.0542
-0.363257 0.499632 2.18694
0.36345 0.499666 2.18695
0.335065 0.841631 2.07787
-0.335034 0.841529 2.07787
-0.764566 0.267771 -2.0466
-0.57375 0.222373 -2.04984
-0.773327 0.22055 -1.87597
-0.736552 0.417225 2.06888
-0.561 0.333888 2.06611
-0.776872 0.302305 1.89365
-0.74696 0.524395 -2.02725
-0.55125 0.592507 -2.03823
-0.751974 0.606041 -1.84458
-0.651512 0.910578 2.07613
-0.47625 1.02516 2.10732
-0.661436 0.997338 1.90458
0.57375 0.22237 -2.04922
0.765128 0.26875 -2.0453
0.773345 0.220546 -1.87518
0.561324 0.333904 2.0661
0.736763 0.417259 2.06881
0.777224 0.302263 1.89369
0.55125 0.59541 -2.02844
0.747547 0.53125 -2.01978
0.753205 0.614791 -1.83587
0.47625 1.02544 2.1074
0.651745 0.910815 2.07632
0.661034 0.997521 1.90496
-0.802115 0.215026 -0.847893
-0.809235 0.21566 -0.5052
-0.850576 0.275868 -0.673437
-0.604217 0.21491 -0.676478
-0.833806 0.222108 0.865574
-0.826588 0.22157 0.52288
-0.839061 0.312144 0.696407
-0.622643 0.221245 0.694261
-0.828167 0.813643 -0.822084
-0.846506 0.76227 -0.654777
-0.821117 0.850397 -0.48125
-0.689766 1.05979 -0.650909
-0.766632 0.971124 0.882083
-0.823519 0.880697 0.709487
-0.78379 0.944479 0.54125
-0.639972 1.19463 0.712046
0.802209 0.215027 -0.847305
0.604271 0.215018 -0.676063
0.809356 0.215661 -0.504681
0.850753 0.276358 -0.672195
0.834034 0.222109 0.865816
0.62286 0.221244 0.694469
0.826792 0.221569 0.523191
0.839309 0.312361 0.697028
0.82651 0.817615 -0.815645
[...]
POINT_DATA 3682
SCALARS point_scalars float 1
LOOKUP_TABLE default
-46.619
-40.7775
-32.5339
-36.4326
-49.0987
-40.6499
-36.1453
-36.3127
-37.1699
-34.9092
-53.4668
-49.1626
-37.1503
-34.9133
-53.9472
-49.2362
2.3494
-92.6334
-35.3097
-32.9608
-43.6826
-39.8633
-36.3388
2.3494
-92.6334
-35.3097
-32.9608
-44.1271
-37.4777
-33.5803
2.79104
-72.8504
-48.9455
-44.3042
-39.9971
-36.908
-33.6977
-33.197
-54.4389
-87.0294
-57.4695
-37.8538
-35.728
-35.728
-1.8447
-149.853
-37.6509
-37.2505
-40.613
-35.6768
-32.8382
-1.8447
-33.2067
-32.9551
147.502
-34.141
-33.2478
100.082
-50.4282
-75.7895
-61.3319
-36.0856
-34.3084
-34.1356
-3.01853
-149.561
-37.5462
-37.2616
-40.4819
-35.5247
-32.4632
-3.01853
-33.074
-32.7962
159.182
-34.2271
-32.199
95.1067
-46.8108
-75.4766
-61.5465
-35.5529
-34.1324
-34.0723
1.44128
-91.6392
-35.3403
-33.0174
-44.1838
-39.7336
-36.1944
1.44128
-91.6392
-35.3403
-33.0174
-44.1637
-37.3251
-33.473
4.72094
-67.2538
-48.8399
-44.3963
-39.7879
-36.7606
-33.4907
-15.0054
-54.0704
-87.059
-57.5213
-37.7792
-35.6166
-35.5231
-4.07464
-135.938
-51.9702
-35.3777
-31.1603
-40.1541
134.72
-63.5968
-36.1036
-47.7207
-1.32362
-51.8337
-35.2532
-40.1809
-61.2715
-47.6228
-35.0674
-39.1601
-40.3836
-36.7816
-39.4347
-53.1548
18.152
-66.7952
-35.0218
-39.1155
-36.8345
-53.2663
-60.6234
-60.3791
-56.3973
-6.28402
193.747
-40.5895
-40.6617
-35.9514
-103.36
-48.8957
-48.819
-41.0814
-42.1665
-25.615
-15.2559
-139.961
-74.0952
-37.11
-34.8211
-45.5034
-23.673
102.065
-35.536
-35.4173
-34.7767
-40.8605
-139.827
-15.9912
-74.0922
-34.6904
-36.9729
-45.317
99.2732
-29.935
-36.3722
-34.7503
-35.2918
-40.7893
-41.6012
-35.9088
-36.905
-39.6358
-39.712
-34.8888
-31.9973
-39.1501
-48.4455
-44.1282
-54.7218
-0.845716
-49.5656
-42.8604
-51.2291
-61.4071
-41.535
-39.6232
-35.8947
-36.8741
-39.6412
-39.1642
-34.8114
-32.0368
-48.0174
-1.10683
-44.2202
-54.9944
-49.6114
-61.1704
-42.9604
-51.4245
-78.8637
176.775
-78.5521
176.775
-58.1096
-54.4632
-44.6704
-31.4985
-36.9091
-24.9381
-46.0126
-43.4276
-34.8673
188.013
-64.5193
-16.7287
-37.986
-26.3317
-48.8556
-43.1105
-76.2934
176.803
-57.9377
-54.4304
-44.4873
-31.3235
-45.9599
-43.4123
-64.1048
-16.3275
-48.697
-43.0742
-37.4799
-35.5117
-51.3518
-40.0997
-46.2476
-37.7946
-40.2097
-43.5146
-36.7857
-42.9717
-45.612
-86.6395
21.6755
-59.2514
-79.0931
-54.9397
-37.4938
-35.5103
-51.0244
-40.1571
-40.2491
-43.436
-45.7102
-86.1285
-78.9742
-49.9314
-51.1057
-78.7388
-75.9055
-75.0624
-50.7075
-49.9627
-76.8683
-76.8641
-45.0851
-45.0841
-41.3421
6.11152
6.61046
-40.8318
151.027
175.853
175.647
152.837
-37.2202
-36.8677
-44.2515
-45.5078
-37.2954
-45.6206
-44.3038
-36.8832
-37.212
-37.2072
-36.3464
-36.3446
-81.6087
-69.5993
-69.5581
-82.7702
-45.0976
-47.349
-43.4123
-45.6126
-44.7881
-45.6738
-43.2655
-47.1067
-43.092
-42.8644
-37.6296
-37.6844
-55.8026
-38.5453
-38.5306
-55.7505
-31.8135
-31.6718
-31.2708
-31.4279
4.46528
-171.576
-105.779
-38.5395
-37.3968
-41.6748
-32.6055
70.6194
-45.1692
-35.8475
-34.2193
-38.1628
-170.477
-0.0781519
-105.219
-37.2734
-38.4161
-41.6489
73.4697
-38.1054
-45.8256
-34.1474
-35.7358
-38.0909
-39.6064
-36.394
-36.2643
-38.7728
-45.2199
-35.8294
-32.3621
-38.8557
-50.3061
-48.6458
-54.7181
-69.0568
-49.241
-46.2727
-49.8613
-54.3976
-39.5721
-38.7409
-36.3663
-36.0312
-45.1795
-38.8592
-35.8726
-32.4095
-50.6784
-69.3727
-48.8013
-54.861
-49.2852
-54.445
-46.3986
-49.8848
-19.3261
1.71437
-83.4547
153.277
-137.687
-137.723
-96.8046
113.19
-59.589
-45.8297
-56.2948
-53.108
-36.4881
-35.3874
-41.1484
-33.6396
-32.2813
-32.1972
-34.2318
-25.9899
-44.4014
-40.4001
-44.5424
-42.1173
116.688
115.816
-74.2567
138.921
-62.4841
-55.3245
-68.9919
-29.2361
-35.9118
-35.9356
-36.5445
-26.2773
-44.4187
-49.1208
-47.7091
-45.7087
-22.872
0.864726
-83.1334
150.904
-60.1765
-45.9558
-56.0146
-53.0813
-36.3452
-35.2658
-41.0036
-33.5445
-44.4915
-40.4431
-44.6916
-42.0892
-61.6083
-54.2566
-68.8396
-28.7857
-44.3044
-49.1225
-47.6065
-45.6445
-35.3505
-34.2891
-36.8047
-35.0552
-37.6829
-41.3613
-42.5893
-39.4676
-40.1493
-40.1447
-42.8664
-38.7622
-33.7734
-39.7737
-38.8521
-35.3773
-39.3654
-39.3689
-37.8462
-41.4368
-54.2935
-51.8256
-49.2821
-65.5611
16.075
15.7773
30.641
-9.57329
-66.0487
-66.0376
-71.8307
-61.9053
-35.3361
-34.2786
-36.8009
-35.0523
-37.6016
-41.3914
-42.2219
-39.5061
-33.8205
-39.8274
-38.864
-35.461
-54.3538
-51.9219
-49.4061
-65.5621
-67.6416
-59.2631
-62.3832
-53.4796
-71.6123
-59.1038
-62.0854
-53.3165
-65.2987
-55.8217
-55.82
-50.7024
-21.2223
-8.91054
-8.62039
7.0046
191.559
187.292
204.051
191.77
-38.8589
-40.5167
-40.4659
-43.0942
-38.8906
-40.5564
-40.5077
-43.1656
-35.8127
-36.8628
-36.1452
-35.8123
-101.58
-102.291
-89.7947
-101.495
-49.8838
-47.0089
-51.7102
-46.8672
-49.685
-46.9355
-51.5861
-46.9653
-39.307
-41.7164
-41.7
-42.002
-39.3612
-42.2965
-42.2457
-46.8159
-27.9365
-21.8934
-26.1357
-27.7452
-85.0874
105.437
-98.0877
31.9042
-79.2205
-76.5257
-42.4636
-33.2158
-36.3742
-32.118
-48.0273
-40.8037
-67.6314
159.255
-59.1805
115.038
-50.0617
-42.3623
-40.6119
-32.791
-36.3979
-31.5366
-42.4493
-39.1633
-98.0481
32.4835
-83.7481
107.26
-74.9163
-76.5245
-36.2933
-31.9407
-42.3627
-33.1021
-47.6398
-40.726
-58.7211
103.848
-65.0436
160.06
-47.8306
-42.2753
-36.3721
-31.3866
-40.4412
-32.6789
-42.3298
-39.1352
-48.7376
-44.012
-36.4198
-36.6687
-42.59
-36.9042
-41.9856
-38.0191
-44.5308
-40.9548
-36.5734
-35.7883
-35.5949
-30.2596
-37.4986
-41.5448
-51.0722
-13.9917
-44.6047
-44.8906
-49.5714
-76.387
13.3595
-32.1114
-47.4852
-55.5421
-43.2597
-43.3625
-47.7319
-59.5834
-64.5182
-61.576
-48.661
-43.9994
-41.9749
-38.0102
-36.4423
-36.6617
-42.319
-36.8922
-43.8448
-40.8993
-37.5036
-41.7408
-36.5972
-35.789
-35.6222
-30.2951
-50.6375
-13.7492
13.5382
-32.5642
-44.5635
-44.9957
-49.8698
-76.6499
-47.5958
-55.4498
-64.5135
-61.5874
-43.3171
-43.5091
-47.736
-59.5861
-78.8239
-79.8446
171.234
183.872
-78.0199
-78.0168
170.691
170.478
-63.5395
-51.3829
-63.3399
-48.9866
-46.6883
-43.9773
-31.5204
-31.5256
-36.9553
-36.9863
-27.6023
-27.492
-44.484
-49.8361
-42.1029
-38.204
-37.4512
-36.6043
193.558
193.108
-55.4435
-79.1165
-26.8645
-4.32438
-38.1715
-38.1644
-28.116
-28.272
-45.9539
-49.3047
-48.0411
-40.1036
-76.4052
-77.7041
183.936
171.353
-67.6572
-51.1777
-63.3514
-49.1129
-43.8211
-46.4909
-31.3245
-31.3698
-45.4416
-49.5042
-42.1039
-38.1659
-82.9132
-55.3077
-3.94136
-26.7028
-49.2704
-45.8199
-40.0873
-47.922
-37.4356
-37.2813
-36.3706
-35.6906
-50.8527
-51.4851
-38.321
-42.5892
-45.8957
-45.8918
-37.6296
-37.6334
-38.4867
-42.1897
-44.8129
-43.6242
-36.6677
-36.6669
-43.1056
-43.0873
-44.8946
-45.7587
-96.4338
-76.2224
17.8651
18.1545
-60.1054
-60.9676
-77.2522
-77.2127
-54.9241
-54.9004
-37.457
-37.2906
-36.3668
-35.6906
-51.2914
-50.6538
-38.3079
-42.6796
-42.2046
-38.5134
-45.1126
-43.6931
-45.8958
-44.9243
-76.3581
-97.0683
-91.0582
-59.2959
-64.8719
-87.5705
-41.6082
-42.3511
-52.5388
-49.5416
-47.3799
-58.7281
-54.4869
-42.8151
-51.9208
-75.9881
-71.2131
-87.8509
-90.0077
-86.9563
-69.5751
-65.1656
-50.9113
-89.0713
-75.0456
-75.5346
-47.5409
-42.6432
-54.4043
-58.2815
-42.0781
-49.4658
-52.3324
-42.0091
-104.923
-97.0671
-64.7353
-62.0454
-104.785
-62.1174
-64.7382
-97.0699
-41.1003
-42.5887
-50.2547
-47.7075
-41.1241
-47.543
-50.21
-42.5916
-60.7637
-34.9454
-22.7292
-79.8719
-36.6333
26.7798
2.83432
-22.3016
-36.5906
-21.9245
3.72274
26.7242
-56.6681
-80.914
-22.6399
-34.8132
-34.3988
156.988
182.717
27.8908
133.934
130.073
199.081
155.832
113.842
154.077
199.227
127.993
-32.5171
28.2651
182.667
155.384
-36.2371
-36.6326
-38.7051
-37.7283
-35.5201
-36.9863
-38.8301
-36.7688
-46.8107
-48.6056
-42.883
-40.8746
-49.6442
-41.8743
-43.039
-49.7013
-36.2347
-37.7445
-38.7461
-36.6613
-49.6155
-49.8911
-43.1475
-41.9114
-46.9059
-40.894
-42.897
-48.6636
-35.5647
-36.7855
-38.8484
-37.0165
-37.3556
-38.5202
-36.7358
-35.9219
-37.3405
-35.9182
-36.7335
-38.5162
-36.9051
-37.7936
-36.0028
-35.2054
-36.9017
-35.2073
-36.0047
-37.7911
-83.7291
-70.3014
-97.4726
-9.79139
-55.898
-70.5628
-87.5102
-61.0623
-55.8747
-61.1184
-87.4291
-70.5429
-83.6199
-10.1169
-97.6029
-70.427
-30.3597
-42.5301
-45.4996
-31.9431
-43.1066
-42.224
-49.5775
-50.6757
-39.8506
-45.2788
-47.7085
-40.7355
-46.8856
-39.7459
-49.6736
-48.6344
-30.6755
-31.9688
-46.0784
-43.1893
-46.9368
-48.6384
-49.6952
-39.8147
-39.6592
-40.5848
-47.5402
-45.1669
-43.0147
-50.48
-49.3175
-42.0877
-42.8299
-41.4547
-42.4232
-40.9958
-42.841
-40.9857
-42.4162
-41.4482
-38.3312
-34.7829
-38.7228
-40.3982
-38.4282
-40.4573
-38.7404
-34.8292
-54.4443
-50.9985
-47.2175
-61.5468
-36.7603
-36.4849
-39.6105
-41.5732
-36.7204
-41.5195
-39.6064
-36.4725
-54.629
-61.5303
-47.182
-50.9113
-34.1593
-28.0391
-26.4017
-33.2111
-34.0303
-33.1095
-26.1586
-27.8911
-32.5369
-28.0167
-28.1458
-32.9215
-32.6519
-33.0416
-28.3182
-28.162
-10.8946
-104.313
-142.808
-39.8936
-38.9702
-40.5756
-29.9017
42.8836
-73.7617
-36.7865
-35.1617
-37.1936
-100.036
-11.9758
-141.699
-38.8387
-39.771
-40.4697
44.3893
-37.67
-73.3704
-35.0557
-36.6776
-37.0805
-38.3966
-36.984
-35.3641
-38.1935
-38.3168
-34.6843
-32.7163
-38.3492
-52.1579
-51.017
-54.3479
-68.9738
-49.1963
-47.9834
-49.4077
-51.5322
-38.3408
-38.1614
-36.9431
-35.3798
-38.3741
-38.3512
-34.6162
-32.7863
-52.5955
-68.9813
-51.2409
-54.3483
-49.2442
-51.6145
-48.096
-49.4751
-8.20146
-1.60204
-85.6223
125.151
-138.24
-138.258
-111.294
9.42251
-55.1737
-48.4481
-54.9854
-52.3671
-36.035
-35.3419
-39.6307
-33.7035
-31.4286
-31.384
-32.7924
-26.9853
-41.3376
-40.3
-42.5814
-40.487
128.199
128.008
-14.28
148.703
-67.02
-59.6937
-67.7012
-43.6483
-35.715
-35.4431
-36.707
-30.4647
-46.0394
-48.7422
-47.7234
-47.3169
-8.83771
0.736262
-84.3916
123.483
-55.2361
-48.5552
-54.6597
-52.3153
-35.9061
-35.2203
-39.4791
-33.5609
-41.4061
-40.3307
-42.6437
-40.4747
-65.5933
-58.7809
-67.1407
-42.9682
-45.9432
-48.6767
-47.6389
-47.2356
-34.7615
-34.635
-36.785
-34.8439
-38.3364
-40.1723
-39.3922
-39.2445
-40.3266
-40.3243
-41.5147
-39.3986
-35.1423
-38.472
-37.8741
-35.7027
-39.4125
-39.4132
-38.5712
-40.369
-53.865
-52.7498
-51.4297
-58.7376
17.6404
17.6587
27.2601
6.25466
-66.6297
-66.6123
-69.1568
-64.4655
-34.8658
-34.531
-36.7548
-34.8374
-38.3153
-40.1557
-39.3618
-39.247
-35.2038
-38.5133
-37.8928
-35.7269
-53.893
-52.8383
-51.5164
-58.8427
-63.1442
-59.937
-61.4401
-56.5767
-63.4002
-59.7524
-61.1659
-56.3916
-60.4423
-56.2891
-56.2951
-53.2286
-14.2514
-7.03438
-6.90754
0.0764083
194.944
190.287
199.784
195.061
-39.6966
-40.5716
-40.5927
-41.7909
-39.7417
-40.6215
-40.6161
-41.8919
-35.924
-36.0852
-35.9675
-35.9235
-103.322
-105.468
-96.4944
-103.209
-50.2842
-47.7828
-50.2172
-47.8383
-50.1646
-47.7218
-50.1311
-47.8363
-40.2364
-41.2836
-41.2692
-41.545
-40.6409
-42.1642
-42.1812
-44.1758
-26.2959
-23.293
-25.4493
-26.2318
-7.88774
-27.2843
-91.5087
106.42
-168.494
-136.951
-114.09
-27.3948
-85.8737
-65.8474
-79.9791
-75.6284
-37.4319
-36.5182
-40.81
-33.8826
-36.0479
-33.42
-35.6043
-33.3682
-43.8586
-44.5385
-48.2658
-42.8307
-35.5462
-5.7543
-72.4708
121.763
92.3047
96.7795
-22.7124
101.212
-41.0689
-41.9735
-38.4476
-43.9009
-35.5464
-35.3262
-39.7611
-33.7566
-34.3041
-35.3516
-35.5853
-33.0825
-39.3328
-42.1693
-41.6975
-39.7877
-167.933
-136.794
-114.036
-27.4545
-12.3645
-29.833
-89.6657
106.38
-85.589
-66.7256
-77.0496
-75.6251
-35.9112
-33.3061
-35.5051
-33.1951
-37.2982
-36.393
-40.6838
-33.7675
-43.7557
-44.0999
-47.6956
-42.7086
93.0488
93.8995
-24.4245
99.3644
-37.0899
-12.3167
-74.3936
123.52
-41.2729
-43.4109
-39.7747
-43.318
-34.2639
-35.3385
-35.5618
-32.9908
-35.4249
-35.201
-39.6117
-33.656
-39.2713
-42.1021
-41.6021
-39.7455
-39.8873
-44.1307
-46.937
-43.0832
-35.9514
-36.0271
-35.646
-36.3461
-36.6408
-37.285
-37.9722
-36.8727
-39.3097
-39.8866
-40.8363
-38.6711
-45.017
-39.1581
-43.5176
-39.652
-34.3394
-34.5555
-34.925
-35.4023
-31.7841
-32.7576
-34.3039
-28.1605
-38.9613
-39.3031
-38.2512
-40.2443
-48.9121
-50.8789
-50.4108
-33.2167
-46.1818
-42.6301
-43.6388
-44.5519
-54.8038
-54.6946
-52.609
-62.4488
-22.8104
10.4783
9.57882
-12.6218
-49.5142
-49.3473
-48.8508
-52.0638
-44.5794
-41.2859
-42.9137
-42.5514
-50.4863
-51.6302
-49.5067
-55.4954
-56.4431
-64.6601
-63.0426
-62.3129
-39.8021
-44.0685
-46.749
-43.0498
-39.2885
-39.8788
-40.8239
-38.6601
-35.9282
-36.0202
-35.6403
-36.3363
-36.566
-37.2023
-37.799
-36.8538
-44.8794
-39.1843
-43.1722
-39.6102
-38.9704
-39.3127
-38.2589
-40.2744
-34.3375
-34.5602
-34.8101
-35.4026
-31.8241
-32.798
-34.3528
-28.2747
-49.1588
-50.3951
-50.2041
-33.013
-23.2004
10.3323
9.54939
-12.82
-46.2849
-42.6452
-43.7291
-44.6474
-55.0635
-54.8863
-52.8701
-62.8664
-49.5805
-49.3523
-49.221
-52.0535
-56.5712
-64.6614
-63.0297
-62.4065
-44.691
-41.346
-43.0206
-42.6424
-50.5432
-51.7034
-49.4657
-55.4808
-83.0977
-75.0182
-78.7463
-79.4405
162.388
194.252
173.878
180.951
-87.0333
-71.2742
-78.4502
-78.4576
148.891
184.297
175.115
175.056
-57.4109
-58.652
-59.9792
-54.1734
-53.7897
-55.2031
-58.4797
-51.2106
-43.1859
-46.3174
-45.9089
-43.9697
-32.7202
-30.0158
-31.5156
-31.4522
-35.6436
-38.1276
-36.9011
-36.9181
-25.265
-22.9735
-25.8474
-25.7203
-45.6028
-46.4251
-45.09
-47.9932
-43.4419
-42.8465
-42.2758
-40.5266
-52.2377
-28.8188
-35.2038
-35.3398
148.84
206.913
190.63
190.538
-66.3194
-63.3753
-59.1688
-70.4176
-21.3806
-12.059
-21.2929
-10.6585
-37.1672
-38.42
-38.0712
-38.0655
-26.2209
-26.1955
-26.7122
-26.8058
-47.8877
-50.0521
-47.2333
-49.3977
-44.0441
-42.5946
-45.0924
-41.4481
-81.3583
-78.5669
-75.9918
-76.9706
162.304
194.745
181.314
174.027
-57.2082
-58.4911
-60.1812
-54.0174
-53.7492
-55.1957
-58.4842
-51.3317
-43.0248
-46.149
-43.8198
-45.7323
-32.5848
-29.821
-31.3184
-31.3043
-45.7094
-46.3345
-45.2066
-47.8255
-43.4175
-42.8286
-42.2718
-40.4967
-66.0199
-62.9964
-71.3013
-58.9521
-21.0105
-11.6733
-10.1887
-21.1227
-47.7713
-49.902
-49.3521
-47.1136
-44.0157
-42.5754
-41.413
-45.0521
-37.3593
-37.9996
-37.4882
-37.3974
-35.3028
-35.6693
-35.631
-35.523
-48.007
-51.5206
-51.1132
-51.5678
-39.8158
-40.3334
-39.1286
-41.2519
-44.4206
-48.1285
-46.1753
-46.1728
-38.1737
-37.6821
-37.7646
-37.763
-39.4697
-40.4851
-39.2377
-41.3452
-38.9594
-45.9255
-44.6437
-42.7797
-37.2905
-36.3894
-36.7568
-36.7565
-42.9628
-42.3697
-42.9412
-42.9347
-47.2538
-44.2823
-45.3414
-45.7249
-74.8043
-96.1331
-93.8956
-80.1392
27.2451
13.459
20.215
21.2183
-32.5836
-87.2238
-60.034
-59.5999
-75.1139
-83.9549
-78.6809
-78.657
-58.3346
-50.8776
-54.6124
-54.6028
-37.3642
-38.0268
-37.5111
-37.4087
-35.3009
-35.6682
-35.6289
-35.5222
-47.4589
-51.3242
-51.4072
-50.763
-39.8662
-40.3805
-39.1721
-41.3223
-39.5451
-40.4909
-41.368
-39.2648
-39.0987
-45.947
-44.6119
-42.8455
-47.3461
-44.3619
-45.8437
-45.361
-74.8005
-96.0675
-79.933
-93.5476
-84.4492
-78.8191
-78.8933
-72.4376
-49.4732
-49.2848
-49.6411
-50.162
-50.9249
-47.4995
-53.2503
-51.5755
-70.5858
-69.263
-79.5651
-83.4509
-82.7775
-74.5041
-76.625
-75.8767
-67.2558
-63.6724
-77.0216
-84.8971
-50.6554
-47.237
-53.0254
-50.918
-49.2984
-48.8486
-49.5463
-50.2103
-86.2466
-76.6624
-77.4711
-69.3761
-86.2237
-76.6548
-77.4632
-69.3835
-44.5903
-43.3954
-46.995
-45.5354
-44.5954
-43.4021
-47.0548
-45.5316
-50.7739
-41.2959
-41.2834
-32.2395
-2.40021
12.2325
2.18657
13.3709
-2.68121
12.1975
2.78456
13.6574
-50.2622
-41.2741
-40.5042
-31.9439
115.855
91.9674
168.615
173.221
165.744
150.213
180.874
192.157
147.242
166.702
189.321
181.231
93.1788
115.928
173.703
168.632
-37.0591
-37.0517
-37.3325
-37.5445
-36.7042
-36.4455
-37.1575
-37.453
-43.6877
-45.8768
-43.0221
-44.6988
-45.2478
-47.3384
-43.9245
-45.6395
-37.0802
-36.9536
-37.3385
-37.6424
-45.3401
-47.5592
-44.0169
-45.7872
-43.7691
-45.9141
-43.0681
-44.7544
-36.7201
-36.4716
-37.1634
-37.4705
-36.9417
-37.5223
-37.1092
-37.4439
-37.5154
-36.9359
-37.4398
-37.106
-36.8684
-36.1009
-36.5307
-35.9672
-36.0994
-36.8652
-35.9664
-36.5291
-104.147
-49.5806
-90.2651
-61.2143
-64.3078
-66.7086
-73.4774
-74.5079
-66.6779
-64.3032
-74.5289
-73.5404
-49.9226
-104.181
-62.1447
-90.6441
-45.093
-42.2049
-44.3434
-44.8264
-44.8186
-47.2065
-47.2553
-48.9444
-41.8836
-43.0552
-43.6426
-44.8722
-46.5136
-44.4954
-48.0637
-45.45
-44.0486
-41.7695
-44.1144
-44.8244
-46.5786
-44.5677
-48.0699
-45.5019
-41.7285
-42.9212
-43.4862
-44.7208
-44.7056
-46.9881
-47.0278
-48.5399
-41.9506
-42.8869
-42.4477
-43.1839
-41.9023
-42.8238
-42.4482
-43.1465
-36.8877
-38.4983
-37.0243
-38.0554
-36.9549
-38.5646
-37.0683
-38.099
-56.7319
-59.365
-51.8091
-55.2938
-37.5124
-38.8357
-38.3261
-39.3091
-37.4909
-38.8194
-38.3146
-39.2891
-56.6511
-59.3124
-51.7314
-55.2505
-32.8364
-31.8356
-31.493
-29.9401
-31.6737
-32.7038
-29.7707
-31.3077
-30.9165
-31.8466
-29.8519
-31.3232
-31.988
-31.0773
-31.4825
-30.0225
-105.054
-19.4453
-137.465
-78.1082
-95.2989
-106.195
-41.7148
-35.3016
-37.5305
-35.824
-44.195
-39.4226
-75.4549
93.3545
-30.0861
99.708
-46.9972
-51.2665
-39.347
-33.6721
-35.4902
-33.2157
-39.1762
-37.2257
-137.172
-75.3665
-102.502
-9.83641
-94.489
-105.968
-37.4212
-35.6097
-41.5978
-35.1686
-44.1087
-39.3201
-29.9672
87.3245
-74.2864
92.1639
-48.3286
-52.7831
-35.4401
-33.1113
-39.217
-33.5711
-39.0432
-37.1731
-38.8692
-40.5696
-35.8743
-36.9193
-38.0086
-36.286
-39.7582
-37.9568
-40.5383
-44.5472
-36.2351
-36.3524
-34.2136
-27.6134
-37.7082
-40.3658
-49.2356
-57.0918
-47.7692
-49.1586
-51.8415
-64.1608
-48.9486
-87.3441
-48.4884
-51.3333
-46.5171
-46.4798
-48.3806
-52.3802
-55.0008
-54.3714
-38.8229
-40.5305
-39.7296
-37.929
-35.8567
-36.8995
-37.6291
-36.3297
-40.543
-44.5339
-37.7126
-40.3675
-36.2733
-36.3547
-34.2559
-27.7631
-49.6088
-57.4744
-49.6596
-87.4266
-48.0784
-49.5149
-51.905
-63.4731
-48.5235
-51.3996
-55.0098
-54.4465
-46.6414
-46.564
-48.4711
-52.4433
-86.3196
122.771
-77.5179
129.88
-86.0885
-80.5137
155.489
155.27
-110.875
-26.1289
-110.86
-26.314
-97.1396
-97.1467
102.377
102.096
-57.9209
-61.0731
-48.2512
-46.6038
-57.8002
-51.9929
-57.0866
-49.7279
-40.5766
-33.6133
-39.3305
-33.6658
-41.8001
-40.8217
-33.4275
-33.476
-33.6325
-29.058
-33.5723
-28.9118
-34.3406
-34.3617
-25.4357
-25.3046
-49.5622
-42.0902
-41.2629
-40.5903
-43.3831
-47.26
-41.181
-40.3674
-30.9833
119.395
-30.7693
119.551
-84.3258
-82.4588
127.032
127.237
-83.4496
-45.4504
-57.987
-39.3826
-62.5764
-76.9394
-31.4403
-25.9738
-36.4241
-31.5934
-36.4221
-31.5231
-36.5318
-36.5253
-27.0493
-27.1108
-44.7929
-43.6029
-48.8887
-49.6684
-46.6547
-48.5021
-48.3633
-43.5649
-84.3664
120.616
-74.6493
128.571
-85.415
-80.6194
153.793
154.304
-63.9231
-61.2529
-48.1421
-46.7788
-57.7076
-51.9271
-57.1286
-49.8892
-40.4341
-33.5086
-39.1834
-33.5635
-40.6744
-41.653
-33.3277
-33.366
-49.9808
-42.0206
-41.5033
-40.5915
-43.5687
-47.4564
-41.1671
-40.3312
-82.8627
-45.0768
-57.3619
-38.8633
-77.2806
-62.5603
-25.3637
-31.2377
-44.715
-43.5438
-48.8926
-49.6805
-48.4551
-46.5422
-43.5026
-48.3049
-35.2115
-35.7071
-34.2813
-34.911
-36.8361
-36.7992
-35.2078
-35.0596
-38.4014
-37.5155
-41.1178
-41.6549
-42.6182
-42.7001
-38.5659
-40.625
-41.2636
-39.2166
-41.2595
-39.2134
-42.8023
-42.8034
-38.6953
-38.6932
-35.7398
-30.503
-40.3254
-39.3764
-37.7985
-39.9546
-33.0213
-36.953
-38.5125
-40.3166
-38.5158
-40.3182
-37.8741
-37.8682
-41.4454
-41.4415
-52.0531
-61.4819
-50.2004
-55.5469
-49.0991
-49.4542
-67.7076
-63.1891
23.9601
2.7455
23.8253
2.55525
29.3997
29.4001
-8.93248
-9.04462
-68.1429
-64.1772
-68.1307
-64.1748
-71.5409
-71.5281
-61.8734
-61.8641
-35.162
-35.7093
-34.3368
-34.9073
-36.9152
-36.814
-35.2053
-35.0567
-38.2988
-37.4981
-41.2123
-41.6304
-42.3838
-42.3123
-38.586
-40.6591
-35.7722
-30.6454
-40.3517
-39.4515
-39.948
-37.8235
-33.0685
-37.0313
-52.1609
-61.6372
-50.2455
-55.5821
-49.7168
-49.1737
-63.1772
-67.7609
-66.0639
-68.83
-61.5364
-55.3436
-58.0693
-65.7934
-53.1205
-54.0187
-70.0577
-72.5003
-61.7192
-55.1578
-66.3634
-57.8359
-53.861
-53.0019
-65.2559
-65.2574
-59.8785
-52.6476
-59.8816
-52.6915
-50.6004
-50.5859
-21.6224
-21.6
-16.4643
-2.73854
-2.41012
-16.3088
6.46216
5.83866
186.902
196.887
184.975