# vtk DataFile Version 2.0
tet_velo
ASCII
DATASET UNSTRUCTURED_GRID
POINTS 29498 float
-0.794856 0.535 -1.915
-0.776627 0.535 1.965
-0.805 1.155 -2.01344
-0.650497 1.755 1.715
0.794856 0.535 -1.915
0.776628 0.535 1.965
0.805 1.155 -2.01344
0.650507 1.755 1.715
-0.785109 0.538671 -0.621667
-0.856696 0.461007 0.671667
-0.705313 1.30681 -0.770627
-0.709567 1.56257 0.472187
0.785113 0.538667 -0.621667
0.856697 0.461007 0.671667
0.705315 1.30681 -0.770627
0.709569 1.56256 0.472187
-1.54004 0.0463744 -2.85152
-1.54747 0.116798 -1.83708
-1.54893 0.0926487 -0.542442
-1.58898 -0.0084568 0.762365
-1.56233 0.0095277 2.05786
-1.54797 0.0989367 3.07649
-1.55082 0.205643 4.08735
-1.54475 0.425014 -2.9189
-1.54747 0.512327 -1.90998
-1.53587 0.540241 -0.625173
-1.58131 0.508319 0.664184
-1.52839 0.568872 1.94996
-1.52645 0.660309 2.96788
-1.53999 0.759092 3.98039
-1.54787 1.12434 -3.03948
-1.54053 1.19997 -2.02848
-1.47343 1.35177 -0.77811
-1.47062 1.56287 0.468681
-1.42549 1.73118 1.72002
-1.46998 1.81086 2.74002
-1.51286 1.87986 3.76068
-1.54297 2.31396 -3.25834
-1.53347 2.425 -2.25491
-1.50002 2.66297 -1.02092
-1.47487 2.97549 0.202183
-1.46796 3.23399 1.4367
-1.48193 3.365 2.44124
-1.50625 3.45164 3.45638
-0.768948 0.0631546 -2.85477
-0.782592 0.140879 -1.84184
-0.777314 0.097501 -0.541804
-0.821434 -0.0438203 0.768752
-0.802648 -0.023047 2.06903
-0.796409 0.0787615 3.08406
-0.802075 0.194339 4.09174
-0.773706 0.433073 -2.9199
-0.788792 0.646991 2.97412
-0.798863 0.752607 3.98369
-0.780279 1.10604 -3.03323
-0.746775 1.82078 2.73902
-0.782668 1.88581 3.76046
-0.787988 2.29031 -3.25217
-0.787162 2.3969 -2.2481
-0.761114 2.64378 -1.01682
-0.741413 2.9803 0.201691
-0.740058 3.25264 1.43319
-0.753481 3.38277 2.43773
-0.773923 3.465 3.45383
0.794208 0.0631539 -2.85477
0.789594 0.140878 -1.84184
0.798673 0.0974983 -0.541804
0.828781 -0.043821 0.768752
0.771949 -0.0230473 2.06903
0.730641 0.0787611 3.08406
0.707391 0.194338 4.09174
0.796602 0.433073 -2.9199
0.710077 0.646991 2.97412
0.694151 0.752606 3.98369
0.789576 1.10604 -3.03323
0.668406 1.82078 2.73902
0.676953 1.88581 3.76046
0.734221 2.2903 -3.25217
0.719188 2.3969 -2.2481
0.712917 2.64377 -1.01682
0.712025 2.9803 0.201691
0.699117 3.25264 1.43319
0.691589 3.38277 2.43773
0.686047 3.465 3.45383
1.56864 0.0463724 -2.85151
1.56311 0.116796 -1.83708
1.56821 0.0926443 -0.542442
1.60234 -0.00845943 0.762365
1.55218 0.00952639 2.05786
1.50002 0.0989357 3.07649
1.46934 0.205641 4.08735
1.56889 0.425013 -2.9189
1.55787 0.512325 -1.90998
1.54275 0.540236 -0.625173
1.59104 0.508316 0.664184
1.53392 0.568871 1.94996
1.47599 0.660308 2.96788
1.45205 0.759091 3.98039
1.55613 1.12434 -3.03948
1.5416 1.19997 -2.02848
1.47314 1.35177 -0.77811
1.47696 1.56286 0.46868
1.43063 1.73118 1.72002
1.41909 1.81086 2.74002
1.42321 1.87986 3.76068
1.49642 2.31395 -3.25834
1.47758 2.425 -2.25491
1.4591 2.66297 -1.02092
1.44925 2.97548 0.202183
1.43297 3.23399 1.4367
1.42577 3.365 2.44124
1.42365 3.45164 3.45638
-0.840699 0.845 -2.00499
0 0.532356 -1.91764
-0.800302 0.526516 -1.26833
-0.827853 1.145 1.95429
5.06639e-07 0.517893 1.98211
-0.807751 0.506914 1.31833
0 1.18988 -2.04832
-0.779886 1.25564 -1.39203
4.97699e-06 1.79593 1.75593
-0.677919 1.65667 1.09359
0.840698 0.845 -2.00499
0.800353 0.526465 -1.26833
0.827818 1.145 1.95425
0.80776 0.506906 1.31833
0.779882 1.25563 -1.39203
0.677922 1.65667 1.09359
-0.784466 0.536276 0.025
-0.841426 0.922742 -0.696147
2.00737e-06 0.460915 -0.621667
-0.840905 1.01179 0.571927
3.3776e-07 0.4656 0.671667
-0.732746 1.46 -0.14922
1.34289e-06 1.31046 -0.770627
9.13975e-07 1.82015 0.472187
0.78447 0.536272 0.025
0.841426 0.92274 -0.696147
0.840905 1.01179 0.571927
0.732747 1.45999 -0.14922
-0.895609 0.883871 -1.33018
-0.841156 0.967265 -0.0621099
-0.84136 1.07839 1.20596
1.00369e-06 0.520811 -1.26833
1.17257e-06 0.459271 0.025
4.222e-07 0.491775 1.31833
0 0.845 -2.11593
2.74181e-06 1.145 2.06704
6.71447e-07 1.24913 -1.39203
1.12843e-06 1.79522 -0.14922
2.94548e-06 1.82019 1.09359
0.89561 0.88387 -1.33018
0.841156 0.967263 -0.0621099
0.84136 1.07839 1.20596
-1.17116 0.523663 -1.91249
-0.788724 0.33794 -1.87842
-0.784281 0.484037 -2.41745
-1.15251 0.551936 1.95748
-0.789637 0.255977 2.01701
-0.782709 0.590996 2.46956
-1.17276 1.17748 -2.02096
-0.792639 1.13052 -2.52334
-0.796081 1.77595 -2.13077
-1.03799 1.74309 1.71751
-0.698636 1.78789 2.22701
-0.695278 2.50382 1.57409
0.792225 0.337939 -1.87842
0.795729 0.484036 -2.41745
1.17636 0.523663 -1.91249
0.774289 0.255976 2.01701
0.743353 0.590995 2.46956
1.15528 0.551936 1.95748
0.797288 1.13052 -2.52334
0.762094 1.77595 -2.13077
1.1733 1.17748 -2.02096
0.659457 1.78789 2.22701
0.674812 2.50382 1.57409
1.04057 1.74309 1.71751
-1.16049 0.539456 -0.62342
-0.781211 0.318086 -0.581735
-1.219 0.484663 0.667925
-0.839065 0.208593 0.720209
-1.08937 1.32929 -0.774368
-0.733214 1.97529 -0.893721
-1.09009 1.56272 0.470434
-0.72549 2.27144 0.336939
0.791893 0.318083 -0.581736
1.16393 0.539452 -0.62342
0.842739 0.208593 0.720209
1.22387 0.484661 0.667925
0.709116 1.97529 -0.893721
1.08923 1.32929 -0.774368
0.710797 2.27143 0.336939
1.09326 1.56271 0.470434
-1.54375 0.0815864 -2.3443
-1.5424 0.235694 -2.88521
-1.15449 0.0547645 -2.85314
-1.5482 0.104724 -1.18976
-1.54747 0.314563 -1.87353
-1.16503 0.128839 -1.83946
-1.56895 0.0420959 0.109961
-1.5424 0.316445 -0.583807
-1.16312 0.0950749 -0.542123
-1.57565 0.00053545 1.41011
-1.58514 0.249931 0.713274
-1.20521 -0.0261385 0.765558
-1.55515 0.0542322 2.56717
-1.54536 0.2892 2.00391
-1.18249 -0.00675965 2.06344
-1.54939 0.15229 3.58192
-1.53721 0.379623 3.02218
-1.17219 0.0888491 3.08028
-1.5454 0.482367 4.03387
-1.17645 0.199991 4.08954
-1.54611 0.46867 -2.41444
-1.54631 0.774677 -2.97919
-1.15923 0.429044 -2.9194
-1.54167 0.526284 -1.26758
-1.544 0.856147 -1.96923
-1.55859 0.52428 0.0195055
-1.50465 0.946007 -0.701641
-1.55485 0.538596 1.30707
-1.52597 1.03559 0.566432
-1.52742 0.614591 2.45892
-1.47694 1.15003 1.83499
-1.53322 0.709701 3.47413
-1.49822 1.23558 2.85395
-1.15762 0.65365 2.971
-1.52642 1.31948 3.87053
-1.16943 0.75585 3.98204
-1.5442 1.16215 -2.53398
-1.54542 1.71915 -3.14891
-1.16407 1.11519 -3.03636
-1.50698 1.27587 -1.40329
-1.537 1.81248 -2.14169
-1.47202 1.45732 -0.154714
-1.48672 2.00737 -0.899514
-1.44805 1.64703 1.09435
-1.47274 2.26918 0.335432
-1.44774 1.77102 2.23002
-1.44672 2.48259 1.57836
-1.49142 1.84536 3.25035
-1.47596 2.58793 2.59063
-1.10838 1.81582 2.73952
-1.50956 2.66575 3.60853
-1.14776 1.88284 3.76057
-1.53822 2.36948 -2.75663
-1.16548 2.30213 -3.25526
-1.51675 2.54399 -1.63791
-1.16032 2.41095 -2.2515
-1.48744 2.81923 -0.409367
-1.13057 2.65338 -1.01887
-1.47142 3.10474 0.819442
-1.10814 2.97789 0.201937
-1.47494 3.2995 1.93897
-1.10401 3.24332 1.43494
-1.49409 3.40832 2.94881
-1.1177 3.37389 2.43949
-1.14009 3.45832 3.45511
-0.77577 0.102017 -2.34831
-0.771327 0.248114 -2.88734
0.0126301 0.0631542 -2.85477
-0.779953 0.11919 -1.19182
0.0035008 0.140879 -1.84184
-0.799374 0.0268404 0.113474
0.0106797 0.0974997 -0.541804
-0.812041 -0.0334336 1.41889
0.0036739 -0.0438206 0.768752
-0.799529 0.0278573 2.57654
-0.0153493 -0.0230472 2.06903
-0.799242 0.13655 3.5879
-0.792601 0.362877 3.02909
-0.0328844 0.0787613 3.08406
-0.800469 0.473473 4.03771
-0.0473419 0.194339 4.09174
-0.776992 0.769554 -2.97657
0.0114481 0.433073 -2.9199
-0.793827 0.699799 3.47891
-0.767783 1.23389 2.85657
-0.0393571 0.646991 2.97412
-0.790766 1.31921 3.87208
-0.0523561 0.752607 3.98369
-0.784133 1.69817 -3.1427
0.0046484 1.10604 -3.03323
-0.764722 1.8533 3.24974
-0.750128 2.60178 2.58837
-0.0391844 1.82078 2.73902
-0.778296 2.67541 3.60715
-0.0528579 1.88581 3.76046
-0.787575 2.3436 -2.75013
-0.0268837 2.2903 -3.25217
-0.774138 2.52034 -1.63246
-0.0339871 2.3969 -2.2481
-0.751264 2.81204 -0.407562
-0.0240989 2.64377 -1.01682
-0.740736 3.11647 0.817438
-0.0146941 2.9803 0.201691
-0.746769 3.31771 1.93546
-0.0204708 3.25264 1.43319
-0.763702 3.42389 2.94578
-0.0309456 3.38277 2.43773
-0.0439384 3.465 3.45383
0.791901 0.102016 -2.34831
0.795405 0.248113 -2.88734
1.18143 0.0547631 -2.85314
0.794134 0.119188 -1.19182
1.17635 0.128837 -1.83946
0.813727 0.0268387 0.113474
1.18344 0.0950713 -0.542123
0.800365 -0.0334342 1.41889
1.21556 -0.0261402 0.765558
0.751295 0.0278569 2.57654
1.16207 -0.00676046 2.06344
0.719016 0.13655 3.5879
0.720359 0.362876 3.02909
1.11533 0.0888484 3.08028
0.700771 0.473472 4.03772
1.08836 0.19999 4.08954
0.793089 0.769554 -2.97657
1.18274 0.429043 -2.9194
0.702114 0.699799 3.47891
0.689242 1.23389 2.85657
1.09303 0.65365 2.971
0.685552 1.31921 3.87208
1.0731 0.755849 3.98204
0.761898 1.69817 -3.1427
1.17285 1.11519 -3.03636
0.672679 1.8533 3.24974
0.679998 2.60178 2.58837
1.04375 1.81582 2.73952
0.6815 2.67541 3.60715
1.05008 1.88284 3.76057
0.726704 2.3436 -2.75013
1.11532 2.30213 -3.25526
0.716052 2.52034 -1.63246
1.09839 2.41095 -2.2515
0.712471 2.81204 -0.407562
1.08601 2.65337 -1.01887
0.705571 3.11647 0.817438
1.08064 2.97789 0.201937
0.695353 3.3177 1.93546
1.06604 3.24331 1.43494
0.688818 3.42389 2.94578
1.05868 3.37388 2.43949
1.05485 3.45832 3.4551
1.56588 0.0815842 -2.3443
1.56877 0.235693 -2.88521
1.56566 0.10472 -1.18976
1.56049 0.31456 -1.87353
1.58527 0.0420924 0.109961
1.55548 0.31644 -0.583808
1.57726 0.000533477 1.41011
1.59669 0.249928 0.713274
1.5261 0.054231 2.56717
1.54305 0.289199 2.00391
1.48468 0.152288 3.58192
1.48801 0.379622 3.02218
1.46069 0.482366 4.03387
1.56338 0.468669 -2.41444
1.56251 0.774675 -2.97919
1.55031 0.52628 -1.26758
1.54974 0.856145 -1.96923
1.56689 0.524276 0.0195054
1.50795 0.946002 -0.701641
1.56248 0.538594 1.30707
1.534 1.03559 0.566432
1.50496 0.61459 2.45892
1.48228 1.15003 1.83499
1.46402 0.7097 3.47413
1.44754 1.23558 2.85395
1.43763 1.31948 3.87053
1.54887 1.16215 -2.53398
1.52627 1.71915 -3.14891
1.50737 1.27587 -1.40329
1.50959 1.81248 -2.14169
1.47505 1.45732 -0.154715
1.46612 2.00737 -0.899514
1.45379 1.64702 1.09435
1.4631 2.26917 0.335432
1.42486 1.77102 2.23002
1.4318 2.48259 1.57836
[...]
POINT_DATA 29498
VECTORS point_vectors float
-3.42524 -4.79699 9.89961
0.573732 0.38406 3.01234
-12.0039 7.0098 12.4496
0.211539 -0.0732954 1.69944
3.42636 -4.78591 9.90271
-0.575257 0.374859 3.01323
11.8751 7.0904 12.2349
-0.211112 -0.074488 1.69718
0.0118284 -0.0139179 0.0753273
0.364981 -0.658798 4.30184
0 0 0
0.000514879 0.00194244 0.00529355
-0.0114552 -0.0134037 0.0712503
-0.342022 -0.637872 4.30458
0 0 0
-0.000519526 0.0019584 0.00533219
-0.776398 -0.501735 19.9646
-1.20684 -0.794083 20.7978
-0.487798 -0.417736 21.4699
-0.00195346 -0.160389 21.644
0.530141 0.169152 21.694
0.885544 0.311964 21.5404
0.996541 0.429501 20.6757
-0.901976 -0.384212 19.7702
-1.69241 -0.688054 20.7043
-0.69398 -0.526577 21.5463
-0.0895047 -0.329599 21.7377
0.72426 -0.129191 21.8805
1.2477 -0.0704905 21.5804
1.13659 -0.00522457 21.1919
-0.871559 0.0433227 19.65
-2.00189 0.200346 20.3666
-1.5349 -0.338115 21.4049
-0.723824 -0.382516 21.8762
-0.0765206 -0.541956 21.8896
0.295975 -0.7236 21.733
0.616922 -0.794785 21.2862
-0.427553 0.246051 19.9528
-0.669357 0.475128 20.2508
-0.75153 0.452017 20.7875
-0.520994 0.168445 21.3319
-0.194321 -0.0462088 21.5458
0.0814605 -0.123116 21.493
-0.0604756 -0.114523 20.8961
-0.782079 -1.09702 19.2806
-1.79494 -2.81717 21.2958
-0.737993 -0.689153 21.9815
-0.0479351 -0.0663217 22.0335
0.40817 0.810393 21.9877
0.957115 1.40527 21.1599
1.29062 1.33953 19.1007
-1.02967 -0.89783 18.6907
2.22984 0.730303 11.2426
2.64262 1.01831 15.4654
-1.00544 0.228425 18.5689
0.0702982 -0.828126 13.7191
0.367888 -1.44911 15.5323
-0.350887 0.465779 19.7102
-0.66941 1.05638 19.9758
-0.764203 1.09959 20.7698
-0.480754 0.504616 21.5191
-0.212234 0.00149516 21.794
0.00310803 -0.0938369 21.6033
-0.0251856 -0.16236 21.395
0.793092 -1.08856 19.2955
1.80701 -2.79614 21.2989
0.712304 -0.62824 21.937
0.0601358 -0.0846042 22.039
-0.384076 0.832178 22.0026
-0.884541 1.47799 21.2283
-1.1208 1.51342 19.0948
1.04237 -0.88054 18.7218
-2.12046 0.921963 9.22142
-2.74936 1.33426 13.3658
1.00651 0.227698 18.5811
0.263818 -0.930142 11.3889
-0.252766 -1.50232 14.69
0.332747 0.48407 19.6829
0.646214 1.09184 19.9539
0.72903 1.15627 20.7555
0.466256 0.513206 21.5147
0.20602 1.55268e-05 21.7821
0.00375253 -0.0905147 21.5999
0.0228215 -0.169015 21.4487
0.759973 -0.482422 19.9877
1.19111 -0.77948 20.7955
0.483338 -0.417674 21.4513
0.0110037 -0.162763 21.6389
-0.52816 0.182195 21.7195
-0.925302 0.372313 21.5478
-1.01102 0.45782 20.8812
0.882609 -0.373934 19.7949
1.67976 -0.677592 20.7105
0.687514 -0.527222 21.5499
0.0947202 -0.325543 21.7465
-0.720484 -0.130235 21.8958
-1.32204 -0.0849789 21.5106
-1.29607 0.0680132 21.2048
0.865498 0.0391824 19.6699
2.0008 0.19704 20.3733
1.53659 -0.339271 21.4005
0.721416 -0.378533 21.8742
0.0769529 -0.541319 21.8906
-0.297177 -0.793564 21.7355
-0.705043 -0.723345 20.8933
0.427974 0.262758 19.9301
0.6856 0.510056 20.2326
0.766425 0.473075 20.8047
0.527152 0.175034 21.3413
0.205589 -0.0336856 21.5722
-0.0532327 -0.114162 21.5576
0.056506 -0.102604 20.9791
-3.58255 -0.414736 5.23991
-0.000360989 -0.118539 0.511341
-0.00898735 -0.00519734 0.507935
0.163336 -0.290841 0.585112
0.000584785 0.0217237 0.0985803
0.0224109 0.0176239 0.635817
-0.00116665 8.00498 7.73232
-1.02615 -0.512197 1.66879
0.00480107 0.103806 -0.0627083
0.00562907 0.0157551 0.115521
3.57926 -0.411622 5.23467
0.00471954 -0.00754829 0.508175
-0.165198 -0.290515 0.58962
-0.0178377 0.0118239 0.66592
1.02725 -0.51129 1.67003
-0.00558001 0.0156567 0.11547
0.0133735 -0.0179488 0.213069
6.32652e-05 -0.00154548 0.00696793
-0.000322393 -0.00154218 0.0610932
0 0 0
7.35349e-06 0.00301218 0.0218374
-1.63522e-06 -7.70732e-06 -1.63686e-05
0 0 0
-3.55502e-08 0.000261861 0.00856947
-0.0107663 -0.013724 0.213497
-5.67746e-05 -0.00138107 0.00621834
0 0 0
0 0 0
-1.66257e-05 -0.000132422 0.0010047
0 0 0
0 0 0
-5.83988e-07 4.88933e-07 -1.88502e-05
-0.00224882 0.000127682 0.0760752
0 0 0
0.000621685 -0.0345469 0.0502926
0.000691494 -0.0452602 0.0156528
0 0 0
4.46781e-06 0.00628782 0.043675
5.19519e-08 8.67852e-09 7.39805e-05
1.49969e-05 -0.000122115 0.000905211
0 0 0
0 0 0
-3.21021 -1.66988 21.0043
-2.93058 -4.2343 21.7889
-2.67011 -2.59919 17.633
1.33678 0.0587141 20.0688
0.984904 1.06358 18.8205
1.46459 0.515896 8.1008
-3.92203 0.929055 20.2162
-2.65594 1.06983 16.9998
-1.66938 2.1056 19.6877
-0.283255 -0.680638 21.1317
-0.23152 -0.343309 8.82435
-0.397466 0.030032 21.8746
2.94105 -4.20714 21.7839
2.6854 -2.56005 17.6915
3.17808 -1.65267 20.9993
-0.975414 1.08846 18.7324
-1.29355 0.526486 6.78953
-1.33793 0.0593105 20.1235
2.65534 1.05216 17.0294
1.63249 2.20319 19.6502
3.91456 0.927025 20.2113
0.427692 -0.403308 7.41557
0.391528 0.0400571 21.8813
0.2868 -0.686354 21.16
-0.290817 -0.598976 21.3023
-0.458699 -0.243973 16.636
0.0124281 -0.391784 21.3722
0.306955 -0.154496 20.1843
-2.61859 -1.33119 20.7392
-2.07544 1.99046 20.4319
-1.15435 -0.787357 21.1295
-1.14313 0.929186 22.2211
0.383459 -0.195511 17.1303
0.293786 -0.61107 21.3707
-0.247592 -0.172107 20.317
0.00176581 -0.389265 21.4191
2.07018 2.07583 20.3859
2.63832 -1.33708 20.6807
1.1406 0.954309 22.2334
1.15545 -0.788054 21.204
-1.10122 -0.708237 20.2484
-0.846845 -0.44275 19.8563
-0.84399 -0.7742 19.6715
-0.859035 -0.605591 21.2934
-1.4674 -0.781167 20.7548
-1.6177 -1.50709 20.9452
-0.233743 -0.282057 21.5835
-0.559826 -0.463398 21.5387
-0.527134 -0.47652 21.7169
0.24633 0.00431383 21.7186
-0.00796633 -0.236858 21.718
0.0235511 -0.117037 21.8426
0.721258 0.273027 21.5897
0.675537 0.0506809 21.7724
0.608123 0.49644 21.847
0.952185 0.307421 21.3256
1.12439 0.159851 21.493
1.04894 0.796467 21.5558
1.1028 0.346277 21.2735
1.0284 0.607417 21.5466
-1.42874 -0.574605 20.0282
-0.943696 -0.168833 19.6642
-1.07464 -0.594058 19.3241
-1.20808 -0.614528 21.3873
-2.06539 -0.299032 20.5411
-0.32436 -0.429969 21.6359
-1.04693 -0.577826 21.5716
0.256052 -0.239094 21.9105
-0.327481 -0.46198 21.8365
1.01697 -0.0876556 21.7512
0.466552 -0.599082 21.9023
1.40711 -0.0649127 21.3977
0.934269 -0.666311 21.7047
2.01331 0.210991 20.1048
1.03739 -0.587064 21.5764
2.06505 0.0425402 20.2079
-1.47593 0.126623 19.7576
-0.633503 0.242648 19.7852
-1.03291 0.108963 19.1929
-1.76547 -0.00527187 21.1415
-1.25638 0.564552 20.2325
-1.19131 -0.434629 21.7463
-1.34241 0.416452 21.0284
-0.343024 -0.417761 21.8987
-0.777816 0.0914845 21.6763
0.121263 -0.622963 21.8042
-0.238842 -0.16374 21.6351
0.437072 -0.823313 21.6671
-0.0157246 -0.30513 21.5047
0.161483 -0.975203 21.3613
0.144705 -0.42173 21.4158
0.726059 -0.979031 20.9864
-0.528758 0.382085 20.0713
-0.41084 0.378247 19.8005
-0.751665 0.482722 20.6046
-0.716228 0.735543 20.1497
-0.673172 0.336936 21.1362
-0.831193 0.76457 20.8389
-0.349801 0.0346205 21.476
-0.632194 0.34817 21.4832
-0.133109 -0.0999058 21.5645
-0.244593 0.0184875 21.7814
0.112988 -0.136095 21.3261
0.0409689 -0.108408 21.6475
-0.0407852 -0.136368 21.1592
-1.4213 -2.27612 19.4962
-0.918005 -1.06493 18.9954
0.0208087 -1.53661 18.8656
-1.13799 -1.37637 21.9178
0.00811847 -4.2629 21.6087
-0.333017 -0.348164 21.9455
0.023674 -1.2502 21.8675
0.15686 0.324074 22.0653
-0.0147802 -0.216536 22.046
0.677986 1.14434 21.7136
0.0109858 0.723205 21.8666
1.2478 1.63991 19.7538
1.77083 1.67706 18.1033
0.0407984 1.64937 20.4974
2.12015 1.58328 17.3263
0.207336 2.23197 17.3112
-1.14509 -0.368328 18.3428
0.0175167 -1.25665 17.9254
2.95885 0.934018 12.8184
0.26999 -1.48925 4.73207
0.107641 0.622055 2.90748
1.37055 -1.11267 9.2009
0.450923 2.54321 5.64279
-0.619207 0.568861 19.2277
0.00916535 0.381102 17.8116
0.534274 -1.55946 16.9045
-0.141313 -0.225005 21.5875
-0.210515 1.22031 -1.98366
-0.168906 -0.553756 21.6664
-0.276517 0.0785655 3.40779
-0.514191 0.763703 19.7585
-0.0114037 0.5933 19.5502
-0.716428 1.12126 20.4201
-0.034533 1.34935 19.8387
-0.642709 0.890818 21.1954
-0.0258934 1.60184 20.6512
-0.311434 0.187394 21.7294
-0.0157276 0.772927 21.6095
-0.167204 -0.1063 21.8438
-0.00355163 0.153374 21.8924
0.0669087 -0.142854 21.4318
0.0133045 -0.109141 21.6687
-0.00221646 -0.129828 21.4127
1.43575 -2.23634 19.5176
0.921973 -1.05105 19.0199
0.842616 -0.749724 19.6922
1.12774 -1.33049 21.9248
1.61143 -1.4827 20.9428
0.346037 -0.362668 21.9165
0.513635 -0.467713 21.699
-0.149045 0.329934 22.0835
-0.0140861 -0.121404 21.8463
-0.621719 1.19786 21.6258
-0.605073 0.517262 21.8603
-1.23447 1.72279 19.6739
-1.59693 1.77649 17.1511
-1.03756 0.845792 21.5638
-2.10446 1.84757 16.3795
-1.25155 0.71224 21.1876
1.14747 -0.361859 18.3672
1.06439 -0.579253 19.367
-2.87967 1.24717 11.7912
0.000704857 -1.31508 2.39067
-2.11927 0.247981 18.9428
-1.56956 -0.948039 6.39783
-2.29763 0.257429 19.1416
0.611049 0.580741 19.2039
1.03217 0.107165 19.202
-0.283016 -1.4405 15.3681
0.147114 -0.202662 21.5745
-0.125339 -1.01551 21.12
0.228513 -0.595014 21.7154
-0.734883 -1.17855 21.0586
0.49815 0.785693 19.7435
0.408399 0.386489 19.7901
0.692403 1.16729 20.4055
0.707462 0.790092 20.121
0.628167 0.939372 21.1864
0.831663 0.808105 20.8215
0.300153 0.189957 21.7071
0.62445 0.3681 21.4933
0.152968 -0.105132 21.7999
0.244214 0.0106025 21.7921
-0.0686293 -0.138232 21.5071
-0.0224144 -0.106318 21.6441
0.0403057 -0.135346 21.2188
1.06989 -0.684453 20.2708
0.82865 -0.430458 19.878
0.84535 -0.599205 21.2793
1.45096 -0.768275 20.7563
0.23568 -0.282397 21.5847
0.551398 -0.462006 21.5332
-0.246411 0.00409649 21.7238
0.0168018 -0.236673 21.7217
-0.747345 0.297011 21.6153
-0.672287 0.0547027 21.7779
-1.01825 0.378603 21.2802
-1.16512 0.205489 21.4964
-1.2417 0.412714 21.1836
1.41059 -0.559124 20.0459
0.926065 -0.167595 19.6926
1.20183 -0.610686 21.388
2.05214 -0.298399 20.5474
0.326987 -0.430133 21.6411
1.04641 -0.572735 21.5661
-0.254733 -0.234018 21.9223
0.327511 -0.452843 21.8523
-1.05737 -0.0932924 21.7592
-0.4749 -0.597958 21.9264
-1.53897 -0.037046 21.3882
-0.982182 -0.731508 21.6475
-1.27529 -0.627575 21.3206
1.46265 0.123601 19.7766
0.635439 0.250401 19.7757
1.76383 -0.0082601 21.1403
1.27288 0.599995 20.217
1.18801 -0.431105 21.7454
1.37396 0.435243 21.027
0.33911 -0.421062 21.903
0.78513 0.0973573 21.6833
-0.119785 -0.647373 21.8277
0.234791 -0.167246 21.6396
-0.468463 -0.890345 21.8782
0.0116983 -0.326116 21.5078
-0.129597 -0.442616 21.4746
0.537518 0.401712 20.053
0.77393 0.51992 20.5855
0.685536 0.351809 21.139
0.349906 0.040875 21.504
0.128942 -0.100205 21.6181
-0.106456 -0.129531 21.3801
-1.28541 -0.68302 20.1326
-2.01075 -2.60962 18.7705
-1.4053 -1.32322 19.9717
-2.19767 -1.17131 19.3256
-0.959903 -0.712118 19.4832
-2.32033 -1.7182 21.0008
-1.00609 -0.614829 21.3599
-1.29675 -1.01154 20.4916
-0.993073 -0.894939 21.5846
-1.34875 -0.929869 22.0661
-0.48751 -0.436048 21.8162
-0.254253 -0.345137 21.6196
0.0548345 -0.226461 18.0066
-0.223073 -0.276885 21.746
-0.00212395 -0.428894 21.0322
0.043206 -0.212166 21.8569
0.299591 -0.103067 21.8215
0.685466 0.323767 19.0124
0.307229 0.159899 21.9142
0.549321 -0.230217 20.8638
0.99466 0.47061 21.7434
0.920878 0.13959 21.6353
1.36211 1.37506 18.3244
0.875388 0.696255 21.6913
1.74563 0.106105 20.0646
1.67195 0.756994 21.0125
1.26959 0.118784 21.4227
1.88339 1.74174 18.0836
1.22009 0.831255 21.4841
2.10556 0.280636 20.479
1.91345 0.770739 20.0515
-1.64049 -0.250432 19.8143
-3.24265 -0.849395 16.3653
-2.26939 0.4372 18.9204
-1.13306 -0.237313 19.1492
-4.35359 -0.590004 20.6137
-1.5616 -0.398143 21.3502
-2.31201 0.100294 21.6299
-0.79435 -1.23133 18.0959
-0.644121 -0.561025 21.7566
-2.09798 -1.09802 21.2727
-0.0566549 -0.760438 18.769
0.0230657 -0.463798 21.9591
-0.597627 -0.642407 21.0785
0.751656 -0.802954 18.3799
0.722763 -0.656658 21.8213
-0.30522 -1.68423 3.1186
-0.093689 -0.800535 21.4605
1.23955 -0.964072 18.962
1.09179 -0.72556 21.4188
1.79277 -1.15993 7.7011
0.437832 -1.12353 21.1219
1.61161 -0.941548 19.1176
-0.966963 0.429197 19.8996
-1.0879 1.2608 19.0831
-0.55282 0.558773 19.9341
-0.692776 0.418743 19.5109
-1.59982 1.16577 19.9943
-1.3174 0.512475 20.7046
-1.74235 1.81456 20.527
-0.805616 0.791793 20.4979
-1.82054 0.924311 20.9285
-1.14427 0.293126 21.4102
-2.18449 2.15249 21.7223
-0.764561 0.61863 21.123
-1.02108 0.375935 21.9059
-0.459125 -0.058028 21.7242
-0.632669 0.321354 22.0352
-0.426934 0.155986 21.7328
-0.314569 -0.106767 21.7892
-0.140051 -0.242468 21.5356
-0.291809 -0.122047 21.7622
-0.226396 -0.0886589 21.6592
-0.098295 -0.31747 21.5865
0.0652038 -0.39254 21.2898
-0.0134734 -0.484489 21.4217
0.0788501 -0.158894 21.3271
0.0138665 -0.450037 21.5223
2.02597 -2.57134 18.8076
0.0181046 -3.41675 18.9669
0.0220494 -4.39195 15.6732
0.0201307 -1.50976 18.4148
-0.00218093 -6.36332 22.6141
1.2828 -0.992299 20.6417
0.0252469 -2.15236 22.3398
0.0298163 -0.715896 13.8448
0.0247401 -0.240649 18.199
-0.0184547 -0.685412 21.839
-0.0599004 -0.051693 16.1007
-0.684433 0.342221 18.9702
0.00245817 0.172562 21.9833
0.0353015 0.729685 14.6716
-1.27282 1.43807 17.7287
0.0243548 1.15817 21.2307
0.0348766 -0.152875 2.28678
0.0813483 1.3838 12.0301
-1.81027 2.02333 17.1364
0.0537334 1.92139 18.1405
0.243685 2.31984 3.86449
0.128994 1.80238 11.1238
3.24963 -0.842788 16.4315
0.0104303 1.95967 14.6342
0.0185855 -0.487503 17.4549
0.505968 -1.74007 1.90275
-0.0781835 0.711316 -2.18356
-0.116371 1.58968 -2.89286
-1.67269 -0.869962 5.53641
-0.238706 -0.984505 2.11052
0.542324 2.2448 0.249694
1.06945 1.30288 19.0394
-0.0212601 0.963804 19.6144
-0.00770659 0.795456 18.8634
-0.0396696 3.31681 19.1954
1.72601 1.88235 20.5097
-0.0411833 1.50656 20.3219
-0.0495702 3.36292 19.6889
2.1774 2.24898 21.7242
-0.0234538 1.37473 21.1525
-0.0133274 1.68568 22.4156
0.631438 0.332126 22.0421
-0.00377533 0.365825 21.8424
-0.00950559 0.27113 21.945
0.281902 -0.10215 21.755
-0.00705989 -0.0981554 21.6309
-0.010861 0.00255186 21.5027
0.0577924 -0.451818 21.5036
0.0149701 -0.0523089 21.1238
-0.0317922 -0.502001 21.4643
1.25911 -0.666888 20.1412
1.39931 -1.28718 19.9865
2.16717 -1.14618 19.3693
0.952813 -0.687652 19.517
2.30002 -1.68801 20.9927
0.995325 -0.610207 21.3544
0.978651 -0.878418 21.5735
1.33929 -0.929109 22.0564
0.473486 -0.446592 21.7952
0.258008 -0.344867 21.6172
0.231336 -0.280905 21.7327
0.0227201 -0.434414 21.0412
-0.027238 -0.215419 21.8688
-0.299522 -0.101778 21.8263
-0.305345 0.164982 21.9225
-0.547875 -0.22783 20.9086
-1.00772 0.488406 21.7352
-0.943183 0.156288 21.6429
-0.866743 0.744865 21.7185
-1.81403 0.151626 19.7235
-1.7625 0.856959 20.8759
-1.32266 0.185575 21.4089
-1.30665 0.948576 21.4433
-2.33496 0.280779 19.251
-2.14152 0.87061 19.6923
1.61489 -0.248876 19.8349
2.25716 0.430762 18.9335
1.13235 -0.236868 19.1701
4.31539 -0.582994 20.6124
1.55044 -0.392656 21.3538
2.30827 0.0947832 21.6252
0.800981 -1.22794 18.1727
0.644421 -0.556153 21.7502
2.10182 -1.09271 21.3046
0.0671898 -0.752774 18.8812
-0.0123618 -0.45531 21.9549
0.607809 -0.644281 21.1173
-0.755996 -0.810065 18.4803
-0.752128 -0.69185 21.814
0.113929 -0.792843 21.3081
-1.26269 -0.946971 17.6975
-1.1564 -0.797582 21.5568
-0.4869 -1.22058 20.0786
-1.53442 -0.997913 16.5643
0.972923 0.443417 19.8826
0.545629 0.587885 19.9077
0.691157 0.426369 19.4958
1.6242 1.23448 19.974
1.34191 0.546782 20.7035
0.794651 0.834618 20.4898
1.83968 0.973958 20.9125
1.16286 0.310191 21.4188
0.758344 0.650084 21.1283
1.02827 0.391749 21.9156
0.462619 -0.0519473 21.7231
0.43893 0.172294 21.7421
0.317924 -0.103277 21.7981
0.140784 -0.25401 21.5802
0.216364 -0.0941128 21.6693
0.105822 -0.315321 21.592
-0.0837796 -0.427666 21.2883
-0.060381 -0.154452 21.3123
0.0446362 -0.452691 21.5469
-1.80035 -1.3438 19.6675
-1.19062 -0.890563 21.7628
-0.169686 -0.2819 21.7124
0.472576 0.0749224 21.9223
1.36432 0.624129 21.5059
1.845 0.737615 20.5169
-2.56838 -0.406095 18.8407
-2.15721 -0.830983 22.0635
-0.289848 -1.2104 18.2387
0.28991 -0.445978 18.3429
0.986622 -1.02886 18.8882
1.48871 -1.06699 18.6511
-1.13942 0.826128 19.5183
-1.6493 1.01933 20.6491
-1.70525 0.805807 21.6018
-0.590369 0.061198 21.8952
-0.185173 -0.231417 21.6307
0.0703644 -0.559953 21.297
0.0212911 -4.21155 17.7319
0.0296051 -1.50634 17.453
-0.0721157 -0.367697 14.6231
0.0176264 0.192388 14.8745
0.0508663 0.963469 12.9931
0.0485365 2.28417 11.2005
0.0161814 -1.25554 13.2771
-0.0254009 -0.314555 -0.772132
0.114927 1.79082 -4.16077
-0.0233126 1.91106 18.4814
-0.0453127 2.93184 20.2206
-0.0336141 3.8587 21.7112
-0.0117684 0.719184 22.1705
-0.00443205 0.081329 21.7484
0.0206154 -0.432792 21.9843
1.7703 -1.29802 19.6915
1.17361 -0.885702 21.7538
0.187296 -0.293178 21.6996
-0.475384 0.0788128 21.9257
-1.398 0.692823 21.4606
-1.97052 0.876887 20.3146
2.54919 -0.397821 18.876
2.15169 -0.830693 22.0759
0.303173 -1.19696 18.3365
-0.288584 -0.454762 18.4491
-0.969116 -0.987598 17.9289
-1.58354 -1.09393 16.3584
1.1426 0.854319 19.4911
1.6721 1.06635 20.6443
1.73898 0.841919 21.6101
0.593042 0.0720236 21.8999
0.192468 -0.223671 21.6156
-0.066488 -0.600686 21.2918
-0.0657536 -0.0286637 0.0986726
-0.0499749 -0.494611 1.80039
-0.0261832 -0.00307698 0.684879
0.0153506 -0.029117 0.0921516
0.00410155 0.0424266 0.225175
0.0566282 0.156892 1.16764
-7.23256 0.646495 4.77126
-0.691161 5.80051 4.31588
-0.301697 -0.153036 1.00687
0.0340063 -0.0675472 0.419509
-0.0915531 0.0138453 0.0246251
0.00622082 0.0143272 0.280969
0.044937 -0.456869 1.58708
0.0865448 -0.0377541 0.130018
0.010789 -0.00262785 0.507386
-0.00229969 0.0427273 0.217796
-0.0154655 -0.028775 0.0932359
-0.0614537 0.155427 1.15622
0.691716 5.7945 4.31184
7.19244 0.648824 4.78934
0.301649 -0.152668 1.00982
0.0939701 0.0128091 0.0256019
-0.0334374 -0.0667317 0.413214
-0.00600914 0.0139481 0.279305
-1.11526 -0.4736 7.08492
0.013687 -0.0180821 0.175967
0.00404399 -0.0159098 0.0578735
0 0 0
0.0660869 0.00812892 0.751842
0.0240911 -0.0329836 0.233536
0 0 0
0 0 0
-0.93544 -0.206004 0.65253
-0.0167742 -0.0661086 0.199204
-0.0020207 0.01724 0.202786
0 0 0
0.00149986 0.00347709 0.0157152
0 0 0
-1.82422e-05 -6.80847e-05 -0.000141282
0.000835285 0.000437445 0.0139486
1.08237 -0.484018 7.04387
0 0 0
-0.0122138 -0.0155198 0.173677
-0.00402014 -0.0158284 0.0572452
-0.0775952 0.000783426 0.76316
0 0 0
-0.0211333 -0.0299393 0.233994
0 0 0
0.934403 -0.205701 0.652079
0 0 0
0.016817 -0.0663058 0.199604
0.0024479 0.0171051 0.205718
-0.00147662 0.00342057 0.0154559
-0.000836886 0.000439212 0.0140018
0 0 0
1.90545e-05 -7.11317e-05 -0.000147281
-0.00967117 -0.00529985 0.0692212
-0.118573 0.0145299 0.0635104
0 0 0
-0.00141518 -0.835163 0.611489
-4.70935e-07 -4.22578e-06 0.000180392
-8.86883e-06 1.50886e-06 -5.45516e-05
0 0 0
-0.00866209 -0.0302289 0.00772915
4.78954e-07 3.44761e-07 5.10211e-05
6.53662e-06 -0.00048782 2.54942e-05
8.66672e-05 -6.09945e-06 0.0228436
0.00059905 0.000162444 0.0127683
0 0 0
0 0 0
0 0 0
0 0 0
1.93192e-05 -0.000103308 -4.61892e-05
3.48559e-07 1.7311e-07 0.000248219
-4.32539e-06 -1.46887e-05 -8.91464e-05
0.000260307 5.34516e-06 0.00439759
0.12331 0.0131432 0.0709888
0.0127372 -0.00701134 0.0915789
-0.000720002 -0.000132725 0.00471521
6.76455e-07 -7.66782e-06 0.000278825
0.00895042 -0.0297594 0.00756537
0 0 0
0 0 0
-8.77422e-05 -2.87213e-05 0.0228232
0 0 0
0 0 0
-0.000255284 5.27992e-06 0.00440166
3.47521e-06 -1.18917e-05 -7.18807e-05
0.000119134 0.0067142 0.148866
-5.81418e-18 -4.47149e-19 -7.78128e-17
0 0 0
3.69928e-05 0.000286131 0.00415293
0.00644692 -0.066232 0.322249
1.12231e-06 4.89459e-07 -6.713e-05
0 0 0
0 0 0
0 0 0
0 0 0
0.0155212 0.0335217 0.123327
-0.019736 0.0226653 0.146145
7.10018e-06 3.17081e-06 4.64635e-05
-2.35004e-06 0.0032989 0.00521948
-1.23751e-07 6.027e-05 0.00105105
-3.20461e-08 -6.0129e-07 -0.000107105
0 0 0
0.000251962 0.00875854 0.14889
0 0 0
-3.67676e-05 0.000305971 0.00413896
0 0 0
0 0 0
0.0186984 0.0217403 0.139825
-0.0154372 0.0336922 0.123121
-6.02861e-05 -0.000336873 0.0042172
0 0 0
0.0555267 -0.0386416 0.520127
-0.000376084 -0.00183781 0.00282676
0.00163763 -0.00300093 0.108533
0.0118532 0.0582608 0.423898
-0.00154268 0.0160238 0.150386
0 0 0
-0.000116866 -0.000163434 0.0108244
0 0 0
0.0292398 -0.0270133 0.135324
1.3489e-05 4.50229e-05 0.000635931
0 0 0
1.43735e-05 -5.59175e-05 0.00114993
0.0461217 -0.0709065 0.34358
-0.023341 -0.0316033 0.208281
0 0 0
0 0 0
-6.47654e-18 -2.21042e-18 -8.75439e-17
0 0 0