# vtk DataFile Version 2.0
tet_velo
ASCII
DATASET UNSTRUCTURED_GRID
POINTS 29498 float
-0.805119 0.575 -1.645
-0.643983 0.755 1.845
-0.705 1.125 -1.61982
-0.694168 1.355 1.725
0.772898 0.575 -1.675
0.814197 0.645 1.575
0.765 1.125 -1.59618
0.645 1.355 1.74748
-0.736783 0.649624 -0.481667
-0.77347 0.619225 0.681667
-0.764496 1.26477 -0.50488
-0.749724 1.33028 0.61006
0.783178 0.601819 -0.591667
0.750599 0.671498 0.491667
0.788234 1.2649 -0.481627
0.737456 1.33079 0.632927
-1.57174 0.206923 -2.545
-1.56022 0.275166 -1.64434
-1.51333 0.328097 -0.485394
-1.49241 0.316944 0.685391
-1.40233 0.382672 1.84505
-1.36549 0.438505 2.74961
-1.35982 0.481992 3.64402
-1.56398 0.504956 -2.52473
-1.56042 0.581656 -1.63019
-1.51266 0.653311 -0.470612
-1.50268 0.641577 0.699254
-1.4041 0.724943 1.86025
-1.37645 0.778734 2.76829
-1.37658 0.817988 3.66371
-1.51594 1.08856 -2.48861
-1.50299 1.16035 -1.6093
-1.51946 1.27764 -0.482246
-1.49809 1.32434 0.649859
-1.43886 1.36329 1.78559
-1.42832 1.42756 2.74215
-1.42959 1.47766 3.67155
-1.48441 2.03391 -2.41972
-1.48439 2.11257 -1.53248
-1.50881 2.22463 -0.418705
-1.53066 2.3112 0.699053
-1.53222 2.36949 1.83042
-1.52456 2.4153 2.75425
-1.51531 2.46329 3.68193
-0.810196 0.202385 -2.56165
-0.799415 0.268428 -1.66962
-0.748075 0.323489 -0.519566
-0.749458 0.304997 0.637037
-0.649976 0.375072 1.78896
-0.622062 0.431062 2.6988
-0.621922 0.474181 3.59725
-0.803874 0.497741 -2.5346
-0.6409 0.778077 2.73202
-0.643488 0.812122 3.62309
-0.751988 1.07137 -2.49223
-0.708942 1.42664 2.71778
-0.705479 1.4741 3.64136
-0.719809 2.0219 -2.42653
-0.71849 2.10137 -1.53892
-0.750885 2.22035 -0.427676
-0.789459 2.31176 0.684825
-0.805651 2.36919 1.81042
-0.800733 2.4137 2.73105
-0.78928 2.46095 3.65569
0.736182 0.196621 -2.59455
0.757495 0.25839 -1.71645
0.777132 0.297133 -0.620475
0.763591 0.324248 0.471737
0.822725 0.321461 1.57685
0.83452 0.388726 2.53652
0.834226 0.448944 3.47405
0.739961 0.494585 -2.55673
0.799402 0.72939 2.57709
0.803444 0.786423 3.50811
0.761261 1.06964 -2.49351
0.695545 1.40849 2.65554
0.728909 1.45792 3.56138
0.796382 2.01883 -2.43661
0.79728 2.0987 -1.54507
0.76163 2.21827 -0.436015
0.696862 2.31138 0.670216
0.648321 2.36876 1.78558
0.645596 2.41067 2.69165
0.661625 2.45552 3.60272
1.51043 0.193804 -2.61328
1.5311 0.254311 -1.73433
1.5378 0.295876 -0.649699
1.51474 0.329478 0.425773
1.54047 0.332336 1.52424
1.55326 0.380982 2.4694
1.55827 0.440225 3.41228
1.51501 0.495682 -2.57362
1.53933 0.568369 -1.6898
1.5426 0.614336 -0.60754
1.49666 0.667661 0.464203
1.50514 0.667398 1.55434
1.51585 0.717485 2.50718
1.52591 0.776191 3.44686
1.52797 1.08292 -2.50529
1.53996 1.15603 -1.60883
1.54296 1.26393 -0.506133
1.4709 1.33208 0.588901
1.39427 1.35995 1.69298
1.41998 1.40045 2.60131
1.45299 1.45017 3.51215
1.55007 2.0272 -2.44643
1.54868 2.10646 -1.55389
1.51346 2.21971 -0.44632
1.44461 2.30977 0.657062
1.38788 2.368 1.76803
1.37965 2.40917 2.66763
1.3939 2.45279 3.5729
-0.781539 0.85 -1.65889
-0.0161105 0.574374 -1.66063
-0.777944 0.605319 -1.06333
-0.693324 1.055 1.80925
0.085107 0.64361 1.76639
-0.755382 0.640457 1.26333
0.03 1.19811 -1.68111
-0.771313 1.23145 -1.06235
-0.024584 1.4027 1.78394
-0.742296 1.36299 1.16753
0.784127 0.85 -1.65077
0.786324 0.580124 -1.13333
0.759491 1 1.69113
0.800533 0.640114 1.03333
0.813261 1.23159 -1.0389
0.711795 1.36346 1.1902
-0.737765 0.651786 0.1
-0.80991 0.957199 -0.493273
0.0231977 0.606714 -0.536667
-0.828405 0.974752 0.645863
-0.0114354 0.593776 0.586667
-0.756041 1.29646 0.05259
0.011869 1.58406 -0.493253
-0.00613353 1.77167 0.621493
0.749678 0.653869 -0.05
0.829791 0.93336 -0.536647
0.819844 1.00114 0.562297
0.761704 1.2967 0.07565
-0.891775 0.903599 -1.06284
-0.819624 0.965975 0.076295
-0.860078 1.01488 1.21543
0.00354362 0.589434 -1.09833
0.00588115 0.609788 0.025
0.0368358 0.621641 1.14833
0.00694476 0.85 -1.88256
0.0302615 1.0275 1.82287
0.0209345 1.31359 -1.05063
0.00286774 1.75849 0.06412
-0.0153588 1.74859 1.17887
0.843673 0.89168 -1.08612
0.826199 0.967252 0.012825
0.887224 1.00057 1.11177
-1.18277 0.578328 -1.6376
-0.802267 0.421714 -1.65731
-0.804497 0.536371 -2.0898
-1.02404 0.739972 1.85263
-0.646979 0.565036 1.81698
-0.642442 0.766539 2.28851
-1.104 1.14267 -1.61456
-0.728494 1.09818 -2.05603
-0.711745 1.61319 -1.57937
-1.06652 1.35914 1.7553
-0.701555 1.39082 2.22139
-0.74991 1.8621 1.76771
0.765196 0.416695 -1.69573
0.75643 0.534793 -2.11587
1.15611 0.571684 -1.6824
0.818461 0.48323 1.57593
0.8068 0.687195 2.07605
1.15967 0.656199 1.56467
0.76313 1.09732 -2.04484
0.78114 1.61185 -1.57062
1.15248 1.14052 -1.6025
0.670272 1.38174 2.20151
0.646661 1.86188 1.76653
1.01963 1.35747 1.72023
-1.12472 0.651468 -0.476139
-0.742429 0.486556 -0.500616
-1.13808 0.630401 0.69046
-0.761464 0.462111 0.659352
-1.14198 1.27121 -0.493563
-0.757691 1.74256 -0.466278
-1.12391 1.32731 0.62996
-0.769591 1.82102 0.647443
0.780155 0.449476 -0.606071
1.16289 0.608078 -0.599603
0.757095 0.497873 0.481702
1.12363 0.669579 0.477935
0.774932 1.74159 -0.458821
1.1656 1.26442 -0.49388
0.717159 1.82109 0.651572
1.10418 1.33144 0.610914
-1.56598 0.241044 -2.09467
-1.56786 0.355939 -2.53487
-1.19097 0.204654 -2.55332
-1.53677 0.301631 -1.06487
-1.56032 0.428411 -1.63726
-1.17982 0.271797 -1.65698
-1.50287 0.322521 0.0999984
-1.513 0.490704 -0.478003
-1.1307 0.325793 -0.50248
-1.44737 0.349808 1.26522
-1.49755 0.479261 0.692322
-1.12093 0.310971 0.661214
-1.38391 0.410588 2.29733
-1.40321 0.553807 1.85265
-1.02615 0.378872 1.81701
-1.36266 0.460249 3.19681
-1.37097 0.60862 2.75895
-0.993777 0.434783 2.7242
-1.3682 0.64999 3.65386
-0.990874 0.478087 3.62063
-1.5622 0.543306 -2.07746
-1.53996 0.796758 -2.50667
-1.18393 0.501349 -2.52967
-1.53654 0.617483 -1.0504
-1.5317 0.871001 -1.61974
-1.50767 0.647444 0.114321
-1.51606 0.965478 -0.476429
-1.45339 0.68326 1.27975
-1.50039 0.98296 0.674557
-1.39028 0.751839 2.31427
-1.42148 1.04412 1.82292
-1.37651 0.798361 3.216
-1.40238 1.10315 2.75522
-1.00867 0.778406 2.75015
-1.40308 1.14782 3.66763
-1.01003 0.815055 3.6434
-1.50947 1.12445 -2.04895
-1.50017 1.56124 -2.45416
-1.13396 1.07996 -2.49042
-1.51123 1.219 -1.04577
-1.49369 1.63646 -1.57089
-1.50878 1.30099 0.0838065
-1.51414 1.75114 -0.450476
-1.46848 1.34381 1.21772
-1.51437 1.81777 0.674456
-1.43359 1.39542 2.26387
-1.48554 1.86639 1.80801
-1.42895 1.45261 3.20685
-1.47644 1.92143 2.7482
-1.06863 1.4271 2.72996
-1.47245 1.97047 3.67674
-1.06753 1.47588 3.65646
-1.4844 2.07324 -1.9761
-1.10211 2.02791 -2.42313
-1.4966 2.1686 -0.975592
-1.10144 2.10697 -1.5357
-1.51973 2.26791 0.140174
-1.12985 2.22249 -0.423191
-1.53144 2.34034 1.26474
-1.16006 2.31148 0.691939
-1.52839 2.3924 2.29234
-1.16893 2.36934 1.82042
-1.51994 2.43929 3.21809
-1.16265 2.4145 2.74265
-1.1523 2.46212 3.66881
-0.804806 0.235407 -2.11563
-0.807035 0.350063 -2.54812
-0.0370072 0.199503 -2.5781
-0.773745 0.295958 -1.09459
-0.02096 0.263409 -1.69304
-0.748766 0.314243 0.0587356
0.0145287 0.310311 -0.570021
-0.699717 0.340034 1.213
0.00706681 0.314623 0.554387
-0.636019 0.403067 2.24388
0.0863745 0.348266 1.68291
-0.621992 0.452621 3.14802
-0.631481 0.604569 2.71541
0.106229 0.409894 2.61766
-0.632705 0.643152 3.61017
0.106152 0.461563 3.53565
-0.777931 0.784554 -2.51342
-0.0319566 0.496163 -2.54566
-0.642194 0.7951 3.17756
-0.674921 1.10236 2.7249
0.0792511 0.753734 2.65456
-0.674484 1.14311 3.63222
0.0799779 0.799272 3.5656
-0.735899 1.54663 -2.45938
0.00463621 1.0705 -2.49287
-0.707211 1.45037 3.17957
-0.754838 1.92017 2.72441
-0.00669875 1.41756 2.68666
-0.74738 1.96753 3.64852
0.011715 1.46601 3.60137
-0.71915 2.06164 -1.98272
0.0382864 2.02036 -2.43157
-0.734688 2.16086 -0.983297
0.0393947 2.10004 -1.54199
-0.770172 2.26606 0.128575
0.00537246 2.21931 -0.431846
-0.797555 2.34048 1.24762
-0.0462985 2.31157 0.677521
-0.803192 2.39144 2.27073
-0.0786651 2.36898 1.798
-0.795007 2.43732 3.19337
-0.0775684 2.41218 2.71135
-0.0638275 2.45823 3.6292
0.746838 0.227506 -2.1555
0.738071 0.345603 -2.57564
1.1233 0.195213 -2.60392
0.767314 0.277762 -1.16846
1.1443 0.256351 -1.72539
0.770362 0.310691 -0.0743692
1.15747 0.296505 -0.635087
0.793158 0.322854 1.02429
1.13917 0.326863 0.448755
0.828622 0.355093 2.05668
1.1816 0.326898 1.55055
0.834373 0.418835 3.00528
0.816961 0.559058 2.55681
1.19389 0.384854 2.50296
0.818835 0.617683 3.49108
1.19625 0.444585 3.44316
0.750611 0.782112 -2.52512
1.12749 0.495134 -2.56518
0.801423 0.757906 3.0426
0.747474 1.06894 2.61631
1.15763 0.723438 2.54214
0.766177 1.12217 3.53474
1.16468 0.781307 3.47748
0.778821 1.54423 -2.46506
1.14461 1.07628 -2.4994
0.712227 1.4332 3.10846
0.670571 1.90958 2.67359
1.05776 1.40447 2.62843
0.695267 1.95672 3.58205
1.09095 1.45404 3.53677
0.796831 2.05876 -1.99084
1.17322 2.02301 -2.44152
0.779455 2.15849 -0.99054
1.17298 2.10258 -1.54948
0.729246 2.26483 0.117101
1.13755 2.21899 -0.441167
0.672592 2.34007 1.2279
1.07074 2.31058 0.663639
0.646959 2.38971 2.23861
1.0181 2.36838 1.7768
0.653611 2.43309 3.14718
1.01262 2.40992 2.67964
1.02776 2.45416 3.58781
1.52076 0.224058 -2.1738
1.51272 0.344743 -2.59345
1.53445 0.275094 -1.19201
1.53522 0.41134 -1.71206
1.52627 0.312677 -0.111963
1.5402 0.455106 -0.62862
1.52761 0.330907 0.975007
1.5057 0.498569 0.444988
1.54686 0.356659 1.99682
1.5228 0.499867 1.53929
1.55576 0.410604 2.94084
1.53455 0.549234 2.48829
1.54209 0.608208 3.42957
1.52717 0.532025 -2.13171
1.52149 0.7893 -2.53945
1.54096 0.591352 -1.14867
1.53965 0.8622 -1.64931
1.51963 0.640998 -0.0716686
1.54278 0.939133 -0.556836
1.5009 0.667529 1.00927
1.48378 0.999872 0.526552
1.51049 0.692441 2.03076
1.4497 1.01367 1.62366
1.52088 0.746838 2.97702
1.46791 1.05897 2.55425
1.48945 1.11318 3.47951
1.53396 1.11947 -2.05706
1.53902 1.55506 -2.47586
1.54146 1.20998 -1.05748
1.54432 1.63125 -1.58136
1.50693 1.29801 0.041384
1.52821 1.74182 -0.476226
1.43258 1.34602 1.14094
1.45776 1.82093 0.622981
1.40712 1.3802 2.14715
1.39107 1.86398 1.73051
1.43649 1.42531 3.05673
1.39981 1.90481 2.63447
1.42345 1.95148 3.54252
1.54938 2.06683 -2.00016
[...]
POINT_DATA 29498
VECTORS point_vectors float
-5.24508 -7.14458 20.616
0.0779307 0.0466495 0.194704
-1.69418 1.26675 3.47874
-0.0593463 -0.114598 0.118096
6.27422 -7.98501 21.1551
-0.105515 0.609033 2.91992
1.54324 1.09705 3.68038
0.0679752 -0.142511 0.104495
0.000381217 0.00119013 0.00401351
0.0882315 -0.112301 1.60462
0 0 0
0 0 0
-0.137594 0.108046 2.57202
-0.00344342 -0.0021418 0.0704233
0 0 0
0 0 0
-0.704875 -0.437655 19.9778
-1.10686 -0.759262 20.6499
-0.352257 -0.489405 21.3411
0.1067 -0.250615 21.4388
0.75022 0.123766 21.4787
1.12362 0.287605 21.1778
1.21475 0.251013 20.7942
-0.851825 -0.380731 19.8665
-1.45855 -0.660289 20.6279
-0.488046 -0.594583 21.3998
0.0436633 -0.400927 21.5048
0.920773 -0.21116 21.5438
1.32217 -0.146646 21.2301
1.32298 -0.16294 21.056
-1.07891 -0.0141311 19.6886
-1.9579 -0.0119656 20.4709
-1.17411 -0.498621 21.3614
-0.451815 -0.489952 21.5945
0.327737 -0.64976 21.606
0.731762 -0.715665 21.1754
0.834367 -0.707151 21.5062
-0.711015 0.372201 19.9258
-1.02335 0.534639 20.3687
-0.971473 0.334073 21.0668
-0.442279 -0.0599583 21.4126
-0.0580568 -0.276543 21.3081
0.0849468 -0.363237 21.1732
0.10773 -0.440589 20.9786
-0.818967 -1.02901 19.3115
-1.7052 -2.9886 21.0059
-0.16366 -0.238251 20.9805
0.212565 -0.0470189 20.0122
0.584537 1.20889 18.0787
1.04437 1.78638 17.584
1.30415 1.87853 18.3502
-1.17772 -0.991859 18.7798
1.78631 1.08983 8.52995
2.33924 1.65314 12.5992
-1.55311 0.251288 18.0285
0.116672 -1.23106 6.24833
0.944394 -1.06553 10.6476
-0.660582 0.900807 19.4357
-1.14513 1.66876 20.0063
-1.47558 1.63433 21.2047
-0.66425 0.403485 21.7836
-0.223331 -0.218092 21.5344
-0.0463565 -0.48181 21.3066
-0.0235038 -0.51389 20.9066
0.78037 -1.06874 19.2895
1.69868 -3.05229 20.8513
0.209384 -0.408819 21.601
-0.221754 -0.0961489 19.9421
-0.660622 0.801738 20.7824
-1.25353 1.41763 19.9243
-1.48946 1.30668 19.705
1.15635 -1.01059 18.7003
-1.92255 1.08914 11.6091
-2.65914 1.32188 15.4823
1.5779 0.230093 18.0543
-0.276769 -1.12416 6.30801
-1.33086 -1.14228 11.9541
0.697706 0.838859 19.4806
1.21735 1.53904 20.0463
1.50639 1.62905 21.2081
0.696729 0.465661 21.8751
0.297104 -0.176405 21.5866
0.105321 -0.458618 21.3393
0.189917 -0.582705 21.1063
0.673633 -0.430854 19.9282
1.10181 -0.769167 20.5468
0.477492 -0.518893 21.298
0.0278306 -0.298405 21.3901
-0.451427 -0.0170011 21.4684
-0.855899 0.148885 21.2135
-0.939856 0.185093 20.8296
0.840616 -0.392236 19.8181
1.45264 -0.656712 20.5459
0.642697 -0.577098 21.3664
0.0864865 -0.399304 21.4524
-0.582985 -0.140531 21.5898
-1.07791 -0.0689766 21.2688
-1.15558 -0.017169 20.9547
1.04199 -0.0343282 19.7047
1.77973 -0.071405 20.4941
1.15083 -0.475009 21.3615
0.431269 -0.506272 21.633
-0.419984 -0.719401 21.6429
-0.791911 -0.748888 21.2536
-0.818285 -0.739757 21.698
0.685257 0.31889 19.9573
1.00876 0.477133 20.3765
0.991381 0.331224 21.0647
0.507509 -0.0269842 21.4554
0.114818 -0.296133 21.37
-0.0620229 -0.4207 21.2574
-0.132254 -0.549775 21.1693
-0.272205 -0.0178541 0.314692
0 0 0
0.0271748 0.0322193 0.861056
-0.0499324 -0.0848427 0.0125131
0.00362832 0.0130093 0.0879389
0.0122941 0.00811877 0.472637
0.00237476 0.0595319 0.186191
-0.626977 -0.448505 1.50022
0.000407462 -3.69813e-05 -0.00449367
0 0 0
0.346725 -0.0268898 0.443846
0.117318 -0.312281 4.82802
-0.000166614 -0.00215265 0.00147821
-0.00958691 -0.000411403 0.989846
0.479757 -0.319251 1.50337
0 0 0
0.00584485 -0.00390706 0.136455
0.000562018 -0.00156049 0.0347207
0 0 0
-0.00423365 0.024822 0.0805526
0.00104637 -0.0344738 0.286327
0 0 0
-0.000123861 0.0179099 0.0349394
3.29843e-06 1.92055e-06 0.000322217
-0.000404515 0.000272813 0.0170199
-0.00118516 -0.0014617 0.0323964
0.000178396 0.00388994 0.0105999
0 0 0
-0.00116147 -0.00117559 0.0663501
-0.000999206 0.00801572 0.0405702
0 0 0
0 0 0
-6.7604e-21 5.77441e-19 5.41742e-17
-8.40272e-05 0.000585294 0.0222303
-0.000163935 -0.00639681 -0.000395904
0 0 0
-7.39561e-05 0.000809281 0.00394955
4.80847e-05 0.00289387 0.0251582
0.000133333 -0.000561487 0.0123266
0 0 0
-0.00019786 0.00850163 0.0436861
0 0 0
-2.77671 -1.61299 20.7504
-2.68398 -4.28012 21.1899
-2.71236 -2.51744 18.2489
1.66773 0.322596 17.6355
0.332359 1.37745 8.73544
1.12321 0.30997 4.68482
-4.24491 0.684375 20.3161
-4.12162 1.61845 16.3032
-2.4324 2.75935 19.7687
0.493551 -0.777332 19.1077
-0.727305 -0.979675 3.41412
-0.0608351 -0.449459 18.528
2.7092 -4.40905 20.9789
2.6977 -2.60651 18.0705
2.75472 -1.59647 20.6668
-0.751569 0.919419 16.7598
-1.22501 1.02614 8.89127
-1.04523 0.0546111 21.1513
4.29154 1.4447 16.5428
2.55276 2.50658 19.8581
3.62478 0.282296 20.5261
0.65881 -1.11879 3.06745
0.0486945 -0.430157 15.6447
-0.766252 -0.685132 17.7323
0.0987681 -0.757604 21.1535
0.0398511 0.39285 11.5421
0.278703 -0.465483 20.8274
0.529072 -0.255255 14.7045
-1.97433 -1.17986 21.6709
-4.06686 1.96105 21.4589
-0.765859 -0.77038 20.8547
-0.974995 0.218958 20.2257
-0.187726 0.0169157 16.7838
0.331409 -0.876286 21.7866
-0.520394 -0.269185 12.5663
-0.0937967 -0.480676 20.157
4.07783 1.93712 21.5467
1.86448 -1.21467 21.7974
0.739253 0.19907 18.1499
0.524358 -0.804723 20.2415
-0.993007 -0.650759 20.2041
-0.782686 -0.415772 19.9184
-0.824352 -0.717343 19.7111
-0.791716 -0.657942 21.1797
-1.29072 -0.728974 20.6642
-1.5763 -1.50953 20.7363
-0.0909396 -0.368115 21.3675
-0.428172 -0.54272 21.3719
-0.188652 -0.494646 21.6333
0.39552 -0.0954606 21.5453
0.0815996 -0.321277 21.4686
0.206812 -0.200011 21.579
0.98871 0.216027 21.3389
0.85879 -0.0192737 21.5192
1.06227 0.656196 21.2443
1.19168 0.272231 20.9083
1.27781 0.0661404 21.1868
1.54534 0.921468 20.7424
1.27758 0.00467596 21.0542
1.62249 0.805951 20.4665
-1.26121 -0.560176 20.1008
-1.00853 -0.237881 19.7478
-1.10005 -0.613889 19.4254
-1.06652 -0.6539 21.2599
-1.82303 -0.424334 20.5578
-0.178493 -0.511007 21.4168
-0.790699 -0.635052 21.4012
0.418713 -0.302182 21.6691
-0.176908 -0.548288 21.56
1.19081 -0.190555 21.3788
0.713556 -0.58613 21.5486
1.39251 -0.0677367 21.2439
1.10204 -0.598997 21.2363
2.14145 0.338265 18.3952
1.18449 -0.474101 20.8787
2.12653 0.15858 19.0094
-1.61688 0.0183218 19.8958
-0.924323 0.280336 19.7753
-1.39672 0.0528196 19.0867
-1.6237 -0.283633 21.1514
-1.53974 0.447799 20.3841
-0.804507 -0.537147 21.5098
-1.29759 0.037334 21.2281
-0.0757853 -0.520632 21.6727
-0.572852 -0.202242 21.5377
0.553417 -0.709427 21.4062
0.00262783 -0.447923 21.4581
0.839272 -0.713611 21.1709
0.305613 -0.620084 21.2217
0.862893 -1.01878 19.8356
0.510873 -0.51903 20.4426
1.08137 -1.15858 19.8233
-0.905235 0.499102 20.0996
-0.748881 0.604075 19.6959
-1.07706 0.477772 20.7649
-1.21792 1.04693 20.2144
-0.73296 0.134265 21.3277
-1.28922 0.776141 21.1581
-0.235764 -0.183448 21.4252
-0.600238 0.133448 21.5734
0.0190912 -0.326807 21.243
-0.134474 -0.288374 21.4391
0.152555 -0.415283 21.0113
0.058478 -0.424593 21.2321
0.031265 -0.425596 21.4114
-1.45017 -2.08748 19.4758
-1.00059 -1.04149 19.075
-0.0396611 -1.54616 18.7808
-0.71019 -1.34851 22.2547
-0.0199725 -4.23771 21.7588
0.0417589 -0.0582834 20.3478
0.00328062 -0.40554 20.184
0.428774 0.389522 18.8637
-0.0135897 -0.0306194 17.8136
0.786665 1.53216 17.8832
-0.0177243 0.722594 16.9225
1.25205 1.99411 17.2173
1.48223 1.7711 12.854
-0.0301827 1.49943 16.1609
1.93164 1.94549 16.422
-0.141714 2.32416 15.873
-1.50626 -0.553116 18.189
-0.0717203 -1.606 17.7194
2.42859 1.45319 10.7768
1.09691 -0.433838 4.3921
-0.104975 0.51215 2.99126
2.00471 0.245305 8.68516
-0.472374 2.30115 5.94058
-1.13282 0.97576 18.7479
0.00962007 0.554595 16.3657
1.00071 -1.18272 8.63866
0.0322157 -0.890612 19.5667
-0.210305 1.79203 -4.43687
0.329329 -1.03488 18.6158
-0.0239906 1.00882 -4.88849
-0.921044 1.37738 19.6223
0.054546 1.2254 19.1469
-1.40617 1.73376 20.4947
0.0558054 2.34403 19.7351
-1.12164 1.01355 21.7519
0.0159337 3.07727 21.1449
-0.372792 0.000800165 21.694
-0.0498998 0.931148 22.0824
-0.150925 -0.356294 21.4105
-0.0311351 0.0766598 21.7471
-0.0530186 -0.586976 21.1726
-0.0193512 -0.213715 21.3842
0.0866787 -0.622269 20.7255
1.37459 -2.07396 19.4278
0.96027 -1.07901 18.9862
0.778048 -0.712835 19.6533
0.804395 -1.49991 22.1844
1.55519 -1.52756 20.612
-0.0550944 -0.0510944 20.7842
0.329421 -0.623582 21.5983
-0.425836 0.164392 20.245
-0.110032 -0.298276 21.5308
-0.990062 1.24403 20.3936
-0.679156 0.240415 21.6975
-1.44673 1.54097 19.7327
-1.60014 1.56134 17.0597
-1.22064 0.570614 21.2176
-2.08794 1.36815 17.432
-1.35767 0.55773 20.7243
1.48133 -0.563817 18.1151
1.08227 -0.648048 19.3592
-2.46937 1.29689 13.9678
-1.47498 -0.643368 7.34511
-1.75573 0.238489 20.3332
-2.47281 -0.160916 12.2565
-1.82984 0.0489056 20.6077
1.17165 0.922355 18.8128
1.39501 0.0396486 19.1103
-1.02984 -1.14985 9.18516
0.0792717 -0.941425 18.6085
-1.01345 -1.06862 19.7583
-0.368572 -1.14543 18.1231
-1.15587 -1.20543 20.1232
0.976376 1.28511 19.6673
0.741173 0.536863 19.7312
1.44437 1.64879 20.5092
1.21353 0.937914 20.2361
1.16039 1.11502 21.8105
1.31241 0.777586 21.1617
0.419041 0.0336519 21.757
0.664259 0.166186 21.6311
0.216383 -0.320393 21.452
0.212969 -0.292193 21.4853
0.118269 -0.578533 21.1694
0.0201885 -0.484509 21.2765
-0.0290658 -0.543553 21.2132
0.950934 -0.623473 20.1384
0.757191 -0.411946 19.8732
0.866652 -0.686529 21.0879
1.27366 -0.727649 20.5598
0.196456 -0.392473 21.3487
0.559121 -0.5596 21.3224
-0.164895 -0.182077 21.4719
0.0584987 -0.35631 21.4114
-0.694729 0.0936707 21.3739
-0.503905 -0.0644054 21.5055
-0.941572 0.203305 21.0609
-0.96565 0.0654266 21.2338
-1.05605 0.0904567 20.9597
1.2481 -0.558675 20.0442
1.00546 -0.227001 19.7217
1.13436 -0.650858 21.153
1.74829 -0.421234 20.5188
0.287432 -0.500163 21.4124
0.846498 -0.586528 21.3863
-0.144835 -0.290012 21.5872
0.228959 -0.509852 21.5375
-0.900353 -0.0871442 21.433
-0.642845 -0.444111 21.6805
-1.13587 -0.0949853 21.0649
-1.09515 -0.499839 21.3329
-1.14464 -0.407132 20.8222
1.54298 -0.0167368 19.9375
0.896121 0.238541 19.8099
1.53348 -0.2843 21.0853
1.46723 0.354019 20.4121
0.773167 -0.54272 21.5385
1.30074 0.0219589 21.2319
0.0377597 -0.536068 21.7324
0.612986 -0.228373 21.5948
-0.609914 -0.744101 21.4855
0.0118336 -0.532379 21.5105
-0.959339 -0.754783 21.068
-0.322878 -0.739576 21.2892
-0.495633 -0.610208 20.7142
0.878456 0.439338 20.1143
1.07101 0.441144 20.7547
0.774957 0.162343 21.3631
0.284675 -0.174082 21.4789
0.0113875 -0.385546 21.2883
-0.147231 -0.469166 20.9083
-1.14455 -0.610138 20.1477
-1.95463 -2.40778 18.9827
-1.30756 -1.15847 19.9178
-1.99005 -1.1072 19.5349
-0.977934 -0.688668 19.5485
-2.08341 -1.62005 20.7734
-0.91893 -0.673096 21.2269
-0.502774 -0.807445 18.7713
-0.879617 -1.02904 21.6279
-1.16323 -1.19329 22.1053
-0.0580503 -0.566793 21.7468
-0.121079 -0.438349 21.3892
0.339938 0.0855128 12.7508
0.0646303 -0.310275 21.5252
0.298466 -0.582397 20.6276
0.266438 -0.311629 21.2728
0.406173 -0.199177 21.604
0.486018 0.314127 11.8901
0.548355 0.118984 21.5532
0.727985 -0.131281 19.6982
1.47265 0.601741 19.7831
1.10969 0.0293742 21.3727
0.918146 1.39705 10.8853
1.34769 0.81253 20.8713
1.94131 0.273489 18.4691
1.93186 0.778984 19.4553
1.35291 0.121606 21.144
1.92415 1.9283 15.036
1.58676 0.946029 20.8761
2.2576 0.433112 18.3835
1.92138 0.623834 19.6682
-1.56335 -0.328467 19.9746
-4.20073 -1.25179 16.4098
-2.74936 0.336981 18.954
-1.33257 -0.354944 19.1625
-4.18283 -0.892521 20.6004
-1.36254 -0.553969 21.2646
-2.74834 -0.550842 21.8111
-0.488374 -1.48742 20.5592
-0.448776 -0.629648 21.4692
-1.34713 -1.12227 21.4271
-0.0955896 -0.732206 19.3541
0.185183 -0.537781 21.6795
-0.129892 -0.556297 20.1259
1.23883 -0.286777 16.4585
0.936305 -0.609487 21.4111
-0.0396681 -1.068 2.02523
0.576781 -0.914702 19.4512
1.70005 -0.585518 17.8126
1.10609 -0.572551 21.2332
2.06535 -0.0908132 7.54767
1.1029 -1.04858 19.805
1.95353 -0.688688 18.1075
-1.29893 0.42461 19.9665
-1.8764 2.0521 18.775
-1.00786 0.869425 19.8761
-1.12837 0.53345 19.3458
-2.24438 1.24101 20.1695
-1.49739 0.243767 20.8812
-2.98001 2.17041 20.3649
-1.35726 0.976691 20.6789
-2.17121 0.384735 21.4037
-0.966363 -0.105943 21.4564
-2.63533 0.616439 21.9001
-0.985873 0.437521 21.5163
-0.873655 -0.135276 21.8395
-0.249147 -0.328311 21.5323
-0.213605 -0.152146 19.1641
-0.33095 -0.111489 21.5617
-0.127863 -0.574162 21.5741
0.162771 -0.518393 21.3536
-0.0758606 -0.61174 19.0313
-0.0132651 -0.373511 21.3101
0.192434 -0.825878 21.3473
0.361329 -0.610553 21.1324
0.25161 -1.2236 20.0996
0.137501 -0.553774 21.0288
0.453146 -0.856683 21.0023
1.8545 -2.41756 18.8702
-0.0571345 -3.50627 18.9257
-0.15779 -6.05675 15.7784
-0.0570103 -1.62211 18.2889
0.0877874 -5.51353 23.2538
0.617548 -1.20709 20.6335
0.0181993 -1.51216 22.3181
-0.0457132 0.0919402 9.56616
-0.354811 0.184177 13.8815
-0.00477931 -0.0966015 18.2651
-0.0236823 -0.0675958 9.63079
-0.678223 0.121736 14.6367
-0.0501421 0.250292 17.1488
0.087252 0.525586 9.00641
-1.15851 1.4583 16.4313
-0.015734 1.1481 16.326
0.0546301 -0.297466 1.48561
-0.0437617 1.03241 8.70354
-1.87536 1.62643 17.5027
-0.0928868 1.71466 15.799
-0.37639 0.731795 3.1787
-0.474334 2.26549 10.8806
4.27851 -1.34025 16.3506
0.0994654 5.02847 11.7646
-0.0477349 -0.8551 16.5443
-0.377118 -1.18074 3.38343
-0.0422103 0.414718 -3.34092
-0.251619 0.877648 -1.8989
-2.11342 -0.280358 10.0798
-0.172099 2.15825 -6.72982
-0.430901 2.00718 -1.2257
1.96077 1.90783 18.8478
0.0659536 1.88302 19.3325
0.0388795 1.59092 17.9908
0.119429 4.23461 19.314
3.02341 2.04011 20.4034
0.0549445 2.77823 20.1373
0.0416782 6.33198 20.1432
2.65958 0.526946 21.26
-0.0470176 2.08521 22.1086
0.00870554 0.698333 15.5331
0.0360361 -0.146781 16.7404
-0.0354639 0.298429 21.9342
0.0129992 0.187085 7.53404
0.161633 -0.627868 17.717
-0.0296216 -0.0616084 21.5904
0.00164434 0.000647431 9.71235
-0.132585 -1.17928 19.7986
-0.00828966 -0.482696 21.5424
0.0108451 -0.537642 12.2124
1.10956 -0.599858 20.0919
1.27977 -1.15769 19.8308
1.98761 -1.121 19.4737
0.934827 -0.69894 19.4921
2.10514 -1.66397 20.6399
0.994077 -0.686517 21.1262
0.971025 -1.11394 21.5158
1.38799 -1.23019 21.8587
0.315281 -0.708782 21.7148
0.240139 -0.452311 21.3739
0.0085461 -0.376474 21.5081
-0.108628 -0.665575 21.1015
-0.127746 -0.409219 21.1783
-0.16261 -0.244525 21.5253
-0.2928 -0.144871 21.6694
-0.20446 -0.387433 20.8573
-0.866922 0.177239 21.6066
-0.791953 0.0177199 21.4182
-1.02097 0.486537 21.51
-1.5767 0.184543 20.8694
-1.53158 0.4682 21.0663
-1.06342 0.0868338 21.0157
-1.36646 0.637767 21.0012
-1.90978 0.192173 20.4867
-1.56295 0.455513 20.8935
1.51607 -0.325146 19.9559
2.65924 0.249062 19.1524
1.31006 -0.361417 19.1482
3.72524 -0.834624 20.6533
1.36579 -0.537886 21.166
2.48686 -0.658321 21.6073
0.699169 -1.21827 21.6338
0.480693 -0.589528 21.4711
1.15112 -1.25814 21.2149
-0.0216633 -0.527096 19.5839
-0.103574 -0.43803 21.7119
-0.148886 -0.414097 19.2497
-1.39389 -0.186538 18.6066
-0.921788 -0.476851 21.4848
-0.766618 -1.00395 18.8031
-1.8349 -0.523868 19.4762
-1.17146 -0.547538 21.1729
-1.20551 -1.07324 20.3973
-2.01016 -0.677818 19.9452
1.246 0.350545 19.9955
1.00091 0.787101 19.9152
1.11598 0.489728 19.4002
2.15124 1.00195 20.2119
1.46563 0.201259 20.8642
1.35961 0.928115 20.6817
2.20147 0.360202 21.4354
0.997072 -0.121022 21.4885
1.03616 0.49106 21.5429
0.947493 -0.201817 21.9369
0.262384 -0.363283 21.5928
0.397752 -0.118755 21.6211
0.199536 -0.718578 21.6158
-0.159902 -0.615013 21.3278
0.107912 -0.407442 21.3722
-0.151828 -0.922222 21.3044
-0.367658 -0.728052 21.2643
-0.103554 -0.622917 21.0146
-0.41073 -1.10247 21.2279
-1.63921 -1.17432 19.7601
-0.989432 -1.08866 21.8421
0.192288 -0.395752 21.2786
0.695591 0.0125478 20.819
1.72499 0.650219 19.6578
2.02783 0.888655 19.2806
-2.65508 -0.574466 19.1065
-1.80735 -1.21431 22.346
-0.176113 -1.18755 19.5708
0.353875 -0.327494 18.6093
1.40442 -0.524759 17.2587
1.83354 -0.535446 17.6061
-1.75681 1.00294 19.4925
-2.27568 0.760829 20.8588
-1.52864 0.0477065 21.8002
-0.412481 -0.354503 21.7865
0.0282856 -0.690078 21.4802
0.332636 -0.712272 21.0385
-0.0913223 -4.62685 17.8778
-0.0164146 -0.509359 14.2175
-0.0137367 0.0885352 9.09156
-0.0635199 0.207939 9.18976
0.0267387 0.700211 7.91497
-0.350289 1.55546 10.3781
-0.0610078 -2.27088 9.51703
0.0996408 -0.47045 -0.410133
-0.544993 0.875627 -1.8075
0.0814511 3.51726 17.9204
0.10339 4.37547 19.2392
-0.0313665 2.8794 19.3637
0.0312685 0.0143687 12.8984
0.056781 0.136651 8.65199
0.0282813 -0.645576 12.2682
1.59875 -1.20128 19.6725
1.16903 -1.18269 21.6897
-0.0735017 -0.477236 21.5185
-0.311855 -0.282345 21.4917
-1.31979 0.426336 21.2266
-1.68945 0.522488 20.7223
2.60837 -0.602905 19.1533
1.88855 -1.04672 22.036
0.130028 -1.08718 20.7833
-0.192237 -0.156971 19.6722
-1.63219 -0.491153 19.0792
-1.90343 -0.47954 19.9588
1.72006 0.885366 19.5761
2.25999 0.678307 20.8515
1.60744 0.0124011 21.8872
0.476002 -0.455549 21.8695
0.0654254 -0.808715 21.503
-0.353599 -0.888774 21.0337
0 0 0
0.00641909 -0.141053 0.911209
-0.187115 -0.215406 5.38167
-0.0125387 -0.0797548 0.0334634
0.00636499 0.0462895 0.147891
0.062829 0.147692 1.2037
-0.295947 0.116077 0.386109
-0.00683895 0.14598 0.44427
-0.617548 -0.027442 1.6322
0.00382816 -0.032142 0.0395895
0 0 0
0 0 0
-0.0780764 -0.305179 0.980521
0 0 0
0.0771925 -0.424611 7.75698
0.0317265 0.0798491 0.369892
0 0 0
-0.000237305 0.00195584 0.489324
0.0221738 0.139503 0.411865
0.935252 0.110365 1.39292
0.318556 -0.0188855 0.873341
0 0 0
-0.00783175 -0.0298642 0.0306518
0 0 0
0.00115941 -0.00683041 0.0737921
0.0108159 -0.0060389 0.160872
0 0 0
0 0 0
0.0199107 0.00485003 0.51321
0.00862019 -0.00590744 0.179579
-0.198978 0.0682745 1.31458
0.00285653 -0.00421506 0.0903454
-0.102221 -0.101323 0.272682
-0.000436114 0.00328145 0.0653063
0 0 0
-0.0561583 0.0714473 0.156624
0 0 0
0.00122835 0.0133794 0.0475235
0 0 0
0.0068441 0.00306326 0.0546212
-0.0151378 -0.0193423 1.71716
-0.00170564 0.00425396 0.082295
-0.00288015 0.00376028 0.192625
0 0 0
-0.171722 0.0115755 1.69307
7.95922e-18 7.58002e-19 -7.538e-17
-0.00413962 0.0022185 0.150796
4.73038e-05 0.00109966 0.0018847
0.0298253 -0.0232298 0.0858463
0.0549478 0.0706304 0.15629
-0.00349888 0.0142874 0.15904
0 0 0
0 0 0
-0.0202152 0.00124052 0.179766
-0.00289877 0.0130851 0.0353603
0 0 0
0 0 0
-0.642491 -0.225618 0.480911
0 0 0
-0.122938 -2.67235 1.29778
-0.00367386 0.00389675 0.127286
-0.000104598 8.87618e-05 0.0134685
0 0 0
3.70602e-18 2.71476e-18 4.46874e-21
0 0 0
0.00148122 -0.0209089 0.00506723
-8.10803e-05 0.0136604 0.200471
0 0 0
0 0 0
0.000636885 0.00877695 0.0446484
-0.160894 -0.416376 1.84579
-0.000434301 0.000135533 0.000873557
0.000245583 -0.0022764 0.000218002
0.000306051 -0.00163345 0.0131322
0 0 0
0.000196553 -0.00024847 0.00389247
2.41261 -0.606703 1.00385
0 0 0
0 0 0
0 0 0
0.0209837 -0.0252622 0.00131128
-0.0438532 0.0640448 0.72229
-0.000270527 0.000129903 0.0119236
0 0 0
0 0 0
0 0 0
-3.18498e-05 -5.21342e-05 0.0012872
3.43639e-18 -9.3037e-18 -6.83e-17
0 0 0
0.000731905 9.62827e-05 0.0107581
0.0676391 -0.113286 0.306609
-0.000832527 0.00442885 0.0216138
0 0 0
0 0 0
-0.00159765 0.0124756 0.0519765
0 0 0
-0.000141721 0.00139191 0.0393029
0 0 0
0 0 0
-0.0419122 0.0429844 0.438935
0.000721011 0.00687422 0.0141246
-9.44042e-05 0.0361838 0.109076
8.22613e-05 0.000541636 0.0158826
8.3474e-05 -0.000276554 0.00821814
0 0 0
-9.02384e-20 -1.59933e-17 -1.29546e-16
0 0 0
-0.000623376 0.00455375 0.0592501
3.26451e-05 0.00343151 0.0133167
0 0 0
0.0593554 0.0519313 0.536176
0 0 0
-0.00355035 -0.00930321 0.140737
-0.184856 -0.0763376 0.649985
0 0 0
-0.00125564 -0.0136257 0.0364797
0 0 0
-6.37189e-05 0.00226037 0.0173149
0 0 0
0.000132151 0.00158361 0.00606506
-0.000715881 0.00587327 0.156152
-0.00116551 0.0419723 0.202321
0.227679 0.0183981 0.736571
0.0021498 -0.00213452 0.0289212
-0.00401994 -0.000168801 0.0548403
0 0 0
0.000132828 9.18803e-05 0.00878506
0 0 0
0.00310632 0.000685174 0.0544314
2.36592e-18 -6.82863e-19 -3.80245e-17
0.00379792 0.00172036 0.0531493
-0.00111412 0.000160053 0.0123105
2.72441e-18 3.69926e-18 7.24787e-17
0 0 0
-4.93864e-05 8.5915e-05 0.00275397
0.000154697 0.0002109 0.012151
-0.529369 -1.85702 1.60418
1.25685 -2.04978 1.46599
-0.337595 0.69304 0.572684
0.39708 0.77041 0.640199
-0.0194518 -0.101533 0.0539876
0.000795957 -0.0328975 -0.00282313