# vtk DataFile Version 2.0
tri_press
ASCII
DATASET UNSTRUCTURED_GRID
POINTS 3682 float
-0.805119 0.575 -1.645
-0.643983 0.755 1.845
-0.705 1.125 -1.61982
-0.694168 1.355 1.725
0.772898 0.575 -1.675
0.814197 0.645 1.575
0.765 1.125 -1.59618
0.645 1.355 1.74748
-0.736783 0.649624 -0.481667
-0.77347 0.619225 0.681667
-0.764496 1.26477 -0.50488
-0.749724 1.33028 0.61006
0.783178 0.601819 -0.591667
0.750599 0.671498 0.491667
0.788234 1.2649 -0.481627
0.737456 1.33079 0.632927
-1.57174 0.206923 -2.545
-1.56022 0.275166 -1.64434
-1.51333 0.328097 -0.485394
-1.49241 0.316944 0.685391
-1.40233 0.382672 1.84505
-1.36549 0.438505 2.74961
-1.35982 0.481992 3.64402
-1.56398 0.504956 -2.52473
-1.56042 0.581656 -1.63019
-1.51266 0.653311 -0.470612
-1.50268 0.641577 0.699254
-1.4041 0.724943 1.86025
-1.37645 0.778734 2.76829
-1.37658 0.817988 3.66371
-1.51594 1.08856 -2.48861
-1.50299 1.16035 -1.6093
-1.51946 1.27764 -0.482246
-1.49809 1.32434 0.649859
-1.43886 1.36329 1.78559
-1.42832 1.42756 2.74215
-1.42959 1.47766 3.67155
-1.48441 2.03391 -2.41972
-1.48439 2.11257 -1.53248
-1.50881 2.22463 -0.418705
-1.53066 2.3112 0.699053
-1.53222 2.36949 1.83042
-1.52456 2.4153 2.75425
-1.51531 2.46329 3.68193
-0.810196 0.202385 -2.56165
-0.799415 0.268428 -1.66962
-0.748075 0.323489 -0.519566
-0.749458 0.304997 0.637037
-0.649976 0.375072 1.78896
-0.622062 0.431062 2.6988
-0.621922 0.474181 3.59725
-0.803874 0.497741 -2.5346
-0.6409 0.778077 2.73202
-0.643488 0.812122 3.62309
-0.751988 1.07137 -2.49223
-0.708942 1.42664 2.71778
-0.705479 1.4741 3.64136
-0.719809 2.0219 -2.42653
-0.71849 2.10137 -1.53892
-0.750885 2.22035 -0.427676
-0.789459 2.31176 0.684825
-0.805651 2.36919 1.81042
-0.800733 2.4137 2.73105
-0.78928 2.46095 3.65569
0.736182 0.196621 -2.59455
0.757495 0.25839 -1.71645
0.777132 0.297133 -0.620475
0.763591 0.324248 0.471737
0.822725 0.321461 1.57685
0.83452 0.388726 2.53652
0.834226 0.448944 3.47405
0.739961 0.494585 -2.55673
0.799402 0.72939 2.57709
0.803444 0.786423 3.50811
0.761261 1.06964 -2.49351
0.695545 1.40849 2.65554
0.728909 1.45792 3.56138
0.796382 2.01883 -2.43661
0.79728 2.0987 -1.54507
0.76163 2.21827 -0.436015
0.696862 2.31138 0.670216
0.648321 2.36876 1.78558
0.645596 2.41067 2.69165
0.661625 2.45552 3.60272
1.51043 0.193804 -2.61328
1.5311 0.254311 -1.73433
1.5378 0.295876 -0.649699
1.51474 0.329478 0.425773
1.54047 0.332336 1.52424
1.55326 0.380982 2.4694
1.55827 0.440225 3.41228
1.51501 0.495682 -2.57362
1.53933 0.568369 -1.6898
1.5426 0.614336 -0.60754
1.49666 0.667661 0.464203
1.50514 0.667398 1.55434
1.51585 0.717485 2.50718
1.52591 0.776191 3.44686
1.52797 1.08292 -2.50529
1.53996 1.15603 -1.60883
1.54296 1.26393 -0.506133
1.4709 1.33208 0.588901
1.39427 1.35995 1.69298
1.41998 1.40045 2.60131
1.45299 1.45017 3.51215
1.55007 2.0272 -2.44643
1.54868 2.10646 -1.55389
1.51346 2.21971 -0.44632
1.44461 2.30977 0.657062
1.38788 2.368 1.76803
1.37965 2.40917 2.66763
1.3939 2.45279 3.5729
-0.781539 0.85 -1.65889
-0.0161105 0.574374 -1.66063
-0.777944 0.605319 -1.06333
-0.693324 1.055 1.80925
0.085107 0.64361 1.76639
-0.755382 0.640457 1.26333
0.03 1.19811 -1.68111
-0.771313 1.23145 -1.06235
-0.024584 1.4027 1.78394
-0.742296 1.36299 1.16753
0.784127 0.85 -1.65077
0.786324 0.580124 -1.13333
0.759491 1 1.69113
0.800533 0.640114 1.03333
0.813261 1.23159 -1.0389
0.711795 1.36346 1.1902
-0.737765 0.651786 0.1
-0.80991 0.957199 -0.493273
0.0231977 0.606714 -0.536667
-0.828405 0.974752 0.645863
-0.0114354 0.593776 0.586667
-0.756041 1.29646 0.05259
0.011869 1.58406 -0.493253
-0.00613353 1.77167 0.621493
0.749678 0.653869 -0.05
0.829791 0.93336 -0.536647
0.819844 1.00114 0.562297
0.761704 1.2967 0.07565
-0.891775 0.903599 -1.06284
0.843673 0.89168 -1.08612
0.00354362 0.589434 -1.09833
0.0209345 1.31359 -1.05063
0.00694476 0.85 -1.88256
-0.819624 0.965975 0.076295
0.826199 0.967252 0.012825
0.00588115 0.609788 0.025
0.00286774 1.75849 0.06412
-0.860078 1.01488 1.21543
0.887224 1.00057 1.11177
0.0368358 0.621641 1.14833
-0.0153588 1.74859 1.17887
0.0302615 1.0275 1.82287
-0.779837 0.7125 -1.63845
-0.410615 0.571375 -1.65613
-0.796831 0.58486 -1.35417
-0.701526 0.905 1.86
-0.279438 0.665193 1.83981
-0.752666 0.644745 1.55417
-0.74677 0.9875 -1.64286
-0.3375 1.19001 -1.67892
-0.758098 1.19817 -1.34109
-0.702918 1.205 1.7763
-0.359376 1.39637 1.77199
-0.727009 1.36777 1.44627
0.378394 0.572831 -1.66967
0.768186 0.7125 -1.65256
0.776172 0.581001 -1.40417
0.449652 0.633077 1.68192
0.798166 0.8225 1.64439
0.803463 0.64646 1.30417
0.3975 1.19 -1.66709
0.795152 0.9875 -1.64406
0.808908 1.19807 -1.31754
0.310208 1.39636 1.78322
0.719246 1.1775 1.73631
0.687241 1.36807 1.46884
-0.779475 0.60536 -0.7725
-0.737073 0.650906 -0.190833
-0.766865 0.806652 -0.48747
-0.371644 0.598467 -0.509167
-0.761199 0.633068 0.9725
-0.738638 0.652485 0.390833
-0.837828 0.778543 0.663765
-0.397143 0.597119 0.634167
-0.768416 1.24862 -0.783615
-0.815244 1.12501 -0.499077
-0.760298 1.28064 -0.226145
-0.448355 1.5685 -0.499067
-0.748209 1.34883 0.888795
-0.829861 1.17291 0.627962
-0.751812 1.3123 0.331325
-0.482012 1.75914 0.615777
0.774507 0.601216 -0.8625
0.411139 0.588364 -0.564167
0.750549 0.643724 -0.320833
0.789198 0.776233 -0.564157
0.813987 0.617386 0.7625
0.378557 0.614686 0.539167
0.750365 0.662458 0.220833
0.783722 0.837071 0.526982
0.801245 1.24875 -0.760265
0.47267 1.56972 -0.48744
0.840703 1.11498 -0.509137
0.774967 1.2808 -0.202988
0.726881 1.34938 0.911565
0.469639 1.75918 0.62721
0.816535 1.18491 0.597612
0.74838 1.31255 0.354288
-0.88294 0.8768 -1.36087
-0.387297 0.85 -1.9197
-0.00628343 0.585324 -1.37948
-0.00458286 0.712187 -1.95017
-0.873198 0.754459 -1.06309
-0.3872 0.578458 -1.08083
-0.841614 1.03494 1.51234
-0.331531 1.04125 1.81495
0.0609714 0.628714 1.45736
0.0576843 0.835555 1.97385
-0.850459 0.827667 1.23938
-0.359273 0.620026 1.20583
0.0254673 1.26562 -1.36587
0.0184724 1.02406 -1.89225
-0.893237 1.06753 -1.0626
-0.375189 1.30757 -1.05649
-0.0199714 1.72005 1.4814
0.00283875 1.2151 1.87576
-0.837429 1.18893 1.19148
-0.378828 1.74078 1.1732
0.834919 0.87084 -1.36844
0.395536 0.85 -1.94054
0.844024 0.735902 -1.10973
0.394934 0.582626 -1.11583
0.894167 1.00029 1.40145
0.394876 1.01375 1.87022
0.884284 0.820343 1.07255
0.418684 0.615301 1.09083
0.848538 1.06164 -1.06251
0.417098 1.30737 -1.04477
0.807609 1.18202 1.15099
0.348218 1.74086 1.18454
-0.7753 0.810578 0.0881475
-0.380089 0.602493 0.0625
-0.856914 0.930399 -0.778058
-0.814602 0.961587 -0.208489
0.0133707 0.588307 -0.8175
0.0145394 0.608301 -0.255833
-0.823942 0.970363 0.361079
-0.866066 0.994814 0.930648
-0.00277715 0.610363 0.305833
0.0127002 0.618257 0.8675
-0.822491 1.14855 0.0644425
-0.48589 1.74608 0.058355
0.0164018 1.41979 -0.77194
0.00736837 1.70676 -0.214567
-0.0016329 1.77164 0.342807
-0.0107461 1.7629 0.90018
0.784629 0.812216 -0.0185875
0.389803 0.607783 -0.0125
0.841358 0.91252 -0.811383
0.828929 0.950306 -0.261911
0.823267 0.984198 0.287561
0.818341 1.00086 0.837033
0.828366 1.14919 0.0442375
0.491367 1.74576 0.069885
-0.861343 0.73348 -1.35752
-0.854419 0.778935 -0.775279
-0.812861 1.08926 -0.780836
-0.893551 1.02751 -1.35098
0.835664 0.724201 -1.3863
0.838577 1.02457 -1.34299
0.846384 1.08038 -0.785824
0.832211 0.751746 -0.836941
-0.398907 0.575895 -1.36682
0.386664 0.578881 -1.39182
0.399061 0.58638 -0.84
-0.371996 0.581646 -0.795
-0.356345 1.2621 -1.35348
-0.375751 1.41035 -0.777778
0.408575 1.40833 -0.766103
0.407299 1.26195 -1.34171
-0.398956 0.712343 -1.88557
-0.362398 1.00578 -1.90581
0.396518 1.00578 -1.89713
0.386965 0.712343 -1.9179
-0.771101 0.808605 -0.199661
-0.776382 0.809652 0.375956
-0.825999 1.16064 0.346202
-0.818443 1.13656 -0.217317
0.783051 0.796156 -0.291372
0.834399 1.13201 -0.23245
0.822304 1.16697 0.320925
0.78439 0.824536 0.254197
-0.375825 0.600563 -0.223333
0.396793 0.605428 -0.288333
0.384971 0.609652 0.263333
-0.38485 0.607338 0.348333
-0.484733 1.69251 -0.220356
-0.487082 1.75887 0.337066
0.483704 1.75887 0.348548
0.498625 1.69095 -0.208778
-0.853855 0.812327 0.951574
-0.853776 0.866333 1.53325
-0.823187 1.19697 1.4793
-0.83669 1.17072 0.909721
0.873022 0.828332 0.799766
0.81497 1.17399 0.874299
0.794403 1.17976 1.43515
0.891281 0.821422 1.35281
-0.375863 0.612852 0.92
0.394133 0.615323 0.815
0.434168 0.62143 1.38076
-0.319355 0.623238 1.50576
-0.378378 1.75501 0.894488
-0.369102 1.70988 1.46383
0.329213 1.70987 1.47512
0.35694 1.75503 0.905873
-0.305485 0.870277 1.96271
0.422264 0.829027 1.94746
0.352542 1.1963 1.8742
-0.345454 1.21005 1.86516
-0.760279 0.64375 -1.60953
-0.607867 0.586879 -1.63687
-0.794837 0.586068 -1.49958
-0.67845 0.83 1.85819
-0.461711 0.724693 1.82781
-0.698542 0.699655 1.69958
-0.727708 1.05625 -1.63316
-0.52125 1.17095 -1.66281
-0.738052 1.16809 -1.48045
-0.710153 1.28 1.76226
-0.526772 1.39288 1.76569
-0.710513 1.36131 1.58563
0.575646 0.600996 -1.64525
0.726977 0.64375 -1.62021
0.771499 0.581036 -1.53958
0.631925 0.634614 1.63289
0.805719 0.73375 1.60923
0.802856 0.651704 1.43958
0.58125 1.17118 -1.64532
0.780979 1.05625 -1.62102
0.793581 1.16816 -1.45686
0.477604 1.39325 1.78292
0.695633 1.26625 1.7554
0.666345 1.36176 1.60816
-0.804973 0.580648 -0.627083
-0.736918 0.650275 -0.33625
-0.788776 0.709662 -0.484568
-0.566738 0.598995 -0.495417
-0.763613 0.629868 0.827083
-0.738569 0.65334 0.53625
-0.810985 0.696216 0.672716
-0.589749 0.599287 0.657917
-0.766487 1.25673 -0.644248
-0.803649 1.20178 -0.501978
-0.762428 1.27274 -0.365513
-0.649481 1.50275 -0.501973
-0.749345 1.33993 0.749428
-0.805946 1.25967 0.619011
-0.750304 1.32082 0.470693
-0.640628 1.59423 0.612918
0.777042 0.603318 -0.727083
0.605464 0.578481 -0.577917
0.750842 0.638793 -0.45625
0.818679 0.672781 -0.577912
0.819719 0.607015 0.627083
0.580828 0.610592 0.515417
0.750286 0.667174 0.35625
0.798904 0.738413 0.509324
0.794809 1.25689 -0.620946
0.672658 1.50172 -0.484533
0.828776 1.19709 -0.495382
0.78162 1.27287 -0.342308
0.732092 1.34001 0.772246
0.628386 1.59466 0.630068
0.789988 1.26435 0.615269
0.742423 1.32117 0.493608
[...]
POINT_DATA 3682
SCALARS point_scalars float 1
LOOKUP_TABLE default
-75.561
-42.9923
-27.9134
-39.5377
-90.0075
-68.4637
-45.3939
-39.3776
-43.2242
-43.3666
-59.8816
-45.2588
-50.0982
-21.497
-63.1485
-46.149
-7.7305
-148.877
-54.6218
-40.7973
-58.9839
-42.1536
-39.5265
0.272725
-150.284
-50.985
-35.6689
-58.6425
-41.2142
-38.3459
39.6512
-113.922
-50.6724
-41.3814
-47.7102
-39.3416
-39.8271
-13.2473
-60.0453
-89.6252
-54.695
-42.45
-37.3906
-37.2995
41.8676
-134.534
-52.2591
-41.5688
-54.3098
-40.1955
-40.0514
95.3464
-38.8965
-38.8233
139.121
-36.6037
-36.9742
-1.4453
-34.3643
-79.438
-55.1848
-42.789
-36.2951
-34.8376
32.784
-86.5014
-47.3029
-29.6461
-57.4743
-40.9
-39.9939
81.9569
-39.3973
-39.0551
145.34
-37.2362
-38.4322
10.3569
-34.8801
-84.3451
-55.5042
-41.317
-35.5736
-35.2063
20.0955
-131.648
-46.1861
-27.2473
-58.9811
-44.538
-40.1687
29.6351
-130.006
-48.0792
-22.5553
-62.8845
-41.6602
-39.3652
36.2532
-106.43
-52.8929
-41.5699
-48.5485
-42.1449
-39.6476
-14.4897
-62.022
-96.425
-56.5611
-42.9416
-37.1308
-37.2472
18.8984
-135.894
-59.6055
-38.9923
-49.1006
-43.5488
-38.4465
-58.2783
-28.4516
-47.7594
-29.8495
-56.3031
-46.4034
-41.7434
-55.0595
-48.0882
-31.1918
-42.1593
-45.3911
-33.9591
-36.1609
-51.3878
-9.65777
-63.5486
-33.8355
-44.9467
-32.4048
-53.6153
-64.4235
-59.4246
-64.0839
12.4796
200.029
-35.6089
-38.1304
-35.3064
-91.5788
-48.7069
-48.654
-41.9854
-46.6903
-37.7571
-38.7076
-141.795
-88.2192
-40.8608
-46.5802
-56.2726
9.19708
-31.1967
-57.5853
-40.3265
-31.9172
-45.5001
-136.695
-49.4366
-91.8648
-52.0618
-52.0141
-47.0922
-32.85
-37.3174
-61.5235
-32.4704
-44.0417
-45.2349
-46.8345
-32.7817
-40.6054
-44.3224
-41.1093
-29.2941
-29.4623
-37.4027
-56.8734
-48.5781
-55.4256
-14.2834
-45.5517
-40.1554
-48.1229
-58.5764
-52.0064
-46.3041
-36.1826
-44.287
-49.262
-33.316
-29.919
-25.4219
-59.6061
-18.0649
-50.4892
-58.7513
-46.3744
-58.7025
-40.746
-49.483
-99.1596
158.461
-84.8976
90.0897
-60.5653
-62.5762
-52.5371
-37.9192
-44.9694
-40.2849
-45.9707
-42.5098
-13.4324
128.328
-69.7707
2.55299
-37.3929
-35.0366
-48.8946
-47.2288
-85.7714
171.619
-59.4347
-64.2331
-61.6549
-38.4032
-45.9846
-41.8441
-61.9239
1.4736
-50.049
-46.8955
-32.6034
-34.3515
-54.3018
-37.2745
-52.5848
-38.271
-34.4579
-45.6289
-34.9153
-40.0753
-41.1444
-82.3855
31.7072
-84.7799
-76.8029
-54.6021
-35.5367
-34.8568
-53.1299
-40.9199
-35.0963
-34.3891
-43.7518
-84.2723
-92.2296
-56.2348
-54.0773
-110.044
-87.4715
-86.0671
-51.7135
-55.4098
-85.3987
-87.6317
-52.5039
-51.678
-18.1317
21.7498
20.9585
-18.7174
35.5695
136.895
131.805
44.0004
-33.964
-30.9962
-40.4651
-44.5159
-38.4509
-47.74
-41.9818
-31.8491
-36.9242
-38.019
-33.6308
-34.0267
-77.1867
-68.3033
-69.1924
-79.096
-44.5269
-58.9398
-48.6586
-42.3999
-31.5842
-43.0308
-52.4983
-54.8219
-39.8953
-40.2335
-45.0318
-46.129
-53.4999
-39.7517
-39.7204
-53.4052
-38.9073
-39.9083
-37.1463
-35.8384
-67.131
-129.142
-139.219
-41.7564
-44.0624
-51.7051
-8.85992
-35.2664
-51.472
-40.3205
-34.3149
-43.2272
-111.528
-102.881
-140.12
-56.1532
-58.1812
-51.9807
-34.318
-41.7589
-57.7495
-35.0259
-42.3931
-42.8508
-56.3331
-35.1455
-40.5664
-43.7189
-41.8644
-22.1272
-36.6523
-40.7431
-62.3836
-53.3596
-57.9896
-86.6712
-45.0706
-43.6543
-46.2545
-51.1369
-45.9904
-46.8061
-39.1098
-46.8154
-23.3773
-30.1438
-26.6977
-23.6386
-64.265
-86.0346
-55.6552
-61.2076
-45.8602
-52.1864
-44.8445
-47.2314
-5.51672
21.8082
-148.981
112.675
-137.692
-135.144
-103.588
-58.4519
-67.8366
-49.1244
-58.5834
-61.0861
-39.8058
-39.6086
-48.0622
-38.0861
-48.038
-49.5232
-47.1265
-41.7117
-47.0425
-42.7866
-45.0315
-42.8419
-42.9666
-36.8807
-25.0285
77.4733
-65.4664
-54.4549
-69.5654
-17.8793
-29.5433
-29.7374
-30.9011
-31.123
-46.14
-47.1203
-47.674
-47.1911
-40.1283
-33.9976
-132.04
93.2474
-68.2018
-58.1264
-57.1531
-63.5577
-48.4331
-45.5328
-54.3233
-38.1903
-43.7559
-41.3537
-44.1772
-41.9927
-58.583
-54.5411
-63.4335
-19.4601
-46.6336
-48.0074
-49.1681
-46.9298
-31.7314
-30.746
-31.1622
-33.3615
-41.0204
-44.4694
-46.7477
-39.1419
-44.7316
-46.156
-48.8911
-40.8685
-29.7285
-37.1694
-33.9257
-33.849
-37.1278
-33.8692
-33.6867
-41.1254
-53.0773
-49.4309
-46.5614
-63.6302
-11.6502
-11.3332
19.6485
-44.8522
-62.384
-62.6248
-68.896
-58.8444
-34.9214
-32.4927
-34.503
-34.4832
-44.146
-46.8882
-49.1721
-42.6165
-28.4314
-36.502
-33.4987
-32.3752
-56.0071
-51.2773
-49.3055
-65.7807
-73.9709
-63.0147
-67.2179
-61.5782
-68.1343
-59.6886
-59.0545
-55.6283
-72.7259
-63.5525
-64.3132
-57.5272
-1.11957
10.1432
9.62584
24.1183
198.248
202.786
199.307
196.173
-33.6338
-36.1662
-35.1119
-38.6624
-36.391
-39.5827
-36.7525
-40.8281
-35.0346
-36.5065
-34.7037
-35.2402
-89.6194
-93.6046
-85.0897
-90.1419
-49.0139
-47.3329
-50.7751
-47.2632
-51.6615
-47.1774
-50.5276
-44.8093
-42.8936
-41.7213
-42.1195
-40.1609
-42.2169
-46.8621
-46.731
-50.5938
-37.6259
-37.1898
-37.2623
-37.8712
-137.221
35.5856
-107.639
-7.50138
-88.7738
-88.017
-47.731
-38.0959
-48.8581
-40.8017
-58.4096
-49.6076
-85.7343
90.3409
-28.3777
80.0069
-76.5152
-31.5877
-48.2404
-37.1774
-33.3201
-33.0124
-46.2222
-43.0944
-110.484
-27.1601
-135.147
16.2451
-88.8052
-92.0873
-48.5997
-43.7038
-64.7976
-40.6406
-51.8169
-45.8176
-28.3123
75.6972
-113.108
86.9412
-80.8841
-32.7839
-33.6573
-34.5657
-49.3984
-38.4399
-47.668
-42.6888
-58.9727
-51.2877
-32.55
-35.5842
-47.8473
-36.2875
-48.106
-39.4684
-42.9379
-40.0824
-29.0565
-32.8503
-29.5582
-38.4363
-33.8576
-41.431
-57.0758
-5.5992
-50.7865
-46.2722
-49.5742
-75.3362
12.2241
-47.5652
-43.9488
-49.4447
-40.0504
-40.7281
-44.8391
-58.6055
-62.0062
-55.8266
-56.8298
-52.0929
-48.702
-40.8427
-37.2424
-37.2738
-47.516
-40.6023
-34.3924
-42.2775
-33.4464
-39.0656
-30.6822
-31.5357
-28.8719
-22.7478
-54.5588
-10.1192
8.74336
-50.2434
-51.0708
-49.1645
-52.6743
-77.5882
-45.5834
-49.9102
-62.8211
-56.2704
-41.0954
-40.9288
-46.9043
-59.2531
-94.7873
-102.992
136.535
171.873
-84.6709
-85.8988
15.2175
21.1596
-70.5266
-56.7239
-71.6014
-56.3378
-55.1371
-50.9391
-37.1951
-37.4022
-44.7753
-45.0894
-39.4311
-40.4184
-45.6532
-48.6704
-41.0582
-43.5266
-14.3019
-14.3847
117.71
122.19
-59.2528
-83.1294
-8.40229
13.7603
-37.9253
-37.9398
-35.956
-35.0157
-48.5583
-46.3141
-50.2611
-43.7765
-86.9237
-84.4698
171.666
149.227
-67.4345
-57.6189
-73.4366
-57.6314
-56.1778
-57.3841
-37.9681
-38.3577
-47.1358
-47.4662
-40.3132
-43.4151
-65.3853
-54.3106
11.8728
-9.05416
-46.6998
-53.0279
-43.552
-50.0678
-32.9531
-32.0425
-35.2837
-34.054
-54.7132
-53.1319
-35.1606
-40.4395
-52.7451
-52.4015
-37.8255
-38.299
-32.2537
-37.3817
-45.3837
-41.0385
-34.6957
-34.6988
-39.7818
-40.8548
-41.9597
-42.8553
-88.3063
-75.4416
29.928
29.1042
-82.5694
-81.9679
-74.642
-75.0286
-54.3479
-54.3038
-36.7873
-33.9333
-36.136
-33.9846
-51.7724
-54.5175
-39.1118
-43.8276
-38.3695
-33.0325
-29.5717
-39.6019
-45.9372
-43.3882
-76.5005
-91.4253
-138.334
-68.8404
-72.1309
-146.221
-54.1409
-46.7388
-59.9609
-47.6734
-55.9576
-61.1633
-61.0624
-47.6981
-60.182
-135.314
-76.3379
-77.4479
-133.807
-132.559
-68.331
-66.9299
-79.2072
-64.2458
-67.459
-128.295
-56.906
-49.0187
-56.2915
-55.1164
-46.0711
-57.5506
-56.378
-50.1001
-121.089
-104.228
-72.1553
-71.1531
-133.493
-73.2279
-73.1537
-105.905
-48.834
-48.6857
-57.7687
-57.2881
-48.4581
-54.5511
-57.1929
-48.5676
-31.5054
-25.3411
-2.22476
-26.3082
-58.1226
18.6857
21.8748
-10.9519
-64.1333
-13.8921
21.2866
18.2841
-31.7433
-26.1629
-2.61071
-25.8006
-47.9813
107.518
192.967
-29.2541
50.3857
77.9347
197.656
117.283
41.7761
114.732
197.055
74.1934
-48.4669
-29.4985
195.826
90.2951
-35.0549
-31.419
-34.1288
-37.4031
-26.4706
-31.0659
-33.1454
-30.3441
-44.0206
-47.4275
-38.1731
-36.9691
-51.5245
-41.9994
-39.3327
-47.9071
-39.2759
-41.055
-37.7831
-35.6847
-54.2076
-50.933
-42.3435
-45.2488
-45.295
-37.1298
-39.799
-50.1912
-27.903
-32.6314
-34.866
-30.6834
-38.2182
-40.3545
-36.1002
-34.104
-40.3896
-35.5802
-36.4731
-40.9904
-31.0037
-33.812
-34.5433
-33.1985
-31.9691
-33.088
-34.6043
-33.9544
-87.7383
-68.6828
-91.6151
-43.1047
-52.7819
-67.5109
-82.4976
-59.1866
-53.9486
-61.0093
-82.9086
-67.4754
-90.2862
-46.154
-92.2037
-71.3825
-40.2653
-44.6037
-46.45
-34.1312
-49.3496
-47.6407
-49.5415
-48.0343
-46.4373
-46.9944
-50.1541
-48.0219
-43.9334
-38.2791
-45.2562
-47.2407
-23.697
-26.5832
-48.1084
-44.7283
-45.0404
-48.1418
-45.0447
-36.9699
-46.134
-51.5003
-57.8912
-49.021
-61.7094
-44.3286
-50.0469
-63.2852
-40.9478
-41.5053
-40.757
-41.7194
-40.6565
-40.5816
-40.2306
-39.8133
-49.9118
-48.0645
-42.6837
-43.8435
-52.254
-44.8403
-42.9983
-47.3264
-49.4996
-49.8226
-50.5648
-58.139
-37.378
-31.5197
-42.6117
-45.1811
-37.2087
-44.8193
-42.5776
-31.8564
-50.0586
-58.3059
-50.4767
-49.6683
-40.1761
-41.1707
-37.1711
-37.7344
-44.6314
-39.2981
-37.4631
-41.8782
-37.1019
-32.2345
-38.109
-38.4143
-35.6304
-37.8636
-37.0871
-31.5189
-119.404
-101.007
-106.634
-42.2746
-43.5463
-45.7515
-17.8133
-26.4762
-50.724
-40.1987
-36.0553
-41.0765
-70.436
-146.101
-122.843
-59.0748
-68.4728
-53.1541
-30.8839
-36.9477
-56.6723
-36.4083
-40.5981
-40.3838
-52.3455
-37.9401
-42.0639
-43.8188
-42.8915
-29.6807
-40.2005
-43.2818
-61.3173
-56.0541
-59.3028
-74.5359
-45.0482
-44.9975
-45.5953
-47.856
-44.9383
-48.9667
-46.8626
-50.7231
-12.3635
-26.9298
-25.2456
-20.3511
-64.0544
-77.2663
-59.2891
-62.2582
-45.8687
-48.8853
-46.0104
-46.5255
5.69704
22.3892
-98.9062
52.2146
-135.684
-135.383
-121.733
-141.603
-66.7409
-53.2905
-57.7636
-59.4439
-39.0342
-39.2752
-43.8783
-38.0165
-48.5478
-49.4661
-48.0237
-44.1056
-44.9224
-42.8426
-44.3568
-42.887
-39.441
-39.7963
-31.7133
-14.2844
-61.6739
-55.3652
-66.8757
-35.4905
-28.8132
-28.793
-29.3116
-29.4499
-46.8194
-48.249
-47.6949
-47.5265
-38.5432
-32.1306
-141.412
39.1283
-58.1443
-59.0241
-57.6669
-62.4391
-47.3342
-45.8035
-50.585
-39.7513
-43.0895
-41.1538
-43.0493
-41.9092
-57.2971
-53.5816
-61.7729
-35.8739
-47.3544
-48.6673
-48.509
-46.4372
-31.4927
-30.9184
-30.902
-32.1183
-41.5359
-43.0777
-44.1273
-40.5245
-44.9926
-45.943
-47.8501
-42.6467
-32.2613
-35.7013
-33.8271
-34.5607
-36.6054
-35.4247
-32.641
-40.4542
-52.1757
-50.4502
-49.7425
-56.6444
-10.4199
-9.98227
6.48055
-27.5554
-63.1965
-63.2111
-66.188
-60.9458
-34.4627
-33.4416
-34.1371
-33.8882
-44.4073
-45.7719
-46.4442
-43.6183
-30.5414
-34.4388
-32.8611
-32.0207
-54.68
-52.5198
-52.5282
-58.7491
-68.8942
-63.6596
-65.2607
-61.8405
-63.1579
-59.6004
-59.1056
-56.8958
-68.0428
-63.8332
-64.1772
-60.6102
6.05265
11.9022
11.6487
18.0708
199.62
201.384
199.95
199.149
-34.4248
-35.8354
-35.4021
-37.0994
-37.1893
-38.8974
-37.4482
-39.4027
-35.2039
-35.8039
-34.8947
-35.3025
-91.0546
-94.3651
-87.9488
-91.2845
-48.2268
-48.0373
-49.8372
-48.5013
-48.3302
-47.852
-49.5694
-48.1705
-42.4774
-41.9541
-41.943
-41.0472
-44.4588
-46.7016
-46.732
-48.7
-37.619
-37.4976
-38.0261
-37.8074
-50.1619
-19.4115
-138.453
3.77043
-135.109
-140.126
-132.086
-122.206
-105.104
-76.5337
-88.759
-87.8745
-41.285
-40.2394
-44.6906
-38.5405
-45.4356
-47.4443
-49.1102
-42.4158
-57.5687
-51.079
-57.8045
-52.7702
-0.889006
18.3379
-41.7975
45.0088
-30.7715
-38.4458
-32.6931
-12.7385
-61.2442
-61.8236
-71.2263
-44.2281
-40.4056
-39.929
-44.8415
-37.9454
-33.1246
-30.7119
-32.1198
-32.1534
-44.7816
-45.7672
-45.6629
-43.028
-127.13
-136.441
-134.413
-105.843
-61.5909
-38.7582
-131.238
10.5106
-112.168
-78.196
-90.4936
-93.4816
-53.9322
-50.2303
-50.6413
-48.2914
-54.5331
-49.827
-62.3158
-43.9694
-49.6705
-44.9453
-49.1093
-46.7774
-33.1077
-36.6515
-33.1393
-8.47952
-41.5046
-31.8878
-97.9927
31.7659
-63.2937
-58.6742
-74.3775
-45.2881
-33.7269
-31.1061
-32.6742
-33.1787
-43.5314
-44.5604
-47.7808
-39.5767
-44.379
-45.9794
-45.982
-42.9571
-44.4576
-50.4297
-55.4445
-50.107
-33.8789
-32.267
-32.4835
-34.0687
-40.2966
-40.9122
-43.3543
-38.1682
-44.0551
-44.6019
-47.1555
-41.1771
-40.4995
-41.9249
-42.1462
-40.2795
-27.817
-30.279
-29.1791
-31.1374
-31.503
-28.178
-26.6067
-34.4715
-39.111
-36.8928
-34.3159
-39.5266
-63.585
-57.0082
-58.4929
-39.6338
-50.8416
-46.3243
-49.5068
-47.4651
-56.7525
-54.2107
-52.3829
-63.2373
-34.6388
-12.1506
-0.428199
-33.1563
-45.1891
-45.8252
-45.2383
-46.9452
-41.7087
-38.6693
-40.0128
-40.3876
-47.0124
-48.7137
-47.021
-52.4263
-54.9561
-61.1789
-60.209
-58.3124
-50.2566
-58.4722
-52.966
-51.2064
-46.4561
-46.1863
-47.0761
-43.7919
-37.3612
-35.6262
-36.6976
-35.9943
-45.6871
-43.9831
-48.5054
-41.9763
-46.1142
-47.3511
-42.7239
-46.1231
-32.6047
-33.7758
-33.3549
-35.87
-28.5549
-30.9587
-29.7991
-29.8968
-25.5139
-26.9432
-27.2041
-24.4222
-63.4957
-56.851
-57.1314
-44.5425
-44.7966
-13.3858
-5.85578
-38.1196
-52.6931
-48.4595
-50.8141
-49.8512
-60.0523
-57.366
-56.4369
-66.3803
-46.0597
-46.6792
-46.4333
-47.858
-56.4544
-61.3838
-60.8528
-58.1867
-42.8155
-38.4358
-40.4079
-40.227
-48.3047
-50.4513
-48.9404
-53.7959
-122.81
-82.7241
-97.6144
-100.565
139.575
192.557
149.662
167.564
-93.1474
-78.2547
-84.5922
-85.0913
-17.0368
162.693
26.2676
93.3633
-59.6959
-61.5482
-64.9032
-57.4869
-61.9432
-63.0954
-66.6533
-59.2107
-51.0384
-52.5888
-53.0742
-51.9647
-37.8871
-37.7918
-37.4793
-38.1626
-46.3148
-43.871
-44.7536
-44.9126
-40.6068
-38.1804
-39.9263
-40.3922
-45.3296
-46.6745
-45.9826
-47.1193
-43.3251
-41.9402
-42.2204
-42.6408
-19.0202
-6.89378
-13.3454
-13.3453
120.077
170.699
123.548
125.186
-66.7958
-69.5633
-64.2881
-71.5869
-4.56625
7.19336
-3.28801
7.66016
-34.8406
-39.8778
-37.4529
-37.6072
-33.1334
-36.3056
-35.3812
-34.8894
-47.9923
-50.1191
-48.5125
-47.7621
-47.479
-47.0942
-48.879
-45.4863
-101.515
-75.3242
-86.8801
-85.1478
130.232
193.701
177.881
165.396
-58.6098
-59.8403
-62.7152
-57.6903
-64.0465
-64.264
-68.4475
-60.7417
-61.7991
-57.5292
-61.7842
-59.5013
-38.4736
-37.841
-38.4934
-38.3711
-45.4348
-46.5317
-46.436
-44.9954
-41.8954
-42.1698
-40.9764
-42.9293
-64.8443
-60.1134
-67.0913
-57.1276
-6.15252
6.37011
6.56136
-3.89949
-49.6115
-50.3312
-48.5438
-52.1547
-47.1249
-46.7238
-45.3056
-48.6003
-32.1192
-32.8638
-32.3655
-32.0673
-33.8947
-34.7859
-34.7424
-34.1217
-49.7472
-58.3056
-55.4935
-53.2916
-38.0707
-36.6205
-36.0503
-38.7856
-50.6666
-54.5474
-52.7752
-52.6517
-39.4324
-37.2773
-38.1264
-38.3347
-34.1507
-34.7706
-33.2163
-35.918
-38.8823
-46.0199
-45.3963
-42.4855
-34.4153
-34.5679
-34.7959
-34.7589
-41.6636
-39.6557
-39.6494
-41.0508
-43.238
-40.1283
-41.85
-41.9011
-75.8227
-87.307
-84.3751
-78.909
28.2979
28.3535
30.7673
30.7722
-70.4037
-91.5401
-84.2172
-83.9153
-72.476
-81.5386
-76.3705
-76.5471
-56.6687
-52.572
-54.5601
-54.5281
-35.2118
-35.8285
-36.1208
-34.682
-34.6172
-35.0957
-35.4433
-34.3733
-50.9913
-55.5341
-51.87
-53.4892
-41.682
-40.2474
-39.948
-42.2997
-34.2906
-36.0132
-36.7074
-33.9213
-33.1363
-37.0831
-31.278
-36.8075
-45.6944
-42.561
-44.7833
-43.4354
-77.5587
-88.2551
-80.2952
-86.6772
-109.953
-90.6746
-92.9022
-79.2137
-57.6122
-50.8429
-61.2766
-55.4844
-55.3302
-52.1441
-56.6596
-53.4023
-114.779
-93.7492
-108.058
-89.9244
-103.515
-88.4532
-87.6461
-74.9289
-109.83
-90.5096
-84.6026
-72.3309
-52.6858
-51.295
-52.2551
-51.5527
-56.7989
-49.4622
-58.6439
-54.7031
-95.2725
-86.511
-84.7482
-77.7436
-97.7292
-89.4242
-86.5351
-79.7361
-52.4564
-50.4665
-54.874
-52.6561
-51.3011
-49.7786
-53.8467
-52.015
-23.0481
-22.5141
-15.7752
-13.5479
12.5487
18.6292
19.9725
26.5321
9.84322
17.1023
17.5632
26.1619
-23.5646
-23.3839
-16.0298
-13.9704
7.98282
6.22884
100.159
61.402
115.437
115.675
163.327
123.905
108.153
112.768
124.745
155.912
-11.9224
13.9784
16.3311
111.776
-33.4087
-34.92
-33.3257
-34.4376
-30.2228
-30.3944
-31.6007
-31.3301
-40.2062
-42.0695
-38.9903
-40.9864
-45.3725
-46.8593
-42.3425
-43.7173
-38.0008
-39.5189
-37.4368
-38.6516
-48.504
-49.9433
-45.6381
-46.9429
-41.4086
-43.8178
-40.1605
-43.353
-32.6126
-30.3168
-32.8169
-32.2974
-36.3339
-38.0547
-35.9997
-37.4358
-39.3118
-37.7624
-38.1981
-36.9983
-33.5858
-32.868
-34.39
-33.6357
-33.5251
-33.6687
-34.2348
-34.4852
-84.357
-64.0423
-84.8789
-79.4986
-63.4408
-64.7999
-72.1663
-72.2056
-65.5112
-64.4827
-72.7998
-72.8783
-65.3226
-87.7794
-79.4538
-85.125
-43.6221
-42.6311
-44.932
-45.187
-54.1365
-59.4682
-57.0373
-51.5665
-48.7844
-47.2751
-49.7304
-48.8174
-42.9181
-42.113
-44.5248
-42.8857
-32.3928
-21.4107
-43.4478
-30.8879
-44.2189
-41.6103
-44.5058
-41.3863
-50.7252
-49.9492
-53.969
-53.1542
-58.72
-53.7366
-55.8735
-52.6279
-39.7849
-41.426
-40.267
-39.7966
-40.9528
-40.7277
-39.6088
-40.2528
-46.4917
-45.4502
-44.881
-43.824
-47.6819
-47.4028
-45.2946
-44.657
-53.1272
-54.3632
-51.8909
-53.9209
-37.4181
-41.3831
-38.8379
-41.8638
-37.2564
-40.9334
-38.7639
-41.7658
-53.1059
-54.8225
-51.7453
-53.9637
-38.4662
-40.0534
-37.1753
-39.7819
-41.0947
-39.9315
-40.0325
-38.8491
-36.0865
-37.7806
-36.5373
-37.9113
-36.4009
-34.6065
-36.7226
-35.2447
-133.047
-49.027
-142.467
-71.1709
-141.731
-132.721
-44.8521
-40.5592
-49.1398
-41.5516
-50.1072
-52.4706
-49.1634
34.7028
-38.6044
7.20488
-59.9489
-39.7064
-44.2927
-37.3269
-34.8033
-34.7428
-43.8344
-40.0943
-130.041
-84.3014
-163.363
-38.642
-140.161
-129.592
-53.4179
-52.2432
-67.671
-48.3775
-56.7889
-50.8569
-41.8785
2.06419
-73.9483
25.1247
-71.9179
-40.9251
-35.0542
-35.8338
-45.0572
-38.4031
-44.1199
-39.5912
-55.525
-50.6846
-35.1905
-36.6179
-45.5206
-37.4856
-46.6711
-40.1925
-40.9867
-41.8368
-23.2691
-29.2137
-26.2745
-39.2809
-35.9804
-41.0918
-58.6927
-77.5072
-54.7602
-52.367
-54.4157
-67.0623
-69.6474
-96.5634
-44.7412
-47.0093
-43.7761
-43.7735
-45.8606
-49.1027
-51.8094
-50.3112
-45.7555
-47.6674
-47.0946
-44.0212
-39.1564
-39.5893
-45.8792
-43.8856
-25.5861
-36.3771
-31.0996
-32.9132
-27.0434
-27.2848
-26.0166
-19.7547
-60.5638
-79.4804
-79.0874
-103.379
-56.3161
-54.9521
-58.0683
-70.2085
-45.7939
-47.9483
-52.8711
-51.1076
-44.9476
-44.8606
-47.193
-50.3614
-123.791
44.991
-64.9323
51.1396
-150.384
-148.395
108.663
109.229
-122.472
-130.969
-123.392
-138.699
-103.701
-104.069
-24.8671
-68.8494
-68.2559
-70.9192
-47.3385
-50.9823
-63.6466
-54.2229
-65.6233
-57.4397
-44.0456
-37.7021
-44.6323
-38.1478
-47.9987
-48.2282
-38.0381
-38.0032
-48.1052
-43.2753
-49.1849
-44.2922
-47.5719
-47.0082
-41.4094
-41.862
-48.1378
-45.9568
-44.1105
-42.0611
-44.2436
-46.0664
-42.6476
-43.3549
-33.1289
19.4921
-32.5262
-0.481194
-25.5822
-25.5904
75.4999
45.0723
-76.0528
-40.56
-60.1579
-32.0948
-65.004
-72.1631
-22.1736
-13.2502
-30.1094
-30.2043
-30.4716
-30.8517
-31.0353
-31.1833
-31.5722
-30.9646
-46.4443
-44.4864
-47.1339
-50.44
-47.2902
-47.5106
-48.7382
-46.2643
-137.657
36.9015
-139.64
50.0268
-134.07
-133.718
93.4041
91.8283
-67.5497
-70.7039
-57.9192
-57.4366
-59.6677
-55.3768
-67.576
-60.3526
-54.9538
-41.5061
-48.8623
-39.6158
-52.2629
-58.1063
-38.549
-38.0277
-43.623
-44.3137
-42.9913
-40.5753
-44.5781
-44.4002
-40.9788
-43.2022
-64.9113
-39.1341
-56.911
-33.5317
-67.066
-58.3565
-15.6265
-22.7588
-47.5143
-44.7019
-48.0204
-50.3348
-48.9263
-49.2947
-46.2534
-47.8577
-31.7591
-32.7862
-30.2421
-31.8037
-31.5543
-30.8574
-33.698
-33.2057
-43.5615
-39.0173
-45.9005
-43.1167
-46.7441
-47.0433
-38.2542
-40.5268
-47.2636
-42.0509
-46.6191
-43.8907
-48.8031
-48.7888
-40.6708
-40.9487
-30.5649
-31.2641
-36.9582
-37.5272
-32.4632
-35.4815
-32.9602
-36.4095
-32.9444
-40.9345
-34.1664
-36.7251
-33.7039
-33.8192
-41.7998
-40.1423
-50.6606
-60.0174
-48.5647
-53.3392
-48.0603
-46.7597
-65.9272
-61.1866
5.95233
-27.4353
4.59975
-29.0061
19.3615
19.4343
-43.9411
-45.4903
-64.9379
-60.1018
-64.9815
-60.3478
-68.5745
-68.643
-58.6786
-58.8838
-35.3005
-34.8073
-32.0401
-34.2622
-35.0268
-33.6056
-35.0163
-33.9904
-47.0723
-42.384
-47.8079
-45.9866
-48.6757
-49.8263
-41.8058
-43.8106
-29.5285
-27.5674
-36.6865
-36.5361
-35.2405
-32.0316
-29.9838
-34.8202
-54.0939
-62.5143
-50.9977
-55.0007
-49.5566
-49.8412
-63.188
-68.4439
-73.0412
-75.0022
-67.4066
-60.4743
-62.8901
-70.9507
-60.6773
-61.552
-68.4158
-67.808
-63.3824
-57.6742
-62.8165
-57.0054
-56.2638
-56.1438
-72.3455
-72.7712
-67.481
-60.1376
-68.3696
-60.8227
-57.6864
-57.3848
-1.12994
-1.0415
3.81656
15.2096
14.8187
3.46624
23.1913
23.032
198.131