# vtk DataFile Version 2.0
tri_press
ASCII
DATASET UNSTRUCTURED_GRID
POINTS 3682 float
-0.752768 0.295 -2.205
-0.695 0.335 2.32341
-0.715 0.791165 -2.145
-0.595 1.07364 2.295
0.752773 0.295 -2.205
0.695 0.335 2.32342
0.715 0.791166 -2.145
0.595 1.07364 2.295
-0.778334 0.263511 -0.69553
-0.772383 0.26354 0.81394
-0.793133 1.00346 -0.665
-0.773374 1.11786 0.815
0.778338 0.263511 -0.695527
0.772385 0.26354 0.813947
0.79311 1.00343 -0.665
0.773372 1.11785 0.815
-1.52459 -0.120661 -3.41403
-1.52482 -0.0617662 -2.21826
-1.53687 -0.0833289 -0.708027
-1.50738 -0.106042 0.808136
-1.43737 -0.0689483 2.31887
-1.42477 -0.0350329 3.51709
-1.43709 -0.00365274 4.71078
-1.52209 0.19674 -3.39463
-1.52328 0.28217 -2.20207
-1.54649 0.289785 -0.697576
-1.5033 0.283576 0.809574
-1.39657 0.315022 2.31464
-1.3999 0.347495 3.51244
-1.42613 0.378677 4.70709
-1.50707 0.784748 -3.34755
-1.50239 0.866429 -2.15377
-1.55212 1.02157 -0.669366
-1.49928 1.1022 0.812953
-1.34321 1.086 2.29792
-1.37312 1.1138 3.49695
-1.42026 1.14868 4.69635
-1.49891 1.82225 -3.29908
-1.5005 1.92644 -2.10973
-1.51781 2.10467 -0.634872
-1.51492 2.24173 0.833628
-1.48192 2.28901 2.30879
-1.46697 2.30549 3.49879
-1.47167 2.32772 4.69497
-0.766105 -0.114765 -3.41593
-0.75625 -0.0515369 -2.22103
-0.769621 -0.0959735 -0.707654
-0.766803 -0.120591 0.811864
-0.726856 -0.0625562 2.32538
-0.720523 -0.0317689 3.52151
-0.72982 -0.00410787 4.71334
-0.76753 0.193891 -3.39521
-0.708838 0.351564 3.51609
-0.725903 0.378057 4.70902
-0.754037 0.752374 -3.3439
-0.686475 1.10958 3.49636
-0.725384 1.14579 4.69623
-0.739648 1.7986 -3.29548
-0.736556 1.90343 -2.10575
-0.757028 2.09762 -0.632479
-0.776126 2.24747 0.833341
-0.768699 2.29184 2.30674
-0.759846 2.30504 3.49674
-0.762741 2.32648 4.69349
0.747131 -0.114767 -3.41593
0.764895 -0.0515383 -2.22103
0.77704 -0.0959745 -0.707651
0.758315 -0.120591 0.81187
0.704449 -0.0625565 2.32539
0.685334 -0.0317695 3.52152
0.681407 -0.0041087 4.71334
0.734757 0.193889 -3.39521
0.664202 0.351564 3.51609
0.667937 0.378056 4.70903
0.727128 0.752372 -3.3439
0.628421 1.10958 3.49636
0.649091 1.14579 4.69623
0.770081 1.7986 -3.29548
0.779954 1.90343 -2.10575
0.769119 2.09761 -0.632478
0.717068 2.24746 0.833342
0.660305 2.29184 2.30674
0.648426 2.30504 3.49674
0.650698 2.32647 4.69349
1.5092 -0.120668 -3.41403
1.52773 -0.0617727 -2.21826
1.54475 -0.0833342 -0.708022
1.51455 -0.106044 0.808145
1.43853 -0.0689497 2.31888
1.40641 -0.0350344 3.5171
1.3996 -0.00365504 4.71079
1.49812 0.196733 -3.39463
1.5193 0.282162 -2.20207
1.54953 0.289777 -0.697572
1.51698 0.283574 0.809583
1.41247 0.315021 2.31465
1.3801 0.347493 3.51245
1.38166 0.378674 4.7071
1.4893 0.78474 -3.34755
1.50198 0.866418 -2.15377
1.55562 1.02155 -0.669365
1.50822 1.10219 0.812956
1.35035 1.086 2.29793
1.33817 1.1138 3.49695
1.3575 1.14867 4.69636
1.52526 1.82224 -3.29908
1.53524 1.92642 -2.10972
1.52758 2.10466 -0.634871
1.47013 2.24172 0.83363
1.39581 2.289 2.30879
1.37068 2.30549 3.49879
1.36911 2.32772 4.69498
-0.765419 0.543082 -2.20653
2.5034e-06 0.284223 -2.21578
-0.77056 0.274247 -1.45027
-0.618263 0.70432 2.28247
0 0.356576 2.30184
-0.734633 0.298328 1.56868
0 0.872455 -2.22629
-0.795101 0.938346 -1.405
0 1.11257 2.33393
-0.712803 1.12436 1.555
0.765418 0.543083 -2.20653
0.770559 0.274252 -1.45026
0.618461 0.70432 2.28267
0.734593 0.29837 1.56868
0.795104 0.938349 -1.405
0.712761 1.12432 1.555
-0.775345 0.263539 0.0592051
-0.885971 0.633484 -0.680265
1.66893e-06 0.260933 -0.695528
-0.881622 0.690698 0.81447
8.34465e-07 0.260997 0.813944
-0.789323 1.06673 0.075
-1.13112e-05 1.30396 -0.665
-1.06421e-06 1.47819 0.815
0.775347 0.263539 0.0592101
0.885975 0.633473 -0.680263
0.881622 0.690697 0.814474
0.78933 1.06673 0.075
-0.889896 0.588283 -1.42763
0.889899 0.588278 -1.42763
2.08616e-06 0.270712 -1.45026
-5.65558e-06 1.05405 -1.405
1.2517e-06 0.543083 -2.4111
-0.885868 0.662091 0.0671026
0.885868 0.662085 0.0671051
1.2517e-06 0.260974 0.0592076
-6.18768e-06 1.48826 0.075
-0.885741 0.697509 1.56184
0.885741 0.697508 1.56184
4.17232e-07 0.287388 1.56868
-5.32104e-07 1.25637 1.555
0 0.70432 2.33678
-0.760671 0.419041 -2.20734
-0.376383 0.289172 -2.21083
-0.762767 0.28352 -1.82763
-0.691555 0.51966 2.33786
-0.3475 0.356769 2.30164
-0.71113 0.320351 1.94604
-0.729415 0.667124 -2.16497
-0.3575 0.853456 -2.20729
-0.774032 0.883737 -1.775
-0.60135 0.88898 2.28345
-0.2975 1.11046 2.33182
-0.641843 1.08694 1.925
0.376388 0.289471 -2.21053
0.7607 0.419041 -2.20737
0.762817 0.283475 -1.82763
0.3475 0.356777 2.30164
0.691508 0.51966 2.33782
0.709727 0.321754 1.94605
0.3575 0.853458 -2.20729
0.72934 0.667125 -2.1649
0.77403 0.883736 -1.775
0.2975 1.11045 2.33181
0.601328 0.88898 2.28343
0.641868 1.08697 1.925
-0.775155 0.268171 -1.0729
-0.77685 0.263515 -0.318163
-0.879037 0.425055 -0.687898
-0.389114 0.262327 -0.695529
-0.745237 0.289205 1.19131
-0.773859 0.263544 0.436573
-0.877855 0.451692 0.814205
-0.386117 0.262417 0.813942
-0.798576 0.97536 -1.035
-0.883203 0.840296 -0.672633
-0.790855 1.03472 -0.295
-0.452963 1.26649 -0.665
-0.763203 1.14122 1.185
-0.87105 0.926052 0.814735
-0.782676 1.09362 0.445
-0.466829 1.4583 0.815
0.776261 0.267069 -1.0729
0.389117 0.262327 -0.695528
0.776853 0.263515 -0.318158
0.87902 0.42506 -0.687895
0.745228 0.289215 1.19132
0.386119 0.262417 0.813945
0.773861 0.263544 0.436578
0.877861 0.45169 0.81421
0.79859 0.975375 -1.035
0.452948 1.2665 -0.665
0.883205 0.840285 -0.672632
0.790849 1.03471 -0.295
0.7632 1.14122 1.185
0.466827 1.4583 0.815
0.871052 0.926053 0.814737
0.782679 1.09362 0.445
-0.874869 0.565683 -1.81708
-0.382709 0.543083 -2.39742
2.29478e-06 0.277326 -1.83302
1.87755e-06 0.413653 -2.31699
-0.883543 0.431265 -1.43895
-0.385279 0.273321 -1.45026
-0.840978 0.700914 1.92215
-0.309131 0.70432 2.33349
2.08616e-07 0.324267 1.93526
0 0.530448 2.40273
-0.88288 0.497919 1.56526
-0.367316 0.288577 1.56868
-2.82779e-06 0.979511 -1.81564
6.25849e-07 0.707769 -2.38416
-0.895241 0.763314 -1.41632
-0.397553 1.00229 -1.405
-2.66052e-07 1.11672 1.94447
0 0.908446 2.32546
-0.859495 0.910936 1.55842
-0.356402 1.22336 1.555
0.874807 0.56568 -1.81708
0.38271 0.543083 -2.39741
0.883543 0.431265 -1.43895
0.38528 0.273293 -1.45026
0.840977 0.700914 1.92226
0.309231 0.70432 2.3335
0.88288 0.497939 1.56526
0.367296 0.288591 1.56868
0.895241 0.763313 -1.41632
0.397549 1.00228 -1.405
0.859507 0.910915 1.55842
0.35638 1.22337 1.555
-0.877685 0.439276 0.0631538
-0.387609 0.262382 0.0592063
-0.890014 0.610883 -1.05395
-0.885905 0.647787 -0.306581
1.87755e-06 0.261353 -1.0729
1.46031e-06 0.260947 -0.31816
-0.885344 0.676394 0.440786
-0.893765 0.694103 1.18815
1.04308e-06 0.260988 0.436576
6.25849e-07 0.271693 1.19131
-0.877632 0.884426 0.0710513
-0.490138 1.46844 0.075
-8.48337e-06 1.11914 -1.035
-8.74942e-06 1.45586 -0.295
-3.62595e-06 1.48923 0.445
-7.98156e-07 1.39921 1.185
0.877688 0.439272 0.0631576
0.387611 0.262382 0.0592088
0.890017 0.610875 -1.05395
0.885908 0.647779 -0.306579
0.885346 0.676391 0.440789
0.893765 0.694103 1.18816
0.877639 0.884429 0.0710526
0.490133 1.46844 0.075
-0.870602 0.425153 -1.82236
-0.896626 0.439881 -1.06342
-0.882645 0.790892 -1.04447
-0.862132 0.715219 -1.79604
0.870597 0.425153 -1.82236
0.862097 0.715219 -1.79604
0.882649 0.790883 -1.04447
0.896652 0.439878 -1.06342
-0.380831 0.282206 -1.83033
0.380834 0.282178 -1.83033
0.387225 0.261311 -1.0729
-0.387223 0.261353 -1.0729
-0.377527 0.948745 -1.79532
-0.397063 1.09478 -1.035
0.397049 1.0952 -1.035
0.377525 0.948742 -1.79532
-0.379546 0.416347 -2.31685
-0.370104 0.687446 -2.31906
0.370105 0.687447 -2.31894
0.379549 0.416347 -2.31685
-0.879525 0.431583 -0.312372
-0.875885 0.446427 0.43868
-0.87474 0.905439 0.442893
-0.880803 0.862553 -0.300791
0.879534 0.431576 -0.312369
0.880803 0.862547 -0.30079
0.874741 0.905438 0.442895
0.875887 0.446424 0.438684
-0.388365 0.262347 -0.318161
0.388368 0.262347 -0.318159
0.386863 0.262403 0.436577
-0.386861 0.262403 0.436574
-0.501871 1.42811 -0.295
-0.481133 1.46867 0.445
0.481129 1.46867 0.445
0.501863 1.42811 -0.295
-0.89045 0.487519 1.18973
-0.839296 0.508789 1.9341
-0.814562 0.899958 1.92358
-0.878593 0.907606 1.18658
0.890449 0.487529 1.18974
0.878603 0.907595 1.18658
0.822115 0.899948 1.92363
0.839281 0.508799 1.93415
-0.376754 0.271718 1.19131
0.376745 0.271722 1.19131
0.357398 0.329297 1.94066
-0.357408 0.329297 1.94065
-0.371544 1.38618 1.185
-0.326951 1.11444 1.93473
0.32694 1.11444 1.93473
0.371533 1.38618 1.185
-0.328316 0.525054 2.39039
0.328365 0.525054 2.39039
0.303365 0.898713 2.32603
-0.303316 0.898713 2.32603
-0.757468 0.357021 -2.20692
-0.564575 0.305896 -2.1941
-0.758753 0.288274 -2.01632
-0.699977 0.42733 2.33734
-0.52125 0.349786 2.30863
-0.701601 0.329139 2.13473
-0.72451 0.729144 -2.15729
-0.53625 0.829235 -2.18307
-0.757862 0.850797 -1.96
-0.597444 0.98131 2.2885
-0.44625 1.10228 2.32364
-0.617452 1.07932 2.11
0.56458 0.306158 -2.19384
0.75751 0.357021 -2.20696
0.758845 0.288187 -2.01632
0.52125 0.350076 2.30834
0.699909 0.42733 2.33728
0.700086 0.330655 2.13474
0.53625 0.82927 -2.1831
0.725014 0.729145 -2.15779
0.757965 0.850901 -1.96
0.44625 1.10217 2.32353
0.597427 0.98131 2.28848
0.617423 1.07929 2.11
-0.779073 0.263513 -0.884214
-0.777593 0.263512 -0.506846
-0.870255 0.323498 -0.691714
-0.583695 0.262976 -0.69553
-0.748307 0.286875 1.00262
-0.773121 0.263542 0.625256
-0.86585 0.33725 0.814073
-0.579235 0.263009 0.813941
-0.795679 0.989233 -0.85
-0.866602 0.936093 -0.668816
-0.792133 1.01923 -0.48
-0.670621 1.23012 -0.665
-0.768499 1.12975 1
-0.81385 1.01777 0.814868
-0.77828 1.10599 0.63
-0.654816 1.35751 0.815
0.779076 0.263513 -0.884211
0.583699 0.262976 -0.695527
0.777596 0.263512 -0.506843
0.87026 0.323495 -0.691711
0.748298 0.286886 1.00263
0.579236 0.263009 0.813946
0.773123 0.263542 0.625263
0.865859 0.337246 0.814079
0.795889 0.989443 -0.85
0.670577 1.23006 -0.665
0.866598 0.93608 -0.668816
0.792138 1.01923 -0.48
0.7685 1.12975 1
0.654817 1.35751 0.815
0.813852 1.01777 0.814869
0.778283 1.10599 0.63
[...]
POINT_DATA 3682
SCALARS point_scalars float 1
LOOKUP_TABLE default
-101.06
-39.773
-32.1222
-35.4639
-99.1413
-39.7187
-32.6726
-35.4628
-38.6671
-39.1146
-61.9147
-50.9653
-38.6259
-39.1201
-61.7231
-50.9612
-32.383
-91.4274
-36.8379
-37.7136
-40.8169
-38.5584
-37.1757
27.201
-94.0304
-38.6522
-35.2665
-41.4838
-35.2939
-33.7489
59.7224
-75.9907
-52.4335
-46.7411
-40.8633
-33.9886
-33.0452
-40.4895
-48.2963
-78.8005
-61.649
-37.9173
-35.3178
-35.3178
13.1335
-118.244
-38.9204
-39.2517
-36.5529
-36.0582
-33.1518
142.218
-32.9694
-31.9961
164.453
-33.7343
-33.5146
-28.6161
-33.0912
-81.7562
-64.791
-35.3092
-34.406
-34.406
-32.9932
-138.899
-39.0226
-39.3303
-36.1424
-36.0297
-33.1219
142.658
-32.7815
-30.9208
164.585
-33.7305
-33.3811
-28.2201
-33.2901
-80.6779
-64.7372
-35.0034
-34.4573
-34.3593
5.81918
-91.0887
-36.7969
-37.7571
-40.7452
-38.547
-37.2567
10.4166
-93.5346
-38.6019
-35.4483
-41.4333
-35.2836
-33.7327
62.2432
-75.8563
-52.3409
-46.6609
-41.0903
-33.9619
-33.0293
-40.5415
-48.3542
-78.6214
-62.3046
-37.7896
-35.3142
-35.3142
-30.0052
-171.963
-45.28
-33.7972
-27.3782
-39.085
-59.6309
-38.6953
-35.2058
-49.4736
-31.4153
-45.1548
-33.7875
-39.1172
-38.7594
-49.4549
-35.8996
-42.5927
-39.7267
-41.2114
-38.5997
-54.6048
-5.42727
-67.1575
-35.8823
-42.5697
-41.2036
-54.5598
-51.3989
-51.4244
-52.7707
-10.8181
201.724
-41.7481
-41.7315
-36.5198
-90.7354
-48.0821
-47.9974
-38.2164
-44.3493
-27.4548
-31.633
-139.541
-62.5847
-34.2108
-31.4773
-37.7247
-10.3138
-60.3049
-43.239
-33.6995
-34.4605
-40.6839
-138.942
-32.2068
-62.4347
-31.4781
-34.1932
-37.8014
-60.8489
-10.5187
-43.1825
-34.4577
-33.6932
-40.7281
-38.3603
-36.8258
-39.3936
-39.4573
-38.3298
-36.0107
-38.1231
-38.5901
-38.4298
-49.2143
-58.7512
-10.3947
-53.0057
-45.847
-51.6616
-65.6449
-38.5798
-39.4635
-36.8017
-39.3555
-38.3047
-38.5943
-36.0051
-38.1334
-38.2522
-10.6163
-49.1545
-58.6815
-52.9872
-65.5951
-45.8253
-51.636
-65.1681
191.842
-75.8105
97.4541
-50.1162
-49.8465
-43.02
-30.5856
-34.6606
-20.67
-45.3656
-38.7497
-17.743
181.525
-51.778
-14.2658
-39.6988
-30.8696
-48.0394
-44.8189
-65.2338
192.02
-50.1122
-49.8775
-43.0405
-30.5659
-45.3472
-38.7521
-51.8275
-14.1708
-47.8461
-44.8063
-38.7361
-36.27
-44.4161
-42.6102
-44.5201
-37.2662
-41.254
-42.9981
-37.0362
-39.2804
-47.0231
-82.5401
18.1888
-98.098
-74.5636
-54.9512
-38.7186
-36.2687
-44.4511
-42.5704
-41.2404
-42.9506
-46.9776
-82.4513
-66.1016
-44.8875
-44.2417
-59.1849
-66.1005
-59.3517
-44.2876
-45.004
-70.8013
-70.7642
-43.6269
-43.5747
-26.7946
13.3773
12.4554
-26.8745
131.447
134.712
135.343
131.739
-39.5373
-38.1498
-45.8685
-48.7583
-39.5058
-48.6977
-45.8443
-38.1421
-37.0056
-37.0044
-36.8285
-36.8268
-91.4155
-68.4954
-68.4654
-91.0556
-41.6607
-42.4623
-42.8008
-47.5583
-41.6229
-47.5112
-43.0358
-42.5019
-39.4137
-39.4097
-35.6911
-35.6802
-55.4935
-39.7788
-39.7833
-55.4689
-28.6028
-28.5744
-32.0617
-32.0707
-27.8854
-131.928
-87.8783
-36.0092
-35.6437
-36.2853
2.72836
-51.6932
-54.0347
-34.7183
-34.7118
-37.8278
-132.362
-31.3809
-87.14
-35.5941
-36.0006
-36.1867
-51.7107
1.92032
-54.0997
-34.7089
-34.7015
-37.8545
-39.5736
-37.3478
-37.7009
-39.2561
-41.6415
-36.9201
-36.8315
-39.2415
-53.3863
-55.4635
-61.02
-60.0081
-51.7908
-50.1822
-50.9024
-59.0919
-39.5717
-39.2507
-37.3176
-37.6497
-41.5854
-39.2634
-36.9212
-36.8964
-53.8495
-59.6289
-55.3374
-60.8251
-51.7936
-59.0916
-50.1816
-50.8906
-33.634
-18.8952
-86.395
135.619
-169.367
-168.768
-100.678
71.6077
-51.7394
-41.9566
-48.4011
-47.6851
-34.033
-33.4866
-41.5872
-32.4774
-28.3623
-28.3613
-30.7506
-21.0262
-40.9784
-38.3813
-44.4022
-38.9033
-62.8591
-73.3136
-28.8291
94.5131
-38.3751
-34.9622
-50.6325
-21.0173
-34.9016
-34.9037
-37.2899
-32.1067
-44.233
-54.3362
-49.2655
-45.9197
-33.5592
-19.1451
-86.417
135.799
-51.5831
-41.7888
-48.4783
-47.6051
-34.0053
-33.477
-41.5873
-32.4633
-41.0628
-38.4063
-44.4101
-38.913
-38.5802
-35.099
-50.673
-21.0194
-44.2595
-54.2905
-49.1812
-45.9189
-36.2274
-35.6661
-37.8424
-36.0527
-40.844
-45.1315
-42.0118
-42.7028
-39.6389
-39.6452
-41.81
-38.2384
-39.8246
-42.9304
-41.0816
-40.9756
-38.6183
-38.6187
-37.6904
-39.9143
-55.9695
-53.3508
-52.6969
-66.8063
-4.34488
-4.7443
15.6417
-43.404
-66.9433
-66.9032
-70.3515
-62.7527
-36.2052
-35.6535
-37.8236
-36.0441
-40.819
-45.0995
-42.0297
-42.664
-39.802
-42.8979
-41.0729
-40.9205
-55.9094
-53.3013
-52.6631
-66.7719
-60.51
-50.6875
-51.7096
-46.2059
-60.5212
-50.6978
-51.7504
-46.2429
-61.7937
-52.1244
-52.1168
-47.5143
-17.5455
-11.4513
-11.2832
4.48035
205.368
150.89
191.124
205.707
-40.0678
-42.2079
-41.3154
-43.881
-40.0758
-42.173
-41.2844
-43.8206
-36.4537
-36.7101
-36.6349
-36.4547
-88.79
-100.838
-80.7332
-88.6756
-46.6282
-46.3423
-48.323
-45.7691
-46.632
-46.3002
-48.2065
-45.7055
-37.6601
-38.3914
-38.3928
-38.6439
-41.6293
-44.5209
-44.519
-48.5706
-28.9185
-26.0427
-29.6316
-28.9046
-89.843
107.162
-92.4182
86.1396
-64.7536
-66.2686
-40.4396
-32.1679
-32.3739
-29.2817
-41.981
-36.7145
-79.7898
91.5148
-34.0787
109.784
-56.8652
-34.2969
-41.0189
-33.0292
-37.0323
-32.6683
-42.1359
-39.8877
-92.4016
84.9793
-89.8537
108.179
-64.7289
-66.176
-32.3664
-29.2518
-40.4083
-32.1469
-41.9613
-36.6023
-34.5067
111.055
-79.7122
91.5213
-56.8838
-34.3086
-37.0368
-32.6617
-41.1093
-33.0221
-42.2779
-39.9003
-45.3444
-40.4887
-38.5966
-36.8357
-39.2317
-39.5523
-41.4499
-37.9359
-40.3024
-38.9892
-37.1862
-36.5725
-38.1604
-39.5761
-37.5942
-40.3348
-45.9697
-4.08492
-47.715
-49.4726
-54.7812
-80.4417
9.1786
-45.7128
-51.0896
-57.7024
-45.6128
-45.7394
-50.2103
-59.584
-66.0748
-63.4238
-45.1253
-40.5032
-41.4638
-37.9372
-38.578
-36.8238
-39.261
-39.5138
-40.2851
-39.0078
-37.5979
-40.3155
-37.1829
-36.5707
-38.1623
-39.514
-46.0246
-4.30504
8.57231
-45.6476
-47.7107
-49.4053
-54.6996
-80.302
-51.0455
-57.6751
-66.0358
-63.3778
-45.5929
-45.7148
-50.1854
-59.5576
-66.9297
-62.0716
169.439
171.806
-74.6192
-74.6331
102.937
102.877
-57.0992
-45.0613
-57.6888
-45.1185
-42.7198
-42.9651
-30.3711
-31.2852
-34.9394
-34.9327
-23.806
-23.7872
-43.6108
-47.0231
-38.8536
-38.5674
-21.3211
-21.7813
168.791
167.535
-46.6352
-58.7656
-21.2874
-0.463671
-39.7791
-39.7801
-31.2206
-31.2273
-46.8883
-48.7996
-49.1426
-41.9905
-66.9458
-62.1952
171.991
169.648
-57.0885
-45.0671
-57.6651
-45.1502
-43.0417
-42.7286
-30.3472
-31.2685
-43.5838
-46.9892
-38.8598
-38.5709
-58.8079
-46.678
0.388083
-21.2406
-48.6967
-46.5308
-41.9926
-49.1345
-39.2355
-38.2002
-36.4677
-36.3847
-44.3393
-44.4577
-40.8945
-44.9441
-44.3102
-44.2971
-37.1921
-37.194
-39.5853
-43.0161
-42.206
-44.9985
-36.987
-36.9852
-39.3355
-39.3342
-46.4215
-47.9053
-93.2598
-73.0424
16.5782
15.9855
-96.9505
-96.5555
-73.1307
-73.0927
-54.8975
-54.8783
-39.1971
-38.1816
-36.466
-36.3848
-44.4895
-44.4043
-40.8587
-44.8962
-42.9951
-39.5758
-42.1646
-44.9411
-47.8551
-46.3919
-73
-93.1286
-90.5085
-54.4906
-58.953
-87.7664
-39.5199
-40.5422
-45.6806
-43.8397
-53.7142
-46.1428
-46.5796
-44.2563
-75.0079
-83.1359
-61.1608
-51.5455
-90.3799
-87.8036
-58.9606
-54.4631
-74.9277
-51.6286
-61.1641
-83.077
-53.5969
-44.2677
-46.6217
-46.19
-39.6929
-43.842
-45.7083
-40.5625
-89.9849
-98.7278
-60.8866
-54.0368
-89.5654
-53.9201
-60.8965
-98.7452
-41.8295
-41.7
-47.0228
-42.4595
-41.8136
-42.4727
-47.0122
-41.69
-37.3227
-26.9335
-17.3491
-29.9159
-27.1956
14.9248
3.10656
-10.8087
-27.7477
-11.0634
3.09778
14.1724
-37.4522
-31.1662
-17.4666
-26.8225
14.544
127.876
152.315
76.0992
72.3158
117.916
188.743
125.429
72.4015
125.401
187.76
109.306
17.752
75.8671
152.52
128.37
-38.4282
-38.3708
-40.5908
-40.9567
-37.4123
-39.5632
-39.6051
-37.1305
-49.7283
-51.3916
-43.395
-42.8417
-55.5901
-45.2792
-44.3818
-53.4495
-38.3913
-40.9209
-40.5635
-38.33
-55.5068
-53.404
-44.3387
-45.2308
-49.7135
-42.8274
-43.3861
-51.3487
-37.4182
-37.1165
-39.5583
-39.5618
-37.738
-38.1572
-36.6439
-36.2942
-37.7268
-36.2833
-36.6451
-38.1607
-37.5175
-37.6668
-36.575
-36.1136
-37.5138
-36.1193
-36.5736
-37.6648
-80.7444
-72.5768
-100.192
-39.1946
-57.9746
-69.4884
-78.864
-62.5525
-57.9412
-62.5139
-78.8129
-69.453
-80.6167
-39.2566
-99.954
-72.5309
-41.475
-42.3059
-44.5674
-40.0686
-41.3607
-40.4334
-46.9558
-46.5903
-38.8643
-46.4333
-46.4241
-41.5037
-50.1669
-42.9432
-47.6988
-51.3543
-41.3087
-40.0288
-44.5245
-42.2995
-50.1607
-51.2844
-47.5737
-42.9105
-38.9557
-41.4924
-46.3552
-46.4431
-41.3163
-46.5861
-46.9276
-40.4169
-40.6876
-40.0268
-38.7048
-38.8734
-40.5902
-38.8962
-38.7058
-40.0228
-33.8469
-31.1626
-37.8729
-39.3567
-33.7978
-39.348
-37.8715
-31.1699
-60.5039
-51.0447
-48.5435
-62.8472
-37.1095
-37.2652
-41.7037
-42.5813
-37.121
-42.5887
-41.6954
-37.2662
-60.4826
-62.8107
-48.5377
-51.0305
-33.2466
-24.3868
-27.4937
-32.3708
-33.2234
-32.3548
-27.4739
-24.3727
-33.1978
-32.2945
-30.1153
-32.7014
-33.2053
-32.7138
-30.1264
-32.3124
-48.7337
-141.565
-123.397
-38.9685
-37.0065
-36.675
-6.66915
-51.744
-53.6872
-35.1534
-35.1024
-36.4876
-146.75
-55.7028
-119.941
-36.9543
-38.9948
-36.4119
-51.4346
-7.9002
-53.5968
-35.0898
-35.1413
-36.4989
-39.8617
-37.7723
-37.3377
-38.9459
-44.7848
-37.7616
-37.4571
-39.6498
-61.273
-59.2712
-61.1314
-77.8559
-51.2078
-49.8712
-50.8597
-54.475
-39.7995
-38.9258
-37.7379
-37.2899
-44.7585
-39.6608
-37.7676
-37.5149
-61.1046
-77.5743
-59.1009
-61.0055
-51.2091
-54.4489
-49.872
-50.8557
-25.8655
-23.3565
-99.5623
74.2116
-172.139
-171.827
-123.676
7.11842
-47.9944
-43.6898
-47.9217
-46.9948
-34.0302
-33.5251
-39.0796
-32.9881
-27.5362
-27.5717
-28.9274
-23.4842
-40.0575
-38.3373
-42.0498
-38.8295
-59.1579
-73.6356
-39.0182
-5.55459
-39.1878
-36.5749
-46.8869
-27.6906
-35.1153
-35.1166
-36.2188
-33.4527
-46.6571
-52.5921
-49.4077
-47.6271
-25.9849
-22.7879
-99.6181
74.2744
-47.873
-43.5695
-48.0466
-46.8672
-34.0111
-33.5148
-39.0491
-32.9695
-40.0834
-38.3657
-42.0751
-38.8534
-39.5471
-36.5835
-46.9133
-27.9979
-46.6622
-52.5627
-49.3632
-47.616
-35.9292
-35.6686
-36.5387
-35.9257
-41.7445
-43.7238
-42.3704
-42.6441
-39.7671
-39.7706
-40.6913
-38.92
-40.6787
-41.8671
-41.1443
-40.8081
-38.6035
-38.6037
-38.1167
-39.1849
-55.2308
-54.1501
-53.5757
-60.1986
-4.86037
-5.13912
6.78621
-20.1748
-67.1341
-67.1107
-68.6388
-65.7439
-35.9091
-35.6534
-36.5212
-35.9124
-41.7217
-43.6978
-42.3631
-42.6108
-40.6571
-41.8373
-41.1198
-40.7709
-55.1803
-54.1276
-53.5331
-60.1588
-55.2506
-50.9805
-51.5013
-48.1928
-55.2789
-50.9976
-51.5419
-48.2205
-57.0248
-52.6017
-52.6024
-49.9065
-18.8245
-11.0158
-10.9004
-4.46063
208.579
192.956
206.102
208.748
-40.8294
-41.8816
-41.3791
-42.801
-40.8511
-41.8518
-41.3113
-42.7334
-36.4998
-36.5793
-36.5434
-36.5005
-90.1939
-96.7175
-85.1039
-90.1168
-47.8872
-47.1341
-48.6783
-47.462
-47.837
-47.0737
-48.5805
-47.389
-37.9125
-38.2581
-38.2591
-38.5484
-42.8765
-44.4055
-44.4068
-46.2525
-27.9985
-28.5688
-28.6297
-27.989
-25.0422
-26.1362
-102.915
65.9346
-126.052
-160.249
-111.304
-0.0589349
-70.6314
-56.215
-64.6484
-64.5913
-34.7911
-33.9347
-39.7639
-32.4956
-33.1894
-29.8294
-31.4097
-30.49
-35.9521
-39.3966
-40.7403
-37.3051
-0.463539
-14.1789
-77.7611
51.9303
-52.1173
-62.687
-43.5705
27.3644
-46.1284
-40.922
-53.4754
-38.2148
-33.934
-33.5664
-39.673
-33.099
-34.3881
-34.6636
-35.8666
-33.461
-39.2132
-42.134
-41.6126
-40.1524
-126.064
-159.439
-111.045
-3.62119
-25.4738
-26.6218
-102.773
67.3225
-70.3586
-56.0291
-64.6024
-64.4446
-33.1675
-29.8369
-31.4043
-30.462
-34.7934
-33.9165
-39.7328
-32.4784
-36.0493
-39.5852
-40.6859
-37.0775
-52.2974
-68.048
-44.2825
29.4556
-1.20302
-14.5796
-77.6254
52.3946
-46.1749
-40.7978
-53.4271
-38.1797
-34.3795
-34.6657
-35.8716
-33.4575
-33.9265
-33.5593
-39.5662
-33.0933
-39.2537
-42.1694
-41.7033
-40.1724
-38.8237
-40.5188
-43.0437
-39.1079
-37.0089
-36.3781
-37.459
-36.7581
-38.8966
-40.0878
-39.4887
-39.4373
-39.4562
-39.5045
-40.5439
-38.5768
-38.284
-38.6156
-41.7711
-38.5727
-36.4161
-35.7656
-35.8391
-36.3554
-36.7446
-39.0057
-38.0105
-38.1142
-38.7526
-38.6275
-38.0952
-39.3739
-50.2423
-34.8221
-44.6733
-21.4813
-52.3037
-46.9056
-48.5717
-49.5015
-59.7952
-57.1555
-57.6149
-66.472
-22.2521
-5.0843
1.92528
-25.5982
-52.2443
-52.6037
-51.0679
-58.0053
-48.7923
-44.3689
-45.5332
-45.8428
-51.1907
-52.6507
-51.2783
-55.7904
-64.0109
-66.5128
-66.0857
-65.3808
-39.2499
-40.2888
-42.5163
-39.1537
-39.4577
-39.512
-40.5533
-38.5803
-36.9814
-36.3546
-37.4393
-36.7395
-38.8503
-40.0573
-39.4587
-39.3979
-38.2262
-38.6163
-41.7438
-38.5684
-38.767
-38.6286
-38.0999
-39.3706
-36.413
-35.7573
-35.8399
-36.3513
-36.7841
-38.9894
-38.0097
-38.0973
-50.4399
-34.7881
-44.7039
-21.8744
-22.2499
-5.52301
1.53012
-25.6452
-52.2153
-46.8627
-48.5321
-49.4357
-59.5934
-57.0848
-57.5012
-66.3896
-52.2367
-52.577
-51.0525
-57.9647
-63.9676
-66.4662
-66.0405
-65.3347
-48.783
-44.3394
-45.51
-45.817
-51.1696
-52.6027
-51.2559
-55.7548
-67.6447
-66.795
-66.3296
-63.6806
169.173
199.152
185.803
188.779
-86.2969
-67.8804
-75.5745
-75.5844
108.702
115.021
94.623
94.6374
-49.6479
-50.451
-53.0885
-47.0675
-48.3209
-51.201
-53.4389
-47.0814
-41.8671
-44.5898
-42.8674
-43.0418
-31.6696
-29.7451
-31.2387
-30.8223
-32.5776
-36.381
-34.7539
-34.7536
-20.6004
-21.628
-21.6383
-21.6275
-45.0225
-45.8491
-45.1516
-46.3368
-38.9171
-38.5595
-38.8963
-38.7488
-21.1439
-16.7492
-18.5086
-19.1191
165.41
179.655
177.927
172.369
-51.2955
-51.9844
-49.1594
-55.9169
-16.6097
-12.5195
-19.4239
-7.57629
-38.6142
-40.4735
-39.7407
-39.7408
-31.6492
-30.3227
-30.9404
-30.9444
-48.9533
-47.6578
-48.339
-48.5996
-45.1938
-44.6728
-46.8486
-43.214
-67.7211
-66.7663
-66.3556
-63.8108
169.368
199.358
188.947
186.011
-49.6471
-50.4539
-53.0885
-47.0637
-48.2797
-51.1463
-53.3635
-47.1001
-41.8889
-44.5893
-43.0742
-42.8873
-31.6556
-29.7256
-31.2199
-30.8049
-45.0181
-45.8175
-45.1263
-46.3111
-38.9186
-38.5616
-38.8995
-38.7493
-51.3489
-52.0307
-55.9544
-49.2015
-16.5086
-12.4069
-7.76673
-19.3137
-48.7794
-47.5068
-48.5206
-47.6547
-45.1874
-44.6701
-43.2088
-46.84
-38.1782
-39.3862
-39.0436
-38.4036
-36.1645
-36.3701
-36.3313
-36.2913
-42.4102
-45.354
-44.4025
-44.3938
-42.646
-42.401
-41.7531
-43.7131
-43.0793
-45.9096
-44.4614
-44.4547
-37.6978
-36.9443
-37.2508
-37.252
-41.3351
-41.3414
-40.3428
-42.1134
-41.0057
-44.9714
-42.4402
-43.6778
-37.3314
-36.8022
-37.0515
-37.0504
-39.7177
-38.9373
-39.3126
-39.3121
-49.3663
-45.2766
-46.9852
-47.2912
-75.9564
-86.606
-89.0242
-77.1824
20.0025
11.4215
17.6402
17.0735
-78.1415
-103.345
-97.1934
-96.9525
-72.3032
-77.3278
-74.1687
-74.1424
-58.9443
-51.5618
-54.6431
-54.6356
-38.1596
-39.3655
-39.0252
-38.3813
-36.1602
-36.3706
-36.3298
-36.2907
-42.4446
-45.4028
-44.4223
-44.4499
-42.6054
-42.3638
-41.7158
-43.6699
-41.3225
-41.3273
-42.0962
-40.3319
-40.9709
-44.9173
-42.3961
-43.6238
-49.3266
-45.234
-47.24
-46.9598
-75.8907
-86.489
-77.1206
-88.8827
-69.62
-65.4184
-66.8344
-64.4393
-45.3161
-42.233
-43.236
-44.8785
-45.0834
-46.1545
-44.5787
-44.3345
-65.473
-58.429
-60.3399
-59.0907
-69.6402
-65.405
-66.8413
-64.419
-65.5051
-58.5454
-60.4561
-59.1085
-45.1382
-46.1883
-44.631
-44.3754
-45.5371
-42.3243
-43.2802
-44.9646
-80.2312
-68.3664
-73.1483
-63.4918
-80.2483
-68.2807
-73.1481
-63.4504
-42.6056
-42.4515
-44.4876
-44.0162
-42.5685
-42.4271
-44.4596
-43.9955
-29.7896
-30.1856
-24.4279
-24.4862
7.99428
13.259
7.4019
15.4965
6.72231
12.4495
8.07289
14.5873
-30.003
-30.2227
-24.6239
-24.5038
132.123
155.651
145.795
108.1
114.119
136.687
136.211
144.183
137.421
114.287
144.726
136.663
156.136
132.336
108.103
146.081
-38.9899
-39.5349
-39.3195
-40.1296
-37.6106
-38.1346
-38.1619
-38.7774
-45.7412
-48.1787
-44.2368
-46.3971
-49.1993
-51.0559
-46.6017
-48.3514
-38.9678
-39.4986
-39.3476
-40.0951
-49.1334
-50.9863
-46.5486
-48.2941
-45.7209
-48.1537
-44.2133
-46.3687
-37.6045
-38.1311
-38.1495
-38.7685
-36.9197
-37.418
-36.6978
-37.1032
-37.4178
-36.9139
-37.1045
-36.6962
-37.1737
-36.7179
-36.9177
-36.5663
-36.7176
-37.171
-36.5653
-36.9156
-91.9978
-72.4184
-92.9367
-94.691
-64.5266
-66.9485
-70.7273
-71.3201
-66.9123
-64.5
-71.2813
-70.6867
-72.1441
-91.6298
-94.3106
-92.7907
-41.3057
-40.2868
-42.9427
-41.9658
-41.3892
-42.3244
-42.5836
-44.9241
-41.1679
-42.6429
-42.8407
-44.5011
-50.1182
-46.1097
-48.859
-46.0736
-41.2766
-40.2299
-42.9119
-41.9254
-50.0915
-46.0855
-48.783
-46.016
-41.7412
-43.385
-43.0243
-44.5945
-41.3624
-42.3178
-42.6076
-44.9502
-39.3946
-39.9389
-39.0628
-39.3969
-39.3983
-39.923
-39.0651
-39.3946
-33.7091
-36.0883
-35.2746
-37.3298
-33.7084
-36.0851
-35.2639
-37.3253
-56.2596
-59.4205
-51.9852
-55.0782
-38.4358
-39.7965
-39.7829
-40.9057
-38.4409
-39.8043
-39.7851
-40.9095
-56.2297
-59.3857
-51.9679
-55.0586
-30.891
-28.6942
-28.7896
-26.2524
-28.6656
-30.8641
-26.2245
-28.7617
-32.4854
-32.6051
-31.6294
-31.64
-32.6127
-32.4926
-31.6538
-31.637
-100.574
21.7695
-111.628
-143.104
-88.9889
-89.0086
-41.5245
-34.0659
-33.5745
-34.9302
-40.6807
-34.6354
-74.3393
57.9673
-52.6267
15.287
-62.5944
-44.1874
-38.4505
-33.5661
-35.659
-33.8669
-38.3519
-37.3506
-110.66
-142.137
-99.8886
26.4504
-88.7148
-88.1761
-33.5519
-34.8879
-41.5115
-34.0575
-40.5649
-34.8007
-52.7576
15.1646
-74.1326
58.0205
-62.6512
-44.2757
-35.6694
-33.8573
-38.3922
-33.5583
-38.372
-37.3674
-37.7336
-41.2661
-37.4307
-37.5666
-38.534
-38.398
-40.252
-38.3862
-44.1241
-41.2033
-36.3712
-37.3421
-37.3144
-36.3977
-38.2569
-40.7652
-49.6439
-54.7587
-56.0228
-55.362
-59.3594
-71.7457
-40.8259
-80.9276
-50.376
-55.4137
-49.7888
-49.8707
-50.0289
-54.5867
-58.1019
-59.9254
-38.0395
-41.2853
-40.2551
-38.3768
-37.3991
-37.5458
-38.4419
-38.3559
-43.9908
-41.119
-38.2661
-40.8802
-36.3776
-37.3442
-37.3304
-36.6504
-49.7246
-54.9427
-40.6581
-80.5995
-55.8804
-55.2606
-59.2574
-71.6542
-50.3795
-55.3906
-58.0356
-59.8914
-49.7894
-49.8684
-50.0218
-54.5547
-101.575
70.6422
-92.208
73.0046
-87.8922
-84.8833
132.042
138.412
-121.169
2.12997
-121.062
0.75435
-100.365
-100.374
74.3637
74.3057
-54.3069
-52.4898
-43.3761
-41.8353
-50.3544
-45.6319
-50.8834
-44.9217
-39.0825
-32.6187
-39.1939
-32.9455
-40.9292
-41.7353
-32.635
-32.5484
-29.5999
-25.7125
-29.5955
-25.701
-30.8555
-30.8576
-22.3126
-22.3059
-43.6112
-39.6904
-40.3778
-38.5436
-43.1203
-45.1378
-38.8749
-39.352
-40.1101
50.1801
-42.8603
48.7944
-28.604
-29.7196
133.732
131.958
-47.3385
-28.8896
-42.5821
-21.6649
-48.526
-52.5072
-25.3731
-16.1993
-36.1085
-33.3551
-36.1098
-33.3918
-37.295
-37.2952
-32.1485
-32.1528
-45.3072
-43.1212
-51.9552
-53.7771
-47.9631
-50.6385
-48.3204
-44.1029
-101.639
70.739
-92.2816
72.9381
-87.9305
-84.8658
138.58
132.323
-54.2543
-52.318
-43.3667
-41.7671
-50.3636
-45.704
-50.8152
-44.8306
-39.0617
-32.6027
-39.1474
-32.9416
-41.7288
-40.9218
-32.6221
-32.5253
-43.6779
-39.7177
-40.3871
-38.5637
-43.1176
-45.1278
-38.8846
-39.36
-47.5009
-28.7008
-42.6208
-21.7908
-52.5854
-48.567
-16.0769
-25.3987
-45.3532
-43.1345
-51.8992
-53.7511
-50.4619
-47.8901
-44.1056
-48.3032
-36.9817
-36.2057
-35.8616
-35.9282
-37.8503
-37.2312
-36.1357
-36.048
-40.8779
-40.8975
-44.7524
-45.3068
-40.9501
-43.0171
-41.8553
-43.8993
-40.5925
-38.8356
-40.6005
-38.8404
-41.7838
-41.7785
-38.2166
-38.2187
-39.6338
-39.4418
-42.7812
-42.9483
-40.2257
-41.8402
-40.3512
-41.8514
-38.1081
-39.2446
-38.1096
-39.2431
-37.6448
-37.6436
-39.9631
-39.9615
-55.2225
-63.275
-52.8115
-58.0154
-52.2643
-52.5786
-69.3447
-64.5023
7.58502
-20.2081
6.92887
-20.4508
15.8474
15.3194
-41.8421
-41.8355
-67.9917
-65.9545
-67.9537
-65.9107
-70.1652
-70.143
-62.7293
-62.709
-36.9459
-36.1893
-35.8472
-35.9191
-37.8284
-37.2142
-36.1257
-36.0408
-40.869
-40.865
-44.7367
-45.2632
-43.0327
-40.9725
-41.8189
-43.8566
-39.6166
-39.4145
-42.7551
-42.9113
-41.8289
-40.2205
-40.312
-41.8054
-55.1997
-63.2219
-52.7686
-57.9696
-52.5377
-52.2577
-64.4705
-69.3088
-59.6296
-60.8288
-54.0226
-47.5409
-48.6495
-56.0544
-45.9977
-46.2617
-59.6418
-60.8297
-54.0295
-47.5544
-56.0842
-48.6967
-46.3015
-46.0314
-61.6207
-61.6258
-56.2607
-49.3333
-56.2582
-49.3347
-47.3509
-47.3462
-17.2361
-17.3122
-15.9272
-6.10772
-5.72954
-15.8363
4.05408