# vtk DataFile Version 2.0
tet_velo
ASCII
DATASET UNSTRUCTURED_GRID
POINTS 29498 float
-0.757141 0.235 -2.175
-0.765 0.365 2.10483
-0.756764 0.725 -2.115
-0.650236 1.045 2.165
0.757152 0.235 -2.175
0.765 0.365 2.10483
0.756764 0.725 -2.115
0.650252 1.045 2.165
-0.845316 0.192778 -0.74839
-0.844699 0.239348 0.67822
-0.811366 0.921778 -0.688333
-0.763952 1.01654 0.738333
0.845287 0.192814 -0.74839
0.844699 0.239352 0.67822
0.811381 0.921788 -0.688333
0.763959 1.01654 0.738333
-1.55867 -0.176882 -3.34634
-1.56883 -0.121193 -2.20503
-1.6246 -0.139598 -0.778424
-1.62057 -0.115715 0.648174
-1.56226 -0.020112 2.07478
-1.5487 0.051035 3.21609
-1.55741 0.111934 4.3574
-1.55741 0.136109 -3.31632
-1.56478 0.217817 -2.17501
-1.63274 0.217309 -0.748386
-1.60999 0.248292 0.678228
-1.52225 0.339931 2.10485
-1.52397 0.409555 3.24615
-1.54556 0.470003 4.38747
-1.5571 0.711264 -3.2563
-1.55899 0.791177 -2.11498
-1.60417 0.927444 -0.688325
-1.54763 1.00334 0.738337
-1.44148 1.04921 2.16499
-1.48087 1.11617 3.3063
-1.52816 1.18166 4.4476
-1.5666 1.69503 -3.16622
-1.56981 1.79348 -2.0249
-1.57952 1.95127 -0.598218
-1.56603 2.07683 0.828471
-1.53906 2.15141 2.25515
-1.53739 2.20355 3.39647
-1.55264 2.25995 4.53778
-0.769442 -0.168291 -3.34634
-0.761967 -0.109089 -2.20503
-0.817043 -0.151473 -0.778424
-0.832119 -0.123044 0.648166
-0.795572 -0.00782616 2.07477
-0.789715 0.0597009 3.21608
-0.798134 0.116191 4.3574
-0.772693 0.137205 -3.31632
-0.779234 0.418849 3.24615
-0.793987 0.474174 4.38746
-0.77412 0.685144 -3.2563
-0.746035 1.11732 3.3063
-0.784983 1.18316 4.4476
-0.779192 1.67704 -3.16622
-0.779474 1.7764 -2.0249
-0.793188 1.94766 -0.598223
-0.796595 2.08163 0.828471
-0.786518 2.15413 2.25515
-0.788105 2.20448 3.39647
-0.80052 2.26056 4.53778
0.787756 -0.168284 -3.34634
0.80289 -0.10908 -2.20503
0.841752 -0.151447 -0.778424
0.824314 -0.123036 0.648167
0.767908 -0.00782411 2.07477
0.73742 0.0597033 3.21608
0.723861 0.116194 4.3574
0.769361 0.137209 -3.31632
0.716037 0.41885 3.24615
0.710231 0.474176 4.38746
0.764826 0.685147 -3.25631
0.676833 1.11732 3.3063
0.692109 1.18317 4.4476
0.787798 1.67705 -3.16622
0.792202 1.77641 -2.0249
0.780897 1.94767 -0.598223
0.74433 2.08164 0.828471
0.709104 2.15413 2.25515
0.699719 2.20449 3.39647
0.698035 2.26056 4.53778
1.57497 -0.176867 -3.34634
1.59229 -0.121171 -2.20503
1.64265 -0.13956 -0.778424
1.62772 -0.115698 0.648174
1.5567 -0.0201055 2.07478
1.51383 0.0510413 3.21609
1.49527 0.111941 4.3574
1.55552 0.136121 -3.31632
1.56328 0.217832 -2.17501
1.63578 0.217349 -0.748386
1.62231 0.248306 0.678228
1.53293 0.339935 2.10485
1.48761 0.409559 3.24615
1.47704 0.470009 4.38747
1.54797 0.711274 -3.2563
1.55322 0.791187 -2.11498
1.60299 0.927467 -0.688325
1.55569 1.00334 0.738337
1.44787 1.04921 2.16499
1.43722 1.11618 3.3063
1.45011 1.18167 4.4476
1.57168 1.69505 -3.16622
1.5764 1.79349 -2.0249
1.56743 1.95128 -0.598219
1.52451 2.07684 0.82847
1.47546 2.15142 2.25515
1.459 2.20355 3.39647
1.45725 2.25996 4.53778
-0.773645 0.48 -2.16169
5.51343e-06 0.195875 -2.21412
-0.83942 0.175698 -1.4617
-0.720022 0.705 2.14732
0 0.304363 2.16547
-0.847313 0.259711 1.39153
0 0.81781 -2.20781
-0.815451 0.854775 -1.40167
7.98702e-06 1.08208 2.20208
-0.719277 1.04295 1.45167
0.773698 0.48 -2.16174
0.839597 0.175529 -1.4617
0.720135 0.705 2.14742
0.846743 0.260282 1.39153
0.815459 0.85478 -1.40167
0.719298 1.04296 1.45167
-0.844569 0.216502 -0.035085
-0.84322 0.557278 -0.718362
-1.47109e-05 0.206712 -0.74839
-0.843966 0.627944 0.708277
7.02762e-08 0.224385 0.67822
-0.786926 0.968426 0.025
7.96758e-06 1.27591 -0.688333
3.55715e-06 1.47383 0.738333
0.84457 0.216506 -0.035085
0.843228 0.557301 -0.718362
0.843974 0.627944 0.708277
0.786935 0.968427 0.025
-0.894758 0.518639 -1.43168
-0.848114 0.592611 -0.00504249
-0.885409 0.666472 1.4216
-4.59876e-06 0.197257 -1.4617
-7.32033e-06 0.217914 -0.035085
3.51381e-08 0.256202 1.39153
2.75671e-06 0.48 -2.40616
3.99351e-06 0.705 2.33726
3.98379e-06 0.959432 -1.40167
5.76236e-06 1.47549 0.025
5.77209e-06 1.31989 1.45167
0.894758 0.518651 -1.43168
0.848119 0.592623 -0.00504249
0.885408 0.666472 1.4216
-1.16096 0.226409 -2.175
-0.759554 0.0629557 -2.19001
-0.764917 0.186103 -2.74566
-1.14363 0.352466 2.10484
-0.780286 0.178587 2.0898
-0.772117 0.391924 2.67549
-1.15788 0.758088 -2.11499
-0.765442 0.705072 -2.68565
-0.768119 1.2507 -2.06995
-1.04586 1.0471 2.165
-0.698136 1.08116 2.73565
-0.718377 1.59956 2.21008
0.780021 0.0629602 -2.19001
0.763257 0.186105 -2.74566
1.16022 0.226416 -2.175
0.766454 0.178588 2.0898
0.740519 0.391925 2.67549
1.14897 0.352468 2.10484
0.760795 0.705073 -2.68565
0.774483 1.2507 -2.06995
1.15499 0.758093 -2.11499
0.663542 1.08116 2.73565
0.679678 1.59957 2.21008
1.04906 1.0471 2.165
-1.23903 0.205043 -0.748388
-0.83118 0.0206525 -0.763407
-1.22734 0.24382 0.678224
-0.838409 0.0581521 0.663193
-1.20777 0.924611 -0.688329
-0.802277 1.43472 -0.643278
-1.15579 1.00994 0.738335
-0.780273 1.54909 0.783402
0.84352 0.0206837 -0.763407
1.24053 0.205082 -0.748388
0.834506 0.0581577 0.663193
1.23351 0.243829 0.678224
0.796139 1.43473 -0.643278
1.20718 0.924627 -0.688329
0.754145 1.54909 0.783402
1.15983 1.00994 0.738335
-1.56375 -0.149038 -2.77569
-1.55804 -0.0203865 -3.33133
-1.16405 -0.172586 -3.34634
-1.59672 -0.130396 -1.49173
-1.56681 0.0483121 -2.19002
-1.1654 -0.115141 -2.20503
-1.62258 -0.127657 -0.065125
-1.62867 0.0388555 -0.763405
-1.22082 -0.145535 -0.778424
-1.59141 -0.0679137 1.36148
-1.61528 0.0662885 0.663201
-1.22634 -0.11938 0.64817
-1.55548 0.0154615 2.64543
-1.54226 0.15991 2.08981
-1.17892 -0.0139691 2.07477
-1.55306 0.0814846 3.78674
-1.53634 0.230295 3.23112
-1.16921 0.055368 3.21608
-1.55149 0.290968 4.37243
-1.17777 0.114063 4.3574
-1.5611 0.176963 -2.74566
-1.55726 0.423687 -3.28631
-1.16505 0.136657 -3.31632
-1.59876 0.217563 -1.4617
-1.56189 0.504497 -2.14499
-1.62136 0.232801 -0.0350788
-1.61845 0.572377 -0.718356
-1.56612 0.294112 1.39154
-1.57881 0.625814 0.708283
-1.52311 0.374743 2.6755
-1.48187 0.694569 2.13492
-1.53477 0.439779 3.81681
-1.50242 0.762864 3.27623
-1.1516 0.414202 3.24615
-1.53686 0.825833 4.41753
-1.16978 0.472088 4.38746
-1.55804 0.75122 -2.68564
-1.56185 1.20315 -3.21126
-1.16561 0.698204 -3.2563
-1.58158 0.85931 -1.40165
-1.5644 1.29233 -2.06994
-1.5759 0.96539 0.0250062
-1.59185 1.43936 -0.643272
-1.49456 1.02627 1.45167
-1.55683 1.54008 0.783404
-1.46118 1.08269 2.73565
-1.49027 1.60031 2.21007
-1.50452 1.14892 3.87695
-1.50913 1.65986 3.35138
-1.11345 1.11674 3.3063
-1.5404 1.72081 4.49269
-1.15657 1.18241 4.4476
-1.56821 1.74425 -2.59556
-1.1729 1.68604 -3.16622
-1.57467 1.87237 -1.31156
-1.17464 1.78494 -2.0249
-1.57278 2.01405 0.115126
-1.18636 1.94946 -0.598221
-1.55255 2.11412 1.54181
-1.18131 2.07923 0.828471
-1.53823 2.17748 2.82581
-1.16279 2.15277 2.25515
-1.54502 2.23175 3.96712
-1.16275 2.20402 3.39647
-1.17658 2.26025 4.53778
-0.765704 -0.13869 -2.77568
-0.771068 -0.0155426 -3.33133
0.00915691 -0.168287 -3.34634
-0.789505 -0.130281 -1.49173
0.0204616 -0.109084 -2.20503
-0.824581 -0.137258 -0.0651289
0.0123547 -0.15146 -0.778424
-0.813845 -0.065435 1.36147
-0.00390269 -0.12304 0.648166
-0.792643 0.0259374 2.64542
-0.0138319 -0.00782513 2.07477
-0.793924 0.0879459 3.78674
-0.784475 0.239275 3.23111
-0.0261477 0.0597021 3.21608
-0.79606 0.295182 4.37243
-0.0371366 0.116193 4.3574
-0.773407 0.411174 -3.28631
-0.00166621 0.137207 -3.31632
-0.786611 0.446511 3.8168
-0.762635 0.768083 3.27622
-0.0315986 0.418849 3.24615
-0.789485 0.828668 4.41753
-0.0418779 0.474175 4.38746
-0.776656 1.18109 -3.21126
-0.00464679 0.685145 -3.2563
-0.765509 1.15024 3.87695
-0.76707 1.6609 3.35139
-0.034601 1.11732 3.3063
-0.792751 1.72186 4.49269
-0.0464368 1.18316 4.4476
-0.779333 1.72672 -2.59556
0.00430288 1.67704 -3.16622
-0.786331 1.86203 -1.31156
0.00636392 1.77641 -2.0249
-0.794891 2.01465 0.115124
-0.00614505 1.94766 -0.598223
-0.791557 2.11788 1.54181
-0.0261323 2.08164 0.828471
-0.787312 2.17931 2.82581
-0.0387071 2.15413 2.25515
-0.794313 2.23252 3.96713
-0.0441932 2.20448 3.39647
-0.0512424 2.26056 4.53778
0.795323 -0.138682 -2.77568
0.778558 -0.0155372 -3.33133
1.18136 -0.172575 -3.34634
0.822321 -0.130263 -1.49173
1.19759 -0.115125 -2.20503
0.833033 -0.137242 -0.0651289
1.2422 -0.145504 -0.778424
0.796111 -0.0654302 1.36147
1.22602 -0.119367 0.64817
0.752664 0.0259396 2.64542
1.16231 -0.0139648 2.07477
0.73064 0.0879488 3.78674
0.726728 0.239277 3.23111
1.12562 0.0553723 3.21608
0.717046 0.295185 4.37243
1.10956 0.114068 4.3574
0.767094 0.411178 -3.28631
1.16244 0.136665 -3.31632
0.713134 0.446513 3.8168
0.696435 0.768084 3.27622
1.10182 0.414205 3.24615
0.70117 0.828671 4.41753
1.09363 0.472093 4.38746
0.776312 1.1811 -3.21126
1.1564 0.69821 -3.2563
0.684471 1.15024 3.87695
0.688276 1.6609 3.35139
1.05703 1.11675 3.3063
0.695072 1.72186 4.49269
1.07111 1.18242 4.4476
0.79 1.72673 -2.59556
1.17974 1.68605 -3.16622
0.786549 1.86204 -1.31156
1.1843 1.78495 -2.0249
0.762614 2.01465 0.115124
1.17417 1.94947 -0.598221
0.726717 2.11788 1.54181
1.13442 2.07924 0.828471
0.704412 2.17931 2.82581
1.09228 2.15277 2.25515
0.698877 2.23252 3.96713
1.07936 2.20402 3.39647
1.07764 2.26026 4.53778
1.58363 -0.149019 -2.77569
1.56524 -0.0203725 -3.33133
1.61747 -0.130366 -1.49173
1.57778 0.0483305 -2.19002
1.63519 -0.127629 -0.065125
1.63921 0.0388943 -0.763405
1.59221 -0.0679017 1.36148
1.62502 0.0663042 0.663201
1.53527 0.0154679 2.64543
1.54482 0.159915 2.08981
1.50455 0.0814914 3.78674
1.50072 0.2303 3.23112
1.48615 0.290975 4.37243
1.5594 0.176977 -2.74566
1.55174 0.423698 -3.28631
1.59953 0.217591 -1.4617
1.55825 0.50451 -2.14499
1.62905 0.232828 -0.0350788
1.61938 0.572408 -0.718356
1.57762 0.294121 1.39154
1.589 0.625825 0.708283
1.51027 0.374747 2.6755
1.4904 0.694572 2.13492
1.48232 0.439784 3.81681
1.46241 0.762868 3.27623
1.46357 0.825839 4.41753
1.5506 0.75123 -2.68564
1.55983 1.20316 -3.21126
1.57811 0.859327 -1.40165
1.56481 1.29234 -2.06994
1.57934 0.965405 0.0250061
1.58521 1.43937 -0.643272
[...]
POINT_DATA 29498
VECTORS point_vectors float
-1.62214 -3.07135 6.7743
0.0455437 0.144807 0.412868
-1.51054 0.831092 3.78069
0.0292454 -0.144001 0.713692
1.62155 -3.0687 6.76644
-0.0458982 0.14558 0.414805
1.51156 0.832643 3.78173
-0.0310086 -0.141731 0.71021
0.0477581 0.0373064 2.74622
0.0023992 0.0503603 2.07909
0 0 0
0 0 0
-0.0400718 0.0367345 2.78551
-0.00221401 0.0504905 2.07868
0 0 0
0 0 0
-0.57341 -0.297671 19.8756
-1.1731 -0.67887 20.5596
-0.374982 -0.401378 21.3625
0.0517043 -0.13142 21.4727
0.556602 0.191775 21.4244
0.791435 0.287797 21.1928
0.830558 0.121605 20.698
-0.699988 -0.222861 19.7831
-1.61525 -0.580095 20.5044
-0.501837 -0.459969 21.4233
0.0479355 -0.213472 21.5467
0.755486 0.057932 21.503
1.04199 0.105481 21.1452
1.02439 -0.0743735 21.0042
-0.797333 0.0367426 19.6908
-1.87352 0.0832813 20.4497
-1.07019 -0.311844 21.4428
-0.214208 -0.283048 21.6868
0.713971 -0.397688 21.5335
0.920601 -0.49129 21.1838
0.648598 -0.298782 21.0537
-0.552612 0.352865 19.9371
-0.935646 0.57745 20.4088
-0.843494 0.365902 21.196
-0.224602 -0.022428 21.5212
0.213752 -0.32016 21.3425
0.331676 -0.347399 21.1478
0.279275 -0.331154 20.7329
-0.56232 -0.626577 19.3392
-1.72039 -3.20672 20.8919
-0.111737 -0.244867 21.6783
0.173029 0.191016 20.8939
0.314911 1.18244 18.6318
0.661873 1.57654 17.5759
1.00464 0.846076 16.6913
-0.769614 -0.499933 19.0005
1.19203 1.71009 11.476
1.68976 0.944176 13.2982
-1.00939 0.0977646 18.652
1.79245 -0.318316 13.135
1.23437 -0.624172 17.9615
-0.532177 0.732101 19.5218
-1.06571 1.56447 20.134
-1.33035 1.52795 21.365
-0.288245 0.1271 21.948
0.164724 -0.537487 21.4809
0.281875 -0.578179 21.0251
0.113431 -0.43795 20.9678
0.573787 -0.614735 19.3694
1.79844 -3.007 20.8331
0.103885 -0.259625 21.6988
-0.168738 0.195372 20.8623
-0.250089 1.19013 18.4245
-0.506977 1.58166 17.3127
-0.940685 0.889997 15.905
0.772092 -0.50022 18.9934
-0.891961 1.51114 9.51558
-1.73725 1.03703 11.8531
1.01022 0.0993779 18.6298
-1.48847 -0.336657 10.4885
-1.24051 -0.54236 16.6562
0.535168 0.727163 19.5284
1.07188 1.5474 20.1391
1.33134 1.5595 21.3633
0.282332 0.139883 21.9737
-0.143252 -0.552544 21.4968
-0.264475 -0.620667 21.0197
-0.112751 -0.465645 20.5468
0.566998 -0.285792 19.8888
1.15781 -0.658781 20.5609
0.373009 -0.402965 21.3521
-0.0496983 -0.135358 21.4678
-0.554859 0.199547 21.4259
-0.824101 0.2907 21.2389
-0.848506 0.156472 20.7957
0.700519 -0.222236 19.7777
1.61778 -0.580367 20.5024
0.50049 -0.457709 21.4214
-0.0472069 -0.210705 21.5473
-0.736263 0.0518155 21.5088
-1.07165 0.110304 21.1887
-1.05692 -0.00759613 21.1181
0.801232 0.0401444 19.684
1.88205 0.0865687 20.4486
1.06977 -0.313384 21.4472
0.209936 -0.280354 21.6893
-0.706251 -0.392324 21.5259
-0.930763 -0.522604 21.2123
-0.820869 -0.31526 20.8269
0.549598 0.352309 19.9396
0.9299 0.573534 20.4123
0.855007 0.371642 21.2006
0.228689 -0.0299916 21.5223
-0.20742 -0.328154 21.3469
-0.317351 -0.379706 21.0887
-0.232415 -0.333461 20.8579
-0.73441 -0.0556331 1.55567
0.000624548 -0.135477 0.70956
-0.034041 0.0163201 1.33993
0.00826421 0.00241301 0.0304545
-4.24102e-05 0.00244542 0.0168025
-0.0477542 0.0760927 1.38284
7.87749e-05 0.248948 0.537217
-0.286639 -0.145117 0.800331
-0.000395821 0.030948 -0.089387
0 0 0
0.718349 -0.0543655 1.52457
0.0373931 0.0136305 1.39089
-0.00848553 0.00253713 0.0308079
0.043742 0.0725256 1.31482
0.286844 -0.145319 0.800609
0 0 0
-0.0249188 0.135061 3.89709
0 0 0
2.10211e-06 -1.19347e-05 0.0459841
3.00821e-05 0.0004974 0.00172862
-1.60568e-06 0.0014337 0.0304374
0 0 0
0.00132183 0.0460666 0.0945732
-4.95082e-06 -0.000428842 0.0103173
0.0248445 0.134731 3.89842
0 0 0
-3.0054e-05 0.000500134 0.00173402
0 0 0
-0.000403236 -0.00242776 0.0215913
9.58343e-06 0.000303624 0.00209613
0.00787816 0.0297281 0.201393
8.63623e-08 1.07083e-07 1.18433e-05
2.14084e-21 -3.34606e-19 -2.12969e-17
1.1012e-08 -3.66244e-07 -2.2001e-05
2.98904e-22 1.19188e-17 8.33096e-18
0 0 0
4.79561e-06 -8.9894e-06 -5.95505e-05
1.16793e-06 0.00236621 0.0284448
-3.30278e-06 0.000287963 -0.000614631
0.000404417 -0.00242746 0.0216479
-9.51935e-06 0.00030253 0.00209021
-0.00789875 0.0299406 0.20313
-3.08653 -1.51993 20.4715
-2.79395 -5.03907 21.1453
-2.22329 -1.75472 17.9464
1.23771 0.564776 19.2178
-0.0749016 1.45324 10.4573
0.288766 1.28781 6.58499
-3.63686 0.544969 20.3108
-3.06709 0.94764 16.9793
-2.35707 2.63765 19.9484
1.19428 -0.205916 18.1325
0.879528 0.16678 6.89939
0.539651 -0.822965 20.2328
2.86455 -4.79857 21.0917
2.2271 -1.75874 17.9311
3.08876 -1.52797 20.4607
0.142562 1.4153 10.1106
-0.0179603 1.24255 5.66014
-1.2325 0.544226 19.314
3.06606 0.95709 16.9428
2.35996 2.60503 19.9531
3.64616 0.552401 20.3107
-0.777896 0.200638 5.88511
-0.577753 -0.812782 19.7065
-1.18816 -0.210894 18.2722
-0.312981 -0.783487 21.7351
0.0727183 0.0838544 17.834
0.191057 -0.276523 21.0204
0.236186 0.287748 15.9728
-1.73836 -0.896533 21.757
-3.58128 1.66592 21.7492
-0.270494 -0.446847 20.6902
-0.43958 0.0643627 21.2341
-0.0819655 0.0724239 18.1635
0.315972 -0.78326 21.7287
-0.232747 0.288944 15.9104
-0.185897 -0.284897 21.1084
3.62037 1.70384 21.7469
1.73877 -0.898912 21.7538
0.400837 0.0826186 21.012
0.275286 -0.456874 20.7696
-0.939469 -0.497843 20.0541
-0.649429 -0.260213 19.8421
-0.634548 -0.443718 19.6238
-0.821704 -0.583979 21.17
-1.35909 -0.654318 20.5354
-1.66417 -1.50644 20.5894
-0.124436 -0.256595 21.437
-0.444462 -0.428212 21.3856
-0.213548 -0.468744 21.5469
0.262038 0.0157154 21.511
0.0506503 -0.159039 21.48
0.18495 -0.0820618 21.5474
0.691093 0.270527 21.3144
0.661862 0.132363 21.4773
0.750291 0.555366 21.3228
0.805204 0.268417 21.0267
0.903953 0.21663 20.9801
1.02844 0.576247 21.0199
0.954042 0.0595513 20.8936
0.816237 0.51596 21.5842
-1.21796 -0.400948 19.9176
-0.769134 -0.100735 19.7045
-0.792853 -0.380312 19.4493
-1.11543 -0.58767 21.2539
-1.80309 -0.270312 20.4932
-0.192885 -0.345915 21.4836
-0.754613 -0.482552 21.4309
0.331252 -0.072996 21.6415
-0.0596671 -0.283201 21.6453
0.913301 0.115849 21.3037
0.842673 -0.156236 21.5117
1.00384 0.0550978 21.2488
1.03257 -0.188018 21.0808
1.59702 0.465437 19.2293
0.855326 -0.26333 21.1886
1.41263 0.499813 18.8304
-1.41612 0.0896369 19.8414
-0.723813 0.262116 19.7735
-0.975986 0.0603873 19.2282
-1.50171 -0.146004 21.1524
-1.41749 0.514559 20.3958
-0.636656 -0.341206 21.647
-1.13673 0.138389 21.3314
0.256784 -0.286205 21.7287
-0.278994 -0.123032 21.6603
0.878043 -0.419885 21.3267
0.393476 -0.411597 21.4329
0.715983 -0.4023 21.0116
0.533193 -0.473008 20.9553
1.29545 -0.624986 19.8956
0.4545 -0.34233 20.8885
1.15014 -0.448793 19.8859
-0.78609 0.505471 20.0878
-0.602345 0.53606 19.7183
-0.979876 0.512431 20.8168
-1.08797 1.00404 20.2996
-0.555734 0.185944 21.4647
-1.15653 0.770121 21.3015
0.041756 -0.20321 21.4207
-0.269685 0.0331397 21.7273
0.299323 -0.351389 21.2209
0.210079 -0.41365 21.4087
0.413552 -0.409775 20.646
0.337732 -0.535435 21.1075
0.22362 -0.437524 21.063
-1.2828 -1.66789 19.1268
-0.667645 -0.591245 19.1723
0.00817519 -0.847878 18.9989
-0.519463 -1.1262 22.1592
0.0506598 -4.32469 21.7882
0.0693332 0.0342164 20.9665
0.00450913 -0.349212 20.9484
0.257034 0.4552 19.7061
-0.00188088 0.110726 18.8136
0.410621 1.34312 18.6057
-0.00977038 0.511601 14.7316
0.750833 1.24945 17.5049
0.787804 2.00528 13.8591
-0.0879533 0.74623 12.9092
1.32401 0.850641 14.0672
0.136857 1.35859 13.541
-0.921692 -0.230144 18.7687
-0.00540865 -0.724162 18.4395
1.38823 1.33912 12.7527
2.31975 0.739844 8.63399
-0.0984932 -0.809536 -3.44034
1.65803 0.12183 13.9819
0.162437 -0.335125 3.04274
-0.815717 0.663001 18.9967
-0.00670179 0.191626 17.7969
1.5023 -0.79636 14.8226
0.645014 -0.948171 20.3487
0.099249 -1.00413 0.878456
0.5134 -0.815849 19.5573
0.0676893 -1.76813 5.80172
-0.844951 1.26029 19.6628
0.00289561 0.986889 19.2483
-1.27736 1.61257 20.6089
0.0137747 2.29309 19.917
-0.826806 0.797563 21.9625
-0.019009 2.92032 21.3037
0.0347808 -0.320436 21.7089
-0.0115538 0.325718 22.225
0.238065 -0.622859 21.3519
0.00764741 -0.592632 21.5614
0.181619 -0.663026 20.771
0.0173627 -0.759062 21.1543
-0.0115282 -0.636863 20.984
1.29311 -1.59146 19.1885
0.67404 -0.583774 19.1821
0.634472 -0.4363 19.6428
0.534154 -1.12102 22.0903
1.62898 -1.42385 20.5852
-0.072817 0.0318734 20.9758
0.226337 -0.471451 21.5328
-0.244933 0.455483 19.5676
-0.183895 -0.0821506 21.5464
-0.239957 1.30372 17.9365
-0.75084 0.576024 21.2792
-0.668759 1.29693 17.0881
-0.561969 1.94916 13.1946
-1.04328 0.697756 21.0251
-1.34008 0.94325 12.833
-0.841981 0.618969 21.2509
0.926386 -0.230096 18.7493
0.795219 -0.380515 19.44
-1.36792 1.45672 10.7331
-2.02395 0.51575 7.01935
-1.67818 0.640463 18.4485
-1.65392 0.191187 12.7344
-1.46679 0.587597 17.6937
0.814952 0.662867 18.9937
0.974391 0.0604973 19.2172
-1.6381 -0.754799 12.4818
-0.609769 -1.05451 19.8265
-1.38794 -0.614148 19.3374
-0.535849 -0.890482 19.2702
-1.16744 -0.512338 19.6396
0.847663 1.24346 19.6717
0.602578 0.529493 19.7236
1.2783 1.61301 20.6092
1.08623 0.990874 20.305
0.832021 0.84797 21.9896
1.16274 0.78712 21.3058
-0.029099 -0.328608 21.7321
0.27786 0.0487457 21.7506
-0.20714 -0.647385 21.3725
-0.198913 -0.435958 21.4317
-0.160305 -0.69909 20.9022
-0.328437 -0.56612 21.1027
-0.191344 -0.437267 21.0524
0.927082 -0.489351 20.0597
0.646491 -0.256849 19.8366
0.817468 -0.576204 21.1542
1.3345 -0.647749 20.5389
0.126125 -0.26231 21.436
0.442782 -0.426565 21.3809
-0.262254 0.0156184 21.5162
-0.048067 -0.160339 21.4782
-0.702807 0.298265 21.3217
-0.654578 0.133962 21.4794
-0.886632 0.269149 20.8559
-0.931576 0.22234 21.0299
-0.971477 0.100623 21.0312
1.22008 -0.402178 19.9139
0.773059 -0.102283 19.7094
1.11573 -0.587229 21.2523
1.8141 -0.272889 20.4991
0.193932 -0.341924 21.4814
0.754441 -0.481089 21.4355
-0.328645 -0.0744092 21.6321
0.0597332 -0.283171 21.6401
-0.923806 0.115026 21.3088
-0.830353 -0.15869 21.5131
-1.11299 0.0620948 20.9929
-1.08604 -0.207979 21.1627
-1.01115 -0.271779 21.0049
1.4255 0.0917075 19.8387
0.725218 0.261848 19.7737
1.50552 -0.147808 21.1586
1.41977 0.517017 20.3971
0.63648 -0.340928 21.6452
1.14577 0.136656 21.3366
-0.253554 -0.284918 21.7204
0.283894 -0.125716 21.673
-0.889509 -0.437838 21.3308
-0.400623 -0.428634 21.4519
-0.742175 -0.453134 21.1268
-0.538795 -0.502206 20.9567
-0.391727 -0.340219 20.9924
0.785132 0.501936 20.0891
0.981437 0.513869 20.8178
0.574171 0.187891 21.4802
-0.0505877 -0.212173 21.477
-0.294148 -0.364385 21.2255
-0.350655 -0.432266 20.774
-1.07008 -0.480322 20.0116
-1.73535 -1.86856 18.5943
-1.22034 -0.962882 19.714
-1.76176 -0.8413 19.3035
-0.715527 -0.408139 19.5471
-2.32388 -1.64994 20.5356
-0.947203 -0.597749 21.2068
-0.168447 -0.760661 19.646
-0.820307 -0.991659 21.5687
-1.31129 -1.19634 21.941
-0.21747 -0.599488 21.6335
-0.161721 -0.29182 21.4524
0.200677 0.231014 16.4325
0.0373687 -0.254736 21.5435
0.00461201 -0.535164 21.3947
0.227815 -0.187888 21.4552
0.28787 -0.0150182 21.5553
0.148216 0.421813 13.5802
0.376261 0.133924 21.58
0.434045 0.0667955 20.4691
1.0104 0.617622 20.5371
0.819127 0.206312 21.3303
0.232585 1.46705 12.0002
0.893165 0.66468 21.0173
1.40909 0.538386 19.702
1.22837 0.649087 20.067
0.93135 0.1786 21.1994
1.03303 1.24351 13.4012
1.16116 0.617887 20.5726
1.65263 0.495375 19.3475
1.04544 0.403993 19.6278
-1.35779 -0.169403 19.8468
-3.04811 -0.699115 16.9353
-2.165 0.271463 19.0588
-0.91614 -0.167628 19.3004
-3.86693 -0.556506 20.3594
-1.35659 -0.422235 21.2528
-2.42117 -0.324178 21.6216
-0.788679 -1.03926 21.5804
-0.378949 -0.416192 21.567
-0.961818 -0.844238 21.4212
0.0866109 -0.347959 20.0875
0.320527 -0.167759 21.7341
0.560909 -0.0575651 19.5452
1.36945 0.284526 17.5484
1.00122 -0.177675 21.338
0.402921 0.906547 3.96542
1.22832 -0.48254 19.5285
1.60405 -0.00227974 18.3316
0.874146 -0.214878 21.3674
2.01241 0.410254 10.7788
1.28646 -0.558151 20.3747
1.41105 -0.303857 19.4371
-1.13293 0.428271 19.965
-1.61283 1.72102 18.8206
-0.887414 0.843306 19.9043
-0.852096 0.443051 19.4157
-2.0065 1.21857 20.221
-1.36822 0.321425 20.9377
-2.6391 1.93535 20.4989
-1.21404 0.945234 20.779
-1.93439 0.40174 21.5404
-0.729199 0.00516761 21.6041
-1.98107 0.49702 22.232
-0.737319 0.394902 21.6881
-0.410557 -0.109781 22.0025
0.115947 -0.267005 21.5924
0.425031 -0.500439 20.4422
0.0396597 -0.253078 21.6097
0.447706 -0.644554 21.5767
0.497824 -0.477722 21.3011
0.597939 -0.934218 20.4934
0.274299 -0.476377 21.2201
0.591219 -0.783699 21.1875
0.582639 -0.535826 20.8272
0.555731 -0.980317 19.6967
0.171348 -0.388479 21.1734
0.417888 -0.511011 20.6318
1.73425 -1.81337 18.6551
0.0358633 -2.74744 18.396
-0.00683534 -3.37134 15.6992
-0.0018056 -0.803642 18.6835
0.043594 -5.91149 23.2839
0.204631 -0.796609 19.7067
0.0125335 -1.22473 22.2791
-0.00192437 -0.0148498 12.822
-0.202511 0.227699 16.5139
-0.00158641 -0.073304 19.7187
0.000390525 0.150104 10.8147
-0.140767 0.419531 13.3586
0.000478342 0.299282 16.7079
-0.0174472 0.340687 6.0782
-0.0770589 1.43177 11.3849
-0.102513 0.187156 13.651
-0.0931782 -1.62616 -3.26509
-0.0936135 0.362109 3.05927
-0.927788 1.34 12.2859
-0.0692565 0.99486 11.5285
-0.0827837 -1.65464 -3.56984
0.149962 1.19787 10.1198
3.05574 -0.702746 16.9091
-0.0122002 2.45056 13.6715
-0.00496987 -0.332477 17.8161
-0.185929 0.974087 3.23873
0.00622385 -0.0797835 -0.132001
0.130713 -0.658998 -3.65478
-2.04346 0.341496 8.97659
0.136108 -1.54253 3.25283
0.166935 -0.986109 2.30518
1.61307 1.71307 18.8256
0.00554667 1.78487 19.3533
-0.000390183 0.991476 18.4323
0.0129085 4.27367 19.5961
2.63835 1.93506 20.4975
6.47865e-05 2.56442 20.2858
-0.0217737 6.23084 20.2026
1.99254 0.521472 22.0451
-0.0351552 1.60681 22.3707
0.000490521 0.149936 17.1181
-0.485723 -0.521513 20.0471
-0.00290066 -0.334329 21.92
0.0123419 -0.768888 13.9165
-0.553166 -0.968232 20.3654
0.0165125 -0.714432 21.38
0.0168853 -1.26133 17.0971
-0.625841 -1.03523 19.2495
0.0151993 -0.784166 20.8528
0.0709819 -1.11496 19.2552
1.05595 -0.47557 20.0088
1.20157 -0.928108 19.7414
1.76783 -0.842831 19.2923
0.716546 -0.407901 19.5456
2.29518 -1.60068 20.5286
0.940427 -0.593482 21.1999
0.822499 -0.959934 21.5289
1.31253 -1.19616 21.9327
0.233375 -0.601167 21.6189
0.15988 -0.290256 21.4556
-0.0352777 -0.257616 21.54
0.0013871 -0.53801 21.4409
-0.223655 -0.190112 21.4578
-0.286846 -0.0166236 21.5514
-0.37591 0.138864 21.5616
-0.432165 0.0554916 20.5442
-1.00775 0.631418 20.4462
-0.826158 0.220597 21.324
-0.884502 0.714014 20.9586
-1.38419 0.610624 19.0071
-1.19166 0.820928 19.3907
-1.02977 0.185642 20.9913
-1.1225 0.767549 20.7949
-1.75032 0.768826 18.9496
-1.09908 0.485204 18.5696
1.36597 -0.172398 19.8473
2.17608 0.275541 19.042
0.916574 -0.16897 19.2897
3.87866 -0.557987 20.3497
1.35774 -0.422916 21.2594
2.4251 -0.323357 21.6251
0.788353 -1.03853 21.5811
0.378846 -0.414294 21.5679
0.959992 -0.839657 21.4306
-0.0824737 -0.364408 20.2189
-0.318056 -0.168749 21.7301
-0.552038 -0.0712675 19.5948
-1.36646 0.256615 17.6283
-1.02186 -0.188602 21.334
-1.26485 -0.436341 19.0684
-1.72986 0.0998297 17.0359
-0.988778 -0.248518 21.188
-1.34176 -0.647656 19.6664
-1.46488 -0.203591 18.2573
1.13105 0.427638 19.9669
0.887114 0.834767 19.9105
0.852995 0.443733 19.4133
2.0019 1.20903 20.2219
1.37301 0.322078 20.9392
1.21459 0.94713 20.7794
1.94916 0.406102 21.5424
0.739095 0.000348801 21.6107
0.75015 0.421907 21.7074
0.420628 -0.105827 22.0233
-0.124695 -0.277238 21.6127
-0.0408275 -0.25967 21.6209
-0.442373 -0.666331 21.6026
-0.512039 -0.506865 21.2641
-0.263541 -0.513743 21.2619
-0.583816 -0.824057 21.3099
-0.679132 -0.54975 20.7717
-0.164387 -0.432227 21.1724
-0.439905 -0.588967 20.3522
-1.49766 -0.94714 19.5023
-1.0253 -1.12441 21.7458
0.0661687 -0.389406 21.5599
0.438795 0.0943973 21.1633
1.17989 0.667034 20.505
1.45648 0.516344 19.5915
-2.14927 -0.3295 19.0368
-1.9582 -0.897193 22.0513
-0.250062 -0.784298 20.7219
0.507216 0.150049 19.3727
1.51541 0.0700173 18.8868
1.56942 -0.207854 18.4887
-1.48724 0.89029 19.5206
-2.02492 0.767883 20.9114
-1.16824 0.092773 21.9701
0.168896 -0.399792 21.8644
0.556492 -0.725119 21.3705
0.699841 -0.677656 20.7435
0.0264819 -3.33601 17.3398
0.00257424 -0.433426 14.002
-0.00190444 0.0906508 11.3332
0.000978727 0.211563 8.74616
-0.0971261 -0.650763 3.24729
-0.0814614 0.19846 3.3102
-0.00909837 -1.04054 13.4372
-0.00728139 -0.635381 -2.86838
0.29341 -0.810905 1.09252
0.00441957 2.9324 17.9333
-4.02349e-05 3.87871 19.5656
-0.0227258 2.03123 17.9392
0.0147861 -0.619795 14.5141
0.0180597 -0.892574 15.2751
0.0418878 -1.23622 18.1604
1.49098 -0.930881 19.5161
1.03566 -1.10579 21.7157
-0.057453 -0.390896 21.562
-0.437697 0.095032 21.1471
-1.18377 0.730529 20.1447
-1.41638 0.669536 19.5153
2.15555 -0.330023 19.023
1.9582 -0.899194 22.0519
0.254355 -0.782321 20.7729
-0.506524 0.12844 19.4827
-1.52403 0.137912 18.2213
-1.65104 -0.0930629 17.1064
1.4869 0.887527 19.5209
2.02859 0.768729 20.9097
1.19026 0.103687 21.9851
-0.171672 -0.412389 21.8962
-0.559909 -0.75946 21.3765
-0.583914 -0.72935 21.0232
-0.275022 -0.0916973 0.475375
0.00500954 -0.0765643 0.444364
0.0626877 -0.1299 1.09374
0.0539009 0.0193503 0.0901861
-0.0192769 0.0141665 0.0506472
0.036946 0.532221 2.31256
-0.903309 0.00875356 1.6588
-0.0459743 0.337575 0.592064
-0.0653815 0.00543539 0.26222
0.00211132 0.00723617 0.0165011
0.00735077 0.0258313 -0.0548446
0.0121445 0.00432997 0.0870474
-0.00553176 -0.0766701 0.446222
0.274227 -0.0914575 0.474661
-0.0622541 -0.133446 1.14433
0.0188888 0.0138351 0.0500593
-0.0544859 0.0196991 0.0911057
-0.0376691 0.533418 2.31677
0.0460388 0.337111 0.590584
0.914678 0.00805031 1.6766
0.0661406 0.00560349 0.264945
-0.00825206 0.0263796 -0.0556611
-0.00208742 0.00723844 0.0161664
-0.0121618 0.00434459 0.0866057
-0.0619007 0.127339 2.32832
0.110879 0.0925467 3.94868
0 0 0
0 0 0
0.000763556 -0.0309993 2.81536
-0.024225 0.0991097 3.0123
8.61705e-07 0.000213245 0.00120795
0 0 0
-0.182084 -0.131323 0.451743
0 0 0
0 0 0
-0.0827584 0.0710202 0.162709
0 0 0
0.000397192 0.0048959 0.0141594
0 0 0
0.0681672 0.033598 0.317015
0.0570242 0.123518 2.20857
0 0 0
-0.111006 0.0921728 3.95295
0 0 0
-0.00113823 -0.0317361 2.81469
0 0 0
0.0242563 0.099025 3.01276
-1.59093e-06 0.000233575 0.00132873
0.181568 -0.130893 0.451463
0.0802789 0.0695528 0.159412
0 0 0
0 0 0
0 0 0
-0.0685009 0.0338041 0.318157
-0.000396562 0.00488692 0.0141047
0 0 0
-0.188324 -0.0890698 0.755321
-0.0198048 -0.00153044 0.00701458
1.24544e-05 -0.000317771 0.0283533
0 0 0
-0.00028387 -0.000709659 0.0196969
0.000128556 9.09426e-05 0.00908195
0 0 0
0 0 0
-5.47777e-06 0.000846498 0.0302171
-0.000407834 -0.00116574 -0.00821575
0.00105868 0.0144309 0.114405
-0.000318761 0.00053484 0.0350522
-7.19234e-07 0.031581 0.0145316
2.03922e-06 0.000630173 0.0042847
-0.0188554 -0.111179 0.642095
-0.0498335 0.00877617 0.0753547
0 0 0
0 0 0
0.00200287 0.00313251 0.0268953
-0.000445231 -0.000676299 0.00137578
0.0195303 -0.001546 0.00695931
0.188026 -0.0891785 0.754702
-0.000137543 9.22336e-05 0.00923367
0.000280644 -0.000676849 0.0193902
0 0 0
0 0 0
0.000316752 0.000535904 0.0351453
-0.00107532 0.0148843 0.117784
0.0497502 0.00875503 0.0752039
0.0188587 -0.11098 0.641815
0.000421258 -0.000655238 0.0013366
-0.0020266 0.00316884 0.0271805
0 0 0
0 0 0
0 0 0
2.03032e-05 0.000487338 0.00480084
0 0 0
0 0 0
8.03327e-06 0.000164801 0.000909314
-0.00756972 0.0143722 0.0629232
6.39527e-09 -7.79222e-07 -7.51951e-05
2.71125e-11 -3.5634e-06 -0.000165213
5.72007e-05 0.00272011 0.0137539
0.0214216 0.204919 2.13651
-1.01227e-05 0.00798102 0.0198743
-2.52265e-06 0.0397285 0.152398
-2.43201e-06 -4.28785e-06 0.000446028
-5.23652e-06 -0.00263533 0.0167971
-8.93756e-19 4.20022e-19 2.66262e-17
0 0 0
0 0 0
-2.07268e-05 0.000500716 0.0049399
-7.53815e-06 0.000155003 0.000854644
0.00727599 0.0138485 0.0609258
-0.0215036 0.205211 2.1353
-5.66613e-05 0.00273065 0.0138219
-0.157473 -0.0733519 0.782224
0 0 0
0 0 0
0 0 0
0 0 0
4.65422e-19 -1.76797e-17 -1.10957e-16
0 0 0
5.80791e-05 0.000881 0.00386252
-0.0129777 0.00950406 0.0876953
0 0 0
0 0 0
0.0079286 0.000160039 0.0820899
-0.000401035 -0.000405581 0.0320986
0.000417988 -0.000407835 0.0323191
0.000123194 0.000105789 0.00832505
-0.000123927 0.000105961 0.00833721
0 0 0