# vtk DataFile Version 2.0
tri_press
ASCII
DATASET UNSTRUCTURED_GRID
POINTS 3682 float
-0.757141 0.235 -2.175
-0.765 0.365 2.10483
-0.756764 0.725 -2.115
-0.650236 1.045 2.165
0.757152 0.235 -2.175
0.765 0.365 2.10483
0.756764 0.725 -2.115
0.650252 1.045 2.165
-0.845316 0.192778 -0.74839
-0.844699 0.239348 0.67822
-0.811366 0.921778 -0.688333
-0.763952 1.01654 0.738333
0.845287 0.192814 -0.74839
0.844699 0.239352 0.67822
0.811381 0.921788 -0.688333
0.763959 1.01654 0.738333
-1.55867 -0.176882 -3.34634
-1.56883 -0.121193 -2.20503
-1.6246 -0.139598 -0.778424
-1.62057 -0.115715 0.648174
-1.56226 -0.020112 2.07478
-1.5487 0.051035 3.21609
-1.55741 0.111934 4.3574
-1.55741 0.136109 -3.31632
-1.56478 0.217817 -2.17501
-1.63274 0.217309 -0.748386
-1.60999 0.248292 0.678228
-1.52225 0.339931 2.10485
-1.52397 0.409555 3.24615
-1.54556 0.470003 4.38747
-1.5571 0.711264 -3.2563
-1.55899 0.791177 -2.11498
-1.60417 0.927444 -0.688325
-1.54763 1.00334 0.738337
-1.44148 1.04921 2.16499
-1.48087 1.11617 3.3063
-1.52816 1.18166 4.4476
-1.5666 1.69503 -3.16622
-1.56981 1.79348 -2.0249
-1.57952 1.95127 -0.598218
-1.56603 2.07683 0.828471
-1.53906 2.15141 2.25515
-1.53739 2.20355 3.39647
-1.55264 2.25995 4.53778
-0.769442 -0.168291 -3.34634
-0.761967 -0.109089 -2.20503
-0.817043 -0.151473 -0.778424
-0.832119 -0.123044 0.648166
-0.795572 -0.00782616 2.07477
-0.789715 0.0597009 3.21608
-0.798134 0.116191 4.3574
-0.772693 0.137205 -3.31632
-0.779234 0.418849 3.24615
-0.793987 0.474174 4.38746
-0.77412 0.685144 -3.2563
-0.746035 1.11732 3.3063
-0.784983 1.18316 4.4476
-0.779192 1.67704 -3.16622
-0.779474 1.7764 -2.0249
-0.793188 1.94766 -0.598223
-0.796595 2.08163 0.828471
-0.786518 2.15413 2.25515
-0.788105 2.20448 3.39647
-0.80052 2.26056 4.53778
0.787756 -0.168284 -3.34634
0.80289 -0.10908 -2.20503
0.841752 -0.151447 -0.778424
0.824314 -0.123036 0.648167
0.767908 -0.00782411 2.07477
0.73742 0.0597033 3.21608
0.723861 0.116194 4.3574
0.769361 0.137209 -3.31632
0.716037 0.41885 3.24615
0.710231 0.474176 4.38746
0.764826 0.685147 -3.25631
0.676833 1.11732 3.3063
0.692109 1.18317 4.4476
0.787798 1.67705 -3.16622
0.792202 1.77641 -2.0249
0.780897 1.94767 -0.598223
0.74433 2.08164 0.828471
0.709104 2.15413 2.25515
0.699719 2.20449 3.39647
0.698035 2.26056 4.53778
1.57497 -0.176867 -3.34634
1.59229 -0.121171 -2.20503
1.64265 -0.13956 -0.778424
1.62772 -0.115698 0.648174
1.5567 -0.0201055 2.07478
1.51383 0.0510413 3.21609
1.49527 0.111941 4.3574
1.55552 0.136121 -3.31632
1.56328 0.217832 -2.17501
1.63578 0.217349 -0.748386
1.62231 0.248306 0.678228
1.53293 0.339935 2.10485
1.48761 0.409559 3.24615
1.47704 0.470009 4.38747
1.54797 0.711274 -3.2563
1.55322 0.791187 -2.11498
1.60299 0.927467 -0.688325
1.55569 1.00334 0.738337
1.44787 1.04921 2.16499
1.43722 1.11618 3.3063
1.45011 1.18167 4.4476
1.57168 1.69505 -3.16622
1.5764 1.79349 -2.0249
1.56743 1.95128 -0.598219
1.52451 2.07684 0.82847
1.47546 2.15142 2.25515
1.459 2.20355 3.39647
1.45725 2.25996 4.53778
-0.773645 0.48 -2.16169
5.51343e-06 0.195875 -2.21412
-0.83942 0.175698 -1.4617
-0.720022 0.705 2.14732
0 0.304363 2.16547
-0.847313 0.259711 1.39153
0 0.81781 -2.20781
-0.815451 0.854775 -1.40167
7.98702e-06 1.08208 2.20208
-0.719277 1.04295 1.45167
0.773698 0.48 -2.16174
0.839597 0.175529 -1.4617
0.720135 0.705 2.14742
0.846743 0.260282 1.39153
0.815459 0.85478 -1.40167
0.719298 1.04296 1.45167
-0.844569 0.216502 -0.035085
-0.84322 0.557278 -0.718362
-1.47109e-05 0.206712 -0.74839
-0.843966 0.627944 0.708277
7.02762e-08 0.224385 0.67822
-0.786926 0.968426 0.025
7.96758e-06 1.27591 -0.688333
3.55715e-06 1.47383 0.738333
0.84457 0.216506 -0.035085
0.843228 0.557301 -0.718362
0.843974 0.627944 0.708277
0.786935 0.968427 0.025
-0.894758 0.518639 -1.43168
0.894758 0.518651 -1.43168
-4.59876e-06 0.197257 -1.4617
3.98379e-06 0.959432 -1.40167
2.75671e-06 0.48 -2.40616
-0.848114 0.592611 -0.00504249
0.848119 0.592623 -0.00504249
-7.32033e-06 0.217914 -0.035085
5.76236e-06 1.47549 0.025
-0.885409 0.666472 1.4216
0.885408 0.666472 1.4216
3.51381e-08 0.256202 1.39153
5.77209e-06 1.31989 1.45167
3.99351e-06 0.705 2.33726
-0.769013 0.3575 -2.17197
-0.378568 0.201778 -2.20822
-0.812174 0.191455 -1.81835
-0.767759 0.535 2.15132
-0.3825 0.309575 2.16026
-0.844986 0.273526 1.74818
-0.768671 0.6025 -2.14181
-0.378382 0.808068 -2.19807
-0.796564 0.800344 -1.75833
-0.694242 0.875 2.16527
-0.325114 1.07876 2.19876
-0.681969 1.04119 1.80833
0.378579 0.201747 -2.20825
0.769018 0.3575 -2.17196
0.812461 0.191179 -1.81835
0.3825 0.309673 2.16016
0.767766 0.535 2.15133
0.844989 0.273523 1.74818
0.378382 0.808067 -2.19807
0.768741 0.6025 -2.14188
0.796615 0.800394 -1.75833
0.32513 1.07876 2.19876
0.694198 0.875 2.16522
0.681984 1.04119 1.80833
-0.846731 0.179875 -1.10504
-0.844541 0.205041 -0.391738
-0.843888 0.375218 -0.733376
-0.417528 0.210019 -0.74839
-0.854323 0.241213 1.03487
-0.844622 0.227936 0.321568
-0.844586 0.433519 0.693248
-0.424103 0.228359 0.67822
-0.820818 0.895686 -1.045
-0.845668 0.748715 -0.703348
-0.799391 0.945347 -0.331667
-0.482304 1.2521 -0.688333
-0.746771 1.0349 1.095
-0.842845 0.841685 0.723305
-0.775229 0.992273 0.381667
-0.483936 1.44911 0.738333
0.846052 0.180562 -1.10504
0.417512 0.210011 -0.74839
0.844542 0.205047 -0.391738
0.843887 0.375243 -0.733376
0.854323 0.241215 1.03487
0.424105 0.228357 0.67822
0.844625 0.227939 0.321568
0.844589 0.433522 0.693248
0.820824 0.895688 -1.045
0.482279 1.25202 -0.688333
0.845676 0.74873 -0.703348
0.799395 0.945345 -0.331667
0.746773 1.03489 1.095
0.483942 1.4491 0.738333
0.842859 0.841686 0.723305
0.775237 0.992272 0.381667
-0.875852 0.499319 -1.79669
-0.386821 0.48 -2.3793
4.57337e-07 0.192203 -1.83791
4.13507e-06 0.337938 -2.39951
-0.894298 0.347168 -1.44669
-0.419712 0.195219 -1.4617
-0.827172 0.685736 1.78446
-0.360009 0.705 2.30775
1.75691e-08 0.261611 1.7785
1.99676e-06 0.504681 2.40818
-0.885387 0.463091 1.40656
-0.423656 0.251052 1.39153
1.99189e-06 0.908176 -1.80474
1.37836e-06 0.648905 -2.36435
-0.895274 0.686707 -1.41667
-0.407724 0.962775 -1.40167
6.87955e-06 1.14605 1.82687
5.99027e-06 0.893538 2.31446
-0.84248 0.854712 1.43663
-0.359636 1.30412 1.45167
0.875849 0.499325 -1.79671
0.38685 0.48 -2.37929
0.894289 0.34709 -1.44669
0.419796 0.195207 -1.4617
0.827165 0.685736 1.78451
0.360069 0.705 2.30772
0.885383 0.463377 1.40656
0.423372 0.251062 1.39153
0.895273 0.686715 -1.41667
0.407731 0.962775 -1.40167
0.842478 0.854717 1.43663
0.359652 1.30412 1.45167
-0.845522 0.404966 -0.0200637
-0.420481 0.220822 -0.035085
-0.848287 0.537958 -1.07502
-0.847137 0.574944 -0.361702
-9.65485e-06 0.201822 -1.10504
-1.10156e-05 0.210052 -0.391738
-0.846652 0.610277 0.351617
-0.865329 0.647208 1.06494
-3.62503e-06 0.221173 0.321568
5.27072e-08 0.248419 1.03487
-0.850248 0.796882 0.00997874
-0.506853 1.44874 0.025
5.97568e-06 1.07068 -1.045
6.86497e-06 1.42735 -0.331667
4.65976e-06 1.48398 0.381667
4.66462e-06 1.43354 1.095
0.845528 0.404973 -0.0200637
0.420478 0.220816 -0.035085
0.848284 0.537976 -1.07502
0.847143 0.574962 -0.361702
0.846659 0.610283 0.351617
0.865326 0.647208 1.06494
0.850248 0.796885 0.00997874
0.50686 1.44874 0.025
-0.875976 0.352334 -1.80752
-0.861402 0.361098 -1.09003
-0.840731 0.713117 -1.06001
-0.850917 0.644603 -1.77751
0.875968 0.352295 -1.80753
0.850911 0.644608 -1.77752
0.84086 0.71313 -1.06001
0.8613 0.361074 -1.09003
-0.39914 0.191052 -1.82813
0.399188 0.191036 -1.82813
0.421216 0.199224 -1.10504
-0.421189 0.199226 -1.10504
-0.393053 0.908219 -1.78154
-0.406701 1.05503 -1.045
0.406713 1.05503 -1.045
0.393057 0.908218 -1.78154
-0.382695 0.347719 -2.37585
-0.382602 0.625702 -2.34573
0.382616 0.625702 -2.3458
0.382715 0.347719 -2.37585
-0.844947 0.389971 -0.37672
-0.84538 0.41908 0.336592
-0.847123 0.819572 0.366642
-0.848727 0.773183 -0.346684
0.844952 0.389986 -0.37672
0.848718 0.773186 -0.346684
0.847116 0.819567 0.366642
0.845388 0.419083 0.336592
-0.419755 0.213919 -0.391738
0.419749 0.213906 -0.391738
0.422236 0.224697 0.321568
-0.422236 0.224702 0.321568
-0.517353 1.39597 -0.331667
-0.499246 1.45663 0.381667
0.499253 1.45663 0.381667
0.517349 1.39594 -0.331667
-0.875937 0.448369 1.0499
-0.842952 0.499046 1.76632
-0.809861 0.864856 1.7964
-0.841724 0.838477 1.07997
0.87593 0.448512 1.0499
0.841784 0.838478 1.07997
0.809802 0.864858 1.79642
0.842884 0.499189 1.76634
-0.423003 0.243647 1.03487
0.422861 0.243659 1.03487
0.402936 0.254755 1.76334
-0.403078 0.254668 1.76334
-0.370805 1.4212 1.095
-0.342375 1.13489 1.8176
0.342391 1.13488 1.8176
0.370817 1.42118 1.095
-0.371255 0.519841 2.37519
0.371285 0.519841 2.37514
0.3426 0.884269 2.29426
-0.342562 0.884269 2.29429
-0.764277 0.29625 -2.17468
-0.567854 0.210078 -2.19992
-0.802697 0.195188 -1.99667
-0.772829 0.45 2.13453
-0.57375 0.318878 2.15095
-0.8133 0.310956 1.9265
-0.764711 0.66375 -2.1304
-0.567573 0.785023 -2.17502
-0.781023 0.767031 -1.93667
-0.675258 0.96 2.16816
-0.487675 1.06991 2.18991
-0.666408 1.0434 1.98667
0.567865 0.210018 -2.19998
0.764281 0.29625 -2.17468
0.802734 0.195162 -1.99667
0.57375 0.319036 2.15079
0.772767 0.45 2.13446
0.81331 0.310946 1.9265
0.567573 0.785026 -2.17503
0.764558 0.66375 -2.13025
0.780991 0.766998 -1.93667
0.487691 1.06966 2.18966
0.675289 0.96 2.16817
0.666391 1.04337 1.98667
-0.84478 0.18757 -0.926716
-0.844543 0.199295 -0.570064
-0.844435 0.284081 -0.740883
-0.627304 0.209636 -0.74839
-0.84902 0.240771 0.856546
-0.844631 0.233672 0.499894
-0.845048 0.336231 0.685734
-0.637027 0.228601 0.67822
-0.815256 0.907896 -0.866667
-0.846767 0.844372 -0.695841
-0.805426 0.93361 -0.51
-0.671718 1.1367 -0.688333
-0.756378 1.02674 0.916667
-0.838449 0.946638 0.730819
-0.770131 1.00495 0.56
-0.632993 1.25092 0.738333
0.844771 0.187587 -0.926716
0.627288 0.209635 -0.74839
0.844544 0.199301 -0.570064
0.844435 0.284105 -0.740883
0.849026 0.240769 0.856546
0.637027 0.228604 0.67822
0.844634 0.233673 0.499894
0.845086 0.336216 0.685734
0.815264 0.907899 -0.866667
0.671697 1.13664 -0.688333
0.846738 0.844364 -0.695841
0.805435 0.933613 -0.51
[...]
POINT_DATA 3682
SCALARS point_scalars float 1
LOOKUP_TABLE default
-83.8063
-41.1841
-72.7392
-38.6189
-83.8337
-41.1712
-72.5554
-38.561
-36.8363
-33.4081
-58.7889
-49.5575
-36.4527
-33.4054
-58.7187
-49.5973
-31.5233
-81.1054
-37.1877
-33.3611
-45.7117
-34.2156
-32.8621
34.6406
-73.2216
-37.1277
-33.2297
-42.734
-34.1274
-32.7311
43.2214
-67.2056
-52.661
-45.1667
-42.7174
-35.4271
-33.1274
-11.7401
-46.7292
-101.67
-58.0036
-40.4365
-38.2088
-38.2088
-7.9917
-118.981
-37.0428
-34.6274
-43.8102
-32.4604
-29.0409
87.4734
-32.0465
-29.4261
153.071
-33.6465
-30.8263
27.3018
-39.0136
-83.1941
-62.7233
-37.4371
-35.503
-34.3339
-8.99073
-93.7716
-36.4085
-34.6414
-43.7973
-32.1
-28.9406
92.2658
-31.7501
-29.3257
153.736
-33.2011
-30.7808
27.1914
-39.4459
-83.1661
-62.7108
-36.3215
-34.3881
-34.3307
-31.49
-80.5288
-36.155
-33.3594
-45.6356
-34.0679
-32.804
34.5511
-73.2907
-37.0598
-33.2268
-42.6918
-34.0588
-32.5538
43.2033
-67.3679
-52.5971
-45.1899
-42.6517
-34.8808
-33.0694
-12.4768
-47.0304
-101.587
-58.0452
-39.8986
-38.1432
-37.1607
-70.152
-134.918
-57.6091
-38.1483
-31.7747
-38.6463
-56.6434
-48.5021
-35.6089
-49.2524
-70.2118
-57.6544
-38.0786
-38.6168
-48.5048
-49.2147
-34.3679
-40.1781
-39.0743
-37.9371
-37.0532
-52.9671
-10.2593
-66.7907
-34.3682
-40.1548
-37.9343
-52.9242
-65.2925
-65.2667
-57.1199
3.58788
204.642
-40.0639
-40.0606
-34.9017
-89.2925
-50.1108
-50.0681
-35.48
-45.7933
-28.7579
-65.1319
-128.286
-68.2944
-39.0409
-35.6544
-49.7249
-74.8341
-46.5004
-46.7253
-37.4454
-35.2437
-42.5093
-128.353
-65.1906
-68.9357
-35.6144
-38.9513
-50.0997
-46.8797
-74.3791
-46.7425
-35.233
-37.3837
-42.4988
-46.2961
-35.4599
-37.9183
-38.5547
-35.59
-34.2069
-35.1324
-35.8374
-52.9316
-45.9934
-56.0115
-28.3196
-50.2918
-42.2762
-50.5755
-61.7559
-46.3784
-38.5441
-35.4614
-37.8886
-35.5908
-35.8382
-34.2065
-35.1331
-52.9054
-27.9453
-45.9641
-55.9461
-50.2878
-61.74
-42.2829
-50.5837
-64.7823
178.196
-77.6154
144.196
-64.1961
-56.2569
-46.3766
-32.678
-37.0505
-20.7955
-46.6349
-36.1058
-27.4385
148.413
-65.4146
-5.64637
-39.0339
-30.6718
-49.7191
-46.7708
-64.7847
178.163
-64.1512
-56.2381
-46.3211
-32.6235
-46.6089
-36.1021
-65.3939
-5.62989
-49.6933
-46.7633
-37.1997
-34.5698
-47.7539
-40.4103
-46.2429
-36.5831
-39.1534
-37.6912
-35.1014
-35.1273
-44.7248
-76.3844
29.8915
-96.2388
-75.9851
-57.9913
-37.1967
-34.569
-47.7914
-40.3966
-39.1554
-37.7034
-44.7225
-76.3194
-67.774
-48.0242
-48.35
-51.5239
-67.8293
-51.5329
-48.3446
-48.0097
-75.8588
-75.8585
-45.8279
-45.83
-29.692
19.0375
19.0084
-29.6811
137.597
142.131
142.177
137.647
-37.3907
-36.7334
-43.0063
-45.8285
-37.3823
-45.8069
-43.0183
-36.7325
-36.1365
-36.1346
-34.7228
-34.7226
-87.9198
-66.7633
-66.7954
-87.8686
-35.0569
-48.0834
-45.0892
-43.5979
-35.0675
-43.5856
-45.0484
-48.0237
-35.1818
-35.1844
-39.1553
-39.1592
-58.0901
-39.6626
-39.6574
-58.0804
-31.2258
-31.1413
-32.7768
-32.8201
-67.3697
-123.445
-84.026
-39.7046
-38.1764
-45.8947
-66.2808
-44.2752
-58.2755
-38.2964
-35.7841
-39.7363
-123.523
-67.3908
-84.1022
-38.1194
-39.6504
-45.8391
-44.4204
-66.1401
-58.2781
-35.7568
-38.4356
-39.7142
-39.9428
-37.1325
-37.2569
-37.8962
-37.2209
-33.7958
-34.0727
-35.8657
-58.1726
-51.3464
-57.9908
-83.9332
-49.4019
-46.4569
-49.6703
-54.6297
-40.1233
-37.8273
-37.1471
-37.2179
-37.2347
-35.8585
-33.7961
-34.0796
-58.1222
-83.8542
-51.2971
-57.9397
-49.4197
-54.6247
-46.4867
-49.7072
-67.3821
-74.1412
-74.0402
123.104
-127.478
-127.797
-97.5108
-18.5546
-67.1226
-50.3422
-62.1081
-55.9044
-38.6201
-37.5279
-42.964
-33.0924
-33.0133
-32.9807
-35.4465
-23.9438
-44.929
-38.2681
-43.7339
-36.9426
-50.9986
-51.0466
-41.4718
59.0806
-48.7874
-46.9381
-61.5744
-19.9966
-35.3917
-35.3893
-37.3409
-33.8348
-46.0876
-50.1387
-48.886
-49.3895
-67.4905
-74.2484
-74.0711
123.066
-67.5933
-50.54
-62.1208
-55.8417
-38.5443
-37.4619
-42.8899
-33.0463
-44.9256
-38.2636
-43.704
-36.9314
-48.6706
-46.6517
-61.5714
-19.9792
-46.0659
-50.1169
-48.8834
-49.3669
-34.8538
-34.2977
-36.1124
-34.235
-38.8084
-42.4434
-41.2302
-40.2766
-38.8291
-38.8266
-42.4198
-37.693
-36.3929
-39.9718
-38.6834
-36.5543
-36.9692
-36.9708
-35.1858
-37.0605
-54.9741
-51.3818
-49.4573
-62.7842
-12.512
-12.3971
21.894
-48.4201
-65.8734
-65.8709
-70.7162
-63.0505
-34.8538
-34.2981
-36.1099
-34.235
-38.7836
-42.4198
-41.2123
-40.259
-36.3873
-39.9749
-38.6863
-36.5529
-54.7108
-51.3313
-49.4439
-62.7654
-74.6179
-65.2354
-64.947
-58.0194
-74.5823
-65.2032
-64.9257
-57.9911
-65.6662
-56.765
-56.7601
-50.9624
-12.0862
1.56343
1.56536
16.618
201.625
191.242
190.717
201.632
-38.4678
-40.115
-39.7307
-42.1913
-38.4647
-40.1074
-39.7313
-42.1874
-34.7941
-36.178
-34.7817
-34.794
-86.5539
-97.5439
-83.5644
-86.5654
-51.5837
-48.1374
-51.033
-45.8789
-51.5474
-48.1107
-50.9975
-45.8735
-36.2297
-35.6374
-35.636
-35.2065
-41.7417
-46.0702
-46.0679
-51.4351
-30.0944
-25.1422
-29.5323
-30.0366
-72.5973
100.106
-96.2024
31.3755
-68.3128
-74.832
-42.5095
-32.4843
-39.2359
-30.9787
-49.1943
-41.6384
-68.295
98.2037
-42.6092
69.1811
-48.5889
-35.1126
-43.2051
-33.3459
-37.5857
-33.9013
-43.7175
-40.8459
-96.2186
31.5582
-72.6532
99.7744
-68.6354
-74.8683
-39.1547
-30.8971
-42.4509
-32.436
-49.1071
-41.703
-42.6231
64.5563
-68.3797
98.1745
-48.5955
-35.0995
-37.5792
-33.9029
-43.1265
-33.3071
-43.6978
-40.8368
-48.6832
-45.6154
-36.0519
-35.6966
-39.9633
-37.4969
-42.2681
-37.0873
-35.1349
-35.4986
-35.828
-34.3787
-36.2374
-32.6568
-34.8283
-37.546
-51.6501
-7.36145
-46.0525
-46.4221
-50.0959
-68.9664
6.92819
-76.1314
-47.8274
-56.7338
-42.4854
-41.9025
-47.2704
-57.0935
-63.7013
-61.7617
-48.7367
-45.6227
-42.2606
-37.0806
-36.0472
-35.696
-39.9461
-37.4822
-35.0971
-35.4984
-34.8274
-37.5525
-35.8264
-34.3779
-36.2383
-32.6351
-51.6245
-7.6594
7.14071
-76.05
-46.0343
-46.3958
-50.0636
-68.9368
-47.792
-56.7157
-63.8169
-61.755
-42.4947
-41.9036
-47.296
-57.0404
-67.8842
-58.7364
169.551
167.462
-76.7364
-76.7271
152.655
152.686
-74.4293
-56.8317
-64.362
-50.3375
-47.0427
-45.984
-32.3478
-32.5836
-37.6095
-37.6151
-25.1457
-25.0705
-44.0367
-51.2348
-35.5748
-37.358
-27.3512
-27.349
156.925
157.01
-56.4841
-70.7896
-17.4971
4.80711
-39.2356
-39.2338
-31.3764
-31.416
-47.7542
-47.9649
-52.6291
-42.5785
-67.9008
-58.7388
167.504
169.562
-74.3179
-56.8415
-64.343
-50.3329
-45.9218
-46.984
-32.2683
-32.5292
-44.0212
-51.2081
-35.5736
-37.3562
-70.7694
-56.454
4.83965
-17.4887
-47.9447
-47.7266
-42.5733
-52.6164
-37.2519
-37.0384
-35.7058
-34.4687
-47.9755
-47.3784
-38.6425
-42.8075
-46.0477
-46.0495
-36.4737
-36.4727
-37.7336
-40.9234
-36.2991
-40.4857
-35.003
-35.0029
-35.1472
-35.148
-43.8019
-45.1105
-83.9858
-71.6583
28.4054
28.3907
-92.0778
-92.0998
-74.1051
-74.0972
-58.1301
-58.1268
-37.2459
-37.0369
-35.7058
-34.4685
-47.3791
-47.9533
-38.632
-42.7907
-40.9311
-37.7337
-36.3385
-40.4802
-45.103
-43.8074
-71.8017
-83.9923
-72.758
-73.0642
-74.9489
-74.9405
-39.5425
-40.3611
-57.963
-54.6766
-51.8556
-56.3191
-57.9433
-42.9788
-65.1807
-71.5116
-74.9287
-59.4756
-72.8372
-74.9594
-74.8899
-72.7542
-65.2559
-59.4878
-74.901
-71.5478
-51.8285
-42.9626
-57.8942
-56.2931
-39.4925
-54.7717
-57.9559
-40.3473
-97.4177
-96.3334
-65.0875
-63.8346
-97.4407
-63.7459
-65.0807
-96.2991
-41.7538
-42.2115
-50.7112
-49.9511
-41.7369
-49.939
-50.7134
-42.2139
-46.5107
-26.4292
-13.046
-40.9206
-67.0356
19.2649
14.4417
-13.3333
-67.2251
-13.2939
14.4426
19.2575
-46.5148
-40.927
-13.0394
-26.4117
23.5695
121.246
191.09
55.4497
62.9533
75.1236
190.241
115.28
63.1391
115.229
190.19
75.346
23.2712
55.317
191.105
121.232
-36.7143
-36.1271
-38.4983
-38.5549
-35.3888
-37.3706
-38.2834
-36.0507
-46.1373
-47.6607
-41.6145
-40.4587
-51.1782
-42.9527
-42.3867
-49.2257
-36.7083
-38.538
-38.4903
-36.1234
-51.1439
-49.2175
-42.3795
-42.9311
-46.1784
-40.4629
-41.6166
-47.5853
-35.39
-36.0493
-38.2827
-37.3714
-36.6558
-37.5203
-36.0854
-35.3418
-36.6525
-35.342
-36.0851
-37.518
-34.2686
-35.1099
-34.6909
-34.1657
-34.2706
-34.1658
-34.6907
-35.1097
-76.8537
-65.9665
-94.7694
-48.2934
-55.164
-69.1622
-80.7919
-59.5405
-55.1502
-59.5189
-80.7619
-69.1601
-76.7234
-48.2101
-94.7735
-65.9312
-32.7172
-41.6631
-45.3111
-34.1087
-42.9369
-42.7205
-51.9822
-50.6583
-42.5486
-46.7221
-49.4192
-42.9945
-47.4415
-38.9986
-46.7217
-49.0962
-32.7013
-34.0395
-45.2946
-41.6715
-47.4867
-49.0774
-46.7106
-39.009
-42.4814
-42.9165
-49.3938
-46.7145
-42.8719
-50.6822
-51.9527
-42.6545
-36.3189
-37.1008
-35.2971
-36.1696
-36.3543
-36.1676
-35.2969
-37.1027
-43.1086
-36.269
-36.5157
-38.9921
-43.1976
-39.0002
-36.5176
-36.2933
-54.5121
-54.7487
-51.7059
-62.8893
-38.2533
-37.3995
-41.9615
-44.3512
-38.2422
-44.3397
-41.9601
-37.3969
-54.5049
-62.8848
-51.7028
-54.7022
-33.1513
-26.3106
-27.6916
-33.0791
-33.0839
-33.0312
-27.6075
-26.2519
-34.1895
-33.8709
-30.362
-32.9205
-34.225
-32.964
-30.4157
-33.833
-68.8479
-118.12
-73.9615
-40.5734
-39.0923
-42.831
-70.1516
-50.7639
-65.1111
-38.8885
-36.8871
-38.3564
-118.137
-68.874
-73.9702
-39.0226
-40.4179
-42.7678
-50.7316
-69.9369
-65.2261
-36.8429
-38.8295
-38.3241
-38.1381
-37.117
-37.1083
-37.403
-31.8952
-33.8631
-33.8114
-35.3349
-58.6679
-55.1817
-58.7848
-68.6041
-49.175
-49.6442
-49.6096
-51.7623
-38.0124
-37.2845
-37.1386
-37.0302
-31.8901
-35.3263
-33.8623
-33.8132
-58.6153
-68.5166
-55.1158
-58.726
-49.2093
-51.779
-49.6895
-49.6461
-67.371
-71.5418
-84.3094
33.5759
-131.839
-132.16
-115.5
-143.987
-64.3533
-53.9275
-60.0388
-56.1247
-38.4128
-37.8197
-41.2594
-34.0693
-32.1281
-32.1114
-34.6093
-26.7611
-39.3756
-38.1833
-40.8336
-37.3762
-54.6768
-54.6993
-51.4251
-38.775
-50.1815
-47.8206
-57.16
-30.9737
-35.5087
-35.5074
-36.6145
-34.8735
-47.9462
-50.2842
-49.2016
-49.8325
-67.5208
-71.3779
-84.3543
33.5174
-61.749
-53.9898
-60.0789
-56.0758
-38.3386
-37.7565
-41.1761
-34.016
-39.1951
-38.2451
-40.7881
-37.3431
-50.1984
-47.8254
-57.1742
-30.9678
-47.8792
-50.2472
-49.1671
-49.7823
-34.5819
-34.4335
-34.9722
-34.0965
-39.4656
-41.1837
-40.5057
-40.1236
-38.9128
-38.9121
-40.1811
-38.4745
-37.12
-38.9144
-38.3412
-37.2175
-37.0383
-37.0392
-35.6405
-36.8421
-54.0512
-52.3357
-51.888
-57.2143
-10.7176
-10.5322
7.78888
-28.1271
-66.5714
-66.5698
-68.6457
-65.0776
-34.5821
-34.4337
-34.9714
-34.0971
-39.4422
-41.1604
-40.4834
-40.1025
-37.1163
-38.9149
-38.3429
-37.2137
-53.9967
-52.3066
-51.8691
-57.1847
-70.5525
-65.3128
-65.2404
-62.2025
-70.5187
-65.2847
-65.2169
-62.1835
-61.0809
-57.0056
-57.0036
-53.8571
-4.07626
3.06621
3.0667
9.70268
204.192
200.968
201.934
204.194
-39.2649
-40.1109
-40.0029
-41.05
-39.2616
-40.1058
-40.0023
-41.0467
-34.8743
-35.5245
-34.7797
-34.8742
-88.6229
-92.9252
-86.0756
-88.6308
-52.0247
-48.8114
-51.1769
-48.0147
-51.9982
-48.7793
-51.1254
-47.9882
-35.8484
-35.5152
-35.5147
-35.185
-43.427
-45.8519
-45.8506
-48.4815
-29.2817
-28.6888
-28.8443
-29.2384
-66.2827
-65.2324
-84.9162
38.403
-129.819
-129.148
-113.208
-60.6013
-77.211
-67.3283
-70.5282
-73.2329
-39.2925
-38.9588
-41.0778
-34.1038
-36.8986
-34.3487
-38.3167
-32.2208
-46.9726
-49.5557
-50.2434
-43.7661
-69.4803
-68.7245
-85.0358
24.225
-52.5004
-43.272
-50.7693
-13.3283
-49.2675
-46.5623
-48.8371
-39.1411
-37.5625
-37.3529
-41.6516
-34.318
-35.3542
-35.3334
-36.5565
-34.4796
-40.7853
-43.9879
-42.9831
-42.2658
-129.793
-129.366
-113.245
-60.5317
-66.3065
-65.3227
-84.9619
38.3058
-77.2179
-68.4169
-71.0733
-73.4014
-36.8469
-34.3053
-38.2174
-32.1523
-39.2052
-38.8721
-40.9862
-34.0357
-46.8983
-49.5596
-50.1527
-43.7305
-52.6375
-43.5478
-50.8712
-11.2666
-68.4968
-68.6647
-85.1195
24.33
-49.2333
-46.5456
-48.8601
-39.1295
-35.3393
-35.3279
-36.5495
-34.4072
-37.5093
-37.2852
-41.586
-34.2712
-40.7683
-43.9826
-42.9349
-42.259
-42.5118
-48.02
-48.5281
-45.332
-36.245
-34.8987
-35.1333
-35.2957
-37.603
-38.2679
-38.6493
-37.6237
-38.4327
-38.6253
-40.1197
-37.804
-33.8033
-38.4868
-35.0616
-35.7655
-34.2709
-34.3726
-34.8423
-34.1434
-34.4493
-35.742
-35.7619
-34.0913
-35.4529
-36.7426
-35.1129
-36.188
-60.2288
-46.7811
-53.9527
-30.9405
-48.4371
-43.8284
-45.8388
-46.3685
-56.8172
-54.8515
-53.5442
-61.4213
-60.3737
-17.8314
-7.67934
-50.9148
-49.889
-50.1494
-50.3222
-52.9653
-43.6632
-41.0926
-42.3285
-41.896
-49.8724
-50.6993
-49.4598
-53.2958
-56.8853
-64.5245
-62.6238
-63.279
-42.411
-48.2645
-48.6589
-45.3266
-38.4137
-38.6195
-40.1092
-37.795
-36.2494
-34.8986
-35.1316
-35.2982
-37.5681
-38.2412
-38.6122
-37.6025
-33.8089
-38.5018
-35.0523
-35.7668
-35.4503
-36.7446
-35.1126
-36.1912
-34.2709
-34.3727
-34.8414
-34.1427
-34.4702
-35.7369
-35.7623
-34.0782
-60.1697
-46.8171
-53.9187
-31.495
-60.3735
-17.7866
-7.63417
-49.1127
-48.4011
-43.8033
-45.8142
-46.339
-56.7616
-54.8896
-53.5019
-61.6333
-49.8893
-50.139
-50.306
-52.962
-56.8672
-64.5203
-62.5947
-63.2656
-43.6752
-41.0975
-42.3372
-41.9012
-49.8979
-50.6986
-49.4812
-53.2796
-57.9167
-76.4617
-66.7408
-62.7751
159.372
193.728
177.488
177.679
-85.6375
-71.1896
-77.2667
-77.2613
101.087
173.31
146.506
146.383
-63.464
-64.8452
-69.5169
-61.3028
-56.0477
-56.4988
-59.9821
-53.0561
-44.3139
-48.7653
-46.6567
-46.1864
-32.9148
-31.5743
-32.8737
-32.4405
-36.5258
-36.6167
-37.189
-37.1925
-21.8613
-22.2269
-22.5514
-22.4983
-45.6482
-47.4146
-44.9164
-50.0273
-36.4989
-35.8424
-35.6331
-36.6766
-34.52
-18.8089
-27.1235
-27.1235
121.376
175.564
152.662
152.672
-64.0133
-64.8981
-62.0246
-70.1708
-11.6024
-1.20275
-11.1911
-0.68279
-38.1995
-40.2564
-39.1214
-39.1206
-32.1568
-30.4594
-31.0538
-31.0733
-48.849
-50.4982
-49.0934
-49.1581
-47.7024
-46.416
-49.5408
-44.5135
-57.9398
-76.4306
-66.7538
-62.7774
159.47
193.742
177.713
177.407
-63.4242
-64.8073
-69.4149
-61.2984
-56.0134
-56.4897
-59.9593
-53.0455
-44.2525
-48.7162
-46.1272
-46.5969
-32.8671
-31.5047
-32.7967
-32.3823
-45.6234
-47.3872
-44.8951
-50.0117
-36.4928
-35.84
-35.6302
-36.6755
-63.9919
-64.8787
-70.1529
-62.0029
-11.5834
-1.19401
-0.67129
-11.177
-48.8146
-50.4733
-49.1312
-49.066
-47.6917
-46.4108
-44.508
-49.5352
-36.6352
-37.7519
-37.2168
-37.1487
-34.4117
-34.681
-35.1155
-34.4726
-43.0749
-52.9145
-47.9668
-47.5421
-40.3836
-40.2816
-39.4858
-41.5268
-44.4062
-48.4548
-46.1616
-46.1623
-37.0763
-36.2259
-36.5603
-36.56
-38.9422
-39.3354
-38.4331
-39.9937
-35.5085
-42.1583
-36.7561
-38.866
-35.5567
-34.8847
-35.079
-35.079
-36.1133
-35.2898
-35.1264
-35.1257
-45.9906
-43.4147
-44.3823
-44.8748
-68.8931
-83.1511
-80.2355
-73.0573
30.0709
22.6366
29.6299
29.6276
-72.7218
-99.1272
-95.3539
-95.3561
-73.2161
-79.5965
-75.5175
-75.5172
-60.5467
-54.6009
-57.9313
-57.9296
-36.6324
-37.7488
-37.2125
-37.1466
-34.4114
-34.6807
-35.1149
-34.4722
-43.0837
-52.9062
-47.6286
-47.9676
-40.3674
-40.2713
-39.4741
-41.5112
-38.9432
-39.3366
-39.9967
-38.4341
-35.549
-42.1402
-36.8336
-38.8501
-45.9883
-43.411
-44.8684
-44.3843
-68.8785
-83.1549
-72.8748
-80.2105
-57.1845
-68.3735
-68.2116
-77.5349
-48.2667
-42.8794
-52.9278
-47.938
-49.6791
-46.6421
-52.4525
-47.7182
-57.748
-50.0059
-55.1397
-60.8548
-57.2431
-68.5027
-68.2433
-77.5087
-57.7478
-50.0178
-55.1557
-60.8614
-49.6677
-46.6384
-52.4264
-47.7119
-48.2619
-42.8546
-52.9462
-47.9117
-83.686
-75.5402
-76.2074
-69.6796
-83.6936
-75.5456
-76.2026
-69.6711
-45.7335
-44.2058
-47.9223
-45.9645
-45.7316
-44.2103
-47.9238
-45.9669
-35.8178
-31.7357
-28.256
-22.7304
8.24022
17.9885
10.3559
25.1475
8.5682
17.9842
10.3862
25.0962
-35.7832
-31.7322
-28.2513
-22.7334
130.174
102.161
160.402
150.462
125.626
119.895
155.89
153.697
119.488
125.647
153.496
155.934
102.196
130.321
150.55
160.495
-36.8635
-37.4413
-37.3265
-37.9361
-36.2162
-36.5544
-36.8767
-37.2477
-42.6959
-44.2979
-41.9415
-43.2586
-46.1896
-47.6408
-44.2424
-45.4339
-36.8565
-37.4305
-37.3194
-37.9267
-46.1665
-47.617
-44.2229
-45.4196
-42.7072
-44.3169
-41.951
-43.2701
-36.215
-36.5541
-36.8755
-37.2472
-35.9267
-36.5746
-35.8222
-36.2956
-36.5708
-35.925
-36.2941
-35.8216
-35.0943
-34.5616
-34.8677
-34.5521
-34.5622
-35.0946
-34.5519
-34.8677
-81.0928
-81.1605
-89.8949
-87.9082
-61.0883
-65.0119
-69.3802
-71.4649
-65.0909
-61.0675
-71.4369
-69.4315
-81.1128
-80.9984
-87.8928
-89.8832
-34.7089
-31.9487
-41.4222
-35.6635
-44.8268
-48.6545
-47.6228
-50.8967
-44.2525
-44.3475
-45.6286
-46.2534
-45.1076
-42.4778
-45.8555
-41.9252
-34.7004
-31.9282
-41.4249
-35.6877
-45.0886
-42.4688
-45.8382
-41.9298
-44.1847
-44.3201
-45.5786
-46.2153
-44.7629
-48.586
-47.564
-50.8581
-35.2917
-36.4177
-35.5615
-35.1953
-35.2939
-36.4233
-35.5617
-35.1963
-39.3169
-40.4024
-38.2547
-38.0998
-39.2677
-40.4117
-38.2577
-38.1007
-58.5329
-60.7266
-55.4812
-58.24
-38.6539
-40.1796
-39.4247
-40.9878
-38.6494
-40.1723
-39.4211
-40.9794
-58.5215
-60.7226
-55.4701
-58.2338
-32.0835
-30.9602
-31.6389
-28.7962
-30.858
-32.0225
-28.6949
-31.565
-33.2577
-32.9953
-32.1299
-32.8112
-33.0345
-33.2881
-32.856
-32.176
-82.3478
21.4502
-118.809
-52.2002
-77.6872
-98.109
-41.7579
-34.7821
-40.9482
-34.6719
-43.5432
-45.6147
-83.6161
20.5141
-53.6789
11.0943
-64.1544
-48.2661
-42.5686
-35.402
-36.9273
-34.9047
-41.4246
-38.9019
-118.86
-52.0795
-82.396
21.4815
-77.7891
-98.1604
-40.9088
-34.5994
-41.6822
-34.7077
-43.4845
-45.5745
-53.6837
11.3354
-83.6552
20.6615
-64.17
-48.2727
-36.9161
-34.8656
-42.5123
-35.3663
-41.3913
-38.8863
-40.0017
-41.4238
-36.6806
-36.5474
-37.8526
-36.9033
-39.0897
-37.3488
-34.3918
-35.782
-34.5217
-33.9798
-34.925
-33.3311
-34.5984
-36.1247
-55.0086
-72.8532
-51.7341
-51.5884
-54.8963
-65.2217
-85.0395
-84.659
-49.6838
-51.6792
-46.2787
-47.1361
-48.7396
-51.9564
-54.8437
-54.4409
-39.9551
-41.458
-39.0395
-37.3381
-36.6832
-36.5545
-37.7521
-36.893
-34.3909
-35.8144
-34.5948
-36.0947
-34.5225
-33.978
-34.925
-33.325
-54.9753
-72.721
-84.9841
-84.5799
-51.702
-51.5416
-54.8512
-65.1865
-49.7136
-51.6933
-54.8343
-54.4399
-46.3112
-47.1659
-48.7862
-51.8988
-87.9183
36.5239
-84.4989
37.1972
-75.5467
-72.7285
123.134
127.213
-112.769
-76.8306
-112.928
-80.0077
-96.857
-96.8417
16.4843
17.2239
-70.2272
-64.8134
-52.599
-49.7964
-67.5126
-59.5375
-59.6281
-52.7133
-40.8764
-34.1604
-41.4028
-33.9918
-42.8673
-42.9143
-33.3235
-32.8981
-35.625
-28.3344
-35.5969
-28.2934
-35.6799
-35.691
-24.9422
-24.9027
-49.3257
-40.8174
-39.8811
-36.6478
-42.7294
-47.4418
-36.2854
-37.8455
-50.0374
-22.6805
-50.0313
-22.6864
-41.1671
-41.1731
66.1486
66.1941
-55.6257
-36.2968
-55.6484
-28.5293
-60.4682
-63.0268
-23.1458
-16.1312
-36.5688
-34.6395
-36.5659
-34.6383
-37.3731
-37.3719
-33.8062
-33.8828
-46.1641
-45.5763
-50.0691
-51.8565
-48.0338
-49.1434
-52.6611
-47.125
-87.9435
36.5746
-84.4524
37.3
-75.5564
-72.7647
127.154
123.098
-70.5864
-64.4376
-52.7614
-49.869
-67.1857
-59.6056
-59.5243
-52.6955
-40.7884
-34.0838
-41.324
-33.9326
-42.8404
-42.7957
-33.2762
-32.8524
-49.3763
-40.8148
-39.8651
-36.6564
-42.664
-47.4224
-36.2802
-37.8324
-55.69
-36.2939
-55.6525
-28.5708
-62.9116
-60.4603
-16.1
-23.136
-46.0803
-45.5715
-50.0355
-51.8477
-49.1317
-48.0376
-47.1081
-52.6324
-35.0426
-35.1094
-35.0207
-34.0299
-36.1042
-36.0643
-34.7704
-34.163
-39.252
-38.6363
-42.5302
-42.5437
-40.6876
-41.9942
-39.243
-41.5075
-40.1087
-38.3127
-40.1065
-38.3098
-42.3426
-42.3438
-37.6425
-37.6415
-36.9135
-35.5074
-40.2075
-39.4168
-37.9985
-39.5355
-35.2237
-37.699
-35.5353
-36.8011
-35.5359
-36.8027
-35.2216
-35.2213
-37.0687
-37.0694
-52.2304
-59.5602
-50.6662
-54.9609
-48.0334
-48.1297
-64.3496
-61.0866
6.35334
-29.3329
6.50624
-29.2955
21.56
21.5454
-48.2742
-48.2258
-67.3917
-64.5511
-67.3889
-64.5458
-70.3369
-70.3359
-63.0894
-63.0876
-35.0412
-35.1102
-35.0203
-34.0306
-36.1012
-36.0623
-34.7707
-34.1627
-39.2251
-38.6149
-42.5088
-42.5196
-41.9767
-40.6709
-39.2257
-41.4891
-36.9124
-35.4903
-40.2101
-39.4215
-39.5391
-37.9994
-35.0792
-37.7227
-52.2287
-59.5136
-50.6198
-54.9384
-48.1183
-48.0568
-61.0662
-64.325
-74.8243
-74.7691
-70.4732
-62.1441
-62.0928
-70.4759
-58.05
-58.0105
-74.7786
-74.7393
-70.4176
-62.1293
-70.4527
-62.0718
-57.9658
-58.0371
-65.4465
-65.4435
-60.6106
-53.5253
-60.605
-53.5217
-50.8806
-50.8815
-12.2407
-12.2384
-5.53527
7.62864
7.63072
-5.52694
16.0648
16.0589