# vtk DataFile Version 2.0
tet_velo
ASCII
DATASET UNSTRUCTURED_GRID
POINTS 29498 float
-0.709422 0.275 -2.065
-0.635 0.345 2.12859
-0.739769 0.665 -1.925
-0.565 0.915 2.04167
0.710772 0.275 -2.065
0.635 0.345 2.13019
0.741242 0.665 -1.925
0.565 0.915 2.04266
-0.782987 0.199961 -0.667137
-0.800985 0.180489 0.730727
-0.827754 0.894574 -0.602777
-0.777796 0.986206 0.719447
0.784507 0.199341 -0.666604
0.803077 0.178847 0.731793
0.828384 0.894222 -0.602447
0.778769 0.986689 0.720107
-1.4885 -0.105408 -3.18037
-1.49542 -0.0573715 -2.09221
-1.54151 -0.11534 -0.692388
-1.52864 -0.147645 0.722589
-1.41582 -0.0496774 2.12369
-1.38648 0.0123463 3.2181
-1.40075 0.0504272 4.30094
-1.4893 0.175654 -3.13757
-1.49811 0.257084 -2.05767
-1.55901 0.230288 -0.672627
-1.52491 0.201148 0.719144
-1.35325 0.28543 2.10564
-1.34531 0.34428 3.19899
-1.38031 0.382779 4.28433
-1.50382 0.676798 -3.03077
-1.52465 0.75507 -1.94773
-1.5888 0.908037 -0.614248
-1.51193 0.957998 0.713783
-1.31143 0.928609 2.04869
-1.3245 0.983031 3.14508
-1.3751 1.03709 4.24256
-1.52008 1.59925 -2.92763
-1.53419 1.70208 -1.85596
-1.55635 1.87653 -0.546917
-1.54153 1.99197 0.745754
-1.4882 2.01636 2.05555
-1.45896 2.03109 3.12877
-1.45545 2.06255 4.21792
-0.72904 -0.0966721 -3.1851
-0.720791 -0.0437305 -2.09914
-0.764947 -0.130514 -0.691138
-0.788994 -0.161729 0.732597
-0.716596 -0.0193641 2.14095
-0.694401 0.0334045 3.22997
-0.704391 0.0606344 4.308
-0.729131 0.174101 -3.13895
-0.663714 0.365904 3.20885
-0.690861 0.392086 4.28977
-0.739535 0.639682 -3.02128
-0.646758 0.983318 3.14404
-0.689602 1.03869 4.2427
-0.749641 1.57385 -2.91819
-0.757771 1.67813 -1.84556
-0.784849 1.87191 -0.540505
-0.798588 2.00008 0.745355
-0.77774 2.01868 2.05068
-0.7568 2.02969 3.12393
-0.751714 2.06111 4.21452
0.755385 -0.0968405 -3.18491
0.75441 -0.0439218 -2.09895
0.789366 -0.131137 -0.69059
0.766834 -0.162913 0.733586
0.65581 -0.0197995 2.14228
0.65841 0.0330658 3.23119
0.671543 0.0602679 4.30909
0.744381 0.173996 -3.13883
0.643188 0.365683 3.21011
0.663366 0.391769 4.29086
0.754372 0.639593 -3.02117
0.618134 0.983168 3.14511
0.65011 1.03843 4.24372
0.783758 1.57366 -2.91789
0.789028 1.67793 -1.84523
0.770546 1.87173 -0.540042
0.707401 1.99998 0.745997
0.644906 2.01855 2.05146
0.63758 2.02949 3.12477
0.64682 2.06086 4.21538
1.50973 -0.105825 -3.17989
1.51351 -0.0578852 -2.09167
1.5573 -0.116411 -0.691312
1.52922 -0.149355 0.724386
1.39921 -0.0507717 2.126
1.36862 0.0115399 3.22036
1.37695 0.0496532 4.30303
1.49879 0.175333 -3.1372
1.49532 0.256725 -2.0573
1.56132 0.22937 -0.67164
1.541 0.199489 0.720935
1.37259 0.284519 2.10803
1.34365 0.343625 3.20129
1.36195 0.382089 4.28643
1.51206 0.676521 -3.03042
1.52088 0.754787 -1.9474
1.58712 0.907517 -0.613436
1.52185 0.957713 0.715243
1.32482 0.928119 2.05065
1.31309 0.982556 3.14713
1.34431 1.03652 4.24454
1.54735 1.59884 -2.92698
1.55503 1.70167 -1.85525
1.54056 1.87613 -0.545959
1.46833 1.99167 0.747043
1.38154 2.01601 2.05711
1.35606 2.03066 3.13045
1.35927 2.06203 4.21964
-0.750014 0.47 -2.02042
0.000674993 0.251279 -2.08872
-0.792352 0.191333 -1.36607
-0.652296 0.63 2.13743
0 0.341142 2.13325
-0.760073 0.220664 1.42966
0.000736505 0.799414 -2.05941
-0.833208 0.829233 -1.26389
0 0.967357 2.09452
-0.722097 1.0013 1.38056
0.752144 0.47 -2.02114
0.793112 0.191698 -1.3658
0.650966 0.63 2.13739
0.759578 0.221384 1.43099
0.834015 0.828814 -1.26372
0.722866 1.00183 1.38138
-0.779808 0.202403 0.031795
-0.882584 0.547267 -0.634957
0.000760064 0.199248 -0.66687
-0.879415 0.583347 0.725087
0.00104595 0.178566 0.73126
-0.809794 0.947409 0.0583351
0.000314935 1.16981 -0.602612
0.000486629 1.36089 0.719777
0.79026 0.192626 0.0325949
0.884057 0.546781 -0.634525
0.880108 0.582768 0.72595
0.811032 0.947911 0.05883
-0.865313 0.508634 -1.31498
-0.883151 0.565307 0.045065
-0.860477 0.606674 1.40511
0.000717529 0.201449 -1.36594
0.000903007 0.191878 0.032195
0.000522975 0.214096 1.43033
0.000705749 0.47 -2.25728
0 0.63 2.21229
0.00052572 0.961108 -1.26381
0.000400782 1.38735 0.0585825
0.000243314 1.17162 1.38097
0.865287 0.508391 -1.31476
0.884532 0.564774 0.0457125
0.857362 0.606384 1.40619
-1.10377 0.266042 -2.06134
-0.715107 0.115635 -2.08207
-0.719276 0.224551 -2.60198
-0.994125 0.315215 2.11711
-0.675798 0.162818 2.13477
-0.649357 0.355452 2.66872
-1.13221 0.710035 -1.93636
-0.739652 0.652341 -2.47314
-0.74877 1.17156 -1.88528
-0.938216 0.921804 2.04518
-0.605879 0.949159 2.59286
-0.67137 1.46684 2.04617
0.732591 0.115539 -2.08197
0.727577 0.224498 -2.60191
1.10305 0.265863 -2.06115
0.645405 0.1626 2.13624
0.639094 0.355341 2.67015
1.0038 0.314759 2.11911
0.747807 0.652297 -2.47308
0.765135 1.17147 -1.88511
1.13106 0.709894 -1.9362
0.591567 0.949084 2.59388
0.604953 1.46677 2.04706
0.944911 0.921559 2.04665
-1.171 0.215124 -0.669882
-0.773967 0.0347232 -0.679137
-1.16295 0.190818 0.724936
-0.79499 0.00937977 0.731662
-1.20828 0.901305 -0.608512
-0.806301 1.38324 -0.571641
-1.14486 0.972102 0.716615
-0.788192 1.49314 0.732401
0.786937 0.0341017 -0.678597
1.17291 0.214355 -0.669122
0.784956 0.00796705 0.73269
1.17204 0.189168 0.726364
0.799465 1.38298 -0.571244
1.20775 0.900869 -0.607942
0.743085 1.49333 0.733052
1.15031 0.972201 0.717675
-1.49196 -0.0813896 -2.63629
-1.4889 0.0351233 -3.15897
-1.10877 -0.10104 -3.18274
-1.51847 -0.086356 -1.3923
-1.49677 0.0998565 -2.07494
-1.1081 -0.050551 -2.09567
-1.53508 -0.131493 0.0151004
-1.55026 0.0574737 -0.682507
-1.15323 -0.122927 -0.691763
-1.47223 -0.098661 1.42314
-1.52678 0.0267515 0.720867
-1.15882 -0.154687 0.727593
-1.40115 -0.0186655 2.67089
-1.38454 0.117876 2.11466
-1.06621 -0.0345208 2.13232
-1.39362 0.0313867 3.75952
-1.3659 0.178313 3.20855
-1.04044 0.0228754 3.22403
-1.39053 0.216603 4.29263
-1.05257 0.0555308 4.30447
-1.49371 0.216369 -2.59762
-1.49656 0.426226 -3.08417
-1.10922 0.174878 -3.13826
-1.52856 0.243686 -1.36515
-1.51138 0.506077 -2.0027
-1.54196 0.215718 0.0232588
-1.57391 0.569162 -0.643437
-1.43908 0.243289 1.41239
-1.51842 0.579573 0.716464
-1.34928 0.314855 2.65232
-1.33234 0.607019 2.07717
-1.36281 0.36353 3.74166
-1.3349 0.663656 3.17204
-1.00451 0.355092 3.20392
-1.37771 0.709933 4.26344
-1.03559 0.387432 4.28705
-1.51424 0.715934 -2.48925
-1.51195 1.13802 -2.9792
-1.12168 0.65824 -3.02603
-1.55673 0.831553 -1.28099
-1.52942 1.22858 -1.90184
-1.55037 0.933017 0.0497674
-1.57258 1.39228 -0.580583
-1.41168 0.943303 1.38124
-1.52673 1.47498 0.729768
-1.31797 0.95582 2.59689
-1.39981 1.47248 2.05212
-1.3498 1.01006 3.69382
-1.39173 1.50706 3.13693
-0.985628 0.983175 3.14456
-1.41528 1.54982 4.23024
-1.03235 1.03789 4.24263
-1.52713 1.65066 -2.3918
-1.13486 1.58655 -2.92291
-1.54527 1.7893 -1.20144
-1.14598 1.6901 -1.85076
-1.54894 1.93425 0.0994185
-1.1706 1.87422 -0.543711
-1.51487 2.00417 1.40065
-1.17006 1.99603 0.745555
-1.47358 2.02373 2.59216
-1.13297 2.01752 2.05311
-1.4572 2.04682 3.67334
-1.10788 2.03039 3.12635
-1.10358 2.06183 4.21622
-0.724915 -0.0702013 -2.64212
-0.729085 0.0387147 -3.16203
0.0131729 -0.0967563 -3.18501
-0.742869 -0.0871224 -1.39514
0.0168092 -0.0438262 -2.09904
-0.776971 -0.146122 0.0207295
0.0122093 -0.130826 -0.690864
-0.752795 -0.0905466 1.43677
-0.0110798 -0.162321 0.733091
-0.705498 0.0070202 2.68546
-0.030393 -0.0195818 2.14162
-0.699396 0.0470195 3.76899
-0.679057 0.199654 3.21941
-0.0179955 0.0332352 3.23058
-0.697626 0.22636 4.29889
-0.016424 0.0604511 4.30855
-0.734333 0.406892 -3.08012
0.00762523 0.174049 -3.13889
-0.677288 0.378995 3.74931
-0.655236 0.674611 3.17645
-0.0102632 0.365793 3.20948
-0.690232 0.715388 4.26624
-0.0137476 0.391927 4.29032
-0.744588 1.10677 -2.96974
0.00741809 0.639638 -3.02123
-0.66818 1.011 3.69337
-0.701779 1.5065 3.13398
-0.014312 0.983243 3.14457
-0.720658 1.5499 4.22861
-0.0197462 1.03856 4.24321
-0.753706 1.62599 -2.38187
0.0170585 1.57376 -2.91804
-0.77131 1.77502 -1.19303
0.0156289 1.67803 -1.84539
-0.791719 1.936 0.102425
-0.00715141 1.87182 -0.540273
-0.788164 2.00938 1.39802
-0.0455937 2.00003 0.745676
-0.76727 2.02419 2.5873
-0.0664172 2.01861 2.05107
-0.754257 2.0454 3.66922
-0.0596099 2.02959 3.12435
-0.0524466 2.06098 4.21495
0.754897 -0.0703812 -2.64193
0.749883 0.0385777 -3.16187
1.13256 -0.101333 -3.1824
0.771888 -0.0875294 -1.39477
1.13396 -0.0509035 -2.09531
0.7781 -0.147025 0.0214979
1.17333 -0.123774 -0.690951
0.711322 -0.091356 1.43794
1.14803 -0.156134 0.728986
0.65711 0.00663319 2.68674
1.02751 -0.0352856 2.13414
0.664976 0.0466669 3.77014
0.650799 0.199374 3.22065
1.01352 0.0223029 3.22577
0.667454 0.226019 4.29997
1.02425 0.0549605 4.30606
0.749377 0.406795 -3.08
1.12159 0.174664 -3.13801
0.653277 0.378726 3.75048
0.630661 0.674425 3.17761
0.993418 0.354654 3.2057
0.656738 0.715101 4.26729
1.01266 0.386929 4.28864
0.769065 1.10663 -2.96953
1.13321 0.658057 -3.02579
0.634122 1.0108 3.69441
0.627857 1.50633 3.13494
0.965611 0.982862 3.14612
0.648465 1.54964 4.22955
0.997209 1.03747 4.24413
0.786393 1.6258 -2.38156
1.16555 1.58625 -2.92244
0.779787 1.77483 -1.19263
1.17203 1.6898 -1.85024
0.738973 1.93586 0.102977
1.15556 1.87393 -0.543
0.676154 2.00926 1.39873
1.08787 1.99583 0.74652
0.641243 2.02402 2.58812
1.01322 2.01728 2.05428
0.6422 2.04518 3.67008
0.996819 2.03008 3.12761
1.00305 2.06144 4.21751
1.51162 -0.081855 -2.63578
1.50426 0.0347541 -3.15854
1.53541 -0.087148 -1.39149
1.50442 0.0994201 -2.07449
1.54326 -0.132883 0.0165371
1.55931 0.0564795 -0.681476
1.46421 -0.100063 1.42519
1.53511 0.0250668 0.722661
1.38391 -0.0196159 2.67318
1.3859 0.116873 2.11702
1.37279 0.0305965 3.76169
1.35613 0.177582 3.21082
1.36945 0.215871 4.29473
1.49706 0.216029 -2.59725
1.50542 0.425927 -3.08381
1.52832 0.243048 -1.36447
1.5081 0.505756 -2.00235
1.55116 0.214429 0.0246476
1.57422 0.568443 -0.642538
1.4568 0.242004 1.41448
1.53143 0.578601 0.718089
1.35812 0.314072 2.65466
1.34871 0.606319 2.07934
1.3528 0.362857 3.74386
1.32837 0.663091 3.17421
1.35313 0.709303 4.26549
1.51647 0.715654 -2.48891
1.5297 1.13768 -2.9787
1.554 0.831152 -1.28042
1.53795 1.22823 -1.90132
[...]
POINT_DATA 29498
VECTORS point_vectors float
-4.25178 -4.1109 6.21257
0.245675 0.214257 0.726668
-1.856 0.757218 2.94886
-0.279481 -0.180262 0.0843411
4.41616 -4.33829 6.47152
-0.233594 0.220872 0.743792
1.22962 0.558509 2.48377
0.245848 -0.164855 0.0751315
0.00945917 -0.00298337 0.745546
0.0392457 0.0317884 0.889361
-0.00713545 -0.00505537 0.0432541
0 0 0
-0.00594731 -0.0088093 0.670721
-0.0471671 0.0414547 1.09264
0.00100079 -0.0007863 0.00790989
0 0 0
-0.571249 -0.25717 19.8174
-1.27869 -0.710749 20.375
-0.48696 -0.435411 21.3385
0.129268 -0.0907938 21.5336
0.859796 0.248072 21.4257
1.08987 0.225528 21.0274
0.924795 0.0923618 20.8255
-0.658695 -0.189321 19.737
-1.7508 -0.567609 20.3216
-0.649622 -0.517117 21.4205
0.131363 -0.237058 21.6304
1.18676 -0.0290381 21.4832
1.36107 -0.0157811 21.0893
1.09348 -0.0437304 21.0457
-0.795772 0.0302713 19.6579
-1.90201 0.0525026 20.354
-1.15257 -0.275547 21.3777
-0.216509 -0.39705 21.7115
0.722797 -0.808443 21.4288
1.07519 -0.856966 21.12
0.881911 -0.71684 20.3713
-0.574741 0.35481 19.9066
-0.984243 0.615467 20.3509
-0.882106 0.386833 21.1082
-0.334833 -0.0176939 21.4319
0.0433919 -0.316531 21.339
0.232505 -0.470137 21.1912
0.244939 -0.557378 20.6993
-0.549882 -0.558317 19.2669
-2.02975 -3.59873 20.1876
-0.446145 -0.459715 21.7098
0.0488631 0.15903 21.3243
0.867419 1.4249 18.5931
1.32822 1.52908 18.0521
1.11253 1.06808 18.2029
-0.679193 -0.458864 18.9998
1.9984 1.27607 10.2108
2.05866 1.06346 13.9418
-0.956252 0.0896329 18.5945
0.530924 -0.87096 5.30975
1.12575 -0.982073 11.9089
-0.549655 0.771114 19.431
-1.11565 1.69963 20.0581
-1.29184 1.5503 21.2088
-0.402065 0.201893 21.7994
-0.0750381 -0.343464 21.3391
0.065377 -0.586161 21.1891
-0.00437123 -0.405613 21.2752
0.560453 -0.536201 19.2881
2.06558 -3.41934 20.2021
0.418436 -0.453926 21.648
-0.0366228 0.164048 21.3043
-0.74611 1.42519 17.8954
-1.2511 1.56992 17.9445
-1.08035 1.15066 18.0801
0.691545 -0.447379 19.0147
-1.92519 1.31442 9.84083
-2.09436 1.17783 13.3846
0.962735 0.0889608 18.623
-0.458719 -0.850603 4.30324
-1.07095 -0.960683 10.7415
0.561159 0.756976 19.4498
1.13758 1.64735 20.0703
1.28876 1.5833 21.2055
0.39786 0.255764 21.8428
0.107532 -0.296491 21.3931
-0.0263051 -0.53596 21.1811
-0.0513802 -0.405987 21.4923
0.563995 -0.250371 19.8318
1.25764 -0.687991 20.3906
0.495223 -0.443022 21.3307
-0.125147 -0.0931992 21.5295
-0.871824 0.261745 21.4326
-1.10779 0.243026 21.0056
-0.925206 0.114951 20.889
0.65786 -0.187158 19.7456
1.76354 -0.577912 20.325
0.65491 -0.517619 21.4225
-0.128408 -0.237471 21.6205
-1.15349 -0.0421114 21.4905
-1.3592 -0.0156703 21.0894
-1.12542 -0.0617509 21.0108
0.791274 0.0265387 19.6737
1.91076 0.0551739 20.3579
1.15699 -0.274982 21.3849
0.209148 -0.388194 21.7076
-0.720177 -0.797042 21.4235
-1.09299 -0.872508 21.1048
-0.951274 -0.779052 20.2249
0.570265 0.345299 19.9198
0.972628 0.596998 20.3572
0.896236 0.398471 21.1122
0.356988 -0.00432505 21.4691
-0.00963501 -0.354524 21.3235
-0.208409 -0.479781 21.0964
-0.15421 -0.471597 20.9557
-0.448592 -0.0377146 0.525329
0.00445634 -0.0643809 0.300696
-0.00116705 -0.0145443 0.813925
-0.0129923 -0.0484972 0.0339426
-0.000108013 0.00970739 0.0411701
0.0537467 0.0220159 1.08678
0.00106441 0.516286 1.22336
-0.0764342 -0.0294278 0.294181
-0.000183077 0.0692183 -0.186294
0.00713803 -0.011746 0.100026
0.753905 -0.0612451 0.885957
0.00211812 -0.0151385 0.803809
0.0110355 -0.0401728 0.0264711
-0.0495311 0.029827 1.06305
0.0909648 -0.0364286 0.343366
-0.00743256 -0.0122202 0.104638
-0.000831737 -0.000499169 0.244163
-6.33626e-06 -0.000142451 0.0126566
-1.71005e-06 -1.44468e-06 0.00166286
0 0 0
-0.000147188 0.0134841 0.243244
0 0 0
-0.000130676 0.117976 0.231944
-0.00012583 -0.00207726 0.0212714
0.00680085 -0.0109228 0.853019
5.5192e-06 -8.36924e-05 0.00852456
0 0 0
0 0 0
0 0 0
-7.33638e-05 0.00203157 0.0201111
0.00640497 0.0051535 0.0779466
0 0 0
-2.33703e-06 -3.39484e-05 0.00579313
0 0 0
-0.0133899 -1.24392 0.992905
-3.96629e-05 -0.00981184 0.00899751
0.000938658 0.0128606 0.158593
5.3904e-06 0.012445 0.111863
7.22327e-05 0.0048688 -0.0131155
0 0 0
6.44879e-05 0.00181451 0.0180062
-0.00155641 0.00160074 0.0233715
-3.49371 -1.56899 19.973
-3.31498 -5.88829 19.9258
-1.92721 -1.37533 17.8026
1.74813 0.534331 16.0348
0.943031 1.32417 10.4986
1.64906 0.757395 6.47647
-3.85281 0.414225 20.1338
-3.04721 0.736691 16.7574
-2.58166 2.97232 19.758
0.792545 -0.736788 12.5678
-0.521402 -0.613932 1.78248
-0.0600187 -0.564574 16.7137
3.42423 -5.65344 19.8868
1.94449 -1.3732 17.8262
3.49889 -1.57447 19.9802
-0.8237 1.27837 9.97588
-1.59438 0.772727 6.24731
-1.74421 0.519019 16.4308
3.05728 0.733079 16.8088
2.59668 2.89023 19.776
3.858 0.416885 20.1386
0.544509 -0.567646 1.41578
0.0714628 -0.50759 15.8711
-0.81398 -0.72375 12.8909
-0.404124 -0.8551 21.4517
-0.132391 -0.0312004 17.006
0.302053 -0.146773 20.6636
0.276677 0.212349 17.5323
-1.92134 -0.763573 21.687
-3.34291 1.98323 21.302
-0.185047 -0.519791 20.1826
-0.670363 -0.0620718 21.4307
0.132132 -0.054285 17.2521
0.427522 -0.861056 21.4747
-0.263877 0.228917 17.4413
-0.308573 -0.156675 20.8214
3.3637 2.0506 21.3019
1.92793 -0.764648 21.6945
0.540168 -0.0169797 20.5935
0.183972 -0.540289 20.295
-0.935105 -0.469864 19.9326
-0.626491 -0.231651 19.7816
-0.625607 -0.41265 19.5511
-0.955011 -0.633086 21.093
-1.517 -0.659406 20.3401
-1.92096 -1.65479 20.2812
-0.165657 -0.254968 21.4703
-0.5813 -0.48783 21.3696
-0.374201 -0.538784 21.5694
0.477951 0.0848181 21.5717
0.119344 -0.17383 21.5598
0.184468 -0.00460143 21.7211
1.02759 0.291339 21.1928
1.0201 0.151358 21.4779
1.16445 0.813131 21.0654
1.18171 0.219874 20.6624
1.23967 0.122113 21.1856
1.44857 0.891777 21.0415
1.0401 0.0145211 20.9573
1.08231 0.508814 21.2538
-1.18926 -0.351949 19.7994
-0.738562 -0.106966 19.6693
-0.736365 -0.326682 19.4154
-1.26822 -0.615135 21.1841
-1.85866 -0.269218 20.3486
-0.256172 -0.386438 21.5234
-0.905491 -0.477943 21.4063
0.618127 -0.119597 21.7048
-0.00583946 -0.375127 21.7217
1.34148 -0.00887048 21.2717
1.13162 -0.49951 21.418
1.57631 -0.0709583 20.4828
1.37737 -0.480786 21.1255
1.98655 0.529753 18.1276
1.18453 -0.62924 20.2664
1.59635 0.164911 18.8581
-1.41085 0.0665311 19.7705
-0.73326 0.262977 19.7486
-0.94802 0.0478252 19.2398
-1.59278 -0.129857 21.0653
-1.45326 0.515547 20.312
-0.707881 -0.346467 21.6311
-1.18036 0.157294 21.2415
0.320476 -0.571456 21.7125
-0.369397 -0.192771 21.5882
0.864393 -0.888151 21.32
0.184006 -0.563321 21.3806
0.980947 -0.720694 20.7265
0.425788 -0.669818 21.1236
1.34818 -0.955483 17.3557
0.268713 -0.615859 21.0192
1.35984 -1.4144 18.7937
-0.79407 0.518367 20.0535
-0.633645 0.537905 19.6829
-1.00882 0.542641 20.7586
-1.17022 1.07254 20.2277
-0.625294 0.18457 21.3768
-1.14033 0.804535 21.1963
-0.114077 -0.196467 21.3457
-0.402964 0.0645479 21.5957
0.128214 -0.446067 21.1493
-0.0305831 -0.378868 21.337
0.138775 -0.33299 21.171
0.153751 -0.501039 20.8725
-0.0501836 -0.323452 21.5776
-1.22057 -1.52865 18.8896
-0.59785 -0.520689 19.1582
0.00649032 -0.756269 18.955
-0.949404 -1.454 22.0247
0.0345137 -4.91709 20.866
-0.198587 -0.171471 21.3073
0.00566954 -0.664304 21.3311
0.439606 0.742402 20.0319
-0.000648446 -0.0477951 20.283
1.06521 1.55617 18.3146
0.0166827 1.11485 15.7597
1.2065 1.40466 18.6538
1.80597 1.66212 15.2945
0.0199615 1.66981 16.2562
1.51665 1.21494 16.3443
0.0737243 1.89725 17.0164
-0.852212 -0.227038 18.7585
0.00833886 -0.627247 18.5487
2.21563 1.08685 12.0964
1.88283 -0.238141 6.25452
0.0176171 1.39892 4.79656
2.08271 0.329156 12.7717
0.0633058 2.06248 10.5578
-0.798399 0.652745 18.9386
0.0131761 0.134811 17.8168
0.771251 -0.855614 8.38943
0.105691 -1.11273 19.0213
0.0837409 1.73653 -6.31647
0.00228391 -1.15051 19.215
-0.00422705 1.80194 -5.1942
-0.87453 1.34254 19.5589
0.0143441 1.03355 19.1594
-1.22723 1.64287 20.5842
0.0275125 2.44271 19.879
-0.882755 0.900709 21.8168
-0.0185844 2.77307 21.1131
-0.17379 -0.169327 21.594
-0.0532359 0.526785 21.9761
-0.0186565 -0.456963 21.2713
-0.0349712 -0.138908 21.5375
0.0273844 -0.619495 21.4673
-0.0111073 -0.482258 21.1082
0.00410687 -0.110288 21.9853
1.23231 -1.48234 18.9328
0.608944 -0.504758 19.1748
0.623246 -0.407153 19.563
0.93142 -1.40028 21.9642
1.86808 -1.54566 20.2831
0.193754 -0.165755 21.3266
0.38339 -0.541524 21.5529
-0.397777 0.747667 19.7852
-0.187898 0.0076338 21.7282
-0.965067 1.59462 17.5878
-1.15981 0.898926 21.0143
-1.18163 1.49281 18.5436
-1.72295 1.68656 14.8768
-1.4931 0.969967 20.7319
-1.47904 1.29543 16.246
-1.12629 0.567441 20.9637
0.870083 -0.224033 18.7812
0.741589 -0.326305 19.424
-2.25462 1.18884 11.604
-1.79427 -0.188556 5.58787
-2.00003 0.568835 17.9877
-2.02901 0.350252 11.7868
-1.62056 0.210113 18.6039
0.809886 0.636435 18.9646
0.948501 0.0461044 19.2556
-0.700973 -0.834337 7.21695
0.00419767 -1.05922 18.2937
-1.38165 -0.962181 16.8632
0.0212339 -1.20742 18.7084
-1.36743 -1.40869 18.5595
0.892517 1.3075 19.5767
0.632176 0.511226 19.7011
1.23276 1.62785 20.5872
1.16803 1.03804 20.2369
0.877237 0.977382 21.8589
1.15576 0.83198 21.2003
0.186425 -0.14098 21.5821
0.418146 0.0982284 21.6283
0.0474654 -0.421139 21.2995
0.050193 -0.371969 21.3675
0.0238931 -0.622263 21.4617
-0.129598 -0.539453 20.9412
0.0758306 -0.350278 21.6694
0.925065 -0.462396 19.9528
0.626191 -0.227317 19.7918
0.958826 -0.618604 21.0713
1.50247 -0.651342 20.3514
0.162796 -0.260279 21.4768
0.584162 -0.489193 21.3617
-0.477727 0.0801767 21.5741
-0.114939 -0.178031 21.5477
-1.04099 0.313592 21.1949
-1.01808 0.146751 21.4773
-1.21036 0.227858 20.6345
-1.24815 0.131895 21.1781
-1.04432 0.035259 21.0156
1.19153 -0.352724 19.8031
0.735166 -0.103047 19.6825
1.27078 -0.619115 21.1838
1.87521 -0.27698 20.356
0.255281 -0.386815 21.5272
0.909345 -0.482746 21.4153
-0.607611 -0.121823 21.69
0.00285772 -0.367054 21.7131
-1.3305 -0.0141614 21.2781
-1.10226 -0.488392 21.4471
-1.59798 -0.0576453 20.4299
-1.39078 -0.480685 21.1261
-1.24054 -0.681987 20.149
1.40509 0.0628771 19.7814
0.727367 0.252965 19.7652
1.59696 -0.128191 21.0682
1.44146 0.504939 20.3163
0.704278 -0.3443 21.6348
1.19682 0.156976 21.2472
-0.320258 -0.564655 21.7042
0.386441 -0.198601 21.6208
-0.869404 -0.887433 21.3085
-0.170241 -0.582904 21.3961
-0.990645 -0.740896 20.6737
-0.403664 -0.707127 21.195
-0.234673 -0.648235 21.1773
0.786329 0.501537 20.0655
1.00663 0.542673 20.7601
0.655692 0.209788 21.3947
0.127514 -0.204599 21.3872
-0.0922771 -0.437121 21.2005
-0.121179 -0.374656 21.2772
-1.06711 -0.434636 19.8556
-1.50074 -1.54331 18.4192
-1.23123 -0.923914 19.4874
-1.70129 -0.741737 19.0926
-0.67983 -0.396053 19.4948
-2.59536 -1.75116 20.152
-1.10729 -0.646594 21.1407
-0.636718 -0.81432 17.863
-1.044 -1.10786 21.5032
-1.55201 -1.30075 21.8555
-0.332186 -0.645993 21.6263
-0.215691 -0.339032 21.492
0.0491077 0.00334684 16.6882
-0.0869615 -0.266117 21.616
-0.0103532 -0.47324 20.8345
0.294629 -0.0642035 21.5739
0.553303 -0.00253889 21.6433
0.62664 0.617234 13.7692
0.658905 0.405043 21.5549
0.919429 0.292028 18.8158
1.56239 0.837926 19.5231
1.24755 0.197177 21.2257
1.37185 1.51702 13.3065
1.33614 0.866302 20.9464
1.96831 0.445422 17.0787
1.7274 0.817635 19.1923
1.46955 0.115236 20.4581
1.73074 1.25726 15.0727
1.4001 0.814668 21.1222
1.92448 0.212589 19.1206
1.27876 0.468813 19.4685
-1.34106 -0.185939 19.7598
-2.58671 -0.650751 16.9818
-2.19042 0.234318 18.9512
-0.87869 -0.150863 19.2789
-4.09463 -0.593882 20.0522
-1.48236 -0.414191 21.1474
-2.56686 -0.305259 21.4946
-1.01117 -1.04697 21.5663
-0.45184 -0.452277 21.5946
-1.0565 -0.825664 21.2303
0.190716 -0.237626 19.3035
0.568509 -0.395312 21.7214
0.700422 -0.261632 17.3432
1.40763 -0.309422 12.7936
1.32316 -0.513987 21.1189
0.421717 -0.632353 2.45573
0.941503 -0.924279 15.6727
2.00465 -0.495993 16.3233
1.16859 -0.472537 21.232
2.08062 0.323298 9.55849
1.34908 -1.26998 18.6575
1.70216 -0.52455 18.1387
-1.14418 0.432207 19.8891
-1.72982 1.79954 18.5954
-0.942564 0.867329 19.8143
-0.823068 0.409011 19.4193
-2.17359 1.23645 20.1167
-1.42803 0.360176 20.8572
-2.56291 2.09053 20.636
-1.23282 0.999591 20.7124
-1.9347 0.524145 21.3861
-0.806606 -0.0190368 21.5441
-2.21208 0.741669 22.1265
-0.806382 0.44992 21.5612
-0.555223 -0.181058 21.9281
-0.0209279 -0.400542 21.5419
-0.0663681 -0.509162 19.3038
-0.162747 -0.211772 21.4932
0.0170764 -0.74969 21.3671
0.314951 -0.666549 21.2843
-0.0490037 -0.772421 18.0524
0.0555953 -0.459274 21.2122
0.300654 -0.906986 21.5299
0.48357 -0.570717 21.0316
0.237721 -1.0572 19.0318
0.133676 -0.552055 21.4407
0.103999 -0.837991 21.1967
1.51157 -1.50975 18.4696
0.0217264 -2.3949 18.1693
0.00845235 -2.49921 15.908
0.0104996 -0.753116 18.7899
0.0014796 -6.99897 22.5765
0.636549 -0.837772 18.2627
0.00894672 -1.70049 21.9993
-0.00735591 -0.177674 13.6715
-0.0358892 0.0118509 16.9005
0.00155438 -0.36656 20.5143
0.000536883 0.0230431 13.5241
-0.608004 0.610962 13.3577
0.0094561 0.568313 18.0177
0.00904172 0.721478 6.69427
-1.26335 1.50017 12.7648
0.0199425 1.29979 15.9623
-0.00187733 0.0778434 1.93232
0.0174544 1.67327 10.1284
-1.70887 1.33647 14.9739
0.0661807 1.98841 16.489
0.0464924 1.39342 5.58656
0.0704373 1.89651 14.5768
2.59228 -0.635245 17.0321
0.0182131 1.91164 13.616
0.00754171 -0.313493 18.108
-0.390553 -0.578938 2.23935
-0.00588679 1.05858 -4.5476
0.0779173 0.665217 -1.82966
-2.03228 0.419316 9.0098
0.0968942 2.20908 -6.76211
0.0740394 1.982 2.30088
1.74159 1.75085 18.6375
0.0214874 1.91292 19.2557
0.015288 0.952369 18.3974
0.0289093 4.67148 19.551
2.5672 2.07428 20.6359
0.0100003 2.52205 20.3344
-0.0235378 5.40396 19.9341
2.27725 0.819057 22.1114
-0.0539925 1.69894 22.1585
-0.0294418 0.271491 18.4103
0.00648798 -0.481611 18.3949
-0.0371729 0.0220444 21.6287
-0.0690688 0.0764743 9.28132
0.0848735 -0.696296 17.1882
-0.0220314 -0.282065 21.4288
-0.008449 -0.494555 11.6568
-0.203019 -1.03203 18.505
-0.0154597 -0.48482 21.5745
-0.000295048 -0.632606 12.9152
1.05151 -0.427685 19.8792
1.21907 -0.89296 19.5135
1.6976 -0.736685 19.106
0.679822 -0.390003 19.5033
2.53469 -1.68391 20.1684
1.10747 -0.641275 21.124
1.05132 -1.0858 21.4631
1.56132 -1.29956 21.8441
0.361375 -0.656704 21.6321
0.213797 -0.339941 21.4979
0.0899717 -0.267408 21.6167
0.0201822 -0.481462 20.9661
-0.297059 -0.0563483 21.5691
-0.551072 -0.00539501 21.6343
-0.652017 0.432886 21.6151
-0.929994 0.270904 19.0561
-1.57327 0.879807 19.2827
-1.24918 0.195271 21.2089
-1.35755 0.941039 20.9143
-1.96757 0.449409 17.0594
-1.75103 0.879777 18.9625
-1.51793 0.132924 20.4102
-1.3906 0.832043 21.035
-1.93234 0.25783 18.7756
-1.31082 0.52625 19.19
1.34548 -0.187945 19.7709
2.1835 0.228837 18.9675
0.880519 -0.149728 19.296
4.0954 -0.598094 20.0621
1.4889 -0.417344 21.1515
2.57035 -0.307926 21.4861
1.02616 -1.04271 21.5759
0.446734 -0.452561 21.6035
1.04667 -0.826043 21.2679
-0.200965 -0.272874 19.5733
-0.554836 -0.390995 21.7129
-0.688587 -0.302581 17.589
-1.4232 -0.290509 13.1641
-1.31574 -0.51349 21.1404
-0.939312 -0.927009 15.3934
-2.04237 -0.510971 15.9305
-1.20284 -0.447906 21.125
-1.34296 -1.18334 18.0652
-1.73822 -0.466847 17.8237
1.13091 0.417939 19.9034
0.935862 0.827486 19.8354
0.822968 0.399642 19.4364
2.15848 1.19834 20.1209
1.43218 0.358967 20.8567
1.23266 0.993118 20.7133
1.96 0.539635 21.3903
0.823086 -0.0252549 21.563
0.826886 0.502214 21.5937
0.575505 -0.177212 21.963
0.0155913 -0.421112 21.567
0.177112 -0.195802 21.521
0.013295 -0.753989 21.0283
-0.300273 -0.686463 21.2818
-0.0370295 -0.47764 21.2095
-0.313223 -0.960409 20.9194
-0.489189 -0.658307 21.017
-0.126412 -0.612911 21.4896
-0.0823742 -0.903647 20.8586
-1.39752 -0.8696 19.3614
-1.23969 -1.22283 21.679
-0.0101401 -0.345708 21.5196
0.871945 0.38483 20.9577
1.7204 0.838371 19.5292
1.65644 0.509891 20.1089
-2.06814 -0.308389 18.9125
-2.17058 -0.961074 21.857
-0.302656 -0.733652 20.4198
0.845926 0.111408 16.7044
1.66987 -0.475624 14.8053
1.79879 -0.200634 16.9565
-1.54615 0.877509 19.439
-2.08013 0.855725 20.8668
-1.31437 0.14193 21.926
-0.124646 -0.522548 21.757
0.151053 -0.824665 21.2931
0.413628 -1.09382 21.1961
0.0256805 -2.53122 17.3443
-0.000991809 -0.859021 15.1639
-0.00359239 -0.134847 13.0514
0.0110536 0.477542 9.84092
0.0131203 0.843567 8.22094
0.0608918 1.59081 10.8291
0.0107266 -0.936038 14.3469
0.00473399 0.195404 -1.69566
0.113691 1.36495 1.69898
0.0300946 3.00603 17.6309
0.00432389 3.64159 20.082
-0.0428628 2.66713 21.0632
-0.0220215 -0.113316 12.9907
-0.114293 0.0126161 9.99892
-0.0834929 -0.581808 12.2003
1.3891 -0.849827 19.3815
1.25176 -1.20964 21.6441
0.0168354 -0.348524 21.5475
-0.879807 0.404134 20.8342
-1.72527 0.885454 19.3628
-1.65698 0.544279 19.8702
2.06378 -0.30908 18.9326
2.16934 -0.960989 21.8511
0.311024 -0.733938 20.537
-0.852275 0.0742065 17.0034
-1.67063 -0.473693 14.6846
-1.82067 -0.177799 16.5
1.54016 0.849591 19.4598
2.07891 0.8526 20.8606
1.35162 0.171831 21.9535
0.152877 -0.542364 21.7583
-0.136869 -0.846182 21.0346
-0.371332 -1.14999 20.9949
-4.93896 -1.44253 5.24151
0.00867382 -0.134541 0.319653
-0.151125 -0.186551 2.27309
0.0698041 -0.0667554 0.104923
-0.00253166 0.0139703 0.0601459
0.0635684 0.0791046 0.536152
-0.599433 0.0307145 0.854835
-0.138897 0.693158 1.31967
-0.207765 0.0678016 0.60129
-0.0182296 -0.0184293 0.000403995
-0.0902834 0.0425134 -0.0980876
-0.0146262 -0.0176146 0.0295141
-0.0123554 -0.151015 0.360759
5.21 -1.51977 5.44455
0.160342 -0.191096 2.46553
0.000853949 0.0154512 0.0680365
-0.0706969 -0.0665033 0.103674
-0.0726222 0.0777212 0.53951
0.13272 0.630672 1.23759
0.602837 0.0127968 0.857028
0.183243 0.0594863 0.543638
0.0841488 0.0399765 -0.0926743
0.0209282 -0.0203784 5.10729e-05
0.00806805 -0.00968787 0.0161051
-0.00569275 0.0724073 1.34119
-0.00250758 0.00102188 0.261577
0.000406326 0.0062687 0.178236
0.000419207 -6.83518e-05 0.00886074
0.0249847 0.0128416 0.506448
-0.00326506 -0.0026897 0.685955
0 0 0
0.00285605 0.00276364 0.132458
-0.119999 -0.0844913 0.330498
-0.0030723 -0.00535151 0.149433
0.0059833 0.0123699 0.0775872
-0.0634641 0.0510225 0.132136
0 0 0
0.0295281 0.10026 0.478808
0 0 0
0.0154654 -0.00369876 0.0720427
0.0183519 0.0643825 1.29274
-0.000332637 -4.5935e-05 0.00649917
0.00438474 0.00576042 1.02552
-5.07035e-05 0.00533244 0.156822
-0.0235274 0.00948748 0.488949
-0.00165332 0.00261568 0.119345
0.0141107 -0.00986011 1.51998
0 0 0
0.14862 -0.103401 0.400976
0.0680148 0.054603 0.141544
0.00269402 -0.00380211 0.13992
-0.00272731 0.00560481 0.0333045
0 0 0
-0.0186036 -0.00464543 0.0864662
-0.0303697 0.0940251 0.46247
0 0 0
-0.00173007 -0.00138426 0.0169157
-1.13267 -0.613522 0.948976
-4.25002e-05 -0.0010211 0.0117654
0 0 0
9.18716e-19 1.45704e-18 -2.58032e-17
-0.000436019 -0.00352703 0.10705
0.0029582 -0.00305009 0.0179737
0 0 0
1.33679e-05 0.00189602 0.00842719
-0.0001298 -0.0322168 -0.00511135
0.00159722 0.0018121 0.0347891
0.000884753 0.00136745 0.0157592
-1.7532e-05 0.784982 0.700265
5.12771e-05 0.00139442 0.0066518
7.1253e-18 5.47799e-18 -1.17712e-16
-0.0266254 0.0154901 0.127714
-3.77843e-05 -0.010116 -0.0019984
9.50826e-06 0.000682302 -0.00313
0.0389718 -0.0056817 0.280287
-0.000982181 0.000399161 -0.00134383
1.18101 -0.60409 0.942272
0.00694728 -0.00581239 0.0694171
-0.000266475 -0.00431045 0.116628
0 0 0
0 0 0
-0.00413437 -0.00425608 0.0255957
-0.000865167 0.00136506 0.0157454
0 0 0
0.0181272 0.0108643 0.0885501
0 0 0
0.00138386 0.000548944 -0.00191544
-0.0327063 -0.00262908 0.24166
-0.00321446 0.0307995 0.325117
0 0 0
-0.000536903 -0.0261731 0.284621
-3.62707e-05 0.000997298 0.0157816
2.68199e-05 0.000604373 0.0243272
-2.19837e-07 -2.5449e-06 0.00139335
-1.30881e-05 0.000468485 0.00383469
0 0 0
0 0 0
0 0 0
0.00468016 0.018833 0.125025
-0.0218292 0.0428734 0.522464
0.000137771 0.000576718 0.00326785
-0.00023259 0.181188 0.471511
-3.10748e-05 0.000356905 0.0393966
0.000261654 0.00116432 -0.00107645
0 0 0
0.00305122 0.0247628 0.257164
0.00610945 -0.0260372 0.336236
2.87082e-05 0.000781479 0.0125556
1.83015e-05 0.000497748 0.00410826
0 0 0
0.0199917 0.0423692 0.503413
-0.00530611 0.0222267 0.149027
-7.50863e-18 -9.96583e-18 1.06356e-16
-0.00244641 -0.00139523 0.0128465
0.00687543 -0.0586841 0.767463
0 0 0
-0.0017295 0.0183105 0.236946