# vtk DataFile Version 2.0
tri_press
ASCII
DATASET UNSTRUCTURED_GRID
POINTS 3682 float
-0.709422 0.275 -2.065
-0.635 0.345 2.12859
-0.739769 0.665 -1.925
-0.565 0.915 2.04167
0.710772 0.275 -2.065
0.635 0.345 2.13019
0.741242 0.665 -1.925
0.565 0.915 2.04266
-0.782987 0.199961 -0.667137
-0.800985 0.180489 0.730727
-0.827754 0.894574 -0.602777
-0.777796 0.986206 0.719447
0.784507 0.199341 -0.666604
0.803077 0.178847 0.731793
0.828384 0.894222 -0.602447
0.778769 0.986689 0.720107
-1.4885 -0.105408 -3.18037
-1.49542 -0.0573715 -2.09221
-1.54151 -0.11534 -0.692388
-1.52864 -0.147645 0.722589
-1.41582 -0.0496774 2.12369
-1.38648 0.0123463 3.2181
-1.40075 0.0504272 4.30094
-1.4893 0.175654 -3.13757
-1.49811 0.257084 -2.05767
-1.55901 0.230288 -0.672627
-1.52491 0.201148 0.719144
-1.35325 0.28543 2.10564
-1.34531 0.34428 3.19899
-1.38031 0.382779 4.28433
-1.50382 0.676798 -3.03077
-1.52465 0.75507 -1.94773
-1.5888 0.908037 -0.614248
-1.51193 0.957998 0.713783
-1.31143 0.928609 2.04869
-1.3245 0.983031 3.14508
-1.3751 1.03709 4.24256
-1.52008 1.59925 -2.92763
-1.53419 1.70208 -1.85596
-1.55635 1.87653 -0.546917
-1.54153 1.99197 0.745754
-1.4882 2.01636 2.05555
-1.45896 2.03109 3.12877
-1.45545 2.06255 4.21792
-0.72904 -0.0966721 -3.1851
-0.720791 -0.0437305 -2.09914
-0.764947 -0.130514 -0.691138
-0.788994 -0.161729 0.732597
-0.716596 -0.0193641 2.14095
-0.694401 0.0334045 3.22997
-0.704391 0.0606344 4.308
-0.729131 0.174101 -3.13895
-0.663714 0.365904 3.20885
-0.690861 0.392086 4.28977
-0.739535 0.639682 -3.02128
-0.646758 0.983318 3.14404
-0.689602 1.03869 4.2427
-0.749641 1.57385 -2.91819
-0.757771 1.67813 -1.84556
-0.784849 1.87191 -0.540505
-0.798588 2.00008 0.745355
-0.77774 2.01868 2.05068
-0.7568 2.02969 3.12393
-0.751714 2.06111 4.21452
0.755385 -0.0968405 -3.18491
0.75441 -0.0439218 -2.09895
0.789366 -0.131137 -0.69059
0.766834 -0.162913 0.733586
0.65581 -0.0197995 2.14228
0.65841 0.0330658 3.23119
0.671543 0.0602679 4.30909
0.744381 0.173996 -3.13883
0.643188 0.365683 3.21011
0.663366 0.391769 4.29086
0.754372 0.639593 -3.02117
0.618134 0.983168 3.14511
0.65011 1.03843 4.24372
0.783758 1.57366 -2.91789
0.789028 1.67793 -1.84523
0.770546 1.87173 -0.540042
0.707401 1.99998 0.745997
0.644906 2.01855 2.05146
0.63758 2.02949 3.12477
0.64682 2.06086 4.21538
1.50973 -0.105825 -3.17989
1.51351 -0.0578852 -2.09167
1.5573 -0.116411 -0.691312
1.52922 -0.149355 0.724386
1.39921 -0.0507717 2.126
1.36862 0.0115399 3.22036
1.37695 0.0496532 4.30303
1.49879 0.175333 -3.1372
1.49532 0.256725 -2.0573
1.56132 0.22937 -0.67164
1.541 0.199489 0.720935
1.37259 0.284519 2.10803
1.34365 0.343625 3.20129
1.36195 0.382089 4.28643
1.51206 0.676521 -3.03042
1.52088 0.754787 -1.9474
1.58712 0.907517 -0.613436
1.52185 0.957713 0.715243
1.32482 0.928119 2.05065
1.31309 0.982556 3.14713
1.34431 1.03652 4.24454
1.54735 1.59884 -2.92698
1.55503 1.70167 -1.85525
1.54056 1.87613 -0.545959
1.46833 1.99167 0.747043
1.38154 2.01601 2.05711
1.35606 2.03066 3.13045
1.35927 2.06203 4.21964
-0.750014 0.47 -2.02042
0.000674993 0.251279 -2.08872
-0.792352 0.191333 -1.36607
-0.652296 0.63 2.13743
0 0.341142 2.13325
-0.760073 0.220664 1.42966
0.000736505 0.799414 -2.05941
-0.833208 0.829233 -1.26389
0 0.967357 2.09452
-0.722097 1.0013 1.38056
0.752144 0.47 -2.02114
0.793112 0.191698 -1.3658
0.650966 0.63 2.13739
0.759578 0.221384 1.43099
0.834015 0.828814 -1.26372
0.722866 1.00183 1.38138
-0.779808 0.202403 0.031795
-0.882584 0.547267 -0.634957
0.000760064 0.199248 -0.66687
-0.879415 0.583347 0.725087
0.00104595 0.178566 0.73126
-0.809794 0.947409 0.0583351
0.000314935 1.16981 -0.602612
0.000486629 1.36089 0.719777
0.79026 0.192626 0.0325949
0.884057 0.546781 -0.634525
0.880108 0.582768 0.72595
0.811032 0.947911 0.05883
-0.865313 0.508634 -1.31498
0.865287 0.508391 -1.31476
0.000717529 0.201449 -1.36594
0.00052572 0.961108 -1.26381
0.000705749 0.47 -2.25728
-0.883151 0.565307 0.045065
0.884532 0.564774 0.0457125
0.000903007 0.191878 0.032195
0.000400782 1.38735 0.0585825
-0.860477 0.606674 1.40511
0.857362 0.606384 1.40619
0.000522975 0.214096 1.43033
0.000243314 1.17162 1.38097
0 0.63 2.21229
-0.741339 0.3725 -2.05433
-0.354373 0.261092 -2.07891
-0.788468 0.195586 -1.71553
-0.668142 0.4875 2.1575
-0.3175 0.343301 2.13069
-0.715774 0.264594 1.77912
-0.746851 0.5675 -1.97467
-0.369516 0.768203 -2.0282
-0.81337 0.773999 -1.59444
-0.59534 0.7725 2.07624
-0.2825 0.952968 2.07989
-0.648976 0.963579 1.71111
0.355723 0.260858 -2.07914
0.742839 0.3725 -2.05445
0.79005 0.195241 -1.7154
0.3175 0.341979 2.13281
0.667816 0.4875 2.15862
0.715607 0.264874 1.78059
0.370989 0.768363 -2.02836
0.748539 0.5675 -1.97491
0.814037 0.773315 -1.59436
0.2825 0.952419 2.07983
0.59762 0.7725 2.07966
0.647583 0.962063 1.71202
-0.792298 0.191019 -1.0166
-0.775998 0.206582 -0.317671
-0.866485 0.356764 -0.651047
-0.392555 0.196722 -0.667003
-0.767833 0.213272 1.08019
-0.784887 0.196955 0.381261
-0.870168 0.366934 0.727907
-0.400367 0.178734 0.730993
-0.830621 0.862044 -0.933333
-0.881771 0.734222 -0.618867
-0.819993 0.922211 -0.272221
-0.461916 1.12859 -0.602694
-0.757516 1.00132 1.05
-0.880757 0.810853 0.722267
-0.795255 0.968268 0.388891
-0.467925 1.33209 0.719612
0.793405 0.190924 -1.0162
0.393902 0.196758 -0.666737
0.786669 0.196698 -0.317004
0.866751 0.356827 -0.650564
0.768267 0.213176 1.08139
0.40203 0.178769 0.731527
0.792733 0.189672 0.382194
0.877556 0.362825 0.728872
0.832965 0.863283 -0.933085
0.462728 1.12877 -0.602529
0.882762 0.733773 -0.618486
0.820929 0.922288 -0.271808
0.758446 1.00189 1.05075
0.469101 1.33274 0.719942
0.881707 0.810862 0.723028
0.796041 0.96844 0.389468
-0.852123 0.489317 -1.6677
-0.374654 0.47 -2.20172
0.000696261 0.216491 -1.72733
0.000690371 0.36064 -2.17645
-0.86056 0.349984 -1.34052
-0.395817 0.194986 -1.366
-0.802339 0.618337 1.77127
-0.326148 0.63 2.19757
0.000261487 0.26612 1.78179
0 0.485571 2.24821
-0.854103 0.413669 1.41738
-0.379775 0.211224 1.42999
0.000631112 0.897421 -1.66161
0.000721127 0.634707 -2.19151
-0.868607 0.668934 -1.28943
-0.416341 0.950423 -1.26385
0.000121657 1.0433 1.73775
0 0.798678 2.12784
-0.837114 0.803988 1.39283
-0.360927 1.14568 1.38076
0.85206 0.489195 -1.66795
0.376425 0.47 -2.20164
0.859026 0.350044 -1.34028
0.396915 0.194996 -1.36587
0.803767 0.618192 1.77179
0.325483 0.63 2.19769
0.851615 0.413884 1.41859
0.38005 0.211268 1.43066
0.868572 0.668602 -1.28924
0.41727 0.949172 -1.26376
0.836419 0.804105 1.39379
0.361555 1.14541 1.38118
-0.865685 0.366753 0.03843
-0.39286 0.190325 0.031995
-0.895106 0.527951 -0.974968
-0.88291 0.556287 -0.294946
0.000738796 0.194798 -1.0164
0.000831536 0.198375 -0.317338
-0.884231 0.574327 0.385076
-0.875025 0.595011 1.0651
0.000974478 0.191538 0.381728
0.000784462 0.196143 1.08079
-0.881055 0.773649 0.0517001
-0.497665 1.35332 0.0584588
0.000420327 0.986703 -0.933209
0.000357858 1.32975 -0.272015
0.000443705 1.39042 0.38918
0.000364972 1.29012 1.05037
0.865715 0.364541 0.0391537
0.396509 0.190396 0.0323949
0.895023 0.527586 -0.974644
0.884307 0.555778 -0.294406
0.885295 0.573771 0.385831
0.874685 0.594576 1.06607
0.882454 0.773679 0.0522712
0.498577 1.35335 0.0587063
-0.849455 0.361242 -1.69162
-0.895443 0.361799 -0.995785
-0.879816 0.694927 -0.95415
-0.856436 0.618217 -1.63107
0.84632 0.361272 -1.69168
0.856439 0.618051 -1.63116
0.881003 0.694552 -0.953864
0.894513 0.361553 -0.995423
-0.375095 0.222291 -1.72143
0.376319 0.222263 -1.72136
0.394774 0.193549 -1.0163
-0.393465 0.193554 -1.0165
-0.392929 0.889235 -1.62803
-0.41503 0.9723 -0.933271
0.41581 0.954165 -0.933147
0.39413 0.889484 -1.62799
-0.364514 0.36657 -2.12167
-0.372085 0.601103 -2.16614
0.373707 0.601103 -2.16622
0.366074 0.36657 -2.12163
-0.865766 0.361918 -0.306308
-0.864547 0.368533 0.383168
-0.878038 0.790817 0.386983
-0.880466 0.753462 -0.283583
0.866264 0.360668 -0.305705
0.881939 0.753391 -0.283107
0.879227 0.790844 0.38765
0.865085 0.366958 0.384013
-0.391598 0.195742 -0.317504
0.394087 0.195814 -0.317171
0.397303 0.188516 0.381961
-0.394641 0.188475 0.381494
-0.504674 1.29072 -0.272118
-0.489506 1.35613 0.389035
0.490841 1.35705 0.389324
0.505592 1.29094 -0.271911
-0.867335 0.397793 1.07265
-0.7978 0.450584 1.7752
-0.777445 0.788244 1.74119
-0.866784 0.794382 1.05755
0.865238 0.397346 1.07373
0.866453 0.794417 1.05841
0.779389 0.788302 1.74191
0.797959 0.450692 1.77619
-0.389872 0.190878 1.08049
0.391056 0.190947 1.08109
0.348775 0.266103 1.78119
-0.348638 0.265729 1.78046
-0.374791 1.26585 1.05019
-0.321713 1.02764 1.72443
0.322027 1.03048 1.72488
0.375591 1.26593 1.05056
-0.321824 0.486535 2.23438
0.321492 0.486535 2.2348
0.303992 0.785589 2.10825
-0.304324 0.785589 2.10902
-0.721001 0.32375 -2.05529
-0.531898 0.261414 -2.07859
-0.767817 0.216421 -1.89027
-0.655811 0.41625 2.14729
-0.47625 0.34099 2.1328
-0.680961 0.299223 1.95386
-0.739177 0.61625 -1.9457
-0.554643 0.719815 -1.97982
-0.783066 0.725996 -1.75972
-0.576749 0.84375 2.05553
-0.42375 0.934759 2.06155
-0.599514 0.931815 1.87639
0.533248 0.260571 -2.07943
0.722433 0.32375 -2.05535
0.768308 0.217223 -1.8902
0.47625 0.341037 2.13395
0.65442 0.41625 2.14742
0.682453 0.297787 1.95539
0.556116 0.719585 -1.97959
0.740812 0.61625 -1.94588
0.783646 0.725164 -1.75968
0.42375 0.935759 2.0633
0.579123 0.84375 2.05897
0.59977 0.93201 1.87734
-0.776006 0.207126 -0.84187
-0.772874 0.20989 -0.492404
-0.85606 0.2627 -0.659092
-0.588994 0.195896 -0.66707
-0.770264 0.211026 0.90546
-0.79014 0.191518 0.555994
-0.882357 0.250321 0.729317
-0.601052 0.178859 0.73086
-0.830307 0.879429 -0.768055
-0.860162 0.817098 -0.610822
-0.824127 0.908646 -0.437499
-0.690073 1.10206 -0.602735
-0.766627 0.992736 0.884725
-0.84398 0.905881 0.720857
-0.786494 0.977206 0.554169
-0.65695 1.22733 0.719529
0.777576 0.206512 -0.841403
0.590283 0.195893 -0.66667
0.784275 0.199332 -0.491804
0.857394 0.262201 -0.658584
0.769402 0.212281 0.906593
0.602471 0.178973 0.73166
0.79047 0.191694 0.556994
0.883161 0.249414 0.730333
0.831596 0.879674 -0.767766
0.69108 1.10255 -0.602488
[...]
POINT_DATA 3682
SCALARS point_scalars float 1
LOOKUP_TABLE default
-50.0705
-39.8578
-30.6966
-33.8753
-51.8502
-39.8427
-33.3425
-33.9572
-38.6
-54.5423
-55.2836
-50.0851
-37.0554
-54.9749
-56.3714
-50.1362
-10.6114
-72.2444
-37.7554
-53.4059
-43.9179
-39.3898
-36.7317
-27.9633
-75.468
-39.5468
-52.6834
-42.1086
-38.3372
-35.9089
54.3668
-83.0811
-47.3462
-46.8796
-38.5579
-36.4627
-35.3709
-14.394
-55.7431
-80.2568
-56.3109
-35.8942
-34.4377
-33.3957
19.5565
-83.4904
-38.9587
-50.6023
-41.9712
-36.5132
-35.9833
19.5565
-35.8119
-35.2036
163.293
-35.398
-35.2203
53.7051
-45.8752
-81.7076
-59.7231
-33.6913
-32.2903
-32.1964
25.6265
-84.9806
-37.0883
-52.0499
-41.582
-36.3326
-35.9601
25.6265
-35.7961
-35.094
162.772
-35.3964
-35.0683
50.04
-46.4824
-80.6136
-61.2558
-32.9735
-31.7936
-30.0637
-14.44
-77.8213
-37.637
-53.8414
-43.6676
-38.7827
-36.7134
-27.6003
-75.988
-39.8018
-50.5873
-42.0927
-38.2822
-35.8929
53.4774
-78.5754
-47.6914
-47.2189
-38.8589
-36.5835
-35.3548
-14.1715
-56.6102
-79.4459
-56.2693
-35.6983
-33.5934
-33.6302
-30.1245
-126.137
-52.2815
-35.3056
-38.7003
-46.5133
-53.7461
-50.8196
-30.2122
-41.9986
-37.3719
-51.9726
-35.2307
-46.7394
-50.4178
-41.8588
-34.7738
-42.3714
-41.7754
-42.3475
-47.0672
-55.4948
11.8443
-60.2985
-35.4206
-42.7329
-42.7821
-55.5466
-51.7176
-51.9217
-58.0218
-13.0355
197.087
-41.7667
-41.9197
-38.6872
-95.8881
-46.8117
-46.2086
-49.3123
-35.7903
-30.6979
-12.294
-164.776
-78.2204
-38.0583
-39.0098
-46.4632
-25.4184
-35.6299
-54.5456
-34.773
-31.2507
-35.5249
-165.472
-12.0399
-76.4277
-39.0515
-38.0214
-46.6693
-39.7773
-28.1168
-55.0644
-31.3492
-34.8131
-35.4551
-50.1413
-35.2859
-39.4367
-41.3044
-43.3478
-37.7793
-41.9044
-45.9996
-43.1455
-46.8189
-57.5535
1.51321
-47.632
-46.8714
-52.8878
-59.17
-48.9775
-41.3119
-36.3941
-39.6379
-43.1696
-46.1281
-38.6573
-43.8498
-43.2083
1.66712
-47.1194
-57.4916
-47.5117
-59.1968
-47.2358
-52.7567
-83.1477
179.627
-72.918
176.892
-51.9573
-58.9233
-42.3916
-33.3757
-46.6207
-35.2061
-46.799
-48.952
-31.0327
159.296
-51.7682
-19.2771
-31.9854
-30.1044
-45.3674
-36.5941
-82.8696
180.244
-51.462
-58.5664
-42.4619
-33.3775
-46.2776
-49.0348
-51.5054
-18.7975
-44.9776
-36.6102
-38.8502
-38.2015
-52.648
-41.8421
-50.2
-38.3026
-42.0636
-44.968
-39.2685
-46.8224
-47.6468
-86.9289
11.4595
-77.1497
-76.0139
-44.6763
-38.9424
-38.2585
-50.4894
-42.0881
-42.2278
-45.074
-47.566
-86.7867
-86.2027
-54.7131
-47.0651
-83.2208
-82.776
-82.3452
-46.6243
-52.3394
-73.0629
-72.8236
-49.0284
-49.1743
-33.6013
-0.761395
0.147347
-33.5259
161.072
132.835
132.218
152.791
-38.5643
-39.2709
-46.5209
-47.5928
-38.9643
-47.7786
-46.5856
-39.5347
-38.0001
-38.0978
-39.7465
-39.7756
-78.2835
-70.3341
-70.6416
-78.6607
-44.1924
-44.4382
-40.3856
-45.9397
-44.2396
-45.7893
-40.2743
-44.6714
-46.266
-46.2737
-46.8297
-46.4461
-45.5408
-32.6091
-32.6533
-45.5203
-35.6703
-35.6664
-31.9099
-31.916
-15.3977
-159.22
-72.0608
-39.1724
-39.372
-43.7015
-23.935
-14.5572
-44.6818
-34.7381
-32.3241
-33.663
-146.928
-15.8937
-71.8664
-39.5344
-39.1749
-43.2306
-15.8634
-23.8939
-44.4372
-32.085
-34.813
-33.6952
-39.8704
-36.067
-37.6595
-40.1803
-42.3139
-37.9845
-49.2196
-48.2806
-49.0297
-50.2821
-58.0398
-55.2472
-48.7833
-48.4236
-51.2081
-56.2022
-40.6196
-40.0454
-36.9129
-37.6614
-42.1091
-48.6315
-37.8673
-49.0295
-49.6226
-56.1903
-50.6007
-57.5831
-48.8465
-56.1412
-49.21
-51.3276
-21.0559
-23.1078
-82.0267
157.3
-168.49
-163.365
-89.199
113.344
-62.0988
-48.8643
-52.0134
-56.2772
-37.3287
-34.8194
-39.3567
-34.0935
-38.795
-38.7723
-41.5949
-36.7861
-51.1389
-43.9958
-47.3563
-47.9204
-32.988
-33.4709
-40.6683
108.227
-51.3302
-45.2374
-54.6046
-28.4525
-30.4549
-30.473
-31.2793
-27.736
-38.2878
-45.3569
-43.9607
-38.0105
-22.1227
-26.0065
-81.4523
156.823
-61.5199
-48.5698
-51.2016
-55.8725
-37.2926
-34.9231
-39.498
-34.0971
-50.8548
-43.8634
-47.5913
-47.9565
-50.8965
-44.5814
-54.4425
-28.0083
-38.1882
-45.4213
-43.7871
-37.9932
-37.702
-37.4964
-37.2347
-37.0092
-40.7518
-44.0548
-43.5667
-41.9856
-41.716
-41.7113
-44.7656
-39.7048
-42.3211
-43.4474
-42.5308
-45.9212
-46.7217
-46.7807
-42.173
-45.0558
-56.7337
-54.206
-50.6638
-67.8125
9.77271
9.83141
23.9809
-22.4265
-59.9036
-59.8665
-69.3932
-51.9659
-37.5871
-36.9326
-37.4658
-37.2586
-41.1067
-44.3498
-44.0269
-42.3099
-43.0663
-43.9419
-42.871
-45.6497
-56.9899
-54.2964
-50.5711
-67.8771
-61.3843
-51.7598
-51.8022
-45.5819
-60.7389
-51.8575
-51.8872
-45.9141
-65.0657
-58.7799
-58.6383
-54.5507
-22.0681
-14.9165
-14.9721
-1.7116
186.421
169.288
192.428
187.007
-40.1459
-41.7843
-41.6727
-43.9879
-40.3136
-42.0031
-41.8643
-44.0491
-38.6093
-37.1873
-39.1123
-38.6326
-94.2038
-99.9658
-86.2279
-94.0963
-45.2789
-46.5946
-47.0726
-45.9372
-44.976
-45.7866
-46.5454
-45.7107
-48.643
-49.23
-49.2832
-49.1826
-33.2862
-35.9972
-36.0223
-39.4361
-31.6732
-34.3779
-30.7289
-31.6626
-73.7527
156.368
-94.4599
124.964
-87.4953
-75.0787
-40.6162
-35.8143
-42.2017
-37.121
-45.1218
-46.3827
-77.0327
87.5292
-42.5717
91.719
-76.5301
-38.0083
-38.3682
-33.9968
-31.7287
-31.5028
-38.2988
-33.4674
-94.0505
119.774
-74.9843
158.137
-83.4582
-74.3967
-41.5582
-37.1341
-40.6368
-35.8011
-45.2819
-47.1455
-42.33
92.6964
-76.8128
87.0135
-76.6838
-38.6654
-31.6949
-31.526
-38.2835
-33.9823
-38.3433
-33.4624
-55.267
-47.8403
-37.0471
-37.227
-42.2618
-38.6417
-44.2438
-39.3164
-43.3449
-45.0984
-38.2319
-39.7906
-39.4624
-45.3294
-42.05
-44.7376
-46.9561
-15.4164
-45.8655
-47.613
-51.8633
-79.6784
9.31191
-22.6769
-46.656
-47.6506
-46.0666
-45.284
-49.2796
-59.6727
-65.5517
-52.9245
-54.5219
-47.6145
-44.173
-39.3991
-37.6084
-37.528
-42.4042
-38.9673
-43.2711
-45.0884
-42.0792
-44.7752
-38.596
-39.6013
-39.4987
-45.3659
-46.8685
-16.213
8.75581
-22.8288
-46.1293
-47.7422
-52.0787
-81.3704
-46.499
-47.63
-65.5011
-52.9032
-46.2174
-45.2279
-49.3499
-59.664
-84.2403
-82.7496
161.976
179.938
-73.3914
-73.0209
167.076
169.849
-60.1656
-46.9282
-65.5812
-53.1639
-43.65
-41.5221
-35.0567
-32.8193
-46.6876
-46.6646
-35.1888
-35.1688
-45.4343
-48.3737
-48.6127
-48.7968
-32.2552
-31.7374
157.97
158.046
-49.5365
-62.1112
-26.3283
-9.52558
-32.1338
-32.1807
-31.0343
-31.0483
-42.3842
-46.923
-40.2499
-34.0991
-83.3874
-81.8605
179.466
164.983
-60.6179
-47.5228
-65.38
-52.958
-41.4793
-43.7934
-35.042
-32.801
-45.1154
-47.8015
-48.656
-48.9856
-61.429
-48.3127
-9.31117
-26.4037
-46.7035
-42.2171
-34.1135
-40.2114
-38.7171
-39.0384
-37.0753
-38.9661
-53.1932
-49.0915
-40.054
-44.1621
-49.9585
-50.0091
-38.2489
-38.2834
-40.4737
-43.8488
-44.7302
-45.0937
-39.3501
-39.3507
-46.6549
-46.67
-46.7462
-46.9201
-91.4313
-77.6114
8.31211
8.07389
-75.7294
-75.8376
-74.7758
-74.8163
-44.8447
-44.8383
-38.9089
-39.1989
-37.1364
-38.9911
-48.427
-50.8239
-40.3673
-44.3946
-43.9894
-40.6696
-44.7973
-44.9245
-47.1741
-46.8159
-77.4833
-91.1274
-63.0322
-59.2073
-60.7486
-78.6673
-40.6155
-43.0238
-46.299
-46.8887
-48.2095
-49.1784
-47.0159
-44.6532
-61.8901
-83.6159
-61.6339
-64.6761
-64.0689
-78.8771
-60.3218
-59.7132
-61.1921
-63.587
-60.9159
-83.2259
-48.2755
-44.8261
-46.221
-48.2868
-40.3644
-47.4552
-46.9617
-43.7831
-92.2031
-92.9206
-65.6608
-65.2239
-90.7821
-64.7837
-65.4884
-92.1029
-42.7719
-44.6344
-54.1297
-50.776
-42.894
-51.0502
-54.2317
-44.6794
-41.4916
-33.3582
-23.0103
-42.7698
-15.7847
19.5973
-3.43529
-22.3479
-13.8193
-22.0708
-3.20207
19.6041
-41.3107
-43.276
-23.1955
-32.4933
118.47
154.037
161.895
82.1192
66.8111
107.677
180.975
141.453
66.1035
142.674
180.805
106.045
123.894
94.7263
163.067
154.916
-37.5609
-37.6032
-40.0882
-40.1394
-37.8347
-40.8884
-40.1281
-38.173
-48.3244
-50.0134
-43.6418
-44.1267
-51.8196
-44.1995
-43.959
-51.0991
-38.0323
-40.6014
-40.308
-37.5685
-51.8945
-51.2828
-44.2033
-44.459
-48.4706
-44.2751
-43.8162
-50.0873
-37.6822
-38.3164
-40.3704
-41.2152
-37.9306
-39.6534
-37.1373
-36.8897
-38.4711
-36.9345
-37.1627
-39.6775
-41.3936
-42.135
-39.1186
-38.5627
-41.6583
-38.5409
-39.1066
-42.1229
-81.0662
-72.5504
-98.0755
-19.9311
-56.7536
-68.7233
-83.7721
-63.5776
-56.8156
-63.5441
-83.766
-68.755
-80.7824
-19.9477
-98.2477
-72.4638
-42.6686
-44.5264
-45.5517
-45.5267
-41.7347
-40.3762
-46.8801
-49.9349
-36.3711
-40.9582
-43.7132
-38.6709
-46.85
-45.3922
-47.0001
-46.4989
-42.9931
-45.4165
-45.427
-43.8457
-46.7836
-46.2306
-46.837
-45.3345
-36.3308
-39.0118
-43.4681
-40.8416
-41.5321
-49.275
-46.3737
-40.4532
-43.2174
-44.9077
-49.2195
-46.8042
-43.2194
-46.8088
-49.2595
-44.9243
-41.9328
-41.5333
-48.7521
-49.6659
-43.5628
-49.4564
-48.6711
-41.6307
-52.7189
-42.1999
-39.4397
-52.0142
-32.4037
-31.412
-33.4594
-35.2289
-32.3866
-35.2123
-33.4466
-31.4101
-52.8125
-51.9834
-39.419
-42.1662
-37.337
-36.9578
-34.8673
-35.559
-37.38
-35.5501
-34.8402
-36.8498
-33.2895
-29.0679
-31.3571
-34.1803
-33.3139
-34.1416
-31.347
-29.0927
-26.7879
-101.886
-71.3807
-40.4
-38.9093
-41.4607
-28.4062
-11.2589
-43.2703
-34.4667
-32.4561
-33.2075
-98.5998
-26.9853
-72.9634
-38.98
-40.4168
-41.1454
-12.5166
-29.6154
-39.9508
-32.6593
-34.5481
-33.2488
-37.8937
-38.9101
-37.6514
-39.5456
-48.6912
-39.4673
-51.6094
-49.9883
-52.047
-52.7059
-57.469
-66.9844
-49.5907
-49.497
-50.6534
-51.8326
-37.1688
-38.9953
-37.6705
-36.9403
-48.7287
-50.5652
-39.1952
-51.8326
-54.3908
-71.6793
-52.9492
-56.904
-49.5418
-51.8381
-49.7807
-50.7296
-26.1124
-22.7775
-67.0754
94.1313
-139.501
-139.27
-106.431
17.9662
-55.9276
-50.8847
-51.8357
-54.7974
-36.4537
-34.7184
-37.6212
-34.3094
-38.7562
-38.7452
-39.951
-37.2634
-50.8263
-44.2806
-46.728
-47.3191
-56.1172
-55.2165
-44.3325
14.6898
-51.0876
-48.5272
-54.8982
-38.4317
-30.2392
-30.2229
-31.473
-27.2977
-39.808
-43.6293
-43.0616
-39.8149
-29.4936
-27.3202
-68.4421
92.8284
-55.7271
-50.5766
-51.391
-54.4644
-36.4039
-34.8715
-37.6749
-34.3283
-50.4443
-44.2977
-47.3101
-47.2598
-51.0826
-47.6078
-55.0519
-37.9881
-39.7688
-43.4383
-42.8858
-39.7427
-37.4808
-37.277
-35.9798
-35.2853
-41.4883
-43.2278
-42.9229
-42.0473
-41.7579
-41.7535
-43.109
-40.6427
-41.8942
-42.8138
-42.759
-44.3735
-47.182
-47.186
-44.4744
-46.1923
-56.2964
-54.615
-53.0575
-60.7682
11.3129
11.4188
21.4338
-2.41533
-60.3353
-59.8078
-65.0391
-55.9495
-35.5382
-38.4367
-37.0716
-36.2447
-41.8985
-43.5556
-43.2341
-42.4007
-42.3326
-43.2278
-43.1038
-44.9939
-56.388
-54.6232
-53.0727
-60.8494
-55.8461
-51.7236
-51.7157
-48.6348
-55.6904
-51.9265
-51.8464
-48.2119
-60.9201
-58.1519
-58.0888
-56.3659
-17.9919
-13.7683
-13.7507
-6.43304
195.206
176.579
209.383
195.36
-40.8725
-41.7504
-41.6465
-42.7832
-41.0326
-41.9367
-41.8618
-42.9003
-38.6767
-37.8277
-38.9136
-38.6879
-95.2411
-98.9972
-93.4762
-95.1871
-46.5517
-46.672
-47.1864
-46.3154
-45.9954
-45.8963
-46.6349
-46.1199
-49.0083
-49.2871
-49.3154
-49.3931
-34.4295
-35.8054
-35.8405
-37.3008
-31.0152
-32.7928
-30.6049
-31.0318
-14.4273
-16.4686
-70.9121
114.289
-169.306
-183.305
-113.348
-3.20986
-83.0153
-68.0928
-84.9824
-75.9403
-38.5354
-37.7242
-39.4604
-36.2561
-39.3911
-38.8456
-40.5039
-37.7187
-44.5899
-48.447
-45.8537
-46.7486
-24.5182
-24.722
-50.4596
45.5656
-28.5211
-27.0579
-42.7202
67.682
-53.9206
-58.2937
-63.7675
-45.9764
-34.7356
-34.8758
-37.3989
-34.2367
-31.6533
-31.0818
-31.7724
-30.7816
-34.4724
-36.6383
-36.8213
-34.2141
-170.636
-178.778
-112.75
-3.43325
-15.5465
-18.2496
-73.6469
111.866
-82.2273
-67.8436
-77.3444
-75.443
-39.5103
-38.8261
-39.9288
-37.6076
-38.4993
-37.6824
-39.4433
-36.2429
-44.4651
-48.5209
-46.0268
-47.0783
-29.2324
-28.8977
-42.1098
69.9347
-25.503
-27.5529
-55.3419
44.0571
-54.1277
-57.739
-64.1799
-47.3392
-31.6555
-31.1413
-31.7943
-30.7608
-34.7435
-34.9263
-37.444
-34.234
-34.4433
-36.5958
-36.7397
-34.2009
-45.2885
-47.8802
-53.464
-47.5843
-35.1573
-34.425
-35.5084
-36.4814
-38.7833
-40.1099
-40.1704
-39.02
-40.8719
-41.5806
-42.616
-40.2313
-42.311
-44.1627
-42.9984
-44.2144
-37.8667
-36.5649
-37.097
-39.4466
-44.9488
-43.2726
-38.7499
-46.7276
-45.9992
-46.3374
-43.6136
-45.7339
-44.8325
-43.5872
-46.6908
-29.5581
-48.3024
-45.3877
-46.151
-47.3607
-58.032
-57.2536
-54.6387
-64.985
-7.83748
6.75655
8.9194
-9.93928
-48.2067
-46.3278
-47.3009
-48.3953
-48.1058
-44.5948
-45.3685
-46.3962
-52.2767
-53.7755
-51.5817
-55.5271
-58.5567
-59.8873
-62.6262
-56.5507
-45.7101
-47.5585
-52.875
-47.2648
-40.8736
-41.579
-42.589
-40.2733
-36.2618
-35.7843
-36.3534
-37.0811
-38.9495
-40.2925
-40.4271
-39.254
-41.9191
-44.3803
-43.0034
-44.1715
-46.3112
-46.3785
-43.7312
-45.7849
-39.2431
-35.191
-38.463
-39.5766
-43.7001
-44.5026
-38.3367
-46.987
-45.0317
-44.0086
-46.7377
-29.5612
-7.30517
6.73195
8.68052
-10.1308
-48.6255
-45.6772
-46.4878
-47.5508
-58.1141
-57.4471
-54.7654
-65.5265
-48.205
-46.3175
-47.1514
-48.3127
-58.5885
-59.8412
-62.5837
-56.5418
-48.4258
-45.0596
-45.7322
-46.3909
-52.2504
-53.785
-51.4334
-55.4781
-91.9072
-70.0624
-83.3749
-82.4588
170.182
186.788
165.709
188.341
-79.2061
-69.26
-73.1761
-73.0156
179.159
174.233
177.408
177.954
-51.7353
-51.7533
-55.8394
-48.8056
-57.7405
-58.9007
-61.402
-55.855
-41.1235
-43.939
-43.0181
-41.9464
-33.8367
-32.5576
-34.4692
-33.163
-43.8144
-48.291
-46.6826
-46.6763
-35.7644
-34.7913
-35.1076
-35.0943
-46.5285
-46.6383
-45.7661
-48.8284
-48.7311
-49.1013
-48.6636
-49.045
-35.9585
-26.59
-31.4394
-31.0196
146.446
167.441
149.844
149.55
-52.5315
-51.5815
-50.1138
-56.1554
-22.6616
-16.9644
-22.5024
-13.6746
-31.5395
-32.445
-32.0211
-32.0494
-29.2611
-30.4796
-30.3567
-30.3565
-44.5679
-46.1393
-43.5382
-46.5888
-37.1309
-36.2279
-38.2448
-35.1693
-91.1066
-69.2341
-82.9924
-82.0006
169.836
187.733
188.724
167.821
-50.894
-51.6004
-55.4638
-47.6015
-57.2261
-58.6975
-61.0603
-55.6553
-41.2374
-43.7805
-41.9997
-43.1076
-33.8378
-32.511
-34.458
-33.1689
-46.5722
-45.9727
-45.903
-48.0559
-48.807
-49.1745
-48.7134
-49.1772
-52.1017
-51.5054
-56.1645
-48.7795
-22.1345
-16.7224
-13.1473
-22.5931
-44.3606
-45.5863
-46.3107
-43.4549
-37.1268
-36.2762
-35.1808
-38.2339
-38.4683
-39.5363
-38.8176
-38.9592
-37.8733
-38.4528
-37.566
-38.5587
-47.6892
-48.5499
-53.7161
-50.5963
-41.8972
-41.8258
-40.8496
-42.8847
-47.3523
-52.077
-50.2329
-50.2644
-38.9183
-37.7836
-38.2936
-38.3092
-42.35
-41.8494
-41.2532
-42.9077
-45.138
-45.6611
-44.9243
-44.971
-40.6272
-39.3119
-39.2623
-39.264
-45.8591
-48.3067
-46.6952
-46.705
-49.5516
-45.4108
-46.9003
-47.1574
-79.4982
-92.3896
-91.0752
-82.2799
17.6553
4.92542
10.9215
10.1679
-50.1907
-92.5369
-76.7014
-76.6587
-72.9825
-79.8239
-75.6958
-75.7054
-48.0784
-41.6853
-44.6562
-44.6891
-38.5921
-39.6728
-38.9257
-39.0537
-37.9695
-38.4901
-37.625
-38.6027
-47.2831
-47.9788
-49.5455
-51.1172
-42.1641
-42.0586
-41.1218
-43.1155
-42.6093
-41.9757
-43.0995
-41.3936
-44.6479
-45.4137
-44.8828
-44.977
-49.3216
-45.4146
-47.2436
-47.0997
-78.9127
-92.2833
-82.2313
-90.5949
-90.6047
-87.6906
-85.1776
-69.633
-54.0525
-48.8847
-45.5067
-53.7812
-46.6619
-46.1195
-48.5693
-47.8844
-89.0503
-83.0799
-83.3573
-71.1171
-90.3562
-83.7687
-83.3892
-68.7905
-87.4367
-82.8359
-82.429
-70.3905
-46.3396
-46.048
-48.2659
-47.375
-52.8236
-48.4578
-45.8682
-50.7519
-80.9964
-73.1913
-73.6072
-70.392
-80.6181
-72.8041
-73.237
-70.1861
-48.2371
-46.6107
-50.7646
-49.4868
-48.4562
-46.7038
-50.9406
-49.5829
-37.8229
-35.1766
-32.8266
-30.6793
-6.04273
3.61932
-6.18904
4.31134
-4.89352
4.87991
-6.35967
4.35943
-37.7665
-35.408
-32.5527
-30.6411
161.235
159.374
154.325
169.135
108.429
101.132
158.306
150.521
102.24
109.677
150.236
157.963
149.255
163.929
169.557
161.022
-38.1433
-38.5688
-38.6041
-39.3688
-39.1571
-39.4816
-39.1591
-39.9319
-46.4295
-47.6915
-45.0186
-46.7269
-47.6771
-49.6104
-45.7608
-47.3016
-38.5812
-38.9936
-38.909
-39.7075
-47.6621
-50.1352
-45.8752
-47.6408
-46.5135
-47.7973
-45.0937
-46.7206
-39.4527
-39.8063
-39.3301
-40.1521
-37.7619
-38.5709
-37.549
-38.156
-38.6666
-37.9264
-38.2166
-37.6332
-40.6142
-39.7082
-39.5527
-39.3502
-39.8116
-40.6404
-39.3539
-39.5608
-93.8889
-43.3832
-86.6553
-76.4782
-66.0589
-67.8998
-73.6856
-73.0946
-68.0854
-66.0825
-73.207
-73.6387
-43.4448
-93.7443
-76.6978
-87.3383
-43.931
-43.8012
-44.9545
-44.481
-42.4375
-44.7026
-44.0111
-46.557
-39.2163
-39.5208
-41.0952
-41.6146
-46.1688
-46.1117
-46.6822
-45.5326
-43.7317
-43.6604
-44.2987
-44.5619
-46.1347
-46.0108
-46.5174
-45.2551
-39.0508
-39.4855
-40.9624
-41.5005
-42.6339
-44.8243
-44.3464
-46.5454
-45.7773
-45.3615
-47.767
-46.529
-45.7788
-45.3767
-47.7903
-46.5448
-44.0632
-46.9978
-46.7168
-48.6266
-43.9141
-46.1834
-46.6314
-48.3492
-46.2416
-48.9098
-42.6429
-45.1331
-32.0557
-32.9916
-32.3436
-33.2695
-32.0153
-33.0418
-32.3646
-33.3038
-46.2213
-48.8992
-42.6189
-45.1095
-35.6605
-36.0631
-35.361
-35.4471
-36.0587
-35.66
-35.4305
-35.3525
-31.9159
-32.9878
-31.6082
-32.1355
-33.0372
-31.8927
-32.1822
-31.6039
-61.9586
111.302
-114.587
13.7296
-60.762
-91.2527
-40.6922
-37.9172
-40.827
-38.4288
-42.568
-44.1927
-47.1625
38.5996
-38.0087
13.5567
-50.9144
-38.0436
-35.9044
-34.0275
-32.2147
-32.82
-35.3087
-32.9733
-112.383
37.0071
-64.573
106.172
-61.4886
-90.1333
-40.2038
-38.6199
-40.7104
-37.9436
-42.5118
-43.1292
-38.0994
15.6792
-50.798
39.4391
-50.1428
-36.8507
-32.1814
-32.6728
-35.9234
-34.1168
-35.2709
-33.0226
-39.2299
-41.5076
-37.0773
-36.618
-39.4203
-37.5525
-41.2336
-39.1909
-42.221
-42.474
-37.4612
-40.5645
-34.2549
-49.5553
-44.4215
-46.4581
-48.6199
-47.8901
-49.054
-51.2256
-54.6503
-67.7403
-31.5792
-66.441
-48.7677
-49.789
-48.0976
-47.238
-50.7098
-53.5688
-55.4161
-55.0045
-39.461
-41.3594
-41.0805
-39.1851
-37.6514
-37.7213
-39.2973
-37.8732
-42.0779
-42.4154
-44.9483
-46.5358
-37.2345
-40.362
-34.2232
-49.7826
-49.2217
-44.2754
-25.5739
-66.9936
-49.3279
-51.3587
-54.4608
-66.8199
-48.7026
-49.8137
-55.5653
-54.9643
-48.4189
-47.2765
-50.8985
-53.5834
-66.148
98.6697
-59.4692
73.946
-81.3781
-82.1834
153.726
154.764
-113.483
14.0184
-112.033
11.6019
-90.72
-90.4488
82.8673
84.8898
-59.7194
-63.507
-47.5143
-50.0197
-54.9016
-48.7721
-60.0469
-53.2469
-38.7719
-36.1591
-36.9579
-34.3675
-39.9658
-39.0318
-35.0175
-34.0342
-40.1283
-37.4912
-40.0627
-37.4943
-41.5494
-41.5858
-36.8597
-36.7808
-50.6891
-50.0414
-44.0484
-45.521
-45.3084
-49.6124
-46.576
-49.5005
-50.3983
5.9859
-50.5728
4.42764
-40.9019
-41.3349
130.559
120.157
-61.1137
-42.1803
-48.7644
-34.8968
-51.9389
-58.5315
-29.4748
-25.9404
-31.5385
-28.3877
-31.5684
-28.3492
-31.3284
-31.3324
-28.2083
-28.2101
-39.622
-36.414
-45.8909
-43.9265
-42.5252
-45.5978
-39.9902
-36.4385
-67.9102
97.2207
-60.9709
72.6722
-80.9554
-81.674
155.748
154.471
-59.0998
-62.9782
-47.6756
-49.7189
-55.0298
-48.362
-59.6736
-52.977
-38.7929
-36.1371
-37.4115
-34.4325
-39.2528
-40.0502
-35.0105
-34.0604
-50.001
-50.1381
-43.6166
-45.557
-45.542
-49.0176
-46.5714
-49.6213
-60.1414
-41.1056
-47.8504
-34.5689
-58.3113
-50.372
-25.5056
-28.3068
-39.5474
-36.3791
-45.7652
-43.9067
-45.4161
-42.3542
-36.4148
-39.9572
-37.0508
-37.8186
-38.1112
-38.0701
-37.6218
-37.9836
-36.6983
-37.9076
-41.5052
-40.3743
-44.3146
-44.0743
-43.0703
-44.2366
-40.9525
-43.0256
-43.0606
-40.5895
-43.0381
-40.6006
-44.6931
-44.7157
-39.6827
-39.6923
-40.7268
-45.5137
-44.0613
-44.722
-41.715
-43.2999
-45.9425
-45.6808
-44.1837
-45.9803
-44.2191
-46.0263
-42.1744
-42.1716
-44.928
-44.9362
-53.9991
-63.0903
-52.6435
-58.4323
-49.6947
-51.5123
-70.1061
-65.5721
18.0775
-3.54843
18.13
-3.55532
22.912
22.9726
-21.5009
-21.4907
-64.5231
-56.3263
-64.4657
-56.3347
-69.166
-69.2718
-51.8822
-52.0935
-36.6022
-37.4315
-36.4667
-37.8484
-37.7602
-37.8442
-36.6856
-38.0898
-41.9418
-40.7753
-44.4542
-44.4108
-44.4748
-43.7289
-41.3904
-43.331
-41.3448
-45.5214
-44.2402
-45.1694
-43.6105
-42.1234
-45.6886
-45.3954
-54.15
-63.2473
-52.7725
-58.4117
-51.3542
-49.8399
-65.595
-70.0487
-61.1321
-61.6147
-55.8404
-48.8147
-48.4721
-55.8944
-45.6703
-45.6454
-60.4969
-61.1147
-55.5888
-48.6315
-55.8109
-47.667
-45.3824
-46.4302
-65.4215
-65.3243
-60.7153
-57.012
-60.5282
-56.897
-54.3787
-54.4333
-22.2287
-22.3713
-19.1522
-8.08274
-7.9357
-19.2357
-1.90827
-1.83692
166.069
204.45
167.935
168.587
187.047