# vtk DataFile Version 2.0
tri_press
ASCII
DATASET UNSTRUCTURED_GRID
POINTS 3682 float
-0.783744 0.135 -1.715
-0.791475 0.245 1.725
-0.775 0.685 -1.61908
-0.545 1.33961 1.365
0.783184 0.135 -1.715
0.802609 0.245 1.715
0.76714 0.685 -1.625
0.705 0.905 1.63737
-0.817552 0.140436 -0.568333
-0.817176 0.180055 0.578333
-0.743548 0.948418 -0.624387
-0.669986 1.16973 0.370307
0.816372 0.144954 -0.571667
0.816718 0.187749 0.571667
0.826097 0.838004 -0.537543
0.798712 0.904666 0.549913
-1.59864 -0.268676 -2.61053
-1.59027 -0.198367 -1.72955
-1.60598 -0.172053 -0.588172
-1.59643 -0.137137 0.567564
-1.56602 -0.0733209 1.70981
-1.55632 -0.0139808 2.59552
-1.55487 0.0476806 3.46894
-1.58888 0.0602454 -2.59661
-1.57412 0.153966 -1.72854
-1.58614 0.214885 -0.614336
-1.55593 0.292021 0.501068
-1.50442 0.377448 1.6179
-1.50843 0.422343 2.51118
-1.51756 0.471998 3.39373
-1.56982 0.688189 -2.54825
-1.54818 0.786991 -1.68236
-1.51638 1.01003 -0.669799
-1.42791 1.23411 0.321196
-1.32278 1.38924 1.34234
-1.38094 1.35966 2.28572
-1.43041 1.3514 3.21652
-1.51165 1.77484 -2.5653
-1.48592 1.90045 -1.71923
-1.43954 2.13146 -0.721817
-1.37911 2.37058 0.244657
-1.33164 2.53022 1.25341
-1.32933 2.58382 2.12297
-1.34762 2.6062 3.02606
-0.813699 -0.285101 -2.60072
-0.797407 -0.21296 -1.72081
-0.820804 -0.216511 -0.561824
-0.829438 -0.206165 0.615953
-0.815904 -0.154997 1.77544
-0.813513 -0.102165 2.66025
-0.811688 -0.0393609 3.52857
-0.808207 0.0368407 -2.58257
-0.785298 0.310916 2.58948
-0.783729 0.374294 3.45886
-0.797191 0.636785 -2.51723
-0.668458 1.23701 2.36098
-0.707054 1.24211 3.2846
-0.740148 1.71423 -2.52415
-0.715639 1.83142 -1.67079
-0.675519 2.05625 -0.667414
-0.631558 2.28421 0.30288
-0.599617 2.43157 1.31362
-0.600041 2.48243 2.18365
-0.615079 2.50816 3.08544
0.756491 -0.310446 -2.58313
0.782821 -0.225976 -1.71154
0.794088 -0.229862 -0.552867
0.782887 -0.223837 0.62574
0.764421 -0.188961 1.79087
0.715464 -0.202992 2.71964
0.694688 -0.175253 3.61223
0.756516 0.0170484 -2.56933
0.715636 0.180128 2.66715
0.704289 0.217161 3.55583
0.75748 0.61209 -2.50199
0.726566 0.970244 2.52734
0.742565 1.03459 3.41463
0.812462 1.64512 -2.47624
0.834214 1.74859 -1.61273
0.859944 1.92958 -0.57912
0.861535 2.09497 0.429715
0.849009 2.19943 1.4644
0.8451 2.25443 2.3301
0.844582 2.30105 3.21802
1.54204 -0.336561 -2.56308
1.568 -0.256586 -1.68796
1.58428 -0.250573 -0.533995
1.567 -0.254998 0.642272
1.53163 -0.23859 1.80763
1.48446 -0.247647 2.73731
1.4583 -0.228345 3.64013
1.54375 -0.00160942 -2.55367
1.57181 0.0983111 -1.68793
1.59993 0.120435 -0.547254
1.57965 0.128325 0.606508
1.53432 0.148287 1.75481
1.4822 0.132156 2.68808
1.46388 0.158682 3.58839
1.54677 0.613415 -2.49757
1.5685 0.705204 -1.62505
1.60768 0.811642 -0.524893
1.56694 0.848576 0.578149
1.48289 0.852715 1.6809
1.47632 0.895338 2.57667
1.48912 0.956075 3.4651
1.59359 1.6295 -2.46444
1.6133 1.72826 -1.59885
1.63146 1.88165 -0.548728
1.61873 2.0132 0.483852
1.59132 2.09872 1.53413
1.58286 2.15344 2.39995
1.58469 2.20667 3.28222
-0.810984 0.41 -1.69865
-0.000279993 0.13149 -1.71851
-0.785426 0.15294 -1.14167
-0.767431 0.792305 1.64419
0.00556701 0.212237 1.75276
-0.788503 0.22835 1.15167
-0.00393 0.763126 -1.70017
-0.775839 0.833274 -1.12173
0.08 1.20054 1.57942
-0.624175 1.27135 0.867653
0.806918 0.41 -1.70176
0.785062 0.154693 -1.14333
0.786585 0.575 1.70897
0.799204 0.226834 1.14333
0.826975 0.791858 -1.08127
0.770772 0.923749 1.09364
-0.817513 0.160097 0.005
-0.864194 0.544427 -0.59636
-0.000590196 0.123995 -0.57
-0.866211 0.674891 0.47432
-0.000228861 0.145805 0.575
-0.709585 1.06189 -0.12704
0.0412744 1.26114 -0.580965
0.0643632 1.43336 0.46011
0.816655 0.166242 0
0.858865 0.491479 -0.554605
0.861289 0.546207 0.56079
0.811782 0.870712 0.006185
-0.879304 0.477214 -1.1317
0.879524 0.450739 -1.1123
-0.000435094 0.138811 -1.1425
0.0186722 0.89405 -1.1015
-0.002105 0.41 -1.94834
-0.866107 0.609659 -0.06102
0.860373 0.518843 0.0030925
-0.000409528 0.132579 0.0025
0.0528188 1.42205 -0.0604275
-0.860951 0.733598 1.00966
0.883418 0.560604 1.11849
0.00266908 0.197158 1.1475
0.0721816 1.42578 0.980648
0.0427835 0.683652 1.81192
-0.801354 0.2725 -1.71082
-0.392012 0.131511 -1.71849
-0.789828 0.138727 -1.42833
-0.810967 0.518652 1.71611
-0.392954 0.212566 1.75493
-0.788519 0.238145 1.43833
-0.800356 0.5475 -1.66623
-0.389465 0.728575 -1.66413
-0.788793 0.772511 -1.37041
-0.65095 1.06596 1.49933
-0.2325 1.29713 1.49926
-0.598389 1.31928 1.11633
0.391452 0.131398 -1.7186
0.799276 0.2725 -1.7126
0.790206 0.138764 -1.42917
0.404088 0.218293 1.74421
0.819874 0.41 1.73726
0.796702 0.240122 1.42917
0.381605 0.728727 -1.66725
0.796327 0.5475 -1.67268
0.814331 0.755703 -1.35314
0.3925 1.07128 1.6269
0.752969 0.74 1.68034
0.751382 0.92787 1.36551
-0.838566 0.109611 -0.855
-0.817666 0.150133 -0.281667
-0.840919 0.342408 -0.582347
-0.408532 0.133294 -0.569167
-0.851462 0.155581 0.865
-0.817491 0.169929 0.291667
-0.851644 0.422498 0.526327
-0.412676 0.154982 0.576667
-0.744482 0.875634 -0.87306
-0.852077 0.770526 -0.610373
-0.727165 1.00575 -0.375713
-0.391229 1.18497 -0.602676
-0.647608 1.22107 0.61898
-0.776588 0.926553 0.422313
-0.690389 1.11641 0.121633
-0.36279 1.4215 0.415208
0.834264 0.116276 -0.8575
0.408491 0.133274 -0.570833
0.816659 0.155452 -0.285833
0.835429 0.319311 -0.563136
0.851529 0.163724 0.8575
0.414162 0.154941 0.573333
0.816644 0.177038 0.285833
0.841505 0.365728 0.566228
0.82887 0.817265 -0.809408
0.499238 1.18068 -0.559254
0.863067 0.675034 -0.546074
0.818984 0.854403 -0.265679
0.786557 0.916022 0.821778
0.54153 1.389 0.505012
0.859827 0.740349 0.555352
0.804565 0.887007 0.278049
-0.866255 0.443607 -1.41518
-0.406544 0.41 -1.90132
-0.000357544 0.136406 -1.4305
-0.0011925 0.270745 -1.9307
-0.862218 0.315077 -1.13668
-0.392931 0.138618 -1.14208
-0.84516 0.762951 1.32693
-0.362324 0.737979 1.8011
0.00411805 0.203904 1.45013
0.0241753 0.447945 1.9286
-0.875883 0.480974 1.08066
-0.392917 0.197333 1.14958
0.0073711 0.847904 -1.40083
-0.0030175 0.586563 -1.85386
-0.893829 0.655244 -1.12672
-0.378583 0.855373 -1.11162
0.0760908 1.40097 1.28004
0.0613917 0.942099 1.74964
-0.727222 1.00247 0.938657
-0.275996 1.42281 0.92415
0.866139 0.43037 -1.40703
0.402406 0.41 -1.90228
0.858093 0.302716 -1.12782
0.392313 0.138611 -1.14292
0.882344 0.567802 1.41373
0.414684 0.629326 1.81287
0.876124 0.393719 1.13091
0.400937 0.200474 1.14542
0.895517 0.621299 -1.09679
0.422823 0.854296 -1.09139
0.856841 0.742176 1.10606
0.421477 1.4075 1.03714
-0.846701 0.382432 -0.02801
-0.411414 0.141432 0.00375
-0.87049 0.51082 -0.86403
-0.865523 0.577043 -0.32869
-0.000512645 0.13011 -0.85625
-0.000499862 0.12564 -0.28375
-0.86655 0.642275 0.20665
-0.864909 0.704244 0.74199
-0.000319194 0.134212 0.28875
0.00122011 0.165222 0.86125
-0.824136 0.85392 -0.09403
-0.410553 1.40631 -0.0937337
0.0299733 1.03449 -0.841234
0.0470466 1.40678 -0.320696
0.058591 1.43048 0.199841
0.0682724 1.43172 0.720379
0.83881 0.342394 0.00154625
0.412124 0.141408 0.00125
0.870805 0.471109 -0.833454
0.85973 0.505161 -0.275756
0.860762 0.532525 0.281941
0.861595 0.553405 0.839639
0.8617 0.707589 0.00463875
0.548642 1.37907 -0.0271212
-0.84495 0.293788 -1.42175
-0.867928 0.328754 -0.859515
-0.862131 0.700833 -0.868545
-0.88727 0.601372 -1.39279
0.844999 0.287608 -1.4181
0.883058 0.584399 -1.38008
0.864639 0.64302 -0.821431
0.869545 0.310466 -0.845477
-0.392471 0.136158 -1.42942
0.391883 0.136154 -1.42984
0.400102 0.130054 -0.856875
-0.401001 0.130088 -0.855625
-0.384024 0.809076 -1.38562
-0.36486 0.969251 -0.857147
0.428255 0.9748 -0.825321
0.402214 0.806887 -1.37699
-0.399278 0.271623 -1.88622
-0.398005 0.567032 -1.81019
0.392006 0.567032 -1.81518
0.396929 0.271623 -1.88623
-0.843923 0.362364 -0.305178
-0.849221 0.402441 0.249158
-0.801286 0.890698 0.164142
-0.841088 0.813713 -0.352202
0.837151 0.330837 -0.280795
0.862391 0.691315 -0.270718
0.860673 0.723924 0.279995
0.840278 0.354001 0.283887
-0.410861 0.135586 -0.282708
0.411196 0.135564 -0.284792
0.415401 0.143659 0.287292
-0.414306 0.143686 0.290208
-0.437288 1.36843 -0.348205
-0.388548 1.41766 0.160737
0.546012 1.38588 0.238945
0.558549 1.34909 -0.293188
-0.855375 0.454223 0.803495
-0.878209 0.499813 1.38263
-0.702792 1.03422 1.22163
-0.749114 0.962391 0.680485
0.866029 0.380349 0.848569
0.860576 0.733806 0.830708
0.846019 0.741088 1.38962
0.873995 0.401859 1.42145
-0.40081 0.16579 0.863125
0.404591 0.172915 0.859375
0.402512 0.208501 1.43965
-0.392936 0.20404 1.44423
-0.289404 1.42548 0.669679
-0.254248 1.41019 1.19818
0.406988 1.37917 1.32277
0.426507 1.4147 0.771078
-0.377639 0.483299 1.89743
0.409386 0.428972 1.91709
0.403592 0.841049 1.76855
-0.297412 1.00403 1.68255
-0.787286 0.20375 -1.70765
-0.587878 0.13296 -1.71704
-0.7815 0.142149 -1.57167
-0.820159 0.381826 1.73949
-0.592214 0.219237 1.74951
-0.791279 0.24029 1.58167
-0.792494 0.61625 -1.64747
-0.582232 0.717364 -1.65218
-0.786127 0.732986 -1.49474
-0.599693 1.20278 1.43388
-0.38875 1.33182 1.44558
-0.578256 1.33601 1.24066
0.587318 0.132864 -1.71714
0.790345 0.20375 -1.71292
0.781338 0.142239 -1.57208
0.603349 0.219084 1.74217
0.819414 0.3275 1.7343
0.800438 0.241779 1.57208
0.574372 0.713215 -1.65248
0.787879 0.61625 -1.65498
0.794972 0.724588 -1.48907
0.54875 0.989969 1.63397
0.732939 0.8225 1.66281
0.738902 0.927146 1.50144
-0.817475 0.135607 -0.711667
-0.817688 0.145205 -0.425
-0.829741 0.241169 -0.57534
-0.613952 0.135044 -0.56875
-0.817088 0.185049 0.721667
-0.817418 0.174908 0.435
-0.833397 0.301783 0.55233
-0.61933 0.158712 0.5775
-0.725988 0.893999 -0.748723
-0.806166 0.863649 -0.61738
-0.735574 0.977303 -0.50005
-0.581948 1.09581 -0.613531
-0.659208 1.19581 0.494643
-0.721471 1.04723 0.39631
-0.680335 1.14322 0.24597
-0.559389 1.38161 0.392758
0.816234 0.139699 -0.714583
0.614476 0.135024 -0.57125
0.816572 0.150146 -0.42875
0.826793 0.231686 -0.567401
0.816531 0.193329 0.714583
0.640834 0.120559 0.5725
0.816726 0.182349 0.42875
0.827093 0.277748 0.568948
0.829029 0.82918 -0.673476
0.690435 1.06488 -0.548399
[...]
POINT_DATA 3682
SCALARS point_scalars float 1
LOOKUP_TABLE default
-166.44
-55.2551
-59.3252
-44.1906
-172.345
-57.3848
-57.165
-42.6522
-45.3169
-38.3598
-98.4863
-60.6964
-45.5606
-38.6376
-76.3922
-52.9178
-40.4577
-149.84
-46.2293
-38.8568
-51.9879
-53.5107
-43.1916
-69.0197
-146.797
-60.0384
-41.0445
-51.3728
-49.6093
-43.0922
1.07422
-116.733
-67.975
-54.6107
-44.7065
-41.2493
-39.0984
-36.8472
-54.9138
-134.359
-78.2241
-46.8019
-43.7002
-39.2517
-43.2828
-167.476
-45.6381
-40.1223
-52.068
-45.0078
-42.8306
-43.2828
-42.8787
-42.8306
146.914
-36.9215
-37.5446
-22.536
-50.8005
-124.183
-70.7047
-47.6124
-37.8526
-35.8987
-42.3889
-171.771
-46.0226
-41.4176
-54.2741
-48.4495
-44.3741
-42.3889
-43.5145
-43.5392
146.237
-41.5304
-42.8196
-27.2861
-46.3892
-136.957
-63.2246
-47.1136
-41.9416
-37.5414
-112.042
-142.2
-45.186
-47.713
-53.7552
-57.4369
-48.0836
-72.8964
-156.515
-45.3727
-39.6949
-56.2286
-53.4579
-44.2203
-9.82227
-116.045
-61.0742
-47.2222
-55.2831
-46.4658
-43.5204
-40.3477
-71.3664
-135.051
-58.7484
-49.1098
-41.7791
-40.7305
-59.9304
-146.579
-55.8267
-43.428
-49.5972
-43.118
-23.7226
-46.0304
-33.8432
-50.6794
-52.6658
-56.0389
-47.0049
-44.4434
-58.5723
-49.2292
-40.5789
-51.6094
-47.9029
-45.8525
-46.8284
-79.3814
0.635687
-67.7707
-40.9014
-49.4263
-42.7956
-63.8218
-64.7098
-63.9477
-64.4347
30.959
207.143
-49.7438
-46.3231
-44.8455
-105.022
-44.9898
-44.3205
-43.6863
-52.2248
-38.6382
-87.699
-151.276
-83.537
-46.8758
-50.4614
-43.8806
-36.1158
-21.9646
-54.9305
-40.0721
-35.3753
-47.4583
-151.648
-72.5512
-83.7717
-50.7546
-52.9576
-44.4316
-22.1009
-32.6747
-60.0476
-37.5495
-45.4947
-46.9668
-56.4482
-43.4079
-47.286
-47.7511
-47.2273
-40.124
-41.1811
-46.5215
-48.2297
-66.7973
-93.1079
10.4106
-55.5071
-55.1636
-68.4585
-67.2048
-54.1079
-47.6516
-42.2312
-46.5237
-44.0379
-46.4993
-40.2499
-40.4042
-64.1617
-21.6545
-57.8555
-71.0073
-50.8596
-60.9301
-47.2856
-57.1921
-91.531
182.65
-90.1021
126.001
-61.9418
-63.0207
-48.0539
-38.4575
-44.3372
-42.7203
-43.249
-43.4081
-2.63384
158.988
-67.0289
12.2658
-44.3746
-33.3067
-48.6523
-53.069
-90.4813
182.697
-61.3534
-63.2121
-50.636
-41.7927
-45.6659
-43.8714
-65.5791
8.6932
-46.9287
-51.2177
-43.5752
-44.0502
-58.5281
-51.1584
-52.0365
-46.7183
-47.6806
-44.895
-45.8603
-46.7725
-65.7099
-106.065
61.2886
-156.151
-81.3172
-58.5738
-43.0778
-44.0477
-57.6892
-48.1419
-44.3588
-41.9884
-53.2882
-92.1517
-88.531
-58.3077
-59.7747
-95.9362
-89.0783
-94.023
-57.4216
-60.9532
-89.1846
-89.4403
-51.4136
-51.4134
-15.1716
34.9438
26.3105
-16.6783
124.967
128.164
128.769
124.754
-45.0191
-42.3595
-60.1115
-68.5986
-44.396
-56.7012
-49.8745
-41.6874
-45.5902
-45.4878
-44.4937
-44.007
-126.943
-80.6151
-71.423
-137.263
-39.6425
-47.714
-45.5295
-52.0367
-40.7095
-46.122
-51.883
-48.9241
-47.5867
-47.6103
-44.143
-43.6445
-59.2164
-46.7359
-45.8013
-55.9161
-41.5306
-43.4262
-39.7841
-33.4888
-123.698
-166.833
-114.837
-52.4398
-52.256
-46.2909
-43.773
-3.49287
-64.3901
-40.9904
-38.5156
-46.4909
-167.514
-107.034
-117.501
-52.8205
-56.5898
-48.2958
-3.60348
-40.177
-63.3238
-39.0991
-44.1518
-45.153
-49.7285
-43.8299
-46.1202
-46.489
-39.5043
-39.9978
-40.2243
-44.2212
-60.9808
-83.7681
-102.289
-33.7554
-57.8121
-57.6348
-64.2608
-63.9228
-49.118
-46.3396
-44.3484
-45.7805
-38.8135
-46.55
-39.7787
-39.9777
-74.5016
-109.682
-65.6061
-74.1751
-52.2568
-57.058
-50.2697
-54.0776
-67.7595
-43.3458
-138.312
132.801
-148.508
-148.597
-110.349
1.95183
-68.3454
-45.2339
-59.2921
-60.3141
-44.8069
-40.6395
-48.5434
-39.0921
-49.7219
-49.8766
-46.1514
-43.5407
-42.5781
-52.0918
-44.2471
-42.6855
-21.8186
-22.5261
-17.0359
52.6651
-54.189
-41.7936
-66.9276
-8.31798
-33.6729
-35.3017
-38.8454
-32.7716
-48.8231
-52.8612
-49.6968
-52.8784
-63.7609
-32.984
-138.488
134.563
-68.6812
-47.9345
-59.5111
-60.6969
-49.242
-46.0659
-54.538
-42.0999
-43.4354
-53.9448
-45.5452
-43.2978
-65.4069
-56.8563
-66.145
-13.5519
-48.297
-49.9679
-48.5024
-49.7587
-41.6137
-40.3195
-42.1259
-42.048
-48.899
-56.7785
-52.8881
-51.4219
-47.8632
-47.823
-49.8987
-47.6467
-43.1095
-48.0089
-46.5635
-45.3355
-47.1671
-47.2871
-46.612
-49.1912
-85.8641
-73.457
-72.0378
-98.239
7.87267
3.41119
50.398
-82.9123
-68.3918
-65.5504
-73.7349
-62.8803
-41.6828
-40.4094
-42.2045
-42.0026
-47.5583
-52.7269
-51.0243
-48.8656
-41.3742
-44.6973
-43.5783
-42.1025
-67.3647
-60.2593
-58.1399
-76.1311
-72.8942
-63.5203
-66.1859
-59.7426
-72.6204
-62.5601
-64.6378
-59.4766
-75.3173
-64.4431
-64.4515
-56.6178
13.2849
25.5141
24.6624
43.7551
202.296
188.573
181.935
203.725
-46.0822
-50.5723
-48.7447
-55.8298
-44.3941
-47.2771
-45.3346
-49.2648
-44.6851
-46.4672
-44.966
-44.6982
-106.543
-124.231
-90.6147
-100.951
-45.7315
-41.8726
-47.4341
-44.8655
-48.47
-45.3348
-44.4674
-43.983
-43.7845
-43.5814
-43.77
-46.4306
-48.2584
-52.7413
-51.5832
-55.1725
-38.0984
-39.3184
-37.3762
-40.3145
-123.979
97.1037
-111.309
26.5265
-86.9435
-86.2854
-50.8976
-41.0361
-45.8355
-43.26
-46.6637
-42.8537
-127.873
114.09
-28.676
43.3441
-86.1852
-29.4822
-43.4585
-35.9194
-41.5457
-33.5109
-46.5243
-48.1835
-111.624
25.5135
-127.137
98.1874
-87.0172
-86.7103
-46.5615
-44.6413
-53.8212
-43.603
-47.4263
-43.4465
-29.1925
44.1261
-126.419
113.931
-89.7574
-31.4173
-38.9449
-38.4408
-51.4643
-41.3512
-49.2145
-47.5121
-62.7687
-51.4787
-44.0641
-44.4007
-52.763
-45.8557
-50.0026
-46.5211
-40.1161
-54.7046
-41.1859
-42.2227
-41.7679
-40.5306
-43.8902
-49.8456
-63.8188
-4.88306
-62.2589
-69.0293
-81.7214
-136.499
37.3251
-36.9818
-53.3955
-57.9574
-57.3673
-53.5933
-63.7002
-78.1791
-73.003
-63.0734
-62.2332
-51.0864
-49.9061
-46.4327
-43.3392
-44.2198
-49.6858
-45.2173
-41.2677
-51.5398
-44.1272
-50.6204
-40.9112
-43.0995
-41.1217
-38.6918
-62.9456
-22.988
16.8997
-72.9855
-56.8962
-57.6868
-63.1915
-97.5006
-48.4715
-52.8815
-65.2741
-58.5035
-48.7193
-46.4388
-53.5253
-64.0923
-90.4009
-92.1495
171.323
148.975
-90.3317
-90.4346
120.681
113.994
-69.6359
-55.9633
-73.9778
-55.6195
-48.2118
-45.7086
-39.6957
-35.4169
-44.3286
-44.1146
-42.3221
-43.1509
-42.1471
-46.2449
-47.0519
-43.1041
-4.78432
-4.98148
156.607
156.6
-62.2762
-75.0564
-0.954887
22.4339
-45.3613
-44.4458
-36.8212
-32.2354
-47.2089
-50.3544
-55.7633
-49.7264
-90.4152
-90.2735
150.191
171.185
-69.6676
-56.5203
-74.2067
-55.5569
-52.1257
-49.8598
-42.0804
-41.057
-45.4255
-46.914
-47.5093
-43.5448
-74.1569
-60.3478
16.371
-2.71766
-46.7052
-49.2488
-49.387
-53.7086
-44.3026
-42.9641
-45.3382
-43.8571
-58.4691
-56.6637
-47.4407
-57.7696
-51.9488
-51.9395
-46.4663
-46.4353
-44.4974
-52.8213
-42.3754
-48.6883
-45.3836
-45.2602
-46.8378
-46.9494
-62.8418
-67.6449
-137.364
-90.4225
56.6826
55.272
-150.075
-152.864
-82.1863
-78.2702
-59.2172
-57.521
-43.7361
-42.3531
-45.2552
-43.9182
-56.3145
-60.1168
-45.8618
-51.6238
-46.6898
-42.7994
-41.2077
-43.94
-55.1036
-51.5336
-79.4548
-118.107
-118.965
-68.2219
-71.3782
-126.477
-51.452
-52.6188
-58.1176
-50.2213
-74.3884
-61.7116
-62.0909
-55.804
-84.1571
-137.942
-73.8905
-76.7396
-120.61
-127.698
-71.6209
-67.7174
-91.1173
-77.8229
-73.3142
-136.001
-64.3315
-52.9867
-61.3993
-61.7441
-49.5896
-52.4082
-57.9778
-50.0085
-110.057
-111.228
-75.3685
-71.2824
-110.605
-71.661
-75.4744
-111.309
-50.6497
-49.896
-56.5683
-52.8815
-50.8233
-52.459
-56.5278
-49.927
-52.318
-17.0555
10.4725
-18.6731
-4.40738
51.4254
38.8247
-4.42091
-60.7789
-13.4765
37.8274
44.0869
-50.7138
-18.747
9.70192
-20.6331
56.9637
125.342
185.043
1.0782
81.7297
71.7385
174.133
119.911
80.3114
121.015
174.357
72.0558
59.777
4.96105
183.942
126.824
-44.6926
-42.8486
-46.8127
-47.9941
-40.718
-43.7181
-45.3154
-41.6524
-60.3404
-67.8815
-54.4482
-51.9787
-84.4008
-57.6951
-57.0031
-77.0225
-44.2141
-46.5394
-45.166
-42.7102
-64.9078
-60.9351
-50.5424
-52.379
-51.2033
-45.6105
-47.9254
-55.87
-40.4566
-41.5972
-43.5926
-42.157
-45.3983
-47.4315
-46.2345
-44.2088
-45.2799
-43.0104
-46.2185
-47.393
-41.9787
-45.9939
-44.6799
-41.9642
-42.6036
-41.5364
-44.6373
-45.8967
-79.3262
-125.563
-128.185
-66.1471
-68.9879
-74.4584
-91.6851
-83.0623
-60.0752
-69.3037
-87.8968
-71.0323
-118.196
-76.9525
-122.72
-85.1068
-38.9076
-46.4039
-42.8435
-42.5168
-50.8687
-51.7929
-45.2445
-45.135
-44.6155
-48.1186
-47.03
-43.9697
-55.53
-50.5198
-48.132
-51.4222
-37.913
-40.1758
-43.6608
-49.9353
-49.692
-48.2492
-45.62
-44.0495
-48.9862
-53.7497
-48.6776
-48.7978
-52.0045
-45.4328
-47.6367
-53.771
-47.7561
-49.0381
-46.4904
-47.9367
-47.5627
-49.7474
-46.7095
-49.209
-46.4602
-46.2584
-43.8383
-42.6572
-45.6071
-42.1914
-43.6366
-46.012
-59.6567
-55.075
-55.6562
-63.5586
-44.8205
-39.802
-48.7954
-50.2684
-40.9102
-49.0819
-48.4577
-38.8277
-54.8465
-61.2752
-54.6227
-51.5791
-43.2012
-43.073
-38.7712
-40.2282
-45.1224
-42.785
-40.5652
-43.5927
-40.1132
-35.464
-39.4994
-42.0807
-35.6053
-36.7358
-35.9332
-31.9557
-141.065
-220.137
-147.436
-55.0436
-53.6967
-49.0233
-54.9216
-17.2528
-72.7631
-42.5238
-41.4383
-45.8429
-221.3
-143.459
-148.967
-54.9912
-60.2388
-51.2341
-13.8799
-49.0731
-72.2398
-39.9441
-43.6771
-43.5266
-46.9032
-44.6259
-45.5913
-45.7777
-40.1808
-39.6547
-39.7105
-39.783
-84.6893
-95.8695
-109.307
-71.1711
-59.1907
-59.3528
-62.4073
-62.0097
-46.7467
-46.0779
-44.852
-45.5021
-39.7384
-40.5033
-39.6746
-39.7397
-76.5678
-98.1023
-70.6921
-75.4544
-52.6759
-55.0699
-51.8677
-53.4288
-65.0462
-52.566
-153.277
56.0188
-146.938
-146.986
-126.011
-80.9574
-62.6878
-50.6079
-57.6801
-57.5062
-44.5573
-42.1363
-46.8386
-40.047
-49.5951
-49.6928
-47.7837
-45.8393
-42.3708
-45.5638
-44.1422
-42.4622
-20.5223
-20.7234
-20.7697
-11.921
-49.5411
-43.7712
-61.2745
-25.8567
-33.4572
-34.3609
-35.579
-33.146
-49.7287
-51.5763
-50.2273
-52.2814
-60.5316
-43.3284
-153.104
60.2303
-63.2759
-51.3806
-57.4166
-57.9601
-47.8921
-46.5259
-53.4812
-43.0415
-43.7353
-46.5974
-45.1079
-43.1943
-61.8542
-56.6902
-64.6106
-35.5814
-48.7896
-49.6567
-49.1357
-49.4042
-41.0624
-40.6172
-41.3396
-40.8039
-50.0972
-53.7721
-51.9331
-51.5332
-47.9408
-47.9209
-48.01
-48.2874
-44.3416
-47.172
-46.0456
-45.6637
-47.0628
-47.127
-46.0259
-47.8434
-82.5762
-76.3315
-75.1755
-88.0289
3.80954
-0.884845
30.26
-32.7502
-68.2575
-66.9001
-70.6236
-65.3272
-41.3771
-40.7618
-41.5121
-40.9679
-48.3905
-50.8588
-49.8847
-49.056
-42.0187
-43.6767
-43.2255
-42.3841
-65.5583
-61.9695
-61.558
-69.5489
-68.0705
-64.1942
-65.2867
-62.2439
-67.9428
-63.1446
-64.4371
-61.1754
-69.3578
-64.4456
-64.4804
-60.2208
21.989
29.5899
28.9046
37.3681
205.446
203.792
199.2
205.503
-47.7371
-50.1743
-49.254
-52.5253
-45.3286
-46.8007
-45.8594
-47.6822
-44.797
-45.7058
-44.85
-44.8046
-106.102
-113.424
-96.2548
-103.544
-45.617
-43.4074
-46.1621
-44.6262
-47.361
-44.9225
-43.5823
-43.0494
-43.7724
-43.6352
-43.727
-44.1747
-50.1443
-52.5091
-51.8728
-53.8269
-38.0816
-39.5873
-37.7977
-39.4355
-111.233
-81.6104
-171.86
48.8313
-155.059
-148.838
-132.283
-9.0089
-94.6651
-75.0776
-85.2221
-83.8459
-49.7102
-45.9103
-53.8486
-41.8677
-51.0472
-49.9572
-47.8744
-45.08
-44.2003
-43.2952
-45.7493
-42.6334
-34.3711
-40.2852
-109.015
60.9377
-23.3239
-20.619
-29.9771
-2.95375
-62.1296
-52.5539
-68.2903
-37.8488
-40.235
-40.0927
-42.155
-36.9035
-36.5067
-34.3183
-38.5568
-34.0187
-46.8925
-47.8843
-47.0567
-48.1863
-155.528
-149.195
-132.811
-14.1715
-93.1886
-69.2431
-168.836
54.0955
-95.4141
-75.0458
-85.0918
-84.352
-51.6965
-50.3606
-48.6107
-46.8394
-54.741
-51.2148
-55.8438
-45.3187
-45.6213
-43.9084
-45.9846
-43.2629
-23.1065
-20.4001
-29.9819
-2.86468
-31.6653
-31.0231
-109.237
65.0955
-63.8624
-63.6638
-79.1928
-43.3342
-38.5646
-36.4724
-37.442
-37.9948
-44.6415
-45.9821
-49.1756
-42.287
-45.9346
-47.6625
-47.8828
-45.994
-62.9341
-34.6488
-60.3465
-52.3931
-43.6696
-42.5523
-43.5997
-43.0321
-46.7085
-47.9113
-48.4995
-46.418
-47.5503
-47.6143
-48.7391
-47.1554
-32.9115
-65.5024
-41.7409
-53.7249
-40.2757
-40.4003
-40.6522
-40.7674
-40.6107
-42.0577
-41.5082
-40.8632
-45.6385
-46.8275
-45.5365
-47.1851
-55.0818
-41.9568
-61.3282
-21.5765
-73.8649
-60.7639
-63.9126
-68.2257
-96.8893
-89.3276
-85.6237
-122.113
-4.1963
12.6755
27.4857
-10.5595
-56.6305
-54.0622
-54.3337
-57.5068
-56.2628
-52.6005
-56.2699
-54.6845
-66.2743
-70.8271
-65.985
-71.8271
-65.9665
-68.0418
-69.7434
-65.0441
-61.3392
-36.8587
-58.5635
-51.9987
-47.3922
-47.5386
-48.6264
-47.0584
-42.7588
-42.1179
-42.7296
-42.6196
-46.1195
-46.9377
-47.7183
-45.7648
-32.7928
-67.537
-42.0752
-52.7506
-45.8908
-46.8946
-45.1537
-47.6714
-40.2157
-40.5548
-40.5058
-41.479
-40.1486
-40.8228
-40.8206
-39.6761
-70.3386
-59.5103
-67.5559
-55.3499
-59.3537
-0.802458
0.122761
-49.0775
-61.1928
-55.0534
-57.3349
-57.827
-72.7237
-69.2603
-66.8959
-80.895
-51.6655
-50.382
-49.9867
-51.9805
-57.9222
-63.5634
-62.8746
-60.4394
-48.7206
-45.8983
-47.3411
-46.7863
-55.8453
-58.643
-55.7915
-60.5266
-106.182
-80.8312
-90.6512
-91.884
169.651
192.576
183.744
172.657
-99.1488
-82.1565
-90.0726
-90.1129
75.7036
169.104
130.345
127.578
-60.8511
-62.8418
-64.6509
-59.0577
-61.8264
-63.8679
-67.9457
-58.8171
-48.3873
-46.897
-49.2097
-46.7671
-38.7828
-38.1519
-39.5267
-37.0884
-45.1034
-43.8293
-44.3122
-44.1939
-43.0642
-40.4953
-42.5297
-42.8665
-44.1366
-41.7711
-42.2973
-44.8232
-43.124
-43.5206
-44.0578
-43.3091
-9.61742
5.87978
-2.7872
-2.99461
133.17
175.973
162.196
162.016
-68.093
-66.6239
-65.3452
-70.6658
1.29742
20.8208
5.5941
17.7061
-41.4592
-46.6016
-44.7589
-44.2277
-32.9423
-35.3256
-34.7225
-32.5188
-49.0819
-48.7531
-47.8604
-49.3497
-53.0416
-52.9936
-54.324
-51.3346
-105.885
-79.5726
-90.186
-90.2724
170.403
192.512
173.573
184.468
-60.6708
-61.9796
-65.4919
-58.329
-62.1031
-63.9981
-68.1649
-58.9793
-52.8586
-49.4529
-51.2718
-50.2834
-42.0973
-41.3311
-41.5532
-41.5467
-45.3993
-45.7258
-44.2065
-46.7539
-43.6765
-43.8159
-44.5932
-43.6893
-66.4427
-64.7486
-69.0406
-63.1142
-3.36741
18.696
13.3096
3.19082
-47.7909
-45.6765
-46.5357
-48.2306
-50.9643
-51.4484
-49.9953
-52.5232
-42.8438
-44.7668
-43.9211
-43.2565
-43.2113
-44.456
-44.7372
-44.5863
-54.762
-59.5593
-58.8306
-57.6695
-51.3306
-50.8957
-49.0658
-54.1005
-51.3813
-53.3927
-51.8237
-51.826
-47.1293
-46.4466
-46.6375
-46.6231
-47.0828
-48.1498
-45.9042
-49.987
-44.9884
-44.8133
-43.5225
-46.4586
-46.8865
-45.2925
-45.7266
-45.6795
-48.3076
-48.3338
-46.7568
-46.8239
-70.0057
-60.0858
-64.3446
-67.034
-103.953
-106.326
-119.341
-97.2397
61.4854
51.8208
60.592
59.6119
-147.134
-139.488
-155.954
-152.334
-77.3389
-85.911
-81.962
-80.1416
-60.6717
-56.8179
-58.9729
-58.1045
-42.63
-43.5923
-43.4173
-42.7433
-43.2133
-44.4641
-44.7227
-44.644
-53.7856
-59.9782
-56.7526
-58.8306
-48.4767
-47.7154
-46.8999
-49.7238
-44.0068
-44.8973
-45.4347
-43.5346
-42.1646
-43.2589
-41.6186
-42.814
-55.5448
-51.1267
-54.2065
-52.4363
-83.4275
-97.985
-85.1883
-102.511
-102.35
-87.6307
-90.2298
-78.0986
-59.8393
-58.4835
-55.6822
-58.0737
-62.1012
-61.6667
-59.6228
-57.6065
-108.864
-96.1344
-94.0718
-85.5192
-103.764
-88.5344
-90.3812
-77.3039
-112.057
-94.3209
-92.0035
-81.0797
-59.2972
-56.728
-58.4397
-56.5188
-62.2337
-55.7047
-56.7057
-59.8344
-98.9103
-87.9654
-89.8703
-81.0054
-99.1804
-88.2963
-90.0463
-81.2504
-51.3867
-51.3539
-52.3425
-51.682
-51.5478
-51.4324
-52.2779
-51.6854
-22.2552
-22.7042
-8.53816
-7.61602
18.1153
39.4796
29.61
49.9906
4.287
27.6966
21.7821
43.203
-23.215
-23.6626
-9.1771
-9.57992
122.037
98.502
148.639
109.53
113.136
102.933
134.655
151.224
100.828
112.737
151.681
136.595
102.889
122.69
109.37
149.4
-44.5044
-45.5154
-44.5851
-46.1806
-41.7066
-42.051
-42.6429
-43.3097
-58.7642
-61.8559
-56.5238
-61.7041
-68.973
-75.9184
-62.478
-67.9691
-43.8605
-44.7667
-44.0472
-44.9666
-57.2545
-59.49
-53.9895
-55.9571
-49.6386
-51.5468
-48.1858
-50.7197
-41.2905
-41.4286
-42.0353
-42.1396
-45.0667
-46.0308
-45.3695
-46.0855
-45.9382
-44.8903
-46.0254
-45.2667
-45.1466
-44.2217
-44.894
-42.8739
-43.2132
-44.7539
-42.6838
-44.7264
-104.116
-72.7484
-144.456
-143.393
-79.1275
-76.6235
-85.1518
-81.8588
-68.1153
-67.3596
-75.3961
-75.2369
-93.5665
-128.555
-143.689
-134.362
-38.0931
-40.4044
-41.3517
-41.1774
-49.6804
-47.2853
-48.0156
-46.88
-44.7371
-45.9953
-45.4852
-46.355
-52.329
-52.8581
-51.0708
-51.2339
-40.3364
-36.7207
-46.8884
-41.4372
-47.1971
-46.1917
-46.344
-45.1034
-51.9141
-50.4776
-53.1952
-50.6646
-51.7203
-48.3696
-49.428
-47.5887
-49.2001
-49.1166
-49.2535
-47.0855
-48.4874
-49.8255
-49.2031
-47.1669
-45.2035
-43.7754
-44.2532
-43.6441
-44.5416
-43.1865
-43.8782
-43.0902
-58.749
-60.9968
-57.2897
-59.3066
-44.496
-47.5749
-46.0405
-48.1583
-42.9128
-46.5905
-44.8738
-47.8134
-55.1284
-57.4662
-54.6693
-56.7502
-40.8669
-42.7344
-40.2674
-42.2527
-43.861
-43.3996
-43.2532
-42.9187
-39.0333
-40.7575
-38.623
-40.4877
-34.6667
-33.4167
-34.1828
-32.7668
-159.224
50.5698
-137.664
-31.024
-118.367
-110.198
-54.5855
-44.5429
-48.1637
-45.8011
-49.6024
-45.2195
-76.6041
53.356
-46.2159
39.1742
-66.8543
-54.7636
-43.22
-37.1469
-42.147
-36.2134
-45.553
-46.3359
-138.4
-32.1479
-175.653
52.5924
-121.087
-110.992
-49.1952
-48.4691
-56.9248
-47.3722
-50.4009
-46.4348
-44.4903
37.5886
-76.8647
59.5142
-68.1703
-56.5913
-39.3982
-39.3254
-47.6434
-41.4702
-47.1504
-42.7813
-50.3528
-50.3497
-44.2369
-44.5417
-47.6403
-45.2261
-47.0054
-46.263
-38.2172
-45.8206
-40.2873
-41.1625
-40.4705
-39.8126
-44.9497
-42.2525
-71.527
-35.4513
-80.7754
-85.1963
-91.0279
-122.636
-15.1715
-55.3479
-56.7067
-58.3374
-58.9338
-56.5034
-62.3363
-66.3333
-66.2434
-61.7541
-49.1517
-49.7319
-46.7606
-45.7337
-44.3037
-43.8544
-47.1026
-44.9607
-37.8735
-45.9358
-41.3211
-47.2934
-40.0872
-40.2847
-40.2025
-39.2577
-70.0394
-89.0438
-85.4875
-123.354
-65.3295
-65.3575
-69.2835
-87.9608
-51.3494
-53.1389
-58.4464
-55.9607
-49.8971
-49.8875
-52.9484
-57.2938
-159.764
58.2169
-131.953
62.9231
-134.33
-136.312
131.195
132.673
-128.935
-101.199
-129.198
-97.3612
-110.339
-110.379
-12.1437
-10.7281
-67.7964
-69.0827
-47.3429
-49.476
-63.0046
-55.2905
-65.2749
-55.9191
-49.6469
-41.1285
-42.5887
-37.7716
-50.0985
-45.8288
-39.8934
-38.0081
-47.7653
-45.1771
-48.0671
-44.7357
-46.1993
-46.0743
-43.0286
-43.6082
-44.1863
-41.9706
-50.281
-49.8069
-45.101
-44.3362
-44.1397
-42.2233
-24.3833
-8.3456
-24.3827
-7.64886
-17.2395
-17.223
62.0177
62.6591
-70.0715
-29.59
-56.8576
-21.0851
-63.598
-73.1939
-11.6988
-5.94342
-36.6204
-32.8282
-35.995
-35.2884
-39.2106
-38.5027
-34.0965
-32.0002
-48.6136
-50.2037
-52.1016
-54.3085
-48.8938
-50.5151
-53.8466
-51.7547
-160.159
62.461
-135.503
68.076
-133.091
-134.747
134.316
133.174
-68.2557
-69.6058
-50.1516
-50.2159
-63.8822
-55.6645
-65.6358
-56.3299
-56.2865
-43.7885
-50.7619
-42.9375
-55.2517
-53.9549
-41.8367
-42.2678
-44.846
-42.7262
-53.0382
-51.2114
-45.0731
-45.8781
-44.9864
-42.8829
-76.7057
-36.3796
-61.6748
-40.5837
-70.282
-63.1979
-11.8163
-16.596
-48.8246
-48.0168
-49.3469
-50.6512
-48.3313
-48.7293
-49.4383
-50.6297
-42.0765
-42.9647
-40.9876
-40.7129
-42.3285
-41.8687
-43.9873
-42.3846
-49.886
-48.3944
-56.1971
-57.2977
-52.4984
-54.0411
-49.5009
-54.1482
-48.0246
-48.1261
-47.9895
-48.0914
-49.9017
-49.9169
-47.59
-47.5438
-43.3841
-42.8018
-49.9966
-50.2049
-45.0092
-48.876
-43.7554
-47.6055
-44.874
-48.8603
-44.9018
-48.9773
-46.4932
-46.4507
-49.1046
-49.1779
-80.0857
-101.284
-70.2962
-78.7384
-69.9002
-74.4959
-109.519
-88.9016
33.5506
-15.7202
24.5082
-24.4535
51.569
49.1083
-78.0348
-83.1705
-71.2048
-65.8934
-68.1285
-63.5541
-74.3004
-72.6709
-63.3503
-62.1967
-42.1339
-42.3336
-41.0194
-40.4309
-42.4425
-42.0394
-44.0853
-42.5122
-48.4286
-46.9344
-52.706
-52.5518
-51.7392
-50.2032
-47.6164
-50.3871
-41.8323
-40.8116
-45.1487
-44.2949
-44.5249
-42.8255
-41.0984
-43.0366
-63.8965
-75.1025
-58.4987
-64.6644
-59.3157
-57.0077
-72.4524
-80.3035
-72.5727
-73.4159
-66.6322
-60.6594
-63.7902
-69.4467
-58.8855
-61.1867
-72.1831
-73.2425
-66.7481
-59.8219
-68.6353
-62.2958
-60.4456
-58.7417
-75.3398
-75.3829
-69.3232
-60.1528
-69.3616
-60.208
-56.6268
-56.6104
13.316
13.0656
18.4147
32.3901
30.7939
17.6731
42.2864
43.2117
196.358
191.747
191.157
189.659