# vtk DataFile Version 2.0
tet_velo
ASCII
DATASET UNSTRUCTURED_GRID
POINTS 29498 float
-0.862025 0.135 -1.875
-0.675 0.285 2.12198
-0.679854 0.705 -1.975
-0.605 0.968625 2.075
0.861962 0.135 -1.875
0.675 0.285 2.12198
0.679244 0.705 -1.975
0.605 0.968625 2.075
-0.817049 0.167634 -0.542673
-0.783895 0.188447 0.789653
-0.768966 0.906938 -0.625
-0.735855 0.986653 0.725
0.816875 0.167767 -0.542673
0.78275 0.189571 0.789653
0.768617 0.906996 -0.625
0.735796 0.986798 0.725
-1.65341 -0.291359 -2.90798
-1.64288 -0.214565 -1.83504
-1.59973 -0.182125 -0.50317
-1.53099 -0.167232 0.825143
-1.43969 -0.101502 2.15671
-1.4193 -0.0520314 3.22818
-1.42803 -0.00887988 4.30237
-1.64406 0.0368477 -2.95163
-1.63306 0.132041 -1.87676
-1.59458 0.185438 -0.541447
-1.51428 0.202214 0.792271
-1.39176 0.260556 2.12724
-1.388 0.308601 3.19896
-1.41115 0.352253 4.27257
-1.56659 0.668507 -3.04388
-1.51146 0.761972 -1.96974
-1.54022 0.915014 -0.622382
-1.47158 0.975439 0.726227
-1.34143 0.979306 2.07324
-1.35988 1.02485 3.14424
-1.39766 1.07552 4.215
-1.50662 1.72824 -3.16897
-1.48226 1.83318 -2.09218
-1.4854 1.98547 -0.739097
-1.47722 2.08711 0.6178
-1.44535 2.12674 1.9707
-1.43094 2.15417 3.0471
-1.43237 2.19231 4.11979
-0.867273 -0.290951 -2.90684
-0.850453 -0.21154 -1.83338
-0.816922 -0.190909 -0.503393
-0.786727 -0.176535 0.822909
-0.72774 -0.0905742 2.15281
-0.714088 -0.0452929 3.22554
-0.720096 -0.00679837 4.30084
-0.872621 0.0309681 -2.95127
-0.693857 0.315543 3.19678
-0.710092 0.35376 4.27142
-0.809019 0.642886 -3.04606
-0.672549 1.02169 3.14459
-0.702351 1.07346 4.21507
-0.744477 1.71174 -3.17113
-0.718291 1.81821 -2.09456
-0.729987 1.9826 -0.740532
-0.745142 2.09078 0.617972
-0.735444 2.12658 1.97193
-0.725683 2.1518 3.04833
-0.724428 2.18994 4.12069
0.758748 -0.290884 -2.90684
0.823146 -0.211479 -1.83338
0.803597 -0.190671 -0.503393
0.759782 -0.175749 0.822909
0.6871 -0.0902718 2.15281
0.681268 -0.0450483 3.22554
0.687795 -0.00652583 4.30084
0.737778 0.0310094 -2.95127
0.666707 0.315706 3.19678
0.679801 0.354001 4.27142
0.691502 0.642921 -3.04606
0.64362 1.02182 3.14459
0.670596 1.07368 4.21507
0.766542 1.71183 -3.17113
0.786404 1.81831 -2.09456
0.775669 1.98273 -0.740532
0.725477 2.09097 0.617972
0.681408 2.12679 1.97193
0.677138 2.15201 3.04833
0.686293 2.19018 4.12069
1.56478 -0.291186 -2.90798
1.62299 -0.214377 -1.83504
1.59865 -0.181631 -0.50317
1.52583 -0.166078 0.825143
1.42824 -0.100727 2.15671
1.40192 -0.0514437 3.22819
1.40544 -0.00830315 4.30237
1.54831 0.0369747 -2.95163
1.62768 0.132153 -1.87676
1.60321 0.185809 -0.541447
1.52617 0.203416 0.792271
1.40511 0.261212 2.12724
1.37999 0.309091 3.19896
1.39195 0.35278 4.27257
1.49054 0.668618 -3.04388
1.51724 0.762058 -1.96974
1.55492 0.915232 -0.622382
1.48498 0.976012 0.726227
1.354 0.979768 2.07324
1.35037 1.02525 3.14424
1.37747 1.07599 4.215
1.52802 1.72846 -3.16897
1.54236 1.8334 -2.09218
1.53089 1.98577 -0.739097
1.47266 2.0875 0.617799
1.41148 2.12717 1.9707
1.39653 2.15463 3.0471
1.40344 2.19279 4.11979
-0.810928 0.42 -1.96499
-3.15011e-05 0.136647 -1.87335
-0.823444 0.16741 -1.20884
-0.703412 0.626813 2.1619
0 0.281432 2.12555
-0.748008 0.218163 1.45582
-0.000304997 0.782621 -2.05262
-0.762037 0.843596 -1.3
0 1.00459 2.11097
-0.703924 1.01114 1.4
0.810461 0.42 -1.96486
0.827211 0.163591 -1.20884
0.703827 0.626813 2.16232
0.747262 0.218899 1.45582
0.761464 0.843532 -1.3
0.703886 1.0112 1.4
-0.798676 0.179836 0.12349
-0.878141 0.537286 -0.583837
-8.71153e-05 0.165808 -0.542673
-0.878596 0.58755 0.757327
-0.000572684 0.176364 0.789653
-0.757838 0.952224 0.05
-0.00017434 1.15921 -0.625
-2.95419e-05 1.38734 0.725
0.795163 0.183318 0.12349
0.877551 0.537382 -0.583837
0.878622 0.588184 0.757327
0.757538 0.952229 0.05
-0.881823 0.478643 -1.25442
-0.885262 0.562418 0.086745
-0.895874 0.607181 1.42791
-5.93082e-05 0.149537 -1.20884
-0.0003299 0.170559 0.12349
-0.000286342 0.220391 1.45582
-0.000168249 0.42 -2.28641
0 0.626813 2.29802
-0.000239668 0.951995 -1.3
-0.000101941 1.38804 0.05
-1.47709e-05 1.22008 1.4
0.881848 0.478691 -1.25442
0.884947 0.562783 0.086745
0.895871 0.607498 1.42791
-1.24754 0.13352 -1.87588
-0.856239 -0.0382702 -1.85419
-0.867323 0.0829841 -2.41314
-1.03338 0.272778 2.12461
-0.70137 0.0972129 2.13739
-0.684429 0.300272 2.65938
-1.09566 0.733486 -1.97237
-0.744436 0.673943 -2.51053
-0.699073 1.2616 -2.03478
-0.973213 0.973966 2.07412
-0.638775 0.995158 2.60979
-0.670222 1.5476 2.02347
0.842554 -0.0382393 -1.85419
0.79987 0.0830047 -2.41314
1.24482 0.133576 -1.87588
0.68105 0.0973641 2.13739
0.670853 0.300353 2.65938
1.04005 0.273106 2.12461
0.685373 0.673961 -2.51053
0.732824 1.26165 -2.03478
1.09824 0.733529 -1.97237
0.62431 0.995224 2.60979
0.643204 1.54771 2.02347
0.9795 0.974197 2.07412
-1.20582 0.176536 -0.54206
-0.816985 -0.0116372 -0.523033
-1.14909 0.19533 0.790962
-0.785311 0.00595579 0.806281
-1.15459 0.910976 -0.623691
-0.749477 1.44477 -0.682766
-1.10372 0.981046 0.725613
-0.740498 1.53872 0.671486
0.810236 -0.0114524 -0.523033
1.21004 0.176788 -0.54206
0.771266 0.00691087 0.806281
1.15446 0.196493 0.790962
0.772143 1.44487 -0.682766
1.16177 0.911114 -0.623691
0.730636 1.53888 0.671486
1.11039 0.981405 0.725613
-1.64815 -0.252962 -2.37151
-1.64874 -0.127255 -2.9298
-1.26034 -0.291155 -2.90741
-1.62131 -0.198345 -1.1691
-1.63797 -0.041262 -1.8559
-1.24667 -0.213053 -1.83421
-1.56536 -0.174678 0.160987
-1.59716 0.00165663 -0.522308
-1.20833 -0.186517 -0.503281
-1.48534 -0.134367 1.49093
-1.52263 0.017491 0.808707
-1.15886 -0.171883 0.824026
-1.42949 -0.0767666 2.69245
-1.41573 0.079527 2.14198
-1.08372 -0.096038 2.15476
-1.42367 -0.0304556 3.76528
-1.40365 0.128285 3.21357
-1.06669 -0.0486621 3.22686
-1.41959 0.171687 4.28747
-1.07407 -0.00783912 4.30161
-1.63856 0.0844443 -2.41419
-1.60533 0.352677 -2.99775
-1.25834 0.0339079 -2.95145
-1.61382 0.15874 -1.2091
-1.57226 0.447006 -1.92325
-1.55443 0.193826 0.125412
-1.5674 0.550226 -0.581915
-1.45302 0.231385 1.45976
-1.49293 0.588826 0.759249
-1.38988 0.284578 2.6631
-1.36659 0.619931 2.10024
-1.39957 0.330427 3.73577
-1.37394 0.666724 3.1716
-1.04093 0.312072 3.19787
-1.40441 0.713886 4.24379
-1.06062 0.353006 4.272
-1.53903 0.715239 -2.50681
-1.53661 1.19838 -3.10642
-1.18781 0.655696 -3.04497
-1.52584 0.838493 -1.29606
-1.49686 1.29757 -2.03096
-1.5059 0.945226 0.0519222
-1.51281 1.45024 -0.680739
-1.4065 0.977372 1.39974
-1.4744 1.53127 0.672013
-1.35065 1.00208 2.60874
-1.39339 1.55302 2.02197
-1.37877 1.05018 3.67962
-1.39541 1.58951 3.09567
-1.01621 1.02327 3.14441
-1.41502 1.63391 4.1674
-1.05001 1.07449 4.21504
-1.49444 1.78071 -2.63058
-1.12555 1.71999 -3.17005
-1.48383 1.90933 -1.41564
-1.10028 1.82569 -2.09337
-1.48131 2.03629 -0.0606485
-1.10769 1.98403 -0.739814
-1.46128 2.10692 1.29425
-1.11118 2.08894 0.617886
-1.43815 2.14046 2.5089
-1.0904 2.12666 1.97132
-1.43166 2.17324 3.58345
-1.07831 2.15299 3.04772
-1.0784 2.19113 4.12024
-0.858863 -0.251246 -2.37011
-0.869947 -0.129991 -2.92906
-0.0542629 -0.290917 -2.90684
-0.833687 -0.201225 -1.16838
-0.0136536 -0.21151 -1.83338
-0.801824 -0.183722 0.159758
-0.00666247 -0.19079 -0.503393
-0.757234 -0.133555 1.48786
-0.0134724 -0.176142 0.822909
-0.720914 -0.0679335 2.68917
-0.0203204 -0.090423 2.15281
-0.717092 -0.0260456 3.76319
-0.703972 0.135125 3.21116
-0.01641 -0.0451706 3.22554
-0.715094 0.173481 4.28613
-0.0161502 -0.0066621 4.30084
-0.84082 0.336927 -2.99867
-0.0674214 0.0309888 -2.95127
-0.701974 0.334651 3.7341
-0.683203 0.668617 3.17068
-0.0135753 0.315625 3.19678
-0.706221 0.713611 4.24325
-0.0151454 0.35388 4.27142
-0.776748 1.17731 -3.1086
-0.0587585 0.642903 -3.04606
-0.68745 1.04758 3.67983
-0.699116 1.58674 3.09646
-0.0144646 1.02176 3.14459
-0.71339 1.6317 4.16788
-0.0158772 1.07357 4.21507
-0.731384 1.76497 -2.63285
0.0110329 1.71179 -3.17113
-0.724139 1.9004 -1.41755
0.0340564 1.81826 -2.09456
-0.737565 2.03669 -0.06128
0.022841 1.98267 -0.740532
-0.740293 2.10868 1.29495
-0.00983239 2.09087 0.617972
-0.730564 2.13919 2.51013
-0.0270178 2.12668 1.97193
-0.725056 2.17087 3.58451
-0.0242725 2.15191 3.04833
-0.0190678 2.19006 4.12069
0.790947 -0.251181 -2.37011
0.748263 -0.129937 -2.92906
1.16176 -0.291035 -2.90741
0.813371 -0.201075 -1.16838
1.22307 -0.212928 -1.83421
0.781689 -0.18321 0.159758
1.20113 -0.186151 -0.503281
0.723441 -0.133011 1.48786
1.14281 -0.170914 0.824026
0.684184 -0.0676601 2.68917
1.05767 -0.0954996 2.15476
0.684532 -0.0257871 3.76319
0.673987 0.135329 3.21116
1.0416 -0.048246 3.22686
0.683798 0.173737 4.28613
1.04662 -0.00741449 4.30161
0.71464 0.336965 -2.99867
1.14305 0.033992 -2.95145
0.673254 0.334854 3.7341
0.655163 0.668765 3.17068
1.02335 0.312399 3.19787
0.675199 0.713838 4.24325
1.03588 0.353391 4.272
0.729022 1.17738 -3.1086
1.09102 0.655769 -3.04497
0.657108 1.04775 3.67983
0.660379 1.58692 3.09646
0.996995 1.02354 3.14441
0.678445 1.63193 4.16788
1.02403 1.07483 4.21504
0.776473 1.76507 -2.63285
1.14728 1.72015 -3.17005
0.781037 1.90052 -1.41755
1.16438 1.82585 -2.09337
0.750573 2.03685 -0.0612801
1.15328 1.98425 -0.739814
0.703443 2.10888 1.29495
1.09907 2.08924 0.617886
0.679273 2.1394 2.51013
1.04644 2.12698 1.97132
0.681716 2.1711 3.58451
1.03683 2.15332 3.04772
1.04487 2.19148 4.12024
1.59388 -0.252781 -2.37151
1.55655 -0.127106 -2.9298
1.61082 -0.198004 -1.1691
1.62534 -0.0411122 -1.8559
1.56224 -0.173855 0.160987
1.60093 0.00208875 -0.522308
1.47704 -0.133403 1.49093
1.526 0.0186688 0.808707
1.41508 -0.0760856 2.69245
1.41668 0.0802422 2.14198
1.40368 -0.0298734 3.76528
1.39096 0.128823 3.21357
1.39869 0.172239 4.28747
1.588 0.0845637 -2.41419
1.51943 0.352796 -2.99775
1.61545 0.158981 -1.2091
1.57246 0.447105 -1.92325
1.56469 0.194612 0.125412
1.57907 0.55052 -0.581915
1.46564 0.232314 1.45976
1.50558 0.589714 0.759249
1.39255 0.285151 2.6631
1.37955 0.62049 2.10024
1.38597 0.330936 3.73577
1.36518 0.667172 3.1716
1.38471 0.714386 4.24379
1.50389 0.715338 -2.50681
1.50928 1.19854 -3.10642
1.53608 0.838645 -1.29606
1.5298 1.29773 -2.03096
1.51995 0.945622 0.0519221
[...]
POINT_DATA 29498
VECTORS point_vectors float
-3.96559 -4.46688 17.8359
0.203111 0.288907 0.829205
-1.64527 1.82105 3.21857
-0.120123 -0.119314 0.136686
3.93614 -4.50113 17.7703
-0.201013 0.290886 0.82194
1.63575 1.81791 3.20611
0.119597 -0.117805 0.133349
0.0212108 -0.0303992 1.22659
0.00536707 -0.000874123 0.0395116
0 0 0
0 0 0
-0.0153296 -0.025406 1.28763
-8.76109e-05 -1.44382e-05 0.000665273
0 0 0
0 0 0
-0.648385 -0.345853 20.0115
-0.984815 -0.64162 20.7724
-0.296626 -0.376727 21.3623
0.210116 -0.0926659 21.5433
0.768761 0.218531 21.4199
1.01567 0.254674 21.0764
0.905726 0.119241 20.7537
-0.76505 -0.252552 19.9026
-1.4004 -0.571444 20.7205
-0.499701 -0.490526 21.4131
0.169662 -0.272169 21.6487
1.05012 -0.0295909 21.4798
1.28302 -0.029721 21.1959
1.06681 -0.00982755 21.0218
-0.820556 0.0350539 19.7075
-2.02329 0.139882 20.4379
-1.20574 -0.303836 21.4131
-0.277891 -0.4262 21.753
0.588049 -0.759109 21.548
0.936373 -0.806969 21.2656
0.807497 -0.635024 20.5346
-0.463921 0.325407 19.9184
-0.846662 0.613219 20.2727
-0.868674 0.516009 21.0183
-0.379137 0.0677422 21.4313
0.0330295 -0.266149 21.4008
0.215391 -0.427652 21.1792
0.230289 -0.509483 20.775
-0.800021 -0.959636 19.422
-1.32383 -2.32995 21.613
-0.0754454 -0.278921 21.5881
0.237928 0.284782 20.9149
0.56429 1.21779 19.322
0.999342 1.46096 18.4778
0.949167 1.02077 18.5419
-1.06854 -0.797748 18.9444
1.74679 1.43965 10.5923
1.97155 1.07807 13.4989
-1.08503 0.16508 18.6475
0.487142 -0.779288 7.01792
1.17736 -1.03129 12.4021
-0.388808 0.617056 19.5883
-0.796006 1.42422 19.996
-1.01531 1.49974 20.9999
-0.415294 0.385525 21.81
-0.0615816 -0.284211 21.44
0.0711653 -0.518376 21.173
0.0661679 -0.402992 21.5048
0.780159 -1.02861 19.3491
1.30136 -2.38765 21.6606
0.0776501 -0.271347 21.505
-0.214554 0.291452 20.8178
-0.494484 1.21634 19.2042
-0.90793 1.45247 18.2533
-0.911693 1.10003 18.3648
1.01975 -0.878182 18.763
-1.6638 1.38771 10.0038
-2.01306 1.18084 12.7666
1.0065 0.178714 18.4065
-0.412564 -0.725594 5.95429
-1.14653 -1.00777 11.4366
0.396358 0.607113 19.6015
0.83224 1.35681 20.0211
1.03145 1.41097 21.0128
0.405873 0.404535 21.8153
0.0723416 -0.267212 21.4539
-0.0574635 -0.500887 21.1601
-0.0746469 -0.407807 21.5849
0.689361 -0.402382 19.962
1.00833 -0.657679 20.7817
0.307592 -0.38409 21.3551
-0.204333 -0.0955474 21.5404
-0.768317 0.225639 21.4295
-1.03028 0.260474 21.0585
-0.905152 0.142433 20.8001
0.852918 -0.297847 19.8242
1.40624 -0.583788 20.732
0.497072 -0.488842 21.4101
-0.162332 -0.273204 21.6351
-1.03011 -0.0423394 21.4814
-1.28776 -0.0223464 21.1885
-1.07014 0.00856677 21.0583
0.872583 0.0585447 19.6346
2.00378 0.135636 20.4433
1.18561 -0.294736 21.4097
0.274017 -0.417277 21.7441
-0.581573 -0.740309 21.5122
-0.943889 -0.816069 21.2626
-0.832728 -0.655791 20.4527
0.461419 0.321201 19.9279
0.825715 0.570147 20.3
0.835041 0.46865 21.0071
0.379547 0.0680022 21.4389
-0.0204206 -0.277804 21.3926
-0.21412 -0.422981 21.1516
-0.187742 -0.527662 20.839
-0.32245 -0.0552186 0.495813
0.000573331 -0.0582613 0.619433
0.0311202 -0.000159915 0.822835
0.0328454 -0.0613907 0.13876
-0.000127007 0.00925769 0.0315354
0.00646788 0.0255683 0.493973
-4.88878e-05 0.0582099 0.153554
-0.18003 -0.0754707 0.500408
-0.000427979 0.0120555 -0.045867
0.00452917 0.00194711 0.0406333
0.316715 -0.0568911 0.489022
-0.0321315 0.00127498 1.00911
-0.033641 -0.0645344 0.141766
-0.00657461 0.0238056 0.460639
0.183399 -0.0776527 0.508339
-0.0033714 0.00138846 0.0302558
0.000266405 -0.0100633 0.489025
-0.00013569 -0.00021317 0.0113452
0 0 0
0.000163456 0.000902118 0.00609216
0.00117435 0.0129593 0.10459
0 0 0
-7.52055e-05 0.0299373 0.0672918
2.74622e-05 -0.0038981 0.0520733
-0.000676975 0.0220156 0.330617
0.000134516 -0.000197119 0.011399
-0.000219375 0.00121513 0.00819009
0 0 0
0 0 0
9.46973e-05 0.00249519 0.0231593
0.0092728 0.0130095 0.128974
0 0 0
0 0 0
0 0 0
0 0 0
0.0188572 -0.100772 -0.00116315
-0.000198614 0.00135865 0.0138113
-0.000165219 0.0177417 0.153461
0.000209567 0.00190003 -0.00475993
0 0 0
-8.10507e-05 0.002492 0.0232954
-0.0091601 0.0128056 0.126944
-2.45652 -1.36335 21.0606
-2.04695 -3.3865 22.1888
-2.69928 -2.25637 18.4598
1.49798 0.70131 16.8393
0.372589 1.32581 12.7018
1.10254 0.954757 7.42708
-4.33394 0.984491 20.1455
-3.12541 1.14303 16.8353
-1.96858 2.78065 19.647
0.805888 -0.634675 15.6324
-0.606736 -0.731354 3.37276
-0.0725288 -0.560103 19.72
2.00212 -3.51294 22.312
2.79472 -2.63023 18.1223
2.47754 -1.38127 21.0588
-0.304269 1.28337 12.3349
-1.04466 0.899426 7.14788
-1.49159 0.674061 17.0607
3.13308 1.27986 16.3991
2.00379 2.64999 19.674
4.31488 0.975966 20.1419
0.65105 -0.685789 3.02588
0.0565265 -0.536157 19.3265
-0.80811 -0.640403 15.9058
-0.333091 -0.85985 21.579
0.266676 -0.0257236 17.3376
0.378965 -0.17964 19.7148
0.352306 0.394745 15.8076
-2.16587 -0.807265 21.5457
-2.76537 2.21646 20.952
-0.271132 -0.503857 19.9119
-0.828307 0.175554 21.931
-0.249181 -0.0340572 17.1793
0.342724 -0.857786 21.5854
-0.329294 0.397047 15.5275
-0.375254 -0.193369 19.8073
2.74444 2.09395 20.9896
2.12715 -0.795365 21.5542
0.808134 0.186886 21.8169
0.295302 -0.521117 20.0749
-0.925559 -0.550497 20.2786
-0.715092 -0.313093 19.9481
-0.782441 -0.566737 19.7914
-0.616247 -0.512785 21.2236
-1.21511 -0.620978 20.7561
-1.37362 -1.25302 21.0015
-0.0592107 -0.248056 21.4938
-0.404891 -0.45177 21.3891
-0.16125 -0.478777 21.5631
0.476531 0.0625429 21.5484
0.183514 -0.194936 21.5668
0.324018 -0.000213509 21.6606
0.911735 0.285155 21.3238
0.926382 0.122325 21.5167
0.96198 0.721398 21.1155
1.04065 0.227394 20.8511
1.17823 0.105607 21.282
1.3517 0.890686 20.815
1.03602 0.0373772 20.8808
1.02172 0.563277 21.3253
-1.19132 -0.447448 20.1243
-0.823051 -0.117544 19.7717
-0.990399 -0.450235 19.5412
-0.927367 -0.545527 21.2744
-1.78874 -0.287236 20.6014
-0.177765 -0.398625 21.5587
-0.832683 -0.511834 21.4328
0.569042 -0.153936 21.6954
-0.0134319 -0.427689 21.7489
1.23368 0.00284246 21.2821
1.03121 -0.48018 21.3581
1.49334 -0.0717253 20.6573
1.27427 -0.4957 21.1828
1.8496 0.587294 18.1279
1.12903 -0.540429 20.4811
1.53126 0.233756 19.0791
-1.46108 0.106901 19.8192
-0.675912 0.262139 19.7828
-1.03546 0.0959124 19.2766
-1.60028 -0.125074 21.1571
-1.38361 0.627484 20.2707
-0.769333 -0.38603 21.6854
-1.25068 0.273018 21.2044
0.229695 -0.52774 21.7455
-0.451658 -0.127124 21.6454
0.747266 -0.800308 21.3468
0.138058 -0.489806 21.4341
0.957507 -0.710882 20.8616
0.404302 -0.627216 21.0601
1.1489 -0.957661 18.9958
0.297545 -0.589268 20.9796
1.32459 -1.23203 19.1911
-0.663928 0.476514 20.0339
-0.484273 0.469204 19.742
-0.915324 0.614035 20.6676
-0.905948 1.00278 20.1417
-0.682497 0.311438 21.3304
-1.01446 0.886925 21.0561
-0.142641 -0.128968 21.4118
-0.450217 0.221037 21.6002
0.114712 -0.37062 21.1991
-0.0201025 -0.315357 21.4157
0.185166 -0.361481 21.1596
0.141783 -0.48289 20.9644
0.0287266 -0.405469 21.3478
-1.4377 -2.00287 19.7792
-0.921277 -0.875999 19.1992
-0.0799803 -1.52568 18.9204
-0.422557 -0.753874 22.0388
-0.0145307 -2.75009 22.31
0.0776918 -0.0421509 21.1037
-0.00195576 -0.217885 20.6003
0.404121 0.696635 20.0895
0.00163164 0.273425 19.6832
0.798129 1.42279 19.3948
0.00133736 0.945728 17.3494
0.976489 1.47092 19.2021
1.36718 1.71402 15.8557
0.0131016 1.4421 17.3148
1.33467 1.18646 16.43
0.0145942 1.96224 17.2236
-1.16358 -0.348438 18.639
-0.133186 -1.34165 17.9416
1.99364 1.15978 11.7424
1.86609 -0.231564 6.74369
0.00152767 0.901048 3.79181
2.11277 0.376272 12.5095
0.0743519 1.81007 9.47931
-0.722741 0.630339 19.1284
-0.119087 0.305662 17.62
0.864377 -0.853666 9.63485
0.0854556 -0.989296 20.0748
0.0650814 1.55265 -6.79818
0.122558 -1.07224 19.5397
0.0226384 0.685567 -3.7796
-0.612129 1.06208 19.6463
0.00564357 0.770208 19.3981
-0.927696 1.49361 20.5132
0.0410844 1.92257 19.8351
-0.813455 1.07586 21.6342
0.0559368 2.22474 20.881
-0.171847 -0.0827941 21.6628
-0.00564761 0.696999 21.9756
-0.0162244 -0.393552 21.3544
-0.00470094 -0.178829 21.5613
0.0979682 -0.618031 20.9468
-0.00428533 -0.454487 21.1585
0.000216677 -0.461655 21.5744
1.40673 -2.19373 19.7511
0.872797 -1.00235 19.0483
0.782247 -0.635973 19.7162
0.41977 -0.745696 22.0392
1.38556 -1.32962 21.0271
-0.0642703 -0.0342525 21.0328
0.156661 -0.479266 21.561
-0.361062 0.683767 19.735
-0.329289 0.0122634 21.6591
-0.716301 1.4325 19.0514
-0.949932 0.767043 21.0516
-0.939949 1.53284 19.0082
-1.29175 1.69799 15.6282
-1.3403 0.914588 20.8337
-1.28904 1.2595 16.2512
-1.05046 0.607655 21.3459
1.11802 -0.377863 18.3196
1.00286 -0.536355 19.4039
-1.98785 1.21316 11.295
-1.76198 -0.209257 5.97797
-1.86318 0.644177 17.8481
-2.08301 0.390658 11.5867
-1.5587 0.277074 18.7592
0.695403 0.662782 19.0633
1.04151 0.0992458 19.1493
-0.799934 -0.823729 8.56929
-0.0422653 -0.962045 19.7172
-1.17002 -0.955048 18.5096
-0.1226 -1.09738 19.3315
-1.32407 -1.25719 19.1113
0.639812 1.01465 19.6775
0.488534 0.460525 19.7534
0.964368 1.42582 20.5229
0.901384 0.921743 20.1729
0.802227 1.06426 21.6222
1.00843 0.835905 21.0527
0.169798 -0.0668166 21.6669
0.45306 0.226001 21.6024
0.02729 -0.379748 21.3548
0.0231713 -0.310153 21.4177
-0.081441 -0.622066 20.9415
-0.145975 -0.480102 20.9943
-0.0384294 -0.422651 21.3488
0.964113 -0.589525 20.2751
0.7546 -0.361184 19.8939
0.626987 -0.518284 21.2282
1.23093 -0.639236 20.7648
0.0658916 -0.256395 21.4947
0.404912 -0.460404 21.3831
-0.479737 0.0585961 21.5563
-0.181629 -0.200206 21.5517
-0.919457 0.292549 21.3233
-0.922504 0.115463 21.5158
-1.06885 0.231407 20.8158
-1.18387 0.114532 21.2612
-1.0409 0.0613644 20.9291
1.27484 -0.482666 20.1075
0.903807 -0.148922 19.6813
0.924532 -0.548402 21.28
1.79544 -0.289114 20.6104
0.175834 -0.397201 21.5569
0.819373 -0.507449 21.4342
-0.556357 -0.159327 21.6907
0.0192997 -0.417844 21.7425
-1.22972 -0.00275835 21.2802
-0.998314 -0.474557 21.3751
-1.53595 -0.0515741 20.61
-1.28326 -0.504074 21.1793
-1.16693 -0.571723 20.4086
1.53467 0.125098 19.7732
0.678027 0.266959 19.7742
1.57552 -0.123866 21.1572
1.34373 0.575936 20.286
0.757376 -0.370696 21.6703
1.20627 0.251045 21.1937
-0.219889 -0.518153 21.7364
0.450136 -0.125946 21.6436
-0.74216 -0.795654 21.3485
-0.128266 -0.491831 21.446
-0.955063 -0.725126 20.8028
-0.404904 -0.649175 21.0721
-0.328977 -0.60886 21.0586
0.658413 0.451734 20.054
0.883267 0.561404 20.6759
0.674356 0.294575 21.3282
0.138953 -0.130804 21.4226
-0.098212 -0.357851 21.2056
-0.170142 -0.386018 21.1607
-1.08615 -0.504804 20.1947
-2.04861 -2.36123 19.2177
-1.25852 -1.03417 20.1001
-1.9089 -0.918623 19.6978
-0.87089 -0.517286 19.6803
-1.80917 -1.35814 21.0576
-0.782681 -0.551847 21.2427
-0.160288 -0.335868 19.5849
-0.58012 -0.7539 21.5232
-0.950667 -1.0336 21.8671
-0.172519 -0.635111 21.59
-0.124534 -0.338955 21.5163
0.272142 0.0908073 16.3001
0.0768907 -0.262486 21.6202
0.0354805 -0.531326 20.6891
0.425976 -0.0957577 21.249
0.523561 -0.039629 21.6093
0.40236 0.688397 13.9968
0.629688 0.32417 21.5695
0.775947 0.218829 18.3147
1.28224 0.779317 19.7652
1.13718 0.197789 21.2669
0.732607 1.50334 14.0414
1.18147 0.825427 20.8665
1.75501 0.607712 17.8169
1.5002 0.804552 19.6437
1.36255 0.115774 20.5843
1.46595 1.33378 15.6026
1.29397 0.872352 20.9806
1.88787 0.364495 18.9281
1.19672 0.49409 19.8525
-1.42056 -0.206547 19.9354
-3.57893 -0.900526 16.893
-2.30824 0.385325 18.9656
-1.09069 -0.217859 19.3221
-3.95688 -0.69247 20.7833
-1.31321 -0.438256 21.2746
-2.62202 -0.311337 21.6864
-0.889819 -1.11318 21.1357
-0.431524 -0.490163 21.6408
-1.23287 -0.864673 20.8746
0.217993 -0.262332 18.4657
0.478192 -0.412331 21.7099
0.534214 -0.267313 18.1194
1.41284 -0.125798 13.9794
1.21782 -0.519231 21.2171
0.541912 -0.635184 3.33076
0.838607 -0.886614 17.5722
1.91679 -0.374463 16.9001
1.17081 -0.507194 21.2053
2.16338 0.303782 9.55113
1.26254 -1.21493 19.4681
1.68412 -0.496001 18.4778
-1.0576 0.475555 19.8902
-1.36686 1.56138 18.8443
-0.713259 0.782185 19.8548
-0.757136 0.431397 19.471
-1.8657 1.41975 20.0084
-1.392 0.466748 20.821
-2.07182 2.11767 20.5767
-1.01102 1.00024 20.6098
-1.93537 0.751618 21.2586
-0.923572 0.0701114 21.554
-2.34948 1.27971 22.4514
-0.808517 0.605857 21.4961
-0.651742 -0.0626746 21.9653
-0.0777957 -0.329088 21.5949
-0.152788 -0.427994 20.8143
-0.182522 -0.114029 21.5696
5.95666e-06 -0.621234 21.5811
0.275311 -0.574673 21.3063
-0.0604208 -0.684941 20.1207
0.0588379 -0.411836 21.2373
0.246373 -0.802763 21.6123
0.495705 -0.561777 20.9068
0.297446 -1.0409 19.3089
0.20006 -0.583514 21.3128
0.173639 -0.760859 21.3418
2.02041 -2.64524 19.0826
-0.0733463 -3.55197 19.6354
-0.195243 -6.89101 15.9135
-0.0955291 -1.46023 18.4493
-0.0043754 -2.92475 22.2773
0.169767 -0.317054 19.4418
-0.00384974 -0.719602 21.9791
-0.000642221 0.0360751 12.9076
-0.257371 0.115424 16.0451
0.00110626 -0.0497445 19.9955
0.000984461 0.331805 12.0194
-0.385158 0.670617 13.6604
0.00330706 0.592382 18.3735
-0.00656722 0.744652 9.1375
-0.639773 1.50971 13.5612
0.00468858 1.20497 17.416
-0.0166005 -0.138331 1.96958
-0.00868723 1.58813 11.1483
-1.43603 1.38342 15.3909
0.0115799 1.99431 17.7297
0.0391616 0.890532 4.7328
0.0691179 1.92199 14.5233
3.76901 -1.0186 16.2948
-0.214791 2.88888 13.3339
-0.146436 -0.536707 17.3529
-0.44024 -0.634553 2.90528
-0.00373075 1.14505 -4.97629
0.100329 0.364353 -3.0796
-2.07156 0.38694 8.80586
-0.0136477 1.2658 -6.1216
0.0868224 1.34202 0.875805
1.35789 1.58162 18.8327
0.0200813 1.38669 19.4339
-0.0199851 0.909507 18.6458
0.0541916 4.0047 19.3132
2.08661 2.03707 20.5951
0.0503262 2.03289 20.3668
0.05997 4.54221 20.226
2.3291 1.24253 22.4365
-0.000684296 1.74463 21.8261
-0.00864628 0.687268 20.9346
0.127706 -0.418778 20.5555
-0.00697985 0.0466698 21.7426
-0.0128527 -0.166785 13.6482
0.0680202 -0.651994 19.7377
-0.0011536 -0.286473 21.3588
-0.0111646 -0.51904 15.1681
-0.286111 -1.03419 19.069
0.00389656 -0.489653 21.5165
-0.00768318 -0.654804 14.8105
1.13677 -0.554318 20.1857
1.3115 -1.15446 20.0487
2.05326 -1.08965 19.5224
0.880017 -0.602308 19.555
1.84565 -1.41437 21.0725
0.783903 -0.561026 21.2485
0.566283 -0.763323 21.5383
0.949739 -1.03296 21.8682
0.178488 -0.639134 21.5809
0.122591 -0.345784 21.5218
-0.0837456 -0.258788 21.6184
-0.0312319 -0.538404 20.7299
-0.426134 -0.0910018 21.1654
-0.521576 -0.045373 21.6095
-0.632184 0.350181 21.5029
-0.775886 0.200821 18.4597
-1.2738 0.806367 19.5844
-1.13765 0.193473 21.2665
-1.17609 0.854065 20.8295
-1.75006 0.617975 17.6244
-1.51781 0.87365 19.3076
-1.41663 0.131133 20.52
-1.28927 0.922796 21.0131
-1.86396 0.380537 18.8784
-1.23043 0.540555 19.5291
1.5119 -0.229813 19.9157
2.40023 0.445335 18.8242
1.11003 -0.225518 19.1642
3.96688 -0.693445 20.7739
1.30946 -0.435006 21.28
2.60247 -0.30396 21.6899
0.900709 -1.10583 21.2392
0.427708 -0.485836 21.6375
1.23301 -0.853223 20.9676
-0.211273 -0.292612 18.6517
-0.464322 -0.40822 21.7097
-0.510814 -0.308245 18.3746
-1.41602 -0.102869 14.3744
-1.20347 -0.524311 21.233
-0.824292 -0.871525 17.3539
-1.94938 -0.381901 16.4448
-1.18128 -0.50066 21.2
-1.27279 -1.22882 19.2423
-1.71219 -0.45237 18.17
1.05544 0.473345 19.8974
0.716763 0.745931 19.8796
0.753658 0.451738 19.4367
1.82898 1.33629 20.0368
1.35081 0.428388 20.8246
0.999193 0.9301 20.6254
1.89093 0.696329 21.2608
0.904287 0.0632258 21.5396
0.802673 0.583808 21.4871
0.652985 -0.0592067 21.9659
0.0823513 -0.324944 21.5949
0.181679 -0.110651 21.5796
0.0074329 -0.621265 21.5826
-0.268271 -0.57889 21.3008
-0.0532737 -0.411153 21.2491
-0.226847 -0.801951 21.6608
-0.506902 -0.596193 20.9214
-0.20342 -0.60002 21.3108
-0.147828 -0.780298 21.2268
-1.57721 -1.05966 19.9239
-0.706415 -0.881611 21.6491
0.112772 -0.397024 21.4961
0.795885 0.295921 20.542
1.46866 0.860213 19.6823
1.60563 0.665944 20.1281
-2.43092 -0.425829 19.146
-1.66474 -0.979938 22.0377
-0.242251 -0.751447 19.5821
0.686824 0.159108 16.681
1.58982 -0.37911 15.3902
1.8103 -0.197222 17.3424
-1.32538 0.907715 19.4544
-1.91978 1.05009 20.7976
-1.46566 0.356224 21.8942
-0.165574 -0.399138 21.7978
0.125707 -0.714605 21.4064
0.495904 -1.00555 21.1679
-0.114753 -5.06916 18.6091
0.00224757 -0.179992 15.475
0.000388048 0.0449824 12.1196
-0.00482267 0.44459 10.2636
-0.0130308 0.763357 9.6438
0.0429117 1.55462 11.4247
-0.28363 -1.76304 11.5638
-0.00260905 0.0472607 -2.79967
0.112446 0.742301 -0.33521
-0.00850174 2.46746 18.1047
0.0513856 3.37535 20.1805
0.0124809 3.44717 22.6247
-0.00748227 -0.183862 17.1417
-0.0192194 -0.0872346 14.2431
-0.0117077 -0.847881 15.1023
1.66001 -1.18231 19.8606
0.702117 -0.890547 21.6603
-0.113813 -0.398852 21.4762
-0.792697 0.306401 20.431
-1.45193 0.901014 19.444
-1.58825 0.684857 20.0697
2.59011 -0.453297 18.9844
1.66074 -0.974547 22.0416
0.25582 -0.777454 19.7715
-0.689309 0.12216 16.9573
-1.57814 -0.376524 15.1794
-1.82847 -0.178491 16.8995
1.32487 0.91211 19.4504
1.87301 0.976691 20.8077
1.44521 0.34448 21.878
0.17039 -0.397028 21.8089
-0.115467 -0.713273 21.4178
-0.457924 -1.01949 21.3429
-0.51335 -0.167973 0.816639
-0.0408864 -0.117117 0.987083
0.00299223 0.00523749 0.837908
0.0592474 -0.0243975 0.0597008
0.000748489 0.0976377 0.454868
-0.0407227 0.113845 0.555162
-1.94764 0.317282 2.66862
-0.012002 0.0735694 0.19079
-0.126677 0.0510499 0.464926
-0.0135803 -0.042338 0.00743123
-0.0524066 0.00980621 -0.0496176
-0.018271 -0.0350798 0.166813
0.0468443 -0.121426 1.04636
0.49235 -0.162318 0.789107
-0.00488496 0.00570525 1.0213
-0.000574203 0.0973633 0.458589
-0.0592687 -0.0250352 0.0592869
0.0455054 0.12069 0.594011
0.0120979 0.0748888 0.19463
1.91424 0.316533 2.62306
0.120076 0.0538221 0.449022
0.0517497 0.010564 -0.0518317
0.0136891 -0.0421766 0.00727726
0.0182542 -0.0348651 0.165498
0.0600533 -0.0243808 1.44612
0.0070545 0.000848782 0.278716
0 0 0
0 0 0
0.0174834 0.0232479 0.651298
-0.0379655 0.0057292 1.29916
0 0 0
0.00376042 0.00609146 0.106184
-0.18725 -0.118676 0.308961
-0.00423063 -0.0011484 0.0907198
0 0 0
-0.0268875 0.0230852 0.0577976
0 0 0
0.00196134 0.00497742 0.0245785
0 0 0
0.0207417 -0.00569019 0.140479
-0.0577288 -0.0187374 1.45485
0 0 0
-0.00415682 0.0107416 0.218355
0 0 0
-0.0158334 0.0291613 0.666174
-0.00276938 0.0052473 0.0842924
0.0371197 0.00417532 1.29828
0 0 0
0.117673 -0.0964114 0.272984
0.0282362 0.0234173 0.0592826
0.00356939 -0.000947079 0.0806402
0 0 0
-2.31428e-17 2.73498e-17 1.69089e-16
-0.0207651 -0.00572513 0.139598
-0.00207965 0.00528966 0.0260932
0 0 0
-0.00371466 -0.00484709 0.0669843
-1.77804 -0.871514 1.20919
0 0 0
0 0 0
0 0 0
-8.32889e-19 5.85326e-19 2.96192e-17
0.00834866 -0.00525818 0.0563661
-0.209957 -0.0849667 0.0426783
0 0 0
-0.000543117 -0.0264379 -0.00818027
0.00184821 0.00715534 0.0649328
-0.00681517 0.0123403 0.138401
0.194523 2.36521 1.2809
-0.000398193 0.149634 0.505837
0.0098425 -0.0976876 0.450782
0 0 0
0 0 0
0 0 0
0 0 0
-0.00314004 0.00121798 -0.00409859
1.83081 -0.904277 1.25261
0.00332467 -0.00468096 0.0660914
0 0 0
0 0 0
0.216247 -0.0888256 0.0439565
-0.0077132 -0.00483835 0.0519552
0.00646442 0.0124909 0.139238
-0.00178789 0.00717901 0.0651353
0.000135596 7.6126e-05 0.000563978
-0.0182979 -0.10982 0.409549
0.00287211 0.00111637 -0.0037696
0 0 0
0 0 0
0 0 0
3.36206e-06 -0.000603033 0.00540407
-0.000347389 0.00244856 0.0329533
0 0 0
0 0 0
6.78701e-05 0.000769732 0.00642534
-0.00184443 0.00956182 0.0968653
0 0 0
1.1556e-05 0.000218505 0.00723095
0.0018481 0.00995747 0.0535081
-0.0389189 0.0544882 0.555806
0 0 0
0.00175966 0.143913 0.363914
1.04903e-05 6.89043e-05 0.00688958
-5.63941e-06 -0.00502632 0.0271407
0 0 0
1.06023e-19 2.15288e-18 2.16485e-17
-7.94565e-06 -0.000601456 0.00539397
0.000357363 0.00248002 0.0337992
-7.19934e-05 0.000811577 0.00611101
0.00185387 0.00964804 0.0970876
0.0391438 0.0543514 0.554525
-0.00172206 0.0107149 0.0553971
-0.000655697 -0.00226537 0.0269796
-0.00171454 -0.00293126 0.037067
0 0 0
0 0 0
0 0 0
3.52392e-05 0.0116644 0.0846146
0 0 0
0.00130608 0.00711277 0.0355282
-0.000570393 0.003448 0.08496
0 0 0
0 0 0
0 0 0
0 0 0
0 0 0
0.00110501 -0.00304939 0.0695521
-0.00107556 -0.0040096 0.0842866
0 0 0
0 0 0
4.12215e-05 0.00124305 0.0317061
5.49555e-05 0.0015976 0.0402511
0 0 0
0 0 0
-0.00102387 0.00290729 0.0462629
0.000961271 0.00294099 0.0474975
-1.54252 -3.30723 2.14322
1.51877 -3.25949 2.11497