# vtk DataFile Version 2.0
tet_velo
ASCII
DATASET UNSTRUCTURED_GRID
POINTS 29498 float
-0.861765 0.255 -1.835
-0.805 0.375 2.01478
-0.745 0.756518 -1.925
-0.725 1.27028 1.845
0.861765 0.255 -1.835
0.805 0.375 2.01478
0.745 0.756518 -1.925
0.725 1.27028 1.845
-0.835562 0.302281 -0.55174
-0.84138 0.317541 0.73152
-0.848562 1.038 -0.668333
-0.811159 1.17852 0.588333
0.835555 0.302288 -0.55174
0.841385 0.317537 0.73152
0.848535 1.03797 -0.668333
0.811167 1.17853 0.588333
-1.70265 -0.206554 -2.79085
-1.69319 -0.0948076 -1.77489
-1.67093 -0.0554324 -0.490946
-1.64835 -0.066335 0.798354
-1.61584 -0.0312165 2.08275
-1.60993 0.0331695 3.10092
-1.61557 0.111826 4.115
-1.69546 0.110563 -2.84541
-1.68771 0.24768 -1.83236
-1.67211 0.323577 -0.553586
-1.64276 0.34251 0.727581
-1.59307 0.392551 2.00686
-1.59647 0.457613 3.02465
-1.60963 0.533469 4.0396
-1.64713 0.70344 -2.94707
-1.61712 0.835543 -1.93292
-1.66518 1.05611 -0.672272
-1.6191 1.18229 0.586488
-1.54297 1.26846 1.84764
-1.57009 1.32799 2.86653
-1.60022 1.39178 3.88576
-1.61466 1.76309 -3.11955
-1.60469 1.91629 -2.10938
-1.62245 2.15727 -0.857357
-1.62611 2.36737 0.388933
-1.61002 2.50902 1.64123
-1.60723 2.58798 2.65198
-1.61485 2.65439 3.66831
-0.875648 -0.202889 -2.79257
-0.859731 -0.0864324 -1.7774
-0.838084 -0.0638389 -0.49061
-0.833144 -0.086312 0.801716
-0.815931 -0.0487976 2.08863
-0.814476 0.0203369 3.1049
-0.819187 0.102769 4.1173
-0.877624 0.104564 -2.84594
-0.811076 0.447564 3.02794
-0.818467 0.526175 4.04134
-0.836002 0.667913 -2.94378
-0.79017 1.32644 2.866
-0.814314 1.3894 3.88565
-0.794609 1.73705 -3.1163
-0.779779 1.89094 -2.1058
-0.801016 2.14734 -0.855198
-0.819437 2.36997 0.388674
-0.81639 2.51458 1.63938
-0.816176 2.59219 2.65013
-0.821962 2.65681 3.66697
0.802054 -0.202891 -2.79257
0.841703 -0.0864324 -1.7774
0.837435 -0.0638353 -0.49061
0.834208 -0.0863139 0.801716
0.807061 -0.0487985 2.08863
0.785754 0.0203363 3.1049
0.777297 0.102768 4.1173
0.786356 0.104562 -2.84594
0.76967 0.447563 3.02794
0.766743 0.526174 4.04134
0.760492 0.66791 -2.94378
0.74197 1.32644 2.866
0.753592 1.3894 3.88565
0.831207 1.73704 -3.1163
0.848821 1.89093 -2.1058
0.840097 2.14733 -0.855198
0.80076 2.36997 0.388674
0.769109 2.51458 1.63938
0.761779 2.59219 2.65013
0.762195 2.65681 3.66697
1.64171 -0.20656 -2.79085
1.67885 -0.0948116 -1.77489
1.67511 -0.0554315 -0.490946
1.65762 -0.0663366 0.798354
1.61938 -0.0312186 2.08275
1.59357 0.0331682 3.10092
1.58283 0.111824 4.115
1.62898 0.110556 -2.84541
1.68113 0.247673 -1.83236
1.67695 0.323576 -0.553586
1.65291 0.34251 0.727581
1.60217 0.392549 2.00686
1.57497 0.457612 3.02465
1.56964 0.533468 4.0396
1.59801 0.703431 -2.94707
1.62041 0.835529 -1.93292
1.67343 1.05609 -0.672272
1.62658 1.18229 0.586488
1.54752 1.26846 1.84764
1.54099 1.32799 2.86653
1.55137 1.39178 3.88576
1.64745 1.76307 -3.11955
1.663 1.91627 -2.10938
1.65902 2.15726 -0.857358
1.61765 2.36736 0.388932
1.57552 2.50902 1.64123
1.56231 2.58798 2.65198
1.56202 2.65438 3.66831
-0.851554 0.505759 -1.92817
0 0.241763 -1.84824
-0.855287 0.272018 -1.19337
-0.81672 0.82264 1.98161
0 0.343637 2.04614
-0.825475 0.343986 1.37315
0 0.811018 -1.9795
-0.856745 0.957223 -1.29667
0 1.32177 1.89649
-0.78927 1.24559 1.21667
0.851596 0.505759 -1.92821
0.855244 0.272061 -1.19337
0.816699 0.82264 1.98159
0.825426 0.344035 1.37315
0.856727 0.957206 -1.29667
0.789265 1.24558 1.21667
-0.838482 0.309901 0.08989
-0.8814 0.670141 -0.610037
-3.71222e-06 0.264051 -0.55174
-0.883021 0.74803 0.659927
2.05071e-06 0.267568 0.73152
-0.829864 1.10826 -0.04
-1.37873e-05 1.4634 -0.668333
3.88805e-06 1.62557 0.588333
0.838482 0.309901 0.08989
0.881399 0.670131 -0.610037
0.883021 0.748032 0.659927
0.829702 1.1081 -0.04
-0.888193 0.58795 -1.24502
-0.88151 0.709085 0.024945
-0.89376 0.785335 1.29491
-1.85611e-06 0.246019 -1.19337
-8.30754e-07 0.265742 0.08989
1.02535e-06 0.305488 1.37315
0 0.505759 -2.18345
0 0.82264 2.10917
-6.89364e-06 1.07668 -1.29667
-4.94962e-06 1.60701 -0.04
1.94402e-06 1.61781 1.21667
0.888216 0.587945 -1.24502
0.8815 0.709081 0.024945
0.893761 0.785336 1.29491
-1.27474 0.25134 -1.83368
-0.860748 0.0842838 -1.8062
-0.869694 0.179782 -2.34047
-1.19903 0.383775 2.01082
-0.810465 0.163101 2.0517
-0.808038 0.411282 2.52136
-1.18106 0.796031 -1.92896
-0.790501 0.712215 -2.43439
-0.762389 1.32373 -2.0154
-1.13398 1.26937 1.84632
-0.757585 1.29836 2.3555
-0.770695 1.89243 1.74219
0.851734 0.0842838 -1.8062
0.82406 0.179781 -2.34047
1.27145 0.251336 -1.83368
0.80603 0.163101 2.0517
0.787335 0.411282 2.52136
1.20358 0.383775 2.01082
0.752746 0.712214 -2.43439
0.79691 1.32372 -2.0154
1.1827 0.796023 -1.92896
0.733485 1.29836 2.3555
0.747055 1.89243 1.74219
1.13626 1.26937 1.84632
-1.25383 0.312929 -0.552663
-0.836823 0.119221 -0.521175
-1.24207 0.330026 0.729551
-0.837262 0.115615 0.766618
-1.25687 1.04706 -0.670303
-0.824789 1.59267 -0.761766
-1.21513 1.1804 0.587411
-0.815298 1.77424 0.488504
0.836495 0.119227 -0.521175
1.25625 0.312932 -0.552663
0.837796 0.115612 0.766618
1.24715 0.330023 0.729551
0.844316 1.59265 -0.761766
1.26098 1.04703 -0.670303
0.805963 1.77425 0.488504
1.21887 1.18041 0.587411
-1.69792 -0.150681 -2.28287
-1.69905 -0.0479957 -2.81813
-1.28915 -0.204721 -2.79171
-1.68206 -0.07512 -1.13292
-1.69045 0.0764364 -1.80363
-1.27646 -0.09062 -1.77614
-1.65964 -0.0608837 0.153704
-1.67152 0.134072 -0.522266
-1.25451 -0.0596356 -0.490778
-1.63209 -0.0487757 1.44055
-1.64555 0.138088 0.762968
-1.24074 -0.0763235 0.800035
-1.61289 0.000976508 2.59183
-1.60445 0.180667 2.04481
-1.21589 -0.0400071 2.08569
-1.61275 0.0724975 3.60796
-1.6032 0.245391 3.06279
-1.2122 0.0267532 3.10291
-1.6126 0.322647 4.0773
-1.21738 0.107297 4.11615
-1.69158 0.179121 -2.33888
-1.67129 0.407001 -2.89624
-1.28654 0.107563 -2.84568
-1.67991 0.285629 -1.19297
-1.65241 0.541612 -1.88264
-1.65743 0.333044 0.0869977
-1.66864 0.689844 -0.612929
-1.61791 0.367531 1.36722
-1.63093 0.762399 0.657034
-1.59477 0.425082 2.51576
-1.56802 0.830504 1.92725
-1.60305 0.495541 3.53213
-1.58328 0.892803 2.94559
-1.20377 0.452589 3.0263
-1.60492 0.962624 3.96268
-1.21405 0.529822 4.04047
-1.63212 0.769492 -2.43999
-1.6309 1.23326 -3.03331
-1.24157 0.685676 -2.94542
-1.64115 0.945827 -1.30259
-1.6109 1.37592 -2.02115
-1.64214 1.1192 -0.0428922
-1.64381 1.60669 -0.764815
-1.58103 1.22537 1.21706
-1.6226 1.77483 0.48771
-1.55653 1.29823 2.35709
-1.5765 1.88874 1.74444
-1.58515 1.35989 3.37615
-1.58866 1.95799 2.75926
-1.18013 1.32722 2.86627
-1.60753 2.02308 3.77704
-1.20726 1.39059 3.88571
-1.60968 1.83969 -2.61446
-1.20464 1.75007 -3.11792
-1.61357 2.03678 -1.48337
-1.19223 1.90361 -2.10759
-1.62428 2.26232 -0.234212
-1.21173 2.15231 -0.856278
-1.61806 2.43819 1.01508
-1.22277 2.36867 0.388803
-1.60863 2.5485 2.14661
-1.21321 2.5118 1.64031
-1.61104 2.62118 3.16015
-1.2117 2.59009 2.65106
-1.21841 2.6556 3.66764
-0.867689 -0.144661 -2.28498
-0.876636 -0.0491623 -2.81925
-0.0367966 -0.20289 -2.79257
-0.848907 -0.0751357 -1.134
-0.00901358 -0.0864324 -1.7774
-0.835614 -0.0750755 0.155553
-0.000324643 -0.0638371 -0.49061
-0.824537 -0.0675548 1.44517
0.000532075 -0.0863129 0.801716
-0.815203 -0.0142304 2.59677
-0.00443503 -0.0487981 2.08863
-0.816832 0.0615529 3.6111
-0.812776 0.23395 3.06642
-0.0143607 0.0203366 3.1049
-0.818827 0.314472 4.07932
-0.0209454 0.102769 4.1173
-0.856813 0.386238 -2.89486
-0.0456341 0.104563 -2.84594
-0.814771 0.486869 3.53464
-0.800623 0.887003 2.94697
-0.0207029 0.447563 3.02794
-0.816391 0.957788 3.9635
-0.0258622 0.526174 4.04134
-0.815306 1.20248 -3.03004
-0.0377554 0.667911 -2.94378
-0.802242 1.35792 3.37583
-0.803173 1.95932 2.75807
-0.0240998 1.32644 2.866
-0.818138 2.02311 3.77631
-0.0303612 1.3894 3.88565
-0.787194 1.81399 -2.61105
0.0182992 1.73705 -3.1163
-0.790397 2.01914 -1.4805
0.034521 1.89093 -2.1058
-0.810226 2.25865 -0.233262
0.0195409 2.14733 -0.855198
-0.817913 2.44227 1.01403
-0.00933861 2.36997 0.388674
-0.816283 2.55338 2.14476
-0.0236404 2.51458 1.63938
-0.819069 2.6245 3.15855
-0.0271985 2.59219 2.65013
-0.0298838 2.65681 3.66697
0.821879 -0.144662 -2.28498
0.794205 -0.0491644 -2.81925
1.22188 -0.204725 -2.79171
0.839569 -0.0751339 -1.134
1.26027 -0.090622 -1.77614
0.835821 -0.0750746 0.155553
1.25627 -0.0596334 -0.490778
0.820634 -0.0675562 1.44517
1.24591 -0.0763252 0.800035
0.796408 -0.0142311 2.59677
1.21322 -0.0400085 2.08569
0.781525 0.0615523 3.6111
0.777712 0.23395 3.06642
1.18966 0.0267523 3.10291
0.77202 0.314471 4.07932
1.18006 0.107296 4.11615
0.773424 0.386236 -2.89486
1.20767 0.107559 -2.84567
0.768206 0.486869 3.53464
0.75582 0.887003 2.94697
1.17232 0.452588 3.0263
0.760168 0.957787 3.9635
1.16819 0.529821 4.04047
0.79585 1.20248 -3.03004
1.17925 0.68567 -2.94542
0.747781 1.35792 3.37583
0.751874 1.95932 2.75807
1.14148 1.32722 2.86627
0.757893 2.02311 3.77631
1.15248 1.39059 3.88571
0.840014 1.81399 -2.61105
1.23933 1.75006 -3.11792
0.844459 2.01913 -1.4805
1.25591 1.9036 -2.10759
0.820429 2.25865 -0.233262
1.24956 2.15229 -0.856278
0.784934 2.44227 1.01403
1.2092 2.36866 0.388803
0.765444 2.55338 2.14476
1.17231 2.5118 1.64031
0.761987 2.6245 3.15855
1.16205 2.59009 2.65106
1.16211 2.6556 3.66764
1.66028 -0.150686 -2.28287
1.63534 -0.0480019 -2.81813
1.67698 -0.0751215 -1.13292
1.67999 0.0764306 -1.80363
1.66637 -0.060884 0.153704
1.67603 0.134072 -0.522266
1.6385 -0.0487776 1.44055
1.65526 0.138087 0.762967
1.60647 0.000974835 2.59183
1.61077 0.180665 2.04481
1.5882 0.0724961 3.60796
1.58427 0.24539 3.06279
1.57623 0.322646 4.0773
1.65505 0.179114 -2.33888
1.61349 0.406993 -2.89624
1.67904 0.285624 -1.19297
1.65077 0.541601 -1.88264
1.66493 0.333043 0.0869977
1.67519 0.689832 -0.612929
1.62754 0.367529 1.36722
1.63974 0.7624 0.657034
1.58857 0.425081 2.51576
1.57484 0.830504 1.92725
1.5723 0.49554 3.53213
1.55798 0.892802 2.94559
1.5605 0.962623 3.96268
1.60921 0.76948 -2.43999
1.62273 1.23325 -3.03331
1.64692 0.945809 -1.30259
1.64171 1.3759 -2.02115
1.65 1.11919 -0.0428923
1.66622 1.60667 -0.764815
1.58705 1.22537 1.21706
[...]
POINT_DATA 29498
VECTORS point_vectors float
-3.0202 -3.17362 13.282
0.30781 0.390503 1.94097
-1.13129 0.871799 1.78783
-0.0315232 -0.157847 0.271983
3.05145 -3.20415 13.337
-0.30712 0.387088 1.92579
1.13041 0.872146 1.78838
0.0315705 -0.157687 0.270957
0.0181452 0.0379793 1.33369
0.0372316 -0.075398 0.707558
0.00345424 0.0113007 0.0290833
0.00278005 0.00796949 0.0258795
-0.017734 0.0379971 1.33385
-0.036264 -0.0754606 0.70339
-0.00336908 0.0110226 0.0283502
-0.00279413 0.00805168 0.0259966
-0.715451 -0.459274 20.0923
-1.04841 -0.73067 20.929
-0.281863 -0.485533 21.5842
0.194556 -0.236161 21.744
0.722044 0.0408941 21.7031
1.06601 0.204157 21.4731
1.15315 0.191758 20.5069
-0.825086 -0.365103 19.9844
-1.47301 -0.717367 20.8106
-0.468144 -0.636018 21.6462
0.123468 -0.43139 21.7905
0.815498 -0.299907 21.8004
1.32628 -0.173275 21.3335
1.28039 0.0619572 21.1622
-0.89002 -0.0987587 19.7589
-1.99572 -0.155662 20.4073
-1.28051 -0.503723 21.625
-0.454854 -0.566717 21.8602
0.166549 -0.752039 21.8683
0.604975 -0.840959 21.5904
0.710276 -0.780789 21.2966
-0.555155 0.260969 19.8728
-1.03133 0.536504 20.2013
-1.11482 0.50887 21.0787
-0.57497 0.108442 21.5826
-0.210323 -0.133397 21.5202
-0.0372295 -0.300026 21.5283
0.0835481 -0.35686 21.4005
-0.885901 -1.10273 19.4675
-1.54737 -2.5634 21.8655
0.0119875 -0.102739 21.7755
0.381984 0.227865 21.5737
0.918079 1.10247 21.1626
1.49218 1.67308 20.7973
1.35182 1.33165 19.4713
-1.11972 -0.963613 18.9274
2.39734 1.36029 12.8986
2.64762 1.2766 15.9164
-1.18324 -0.0883197 18.462
-0.279929 -1.36004 6.76234
0.792993 -1.72214 11.6748
-0.507017 0.571415 19.4172
-1.14012 1.56719 19.5598
-1.50402 1.93164 21.0763
-0.727792 0.642221 21.9033
-0.311981 -0.0197816 21.7798
-0.11174 -0.207416 21.5037
-0.127835 -0.36207 21.7112
0.849237 -1.15575 19.391
1.52671 -2.61131 21.8949
-0.00918078 -0.100554 21.7665
-0.379798 0.231089 21.5684
-0.906858 1.11357 21.1441
-1.47284 1.74948 20.7242
-1.26906 1.47067 19.418
1.09434 -1.03797 18.7937
-2.27517 1.39137 11.8606
-2.68806 1.51984 15.0436
1.13303 -0.0879774 18.3069
0.531268 -1.29967 4.93561
-0.778082 -1.76337 9.89579
0.520852 0.554758 19.4422
1.18197 1.48467 19.6134
1.5327 1.83945 21.0852
0.722747 0.655687 21.9101
0.311559 -0.00409867 21.788
0.111086 -0.180084 21.5083
0.15702 -0.33102 21.8614
0.739518 -0.495694 20.0666
1.06025 -0.756251 20.9226
0.285222 -0.490385 21.5772
-0.189721 -0.238627 21.7374
-0.720195 0.0410658 21.7104
-1.07826 0.226186 21.4556
-1.1967 0.182652 20.4831
0.881508 -0.408805 19.9342
1.48094 -0.726016 20.8172
0.471971 -0.636095 21.6516
-0.119485 -0.429713 21.7937
-0.810551 -0.298617 21.8142
-1.34668 -0.182385 21.3167
-1.35832 0.0619347 21.1918
0.933299 -0.0924745 19.7141
1.98269 -0.153905 20.4175
1.26406 -0.496694 21.6195
0.449821 -0.561175 21.8567
-0.160116 -0.750325 21.866
-0.625643 -0.860407 21.5773
-0.722915 -0.818848 21.3676
0.549598 0.253423 19.8889
0.981437 0.488012 20.2485
1.08494 0.476971 21.0767
0.578022 0.108117 21.5848
0.210374 -0.133511 21.5121
0.0134453 -0.297042 21.5113
-0.0691915 -0.378048 21.4047
-0.528002 -0.0644874 1.24884
-1.50425e-05 -0.00187666 0.0411731
0.0466612 -0.0533599 1.71819
0.0724945 -0.122325 0.185687
1.17354e-05 0.0288851 0.141441
0.0406327 0.0672823 1.48726
3.12952e-05 0.0940851 0.160517
-0.821957 -0.45529 1.98262
-2.75481e-05 0.00307906 -0.00395037
0.00133571 0.00364421 0.0285679
0.531989 -0.067955 1.262
-0.0469701 -0.052993 1.72327
-0.0729889 -0.122309 0.186084
-0.0397267 0.0674489 1.48884
0.825552 -0.457293 1.99155
-0.00135171 0.0036997 0.0285369
0.00450643 0.0203392 1.06821
-1.28218e-06 -1.08906e-05 -6.70976e-05
0 0 0
-0.000166211 0.00646226 0.0451428
-7.51075e-07 0.000140085 0.0225057
0.000570551 0.0020283 0.00548391
-2.22479e-05 0.0376765 0.0838037
-4.6949e-07 7.63618e-05 0.00504098
-0.00421261 0.0205055 1.07226
1.84149e-06 -1.56154e-05 -9.61112e-05
0.000166228 0.00649911 0.0453917
-0.000256247 0.00091094 0.00247249
0 0 0
8.60626e-05 0.00239536 0.011594
0 0 0
9.3623e-08 3.16773e-08 2.47088e-06
6.06648e-07 7.51032e-06 0.00154178
0 0 0
-0.00014478 -0.423934 0.366677
-0.000317395 -0.0897414 0.0106545
0 0 0
-1.10847e-06 0.000927451 0.00998236
-1.61469e-07 -2.78405e-05 0.00113382
0 0 0
-8.27801e-05 0.00230246 0.0111373
0 0 0
-2.45772 -1.47979 21.124
-2.37723 -3.66404 22.5177
-2.87468 -2.57746 18.3703
1.46037 -0.0487212 21.2574
1.17769 1.23704 16.9335
1.46903 0.790375 9.28558
-4.14339 -0.0105196 20.1899
-3.33994 0.471418 16.5549
-2.75265 2.68131 18.6519
0.192302 -0.79249 19.553
-1.04613 -1.34045 3.4195
-0.581262 -0.23127 21.2541
2.37093 -3.69398 22.5521
2.9335 -2.86268 18.1463
2.47648 -1.49164 21.1246
-1.16715 1.24354 16.8751
-1.37783 0.761993 8.49436
-1.45153 -0.0592649 21.3093
3.32816 0.531173 16.2568
2.78355 2.54149 18.7274
4.128 -0.011289 20.1876
1.17324 -1.37723 2.69822
0.564599 -0.209062 21.0292
-0.191163 -0.803129 19.5954
-0.118611 -0.945316 22.0688
0.428088 0.243191 16.2613
0.379885 -0.531504 21.684
0.675854 0.04795 16.851
-2.18495 -1.21758 22.2696
-4.53274 2.79297 21.6798
-0.699657 -0.93906 21.6674
-1.47625 0.416614 22.0065
-0.428429 0.249821 16.2785
0.124557 -0.943084 22.0717
-0.669424 0.0555386 16.8696
-0.374273 -0.533425 21.7275
4.42469 2.57683 21.7068
2.16819 -1.20627 22.2507
1.47728 0.43718 21.9752
0.701424 -0.940606 21.7108
-1.0121 -0.642189 20.4035
-0.782406 -0.41578 20.0326
-0.846598 -0.682515 19.856
-0.659239 -0.638032 21.4035
-1.23486 -0.729868 20.8747
-1.43471 -1.34176 21.1687
-0.0174941 -0.353504 21.6644
-0.354415 -0.532582 21.5939
-0.076444 -0.489278 21.8056
0.452794 -0.100802 21.7897
0.173401 -0.311228 21.7438
0.361711 -0.129541 21.899
0.914522 0.119673 21.5735
0.801184 -0.096641 21.7474
1.01101 0.395158 21.8616
1.02689 0.141995 21.2944
1.19414 -0.00841863 21.5461
1.50315 0.689037 21.4726
1.23509 0.179755 20.9224
1.2334 0.458563 21.2877
-1.23876 -0.574324 20.2056
-0.881929 -0.242519 19.8431
-1.05304 -0.596322 19.5784
-0.951099 -0.731311 21.4302
-1.77644 -0.506137 20.6324
-0.130628 -0.530472 21.7291
-0.827581 -0.715566 21.6632
0.446561 -0.361493 21.8834
-0.107325 -0.60548 21.8443
1.07438 -0.244856 21.6651
0.620086 -0.643994 21.9214
1.38846 -0.307404 21.5321
1.07654 -0.696144 21.6953
2.14096 0.0378013 21.064
1.03312 -0.630263 21.0825
2.09068 0.177485 20.3857
-1.47393 -0.0963676 19.871
-0.766686 0.157741 19.7737
-1.15028 -0.0816213 19.2689
-1.83107 -0.341457 21.1921
-1.55303 0.408558 20.187
-0.811498 -0.570897 21.8084
-1.53748 0.152208 21.3696
-0.146888 -0.626237 21.8804
-0.720701 -0.173831 21.7658
0.366755 -0.817697 21.7632
-0.200474 -0.415425 21.707
0.774891 -0.884502 21.5284
0.146089 -0.594254 21.5363
0.614987 -1.13324 20.433
0.327986 -0.733139 20.9175
1.03787 -1.31018 21.2888
-0.808598 0.399435 19.9681
-0.609022 0.403781 19.6521
-1.16552 0.599375 20.6064
-1.20156 0.958233 19.945
-0.854159 0.305909 21.4435
-1.42481 1.03164 21.1191
-0.369712 -0.0155176 21.6056
-0.710602 0.310537 21.7174
-0.128183 -0.215181 21.4402
-0.225516 -0.129401 21.6815
0.0410701 -0.371773 21.2115
-0.0840911 -0.275379 21.4461
0.0159198 -0.397121 21.2846
-1.59222 -2.24029 19.8839
-1.00878 -1.08753 19.2161
-0.0586883 -1.72426 18.8932
-0.446282 -0.796595 22.3833
-0.0198272 -3.81323 22.9021
0.179275 0.0397823 21.4749
0.000554539 -0.250904 18.9223
0.636755 0.625684 21.1843
-0.00146123 0.150874 18.8741
1.21329 1.42444 20.9292
0.00315399 1.06216 18.5454
1.74473 1.76083 19.8539
2.04215 1.87418 17.2693
0.0119634 2.16878 18.8196
2.14739 1.41452 16.946
0.110091 3.13229 17.0543
-1.24142 -0.596474 18.5543
-0.095357 -1.538 17.9541
2.69999 1.38246 15.7695
1.4812 -0.773001 8.17219
0.0427879 0.794285 3.7109
2.57219 -0.280963 12.0963
0.256899 2.63697 6.7366
-0.853999 0.497737 18.9234
-0.0689591 -0.0739588 17.3467
1.41271 -1.24617 9.86531
-0.370097 -0.63822 21.3815
-0.0853028 1.71048 -6.6104
0.0936479 -0.929129 21.5773
-0.0263401 2.00325 -3.53196
-0.814553 1.03897 19.3478
0.0103152 0.722428 19.1376
-1.45689 1.96492 20.1988
0.0637783 2.25178 19.1206
-1.16615 1.2792 21.7583
0.0471423 3.21465 20.9494
-0.45706 0.225904 21.8827
-0.0110239 1.13462 22.1082
-0.229423 -0.127539 21.6749
-0.0160275 0.200919 21.8215
0.0313423 -0.492642 21.1867
-0.0187379 -0.0825311 21.6384
-0.0184855 -0.621842 21.0676
1.58435 -2.40849 19.7971
0.979229 -1.15418 19.0894
0.887027 -0.773268 19.7568
0.454886 -0.795378 22.412
1.44852 -1.38742 21.1877
-0.176578 0.0409673 21.4645
0.0787554 -0.490488 21.8029
-0.629377 0.627436 21.1794
-0.357554 -0.131431 21.8945
-1.18322 1.4556 20.9228
-1.00983 0.396814 21.8594
-1.73342 1.82958 19.7615
-1.99931 2.03064 16.8781
-1.50652 0.71823 21.5151
-2.19096 1.64499 16.1608
-1.24559 0.504885 21.3881
1.19556 -0.62843 18.3958
1.07551 -0.674698 19.4785
-2.66324 1.57229 14.9265
-1.29037 -0.665401 6.67177
-2.20333 0.142176 20.742
-2.6557 -0.244962 10.3644
-2.1956 0.187299 20.2239
0.845939 0.506351 18.8949
1.16805 -0.097599 19.1464
-1.34035 -1.2236 8.4625
0.396087 -0.597967 21.1368
-0.614331 -1.08786 19.6323
-0.119939 -0.908302 21.4452
-0.95901 -1.51132 20.8737
0.832428 0.9909 19.3916
0.619668 0.390543 19.6735
1.49052 1.84854 20.2301
1.19959 0.893611 19.9895
1.16803 1.26366 21.753
1.39716 0.968564 21.1207
0.457119 0.248558 21.8836
0.719352 0.323367 21.7209
0.242419 -0.113097 21.71
0.232916 -0.111041 21.6946
-0.0301571 -0.471703 21.1376
0.0876161 -0.270833 21.4278
0.00727402 -0.406997 21.2698
1.03661 -0.690392 20.375
0.834291 -0.457872 19.9939
0.652426 -0.647884 21.4012
1.24383 -0.746201 20.8782
0.0203827 -0.357926 21.6589
0.3608 -0.536658 21.5916
-0.449616 -0.102688 21.7969
-0.166005 -0.311801 21.7395
-0.91908 0.129952 21.5761
-0.794848 -0.0988001 21.7516
-1.05426 0.147863 21.3066
-1.22427 0.000303284 21.5759
-1.28237 0.163153 20.8861
1.29988 -0.599776 20.193
0.937337 -0.270004 19.7861
0.947482 -0.732727 21.4396
1.78157 -0.510325 20.6434
0.133175 -0.528202 21.7335
0.825862 -0.713859 21.6649
-0.443262 -0.365325 21.8829
0.108437 -0.603546 21.8377
-1.0799 -0.24698 21.679
-0.617975 -0.640089 21.9201
-1.43267 -0.311873 21.558
-1.10511 -0.702563 21.7348
-0.997448 -0.62893 21.1327
1.52292 -0.101532 19.8541
0.768102 0.155909 19.7734
1.81677 -0.340541 21.1959
1.50043 0.384818 20.2148
0.806444 -0.56496 21.8066
1.49163 0.139452 21.3599
0.145197 -0.620996 21.8806
0.718814 -0.176117 21.7696
-0.350445 -0.817362 21.7577
0.205225 -0.419418 21.7282
-0.796108 -0.927614 21.5259
-0.115116 -0.600555 21.5606
-0.29553 -0.821119 20.8104
0.796123 0.381331 19.99
1.13218 0.56241 20.6229
0.8479 0.301482 21.4391
0.370386 -0.0213756 21.5954
0.12981 -0.208028 21.4468
-0.0453207 -0.378105 21.1822
-1.12265 -0.614467 20.3051
-2.14333 -2.58794 19.2428
-1.35998 -1.15469 20.1977
-1.95237 -1.08538 19.798
-0.964261 -0.665593 19.7026
-1.91534 -1.47001 21.1765
-0.792562 -0.667765 21.3899
0.027543 -0.397295 19.0986
-0.593457 -0.853594 21.7978
-1.01604 -1.23428 22.0866
-0.046591 -0.6793 21.896
-0.0549426 -0.411535 21.6962
0.448346 0.158501 16.4121
0.151785 -0.291659 21.8032
0.20171 -0.69 21.8177
0.424532 -0.322672 21.8196
0.463974 -0.195696 21.83
0.942412 0.58747 16.3768
0.664888 0.101572 21.9522
0.804149 -0.330902 21.4389
1.3043 0.237112 21.7443
1.0374 -0.013352 21.6157
1.51775 1.54328 16.6475
1.26095 0.582179 21.6267
1.83713 -0.00115581 21.2409
1.8764 0.464564 21.3266
1.23537 -0.135707 21.4404
2.22731 1.74361 16.7309
1.63762 0.785892 21.3839
2.29759 0.164249 20.4023
1.62444 0.386589 20.9337
-1.40411 -0.360872 20.0243
-3.68761 -1.36158 16.8475
-2.38609 -0.00275535 19.0383
-1.15562 -0.392598 19.3857
-3.58667 -1.02556 20.8209
-1.38399 -0.677985 21.4077
-3.25549 -0.929604 21.6566
-0.775498 -1.47366 22.2538
-0.416402 -0.673767 21.792
-1.26827 -1.19736 22.2111
0.075635 -0.797876 21.1404
0.211775 -0.600509 21.9365
-0.218257 -0.710335 20.6512
1.07866 -0.546815 19.7826
0.873274 -0.656553 21.7787
0.473454 -1.71489 4.45415
0.277261 -1.03826 20.2622
1.73715 -0.759756 20.2462
1.27613 -0.663717 21.3117
2.52061 -0.633576 9.94023
0.927075 -1.36596 20.9364
1.92383 -0.904349 20.287
-1.16331 0.309546 19.8632
-1.63382 1.33023 18.4533
-0.903592 0.690183 19.7034
-0.891871 0.292275 19.3969
-2.33041 1.09482 19.7038
-1.6932 0.355709 20.8082
-3.70269 2.87799 19.7866
-1.44633 1.15109 20.468
-2.55569 0.620514 21.5877
-1.11188 -0.0471486 21.6743
-2.9032 1.09715 22.5707
-1.08669 0.664597 21.5872
-1.07897 -0.0471379 22.0538
-0.423628 -0.294476 21.7654
-0.799257 0.0562525 21.411
-0.431463 0.0450516 21.7567
-0.391408 -0.417757 21.8417
-0.05249 -0.483842 21.6786
-0.515109 -0.320908 21.0582
-0.143019 -0.225586 21.595
-0.0860963 -0.710743 21.8253
0.291144 -0.658655 21.3438
-0.00080935 -1.08692 20.8311
0.00851017 -0.446854 21.5159
0.192931 -0.768851 22.1227
2.14752 -2.79268 19.1542
-0.060785 -4.05794 19.3532
-0.0996908 -5.8724 15.653
-0.0547721 -1.72815 18.4289
-0.0127615 -4.21683 22.0378
-0.0239357 -0.38699 18.9822
-0.00527344 -1.0455 21.4935
0.000207331 0.0683535 8.20868
-0.44673 0.163862 16.4226
0.000636263 -0.0929019 18.5803
3.00172e-06 0.107569 9.94333
-0.936722 0.590746 16.3405
0.000959612 0.575182 18.626
0.00282011 0.826463 10.3795
-1.48908 1.58636 16.4276
0.00653239 1.48494 18.4544
0.000655517 0.063962 2.7149
0.0444053 1.62892 10.684
-2.20507 1.89607 15.9889
0.0450155 2.43779 17.4089
0.0302077 2.66101 4.21063
0.0976676 2.92508 11.776
3.70621 -1.44228 16.5044
-0.0901748 1.53587 13.0389
-0.0709824 -0.850837 17.3334
-0.35217 -1.77953 3.79532
-0.0413205 0.186896 -4.58303
-0.0243147 0.712061 -2.0154
-2.3996 -0.507035 8.09954
0.0188095 -0.0235794 -6.94749
0.336706 4.3478 -0.379224
1.63425 1.31658 18.4666
0.0291796 1.43658 18.9785
-0.0165483 0.747056 18.3304
0.0776586 4.43497 17.5668
3.70579 2.71297 19.8652
0.0879887 2.97073 19.7812
0.0548427 6.77172 20.9012
2.89261 1.08403 22.6123
0.0111111 2.25037 21.9766
-0.0101628 1.42804 21.0598
0.782765 0.078117 21.2984
-0.0148527 0.539093 21.9264
-0.01609 0.365475 17.1949
0.51817 -0.274199 20.9126
-0.00356271 0.0752476 21.6266
-0.0549767 0.346997 17.6966
0.0440598 -1.08886 20.9517
0.0211784 -0.298555 21.312
-0.0911466 -0.630191 18.709
1.15896 -0.657833 20.2954
1.39584 -1.25337 20.1703
2.01815 -1.1897 19.7025
0.98937 -0.7433 19.6276
1.94186 -1.51287 21.188
0.787195 -0.67383 21.3945
0.595971 -0.860083 21.8027
1.01882 -1.23543 22.0882
0.0551985 -0.67934 21.8966
0.0567372 -0.409262 21.6981
-0.146175 -0.292795 21.7978
-0.193872 -0.690015 21.8406
-0.417382 -0.325966 21.8379
-0.459799 -0.199202 21.8293
-0.66038 0.0993885 21.9482
-0.800575 -0.339099 21.5063
-1.29809 0.233641 21.7456
-1.04224 -0.0144968 21.6187
-1.26404 0.604366 21.6272
-1.86896 0.0220852 21.1541
-1.94912 0.499757 21.1944
-1.2587 -0.112471 21.4603
-1.69122 0.826329 21.4026
-2.39561 0.228179 20.2333
-1.72626 0.400482 20.7924
1.46763 -0.378374 20.0105
2.46383 0.0105225 18.9258
1.195 -0.406963 19.2426
3.59269 -1.02899 20.8226
1.38384 -0.680578 21.4113
3.23797 -0.919564 21.645
0.781618 -1.46334 22.2717
0.414921 -0.669579 21.7921
1.26387 -1.18862 22.2124
-0.0712266 -0.824159 21.2451
-0.211963 -0.596212 21.9338
0.221273 -0.723184 20.7179
-1.0748 -0.563501 19.863
-0.890694 -0.665506 21.7898
-0.270066 -1.00556 19.8138
-1.75933 -0.683345 19.7553
-1.3427 -0.655486 21.363
-0.990588 -1.34439 19.6221
-2.09022 -0.974327 20.0275
1.1552 0.303335 19.8764
0.910299 0.646832 19.7477
0.88831 0.299505 19.38
2.26149 1.01335 19.7614
1.64494 0.332362 20.8092
1.43261 1.07307 20.4942
2.49143 0.563131 21.5802
1.09751 -0.0508177 21.6641
1.0818 0.648397 21.582
1.08417 -0.0432797 22.0584
0.428525 -0.29817 21.7663
0.440821 0.0541459 21.7727
0.409966 -0.417384 21.8398
0.0639613 -0.499395 21.6691
0.152688 -0.217435 21.5696
0.116996 -0.723062 21.7961
-0.274635 -0.668881 21.3797
-0.00516287 -0.465247 21.5645
-0.165938 -0.829701 22.2221
-1.6699 -1.17775 20.0178
-0.729214 -1.03186 21.9313
0.217728 -0.456112 21.7991
0.812069 -0.0935787 21.811
1.63079 0.374865 21.5723
2.04255 0.412548 20.8726
-2.42627 -0.68622 19.3013
-1.86162 -1.46491 22.1691
-0.193066 -1.15137 21.7282
0.405982 -0.537475 20.5342
1.35413 -0.814885 20.1291
1.99752 -0.835128 19.9965
-1.53953 0.675263 19.3184
-2.79792 0.99776 20.6215
-1.7821 0.196693 22.0659
-0.646768 -0.24769 21.9735
-0.257902 -0.555356 21.7701
0.14675 -0.705267 21.4259
-0.0789222 -5.15183 18.1109
0.00146782 -0.215678 10.526
0.00020873 0.0356256 8.9282
0.00131541 0.454327 9.79278
0.0168843 1.08269 10.135
0.0360939 2.60371 10.7523
-0.0983635 -2.28675 12.6424
-0.00682097 -0.375488 -0.275482
0.157243 3.37472 -2.20189
0.0129519 2.24688 17.3717
0.08824 5.58343 18.3751
0.00883232 3.68244 22.5971
-0.0110901 0.574472 20.0461
-0.0302728 0.461629 16.7389
-0.024693 -0.564264 18.8598
1.73492 -1.29729 19.9556
0.732087 -1.03669 21.9365
-0.209367 -0.458215 21.8087
-0.804568 -0.0972126 21.8214
-1.64908 0.404782 21.4944
-2.098 0.484637 20.7928
2.51501 -0.719702 19.198
1.86045 -1.46161 22.1606
0.202419 -1.15637 21.7815
-0.4048 -0.560095 20.6251
-1.37158 -0.792239 19.9082
-2.1002 -0.886933 19.686
1.53469 0.665881 19.3339
2.71695 0.932088 20.6407
1.76426 0.19143 22.0564
0.65659 -0.246721 21.9805
0.27777 -0.552023 21.7636
-0.123633 -0.756319 21.5209
-0.640402 -0.130197 1.04406
-0.00269211 -0.0047135 0.0925975
0.102514 -0.379864 5.05155
-0.0136162 -0.0531824 0.0365895
0.00442228 0.119234 0.526028
0.0593308 0.113094 2.2418
-0.521315 0.0400143 0.672376
-0.0481655 0.233749 0.357455
-0.29702 -0.0731411 0.509946
0.0265838 -0.0696292 0.184445
-0.00483273 0.000191467 -0.000896464
0.00140404 0.000355966 0.0406772
0.00244823 -0.00474398 0.0929473
1.03591 -0.178735 1.81582
-0.100112 -0.378948 5.05866
-0.00436986 0.117466 0.514849
0.0135944 -0.0532104 0.0364317
-0.0588876 0.112005 2.24304
0.0475051 0.231528 0.353765
0.446043 0.0336588 0.575616
0.292883 -0.0719472 0.502744
0.00441706 0.000183137 -0.00082795
-0.02662 -0.0697874 0.184705
-0.00140137 0.000353442 0.0403528
0.0674255 0.0602849 0.350998
0.00628954 0.0384401 1.33406
0 0 0
0.00125202 0.000125533 0.0105859
0.0832484 0.00904622 0.472696
0.0122135 0.00282267 0.72899
0 0 0
0.00142044 0.000193561 0.0282437
-0.0971401 -0.070308 0.555158
0.00378907 0.0233158 0.0612214
0 0 0
-0.0492002 0.0781454 0.188252
0.00420095 0.011645 0.0511693
0 0 0
0.00211931 0.00738241 0.0214968
0.00607203 0.000712235 0.0430938
-0.0677515 0.0601435 0.351262
-0.00125269 0.000126149 0.0106208
-0.00665901 0.0381747 1.33796
-1.09157e-18 -7.0999e-18 -4.28077e-17
-0.0900649 0.0119058 0.513399
-0.0014189 0.000193461 0.0283343
-0.0119183 0.00289753 0.729261
0 0 0
0.0971244 -0.0701507 0.553317
0.0490234 0.0779689 0.187837
-0.00373986 0.0230467 0.0604911
0 0 0
-0.00423 0.0117368 0.0510083
-0.00608477 0.000713562 0.0430867
0 0 0
-0.00208387 0.00726634 0.0211742
0 0 0
0 0 0
-2.30995e-07 -6.40422e-08 -6.27933e-06
0 0 0
9.66194e-05 -0.0144048 0.203444
5.59129e-06 3.28589e-07 3.16343e-05
0.00251359 -5.99417e-05 0.0260468
-0.0162364 -0.0502807 0.00432677
0 0 0
0 0 0
0 0 0
0.00198222 0.000883804 0.0160917
-7.84076e-05 0.139181 0.0829115
0.00172565 0.0312962 0.0863305
-0.00709054 -0.0142571 0.124993
0 0 0
0.00151171 -0.0355499 0.0118118
-5.33715e-05 -0.00428607 0.0164333
0 0 0
0.000276278 -0.000223322 0.00843637
0 0 0
0 0 0
-8.37682e-06 4.93773e-07 4.74433e-05
-0.000109332 -0.0145481 0.204198
0.0167245 -0.0513269 0.00464865
-0.00255464 -6.04193e-05 0.0263503
-0.00200183 0.000892194 0.0162596
0 0 0
-7.91117e-17 -2.56145e-17 -6.739e-17
0.00705251 -0.0142227 0.124876
-0.000281238 -0.000227888 0.00858531
0 0 0
0 0 0
0.000384367 3.33979e-05 0.00478108
0 0 0
0 0 0
0 0 0
2.2489e-07 1.27195e-07 1.90473e-05
0.000152472 0.00393019 0.0211605
0 0 0
1.44269e-07 9.35613e-08 1.85706e-05
-4.11741e-22 7.82242e-19 9.07698e-18
0 0 0
-0.026556 0.0338877 0.397716
0.00133772 0.0562864 0.0914175
-6.58744e-06 0.018123 0.0752522
-2.62735e-06 0.00124809 0.0299701
-3.28436e-07 -1.08236e-05 0.00420724
-0.00038507 3.35936e-05 0.00479921
0 0 0
0 0 0
0 0 0
-0.000150591 0.00390675 0.021036
0.000302808 0.00134916 0.0132586
0.026537 0.0340519 0.398672
0 0 0
0 0 0
0 0 0
0 0 0
0.00535147 0.0122529 0.22228
-1.23192e-05 9.63063e-05 0.000580174
0.000793069 0.00673491 0.0154833
0 0 0
0.00166716 0.0104987 0.0332997
8.52415e-05 0.00170836 0.0839988
3.64272e-18 1.73813e-17 9.25574e-17
0.00241611 0.00331364 0.0440495
0.000767867 -0.000357898 0.0194265
-6.38037e-06 -6.25455e-07 -5.2102e-05