# vtk DataFile Version 2.0
tet_velo
ASCII
DATASET UNSTRUCTURED_GRID
POINTS 29498 float
-0.655897 0.295 -1.865
-0.723197 0.365 1.825
-0.769504 0.715 -1.685
-0.691377 0.965 1.915
0.655896 0.295 -1.865
0.723192 0.365 1.825
0.769485 0.715 -1.685
0.691375 0.965 1.915
-0.753282 0.243382 -0.635
-0.798704 0.243727 0.595
-0.803063 0.857934 -0.485
-0.764089 0.928336 0.715
0.753281 0.243381 -0.635
0.7987 0.243727 0.595
0.803059 0.857944 -0.485
0.764046 0.928301 0.715
-1.41105 -0.0443525 -2.90994
-1.42313 -0.0107874 -1.93796
-1.49472 -0.0490722 -0.707183
-1.53658 -0.0613516 0.529631
-1.50318 0.0197961 1.76091
-1.48986 0.0844357 2.73539
-1.49425 0.136067 3.70526
-1.41543 0.224244 -2.83073
-1.42824 0.279192 -1.86202
-1.50995 0.25989 -0.637082
-1.54027 0.255676 0.590557
-1.4792 0.338629 1.81607
-1.47385 0.401976 2.79012
-1.48665 0.452243 3.76096
-1.46486 0.715952 -2.66388
-1.50739 0.768515 -1.69393
-1.55071 0.864358 -0.489444
-1.52384 0.916314 0.712918
-1.45569 0.962835 1.91798
-1.46237 1.02308 2.89327
-1.48334 1.07653 3.86895
-1.51123 1.55333 -2.43616
-1.53419 1.62259 -1.47071
-1.5516 1.7421 -0.275945
-1.54342 1.84498 0.912349
-1.52154 1.91353 2.10742
-1.51248 1.96099 3.07353
-1.51416 2.00831 4.04594
-0.671783 -0.0354686 -2.91188
-0.671704 0.0015215 -1.94078
-0.734055 -0.0563001 -0.706804
-0.781211 -0.0703717 0.533423
-0.758188 0.0323737 1.76755
-0.747805 0.0943152 2.73989
-0.751692 0.141757 3.70786
-0.66966 0.226588 -2.83132
-0.735315 0.413248 2.79383
-0.746491 0.45838 3.76293
-0.709618 0.695294 -2.66017
-0.726306 1.02799 2.89268
-0.745109 1.08082 3.86883
-0.751825 1.53843 -2.43249
-0.770542 1.60807 -1.46666
-0.787311 1.73843 -0.273509
-0.787531 1.84936 0.912057
-0.775695 1.91778 2.10534
-0.76938 1.96414 3.07145
-0.770634 2.01097 4.04442
0.748015 -0.0354689 -2.91188
0.718624 0.00152109 -1.94078
0.766431 -0.0563018 -0.706804
0.779044 -0.0703733 0.533423
0.729348 0.0323726 1.76755
0.727237 0.0943131 2.73989
0.72862 0.141754 3.70786
0.745735 0.226588 -2.83132
0.721759 0.413246 2.79383
0.725607 0.458377 3.76293
0.774968 0.695294 -2.66017
0.710406 1.02799 2.89268
0.719483 1.08081 3.86883
0.765318 1.53843 -2.43249
0.760663 1.60807 -1.46666
0.7515 1.73843 -0.273509
0.731463 1.84935 0.912057
0.713698 1.91777 2.10534
0.711075 1.96413 3.07145
0.711871 2.01096 4.04442
1.47283 -0.0443533 -2.90994
1.45061 -0.0107882 -1.93796
1.51092 -0.0490773 -0.707183
1.53979 -0.0613595 0.529631
1.49315 0.0197912 1.76091
1.4764 0.0844302 2.73539
1.4744 0.13606 3.70526
1.46777 0.224244 -2.83073
1.42712 0.279193 -1.86202
1.50632 0.259885 -0.637082
1.54475 0.255664 0.590557
1.48492 0.338625 1.81607
1.4674 0.401971 2.79012
1.46883 0.452236 3.76097
1.50439 0.715952 -2.66388
1.49867 0.768519 -1.69393
1.5401 0.864356 -0.489444
1.52358 0.91628 0.712918
1.45917 0.962824 1.91798
1.45238 1.02307 2.89327
1.46005 1.07652 3.86895
1.51904 1.55333 -2.43616
1.5191 1.62259 -1.47071
1.51489 1.74209 -0.275945
1.49271 1.84496 0.912349
1.46642 1.91351 2.10742
1.45787 1.96097 3.07353
1.45688 2.0083 4.04594
-0.680243 0.505 -1.74254
-5.06639e-07 0.276717 -1.88328
-0.73058 0.2432 -1.25
-0.695723 0.665 1.85844
-2.5034e-06 0.33556 1.85444
-0.781693 0.28362 1.21
-9.50694e-06 0.776732 -1.74673
-0.828575 0.828759 -1.085
-9.83477e-07 1.03391 1.98391
-0.762614 0.981549 1.315
0.680234 0.505 -1.74254
0.730579 0.2432 -1.25
0.695743 0.665 1.85846
0.78159 0.28372 1.21
0.828567 0.828767 -1.085
0.762609 0.981549 1.315
-0.775755 0.243792 -0.02
-0.862157 0.550658 -0.56
-4.66265e-07 0.240904 -0.635
-0.889029 0.586031 0.655
-1.83781e-06 0.240943 0.595
-0.780242 0.889802 0.115
-1.85841e-06 0.916819 -0.485
-2.15026e-05 1.25551 0.715
0.775752 0.243792 -0.02
0.862145 0.550662 -0.56
0.88903 0.586014 0.655
0.780217 0.889787 0.115
-0.859483 0.527829 -1.1675
-0.854082 0.568345 0.0475
-0.892208 0.625516 1.2625
-4.86452e-07 0.24085 -1.25
-1.15204e-06 0.240952 -0.02
-2.1706e-06 0.265343 1.21
-5.00679e-06 0.505 -2.05865
-1.74344e-06 0.665 2.01635
-5.68268e-06 0.926018 -1.085
-1.16805e-05 1.22869 0.115
-1.1243e-05 1.12838 1.315
0.859433 0.527831 -1.1675
0.854079 0.568338 0.0475
0.892208 0.625507 1.2625
-1.04207 0.287096 -1.86351
-0.6638 0.148261 -1.90289
-0.662778 0.260794 -2.34816
-1.1012 0.351815 1.82053
-0.740692 0.198687 1.79627
-0.729256 0.389124 2.30942
-1.13845 0.741758 -1.68947
-0.739561 0.705147 -2.17258
-0.770023 1.16154 -1.57583
-1.07354 0.963917 1.91649
-0.708841 0.996494 2.40384
-0.733536 1.44139 2.01017
0.68726 0.148261 -1.90289
0.700816 0.260794 -2.34816
1.04151 0.287097 -1.86351
0.72627 0.198686 1.79627
0.722475 0.389123 2.30942
1.10405 0.351813 1.82053
0.772226 0.705147 -2.17258
0.765074 1.16154 -1.57583
1.13408 0.741759 -1.68947
0.70089 0.996493 2.40384
0.702537 1.44139 2.01017
1.07527 0.963912 1.91649
-1.13161 0.251636 -0.636041
-0.743668 0.093541 -0.670902
-1.16949 0.249701 0.592778
-0.789957 0.0866775 0.564212
-1.17689 0.861146 -0.487222
-0.795187 1.29818 -0.379254
-1.14396 0.922325 0.713959
-0.77581 1.38885 0.813529
0.759856 0.0935394 -0.670902
1.1298 0.251633 -0.636041
0.788872 0.0866767 0.564212
1.17173 0.249695 0.592778
0.77728 1.29819 -0.379254
1.17158 0.86115 -0.487222
0.747755 1.38882 0.813529
1.14381 0.922291 0.713959
-1.41709 -0.0275699 -2.42395
-1.41324 0.0899458 -2.87034
-1.04142 -0.0399106 -2.91091
-1.45893 -0.0299298 -1.32257
-1.42569 0.134202 -1.89999
-1.04742 -0.00463295 -1.93937
-1.51565 -0.0552119 -0.0887758
-1.50233 0.105409 -0.672132
-1.11439 -0.0526861 -0.706993
-1.51988 -0.0207777 1.14527
-1.53843 0.0971621 0.560094
-1.1589 -0.0658617 0.531527
-1.49652 0.0521159 2.24815
-1.49119 0.179213 1.78849
-1.13068 0.0260849 1.76423
-1.49205 0.110251 3.22032
-1.48185 0.243206 2.76276
-1.11883 0.0893754 2.73764
-1.49045 0.294155 3.73311
-1.12297 0.138912 3.70656
-1.42184 0.251718 -2.34637
-1.44014 0.470098 -2.7473
-1.04255 0.225416 -2.83103
-1.4691 0.269541 -1.24955
-1.46782 0.523854 -1.77798
-1.52511 0.257783 -0.0232628
-1.53033 0.562124 -0.563263
-1.50974 0.297152 1.20331
-1.53206 0.585995 0.651737
-1.47652 0.370303 2.3031
-1.46745 0.650732 1.86702
-1.48025 0.42711 3.27554
-1.46811 0.712529 2.8417
-1.10458 0.407612 2.79198
-1.48499 0.764386 3.81496
-1.11657 0.455312 3.76195
-1.48612 0.742234 -2.1789
-1.48804 1.13464 -2.55002
-1.08724 0.705623 -2.66202
-1.52905 0.816437 -1.09169
-1.52079 1.19556 -1.58232
-1.53728 0.890336 0.111737
-1.55116 1.30323 -0.382694
-1.48977 0.939574 1.31545
-1.53363 1.38065 0.812634
-1.45903 0.992959 2.40563
-1.48862 1.43818 2.0127
-1.47285 1.04981 3.38111
-1.48742 1.49203 2.9834
-1.09434 1.02554 2.89297
-1.49875 1.54242 3.95745
-1.11422 1.07867 3.86889
-1.52271 1.58796 -1.95343
-1.13153 1.54588 -2.43433
-1.5429 1.68235 -0.873325
-1.15237 1.61533 -1.46868
-1.54751 1.79354 0.318202
-1.16945 1.74026 -0.274727
-1.53248 1.87925 1.50989
-1.16548 1.84717 0.912203
-1.51701 1.93726 2.59048
-1.14862 1.91565 2.10638
-1.51332 1.98465 3.55974
-1.14093 1.96256 3.07249
-1.1424 2.00964 4.04518
-0.671743 -0.0169736 -2.42633
-0.670721 0.0955595 -2.8716
0.0381161 -0.0354688 -2.91188
-0.702879 -0.0273893 -1.32379
0.0234602 0.0015213 -1.94078
-0.757633 -0.0633359 -0.0866902
0.0161877 -0.0563009 -0.706804
-0.769699 -0.018999 1.15048
-0.00108368 -0.0703725 0.533423
-0.752996 0.0633444 2.25372
-0.0144197 0.0323731 1.76755
-0.749749 0.118036 3.22387
-0.74156 0.253781 2.76686
-0.0102843 0.0943141 2.73989
-0.749092 0.300068 3.73539
-0.011536 0.141755 3.70786
-0.689639 0.460941 -2.74575
0.0380378 0.226588 -2.83132
-0.740903 0.435814 3.27838
-0.73081 0.720618 2.84325
-0.00677808 0.413247 2.79383
-0.7458 0.769599 3.81588
-0.0104419 0.458379 3.76293
-0.730721 1.11686 -2.54633
0.032675 0.695294 -2.66017
-0.735707 1.0544 3.38075
-0.747843 1.49606 2.98206
-0.00794991 1.02799 2.89268
-0.757872 1.54589 3.95662
-0.0128132 1.08082 3.86883
-0.761183 1.57325 -1.94958
0.00674635 1.53843 -2.43249
-0.778927 1.67325 -0.870086
-0.00493956 1.60807 -1.46666
-0.787421 1.7939 0.319274
-0.0179056 1.73843 -0.273509
-0.781613 1.88357 1.5087
-0.028034 1.84935 0.912057
-0.772538 1.94096 2.58839
-0.0309987 1.91778 2.10534
-0.770007 1.98755 3.55794
-0.0291526 1.96413 3.07145
-0.0293817 2.01096 4.04442
0.73332 -0.0169739 -2.42633
0.746875 0.0955593 -2.8716
1.11042 -0.0399111 -2.91091
0.742527 -0.0273904 -1.32379
1.08462 -0.00463355 -1.93937
0.772737 -0.0633375 -0.0866902
1.13867 -0.0526896 -0.706993
0.754196 -0.0190004 1.15048
1.15942 -0.0658664 0.531527
0.728292 0.0633428 2.25372
1.11125 0.0260819 1.76423
0.727929 0.118033 3.22387
0.724498 0.25378 2.76686
1.10182 0.0893717 2.73764
0.727114 0.300065 3.73539
1.10151 0.138907 3.70656
0.760352 0.460941 -2.74575
1.10675 0.225416 -2.83103
0.723683 0.435811 3.27838
0.716082 0.720616 2.84325
1.09458 0.407609 2.79198
0.722545 0.769595 3.81588
1.09722 0.455306 3.76195
0.770143 1.11686 -2.54633
1.13968 0.705623 -2.66202
0.714944 1.0544 3.38075
0.71074 1.49606 2.98206
1.08139 1.02553 2.89297
0.715677 1.54589 3.95662
1.08976 1.07867 3.86889
0.76299 1.57325 -1.94958
1.14218 1.54588 -2.43433
0.756081 1.67325 -0.870086
1.13988 1.61533 -1.46868
0.741482 1.79389 0.319274
1.13319 1.74026 -0.274727
0.722581 1.88356 1.5087
1.11209 1.84715 0.912203
0.712387 1.94095 2.58839
1.09006 1.91564 2.10638
0.711473 1.98754 3.55793
1.08447 1.96255 3.07249
1.08437 2.00963 4.04518
1.46172 -0.0275708 -2.42395
1.4703 0.0899454 -2.87034
1.48076 -0.0299328 -1.32257
1.43887 0.134203 -1.89999
1.52536 -0.0552184 -0.0887759
1.50862 0.105404 -0.672132
1.51647 -0.0207841 1.14527
1.54227 0.0971521 0.560094
1.48478 0.0521107 2.24815
1.48903 0.179208 1.78849
1.4754 0.110245 3.22032
1.4719 0.243201 2.76276
1.47162 0.294148 3.73311
1.44745 0.251719 -2.34637
1.48608 0.470098 -2.7473
1.46672 0.269539 -1.24955
1.4629 0.523856 -1.77798
1.52554 0.257774 -0.0232628
1.52321 0.56212 -0.563263
1.51483 0.297144 1.20331
1.53417 0.585972 0.651737
1.47616 0.370298 2.3031
1.47204 0.650725 1.86702
1.46812 0.427103 3.27554
1.45989 0.712523 2.8417
1.46444 0.764378 3.81496
1.50153 0.742235 -2.1789
1.51171 1.13464 -2.55002
1.51939 0.816437 -1.09169
1.50889 1.19556 -1.58232
1.53184 0.890318 0.111737
[...]
POINT_DATA 29498
VECTORS point_vectors float
-0.348608 -1.2718 2.2615
0.0294213 0.0637613 0.171773
-1.17293 0.703168 1.88949
0.144985 -0.133637 1.14502
0.35091 -1.26735 2.25612
-0.0292439 0.0639238 0.172563
1.20532 0.713528 1.95
-0.142501 -0.132732 1.15093
0.00191338 0.000290498 0.0682194
0.0133651 -0.00784569 0.237168
-0.0745829 -0.0609021 0.331122
0.0246914 0.0246743 0.0677614
-0.00206767 0.000264388 0.0706963
-0.0125674 -0.00756321 0.234103
0.0759892 -0.0619861 0.339805
-0.024123 0.0241875 0.0664089
-0.591369 -0.270587 19.767
-1.29673 -0.720529 20.2549
-0.585786 -0.439928 21.1128
-0.0824014 -0.194734 21.2668
0.498611 0.0997411 21.2515
0.804457 0.242861 20.9999
0.824767 0.11752 20.7797
-0.724689 -0.196353 19.6735
-1.77349 -0.564784 20.2487
-0.69554 -0.417677 21.184
-0.12649 -0.275013 21.3809
0.687437 -0.0351962 21.3744
0.963129 0.0286119 21.0387
0.980583 -0.0911862 20.8452
-0.872558 0.0833064 19.6693
-1.74616 0.158365 20.4269
-0.927454 -0.147951 21.099
-0.360223 -0.237885 21.4771
0.555157 -0.418276 21.3174
0.790141 -0.491962 20.9638
0.578772 -0.371886 20.7055
-0.64668 0.437817 19.9812
-0.878131 0.534198 20.5003
-0.704302 0.305029 20.9754
-0.254217 0.00145802 21.2696
0.145139 -0.282633 21.1242
0.323777 -0.340866 20.9752
0.385377 -0.416903 20.6899
-0.542635 -0.569135 19.2048
-1.79771 -3.68365 20.0198
-0.294836 -0.608695 21.4168
0.107646 -0.0458076 20.491
0.430361 1.10349 18.167
0.684186 1.42298 17.4996
1.03613 1.15163 16.6046
-0.735905 -0.48632 18.8046
1.01483 1.38202 8.80687
1.62787 1.04284 12.5654
-1.1642 0.310502 18.3161
1.08893 -0.693198 11.1201
1.00023 -0.737297 15.4167
-0.677242 1.02758 19.5095
-1.02761 1.56474 20.4333
-1.03344 1.16777 21.0015
-0.329506 0.216706 21.6947
0.0986543 -0.456028 21.2284
0.230017 -0.656758 20.9679
0.134284 -0.405928 20.6716
0.579738 -0.546996 19.2732
1.90074 -3.39705 19.9978
0.299763 -0.625236 21.432
-0.112781 -0.0443482 20.5149
-0.369905 1.09712 17.9238
-0.620218 1.44116 17.309
-1.02195 1.17565 16.5059
0.778334 -0.44511 18.924
-0.924901 1.39048 8.48742
-1.63157 1.09097 12.1369
1.18472 0.286758 18.4712
-1.08557 -0.654191 10.7221
-1.00303 -0.742151 14.791
0.681039 1.01522 19.5196
1.02177 1.57706 20.4323
1.02753 1.23287 20.9889
0.323619 0.232518 21.7274
-0.0899684 -0.469147 21.2365
-0.207795 -0.667388 20.9204
-0.149138 -0.409613 20.7718
0.578801 -0.249655 19.8138
1.24496 -0.671547 20.2694
0.589492 -0.432799 21.0963
0.0899987 -0.199036 21.2617
-0.507368 0.107588 21.2734
-0.815423 0.258156 20.993
-0.870647 0.11897 20.6802
0.709093 -0.182237 19.7129
1.7643 -0.5638 20.2544
0.702745 -0.420788 21.1794
0.130624 -0.276152 21.3794
-0.67761 -0.0386056 21.3731
-0.96893 0.0307484 21.0367
-1.01333 -0.0875971 20.774
0.855274 0.0727853 19.7032
1.76333 0.161739 20.4286
0.937439 -0.148754 21.0987
0.361497 -0.235892 21.4799
-0.550133 -0.413605 21.3135
-0.795701 -0.502014 20.9648
-0.587108 -0.382299 20.718
0.643648 0.432237 19.985
0.884246 0.546468 20.4984
0.724749 0.327523 20.9809
0.267377 0.0179844 21.2938
-0.144693 -0.299206 21.1444
-0.300227 -0.3791 20.9362
-0.365924 -0.405879 20.6582
0 0 0
7.90108e-06 -0.00179903 0.0157304
-0.0130186 0.000818163 0.16875
0 0 0
-0.00020487 0.00195832 0.013987
0.0143497 0.0178807 0.505847
0 0 0
-0.00401081 -0.00241445 0.0328561
-0.000819979 0.0400095 -0.0256304
0.101812 -0.00256891 0.730141
0 0 0
0.0132925 0.000604116 0.207223
0 0 0
-0.0154657 0.0167411 0.556778
0.00434606 -0.00266019 0.0328329
-0.104615 -0.00208554 0.743486
0.00553445 -0.000749154 0.113588
0.0644742 -0.0263345 0.628079
4.17252e-08 3.09604e-08 1.58643e-05
0 0 0
1.24759e-07 3.20113e-07 0.000839839
-0.019534 -0.00109658 0.269648
0 0 0
0 0 0
-0.00527048 -0.000681182 0.114521
-0.0803412 -0.0277453 0.767969
1.82932e-05 1.59317e-05 0.000525055
0.0200042 -0.00145158 0.268895
0 0 0
-0.00537905 -0.00142663 0.0972348
0.00142768 0.00657202 0.090425
-7.55862e-09 -1.85683e-08 -3.30179e-05
-7.49957e-08 -1.00356e-08 -2.08848e-05
0 0 0
0.000386623 -0.130559 0.322492
-3.32351e-19 1.57376e-17 -1.36606e-17
-9.54558e-07 0.000679264 0.00770045
-0.000194093 0.0908311 0.273909
7.08332e-07 0.000947145 -0.00223741
0 0 0
0.00539781 -0.00152797 0.09743
-0.00142619 0.00641168 0.0901983
-3.69093 -1.87287 19.7627
-2.8165 -6.01379 19.9805
-2.12137 -1.66199 17.404
1.21932 0.333588 17.9162
0.132454 1.24771 10.3221
0.251866 1.06918 5.53345
-3.60026 0.656981 20.4486
-3.50493 1.45998 16.6683
-2.26898 2.77603 20.5039
0.958087 -0.58567 18.7311
0.505048 -0.237075 6.94209
0.188353 -0.766935 21.0164
2.94827 -5.75894 19.9052
2.12001 -1.51418 17.6204
3.65541 -1.84537 19.8087
-0.0832013 1.21634 10.0558
-0.185165 1.04857 5.37011
-1.20979 0.3281 18.0097
3.47783 1.31687 16.9904
2.2659 2.79359 20.5041
3.63024 0.656665 20.4492
-0.465787 -0.216045 6.65363
-0.200988 -0.768623 20.7868
-0.951491 -0.591363 18.7415
-0.59334 -0.695856 21.0369
-0.166261 -0.186422 15.9692
-0.0435214 -0.448969 20.4697
0.294345 0.012784 15.3531
-1.36217 -0.492874 21.2541
-2.11162 1.29373 20.8832
-0.592167 -0.491213 20.3243
-0.647979 0.251965 22.1024
0.130291 -0.23879 16.4401
0.629618 -0.709482 21.047
-0.294884 0.0132288 15.4401
0.0546627 -0.450227 20.5583
2.12389 1.35162 20.8674
1.37056 -0.498878 21.2062
0.606027 0.253702 21.8897
0.593277 -0.488186 20.3122
-0.964524 -0.502698 19.8573
-0.670097 -0.237259 19.7143
-0.63047 -0.419596 19.5258
-1.01303 -0.649864 20.9363
-1.53631 -0.668671 20.248
-1.84584 -1.68246 20.072
-0.313475 -0.322491 21.1911
-0.644935 -0.43102 21.1517
-0.479219 -0.628058 21.3687
0.192177 -0.0474674 21.3647
-0.104376 -0.240448 21.3152
0.0318223 -0.255938 21.4783
0.685718 0.186645 21.1348
0.605995 0.0565365 21.3578
0.788409 0.492362 21.0588
0.841037 0.188275 20.8772
0.903029 0.162883 21.0464
1.12054 0.707614 20.6393
0.922307 0.0061459 20.7973
1.19425 0.558378 20.1358
-1.26873 -0.378984 19.7271
-0.82596 -0.084008 19.6496
-0.829542 -0.326011 19.2926
-1.28018 -0.543591 21.0898
-1.89961 -0.179556 20.347
-0.4226 -0.369158 21.2368
-0.830188 -0.303877 21.1514
0.253578 -0.150221 21.4961
-0.254321 -0.294777 21.4447
0.871156 0.00483829 21.2081
0.704773 -0.241906 21.3845
1.00707 -0.0158414 20.9666
0.979072 -0.289243 20.9983
1.55256 0.360359 18.6676
0.731376 -0.256481 21.0622
1.55237 0.287663 18.43
-1.45069 0.145809 19.8421
-0.834217 0.329095 19.7824
-1.15818 0.164973 19.1156
-1.30677 -0.0162721 20.9864
-1.28744 0.469124 20.4743
-0.730465 -0.214194 21.284
-0.932005 0.129762 21.0285
0.117742 -0.305364 21.5466
-0.35523 -0.0962785 21.4093
0.707834 -0.446596 21.167
0.282249 -0.392282 21.2336
0.826226 -0.490968 20.7545
0.474169 -0.448537 20.9248
1.10672 -0.811911 19.8693
0.420808 -0.520475 20.8075
0.969663 -0.706207 19.9221
-0.819066 0.544931 20.1941
-0.738907 0.675693 19.7607
-0.815646 0.430872 20.7726
-1.06278 0.969129 20.4676
-0.521451 0.182452 21.1905
-0.914247 0.634355 21.0239
-0.00569675 -0.161616 21.2327
-0.305862 0.0910201 21.4602
0.233755 -0.363374 20.9575
0.135069 -0.370014 21.1843
0.190435 -0.327185 20.8383
0.23674 -0.495531 20.7637
0.171964 -0.35411 20.4102
-1.17262 -1.55068 18.8055
-0.644299 -0.572503 19
0.0333451 -0.788893 18.8783
-0.703432 -1.58458 21.9202
0.0634315 -4.73237 20.839
-0.0658981 -0.30726 20.7242
0.009691 -0.655144 20.6673
0.295783 0.499397 19.1889
-0.00202699 -0.0698696 18.913
0.5041 1.31207 17.534
-0.0024871 0.690216 15.1802
0.949072 1.61951 17.5353
0.901863 1.58477 12.8688
-0.0298451 0.64004 13.0428
1.36354 1.1368 13.3386
0.00330481 1.05665 12.4699
-0.986341 -0.226941 18.4498
0.055656 -0.674192 18.2366
1.5744 1.28872 11.9918
1.34723 0.458325 5.90152
-0.0344022 -1.06012 -2.26892
1.53942 -0.142176 10.2476
-0.00494736 0.107657 0.0457051
-1.03571 0.988405 18.8361
0.0779019 0.564233 17.2462
1.39935 -0.80853 14.0972
0.364803 -0.989408 20.8031
-0.00694254 -0.308885 -0.857009
0.199415 -0.80298 20.5011
0.013469 -1.23007 4.55242
-0.940844 1.50752 19.8703
0.00752286 1.45217 19.221
-0.983749 1.25006 20.7606
-0.00747953 2.27129 20.3738
-0.815638 0.883564 21.567
-0.0397371 2.1727 20.8371
-0.0338364 -0.23745 21.4884
-0.0205562 0.419804 22.0059
0.158845 -0.557946 21.0976
0.000321718 -0.477234 21.384
0.253212 -0.628426 20.8817
0.0011175 -0.837167 20.6845
0.00769856 -0.757775 20.1789
1.22211 -1.42864 18.9307
0.677577 -0.50765 19.1
0.620357 -0.3795 19.5801
0.780666 -1.58416 21.9584
1.81057 -1.52967 20.0886
0.0591943 -0.317651 20.7957
0.494991 -0.625695 21.3373
-0.290584 0.505352 19.224
-0.0304439 -0.260788 21.482
-0.423997 1.28933 17.2701
-0.790052 0.522954 21.0289
-0.897428 1.61873 17.5611
-0.809061 1.57783 12.6486
-1.12257 0.731409 20.572
-1.36949 1.18491 12.9002
-1.17167 0.599793 20.1416
1.02329 -0.202816 18.6005
0.812548 -0.302592 19.3709
-1.51849 1.26728 11.5929
-1.32952 0.482713 5.489
-1.55895 0.388258 18.4963
-1.51535 -0.132559 9.85771
-1.5782 0.337241 18.2962
1.06971 0.937675 18.9006
1.1375 0.152277 19.1917
-1.39929 -0.812819 13.5908
-0.370033 -1.00692 20.6412
-1.11294 -0.827415 19.7392
-0.203326 -0.8086 20.5542
-1.01186 -0.737509 19.7908
0.941937 1.50373 19.8711
0.736136 0.662581 19.7676
0.9716 1.28097 20.7565
1.06674 0.988847 20.4651
0.81337 0.950725 21.601
0.930583 0.676368 21.0248
0.0376933 -0.237902 21.5047
0.308426 0.104716 21.4951
-0.153915 -0.57707 21.0922
-0.136109 -0.385855 21.2042
-0.240305 -0.650063 20.8652
-0.23513 -0.518415 20.7606
-0.135865 -0.340126 20.3633
0.921626 -0.45852 19.9013
0.654512 -0.219319 19.7583
0.992206 -0.618347 20.9093
1.49537 -0.636238 20.2609
0.315247 -0.320392 21.1904
0.650001 -0.428851 21.1415
-0.187844 -0.0537526 21.3589
0.110548 -0.242627 21.311
-0.69282 0.193311 21.1409
-0.604211 0.0535181 21.3596
-0.8535 0.185248 20.8963
-0.908904 0.161263 21.0414
-0.966613 0.0123073 20.7107
1.23912 -0.357939 19.7616
0.809919 -0.0871321 19.6931
1.274 -0.546289 21.0826
1.9121 -0.187204 20.3471
0.428819 -0.371714 21.2361
0.839961 -0.309878 21.1477
-0.249985 -0.147226 21.4902
0.255649 -0.293807 21.442
-0.867383 0.00521037 21.2074
-0.696461 -0.239454 21.3833
-1.0172 -0.0162592 20.9829
-0.986392 -0.29608 20.9987
-0.754706 -0.273317 21.0198
1.42615 0.133789 19.8629
0.821944 0.310205 19.8003
1.31942 -0.0126075 20.9897
1.3078 0.483592 20.4709
0.737598 -0.214432 21.2853
0.956575 0.134372 21.0309
-0.115903 -0.304673 21.5435
0.366293 -0.0912357 21.4266
-0.709602 -0.448494 21.1695
-0.281572 -0.403561 21.235
-0.828487 -0.499348 20.7731
-0.47267 -0.466606 20.9288
-0.437401 -0.513901 20.8059
0.819121 0.545782 20.1938
0.825833 0.44662 20.7729
0.541739 0.20723 21.2067
0.0111544 -0.165844 21.2499
-0.226806 -0.381782 20.9667
-0.208178 -0.352093 20.8225
-1.13673 -0.434567 19.773
-1.56281 -1.70777 18.2269
-1.17893 -0.896394 19.4536
-1.83203 -0.807711 18.9935
-0.729616 -0.386666 19.4124
-2.59875 -1.91693 19.9243
-1.15455 -0.615243 21.0037
-0.591797 -0.846473 17.3376
-1.11756 -1.22838 21.371
-1.69481 -1.2765 21.8395
-0.52147 -0.693402 21.458
-0.369658 -0.350804 21.2169
0.148955 -0.120083 15.0279
-0.203801 -0.448837 21.3637
-0.355606 -0.624157 20.6115
0.0383793 -0.354882 21.2589
0.240173 -0.095773 21.4331
0.266131 0.542233 12.3804
0.398437 0.0828722 21.4519
0.530907 -0.113241 19.0983
1.05431 0.474991 19.6868
0.786839 0.123181 21.1695
0.463523 1.43518 11.5447
0.984142 0.629751 20.8782
1.4247 0.356448 18.333
1.40062 0.6326 19.5363
0.929786 0.110722 20.7333
1.20777 1.84987 14.1838
1.11152 0.547313 20.6715
1.68139 0.272923 18.3483
1.39842 0.405491 18.9162
-1.41339 -0.134134 19.7494
-3.29807 -0.499536 16.1933
-2.36466 0.446717 19.0311
-1.01391 -0.120042 19.1608
-4.6611 -0.440018 20.042
-1.34696 -0.249156 21.058
-1.90126 -0.0613207 21.5237
-0.841574 -0.613583 20.8141
-0.582509 -0.34031 21.2666
-1.28699 -0.669752 20.9341
-0.25796 -0.506175 19.8838
0.202328 -0.251793 21.5659
0.292544 -0.360762 19.7312
1.23736 -0.0410969 16.5558
0.890134 -0.251243 21.1633
0.00422716 0.549644 2.18151
1.02105 -0.722473 19.6213
1.58199 -0.286105 18.1365
0.98813 -0.308427 20.9213
2.46124 0.0357127 8.6027
1.05899 -0.801887 19.96
1.17141 -0.322367 17.6054
-1.17221 0.467268 20.0248
-1.89758 2.26076 18.9453
-0.995824 0.954261 20.0485
-1.01465 0.584888 19.373
-1.91972 1.15113 20.4895
-1.09804 0.277408 20.8505
-1.88578 1.44 21.042
-0.987314 0.768408 20.7871
-1.44221 0.373032 21.0606
-0.733996 0.0350567 21.2728
-2.30358 1.28865 21.8671
-0.694722 0.429541 21.3562
-0.57217 0.0110717 21.7656
0.00953298 -0.256221 21.3829
0.0144659 -0.450077 21.5255
-0.0191162 -0.207072 21.3738
0.274411 -0.574245 21.369
0.415421 -0.448135 21.0632
0.29825 -0.864598 20.854
0.199728 -0.459084 21.0294
0.447453 -0.704894 21.0209
0.431153 -0.44633 20.6506
0.395591 -0.946183 20.4039
0.303016 -0.478095 20.8992
0.338252 -0.597671 20.5358
1.60074 -1.58691 18.3662
0.0633098 -2.39198 18.1536
0.0832671 -3.04066 15.4108
0.0556732 -0.753377 18.5722
0.0087065 -6.01973 21.8206
0.633813 -0.888563 17.9528
0.0250212 -1.71136 21.9594
-0.00819531 -0.145873 12.3839
-0.160899 -0.135057 15.2919
-0.000568048 -0.311722 19.4389
-0.00194577 0.0180778 11.5166
-0.2542 0.535176 12.291
-0.00072735 0.34885 16.9189
-0.0149037 0.474184 6.27149
-0.36874 1.39657 11.269
-0.0285318 0.514923 13.9238
-0.0312961 -1.07972 -1.87749
-0.0454313 -0.0590122 3.72054
-1.12305 1.83749 13.9103
-0.0195192 1.32976 13.4407
-5.43879e-05 -0.2906 -1.01743
-0.0016773 0.602315 6.13891
3.27904 -0.500779 16.5018
0.110301 4.49506 12.8348
0.083304 -0.308942 17.5579
0.0488378 0.564743 2.04031
-0.0124508 0.277806 -0.462418
0.065217 -0.946885 -4.30877
-2.4305 0.0316211 8.12347
0.0172903 -0.638869 1.46241
0.0777205 0.0554588 2.21494
1.90852 2.21184 18.9821
0.00175611 2.15643 19.6722
0.0367219 1.5332 18.1297
-0.00745118 4.38476 20.4729
1.88325 1.47806 21.044
-0.0205317 1.92492 20.6609
-0.0378628 3.12672 19.1733
2.3813 1.39415 21.8201
-0.0358385 1.75551 21.9165
-0.0142078 0.370369 20.574
-0.0336479 -0.466147 21.3868
-0.00953587 -0.219566 21.664
0.00191264 -0.579431 16.7885
-0.300712 -0.868226 20.7045
0.00418809 -0.636675 21.0954
0.0233027 -0.982127 18.991
-0.373005 -0.964436 20.3526
0.00878991 -0.519717 21.0049
0.00347119 -0.569232 19.6866
1.09759 -0.407224 19.818
1.15299 -0.81274 19.5175
1.78399 -0.757083 19.0751
0.71054 -0.368792 19.4765
2.55632 -1.84291 19.9836
1.13839 -0.597854 20.9895
1.11089 -1.14958 21.317
1.65413 -1.27302 21.8121
0.546498 -0.698368 21.4389
0.373685 -0.350078 21.2184
0.213565 -0.454804 21.3573
0.375063 -0.632055 20.6788
-0.0299715 -0.360777 21.2971
-0.237025 -0.0979617 21.4295
-0.400256 0.0908874 21.4367
-0.523015 -0.113812 19.2128
-1.05326 0.495747 19.5439
-0.788264 0.124046 21.1652
-0.983024 0.651937 20.8763
-1.41625 0.364994 18.2498
-1.41317 0.662628 19.4309
-0.937474 0.110902 20.7523
-1.11154 0.608147 20.4784
-1.70188 0.317125 18.1461
-1.37228 0.44509 18.9181
1.37117 -0.131587 19.7826
2.28369 0.382347 19.1217
0.993675 -0.118618 19.2489
4.67286 -0.462139 20.057
1.35081 -0.257361 21.0569
1.91543 -0.0684954 21.5243
0.848105 -0.609199 20.7383
0.588341 -0.343222 21.2679
1.29645 -0.67052 20.9067
0.259429 -0.50129 19.9024
-0.199261 -0.250572 21.5632
-0.288018 -0.360178 19.7356
-1.23892 -0.0429416 16.6363
-0.888826 -0.252174 21.163
-1.02141 -0.718732 19.5371
-1.59964 -0.27587 17.9219
-1.00563 -0.316852 20.939
-1.08345 -0.819891 19.8332
-1.19029 -0.314419 17.1628
1.16362 0.457184 20.029
0.995342 0.954239 20.0482
1.00865 0.559947 19.4091
1.92762 1.16931 20.4883
1.11544 0.28453 20.8549
0.990496 0.793614 20.7836
1.48004 0.391078 21.0556
0.760499 0.0438134 21.2824
0.715331 0.475454 21.3743
0.595491 0.031184 21.7904
-0.0115423 -0.260767 21.403
0.0185293 -0.210969 21.3908
-0.267675 -0.592035 21.3672
-0.419355 -0.465965 21.0704
-0.203245 -0.474447 21.0418
-0.443433 -0.716934 21.0415
-0.426445 -0.479069 20.6502
-0.322077 -0.500779 20.913
-0.311791 -0.640932 20.5297
-1.46096 -0.91265 19.2167
-1.355 -1.32106 21.6463
-0.23818 -0.553018 21.2565
0.524759 0.0259593 20.7016
1.23146 0.583601 19.419
1.3279 0.590852 19.1713
-2.27575 -0.242079 18.8158
-2.00398 -0.527824 21.9397
-0.642463 -0.676306 19.931
0.39557 -0.253939 18.8661
1.41684 -0.171601 17.6447
1.67221 -0.261472 17.3338
-1.65924 1.05634 19.6615
-1.53449 0.606882 20.978
-1.26712 0.27732 21.514
-0.00513893 -0.334452 21.6462
0.403196 -0.663252 21.1627
0.475146 -0.725482 20.8968
0.0815422 -2.84058 17.1093
0.00973621 -0.671303 13.6604
-0.00661563 -0.0653023 11.533
0.000705019 0.341028 8.80171
-0.0531699 -0.326229 4.8838
-0.0115904 0.882426 5.81914
0.112171 -0.536487 12.6262
-0.00280425 -0.415899 -3.4843
0.0864206 -0.189496 -3.16235
0.0255938 3.84743 18.2889
-0.0183313 2.78219 20.8897
-0.0356663 4.10439 21.3107
-0.00408075 -0.419213 17.3974
0.00561114 -0.758275 17.7802
0.0155291 -1.15618 19.2169
1.4326 -0.846648 19.3102
1.33714 -1.2561 21.5716
0.253282 -0.561492 21.2878
-0.521116 0.0257279 20.6994
-1.23405 0.600958 19.3139
-1.32381 0.648533 19.0071
2.21537 -0.239786 18.9149
1.99728 -0.549078 21.926
0.647127 -0.668961 19.8934
-0.395076 -0.254531 18.9091
-1.41296 -0.157432 17.4751
-1.71305 -0.250377 16.9235
1.64324 1.02364 19.6837
1.55187 0.62393 20.9794
1.32298 0.30646 21.5408
0.00609757 -0.337708 21.6645
-0.40073 -0.676837 21.1714
-0.483856 -0.74116 20.9483
0 0 0
0 0 0
-0.0437133 -0.0779054 0.920783
0.00132207 0.00127656 0.00555665
-0.0347799 0.0239289 0.136038
-0.0109289 0.0593661 0.45413
-0.738585 0.15475 1.0126
-0.0199955 0.157071 0.393239
-0.329815 0.0499538 1.40577
-0.00640607 0.00219316 -0.0036342
-0.00924027 -0.000521965 0.126848
0.0123493 -0.0140592 0.206551
0 0 0
0 0 0
0.0724147 -0.0610457 0.943773
0.0381396 0.0257315 0.148429
-0.0016952 0.00165988 0.00712123
0.00779072 0.044567 0.336359
0.01951 0.156486 0.39173
0.720409 0.147635 0.988668
0.328797 0.0503211 1.40236
0.0075977 -0.000363606 0.120612
0.00601875 0.00206831 -0.0034071
-0.0130206 -0.0152037 0.219256
0.000269283 -0.00229912 0.339292
0.0013116 -4.04059e-05 0.0280463
-0.000854151 0.00227992 0.0565166
0 0 0
-0.0232128 0.0276847 0.329123
0.0073441 -0.000523011 0.216525
0 0 0
0 0 0
-0.137455 -0.118566 0.974359
0 0 0
-0.175457 -0.106278 0.548834
-0.00184631 -6.62191e-05 0.0023565
0.165342 0.154563 0.651884
-0.00326106 0.0180784 0.115171
0 0 0
0.059741 -0.0272797 0.328147
-0.0122089 -0.00635305 0.43643
0 0 0
-0.00126539 -4.81485e-05 0.0282481
0.00107468 0.00243388 0.0584498
0.0246202 0.0337888 0.338323
0 0 0
-0.00696504 -0.000459345 0.219176
0 0 0
0.137733 -0.117408 0.983433
-2.01771e-18 5.95577e-20 -2.57922e-18
0 0 0
0.176899 -0.106545 0.55048
-0.166326 0.154879 0.653673
-0.0596569 -0.0295474 0.339551
0.00328483 0.0179387 0.114764
0 0 0
-0.000613044 -0.000627013 0.00834797
0 0 0
5.55265e-05 -0.00746126 0.151151
-5.67691e-05 -0.19006 0.0925778
-0.000135665 1.41889e-05 0.00648371
5.19515e-07 -2.97678e-08 -5.50369e-05
0.00466109 0.00402697 0.0375719
0 0 0
-6.61555e-06 0.000578262 0.00551936
-0.00194788 -0.0831573 -0.0813214
0.00495448 0.0173693 0.261137
0.000629211 0.00105317 0.0193271
-0.00023234 0.268836 0.208889
-1.91893e-05 0.00928073 0.048204
0 0 0
-0.017561 0.00200424 0.0825817
0 0 0
-4.71642e-05 0.00132394 -0.00416395
0.027095 0.0600771 0.463936
0.00111791 0.00112753 -0.00117872
0 0 0
0.00014781 -0.000172365 0.00205313
-1.27512e-07 -1.11968e-08 -2.09233e-05
0.00149396 0.00026991 0.0518647
0 0 0
-0.00438244 0.00374298 0.0342377
0 0 0
-0.00496932 0.0175225 0.26726
0.0177064 0.00191312 0.0831641
0 0 0
-0.000786372 0.000863145 -0.000875202
-0.0294495 0.0666196 0.509199
-0.031729 -0.0470567 0.614933
0 0 0
0 0 0
-0.00238976 -0.00570728 0.0540021
-3.78424e-07 2.1765e-07 0.000176207
1.6585e-07 -1.88729e-08 -1.44537e-05
-0.00754934 0.00742265 0.147915
0.000846856 0.0016512 0.0796922
-4.99967e-08 -9.95665e-09 -1.76938e-05
2.33077e-05 0.00365703 0.0604627
0 0 0
-0.0866648 0.117092 0.291523
-1.28535e-05 0.000375604 0.00628852
0.000699769 0.00778332 0.0171929
0.000163919 0.00703124 0.126679
8.32183e-06 -5.20053e-05 0.000299178
0 0 0
0.0324186 -0.0481124 0.619837
0 0 0
0.00241496 -0.00577441 0.0543025
0.00754591 0.00722459 0.147854
-0.00084736 0.0016051 0.0796573
0.0957096 0.128119 0.320091
0 0 0
-0.0597268 -0.0068806 0.286841
0 0 0
0.00092232 -0.000403494 0.0505461
-0.00177365 -0.00876055 0.0665018
0 0 0
0 0 0
-0.00584281 -0.00402382 0.126685
0 0 0
0.00193994 -0.000800592 0.0515382
-0.00657181 0.0142401 0.203431
0.00386061 0.00315142 0.0397524