# vtk DataFile Version 2.0
tet_velo
ASCII
DATASET UNSTRUCTURED_GRID
POINTS 29498 float
-0.765 0.355 -2.02706
-0.710408 0.455 2.185
-0.715 0.985567 -1.935
-0.646234 1.455 1.885
0.762111 0.355 -2.025
0.705 0.445 2.1844
0.705 0.983892 -1.945
0.647644 1.455 1.885
-0.782428 0.352708 -0.62304
-0.854582 0.29569 0.78098
-0.759247 1.20921 -0.661667
-0.721429 1.3508 0.611667
0.777021 0.351053 -0.621867
0.851297 0.28774 0.781267
0.756073 1.21112 -0.668333
0.720549 1.35175 0.608333
-1.52974 -0.153737 -3.06754
-1.52879 -0.0743398 -1.99589
-1.54782 -0.0923828 -0.588872
-1.58413 -0.156075 0.843879
-1.52156 -0.0684082 2.25304
-1.49348 0.0312804 3.33526
-1.49491 0.122438 4.39777
-1.52619 0.235422 -3.07025
-1.52291 0.340059 -2.01241
-1.54419 0.365621 -0.630608
-1.57689 0.330666 0.76253
-1.47467 0.437314 2.14676
-1.46084 0.536558 3.22718
-1.47643 0.623408 4.29392
-1.50562 0.959806 -3.03794
-1.48762 1.05755 -1.97301
-1.51198 1.23188 -0.679976
-1.48492 1.34295 0.603209
-1.40863 1.4459 1.89846
-1.42244 1.53937 2.98415
-1.45351 1.62077 4.07169
-1.49732 2.20479 -3.08876
-1.48979 2.3279 -2.04443
-1.49325 2.54105 -0.792211
-1.48448 2.74813 0.431455
-1.46392 2.90227 1.68438
-1.45911 2.99645 2.7302
-1.46588 3.07696 3.80331
-0.773271 -0.143912 -3.07696
-0.764079 -0.058601 -2.00879
-0.772886 -0.0962683 -0.58787
-0.824601 -0.182885 0.859734
-0.778682 -0.0682665 2.28121
-0.757353 0.0330711 3.35424
-0.759566 0.12267 4.40855
-0.776504 0.235248 -3.07459
-0.73216 0.543069 3.24282
-0.746549 0.626099 4.30196
-0.761204 0.929055 -3.02439
-0.703786 1.54719 2.98119
-0.730308 1.62602 4.0707
-0.748391 2.18035 -3.07502
-0.739192 2.30314 -2.029
-0.745798 2.53084 -0.783389
-0.747472 2.75299 0.429018
-0.736824 2.91143 1.67461
-0.733431 3.00428 2.72056
-0.737436 3.08278 3.79615
0.744864 -0.144385 -3.07776
0.768839 -0.0590674 -2.00785
0.792489 -0.0983239 -0.587221
0.808966 -0.189267 0.859796
0.712097 -0.0763177 2.28078
0.705132 0.0268569 3.35371
0.707701 0.117916 4.40789
0.729919 0.234818 -3.07613
0.697223 0.537074 3.24232
0.704606 0.621598 4.30131
0.711575 0.928289 -3.02972
0.681355 1.54441 2.98072
0.701469 1.62276 4.06997
0.741578 2.17993 -3.07962
0.750292 2.30293 -2.03389
0.745669 2.53087 -0.787504
0.723839 2.75265 0.426229
0.706914 2.91041 1.67288
0.707563 3.00264 2.71923
0.713377 3.08067 3.79493
1.50661 -0.154814 -3.07004
1.53039 -0.0754648 -1.99659
1.56012 -0.0959451 -0.58937
1.58068 -0.165599 0.843206
1.49122 -0.0807769 2.25215
1.45662 0.0204826 3.33412
1.45187 0.113512 4.39637
1.49164 0.234549 -3.07412
1.51737 0.339639 -2.01431
1.5439 0.363388 -0.632046
1.58204 0.321781 0.761532
1.47842 0.42528 2.14597
1.4417 0.526329 3.2261
1.44358 0.61494 4.29253
1.4687 0.958755 -3.04667
1.4787 1.05697 -1.98349
1.51024 1.23276 -0.687785
1.49139 1.34093 0.599075
1.42131 1.44147 1.8972
1.41543 1.53337 2.98288
1.43297 1.61434 4.07009
1.48938 2.20393 -3.09728
1.49661 2.32738 -2.05327
1.49382 2.54074 -0.79974
1.46947 2.747 0.426167
1.4443 2.89985 1.68091
1.4404 2.99297 2.72744
1.44648 3.07267 3.80078
-0.772039 0.670283 -2.01307
-0.00144449 0.303146 -2.07788
-0.821036 0.306532 -1.32505
-0.731455 0.955 2.08813
-0.00270399 0.408664 2.22604
-0.777776 0.380064 1.48299
-0.005 1.02938 -1.98465
-0.723095 1.08336 -1.29833
0.000705004 1.47835 1.90835
-0.69903 1.4181 1.24833
0.764848 0.669446 -2.01629
0.818127 0.304465 -1.32343
0.730232 0.95 2.08861
0.768581 0.375937 1.48283
0.716295 1.08326 -1.30667
0.699278 1.41856 1.24667
-0.838522 0.304182 0.07897
-0.860473 0.780961 -0.642353
-0.00270338 0.222948 -0.622454
-0.872521 0.823243 0.696323
-0.00164246 0.223639 0.781123
-0.739793 1.27946 -0.025
-0.00158696 1.47858 -0.665
-0.000440269 1.66198 0.61
0.829284 0.304272 0.0797
0.858383 0.781086 -0.6451
0.871485 0.819745 0.6948
0.73769 1.28081 -0.03
-0.864131 0.725622 -1.31169
-0.867219 0.802102 0.026985
-0.874323 0.889121 1.36566
-0.00207393 0.219541 -1.32424
-0.00217292 0.229227 0.079335
-0.00217323 0.358082 1.48291
-0.00322224 0.669865 -2.18049
-0.000999495 0.9525 2.1188
-0.00329348 1.12363 -1.3025
-0.00101361 1.63026 -0.0275
0.000132368 1.65381 1.2475
0.873077 0.725266 -1.31505
0.866235 0.800416 0.02485
0.877175 0.884873 1.36475
-1.14396 0.34753 -2.01974
-0.764539 0.148199 -2.01792
-0.770752 0.295124 -2.55082
-1.09254 0.446157 2.16588
-0.744545 0.193367 2.2331
-0.721284 0.499034 2.71391
-1.10131 1.02156 -1.954
-0.738102 0.957311 -2.4797
-0.727096 1.64435 -1.982
-1.02743 1.45045 1.89173
-0.67501 1.5011 2.43309
-0.691529 2.18321 1.7798
0.765475 0.147966 -2.01643
0.746015 0.294909 -2.55056
1.13974 0.34732 -2.01965
0.708548 0.184341 2.23259
0.701111 0.491037 2.71336
1.09171 0.43514 2.16518
0.708287 0.956091 -2.48736
0.727646 1.64341 -1.98944
1.09185 1.02043 -1.96425
0.664499 1.49971 2.43286
0.677279 2.18271 1.77894
1.03448 1.44823 1.8911
-1.16331 0.359165 -0.626824
-0.777657 0.12822 -0.605455
-1.21574 0.313178 0.771755
-0.839591 0.0564024 0.820357
-1.13561 1.22055 -0.670821
-0.752522 1.87002 -0.722528
-1.10318 1.34687 0.607438
-0.734451 2.05189 0.520342
0.784755 0.126364 -0.604544
1.16046 0.357221 -0.626956
0.830132 0.0492363 0.820531
1.21667 0.30476 0.771399
0.750871 1.87099 -0.727919
1.13315 1.22194 -0.678059
0.722194 2.0522 0.517281
1.10597 1.34634 0.603704
-1.52926 -0.114039 -2.53171
-1.52797 0.0408423 -3.0689
-1.15151 -0.148825 -3.07225
-1.5383 -0.0833613 -1.29238
-1.52585 0.13286 -2.00415
-1.14643 -0.0664704 -2.00234
-1.56598 -0.124229 0.127503
-1.54601 0.136619 -0.60974
-1.16035 -0.0943255 -0.588371
-1.55285 -0.112242 1.54846
-1.58051 0.0872952 0.803205
-1.20437 -0.16948 0.851806
-1.50752 -0.0185639 2.79415
-1.49811 0.184453 2.1999
-1.15012 -0.0683374 2.26713
-1.49419 0.076859 3.86652
-1.47716 0.283919 3.28122
-1.12542 0.0321757 3.34475
-1.48567 0.372923 4.34585
-1.12724 0.122554 4.40316
-1.52455 0.287741 -2.54133
-1.51591 0.597614 -3.0541
-1.15135 0.235335 -3.07242
-1.53355 0.35284 -1.32151
-1.50527 0.698804 -1.99271
-1.56054 0.348143 0.0659612
-1.52809 0.79875 -0.655292
-1.52578 0.38399 1.45464
-1.53091 0.836809 0.68287
-1.46775 0.486936 2.68697
-1.44165 0.941608 2.02261
-1.46863 0.579983 3.76055
-1.44164 1.03796 3.10567
-1.0965 0.539814 3.235
-1.46497 1.12209 4.18281
-1.11149 0.624753 4.29794
-1.49662 1.00868 -2.50548
-1.50147 1.5823 -3.06335
-1.13341 0.94443 -3.03117
-1.4998 1.14471 -1.32649
-1.48871 1.69273 -2.00872
-1.49845 1.28742 -0.0383831
-1.50262 1.88646 -0.736093
-1.44678 1.39443 1.25083
-1.4847 2.04554 0.517332
-1.41554 1.49263 2.44131
-1.43627 2.17409 1.79142
-1.43798 1.58007 3.52792
-1.44078 2.26791 2.85717
-1.06311 1.54328 2.98267
-1.45969 2.34887 3.9375
-1.09191 1.6234 4.07119
-1.49355 2.26635 -2.5666
-1.12286 2.19257 -3.08189
-1.49152 2.43448 -1.41832
-1.11449 2.31552 -2.03672
-1.48887 2.64459 -0.180378
-1.11952 2.53594 -0.7878
-1.4742 2.8252 1.05792
-1.11598 2.75056 0.430236
-1.46151 2.94936 2.20729
-1.10037 2.90685 1.67949
-1.46249 3.0367 3.26675
-1.09627 3.00036 2.72538
-1.10166 3.07987 3.79973
-0.768675 -0.101257 -2.54288
-0.774887 0.0456676 -3.07578
-0.0142031 -0.144149 -3.07736
-0.768483 -0.0774346 -1.29833
0.00237995 -0.0588342 -2.00832
-0.798743 -0.139577 0.135932
0.00980105 -0.0972961 -0.587546
-0.801641 -0.125576 1.57047
-0.00781727 -0.186076 0.859765
-0.768017 -0.0175977 2.81773
-0.0332927 -0.0722921 2.281
-0.758459 0.0778705 3.8814
-0.744756 0.28807 3.29853
-0.0261104 0.029964 3.35398
-0.753057 0.374384 4.35525
-0.0259325 0.120293 4.40822
-0.768854 0.582151 -3.04949
-0.0232929 0.235033 -3.07536
-0.739354 0.584584 3.77239
-0.717973 1.04513 3.112
-0.0174685 0.540071 3.24257
-0.738428 1.12606 4.18633
-0.0209715 0.623848 4.30164
-0.754797 1.5547 -3.04971
-0.0248146 0.928672 -3.02706
-0.717047 1.58661 3.52594
-0.718609 2.27573 2.85087
-0.0112156 1.5458 2.98095
-0.733872 2.3544 3.93342
-0.0144194 1.62439 4.07033
-0.743791 2.24174 -2.55201
-0.00340646 2.18014 -3.07732
-0.742495 2.41699 -1.4062
0.00555027 2.30303 -2.03145
-0.746635 2.64191 -0.177186
-6.43503e-05 2.53085 -0.785447
-0.742148 2.83221 1.05181
-0.0118161 2.75282 0.427623
-0.735128 2.95785 2.19758
-0.0149548 2.91092 1.67375
-0.735434 3.04353 3.25836
-0.0129344 3.00346 2.71989
-0.0120295 3.08173 3.79554
0.756852 -0.101726 -2.54281
0.737392 0.0452164 -3.07694
1.12574 -0.1496 -3.0739
0.780664 -0.0786956 -1.29754
1.14961 -0.0672661 -2.00222
0.800727 -0.143796 0.136288
1.17631 -0.0971345 -0.588296
0.760531 -0.132792 1.57029
1.19482 -0.177433 0.851501
0.708614 -0.0247304 2.81725
1.10166 -0.0785473 2.26647
0.706416 0.0723864 3.8808
0.701178 0.281965 3.29802
1.08087 0.0236697 3.34392
0.706153 0.369757 4.3546
1.07979 0.115714 4.40213
0.720747 0.581554 -3.05292
1.11078 0.234683 -3.07512
0.700914 0.579336 3.77182
0.689289 1.04074 3.11152
1.06946 0.531701 3.23421
0.703038 1.12218 4.18564
1.07409 0.618269 4.29692
0.726576 1.55411 -3.05467
1.09014 0.943522 -3.03819
0.691412 1.58359 3.52534
0.694459 2.27353 2.84997
1.04839 1.53889 2.9818
0.707423 2.35171 3.93245
1.06722 1.61855 4.07003
0.745935 2.24143 -2.55675
1.11548 2.19193 -3.08845
0.747981 2.4169 -1.4107
1.12345 2.31516 -2.04358
0.734754 2.64176 -0.180637
1.11974 2.5358 -0.793622
0.715377 2.83153 1.04956
1.09665 2.74982 0.426198
0.707238 2.95653 2.19605
1.07561 2.90513 1.6769
0.71047 3.04166 3.25708
1.07398 2.99781 2.72333
1.07993 3.07667 3.79786
1.5185 -0.115139 -2.53332
1.49912 0.0398675 -3.07208
1.54526 -0.0857049 -1.29298
1.52388 0.132087 -2.00545
1.5704 -0.130772 0.126918
1.55201 0.133722 -0.610708
1.53595 -0.123188 1.54768
1.58136 0.078091 0.802369
1.47392 -0.0301472 2.79314
1.48482 0.172252 2.19906
1.45425 0.0669971 3.86525
1.44916 0.273406 3.28011
1.44773 0.364226 4.34445
1.50451 0.287094 -2.54421
1.48017 0.596652 -3.0604
1.53063 0.351514 -1.32318
1.49803 0.698304 -1.9989
1.56297 0.342585 0.0647428
1.52707 0.798074 -0.659916
1.53023 0.37353 1.45375
1.53671 0.831355 0.680303
1.46006 0.475804 2.68604
1.44987 0.933373 2.02159
1.44264 0.570634 3.75932
1.42857 1.02985 3.10449
1.43827 1.11464 4.18131
1.4737 1.00786 -2.51508
1.47904 1.58134 -3.07197
1.49447 1.14486 -1.33564
1.48765 1.69218 -2.01838
1.50081 1.28684 -0.0443551
1.50203 1.88675 -0.743763
[...]
POINT_DATA 29498
VECTORS point_vectors float
-3.02645 -2.98179 6.93088
0.223635 0.0696582 0.455893
-1.5715 1.4919 3.7739
-0.09628 -0.127254 0.15673
2.66499 -2.58059 6.25095
-0.0931064 0.0434393 0.219814
2.6493 2.2519 5.34114
0.106 -0.12449 0.148594
0 0 0
0.386813 0.0347251 3.31393
-0.115552 -0.092381 0.620804
0.000597821 0.00181832 0.0102059
0 0 0
-0.402978 -0.0927593 4.60734
0.145724 -0.117636 0.744128
-0.000521094 0.00162292 0.0091565
-0.681377 -0.373255 19.9157
-1.28269 -0.810926 20.6675
-0.456349 -0.459531 21.5762
0.190722 -0.0981283 21.819
0.833643 0.18568 21.6391
1.09222 0.293341 21.4131
1.08913 0.0916727 20.9016
-0.830598 -0.292388 19.7485
-1.87256 -0.689522 20.6057
-0.71958 -0.607187 21.6865
0.122494 -0.361697 21.9006
1.07486 -0.213543 21.7939
1.48131 -0.212996 21.4627
1.38422 -0.234121 20.9794
-0.971386 0.0963672 19.6066
-2.16208 0.311737 20.4208
-1.57087 -0.256368 21.5984
-0.563618 -0.422247 21.9473
0.121001 -0.69142 21.8982
0.558221 -0.850513 21.5468
0.51428 -0.709008 20.5971
-0.449378 0.343488 19.9665
-0.739349 0.559779 20.3459
-0.750717 0.510335 21.0488
-0.43328 0.140356 21.5091
-0.149142 -0.120631 21.4265
-0.0763657 -0.220128 21.2848
0.0778851 -0.217519 21.1669
-0.695105 -0.835293 19.3487
-1.90947 -3.19699 20.9208
-0.417294 -0.60384 22.0087
0.108342 0.152726 22.1663
1.01591 1.31344 20.953
1.6912 1.66864 19.3771
1.58611 1.0974 18.3807
-0.933859 -0.714829 18.8199
2.591 0.672089 10.9743
2.62006 0.751082 15.4855
-1.14828 0.303195 18.4116
-0.423171 -1.35736 11.0887
0.384697 -2.12111 14.2083
-0.382005 0.626619 19.7219
-0.702271 1.19215 20.1468
-0.741592 1.19411 21.0774
-0.364337 0.42439 21.6783
-0.0935393 -0.0231003 21.5206
-0.0430345 -0.188705 21.5484
0.126825 -0.339133 21.1451
0.672656 -0.84484 19.3139
1.90643 -3.16453 20.9166
0.446877 -0.552872 22.073
-0.100573 0.149765 22.1516
-0.918918 1.34575 20.9434
-1.62043 1.78052 19.4359
-1.58398 1.1289 17.9538
0.906064 -0.744394 18.7757
-2.53104 0.727651 10.1272
-2.68929 0.922179 14.8027
1.08201 0.343317 18.3201
0.589966 -1.16386 10.0968
-0.39398 -2.12478 13.1522
0.38178 0.626886 19.7161
0.705954 1.17847 20.1452
0.740486 1.1912 21.0712
0.351117 0.439664 21.6903
0.0865565 -0.0210923 21.4948
0.0301704 -0.180962 21.5098
-0.120453 -0.342378 21.1207
0.681824 -0.386377 19.8904
1.28639 -0.81365 20.6727
0.451741 -0.458037 21.5578
-0.18474 -0.100065 21.8083
-0.830063 0.213547 21.6505
-1.11439 0.317916 21.3484
-1.07519 0.134108 21.0178
0.843566 -0.309797 19.7203
1.90155 -0.705627 20.6056
0.701499 -0.612333 21.69
-0.117176 -0.36341 21.8931
-1.05103 -0.215611 21.7937
-1.47701 -0.195685 21.468
-1.49671 -0.291422 20.8274
0.98046 0.0976328 19.5735
2.17514 0.326058 20.4083
1.5826 -0.251853 21.5875
0.565247 -0.416191 21.933
-0.120391 -0.684931 21.8635
-0.535703 -0.848827 21.6158
-0.569546 -0.74945 20.6824
0.46882 0.334241 19.9783
0.733801 0.551132 20.3528
0.75452 0.506799 21.0569
0.436676 0.146449 21.5183
0.159272 -0.114455 21.4306
0.0730526 -0.195025 21.3077
-0.0775644 -0.215627 21.1656
-1.60196 -0.141585 2.31593
-0.000171017 -0.772628 2.2349
-0.0301548 -0.0144486 1.08654
-0.0470463 -0.146781 0.0248788
-0.00432593 0.0714983 0.180607
0.124713 -0.0320425 0.615297
-0.00242699 0.100399 0.298312
-0.377717 -0.0738806 0.572766
0 0 0
0.00140804 0.00169048 0.0455358
1.17297 -0.0292447 1.5066
0.0311815 -0.0248741 1.07312
0.0567447 -0.167666 0.0201525
-0.0402402 -0.00956484 0.215201
0.38374 -0.0834581 0.603771
-0.00142684 0.00183495 0.047592
0.0463984 -0.0108912 1.65454
0 0 0
-4.97759e-06 0.000539842 0.0499245
0 0 0
0 0 0
0.0062559 0.0244529 0.0658076
0.000541411 0.19028 0.248169
0 0 0
-0.0432099 -0.0267949 1.63006
0 0 0
0 0 0
-0.00670699 0.0271684 0.0745977
0 0 0
0 0 0
0.00114807 -0.00052175 0.0255355
-7.95132e-09 -4.97767e-06 9.80427e-05
-6.61094e-06 4.55237e-06 0.00252853
9.57455e-07 5.87456e-07 1.49963e-05
0.0116778 0.0571573 0.037577
6.30571e-05 -0.0112577 0.000624451
-7.86146e-06 0.000690267 0.00800125
-2.93405e-05 0.0128886 0.175953
0 0 0
0.000915172 -0.00299399 0.019566
1.27468e-21 -2.71453e-18 -1.78391e-17
-0.00196191 -0.000456402 0.0485854
-3.50409 -1.68569 20.6482
-3.31979 -5.11314 21.2225
-2.49789 -1.99566 17.6436
1.76927 -0.0316007 18.7293
1.67337 1.35385 15.4092
1.62686 0.428843 7.23421
-4.11833 1.17097 20.3651
-3.23696 1.69043 16.6298
-1.70283 2.35172 19.8125
0.0474613 -0.777018 19.2615
-0.817837 -0.923401 5.81199
-0.332795 -0.165758 21.8596
3.29504 -5.06595 21.211
2.49417 -2.08253 17.4905
3.53464 -1.71962 20.6244
-1.61571 1.37518 15.1076
-1.58541 0.437037 7.01404
-1.75216 -0.0203681 18.758
3.19516 1.74397 16.4461
1.70713 2.33619 19.804
4.16639 1.21518 20.3032
0.891414 -0.900089 5.21243
0.327707 -0.145645 21.8561
-0.0329981 -0.778821 19.5014
-0.429312 -0.907428 21.4878
0.212419 -0.261391 14.0047
0.393092 -0.411936 21.5633
0.38502 0.219219 18.7386
-2.80767 -0.613227 21.9655
-2.334 2.40554 21.2192
-0.928192 -0.701479 21.3221
-0.882886 0.610801 22.1806
-0.00867805 -0.139104 14.676
0.34586 -0.902563 21.4444
-0.383039 0.212233 18.9559
-0.386621 -0.411038 21.5738
2.32848 2.39881 21.2038
2.82484 -0.625929 21.9376
0.874999 0.630708 22.1873
0.928516 -0.685031 21.3427
-1.048 -0.644961 20.1205
-0.772804 -0.363159 19.8298
-0.740886 -0.610645 19.6462
-0.898056 -0.665184 21.3514
-1.58751 -0.802604 20.6519
-1.73983 -1.63084 20.7386
-0.129258 -0.279721 21.7225
-0.571495 -0.541481 21.6403
-0.414382 -0.549974 21.831
0.526799 0.0395188 21.7745
0.169472 -0.227062 21.8229
0.255981 0.0122525 22.0072
1.04627 0.274966 21.5086
1.00109 0.0237101 21.7368
1.10838 0.638052 21.7157
1.24319 0.230424 20.7137
1.34829 0.191863 21.2196
1.50856 0.845104 21.4643
1.25705 0.0333848 21.1851
1.24869 0.500939 21.4735
-1.44135 -0.5093 19.9106
-0.943739 -0.132128 19.6181
-0.94488 -0.499971 19.3788
-1.31992 -0.673355 21.4495
-2.27165 -0.276771 20.5335
-0.265782 -0.478619 21.8
-1.15043 -0.606435 21.7091
0.564828 -0.303162 21.9434
-0.185707 -0.506876 21.9801
1.32814 -0.218627 21.6538
0.710377 -0.728413 21.7987
1.4622 -0.231966 21.461
1.22355 -0.846555 21.5946
2.26683 0.16651 19.4694
1.00237 -0.632714 20.913
2.09369 -0.125401 18.9638
-1.68759 0.238602 19.7454
-0.701846 0.33875 19.7818
-1.13356 0.21445 19.1389
-1.92437 0.0254974 21.1527
-1.34423 0.69113 20.3027
-1.04406 -0.372307 21.8902
-1.33634 0.464385 21.2704
-0.188854 -0.532047 21.9578
-0.622576 0.0208338 21.7045
0.342463 -0.800581 21.7312
-0.144121 -0.305887 21.6535
0.689378 -0.904553 22.0319
0.0733769 -0.445075 21.5521
0.536671 -1.19683 20.9566
0.160195 -0.578969 21.1676
0.443715 -1.70041 22.1123
-0.623724 0.462577 20.1377
-0.456858 0.474725 19.842
-0.778338 0.566234 20.7557
-0.774229 0.875475 20.2652
-0.615306 0.345283 21.2955
-0.774966 0.821787 21.0622
-0.295274 -0.0119593 21.5004
-0.461906 0.270943 21.6305
-0.102752 -0.204263 21.4592
-0.168631 -0.071804 21.624
0.00821282 -0.240946 21.306
-0.0860514 -0.22944 21.7178
0.0560331 -0.272278 21.2661
-1.37254 -1.92887 19.241
-0.784649 -0.786164 19.1083
-0.0119005 -1.1653 18.9518
-1.03092 -1.44263 22.1121
0.0125223 -4.60096 21.3711
-0.140571 -0.165809 21.9743
0.00687348 -0.807657 21.3402
0.626875 0.880509 21.6954
-0.00659489 -0.122722 21.4267
1.3251 1.5706 20.8
0.00828731 1.32287 18.8926
1.34803 1.48924 19.4758
2.39827 1.89845 16.3003
0.0384713 2.27956 18.0807
2.22286 1.14985 16.6102
0.131158 2.45052 17.6049
-1.16865 -0.251276 18.4308
-0.0292264 -0.993616 18.1595
2.51173 1.40958 13.3249
0.371828 -0.523162 4.48705
0.0992454 1.40719 2.07953
2.20233 -1.49722 10.5408
0.11329 3.09141 7.78389
-0.683906 0.747991 19.1806
-0.0740335 0.528323 17.4946
0.457125 -1.65175 14.0168
-0.134374 -0.533866 21.7302
-0.0440998 1.22349 -6.29362
0.168361 -0.775968 20.4173
-0.0048075 4.22267 -3.19272
-0.55296 0.952498 19.8584
-0.000458037 0.76293 19.55
-0.768537 1.27175 20.5867
0.00755033 1.59936 19.9943
-0.585578 0.841587 21.5201
-0.00011237 1.70864 21.0365
-0.248781 0.135364 21.6444
-0.011808 0.62574 21.8365
-0.123492 -0.140712 21.7258
-0.00622963 0.0850056 21.6696
0.0191178 -0.308283 21.448
-0.0137349 -0.242971 21.9626
-0.00507336 -0.294876 21.1716
1.35899 -1.94328 19.2325
0.762475 -0.809745 19.0688
0.73597 -0.628246 19.6275
1.03182 -1.40016 22.1131
1.73386 -1.62446 20.7279
0.14643 -0.184661 21.9801
0.40587 -0.525931 21.8123
-0.578913 0.892108 21.6791
-0.244278 0.00906439 21.9953
-1.21686 1.61745 20.6649
-1.11549 0.705147 21.7022
-1.27296 1.62406 19.4805
-2.24463 1.97097 15.8845
-1.55478 0.938106 21.5579
-2.29062 1.34477 15.8606
-1.3161 0.596669 21.1558
1.11398 -0.261671 18.3426
0.945628 -0.504952 19.3283
-2.50765 1.53903 12.7201
-0.257005 -0.267309 3.5786
-2.35579 0.187307 19.1502
-2.20822 -1.5062 9.21405
-2.14073 -0.0522972 18.6469
0.669148 0.759897 19.1585
1.11693 0.219806 19.0918
-0.397528 -1.61267 13.1367
0.1259 -0.498354 21.7109
-0.500151 -1.1951 20.8603
-0.131654 -0.752654 20.4403
-0.414456 -1.78627 22.2108
0.554224 0.945862 19.8545
0.452729 0.482631 19.8364
0.768145 1.26585 20.5838
0.773367 0.864971 20.2649
0.576582 0.854321 21.5157
0.780631 0.819633 21.0582
0.233951 0.14178 21.6395
0.455703 0.282923 21.6396
0.116883 -0.138728 21.7018
0.170425 -0.0653926 21.6301
-0.00846862 -0.304081 21.419
0.0843135 -0.228112 21.7564
-0.0521874 -0.278709 21.275
1.04848 -0.654247 20.1296
0.783231 -0.37486 19.8051
0.910418 -0.665519 21.3433
1.59702 -0.811313 20.6532
0.125829 -0.283977 21.711
0.556424 -0.536469 21.6285
-0.531069 0.0470632 21.7798
-0.160071 -0.229431 21.8006
-1.04965 0.299952 21.5075
-0.996929 0.032045 21.7405
-1.34669 0.280623 20.7153
-1.35269 0.204068 21.2349
-1.25097 0.0726322 21.2823
1.47321 -0.533422 19.8778
0.958017 -0.128258 19.5848
1.32814 -0.68165 21.4624
2.30755 -0.275886 20.5205
0.262845 -0.484496 21.7893
1.13981 -0.607296 21.7067
-0.552238 -0.306112 21.9351
0.18741 -0.498823 21.9755
-1.32629 -0.219468 21.6628
-0.692267 -0.712045 21.8078
-1.51657 -0.208972 21.4324
-1.25061 -0.848945 21.5794
-1.05727 -0.670368 20.7684
1.68257 0.244915 19.7147
0.70737 0.361538 19.7696
1.93606 0.044584 21.1528
1.33335 0.690748 20.3009
1.04941 -0.371016 21.8769
1.3326 0.464884 21.2572
0.198089 -0.517842 21.9349
0.622163 0.0291326 21.699
-0.336246 -0.788088 21.7241
0.145892 -0.295739 21.6627
-0.690763 -0.949292 21.9792
-0.0619159 -0.442554 21.567
-0.124574 -0.597603 21.2926
0.623258 0.461452 20.1352
0.780179 0.55593 20.7681
0.620136 0.344867 21.3026
0.289222 -0.00954196 21.4977
0.0978238 -0.196658 21.4699
-0.020115 -0.224287 21.3114
-1.26173 -0.6066 20.0202
-1.8458 -2.17928 18.5768
-1.32649 -1.17543 19.7694
-2.08005 -1.04395 19.1855
-0.859329 -0.583137 19.5176
-2.48826 -1.83489 20.7283
-1.09563 -0.706686 21.4187
-1.09344 -0.999068 19.1492
-0.997293 -1.01542 21.689
-1.45736 -1.22361 22.0863
-0.396034 -0.644634 21.9445
-0.174733 -0.384018 21.7607
0.262029 0.00291142 16.6882
-0.0573907 -0.263315 21.8915
0.0394265 -0.598694 21.2803
0.388523 -0.127815 22.0055
0.579768 -0.117148 21.8459
1.3145 0.986535 16.1491
0.710309 0.335472 21.9943
1.1018 -0.256577 20.2121
1.6163 0.469323 21.1021
1.24241 0.0956407 21.5613
2.09524 1.63159 16.2765
1.35535 0.765165 21.4328
2.0521 -0.041408 19.1262
1.86827 0.755564 20.0014
1.44262 0.0143626 21.0226
2.05855 1.52167 15.533
1.53657 0.657183 21.3504
2.35893 0.0590599 19.8345
1.69357 0.417285 19.6581
-1.68382 -0.186128 19.7668
-3.47628 -0.476939 16.2572
-2.47281 0.652058 18.8771
-1.13573 -0.196525 19.1389
-4.81016 -0.445153 20.5238
-1.74621 -0.495591 21.4291
-3.03751 -0.0144612 21.4578
-1.23998 -1.23249 20.7394
-0.611568 -0.546133 21.8859
-1.67 -0.76118 21.8171
-0.0459773 -0.636296 19.3135
0.236987 -0.597536 22.0086
-0.346561 -0.614994 20.2526
0.992058 -0.771674 16.3865
0.956672 -0.786946 21.6513
-0.0760444 -1.61866 2.33736
0.13331 -1.00184 20.4074
1.41222 -0.975868 18.4588
1.37273 -0.780432 21.2267
1.46215 -0.79694 6.97886
0.765703 -1.57183 20.6048
2.0756 -1.36205 19.0363
-1.03087 0.530481 19.9612
-1.22986 1.60754 19.1125
-0.629634 0.710431 19.9903
-0.761867 0.545916 19.497
-1.69443 1.34919 20.0928
-1.43369 0.626321 20.7919
-1.9423 2.20046 20.3629
-0.824489 0.903421 20.66
-1.86148 1.06091 21.3324
-1.01299 0.239616 21.6173
-1.61875 1.41769 22.2672
-0.633822 0.57754 21.4342
-0.799747 0.217704 21.9578
-0.346226 -0.152707 21.7305
-0.506032 0.130722 22.0386
-0.313486 0.0560566 21.7171
-0.245805 -0.293907 21.7758
0.00960794 -0.411156 21.5704
-0.249727 -0.323248 21.7813
-0.143003 -0.183999 21.8213
-0.00266403 -0.502321 21.5639
0.190287 -0.48985 21.3786
-0.193161 -0.573106 21.3582
0.0101356 -0.247715 21.6796
0.166742 -0.668538 21.6522
1.83788 -2.23514 18.5369
-0.0105578 -3.00306 18.5962
-0.0432167 -3.61392 15.5347
-0.0224583 -1.13045 18.6091
0.0166632 -7.07371 22.5931
1.07791 -0.988765 19.5299
0.0164742 -2.16128 22.3749
-0.00306347 -0.190007 10.0341
-0.269288 -0.0720199 17.0752
-0.00436849 -0.363518 21.1651
-0.00635828 -0.271157 13.142
-1.30115 1.00766 16.0993
-0.0010665 0.860391 20.3114
0.00130527 0.903257 8.57716
-1.94751 1.6297 15.7667
0.0174176 1.74462 18.451
0.00516139 0.192636 1.7383
0.0241681 2.25002 10.6563
-2.12062 1.70045 14.8349
0.0849791 2.67995 17.2741
0.204116 2.51139 4.73946
0.110077 2.40946 13.4979
3.41421 -0.494042 16.0456
-0.0813559 3.28314 13.6989
-0.0498476 -0.352383 17.4939
0.130546 -1.61068 1.88091
-0.0392752 0.317836 -4.9089
0.0527295 1.72112 -1.6307
-1.33331 -0.727407 5.60194
-0.0664129 -1.33341 -1.73788
0.100719 4.43553 0.0962802
1.22461 1.61884 19.0957
0.00260348 1.23674 19.6468
-0.0144022 1.05884 18.7957
0.00411657 3.43826 19.4688
1.93689 2.1896 20.3595
0.00562478 1.74749 20.4727
-0.0027612 4.30274 20.9008
1.6196 1.44403 22.2657
-0.00553719 1.18497 21.6109
-0.00998808 1.21423 22.4107
0.498656 0.145572 22.0387
-0.0102329 0.267052 21.9351
-0.0148884 0.144484 21.7645
0.246211 -0.295951 21.7745
-0.0125655 -0.15132 21.9389
-0.0164236 -0.203263 21.4382
0.184436 -0.558326 21.4586
0.00415513 -0.214631 21.6309
-0.00311301 -0.369867 21.5149
1.27874 -0.625755 20.0118
1.33543 -1.19928 19.7376
2.1135 -1.08223 19.1253
0.856608 -0.60768 19.4882
2.49032 -1.84794 20.711
1.10008 -0.708714 21.416
0.996692 -1.00965 21.6818
1.47148 -1.2456 22.1159
0.355752 -0.615157 21.9423
0.171654 -0.383347 21.7541
0.0741023 -0.27369 21.8679
-0.0400287 -0.593371 21.2282
-0.37555 -0.12678 22.0083
-0.56941 -0.118884 21.8399
-0.707629 0.358694 21.9913
-1.09566 -0.256072 20.2438
-1.62043 0.519926 20.9075
-1.24939 0.0975266 21.5782
-1.37939 0.8471 21.4468
-2.05608 -0.0165176 18.8358
-1.92306 0.880683 19.8125
-1.5389 0.0576674 21.0034
-1.51197 0.706122 21.4595
-2.40967 0.125495 19.3653
-1.73966 0.501193 19.3264
1.73441 -0.189112 19.7342
2.4932 0.676404 18.789
1.13181 -0.207044 19.0867
4.8642 -0.415361 20.4646
1.76076 -0.488309 21.4349
3.05552 0.0212032 21.468
1.23152 -1.26634 20.7504
0.608406 -0.547962 21.8673
1.67078 -0.745922 21.8194
0.0700791 -0.657807 19.423
-0.223402 -0.585331 22.0021
0.357698 -0.62255 20.4255
-0.978668 -0.782319 16.4722
-0.954611 -0.791977 21.6553
-0.10692 -0.977335 20.2618
-1.38127 -0.991242 18.1594
-1.41603 -0.803706 21.0658
-0.76092 -1.57897 20.5425
-2.07699 -1.42878 18.589
1.04535 0.550616 19.9378
0.632035 0.707852 19.9905
0.769149 0.549325 19.4828
1.68688 1.33951 20.079
1.41421 0.623782 20.7857
0.830114 0.891862 20.653
1.85764 1.0617 21.3208
1.01346 0.241379 21.6137
0.637338 0.589057 21.4348
0.802991 0.230484 21.9572
0.34892 -0.147502 21.7209
0.305235 0.0666476 21.7362
0.247111 -0.281804 21.7758
0.00638807 -0.397532 21.571
0.135757 -0.174156 21.8288
0.0146817 -0.491304 21.5705
-0.176704 -0.493627 21.3602
-0.00585011 -0.25242 21.689
-0.177074 -0.66102 21.6938
-1.69139 -1.20881 19.5449
-1.20266 -1.099 21.8772
0.0466362 -0.355865 21.8541
1.06924 0.180143 21.7931
1.8865 0.584871 20.93
2.14366 0.365599 20.1568
-2.6861 -0.314091 18.7984
-2.42856 -0.996504 21.9392
-0.451298 -0.979763 19.8525
0.430129 -0.544414 18.2798
1.15505 -1.00693 17.3165
2.05476 -1.27729 18.7085
-1.27474 1.00472 19.5604
-1.83165 1.20393 20.6984
-1.34651 0.61704 21.8947
-0.453468 -0.073746 21.9011
-0.118704 -0.422586 21.6676
0.0759043 -0.610001 21.303
-0.0248246 -3.62648 17.3812
-0.00167678 -1.37828 14.2047
-0.00938461 -0.0495606 11.5749
-0.00416617 0.818148 9.0371
0.0069999 1.20469 8.94376
0.0654126 2.37802 10.8742
-0.0725334 -0.669112 12.6178
0.0224 0.408489 -0.772627
0.0625197 3.64926 -2.14708
-0.0121283 2.37053 18.5406
0.000743564 3.3906 19.8004
-0.0112719 2.55947 22.4851
-0.00983015 0.489825 22.1566
-0.0212979 0.0609934 21.6385
-0.0168188 -0.584276 21.7652
1.69576 -1.23538 19.5231
1.20352 -1.10796 21.8881
-0.0332086 -0.356638 21.8398
-1.06391 0.197347 21.7737
-1.93338 0.643331 20.8426
-2.10671 0.366589 20.135
2.69535 -0.311757 18.6967
2.46862 -0.986049 21.9595
0.473765 -0.99778 19.8832
-0.408826 -0.562727 18.3956
-1.1376 -1.01976 17.1948
-2.10661 -1.34144 18.2103
1.27051 1.01144 19.5418
1.82511 1.20047 20.6933
1.35065 0.631156 21.8883
0.453001 -0.0619304 21.8997
0.126549 -0.406658 21.6732
-0.0688662 -0.597156 21.3055
-1.54545 -0.33787 2.45641
-0.0953602 -1.92633 3.72825
-0.120316 0.0212128 1.1318
-0.0562358 -0.0392679 -0.0159314
0.035479 0.0326364 0.13001
0.10437 0.0583851 0.853259
-2.0488 0.782329 1.95381
-0.0401011 0.11166 0.412997
-0.26269 -0.0388474 0.531815
-0.12168 -0.19463 0.0545083
-0.00988519 0.00448286 -0.00373418
0.00225275 -0.00125181 0.103766
0.0465122 -2.21688 4.27097
1.45609 -0.287646 2.14124
0.158404 0.0451021 1.31439
-0.0312719 0.0163019 0.0907746
0.0533218 -0.0449137 -0.0159481
-0.0575709 0.0306799 0.485684
0.0353932 0.0952673 0.356669
3.08535 1.22761 2.95932
0.292854 -0.0468769 0.631665
0.0047593 0.00215369 -0.00163011
0.130115 -0.204624 0.0578018
-0.000351627 -0.000372923 0.0444133
-0.116182 0.0889667 1.97821
0.114517 -0.161786 4.3791
-7.75658e-06 1.44057e-05 0.00362799
0.00517982 6.194e-05 0.0774917
0.000536708 -0.000202369 0.00214127
0.0347043 -0.0190786 1.76669
-0.000586806 0.000236559 0.0430346
0 0 0
-0.273626 -0.0485095 0.140191
0.000672613 0.013322 0.177941
0.00146435 0.00640464 0.0198077
-0.128923 0.163286 0.280264
0.00420376 0.0086323 0.0898038
0.0102748 0.026943 0.167612
0 0 0
0 0 0
0.164511 0.120811 1.7764
-0.00532743 -0.00066995 0.0834927
-0.0803258 -0.0835046 2.65255
-3.26793e-05 -0.000132303 0.00483703
-0.0116125 -0.00335371 0.048582
0 0 0
-0.0338864 -0.027799 1.58999
0.000988456 -0.000117549 0.0446764
0.529641 -0.166145 0.321383
0.104906 0.132306 0.228565
0.000661822 0.00979322 0.144518
-0.000196592 0.0032412 0.0154366
-0.00366226 0.00697498 0.0738082
3.77267e-18 -3.39729e-18 -1.08479e-16
-0.0102925 0.0288328 0.177434
0 0 0
0 0 0
0 0 0
-2.88289e-05 -0.0022209 0.0278692
0.0156404 -2.18061 1.41954
-9.29258e-05 -0.000234182 0.00683366
8.06243e-07 5.13801e-06 -9.40665e-05
0.0041795 -0.00611552 0.0547637
-0.002157 -0.00878331 0.000735483
1.61676e-05 3.06243e-05 0.000664753
0 0 0
0 0 0
0 0 0
-0.000239719 1.35924 0.508004
-0.00284269 0.0136746 0.091187
0 0 0
-0.00324958 0.000174036 0.00216956
0 0 0
0 0 0
0 0 0
0 0 0
0 0 0
0.00733566 -0.00577577 0.0547338
4.90699e-06 -1.71417e-05 0.000300057
0 0 0
0.00109184 -0.00622072 0.000460205
-0.00484076 -0.00835619 0.0695662
0 0 0
-0.00093901 -0.00138227 0.0429877
0.00244997 0.000132385 0.00167314
0 0 0
0 0 0
0 0 0
-0.00019874 0.000661868 0.0169501
0.00145708 1.91957e-05 0.0328563
2.6924e-18 -2.04951e-17 1.48486e-16
0 0 0
1.00627e-05 0.00057235 0.0364701
3.47936e-08 1.12249e-08 -1.99457e-05
7.72948e-19 1.68447e-17 1.19276e-16
0.00183934 0.0172637 0.37269
-2.56403e-05 8.54746e-06 0.0112096
8.65142e-08 1.91372e-07 5.8334e-05
0.0270597 0.0724141 0.214857
-0.0302447 0.0327427 0.505805
5.05355e-05 -0.00131583 -0.0012479
-0.000452326 0.028416 0.176464
-0.000448406 0.00412386 0.0766567
0 0 0
-0.00197739 -3.0637e-06 0.0352567
0.000350104 0.00126121 0.0233536
0 0 0
0 0 0
0 0 0
-0.00138387 0.016334 0.367867
0.0325345 0.0362188 0.56345
-0.0231364 0.0652677 0.198525
0 0 0
0 0 0
0.00398716 -0.0163308 0.130609
-0.00434274 -0.017803 0.0637838
-0.000127654 0.000488897 0.0127308
0.00968726 0.0282091 0.120659
-0.00107447 0.00199938 0.0466474
0.0144582 0.0498332 0.206982
0.00199348 -0.00403713 0.0804046
0.00012242 0.000926708 0.011163
0.00129819 -0.000297905 0.0102767
0 0 0
0 0 0
0 0 0
0.0041341 0.000749525 0.046927
-0.00402764 0.000654802 0.0426468
0.00387134 -3.50631e-05 0.0723363