# vtk DataFile Version 2.0
tet_velo
ASCII
DATASET UNSTRUCTURED_GRID
POINTS 29498 float
-0.674874 0.235 -1.885
-0.737291 0.185 1.865
-0.645 0.835 -1.81658
-0.595 1.175 1.85561
0.674878 0.235 -1.885
0.807622 0.185 1.865
0.645 0.835 -1.81658
0.595 1.175 1.85561
-0.697597 0.216416 -0.635
-0.703265 0.214887 0.615
-0.770898 1.0909 -0.592517
-0.739036 1.18904 0.631547
0.720967 0.216492 -0.635
0.750026 0.215014 0.615
0.770907 1.09091 -0.592517
0.739032 1.18903 0.631547
-1.39915 -0.249744 -2.89409
-1.39246 -0.177259 -1.90448
-1.40333 -0.189816 -0.653806
-1.39148 -0.231007 0.602085
-1.38686 -0.266239 1.85319
-1.39354 -0.265673 2.84496
-1.4007 -0.245747 3.83274
-1.39971 0.124367 -2.8692
-1.39704 0.226337 -1.88242
-1.42585 0.247373 -0.6368
-1.40665 0.235477 0.611158
-1.39024 0.205822 1.85728
-1.40623 0.206766 2.84868
-1.41859 0.225395 3.8373
-1.39474 0.827355 -2.81215
-1.39367 0.925071 -1.8243
-1.47582 1.10961 -0.596358
-1.43351 1.19031 0.629747
-1.32934 1.18373 1.85819
-1.39128 1.17975 2.85066
-1.43895 1.18899 3.84347
-1.41449 2.07174 -2.74608
-1.42137 2.19262 -1.76211
-1.46006 2.39586 -0.542577
-1.47832 2.5513 0.671366
-1.46807 2.61316 1.89117
-1.47339 2.62654 2.8757
-1.49196 2.6339 3.86568
-0.69884 -0.246779 -2.89576
-0.679446 -0.169685 -1.90692
-0.683684 -0.204087 -0.653478
-0.675214 -0.248222 0.605364
-0.681053 -0.285022 1.85893
-0.694303 -0.280988 2.84885
-0.701804 -0.257409 3.83499
-0.702338 0.117059 -2.86972
-0.726887 0.192974 2.85189
-0.728136 0.21463 3.839
-0.694339 0.786898 -2.80894
-0.720429 1.1719 2.85014
-0.758222 1.18195 3.84336
-0.700057 2.04275 -2.74291
-0.697755 2.16476 -1.75862
-0.735646 2.3859 -0.540471
-0.770599 2.55452 0.671113
-0.778199 2.6164 1.88937
-0.787092 2.62728 2.8739
-0.803403 2.63309 3.86437
0.684089 -0.246763 -2.89576
0.701849 -0.169664 -1.90692
0.737914 -0.204019 -0.653478
0.775761 -0.248126 0.605364
0.810996 -0.284987 1.85893
0.751117 -0.280959 2.84885
0.715427 -0.257376 3.83499
0.665174 0.117068 -2.86972
0.701294 0.192993 2.85189
0.675968 0.214659 3.839
0.659732 0.786905 -2.80895
0.605549 1.17191 2.85014
0.612472 1.18198 3.84336
0.710321 2.04276 -2.74291
0.727496 2.16477 -1.75862
0.71549 2.38592 -0.540471
0.659798 2.55454 0.671113
0.604286 2.61642 1.88937
0.584177 2.6273 2.8739
0.575829 2.63311 3.86437
1.38876 -0.249705 -2.89409
1.40934 -0.177207 -1.90448
1.45512 -0.189704 -0.653806
1.48983 -0.230858 0.602085
1.50832 -0.266147 1.85319
1.46581 -0.265602 2.84496
1.42872 -0.245677 3.83274
1.37014 0.124396 -2.8692
1.39222 0.226369 -1.88242
1.44938 0.247473 -0.6368
1.46546 0.235624 0.611158
1.46637 0.205897 1.85728
1.41833 0.206824 2.84868
1.38835 0.225458 3.8373
1.3646 0.827376 -2.81215
1.38509 0.925088 -1.8243
1.47359 1.10965 -0.596358
1.43729 1.19037 0.629747
1.3274 1.18378 1.85819
1.31392 1.17979 2.85066
1.31669 1.18904 3.84347
1.41419 2.07177 -2.74608
1.43343 2.19265 -1.76211
1.43232 2.3959 -0.542577
1.37872 2.55135 0.671366
1.31234 2.61321 1.89117
1.28511 2.62659 2.8757
1.27598 2.63396 3.86568
-0.683331 0.535 -1.87418
1.99676e-06 0.231912 -1.88809
-0.684114 0.227829 -1.26
-0.7572 0.68 1.95136
0.0351655 0.240005 1.80999
-0.696785 0.223437 1.24
0 0.887561 -1.86914
-0.759715 1.01472 -1.20455
0 1.19645 1.87706
-0.713082 1.22808 1.24358
0.683389 0.535 -1.87424
0.695792 0.227876 -1.26
0.775578 0.68 1.93457
0.763904 0.214927 1.24
0.759711 1.01471 -1.20455
0.713075 1.22807 1.24358
-0.700335 0.215747 -0.00999999
-0.87353 0.653657 -0.613758
0.011685 0.213041 -0.635
-0.874445 0.701961 0.623273
0.0233808 0.212249 0.615
-0.75777 1.14277 0.019515
4.59401e-06 1.35047 -0.592517
-1.7649e-06 1.57304 0.631547
0.735397 0.215854 -0.00999999
0.873477 0.6537 -0.613758
0.874452 0.702023 0.623273
0.757773 1.14277 0.019515
-0.887341 0.594329 -1.23227
-0.876808 0.677809 0.00475749
-0.895031 0.690981 1.24179
0.0058435 0.227201 -1.26
0.0175329 0.212647 -0.00999999
0.0292732 0.216032 1.24
9.98378e-07 0.535 -2.12733
0.0175828 0.68 2.09887
2.297e-06 1.06555 -1.20455
1.41455e-06 1.53655 0.019515
-8.8245e-07 1.52886 1.24358
0.887341 0.59435 -1.23227
0.876815 0.677862 0.00475749
0.895027 0.691012 1.24179
-1.03596 0.230669 -1.88371
-0.67716 0.0326574 -1.89596
-0.688606 0.176029 -2.37736
-1.06377 0.195411 1.86114
-0.709172 -0.0500111 1.86196
-0.732089 0.188987 2.35844
-1.01934 0.880035 -1.82044
-0.669669 0.810949 -2.31276
-0.671378 1.49988 -1.7876
-0.962172 1.17936 1.8569
-0.657714 1.17345 2.35288
-0.6866 1.8957 1.87249
0.688364 0.0326679 -1.89596
0.670026 0.176034 -2.37736
1.03355 0.230684 -1.88371
0.809309 -0.0499934 1.86196
0.754458 0.188996 2.35844
1.13699 0.195449 1.86114
0.652366 0.810952 -2.31276
0.686248 1.49989 -1.7876
1.01505 0.880044 -1.82044
0.600275 1.17346 2.35288
0.599643 1.89571 1.87249
0.9612 1.17939 1.8569
-1.06173 0.231895 -0.6359
-0.69064 0.00616468 -0.644239
-1.05496 0.225182 0.613079
-0.689239 -0.0166675 0.610182
-1.12336 1.10025 -0.594438
-0.753272 1.7384 -0.566494
-1.08627 1.18967 0.630647
-0.754817 1.87178 0.65133
0.729441 0.00623673 -0.644239
1.08517 0.231983 -0.6359
0.762894 -0.0165557 0.610182
1.10774 0.225319 0.613079
0.743199 1.73841 -0.566494
1.12225 1.10028 -0.594438
0.699415 1.87178 0.65133
1.08816 1.1897 0.630647
-1.3958 -0.213501 -2.39928
-1.39943 -0.0626885 -2.88165
-1.049 -0.248262 -2.89493
-1.3979 -0.183537 -1.27914
-1.39475 0.0245391 -1.89345
-1.03595 -0.173472 -1.9057
-1.39741 -0.210411 -0.0258605
-1.41459 0.0287789 -0.645303
-1.04351 -0.196951 -0.653642
-1.38917 -0.248623 1.22764
-1.39907 0.00223493 0.606622
-1.03335 -0.239615 0.603724
-1.3902 -0.265956 2.34908
-1.38855 -0.0302085 1.85524
-1.03396 -0.275631 1.85606
-1.39712 -0.25571 3.33885
-1.39989 -0.0294534 2.84682
-1.04392 -0.27333 2.8469
-1.40965 -0.0101762 3.83502
-1.05125 -0.251578 3.83387
-1.39838 0.175352 -2.37581
-1.39723 0.475861 -2.84068
-1.05103 0.120713 -2.86946
-1.41145 0.236855 -1.25961
-1.39536 0.575704 -1.85336
-1.41625 0.241425 -0.0128208
-1.45084 0.678491 -0.616579
-1.39844 0.220649 1.23422
-1.42008 0.712893 0.620453
-1.39824 0.206294 2.35298
-1.35979 0.694775 1.85773
-1.41241 0.21608 3.34299
-1.39876 0.693256 2.84967
-1.06656 0.19987 2.85028
-1.42877 0.707191 3.84038
-1.07336 0.220012 3.83815
-1.39421 0.876213 -2.31823
-1.40461 1.44955 -2.77911
-1.04454 0.807126 -2.81055
-1.43475 1.01734 -1.21033
-1.40752 1.55884 -1.79321
-1.45466 1.14996 0.0166941
-1.46794 1.75274 -0.569468
-1.38143 1.18702 1.24397
-1.45591 1.87081 0.650556
-1.36031 1.18174 2.35442
-1.39871 1.89844 1.87468
-1.41512 1.18437 3.34706
-1.43233 1.90314 2.86318
-1.05585 1.17582 2.8504
-1.46546 1.91144 3.85457
-1.09859 1.18547 3.84341
-1.41793 2.13218 -2.25409
-1.05727 2.05724 -2.74449
-1.44072 2.29424 -1.15234
-1.05956 2.17869 -1.76036
-1.46919 2.47358 0.0643946
-1.09785 2.39088 -0.541524
-1.47319 2.58223 1.28127
-1.12446 2.55291 0.67124
-1.47073 2.61985 2.38344
-1.12314 2.61478 1.89027
-1.48267 2.63022 3.37069
-1.13024 2.62691 2.8748
-1.14768 2.63349 3.86502
-0.689143 -0.208232 -2.40134
-0.700589 -0.0648603 -2.88274
-0.00737558 -0.246771 -2.89576
-0.681565 -0.186886 -1.2802
0.0112017 -0.169675 -1.90692
-0.679449 -0.226155 -0.0240574
0.027115 -0.204053 -0.653478
-0.678133 -0.266622 1.23215
0.0502734 -0.248174 0.605364
-0.687678 -0.283005 2.35389
0.0649717 -0.285005 1.85893
-0.698053 -0.269199 3.34192
-0.710595 -0.0440071 2.85037
0.028407 -0.280973 2.84885
-0.71497 -0.0213897 3.837
0.00681146 -0.257393 3.83499
-0.698338 0.451978 -2.83933
-0.018582 0.117064 -2.86972
-0.727512 0.203802 3.34544
-0.723658 0.682436 2.85101
-0.0127967 0.192983 2.85189
-0.743179 0.698292 3.84118
-0.0260844 0.214644 3.839
-0.697198 1.41482 -2.77593
-0.0173035 0.786901 -2.80894
-0.739325 1.17693 3.34675
-0.75376 1.89959 2.86202
-0.0574398 1.17191 2.85014
-0.780813 1.90752 3.85386
-0.0728748 1.18197 3.84336
-0.698906 2.10375 -2.25076
0.00513163 2.04275 -2.74291
-0.716701 2.27533 -1.14954
0.0148705 2.16476 -1.75862
-0.753122 2.47021 0.0653213
-0.010078 2.38591 -0.540471
-0.774399 2.58546 1.28024
-0.0554004 2.55453 0.671113
-0.782646 2.62184 2.38163
-0.0869565 2.61641 1.88937
-0.795247 2.63018 3.36913
-0.101457 2.62729 2.8739
-0.113787 2.6331 3.86437
0.692969 -0.208214 -2.40134
0.674631 -0.0648474 -2.88274
1.03642 -0.248234 -2.89493
0.719882 -0.186842 -1.2802
1.05559 -0.173436 -1.9057
0.756838 -0.226072 -0.0240574
1.09652 -0.196862 -0.653642
0.793379 -0.266556 1.23215
1.13279 -0.239492 0.603724
0.781056 -0.282973 2.35389
1.15966 -0.275567 1.85606
0.733272 -0.269167 3.34192
0.726205 -0.0439829 2.85037
1.10846 -0.27328 2.84691
0.695697 -0.0213588 3.837
1.07207 -0.251527 3.83387
0.662453 0.451986 -2.83933
1.01766 0.120732 -2.86946
0.688631 0.203826 3.34544
0.653422 0.682453 2.85101
1.05981 0.199908 2.85028
0.64422 0.698319 3.84118
1.03216 0.220058 3.83815
0.685026 1.41483 -2.77593
1.01217 0.80714 -2.81055
0.609011 1.17695 3.34675
0.594863 1.89961 2.86202
0.959737 1.17585 2.8504
0.594151 1.90755 3.85386
0.964583 1.18551 3.84341
0.718908 2.10377 -2.25076
1.06226 2.05727 -2.74449
0.721493 2.27535 -1.14954
1.08046 2.17871 -1.76036
0.687644 2.47023 0.0653212
1.07391 2.39091 -0.541524
0.632042 2.58548 1.28024
1.01926 2.55294 0.67124
0.594232 2.62186 2.38163
0.958312 2.61482 1.89027
0.580003 2.63021 3.36913
0.934642 2.62695 2.8748
0.925905 2.63354 3.86502
1.39905 -0.213456 -2.39928
1.37945 -0.0626545 -2.88165
1.43223 -0.183456 -1.27914
1.40078 0.0245807 -1.89345
1.47247 -0.210281 -0.0258606
1.45225 0.0288842 -0.645303
1.49907 -0.248502 1.22764
1.47764 0.00238342 0.606622
1.48707 -0.265875 2.34908
1.48734 -0.0301248 1.85524
1.44726 -0.25564 3.33885
1.44207 -0.0293893 2.84682
1.40853 -0.0101096 3.83502
1.38118 0.175382 -2.37581
1.36737 0.475886 -2.84068
1.4208 0.236921 -1.25961
1.38866 0.575728 -1.85336
1.45742 0.241549 -0.0128209
1.46149 0.678562 -0.616579
1.46591 0.220761 1.23422
1.45138 0.712995 0.620452
1.44235 0.20636 2.35298
1.39688 0.694837 1.85773
1.40334 0.216141 3.34299
1.36613 0.693308 2.84967
1.35252 0.70725 3.84038
1.37485 0.876232 -2.31823
1.3894 1.44958 -2.77911
1.42934 1.01737 -1.21033
1.40926 1.55887 -1.79321
1.45544 1.15001 0.0166941
1.45296 1.75278 -0.569468
[...]
POINT_DATA 29498
VECTORS point_vectors float
-1.39243 -6.69849 9.97002
0.0548203 0.383031 5.33372
-0.65878 0.633877 1.20898
-0.156563 -0.0914163 0.0153537
1.38609 -6.68671 9.95767
-0.305456 0.832497 7.71997
0.66165 0.63537 1.21277
0.155349 -0.105364 0.0267035
-0.00237646 -0.000892667 0.0330882
-3.61591e-05 2.27875e-05 0.0103047
-0.00257469 0.00134026 0.0580194
0 0 0
0.00377337 -0.00228332 0.0802839
0.00138656 -0.000448967 0.0433221
0.00263307 0.00133984 0.0585189
-1.00747e-17 1.89282e-17 6.51457e-17
-0.659934 -0.459705 19.8772
-1.26537 -1.05526 20.6093
-0.455989 -0.591132 21.561
0.0302842 -0.195521 21.7048
0.507422 0.188688 21.7383
0.84679 0.439136 21.564
0.922731 0.468754 21.0928
-0.906056 -0.392979 19.6524
-2.14562 -1.01178 20.4576
-0.718064 -0.73722 21.6925
-0.0195871 -0.410101 21.8545
0.760977 -0.0512577 21.8513
1.25704 0.156576 21.5513
1.58861 0.11401 20.798
-1.07997 0.0872108 19.4917
-2.53928 0.335325 20.2566
-1.55019 -0.255108 21.6031
-0.527079 -0.438511 21.9425
0.301987 -0.737646 21.8668
0.747825 -0.900155 21.6577
0.947389 -0.67365 21.5085
-0.542522 0.430841 19.9764
-0.80818 0.665048 20.3931
-0.765114 0.516702 21.1437
-0.382791 0.140442 21.54
-0.101574 -0.136681 21.3529
0.0659777 -0.289935 21.1796
0.131023 -0.284662 21.049
-0.626662 -0.897567 19.3806
-1.25369 -3.04498 20.9509
-0.202849 -0.589951 22.0077
0.013291 -0.0765748 21.9666
0.350999 0.668148 22.0406
0.650213 1.13015 21.7484
0.836913 1.5584 20.9715
-0.916674 -0.852181 18.7717
1.37911 1.50759 13.4142
1.60637 1.47161 15.0048
-1.2088 0.286172 18.1506
-0.137708 -1.22568 5.72519
1.57192 -1.12376 11.1931
-0.440329 0.776556 19.6497
-0.750588 1.41891 20.1302
-0.810864 1.24277 21.1816
-0.385436 0.386544 21.7702
-0.119796 -0.101674 21.5853
0.0207118 -0.316169 21.5244
0.113877 -0.464655 21.212
0.606059 -0.898521 19.3718
1.28322 -2.97489 20.9204
0.205671 -0.602038 21.959
-0.0489298 -0.067101 21.9577
-0.437109 0.629221 22.0107
-0.689901 1.0796 21.7681
-0.813564 1.57549 20.9773
0.912895 -0.904672 18.6995
-1.28618 1.60234 13.1388
-1.5314 1.64542 14.9039
1.18262 0.297873 18.0712
0.705649 -1.2613 1.41313
-1.33918 -1.22664 6.82511
0.446006 0.77079 19.6546
0.77942 1.38851 20.1426
0.801248 1.25543 21.1834
0.345725 0.447807 21.8436
0.105975 -0.074321 21.5898
-0.00652061 -0.291843 21.3337
-0.0196223 -0.405878 21.1699
0.671121 -0.470583 19.8607
1.25861 -1.03278 20.5979
0.464533 -0.556539 21.5272
-0.0370884 -0.158729 21.6595
-0.519409 0.152035 21.6808
-0.805569 0.391568 21.4983
-0.877178 0.447064 21.0941
0.91384 -0.408231 19.6272
2.16266 -1.02334 20.4571
0.732512 -0.715069 21.6764
0.0291387 -0.37955 21.8192
-0.706861 -0.0678223 21.8529
-1.25771 0.162891 21.5442
-1.69055 0.160173 20.7386
1.09477 0.0926474 19.4567
2.57028 0.348413 20.2479
1.55744 -0.251377 21.6073
0.522722 -0.440529 21.949
-0.325626 -0.749264 21.8766
-0.825913 -0.996651 21.6902
-1.10231 -0.771805 21.7453
0.543229 0.430554 19.9766
0.806812 0.65794 20.3971
0.775674 0.539697 21.1518
0.364109 0.140338 21.6034
0.0894123 -0.177483 21.4994
-0.0512681 -0.311843 21.2347
-0.215063 -0.486002 20.8172
-0.185311 -0.00212594 0.231492
1.79902e-05 -0.015502 0.0781184
-0.0254945 0.00507799 0.204721
-0.0159815 -0.0717072 0.00631012
-0.00043818 0.0131903 0.13891
0.0255138 0.0201376 0.422847
6.84294e-06 0.132034 0.254805
-0.0957973 -0.0119107 0.245434
0 0 0
0.00345459 0.0050649 0.0308419
0.18634 -0.00226851 0.232654
0.0338606 0.00389698 0.294764
0.00245635 -0.0469143 0.0156171
-0.0836793 0.0149609 1.36442
0.0951426 -0.0117265 0.244384
-0.00339217 0.00491861 0.0304719
-2.29165e-05 -6.40173e-07 0.00273106
0.000171968 0.000947468 0.0315513
-2.29123e-05 -0.00179753 0.0431694
0.000308491 0.00416103 0.0249333
1.76267e-05 1.03167e-05 0.00314537
0.00103123 0.00299856 0.0106876
1.82074e-05 0.0088692 0.021199
1.47657e-05 -7.14563e-05 0.00962167
2.47024e-05 1.33227e-06 0.0012315
-0.000141913 0.00131718 0.0302607
-0.000297422 0.00367946 0.0230233
-0.00105086 0.00305358 0.0109745
-0.000588447 -0.00153558 0.0175266
-1.54003e-05 0.0016396 0.014416
-0.000708269 0.00526145 0.136383
-1.01464e-07 -7.48777e-08 5.22254e-05
1.24595e-08 -5.18921e-09 6.89714e-06
-5.22175e-07 -2.25832e-06 -3.0171e-05
0.0753694 0.155264 0.244619
0.010729 -0.316694 0.132934
0 0 0
-4.27843e-05 0.00447704 0.0277918
0.000133288 -0.00130123 0.012492
0.00059069 -0.00153511 0.017554
9.74142e-06 0.00151634 0.0136282
0.000760853 0.00526709 0.137312
-3.88654 -2.66445 20.101
-1.91581 -4.96396 21.3049
-2.40607 -2.47599 17.7093
1.04201 0.553413 19.0993
0.44272 0.876013 19.6228
0.786539 1.01701 10.2651
-4.84614 1.4094 19.5976
-3.55574 1.6178 16.1696
-1.88677 2.70286 19.5702
0.649306 -0.326958 15.3596
-1.01255 -0.966478 1.37256
-0.388029 -0.250912 21.7749
1.95681 -4.89638 21.2684
2.40169 -2.56009 17.6127
3.90044 -2.67286 20.0999
-0.54823 0.893383 20.1859
-0.849539 1.14285 10.7943
-1.05517 0.364195 20.3708
3.55238 1.66567 16.0305
1.9092 2.66036 19.5857
4.88574 1.43935 19.5796
1.22011 -0.953986 0.213256
0.397851 -0.218483 21.4044
-0.684033 -0.350132 15.4232
-0.223069 -0.546202 19.1041
-0.20479 -0.31462 19.3822
0.108058 0.0880451 17.5364
-0.0307627 0.0495368 18.2388
-2.49232 -0.823328 21.9485
-2.44077 2.32239 21.3255
-0.607544 -0.637979 20.6492
-0.979961 0.520167 22.3642
0.18699 -0.357062 19.693
0.337132 -0.686623 19.8796
0.038569 0.0651172 18.8826
-0.14029 -0.087569 19.2238
2.44641 2.37425 21.3191
2.50118 -0.819879 21.9409
0.98012 0.598771 22.4364
0.610112 -0.639081 20.6797
-1.00622 -0.777382 20.0684
-0.786358 -0.451362 19.7739
-0.702661 -0.691111 19.6334
-0.904097 -0.913933 21.3327
-1.69017 -1.09658 20.5368
-1.49711 -1.91871 20.6367
-0.174327 -0.355314 21.6244
-0.573163 -0.670667 21.6331
-0.299834 -0.661523 21.7553
0.256628 -0.0197687 21.7641
0.0251125 -0.294701 21.7676
0.0806896 -0.136995 21.8316
0.715388 0.338091 21.6363
0.648293 0.114635 21.8015
0.542662 0.44821 21.908
0.963909 0.494274 21.0077
1.07457 0.336652 21.4861
0.878141 0.832461 21.4886
1.26239 0.331518 20.8513
0.962878 1.04411 20.9677
-1.57057 -0.694705 19.7612
-1.04784 -0.208147 19.5252
-1.00125 -0.607355 19.2753
-1.52507 -1.01976 21.5822
-2.72105 -0.410431 20.3214
-0.2955 -0.56904 21.7715
-1.13358 -0.668261 21.7386
0.309201 -0.261892 21.8729
-0.24992 -0.511265 21.964
1.07952 0.067552 21.6843
0.728352 -0.488321 21.7855
1.33564 0.213664 21.4232
1.26522 -0.457649 21.5715
1.75206 0.85241 19.6871
1.33199 -0.316029 21.3413
1.81178 0.572289 20.1407
-1.8619 0.206802 19.5586
-0.820138 0.402182 19.7079
-1.2714 0.16279 18.9277
-2.16528 0.012835 21.2634
-1.50273 0.808305 20.2568
-1.03192 -0.414077 21.8509
-1.36227 0.442556 21.3134
-0.0960244 -0.510472 21.9694
-0.62104 -0.00265911 21.7472
0.524954 -0.821672 21.7372
-0.0965487 -0.364471 21.6567
0.966503 -0.863833 21.4872
0.201225 -0.61983 21.6176
0.923547 -0.974707 19.104
0.515052 -0.751033 20.5271
1.54851 -1.16616 19.101
-0.698288 0.578649 20.1412
-0.542665 0.601569 19.8354
-0.842581 0.651588 20.8014
-0.861384 1.01495 20.276
-0.608303 0.348035 21.3422
-0.831355 0.856197 21.1626
-0.220655 -0.021215 21.4645
-0.355714 0.247607 21.6833
-0.0120397 -0.212556 21.4788
-0.0989392 -0.14145 21.4962
0.104152 -0.301285 21.2232
0.0318736 -0.352361 21.3791
0.221037 -0.535476 20.7245
-1.13718 -1.94066 19.3951
-0.771277 -0.925784 19.0888
-0.0131193 -1.24617 19.0607
-0.47295 -1.36407 22.0984
0.0249872 -3.89559 21.4958
-0.0765295 -0.281292 21.9097
0.018644 -0.726998 21.997
0.157068 0.22239 22.0736
0.0166875 -0.171418 21.8473
0.520399 0.988568 21.8151
-0.0127435 0.701235 21.7833
0.708509 1.20784 21.7728
0.944067 1.57969 20.2321
-0.0137885 1.40429 21.5737
1.05395 1.69898 20.1229
-0.00852638 1.25882 21.578
-1.19629 -0.435484 18.2367
-0.036561 -1.20716 18.0575
1.92882 2.08571 15.2656
1.05264 -0.793433 4.91874
0.0369517 1.06033 8.98303
2.55583 1.00599 10.8909
0.101457 1.91225 11.7355
-0.804325 0.926251 18.9797
-0.0397531 0.509384 17.1036
1.6225 -1.39699 9.87589
-0.110428 -0.739166 21.3991
-0.376395 1.62295 -5.9021
0.0998016 -0.917491 19.7051
-0.269767 1.46808 -2.50827
-0.603432 1.14403 19.8256
0.00496708 0.963741 19.5248
-0.844859 1.45578 20.6599
0.0159498 1.77324 19.9861
-0.616436 0.843675 21.6201
-0.0121853 1.82212 21.193
-0.213013 0.0842201 21.6674
-0.0229622 0.612328 21.9686
-0.0584887 -0.208675 21.5582
-0.018354 -0.0172695 21.6022
0.0713839 -0.496162 20.958
-0.0322025 -0.279245 21.5182
-0.0246209 -0.497627 20.7779
1.13643 -1.92795 19.4029
0.756032 -0.946877 19.058
0.697382 -0.689703 19.6354
0.487728 -1.36273 22.063
1.4935 -1.85107 20.6269
0.0663311 -0.294594 21.855
0.332842 -0.675726 21.7107
-0.206777 0.225461 22.0556
-0.079304 -0.156945 21.8115
-0.604746 0.958229 21.8584
-0.564445 0.357175 21.8516
-0.716237 1.21551 21.7639
-0.955872 1.59974 20.268
-0.881603 0.769377 21.5149
-0.991263 1.76906 20.1011
-0.930906 1.01067 20.978
1.16618 -0.442022 18.145
1.02182 -0.625497 19.2308
-1.77076 2.17221 15.0771
-0.931496 -0.636357 3.50387
-1.77803 0.89442 19.6056
-2.57602 1.22167 9.18679
-1.78089 0.644301 19.9934
0.797261 0.934279 18.9705
1.27716 0.173319 18.8679
-0.944804 -0.874677 4.88484
0.232879 -0.678196 20.968
-0.983954 -1.09245 16.3385
0.0913872 -1.03189 20.0899
-1.65254 -1.31939 16.5789
0.617152 1.12971 19.8342
0.544523 0.599786 19.8379
0.852045 1.45057 20.6629
0.865313 0.997017 20.2839
0.60101 0.888128 21.6439
0.840253 0.880963 21.1781
0.195562 0.126363 21.6762
0.372609 0.306666 21.7285
0.0618701 -0.183434 21.5302
0.0899187 -0.108623 21.5023
0.0351722 -0.355766 21.5461
-0.00775329 -0.364461 21.5439
-0.147208 -0.558447 20.9216
1.00904 -0.776099 20.0595
0.791938 -0.463755 19.7603
0.899554 -0.876238 21.3076
1.6822 -1.08359 20.5353
0.182553 -0.323116 21.6087
0.60088 -0.655646 21.5968
-0.256844 -0.0057878 21.737
0.00566801 -0.282175 21.7099
-0.70373 0.275686 21.5832
-0.574848 0.0704807 21.7376
-0.951089 0.472425 21.0349
-1.04093 0.325504 21.4824
-1.25872 0.334543 20.8515
1.59728 -0.715711 19.7378
1.07254 -0.211865 19.488
1.51794 -1.0025 21.565
2.75812 -0.416515 20.3175
0.324597 -0.537524 21.7387
1.14115 -0.648527 21.7281
-0.290185 -0.242517 21.8812
0.242352 -0.483755 21.9468
-1.03521 0.0558311 21.692
-0.718964 -0.463367 21.8323
-1.34986 0.228917 21.4338
-1.33005 -0.461914 21.5606
-1.48288 -0.308214 21.3422
1.89595 0.222692 19.5279
0.825487 0.408856 19.6971
2.18384 0.0175712 21.2671
1.50152 0.806323 20.2588
1.03291 -0.410808 21.8576
1.38326 0.463092 21.3209
0.086571 -0.515946 21.9811
0.645123 0.00549862 21.7878
-0.560221 -0.864231 21.7062
0.107349 -0.394305 21.6915
-1.02756 -0.875376 21.632
-0.176342 -0.669804 21.6112
-0.519768 -0.596867 20.7985
0.697684 0.574295 20.1451
0.84667 0.65717 20.8016
0.613239 0.37574 21.3772
0.190436 -0.0357668 21.533
0.0218272 -0.28018 21.5082
-0.0804216 -0.358536 21.3898
-1.29124 -0.796174 19.93
-1.64763 -2.33833 18.7621
-1.17432 -1.27926 19.7891
-2.11299 -1.31736 19.0346
-0.851672 -0.682697 19.4743
-2.35016 -2.42572 20.5173
-1.17547 -1.00023 21.4535
-0.266985 -1.07367 21.3332
-0.776505 -1.32077 21.7029
-1.52482 -2.04931 22.1026
-0.274244 -0.792343 21.876
-0.216672 -0.455448 21.6863
-0.12813 -0.0700458 18.563
-0.0793401 -0.346867 21.7453
-0.0158835 -0.147264 17.9315
0.134101 -0.134806 21.1947
0.307064 -0.117201 21.8263
0.127805 0.370646 18.4815
0.287212 0.117286 21.9611
0.442584 0.130215 17.7891
0.78151 0.543536 21.3914
0.902697 0.267248 21.6591
0.672917 1.30772 19.7912
0.765081 0.69524 21.7652
1.47134 0.714265 19.1071
1.32159 0.945953 21.2053
1.1204 0.342841 21.3424
1.28651 1.68852 18.7705
0.927011 0.828807 21.3443
1.72639 0.995438 19.2387
1.35672 0.947624 21.2707
-1.86978 -0.300924 19.5696
-3.71559 -0.932418 15.9207
-2.72226 0.592764 18.5422
-1.23733 -0.285607 18.9715
-5.83722 -0.692637 19.4673
-2.04991 -0.584916 21.5374
-3.53347 0.0681912 21.8379
-0.913085 -1.24896 19.909
-0.639068 -0.612445 21.8927
-1.46184 -0.928685 21.4193
0.0119215 -0.101229 16.7198
0.130526 -0.458947 21.8998
0.199927 -0.14695 18.4824
1.05679 0.147326 13.4723
1.05034 -0.526628 21.7018
-0.0946 -1.71721 2.07162
0.528528 -0.760262 17.6407
1.77279 -0.235559 17.2177
1.45658 -0.30897 21.676
2.77235 -0.445982 8.66705
1.38984 -1.15655 18.5267
2.04683 0.0950255 17.9838
-1.21282 0.651318 19.8443
-1.39048 1.88703 18.9252
-0.723645 0.84977 19.9939
-0.906682 0.647945 19.3878
-1.91096 1.56686 19.9773
-1.5425 0.686938 20.8577
-2.17376 2.48963 20.4142
-0.912092 1.01179 20.7422
-1.92437 1.00893 21.4082
-1.03037 0.205812 21.635
-1.91528 1.45422 22.2941
-0.63276 0.548544 21.4934
-0.824172 0.149414 22.0012
-0.303612 -0.200325 21.7404
-0.488921 -0.0418848 22.0886
-0.193906 0.0256615 21.5555
-0.221969 -0.380439 21.7657
0.0547085 -0.492162 21.5393
-0.294711 -0.42948 21.7073
-0.0360276 -0.273741 21.3892
0.0800928 -0.696164 21.5845
0.280256 -0.621955 21.1724
0.0933424 -1.05921 21.7638
0.0578936 -0.407111 21.3417
0.411759 -0.709043 21.4652
1.64262 -2.3547 18.7476
0.00300751 -2.84088 19.0472
-0.047715 -4.56033 15.5564
-0.0146376 -1.27986 18.5912
0.0225339 -5.65396 23.0165
0.270343 -1.13493 21.4062
0.0238426 -1.51852 22.4521
0.000433353 -0.376587 15.4921
0.107117 -0.106818 19.0813
0.0127437 -0.393943 21.7831
0.00194303 -0.0680592 14.8915
-0.190018 0.389931 19.2236
0.0204867 0.191634 21.998
0.0185875 0.731175 16.3167
-0.735305 1.31092 19.9455
-0.0181503 1.07126 21.5818
0.0143824 0.484863 5.65927
0.0172392 1.52308 17.8921
-1.25083 1.73245 18.798
-0.0112254 1.54426 21.7753
0.0257027 2.20943 10.9681
0.0254827 2.57945 18.7122
3.75994 -0.953389 15.7142
-0.0576833 3.55329 12.8135
-0.0280764 -0.551093 17.1759
0.173894 -1.64695 1.74987
-0.0697475 0.149716 -4.4816
-0.0442768 0.961255 -0.752147
-2.62712 -0.0349251 6.74295
-0.0422566 1.52305 -6.1719
0.39746 1.33449 2.71724
1.3919 1.88426 18.9267
0.00814804 1.42396 19.663
-0.0110636 1.26974 18.5284
0.0282372 3.7953 19.1622
2.17585 2.48093 20.4185
0.00549171 1.95837 20.5202
-0.0159807 4.26066 21.0244
1.94274 1.57284 22.3552
-0.0378392 1.26101 21.7171
-0.0479574 1.22655 22.6763
0.506577 -0.0146425 22.1567
-0.0201004 0.2439 21.6744
-0.0303041 0.191101 20.2298
0.329284 -0.368955 21.2335
-0.0174553 -0.148166 21.6014
-0.00229638 -0.171706 19.0106
0.00859612 -1.0275 21.3508
0.0481641 -0.477626 21.0707
-0.105537 -0.810924 18.2289
1.30019 -0.808246 19.9261
1.17732 -1.26769 19.7973
2.13729 -1.35664 18.9899
0.857346 -0.703354 19.4559
2.34063 -2.36424 20.5054
1.1729 -0.967525 21.4257
0.80628 -1.27528 21.6602
1.5537 -2.01321 22.132
0.329925 -0.8092 21.8364
0.255447 -0.447158 21.6649
0.0972144 -0.373622 21.7317
0.0871437 -0.310001 19.2264
-0.142869 -0.204764 21.5967
-0.256736 -0.131756 21.789
-0.289006 0.0562328 21.8673
-0.46674 0.0245314 19.6483
-0.799487 0.391484 21.7382
-0.837165 0.219067 21.6222
-0.765849 0.596202 21.711
-1.4931 0.63788 19.6647
-1.31089 0.912665 21.2238
-1.10517 0.334494 21.3489
-0.939918 0.798303 21.2744
-1.74875 1.11746 18.8941
-1.3526 0.990109 21.2536
1.92205 -0.308941 19.5303
2.74876 0.621188 18.4792
1.24433 -0.297403 18.9245
5.84871 -0.695459 19.4806
2.04919 -0.581518 21.5322
3.55225 0.0706313 21.8421
0.958196 -1.22056 20.154
0.641847 -0.58245 21.8792
1.46571 -0.921135 21.4401
0.00695862 -0.236615 17.7419
-0.13601 -0.443127 21.9329
-0.199053 -0.194863 18.7334
-1.07891 0.0862822 15.1942
-1.07441 -0.517948 21.7043
-0.547885 -0.73077 15.8454
-1.81007 -0.277298 15.5754
-1.55676 -0.32094 21.7534
-1.55448 -1.29266 16.4529
-2.19959 0.320078 16.2369
1.21771 0.657668 19.8406
0.726748 0.842929 19.9988
0.909222 0.658384 19.3719
1.90406 1.54745 19.9856
1.55143 0.697306 20.8576
0.914017 1.01383 20.7434
1.94391 1.03457 21.4138
1.06627 0.23341 21.6614
0.634258 0.610941 21.5114
0.849658 0.187377 22.0517
0.320584 -0.207934 21.7727
0.196683 0.0625906 21.5649
0.257455 -0.394617 21.8053
-0.0216963 -0.512699 21.5965
0.0445342 -0.246328 21.4105
0.0215714 -0.7844 21.7854
-0.249999 -0.674792 21.1187
-0.0756553 -0.513301 21.1067
-0.196485 -0.922734 20.9085
-1.59001 -1.38497 19.4828
-1.00149 -1.65 22.0606
-0.0231399 -0.389559 21.4333
0.410992 0.144158 21.2525
1.10067 0.804198 21.3196
1.50283 1.10391 21.3077
-2.81606 -0.515848 18.505
-2.78111 -1.22123 22.1557
-0.314701 -0.685522 17.9518
0.128132 0.267794 15.4638
1.29599 -0.218286 15.1072
2.21314 -0.311016 17.2409
-1.44492 1.1491 19.4755
-2.04363 1.37325 20.7344
-1.46162 0.569104 21.9113
-0.409686 -0.171186 21.9174
-0.0878796 -0.527568 21.7127
0.200525 -0.835534 21.4332
-0.00832524 -3.86038 17.9419
0.00778186 -0.950225 17.8275
-0.00494598 -0.165124 14.8731
0.0245693 0.24062 15.5076
0.0132497 1.14049 17.1196
0.0162111 2.05351 18.6426
-0.0685484 -1.40438 11.7676
-0.00915511 -0.889359 0.253189
0.158916 2.03069 -0.99362
0.00240224 2.71808 18.3196
0.00575416 3.96642 19.8553
-0.050719 3.01397 22.5959
-0.0342476 0.340757 22.0858
-0.0240884 0.0469423 19.4473
-0.0944108 -0.757951 19.0286
1.59569 -1.40562 19.4699
1.03899 -1.61151 22.0074
0.0691234 -0.455031 21.6151
-0.423788 0.0381055 21.7256
-1.1014 0.694997 21.4434
-1.49654 1.07958 21.2704
2.86918 -0.529385 18.439
2.79268 -1.20963 22.1933
0.366722 -0.739109 18.6521
-0.162142 0.122358 16.6518
-1.32959 -0.189477 14.8183
-2.39996 -0.399478 15.4931
1.44665 1.15432 19.472
2.04592 1.38001 20.7345
1.5094 0.610015 21.9438
0.425263 -0.170025 21.9702
0.156343 -0.564036 21.767
-0.172843 -1.00287 21.7116
-2.98533e-16 -1.08519e-16 3.21118e-16
0.00192603 -0.021757 0.107309
-0.0448635 0.00289779 0.287209
-0.00148725 -0.0317278 -0.00161506
-0.000198888 0.00981566 0.0520012
0.0512142 -0.0112086 0.721787
-0.479393 0.132125 0.685266
-0.0165104 0.0774711 0.160623
-0.523846 0.275782 1.3711
-0.0299393 -0.0897172 0.018886
0 0 0
0.0226756 -0.00886382 0.191855
-0.00180354 -0.0234763 0.116068
0 0 0
0.0908489 0.0130034 0.365975
0.00151149 0.013335 0.128755
-0.0710472 -0.0272339 0.150523
-0.0310563 -0.0170001 0.646653
0.0156101 0.0750669 0.155245
0.475901 0.131483 0.680335
0.527733 0.282199 1.38578
0.014207 0.00435393 -0.00617132
0.0159301 -0.0528412 0.0126564
-0.0177917 -0.00681388 0.15541
-0.00859322 -0.0020838 0.206333
-5.02903e-05 3.16175e-07 0.00196048
0 0 0
0.00367336 -0.00571286 0.134356
-0.030726 -0.0204962 0.413091
3.56773e-06 3.79806e-07 0.00300865
2.10694e-05 0.00123715 0.0148139
0.00227798 -0.000278066 0.0907144
-0.800357 -0.614272 1.9777
-0.0114743 0.0187028 0.485255
0.00143139 0.00548321 0.0241118
-0.0440643 0.0574385 0.154726
0.00575979 0.0118826 0.0487143
0.0160029 0.058488 0.305982
0.00375469 0.0110142 0.0356505
0.0111945 0.00169183 0.168234
0.00698936 -0.000666048 0.136977
-0.000839322 -0.0011365 0.0402059
5.30051e-05 -8.66739e-07 0.0035297
0 0 0
0.0285777 -0.0216173 0.57346
0 0 0
0.000630448 0.000102712 0.0328047
-7.10888e-05 0.000945603 0.0141679
0.779638 -0.612085 1.92122
0.0443599 0.0577591 0.15552
0.0115564 0.0193123 0.493998
-0.00143742 0.00550924 0.0243387
-0.00577107 0.0118604 0.0494712
-0.0108007 0.00164724 0.168567
-0.0158974 0.0576828 0.306454
-0.00372374 0.010905 0.0357937
-0.66204 -0.132782 1.52541
-0.334624 0.0217363 0.197087
-1.51108e-07 -3.77035e-06 0.000159306
0 0 0
-0.00102495 -0.000987155 0.0348295
0.00088817 -5.87745e-06 0.0300723
0.000622767 0.00232601 0.0349344
-0.0563355 -0.220379 0.0918403
1.59042e-06 1.07491e-05 0.000224252
0.00191723 -0.0485914 0.0053031
0.000163536 0.000448222 0.0111411
0.0131525 0.00901336 0.324488
0 0 0
-1.5085e-05 0.0113626 0.0362192
-0.173942 -0.260864 1.16187
-0.0441336 0.0138668 0.113626
0.0101761 -0.127335 0.0147604
0.0013861 -0.000965039 0.0382889
0.0171711 0.0372357 0.247768
0.000197334 -0.00042595 0.00347199
0.333495 0.0207521 0.195038
0.662507 -0.132505 1.53025
9.55581e-07 1.86754e-08 -3.12957e-05
0.00100842 -0.00099374 0.0342171
0.0451126 -0.142932 0.0569224
-0.00132341 0.00444362 0.0644664
-1.0935e-06 1.38747e-06 1.90563e-05
-2.35713e-05 8.38078e-05 0.00210086
0.0592513 -0.00612722 0.050201
0.173167 -0.258946 1.16132
-0.000153547 -0.00045326 0.00370338
-0.0173096 0.0375135 0.247916
0 0 0
0.00199253 -0.000296217 0.0820531
0.000313038 -0.00201006 0.0433212
-4.72515e-05 0.000513691 0.00418773
1.46313e-08 -5.79253e-08 -1.14552e-05
2.45422e-09 7.05928e-09 -6.04045e-06
-4.28471e-05 0.00209522 0.0136905
0.000150189 0.010255 0.0490575
6.16611e-08 -5.761e-09 1.54862e-05
0 0 0
0.010484 0.0271405 0.17606
-0.03106 0.0415526 0.248373
1.56862e-05 0.00994906 0.0217565