# vtk DataFile Version 2.0
tri_press
ASCII
DATASET UNSTRUCTURED_GRID
POINTS 3682 float
-0.789724 0.285 -1.845
-0.814073 0.225 1.855
-0.775 0.869517 -1.745
-0.665 1.605 1.67417
0.789745 0.285 -1.845
0.733325 0.225 1.865
0.775 0.869517 -1.745
0.665 1.60412 1.675
-0.815765 0.247075 -0.611667
-0.810524 0.240433 0.621667
-0.802602 1.17895 -0.605277
-0.747387 1.40556 0.534447
0.802144 0.233794 -0.608333
0.763503 0.233628 0.628333
0.802651 1.1787 -0.605
0.74752 1.40511 0.535
-1.57851 -0.283429 -2.79157
-1.58552 -0.184716 -1.84188
-1.59726 -0.219193 -0.605916
-1.58258 -0.29154 0.648753
-1.57157 -0.317175 1.8863
-1.57923 -0.255061 2.84375
-1.59289 -0.154999 3.78695
-1.57705 0.122807 -2.77571
-1.58386 0.259475 -1.83626
-1.59545 0.278336 -0.618935
-1.56113 0.278894 0.606544
-1.53569 0.294809 1.82566
-1.55303 0.36015 2.7817
-1.57434 0.453129 3.72802
-1.56739 0.850525 -2.7174
-1.57051 0.976407 -1.77378
-1.57731 1.21672 -0.620329
-1.50611 1.42259 0.526161
-1.4343 1.58803 1.6812
-1.48474 1.64328 2.63969
-1.53226 1.6997 3.60033
-1.54295 2.18412 -2.70195
-1.54386 2.35217 -1.77274
-1.53762 2.66778 -0.649699
-1.50895 3.00566 0.452678
-1.48189 3.26229 1.57623
-1.48698 3.38624 2.5065
-1.50914 3.4644 3.4567
-0.790051 -0.268663 -2.79711
-0.791507 -0.162881 -1.84995
-0.811576 -0.232154 -0.603407
-0.817892 -0.325502 0.662751
-0.824062 -0.369985 1.90968
-0.835779 -0.292011 2.8602
-0.847571 -0.177843 3.79724
-0.79045 0.12387 -2.77715
-0.822665 0.329257 2.7952
-0.83522 0.43514 3.7361
-0.783308 0.805344 -2.70526
-0.759173 1.64417 2.63915
-0.798915 1.69747 3.60144
-0.760774 2.14488 -2.68979
-0.76211 2.31106 -1.75937
-0.764206 2.64616 -0.641272
-0.752427 3.00794 0.452677
-0.739019 3.2769 1.57076
-0.746927 3.4 2.50114
-0.767177 3.47362 3.45324
0.789219 -0.270878 -2.79631
0.794933 -0.166107 -1.84898
0.789161 -0.242014 -0.600227
0.751553 -0.332033 0.668624
0.718416 -0.372243 1.91757
0.676696 -0.294191 2.86653
0.654301 -0.180481 3.80225
0.785118 0.122618 -2.77668
0.670146 0.327701 2.8014
0.653998 0.432782 3.7409
0.782888 0.80454 -2.70492
0.667642 1.64261 2.64247
0.666853 1.69526 3.60517
0.806331 2.1431 -2.68892
0.804592 2.30936 -1.75851
0.791273 2.64422 -0.640183
0.763301 3.00581 0.454136
0.73698 3.27471 1.57266
0.723313 3.39766 2.50351
0.711978 3.47108 3.456
1.57965 -0.288698 -2.78958
1.58538 -0.192133 -1.83941
1.57824 -0.233946 -0.600389
1.5301 -0.303277 0.658321
1.48072 -0.323516 1.89858
1.43921 -0.260394 2.85485
1.41371 -0.160653 3.79644
1.57701 0.119071 -2.77429
1.58415 0.254961 -1.8348
1.58689 0.263907 -0.614211
1.53109 0.267813 0.615475
1.47389 0.289726 1.83768
1.43041 0.355684 2.79236
1.41039 0.447954 3.73713
1.57436 0.847945 -2.71631
1.57679 0.974531 -1.773
1.58511 1.21123 -0.618236
1.51614 1.41686 0.530117
1.4333 1.58383 1.68667
1.41681 1.63917 2.64664
1.415 1.69487 3.60768
1.59071 2.1802 -2.70003
1.58762 2.3483 -1.77079
1.57003 2.66338 -0.647245
1.52939 3.0009 0.455919
1.4883 3.25751 1.58034
1.46942 3.38129 2.51142
1.45893 3.45914 3.46227
-0.830913 0.577259 -1.84355
1.04904e-05 0.261408 -1.86859
-0.813464 0.255318 -1.22833
-0.814224 0.915 1.83927
-0.040374 0.278764 1.80624
-0.818139 0.226876 1.23833
0 0.960648 -1.83613
-0.842932 1.07836 -1.17514
0 1.6579 1.72793
-0.715139 1.51423 1.10431
0.830973 0.577259 -1.8436
0.803324 0.252017 -1.22667
0.789989 0.91456 1.86083
0.687804 0.289924 1.24667
0.842997 1.07828 -1.175
0.715319 1.51367 1.105
-0.813059 0.24384 0.005
-0.878662 0.713011 -0.608472
-0.00681057 0.23939 -0.61
-0.879853 0.822996 0.578057
-0.0235103 0.239419 0.625
-0.777078 1.29434 -0.035415
2.43951e-05 1.66 -0.605138
6.6434e-05 1.83629 0.534723
0.782826 0.233709 0.00999999
0.878481 0.706248 -0.606667
0.879821 0.819367 0.581667
0.777161 1.29398 -0.035
-0.896318 0.645135 -1.20174
0.896353 0.641753 -1.20083
-0.00340004 0.253554 -1.2275
1.21976e-05 1.32676 -1.17507
5.24521e-06 0.577259 -2.02419
-0.879474 0.768003 -0.0152075
0.879345 0.762808 -0.0125
-0.0151604 0.23935 0.00749999
4.54145e-05 1.81835 -0.0352075
-0.880011 0.868998 1.17132
0.879911 0.866963 1.17583
-0.0319421 0.271054 1.2425
3.3217e-05 1.81708 1.10465
-0.020187 0.91478 1.98968
-0.816111 0.431129 -1.85007
-0.394857 0.261414 -1.86859
-0.81148 0.260273 -1.53667
-0.837833 0.57 1.87082
-0.427224 0.280183 1.80232
-0.753923 0.288121 1.54667
-0.828604 0.723388 -1.81992
-0.3875 0.941738 -1.81722
-0.836868 1.00184 -1.46007
-0.782276 1.26 1.79939
-0.3325 1.64697 1.71656
-0.70008 1.56962 1.38924
0.394878 0.261896 -1.8681
0.816142 0.431129 -1.85008
0.805527 0.259516 -1.53583
0.346475 0.289812 1.79769
0.797197 0.56978 1.89845
0.683867 0.284159 1.55583
0.3875 0.941594 -1.81708
0.828719 0.723388 -1.82003
0.836746 1.00165 -1.46
0.3325 1.64642 1.71688
0.771997 1.25934 1.81242
0.700276 1.56901 1.39
-0.814629 0.251182 -0.92
-0.814612 0.245257 -0.303333
-0.88082 0.46324 -0.610069
-0.410083 0.245642 -0.610833
-0.810799 0.237187 0.93
-0.811871 0.242056 0.313333
-0.885075 0.511771 0.599862
-0.414109 0.245741 0.623333
-0.821819 1.12771 -0.890208
-0.874321 0.962823 -0.606874
-0.79063 1.23743 -0.320346
-0.503661 1.62422 -0.605208
-0.732137 1.46077 0.819378
-0.849972 1.13245 0.556252
-0.76711 1.35483 0.249516
-0.469175 1.81195 0.534585
0.810686 0.234954 -0.9175
0.394288 0.24335 -0.609167
0.792489 0.233748 -0.299167
0.87862 0.450868 -0.6075
0.742786 0.244644 0.9375
0.369976 0.236566 0.626667
0.773164 0.23367 0.319167
0.883723 0.495467 0.605
0.821879 1.12755 -0.89
0.503798 1.62427 -0.605069
0.874692 0.959538 -0.605833
0.790692 1.23713 -0.32
0.732298 1.46027 0.82
0.469405 1.81192 0.534862
0.85044 1.13062 0.558333
0.767222 1.35442 0.25
-0.892065 0.611197 -1.52264
-0.415454 0.577259 -2.0014
-0.00169477 0.260571 -1.54805
7.86781e-06 0.419333 -2.00314
-0.891034 0.450226 -1.21503
-0.408432 0.253565 -1.22792
-0.868745 0.891999 1.5053
-0.417205 0.91489 1.95686
-0.0361581 0.274982 1.52437
-0.0302805 0.596772 2.02362
-0.886137 0.547937 1.20483
-0.425041 0.270831 1.24042
6.09878e-06 1.1598 -1.5056
2.6226e-06 0.768953 -1.9854
-0.876459 0.861749 -1.18844
-0.42146 1.2973 -1.1751
1.66085e-05 1.78905 1.41629
-0.0100935 1.28634 1.94114
-0.840295 1.19161 1.13781
-0.357553 1.80118 1.10448
0.892067 0.609506 -1.52222
0.415489 0.577259 -2.00155
0.887561 0.446885 -1.21375
0.399962 0.251305 -1.22708
0.868062 0.890762 1.51833
0.384901 0.91467 1.96118
0.887576 0.578444 1.21125
0.327931 0.274394 1.24458
0.876625 0.860017 -1.18792
0.421505 1.29734 -1.17503
0.840701 1.19032 1.14042
0.357676 1.80112 1.10483
-0.883735 0.487187 -0.00510375
-0.412029 0.245757 0.00624999
-0.878195 0.679073 -0.905104
-0.879103 0.740507 -0.31184
-0.0051053 0.239269 -0.91875
-0.0109855 0.239316 -0.30125
-0.879779 0.7955 0.281425
-0.880022 0.845997 0.874689
-0.0193353 0.239385 0.31625
-0.0277262 0.239544 0.93375
-0.865451 1.04976 -0.0253112
-0.505844 1.791 -0.0353113
1.82963e-05 1.50381 -0.890104
3.49048e-05 1.77755 -0.320173
5.59243e-05 1.83369 0.249758
4.98255e-05 1.83003 0.819689
0.881561 0.47302 -0.00125001
0.382289 0.239618 0.00874999
0.878044 0.674001 -0.90375
0.87894 0.734528 -0.309583
0.879736 0.791087 0.284583
0.879999 0.843165 0.87875
0.865981 1.04726 -0.02375
0.506005 1.79097 -0.0351038
-0.883821 0.440678 -1.52965
-0.881327 0.465135 -0.912552
-0.87866 0.903864 -0.897656
-0.88112 0.792568 -1.49136
0.883834 0.439007 -1.52903
0.881404 0.791703 -1.49111
0.878691 0.901246 -0.896875
0.880133 0.458453 -0.910625
-0.401645 0.26058 -1.54236
0.39742 0.257559 -1.54194
0.398814 0.23872 -0.918125
-0.40986 0.239266 -0.919375
-0.40448 1.1547 -1.48283
-0.411374 1.47843 -0.890156
0.411421 1.4785 -0.890052
0.404502 1.15458 -1.4828
-0.405155 0.425231 -1.979
-0.401477 0.746171 -1.95668
0.401495 0.746171 -1.95668
0.405183 0.425231 -2.00279
-0.88241 0.475147 -0.307587
-0.884472 0.499446 0.297379
-0.855747 1.09012 0.26547
-0.869824 1.00626 -0.316093
0.880116 0.461931 -0.304375
0.870292 1.00338 -0.314792
0.856468 1.08807 0.267292
0.882895 0.484118 0.301875
-0.411056 0.245699 -0.302292
0.388759 0.240543 -0.300208
0.374777 0.240802 0.317708
-0.413036 0.245814 0.314792
-0.523255 1.74461 -0.320259
-0.490609 1.80767 0.249637
0.490802 1.80764 0.249879
0.523348 1.74451 -0.320087
-0.886862 0.539826 0.902344
-0.887777 0.558968 1.52598
-0.828765 1.22581 1.44727
-0.848553 1.15294 0.847033
0.887793 0.552471 0.908125
0.848971 1.15128 0.849375
0.828854 1.22483 1.45416
0.894364 0.574112 1.53708
-0.421029 0.23956 0.931875
0.348964 0.239331 0.935625
0.337203 0.276185 1.5401
-0.426132 0.27629 1.53552
-0.365606 1.81466 0.819533
-0.345026 1.77712 1.40276
0.345088 1.77718 1.40315
0.365735 1.81463 0.819844
-0.422215 0.583386 1.99482
0.365688 0.583276 2.00153
0.3587 1.27284 1.92078
-0.374853 1.27317 1.93099
-0.80564 0.358065 -1.85026
-0.59229 0.261424 -1.86858
-0.812105 0.261133 -1.69083
-0.833268 0.3975 1.87023
-0.620648 0.287908 1.79334
-0.766436 0.274123 1.70083
-0.805083 0.796452 -1.78574
-0.58125 0.915737 -1.79122
-0.814389 0.944135 -1.60253
-0.73368 1.4325 1.74682
-0.49875 1.63109 1.70048
-0.690074 1.59485 1.5317
0.592311 0.261415 -1.86859
0.805623 0.358065 -1.85022
0.807797 0.262097 -1.69042
0.5399 0.283044 1.80571
0.781712 0.39739 1.89818
0.675763 0.287412 1.71042
0.58125 0.915752 -1.79123
0.805329 0.796452 -1.78599
0.81436 0.944069 -1.6025
0.49875 1.63036 1.70103
0.728911 1.43173 1.75412
0.690295 1.59422 1.5325
-0.816196 0.24813 -0.765833
-0.815332 0.246023 -0.4575
-0.851335 0.353636 -0.610868
-0.612903 0.246401 -0.61125
-0.811227 0.238244 0.775833
-0.811289 0.241153 0.4675
-0.859815 0.370094 0.610764
-0.610545 0.24663 0.6225
-0.808691 1.14981 -0.747742
-0.853973 1.07864 -0.606076
-0.796933 1.20851 -0.462811
-0.715014 1.52535 -0.605242
-0.739917 1.43332 0.676912
-0.787538 1.26344 0.545349
-0.754963 1.37791 0.391981
-0.65019 1.69257 0.534516
0.805759 0.23503 -0.762917
0.594355 0.246295 -0.60875
0.79732 0.233768 -0.45375
0.843622 0.340711 -0.607917
0.758666 0.233614 0.782917
0.561073 0.24643 0.6275
0.768332 0.23365 0.47375
0.849516 0.351596 0.616667
0.808725 1.14958 -0.7475
0.715044 1.52513 -0.605035
0.854279 1.07692 -0.605417
0.796993 1.20824 -0.4625
0.740057 1.43283 0.6775
[...]
POINT_DATA 3682
SCALARS point_scalars float 1
LOOKUP_TABLE default
-127.774
-61.1625
-56.7643
-54.3003
-126.877
-60.0546
-56.3503
-48.5271
-52.2963
-45.2169
-83.8634
-60.4318
-49.9296
-46.7685
-82.9861
-59.0963
-84.4394
-124.864
-53.1178
-45.0827
-53.1241
-73.5906
-73.5906
-84.4394
-127.286
-51.94
-46.2769
-62.474
-62.9057
-54.1328
-49.3882
-137.551
-74.674
-55.8935
-56.7946
-56.2172
-51.5876
-53.8952
-78.9418
-109.034
-72.271
-56.9226
-54.9745
-54.9745
-127.076
-165.323
-50.9449
-46.1566
-65.6749
-56.1779
-56.1779
-19.7739
-56.1779
-52.445
135.671
-49.7886
-50.1214
24.1261
-1.2591
-112.295
-72.2709
-56.1046
-52.4117
-51.3581
-123.136
-164
-50.0063
-48.0454
-58.9739
-52.3311
-52.3311
-13.432
-51.2526
-50.2026
134.956
-42.2683
-41.5335
21.5266
-77.1691
-111.372
-71.2188
-53.0806
-47.5142
-46.5439
-92.059
-122.892
-49.7339
-47.2886
-56.4744
-67.2661
-55.6494
-92.059
-125.149
-51.5369
-46.5126
-60.5225
-56.6751
-51.3975
-47.8555
-136.597
-73.8424
-54.6846
-50.9404
-46.4501
-43.8239
-64.123
-85.9511
-107.954
-71.2108
-53.5768
-49.4893
-49.4893
-84.7424
-175.217
-70.7761
-57.724
-57.6833
-54.0094
58.53
-102.96
-44.1327
-56.0049
-84.0518
-69.2021
-49.3195
-48.1914
-102.252
-53.4406
-45.0926
-59.0349
-54.8125
-50.0687
-49.7761
-69.6522
-52.7583
-77.1518
-46.0959
-58.2535
-48.9474
-68.6637
-80.6346
-79.7645
-77.237
28.4191
200.326
-52.4503
-51.7234
-48.0983
-105.766
-53.207
-50.3862
-53.3586
-60.4022
-47.6136
-82.009
-184.383
-98.2902
-61.0294
-59.642
-51.1885
-75.6008
53.9745
-108.233
-56.1477
-47.1242
-56.2607
-180.714
-82.5093
-96.1948
-57.2986
-53.2176
-49.1728
54.4158
-74.9542
-107.858
-43.2932
-48.104
-52.3637
-60.7576
-46.1362
-52.7685
-54.1384
-45.5629
-45.156
-47.0978
-48.2736
-92.5807
-69.5336
-75.8218
-56.1484
-57.5566
-55.159
-64.4467
-73.0736
-59.2268
-53.9262
-47.0523
-52.1214
-52.7911
-49.0134
-45.493
-46.6108
-91.9935
-55.5268
-68.5961
-74.9268
-55.7486
-72.2097
-53.8295
-63.3387
-109.313
183.509
-102.335
162.083
-75.7365
-75.8146
-59.4
-51.2799
-51.0079
-50.6052
-51.8159
-53.5203
11.3544
167.132
-89.2445
15.9804
-53.0985
-44.5301
-53.9101
-60.5914
-108.677
182.19
-74.5535
-74.9289
-55.0909
-45.8062
-48.656
-52.2208
-88.5638
16.6594
-51.0135
-59.209
-47.9389
-47.2642
-66.6092
-55.1105
-63.0469
-50.0719
-50.7531
-50.3597
-48.0766
-53.073
-59.6714
-97.8458
-8.5086
-120.752
-90.4588
-67.6826
-47.3009
-47.4084
-65.6801
-54.3718
-49.9667
-48.5494
-58.8864
-97.1355
-108.41
-62.6812
-76.4244
-111.03
-108.165
-110.461
-75.6221
-61.9273
-100.875
-99.872
-61.345
-61.758
-1.96579
-17.3873
-16.8236
-2.53353
157.563
147.304
147.038
148.963
-49.4338
-47.0613
-57.1894
-64.6346
-48.8623
-63.8451
-56.1475
-46.7099
-49.1207
-49.1925
-47.2943
-47.2202
-116.26
-83.0799
-82.3041
-115.379
-48.0319
-58.315
-57.2117
-54.0732
-46.5508
-52.0194
-52.7116
-55.2357
-53.3382
-53.0497
-50.9011
-51.6609
-66.7212
-55.0094
-52.765
-65.8022
-51.7877
-49.2599
-41.4845
-50.0732
-94.1968
-197.649
-132.377
-66.2998
-62.3059
-55.9376
-68.2696
32.3624
-106.506
-54.398
-49.1479
-55.2898
-197.364
-94.9724
-129.969
-58.1947
-57.1464
-50.5088
32.9049
-67.895
-105.563
-44.1571
-47.7122
-50.585
-52.7629
-47.7508
-51.0803
-52.8238
-44.7942
-44.7873
-45.786
-47.4195
-87.9539
-76.2489
-79.8266
-126.079
-58.802
-57.7334
-62.919
-66.3416
-52.5459
-52.7697
-48.1136
-50.1897
-52.0972
-48.3561
-46.6584
-46.4929
-86.7371
-125.061
-75.4795
-78.9279
-57.2647
-65.0222
-56.4996
-61.6937
-81.0763
-83.1278
-147.88
138.057
-175.437
-173.634
-127.127
65.8299
-79.8993
-63.7319
-73.8444
-73.5402
-59.3884
-57.4951
-60.9095
-51.7825
-58.5924
-57.2068
-54.2245
-50.1342
-50.7387
-62.3845
-50.9591
-52.4256
58.4401
58.9001
17.3924
116.668
-103.643
-102.085
-94.3243
-4.49461
-45.457
-43.4579
-48.7453
-43.5492
-56.2562
-56.8101
-54.2905
-60.6035
-81.0107
-82.284
-146.826
138.02
-78.6367
-61.326
-72.7271
-72.3309
-51.273
-48.8239
-55.305
-45.9671
-47.219
-55.9086
-48.1038
-50.8878
-102.997
-101.496
-93.7575
-4.24532
-53.0553
-54.6393
-51.5235
-58.7303
-45.3793
-44.713
-45.9798
-46.4036
-55.8277
-63.6381
-61.7897
-56.8064
-54.597
-54.6419
-58.5284
-52.0062
-48.4552
-52.2254
-50.3044
-50.0382
-49.5399
-49.6909
-48.7061
-51.2262
-72.9656
-66.5964
-66.0171
-81.2539
-52.2676
-52.1186
-30.2351
-97.7092
-76.1754
-75.7454
-83.3315
-71.5948
-45.5289
-44.9392
-45.8016
-46.7195
-55.208
-62.7476
-60.9419
-56.0831
-47.7037
-50.9449
-49.3971
-48.6194
-72.0425
-65.5255
-65.1153
-80.1888
-91.5154
-78.0911
-84.8906
-74.4496
-90.723
-77.067
-84.119
-73.559
-87.5358
-77.004
-76.5595
-69.0019
30.709
26.1811
26.4519
11.2622
196.356
190.345
197.862
199.605
-50.0499
-53.6821
-51.4267
-56.247
-49.4699
-52.9187
-50.6923
-55.3996
-47.863
-48.7567
-47.8876
-48.0027
-104.538
-114.782
-97.3175
-104.204
-56.6366
-52.6266
-52.8135
-51.3002
-53.1679
-49.67
-50.1219
-49.0571
-51.5678
-53.5302
-52.947
-57.8344
-56.8124
-60.6618
-59.936
-63.8768
-49.5811
-48.9115
-45.5824
-46.2392
-148.849
120.94
-127.795
76.1641
-105.503
-98.5871
-61.2244
-52.6119
-56.1029
-52.5461
-57.2573
-52.3612
-137.225
105.711
9.57201
107.101
-120.273
-23.1195
-57.6096
-50.3934
-51.6039
-47.5331
-56.3721
-56.3569
-127.487
37.1551
-147.217
122.649
-105.903
-96.6883
-53.6723
-49.9836
-58.2217
-49.7664
-54.2815
-50.047
10.1514
106.886
-136.567
106.012
-119.749
-23.1118
-48.6988
-42.1863
-51.7653
-42.5463
-52.0186
-53.3441
-65.1441
-60.0593
-47.3094
-48.0808
-56.0753
-50.7431
-57.7889
-51.0326
-45.7177
-54.7657
-45.5176
-46.3485
-46.9994
-47.3992
-47.7078
-51.1022
-82.5989
-60.4565
-72.7771
-66.8014
-71.2207
-96.9357
-37.035
-97.743
-55.6333
-65.4574
-56.4712
-54.333
-61.214
-72.2568
-77.876
-69.5925
-64.6714
-59.4272
-57.748
-51.3164
-47.1845
-48.347
-55.2716
-50.2484
-44.2018
-53.4396
-48.2645
-50.9182
-45.538
-46.8254
-46.6279
-46.6748
-82.1005
-60.2985
-36.4432
-97.8563
-71.7539
-65.8489
-70.3218
-95.9
-53.7486
-64.1411
-77.0755
-68.7214
-55.2347
-52.6979
-60.202
-71.0779
-109.224
-109.307
177.383
182.714
-101.879
-101.303
167.632
155.435
-87.5073
-69.6621
-85.9849
-67.5804
-59.0415
-58.4372
-51.61
-50.818
-51.092
-51.3544
-51.0179
-50.1409
-49.4434
-55.1207
-58.2466
-51.7684
6.26667
13.1734
166.113
165.374
-82.0955
-97.719
15.3459
0.331483
-53.9919
-52.8204
-42.1842
-47.4912
-55.0307
-53.7594
-63.632
-58.0171
-108.782
-108.617
181.459
172.355
-86.9457
-68.4032
-84.8791
-66.8683
-53.9439
-55.3572
-47.9248
-42.9248
-47.9321
-52.1179
-57.505
-50.5299
-97.5524
-81.3444
0.981755
13.9874
-51.3812
-51.5678
-56.2866
-62.52
-48.5308
-47.3758
-47.9143
-47.063
-64.398
-70.7183
-52.2281
-58.9876
-62.6013
-62.739
-49.7852
-49.9899
-48.8981
-53.5147
-48.8714
-52.0176
-48.0006
-47.8475
-53.1334
-52.9679
-57.9903
-62.4266
-105.615
-89.3425
-10.0398
-9.91351
-119.284
-118.933
-88.5005
-88.1022
-67.544
-67.0647
-47.869
-46.8428
-48.1146
-47.542
-69.8679
-63.4742
-51.4724
-58.1415
-52.5553
-48.3758
-47.2902
-50.0707
-61.6139
-57.1566
-88.6017
-104.78
-133.161
-85.6863
-89.569
-146.168
-53.8183
-58.8092
-71.7716
-67.7873
-80.5139
-88.1916
-77.7926
-66.577
-133.944
-141.45
-94.309
-102.522
-131.724
-145.091
-88.793
-84.9455
-133.192
-101.597
-93.4542
-140.694
-78.7047
-65.6863
-76.9677
-87.4698
-53.187
-65.9609
-70.6887
-58.1425
-127.435
-126.998
-87.2642
-83.2588
-126.558
-81.9982
-86.6093
-126.725
-56.7052
-58.3294
-68.3889
-64.3218
-56.879
-65.4164
-68.7462
-58.3181
-7.56109
-20.5569
29.6277
12.3332
-113.668
-30.3377
9.69989
-24.4391
-112.317
-23.7824
10.1397
-29.2057
-7.61298
13.7328
21.6991
-20.5726
66.9507
137.93
186.399
107.148
68.1654
117.422
193.644
131.379
67.9384
131.508
192.419
117.549
70.3842
54.8129
190.027
138.376
-48.3582
-46.5188
-51.1678
-53.5901
-45.5947
-48.5513
-49.4967
-45.6486
-60.0073
-62.9649
-53.7623
-52.774
-73.5613
-61.0685
-57.3729
-68.8841
-48.5281
-53.0172
-50.4565
-46.3232
-72.6456
-68.0728
-56.5479
-60.2691
-58.8905
-51.6295
-52.8806
-61.9397
-45.7538
-45.5375
-48.8606
-47.9149
-49.8767
-51.7651
-48.5329
-46.9853
-50.0745
-47.2809
-48.6373
-51.8327
-47.4084
-48.5945
-47.8233
-46.6092
-46.7625
-46.2208
-47.65
-48.4382
-109.788
-88.1731
-113.297
-94.6242
-69.1026
-81.891
-95.7366
-75.9504
-67.8519
-74.835
-95.3629
-81.4721
-108.756
-94.3563
-112.958
-87.1189
-45.9485
-56.4513
-48.9084
-48.6373
-58.6278
-62.0176
-56.0243
-53.3143
-55.871
-54.4937
-56.4663
-59.3515
-56.628
-51.867
-53.4683
-54.8622
-47.7843
-47.5276
-47.0038
-51.7382
-55.0662
-52.6202
-50.935
-50.2772
-50.5269
-53.6493
-52.8029
-51.2787
-56.5148
-50.5169
-53.0306
-57.3666
-48.9641
-51.1691
-58.0954
-57.0077
-49.796
-57.1507
-57.74
-51.1695
-53.2789
-53.9334
-51.0494
-49.2295
-57.2221
-51.593
-51.7053
-54.9331
-61.6172
-62.821
-63.9495
-71.483
-53.5645
-49.9939
-57.3798
-58.7108
-49.6046
-56.3346
-56.451
-48.4671
-60.1835
-71.0171
-63.367
-61.3022
-53.7254
-50.8465
-50.3557
-52.0176
-50.0048
-47.5374
-48.1524
-49.8355
-42.9496
-42.3463
-43.4143
-43.854
-48.837
-51.4302
-48.5351
-45.6279
-106.111
-188.204
-157.951
-71.0006
-59.7425
-53.5808
-63.9715
5.11046
-86.6901
-54.0183
-51.2283
-55.065
-186.409
-108.604
-159.074
-56.3703
-65.0711
-50.4845
5.90171
-63.4291
-86.647
-45.7036
-47.7812
-49.7872
-52.5813
-48.3252
-52.5113
-51.8026
-45.807
-45.1369
-45.3678
-46.938
-85.834
-80.4128
-81.455
-97.1499
-59.5511
-58.9334
-61.3786
-62.9346
-51.1853
-51.8903
-48.8438
-49.8482
-49.2017
-48.1785
-46.2414
-45.6569
-84.7252
-96.1966
-79.563
-80.5757
-58.1237
-61.5645
-57.6303
-60.1174
-82.8339
-86.0324
-148.996
59.771
-175.912
-174.56
-147.489
-118.421
-74.8204
-66.8731
-72.3872
-72.0699
-58.1426
-58.1558
-60.0828
-52.545
-58.0364
-57.0394
-55.4227
-52.4542
-55.3842
-51.7251
-51.5814
-53.5564
58.2217
58.2888
35.4048
80.7396
-103.097
-105.32
-99.2357
-71.3356
-44.7235
-43.7144
-47.0781
-43.6033
-55.2714
-56.3904
-55.1528
-59.4377
-82.364
-85.3804
-147.91
59.9725
-73.1039
-64.8483
-71.2187
-70.7693
-49.9453
-49.277
-54.1082
-46.3081
-45.7417
-50.9082
-47.1974
-49.9014
-102.364
-104.716
-98.5954
-70.2702
-52.5111
-54.0279
-52.5113
-57.2334
-45.5785
-44.6361
-45.4252
-45.8961
-57.2126
-61.1797
-60.3111
-57.8323
-54.7476
-54.7881
-56.5043
-53.2622
-49.1661
-50.9882
-50.1452
-50.0192
-49.7038
-49.7692
-49.2114
-50.4542
-71.3185
-68.0344
-67.4693
-75.728
-52.7761
-52.6976
-40.4043
-67.0239
-76.6187
-76.3923
-80.0319
-74.4336
-45.522
-45.9901
-44.9722
-46.2548
-56.5041
-60.338
-59.4548
-57.0967
-48.1614
-49.764
-49.1579
-48.7566
-70.3576
-66.9899
-66.5467
-74.6433
-85.4481
-79.3017
-82.6311
-77.3607
-84.5887
-78.3779
-81.7555
-76.4318
-82.1892
-77.2182
-77.0041
-72.9068
34.2194
27.9572
28.0533
18.8801
198.303
195.202
204.525
201.306
-51.1007
-53.0792
-51.9016
-53.9935
-50.4076
-52.3468
-51.1737
-53.2387
-48.0172
-48.3922
-47.9237
-48.0815
-105.52
-110.47
-101.345
-105.361
-55.4397
-52.0566
-53.3851
-52.2385
-52.2159
-49.548
-50.6232
-49.7504
-52.0541
-53.6084
-53.1896
-56.4858
-58.6898
-60.5597
-60.1901
-62.1374
-48.5652
-48.1424
-46.4949
-46.7948
-85.3305
-79.4286
-150.941
46.2338
-187.741
-178.913
-153.027
-55.3582
-114.58
-86.969
-104.122
-97.1361
-63.1175
-60.0236
-64.916
-53.8791
-59.8521
-59.1392
-57.3339
-54.8273
-49.9605
-55.0386
-54.9241
-52.5593
-69.3481
-81.3898
-147.354
46.8639
46.2831
57.4471
26.2292
74.9504
-112.157
-114.652
-122.165
-57.005
-55.2332
-56.6719
-57.5964
-51.0669
-48.0805
-46.3602
-50.89
-46.7762
-55.2547
-56.961
-56.2094
-57.0616
-186.149
-175.877
-153.358
-70.6914
-85.2057
-79.9099
-149.776
47.4404
-111.436
-85.8732
-104.705
-96.1855
-58.0142
-57.7494
-54.5828
-51.5265
-54.5039
-52.3362
-61.3206
-49.8334
-50.4788
-49.1788
-52.6437
-50.1575
46.4838
57.804
26.5772
75.0154
-69.0616
-79.4794
-146.784
47.3816
-111.774
-113.858
-121.843
-57.1988
-43.5642
-43.3141
-47.2896
-42.6449
-47.892
-48.2877
-51.07
-43.8269
-51.0695
-53.339
-52.0767
-53.4549
-57.0367
-60.8038
-65.6151
-58.8449
-47.0175
-45.8526
-46.6425
-47.4337
-51.6223
-54.4024
-54.2126
-51.5097
-53.773
-54.329
-56.0109
-52.298
-46.8658
-53.2083
-42.471
-54.5665
-44.9258
-44.6497
-45.1777
-45.8584
-46.4504
-48.1318
-46.9661
-47.2229
-47.5485
-49.1261
-48.0472
-49.2511
-90.9561
-98.1714
-87.1405
-129.266
-72.4153
-66.5186
-71.1963
-68.0543
-77.3778
-74.3895
-74.1443
-85.316
-84.7486
-51.6141
-46.4946
-69.7416
-58.1408
-57.1511
-56.5756
-59.9125
-56.8664
-53.4669
-55.6286
-54.7169
-64.3525
-65.2135
-62.5513
-68.5554
-71.5422
-75.0614
-75.3672
-71.0943
-57.7477
-56.3564
-63.4491
-58.46
-53.663
-54.3381
-56.0218
-52.1535
-48.0498
-46.3431
-46.345
-47.779
-51.0063
-53.6488
-53.4702
-51.1007
-53.1835
-57.9571
-44.3512
-53.9144
-48.3072
-49.5219
-48.0388
-50.1416
-46.7957
-44.524
-45.2458
-46.3975
-46.5326
-47.5498
-46.5568
-46.5378
-90.0877
-97.5759
-86.7767
-131.076
-83.9506
-51.1421
-45.8573
-68.9001
-71.6075
-65.5321
-70.1136
-67.1596
-76.5175
-73.4734
-73.2204
-84.3408
-56.4766
-55.1696
-54.7478
-58.3781
-70.3838
-74.4056
-74.5368
-70.2232
-55.6392
-52.1247
-54.3701
-53.2204
-63.1578
-64.1504
-61.5628
-67.3445
-123.678
-98.8441
-109.102
-109.006
170.604
194.051
179.272
187.903
-112.989
-93.8887
-102.107
-101.83
140.513
181.684
165.842
158.477
-74.7472
-76.931
-80.8551
-72.1335
-74.8327
-76.5506
-80.7113
-71.4928
-60.391
-58.1434
-59.6498
-58.8318
-51.7036
-50.5932
-51.3627
-51.1048
-53.1072
-50.839
-51.1896
-51.1566
-50.4563
-49.2477
-51.0859
-50.6209
-51.578
-52.0303
-51.9155
-53.3285
-53.2715
-53.6953
-56.8499
-52.4827
12.6444
19.7593
8.71507
16.0353
143.839
184.864
169.579
169.214
-90.8083
-87.5498
-85.1818
-93.3023
5.77893
22.8226
20.5407
8.97667
-51.0099
-55.0364
-53.5288
-52.9295
-44.0525
-45.0549
-43.1727
-45.8578
-54.0585
-53.4716
-54.371
-53.8637
-60.6862
-60.707
-62.1074
-59.3373
-123.445
-98.112
-108.526
-108.325
168.745
194.823
185.728
176.438
-73.4712
-75.7924
-80.1038
-70.7342
-73.7496
-75.8695
-79.7635
-70.6937
-55.5088
-54.2616
-54.4422
-55.5381
-45.7707
-45.8577
-46.7105
-44.3951
-48.8025
-49.2338
-49.1862
-49.9525
-51.4276
-52.6122
-55.9943
-51.3125
-90.2546
-86.8453
-92.4791
-84.436
6.39291
23.283
9.60845
20.6353
-51.0458
-50.6713
-51.2502
-51.2124
-59.0586
-59.6321
-57.8087
-60.8608
-46.9625
-49.189
-48.1489
-47.6278
-46.8823
-47.5726
-47.5331
-47.1062
-63.6754
-71.1441
-65.5893
-68.3247
-55.8546
-54.3533
-53.4959
-56.9454
-60.9265
-65.4436
-62.8078
-62.9146
-50.905
-49.3513
-49.9568
-50.0249
-50.458
-51.0471
-49.6777
-51.9473
-50.1537
-50.7116
-49.5912
-51.0663
-48.385
-47.9304
-48.0913
-48.0074
-52.0916
-54.038
-53.119
-53.0329
-63.0339
-58.784
-58.6304
-61.0953
-90.6897
-102.029
-101.888
-93.2694
-18.61
0.165904
-8.92269
-8.97198
-121.826
-120.465
-120.683
-120.485
-86.965
-93.838
-89.7106
-89.503
-69.6862
-65.6956
-67.7145
-67.4752
-46.4012
-48.4392
-47.5987
-47.0501
-47.1299
-47.8108
-47.7828
-47.1967
-62.8503
-70.3497
-67.4412
-64.7973
-55.1444
-53.6106
-52.7595
-56.1651
-49.6236
-50.2874
-51.0747
-48.9698
-48.545
-48.672
-47.8883
-49.1885
-62.1218
-57.9046
-60.2968
-57.7581
-89.6766
-101.495
-92.5502
-101.125
-126.733
-107.422
-108.957
-96.1229
-63.9463
-58.5282
-67.3364
-62.8308
-79.3082
-74.4261
-79.1103
-73.4876
-122.99
-114.543
-110.072
-103.144
-126.423
-107.234
-108.625
-95.6502
-122.34
-113.976
-109.367
-102.66
-78.6293
-73.5501
-78.3525
-72.6728
-63.2343
-57.7519
-66.3567
-61.9462
-112.34
-99.8968
-101.481
-92.269
-111.584
-98.7588
-100.648
-91.0955
-60.566
-59.9377
-63.3435
-62.0063
-61.1475
-60.1578
-63.8911
-62.4035
2.34025
-8.88079
1.74776
4.35862
-31.269
-29.0995
-9.80394
-11.7599
-30.5529
-28.5741
-9.11162
-11.3668
2.57974
-9.17341
4.08081
1.53332
148.278
148.593
173.235
163.617
134.364
130.787
167.808
158.538
131.545
134.741
157.934
167.117
115.296
139.36
152.64
165.397
-48.4315
-50.0002
-48.8982
-50.7879
-46.3353
-46.9316
-47.1503
-48.2574
-56.6543
-59.8627
-55.294
-58.1143
-65.8809
-67.4171
-61.5595
-63.5011
-47.89
-49.4912
-48.3078
-50.0284
-64.848
-66.5845
-60.7258
-62.6913
-55.5605
-58.8806
-54.2724
-57.07
-46.0076
-46.6178
-46.6285
-47.6261
-48.6786
-49.976
-48.4548
-49.4806
-50.1759
-48.8282
-49.6558
-48.5188
-47.7836
-47.1629
-47.7986
-47.6428
-46.8302
-47.4305
-47.0924
-47.5375
-109.116
-109.973
-110.793
-117.793
-78.1321
-80.4369
-86.1821
-86.4665
-79.6515
-77.1084
-85.8912
-85.4185
-109.923
-108.022
-117.259
-109.925
-47.4749
-47.5626
-48.7207
-48.5707
-59.0927
-57.9422
-58.7704
-56.4069
-57.5733
-56.6437
-57.8663
-56.4763
-55.3867
-54.0429
-53.58
-52.7705
-46.4143
-46.2587
-47.0296
-46.9226
-53.377
-52.2408
-51.4644
-50.7977
-52.4611
-52.1899
-53.3492
-52.4443
-56.2523
-54.6251
-55.3346
-53.1678
-53.9237
-52.1757
-54.2729
-53.2005
-53.0109
-52.3424
-53.6272
-52.928
-53.8276
-50.6185
-51.1991
-49.4936
-54.509
-51.5212
-51.4309
-50.3673
-66.048
-68.1318
-65.1065
-67.2436
-53.2949
-55.6099
-54.5097
-56.6256
-50.7218
-52.8935
-52.7894
-54.6601
-64.9355
-67.2434
-64.1053
-66.5388
-52.229
-52.2722
-51.6288
-51.4501
-50.2842
-49.3008
-49.5919
-48.4609
-41.669
-41.8238
-41.5064
-41.8281
-50.5422
-48.7272
-50.4921
-48.8127
-155.65
13.5278
-161.9
-88.6028
-127.091
-128.048
-63.343
-55.6359
-59.4903
-56.8559
-56.3876
-56.5477
-125.912
24.2107
11.536
51.4445
-126.071
-34.5776
-56.1394
-49.76
-52.7783
-48.4555
-55.3853
-55.0727
-161.317
-84.6878
-155.026
13.8697
-125.19
-126.942
-55.4628
-52.3725
-65.4968
-50.8795
-52.3666
-52.4887
11.8412
51.1351
-125.677
24.0459
-125.575
-34.5807
-48.0737
-43.2302
-50.0697
-43.7204
-50.3273
-50.7844
-52.4247
-56.1363
-47.8087
-49.0583
-52.833
-49.1267
-54.4571
-51.0992
-45.6941
-47.815
-45.2348
-46.2645
-45.6292
-45.8456
-47.0759
-48.3174
-85.7307
-101.024
-79.6146
-74.6998
-77.6092
-90.9593
-117.882
-122.614
-57.6097
-60.6073
-58.2493
-57.1379
-61.1438
-65.9975
-66.9775
-63.9866
-52.1932
-56.3276
-54.3347
-51.2042
-48.084
-49.4673
-51.4487
-49.3317
-54.2192
-49.4743
-47.8382
-49.2479
-45.2269
-47.0311
-45.9104
-47.2355
-83.9815
-99.7248
-116.862
-121.494
-77.0624
-73.7949
-76.6897
-90.005
-56.0733
-59.0715
-65.7132
-62.6883
-57.1353
-55.7094
-59.9757
-64.7065
-151.004
54.4374
-152.455
60.2528
-146.279
-146.065
139.99
137.301
-148.068
-127.755
-148.605
-111.985
-126.799
-126.737
83.604
40.6643
-83.5389
-81.247
-66.731
-64.243
-79.0104
-69.7846
-78.3172
-69.3134
-63.201
-53.0413
-59.124
-51.8685
-61.7656
-60.1488
-51.8101
-51.6756
-56.2753
-53.3392
-55.5522
-52.0554
-54.0485
-54.5359
-50.6251
-49.9887
-52.2546
-50.9148
-64.0017
-58.2499
-56.5231
-51.8418
-53.0636
-51.7455
32.1887
83.9391
32.6307
84.3089
14.995
16.0114
113.924
113.758
-108.576
-59.3864
-94.6138
-96.5754
-90.988
-97.7053
-10.8815
-15.2011
-48.553
-45.104
-46.6859
-42.7917
-49.3055
-48.5177
-42.822
-44.509
-55.4434
-58.6942
-55.8391
-60.8464
-53.4801
-54.5579
-61.8346
-59.724
-150.072
55.7375
-151.258
60.959
-145.67
-145.035
137.229
140.035
-82.7575
-80.1231
-64.5671
-62.8605
-77.8247
-68.4309
-77.0868
-68.1426
-57.7921
-48.0561
-52.2901
-44.7663
-54.5375
-56.4638
-46.7125
-44.8976
-48.6392
-48.2137
-57.2224
-56.4342
-51.5302
-48.5177
-55.1583
-50.0322
-107.676
-59.0718
-93.9446
-95.8952
-96.9138
-90.2621
-14.469
-10.6165
-52.1994
-55.9265
-53.6449
-58.9585
-52.0601
-50.4542
-57.6152
-60.1478
-45.9025
-46.4441
-45.2208
-45.734
-46.1874
-45.8081
-46.6453
-46.2558
-57.2035
-54.5691
-64.9969
-62.2316
-59.7848
-64.003
-55.0117
-58.8075
-56.2924
-53.0324
-56.3234
-53.0993
-58.5204
-58.5018
-51.9392
-52.0026
-48.4531
-48.4094
-52.5115
-51.981
-49.3204
-51.3267
-49.2055
-50.7903
-48.9273
-50.2939
-49.0448
-50.3854
-48.6748
-48.6207
-51.1595
-51.1702
-70.7291
-80.1835
-64.1608
-71.7849
-65.08
-67.5363
-84.5101
-78.4137
-40.6043
-67.1875
-40.3857
-67.065
-30.4339
-29.9965
-96.3598
-96.2291
-78.7966
-73.7063
-78.37
-73.2641
-82.9123
-82.7028
-71.7029
-71.4645
-45.7628
-46.7234
-44.9341
-46.1551
-46.0062
-45.6664
-46.9426
-46.6149
-56.5095
-54.0083
-64.0851
-61.4045
-63.1466
-59.0481
-54.2511
-58.0317
-47.7574
-47.4075
-51.3056
-50.5632
-50.3149
-48.5185
-47.8739
-49.29
-69.937
-79.1586
-63.043
-70.6417
-66.7638
-64.2948
-77.3176
-83.4522
-90.6535
-92.6884
-83.1789
-74.4937
-81.7267
-88.7931
-72.9405
-76.4947
-89.8696
-91.8779
-82.2606
-73.5183
-87.9885
-80.9272
-75.6722
-71.9751
-87.5074
-87.1826
-81.9354
-72.6707
-81.4461
-72.2738
-68.792
-68.9686
32.1642
24.9849
31.0778
16.5814
17.0334
30.7107
10.9072
11.074
189.328
201.023
187.895
190.797
196.044
195.28
200.76
195.939