# vtk DataFile Version 2.0
tet_velo
ASCII
DATASET UNSTRUCTURED_GRID
POINTS 29498 float
-0.723096 0.205 -1.835
-0.732586 0.335 1.945
-0.732177 0.785 -1.765
-0.578645 1.435 1.695
0.723098 0.205 -1.835
0.732662 0.335 1.945
0.732177 0.785 -1.765
0.578645 1.435 1.695
-0.762435 0.212158 -0.575
-0.798118 0.222972 0.685
-0.780251 1.10092 -0.611667
-0.711651 1.30016 0.541667
0.762459 0.212161 -0.575
0.798627 0.222514 0.685
0.780301 1.10097 -0.611667
0.711683 1.30019 0.541667
-1.47328 -0.348853 -2.77469
-1.47877 -0.232931 -1.80941
-1.50226 -0.226236 -0.546649
-1.5075 -0.250943 0.737576
-1.46386 -0.180646 2.00214
-1.45428 -0.0814044 2.97628
-1.46473 0.0278597 3.93402
-1.47532 0.0359461 -2.77803
-1.48173 0.185585 -1.82441
-1.51038 0.238146 -0.582403
-1.50053 0.255458 0.669201
-1.42511 0.346729 1.91325
-1.4315 0.446408 2.88588
-1.45519 0.551286 3.8471
-1.48062 0.737983 -2.75479
-1.49051 0.880419 -1.79675
-1.51522 1.12646 -0.627466
-1.43873 1.29825 0.534264
-1.3231 1.42773 1.70559
-1.37832 1.5195 2.68263
-1.43637 1.60966 3.66106
-1.4847 1.99709 -2.80012
-1.49044 2.17148 -1.85806
-1.49566 2.46454 -0.723359
-1.47255 2.74375 0.388353
-1.43993 2.94403 1.52417
-1.44114 3.05769 2.46856
-1.46271 3.15155 3.43534
-0.729413 -0.337611 -2.78157
-0.726429 -0.214992 -1.81945
-0.748216 -0.23598 -0.545302
-0.773148 -0.276759 0.751061
-0.750009 -0.196716 2.02572
-0.748695 -0.0921331 2.99227
-0.758946 0.0204938 3.94328
-0.731608 0.0349341 -2.78015
-0.744041 0.439764 2.89907
-0.758651 0.546488 3.85408
-0.735528 0.697487 -2.7416
-0.702303 1.52224 2.68051
-0.750099 1.61073 3.6606
-0.738623 1.96527 -2.78708
-0.742719 2.13938 -1.84369
-0.756481 2.45117 -0.714698
-0.755592 2.74871 0.387314
-0.742801 2.95417 1.51675
-0.747815 3.06613 2.46115
-0.766161 3.15744 3.42995
0.745593 -0.337618 -2.78157
0.74704 -0.214997 -1.81945
0.771842 -0.236032 -0.545302
0.781803 -0.277065 0.751061
0.73229 -0.196834 2.02572
0.68598 -0.0922228 2.99227
0.662355 0.0203987 3.94328
0.737052 0.0349317 -2.78015
0.656792 0.439705 2.89907
0.64281 0.546404 3.85408
0.738848 0.697488 -2.7416
0.603252 1.5222 2.68051
0.61674 1.61066 3.6606
0.750743 1.96527 -2.78708
0.750885 2.13938 -1.84369
0.730248 2.45117 -0.714698
0.683197 2.74869 0.387314
0.64064 2.95413 1.51675
0.626847 3.06608 2.46115
0.621307 3.15737 3.42995
1.48972 -0.348872 -2.77469
1.49398 -0.23295 -1.80941
1.52206 -0.226351 -0.546649
1.52722 -0.251364 0.737576
1.46688 -0.180939 2.00214
1.41311 -0.0816169 2.97628
1.38394 0.0276599 3.93402
1.48107 0.0359386 -2.77803
1.48189 0.185588 -1.82441
1.51527 0.238095 -0.582403
1.51699 0.255022 0.669201
1.43814 0.346477 1.91325
1.38004 0.446231 2.88588
1.35983 0.551105 3.8471
1.4829 0.737984 -2.75479
1.48843 0.880437 -1.79675
1.51462 1.12649 -0.627466
1.44683 1.29813 0.534264
1.3276 1.42757 1.70559
1.31268 1.51936 2.68263
1.32284 1.6095 3.66106
1.49369 1.99708 -2.80012
1.4936 2.17148 -1.85806
1.47171 2.46452 -0.72336
1.41337 2.74369 0.388353
1.35346 2.94393 1.52417
1.33182 3.05757 2.46856
1.32659 3.15141 3.43534
-0.779336 0.495 -1.8517
9.83477e-07 0.201375 -1.83862
-0.744648 0.206697 -1.205
-0.735255 0.885 1.89964
3.7998e-05 0.301625 1.97838
-0.790468 0.25387 1.315
0 0.842776 -1.82278
-0.789032 0.975777 -1.18833
0 1.48373 1.74373
-0.663408 1.38584 1.11833
0.779469 0.495 -1.85183
0.744656 0.206703 -1.205
0.735284 0.885 1.89963
0.790517 0.253885 1.315
0.789011 0.975756 -1.18833
0.663439 1.38587 1.11833
-0.782331 0.21551 0.055
-0.890159 0.656538 -0.593333
1.18373e-05 0.210527 -0.575
-0.882461 0.761567 0.613333
0.000254657 0.21852 0.685
-0.751534 1.20612 -0.035
2.51037e-05 1.3904 -0.611667
1.59104e-05 1.60191 0.541667
0.782167 0.215713 0.055
0.890158 0.656564 -0.593333
0.882477 0.761354 0.613333
0.751534 1.20612 -0.035
-0.889027 0.575769 -1.19667
-0.887823 0.709052 0.01
-0.86033 0.823283 1.21667
6.41038e-06 0.204117 -1.205
0.000133247 0.212358 0.055
0.000146327 0.239478 1.315
4.91738e-07 0.495 -2.07059
1.8999e-05 0.885 2.00062
1.25519e-05 1.08011 -1.18833
2.05071e-05 1.58044 -0.035
7.95522e-06 1.58618 1.11833
0.88902 0.575782 -1.19667
0.88782 0.708959 0.01
0.860366 0.823177 1.21667
-1.10241 0.195292 -1.8297
-0.724763 -0.00499586 -1.82722
-0.727352 0.119967 -2.30758
-1.07885 0.340864 1.92912
-0.741298 0.0691421 1.98536
-0.738314 0.387382 2.42203
-1.11134 0.832709 -1.78088
-0.733853 0.741244 -2.2533
-0.737448 1.46219 -1.80435
-0.950871 1.43136 1.7003
-0.640474 1.47862 2.18776
-0.660723 2.19459 1.60587
0.735069 -0.00499866 -1.82722
0.730075 0.119966 -2.30758
1.1025 0.195294 -1.8297
0.732476 0.0690832 1.98536
0.694727 0.387352 2.42203
1.0854 0.340739 1.92912
0.735513 0.741244 -2.2533
0.741531 1.46219 -1.80435
1.1103 0.832719 -1.78088
0.590949 1.4786 2.18776
0.609643 2.19457 1.60587
0.953124 1.43129 1.7003
-1.13641 0.225152 -0.578702
-0.755326 -0.0119109 -0.560151
-1.14932 0.239215 0.677101
-0.785633 -0.0268933 0.71803
-1.14773 1.11369 -0.619566
-0.768366 1.77604 -0.663182
-1.07519 1.29921 0.537965
-0.733621 2.02444 0.46449
0.76715 -0.0119355 -0.560151
1.13887 0.225128 -0.578702
0.790215 -0.0272758 0.71803
1.15781 0.238768 0.677101
0.755275 1.77607 -0.663182
1.14746 1.11373 -0.619566
0.69744 2.02444 0.46449
1.07926 1.29916 0.537965
-1.47603 -0.290892 -2.29205
-1.4743 -0.156453 -2.77636
-1.10135 -0.343232 -2.77813
-1.49052 -0.229583 -1.17803
-1.48025 -0.023673 -1.81691
-1.1026 -0.223961 -1.81443
-1.50488 -0.238589 0.0954635
-1.50632 0.00595531 -0.564526
-1.12524 -0.231108 -0.545976
-1.48568 -0.215794 1.36986
-1.50402 0.00225735 0.703389
-1.14033 -0.263851 0.744318
-1.45907 -0.131025 2.48921
-1.44448 0.0830414 1.95769
-1.10693 -0.188681 2.01393
-1.4595 -0.0267724 3.45515
-1.44289 0.182502 2.93108
-1.10149 -0.0867687 2.98427
-1.45996 0.289573 3.89056
-1.11184 0.0241767 3.93865
-1.47853 0.110765 -2.30122
-1.47797 0.386964 -2.76641
-1.10346 0.0354401 -2.77909
-1.49605 0.211866 -1.2034
-1.48612 0.533002 -1.81058
-1.50545 0.246802 0.0433989
-1.5128 0.682304 -0.604934
-1.46282 0.301093 1.29122
-1.46963 0.776855 0.601732
-1.4283 0.396568 2.39956
-1.3741 0.887228 1.80942
-1.44334 0.498847 3.36649
-1.40491 0.982953 2.78426
-1.08777 0.443086 2.89247
-1.44578 1.08047 3.75408
-1.10692 0.548887 3.85059
-1.48556 0.809201 -2.27577
-1.48266 1.36754 -2.77746
-1.10807 0.717735 -2.74819
-1.50286 1.00344 -1.21211
-1.49048 1.52595 -1.82741
-1.47697 1.21236 -0.0466011
-1.50544 1.7955 -0.675413
-1.38091 1.36299 1.11993
-1.45564 2.021 0.461308
-1.35071 1.47361 2.19411
-1.38151 2.18588 1.61488
-1.40735 1.56458 3.17185
-1.40973 2.28859 2.5756
-1.04031 1.52087 2.68157
-1.44954 2.3806 3.5482
-1.09323 1.61019 3.66083
-1.48757 2.08429 -2.32909
-1.11166 1.98118 -2.7936
-1.49305 2.31801 -1.29071
-1.11658 2.15543 -1.85088
-1.4841 2.60414 -0.167503
-1.12607 2.45785 -0.719029
-1.45624 2.84389 0.956262
-1.11407 2.74623 0.387833
-1.44053 3.00086 1.99637
-1.09136 2.9491 1.52046
-1.45192 3.10462 2.95195
-1.09448 3.06191 2.46486
-1.11443 3.15449 3.43264
-0.727921 -0.276302 -2.30051
-0.73051 -0.151339 -2.78086
0.00809042 -0.337615 -2.78157
-0.737323 -0.225486 -1.18237
0.0103052 -0.214995 -1.81945
-0.760682 -0.256369 0.102879
0.0118128 -0.236006 -0.545302
-0.761579 -0.236737 1.38839
0.00432717 -0.276912 0.751061
-0.749352 -0.144424 2.50899
-0.00885947 -0.196775 2.02572
-0.753821 -0.0358196 3.46777
-0.746368 0.173816 2.94567
-0.0313575 -0.092178 2.99227
-0.758799 0.283491 3.89868
-0.0482956 0.0204463 3.94328
-0.733568 0.366211 -2.76088
0.00272221 0.0349329 -2.78015
-0.751346 0.493126 3.37657
-0.723172 0.981004 2.78979
-0.0436245 0.439734 2.89907
-0.754375 1.07861 3.75734
-0.0579207 0.546446 3.85408
-0.737076 1.33138 -2.76434
0.00165994 0.697488 -2.7416
-0.726201 1.56649 3.17056
-0.725059 2.29419 2.57083
-0.0495255 1.52222 2.68051
-0.75813 2.38408 3.54528
-0.0666792 1.61069 3.6606
-0.740671 2.05233 -2.31539
0.00606005 1.96527 -2.78708
-0.7496 2.29528 -1.2792
0.00408281 2.13938 -1.84369
-0.756036 2.59994 -0.163692
-0.0131162 2.45117 -0.714698
-0.749196 2.85144 0.952031
-0.0361976 2.7487 0.387314
-0.745308 3.01015 1.98895
-0.0510801 2.95415 1.51675
-0.756988 3.11178 2.94555
-0.0604841 3.0661 2.46115
-0.0724268 3.1574 3.42995
0.746316 -0.276308 -2.30051
0.741323 -0.151343 -2.78086
1.11765 -0.343245 -2.77813
0.759441 -0.225515 -1.18237
1.12051 -0.223974 -1.81443
0.776822 -0.256549 0.102879
1.14695 -0.231191 -0.545976
0.757046 -0.236949 1.38839
1.15451 -0.264215 0.744318
0.709135 -0.144528 2.50899
1.09959 -0.188886 2.01393
0.674168 -0.0359121 3.46777
0.671386 0.173741 2.94567
1.04955 -0.0869199 2.98427
0.652582 0.283401 3.89868
1.02315 0.0240293 3.93865
0.73795 0.36621 -2.76088
1.10906 0.0354351 -2.77909
0.649801 0.493054 3.37657
0.630022 0.980953 2.78979
1.01841 0.442968 2.89247
0.629775 1.07853 3.75734
1.00132 0.548754 3.85059
0.744796 1.33138 -2.76434
1.11088 0.717736 -2.74819
0.609996 1.56643 3.17056
0.61505 2.29414 2.57083
0.957968 1.52078 2.68157
0.619024 2.38401 3.54528
0.969788 1.61008 3.66083
0.750814 2.05233 -2.31539
1.12222 1.98117 -2.7936
0.740567 2.29528 -1.2792
1.12224 2.15543 -1.85088
0.706723 2.59993 -0.163692
1.10098 2.45784 -0.719029
0.661919 2.85141 0.952031
1.04828 2.74619 0.387833
0.633744 3.0101 1.98895
0.997049 2.94903 1.52046
0.624077 3.11172 2.94555
0.979333 3.06182 2.46486
0.97395 3.15439 3.43264
1.49185 -0.290911 -2.29205
1.48539 -0.156467 -2.77636
1.50802 -0.22965 -1.17803
1.48794 -0.0236809 -1.81691
1.52464 -0.238858 0.0954635
1.51866 0.00587227 -0.564526
1.49705 -0.216152 1.36986
1.5221 0.00182869 0.703388
1.44 -0.131278 2.48921
1.45251 0.0827693 1.95769
1.39853 -0.0269785 3.45515
1.39657 0.182307 2.93108
1.37189 0.289382 3.89056
1.48148 0.110763 -2.30122
1.48199 0.386961 -2.76641
1.49858 0.211842 -1.2034
1.48516 0.533013 -1.81058
1.51613 0.246559 0.0433988
1.51495 0.682294 -0.604935
1.47756 0.30075 1.29122
1.48191 0.776576 0.601732
1.40909 0.396354 2.39956
1.38287 0.887025 1.80942
1.36993 0.498668 3.36649
1.34636 0.982798 2.78426
1.34133 1.0803 3.75408
1.48567 0.809211 -2.27577
1.4883 1.36753 -2.77746
1.50153 1.00346 -1.21211
1.49102 1.52596 -1.82741
1.48073 1.21231 -0.0466011
1.49316 1.79551 -0.675413
[...]
POINT_DATA 29498
VECTORS point_vectors float
-0.851258 -3.97619 7.46164
0.0895502 0.189332 0.63702
-1.53385 0.616839 2.00201
0.0474691 -0.114514 0.480407
0.849368 -3.97085 7.45929
-0.0936627 0.180406 0.622571
1.53847 0.619996 2.00828
-0.045563 -0.10634 0.45788
0.00601725 0.0029548 0.359965
0.0030954 0.00530776 0.24511
0 0 0
0.00231545 0.00466014 0.0139249
-0.00626082 0.0028069 0.35972
-0.00316798 0.00534545 0.242574
0 0 0
-0.00238234 0.0048009 0.0143554
-0.652534 -0.497158 20.0072
-1.12555 -0.950433 20.7989
-0.282713 -0.442235 21.5848
0.21055 -0.0677325 21.7206
0.73886 0.200349 21.6653
1.07097 0.338994 21.5195
1.28702 0.223584 20.582
-0.946318 -0.472929 19.7781
-1.87769 -0.977378 20.6792
-0.544895 -0.72001 21.7387
0.175957 -0.393431 21.8507
1.00925 -0.200903 21.8447
1.45654 -0.151283 21.4655
1.47378 -0.170235 21.2899
-1.13953 -0.0225974 19.5537
-2.3849 0.0404576 20.3846
-1.65476 -0.368457 21.6732
-0.654604 -0.524301 22.0252
0.0160657 -0.752473 21.872
0.34865 -0.876355 21.6114
0.688269 -0.762445 21.4222
-0.584944 0.39278 19.9311
-0.867883 0.636092 20.3207
-0.831269 0.548315 21.0497
-0.467033 0.161228 21.4838
-0.193144 -0.0994627 21.4136
-0.141239 -0.18577 21.3764
0.019855 -0.168924 21.1218
-0.645802 -1.01857 19.5006
-1.25557 -2.83432 21.2886
-0.154272 -0.389194 22.0229
0.159712 0.133289 21.9639
0.615426 1.06981 21.6124
1.10098 1.60812 20.8616
1.05331 1.50144 20.2132
-0.980303 -1.0718 18.797
1.84314 0.928797 9.84483
2.47549 1.30568 13.7963
-1.36383 0.0621078 17.9967
-0.18184 -0.883958 11.2175
0.436351 -1.4792 15.2984
-0.492911 0.729105 19.5349
-0.870064 1.42686 19.9532
-0.855359 1.33731 21.0587
-0.396377 0.465366 21.6526
-0.162648 0.00486257 21.5682
-0.104887 -0.179827 21.4906
0.0312294 -0.267759 21.324
0.641934 -1.00841 19.5115
1.28661 -2.7767 21.2727
0.14752 -0.39037 22.006
-0.171381 0.129782 21.9576
-0.59396 1.05363 21.594
-1.03003 1.65724 20.817
-0.886555 1.77521 19.9351
0.984194 -1.05805 18.8125
-1.57489 0.82615 7.74113
-2.6231 1.76933 11.5709
1.3634 0.0617205 18.0078
0.650796 -0.896633 7.53376
-0.282277 -1.4188 12.0629
0.497493 0.722359 19.5396
0.87526 1.41933 19.9576
0.841199 1.36694 21.0578
0.362873 0.512926 21.6968
0.133064 0.00538625 21.4933
0.0674805 -0.161445 21.3251
-0.0433335 -0.26673 21.1988
0.653799 -0.49587 20.0072
1.12262 -0.934565 20.785
0.296358 -0.439714 21.5596
-0.20295 -0.0707249 21.7045
-0.733143 0.187526 21.6588
-1.11222 0.373788 21.4771
-1.43257 0.289111 20.6152
0.937634 -0.471969 19.7867
1.87717 -0.97939 20.6788
0.545292 -0.715322 21.7324
-0.169739 -0.392408 21.8269
-0.98758 -0.216501 21.8366
-1.55464 -0.153637 21.4368
-1.66958 -0.173141 21.207
1.13758 -0.0238151 19.555
2.38995 0.042481 20.3814
1.65668 -0.368265 21.6703
0.650867 -0.519478 22.0104
-0.0037029 -0.738809 21.8572
-0.321075 -0.935825 21.7389
-0.701665 -0.95874 21.1346
0.583244 0.387382 19.9362
0.866087 0.633934 20.3207
0.839288 0.572461 21.0509
0.48079 0.178026 21.4952
0.213061 -0.0875513 21.4732
0.144419 -0.186818 21.4993
-0.0167519 -0.177536 21.2561
-0.907234 -0.130422 0.977576
0.000363014 -0.0561546 0.453929
-0.0148575 0.00689074 0.315021
0.00927017 -0.0677033 0.0496983
-0.00150676 0.0319504 0.181121
0.0425271 0.0280791 1.08369
0.00259304 0.195779 0.319972
-0.383881 -0.131016 0.588851
-0.00227604 0.01857 -0.0148169
0.0131487 0.0187045 0.107069
0.904047 -0.131569 0.973378
0.0148054 0.00685324 0.314968
-0.00880492 -0.0723128 0.0496057
-0.0407827 0.0302936 1.13086
0.386324 -0.132511 0.588983
-0.0131649 0.0189085 0.106231
0.0176447 0.0154764 1.00303
0.000117971 0.00308486 0.0276261
-1.69371e-06 4.17362e-07 6.62899e-05
0.000204338 0.00155156 0.00953975
-1.08573e-05 9.02851e-05 0.0162125
0.00248621 0.00735498 0.0150455
-2.07279e-05 0.0327482 0.0694746
-2.20342e-05 0.000142197 0.0109149
-0.0181812 0.0156966 0.986459
-0.00011902 0.00309618 0.0276728
-0.000217473 0.00164877 0.0101568
-0.00246234 0.00727623 0.0148971
0 0 0
0.000153407 0.0027001 0.0144537
0 0 0
-5.84487e-08 -1.79397e-08 5.98582e-06
-1.43379e-05 0.00104751 0.0314419
-5.8704e-05 0.00051116 0.0123161
-1.63231e-07 2.04545e-05 6.92298e-05
-0.00280675 -0.0892887 0.0164638
0 0 0
-1.5056e-05 0.00581308 0.0451337
-1.64288e-05 -0.000130443 0.00301825
0 0 0
-0.000151216 0.00266343 0.0142693
0 0 0
-3.47867 -2.41226 20.7944
-2.01411 -4.65253 21.8349
-2.44166 -2.88977 17.8801
1.54562 0.422495 18.5652
0.818656 1.4251 17.0358
1.16315 0.54812 6.19936
-4.6831 0.565926 20.1281
-3.86519 1.24209 15.9053
-2.31614 2.6612 19.2011
0.199417 -0.503809 17.7397
-0.570904 -0.416287 6.03942
-0.357846 -0.0722688 21.8724
2.05569 -4.5787 21.8003
2.44883 -2.87464 17.8943
3.47834 -2.41021 20.7942
-0.790876 1.39354 16.914
-1.05761 0.281015 4.93768
-1.53187 0.380979 18.7166
3.86566 1.2395 15.9211
2.32087 2.64491 19.2089
4.69296 0.5733 20.1228
0.765294 -0.307995 4.4749
0.341711 -0.0368271 21.8716
-0.170965 -0.498198 17.7819
-0.0781577 -0.969858 21.3327
0.0134851 -0.0629371 19.8553
0.43456 -0.24867 20.4693
0.290101 0.27394 19.3559
-2.86129 -0.934239 22.2825
-2.76893 2.59953 21.3069
-0.857548 -0.698272 21.2038
-1.02507 0.748024 22.3043
-0.0222665 -0.069776 19.9143
0.0841617 -0.972504 21.36
-0.297967 0.275187 19.3998
-0.432995 -0.271027 20.5955
2.76716 2.70405 21.2846
2.86282 -0.931703 22.2774
1.00308 0.805309 22.3326
0.872203 -0.714964 21.3292
-0.95752 -0.774045 20.2567
-0.787175 -0.504767 19.8942
-0.706473 -0.759393 19.7821
-0.702986 -0.728865 21.4216
-1.48226 -1.01544 20.7561
-1.39113 -1.71876 20.9533
-0.00662724 -0.248164 21.6789
-0.429699 -0.616869 21.6286
-0.167037 -0.492123 21.8118
0.455079 0.0474088 21.7657
0.18868 -0.251519 21.7288
0.241846 -0.0028727 21.8489
0.932385 0.282592 21.5465
0.894033 0.0698338 21.7509
0.855847 0.576958 21.8533
1.07705 0.316657 21.2443
1.32067 0.137838 21.4784
1.36888 0.88214 21.5889
1.48987 0.0422867 20.8469
1.40088 0.631673 21.2801
-1.49223 -0.723308 19.9676
-1.07137 -0.303689 19.6197
-1.04448 -0.740779 19.3902
-1.21816 -0.911205 21.5727
-2.34594 -0.536297 20.5572
-0.138715 -0.542522 21.7898
-1.10467 -0.78867 21.805
0.52412 -0.294644 21.9415
-0.151106 -0.638457 22.0034
1.25425 -0.181219 21.692
0.700373 -0.795664 21.8698
1.47687 -0.242505 21.4973
1.09977 -0.852758 21.5774
2.11641 0.270986 19.343
1.17696 -0.773004 21.2403
2.26096 0.098864 19.9094
-1.87198 0.0427079 19.6914
-0.852436 0.331116 19.6964
-1.376 0.00159284 18.9489
-2.15339 -0.200265 21.2454
-1.56607 0.674197 20.2078
-1.15069 -0.518243 21.965
-1.49855 0.459162 21.2863
-0.246651 -0.596673 21.9983
-0.732453 0.0593075 21.7487
0.185863 -0.80144 21.7558
-0.223795 -0.256231 21.6735
0.524228 -0.84423 21.3849
0.0209099 -0.410272 21.4786
0.177688 -1.11512 21.1479
0.130827 -0.479509 21.2972
0.761679 -1.35541 20.6213
-0.746956 0.525722 20.091
-0.590153 0.555469 19.7613
-0.894032 0.656939 20.6863
-0.950956 0.995379 20.1483
-0.664431 0.380156 21.267
-0.901958 0.891361 21.0606
-0.324364 0.0183561 21.4155
-0.482465 0.298912 21.5933
-0.170231 -0.148933 21.3951
-0.242713 -0.0255478 21.6985
-0.0271292 -0.22006 21.3542
-0.167781 -0.202318 21.7675
-0.0135012 -0.2446 21.4191
-1.12096 -2.0161 19.7228
-0.811394 -1.10173 19.1665
0.00898783 -1.38138 19.1971
-0.506277 -1.15098 22.1583
0.0142053 -3.5387 21.8141
0.018897 -0.102337 21.9473
0.000642879 -0.493866 22.1778
0.362527 0.517942 21.9462
-0.00213614 0.0937129 22.0178
0.8508 1.34519 21.0711
-0.0118439 1.01995 20.9822
1.43995 1.73899 20.0471
1.63147 1.87565 16.5599
0.0086221 1.79586 19.8438
1.95948 1.52358 15.152
0.126944 2.732 17.8839
-1.27373 -0.658416 18.1981
0.00706252 -1.49531 18.1124
2.60186 1.08373 13.0922
0.514756 -1.33333 5.09591
0.0755526 0.607506 2.54013
1.7114 -0.514199 10.1859
0.540847 2.06889 4.0838
-0.878866 0.833439 18.8546
0.00478601 0.220897 16.7955
0.270361 -1.38354 14.3726
-0.192791 -0.385835 21.657
-0.261749 0.701866 -3.28472
-0.0963862 -0.55004 21.0402
-0.204791 -1.04148 1.63701
-0.680875 1.10485 19.6686
0.00572676 0.935355 19.3561
-0.927495 1.51352 20.4804
0.00433709 1.87509 19.7236
-0.644252 0.935393 21.5035
-0.0219044 1.93989 21.0168
-0.265389 0.181556 21.5799
-0.0320982 0.67966 21.8126
-0.165474 -0.0937035 21.6296
-0.0301763 0.145229 21.7554
-0.0778491 -0.178316 21.5842
-0.00706909 -0.185707 21.9087
0.00532017 -0.203914 21.4964
1.13757 -1.96359 19.7458
0.806023 -1.08284 19.1822
0.7072 -0.740569 19.7944
0.512878 -1.14164 22.1339
1.38692 -1.67764 20.9362
-0.0255939 -0.106041 21.9373
0.171249 -0.498165 21.7957
-0.357814 0.512047 21.9301
-0.2431 -0.0113671 21.838
-0.78895 1.37126 21.022
-0.85422 0.572511 21.8579
-1.38825 1.91613 19.726
-1.46289 1.92442 15.4903
-1.35349 0.941688 21.5577
-1.84473 1.83608 14.4903
-1.38123 0.795017 21.4003
1.27695 -0.652561 18.213
1.04421 -0.739173 19.3964
-2.50538 1.39628 10.5182
-0.0680815 -0.81972 2.0131
-2.1781 0.488191 17.8408
-1.5436 -0.562771 5.31778
-2.47739 0.347375 18.4281
0.883153 0.826721 18.8641
1.3735 0.000872048 18.9535
0.0191264 -1.17218 9.59724
0.186209 -0.319559 21.7359
-0.186049 -0.952836 19.3894
0.125051 -0.474942 21.5233
-0.588651 -1.48758 20.0248
0.686547 1.09736 19.6731
0.590815 0.550911 19.7653
0.91768 1.52553 20.4773
0.950857 0.990259 20.1502
0.610962 0.984368 21.5055
0.899621 0.926601 21.0566
0.240772 0.199995 21.5657
0.462266 0.335257 21.6088
0.147277 -0.0890559 21.5347
0.220703 0.00859832 21.7373
0.11855 -0.170913 21.4982
0.155263 -0.193807 21.7963
-0.000723726 -0.249691 21.451
0.956058 -0.7605 20.2574
0.786269 -0.503318 19.898
0.704626 -0.712442 21.4022
1.46697 -0.999272 20.7532
0.0131073 -0.246233 21.6714
0.440496 -0.614635 21.608
-0.451118 0.034119 21.7594
-0.176715 -0.257522 21.7009
-0.927301 0.29555 21.5506
-0.876859 0.0522397 21.7449
-1.15227 0.348982 21.1969
-1.37907 0.153416 21.486
-1.76483 0.141448 20.7818
1.48739 -0.72189 19.9734
1.07176 -0.303631 19.6221
1.21746 -0.908518 21.5677
2.3519 -0.539924 20.555
0.144233 -0.540707 21.775
1.10383 -0.785622 21.7973
-0.510409 -0.300611 21.928
0.152348 -0.624837 21.9836
-1.27515 -0.192291 21.6959
-0.671287 -0.792648 21.8648
-1.53701 -0.19602 21.577
-1.11808 -0.924783 21.6141
-1.31863 -0.798312 21.3938
1.87088 0.0418262 19.6892
0.849478 0.329273 19.7011
2.15587 -0.199859 21.2425
1.56384 0.67314 20.208
1.14698 -0.515146 21.9569
1.51397 0.476852 21.2904
0.24954 -0.590443 21.9819
0.745299 0.0725564 21.7649
-0.14845 -0.825857 21.7713
0.234394 -0.249431 21.6806
-0.506645 -0.916695 21.3631
0.00618355 -0.399666 21.5128
-0.088112 -0.569727 21.4657
0.744399 0.520973 20.0941
0.896303 0.666173 20.6837
0.664183 0.403736 21.286
0.345531 0.0229207 21.4328
0.176599 -0.138905 21.5079
0.0253227 -0.20223 21.4971
-1.20684 -0.790446 20.1475
-1.68201 -2.58408 19.032
-1.15378 -1.33492 20.0209
-2.08994 -1.45234 19.3477
-0.891365 -0.782587 19.5611
-2.14602 -2.19171 20.9783
-0.959165 -0.852116 21.47
-0.407531 -0.938573 21.7971
-0.647234 -1.03626 21.7792
-1.13105 -1.66332 22.4317
-0.0811549 -0.656236 21.9448
-0.0882318 -0.419381 21.7146
0.167414 0.122912 19.2727
0.0679733 -0.230239 21.8287
0.227914 -0.543844 20.6714
0.40642 -0.11599 21.7834
0.493233 -0.0963153 21.8629
0.515441 0.613934 18.1776
0.524086 0.241461 21.9249
0.713315 0.058669 19.507
1.31314 0.623932 21.2578
1.15909 0.117036 21.6257
1.13179 1.67779 16.498
1.1125 0.767255 21.561
1.8776 0.343772 18.8228
1.89192 0.775544 20.4571
1.34214 0.111273 21.3115
2.12397 2.09846 16.2537
1.57219 0.984166 21.2709
2.32977 0.271126 19.5923
1.987 0.374502 20.3417
-1.77463 -0.449388 19.8126
-3.82426 -1.39579 15.9089
-2.84212 0.335781 18.651
-1.31357 -0.444224 19.0498
-5.03816 -1.07512 20.4129
-1.80085 -0.737815 21.5201
-3.81883 -0.510205 21.7307
-0.947816 -1.55076 21.1864
-0.555906 -0.723454 21.9479
-1.83383 -0.979652 22.3568
0.13709 -0.32263 18.7816
0.236955 -0.651755 21.9989
-0.182629 -0.479961 19.6491
1.09403 -0.0485494 15.179
0.886803 -0.826948 21.6637
-0.379002 -1.77579 2.28711
0.0598287 -0.809485 19.3182
1.41516 -0.847476 18.719
1.18266 -0.787535 21.5929
1.92418 -0.862794 8.91435
0.554565 -1.20549 21.212
1.89284 -1.20193 19.6987
-1.26424 0.537233 19.8095
-1.56658 1.725 18.687
-0.790098 0.801865 19.8888
-0.957922 0.547511 19.3293
-2.09885 1.39472 19.8423
-1.66436 0.620495 20.7993
-2.6461 2.73756 20.1472
-0.986874 1.04596 20.6113
-2.14477 1.09036 21.3952
-1.15373 0.262909 21.6342
-1.94902 1.69727 22.331
-0.671412 0.635326 21.4157
-0.924747 0.280296 22.0078
-0.421009 -0.123564 21.7424
-0.552195 0.18947 22.063
-0.341314 0.0897823 21.6481
-0.313056 -0.222261 21.7734
-0.082173 -0.349898 21.5934
-0.288616 -0.212382 21.7452
-0.206361 -0.125493 21.8044
-0.0838162 -0.437984 21.4611
0.123936 -0.493608 21.2188
-0.130828 -0.498784 21.3468
-0.0302681 -0.186001 21.7589
0.045972 -0.627476 21.3891
1.69008 -2.5545 19.044
0.0135711 -2.98877 19.4155
0.00491165 -5.10151 16.1061
0.00433316 -1.50742 18.7086
0.00260701 -5.1227 23.217
0.405236 -0.962035 21.9357
0.00543154 -1.32067 22.4802
0.00116125 -0.142282 16.5722
-0.174623 0.12159 19.3294
-0.0042898 -0.17418 22.0617
-0.00376655 0.133756 16.0041
-0.513314 0.609607 18.1261
-0.00643148 0.494173 21.7187
-0.032269 0.95818 13.2416
-1.01106 1.63969 15.7983
-0.00221003 1.34178 20.1102
-0.0206163 -0.227944 1.8698
-0.0035726 1.38102 11.2003
-2.04828 2.2812 15.8146
0.0347577 2.21196 19.1106
0.126385 1.62337 2.26043
0.154128 2.13676 11.2372
3.81838 -1.39035 15.9346
0.00429972 3.14636 12.2617
0.0067589 -0.917867 17.0951
0.595562 -1.87608 1.10812
-0.228533 0.47019 -2.41386
0.0321052 1.55088 -2.60178
-1.18979 -0.300329 4.31138
-0.0461381 0.532133 -2.11999
0.0673268 3.15764 -3.46334
1.57013 1.71225 18.6955
0.00363093 1.44695 19.4395
0.00487981 1.17083 18.3266
0.00755922 4.08359 18.4372
2.64157 2.75758 20.136
-0.00883446 2.11235 20.3271
-0.0274465 4.74011 20.8867
1.94327 1.79345 22.3531
-0.0235572 1.33404 21.604
-0.0324882 1.40393 22.5503
0.537189 0.235288 22.0901
-0.032959 0.312286 21.8318
-0.0321087 0.185372 21.9098
0.268341 -0.159254 21.7366
-0.0281505 -0.102011 22.0299
-0.0452129 -0.0652961 21.9533
0.12389 -0.441916 21.5001
-0.00299748 -0.173661 21.7905
-0.0303064 -0.571635 21.0799
1.20099 -0.779808 20.1532
1.14875 -1.29776 20.0343
2.08734 -1.44726 19.3553
0.893088 -0.772728 19.5698
2.12812 -2.14788 20.964
0.96134 -0.842771 21.4516
0.649921 -1.02212 21.7562
1.1341 -1.6587 22.4281
0.0994207 -0.660664 21.9459
0.0998989 -0.421351 21.709
-0.0682888 -0.236255 21.8223
-0.222081 -0.555871 20.7503
-0.401111 -0.1293 21.801
-0.477331 -0.112898 21.8378
-0.521307 0.232457 21.9158
-0.717133 0.0254464 19.6899
-1.30094 0.608411 21.2496
-1.17815 0.118238 21.6334
-1.11098 0.79455 21.5717
-1.86459 0.439032 18.0227
-1.90419 0.957653 20.1233
-1.41638 0.113964 21.3782
-1.64134 1.13618 21.3672
-2.57271 0.493708 18.5934
-1.94638 0.504938 19.99
1.77299 -0.448825 19.8119
2.83854 0.33482 18.6533
1.31629 -0.443112 19.0571
5.04806 -1.07416 20.4149
1.7991 -0.73774 21.5151
3.8216 -0.510039 21.7284
0.951622 -1.55428 21.2193
0.556562 -0.713616 21.9324
1.81884 -0.962901 22.2718
-0.127164 -0.377543 19.0299
-0.224797 -0.646806 21.9914
0.200321 -0.491725 19.7313
-1.06662 -0.0721178 15.3223
-0.882988 -0.865574 21.6547
-0.0528396 -0.68306 18.2658
-1.29818 -0.823384 16.1545
-1.18688 -0.784415 21.737
-0.534033 -1.28496 20.6759
-1.99264 -1.35452 17.3627
1.25976 0.534286 19.8129
0.790516 0.795699 19.8918
0.955515 0.54372 19.3381
2.09404 1.38924 19.8449
1.67143 0.630795 20.7955
0.986413 1.05872 20.6074
2.16488 1.1249 21.3925
1.17369 0.286375 21.6438
0.673705 0.683574 21.4281
0.936646 0.309749 22.0241
0.43109 -0.114712 21.7564
0.32027 0.123207 21.6734
0.31982 -0.202331 21.77
0.121789 -0.336493 21.61
0.184754 -0.0963135 21.8201
0.114477 -0.423627 21.4778
-0.0960663 -0.478262 21.1138
0.0322497 -0.185653 21.7873
0.010834 -0.612906 21.2889
-1.60083 -1.46948 19.7256
-0.806805 -1.27677 22.0611
0.195868 -0.343483 21.8262
0.741013 0.171111 21.5576
1.60574 0.749926 20.8673
1.88959 0.777427 20.2093
-2.88 -0.727081 18.7127
-2.31675 -1.60892 22.1551
-0.257636 -0.976531 19.9229
0.478747 0.224939 16.8903
1.14603 -0.581105 16.8539
1.61496 -0.892194 19.3387
-1.54983 1.00338 19.3912
-2.32372 1.36765 20.6223
-1.56192 0.709828 21.9349
-0.525536 -0.0322521 21.9213
-0.197178 -0.34016 21.6523
0.0616942 -0.564133 21.353
0.00934378 -4.04712 18.3576
0.0037762 -0.903683 19.7484
-0.00157385 0.0163521 15.871
-0.0133192 0.427463 14.5025
-0.0214731 1.06455 11.6813
0.0110653 2.27097 11.1109
0.006478 -2.12345 11.8463
-0.0341537 -0.567584 -0.915282
0.288863 2.45005 -3.90693
0.00832483 2.64348 17.8464
-0.0112257 4.5813 19.3563
-0.0467909 3.16755 22.5625
-0.0274269 0.569279 22.2817
-0.0510031 0.0558708 21.753
-0.0423899 -0.298875 21.6588
1.59128 -1.45106 19.74
0.820677 -1.26589 22.03
-0.185682 -0.358494 21.8499
-0.735373 0.153903 21.5689
-1.59132 0.82769 20.5583
-1.98729 1.08209 19.3738
2.87661 -0.725281 18.7235
2.31343 -1.61035 22.1555
0.265449 -0.990841 20.016
-0.470076 0.183436 17.054
-1.06461 -0.567857 15.4592
-1.78765 -0.976041 17.3872
1.54473 0.996697 19.3994
2.32846 1.38281 20.6168
1.58878 0.745474 21.949
0.530807 -0.0152708 21.9339
0.223773 -0.309219 21.6589
-0.0125488 -0.553523 21.4131
-1.29624 -0.607194 1.49735
-0.0157116 -0.0756419 0.498388
-0.0360006 0.011889 0.352912
0.00637695 -0.106138 0.0339582
0.000722627 0.0609924 0.195557
0.0425296 0.0704429 1.63683
-0.768597 0.177128 0.841486
-0.0272027 0.087672 0.131546
-0.1794 -0.0078611 0.318188
-0.0190816 -0.0500734 0.0450013
-0.0170067 0.00396063 -0.00243449
0.00976015 0.00191741 0.0854987
0.0160353 -0.075744 0.499133
1.27837 -0.600851 1.47701
0.0358545 0.0120593 0.353541
0.00559819 0.0555115 0.182524
-0.00904577 -0.113677 0.0366747
-0.0427677 0.069943 1.69819
0.0298788 0.0975161 0.146431
0.757481 0.175945 0.828687
0.179741 -0.00807538 0.318619
0.0145749 0.00526063 -0.00350055
0.0200155 -0.0479211 0.0404924
-0.00986593 0.00231142 0.0839932
-0.00747994 0.014495 0.422227
0.00979301 0.00220347 0.671868
0 0 0
0 0 0
0.0879127 0.0377161 0.760206
0.0126407 -0.00193018 0.705514
0 0 0
0.000551793 7.34284e-05 0.0153082
-0.0469696 -0.0351612 0.340846
0.0145449 0.0667711 0.408095
0.00110221 0.00348479 0.00926087
-0.0348849 0.0518283 0.124908
0.000995952 0.00171928 0.00603383
0.00729912 0.0128898 0.0480807
0 0 0
0.00128132 0.000492503 0.0273334
0.00731833 0.0144421 0.421995
0 0 0
-0.0104777 0.00178684 0.675924
0 0 0
-0.0936757 0.040546 0.774729
-0.000466821 6.45929e-05 0.0127728
-0.0135422 -0.00226962 0.709858
0 0 0
0.0461399 -0.0343163 0.337389
0.0354348 0.0527053 0.126878
-0.014525 0.0667618 0.406827
-0.00109788 0.00347376 0.00925273
-0.00114412 0.0019812 0.00691612
-0.00131055 0.000488035 0.0266874
-0.00725581 0.0129027 0.0479255
0 0 0
-0.00146994 -0.00199699 0.0177157
-0.315479 -0.29082 0.246475
1.6471e-06 -5.65835e-07 4.9222e-05
0 0 0
0 0 0
-5.76305e-07 -9.77043e-10 -4.97066e-05
0 0 0
-0.022604 -0.0569101 0.00200531
0 0 0
-0.00308123 -0.119797 0.0289033
4.90067e-05 0.00286699 0.0320037
0.000243576 0.000249936 0.00680506
0.0908441 1.48456 0.627495
4.0216e-05 0.0599778 0.155356
0 0 0
-0.161507 0.0889538 0.259326
-0.00112109 -0.00283963 -0.00306125
-7.97472e-05 -0.000458979 0.00574259
0 0 0
0.000933446 -0.000920621 0.0175444
0.29834 -0.273648 0.233499
0.0013915 -0.00191376 0.0170036
1.06843e-06 -9.607e-10 -8.91746e-05
0 0 0
0.0197121 -0.0599823 0.00173224
0 0 0
0 0 0
-7.06685e-05 0.002978 0.0331632
0 0 0
0 0 0
-0.00104951 -0.000868965 0.0167846
0 0 0
-1.56715e-19 7.91314e-18 5.89731e-17
0.00115617 0.000635459 0.0233753
0.00102378 -0.000860316 0.0497808
0.000146499 0.00350639 0.0220253
-5.58327e-06 0.000709888 0.0137475
1.9128e-08 -1.94035e-07 -4.15251e-05
0.000398567 0.00690338 0.0384202
0.000291732 0.00160557 0.00791197
6.04629e-09 -4.90596e-08 -1.07897e-05
0 0 0
0.0102322 0.0314856 0.117116
-0.00727125 0.0112858 0.0822525
-2.26749e-05 0.0175051 0.0335879
-8.48467e-05 0.106531 0.250406
-1.00951e-06 0.000102866 0.00206284
-7.04073e-06 -8.48017e-06 0.000658826
-0.00102782 0.000576673 0.0208162
0 0 0
-0.00102927 -0.000893792 0.0497281
-0.000146272 0.00348774 0.021927
-0.000396602 0.00685017 0.0381576
-0.000288728 0.00158773 0.00785752
0.00724554 0.0113293 0.0824937
-0.0102322 0.031514 0.117268
0 0 0
-0.259379 -0.236297 1.00011
0.00488995 -0.00418911 0.134473
-0.00283087 -0.00459931 0.057589
0 0 0
0.0141289 0.0382747 0.180553
0 0 0