# vtk DataFile Version 2.0
tri_press
ASCII
DATASET UNSTRUCTURED_GRID
POINTS 3682 float
-0.723096 0.205 -1.835
-0.732586 0.335 1.945
-0.732177 0.785 -1.765
-0.578645 1.435 1.695
0.723098 0.205 -1.835
0.732662 0.335 1.945
0.732177 0.785 -1.765
0.578645 1.435 1.695
-0.762435 0.212158 -0.575
-0.798118 0.222972 0.685
-0.780251 1.10092 -0.611667
-0.711651 1.30016 0.541667
0.762459 0.212161 -0.575
0.798627 0.222514 0.685
0.780301 1.10097 -0.611667
0.711683 1.30019 0.541667
-1.47328 -0.348853 -2.77469
-1.47877 -0.232931 -1.80941
-1.50226 -0.226236 -0.546649
-1.5075 -0.250943 0.737576
-1.46386 -0.180646 2.00214
-1.45428 -0.0814044 2.97628
-1.46473 0.0278597 3.93402
-1.47532 0.0359461 -2.77803
-1.48173 0.185585 -1.82441
-1.51038 0.238146 -0.582403
-1.50053 0.255458 0.669201
-1.42511 0.346729 1.91325
-1.4315 0.446408 2.88588
-1.45519 0.551286 3.8471
-1.48062 0.737983 -2.75479
-1.49051 0.880419 -1.79675
-1.51522 1.12646 -0.627466
-1.43873 1.29825 0.534264
-1.3231 1.42773 1.70559
-1.37832 1.5195 2.68263
-1.43637 1.60966 3.66106
-1.4847 1.99709 -2.80012
-1.49044 2.17148 -1.85806
-1.49566 2.46454 -0.723359
-1.47255 2.74375 0.388353
-1.43993 2.94403 1.52417
-1.44114 3.05769 2.46856
-1.46271 3.15155 3.43534
-0.729413 -0.337611 -2.78157
-0.726429 -0.214992 -1.81945
-0.748216 -0.23598 -0.545302
-0.773148 -0.276759 0.751061
-0.750009 -0.196716 2.02572
-0.748695 -0.0921331 2.99227
-0.758946 0.0204938 3.94328
-0.731608 0.0349341 -2.78015
-0.744041 0.439764 2.89907
-0.758651 0.546488 3.85408
-0.735528 0.697487 -2.7416
-0.702303 1.52224 2.68051
-0.750099 1.61073 3.6606
-0.738623 1.96527 -2.78708
-0.742719 2.13938 -1.84369
-0.756481 2.45117 -0.714698
-0.755592 2.74871 0.387314
-0.742801 2.95417 1.51675
-0.747815 3.06613 2.46115
-0.766161 3.15744 3.42995
0.745593 -0.337618 -2.78157
0.74704 -0.214997 -1.81945
0.771842 -0.236032 -0.545302
0.781803 -0.277065 0.751061
0.73229 -0.196834 2.02572
0.68598 -0.0922228 2.99227
0.662355 0.0203987 3.94328
0.737052 0.0349317 -2.78015
0.656792 0.439705 2.89907
0.64281 0.546404 3.85408
0.738848 0.697488 -2.7416
0.603252 1.5222 2.68051
0.61674 1.61066 3.6606
0.750743 1.96527 -2.78708
0.750885 2.13938 -1.84369
0.730248 2.45117 -0.714698
0.683197 2.74869 0.387314
0.64064 2.95413 1.51675
0.626847 3.06608 2.46115
0.621307 3.15737 3.42995
1.48972 -0.348872 -2.77469
1.49398 -0.23295 -1.80941
1.52206 -0.226351 -0.546649
1.52722 -0.251364 0.737576
1.46688 -0.180939 2.00214
1.41311 -0.0816169 2.97628
1.38394 0.0276599 3.93402
1.48107 0.0359386 -2.77803
1.48189 0.185588 -1.82441
1.51527 0.238095 -0.582403
1.51699 0.255022 0.669201
1.43814 0.346477 1.91325
1.38004 0.446231 2.88588
1.35983 0.551105 3.8471
1.4829 0.737984 -2.75479
1.48843 0.880437 -1.79675
1.51462 1.12649 -0.627466
1.44683 1.29813 0.534264
1.3276 1.42757 1.70559
1.31268 1.51936 2.68263
1.32284 1.6095 3.66106
1.49369 1.99708 -2.80012
1.4936 2.17148 -1.85806
1.47171 2.46452 -0.72336
1.41337 2.74369 0.388353
1.35346 2.94393 1.52417
1.33182 3.05757 2.46856
1.32659 3.15141 3.43534
-0.779336 0.495 -1.8517
9.83477e-07 0.201375 -1.83862
-0.744648 0.206697 -1.205
-0.735255 0.885 1.89964
3.7998e-05 0.301625 1.97838
-0.790468 0.25387 1.315
0 0.842776 -1.82278
-0.789032 0.975777 -1.18833
0 1.48373 1.74373
-0.663408 1.38584 1.11833
0.779469 0.495 -1.85183
0.744656 0.206703 -1.205
0.735284 0.885 1.89963
0.790517 0.253885 1.315
0.789011 0.975756 -1.18833
0.663439 1.38587 1.11833
-0.782331 0.21551 0.055
-0.890159 0.656538 -0.593333
1.18373e-05 0.210527 -0.575
-0.882461 0.761567 0.613333
0.000254657 0.21852 0.685
-0.751534 1.20612 -0.035
2.51037e-05 1.3904 -0.611667
1.59104e-05 1.60191 0.541667
0.782167 0.215713 0.055
0.890158 0.656564 -0.593333
0.882477 0.761354 0.613333
0.751534 1.20612 -0.035
-0.889027 0.575769 -1.19667
0.88902 0.575782 -1.19667
6.41038e-06 0.204117 -1.205
1.25519e-05 1.08011 -1.18833
4.91738e-07 0.495 -2.07059
-0.887823 0.709052 0.01
0.88782 0.708959 0.01
0.000133247 0.212358 0.055
2.05071e-05 1.58044 -0.035
-0.86033 0.823283 1.21667
0.860366 0.823177 1.21667
0.000146327 0.239478 1.315
7.95522e-06 1.58618 1.11833
1.8999e-05 0.885 2.00062
-0.770208 0.35 -1.86234
-0.361548 0.201384 -1.83862
-0.734025 0.205695 -1.52
-0.769779 0.61 1.95818
-0.366274 0.302169 1.97783
-0.794105 0.261857 1.63
-0.763634 0.64 -1.81623
-0.366089 0.814966 -1.79497
-0.766296 0.88608 -1.47667
-0.672669 1.16 1.81304
-0.289322 1.4733 1.7333
-0.622076 1.41147 1.40667
0.361549 0.20138 -1.83862
0.770183 0.35 -1.86232
0.734028 0.2057 -1.52
0.36635 0.302177 1.97782
0.769849 0.61 1.95819
0.794268 0.261764 1.63
0.366089 0.815297 -1.7953
0.763709 0.64 -1.8163
0.766306 0.88609 -1.47667
0.289322 1.47322 1.73322
0.672446 1.16 1.8128
0.622087 1.41148 1.40667
-0.755231 0.207737 -0.89
-0.772606 0.213611 -0.26
-0.873939 0.410527 -0.584167
-0.381144 0.211478 -0.575
-0.788368 0.244346 1
-0.788245 0.22122 0.37
-0.869133 0.477847 0.649167
-0.400012 0.218585 0.685
-0.791867 1.04557 -0.9
-0.873642 0.897946 -0.6025
-0.767988 1.15562 -0.323333
-0.452536 1.37051 -0.611667
-0.684348 1.33982 0.83
-0.821986 1.04333 0.5775
-0.733284 1.25483 0.253333
-0.424491 1.58838 0.541667
0.755244 0.207745 -0.89
0.381168 0.211478 -0.575
0.772647 0.213603 -0.26
0.873938 0.410547 -0.584167
0.787659 0.245112 1
0.400406 0.218586 0.685
0.788392 0.221118 0.37
0.869112 0.477654 0.649167
0.791874 1.04558 -0.9
0.452615 1.37059 -0.611667
0.873645 0.897974 -0.6025
0.767982 1.15561 -0.323333
0.684354 1.33983 0.83
0.424516 1.58839 0.541667
0.822046 1.04326 0.5775
0.733283 1.25483 0.253333
-0.881997 0.535384 -1.52418
-0.389668 0.495 -2.03566
3.69693e-06 0.203458 -1.52181
7.37607e-07 0.348188 -1.99256
-0.885356 0.391233 -1.20083
-0.372321 0.204093 -1.205
-0.837219 0.854142 1.55815
-0.367618 0.885 1.99912
9.21627e-05 0.253923 1.64669
2.84985e-05 0.593312 2.07063
-0.878817 0.538577 1.26583
-0.395161 0.238516 1.315
6.27593e-06 0.997354 -1.50555
2.45869e-07 0.668888 -2.00292
-0.8823 0.775773 -1.1925
-0.39451 1.06737 -1.18833
3.97761e-06 1.56144 1.43103
9.49949e-06 1.18437 1.93535
-0.783639 1.10456 1.1675
-0.3317 1.57717 1.11833
0.881993 0.535391 -1.52425
0.389735 0.495 -2.03556
0.885356 0.391243 -1.20083
0.372331 0.204093 -1.205
0.837272 0.854088 1.55815
0.367651 0.885 1.99914
0.87882 0.538531 1.26583
0.395332 0.239968 1.315
0.882242 0.775769 -1.1925
0.394512 1.05629 -1.18833
0.783404 1.10452 1.1675
0.331724 1.57709 1.11833
-0.872078 0.443781 0.0325
-0.391114 0.213903 0.055
-0.889816 0.616153 -0.895
-0.889268 0.682795 -0.291667
9.12383e-06 0.204779 -0.89
7.25422e-05 0.211713 -0.26
-0.88652 0.73531 0.311667
-0.873564 0.792425 0.915
0.000193952 0.218616 0.37
0.000200492 0.233547 1
-0.852257 0.973877 -0.0125
-0.460271 1.56231 -0.035
1.88278e-05 1.24278 -0.9
2.28054e-05 1.52304 -0.323333
1.82088e-05 1.59814 0.253333
1.19328e-05 1.59854 0.83
0.87208 0.443793 0.0325
0.391216 0.213904 0.055
0.889817 0.616173 -0.895
0.889265 0.682762 -0.291667
0.886517 0.735156 0.311667
0.873569 0.792265 0.915
0.852275 0.97384 -0.0125
0.460282 1.56229 -0.035
-0.878617 0.370616 -1.52209
-0.88626 0.41279 -0.8925
-0.884531 0.82725 -0.8975
-0.882925 0.707886 -1.50042
0.878616 0.370621 -1.52212
0.882965 0.707885 -1.50046
0.884531 0.827268 -0.8975
0.886262 0.412803 -0.8925
-0.366934 0.203426 -1.52091
0.36694 0.203427 -1.52091
0.376783 0.204765 -0.89
-0.376766 0.204764 -0.89
-0.380299 0.978343 -1.49111
-0.392311 1.22589 -0.9
0.392337 1.22592 -0.9
0.3803 0.978504 -1.49111
-0.375608 0.349094 -1.96537
-0.377878 0.654444 -1.96379
0.377912 0.654444 -1.9639
0.375642 0.349094 -1.96533
-0.872272 0.427522 -0.275833
-0.871737 0.460248 0.340833
-0.838716 1.0094 0.2825
-0.863657 0.936265 -0.3075
0.87227 0.42754 -0.275833
0.863649 0.936251 -0.3075
0.838484 1.00921 0.2825
0.871727 0.460158 0.340833
-0.385985 0.212979 -0.26
0.386048 0.212979 -0.26
0.394594 0.21868 0.37
-0.394346 0.218679 0.37
-0.474105 1.50181 -0.323333
-0.445775 1.58213 0.253333
0.445804 1.58215 0.253333
0.474116 1.50177 -0.323333
-0.87653 0.515423 0.9575
-0.871196 0.574288 1.59408
-0.751311 1.13228 1.48241
-0.805464 1.06771 0.8725
0.876516 0.515232 0.9575
0.800693 1.06765 0.8725
0.751374 1.13226 1.48241
0.871211 0.574265 1.59407
-0.397046 0.232844 1
0.397386 0.234208 1
0.380841 0.254018 1.63834
-0.380717 0.253255 1.63834
-0.343759 1.58998 0.83
-0.310511 1.55386 1.41885
0.310523 1.55393 1.41885
0.343786 1.58993 0.83
-0.366946 0.601656 2.03806
0.367001 0.601656 2.03805
0.328487 1.17218 1.91861
-0.32847 1.17218 1.91868
-0.747447 0.2775 -1.84947
-0.542322 0.201401 -1.8386
-0.728685 0.205223 -1.6775
-0.755733 0.4725 1.95614
-0.54943 0.303427 1.97657
-0.775367 0.286407 1.7875
-0.748848 0.7125 -1.79156
-0.549133 0.800353 -1.78035
-0.762187 0.848491 -1.62083
-0.625704 1.2975 1.75407
-0.433984 1.46028 1.72028
-0.602496 1.42537 1.55083
0.542324 0.201397 -1.8386
0.747438 0.2775 -1.84946
0.728688 0.205225 -1.6775
0.549506 0.303442 1.97656
0.755736 0.4725 1.95608
0.77548 0.286367 1.7875
0.549133 0.800397 -1.7804
0.748717 0.7125 -1.79143
0.762345 0.848648 -1.62083
0.433984 1.46027 1.72027
0.625593 1.2975 1.75395
0.602513 1.42539 1.55083
-0.756735 0.212046 -0.7325
-0.76786 0.212545 -0.4175
-0.851435 0.294718 -0.579583
-0.57175 0.211897 -0.575
-0.796143 0.230758 0.8425
-0.79378 0.221497 0.5275
-0.859119 0.337663 0.667083
-0.599892 0.219125 0.685
-0.786374 1.07356 -0.755833
-0.813419 0.992668 -0.607083
-0.774662 1.12881 -0.4675
-0.6693 1.34153 -0.611667
-0.69826 1.32025 0.685833
-0.761834 1.16925 0.559583
-0.727206 1.28224 0.3975
-0.610031 1.52819 0.541667
0.756752 0.212052 -0.7325
0.571774 0.211897 -0.575
0.76789 0.212544 -0.4175
0.851441 0.294733 -0.579583
0.795977 0.230979 0.8425
0.600229 0.219125 0.685
0.793875 0.221451 0.5275
0.85903 0.337503 0.667083
0.786382 1.07357 -0.755833
0.668236 1.33933 -0.611667
0.813393 0.992681 -0.607083
0.774665 1.12881 -0.4675
0.698274 1.32027 0.685833
0.610051 1.52819 0.541667
0.76184 1.16921 0.559583
0.727178 1.28221 0.3975
-0.772208 0.4225 -1.85446
-0.780371 0.5675 -1.84285
-0.866172 0.515192 -1.68794
-0.584502 0.495 -1.97735
-0.180773 0.201378 -1.83862
0.180775 0.201374 -1.83863
[...]
POINT_DATA 3682
SCALARS point_scalars float 1
LOOKUP_TABLE default
-133.542
-53.4935
-21.7385
-42.9656
-133.547
-53.4277
-21.92
-42.2185
-45.1332
-44.2336
-85.9849
-58.8862
-45.0911
-44.3331
-85.869
-58.7041
-49.0901
-102.796
-44.7105
-44.4299
-60.9856
-53.1231
-47.5899
-50.7622
-105.08
-47.429
-43.9925
-58.4988
-48.753
-45.6058
24.5982
-97.8314
-68.9395
-52.9936
-47.1263
-44.0124
-41.8212
-28.7936
-55.1565
-99.9368
-70.5352
-49.697
-42.0601
-42.0601
-74.7809
-174.406
-44.839
-45.2931
-54.0944
-46.9609
-46.4931
53.8867
-45.2209
-45.1018
167.936
-38.9643
-39.8203
16.8287
-18.912
-93.6187
-72.8631
-47.9581
-42.1649
-39.0367
-66.4736
-175.031
-44.8055
-45.3532
-54.5229
-46.2022
-46.0989
44.2129
-45.2218
-45.3431
168.002
-36.9403
-38.7146
17.5308
-19.1077
-94.0466
-72.9343
-47.5293
-41.0637
-37.2218
-49.5531
-99.6466
-44.6509
-44.498
-60.6729
-53.0012
-47.3628
-51.0035
-104.442
-47.3762
-43.9234
-58.1315
-48.5209
-45.4361
23.8516
-97.9912
-68.8773
-52.8877
-46.4498
-43.2718
-41.1662
-28.973
-55.5535
-99.8953
-71.3338
-49.3173
-41.6535
-41.3395
-22.6424
-143.747
-63.379
-46.5106
-50.658
-47.1959
29.8548
-62.8253
-35.1912
-51.6924
-22.0852
-63.3502
-45.9774
-47.2192
-62.1531
-51.3928
-42.1152
-55.3226
-47.7861
-47.8986
-45.1339
-69.3999
-30.5695
-72.0144
-42.0759
-55.2676
-47.7578
-69.282
-71.8915
-71.7942
-66.8774
22.1601
207.201
-49.852
-49.7703
-43.6397
-104.169
-49.9281
-49.5643
-49.2045
-54.0122
-41.4592
-36.494
-146.183
-88.0085
-48.4145
-51.0902
-54.3554
-13.4488
26.6842
-53.5057
-42.5291
-37.146
-47.9656
-146.19
-36.5843
-87.9829
-51.0469
-48.1428
-54.1033
26.7765
-13.2561
-53.4434
-36.6247
-41.7256
-47.496
-53.371
-42.3397
-48.95
-47.1377
-46.0488
-40.8905
-44.7097
-44.7944
-92.5034
-68.0722
-76.7349
-38.4387
-54.4248
-54.1919
-63.3545
-68.8898
-53.3373
-47.1146
-42.2815
-48.8933
-46.118
-44.7715
-40.8351
-44.6037
-92.4309
-38.3432
-68.0091
-76.6475
-54.2022
-68.7897
-54.0943
-63.1532
-99.9207
183.367
-88.0371
154.307
-68.9511
-65.8726
-52.0452
-43.2718
-52.1061
-45.1785
-48.7851
-48.9577
-5.49404
159.68
-77.0894
12.4269
-45.1418
-30.3557
-50.1927
-53.8719
-99.7755
183.57
-68.8663
-65.8566
-51.5305
-42.9057
-48.4936
-48.6486
-77.01
13.0274
-49.8586
-53.703
-45.1961
-43.1148
-60.7824
-52.0104
-55.6354
-44.2883
-48.5368
-47.6167
-42.9075
-48.0096
-59.8167
-97.8582
9.1761
-91.2243
-85.8416
-62.4447
-45.1211
-43.1143
-60.7116
-51.941
-48.4357
-47.3754
-59.7218
-97.7912
-96.6049
-57.2854
-70.4354
-94.6148
-96.5389
-94.5571
-70.7144
-57.1942
-87.6063
-87.5865
-54.9061
-54.9236
-12.471
3.5576
3.55406
-12.724
172.917
121.638
121.33
172.517
-46.5225
-44.6928
-56.4361
-63.7856
-46.4579
-63.7035
-56.3263
-44.6026
-43.7326
-43.7219
-42.4869
-42.5123
-85.0121
-80.9106
-80.8151
-84.9455
-44.1211
-53.4712
-48.8948
-51.4763
-43.9433
-51.1042
-48.3288
-53.0753
-47.7077
-47.5234
-51.9004
-52.4743
-61.2577
-46.2225
-45.9452
-61.1393
-44.5278
-44.4152
-34.3873
-35.4206
-76.9661
-160.245
-115.125
-50.1767
-52.2341
-59.8215
-13.7324
20.0191
-67.2275
-41.7145
-39.4162
-44.9051
-160.012
-77.2433
-114.984
-52.3816
-49.9163
-59.3942
20.0913
-13.669
-67.2978
-38.7556
-40.9366
-44.3349
-47.3051
-43.4768
-45.8936
-46.2234
-45.8356
-41.7242
-44.1027
-44.478
-90.5721
-76.7344
-80.0278
-84.5869
-56.4821
-56.2082
-62.0813
-64.4208
-47.2695
-46.1904
-43.4511
-45.8431
-46.0018
-44.4734
-41.601
-44.0423
-90.3839
-82.2464
-76.6361
-79.9174
-56.2905
-64.2706
-56.0723
-61.8996
-26.9337
-11.7689
-121.518
139.102
-144.938
-144.926
-108.365
16.7258
-72.894
-57.0069
-66.6878
-64.6669
-46.6873
-44.3881
-51.6413
-43.5539
-50.7382
-50.7012
-53.2079
-45.6555
-48.918
-45.8511
-48.2369
-48.6166
34.0097
34.0292
3.21546
69.8088
-56.6075
-85.0051
-77.4379
-8.53809
-35.6713
-35.4896
-40.2811
-31.7312
-50.606
-52.3856
-50.5854
-53.666
-26.657
-11.3678
-121.978
139.17
-72.8749
-56.9746
-66.6341
-64.6444
-46.2286
-43.6659
-51.065
-43.1416
-47.8036
-45.0028
-47.9204
-47.7832
-56.5141
-84.7115
-77.4197
-8.94506
-50.2292
-52.1445
-50.2686
-53.4313
-41.8588
-40.7506
-43.143
-42.6488
-51.5887
-60.4657
-57.3164
-53.559
-47.4684
-47.4594
-50.7418
-45.62
-46.0369
-50.3741
-48.0615
-47.6869
-45.0678
-45.0075
-43.6923
-46.8665
-73.0041
-66.06
-64.3109
-85.5033
-31.3398
-31.3062
-11.0212
-52.5761
-71.2406
-71.1913
-78.0539
-66.9842
-41.8589
-40.639
-43.0793
-42.6396
-51.531
-60.4111
-57.2656
-53.4947
-45.9087
-50.2424
-47.9424
-47.5082
-72.9024
-65.9217
-64.2037
-85.3729
-80.9801
-70.1674
-74.034
-66.1532
-80.877
-70.0739
-73.9583
-66.0836
-75.5603
-66.6997
-66.6935
-60.4512
1.37207
20.5888
20.59
23.1742
198.226
186.19
175.486
198.235
-47.1961
-50.8006
-49.0434
-53.349
-47.1178
-50.7248
-48.9539
-53.2681
-43.5329
-43.5704
-42.5369
-43.5258
-102.561
-110.058
-94.9859
-102.543
-51.6192
-49.2788
-50.0185
-48.5555
-51.1883
-48.9622
-49.6408
-48.2566
-50.1865
-49.1664
-49.0337
-47.4961
-49.6011
-54.1085
-54.0189
-58.2113
-42.0539
-44.5229
-39.5117
-41.8523
-116.513
134.456
-109.488
38.6667
-97.6301
-87.3535
-56.7374
-44.9953
-53.9335
-45.3607
-54.0388
-52.957
-98.1895
105.657
-1.85159
68.8823
-73.6304
-23.3
-46.7315
-38.704
-41.9805
-35.4582
-48.1738
-46.9714
-109.466
38.1413
-116.52
132.436
-97.8164
-87.3231
-53.4827
-45.2924
-56.344
-44.9033
-53.6618
-52.4677
-1.58969
68.9281
-98.2833
105.481
-73.6315
-23.2477
-41.6158
-34.7019
-46.0168
-37.8411
-47.6454
-46.5999
-57.9511
-54.0756
-43.9369
-43.1084
-51.179
-47.3464
-49.9785
-45.0349
-43.8336
-47.5249
-42.722
-41.9977
-44.8442
-43.7385
-43.3963
-46.7039
-77.5915
-15.7671
-69.0081
-65.5649
-70.3586
-103.587
-15.961
-57.1277
-52.7038
-59.5773
-55.8431
-52.7691
-59.3702
-71.3042
-74.0967
-64.8463
-57.8949
-54.0501
-49.9851
-45.0138
-43.8771
-43.0849
-51.1285
-47.287
-43.6296
-47.4352
-43.3746
-46.6244
-42.6487
-41.9586
-44.7449
-43.61
-78.3831
-16.1081
-16.1287
-57.066
-68.9854
-65.4944
-70.2611
-103.57
-52.4579
-59.3754
-74.0155
-64.7385
-55.7456
-52.6815
-59.2455
-71.0575
-97.4593
-101.984
165.783
174.969
-88.1297
-88.1198
181.699
181.948
-79.8072
-62.7033
-74.3675
-59.5202
-53.2914
-50.291
-44.2769
-39.2735
-52.0041
-52.213
-44.8374
-44.7751
-47.7197
-51.7809
-47.1027
-50.4485
-7.48944
-7.57879
146.079
147.616
-72.987
-83.7512
-7.50011
16.5246
-45.5567
-45.4104
-31.5642
-32.2094
-50.6126
-49.8017
-57.5818
-50.1335
-97.3174
-101.915
175.041
165.644
-79.741
-62.6476
-74.3506
-59.5041
-49.738
-52.8298
-44.0633
-38.486
-47.4008
-51.3191
-46.8548
-49.753
-83.7249
-72.5661
16.4996
-7.72523
-49.5867
-50.1537
-49.922
-57.4383
-45.7289
-44.8922
-43.0874
-42.1607
-58.3703
-64.5061
-48.79
-56.4776
-55.5008
-55.5096
-44.1501
-44.1441
-46.353
-51.4173
-45.3275
-49.198
-42.789
-42.7886
-47.9476
-47.9036
-58.5472
-62.1057
-104.144
-88.7894
7.74667
7.69633
-90.3499
-90.2874
-84.7405
-84.6937
-62.1723
-62.1142
-45.6617
-44.8081
-43.0808
-42.1351
-64.4627
-58.2816
-48.7227
-56.4044
-51.3142
-46.2567
-45.1382
-48.9325
-62.0162
-58.4578
-88.7057
-104.088
-100.63
-77.1828
-80.6149
-121.669
-47.5128
-53.8906
-64.507
-60.6478
-78.6406
-78.7292
-68.8833
-62.2618
-87.5305
-115.362
-82.6227
-77.5871
-101.025
-121.817
-80.5216
-77.1355
-87.4764
-77.5452
-82.5618
-115.454
-78.5698
-62.2256
-68.7775
-82.4327
-47.4688
-60.5943
-64.448
-53.8372
-112.265
-108.739
-75.3328
-73.5762
-112.214
-73.5714
-75.3254
-108.721
-49.1411
-50.3117
-60.1986
-58.3547
-49.1691
-58.2002
-60.1996
-50.3198
-13.3151
-22.0073
0.0803607
3.0359
-75.9834
-11.5347
21.5459
-2.36579
-76.5841
-1.29611
21.8909
-11.5434
-13.8081
3.14293
0.16712
-21.9996
-15.2063
126.213
172.745
0.857753
71.4055
72.4806
176.245
131.26
71.4694
131.297
176.481
71.785
-11.9984
5.19301
172.702
126.123
-44.7754
-43.544
-47.9022
-50.0418
-43.3755
-46.1525
-46.6078
-42.9887
-58.6133
-61.4497
-52.5357
-50.6855
-72.8335
-58.3963
-54.6822
-67.5669
-44.7364
-49.9789
-47.8295
-43.4917
-72.7385
-67.4617
-54.6047
-58.3294
-58.4804
-50.5675
-52.4444
-61.3353
-43.2965
-42.906
-46.5214
-46.0341
-44.3446
-45.5063
-43.4473
-42.5558
-44.3095
-42.5396
-43.4421
-45.4983
-42.9987
-43.6193
-42.4233
-41.5943
-43.0267
-41.6372
-42.4326
-43.631
-103.318
-96.7358
-107.204
-52.0748
-68.1132
-77.0852
-94.0447
-77.3103
-67.9087
-77.3008
-94.0046
-77.0484
-103.376
-52.0021
-107.062
-96.5854
-43.7144
-47.3347
-47.3434
-45.5561
-58.1632
-53.5518
-51.6431
-51.5512
-45.607
-50.563
-50.6668
-49.0453
-54.3459
-49.5698
-49.5507
-50.6762
-43.6844
-45.3946
-47.0033
-46.9875
-54.2013
-50.4268
-49.2495
-49.4074
-44.9386
-48.3718
-50.2269
-50.1248
-57.8369
-51.1339
-51.1924
-53.0521
-46.3319
-46.8929
-47.4618
-46.0632
-46.2976
-45.8595
-47.2861
-46.879
-54.486
-53.3168
-50.0142
-49.2903
-55.528
-50.0609
-50.3465
-53.4114
-60.0242
-56.5915
-58.089
-66.483
-43.4721
-40.8606
-49.7676
-50.5079
-42.9993
-50.2153
-49.6532
-40.6589
-59.8615
-66.4319
-58.0138
-56.4016
-45.182
-45.5873
-44.4806
-43.3761
-45.049
-43.0197
-44.3566
-45.5566
-37.0449
-32.4361
-39.0069
-39.9857
-37.7844
-40.7758
-39.3018
-32.9565
-99.4008
-171.741
-157.738
-51.4373
-52.6066
-56.5435
-16.5681
13.7713
-56.7025
-42.1693
-40.8265
-43.4547
-171.732
-99.5251
-157.683
-52.5067
-51.2012
-56.5241
14.1336
-16.6124
-56.5876
-40.1123
-41.3948
-42.8006
-46.2077
-43.9719
-45.0836
-45.7086
-45.3041
-42.3183
-44.3437
-44.4841
-88.9449
-80.6595
-82.1845
-107.11
-57.6935
-57.5253
-60.5451
-60.7886
-46.1664
-45.6751
-43.9383
-45.0269
-45.5321
-44.5181
-42.2009
-44.3085
-88.827
-106.367
-80.5484
-82.0673
-57.4979
-60.5979
-57.3599
-60.3596
-25.5333
-18.3954
-102.432
81.6922
-144.552
-144.595
-125.467
-142.506
-67.5227
-59.6888
-65.7644
-63.9096
-46.4732
-46.0489
-50.8215
-43.9418
-50.6573
-50.6439
-51.0717
-46.785
-47.8888
-46.368
-47.3129
-48.1011
31.6248
31.5252
18.621
49.0043
-58.453
-70.7367
-76.9994
-29.9004
-35.3321
-35.2651
-38.0624
-33.5603
-51.8155
-51.2443
-50.9313
-53.156
-25.0889
-17.9337
-102.706
81.7256
-67.4972
-59.6583
-65.6829
-63.8842
-45.9691
-45.4216
-50.2206
-43.5055
-47.8573
-45.5889
-47.1534
-47.4603
-58.2945
-70.2456
-76.9624
-30.1167
-51.4722
-50.9833
-50.6221
-52.8762
-41.6127
-41.6694
-42.5538
-42.4985
-53.3417
-57.7581
-56.2135
-54.369
-47.732
-47.7282
-49.0117
-46.5856
-46.9552
-48.9622
-48.0582
-47.7099
-45.1009
-45.0928
-44.3031
-46.0127
-71.2268
-67.6675
-66.6569
-75.6544
-31.0647
-31.057
-19.9512
-42.6968
-71.7977
-71.7732
-74.8827
-69.4178
-41.6303
-41.5839
-42.4936
-42.4598
-53.2857
-57.7036
-56.162
-54.3082
-46.8183
-48.8224
-47.927
-47.5532
-71.1211
-67.5394
-66.5433
-75.5498
-76.9975
-70.6983
-72.5552
-68.3282
-76.9044
-70.6032
-72.467
-68.2184
-70.8362
-67.2048
-67.2028
-63.4511
14.9136
22.2689
22.055
25.7768
201.884
201.853
202.487
201.908
-48.3699
-50.3181
-49.3923
-51.4617
-48.2898
-50.239
-49.3074
-51.3796
-43.5385
-43.4617
-43.1258
-43.5355
-103.877
-107.501
-99.8013
-103.868
-50.8423
-49.6296
-50.0821
-49.3799
-50.4595
-49.2398
-49.6987
-49.0444
-49.7582
-49.2393
-49.1398
-48.1543
-51.6608
-54.072
-54.0272
-56.1142
-41.4749
-43.8287
-41.2627
-41.3675
-49.0982
-27.9191
-110.327
67.0744
-150.069
-145.696
-129.461
-140.077
-100.299
-79.3083
-99.0646
-87.212
-49.0781
-47.5896
-53.649
-45.5877
-51.4122
-50.8765
-51.4689
-46.6025
-59.901
-50.6297
-55.8128
-53.2923
-13.2335
-13.7229
-79.2167
56.8394
25.7956
32.3754
11.9879
41.4018
-58.67
-56.9367
-65.9027
-36.2796
-41.7233
-43.0984
-45.223
-39.6845
-38.2326
-36.268
-40.2622
-36.0232
-46.1743
-49.3353
-47.9493
-47.5387
-150.045
-145.704
-129.436
-148.986
-49.3643
-27.8211
-110.859
67.4149
-100.282
-79.2919
-98.931
-87.1802
-51.9903
-50.8115
-52.097
-46.4007
-48.8225
-47.2619
-53.2868
-45.4203
-59.4682
-49.5536
-55.4668
-52.9565
25.6242
33.0165
12.1676
41.4484
-13.1173
-13.4677
-79.4179
56.873
-58.7128
-56.8901
-65.8616
-36.2236
-37.6403
-35.9322
-39.8121
-35.4142
-40.9368
-42.3168
-44.4471
-39.0702
-45.6657
-48.9119
-47.4444
-47.1172
-50.3594
-54.6578
-57.8732
-53.5139
-42.7414
-41.8472
-42.8849
-42.8005
-47.2771
-50.0415
-49.9298
-48.1525
-46.7688
-47.3224
-48.3524
-46.0148
-47.1042
-44.8549
-42.5126
-47.2258
-41.1159
-40.6821
-41.8809
-41.647
-44.4554
-45.2678
-44.8695
-44.228
-44.5831
-44.9455
-43.9292
-45.7377
-95.2485
-93.2476
-86.0718
-51.5946
-72.5829
-64.0845
-68.5164
-66.6603
-78.3114
-74.8549
-72.9675
-88.3072
-48.9629
-32.4983
-29.3496
-47.7413
-55.38
-53.3904
-53.621
-56.7518
-55.0966
-51.9232
-55.0391
-53.4806
-62.2572
-64.6234
-61.3252
-66.6169
-67.3111
-70.3077
-71.3862
-66.8322
-50.3243
-54.6263
-57.8293
-53.4846
-46.7373
-47.3068
-48.3314
-45.9895
-42.7004
-41.8021
-42.8173
-42.773
-47.2253
-49.9839
-49.8738
-48.0941
-47.2984
-44.8303
-42.2852
-47.3671
-44.5901
-44.9199
-43.9099
-45.6862
-41.0609
-40.5825
-41.814
-41.6099
-44.3646
-45.1467
-44.7684
-44.1136
-95.0815
-93.201
-86.0806
-52.4522
-48.9548
-32.5111
-29.3522
-47.683
-72.5032
-64.0279
-68.467
-66.5967
-78.2281
-74.7658
-72.8724
-88.2762
-55.1718
-53.155
-53.3956
-56.353
-67.1825
-70.2339
-71.2893
-66.7347
-54.988
-51.8072
-54.9422
-53.3874
-62.081
-64.4754
-61.1285
-66.4542
-111.249
-88.4891
-98.5417
-101.018
167.281
195.388
171.966
184.194
-96.6518
-81.1754
-87.9757
-87.9745
141.542
163.438
162.713
162.5
-68.0183
-69.8271
-74.0516
-65.2863
-65.3106
-66.3147
-69.8466
-62.4594
-51.8423
-51.5975
-52.9836
-51.1264
-43.5405
-42.7539
-44.1217
-41.7231
-53.768
-51.1264
-52.0614
-52.166
-46.1653
-43.9473
-45.1442
-45.1143
-48.3482
-49.1403
-48.0651
-50.0105
-48.8355
-49.0246
-47.8231
-49.9486
-2.30991
-5.62377
-6.06241
-6.13637
118.345
168.53
166.669
166.761
-77.0883
-75.7056
-74.728
-80.9471
2.88825
17.9499
3.01984
16.4803
-42.7881
-47.4022
-45.3135
-45.2387
-30.2999
-32.6169
-30.5111
-31.0012
-50.7825
-50.4634
-50.7263
-49.7568
-53.8419
-53.9205
-55.6266
-52.0403
-111.185
-88.3468
-98.3619
-100.964
167.312
195.376
184.274
172.703
-67.9431
-69.7332
-73.9684
-65.2183
-65.2913
-66.3027
-69.8302
-62.4436
-51.302
-51.1131
-50.5962
-52.4878
-43.146
-42.4297
-43.8547
-41.2157
-48.0303
-48.861
-47.7752
-49.7111
-48.126
-48.8824
-47.5467
-49.3077
-77.0409
-75.6265
-80.8921
-74.5652
4.17619
17.7768
17.8974
2.28844
-50.4437
-50.1041
-49.5045
-50.3213
-53.6394
-53.7867
-51.8483
-55.4673
-44.3438
-46.0157
-45.4422
-44.9791
-42.8235
-43.3178
-42.9708
-42.6303
-58.6696
-63.6904
-59.4245
-62.4862
-52.7942
-51.4032
-50.2515
-54.0284
-53.2632
-57.807
-55.6301
-55.6347
-44.9931
-43.8801
-44.2693
-44.2664
-48.2827
-48.6868
-47.3852
-49.8076
-47.6661
-48.1286
-46.6448
-48.4291
-43.2488
-42.6409
-42.8629
-42.8681
-48.6833
-46.9389
-48.0835
-48.0577
-62.3413
-55.881
-59.3843
-60.7229
-93.4596
-100.556
-101.677
-93.1696
0.397062
16.8559
8.63261
8.68336
-65.3709
-107.071
-91.3206
-91.3096
-81.679
-90.2281
-85.5776
-85.5572
-64.6685
-60.3152
-62.3686
-62.3398
-44.2725
-45.9388
-45.3718
-44.8994
-42.8384
-43.3089
-42.9677
-42.6097
-58.6164
-63.6424
-62.4223
-59.346
-52.7274
-51.3304
-50.1832
-53.9577
-48.1759
-48.5929
-49.7058
-47.286
-47.4552
-47.8557
-46.4095
-48.1806
-62.2387
-55.7999
-60.6342
-59.2895
-93.3356
-100.512
-93.1019
-101.629
-107.016
-98.0295
-96.5972
-86.3569
-57.2896
-54.6198
-59.0415
-57.8169
-73.5834
-69.5137
-71.5846
-66.9555
-97.4941
-84.0807
-99.8428
-88.0904
-106.715
-98.0506
-96.4948
-86.2876
-97.4442
-84.0735
-99.764
-88.0737
-74.2765
-69.5316
-71.3198
-66.9821
-57.2124
-54.5394
-59.0026
-57.7274
-96.8192
-87.4915
-87.8047
-80.4188
-96.798
-87.4661
-87.7875
-80.4006
-54.4983
-52.513
-56.9274
-55.2554
-54.5201
-52.5311
-56.9035
-55.2684
-8.85547
-15.9474
-9.10975
-11.6106
-2.6675
-7.63421
10.2988
6.09526
-2.74638
-7.7322
10.3351
6.24724
-8.94812
-16.4003
-9.26628
-11.8572
159.521
125.924
170.795
179.188
124.235
96.9212
144.434
125.642
96.6922
124.073
125.358
144.417
125.793
159.943
179.143
170.532
-45.3578
-46.873
-46.0621
-47.4262
-43.839
-44.6523
-44.7275
-45.395
-56.4252
-57.4668
-53.7428
-57.202
-64.6014
-67.768
-59.5582
-62.7849
-45.2972
-46.8117
-45.9957
-47.3607
-64.5247
-67.6498
-59.4835
-62.6969
-56.2943
-57.3441
-53.6354
-57.1445
-43.7547
-44.5552
-44.6407
-45.3017
-43.4658
-44.2981
-43.3343
-43.9846
-44.2868
-43.4331
-43.9756
-43.3267
-42.8749
-42.2521
-42.6588
-42.2458
-42.2897
-42.8974
-42.2707
-42.6767
-92.6435
-62.9042
-102.815
-87.4446
-76.7999
-77.1769
-84.5948
-83.3512
-77.0949
-76.6418
-83.2804
-84.4939
-62.8099
-93.9164
-87.3766
-102.757
-44.3066
-43.5445
-46.2104
-44.4182
-55.6206
-53.7351
-53.2716
-52.4324
-47.9383
-48.2002
-49.6769
-49.7435
-52.0741
-52.1607
-51.0586
-50.5375
-44.0879
-43.3957
-45.8728
-44.3168
-51.7116
-52.3516
-50.5091
-50.2005
-47.2971
-47.6583
-49.1092
-49.2637
-55.2095
-53.3514
-52.859
-51.9676
-47.5374
-48.4784
-46.5654
-47.8461
-47.0388
-48.4484
-46.3753
-47.7751
-54.0124
-51.6147
-51.9792
-50.7592
-54.4952
-52.7793
-52.3236
-51.3121
-60.4613
-63.0314
-59.4481
-61.8344
-43.9634
-46.4321
-45.8774
-48.196
-43.6475
-46.1031
-45.6638
-47.952
-60.3162
-62.9212
-59.3242
-61.7452
-44.5509
-45.3683
-44.0851
-44.6363
-45.3299
-44.4174
-44.5516
-43.8709
-34.0933
-36.1228
-32.7145
-35.5083
-37.1621
-35.0606
-36.5231
-33.5674
-120.772
-38.2286
-138.874
-135.491
-104.865
-114.26
-56.1151
-46.0097
-52.6015
-47.051
-59.2539
-56.9981
-77.0574
52.5751
-3.48249
34.2295
-81.2651
-37.1366
-44.1262
-38.8005
-42.4096
-37.7206
-45.1549
-44.3959
-138.788
-137.031
-121.371
-38.7626
-105.066
-114.201
-53.7589
-46.7146
-55.8426
-45.8226
-58.9707
-56.1385
-3.41222
34.3884
-77.339
52.8204
-81.2753
-37.266
-41.866
-37.042
-43.3833
-38.0781
-44.5325
-43.8568
-46.6098
-48.5696
-43.701
-43.9589
-46.6153
-45.222
-47.4644
-45.2364
-44.5938
-45.9597
-42.7514
-42.7444
-43.5397
-43.8184
-43.6376
-45.4227
-83.0026
-100.55
-78.9091
-74.4932
-76.0261
-95.0313
-78.3939
-95.3049
-55.4945
-57.8725
-57.1195
-55.2405
-60.1577
-64.7685
-65.9979
-61.716
-46.5703
-48.5383
-47.4344
-45.1994
-43.6776
-43.9279
-46.5682
-45.181
-44.7058
-45.9904
-43.6219
-45.3979
-42.6655
-42.7051
-43.4659
-43.8245
-82.894
-100.615
-80.1206
-93.7959
-78.8175
-74.3933
-75.9238
-95.12
-55.3175
-57.6646
-65.8537
-61.5551
-56.9898
-55.1081
-59.9945
-64.5888
-110.567
84.2331
-93.7516
75.9009
-122.642
-119.517
135.014
137.859
-126.736
-207.274
-126.708
-204.812
-108.339
-108.341
27.2481
26.8041
-77.0685
-73.0318
-58.7855
-57.6473
-72.311
-62.4816
-68.6972
-61.2545
-52.0439
-43.6488
-48.061
-41.6524
-52.5625
-50.4358
-43.5123
-42.6299
-51.1539
-46.6591
-51.1739
-46.5968
-53.2302
-53.286
-45.6341
-45.6179
-50.2523
-49.3391
-46.6911
-45.7293
-47.9396
-49.7391
-46.7609
-49.6122
14.9343
43.6643
15.178
43.8311
2.59021
2.64037
69.4462
69.3191
-70.6056
-36.7476
-88.6067
-38.7991
-77.5168
-77.9849
-15.8511
-2.35546
-38.6953
-34.3515
-38.4543
-33.9803
-40.4912
-40.3896
-31.8266
-32.1121
-50.5028
-50.3968
-51.5686
-55.1694
-51.317
-50.027
-55.2243
-52.1989
-111.172
84.0703
-93.9416
76.0006
-123.224
-119.829
137.823
135.196
-77.0143
-73.0089
-58.7315
-57.6206
-72.211
-62.4354
-68.6751
-61.2315
-51.5132
-43.2502
-47.3303
-40.9842
-49.7997
-52.0215
-43.116
-42.0381
-49.5895
-48.8025
-46.2479
-45.3887
-47.5931
-49.4299
-46.6639
-48.6095
-70.548
-36.703
-87.5615
-38.3879
-77.9172
-77.8472
-1.86177
-15.6595
-50.0904
-50.0562
-51.3217
-54.9545
-49.7633
-50.9257
-51.9384
-55.0086
-42.3373
-42.2841
-41.7299
-41.3152
-43.2696
-43.323
-42.4759
-42.1718
-52.5347
-50.7543
-61.2295
-59.34
-55.5839
-59.624
-51.6552
-55.7764
-48.8894
-46.4906
-48.881
-46.4817
-50.4319
-50.4341
-45.6187
-45.615
-46.2163
-45.77
-50.4556
-49.724
-47.0577
-49.186
-46.7504
-48.5883
-44.2828
-45.8825
-44.2684
-45.8653
-43.7332
-43.7371
-46.9476
-46.9452
-69.6496
-81.6479
-63.8222
-70.8663
-62.9938
-65.7231
-90.4972
-81.2084
-21.7028
-42.8124
-21.6745
-42.6332
-11.0585
-11.0517
-52.275
-52.2258
-74.0232
-68.8022
-73.9793
-68.7511
-77.7992
-77.778
-66.8451
-66.8192
-42.3
-42.2737
-41.6269
-41.2595
-43.2146
-43.2473
-42.4623
-42.1366
-52.4785
-50.6944
-61.183
-59.279
-59.5802
-55.5277
-51.5916
-55.711
-46.0814
-45.6275
-50.33
-49.5822
-49.0657
-46.9358
-46.5763
-48.411
-69.547
-81.5528
-63.6936
-70.7338
-65.6114
-62.8722
-81.1528
-90.5075
-80.9446
-81.4488
-75.7726
-66.2798
-71.2365
-78.3362
-65.2987
-67.2646
-80.8356
-81.362
-75.6783
-66.1989
-78.2508
-71.1364
-67.1777
-65.2443
-75.6504
-75.6502
-70.5824
-63.1881
-70.5753
-63.1813
-60.3451
-60.4266
1.73001
0.861115
11.0049
23.8456
23.7883
11.125
23.1064
23.2365
185.085