# vtk DataFile Version 2.0
tri_press
ASCII
DATASET UNSTRUCTURED_GRID
POINTS 3682 float
-0.655 0.185 -2.10877
-0.775 0.275 2.04926
-0.715 0.741942 -1.885
-0.705 0.983732 2.045
0.655 0.185 -2.10996
0.775 0.275 2.04939
0.725 0.741139 -1.875
0.705 0.983841 2.045
-0.741889 0.168111 -0.72276
-0.833339 0.146661 0.66325
-0.804942 0.915814 -0.575
-0.791877 0.986679 0.735
0.737598 0.172402 -0.72351
0.811215 0.168785 0.66294
0.810109 0.913816 -0.568333
0.794271 0.985545 0.738334
-1.41685 -0.229278 -3.25799
-1.42398 -0.177411 -2.18046
-1.50028 -0.193151 -0.792129
-1.57837 -0.217974 0.612073
-1.56518 -0.143423 2.00175
-1.55387 -0.0848472 3.08587
-1.55614 -0.0405487 4.15793
-1.41288 0.102428 -3.17178
-1.42086 0.175278 -2.103
-1.51097 0.183324 -0.729616
-1.58612 0.162825 0.651063
-1.54466 0.23731 2.02597
-1.54042 0.293767 3.10896
-1.54985 0.336769 4.18351
-1.43715 0.729281 -2.97901
-1.46756 0.800145 -1.90867
-1.55256 0.923506 -0.587398
-1.56288 0.968911 0.729094
-1.49822 0.98432 2.0521
-1.51582 1.03643 3.13842
-1.54028 1.08539 4.22551
-1.47111 1.78224 -2.74593
-1.49393 1.86772 -1.68597
-1.53395 2.00353 -0.390861
-1.55392 2.1033 0.888276
-1.54808 2.15092 2.18483
-1.54619 2.18322 3.24778
-1.55269 2.22156 4.32677
-0.684212 -0.223815 -3.26171
-0.67609 -0.168178 -2.18684
-0.732619 -0.19791 -0.79042
-0.805904 -0.226127 0.622339
-0.794481 -0.125601 2.01919
-0.787169 -0.0714209 3.09782
-0.790888 -0.032794 4.16505
-0.678442 0.100643 -3.17141
-0.780167 0.30835 3.11885
-0.787862 0.344401 4.18897
-0.695494 0.704789 -2.96693
-0.760569 1.04049 3.13728
-0.782584 1.08946 4.22562
-0.715547 1.76579 -2.73434
-0.729442 1.85222 -1.67351
-0.761866 2.00056 -0.382862
-0.784777 2.10906 0.888731
-0.786507 2.15506 2.18024
-0.786473 2.18569 3.24308
-0.792225 2.22389 4.3235
0.724357 -0.222852 -3.26039
0.708294 -0.166868 -2.18711
0.758452 -0.192365 -0.790695
0.794241 -0.210648 0.622292
0.76993 -0.119757 2.01935
0.752886 -0.0668319 3.09816
0.741941 -0.0278205 4.1656
0.717234 0.101013 -3.16935
0.743895 0.311399 3.11913
0.736762 0.348763 4.1895
0.742233 0.704636 -2.96135
0.721321 1.04279 3.13767
0.727483 1.09316 4.22628
0.783113 1.76633 -2.72957
0.788214 1.85257 -1.66849
0.785684 2.00123 -0.378659
0.762744 2.11068 0.891574
0.737326 2.15761 2.18199
0.729782 2.18886 3.24442
0.726832 2.22757 4.32473
1.44682 -0.226839 -3.25457
1.43708 -0.174158 -2.17875
1.50633 -0.183231 -0.790999
1.56705 -0.195794 0.612846
1.54943 -0.128667 2.00236
1.52594 -0.0739146 3.08675
1.51143 -0.0300763 4.15917
1.4372 0.103739 -3.16702
1.41465 0.176518 -2.10006
1.50076 0.190373 -0.72755
1.57243 0.185414 0.652143
1.54248 0.249829 2.02643
1.5156 0.302829 3.10976
1.5046 0.346262 4.18473
1.46843 0.729554 -2.96973
1.46934 0.79942 -1.89774
1.54915 0.924005 -0.579298
1.56196 0.976098 0.733315
1.49778 0.992249 2.05329
1.48848 1.04352 3.13956
1.4913 1.09355 4.227
1.5303 1.78369 -2.73705
1.54099 1.86898 -1.67684
1.55158 2.00564 -0.383128
1.53611 2.1074 0.89369
1.50708 2.15676 2.18836
1.49481 2.19003 3.25057
1.49043 2.22915 4.32931
-0.714315 0.463471 -2.0262
0 0.177074 -2.11729
-0.698175 0.176825 -1.41576
-0.763636 0.629366 2.07077
0 0.230898 2.09343
-0.816829 0.198171 1.35626
0.00500003 0.81466 -1.95312
-0.797467 0.866374 -1.23
0 1.05172 2.11294
-0.769086 1.00585 1.39
0.720014 0.463069 -2.02249
0.69824 0.17676 -1.41674
0.763819 0.629421 2.07101
0.815609 0.199391 1.35617
0.803834 0.863757 -1.22167
0.770268 1.00533 1.39167
-0.798838 0.146162 -0.029755
-0.853038 0.541963 -0.64888
-0.00214529 0.16187 -0.723135
-0.854238 0.56667 0.699125
-0.0110616 0.165748 0.663095
-0.80252 0.955357 0.08
0.00258382 1.22946 -0.571667
0.0011968 1.44057 0.736667
0.773199 0.171801 -0.030285
0.854188 0.543109 -0.645922
0.855065 0.577165 0.700637
0.806432 0.953922 0.085
-0.897691 0.502717 -1.32288
0.897666 0.503089 -1.3192
-0.00107265 0.172575 -1.41625
0.00379192 0.945241 -1.22583
0.00250001 0.46327 -2.09088
-0.853536 0.554316 0.0251225
0.854844 0.560137 0.0273575
-0.00660346 0.160071 -0.03002
0.00189031 1.42276 0.0825
-0.895899 0.598018 1.37313
0.895827 0.603293 1.37392
-0.00553081 0.205678 1.35621
0.000598402 1.28426 1.39083
0 0.629393 2.22188
-0.641488 0.324235 -2.02432
-0.3275 0.178118 -2.11595
-0.683563 0.173937 -1.76227
-0.785479 0.452183 2.07617
-0.3875 0.280202 2.04409
-0.825489 0.207011 1.70276
-0.708993 0.602706 -1.94994
-0.355 0.806819 -1.94758
-0.771162 0.819087 -1.5575
-0.736363 0.806549 2.05993
-0.3525 1.04421 2.10545
-0.747188 1.00494 1.7175
0.3275 0.184109 -2.11055
0.644534 0.324035 -2.02325
0.683601 0.173899 -1.76335
0.3875 0.285478 2.03888
0.785642 0.45221 2.07643
0.823308 0.209192 1.70278
0.365 0.808183 -1.94434
0.716716 0.602104 -1.94296
0.780078 0.818109 -1.54833
0.3525 1.04354 2.10473
0.736559 0.806631 2.06016
0.747897 1.00485 1.71833
-0.715275 0.177225 -1.06926
-0.779091 0.148409 -0.376258
-0.834923 0.336307 -0.68582
-0.369584 0.169857 -0.722948
-0.812378 0.185122 1.00975
-0.806987 0.155513 0.316748
-0.842107 0.357507 0.681188
-0.409568 0.18147 0.663173
-0.80521 0.895099 -0.9025
-0.858756 0.743771 -0.61194
-0.803906 0.935761 -0.2475
-0.46036 1.191 -0.573333
-0.781644 0.997429 1.0625
-0.854758 0.792525 0.717063
-0.799496 0.973316 0.4075
-0.497478 1.4179 0.735834
0.715625 0.176875 -1.07012
0.36298 0.176628 -0.723323
0.755643 0.171857 -0.376898
0.836478 0.337463 -0.684716
0.806977 0.190523 1.00955
0.386659 0.194101 0.663018
0.795788 0.166712 0.316328
0.844417 0.367336 0.681789
0.811523 0.893338 -0.895
0.466491 1.19193 -0.57
0.85931 0.742043 -0.607128
0.808398 0.933996 -0.241667
0.783428 0.996594 1.065
0.500022 1.41763 0.7375
0.855164 0.796603 0.719485
0.802734 0.972116 0.411667
-0.884825 0.483094 -1.67454
-0.355907 0.463371 -2.11261
-0.000536323 0.170461 -1.76677
0.00125001 0.320172 -2.07674
-0.898283 0.339771 -1.36932
-0.349624 0.174778 -1.41601
-0.875318 0.613692 1.72195
-0.381818 0.62938 2.19131
-0.00276541 0.212107 1.72482
0 0.430146 2.20259
-0.89684 0.398095 1.36469
-0.41118 0.297804 1.35623
0.00439597 0.879509 -1.58948
0.00375002 0.638965 -2.13497
-0.895511 0.684546 -1.27644
-0.396838 0.940376 -1.22792
0.000299201 1.10807 1.75188
0 0.840558 2.20083
-0.878642 0.801935 1.38156
-0.384244 1.26532 1.39042
0.885175 0.483079 -1.67085
0.361257 0.46317 -2.10632
0.898272 0.339925 -1.36797
0.348584 0.174788 -1.41649
0.874591 0.616357 1.72246
0.381909 0.629407 2.19158
0.8973 0.401342 1.36504
0.405039 0.297804 1.35619
0.895481 0.683423 -1.27043
0.403813 0.940688 -1.22375
0.877747 0.804309 1.38279
0.385433 1.26484 1.39125
-0.833965 0.346351 -0.00231624
-0.393164 0.172231 -0.0298875
-0.896099 0.52234 -0.985881
-0.85296 0.54814 -0.311879
-0.00160897 0.170376 -1.06969
-0.00437437 0.159075 -0.376578
-0.856349 0.560493 0.362124
-0.894263 0.582344 1.03613
-0.00883254 0.161133 0.316538
-0.00829622 0.200727 1.00965
-0.857676 0.769661 0.0525613
-0.505046 1.39852 0.08125
0.00318787 1.06193 -0.89875
0.00223707 1.3622 -0.244583
0.00154356 1.44629 0.409583
0.000897603 1.39901 1.06375
0.837488 0.354236 -0.00146374
0.379351 0.17383 -0.0301525
0.894006 0.523099 -0.982561
0.854214 0.551623 -0.309282
0.857303 0.568651 0.363997
0.893401 0.590229 1.03728
0.858615 0.771018 0.0561788
0.509155 1.39833 0.08375
-0.875009 0.332003 -1.7184
-0.89794 0.347404 -1.02757
-0.868922 0.706717 -0.944191
-0.87071 0.643626 -1.61602
0.875164 0.33198 -1.7171
0.872482 0.642764 -1.60959
0.86959 0.705943 -0.938781
0.897574 0.34884 -1.02634
-0.338562 0.173409 -1.76452
0.338042 0.173406 -1.76506
0.358155 0.16683 -1.06991
-0.36082 0.171529 -1.06948
-0.375919 0.892256 -1.57349
-0.399008 1.03114 -0.900625
0.40508 1.03246 -0.896875
0.384407 0.892636 -1.5689
-0.341704 0.322204 -2.07907
-0.355454 0.620836 -2.18949
0.363128 0.620535 -2.18777
0.344378 0.322104 -2.07912
-0.834407 0.341348 -0.344068
-0.834229 0.353832 0.339436
-0.857664 0.781816 0.384812
-0.857136 0.756176 -0.279689
0.836911 0.345885 -0.34309
0.858032 0.756065 -0.275474
0.858115 0.784423 0.387832
0.836358 0.363083 0.340162
-0.381545 0.170701 -0.376418
0.372372 0.172817 -0.376738
0.382364 0.185248 0.316433
-0.402508 0.174565 0.316643
-0.499684 1.32872 -0.246042
-0.507616 1.42092 0.408542
0.510942 1.42069 0.410625
0.504947 1.32938 -0.243125
-0.89691 0.37738 1.02294
-0.886384 0.425139 1.71235
-0.847901 0.804242 1.71972
-0.863366 0.789305 1.04931
0.896836 0.387158 1.02341
0.863208 0.792832 1.05114
0.848148 0.80547 1.7204
0.882534 0.426776 1.71262
-0.41669 0.233899 1.0097
0.402558 0.235179 1.0096
0.39627 0.297862 1.7138
-0.39934 0.300339 1.71379
-0.389792 1.38174 1.06313
-0.368372 1.09718 1.73469
0.368967 1.09696 1.73511
0.391584 1.38045 1.06438
-0.384659 0.441164 2.22631
0.384705 0.441178 2.22652
0.367205 0.823594 2.175
-0.367159 0.823553 2.1749
-0.624977 0.254618 -2.04328
-0.49125 0.181567 -2.11235
-0.673866 0.174884 -1.93552
-0.78198 0.363592 2.06446
-0.58125 0.300346 2.02393
-0.790274 0.250976 1.87601
-0.711351 0.672324 -1.91682
-0.535 0.784582 -1.92649
-0.749381 0.786814 -1.72125
-0.717027 0.89514 2.04881
-0.52875 1.03072 2.09197
-0.73104 0.999281 1.88125
0.49125 0.181565 -2.11325
0.626492 0.254517 -2.04333
0.673866 0.174884 -1.93665
0.58125 0.299086 2.02529
0.782339 0.363605 2.06493
0.790124 0.251126 1.87608
0.545 0.783619 -1.91863
0.721229 0.671622 -1.90935
0.758491 0.785576 -1.71167
0.52875 1.03054 2.09172
0.717422 0.895236 2.04922
0.73147 0.999365 1.88167
-0.723183 0.178067 -0.896011
-0.749491 0.169259 -0.549509
-0.815618 0.238603 -0.70429
-0.554232 0.171993 -0.722854
-0.816899 0.171851 0.836501
-0.817599 0.153651 0.489999
-0.83207 0.25491 0.672219
-0.608465 0.190041 0.663211
-0.805716 0.906097 -0.73875
-0.843726 0.835731 -0.59347
-0.804472 0.925835 -0.41125
-0.685892 1.15989 -0.574167
-0.786971 0.992264 0.89875
-0.83852 0.897203 0.726031
-0.795778 0.980088 0.57125
-0.664543 1.24202 0.735417
0.72626 0.17499 -0.896816
0.550525 0.174043 -0.723416
0.745546 0.173204 -0.550204
0.849753 0.223575 -0.704113
0.821763 0.166987 0.836246
0.59256 0.194197 0.662979
0.802629 0.168621 0.489634
0.828889 0.267524 0.672364
0.810977 0.903737 -0.731667
0.691396 1.15906 -0.569167
0.845637 0.833393 -0.587731
[...]
POINT_DATA 3682
SCALARS point_scalars float 1
LOOKUP_TABLE default
-50.1752
-45.4676
-33.6881
-41.4659
-48.0896
-45.9134
-36.1183
-41.3514
-42.9745
-32.3914
-62.7783
-51.1718
-41.4856
-34.9627
-62.2417
-51.2493
-55.811
-96.1769
-56.1033
-41.3905
-52.9086
-41.6122
-37.0819
-55.811
-95.0875
-60.4867
-32.3302
-47.0343
-39.1395
-36.0822
32.7879
-70.631
-52.5352
-45.5085
-45.6398
-38.8608
-35.8103
-30.0781
-47.6955
-88.6302
-63.5701
-42.9432
-40.3118
-39.1613
94.4939
-151.912
-48.407
-35.7188
-42.8987
-35.1009
-34.0389
94.4939
-35.5223
-33.1714
160.793
-36.7417
-36.5598
-5.56224
-27.599
-87.4223
-64.1438
-40.0163
-38.0204
-37.269
86.5416
-152.444
-52.1812
-35.2957
-44.3602
-34.8695
-33.1495
86.5416
-35.4519
-33.0092
123.043
-36.6643
-36.458
-4.49928
-27.0783
-88.6263
-64.4492
-39.4679
-37.9571
-37.2764
-57.3336
-94.9099
-57.8528
-32.1504
-51.6888
-41.6235
-36.8984
-57.3336
-94.9099
-59.5128
-30.1734
-46.6453
-38.8099
-35.9375
25.1889
-70.4978
-52.5368
-45.8173
-45.6227
-38.8412
-35.7153
-28.6095
-51.4005
-86.634
-63.5293
-42.8688
-40.1903
-39.0494
22.4707
-152.475
-62.5998
-39.4959
-31.3223
-38.1856
-24.9193
-52.4693
-39.217
-51.6227
17.0684
-62.5418
-39.4109
-38.2381
-53.5701
-51.608
-37.3377
-43.3074
-44.4177
-36.1128
-40.8969
-54.6593
-8.1984
-74.0959
-35.0937
-43.4409
-36.3207
-54.3752
-69.6911
-69.2189
-71.3136
2.01647
200.51
-39.7628
-40.2248
-39.2776
-90.3951
-47.7639
-47.6185
-35.4629
-47.8158
-30.7531
65.4151
-183.795
-91.9766
-40.3475
-37.9966
-47.7893
-1.37809
-19.0275
-48.3685
-39.4637
-38.2822
-46.6898
-159.665
63.3154
-92.0863
-38.1991
-40.314
-44.0278
-23.9101
-5.39007
-50.0795
-38.351
-39.4646
-46.6048
-46.2266
-37.1514
-41.7379
-43.6462
-43.6814
-34.7547
-30.9483
-42.4388
-53.0783
-49.5372
-57.9583
-15.1419
-50.8428
-43.145
-53.0457
-67.9487
-46.1287
-43.25
-37.5407
-41.5755
-47.3583
-41.6703
-36.4745
-30.6612
-53.7666
-15.5421
-49.5767
-58.1993
-50.9278
-67.998
-43.306
-52.3652
-92.704
198.246
-102.474
184.824
-70.446
-69.0094
-50.7623
-35.5062
-34.6399
-25.0983
-45.5658
-35.6871
-22.0789
211.828
-68.7953
-6.51409
-41.6475
-32.9188
-50.081
-48.7459
-92.8255
197.842
-70.1522
-69.1288
-50.5106
-35.3292
-45.2812
-35.6206
-68.2276
-6.10977
-50.0402
-48.7007
-36.993
-38.7332
-57.3532
-40.8412
-53.4545
-40.1729
-38.7678
-43.5578
-39.9121
-38.9129
-44.6844
-83.809
24.1266
-77.9929
-83.7378
-60.9111
-37.0413
-38.511
-56.8635
-41.4605
-39.1584
-43.5482
-44.8628
-82.8579
-92.3921
-56.9061
-55.711
-76.829
-91.8413
-76.8613
-55.1749
-56.4126
-99.1507
-99.7315
-51.7737
-51.549
-26.0369
14.6852
14.6206
-25.5667
177.601
159.844
154.384
181.834
-37.5964
-35.1826
-44.4499
-47.4094
-38.5976
-47.7026
-44.455
-35.9559
-38.9709
-39.0665
-39.7771
-39.7192
-74.7484
-73.7174
-73.513
-77.1723
-43.9561
-50.9815
-49.4206
-45.853
-43.7012
-45.7333
-49.3635
-50.5056
-41.4594
-42.0035
-35.3768
-35.3004
-60.9852
-42.4213
-42.4
-60.9245
-33.1945
-33.051
-35.5538
-35.6721
79.6925
-156.522
-137.183
-41.6603
-43.205
-42.9619
6.96659
-31.0057
-56.8521
-40.6441
-38.4178
-44.0274
-160.105
79.8896
-137.512
-43.233
-41.6495
-42.4243
-32.5814
2.18693
-58.5502
-38.3486
-40.521
-43.9632
-43.3453
-37.4711
-41.9778
-42.381
-46.3893
-35.1376
-30.0466
-41.7692
-62.4683
-55.5264
-60.2503
-72.9059
-51.6935
-47.1674
-51.8599
-57.7558
-45.2502
-42.2925
-38.8855
-40.2771
-39.3826
-40.2571
-35.6013
-30.3737
-62.6973
-77.3551
-55.3544
-60.1429
-51.6217
-58.0569
-47.2998
-51.7257
48.0609
-4.12317
-72.4361
135.312
-169.71
-160.535
-137.245
183.874
-75.3835
-53.4411
-69.0872
-65.8639
-39.8624
-39.3078
-45.8891
-36.1675
-32.4717
-32.6624
-33.0611
-27.7873
-39.1153
-38.8675
-43.8766
-36.1705
-22.5057
-24.953
-42.5145
-25.7837
-49.9767
-49.1993
-64.9688
-19.0961
-38.9359
-38.9304
-40.5005
-35.0985
-49.7711
-51.1512
-50.5791
-51.514
45.8459
-9.86274
-75.2039
132.794
-75.2252
-53.0765
-68.887
-65.8875
-40.0757
-39.2369
-45.861
-36.095
-39.2285
-38.9754
-43.075
-35.9176
-50.7898
-49.7299
-64.5941
-18.7758
-49.6952
-51.6194
-50.5671
-51.3443
-33.358
-35.6558
-36.769
-38.2789
-42.1794
-45.4008
-49.2471
-41.5498
-44.1187
-44.2064
-47.9364
-41.7531
-33.2636
-39.7269
-37.5922
-38.1622
-41.6342
-41.0668
-40.6253
-40.6501
-56.2452
-53.4971
-50.2198
-68.0271
-8.29651
-8.67416
13.2876
-45.3768
-73.2597
-73.2568
-79.1326
-68.431
-36.8159
-36.7353
-36.3946
-37.7267
-42.119
-45.5586
-48.7341
-42.069
-33.373
-39.8934
-37.791
-38.3979
-56.1895
-52.6539
-50.1835
-66.7768
-87.1244
-70.288
-68.8903
-60.8913
-86.1808
-69.8962
-68.334
-60.4641
-85.2513
-70.571
-70.6941
-61.0503
-8.82089
-0.425121
-0.580295
17.119
200.165
194.641
202.744
199.306
-38.0614
-40.2913
-39.1167
-42.345
-38.5103
-40.8395
-39.5522
-42.6584
-39.0972
-39.6466
-39.4176
-39.0906
-88.9503
-90.3666
-87.5467
-88.8315
-50.7271
-46.6937
-48.9561
-46.4789
-50.6505
-46.543
-48.9139
-46.0541
-34.9283
-35.409
-35.3478
-36.5867
-43.9854
-48.0678
-48.0484
-53.3435
-32.7321
-24.2215
-30.5556
-32.53
-95.3514
134.533
-132.654
195.065
-91.221
-94.6134
-46.297
-35.8168
-34.4665
-34.6727
-51.3288
-36.8871
-77.1318
61.6267
-41.3563
13.8741
-65.7398
-31.0547
-45.9013
-36.2127
-40.5959
-36.6035
-47.7611
-43.6581
-132.724
176.253
-97.9067
132.114
-91.1323
-94.7864
-34.1567
-34.5945
-46.204
-35.7136
-50.5251
-36.0601
-41.7186
10.8243
-84.2582
59.7771
-66.8783
-31.3825
-40.5671
-36.4961
-45.8768
-36.1344
-47.6857
-43.6065
-53.9841
-49.499
-38.001
-38.1504
-53.2906
-38.313
-46.1551
-40.5391
-44.4118
-42.3762
-34.3247
-38.74
-33.6137
-34.2643
-40.4213
-42.3167
-56.7754
-2.93517
-51.0495
-48.4271
-52.4456
-81.3695
6.81378
-43.2697
-48.8619
-60.2913
-43.4615
-43.8004
-48.5899
-62.3667
-70.8278
-67.0643
-53.7295
-49.7261
-47.4257
-40.7552
-38.3856
-38.2187
-51.8789
-39.369
-43.9753
-43.5368
-39.1773
-42.3961
-35.985
-39.2718
-33.8812
-34.2093
-56.4297
-3.53141
5.98659
-43.3149
-50.8614
-48.6638
-52.6565
-80.4019
-48.6236
-60.4472
-70.6692
-67.1961
-43.5086
-44.0295
-48.3518
-62.0524
-94.2304
-88.4147
189.285
199.76
-101.71
-101.816
187.278
185.215
-90.594
-59.8783
-81.9817
-59.088
-50.9647
-50.4009
-34.2474
-35.0854
-34.7934
-34.6662
-27.0981
-27.5716
-44.8105
-47.7181
-37.936
-35.717
-22.4084
-22.5491
203.299
203.132
-60.9858
-80.423
-15.7455
5.79045
-41.9246
-41.9114
-33.8767
-33.9927
-51.0989
-47.9807
-54.4004
-44.8726
-93.6422
-88.1345
193.595
190.313
-90.0295
-59.5985
-82.2731
-59.1168
-50.2914
-50.6455
-34.096
-34.9136
-44.6741
-47.5341
-37.9832
-35.2204
-79.3739
-60.9161
6.48601
-15.2095
-47.9783
-50.8885
-44.8399
-54.3323
-37.1429
-36.3208
-38.922
-38.941
-57.5866
-56.9552
-38.8874
-43.7082
-53.2537
-53.086
-39.8118
-39.9231
-36.5807
-41.6167
-43.8496
-43.5518
-39.7644
-39.8834
-39.1514
-39.3554
-45.5931
-46.2306
-88.6345
-78.456
22.2417
22.0267
-76.2607
-76.5656
-81.8791
-81.8524
-60.7205
-60.6985
-38.2842
-37.338
-38.9433
-39.2033
-56.1171
-56.9429
-39.6741
-44.1849
-41.7862
-37.0941
-43.6505
-43.73
-46.5041
-45.6411
-78.079
-88.4234
-102.31
-92.2402
-88.9305
-86.5745
-57.5768
-50.7117
-60.7152
-57.924
-56.1131
-59.5349
-60.9271
-49.2157
-73.3386
-67.7546
-85.4582
-65.8541
-103.589
-89.2086
-88.1948
-91.821
-77.9349
-66.0928
-84.3911
-70.4809
-55.8108
-48.8857
-60.7008
-59.0223
-57.6774
-57.7481
-60.3491
-49.8717
-129.422
-136.54
-84.3033
-78.2295
-128.267
-78.3508
-84.4257
-136.207
-46.0737
-47.6545
-60.7075
-56
-44.6539
-56.2211
-60.6183
-47.3407
-46.6407
-23.4959
-10.9338
-41.0856
-36.0133
12.7638
13.8565
-8.96072
-42.0706
-8.40279
14.3456
12.4239
-48.1315
-40.8128
-10.4314
-22.6806
129.162
118.53
193.857
187.616
40.4438
-1.98601
201.45
120.562
38.2654
117.915
201.047
-1.95727
131.732
176.302
192.829
117.561
-38.1647
-36.2182
-38.459
-39.6597
-32.8115
-35.2446
-37.5942
-35.9003
-47.5702
-50.7718
-41.7894
-40.396
-53.8169
-44.3922
-42.9829
-51.0202
-39.0132
-40.3245
-39.1812
-38.4357
-54.1857
-51.1229
-43.4
-44.7729
-47.4579
-40.5262
-42.0518
-50.4121
-32.9231
-36.2701
-38.1791
-35.4037
-39.5855
-41.4555
-39.5734
-38.1548
-39.5842
-37.9505
-39.4461
-41.6045
-40.3995
-40.5697
-39.2557
-38.2904
-39.8104
-38.2142
-39.3805
-40.8189
-89.8773
-73.7916
-87.9644
-42.9802
-58.676
-77.7635
-86.2402
-64.1629
-59.0741
-61.8364
-86.0724
-77.6921
-89.0363
-42.9058
-87.986
-73.4074
-34.2348
-42.8204
-45.6872
-36.0414
-46.3907
-46.0539
-49.0299
-45.9027
-45.4969
-50.1327
-51.535
-45.9215
-47.9827
-40.5398
-47.0745
-49.3335
-32.3285
-36.1427
-45.5163
-43.1649
-48.1676
-49.4859
-46.7046
-40.7438
-45.4446
-45.8923
-51.3322
-50.0493
-46.4172
-45.9656
-48.7272
-45.9991
-42.4914
-41.1478
-36.7104
-38.0246
-42.5392
-38.1233
-36.6614
-40.9681
-34.6333
-33.944
-34.8322
-36.007
-35.4444
-36.3103
-34.831
-33.9557
-56.1583
-57.3621
-53.6215
-67.793
-41.2263
-40.5326
-44.1768
-46.8983
-41.1793
-46.8017
-44.1649
-40.5183
-56.4343
-67.8959
-53.5973
-57.2366
-39.4075
-26.499
-28.925
-35.6372
-38.8206
-35.5372
-28.7747
-27.7111
-36.6259
-35.5458
-32.1836
-35.8396
-36.699
-35.9222
-32.3757
-35.6745
-2.8942
-47.136
-154.385
-44.7486
-43.347
-43.6201
-5.96484
-45.7455
-65.0488
-41.2337
-39.4229
-42.6543
-45.7995
-3.04761
-152.525
-45.3155
-44.9002
-44.8704
-44.5305
-12.1978
-66.985
-39.3086
-41.1178
-42.5715
-43.7815
-39.5808
-43.5229
-41.8462
-44.5254
-34.3712
-29.4716
-40.6802
-64.5543
-58.6848
-61.1261
-81.8761
-51.7546
-49.0701
-51.4462
-53.7936
-44.0171
-41.6351
-40.1847
-38.8317
-35.6837
-39.603
-34.5616
-31.2202
-63.4075
-80.0231
-58.5326
-60.9778
-51.5267
-53.8161
-49.0195
-51.4937
35.7962
8.15301
-54.0608
98.5666
-148.416
-182.606
-189.272
76.8718
-68.4877
-57.4463
-67.718
-64.0382
-39.5363
-39.5065
-44.3567
-36.6419
-31.3357
-31.6348
-32.171
-29.9474
-37.6181
-38.0989
-41.8725
-36.7717
-23.9258
-24.3026
-41.9798
-21.3626
-51.1603
-50.8631
-60.3928
-32.444
-39.1396
-39.1809
-39.8094
-37.6632
-50.5811
-51.4404
-50.7728
-53.801
31.4247
1.17835
-55.953
96.0977
-68.4213
-57.3721
-67.5874
-63.9925
-39.6491
-39.3891
-44.3499
-36.562
-38.4227
-38.0455
-41.2978
-36.3248
-54.001
-51.4973
-60.574
-32.3116
-50.5368
-51.6166
-50.7684
-53.4723
-32.8076
-36.4702
-36.996
-38.4717
-42.5276
-44.1265
-45.0656
-42.2795
-44.3027
-44.3803
-45.9357
-43.0506
-34.6397
-37.8774
-37.0351
-36.5468
-40.9595
-40.8948
-40.3581
-40.8759
-55.1762
-54.1095
-52.6803
-60.6409
-7.5597
-8.19707
3.36155
-27.0917
-73.9338
-73.8933
-76.7294
-71.3195
-36.4479
-34.5018
-35.5132
-36.9882
-42.6342
-44.2771
-44.8744
-42.622
-34.8412
-37.9987
-37.1669
-36.6564
-55.0611
-53.6483
-52.4317
-60.1518
-76.7617
-70.0755
-69.278
-64.6257
-76.1363
-69.6351
-68.7594
-64.2329
-77.6759
-71.168
-71.2489
-65.8043
-3.50555
1.12172
1.42336
9.70572
200.155
198.041
202.413
201.679
-38.8342
-40.0121
-39.5305
-40.9469
-39.2968
-40.5003
-39.9809
-41.3352
-39.2249
-39.395
-39.3036
-39.2303
-90.0224
-91.228
-89.0819
-89.9152
-48.9282
-47.2461
-48.3434
-46.9883
-48.7675
-46.9961
-48.2721
-46.8826
-35.1384
-35.4233
-35.4333
-35.8801
-45.7469
-47.8757
-47.8637
-50.0855
-31.3537
-26.8322
-30.2611
-31.2363
74.4632
56.9391
-29.685
94.7864
-178.336
-183.402
-180.315
93.7463
-107.599
-83.42
-89.8098
-92.5405
-40.7438
-40.1765
-44.5242
-36.7455
-39.2695
-35.611
-34.808
-36.4612
-45.6178
-42.9416
-52.3992
-39.2659
7.9225
-11.0494
-61.4447
36.8245
-28.4431
-16.151
-44.2725
-17.1457
-50.5093
-49.9084
-58.8634
-36.0314
-40.1313
-39.1071
-43.7728
-36.7473
-38.1296
-38.5957
-39.4992
-37.232
-45.0628
-47.9176
-47.0083
-45.0054
-187.501
-151.903
-181.112
75.9922
73.1702
54.5171
-30.8171
94.8376
-107.94
-83.274
-90.4796
-92.526
-39.384
-35.6376
-35.4552
-36.2121
-40.7359
-40.1526
-44.5836
-36.5979
-45.9635
-40.2423
-51.0186
-37.474
-30.4162
-25.0826
-43.6678
-15.7877
4.45338
-16.8776
-61.004
32.5364
-49.8125
-49.5614
-60.6575
-36.8316
-38.1018
-38.6418
-39.4797
-37.1823
-40.02
-39.1835
-43.7929
-36.6492
-45.0023
-47.8408
-46.932
-44.9325
-44.8509
-49.4173
-48.32
-48.0209
-31.7359
-39.3311
-37.5731
-38.2163
-41.5843
-42.0093
-46.401
-39.4425
-43.5692
-43.766
-44.9757
-41.9301
-45.161
-39.9749
-44.4604
-43.6984
-34.7685
-35.1058
-33.6757
-37.9101
-30.5725
-32.0181
-32.0097
-32.0393
-41.6812
-42.8782
-40.8752
-42.293
-63.5178
-49.3333
-57.2575
-28.5804
-52.3259
-47.2473
-49.6805
-49.0403
-59.0838
-57.0663
-55.1571
-66.0963
-26.7508
-11.2451
-2.35431
-28.8167
-50.9593
-50.9664
-50.3959
-54.1812
-45.1092
-41.5531
-43.2495
-43.2235
-52.3678
-53.3708
-50.7789
-57.847
-63.5463
-71.776
-69.9534
-68.7945
-45.2438
-49.2143
-48.3014
-47.8583
-43.1391
-43.6039
-46.0528
-41.6092
-37.4901
-37.2881
-37.746
-37.769
-41.3774
-41.8922
-45.3042
-40.063
-52.8432
-39.3683
-45.0808
-44.5778
-40.8827
-41.3137
-40.6456
-41.2673
-36.3574
-36.2462
-35.9404
-38.3134
-30.2306
-31.9886
-32.1326
-31.4431
-64.8756
-51.9619
-57.5636
-30.8618
-28.0372
-11.6715
-2.8998
-29.6321
-52.2555
-47.3599
-49.6549
-49.1385
-59.2336
-57.086
-55.2354
-66.8399
-50.954
-51.2336
-50.0518
-54.883
-63.4389
-71.7907
-69.8421
-68.9443
-45.2707
-41.753
-43.3266
-43.405
-52.0011
-52.6486
-50.3738
-56.8717
-73.7481
-99.8129
-95.0179
-91.7794
172.546
199.717
194.631
198.921
-115.18
-93.2311
-102.261
-102.269
186.301
189.629
186.338
187.28
-70.1528
-70.4018
-78.4195
-64.3639
-67.5383
-69.7192
-74.9715
-63.7906
-48.6588
-51.7175
-50.9155
-50.7867
-36.1393
-34.2307
-34.8687
-35.2269
-33.975
-34.9281
-34.7126
-34.7363
-25.8992
-24.3983
-27.02
-25.2198
-44.9864
-46.1871
-45.0137
-46.3876
-35.7888
-35.5459
-36.7133
-35.5248
-35.9554
-13.6839
-21.6915
-21.6762
112.415
203.16
204.877
201.992
-67.6872
-68.4569
-63.9305
-74.7869
-11.2093
-3.28369
-10.97
1.07176
-41.1187
-42.5194
-41.7415
-41.7334
-34.027
-31.6127
-33.1056
-33.1996
-50.7036
-49.4732
-50.8598
-48.9579
-49.6442
-48.378
-51.456
-46.4583
-75.2329
-98.6867
-94.9482
-91.6784
172.145
197.998
198.497
195.08
-69.8879
-70.0974
-78.054
-64.092
-67.6468
-69.8237
-75.1674
-63.859
-48.5595
-51.4995
-50.572
-50.6652
-36.0231
-34.1719
-34.6928
-35.052
-44.6165
-45.979
-44.7847
-46.2142
-35.6682
-35.3981
-36.6469
-35.352
-67.0701
-67.8034
-73.8016
-63.4587
-11.1388
-3.37302
1.5038
-10.6949
-50.6855
-49.4174
-48.8963
-50.6674
-49.5761
-48.3532
-46.4181
-51.4128
-36.6628
-37.5489
-37.0128
-36.7029
-38.5338
-38.9709
-38.7516
-38.8079
-54.5277
-58.415
-57.79
-57.1853
-41.1579
-40.5327
-39.77
-42.0968
-50.4739
-56.9514
-53.3814
-53.2939
-40.6402
-39.9965
-40.1326
-40.153
-38.2225
-38.6997
-37.5667
-40.309
-40.1226
-45.7259
-43.7961
-43.1842
-40.3945
-39.628
-39.8671
-39.9216
-40.5455
-37.3466
-38.9797
-39.0497
-46.9472
-43.7668
-45.3128
-45.4771
-78.2081
-87.2607
-85.1044
-80.5256
20.2994
21.9931
23.5061
23.4393
-62.332
-86.0191
-77.0183
-77.204
-81.4712
-85.7618
-83.3316
-83.3467
-64.4626
-57.0343
-61.0577
-61.0633
-36.4096
-37.8873
-37.6495
-37.039
-38.2311
-38.805
-38.8926
-38.537
-53.8994
-58.1283
-56.5231
-57.0994
-41.7428
-41.1567
-40.4729
-42.6438
-38.4701
-39.1948
-40.5097
-37.9968
-40.2342
-45.345
-43.6352
-43.3706
-47.0837
-44.0167
-45.6825
-45.4763
-77.0097
-86.9276
-79.9848
-84.1863
-95.8008
-90.5286
-94.069
-101.807
-56.273
-56.2916
-57.3447
-57.2004
-55.8985
-53.2912
-59.0638
-56.3462
-68.2809
-71.7824
-81.448
-82.2057
-96.012
-90.4803
-93.3112
-100.895
-70.8793
-71.7349
-81.7165
-81.487
-55.5902
-53.0603
-58.6357
-55.4797
-55.8384
-55.7298
-57.0108
-56.7008
-113.031
-96.9048
-100.658
-89.7639
-113.562
-97.4534
-100.986
-90.184
-50.6315
-49.2128
-54.8609
-52.7567
-50.4915
-48.7938
-54.953
-52.576
-32.068
-28.4628
-22.9634
-21.1095
8.16866
13.1198
11.6513
19.7058
8.00642
12.6332
11.7452
19.5651
-32.2366
-28.2079
-22.8052
-20.4962
163.04
181.413
178.193
182.167
87.1804
95.4715
176.63
202.165
96.1849
83.3297
203.062
172.24
180.02
161.782
182.368
185.432
-37.3435
-37.732
-37.4399
-38.2581
-34.5811
-34.6649
-35.8666
-36.0239
-43.9246
-46.2405
-43.0001
-45.3506
-47.933
-49.6908
-45.464
-46.8095
-38.3568
-38.8682
-38.5185
-39.1128
-48.2549
-49.942
-45.8504
-47.1142
-43.953
-46.1604
-43.0876
-45.3408
-35.5813
-35.1104
-37.2654
-36.6447
-38.7481
-39.3453
-39.2504
-39.42
-39.6943
-38.738
-39.5575
-38.9943
-39.413
-40.1749
-39.4226
-40.6827
-40.1934
-39.8621
-39.2525
-39.7234
-84.181
-59.0486
-80.8026
-74.1714
-67.7798
-71.8953
-75.8696
-79.1849
-71.7076
-67.5918
-79.1578
-75.6561
-59.7797
-88.8586
-74.3163
-81.4555
-44.3286
-39.2134
-44.9526
-43.8827
-48.8093
-51.0505
-51.0268
-50.1706
-48.0754
-48.6621
-49.9921
-50.7499
-47.4165
-44.4856
-46.9083
-44.5712
-43.8119
-39.3287
-44.8039
-43.6491
-47.7969
-44.6197
-46.8114
-44.6258
-48.0328
-48.5765
-49.9469
-50.6341
-48.2485
-50.3891
-50.5905
-50.3411
-42.6186
-43.3313
-39.6157
-39.5695
-43.0536
-43.7733
-39.8139
-40.2701
-34.7483
-35.6244
-34.8959
-34.9929
-35.3683
-35.7037
-34.4778
-35.0392
-62.0538
-64.3684
-57.695
-60.815
-41.5685
-42.8922
-42.1267
-43.5447
-41.5425
-42.8516
-42.1212
-43.5169
-62.0229
-64.4795
-57.6578
-60.7771
-35.124
-33.2817
-33.6782
-29.6629
-33.2146
-35.0571
-29.5211
-33.5331
-36.0519
-35.9984
-34.9047
-35.0794
-36.0306
-36.1583
-35.2298
-35.016
-31.9434
103.929
-167.41
80.3007
-118.232
-129.56
-44.8117
-38.9991
-38.9201
-39.1379
-46.5368
-38.5409
-76.6302
27.5817
-45.2849
-10.4027
-67.6046
-50.4109
-44.3774
-37.3591
-39.802
-37.2679
-44.827
-42.2677
-164.605
86.5745
-33.1522
104.333
-118.02
-129.695
-38.4222
-38.8619
-45.0232
-38.8394
-46.6955
-37.9696
-44.8667
-12.7548
-78.9328
24.0077
-70.1634
-52.4693
-39.7515
-37.1941
-44.2713
-37.2633
-44.7563
-42.2096
-43.246
-44.5823
-37.5834
-38.7242
-50.104
-38.3836
-42.5513
-41.0428
-39.9954
-42.9372
-31.5324
-40.1426
-30.9161
-32.1111
-40.199
-43.6079
-58.8869
-67.4294
-56.0811
-54.6528
-56.5276
-70.7126
-51.1375
-88.2055
-50.1103
-52.9045
-47.4893
-47.4162
-50.0811
-54.8798
-57.9722
-57.1279
-46.1903
-46.0161
-43.2891
-40.9113
-38.3523
-39.0979
-46.1422
-39.8477
-36.1373
-40.5357
-40.4583
-41.845
-32.9909
-39.2254
-30.7371
-28.6646
-59.0523
-69.5546
-56.7962
-90.1892
-55.7996
-54.6342
-56.7177
-70.5299
-50.1142
-52.7764
-58.3783
-57.3689
-47.455
-47.5387
-49.8777
-55.173
-53.5865
93.3951
-50.7118
77.3476
-78.1654
-69.4132
131.802
132.571
-188.043
98.847
-187.74
99.8298
-137.054
-136.795
170.334
198.149
-89.8565
-76.2183
-56.4417
-54.6419
-77.6793
-62.8175
-71.553
-60.7449
-44.5033
-36.0809
-43.7289
-36.4668
-45.824
-45.9338
-35.7106
-36.0807
-33.157
-28.2694
-33.1878
-28.7263
-33.3342
-33.3243
-27.0607
-27.7766
-43.8327
-37.3955
-41.0445
-38.3948
-42.9462
-44.8969
-36.5568
-35.9539
-47.0223
-16.3423
-46.1809
-16.3494
-41.5021
-41.5799
-3.42016
-2.89683
-60.3724
-31.261
-56.4633
-23.9462
-62.079
-65.3559
-21.9653
-16.6102
-39.6958
-37.5331
-39.69
-37.4993
-40.5253
-40.5214
-35.3631
-35.4289
-49.6987
-49.2905
-50.4137
-54.6907
-50.6471
-50.2222
-54.6482
-49.1401
-53.1933
89.2286
-54.1308
74.1483
-80.8682
-71.1733
130.201
130.4
-89.4997
-76.1896
-56.3101
-54.312
-77.4492
-62.6284
-71.6545
-60.6685
-44.5281
-35.974
-43.7391
-36.3623
-45.9086
-45.7831
-35.5876
-35.9867
-43.3912
-36.811
-41.3351
-38.3169
-42.8485
-44.611
-36.5792
-35.9132
-60.6185
-30.0071
-56.8355
-24.7521
-66.2644
-61.3668
-15.844
-21.4913
-49.6361
-49.144
-50.6836
-55.5354
-50.2946
-50.574
-49.0189
-54.3638
-33.1895
-37.1588
-35.7663
-38.2571
-36.9879
-36.5554
-38.0483
-38.9879
-45.2947
-40.564
-46.4508
-44.947
-49.771
-49.0383
-40.4837
-42.7876
-45.6287
-42.6645
-45.8142
-42.8133
-47.9601
-47.8484
-41.6631
-41.7286
-34.0158
-34.1664
-40.0375
-39.8222
-36.2823
-38.9774
-37.0173
-39.3366
-40.764
-41.09
-40.5084
-41.0174
-40.6056
-40.7336
-40.799
-40.7324
-53.6916
-63.0539
-51.9288
-58.3479
-50.8457
-50.1791
-70.4046
-65.8927
2.90732
-25.1221
2.8635
-25.3489
13.395
13.2959
-44.4756
-44.7052
-75.5349
-70.893
-75.4629
-70.9333
-78.8051
-78.8195
-68.0642
-67.9883
-37.1426
-37.4085
-36.3437
-37.7088
-39.4539
-34.6005
-37.7421
-37.9187
-44.7775
-40.9808
-46.4237
-45.2387
-48.6142
-49.1959
-41.0802
-43.2301
-34.0963
-34.2292
-40.1455
-40.0568
-39.1438
-36.5487
-37.2103
-39.4934
-53.8134
-63.117
-51.4106
-56.4686
-50.1272
-50.5708
-64.1368
-70.0536
-88.1594
-86.3511
-77.8521
-64.8605
-64.1126
-75.6012
-60.8801
-60.9573
-87.2677
-85.2924
-77.4172
-64.5235
-74.8549
-63.6899
-60.5862
-60.4948
-84.8631
-84.9474
-76.9613
-64.9978
-77.0901
-65.0976
-60.9863
-60.9192
-9.30976
-9.16342
-5.53727
6.73066
7.20215
-5.31473
15.9117
16.0507
197.218
201.449
193.89
195.688
203.122
202.879
201.28