# vtk DataFile Version 2.0
tri_press
ASCII
DATASET UNSTRUCTURED_GRID
POINTS 3682 float
-0.732875 0.465 -2.195
-0.705924 0.475 2.235
-0.717514 0.665 -2.165
-0.723735 0.755 2.255
0.732875 0.465 -2.195
0.705921 0.475 2.235
0.717515 0.665 -2.165
0.723735 0.755 2.255
-0.817495 0.37473 -0.718333
-0.819383 0.367191 0.758333
-0.809604 0.785017 -0.691667
-0.818173 0.821512 0.781667
0.817491 0.374732 -0.718333
0.819406 0.367166 0.758333
0.809604 0.785015 -0.691667
0.818165 0.821503 0.781667
-1.53317 0.260007 -3.38811
-1.53716 0.267092 -2.20811
-1.59877 0.199995 -0.731354
-1.60615 0.180969 0.74607
-1.53574 0.247707 2.22288
-1.51325 0.280476 3.40315
-1.51677 0.292861 4.58292
-1.52667 0.419313 -3.3743
-1.52836 0.449419 -2.19467
-1.60852 0.3968 -0.718565
-1.60616 0.374943 0.75784
-1.50253 0.428662 2.23401
-1.4897 0.458903 3.41424
-1.50369 0.472057 4.59411
-1.51991 0.69321 -3.34576
-1.51743 0.722257 -2.16599
-1.60171 0.789562 -0.69216
-1.60533 0.799872 0.781436
-1.5116 0.764683 2.25533
-1.49405 0.79288 3.4357
-1.50421 0.819478 4.61611
-1.5351 1.20488 -3.30546
-1.5408 1.24977 -2.12619
-1.57264 1.33277 -0.653438
-1.5921 1.37767 0.818595
-1.57654 1.36916 2.29138
-1.55642 1.36525 3.47073
-1.54411 1.37533 4.65077
-0.759693 0.26762 -3.38832
-0.743979 0.277651 -2.20842
-0.797824 0.188597 -0.731312
-0.818747 0.175933 0.746491
-0.76845 0.273357 2.22362
-0.74857 0.298458 3.40365
-0.750053 0.302319 4.58321
-0.759464 0.420608 -3.37437
-0.724335 0.476678 3.41465
-0.738047 0.480518 4.59433
-0.754075 0.670956 -3.34535
-0.728069 0.793744 3.43563
-0.737729 0.821464 4.61609
-0.755576 1.19013 -3.30505
-0.753195 1.23605 -2.12574
-0.777998 1.33138 -0.653168
-0.803081 1.38342 0.818562
-0.799653 1.37011 2.29115
-0.783021 1.36379 3.47049
-0.770649 1.37418 4.6506
0.756636 0.267619 -3.38832
0.776852 0.277651 -2.20842
0.815921 0.188595 -0.731312
0.792907 0.175916 0.746492
0.721495 0.27335 2.22362
0.745442 0.298453 3.40365
0.766644 0.302313 4.58321
0.736763 0.420607 -3.37437
0.748556 0.476674 3.41465
0.770672 0.480512 4.59433
0.73269 0.670956 -3.34535
0.755055 0.793741 3.43563
0.774304 0.821459 4.61609
0.787086 1.19012 -3.30505
0.801855 1.23605 -2.12574
0.807365 1.33138 -0.653168
0.785425 1.38341 0.818562
0.760178 1.3701 2.29115
0.762191 1.36379 3.47049
0.77268 1.37417 4.6506
1.52647 0.260005 -3.3881
1.54865 0.26709 -2.20811
1.60556 0.199988 -0.731354
1.59352 0.180944 0.74607
1.5158 0.247689 2.22288
1.51441 0.280463 3.40315
1.53315 0.292848 4.58292
1.50573 0.419311 -3.3743
1.52056 0.449418 -2.19467
1.60546 0.396796 -0.718565
1.60842 0.374916 0.75784
1.51011 0.428647 2.23401
1.51148 0.458891 3.41424
1.53383 0.472045 4.59411
1.50058 0.693208 -3.34576
1.51056 0.722255 -2.16599
1.59957 0.789558 -0.69216
1.60888 0.799855 0.781435
1.52103 0.764672 2.25533
1.51903 0.792871 3.4357
1.53837 0.819467 4.61611
1.56015 1.20487 -3.30546
1.57788 1.24977 -2.12619
1.59544 1.33277 -0.653439
1.58072 1.37766 0.818594
1.54944 1.36915 2.29138
1.54267 1.36524 3.47073
1.54886 1.37532 4.65077
-0.660045 0.565 -2.11485
0 0.472679 -2.18732
-0.832239 0.362811 -1.45667
-0.683656 0.615 2.21383
-1.49012e-06 0.453921 2.25608
-0.819036 0.364713 1.49667
5.06639e-07 0.702606 -2.20261
-0.805724 0.767174 -1.42833
0 0.727752 2.22775
-0.810215 0.827517 1.51833
0.664486 0.565 -2.11929
0.832195 0.362855 -1.45667
0.674797 0.615 2.20497
0.819034 0.364713 1.49667
0.805792 0.76724 -1.42833
0.810214 0.827516 1.51833
-0.810499 0.3789 0.02
-0.874989 0.579873 -0.705
-1.55564e-06 0.192971 -0.718333
-0.878603 0.594351 0.77
1.1382e-05 0.251209 0.758333
-0.811264 0.800639 0.0450001
-3.73468e-07 0.892155 -0.691667
-4.07742e-06 1.25147 0.781667
0.810523 0.378875 0.02
0.874985 0.579874 -0.705
0.878713 0.594335 0.77
0.811268 0.800643 0.0450001
-0.87605 0.572437 -1.4425
0.875894 0.572437 -1.4425
-7.77822e-07 0.225893 -1.45667
6.65855e-08 0.828244 -1.42833
2.5332e-07 0.565 -2.20281
-0.874091 0.587112 0.0325
0.874098 0.587104 0.0325
4.91316e-06 0.201835 0.02
-2.22544e-06 1.25395 0.0450001
-0.872184 0.604676 1.5075
0.872183 0.604667 1.5075
4.94592e-06 0.28493 1.49667
-2.03871e-06 0.904431 1.51833
-7.45058e-07 0.615 2.20968
-0.713858 0.515 -2.17232
-0.366437 0.438644 -2.22136
-0.799479 0.396984 -1.82583
-0.660371 0.545 2.18999
-0.352963 0.45935 2.25065
-0.765516 0.41682 1.86583
-0.663856 0.615 -2.115
-0.358757 0.695907 -2.19591
-0.772286 0.726753 -1.79667
-0.703551 0.685 2.23427
-0.361867 0.720723 2.22072
-0.771605 0.795888 1.88667
0.366437 0.438774 -2.22123
0.712658 0.515 -2.17112
0.799475 0.396988 -1.82583
0.35296 0.459462 2.25054
0.656831 0.545 2.18646
0.765515 0.416819 1.86583
0.358758 0.695911 -2.19591
0.66418 0.615 -2.11533
0.772287 0.726754 -1.79667
0.361867 0.718779 2.21878
0.694128 0.685 2.22485
0.771603 0.795887 1.88667
-0.833247 0.36039 -1.0875
-0.812416 0.378396 -0.349167
-0.855518 0.472664 -0.711667
-0.453677 0.193993 -0.718333
-0.824794 0.360368 1.1275
-0.808225 0.379762 0.389167
-0.859874 0.475331 0.764167
-0.439341 0.24989 0.758333
-0.810966 0.779397 -1.06
-0.842437 0.682516 -0.698333
-0.812044 0.794438 -0.323333
-0.420522 0.870024 -0.691667
-0.830682 0.841002 1.15
-0.85057 0.709022 0.775834
-0.809339 0.805696 0.413333
-0.496745 1.21181 0.781667
0.833428 0.360209 -1.0875
0.453674 0.193993 -0.718333
0.812427 0.378384 -0.349167
0.855515 0.472665 -0.711667
0.825178 0.359982 1.1275
0.439358 0.24989 0.758333
0.808251 0.379735 0.389167
0.859894 0.475333 0.764167
0.81089 0.77932 -1.06
0.420456 0.869893 -0.691667
0.842425 0.68251 -0.698333
0.812053 0.794446 -0.323333
0.830682 0.841002 1.15
0.496738 1.2118 0.781667
0.850584 0.708991 0.775834
0.809316 0.805672 0.413333
-0.827636 0.568718 -1.77868
-0.330023 0.565 -2.17096
-3.88911e-07 0.25148 -1.82199
1.2666e-07 0.51884 -2.19532
-0.85837 0.467624 -1.44958
-0.41612 0.225933 -1.45667
-0.820736 0.609838 1.86066
-0.341828 0.615 2.21156
1.7279e-06 0.32145 1.87637
-1.11759e-06 0.534461 2.19907
-0.850455 0.484694 1.50208
-0.409516 0.283622 1.49667
2.86613e-07 0.801181 -1.81547
3.7998e-07 0.633803 -2.21399
-0.848875 0.669805 -1.43542
-0.402862 0.836026 -1.42833
-1.01935e-06 0.860759 1.87304
-3.72529e-07 0.671376 2.21886
-0.848421 0.716096 1.51292
-0.405109 0.89295 1.51833
0.827231 0.568718 -1.7809
0.332243 0.565 -2.17064
0.858344 0.467646 -1.44958
0.416097 0.225933 -1.45667
0.821394 0.609834 1.85623
0.337398 0.615 2.20883
0.85046 0.48469 1.50208
0.409519 0.283635 1.49667
0.84886 0.669839 -1.43542
0.402896 0.836018 -1.42833
0.848421 0.716091 1.51292
0.405106 0.893009 1.51833
-0.849902 0.479203 0.02625
-0.449693 0.201476 0.02
-0.875932 0.576155 -1.07375
-0.8751 0.583493 -0.33625
-1.16673e-06 0.193074 -1.0875
1.67876e-06 0.200121 -0.349167
-0.873156 0.590732 0.40125
-0.890515 0.599513 1.13875
8.14756e-06 0.205533 0.389167
8.16394e-06 0.27773 1.1275
-0.84301 0.694042 0.0387501
-0.503391 1.22281 0.0450001
-1.53441e-07 0.855899 -1.06
-1.29946e-06 1.19972 -0.323333
-3.15143e-06 1.26192 0.413333
-3.05806e-06 1.0909 1.15
0.8499 0.479195 0.02625
0.449707 0.201469 0.02
0.875931 0.576155 -1.07375
0.875099 0.583489 -0.33625
0.873168 0.590719 0.40125
0.89044 0.599501 1.13875
0.843015 0.69404 0.0387501
0.50339 1.22281 0.0450001
-0.824353 0.491312 -1.80225
-0.875327 0.472463 -1.08063
-0.84278 0.676125 -1.06688
-0.805724 0.642403 -1.78767
0.824181 0.491323 -1.80336
0.805512 0.642419 -1.78878
0.842818 0.676142 -1.06688
0.875326 0.472474 -1.08063
-0.391279 0.251896 -1.82391
0.391267 0.251896 -1.82391
0.412421 0.192991 -1.0875
-0.412434 0.196158 -1.0875
-0.380809 0.810544 -1.80607
-0.403832 0.861907 -1.06
0.403849 0.861902 -1.06
0.380827 0.810542 -1.80607
-0.34823 0.51692 -2.17138
-0.34439 0.624401 -2.16894
0.3455 0.624401 -2.16883
0.34934 0.51692 -2.17131
-0.85153 0.476523 -0.342708
-0.847842 0.48079 0.395208
-0.841747 0.699011 0.407292
-0.844377 0.689106 -0.329792
0.851529 0.476519 -0.342708
0.84438 0.689105 -0.329792
0.841755 0.698993 0.407292
0.84785 0.480787 0.395208
-0.450555 0.199994 -0.349167
0.450562 0.199987 -0.349167
0.455089 0.204567 0.389167
-0.455087 0.204542 0.389167
-0.502194 1.12689 -0.323333
-0.502385 1.22194 0.413333
0.502382 1.22194 0.413333
0.502191 1.12689 -0.323333
-0.865681 0.482733 1.13313
-0.807693 0.514847 1.86325
-0.797639 0.700548 1.87367
-0.876255 0.712014 1.14438
0.865661 0.48272 1.13313
0.876264 0.712005 1.14438
0.797956 0.700546 1.87145
0.808026 0.514845 1.86103
-0.409601 0.279035 1.1275
0.409614 0.27903 1.1275
0.38124 0.32232 1.8711
-0.381239 0.322319 1.8711
-0.407099 1.05096 1.15
-0.383488 0.845589 1.87985
0.383487 0.845589 1.87985
0.407093 1.05096 1.15
-0.347396 0.53973 2.19688
0.345179 0.53973 2.19385
0.349633 0.678188 2.21912
-0.351848 0.678188 2.21953
-0.731165 0.49 -2.19146
-0.549656 0.462352 -2.19765
-0.760006 0.437163 -2.01042
-0.704846 0.51 2.2342
-0.529443 0.4619 2.2481
-0.736396 0.445234 2.05042
-0.663522 0.64 -2.11284
-0.538135 0.679729 -2.17973
-0.752813 0.70379 -1.98083
-0.713802 0.72 2.24479
-0.542801 0.734343 2.23434
-0.750463 0.778237 2.07083
0.549656 0.462458 -2.19754
0.730138 0.49 -2.19043
0.76 0.437168 -2.01042
0.52944 0.462025 2.24798
0.704908 0.51 2.23426
0.736395 0.445233 2.05042
0.538136 0.679744 -2.17974
0.663548 0.64 -2.11286
0.752858 0.703834 -1.98083
0.542801 0.734127 2.23413
0.704214 0.72 2.23521
0.750435 0.778209 2.07083
-0.825885 0.367046 -0.902917
-0.813375 0.378143 -0.53375
-0.836488 0.423706 -0.715
-0.682535 0.190463 -0.718333
-0.827634 0.358234 0.942917
-0.808011 0.37927 0.57375
-0.840714 0.420718 0.76125
-0.659084 0.249096 0.758333
-0.808772 0.780693 -0.875833
-0.826042 0.733777 -0.695
-0.810675 0.789579 -0.5075
-0.636958 0.871311 -0.691667
-0.830088 0.836918 0.965834
-0.833881 0.765022 0.77875
-0.809844 0.809692 0.5975
-0.678441 1.05862 0.781667
0.825964 0.366966 -0.902917
0.682533 0.190462 -0.718333
0.813377 0.37814 -0.53375
0.836476 0.423712 -0.715
0.827623 0.358243 0.942917
0.659098 0.249096 0.758333
0.808037 0.379242 0.57375
0.840711 0.420719 0.76125
0.80877 0.780691 -0.875833
0.636984 0.871364 -0.691667
0.82604 0.733775 -0.695
0.810674 0.789577 -0.5075
0.830093 0.836922 0.965834
0.678434 1.05862 0.781667
[...]
POINT_DATA 3682
SCALARS point_scalars float 1
LOOKUP_TABLE default
17.2568
-37.1452
52.2749
-35.4546
16.5245
-37.1384
52.1608
-35.9829
-36.4984
-27.5046
-31.2071
-38.0046
-36.4894
-27.4966
-31.1991
-38.0225
131.904
-76.1099
-37.8142
-47.4874
-38.8173
-36.0519
-36.0519
131.904
-78.4836
-34.9368
-41.2449
-39.2373
-36.0519
-36.0519
131.904
-88.7973
-33.2626
-34.9341
-38.4014
-36.4007
-36.4007
52.2749
-67.8334
-32.2006
-41.6242
-35.3475
-35.054
-36.4007
156.457
-0.228513
-38.7417
-39.9107
-38.2128
-35.0072
-34.3377
155.723
-35.0072
-34.2206
156.851
-33.8106
-33.6477
52.2749
-66.1931
-32.8544
-49.8025
-33.013
-35.054
-33.6477
165.133
4.31193
-37.9955
-39.7265
-39.0984
-35.0421
-34.5678
167.693
-35.0421
-34.6069
167.693
-33.8909
-33.6149
56.9803
-64.0305
-34.2032
-49.7866
-33.9795
-33.8909
-33.5646
132.416
-76.9338
-37.8283
-47.5658
-39.3327
-36.012
-36.012
132.416
-78.4598
-34.9365
-42.0757
-38.4701
-36.012
-36.012
132.416
-90.106
-33.2513
-34.9769
-39.5431
-36.1786
-36.1786
56.9803
-67.5089
-32.2171
-42.0189
-35.4652
-36.1786
-36.1786
107.45
182.91
-47.2113
-35.7461
-31.5961
-42.7027
79.0301
-34.8899
-25.1063
-38.5705
95.0224
-47.1136
-35.5718
-42.6763
-35.1289
-38.4814
-35.5426
-33.1871
-46.0751
-34.6138
-40.3054
-47.327
21.8596
-51.1145
-35.5371
-33.1781
-34.6505
-47.327
-45.0045
-44.9602
-53.3391
-21.9121
205.971
-38.9961
-38.9906
-39.8884
-82.6574
-41.873
-41.8883
-38.0586
-33.6621
-28.5278
49.0437
167.601
-57.7704
-35.0174
-34.2375
-39.941
96.8658
101.167
-46.868
-36.3934
-30.4574
-35.0875
167.461
47.7461
-57.83
-34.2347
-34.5964
-39.9317
100.166
90.9732
-46.6876
-30.4064
-35.9966
-35.1064
-31.2521
-35.0599
-36.5216
-44.8576
-36.78
-34.3975
-31.0538
-40.2341
-30.3878
-31.9933
-50.1193
12.1336
-42.7309
-34.9424
-41.6203
-50.6093
-31.3362
-44.7833
-35.0511
-36.5237
-36.8783
-40.2491
-34.3779
-31.1476
-30.3668
12.0728
-31.9938
-50.1304
-42.7263
-50.5957
-34.9416
-41.6288
-49.7067
182.604
-85.7046
206.817
-46.2267
-49.8952
-37.7564
-31.5662
-38.2018
-29.1677
-42.317
-37.9242
-54.7601
190.882
-40.3006
-24.9989
-31.1788
-26.9085
-41.3989
-34.1666
-49.6921
183.569
-46.2144
-49.932
-37.848
-31.5217
-42.3249
-37.9203
-40.269
-24.9878
-41.4059
-34.1588
-36.422
-38.6634
-35.562
-38.4224
-48.8748
-40.4262
-36.1515
-40.4542
-42.2787
-35.2929
-42.7412
-77.3402
0.271297
-36.4115
-64.1392
-35.276
-36.4168
-38.6426
-35.5654
-38.4181
-36.1475
-40.4694
-42.7401
-77.3327
-53.9298
-36.3233
-33.4914
-49.2672
-54.0205
-49.1698
-33.4964
-36.3574
-83.8164
-83.7532
-46.6229
-45.7483
-58.1959
-5.89664
-5.88193
-58.2341
191.118
167.186
167.908
191.853
-36.1559
-34.4293
-38.7263
-42.7519
-36.1513
-42.7526
-38.7309
-34.4174
-39.055
-39.0236
-41.5833
-41.5923
-7.36559
-57.9536
-57.9459
-7.07397
-38.902
-38.9926
-36.4577
-40.2754
-39.0193
-40.2993
-36.5132
-39.0161
-34.7792
-34.7825
-39.3604
-39.3472
-36.6214
-31.2591
-31.2651
-36.5903
-31.2193
-31.1686
-30.8247
-30.9707
32.5749
140.99
-56.1341
-36.0703
-34.9911
-38.774
89.4655
104.215
-66.8363
-36.1765
-32.2369
-34.859
142.112
32.0954
-56.0925
-34.9874
-36.0266
-38.7043
103.615
106.205
-65.5227
-32.2517
-35.8701
-34.9603
-46.5
-34.5103
-36.3513
-42.4732
-44.855
-32.2302
-27.4559
-41.0682
-27.219
-32.1514
-42.0877
-9.12703
-41.0134
-36.5651
-39.2169
-46.253
-46.5102
-42.3935
-34.5014
-36.3499
-44.8272
-41.1879
-32.18
-27.5165
-27.2062
-9.0102
-32.1518
-42.0887
-41.0279
-46.2462
-36.5833
-39.2385
125.297
96.6311
-78.1856
172.473
182.357
182.355
-158.953
200.134
-55.1317
-40.3071
-46.6338
-46.671
-35.3702
-36.0797
-37.2131
-32.6355
-33.5193
-33.5202
-37.6377
-29.6021
-43.1298
-37.7496
-42.6313
-38.6838
100.5
102.961
-67.2763
162.861
-38.829
-32.4009
-38.7821
-27.5901
-27.1757
-27.1641
-31.0004
-25.3273
-36.8316
-42.0068
-40.2901
-34.8294
126.93
90.5929
-79.2559
171.848
-55.0984
-40.3094
-46.5751
-46.737
-35.0741
-35.9303
-37.4239
-32.5671
-43.1171
-37.7488
-42.6267
-38.6585
-38.717
-32.4381
-38.7514
-27.5776
-36.8337
-41.9975
-40.2911
-34.856
-35.4503
-35.2221
-35.8317
-36.2914
-35.8646
-32.4006
-33.5064
-35.8035
-45.8259
-45.7931
-49.5226
-42.1307
-33.2164
-34.6523
-34.1116
-37.2519
-40.2751
-40.2768
-44.0186
-35.7706
-50.0076
-44.395
-44.5583
-61.2152
19.9149
19.7083
11.8466
40.8231
-51.2435
-51.2339
-56.6352
-45.1523
-35.4451
-35.2134
-35.8269
-36.2724
-35.92
-32.4
-33.5055
-35.7984
-33.2892
-34.6607
-34.1173
-37.1796
-50.015
-44.3973
-44.5586
-61.2156
-44.0814
-45.9286
-43.1497
-40.905
-43.978
-45.9013
-43.1076
-40.9098
-63.4785
-52.3037
-52.3286
-48.6964
-36.2969
-22.9072
-22.9061
-10.7415
198.892
205.984
200.963
199.022
-37.2669
-39.3825
-37.8134
-40.871
-37.2612
-39.3798
-37.8096
-40.8677
-39.8028
-39.9689
-40.5376
-39.7934
-82.2626
-107.701
-72.5431
-82.2671
-40.0248
-41.817
-42.2828
-41.4678
-40.0777
-41.828
-42.3106
-41.4642
-39.3152
-37.8144
-37.8155
-36.1022
-32.5662
-33.8353
-33.8297
-34.4391
-29.5192
-29.185
-27.9297
-29.4902
-76.4843
158.553
-128.51
193.734
-55.3415
-79.3128
-38.1443
-32.2985
-38.4538
-32.6009
-39.3791
-39.9493
-82.4879
160.599
-66.4152
169.73
-48.9924
-57.5052
-36.3403
-32.389
-31.1026
-30.6611
-35.945
-31.9163
-128.54
194.783
-76.5558
159.296
-55.4878
-79.297
-38.4183
-32.6335
-38.1742
-32.2098
-39.3868
-39.984
-66.0438
168.353
-82.2605
156.632
-48.846
-57.4927
-31.1005
-30.6282
-36.404
-32.2662
-36.0064
-31.907
-34.714
-37.0297
-35.4059
-36.4632
-41.0613
-35.3426
-48.8566
-40.6477
-37.7305
-34.997
-34.2941
-39.5821
-31.5578
-42.0995
-43.642
-35.1562
-33.1271
-13.4219
-30.6025
-37.5663
-45.8636
-73.7461
3.11751
21.137
-41.6236
-41.9595
-36.3273
-37.3125
-39.8828
-49.539
-52.7777
-46.5891
-34.732
-38.0781
-48.768
-40.6022
-35.4001
-36.4411
-41.071
-35.3401
-37.8347
-34.9771
-43.6486
-35.1663
-34.2782
-39.5552
-31.548
-42.0313
-33.1241
-13.3911
3.12154
21.6152
-30.6019
-37.5636
-45.867
-73.7544
-41.6732
-41.9443
-52.768
-46.5758
-36.3365
-37.2799
-39.8926
-49.529
-52.1
-49.4267
176.186
168.55
-84.9446
-84.9043
200.49
200.447
-48.9825
-40.0371
-60.298
-45.5731
-38.5504
-37.059
-31.4974
-31.2999
-38.5848
-38.5779
-29.2142
-29.2041
-40.0388
-41.6735
-35.9977
-40.7772
-55.8966
-55.928
179.44
178.773
-40.5795
-40.528
-38.0377
-15.2558
-31.1552
-31.1497
-28.3286
-28.3265
-38.295
-43.4435
-35.4096
-32.6206
-52.1774
-49.3851
170.374
179.337
-48.9285
-40.0259
-60.1723
-45.3817
-37.1206
-38.5865
-31.4821
-31.211
-40.0425
-41.708
-35.9928
-40.7822
-40.4348
-40.5724
-15.2422
-38.0369
-43.4511
-38.3269
-32.6116
-35.4018
-36.6407
-35.7626
-38.4765
-40.007
-36.4753
-34.1932
-37.1457
-40.2824
-48.4183
-48.0673
-40.0895
-40.0715
-34.7669
-37.4482
-39.7081
-40.5148
-42.1371
-42.1451
-35.0685
-35.0707
-40.8946
-43.791
-107.655
-66.1511
-1.67971
-1.67734
-12.6523
-12.5982
-62.6487
-62.6447
-35.5322
-35.5299
-36.6369
-35.7554
-38.4533
-39.9948
-34.1992
-36.4944
-37.1418
-40.2799
-37.4486
-34.7587
-39.7484
-40.5235
-43.7925
-40.895
-66.1407
-107.76
-64.7454
-50.9473
-47.3338
-80.117
-45.0118
-37.3051
-40.2137
-40.2435
-29.8378
-37.5931
-41.2953
-31.6942
-81.557
-79.9564
-40.585
-40.3814
-64.8467
-80.4896
-47.243
-50.8885
-81.0138
-40.2992
-40.5804
-80.2605
-29.8364
-31.696
-41.2721
-37.5922
-45.0201
-40.2334
-40.2195
-37.3336
-106.988
-146.633
-62.4594
-57.7275
-107.082
-57.5098
-62.3782
-146.58
-48.5446
-49.4495
-47.8272
-41.1735
-48.7398
-41.4246
-47.9077
-49.4516
-75.9823
-38.8634
-36.3006
-60.6076
-10.5546
9.84549
-12.0065
-19.9626
-10.5069
-19.9462
-12.0034
9.84395
-75.4474
-60.6109
-36.2815
-38.8362
171.066
167.513
205.437
201.465
138.476
152.924
199.987
171.665
136.095
169.354
200.192
152.786
171.375
201.432
205.009
167.863
-34.6929
-35.8393
-37.6352
-35.8428
-31.5144
-32.4209
-36.2734
-35.3625
-37.2923
-42.2701
-39.4018
-35.2828
-39.9003
-36.3269
-41.4916
-46.3232
-34.6875
-35.8402
-37.6327
-35.8349
-39.9001
-46.3265
-41.4901
-36.3218
-37.3058
-35.2911
-39.3997
-42.2733
-31.4888
-35.3543
-36.2681
-32.4215
-38.1754
-41.7605
-39.5375
-36.8047
-38.1468
-36.7915
-39.524
-41.7363
-42.3022
-43.7203
-40.4157
-36.729
-42.3325
-36.7498
-40.4222
-43.719
-18.2569
-73.3163
-112.443
37.1684
-46.7494
-56.0838
-71.5484
-53.8651
-46.7411
-53.8637
-71.5461
-56.0775
-18.1856
37.1613
-112.413
-73.3897
-44.7145
-38.7919
-40.8378
-39.7064
-38.5902
-37.7618
-41.2186
-42.3742
-35.7602
-37.6679
-39.0145
-36.6011
-38.2537
-35.969
-42.5764
-42.6413
-44.4575
-39.5445
-40.8491
-38.7823
-38.205
-42.641
-42.5589
-35.9351
-35.866
-36.7779
-39.0501
-37.6831
-38.5842
-42.4189
-41.2879
-37.8542
-35.8161
-35.6184
-36.0511
-36.3421
-35.8327
-36.3228
-36.0503
-35.6235
-39.4715
-37.8784
-39.8579
-41.6692
-39.5437
-41.6522
-39.8605
-37.8843
-44.9642
-36.9137
-34.6729
-45.2557
-31.4796
-31.0486
-32.5401
-33.1283
-31.4888
-33.1188
-32.5342
-31.0434
-44.9259
-45.2499
-34.6679
-36.9055
-33.4499
-31.3182
-29.5532
-32.7537
-33.3908
-32.6709
-29.5186
-31.3251
-32.197
-27.4326
-28.9903
-32.4901
-32.2685
-32.5891
-29.0154
-27.4186
24.9329
114.214
-53.5948
-36.4968
-36.2218
-38.2643
33.8661
109.876
-42.5454
-35.8161
-33.1768
-34.2987
115.053
24.3088
-53.1317
-36.2246
-36.4864
-37.87
115.728
32.8377
-49.9646
-33.5198
-35.7826
-35.1214
-38.5852
-35.0536
-36.3363
-37.6747
-42.6143
-30.5596
-26.4785
-40.0535
-28.5205
-32.1851
-34.6064
-22.2142
-38.6115
-37.1646
-38.3828
-42.7911
-38.5936
-37.6566
-35.0437
-36.331
-42.7285
-40.0858
-30.5196
-26.5148
-28.5105
-22.1759
-32.1834
-34.6179
-38.6343
-42.8031
-37.1826
-38.4058
105.099
97.7319
-77.1417
160.001
186.27
185.475
-104.652
192.039
-47.9954
-44.31
-47.0102
-45.8473
-35.6034
-35.9183
-39.9233
-33.6596
-32.7597
-32.7815
-36.285
-29.6289
-44.5203
-39.0959
-42.7132
-40.0222
51.1665
51.0326
-103.827
137.557
-35.7251
-34.5357
-37.5064
-30.1961
-25.7117
-25.6967
-29.5628
-25.1295
-37.8382
-39.8395
-39.4868
-35.7603
103.213
90.6324
-73.8314
158.031
-47.9715
-44.272
-46.9137
-45.8162
-35.4375
-35.7465
-40.3723
-33.6469
-44.515
-39.0815
-42.7016
-39.9601
-35.6416
-34.3406
-37.4757
-30.1651
-37.8548
-39.8492
-39.4796
-35.7254
-35.5337
-35.4149
-35.6556
-35.3684
-34.6013
-32.7856
-33.5577
-34.1102
-46.023
-46.0106
-47.287
-43.9949
-34.0936
-34.7267
-33.9025
-35.9477
-40.2765
-40.2762
-43.1321
-37.6334
-48.8118
-45.8727
-45.8033
-53.8772
21.6409
21.6138
17.0818
30.403
-51.1394
-51.1355
-53.9022
-48.3455
-35.5281
-35.4081
-35.6509
-35.3615
-34.6426
-32.7865
-33.5136
-34.1086
-34.1491
-34.7511
-33.911
-35.9593
-48.8161
-45.8717
-45.8036
-53.8867
-44.8126
-45.7867
-44.2479
-43.9394
-44.7659
-45.7402
-44.2041
-43.8766
-56.9295
-53.0963
-53.0906
-50.7065
-28.2365
-22.15
-22.1507
-16.3637
202.147
205.064
205.696
201.903
-38.0277
-39.3254
-38.4824
-39.998
-38.0219
-39.3208
-38.4771
-39.9934
-39.8692
-39.7416
-40.2064
-39.8651
-82.6341
-91.7036
-76.8204
-82.6369
-41.1747
-41.8555
-42.0604
-42.023
-41.1993
-41.8679
-42.0801
-42.0522
-38.8425
-38.0666
-38.0689
-36.7039
-33.2621
-33.7157
-33.7127
-34.0383
-28.7658
-28.8703
-28.2659
-28.7564
40.8854
43.7493
-48.077
160.011
154.703
176.717
-11.9098
193.734
-57.4685
-58.6081
-55.6533
-74.9896
-35.4667
-35.1342
-41.0701
-33.859
-34.5609
-33.866
-37.8482
-33.2711
-39.375
-41.6382
-39.8352
-39.7077
98.5007
93.1068
-112.803
164.249
112.62
105.408
-84.5706
175.615
-63.2568
-41.6544
-47.3674
-53.4963
-36.4589
-36.2362
-38.0395
-33.5654
-31.2182
-28.8867
-30.8269
-30.5532
-34.148
-35.6786
-35.6022
-32.8396
153.31
176.568
-12.1342
194.896
40.1577
42.1392
-47.2759
158.369
-57.4312
-58.5323
-55.7422
-75.0458
-34.5539
-33.8656
-37.834
-33.2702
-35.247
-34.8447
-40.7165
-33.8499
-39.3511
-41.6449
-39.8227
-39.7444
107.687
106.782
-86.0287
176.008
102.262
89.8689
-112.707
161.398
-62.8976
-41.5203
-47.1512
-53.3002
-31.1784
-29.0747
-30.7938
-30.5183
-35.9967
-35.9945
-38.3422
-33.6317
-34.1953
-35.722
-35.639
-32.8384
-48.1497
-37.0293
-32.7122
-30.6595
-34.7403
-35.3113
-35.1966
-35.2383
-36.4105
-36.4685
-38.3741
-35.3789
-44.2253
-45.4105
-46.4509
-42.4652
-37.0251
-37.5945
-37.1681
-35.236
-33.4805
-34.9049
-34.2516
-36.0726
-28.4713
-32.1991
-30.9735
-39.1023
-40.3752
-40.2495
-43.1292
-37.1475
-28.0897
-31.4789
-33.1708
-19.6156
-32.1018
-32.0859
-30.8493
-34.2334
-48.8021
-50.6522
-47.6156
-66.2245
5.35496
16.9528
7.87282
16.7517
-41.9665
-42.3273
-42.0547
-42.7673
-35.7674
-34.7036
-35.4998
-35.913
-40.3336
-43.0729
-40.71
-45.4949
-49.644
-51.243
-51.8694
-48.9612
-48.2128
-37.0643
-32.786
-31.1345
-44.1455
-45.3537
-46.3717
-42.407
-34.7302
-35.3042
-35.1893
-35.2259
-36.4125
-36.4748
-38.3808
-35.3789
-36.9678
-37.7035
-37.2741
-35.2461
-40.4125
-40.2552
-43.1503
-37.1673
-33.4507
-34.891
-34.2733
-36.0474
-28.5522
-32.2806
-30.9868
-39.5698
-28.0696
-31.4656
-33.1578
-19.57
5.44283
16.8851
7.85478
16.7434
-32.1043
-32.0847
-30.8485
-34.2318
-48.8111
-50.6614
-47.6205
-66.2554
-42.0811
-42.3147
-42.1041
-42.7647
-49.629
-51.2311
-51.8573
-48.9587
-35.7755
-34.702
-35.5055
-35.9049
-40.3477
-43.08
-40.7207
-45.4872
-58.9764
-45.4664
-50.7614
-49.5341
171.268
191.22
180.588
179.085
-105.852
-72.4204
-85.0044
-84.9819
205.227
206.576
202.105
202.029
-46.3886
-46.0655
-46.7275
-43.6146
-47.9488
-51.1801
-53.5335
-47.5381
-37.2551
-38.6403
-38.1537
-37.3598
-32.018
-30.6009
-31.6312
-31.4354
-37.4877
-39.0279
-38.3094
-38.3063
-29.5444
-29.0781
-28.2845
-28.2817
-42.3848
-42.0806
-40.9017
-42.4185
-38.1694
-37.7963
-36.6721
-39.8713
-62.6869
-45.1506
-54.8492
-54.89
180.334
194.5
193.326
193.018
-39.7683
-41.6993
-41.0145
-40.3861
-26.2335
-24.0592
-30.7844
-20.2008
-30.9859
-31.6411
-31.1784
-31.1769
-26.1184
-27.4241
-27.1939
-27.1829
-40.8244
-42.032
-39.9365
-42.5119
-34.2594
-33.9977
-34.7951
-33.4888
-59.2415
-45.4016
-50.8065
-49.468
175.042
191.057
179.396
182.263
-46.3509
-46.0654
-46.7135
-43.5818
-47.9845
-51.2318
-53.5931
-47.4196
-37.3445
-38.704
-37.4255
-38.234
-31.9535
-30.5504
-31.6146
-31.3828
-42.3871
-42.0903
-40.9072
-42.3948
-38.1606
-37.7957
-36.6668
-39.8715
-39.7373
-41.6626
-40.3499
-40.9958
-26.2223
-24.0532
-20.1875
-30.7779
-40.8291
-42.055
-42.5229
-39.9541
-34.2522
-33.9906
-33.4805
-34.788
-36.0658
-36.8377
-36.5887
-36.1607
-37.9493
-39.2713
-38.5155
-39.0696
-34.3917
-38.6979
-36.3774
-34.6838
-37.3323
-39.0924
-37.7398
-39.294
-50.7568
-47.9352
-48.765
-48.645
-41.1302
-40.0239
-40.3374
-40.3287
-35.0787
-37.0463
-35.3892
-36.8702
-38.747
-41.4079
-40.1767
-40.6218
-42.5805
-41.2019
-42.2606
-42.2634
-35.1151
-35.7407
-35.2651
-35.2659
-43.6325
-41.7466
-41.8782
-43.4589
-71.3339
-81.1839
-89.178
-69.9171
6.23549
-5.31703
-0.0680316
-0.0688487
31.7165
-106.931
-22.4638
-23.2193
-60.0258
-68.587
-63.589
-63.5873
-40.5357
-34.0498
-35.2666
-35.2618
-36.061
-36.8323
-36.5845
-36.1553
-37.9252
-39.257
-38.4923
-39.0519
-34.3122
-38.7166
-34.6814
-36.3887
-37.3275
-39.0888
-37.7361
-39.2894
-35.0761
-37.0422
-36.8688
-35.3829
-38.7191
-41.4141
-40.1974
-40.6289
-43.6322
-41.7444
-43.4588
-41.8777
-71.3084
-81.1904
-69.9067
-89.1901
-60.2847
-55.108
-53.2101
-52.999
-35.185
-41.4112
-36.9588
-36.628
-33.4432
-31.0447
-37.9593
-33.7808
-59.6896
-49.4741
-49.3712
-43.7215
-60.405
-55.2748
-53.2944
-52.8148
-59.7171
-49.3634
-49.2972
-43.6318
-33.4494
-31.041
-37.9613
-33.7854
-35.2346
-41.4211
-36.9959
-36.6533
-111.004
-82.6392
-84.0087
-69.4027
-110.929
-82.5619
-83.9596
-69.328
-44.5344
-49.965
-44.8458
-47.761
-43.4481
-49.3504
-45.3384
-47.0726
-62.8119
-58.2154
-57.6875
-47.8108
-9.08614
-1.22745
-10.471
-3.28095
-9.06424
-1.21589
-10.4552
-3.27309
-62.8214
-58.2819
-57.7147
-47.8216
173.61
188.929
185.308
196.996
163.183
163.497
170.692
175.794
161.923
165.115
174.851
171.527
190.066
174.032
197.144
186.835
-35.7076
-35.7868
-36.4649
-36.6604
-34.3152
-33.2717
-35.18
-34.552
-37.4885
-39.2402
-38.0617
-39.8321
-40.71
-44.2203
-41.3585
-43.6544
-35.7031
-35.7831
-36.461
-36.6561
-40.7079
-44.2227
-41.3574
-43.6572
-37.4955
-39.2475
-38.0638
-39.8339
-34.3014
-33.2587
-35.1706
-34.5416
-38.2029
-39.7192
-38.6276
-39.6375
-39.6811
-38.1735
-39.6115
-38.6013
-42.2617
-41.3042
-41.9446
-40.4871
-41.3119
-42.2669
-40.4954
-41.9537
-29.5562
14.706
-81.4894
-4.4927
-54.0903
-54.9739
-62.0379
-60.5769
-54.9635
-54.0823
-60.5713
-62.0304
14.7286
-29.4354
-4.54835
-82.419
-38.3035
-39.4391
-39.7651
-39.2668
-38.5465
-39.1872
-38.8277
-40.1262
-36.1144
-36.1606
-36.7441
-37.097
-40.9837
-39.103
-42.7119
-40.3031
-38.4558
-39.0737
-39.8051
-39.3399
-41.0167
-39.0939
-42.7128
-40.316
-36.1971
-36.2136
-36.8028
-37.1425
-38.5915
-39.208
-38.8571
-40.2021
-34.7964
-34.8935
-35.3986
-34.9101
-34.7961
-34.9004
-35.3968
-34.9134
-38.5342
-39.7222
-38.9929
-40.096
-38.5242
-39.6985
-38.9758
-40.081
-37.6531
-42.5557
-35.4441
-35.8858
-31.0731
-31.4803
-31.1797
-31.7562
-31.0676
-31.4764
-31.1714
-31.7455
-37.6479
-42.5474
-35.4353
-35.896
-31.8581
-31.4426
-31.3625
-30.2703
-31.5322
-31.7972
-30.2342
-31.3361
-30.7376
-31.5157
-29.7717
-31.0385
-31.5632
-30.8159
-31.1646
-29.6931
-50.1073
151.399
22.5205
164.614
-57.7196
-88.3054
-39.746
-34.4214
-39.324
-34.0392
-38.6371
-39.6751
-103.155
145.911
-70.7444
137.067
-72.3023
-65.2556
-36.4423
-33.4394
-31.7834
-32.2833
-35.1821
-32.1084
23.4821
164.996
-49.286
152.372
-57.7756
-88.4271
-39.2242
-34.0307
-39.3266
-34.3332
-38.584
-39.5941
-70.3979
143.806
-103.725
153.157
-71.5716
-63.7344
-31.8115
-32.2523
-36.9895
-33.5572
-35.2934
-32.1362
-45.3727
-48.3619
-34.5353
-35.5772
-38.3055
-34.9689
-44.9615
-39.0864
-44.3865
-40.4868
-31.7229
-36.706
-30.2789
-42.2782
-44.0536
-38.0305
-29.4562
-18.7976
-30.2288
-35.3014
-41.1161
-39.1674
-8.46284
-11.4166
-39.6839
-44.2658
-36.528
-37.052
-38.2165
-43.5803
-45.9007
-46.0686
-45.3802
-48.3268
-44.8603
-39.0546
-34.5278
-35.5662
-38.3144
-34.9651
-44.2975
-40.5663
-44.1016
-38.0925
-31.6888
-36.6054
-30.2757
-42.3937
-29.4539
-18.7493
-8.38302
-11.3945
-30.2259
-35.3071
-41.1167
-39.1352
-39.6632
-44.2415
-45.891
-46.0682
-36.549
-37.0495
-38.2352
-43.5762
-61.0562
159.352
-88.7374
163.546
-83.3384
-78.8318
169.147
173.813
-74.1328
204.664
-75.0222
204.31
-155.484
-155.446
203.549
203.3
-52.4387
-57.8336
-40.2042
-40.5724
-47.2343
-43.9028
-51.0307
-44.0561
-40.3873
-33.758
-38.7461
-33.654
-37.5059
-36.8925
-32.6939
-32.6124
-36.9441
-32.2578
-36.9414
-32.2634
-37.6649
-37.6597
-31.1649
-31.1507
-42.8309
-42.7366
-38.2532
-36.6501
-40.3885
-43.1785
-37.2011
-40.7849
-113.652
145.213
-113.863
145.792
-60.702
-60.6559
170.486
167.656
-39.5183
-38.407
-35.3153
-24.2218
-38.4951
-38.8319
-32.5365
-23.563
-30.0388
-27.2485
-30.0171
-27.2426
-31.0267
-31.0231
-25.9699
-25.9453
-37.3382
-34.3894
-42.2759
-39.4759
-39.3014
-41.1669
-36.1982
-33.9583
-60.4817
157.95
-87.5288
159.376
-83.2961
-79.59
172.761
169.14
-52.4014
-57.6671
-40.2048
-40.5091
-47.2185
-43.8644
-51.1148
-43.8787
-41.0891
-33.6587
-39.523
-33.6689
-37.0183
-37.6202
-32.6174
-32.5531
-42.8655
-42.7394
-38.2457
-36.6495
-40.3804
-43.1619
-37.1767
-40.7856
-39.4231
-38.3283
-35.3306
-24.2059
-38.7675
-38.4973
-23.5461
-32.5158
-37.3471
-34.3898
-42.2689
-39.4323
-41.1777
-39.3041
-33.9426
-36.1855
-35.619
-35.2796
-35.273
-35.6369
-35.9075
-35.6501
-37.0368
-37.3904
-36.3844
-35.1466
-31.7752
-33.7529
-35.3554
-32.5677
-35.8483
-35.9863
-47.0499
-43.6205
-47.0271
-43.5917
-49.5888
-49.5771
-42.0341
-42.0229
-32.4187
-36.7968
-34.8126
-35.3094
-33.252
-34.7701
-38.4454
-36.1615
-43.117
-37.4927
-43.11
-37.4962
-43.9066
-43.9061
-35.7031
-35.7057
-47.9152
-59.2808
-43.243
-49.0885
-43.5228
-45.6263
-66.069
-57.0375
15.2381
26.3632
15.2279
26.3835
11.5696
11.5669
38.5732
38.54
-53.8029
-48.4542
-53.7919
-48.449
-56.5202
-56.5172
-44.8239
-44.8543
-35.6142
-35.2711
-35.2647
-35.6262
-35.9033
-35.6445
-37.0208
-37.3712
-36.4045
-35.1458
-31.7754
-33.7502
-32.5717
-35.3706
-35.8446
-35.9803
-32.4383
-36.9832
-34.8239
-35.2995
-34.7782
-33.2557
-38.3535
-36.1127
-47.9196
-59.3138
-43.2463
-49.0847
-45.6277
-43.5233
-57.0346
-66.1108
-46.6098
-41.1724
-46.5789
-43.4404
-43.7772
-41.9034
-40.5274
-41.0286
-46.5157
-41.1032
-46.5328
-43.3791
-41.8602
-43.7375
-41.016
-40.5358
-63.2028
-63.186
-55.8227
-49.8879
-55.8731
-49.8307
-48.4164
-48.4452
-35.651
-35.6551
-29.4079
-17.2617
-17.2602
-29.4076
-11.0022
-11
206.705
198.814
202.488
202.088
202.889
202.575
198.826
206.637
-37.5141
-36.8281
-38.3992