# vtk DataFile Version 2.0
tri_press
ASCII
DATASET UNSTRUCTURED_GRID
POINTS 3682 float
-0.645 0.085 -2.05372
-0.797219 0.115 1.955
-0.745 0.535894 -1.885
-0.745 0.825 1.90463
0.645 0.085 -2.05372
0.797219 0.115 1.955
0.745 0.535935 -1.885
0.745 0.825 1.90463
-0.717198 0.0735412 -0.71748
-0.777834 0.0736453 0.61876
-0.805671 0.692934 -0.62179
-0.820164 0.803795 0.64142
0.717198 0.0735411 -0.71748
0.777834 0.0736453 0.61876
0.80579 0.69308 -0.62179
0.820145 0.80379 0.64142
-1.3977 -0.272791 -3.13634
-1.40297 -0.221451 -2.09659
-1.46594 -0.230137 -0.758466
-1.52823 -0.251119 0.59436
-1.55028 -0.231133 1.93373
-1.55555 -0.197055 2.97953
-1.55882 -0.157647 4.01411
-1.39925 0.00429629 -3.07823
-1.40663 0.0740175 -2.04647
-1.48292 0.089879 -0.722549
-1.54533 0.0915852 0.607943
-1.55344 0.117023 1.93326
-1.5597 0.150943 2.97804
-1.56421 0.188797 4.015
-1.44386 0.522005 -2.94152
-1.4839 0.587753 -1.90674
-1.55373 0.709955 -0.632607
-1.58107 0.798048 0.636352
-1.53725 0.827398 1.91188
-1.5543 0.856875 2.95968
-1.56976 0.88964 4.00842
-1.49288 1.41325 -2.79137
-1.51889 1.49763 -1.76752
-1.55585 1.64693 -0.51707
-1.58058 1.78509 0.717644
-1.58308 1.86452 1.96886
-1.5827 1.90133 2.9943
-1.5872 1.93197 4.03507
-0.669048 -0.26686 -3.14105
-0.664511 -0.211894 -2.10347
-0.710525 -0.237047 -0.757544
-0.758397 -0.264834 0.603592
-0.778769 -0.237353 1.94987
-0.78459 -0.201841 2.99048
-0.787979 -0.161699 4.02045
-0.66439 0.00370358 -3.07968
-0.792814 0.147775 2.98707
-0.794481 0.1856 4.01978
-0.698275 0.499808 -2.93249
-0.786284 0.855466 2.95823
-0.800941 0.888271 4.00811
-0.735333 1.39544 -2.78244
-0.752989 1.47953 -1.75769
-0.77983 1.63948 -0.51114
-0.802923 1.78866 0.716932
-0.810183 1.8692 1.96378
-0.811499 1.90419 2.98923
-0.816585 1.93355 4.03138
0.727518 -0.266838 -3.14105
0.696904 -0.211885 -2.10347
0.739406 -0.237041 -0.757544
0.782985 -0.264831 0.603592
0.794156 -0.237351 1.94987
0.774574 -0.201838 2.99048
0.76089 -0.161694 4.02045
0.726408 0.00372668 -3.07968
0.764129 0.147777 2.98707
0.752824 0.185605 4.01978
0.756853 0.499848 -2.93249
0.743702 0.855469 2.95823
0.739443 0.888276 4.00811
0.772299 1.3955 -2.78244
0.774729 1.47959 -1.75769
0.778176 1.63954 -0.51114
0.765899 1.78869 0.716932
0.74363 1.86921 1.96378
0.733562 1.9042 2.98923
0.726355 1.93356 4.03138
1.44343 -0.272736 -3.13634
1.41978 -0.221405 -2.09659
1.47902 -0.230103 -0.758466
1.54546 -0.251108 0.59436
1.56376 -0.231127 1.93372
1.55026 -0.197046 2.97953
1.53539 -0.157635 4.01411
1.43959 0.00435745 -3.07823
1.40211 0.0740777 -2.04647
1.4765 0.0899298 -0.722549
1.54823 0.0915926 0.607943
1.55804 0.117026 1.93326
1.54194 0.150949 2.97804
1.52803 0.188808 4.015
1.47963 0.522092 -2.94152
1.47669 0.587865 -1.90674
1.5434 0.710101 -0.632607
1.57715 0.798068 0.636351
1.53245 0.827402 1.91188
1.52039 0.856883 2.95968
1.51338 0.889652 4.00842
1.52245 1.41335 -2.79137
1.53156 1.49774 -1.76752
1.54741 1.64703 -0.517071
1.54472 1.78515 0.717644
1.52251 1.86455 1.96886
1.50864 1.90135 2.9943
1.4993 1.93199 4.03507
-0.687812 0.310447 -1.96217
0 0.0945745 -2.04415
-0.678103 0.0822664 -1.3856
-0.814453 0.47 1.97316
0 0.106503 1.9635
-0.802391 0.0794586 1.28688
0 0.63377 -1.98286
-0.859949 0.699028 -1.2534
0 0.916331 1.99596
-0.81157 0.843385 1.27303
0.688635 0.310467 -1.963
0.678132 0.0822374 -1.3856
0.814455 0.47 1.97316
0.802399 0.0794503 1.28688
0.859902 0.699014 -1.2534
0.811572 0.843394 1.27303
-0.747512 0.0735972 -0.04936
-0.842281 0.383238 -0.669635
3.49029e-08 0.0727216 -0.71748
-0.874436 0.43872 0.63009
-3.55614e-08 0.0721647 0.61876
-0.815554 0.751001 0.00981498
5.92927e-05 0.955386 -0.62179
-9.54626e-06 1.20088 0.64142
0.747512 0.0735973 -0.04936
0.842303 0.383311 -0.669635
0.874494 0.438718 0.63009
0.815551 0.751018 0.00981498
-0.865333 0.346842 -1.3195
0.865349 0.346889 -1.3195
1.74514e-08 0.0796614 -1.3856
2.96464e-05 0.839968 -1.2534
0 0.310457 -2.05326
-0.846259 0.410979 -0.0197725
0.846294 0.411014 -0.0197725
-3.29272e-10 0.0724526 -0.04936
2.48732e-05 1.20256 0.00981498
-0.894531 0.45436 1.27995
0.894531 0.454359 1.27995
-1.77807e-08 0.0798475 1.28688
-4.77313e-06 1.06834 1.27303
0 0.47 2.15867
-0.661302 0.197723 -2.00284
-0.3225 0.0949428 -2.04378
-0.656367 0.0888182 -1.71966
-0.814727 0.2925 1.97297
-0.398609 0.109418 1.96058
-0.815228 0.0818065 1.62094
-0.718465 0.42317 -1.92564
-0.3725 0.621209 -1.97031
-0.826949 0.641935 -1.5692
-0.794167 0.6475 1.95334
-0.3725 0.902095 1.98172
-0.79231 0.848218 1.58883
0.3225 0.0948449 -2.04388
0.661327 0.197734 -2.00287
0.656158 0.0890266 -1.71966
0.398609 0.109532 1.96047
0.814712 0.2925 1.97296
0.815232 0.0818018 1.62094
0.3725 0.621033 -1.97011
0.718465 0.423201 -1.92564
0.826916 0.64194 -1.5692
0.3725 0.902067 1.9817
0.794128 0.6475 1.9533
0.792152 0.848063 1.58883
-0.697264 0.0782906 -1.05154
-0.73233 0.0735945 -0.38342
-0.83687 0.199824 -0.693558
-0.357892 0.0745464 -0.71748
-0.789601 0.0770635 0.95282
-0.762699 0.0735949 0.2847
-0.870981 0.23376 0.624425
-0.388403 0.0739322 0.61876
-0.837471 0.700641 -0.937593
-0.822239 0.537217 -0.645713
-0.811107 0.722462 -0.305988
-0.445445 0.909438 -0.62179
-0.818118 0.825842 0.957223
-0.86249 0.628853 0.635755
-0.818716 0.778255 0.325618
-0.499035 1.18024 0.64142
0.697295 0.0782593 -1.05154
0.357892 0.0745462 -0.71748
0.73233 0.0735946 -0.38342
0.836868 0.199867 -0.693558
0.789602 0.0770625 0.95282
0.388403 0.0739335 0.61876
0.762699 0.073595 0.2847
0.870985 0.233771 0.624425
0.837469 0.70067 -0.937593
0.445489 0.909363 -0.62179
0.822216 0.53728 -0.645713
0.811111 0.72249 -0.305988
0.818116 0.82585 0.957223
0.499014 1.18023 0.64142
0.862491 0.62884 0.635755
0.818707 0.778264 0.325618
-0.863223 0.328645 -1.64083
-0.343906 0.310452 -2.08804
8.72571e-09 0.0803266 -1.71487
0 0.202516 -2.16487
-0.866973 0.214554 -1.35255
-0.339052 0.0796527 -1.3856
-0.886257 0.46218 1.62656
-0.407227 0.47 2.15209
-8.89035e-09 0.0864372 1.62519
0 0.288251 2.1211
-0.884441 0.266909 1.28342
-0.401195 0.0798486 1.28688
1.48232e-05 0.766945 -1.61813
0 0.472113 -2.12246
-0.868031 0.522935 -1.28645
-0.42996 0.833521 -1.2534
-2.38657e-06 0.952368 1.63449
0 0.693166 2.14924
-0.895565 0.648873 1.27649
-0.405787 1.03807 1.27303
0.862997 0.328678 -1.64125
0.344318 0.310462 -2.08785
0.866972 0.214563 -1.35255
0.339066 0.0796527 -1.3856
0.886258 0.462179 1.62656
0.407227 0.47 2.15083
0.884299 0.266905 1.28342
0.401199 0.0798486 1.28688
0.86803 0.522952 -1.28645
0.429966 0.833541 -1.2534
0.895565 0.648877 1.27649
0.405784 1.03808 1.27303
-0.843505 0.218978 -0.0345662
-0.373143 0.074252 -0.04936
-0.866513 0.36504 -0.994566
-0.830347 0.397108 -0.344704
2.61771e-08 0.079311 -1.05154
1.72868e-08 0.0725974 -0.38342
-0.862275 0.42485 0.305159
-0.896092 0.44654 0.955021
-1.79453e-08 0.0723047 0.2847
-2.66711e-08 0.0767457 0.95282
-0.843631 0.587352 -0.00497876
-0.506773 1.1748 0.00981498
4.44695e-05 0.883278 -0.937593
4.2083e-05 1.10794 -0.305988
7.66348e-06 1.21902 0.325618
-7.1597e-06 1.15292 0.957223
0.843516 0.218999 -0.0345662
0.373142 0.0742524 -0.04936
0.866516 0.3651 -0.994566
0.830355 0.397162 -0.344704
0.862275 0.424866 0.305159
0.896092 0.446538 0.955021
0.84363 0.58737 -0.00497876
0.506774 1.17476 0.00981498
-0.857122 0.206139 -1.68025
-0.867745 0.221472 -1.02305
-0.863702 0.53051 -0.966079
-0.865616 0.473053 -1.60502
0.856663 0.206148 -1.68045
0.865611 0.473076 -1.60522
0.863689 0.530573 -0.966079
0.867745 0.221495 -1.02305
-0.330776 0.0803179 -1.71727
0.330783 0.0803181 -1.71727
0.348833 0.0793035 -1.05154
-0.348825 0.0793036 -1.05154
-0.40123 0.762958 -1.59366
-0.416383 0.872094 -0.937593
0.416445 0.872078 -0.937593
0.401233 0.762963 -1.59366
-0.333203 0.20012 -2.14901
-0.358203 0.447642 -2.11597
0.358409 0.447657 -2.11595
0.333409 0.200125 -2.14898
-0.828995 0.214997 -0.364062
-0.860551 0.224715 0.294929
-0.855492 0.609318 0.315388
-0.830963 0.561299 -0.325346
0.829004 0.215027 -0.364062
0.830962 0.561344 -0.325346
0.855498 0.609323 0.315388
0.860559 0.224731 0.294929
-0.365511 0.0744122 -0.38342
0.365511 0.0744124 -0.38342
0.380775 0.0740883 0.2847
-0.380775 0.074088 0.2847
-0.483688 1.05727 -0.305988
-0.512472 1.19665 0.325618
0.512472 1.19665 0.325618
0.483731 1.05726 -0.305988
-0.888273 0.261546 0.953921
-0.876159 0.279705 1.62375
-0.874062 0.648186 1.60769
-0.882966 0.635065 0.956122
0.888427 0.261543 0.953921
0.882987 0.635065 0.956122
0.873975 0.648188 1.60769
0.87617 0.279702 1.62375
-0.395056 0.0767455 0.95282
0.395058 0.0767455 0.95282
0.399904 0.0868882 1.62306
-0.399902 0.0868882 1.62306
-0.407937 1.12356 0.957223
-0.389144 0.936621 1.61166
0.389142 0.936628 1.61166
0.407926 1.1235 0.957223
-0.402918 0.290376 2.15148
0.402918 0.290376 2.14992
0.389864 0.670333 2.11929
-0.389863 0.670333 2.11926
-0.638203 0.141362 -2.01333
-0.48375 0.0823008 -2.05642
-0.649561 0.0880316 -1.88669
-0.809064 0.20375 1.96708
-0.597914 0.0996991 1.9703
-0.816989 0.0876375 1.78797
-0.737662 0.479532 -1.91125
-0.55875 0.578967 -1.92807
-0.79082 0.59376 -1.7271
-0.774096 0.73625 1.93349
-0.55875 0.877118 1.95675
-0.772515 0.840468 1.74673
0.48375 0.0822938 -2.05643
0.638267 0.141367 -2.0134
0.649054 0.0885381 -1.88669
0.597914 0.0997019 1.9703
0.809051 0.20375 1.96706
0.816891 0.0877353 1.78797
0.55875 0.579032 -1.9281
0.73764 0.479568 -1.91123
0.790837 0.593817 -1.7271
0.55875 0.87701 1.95664
0.774076 0.73625 1.93348
0.772422 0.840377 1.74673
-0.709648 0.0734989 -0.88451
-0.724752 0.0735799 -0.55045
-0.820083 0.115158 -0.705519
-0.538046 0.0730411 -0.71748
-0.785455 0.0736171 0.78579
-0.770286 0.0736005 0.45173
-0.847578 0.142117 0.621593
-0.583472 0.0730831 0.61876
-0.810837 0.686053 -0.779691
-0.817667 0.616931 -0.633751
-0.808874 0.708183 -0.463889
-0.655854 0.861777 -0.62179
-0.81916 0.814838 0.799321
-0.849998 0.720659 0.638588
-0.820869 0.792455 0.483519
-0.664799 1.00241 0.64142
0.709648 0.0734989 -0.88451
0.538047 0.0730409 -0.71748
0.724752 0.0735798 -0.55045
0.820071 0.115185 -0.705519
0.785455 0.0736172 0.78579
0.583471 0.0730832 0.61876
0.770286 0.0736005 0.45173
0.847574 0.142126 0.621593
[...]
POINT_DATA 3682
SCALARS point_scalars float 1
LOOKUP_TABLE default
-75.7998
-45.8253
-17.3622
-42.4423
-75.7374
-45.8554
-17.2399
-42.5115
-35.6012
-34.4787
-37.3404
-48.7417
-35.6051
-34.4904
-37.3382
-48.7202
-28.4922
-95.683
-50.4042
-36.0353
-45.0759
-44.7612
-40.2579
-28.4922
-92.4963
-43.3482
-36.0353
-45.9852
-42.5074
-34.6413
71.1405
-81.7515
-40.1519
-41.3311
-46.0138
-38.3378
-34.7635
-11.3774
-67.9198
-54.2974
-65.4904
-43.2558
-42.7934
-38.9361
-16.2054
-126.144
-36.5345
-34.1517
-44.5317
-36.782
-31.6912
55.78
-34.5737
-31.7241
143.798
-33.3771
-32.3727
10.4775
-48.8485
-52.6185
-68.2797
-39.8272
-36.7327
-34.0606
-6.2578
-70.6406
-36.4182
-34.1141
-45.3067
-36.0329
-31.9584
26.4733
-33.2111
-30.2215
143.699
-33.3091
-32.4744
14.7621
-53.6238
-52.5933
-69.8147
-39.8732
-35.8735
-33.4752
-28.8991
-95.407
-50.408
-36.0428
-45.1938
-44.8941
-34.5332
-28.8991
-92.3984
-43.294
-36.0428
-46.0948
-42.6775
-34.5332
27.0564
-81.8492
-40.1295
-41.352
-46.0673
-38.4734
-34.8473
-11.2067
-67.7811
-54.3034
-65.4881
-43.3199
-41.3373
-36.1541
44.4966
-140.577
-50.8491
-39.431
-36.347
-37.7975
-46.2363
-65.1713
-34.5744
-50.2853
44.7277
-50.8452
-39.5745
-37.8368
-65.1445
-50.3281
-32.1504
-37.6917
-37.5545
-36.8304
-35.0151
-44.1998
7.63923
-74.1592
-32.1563
-37.7206
-36.8449
-44.2124
-63.1706
-63.1662
-51.7916
-35.3967
202.251
-32.6153
-32.6305
-33.8547
-99.9454
-44.5642
-44.6022
-37.1003
-48.3555
-27.7382
52.59
-169.747
-76.8078
-40.8071
-38.9654
-42.6463
11.6995
-12.0237
-62.9155
-40.0218
-35.3952
-46.645
-169.739
52.8465
-76.7072
-39.0471
-40.9474
-42.7341
-11.715
11.4474
-62.9502
-35.4347
-40.1142
-46.654
-39.6249
-32.6649
-36.0774
-37.1745
-36.2579
-32.7586
-34.7506
-34.5817
-49.5585
-36.3113
-40.2055
-5.37594
-49.9424
-39.8678
-46.4528
-70.8982
-39.6338
-37.16
-32.6745
-36.0848
-36.2745
-34.5868
-32.7663
-34.7659
-49.5176
-5.50675
-36.3385
-40.2177
-49.9856
-70.8914
-39.8714
-46.4717
-97.3281
184
-73.8719
185.819
-61.9599
-51.2353
-48.8383
-31.7817
-38.0735
-28.479
-42.6424
-37.2092
-42.5432
146.984
-63.8834
-42.3724
-40.3734
-33.1347
-46.815
-48.8751
-97.1999
183.913
-61.9559
-51.2191
-48.895
-31.9003
-42.6816
-37.2382
-63.8736
-42.329
-46.8579
-48.987
-30.8491
-33.4379
-48.6971
-30.9881
-41.4443
-34.9389
-35.333
-40.8357
-33.9544
-36.442
-36.9033
-87.6482
-18.2416
-25.5281
-87.2841
-59.8633
-30.8615
-33.4374
-48.6987
-30.9966
-35.3526
-40.8577
-36.9256
-87.6729
-96.8355
-48.1409
-49.3569
-98.3331
-96.6364
-98.2802
-49.3856
-48.1439
-73.2962
-73.2653
-41.1152
-41.1291
-42.7407
-24.3418
-24.3075
-42.77
158.134
164.793
164.947
158.243
-30.3292
-33.0213
-39.2135
-33.7771
-30.3404
-33.787
-39.2321
-33.01
-34.4413
-34.4354
-33.6162
-33.6153
-26.2503
-74.3227
-74.3238
-26.0715
-41.1345
-48.0317
-49.7693
-42.0832
-41.1587
-42.105
-49.819
-48.1066
-36.4956
-36.5052
-38.9125
-38.8688
-59.2405
-41.0916
-41.1116
-59.2463
-32.4179
-32.5977
-33.5994
-33.5477
46.1549
-161.315
-113.466
-42.6913
-41.6926
-43.5459
4.90731
20.8759
-49.4532
-40.7393
-37.6409
-43.9115
-161.425
48.5306
-114.016
-41.694
-42.8431
-43.7147
21.6209
7.87189
-49.751
-37.6735
-40.8226
-43.9733
-37.9319
-33.459
-35.0839
-36.4968
-36.8567
-33.9027
-36.2919
-34.4193
-42.4604
-36.4033
-37.7577
-28.9265
-49.0953
-42.6233
-47.5471
-57.7
-37.9283
-36.4821
-33.4697
-35.0928
-36.8789
-34.4289
-33.9088
-36.3125
-42.5079
-28.8826
-36.4166
-37.7526
-49.1137
-57.6924
-42.6205
-47.5592
49.7002
31.1245
-114.329
131.219
-147.027
-147.025
-97.5225
65.2451
-61.1366
-44.3145
-60.0767
-50.638
-40.5577
-39.5816
-45.5677
-33.3142
-37.0548
-37.102
-37.7745
-28.3424
-39.5983
-36.5274
-41.4841
-37.2906
-46.4882
-44.6042
-36.5891
111.715
-73.4895
-57.185
-64.989
-47.405
-34.6489
-34.6455
-37.4856
-33.289
-49.0452
-50.8815
-49.0604
-51.8067
49.7822
30.98
-114.214
130.232
-61.0869
-44.3187
-60.0711
-50.6216
-40.6917
-39.6794
-45.6641
-33.3987
-39.6526
-36.5558
-41.5253
-37.3284
-73.3614
-57.177
-64.9769
-47.3653
-49.0905
-50.9284
-49.1086
-51.8132
-32.0916
-32.3908
-30.475
-32.8329
-36.935
-37.2478
-44.0356
-32.1853
-37.4416
-37.441
-38.7718
-35.9911
-35.5289
-38.1783
-36.3168
-36.8298
-34.9354
-34.9367
-34.3725
-35.8317
-42.4347
-45.3773
-39.7395
-59.7353
3.91573
3.99394
-4.51534
-0.122421
-73.2516
-73.2533
-81.6185
-66.6042
-32.0989
-32.3966
-30.4897
-32.8365
-36.9487
-37.303
-44.0347
-32.1898
-35.5436
-38.1872
-36.3445
-36.8464
-42.4533
-45.4009
-39.7691
-59.7415
-78.3982
-62.702
-63.5692
-54.2993
-78.4158
-62.6991
-63.561
-54.2994
-60.0683
-51.5815
-51.5707
-45.84
-41.667
-37.4431
-37.3931
-27.2733
199.063
201.423
204.354
198.888
-31.6462
-31.6997
-34.0854
-34.3589
-31.6584
-31.7133
-34.0958
-34.3779
-33.766
-34.2033
-33.8151
-33.7654
-97.3973
-68.8211
-91.8692
-97.4159
-46.5185
-43.524
-45.5005
-43.2098
-46.5681
-43.5564
-45.5403
-43.2447
-37.9698
-37.1123
-37.1244
-36.4766
-43.7205
-48.4654
-48.4698
-53.6706
-28.4931
-25.3088
-28.874
-28.5834
-72.4418
128.487
-101.877
49.2137
-96.931
-72.8017
-45.0822
-33.9524
-39.212
-33.9355
-49.2371
-40.4583
-79.0145
104.892
-31.152
97.9507
-89.1848
-51.172
-45.0554
-34.0448
-37.8923
-33.466
-48.7011
-42.9753
-101.859
49.2308
-72.4276
128.549
-96.721
-72.7032
-39.2778
-34.1431
-45.1887
-33.9328
-49.3189
-40.5243
-31.3463
97.1693
-79.0968
104.74
-89.1312
-50.9968
-37.918
-33.5276
-45.1389
-34.1037
-48.7446
-42.9995
-46.6362
-40.5018
-30.8924
-33.6746
-44.3999
-32.1335
-38.5257
-35.4333
-38.6546
-36.5439
-31.3382
-33.1725
-34.4909
-33.4047
-34.0641
-35.8042
-49.5614
-36.0357
-43.7934
-33.0373
-36.2292
-58.9577
-15.1571
-7.36301
-45.1613
-60.8215
-39.9353
-40.1811
-42.039
-56.5984
-73.3606
-64.9402
-46.6419
-40.4928
-38.5069
-35.4762
-30.905
-33.6741
-44.4041
-32.1394
-38.8026
-36.5597
-34.0656
-35.811
-31.3472
-33.177
-34.5323
-33.4205
-49.5846
-36.0467
-14.9954
-7.41076
-43.7779
-33.0491
-36.2366
-58.9507
-45.1853
-60.8353
-73.3653
-64.9433
-39.957
-40.1976
-42.0593
-56.5867
-96.3117
-101.846
191.927
187.397
-73.6703
-73.6486
177.248
177.217
-79.3655
-52.8107
-59.4867
-45.4158
-48.438
-49.8084
-31.8162
-32.4857
-38.3286
-38.304
-29.2692
-29.2198
-41.6186
-44.8255
-36.4702
-38.3389
-42.3618
-42.3887
151.844
149.988
-55.1352
-79.1316
-45.288
-33.0077
-40.6046
-40.6095
-33.1359
-33.0996
-49.4503
-44.3529
-53.8228
-44.6008
-96.1544
-101.782
187.162
192.298
-79.3918
-52.8108
-59.4779
-45.4018
-49.8753
-48.4824
-31.9215
-32.5689
-41.6531
-44.8788
-36.4824
-38.377
-79.1054
-55.1266
-32.9936
-45.3283
-44.3848
-49.5036
-44.6226
-53.8261
-30.3178
-31.971
-33.7187
-33.423
-48.4542
-49.0692
-30.5781
-32.1611
-41.4023
-41.4119
-34.8095
-34.8101
-34.0832
-37.0777
-40.4685
-41.1066
-33.8702
-33.8706
-36.4728
-36.4766
-38.0575
-35.2005
-58.2251
-79.1929
-19.6705
-19.7386
-23.5191
-23.445
-85.6229
-85.6266
-59.6358
-59.6355
-30.3288
-31.9832
-33.7168
-33.4248
-49.0814
-48.4569
-30.587
-32.1702
-37.0946
-34.1057
-40.4953
-41.1312
-35.219
-38.0783
-79.1526
-58.2034
-84.6861
-78.6367
-78.8931
-85.7389
-44.1091
-44.1978
-53.6876
-51.283
-42.8471
-56.2566
-54.7735
-43.8894
-65.2849
-85.768
-78.9168
-82.4199
-84.8449
-85.8389
-78.9155
-78.7224
-65.5064
-82.3212
-78.9116
-85.6595
-42.8535
-43.8642
-54.772
-56.2488
-44.1109
-51.2855
-53.6876
-44.2033
-104.613
-98.7365
-59.8401
-59.033
-104.985
-58.9881
-59.8333
-98.7221
-38.0164
-38.7848
-45.5993
-44.6969
-38.0334
-44.7079
-45.6079
-38.7934
-34.7619
-51.6436
-41.8123
-34.9867
-34.0693
-6.81287
-29.0097
-43.3812
-34.1097
-43.3845
-28.9542
-6.98584
-34.9226
-34.9387
-41.8632
-51.6019
68.2376
135.975
198.514
44.9656
48.1681
115.158
200.406
122.006
48.0302
121.798
200.198
114.278
68.0317
44.8105
198.532
135.01
-33.1545
-30.4729
-30.7383
-32.803
-34.3718
-35.0843
-33.0639
-31.4042
-42.4722
-40.984
-35.6791
-37.9714
-34.846
-32.3107
-33.1452
-38.0195
-33.1626
-32.8124
-30.7514
-30.483
-34.8502
-38.0435
-33.16
-32.3182
-42.4972
-37.9951
-35.6962
-41.0118
-34.3853
-31.4149
-33.0703
-35.1089
-34.6693
-35.9657
-34.0925
-32.991
-34.7275
-32.9917
-34.0927
-35.9686
-33.7224
-34.3052
-33.6971
-32.905
-33.7162
-32.8989
-33.6973
-34.3052
-43.8624
-59.6905
-59.5262
-0.383894
-56.319
-80.3537
-90.8713
-57.6058
-56.3111
-57.601
-90.8733
-80.357
-43.8812
-0.345501
-59.502
-60.0718
-32.9469
-39.7053
-42.291
-35.8194
-45.2999
-45.5703
-45.6258
-44.4308
-44.9752
-50.3934
-47.3778
-45.5211
-43.8979
-37.9633
-43.7808
-46.9288
-32.968
-35.8336
-42.3274
-39.7444
-43.9233
-46.9636
-43.8128
-37.9806
-45.0439
-45.6057
-47.4248
-50.4478
-45.4017
-44.4985
-45.676
-45.705
-35.3265
-35.8106
-36.4589
-36.4162
-35.3363
-36.4343
-36.4657
-35.8141
-40.5564
-38.2036
-38.1258
-38.4869
-40.4554
-38.4357
-38.1061
-38.1728
-55.6357
-56.1847
-53.6795
-65.9765
-39.8026
-37.5936
-43.9249
-46.7265
-39.8365
-46.7412
-43.9326
-37.604
-55.6418
-65.9771
-53.6879
-56.126
-34.5679
-29.486
-27.3326
-33.3318
-34.7685
-33.4625
-27.4753
-29.8899
-34.7396
-33.3948
-29.9305
-33.5583
-34.6874
-33.4895
-29.8533
-33.3696
-11.5139
-107.203
-169.88
-44.4133
-43.6427
-45.3088
-11.9306
15.1078
-43.4615
-41.5843
-38.8724
-42.4771
-106.681
-12.7331
-169.725
-43.7056
-44.5716
-45.3913
15.4728
-11.8256
-43.7459
-38.9409
-41.6643
-42.5298
-37.7515
-34.6832
-33.1143
-36.1763
-34.6363
-33.6649
-36.2067
-34.4113
-38.723
-36.9892
-36.761
-38.5807
-48.9299
-45.3728
-48.1315
-52.7212
-37.7495
-36.1796
-34.6926
-33.1166
-34.6592
-34.422
-33.6733
-36.1424
-38.7394
-38.5505
-36.9904
-36.774
-48.9839
-52.7173
-45.3656
-48.1225
45.2169
45.45
-48.9595
72.6789
-141.273
-141.087
-116.508
-10.386
-55.2013
-47.1954
-58.7768
-50.0838
-39.5508
-40.1926
-42.2521
-34.5801
-36.5177
-36.5417
-37.0531
-32.3801
-38.5007
-36.9883
-39.7071
-37.407
-47.1578
-46.495
-29.8929
44.2192
-71.3731
-63.144
-66.4244
-57.0131
-34.5194
-34.5332
-36.0661
-33.5026
-49.5851
-50.7435
-49.2107
-51.2736
45.482
45.3809
-49.1687
72.493
-55.1919
-47.1953
-58.7652
-50.0747
-39.64
-40.4824
-42.3582
-34.6783
-38.5435
-37.0177
-39.7198
-37.4419
-71.3494
-63.1174
-66.4047
-56.9604
-49.6349
-50.7837
-49.2581
-51.2919
-32.1183
-32.1215
-30.8156
-32.5161
-37.4279
-37.5553
-40.4373
-34.7598
-37.5079
-37.5072
-38.5797
-36.7616
-36.1433
-37.5033
-36.5329
-36.9389
-35.0007
-35.0012
-34.6466
-35.3812
-43.4875
-44.5389
-41.5472
-51.5854
6.33794
6.34489
1.91564
7.10991
-74.011
-74.0122
-78.1125
-70.0514
-32.1249
-32.1262
-30.8301
-32.5182
-37.4481
-37.5838
-40.4261
-34.7831
-36.1565
-37.5176
-36.5534
-36.9585
-43.4676
-44.5708
-41.5768
-51.5955
-69.7948
-62.9195
-63.3775
-58.0689
-69.7941
-62.9156
-63.3713
-58.0667
-55.4084
-51.6254
-51.6202
-48.6428
-39.1681
-35.774
-35.7561
-31.471
201.336
201.775
203.448
201.78
-32.0431
-32.2397
-33.408
-33.4354
-32.0562
-32.2509
-33.4251
-33.4545
-33.8539
-34.0385
-33.7649
-33.8532
-99.9464
-93.1637
-95.8211
-99.9637
-45.3948
-44.0414
-45.0144
-43.9143
-45.438
-44.0782
-45.0534
-43.9495
-37.4941
-37.055
-37.0616
-36.7719
-45.8491
-48.3741
-48.3754
-50.8095
-27.8205
-26.8065
-28.9508
-27.8908
45.8726
55.0717
-25.0418
84.3814
-176.317
-159.835
-122.043
-25.2225
-91.8002
-68.4457
-98.3851
-73.2344
-42.2835
-40.0385
-42.9003
-35.1812
-40.5693
-37.8705
-38.8983
-35.506
-43.0129
-40.7794
-48.304
-41.1113
4.64006
23.9785
-61.5826
75.1053
1.48396
-36.2047
-18.7661
10.6903
-59.3643
-66.3536
-77.0923
-54.3249
-40.2743
-39.9632
-42.1017
-35.3715
-36.0123
-34.8744
-36.4418
-34.3602
-46.0432
-47.7765
-47.8816
-44.3095
-176.146
-159.879
-122.224
-25.3752
45.893
55.2292
-24.8825
84.8844
-91.9385
-68.334
-98.1831
-73.0964
-40.6363
-37.9333
-38.9738
-35.6944
-42.4313
-40.1589
-43.0304
-35.5313
-43.1343
-40.8509
-48.3042
-41.1828
1.68524
-35.0755
-18.8056
10.0145
5.02408
23.7301
-61.5855
75.072
-59.4527
-66.2165
-77.1496
-53.9265
-36.071
-34.9019
-36.4748
-34.4079
-40.363
-40.0616
-42.1885
-35.4411
-46.074
-47.838
-47.9037
-44.3294
-38.3837
-41.6397
-40.7722
-40.2333
-32.7928
-32.3881
-31.5103
-33.2252
-35.9661
-36.3755
-39.567
-34.2096
-36.9249
-37.312
-38.5681
-36.1709
-36.0064
-36.0639
-37.1028
-36.5149
-33.2506
-32.4411
-30.5533
-32.8663
-34.7615
-35.0235
-34.7478
-34.5084
-34.4364
-34.8423
-34.3139
-35.1016
-47.701
-53.41
-50.4837
-45.1507
-35.7877
-36.9266
-39.9377
-33.9253
-38.8552
-41.3418
-37.8766
-48.2261
-13.0863
0.463867
-9.4334
-3.81083
-49.621
-50.5703
-47.198
-53.8849
-41.0676
-38.921
-39.9243
-39.8929
-46.7789
-46.2114
-44.0439
-51.8913
-65.5476
-72.5164
-73.1107
-68.7019
-38.3865
-41.6464
-40.784
-40.2313
-36.8734
-37.3105
-38.5594
-36.1869
-32.8027
-32.3961
-31.5238
-33.2338
-35.9741
-36.3853
-39.5737
-34.2212
-36.0226
-36.0867
-36.5766
-36.5346
-34.4439
-34.8448
-34.3166
-35.1077
-33.2577
-32.4486
-30.5655
-32.8731
-34.7791
-35.038
-34.7658
-34.5244
-47.7013
-53.4074
-50.5013
-45.1923
-13.1862
0.461704
-9.53695
-3.88147
-35.8269
-36.9304
-39.9472
-33.9492
-38.8579
-41.3525
-37.8842
-48.18
-49.7648
-50.6108
-47.2282
-53.9028
-65.5317
-72.5188
-73.1152
-68.6903
-41.0756
-38.9244
-39.9342
-39.9078
-46.7952
-46.2295
-44.064
-51.8953
-108.431
-91.0353
-95.9262
-99.6083
168.786
197.498
185.779
186.416
-82.9605
-65.7462
-73.157
-73.1476
135.604
201.31
184.561
184.52
-61.3123
-62.2651
-68.8856
-56.7397
-50.8296
-51.6349
-54.8936
-48.254
-47.7723
-48.2612
-48.6042
-49.0727
-32.7614
-29.6897
-31.8092
-31.9938
-38.2215
-38.1442
-38.1476
-38.1355
-27.6476
-26.2362
-28.7543
-28.8012
-42.5232
-43.0062
-41.7945
-43.5904
-37.2776
-37.1616
-36.7941
-37.6371
-40.1025
-42.6447
-42.7526
-42.7614
126.52
185.414
146.093
149.372
-64.1447
-63.7762
-58.9308
-70.1964
-44.2796
-40.8969
-45.0363
-38.2559
-38.898
-41.9061
-40.4859
-40.4904
-33.3903
-30.3709
-32.9682
-32.9479
-47.9076
-46.0818
-47.9167
-46.0129
-49.7785
-48.664
-51.1958
-46.5587
-108.348
-91.0703
-95.7989
-99.4866
168.53
197.688
186.205
185.885
-61.3079
-62.2618
-68.8854
-56.7382
-50.8138
-51.6236
-54.8793
-48.2387
-47.8719
-48.3197
-49.1408
-48.6491
-32.8365
-29.8274
-31.9231
-32.0913
-42.5592
-43.0302
-41.8538
-43.6191
-37.3191
-37.1807
-36.815
-37.6686
-64.135
-63.7657
-70.1823
-58.9236
-44.2494
-40.7802
-38.2552
-44.968
-47.9559
-46.1225
-46.0486
-47.9662
-49.7599
-48.6701
-46.5594
-51.2012
-30.5664
-31.2019
-30.4958
-31.3192
-33.1718
-33.6334
-33.5769
-33.3525
-46.8829
-51.2612
-48.577
-48.8548
-31.2321
-31.2612
-30.4388
-31.5463
-39.2811
-43.5563
-41.4607
-41.466
-35.3877
-34.5025
-34.8969
-34.8963
-35.9774
-34.7473
-34.5378
-36.1548
-37.5768
-42.8084
-40.5229
-40.9828
-34.1719
-33.8378
-33.9024
-33.903
-36.5299
-36.1712
-36.4793
-36.4815
-38.2215
-35.5638
-37.3651
-36.0706
-75.8764
-93.8698
-70.9064
-82.3546
-10.8198
-23.2954
-18.6937
-18.7053
-11.657
-42.4222
-24.3953
-24.2729
-84.7006
-89.6049
-86.9035
-86.9052
-62.923
-56.5636
-59.8617
-59.8513
-30.5817
-31.214
-30.5074
-31.3309
-33.1729
-33.6327
-33.5762
-33.353
-46.8835
-51.2622
-48.8521
-48.5796
-31.2383
-31.2729
-30.4469
-31.555
-35.9888
-34.7675
-36.1712
-34.5595
-37.5967
-42.8374
-40.5439
-41.0074
-38.2475
-35.5843
-36.0917
-37.3875
-75.7405
-93.8833
-82.2449
-70.9346
-101.439
-96.0927
-96.8071
-92.4242
-48.024
-47.2561
-49.8897
-48.1878
-49.3346
-46.6507
-52.2678
-49.2331
-88.7562
-95.8059
-101.655
-91.5371
-101.267
-95.8636
-96.6434
-92.3799
-88.7164
-95.7331
-101.591
-91.5078
-49.35
-46.6474
-52.2709
-49.2594
-48.0274
-47.2584
-49.8916
-48.191
-84.9228
-72.8566
-74.4335
-65.0747
-84.7776
-72.8353
-74.412
-65.0737
-40.7748
-38.8743
-43.1144
-41.2865
-40.7867
-38.8913
-43.1281
-41.2998
-39.6971
-46.4658
-41.1861
-43.7001
-28.7163
-21.2644
-28.3064
-21.6575
-28.715
-21.2674
-28.3075
-21.7017
-39.7742
-46.4345
-41.2317
-43.735
160.236
121.347
184.877
164.587
145.424
137.429
182.133
153.964
137.067
145.248
155.757
182.205
121.625
160.131
164.729
184.941
-30.4849
-30.9857
-30.1911
-30.516
-32.4317
-33.8192
-32.3102
-33.7079
-39.7127
-40.6983
-38.058
-38.6467
-33.2448
-34.9349
-32.8956
-34.3655
-30.4955
-30.9903
-30.2017
-30.5264
-33.2517
-34.9437
-32.9052
-34.38
-39.732
-40.7183
-38.0754
-38.6665
-32.4272
-33.8393
-32.3166
-33.7185
-34.1211
-34.8598
-34.0391
-34.6569
-34.8627
-34.1064
-34.6585
-34.0359
-33.8424
-33.3668
-33.7232
-33.4839
-33.3648
-33.841
-33.4818
-33.7248
-45.4793
-15.9973
-42.1467
-23.6078
-64.1078
-74.772
-77.1555
-82.907
-74.7675
-64.0944
-82.9079
-77.165
-15.9618
-45.4929
-23.6468
-42.1286
-40.595
-37.2401
-41.5359
-40.6393
-47.1364
-48.6013
-48.3415
-46.9512
-47.8079
-49.3081
-49.921
-50.9587
-43.6607
-40.7407
-43.0026
-41.366
-40.6246
-37.244
-41.5774
-40.6701
-43.6839
-40.7587
-43.0312
-41.3892
-47.8657
-49.3538
-49.9836
-51.0278
-47.2175
-48.6814
-48.3917
-47.0117
-36.5529
-36.5903
-36.0899
-36.4693
-36.5664
-36.599
-36.0991
-36.4758
-39.5066
-39.3447
-38.5959
-38.7732
-39.4519
-39.2915
-38.5596
-38.7333
-60.8902
-62.1362
-56.4477
-59.487
-39.4963
-41.8584
-40.6839
-42.7457
-39.5189
-41.8807
-40.7106
-42.7544
-60.9533
-62.1557
-56.4296
-59.4933
-33.9252
-32.4491
-31.9853
-29.9411
-32.6991
-34.0021
-30.04
-32.1351
-33.7182
-33.7416
-33.1791
-32.9643
-33.6908
-33.6719
-32.8958
-33.1201
-66.1278
56.5039
-131.782
4.28926
-101.842
-106.672
-44.1843
-36.1737
-40.1665
-36.546
-45.2467
-41.8801
-63.7628
57.0957
-18.8913
27.7929
-58.5631
-38.4946
-42.2985
-36.4162
-38.3189
-35.5869
-44.6299
-41.6604
-131.932
9.6014
-66.5385
55.9551
-102.181
-107.736
-40.2389
-36.675
-44.3056
-36.415
-45.3609
-42.0569
-18.6681
27.6773
-63.8787
57.1872
-58.8292
-39.4081
-38.3656
-35.601
-42.3723
-36.4935
-44.7062
-41.7013
-37.7114
-37.994
-30.314
-34.248
-39.9469
-34.5608
-37.8477
-35.4883
-35.4945
-35.1199
-33.5952
-33.5965
-34.7847
-33.7133
-34.035
-34.9358
-42.9623
-42.09
-39.3978
-34.9922
-36.2442
-46.1855
-30.3465
-31.569
-46.4584
-52.3076
-42.3659
-43.0988
-44.4877
-52.101
-56.8487
-56.8193
-37.7086
-37.9864
-37.8382
-35.5018
-30.3211
-34.2666
-39.9514
-34.57
-35.6163
-35.1328
-34.043
-34.9463
-33.6035
-33.6037
-34.8013
-33.7297
-43.0001
-42.0919
-30.4093
-31.4414
-39.4026
-34.9969
-36.2423
-46.1837
-46.4878
-52.3262
-56.8408
-56.8161
-42.3782
-43.1178
-44.5143
-52.0892
-10.393
78.9254
-45.8618
74.4528
-98.7776
-85.8665
129.714
124.463
-118.391
24.2265
-118.404
24.3167
-97.7731
-97.7734
96.009
95.9191
-75.0348
-58.7036
-49.681
-44.2879
-67.5165
-55.2497
-54.3301
-47.5208
-42.4127
-34.5888
-42.35
-34.7035
-45.5438
-45.6783
-33.2989
-33.3693
-37.5349
-32.9436
-37.572
-32.5952
-37.8653
-37.8493
-28.816
-28.8478
-42.2953
-38.726
-38.4298
-36.3757
-41.1184
-41.9411
-36.7822
-37.8537
-25.534
66.4568
-25.3193
58.7828
-36.4984
-36.4613
123.366
122.279
-82.1224
-58.2334
-57.5105
-53.1084
-59.704
-71.9526
-49.3077
-44.9774
-36.1003
-33.6365
-36.115
-33.6579
-37.5473
-37.5529
-33.315
-33.3021
-49.3663
-47.9498
-48.7751
-53.3843
-50.0086
-48.3331
-54.3395
-49.7308
-11.9085
78.5266
-45.8739
74.4652
-98.5819
-85.2751
123.987
133.704
-75.1167
-58.6365
-49.6827
-44.285
-67.5072
-55.2499
-54.306
-47.5092
-42.525
-34.6889
-42.4506
-34.789
-45.7608
-45.657
-33.3831
-33.4465
-41.9662
-38.7797
-38.4654
-36.3996
-41.1688
-41.9824
-36.809
-37.8956
-81.9996
-58.1476
-57.4947
-53.1213
-71.9493
-59.6924
-44.9646
-49.278
-49.4312
-47.9756
-48.8241
-53.3729
-48.3786
-50.085
-49.7448
-54.3371
-31.3768
-32.6131
-32.5652
-32.6326
-30.3648
-30.8763
-32.9117
-32.7437
-40.2137
-34.983
-40.5564
-33.9053
-44.1582
-43.9066
-32.6403
-32.1479
-38.5594
-36.6302
-38.5557
-36.6323
-38.828
-38.8328
-35.9984
-35.9994
-35.1991
-35.5909
-38.0565
-38.2653
-35.6085
-37.1138
-36.4891
-37.1421
-34.5735
-35.3496
-34.5737
-35.3518
-34.3651
-34.3657
-35.8047
-35.8063
-39.8295
-49.9844
-42.5561
-52.2093
-40.3915
-38.9865
-60.6094
-58.3576
-1.15835
4.62914
-1.21276
4.66484
-5.19402
-5.20905
0.172115
0.438474
-77.0034
-69.6013
-77.006
-69.6006
-81.3133
-81.3141
-66.4864
-66.4872
-31.3851
-32.6193
-32.5699
-32.64
-30.3706
-30.8922
-32.9145
-32.7489
-40.2266
-34.9899
-40.4918
-33.9945
-43.9102
-44.1594
-32.6474
-32.1499
-35.2336
-35.6056
-38.0735
-38.2801
-37.1348
-35.6359
-36.5064
-37.1586
-39.8586
-49.9883
-42.587
-52.2139
-39.0157
-40.4214
-58.3623
-60.6276
-78.6108
-78.6373
-69.5386
-57.4781
-58.5863
-69.975
-53.9592
-54.5276
-78.6325
-78.6421
-69.5416
-57.4779
-69.9677
-58.5812
-54.5274
-53.9587
-59.8322
-59.8297
-55.2499
-48.5756
-55.2411
-48.5653
-45.7932
-45.7977
-41.9131
-41.917
-41.5706
-33.2443
-33.2139
-41.5293
-27.6746
-27.6599
199.008
201.1