# vtk DataFile Version 2.0
tet_velo
ASCII
DATASET UNSTRUCTURED_GRID
POINTS 29498 float
-0.680283 0.215 -2.115
-0.778982 0.265 2.175
-0.725 0.715 -1.98599
-0.795 0.775 2.0433
0.680279 0.215 -2.115
0.778971 0.265 2.175
0.725 0.715 -1.98599
0.795 0.775 2.0433
-0.77661 0.16824 -0.685
-0.81124 0.183176 0.745
-0.806605 0.793271 -0.642894
-0.824465 0.807798 0.700203
0.776605 0.168238 -0.685
0.811252 0.183155 0.745
0.806607 0.793274 -0.642894
0.824434 0.807767 0.700203
-1.46212 -0.100296 -3.23933
-1.46752 -0.0908608 -2.13014
-1.54558 -0.1202 -0.697892
-1.59775 -0.110762 0.751845
-1.5918 -0.0515562 2.18556
-1.58497 -0.0225783 3.30197
-1.58386 -0.00852404 4.40503
-1.45789 0.183152 -3.20607
-1.46193 0.206234 -2.10637
-1.55784 0.181902 -0.691031
-1.60773 0.184093 0.732128
-1.58749 0.232982 2.14913
-1.58149 0.26024 3.26431
-1.58248 0.275191 4.3702
-1.47742 0.724826 -3.11515
-1.4948 0.748174 -2.01186
-1.58283 0.791752 -0.655765
-1.62131 0.794662 0.694172
-1.59991 0.781336 2.05193
-1.58869 0.808245 3.17071
-1.58637 0.833594 4.29061
-1.5167 1.58979 -3.04412
-1.53296 1.62046 -1.95384
-1.5722 1.66793 -0.625922
-1.60349 1.68693 0.683265
-1.60949 1.68038 2.01209
-1.6038 1.68344 3.10427
-1.59789 1.69778 4.21468
-0.710196 -0.0963011 -3.24494
-0.697715 -0.085523 -2.13832
-0.759961 -0.127582 -0.696795
-0.801943 -0.111106 0.762831
-0.796061 -0.032675 2.20477
-0.789175 -0.00932147 3.31501
-0.788323 -0.00127429 4.41257
-0.707325 0.183741 -3.2078
-0.78299 0.27297 3.27506
-0.785812 0.281552 4.37589
-0.722581 0.712222 -3.10441
-0.788305 0.808958 3.16898
-0.788187 0.835089 4.29024
-0.746083 1.58239 -3.03349
-0.753044 1.61407 -1.94213
-0.779838 1.66863 -0.618865
-0.804718 1.69012 0.682419
-0.810469 1.67983 2.00604
-0.805296 1.68164 3.09823
-0.800169 1.6965 4.21029
0.740421 -0.0963027 -3.24494
0.737634 -0.0855243 -2.13832
0.787241 -0.127586 -0.696795
0.80198 -0.111121 0.762831
0.782852 -0.0326815 2.20477
0.792427 -0.00932769 3.31501
0.798457 -0.00128187 4.41257
0.726775 0.18374 -3.2078
0.796064 0.272966 3.27506
0.801298 0.281545 4.37589
0.73965 0.712221 -3.10441
0.8012 0.808954 3.16898
0.803106 0.835082 4.29024
0.780021 1.58239 -3.03349
0.79067 1.61407 -1.94213
0.801638 1.66863 -0.618865
0.80007 1.69011 0.682418
0.794043 1.67982 2.00604
0.794242 1.68163 3.09823
0.795783 1.69649 4.21029
1.48233 -0.1003 -3.23933
1.48412 -0.0908652 -2.13014
1.55561 -0.120212 -0.697892
1.59657 -0.110789 0.751845
1.58575 -0.0515745 2.18556
1.58765 -0.0225936 3.30197
1.59224 -0.00854067 4.40503
1.46609 0.183149 -3.20607
1.45441 0.206232 -2.10637
1.55115 0.181892 -0.691032
1.60571 0.184061 0.732128
1.58856 0.232967 2.14913
1.59061 0.260226 3.26431
1.595 0.275175 4.3702
1.48279 0.724823 -3.11515
1.48562 0.748172 -2.01186
1.57469 0.791743 -0.655765
1.6184 0.794624 0.694172
1.60072 0.781319 2.05193
1.59742 0.808231 3.17071
1.59816 0.833577 4.29061
1.543 1.58978 -3.04412
1.55929 1.62045 -1.95384
1.58591 1.66792 -0.625923
1.59807 1.68691 0.683265
1.59553 1.68036 2.01209
1.59364 1.68342 3.10427
1.59311 1.69776 4.21468
-0.74256 0.465 -2.09041
-1.99676e-06 0.207908 -2.12209
-0.730956 0.18911 -1.4
-0.822526 0.52 2.14469
-5.48363e-06 0.252054 2.18795
-0.817753 0.201446 1.46
0 0.799825 -2.07082
-0.794265 0.782598 -1.31444
0 0.895214 2.16351
-0.824891 0.806558 1.37175
0.742606 0.465 -2.09046
0.731095 0.188967 -1.4
0.822483 0.52 2.14465
0.81803 0.201159 1.46
0.794298 0.782631 -1.31444
0.824886 0.806553 1.37175
-0.797482 0.17215 0.03
-0.859196 0.480756 -0.663947
-2.37933e-06 0.171384 -0.685
-0.883475 0.495487 0.722602
6.14425e-06 0.17149 0.745
-0.816047 0.801047 0.0286549
1.16694e-06 1.22667 -0.642894
-1.55575e-05 1.34788 0.700203
0.797505 0.17212 0.03
0.859198 0.480756 -0.663947
0.883468 0.495461 0.722602
0.81605 0.80105 0.0286549
-0.813153 0.472878 -1.35722
-0.876299 0.488121 0.0293275
-0.892046 0.507744 1.41588
-2.18804e-06 0.178574 -1.4
1.88246e-06 0.17128 0.03
3.30313e-07 0.193702 1.46
-9.98378e-07 0.465 -2.32041
-2.74181e-06 0.52 2.34882
5.8347e-07 0.904519 -1.31444
-7.19526e-06 1.35417 0.0286549
-7.77873e-06 1.18953 1.37175
0.813172 0.472878 -1.35722
0.876295 0.488109 0.0293275
0.892047 0.507731 1.41588
-1.07111 0.210617 -2.11068
-0.688999 0.0647385 -2.12666
-0.693804 0.199371 -2.6614
-1.18324 0.248991 2.16207
-0.787522 0.116162 2.18989
-0.780986 0.268985 2.72503
-1.1099 0.731587 -1.99892
-0.723791 0.713611 -2.5452
-0.739022 1.16454 -1.96406
-1.19745 0.778168 2.04762
-0.791653 0.791979 2.60614
-0.802735 1.22742 2.02467
0.708956 0.0647379 -2.12666
0.703527 0.19937 -2.6614
1.06735 0.210616 -2.11068
0.780911 0.116159 2.18989
0.787517 0.268983 2.72503
1.18377 0.248984 2.16207
0.732325 0.71361 -2.5452
0.757835 1.16453 -1.96406
1.10531 0.731586 -1.99892
0.7981 0.791977 2.60614
0.794521 1.22741 2.02467
1.19786 0.778159 2.04762
-1.16722 0.175071 -0.688016
-0.768285 0.020329 -0.690897
-1.20949 0.183635 0.738564
-0.806591 0.036035 0.753916
-1.19472 0.792512 -0.649329
-0.793221 1.23095 -0.630879
-1.22289 0.80123 0.697188
-0.814591 1.24896 0.691311
0.781923 0.0203259 -0.690897
1.16388 0.175065 -0.688016
0.806616 0.0360168 0.753916
1.20848 0.183608 0.738564
0.804123 1.23095 -0.63088
1.19065 0.792509 -0.649329
0.812252 1.24894 0.691311
1.22142 0.801196 0.697188
-1.46482 -0.0955783 -2.68474
-1.46001 0.0414281 -3.2227
-1.08616 -0.0982985 -3.24214
-1.50655 -0.10553 -1.41402
-1.46473 0.0576866 -2.11825
-1.08262 -0.0881919 -2.13423
-1.57166 -0.115481 0.0269765
-1.55171 0.0308512 -0.694462
-1.15277 -0.123891 -0.697343
-1.59477 -0.0811589 1.4687
-1.60274 0.0366659 0.741987
-1.19984 -0.110934 0.757338
-1.58839 -0.0370673 2.74377
-1.58965 0.0907131 2.16735
-1.19393 -0.0421156 2.19517
-1.58441 -0.0155512 3.8535
-1.58323 0.118831 3.28314
-1.18707 -0.0159499 3.30849
-1.58317 0.133334 4.38762
-1.18609 -0.00489916 4.4088
-1.45991 0.194693 -2.65622
-1.46766 0.453989 -3.16061
-1.08261 0.183447 -3.20693
-1.50988 0.194068 -1.3987
-1.47836 0.477204 -2.05911
-1.58279 0.182998 0.0205484
-1.57034 0.486827 -0.673398
-1.59761 0.208538 1.44063
-1.61452 0.489378 0.71315
-1.58449 0.246611 2.70672
-1.5937 0.507159 2.10053
-1.58199 0.267715 3.81726
-1.58509 0.534242 3.21751
-1.18224 0.266605 3.26969
-1.58442 0.554392 4.33041
-1.18415 0.278372 4.37305
-1.48611 0.7365 -2.56351
-1.49706 1.15731 -3.07964
-1.1 0.718524 -3.10978
-1.53882 0.769963 -1.33381
-1.51388 1.18432 -1.98285
-1.60207 0.793207 0.0192033
-1.57752 1.22984 -0.640844
-1.61061 0.787999 1.37305
-1.6124 1.2408 0.688719
-1.5943 0.794791 2.61132
-1.6047 1.23086 2.03201
-1.58753 0.820919 3.73066
-1.59625 1.24584 3.13749
-1.1885 0.808602 3.16984
-1.59213 1.26568 4.25264
-1.18728 0.834342 4.29043
-1.52483 1.60513 -2.49898
-1.13139 1.58609 -3.03881
-1.55258 1.6442 -1.28988
-1.143 1.61726 -1.94799
-1.58785 1.67743 0.0286716
-1.17602 1.66828 -0.622394
-1.60649 1.68366 1.34768
-1.20411 1.68853 0.682842
-1.60664 1.68191 2.55818
-1.20998 1.68011 2.00907
-1.60085 1.69061 3.65947
-1.20455 1.68254 3.10125
-1.19903 1.69714 4.21249
-0.703956 -0.090912 -2.69163
-0.708761 0.0437202 -3.22637
0.0151125 -0.0963019 -3.24494
-0.728838 -0.106552 -1.41756
0.0199594 -0.0855236 -2.13832
-0.780952 -0.119344 0.0330182
0.01364 -0.127584 -0.696795
-0.799002 -0.0718904 1.4838
1.84238e-05 -0.111114 0.762831
-0.792618 -0.0209982 2.75989
-0.0066046 -0.0326782 2.20477
-0.788749 -0.00529788 3.86379
-0.786082 0.131824 3.29503
0.00162588 -0.00932458 3.31501
-0.787068 0.140139 4.39423
0.00506662 -0.00127808 4.41257
-0.714953 0.447982 -3.1561
0.00972485 0.183741 -3.2078
-0.784401 0.277261 3.82548
-0.785647 0.540964 3.22202
0.00653688 0.272968 3.27506
-0.787 0.558321 4.33307
0.00774283 0.281549 4.37589
-0.734332 1.14731 -3.06895
0.00853463 0.712221 -3.10441
-0.788246 0.822024 3.72961
-0.796801 1.2453 3.1336
0.00644752 0.808956 3.16898
-0.794178 1.26579 4.25027
0.00745941 0.835086 4.29024
-0.749564 1.59823 -2.48781
0.0169691 1.58239 -3.03349
-0.766441 1.64135 -1.2805
0.018813 1.61407 -1.94213
-0.792278 1.67938 0.0317766
0.0109003 1.66863 -0.618865
-0.807594 1.68498 1.34423
-0.0023241 1.69011 0.682418
-0.807883 1.68073 2.55214
-0.00821324 1.67982 2.00604
-0.802733 1.68907 3.65426
-0.00552707 1.68163 3.09823
-0.00219331 1.69649 4.21029
0.739027 -0.0909135 -2.69163
0.733598 0.0437188 -3.22637
1.11138 -0.0983016 -3.24214
0.762437 -0.106555 -1.41756
1.11088 -0.0881947 -2.13423
0.79461 -0.119354 0.0330182
1.17143 -0.123899 -0.697343
0.792416 -0.0719015 1.4838
1.19928 -0.110955 0.757338
0.787639 -0.0210046 2.75989
1.1843 -0.042128 2.19517
0.795442 -0.00530478 3.86379
0.794245 0.131819 3.29503
1.19004 -0.0159607 3.30849
0.799877 0.140132 4.39423
1.19535 -0.00491127 4.4088
0.733212 0.447981 -3.1561
1.09643 0.183445 -3.20693
0.798681 0.277255 3.82548
0.798632 0.54096 3.22202
1.19334 0.266596 3.26969
0.802202 0.558314 4.33307
1.19815 0.27836 4.37305
0.759836 1.1473 -3.06895
1.11122 0.718522 -3.10978
0.802153 0.822018 3.72961
0.797721 1.24529 3.1336
1.19931 0.808593 3.16984
0.799444 1.26578 4.25027
1.20063 0.83433 4.29043
0.785346 1.59823 -2.48781
1.16151 1.58608 -3.03881
0.796154 1.64135 -1.2805
1.17498 1.61726 -1.94799
0.800854 1.67937 0.0317765
1.19377 1.66827 -0.622394
0.797056 1.68496 1.34423
1.19907 1.68851 0.682842
0.794143 1.68072 2.55214
1.19479 1.68009 2.00907
0.795012 1.68906 3.65426
1.19394 1.68252 3.10125
1.19445 1.69712 4.21249
1.48323 -0.0955828 -2.68474
1.47421 0.0414242 -3.2227
1.51987 -0.105539 -1.41402
1.46927 0.0576834 -2.11825
1.57609 -0.1155 0.0269765
1.55338 0.0308399 -0.694462
1.59116 -0.0811818 1.4687
1.60114 0.0366362 0.741986
1.5867 -0.0370841 2.74377
1.58716 0.0906963 2.16735
1.58995 -0.0155672 3.8535
1.58913 0.118816 3.28314
1.59362 0.133317 4.38762
1.46025 0.19469 -2.65622
1.47444 0.453986 -3.16061
1.50278 0.194062 -1.3987
1.47001 0.477202 -2.05911
1.57843 0.182977 0.0205483
1.56292 0.486818 -0.673398
1.59714 0.208514 1.44063
1.61206 0.489343 0.71315
1.58959 0.246597 2.70672
1.59464 0.507143 2.10053
1.59281 0.267701 3.81726
1.59401 0.534229 3.21751
1.59658 0.554376 4.33041
1.4842 0.736498 -2.56351
1.51289 1.1573 -3.07964
1.53015 0.769958 -1.33381
1.52245 1.18431 -1.98285
[...]
POINT_DATA 29498
VECTORS point_vectors float
-1.14471 -2.10788 5.56207
0.213211 0.286635 1.29578
-1.47645 0.579678 3.31264
0.191071 -0.0786881 1.10608
1.1419 -2.10398 5.55807
-0.212702 0.285415 1.29311
1.47584 0.588514 3.323
-0.190333 -0.077171 1.10493
0.0117501 -0.0236065 0.961063
0.0400678 -0.0351691 0.322847
0 0 0
0.000534297 0.000851778 0.0036926
-0.0116536 -0.0232126 0.960817
-0.040227 -0.0352569 0.3238
0 0 0
-0.000307512 0.000490723 0.00211837
-0.57691 -0.240008 19.8162
-1.20322 -0.667266 20.4137
-0.551484 -0.404291 21.2488
-0.0205538 -0.0878588 21.4568
0.51028 0.216273 21.3219
0.725584 0.308268 21.0985
0.670607 0.0874334 20.6381
-0.669066 -0.175695 19.7158
-1.63706 -0.564809 20.376
-0.728047 -0.428868 21.3136
-0.0564044 -0.116326 21.4967
0.636875 0.122798 21.4067
0.873971 0.209757 20.9661
0.836654 0.0540579 20.8435
-0.759386 0.0811364 19.677
-1.82779 0.101904 20.3775
-1.07811 -0.21304 21.3428
-0.17441 -0.142182 21.5899
0.62521 -0.144986 21.4606
0.913821 -0.173445 20.8604
0.759125 -0.237422 20.868
-0.530877 0.347845 19.9033
-0.969655 0.597643 20.34
-0.914916 0.376486 21.1445
-0.26719 0.00918147 21.5036
0.288947 -0.279028 21.3232
0.496586 -0.371119 21.0936
0.478118 -0.453242 20.8525
-0.556882 -0.55384 19.2137
-1.85408 -3.2595 20.6466
-0.304722 -0.579135 21.3256
0.0747598 0.0634449 20.1056
0.378192 1.12891 18.0925
0.79386 1.42684 17.3662
0.750346 0.712642 17.95
-0.709129 -0.449799 18.9323
1.17584 1.85989 12.2675
1.22969 0.652957 13.3622
-0.924566 0.23496 18.6357
1.79928 -0.0999786 9.8026
1.54837 -0.167883 13.8342
-0.48406 0.719438 19.4964
-1.13129 1.69225 20.053
-1.6384 1.73306 21.3829
-0.34779 0.210615 22.1011
0.346143 -0.654119 21.4685
0.489456 -0.908405 21.2084
0.469928 -0.786407 20.3295
0.575109 -0.529707 19.256
1.90644 -3.09535 20.6204
0.307808 -0.582083 21.358
-0.072183 0.0670125 20.1056
-0.349089 1.12483 17.9615
-0.780898 1.42947 17.4225
-0.754023 0.712309 18.084
0.722021 -0.43533 18.9547
-1.21116 1.8017 12.6366
-1.20429 0.633896 13.5904
0.943922 0.235467 18.6661
-1.79627 -0.103473 10.1881
-1.52359 -0.157526 14.1533
0.495388 0.701774 19.5179
1.15445 1.62716 20.0664
1.63237 1.66075 21.3827
0.345598 0.212908 22.1071
-0.345228 -0.662212 21.4554
-0.489812 -0.921114 21.1815
-0.47114 -0.785481 20.3304
0.572359 -0.229946 19.8242
1.18462 -0.650815 20.4226
0.557663 -0.40995 21.2436
0.0215074 -0.0893559 21.451
-0.510676 0.220209 21.3205
-0.727672 0.305391 21.0931
-0.659434 0.0967949 20.6396
0.667433 -0.1729 19.7217
1.65527 -0.581343 20.3774
0.733143 -0.436736 21.3183
0.0557707 -0.118115 21.4993
-0.63319 0.116003 21.4072
-0.853757 0.211343 20.9531
-0.838877 0.0606191 20.8603
0.754572 0.077234 19.6876
1.84871 0.110667 20.3744
1.08547 -0.213635 21.3518
0.174011 -0.142002 21.593
-0.623083 -0.14261 21.4614
-0.902544 -0.170129 20.8437
-0.753856 -0.233181 20.8656
0.525188 0.338205 19.914
0.95551 0.578527 20.3465
0.903421 0.36739 21.1428
0.268211 0.00848256 21.5054
-0.292528 -0.282274 21.3253
-0.500752 -0.367877 21.1014
-0.481442 -0.455924 20.8552
-2.47429 -0.468661 2.90693
2.54361e-05 -0.0265547 0.161955
0.00822376 -0.0752562 1.19301
0.109054 -0.0274632 0.251128
-0.000471288 0.00794169 0.0489267
-0.0206421 0.020914 0.425214
4.49424e-05 0.0707329 0.271706
-0.152022 -0.102618 0.498071
-0.000116172 0.0330643 -0.046395
0.034144 0.028294 0.215229
2.49217 -0.474026 2.93023
-0.00737325 -0.0761959 1.2051
-0.108626 -0.0277975 0.251688
0.00343431 0.0101705 0.48691
0.133992 -0.0897002 0.438206
-0.0340716 0.0284984 0.215636
-0.00415546 -9.31598e-05 0.426007
0 0 0
0 0 0
0 0 0
0 0 0
0 0 0
9.50581e-07 0.03723 0.0722935
8.58222e-06 -0.000416564 0.00746801
0.00421172 -0.000337504 0.429842
4.41002e-18 5.16279e-18 1.96123e-16
0 0 0
0 0 0
0 0 0
-0.000136664 0.000665948 0.00901761
0 0 0
-1.00108e-05 -0.000690507 0.0331549
5.62733e-21 3.06728e-20 -6.55982e-17
0 0 0
0 0 0
-0.00347213 0.169392 -0.157388
-0.000668906 0.00512393 0.104522
-7.978e-07 0.000421948 0.0199925
1.1935e-08 -2.96557e-07 2.81546e-07
0 0 0
0.000149105 0.000677418 0.00909363
0 0 0
-3.13219 -1.56616 20.3373
-2.89786 -5.10091 20.8758
-2.10156 -1.5165 17.7627
1.06338 0.490331 20.3113
0.153052 1.24046 11.797
0.506112 1.19236 8.18317
-3.50835 0.497606 20.3791
-2.96646 1.21261 17.0011
-2.41329 2.71449 19.9213
1.08213 -0.139764 20.4013
0.529565 -0.0196219 6.21373
1.10164 -0.206286 15.9904
2.94617 -4.82696 20.8136
2.1154 -1.51227 17.7992
3.17439 -1.5961 20.3389
-0.120011 1.22572 11.608
-0.529779 1.18214 8.43569
-1.05841 0.487876 20.3095
2.95527 1.18667 17.0749
2.43428 2.61673 19.9319
3.54982 0.513103 20.3885
-0.558749 -0.00463472 6.52901
-1.11277 -0.187902 15.6914
-1.07641 -0.139826 20.4067
-0.712583 -0.80624 21.4862
0.0465137 -0.354878 16.9317
-0.0328449 -0.165463 21.2668
0.174574 0.0305203 14.5077
-1.61236 -0.614907 21.6137
-3.83356 1.22837 21.5439
-0.157623 -0.263117 21.2895
-0.0111431 0.531406 16.7983
-0.0206983 -0.376837 17.3241
0.713468 -0.811056 21.4645
-0.172357 0.0319992 14.5027
0.0350079 -0.166645 21.2469
3.72718 1.20719 21.6229
1.61749 -0.626493 21.6087
-0.00364735 0.55229 16.5963
0.154824 -0.25967 21.2629
-0.937678 -0.457072 19.9478
-0.635215 -0.213863 19.7683
-0.639104 -0.404433 19.5418
-0.914334 -0.566468 21.0014
-1.4397 -0.638722 20.381
-1.757 -1.52222 20.4403
-0.255683 -0.230452 21.3808
-0.648167 -0.428834 21.2698
-0.480317 -0.623754 21.4503
0.256523 0.0798087 21.4842
-0.0415132 -0.105975 21.4661
0.0273336 -0.0919088 21.5854
0.646182 0.265449 21.1415
0.564688 0.173993 21.3496
0.715801 0.544207 21.3704
0.671282 0.260082 20.7429
0.788962 0.261621 20.9697
0.995631 0.641042 20.9281
0.753631 0.0707457 20.7408
0.724267 0.567771 21.1834
-1.19945 -0.349514 19.8104
-0.743094 -0.0658575 19.6639
-0.753705 -0.307533 19.3751
-1.18976 -0.549261 21.0564
-1.81281 -0.261609 20.3676
-0.353264 -0.27049 21.4301
-0.918391 -0.357695 21.3294
0.283501 0.0242838 21.5497
-0.117425 -0.148227 21.561
0.816442 0.141211 21.2981
0.643862 -0.0256693 21.4341
0.832343 0.138893 21.1868
0.992287 0.0220538 20.8293
1.32114 0.533443 19.8677
0.960145 -0.0919973 20.833
0.97618 0.385298 19.5942
-1.37063 0.139111 19.7755
-0.686928 0.262376 19.769
-0.92373 0.144492 19.2567
-1.53266 -0.110306 20.9875
-1.40797 0.49203 20.3225
-0.601082 -0.198084 21.5227
-1.1314 0.130148 21.2548
0.253606 -0.116365 21.6011
-0.246803 -0.0873663 21.5834
0.815594 -0.168231 21.2768
0.454845 -0.277151 21.3676
0.901695 -0.203283 21.232
0.710899 -0.338652 21.1435
1.35939 -0.318757 20.5478
0.5271 -0.337038 20.687
1.29422 -0.391359 20.2349
-0.753589 0.491706 20.0607
-0.572673 0.525322 19.7142
-1.03582 0.534322 20.757
-1.18292 1.06514 20.2205
-0.615913 0.193782 21.3999
-1.30178 0.807319 21.2812
0.062705 -0.145048 21.4539
-0.339214 0.0924956 21.746
0.402616 -0.335407 21.2075
0.333487 -0.428316 21.4319
0.504931 -0.34982 20.806
0.524035 -0.625075 21.1263
0.423067 -0.518191 20.5569
-1.2526 -1.59554 18.9392
-0.623773 -0.507894 19.0859
0.00946512 -0.744344 18.8767
-0.815003 -1.34043 21.7011
0.0317265 -4.33788 21.2864
-0.0856194 -0.195294 20.594
0.00384466 -0.641034 20.2183
0.259101 0.515711 19.0258
-0.00253211 -0.0536166 17.2297
0.506404 1.31512 18.4967
-0.0114464 0.51397 13.7292
0.576935 1.19803 19.1359
0.982084 1.70546 14.8153
-0.00285282 0.952983 14.0183
1.00072 0.712381 15.6284
-0.00490258 1.28996 14.2884
-0.893995 -0.0982642 18.6714
0.0130261 -0.606727 18.4084
1.29494 1.0921 12.5852
1.68624 0.812828 9.35141
-0.00298743 0.632285 0.401479
1.6941 0.535509 13.2356
-0.0126959 1.05056 9.5366
-0.752937 0.673282 19.053
0.0094527 0.43835 17.8772
1.77486 -0.353047 11.5815
1.31509 -0.915856 18.2863
-0.00487099 -0.553544 -2.68832
1.01522 -0.791057 20.1513
-0.0232467 -1.55929 4.59586
-0.832673 1.27867 19.5843
0.0148203 0.951782 19.2443
-1.46876 1.77575 20.5435
0.0328 2.44149 19.8434
-1.07622 0.928841 22.0644
0.0366839 3.73898 21.361
0.139823 -0.365792 21.8564
-0.00277215 0.421996 22.456
0.433419 -0.790224 21.2817
0.000885604 -0.81238 20.0936
0.528102 -0.991352 20.5911
0.00102328 -1.21494 20.0333
0.00308667 -1.00918 19.3061
1.26347 -1.5224 19.0025
0.639325 -0.489239 19.118
0.644322 -0.39647 19.5531
0.822526 -1.29887 21.6452
1.73536 -1.44437 20.4301
0.0880875 -0.193748 20.5925
0.488509 -0.613445 21.4361
-0.254067 0.51452 18.9485
-0.0235284 -0.0928785 21.5836
-0.493324 1.30064 18.4581
-0.717804 0.554931 21.341
-0.591766 1.17956 19.1941
-0.990915 1.67702 14.8827
-0.994055 0.627773 20.921
-0.991591 0.711518 15.8016
-0.72397 0.546275 21.188
0.915406 -0.0991215 18.6999
0.75856 -0.306714 19.3845
-1.30071 1.07296 12.9426
-1.73631 0.78144 9.91217
-1.31726 0.494125 20.0679
-1.66892 0.520294 13.4333
-0.973952 0.372084 19.8248
0.766683 0.654238 19.0861
0.921801 0.14295 19.2729
-1.77149 -0.34474 11.9317
-1.31527 -0.91361 18.3174
-1.34268 -0.3316 20.6715
-1.01975 -0.785785 20.1472
-1.29628 -0.396425 20.4455
0.848887 1.23629 19.611
0.569184 0.510278 19.7296
1.46679 1.71461 20.5619
1.17008 1.01043 20.2365
1.07386 0.916426 22.0532
1.28003 0.784276 21.2754
-0.13972 -0.372044 21.8641
0.339929 0.093821 21.7488
-0.433597 -0.795272 21.2676
-0.335747 -0.435821 21.435
-0.52787 -0.999828 20.5754
-0.519101 -0.630541 21.1498
-0.422524 -0.517546 20.5513
0.921845 -0.447491 19.9638
0.633091 -0.206754 19.7744
0.915682 -0.557426 20.997
1.43314 -0.64029 20.3918
0.260891 -0.237341 21.3788
0.648093 -0.436595 21.2698
-0.25642 0.0829204 21.4967
0.0397671 -0.108838 21.4645
-0.648448 0.277119 21.1324
-0.562583 0.175268 21.3506
-0.66886 0.262586 20.7364
-0.775853 0.261081 20.9633
-0.749155 0.078707 20.75
1.20216 -0.35191 19.804
0.742612 -0.0683195 19.6715
1.19526 -0.562009 21.0619
1.85399 -0.266328 20.3743
0.351584 -0.272639 21.4333
0.925802 -0.36477 21.3431
-0.285699 0.0204879 21.5446
0.116392 -0.149302 21.5687
-0.808835 0.136583 21.2943
-0.642396 -0.0233227 21.4406
-0.836258 0.138899 21.2014
-0.978695 0.020882 20.8075
-0.949826 -0.0872403 20.8344
1.3727 0.137717 19.7758
0.680051 0.255373 19.7855
1.54812 -0.107799 20.9939
1.39387 0.481141 20.3301
0.602242 -0.198418 21.5286
1.12806 0.12955 21.2569
-0.256318 -0.11551 21.6023
0.247643 -0.0879709 21.5881
-0.808191 -0.166516 21.277
-0.456471 -0.27844 21.3698
-0.904141 -0.20388 21.2326
-0.709173 -0.338894 21.1477
-0.518775 -0.338171 20.6819
0.743838 0.475658 20.0754
1.02326 0.521346 20.757
0.613533 0.192519 21.399
-0.0621237 -0.145677 21.4577
-0.406517 -0.337778 21.2092
-0.510156 -0.353691 20.8116
-1.08647 -0.424595 19.8698
-1.65382 -1.67628 18.3677
-1.27323 -0.934147 19.5327
-1.79085 -0.758773 19.1319
-0.708527 -0.390336 19.4785
-2.33623 -1.66576 20.3791
-1.05527 -0.57657 21.0304
-0.503634 -0.883611 17.8975
-0.983678 -1.01623 21.2916
-1.46692 -1.17013 21.4831
-0.562013 -0.718887 21.5385
-0.304311 -0.259437 21.3945
0.0263282 -0.0456873 15.3012
-0.192447 -0.323184 21.5327
-0.289352 -0.445277 21.4089
0.0159897 -0.144 21.5256
0.2558 0.0684239 21.5121
0.174673 0.443944 12.8524
0.344726 0.214462 21.6068
0.427748 0.17875 20.9208
0.917878 0.565491 20.9439
0.727336 0.227699 21.2126
0.475237 1.36297 13.9735
0.848233 0.661623 21.0082
1.26619 0.524307 20.5652
1.14069 0.565899 21.1403
0.745644 0.212008 20.9534
0.946881 1.1491 15.5191
0.975596 0.584063 20.6402
1.44312 0.390802 19.3917
0.810135 0.540806 21.3233
-1.33665 -0.140416 19.7559
-2.83406 -0.363766 16.9666
-2.15965 0.422533 19.0244
-0.928593 -0.0733916 19.235
-3.82279 -0.575335 20.3342
-1.39404 -0.358351 21.0376
-2.41233 -0.293295 21.2621
-1.12124 -0.756198 21.4675
-0.474184 -0.269433 21.4801
-0.745719 -0.504141 21.3682
-0.0848215 -0.133345 20.9563
0.282183 -0.0584689 21.5982
0.489508 -0.0589272 20.9106
1.16591 0.183861 20.1087
0.836899 -0.0107664 21.2276
0.504612 0.542254 4.72447
1.30233 -0.273796 20.4896
1.59372 0.113256 19.7524
0.975985 -0.0148257 21.3956
1.7828 0.838959 11.4828
1.46343 -0.323829 20.2126
1.44675 0.2702 19.4404
-1.10244 0.437058 19.9156
-1.63469 1.74487 18.7791
-0.897261 0.840233 19.8307
-0.787615 0.446499 19.4502
-2.04195 1.14939 20.1628
-1.39905 0.326421 20.8381
-2.90234 2.06459 20.4997
-1.344 1.01224 20.7184
-1.91824 0.326754 21.5209
-0.698598 -0.00889402 21.5087
-1.63958 0.170322 19.4052
-0.864691 0.424564 21.6774
-0.413053 -0.0993807 21.8979
0.163644 -0.180556 21.5481
1.01983 0.275582 15.9847
0.0924445 -0.218149 21.6357
0.615558 -0.509615 21.4651
0.601774 -0.340394 21.229
1.10602 -0.527105 17.3184
0.447543 -0.544781 21.2719
0.913383 -0.702426 20.96
0.715843 -0.349969 20.7614
1.22145 -1.11786 18.8092
0.633088 -0.603162 20.9267
0.977292 -0.501466 20.3393
1.66349 -1.63599 18.4383
0.0375432 -2.50883 18.1993
0.0248977 -2.86861 15.6674
0.0144008 -0.712145 18.6424
0.00181735 -5.54698 22.656
0.545044 -0.914994 18.4493
0.00852566 -1.53869 21.6786
-0.000517125 -0.197491 12.2443
-0.0192402 -0.0476027 15.4557
-0.000953569 -0.295898 18.4717
-0.00169279 0.0132701 9.7734
-0.17588 0.434918 12.7728
-0.00255853 0.314518 15.4203
-0.0165942 0.335148 5.99491
-0.469226 1.35477 13.9693
-0.0134569 0.284126 13.7126
0.00665694 -1.30687 -1.64932
-0.00701039 0.979672 7.33184
-0.962848 1.14088 15.6033
0.00793869 1.46929 14.3655
0.0184648 0.102711 1.62361
-0.0142588 1.17349 11.9143
2.83161 -0.353198 17.0138
0.0239369 2.97844 13.9167
0.0130033 -0.165838 17.9595
-0.533153 0.547518 5.02134
0.00602263 0.130286 -1.93484
-0.00771736 -1.34685 -6.42676
-1.78357 0.820905 11.8149
-0.0262876 -1.03912 1.10395
-0.0124486 -1.20003 1.15636
1.6424 1.67799 18.821
0.023537 1.81462 19.2853
0.0138072 0.97454 18.5535
0.034466 4.35083 19.728
2.89794 1.98994 20.5215
0.0381651 2.87389 20.1498
0.0309231 6.34775 17.3881
1.64527 0.168011 19.4589
0.00836751 2.06851 22.8028
0.000277466 -0.136233 3.08265
-1.04958 0.301433 15.693
-0.00106752 -0.547802 21.3848
-0.00736553 -0.208869 2.86186
-1.1027 -0.518486 17.1992
0.00146879 -0.935065 19.8125
-0.00991571 -0.909575 7.28729
-1.22006 -1.10978 18.8284
0.000254528 -1.4593 19.4916
-0.00874372 -1.9411 11.3681
1.07825 -0.419535 19.8758
1.27066 -0.913119 19.5488
1.78918 -0.754663 19.1406
0.708474 -0.383177 19.484
2.29421 -1.61424 20.3765
1.05533 -0.580946 21.0295
0.997741 -0.993369 21.2598
1.46701 -1.18247 21.4564
0.5741 -0.715188 21.5234
0.30337 -0.266292 21.3963
0.198116 -0.323628 21.5274
0.290716 -0.44567 21.3801
-0.012415 -0.144975 21.5066
-0.257366 0.0642029 21.5117
-0.33949 0.214869 21.5937
-0.422505 0.176882 20.9081
-0.915067 0.56739 20.9078
-0.726814 0.222992 21.2065
-0.839643 0.66495 20.9938
-1.25386 0.505509 20.5964
-1.13547 0.543572 21.1466
-0.746766 0.212072 20.9555
-0.977901 0.562579 20.6292
-1.43961 0.381589 19.4312
-0.81774 0.513809 21.3331
1.34463 -0.139363 19.7651
2.15152 0.418666 19.0352
0.925151 -0.0738842 19.249
3.88761 -0.580303 20.3411
1.41145 -0.371741 21.0501
2.42539 -0.29649 21.2688
1.11933 -0.761652 21.4493
0.47446 -0.27283 21.4912
0.743965 -0.508347 21.3408
0.0841536 -0.13224 20.9352
-0.28478 -0.0606742 21.6014
-0.490247 -0.0551753 20.8947
-1.16258 0.182015 20.1136
-0.829621 -0.0106691 21.2287
-1.28777 -0.274779 20.5423
-1.55502 0.106843 19.926
-0.971403 -0.0167101 21.4001
-1.43909 -0.33969 20.3418
-1.44469 0.260901 19.6394
1.0884 0.424585 19.9342
0.895906 0.809273 19.8522
0.78788 0.437303 19.4656
2.02433 1.11795 20.17
1.39355 0.324011 20.8412
1.32448 0.968395 20.7247
1.89937 0.322548 21.5135
0.698681 -0.00946557 21.512
0.859605 0.418697 21.6713
0.414777 -0.0983045 21.9034
-0.163206 -0.180731 21.5511
-0.0941591 -0.21951 21.6404
-0.617604 -0.511297 21.4545
-0.602658 -0.340917 21.2318
-0.448811 -0.55154 21.2781
-0.912011 -0.698451 20.9603
-0.715864 -0.348933 20.7624
-0.636021 -0.6123 20.9293
-0.981631 -0.500759 20.3465
-1.45501 -0.901076 19.3994
-1.17565 -1.10155 21.3613
-0.21864 -0.391822 21.5749
0.405888 0.195597 21.3877
1.09277 0.642185 20.9266
1.19875 0.512305 20.3546
-2.15942 -0.190932 18.9245
-2.04319 -0.844639 21.4277
-0.470213 -0.428116 21.0004
0.435203 0.138261 20.4637
1.41283 0.172429 20.2785
1.56741 0.166019 19.1477
-1.47259 0.888033 19.4769
-2.12788 0.772247 20.8427
-1.13907 0.0348087 21.8777
0.237261 -0.285337 21.7584
0.779578 -0.628241 21.2364
0.944709 -0.632682 20.9831
0.0402141 -2.89552 17.1628
0.00494033 -0.708083 13.8588
-0.00120208 -0.0631254 10.5254
-0.00284762 0.247051 7.90145
-0.0148545 -0.522802 5.36832
0.0166458 0.845083 7.86561
0.0305675 -0.581684 13.589
0.0220927 -1.06903 -5.03092
-0.030331 -1.77166 -4.29449
0.0381732 3.01323 17.8548
0.0352644 3.92146 19.4181
-0.000887896 0.0534693 2.44391
-0.00108701 -0.299228 2.94777
-0.0106997 -0.33869 5.05416
-0.00445037 -1.47456 10.2902
1.4506 -0.884889 19.4132
1.1846 -1.09214 21.3399
0.224805 -0.392526 21.5581
-0.401012 0.194913 21.3555
-1.08457 0.630973 20.9175
-1.20028 0.501054 20.3271
2.14971 -0.191749 18.9375
2.04964 -0.8523 21.4304
0.468019 -0.428008 20.9631
-0.433797 0.139038 20.4494
-1.39831 0.159898 20.3345
-1.539 0.13364 19.2371
1.46493 0.867873 19.4939
2.10667 0.752452 20.8445
1.13627 0.0357794 21.8752
-0.239227 -0.286813 21.7633
-0.778788 -0.627398 21.2315
-0.940909 -0.631307 20.9851
-2.54228 -0.83876 3.07528
-0.00301796 -0.0671145 0.42212
-0.0296261 -0.0224287 0.602755
0.160235 0.0299647 0.435649
-0.0296148 0.0221252 0.106163
0.0190379 0.109701 1.12693
-4.23329 1.29413 4.91977
-0.0925236 0.980703 2.31539
-0.229046 -0.0354253 0.901146
0.0763864 -0.0341616 0.192363
-0.033046 0.0273391 -0.0313889
0.0409929 0.029857 0.337088
0.0036936 -0.0682749 0.431933
2.52994 -0.833349 3.06072
0.0305732 -0.0229974 0.615375
0.0287257 0.021453 0.102962
-0.159969 0.0301619 0.43807
-0.0198763 0.110065 1.12007
0.0912788 0.987544 2.32696
4.27012 1.30576 4.96292
0.226959 -0.0350562 0.893338
0.0320611 0.0287161 -0.0323461
-0.0781828 -0.0347694 0.196868
-0.0412511 0.0301019 0.339174
0.0164403 -0.0616733 1.34184
-0.00369856 -0.00497547 0.484883
-0.0052186 -0.000434415 0.181365
0 0 0
-0.0001026 0.0077578 0.316723
-0.0148684 0.0131238 1.04179
0 0 0
3.01779e-18 -1.05791e-18 1.6882e-16
-0.000183539 -0.00012897 0.00107023
0 0 0
0 0 0
-0.11273 0.0642538 0.248909
0.0255951 0.0521622 0.209304
0.00174227 0.00765207 0.0355956
0 0 0
0.175083 0.00297528 0.894357
-0.0159652 -0.0600588 1.32897
0 0 0
0.00331762 -0.00437258 0.49322
0.00555994 -4.39514e-05 0.182419
9.61364e-05 0.00787014 0.314041
0 0 0
0.0155938 0.0124086 1.04613
0 0 0
0.000328275 -0.00023105 0.00190743
0.114407 0.0651916 0.252458
0 0 0
0 0 0
-0.0256505 0.0524298 0.209397
-0.176165 0.00338394 0.898864
-0.00185051 0.00812596 0.0376838
0 0 0
0 0 0
-0.686828 0.354826 0.60036
0 0 0
0 0 0
-0.00952474 -0.00741441 0.174387
0.002823 -0.00318514 0.0747814
0 0 0
-0.114295 0.0357068 -0.0349088
-7.96373e-06 0.000482016 0.00520383
-0.000130197 -0.00435375 -0.0013367
0 0 0
0 0 0
-6.38209e-05 0.335352 0.162143
1.96836e-06 0.000959128 0.00629409
0 0 0
-0.0333923 0.00284947 0.0508696
0 0 0
-1.19983e-05 0.000664274 -0.00175621
0.0180231 0.0386712 0.239292
0.000111818 -0.00168767 0.00497024
0.700064 0.359752 0.609566
0 0 0
-0.00282563 -0.00314845 0.074526
0.00961798 -0.00738046 0.17687
0.114177 0.0359568 -0.0354258
0 0 0
0 0 0
0 0 0
0.0333702 0.00286581 0.0512226
0 0 0
-0.000137167 -0.00174269 0.00513387
-0.0184592 0.0396734 0.244463
-0.00484032 0.0184379 0.2955
-5.77376e-19 1.76381e-20 -4.16428e-17
-0.00232599 -0.00124957 0.0397068
-3.08384e-05 0.000131938 0.00139079
0 0 0
0 0 0
-3.37384e-05 0.000409041 0.00476524
0 0 0
0 0 0
0 0 0
4.2688e-05 0.00126784 0.00793649
0.0598625 0.124293 1.78797
0.00187317 0.0138499 0.0256248
-9.86132e-06 0.0149124 0.0968196
0 0 0
-3.75279e-07 -0.000184506 0.000953087
-3.13132e-19 1.11006e-21 2.08733e-17
0.00482752 0.0186637 0.2966
0.00231292 -0.00125722 0.0395116
2.56262e-05 0.000109223 0.00115562
3.61125e-05 0.00044031 0.00511584
0 0 0
-0.0599864 0.125493 1.79446
-4.22481e-05 0.00125827 0.00788207
-0.0182262 -0.0162665 0.313861
-0.00157136 -0.0030691 0.0213603
-0.00388937 -0.00396257 0.0742469
0 0 0
-0.00579826 0.00769262 0.156905
-0.000304565 0.00514333 0.0428458
-0.000896043 0.00658578 0.0904399
8.57588e-06 0.000140583 0.000805271
0.000263026 0.000937934 0.0202201
-0.00354433 0.0272577 0.19203
0.00242678 0.00263533 0.0306713
0.000883361 0.000574679 0.0108266
0 0 0
0 0 0
0 0 0
0 0 0
0 0 0
0 0 0
0 0 0
0 0 0
1.99232e-05 5.78782e-05 0.00351784
-2.20601e-05 6.54195e-05 0.00394177
-2.14533e-18 4.09998e-18 4.3825e-17
-5.49469e-06 -1.07294e-05 -0.000114691