# vtk DataFile Version 2.0
tri_press
ASCII
DATASET UNSTRUCTURED_GRID
POINTS 3682 float
-0.680283 0.215 -2.115
-0.778982 0.265 2.175
-0.725 0.715 -1.98599
-0.795 0.775 2.0433
0.680279 0.215 -2.115
0.778971 0.265 2.175
0.725 0.715 -1.98599
0.795 0.775 2.0433
-0.77661 0.16824 -0.685
-0.81124 0.183176 0.745
-0.806605 0.793271 -0.642894
-0.824465 0.807798 0.700203
0.776605 0.168238 -0.685
0.811252 0.183155 0.745
0.806607 0.793274 -0.642894
0.824434 0.807767 0.700203
-1.46212 -0.100296 -3.23933
-1.46752 -0.0908608 -2.13014
-1.54558 -0.1202 -0.697892
-1.59775 -0.110762 0.751845
-1.5918 -0.0515562 2.18556
-1.58497 -0.0225783 3.30197
-1.58386 -0.00852404 4.40503
-1.45789 0.183152 -3.20607
-1.46193 0.206234 -2.10637
-1.55784 0.181902 -0.691031
-1.60773 0.184093 0.732128
-1.58749 0.232982 2.14913
-1.58149 0.26024 3.26431
-1.58248 0.275191 4.3702
-1.47742 0.724826 -3.11515
-1.4948 0.748174 -2.01186
-1.58283 0.791752 -0.655765
-1.62131 0.794662 0.694172
-1.59991 0.781336 2.05193
-1.58869 0.808245 3.17071
-1.58637 0.833594 4.29061
-1.5167 1.58979 -3.04412
-1.53296 1.62046 -1.95384
-1.5722 1.66793 -0.625922
-1.60349 1.68693 0.683265
-1.60949 1.68038 2.01209
-1.6038 1.68344 3.10427
-1.59789 1.69778 4.21468
-0.710196 -0.0963011 -3.24494
-0.697715 -0.085523 -2.13832
-0.759961 -0.127582 -0.696795
-0.801943 -0.111106 0.762831
-0.796061 -0.032675 2.20477
-0.789175 -0.00932147 3.31501
-0.788323 -0.00127429 4.41257
-0.707325 0.183741 -3.2078
-0.78299 0.27297 3.27506
-0.785812 0.281552 4.37589
-0.722581 0.712222 -3.10441
-0.788305 0.808958 3.16898
-0.788187 0.835089 4.29024
-0.746083 1.58239 -3.03349
-0.753044 1.61407 -1.94213
-0.779838 1.66863 -0.618865
-0.804718 1.69012 0.682419
-0.810469 1.67983 2.00604
-0.805296 1.68164 3.09823
-0.800169 1.6965 4.21029
0.740421 -0.0963027 -3.24494
0.737634 -0.0855243 -2.13832
0.787241 -0.127586 -0.696795
0.80198 -0.111121 0.762831
0.782852 -0.0326815 2.20477
0.792427 -0.00932769 3.31501
0.798457 -0.00128187 4.41257
0.726775 0.18374 -3.2078
0.796064 0.272966 3.27506
0.801298 0.281545 4.37589
0.73965 0.712221 -3.10441
0.8012 0.808954 3.16898
0.803106 0.835082 4.29024
0.780021 1.58239 -3.03349
0.79067 1.61407 -1.94213
0.801638 1.66863 -0.618865
0.80007 1.69011 0.682418
0.794043 1.67982 2.00604
0.794242 1.68163 3.09823
0.795783 1.69649 4.21029
1.48233 -0.1003 -3.23933
1.48412 -0.0908652 -2.13014
1.55561 -0.120212 -0.697892
1.59657 -0.110789 0.751845
1.58575 -0.0515745 2.18556
1.58765 -0.0225936 3.30197
1.59224 -0.00854067 4.40503
1.46609 0.183149 -3.20607
1.45441 0.206232 -2.10637
1.55115 0.181892 -0.691032
1.60571 0.184061 0.732128
1.58856 0.232967 2.14913
1.59061 0.260226 3.26431
1.595 0.275175 4.3702
1.48279 0.724823 -3.11515
1.48562 0.748172 -2.01186
1.57469 0.791743 -0.655765
1.6184 0.794624 0.694172
1.60072 0.781319 2.05193
1.59742 0.808231 3.17071
1.59816 0.833577 4.29061
1.543 1.58978 -3.04412
1.55929 1.62045 -1.95384
1.58591 1.66792 -0.625923
1.59807 1.68691 0.683265
1.59553 1.68036 2.01209
1.59364 1.68342 3.10427
1.59311 1.69776 4.21468
-0.74256 0.465 -2.09041
-1.99676e-06 0.207908 -2.12209
-0.730956 0.18911 -1.4
-0.822526 0.52 2.14469
-5.48363e-06 0.252054 2.18795
-0.817753 0.201446 1.46
0 0.799825 -2.07082
-0.794265 0.782598 -1.31444
0 0.895214 2.16351
-0.824891 0.806558 1.37175
0.742606 0.465 -2.09046
0.731095 0.188967 -1.4
0.822483 0.52 2.14465
0.81803 0.201159 1.46
0.794298 0.782631 -1.31444
0.824886 0.806553 1.37175
-0.797482 0.17215 0.03
-0.859196 0.480756 -0.663947
-2.37933e-06 0.171384 -0.685
-0.883475 0.495487 0.722602
6.14425e-06 0.17149 0.745
-0.816047 0.801047 0.0286549
1.16694e-06 1.22667 -0.642894
-1.55575e-05 1.34788 0.700203
0.797505 0.17212 0.03
0.859198 0.480756 -0.663947
0.883468 0.495461 0.722602
0.81605 0.80105 0.0286549
-0.813153 0.472878 -1.35722
0.813172 0.472878 -1.35722
-2.18804e-06 0.178574 -1.4
5.8347e-07 0.904519 -1.31444
-9.98378e-07 0.465 -2.32041
-0.876299 0.488121 0.0293275
0.876295 0.488109 0.0293275
1.88246e-06 0.17128 0.03
-7.19526e-06 1.35417 0.0286549
-0.892046 0.507744 1.41588
0.892047 0.507731 1.41588
3.30313e-07 0.193702 1.46
-7.77873e-06 1.18953 1.37175
-2.74181e-06 0.52 2.34882
-0.726102 0.34 -2.11739
-0.340143 0.209633 -2.12037
-0.710857 0.196818 -1.7575
-0.809956 0.3925 2.16904
-0.389494 0.253717 2.18628
-0.812485 0.219106 1.8175
-0.748167 0.59 -2.05259
-0.3625 0.784681 -2.05567
-0.772289 0.761455 -1.65022
-0.81562 0.6475 2.10085
-0.3975 0.871735 2.14004
-0.816463 0.797296 1.70753
0.340139 0.209396 -2.1206
0.726049 0.34 -2.11734
0.710961 0.196709 -1.7575
0.389483 0.253897 2.1861
0.810013 0.3925 2.16911
0.812481 0.219099 1.8175
0.3625 0.784673 -2.05566
0.748228 0.59 -2.05265
0.772225 0.761391 -1.65022
0.3975 0.871715 2.14001
0.815912 0.6475 2.10114
0.816486 0.797319 1.70753
-0.762116 0.170342 -1.0425
-0.786986 0.170254 -0.3275
-0.852905 0.306997 -0.674474
-0.389808 0.166807 -0.685
-0.813666 0.193141 1.1025
-0.805137 0.176887 0.3875
-0.875638 0.325191 0.733801
-0.410758 0.167051 0.745
-0.80148 0.78898 -0.978668
-0.852864 0.646995 -0.65342
-0.811571 0.797405 -0.307119
-0.488292 1.17995 -0.642894
-0.827974 0.810474 1.03598
-0.874955 0.662135 0.711403
-0.820349 0.804515 0.364429
-0.529952 1.31326 0.700203
0.762002 0.170451 -1.0425
0.389803 0.166807 -0.685
0.787123 0.170111 -0.3275
0.852908 0.306994 -0.674474
0.813564 0.193234 1.1025
0.410765 0.167051 0.745
0.805123 0.176893 0.3875
0.875633 0.325172 0.733801
0.801486 0.788986 -0.978668
0.48829 1.17994 -0.642894
0.852853 0.64699 -0.65342
0.811576 0.797409 -0.307119
0.827974 0.810474 1.03598
0.529959 1.31332 0.700203
0.875001 0.662139 0.711403
0.820349 0.804516 0.364429
-0.797133 0.468939 -1.72382
-0.371281 0.465 -2.28696
-2.0924e-06 0.193469 -1.76105
-1.49757e-06 0.336454 -2.3218
-0.803845 0.330994 -1.37861
-0.365479 0.17135 -1.4
-0.869993 0.513872 1.78028
-0.411264 0.52 2.31424
-2.57666e-06 0.215977 1.82397
-4.11272e-06 0.386027 2.3396
-0.889089 0.354595 1.43794
-0.408876 0.188696 1.46
2.91735e-07 0.864084 -1.69263
-4.99189e-07 0.632413 -2.27371
-0.818981 0.627738 -1.33583
-0.397132 0.892613 -1.31444
-3.88936e-06 1.04489 1.76763
-1.37091e-06 0.707607 2.2503
-0.894476 0.657151 1.39381
-0.412449 1.16783 1.37175
0.797085 0.468939 -1.72384
0.371302 0.465 -2.28721
0.803847 0.330922 -1.37861
0.365546 0.17135 -1.4
0.869989 0.513865 1.78026
0.41124 0.52 2.31405
0.889091 0.354445 1.43794
0.409015 0.188697 1.46
0.818978 0.627754 -1.33583
0.397149 0.892614 -1.31444
0.894547 0.657142 1.39381
0.412439 1.16789 1.37175
-0.876047 0.310557 0.0296637
-0.401112 0.166971 0.03
-0.851737 0.476817 -1.01058
-0.867712 0.484438 -0.31731
-2.28369e-06 0.171345 -1.0425
-2.48434e-07 0.171238 -0.3275
-0.880852 0.491804 0.375965
-0.894862 0.501615 1.06924
4.01336e-06 0.171294 0.3875
3.23728e-06 0.178674 1.1025
-0.8666 0.654798 0.0289912
-0.529412 1.32038 0.0286549
8.75206e-07 1.03148 -0.978668
-3.01416e-06 1.32641 -0.307119
-1.13764e-05 1.35419 0.364429
-1.16681e-05 1.29842 1.03598
0.876053 0.310538 0.0296637
0.401118 0.166971 0.03
0.851729 0.476817 -1.01058
0.867707 0.484432 -0.31731
0.880848 0.491785 0.375965
0.894862 0.501596 1.06924
0.866597 0.654791 0.0289912
0.529425 1.32042 0.0286549
-0.790916 0.335497 -1.74066
-0.846774 0.327746 -1.02654
-0.846853 0.632376 -0.994626
-0.806824 0.608869 -1.68702
0.790916 0.335461 -1.74067
0.806821 0.608877 -1.68703
0.846854 0.632385 -0.994626
0.846768 0.32771 -1.02654
-0.352811 0.188789 -1.75927
0.352842 0.188789 -1.75927
0.376924 0.163884 -1.0425
-0.376893 0.163884 -1.0425
-0.379816 0.861019 -1.67142
-0.400217 1.00476 -0.978668
0.400227 1.00474 -0.978668
0.379825 0.861013 -1.67142
-0.355712 0.338227 -2.29429
-0.36689 0.611206 -2.18553
0.366901 0.611206 -2.18625
0.35572 0.338227 -2.29421
-0.864554 0.308738 -0.322405
-0.875925 0.317833 0.381732
-0.871842 0.658999 0.370197
-0.861605 0.651833 -0.312214
0.864506 0.308753 -0.322405
0.861517 0.651787 -0.312214
0.871843 0.658987 0.370197
0.875917 0.317818 0.381732
-0.395433 0.166943 -0.3275
0.395434 0.166943 -0.3275
0.405941 0.167011 0.3875
-0.405935 0.167011 0.3875
-0.525676 1.28381 -0.307119
-0.533046 1.32355 0.364429
0.53304 1.32357 0.364429
0.525617 1.2837 -0.307119
-0.891222 0.346963 1.08587
-0.862593 0.373547 1.79889
-0.858482 0.652325 1.7439
-0.895164 0.654397 1.05261
0.891223 0.346876 1.08587
0.895164 0.654378 1.05261
0.858469 0.652321 1.74389
0.86258 0.373472 1.79888
-0.407247 0.171415 1.1025
0.407322 0.171415 1.1025
0.399249 0.217696 1.82074
-0.399185 0.217695 1.82074
-0.412345 1.27946 1.03598
-0.404975 1.03069 1.73758
0.40497 1.03075 1.73758
0.412324 1.27951 1.03598
-0.400379 0.389264 2.31619
0.400361 0.389264 2.31615
0.40437 0.677553 2.22804
-0.404382 0.677553 2.22801
-0.708631 0.2775 -2.12163
-0.510213 0.210478 -2.11952
-0.703092 0.198387 -1.93625
-0.795137 0.32875 2.17269
-0.584238 0.256439 2.18356
-0.797645 0.240141 1.99625
-0.737217 0.6525 -2.01992
-0.54375 0.736022 -2.00701
-0.754874 0.744457 -1.8181
-0.81319 0.71125 2.07996
-0.59625 0.8063 2.0746
-0.807609 0.788025 1.87541
0.510209 0.210177 -2.11982
0.708619 0.2775 -2.12162
0.702987 0.198488 -1.93625
0.584227 0.256702 2.1833
0.794635 0.32875 2.1722
0.797531 0.240245 1.99625
0.54375 0.736033 -2.00702
0.737205 0.6525 -2.01991
0.754873 0.744457 -1.8181
0.59625 0.806314 2.07461
0.813481 0.71125 2.08025
0.807611 0.788027 1.87541
-0.768241 0.170412 -0.86375
-0.78053 0.170515 -0.50625
-0.828675 0.230659 -0.679737
-0.58536 0.163221 -0.685
-0.810247 0.190364 0.92375
-0.808172 0.180048 0.56625
-0.848018 0.251894 0.739401
-0.616872 0.163367 0.745
-0.804027 0.79111 -0.810781
-0.845236 0.727884 -0.648157
-0.809127 0.795377 -0.475006
-0.668733 1.02918 -0.642894
-0.827072 0.809988 0.86809
-0.860734 0.740479 0.705803
-0.823635 0.807385 0.532316
-0.678763 1.06364 0.700203
0.768236 0.170411 -0.86375
0.585355 0.163221 -0.685
0.780513 0.170526 -0.50625
0.828682 0.230653 -0.679737
0.810138 0.190465 0.92375
0.616876 0.163367 0.745
0.808194 0.180018 0.56625
0.847997 0.251886 0.739401
0.80403 0.791113 -0.810781
0.668731 1.02917 -0.642894
0.845237 0.727886 -0.648157
0.809128 0.795377 -0.475006
[...]
POINT_DATA 3682
SCALARS point_scalars float 1
LOOKUP_TABLE default
-94.5636
-42.5749
-70.8696
-40.566
-94.9378
-42.4259
-73.7882
-40.4467
-38.5983
-30.9107
-50.8925
-45.0111
-38.6227
-30.9099
-50.8559
-45.0493
14.4296
-100.023
-38.0928
-33.5193
-42.8649
-42.6922
-34.7329
-9.365
-107.036
-38.6875
-35.3803
-42.3061
-39.4073
-34.7329
-31.216
-77.1468
-45.5615
-40.9821
-41.3863
-34.731
-33.75
-60.3728
-53.85
-83.6681
-53.921
-40.7183
-40.8439
-34.731
48.1358
-122.506
-37.4781
-37.954
-41.8868
-34.7679
-31.7409
158.22
-33.0736
-31.4974
167.356
-32.6578
-32.154
-33.1001
-49.5914
-81.8169
-59.9946
-38.7888
-33.1803
-32.4631
-10.7081
-121.357
-37.1914
-37.9526
-41.8215
-34.6225
-31.674
165.717
-33.0793
-31.3387
138.3
-32.5575
-32.0153
-39.4062
-49.3294
-82.8481
-59.979
-38.7555
-33.1051
-32.3802
8.59851
-100.971
-38.0646
-33.4141
-42.734
-42.5457
-34.6094
-9.40682
-107.04
-38.6859
-35.1912
-42.1936
-39.2586
-34.6094
-31.2027
-77.5696
-45.5351
-40.9716
-41.2845
-34.6178
-33.6297
-64.3068
-53.8706
-83.4342
-53.9069
-40.6543
-40.7804
-34.6178
-55.5133
-109.998
-39.0309
-40.7233
-30.2133
-40.791
-54.5123
-34.8591
-33.0196
-46.7461
-55.4404
-39.0312
-40.6131
-40.511
-35.0088
-46.7136
-35.6811
-40.9122
-38.0259
-36.4377
-37.7256
-48.2236
-29.6552
-65.5479
-35.6475
-40.8955
-36.418
-48.212
-37.0439
-37.0643
-48.1053
6.12754
202.119
-39.211
-39.1771
-35.1374
-82.9754
-44.3211
-44.2686
-39.0603
-43.854
-21.6049
-53.0255
-112.448
-57.7562
-42.0438
-34.4802
-40.2576
-83.6651
-56.2742
-46.6023
-41.4959
-32.918
-42.1209
-112.645
-53.1053
-57.7736
-34.3506
-41.642
-40.2525
-56.1896
-83.82
-46.6033
-32.8615
-41.3585
-42.071
-42.3046
-34.9159
-38.7656
-37.8362
-38.5504
-35.1651
-31.9465
-37.3894
-47.8179
-43.9356
-49.8286
-46.2837
-46.0425
-40.7545
-45.6164
-61.0043
-42.2511
-37.8309
-34.9243
-38.733
-38.5782
-37.3884
-35.122
-31.9767
-47.7262
-46.1489
-43.91
-49.7869
-46.0262
-61.003
-40.744
-45.6171
-61.936
171.412
-62.8744
140.47
-37.2239
-46.9537
-41.8639
-31.8555
-36.8361
-21.3042
-44.5237
-39.5276
-21.4593
146.896
-35.4175
-2.00852
-36.3782
-28.6429
-46.9228
-45.2723
-61.9314
171.539
-37.2192
-46.925
-41.8138
-31.7391
-43.9519
-39.4976
-35.5032
-2.09346
-46.8847
-45.2601
-37.7411
-34.9246
-43.3344
-39.653
-42.8308
-35.7207
-38.0003
-41.5543
-35.8715
-38.8958
-42.0227
-69.7019
31.6264
-91.9595
-69.6031
-56.0767
-37.7426
-34.9441
-43.3308
-39.6376
-37.9858
-41.502
-42.0143
-69.7039
-62.432
-43.3376
-43.2054
-58.8773
-62.4416
-58.8831
-43.1793
-43.3507
-61.7211
-61.7049
-42.4405
-42.4469
-27.4269
19.4058
19.2679
-27.4473
143.519
114.394
114.117
143.7
-36.9157
-36.243
-40.7674
-43.1231
-36.9093
-43.0972
-40.7659
-36.2228
-35.4623
-35.4612
-35.6282
-35.6328
-76.6545
-60.3788
-60.3696
-76.6268
-40.9928
-41.4547
-41.8555
-41.3468
-40.9393
-41.3114
-41.8013
-41.3695
-38.968
-38.9632
-37.8603
-37.8976
-55.9676
-37.5922
-37.5648
-55.9577
-31.3677
-31.2155
-32.249
-32.3627
-67.1101
-131.759
-87.2565
-42.0264
-37.8251
-41.5546
-71.3319
-61.6473
-61.3511
-41.2987
-34.4167
-40.7254
-132.205
-67.3253
-87.1834
-37.6765
-41.8887
-41.5286
-61.563
-71.8464
-61.3828
-34.3203
-41.1702
-40.6499
-38.8839
-35.8409
-38.0929
-37.427
-43.2689
-34.3114
-26.8676
-38.0058
-50.9228
-46.7078
-50.7616
-69.7317
-44.6675
-42.6007
-45.6915
-50.8929
-38.9099
-37.4189
-35.8109
-38.0615
-43.2851
-38.0074
-34.303
-26.8852
-50.8862
-69.6585
-46.6814
-50.7212
-44.6886
-50.8932
-42.6004
-45.7016
-63.2269
-60.8556
-87.9817
117.262
-113.161
-113.25
-77.9641
45.1262
-46.4924
-34.0455
-37.6366
-43.8704
-40.5239
-40.4797
-41.9724
-32.7364
-31.5
-31.408
-33.8707
-25.1263
-42.5491
-39.0245
-44.8712
-39.5188
-57.0202
-57.173
-36.0878
46.7787
-38.0655
-38.4888
-37.5951
-17.0417
-33.0228
-33.28
-33.9922
-31.5955
-43.0979
-48.5728
-48.7659
-48.3447
-63.536
-60.7575
-87.9103
117.161
-46.4785
-34.1571
-37.6247
-43.8724
-40.5767
-40.3768
-41.8641
-32.6478
-42.486
-38.6628
-44.1258
-39.3986
-38.0165
-38.4996
-37.8777
-17.0727
-43.0461
-48.442
-48.7443
-48.313
-34.7299
-35.558
-36.9491
-34.8903
-39.7836
-42.1813
-41.9355
-40.1114
-37.9742
-37.9703
-40.0195
-36.607
-34.8527
-38.5472
-37.324
-38.9406
-37.6801
-37.6798
-36.6439
-39.4494
-48.5771
-46.4786
-43.9252
-55.5809
-27.645
-27.552
11.4314
-81.0737
-64.7222
-64.7197
-66.9302
-61.0454
-34.6826
-35.5613
-36.9403
-34.8765
-39.7679
-42.1601
-41.9183
-40.095
-34.8391
-38.5293
-37.3093
-38.9153
-48.4788
-46.4876
-43.9178
-55.5468
-45.4725
-37.1523
-36.3379
-33.9221
-45.4782
-37.1623
-36.3702
-33.9476
-54.6158
-48.0886
-48.0768
-45.0756
-8.49427
3.93457
3.87348
19.1679
194.484
197.283
185.598
194.421
-38.6194
-39.4096
-38.7726
-40.3923
-38.5847
-39.3928
-38.7707
-40.38
-35.0467
-35.2703
-35.3879
-35.0699
-80.8726
-86.7892
-74.7709
-80.8695
-44.2056
-44.1345
-45.0637
-42.8036
-44.2314
-44.0356
-45.0183
-42.7237
-38.7862
-39.362
-39.3472
-39.4626
-39.5239
-44.2153
-44.2067
-49.2695
-26.0605
-19.8486
-25.958
-25.8219
-88.2851
114.172
-79.2259
49.4872
-60.4851
-60.3861
-42.0013
-33.1999
-35.8859
-32.5205
-41.0273
-39.266
-77.6525
90.9694
-40.6015
44.5775
-54.3329
-35.796
-40.9754
-33.1636
-34.8614
-32.486
-41.7191
-40.239
-79.2071
51.3804
-88.3861
114.262
-60.5013
-60.3632
-35.8182
-32.3761
-41.8766
-33.0853
-40.9265
-39.2308
-40.7537
44.4244
-77.7079
91.0277
-54.3495
-35.7875
-34.8197
-32.4021
-40.8847
-33.0574
-41.6641
-40.1898
-43.4058
-42.1238
-35.9031
-35.2589
-40.0534
-37.4895
-39.8418
-36.2741
-40.1962
-38.4498
-35.7217
-35.2564
-34.9553
-40.3218
-36.4207
-39.5474
-44.4775
-16.2948
-43.7222
-43.5408
-45.6908
-61.0863
-5.61481
-81.1857
-42.4927
-55.2024
-40.6212
-39.4548
-42.5293
-51.7694
-61.3522
-60.0168
-43.442
-42.1135
-39.8354
-36.2706
-35.8833
-35.2576
-40.0528
-37.483
-40.12
-38.5253
-36.4179
-39.5494
-35.7091
-35.2402
-34.9366
-40.304
-44.4287
-16.3447
-5.54196
-81.3124
-43.6982
-43.5212
-45.6606
-61.056
-42.4625
-55.1809
-61.3488
-59.998
-40.6162
-39.4317
-42.5359
-51.7469
-62.2847
-60.2093
176.055
137.934
-62.5515
-62.5319
126.458
126.787
-45.3677
-30.5064
-52.8747
-44.31
-41.7376
-42.029
-31.2373
-32.1955
-37.0759
-37.0998
-25.5498
-25.3156
-41.3039
-44.3502
-39.7149
-39.5921
-22.4426
-22.463
142.229
142.17
-39.7946
-44.3055
-15.6281
8.64886
-36.7598
-36.7493
-29.8761
-30.0037
-44.0112
-44.6613
-50.5125
-40.8491
-62.2828
-60.2087
137.948
176.016
-45.376
-30.5582
-52.8743
-44.3008
-41.976
-41.6809
-31.0681
-32.074
-41.1651
-44.8966
-39.676
-39.5735
-44.2927
-39.7832
8.84252
-15.6871
-44.6052
-43.9833
-40.8318
-50.4943
-36.9413
-37.3362
-35.0817
-35.2152
-43.5784
-43.2797
-38.4353
-41.0957
-42.7587
-42.765
-35.6407
-35.6404
-37.1616
-39.1717
-41.1935
-41.748
-35.8213
-35.8209
-38.8758
-38.8739
-41.356
-42.6384
-75.4041
-63.7655
28.6444
28.5641
-88.4678
-88.454
-67.8585
-67.8551
-55.8138
-56.0212
-36.932
-37.3159
-35.0834
-35.1437
-43.2673
-43.583
-38.4224
-41.0774
-39.1647
-37.1414
-41.1391
-41.7007
-42.6261
-41.3534
-63.7575
-75.3546
-85.5106
-45.154
-45.5107
-89.0922
-38.3978
-41.1867
-31.8042
-30.4225
-47.0389
-41.1282
-36.3247
-42.6858
-70.1195
-83.1836
-45.1805
-43.6127
-85.4997
-89.3914
-45.5166
-45.1441
-70.143
-43.5123
-45.1898
-83.3756
-47.0068
-42.6655
-36.341
-41.0872
-38.3911
-30.4525
-31.8443
-41.1745
-81.7152
-78.6259
-54.4696
-50.0894
-81.6129
-50.0634
-54.456
-78.6022
-39.4382
-39.9759
-44.9612
-41.8178
-39.4475
-41.8109
-44.9711
-39.9809
-51.709
-22.6909
-10.0748
-36.3686
-69.1742
9.75768
15.7167
-7.24227
-69.154
-7.43557
17.432
9.757
-51.8414
-36.4083
-10.1053
-22.7948
44.1942
128.167
188.779
56.1951
15.1415
59.7076
177.183
106.934
15.123
106.935
177.16
59.3843
44.4442
61.1932
188.886
128.206
-36.1077
-35.9341
-38.3245
-38.8621
-34.2431
-36.2807
-38.2811
-36.8506
-42.5875
-43.1883
-39.8432
-38.8183
-46.4506
-41.5952
-40.7499
-44.8235
-36.058
-38.8497
-38.3093
-35.9166
-46.424
-44.8083
-40.734
-41.5785
-42.5942
-38.8073
-39.8453
-43.1896
-34.2284
-36.8278
-38.2522
-36.2624
-35.9935
-36.5164
-35.2064
-34.9539
-35.9873
-34.9427
-35.21
-36.5142
-35.9578
-36.5908
-35.3046
-34.9871
-35.9637
-35.0073
-35.3572
-36.5912
-65.8617
-58.0526
-84.675
-78.6528
-51.1658
-65.829
-72.6917
-53.3046
-51.154
-53.2748
-72.6893
-65.825
-65.8442
-78.72
-84.6657
-58.0155
-42.9028
-40.1855
-42.0863
-39.553
-42.1713
-42.1751
-44.7476
-44.318
-40.6151
-42.6041
-44.2162
-41.5021
-41.9902
-38.4683
-43.4711
-47.3025
-42.9904
-39.5265
-41.9795
-39.9823
-41.9883
-47.1953
-43.4074
-38.446
-40.5286
-41.4058
-44.2097
-42.5593
-42.0425
-44.9104
-44.8165
-42.0567
-39.2679
-39.4615
-39.551
-39.2058
-39.2759
-39.1304
-39.5385
-39.462
-37.7376
-34.2796
-39.0452
-40.4656
-37.8088
-40.4643
-39.0578
-34.456
-51.6422
-52.2606
-49.5757
-60.7657
-36.9535
-34.209
-39.8501
-43.8793
-36.891
-43.8462
-39.8475
-34.1895
-51.6452
-60.7615
-49.5706
-52.217
-34.6691
-28.2447
-24.9388
-32.7237
-34.539
-32.615
-24.6819
-28.0807
-33.6366
-31.4931
-28.4077
-32.963
-33.7383
-33.0751
-28.577
-31.565
-87.2473
-129.634
-95.7349
-42.6571
-40.5581
-40.3488
-71.1358
-64.2257
-75.4296
-41.0613
-36.4777
-40.1652
-129.701
-87.6183
-95.5957
-40.402
-42.5111
-40.2023
-64.5124
-72.5279
-75.45
-36.3521
-40.9328
-40.0617
-36.6078
-35.7992
-36.6709
-37.3088
-39.9512
-33.4619
-27.8679
-37.3511
-50.661
-48.5052
-50.9627
-57.8894
-44.673
-44.1014
-45.2539
-47.6212
-36.6033
-37.2987
-35.8283
-37.1615
-39.96
-37.3524
-33.4585
-27.8751
-50.6233
-57.7696
-48.4743
-50.9268
-44.6933
-47.6319
-44.1146
-45.2561
-61.5711
-60.4177
-121.752
73.286
-111.205
-111.229
-91.6559
-9.74714
-41.7791
-36.4675
-38.3205
-41.515
-40.4071
-40.5205
-41.4177
-34.1476
-30.6843
-30.632
-32.0554
-26.9282
-41.1642
-39.1393
-43.8502
-39.4105
-55.3256
-55.2537
-46.8932
-27.3621
-37.445
-35.1928
-36.666
-28.6957
-32.9781
-32.9659
-33.2949
-31.896
-44.7571
-47.9615
-47.4303
-47.6865
-61.7067
-60.3146
-121.806
73.1859
-41.7559
-36.4783
-38.1933
-41.5048
-40.153
-40.4382
-41.2929
-34.027
-41.4475
-38.6341
-43.3835
-39.421
-37.3965
-35.2857
-36.7092
-28.692
-44.738
-47.9662
-47.393
-47.6324
-34.9085
-36.0613
-36.3686
-35.0488
-40.3807
-41.5033
-41.3146
-40.4712
-38.0151
-38.0128
-38.958
-37.2194
-35.7646
-37.4306
-36.9681
-36.8052
-37.7151
-37.7149
-37.1383
-38.316
-48.4571
-46.9406
-46.0999
-51.018
-29.3304
-29.3195
-7.29616
-67.2156
-65.3563
-65.3544
-66.5159
-63.3811
-34.8188
-36.1198
-36.3465
-35.0444
-40.3643
-41.4847
-41.2939
-40.4525
-35.749
-37.4115
-36.9541
-36.7805
-48.4673
-46.8962
-46.0896
-50.9801
-40.5265
-37.1135
-36.7613
-34.6942
-40.5397
-37.1296
-36.7864
-34.7232
-50.4401
-48.2879
-48.2803
-46.1365
-1.0869
5.39478
5.4525
12.4796
199.149
206.031
197.175
199.04
-38.9074
-39.2874
-39.0938
-39.6683
-38.8474
-39.2634
-39.0804
-39.6512
-35.1262
-35.1814
-35.2376
-35.122
-82.4593
-85.7898
-78.5408
-82.4566
-45.3361
-44.2707
-44.6005
-43.5583
-45.3471
-44.2007
-44.5505
-43.4764
-38.9366
-39.1532
-39.145
-39.3682
-41.3227
-43.9539
-43.951
-46.3373
-23.4897
-20.2267
-25.4301
-23.3277
-59.404
-65.7204
-115.031
74.6973
-118.023
-113.05
-96.3746
-50.1997
-69.2701
-51.551
-58.9678
-58.9097
-40.837
-41.0289
-41.3822
-34.7595
-35.9625
-32.9182
-34.9088
-33.2083
-40.7345
-40.8394
-40.494
-40.1047
-73.7298
-69.2823
-107.759
55.6236
-51.9785
-61.4089
-50.7719
-42.114
-51.822
-41.2603
-50.3383
-38.555
-41.5835
-40.8506
-41.1929
-34.7576
-33.5222
-32.9386
-33.6807
-32.597
-41.2503
-42.3594
-41.7855
-41.6997
-118.412
-113.214
-96.4653
-45.6773
-59.4328
-65.8068
-114.861
74.3931
-69.2093
-51.5806
-58.9874
-58.9005
-35.8247
-32.8004
-34.8251
-33.0338
-40.5869
-40.5522
-41.2488
-34.6377
-40.6491
-40.8613
-40.4425
-40.0672
-51.6379
-61.4786
-50.9009
-41.9082
-73.9911
-69.3308
-107.796
55.7482
-51.837
-41.2421
-50.351
-38.5582
-33.4412
-32.9042
-33.6476
-32.5243
-41.4571
-40.7354
-41.0507
-34.6423
-41.1887
-42.3241
-41.7319
-41.6441
-39.9275
-38.2756
-42.9451
-42.4938
-35.7194
-35.4595
-35.6517
-35.2258
-38.1742
-39.1448
-39.4357
-37.9385
-37.6638
-37.8732
-39.0682
-36.843
-37.9966
-38.78
-39.7228
-38.0952
-34.8246
-35.0964
-35.2922
-34.9289
-29.7537
-33.7137
-33.7255
-35.4854
-37.5806
-37.6024
-36.9414
-38.2411
-50.6598
-45.7816
-45.8023
-58.1947
-45.0827
-42.9164
-43.9083
-43.6455
-50.4038
-49.0154
-47.9958
-54.5088
-74.872
-32.3358
-23.7764
-61.3953
-45.0457
-47.1332
-44.8674
-49.6674
-41.633
-39.6591
-40.7072
-40.5732
-45.4493
-46.1632
-44.4017
-48.4283
-54.1999
-63.3919
-61.0955
-61.4388
-39.8808
-38.3915
-42.9322
-42.4591
-37.6575
-37.8686
-39.0627
-36.8382
-35.6411
-35.5231
-35.6939
-35.2399
-38.1623
-39.13
-39.4037
-37.9374
-38.0075
-38.9435
-39.6781
-38.1192
-37.5805
-37.6018
-36.9395
-38.2417
-34.816
-35.0002
-35.2747
-34.9089
-29.7459
-33.7122
-33.6987
-35.4687
-50.5922
-45.7204
-45.7385
-57.4934
-74.6806
-32.0789
-23.7046
-60.0598
-45.0564
-42.8935
-43.8841
-43.6235
-50.3619
-48.9573
-47.9574
-54.4723
-45.0486
-47.1229
-44.8269
-49.6625
-54.1837
-63.3941
-61.0867
-61.4432
-41.6284
-39.6432
-40.6962
-40.5526
-45.4801
-46.1835
-44.4179
-48.4148
-72.6275
-52.0976
-62.0672
-60.9767
156.881
184.335
180.558
147.647
-69.3389
-58.2578
-62.6642
-62.6527
113.762
171.348
135.453
135.479
-37.2238
-37.2076
-40.5811
-34.3228
-45.4868
-47.6868
-49.2509
-44.9604
-41.4028
-42.6297
-41.8581
-42.016
-32.629
-29.2923
-31.4492
-32.4042
-35.4669
-37.8902
-36.8874
-36.9007
-23.0994
-20.7771
-23.0373
-22.8763
-45.0181
-44.041
-42.6999
-46.5849
-39.6126
-39.4529
-39.5764
-39.7113
-28.2563
-15.5853
-21.5264
-21.5372
117.517
169.206
143.311
142.958
-36.0178
-35.8885
-35.7832
-40.4641
-7.51233
1.21472
-8.7661
4.30564
-35.0946
-37.8377
-36.5182
-36.5142
-30.0247
-26.995
-29.0819
-29.1588
-48.3264
-45.8474
-46.5917
-45.7984
-46.473
-44.5425
-47.6409
-42.8799
-72.6401
-52.0868
-62.0595
-60.9734
156.674
184.36
147.673
180.558
-37.2128
-37.21
-40.5726
-34.3426
-45.4776
-47.6334
-49.3095
-44.9444
-41.3222
-42.6127
-41.9655
-41.8091
-32.5202
-29.1665
-31.297
-32.2828
-44.0449
-43.8669
-42.4623
-46.9058
-39.5743
-39.4326
-39.5406
-39.692
-36.1707
-35.9385
-40.5329
-35.7938
-7.5616
1.06677
4.2956
-8.84995
-48.2952
-45.8048
-45.749
-46.5647
-46.4538
-44.5374
-42.8656
-47.627
-37.3405
-38.0963
-36.9708
-37.7917
-34.9041
-34.8794
-35.0046
-35.074
-42.7918
-39.6133
-43.7509
-43.4591
-39.8758
-39.4873
-39.0795
-40.3179
-41.3676
-44.4642
-42.8168
-42.8204
-36.1206
-35.4262
-35.6963
-35.6958
-37.6539
-38.4152
-37.5618
-38.4978
-40.7295
-42.1716
-41.4259
-41.6478
-36.2266
-35.581
-35.8556
-35.8576
-39.3086
-39.6651
-38.9041
-38.9027
-42.9072
-41.2396
-41.7283
-42.3566
-61.178
-77.726
-72.8171
-66.3276
25.854
27.9211
30.6604
30.2738
-89.087
-90.0945
-91.2624
-91.2538
-67.9513
-71.8524
-69.1631
-69.1611
-58.8854
-52.3466
-56.0372
-56.0357
-37.3381
-38.1061
-36.9617
-37.7885
-34.8908
-34.9859
-35.0094
-35.015
-42.7803
-39.6245
-43.4508
-43.7502
-39.8626
-39.4712
-39.0655
-40.3003
-37.6392
-38.4023
-38.4871
-37.5437
-40.6934
-42.1037
-41.3709
-41.5974
-42.8994
-41.2301
-42.3468
-41.7231
-61.1576
-77.7284
-66.3307
-72.7386
-72.6754
-61.943
-62.4438
-53.2
-43.4581
-41.9385
-37.2476
-43.3549
-43.5156
-43.7635
-42.6272
-43.1884
-66.2974
-56.8324
-59.5296
-50.1189
-72.745
-61.9582
-62.4511
-53.1961
-66.3377
-56.8388
-59.5326
-50.1112
-43.4802
-43.7381
-42.608
-43.1699
-43.4943
-41.9331
-37.305
-43.3641
-69.1103
-61.3639
-62.2998
-56.8272
-69.0923
-61.3472
-62.2793
-56.8132
-42.1712
-41.085
-43.8381
-42.639
-42.1767
-41.0916
-43.8445
-42.6461
-34.933
-31.9903
-24.3566
-22.0153
8.2075
11.2821
14.8936
24.9872
7.82338
11.5001
15.4384
25.0184
-34.9573
-31.9961
-24.3825
-22.046
125.719
110.731
161.814
127.214
99.4508
98.0999
126.856
126.77
97.6405
99.3483
126.838
126.606
111.042
126.207
127.406
161.847
-36.2459
-37.1652
-36.9309
-37.6429
-35.9392
-35.7351
-36.8453
-36.7097
-40.6438
-41.5046
-40.0374
-40.9803
-43.3374
-44.2683
-42.0306
-42.8365
-36.2428
-37.1633
-36.9214
-37.6321
-43.3264
-44.2366
-42.0113
-42.8077
-40.6415
-41.5064
-40.0334
-40.9787
-35.9215
-35.7171
-36.8197
-36.6889
-35.3549
-35.8543
-35.205
-35.5399
-35.8519
-35.3523
-35.5404
-35.2043
-35.9859
-35.4392
-35.73
-35.3811
-35.4512
-35.9899
-35.3873
-35.7272
-71.3433
-78.9482
-75.7559
-84.1896
-55.338
-60.3505
-61.7773
-65.5629
-60.339
-55.3154
-65.5574
-61.7708
-79.011
-71.3178
-84.1806
-75.8162
-40.8478
-41.6253
-40.9379
-40.8844
-41.2804
-41.2352
-41.6095
-41.9385
-41.2793
-41.7337
-41.9872
-42.3231
-41.0781
-39.0277
-43.0905
-41.8169
-40.788
-41.5983
-40.8447
-40.8302
-41.0492
-39.0202
-43.0328
-41.7734
-41.206
-41.6782
-41.9325
-42.2867
-41.1745
-41.1371
-41.5428
-41.8283
-39.1973
-39.3271
-39.8006
-38.9013
-39.2036
-39.3258
-39.7687
-38.8983
-36.8869
-38.4851
-37.4027
-38.7631
-36.9387
-38.5226
-37.4337
-38.7908
-57.263
-58.9294
-53.2026
-55.8812
-36.1578
-38.6457
-37.0622
-39.0845
-36.1225
-38.6089
-37.0426
-39.0624
-57.2492
-58.9046
-53.1906
-55.8636
-32.4267
-31.8073
-31.2427
-28.833
-31.6606
-32.2964
-28.6179
-31.0747
-32.4071
-32.7113
-31.1025
-32.0175
-32.8084
-32.5021
-32.1353
-31.2152
-108.055
50.1328
-102.263
-29.5815
-87.8824
-83.2858
-41.8901
-36.9577
-37.3515
-36.7898
-42.4375
-38.8047
-94.8013
12.0386
-57.0505
-26.6601
-67.7315
-52.5097
-40.7194
-35.2382
-35.7772
-34.0327
-40.5951
-38.9045
-102.321
-28.6415
-107.979
49.8584
-87.8141
-83.0893
-37.2679
-36.5641
-41.7619
-36.8172
-42.3063
-38.6873
-57.3148
-26.9136
-94.7292
11.8645
-67.7565
-52.5561
-35.6931
-33.9309
-40.5878
-35.1311
-40.5113
-38.8398
-39.1452
-39.2979
-35.651
-35.8539
-38.1046
-36.6415
-38.2478
-36.5604
-45.4358
-40.4609
-34.2293
-35.2593
-32.4842
-31.7463
-36.6832
-41.0097
-48.9563
-59.4321
-46.3702
-46.9101
-48.4687
-56.4822
-73.1601
-70.0687
-43.5701
-47.9373
-42.7779
-42.2105
-44.6666
-48.0719
-50.9915
-51.0849
-39.0059
-39.2886
-38.2392
-36.5527
-35.5536
-35.8425
-38.0844
-36.6184
-45.5238
-40.4688
-36.6807
-41.0188
-34.2183
-35.255
-32.4482
-31.6663
-48.9171
-59.4189
-73.1362
-70.0501
-46.3424
-46.8851
-48.4326
-56.4364
-43.585
-47.9468
-50.9877
-51.0872
-42.7826
-42.2023
-44.6754
-48.0771
-120.343
77.5773
-114.205
70.5176
-89.2448
-85.8618
124.5
105.34
-94.2788
-33.1192
-94.2512
-32.7668
-77.7075
-77.6959
57.779
57.8486
-44.5846
-48.5858
-31.345
-37.8166
-40.4063
-33.7858
-45.9777
-42.3212
-41.2645
-34.3463
-41.4157
-34.2307
-41.9175
-41.7489
-32.6564
-32.9163
-32.9137
-28.8943
-32.8673
-28.741
-33.9945
-34.0182
-26.5749
-26.4758
-44.6126
-41.1964
-39.5906
-39.0077
-41.8708
-47.6105
-39.2641
-40.2364
-47.969
-28.9081
-47.9925
-28.9211
-35.6623
-35.6772
48.6768
48.7274
-41.9852
-30.2845
-40.5394
-23.5197
-38.2919
-40.9975
-17.9857
-12.6861
-33.3123
-32.0488
-33.2889
-31.9299
-34.0713
-34.0638
-31.3565
-31.3988
-42.3524
-43.7724
-48.7159
-50.2682
-45.7867
-48.5269
-50.7334
-46.4093
-120.107
77.2954
-114.15
69.9697
-89.9154
-86.2663
105.257
124.379
-44.5404
-48.5542
-31.4288
-37.8651
-40.393
-33.7882
-45.825
-42.3313
-41.1297
-34.2293
-41.2813
-34.131
-41.6455
-41.8059
-32.5543
-32.8285
-44.6965
-41.2044
-39.3551
-38.7844
-41.53
-48.277
-39.109
-40.255
-41.8824
-30.3946
-40.517
-23.5488
-40.9509
-38.407
-12.7438
-18.1012
-42.3086
-43.7613
-48.9518
-50.2378
-48.4987
-45.7369
-46.3805
-50.6914
-35.2411
-34.9768
-35.8581
-34.9272
-36.3465
-36.9445
-34.908
-34.9543
-40.2906
-39.2989
-42.3447
-41.8614
-41.6388
-42.3084
-39.5151
-40.7972
-38.9204
-37.1485
-38.9159
-37.1452
-40.0102
-40.0131
-36.5905
-36.5892
-35.5847
-36.1971
-38.6104
-38.5675
-36.7829
-37.9208
-39.1317
-38.6481
-37.0779
-38.3566
-37.0773
-38.3563
-36.6233
-36.6237
-39.45
-39.4502
-46.8908
-52.7252
-45.0099
-49.4446
-43.5719
-44.4119
-56.9034
-54.3401
-8.91982
-63.09
-8.84322
-63.123
11.88
11.8433
-80.613
-80.5557
-65.7062
-62.7902
-65.7032
-62.7848
-66.6325
-66.6305
-61.0629
-61.0607
-35.2033
-34.9452
-35.837
-34.9054
-36.3319
-36.9516
-34.894
-34.9379
-40.2672
-39.2883
-42.3226
-41.8395
-42.2898
-41.624
-39.4989
-40.7808
-35.5743
-36.1734
-38.5964
-38.5418
-37.9077
-36.7665
-39.1057
-38.6245
-46.8691
-52.6963
-45.0121
-49.4161
-44.4036
-43.5696
-54.3107
-56.8677
-45.5071
-45.1645
-40.5993
-34.7557
-33.9359
-40.3779
-33.046
-35.3061
-45.5167
-45.1738
-40.5969
-34.783
-40.3993
-33.9643
-35.326
-33.0791
-54.5702
-54.5622
-50.2901
-45.7788
-50.2753
-45.7655
-44.9461
-44.9522
-8.90363
-8.91378
-2.90961
10.4821
10.0954
-2.94441
17.4646
18.0184
197.654
189.13
192.824