# vtk DataFile Version 2.0
tet_velo
ASCII
DATASET UNSTRUCTURED_GRID
POINTS 29498 float
-0.663531 0.265 -2.225
-0.689033 0.395 2.345
-0.715 0.712093 -2.115
-0.674498 0.845 2.195
0.654189 0.265 -2.225
0.679686 0.395 2.345
0.705 0.712818 -2.115
0.665149 0.845 2.195
-0.739468 0.240897 -0.701667
-0.777195 0.255004 0.821667
-0.812767 0.867663 -0.678334
-0.796078 0.908777 0.758333
0.730197 0.240824 -0.701667
0.766773 0.256081 0.821667
0.803031 0.868194 -0.678334
0.786255 0.908762 0.758333
-1.41922 -0.0732631 -3.41472
-1.42309 -0.0322486 -2.23077
-1.48087 -0.0430628 -0.705194
-1.50766 -0.0287088 0.837822
-1.45735 0.0674495 2.36486
-1.44122 0.118183 3.55602
-1.44722 0.1461 4.73385
-1.41808 0.196522 -3.39088
-1.42412 0.257171 -2.21639
-1.49845 0.259964 -0.707682
-1.5153 0.262462 0.80883
-1.42944 0.341241 2.3192
-1.42251 0.38915 3.50913
-1.43852 0.418714 4.68979
-1.44186 0.70531 -3.31887
-1.46849 0.765646 -2.1408
-1.55219 0.869156 -0.69117
-1.53604 0.886987 0.752318
-1.42762 0.858329 2.20361
-1.42327 0.905008 3.39712
-1.44248 0.952149 4.59175
-1.47424 1.56086 -3.27602
-1.49396 1.63157 -2.11093
-1.53093 1.73313 -0.689396
-1.54318 1.77917 0.713453
-1.51982 1.77164 2.13589
-1.49983 1.77771 3.30287
-1.49174 1.80468 4.48804
-0.691987 -0.0702824 -3.42032
-0.68102 -0.027116 -2.23892
-0.72811 -0.0533603 -0.7041
-0.765776 -0.032558 0.848779
-0.733197 0.0977926 2.38402
-0.719338 0.139108 3.56901
-0.723003 0.156901 4.74137
-0.688994 0.193954 -3.3926
-0.702745 0.409321 3.51985
-0.71612 0.427958 4.69546
-0.706009 0.68326 -3.30815
-0.70225 0.904397 3.3954
-0.719763 0.953095 4.59139
-0.725699 1.54794 -3.26542
-0.736293 1.62048 -2.09925
-0.768278 1.73382 -0.682359
-0.791019 1.78435 0.712609
-0.783474 1.77011 2.12986
-0.768149 1.77371 3.29685
-0.760329 1.80153 4.48367
0.712325 -0.0701112 -3.42031
0.702752 -0.027063 -2.23892
0.74289 -0.0532527 -0.7041
0.747906 -0.0318312 0.848779
0.691975 0.0980769 2.38402
0.702333 0.139336 3.56901
0.71398 0.157156 4.74137
0.703418 0.19417 -3.3926
0.698619 0.409473 3.51985
0.712497 0.428183 4.69546
0.72111 0.683703 -3.30815
0.692457 0.904516 3.3954
0.707804 0.953293 4.59139
0.759656 1.54834 -3.26542
0.768408 1.62089 -2.09925
0.764475 1.73415 -0.682359
0.730861 1.78458 0.712609
0.696633 1.7703 2.12986
0.693448 1.77391 3.29685
0.699073 1.80175 4.48366
1.43064 -0.0728602 -3.41472
1.42671 -0.0319716 -2.23077
1.48175 -0.0426827 -0.705194
1.49765 -0.0276707 0.837822
1.43885 0.0681712 2.36486
1.43083 0.118731 3.55602
1.4402 0.146641 4.73385
1.42073 0.197001 -3.39088
1.40765 0.257513 -2.21639
1.48468 0.26027 -0.707682
1.51016 0.263531 0.80883
1.4295 0.341854 2.3192
1.42269 0.389605 3.50913
1.43597 0.419207 4.68979
1.44487 0.706079 -3.31887
1.45185 0.766516 -2.1408
1.53614 0.869788 -0.69117
1.5274 0.887433 0.752318
1.42374 0.858734 2.20361
1.4167 0.905379 3.39712
1.43132 0.952589 4.59175
1.49961 1.56161 -3.27602
1.51349 1.63233 -2.11093
1.52121 1.73378 -0.689397
1.4913 1.77965 0.713453
1.44697 1.77206 2.13589
1.43317 1.77815 3.30287
1.43399 1.80514 4.48804
-0.747546 0.488546 -2.22828
-0.00467101 0.261766 -2.22823
-0.706544 0.247904 -1.46333
-0.69082 0.62 2.27905
-0.00467348 0.351661 2.38834
-0.770576 0.28754 1.58333
-0.005 0.777239 -2.17978
-0.796079 0.822073 -1.39667
-0.00467452 0.920407 2.27041
-0.768668 0.910269 1.47667
0.738041 0.488909 -2.22845
0.697235 0.24787 -1.46333
0.681171 0.62 2.27875
0.771171 0.277599 1.58333
0.786118 0.822608 -1.39667
0.759211 0.91039 1.47667
-0.762393 0.243889 0.0600001
-0.874718 0.55428 -0.69
-0.00463549 0.241166 -0.701667
-0.880886 0.581891 0.79
-0.00521077 0.241868 0.821667
-0.808554 0.892351 0.04
-0.00486781 1.09924 -0.678334
-0.00491136 1.35635 0.758333
0.75289 0.244048 0.0600001
0.865373 0.554509 -0.69
0.870796 0.582421 0.79
0.798894 0.892728 0.04
-0.834537 0.521413 -1.43
-0.886629 0.568085 0.05
-0.850749 0.600945 1.53
-0.00465325 0.24846 -1.46333
-0.00492313 0.234243 0.0600001
-0.00494212 0.268895 1.58333
-0.0048355 0.488728 -2.41141
-0.004674 0.62 2.33675
-0.0049339 0.906869 -1.39667
-0.00488958 1.36181 0.04
-0.00479294 1.05475 1.47667
0.842032 0.521709 -1.43
0.880055 0.568465 0.05
0.859069 0.601211 1.53
-1.04382 0.261085 -2.2207
-0.672275 0.118942 -2.23196
-0.676262 0.229477 -2.8088
-1.05924 0.36812 2.3321
-0.711115 0.246396 2.36451
-0.695889 0.40216 2.93242
-1.09175 0.73887 -2.1279
-0.710504 0.697677 -2.71158
-0.725647 1.16629 -2.10713
-1.05106 0.851664 2.1993
-0.688374 0.874699 2.7952
-0.728986 1.30755 2.16243
0.678471 0.118968 -2.23196
0.678803 0.229585 -2.8088
1.03092 0.261257 -2.2207
0.68583 0.246538 2.36451
0.689152 0.402236 2.93242
1.0546 0.368427 2.3321
0.713055 0.698261 -2.71158
0.736704 1.16685 -2.10713
1.07842 0.739667 -2.1279
0.678803 0.874758 2.7952
0.680891 1.30765 2.16243
1.04444 0.851867 2.1993
-1.11896 0.25043 -0.704674
-0.733789 0.0937682 -0.702883
-1.14625 0.258733 0.815248
-0.771485 0.111223 0.835223
-1.18248 0.868409 -0.684752
-0.790522 1.30074 -0.680346
-1.16606 0.897882 0.755326
-0.793548 1.34657 0.735471
0.736544 0.0937856 -0.702883
1.10744 0.250547 -0.704674
0.757339 0.112125 0.835223
1.13847 0.259806 0.815248
0.783753 1.30117 -0.680346
1.16959 0.868991 -0.684752
0.758558 1.34667 0.735471
1.15683 0.898097 0.755326
-1.42115 -0.0527558 -2.82275
-1.41865 0.0616294 -3.4028
-1.0556 -0.0717728 -3.41752
-1.45198 -0.0376557 -1.46798
-1.4236 0.112461 -2.22358
-1.05205 -0.0296823 -2.23485
-1.49426 -0.0358858 0.0663142
-1.48966 0.108451 -0.706438
-1.10449 -0.0482116 -0.704647
-1.4825 0.0193704 1.60134
-1.51148 0.116877 0.823326
-1.13672 -0.0306334 0.843301
-1.44929 0.0928165 2.96044
-1.44339 0.204345 2.34203
-1.09527 0.0826211 2.37444
-1.44422 0.132142 4.14493
-1.43187 0.253667 3.53257
-1.08028 0.128645 3.56251
-1.44287 0.282407 4.71182
-1.08511 0.1515 4.73761
-1.4211 0.226846 -2.80364
-1.42997 0.450916 -3.35488
-1.05354 0.195238 -3.39174
-1.46128 0.258567 -1.46204
-1.44631 0.511408 -2.1786
-1.50687 0.261213 0.0505742
-1.52532 0.56456 -0.699426
-1.47237 0.301851 1.56402
-1.52567 0.574725 0.780574
-1.42598 0.365195 2.91417
-1.42853 0.599785 2.2614
-1.43052 0.403932 4.09946
-1.42289 0.647079 3.45312
-1.06263 0.399235 3.51449
-1.4405 0.685431 4.64077
-1.07732 0.423336 4.69262
-1.45518 0.735478 -2.72983
-1.45805 1.13308 -3.29744
-1.07394 0.694285 -3.31351
-1.51034 0.817401 -1.41598
-1.48123 1.19861 -2.12586
-1.54411 0.878072 0.0305741
-1.54156 1.30114 -0.690283
-1.48183 0.872658 1.47796
-1.53961 1.33308 0.732886
-1.42545 0.881669 2.80036
-1.47372 1.31498 2.16975
-1.43288 0.928579 3.99444
-1.46155 1.34136 3.35
-1.06276 0.904703 3.39626
-1.46711 1.37841 4.5399
-1.08112 0.952622 4.59157
-1.4841 1.59621 -2.69347
-1.09997 1.5544 -3.27072
-1.51244 1.68235 -1.40016
-1.11513 1.62602 -2.10509
-1.53706 1.75615 0.0120285
-1.1496 1.73347 -0.685878
-1.5315 1.7754 1.42467
-1.1671 1.78176 0.713031
-1.50983 1.77467 2.71938
-1.15165 1.77087 2.13287
-1.49579 1.79119 3.89546
-1.13399 1.77571 3.29986
-1.12604 1.8031 4.48585
-0.686503 -0.0486992 -2.82962
-0.69049 0.0618359 -3.40646
0.0101692 -0.0701968 -3.42031
-0.704565 -0.0402382 -1.47151
0.0108662 -0.0270895 -2.23892
-0.746943 -0.0429591 0.0723395
0.00739002 -0.0533065 -0.7041
-0.749486 0.0326173 1.6164
-0.00893502 -0.0321946 0.848779
-0.726267 0.11845 2.97652
-0.020611 0.0979347 2.38402
-0.72117 0.148004 4.15519
-0.711041 0.274214 3.54443
-0.00850208 0.139222 3.56901
-0.719562 0.29243 4.71842
-0.00451144 0.157028 4.74137
-0.697501 0.438607 -3.35038
0.00721186 0.194062 -3.3926
-0.709433 0.41864 4.10765
-0.702497 0.656859 3.45762
-0.002063 0.409397 3.51985
-0.717941 0.690527 4.64342
-0.00181177 0.428071 4.69546
-0.715854 1.1156 -3.28679
0.00755087 0.683482 -3.30815
-0.711006 0.928746 3.99339
-0.735199 1.33905 3.34612
-0.00489636 0.904456 3.3954
-0.740046 1.37731 4.53753
-0.00597934 0.953194 4.59139
-0.730996 1.58421 -2.68234
0.0169781 1.54814 -3.26542
-0.752286 1.67715 -1.3908
0.0160575 1.62068 -2.09925
-0.779648 1.75908 0.015125
-0.00190129 1.73398 -0.682359
-0.787246 1.77723 1.42123
-0.030079 1.78447 0.712609
-0.775811 1.77191 2.71335
-0.0434203 1.7702 2.12986
-0.764239 1.78762 3.89026
-0.0373502 1.77381 3.29685
-0.0306282 1.80164 4.48367
0.707539 -0.0485871 -2.82962
0.707871 0.0620292 -3.40646
1.07148 -0.0714857 -3.41752
0.722821 -0.0401579 -1.47151
1.06473 -0.0295173 -2.23485
0.745398 -0.042542 0.0723394
1.11232 -0.0479677 -0.704647
0.71994 0.0331228 1.6164
1.12278 -0.029751 0.8433
0.697154 0.118706 2.97652
1.06541 0.083124 2.37444
0.708157 0.148246 4.15519
0.700476 0.274404 3.54443
1.06658 0.129033 3.56251
0.713238 0.29267 4.71842
1.07709 0.151898 4.73761
0.712264 0.438936 -3.35038
1.06207 0.195585 -3.39174
0.705558 0.418828 4.10765
0.695538 0.656994 3.45762
1.06065 0.399539 3.51449
0.71015 0.690738 4.64342
1.07423 0.423695 4.69263
0.740383 1.11602 -3.28679
1.08299 0.694891 -3.31351
0.700131 0.928904 3.99339
0.692953 1.33921 3.34612
1.05458 0.904948 3.39626
0.703439 1.37752 4.53753
1.06956 0.952941 4.59157
0.764032 1.58461 -2.68234
1.12963 1.55497 -3.27072
0.766442 1.67752 -1.39081
1.14095 1.62661 -2.10509
0.747668 1.75936 0.0151249
1.14284 1.73396 -0.685878
0.713747 1.77744 1.42123
1.11108 1.78212 0.713031
0.695041 1.7721 2.71335
1.0718 1.77118 2.13287
0.696261 1.78783 3.89026
1.06331 1.77603 3.29986
1.06653 1.80345 4.48585
1.42868 -0.0524159 -2.82275
1.42569 0.0620703 -3.4028
1.45423 -0.0373271 -1.46798
1.41718 0.112771 -2.22358
1.4897 -0.0351767 0.0663142
1.48321 0.108794 -0.706438
1.46825 0.0202502 1.60134
1.5039 0.11793 0.823326
1.43484 0.0934511 2.96044
1.43418 0.205012 2.34203
1.43552 0.132686 4.14493
1.42676 0.254168 3.53257
1.43809 0.282924 4.71182
1.41419 0.227257 -2.80364
1.4328 0.45154 -3.35488
1.44616 0.258892 -1.46204
1.42975 0.512015 -2.1786
1.49742 0.2619 0.0505741
1.51041 0.565029 -0.699426
1.46983 0.302692 1.56402
1.51878 0.575482 0.780574
1.4261 0.365729 2.91417
1.42662 0.600294 2.2614
1.42933 0.404406 4.09946
1.41969 0.647492 3.45312
1.43365 0.685898 4.64077
1.44836 0.736298 -2.72983
1.47224 1.13384 -3.29744
1.49399 0.818152 -1.41598
1.48267 1.19942 -2.12586
1.53177 0.87861 0.030574
[...]
POINT_DATA 29498
VECTORS point_vectors float
-0.953973 -2.99456 6.71347
0.106809 0.0723162 0.26074
-0.59714 0.283412 1.29927
-0.0350208 -0.19984 0.225896
0.897499 -3.50743 7.41015
-0.126759 0.0809691 0.333058
0.662625 0.734274 1.75992
0.00939504 -0.129102 0.176585
0.0250036 -0.00687974 0.953515
-0.0174529 0.0152239 0.926097
0 0 0
0 0 0
-0.0201705 -0.0105411 0.908218
-0.00290173 -0.00415747 0.155994
0 0 0
0 0 0
-0.487992 -0.242405 19.8148
-1.18743 -0.718813 20.3701
-0.483575 -0.48764 21.2187
0.100034 -0.0982134 21.4047
0.758237 0.224735 21.2892
0.995127 0.208337 21.1176
0.906604 0.0601943 20.9471
-0.579894 -0.175951 19.7151
-1.59211 -0.593257 20.3138
-0.669981 -0.576321 21.2782
0.119147 -0.180867 21.507
0.923197 0.0524938 21.3709
1.17193 0.00266529 21.3271
1.08332 -0.078189 21.1573
-0.644136 0.0465271 19.6672
-1.73752 0.0595342 20.2602
-1.18509 -0.300473 21.2259
-0.138512 -0.303563 21.5867
0.771806 -0.442943 21.3445
1.13616 -0.451326 20.9192
0.832943 -0.37247 20.7401
-0.457284 0.281389 19.8627
-0.911317 0.552653 20.2478
-0.975173 0.406311 21.005
-0.344771 -0.0375599 21.4359
0.139036 -0.350962 21.2465
0.33352 -0.551365 20.7869
0.297782 -0.292106 20.8244
-0.437562 -0.437133 19.3873
-1.71262 -3.19276 20.6434
-0.150856 -0.486015 20.9605
0.115214 0.235107 19.6276
0.51392 1.33605 16.4154
1.19688 1.63604 17.3012
1.35884 0.946595 15.8414
-0.562245 -0.349589 19.1401
1.71546 1.3358 11.5487
1.8299 0.960277 12.4693
-0.681018 0.0732764 18.8834
2.07874 -0.459263 9.61369
1.28625 -0.186444 15.2609
-0.416674 0.568712 19.48
-1.02887 1.57798 19.965
-1.49781 1.72344 20.9391
-0.550993 0.242488 21.9205
-0.0304864 -0.522166 21.4386
0.0961033 -0.759641 21.4966
0.205042 -0.772702 19.7482
0.431679 -0.440277 19.4034
1.7911 -3.07507 20.5919
0.166407 -0.460411 21.0185
-0.11908 0.207689 19.5601
-0.379712 1.32874 15.7814
-1.19148 1.65121 17.2964
-1.36428 0.950905 15.8199
0.570643 -0.340235 19.1567
-1.73632 1.35147 11.6
-1.82778 0.965605 12.572
0.682624 0.0822157 18.9192
-2.07557 -0.464729 9.52417
-1.28238 -0.164586 15.2431
0.435928 0.552863 19.5025
1.05452 1.52231 19.9821
1.49539 1.70999 20.9409
0.539575 0.290293 21.9613
0.0687313 -0.509793 21.4091
-0.0841892 -0.764065 21.3933
-0.197084 -0.800365 19.536
0.486377 -0.238461 19.8239
1.17799 -0.704917 20.3698
0.472185 -0.484757 21.2182
-0.0896183 -0.110715 21.4011
-0.777489 0.241658 21.2916
-1.01802 0.201187 21.0671
-0.910132 0.0592976 20.9475
0.577503 -0.173966 19.712
1.62613 -0.610349 20.2845
0.656328 -0.582321 21.2825
-0.0960523 -0.192957 21.5007
-0.925314 0.048693 21.3489
-1.16959 -0.00601085 21.31
-1.08745 -0.0823387 21.112
0.643717 0.0387079 19.6709
1.76237 0.0704017 20.2452
1.18626 -0.30727 21.232
0.154657 -0.301583 21.5873
-0.776067 -0.452441 21.347
-1.13887 -0.461826 20.9223
-0.839036 -0.391756 20.6987
0.451198 0.273637 19.8788
0.902267 0.538565 20.2563
0.975481 0.412017 21.0061
0.35857 -0.0250596 21.4605
-0.136561 -0.373492 21.2611
-0.320865 -0.568633 20.7819
-0.253445 -0.263215 20.8865
-1.27828 -0.231185 1.92523
-0.000790271 -0.0489278 0.282641
0.00611741 -0.00400019 0.164398
-0.0060523 -0.0189677 0.0221018
0.00100592 0.00839129 0.0159565
0.00820849 0.10593 1.14171
0.000651381 0.279983 0.473403
-0.356163 -0.143466 1.36658
0.00371534 0.141647 -0.174353
0.0196757 0.00142858 0.107241
2.38104 -0.35663 3.11353
-0.00664261 -0.00232454 0.193454
0 0 0
0.0490625 0.115398 1.73367
0.320825 -0.0974313 1.28033
-0.024458 0.000325937 0.168746
-0.0114542 0.00867633 0.566126
-0.000640141 -0.000726565 0.0175781
0 0 0
0.00864181 0.0193494 0.129378
0 0 0
0 0 0
0.000917257 0.0518452 0.119549
-1.10582e-05 -0.000735101 0.0209635
0.0290007 0.00988865 0.950488
0.000499909 -0.000850354 0.016005
9.69197e-06 0.00701644 0.0329709
0 0 0
-0.000229622 -0.000432548 0.00506168
0 0 0
0 0 0
0 0 0
0 0 0
0 0 0
0.00598049 0.394561 0.461879
0 0 0
-0.000183347 0.00054796 0.00748011
4.95965e-05 0.00657933 0.0824753
0 0 0
0 0 0
-1.67734e-05 0.000743577 0.00764321
-0.0179154 0.0249746 0.202165
-3.01111 -1.63535 20.2926
-2.62835 -4.88395 20.9179
-1.61733 -1.30552 17.9931
1.40167 0.652446 18.0779
0.454809 1.27648 8.83387
1.15444 0.886921 7.79847
-3.48367 0.429392 20.2047
-2.38789 0.718446 17.1884
-2.28275 2.66379 19.7511
1.27138 -0.2586 17.1949
0.402625 -0.491488 5.22053
0.524668 -0.44052 14.3256
2.66908 -4.77664 20.8261
1.62947 -1.29222 18.0214
3.02742 -1.6586 20.2537
-0.371239 1.24069 8.29899
-1.18506 0.902751 7.76083
-1.42363 0.662751 18.0436
2.38006 0.704865 17.2517
2.29005 2.58381 19.753
3.5306 0.483392 20.1424
-0.369575 -0.493055 5.03257
-0.455713 -0.440182 12.8941
-1.2608 -0.297513 17.1978
-0.503781 -0.985427 21.1226
0.186786 -0.237597 15.8379
0.290619 -0.0579513 20.4532
0.0864975 0.263039 14.0266
-2.08181 -0.761753 21.4457
-3.61331 2.18461 20.705
-0.0437898 -0.509377 20.2134
-0.31907 0.0976842 17.8879
-0.0849184 -0.186412 15.9254
0.432313 -0.952812 20.9611
-0.169066 0.188395 13.8529
-0.229207 -0.0882052 20.2797
3.58586 2.15295 20.7402
2.0805 -0.794734 21.3756
0.101578 0.236859 16.6096
0.0804223 -0.49867 20.2123
-0.872114 -0.475666 19.8916
-0.53717 -0.209669 19.7618
-0.50199 -0.34993 19.6144
-0.835397 -0.637166 20.9743
-1.36928 -0.676387 20.3465
-1.69583 -1.54768 20.3727
-0.177778 -0.293136 21.3748
-0.568605 -0.535864 21.2472
-0.335861 -0.650549 21.3918
0.409742 0.0807093 21.4157
0.111707 -0.136598 21.4583
0.194161 0.000613849 21.4758
0.941088 0.254866 21.1481
0.845863 0.165315 21.3238
1.00212 0.701203 20.9903
0.868393 0.278297 20.5517
1.08353 0.105501 21.2223
1.28823 0.77482 20.5996
0.994314 -0.0104989 21.0678
1.07254 0.570069 20.3511
-1.09209 -0.36972 19.7403
-0.615432 -0.0819569 19.681
-0.63309 -0.258458 19.4573
-1.11346 -0.631506 21.0042
-1.74544 -0.277912 20.2988
-0.261012 -0.38508 21.4548
-0.95834 -0.50103 21.2559
0.514589 -0.0502949 21.511
0.0119613 -0.283091 21.5774
1.12647 0.107026 21.116
0.92914 -0.217014 21.3487
0.897567 0.123064 20.7214
1.16881 -0.271284 21.3577
1.79505 0.533631 18.9937
0.977335 -0.386981 20.8125
1.45925 0.442633 16.7987
-1.24794 0.0814954 19.7165
-0.587899 0.205426 19.7446
-0.718194 0.060859 19.3271
-1.491 -0.155734 20.8577
-1.35972 0.470211 20.2126
-0.668942 -0.327204 21.5297
-1.26969 0.124133 21.1094
0.34127 -0.342764 21.5687
-0.306824 -0.212196 21.5466
0.96631 -0.451974 21.1444
0.377929 -0.490579 21.336
0.806361 -0.376313 20.891
0.550994 -0.638703 21.1692
1.63631 -0.668078 18.5646
0.561878 -0.321127 20.7016
1.06318 -0.796948 19.4444
-0.692759 0.433139 19.9919
-0.494683 0.416411 19.6804
-1.00937 0.519943 20.6188
-1.10246 1.00422 20.1232
-0.718645 0.199753 21.3254
-1.31151 0.868857 21.0298
-0.0482675 -0.211021 21.4044
-0.458152 0.0555478 21.6562
0.244722 -0.428954 21.1502
0.1109 -0.466171 21.3379
0.476032 -0.532142 20.65
0.245016 -0.678036 20.9796
0.220583 -0.453267 20.7401
-1.05959 -1.39552 18.9948
-0.503465 -0.393844 19.2631
0.00452847 -0.584084 19.126
-0.577442 -1.06799 21.5055
0.0225337 -4.31769 21.1635
-5.67047e-05 -0.0929065 20.1576
0.0112353 -0.583148 19.5668
0.243264 0.667612 17.7659
-0.00451091 0.0357464 16.5969
0.827917 1.53195 16.8194
0.00571018 0.575699 11.2493
0.97785 1.15499 17.3387
1.54229 1.7012 14.117
0.00441178 1.18145 11.9604
1.65046 1.02576 14.1185
0.0198455 1.13197 14.4949
-0.618478 -0.163928 18.9941
0.00872263 -0.471192 18.7856
2.06579 1.1392 13.0744
2.31562 0.34393 9.28573
-0.00824697 0.0255448 0.399838
1.69015 0.434464 12.8633
0.0101707 1.1229 10.2113
-0.573425 0.470442 19.1412
0.0157359 0.135954 18.3888
1.83492 -0.495522 10.8426
0.831785 -1.21327 17.5852
0.00516554 0.206759 -4.60003
0.597714 -1.00582 18.7335
-0.00389542 -0.0623155 0.446135
-0.749952 1.13865 19.5003
0.0126035 0.784548 19.2804
-1.17196 1.56471 20.4063
0.0265221 2.2679 19.8127
-1.22357 1.09501 21.8874
0.00614228 3.1513 20.6217
-0.186646 -0.270481 21.6774
-0.0339135 0.670829 22.3115
0.0866267 -0.685966 21.3318
-0.0180511 -0.273256 21.0597
0.198044 -0.772681 19.9698
-0.00692343 -0.792864 21.4881
0.0216694 -0.799653 19.9807
1.08027 -1.35461 19.0536
0.506247 -0.395519 19.2833
0.515755 -0.341219 19.6223
0.586941 -1.1103 21.6771
1.68154 -1.49663 20.3425
0.0172798 -0.081177 20.1716
0.327823 -0.625238 21.387
-0.21261 0.648132 17.441
-0.184272 -0.0190979 21.4427
-0.768818 1.57505 16.4846
-1.01069 0.776129 20.7689
-0.958757 1.19567 17.3399
-1.53786 1.68921 14.0986
-1.29521 0.798382 20.558
-1.64907 1.03084 14.161
-1.08122 0.583785 20.2739
0.624233 -0.157765 19.0269
0.607127 -0.256407 19.4497
-2.09378 1.15813 13.1271
-2.33617 0.352571 9.33706
-1.79185 0.533222 19.0117
-1.68873 0.44772 12.9175
-1.45976 0.442887 16.8303
0.585708 0.448951 19.1673
0.727831 0.0565292 19.3352
-1.83624 -0.510795 10.7298
-0.77208 -1.2324 17.3572
-1.64858 -0.677178 18.4883
-0.590981 -1.04157 18.7065
-1.066 -0.779241 19.3565
0.775998 1.09082 19.5279
0.496815 0.400969 19.6976
1.18589 1.5307 20.4209
1.09239 0.961536 20.137
1.22896 1.15788 21.9164
1.30694 0.865809 21.0289
0.20004 -0.266608 21.7048
0.468262 0.0735503 21.6907
-0.0404604 -0.686621 21.2467
-0.0886613 -0.473428 21.367
-0.212922 -0.787475 20.1195
-0.219658 -0.685911 21.0909
-0.220698 -0.507548 20.5864
0.862968 -0.464747 19.9005
0.54011 -0.206342 19.7638
0.838446 -0.639195 20.98
1.37666 -0.676098 20.3298
0.172921 -0.292127 21.3711
0.55449 -0.534011 21.2491
-0.419643 0.0861682 21.438
-0.0958148 -0.149726 21.4508
-0.958276 0.256611 21.152
-0.86263 0.169806 21.3256
-0.86779 0.285698 20.5909
-1.09381 0.0975882 21.1886
-0.997072 -0.0137979 21.0651
1.09198 -0.370059 19.7265
0.623967 -0.0859818 19.6916
1.14133 -0.654569 21.029
1.79152 -0.281651 20.2757
0.257341 -0.392656 21.4466
0.953487 -0.522657 21.2704
-0.514321 -0.0530116 21.5227
0.00950957 -0.286863 21.5743
-1.12918 0.100878 21.1228
-0.933685 -0.223032 21.3436
-0.890011 0.123579 20.7204
-1.16606 -0.283267 21.3497
-0.979569 -0.401848 20.7867
1.24374 0.0867765 19.7107
0.582606 0.201625 19.7553
1.52759 -0.142965 20.8749
1.35237 0.466287 20.2104
0.671197 -0.330826 21.5247
1.27566 0.121967 21.111
-0.33983 -0.345603 21.5819
0.326323 -0.209317 21.5666
-0.96705 -0.45769 21.1525
-0.386531 -0.509019 21.3655
-0.805475 -0.378032 20.8715
-0.555377 -0.653744 21.1774
-0.584458 -0.367781 20.5801
0.684913 0.416618 20.0062
1.00173 0.512166 20.6237
0.73485 0.214359 21.3383
0.0543952 -0.215141 21.4272
-0.249759 -0.45723 21.1607
-0.525581 -0.530982 20.5487
-0.994108 -0.423674 19.8038
-1.34225 -1.43839 18.5061
-1.09309 -0.85462 19.5231
-1.52741 -0.682001 19.134
-0.562276 -0.321555 19.544
-2.27437 -1.67529 20.3469
-0.963904 -0.652168 21.001
-0.11615 -0.630518 17.1651
-0.822449 -1.01022 21.2764
-1.21419 -1.23335 21.4387
-0.390111 -0.796446 21.4225
-0.20964 -0.339718 21.4151
0.0202166 0.0681371 14.4121
-0.0518394 -0.314045 21.4876
-0.0460985 -0.491469 20.69
0.260132 -0.0380578 21.2686
0.460879 0.0290575 21.474
0.0474345 0.63755 10.7804
0.54228 0.355149 21.2624
0.717257 0.368585 19.3284
1.22247 0.732087 19.6336
1.03505 0.18216 21.1334
1.0549 1.47835 12.247
1.2425 0.787939 20.5689
1.60617 0.657889 18.454
1.53929 0.643384 19.8944
0.88298 0.20068 20.6366
1.65894 1.16156 14.1722
0.893346 0.422328 21.6423
1.54115 0.332075 20.6726
1.27081 0.509306 18.5477
-1.21315 -0.16588 19.6999
-2.15179 -0.571322 17.3373
-1.83404 0.253258 19.0008
-0.688589 -0.112155 19.3623
-3.72477 -0.674335 20.1928
-1.35317 -0.44071 20.9547
-2.35211 -0.33328 21.0835
-1.14756 -1.11006 20.8294
-0.45177 -0.420887 21.5139
-0.947412 -0.831983 21.0549
0.255002 -0.176524 19.6183
0.470285 -0.216226 21.5407
0.718062 -0.176105 18.746
1.45843 0.235937 16.5633
1.09128 -0.262427 21.1372
1.0449 -0.0576876 4.85555
1.4279 -0.555679 18.5772
1.93655 0.0297533 17.9262
1.02543 -0.189976 20.3839
2.20347 0.676663 12.0828
1.50354 -0.661968 19.0187
1.3166 -0.0869677 17.1931
-1.01554 0.372904 19.822
-1.35729 1.44327 18.7017
-0.820338 0.756764 19.7574
-0.644044 0.320718 19.465
-1.95381 1.12769 20.0382
-1.38027 0.299639 20.7006
-2.30921 1.84166 20.4483
-1.22047 0.951758 20.5492
-2.12132 0.495023 21.1926
-0.836721 -0.076778 21.4809
-2.27389 0.283675 20.4234
-0.992881 0.506222 21.5742
-0.519201 -0.245732 21.8769
0.0861597 -0.353963 21.4811
0.537046 -0.234922 15.5182
-0.0857442 -0.269308 21.5334
0.355716 -0.771371 21.1764
0.519099 -0.616747 21.1849
0.53757 -0.762303 16.1471
0.212159 -0.581462 21.2232
0.665545 -0.946806 20.3882
0.52826 -0.572288 21.0009
0.675349 -1.24956 18.1419
0.42225 -0.586934 20.8063
0.609157 -0.679343 19.6861
1.35504 -1.4173 18.5543
0.0200041 -2.09319 18.3475
0.0133529 -2.13652 16.5842
0.00680883 -0.532599 18.9447
0.00857867 -6.16388 22.8524
0.124585 -0.653621 17.4205
0.00886711 -1.35273 21.4953
0.0141369 -0.185882 11.3295
-0.000844822 0.0830075 14.4434
0.00312965 -0.260662 17.7179
-0.00665051 0.0674621 9.12919
-0.0112627 0.53283 10.7492
0.00561006 0.325155 13.7044
-0.00358117 0.351697 3.52218
-1.01186 1.44453 12.0177
0.00530045 0.814325 11.5055
-0.0148503 -0.460135 -1.05754
-0.00191759 0.603499 6.1801
-1.66288 1.19919 14.2535
0.0208717 1.59365 13.6168
-0.0608157 0.830668 2.84172
0.015088 1.12833 12.3367
2.15324 -0.555367 17.3937
0.0225254 1.62341 14.9606
0.0139087 -0.260382 18.4874
-1.10104 -0.0499272 4.87661
-0.0178135 0.661158 -4.83374
0.000160335 -0.196477 -3.7565
-2.23258 0.703609 12.0742
-0.0100517 -0.473367 -2.46957
0.009079 0.753596 5.83004
1.36482 1.392 18.7473
0.0208758 1.59282 19.2324
0.0111128 0.643919 18.7507
0.0281956 4.41269 19.5393
2.31176 1.81725 20.4708
0.0219084 2.30659 20.2225
0.00910442 5.19593 18.1898
2.27946 0.29652 20.2346
-0.0340783 2.3726 22.4025
0.0172114 -0.0985888 8.48756
-0.645849 -0.150268 14.2267
-0.0232021 -0.0285388 21.7644
-0.016296 0.129928 2.36819
-0.45947 -0.75283 15.1606
-0.0162248 -0.478354 20.9281
0.0335744 -1.13582 7.54763
-0.667959 -1.26816 18.0969
0.00824504 -0.984374 20.4958
-0.000512482 -0.950218 11.9932
0.99074 -0.419181 19.7939
1.0987 -0.827965 19.5411
1.49014 -0.682561 19.1318
0.574112 -0.314614 19.5482
2.24597 -1.68226 20.3031
0.977749 -0.662994 21.0133
0.838104 -1.02592 21.2862
1.25083 -1.2963 21.4786
0.35723 -0.765303 21.4071
0.20258 -0.343295 21.4059
0.0480489 -0.308045 21.4766
0.0190975 -0.473468 20.512
-0.234004 -0.0668476 21.1653
-0.464586 0.0305797 21.4862
-0.547273 0.380182 21.2387
-0.724438 0.386943 19.3412
-1.24119 0.798926 19.3947
-1.04581 0.179216 21.1397
-1.23484 0.840711 20.4276
-1.61339 0.671803 18.4144
-1.54068 0.6539 19.8899
-0.878901 0.204639 20.6557
-0.901344 0.439206 21.5062
-1.55076 0.301526 20.6824
-1.27579 0.516425 18.5233
1.21678 -0.166342 19.6947
1.82159 0.250968 19.0108
0.71831 -0.118314 19.3575
3.80595 -0.675314 20.139
1.3871 -0.451116 20.9829
2.43043 -0.296385 21.1377
1.07533 -1.14068 20.5807
0.451047 -0.430325 21.5183
0.963571 -0.855741 21.0266
-0.187018 -0.163765 19.4674
-0.469382 -0.219922 21.5575
-0.731222 -0.181915 18.754
-1.48765 0.210622 16.4893
-1.08924 -0.26821 21.1416
-1.42186 -0.577778 18.6016
-1.94542 0.0198644 17.8935
-1.02343 -0.19628 20.3762
-1.50656 -0.659415 18.9004
-1.31779 -0.0787619 17.1768
1.00262 0.364532 19.8316
0.816089 0.729486 19.779
0.648462 0.313456 19.4826
1.93143 1.10133 20.0368
1.38306 0.303744 20.7066
1.21534 0.933857 20.5571
2.12025 0.490232 21.1881
0.851257 -0.0747918 21.4879
1.00749 0.534313 21.588
0.544251 -0.242348 21.8675
-0.0882963 -0.362402 21.5063
0.0971984 -0.265766 21.5469
-0.334296 -0.802557 21.0667
-0.532194 -0.643504 21.191
-0.200892 -0.613349 21.2463
-0.68503 -0.976772 20.104
-0.551467 -0.604668 21.0602
-0.332871 -0.62373 21.0415
-0.605086 -0.713745 19.6253
-1.29566 -0.801035 19.3504
-0.974733 -1.11128 21.3754
-0.0284152 -0.396356 21.3876
0.66012 0.364529 20.5752
1.51405 0.744325 19.8546
1.2175 0.3769 21.1616
-1.7602 -0.27874 18.9583
-1.88335 -1.04599 21.3769
-0.312325 -0.641687 20.0888
0.79185 0.217096 18.2284
1.75043 0.0493849 17.7467
1.66949 -0.0700636 20.1485
-1.30925 0.762644 19.3906
-1.95404 0.745811 20.6561
-1.38629 0.0296493 21.8947
0.0666525 -0.535324 21.5968
0.536855 -0.886659 20.9475
0.613406 -0.854184 20.5557
0.0191702 -2.24253 17.5788
0.0033841 -0.561634 13.179
0.000480523 -0.077235 9.88958
0.0103062 0.207609 6.46218
0.00870012 -0.142333 3.88854
-0.0199719 1.21216 8.22927
0.0213713 -0.673894 15.3767
-0.0246332 -0.208182 -4.34892
-0.0499892 0.163749 -1.47277
0.030743 2.29411 17.8985
0.0154026 3.25703 20.0881
-0.0147735 1.25888 11.6406
-0.0271928 0.0281339 3.77872
-0.0150316 0.126378 4.17852
0.0136726 -0.677418 9.67851
1.28368 -0.784964 19.3589
0.995488 -1.14445 21.3976
0.0113884 -0.391859 21.3229
-0.660761 0.390134 20.4665
-1.53794 0.772515 19.7787
-1.23042 0.364808 21.1622
1.75324 -0.271046 18.9696
1.98497 -1.04858 21.4493
0.289352 -0.643614 19.8542
-0.81601 0.228087 18.2281
-1.76327 0.0274934 17.6999
-1.67879 -0.0966409 20.1763
1.30066 0.735188 19.4209
1.94781 0.749989 20.6715
1.41972 0.0358666 21.9057
-0.0585537 -0.548883 21.4838
-0.526963 -0.914749 20.8944
-0.622573 -0.8998 20.267
-0.607811 -0.282467 1.15425
-0.00917488 -0.0606641 0.33416
0.0204654 -0.0175652 0.54552
0.0556145 -0.0659018 0.0651319
-0.0220559 0.0249934 0.0622659
0.0197969 0.066212 0.543704
-1.98177 0.309712 2.18472
-0.0661827 0.341569 0.73462
-0.263051 -0.00842415 1.01111
-0.00922321 -0.0596826 0.0320252
-0.0796228 0.044412 -0.0653418
0.0204828 -0.0430551 0.366036
0.00937513 -0.0629148 0.344354
0.192253 -0.101953 0.41252
-0.0324139 -0.0242767 0.664455
0.0279703 0.0229439 0.0564031
-0.0834358 -0.0757514 0.0985054
-0.0284455 0.0794174 0.676789
0.0691676 0.372936 0.774641
1.63969 0.264348 1.92093
0.329186 0.0139513 1.39142
0.0967782 0.0569057 -0.0520234
0.00788764 -0.0710337 0.0447708
-0.015474 -0.0380873 0.346267
0.0187208 -0.0202168 0.475259
-0.00447127 -0.000195886 0.887763
-0.00260158 -0.00738102 0.185432
0 0 0
-0.00595467 0.0472128 1.03651
-0.00181696 0.00268115 0.108847
-0.00298554 0.0276691 0.239576
0 0 0
-0.318355 -0.160334 0.90318
0 0 0
0 0 0
-0.0598447 0.0301206 0.0825296
0 0 0
0.00405233 0.0103985 0.0549364
0 0 0
0.0692016 0.0222574 0.314348
-0.000989505 -0.00557074 0.208994
0 0 0
0.00087167 0.000714746 0.896992
0.00213214 -0.00400167 0.219529
0.000799836 0.0151503 0.294721
0 0 0
-0.000671054 0.00557198 0.50029
0.045316 0.0481299 0.660276
0.236057 -0.108984 0.616837
0.0538487 0.025508 0.0722417
0.0194108 -0.0106459 0.246445
0 0 0
0 0 0
-0.0420022 0.0121506 0.199876
-0.00402193 0.0118293 0.0535751
0 0 0
-0.0300715 -0.0336318 0.543096
-0.24075 0.19603 0.325934
4.3584e-07 -4.60125e-06 0.000293871
0.00102746 -0.395235 0.143159
-0.00172603 -0.00455453 0.0555077
-1.09752e-06 1.58292e-07 -1.61204e-05
0.0476189 0.00944197 0.336627
0 0 0
0 0 0
0 0 0
0.00145684 0.00224249 0.0250547
4.45862e-08 6.17176e-07 1.54742e-05
-0.000871014 0.0156176 0.00796902
3.75909e-05 0.00891059 0.0547141
-0.0176971 -0.0305144 0.25935
-0.00794878 0.00302576 0.032654
0 0 0
-1.33347e-05 0.000370323 -0.00498266
0.00526508 0.00439357 0.0511423
0 0 0
0.225829 0.177387 0.30086
0.00808934 -0.00437591 0.0669013
-7.82183e-06 -1.3261e-06 0.000136885
0 0 0
0 0 0
-0.0170222 0.00245449 0.119153
0 0 0
-0.0096662 0.0177824 0.156817
0.00454627 0.00167971 0.0182702
0.0170401 -0.0198494 0.158567
0 0 0
-0.00400274 0.000505341 0.0260915
-0.00409981 0.010141 0.161113
0 0 0
0 0 0
-0.000107973 0.000258482 0.00404628
0 0 0
-8.27893e-08 8.96263e-07 -0.00019794
-3.42734e-06 0.000310566 0.00326636
0 0 0
-6.39965e-05 0.000690787 0.0293234
2.86863e-05 0.000284823 0.0089665
0.00309816 0.0075504 0.037553
0.0048789 0.0421951 0.70727
0.00152191 0.00123826 0.00968367
-0.00392643 0.137043 0.396327
-4.86976e-05 0.000380929 0.0404109
4.39261e-05 -0.00607611 0.035226
0 0 0
0.00376309 0.0136389 0.179643
0.00415964 -0.00551953 0.0626102
0.00691116 0.0190386 0.168984
5.02581e-05 0.00245824 0.0163696
-6.21317e-05 0.00096875 0.00890833
-0.0129753 0.0621715 0.85602
0 0 0
-0.00826849 -0.0084917 0.192007
-0.00831818 -0.00570083 0.0514326
-0.00749114 -0.0290247 0.224365
-0.0142048 -0.0252772 0.20736
-0.00184677 0.000143786 0.0403659
7.4456e-19 1.03788e-17 6.8521e-17
-0.000827876 0.0104346 0.0882161
0 0 0
0.0121691 0.0450144 0.469523
0 0 0
0.000553003 0.000478538 0.00538209
0.00571114 -0.000786166 0.0430018
1.26202e-05 -7.71618e-06 0.000575363
-1.50455e-05 -8.1436e-06 0.000606498
0 0 0
0 0 0
0 0 0
0 0 0
0.000296506 0.000362632 0.0176281
-0.00029304 0.0002642 0.01323