# vtk DataFile Version 2.0
tet_velo
ASCII
DATASET UNSTRUCTURED_GRID
POINTS 29498 float
-0.772851 0.085 -2.075
-0.66152 0.195 2.185
-0.715 0.645 -2.00761
-0.739318 0.885 2.135
0.772856 0.085 -2.075
0.66152 0.195 2.185
0.715 0.645 -2.00761
0.739318 0.885 2.135
-0.7743 0.0831077 -0.655
-0.744211 0.112753 0.765
-0.808949 0.810843 -0.62674
-0.80112 0.874908 0.75413
0.774307 0.0831035 -0.655
0.744158 0.112807 0.765
0.808949 0.810843 -0.62674
0.804639 0.878427 0.75413
-1.5634 -0.321053 -3.2068
-1.55648 -0.26584 -2.08647
-1.55222 -0.258191 -0.665455
-1.51467 -0.241466 0.763432
-1.45122 -0.180328 2.18511
-1.43471 -0.133669 3.30868
-1.4378 -0.092146 4.42625
-1.5572 0.00393505 -3.18717
-1.55267 0.0773705 -2.07111
-1.55923 0.100358 -0.657716
-1.51395 0.120668 0.759204
-1.43085 0.178168 2.17335
-1.41888 0.223763 3.29638
-1.42796 0.265244 4.41522
-1.53314 0.623818 -3.13693
-1.52221 0.695948 -2.01926
-1.57976 0.815025 -0.632536
-1.55826 0.866896 0.751414
-1.48598 0.890146 2.13889
-1.44803 0.933978 3.26353
-1.43928 0.979503 4.38868
-1.52018 1.64961 -3.09099
-1.51965 1.73336 -1.97918
-1.54296 1.85929 -0.605147
-1.55384 1.94957 0.760454
-1.53371 1.99591 2.1349
-1.50591 2.02848 3.24756
-1.48223 2.0664 4.36844
-0.792921 -0.317755 -3.20932
-0.778352 -0.260124 -2.09015
-0.777265 -0.266577 -0.664961
-0.760923 -0.247681 0.768378
-0.716126 -0.172639 2.19375
-0.698431 -0.128652 3.31455
-0.69756 -0.090193 4.42964
-0.791377 0.00157208 -3.18794
-0.675932 0.229123 3.30122
-0.685726 0.266997 4.41778
-0.769267 0.602321 -3.13209
-0.698355 0.933152 3.26275
-0.691367 0.979202 4.38851
-0.746657 1.63562 -3.08621
-0.739647 1.72054 -1.97391
-0.76104 1.85712 -0.60197
-0.78086 1.95318 0.760073
-0.772662 1.99714 2.13218
-0.749019 2.02818 3.24485
-0.726744 2.06595 4.36646
0.747045 -0.317632 -3.20932
0.769761 -0.260054 -2.09015
0.766574 -0.266451 -0.664961
0.729679 -0.247496 0.768379
0.680156 -0.172511 2.19375
0.724953 -0.128421 3.31455
0.759231 -0.0898287 4.42964
0.737924 0.0016593 -3.18794
0.73766 0.229302 3.30121
0.769651 0.267354 4.41778
0.729061 0.602421 -3.13209
0.764616 0.933444 3.26275
0.782643 0.979654 4.38851
0.788127 1.63597 -3.08621
0.804224 1.72097 -1.97391
0.80459 1.85794 -0.60197
0.780145 1.95451 0.760073
0.760923 1.99826 2.13218
0.767267 2.02904 3.24484
0.782001 2.06669 4.36646
1.5205 -0.32072 -3.2068
1.5426 -0.265557 -2.08647
1.54239 -0.257586 -0.665455
1.4952 -0.24061 0.763432
1.43447 -0.179792 2.18511
1.45789 -0.133043 3.30868
1.49366 -0.0913356 4.42625
1.51384 0.00420418 -3.18717
1.54402 0.0775453 -2.07111
1.55753 0.10106 -0.657716
1.51359 0.121956 0.759204
1.43613 0.178602 2.17335
1.4654 0.22434 3.29638
1.50214 0.266058 4.41522
1.50511 0.624122 -3.13693
1.52243 0.696162 -2.01926
1.58439 0.816101 -0.632536
1.56374 0.870379 0.751414
1.49513 0.891262 2.13889
1.50039 0.934845 3.26353
1.52136 0.980507 4.38868
1.55652 1.65037 -3.09099
1.57364 1.73429 -1.97918
1.58171 1.86091 -0.605148
1.55951 1.95199 0.760454
1.5322 1.99805 2.1349
1.52921 2.03019 3.24756
1.53838 2.0679 4.36844
-0.7704 0.365 -2.06778
2.5034e-06 0.0812115 -2.07879
-0.774764 0.0828647 -1.365
-0.766627 0.54 2.22621
0 0.224576 2.15542
-0.72093 0.135812 1.475
0 0.719484 -2.08209
-0.793782 0.759729 -1.31718
0 0.943822 2.19382
-0.784654 0.894389 1.44457
0.770541 0.365 -2.06792
0.774769 0.0828643 -1.365
0.766635 0.54 2.22622
0.721008 0.135735 1.475
0.793749 0.759696 -1.31718
0.784642 0.894377 1.44457
-0.752398 0.104787 0.0549999
-0.87212 0.446976 -0.64087
3.7552e-06 0.0911074 -0.655
-0.879735 0.493831 0.759565
-2.62133e-05 0.098457 0.765
-0.805411 0.843252 0.063695
-3.5298e-07 1.04237 -0.62674
0.00175925 1.2865 0.75413
0.752443 0.104745 0.0549999
0.87212 0.446973 -0.64087
0.879498 0.495617 0.759565
0.805419 0.84326 0.063695
-0.888408 0.405988 -1.34109
-0.871116 0.470403 0.0593475
-0.896496 0.516915 1.45978
3.1293e-06 0.0904987 -1.365
-1.1229e-05 0.0947697 0.0549999
-1.31066e-05 0.128157 1.475
1.2517e-06 0.365 -2.2271
0 0.54 2.32224
-1.7649e-07 0.86434 -1.31718
0.000879447 1.2898 0.063695
0.000879623 1.07566 1.44457
0.888408 0.405987 -1.34109
0.870695 0.471295 0.0593475
0.896484 0.517808 1.45978
-1.16276 0.0811853 -2.07306
-0.775601 -0.0875621 -2.08257
-0.782114 0.043286 -2.63147
-1.04619 0.186584 2.17918
-0.688823 0.0111806 2.18938
-0.668726 0.212061 2.74311
-1.1186 0.670474 -2.01343
-0.742134 0.62366 -2.56985
-0.727324 1.18277 -1.99076
-1.11265 0.887573 2.13694
-0.718837 0.909076 2.69888
-0.75599 1.44107 2.13359
0.771308 -0.0875268 -2.08257
0.75539 0.0433297 -2.63147
1.15844 0.0812727 -2.07306
0.670838 0.0112447 2.18938
0.69959 0.212151 2.74311
1.04883 0.186801 2.17918
0.72203 0.62371 -2.56985
0.759612 1.18299 -1.99076
1.11871 0.670581 -2.01343
0.751967 0.909222 2.69888
0.75012 1.44163 2.13359
1.11723 0.888131 2.13694
-1.16676 0.0917328 -0.656358
-0.775782 -0.0917346 -0.659981
-1.12908 0.11671 0.762102
-0.752567 -0.0674642 0.766689
-1.19435 0.812934 -0.629638
-0.784995 1.33398 -0.614355
-1.17969 0.870902 0.752772
-0.79099 1.41404 0.757102
0.770441 -0.0916737 -0.659981
1.16592 0.0920817 -0.656358
0.736919 -0.0673446 0.766689
1.12887 0.117382 0.762102
0.806769 1.33439 -0.614355
1.19667 0.813472 -0.629638
0.792392 1.41647 0.757102
1.18419 0.874403 0.752772
-1.55994 -0.293446 -2.64663
-1.5603 -0.158559 -3.19698
-1.17816 -0.319404 -3.20806
-1.55435 -0.262015 -1.37596
-1.55458 -0.0942346 -2.07879
-1.16741 -0.262982 -2.08831
-1.53344 -0.249828 0.0489883
-1.55572 -0.0789166 -0.661585
-1.16474 -0.262384 -0.665208
-1.48294 -0.210897 1.47427
-1.51431 -0.0603987 0.761318
-1.13779 -0.244573 0.765905
-1.44297 -0.156999 2.74689
-1.44104 -0.00107984 2.17923
-1.08367 -0.176483 2.18943
-1.43626 -0.112908 3.86747
-1.4268 0.0450471 3.30253
-1.06657 -0.131161 3.31162
-1.43288 0.086549 4.42073
-1.06768 -0.0911695 4.42794
-1.55494 0.0406528 -2.62914
-1.54517 0.313877 -3.16205
-1.17429 0.00275356 -3.18756
-1.55595 0.0888642 -1.36441
-1.53744 0.386659 -2.04519
-1.53659 0.110513 0.0507442
-1.56949 0.457691 -0.645126
-1.4724 0.149418 1.46628
-1.5361 0.493782 0.755309
-1.42487 0.200966 2.73486
-1.45841 0.534157 2.15612
-1.42342 0.244504 3.8558
-1.43346 0.578871 3.27995
-1.04741 0.226443 3.2988
-1.43362 0.622373 4.40195
-1.05684 0.266121 4.4165
-1.52767 0.659883 -2.57809
-1.52666 1.13671 -3.11396
-1.1512 0.61307 -3.13451
-1.55098 0.755486 -1.3259
-1.52093 1.21465 -1.99922
-1.56901 0.840961 0.0594392
-1.56136 1.33716 -0.618842
-1.52212 0.878521 1.44515
-1.55605 1.40823 0.755934
-1.467 0.912062 2.70121
-1.50984 1.44303 2.13689
-1.44365 0.95674 3.8261
-1.47697 1.48123 3.25555
-1.07319 0.933565 3.26314
-1.46075 1.52295 4.37856
-1.06532 0.979352 4.3886
-1.51992 1.69148 -2.53509
-1.13342 1.64261 -3.0886
-1.5313 1.79632 -1.29217
-1.12965 1.72695 -1.97655
-1.5484 1.90443 0.0776535
-1.152 1.8582 -0.603559
-1.54377 1.97274 1.44768
-1.16735 1.95138 0.760264
-1.51981 2.01219 2.69123
-1.15318 1.99653 2.13354
-1.49407 2.04744 3.808
-1.12746 2.02833 3.2462
-1.10449 2.06617 4.36745
-0.785636 -0.28894 -2.64973
-0.792149 -0.158092 -3.19863
-0.0229382 -0.317693 -3.20932
-0.777808 -0.263351 -1.37756
-0.00429562 -0.260089 -2.09015
-0.769094 -0.257129 0.0517087
-0.00534514 -0.266514 -0.664961
-0.738525 -0.21016 1.48107
-0.0156219 -0.247589 0.768379
-0.707279 -0.150645 2.75415
-0.0179852 -0.172575 2.19375
-0.697996 -0.109423 3.8721
-0.687182 0.0502352 3.30788
0.0132609 -0.128537 3.31455
-0.691643 0.0884022 4.42371
0.0308352 -0.0900108 4.42964
-0.780322 0.301947 -3.16002
-0.0267268 0.00161569 -3.18794
-0.680829 0.24806 3.8595
-0.687144 0.581137 3.28198
0.0308636 0.229212 3.30122
-0.688547 0.6231 4.40314
0.0419625 0.267176 4.41778
-0.757962 1.11897 -3.10915
-0.0201031 0.602371 -3.13209
-0.694861 0.956177 3.82563
-0.723687 1.48066 3.2538
0.0331305 0.933298 3.26275
-0.709056 1.52257 4.37749
0.0456379 0.979428 4.38851
-0.743152 1.67808 -2.53006
0.0207348 1.63579 -3.08621
-0.750343 1.78883 -1.28794
0.0322887 1.72076 -1.97391
-0.77095 1.90515 0.0790515
0.021775 1.85753 -0.60197
-0.776761 1.97516 1.44612
-0.000357762 1.95384 0.760073
-0.760841 2.01266 2.68851
-0.00586962 1.9977 2.13218
-0.737881 2.04706 3.80565
0.00912402 2.02861 3.24484
0.0276289 2.06632 4.36646
0.758403 -0.288843 -2.64973
0.742484 -0.157986 -3.19863
1.13377 -0.319176 -3.20806
0.768167 -0.263252 -1.37756
1.15618 -0.262805 -2.08831
0.748127 -0.256974 0.0517087
1.15448 -0.262019 -0.665208
0.704917 -0.210003 1.48107
1.11244 -0.244053 0.765905
0.702554 -0.150466 2.75415
1.05731 -0.176151 2.18943
0.742092 -0.109125 3.8721
0.731306 0.0504405 3.30788
1.09142 -0.130732 3.31162
0.764441 0.0887627 4.42371
1.12644 -0.0905822 4.42795
0.733492 0.30204 -3.16002
1.12588 0.00293174 -3.18756
0.753655 0.248328 3.8595
0.751138 0.581373 3.28198
1.10153 0.226821 3.2988
0.776147 0.623504 4.40314
1.13589 0.266706 4.4165
0.758594 1.11919 -3.10915
1.11709 0.613272 -3.13451
0.77363 0.956549 3.82563
0.765942 1.48124 3.2538
1.1325 0.934145 3.26314
0.782322 1.52317 4.37749
1.152 0.98008 4.3886
0.796175 1.67847 -2.53006
1.17232 1.64317 -3.0886
0.804407 1.78946 -1.28794
1.18893 1.72763 -1.97655
0.792367 1.90623 0.0790514
1.19315 1.85943 -0.603559
0.770534 1.97638 1.44612
1.16983 1.95325 0.760264
0.764095 2.01365 2.68851
1.14656 1.99815 2.13354
0.774634 2.04786 3.80565
1.14824 2.02961 3.2462
1.16019 2.06729 4.36745
1.53155 -0.293139 -2.64663
1.51717 -0.158258 -3.19698
1.54249 -0.261572 -1.37596
1.54331 -0.0940059 -2.07879
1.5188 -0.249098 0.0489882
1.54996 -0.0782633 -0.661586
1.46484 -0.210201 1.47427
1.5044 -0.059327 0.761318
1.44618 -0.156417 2.7469
1.4353 -0.000594873 2.17923
1.47577 -0.11219 3.86747
1.46164 0.0456485 3.30253
1.4979 0.087361 4.42073
1.52893 0.0408747 -2.62914
1.50947 0.314163 -3.16205
1.55078 0.0893026 -1.36441
1.53322 0.386854 -2.04519
1.53556 0.111508 0.0507441
1.57096 0.458581 -0.645126
1.47486 0.150279 1.46628
1.53866 0.496168 0.755309
1.45076 0.201471 2.73486
1.46563 0.534932 2.15612
1.48377 0.245199 3.8558
1.48289 0.579593 3.27995
1.51175 0.623282 4.40195
1.51377 0.660142 -2.57809
1.53082 1.13725 -3.11396
1.55341 0.756132 -1.3259
1.54804 1.21523 -1.99922
[...]
POINT_DATA 29498
VECTORS point_vectors float
-5.82605 -6.85588 13.3765
-0.376364 0.562112 1.51894
-1.99672 2.02277 3.4462
0.132648 -0.19264 1.06476
5.82542 -6.84668 13.373
0.227693 0.476749 1.28397
2.01092 2.054 3.51187
-0.134842 -0.18715 1.05485
0.00596561 0.00110614 0.150879
0 0 0
-0.0296466 -0.0255766 0.128288
0 0 0
-0.00515601 0.000819523 0.138801
0 0 0
0.0285473 -0.0248322 0.124751
-0.00498268 0.00739792 0.0234779
-0.567034 -0.265345 19.8848
-1.18016 -0.670891 20.5638
-0.377684 -0.333253 21.3697
0.117504 -0.0803919 21.5222
0.644205 0.255854 21.4329
0.855511 0.350673 21.0429
0.782367 0.1326 20.7637
-0.72421 -0.193168 19.7817
-1.6315 -0.532827 20.4909
-0.590866 -0.44613 21.4078
0.021007 -0.228813 21.6209
0.826663 0.0974021 21.4403
1.1419 0.0831026 21.1627
1.00014 0.061428 21.0193
-0.798487 0.0906926 19.663
-1.9294 0.221169 20.4266
-1.08467 -0.232465 21.3881
-0.221059 -0.219216 21.7052
0.66038 -0.344864 21.5039
1.00495 -0.441209 21.2612
0.84439 -0.394564 20.833
-0.493619 0.376796 19.9513
-0.850741 0.638615 20.3887
-0.794653 0.439692 21.1082
-0.259597 0.0308391 21.4684
0.168115 -0.283689 21.3503
0.323397 -0.377042 21.1441
0.317897 -0.367846 20.747
-0.594654 -0.619747 19.3617
-1.62879 -3.06728 20.9349
-0.212116 -0.331021 21.809
0.149965 0.193791 20.793
0.279 1.09129 18.6668
0.495595 1.35778 17.9256
0.786207 0.731786 17.6115
-0.791057 -0.513614 19.003
0.800242 1.72676 9.20988
1.40095 0.650701 11.3678
-1.02778 0.210882 18.6195
1.63875 -0.528063 10.0022
1.23613 -0.460412 14.4845
-0.427311 0.72686 19.6015
-0.845831 1.51386 20.1805
-1.03077 1.4275 21.1527
-0.299279 0.236872 21.8828
0.134381 -0.473167 21.4474
0.227504 -0.649079 21.1307
0.140711 -0.547956 20.5402
0.556834 -0.629604 19.3473
1.61315 -3.10103 20.9561
0.209054 -0.337184 21.8223
-0.1252 0.204257 20.6207
-0.205801 1.0689 18.341
-0.559162 1.3717 18.1289
-0.80047 0.765031 18.4317
0.774281 -0.53716 18.9175
-1.00695 1.86019 10.5126
-1.39219 0.651851 12.4861
0.986491 0.225635 18.5476
-1.81351 -0.529667 11.9922
-1.19373 -0.48273 15.9973
0.440062 0.706941 19.6248
0.881374 1.41239 20.2033
1.04264 1.35908 21.157
0.297502 0.238395 21.882
-0.132648 -0.47388 21.4488
-0.236321 -0.640337 21.1447
-0.158601 -0.53168 20.5449
0.569952 -0.274726 19.8482
1.20267 -0.684937 20.5538
0.391826 -0.344164 21.3747
-0.127483 -0.086103 21.5328
-0.654514 0.26323 21.4296
-0.842755 0.34248 21.0491
-0.746098 0.0538789 20.7446
0.743119 -0.204603 19.7461
1.6564 -0.544759 20.4935
0.600872 -0.453087 21.4065
-0.0199606 -0.235208 21.6263
-0.816721 0.092723 21.4382
-1.06372 0.0789699 21.1017
-0.968943 -0.048889 21.0133
0.804255 0.0995122 19.653
1.92451 0.223646 20.4329
1.07792 -0.225361 21.3883
0.219807 -0.218344 21.7031
-0.64893 -0.336748 21.5018
-0.94887 -0.42176 21.1651
-0.719657 -0.331341 20.9015
0.487415 0.370035 19.9672
0.829155 0.595549 20.397
0.765346 0.417009 21.1013
0.25765 0.0315606 21.4659
-0.167831 -0.285098 21.3508
-0.322213 -0.370155 21.1569
-0.34026 -0.367056 20.7667
-3.31304 -0.0552134 3.57741
3.45447e-05 -0.0134971 0.0855443
-0.0265756 0.0131208 0.594367
0.0289601 0.022746 0.0898382
-0.00416713 -0.0100047 0.0128588
-0.00171321 -0.0077714 0.303671
-3.0653e-06 0.0518567 0.146052
-0.161239 -0.0611583 0.533069
-0.0045688 0.119152 -0.0946704
0.146932 0.107448 0.582258
3.32142 -0.0585204 3.58423
0.0257565 0.0130676 0.593102
-0.0283126 0.0231658 0.089082
0.000190091 -0.00663295 0.325982
0.163863 -0.0615496 0.539581
-0.146506 0.10658 0.579477
0 0 0
7.12201e-05 -0.000410197 0.0226009
-2.53491e-05 -0.000270109 0.0277
0 0 0
1.36127e-05 0.000496922 0.0133876
0.0069895 0.0154972 0.0510942
-4.83624e-05 0.0225908 0.0543686
-0.000352585 -0.00244339 0.0349271
0 0 0
-7.02823e-05 -0.000378273 0.02246
0 0 0
-0.00707485 0.0157054 0.0518996
0 0 0
-3.79054e-05 0.00443963 0.0315245
0.000392112 0.00453871 0.0386401
0 0 0
3.14522e-09 -7.60756e-08 -1.123e-05
-2.36887e-07 7.29421e-07 5.93699e-05
0 0 0
-0.00639484 0.0144753 -0.0767784
-3.06327e-05 0.00374139 0.027018
1.6131e-05 0.00113234 0.00998065
0 0 0
0 0 0
1.62991e-05 0.00260053 0.0182813
-0.000433642 0.00501386 0.042222
-3.15998 -1.59213 20.4344
-2.8835 -5.01341 20.9347
-2.14868 -1.68826 18.0213
1.13802 0.802714 16.1756
-0.0157996 1.19606 11.676
-0.289059 1.10511 6.15886
-3.87493 1.01338 20.2567
-2.92303 1.26769 16.9878
-1.95646 2.7384 20.0072
1.07307 -0.343268 19.3694
0.530812 -0.148945 6.65411
0.396145 -0.830437 20.5182
2.87433 -5.08042 20.9454
2.16494 -1.74683 17.8965
3.19167 -1.61647 20.4189
0.0731762 1.14864 11.3303
0.157709 1.20819 6.67138
-1.13311 0.789469 16.1883
2.91527 1.33299 16.8673
1.9995 2.61427 20.0207
3.87693 1.0211 20.2601
-0.700631 -0.140873 7.94339
-0.399916 -0.828243 20.4675
-1.05897 -0.345237 19.4475
-0.352754 -0.766127 21.0284
-0.0144937 -0.00615863 15.8278
0.146485 -0.16793 18.7322
0.327672 0.176216 13.5885
-1.76931 -0.693387 21.5562
-2.75872 1.96716 21.0972
-0.331658 -0.383042 20.9686
-0.571453 0.0684857 21.9879
0.00110429 -0.0169926 15.6673
0.363886 -0.76381 20.9968
-0.296711 0.202714 13.3169
-0.147115 -0.169719 18.6628
2.71495 1.84962 21.1308
1.76745 -0.685293 21.5668
0.573087 0.0788327 22.0093
0.336079 -0.373313 20.9979
-0.936808 -0.487369 20.0603
-0.656213 -0.241204 19.8167
-0.634784 -0.440609 19.6479
-0.798095 -0.547203 21.1936
-1.42148 -0.623335 20.5293
-1.63441 -1.49196 20.5933
-0.105412 -0.183148 21.4645
-0.493549 -0.419467 21.3835
-0.228012 -0.478524 21.5756
0.366797 0.086303 21.5453
0.0623517 -0.165323 21.5583
0.217048 -0.0395119 21.5749
0.745142 0.347504 21.3632
0.728929 0.190721 21.4228
0.75272 0.666872 21.1796
0.80479 0.288634 20.8658
1.01921 0.198587 21.2028
1.05148 0.909498 20.3997
0.891255 0.097014 20.8915
0.869252 0.776268 20.6601
-1.22514 -0.375995 19.9111
-0.779109 -0.0547806 19.684
-0.819265 -0.343419 19.4323
-1.14105 -0.544184 21.2654
-1.92232 -0.192786 20.4586
-0.253373 -0.348189 21.4951
-0.850496 -0.409635 21.4158
0.379504 -0.0851794 21.6622
-0.102097 -0.267552 21.7109
1.01526 0.169119 21.275
0.817748 -0.174312 21.4877
1.19556 0.0393457 20.5206
1.14548 -0.198758 21.2951
1.27818 0.908057 16.8379
1.1208 -0.344074 20.9674
1.21666 0.459678 17.2229
-1.41137 0.177127 19.7948
-0.695208 0.30954 19.7881
-0.984102 0.148189 19.2262
-1.54706 -0.038819 21.1568
-1.36392 0.624747 20.3736
-0.675499 -0.265638 21.595
-1.1217 0.223662 21.2355
0.240446 -0.23748 21.6934
-0.299232 -0.0834978 21.6305
0.871077 -0.427646 21.2918
0.356108 -0.394071 21.3911
0.948241 -0.460919 20.7562
0.550775 -0.51906 21.0133
1.37937 -0.651423 19.6399
0.463811 -0.494793 20.7535
1.08839 -0.728253 20.3047
-0.692602 0.529412 20.1022
-0.524371 0.555537 19.7739
-0.867723 0.576341 20.7874
-0.959122 1.0425 20.2906
-0.568714 0.242875 21.3949
-0.991797 0.817428 21.1668
-0.00187883 -0.156221 21.4252
-0.304871 0.109699 21.663
0.269733 -0.397118 21.1998
0.156551 -0.403542 21.396
0.325485 -0.398355 20.9285
0.278405 -0.544948 21.0339
0.247648 -0.454074 20.7205
-1.24559 -1.6381 19.2321
-0.703566 -0.584402 19.1608
-0.0151225 -0.89524 19.0136
-0.618738 -1.11174 22.2061
-0.00880453 -3.81351 21.6621
-0.021649 -0.0342057 21.3288
-0.00776252 -0.385361 21.6269
0.237876 0.583205 19.6684
-0.00907996 0.146085 19.9651
0.342226 1.21442 18.486
-0.0215335 0.62757 16.8259
0.615583 1.54071 18.101
0.648223 1.63602 14.0619
-0.0104567 1.0097 15.7178
1.10119 0.679105 14.4722
0.00110422 1.40076 14.1946
-0.972272 -0.196273 18.6801
-0.0313721 -0.802859 18.3561
1.28317 1.36972 10.8224
1.47644 0.567622 6.42605
0.0457107 0.519561 -0.243829
1.74659 0.221221 9.94818
-0.131631 1.07628 8.3777
-0.728344 0.712501 19.1099
-0.0221569 0.350015 17.7868
1.50289 -0.859286 11.8051
0.647891 -1.10876 20.306
-0.147663 -0.325473 -0.792962
0.421672 -0.966469 20.4644
-0.154548 -1.66698 4.94108
-0.673864 1.20467 19.7466
0.0107823 0.916569 19.389
-0.939153 1.46822 20.6697
0.0474711 2.0079 20.0586
-0.787012 0.95758 21.7811
0.0399148 2.32006 21.0628
-0.00909166 -0.229096 21.708
-0.000747961 0.461668 22.1317
0.19641 -0.581372 21.2799
-0.000375073 -0.513308 21.5886
0.23874 -0.631352 20.847
-0.00508305 -0.792204 20.9902
0.00428644 -0.818349 20.663
1.2244 -1.68477 19.22
0.678247 -0.618108 19.1257
0.629823 -0.453654 19.6239
0.617649 -1.1172 22.2264
1.64575 -1.52405 20.6032
0.0230809 -0.0467188 21.2262
0.218306 -0.479092 21.581
-0.204498 0.587154 19.4101
-0.2236 -0.0126256 21.5737
-0.33173 1.19012 18.4356
-0.74844 0.73658 21.0065
-0.692553 1.39642 18.4511
-0.783072 1.62 14.342
-1.06741 0.883877 20.3608
-1.10129 0.717806 15.4416
-0.879923 0.714544 20.6025
0.938274 -0.184305 18.5842
0.82373 -0.369952 19.3757
-1.43417 1.18047 11.4424
-1.6815 0.579049 8.28518
-1.28892 0.696053 17.9746
-1.64372 0.143346 11.5893
-1.16429 0.4049 18.5051
0.728277 0.714385 19.1089
0.991162 0.150436 19.1764
-1.43911 -0.772462 13.5923
-0.650434 -1.09787 20.3407
-1.25482 -0.652081 20.652
-0.43214 -0.919361 20.444
-1.07223 -0.641845 20.4556
0.697638 1.14751 19.7792
0.522684 0.535227 19.7939
0.956977 1.39896 20.6824
0.947389 0.974028 20.3087
0.787091 0.931441 21.7673
0.965658 0.761229 21.1649
0.00805538 -0.228413 21.7087
0.30427 0.109259 21.6604
-0.197959 -0.576845 21.2798
-0.156324 -0.401814 21.3974
-0.242785 -0.61445 20.8552
-0.275381 -0.533883 21.0317
-0.241106 -0.428372 20.7133
0.948478 -0.498825 20.0348
0.661988 -0.249679 19.7915
0.814938 -0.556473 21.1956
1.43748 -0.640555 20.5298
0.108673 -0.198512 21.4662
0.504151 -0.428453 21.3827
-0.373547 0.0759208 21.547
-0.065826 -0.173854 21.5667
-0.746165 0.328521 21.366
-0.731123 0.193232 21.4199
-0.7946 0.231908 20.8787
-0.979945 0.199167 21.2135
-0.85752 0.00249496 20.8789
1.25106 -0.384837 19.8917
0.791837 -0.0621374 19.663
1.15745 -0.554258 21.2638
1.94179 -0.202878 20.4622
0.257601 -0.353021 21.4951
0.853645 -0.412975 21.4245
-0.379505 -0.0906996 21.6607
0.103769 -0.271639 21.7205
-0.977349 0.152314 21.3101
-0.804027 -0.172779 21.5008
-1.04173 0.0203141 20.9182
-1.10724 -0.173913 21.2698
-1.0133 -0.278376 21.0426
1.42687 0.185048 19.7819
0.694153 0.305277 19.7947
1.5427 -0.0320084 21.1567
1.32848 0.59021 20.3785
0.675552 -0.261857 21.5931
1.09204 0.220917 21.2299
-0.237344 -0.237743 21.6878
0.299088 -0.0798332 21.6252
-0.828167 -0.397053 21.3184
-0.355077 -0.388361 21.3875
-0.82248 -0.407094 20.921
-0.542267 -0.485811 21.0261
-0.441529 -0.470303 20.8706
0.679971 0.502337 20.1206
0.843257 0.550518 20.7859
0.556249 0.237691 21.3825
0.00234589 -0.154828 21.4259
-0.266983 -0.389097 21.1989
-0.343927 -0.396681 20.9482
-1.10881 -0.442925 19.9744
-1.64743 -1.79574 18.6781
-1.18714 -0.91464 19.7202
-1.75357 -0.799785 19.2904
-0.752772 -0.402839 19.5042
-2.28826 -1.66662 20.5453
-0.995274 -0.558922 21.228
-0.325163 -0.513109 18.3578
-0.791023 -0.953066 21.5706
-1.37811 -1.26188 22.0241
-0.257621 -0.621711 21.5892
-0.18588 -0.284999 21.4661
0.0944882 0.150042 14.3362
0.0267826 -0.245175 21.579
0.0113637 -0.415879 19.6368
0.248559 -0.122639 20.7788
0.35941 -0.000140757 21.6012
0.134471 0.522683 12.5589
0.47159 0.28772 21.4286
0.482104 0.2247 17.4417
0.993282 0.80137 19.3409
0.87951 0.265097 21.198
0.0507257 1.29917 12.7539
0.873631 0.811189 20.5726
1.31079 0.850131 16.8909
1.33472 0.968455 19.8368
1.05773 0.152893 20.4778
0.721749 1.51332 15.1957
1.01157 0.902338 20.4738
1.47472 0.621484 18.5888
1.0323 0.738247 19.9452
-1.42439 -0.115715 19.8118
-2.91642 -0.564931 16.9379
-2.23529 0.490299 18.9886
-0.953884 -0.111651 19.2597
-4.25932 -0.406931 20.2609
-1.40845 -0.322314 21.2662
-2.42335 -0.0708334 21.6482
-0.842774 -0.95205 21.1474
-0.456803 -0.378463 21.5557
-1.02457 -0.720534 21.3145
-0.0462431 -0.219682 19.0003
0.324042 -0.187431 21.7086
0.489276 -0.151878 20.1382
1.21733 0.261613 16.1373
1.02139 -0.18831 21.1935
0.208697 0.72701 2.62887
1.22858 -0.517927 19.2867
1.87575 0.17232 16.6492
1.18465 -0.273007 20.9135
1.99544 0.548172 8.0687
1.39467 -0.720008 19.9701
1.46753 -0.0505669 16.3005
-1.0776 0.515729 19.9346
-1.45328 1.7529 18.924
-0.77126 0.851138 19.9231
-0.785121 0.501938 19.4631
-1.8477 1.35875 20.2177
-1.30079 0.449019 20.8869
-2.02616 1.95954 20.7241
-0.992801 0.972491 20.7463
-1.77926 0.604817 21.3239
-0.765284 0.0557321 21.5343
-2.12324 0.964561 22.5026
-0.718263 0.517303 21.5384
-0.441466 -0.0455839 21.9652
0.0858933 -0.24641 21.577
0.220188 -0.565172 21.054
-0.00954089 -0.204383 21.5713
0.404437 -0.600547 21.55
0.498203 -0.492317 21.2865
0.459162 -0.966685 20.5685
0.239105 -0.494107 21.2201
0.566235 -0.805664 21.3384
0.550421 -0.547849 20.9806
0.490668 -1.15771 20.2421
0.26038 -0.482094 20.9126
0.465766 -0.717429 20.4671
1.63109 -1.85502 18.6232
-0.0256435 -2.73925 18.6046
-0.0659089 -3.49053 15.7413
-0.0196528 -0.860673 18.6388
-0.00446763 -5.45348 23.8832
0.327656 -0.509085 18.1944
-0.00827961 -1.15321 22.5522
-0.00467962 -0.0844395 12.7561
-0.109339 0.120113 14.0481
-0.0075131 -0.119528 20.7616
0.00574555 0.166533 11.1709
-0.0988211 0.501596 12.13
-0.000909058 0.411515 18.2946
-0.0615947 0.377762 7.5373
-0.0735716 1.2978 12.847
-0.0241341 0.516842 16.1149
0.0568566 -1.13809 -1.6253
0.0327899 0.842507 8.25738
-0.840024 1.36051 15.6867
-0.00133535 1.35064 15.5399
0.0525701 0.169963 1.03018
-0.116928 1.36013 11.1285
2.93105 -0.558828 16.7947
-0.05491 2.86238 13.7399
-0.0344383 -0.328668 17.8224
-0.317719 0.744553 3.20145
0.0172266 0.161722 -0.702795
-0.104848 -1.3329 -5.38347
-1.83283 0.442598 10.324
-0.276408 -1.54543 2.50691
-0.136614 -0.650471 3.0911
1.46765 1.70882 18.9413
0.0310206 1.61284 19.502
-0.000836105 1.02919 18.6225
0.0547805 3.98681 19.8406
2.03856 1.87081 20.7409
0.0432873 2.07116 20.5194
0.0550484 4.59832 20.1363
2.08636 0.943357 22.523
0.0159288 1.66887 22.0656
-0.000999756 0.315829 19.8868
-0.221422 -0.566647 21.0586
-0.00135518 -0.227484 21.7726
-0.000630543 -0.666384 15.2178
-0.458068 -0.956316 20.7155
-0.00105874 -0.662258 21.2741
-0.0430203 -1.25533 17.9598
-0.509423 -1.12369 20.2555
-0.00113629 -0.807156 20.757
-0.0242935 -0.870654 19.3882
1.11855 -0.455364 19.9586
1.21076 -0.960959 19.6947
1.79768 -0.857658 19.2237
0.749869 -0.423463 19.4699
2.31644 -1.7041 20.5367
1.00965 -0.569671 21.224
0.781249 -0.960443 21.5835
1.38401 -1.26924 22.0156
0.258193 -0.624201 21.5671
0.189577 -0.29561 21.4643
-0.0285442 -0.239852 21.5823
0.00555329 -0.41069 19.5895
-0.258337 -0.102094 20.6365
-0.366183 -0.00173228 21.6044
-0.477602 0.325016 21.4021
-0.491519 0.219759 17.3975
-0.987686 0.835496 19.1301
-0.860114 0.258666 21.2076
-0.87187 0.808128 20.5526
-1.33864 0.748756 17.5379
-1.32578 0.831154 20.2147
-0.961256 0.125433 20.6633
-1.01004 0.82591 20.5418
-1.49042 0.471352 18.9514
-0.994116 0.657926 20.7482
1.45773 -0.125524 19.7839
2.26234 0.511293 18.9281
0.962904 -0.116239 19.1973
4.27976 -0.407711 20.2395
1.4149 -0.323785 21.272
2.41967 -0.0667498 21.6453
0.850169 -0.947863 21.1588
0.456575 -0.37832 21.5692
1.03094 -0.711763 21.3864
0.0521632 -0.220973 19.0301
-0.324843 -0.189821 21.7138
-0.478453 -0.177168 20.2544
-1.2106 0.250349 16.2757
-0.982347 -0.187306 21.2571
-1.19322 -0.553194 20.2016
-1.72278 0.0961479 17.9378
-1.05804 -0.225091 21.1776
-1.31643 -0.670096 20.466
-1.41596 -0.104909 17.6311
1.06611 0.502343 19.9497
0.769698 0.813313 19.9507
0.783096 0.501651 19.4621
1.82025 1.29041 20.2332
1.27478 0.438651 20.8845
0.987902 0.91353 20.7535
1.72102 0.584814 21.3178
0.753207 0.0604264 21.5267
0.711237 0.495679 21.5305
0.438656 -0.0434832 21.9601
-0.0867181 -0.24239 21.5752
0.00986008 -0.203826 21.5701
-0.404765 -0.597427 21.5457
-0.487545 -0.473717 21.2743
-0.239654 -0.48969 21.2171
-0.559231 -0.777966 21.2658
-0.526105 -0.527964 20.9219
-0.254527 -0.463022 20.9052
-0.471099 -0.668124 20.4717
-1.48704 -0.906484 19.5146
-0.994036 -1.10644 21.7656
0.0587781 -0.330278 21.1307
0.569129 0.263264 20.1211
1.12714 0.873577 19.6867
1.24914 0.863646 19.9622
-2.22984 -0.252175 18.9585
-2.02406 -0.743148 22.1511
-0.290182 -0.719352 19.8936
0.439879 0.203594 18.0655
1.43148 0.209639 16.5777
1.7502 0.143383 17.6005
-1.38991 1.00686 19.5027
-1.79017 0.974145 20.9025
-1.2408 0.258569 21.8782
0.131589 -0.356997 21.8046
0.516247 -0.714018 21.3604
0.600551 -0.822587 20.8611
-0.0413702 -3.31483 17.5349
-0.00341672 -0.423761 15.1623
-0.0032087 0.0213939 11.6048
-0.00162003 0.248788 9.79431
-0.0190363 -0.0760136 7.40282
0.0445122 1.2395 8.83685
-0.0759785 -1.00307 13.1395
0.0546775 -0.730463 -4.6232
-0.225084 -1.76036 -2.76787
0.0212671 2.8337 18.1636
0.0364779 3.20644 20.3146
0.0183253 3.1061 22.3294
-0.000462622 -0.530126 16.3613
-0.00857731 -0.859408 16.608
-0.0514589 -1.09684 17.9208
1.5182 -0.970224 19.4676
0.987795 -1.12086 21.7753
-0.0517229 -0.324986 21.0479
-0.572335 0.288143 19.8644
-1.11175 0.847103 19.7383
-1.26554 0.73059 20.1307
2.29336 -0.271041 18.8818
2.02965 -0.743823 22.1466
0.298313 -0.715699 19.9193
-0.444653 0.184891 18.1472
-1.42678 0.127749 17.7205
-1.68946 0.0862299 18.8125
1.3837 0.985353 19.5163
1.75572 0.930165 20.9029
1.21404 0.255576 21.8597
-0.133022 -0.355334 21.8002
-0.520293 -0.697946 21.3593
-0.60912 -0.743599 20.9517
-1.23243 -0.295914 1.30326
-0.00301468 -0.0216546 0.150331
-0.00518136 0.0106145 0.366175
-0.00521404 0.0281307 0.0302412
-0.0440679 -0.00457009 -0.0060328
-0.0457159 0.0871329 0.415369
-0.132075 0.0265973 0.192871
-0.0118807 0.11935 0.335733
-0.185451 0.0493271 0.716467
-0.0536542 0.01504 -0.0108284
-0.0439402 -0.00706079 0.0180468
0.0191248 0.0108603 0.189611
0.0031591 -0.0217077 0.150683
1.22981 -0.295187 1.30017
0.00503366 0.0105817 0.3666
0.0629145 0.0147306 0.0470724
0.00599708 0.0269206 0.0288672
0.0424302 0.0813924 0.409426
0.0140634 0.129335 0.364172
0.0594194 0.0119909 0.0863215
0.193031 0.0524543 0.731794
0.0371602 -0.0038622 0.0127748
0.0532134 0.0160258 -0.0112677
-0.0192596 0.0110037 0.190005
-0.0197016 0.00943433 0.479488
-0.00218859 0.00756819 0.216513
0 0 0
0 0 0
-0.00774036 0.00482203 0.14874
0.000255162 0.000127223 0.0120807
0 0 0
0 0 0
-0.2307 -0.135342 0.644073
-0.000749378 -0.00269712 0.0372235
0.00520013 0.0132579 0.077684
-0.0289054 0.0186743 0.046347
0.0100766 0.00625537 0.0500523
-0.0586643 0.113444 0.550606
0.0049338 0.00851492 0.0321715
0.0847685 0.00562778 0.358109
0.0108563 0.00517328 0.428613
0 0 0
0.0011304 0.00614542 0.220062
0 0 0
0.00788111 0.00483403 0.147229
0 0 0
2.64363e-18 -2.70604e-18 -1.9808e-16
0 0 0
0.23464 -0.136581 0.652482
0.027814 0.0180466 0.0446855
0.000748106 -0.00266229 0.0375425
-0.00526814 0.0133704 0.0781261
-0.0386592 0.0207895 0.179176
-0.0762701 0.00610565 0.324137
0 0 0
-0.00485254 0.00837172 0.0317521
-0.213199 -0.101805 1.14915
-1.86052 -0.416777 0.346985
1.59411e-08 -1.67238e-06 -5.2879e-05
-1.41744e-05 -0.0740578 -0.0395143
-0.000130118 -0.00021323 0.00726966
0 0 0
0.00694802 0.00241542 0.0526066
-0.0987087 0.0284418 -0.0105179
0 0 0
-5.21699e-06 -7.48787e-05 -2.23548e-05
0.000292171 0.00428313 0.0436418
-6.20405e-05 0.000108627 0.00717301
0 0 0
-1.55487e-05 0.0126169 0.066852
-0.000107456 -0.000369327 0.00274418
-0.00792593 0.0053692 0.0422425
-0.000500099 0.017246 -0.00354775
-2.66888e-05 4.86944e-05 -0.00124699
0.0178493 0.0346373 0.23653
7.67608e-19 3.1351e-19 -1.20932e-18
2.36674 -0.557952 0.857389
0.21204 -0.101675 1.14567
0 0 0
0.000135406 -0.000221599 0.00753201
0.0982145 0.0301426 -0.0113024
-0.0072341 0.00256843 0.0542269
2.1551e-05 4.48972e-05 0.00297214
-0.000280755 0.00400023 0.0405349
0.00597014 0.00404181 0.031995
0.000123012 -0.000347633 0.00264636
0 0 0
-0.0187889 0.0364958 0.248569
0 0 0
0 0 0
0.0045975 -0.0108666 0.0963561
-4.86487e-05 0.0134721 0.173661
0 0 0
3.78072e-08 -2.68682e-07 -5.20811e-05
0 0 0
3.38763e-05 0.00240103 0.020213
6.56337e-09 7.39999e-08 1.25182e-05
-2.35444e-08 -5.51904e-07 -2.41533e-05
7.64311e-05 0.00115089 0.00557908
-0.0346344 0.0487425 0.656279
-0.000416325 0.0105459 0.0796671
-4.79944e-06 0.0947114 0.2081
3.58939e-08 0.000794991 0.0415397
5.91998e-06 -3.77989e-05 0.000584117
0 0 0
0 0 0
-0.00455209 -0.0105019 0.0952966
5.61515e-05 0.0131461 0.165844
0 0 0
-4.75002e-05 0.00188116 0.0163942
0.0348642 0.0500426 0.650367
-5.70014e-05 0.000848764 0.00410687
-0.164606 -0.0947736 0.900129
-0.114056 -0.0403033 0.378567
0.0215294 -0.0113091 0.293704
5.204e-19 -9.63631e-18 3.87923e-17
0 0 0
0.000629318 0.0122789 0.0965757
0 0 0