# vtk DataFile Version 2.0
tet_velo
ASCII
DATASET UNSTRUCTURED_GRID
POINTS 29498 float
-0.842286 0.475 -2.025
-0.855 0.475 2.11474
-0.869269 0.695 -2.045
-0.815 0.829163 2.045
0.842279 0.475 -2.025
0.855 0.475 2.11474
0.865 0.695 -2.04926
0.815 0.829163 2.045
-0.856182 0.465342 -0.645087
-0.857165 0.468597 0.734827
-0.869177 0.757718 -0.681667
-0.857831 0.809183 0.681667
0.856182 0.465337 -0.645087
0.857163 0.468596 0.734827
0.869164 0.760552 -0.684507
0.85734 0.810116 0.680247
-1.69847 0.307323 -3.10198
-1.7007 0.327441 -2.00431
-1.70836 0.320698 -0.624101
-1.70536 0.31155 0.759191
-1.69805 0.313348 2.13965
-1.69865 0.325775 3.23858
-1.70225 0.343177 4.33513
-1.70121 0.440627 -3.11856
-1.70388 0.468678 -2.02253
-1.71272 0.472024 -0.645504
-1.70527 0.475584 0.732802
-1.69148 0.481853 2.11011
-1.69548 0.494464 3.20884
-1.70171 0.510903 4.30593
-1.71362 0.690029 -3.14671
-1.72305 0.716043 -2.04939
-1.72405 0.765258 -0.683559
-1.7052 0.808383 0.680831
-1.67054 0.82861 2.04687
-1.68531 0.839266 3.1462
-1.70016 0.851296 4.24586
-1.7209 1.11339 -3.20186
-1.72479 1.14812 -2.10742
-1.72413 1.21241 -0.746342
-1.71686 1.27719 0.610984
-1.70754 1.31896 1.97198
-1.70664 1.33784 3.06626
-1.71142 1.35122 4.164
-0.842884 0.3108 -3.10367
-0.843967 0.332593 -2.00631
-0.85258 0.318067 -0.624297
-0.853889 0.305808 0.760967
-0.852013 0.307181 2.14303
-0.854201 0.321318 3.24082
-0.857282 0.34022 4.33632
-0.843543 0.441328 -3.11978
-0.855715 0.490843 3.21067
-0.858878 0.508526 4.30679
-0.853944 0.681263 -3.14586
-0.847093 0.838838 3.14569
-0.859307 0.850744 4.24558
-0.861999 1.10615 -3.20086
-0.865685 1.14066 -2.10618
-0.866861 1.20925 -0.74581
-0.865542 1.27886 0.610279
-0.862433 1.32175 1.97049
-0.86298 1.33997 3.06483
-0.86727 1.35262 4.16289
0.859609 0.31117 -3.10455
0.852332 0.332791 -2.0066
0.857545 0.318217 -0.624467
0.857914 0.305897 0.76085
0.854714 0.307242 2.14295
0.84216 0.321438 3.24065
0.835412 0.340422 4.33605
0.859959 0.44164 -3.12097
0.833918 0.490932 3.21055
0.829595 0.508716 4.30653
0.864861 0.681671 -3.14839
0.819367 0.838967 3.14552
0.82154 0.850972 4.24526
0.857862 1.10706 -3.20301
0.856215 1.14177 -2.1084
0.852099 1.21053 -0.74767
0.840535 1.27981 0.609013
0.827024 1.32233 1.9697
0.822227 1.34042 3.06421
0.819974 1.35304 4.16231
1.71307 0.308292 -3.10401
1.70721 0.328336 -2.00567
1.71291 0.321499 -0.625067
1.7116 0.311996 0.758599
1.70308 0.313609 2.1393
1.69155 0.326104 3.23813
1.68416 0.343635 4.3345
1.71325 0.441601 -3.12113
1.70475 0.469752 -2.02441
1.71366 0.4732 -0.646848
1.70941 0.476086 0.732108
1.69533 0.482033 2.10986
1.68293 0.494747 3.20845
1.67756 0.511344 4.30533
1.72009 0.69125 -3.15101
1.71949 0.717687 -2.05432
1.72274 0.768331 -0.687215
1.70626 0.809781 0.678914
1.67033 0.829007 2.04631
1.66586 0.839656 3.14566
1.66737 0.851816 4.24514
1.71648 1.11524 -3.20589
1.71534 1.15028 -2.11151
1.71008 1.21478 -0.749797
1.69501 1.27899 0.60855
1.67663 1.32013 1.97037
1.66909 1.33877 3.06497
1.6664 1.35208 4.1628
-0.829462 0.585 -2.00868
-3.48687e-06 0.451738 -2.04826
-0.8659 0.453505 -1.33504
-0.778346 0.652082 2.02322
0 0.468486 2.12125
-0.870454 0.457427 1.42478
-0.0021345 0.745901 -2.09803
-0.869225 0.726361 -1.36333
0 0.831483 2.04732
-0.844717 0.827474 1.36333
0.829608 0.585 -2.0131
0.865897 0.453502 -1.33504
0.777927 0.652082 2.0228
0.870454 0.457426 1.42478
0.869215 0.729909 -1.36688
0.844408 0.827877 1.36262
-0.856654 0.466989 0.0448699
-0.869218 0.61153 -0.663377
-1.67848e-07 0.267479 -0.645087
-0.869212 0.63889 0.708247
-6.77931e-07 0.27707 0.734827
-0.867068 0.787015 0
-6.20673e-06 1.058 -0.683087
-0.00024541 1.32157 0.680957
0.856652 0.466987 0.0448699
0.869209 0.612945 -0.664797
0.869202 0.639356 0.707537
0.866542 0.788624 -0.00212991
-0.867239 0.598265 -1.34919
-0.869215 0.62521 0.0224349
-0.869237 0.645486 1.39406
-1.82736e-06 0.27375 -1.33504
-4.22889e-07 0.273207 0.0448699
-3.38965e-07 0.309476 1.42478
-0.00106899 0.585 -2.07977
0 0.652082 2.02646
-0.00107035 0.922981 -1.36511
-0.000125809 1.36936 -0.00106496
-0.000122705 1.11297 1.36298
0.867231 0.598972 -1.35096
0.869206 0.62615 0.02137
0.869227 0.645719 1.3937
-1.27308 0.471839 -2.02376
-0.843127 0.403796 -2.01566
-0.842914 0.458164 -2.57239
-1.27324 0.478426 2.11243
-0.853506 0.391091 2.12889
-0.855357 0.482922 2.6627
-1.29616 0.705522 -2.04719
-0.861607 0.688131 -2.59543
-0.867477 0.91783 -2.07559
-1.24277 0.828887 2.04594
-0.831046 0.834 2.59535
-0.838716 1.07546 2.00775
0.847305 0.403895 -2.0158
0.851119 0.45832 -2.57299
1.27351 0.472376 -2.0247
0.854857 0.391121 2.12885
0.844459 0.482966 2.66264
1.27516 0.478517 2.1123
0.864931 0.688336 -2.59882
0.860608 0.918383 -2.07883
1.29224 0.706343 -2.05179
0.817183 0.834065 2.59526
0.821012 1.07575 2.00735
1.24266 0.829085 2.04565
-1.28445 0.468683 -0.645295
-0.854381 0.391704 -0.634692
-1.28122 0.472091 0.733814
-0.855527 0.387203 0.747897
-1.29661 0.761488 -0.682613
-0.868019 0.983483 -0.713738
-1.28151 0.808783 0.681249
-0.861687 1.04402 0.645973
0.856864 0.391777 -0.634777
1.28492 0.469269 -0.645968
0.857539 0.387246 0.747839
1.28329 0.472341 0.733467
0.860632 0.985542 -0.716088
1.29595 0.764442 -0.685861
0.848938 1.04496 0.64463
1.2818 0.809949 0.67958
-1.69959 0.317382 -2.55314
-1.69984 0.373975 -3.11027
-1.27068 0.309062 -3.10282
-1.70453 0.32407 -1.3142
-1.70229 0.39806 -2.01342
-1.27233 0.330017 -2.00531
-1.70686 0.316124 0.0675449
-1.71054 0.396361 -0.634803
-1.28047 0.319382 -0.624199
-1.7017 0.312449 1.44942
-1.70531 0.393567 0.745997
-1.27962 0.308679 0.760079
-1.69835 0.319562 2.68911
-1.69477 0.397601 2.12488
-1.27503 0.310265 2.14134
-1.70045 0.334476 3.78685
-1.69707 0.410119 3.22371
-1.27643 0.323547 3.2397
-1.70198 0.42704 4.32053
-1.27977 0.341699 4.33573
-1.70255 0.454652 -2.57054
-1.70741 0.565328 -3.13263
-1.27238 0.440978 -3.11917
-1.7083 0.470351 -1.33401
-1.71347 0.59236 -2.03596
-1.709 0.473804 0.0436491
-1.71838 0.618641 -0.664532
-1.69838 0.478718 1.42146
-1.70523 0.641983 0.706817
-1.69348 0.488158 2.65947
-1.68101 0.655231 2.07849
-1.6986 0.502684 3.75739
-1.6904 0.666865 3.17752
-1.2756 0.492654 3.20975
-1.70094 0.6811 4.2759
-1.28029 0.509715 4.30636
-1.71833 0.703036 -2.59805
-1.71726 0.901711 -3.17429
-1.28378 0.685646 -3.14628
-1.72355 0.74065 -1.36647
-1.72392 0.932084 -2.0784
-1.71462 0.78682 -0.00136397
-1.72409 0.988835 -0.714951
-1.68787 0.818497 1.36385
-1.71103 1.04279 0.645908
-1.67793 0.833938 2.59654
-1.68904 1.07378 2.00943
-1.69274 0.845281 3.69603
-1.69598 1.08855 3.10623
-1.2662 0.839052 3.14595
-1.70579 1.10126 4.20493
-1.27973 0.85102 4.24572
-1.72285 1.13076 -2.65464
-1.29145 1.10977 -3.20136
-1.72446 1.18027 -1.42688
-1.29524 1.14439 -2.1068
-1.72049 1.2448 -0.067679
-1.2955 1.21083 -0.746076
-1.7122 1.29807 1.29148
-1.2912 1.27803 0.610631
-1.70709 1.3284 2.51912
-1.28498 1.32035 1.97124
-1.70903 1.34453 3.61513
-1.28481 1.3389 3.06554
-1.28935 1.35192 4.16344
-0.843426 0.321697 -2.55499
-0.843213 0.376064 -3.11172
0.00836224 0.310985 -3.10411
-0.848274 0.32533 -1.31531
0.00418217 0.332692 -2.00646
-0.853235 0.311938 0.0683348
0.00248231 0.318142 -0.624382
-0.852951 0.306495 1.452
0.00201281 0.305852 0.760909
-0.853107 0.31425 2.69192
0.00135076 0.307211 2.14299
-0.855741 0.330769 3.78857
-0.854958 0.406081 3.22574
-0.00602029 0.321378 3.24073
-0.85808 0.424373 4.32156
-0.0109351 0.340321 4.33619
-0.848743 0.561295 -3.13282
0.00820806 0.441484 -3.12037
-0.857296 0.499685 3.75873
-0.851404 0.664841 3.17818
-0.0108983 0.490888 3.21061
-0.859092 0.679635 4.27619
-0.0146417 0.508621 4.30666
-0.857971 0.893705 -3.17336
0.00545849 0.681467 -3.14712
-0.8532 0.844791 3.69564
-0.855036 1.08941 3.10526
-0.013863 0.838902 3.1456
-0.863288 1.10168 4.20423
-0.0188835 0.850858 4.24542
-0.863842 1.1234 -2.65352
-0.0020686 1.1066 -3.20194
-0.866273 1.17495 -1.42599
-0.00473495 1.14121 -2.10729
-0.866201 1.24406 -0.0677655
-0.00738102 1.20989 -0.74674
-0.863988 1.30031 1.29039
-0.0125036 1.27934 0.609646
-0.862706 1.33086 2.51766
-0.0177044 1.32204 1.9701
-0.865125 1.3463 3.61386
-0.0203765 1.3402 3.06452
-0.0236482 1.35283 4.1626
0.85597 0.32198 -2.55557
0.859784 0.376405 -3.11276
1.28634 0.309731 -3.10428
0.854938 0.325504 -1.31553
1.27977 0.330563 -2.00613
0.85773 0.312057 0.0681917
1.28523 0.319858 -0.624767
0.856314 0.306569 1.4519
1.28476 0.308946 0.759725
0.848437 0.31434 2.6918
1.2789 0.310425 2.14112
0.838786 0.33093 3.78835
0.838039 0.406185 3.2256
1.26686 0.323771 3.23939
0.832503 0.424569 4.32129
1.25979 0.342029 4.33527
0.86241 0.561656 -3.13468
1.2866 0.441621 -3.12105
0.831756 0.499824 3.75854
0.826642 0.664949 3.17803
1.25842 0.492839 3.2095
0.825567 0.679844 4.2759
1.25358 0.51003 4.30593
0.861361 0.894367 -3.1757
1.29248 0.686461 -3.1497
0.820453 0.844969 3.69539
0.820797 1.08969 3.10486
1.24261 0.839312 3.14559
0.820757 1.10201 4.20379
1.24445 0.851394 4.2452
0.857039 1.12441 -2.65571
1.28717 1.11115 -3.20445
0.854157 1.17615 -1.42804
1.28578 1.14602 -2.10996
0.846317 1.24517 -0.0693285
1.28109 1.21266 -0.748734
0.83378 1.30107 1.28936
1.26777 1.2794 0.608781
0.824625 1.33137 2.51695
1.25182 1.32123 1.97003
0.8211 1.34673 3.61326
1.24566 1.33959 3.06459
1.24318 1.35256 4.16256
1.71014 0.318314 -2.55484
1.71316 0.374947 -3.11257
1.71006 0.324917 -1.31537
1.70598 0.399044 -2.01504
1.71225 0.316747 0.0667659
1.71328 0.39735 -0.635958
1.70734 0.312802 1.44895
1.7105 0.394041 0.745353
1.69732 0.319857 2.68871
1.69921 0.397821 2.12458
1.68786 0.33487 3.78631
1.68724 0.410426 3.22329
1.68086 0.42749 4.31992
1.709 0.455676 -2.57277
1.71667 0.566425 -3.13607
1.7092 0.471476 -1.33563
1.71212 0.593719 -2.03936
1.71153 0.474643 0.0426297
1.7182 0.620766 -0.667032
1.70237 0.47906 1.42098
1.70783 0.642934 0.705511
1.68913 0.48839 2.65916
1.68283 0.65552 2.07808
1.68025 0.503045 3.75689
1.67439 0.667202 3.17706
1.67247 0.68158 4.27524
1.71979 0.704468 -2.60266
1.71829 0.903243 -3.17845
1.72111 0.743009 -1.37077
1.71742 0.933982 -2.08291
1.7145 0.789056 -0.00415032
1.71641 0.991557 -0.718506
1.68829 0.819394 1.36261
1.70064 1.04439 0.643732
[...]
POINT_DATA 29498
VECTORS point_vectors float
-6.20544 -3.36975 8.33504
0.160643 0.20945 1.27712
-7.38343 2.30846 11.1365
0.525157 -0.23568 2.25157
6.17588 -3.29218 8.37941
-0.150846 0.224631 1.30268
7.62575 2.05459 10.7204
-0.52356 -0.243053 2.25459
0.00336894 -0.00983012 0.0754261
0 0 0
-0.0317244 -0.108519 0.627835
0.0882484 0.143923 0.478207
-0.00337977 -0.00986412 0.0761519
-3.4073e-18 -7.23566e-18 -3.70819e-17
0.0302071 -0.10505 0.605149
-0.0981249 0.141784 0.477036
-0.564991 -0.0858403 19.8569
-1.20926 -0.241408 20.3901
-0.579228 -0.24435 21.1887
0.0471974 -0.0153565 21.3595
0.533248 0.132074 21.2289
0.712015 0.227796 20.563
0.70738 0.115081 20.8149
-0.573027 -0.0484875 19.8306
-1.30335 -0.169982 20.3483
-0.643709 -0.248554 21.1828
0.0329245 -0.0715389 21.3816
0.578047 0.0668735 21.2513
0.781348 0.112962 20.5729
0.75427 0.0538158 20.6423
-0.555308 0.00594209 19.8358
-1.23632 -0.00167282 20.3191
-0.795584 -0.225963 21.148
-0.0262526 -0.169441 21.4243
0.585267 -0.119731 21.2496
0.783139 -0.140836 20.7855
0.687666 -0.174866 20.7119
-0.492113 0.147663 19.8679
-1.06005 0.285685 20.2327
-0.939149 0.0513165 21.0424
-0.203373 -0.123445 21.4243
0.378732 -0.260346 21.2197
0.563583 -0.325716 20.9902
0.49835 -0.427563 20.6836
-0.654231 -0.27813 19.1439
-5.82097 -4.78111 19.9563
0.398263 -0.652639 5.68624
-0.227212 -0.0703132 1.67732
0.954154 0.765954 10.6892
1.32432 1.4366 16.1915
1.15635 0.624342 15.7585
-0.688943 -0.142023 19.0974
1.80156 0.927762 13.9636
1.54587 0.735424 15.5725
-0.651085 0.0612919 19.1086
1.93625 -0.100785 12.2459
1.57319 -0.153178 15.9714
-0.532187 0.330387 19.339
-2.40628 2.30807 19.3898
-3.62662 1.18217 20.3706
-0.342812 -0.118479 18.6755
0.674823 -0.654598 18.6972
1.04015 -0.972133 18.8227
0.808759 -0.782221 19.9729
0.657655 -0.27011 19.1675
5.77168 -4.61353 20.0224
-0.409687 -0.682967 6.15728
0.287243 -0.134462 2.63577
-0.954171 0.760835 10.8527
-1.31763 1.45774 16.0125
-1.16361 0.635896 15.4892
0.689803 -0.140258 19.1205
-1.69663 1.00431 13.0363
-1.55523 0.753573 15.1915
0.649577 0.0585245 19.1264
-1.95517 -0.0858477 11.412
-1.61738 -0.144134 15.1195
0.529118 0.33033 19.3343
2.3973 2.35571 19.3608
3.67009 1.28828 20.3475
0.198898 0.0381494 17.5983
-0.718872 -0.565208 17.6722
-1.06885 -0.986684 18.3505
-0.822276 -0.793931 19.9121
0.559079 -0.0885155 19.8607
1.20769 -0.23961 20.3783
0.581235 -0.241556 21.1885
-0.0406825 -0.0157581 21.3614
-0.525908 0.128415 21.226
-0.705797 0.233534 20.569
-0.723766 0.118989 20.7911
0.575461 -0.0501096 19.8399
1.30348 -0.171923 20.3475
0.64708 -0.246658 21.1836
-0.029831 -0.0726832 21.3837
-0.57605 0.0660242 21.2493
-0.784306 0.122938 20.5266
-0.771937 0.0545124 20.6463
0.5493 0.0125283 19.848
1.24486 0.0027951 20.318
0.806668 -0.223687 21.1504
0.0236252 -0.171737 21.4286
-0.584252 -0.120814 21.2527
-0.805452 -0.136794 20.7783
-0.683758 -0.1682 20.7302
0.496179 0.146508 19.8655
1.06984 0.291119 20.2316
0.965096 0.0507862 21.0437
0.210225 -0.13106 21.4389
-0.390804 -0.271789 21.2242
-0.591679 -0.326486 20.9982
-0.498324 -0.422252 20.7045
-3.87528 -0.418246 2.67692
0 0 0
0.00522222 -0.0390287 0.481818
-0.0590265 0.00397222 -0.0247462
0.012545 -0.392333 -0.414855
0.0281796 0.0140033 0.937932
1.01249e-05 3.59636 2.82762
-0.0143346 -0.105423 0.551517
8.55784e-05 0.0206853 -0.00969716
0.153011 0.14954 0.682339
4.64453 -0.647523 3.42574
-0.00503505 -0.0387588 0.484819
0.0514274 0.00359727 -0.0220955
-0.0283152 0.0138224 0.941746
0.00851078 -0.0749026 0.393065
-0.151606 0.148294 0.675628
-6.53586e-05 0.00295626 0.0802684
-8.23219e-07 1.77734e-05 -0.000209099
1.2009e-06 -0.000336333 0.0161777
-1.25333e-06 -4.0264e-05 -0.000172729
0.000295842 0.00202903 0.0804927
0.0284747 0.156499 0.551399
-7.1288e-05 0.00132743 0.0134565
-2.75854e-06 -0.000677623 0.0049026
8.70401e-05 0.00303715 0.0798817
4.95813e-07 1.0686e-05 -0.000125556
7.22248e-07 -2.29675e-05 -9.98546e-05
-0.025362 0.142301 0.499172
-0.000124511 -0.00661481 0.033893
2.09132e-07 4.70724e-06 2.55962e-05
1.80818e-05 0.00257851 0.0243057
0 0 0
0 0 0
-5.01679e-06 0.00089889 0.0272079
-0.00589731 -0.234022 0.169049
2.87998e-05 0.0023988 -0.000467012
-2.88683e-06 0.00451219 0.0479282
3.36925e-09 -6.48428e-06 -0.000231171
-9.77964e-09 9.47498e-06 -2.60009e-05
0.000119341 -0.00571136 0.030209
-8.34608e-07 1.87876e-05 0.000101166
-2.03937e-05 0.00297054 0.028094
-2.60416 -0.442302 20.2703
-7.90355 -6.16179 19.122
-1.88121 -0.549602 17.9258
0.993244 0.242678 21.2193
0.59801 0.718121 6.19085
0.920377 0.751647 9.18984
-2.51507 0.170392 20.166
-1.84173 0.277668 17.9987
-4.52961 3.24582 19.0445
1.08758 -0.198613 21.0411
1.17321 0.0877554 9.09438
1.71412 0.194861 14.0744
8.01184 -6.17073 19.4981
1.88474 -0.542872 17.9671
2.59883 -0.439695 20.2721
-0.593621 0.722673 6.33825
-0.830498 0.768992 8.63021
-0.989514 0.23951 21.2393
1.83021 0.272261 18.0243
4.53157 3.34431 18.9306
2.53389 0.168393 20.1611
-1.11263 0.0682133 8.49381
-1.68415 0.200017 13.3719
-1.08844 -0.20066 21.0391
-0.70201 -0.497553 21.6116
0.131149 -0.300092 2.39031
0.231053 0.00336066 21.4639
-0.107499 0.0626149 0.606543
-1.14452 -0.617989 21.4714
-4.13605 -1.58772 11.0334
0.200063 -0.351876 21.6463
1.11952 1.16721 10.3116
-0.14424 -0.328848 2.63823
0.702063 -0.499472 21.6168
0.159347 0.0811941 0.907239
-0.231242 0.00187137 21.4724
4.23386 -1.53575 10.6721
1.15198 -0.62064 21.4739
-1.14144 1.28273 9.55291
-0.198529 -0.357305 21.6444
-0.933845 -0.178086 19.9661
-0.570182 -0.065087 19.8432
-0.683101 -0.184284 19.5641
-0.97774 -0.270865 20.928
-1.25365 -0.201589 20.3699
-2.34653 -0.733776 20.3425
-0.243218 -0.153975 21.3332
-0.610109 -0.25458 21.1935
-0.601389 -0.405651 21.5246
0.31329 0.0761994 21.3446
0.0413211 -0.043908 21.3731
0.140974 0.0902785 21.4943
0.685857 0.157217 21.0372
0.558261 0.0981177 21.2448
0.858255 0.398095 21.2841
0.721117 0.167357 21.2601
0.749294 0.172992 20.5349
1.12416 0.409202 21.1137
0.730825 0.0844484 20.7286
0.880875 0.339231 21.3354
-0.974009 -0.108646 19.9179
-0.567325 -0.0270406 19.8259
-0.699549 -0.0948055 19.5338
-1.03693 -0.212246 20.9042
-1.28971 -0.0953715 20.3295
-0.279629 -0.190347 21.3481
-0.707529 -0.23661 21.1623
0.337676 0.0232631 21.3716
0.0163082 -0.127428 21.3989
0.718464 0.0742428 21.0319
0.587397 -0.0120358 21.2339
0.787738 0.0946881 21.2438
0.810846 0.00184406 20.5482
1.27866 0.241127 21.1455
0.793619 -0.0724084 20.6425
1.24878 0.425998 20.7214
-0.931127 0.0176829 19.9324
-0.522569 0.092753 19.8487
-0.681953 0.0445287 19.5382
-1.12664 -0.0862399 20.8489
-1.17668 0.19081 20.264
-0.42808 -0.225926 21.3809
-0.88592 -0.0898348 21.0966
0.327211 -0.115413 21.3925
-0.114658 -0.163977 21.4368
0.729148 -0.127418 21.1631
0.5003 -0.212754 21.2484
0.85618 -0.151842 20.9806
0.751865 -0.261314 21.0108
1.38069 -0.307214 20.9805
0.52746 -0.240407 20.5674
1.18138 -0.32714 20.4839
-0.804085 0.227532 19.9429
-0.568733 0.210796 19.6302
-1.10279 0.206158 20.7014
-1.72065 0.77413 20.0075
-0.621409 -0.0526972 21.3414
-1.71501 0.1156 21.1363
0.168733 -0.202845 21.3752
-0.344329 -0.248026 21.7889
0.504773 -0.305114 21.118
0.519181 -0.504928 21.3898
0.534613 -0.277711 20.6997
0.840137 -0.648527 20.9612
0.835892 -0.562016 20.471
-1.76477 -0.9882 18.2299
-0.671269 -0.213684 19.1209
0.0081499 -0.396735 18.6211
-0.34017 -0.709676 7.89692
0.00714336 -10.6449 12.2211
0.150053 -0.129552 5.97366
0 0 0
0.394028 0.161374 7.43413
0 0 0
1.15313 1.01034 13.4159
0.034751 -0.398075 1.4905
1.18488 0.925224 15.2447
1.57218 1.19576 15.2035
-0.0261666 0.282158 2.71753
1.35111 0.679883 15.6655
0.0350454 0.466644 8.79846
-0.683527 -0.0594871 19.0957
0.00553033 -0.21146 18.5348
1.57947 0.997514 14.54
2.21022 0.333763 11.8031
-0.0423801 -1.5107 -5.43488
1.56185 0.294994 15.8103
0.0293588 -0.734049 1.40474
-0.586194 0.227526 19.2139
0.00371479 0.0747035 18.5751
1.90642 -0.1237 13.9768
1.61448 -0.699825 16.9457
0.0599233 -1.10932 -2.07677
1.38524 -0.596108 18.535
0.0554418 -1.28131 3.15168
-1.19599 0.949691 18.8486
-0.00217819 0.496206 18.9213
-2.6791 1.40159 20.7718
-0.0160735 4.61977 18.4249
-2.56263 -0.194312 20.4677
-0.0573044 3.22742 12.3278
0.472559 -0.418987 18.4133
0 0 0
0.787916 -0.842986 19.0392
0.00571573 -0.11262 4.09781
1.01751 -1.02558 19.3219
0.0553348 -0.633208 8.48546
0.0174535 -1.12648 11.7929
1.76898 -0.963376 18.2762
0.673406 -0.211862 19.145
0.68456 -0.180903 19.575
0.391836 -0.70632 8.65799
2.30945 -0.712601 20.3445
-0.156378 -0.132549 6.37909
0.602355 -0.403094 21.5228
-0.401609 0.159658 7.68816
-0.140222 0.0892754 21.5
-1.14001 1.02714 13.3185
-0.852275 0.394747 21.2972
-1.1769 0.945267 14.8662
-1.49018 1.2505 14.484
-1.14759 0.417383 20.9826
-1.35942 0.694735 15.3403
-0.907467 0.356219 21.2179
0.681895 -0.0581215 19.1156
0.702701 -0.0910115 19.5457
-1.56315 1.03115 13.953
-2.09217 0.42668 10.754
-1.32373 0.255128 20.9065
-1.57914 0.319424 15.2423
-1.28761 0.462398 20.7176
0.583717 0.226584 19.2169
0.679052 0.0443739 19.5513
-1.91691 -0.140676 13.1011
-1.65755 -0.673163 16.0625
-1.40174 -0.319887 20.9246
-1.44805 -0.597631 17.6022
-1.25372 -0.350197 20.433
1.1853 0.952117 18.8393
0.565118 0.211211 19.6304
2.68778 1.47568 20.7708
1.73202 0.792099 19.9905
2.65286 -0.219307 20.1835
1.75723 0.118679 21.1352
-0.581661 -0.279748 17.172
0.36318 -0.254904 21.8106
-0.823522 -0.808979 18.3986
-0.523957 -0.52767 21.4109
-1.00011 -1.08011 19.0004
-0.819424 -0.685524 21.009
-0.824423 -0.585753 20.4099
0.92691 -0.174388 19.9697
0.567199 -0.0679655 19.8499
0.976779 -0.265998 20.931
1.2547 -0.203572 20.3633
0.246854 -0.151897 21.3319
0.611549 -0.25239 21.1931
-0.311154 0.0717733 21.3371
-0.0358134 -0.0445485 21.3745
-0.68481 0.15594 21.0347
-0.553586 0.0966091 21.2427
-0.735454 0.163664 21.239
-0.74879 0.180777 20.5154
-0.749411 0.0857139 20.7309
0.966007 -0.103992 19.9291
0.569241 -0.0244393 19.838
1.0395 -0.207966 20.91
1.29055 -0.0949048 20.3319
0.282914 -0.188955 21.3461
0.714537 -0.234327 21.1642
-0.336937 0.0189541 21.3654
-0.0176538 -0.129835 21.4019
-0.720218 0.073881 21.0327
-0.584718 -0.0126759 21.2361
-0.804104 0.0878539 21.2432
-0.828169 0.00748862 20.5402
-0.791918 -0.0660796 20.6577
0.926909 0.0197722 19.9471
0.521773 0.0976371 19.8515
1.13317 -0.0780512 20.8569
1.18982 0.192888 20.271
0.429715 -0.225515 21.3852
0.903063 -0.0893041 21.1002
-0.33389 -0.117021 21.3926
0.112727 -0.167054 21.4478
-0.739802 -0.130336 21.1603
-0.508652 -0.216368 21.256
-0.886732 -0.166217 20.9767
-0.773428 -0.267705 21.0193
-0.520799 -0.236153 20.5869
0.807888 0.229464 19.9385
1.11802 0.206248 20.7018
0.639903 -0.0558833 21.3542
-0.167645 -0.211054 21.3835
-0.521389 -0.320799 21.1271
-0.580557 -0.296816 20.7019
-0.952513 -0.13911 19.9417
-1.83025 -0.808117 18.0583
-1.39832 -0.424893 19.4523
-1.47275 -0.237887 19.3722
-0.691325 -0.139545 19.549
-2.51635 -0.606276 20.3083
-1.00846 -0.241453 20.9158
-0.0575023 -0.233411 3.12297
-1.35427 -0.474615 21.3215
-1.43473 -0.411112 21.3234
-0.626231 -0.446711 21.5801
-0.262625 -0.173139 21.3417
0.022179 0.0111271 2.53183
-0.131175 -0.160647 21.5468
-0.131057 -0.288221 21.6106
0.195755 0.0575514 21.4642
0.334602 0.0509016 21.3639
0.183588 0.0851389 3.53228
0.501224 0.250156 21.3863
0.595987 0.138508 21.3552
0.94577 0.336737 21.2285
0.712762 0.111108 21.0521
1.03605 0.917766 10.9547
1.08368 0.470738 20.926
1.26171 0.264167 21.0191
1.20899 0.32429 21.129
0.755327 0.130438 21.2592
1.38217 0.961369 14.8923
1.27657 0.269984 19.8484
1.30251 0.159253 20.0442
1.06483 0.382615 21.0284
-0.967175 -0.0517379 19.9119
-1.92562 -0.191224 17.8426
-1.42236 0.106104 19.3691
-0.697143 -0.0345794 19.5315
-2.67939 -0.133377 20.236
-1.08426 -0.1571 20.8809
-1.62507 -0.222147 21.1601
-0.858803 -0.597661 21.5983
-0.336299 -0.213031 21.3606
-0.446453 -0.601357 21.77
0.305459 -0.165192 21.4723
0.336771 -0.034886 21.3848
0.666516 -0.198013 21.3049
1.11699 0.0586068 20.9247
0.733048 -0.00120954 21.165
0.619484 0.370437 6.14179
1.3095 -0.267479 20.9383
1.40329 0.0276274 21.0861
0.843532 -0.0336764 21.3478
1.8439 0.350793 13.2136
1.32969 -0.276818 20.6738
1.24058 -0.0418692 20.538
-0.867762 0.149037 19.9256
-1.52073 0.772673 18.4067
-1.07452 0.472871 19.5553
-0.631534 0.15556 19.576
-2.18161 0.568566 20.0638
-1.1323 0.07921 20.7707
-2.80268 -0.259907 16.3154
-1.71405 0.433283 20.767
-1.61366 -0.372391 21.2894
-0.550959 -0.175019 21.3821
-0.00774191 0.468071 9.80472
-1.18556 -0.105955 21.7341
-0.100516 -0.422409 21.7818
0.251571 -0.169145 21.3834
1.75101 0.915165 12.1933
0.220519 -0.372967 21.6003
0.803217 -0.465331 21.3115
0.646785 -0.244974 21.0925
1.54118 -0.332755 15.4573
0.679997 -0.586233 21.1906
1.19752 -0.604872 20.7506
0.786668 -0.272668 20.6224
1.52539 -0.818778 17.4014
0.670538 -0.629076 20.9427
1.01185 -0.388987 20.3481
1.83778 -0.793203 18.102
0.0200229 -1.69501 16.4924
0.0104695 -1.02417 15.9789
0.00684012 -0.304097 18.578
-0.00613559 -2.18199 2.36002
0.0650072 -0.251513 3.47375
0 0 0
0 0 0
-0.0239889 0.0137527 2.75659
0 0 0
0 0 0
-0.191223 0.0881636 3.6952
3.78215e-05 0.00866815 0.262402
0.0326812 -0.748807 -0.563005
-0.991255 0.937112 10.7485
-0.00851489 -0.467434 0.0188322
-0.0574446 -1.31296 -5.14772
-0.0344609 -0.565679 -1.2611
-1.37003 0.988209 14.4096
-0.0138948 0.10532 3.40263
-0.0349646 -0.886644 -3.52228
0.0322021 -0.133703 5.1016
1.91887 -0.18754 17.8811
0.00407408 0.631657 16.1166
0.00395085 -0.102277 18.5225
-0.545819 0.383576 5.69782
0.00166109 -0.586105 -1.60419
0.0485704 -1.54351 -4.62201
-1.82518 0.377824 12.5464
0.0987321 -0.611398 0.566837
0.0422233 -1.01464 2.21662
1.50933 0.769891 18.4045
-0.00637886 1.59822 17.9039
0.00105714 0.364821 18.773
-0.0147037 7.73687 17.1474
2.8268 -0.215472 16.0675
-0.0237834 3.63338 20.2451
-0.00163915 -0.0608315 0.267848
-0.118588 0.615666 9.09258
0 0 0
0 0 0
-1.788 0.974143 11.4561
-0.00151722 0.0348113 1.09943
0.0157578 0.547606 -0.724377
-1.54247 -0.302382 14.6487
0.0225873 -0.444969 7.08991
0.0376729 -0.7097 2.08778
-1.51547 -0.829894 16.4274
0.0480664 -1.19002 10.8045
0.00891672 -1.89506 4.43686
0.946769 -0.136746 19.9493
1.37772 -0.413207 19.4749
1.46629 -0.233937 19.3848
0.693631 -0.135957 19.5604
2.48937 -0.594151 20.308
1.00884 -0.236947 20.9202
1.35204 -0.471963 21.313
1.43964 -0.412161 21.3227
0.627212 -0.445167 21.5816
0.265843 -0.171162 21.34
0.13459 -0.15947 21.5513
0.131244 -0.289098 21.6186
-0.196902 0.0565427 21.4709
-0.33163 0.0458097 21.356
-0.497774 0.246975 21.3935
-0.594383 0.135913 21.3604
-0.938646 0.332814 21.2533
-0.716974 0.112142 21.0515
-1.08622 0.47656 20.9195
-1.27215 0.271179 21.0068
-1.24328 0.335508 20.9441
-0.771816 0.124352 21.2572
-1.29273 0.314111 19.7296
-1.33258 0.199976 19.8636
-1.10092 0.412828 21.0282
0.966162 -0.0453215 19.9257
1.41153 0.106095 19.3792
0.69743 -0.0327436 19.5428
2.68749 -0.133502 20.2317
1.08864 -0.152087 20.8879
1.63677 -0.22134 21.1618
0.865065 -0.601458 21.6049
0.339747 -0.213146 21.3621
0.450073 -0.605571 21.7734
-0.303415 -0.169302 21.4784
-0.342737 -0.0369403 21.3831
-0.666251 -0.20193 21.3028
-1.1162 0.0568202 20.9386
-0.739527 -0.00282559 21.1644
-1.33156 -0.271901 20.9135
-1.45752 0.0432031 20.8008
-0.861927 -0.0439734 21.347
-1.37077 -0.291962 20.6519
-1.28679 0.00260646 20.5363
0.864001 0.15333 19.934
1.073 0.476221 19.5451
0.626855 0.154345 19.585
2.19535 0.57699 20.0472
1.14101 0.0835736 20.7732
1.73631 0.44456 20.7641
1.63212 -0.378582 21.2913
0.55681 -0.177369 21.3906
1.23211 -0.111744 21.7572
0.108965 -0.433001 21.7777
-0.255795 -0.173116 21.3877
-0.218735 -0.388967 21.62
-0.814799 -0.486416 21.2671
-0.661862 -0.250503 21.1011
-0.687877 -0.619204 21.1993
-1.22695 -0.619334 20.6747
-0.82398 -0.287712 20.6218
-0.681369 -0.674832 20.9686
-1.09168 -0.418928 20.2888
-1.43217 -0.329305 19.4142
-1.38929 -0.436542 21.3313
-0.111643 -0.205929 21.5823
0.565427 0.200741 21.3354
1.18303 0.419166 20.7788
1.28954 0.214617 19.9463
-1.47923 -0.0744268 19.3503
-1.50797 -0.330962 21.2778
-0.188909 -0.456232 21.6699
0.683278 -0.0147014 21.2495
1.36044 0.0473223 20.7889
1.32796 0.0325259 20.2724
-1.26425 0.335862 19.4409
-1.78488 0.0652912 20.9786
-0.945514 -0.509494 21.8217
0.459166 -0.383065 21.5492
0.968532 -0.564282 21.1423
1.18669 -0.486399 20.5937
0.0137807 -1.35361 16.2286
0 0 0
0 0 0
0 0 0
-0.0374708 -0.877496 -3.74814
-0.026997 -0.39421 -0.0832863
0.00745809 -0.322914 15.8415
-0.0173125 -0.996245 -3.38797
0.084118 -0.359229 -0.231907
-0.0021502 1.3999 16.9713
-0.0129918 1.24687 8.59549
0 0 0
-1.91482e-05 0.0185517 -0.0509089
0.0309087 -0.0354038 1.09127
0.041761 -0.989588 2.97824
1.42246 -0.323468 19.4296
1.39171 -0.438241 21.3263
0.114593 -0.205479 21.5879
-0.562755 0.197948 21.3415
-1.18897 0.42632 20.7713
-1.31266 0.257042 19.7966
1.47043 -0.0748724 19.3626
1.51709 -0.332404 21.2776
0.189771 -0.459296 21.6799
-0.680733 -0.0199874 21.2659
-1.38043 0.0532031 20.7708
-1.36619 0.0650485 20.0625
1.25859 0.337206 19.4414
1.80059 0.0692413 20.9817
0.965094 -0.522643 21.8354
-0.46613 -0.399363 21.5058
-0.991258 -0.596314 21.0941
-1.23897 -0.50438 20.5509
-6.03036 -0.877661 5.16626
-0.0509166 -0.312279 0.366062
-0.0546708 0.0341127 0.494848
-0.0442598 0.00461502 -0.0148313
-0.140336 -0.0125303 0.00105562
0.0056164 0.00152429 0.299963
-3.99783 0.156393 5.02966
-0.439417 1.49198 0.678289
-0.0549154 -0.220478 1.32634
0 0 0
-0.00737241 0.0121365 -0.00430705
0.020868 0.0176353 0.115884
0.0512878 -0.313454 0.367296
6.29058 -0.856752 5.68186
0.0619305 0.0375574 0.52119
0.467529 -0.079772 -0.0517017
0.0438681 0.00484865 -0.0150011
-0.00781022 0.00119601 0.315571
0.542424 1.82132 0.811435
3.6477 0.161367 4.73762
0.0419367 -0.180454 1.10755
0.00767956 0.0122165 -0.00434325
0.0060874 0.00303715 0.0021435
-0.0189002 0.0159939 0.104897
0.0247218 -0.0734898 0.584114
0.00140894 -0.00279097 0.0793328
0.00045237 -0.00260615 0.0209717
0 0 0
0.0200203 -0.0166479 0.407454
-0.000865171 0.00606947 0.0827273
-1.52352e-05 0.00253535 0.0117019
0 0 0
-0.0469748 -0.094344 0.379402
-7.5059e-08 -1.51559e-06 1.16101e-05
0.0180661 0.11452 0.822499
-0.0155263 -0.00196046 0.0017507
0.119483 0.189395 0.716895
0 0 0
0.134935 0.294105 0.975985
0.208539 0.0741422 0.554057
-0.0247382 -0.0735945 0.588038
0 0 0
-0.00138157 -0.00270192 0.0791722
-0.000393189 -0.00226471 0.0183394
-0.0204702 -0.0168641 0.409321
0 0 0
0.00084005 0.005992 0.0825658
1.75815e-05 0.00283102 0.0132625
0.0591987 -0.122119 0.489471
0.018216 -0.0022688 0.00210755
2.77109e-09 -6.30685e-08 4.85451e-07
-0.0205223 0.122144 0.836642
-0.119123 0.18923 0.715847
-0.202916 0.0693637 0.538395
0 0 0
-0.0197408 0.0373023 0.125646
-0.000675969 -0.00404518 0.0336915
-0.232057 -0.0554278 0.0480313
0.000686565 -0.172755 0.579622
-0.0177601 -0.122307 0.0348936
-0.000490952 -0.00982802 0.0681581
0 0 0
-1.6603e-07 -2.37885e-06 -2.13292e-05
0 0 0
0 0 0
0 0 0
0 0 0
0.00214855 0.00399319 0.191776
0 0 0
-1.45633e-06 0.0149396 0.0737581
0 0 0
-0.00269534 0.000929365 0.0110323
0 0 0
1.64525e-07 1.88537e-05 -5.35352e-05
0.000601586 0.00244087 0.0109822
-0.000812315 -0.000398941 0.000800638
0.237325 -0.0579759 0.0490649
0.00092218 -0.00455651 0.0438902
0 0 0
0.000388894 -0.00780607 0.0556741
0 0 0
-1.87397e-07 2.65324e-06 2.40124e-05
-0.000156682 0.000719514 0.0213811
0 0 0
0.00234222 0.000808162 0.00959907
0 0 0
0.000756691 -0.000306791 0.000760901
-0.000703639 0.00285332 0.0128432
9.10751e-06 0.000351672 0.00244373
3.06052e-18 5.81898e-20 3.74656e-17
-0.000177648 -0.00694196 0.0305221
-2.35309e-08 -4.21376e-07 -4.7709e-06
7.70684e-08 -7.62461e-07 0.000127108
2.37936e-07 -2.713e-08 4.59013e-05
0 0 0
4.33853e-07 4.40964e-06 3.38268e-05
-1.0112e-08 -5.02175e-08 -5.84212e-06
3.80832e-05 0.000571848 0.0138191
1.45008e-07 3.74946e-06 1.58064e-05
0.0786632 0.0853542 0.857301
1.14157e-05 1.16894e-05 0.000438827
-0.000214505 0.852464 1.42079
-1.84209e-06 -0.00039863 0.0129139
0 0 0
0 0 0
-1.76351e-05 0.000688514 0.0047082
0.000177721 -0.00673593 0.0297984
-2.09496e-07 3.74276e-06 4.14443e-05
0 0 0
-5.72563e-07 5.8298e-06 4.48029e-05
-0.0842103 0.0920993 0.921031
-3.55442e-07 9.20231e-06 3.85752e-05
0 0 0
-4.05453e-05 -0.00576146 0.0255671
0 0 0
-1.42591e-05 -0.00022371 0.000914863
0.000114071 1.17855e-05 0.0152338