# vtk DataFile Version 2.0
tet_velo
ASCII
DATASET UNSTRUCTURED_GRID
POINTS 29498 float
-0.785 0.165 -1.91033
-0.845 0.195 1.88996
-0.785 0.715 -1.88041
-0.848908 0.825 1.775
0.785 0.165 -1.91033
0.845 0.195 1.88996
0.785 0.715 -1.88041
0.843287 0.825 1.775
-0.816922 0.163078 -0.643567
-0.846816 0.163184 0.623197
-0.835239 0.780603 -0.66194
-0.850346 0.811074 0.55653
0.816925 0.163075 -0.643567
0.84682 0.16318 0.623197
0.835735 0.782973 -0.66194
0.845501 0.809977 0.55653
-1.61097 -0.1627 -2.89193
-1.61062 -0.140783 -1.89786
-1.64099 -0.141783 -0.629845
-1.67552 -0.146274 0.647887
-1.6858 -0.126051 1.91672
-1.68523 -0.105985 2.9148
-1.68369 -0.0870714 3.90545
-1.6075 0.131881 -2.89433
-1.60668 0.161211 -1.90553
-1.64535 0.168837 -0.646918
-1.68298 0.169026 0.616044
-1.6896 0.190833 1.87558
-1.68805 0.210677 2.87298
-1.68606 0.229069 3.86521
-1.60813 0.707646 -2.88558
-1.6098 0.735771 -1.89479
-1.65745 0.784131 -0.669093
-1.68807 0.808786 0.553178
-1.69337 0.825009 1.7798
-1.69139 0.843538 2.77919
-1.68906 0.861568 3.77921
-1.62259 1.61403 -2.90876
-1.62843 1.64788 -1.9252
-1.65199 1.70195 -0.715168
-1.6757 1.74657 0.484459
-1.68673 1.77464 1.695
-1.68873 1.79197 2.67961
-1.68836 1.80852 3.67436
-0.800574 -0.160732 -2.89504
-0.79246 -0.137522 -1.9024
-0.812392 -0.144227 -0.629235
-0.837254 -0.150668 0.653992
-0.843408 -0.125124 1.92739
-0.84273 -0.10524 2.92204
-0.84207 -0.0869234 3.90964
-0.799284 0.131311 -2.89529
-0.844522 0.211992 2.87895
-0.843846 0.229458 3.86837
-0.798972 0.698835 -2.8796
-0.84769 0.84408 2.77823
-0.846702 0.861959 3.779
-0.803645 1.60795 -2.90285
-0.804215 1.64213 -1.9187
-0.820426 1.70035 -0.711246
-0.838666 1.74779 0.483988
-0.84681 1.77593 1.69164
-0.848169 1.79282 2.67625
-0.848052 1.8091 3.67192
0.800733 -0.160488 -2.89504
0.804655 -0.137394 -1.9024
0.826525 -0.144167 -0.629235
0.845551 -0.150676 0.653992
0.845108 -0.125135 1.92739
0.844296 -0.105258 2.92204
0.842578 -0.0869431 3.90964
0.792652 0.131526 -2.89529
0.844009 0.211974 2.87895
0.841978 0.229431 3.86837
0.794186 0.699124 -2.8796
0.841686 0.844034 2.77823
0.839565 0.861912 3.779
0.824315 1.60853 -2.90285
0.832185 1.64283 -1.9187
0.838418 1.70098 -0.711246
0.837841 1.74787 0.483988
0.836289 1.77582 1.69164
0.835292 1.79274 2.67625
0.834143 1.80905 3.67192
1.60916 -0.162065 -2.89193
1.61462 -0.140184 -1.89786
1.64713 -0.141429 -0.629845
1.67982 -0.146334 0.647887
1.68733 -0.126103 1.91672
1.68625 -0.106031 2.9148
1.68372 -0.0871088 3.90545
1.60009 0.132553 -2.89433
1.6024 0.162016 -1.90553
1.64247 0.169449 -0.646919
1.6812 0.168783 0.616044
1.6886 0.190767 1.87558
1.6867 0.210616 2.87298
1.68364 0.229014 3.86521
1.6026 0.708506 -2.88558
1.60661 0.737031 -1.89479
1.65413 0.786127 -0.669093
1.68169 0.808106 0.553178
1.68696 0.824755 1.7798
1.68467 0.84341 2.77919
1.68146 0.861476 3.77921
1.6392 1.61516 -2.90876
1.64949 1.64919 -1.9252
1.66485 1.70307 -0.715168
1.67364 1.74679 0.484458
1.67632 1.77449 1.695
1.67592 1.79185 2.67961
1.67443 1.80845 3.67436
-0.800995 0.44 -1.91136
0 0.165919 -1.90941
-0.801994 0.163006 -1.27695
-0.896554 0.51 1.88208
0 0.193873 1.89109
-0.862548 0.162452 1.25658
0 0.691197 -1.85661
-0.828886 0.766568 -1.27118
-0.00281051 0.825277 1.77528
-0.842567 0.810977 1.16577
0.801866 0.44 -1.91224
0.801995 0.163005 -1.27695
0.895886 0.51 1.88422
0.866927 0.158073 1.25658
0.828315 0.766934 -1.27118
0.845435 0.818529 1.16577
-0.831867 0.163133 -0.010185
-0.876195 0.471841 -0.652753
1.59038e-06 0.160512 -0.643567
-0.882066 0.487129 0.589863
2.01515e-06 0.160521 0.623197
-0.845921 0.798967 -0.052705
0.000247957 0.849574 -0.66194
-0.00242214 1.16991 0.55653
0.831869 0.163131 -0.010185
0.875845 0.473024 -0.652753
0.875445 0.486578 0.589863
0.84452 0.800376 -0.052705
-0.89777 0.45592 -1.27406
-0.872485 0.479485 -0.031445
-0.897634 0.498564 1.21117
7.95192e-07 0.160499 -1.27695
1.80277e-06 0.160516 -0.010185
1.00757e-06 0.116862 1.25658
0 0.44 -1.9478
-0.00140525 0.51 1.94773
0.000123978 0.80577 -1.27118
-0.00108709 1.14715 -0.052705
-0.00261632 1.12661 1.16577
0.897759 0.456512 -1.27406
0.869462 0.479801 -0.031445
0.897741 0.498289 1.21117
-1.19584 0.163105 -1.90793
-0.78873 0.0137391 -1.90637
-0.792142 0.148155 -2.40281
-1.2673 0.192916 1.88277
-0.844204 0.0349379 1.90868
-0.844761 0.203496 2.38446
-1.1974 0.725386 -1.8876
-0.791986 0.706918 -2.38001
-0.794607 1.17856 -1.89955
-1.27114 0.825005 1.7774
-0.848299 0.83454 2.27662
-0.847859 1.30046 1.73332
0.794827 0.013803 -1.90637
0.788826 0.148263 -2.40281
1.1937 0.163508 -1.90793
0.845054 0.0349325 1.90868
0.844505 0.203487 2.38446
1.2668 0.192884 1.88277
0.789593 0.707062 -2.38001
0.808592 1.17891 -1.89955
1.1958 0.726016 -1.8876
0.842486 0.834517 2.27662
0.839788 1.30041 1.73332
1.26512 0.824877 1.7774
-1.23114 0.165958 -0.645243
-0.814657 0.00942566 -0.636401
-1.2649 0.166105 0.61962
-0.842035 0.00625782 0.638594
-1.24635 0.782367 -0.665517
-0.827833 1.24047 -0.686593
-1.26921 0.80993 0.554854
-0.844506 1.27943 0.520259
0.821725 0.00945397 -0.636401
1.2297 0.166262 -0.645243
0.846186 0.00625191 0.638594
1.26401 0.165982 0.61962
0.837077 1.24198 -0.686593
1.24493 0.78455 -0.665517
0.841671 1.27892 0.520259
1.2636 0.809041 0.554854
-1.6108 -0.151741 -2.39489
-1.60924 -0.0154094 -2.89313
-1.20577 -0.161716 -2.89348
-1.62581 -0.141283 -1.26385
-1.60865 0.0102142 -1.9017
-1.20154 -0.139152 -1.90013
-1.65826 -0.144028 0.00902111
-1.64317 0.0135273 -0.638382
-1.22669 -0.143005 -0.62954
-1.68066 -0.136162 1.2823
-1.67925 0.0113759 0.631965
-1.25639 -0.148471 0.650939
-1.68551 -0.116018 2.41576
-1.6877 0.0323909 1.89615
-1.2646 -0.125588 1.92205
-1.68446 -0.0965281 3.41012
-1.68664 0.052346 2.89389
-1.26398 -0.105612 2.91842
-1.68487 0.0709987 3.88533
-1.26288 -0.0869974 3.90755
-1.60709 0.146546 -2.39993
-1.60782 0.419764 -2.88995
-1.20339 0.131596 -2.89481
-1.62601 0.165024 -1.27623
-1.60824 0.448491 -1.90016
-1.66417 0.168931 -0.0154374
-1.6514 0.476484 -0.658006
-1.68629 0.179929 1.24581
-1.68552 0.488906 0.584611
-1.68882 0.200755 2.37428
-1.69148 0.507921 1.82769
-1.68705 0.219873 3.3691
-1.68972 0.527108 2.82609
-1.26628 0.211335 2.87597
-1.68756 0.545318 3.82221
-1.26495 0.229264 3.86679
-1.60897 0.721709 -2.39018
-1.61536 1.16084 -2.89717
-1.20355 0.703241 -2.88259
-1.63363 0.759951 -1.28194
-1.61912 1.19183 -1.90999
-1.67276 0.796458 -0.0579574
-1.65472 1.24304 -0.69213
-1.69072 0.816898 1.16649
-1.68188 1.27768 0.518818
-1.69238 0.834274 2.27949
-1.69005 1.29983 1.7374
-1.69023 0.852553 3.2792
-1.69006 1.31775 2.7294
-1.26954 0.843809 2.77871
-1.68871 1.33504 3.72678
-1.26788 0.861763 3.77911
-1.62551 1.63095 -2.41698
-1.21312 1.61099 -2.90581
-1.64021 1.67492 -1.32019
-1.21632 1.64501 -1.92195
-1.66384 1.72426 -0.115354
-1.23621 1.70115 -0.713207
-1.68121 1.7606 1.08973
-1.25719 1.74718 0.484223
-1.68773 1.78331 2.1873
-1.26677 1.77528 1.69332
-1.68854 1.80024 3.17698
-1.26845 1.79239 2.67793
-1.26821 1.80881 3.67314
-0.796517 -0.149127 -2.39872
-0.799929 -0.0147105 -2.89516
7.92998e-05 -0.16061 -2.89504
-0.802426 -0.140874 -1.26582
0.00609728 -0.137458 -1.9024
-0.824823 -0.147448 0.0123786
0.00706664 -0.144197 -0.629235
-0.840331 -0.137896 1.29069
0.00414817 -0.150672 0.653992
-0.843069 -0.115182 2.42471
0.000849838 -0.12513 1.92739
-0.8424 -0.0960815 3.41584
-0.843626 0.0533764 2.90049
0.00078285 -0.105249 2.92204
-0.842958 0.0712675 3.88901
0.000254134 -0.0869333 3.90964
-0.799128 0.415073 -2.88745
-0.00331594 0.131418 -2.89529
-0.844184 0.220725 3.37366
-0.846106 0.528036 2.82859
-0.000256455 0.211983 2.87895
-0.845274 0.545709 3.82369
-0.000933618 0.229445 3.86837
-0.801309 1.15339 -2.89123
-0.00239316 0.69898 -2.8796
-0.847196 0.853019 3.27862
-0.847929 1.31845 2.72724
-0.00300203 0.844057 2.77823
-0.847377 1.33553 3.72546
-0.00356843 0.861936 3.779
-0.80393 1.62504 -2.41078
0.010335 1.60824 -2.90285
-0.812321 1.67124 -1.31497
0.0139848 1.64248 -1.9187
-0.829546 1.72407 -0.113629
0.00899597 1.70066 -0.711246
-0.842738 1.76186 1.08781
-0.000412585 1.74783 0.483988
-0.84749 1.78437 2.18395
-0.00526047 1.77587 1.69164
-0.848111 1.80096 3.17409
-0.0064385 1.79278 2.67625
-0.00695483 1.80908 3.67192
0.802694 -0.148941 -2.39872
0.796692 -0.014481 -2.89516
1.20495 -0.161277 -2.89348
0.81559 -0.140781 -1.26582
1.20964 -0.138789 -1.90013
0.836038 -0.147422 0.0123786
1.23683 -0.142798 -0.62954
0.845329 -0.137905 1.29069
1.26268 -0.148505 0.650939
0.844702 -0.115196 2.42471
1.26622 -0.125619 1.92205
0.843437 -0.0961004 3.41584
0.844152 0.0533582 2.90049
1.26527 -0.105644 2.91842
0.842278 0.071244 3.88901
1.26315 -0.087026 3.90755
0.793419 0.415325 -2.88745
1.19637 0.132039 -2.89481
0.842994 0.220703 3.37366
0.842847 0.528004 2.82859
1.26535 0.211295 2.87597
0.840772 0.545672 3.82369
1.26281 0.229222 3.86679
0.80925 1.15383 -2.89123
1.19839 0.703815 -2.88259
0.840625 0.852973 3.27862
0.838489 1.31839 2.72724
1.26318 0.843722 2.77871
0.836854 1.33548 3.72546
1.26051 0.861694 3.77911
0.82825 1.62568 -2.41078
1.23176 1.61185 -2.90581
0.835301 1.6719 -1.31497
1.24084 1.64601 -1.92195
0.83813 1.72443 -0.113629
1.25163 1.70203 -0.713207
0.837065 1.76184 1.08781
1.25574 1.74733 0.484223
0.835791 1.78428 2.18395
1.2563 1.77515 1.69332
0.834717 1.8009 3.17408
1.25561 1.79229 2.67793
1.25429 1.80875 3.67314
1.61189 -0.151125 -2.39489
1.60463 -0.0147563 -2.89313
1.63088 -0.140807 -1.26385
1.60851 0.0109158 -1.9017
1.66347 -0.143881 0.00902107
1.6448 0.0140098 -0.638382
1.68357 -0.136218 1.2823
1.68051 0.0112249 0.631965
1.68679 -0.116067 2.41576
1.68797 0.032332 1.89615
1.68499 -0.0965698 3.41012
1.68647 0.0522926 2.89389
1.68368 0.0709524 3.88533
1.60124 0.147284 -2.39993
1.60134 0.420529 -2.88995
1.62243 0.165732 -1.27623
1.6045 0.449524 -1.90016
1.66183 0.169116 -0.0154375
1.6483 0.477788 -0.658006
1.6849 0.179775 1.24581
1.68145 0.488445 0.584611
1.68765 0.200692 2.37428
1.68778 0.507761 1.82769
1.68517 0.219815 3.3691
1.68568 0.527013 2.82609
1.68255 0.545245 3.82221
1.6046 0.722769 -2.39018
1.6209 1.16184 -2.89717
1.63037 0.761579 -1.28194
1.62805 1.19311 -1.90999
[...]
POINT_DATA 29498
VECTORS point_vectors float
-9.63984 -9.55242 14.1189
0.174833 0.238532 1.68239
-6.67373 5.24971 10.8075
0.426089 0.0949689 2.05112
9.65803 -9.54723 14.1172
-0.368683 0.369849 2.01908
6.67835 5.26074 10.8093
-0.384679 -0.0495034 2.12995
0.00142994 -1.89713e-05 0.0153016
-0.0014072 -0.00408883 0.27942
-0.352852 -0.307662 0.666603
0.00305013 0.0129823 0.0526678
0 0 0
0.00356386 -0.0037874 0.290018
0.452958 -0.394969 0.857152
-0.00189784 0.00801144 0.0316071
-0.635313 -0.225791 19.8557
-1.22157 -0.513874 20.4359
-0.519196 -0.310084 21.2175
-0.144244 -0.118628 21.3975
0.296797 0.136373 21.4462
0.592415 0.26068 21.1805
0.662186 0.217773 20.8067
-0.736994 -0.125966 19.7874
-1.53656 -0.371752 20.3962
-0.656476 -0.300873 21.2471
-0.169403 -0.136164 21.3992
0.350527 0.0933763 21.456
0.724529 0.157376 21.3623
0.830664 0.22019 21.2516
-0.744942 0.139684 19.7448
-1.62072 0.241645 20.3172
-1.01152 -0.135177 21.188
-0.37991 -0.167057 21.4997
0.314668 -0.162557 21.5055
0.685522 -0.208334 21.4093
0.926688 -0.229088 21.2429
-0.464323 0.340393 19.968
-0.788704 0.558166 20.3014
-0.795 0.421856 20.9396
-0.423112 0.140795 21.3649
0.0345821 -0.159003 21.4277
0.289916 -0.322166 21.2059
0.436488 -0.371321 20.8233
-0.685768 -0.588178 19.172
-2.59307 -3.50473 20.3842
-0.453859 -0.0347866 21.2538
-0.05221 0.0343931 20.5033
0.169666 0.686342 19.8826
0.424653 1.10666 19.3469
0.706593 1.21203 19.2021
-0.837955 -0.375856 18.8368
0.474139 1.36469 10.5413
1.45118 1.06371 13.1493
-0.856524 0.35386 18.7375
1.40858 0.535528 9.49255
1.81876 -0.713248 12.7507
-0.420191 0.657887 19.6152
-0.891297 1.47871 20.0559
-1.08934 1.38664 20.8804
-0.694609 0.687618 21.8449
-0.0215249 -0.280107 21.6727
0.24144 -0.650804 21.4134
0.320562 -0.871366 21.025
0.685736 -0.586835 19.1699
2.59864 -3.41058 20.387
0.463963 -0.0259884 21.3477
0.108751 0.0291622 20.5876
-0.225747 1.03461 20.1895
-0.575968 1.51214 19.7441
-0.807271 1.29318 19.6066
0.842954 -0.374585 18.8309
-1.22794 1.54094 12.3538
-1.71585 1.14435 14.5117
0.858491 0.356465 18.7364
-1.58466 -0.1881 10.4459
-1.94701 -0.970247 13.883
0.430049 0.650821 19.6263
0.91469 1.43719 20.0699
1.10388 1.35023 20.893
0.720779 0.674156 21.8648
0.064197 -0.349051 21.7083
-0.189494 -0.748844 21.3907
-0.263423 -0.913609 20.9396
0.644931 -0.22826 19.8641
1.22513 -0.515502 20.4451
0.525837 -0.310223 21.2257
0.146579 -0.111371 21.4284
-0.379184 0.177891 21.4873
-0.712815 0.282239 21.1398
-0.692852 0.24847 20.7778
0.74666 -0.129308 19.7888
1.55285 -0.375537 20.411
0.664252 -0.300881 21.2663
0.169227 -0.128618 21.4422
-0.460613 0.129623 21.5348
-0.846814 0.168389 21.3141
-0.83199 0.142555 21.1382
0.75136 0.141497 19.7503
1.63052 0.244395 20.3311
1.01692 -0.138163 21.2087
0.375961 -0.179486 21.5391
-0.40235 -0.207772 21.5751
-0.791375 -0.277264 21.3628
-0.913126 -0.354269 21.0954
0.463935 0.335401 19.9795
0.786791 0.539756 20.3117
0.796759 0.404733 20.9505
0.43057 0.124216 21.3871
-0.0428557 -0.208042 21.4488
-0.309019 -0.386336 21.1933
-0.449196 -0.420117 20.8217
-6.34773 0.129847 5.37157
0.00719263 -13.9888 6.92847
0.0137831 -0.000511661 0.16053
0.197434 0.0930896 1.41969
0.29633 -0.160973 -0.0259359
-0.00537157 0.00605891 0.224462
-0.00841881 2.76955 1.33093
-0.0319577 0.000228135 0.200497
0.0164782 0.0290353 -0.0187606
0.00799075 0.0162413 0.0656495
6.64353 0.0999893 5.57442
-0.0136261 -0.000440583 0.160832
-0.277366 -0.0380868 1.61488
0.0103886 0.0129407 0.349203
0.0472352 0.0014488 0.292568
-0.0164505 0.0420691 0.170817
0.00666719 0.000124532 0.12797
-4.44395e-18 7.63928e-18 -3.34366e-17
0 0 0
-0.00142792 0.00430102 0.0183959
1.03409e-07 -1.58277e-07 1.3573e-05
0.00387749 0.0177539 0.0726399
0.000321939 -0.000313387 -0.000429091
3.85628e-07 1.37729e-06 7.28868e-05
-0.00625511 0.000246457 0.132293
0 0 0
0 0 0
-0.00748197 0.0284012 0.105867
-2.59416e-05 -0.000126101 0.0010038
-4.51195e-05 0.000374279 0.00283281
1.1335e-06 7.55128e-05 0.000520657
1.22888e-08 4.78793e-08 -2.69357e-06
-6.52887e-08 -9.62818e-10 -4.62434e-06
5.78204e-06 -3.00591e-07 0.000109215
7.53191e-06 0.000116547 0.00195776
0.000175688 0.000281007 -4.90554e-05
1.39453e-05 0.000597 0.00550797
-0.000240757 0.186718 0.688002
0.000613693 -0.00254017 0.00676334
2.60236e-05 -0.000127492 0.00101569
2.00244e-05 0.000459734 0.00346304
-3.04523e-06 0.000225691 0.00168604
-3.09056 -1.17973 20.2559
-4.28821 -5.42728 20.2182
-2.09497 -1.30279 17.6306
0.622513 0.245459 21.1267
0.171412 0.912864 13.5384
0.019986 0.753379 7.93415
-3.2069 0.847129 20.129
-2.25546 1.23394 17.4608
-2.00599 2.59536 19.7572
0.619539 -0.289175 21.3414
0.713507 0.918125 6.67148
0.579009 -0.492082 18.8902
4.28936 -5.3264 20.2237
2.10342 -1.30718 17.6204
3.11082 -1.18541 20.259
-0.348537 1.28178 14.1846
-0.606075 1.17825 9.20029
-0.846108 0.326545 21.3215
2.25916 1.23964 17.4548
2.02745 2.52793 19.7797
3.21164 0.849181 20.138
-0.806313 0.102952 7.28581
-0.549708 -0.651353 18.8334
-0.767042 -0.391043 21.429
-0.560674 -0.621257 21.6057
0.544199 0.16716 16.7516
-0.120401 -0.260298 21.2455
0.208556 0.0113845 15.8474
-1.53724 -0.434067 21.4229
-2.3673 1.61045 20.7596
-0.50677 -0.435167 21.6204
-1.15357 0.481761 20.5969
-0.505614 0.181819 16.9209
0.563646 -0.610536 21.6203
-0.143427 -0.00607575 15.9248
0.139004 -0.239243 21.2664
2.37367 1.56229 20.778
1.54522 -0.447872 21.4345
1.17728 0.463861 20.5501
0.50382 -0.468682 21.6056
-0.970555 -0.380639 20.0123
-0.704883 -0.1803 19.8204
-0.714966 -0.359862 19.5937
-0.946375 -0.445034 21.0609
-1.37267 -0.465427 20.4237
-1.93232 -1.31856 20.4234
-0.30237 -0.214718 21.3089
-0.591627 -0.307683 21.2302
-0.43553 -0.373185 21.4852
0.0584292 -0.000583786 21.4397
-0.15619 -0.127247 21.3931
-0.0833291 -0.101064 21.4642
0.45673 0.220998 21.4146
0.320615 0.120479 21.4413
0.378411 0.371596 21.5112
0.660668 0.384697 21.2191
0.651218 0.216611 21.2849
0.782556 0.689757 21.3018
0.716719 0.270899 20.967
0.978685 0.608554 20.5729
-1.18503 -0.244772 19.8997
-0.759022 0.00357806 19.7433
-0.850225 -0.241696 19.3946
-1.16126 -0.374557 21.0956
-1.63926 -0.0458605 20.3587
-0.382405 -0.2374 21.3283
-0.840444 -0.261276 21.2347
0.076265 -0.0253003 21.496
-0.270469 -0.182088 21.4778
0.532135 0.133718 21.476
0.365209 -0.0391345 21.5011
0.757933 0.18439 20.823
0.745226 -0.0263915 21.3985
1.16551 0.444369 21.1589
0.990502 0.00353469 21.3615
1.52852 0.326041 19.7714
-1.22114 0.211275 19.8515
-0.619215 0.29528 19.8458
-0.887895 0.223273 19.3458
-1.39612 0.0726039 20.9779
-1.19071 0.528104 20.2826
-0.725299 -0.192703 21.3794
-1.02599 0.229939 21.0486
-0.011172 -0.134334 21.5747
-0.487198 -0.000314264 21.4783
0.520471 -0.184143 21.4961
0.177056 -0.201975 21.4911
0.849994 -0.29601 20.7212
0.462428 -0.349886 21.1924
1.15597 -0.376542 21.2457
0.63309 -0.39631 20.6953
1.53207 -0.603977 20.3097
-0.618905 0.454255 20.0948
-0.495836 0.475645 19.8072
-0.832847 0.531271 20.6593
-0.933665 0.945189 20.1934
-0.667133 0.302441 21.1913
-1.05456 0.784403 20.9562
-0.166254 -0.0110808 21.4144
-0.613692 0.333076 21.5832
0.196476 -0.24321 21.2468
0.0244217 -0.217255 21.5173
0.413807 -0.396272 21.0766
0.323447 -0.505773 21.1931
0.50536 -0.543498 21.0184
-1.44282 -1.59538 18.8217
-0.776347 -0.532094 18.9978
-0.000297466 -0.839633 18.7213
-1.40917 -0.946912 22.4017
0.0258893 -6.19482 20.0489
-0.0922305 0.0890443 20.7172
0.0222393 -0.633263 16.3143
0.0342979 0.210941 20.2288
0.0265184 -0.349493 13.2051
0.228551 0.835746 19.779
0.477248 0.0360647 11.7226
0.756554 1.36572 19.5129
0.671483 1.21337 15.7956
1.1254 0.378306 11.3263
0.963259 1.25368 15.9063
0.19977 1.22634 10.9128
-0.894712 -0.0331272 18.6816
-0.000132127 -0.556395 18.1704
1.26704 1.99227 11.9073
0.556211 1.25339 6.16274
-0.0895413 -0.931326 -3.20708
2.1599 0.761573 12.0724
-0.434417 -0.190225 -0.00689239
-0.649596 0.663433 19.1988
0.000999325 0.50806 18.0584
2.37769 -0.296369 11.5527
0.819792 -0.90853 19.5721
-0.611567 -0.559214 -1.26341
1.05343 -1.36598 19.5704
-0.193544 -1.15391 2.69623
-0.664104 1.09118 19.6786
0.00920499 0.839418 19.4037
-1.01728 1.45159 20.59
0.0234948 2.08847 19.8258
-1.08229 1.27381 21.4512
0.0258439 2.25516 20.7435
-0.283372 0.107376 21.8573
0.0176503 1.29575 22.2218
0.116528 -0.467473 21.5296
0.0437875 -0.147448 21.8757
0.337591 -0.789021 21.1537
0.0597577 -0.690068 21.6498
0.0206646 -1.11874 21.0772
1.44836 -1.58194 18.8349
0.781531 -0.528319 18.9937
0.72515 -0.366084 19.5766
1.40407 -0.926272 22.3801
1.92742 -1.29691 20.4243
0.125055 0.104516 20.8136
0.454378 -0.362683 21.4907
0.0320137 0.253989 20.4246
0.109735 -0.0857786 21.4973
-0.376923 1.29997 20.1182
-0.511617 0.517756 21.6159
-0.85177 1.55527 19.7727
-0.992862 1.63668 16.899
-0.928967 0.784568 21.2569
-1.10799 1.32438 17.0454
-0.979864 0.598578 20.6393
0.900488 -0.0321826 18.6763
0.854968 -0.244565 19.3892
-1.61095 1.89894 13.8695
-1.43258 0.74796 8.19039
-1.40999 0.497306 21.1213
-2.38923 0.515031 13.6693
-1.62677 0.383375 19.8679
0.659045 0.660292 19.2062
0.89261 0.224124 19.3414
-2.37993 -0.623481 12.3665
-0.771329 -1.19454 19.6459
-1.36459 -0.554163 21.2427
-0.925641 -1.27297 19.8631
-1.50677 -0.500701 20.4238
0.677159 1.06867 19.6971
0.500403 0.468171 19.8197
1.03043 1.40836 20.599
0.933114 0.90961 20.2139
1.10214 1.25234 21.4583
1.05034 0.751363 20.967
0.317012 0.0755311 21.8899
0.630037 0.317194 21.6057
-0.0735744 -0.566084 21.5442
-0.0191513 -0.282741 21.5515
-0.284387 -0.852418 21.1348
-0.312392 -0.596977 21.2103
-0.393324 -0.564199 20.9721
0.973071 -0.384629 20.019
0.711883 -0.181724 19.8292
0.953512 -0.446798 21.0662
1.37844 -0.470112 20.4369
0.311377 -0.21307 21.3279
0.598858 -0.306159 21.2421
-0.0864831 0.0223138 21.5146
0.157574 -0.119534 21.43
-0.560585 0.282809 21.3966
-0.415497 0.162377 21.5037
-0.695231 0.407042 21.1907
-0.768519 0.238093 21.2374
-0.716273 0.270992 20.9613
1.19888 -0.244614 19.9092
0.768439 -0.00128884 19.7462
1.17534 -0.376193 21.1129
1.65583 -0.0488119 20.3724
0.385512 -0.234043 21.3554
0.845756 -0.267274 21.26
-0.104837 -0.0182972 21.5543
0.265712 -0.184488 21.5182
-0.673359 0.161354 21.4732
-0.475853 -0.0498153 21.5795
-0.813023 0.231375 20.8148
-0.87666 -0.049608 21.3422
-1.01703 -0.0716623 21.1424
1.23153 0.211042 19.8597
0.622887 0.290259 19.8564
1.40499 0.0720472 20.9933
1.18513 0.518676 20.2964
0.728287 -0.201628 21.4064
1.02639 0.225198 21.0626
-0.0177354 -0.1531 21.6364
0.491679 -0.0186734 21.5085
-0.643442 -0.248025 21.511
-0.216999 -0.262934 21.5317
-0.91143 -0.286038 20.7539
-0.534797 -0.413801 21.2118
-0.639973 -0.459022 20.7032
0.616267 0.441778 20.1085
0.832758 0.514092 20.6676
0.671886 0.289301 21.2038
0.168276 -0.0385541 21.4427
-0.210683 -0.301909 21.2658
-0.407779 -0.443622 21.0652
-1.0817 -0.335506 19.963
-1.83596 -1.6371 18.2634
-1.32387 -0.798066 19.6057
-1.76749 -0.596719 19.2398
-0.806501 -0.315944 19.4856
-2.50639 -1.35027 20.3686
-1.05407 -0.421425 21.0718
-0.399371 -0.0925549 18.5957
-1.10247 -0.803248 21.4929
-1.59714 -0.896473 21.8474
-0.459364 -0.490593 21.5361
-0.340384 -0.227684 21.3238
0.543982 0.103023 16.175
-0.186234 -0.228053 21.4326
-0.254465 -0.468649 21.2777
-0.0817789 -0.172657 21.4007
0.0650224 -0.0112643 21.466
0.0823712 0.229939 14.7613
0.0928592 0.107136 21.5582
0.148443 0.00091292 21.2988
0.513067 0.325414 21.4082
0.489415 0.182295 21.4463
0.348228 0.943388 14.4875
0.525982 0.513356 21.3936
0.845645 0.339895 21.101
0.950143 0.593316 21.0774
0.692659 0.285198 21.0149
1.02531 1.76089 15.5029
0.919937 0.692682 20.9072
1.41778 0.335093 21.3003
1.25702 0.467701 20.1636
-1.23575 -0.0164242 19.8537
-2.47282 -0.0423273 16.9997
-1.83455 0.483808 19.1676
-0.92827 -0.0184051 19.3156
-3.64804 -0.124517 20.1519
-1.33807 -0.163459 21.0588
-2.19928 0.19725 21.4349
-0.96042 -0.667782 21.6482
-0.537927 -0.27543 21.3659
-1.11872 -0.604147 21.6336
-0.252457 -0.353618 21.3349
0.051507 -0.0932483 21.55
0.0791177 -0.295115 21.5196
0.682668 -0.00912542 21.1287
0.578202 -0.0266812 21.4696
-0.249276 0.957168 3.75281
0.870151 -0.335503 21.2305
1.35528 0.0981028 21.0144
0.878979 -0.0108455 20.9365
2.13316 0.837057 10.6581
1.36448 -0.474199 21.4927
1.65074 -0.181099 19.7623
-0.919263 0.438453 19.9556
-1.24918 1.48632 18.9672
-0.734676 0.723448 19.8957
-0.69258 0.440707 19.58
-1.73539 1.17963 20.1144
-1.18054 0.424269 20.7711
-2.02722 1.84611 20.8842
-1.03534 0.911461 20.6425
-1.64775 0.500269 21.0697
-0.824045 0.101099 21.3173
-3.11651 1.75783 21.8085
-0.936396 0.634343 21.3225
-0.84431 0.0596599 21.8071
-0.121449 -0.102334 21.5223
0.225905 -0.00671425 19.1268
-0.248674 0.0306135 21.6167
0.215513 -0.361375 21.6788
0.36066 -0.29924 21.384
0.628189 -0.619542 19.0734
0.185082 -0.352521 21.4162
0.64747 -0.693618 21.5517
0.54573 -0.425973 21.1773
0.975366 -1.29578 19.6358
0.422913 -0.604856 20.9801
0.726383 -0.737127 21.1352
1.84157 -1.62582 18.2703
0.00853711 -2.51618 17.8581
0.00199847 -2.13001 15.7612
0.00288966 -0.765447 18.4233
0.0282653 -10.1346 19.6706
0.422135 -0.083307 18.7498
0.0248191 -2.33972 21.7622
0.0219382 -0.0338116 4.61171
-0.495885 0.123198 16.3381
0.0247124 -0.343824 14.0189
0.0223755 -0.157185 5.32461
0.0472851 0.223697 14.8719
0.108659 -0.211798 12.4161
0.874767 0.0317521 3.95144
-0.688587 1.45835 15.5083
0.705902 0.140179 11.8015
1.05607 -0.183949 -2.64995
0.93777 -0.0821575 2.18742
-1.25696 1.79474 16.662
0.465029 1.06611 10.7576
-0.425496 -0.00841016 -2.71811
-0.0130848 0.872263 4.75608
2.47739 -0.0424822 16.9901
0.00106569 2.07627 15.4426
0.000991617 -0.0350379 17.9329
-0.39333 0.486285 5.11715
0.0096151 0.46017 -0.770776
-1.28902 -1.17698 -3.56305
-2.32534 0.584753 12.1609
-0.348481 -0.853216 -0.580094
-1.76831 -2.48918 -2.52104
1.26301 1.468 18.9867
0.0165457 1.46142 19.41
0.00561487 0.90504 18.7838
0.0269277 4.39693 19.2787
2.03882 1.80281 20.889
0.0243101 2.16687 20.5096
0.031114 3.47901 20.2148
3.13744 1.72969 21.8411
0.0206197 2.33727 21.5716
0.0229951 1.25209 19.1698
-0.190035 -0.0643841 19.152
0.0277631 0.36461 22.1356
0.158936 -0.194411 10.5061
-0.606525 -0.916936 19.1811
0.0531465 -0.416116 21.656
0.290919 -0.691892 13.1886
-0.863695 -1.48306 19.8061
0.0660892 -0.98118 21.373
0.0949492 -1.32553 15.3898
1.08464 -0.339102 19.9784
1.33056 -0.800131 19.5996
1.78115 -0.603212 19.2301
0.81196 -0.319252 19.4937
2.5039 -1.33747 20.3738
1.06463 -0.423214 21.0801
1.11436 -0.788762 21.4826
1.61182 -0.895374 21.8644
0.476489 -0.47841 21.5514
0.340663 -0.221648 21.3512
0.200666 -0.213681 21.4466
0.25185 -0.44885 21.287
0.109229 -0.154834 21.4463
-0.0917486 0.00309899 21.53
-0.100608 0.16066 21.662
-0.174092 0.03552 21.4299
-0.694088 0.451195 21.5599
-0.608492 0.229411 21.4333
-0.704073 0.697713 21.4205
-1.16976 0.448126 21.1872
-1.16232 0.682336 21.035
-0.739872 0.318715 20.9933
-1.0282 0.739286 20.8549
-1.50151 0.407499 21.1658
-1.307 0.491191 20.247
1.25544 -0.0197461 19.8581
1.84565 0.485903 19.1642
0.937907 -0.0171837 19.3073
3.67214 -0.121375 20.1608
1.34909 -0.166409 21.0796
2.20953 0.194293 21.4503
0.955422 -0.670121 21.6644
0.535412 -0.279307 21.3947
1.12098 -0.636336 21.6484
0.244446 -0.34581 21.2854
-0.0852297 -0.0996909 21.6186
-0.104382 -0.333797 21.5788
-0.902171 -0.0466741 21.335
-0.731625 -0.0508457 21.4837
-1.11248 -0.494941 21.2539
-1.66602 -0.0257079 20.9987
-0.952879 -0.0186475 20.898
-1.48019 -0.573259 21.4644
-1.70038 -0.0458507 19.9561
0.918157 0.434025 19.9682
0.741491 0.706584 19.914
0.6963 0.438807 19.5868
1.72353 1.15389 20.1263
1.1788 0.419164 20.782
1.03559 0.877602 20.6525
1.63914 0.487461 21.0811
0.831602 0.0898996 21.3362
0.944218 0.616488 21.3343
0.861177 0.037532 21.844
0.109895 -0.13645 21.5666
0.264039 -0.00276743 21.6514
-0.251495 -0.46741 21.7489
-0.412173 -0.392582 21.405
-0.183528 -0.437273 21.4357
-0.68603 -0.832547 21.5221
-0.550519 -0.491223 21.1165
-0.412899 -0.647591 20.9915
-0.77662 -0.824882 20.9843
-1.56778 -0.721784 19.4215
-1.28861 -0.879831 21.6473
-0.188154 -0.327715 21.3999
0.135086 0.0656902 21.4509
0.728739 0.452478 21.2505
1.1659 0.528556 21.1229
-2.0069 -0.0696406 19.0505
-2.06663 -0.430753 21.7895
-0.55065 -0.620341 21.3622
0.152974 -0.115319 21.309
0.961001 0.0211234 20.9384
1.47622 -0.0956809 21.3372
-1.19852 0.819097 19.592
-1.67742 0.85867 20.8522
-1.50542 0.281052 21.5526
-0.234215 -0.147344 21.8426
0.439565 -0.495299 21.5346
0.699598 -0.798006 21.3069
0.00735133 -2.73433 16.8552
0.00331933 -0.480668 7.58651
0.0269862 -0.031481 4.91686
0.16298 -0.060505 5.66402
1.38264 -0.0575889 3.00899
0.279872 0.776775 3.15533
0.000842545 -0.0632581 14.6333
-0.406519 -0.217195 -2.629
-1.43705 -2.21605 -3.83211
0.0137898 2.27054 18.2212
0.0280845 3.38672 20.8348
0.0169426 4.56962 21.3087
0.0578618 -0.0364936 15.4096
0.298292 -0.289899 11.6778
0.201018 -1.38046 15.1359
1.57653 -0.72503 19.4242
1.30531 -0.86985 21.648
0.200397 -0.307679 21.428
-0.151333 0.113313 21.5828
-0.990998 0.607875 21.305
-1.26077 0.587363 21.031
2.02371 -0.0700809 19.0453
2.07648 -0.428104 21.8151
0.530369 -0.624305 21.3455
-0.191908 -0.119088 21.4293
-1.33595 -0.0526903 21.053
-1.60388 -0.10518 21.2509
1.19753 0.809194 19.6056
1.66983 0.8408 20.8567
1.51252 0.266804 21.5682
0.237617 -0.193855 21.904
-0.508072 -0.645749 21.5629
-0.733786 -0.871864 21.2517
-5.0692 -1.2116 1.48741
-1.32311 -12.7434 6.33934
0.0297343 -0.00119922 0.231104
0.0085449 0.0330888 0.099822
-0.260564 -0.3513 -0.0365718
-0.0143684 0.0288242 0.695211
-2.04305 0.420455 0.924675
-0.32351 2.65761 1.23338
-0.244708 0.0215795 1.73512
0.115913 0.0828223 0.45782
0.0122822 0.0303396 -0.0240454
0.0411602 0.0871686 0.448659
1.46737 -13.1364 6.70617
4.99712 -1.22586 1.31239
-0.0286352 -0.00105692 0.231712
0.542707 -0.0129726 0.174646
-0.0313588 0.0263697 0.119702
0.0111023 0.0590666 1.18088
0.335618 2.65564 1.23856
1.99439 0.407202 0.891794
0.232659 0.0162345 1.62627
0.015327 0.00936328 -0.00808979
-0.161812 0.066966 0.650011
-0.0286722 0.0562489 0.364563
0.0389592 -0.00916982 0.31433
0.00592404 -0.000139751 0.0703089
0.0169905 -0.00526358 0.224051
0.00124641 4.0938e-05 0.00222036
-0.00184699 -0.000891117 0.164665
0.00587381 0.00071044 0.26605
0 0 0
0.0301223 -0.000903403 0.190155
-0.148255 -0.10386 0.594096
0 0 0
-0.000271646 -0.000193634 0.00526488
0 0 0
0.00115814 0.0037264 0.016114
0.000708076 0.0118416 0.0397722
0.00315493 0.0140556 0.065765
0 0 0
-0.0398102 -0.010295 0.334319
0 0 0
-0.00586244 -0.000102002 0.0727866
-0.0177246 -0.00498104 0.229909
0 0 0
-1.72992e-17 -1.78634e-18 9.11476e-17
-0.00353602 0.00083871 0.221087
-5.51684e-19 -1.79277e-18 -1.80897e-17
0.137405 -0.0954747 0.551326
0 0 0
0 0 0
0 0 0
0 0 0
0 0 0
1.81665e-05 0.00168734 0.00538609
-0.00256487 0.0109359 0.0504111
0 0 0
-0.00665782 8.12403e-05 0.00563868
-3.55025e-08 -3.4826e-07 -3.62362e-06
0.00342523 -1.40617 0.592607
-9.58689e-06 -7.03243e-05 0.000589024
0.00795562 0.000344029 -0.00733479
0.029499 0.0353764 0.229315
-0.000386333 0.000900376 -0.00026522
-2.48494e-05 -2.45684e-07 -0.000184696
-3.33803e-05 8.6917e-06 4.56593e-06
1.58438e-06 9.13736e-05 0.000709494
0.00272305 -0.000265121 0.0420701
0 0 0
5.88592e-05 0.00531764 0.0369901
-0.00524671 -0.0134416 0.0793128
-0.00287267 0.00218091 0.0211775
-9.38243e-19 -7.63667e-19 6.08735e-19
-6.51641e-06 -9.44183e-06 2.2076e-05
0.00125633 0.0107571 0.0512477
-0.000974826 -0.00573207 0.0149578
0.00661527 5.03624e-05 0.00558624
0 0 0
-1.11122e-06 3.1719e-08 -1.273e-06
9.79257e-06 -6.96894e-05 0.000589641
0.000272866 0.000124896 -2.64574e-05
-0.0193095 0.0259827 0.191548
2.12597e-07 -1.59438e-07 9.29838e-05
-2.34274e-06 0.000104879 0.00088591
0.00256671 0.00188512 0.0183648
0.00539081 -0.0138611 0.0815041
0.00210636 -0.00598502 0.0156373
-0.00124946 0.0111071 0.0593688
0 0 0
0.0297538 -0.00343557 0.129178
-2.12328e-06 -0.000107363 0.00104577
-5.84117e-07 -9.73918e-05 0.00890634
0 0 0
-1.12688e-08 -2.61039e-09 -4.45463e-07
-0.00027774 0.00240861 0.013626
-0.000580166 0.0026794 0.0195619
-8.57832e-08 1.17498e-08 -1.05451e-05
1.23254e-05 -1.86277e-05 0.000700156
0.000102105 0.00741311 0.0402688
-0.0588936 0.195028 0.724163
0.000143335 0.000258234 0.00374102
-1.44481e-07 0.00299398 0.00707691
4.95503e-07 8.12886e-06 0.00020937
1.64279e-06 1.80021e-06 0.000199713