# vtk DataFile Version 2.0
tri_press
ASCII
DATASET UNSTRUCTURED_GRID
POINTS 3682 float
-0.785 0.165 -1.91033
-0.845 0.195 1.88996
-0.785 0.715 -1.88041
-0.848908 0.825 1.775
0.785 0.165 -1.91033
0.845 0.195 1.88996
0.785 0.715 -1.88041
0.843287 0.825 1.775
-0.816922 0.163078 -0.643567
-0.846816 0.163184 0.623197
-0.835239 0.780603 -0.66194
-0.850346 0.811074 0.55653
0.816925 0.163075 -0.643567
0.84682 0.16318 0.623197
0.835735 0.782973 -0.66194
0.845501 0.809977 0.55653
-1.61097 -0.1627 -2.89193
-1.61062 -0.140783 -1.89786
-1.64099 -0.141783 -0.629845
-1.67552 -0.146274 0.647887
-1.6858 -0.126051 1.91672
-1.68523 -0.105985 2.9148
-1.68369 -0.0870714 3.90545
-1.6075 0.131881 -2.89433
-1.60668 0.161211 -1.90553
-1.64535 0.168837 -0.646918
-1.68298 0.169026 0.616044
-1.6896 0.190833 1.87558
-1.68805 0.210677 2.87298
-1.68606 0.229069 3.86521
-1.60813 0.707646 -2.88558
-1.6098 0.735771 -1.89479
-1.65745 0.784131 -0.669093
-1.68807 0.808786 0.553178
-1.69337 0.825009 1.7798
-1.69139 0.843538 2.77919
-1.68906 0.861568 3.77921
-1.62259 1.61403 -2.90876
-1.62843 1.64788 -1.9252
-1.65199 1.70195 -0.715168
-1.6757 1.74657 0.484459
-1.68673 1.77464 1.695
-1.68873 1.79197 2.67961
-1.68836 1.80852 3.67436
-0.800574 -0.160732 -2.89504
-0.79246 -0.137522 -1.9024
-0.812392 -0.144227 -0.629235
-0.837254 -0.150668 0.653992
-0.843408 -0.125124 1.92739
-0.84273 -0.10524 2.92204
-0.84207 -0.0869234 3.90964
-0.799284 0.131311 -2.89529
-0.844522 0.211992 2.87895
-0.843846 0.229458 3.86837
-0.798972 0.698835 -2.8796
-0.84769 0.84408 2.77823
-0.846702 0.861959 3.779
-0.803645 1.60795 -2.90285
-0.804215 1.64213 -1.9187
-0.820426 1.70035 -0.711246
-0.838666 1.74779 0.483988
-0.84681 1.77593 1.69164
-0.848169 1.79282 2.67625
-0.848052 1.8091 3.67192
0.800733 -0.160488 -2.89504
0.804655 -0.137394 -1.9024
0.826525 -0.144167 -0.629235
0.845551 -0.150676 0.653992
0.845108 -0.125135 1.92739
0.844296 -0.105258 2.92204
0.842578 -0.0869431 3.90964
0.792652 0.131526 -2.89529
0.844009 0.211974 2.87895
0.841978 0.229431 3.86837
0.794186 0.699124 -2.8796
0.841686 0.844034 2.77823
0.839565 0.861912 3.779
0.824315 1.60853 -2.90285
0.832185 1.64283 -1.9187
0.838418 1.70098 -0.711246
0.837841 1.74787 0.483988
0.836289 1.77582 1.69164
0.835292 1.79274 2.67625
0.834143 1.80905 3.67192
1.60916 -0.162065 -2.89193
1.61462 -0.140184 -1.89786
1.64713 -0.141429 -0.629845
1.67982 -0.146334 0.647887
1.68733 -0.126103 1.91672
1.68625 -0.106031 2.9148
1.68372 -0.0871088 3.90545
1.60009 0.132553 -2.89433
1.6024 0.162016 -1.90553
1.64247 0.169449 -0.646919
1.6812 0.168783 0.616044
1.6886 0.190767 1.87558
1.6867 0.210616 2.87298
1.68364 0.229014 3.86521
1.6026 0.708506 -2.88558
1.60661 0.737031 -1.89479
1.65413 0.786127 -0.669093
1.68169 0.808106 0.553178
1.68696 0.824755 1.7798
1.68467 0.84341 2.77919
1.68146 0.861476 3.77921
1.6392 1.61516 -2.90876
1.64949 1.64919 -1.9252
1.66485 1.70307 -0.715168
1.67364 1.74679 0.484458
1.67632 1.77449 1.695
1.67592 1.79185 2.67961
1.67443 1.80845 3.67436
-0.800995 0.44 -1.91136
0 0.165919 -1.90941
-0.801994 0.163006 -1.27695
-0.896554 0.51 1.88208
0 0.193873 1.89109
-0.862548 0.162452 1.25658
0 0.691197 -1.85661
-0.828886 0.766568 -1.27118
-0.00281051 0.825277 1.77528
-0.842567 0.810977 1.16577
0.801866 0.44 -1.91224
0.801995 0.163005 -1.27695
0.895886 0.51 1.88422
0.866927 0.158073 1.25658
0.828315 0.766934 -1.27118
0.845435 0.818529 1.16577
-0.831867 0.163133 -0.010185
-0.876195 0.471841 -0.652753
1.59038e-06 0.160512 -0.643567
-0.882066 0.487129 0.589863
2.01515e-06 0.160521 0.623197
-0.845921 0.798967 -0.052705
0.000247957 0.849574 -0.66194
-0.00242214 1.16991 0.55653
0.831869 0.163131 -0.010185
0.875845 0.473024 -0.652753
0.875445 0.486578 0.589863
0.84452 0.800376 -0.052705
-0.89777 0.45592 -1.27406
0.897759 0.456512 -1.27406
7.95192e-07 0.160499 -1.27695
0.000123978 0.80577 -1.27118
0 0.44 -1.9478
-0.872485 0.479485 -0.031445
0.869462 0.479801 -0.031445
1.80277e-06 0.160516 -0.010185
-0.00108709 1.14715 -0.052705
-0.897634 0.498564 1.21117
0.897741 0.498289 1.21117
1.00757e-06 0.116862 1.25658
-0.00261632 1.12661 1.16577
-0.00140525 0.51 1.94773
-0.756902 0.3025 -1.87475
-0.3925 0.165849 -1.90948
-0.794436 0.163064 -1.59364
-0.855428 0.3525 1.87067
-0.4225 0.200614 1.88435
-0.870138 0.162362 1.57327
-0.756415 0.5775 -1.8593
-0.3925 0.691403 -1.85681
-0.807949 0.74179 -1.57579
-0.849335 0.6675 1.80514
-0.425859 0.82527 1.77527
-0.84882 0.821071 1.47038
0.3925 0.165778 -1.90955
0.756665 0.3025 -1.87452
0.794436 0.163064 -1.59364
0.4225 0.194061 1.8909
0.854931 0.3525 1.87158
0.874571 0.157929 1.57327
0.3925 0.691399 -1.85681
0.756415 0.5775 -1.8593
0.807312 0.741622 -1.57579
0.420238 0.825284 1.77528
0.843296 0.6675 1.80332
0.843225 0.820629 1.47038
-0.809286 0.163214 -0.960258
-0.824396 0.163104 -0.326876
-0.887522 0.296978 -0.64816
-0.415221 0.148274 -0.643567
-0.856148 0.161352 0.939888
-0.839337 0.163163 0.306506
-0.860663 0.327045 0.60653
-0.434773 0.139121 0.623197
-0.837281 0.778804 -0.966558
-0.869857 0.633292 -0.657347
-0.842715 0.79192 -0.357323
-0.425719 0.831535 -0.66194
-0.848776 0.813345 0.861148
-0.879943 0.65597 0.573197
-0.848058 0.804945 0.251913
-0.516082 1.16989 0.55653
0.81015 0.16235 -0.960258
0.408432 0.161856 -0.643567
0.824397 0.163104 -0.326876
0.887515 0.297484 -0.64816
0.862252 0.155248 0.939888
0.423379 0.161914 0.623197
0.839343 0.163157 0.306506
0.852054 0.329418 0.60653
0.836313 0.779241 -0.966558
0.425201 0.830691 -0.66194
0.869766 0.634986 -0.657347
0.840445 0.791992 -0.357323
0.843221 0.812006 0.861148
0.51151 1.16989 0.55653
0.873677 0.65488 0.573197
0.845014 0.80518 0.251913
-0.840574 0.44796 -1.59271
-0.400497 0.44 -1.93912
3.97596e-07 0.160549 -1.59318
0 0.30296 -1.88555
-0.899701 0.309463 -1.27551
-0.400996 0.15499 -1.27695
-0.895646 0.504282 1.54663
-0.44898 0.51 1.93822
5.03787e-07 0.116989 1.57383
-0.000702627 0.351937 1.89413
-0.899673 0.330508 1.23388
-0.431273 0.113256 1.25658
6.19892e-05 0.774576 -1.56389
0 0.565599 -1.85443
-0.895704 0.611244 -1.27262
-0.414381 0.805863 -1.27118
-0.00271342 0.99235 1.47052
-0.00210788 0.667639 1.80477
-0.895585 0.65477 1.18847
-0.422591 1.12661 1.16577
0.838279 0.448256 -1.59315
0.400933 0.44 -1.9391
0.899695 0.309759 -1.27551
0.400998 0.160499 -1.27695
0.895736 0.504145 1.5477
0.447241 0.51 1.93952
0.899702 0.328181 1.23388
0.433464 0.116756 1.25658
0.895694 0.611723 -1.27262
0.414219 0.805768 -1.27118
0.895673 0.658409 1.18847
0.421409 1.12661 1.16577
-0.844199 0.325297 -0.020815
-0.424932 0.143826 -0.010185
-0.897774 0.463881 -0.963408
-0.868954 0.475663 -0.342099
1.19279e-06 0.155998 -0.960258
1.69658e-06 0.160514 -0.326876
-0.876036 0.483307 0.279209
-0.893651 0.492847 0.900518
1.90896e-06 0.160518 0.306506
1.51136e-06 0.116967 0.939888
-0.872388 0.645819 -0.042075
-0.510527 1.1471 -0.052705
0.000185968 0.81761 -0.966558
-0.000419567 0.996695 -0.357323
-0.00175462 1.16719 0.251913
-0.00251923 1.17271 0.861148
0.843831 0.324883 -0.020815
0.415905 0.161885 -0.010185
0.897758 0.464768 -0.963408
0.867469 0.476413 -0.342099
0.871542 0.48319 0.279209
0.89543 0.492434 0.900518
0.86967 0.646428 -0.042075
0.508387 1.1471 -0.052705
-0.879381 0.305982 -1.59318
-0.899749 0.313461 -0.961833
-0.895725 0.618733 -0.964983
-0.826258 0.594372 -1.58425
0.87944 0.306129 -1.59339
0.82956 0.594611 -1.58447
0.895705 0.619861 -0.964983
0.899741 0.313904 -0.961833
-0.396748 0.15501 -1.59341
0.396749 0.160549 -1.59341
0.40473 0.154516 -0.960258
-0.404728 0.151744 -0.960258
-0.40344 0.773701 -1.56984
-0.415938 0.817656 -0.966558
0.416105 0.817654 -0.966558
0.40336 0.773698 -1.56984
-0.396499 0.30273 -1.8739
-0.396499 0.571549 -1.85753
0.396717 0.571549 -1.85753
0.396717 0.30273 -1.87395
-0.845492 0.321322 -0.334488
-0.849196 0.327789 0.292858
-0.875799 0.650711 0.265561
-0.869361 0.638674 -0.349711
0.844849 0.321596 -0.334488
0.868092 0.639894 -0.349711
0.871394 0.650514 0.265561
0.844531 0.328856 0.292858
-0.419943 0.146317 -0.326876
0.412168 0.161871 -0.326876
0.419642 0.1619 0.306506
-0.429907 0.141363 0.306506
-0.468754 0.990582 -0.357323
-0.517625 1.16714 0.251913
0.514267 1.16713 0.251913
0.465649 0.986608 -0.357323
-0.898278 0.327832 0.920203
-0.898109 0.341504 1.55995
-0.861119 0.661135 1.5085
-0.887452 0.651936 0.880833
0.898398 0.32653 0.920203
0.888555 0.653343 0.880833
0.860139 0.662955 1.50904
0.898199 0.340341 1.56048
-0.42734 0.115977 0.939888
0.428438 0.116887 0.939888
0.427982 0.116915 1.57355
-0.426887 0.138467 1.57355
-0.424488 1.17271 0.861148
-0.424225 0.992381 1.47045
0.420824 0.992418 1.47045
0.421474 1.17271 0.861148
-0.43574 0.352218 1.89407
0.43487 0.352218 1.89407
0.433739 0.667569 1.83848
-0.437419 0.667569 1.83848
-0.754989 0.23375 -1.87658
-0.58875 0.166282 -1.90905
-0.790589 0.163162 -1.75198
-0.834225 0.27375 1.86433
-0.63375 0.193823 1.89114
-0.871031 0.165219 1.73161
-0.759932 0.64625 -1.85908
-0.58875 0.691418 -1.85683
-0.797162 0.729082 -1.7281
-0.84897 0.74625 1.78992
-0.637384 0.825267 1.77527
-0.84907 0.823241 1.62269
0.58875 0.165779 -1.90955
0.754989 0.23375 -1.87658
0.790589 0.163162 -1.75198
0.63375 0.194058 1.8909
0.833328 0.27375 1.86413
0.871158 0.165092 1.73161
0.58875 0.69141 -1.85682
0.759932 0.64625 -1.85908
0.797145 0.729299 -1.7281
0.631763 0.825287 1.77529
0.842974 0.74625 1.78884
0.843182 0.822741 1.62269
-0.81302 0.16323 -0.801912
-0.820659 0.163091 -0.485221
-0.892214 0.210032 -0.645863
-0.612678 0.162462 -0.643567
-0.849068 0.164682 0.781542
-0.843083 0.163167 0.464851
-0.876778 0.233595 0.614863
-0.635101 0.16254 0.623197
-0.837229 0.780672 -0.814249
-0.86199 0.711669 -0.659643
-0.844617 0.791902 -0.509631
-0.634455 0.814021 -0.66194
-0.848844 0.811493 0.708839
-0.868645 0.735272 0.564863
-0.847733 0.80654 0.404221
-0.750296 1.12465 0.55653
0.814394 0.161856 -0.801912
0.612681 0.16246 -0.643567
0.820663 0.163088 -0.485221
0.892208 0.210286 -0.645863
0.854141 0.159609 0.781542
0.635103 0.16254 0.623197
0.843084 0.163166 0.464851
0.874127 0.233954 0.614863
0.835366 0.780449 -0.814249
[...]
POINT_DATA 3682
SCALARS point_scalars float 1
LOOKUP_TABLE default
-57.9347
-42.5123
-24.7862
-45.0431
-58.3913
-51.39
-25.0893
-49.7129
-38.3656
-27.8284
-30.3542
-44.4754
-39.3616
-27.3009
-30.9562
-45.3024
-124.843
-114.543
-36.6953
-31.4085
-45.523
-42.6742
-40.8203
-124.843
-94.7672
-36.6953
-29.7002
-45.4329
-40.8203
-37.8503
-62.8006
-158.499
-39.5605
-40.5084
-43.7514
-41.3172
-41.3172
-24.7862
-90.8259
-42.5167
-56.9729
-48.9591
-45.0442
-45.0442
19.1783
-135.431
-38.116
-27.6844
-42.3687
-39.202
-39.202
19.1783
-33.8978
-33.7094
143.439
-35.9453
-34.6477
-24.7862
-137.947
-12.7936
-60.8384
-51.7621
-45.0442
-45.0442
18.7706
-137.783
-39.0827
-26.7924
-50.429
-48.741
-48.741
18.7706
-41.8081
-41.5833
141.762
-42.0715
-41.6468
-25.0893
-137.798
-15.5618
-61.4264
-53.8894
-50.3083
-50.3083
-125.331
-114.851
-37.5054
-31.2148
-52.9892
-51.4832
-49.6901
-125.331
-96.9054
-37.5054
-29.6943
-52.7194
-49.6901
-45.9619
-60.1616
-177.537
-40.05
-40.7063
-46.6376
-48.5073
-48.5073
-25.0893
-91.7413
-47.6565
-57.55
-55.002
-50.3083
-50.3083
-13.27
-39.933
-60.2655
-41.4691
-34.6532
-35.4312
18.7557
-42.7285
-41.3172
-47.5104
-13.7823
-60.4252
-49.2544
-40.651
-42.9654
-49.5192
-31.3565
-38.3982
-44.9233
-34.4796
-30.2981
-48.6826
-0.00883741
-70.1342
-31.5755
-39.2095
-34.2332
-49.8899
-61.2834
-61.4862
-76.7321
-40.308
205.248
-35.3073
-36.062
-33.739
-83.3993
-41.8591
-45.2498
-38.3458
-55.6833
-35.5969
-4.40225
-36.0319
-88.199
-39.9726
-31.513
-42.0555
-73.5681
16.1168
-60.081
-43.2155
-39.39
-44.4115
-41.2523
-4.79366
-88.2241
-42.7211
-48.7312
-47.3789
16.2862
-73.0058
-61.9317
-41.6767
-48.4647
-48.6389
-44.1671
-33.3422
-40.3363
-43.1253
-37.3446
-29.9985
-30.9443
-29.1232
-35.2313
-37.215
-48.8703
-2.35111
-46.4223
-38.9933
-45.9342
-64.1354
-44.3061
-43.603
-33.5909
-41.1245
-42.3929
-28.8601
-30.1762
-30.6198
-35.6517
-2.67393
-38.0491
-49.4869
-47.616
-64.8625
-39.4904
-46.7052
-62.4638
198.77
-109.997
184.387
-60.8241
-73.7041
-45.8437
-31.3165
-39.2313
-33.0886
-40.1138
-37.6813
-72.2124
130.271
-59.8332
-41.1644
-44.52
-40.0273
-43.7051
-56.9615
-64.3041
198.573
-61.0804
-73.3808
-50.5448
-40.949
-43.7523
-40.3621
-59.9665
-41.3297
-46.9513
-58.1014
-33.3412
-32.8948
-45.679
-34.309
-56.5578
-37.8484
-35.1577
-38.9597
-31.4507
-36.1484
-40.4242
-80.6038
-16.7709
5.33063
-85.6843
-63.8713
-33.997
-33.0686
-46.1188
-35.0021
-35.7167
-41.7656
-41.2056
-81.6921
-72.6009
-44.931
-45.0414
-63.5145
-74.4229
-65.2066
-45.5149
-45.4025
-107.545
-106.841
-54.3938
-54.1159
-71.6591
-19.3168
-19.5513
-71.8697
186.11
137.246
137.186
185.805
-32.7337
-33.2593
-39.7912
-38.5065
-33.3356
-39.2877
-40.3596
-33.6148
-36.6112
-36.826
-30.7974
-30.7119
9.33917
-78.3557
-79.0529
10.0004
-38.6361
-42.9212
-44.8347
-41.5376
-41.114
-42.5119
-49.5729
-48.3428
-36.4562
-38.0913
-44.2565
-38.291
-62.2215
-44.4099
-45.871
-62.9523
-29.4011
-40.6891
-41.1608
-37.0473
31.1002
-35.9836
-130.125
-40.7597
-35.9561
-46.7748
-10.278
24.4777
-89.1928
-44.4653
-38.598
-43.3785
-32.3336
29.837
-130.111
-45.8176
-49.6748
-54.1787
24.8975
-10.2132
-89.8958
-42.4843
-49.2107
-46.6861
-40.9501
-34.9207
-37.4929
-40.9101
-30.3485
-29.3943
-30.8676
-27.5133
-31.056
-37.7187
-43.2917
-8.05229
-45.3066
-41.6308
-44.8715
-57.6586
-41.3468
-41.571
-35.23
-38.3035
-26.7164
-27.3261
-29.3602
-30.7086
-31.3231
-8.35552
-38.5258
-43.9642
-46.5125
-62.3018
-42.218
-45.621
-6.39912
-34.9006
-103.53
185.554
-42.5663
-42.7532
-146.315
159.87
-72.9706
-50.7625
-59.9235
-68.9893
-41.5705
-41.1086
-38.4751
-34.1887
-31.2017
-38.9762
-38.5802
-33.6584
-36.2074
-37.0324
-39.0212
-36.26
13.4768
13.7673
-109.432
130.448
-46.5645
-40.9463
-49.1131
-41.7398
-40.421
-41.4198
-42.1686
-39.4451
-45.0654
-46.7375
-46.7849
-59.2775
-7.09998
-32.5273
-104.37
185.501
-73.1041
-50.7456
-60.1521
-69.1972
-50.4919
-45.9543
-44.3063
-41.5514
-42.7546
-39.3419
-42.9171
-41.1709
-45.7994
-41.2679
-49.2216
-41.9188
-49.9877
-48.5575
-49.718
-60.8473
-32.2365
-30.783
-32.3181
-31.9499
-40.1278
-37.5966
-43.0765
-34.3797
-44.512
-44.6207
-50.0196
-40.837
-32.3109
-36.6222
-34.701
-37.6272
-29.9767
-30.0015
-30.7399
-29.659
-49.1461
-47.4791
-43.9505
-83.2918
-0.569819
-0.486617
-7.8054
8.77729
-68.7005
-68.9022
-75.9658
-66.3296
-32.4742
-30.8293
-32.893
-32.1426
-40.9188
-38.5525
-43.5831
-35.0965
-32.1981
-36.7837
-35.0811
-37.4627
-50.0982
-48.2986
-44.8896
-84.8028
-63.3012
-61.0807
-61.6168
-51.9412
-62.7325
-61.3114
-61.8159
-52.2681
-91.6568
-75.7351
-75.8015
-65.2769
-52.4587
-40.5016
-40.5941
-27.721
203.998
186.084
190.653
203.897
-34.0274
-34.9279
-35.3055
-37.3085
-34.7194
-35.6393
-36.0627
-38.2137
-33.5759
-35.4382
-32.4435
-33.6528
-82.5883
-16.3818
-100.528
-83.1784
-42.9722
-40.9963
-42.7519
-41.0428
-47.1397
-44.4916
-46.0625
-43.8495
-38.8977
-37.8988
-39.2203
-37.5187
-48.3855
-55.8243
-56.4178
-63.3184
-33.9295
-32.9494
-40.2865
-39.5106
-110.366
180.847
-143.114
163.78
-77.613
-102.145
-42.873
-33.0028
-36.5267
-30.5926
-42.7047
-41.5158
-100.378
133.999
-108.54
136.144
-63.307
-68.6473
-40.1213
-36.2656
-41.2889
-37.7274
-42.4283
-45.351
-143.346
161.428
-110.38
180.73
-77.7594
-101.966
-45.1905
-41.1124
-49.666
-41.8542
-48.3325
-47.5449
-108.842
136.091
-100.794
133.813
-64.9628
-69.014
-43.1981
-41.1644
-45.8569
-41.7248
-47.7757
-47.3334
-43.3333
-50.7603
-32.1625
-35.0186
-42.8001
-33.0196
-47.8469
-39.3998
-38.0484
-38.8559
-32.358
-30.0431
-32.5687
-34.3369
-29.8842
-27.6072
-44.0253
-23.5799
-41.808
-36.3403
-42.5424
-12.4144
-10.3712
7.77321
-44.5872
-59.4429
-39.2762
-39.9666
-42.6479
-61.5935
-69.1486
-62.204
-43.8171
-50.9328
-48.32
-39.6483
-32.6721
-35.2826
-43.4103
-33.6859
-40.522
-39.9397
-29.8858
-27.4595
-32.7226
-30.1157
-32.8061
-34.9438
-44.6085
-23.8811
-10.6415
7.24434
-42.1499
-37.1405
-43.3326
-8.16637
-45.7118
-60.8236
-69.8062
-62.8938
-39.9053
-40.6762
-43.2663
-62.5635
-65.5152
-61.8257
183.727
187.405
-109.404
-109.488
186.107
186.046
-70.7048
-51.1568
-88.6578
-62.3606
-44.4175
-45.9553
-28.5478
-37.7654
-41.3271
-38.0564
-28.9467
-37.7113
-39.5659
-41.2403
-37.3377
-38.5121
-72.2176
-72.3041
132.036
132.12
-52.1544
-50.0507
-52.6552
-29.6065
-44.2885
-45.0655
-40.9266
-38.9386
-46.316
-42.58
-63.6984
-48.7661
-67.891
-63.5031
186.976
183.529
-70.0556
-51.4853
-88.8077
-62.6288
-50.8246
-49.525
-40.5978
-41.4899
-42.5685
-45.5473
-39.2552
-41.8528
-49.4787
-52.5156
-29.8065
-52.8288
-45.6663
-50.3916
-50.0534
-64.6146
-33.129
-33.5396
-34.4861
-31.6632
-45.4266
-45.5132
-33.3196
-35.9252
-56.0844
-55.952
-37.6972
-37.7274
-33.9704
-37.1071
-38.7244
-39.739
-31.292
-31.3183
-36.2661
-36.8605
-40.2779
-39.7894
-13.1257
-94.4872
-17.3209
-17.4462
6.53186
7.10355
-84.1612
-84.3742
-63.431
-63.8207
-33.7253
-34.0106
-34.6846
-31.808
-45.9495
-45.8831
-33.9577
-36.666
-37.7679
-34.3508
-41.736
-41.6229
-40.6276
-40.9447
-95.3651
-12.2733
-126.763
-72.5291
-67.9723
-101.477
-41.4319
-42.9473
-51.5557
-50.3451
-39.3907
-50.7121
-51.9982
-42.6477
-101.23
-99.4267
-58.1045
-48.5352
-127.418
-102.016
-67.4068
-72.546
-101.6
-48.0499
-57.4157
-99.924
-39.8806
-43.0301
-52.3325
-51.0754
-42.1046
-50.5843
-51.8898
-43.5393
-139.338
-146.352
-91.0348
-83.2731
-139.142
-83.9224
-91.0299
-146.171
-45.7231
-49.6203
-64.6822
-58.1568
-45.0217
-57.9689
-64.5703
-49.4821
-106.975
-51.5425
-52.6073
-108.618
-15.8478
-8.32877
-28.1029
-32.653
-16.1489
-32.9128
-28.2105
-8.46891
-107.49
-108.661
-52.695
-51.7284
157.027
181.343
185.315
160.486
134.888
133.01
192.157
170.92
134.927
170.838
192.107
133.078
156.479
160.436
185.201
181.178
-32.8359
-32.1884
-33.7394
-33.5524
-31.7396
-33.2858
-34.1802
-32.4113
-41.8333
-43.4479
-37.4337
-36.7303
-40.2554
-35.0737
-36.8866
-43.7606
-33.4616
-34.2401
-34.3891
-32.7653
-41.1821
-44.7002
-37.6564
-35.8167
-42.5675
-37.1859
-38.1266
-44.2177
-31.9837
-32.856
-34.6719
-33.5041
-37.3897
-40.4588
-35.2985
-33.2679
-37.7246
-33.4835
-35.3998
-40.5428
-29.1163
-30.5341
-32.2918
-31.102
-29.15
-30.92
-32.2647
-30.5313
-0.60536
-49.4833
-15.6119
8.66398
-55.6872
-74.3859
-99.4889
-71.08
-56.5375
-72.4542
-99.8682
-74.1586
-1.03974
8.60566
-15.392
-49.4788
-32.3928
-38.5048
-40.3544
-36.033
-45.354
-39.4823
-42.0508
-40.3036
-40.5433
-47.285
-43.934
-39.5785
-42.8218
-38.8319
-41.7249
-45.6328
-32.8341
-36.0112
-43.2187
-41.5793
-43.6576
-47.9604
-44.6329
-39.0113
-45.2135
-45.6903
-48.0494
-50.9736
-52.6174
-44.8513
-46.3016
-45.1875
-23.3269
-28.9479
-37.2559
-38.1096
-23.6026
-40.254
-38.1857
-29.1875
-49.3095
-41.3713
-40.1948
-43.2553
-41.6161
-36.3769
-38.2352
-36.7196
-49.5626
-64.8765
-63.0037
-65.1585
-41.7413
-41.7151
-48.2715
-50.3667
-44.4777
-52.0447
-48.9486
-42.6379
-50.715
-65.7699
-63.6681
-66.1082
-33.76
-29.9847
-28.7825
-32.7641
-42.6478
-41.4784
-37.8061
-38.0054
-41.8894
-40.4191
-41.1028
-41.8621
-37.152
-36.8062
-39.1953
-38.1448
17.6422
-26.0084
-174.645
-40.2145
-38.2387
-46.0415
6.23507
45.6845
-146.405
-45.1146
-39.499
-42.5979
-25.4793
17.2644
-174.731
-47.3112
-49.3344
-53.8565
45.3342
6.05038
-146.828
-44.275
-49.3385
-46.3911
-40.1466
-36.4193
-36.7948
-39.4249
-28.7772
-28.7262
-29.6544
-27.5287
-30.5444
-35.5062
-32.0811
-16.7066
-45.1343
-43.0575
-44.2404
-49.2984
-41.2887
-40.3545
-36.7505
-37.6637
-26.7084
-27.1235
-28.5205
-29.5889
-30.7361
-16.8801
-36.1413
-32.801
-46.0104
-50.3857
-43.7628
-45.2981
-10.8787
-0.922268
-166.882
160.503
-86.0875
-86.0364
-208.272
86.2792
-66.1943
-55.1202
-59.5623
-65.0053
-42.656
-40.9747
-35.7736
-36.1508
-32.6222
-36.6891
-37.9896
-33.6468
-35.3372
-35.4779
-37.7256
-35.0775
25.5011
26.1222
-128.692
84.7035
-43.9458
-42.1437
-44.6292
-41.8038
-40.9021
-41.3355
-41.5232
-39.886
-46.1578
-47.7757
-46.8282
-59.0861
-11.3273
-1.65419
-167.876
160.723
-66.3572
-55.2452
-59.7513
-65.2523
-51.5307
-48.3592
-41.3454
-43.4129
-41.4931
-39.8983
-41.9754
-40.9046
-43.3495
-42.4166
-44.763
-41.9711
-50.0011
-48.7293
-49.3269
-60.9574
-31.5468
-30.9691
-31.5502
-31.5461
-39.0716
-37.8959
-41.5195
-36.062
-44.8274
-44.8766
-47.3004
-42.8237
-33.4576
-35.5139
-34.3666
-35.6007
-30.2065
-30.23
-30.4866
-29.9601
-48.9449
-48.3752
-46.2133
-62.3013
-0.150886
-0.27366
-4.00114
4.94876
-69.7412
-69.7133
-72.5967
-68.0047
-31.7779
-31.1071
-31.9539
-31.7407
-39.8334
-38.764
-42.3591
-36.7542
-33.2457
-35.3828
-34.6091
-35.1052
-50.0771
-49.2733
-47.2402
-63.5244
-67.7669
-61.2084
-61.2041
-56.1346
-67.856
-61.426
-61.4047
-56.3971
-83.748
-76.633
-76.6608
-71.141
-45.9439
-40.2876
-40.3328
-34.5738
199.547
193.085
205.852
199.562
-34.6391
-35.1274
-35.2318
-36.1559
-35.3591
-35.8806
-36.0933
-37.0676
-33.7807
-34.6134
-33.0855
-33.7624
-83.1765
-40.3039
-101.984
-83.4461
-42.3669
-41.4398
-42.2923
-41.4366
-46.1433
-44.8797
-45.6431
-44.4872
-38.644
-38.0753
-38.7458
-37.9647
-51.5348
-55.6757
-56.0106
-60.1146
-34.4615
-34.0498
-39.2698
-37.7672
23.0969
-12.4771
-134.985
149.231
-38.0553
-55.2308
-206.963
88.5492
-101.767
-80.5791
-77.7232
-96.3483
-39.973
-41.2049
-42.6385
-34.8069
-33.1875
-31.1915
-37.7455
-30.5166
-45.004
-39.7581
-42.6267
-43.1315
-33.269
-64.6728
-137.404
107.735
24.7407
25.5596
-128.46
89.1948
-75.5225
-50.6917
-62.2656
-64.9619
-43.9217
-42.2512
-40.4492
-37.1668
-38.7291
-40.0369
-39.9912
-38.4938
-43.225
-44.0384
-42.531
-48.5021
-53.9715
-55.907
-206.443
84.7129
22.4994
-13.4723
-134.611
148.856
-101.783
-80.6528
-77.789
-96.3991
-44.073
-41.2019
-44.6872
-41.2155
-48.7194
-49.9783
-50.7297
-42.7888
-52.0024
-44.2499
-48.4181
-48.266
27.1296
25.7745
-129.363
89.096
-32.9786
-62.9349
-137.456
107.727
-76.4333
-51.4071
-64.0718
-65.4703
-41.8892
-41.5855
-42.2535
-41.4439
-48.8515
-47.9051
-44.9011
-42.9416
-46.8191
-48.9078
-47.5861
-50.4059
-42.7345
-47.1981
-41.6919
-48.0961
-33.8279
-32.4928
-32.1263
-34.0816
-39.7469
-40.5195
-41.2457
-36.5743
-42.0765
-44.102
-45.3247
-41.1164
-34.8616
-37.5504
-37.8735
-39.5344
-29.5659
-30.4235
-30.996
-29.8969
-30.8235
-31.3438
-31.5768
-30.5658
-28.0391
-29.7404
-29.4546
-28.6863
-32.7403
-38.5147
-40.3417
-27.683
-37.5935
-37.2709
-39.3665
-36.0542
-50.2148
-49.4145
-45.686
-53.9168
-4.63152
-1.2476
-6.15416
2.76705
-45.8406
-46.3032
-45.8348
-49.65
-40.3372
-37.7214
-39.0235
-39.2838
-45.5597
-46.4145
-44.2851
-52.2313
-60.8129
-66.8858
-66.2104
-62.8646
-42.9667
-47.1895
-42.1222
-48.2156
-42.765
-44.185
-45.9412
-41.4136
-34.1083
-32.7297
-32.5378
-34.3311
-40.5532
-41.3148
-41.9637
-37.3105
-35.8581
-38.9972
-40.8481
-40.4998
-28.0316
-29.5761
-29.4107
-28.2031
-29.5969
-30.5695
-31.2847
-29.9718
-30.8162
-30.9964
-31.7647
-29.6394
-33.1546
-38.8289
-40.7549
-28.0387
-4.97032
-1.46624
-6.4395
2.32343
-38.4171
-38.0977
-40.0887
-36.8207
-51.3046
-49.9585
-46.4738
-53.347
-46.981
-47.9842
-46.9188
-47.2551
-61.8669
-67.4272
-66.8999
-63.5818
-40.8169
-38.071
-39.6791
-39.7335
-46.1796
-47.3671
-44.9226
-53.1809
-79.9931
-53.4525
-63.9627
-61.9596
196.973
200.85
189.944
203.496
-122.122
-100.197
-110.063
-110.057
180.985
186.06
184.394
184.358
-60.3406
-61.0107
-67.2628
-55.4679
-71.578
-75.1804
-80.7016
-67.6233
-43.0035
-43.6216
-45.5078
-45.8974
-33.2331
-32.5095
-29.6469
-35.6079
-39.6467
-39.1101
-40.1957
-38.5301
-33.4934
-32.6336
-30.7528
-35.4981
-39.6194
-40.5509
-39.8176
-40.6247
-37.4005
-37.8263
-37.4711
-37.9726
-85.2768
-61.1055
-71.7887
-71.8145
131.849
155.476
132.555
132.549
-56.1135
-62.4794
-56.6601
-56.5515
-41.612
-40.8332
-46.5008
-36.1004
-43.019
-46.2574
-44.3409
-44.7415
-39.5428
-40.0867
-40.5206
-39.4918
-44.9539
-43.2
-44.5067
-43.2899
-57.7875
-56.2168
-61.6907
-52.3869
-79.9042
-53.1666
-66.0462
-63.6237
196.915
200.865
203.47
189.874
-60.5925
-61.2554
-67.5442
-55.7563
-71.5557
-74.4223
-80.9259
-67.7995
-49.658
-48.235
-50.7014
-50.3207
-41.4238
-40.3533
-40.7807
-41.5071
-43.3434
-44.107
-43.1075
-44.6293
-40.8689
-39.7762
-39.7869
-41.0274
-56.2246
-62.6497
-56.3935
-56.9638
-41.7978
-40.9652
-36.2739
-46.6719
-48.2618
-46.4915
-45.9187
-48.3602
-59.1631
-57.1058
-53.4784
-62.7518
-32.9844
-33.5728
-33.2613
-33.3131
-32.3083
-33.4168
-33.613
-32.2036
-43.8857
-48.3428
-45.6048
-45.602
-34.1583
-34.635
-33.7841
-35.0472
-53.0753
-60.6595
-56.4846
-56.4227
-39.3353
-36.6555
-37.8536
-37.8782
-34.9375
-35.3579
-34.5438
-36.1083
-38.5037
-40.2375
-38.7904
-39.2436
-31.0617
-31.9277
-31.4359
-31.4264
-33.0157
-36.9804
-36.236
-36.5236
-42.1316
-38.8187
-40.5265
-40.1174
-78.7352
-81.6713
-38.55
-98.1916
-12.0842
-21.8529
-16.914
-16.9772
8.45118
-3.83202
5.57933
5.81674
-80.1096
-93.4873
-85.2786
-85.4504
-64.9764
-63.501
-63.7157
-63.9156
-33.6383
-34.2337
-33.8586
-34.0412
-32.6227
-33.3897
-33.8155
-32.4036
-44.3718
-48.7227
-46.0384
-46.0549
-34.8599
-35.3312
-34.4512
-35.7624
-35.4194
-35.9449
-36.6824
-34.9983
-39.9036
-42.9441
-41.8649
-41.6586
-42.9822
-39.5263
-40.9835
-41.1434
-79.8297
-82.6093
-99.1965
-38.5881
-87.4087
-76.7788
-68.2219
-70.2191
-44.3479
-43.4628
-47.5618
-45.209
-44.6912
-43.2722
-47.9947
-45.3777
-77.9362
-64.3223
-62.8589
-54.1823
-89.6308
-77.3331
-70.6757
-68.9388
-78.7316
-65.8998
-64.5506
-54.7469
-45.2062
-43.732
-48.3992
-45.8146
-44.8438
-44.0057
-47.9566
-45.6706
-121.444
-105.366
-108.986
-97.3537
-121.34
-104.612
-108.97
-97.3906
-52.9008
-51.1344
-58.21
-55.4079
-52.5385
-50.7748
-57.943
-55.2392
-84.8061
-71.082
-72.051
-61.1652
-21.0679
-14.6849
-24.2597
-18.0863
-21.34
-14.936
-24.4766
-18.2689
-85.0259
-71.388
-72.1884
-61.3495
186.408
183.163
183.684
187.426
138.194
140.349
156.746
133.901
140.325
137.874
133.943
156.213
182.563
186.23
187.258
183.473
-32.4186
-32.7789
-32.9657
-32.9913
-33.0284
-33.0067
-33.4562
-33.5066
-39.529
-41.2542
-38.4263
-40.0239
-37.5069
-40.2431
-37.0001
-39.2602
-33.0247
-33.3901
-33.5184
-33.5956
-38.3079
-41.0442
-37.7529
-40.0603
-40.1698
-41.814
-38.9657
-40.6603
-33.4001
-33.314
-33.8772
-33.8681
-35.7355
-37.9041
-35.467
-37.3045
-38.1382
-36.1298
-37.3182
-35.6821
-30.3353
-30.4578
-31.0832
-31.2832
-30.2513
-30.2536
-31.1403
-31.1763
7.03601
10.7325
0.885628
7.81097
-71.4768
-72.9428
-86.4795
-82.0601
-73.5941
-72.55
-82.5778
-87.2427
10.5899
8.16009
8.73658
2.74457
-38.4503
-37.7458
-39.232
-38.6121
-43.5758
-42.8044
-43.0592
-42.0554
-41.7484
-43.715
-45.4681
-46.6104
-42.6483
-41.1023
-41.8187
-40.6444
-40.7431
-40.0536
-41.9969
-41.4613
-43.702
-41.6968
-44.4531
-41.9593
-47.4739
-48.8823
-50.0825
-51.0894
-49.6813
-48.2729
-48.418
-46.8752
-37.7512
-32.5804
-36.9987
-36.0425
-39.1371
-32.5897
-38.6958
-37.1596
-46.7719
-45.9561
-42.6943
-42.8861
-36.6137
-39.0762
-37.7326
-40.1241
-61.2358
-62.0937
-63.0503
-62.9612
-42.6319
-44.6072
-44.324
-46.4375
-44.2476
-46.3882
-45.4361
-47.7425
-62.1104
-62.7871
-63.8632
-63.5299
-31.1743
-30.0975
-28.7587
-28.4518
-40.9117
-41.4493
-39.4395
-40.6109
-41.1407
-41.4518
-41.0324
-41.352
-36.4103
-37.3193
-37.1295
-38.3917
-161.89
139.502
-204.181
86.6907
-128.224
-132.77
-45.332
-35.0551
-39.8443
-33.9836
-46.7358
-44.5287
-154.907
122.147
-129.372
83.5335
-97.5247
-100.722
-41.2842
-37.9945
-39.9756
-37.6768
-41.7101
-44.284
-204.099
85.3776
-162.189
141.144
-128.576
-132.539
-47.6538
-43.3679
-53.8459
-43.4138
-53.9657
-52.0301
-131.908
83.7542
-154.641
122.085
-97.9176
-101.366
-43.3815
-42.1043
-45.9699
-43.3743
-45.6873
-47.1898
-39.0616
-43.4577
-33.1734
-36.1833
-40.0995
-35.7885
-42.7236
-38.9292
-31.4774
-21.3838
-30.4987
-29.0076
-31.4502
-30.2825
-28.4761
-26.366
-35.371
-22.1568
-38.2388
-38.7053
-43.954
-16.9943
-11.744
-5.15646
-44.2205
-48.038
-41.61
-42.0618
-43.3648
-49.6751
-55.0527
-55.1386
-39.6419
-43.8921
-43.8992
-39.404
-33.6922
-36.4683
-40.9031
-36.5053
-29.7138
-21.7604
-28.3557
-26.0513
-30.6497
-28.9387
-31.4634
-29.6675
-35.8742
-22.4743
-12.0502
-5.08929
-38.6914
-39.6908
-44.9834
-16.7538
-45.2852
-49.4837
-55.2777
-56.5513
-42.3899
-42.6188
-44.0901
-50.6525
-147.816
161.81
-156.559
147.007
-102.979
-101.792
181.873
183.906
-206.521
81.0863
-206.376
81.1165
-145.18
-145.116
157.375
157.375
-73.4741
-78.6204
-49.979
-54.4705
-66.3505
-54.5366
-75.6297
-63.1607
-39.144
-34.927
-38.2753
-37.3997
-38.8681
-39.2849
-33.3068
-35.8751
-36.4608
-29.7501
-41.1264
-37.9654
-39.8041
-37.4341
-31.5446
-35.9117
-39.1069
-31.5731
-37.5453
-39.9578
-38.6932
-39.554
-36.5533
-36.2607
-128.623
86.3646
-128.806
86.5434
-108.983
-109.015
133.241
133.299
-47.5541
-49.0169
-46.3606
-34.9181
-51.5513
-45.1425
-46.0661
-37.6813
-40.8898
-38.8951
-41.8976
-40.6865
-41.9675
-42.3964
-39.9132
-38.7658
-45.4138
-52.6586
-46.5567
-59.2702
-47.3512
-46.5039
-64.455
-54.1181
-148.352
161.979
-154.672
147.367
-103.79
-101.879
184.013
181.819
-73.5295
-78.8677
-50.1316
-54.5615
-66.5538
-54.7936
-76.0774
-63.4484
-46.6252
-42.5352
-44.6276
-42.9775
-45.2592
-44.7387
-41.4855
-41.7559
-44.0829
-43.1657
-40.6356
-39.9191
-42.1998
-43.8255
-40.6303
-42.029
-46.9027
-49.0189
-46.686
-35.224
-44.863
-51.8085
-37.8962
-46.2374
-49.6438
-54.9337
-48.5516
-62.5953
-48.9079
-50.8471
-55.6437
-65.8181
-31.7954
-32.6333
-31.4084
-30.6831
-32.3218
-32.3624
-32.5406
-31.3714
-41.4523
-36.7654
-40.5899
-35.7358
-43.1186
-42.7455
-33.9078
-34.6349
-46.8533
-42.3492
-46.9849
-42.5079
-49.9359
-49.8788
-40.9028
-40.9184
-32.6238
-33.3152
-36.5248
-37.451
-33.9948
-35.676
-37.0451
-38.3222
-30.2477
-29.6582
-30.2425
-29.6353
-30.6915
-30.6913
-29.4211
-29.5632
-46.3034
-68.478
-45.4362
-56.4191
-43.7827
-43.8967
-72.3559
-79.851
-4.3398
4.81148
-4.47887
4.60815
-7.96799
-8.03653
8.63267
8.54198
-71.0672
-66.8102
-71.4527
-67.1693
-75.5408
-75.142
-65.9865
-66.1187
-32.195
-32.859
-31.7091
-30.8283
-32.8265
-32.8941
-32.7416
-31.5405
-42.208
-37.4971
-41.7597
-36.424
-43.2096
-43.6742
-34.6064
-35.3637
-32.76
-32.5088
-36.9453
-37.3004
-35.9704
-34.2794
-36.8104
-38.2972
-47.2649
-70.2167
-46.336
-57.4199
-44.8714
-44.6017
-81.2266
-77.2857
-65.4519
-60.5919
-67.4758
-55.8643
-56.1637
-65.2547
-51.7973
-51.9142
-64.8042
-59.9893
-67.6423
-56.1428
-65.1462
-56.4329
-52.2402
-52.1293
-91.5224
-91.5196
-83.0981
-70.0976
-83.133
-70.1888
-65.1547
-65.1029
-52.5345
-52.5705
-46.1291
-34.913
-35.0113
-46.2179
-27.7313
-27.7857
192.527
205.351
185.897