# vtk DataFile Version 2.0
tet_velo
ASCII
DATASET UNSTRUCTURED_GRID
POINTS 29498 float
-0.675 0.145 -2.00502
-0.839609 0.495 2.075
-0.68619 0.465 -1.985
-0.825 0.84178 2.035
0.675 0.145 -2.0049
0.839641 0.495 2.075
0.686049 0.465 -1.985
0.825 0.841778 2.035
-0.808342 0.183195 -0.645013
-0.885303 0.27777 0.714994
-0.801303 0.659436 -0.645
-0.806756 0.744213 0.695
0.808006 0.183541 -0.644933
0.885236 0.277858 0.715034
0.801202 0.659429 -0.645
0.806718 0.744221 0.695
-1.46814 -0.171251 -3.08365
-1.47503 -0.0834762 -2.00367
-1.58719 -0.0292958 -0.643145
-1.68673 0.0645495 0.721404
-1.69639 0.245755 2.08226
-1.68594 0.372087 3.16391
-1.67968 0.476681 4.24248
-1.45889 0.0302398 -3.08086
-1.46094 0.135133 -2.00305
-1.59524 0.196772 -0.646417
-1.69461 0.279226 0.71202
-1.6905 0.454364 2.06904
-1.68114 0.578807 3.1504
-1.67701 0.683513 4.22962
-1.4637 0.401838 -3.06963
-1.4666 0.507221 -1.99098
-1.58491 0.652736 -0.647983
-1.64321 0.732263 0.693598
-1.66464 0.841464 2.03698
-1.66609 0.965663 3.11917
-1.66669 1.08139 4.20161
-1.50712 1.02167 -3.06784
-1.51923 1.13406 -1.99219
-1.56841 1.28014 -0.655676
-1.61089 1.39178 0.676528
-1.63165 1.49254 2.01325
-1.64103 1.58837 3.08932
-1.64647 1.6942 4.16958
-0.714609 -0.166245 -3.08492
-0.693929 -0.0767296 -2.00552
-0.779481 -0.0360508 -0.64287
-0.857339 0.0635891 0.723945
-0.857792 0.269752 2.08669
-0.84954 0.390053 3.16692
-0.846951 0.487467 4.24423
-0.71331 0.0307079 -3.08123
-0.844286 0.596894 3.15288
-0.844451 0.693781 4.23094
-0.717978 0.385971 -3.06714
-0.834202 0.97107 3.11877
-0.836874 1.08651 4.20153
-0.738588 1.01321 -3.06538
-0.739093 1.12721 -1.98949
-0.771952 1.28179 -0.654042
-0.800371 1.3949 0.676342
-0.811512 1.49278 2.01187
-0.818152 1.58819 3.08794
-0.822962 1.69467 4.16858
0.73375 -0.166192 -3.08484
0.750215 -0.0766485 -2.00542
0.827241 -0.0358056 -0.642799
0.865368 0.0636982 0.723985
0.836386 0.269786 2.0867
0.829768 0.390086 3.16693
0.823761 0.487509 4.24424
0.705636 0.0307372 -3.08116
0.830625 0.596915 3.15289
0.824807 0.693817 4.23095
0.706426 0.385989 -3.06711
0.827011 0.971087 3.11878
0.825166 1.08654 4.20155
0.773309 1.01325 -3.06535
0.791129 1.12724 -1.98947
0.807687 1.28183 -0.654025
0.816562 1.39494 0.676357
0.825886 1.49281 2.01188
0.827095 1.58822 3.08795
0.8249 1.69471 4.1686
1.47895 -0.171127 -3.08352
1.49972 -0.0832949 -2.00351
1.60933 -0.028942 -0.643023
1.69058 0.0647658 0.721478
1.68408 0.245854 2.0823
1.66897 0.372171 3.16394
1.65803 0.476773 4.24252
1.44679 0.0303268 -3.08072
1.45081 0.135241 -2.0029
1.58872 0.197127 -0.646301
1.69234 0.279421 0.712087
1.68793 0.454434 2.06907
1.66957 0.578872 3.15043
1.65873 0.683594 4.22965
1.44689 0.401895 -3.06955
1.45354 0.507259 -1.99092
1.57516 0.652858 -0.647933
1.64039 0.732368 0.693631
1.66574 0.841513 2.037
1.66125 0.965717 3.11919
1.65588 1.08146 4.20164
1.5325 1.02175 -3.06778
1.55598 1.13414 -1.99214
1.59429 1.28023 -0.655636
1.62372 1.39187 0.676561
1.64304 1.49262 2.01328
1.64823 1.58845 3.08935
1.64754 1.69428 4.16962
-0.683977 0.305 -1.99839
0 0.14153 -2.00843
-0.749929 0.155839 -1.32502
-0.779516 0.66839 2.00221
1.5974e-05 0.504295 2.06571
-0.896263 0.352578 1.395
-7.05123e-05 0.539469 -2.05947
-0.803763 0.622235 -1.315
0 0.836429 2.02965
-0.838392 0.81551 1.365
0.683898 0.305 -1.99832
0.749676 0.156098 -1.32492
0.779514 0.668389 2.00219
0.896274 0.352594 1.39502
0.803703 0.622291 -1.315
0.838378 0.815518 1.365
-0.845541 0.231763 0.0349901
-0.861812 0.421316 -0.645007
-0.000167917 0.160388 -0.644973
-0.866491 0.510991 0.704997
-3.35416e-05 0.199554 0.715014
-0.786542 0.684337 0.025
-5.05801e-05 0.897669 -0.645
-1.88363e-05 1.13546 0.695
0.845133 0.232187 0.03505
0.861815 0.421485 -0.644967
0.866464 0.51104 0.705017
0.785202 0.683067 0.025
-0.834393 0.363158 -1.32001
-0.838136 0.466153 0.0299951
-0.896583 0.589691 1.38
-8.39587e-05 0.152784 -1.32497
-0.000100729 0.188844 0.0350201
-8.78378e-06 0.213372 1.39501
-3.52561e-05 0.305 -2.14003
7.98702e-06 0.668389 2.00674
-6.05462e-05 0.733321 -1.315
-3.47082e-05 1.13035 0.025
-9.41817e-06 0.872125 1.365
0.836787 0.363242 -1.31996
0.838078 0.466262 0.030025
0.896583 0.589714 1.38001
-1.06797 0.140066 -2.00404
-0.684464 0.0341352 -2.00527
-0.694155 0.0878539 -2.54313
-1.26505 0.474682 2.07202
-0.848701 0.382376 2.08085
-0.841948 0.545947 2.61394
-1.0764 0.48611 -1.98799
-0.702084 0.425486 -2.52607
-0.712642 0.796104 -1.98724
-1.24482 0.841622 2.03599
-0.829601 0.906425 2.57689
-0.818256 1.16728 2.02343
0.712608 0.0341757 -2.00516
0.690318 0.0878686 -2.54303
1.06291 0.140121 -2.0039
0.838014 0.382393 2.08085
0.835133 0.545957 2.61394
1.26379 0.474717 2.07203
0.696237 0.425494 -2.52605
0.738589 0.796121 -1.98723
1.06979 0.486129 -1.98796
0.826006 0.906432 2.57689
0.825443 1.16729 2.02344
1.24537 0.841646 2.036
-1.20179 0.189983 -0.645715
-0.793911 0.073572 -0.643942
-1.28995 0.278498 0.713507
-0.871321 0.17068 0.719469
-1.1931 0.656086 -0.646492
-0.786628 0.970615 -0.649521
-1.22498 0.738238 0.694299
-0.803564 1.06956 0.685671
0.817623 0.0738678 -0.643866
1.19836 0.190334 -0.645617
0.875302 0.170778 0.719509
1.28879 0.27864 0.71356
0.804444 0.97063 -0.649513
1.18818 0.656143 -0.646466
0.81164 1.06958 0.685678
1.22355 0.738295 0.694315
-1.47159 -0.127364 -2.54366
-1.46352 -0.0705056 -3.08226
-1.09137 -0.168748 -3.08429
-1.53111 -0.056386 -1.32341
-1.46798 0.0258282 -2.00336
-1.08448 -0.0801029 -2.00459
-1.63696 0.0176268 0.0391292
-1.59121 0.083738 -0.644781
-1.18334 -0.0326733 -0.643008
-1.69156 0.155152 1.40183
-1.69067 0.171888 0.716712
-1.27203 0.0640693 0.722674
-1.69116 0.308921 2.62309
-1.69344 0.35006 2.07565
-1.27709 0.257754 2.08448
-1.68281 0.424384 3.7032
-1.68354 0.475447 3.15716
-1.26774 0.38107 3.16541
-1.67834 0.580097 4.23605
-1.26331 0.482074 4.24336
-1.45991 0.0826862 -2.54195
-1.4613 0.216039 -3.07524
-1.0861 0.0304739 -3.08104
-1.52809 0.165952 -1.32473
-1.46377 0.321177 -1.99702
-1.64492 0.237999 0.0328017
-1.59007 0.424754 -0.6472
-1.69255 0.366795 1.39053
-1.66891 0.505744 0.702809
-1.68582 0.516585 2.60972
-1.67757 0.647914 2.05301
-1.67907 0.63116 3.69001
-1.67361 0.772235 3.13478
-1.26271 0.58785 3.15164
-1.67185 0.882451 4.21562
-1.26073 0.688647 4.23028
-1.46515 0.45453 -2.53031
-1.48541 0.711755 -3.06873
-1.09084 0.393905 -3.06839
-1.52575 0.579978 -1.31948
-1.49292 0.820638 -1.99159
-1.61406 0.692499 0.0228076
-1.57666 0.966439 -0.65183
-1.65392 0.786863 1.36529
-1.62705 1.06202 0.685063
-1.66536 0.903563 2.57807
-1.64814 1.167 2.02511
-1.66639 1.02353 3.66039
-1.65356 1.27701 3.10424
-1.25014 0.968366 3.11897
-1.65658 1.38779 4.1856
-1.25178 1.08395 4.20157
-1.51318 1.07786 -2.53002
-1.12285 1.01744 -3.06661
-1.54382 1.2071 -1.32393
-1.12916 1.13063 -1.99084
-1.58965 1.33596 0.010426
-1.17018 1.28097 -0.654859
-1.62127 1.44216 1.34489
-1.20563 1.39334 0.676435
-1.63634 1.54045 2.55128
-1.22158 1.49266 2.01256
-1.64375 1.64128 3.62945
-1.22959 1.58828 3.08863
-1.23472 1.69443 4.16908
-0.704269 -0.121488 -2.54522
-0.713959 -0.0677688 -3.08307
0.0095705 -0.166219 -3.08488
-0.736705 -0.0563902 -1.3242
0.0281434 -0.0766891 -2.00547
-0.81841 0.0137691 0.0405372
0.0238797 -0.0359282 -0.642835
-0.857565 0.166671 1.40532
0.00401462 0.0636436 0.723965
-0.853666 0.329903 2.6268
-0.010703 0.269769 2.0867
-0.848245 0.43876 3.70557
-0.846913 0.493473 3.1599
-0.00988612 0.39007 3.16692
-0.845701 0.590624 4.23758
-0.011595 0.487488 4.24424
-0.715644 0.20834 -3.07419
-0.00383693 0.0307225 -3.08119
-0.844369 0.645337 3.69191
-0.839244 0.783982 3.13583
-0.00683052 0.596904 3.15288
-0.840663 0.890144 4.21624
-0.00982215 0.693799 4.23095
-0.728283 0.699591 -3.06626
-0.00577597 0.38598 -3.06712
-0.835538 1.02879 3.66015
-0.826177 1.27963 3.10336
-0.0035953 0.971078 3.11878
-0.829918 1.39059 4.18506
-0.00585407 1.08652 4.20154
-0.738841 1.07021 -2.52743
0.0173605 1.01323 -3.06537
-0.755523 1.2045 -1.32176
0.0260182 1.12722 -1.98948
-0.786162 1.33835 0.0111499
0.0178671 1.28181 -0.654034
-0.805941 1.44384 1.3441
0.00809572 1.39492 0.676349
-0.814832 1.54048 2.5499
0.00718686 1.49279 2.01187
-0.820557 1.64143 3.62826
0.00447151 1.5882 3.08794
0.000968822 1.69469 4.16859
0.741983 -0.12142 -2.54513
0.719693 -0.0677276 -3.083
1.10635 -0.16866 -3.08418
0.788728 -0.0562271 -1.32411
1.12497 -0.0799717 -2.00447
0.846304 0.0139463 0.0405931
1.21829 -0.0323738 -0.642911
0.850877 0.166742 1.40534
1.27798 0.064232 0.722731
0.833077 0.329936 2.62682
1.26023 0.25782 2.0845
0.826764 0.438798 3.70559
0.830196 0.493501 3.15991
1.24937 0.381129 3.16544
0.824284 0.590663 4.2376
1.2409 0.482141 4.24338
0.706031 0.208363 -3.07413
1.07621 0.030532 -3.08094
0.827716 0.645366 3.69192
0.828818 0.784001 3.13584
1.2501 0.587893 3.15166
0.824986 0.890178 4.21625
1.24177 0.688706 4.2303
0.739868 0.699618 -3.06623
1.07666 0.393942 -3.06833
0.826089 1.02881 3.66016
0.827053 1.27965 3.10337
1.24413 0.968402 3.11898
0.825033 1.39062 4.18507
1.24052 1.084 4.20159
0.782219 1.07024 -2.52741
1.1529 1.0175 -3.06656
0.799408 1.20454 -1.32175
1.17355 1.13069 -1.9908
0.812125 1.33839 0.0111658
1.20099 1.28103 -0.654831
0.821224 1.44388 1.34412
1.22014 1.3934 0.676459
0.826491 1.54052 2.54991
1.23446 1.49271 2.01258
0.825998 1.64147 3.62827
1.23766 1.58834 3.08865
1.23622 1.6945 4.16911
1.48933 -0.127211 -2.54351
1.46287 -0.0703999 -3.08212
1.55453 -0.0561184 -1.32327
1.47526 0.0259733 -2.00321
1.64996 0.0179119 0.0392271
1.59903 0.0840925 -0.644662
1.68733 0.15531 1.40189
1.69146 0.172093 0.716782
1.67652 0.309012 2.62312
1.68601 0.350144 2.07568
1.6635 0.424472 3.70323
1.66927 0.475521 3.15719
1.65838 0.580184 4.23609
1.4488 0.0827841 -2.54181
1.44684 0.216111 -3.07514
1.51976 0.166184 -1.3246
1.45218 0.32125 -1.99691
1.64053 0.238274 0.0328928
1.58194 0.424992 -0.647117
1.69014 0.366927 1.39058
1.66637 0.505895 0.702859
1.67875 0.516653 2.60975
1.67683 0.647974 2.05303
1.66415 0.631233 3.69004
1.66541 0.772294 3.13481
1.65731 0.882528 4.21565
1.45022 0.454577 -2.53023
1.4897 0.711825 -3.06866
1.51435 0.580058 -1.31942
1.50476 0.820697 -1.99153
1.60777 0.692613 0.022849
[...]
POINT_DATA 29498
VECTORS point_vectors float
-8.31631 -9.2632 17.3068
0.072806 0.132505 0.315907
-3.26217 2.55027 5.15699
0.421763 -0.236264 2.95691
8.31025 -9.26365 17.3053
-0.0722719 0.131963 0.319064
3.26659 2.55443 5.1437
-0.43091 -0.235321 2.9995
-0.0357126 0.0278504 0.218758
-0.0404388 0.00915136 1.31945
-0.0105833 -0.0313404 0.201334
0 0 0
0.028276 0.0247273 0.197181
0.0355822 0.0177789 1.26488
0.00873289 -0.0284727 0.190369
0 0 0
-0.482946 -0.177567 19.8302
-1.13282 -0.557682 20.3026
-0.482191 -0.418029 21.0294
-0.0600812 -0.22159 21.1794
0.479111 -0.048214 21.1734
0.733183 -0.00966951 20.5404
0.691118 -0.160318 20.5184
-0.540287 -0.141292 19.7749
-1.40828 -0.435195 20.2325
-0.61343 -0.418318 21.0629
-0.135842 -0.250415 21.2059
0.472517 -0.131712 21.2091
0.7659 -0.131501 20.6074
0.661643 -0.262519 20.5418
-0.572083 -0.0218204 19.718
-1.56724 -0.0223132 20.1371
-0.9318 -0.245862 21.0225
-0.332523 -0.224652 21.2772
0.373269 -0.236146 21.1894
0.617386 -0.305655 20.7879
0.349577 -0.251934 20.38
-0.500008 0.192748 19.8061
-1.05182 0.445116 20.1342
-0.958352 0.24593 20.8704
-0.368682 0.0321933 21.2355
0.19483 -0.24433 21.119
0.356574 -0.337245 20.9152
0.321814 -0.383507 20.7833
-0.483931 -0.439434 19.345
-2.35419 -3.8058 20.3787
0.537423 0.0494671 18.7467
0.302125 0.0649149 15.1199
0.671412 1.16521 7.86618
1.43337 1.34579 12.3721
1.42212 0.449673 14.5853
-0.538552 -0.340749 19.2106
1.83463 0.414968 9.8402
1.24288 0.0662608 14.9083
-0.624287 -0.031395 19.0388
1.3135 -0.864079 16.3508
0.749448 -0.677184 18.9605
-0.484207 0.41723 19.3273
-1.57019 1.93843 19.5495
-1.92281 1.57849 20.794
-0.682407 0.471257 21.9584
0.23095 -0.549521 21.4303
0.361136 -0.770238 20.8445
0.276668 -0.518681 20.4757
0.492965 -0.426564 19.3677
2.40224 -3.38402 20.3148
-0.533336 -0.155868 19.4396
-0.304001 0.0444401 15.2698
-0.553291 1.15634 6.86549
-1.36653 1.42815 11.5574
-1.46267 0.482771 13.9341
0.537103 -0.345987 19.202
-1.79103 0.479339 9.30426
-1.27822 0.0950687 14.3612
0.616366 -0.0286329 19.0247
-1.32993 -0.871092 16.2691
-0.76634 -0.690938 18.7878
0.497038 0.40325 19.3533
1.59378 1.79158 19.5917
1.89926 1.45944 20.8208
0.683932 0.44722 21.9358
-0.231237 -0.546201 21.4224
-0.364943 -0.763369 20.8404
-0.275312 -0.516921 20.472
0.47973 -0.17556 19.8408
1.09967 -0.526288 20.3069
0.471563 -0.406607 21.0205
0.060353 -0.219678 21.1799
-0.488412 -0.0474842 21.1807
-0.740129 0.000524526 20.4813
-0.705979 -0.1664 20.5273
0.54284 -0.140232 19.7704
1.43223 -0.451993 20.2353
0.614167 -0.422967 21.0702
0.134532 -0.249262 21.2133
-0.477765 -0.129426 21.2098
-0.775973 -0.125622 20.5549
-0.657341 -0.255856 20.5396
0.579368 -0.0250763 19.7061
1.60778 -0.0178393 20.1278
0.942996 -0.247245 21.031
0.331465 -0.224248 21.2794
-0.371863 -0.235677 21.1886
-0.61984 -0.30712 20.7905
-0.337408 -0.249646 20.3749
0.495827 0.185959 19.8197
1.01974 0.412722 20.1461
0.933269 0.23775 20.8692
0.362808 0.0320451 21.2287
-0.194155 -0.243228 21.1151
-0.355241 -0.335901 20.9071
-0.323751 -0.383013 20.7826
-1.79487 -0.272112 1.80276
-5.91558e-05 -0.565955 1.45731
0.00810268 0.00806068 0.248265
-0.0788124 0.0154644 -0.0507476
0 0 0
-0.0198039 0.070522 1.09004
-0.000137807 0.255616 0.539946
-0.176754 0.0380761 0.715374
-9.88596e-05 -0.0022279 -0.0864576
0.0811231 0.0599343 0.523258
1.80118 -0.273718 1.80002
-0.00791523 0.00802219 0.242538
0.0757912 0.0141196 -0.0467092
0.0188001 0.07032 1.09108
0.183077 0.0392767 0.740098
-0.0803632 0.0589888 0.520573
0.00222957 -0.00344378 0.571331
0.00173851 -0.00655945 0.0807761
3.37519e-06 0.0057652 0.084438
0 0 0
1.79455e-05 0.000175237 0.00956636
0.0179812 0.0255643 0.154662
-0.000112834 0.00688958 0.0205623
1.25447e-05 -0.000972113 0.0172045
-0.00260412 -0.00209454 0.53624
-0.00178248 -0.00696353 0.0895225
0 0 0
-0.00708291 0.0101607 0.060513
0 0 0
0 0 0
-0.00269077 0.0126929 0.149425
7.66043e-07 0.00022876 0.00635328
0 0 0
0 0 0
0.000153937 -0.587091 0.255559
0 0 0
-2.58743e-05 0.0151759 0.0986558
0.000448389 0.174979 0.616761
0 0 0
0.00264467 -0.00476428 0.0367577
0 0 0
0.00267846 0.0127428 0.14832
-2.78939 -1.23628 19.9509
-3.84189 -5.67835 19.9798
-1.58809 -1.14698 18.1556
0.902272 -0.175677 21.0817
0.391545 0.760234 3.30704
0.819252 0.75124 6.22814
-3.23274 0.163853 19.6832
-1.95652 0.0818503 17.5849
-3.1529 3.08371 18.9007
0.610595 -0.418532 21.2107
1.13957 -0.450268 12.5981
0.662151 -0.568502 19.7512
3.75872 -5.15265 20.0126
1.59137 -1.1542 18.1408
2.81685 -1.25533 19.9384
-0.299807 0.730544 2.81009
-0.785979 0.767345 5.98913
-0.906452 -0.173521 21.0667
1.95923 0.0834033 17.5549
3.11745 2.83517 18.977
3.28107 0.180529 19.6674
-1.13866 -0.449107 12.4985
-0.652679 -0.580947 19.8792
-0.613228 -0.417878 21.2137
-0.583839 -0.889148 21.4525
0.374734 0.307793 11.8112
-0.13976 -0.50078 21.4334
-0.0607559 0.107736 9.10026
-1.52559 -0.68876 21.3095
-3.26344 1.10326 20.2792
-0.620624 -0.404058 21.2503
-0.562375 0.440237 18.3668
-0.43781 0.211482 12.3825
0.58145 -0.896702 21.4503
0.0544802 0.105643 9.28172
0.139156 -0.500622 21.4323
3.22842 1.0453 20.4987
1.53405 -0.702562 21.3206
0.602816 0.393055 18.6746
0.617946 -0.402948 21.2444
-0.817884 -0.364478 19.9176
-0.512779 -0.168481 19.8063
-0.524423 -0.297789 19.6218
-0.87538 -0.502178 20.8558
-1.29166 -0.512737 20.2584
-1.84918 -1.37027 20.2261
-0.230289 -0.323572 21.1089
-0.541841 -0.410522 21.0374
-0.270832 -0.703169 21.327
0.184657 -0.0994872 21.2667
-0.0856693 -0.234446 21.1852
0.041282 -0.395424 21.3544
0.655743 -0.0390003 21.0107
0.465249 -0.101415 21.186
0.879015 0.010807 21.3114
0.70831 -0.0793467 21.392
0.756214 -0.0710012 20.6188
1.21704 -0.0208729 20.7998
0.695436 -0.217115 20.5179
1.11134 0.122819 20.0463
-0.971892 -0.265074 19.8026
-0.558402 -0.0814081 19.7431
-0.591182 -0.247145 19.5302
-1.0918 -0.472681 20.8768
-1.57882 -0.249232 20.1772
-0.340632 -0.354659 21.1355
-0.801725 -0.366128 21.0569
0.157596 -0.160739 21.3155
-0.23594 -0.255258 21.2437
0.655548 -0.130552 20.9706
0.435378 -0.186457 21.191
0.728437 -0.188147 21.4046
0.671814 -0.214578 20.5778
1.18494 -0.190697 20.7481
0.473455 -0.255878 20.5043
0.91818 -0.274393 20.4054
-1.06128 -0.0272834 19.7414
-0.545145 0.104156 19.7473
-0.654805 -0.0156633 19.4379
-1.3541 -0.134031 20.7743
-1.36831 0.296254 20.1146
-0.637415 -0.272425 21.1691
-1.03815 0.0317851 20.9472
0.0432098 -0.192969 21.3303
-0.396878 -0.0940796 21.2796
0.524623 -0.275626 21.0727
0.28349 -0.253884 21.1707
0.656443 -0.394101 20.7174
0.471807 -0.337397 20.9378
0.946171 -0.583493 20.7475
0.350351 -0.39049 20.7228
0.580434 -0.483079 20.5344
-0.784495 0.331729 19.8706
-0.541335 0.301566 19.5927
-1.09544 0.389336 20.5628
-1.43412 0.971246 19.9057
-0.717461 0.12809 21.1111
-1.43862 0.593239 20.9286
-0.0402613 -0.103668 21.2439
-0.558935 0.160672 21.5112
0.310627 -0.304829 21.017
0.234467 -0.367418 21.2654
0.348781 -0.323465 20.5524
0.44811 -0.505995 20.9259
0.303104 -0.442344 20.259
-1.18741 -1.33036 18.8837
-0.513838 -0.390787 19.2738
0.00690927 -0.593126 19.0509
-0.0273276 -0.78062 21.0996
0.0461531 -5.6087 21.5999
0.521187 0.111975 16.3174
0.00194946 0.0274437 13.6833
-0.141689 0.450537 9.85334
-0.0032996 0.0902918 7.74643
0.919219 1.27397 10.0309
-0.0431418 -0.71341 0.0232774
1.41365 0.794257 12.9173
1.62065 0.910173 10.9334
-0.0232798 -0.87203 -2.04584
1.3651 0.27784 14.6576
0.0086553 -1.13779 0.571204
-0.593462 -0.211371 19.0838
-0.00314965 -0.504133 18.8378
1.37523 0.00801854 12.0467
1.59119 -0.368301 11.0897
0.0223301 -1.79176 -4.14011
0.971257 -0.446512 15.9856
0.00937167 -1.55794 4.35583
-0.586813 0.247292 19.1085
-0.00563266 -0.0432637 18.5712
1.04293 -0.802939 17.4463
0.695011 -0.952429 20.734
0.0129659 -1.01485 4.78497
0.449808 -0.610133 20.6179
-0.0106732 -2.20737 12.0641
-1.00696 1.07448 19.0738
0.015719 0.593458 19.0254
-1.70528 1.84926 20.4477
0.0725616 3.23576 19.1634
-1.78928 1.24863 21.6519
0.0648273 3.526 20.2586
-0.0194681 -0.170767 21.7312
0.00672589 0.779179 21.4687
0.339089 -0.711484 21.1943
-1.23478e-05 -0.709344 20.991
0.284027 -0.753541 20.828
-0.00138713 -0.938305 21.0637
0.00488323 -0.528041 20.3784
1.19721 -1.25652 18.9515
0.5182 -0.388468 19.2802
0.527132 -0.289522 19.6305
0.0978782 -1.00839 21.3158
1.76278 -1.24437 20.2354
-0.519927 0.0172988 16.7037
0.318191 -0.669881 21.288
0.153316 0.438358 9.53628
-0.0329124 -0.391203 21.3617
-0.820737 1.29886 9.41287
-0.909999 0.0397721 21.1386
-1.42291 0.832582 12.4288
-1.56568 0.98382 10.2573
-1.28344 0.00297654 20.4478
-1.40318 0.308845 14.0572
-1.14864 0.150202 19.9878
0.587507 -0.211999 19.0727
0.594994 -0.255043 19.516
-1.37869 0.0271996 11.6984
-1.59811 -0.373241 10.7116
-1.23114 -0.173511 20.5026
-0.986233 -0.463088 15.7619
-0.950471 -0.250946 20.3582
0.596669 0.246721 19.1214
0.655601 -0.0171916 19.4258
-1.04986 -0.810378 17.3095
-0.695369 -0.95574 20.7373
-0.948627 -0.5892 20.7598
-0.449737 -0.610663 20.6339
-0.591874 -0.496808 20.5381
1.02346 1.0119 19.1228
0.541092 0.29079 19.6137
1.73046 1.71342 20.4643
1.38715 0.884097 19.9463
1.75346 1.16183 21.6329
1.39517 0.565485 20.9302
0.0207804 -0.172211 21.7094
0.549905 0.15015 21.4997
-0.339432 -0.706972 21.1908
-0.234849 -0.365821 21.2594
-0.287562 -0.753658 20.8274
-0.450311 -0.502555 20.9301
-0.303862 -0.440838 20.2658
0.803816 -0.348474 19.9312
0.509259 -0.164598 19.8113
0.867968 -0.495868 20.8527
1.27879 -0.509684 20.2677
0.227809 -0.319988 21.1099
0.534922 -0.407688 21.0376
-0.190646 -0.103082 21.2639
0.0844708 -0.233431 21.1904
-0.673816 -0.0375977 21.0102
-0.472065 -0.0979689 21.1924
-0.731994 -0.0871014 21.4518
-0.764512 -0.0624441 20.5562
-0.708186 -0.222405 20.5266
0.976264 -0.270204 19.7931
0.562811 -0.0824387 19.7341
1.10042 -0.486947 20.8896
1.60495 -0.258772 20.1679
0.337278 -0.353622 21.1371
0.804594 -0.37061 21.066
-0.164219 -0.16619 21.3093
0.234238 -0.254898 21.2478
-0.6606 -0.131772 20.9738
-0.435454 -0.184481 21.1917
-0.747519 -0.195038 21.453
-0.679874 -0.213618 20.573
-0.46546 -0.250763 20.5025
1.08035 -0.0232616 19.7264
0.544079 0.102576 19.7513
1.38153 -0.129854 20.7833
1.34765 0.283246 20.1247
0.639185 -0.273645 21.1751
1.02884 0.0328378 20.9463
-0.0481836 -0.192482 21.3316
0.392322 -0.0939195 21.2792
-0.525706 -0.2776 21.0725
-0.283094 -0.251176 21.1716
-0.663919 -0.399034 20.7191
-0.469742 -0.337937 20.9381
-0.348834 -0.390071 20.7206
0.769389 0.311798 19.8877
1.06951 0.374298 20.5623
0.699397 0.125275 21.106
0.0377289 -0.105418 21.2399
-0.309536 -0.303665 21.0147
-0.352059 -0.324736 20.559
-0.897231 -0.331903 19.8627
-1.36689 -1.27537 18.5539
-1.08278 -0.690979 19.5268
-1.33604 -0.580897 19.305
-0.564846 -0.27382 19.5619
-2.27276 -1.38653 20.1084
-0.987643 -0.495967 20.8623
0.544391 -0.173257 13.7682
-0.952177 -1.07387 21.2989
-1.53291 -1.20104 21.4177
-0.404745 -0.82233 21.3829
-0.279988 -0.331846 21.1185
0.259607 0.0704875 9.88773
-0.0452809 -0.539899 21.2499
-0.268837 -0.704689 21.2898
-0.0399823 -0.462085 21.4076
0.18186 -0.136253 21.2915
-0.0800323 0.233333 3.81519
0.324002 -0.198046 21.4359
0.244581 -0.297151 21.3927
0.929837 -0.0752734 21.1658
0.665504 -0.0877752 20.99
0.853244 1.04823 7.40557
1.15053 0.105361 20.6398
1.17715 -0.210995 20.8644
1.21451 -0.114701 20.7668
0.736605 -0.127076 21.3482
1.47565 0.586426 12.3959
1.19354 0.00797511 19.1518
1.09207 -0.0791342 19.411
1.05479 -0.0513815 20.1163
-1.04344 -0.157413 19.7518
-1.86234 -0.617259 17.7335
-1.55583 0.0201895 19.1005
-0.621727 -0.138501 19.4732
-3.25734 -0.639688 19.7653
-1.24581 -0.333276 20.8458
-2.43994 -0.293857 21.1573
-1.02102 -0.865534 21.4363
-0.502088 -0.345244 21.1521
-1.06309 -0.712811 21.2527
-0.370465 -0.525402 21.3056
0.104113 -0.185665 21.3276
-0.038607 -0.266041 21.368
0.803314 -0.307952 20.8016
0.617295 -0.208046 21.0917
0.786889 0.115556 5.88474
0.844744 -0.528081 21.0444
1.04181 -0.530025 20.8798
0.692307 -0.285392 21.0898
1.32386 -0.558727 13.2416
0.898894 -0.528805 20.6165
0.697864 -0.482138 20.6566
-0.968903 0.2095 19.7796
-1.52426 1.01853 18.288
-0.970273 0.620037 19.5462
-0.613262 0.166522 19.4818
-2.25394 0.925604 19.7295
-1.30342 0.164182 20.6612
-2.97454 2.2305 20.7443
-1.52556 0.887945 20.5511
-1.78769 0.100728 21.0838
-0.76512 -0.062577 21.1537
-2.74731 0.0857327 19.4005
-1.13785 0.409931 21.3166
-0.696167 -0.0376418 21.6006
-0.0121904 -0.15427 21.303
0.473485 -0.0105252 19.2881
-0.0559457 -0.126765 21.4571
0.383664 -0.418891 21.3671
0.420628 -0.322803 21.0128
0.601673 -0.887113 20.7886
0.349709 -0.483056 21.0789
0.60996 -0.622324 20.8512
0.44448 -0.338166 20.5523
0.56494 -0.907048 20.9284
0.354255 -0.488251 20.8672
0.477628 -0.524325 20.4195
1.37835 -1.25006 18.5957
0.0449945 -2.1842 18.0441
-0.00879164 -1.96792 16.6915
0.00171137 -0.557131 18.9345
0.0425879 -7.8948 23.3359
-0.562823 -0.400164 14.6859
0.00846585 -0.687448 18.0272
-0.00421535 0.136294 6.04406
-0.274467 0.0309492 10.3025
-0.00790209 0.120089 10.0694
-0.00084393 0.0453358 2.90754
0.0754959 0.219906 3.55295
0.000164258 0.0613053 2.84362
-0.0094805 -0.643491 -0.469485
-0.776344 1.07086 6.92652
-0.0348645 -0.704604 -3.06356
0.00993729 -0.839297 -3.44661
-0.0195559 -1.76283 -4.97769
-1.48392 0.618397 11.9658
-0.02346 -0.569623 -1.8307
0.0446302 -0.588008 -0.172453
0.00710444 -1.42537 1.7279
1.86423 -0.620099 17.7111
-0.0120401 0.429268 15.5215
-0.00202543 -0.288152 18.6487
-0.765574 0.119662 5.66501
0.00568464 -0.0664537 1.44095
0.0213074 -1.13035 0.337017
-1.33291 -0.583698 13.0263
0.00407551 -1.55548 8.48743
0.0126728 -1.81989 9.32332
1.53844 0.990905 18.3386
0.0411644 1.71141 18.4599
0.00573756 0.359993 18.6937
0.0645518 5.64318 18.2775
2.98445 2.10315 20.7435
0.0662904 3.083 20.179
0.0432748 3.6508 14.8923
2.6457 0.0688327 19.5687
0.049197 3.89558 21.8944
-0.00420851 -0.136995 2.76939
-0.45428 -0.0314544 19.4244
0.00347773 -0.279123 21.0191
-0.00409513 -0.571688 7.58363
-0.603975 -0.889903 20.8009
0.000198024 -0.901542 21.1914
-0.000598129 -1.21064 15.159
-0.562249 -0.913338 20.9356
0.000925068 -1.10904 20.8903
0.000815854 -0.923392 18.0163
0.888136 -0.333251 19.8683
1.07553 -0.665621 19.5456
1.34443 -0.586807 19.2829
0.56686 -0.276682 19.5604
2.2169 -1.322 20.1159
0.974831 -0.49359 20.8672
0.978227 -1.01113 21.2398
1.54424 -1.21982 21.426
0.423038 -0.79951 21.363
0.27668 -0.330349 21.1212
0.0697567 -0.528623 21.2504
0.265123 -0.706343 21.2814
0.0417403 -0.459115 21.4041
-0.189026 -0.140225 21.2839
-0.328043 -0.196595 21.3941
-0.247544 -0.295992 21.393
-0.947041 -0.0625517 21.0644
-0.678034 -0.0883262 20.9929
-1.18098 0.122854 20.5438
-1.18957 -0.209709 20.8311
-1.27096 -0.0940208 20.4696
-0.755792 -0.133591 21.4029
-1.21896 0.0437133 18.9202
-1.11423 -0.0630242 19.2407
-1.08973 -0.0259147 20.062
1.05482 -0.161599 19.7405
1.56551 0.0172071 19.0729
0.622738 -0.139436 19.4612
3.3141 -0.647839 19.7458
1.26989 -0.344542 20.8551
2.46698 -0.300049 21.1689
1.01921 -0.875533 21.4385
0.501474 -0.346374 21.1564
1.05914 -0.720616 21.2273
0.367535 -0.523891 21.2941
-0.110799 -0.186614 21.3268
0.0335666 -0.265018 21.3663
-0.806191 -0.305725 20.8019
-0.621218 -0.209445 21.0893
-0.848748 -0.529008 21.0343
-1.05232 -0.522182 20.7712
-0.705922 -0.295051 21.0975
-0.906552 -0.528912 20.6122
-0.717111 -0.497063 20.6668
0.962992 0.20335 19.7885
0.957366 0.586476 19.5852
0.612857 0.164471 19.4919
2.19598 0.871064 19.7636
1.28896 0.162736 20.6597
1.49276 0.824522 20.5565
1.75836 0.0916738 21.087
0.757544 -0.0633704 21.1544
1.09775 0.379483 21.303
0.68361 -0.0404404 21.5971
0.00932611 -0.154325 21.3024
0.0550515 -0.128562 21.4476
-0.384808 -0.416743 21.3635
-0.420013 -0.322386 21.0124
-0.349285 -0.480045 21.0735
-0.609922 -0.621371 20.8509
-0.448264 -0.341115 20.5544
-0.354122 -0.488927 20.8607
-0.481099 -0.526363 20.4077
-1.2005 -0.653029 19.4193
-1.19545 -1.18773 21.3655
-0.139133 -0.637988 21.2698
0.282447 -0.2643 21.4885
1.16722 -0.0262646 20.6409
1.14528 -0.023104 19.2358
-1.51177 -0.315515 19.1233
-2.06597 -0.8373 21.3535
-0.59132 -0.795765 21.2229
0.0957707 -0.326822 21.2797
1.05302 -0.387581 20.7275
0.964795 -0.430835 20.5951
-1.31198 0.468144 19.2683
-2.15015 0.603466 20.7645
-1.39207 -0.0468953 21.4263
-0.0479248 -0.169607 21.5728
0.539663 -0.557772 21.1184
0.547908 -0.578795 20.6817
0.0214436 -2.17057 17.4439
0.00291521 0.0290912 7.55934
-0.00481122 0.079508 4.19907
0 0 0
-0.0234349 -0.899633 -4.07119
0.0357402 -0.881604 -3.06176
-0.00546964 -1.00465 15.8344
0.00950251 -0.181581 -1.25032
0.0391086 -0.898379 4.23892
0.0415643 1.87628 17.0323
0.0477057 3.74574 19.3932
0 0 0
-0.00165062 -0.233516 4.03288
-0.00328636 -0.896735 12.8766
0.00277299 -1.20707 16.5734
1.19984 -0.645904 19.4267
1.20137 -1.14759 21.3301
0.149501 -0.627787 21.2826
-0.286062 -0.263621 21.4609
-1.18885 -0.0162441 20.5775
-1.1693 0.00223095 19.0351
1.52686 -0.322199 19.1001
2.08197 -0.85143 21.3666
0.584738 -0.799256 21.2017
-0.099381 -0.324963 21.2726
-1.06267 -0.384861 20.708
-0.974035 -0.434496 20.5988
1.29896 0.456897 19.2943
2.10746 0.576213 20.7604
1.3616 -0.0505107 21.4229
0.0449768 -0.171387 21.5681
-0.539411 -0.555597 21.118
-0.548936 -0.582692 20.6798
0 0 0
0.198849 -0.32875 0.421773
0.0426031 -0.190747 0.87478
-0.00532725 -0.0176574 0.11738
-0.0278157 -0.00639328 -0.00748794
0.0569947 0.0338037 0.529407
-2.09739 -0.0978841 2.47046
-0.0888319 0.326411 0.549617
-0.528768 0.119661 1.41324
0 0 0
-0.0101146 -0.00799049 0.062076
0.0122607 0.0064214 0.108332
-0.193006 -0.324255 0.417301
0 0 0
-0.0423541 -0.191548 0.87665
0.0147989 -0.00339578 -0.00387198
0.0121418 -0.0160081 0.112199
-0.0652861 0.0355125 0.567223
0.0887708 0.324462 0.548261
2.13215 -0.0964997 2.49863
0.524779 0.11704 1.39724
0.00993921 -0.00807279 0.0634629
0 0 0
-0.0186915 0.00851573 0.160181
0.0284155 -0.007073 0.313891
0 0 0
-0.00376176 -0.0189214 0.200631
0.00324992 0.0132895 0.13998
-0.00205435 0.0286138 0.540565
-0.0576955 -0.2902 3.14721
-0.00613691 0.00446763 0.112614
0 0 0
-0.219231 -0.184398 1.45634
-0.00544831 -0.02624 0.219917
-0.00270271 -0.000950828 0.070026
-0.0527786 0.0235389 0.112226
0.0698163 0.0628751 0.385015
0 0 0
0 0 0
0.132886 0.0656208 0.795963
-0.0282767 -0.00696541 0.313464
-0.00317632 0.0131616 0.138635
0 0 0
0.00391521 -0.0184119 0.192468
0.00197709 0.028572 0.538908
0 0 0
0.0755 -0.299802 3.22088
0.00671162 0.00391788 0.113907
0.226524 -0.188907 1.47013
0.0450806 0.0208719 0.0976978
0.00605427 -0.0292135 0.255401
0.00197725 -0.000347437 0.0624263
-0.0707796 0.0635793 0.388083
-0.134078 0.0667804 0.797539
0 0 0
0 0 0
-0.0760663 -0.0483457 0.333693
0 0 0
0 0 0
0 0 0
-0.00993171 -0.0211873 0.148118
0.00134754 0.000428919 0.010095
0.00203059 0.0033293 0.0506787
3.1336e-06 -3.41848e-08 9.99277e-08
3.0476e-07 0.000662542 0.0175922
0 0 0
6.016e-06 0.000699284 0.0107412
0 0 0
0.000116267 -0.00939106 0.0603134
-2.07094e-05 0.0606412 0.276874
0 0 0
-0.0123465 0.00964211 0.0710399
0.000292145 0.0375129 0.0152528
0 0 0
0.000126737 0.0366426 0.35907
0 0 0
0 0 0
0.0727517 -0.0460907 0.317351
-0.00125792 0.000411979 0.00957188
0.00863009 -0.0182705 0.1269
2.17739e-05 2.38923e-07 -6.82275e-07
0 0 0
0 0 0
1.32216e-06 0.000640013 0.00983902
0.0123374 0.00963997 0.0709809
0 0 0
0 0 0
-0.000294152 0.0374595 0.36428
0 0 0
0 0 0
-0.00131613 -0.00191455 0.0315077
0 0 0
-7.31419e-05 0.000823483 0.1787
1.6945e-05 4.54583e-05 0.0026777
-0.101253 0.038626 0.558315
0 0 0
2.6934e-05 0.000440043 0.0239717
8.82566e-06 2.44636e-05 0.00222196
-0.00783948 0.0280501 0.406887
-0.564314 0.362077 2.1384
0.000825716 0.0219186 0.13208
-4.6296e-05 0.00112112 0.00343128
3.49306e-05 0.00241162 0.112503
0 0 0
0 0 0
0 0 0
0.00138171 -0.00222109 0.0352916
0 0 0
0.095554 0.0359422 0.532923
0 0 0
0.534414 0.334884 2.06102
0.0082002 0.0268335 0.377391
0 0 0
-0.053522 -0.0225309 0.200915
0 0 0
-0.0105867 -0.00703317 0.223325
0.0156907 -0.012274 0.481816
-0.0301242 -0.0785402 1.09968
-0.109889 -0.0227403 0.630311
-0.0738687 0.0775205 0.492008
-0.00012971 0.00120558 0.0166834
0.000682801 0.00430174 0.0484213
0 0 0
0 0 0
-0.000195597 -8.24398e-05 0.00281562
0.000197705 -8.26144e-05 0.00287041
0 0 0
0 0 0
0 0 0
0 0 0
0 0 0
0 0 0
0 0 0
0 0 0
-0.000511955 0.000358561 0.0114079
0.000505985 0.000354912 0.0112023
0 0 0
0 0 0
0 0 0
0 0 0