# vtk DataFile Version 2.0
tet_velo
ASCII
DATASET UNSTRUCTURED_GRID
POINTS 29498 float
-0.735 0.345 -2.3622
-0.675 0.435 2.41615
-0.755 0.737462 -2.235
-0.705 0.969624 2.255
0.735 0.345 -2.3622
0.675 0.435 2.41615
0.755 0.737394 -2.235
0.705 0.969624 2.255
-0.805838 0.284162 -0.769417
-0.835021 0.264979 0.823367
-0.845731 0.922247 -0.738333
-0.827342 0.997912 0.758334
0.806268 0.283732 -0.769417
0.835029 0.264971 0.823367
0.845741 0.922212 -0.738333
0.827355 0.997902 0.758334
-1.54599 -0.00605064 -3.60693
-1.5494 0.0345922 -2.3712
-1.60163 -0.0136915 -0.775932
-1.61497 -0.0385187 0.838681
-1.52388 0.0674644 2.43558
-1.49294 0.138334 3.67929
-1.49818 0.184558 4.90823
-1.54311 0.261165 -3.57789
-1.54729 0.328873 -2.35265
-1.61479 0.30623 -0.776088
-1.61677 0.28234 0.80913
-1.47914 0.379924 2.38754
-1.46085 0.448058 3.62989
-1.48042 0.49405 4.86197
-1.55254 0.743512 -3.49282
-1.56633 0.808586 -2.26361
-1.64147 0.931464 -0.75257
-1.61892 0.973995 0.751663
-1.4944 0.97606 2.26455
-1.46894 1.04044 3.51088
-1.48262 1.09951 4.75845
-1.57324 1.59926 -3.43748
-1.58566 1.68409 -2.22267
-1.61547 1.82643 -0.742794
-1.6217 1.92649 0.716369
-1.58995 1.96417 2.19725
-1.56012 1.99358 3.41416
-1.54287 2.03508 4.65124
-0.760439 0.00246822 -3.61313
-0.748378 0.0472396 -2.38025
-0.792313 -0.0242954 -0.774718
-0.827711 -0.0500401 0.850832
-0.762716 0.0960633 2.45682
-0.734546 0.159101 3.6937
-0.736617 0.195649 4.91657
-0.758758 0.261329 -3.5798
-0.700752 0.469708 3.64178
-0.720021 0.504646 4.86826
-0.765081 0.714901 -3.48093
-0.707445 1.04415 3.50896
-0.720469 1.10361 4.75804
-0.774958 1.57976 -3.42573
-0.779737 1.66568 -2.20972
-0.806703 1.82321 -0.734989
-0.825688 1.93325 0.715432
-0.811946 1.96709 2.19056
-0.787388 1.99394 3.40748
-0.770279 2.03545 4.64638
0.773242 0.00239262 -3.61313
0.776564 0.0471372 -2.38025
0.813403 -0.0245887 -0.774718
0.797908 -0.0501076 0.850832
0.696919 0.0960471 2.45682
0.73199 0.159078 3.6937
0.762443 0.195616 4.91657
0.761302 0.261276 -3.5798
0.737169 0.469694 3.64178
0.768435 0.504619 4.86826
0.7692 0.714842 -3.48093
0.747758 1.04414 3.50897
0.773801 1.10358 4.75804
0.809656 1.57968 -3.42573
0.819699 1.66561 -2.20972
0.815649 1.82315 -0.734989
0.7818 1.9332 0.715432
0.750265 1.96705 2.19056
0.754233 1.9939 3.40748
0.768691 2.03541 4.64638
1.55264 -0.00622647 -3.60693
1.55993 0.0343559 -2.3712
1.60977 -0.0141121 -0.775932
1.601 -0.0386952 0.838681
1.49637 0.0674056 2.43558
1.49592 0.138275 3.67929
1.52317 0.184485 4.90823
1.5402 0.261023 -3.57788
1.54037 0.328714 -2.35265
1.61193 0.30579 -0.776088
1.62057 0.282195 0.80913
1.48939 0.379891 2.38754
1.49263 0.448014 3.62989
1.52454 0.493987 4.86197
1.55116 0.743381 -3.49282
1.56008 0.808465 -2.26361
1.6375 0.931269 -0.75257
1.62246 0.97389 0.751663
1.50687 0.976031 2.26455
1.50483 1.0404 3.51088
1.53144 1.09945 4.75845
1.60062 1.59911 -3.43748
1.61421 1.68395 -2.22267
1.61975 1.82629 -0.742794
1.58761 1.92638 0.716368
1.54392 1.96409 2.19725
1.53538 1.9935 3.41416
1.54402 2.035 4.65124
-0.764785 0.541231 -2.31838
0 0.290799 -2.4164
-0.803166 0.281834 -1.56581
-0.706404 0.702312 2.35198
0 0.373938 2.47721
-0.835429 0.269571 1.61976
0 0.853579 -2.35115
-0.837837 0.867326 -1.48667
0 1.05477 2.34015
-0.797948 1.01555 1.50667
0.764802 0.541197 -2.3184
0.802852 0.282148 -1.56581
0.706519 0.702312 2.35209
0.835475 0.269525 1.61976
0.837827 0.867259 -1.48667
0.797954 1.01554 1.50667
-0.80998 0.28502 0.026975
-0.882714 0.603204 -0.753875
0.000214959 0.265215 -0.769417
-0.873072 0.631446 0.79085
3.88805e-06 0.241658 0.823367
-0.840815 0.964358 0.0100001
5.29997e-06 1.24941 -0.738333
6.35891e-06 1.51122 0.758334
0.809993 0.285007 0.026975
0.882709 0.602972 -0.753875
0.87309 0.631437 0.79085
0.840817 0.964326 0.0100001
-0.879407 0.572218 -1.52624
-0.872383 0.617325 0.0184876
-0.886506 0.666879 1.56321
0.00010748 0.271936 -1.56581
0.000109424 0.258334 0.026975
1.94402e-06 0.264651 1.61976
0 0.541214 -2.58964
0 0.702312 2.52082
2.64998e-06 1.02114 -1.48667
5.82944e-06 1.49217 0.0100001
3.17945e-06 1.33021 1.50667
0.879405 0.572084 -1.52624
0.872372 0.617204 0.0184876
0.886501 0.666874 1.56321
-1.14115 0.336937 -2.35743
-0.741689 0.19612 -2.37122
-0.746879 0.303164 -2.971
-1.07707 0.407462 2.40184
-0.718858 0.265532 2.43649
-0.687876 0.452354 3.02896
-1.16067 0.773024 -2.24931
-0.76004 0.726182 -2.85797
-0.767369 1.20157 -2.22236
-1.0997 0.972842 2.25977
-0.706223 1.00689 2.88198
-0.758473 1.46836 2.22278
0.755782 0.196069 -2.37122
0.748151 0.303138 -2.971
1.13769 0.336857 -2.35743
0.68596 0.265524 2.43649
0.706085 0.452347 3.02896
1.08219 0.407445 2.40184
0.7621 0.726118 -2.85797
0.787349 1.2015 -2.22236
1.15754 0.772929 -2.24931
0.726379 1.00688 2.88198
0.727633 1.46834 2.22278
1.10593 0.972828 2.25977
-1.21031 0.295196 -0.772752
-0.799076 0.129933 -0.772067
-1.2259 0.273659 0.816249
-0.831366 0.107469 0.837099
-1.2436 0.926855 -0.745452
-0.826217 1.37273 -0.736661
-1.22313 0.985954 0.754998
-0.826515 1.46558 0.736883
0.809836 0.129571 -0.772067
1.2091 0.294761 -0.772752
0.816468 0.107432 0.837099
1.2278 0.273583 0.816249
0.830695 1.37268 -0.736661
1.24162 0.92674 -0.745452
0.804577 1.46555 0.736883
1.22491 0.985896 0.754998
-1.54769 0.0142708 -2.98907
-1.54455 0.127557 -3.59241
-1.15321 -0.00179121 -3.61003
-1.57551 0.0104503 -1.57357
-1.54834 0.181733 -2.36193
-1.14889 0.0409159 -2.37572
-1.6083 -0.0261051 0.0313747
-1.60821 0.146269 -0.77601
-1.19697 -0.0189934 -0.775325
-1.56942 0.0144729 1.63713
-1.61587 0.121911 0.823906
-1.22134 -0.0442794 0.844756
-1.50841 0.102899 3.05743
-1.50151 0.223694 2.41156
-1.1433 0.0817639 2.4462
-1.49556 0.161446 4.29376
-1.47689 0.293196 3.65459
-1.11374 0.148717 3.6865
-1.4893 0.339304 4.8851
-1.1174 0.190103 4.9124
-1.5452 0.295019 -2.96527
-1.54783 0.502338 -3.53535
-1.15093 0.261247 -3.57884
-1.58104 0.317552 -1.56437
-1.55681 0.56873 -2.30813
-1.61578 0.294285 0.0165214
-1.62813 0.618847 -0.764329
-1.54796 0.331132 1.59833
-1.61785 0.628167 0.780396
-1.47 0.413991 3.00872
-1.48677 0.677992 2.32604
-1.47064 0.471054 4.24593
-1.4649 0.74425 3.57038
-1.0808 0.458883 3.63584
-1.48152 0.796779 4.81021
-1.10022 0.499348 4.86511
-1.55944 0.776049 -2.87821
-1.56289 1.17139 -3.46515
-1.15881 0.729207 -3.48687
-1.6039 0.870025 -1.50809
-1.576 1.24634 -2.24314
-1.6302 0.952729 -0.000453557
-1.62847 1.37895 -0.747682
-1.55666 0.975027 1.5081
-1.62031 1.45024 0.734016
-1.48167 1.00825 2.88771
-1.54217 1.47012 2.2309
-1.47578 1.06998 4.13466
-1.51453 1.51701 3.46252
-1.08819 1.0423 3.50992
-1.51274 1.5673 4.70484
-1.10155 1.10156 4.75825
-1.57945 1.64168 -2.83008
-1.1741 1.58951 -3.43161
-1.60057 1.75526 -1.48273
-1.1827 1.67489 -2.2162
-1.61859 1.87646 -0.0132124
-1.21109 1.82482 -0.738891
-1.60582 1.94533 1.45681
-1.22369 1.92987 0.715901
-1.57503 1.97887 2.80571
-1.20095 1.96563 2.19391
-1.55149 2.01433 4.0327
-1.17375 1.99376 3.41082
-1.15657 2.03526 4.64881
-0.754409 0.0248539 -2.99669
-0.759599 0.131899 -3.59646
0.00640136 0.00243042 -3.61313
-0.770346 0.0114721 -1.57748
0.0140926 0.0471884 -2.38025
-0.810012 -0.0371677 0.0380569
0.0105451 -0.024442 -0.774718
-0.795213 0.0230116 1.65383
-0.0149015 -0.0500738 0.850832
-0.748631 0.127582 3.07526
-0.0328983 0.0960552 2.45682
-0.735582 0.177375 4.30514
-0.717649 0.314404 3.66774
-0.00127807 0.15909 3.6937
-0.728319 0.350148 4.89242
0.0129132 0.195633 4.91657
-0.76192 0.488115 -3.53036
0.00127159 0.261302 -3.5798
-0.710387 0.487177 4.25502
-0.704099 0.75693 3.57537
0.0182086 0.469701 3.64178
-0.720245 0.804127 4.81315
0.0242072 0.504633 4.86826
-0.77002 1.14733 -3.45333
0.00205949 0.714871 -3.48093
-0.713957 1.07388 4.1335
-0.747417 1.51905 3.45822
0.0201566 1.04415 3.50897
-0.745374 1.56953 4.70221
0.0266658 1.10359 4.75804
-0.777348 1.62272 -2.81773
0.0173489 1.57972 -3.42573
-0.79322 1.74444 -1.47236
0.0199809 1.66564 -2.20972
-0.816195 1.87823 -0.00977824
0.00447308 1.82318 -0.734989
-0.818817 1.95017 1.453
-0.0219438 1.93323 0.715432
-0.799667 1.98051 2.79902
-0.0308404 1.96707 2.19056
-0.778834 2.01469 4.02693
-0.0165774 1.99392 3.40748
-0.000794051 2.03543 4.64638
0.774903 0.0247649 -2.99669
0.767272 0.131834 -3.59646
1.16294 -0.00191693 -3.61003
0.794983 0.0112742 -1.57748
1.16825 0.0407465 -2.37572
0.805655 -0.0373481 0.0380569
1.21159 -0.0193504 -0.775325
0.747413 0.0229698 1.65383
1.19945 -0.0444014 0.844756
0.714455 0.127563 3.07526
1.09665 0.0817264 2.4462
0.747217 0.177347 4.30514
0.73458 0.314386 3.66774
1.11396 0.148677 3.6865
0.765439 0.350118 4.89242
1.14281 0.190051 4.9124
0.765251 0.488059 -3.53036
1.15075 0.26115 -3.57884
0.752802 0.487156 4.25502
0.742464 0.756916 3.57537
1.1149 0.458854 3.63584
0.771118 0.8041 4.81315
1.14649 0.499303 4.86511
0.789428 1.14726 -3.45333
1.16018 0.729111 -3.48687
0.76078 1.07386 4.1335
0.750996 1.51902 3.45822
1.12629 1.04227 3.50992
0.771246 1.56949 4.70221
1.15262 1.10151 4.75825
0.814678 1.62265 -2.81773
1.20514 1.5894 -3.43161
0.817674 1.74438 -1.47236
1.21695 1.67478 -2.2162
0.798724 1.87817 -0.00977834
1.2177 1.82472 -0.738891
0.766032 1.95013 1.453
1.18471 1.92979 0.7159
0.752249 1.98048 2.79902
1.14709 1.96557 2.19391
0.761462 2.01466 4.02693
1.14481 1.9937 3.41082
1.15636 2.0352 4.64881
1.55628 0.0140647 -2.98907
1.54642 0.127398 -3.59241
1.58485 0.0101219 -1.57357
1.55015 0.181535 -2.36193
1.60538 -0.0264036 0.0313747
1.61085 0.145839 -0.77601
1.54868 0.0143552 1.63713
1.61078 0.12175 0.823906
1.49615 0.10284 3.05743
1.49288 0.223648 2.41156
1.50955 0.16138 4.29376
1.49428 0.293145 3.65459
1.52385 0.339236 4.8851
1.54029 0.294868 -2.96527
1.54568 0.502202 -3.53535
1.57615 0.317252 -1.56437
1.55023 0.568589 -2.30813
1.61625 0.293992 0.0165213
1.62471 0.618529 -0.764329
1.55498 0.331043 1.59833
1.62151 0.628043 0.780396
1.49101 0.413953 3.00872
1.49813 0.677961 2.32604
1.50858 0.471 4.24593
1.49873 0.744209 3.57038
1.52799 0.796717 4.81021
1.55562 0.775923 -2.87821
1.57589 1.17124 -3.46515
1.59879 0.869867 -1.50809
1.58714 1.24621 -2.24314
1.62998 0.95258 -0.000453653
1.62863 1.37878 -0.747682
1.56466 0.974961 1.5081
[...]
POINT_DATA 29498
VECTORS point_vectors float
-3.2943 -3.09326 4.66414
0.124429 0.114626 0.300634
-1.87786 0.993104 3.45601
-0.00543383 -0.0605885 0.0795649
3.29164 -3.09359 4.65797
-0.0950853 0.0436918 0.197191
1.86393 0.990924 3.44019
-0.00404224 -0.00816508 0.0414746
-0.00130206 0.00168862 0.0539629
-0.0320545 -0.0497047 0.702543
-0.0248737 -0.0180488 0.250036
0.0110082 0.019164 0.0701818
0.00186766 0.00240627 0.0814585
0.0274724 -0.0529131 0.722712
0.0244831 -0.0179423 0.248902
-0.0112374 0.0196037 0.0704381
-0.514378 -0.216363 19.8596
-1.2339 -0.640215 20.4421
-0.447871 -0.42984 21.3275
0.0481958 -0.111672 21.5533
0.758595 0.238971 21.4658
1.00072 0.217374 21.0652
1.27536 0.21335 20.8675
-0.555004 -0.140619 19.8105
-1.58217 -0.513964 20.3881
-0.581058 -0.491809 21.3839
0.0436558 -0.195027 21.6195
0.973484 0.0711944 21.476
1.28714 -0.00380185 21.2872
0.906565 -0.203057 21.454
-0.65836 0.0222489 19.7467
-1.80892 0.0427613 20.3485
-1.07799 -0.308958 21.3392
-0.225813 -0.308398 21.6976
0.731664 -0.41979 21.5365
1.12268 -0.517579 20.9235
0.742239 -0.330187 20.7109
-0.506602 0.267816 19.8994
-1.00842 0.544922 20.3487
-0.972412 0.348422 21.1345
-0.340982 -0.019902 21.5644
0.191549 -0.335228 21.4573
0.362494 -0.432228 21.2577
0.345731 -0.295224 20.9377
-0.484742 -0.440719 19.3542
-2.25507 -3.74527 20.6401
-0.177197 -0.328447 20.9269
-0.00438555 0.00901281 20.5709
0.573535 1.46543 16.8714
1.23072 1.63844 17.5055
1.47307 1.32489 16.333
-0.60511 -0.351482 19.1102
1.5943 1.37269 10.4682
1.98922 1.04339 13.3937
-0.763962 0.0744453 18.8599
1.12905 -0.566762 8.46506
1.19066 -0.429901 15.7008
-0.481715 0.588695 19.4497
-1.19601 1.72011 20.024
-1.66273 1.68095 21.097
-0.523166 0.273855 22.1217
0.114403 -0.571536 21.5912
0.233034 -0.780095 21.5025
0.313432 -0.785186 20.1723
0.488941 -0.431562 19.3694
2.30041 -3.53745 20.5787
0.168127 -0.342379 21.0436
-0.0233492 -0.00320823 20.3244
-0.461112 1.13944 15.5298
-1.11653 1.33066 17.0491
-1.25963 1.29553 15.089
0.605803 -0.351797 19.0916
-1.06938 1.05267 9.41763
-1.65796 0.597243 13.2539
0.761897 0.0760676 18.8694
-1.05106 -0.144786 8.18825
-1.13528 -0.452619 15.3201
0.489966 0.579045 19.4638
1.22134 1.64546 20.0413
1.65127 1.65815 21.0969
0.501301 0.314917 22.1466
-0.120545 -0.548404 21.6211
-0.257647 -0.703699 21.5226
-0.412683 -0.72061 20.1403
0.506413 -0.213729 19.8394
1.20116 -0.624733 20.4569
0.438538 -0.433789 21.3169
-0.0549371 -0.122049 21.5186
-0.708219 0.201349 21.4146
-0.932822 0.240559 21.071
-0.953796 0.159915 20.507
0.551418 -0.138667 19.787
1.5918 -0.515911 20.3753
0.57757 -0.493932 21.3788
-0.0456436 -0.198218 21.5973
-0.844493 0.0201026 21.4246
-1.08981 0.117844 20.8791
-0.971049 -0.111309 21.0077
0.658514 0.0217054 19.7288
1.81973 0.0407083 20.3373
1.07858 -0.310827 21.3349
0.221734 -0.30073 21.6736
-0.641637 -0.368115 21.5089
-0.94217 -0.427444 20.8479
-0.810309 -0.294836 21.0454
0.495541 0.258206 19.9107
0.989998 0.527381 20.3512
0.961237 0.34864 21.1281
0.344512 -0.0086221 21.5652
-0.186667 -0.314 21.4246
-0.367719 -0.4018 21.2413
-0.340739 -0.316325 21.0047
-0.712136 -0.0970899 1.16232
0.000202301 -0.12037 0.303772
0.00431852 -0.0133883 0.424366
0.00687221 -0.0114534 0.0267312
-0.0303594 0.0124105 0.0544213
0.11234 0.16968 3.10787
-5.42934e-05 0.0430198 0.0761662
-0.180712 -0.12208 0.495853
-0.0217805 0.014932 -0.0315192
0.0151827 0.0131166 0.0864101
0.698628 -0.09588 1.1438
-0.00430371 -0.0128668 0.392233
0.00154458 -0.00857193 0.0128497
-0.146476 0.150121 3.00199
0.182789 -0.123322 0.501507
-0.0167329 0.0156173 0.0868716
-0.025553 0.0300186 0.821805
0.00016129 -0.000307474 0.00950832
0 0 0
0 0 0
0 0 0
0.00534621 0.0154035 0.0930992
9.72149e-05 0.0420963 0.0865824
-8.96259e-05 -0.00115774 0.0319054
0.0232865 0.0284042 0.821182
-0.00016411 -0.000316103 0.00966659
1.39845e-18 1.12257e-17 5.27262e-17
-0.00535687 0.0153259 0.0927069
0 0 0
0.000103588 0.00296454 0.0161357
0.000627791 0.0041091 0.0392103
0 0 0
0 0 0
0 0 0
0.00109399 -0.0171675 0.382245
0 0 0
1.89386e-05 0.0044123 0.0327043
-1.23033e-05 0.00196135 0.0158566
-1.10779e-05 0.000698945 -0.00167956
0 0 0
-0.000102648 0.00290056 0.0158934
-0.00061039 0.00431796 0.0384137
-3.19694 -1.41867 20.201
-3.83318 -5.88452 20.539
-1.86423 -1.1694 17.9466
1.56571 0.661625 17.8285
0.453459 1.34003 8.51912
0.968381 1.09687 6.65534
-3.63205 0.312387 20.2137
-2.58389 0.631965 17.2678
-2.71938 2.97373 19.8462
1.19358 -0.249198 17.9165
0.230089 -0.39927 4.53972
0.760657 -0.497141 15.9701
3.86633 -5.62703 20.3891
1.86401 -1.16775 17.9453
3.22523 -1.44259 20.194
-0.413501 0.896144 6.92959
-0.508937 0.390581 5.54437
-1.34355 0.516316 17.5994
2.57898 0.629792 17.2791
2.72145 2.86368 19.8537
3.64595 0.317811 20.2094
-0.172254 0.568778 3.91474
-0.926563 -0.387706 14.963
-1.08821 -0.126909 17.7913
-0.402333 -0.832603 21.5688
0.048993 -0.0238387 15.259
0.113999 -0.158616 21.138
-0.0518284 -0.0544474 15.9668
-1.73162 -0.848715 21.6377
-3.87394 1.55124 21.1443
-0.300288 -0.50585 20.8687
-0.43935 0.229405 18.7599
-0.0646355 -0.0416013 15.5721
0.396907 -0.835119 21.5557
-0.0107114 -0.0613035 15.6762
-0.121418 -0.173202 21.1328
3.84478 1.53116 21.1471
1.72755 -0.854138 21.6144
0.258225 0.384466 17.5417
0.297282 -0.49834 20.8778
-0.900048 -0.419144 19.9589
-0.535896 -0.180133 19.8343
-0.547032 -0.337323 19.6208
-0.855753 -0.576536 21.0925
-1.4498 -0.61193 20.4205
-1.90567 -1.49312 20.384
-0.167602 -0.270991 21.4472
-0.500741 -0.456636 21.3585
-0.286631 -0.532263 21.521
0.371136 0.0755123 21.5735
0.044085 -0.141327 21.5695
0.0853095 -0.0687369 21.6683
0.910752 0.286787 21.2916
0.878403 0.182185 21.4888
1.08291 0.744841 21.1944
0.968658 0.216523 20.9479
1.15416 0.0956548 21.1696
1.34433 0.776348 20.571
1.09183 0.0112138 21.2557
1.28762 0.661858 20.2008
-1.11061 -0.321348 19.8381
-0.610996 -0.0722814 19.7636
-0.650741 -0.247626 19.4751
-1.1126 -0.555834 21.1494
-1.72147 -0.25982 20.3874
-0.237974 -0.358386 21.497
-0.798003 -0.490575 21.3721
0.45223 -0.059383 21.7122
-0.0494077 -0.29167 21.6938
1.15178 0.0881018 21.3368
0.95137 -0.218154 21.5383
1.04524 0.141424 20.9534
1.23836 -0.2902 21.067
2.04607 0.607006 18.4821
0.918915 -0.331248 20.6584
1.318 0.303806 18.6038
-1.28521 0.0580175 19.7924
-0.614876 0.187749 19.7771
-0.77812 0.0384025 19.3702
-1.44288 -0.162811 21.0343
-1.42003 0.440639 20.315
-0.660365 -0.362659 21.5943
-1.17412 0.0859814 21.244
0.26443 -0.314667 21.7433
-0.351872 -0.139673 21.6723
0.940215 -0.482535 21.297
0.392764 -0.432804 21.4794
0.86992 -0.510201 20.9669
0.597679 -0.457708 21.1278
1.46973 -0.634262 18.9935
0.47551 -0.328143 21.2043
1.07307 -0.598097 18.8633
-0.793993 0.457905 20.0179
-0.547153 0.403227 19.6872
-1.05302 0.46758 20.7617
-1.23702 1.02777 20.2025
-0.703419 0.166322 21.4537
-1.34216 0.774518 21.1729
-0.0185772 -0.20848 21.4978
-0.452823 0.0798117 21.814
0.308022 -0.43408 21.3095
0.182491 -0.466096 21.4954
0.519824 -0.629553 20.5401
0.342772 -0.648952 21.2744
0.359792 -0.54854 21.4938
-1.26314 -1.41876 18.8663
-0.543443 -0.40061 19.2381
-0.00312332 -0.625669 19.0153
-0.629257 -1.1111 21.8094
0.0464338 -5.67219 21.6904
-0.052626 -0.0722838 20.4664
-0.00234246 -0.459215 17.9585
0.255072 0.650489 18.9122
-0.0166837 -0.0923489 17.1413
0.814221 1.57811 16.8484
-0.316256 0.754534 11.5941
1.50451 1.225 16.5754
1.44562 1.60727 13.461
-0.436301 1.20794 12.0254
1.99582 1.23559 14.0541
0.014348 1.16447 12.947
-0.711239 -0.172172 18.9458
-0.00144733 -0.480481 18.7118
1.99688 1.47527 13.0911
1.81002 0.378072 7.74861
1.11574 -1.04017 -0.936145
1.78817 0.501439 13.2515
0.192321 0.944877 7.99374
-0.643874 0.459109 19.1123
0.00158261 0.128599 18.2377
1.72674 -0.749748 10.7173
0.792959 -1.04367 18.1962
1.04347 -0.635841 -3.61891
0.548381 -1.16108 18.1582
0.221361 -0.807725 1.62999
-0.899993 1.23803 19.4302
0.0124033 0.812529 19.1754
-1.37108 1.60574 20.5583
0.0389586 2.59288 19.8258
-1.28711 1.08321 21.9895
0.0073561 3.37386 20.7476
-0.0466094 -0.31388 21.8576
-0.0383253 0.71907 22.6355
0.197146 -0.68783 21.385
-0.0344927 -0.503653 21.8055
0.131506 -0.606167 21.7126
0.0219187 -0.799159 21.5424
-0.00910428 -0.620669 21.6549
1.26491 -1.36957 18.9145
0.546195 -0.395376 19.2362
0.546922 -0.339341 19.6215
0.624766 -1.0987 21.7971
1.88021 -1.44009 20.3718
0.0382641 -0.0765073 20.4241
0.289597 -0.536637 21.5007
-0.275567 0.575313 18.16
-0.0993449 -0.0752714 21.6225
-0.668503 1.13038 15.9649
-0.972989 0.691148 20.9532
-1.15211 1.34013 15.5105
-1.10379 1.22043 12.667
-1.24879 0.683952 20.7116
-1.47828 1.0624 13.484
-1.02571 0.551351 20.3219
0.711125 -0.173215 18.9465
0.648382 -0.249008 19.474
-1.79919 1.30532 11.4096
-1.15187 0.495458 6.01786
-1.72866 0.367389 19.0926
-1.16316 0.518762 12.0835
-1.24613 -0.11298 19.7824
0.647358 0.450917 19.1279
0.775037 0.0382709 19.3708
-1.72625 -0.862669 11.2214
-0.853986 -0.79794 18.166
-1.3023 -0.426369 19.2249
-0.84924 -1.04563 18.1853
-1.11793 -0.599849 18.3858
0.906296 1.18746 19.4691
0.5448 0.392369 19.6998
1.379 1.55486 20.5714
1.21548 0.9771 20.2139
1.28227 1.12689 21.9998
1.32807 0.763906 21.1681
0.0283673 -0.304251 21.8718
0.449576 0.105239 21.8249
-0.221172 -0.617496 21.3858
-0.193691 -0.432711 21.4815
-0.0385407 -0.563311 21.7676
-0.394676 -0.60825 21.343
-0.323664 -0.503616 21.5219
0.886453 -0.410241 19.9423
0.529848 -0.177432 19.8123
0.847801 -0.579288 21.0803
1.43934 -0.604813 20.4133
0.155214 -0.276542 21.4381
0.495845 -0.459562 21.3503
-0.371254 0.0643251 21.542
-0.047624 -0.150887 21.5422
-0.837367 0.242293 21.2498
-0.791322 0.123471 21.4353
-1.05506 0.296077 20.6956
-1.01132 0.179201 20.975
-0.95974 0.0296031 20.7601
1.10995 -0.319151 19.8158
0.611389 -0.0704042 19.7416
1.11178 -0.560337 21.1444
1.73567 -0.259573 20.3788
0.233091 -0.361129 21.4822
0.796549 -0.493969 21.3678
-0.427511 -0.0712679 21.6537
0.0504685 -0.291079 21.6606
-0.969909 0.0348198 21.2566
-0.819002 -0.214924 21.5025
-0.960303 -0.0029134 20.9094
-1.05678 -0.166059 20.8007
-0.930344 -0.125713 21.1179
1.28417 0.0550418 19.7743
0.61041 0.181395 19.7812
1.44358 -0.163951 21.0357
1.40539 0.432613 20.3193
0.656833 -0.359308 21.5824
1.16811 0.0872902 21.2373
-0.249521 -0.296027 21.685
0.354244 -0.135304 21.6662
-0.77414 -0.385613 21.2594
-0.367336 -0.390332 21.4754
-0.882386 -0.502746 21.5843
-0.477967 -0.389559 21.3215
-0.452375 -0.328082 21.2946
0.781563 0.445127 20.0318
1.03564 0.460518 20.7575
0.710042 0.174419 21.4514
0.0185324 -0.193501 21.5353
-0.301417 -0.393642 21.3228
-0.642242 -0.62495 20.5093
-1.02223 -0.374252 19.8911
-1.5014 -1.38985 18.4623
-1.17408 -0.796075 19.5368
-1.55065 -0.606348 19.215
-0.601429 -0.309682 19.5568
-2.49081 -1.56162 20.3314
-0.980627 -0.579063 21.1263
-0.114608 -0.500331 15.5812
-0.885926 -0.99245 21.4501
-1.33245 -1.16194 21.677
-0.299562 -0.659834 21.5733
-0.194236 -0.304792 21.4668
0.00993865 0.103476 15.248
-0.058774 -0.270905 21.5492
-0.0340906 -0.46593 21.1161
0.113534 -0.120077 21.5329
0.43143 0.0126463 21.6521
0.1654 0.555272 11.8189
0.529629 0.331259 21.6574
0.699635 0.275942 20.1231
1.36723 0.785834 19.8927
1.07116 0.208016 21.2508
0.86985 1.53936 11.5941
1.21868 0.850732 20.9229
1.75533 0.595428 18.6373
1.65245 0.788568 19.7321
1.01598 0.168819 21.0516
1.91962 1.44717 13.8925
1.22814 0.541743 20.8146
1.54632 0.481955 19.4618
1.31427 0.489907 19.3508
-1.20528 -0.157174 19.7939
-2.35371 -0.467014 17.3607
-1.9225 0.208624 19.0453
-0.740894 -0.121842 19.3964
-3.71672 -0.592452 20.1874
-1.29774 -0.42166 21.1318
-2.24757 -0.420854 21.4585
-0.881973 -1.01199 21.4593
-0.404123 -0.422104 21.5576
-0.968133 -0.842725 21.3959
0.0844127 -0.269242 20.2696
0.401364 -0.203388 21.7838
0.498726 -0.184489 19.6674
1.47728 0.191159 16.9121
1.13101 -0.240909 21.3352
0.603062 0.0868699 3.62031
1.30913 -0.48163 18.6318
1.73725 -0.179502 18.7964
1.03379 -0.267019 20.8074
2.0762 0.610363 11.7182
1.84175 -0.757438 18.7791
1.25555 -0.184765 18.0162
-1.05111 0.351922 19.8685
-1.62859 1.45817 18.6038
-0.934205 0.777533 19.7639
-0.68407 0.299459 19.491
-2.17892 1.12651 20.1448
-1.36531 0.257405 20.8657
-2.65957 1.80821 20.7269
-1.32956 0.919699 20.7091
-1.98722 0.280943 21.3802
-0.8013 -0.0490396 21.5606
-2.31516 0.129116 20.5231
-1.00006 0.44624 21.6708
-0.576175 -0.159761 22.0481
0.081298 -0.286393 21.6265
0.765131 -0.122942 16.9628
-0.039534 -0.251054 21.729
0.423869 -0.694121 21.6194
0.555376 -0.522535 21.3141
0.685347 -0.803422 17.5071
0.2711 -0.545649 21.404
0.751757 -0.935858 21.4144
0.560809 -0.737052 21.0082
0.70857 -1.21278 19.0646
0.274351 -0.497631 21.2663
0.533461 -0.723021 19.8041
1.50139 -1.36422 18.4778
0.0230115 -2.29448 17.9534
0.000768839 -2.04441 16.2375
-0.00220569 -0.554957 18.8718
0.0392365 -7.0457 20.6741
0.122897 -0.523501 16.0087
0.00211828 -1.16284 19.9542
-0.0113563 -0.126624 8.7182
-0.0314487 0.0994103 15.1997
-0.0133594 -0.215857 17.1425
-0.0152233 -0.00766628 9.69426
-0.207764 0.491232 11.054
-0.0597163 0.372706 14.2456
-0.541181 0.369328 3.84403
-0.695274 0.863692 10.3879
-0.540406 0.638956 11.3636
-0.524619 -0.389274 -0.299113
-0.13745 0.363806 5.04304
-1.49449 1.45015 12.5636
-0.0726198 1.64808 13.5365
0.628613 0.984756 2.52652
0.103335 1.05467 10.4704
2.35028 -0.46671 17.3656
0.0056429 1.59384 14.5145
0.00203577 -0.232814 18.4077
0.40002 0.29127 1.9744
0.241431 0.0953438 -1.80675
1.9093 -1.06474 -4.15167
-1.75163 0.671817 10.8072
0.179912 -1.36197 -4.05829
0.335516 0.442115 2.92715
1.63394 1.42587 18.6395
0.0233772 1.84297 19.0607
0.00881248 0.674173 18.6453
0.0346043 5.03741 19.6583
2.65629 1.7505 20.7356
0.0283497 2.55774 20.255
0.0125659 5.38586 17.5304
2.27686 0.139736 20.1314
-0.0320647 2.54901 22.5149
-0.00595126 0.0161528 8.08161
-0.957206 -0.0190353 15.8542
-0.0297595 -0.242115 22.0528
-0.11847 -0.186073 4.8863
-0.771577 -0.511684 17.024
-0.0398127 -0.619925 21.3271
-0.333086 -0.988238 10.4409
-0.834418 -1.18863 19.3178
0.0970444 -1.08056 21.3358
-0.209287 -1.17402 16.4522
1.01355 -0.367985 19.8722
1.16612 -0.784077 19.5464
1.55037 -0.607633 19.209
0.601039 -0.308897 19.5581
2.44557 -1.51994 20.3236
0.974105 -0.580958 21.1146
0.886852 -0.981431 21.4245
1.32682 -1.16936 21.6748
0.303238 -0.66282 21.5606
0.185673 -0.309147 21.4549
0.0473563 -0.275028 21.5361
0.0284683 -0.472519 21.1068
-0.124852 -0.12561 21.4685
-0.419943 -0.00272105 21.6075
-0.530279 0.329394 21.5129
-0.679803 0.235498 20.1099
-1.21804 0.68416 19.3326
-0.921075 0.151935 21.2266
-1.09331 0.695723 20.653
-1.36504 0.410692 18.5431
-1.47844 0.643019 19.8438
-1.15516 0.225784 20.5836
-1.24991 0.689506 20.9065
-1.69046 0.396079 19.1464
-1.19528 0.111618 19.9183
1.20537 -0.157139 19.7844
1.92121 0.209369 19.0428
0.740041 -0.121961 19.3942
3.73633 -0.596963 20.1685
1.30375 -0.423446 21.1308
2.24971 -0.422757 21.461
0.874157 -1.01544 21.4294
0.399409 -0.421246 21.5438
0.963463 -0.838617 21.3848
-0.0846072 -0.277761 20.2943
-0.378269 -0.197328 21.7251
-0.49026 -0.170198 19.7283
-1.25538 0.220138 16.6989
-0.937975 -0.224105 21.363
-1.04198 -0.259065 18.7487
-1.5161 -0.0991608 18.6415
-1.00406 -0.250675 21.1472
-1.45072 -0.481715 18.2375
-1.10234 -0.306224 18.8858
1.03832 0.344878 19.8767
0.920286 0.734755 19.7886
0.683219 0.296746 19.5002
2.15107 1.08865 20.152
1.35271 0.255492 20.8618
1.31574 0.891927 20.7125
1.97305 0.279767 21.3728
0.803909 -0.0491378 21.5531
1.00064 0.469629 21.6721
0.581082 -0.146174 22.0548
-0.0771358 -0.274677 21.6165
0.0165808 -0.243931 21.7252
-0.430082 -0.627616 21.5408
-0.509961 -0.443388 21.2339
-0.27657 -0.503542 21.3914
-0.679512 -0.838504 21.3491
-0.614787 -0.693219 21.0547
-0.157378 -0.427073 21.3283
-0.636659 -0.659874 19.92
-1.3671 -0.770769 19.3681
-1.05698 -1.0926 21.5493
-0.0212063 -0.357375 21.4603
0.649947 0.317679 21.1568
1.55327 0.828553 19.8751
1.41758 0.522945 19.9052
-1.81476 -0.260803 19.0735
-1.87396 -0.926323 21.7783
-0.250596 -0.709847 20.6654
0.672963 0.115508 19.1993
1.70865 -0.00218329 17.9141
1.77723 -0.260328 19.0865
-1.42165 0.723844 19.4297
-2.04099 0.648176 20.896
-1.35956 -0.00568009 21.9147
0.0780225 -0.413782 21.9392
0.577756 -0.81165 21.2578
0.669216 -0.865821 21.2606
0.0128087 -2.31016 17.1533
-0.010441 -0.255911 7.9824
-0.0131599 -0.0390872 8.81159
-0.086524 0.250301 6.78382
-1.07522 0.109972 4.07818
0.277126 1.3636 8.28822
0.00476182 -0.66844 14.9407
0.644074 -0.475807 -2.56412
0.390183 -0.213219 -2.16902
0.0242953 2.60885 17.4922
0.0147712 3.49048 20.0971
-0.0116249 1.12988 8.70755
-0.0126948 -0.337339 5.7463
-0.368392 -0.35901 7.64417
-0.0656402 -1.18792 12.2446
1.36113 -0.766908 19.3721
1.05902 -1.08321 21.5276
0.0116765 -0.362848 21.4414
-0.634766 0.305557 20.9019
-1.26497 0.622563 19.7072
-1.55517 0.546851 19.6193
1.81506 -0.261929 19.0681
1.87298 -0.932921 21.782
0.246049 -0.712134 20.6611
-0.650416 0.111965 19.2012
-1.27079 0.0504181 18.0387
-1.58749 -0.045772 19.224
1.40918 0.699074 19.4503
2.01831 0.636629 20.8924
1.36865 0.00457333 21.9151
-0.102642 -0.392986 21.9092
-0.530488 -0.652538 21.2053
-0.618938 -0.822487 21.4656
-0.91956 -0.174756 1.1218
-0.0319624 -0.604449 1.32202
-0.0134312 -0.0473124 0.6067
0.0594475 -0.0191132 0.17319
-0.0232644 0.023637 0.0764065
0.0730765 0.0803504 0.459571
-0.439702 0.00797496 0.55279
-0.00858708 0.370029 0.795968
-0.107763 0.0146766 0.408831
0.000764091 -0.00430907 0.00496583
-0.017811 0.00155328 -0.0173123
0.0177609 -0.00928837 0.192325
0.0315505 -0.526482 1.1385
0.942859 -0.17933 1.15012
0.0127866 -0.0463931 0.592431
-0.00980646 0.00827053 0.0421189
-0.0285499 -0.0319138 0.113591
-0.0767659 0.0655928 0.425246
0.00333501 0.358624 0.780912
0.453518 0.00803853 0.569693
0.106486 0.0148128 0.404851
-0.0256032 0.0132687 -0.0405793
0.000940009 -0.000588029 0.00141091
-0.0252196 0.00555571 0.179678
-0.014068 0.0309139 0.563817
-0.0043739 0.0172175 0.555724
0.000810363 0.00027792 0.0288587
0 0 0
-0.00575626 0.0777794 1.7398
-0.0714491 0.0440199 1.48879
0 0 0
0 0 0
-0.115484 -0.0897637 0.351569
-0.000124953 -0.000416401 0.00731951
0.0172511 0.0433581 0.469148
-0.0301654 0.0189684 0.0445113
0.000288854 0.000506035 0.00207845
0 0 0
0.0193877 0.0303933 0.101966
0.102927 0.0140641 0.498389
0.0147432 0.0264668 0.531512
0 0 0
0.00271969 0.0102445 0.428064
-0.000840571 0.000253712 0.0298927
0.00506227 0.0710734 1.74544
0 0 0
0.0639783 0.0388617 1.46816
0 0 0
0.116198 -0.0902542 0.357181
0.0297353 0.0187003 0.0439165
0.000127977 -0.000424625 0.00747693
-0.0172846 0.0433603 0.469094
-0.000400006 0.000699381 0.00278625
-0.105289 0.0154407 0.497463
0 0 0
-0.0195528 0.030667 0.102288
-0.0139322 -0.00965609 0.184233
-0.552017 -0.0122042 0.431236
2.61501e-06 6.61632e-06 -0.000248999
0 0 0
-0.00515779 -0.0028773 0.137891
0 0 0
0.00298078 -4.4123e-05 0.0184341
0 0 0
0 0 0
-0.0212483 -0.0120611 -0.00303938
-2.18749e-06 -6.95567e-06 -0.000128746
0 0 0
0.0359793 5.06689 5.09645
5.15648e-06 0.0004465 0.00245552
-0.000662046 -0.00164429 0.0228504
-0.0033606 0.000869813 0.00939132
0 0 0
0 0 0
0.0133606 0.0163328 0.130331
-0.000858703 -0.000225775 0.000885308
0.544808 -0.00810382 0.436978
0.0138947 -0.00969657 0.183473
0 0 0
0.00513858 -0.00309142 0.138232
0 0 0
-0.00259313 0.000231341 0.0159857
0 0 0
-1.43845e-05 4.2344e-05 0.000836085
0.00311414 0.000803229 0.00850625
0.000676053 -0.00169173 0.023361
0.00059703 -0.000222246 0.00097604
-0.0139726 0.0184142 0.127815
0.000107787 0.0120002 0.100397
0 0 0
0 0 0
5.82399e-06 0.000117535 0.00101751
-0.000191261 0.000405951 0.0593549
0 0 0
7.10361e-05 0.00228656 0.0102593
0 0 0
0 0 0
0 0 0
0.000429119 0.00656993 0.030396
-0.105356 0.19681 2.3049
-2.39989e-19 -1.4582e-18 -4.91232e-18
-2.17554e-05 0.0690819 0.221916
-6.29172e-07 3.48597e-06 0.000324099
-0.000133257 -0.0043709 0.0245734
0 0 0
-0.000123709 0.011886 0.101277
0 0 0
-3.47578e-06 6.85151e-05 0.000599631
-6.38764e-05 0.00205524 0.00923777
0 0 0
0.101203 0.199566 2.3047
-0.000380556 0.00643135 0.0299052
-0.020996 -0.0214655 0.290478
0 0 0
0 0 0
0 0 0
0.000134829 0.000881857 0.0122446
0.0011294 0.00912448 0.0742192
-0.00122611 0.0281533 0.184411
0.00127322 0.0123008 0.0450168
0.0011161 0.00401109 0.0638159
0 0 0
0.00772886 0.00183211 0.0526111
0.00309425 -0.000981859 0.026566
0 0 0
0 0 0
0.000439368 0.000228946 0.0240954