# vtk DataFile Version 2.0
tet_velo
ASCII
DATASET UNSTRUCTURED_GRID
POINTS 29498 float
-0.705 0.165 -1.88895
-0.626043 0.255 1.995
-0.695 0.502623 -1.885
-0.645 0.585 1.99977
0.705 0.165 -1.88895
0.626044 0.255 1.995
0.695 0.502648 -1.885
0.645 0.585 1.99977
-0.746305 0.127376 -0.5943
-0.759193 0.118169 0.70035
-0.823784 0.675532 -0.590077
-0.823606 0.71948 0.704847
0.746129 0.127552 -0.5943
0.759882 0.11748 0.70035
0.823772 0.675538 -0.590077
0.8236 0.719482 0.704847
-1.48079 -0.125487 -2.92691
-1.47776 -0.0875497 -1.89108
-1.5076 -0.113204 -0.596437
-1.49744 -0.121 0.698151
-1.40585 -0.0380989 1.99279
-1.38093 -0.00424833 3.0286
-1.3901 0.0035009 4.06444
-1.47598 0.09682 -2.92484
-1.47634 0.157786 -1.88898
-1.52485 0.151262 -0.594281
-1.50419 0.130495 0.700391
-1.36427 0.188311 1.99508
-1.35229 0.218577 3.03089
-1.37566 0.228947 4.06673
-1.47361 0.507893 -2.92077
-1.48306 0.568136 -1.88492
-1.57864 0.682144 -0.590036
-1.5557 0.690346 0.704866
-1.3907 0.607046 1.99974
-1.3682 0.635377 3.03554
-1.38653 0.668691 4.07134
-1.4839 1.24335 -2.91446
-1.49679 1.3169 -1.87857
-1.53906 1.42788 -0.583596
-1.55744 1.46652 0.711434
-1.5228 1.42297 2.0064
-1.48609 1.39963 3.04229
-1.46472 1.40504 4.07811
-0.736472 -0.123435 -2.92689
-0.719774 -0.0827466 -1.89105
-0.74329 -0.126444 -0.596441
-0.75911 -0.127702 0.698116
-0.699528 -0.00115917 1.99273
-0.676615 0.0204782 3.02855
-0.680632 0.0153673 4.06442
-0.733415 0.0920523 -2.92483
-0.647854 0.242095 3.03086
-0.667603 0.238595 4.06671
-0.72779 0.479774 -2.9208
-0.658657 0.631547 3.03555
-0.675362 0.6675 4.07134
-0.723072 1.22625 -2.91449
-0.725306 1.30192 -1.8786
-0.762849 1.42774 -0.583619
-0.798298 1.47321 0.711436
-0.788837 1.4203 2.00642
-0.759631 1.39312 3.0423
-0.739064 1.39954 4.07812
0.721613 -0.123428 -2.92689
0.730157 -0.0827208 -1.89105
0.752513 -0.126412 -0.596441
0.734341 -0.128142 0.698116
0.650052 -0.00133299 1.99273
0.683179 0.0203466 3.02855
0.713674 0.0152282 4.06442
0.710377 0.0920594 -2.92483
0.683851 0.242007 3.03086
0.716141 0.238472 4.06671
0.715716 0.479785 -2.9208
0.688828 0.631481 3.03555
0.716289 0.667395 4.07134
0.782727 1.22624 -2.91449
0.799642 1.30191 -1.8786
0.796346 1.42772 -0.583619
0.7469 1.47316 0.711436
0.694731 1.42023 2.00642
0.693471 1.39303 3.0423
0.707861 1.39944 4.07812
1.4634 -0.125478 -2.92691
1.47523 -0.0875134 -1.89108
1.50899 -0.113239 -0.596437
1.48814 -0.121585 0.698151
1.39086 -0.0385285 1.99279
1.39398 -0.00455962 3.0286
1.42319 0.00320961 4.06444
1.45335 0.0968333 -2.92484
1.46606 0.157822 -1.88898
1.52123 0.151321 -0.594281
1.51072 0.129871 0.700391
1.37932 0.187937 1.99508
1.38709 0.218315 3.03089
1.42154 0.22868 4.06673
1.46314 0.507907 -2.92077
1.47977 0.56816 -1.88492
1.57793 0.682171 -0.590036
1.56016 0.690142 0.704866
1.40186 0.606805 1.99974
1.39654 0.635172 3.03554
1.42497 0.668461 4.07134
1.53446 1.24333 -2.91446
1.55537 1.31688 -1.87857
1.56468 1.42783 -0.583597
1.5189 1.46641 0.711434
1.45146 1.4228 2.0064
1.43307 1.39944 3.04229
1.43905 1.40483 4.07811
-0.675097 0.333812 -1.86207
0 0.166355 -1.8876
-0.766384 0.105456 -1.24163
-0.635844 0.42 1.99771
4.76837e-07 0.219137 2.03086
-0.721175 0.158028 1.34768
0 0.589641 -1.97201
-0.842494 0.67218 -1.23754
0 0.661269 2.07604
-0.837763 0.7557 1.35231
0.675098 0.333824 -1.86207
0.766369 0.105471 -1.24163
0.635807 0.42 1.99767
0.721043 0.158161 1.34768
0.842505 0.672211 -1.23754
0.837775 0.755716 1.35231
-0.747328 0.128194 0.053025
-0.815804 0.401454 -0.592188
-8.75908e-05 0.141283 -0.5943
-0.867698 0.418825 0.702598
0.000344679 0.124483 0.70035
-0.823322 0.697133 0.057385
-5.65821e-06 0.978328 -0.590077
-3.18209e-06 1.21327 0.704847
0.74711 0.128412 0.053025
0.815801 0.401545 -0.592188
0.867518 0.418481 0.702598
0.82331 0.697134 0.057385
-0.838527 0.367633 -1.23958
-0.820513 0.41014 0.055205
-0.882877 0.419412 1.34999
-4.37954e-05 0.131443 -1.24163
0.000128544 0.141284 0.053025
0.000172578 0.150737 1.34768
0 0.333818 -1.97783
2.38419e-07 0.42 2.10185
-2.82911e-06 0.817383 -1.23754
-4.42015e-06 1.25579 0.057385
-1.59104e-06 1.01827 1.35231
0.838532 0.367684 -1.23958
0.820512 0.410013 0.055205
0.882889 0.419241 1.34999
-1.09067 0.161393 -1.88896
-0.712387 0.0411267 -1.89
-0.719207 0.128526 -2.40689
-0.995157 0.221656 1.99504
-0.662785 0.12692 1.99386
-0.636949 0.248548 2.51293
-1.08903 0.53538 -1.88496
-0.711395 0.491198 -2.4029
-0.710153 0.90227 -1.8818
-1.01785 0.596023 1.99976
-0.651828 0.608274 2.51766
-0.716918 1.00265 2.0031
0.717579 0.0411396 -1.89
0.707689 0.12853 -2.40689
1.08553 0.161411 -1.88896
0.638048 0.126834 1.99386
0.654947 0.248504 2.51293
1.00268 0.221468 1.99504
0.705358 0.491216 -2.4029
0.747321 0.902279 -1.8818
1.08738 0.535404 -1.88496
0.666914 0.608241 2.51766
0.669865 1.00261 2.0031
1.02343 0.595903 1.99976
-1.13558 0.139319 -0.594291
-0.744797 0.000465927 -0.59537
-1.13169 0.124332 0.70037
-0.759152 -0.00476643 0.699233
-1.20121 0.678838 -0.590056
-0.793316 1.05164 -0.586848
-1.18965 0.704913 0.704856
-0.810952 1.09634 0.708142
0.749321 0.000570035 -0.59537
1.13368 0.139436 -0.594291
0.747112 -0.00533094 0.699233
1.1353 0.123676 0.70037
0.810059 1.05163 -0.586848
1.20085 0.678854 -0.590056
0.78525 1.09632 0.708142
1.19188 0.704812 0.704856
-1.47927 -0.106518 -2.409
-1.47839 -0.0143334 -2.92587
-1.10863 -0.124461 -2.9269
-1.49268 -0.100377 -1.24376
-1.47705 0.0351183 -1.89003
-1.09877 -0.0851482 -1.89107
-1.50252 -0.117102 0.0508567
-1.51622 0.019029 -0.595359
-1.12544 -0.119824 -0.596439
-1.45165 -0.0795494 1.34547
-1.50081 0.00474731 0.699271
-1.12827 -0.124351 0.698133
-1.39339 -0.0211736 2.51069
-1.38506 0.0751063 1.99394
-1.05269 -0.019629 1.99276
-1.38552 -0.000373718 3.54652
-1.36661 0.107164 3.02974
-1.02877 0.00811496 3.02857
-1.38288 0.116224 4.06559
-1.03537 0.00943408 4.06443
-1.47616 0.127303 -2.40691
-1.4748 0.302356 -2.9228
-1.1047 0.0944362 -2.92483
-1.5006 0.154524 -1.24163
-1.4797 0.362961 -1.88695
-1.51452 0.140878 0.0530548
-1.55174 0.416703 -0.592159
-1.43423 0.159403 1.34774
-1.52994 0.41042 0.702628
-1.35828 0.203444 2.51299
-1.37749 0.397679 1.99741
-1.36398 0.223762 3.54881
-1.36025 0.426977 3.03322
-1.00007 0.230336 3.03088
-1.3811 0.448819 4.06903
-1.02163 0.233771 4.06672
-1.47834 0.538014 -2.40284
-1.47876 0.875622 -2.91761
-1.1007 0.493833 -2.92078
-1.53085 0.62514 -1.23748
-1.48993 0.94252 -1.88174
-1.56717 0.686245 0.0574148
-1.55885 1.05501 -0.586816
-1.4732 0.648696 1.3523
-1.55657 1.07844 0.70815
-1.37945 0.621211 2.51764
-1.45675 1.01501 2.00307
-1.37737 0.652034 3.55344
-1.42715 1.0175 3.03891
-1.01343 0.633462 3.03554
-1.42563 1.03687 4.07472
-1.03095 0.668095 4.07134
-1.49035 1.28013 -2.39651
-1.10349 1.2348 -2.91447
-1.51793 1.37239 -1.23108
-1.11105 1.30941 -1.87859
-1.54825 1.4472 0.0639188
-1.15095 1.42781 -0.583607
-1.54012 1.44475 1.35892
-1.17787 1.46987 0.711435
-1.50445 1.4113 2.52434
-1.15582 1.42163 2.00641
-1.47541 1.40234 3.5602
-1.12286 1.39638 3.04229
-1.10189 1.40229 4.07812
-0.728123 -0.103091 -2.40897
-0.734943 -0.0156915 -2.92586
-0.00742932 -0.123432 -2.92689
-0.731532 -0.104596 -1.24375
0.00519173 -0.0827337 -1.89105
-0.7512 -0.127073 0.0508377
0.0046118 -0.126428 -0.596441
-0.729319 -0.0644305 1.34542
-0.0123844 -0.127922 0.698116
-0.688072 0.00965954 2.51064
-0.0247379 -0.00124608 1.99273
-0.678624 0.0179228 3.54649
-0.662235 0.131287 3.02971
0.00328158 0.0204124 3.02855
-0.674117 0.126981 4.06557
0.016521 0.0152977 4.06442
-0.730603 0.285913 -2.92282
-0.0115188 0.0920559 -2.92483
-0.657728 0.240345 3.54879
-0.653256 0.436821 3.0332
0.0179981 0.242051 3.03086
-0.671482 0.453047 4.06903
0.0242694 0.238534 4.06671
-0.725431 0.853011 -2.91765
-0.00603717 0.479779 -2.9208
-0.667009 0.649523 3.55344
-0.709144 1.01234 3.03893
0.0150855 0.631514 3.03555
-0.707213 1.03352 4.07473
0.0204638 0.667447 4.07134
-0.724189 1.26408 -2.39655
0.0298273 1.22625 -2.91449
-0.744077 1.36483 -1.23111
0.0371682 1.30191 -1.8786
-0.780573 1.45047 0.0639089
0.0167488 1.42773 -0.583619
-0.793568 1.44675 1.35893
-0.0256989 1.47318 0.711436
-0.774234 1.40671 2.52436
-0.0470531 1.42026 2.00642
-0.749347 1.39633 3.56021
-0.0330797 1.39308 3.0423
-0.0156015 1.39949 4.07812
0.725885 -0.103074 -2.40897
0.715995 -0.0156842 -2.92586
1.0925 -0.124453 -2.9269
0.741335 -0.104566 -1.24375
1.10269 -0.0851171 -1.89107
0.743427 -0.127277 0.0508377
1.13075 -0.119825 -0.596439
0.692197 -0.0647375 1.34542
1.11124 -0.124864 0.698133
0.666615 0.00950679 2.51064
1.02046 -0.0199307 1.99276
0.698426 0.0177874 3.54649
0.683515 0.131177 3.02971
1.03858 0.00789347 3.02858
0.714908 0.12685 4.06557
1.06843 0.0092189 4.06443
0.713047 0.285922 -2.92282
1.08186 0.0944463 -2.92483
0.699996 0.24024 3.54879
0.686339 0.436744 3.0332
1.03547 0.230161 3.03088
0.716215 0.452933 4.06903
1.06884 0.233576 4.06672
0.749221 0.853014 -2.91765
1.08943 0.493846 -2.92078
0.702559 0.649438 3.55344
0.69115 1.01226 3.03893
1.04269 0.633327 3.03555
0.712075 1.03342 4.07473
1.07063 0.667928 4.07134
0.791184 1.26408 -2.39655
1.15859 1.23479 -2.91447
0.797994 1.36482 -1.23111
1.1775 1.3094 -1.87859
0.771623 1.45044 0.0639089
1.18051 1.42778 -0.583608
0.720816 1.44669 1.35893
1.1329 1.46979 0.711435
0.694101 1.40663 2.52436
1.07309 1.42151 2.00641
0.700666 1.39624 3.56021
1.06327 1.39624 3.04229
1.07346 1.40214 4.07812
1.46931 -0.106496 -2.409
1.45837 -0.0143222 -2.92587
1.49211 -0.100376 -1.24376
1.47065 0.0351541 -1.89003
1.49856 -0.117412 0.0508566
1.51511 0.019041 -0.595359
1.4395 -0.0800567 1.34547
1.49943 0.00414309 0.699271
1.39242 -0.0215441 2.51069
1.38509 0.0747041 1.99394
1.40859 -0.000675006 3.54652
1.39053 0.106878 3.02974
1.42237 0.115945 4.06559
1.4597 0.127327 -2.40691
1.45824 0.30237 -2.9228
1.49365 0.154571 -1.24163
1.47291 0.362991 -1.88695
1.51598 0.140596 0.0530547
1.54958 0.416746 -0.592159
1.44502 0.158904 1.34774
1.53544 0.410007 0.702628
1.3832 0.203126 2.51299
1.39059 0.397371 1.99741
1.40431 0.223498 3.54881
1.39181 0.426743 3.03322
1.42325 0.44857 4.06903
1.47146 0.538034 -2.40284
1.4988 0.875621 -2.91761
1.52885 0.625165 -1.23748
[...]
POINT_DATA 29498
VECTORS point_vectors float
-4.05425 -5.69242 9.54824
0.0844124 0.072911 0.254379
-1.58067 0.878942 2.29561
-0.0128617 -0.061204 0.0234809
4.05847 -5.67847 9.52921
-0.0852541 0.0720153 0.25407
1.57778 0.882261 2.30088
0.0130502 -0.0617615 0.0236777
0.0174756 0.00805789 0.370418
0.043575 -0.00018694 0.44544
-0.0221559 -0.0717422 0.436573
0.116521 0.190983 0.44906
-0.0167721 0.00790112 0.362011
-0.0413146 -0.00427554 0.438338
0.0298881 -0.0816377 0.482675
-0.115685 0.189874 0.445719
-0.596607 -0.260448 19.819
-1.26253 -0.67165 20.4055
-0.47466 -0.439202 21.2326
0.0330653 -0.217511 21.421
0.836849 0.134324 21.4107
1.22337 0.232601 20.9647
0.970665 0.138951 20.4679
-0.697905 -0.181182 19.7333
-1.62041 -0.541827 20.3356
-0.635692 -0.48126 21.2754
-0.0452409 -0.315185 21.4668
1.01955 -0.0786547 21.466
1.34738 0.0207682 21.0329
1.02753 0.10539 20.581
-0.737055 -0.00570691 19.6724
-1.76884 0.00542012 20.2171
-0.991663 -0.321336 21.2152
-0.258395 -0.335597 21.4991
0.840579 -0.564839 21.4553
1.19537 -0.622822 20.9148
0.975406 -0.449499 20.3353
-0.568555 0.284994 19.8066
-1.1343 0.563929 20.1969
-1.07067 0.282865 21.0125
-0.424328 -0.0768779 21.3817
0.10545 -0.439573 21.278
0.382218 -0.57242 21.0466
0.410226 -0.72996 20.6472
-0.618184 -0.591982 19.2145
-1.92532 -3.74754 20.6708
-0.205284 -0.197839 20.2467
0.287143 0.0400967 19.2054
0.604725 1.37951 14.949
1.30423 1.83313 16.9022
1.04774 1.43794 18.9877
-0.746843 -0.447591 18.9696
2.16895 1.45144 10.8815
1.88681 1.02357 14.5343
-0.844885 0.00929308 18.7621
1.62064 -0.381881 6.28845
2.26916 0.12342 11.8763
-0.559058 0.612133 19.2908
-1.49407 2.01551 19.6287
-2.15895 1.80907 20.8829
-0.769964 0.201093 22.0239
-0.270759 -0.495482 20.5655
0.229971 -1.05411 19.566
0.199988 -1.05876 20.3379
0.611918 -0.600593 19.2031
1.9712 -3.7063 20.6556
0.203597 -0.199557 20.436
-0.285772 0.0476973 18.824
-0.509836 1.32395 14.5435
-1.32208 1.82205 16.9539
-1.04221 1.33989 19.1876
0.73465 -0.461052 18.9405
-2.20233 1.41339 11.5423
-1.89852 0.887222 14.8058
0.833945 0.0101474 18.7458
-1.6695 -0.491881 7.01527
-2.18928 -0.021379 12.8253
0.584857 0.587801 19.3395
1.5352 1.85256 19.6927
2.14024 1.69176 20.9129
0.790542 0.241959 22.1156
0.258742 -0.427074 19.8771
-0.177621 -1.00505 19.4798
-0.186676 -1.07104 20.2895
0.602574 -0.267907 19.8088
1.26763 -0.678212 20.4053
0.476603 -0.439562 21.2299
-0.0310906 -0.221804 21.4265
-0.848495 0.141926 21.4206
-1.19621 0.218817 20.9751
-0.96936 0.120928 20.4008
0.708458 -0.188049 19.7133
1.64657 -0.557652 20.3309
0.636283 -0.485123 21.2761
0.0470382 -0.312904 21.4572
-0.991931 -0.0844768 21.4584
-1.28936 -0.00865738 21.0188
-1.01877 0.067433 20.4834
0.741621 -0.00540146 19.6604
1.77825 0.00737109 20.2142
0.992685 -0.321612 21.2144
0.257602 -0.334161 21.4971
-0.819487 -0.555897 21.4462
-1.14328 -0.609779 20.9201
-0.922182 -0.376772 20.4107
0.555235 0.267733 19.8344
1.07888 0.504068 20.2209
1.03676 0.27573 21.0088
0.443964 -0.0836331 21.4032
-0.0817335 -0.469853 21.3026
-0.365372 -0.629339 21.0569
-0.442949 -0.780785 20.5924
0 0 0
-4.19619e-06 -0.000486076 0.00428011
-0.0108438 -0.0280877 1.27054
0.0307971 -0.0387666 0.0424873
-4.30436e-05 0.00640883 0.0323898
0.00538182 0.00519152 0.248541
7.56692e-05 0.0905096 0.16819
-0.2502 -0.187171 1.60775
-0.000381813 -0.00703929 0.00015671
0.0249133 -0.0590904 0.510498
0 0 0
0.0106005 -0.0279017 1.27362
-0.03116 -0.0390142 0.0430179
-0.00541123 0.00522697 0.246494
0.250352 -0.188543 1.60666
-0.0249353 -0.0589223 0.510769
0.0242962 0.00012113 0.638052
3.13298e-05 -0.000113973 0.00115976
0 0 0
-0.00667354 0.00254844 0.0254398
-0.000112189 -0.00446892 0.0807047
0.00910153 0.0521436 0.236805
0.000129846 0.0315391 0.0658611
6.20423e-08 -8.78194e-05 0.000661191
-0.0235121 0.000221941 0.62502
-2.24152e-05 -8.25417e-05 0.000831721
0.00255689 0.000985657 0.00975032
-0.00896789 0.0517494 0.236026
-0.00186292 -0.00257418 0.0425911
-1.00651e-05 0.00165111 0.0142477
0.00260234 0.0104561 0.240001
0 0 0
2.5667e-08 -1.62727e-08 -9.75312e-06
4.37262e-08 -4.55507e-07 -3.61129e-05
0 0 0
0 0 0
-1.2978e-05 0.0168896 0.0884915
-1.00959e-06 0.00831134 0.0833885
-1.64374e-05 0.00195802 -0.00548798
0.00188021 -0.00257539 0.0430122
1.05662e-05 0.00169007 0.0145979
-0.00258545 0.0104847 0.240923
-3.1891 -1.52423 20.1164
-2.9125 -5.82597 20.8153
-2.06072 -1.51704 17.8736
1.6407 0.574691 16.2158
0.322285 1.07964 7.39554
1.55072 0.739369 6.64787
-3.89898 0.204408 19.749
-2.49136 0.265486 17.1216
-3.19405 3.48571 18.7021
1.33348 -0.665643 15.1418
0.200334 -0.89543 2.55942
-0.36668 -0.623177 7.69873
2.95559 -5.80287 20.7522
2.05864 -1.54508 17.8248
3.235 -1.55823 20.108
-0.209754 1.0125 6.93186
-1.59554 0.74918 7.05512
-1.63653 0.540044 16.4737
2.48976 0.274243 17.0882
3.24123 3.20107 18.8304
3.9184 0.210191 19.7428
-0.227454 -0.939474 2.80229
0.637604 -0.593523 5.44477
-1.33061 -0.658263 15.4136
-0.381435 -0.827295 21.3433
0.0151698 0.252843 13.6893
-0.018951 -0.497956 20.5112
0.63662 -0.0641161 14.112
-1.45637 -0.857203 21.581
-4.20809 0.925089 19.6016
-0.325193 -0.433284 20.776
-0.0019682 0.315088 15.4579
-0.0153248 0.256451 13.8225
0.379334 -0.825876 21.3247
-0.620018 -0.041293 13.8699
0.0167633 -0.49847 20.5788
4.103 0.815964 19.8837
1.45794 -0.860752 21.5776
-0.247101 0.597236 13.7368
0.326731 -0.437853 20.8125
-0.963117 -0.4602 19.958
-0.661286 -0.231434 19.7776
-0.655026 -0.391578 19.5726
-0.934947 -0.603739 21.056
-1.45584 -0.611593 20.3678
-1.94306 -1.59092 20.3756
-0.198536 -0.319199 21.3232
-0.565793 -0.476016 21.2395
-0.290417 -0.570242 21.5073
0.380681 -0.0538848 21.5546
-0.00656169 -0.277206 21.4309
0.153983 -0.275964 21.5249
1.03791 0.189772 21.2241
0.916345 0.0558952 21.4523
1.26532 0.680487 20.4915
1.07951 0.275827 21.0699
1.29098 0.115979 21.0246
1.55844 0.787085 20.5557
1.01413 0.116753 20.4989
1.05439 0.446481 21.2129
-1.20381 -0.338292 19.8236
-0.721088 -0.109202 19.6925
-0.759069 -0.319403 19.4141
-1.18971 -0.563687 21.1028
-1.77964 -0.311158 20.267
-0.30369 -0.402468 21.3534
-0.822171 -0.449983 21.2749
0.428104 -0.185407 21.6659
-0.15804 -0.346072 21.4959
1.23439 -0.0523851 21.2627
0.98803 -0.346493 21.4726
1.29068 -0.0783761 20.9025
1.39547 -0.257004 20.8606
2.0896 0.42935 18.5538
1.17338 -0.164835 20.4933
1.38098 -0.15291 20.7685
-1.24953 0.0192076 19.7445
-0.697588 0.174944 19.6925
-0.855992 0.00757326 19.2985
-1.4756 -0.177099 20.9635
-1.53547 0.390934 20.1756
-0.627495 -0.367934 21.3941
-1.15739 -0.017417 21.1193
0.254804 -0.416025 21.6466
-0.39487 -0.250217 21.4647
1.0442 -0.598433 21.3371
0.350219 -0.609681 21.3804
1.10518 -0.585073 21.2755
0.76278 -0.809822 21.0949
1.82587 -0.697369 18.2287
0.503029 -0.612638 20.549
1.53167 -1.0583 20.0939
-0.860044 0.455445 19.8952
-0.590264 0.414345 19.587
-1.18796 0.469387 20.663
-1.48584 1.13289 19.9682
-0.787878 0.0979829 21.3001
-1.61073 0.726861 21.0596
-0.13341 -0.276211 21.3797
-0.623018 -0.0126797 21.649
0.229106 -0.535116 21.1797
-0.0468606 -0.568445 21.3931
0.438147 -0.559373 20.8921
0.28617 -0.842459 21.2386
0.337679 -0.905555 20.7989
-1.4179 -1.68852 18.8537
-0.694467 -0.547762 19.0992
-0.00858316 -0.842899 18.7899
-0.713489 -1.32509 21.5082
0.0137921 -4.54998 22.0487
0.0272252 -0.0774 19.3368
-0.000907335 -0.236881 18.4949
0.499367 0.581843 17.0108
0.000975661 0.0311193 16.8913
1.0155 1.56117 16.1857
-0.000292529 0.847264 12.076
1.44695 1.67056 17.8742
1.6817 1.69149 14.3063
-0.0133666 1.48013 13.9115
1.46622 1.23237 16.7579
-0.0803727 2.22711 16.3804
-0.806653 -0.254607 18.8105
-0.0211328 -0.660384 18.3242
2.20849 1.36814 13.2961
2.25731 0.55708 7.3393
-0.0188188 0.435109 4.44146
2.4649 0.502502 12.1837
-0.119283 2.61992 11.0918
-0.729665 0.422908 18.9343
-0.0080675 0.0611163 17.9932
2.35585 -0.155276 9.6049
0.27249 -1.23033 10.2736
-0.0191709 1.07094 -2.36904
0.314215 -1.51922 11.2917
-0.124807 2.53173 2.09799
-1.00677 1.27354 19.1732
0.0267647 0.818965 18.9973
-1.79358 1.94891 20.4586
0.0889333 3.05241 19.2731
-1.88951 1.19957 22.1095
0.0769857 4.15339 20.1133
-0.414867 -0.277479 21.4557
-0.0450614 0.566364 19.5846
-0.0719615 -0.729318 20.0923
-0.059466 0.195018 12.4288
0.298019 -1.07015 19.6822
-0.0738002 0.226881 9.61996
-0.034477 -0.00854777 10.9952
1.41657 -1.69053 18.8538
0.68348 -0.55006 19.0798
0.658989 -0.403613 19.5613
0.723312 -1.33027 21.6189
1.93999 -1.57738 20.375
-0.0258259 -0.0765757 19.2075
0.297001 -0.570494 21.4997
-0.449815 0.587223 16.5481
-0.161616 -0.273362 21.4899
-0.955313 1.54972 15.9704
-1.27323 0.754448 20.3502
-1.46887 1.62119 18.0043
-1.7313 1.67011 14.4671
-1.54371 0.759909 20.5875
-1.46894 1.11506 16.9936
-1.05803 0.413644 21.1445
0.796191 -0.255359 18.7871
0.774668 -0.323653 19.3868
-2.25186 1.26888 13.5669
-2.31534 0.434304 8.14518
-2.05028 0.313447 18.9498
-2.37744 0.341512 13.2172
-1.3572 -0.120023 20.7979
0.751368 0.407991 18.9589
0.861898 0.00933638 19.2806
-2.29376 -0.259258 10.3573
-0.21316 -1.23371 9.54076
-1.79438 -0.666012 18.9489
-0.326879 -1.51041 11.3934
-1.47812 -1.00849 20.2458
1.0362 1.18921 19.2647
0.592278 0.382843 19.6305
1.81305 1.80343 20.4939
1.42074 0.988787 20.0129
1.90149 1.23011 22.1253
1.56962 0.674214 21.0566
0.418766 -0.253497 21.1757
0.642663 0.00305796 21.6796
0.0938678 -0.686748 19.5493
0.105777 -0.596941 21.4381
-0.266782 -1.05352 19.5413
-0.276367 -0.915307 21.2649
-0.32358 -0.90517 20.8263
0.972877 -0.47049 19.9489
0.668401 -0.239432 19.7612
0.936149 -0.605658 21.0554
1.47033 -0.62266 20.3654
0.197635 -0.321744 21.3256
0.567899 -0.478144 21.2376
-0.384882 -0.061185 21.5536
0.0098303 -0.279464 21.4281
-1.03304 0.195956 21.2262
-0.913696 0.052316 21.4506
-1.04501 0.226565 21.0862
-1.25127 0.0892481 21.0402
-1.00988 0.0895553 20.4165
1.22838 -0.350686 19.802
0.728074 -0.114343 19.6777
1.19692 -0.574482 21.1093
1.80225 -0.315995 20.2611
0.305412 -0.402948 21.3533
0.823636 -0.451797 21.2751
-0.418601 -0.184959 21.6517
0.157617 -0.343399 21.4896
-1.19093 -0.0585555 21.2522
-0.964496 -0.342629 21.4687
-1.19763 -0.114913 21.0244
-1.33851 -0.245835 20.869
-1.10107 -0.100839 20.4958
1.25748 0.0200241 19.7354
0.68858 0.16936 19.7095
1.47889 -0.178201 20.9648
1.47777 0.357989 20.1996
0.626945 -0.367636 21.3927
1.14035 -0.0196861 21.1163
-0.24708 -0.410415 21.6356
0.401498 -0.25494 21.4745
-1.00815 -0.582947 21.3328
-0.348337 -0.647214 21.3971
-1.05974 -0.602955 21.3608
-0.772022 -0.832242 21.0895
-0.489939 -0.59622 20.5604
0.828245 0.415097 19.9329
1.14074 0.439773 20.6637
0.793164 0.0965314 21.3038
0.146728 -0.287282 21.4078
-0.208363 -0.566226 21.2235
-0.41278 -0.581547 20.9316
-1.09996 -0.43539 19.8983
-1.73431 -1.71777 18.3932
-1.30232 -0.906488 19.5342
-1.68704 -0.746165 19.1949
-0.72114 -0.361584 19.5016
-2.50394 -1.66559 20.2757
-1.07103 -0.59926 21.0753
-0.483175 -0.584526 15.5528
-1.03588 -1.1128 21.5121
-1.54683 -1.2336 21.761
-0.289085 -0.687324 21.5168
-0.254175 -0.377016 21.3332
0.224263 0.0294212 13.4653
-0.0343935 -0.3854 21.429
-0.0756739 -0.573203 20.7268
0.121614 -0.403525 21.1864
0.409178 -0.123675 21.6152
0.308084 0.415644 10.2593
0.641751 0.139618 21.3871
0.662312 -0.00514443 18.936
1.4923 0.679113 18.9183
1.14396 0.0708617 21.2493
1.14047 1.43173 11.2154
1.4658 0.748311 20.612
1.87255 0.507371 17.8227
1.81563 0.637846 19.486
1.1969 0.0941546 20.982
1.82491 1.53329 15.6287
1.66279 0.878706 20.6699
1.93898 0.452454 19.0714
1.21431 0.152228 20.9765
-1.26769 -0.192552 19.7619
-2.53839 -0.786033 17.1308
-1.92294 0.0724991 18.9481
-0.831524 -0.167041 19.324
-3.99598 -0.782601 19.8982
-1.37289 -0.412657 21.0679
-2.393 -0.3993 21.4955
-0.814873 -0.949565 21.526
-0.461148 -0.416743 21.3789
-0.784236 -0.837525 21.3373
-0.27723 -0.444226 20.4214
0.371811 -0.330074 21.6895
0.541546 -0.306422 19.5383
1.59943 -0.136036 14.6394
1.19476 -0.356373 21.3444
1.38695 -0.346403 3.95731
1.53807 -0.709686 17.1447
2.13568 -0.18202 17.9263
1.3516 -0.381463 20.6696
2.72093 0.956872 10.4451
1.84809 -0.585181 18.3417
1.70921 -0.753155 20.4147
-1.15705 0.297289 19.7712
-1.67047 1.36493 18.2602
-1.02927 0.773905 19.5935
-0.761884 0.27443 19.3997
-2.46562 1.16207 19.8001
-1.44961 0.208921 20.7922
-3.42943 2.06059 21.0065
-1.61279 1.00046 20.62
-2.02993 0.0183705 21.2714
-0.813804 -0.168562 21.3851
-2.24943 -0.408613 17.7191
-1.24755 0.362297 21.5748
-0.623512 -0.335792 21.7814
-0.0168517 -0.407834 21.5005
0.476011 0.12437 13.0964
-0.244335 -0.330958 21.5354
0.300814 -1.00351 20.6331
0.550979 -0.704815 21.2904
-0.0908136 -0.768389 9.01572
0.111078 -0.699694 21.3341
0.865645 -1.05682 20.3628
0.840966 -0.831165 20.5875
0.467846 -1.35472 10.9526
0.401736 -0.971758 20.9607
0.961722 -1.35446 19.8137
1.73136 -1.73127 18.374
-0.00478142 -3.03123 17.9322
-0.0326136 -3.22026 15.4632
-0.011966 -0.824842 18.5473
0.00546845 -3.70342 17.6568
0.488084 -0.595569 15.7333
-0.00177633 -1.12969 19.9103
0.00049283 0.164978 9.99663
-0.223102 0.0293566 13.3767
-0.000587203 -0.0939924 17.2393
-0.00315102 0.000741964 10.4871
-0.290415 0.398611 9.89591
0.00697215 0.387446 14.296
-0.00480298 0.469417 5.37232
-1.13445 1.42608 11.1682
0.00124731 1.16611 13.0803
-0.00674243 0.191523 2.84716
-0.0132778 1.04074 9.20638
-1.8579 1.45861 15.8293
-0.0174968 2.21899 16.0156
-0.0493529 1.87206 8.74781
-0.0999323 2.4061 13.6813
2.54392 -0.80131 17.0822
-0.0196963 1.23861 14.0129
-0.0108837 -0.373712 18.0818
-1.41874 -0.406397 4.24688
0.00469077 0.500767 -1.9045
-0.045745 0.705615 0.31532
-2.65752 0.843028 11.2694
-0.0985373 1.30857 -1.74267
-0.10896 3.04811 6.09434
1.68227 1.2956 18.3463
0.062943 1.89746 18.7115
0.0186062 0.650299 18.3595
0.0848955 5.47079 18.2513
3.36782 1.89005 21.0637
0.0859151 3.21124 20.0799
0.0672709 4.36682 13.8079
2.215 -0.39599 17.4862
-0.0188273 3.62041 22.719
0.000744576 -0.0219376 0.164375
-0.563679 0.281933 11.2793
-0.0447462 0.10933 15.0217
-0.134414 0.716855 -3.9984
0.241034 -0.779019 7.7155
-0.0382951 -0.117016 11.1977
0.0106747 2.06486 -8.27201
-0.460164 -1.35059 10.7226
-0.00883486 -0.240657 11.2303
0.0112641 0.944549 -4.44475
1.11969 -0.449881 19.8831
1.30868 -0.918954 19.524
1.70671 -0.761887 19.1573
0.731046 -0.377642 19.4769
2.51013 -1.67359 20.2746
1.07548 -0.605462 21.0782
1.03931 -1.10572 21.5033
1.55057 -1.24203 21.7696
0.292415 -0.68708 21.5039
0.254044 -0.377703 21.337
0.0337481 -0.384298 21.4287
0.0787298 -0.574265 20.7298
-0.121165 -0.402241 21.1299
-0.405473 -0.128027 21.6073
-0.647929 0.177236 21.2528
-0.658772 -0.0155474 19.0739
-1.49171 0.714983 18.7357
-1.12298 0.065344 21.2477
-1.47276 0.778826 20.5696
-1.86303 0.423825 18.2746
-1.78954 0.562775 19.7377
-1.14433 0.0375159 21.0119
-1.63235 0.810051 20.6853
-1.8441 0.32898 19.6403
-1.19331 0.191111 20.9962
1.2827 -0.197081 19.7461
1.93695 0.0761963 18.9252
0.83953 -0.171931 19.3031
4.053 -0.787411 19.8884
1.37948 -0.419235 21.0727
2.39881 -0.400767 21.4977
0.813551 -0.952425 21.5117
0.461599 -0.417575 21.3774
0.785862 -0.834208 21.3453
0.274416 -0.450869 20.4808
-0.364238 -0.324632 21.6781
-0.53361 -0.319606 19.6197
-1.5972 -0.132906 14.9718
-1.1528 -0.342394 21.3401
-1.53207 -0.69514 17.6867
-2.07147 -0.233434 18.664
-1.26634 -0.406268 20.9266
-1.77478 -0.538199 18.9195
-1.6734 -0.72144 20.4145
1.12594 0.278501 19.8003
1.0089 0.699387 19.6503
0.754139 0.268205 19.4287
2.36841 1.0475 19.8538
1.41395 0.206363 20.782
1.55097 0.905921 20.6251
1.97679 0.0195102 21.2654
0.815905 -0.168506 21.3858
1.2563 0.373076 21.5803
0.637223 -0.345091 21.766
0.00769205 -0.424988 21.523
0.26873 -0.327932 21.5624
-0.274572 -1.02425 20.3828
-0.549528 -0.730914 21.3065
-0.0561647 -0.751623 21.3447
-0.859446 -1.05246 20.3209
-0.842384 -0.835037 20.5905
-0.427522 -1.05132 20.9222
-0.959269 -1.34098 19.8342
-1.48391 -0.852865 19.3744
-1.24265 -1.21004 21.6525
-0.0238613 -0.481593 21.2339
0.708219 0.0620714 20.4553
1.68468 0.634106 19.3365
1.80163 0.681569 19.8087
-1.91575 -0.404774 19.0056
-2.06082 -0.871073 21.8163
-0.330652 -0.731612 20.8018
0.559773 -0.136148 18.8427
1.83713 -0.16818 16.7043
2.1378 -0.051454 18.054
-1.51394 0.674993 19.2243
-2.3091 0.565675 20.9601
-1.42832 -0.271916 21.7921
-0.0620626 -0.68386 21.4911
0.54304 -1.09428 20.6632
0.852706 -1.26659 20.5597
-0.0167541 -3.38568 16.8608
0.00157884 -0.313021 10.9455
-0.00149076 0.020567 9.81004
-0.0009766 0.206621 7.53165
-0.00531853 0.763964 7.19146
-0.0333992 2.06735 12.3681
-0.0308768 -1.28952 13.9346
-0.00500724 0.0899932 -0.160686
-0.0490476 1.51247 2.08969
0.0449823 2.43584 17.091
0.0606972 4.34927 19.8392
0 0 0
-0.0285994 0.395229 -0.839497
-0.0674823 0.875194 -6.45895
0.0202822 1.26259 -6.56058
1.49719 -0.873947 19.3514
1.24488 -1.20849 21.6489
0.0249758 -0.478465 21.2053
-0.713113 0.0769323 20.3558
-1.6766 0.615475 19.4278
-1.73398 0.584374 20.2408
1.93684 -0.41341 18.9702
2.06682 -0.87691 21.8214
0.333292 -0.733029 20.8174
-0.558197 -0.149216 18.9652
-1.82143 -0.175309 17.4152
-2.0449 -0.154766 18.5312
1.49342 0.639339 19.2838
2.24394 0.529879 20.9516
1.4362 -0.273778 21.7987
0.0734979 -0.702496 21.4114
-0.531563 -1.11198 20.5466
-0.855661 -1.26863 20.5574
-1.56885 -0.613478 1.21299
0.00632711 -0.0183198 0.0758567
0 0 0
0.135325 -0.11106 0.163289
0.0111577 0.0520086 0.256718
-0.00668092 0.0243372 0.147222
-0.0815993 0.0150838 0.0843214
-0.0276034 0.0884074 0.181077
-0.304438 0.00929371 0.885484
0.00944468 -0.0272209 0.00796589
-0.0208808 -0.018592 0.0101639
-0.00215652 -0.0102612 0.0133006
-0.00656355 -0.019071 0.0801121
1.54543 -0.599167 1.19143
0 0 0
-0.011183 0.0537515 0.259078
-0.142259 -0.117218 0.171558
0.00921738 0.0333596 0.198934
0.0255235 0.0813585 0.167227
0.0756812 0.0139161 0.0781892
0.304655 0.00810247 0.882223
0.0207396 -0.01851 0.0100447
-0.00954495 -0.0271447 0.00805692
0.00167968 -0.00782994 0.0101124
-0.00479317 -0.00197875 0.991199
0.0326657 -0.002013 0.807327
0.00365475 0.00902017 0.277989
0 0 0
-0.00106568 0.00272814 0.106932
0.0467807 -0.00484361 0.646912
-0.16978 -0.0613628 0.785133
0 0 0
-0.0282663 -0.146563 0.728911
3.27615e-05 -0.00100538 0.0087518
0.000148479 0.0317581 0.504176
-0.103574 0.0197526 0.117326
0.0454571 0.149341 0.995532
0 0 0
0.00446369 0.0118253 0.0379373
0.0969868 0.0056032 0.356614
0.00486727 -0.00190792 0.982266
0 0 0
-0.0322411 -0.00195183 0.797997
-0.00326541 0.00840737 0.274763
0.00115256 0.0027843 0.106524
-8.20445e-05 -0.000676201 0.0133498
-0.0449216 -0.00462093 0.630976
0.176868 -0.06407 0.818289
0.0259427 -0.147776 0.735763
0.083406 0.0142868 0.087353
-3.32935e-05 -0.00100168 0.00852592
1.56374e-05 0.0309882 0.503723
-0.04618 0.149871 0.997867
-0.0972192 0.00564608 0.356572
0 0 0
-0.00871929 0.0171534 0.0598271
0 0 0
0 0 0
0 0 0
0 0 0
0 0 0
0 0 0
0.0107861 -0.00381544 0.0248363
-0.00120883 -0.0043041 0.000287262
0 0 0
-8.90834e-05 -0.0149636 0.000300221
0 0 0
0 0 0
0.00033673 0.388282 0.291459
1.86243e-05 0.0382691 0.129088
0 0 0
-0.00871353 0.00635574 0.0356817
-0.000327138 -0.0340174 -0.00810271
-0.000587183 0.0248145 -0.0666998
0.00636109 0.00526772 0.106445
-0.00208356 -0.000268559 8.45221e-05
0 0 0
0 0 0
0 0 0
0 0 0
0.0012188 -0.00436932 0.000289804
-0.0100436 -0.00360285 0.0231433
1.15067e-06 -6.91926e-07 -5.50257e-05
-6.531e-19 3.6476e-18 5.3771e-17
0.00867186 0.00631794 0.0354742
0 0 0
0.00194663 -0.000241258 6.18839e-05
-0.00628036 0.00531872 0.106485
0.000468289 0.00780598 0.214686
0 0 0
0.000450559 -0.00414722 0.0662694
-5.23796e-05 0.000442322 0.00991207
-5.25604e-06 -0.0248788 0.276569
4.33226e-08 -8.90451e-08 -1.68201e-05
-0.000425127 0.00294202 0.0180159
0.00482785 0.00592673 0.230182
-1.98873e-06 4.31887e-07 0.000702257
2.77351e-08 -4.30974e-07 -3.01469e-05
0.000102708 0.00461674 0.0256369
-0.209159 0.136938 1.87582
-0.00319374 0.00844036 0.112098
8.92378e-06 0.0141565 0.0279176
-7.18548e-07 -0.00028101 0.00481197
-5.41234e-06 0.00147603 -0.00502316
0 0 0
-0.000445163 0.00785583 0.215168
-0.000448502 -0.00402687 0.0656892
5.33255e-05 0.000444211 0.00993777
0.000461511 0.00327744 0.0200222
-0.00483135 0.00590616 0.229788
0.208172 0.136322 1.86685
-0.000100407 0.00458467 0.0255183
0 0 0
-0.00865876 -0.00627519 0.0497562
-0.000146578 -0.000647221 0.105251
0.000574567 -0.00632293 0.0698754
-0.000831044 0.00437543 0.193914