# vtk DataFile Version 2.0
tri_press
ASCII
DATASET UNSTRUCTURED_GRID
POINTS 3682 float
-0.655 0.165 -1.90247
-0.812844 0.145 1.585
-0.681057 0.515 -1.845
-0.735 0.815 1.71978
0.655 0.165 -1.90247
0.812844 0.145 1.585
0.681057 0.515 -1.845
0.735 0.815 1.71982
-0.711655 0.154293 -0.73998
-0.728769 0.183127 0.42251
-0.820064 0.736026 -0.65674
-0.803132 0.801113 0.53152
0.711656 0.154292 -0.73998
0.728762 0.183134 0.42251
0.820053 0.736015 -0.656727
0.803084 0.801065 0.531547
-1.40992 -0.165841 -2.88617
-1.40805 -0.101067 -1.94585
-1.45095 -0.100136 -0.784029
-1.4751 -0.10973 0.372604
-1.51562 -0.137179 1.53399
-1.53397 -0.13567 2.47217
-1.53891 -0.114371 3.4143
-1.40655 0.0689951 -2.84817
-1.40899 0.158484 -1.90503
-1.47145 0.18174 -0.738197
-1.48883 0.193703 0.426319
-1.53101 0.171739 1.59266
-1.5481 0.173963 2.5312
-1.55055 0.194324 3.4725
-1.42062 0.502636 -2.7794
-1.44356 0.589768 -1.83733
-1.54986 0.745358 -0.652927
-1.54497 0.807875 0.533303
-1.50846 0.820665 1.71721
-1.54021 0.820068 2.6547
-1.55807 0.830864 3.59184
-1.44863 1.30384 -2.65687
-1.4696 1.40751 -1.71094
-1.52113 1.57256 -0.518174
-1.55171 1.69401 0.680146
-1.55438 1.75011 1.87264
-1.55826 1.76876 2.81801
-1.56689 1.78116 3.75797
-0.69096 -0.164206 -2.8845
-0.674797 -0.0961944 -1.94342
-0.707972 -0.113094 -0.784351
-0.721337 -0.120279 0.369351
-0.759141 -0.156971 1.5283
-0.77744 -0.151483 2.46831
-0.781973 -0.125584 3.41207
-0.686738 0.0624746 -2.84765
-0.798897 0.159091 2.52803
-0.795451 0.183876 3.47082
-0.69365 0.469292 -2.78258
-0.789315 0.813116 2.65522
-0.804522 0.82447 3.59196
-0.702695 1.28101 -2.66001
-0.711207 1.38612 -1.71441
-0.75378 1.56552 -0.52026
-0.787465 1.69539 0.680406
-0.795914 1.75171 1.87445
-0.801706 1.76896 2.81981
-0.810946 1.78025 3.75928
0.698857 -0.164209 -2.8845
0.693651 -0.0961962 -1.94342
0.724384 -0.113096 -0.784349
0.753446 -0.120277 0.369354
0.804499 -0.156971 1.5283
0.770211 -0.151485 2.46832
0.746524 -0.125588 3.41209
0.688592 0.0624722 -2.84765
0.753189 0.159089 2.52804
0.733034 0.183872 3.47084
0.704418 0.469289 -2.78258
0.723053 0.813112 2.65525
0.713883 0.824464 3.59198
0.771553 1.28101 -2.66
0.787018 1.38611 -1.7144
0.786567 1.56551 -0.520247
0.758177 1.69537 0.680425
0.730182 1.75169 1.87447
0.715884 1.76895 2.81983
0.704949 1.78024 3.7593
1.41217 -0.165848 -2.88616
1.412 -0.101074 -1.94585
1.45882 -0.100146 -0.78402
1.49875 -0.109736 0.372617
1.54565 -0.137182 1.53401
1.53186 -0.135676 2.47219
1.50929 -0.114379 3.41433
1.40173 0.068988 -2.84816
1.3987 0.158478 -1.90503
1.46662 0.181726 -0.738186
1.49424 0.193691 0.426336
1.53615 0.171737 1.59268
1.51952 0.173957 2.53123
1.49774 0.194315 3.47253
1.42513 0.502628 -2.77939
1.43861 0.589759 -1.83732
1.54527 0.745332 -0.652904
1.54264 0.807828 0.533341
1.50008 0.820652 1.71727
1.48834 0.820058 2.65474
1.47703 0.830851 3.59188
1.50677 1.30382 -2.65685
1.52816 1.4075 -1.71092
1.54469 1.57254 -0.518148
1.52602 1.69397 0.680182
1.49526 1.75008 1.87269
1.47747 1.76873 2.81805
1.465 1.78114 3.75801
-0.669786 0.34 -1.87549
0 0.158313 -1.90916
-0.700029 0.142945 -1.32123
-0.812215 0.48 1.69068
0 0.141299 1.5887
-0.783053 0.151817 1.00376
0 0.545259 -1.87526
-0.832679 0.707632 -1.25087
0 0.885421 1.79022
-0.812649 0.851639 1.12565
0.66979 0.34 -1.8755
0.700029 0.142945 -1.32123
0.812326 0.48 1.69081
0.783048 0.151822 1.00376
0.83268 0.707632 -1.25086
0.812647 0.851637 1.12568
-0.739976 0.148946 -0.158735
-0.834793 0.44516 -0.69836
5.16134e-07 0.155181 -0.73998
-0.713862 0.49212 0.477015
-3.32302e-06 0.140833 0.42251
-0.816332 0.773303 -0.06261
-5.65821e-06 0.999251 -0.656733
-2.40395e-05 1.07711 0.531533
0.739975 0.148947 -0.158735
0.834774 0.445153 -0.698353
0.713842 0.492099 0.477028
0.816306 0.773277 -0.06259
-0.895442 0.39258 -1.28605
0.895442 0.392577 -1.28604
2.58067e-07 0.140702 -1.32123
-2.82911e-06 0.792784 -1.25087
0 0.34 -2.03726
-0.791345 0.46864 -0.110673
0.79127 0.468626 -0.110662
-1.40344e-06 0.14808 -0.158735
-1.48489e-05 1.10429 -0.0626
-0.864205 0.48606 1.0647
0.864178 0.48605 1.06472
-1.66151e-06 0.140789 1.00376
-1.20198e-05 0.901009 1.12567
0 0.48 2.01725
-0.665801 0.2525 -1.89239
-0.3275 0.152613 -1.91486
-0.682039 0.149448 -1.61185
-0.80973 0.3125 1.63504
-0.406422 0.141271 1.58873
-0.785448 0.160909 1.29438
-0.670287 0.4275 -1.85511
-0.340528 0.530807 -1.86081
-0.773756 0.628203 -1.54794
-0.783179 0.6475 1.7148
-0.3675 0.880382 1.78517
-0.794576 0.854071 1.42271
0.3275 0.152646 -1.91482
0.665818 0.2525 -1.89241
0.682071 0.149416 -1.61185
0.406422 0.141287 1.58871
0.809706 0.3125 1.63503
0.785161 0.161196 1.29438
0.340528 0.530769 -1.86077
0.670283 0.4275 -1.85511
0.773759 0.628207 -1.54793
0.3675 0.880379 1.78519
0.783172 0.6475 1.71483
0.794599 0.854095 1.42275
-0.711493 0.142968 -1.0306
-0.722844 0.154591 -0.449358
-0.842548 0.265065 -0.71917
-0.356524 0.153342 -0.73998
-0.75663 0.166753 0.713133
-0.7368 0.163609 0.131888
-0.748634 0.323964 0.449763
-0.374301 0.14215 0.42251
-0.829745 0.725203 -0.953805
-0.83937 0.596563 -0.67755
-0.821202 0.757668 -0.359675
-0.464698 0.976965 -0.656737
-0.804913 0.823398 0.828585
-0.728186 0.631461 0.504268
-0.80869 0.786166 0.234455
-0.456689 1.04933 0.531527
0.711493 0.142968 -1.0306
0.356527 0.153338 -0.73998
0.722844 0.154591 -0.449358
0.842546 0.265057 -0.719167
0.756623 0.16676 0.713133
0.374296 0.14215 0.42251
0.736805 0.163604 0.131888
0.748563 0.323986 0.449769
0.829769 0.725226 -0.953795
0.464687 0.976959 -0.65673
0.839369 0.596562 -0.67754
0.821001 0.757468 -0.359658
0.797249 0.815735 0.828615
0.456673 1.04937 0.53154
0.728175 0.631438 0.504288
0.80859 0.786067 0.234478
-0.821679 0.36629 -1.58077
-0.334893 0.34 -1.99607
1.29034e-07 0.149072 -1.61519
0 0.249157 -1.97849
-0.89621 0.267763 -1.30364
-0.350014 0.140702 -1.32123
-0.862714 0.48303 1.37769
-0.406108 0.48 1.93397
-8.30754e-07 0.140786 1.29623
0 0.31065 1.98877
-0.851165 0.318938 1.03423
-0.391527 0.140789 1.00376
-1.41455e-06 0.707201 -1.56306
0 0.44263 -2.00613
-0.895369 0.550106 -1.26846
-0.416341 0.771567 -1.25087
-6.00988e-06 0.896111 1.45794
0 0.68271 1.99914
-0.859463 0.66885 1.09518
-0.40633 0.887812 1.12566
0.821747 0.366288 -1.58077
0.334895 0.34 -1.99617
0.89621 0.267761 -1.30363
0.350014 0.140702 -1.32123
0.86165 0.483025 1.37777
0.406163 0.48 1.93388
0.851158 0.318936 1.03424
0.391523 0.140789 1.00376
0.895369 0.550105 -1.26845
0.416338 0.771473 -1.25087
0.859447 0.668844 1.0952
0.406317 0.887628 1.12568
-0.760006 0.31162 -0.134704
-0.370337 0.147816 -0.158735
-0.896263 0.41887 -0.992204
-0.822018 0.4569 -0.404516
3.87101e-07 0.140696 -1.0306
-4.43653e-07 0.155383 -0.449358
-0.753839 0.48038 0.183171
-0.824491 0.48909 0.770859
-2.36323e-06 0.140884 0.131888
-2.49226e-06 0.140891 0.713133
-0.826691 0.632398 -0.0866413
-0.475771 1.07399 -0.062605
-4.24366e-06 0.915042 -0.9538
-1.02535e-05 1.06374 -0.359667
-1.94442e-05 1.10207 0.234467
-1.80296e-05 0.896217 0.8286
0.759993 0.311601 -0.134699
0.370336 0.147816 -0.158735
0.896265 0.418865 -0.992199
0.821964 0.45689 -0.404508
0.753865 0.480363 0.183183
0.824521 0.489075 0.770874
0.826577 0.632346 -0.0866262
0.475748 1.07399 -0.062595
-0.803626 0.260131 -1.59631
-0.896066 0.283744 -1.0114
-0.893085 0.570349 -0.973004
-0.81406 0.488803 -1.56435
0.803598 0.260131 -1.59631
0.814059 0.488802 -1.56435
0.893089 0.570344 -0.972997
0.896067 0.283742 -1.0114
-0.338757 0.1482 -1.61352
0.338757 0.148199 -1.61352
0.352921 0.140696 -1.0306
-0.352921 0.140696 -1.0306
-0.378435 0.669827 -1.5555
-0.413188 0.89794 -0.953803
0.413181 0.897946 -0.953798
0.378433 0.669831 -1.5555
-0.331196 0.250828 -1.97458
-0.337711 0.435065 -1.99662
0.337712 0.435065 -1.99659
0.331198 0.250828 -1.97381
-0.783627 0.297167 -0.426937
-0.724418 0.332743 0.157529
-0.779975 0.633198 0.208813
-0.831679 0.613805 -0.382096
0.783622 0.297153 -0.426933
0.831678 0.613807 -0.382083
0.779958 0.633183 0.208831
0.72441 0.332728 0.157535
-0.361914 0.153613 -0.449358
0.361914 0.153612 -0.449358
0.373692 0.142231 0.131888
-0.373695 0.142232 0.131888
-0.476958 1.03892 -0.359671
-0.472259 1.07372 0.234461
0.472237 1.07373 0.234473
0.477045 1.03913 -0.359663
-0.79289 0.328281 0.741996
-0.848739 0.315719 1.33604
-0.860411 0.658175 1.4002
-0.83212 0.657733 0.799722
0.792845 0.328276 0.742003
0.83226 0.657713 0.799744
0.860015 0.658172 1.40026
0.848739 0.315718 1.33607
-0.377957 0.140891 0.713133
0.377951 0.140891 0.713133
0.398973 0.140786 1.2953
-0.398975 0.140786 1.2953
-0.403954 0.875913 0.828593
-0.386915 0.926523 1.44033
0.386909 0.926545 1.44035
0.403924 0.875914 0.828608
-0.406265 0.311575 1.91504
0.406292 0.311575 1.91502
0.386831 0.665105 1.94006
-0.386804 0.665105 1.94016
-0.661233 0.20875 -1.89826
-0.49125 0.152968 -1.9145
-0.673498 0.152246 -1.75716
-0.809231 0.22875 1.60796
-0.609633 0.141256 1.58874
-0.787686 0.164415 1.43969
-0.673136 0.47125 -1.84752
-0.510793 0.516122 -1.84612
-0.732023 0.576218 -1.69647
-0.759141 0.73125 1.71734
-0.55125 0.847297 1.75208
-0.769748 0.839496 1.57125
0.49125 0.152994 -1.91448
0.661285 0.20875 -1.89831
0.67352 0.152223 -1.75716
0.609633 0.141271 1.58873
0.813062 0.22875 1.6118
0.787564 0.164536 1.43969
0.510793 0.516215 -1.84621
0.673125 0.47125 -1.84751
0.73202 0.576215 -1.69647
0.55125 0.848406 1.75322
0.759096 0.73125 1.71733
0.769961 0.839708 1.57129
-0.717201 0.143004 -0.885291
-0.717153 0.154538 -0.594669
-0.83357 0.181444 -0.729575
-0.534064 0.153869 -0.73998
-0.772829 0.144811 0.567821
-0.72945 0.176703 0.277199
-0.747644 0.249074 0.436136
-0.561492 0.142724 0.42251
-0.825519 0.731228 -0.805273
-0.837504 0.670188 -0.667145
-0.81978 0.745994 -0.508208
-0.674785 0.921302 -0.656738
-0.804382 0.812616 0.680053
-0.807906 0.73741 0.517894
-0.804273 0.792001 0.382988
-0.608599 0.8826 0.531523
0.7172 0.143004 -0.885291
0.534066 0.153866 -0.73998
0.717153 0.154538 -0.594669
0.833559 0.181446 -0.729573
0.772828 0.144811 0.567821
0.561488 0.142723 0.42251
0.72944 0.176713 0.277199
0.747631 0.249076 0.43614
0.825537 0.731247 -0.805261
0.674774 0.921294 -0.656728
0.837509 0.670187 -0.667133
[...]
POINT_DATA 3682
SCALARS point_scalars float 1
LOOKUP_TABLE default
-31.4727
-50.7935
39.7
-40.6477
-33.8142
-50.8173
39.5777
-40.6198
-41.7224
-15.1858
-56.5594
-36.1638
-41.6833
-15.2722
-56.6161
-36.4821
-84.7459
-54.9767
-61.9835
-14.4232
-48.0775
-34.6201
-34.3229
52.9219
-29.4058
-56.9056
-17.5181
-51.0243
-33.6491
-33.4805
104.876
-57.5475
-54.1255
-30.4592
-46.8072
-37.4737
-31.5765
35.3601
-57.3899
-72.3267
-33.9219
-42.7683
-41.9704
-32.4756
75.204
-105.37
-45.2655
-22.7552
-45.6168
-31.9062
-28.5239
75.204
-30.0812
-28.7782
161.781
-30.0475
-27.9756
128.495
-34.9933
-65.0348
-54.1118
-37.7742
-31.2056
-30.181
75.3291
-98.0233
-45.7521
-21.8465
-42.4547
-31.6863
-28.3591
75.3291
-29.9553
-28.4552
161.67
-29.9608
-27.8098
69.9751
-32.2547
-65.1926
-54.089
-36.8161
-31.1384
-30.0752
-89.6729
-54.7557
-61.9286
-14.4922
-48.0786
-34.4897
-31.8228
-0.852934
-28.9108
-56.9003
-17.6184
-50.3764
-33.528
-32.5938
104.856
-55.9044
-54.2357
-30.7805
-46.8775
-37.4467
-30.1986
35.2815
-57.8401
-72.3428
-36.9541
-42.7988
-41.9102
-32.3929
18.2602
-167.765
-61.408
-41.4635
-40.4934
-36.8644
56.9097
-74.7899
-31.5549
-40.7037
17.8553
-61.3834
-41.4179
-36.5942
-74.7618
-38.3728
-29.424
-48.7012
-38.5471
-18.028
-28.9877
-44.3675
-56.5851
-54.4235
-29.5344
-48.6899
-18.2588
-44.4487
-84.8705
-84.8634
-59.0064
-1.93135
193.829
-33.0205
-33.0847
-28.9603
-74.8247
-41.0299
-40.6352
-32.6938
-38.9161
-21.7236
27.9137
-182.982
-75.5455
-47.6215
-43.1083
-38.3439
27.7524
51.7276
-16.8937
-38.7041
-33.0243
-47.077
-182.906
29.7695
-75.5016
-43.0109
-47.7454
-38.2162
51.3018
27.738
-16.8608
-32.9869
-38.6674
-47.4744
-48.2247
-32.7548
-50.3748
-38.7128
-18.8602
-26.1704
-15.6268
-27.6617
-70.1759
-49.8768
-49.1428
-57.2045
-35.8894
-20.7182
-37.9814
-54.3369
-48.1895
-38.7085
-32.4802
-50.345
-18.8824
-27.6731
-26.2505
-15.8252
-70.1599
-57.1965
-49.8823
-49.1601
-39.5712
-54.3189
-20.9769
-38.0777
-22.0855
188.992
-82.9125
169.814
-82.2747
-58.3988
-44.5682
-29.5189
-35.7057
-26.3702
-39.2301
-32.7172
-11.498
129.602
-95.6816
-20.6731
-34.585
-26.2488
-40.7666
-38.226
-22.4594
188.939
-82.2366
-58.3977
-44.449
-29.4007
-38.995
-32.6796
-95.7671
-20.6162
-39.5306
-38.1371
-31.6781
-28.7245
-67.2677
-37.9227
-46.166
-30.9823
-25.8932
-19.1873
-27.7863
-30.3308
-36.6797
-67.6267
-41.3298
-66.101
-66.159
-45.1289
-31.7506
-28.7582
-67.2558
-37.962
-26.0154
-19.4475
-36.7439
-67.644
-24.8529
-63.8397
-69.761
-25.611
-24.6645
-25.7216
-69.7197
-63.8204
-81.9372
-81.9329
-46.2349
-46.2386
-4.37906
-42.3727
-42.3973
-4.40196
170.608
135.965
135.947
170.664
-36.2599
-25.8457
-27.2695
-41.4494
-36.2997
-41.4974
-27.397
-25.9624
-31.0403
-31.0578
-27.1529
-27.1256
-63.9621
-57.5454
-57.6062
-64.1217
-8.91895
-42.9034
-46.7257
-28.6548
-9.04725
-29.4783
-46.6727
-42.6663
-29.6189
-29.6068
-36.2556
-36.3096
-44.7204
-36.7036
-36.6921
-44.6849
-30.7776
-30.6468
-29.6723
-29.7593
20.2231
-127.168
-101.454
-53.7403
-47.2084
-40.9925
46.6373
55.9693
1.88646
-38.1429
-35.9407
-43.2578
-127.345
22.4303
-100.967
-47.1247
-53.1211
-40.6316
55.9073
47.7165
1.8574
-35.9727
-38.0839
-43.3394
-45.8232
-35.2144
-52.4232
-39.3169
-21.8416
-24.4601
-17.0157
-25.6423
-61.0973
-52.6076
-51.7649
-70.1364
-36.7413
-28.0672
-36.1554
-45.7436
-45.8052
-39.3001
-35.1118
-52.3729
-21.8783
-25.762
-24.5511
-17.1596
-61.0119
-70.1025
-52.6424
-51.8162
-37.6622
-45.7434
-28.4021
-36.3209
25.0612
23.6049
-23.6334
160.028
-183.106
-182.822
-105.12
104.566
-66.1827
-53.9057
-80.3904
-58.2311
-44.5364
-40.0103
-48.3847
-30.5421
-41.1385
-41.0685
-37.4629
-30.338
-37.2488
-27.4225
-38.4325
-33.2224
52.383
52.3747
14.5801
90.7551
-54.2377
-76.7069
-91.6898
-46.0768
-32.0121
-31.9865
-33.0279
-27.6473
-44.7289
-36.1389
-40.408
-41.0964
24.7927
23.6187
-23.7711
160.081
-66.1836
-53.8719
-80.3191
-58.2238
-44.5094
-39.9858
-48.2807
-30.4317
-37.1309
-27.1645
-38.2556
-33.1524
-54.6254
-76.7424
-91.6654
-45.3435
-45.4425
-34.5604
-38.2145
-41.0662
-32.0964
-27.6585
-30.7692
-28.6312
-49.2864
-48.6017
-60.8112
-41.5369
-38.5684
-38.5671
-42.3853
-33.7628
-17.156
-19.4709
-22.2419
-15.8847
-28.7355
-28.7398
-28.7373
-29.515
-46.7421
-40.3261
-38.9613
-55.1756
-56.7095
-56.7247
-46.8204
-60.4952
-54.9327
-54.9395
-60.5792
-47.4339
-32.5663
-27.7312
-30.8278
-28.6858
-49.2719
-48.5958
-60.8194
-41.5487
-17.3519
-19.7071
-22.4089
-16.1613
-46.825
-40.4167
-39.0219
-55.2311
-103
-83.3235
-89.2806
-74.1034
-102.95
-83.3007
-89.3673
-74.0939
-68.1419
-58.9466
-58.949
-51.5511
-18.3538
-3.73722
-3.72087
-19.652
186.546
174.267
201.3
186.254
-31.7387
-35.4931
-29.6903
-34.514
-31.8203
-35.5578
-29.7711
-34.5859
-28.898
-29.3602
-27.8681
-28.9132
-72.7892
-75.3879
-74.7762
-72.8974
-42.1407
-40.181
-41.2149
-35.4778
-41.917
-39.8949
-40.573
-35.2449
-34.1205
-32.6996
-32.6825
-31.4008
-36.3426
-38.5413
-38.5032
-41.8848
-25.1658
-22.0737
-24.2165
-24.9579
-39.8054
136.834
-108.127
99.0819
-41.1734
-78.8971
-48.7655
-32.1885
-38.6522
-34.3586
-41.5856
-36.8981
-14.8714
132.515
17.2862
79.0644
-26.4725
-7.55193
-46.9264
-31.2514
-34.9184
-30.3821
-46.2378
-39.9872
-108.101
99.5194
-39.4625
136.934
-41.1755
-78.8696
-38.5858
-34.2166
-48.5521
-32.0716
-41.3513
-36.8126
17.4511
79.0909
-15.1516
131.018
-26.5289
-7.62212
-34.9288
-30.3002
-46.9414
-31.1484
-46.3248
-40.1165
-59.2452
-46.6961
-37.0369
-31.1695
-59.7481
-40.2464
-42.5449
-33.882
-10.1745
-28.4412
-26.4431
-26.1325
-20.9628
-13.9274
-27.657
-28.566
-71.6631
-52.2686
-59.3016
-44.4285
-44.2685
-64.1382
-49.3838
-60.1863
-30.5551
-41.5237
-22.7616
-22.7137
-31.3303
-48.8272
-55.3616
-48.1369
-59.2064
-46.686
-42.5383
-33.8879
-37.0238
-31.1844
-59.7481
-40.2226
-10.2045
-28.4205
-27.6755
-28.5657
-26.5406
-26.1791
-21.1211
-14.0658
-71.6157
-52.4901
-49.3839
-60.1948
-59.2921
-44.4565
-44.3162
-64.2258
-32.6961
-41.3277
-55.4028
-48.0737
-22.9392
-23.1571
-31.4536
-48.9189
-22.7243
-23.8609
181.184
189.623
-83.1857
-83.1979
177.624
177.313
-96.8737
-70.3122
-67.2125
-51.3934
-43.9919
-45.4478
-29.6985
-29.8087
-35.797
-35.8256
-28.0231
-27.8911
-36.9001
-41.0596
-31.0691
-34.4143
-8.78342
-8.81391
123.365
123.286
-77.7048
-78.0405
-20.7777
-23.6864
-34.8855
-34.872
-27.6367
-27.7371
-43.4018
-35.292
-41.1898
-37.1187
-22.9805
-24.0602
189.593
181.054
-97.0629
-70.2893
-67.2168
-51.3915
-45.3047
-43.7882
-29.5713
-29.7117
-36.4488
-40.8319
-31.0433
-34.3698
-77.8487
-77.6915
-23.8467
-20.9872
-35.1239
-43.1472
-37.0594
-41.1346
-33.8488
-28.5011
-29.3229
-27.5062
-65.5457
-68.572
-36.8125
-39.227
-46.2241
-46.2245
-31.0847
-31.0962
-25.1176
-27.0538
-13.3677
-24.8968
-27.6752
-27.6619
-30.175
-30.1691
-31.932
-39.0624
-74.4453
-62.7429
-41.9102
-41.9457
-66.0366
-66.057
-64.4761
-64.4751
-44.8138
-44.798
-33.9676
-28.5908
-29.3524
-27.5387
-68.5578
-65.5312
-36.8523
-39.2708
-27.1758
-25.2412
-13.6656
-25.307
-39.1242
-32.0308
-62.8459
-74.4381
-57.7057
-85.1325
-98.859
-30.1011
-54.3989
-60.6904
-72.5251
-66.5215
-59.0671
-81.8551
-75.6649
-60.5894
-9.42651
-19.3912
-96.3407
-58.817
-56.804
-30.164
-98.8731
-85.6487
-9.58158
-58.8261
-96.2222
-19.6376
-59.0551
-60.5817
-75.6624
-81.8371
-54.3879
-66.4858
-72.5087
-60.6842
-106.431
-107.308
-68.3657
-65.1158
-106.365
-65.1105
-68.3798
-107.321
-43.3801
-42.4187
-51.3006
-51.4907
-43.3948
-51.499
-51.2994
-42.4214
20.3336
-34.0498
-20.5276
12.1807
-65.2965
-47.2313
-19.5791
-45.5912
-64.9617
-46.3826
-19.5448
-47.2007
20.4039
12.2485
-20.5802
-34.4236
107.167
146.837
171.909
123.614
78.3161
89.5531
203.674
168.632
78.3087
168.597
203.616
89.5883
107.543
120.149
171.863
146.907
-40.9702
-35.1413
-34.4082
-40.575
-20.9596
-21.1958
-29.1192
-29.0721
-28.5857
-34.8565
-30.8126
-23.1894
-47.2463
-42.6019
-36.9286
-41.6925
-40.9427
-40.5704
-34.4831
-35.5486
-47.2782
-41.7582
-36.9941
-42.6217
-28.7552
-23.3628
-30.8997
-34.9555
-21.0951
-29.1401
-29.2128
-21.3635
-34.1328
-33.8082
-29.3518
-29.3977
-34.1195
-29.461
-29.3666
-33.8148
-26.0056
-28.5143
-27.8043
-27.1367
-25.9701
-27.0817
-27.7887
-28.5063
-70.772
-60.2611
-75.5351
-60.1218
-46.6685
-60.1215
-71.7895
-51.4961
-46.7848
-51.5673
-71.7483
-60.1094
-70.8477
-60.1448
-75.5391
-60.2807
-16.214
-28.9718
-36.4656
-13.6442
-45.5066
-48.5585
-41.8243
-40.0095
-46.588
-43.8195
-42.6306
-48.4816
-29.8309
-18.8098
-34.8353
-35.6279
-16.3067
-13.8476
-36.0456
-28.7769
-30.648
-35.0291
-34.5907
-19.1176
-46.6589
-48.4395
-42.3393
-43.8428
-45.185
-39.8194
-41.5759
-48.4882
-26.422
-29.3013
-31.3295
-30.8668
-26.427
-30.8076
-31.3183
-29.3007
-39.744
-37.7461
-34.1823
-34.9026
-39.8299
-34.9831
-34.2038
-37.7852
-44.1089
-38.7138
-41.442
-47.5481
-38.6998
-33.4297
-36.2851
-40.3911
-38.7157
-40.5451
-36.2707
-33.4092
-44.0805
-47.5354
-41.4169
-38.1646
-37.0248
-31.4639
-24.9384
-30.9104
-36.8818
-30.7914
-24.7097
-31.3639
-31.7287
-28.3875
-26.493
-31.0225
-31.8542
-31.1182
-26.6337
-28.4617
0.367473
-82.0125
-120.228
-57.7229
-52.3844
-34.324
45.0312
61.5325
7.8273
-39.7265
-37.5173
-41.853
-82.3288
-0.105681
-120.119
-52.3821
-57.5522
-34.424
61.3241
45.4983
7.81043
-37.4374
-40.0208
-41.8981
-45.6963
-37.4818
-45.9613
-40.1683
-16.4491
-20.2824
-16.1736
-22.2694
-59.246
-54.4705
-53.7309
-64.3537
-36.4603
-31.4962
-35.8733
-43.8109
-45.6729
-40.1404
-37.4201
-45.8802
-16.5153
-22.3055
-20.368
-16.2945
-59.3115
-64.4779
-54.5274
-53.7297
-36.9193
-43.9913
-31.831
-36.0818
21.7231
22.2471
-8.99406
115.976
-173.868
-175.878
-124.355
48.5335
-63.9188
-57.6388
-79.5435
-58.8303
-43.1869
-40.6566
-46.6523
-32.8405
-40.6616
-40.6245
-38.5505
-35.3153
-37.1007
-39.8803
-38.5644
-34.3207
53.1203
53.1245
35.0205
74.2751
-63.0531
-78.9551
-84.4018
-62.1924
-31.6973
-31.676
-32.2097
-29.305
-42.0443
-40.5044
-40.4689
-41.4768
21.3559
22.0054
-9.42167
116.563
-63.9089
-57.6072
-79.4571
-58.8189
-43.1429
-40.6281
-46.5301
-32.7353
-37.0685
-39.3914
-38.3865
-34.2392
-63.2629
-78.957
-84.3414
-62.2702
-43.5425
-30.3729
-37.8438
-41.8861
-30.8809
-28.3972
-30.8389
-28.6598
-48.8508
-48.4477
-55.94
-44.3417
-38.553
-38.5525
-41.2878
-35.4817
-17.6493
-18.821
-20.2137
-15.9009
-28.9406
-28.9425
-28.8283
-29.2114
-45.5292
-42.6691
-40.9958
-50.9154
-56.6138
-56.6213
-51.8757
-58.8136
-54.6281
-54.6311
-57.2076
-47.5055
-31.0498
-28.4703
-30.8971
-28.7516
-48.8379
-48.439
-55.9152
-44.3429
-17.8445
-19.059
-20.4009
-16.1832
-45.3051
-42.7479
-41.0668
-50.8461
-95.2436
-83.7535
-86.4189
-80.2709
-95.1985
-83.7364
-86.4504
-80.2603
-62.6792
-59.0038
-59.006
-55.003
-9.51306
-2.53808
-2.5295
-7.10289
195.55
177.209
203.579
193.513
-32.2074
-34.3099
-31.4105
-33.7277
-32.2823
-34.3743
-31.5005
-33.7927
-28.944
-29.503
-28.4137
-28.9515
-74.384
-74.4602
-76.3353
-74.4015
-41.4355
-40.7075
-41.15
-39.3734
-41.1144
-40.3718
-40.6597
-38.977
-33.3988
-32.6975
-32.689
-32.0314
-37.5187
-38.79
-38.7717
-40.3334
-22.9739
-21.8638
-22.3912
-22.8111
29.7936
29.9882
-44.8005
118.476
-148.847
-185.766
-131.64
68.0237
-85.1912
-71.0918
-58.8787
-77.0438
-50.4933
-45.6535
-50.0719
-35.011
-44.795
-41.9316
-40.2172
-37.651
-39.6842
-37.8205
-40.6028
-37.1387
33.3463
25.0706
1.10826
103.921
54.3029
52.184
32.35
64.6693
-10.2715
-37.4296
-23.4868
-6.6527
-38.1965
-39.3641
-43.8306
-32.8832
-34.4765
-32.3736
-33.8981
-31.1692
-45.7717
-46.7685
-46.9767
-43.0872
-148.851
-185.656
-131.593
68.2469
26.3042
30.3949
-46.5443
119.809
-85.0826
-71.0799
-58.7464
-77.0059
-44.7159
-41.8377
-40.1416
-37.5153
-50.3398
-45.6567
-49.923
-34.8898
-39.4298
-37.7146
-40.3859
-37.0229
53.8134
52.0638
32.4582
64.6305
30.11
24.4364
1.37433
103.805
-10.2854
-37.2665
-23.5059
-6.61635
-34.436
-32.3487
-33.8621
-31.1025
-38.1563
-39.3341
-43.8565
-32.783
-45.9673
-47.2518
-47.2168
-43.4123
-46.9297
-50.6827
-55.99
-47.2287
-33.6504
-31.2962
-35.8845
-31.5107
-51.0112
-49.8081
-57.1094
-43.4715
-38.9505
-38.6316
-41.4025
-35.6415
-22.0763
-17.3271
-12.4265
-26.1791
-25.8277
-27.4856
-25.8861
-25.5107
-16.306
-16.3668
-18.9126
-15.4686
-26.7865
-28.358
-27.6215
-27.9956
-65.993
-74.6919
-71.6069
-69.2361
-51.058
-49.0847
-53.3711
-46.8255
-49.7407
-47.686
-46.1793
-56.6842
-60.3439
-56.2322
-52.6376
-59.7661
-36.8734
-36.2971
-32.5644
-42.8215
-24.5688
-20.0073
-21.3369
-21.0978
-36.7199
-39.0464
-34.3436
-45.414
-48.3255
-54.7168
-53.6251
-49.7987
-46.904
-50.6477
-55.9337
-47.2128
-38.9413
-38.6294
-41.3931
-35.6437
-33.492
-31.3722
-35.0774
-31.4921
-50.963
-49.7884
-57.0906
-43.4446
-22.1007
-17.4243
-12.4511
-26.1673
-26.8028
-28.3653
-27.6366
-28.0016
-25.9112
-27.5578
-25.9771
-25.5741
-16.4743
-16.5854
-19.1027
-15.608
-65.6287
-74.6221
-71.5385
-69.6693
-60.3191
-56.2508
-52.6349
-59.7916
-51.0723
-49.0852
-53.3691
-46.8461
-49.87
-47.7207
-46.2152
-56.6628
-38.9924
-38.285
-35.7496
-41.5868
-48.3519
-54.7077
-53.6516
-49.7615
-24.8425
-20.2437
-21.5557
-21.2975
-36.8446
-39.137
-34.4551
-45.488
-28.5259
-59.2807
-22.1251
-23.5069
180.641
187.164
182.73
196.118
-93.0047
-75.2156
-83.0277
-83.0371
152.953
174.444
178.867
178.227
-81.7321
-82.5778
-90.5773
-76.901
-58.2945
-58.6692
-62.0375
-54.6543
-47.09
-43.0697
-44.2387
-44.9826
-30.0197
-28.1174
-29.641
-29.6507
-36.5505
-34.9033
-35.8013
-35.8163
-27.6991
-23.8261
-26.8664
-26.7792
-38.7888
-39.6834
-38.9303
-40.9699
-32.8355
-32.6983
-31.8938
-33.5714
3.20353
-17.7244
-10.1723
-10.1987
103.119
170.465
126.257
126.083
-96.3694
-92.6392
-84.7487
-101.507
-34.7842
-8.6056
-25.3282
-18.344
-33.8063
-35.4006
-34.6265
-34.6153
-26.4581
-25.7528
-26.624
-26.687
-40.5258
-41.159
-41.9914
-38.9423
-39.9461
-38.404
-39.5772
-37.711
-28.4205
-59.3156
-21.8096
-23.6689
180.614
187.106
196.108
182.579
-81.6813
-82.5482
-90.5288
-76.8737
-58.2905
-58.6706
-62.0396
-54.6526
-46.8702
-42.9592
-44.7962
-44.0814
-29.926
-27.9561
-29.5202
-29.5404
-38.586
-39.4303
-38.7212
-40.7415
-32.784
-32.6712
-31.8616
-33.526
-96.4298
-92.7831
-101.226
-84.7621
-34.1447
-8.5061
-18.1398
-25.3646
-39.0085
-40.2005
-37.6197
-41.5187
-39.8583
-38.3461
-37.6987
-39.4936
-30.9162
-31.6904
-32.7582
-30.2595
-28.6532
-28.8167
-29.3313
-28.0984
-63.9151
-69.8236
-66.2303
-68.0978
-39.4499
-36.545
-37.2404
-38.4683
-44.0764
-48.6324
-46.2025
-46.2021
-32.2858
-29.6495
-31.0061
-31.0126
-24.0014
-27.9093
-25.4418
-26.4523
-16.4556
-27.1646
-16.8086
-21.8689
-28.743
-27.2519
-27.7904
-27.7838
-29.874
-30.8281
-30.2217
-30.2191
-37.8563
-35.347
-34.6913
-37.9761
-63.6543
-70.7343
-70.1566
-64.7156
-43.4547
-33.9259
-41.5151
-41.2226
-62.3551
-73.2003
-66.2353
-66.2419
-63.3728
-70.0123
-65.7178
-65.7154
-46.5468
-43.5317
-45.0613
-45.0547
-30.9853
-31.7685
-32.8306
-30.3306
-28.691
-28.8403
-29.3635
-28.1319
-63.9075
-69.8115
-68.0874
-66.2181
-39.4731
-36.6003
-37.2817
-38.51
-24.1482
-28.0081
-26.5746
-25.5645
-16.7549
-27.2012
-17.0546
-22.1865
-37.9141
-35.4151
-38.0387
-34.7706
-63.6532
-70.7817
-64.7704
-70.1309
-34.4475
-29.0008
-22.6333
-47.7058
-62.8462
-62.7824
-66.1736
-64.8324
-70.8881
-66.2413
-72.8739
-69.1443
-22.1216
-26.6916
-24.5003
-42.3568
-34.2442
-29.0379
-22.5734
-47.6421
-22.0827
-26.777
-24.6029
-42.5352
-70.8481
-66.2059
-72.8556
-69.1214
-62.8225
-62.7672
-66.151
-64.8161
-92.1541
-80.5
-82.8393
-74.6099
-92.1411
-80.486
-82.8443
-74.6101
-46.4455
-44.2505
-48.6033
-46.1642
-46.4524
-44.2555
-48.6062
-46.1655
1.81992
-3.89196
-7.11053
-8.58897
-43.7793
-47.5986
-33.8156
-42.1477
-43.8855
-47.5004
-33.8635
-42.1745
1.77702
-3.92314
-7.1231
-8.68889
147.635
136.691
178.543
175.155
130.85
98.9971
175.001
134.174
98.9835
130.941
133.973
174.962
136.852
147.854
175.153
178.484
-36.4598
-38.0933
-34.9105
-36.4562
-26.6034
-23.0045
-27.5257
-25.3783
-25.1575
-28.9675
-27.3923
-29.935
-42.7888
-42.7135
-40.2213
-40.2272
-36.4899
-38.0784
-35.0205
-36.4937
-42.8274
-42.7616
-40.2669
-40.2838
-25.3084
-29.0893
-27.5177
-30.0432
-26.7133
-23.1379
-27.6243
-25.4984
-31.0807
-32.379
-29.7474
-31.0262
-32.3899
-31.075
-31.0414
-29.7719
-27.8016
-26.7295
-27.4262
-26.8569
-26.6937
-27.7796
-26.8253
-27.4061
-66.927
-61.7171
-71.7275
-65.5678
-52.6783
-56.352
-59.1805
-62.2428
-56.4068
-52.7553
-62.2627
-59.2464
-61.7066
-67.1052
-65.6107
-71.9103
-9.67415
-11.3186
-18.528
-10.5188
-45.8431
-42.2455
-43.6376
-41.5647
-47.9459
-46.9878
-46.0297
-44.5471
-29.7605
-25.9601
-31.4924
-27.506
-9.7328
-11.4406
-18.4554
-10.7837
-30.7726
-26.6775
-32.2039
-28.0908
-47.8886
-46.9715
-45.9434
-44.4799
-45.618
-42.0126
-43.4269
-41.3429
-29.0445
-29.0198
-30.3021
-29.8768
-29.0288
-28.9993
-30.2834
-29.8683
-37.3257
-36.5012
-36.0221
-35.2777
-37.385
-36.5675
-36.0634
-35.3264
-45.5883
-46.2767
-43.0088
-44.5243
-35.8083
-38.0384
-35.3917
-35.5758
-35.8048
-38.0474
-35.3856
-35.5574
-45.3403
-46.2492
-42.9621
-44.4923
-31.2508
-31.9126
-29.9838
-29.5185
-31.7686
-31.1322
-29.3827
-29.8546
-29.9424
-30.6621
-28.6944
-29.8007
-30.7489
-30.0278
-29.8927
-28.7883
-68.2381
73.3053
-140.048
19.671
-77.0426
-103.332
-50.8305
-40.1643
-42.345
-41.5967
-43.6637
-39.5903
-0.759992
84.2976
32.8318
69.3341
-5.53689
15.9836
-44.1992
-33.5505
-36.8008
-33.4655
-45.0986
-40.9447
-139.915
20.0302
-71.2833
72.9063
-76.0044
-103.219
-42.2661
-41.4684
-50.3926
-40.2691
-43.2862
-39.464
32.7988
69.2741
-0.729525
84.3257
-5.60198
16.0253
-36.829
-33.3349
-44.2366
-33.4321
-45.1708
-40.9216
-47.6385
-44.2904
-38.3464
-34.5002
-53.6089
-44.1269
-42.2619
-35.9718
-18.4628
-25.6259
-22.1324
-23.9728
-18.5455
-17.0011
-25.6007
-26.0525
-59.8807
-70.1299
-54.9946
-49.663
-49.2582
-60.1758
-67.963
-73.0179
-33.56
-43.2135
-27.9222
-28.0889
-31.4141
-44.0728
-46.3718
-45.2019
-47.629
-44.2725
-42.2428
-35.9576
-38.2378
-34.4558
-53.7189
-44.0796
-18.5403
-25.6271
-25.6303
-26.066
-22.251
-24.0314
-18.6901
-17.131
-59.823
-69.4975
-67.9599
-73.0688
-55.0066
-49.6887
-49.2875
-60.1461
-34.4049
-43.4124
-46.3969
-45.2724
-28.147
-28.5872
-31.5986
-44.2216
-27.5654
114.969
1.6049
118.9
-26.3302
-20.6827
153.403
165.728
-129.442
-13.2372
-129.485
-6.02822
-105.685
-105.696
122.236
119.507
-87.063
-64.6097
-64.4148
-52.0241
-81.169
-73.7215
-61.0276
-54.7083
-47.4113
-32.9897
-45.2139
-32.8445
-48.2692
-48.582
-30.7302
-30.8588
-38.9757
-36.1399
-38.9276
-36.0502
-37.51
-37.5302
-30.5785
-30.5191
-39.1228
-35.5329
-24.7148
-31.6407
-40.505
-39.7856
-32.1669
-34.1421
37.7146
69.3513
37.7152
69.3885
13.078
13.1302
90.3588
90.319
-56.6925
-46.3308
-82.0305
-61.2317
-88.0373
-80.2809
-42.1023
-48.3023
-32.6817
-29.7929
-32.6588
-29.7468
-33.173
-33.1554
-27.8399
-27.8785
-43.9335
-43.547
-35.6079
-38.6075
-42.1793
-38.6859
-37.749
-41.4354
-27.9766
115.324
1.52844
118.932
-26.3699
-20.8829
165.746
153.468
-87.3686
-64.6079
-64.369
-52.0096
-81.068
-73.6765
-61.023
-54.7004
-47.3803
-32.8764
-45.2311
-32.7494
-48.4324
-47.9154
-30.6121
-30.764
-38.9623
-35.4439
-24.4071
-31.4954
-40.2362
-39.6089
-32.0977
-34.0718
-56.8973
-46.6113
-82.0101
-61.4471
-80.1641
-88.0629
-48.7456
-42.0547
-44.229
-44.1021
-34.568
-36.4965
-35.3526
-42.0963
-41.6198
-37.4355
-35.5594
-29.6268
-28.6668
-27.0688
-32.3979
-30.1296
-29.3593
-27.845
-56.3317
-43.8115
-54.2868
-45.2202
-60.3719
-60.6815
-40.8549
-41.9533
-41.2991
-35.5373
-41.2935
-35.5419
-42.3918
-42.393
-33.7865
-33.7905
-18.8367
-14.3162
-21.3596
-18.7814
-21.7214
-22.723
-14.2895
-17.3779
-28.5775
-28.9594
-28.5837
-28.9614
-28.7018
-28.698
-29.464
-29.4637
-43.5144
-53.5275
-36.9476
-47.6846
-37.001
-40.3281
-57.7269
-53.1259
-51.5873
-58.4076
-51.5968
-58.4282
-47.0039
-46.9949
-60.1779
-60.1882
-57.2162
-47.6929
-57.2408
-47.6784
-60.5558
-60.5492
-47.5861
-47.58
-37.1517
-29.7608
-28.7291
-27.1357
-32.4365
-30.1785
-29.4297
-27.9048
-56.3148
-43.797
-54.2779
-45.2292
-60.6858
-60.3714
-40.8601
-41.9688
-19.0219
-14.51
-21.5689
-19.0623
-22.8949
-21.8855
-14.5287
-17.6754
-43.5551
-53.6811
-37.0438
-47.7588
-40.3805
-37.0919
-53.2153
-57.7465
-101.96
-98.2402
-94.5163
-78.894
-81.8346
-101.082
-73.3587
-75.0002
-101.925
-98.1484
-94.4526
-78.8756
-100.913
-81.8358
-74.995
-73.3461
-68.2904
-68.301
-62.9094
-55.3393
-62.9176
-55.341
-51.4687
-51.4673
-19.484
-19.5124
-10.8851
-8.47521
-8.42376
-10.8739
-19.3494
-19.3311
168.972
204.816
175.388
174.769
203.884
203.858