# vtk DataFile Version 2.0
tet_velo
ASCII
DATASET UNSTRUCTURED_GRID
POINTS 29498 float
-0.650328 0.155 -1.795
-0.765 0.235 1.69254
-0.785 0.633486 -1.435
-0.685 0.814919 1.755
0.650328 0.155 -1.795
0.765 0.235 1.69254
0.785 0.633486 -1.435
0.685 0.814919 1.755
-0.706811 0.163407 -0.632487
-0.76058 0.174529 0.530027
-0.768968 0.711265 -0.371667
-0.737542 0.77365 0.691667
0.706812 0.163406 -0.632487
0.76058 0.174529 0.530027
0.76897 0.711267 -0.371667
0.737537 0.773645 0.691667
-1.37212 -0.153704 -2.80895
-1.3829 -0.120348 -1.91866
-1.42686 -0.111664 -0.753582
-1.47268 -0.105499 0.431456
-1.48606 -0.062222 1.59821
-1.48926 -0.0213842 2.49674
-1.49381 0.0172054 3.38002
-1.38067 0.108117 -2.6646
-1.3935 0.149147 -1.78515
-1.43878 0.168461 -0.63937
-1.47946 0.182666 0.515337
-1.48098 0.22955 1.66302
-1.48795 0.270146 2.56014
-1.49565 0.307752 3.44665
-1.43949 0.614412 -2.34808
-1.48796 0.653704 -1.46452
-1.49083 0.717431 -0.386357
-1.4692 0.76987 0.684783
-1.43457 0.813073 1.76485
-1.46552 0.851705 2.66607
-1.49144 0.888058 3.56858
-1.48305 1.41712 -1.94786
-1.50592 1.46424 -1.07916
-1.50976 1.54108 -0.0331503
-1.49566 1.61723 0.991483
-1.484 1.67619 2.03853
-1.48898 1.71475 2.9094
-1.50281 1.75021 3.80107
-0.652546 -0.150121 -2.81535
-0.661631 -0.115131 -1.92799
-0.698 -0.113445 -0.75233
-0.738573 -0.111487 0.443994
-0.751902 -0.0610898 1.62013
-0.757564 -0.0201529 2.51161
-0.762858 0.0178164 3.38863
-0.650263 0.108977 -2.66657
-0.764076 0.272332 2.5724
-0.767972 0.30885 3.45315
-0.697595 0.60627 -2.33581
-0.745478 0.853575 2.6641
-0.767868 0.889505 3.56816
-0.743445 1.41044 -1.93573
-0.76576 1.45735 -1.0658
-0.771261 1.53833 -0.0250967
-0.763015 1.61897 0.990517
-0.757266 1.67884 2.03163
-0.763573 1.71689 2.9025
-0.7767 1.75185 3.79607
0.739094 -0.150121 -2.81535
0.693819 -0.115132 -1.92799
0.724567 -0.113446 -0.75233
0.760168 -0.111488 0.443994
0.759596 -0.06109 1.62013
0.729181 -0.0201532 2.51161
0.709078 0.017816 3.38863
0.748014 0.108977 -2.66657
0.714372 0.272332 2.5724
0.698194 0.308849 3.45315
0.783007 0.60627 -2.33581
0.685389 0.853575 2.6641
0.682174 0.889504 3.56816
0.742997 1.41044 -1.93573
0.729785 1.45735 -1.0658
0.718535 1.53833 -0.0250968
0.706397 1.61896 0.990517
0.691973 1.67884 2.03163
0.682664 1.71689 2.9025
0.673713 1.75184 3.79606
1.4453 -0.153704 -2.80895
1.40687 -0.120348 -1.91866
1.44248 -0.111665 -0.753582
1.49074 -0.1055 0.431456
1.49508 -0.0622229 1.59821
1.46915 -0.021385 2.49674
1.44662 0.0172043 3.38002
1.45144 0.108117 -2.6646
1.39693 0.149147 -1.78515
1.43666 0.168459 -0.63937
1.48524 0.182664 0.515337
1.48483 0.229549 1.66302
1.45518 0.270145 2.56014
1.43514 0.307751 3.44666
1.49541 0.614412 -2.34808
1.48266 0.653705 -1.46452
1.48048 0.717431 -0.386357
1.46729 0.769865 0.684783
1.43093 0.813071 1.76485
1.42006 0.851705 2.66607
1.41423 0.888057 3.56858
1.48012 1.41712 -1.94786
1.47071 1.46424 -1.07916
1.45876 1.54108 -0.0331507
1.44173 1.61723 0.991483
1.42175 1.67619 2.03853
1.41032 1.71474 2.9094
1.40178 1.7502 3.80107
-0.725812 0.394243 -1.62315
0 0.151582 -1.79842
-0.681418 0.156356 -1.21374
-0.696662 0.524959 1.69543
0 0.283673 1.64387
-0.760688 0.206866 1.11128
0 0.690833 -1.49235
-0.820122 0.715513 -0.903333
0 0.901012 1.84109
-0.739012 0.822025 1.22333
0.725815 0.394243 -1.62315
0.681418 0.156355 -1.21374
0.696706 0.524959 1.69548
0.760693 0.206862 1.11128
0.820133 0.715524 -0.903333
0.738863 0.821876 1.22333
-0.731831 0.170833 -0.05123
-0.865949 0.437336 -0.502077
4.24103e-07 0.159773 -0.632487
-0.810911 0.47409 0.610847
7.11228e-08 0.168701 0.530027
-0.743773 0.732976 0.16
8.48205e-07 0.812191 -0.371667
-2.33322e-06 1.09839 0.691667
0.731833 0.170831 -0.05123
0.86595 0.437337 -0.502077
0.810915 0.474087 0.610847
0.743779 0.732982 0.16
-0.8592 0.41579 -1.05854
-0.780888 0.455713 0.054385
-0.887277 0.499525 1.16731
2.12051e-07 0.153291 -1.21374
2.47613e-07 0.167409 -0.05123
3.55614e-08 0.195298 1.11128
0 0.394243 -1.91562
0 0.524959 1.96868
4.24103e-07 0.803596 -0.903333
-7.42509e-07 1.0844 0.16
-1.16661e-06 0.98457 1.22333
0.8592 0.41579 -1.05854
0.780886 0.455712 0.054385
0.887277 0.499523 1.16731
-1.02191 0.152073 -1.79007
-0.655979 0.0199343 -1.8615
-0.650296 0.131988 -2.23079
-1.12299 0.232275 1.67778
-0.758451 0.0869551 1.65634
-0.764538 0.253666 2.13247
-1.13648 0.643595 -1.44976
-0.741298 0.619878 -1.88541
-0.77538 1.04542 -1.2504
-1.05978 0.813996 1.75993
-0.715239 0.834247 2.20955
-0.721133 1.24688 1.89331
0.672074 0.0199342 -1.8615
0.699171 0.131988 -2.23079
1.02363 0.152073 -1.79007
0.762298 0.086955 1.65634
0.739686 0.253666 2.13247
1.12491 0.232275 1.67778
0.784004 0.619878 -1.88541
0.757392 1.04542 -1.2504
1.13383 0.643595 -1.44976
0.685194 0.834247 2.20955
0.688487 1.24688 1.89331
1.05796 0.813995 1.75993
-1.07279 0.165934 -0.635928
-0.702406 0.0249812 -0.692408
-1.12002 0.178598 0.522682
-0.749577 0.0315211 0.487011
-1.1299 0.714348 -0.379012
-0.770115 1.1248 -0.198382
-1.10337 0.77176 0.688225
-0.750279 1.19631 0.841092
0.715689 0.0249805 -0.692408
1.07173 0.165933 -0.635928
0.760374 0.0315208 0.487011
1.12291 0.178597 0.522682
0.743753 1.1248 -0.198382
1.12473 0.714349 -0.379012
0.721967 1.1963 0.841092
1.10241 0.771755 0.688225
-1.37751 -0.137026 -2.3638
-1.3764 -0.0227932 -2.73678
-1.01233 -0.151912 -2.81215
-1.40488 -0.116006 -1.33612
-1.3882 0.0143995 -1.8519
-1.02227 -0.11774 -1.92333
-1.44977 -0.108581 -0.161063
-1.43282 0.0283984 -0.696476
-1.06243 -0.112554 -0.752956
-1.47937 -0.0838603 1.01484
-1.47607 0.0385837 0.473396
-1.10563 -0.108493 0.437725
-1.48766 -0.0418031 2.04748
-1.48352 0.0836639 1.63062
-1.11898 -0.0616559 1.60917
-1.49153 -0.00208944 2.93838
-1.4886 0.124381 2.52844
-1.12341 -0.0207686 2.50417
-1.49473 0.162479 3.41334
-1.12833 0.0175109 3.38432
-1.38708 0.128632 -2.22488
-1.41008 0.361264 -2.50634
-1.01547 0.108547 -2.66559
-1.41614 0.158804 -1.21226
-1.44073 0.401426 -1.62484
-1.45912 0.175563 -0.0620168
-1.4648 0.442946 -0.512864
-1.48022 0.206108 1.08918
-1.47433 0.476268 0.60006
-1.48446 0.249848 2.11158
-1.45777 0.521311 1.71393
-1.4918 0.288949 3.0034
-1.47673 0.560926 2.61311
-1.12601 0.271239 2.56627
-1.49354 0.597905 3.50762
-1.13181 0.308301 3.4499
-1.46373 0.634058 -1.9063
-1.46127 1.01577 -2.14797
-1.06854 0.610341 -2.34195
-1.4894 0.685568 -0.92544
-1.49694 1.05897 -1.27184
-1.48002 0.74365 0.149213
-1.5003 1.12926 -0.209754
-1.45189 0.791471 1.22482
-1.48243 1.19355 0.838133
-1.45004 0.832389 2.21546
-1.45928 1.24463 1.90169
-1.47848 0.869882 3.11733
-1.47725 1.28323 2.78774
-1.1055 0.85264 2.66509
-1.49712 1.31913 3.68483
-1.12965 0.888781 3.56837
-1.49449 1.44068 -1.51351
-1.11325 1.41378 -1.9418
-1.50784 1.50266 -0.556155
-1.13584 1.46079 -1.07248
-1.50271 1.57916 0.479167
-1.14051 1.53971 -0.0291235
-1.48983 1.64671 1.51501
-1.12934 1.6181 0.991
-1.48649 1.69547 2.47396
-1.12063 1.67752 2.03508
-1.49589 1.73248 3.35524
-1.12628 1.71582 2.90595
-1.13975 1.75103 3.79857
-0.657088 -0.132626 -2.37167
-0.651404 -0.0205719 -2.74096
0.0432741 -0.150121 -2.81535
-0.679815 -0.114288 -1.34016
0.0160941 -0.115131 -1.92799
-0.718287 -0.112466 -0.154168
0.0132834 -0.113445 -0.75233
-0.745238 -0.0862884 1.03206
0.0107975 -0.111487 0.443994
-0.754733 -0.0406213 2.06587
0.00384694 -0.0610899 1.62013
-0.760211 -0.00116824 2.95012
-0.76082 0.12609 2.54201
-0.0141912 -0.0201531 2.51161
-0.765415 0.163333 3.42089
-0.0268896 0.0178162 3.38863
-0.673929 0.357624 -2.50119
0.0488753 0.108977 -2.66657
-0.766024 0.290591 3.01278
-0.754777 0.562954 2.61825
-0.0248517 0.272332 2.5724
-0.76792 0.599177 3.51065
-0.034889 0.308849 3.45315
-0.72052 1.00836 -2.13577
0.0427058 0.60627 -2.33581
-0.756673 0.87154 3.11613
-0.754525 1.28523 2.7833
-0.0300445 0.853575 2.6641
-0.772284 1.32068 3.68211
-0.0428465 0.889504 3.56816
-0.754603 1.4339 -1.50077
-0.000224043 1.41044 -1.93573
-0.768511 1.49784 -0.545448
-0.0179878 1.45735 -1.0658
-0.767138 1.57865 0.48271
-0.026363 1.53833 -0.0250967
-0.76014 1.6489 1.51107
-0.028309 1.61896 0.990517
-0.760419 1.69786 2.46707
-0.0326462 1.67884 2.03163
-0.770136 1.73437 3.34929
-0.0404545 1.71689 2.9025
-0.0514937 1.75185 3.79606
0.716457 -0.132626 -2.37167
0.743554 -0.020572 -2.74096
1.0922 -0.151912 -2.81215
0.709193 -0.114289 -1.34016
1.05034 -0.11774 -1.92333
0.742368 -0.112467 -0.154168
1.08352 -0.112555 -0.752956
0.759882 -0.0862887 1.03206
1.12545 -0.108494 0.437725
0.744389 -0.0406216 2.06587
1.12734 -0.0616564 1.60917
0.71913 -0.00116858 2.95012
0.721777 0.126089 2.54201
1.09917 -0.0207691 2.50417
0.703636 0.163333 3.42089
1.07785 0.0175102 3.38432
0.76551 0.357624 -2.50119
1.09973 0.108547 -2.66559
0.706283 0.29059 3.01277
0.699881 0.562953 2.61825
1.08477 0.271238 2.56627
0.690184 0.599177 3.51065
1.06667 0.3083 3.4499
0.763002 1.00836 -2.13577
1.13921 0.610341 -2.34195
0.683782 0.871539 3.11613
0.684026 1.28523 2.7833
1.05273 0.85264 2.66509
0.677944 1.32067 3.68211
1.0482 0.88878 3.56837
0.736391 1.4339 -1.50077
1.11156 1.41378 -1.9418
0.72416 1.49784 -0.545449
1.10025 1.46079 -1.07248
0.712466 1.57865 0.48271
1.08865 1.53971 -0.0291237
0.699185 1.6489 1.51107
1.07406 1.6181 0.991
0.687318 1.69786 2.46707
1.05686 1.67751 2.03508
0.678188 1.73437 3.34928
1.04649 1.71582 2.90595
1.03775 1.75102 3.79857
1.42608 -0.137026 -2.3638
1.44837 -0.0227934 -2.73678
1.42467 -0.116007 -1.33612
1.4019 0.0143993 -1.8519
1.46661 -0.108582 -0.161063
1.43957 0.0283972 -0.696476
1.49291 -0.0838614 1.01483
1.48799 0.0385821 0.473396
1.48212 -0.0418039 2.04748
1.48996 0.0836631 1.63062
1.45788 -0.00209035 2.93838
1.46216 0.12438 2.52844
1.44088 0.162478 3.41334
1.42418 0.128632 -2.22488
1.47342 0.361264 -2.50634
1.41679 0.158803 -1.21226
1.43979 0.401426 -1.62484
1.46095 0.175562 -0.0620169
1.45857 0.442945 -0.512864
1.48504 0.206107 1.08918
1.47626 0.476265 0.60006
1.47 0.249847 2.11158
1.45788 0.52131 1.71393
1.44516 0.288948 3.0034
1.43762 0.560925 2.61311
1.42468 0.597904 3.50762
1.48903 0.634058 -1.9063
1.48777 1.01577 -2.14797
1.48157 0.685568 -0.92544
1.47668 1.05897 -1.27184
1.47389 0.743648 0.149213
[...]
POINT_DATA 29498
VECTORS point_vectors float
-7.73979 -7.49247 16.0317
0.107529 0.367136 1.48966
-4.51138 2.00137 6.69933
0.113996 -0.0438643 1.48026
7.71049 -7.4534 16.0504
-0.101905 0.374433 1.56195
4.51785 2.01364 6.70297
-0.111811 -0.0445509 1.47852
0 0 0
0.02302 -0.00259581 0.203682
-0.0796909 -0.0893845 0.326068
0.176868 0.140616 0.395616
0 0 0
-0.0233442 -0.00310211 0.204283
0.0797198 -0.0895823 0.327953
-0.175511 0.14005 0.3951
-0.537575 -0.222264 19.761
-1.23723 -0.690735 20.0778
-0.611249 -0.49395 21.1541
-0.0729553 -0.228226 21.1658
0.406876 0.0572072 21.2293
0.700812 0.180573 20.8894
0.821828 0.0991217 20.6726
-0.706344 -0.187521 19.6762
-1.6988 -0.557918 20.1317
-0.700885 -0.447735 21.2403
-0.153814 -0.311907 21.2203
0.540146 -0.0717221 21.3159
0.852687 -0.0353629 20.9814
0.831189 -0.0607206 21.0435
-1.02053 0.155028 19.6516
-1.71391 0.143137 20.5475
-0.829147 -0.199812 21.1439
-0.405361 -0.228509 21.3342
0.461541 -0.381859 21.3102
0.724139 -0.435958 20.9513
0.722013 -0.428941 20.8711
-0.817754 0.55071 20.0834
-0.878349 0.51724 20.6343
-0.621183 0.250425 20.9966
-0.206912 -0.0106627 21.1768
0.142952 -0.274511 21.0413
0.259964 -0.350192 20.877
0.278549 -0.332442 20.5958
-0.470175 -0.471268 19.2498
-1.89243 -3.04734 19.1236
-0.10437 -0.298917 21.3002
0.270608 0.0872702 19.7049
0.438575 0.892418 18.6408
0.73554 1.4032 18.5882
1.04233 1.26523 17.4452
-0.708398 -0.463368 18.8155
1.08718 1.42181 9.60138
1.57061 1.24264 12.9874
-1.53793 0.563961 17.9619
0.987339 -0.685473 10.705
1.17657 -0.84044 14.4265
-0.92005 1.46564 19.6823
-1.07213 1.48992 20.7303
-1.05731 1.07441 21.1734
-0.257426 0.133606 21.5901
0.0903334 -0.442242 21.2008
0.202879 -0.630701 20.8615
0.0767761 -0.61438 20.4953
0.51121 -0.436676 19.3175
1.90527 -2.88822 19.1666
0.0832761 -0.341241 21.3646
-0.26764 0.0656139 19.9168
-0.456853 0.889564 18.7305
-0.671166 1.41086 18.2331
-0.974533 1.34672 17.1282
0.748231 -0.414894 18.9636
-0.856338 1.40684 8.54267
-1.59924 1.37163 11.7032
1.54723 0.470005 18.2351
-0.899426 -0.659098 8.77324
-1.19175 -0.889351 13.2056
0.919754 1.45929 19.6852
1.05396 1.54973 20.7313
1.05303 1.18092 21.1693
0.251545 0.153405 21.6242
-0.0797039 -0.447199 21.2098
-0.192869 -0.658332 20.8543
-0.0647039 -0.640291 20.5636
0.528624 -0.210315 19.8
1.20001 -0.647015 20.0909
0.612549 -0.480156 21.1435
0.0783247 -0.223724 21.1588
-0.405572 0.0485014 21.2268
-0.722148 0.203141 20.9024
-0.842349 0.150437 20.6538
0.68327 -0.16591 19.7279
1.69153 -0.554116 20.1327
0.704082 -0.448875 21.2403
0.155037 -0.305629 21.2143
-0.537938 -0.0715543 21.311
-0.899488 -0.0203557 20.994
-0.897507 -0.0885306 21.1635
0.981893 0.125616 19.7173
1.73238 0.147041 20.5511
0.835082 -0.206675 21.1487
0.406895 -0.230819 21.3353
-0.465181 -0.382989 21.3158
-0.754185 -0.475544 20.9767
-0.78595 -0.456627 20.71
0.815046 0.551951 20.0836
0.905308 0.553973 20.6414
0.646608 0.276384 21.0088
0.207225 -0.00393308 21.2011
-0.137001 -0.284848 21.0412
-0.254511 -0.384873 20.8558
-0.217691 -0.335765 20.7842
-1.11489 0.0208672 1.28165
0.000789567 -0.293329 2.06717
-0.015752 0.00316586 0.116113
-0.0167657 -0.00984695 -0.0183167
-3.33555e-05 0.00290552 0.0109122
-0.0026826 0.00280211 0.0889659
0 0 0
-0.0385865 -0.0507183 0.630226
0.000431933 0.00615474 0.040535
0.0324144 0.01247 0.21634
1.22526 0.0742483 1.32593
0.0157618 0.00316599 0.116268
0.0173813 -0.0101538 -0.0192246
0.00275116 0.00282903 0.0894432
0.0385413 -0.050756 0.631029
-0.0302086 0.0114845 0.202913
0.000241625 0.00234336 0.110045
-0.0138102 -0.0151258 0.1678
0 0 0
0 0 0
1.44229e-05 0.000839398 0.0619256
-0.000198707 0.0154344 0.350732
0 0 0
0 0 0
-0.00023364 0.00234027 0.110176
0.0138084 -0.0151284 0.167834
0 0 0
0.00924792 0.0118075 0.355436
-0.000289685 -0.000117093 0.0115409
0 0 0
0 0 0
-3.75147e-09 -8.64431e-07 -3.8557e-05
-1.45222e-09 -2.04445e-07 -1.40513e-05
0 0 0
0.000140901 0.0941471 0.142764
-0.0033316 0.249781 -0.943226
2.32743e-05 0.00302194 0.0374588
-0.000329379 0.0647593 0.229365
3.43061e-05 -0.000454695 0.00259515
0.00028129 -0.000122029 0.0112628
0 0 0
0 0 0
-3.30018 -1.59204 19.417
-3.16052 -4.61235 18.4129
-1.85008 -1.43247 17.6177
1.01712 0.192737 19.333
0.0704671 1.03791 12.5835
0.54254 1.04144 6.50244
-3.45761 0.617822 20.6972
-4.29866 2.42676 16.6453
-2.26106 2.65574 21.0273
0.851412 -0.546625 18.603
0.416866 -0.330763 6.79292
0.18395 -0.635063 20.5586
3.16335 -4.42544 18.456
1.83199 -1.28836 17.825
3.29327 -1.59087 19.4186
-0.0910114 1.0598 12.6855
-0.351474 0.992142 6.1925
-1.01469 0.18843 19.3821
4.13185 2.00655 17.1359
2.23965 2.71847 21.0351
3.48239 0.626422 20.7
-0.28307 -0.28596 5.81048
-0.205048 -0.625191 20.306
-0.853918 -0.549994 18.5747
-0.481326 -0.770877 20.8463
0.0491874 0.140816 14.3055
-0.0751801 -0.524541 19.6765
0.572509 -0.0117259 13.7583
-1.1457 -0.562145 21.0495
-2.23947 0.991575 20.9103
-0.704646 -0.33115 19.6469
-0.580461 0.249157 21.6342
-0.0299741 0.116391 14.5115
0.479982 -0.770343 20.8338
-0.555162 -0.0310006 13.9342
0.0737025 -0.52277 19.7424
2.30246 1.10255 20.8361
1.14292 -0.576236 20.9763
0.566757 0.254456 21.6127
0.70883 -0.327575 19.6128
-0.850635 -0.421413 19.7985
-0.614247 -0.199139 19.7213
-0.547705 -0.346809 19.5109
-1.15501 -0.748578 20.8506
-1.47729 -0.65047 20.0949
-1.72436 -1.47377 19.7297
-0.262466 -0.311516 21.1455
-0.666909 -0.474539 21.2052
-0.444849 -0.696541 21.5287
0.135641 -0.11657 21.2489
-0.110672 -0.284625 21.1881
0.101416 -0.29025 21.2188
0.593389 0.140029 21.0959
0.482504 -0.00571596 21.2818
0.685395 0.322835 21.045
0.747246 0.177889 20.8341
0.791982 0.0735302 20.9086
1.03829 0.592117 20.6116
0.852932 0.0384943 20.6582
1.07474 0.547943 20.321
-1.17606 -0.340056 19.7197
-0.890999 -0.0908348 19.629
-0.78882 -0.310928 19.3291
-1.41641 -0.614165 21.0469
-1.89564 -0.208911 20.3184
-0.32529 -0.362971 21.1778
-0.772715 -0.348076 21.1949
0.117966 -0.214775 21.3597
-0.301022 -0.320465 21.296
0.752388 -0.0179314 21.1515
0.554734 -0.236292 21.3748
0.889548 0.00534129 20.8665
0.819277 -0.276004 20.9082
1.41657 0.361528 18.8556
0.783252 -0.309691 21.4204
1.26556 0.178587 19.1502
-1.54141 0.202664 19.9142
-0.999995 0.413536 19.8439
-1.40952 0.258263 19.0264
-1.25613 -0.0402422 21.0771
-1.27526 0.458867 20.6241
-0.622138 -0.26088 21.1792
-0.824165 0.0848128 21.0379
0.00740396 -0.262307 21.4564
-0.327962 -0.0819824 21.3064
0.631107 -0.406853 21.145
0.254311 -0.369189 21.1611
0.755572 -0.406171 20.8493
0.439423 -0.471377 20.8221
1.02239 -0.730481 19.782
0.403142 -0.407713 20.425
0.874008 -0.594979 20.4191
-0.908857 0.584232 20.3697
-0.950209 0.904738 19.8972
-0.763807 0.371132 20.8438
-1.05753 0.90325 20.6826
-0.431926 0.130482 21.1202
-0.851815 0.522868 21.092
-0.000815192 -0.16271 21.138
-0.262431 0.0486285 21.3729
0.203656 -0.334609 20.931
0.120942 -0.371243 21.1071
0.297001 -0.38633 20.6004
0.263974 -0.501648 20.8244
0.195804 -0.426445 20.7704
-0.985729 -1.19719 18.8512
-0.576631 -0.507659 19.0247
0.0337751 -0.597723 18.9845
-0.780185 -1.9386 22.4316
0.0358818 -4.75317 19.0079
0.0745661 0.0740175 20.1987
0.0141366 -0.315239 20.7204
0.416884 0.381067 18.9583
0.00397019 0.068171 17.9491
0.560536 1.2338 18.3865
0.00142937 0.595569 15.4428
0.893401 1.48607 18.3716
0.871919 1.45696 14.0444
0.0023469 0.753499 14.7404
1.30784 1.47099 15.4397
0.0121055 1.23833 14.0115
-1.14856 -0.151309 18.2357
0.0537528 -0.654272 18.3388
1.42356 1.41672 11.6142
1.27171 0.382635 5.88711
-0.0565935 -0.0419127 -0.616928
1.75859 0.124301 11.4228
0.00580768 0.759064 3.3433
-1.38983 1.54815 18.746
0.114039 1.0816 16.395
1.23036 -0.887122 13.3971
0.375566 -0.941599 20.7681
0.0526567 -0.236611 -0.393304
0.344525 -0.843216 20.8732
0.155802 -0.667209 4.63662
-1.0777 1.73001 20.232
0.0034736 2.08276 19.4145
-1.04907 1.16217 20.9072
-0.0369135 2.21703 20.6746
-0.703462 0.676892 21.5988
-0.0561796 2.31979 21.1338
-0.0223177 -0.236192 21.4009
-0.0146284 0.252769 21.9362
0.152835 -0.550475 21.0362
0.00263978 -0.46615 21.3522
0.262894 -0.60931 20.4655
0.0148351 -0.734651 20.9242
-0.00545512 -0.870003 21.0181
0.996724 -1.09949 18.9535
0.645525 -0.455772 19.1257
0.554588 -0.315248 19.5552
0.726349 -1.93221 22.3272
1.69074 -1.38869 19.7601
-0.086344 0.0538955 20.3259
0.468828 -0.689984 21.4998
-0.423992 0.365991 19.0129
-0.0880955 -0.291181 21.2395
-0.544882 1.24261 18.3594
-0.679248 0.30798 21.1011
-0.786078 1.49981 18.1649
-0.695729 1.50269 13.502
-1.05467 0.636978 20.56
-1.23573 1.54289 15.0558
-1.12325 0.620354 20.2762
1.16143 -0.153121 18.4891
0.782781 -0.310334 19.4029
-1.28061 1.47763 10.4074
-1.16727 0.459491 4.19582
-1.46928 0.451454 18.2483
-1.81919 0.293974 9.74278
-1.32312 0.39455 18.2195
1.40733 1.47677 18.8515
1.35399 0.222083 19.1866
-1.19996 -0.87702 11.8071
-0.391701 -0.957225 20.3327
-1.10975 -0.746489 19.0911
-0.328031 -0.872471 20.1788
-0.944425 -0.560152 19.7833
1.0682 1.75902 20.2304
0.946337 0.908866 19.8986
1.037 1.2365 20.8947
1.06745 0.946053 20.689
0.695281 0.744567 21.6363
0.888332 0.577777 21.1062
0.0216771 -0.234914 21.4037
0.267856 0.0568299 21.4046
-0.143229 -0.570409 21.0428
-0.120024 -0.395399 21.1301
-0.209785 -0.623751 20.514
-0.271485 -0.521041 20.8187
-0.220057 -0.492568 20.5156
0.820375 -0.392083 19.8382
0.614604 -0.188786 19.7706
1.13043 -0.716463 20.8312
1.45105 -0.627326 20.1
0.264842 -0.30858 21.1371
0.669891 -0.469933 21.1977
-0.129793 -0.117463 21.2362
0.115758 -0.2809 21.1796
-0.595144 0.145892 21.1015
-0.479497 -0.0091992 21.2772
-0.77832 0.200916 20.8636
-0.832522 0.0858953 20.928
-0.908827 0.0179745 20.768
1.14881 -0.322919 19.76
0.847871 -0.070523 19.6978
1.41747 -0.613005 21.0445
1.89685 -0.210423 20.3196
0.326183 -0.35949 21.1761
0.775058 -0.352757 21.2025
-0.118943 -0.210643 21.3568
0.299736 -0.319664 21.2956
-0.764607 -0.0190234 21.1547
-0.553866 -0.237444 21.3701
-0.942299 0.0254515 20.905
-0.908214 -0.290595 20.9609
-0.8506 -0.326013 21.2288
1.48655 0.183459 19.9464
0.98877 0.402048 19.8673
1.26631 -0.0412603 21.0883
1.31294 0.488175 20.63
0.624579 -0.264009 21.181
0.855924 0.0968082 21.0494
-0.00607837 -0.265049 21.4594
0.344674 -0.0794288 21.3229
-0.650961 -0.427789 21.1377
-0.253068 -0.377815 21.1694
-0.799914 -0.471361 20.9036
-0.458417 -0.501557 20.8378
-0.483523 -0.479929 20.5195
0.921634 0.610067 20.3693
0.781582 0.399371 20.8496
0.451162 0.149631 21.1496
0.00566627 -0.162267 21.15
-0.204628 -0.347343 20.9424
-0.285944 -0.407717 20.5584
-1.02663 -0.419021 19.7519
-1.29849 -1.32825 18.3428
-1.01917 -0.730209 19.4083
-1.64462 -0.713298 18.9961
-0.680041 -0.349429 19.4096
-2.379 -1.63974 19.6076
-1.30709 -0.706638 20.9714
-0.0997815 -0.697443 18.2516
-1.39507 -1.55257 21.3754
-2.09734 -1.69566 22.2149
-0.436567 -0.774549 21.6077
-0.295673 -0.344669 21.1634
0.0718878 0.268438 13.6038
-0.0511731 -0.34103 21.3514
0.0225248 -0.464418 19.8732
0.0885463 -0.418753 20.7101
0.132434 -0.180085 21.3185
0.400904 0.397879 12.6606
0.341558 -0.0970039 21.268
0.271382 -0.333246 19.3756
0.87819 0.297729 20.5091
0.684639 0.0694326 21.1261
0.427499 1.37027 13.2462
0.91154 0.526461 20.8
1.24851 0.277428 19.3578
1.20342 0.486242 20.3033
0.850905 0.105668 20.8717
1.12849 1.48489 14.9678
1.02156 0.521846 20.6374
1.55662 0.251942 19.097
1.17508 0.43549 19.9222
-1.44366 -0.137316 19.7731
-3.44224 -0.293609 16.1825
-2.74082 0.607323 19.1223
-1.10868 -0.10807 19.1062
-4.32859 -0.426524 19.9102
-1.42651 -0.316176 21.121
-1.86202 -0.0935239 21.7325
-0.799415 -0.669182 20.9449
-0.459945 -0.363083 21.1903
-0.94239 -0.732829 20.0386
-0.389217 -0.484856 18.5957
0.0608571 -0.264494 21.4561
0.0724019 -0.216834 19.471
1.10028 -0.0550593 16.9858
0.759985 -0.24354 21.1604
-0.141632 0.183108 1.79548
0.968196 -0.65319 19.2027
1.52936 -0.223758 18.3153
0.901946 -0.261485 20.8612
1.70606 0.31 8.34055
0.930615 -0.713294 20.5096
1.28237 -0.144096 18.3982
-1.28563 0.539492 20.1854
-2.10893 2.74546 19.4379
-1.08671 1.02647 20.3128
-1.31511 0.867313 19.4357
-1.92665 1.10373 20.7916
-1.03787 0.254774 20.9354
-1.88139 1.14723 21.2317
-0.950567 0.664926 20.8989
-1.33446 0.221488 21.1565
-0.631849 0.0018608 21.1784
-1.98875 0.875137 21.7245
-0.597965 0.322616 21.3178
-0.537256 0.0314279 21.6561
0.010155 -0.236403 21.2892
0.0434444 -0.323886 20.8876
-0.0212097 -0.201147 21.2701
0.239688 -0.549132 21.3426
0.385636 -0.431217 21.0062
0.267566 -0.811132 20.7177
0.208601 -0.450534 20.9812
0.446358 -0.722104 20.9672
0.394418 -0.464586 20.7034
0.356963 -0.949087 21.0156
0.28193 -0.506919 20.5787
0.50418 -0.619159 20.6807
1.34433 -1.22917 18.4887
0.0507958 -1.76019 18.2706
0.0950447 -2.35602 15.9698
0.048824 -0.615643 18.6509
-0.0355205 -7.42275 19.5343
0.158964 -0.840822 18.3278
-0.0644112 -1.79509 22.8344
0.0203652 0.131607 12.0467
-0.0673463 0.264028 13.8096
0.0108682 -0.0408943 18.9779
0.00162903 0.111767 10.1435
-0.419081 0.396069 12.8145
-0.000434465 0.296687 16.3635
0.00381756 0.578133 7.32128
-0.367649 1.37657 12.9875
0.00121716 0.52915 14.7459
-0.0819503 -0.787872 0.0768013
-0.062259 0.385791 7.03492
-1.01774 1.57056 14.2329
-0.028348 1.00621 14.2705
0.0368256 -0.771451 -0.399058
0.00286371 1.1664 8.2254
3.36726 -0.305816 16.7062
0.195691 7.35269 13.7629
0.130779 -0.231356 17.2407
0.271978 0.216552 1.43902
-0.0424872 0.460882 -0.621763
0.147808 -0.757735 -4.44224
-1.56404 0.416678 6.77096
0.125509 -0.85754 2.25084
0.143252 -0.12921 -1.99903
2.12563 2.6786 19.4572
-0.0171485 2.47793 20.1405
0.0716981 2.55506 17.9875
-0.0262012 4.01963 21.061
1.8932 1.20539 21.243
-0.0521192 2.01612 20.7159
-0.0705597 3.57305 18.3437
2.102 0.949056 21.5984
-0.0351688 1.38861 22.121
-0.011503 0.0779084 18.6391
-0.0972294 -0.311127 20.5087
-0.0034522 -0.238596 21.5555
0.00940494 -0.602702 16.2363
-0.28707 -0.801345 20.3337
0.00617711 -0.623511 21.2233
0.0187312 -1.02447 17.1187
-0.391109 -0.970919 20.5931
0.022511 -0.618652 20.6957
0.0442382 -0.860253 16.9663
1.00193 -0.391539 19.7987
1.01442 -0.678402 19.4742
1.58523 -0.646009 19.121
0.677229 -0.31846 19.467
2.32449 -1.59181 19.6542
1.29722 -0.692022 20.9606
1.41251 -1.48616 21.3314
2.09978 -1.69447 22.2157
0.456879 -0.771626 21.5999
0.298734 -0.342079 21.1573
0.0696283 -0.348273 21.3415
-0.0187648 -0.465634 19.8855
-0.0729853 -0.416536 20.7836
-0.126388 -0.177121 21.3017
-0.32444 -0.107847 21.2939
-0.267359 -0.333759 19.4257
-0.872189 0.28377 20.552
-0.692862 0.070847 21.1326
-0.914185 0.540568 20.759
-1.2657 0.330685 18.8967
-1.2488 0.560163 19.8249
-0.886989 0.12823 20.8944
-1.06881 0.602384 20.4914
-1.67423 0.346096 18.4098
-1.23233 0.62682 19.0957
1.38703 -0.125318 19.8105
2.5968 0.518845 19.2566
1.06858 -0.0926656 19.2416
4.35225 -0.427416 19.9085
1.43266 -0.320427 21.1278
1.87218 -0.0947858 21.7484
0.791732 -0.670284 20.8639
0.459679 -0.365583 21.1931
0.945603 -0.744226 19.9359
0.386844 -0.487991 18.6175
-0.0614139 -0.263058 21.4566
-0.0731107 -0.217235 19.4474
-1.10508 -0.0566933 17.0138
-0.781948 -0.253049 21.1548
-0.996463 -0.645411 18.69
-1.63193 -0.187683 17.5372
-0.993524 -0.278748 20.6336
-1.02795 -0.718786 19.7438
-1.39138 -0.142005 17.4426
1.28104 0.537429 20.187
1.09379 1.0602 20.3103
1.30478 0.825961 19.4692
1.96968 1.1722 20.8055
1.05896 0.272538 20.9467
0.968921 0.711757 20.907
1.39353 0.249264 21.1642
0.653407 0.0102256 21.1957
0.624389 0.361481 21.3544
0.554109 0.0441166 21.6778
-0.00802611 -0.235023 21.3153
0.0153144 -0.211857 21.3001
-0.230672 -0.565393 21.3516
-0.388446 -0.459944 21.0113
-0.208526 -0.482708 20.9913
-0.427011 -0.792169 21.0131
-0.415186 -0.496983 20.632
-0.279536 -0.525661 20.5495
-0.480766 -0.667429 20.7244
-1.30985 -0.770738 19.2445
-1.6844 -1.68786 21.725
0.0205645 -0.396165 20.9826
0.368038 -0.216733 20.6195
1.12126 0.429328 20.376
1.20189 0.420954 20.3071
-2.39751 -0.225444 18.8025
-2.19904 -0.638941 22.1233
-0.216839 -0.700821 19.0394
0.0461147 -0.238799 18.6242
1.27854 -0.192848 18.0843
1.68268 -0.245969 18.4095
-1.90192 1.22672 19.901
-1.45813 0.48663 21.1232
-1.1008 0.163744 21.4518
-0.0351151 -0.291709 21.5828
0.38083 -0.650655 21.1241
0.447239 -0.694276 20.5806
0.0688608 -2.06773 17.3992
0.0404265 -0.274733 16.7479
0.00681126 0.131544 10.4479
-0.000548443 0.263892 8.68303
-0.01154 0.0652642 7.3402
-0.0665391 0.392804 6.69924
0.189322 -0.340617 12.0165
-0.0164657 -0.309872 -3.76976
0.123945 -1.31772 -3.5926
0.0192063 4.42553 19.1599
-0.0387443 2.67749 20.7204
-0.0218316 3.0054 20.0272
0.00659476 -0.485753 16.0495
0.0107671 -0.746525 16.6538
0.0246238 -1.11733 18.385
1.2795 -0.712508 19.3158
1.6883 -1.64203 21.6873
-0.00491817 -0.405609 21.0228
-0.356769 -0.217847 20.6675
-1.12614 0.467444 20.1465
-1.27662 0.501222 19.6936
2.29242 -0.212609 18.9706
2.20484 -0.641029 22.1376
0.21875 -0.695616 18.9487
-0.0473594 -0.240604 18.6579
-1.31133 -0.151223 17.24
-1.78713 -0.234772 17.9608
1.89547 1.20551 19.908
1.49337 0.513695 21.1345
1.16416 0.188206 21.4809
0.0418797 -0.295151 21.6051
-0.36684 -0.683851 21.1705
-0.43713 -0.756052 20.6802
0 0 0
-0.68749 -12.7906 10.7064
-0.00845752 0.00869227 0.0709948
0.0048256 -0.0161734 0.0352173
-0.020201 0.0224554 0.129823
-0.0287483 0.0398604 0.413941
-0.37816 0.106368 0.565671
0.00221807 0.0247571 0.0827504
-0.118288 0.0151769 0.409188
0 0 0
-0.0990133 -0.0334497 0.391342
0.00273078 -0.00774451 0.101795
0.688783 -12.8096 10.7037
0 0 0
0.00844146 0.0087031 0.0711499
0.0215638 0.0236663 0.135013
-0.00511023 -0.0155503 0.0354471
0.0321841 0.0420852 0.423582
-0.0015055 0.0192065 0.0639942
0.385627 0.110825 0.577432
0.119357 0.0146923 0.411631
0.0958376 -0.032849 0.380292
0 0 0
-0.00259096 -0.0078608 0.102531
0.00293016 0.000496822 0.230823
-0.000177078 0.000658178 0.0480722
0 0 0
0 0 0
0.000406761 0.0134463 0.198701
0.0164159 -0.00291528 0.24408
-0.0735161 -0.0430083 0.528125
0.00618185 0.00108209 0.101136
-0.052026 -0.125676 0.568669
-0.0422592 -0.0814055 0.606387
-0.10342 -0.109722 0.378859
0 0 0
0 0 0
0.000479193 0.00739512 0.0161259
0.0661621 0.0794882 0.258118
0.0446986 0.0149174 0.235877
-0.00286931 0.000499795 0.231145
1.90177e-18 -7.28588e-19 -1.90863e-17
0.000184039 0.000654148 0.0479955
0 0 0
-0.0003683 0.013465 0.201337
-0.00610092 0.00109076 0.100548
-0.0162235 -0.00280923 0.244447
0.058469 -0.0390985 0.504451
0.0517604 -0.125638 0.569283
0 0 0
0.0412636 -0.0797586 0.594683
0.101737 -0.107819 0.37787
-2.35931e-17 1.73113e-17 4.74371e-17
-0.0437055 0.0149669 0.228952
-0.000479864 0.00753821 0.0163735
-0.0637918 0.077058 0.252996
0 0 0
0 0 0
-2.1013e-08 4.42138e-06 0.000197367
1.90424e-06 -0.510539 0.529511
-3.74714e-18 -5.16251e-18 1.49561e-16
6.05378e-07 2.58219e-07 4.2652e-06
0.0367581 0.00596782 0.131504
-0.927064 0.0853536 -0.278509
-2.74782e-07 -1.94715e-05 -0.000446228
-6.6765e-06 -0.00175263 -0.001737
0 0 0
0 0 0
-0.000262298 0.269825 0.361004
-0.00027894 0.011694 0.0919476
-0.000103623 0.000216762 0.00637879
-0.00397411 0.00128066 0.0168861
0 0 0
1.001e-06 7.84882e-05 -5.68491e-05
0.00780765 0.00991972 0.0802192
0.00655179 -0.0014889 0.0155336
0 0 0
0 0 0
-1.34632e-06 6.13841e-07 9.91658e-06
0 0 0
0.919784 0.0837695 -0.278221
-0.034492 0.0052107 0.12369
0 0 0
7.70692e-19 7.72445e-18 9.77131e-17
0 0 0
0.000102256 0.000213505 0.00629647
-0.00505103 -0.00124391 0.012179
-0.00774202 0.0097939 0.079178
0.0117739 -0.0102254 0.270424
0.000813279 0.000142603 0.0127055
1.26358e-05 -0.00027561 0.0243712
0 0 0
5.40978e-09 4.71882e-07 2.58476e-05
1.10158e-06 0.00013356 0.00877775
-0.000503363 0.00188725 0.01526
-0.00219102 -8.92553e-05 0.0257727
-7.80121e-09 -3.3615e-07 -4.81214e-05
0 0 0
-3.15848e-05 0.000186319 0.00158448
-0.342237 0.244004 0.931356
3.36216e-06 4.88177e-05 0.000777634
0.00169545 0.0185855 0.0413531
0 0 0
4.62826e-07 -0.000248162 0.00137064
-0.000835635 0.000146866 0.0130944
-0.0114606 -0.0114374 0.269048
-2.57975e-05 -0.000294783 0.0246246
0 0 0
0.000533878 0.00186145 0.0158035
0.00221194 6.19396e-05 0.0258713
0.349544 0.25294 0.954728
0.000380302 0.00189435 0.0179309
-0.242685 -0.0781909 0.636009
-0.000471067 -0.000286139 0.00495961
0 0 0
0.0150744 -0.035864 0.45224
0 0 0
0 0 0
-0.00286119 -0.000320127 0.197546
0.000157402 0.00180749 0.00664785
0 0 0
-0.0291529 0.0599612 0.493694
0.0605735 0.0750862 0.569207
0.0271343 -0.0097367 0.164039