# vtk DataFile Version 2.0
tet_velo
ASCII
DATASET UNSTRUCTURED_GRID
POINTS 29498 float
-0.90193 0.145 -1.875
-0.895 0.145 1.92242
-0.785 0.895 -1.90897
-0.785 1.61099 1.835
0.90193 0.145 -1.875
0.895 0.145 1.92242
0.785 0.895 -1.90897
0.785 1.61099 1.835
-0.879053 0.165566 -0.609193
-0.873465 0.168845 0.656613
-0.851273 1.19994 -0.66098
-0.821917 1.40924 0.58701
0.879053 0.165567 -0.609193
0.873471 0.168839 0.656613
0.851267 1.19993 -0.66098
0.821917 1.40924 0.58701
-1.76638 -0.485071 -2.8534
-1.75969 -0.368383 -1.84789
-1.73939 -0.356074 -0.581627
-1.7204 -0.408762 0.688226
-1.72231 -0.436393 1.9548
-1.72756 -0.376889 2.96178
-1.73102 -0.277152 3.96604
-1.75986 -0.0197047 -2.87679
-1.75253 0.127751 -1.87323
-1.73557 0.189358 -0.61043
-1.71216 0.203602 0.653974
-1.71402 0.216964 1.91712
-1.72489 0.279727 2.92385
-1.73112 0.372719 3.92868
-1.71056 0.847933 -2.91857
-1.67509 0.98644 -1.91427
-1.70094 1.23172 -0.663619
-1.66808 1.42884 0.585774
-1.64212 1.59396 1.83677
-1.68648 1.64762 2.84424
-1.71627 1.70455 3.85195
-1.67698 2.36398 -2.99464
-1.66244 2.53624 -1.99301
-1.66921 2.8394 -0.748129
-1.67123 3.15669 0.492909
-1.66985 3.40278 1.73797
-1.68286 3.52506 2.73999
-1.70182 3.60437 3.74575
-0.907568 -0.474617 -2.85455
-0.895613 -0.350975 -1.84957
-0.87737 -0.363262 -0.581402
-0.865267 -0.438823 0.690479
-0.872002 -0.489744 1.95873
-0.881852 -0.414272 2.96446
-0.886433 -0.29985 3.96758
-0.911149 -0.0215196 -2.87715
-0.89184 0.247958 2.92606
-0.892266 0.354556 3.92985
-0.870537 0.807815 -2.91637
-0.861823 1.64797 2.84389
-0.885094 1.70198 3.85187
-0.831327 2.33002 -2.99246
-0.814765 2.50093 -1.99061
-0.824973 2.82084 -0.746683
-0.835364 3.15841 0.492735
-0.838979 3.4162 1.73673
-0.851963 3.53808 2.73876
-0.868478 3.61329 3.74485
0.840676 -0.474617 -2.85455
0.881779 -0.350976 -1.84957
0.876618 -0.363262 -0.581402
0.877996 -0.438826 0.690479
0.886578 -0.489746 1.95873
0.844095 -0.414274 2.96446
0.818744 -0.299851 3.96758
0.824685 -0.0215203 -2.87715
0.823245 0.247957 2.92606
0.804029 0.354555 3.92985
0.794874 0.807815 -2.91637
0.785487 1.64797 2.84389
0.786505 1.70198 3.85187
0.848863 2.33001 -2.99246
0.862419 2.50093 -1.99061
0.857186 2.82084 -0.746683
0.833844 3.15841 0.492735
0.815503 3.4162 1.73673
0.80556 3.53808 2.73875
0.79861 3.61329 3.74485
1.71278 -0.485073 -2.8534
1.75024 -0.368384 -1.84789
1.74538 -0.356076 -0.581627
1.73616 -0.408768 0.688226
1.73528 -0.436397 1.9548
1.70198 -0.376892 2.96178
1.67452 -0.277155 3.96604
1.69892 -0.0197067 -2.87679
1.74903 0.127749 -1.87323
1.74164 0.189356 -0.61043
1.72151 0.203597 0.653974
1.7189 0.216961 1.91712
1.6818 0.279725 2.92385
1.65861 0.372716 3.92869
1.66148 0.84793 -2.91857
1.67836 0.986437 -1.91427
1.70931 1.23172 -0.663619
1.67474 1.42883 0.585773
1.6419 1.59396 1.83677
1.63473 1.64762 2.84424
1.63353 1.70454 3.85195
1.69346 2.36398 -2.99464
1.70385 2.53623 -1.99301
1.70059 2.83939 -0.74813
1.67563 3.15668 0.492908
1.65253 3.40278 1.73797
1.64263 3.52506 2.73999
1.63815 3.60437 3.74575
-0.895277 0.52 -1.9438
0 0.141071 -1.87893
-0.899941 0.145834 -1.2421
-0.899955 0.877995 1.93867
0 0.141052 1.92637
-0.896789 0.144366 1.28952
0 0.929424 -1.94339
-0.863302 1.09263 -1.28498
0 1.6271 1.85111
-0.806771 1.51343 1.21101
0.895276 0.52 -1.9438
0.89987 0.145905 -1.2421
0.899955 0.877995 1.93867
0.897363 0.143792 1.28952
0.863287 1.09262 -1.28498
0.806873 1.51353 1.21101
-0.849289 0.194176 0.02371
-0.892998 0.682751 -0.635087
-4.95225e-07 0.140541 -0.609193
-0.8878 0.789044 0.621812
2.6513e-06 0.140545 0.656613
-0.837041 1.30504 -0.036985
-3.0056e-06 1.60973 -0.66098
0 1.78798 0.58701
0.849287 0.194178 0.02371
0.892998 0.682749 -0.635087
0.8878 0.789041 0.621812
0.837035 1.30503 -0.036985
-0.897938 0.601376 -1.26354
-0.876204 0.735898 -0.00663748
-0.897311 0.833519 1.25026
-2.47613e-07 0.140499 -1.2421
1.07804e-06 0.140597 0.02371
1.32565e-06 0.140485 1.28952
0 0.52 -2.12547
0 0.877995 2.08887
-1.5028e-06 1.22362 -1.28498
-1.5028e-06 1.77614 -0.036985
0 1.75049 1.21101
0.897938 0.601374 -1.26354
0.876198 0.735895 -0.00663748
0.897311 0.833518 1.25026
-1.32723 0.136376 -1.87412
-0.898772 -0.102988 -1.86229
-0.906539 0.0617402 -2.37607
-1.30451 0.180982 1.91977
-0.883501 -0.172372 1.94058
-0.89342 0.196479 2.42424
-1.23005 0.94072 -1.91162
-0.827768 0.851408 -2.41267
-0.799882 1.69797 -1.94979
-1.21356 1.60247 1.83588
-0.823411 1.62948 2.33944
-0.811989 2.5136 1.78587
0.891854 -0.102988 -1.86229
0.863308 0.0617399 -2.37607
1.32548 0.136375 -1.87412
0.890789 -0.172373 1.94058
0.859123 0.196479 2.42424
1.30695 0.18098 1.91977
0.789937 0.851407 -2.41267
0.82371 1.69797 -1.94979
1.23168 0.940718 -1.91162
0.785244 1.62948 2.33944
0.800252 2.5136 1.78587
1.21345 1.60247 1.83588
-1.30731 0.177462 -0.609812
-0.878212 -0.0988477 -0.595298
-1.29281 0.186223 0.655294
-0.869366 -0.134989 0.673546
-1.2761 1.21583 -0.6623
-0.838123 2.01039 -0.703831
-1.245 1.41904 0.586392
-0.82864 2.28383 0.539873
0.877835 -0.0988473 -0.595298
1.31034 0.177462 -0.609812
0.875733 -0.134994 0.673546
1.29749 0.186218 0.655294
0.854227 2.01039 -0.703831
1.28029 1.21582 -0.6623
0.82788 2.28383 0.539873
1.24833 1.41904 0.586392
-1.76303 -0.426727 -2.35065
-1.76312 -0.252388 -2.8651
-1.33697 -0.479844 -2.85398
-1.74954 -0.362228 -1.21476
-1.75611 -0.120316 -1.86056
-1.32765 -0.359679 -1.84873
-1.72989 -0.382418 0.0532998
-1.73748 -0.083358 -0.596028
-1.30838 -0.359668 -0.581514
-1.72136 -0.422578 1.32151
-1.71628 -0.10258 0.6711
-1.29283 -0.423793 0.689353
-1.72494 -0.406641 2.45829
-1.71817 -0.109715 1.93596
-1.29716 -0.463069 1.95676
-1.72929 -0.32702 3.46391
-1.72622 -0.0485812 2.94282
-1.30471 -0.395581 2.96312
-1.73107 0.0477834 3.94736
-1.30873 -0.288501 3.96681
-1.7562 0.0540234 -2.37501
-1.73521 0.414114 -2.89768
-1.3355 -0.0206121 -2.87697
-1.74405 0.158555 -1.24183
-1.71381 0.557096 -1.89375
-1.72386 0.19648 0.0217723
-1.71825 0.710541 -0.637024
-1.71309 0.210283 1.28555
-1.69012 0.816219 0.619874
-1.71946 0.248345 2.42049
-1.67807 0.905461 1.87694
-1.728 0.326223 3.42627
-1.70568 0.963674 2.88405
-1.30836 0.263842 2.92496
-1.72369 1.03863 3.89032
-1.31169 0.363638 3.92927
-1.69282 0.917186 -2.41642
-1.69377 1.60596 -2.95661
-1.29055 0.827874 -2.91747
-1.68801 1.10908 -1.28895
-1.66877 1.76134 -1.95364
-1.68451 1.33028 -0.0389227
-1.68507 2.03556 -0.705874
-1.6551 1.5114 1.21127
-1.66966 2.29276 0.539341
-1.6643 1.62079 2.34051
-1.65598 2.49837 1.78737
-1.70137 1.67608 3.3481
-1.68467 2.58634 2.79212
-1.27415 1.6478 2.84407
-1.70904 2.65446 3.79885
-1.30068 1.70326 3.85191
-1.66971 2.45011 -2.49382
-1.25415 2.347 -2.99355
-1.66583 2.68782 -1.37057
-1.2386 2.51858 -1.99181
-1.67022 2.99804 -0.12761
-1.24709 2.83012 -0.747406
-1.67054 3.27974 1.11544
-1.2533 3.15755 0.492822
-1.67635 3.46392 2.23898
-1.25442 3.40949 1.73735
-1.69234 3.56472 3.24287
-1.26741 3.53157 2.73937
-1.28515 3.60883 3.7453
-0.901591 -0.412796 -2.35206
-0.909358 -0.248068 -2.86585
-0.0334463 -0.474617 -2.85455
-0.886492 -0.357119 -1.21549
-0.00691721 -0.350975 -1.84957
-0.871318 -0.401042 0.0545385
-0.000375955 -0.363262 -0.581402
-0.868634 -0.464284 1.32461
0.00636474 -0.438825 0.690479
-0.876927 -0.452008 2.46159
0.00728815 -0.489745 1.95873
-0.884142 -0.357061 3.46602
-0.886846 -0.0831573 2.94526
-0.0188785 -0.414273 2.96446
-0.889349 0.0273534 3.94872
-0.0338446 -0.29985 3.96758
-0.890843 0.393148 -2.89676
-0.0432318 -0.0215199 -2.87715
-0.892053 0.301257 3.42795
-0.876831 0.947965 2.88497
-0.0342973 0.247958 2.92606
-0.88868 1.02827 3.89086
-0.0441184 0.354556 3.92985
-0.850932 1.56892 -2.95442
-0.0378312 0.807815 -2.91637
-0.873458 1.67497 3.34788
-0.856893 2.59302 2.79132
-0.0381677 1.64797 2.84389
-0.876786 2.65763 3.79836
-0.0492944 1.70198 3.85187
-0.823046 2.41548 -2.49153
0.00876802 2.33002 -2.99246
-0.819869 2.66089 -1.36865
0.0238272 2.50093 -1.99061
-0.830168 2.98963 -0.126974
0.0161065 2.82084 -0.746683
-0.837171 3.28731 1.11473
-0.000759951 3.15841 0.492735
-0.845471 3.47714 2.23774
-0.0117378 3.4162 1.73673
-0.86022 3.57568 3.2418
-0.023201 3.53808 2.73876
-0.0349343 3.61329 3.74485
0.861227 -0.412796 -2.35206
0.83268 -0.248069 -2.86585
1.27673 -0.479845 -2.85398
0.879199 -0.357119 -1.21549
1.31601 -0.35968 -1.84873
0.877307 -0.401044 0.0545384
1.311 -0.359669 -0.581514
0.882287 -0.464286 1.32461
1.30708 -0.423797 0.689353
0.865336 -0.45201 2.46159
1.31093 -0.463071 1.95676
0.831419 -0.357062 3.46602
0.83367 -0.0831583 2.94526
1.27304 -0.395583 2.96312
0.811386 0.0273522 3.94872
1.24663 -0.288503 3.96681
0.80978 0.393147 -2.89676
1.2618 -0.0206135 -2.87697
0.813637 0.301256 3.42795
0.804366 0.947964 2.88497
1.25252 0.263841 2.92496
0.795267 1.02827 3.89086
1.23132 0.363636 3.92927
0.821869 1.56891 -2.95442
1.22818 0.827872 -2.91747
0.785996 1.67497 3.34788
0.795524 2.59302 2.79132
1.21011 1.6478 2.84407
0.792557 2.65763 3.79836
1.21002 1.70326 3.85191
0.855641 2.41547 -2.49153
1.27116 2.347 -2.99355
0.859803 2.66089 -1.36865
1.28313 2.51858 -1.99181
0.845515 2.98962 -0.126974
1.27889 2.83012 -0.747406
0.824673 3.2873 1.11473
1.25473 3.15755 0.492822
0.810532 3.47714 2.23774
1.23402 3.40949 1.73735
0.802085 3.57568 3.2418
1.2241 3.53157 2.73937
1.21838 3.60883 3.7453
1.73151 -0.426729 -2.35065
1.70585 -0.25239 -2.8651
1.74781 -0.36223 -1.21476
1.74963 -0.120317 -1.86056
1.74077 -0.382422 0.0532998
1.74351 -0.08336 -0.596028
1.73572 -0.422582 1.32151
1.72884 -0.102585 0.6711
1.71863 -0.406644 2.45829
1.72709 -0.109718 1.93596
1.68825 -0.327023 3.46391
1.69189 -0.0485836 2.94282
1.66656 0.0477808 3.94736
1.72397 0.0540213 -2.37501
1.6802 0.414112 -2.89768
1.74533 0.158553 -1.24183
1.71369 0.557093 -1.89375
1.73158 0.196476 0.0217722
1.72547 0.710537 -0.637025
1.72021 0.210279 1.28555
1.69813 0.816215 0.619874
1.70035 0.248343 2.42049
1.6804 0.905459 1.87694
1.67021 0.32622 3.42627
1.65827 0.963672 2.88405
1.64607 1.03863 3.89032
1.66992 0.917183 -2.41642
1.67747 1.60595 -2.95661
1.69384 1.10908 -1.28895
1.6911 1.76133 -1.95364
1.69202 1.33028 -0.0389228
1.70495 2.03556 -0.705874
1.65832 1.51139 1.21127
[...]
POINT_DATA 29498
VECTORS point_vectors float
-4.56581 -4.41938 15.5475
0.334895 0.681296 5.18378
-1.87391 0.549631 2.59685
0.453289 0.11867 1.95988
4.56446 -4.42467 15.5441
-0.33746 0.679825 5.07815
1.87295 0.55065 2.59208
-0.451398 0.11978 1.94951
0.0618608 0.134881 1.73775
-0.0931443 0.0258135 2.18672
-0.00150698 0.0262452 0.131527
-1.62153e-05 -0.000102704 -0.000252705
-0.0617941 0.134557 1.73554
0.0928808 0.0269709 2.1788
0.00150769 0.0262189 0.131336
1.31465e-05 -8.33365e-05 -0.000204958
-0.719045 -0.479437 20.2588
-1.02527 -0.705494 21.0912
-0.384473 -0.354368 21.8267
-0.0601831 -0.11319 21.9694
0.22658 0.145909 21.9855
0.467005 0.313759 21.8387
0.75292 0.438937 21.5474
-0.95882 -0.417281 20.0603
-1.62816 -0.714912 21.0476
-0.55294 -0.449526 21.9304
-0.0725466 -0.196559 22.0323
0.372226 0.0649533 22.1277
0.767165 0.232801 21.9448
1.1734 0.331395 21.846
-1.16595 0.0171893 19.7901
-2.24137 0.086162 20.6911
-1.43661 -0.366395 21.9694
-0.571912 -0.286534 22.33
0.207802 -0.318281 22.3052
0.650515 -0.416341 22.0725
0.993097 -0.591827 21.8475
-0.542707 0.35989 20.1341
-0.776405 0.545005 20.5492
-0.762982 0.431471 21.4029
-0.416655 0.0911675 21.8874
-0.0130314 -0.12525 22.1749
0.31033 -0.124525 21.6618
0.142611 -0.0820706 20.9739
-0.827864 -1.1668 19.6691
-1.49361 -2.33797 21.6313
-0.448613 -0.325749 22.1648
-0.175809 -0.0267507 22.1188
0.00191597 0.32952 22.203
0.148171 0.82629 21.8761
0.590362 1.44378 21.4979
-1.31576 -1.24197 18.9037
0.517433 1.54909 11.3777
1.52456 1.87307 14.6206
-1.63784 0.249727 17.9749
1.28316 -0.060345 12.7919
1.47364 -1.04212 16.8715
-0.496868 0.722319 19.7633
-0.791295 1.31418 20.2226
-0.785453 1.15311 21.5134
-0.433462 0.333881 22.1144
-0.0530022 -0.165992 22.3463
0.199633 -0.148745 21.6092
0.123713 -0.133517 21.0339
0.765932 -1.20784 19.5997
1.48168 -2.37191 21.6535
0.450484 -0.322214 22.159
0.161601 -0.0251531 22.1163
-0.0134579 0.326747 22.1859
-0.100564 0.807241 21.8766
-0.532981 1.41718 21.6466
1.27469 -1.3412 18.7242
0.0345799 1.60206 8.49458
-1.40817 1.77607 11.611
1.62126 0.27174 17.8019
-1.16915 -0.0111037 10.6106
-1.48277 -1.0888 14.6927
0.500129 0.713643 19.7691
0.812106 1.2824 20.243
0.795184 1.11996 21.5101
0.431306 0.335473 22.1183
0.0485645 -0.167112 22.3522
-0.189041 -0.149585 21.6051
-0.120865 -0.137598 21.0479
0.751236 -0.471262 20.2002
1.04406 -0.699326 21.0693
0.380373 -0.34108 21.819
0.0637542 -0.111266 21.9631
-0.226947 0.141505 21.9803
-0.453646 0.311766 21.8326
-0.814216 0.430895 21.5601
1.01543 -0.443676 20.0013
1.63061 -0.721513 21.0486
0.550994 -0.452105 21.9368
0.0729645 -0.195684 22.034
-0.366284 0.0663017 22.1321
-0.737741 0.252729 21.945
-1.26858 0.330517 21.9182
1.20404 0.0324212 19.732
2.23053 0.0867711 20.6975
1.42137 -0.358272 21.9628
0.568735 -0.282437 22.3265
-0.211844 -0.318339 22.3067
-0.689605 -0.451613 22.117
-1.03801 -0.619945 21.8427
0.539517 0.355587 20.1418
0.767488 0.525098 20.5654
0.753859 0.41507 21.3981
0.416647 0.0915319 21.8867
0.00685233 -0.129342 22.1531
-0.323809 -0.120351 21.7002
-0.159479 -0.0658175 20.9999
-4.35258 -0.201162 5.63948
-0.00015136 -0.256311 0.900853
0.0128061 0.0954175 3.78214
0.100644 0.0883776 0.500626
-0.00456164 0.018102 0.158491
-0.125571 0.188293 4.31278
2.10991e-05 0.0403233 0.0510228
-0.343491 -0.394258 1.19991
-0.000809233 0.0098693 0.0224211
0.0223407 0.0668861 0.175504
4.34956 -0.202262 5.63902
-0.0123766 0.0949989 3.76563
-0.10102 0.0915938 0.498794
0.10107 0.140485 3.3671
0.342761 -0.393428 1.19762
-0.0226392 0.0683899 0.178588
-0.00131997 0.065252 1.53616
0 0 0
1.96623e-07 -1.5103e-08 2.29264e-05
0 0 0
2.42449e-08 -7.66734e-09 3.90742e-06
4.41369e-05 0.000357373 0.000704555
0.000345004 0.02768 0.0625547
-9.17334e-07 -2.42824e-05 0.00278413
0.00116287 0.0648962 1.5338
0 0 0
0 0 0
-4.24874e-05 0.000344069 0.000678447
0 0 0
0 0 0
0 0 0
9.30131e-08 -1.04728e-08 8.70665e-06
-1.72212e-07 3.18539e-08 -2.24797e-05
1.1029e-09 -7.10391e-10 8.07094e-07
-8.44102e-05 -0.246552 0.159826
0 0 0
0 0 0
-4.46464e-06 0.00363095 0.0375451
-1.60142e-06 -0.000212285 0.00253095
0 0 0
4.09771e-19 5.91956e-18 1.86128e-17
0 0 0
-2.85516 -1.59859 21.4899
-2.45622 -3.57244 22.2634
-3.07811 -2.96369 18.4018
0.589012 0.247002 21.9771
0.0856612 0.642782 21.2174
0.215284 0.912687 9.22249
-4.5236 0.486511 20.6946
-4.21733 1.51804 16.2228
-2.28035 2.61199 19.4244
0.296752 -0.414393 22.0368
0.864228 0.452503 8.3164
-0.075905 -0.298981 22.5258
2.45055 -3.61405 22.2877
3.1104 -3.22911 18.1746
2.86309 -1.6049 21.49
-0.087888 0.638559 21.2325
0.0388794 0.805702 7.48563
-0.580911 0.238956 21.9723
4.20073 1.64117 15.895
2.30904 2.52537 19.4718
4.50661 0.481598 20.695
-0.75669 0.393545 6.89223
0.0752587 -0.303401 22.5312
-0.296858 -0.407711 22.0071
-0.262888 -0.694259 22.4521
-0.308138 0.129294 20.8298
0.0351508 -0.276222 21.9227
-0.0414595 0.101492 20.4989
-2.38515 -1.04548 22.6142
-2.83122 2.70592 21.7945
-0.856829 -0.598846 22.5625
-0.817129 0.611663 22.8368
0.313886 0.131978 20.8234
0.268609 -0.69586 22.4435
0.0469914 0.104131 20.5871
-0.0282791 -0.279236 21.9246
2.83237 2.62536 21.8008
2.37071 -1.02987 22.599
0.81537 0.61385 22.8364
0.857417 -0.596145 22.5868
-0.968173 -0.617505 20.5561
-0.847117 -0.475821 20.1401
-0.865749 -0.722086 19.9769
-0.725384 -0.558722 21.5704
-1.33014 -0.749104 21.0697
-1.39345 -1.292 21.2967
-0.17985 -0.223056 21.8875
-0.429741 -0.422662 21.881
-0.337728 -0.347896 21.9879
0.0885854 -0.00969555 22.0382
-0.0504323 -0.154247 22.015
-0.0388874 -0.0221293 22.0297
0.354772 0.247462 21.9525
0.30928 0.127819 22.0861
0.19193 0.295723 22.0912
0.62109 0.541395 21.6832
0.676138 0.288033 21.9778
0.45534 0.58468 22.0808
0.860999 0.588375 21.573
0.82458 0.895053 21.6674
-1.42924 -0.600033 20.3748
-1.16715 -0.244538 19.8579
-1.26166 -0.733688 19.594
-1.06421 -0.61891 21.7225
-2.12979 -0.431876 20.9137
-0.245491 -0.325903 21.9948
-0.890607 -0.608839 22.0041
0.12028 -0.0635048 22.1832
-0.222244 -0.392126 22.2008
0.596045 0.146485 22.1644
0.403406 -0.216034 22.2708
1.02327 0.32904 21.9099
0.926255 -0.154905 22.1625
1.13074 0.533059 21.9907
1.29584 -0.288837 21.5627
1.94959 0.676408 20.8709
-1.79254 0.101178 20.0214
-0.880723 0.358936 19.8913
-1.56208 0.0973532 19.1195
-1.94047 -0.207606 21.5771
-1.52164 0.635699 20.4904
-0.992126 -0.36773 22.2321
-1.37394 0.422897 21.6218
-0.153824 -0.266589 22.346
-0.564272 0.0778059 22.1599
0.453248 -0.37722 22.2371
0.00410495 -0.213046 22.2336
0.845946 -0.557975 21.6618
0.266839 -0.354594 21.8234
0.854531 -0.790079 22.3535
0.366987 -0.398143 21.7445
1.28566 -0.844149 21.5245
-0.681661 0.46985 20.3158
-0.5533 0.528531 19.941
-0.85327 0.541961 21.0067
-0.853079 0.899227 20.4023
-0.586423 0.246432 21.6282
-0.910406 0.70571 21.4767
-0.202594 -0.0483447 22.1234
-0.466354 0.263482 21.9988
0.196667 -0.109656 21.9491
-0.0457036 -0.146956 22.2808
0.179607 -0.105321 21.2362
0.275495 -0.140571 21.6612
0.140582 -0.108488 20.9745
-1.32685 -2.03653 20.1304
-1.031 -1.24841 19.3421
-0.045139 -1.66037 19.241
-0.81614 -0.98848 22.3141
-0.0130289 -3.68668 22.0588
-0.260152 -0.0665394 22.1256
-0.00339206 -0.81691 22.4367
-0.0823518 0.104141 22.1842
0.00430898 -0.341392 22.1139
0.0750972 0.564283 22.1788
-0.000459596 -0.000882448 22.1273
0.189457 1.00864 22.3065
0.283852 1.28614 19.6043
-0.030494 0.318748 21.1622
0.764028 1.88363 18.5197
-0.100355 0.77043 17.8928
-1.69244 -0.678495 18.1309
-0.0868095 -1.96825 17.8287
1.09581 2.23487 13.0772
0.649884 2.04454 6.21022
-0.199369 -0.676127 -2.54066
2.54115 0.646636 12.7971
0.00436768 -1.37785 -3.0349
-0.953562 0.923955 19.0419
-0.114755 0.512069 16.4717
1.62939 -0.970759 16.8344
0.199396 -0.586809 21.9458
0.116759 -0.457826 4.41346
0.285347 -0.778791 21.6686
0.138982 -1.59658 8.68027
-0.658021 1.06049 19.8948
0.00724546 0.881822 19.5701
-0.872442 1.38223 20.8193
0.0416095 1.74578 20.0258
-0.609827 0.717662 21.9096
0.020774 1.56874 21.555
-0.222838 -0.00617557 22.4441
-0.00101701 0.544692 22.2135
0.0280514 -0.131428 21.7283
-0.00248503 -0.22125 22.4171
0.0921832 -0.161619 21.1989
0.011352 -0.186086 21.6418
0.00711487 -0.183908 21.019
1.29399 -2.10185 20.111
1.00688 -1.33324 19.2605
0.873459 -0.767306 19.954
0.821607 -0.987167 22.3191
1.3965 -1.32427 21.302
0.251659 -0.0553746 22.1305
0.333846 -0.362109 21.9841
0.0700066 0.106448 22.1821
0.0385687 -0.0325656 22.026
-0.0665706 0.555667 22.1884
-0.192052 0.27932 22.0866
-0.106928 1.01759 22.3432
-0.105395 1.33334 19.0099
-0.436881 0.612652 22.0687
-0.547621 1.95738 17.3238
-0.792591 0.932134 21.5725
1.60933 -0.709169 17.9103
1.29068 -0.791458 19.512
-0.811474 2.26247 10.5794
-0.299915 1.96419 3.30165
-1.12363 0.613 21.5519
-2.24908 0.566726 9.12432
-2.09688 0.988115 20.4016
0.937887 0.938942 19.013
1.56094 0.136781 18.9995
-1.69861 -0.758683 14.5822
-0.191385 -0.579969 21.9439
-0.93091 -0.648302 21.1234
-0.256752 -0.78561 21.7775
-1.45727 -0.848333 20.7482
0.669757 1.04848 19.9031
0.556455 0.52325 19.944
0.883589 1.32577 20.8446
0.852687 0.858971 20.4132
0.618685 0.71533 21.9163
0.908855 0.676717 21.48
0.217182 -0.00838794 22.475
0.466005 0.262925 21.9992
-0.0324744 -0.132844 21.7531
0.0387748 -0.150474 22.2805
-0.101332 -0.159217 21.2302
-0.267754 -0.143981 21.6582
-0.133948 -0.106855 20.9917
0.991115 -0.641742 20.5433
0.874614 -0.495328 20.0919
0.730364 -0.548888 21.564
1.34934 -0.747044 21.0554
0.177268 -0.216979 21.8833
0.431631 -0.423924 21.868
-0.0843463 -0.00671631 22.0375
0.0587253 -0.161239 21.9993
-0.353563 0.252186 21.9561
-0.301353 0.123073 22.0753
-0.62446 0.565638 21.6766
-0.69255 0.33562 21.9698
-0.941664 0.586698 21.5624
1.46996 -0.630683 20.3546
1.20258 -0.252865 19.8081
1.06293 -0.621834 21.7237
2.12968 -0.430364 20.9176
0.247837 -0.32964 21.9938
0.892069 -0.602177 22.0025
-0.128118 -0.0646505 22.1739
0.222947 -0.389359 22.1978
-0.602533 0.149241 22.163
-0.396816 -0.202247 22.2818
-1.05803 0.372407 22.0413
-0.954174 -0.170867 22.1874
-1.32182 -0.346987 21.7897
1.82484 0.114113 20.0019
0.886328 0.366238 19.88
1.92705 -0.204596 21.5742
1.49501 0.613025 20.5093
0.986497 -0.361736 22.2258
1.34274 0.404621 21.6161
0.153717 -0.265555 22.3454
0.56446 0.0804645 22.1618
-0.451299 -0.386403 22.255
-0.00781548 -0.208616 22.2316
-0.846851 -0.598009 21.7571
-0.273276 -0.354632 21.8381
-0.350086 -0.424452 21.722
0.676223 0.459687 20.3227
0.838617 0.516416 21.0044
0.590123 0.242945 21.6381
0.202162 -0.0492378 22.1201
-0.213379 -0.115366 21.9986
-0.193294 -0.0915322 21.2869
-1.1864 -0.66216 20.4636
-2.00711 -2.56502 19.5586
-1.27198 -1.14963 20.3856
-2.246 -1.2841 19.9056
-1.03045 -0.769422 19.817
-1.96859 -1.54809 21.3925
-0.872283 -0.608206 21.6689
-0.9048 -0.713887 22.498
-0.794927 -0.771821 21.9263
-1.17187 -1.04066 22.4235
-0.254121 -0.406464 22.1597
-0.178898 -0.263426 21.9471
-0.128572 0.237895 20.1767
-0.132837 -0.129861 21.9975
0.0499753 -0.455281 22.1321
0.0405942 -0.0834428 22.0629
0.113884 -0.029896 22.1281
-0.00243556 0.235754 20.9852
0.0816094 0.0947812 22.1084
0.194668 -0.0347669 21.9876
0.372775 0.353691 22.1922
0.48816 0.234441 22.0706
0.20644 0.995193 20.7365
0.353136 0.448806 22.0221
0.86371 0.379492 21.8665
0.788663 0.754384 22.0034
0.781862 0.45207 21.8569
0.706947 1.85247 19.0553
0.6155 0.693922 21.6426
1.51105 0.554488 21.9616
1.34453 0.856544 21.2478
-1.76392 -0.330346 20.1527
-4.69728 -1.29064 16.1393
-3.0062 0.457427 19.0102
-1.54095 -0.436524 19.238
-4.20533 -0.792647 21.3747
-1.51561 -0.553604 21.7718
-3.22454 -0.72507 22.0933
-0.765292 -1.15392 22.6836
-0.491129 -0.533425 22.1465
-1.54178 -0.898124 22.7705
-0.0570568 -0.540809 22.0238
0.0597631 -0.266562 22.3159
-0.239486 -0.363718 22.1637
0.764481 -0.00492897 21.6725
0.687045 -0.15788 22.2024
0.161533 2.08037 3.30042
0.60353 -0.573023 22.0624
1.40044 -0.0161042 21.8642
1.14034 -0.178417 21.6856
1.91016 1.26396 9.92982
0.93841 -0.947317 22.4538
1.84926 -0.507582 21.4369
-1.2254 0.530101 20.0807
-1.56265 1.72701 18.967
-0.733184 0.745202 20.1324
-1.01194 0.588627 19.5252
-2.09214 1.34702 20.1208
-1.55035 0.586929 21.0744
-2.81661 2.83969 20.3853
-0.974778 0.909125 20.8989
-2.13091 1.02514 21.7749
-1.00277 0.255193 22.0235
-1.77915 1.61278 22.8538
-0.690166 0.456464 21.7907
-0.764384 0.272953 22.434
-0.211403 -0.0463151 22.2104
-0.317061 0.0224759 22.6685
-0.22119 -0.00099744 22.4163
0.0282008 -0.287325 22.3613
0.148776 -0.272331 22.0366
0.0211479 -0.428727 22.2456
0.117859 -0.122957 21.8369
0.208351 -0.404466 22.0386
0.322366 -0.434643 21.7999
0.321298 -0.783061 21.7198
0.136023 -0.128461 21.2022
0.416425 -0.611042 21.552
1.99304 -2.70296 19.5156
-0.0361975 -3.22595 19.7324
-0.0863914 -6.13586 16.0269
-0.0581514 -1.92065 18.6849
-0.0131793 -5.74103 23.4111
0.914212 -0.708815 22.4654
-0.00802629 -1.6636 22.7387
-0.00166115 -0.481897 15.9571
0.131482 0.240912 20.2194
0.00268309 -0.485382 22.1186
-0.00533968 -0.2067 15.1485
0.00191384 0.232072 21.0123
-0.00155302 -0.17304 22.0516
-0.0120106 0.0288911 15.982
-0.161445 0.95937 20.4313
-0.0146521 0.156406 21.8187
-0.121397 -0.380566 -0.585265
-0.157986 0.209242 10.7862
-0.450669 1.8173 17.9642
-0.0789792 0.442773 19.9657
-0.18893 -2.24755 -3.97924
-0.0342097 1.1598 5.73202
4.81943 -1.39731 15.6225
-0.117995 3.33694 12.2493
-0.0903936 -0.970136 16.4981
0.0700698 2.30707 1.91128
0.0277564 0.419854 1.58537
-0.144006 -1.71115 -1.68213
-1.6174 1.34995 6.17917
0.101351 -1.36678 6.88236
0.0755868 -2.66576 -4.64015
1.55938 1.73164 18.9619
0.018957 1.37395 19.6606
-0.0206081 1.35558 18.441
0.0482531 4.16366 18.5259
2.81943 2.74804 20.4213
0.0234267 1.85948 20.737
0.0277513 4.70606 21.6194
1.78072 1.5897 22.843
0.00816799 1.03152 22.0354
-0.00108596 1.11072 23.1157
0.314995 0.0253673 22.6717
-0.00208563 0.0834205 22.3475
-0.00290389 -0.213269 22.6385
-0.00282805 -0.448743 22.2884
0.00613839 -0.186224 21.776
0.00183323 -0.611497 22.1658
-0.327015 -0.803476 21.8155
0.0061328 -0.211958 21.2685
0.00406507 -1.02691 21.8377
1.23256 -0.682559 20.4492
1.27758 -1.20795 20.3713
2.33184 -1.3882 19.8049
1.03844 -0.833599 19.7816
1.99157 -1.57609 21.3885
0.879355 -0.605138 21.6576
0.792963 -0.788529 21.9308
1.173 -1.04208 22.4182
0.265331 -0.416489 22.1542
0.182307 -0.261257 21.937
0.130697 -0.144093 21.9934
-0.0428868 -0.459104 22.1305
-0.0280364 -0.095662 22.0561
-0.108254 -0.0316187 22.1268
-0.0861316 0.0837297 22.1104
-0.189269 -0.0399722 21.9901
-0.36509 0.340649 22.187
-0.490279 0.239152 22.0631
-0.33844 0.44902 22.0274
-0.86068 0.420304 21.6978
-0.782658 0.815519 21.9434
-0.793256 0.492753 21.9226
-0.590542 0.693302 21.7457
-1.5687 0.752578 21.0218
-1.35422 1.04185 21.2767
1.80555 -0.336905 20.1236
3.08984 0.504453 18.9074
1.58363 -0.449227 19.1102
4.20538 -0.795413 21.3794
1.51132 -0.546334 21.775
3.20924 -0.714263 22.0824
0.768604 -1.1504 22.6777
0.491785 -0.528974 22.1448
1.53237 -0.884646 22.761
0.0601249 -0.540847 22.0358
-0.0613472 -0.261867 22.3064
0.238593 -0.362407 22.1719
-0.7619 -0.00636819 21.6923
-0.695357 -0.156845 22.2151
-0.632684 -0.55965 21.8349
-1.39061 0.141997 21.0061
-1.25966 -0.162993 21.819
-1.08185 -0.897857 21.4708
-2.18687 -0.292581 20.8757
1.22491 0.528679 20.0826
0.736269 0.72481 20.1439
1.01225 0.603075 19.5022
2.05838 1.29481 20.1509
1.52615 0.566488 21.0738
0.98183 0.869654 20.901
2.08328 0.986506 21.7675
0.992064 0.24978 22.0162
0.68279 0.44749 21.7745
0.763625 0.272488 22.4322
0.213556 -0.0430214 22.2103
0.218085 -0.000612797 22.4264
-0.0245765 -0.284756 22.358
-0.15029 -0.267562 22.0229
-0.104944 -0.125587 21.7976
-0.210996 -0.442875 22.0246
-0.314327 -0.443249 21.8059
-0.11353 -0.133212 21.1757
-0.393697 -0.661965 21.523
-1.67769 -1.29218 20.204
-0.918489 -0.883762 22.167
-0.0100594 -0.188513 22.0577
0.162178 0.0934585 22.1681
0.569397 0.548946 22.0871
1.03061 0.854706 21.891
-3.10746 -0.628093 19.3057
-1.88079 -1.0849 22.7225
-0.255226 -0.93796 22.3234
0.237142 -0.21701 21.8722
1.05653 0.00184301 21.7183
1.7132 -0.224449 22.0809
-1.53267 1.02947 19.6502
-2.3072 1.2666 20.9508
-1.43168 0.651819 22.3284
-0.288073 -0.0449781 22.4268
0.143041 -0.440811 22.2011
0.320622 -0.561612 21.8484
-0.0590502 -4.63783 18.6977
-0.00340412 -1.47214 20.2195
-0.0040108 -0.287352 14.9936
-0.00709684 -0.120991 15.5547
-0.0373314 0.172263 14.2218
-0.0850988 0.00685474 6.66477
-0.11543 -2.36459 10.8008
-0.0289258 1.2576 -0.847501
0.0593487 -2.65386 -3.55034
-0.00334753 2.64848 18.1444
0.0439066 4.89559 19.5963
0.0102667 2.80771 23.0887
-0.00303414 0.206279 22.8398
0.005771 -0.389123 22.2232
0.0250038 -0.850906 22.0192
1.72022 -1.39109 20.159
0.927206 -0.894644 22.165
0.0240834 -0.198986 22.051
-0.155187 0.0821132 22.1621
-0.557956 0.560339 22.08
-1.06345 1.01031 21.7245
3.23229 -0.677784 19.1764
1.87839 -1.08408 22.7154
0.260427 -0.936247 22.3285
-0.233941 -0.217561 21.8805
-1.08261 0.157673 21.174
-1.8424 -0.0956855 21.4263
1.53161 1.02915 19.652
2.28052 1.20658 20.9718
1.42132 0.638806 22.3191
0.288679 -0.0435527 22.4288
-0.13908 -0.423173 22.1759
-0.309093 -0.605413 21.8376
-1.30397 -0.181799 2.71663
-0.0122983 -0.246697 0.873125
-0.162476 0.174512 3.99601
0.105426 0.0577627 0.326665
-0.0866053 0.0605481 0.254784
-0.163258 0.134817 3.59835
-1.16733 0.144167 1.55119
-0.0337252 0.111252 0.143508
-0.791535 -0.28927 1.97047
0.0255516 0.0135543 0.0920975
0.00463207 -0.026625 0.09518
0.0157984 0.0341883 0.122491
0.0125769 -0.247059 0.874289
1.30495 -0.182347 2.71805
0.162229 0.173618 3.97597
0.0838577 0.0580296 0.250797
-0.103878 0.0590182 0.322759
0.140082 0.151363 3.46674
0.0343772 0.113607 0.146549
1.23977 0.154214 1.64379
0.799369 -0.292073 1.99027
-0.00602198 -0.0261567 0.0944224
-0.0261868 0.0140049 0.0930997
-0.0157876 0.0343674 0.121694
0.00530769 0.1263 4.03924
0.003255 0.118557 1.58919
0 0 0
0 0 0
-0.098254 0.0580114 4.81195
-0.0456148 0.0126733 1.93464
0 0 0
0 0 0
-0.00447061 -0.00407705 0.041445
0.000333285 0.0188046 0.102361
0.00121821 0.00990672 0.0205716
-0.0500052 0.0766708 0.188523
0.00620752 0.0261597 0.0486349
0.00436581 0.0188852 0.0557123
3.30614e-06 2.60355e-05 5.54438e-05
0.00218514 -0.000125347 0.0166912
-0.005077 0.125821 4.02347
0 0 0
-0.00340037 0.118186 1.58694
0 0 0
0.0755781 0.0370508 3.89263
0 0 0
0.0453203 0.0124088 1.93059
-1.48713e-18 -5.60912e-18 -1.98878e-17
0.0040113 -0.00366029 0.0371697
0.0495504 0.0770814 0.188519
-0.000330889 0.018837 0.102589
-0.00122431 0.0099627 0.0206765
-0.00619645 0.0260882 0.0486232
-0.00219609 -0.000124986 0.0166921
-0.00436919 0.0188984 0.0556874
-1.97727e-06 1.55777e-05 3.31666e-05
-8.01329e-06 -6.50293e-05 0.000280223
-0.0642765 -0.0438019 0.0333857
9.61328e-08 -8.97271e-07 1.9719e-05
-6.23897e-05 -0.285926 -0.0100512
0 0 0
1.1714e-06 1.25257e-08 1.13462e-05
0 0 0
-0.00793722 0.0409735 -0.0121567
1.16908e-07 -1.63181e-08 -2.75556e-05
-3.92393e-05 0.00012397 -0.000134172
1.3342e-07 3.15931e-05 0.000219019
2.79957e-08 2.77268e-10 8.72754e-07
0.00244232 1.55024 1.13169
7.97315e-07 0.0398528 0.0957872
-0.00135933 -0.0080971 0.103963
0 0 0
0 0 0
-1.099e-06 -0.000117725 0.00100206
0 0 0
0.00427116 -0.00218079 0.0262933
0.0659499 -0.0449431 0.0342645
8.00028e-06 -6.4918e-05 0.000279762
-1.27962e-06 1.38382e-08 1.23743e-05
0 0 0
0.0071921 0.0404505 -0.0120218
0 0 0
2.10458e-08 -2.11219e-10 -6.40967e-07
-1.4127e-07 3.15856e-05 0.000220887
0 0 0
0.00124028 -0.00721216 0.0925726
-0.00430929 -0.00218785 0.0263646
0 0 0
0 0 0
0 0 0
7.40633e-05 0.000565894 0.0156382
0 0 0
-5.41893e-07 -9.82357e-09 -5.65204e-05
-7.90096e-08 8.02763e-09 -1.00467e-05
-0.000135535 0.001924 0.00695215
-0.00243247 0.0152457 0.0642806
-2.54407e-07 4.88981e-08 -3.45901e-05
1.42307e-07 -6.2018e-08 3.53212e-05
0.0287061 0.112436 0.317022
0.00111773 0.00860412 0.115604
-5.9186e-06 0.063975 0.106335
-9.30629e-06 0.0292624 0.101377
-1.87644e-08 7.13868e-05 0.00219085
-2.02372e-06 -0.000212339 0.00358453
0 0 0
0 0 0
-7.37121e-05 0.000564244 0.0156433
0 0 0
0.000133729 0.00189566 0.00683798
0.00243009 0.0152925 0.0642414
-0.00113978 0.00857236 0.115155
-0.028681 0.112252 0.316408
-5.69038e-07 -1.41068e-05 9.5744e-05
-5.71613e-05 -0.00017712 0.00115985
0 0 0
-3.13035e-05 0.000637116 0.0102666
0 0 0
0.0166498 0.123047 0.401674
2.56777e-19 -1.88688e-18 -8.31203e-18