# vtk DataFile Version 2.0
tri_press
ASCII
DATASET UNSTRUCTURED_GRID
POINTS 3682 float
-0.705 0.155 -2.21144
-0.665094 0.345 2.345
-0.736253 0.675 -2.125
-0.705 0.885 2.20529
0.690475 0.155 -2.225
0.665059 0.345 2.345
0.736248 0.675 -2.125
0.705254 0.885 2.205
-0.742415 0.167616 -0.692627
-0.742892 0.217171 0.826187
-0.846578 0.865743 -0.68157
-0.828415 0.927997 0.76186
0.732692 0.167644 -0.701667
0.737117 0.218081 0.821667
0.846613 0.865697 -0.681667
0.82845 0.927865 0.761667
-1.48918 -0.239729 -3.39706
-1.48656 -0.172918 -2.21163
-1.51024 -0.147063 -0.690537
-1.4969 -0.102498 0.845629
-1.43734 -0.0050597 2.36801
-1.42248 0.0510361 3.55971
-1.42878 0.0917008 4.73997
-1.48537 0.0637244 -3.3787
-1.48842 0.149859 -2.20192
-1.52819 0.188456 -0.696115
-1.50445 0.223171 0.816206
-1.41495 0.303627 2.32353
-1.40654 0.357376 3.51437
-1.42069 0.399896 4.69735
-1.49786 0.644011 -3.32251
-1.52431 0.73018 -2.14452
-1.60457 0.867116 -0.690464
-1.57391 0.910812 0.758166
-1.45781 0.900159 2.21398
-1.43127 0.952998 3.40816
-1.43537 1.01042 4.60363
-1.51126 1.61119 -3.29458
-1.53064 1.70666 -2.12704
-1.56915 1.83747 -0.698008
-1.58119 1.90784 0.714743
-1.55138 1.92069 2.14515
-1.51903 1.94004 3.31559
-1.49697 1.97917 4.50237
-0.737077 -0.23874 -3.40513
-0.724778 -0.169998 -2.22199
-0.745245 -0.158398 -0.692105
-0.750045 -0.10587 0.853744
-0.711334 0.0180484 2.38399
-0.69587 0.0661927 3.57029
-0.697604 0.0987463 4.74562
-0.729515 0.0591619 -3.38273
-0.67683 0.371565 3.52299
-0.688764 0.405403 4.70143
-0.733816 0.620325 -3.31474
-0.694108 0.949627 3.4058
-0.69844 1.0089 4.60239
-0.735286 1.59737 -3.2868
-0.744988 1.6949 -2.11813
-0.78023 1.83764 -0.692999
-0.806361 1.91207 0.712922
-0.795539 1.91825 2.13882
-0.769455 1.93514 3.30925
-0.749134 1.97506 4.49744
0.726222 -0.238717 -3.41391
0.716215 -0.169978 -2.23286
0.736069 -0.158272 -0.700261
0.725155 -0.105257 0.849222
0.682308 0.0182815 2.38244
0.716112 0.0663694 3.56876
0.743435 0.0989332 4.7437
0.72653 0.0591732 -3.39118
0.72143 0.371682 3.52195
0.74849 0.405566 4.69976
0.752465 0.620331 -3.31893
0.734082 0.949709 3.40485
0.752525 1.00903 4.60085
0.805628 1.59739 -3.29005
0.816716 1.69491 -2.12069
0.809696 1.83765 -0.695074
0.76874 1.9121 0.711151
0.73163 1.91832 2.13719
0.732178 1.93524 3.30753
0.743973 1.97518 4.49551
1.47138 -0.239669 -3.4127
1.46631 -0.172852 -2.22902
1.49374 -0.146802 -0.704372
1.48018 -0.101659 0.837148
1.42686 -0.00448196 2.36357
1.44246 0.0514543 3.55591
1.47098 0.0920919 4.73579
1.47258 0.0637594 -3.39357
1.46556 0.149879 -2.21908
1.51286 0.188595 -0.709276
1.50081 0.224026 0.808535
1.42317 0.304122 2.32015
1.44334 0.357722 3.51131
1.47412 0.400249 4.69361
1.50685 0.644029 -3.3319
1.51942 0.730173 -2.152
1.60047 0.867097 -0.69635
1.57391 0.910999 0.754229
1.46418 0.900448 2.2114
1.46339 0.953256 3.40546
1.48359 1.01071 4.60019
1.57191 1.61123 -3.30147
1.58798 1.70669 -2.13279
1.59192 1.83752 -0.702786
1.55284 1.90794 0.710693
1.50294 1.92087 2.14151
1.48994 1.94026 3.31186
1.49442 1.97943 4.49833
-0.763147 0.415 -2.21074
-0.0072625 0.184066 -2.18915
-0.739768 0.145248 -1.45203
-0.719077 0.615 2.30917
-1.75238e-05 0.293674 2.39633
-0.739898 0.24518 1.58559
-2.5034e-06 0.785891 -2.23589
-0.830692 0.809648 -1.40329
0.000127017 0.9953 2.31545
-0.798883 0.938675 1.48358
0.757242 0.415 -2.21888
0.727644 0.145261 -1.46333
0.71925 0.615 2.30909
0.737082 0.245546 1.58333
0.830693 0.809611 -1.40333
0.799223 0.938803 1.48333
-0.753218 0.181829 0.06678
-0.872041 0.51668 -0.687098
-0.00486122 0.179061 -0.697147
-0.864431 0.572584 0.794024
-0.0028875 0.174357 0.823927
-0.843401 0.902775 0.040145
1.76897e-05 1.16687 -0.681618
1.7726e-05 1.39345 0.761763
0.745948 0.181819 0.0600001
0.871954 0.51667 -0.691667
0.864492 0.572973 0.791667
0.843423 0.902672 0.04
-0.888504 0.46584 -1.42766
0.888413 0.465835 -1.43333
-0.00606186 0.147226 -1.45768
7.59313e-06 0.93145 -1.40331
-0.0036325 0.415 -2.45193
-0.875524 0.544632 0.0534625
0.875493 0.544822 0.05
-0.00387436 0.18058 0.06339
1.77078e-05 1.39303 0.0400725
-0.886318 0.593792 1.53458
0.886323 0.593986 1.53333
-0.00145251 0.180786 1.58446
7.23718e-05 1.20166 1.48345
5.47469e-05 0.615 2.40998
-0.735417 0.285 -2.21243
-0.356131 0.151415 -2.21842
-0.734108 0.1384 -1.83174
-0.706681 0.48 2.34168
-0.332556 0.308464 2.38154
-0.731665 0.265921 1.9653
-0.765012 0.545 -2.18318
-0.368128 0.762555 -2.21256
-0.824362 0.783214 -1.76414
-0.721467 0.75 2.26666
-0.352436 0.97416 2.29438
-0.767553 0.927449 1.84443
0.341606 0.151437 -2.22517
0.719434 0.285 -2.21752
0.720868 0.138322 -1.84417
0.332521 0.308947 2.38105
0.70671 0.48 2.3416
0.731302 0.265042 1.96417
0.368123 0.762533 -2.21253
0.761869 0.545 -2.18706
0.824375 0.78321 -1.76417
0.352691 0.973151 2.29322
0.721534 0.75 2.26633
0.767658 0.927321 1.84417
-0.737298 0.160225 -1.07233
-0.746982 0.175557 -0.312923
-0.871434 0.310045 -0.689863
-0.371954 0.176707 -0.694887
-0.738702 0.233868 1.20589
-0.756777 0.190778 0.446483
-0.869362 0.362027 0.810105
-0.377765 0.186013 0.825057
-0.842392 0.841452 -1.04243
-0.873019 0.698066 -0.684334
-0.845872 0.885141 -0.320713
-0.481092 1.13193 -0.681594
-0.815768 0.935455 1.12272
-0.866333 0.760246 0.777942
-0.836845 0.916323 0.401003
-0.515513 1.36335 0.761812
0.726344 0.160277 -1.0825
0.362507 0.17617 -0.699407
0.738448 0.175603 -0.320833
0.872357 0.30714 -0.696667
0.734268 0.234645 1.2025
0.372845 0.184759 0.822797
0.752027 0.189455 0.440833
0.869223 0.361318 0.806667
0.842364 0.841365 -1.0425
0.481076 1.1318 -0.681643
0.873004 0.698043 -0.686667
0.845906 0.885072 -0.320833
0.815866 0.935364 1.1225
0.515582 1.36335 0.761715
0.866352 0.760359 0.776667
0.836883 0.916215 0.400833
-0.880252 0.44042 -1.8192
-0.38339 0.415 -2.40143
-0.00666218 0.14734 -1.82342
-0.0054475 0.299533 -2.40284
-0.880641 0.305544 -1.43985
-0.372915 0.152273 -1.45486
-0.820386 0.604396 1.92188
-0.359511 0.615 2.39655
-0.000735018 0.240511 1.99039
1.86116e-05 0.454337 2.45781
-0.883228 0.419486 1.56009
-0.370675 0.193644 1.58503
2.54487e-06 0.877503 -1.8196
-0.0018175 0.600445 -2.37449
-0.895696 0.637744 -1.41547
-0.415342 0.912338 -1.4033
9.96946e-05 1.03965 1.89945
9.08822e-05 0.80515 2.34282
-0.865684 0.766233 1.50908
-0.399406 1.17688 1.48351
0.880174 0.440418 -1.82611
0.376805 0.415 -2.40291
0.880408 0.305548 -1.44833
0.360791 0.151556 -1.46051
0.820397 0.604493 1.92121
0.359652 0.615 2.39663
0.883237 0.419766 1.55833
0.367815 0.196035 1.5839
0.895711 0.637723 -1.41833
0.41535 0.912331 -1.40332
0.865662 0.766395 1.50833
0.399648 1.17692 1.48339
-0.876437 0.332197 0.0601212
-0.376249 0.185799 0.065085
-0.871459 0.49126 -1.05738
-0.873836 0.530656 -0.316818
-0.00546154 0.179027 -1.07742
-0.00436779 0.181387 -0.316878
-0.870887 0.558608 0.423743
-0.886915 0.583188 1.1643
-0.00338093 0.181143 0.443658
-0.00217001 0.179132 1.2042
-0.876321 0.732132 0.0468038
-0.531604 1.36773 0.0401088
1.26414e-05 0.976864 -1.04246
1.76987e-05 1.33496 -0.320773
1.77169e-05 1.40596 0.400918
4.50489e-05 1.34087 1.12261
0.87695 0.330205 0.055
0.368952 0.18537 0.061695
0.871478 0.491253 -1.0625
0.873836 0.530746 -0.320833
0.870987 0.558897 0.420833
0.88691 0.58348 1.1625
0.876299 0.732167 0.045
0.531645 1.3677 0.0400362
-0.875887 0.295272 -1.82547
-0.866913 0.323846 -1.06485
-0.873552 0.664477 -1.0499
-0.891248 0.591372 -1.79167
0.875989 0.295274 -1.83514
0.891205 0.591362 -1.79514
0.873495 0.664453 -1.0525
0.867011 0.323853 -1.0725
-0.364523 0.148911 -1.82758
0.351199 0.148271 -1.83379
0.362353 0.174466 -1.07996
-0.373276 0.174845 -1.07487
-0.391735 0.862198 -1.79187
-0.419311 0.94723 -1.04245
0.419333 0.95052 -1.04248
0.391737 0.862176 -1.79188
-0.36976 0.292266 -2.35451
-0.375759 0.572723 -2.34836
0.372464 0.572723 -2.34936
0.359205 0.292266 -2.35726
-0.873545 0.321316 -0.314871
-0.871592 0.347766 0.435113
-0.872788 0.746919 0.412373
-0.873859 0.714694 -0.318765
0.874238 0.318881 -0.320833
0.873847 0.714703 -0.320833
0.8728 0.747001 0.410833
0.872076 0.346267 0.430833
-0.373747 0.181962 -0.314901
0.365467 0.181294 -0.318856
0.369669 0.187523 0.442246
-0.375874 0.188172 0.445071
-0.526102 1.28933 -0.320743
-0.530785 1.37999 0.40096
0.530863 1.38003 0.400876
0.526147 1.28932 -0.320803
-0.885686 0.407182 1.1851
-0.812069 0.449743 1.94359
-0.815151 0.758117 1.88316
-0.87518 0.758262 1.14351
0.885818 0.407647 1.1825
0.875053 0.758407 1.1425
0.815159 0.758197 1.88269
0.812344 0.449883 1.94269
-0.371782 0.188624 1.20504
0.367465 0.189577 1.20335
0.350168 0.235883 1.97728
-0.351615 0.236225 1.97785
-0.406802 1.31688 1.12266
-0.375921 1.03699 1.87194
0.376169 1.03699 1.87181
0.406941 1.31665 1.12255
-0.346033 0.467169 2.4405
0.346086 0.467169 2.44049
0.356171 0.777575 2.36798
-0.355974 0.777575 2.36802
-0.729336 0.22 -2.22106
-0.530566 0.15142 -2.21672
-0.731197 0.135057 -2.02159
-0.687011 0.4125 2.34446
-0.498825 0.319882 2.37012
-0.713904 0.289936 2.15515
-0.753748 0.61 -2.15721
-0.55219 0.7177 -2.1677
-0.79255 0.741349 -1.94457
-0.715272 0.8175 2.23801
-0.528718 0.943943 2.2642
-0.746762 0.91671 2.02486
0.516041 0.151446 -2.22686
0.717333 0.22 -2.23364
0.717368 0.134965 -2.03458
0.49879 0.320457 2.36954
0.687049 0.4125 2.34447
0.712562 0.290639 2.15458
0.552185 0.717792 -2.16779
0.752152 0.61 -2.15913
0.792429 0.741223 -1.94458
0.528972 0.944013 2.26405
0.715468 0.8175 2.23774
0.746871 0.916575 2.02458
-0.740096 0.163681 -0.882479
-0.745843 0.170443 -0.502775
-0.855032 0.214777 -0.691245
-0.554204 0.178123 -0.693757
-0.743239 0.223078 1.01604
-0.76092 0.192889 0.636335
-0.861843 0.261741 0.818146
-0.564933 0.192383 0.825622
-0.845471 0.854584 -0.861999
-0.862441 0.783225 -0.682952
-0.846245 0.875461 -0.501141
-0.710799 1.09276 -0.681582
-0.823108 0.932742 0.942289
-0.854687 0.847778 0.769901
-0.832762 0.922292 0.581431
-0.689473 1.18069 0.761836
0.729803 0.163676 -0.892083
0.544544 0.178019 -0.700537
0.736719 0.170475 -0.51125
0.853835 0.211737 -0.699167
0.738308 0.223748 1.01208
0.558111 0.195159 0.822232
0.755182 0.193158 0.63125
0.861426 0.260571 0.814167
0.845483 0.854525 -0.862083
[...]
POINT_DATA 3682
SCALARS point_scalars float 1
LOOKUP_TABLE default
-115.17
-41.0661
-30.8365
-37.7292
-114.038
-40.9666
-31.0514
-37.6444
-36.2123
-39.6434
-55.1719
-46.7703
-36.2445
-38.7209
-55.1991
-46.8311
4.03663
-82.1321
-36.2947
-44.6875
-44.4036
-40.7945
-37.7258
77.5512
-103.381
-36.8057
-38.2094
-42.9259
-38.6959
-36.7612
74.2512
-79.2525
-47.5829
-43.1168
-40.4851
-38.0629
-36.3114
-24.056
-58.439
-77.4743
-55.4615
-38.1106
-37.2647
-34.8137
-88.9326
-134.532
-36.1861
-37.6509
-42.9682
-37.4694
-37.0146
63.4807
-36.3894
-35.8303
167.953
-35.6443
-34.993
46.2761
-49.5264
-64.3889
-62.8996
-35.1231
-33.2401
-32.6442
-79.8281
-142.192
-36.303
-37.1924
-42.3583
-37.4162
-37.0117
63.1556
-36.3511
-36.0173
166.999
-35.5906
-34.9554
-0.418157
-49.8156
-66.2092
-62.8793
-34.4518
-33.1191
-32.3048
7.54761
-86.3682
-36.3394
-46.2616
-44.365
-40.7065
-37.6753
77.9398
-113.256
-37.0147
-38.7861
-42.8831
-38.6168
-36.7134
72.1167
-78.1834
-47.7214
-43.1741
-40.397
-37.9841
-36.2538
-24.3826
-58.4116
-77.078
-55.508
-37.5273
-36.5923
-35.2408
-20.7272
-116.615
-53.0964
-38.1856
-38.3938
-43.9241
-68.16
-49.8352
-31.4962
-44.9177
-10.1987
-53.445
-38.1214
-43.6378
-49.8938
-44.9019
-35.0516
-39.813
-36.7796
-37.7967
-38.683
-51.3338
8.9863
-64.0182
-35.0444
-39.7884
-37.8988
-51.4046
-54.8293
-54.8929
-57.328
-9.58084
206.32
-41.0953
-41.1338
-34.5859
-90.9748
-46.5573
-46.5045
-45.767
-38.241
-29.2848
-3.86513
-127.579
-79.4939
-38.9784
-38.8334
-44.3844
-16.9173
-67.1356
-62.9555
-37.9569
-32.4526
-39.5118
-129.402
8.25446
-79.7606
-38.9318
-38.958
-44.4682
-67.1032
-14.1954
-62.9206
-32.3674
-37.8864
-39.4863
-40.1116
-35.4047
-37.2233
-36.4312
-40.2142
-36.5521
-35.3383
-38.5088
-41.8839
-44.9486
-54.7945
-1.3084
-46.9836
-41.9569
-49.2335
-60.5753
-39.6474
-36.4673
-35.4412
-37.2666
-40.133
-38.4219
-36.9086
-35.2632
-41.7365
-1.27157
-44.9159
-54.7742
-46.7355
-60.5424
-42.0054
-49.2685
-90.4941
182.781
-78.0821
181.816
-54.4111
-55.7937
-42.9855
-34.2358
-42.2718
-33.6985
-45.9783
-45.8421
-33.4955
163.582
-54.5079
-15.7149
-33.5066
-27.6214
-47.7521
-39.3553
-91.2771
183.512
-54.689
-55.9736
-42.9617
-34.158
-45.8282
-45.3654
-54.4902
-15.7815
-47.7073
-39.3449
-38.6657
-34.5195
-41.8486
-40.5902
-42.8781
-34.9834
-40.6841
-42.7954
-35.168
-41.1149
-45.541
-82.1666
15.3881
-74.5126
-75.4248
-49.5561
-38.6228
-34.4749
-41.7567
-40.6271
-40.7367
-42.7845
-45.5905
-82.1487
-92.1165
-42.0461
-41.8999
-90.3822
-89.201
-90.6401
-41.7929
-42.0995
-76.4879
-76.826
-41.8628
-41.7669
-36.3183
6.58551
6.34958
-36.3163
177.136
139.569
140.56
178.565
-37.5963
-38.563
-43.9403
-46.2782
-37.5874
-46.2866
-43.9846
-38.5995
-35.0129
-35.0352
-35.636
-35.666
-70.552
-67.6494
-67.6382
-70.5283
-41.6542
-44.1477
-42.0617
-43.2169
-41.6276
-43.1482
-41.9838
-44.1264
-40.8254
-40.567
-42.4998
-42.5742
-50.0891
-34.4619
-34.4266
-50.0619
-35.8816
-35.8424
-32.7929
-32.9134
-56.173
-135.671
-103.485
-40.2696
-39.928
-44.6344
-18.5327
-40.9588
-52.3984
-37.9489
-33.9242
-38.4898
-141.677
-40.2005
-107.429
-39.8455
-40.1894
-44.7447
-40.6109
-16.4781
-52.2957
-33.8595
-37.8723
-38.4071
-37.0038
-35.4975
-36.1681
-36.2452
-42.1254
-37.9475
-34.1822
-39.4218
-50.6406
-49.1385
-55.4489
-53.2661
-46.4426
-44.4819
-47.685
-52.9407
-37.4516
-36.2907
-35.79
-36.0195
-43.4589
-37.8352
-37.6403
-33.8997
-50.5647
-53.6311
-49.1143
-55.3898
-46.5893
-52.906
-44.5385
-47.7351
-1.3114
-16.7336
-101.756
129.248
-123.362
-124.354
-93.6365
102.012
-62.7508
-47.9377
-53.0171
-54.6072
-38.7661
-38.6237
-41.5467
-35.3626
-38.8093
-38.7914
-40.8317
-35.3004
-44.8454
-39.9354
-45.2767
-44.6599
-77.9059
-77.8178
-45.8841
126.353
-59.7284
-41.5888
-54.4538
-25.1281
-31.8008
-31.6336
-32.2887
-26.3485
-42.4457
-45.7075
-46.2507
-41.4098
10.3644
-15.0296
-99.867
130.736
-63.5235
-47.8745
-54.8284
-54.7934
-38.6876
-38.5731
-41.4794
-35.3178
-44.9613
-40.0221
-45.0548
-45.462
-59.8616
-41.5042
-54.3654
-25.0859
-42.3944
-45.7183
-46.2093
-41.3986
-34.6878
-35.8064
-36.5738
-34.5907
-38.3115
-41.836
-39.4128
-40.2531
-36.6989
-36.7039
-38.9321
-35.735
-35.2192
-39.9498
-39.4779
-39.1806
-38.3651
-38.6064
-36.759
-40.9088
-53.7679
-51.1506
-48.135
-64.3452
7.48736
7.55851
22.805
-19.5951
-63.4123
-63.4041
-70.7385
-56.777
-34.6933
-35.5318
-36.722
-34.535
-38.3006
-41.8087
-39.3595
-40.2718
-35.3465
-40.0059
-39.5329
-39.1624
-53.7464
-51.1717
-48.1732
-64.3226
-67.2185
-54.7687
-54.5631
-48.8368
-67.4851
-54.8642
-54.57
-48.7539
-65.8165
-56.8703
-56.9551
-52.3921
-22.3332
-11.0896
-11.1158
2.89111
193.325
178.93
183.816
194.514
-39.693
-40.7483
-41.5539
-42.9808
-39.7341
-40.7919
-41.592
-43.0205
-34.5588
-34.2681
-34.7594
-34.5343
-89.3492
-97.3771
-82.2616
-89.3374
-49.285
-46.3716
-47.4212
-44.1392
-49.0925
-46.2793
-47.3883
-44.0881
-46.0726
-45.5476
-45.4781
-42.9177
-35.0671
-38.4506
-38.4376
-42.5815
-31.1119
-31.4669
-28.2941
-31.0029
-100.739
106.149
-95.2994
62.2109
-91.5708
-76.7151
-42.056
-36.3037
-43.9436
-36.4469
-45.3265
-42.9849
-81.8992
92.896
-47.3661
86.0649
-84.3976
-43.1265
-40.7918
-34.9999
-32.639
-32.7781
-41.1442
-35.5802
-96.2708
58.8499
-106.164
115.336
-90.1293
-76.7422
-43.9172
-36.3989
-42.0111
-36.2638
-45.4046
-43.0095
-47.3624
87.322
-80.8535
93.775
-84.3993
-43.1476
-32.589
-32.6509
-40.7042
-34.9347
-41.0682
-35.5461
-42.1249
-40.9536
-36.0397
-35.1198
-38.158
-37.2477
-38.3012
-35.6326
-40.7092
-41.2881
-37.5292
-36.094
-37.5323
-40.5014
-37.0203
-40.6882
-43.6269
-7.79406
-43.0991
-46.0364
-49.8808
-78.8042
13.353
-29.8818
-45.2332
-51.3693
-42.7657
-41.6477
-46.4811
-57.4006
-64.7179
-56.7028
-41.3585
-40.9833
-38.2936
-35.6591
-36.096
-35.1699
-38.1498
-37.3134
-40.6442
-41.2486
-36.8979
-41.1066
-38.0292
-36.0606
-37.5599
-40.6465
-43.5663
-7.88542
13.439
-29.8122
-42.942
-46.0258
-49.8745
-78.7946
-45.0756
-51.3406
-64.7144
-56.6929
-42.8086
-41.6793
-46.524
-57.3815
-90.0031
-89.4764
172.275
168.007
-77.3521
-77.5723
181.038
182.408
-66.4485
-48.5194
-64.4349
-50.6547
-44.0196
-42.8703
-35.482
-34.049
-42.525
-42.5082
-34.6218
-34.5817
-42.8366
-50.0714
-42.7984
-44.0867
-33.9236
-33.9302
159.613
160.973
-46.0327
-66.838
-26.4567
-4.92355
-33.8217
-33.7973
-30.2437
-30.3714
-45.2962
-46.0644
-43.763
-36.2166
-89.8541
-90.366
168.258
173.17
-65.873
-48.0836
-64.584
-50.7381
-42.8462
-43.9783
-35.4295
-33.9547
-42.7349
-50.0465
-42.4579
-44.9402
-66.9563
-46.037
-4.80977
-26.472
-46.0204
-45.2226
-36.215
-43.7583
-37.8748
-39.2973
-34.218
-34.9767
-42.2053
-41.7466
-38.8733
-42.8843
-42.6171
-42.5857
-34.9577
-34.9587
-39.3939
-42.1542
-42.2552
-43.0435
-35.3128
-35.3383
-41.0398
-40.9769
-45.4825
-46.112
-91.3885
-73.3641
12.4861
12.7748
-73.402
-73.4141
-73.959
-73.9471
-49.7738
-49.7642
-37.7034
-39.3173
-34.206
-34.93
-41.6186
-42.1505
-38.889
-42.9034
-42.2033
-39.4497
-42.2408
-43.0168
-46.1309
-45.5314
-73.3413
-91.3754
-79.0484
-65.3298
-66.9197
-108.055
-36.1266
-38.7832
-48.6994
-47.1154
-46.9778
-44.8196
-48.2161
-40.7941
-65.3125
-95.4068
-66.9152
-67.592
-84.736
-107.851
-67.0936
-66.331
-65.1023
-67.6058
-67.095
-93.5366
-46.84
-40.7358
-48.165
-44.7627
-36.7917
-46.8409
-48.5978
-38.7426
-96.6634
-94.0166
-65.4018
-63.5756
-97.7935
-63.9176
-65.3821
-94.0453
-37.89
-38.7695
-51.8999
-49.6747
-37.7925
-49.6568
-51.7863
-38.7639
-50.0361
-35.8779
-23.0182
-46.5617
-20.0285
20.6981
0.914485
-15.6933
-19.6532
-15.6378
0.944177
20.7126
-49.9726
-46.5625
-23.0442
-35.8536
31.2608
96.1748
172.454
103.887
40.0903
99.9545
179.745
128.697
39.8626
130.957
179.432
99.652
27.6519
72.6617
173.267
98.8384
-36.0008
-36.1763
-39.1483
-38.5737
-37.0117
-38.1226
-40.1594
-37.736
-45.2928
-48.2324
-43.0903
-40.9846
-49.8988
-42.4466
-42.9823
-49.3298
-36.2622
-38.6054
-39.1863
-36.17
-49.8805
-49.3056
-43.0174
-42.4513
-45.3395
-41.0328
-43.1336
-48.2541
-36.9316
-37.4124
-40.1955
-38.1866
-35.5587
-35.7211
-34.2572
-34.2226
-35.6055
-34.2269
-34.2494
-35.7272
-37.4008
-36.6831
-34.8068
-35.1082
-37.5381
-35.2334
-34.8386
-36.7563
-81.1181
-70.5069
-94.7163
-19.9778
-54.8429
-69.7201
-80.8476
-60.7149
-54.8355
-60.6936
-80.8441
-69.7103
-80.8802
-20.0054
-94.6986
-70.4942
-45.7787
-41.9309
-43.5915
-39.9139
-43.1311
-41.5854
-50.2788
-49.1462
-40.0754
-43.3638
-48.1233
-41.3987
-43.6028
-39.6575
-44.7107
-46.3545
-46.3859
-39.9222
-43.5183
-41.741
-44.044
-46.3331
-44.6633
-39.6587
-39.9873
-41.3162
-48.1094
-43.307
-43.0987
-49.1488
-50.2258
-41.5313
-40.1445
-40.8863
-42.9311
-41.8568
-41.8535
-40.7111
-42.826
-40.9231
-45.0364
-41.3043
-45.8866
-44.4603
-44.7094
-43.8662
-45.6726
-41.297
-51.9653
-46.1211
-42.9241
-56.6566
-33.9246
-32.2985
-35.4738
-37.8964
-33.8598
-37.8717
-35.4613
-32.2949
-51.9513
-56.5834
-42.9182
-46.1044
-36.9581
-35.7779
-33.1034
-35.9759
-36.9123
-35.9317
-33.0395
-35.7432
-34.6438
-28.8026
-29.8219
-35.3579
-34.7399
-35.4125
-29.9234
-29.0249
-80.5897
-132.552
-113.096
-40.8038
-40.6001
-43.1358
-23.6604
-32.1919
-47.2208
-37.9986
-35.3547
-37.9676
-149.349
-74.9928
-119.449
-40.4711
-40.7167
-42.9558
-32.0598
-23.0069
-47.2976
-35.2636
-37.9185
-37.8783
-37.3575
-35.4697
-35.9626
-36.1578
-39.9946
-40.0452
-31.5502
-40.3375
-54.7255
-52.0238
-55.5224
-73.7018
-46.6423
-45.6839
-47.1524
-49.9145
-37.2691
-36.1937
-35.7424
-35.3782
-42.5684
-38.3061
-39.8058
-31.5123
-54.8279
-73.8034
-52.0148
-55.4477
-46.7147
-49.9305
-45.7434
-47.2136
-9.10375
-16.3698
-71.1675
67.1448
-119.527
-120.327
-99.8177
-21.1708
-57.2532
-49.9116
-53.7945
-53.7131
-38.2947
-38.4768
-40.6342
-35.7944
-38.4927
-38.488
-40.0309
-36.7614
-44.0461
-43.4359
-44.4525
-44.0167
-64.6039
-64.7892
-55.2939
45.3703
-55.2852
-43.9213
-54.0025
-35.7778
-31.1728
-31.7135
-32.5511
-27.2151
-43.6468
-45.0897
-45.2798
-43.4044
-1.34771
-11.0367
-67.8947
71.7019
-57.84
-49.9196
-54.4614
-53.9078
-38.2305
-38.4288
-40.5664
-35.7547
-44.6133
-41.7533
-44.1954
-44.8275
-54.8559
-43.8193
-53.899
-35.7163
-43.6337
-45.0749
-45.252
-43.4046
-34.7168
-35.6239
-35.3216
-34.7694
-38.9595
-40.7366
-39.6691
-39.9951
-36.7483
-36.7506
-37.6986
-36.1616
-36.4038
-39.0112
-38.7161
-37.0999
-38.7825
-38.794
-38.284
-40.7597
-52.9918
-51.0206
-48.9555
-58.1419
8.71554
8.72273
18.4928
-2.4461
-63.8766
-63.8709
-67.4631
-60.3191
-34.7018
-35.4906
-35.4246
-34.7184
-38.9435
-40.7063
-39.6533
-40.0058
-36.5282
-39.0784
-38.778
-37.1279
-52.9823
-51.1683
-49.019
-58.0876
-60.1346
-54.7877
-54.7265
-51.6402
-60.2858
-54.882
-54.7742
-51.5856
-61.1638
-57.231
-57.2554
-54.2228
-15.5822
-9.89021
-9.89563
-4.25289
203.383
190.968
205.214
204.317
-40.3457
-40.8839
-41.4647
-42.0456
-40.3732
-40.9342
-41.4842
-42.0801
-34.5748
-34.2171
-34.7586
-34.5644
-90.627
-94.7598
-86.5316
-90.6191
-49.1459
-46.4499
-46.6473
-45.153
-49.2947
-46.389
-46.5961
-45.0932
-46.833
-45.7729
-45.7752
-44.1228
-36.4688
-38.2951
-38.2895
-40.2579
-29.667
-29.3952
-28.865
-29.6369
-23.3097
9.58738
-76.7308
62.7604
-130.353
-125.341
-109.619
-86.6037
-93.6984
-70.1857
-92.9229
-77.6702
-39.1192
-38.8125
-41.3289
-36.9864
-39.0445
-38.8125
-41.8212
-37.6655
-44.138
-43.8132
-46.0658
-43.3347
-17.9748
-14.4552
-63.9288
53.353
-56.6423
-85.0889
-56.1767
12.5205
-57.4817
-62.1107
-74.1269
-50.733
-37.6568
-38.2944
-40.3824
-35.5211
-33.087
-32.2066
-32.1609
-32.7191
-38.7031
-40.4787
-40.5763
-37.0584
-133.014
-126.455
-111.144
-110.418
-2.0841
24.981
-70.5791
67.1647
-93.6547
-70.6502
-90.3483
-77.3626
-39.1051
-38.7898
-41.8469
-37.5587
-39.0671
-38.7353
-41.2658
-36.9367
-44.4425
-43.5369
-46.3906
-43.3719
-56.4754
-84.864
-56.151
13.0844
-16.4053
-11.3683
-63.3409
54.1622
-57.4012
-61.8849
-73.9378
-50.7112
-32.9837
-32.0635
-32.1129
-32.5949
-37.5793
-38.2299
-40.303
-35.463
-38.6313
-40.4325
-40.5037
-37.0189
-37.9793
-43.949
-41.8806
-40.5419
-36.1179
-34.48
-36.062
-35.3808
-36.7108
-37.7611
-37.4142
-37.07
-36.346
-36.6182
-37.1849
-35.9949
-41.1799
-39.4192
-40.0536
-42.5666
-36.7295
-36.2085
-36.9879
-36.3924
-36.0148
-34.7205
-36.4879
-37.3849
-38.7297
-38.2016
-38.0058
-40.4391
-47.4104
-41.0324
-45.2852
-24.0617
-46.8222
-43.2544
-44.0867
-45.5159
-55.2225
-54.3028
-52.1002
-64.3589
-13.7045
4.57459
9.78807
-15.5303
-47.3721
-46.3937
-46.7184
-48.6466
-43.2526
-40.9267
-42.3009
-41.7665
-48.4319
-50.1486
-47.8701
-53.3136
-55.7046
-62.6985
-62.567
-60.0827
-38.1063
-43.5802
-40.1778
-40.4288
-36.3807
-36.6093
-37.2114
-35.9879
-36.1954
-34.4637
-36.1894
-35.3488
-36.8152
-37.7682
-37.4333
-37.1412
-41.1193
-39.8279
-40.0416
-42.2117
-37.8996
-38.4332
-37.758
-40.9371
-36.8646
-36.0602
-37.723
-36.5041
-35.554
-34.7042
-36.4876
-37.7994
-47.1324
-40.9485
-45.1189
-24.0883
-13.7686
4.52933
9.80752
-15.4618
-46.7952
-43.2203
-44.0488
-45.4989
-55.1825
-54.279
-52.0885
-64.3567
-46.9229
-46.4398
-46.1984
-48.6266
-55.6433
-62.6793
-62.5507
-60.0759
-43.307
-40.9802
-42.3518
-41.8269
-48.472
-50.1716
-47.9063
-53.3024
-103.882
-77.0336
-89.7499
-89.4684
164.086
195.147
176.822
181.387
-86.0371
-71.3964
-77.8911
-77.9955
173.245
175.698
183.893
184.222
-53.8185
-54.6194
-59.403
-51.288
-55.2486
-56.3768
-59.7092
-52.6795
-42.0549
-46.5215
-43.6712
-42.3206
-34.9027
-32.7715
-34.6456
-34.4279
-41.0696
-44.1515
-42.3015
-42.2909
-34.4338
-32.6696
-33.9158
-33.8895
-45.5651
-46.2795
-44.1572
-49.6386
-45.3911
-46.1479
-44.0707
-45.4976
-38.4614
-27.9862
-33.4147
-33.4254
140.944
172.809
166.38
166.436
-54.5817
-54.5368
-50.3942
-59.7551
-20.0103
-12.7067
-20.9753
-10.1213
-32.8398
-34.1175
-33.6061
-33.5929
-26.933
-28.055
-28.2521
-28.5987
-47.3331
-47.8616
-47.4386
-47.4113
-40.1244
-38.7667
-41.3133
-37.5865
-104.767
-77.4381
-90.4455
-90.0645
164.75
194.392
181.667
178.056
-54.3276
-54.7791
-60.1171
-50.9819
-55.3771
-56.4775
-59.8991
-52.7882
-42.0016
-46.3063
-42.2893
-43.623
-34.8597
-32.6601
-34.586
-34.3393
-45.4106
-46.1469
-44.002
-49.5028
-45.8668
-45.8354
-43.8463
-45.9623
-54.5057
-54.5326
-59.8137
-50.36
-20.0166
-12.7828
-10.3113
-21.0041
-47.2791
-47.8276
-47.3986
-47.4197
-40.113
-38.7596
-37.571
-41.2987
-37.558
-39.3714
-37.9212
-39.1814
-34.5343
-34.5176
-34.2844
-34.7582
-39.8008
-44.8903
-42.0061
-41.8686
-40.5343
-40.6042
-39.6445
-41.604
-40.6678
-47.0675
-42.8207
-42.8193
-35.4652
-34.4906
-34.9598
-34.9635
-40.1033
-41.219
-39.9425
-41.4161
-42.014
-43.3771
-42.5566
-43.0441
-35.441
-34.8948
-35.1566
-35.1782
-40.4935
-41.929
-41.0942
-41.0632
-47.1792
-44.0631
-45.4646
-46.0534
-73.7031
-86.7833
-83.4879
-77.2703
20.9356
9.02918
14.3611
14.7231
-45.8788
-91.4083
-75.3068
-75.3007
-73.2879
-78.348
-75.1591
-75.1518
-53.0256
-46.0015
-49.7579
-49.7508
-37.6103
-39.366
-38.112
-39.1279
-34.4848
-34.4877
-34.2617
-34.7001
-39.7003
-45.0388
-41.8106
-41.9886
-40.5709
-40.6321
-39.663
-41.6292
-40.1565
-41.2652
-41.4668
-39.9934
-41.9789
-43.3391
-42.544
-43.0414
-47.2143
-44.0956
-46.0847
-45.5052
-73.6809
-86.775
-77.2532
-83.4673
-106.246
-92.0851
-90.8137
-76.8592
-41.7643
-38.9673
-45.5745
-42.2824
-42.5028
-42.2413
-43.0816
-41.7176
-96.1766
-91.944
-89.7277
-76.7569
-108.799
-89.7505
-89.5599
-76.1006
-95.7748
-91.9966
-90.2904
-77.1075
-42.4487
-42.0552
-43.0127
-41.5728
-41.8813
-38.9757
-46.115
-42.212
-84.7317
-76.5193
-76.9662
-70.0278
-85.4317
-76.7203
-77.4711
-70.2421
-41.3419
-39.7592
-46.0467
-42.2285
-41.3694
-39.7227
-45.9749
-42.2608
-41.1804
-39.2825
-34.874
-32.511
1.60661
11.2821
0.442038
10.0069
1.13155
11.4948
0.604158
10.1253
-41.1827
-39.2684
-34.8753
-32.5153
142.865
135.804
173.558
178.1
111.769
120.71
152.025
143.411
120.258
112.742
143.865
152.248
135.297
146.333
177.983
174.135
-36.7249
-37.5075
-37.7337
-38.299
-37.9959
-38.1956
-38.9727
-39.1599
-43.3004
-45.0764
-42.9823
-44.8137
-46.1982
-48.0601
-44.5973
-46.2204
-36.6702
-37.5443
-37.7097
-38.3029
-46.2083
-48.0601
-44.6053
-46.2328
-43.3491
-45.1178
-43.0296
-44.8635
-38.0978
-38.2391
-39.0018
-39.1813
-35.0129
-35.485
-34.4719
-34.9801
-35.5343
-35.0373
-34.9999
-34.4723
-35.9907
-35.8012
-35.4577
-35.2687
-35.8355
-36.0503
-35.3114
-35.4921
-89.7103
-49.8817
-85.4285
-66.9392
-62.4276
-66.3642
-70.0109
-71.5538
-66.3469
-62.421
-71.5422
-69.9917
-49.814
-89.5779
-66.961
-85.3919
-41.2676
-41.569
-42.1002
-41.9476
-42.7864
-44.7334
-43.9486
-47.9859
-41.3423
-41.5423
-42.4093
-43.498
-43.9401
-42.3512
-44.2687
-42.9572
-41.2434
-41.577
-42.0314
-41.9217
-43.8516
-42.3554
-44.2075
-42.9084
-41.2644
-41.4642
-42.3372
-43.4138
-42.7494
-44.7273
-43.9264
-47.9655
-40.1189
-39.9391
-42.0817
-41.0234
-40.4742
-40.0644
-41.7877
-40.8676
-42.1899
-41.8847
-42.8126
-43.4553
-42.2774
-41.9885
-42.8217
-43.1844
-51.0279
-53.375
-46.7714
-49.7855
-33.5921
-34.968
-34.1399
-35.2592
-33.5481
-34.9333
-34.1074
-35.2319
-51.0037
-53.362
-46.7519
-49.7724
-36.1265
-36.0944
-35.7665
-35.4091
-36.0543
-36.0866
-35.3653
-35.7194
-32.5153
-34.7274
-30.7344
-33.2569
-34.8077
-32.6429
-33.3662
-30.8731
-90.0033
12.1734
-114.958
-71.8378
-83.5007
-99.8858
-42.0189
-37.8507
-43.0555
-38.3408
-44.326
-44.0256
-58.0647
28.7926
-51.709
-10.997
-59.7115
-49.9529
-39.9444
-35.3232
-33.4243
-34.5296
-39.5423
-35.5513
-116.618
-106.592
-91.3295
22.959
-88.1972
-101.943
-43.2319
-38.2496
-41.9613
-37.7989
-44.274
-44.3999
-51.7692
-10.323
-57.7718
29.2872
-59.5597
-49.8575
-33.3397
-34.4619
-39.8549
-35.2444
-39.4574
-35.4781
-35.2894
-37.4532
-35.0642
-35.4771
-37.5824
-35.7767
-36.9233
-35.7621
-49.072
-39.437
-37.467
-37.9464
-35.9366
-41.7431
-38.8374
-38.8102
-49.5757
-48.6536
-48.1844
-49.6448
-52.448
-67.4204
-29.3397
-75.2628
-44.4603
-49.1648
-44.7459
-44.4562
-46.4874
-51.2562
-53.625
-52.4314
-36.1859
-37.4917
-36.8971
-35.8337
-35.4804
-35.5982
-37.5157
-36.117
-48.6616
-42.0919
-38.5819
-39.9658
-37.3975
-37.6978
-35.8393
-42.449
-49.5341
-48.0165
-29.1326
-74.4471
-48.1568
-49.6208
-52.4136
-67.3945
-45.0119
-49.1466
-53.6089
-52.4176
-44.7882
-44.506
-46.5324
-51.2627
-70.175
46.0353
-73.2595
75.0509
-105.105
-99.205
114.843
134.018
-107.163
-158.002
-108.105
-192.535
-94.41
-94.1184
47.9921
66.7591
-66.1955
-63.2537
-46.461
-48.9202
-58.2397
-49.5208
-58.6379
-51.5048
-40.8334
-36.4807
-40.6379
-36.0204
-41.5609
-41.5905
-35.64
-35.4076
-40.3388
-37.0596
-40.341
-37.0365
-41.026
-41.0227
-35.3272
-35.3134
-48.9666
-44.21
-40.8859
-40.3451
-43.6262
-48.9053
-43.1525
-44.0758
-56.5243
59.0119
-56.4867
59.392
-45.5663
-45.5688
108.554
107.063
-67.8313
-45.3292
-44.9039
-27.0117
-48.8213
-61.1294
-30.9598
-20.6184
-32.2835
-29.1337
-32.2269
-29.1489
-32.2903
-32.2951
-26.9566
-27.0957
-42.7934
-40.0231
-45.7854
-46.3349
-44.812
-46.3516
-43.9771
-39.5951
-69.4527
55.4249
-72.7036
76.2944
-103.338
-97.304
136.237
118.497
-66.599
-63.6159
-46.8227
-48.9662
-59.0951
-49.2105
-58.9107
-51.6243
-40.7644
-36.424
-40.5683
-35.9691
-41.5156
-41.5008
-35.5952
-35.3607
-48.9845
-44.4485
-40.6295
-39.6154
-43.4544
-48.7423
-40.8395
-45.8824
-67.57
-45.2884
-44.8002
-26.9791
-61.1293
-48.761
-20.5432
-30.9344
-42.7378
-39.976
-45.7881
-46.3164
-46.3252
-44.7702
-39.5682
-43.9499
-34.6759
-34.3548
-36.6853
-35.4403
-36.437
-37.4811
-34.3264
-34.8709
-38.4492
-38.3977
-41.3833
-42.2127
-39.1393
-39.8489
-39.296
-41.237
-37.5707
-36.1108
-37.588
-36.1104
-38.8817
-38.8775
-35.7308
-35.733
-37.1047
-36.2972
-40.4119
-39.3171
-38.7165
-40.2226
-39.4958
-39.4249
-38.2128
-40.7368
-37.9625
-41.055
-36.6699
-36.7457
-40.7859
-40.8845
-51.3099
-61.2321
-49.6909
-55.8248
-46.8575
-50.2367
-66.9332
-62.2121
16.7714
-3.79285
16.7824
-3.73508
21.8822
21.8658
-19.1421
-19.1459
-66.701
-60.2985
-66.6933
-60.2872
-70.6177
-70.6138
-56.7403
-56.7326
-34.5548
-34.3454
-36.0625
-35.301
-36.6079
-37.395
-34.3019
-34.7661
-38.4317
-38.4177
-41.3337
-42.2152
-39.8482
-39.0855
-39.3151
-41.2404
-37.1503
-36.3113
-40.4638
-39.3671
-40.2718
-38.7712
-39.486
-39.4524
-51.2865
-61.2141
-49.6997
-55.8735
-50.2593
-47.0054
-62.2267
-66.9109
-66.8619
-67.0837
-59.6445
-51.4975
-51.4864
-59.9961
-48.797
-48.5734
-67.1461
-67.2795
-59.9702
-51.4135
-60.0803
-51.4846
-48.5635
-48.687
-65.7244
-65.7422
-60.7375
-53.7413
-60.7942
-53.8189
-52.2845
-52.2008
-22.394
-22.4043
-16.9827
-5.82431
-5.82263
-16.9984
2.04104
2.04599
185.919