# vtk DataFile Version 2.0
tet_velo
ASCII
DATASET UNSTRUCTURED_GRID
POINTS 29498 float
-0.741731 0.215 -2.025
-0.594728 0.305 2.155
-0.717286 0.695 -2.135
-0.713914 0.965 1.975
0.741731 0.215 -2.025
0.594726 0.305 2.155
0.717286 0.695 -2.135
0.713916 0.965 1.975
-0.75397 0.18376 -0.631667
-0.734836 0.183893 0.761667
-0.794622 0.86346 -0.765
-0.781652 0.941614 0.605
0.753967 0.183763 -0.631667
0.734836 0.183892 0.761667
0.794634 0.863471 -0.765
0.78161 0.941571 0.605
-1.51205 -0.165819 -3.06207
-1.50794 -0.11828 -1.95675
-1.5119 -0.140755 -0.562809
-1.48017 -0.151577 0.835824
-1.38971 -0.0721565 2.23016
-1.36142 -0.00835737 3.33741
-1.36382 0.043623 4.44109
-1.50809 0.132485 -3.12546
-1.50658 0.201932 -2.02268
-1.52011 0.201333 -0.633286
-1.47955 0.19825 0.758211
-1.35818 0.27771 2.14805
-1.33638 0.340134 3.25498
-1.34801 0.391068 4.35942
-1.49821 0.686434 -3.24568
-1.49791 0.753315 -2.14195
-1.54716 0.871593 -0.768456
-1.52125 0.929127 0.603381
-1.43361 0.965974 1.97732
-1.37588 1.02507 3.08521
-1.3615 1.08008 4.19341
-1.49453 1.629 -3.44357
-1.49805 1.71251 -2.34333
-1.51786 1.84975 -0.977401
-1.52136 1.9605 0.383494
-1.49137 2.02611 1.74966
-1.45329 2.07064 2.85041
-1.42074 2.1175 3.95606
-0.759847 -0.158739 -3.06357
-0.748708 -0.107684 -1.95894
-0.755077 -0.148628 -0.562514
-0.750378 -0.162064 0.838774
-0.683574 -0.0596359 2.23531
-0.653752 0.00103852 3.34091
-0.651372 0.0485068 4.44311
-0.75776 0.132566 -3.12592
-0.617875 0.350806 3.25787
-0.632394 0.39622 4.36094
-0.747491 0.662787 -3.2428
-0.649127 1.02818 3.08475
-0.638099 1.08294 4.19331
-0.736704 1.61236 -3.44072
-0.734702 1.69654 -2.34018
-0.75402 1.84577 -0.975507
-0.768308 1.96498 0.383267
-0.752223 2.02963 1.74804
-0.719083 2.07265 2.84879
-0.688325 2.11907 3.95488
0.734725 -0.158739 -3.06357
0.746642 -0.107683 -1.95894
0.748357 -0.148627 -0.562514
0.706236 -0.162066 0.838774
0.621614 -0.0596373 2.23531
0.688593 0.00103604 3.34091
0.738826 0.0485031 4.44311
0.729281 0.132566 -3.12592
0.709356 0.350804 3.25787
0.755625 0.396216 4.36094
0.72839 0.662788 -3.2428
0.750899 1.02818 3.08475
0.776071 1.08294 4.19331
0.770039 1.61236 -3.44072
0.781499 1.69654 -2.34018
0.77864 1.84576 -0.975507
0.753781 1.96496 0.383267
0.737629 2.02962 1.74804
0.750195 2.07264 2.84879
0.771598 2.11906 3.95488
1.48607 -0.165819 -3.06207
1.49871 -0.118279 -1.95675
1.50254 -0.140758 -0.562809
1.45167 -0.151586 0.835824
1.35932 -0.0721624 2.23016
1.39108 -0.00836391 3.33741
1.44208 0.0436145 4.44109
1.48256 0.132486 -3.12545
1.49922 0.201935 -2.02268
1.51718 0.201331 -0.633286
1.47709 0.198236 0.758211
1.36417 0.277705 2.14805
1.4037 0.340128 3.25498
1.45571 0.391059 4.35942
1.48361 0.686436 -3.24568
1.49681 0.753319 -2.14195
1.54857 0.871592 -0.768456
1.52335 0.929087 0.603381
1.44644 0.965961 1.97732
1.45513 1.02506 3.08521
1.48423 1.08007 4.19341
1.52272 1.62899 -3.44357
1.53572 1.71251 -2.34333
1.53891 1.84974 -0.977402
1.51407 1.96048 0.383494
1.4876 2.02609 1.74966
1.48869 2.07062 2.85042
1.5032 2.11749 3.95606
-0.758504 0.455 -2.109
0 0.211856 -2.02814
-0.754989 0.192242 -1.32833
-0.69484 0.635 2.10552
-9.83477e-07 0.311501 2.1485
-0.653386 0.255843 1.45833
0 0.751506 -2.19151
-0.784626 0.807902 -1.45
1.01328e-06 1.0319 2.0419
-0.770518 0.976042 1.29
0.75855 0.455 -2.10904
0.75492 0.19231 -1.32833
0.694845 0.635 2.10552
0.653339 0.255887 1.45833
0.784575 0.807851 -1.45
0.77052 0.976043 1.29
-0.744444 0.183786 0.0649999
-0.860797 0.52361 -0.698334
-1.74238e-06 0.18131 -0.631667
-0.859395 0.562753 0.683333
-3.02671e-07 0.187393 0.761667
-0.792007 0.906407 -0.08
5.99334e-06 0.982887 -0.765
-2.09274e-05 1.29996 0.605
0.744443 0.183785 0.0649999
0.860797 0.523617 -0.698334
0.859413 0.562731 0.683333
0.792041 0.90644 -0.08
-0.869142 0.489305 -1.38917
-0.861937 0.543182 -0.00750002
-0.88367 0.598877 1.37417
-8.7119e-07 0.193924 -1.32833
-1.02253e-06 0.181412 0.0649999
-6.43074e-07 0.25716 1.45833
0 0.455 -2.28987
1.49012e-08 0.635 2.27203
2.99667e-06 0.887537 -1.45
-7.46702e-06 1.28205 -0.08
-9.95705e-06 1.17194 1.29
0.869129 0.489308 -1.38917
0.861942 0.543174 -0.00750002
0.883714 0.598866 1.37417
-1.12415 0.208466 -2.02384
-0.745219 0.0536581 -1.99197
-0.749745 0.173783 -2.57546
-0.976453 0.291355 2.15153
-0.639151 0.122682 2.19516
-0.606301 0.327903 2.70643
-1.1076 0.724157 -2.13847
-0.732388 0.678894 -2.6889
-0.725994 1.19577 -2.23759
-1.07376 0.965487 1.97616
-0.681521 0.99659 2.52987
-0.733069 1.49731 1.86152
0.744186 0.0536583 -1.99197
0.735506 0.173783 -2.57546
1.12048 0.208467 -2.02384
0.60817 0.122681 2.19516
0.652041 0.327902 2.70643
0.979447 0.291353 2.15153
0.722838 0.678894 -2.6889
0.749393 1.19577 -2.23759
1.10705 0.724159 -2.13847
0.732407 0.996589 2.52987
0.725773 1.49731 1.86152
1.08018 0.96548 1.97616
-1.13704 0.192547 -0.632477
-0.754524 0.0175661 -0.597091
-1.10719 0.191071 0.759939
-0.742607 0.0109144 0.80022
-1.17089 0.867527 -0.766728
-0.774321 1.35461 -0.870253
-1.15145 0.935371 0.60419
-0.77498 1.4533 0.494133
0.751162 0.0175679 -0.597091
1.13558 0.192547 -0.632477
0.720536 0.0109132 0.80022
1.10596 0.191064 0.759939
0.786637 1.35462 -0.870253
1.1716 0.867532 -0.766728
0.767695 1.45327 0.494133
1.15248 0.935329 0.60419
-1.51 -0.14205 -2.50941
-1.51007 -0.0166671 -3.09376
-1.13595 -0.162279 -3.06282
-1.50992 -0.129518 -1.25978
-1.50726 0.0418259 -1.98971
-1.12833 -0.112982 -1.95784
-1.49603 -0.146166 0.136508
-1.516 0.030289 -0.598047
-1.13349 -0.144692 -0.562661
-1.43494 -0.111867 1.53299
-1.47986 0.0233365 0.797017
-1.11528 -0.156821 0.837299
-1.37557 -0.040257 2.78379
-1.37395 0.102777 2.18911
-1.03664 -0.0658962 2.23273
-1.36262 0.0176328 3.88925
-1.3489 0.165888 3.2962
-1.00758 -0.00365943 3.33916
-1.35591 0.217345 4.40025
-1.0076 0.0460649 4.4421
-1.50733 0.167208 -2.57407
-1.50315 0.409459 -3.18557
-1.13293 0.132525 -3.12569
-1.51334 0.201633 -1.32798
-1.50224 0.477623 -2.08231
-1.49983 0.199792 0.0624622
-1.53363 0.536463 -0.700871
-1.41886 0.23798 1.45313
-1.5004 0.563689 0.680796
-1.34728 0.308922 2.70152
-1.3959 0.621842 2.06269
-1.34219 0.365601 3.8072
-1.35613 0.682601 3.1701
-0.977126 0.34547 3.25643
-1.35475 0.735576 4.27641
-0.990201 0.393644 4.36018
-1.49806 0.719875 -2.69381
-1.49637 1.15771 -3.34463
-1.12285 0.674611 -3.24424
-1.52253 0.812454 -1.4552
-1.49798 1.23291 -2.24264
-1.5342 0.90036 -0.0825377
-1.53251 1.36067 -0.872929
-1.47743 0.94755 1.29035
-1.5213 1.44481 0.493437
-1.40475 0.995521 2.53126
-1.46249 1.49604 1.86349
-1.36869 1.05258 3.63931
-1.41458 1.54785 2.96781
-1.0125 1.02662 3.08498
-1.39112 1.59879 4.07474
-0.9998 1.08151 4.19336
-1.49629 1.67075 -2.89345
-1.11562 1.62068 -3.44214
-1.50796 1.78113 -1.66036
-1.11638 1.70452 -2.34175
-1.51961 1.90513 -0.296954
-1.13594 1.84776 -0.976454
-1.50637 1.99331 1.06658
-1.14483 1.96274 0.38338
-1.47233 2.04837 2.30004
-1.1218 2.02787 1.74885
-1.43701 2.09407 3.40324
-1.08619 2.07165 2.8496
-1.05453 2.11829 3.95547
-0.754277 -0.133212 -2.51126
-0.758803 -0.0130868 -3.09475
-0.0125611 -0.158739 -3.06357
-0.751892 -0.128156 -1.26073
-0.00103283 -0.107684 -1.95894
-0.752727 -0.155346 0.13813
-0.00335981 -0.148627 -0.562514
-0.716976 -0.11085 1.53704
-0.022071 -0.162065 0.838774
-0.668663 -0.0292987 2.78811
-0.0309798 -0.0596366 2.23531
-0.652562 0.0247727 3.89201
-0.635813 0.175922 3.29939
0.0174204 0.00103728 3.34091
-0.641883 0.222363 4.40203
0.0437274 0.048505 4.44311
-0.752625 0.397676 -3.18436
-0.0142397 0.132566 -3.12592
-0.625135 0.373513 3.80941
-0.633501 0.689493 3.17131
0.0457408 0.350805 3.25787
-0.635247 0.739582 4.27713
0.0616151 0.396218 4.36094
-0.742097 1.13757 -3.34176
-0.00955021 0.662787 -3.2428
-0.643613 1.05556 3.63903
-0.684105 1.55042 2.96677
0.0508856 1.02818 3.08475
-0.663212 1.60101 4.0741
0.0689864 1.08294 4.19331
-0.735703 1.65445 -2.89045
0.0166676 1.61236 -3.44072
-0.744361 1.77115 -1.65784
0.0233985 1.69654 -2.34018
-0.761164 1.90537 -0.29612
0.01231 1.84576 -0.975507
-0.760265 1.9973 1.06565
-0.00726335 1.96497 0.383267
-0.735653 2.05114 2.29842
-0.0072969 2.02962 1.74804
-0.703704 2.09586 3.40184
0.015556 2.07265 2.84879
0.0416363 2.11906 3.95488
0.740683 -0.133211 -2.51126
0.732003 -0.0130865 -3.09475
1.1104 -0.162279 -3.06282
0.7475 -0.128155 -1.26073
1.12268 -0.112981 -1.95784
0.727297 -0.155346 0.13813
1.12545 -0.144692 -0.562661
0.663925 -0.110852 1.53704
1.07896 -0.156826 0.837299
0.655104 -0.0293006 2.78811
0.990468 -0.0658999 2.23273
0.71371 0.0247696 3.89201
0.698974 0.17592 3.29939
1.03984 -0.00366394 3.33916
0.747226 0.222359 4.40203
1.09045 0.0460588 4.4421
0.728835 0.397677 -3.18436
1.10592 0.132526 -3.12569
0.73249 0.37351 3.80941
0.730127 0.689491 3.17131
1.05653 0.345466 3.25643
0.765848 0.739577 4.27713
1.10567 0.393637 4.36018
0.749215 1.13757 -3.34176
1.106 0.674612 -3.24424
0.763485 1.05556 3.63903
0.750547 1.55041 2.96677
1.10302 1.02662 3.08498
0.773835 1.601 4.0741
1.13015 1.08151 4.19336
0.775769 1.65445 -2.89045
1.14638 1.62067 -3.44214
0.780069 1.77115 -1.65784
1.15861 1.70452 -2.34175
0.76621 1.90536 -0.29612
1.15877 1.84775 -0.976454
0.745705 1.99729 1.06565
1.13393 1.96272 0.38338
0.743912 2.05113 2.29842
1.11261 2.02785 1.74885
0.760897 2.09585 3.40184
1.11944 2.07163 2.8496
1.1374 2.11827 3.95547
1.49239 -0.142049 -2.50941
1.48432 -0.0166665 -3.09376
1.50063 -0.129518 -1.25978
1.49897 0.0418279 -1.98971
1.47711 -0.146172 0.136508
1.50986 0.0302869 -0.598048
1.4055 -0.111874 1.53299
1.46438 0.0233251 0.797017
1.3752 -0.0402632 2.78379
1.36174 0.102772 2.18911
1.41658 0.0176253 3.88925
1.39739 0.165882 3.2962
1.4489 0.217337 4.40025
1.49089 0.16721 -2.57407
1.48308 0.409461 -3.18557
1.5082 0.201633 -1.32798
1.49802 0.477627 -2.08231
1.49714 0.199784 0.0624622
1.53288 0.536462 -0.700871
1.42063 0.237971 1.45313
1.50022 0.563661 0.680796
1.38393 0.308917 2.70152
1.4053 0.621833 2.06269
1.4297 0.365593 3.8072
1.42941 0.682593 3.1701
1.46997 0.735566 4.27641
1.49021 0.719877 -2.69381
1.50316 1.15771 -3.34463
1.52269 0.812456 -1.4552
1.51627 1.23291 -2.24264
1.53596 0.90034 -0.0825378
1.54374 1.36067 -0.872929
[...]
POINT_DATA 29498
VECTORS point_vectors float
-2.45354 -2.35022 5.643
0.0771545 0.238442 0.933599
-7.52252 5.13197 9.2354
-0.00144957 -0.114392 0.602559
2.45879 -2.34413 5.64969
-0.0735305 0.238412 0.926482
7.56784 5.15766 9.2301
0.000899149 -0.113763 0.601287
0.0435908 -0.00400427 0.567836
0.0774016 0.114942 1.16029
-0.14105 -0.0420787 0.144816
0 0 0
-0.0435709 -0.00403745 0.567501
-0.077451 0.11489 1.15983
0.141852 -0.042723 0.147719
0 0 0
-0.632234 -0.267581 19.8587
-1.17583 -0.641921 20.5748
-0.391618 -0.333627 21.2807
0.17399 -0.0282615 21.4467
0.759097 0.329023 21.2636
0.911758 0.271142 20.9158
0.727447 0.090756 21.0935
-0.681357 -0.180194 19.7607
-1.61855 -0.505609 20.477
-0.591074 -0.42525 21.3364
0.136221 -0.190597 21.5514
1.02597 0.101564 21.3374
1.17437 0.0457616 21.0376
1.00695 -0.0445402 21.0248
-0.642298 0.066055 19.6787
-1.77151 0.204483 20.1899
-1.12328 -0.171364 21.2119
-0.270847 -0.271688 21.5955
0.643864 -0.487734 21.3744
0.975414 -0.68704 20.9969
0.744314 -0.53506 20.3238
-0.352159 0.250214 19.9028
-0.718433 0.555493 20.1532
-0.809062 0.474942 20.8408
-0.424006 0.128156 21.3113
0.0593743 -0.241441 21.2373
0.236692 -0.390209 21.0749
0.258825 -0.416466 20.7401
-0.67234 -0.695509 19.2727
-1.74271 -2.99281 21.1605
-0.373092 -0.383 21.5314
0.16785 0.350511 21.0305
0.560525 1.2367 19.1407
0.93569 1.43136 17.9445
0.933897 0.742665 16.3763
-0.746539 -0.47591 18.9893
1.36623 1.31652 9.61572
1.73765 0.937669 11.3996
-0.704654 0.100236 18.8896
0.498761 -0.959568 7.79366
0.897285 -0.989562 12.1158
-0.283704 0.422328 19.6456
-0.742353 1.29482 19.8306
-0.92989 1.33471 20.7327
-0.529304 0.572026 21.7551
0.0177649 -0.333361 21.3758
0.106922 -0.520475 21.0618
0.131574 -0.459722 21.0317
0.654643 -0.707 19.2509
1.74101 -2.99927 21.1656
0.375838 -0.384885 21.5372
-0.145081 0.355974 20.7551
-0.477828 1.22048 18.6969
-0.993627 1.39648 17.9666
-0.93542 0.686158 17.3349
0.732969 -0.495861 18.9542
-1.60127 1.2546 11.531
-1.54417 0.623951 14.2587
0.681866 0.100923 18.8586
-0.74408 -1.01891 10.9362
-1.01856 -0.960227 15.4008
0.291956 0.418508 19.656
0.763425 1.24243 19.8501
0.942826 1.30463 20.7383
0.527739 0.584516 21.7649
-0.0148354 -0.330778 21.3761
-0.114608 -0.521538 21.0861
-0.0999298 -0.454157 20.8763
0.636423 -0.282076 19.8398
1.18934 -0.658704 20.5888
0.393808 -0.341361 21.2861
-0.173687 -0.0293243 21.4571
-0.780798 0.355101 21.275
-0.889127 0.258855 20.9527
-0.735703 0.0360767 20.8466
0.690498 -0.185703 19.7418
1.63817 -0.521947 20.4801
0.592454 -0.428421 21.3386
-0.134667 -0.193116 21.55
-1.01534 0.0936844 21.3473
-1.10299 0.0458523 20.9884
-0.921056 -0.0660314 20.9329
0.644163 0.0697709 19.6735
1.76874 0.206266 20.1942
1.12039 -0.168338 21.213
0.267622 -0.269361 21.5994
-0.63388 -0.471711 21.3835
-0.883401 -0.569325 21.0326
-0.526137 -0.348891 20.7215
0.348828 0.244453 19.9137
0.707334 0.531194 20.1668
0.795022 0.458233 20.8396
0.428477 0.131309 21.3204
-0.0602771 -0.242104 21.2544
-0.244094 -0.373283 21.0771
-0.298982 -0.488947 20.7198
-0.886335 -0.169704 0.991635
-6.14733e-05 -0.103255 0.504296
0.00399928 -0.00585598 0.309613
-0.00404868 -0.00796375 -0.00339932
-0.00030481 0.0294452 0.145937
0.00272317 0.00203533 0.121665
0.0033656 1.12043 0.855542
-0.241192 -0.00515763 0.754269
-0.000395294 0.00235725 -0.029578
0.02754 0.0171462 0.16381
0.894721 -0.171358 1.00186
-0.00389676 -0.00591045 0.309268
0.00393494 -0.00804953 -0.00332789
-0.00271625 0.00206271 0.121491
0.239439 -0.00534215 0.748064
-0.0275946 0.017125 0.163925
0.0344865 -0.00409229 0.674306
1.1052e-06 -5.226e-05 0.00051362
5.50405e-08 -8.57142e-09 1.2855e-05
0 0 0
-1.77575e-06 0.000328027 0.0155357
0 0 0
-4.37618e-06 0.00625772 0.0169543
-4.84053e-06 -0.00151184 0.0361383
-0.0344597 -0.00410605 0.673959
-1.08999e-06 -5.10601e-05 0.000498272
0 0 0
0 0 0
-0.00133666 -0.00519186 0.0956722
3.51505e-06 0.000105957 0.00118879
0 0 0
2.61003e-09 -3.5496e-08 1.9044e-06
7.80315e-08 4.43369e-09 1.68983e-05
0 0 0
-0.000223668 0.167235 0.307232
-2.00944e-05 -0.000619088 -7.36093e-05
8.68694e-06 0.00407125 0.0312366
-6.54229e-06 0.0547384 0.238514
-7.95113e-06 -0.000310765 0.00167597
0.00132141 -0.00523579 0.0951896
-3.9493e-06 0.000117248 0.00131934
0 0 0
-3.0521 -1.43118 20.5075
-2.80535 -4.59973 21.4777
-2.14768 -1.68998 17.883
1.41547 0.810258 15.5913
0.485857 1.25785 12.4934
0.761427 0.854095 6.16063
-3.60079 0.850803 19.7675
-2.02924 0.649951 17.4655
-1.79628 2.4881 19.4448
0.976487 -0.645091 18.9411
-0.223071 -0.734844 5.43993
0.134386 -0.790353 20.6859
2.81178 -4.60178 21.4845
2.14975 -1.7395 17.8297
3.07038 -1.45121 20.506
-0.411561 1.19833 11.92
-0.927123 0.908246 7.11661
-1.41943 0.793043 15.6698
2.03008 0.659884 17.4181
1.81972 2.39039 19.4643
3.61767 0.858775 19.7733
-0.144642 -0.729411 6.9994
-0.132659 -0.788458 20.6429
-0.961918 -0.65507 19.0317
-0.380383 -0.699517 21.15
-0.0264254 -0.108656 17.0421
0.428487 -0.172687 19.6455
0.484509 0.458912 16.4158
-1.81822 -0.552173 21.352
-2.17269 1.70786 20.614
-0.390666 -0.572947 20.5499
-1.00575 0.329041 22.0024
0.0247126 -0.110167 16.9638
0.379113 -0.697293 21.1271
-0.463859 0.462279 16.0346
-0.430048 -0.171769 19.6219
2.17767 1.67095 20.6374
1.81676 -0.552216 21.3439
1.01082 0.337946 21.9734
0.391144 -0.57385 20.5628
-0.993163 -0.508095 20.0577
-0.670668 -0.236303 19.8097
-0.700256 -0.468448 19.5954
-0.784145 -0.498264 21.1336
-1.4122 -0.610279 20.5369
-1.68294 -1.43963 20.7173
-0.112304 -0.193068 21.4031
-0.499754 -0.396764 21.3014
-0.326261 -0.424757 21.489
0.469528 0.155585 21.4283
0.162408 -0.117019 21.48
0.266245 0.0892087 21.6195
0.878194 0.363728 21.0549
0.898379 0.258708 21.3276
0.90464 0.797649 20.9874
1.05366 0.257329 20.1775
1.06111 0.160158 21.0957
1.20658 0.947564 20.8396
0.832381 0.0427127 21.2021
0.867433 0.591094 20.7548
-1.20412 -0.337552 19.8743
-0.691092 -0.0619087 19.6816
-0.786419 -0.348537 19.4355
-1.10348 -0.500226 21.1899
-1.78559 -0.197774 20.3192
-0.221192 -0.324905 21.4574
-0.879882 -0.384523 21.2849
0.564119 -0.0426951 21.5621
-0.0554833 -0.308678 21.6105
1.16916 0.124964 21.1124
0.965176 -0.286121 21.2956
1.36574 0.0187138 20.1471
1.22282 -0.374409 20.9941
1.68996 0.776096 17.3142
1.04502 -0.504478 20.2786
1.35098 0.335377 17.2108
-1.19974 0.139599 19.7109
-0.510027 0.217976 19.7775
-0.750666 0.0884555 19.3294
-1.51289 0.032242 20.9417
-1.20316 0.578241 20.1162
-0.741207 -0.279179 21.4766
-1.12312 0.26393 20.9991
0.20645 -0.341114 21.608
-0.46213 -0.0731432 21.5031
0.800283 -0.578893 21.2017
0.235919 -0.40731 21.314
0.96683 -0.630347 20.5427
0.436933 -0.538808 20.99
1.25334 -0.887319 19.1576
0.320496 -0.617684 20.775
1.13689 -0.991852 19.3107
-0.544821 0.397213 19.9719
-0.363211 0.341221 19.7746
-0.827726 0.576959 20.5205
-0.808629 0.886334 19.9958
-0.685686 0.32596 21.129
-0.947987 0.842782 20.8087
-0.138077 -0.0948986 21.3942
-0.509573 0.285871 21.5305
0.150906 -0.342087 21.1591
0.0211155 -0.306777 21.3089
0.203321 -0.351208 20.9638
0.164473 -0.481911 21.0439
0.0806977 -0.37028 20.8098
-1.42509 -1.8876 19.1418
-0.706906 -0.596683 19.122
-0.0144521 -0.98565 18.8538
-0.81151 -1.05559 21.8814
-0.00312504 -3.99653 21.7137
-0.0999263 -0.0770619 21.1026
-0.00369393 -0.671568 21.0094
0.418724 0.768359 19.9972
-0.00280808 0.162817 19.7013
0.738921 1.35871 18.9629
0.000781882 0.875351 16.8897
0.703512 1.30973 18.8217
1.17524 1.62806 15.0839
-0.00847197 1.38515 16.3909
1.20605 0.907828 14.4128
-0.159199 1.38247 16.3197
-0.814518 -0.123533 18.8228
-0.0157304 -0.7206 18.4365
1.88222 1.16273 10.672
1.50868 -0.11783 5.53591
0.00593665 1.0088 3.4567
1.64073 0.116426 10.6186
-0.218903 1.20249 8.6255
-0.471163 0.408245 19.2923
-0.0104734 0.147061 18.3788
0.881063 -1.06589 10.151
0.215127 -0.968261 20.3661
-0.0184438 1.08359 -4.82116
0.131203 -0.897415 20.3999
-0.0128352 -0.640594 0.709441
-0.49441 0.813485 19.5841
0.00821965 0.543756 19.5031
-0.838805 1.38949 20.398
0.027105 1.72394 19.6617
-0.949551 1.24238 21.3269
0.0231228 2.01478 20.5775
-0.145911 -0.0417936 21.6313
-0.00981272 0.98609 22.0188
0.0662389 -0.458926 21.2727
-0.00347341 -0.304421 21.3417
0.120883 -0.549247 20.9949
-0.00082231 -0.497233 20.995
0.00809462 -0.45682 20.703
1.41578 -1.92603 19.1247
0.692983 -0.61419 19.0913
0.701823 -0.482884 19.577
0.811194 -1.05856 21.8795
1.69585 -1.45988 20.715
0.112135 -0.0829584 21.0808
0.327185 -0.423549 21.4917
-0.357864 0.778073 19.7755
-0.270217 0.122876 21.5895
-0.718086 1.35396 18.8536
-0.889799 0.86606 20.9479
-0.740134 1.1865 19.1307
-1.37109 1.60346 15.8464
-1.20104 0.885145 20.9344
-1.23589 0.75557 15.2094
-0.813383 0.47883 21.4823
0.788385 -0.124086 18.7789
0.791556 -0.352979 19.3987
-1.77404 0.903281 12.7724
-1.83143 -0.187143 7.86372
-1.60748 0.534582 18.267
-1.68768 0.065284 13.737
-1.25229 0.185912 18.6318
0.47291 0.404248 19.2967
0.749265 0.0893954 19.3129
-0.99797 -1.03399 13.4729
-0.196038 -1.00259 20.9793
-1.18565 -0.848698 19.8019
-0.155195 -0.851526 20.5051
-1.13989 -0.859907 19.5729
0.508186 0.794727 19.6062
0.365016 0.323708 19.7843
0.86412 1.33457 20.4056
0.814353 0.84504 20.0091
0.950527 1.23452 21.3261
0.944542 0.815604 20.8123
0.146631 -0.0407708 21.6322
0.511853 0.292577 21.5377
-0.065967 -0.457491 21.2687
-0.0206484 -0.308248 21.3143
-0.134208 -0.534234 21.0048
-0.166155 -0.471388 21.0394
-0.0739841 -0.334884 20.7999
1.00912 -0.530098 20.0631
0.683003 -0.247166 19.7872
0.793522 -0.510468 21.1403
1.43486 -0.628418 20.5444
0.108965 -0.198429 21.4072
0.502758 -0.404438 21.2991
-0.481942 0.163743 21.4389
-0.164014 -0.117975 21.4803
-0.871726 0.367881 21.0568
-0.912523 0.267793 21.302
-0.971391 0.237381 20.275
-1.01327 0.155403 21.0765
-0.855647 -0.0137478 20.889
1.23157 -0.355008 19.8526
0.694399 -0.065961 19.6739
1.11195 -0.508734 21.1952
1.8001 -0.20256 20.3244
0.220961 -0.3291 21.4603
0.877759 -0.387763 21.2952
-0.559247 -0.0445345 21.5604
0.0553489 -0.309516 21.6121
-1.1308 0.106112 21.123
-0.94495 -0.285569 21.2957
-1.19728 -0.0108245 20.4874
-1.12869 -0.29373 21.038
-0.846897 -0.335621 20.66
1.2071 0.14089 19.704
0.511044 0.214416 19.7834
1.50953 0.0355169 20.9462
1.18054 0.551781 20.1282
0.739033 -0.279027 21.4786
1.1117 0.260065 20.9972
-0.200034 -0.335674 21.6055
0.461987 -0.0738811 21.5077
-0.770792 -0.530335 21.1771
-0.236158 -0.411557 21.3048
-0.892078 -0.537675 20.695
-0.436169 -0.492133 21.0105
-0.404623 -0.607263 20.845
0.5394 0.37876 19.9878
0.816573 0.552489 20.5261
0.681151 0.319195 21.1282
0.136762 -0.0969648 21.3651
-0.148966 -0.335189 21.1394
-0.202848 -0.330092 20.9867
-1.1331 -0.455865 19.9622
-1.79749 -1.98732 18.5252
-1.32595 -1.02102 19.7073
-1.8017 -0.814356 19.2482
-0.765372 -0.417047 19.4971
-2.29185 -1.56917 20.6531
-0.960671 -0.51983 21.1559
-0.540617 -0.663721 18.6288
-0.843427 -0.826107 21.4637
-1.31881 -1.00323 21.7826
-0.310632 -0.524806 21.4853
-0.1629 -0.274087 21.434
0.239518 0.0250059 16.1941
-0.0375538 -0.181908 21.5516
0.0512723 -0.41226 20.0377
0.402064 0.0155144 21.1666
0.528617 0.0758359 21.5046
0.608221 0.695352 13.7358
0.605749 0.460995 21.3486
0.837773 0.237005 17.4182
1.24832 0.90035 19.323
1.06104 0.275759 21.0686
0.759773 1.46554 13.5031
1.07224 0.888649 20.7269
1.65989 0.716975 16.4276
1.38562 0.981645 18.6234
1.32637 0.159282 19.9122
1.23878 1.23457 14.7524
0.937631 0.73411 21.0226
1.60541 0.411773 18.1822
1.06249 0.497877 18.3902
-1.26425 -0.119561 19.76
-2.37501 -0.503123 17.2187
-1.72589 0.301925 19.0045
-0.836912 -0.0841311 19.2954
-3.93942 -0.459868 20.0459
-1.38744 -0.290537 21.0947
-2.41845 0.220964 21.4497
-0.920687 -0.890998 20.692
-0.468164 -0.38986 21.4975
-1.22998 -0.855862 21.2264
0.123824 -0.386778 18.3792
0.442558 -0.263685 21.6053
0.386661 -0.374377 19.8131
1.4333 -0.0210878 14.8567
1.16518 -0.339095 21.0467
0.309511 -0.452743 2.39241
1.0456 -0.804744 19.1479
1.8824 -0.294563 16.1416
1.07046 -0.355319 20.9946
1.73341 0.13088 8.42265
1.20745 -1.01616 19.6193
1.4524 -0.305891 17.3755
-0.847216 0.400448 19.8108
-1.02261 1.11879 18.8951
-0.581614 0.606104 19.7846
-0.547505 0.316034 19.549
-1.63582 1.20189 19.8495
-1.23029 0.474577 20.6609
-1.79046 1.93778 20.62
-0.93602 0.936282 20.4731
-1.67477 0.653096 20.9797
-0.905595 0.093771 21.3333
-2.70239 1.64202 21.9689
-0.875161 0.668613 21.247
-0.717373 0.0314689 21.8618
-0.0430748 -0.242722 21.5021
-0.0338963 -0.439453 21.1938
-0.164118 -0.081626 21.5005
0.222987 -0.602674 21.4772
0.365143 -0.505845 21.1876
0.0916644 -0.83691 20.5731
0.105449 -0.419009 21.226
0.36324 -0.769903 21.2885
0.435 -0.534268 20.7998
0.237177 -0.974749 20.2372
0.231689 -0.524971 21.003
0.235603 -0.759719 20.7583
1.792 -2.02708 18.4859
-0.0182482 -3.06907 18.4923
-0.0216647 -3.28013 15.9225
-0.0122159 -0.907091 18.5974
-3.40317e-05 -5.62222 22.9066
0.538966 -0.665209 18.5846
-0.00315857 -1.51024 22.1626
-0.000990789 -0.259366 13.3952
-0.24152 0.0217904 15.9456
-0.00469497 -0.288754 19.9517
0.00581664 0.21578 12.4579
-0.573768 0.67281 13.2485
0.00793657 0.580956 17.8883
-0.00875537 0.624394 8.62533
-0.817296 1.4815 13.8358
-0.00211169 1.01863 16.332
0.025357 -0.139586 1.86837
-0.00346276 1.54857 10.07
-1.29323 1.06548 15.1641
-0.0488797 1.62317 16.2718
-0.0931645 0.805579 3.87832
-0.188779 1.32899 13.4233
2.37791 -0.515584 17.1587
-0.0205212 1.20019 15.4703
-0.0115795 -0.178783 18.2162
-0.546132 -0.432773 3.62507
0.123339 0.942346 -3.8304
-0.27537 0.275666 -3.60375
-1.816 -0.137278 10.4513
-0.0496808 0.13168 -1.37464
-0.227726 0.288185 2.20731
1.02856 1.09131 18.9164
0.0170773 1.05589 19.3868
0.00180432 0.586614 18.9837
0.0406582 3.86821 19.0718
1.80218 1.89279 20.6226
0.0270854 1.90601 20.2884
0.0243501 3.39672 19.9639
2.69369 1.62474 21.9667
0.00465909 2.10769 21.3819
-0.00725164 1.07572 21.5722
0.0267413 -0.439811 21.138
-0.00374845 0.0600899 21.7693
-0.00322657 -0.478551 17.4153
-0.111199 -0.838592 20.7923
-0.00124618 -0.405213 21.3317
0.000755864 -0.578571 18.5586
-0.30449 -0.952794 20.4767
-0.00651409 -0.526183 21.0614
-0.0189366 -0.474591 18.3423
1.15124 -0.472485 19.9556
1.33331 -1.04538 19.689
1.83936 -0.837771 19.2014
0.770767 -0.437102 19.4689
2.30893 -1.59013 20.6523
0.97368 -0.532838 21.1565
0.844507 -0.830443 21.4661
1.32341 -1.00617 21.7867
0.309659 -0.519029 21.4579
0.160329 -0.277184 21.4426
0.036697 -0.169731 21.5551
-0.0516344 -0.412005 20.0215
-0.413259 0.0382604 21.0656
-0.536017 0.084086 21.514
-0.612437 0.515045 21.2777
-0.83644 0.233664 17.4427
-1.23617 0.945125 18.9937
-1.0454 0.258965 21.075
-1.06656 0.907083 20.7246
-1.63757 0.615676 17.4823
-1.32799 0.809181 19.2857
-1.15129 0.114446 20.2422
-0.96489 0.637958 21.2395
-1.62524 0.267548 19.0326
-0.980312 0.368617 19.6195
1.27938 -0.127797 19.7479
1.74214 0.313398 18.9811
0.835852 -0.087089 19.2758
3.97476 -0.46508 20.0438
1.39298 -0.29414 21.105
2.4141 0.21587 21.4485
0.918067 -0.891652 20.6846
0.466974 -0.39245 21.5076
1.2288 -0.853471 21.2297
-0.125779 -0.388809 18.3853
-0.438139 -0.262192 21.6106
-0.376207 -0.386251 19.8932
-1.42824 -0.0240742 15.0882
-1.10356 -0.312386 21.1039
-1.00901 -0.794349 19.6307
-1.68928 -0.261575 18.1116
-0.963924 -0.333097 21.123
-1.11617 -0.862951 20.0924
-1.35024 -0.462796 18.9062
0.843139 0.392193 19.8225
0.589021 0.585194 19.801
0.546642 0.315336 19.5521
1.62194 1.15972 19.8663
1.21839 0.453168 20.6618
0.938109 0.899103 20.4797
1.65062 0.634411 20.9853
0.900818 0.090057 21.3346
0.871865 0.660261 21.2445
0.719907 0.033324 21.8656
0.0430517 -0.240902 21.5032
0.162425 -0.0801279 21.5106
-0.222332 -0.601088 21.4763
-0.362405 -0.4895 21.1781
-0.108354 -0.417125 21.2192
-0.363633 -0.727052 21.2751
-0.43218 -0.462527 20.7833
-0.227327 -0.494095 20.9838
-0.259577 -0.709837 20.7696
-1.54751 -0.967064 19.4859
-1.02466 -0.926095 21.6118
0.0368941 -0.269756 21.2974
0.826072 0.413142 20.3677
1.40056 0.920064 19.2587
1.25381 0.563958 19.4283
-1.95624 -0.206625 18.9497
-2.07264 -0.699884 21.9108
-0.296915 -0.80235 19.4222
0.621899 -0.019085 17.2234
1.57062 -0.195897 15.3512
1.58332 -0.214212 16.162
-1.04551 0.690892 19.4242
-1.6606 1.00736 20.6825
-1.51746 0.394095 21.5882
-0.0739219 -0.316392 21.7565
0.306662 -0.718311 21.2716
0.467113 -0.902076 21.0454
-0.0301819 -3.47586 17.4197
-0.00211601 -0.824415 15.4596
0.00273771 -0.0887286 12.3413
0.00918586 0.520681 9.75514
-0.00650736 0.609326 8.88841
-0.0727236 1.06659 9.80303
-0.030517 -0.895983 14.8271
0.0288898 0.15053 -3.22358
-0.286436 0.616327 0.0260599
0.0155307 1.68491 18.2434
0.022564 3.05378 20.4083
0.004677 4.37445 21.7046
-0.00109647 -0.292999 18.9631
0.00579445 -0.39447 18.0899
-0.010696 -0.912108 18.391
1.56595 -0.997499 19.4558
1.02806 -0.932035 21.6163
-0.0403893 -0.257836 21.2256
-0.830839 0.442724 20.1116
-1.3943 0.873257 19.4185
-1.27793 0.452573 20.0234
1.98533 -0.209006 18.9107
2.0721 -0.699048 21.9064
0.294897 -0.804307 19.4238
-0.624059 -0.0287348 17.3241
-1.55696 -0.24656 16.8693
-1.46842 -0.209606 18.1725
1.04201 0.67891 19.4367
1.64592 0.971845 20.6818
1.50788 0.389672 21.5845
0.0741894 -0.315311 21.7568
-0.318931 -0.700572 21.2623
-0.474633 -0.834954 20.9896
-1.25523 -0.664698 1.93053
-0.00323376 -0.211385 0.812688
-0.00715702 -0.0110281 0.365911
0.0446843 -0.0194968 0.0772395
-0.011785 0.0276512 0.12631
-0.00422021 0.00576624 0.053608
0 0 0
-0.155502 1.10861 2.18331
-0.0818924 0.00262635 0.280389
0.00150485 -0.0110463 0.0126429
-0.042863 -0.00604462 0.00639205
0.0289821 -0.00681692 0.366024
0.00395402 -0.211856 0.813667
1.25851 -0.666549 1.93599
0.00739724 -0.010668 0.363422
0.0111779 0.0268427 0.120557
-0.0443339 -0.0193147 0.0774846
0.00453348 0.00619426 0.0579113
0.155253 1.09428 2.18397
0 0 0
0.0818934 0.00335583 0.281183
0.0416211 -0.00574505 0.00507576
-0.0015066 -0.0110828 0.0126282
-0.0288501 -0.00652414 0.363151
-0.00930651 -0.00688721 0.628972
0.030625 -0.00371002 0.492045
0.00468029 -0.00790952 0.207105
0 0 0
0 0 0
0.0153156 -0.00164934 0.277708
-1.65411e-05 -0.000100632 0.000941394
0 0 0
-0.291935 -0.129506 0.704457
-0.00141724 -0.00764261 0.0484976
0 0 0
-0.00264712 0.00090478 0.00274848
0.0166889 0.0228924 0.102485
0.00182674 0.0166323 0.0823226
-2.70107e-18 -4.12794e-18 -2.49849e-17
0.00350553 -0.00117337 0.025057
0.00933298 -0.00695171 0.629041
0 0 0
-0.0306064 -0.00372755 0.491772
-0.00471583 -0.00805459 0.207436
0 0 0
0 0 0
-0.0152674 -0.00163116 0.277857
3.15319e-05 -0.000679308 0.00596695
0.291763 -0.128809 0.703716
0.00329195 0.00109359 0.00343569
0.00143748 -0.00778168 0.0492293
0 0 0
-0.0167857 0.023064 0.103408
-0.00340285 -0.00113683 0.0242942
-0.00181584 0.0165086 0.0817487
0 0 0
-0.000744852 -0.000380461 0.00577596
-0.508482 0.0206904 0.329179
-4.36474e-08 -6.25168e-07 1.82823e-05
-0.000871965 -1.6275 1.26645
0 0 0
7.56807e-06 -5.12556e-06 0.000273145
0.00190596 -0.000254749 0.0118631
-0.00445717 -0.00226289 -0.000253808
-1.18882e-05 0.000239397 0.00529058
-0.000610166 -0.0391984 -0.00103668
0.00716595 0.0282468 0.27927
0 0 0
4.70844e-05 0.0114409 0.00379811
1.32585e-06 0.00144452 0.00776994
0.000874623 -0.0056388 0.0913648
-0.00841314 0.00782993 0.0568391
0 0 0
0 0 0
0.0049452 0.00172224 0.0443225
2.44653e-05 -8.31949e-05 0.000379873
0.507473 0.021462 0.329001
-1.8251e-05 9.04485e-06 -0.000140629
-6.67765e-06 -4.51773e-06 0.000240728
0 0 0
0.00387833 -0.00200622 -0.000235567
-0.0017643 -0.00023906 0.0110114
0 0 0
-0.00707106 0.0282602 0.279817
0.00836105 0.00778016 0.0565023
-0.000864716 -0.00571245 0.0917168
-2.68976e-05 -8.79117e-05 0.000403495
-0.00508974 0.00183316 0.0457795
0.000283277 0.00274602 0.136361
0 0 0
0 0 0
0 0 0
-5.1386e-07 -4.96735e-05 0.00431546
3.2896e-07 -1.0063e-10 -6.34462e-07
0 0 0
0 0 0
-3.34181e-07 0.000168712 0.0311265
-2.80733e-08 6.86965e-06 6.75781e-05
-6.40473e-05 0.00954372 0.0812319
-0.0380416 0.0503025 0.277428
1.91432e-06 0.00186862 0.0190267
0.00089912 0.053501 0.129041
-2.76633e-06 0.000904251 0.0290211
-7.7964e-06 -0.00240895 0.0135393
0 0 0
-0.00028746 0.00272592 0.136466
0 0 0
-2.53401e-20 -1.98103e-19 2.09187e-17
0 0 0
0 0 0
0.0385248 0.0509366 0.28119
5.9274e-05 0.00955259 0.0811901
-0.0137134 -0.0104471 0.105109
-0.0610335 -0.0261599 0.174582
0.00128412 -0.0173989 0.158652
0 0 0
0.00123964 -0.0018742 0.129163
-8.03343e-05 8.9737e-05 0.00611642