# vtk DataFile Version 2.0
tri_press
ASCII
DATASET UNSTRUCTURED_GRID
POINTS 3682 float
-0.808776 0.285 -2.645
-0.795 0.325 2.75417
-0.855 0.682514 -2.525
-0.585 1.235 2.41456
0.808776 0.285 -2.645
0.795 0.325 2.75417
0.855 0.682514 -2.525
0.585 1.235 2.41456
-0.817846 0.284672 -0.845277
-0.822072 0.289187 0.954447
-0.760622 0.862298 -0.87848
-0.729693 1.10553 0.76804
0.817836 0.284681 -0.845277
0.822083 0.289176 0.954447
0.76045 0.862126 -0.87848
0.729694 1.10553 0.76804
-1.57925 -0.100759 -3.99639
-1.59192 -0.0244439 -2.61797
-1.58951 -0.0280077 -0.814287
-1.56787 -0.0626706 1.02023
-1.53208 -0.0493802 2.82651
-1.53101 0.0161431 4.21765
-1.54479 0.103479 5.58525
-1.58911 0.166999 -3.99147
-1.59956 0.26319 -2.62978
-1.5876 0.298523 -0.85591
-1.55467 0.32191 0.931755
-1.49493 0.361014 2.70856
-1.51109 0.428046 4.09754
-1.53756 0.510374 5.47013
-1.60828 0.646988 -3.93862
-1.61918 0.734479 -2.57061
-1.54852 0.899305 -0.901172
-1.47676 1.10454 0.757407
-1.36007 1.22619 2.42978
-1.44046 1.28429 3.82509
-1.51304 1.34359 5.22238
-1.6045 1.50828 -3.97455
-1.6021 1.62814 -2.62947
-1.56415 1.86443 -1.00971
-1.51665 2.14483 0.577029
-1.48602 2.35411 2.19839
-1.49756 2.45555 3.54681
-1.53171 2.5259 4.92738
-0.780372 -0.0869028 -4.00627
-0.798066 -0.00460679 -2.63239
-0.80394 -0.0314126 -0.812353
-0.802175 -0.0882353 1.0396
-0.787743 -0.0799953 2.86037
-0.796776 -0.0049754 4.24062
-0.810816 0.0903489 5.59854
-0.785845 0.172741 -3.99451
-0.801576 0.411216 4.11649
-0.815476 0.500378 5.48016
-0.804843 0.625654 -3.91968
-0.745864 1.28545 3.82204
-0.804818 1.34321 5.22173
-0.818227 1.48488 -3.95581
-0.825046 1.60156 -2.60884
-0.80218 1.8483 -0.997271
-0.777382 2.14933 0.575536
-0.767928 2.36716 2.18773
-0.782872 2.46674 3.53616
-0.812604 2.53361 4.91964
0.830379 -0.086922 -4.00627
0.814501 -0.00461566 -2.63239
0.815873 -0.0314146 -0.812353
0.814685 -0.0882447 1.0396
0.787673 -0.0799999 2.86037
0.716457 -0.00498093 4.24062
0.676071 0.0903407 5.59854
0.836098 0.172724 -3.99451
0.676622 0.411212 4.11649
0.64867 0.500371 5.48016
0.839466 0.625631 -3.91968
0.60353 1.28544 3.82204
0.612839 1.3432 5.22173
0.772159 1.48483 -3.95581
0.752013 1.6015 -2.60884
0.73032 1.84824 -0.997271
0.697609 2.14929 0.575536
0.652172 2.36714 2.18773
0.631905 2.46672 3.53616
0.619698 2.5336 4.91964
1.62988 -0.10081 -3.99639
1.61472 -0.0244896 -2.61797
1.60736 -0.0280408 -0.814287
1.59232 -0.0626917 1.02023
1.54449 -0.0493942 2.82651
1.47615 0.0161288 4.21765
1.43038 0.10346 5.58525
1.6345 0.166946 -3.99147
1.61188 0.26313 -2.62978
1.59666 0.298471 -0.85591
1.57343 0.321891 0.931755
1.50831 0.361004 2.70856
1.43381 0.428035 4.09754
1.39837 0.510357 5.47013
1.63528 0.646919 -3.93862
1.62086 0.734383 -2.57061
1.54934 0.899139 -0.901172
1.48689 1.10451 0.757407
1.36172 1.22618 2.42978
1.34285 1.28428 3.82509
1.34808 1.34357 5.22238
1.56495 1.50818 -3.97455
1.54108 1.62802 -2.62947
1.50205 1.86432 -1.00971
1.44818 2.14476 0.577029
1.38566 2.35407 2.19839
1.35919 2.45551 3.54681
1.34918 2.52587 4.92738
-0.796738 0.483757 -2.54985
0 0.240296 -2.6897
-0.846546 0.251601 -1.74514
-0.681877 0.78 2.57624
0 0.408548 2.67062
-0.826013 0.289616 1.85431
0 0.747552 -2.59004
-0.771529 0.736124 -1.70174
0 1.27351 2.45307
-0.66833 1.18125 1.5913
0.796715 0.483757 -2.54983
0.846535 0.251611 -1.74514
0.682021 0.78 2.57639
0.826066 0.289563 1.85431
0.771532 0.736127 -1.70174
0.668324 1.18124 1.5913
-0.819008 0.28788 0.054585
-0.891935 0.573485 -0.861879
-4.87916e-06 0.200963 -0.845277
-0.870793 0.697359 0.861243
5.72802e-06 0.201129 0.954447
-0.755905 0.994662 -0.05522
-8.57614e-05 1.03994 -0.87848
7.79717e-07 1.34411 0.76804
0.819009 0.287879 0.054585
0.891942 0.573404 -0.861879
0.870798 0.697354 0.861243
0.755907 0.994664 -0.05522
-0.879983 0.528621 -1.72344
0.879982 0.52858 -1.72344
-2.43958e-06 0.206648 -1.74514
-4.28807e-05 0.787773 -1.70174
0 0.483757 -2.63475
-0.886533 0.635422 -0.000317514
0.886541 0.635379 -0.000317514
4.24432e-07 0.201043 0.054585
-4.24909e-05 1.31634 -0.05522
-0.838037 0.73868 1.7228
0.838013 0.738677 1.7228
2.86401e-06 0.248287 1.85431
3.89858e-07 1.35779 1.5913
0 0.78 2.63418
-0.859345 0.384379 -2.65401
-0.404388 0.255398 -2.6746
-0.844603 0.251358 -2.19507
-0.803635 0.5525 2.7304
-0.3975 0.389402 2.68977
-0.822563 0.295252 2.30424
-0.823107 0.583136 -2.53466
-0.4275 0.693398 -2.53588
-0.828166 0.72422 -2.11337
-0.641613 1.0075 2.50358
-0.2925 1.26523 2.44479
-0.637473 1.21893 2.00293
0.404388 0.255438 -2.67456
0.859326 0.384379 -2.65399
0.844587 0.251374 -2.19507
0.3975 0.389402 2.68977
0.780375 0.5525 2.70714
0.822566 0.295249 2.30424
0.4275 0.69344 -2.53593
0.823113 0.583136 -2.53467
0.82811 0.724164 -2.11337
0.2925 1.26521 2.44477
0.641592 1.0075 2.50355
0.637465 1.21892 2.00293
-0.816823 0.283509 -1.29521
-0.818127 0.286575 -0.395346
-0.877009 0.418019 -0.853578
-0.429094 0.20248 -0.845277
-0.858492 0.254952 1.40438
-0.821121 0.287952 0.504516
-0.888585 0.472197 0.907845
-0.432243 0.202738 0.954447
-0.735094 0.76823 -1.29011
-0.846892 0.728198 -0.870179
-0.76049 0.930706 -0.46685
-0.402644 0.995701 -0.87848
-0.697344 1.14172 1.17967
-0.788693 0.89567 0.814642
-0.739018 1.04632 0.35641
-0.417861 1.33085 0.76804
0.816815 0.283517 -1.29521
0.429087 0.20248 -0.845277
0.818124 0.286579 -0.395346
0.877001 0.417987 -0.853578
0.85851 0.254934 1.40438
0.432252 0.202738 0.954447
0.821128 0.287945 0.504516
0.888584 0.472193 0.907845
0.735097 0.768232 -1.29011
0.402525 0.99572 -0.87848
0.846944 0.728139 -0.870179
0.760514 0.93073 -0.46685
0.697353 1.14173 1.17967
0.417858 1.33084 0.76804
0.788751 0.895696 0.814642
0.739016 1.04631 0.35641
-0.876675 0.506189 -2.13664
-0.398369 0.483757 -2.6538
-1.21979e-06 0.222542 -2.21742
0 0.362026 -2.73852
-0.878274 0.390111 -1.73429
-0.423274 0.208118 -1.74514
-0.811594 0.75934 2.14952
-0.340938 0.78 2.61821
1.43201e-06 0.273722 2.26247
0 0.594274 2.67128
-0.894031 0.514148 1.78856
-0.413005 0.250328 1.85431
-2.14404e-05 0.770692 -2.14589
0 0.615655 -2.6341
-0.876365 0.632373 -1.71259
-0.385786 0.775745 -1.70174
1.94929e-07 1.35634 2.02219
0 1.02676 2.55373
-0.737395 0.959964 1.65705
-0.334165 1.34922 1.5913
0.876675 0.506169 -2.13663
0.398357 0.483757 -2.654
0.878264 0.390096 -1.73429
0.423267 0.208117 -1.74514
0.781059 0.759339 2.14959
0.34101 0.78 2.61758
0.893907 0.51412 1.78856
0.413035 0.250324 1.85431
0.876378 0.632354 -1.71259
0.385745 0.775739 -1.70174
0.737388 0.95996 1.65705
0.334162 1.34922 1.5913
-0.884345 0.445864 0.0271337
-0.430432 0.202606 0.054585
-0.891731 0.551053 -1.29266
-0.889972 0.604453 -0.431098
-3.65937e-06 0.20092 -1.29521
-2.22736e-06 0.201003 -0.395346
-0.880823 0.66639 0.430463
-0.853828 0.718019 1.29202
3.07623e-06 0.201086 0.504516
4.29602e-06 0.221544 1.40438
-0.804206 0.806535 -0.0277688
-0.45249 1.30453 -0.05522
-6.43211e-05 0.804493 -1.29011
-6.41261e-05 1.29048 -0.46685
-2.08556e-05 1.33025 0.35641
5.84788e-07 1.35227 1.17967
0.884338 0.445848 0.0271337
0.430433 0.202605 0.054585
0.891733 0.550992 -1.29266
0.889975 0.604391 -0.431098
0.880827 0.666367 0.430463
0.853793 0.718016 1.29202
0.804221 0.80652 -0.0277688
0.45245 1.30454 -0.05522
-0.877851 0.387245 -2.16586
-0.87322 0.409595 -1.29393
-0.87499 0.675132 -1.29138
-0.876185 0.607754 -2.12501
0.877847 0.387237 -2.16585
0.876185 0.607745 -2.125
0.875003 0.675059 -1.29138
0.873207 0.409569 -1.29393
-0.413831 0.224806 -2.20625
0.413827 0.224788 -2.20625
0.416091 0.200933 -1.29521
-0.4161 0.200933 -1.29521
-0.406643 0.759885 -2.12963
-0.38307 0.791734 -1.29011
0.382963 0.791736 -1.29011
0.406622 0.759885 -2.12963
-0.401378 0.373202 -2.71485
-0.412934 0.599395 -2.54389
0.412929 0.599395 -2.5439
0.401373 0.373202 -2.7149
-0.880977 0.431791 -0.413222
-0.886626 0.458949 0.467489
-0.787222 0.846489 0.393437
-0.822433 0.765809 -0.448974
0.880968 0.431768 -0.413222
0.822464 0.76577 -0.448974
0.787203 0.846467 0.393437
0.886625 0.458938 0.467489
-0.429763 0.202543 -0.395346
0.42976 0.202543 -0.395346
0.431342 0.202671 0.504516
-0.431338 0.202672 0.504516
-0.487748 1.27048 -0.46685
-0.435203 1.31775 0.35641
0.435183 1.31775 0.35641
0.487653 1.27046 -0.46685
-0.894875 0.503711 1.3482
-0.891454 0.533324 2.22688
-0.709393 0.983732 2.07623
-0.760807 0.930705 1.23585
0.894876 0.503692 1.3482
0.760805 0.930702 1.23585
0.70939 0.98373 2.07626
0.89146 0.53331 2.22692
-0.412019 0.22305 1.40438
0.41204 0.22305 1.40438
0.405267 0.274632 2.28335
-0.405253 0.274634 2.28335
-0.349505 1.34271 1.17967
-0.313332 1.34932 2.01256
0.313331 1.34932 2.01256
0.349505 1.34271 1.17967
-0.369219 0.573387 2.65691
0.369255 0.573387 2.65691
0.316755 1.01713 2.54275
-0.316719 1.01713 2.54274
-0.832085 0.334689 -2.64753
-0.606582 0.275094 -2.65491
-0.81758 0.277288 -2.42003
-0.800164 0.43875 2.74313
-0.59625 0.400182 2.67899
-0.814083 0.304824 2.5292
-0.840588 0.632825 -2.53137
-0.64125 0.692497 -2.53498
-0.847187 0.708971 -2.31919
-0.616926 1.12125 2.46269
-0.43875 1.25744 2.437
-0.621402 1.23713 2.20875
0.606582 0.275096 -2.6549
0.831963 0.334689 -2.64741
0.817559 0.27731 -2.42003
0.59625 0.400182 2.67899
0.781146 0.43875 2.72412
0.814088 0.304819 2.5292
0.64125 0.692505 -2.53499
0.840812 0.632825 -2.53159
0.847168 0.708952 -2.31919
0.43875 1.25754 2.4371
0.616912 1.12125 2.46267
0.621382 1.23711 2.20875
-0.817644 0.28378 -1.07024
-0.817992 0.285618 -0.620311
-0.854939 0.347589 -0.849427
-0.643635 0.203246 -0.845277
-0.860112 0.252239 1.17941
-0.821695 0.288471 0.729481
-0.865852 0.37543 0.931146
-0.648396 0.203485 0.954447
-0.726231 0.793637 -1.0843
-0.807447 0.797093 -0.87433
-0.766447 0.902394 -0.672665
-0.591557 0.948847 -0.87848
-0.711867 1.12197 0.973855
-0.761241 1.00162 0.791341
-0.732457 1.07403 0.562225
-0.617349 1.30533 0.76804
0.817636 0.283789 -1.07024
0.643629 0.203246 -0.845277
0.817985 0.285625 -0.620311
0.854918 0.347584 -0.849427
0.860134 0.252218 1.17941
0.648403 0.203485 0.954447
0.821701 0.288465 0.729481
0.865855 0.375423 0.931146
0.726222 0.793628 -1.0843
0.591468 0.948884 -0.87848
0.807461 0.797015 -0.87433
0.766496 0.902442 -0.672665
[...]
POINT_DATA 3682
SCALARS point_scalars float 1
LOOKUP_TABLE default
-56.2978
-44.2002
-77.749
-36.8075
-56.6046
-48.4698
-65.0184
-45.5557
-32.2396
-27.1814
-54.707
-42.3247
-32.4448
-27.8294
-55.8061
-43.4139
-40.6556
-123.156
-33.0414
-32.1433
-45.2961
-44.3329
-44.3329
-4.76389
-120.806
-34.1083
-35.7491
-45.774
-42.0207
-40.0758
-4.76389
-146.326
-41.7559
-40.6855
-37.3767
-38.54
-38.4892
-76.4179
-158.069
-78.4975
-44.6397
-39.0463
-36.9111
-34.801
4.8231
-157.457
-32.7981
-42.6082
-44.0602
-43.9334
-40.7519
185.514
-40.7519
-40.0758
179.033
-38.54
-38.4892
-30.4799
-128.594
-64.8661
-45.5362
-39.6088
-35.1058
-32.3245
1.16503
-166.697
-32.7944
-43.0412
-48.5444
-48.4698
-45.3092
174.643
-45.3092
-45.3092
179.006
-44.3624
-44.3624
-38.934
-119.696
-64.9828
-46.1079
-44.8416
-43.0378
-40.4467
-41.1584
-122.935
-33.2742
-33.1292
-51.0096
-48.4698
-48.4698
-4.98641
-120.576
-34.3501
-37.0582
-50.9915
-48.4698
-48.4698
-4.98641
-139.177
-42.0095
-41.813
-44.5965
-44.3624
-44.3624
-62.0858
-140.97
-79.1647
-45.3952
-44.6189
-45.839
-44.6856
-18.2117
-120.831
-35.3202
-34.3373
-41.4859
-38.8638
-126.324
-19.8008
-34.3472
-39.4104
-20.1626
-35.4625
-41.9327
-40.5755
-20.0228
-42.0169
-34.2336
-37.4333
-34.7476
-38.5352
-40.0326
-51.7458
73.5403
-46.5274
-34.6442
-37.6876
-39.7295
-52.2599
-30.4926
-30.709
-44.2686
-8.70773
182.925
-41.438
-41.9703
-34.4297
-69.6497
-38.7164
-41.906
-41.8372
-42.1661
-36.3998
-37.1682
-85.2159
-56.211
-39.8575
-39.7412
-40.2872
-34.9089
-91.7099
-46.8105
-34.1344
-32.232
-38.5602
-83.8404
-37.3535
-56.6472
-42.9296
-43.877
-42.9747
-91.9064
-31.9207
-47.066
-39.7747
-42.6247
-43.0318
-28.9264
-34.1428
-33.5519
-34.319
-39.032
-33.8954
-33.3404
-39.6745
-11.5529
-48.4196
-61.8444
47.0464
-40.2738
-40.3599
-44.3924
-45.1958
-29.1087
-34.4035
-34.4374
-33.8362
-40.0358
-39.9893
-34.4543
-34.3855
-11.8631
46.9188
-48.565
-62.2994
-41.9167
-45.7043
-41.5735
-45.09
-54.6799
151.634
-64.5904
176.658
-31.1656
-42.9223
-38.0424
-32.0607
-43.2932
-39.082
-38.3528
-41.1201
-42.5962
167.859
-29.1397
-12.6929
-40.8257
-31.4359
-38.9578
-41.2051
-55.1027
152.13
-31.4184
-42.9962
-42.8178
-40.362
-40.9138
-41.862
-29.2804
-12.8278
-41.9514
-42.4124
-36.7807
-34.2059
-27.4904
-42.9357
-38.3697
-33.8203
-38.9434
-38.5577
-36.3144
-41.6164
-47.1458
-66.1313
18.5233
-102.426
-53.0055
-43.0427
-37.2555
-34.3558
-27.7017
-43.3157
-39.728
-40.428
-47.6866
-66.4055
-54.5258
-28.4155
-26.8066
-52.4079
-54.9135
-52.6268
-27.0154
-28.6286
-63.9473
-64.0135
-37.82
-37.7547
-46.5474
10.2479
10.1235
-46.6851
187.202
153.366
153.301
187.307
-37.0833
-35.3732
-41.5491
-53.0213
-37.4154
-53.4311
-42.3455
-36.0611
-33.6782
-33.7895
-36.0139
-35.8098
-96.215
-50.896
-51.2476
-96.5103
-37.7581
-38.2711
-38.0843
-39.2476
-39.4415
-41.0787
-43.0654
-42.3158
-40.9952
-41.4331
-44.2632
-42.7048
-42.1684
-39.6909
-42.2918
-42.859
-36.9164
-41.0048
-38.4447
-27.3054
-61.356
-30.8359
-62.2893
-41.3628
-39.0878
-44.4187
-33.8425
-53.6772
-76.3923
-34.3732
-33.2391
-39.0675
-30.9296
-61.514
-62.2082
-43.1263
-44.714
-48.2483
-53.8095
-24.1517
-76.6217
-41.9829
-42.992
-45.372
-29.4534
-33.4581
-32.6164
-33.4801
-40.7114
-33.1339
-28.3346
-41.0233
-12.5655
-60.822
-69.7513
11.142
-41.8393
-41.4195
-42.547
-44.16
-29.5108
-33.6028
-33.7069
-32.8438
-41.4665
-41.4491
-33.7875
-29.2681
-13.0055
10.7352
-60.2976
-70.2838
-43.1894
-45.0136
-42.5938
-43.4106
-9.46308
-37.2274
-91.5303
153.032
-101.355
-101.964
-90.2061
102.463
-41.6556
-39.8785
-31.7373
-40.7301
-38.3841
-34.7529
-37.819
-32.897
-40.7564
-42.2589
-44.4664
-39.8354
-37.7111
-40.5083
-40.8252
-40.6175
-72.2449
-72.6649
-73.223
92.1084
-31.5076
-13.0203
-26.1338
-16.4626
-32.354
-37.1199
-40.7685
-31.337
-38.8557
-39.7767
-39.2118
-40.542
-9.57827
-36.8434
-91.8415
153.268
-41.8076
-39.9861
-31.9515
-40.8435
-44.3585
-42.7164
-44.4241
-40.5973
-39.7684
-41.8234
-43.1187
-41.6901
-31.7427
-13.2534
-26.3044
-16.663
-42.2085
-41.8312
-42.064
-42.2833
-34.2221
-34.0762
-35.3538
-33.9805
-35.1973
-41.544
-31.4326
-41.6806
-34.6997
-34.7427
-36.1318
-34.0356
-36.3138
-39.9014
-38.392
-38.6665
-39.8354
-39.9842
-37.8748
-42.0063
-55.6418
-47.3089
-48.832
-60.8018
66.8395
66.8793
31.1615
-40.8666
-46.0937
-46.3539
-48.9509
-44.536
-34.5625
-34.5443
-35.8067
-34.2086
-35.4211
-41.8116
-31.6699
-41.9663
-37.4418
-41.1269
-39.3545
-40.1635
-56.1116
-47.8886
-49.3521
-61.2702
-38.9207
-31.0807
-29.982
-28.6639
-39.1935
-31.322
-30.1474
-28.8494
-51.7158
-44.4616
-44.4991
-41.5645
-24.2504
-10.0167
-10.0876
5.28749
173.758
198.196
185.6
173.773
-38.8805
-42.1846
-39.9614
-45.0801
-39.3812
-42.6254
-40.6007
-45.6275
-34.3674
-33.9732
-35.1963
-34.4427
-68.9453
-83.1685
-59.987
-69.0879
-37.9228
-38.0489
-39.1679
-38.7585
-41.982
-40.9071
-42.3095
-41.1596
-42.3364
-41.5384
-41.9318
-41.4926
-41.2951
-41.6962
-42.3268
-42.3289
-33.2833
-38.0248
-33.6241
-39.1568
-75.795
186.85
-96.7313
116.257
-54.9704
-60.5345
-41.5324
-37.0744
-43.7507
-37.6989
-38.5017
-42.4492
-89.7049
158.069
-82.6969
108.591
-50.1905
-47.0097
-37.5893
-29.8678
-39.472
-28.3392
-38.3046
-39.1696
-96.7504
123.209
-75.9473
186.821
-55.4313
-60.6757
-46.2136
-41.1596
-47.0992
-41.2148
-42.0864
-44.5629
-82.8529
108.734
-89.9873
158.307
-50.2652
-47.2331
-44.1498
-37.7255
-44.2767
-39.243
-43.1275
-42.6085
-28.2419
-36.5058
-35.459
-33.5865
-30.4651
-36.0428
-35.5882
-33.7704
-38.0527
-40.3422
-34.4618
-35.0617
-34.5565
-37.909
-37.3372
-40.8296
-21.2244
2.77735
-32.8345
-53.2006
-56.8324
-96.4322
17.7809
-3.67709
-39.7153
-41.0402
-40.2761
-40.2103
-42.832
-48.3725
-47.1748
-43.4092
-28.442
-36.6021
-35.6615
-33.8667
-35.7793
-33.7537
-30.6745
-36.3192
-39.6069
-41.0307
-37.5791
-41.1623
-35.1028
-35.371
-35.3925
-39.303
-21.4494
2.57395
17.6892
-3.6235
-33.0614
-53.736
-57.2681
-97.0814
-41.4847
-42.0783
-47.5901
-44.0017
-41.2506
-41.695
-43.5841
-48.9721
-55.1355
-54.4597
201.112
160.856
-65.9118
-65.9433
163.781
163.755
-39.5089
-33.5969
-50.5427
-39.8676
-38.0186
-38.0311
-34.9169
-28.7835
-43.7889
-42.9601
-37.5939
-40.5075
-38.0247
-37.3667
-40.9414
-41.4649
-43.222
-43.2819
163.149
163.567
-26.4473
-37.3322
-26.7238
-0.555929
-40.1755
-41.604
-35.8358
-27.722
-38.4445
-39.1254
-41.544
-40.284
-55.5797
-54.8134
160.978
201.112
-39.7897
-33.6998
-50.6134
-39.9324
-43.0767
-42.4087
-40.804
-39.5099
-40.1094
-40.5445
-41.5026
-42.4963
-37.4942
-26.5964
-0.69379
-26.8547
-41.4607
-42.2958
-41.9776
-42.4413
-37.09
-36.0653
-33.834
-34.84
-28.1414
-27.1163
-39.5565
-47.6457
-38.329
-38.2935
-33.799
-33.8539
-36.8821
-40.8586
-37.7207
-39.0547
-36.2811
-36.1785
-41.3749
-41.6025
-43.8585
-49.926
-80.4694
-57.1632
16.1865
16.1336
-101.286
-101.454
-52.4538
-52.6321
-42.7282
-43.0818
-37.4839
-36.636
-33.9631
-35.0145
-27.3146
-28.3612
-39.9103
-48.0522
-41.6674
-37.6169
-39.4876
-40.9316
-50.3821
-44.5041
-57.4671
-80.76
-63.7066
-39.6094
-39.5592
-86.7189
-30.1173
-31.0504
-30.8476
-37.9392
-29.5724
-22.596
-27.2513
-32.5172
-83.2634
-94.0368
-38.3341
-35.038
-63.5161
-86.9367
-39.8591
-39.8404
-82.8693
-35.1554
-38.5462
-94.3714
-30.1188
-32.7359
-27.4052
-22.7739
-30.3249
-38.0146
-31.0025
-31.2698
-92.8505
-100.035
-52.2272
-47.7659
-92.8922
-47.8343
-52.2624
-100.064
-34.2541
-36.0933
-41.4593
-36.2906
-34.1377
-36.1871
-41.4239
-36.0545
-82.3838
-29.4276
-24.8448
-74.031
9.53874
27.3013
3.72334
-5.75466
9.32632
-5.94839
3.65493
26.8838
-82.707
-74.0389
-24.9153
-29.6144
112.417
182.531
200.128
54.9152
134.072
117.581
178.197
163.598
134.254
163.878
178.084
120.421
112.359
54.2068
200.07
183.096
-34.5224
-35.5453
-39.3451
-38.3115
-33.4495
-36.2582
-37.6928
-34.9609
-41.4046
-45.1767
-42.467
-39.8371
-60.3079
-46.7043
-45.7928
-51.7568
-34.7924
-38.5771
-39.7565
-35.9245
-60.898
-52.2178
-46.25
-47.0629
-42.3314
-40.8218
-43.124
-45.7837
-34.2199
-35.4991
-38.2994
-37.1592
-33.5723
-33.9897
-33.9461
-33.7147
-33.7149
-33.9102
-34.011
-34.0393
-36.7045
-37.8326
-35.1855
-34.6673
-36.3483
-34.3992
-35.0978
-37.7097
-57.291
-68.3015
-83.6613
-30.3188
-45.0463
-48.4206
-59.2205
-52.6034
-45.7475
-53.116
-59.3782
-48.631
-57.8173
-30.5658
-83.8025
-68.8251
-39.4596
-38.7043
-37.9321
-37.6357
-42.683
-39.1018
-37.9422
-36.6334
-38.087
-38.6981
-38.1457
-37.5578
-40.9135
-39.618
-39.0361
-39.4308
-40.7467
-39.0795
-40.1583
-40.6318
-42.3462
-41.6632
-41.4371
-41.1295
-44.71
-44.1207
-42.1346
-42.364
-47.8233
-39.3003
-41.6849
-44.9138
-39.0507
-41.7739
-41.2454
-40.4039
-39.515
-41.2439
-41.5405
-41.961
-47.7345
-45.25
-42.4861
-42.2788
-44.4003
-40.8424
-41.9383
-43.9455
-42.1334
-40.8644
-42.0152
-44.1639
-39.7828
-39.7378
-40.8123
-39.6052
-45.4746
-41.9531
-41.706
-42.4086
-43.2207
-44.4646
-42.4789
-42.2098
-37.5843
-38.6574
-35.8432
-35.4057
-41.4921
-40.9729
-40.0354
-40.7294
-39.0428
-35.1264
-37.6109
-39.9337
-30.3489
-30.6384
-29.8819
-28.4416
-70.1956
-23.6342
-103.686
-42.42
-38.6077
-43.0403
-62.4649
-43.8519
-121.118
-35.2082
-34.7928
-38.5981
-23.6759
-70.7445
-103.674
-42.9181
-46.303
-47.0944
-43.3244
-49.2365
-119.741
-43.4356
-43.9051
-46.1665
-31.0718
-32.8394
-32.2495
-32.5341
-34.4581
-31.8928
-24.9413
-39.4754
-17.2284
-60.7468
-77.0703
-14.0327
-42.9743
-41.9284
-41.8054
-43.4206
-31.2477
-32.5053
-33.0708
-32.4723
-35.0479
-39.9482
-32.5623
-25.7475
-18.3542
-14.6244
-60.7973
-77.4678
-44.2068
-44.4297
-43.0627
-42.764
-37.4074
-29.1599
-123.716
130.521
-123.68
-123.82
-126.419
31.833
-37.9273
-34.952
-33.2445
-38.7517
-38.3519
-34.903
-36.5188
-33.7263
-41.164
-41.7306
-45.2816
-40.4592
-36.2151
-45.4416
-40.8598
-39.6768
-112.638
-112.711
-114.13
24.8233
-25.6485
-15.7491
-23.6371
-18.5085
-33.187
-35.7037
-40.1445
-32.1698
-39.0426
-39.5741
-39.285
-40.3098
-29.7676
-30.0593
-123.917
131.03
-38.0837
-35.0872
-33.4221
-38.8694
-44.3969
-42.6578
-44.0387
-40.8915
-38.0771
-47.0415
-42.8771
-41.0018
-25.8689
-15.97
-23.8413
-18.7101
-41.9792
-41.8978
-42.0386
-42.5583
-34.2399
-34.1284
-34.6508
-33.8012
-36.219
-39.2484
-34.4481
-40.0227
-34.7382
-34.7612
-35.3402
-34.3195
-37.3619
-39.4407
-38.4688
-38.7723
-39.9614
-40.0374
-38.8552
-41.5869
-53.0609
-49.5247
-50.1292
-55.7618
72.1474
72.1769
51.8116
51.0564
-46.3808
-46.5113
-47.581
-45.5289
-34.6085
-34.5739
-35.0818
-33.9522
-36.4577
-39.5053
-34.6763
-40.3081
-38.5245
-40.6547
-39.5414
-40.1099
-53.5455
-50.0685
-50.642
-56.2778
-34.0734
-30.8063
-30.2122
-29.1118
-34.3068
-31.0398
-30.4086
-29.2954
-47.8
-44.3495
-44.3664
-42.9973
-16.7932
-9.08778
-9.1271
-1.59503
181.544
198.208
187.531
181.549
-40.1526
-41.8516
-40.6951
-42.9936
-40.6695
-42.3314
-41.2817
-43.5356
-34.3898
-34.1625
-34.7737
-34.4298
-69.504
-74.9377
-64.5085
-69.5746
-38.067
-38.458
-39.3322
-38.8775
-41.5977
-41.4968
-42.5441
-41.6448
-42.0044
-41.7097
-41.9108
-41.6196
-41.6471
-41.9151
-42.2513
-42.3731
-34.619
-37.2475
-35.0778
-37.9857
-52.6758
-6.0245
-107.184
160.584
-61.4092
-70.805
-129.51
46.7132
-58.7662
-47.8066
-55.0551
-57.7805
-40.7982
-38.4892
-44.046
-37.0514
-39.4998
-40.2121
-44.0529
-38.3078
-42.1894
-38.7473
-38.7293
-42.1935
-37.8495
-41.0028
-139.767
136.158
-94.8208
-51.4513
-118.774
36.7271
-57.4652
-38.709
-48.7516
-46.137
-34.4271
-34.3316
-36.5774
-31.4457
-32.675
-32.0707
-39.3217
-29.709
-38.411
-38.4991
-38.4083
-39.1588
-61.2639
-86.4986
-129.43
51.5712
-53.3793
-6.31593
-106.998
160.446
-59.3584
-47.9476
-55.7802
-58.022
-43.2671
-42.6211
-47.2473
-41.617
-44.3312
-43.7194
-51.7605
-41.2039
-45.2782
-41.0743
-42.0092
-44.546
-95.0918
-52.1076
-118.919
36.7049
-33.4027
-39.4198
-138.792
137.122
-57.8261
-38.9356
-48.8859
-46.4089
-41.0139
-38.4433
-46.1789
-37.8062
-43.0964
-42.623
-44.3751
-39.987
-43.6102
-42.3317
-43.0995
-43.1837
-28.9984
-34.0119
-28.3522
-33.3329
-33.923
-34.2438
-34.5949
-33.3897
-33.101
-34.3288
-32.0009
-34.9659
-34.0556
-34.5237
-34.9694
-33.9373
-39.2961
-38.9575
-38.0591
-40.1179
-33.6227
-33.9258
-34.0898
-34.1234
-30.9191
-35.1953
-34.0461
-36.2548
-40.2888
-39.6554
-38.3806
-40.5413
-11.6152
-10.3982
-13.8191
-2.97438
-53.695
-44.4199
-38.9231
-52.4597
-65.6698
-58.5132
-58.4728
-76.6954
33.215
57.5559
25.4466
45.664
-40.7057
-39.9237
-39.9749
-38.6536
-40.9335
-39.8228
-39.8237
-40.948
-43.3524
-45.6534
-43.6868
-46.1789
-44.8422
-45.6888
-46.0467
-44.3397
-29.1941
-34.1623
-28.5432
-33.4672
-34.1589
-34.5884
-35.0483
-34.0271
-34.1933
-34.5638
-34.9031
-33.5514
-33.3304
-34.5526
-32.2163
-35.2161
-40.2003
-40.0663
-39.4414
-40.878
-40.7076
-39.8756
-38.6487
-40.8399
-34.2344
-34.4306
-34.6962
-34.5522
-31.9175
-36.287
-34.9765
-37.5141
-11.9279
-10.6565
-14.0992
-3.22242
32.9373
57.3274
25.2195
45.8767
-53.655
-44.6746
-39.1245
-52.8904
-66.1428
-58.9726
-58.9162
-77.2306
-42.1823
-41.7556
-41.6946
-39.9797
-45.5051
-46.0755
-46.5013
-44.8885
-42.14
-41.0357
-40.898
-42.3089
-44.1275
-46.2859
-44.4081
-46.8526
-67.5532
-45.6405
-55.337
-54.8183
157.11
168.555
189.408
158.965
-73.7817
-57.3291
-65.0687
-65.0781
148.949
194.431
177.886
177.797
-31.0659
-31.2912
-34.7811
-31.3561
-41.9379
-44.0784
-46.2412
-41.4203
-38.6605
-38.3774
-37.6823
-38.1386
-32.207
-32.5
-33.5499
-30.3515
-43.903
-42.8487
-43.5425
-43.1227
-39.4527
-38.6531
-38.2463
-39.9355
-39.0827
-37.8746
-38.2052
-37.4347
-40.9071
-41.3366
-40.9522
-41.2898
-55.3161
-32.6262
-42.5447
-42.5794
143.169
180.954
172.28
172.135
-27.8744
-29.6529
-27.4908
-32.4574
-14.2469
-11.2503
-19.4146
-6.54368
-40.6953
-41.0277
-40.4779
-41.2143
-31.0838
-32.1823
-33.8501
-29.178
-39.0981
-38.8009
-38.6625
-39.1676
-40.9092
-41.4642
-41.5281
-40.7099
-67.978
-45.9895
-55.7802
-55.2169
157.274
168.615
159.111
189.768
-31.3011
-31.5401
-35.0393
-31.5368
-42.0275
-44.1329
-46.3151
-41.4874
-43.7227
-44.1409
-43.1176
-42.2801
-40.5139
-39.926
-40.6151
-39.9863
-41.5264
-40.5747
-40.5302
-40.2185
-41.812
-41.9114
-41.5856
-42.162
-28.0327
-29.8004
-32.5981
-27.5414
-14.4083
-11.3548
-6.68048
-19.5471
-42.0262
-41.8528
-41.8183
-42.0394
-42.3811
-42.394
-42.127
-42.5693
-36.0003
-37.7082
-36.9596
-36.4327
-34.0936
-34.2993
-33.9885
-34.4898
-28.9629
-27.7435
-27.8911
-27.2248
-42.5899
-42.7204
-41.0853
-45.0087
-37.1339
-39.8154
-38.4196
-38.4009
-33.8738
-33.857
-33.8126
-33.8423
-38.5157
-39.3781
-37.7354
-39.9556
-38.6916
-38.6621
-38.003
-38.8676
-37.0343
-35.7067
-36.3197
-36.2678
-41.5882
-41.6327
-41.5067
-41.623
-47.8206
-46.8082
-45.6093
-48.7206
-63.4901
-67.874
-71.7163
-61.4629
24.8768
12.0279
17.8773
17.8498
-91.2589
-96.3755
-101.625
-101.722
-50.7065
-55.9599
-52.8335
-52.924
-43.6968
-42.5598
-42.9044
-43.0819
-36.4652
-38.1938
-37.3898
-36.9538
-34.2812
-34.4119
-34.1273
-34.6517
-29.1846
-27.9398
-27.4275
-28.11
-42.9407
-43.129
-41.448
-45.4043
-39.38
-40.0853
-40.7548
-38.4921
-40.3685
-40.7776
-39.8241
-40.7399
-48.3526
-47.3598
-49.2118
-46.2048
-63.8585
-68.0828
-61.7535
-71.9837
-66.0432
-55.1991
-54.806
-45.7603
-28.3358
-29.1997
-30.7026
-28.3793
-24.637
-28.6106
-26.0333
-27.0525
-65.5467
-51.2936
-53.4835
-44.3695
-66.5521
-55.5887
-55.2236
-46.0936
-65.7236
-51.4492
-53.767
-44.5539
-24.8542
-28.8514
-26.2081
-27.2508
-28.5429
-29.4134
-30.8737
-28.5922
-75.0018
-62.4168
-65.4665
-56.5659
-75.0652
-62.514
-65.5217
-56.6355
-37.4188
-36.6312
-39.1125
-38.1228
-37.3385
-36.5625
-39.0505
-38.0716
-60.1685
-47.1141
-44.5216
-35.2628
6.80374
14.5252
5.25086
13.5955
6.64291
14.4242
5.09118
13.5083
-60.3146
-47.2992
-44.6143
-35.3918
177.241
166.799
198.55
163.259
153.904
139.274
159.014
153.628
139.337
154.016
153.702
159.035
166.665
177.232
159.237
198.508
-36.2287
-36.7209
-37.1431
-38.157
-34.8268
-35.0207
-35.7027
-36.099
-40.7535
-42.0827
-41.3009
-42.5046
-53.4754
-55.2386
-50.4761
-51.4846
-36.5555
-37.0265
-37.5056
-38.4984
-53.8622
-55.6607
-50.8855
-51.9172
-41.6335
-42.8644
-42.1086
-43.2179
-35.4927
-35.7788
-36.3282
-36.8134
-33.6079
-33.684
-33.7299
-33.7429
-33.7875
-33.7465
-33.827
-33.8497
-36.712
-35.7548
-36.1826
-35.4601
-35.4997
-36.4906
-35.2715
-36.0291
-95.3193
-69.3899
-93.0829
-101.41
-49.6957
-48.7814
-53.6984
-51.8941
-49.1615
-50.147
-52.164
-54.0254
-68.8807
-95.7755
-101.636
-93.3954
-37.95
-37.778
-37.8266
-37.7048
-39.6034
-38.3974
-38.2358
-37.668
-37.8939
-38.1643
-38.0218
-38.2585
-39.5397
-39.458
-39.1177
-38.979
-39.5741
-39.2997
-39.6978
-39.4317
-41.3463
-41.0988
-41.1771
-40.8298
-43.5936
-43.0534
-43.0349
-42.6484
-44.3047
-42.1844
-42.5386
-41.242
-40.6128
-40.8447
-41.0971
-41.2078
-41.201
-41.2508
-41.5831
-41.542
-45.4317
-44.4324
-44.0342
-43.3092
-43.4989
-42.5726
-42.8199
-42.0578
-41.8262
-42.6409
-41.7574
-42.5004
-39.4914
-39.472
-39.9196
-39.9461
-42.8833
-42.5277
-41.9797
-42.013
-42.6749
-43.2778
-42.5407
-43.0276
-36.7746
-37.3919
-36.1197
-37.1515
-41.0648
-41.0894
-40.8289
-40.9346
-37.9444
-38.8938
-37.4319
-38.8613
-28.4575
-27.2281
-27.4778
-27.0421
-105.144
105.021
-126.717
43.7622
-61.2013
-80.6132
-45.8307
-37.6822
-44.6536
-38.2446
-42.8205
-45.5326
-131.956
117.318
-122.001
30.8498
-80.0902
-80.613
-37.1513
-31.6226
-40.3576
-31.086
-38.591
-40.0086
-126.792
43.7111
-105.012
104.923
-61.0198
-80.6511
-48.7972
-42.0944
-52.904
-41.7527
-47.5155
-48.975
-122.183
30.8813
-127.558
119.012
-79.5966
-81.1042
-48.4149
-39.5786
-44.9428
-40.1634
-45.1381
-46.1044
-29.9771
-31.4871
-33.8469
-33.2644
-31.3448
-33.6639
-33.4185
-33.6441
-40.0724
-39.3628
-33.1407
-34.7872
-32.1788
-34.2541
-37.6446
-40.08
-23.5808
1.3884
-41.3493
-62.6195
-63.695
-94.8133
7.28209
7.19568
-41.3536
-42.2443
-40.9448
-42.0017
-41.996
-43.7455
-44.1077
-43.7273
-30.1765
-31.6437
-33.5406
-33.7749
-34.1082
-33.4136
-31.5596
-33.9097
-41.1404
-39.8881
-38.0257
-40.4952
-33.862
-35.2694
-33.0268
-35.4503
-24.0674
1.12151
6.96198
6.8732
-40.3554
-63.0291
-64.1996
-95.3569
-42.7475
-43.5318
-44.8867
-44.697
-41.9787
-43.3138
-42.8947
-44.5557
-110.014
142.787
-133.667
137.153
-92.9566
-92.7268
152.339
158.481
-136.66
-19.2796
-136.109
-19.9462
-92.6936
-92.6892
99.1568
99.1036
-39.9571
-45.1736
-39.8237
-34.8162
-35.1725
-32.3208
-43.8998
-38.5982
-41.8453
-35.978
-36.4983
-32.2633
-37.8643
-37.5593
-34.2055
-31.7669
-44.4275
-39.3561
-46.0844
-41.0272
-44.7999
-44.1436
-39.2375
-40.3583
-36.3833
-40.0151
-39.6382
-40.562
-39.5555
-37.5953
-40.708
-40.5647
-112.942
30.5142
-112.995
31.994
-72.7541
-72.7725
113.192
113.762
-33.8446
-29.951
-20.2994
-9.20682
-24.7463
-30.3267
-22.0332
-11.1829
-39.095
-29.7754
-43.0895
-35.4591
-40.1569
-41.5576
-33.321
-29.5826
-38.8147
-39.1219
-39.6207
-40.8149
-38.9355
-39.401
-40.958
-40.11
-109.814
143.07
-134.426
137.777
-93.1697
-93.0384
158.77
152.124
-40.1569
-45.2749
-39.9112
-34.9575
-35.3994
-32.4817
-44.0367
-38.7016
-48.9873
-41.0824
-44.0386
-40.4222
-44.2616
-44.0609
-40.8311
-40.3387
-38.8666
-41.672
-41.3885
-41.5712
-41.6669
-39.9946
-41.6402
-41.8012
-34.0106
-30.1673
-20.4984
-9.43097
-30.4605
-24.8969
-11.3758
-22.2238
-42.3564
-41.9777
-41.777
-42.5648
-41.9339
-42.161
-42.1158
-42.488
-34.7162
-33.6214
-34.4384
-34.2988
-35.5111
-35.1577
-33.8193
-34.1622
-33.0858
-36.9511
-37.0578
-44.8387
-31.3035
-31.9313
-39.8809
-43.7708
-35.2657
-34.2476
-35.307
-34.2949
-36.1378
-36.118
-34.017
-34.0421
-36.1623
-37.1121
-39.6723
-40.1766
-37.067
-39.3046
-37.9482
-39.3303
-38.6858
-41.4136
-38.8202
-41.5804
-37.8557
-37.7961
-41.9276
-42.0244
-53.4394
-62.2043
-46.2924
-49.6167
-46.9703
-49.7494
-64.6281
-56.1464
43.4741
52.7346
43.4256
52.786
29.1116
29.1442
-38.34
-37.062
-47.0888
-45.1137
-47.3227
-45.3925
-48.7726
-48.8788
-44.4088
-44.5594
-35.0793
-33.7664
-34.9487
-34.7976
-35.9245
-35.6513
-34.0305
-34.4094
-33.2888
-37.1963
-37.2828
-45.1702
-32.1601
-31.5449
-40.1513
-44.0986
-37.167
-38.3709
-40.7658
-41.5493
-40.28
-37.9923
-39.422
-40.8417
-53.9049
-62.6956
-46.881
-50.1882
-50.2329
-47.5317
-56.633
-65.0877
-39.2679
-38.6498
-34.683
-30.3726
-28.1155
-33.5404
-29.6381
-27.7836
-39.5595
-38.8943
-34.9435
-30.5614
-33.7268
-28.0784
-27.9577
-29.8172
-52.0141
-52.0315
-48.0424
-43.0074
-48.0816
-43.0433
-41.5556
-41.5375
-24.3616
-24.4005
-17.2764
-3.61054
-3.67928
-17.3483
4.89869
4.86143
191.885
176.228
204.591
204.717
186.381
186.083
176.202
191.98