# vtk DataFile Version 2.0
tri_press
ASCII
DATASET UNSTRUCTURED_GRID
POINTS 3682 float
-0.655 0.265 -2.07535
-0.875 0.265 2.06304
-0.785 0.905 -1.87221
-0.735 1.07319 2.115
0.655 0.265 -2.07535
0.875 0.265 2.06304
0.785 0.905 -1.87221
0.735 1.07319 2.115
-0.730458 0.262875 -0.695887
-0.803463 0.263204 0.683577
-0.810043 1.00277 -0.54314
-0.745466 1.01093 0.78593
0.73046 0.262873 -0.695887
0.803464 0.263203 0.683577
0.810058 1.00279 -0.54314
0.745454 1.01091 0.78593
-1.4045 -0.12457 -3.23168
-1.41515 -0.0947159 -2.14829
-1.47405 -0.0963764 -0.767527
-1.54508 -0.108855 0.623381
-1.60619 -0.107522 2.005
-1.62295 -0.0897001 3.09257
-1.62563 -0.0647355 4.1724
-1.41159 0.221759 -3.14823
-1.42471 0.262331 -2.07035
-1.48836 0.271248 -0.699384
-1.55274 0.267865 0.676113
-1.61705 0.279868 2.04804
-1.63424 0.298444 3.1349
-1.63548 0.321784 4.21637
-1.4693 0.897694 -2.96718
-1.51921 0.937245 -1.88721
-1.54792 1.0025 -0.550604
-1.51881 1.01942 0.782433
-1.53076 1.06636 2.12001
-1.59108 1.08381 3.20895
-1.62395 1.09951 4.29855
-1.51902 1.97272 -2.73349
-1.54492 2.01787 -1.66107
-1.56011 2.08576 -0.340804
-1.5506 2.14047 0.968603
-1.5506 2.1896 2.2894
-1.57412 2.22018 3.36292
-1.60421 2.24193 4.44701
-0.666393 -0.123258 -3.23493
-0.670238 -0.0919172 -2.15304
-0.717241 -0.0994584 -0.766891
-0.770186 -0.114031 0.629752
-0.818325 -0.118019 2.01614
-0.838257 -0.0967423 3.10013
-0.844254 -0.068701 4.17677
-0.664085 0.219314 -3.14923
-0.862666 0.292707 3.14113
-0.858928 0.318902 4.21967
-0.709791 0.883715 -2.96095
-0.827778 1.08546 3.20795
-0.855479 1.10001 4.29833
-0.7564 1.96367 -2.72733
-0.779004 2.00961 -1.65428
-0.794856 2.08307 -0.336712
-0.788142 2.14007 0.968112
-0.786884 2.19167 2.28589
-0.809314 2.22289 3.35942
-0.837902 2.24402 4.44447
0.752095 -0.123256 -3.23493
0.710415 -0.091917 -2.15304
0.755098 -0.0994596 -0.766891
0.816466 -0.114033 0.629752
0.856021 -0.11802 2.01614
0.791818 -0.096743 3.10013
0.746458 -0.068702 4.17677
0.754787 0.219315 -3.14923
0.766607 0.292707 3.14113
0.727121 0.318901 4.21967
0.789525 0.883717 -2.96095
0.716779 1.08546 3.20795
0.700974 1.10001 4.29833
0.769823 1.96367 -2.72733
0.76078 2.00961 -1.65428
0.747317 2.08308 -0.336712
0.73567 2.14007 0.968112
0.729701 2.19166 2.28589
0.714814 2.22289 3.35941
0.6953 2.24401 4.44446
1.47695 -0.124567 -3.23168
1.44317 -0.0947139 -2.14829
1.49783 -0.0963774 -0.767527
1.57954 -0.108859 0.623381
1.63035 -0.107524 2.005
1.58775 -0.089702 3.09257
1.53927 -0.0647378 4.1724
1.47644 0.221762 -3.14823
1.42583 0.262335 -2.07035
1.4865 0.271249 -0.699384
1.56047 0.26786 0.676113
1.61785 0.279866 2.04804
1.56743 0.298442 3.1349
1.52093 0.321782 4.21637
1.52036 0.897698 -2.96718
1.51207 0.937252 -1.88721
1.53608 1.00251 -0.550604
1.51546 1.01941 0.782432
1.52076 1.06635 2.12001
1.50608 1.08381 3.20895
1.48565 1.09951 4.29855
1.52719 1.97272 -2.73349
1.52276 2.01788 -1.66107
1.51317 2.08576 -0.340804
1.49915 2.14046 0.968603
1.4908 2.1896 2.2894
1.47942 2.22018 3.36292
1.46389 2.24192 4.44701
-0.751062 0.585 -2.00484
0 0.261565 -2.07879
-0.694025 0.262642 -1.38562
-0.826207 0.669095 2.11023
0 0.261635 2.0664
-0.840289 0.263044 1.37331
0 0.947301 -1.91451
-0.840386 0.996751 -1.20768
0 1.04114 2.08295
-0.710921 1.01275 1.45047
0.751081 0.585 -2.00486
0.694026 0.262641 -1.38562
0.826206 0.669095 2.11023
0.840289 0.263044 1.37331
0.840322 0.996687 -1.20768
0.711028 1.01285 1.45047
-0.766895 0.263105 -0.00615501
-0.870454 0.632824 -0.619513
9.33405e-07 0.26047 -0.695887
-0.87077 0.637065 0.734753
6.04544e-07 0.260572 0.683577
-0.777822 1.00692 0.121395
7.1057e-06 1.31884 -0.54314
-6.20843e-06 1.5004 0.78593
0.766897 0.263103 -0.00615501
0.870453 0.63283 -0.619513
0.870765 0.637058 0.734753
0.777841 1.00694 0.121395
-0.897251 0.608912 -1.29665
0.897251 0.608915 -1.29665
4.66702e-07 0.260381 -1.38562
3.55285e-06 1.04587 -1.20768
0 0.585 -2.17972
-0.870614 0.634945 0.05762
0.870611 0.634944 0.05762
7.68974e-07 0.260558 -0.00615501
4.48633e-07 1.48556 0.121395
-0.896306 0.65308 1.41189
0.896306 0.653077 1.41189
3.02272e-07 0.260437 1.37331
-3.10421e-06 1.39463 1.45047
0 0.669095 2.2551
-0.67917 0.425 -2.01623
-0.3275 0.261589 -2.07876
-0.675718 0.262616 -1.73048
-0.859162 0.467047 2.09519
-0.4375 0.261142 2.0669
-0.858588 0.263078 1.71817
-0.774075 0.745 -1.94457
-0.3925 0.947302 -1.91451
-0.821151 0.959334 -1.53994
-0.779829 0.871142 2.11184
-0.3675 1.04116 2.08297
-0.740054 1.06006 1.78273
0.3275 0.261575 -2.07878
0.67917 0.425 -2.01623
0.675717 0.262616 -1.73048
0.4375 0.262128 2.06591
0.859146 0.467047 2.09518
0.858589 0.263078 1.71817
0.3925 0.947292 -1.9145
0.774149 0.745 -1.94464
0.82115 0.959333 -1.53994
0.3675 1.04116 2.08297
0.779836 0.871142 2.11185
0.740067 1.06007 1.78273
-0.712296 0.262704 -1.04075
-0.748616 0.263051 -0.351021
-0.830948 0.432603 -0.6577
-0.365219 0.261693 -0.695887
-0.821888 0.263112 1.02844
-0.785177 0.263156 0.338711
-0.83637 0.450508 0.709165
-0.401713 0.261923 0.683577
-0.823586 0.998134 -0.875408
-0.854469 0.824909 -0.581327
-0.793931 1.00484 -0.210873
-0.445713 1.2422 -0.54314
-0.728297 1.01194 1.1182
-0.865533 0.852703 0.760342
-0.760811 1.00809 0.453663
-0.435555 1.3813 0.78593
0.712297 0.262703 -1.04075
0.36522 0.261692 -0.695887
0.748618 0.263049 -0.351021
0.830949 0.432606 -0.6577
0.821889 0.263111 1.02844
0.401715 0.261923 0.683577
0.785179 0.263155 0.338711
0.836364 0.450506 0.709165
0.823604 0.998151 -0.875408
0.445721 1.24219 -0.54314
0.854466 0.824914 -0.581327
0.793909 1.00482 -0.210873
0.728298 1.01194 1.1182
0.435542 1.38129 0.78593
0.865533 0.852698 0.760342
0.760781 1.00806 0.453663
-0.895664 0.596956 -1.65074
-0.375531 0.585 -2.20147
2.33351e-07 0.260401 -1.7322
0 0.423282 -2.19832
-0.899075 0.435777 -1.34113
-0.347012 0.260405 -1.38562
-0.896445 0.661087 1.76106
-0.413103 0.669095 2.2551
1.51136e-07 0.260444 1.71986
0 0.465365 2.06914
-0.898508 0.458062 1.3926
-0.420145 0.26044 1.37331
1.77642e-06 1.02755 -1.56109
0 0.766151 -2.10114
-0.894769 0.802831 -1.25216
-0.420191 1.04257 -1.20768
-1.55211e-06 1.11226 1.76671
0 0.855117 2.21237
-0.874005 0.832913 1.43118
-0.355462 1.38007 1.45047
0.895663 0.596958 -1.65075
0.375541 0.585 -2.20147
0.899075 0.435778 -1.34113
0.347013 0.260405 -1.38562
0.896446 0.661086 1.76106
0.413103 0.669095 2.2551
0.898508 0.45806 1.3926
0.420145 0.260439 1.37331
0.894869 0.802801 -1.25216
0.420163 1.04274 -1.20768
0.874146 0.832965 1.43118
0.355512 1.3799 1.45047
-0.833644 0.44158 0.0257325
-0.383436 0.261853 -0.00615501
-0.890507 0.620868 -0.95808
-0.870534 0.633884 -0.280947
7.00053e-07 0.260389 -1.04075
8.51189e-07 0.260552 -0.351021
-0.870693 0.636005 0.396187
-0.871351 0.645072 1.07332
6.86759e-07 0.260565 0.338711
4.53408e-07 0.260495 1.02844
-0.859977 0.83881 0.0895075
-0.445577 1.35957 0.121395
5.32927e-06 1.13266 -0.875408
3.77716e-06 1.4326 -0.210873
-2.8799e-06 1.50787 0.453663
-4.65632e-06 1.46297 1.1182
0.83364 0.441581 0.0257325
0.383438 0.261853 -0.00615501
0.890403 0.620873 -0.95808
0.870532 0.633887 -0.280947
0.870689 0.636001 0.396187
0.87135 0.645067 1.07332
0.859974 0.838814 0.0895075
0.445575 1.35956 0.121395
-0.897166 0.430388 -1.69061
-0.898048 0.441813 -0.999416
-0.852696 0.810315 -0.916744
-0.877296 0.773916 -1.59534
0.897162 0.430389 -1.69062
0.877349 0.7739 -1.59535
0.852697 0.810305 -0.916744
0.89805 0.441815 -0.999416
-0.337256 0.260426 -1.73134
0.337257 0.260425 -1.73134
0.356122 0.260411 -1.04075
-0.35612 0.260411 -1.04075
-0.406346 1.02899 -1.55052
-0.412605 1.07116 -0.875408
0.412597 1.07117 -0.875408
0.406331 1.02899 -1.55052
-0.351515 0.424141 -2.19434
-0.384015 0.755575 -2.124
0.38402 0.755575 -2.12239
0.35152 0.424141 -2.19437
-0.832292 0.437094 -0.315984
-0.835002 0.446046 0.367449
-0.862767 0.845762 0.424925
-0.857272 0.831884 -0.24591
0.832292 0.437094 -0.315984
0.857271 0.831889 -0.24591
0.862762 0.84576 0.424925
0.834997 0.446046 0.367449
-0.374305 0.261818 -0.351021
0.374306 0.261818 -0.351021
0.392576 0.261888 0.338711
-0.392575 0.261888 0.338711
-0.454281 1.31816 -0.210873
-0.441612 1.37253 0.453663
0.441604 1.37252 0.453663
0.454274 1.31813 -0.210873
-0.837586 0.454098 1.05088
-0.898696 0.462555 1.73962
-0.873194 0.852028 1.77189
-0.87297 0.828454 1.09576
0.837581 0.454095 1.05088
0.872944 0.828475 1.09576
0.873023 0.852054 1.77189
0.898696 0.462554 1.73962
-0.410938 0.2605 1.02844
0.410939 0.2605 1.02844
0.428822 0.260442 1.71902
-0.428822 0.260443 1.71902
-0.364099 1.42511 1.1182
-0.361481 1.03043 1.77472
0.361506 1.03041 1.77472
0.364118 1.42511 1.1182
-0.425302 0.466206 2.1346
0.425302 0.466206 2.1346
0.390302 0.86313 2.25914
-0.390302 0.86313 2.25916
-0.64724 0.345 -2.02595
-0.49125 0.261603 -2.07875
-0.66622 0.262947 -1.90292
-0.867662 0.366024 2.0797
-0.65625 0.261062 2.06698
-0.867737 0.263096 1.89061
-0.780624 0.825 -1.90948
-0.58875 0.920684 -1.88789
-0.811144 0.940235 -1.70608
-0.756676 0.972166 2.11268
-0.55125 1.07302 2.11483
-0.743975 1.07307 1.94887
0.49125 0.261589 -2.07876
0.64724 0.345 -2.02595
0.666219 0.262948 -1.90292
0.65625 0.262371 2.06567
0.867654 0.366024 2.07969
0.867738 0.263095 1.89061
0.58875 0.920669 -1.88788
0.780535 0.825 -1.90939
0.811203 0.940294 -1.70608
0.55125 1.07302 2.11483
0.756706 0.972166 2.11271
0.743974 1.07307 1.94887
-0.721385 0.262781 -0.86832
-0.739522 0.262978 -0.523454
-0.82705 0.324566 -0.676793
-0.547842 0.262276 -0.695887
-0.812665 0.263169 0.85601
-0.794319 0.263181 0.511144
-0.818516 0.357556 0.696371
-0.602588 0.262563 0.683577
-0.817975 1.00161 -0.709274
-0.840389 0.917908 -0.562233
-0.802026 1.00385 -0.377006
-0.585719 1.03817 -0.54314
-0.737115 1.01167 0.952064
-0.818493 0.938311 0.773136
-0.752912 1.00928 0.619796
-0.554032 1.12316 0.78593
0.721387 0.26278 -0.86832
0.547844 0.262275 -0.695887
0.739524 0.262976 -0.523454
0.827045 0.324569 -0.676793
0.812666 0.263168 0.85601
0.602589 0.262563 0.683577
0.794321 0.263179 0.511144
0.818512 0.357555 0.696371
0.81798 1.00162 -0.709274
0.585722 1.03816 -0.54314
0.840382 0.917911 -0.562233
0.802033 1.00385 -0.377006
0.737113 1.01166 0.952064
[...]
POINT_DATA 3682
SCALARS point_scalars float 1
LOOKUP_TABLE default
-88.5477
-54.3087
-57.5599
-52.9605
-88.0475
-54.5238
-60.3484
-53.3626
-37.1033
-28.8668
-44.0591
-46.0218
-37.1045
-28.8661
-44.0457
-45.9761
-30.6603
-119.995
-52.592
-28.5511
-52.1686
-54.2881
-37.5495
-30.6603
-99.9359
-51.1022
-30.1212
-51.9708
-39.7152
-38.1451
77.9714
-91.3983
-40.2248
-38.0355
-51.8835
-39.4345
-39.0432
-56.105
-66.927
-47.2218
-57.5368
-55.9123
-49.5627
-39.6618
58.5613
-176.965
-38.9366
-28.6685
-45.2592
-40.5313
-37.5495
58.5613
-37.5495
-37.8286
165.961
-38.9453
-38.5481
-26.9145
-60.7248
-72.8672
-57.5368
-52.0334
-43.0421
-39.6618
58.4231
-176.435
-39.6577
-28.6726
-45.6494
-37.9675
-37.9675
58.4231
-37.3141
-37.735
156.622
-38.5228
-38.5228
-27.1548
-60.7297
-72.8729
-57.5222
-48.8107
-40.5347
-39.5965
-30.0899
-119.811
-52.612
-29.0175
-52.431
-54.5206
-37.5294
-30.0899
-101.073
-51.2308
-30.1161
-52.0992
-39.1481
-38.0989
78.1635
-91.6709
-40.2536
-38.0299
-51.9413
-39.3978
-39.0009
-59.0911
-66.9424
-47.2207
-57.5222
-55.865
-49.4455
-39.632
-15.1327
-156.425
-59.1131
-44.9823
-35.2866
-34.9688
-69.7687
-58.9178
-40.331
-44.6154
-14.9841
-59.1561
-44.9603
-34.9911
-58.5533
-44.628
-30.2937
-37.7242
-37.4099
-32.8748
-30.2984
-48.1168
-4.54604
-64.1183
-30.2906
-37.7122
-32.8746
-48.0692
-66.7906
-66.7816
-59.1065
-25.5256
198.589
-34.424
-34.4188
-30.8611
-70.3847
-40.3706
-40.3839
-32.7032
-51.5971
-31.1056
7.76777
-167.516
-91.12
-46.7647
-40.0124
-37.8003
-44.7518
-77.529
-67.04
-46.3821
-41.2273
-44.0134
-171.636
8.23789
-91.2612
-39.9906
-46.834
-37.863
-77.6897
-45.3236
-67.0361
-41.2291
-46.3463
-44.0131
-43.8966
-32.1842
-37.511
-37.265
-25.7816
-29.6325
-30.1601
-29.816
-42.261
-38.6769
-48.2196
-48.905
-46.5684
-37.7374
-48.0468
-53.175
-43.9021
-37.2782
-32.1795
-37.5028
-25.7821
-29.8243
-29.629
-30.1574
-42.2412
-48.8959
-38.6739
-48.2194
-46.5513
-53.1731
-37.7372
-48.0429
-110.185
172.662
-83.3538
190.428
-68.0239
-59.0698
-46.0942
-35.1845
-34.0345
-28.2411
-40.2249
-33.0035
-56.3763
155.743
-65.3208
-35.9685
-42.7606
-36.8259
-37.9113
-53.7189
-110.197
172.59
-68.0053
-59.1376
-46.1241
-35.1573
-40.2481
-33.0326
-65.3257
-35.991
-37.9266
-53.8865
-32.061
-30.6585
-49.7153
-35.076
-45.4569
-33.0024
-33.8873
-32.8155
-30.1095
-31.2745
-38.3528
-60.3416
11.1599
-71.839
-67.8447
-58.6459
-32.053
-30.6661
-49.6719
-35.0682
-33.8844
-32.8186
-38.3518
-60.3439
-131.605
-50.9473
-43.7405
-84.6769
-131.07
-84.5889
-44.0092
-50.9234
-85.8874
-86.0722
-45.3116
-45.1704
-58.736
-20.4862
-20.5038
-58.7701
121.035
122.257
122.513
120.233
-32.9386
-31.5374
-38.305
-38.5314
-32.926
-38.527
-38.3065
-31.5325
-32.7978
-32.8075
-29.8731
-29.8662
-67.8066
-56.1691
-56.1702
-67.7521
-24.5274
-43.7822
-49.5827
-36.767
-24.523
-36.7988
-49.5727
-43.8255
-31.0953
-31.1372
-35.3006
-35.2493
-56.262
-44.3265
-44.3251
-56.2508
-32.6487
-32.5718
-38.0971
-38.1187
31.1783
-182.128
-127.949
-50.384
-45.1808
-40.9752
-43.7442
-69.337
-79.8403
-49.0683
-43.6636
-48.3604
-130.406
31.8
-128.086
-44.8849
-50.5636
-41.0997
-69.2971
-43.7125
-79.8866
-43.6397
-49.005
-48.3653
-40.3238
-35.2985
-38.7083
-37.0832
-26.6764
-29.0552
-30.0522
-29.3542
-42.1202
-40.9859
-46.9215
-48.2499
-46.5415
-43.4001
-46.7543
-48.1805
-40.3266
-37.1048
-35.2989
-38.7001
-26.6744
-29.3643
-29.0526
-30.048
-42.0899
-48.2247
-40.9708
-46.9187
-46.5898
-48.1699
-43.3662
-46.8256
-3.03803
-33.125
-71.3795
143.644
-152.69
-152.6
-106.789
104.893
-71.6316
-50.3969
-66.9
-59.2973
-45.1064
-45.1626
-51.3658
-36.8354
-36.9348
-36.8885
-34.3498
-29.1289
-36.1096
-33.4294
-39.649
-33.4463
-78.4803
-78.513
-72.1778
-29.0257
-61.7531
-48.2154
-63.7888
-44.849
-40.5498
-40.555
-42.2396
-38.3083
-42.6346
-47.1574
-39.3448
-46.0507
-2.68511
-33.2632
-71.6101
143.832
-71.7044
-50.4191
-66.8789
-59.1691
-45.125
-45.1334
-51.3942
-36.7514
-36.1448
-33.4511
-39.6722
-33.4636
-61.7176
-48.2208
-63.8313
-44.8501
-42.6531
-47.1524
-39.3692
-46.0537
-30.8746
-29.9011
-31.6388
-30.4489
-37.5418
-37.8611
-41.7905
-35.8764
-37.3351
-37.3362
-40.88
-34.8502
-31.4514
-34.7685
-33.426
-32.3074
-30.2129
-30.2155
-30.0927
-30.7015
-48.4953
-48.088
-42.596
-52.3072
-6.38932
-6.39502
19.6908
-72.033
-62.3195
-62.3197
-66.1169
-61.3677
-30.871
-29.8976
-31.6282
-30.4578
-37.5277
-37.8579
-41.8028
-35.867
-31.4496
-34.7706
-33.4242
-32.3097
-48.4952
-48.1283
-42.5491
-52.3276
-84.0508
-67.7741
-65.8245
-56.4382
-84.0316
-67.7598
-65.8231
-56.4311
-69.1787
-58.8732
-58.8899
-51.3959
-43.8737
-28.1572
-28.158
-10.9948
195.858
205.369
166.373
195.912
-33.1339
-34.6698
-34.2305
-36.1275
-33.1273
-34.6632
-34.2269
-36.1238
-30.8111
-31.7138
-30.3539
-30.8124
-67.9623
-70.1532
-69.0658
-67.9705
-42.7874
-40.3963
-38.7639
-34.8743
-42.8133
-40.4168
-38.7754
-34.8935
-33.424
-32.7618
-32.7665
-31.9655
-45.8907
-51.9654
-51.9612
-55.1009
-32.492
-28.8045
-37.9064
-32.4487
-41.4448
142.601
-115.271
19.0659
-122.124
-87.8708
-47.6374
-36.8357
-36.6992
-34.181
-42.4923
-36.3742
-89.1863
90.8287
-72.7173
8.66855
-74.5297
-61.87
-51.0531
-38.5187
-43.1869
-39.1901
-47.0424
-45.8009
-115.438
19.1161
-42.396
142.274
-121.776
-88.2592
-36.686
-34.1503
-47.6967
-36.8079
-42.5421
-36.4205
-72.7618
9.03186
-89.5468
90.8805
-74.5016
-61.8948
-43.1869
-39.1781
-51.0819
-38.4917
-47.0634
-45.7992
-49.0824
-44.8063
-32.4321
-32.5725
-47.0108
-34.4175
-40.6802
-34.6407
-22.117
-30.8249
-31.3952
-29.6255
-31.0235
-28.3363
-29.778
-30.428
-43.2154
-35.1204
-40.3912
-38.6129
-42.3604
-55.6401
-24.5518
-75.7082
-40.1374
-48.2678
-37.8239
-37.2202
-44.4834
-50.3076
-54.6328
-59.7587
-49.0603
-44.8523
-40.6965
-34.6521
-32.4163
-32.5867
-47.0466
-34.4034
-22.1069
-30.8362
-29.785
-30.4298
-31.3878
-29.6338
-31.02
-28.2565
-43.2647
-35.1246
-24.5112
-75.7283
-40.1325
-38.6079
-42.3586
-55.6378
-40.1458
-48.2594
-54.6266
-59.7507
-37.8194
-37.2268
-44.4781
-50.3046
-122.748
-98.2188
163.989
163.582
-83.3127
-83.3513
195.339
195.389
-87.9442
-56.5605
-69.7638
-51.198
-44.8986
-48.2165
-33.0894
-37.3097
-34.4028
-34.4094
-30.0549
-30.0124
-37.1836
-41.555
-32.0372
-34.0711
-56.8702
-56.8882
154.106
154.16
-54.7455
-76.4228
-51.0064
-25.5585
-43.0363
-43.0377
-36.9166
-36.9301
-43.611
-37.8388
-53.4573
-47.3408
-122.615
-98.2135
163.884
163.869
-87.9008
-56.546
-69.8765
-51.2097
-48.245
-44.9354
-33.0217
-37.2792
-37.1969
-41.5865
-32.0474
-34.1279
-76.4257
-54.7608
-25.5527
-51.023
-37.8481
-43.6649
-47.3744
-53.4426
-32.3325
-31.8344
-31.505
-30.1455
-51.181
-46.7325
-33.8881
-36.4845
-45.3094
-45.3061
-32.9455
-32.9468
-32.6295
-35.6553
-29.6614
-34.826
-30.05
-30.0482
-31.2476
-31.2513
-38.2568
-38.4827
-62.9353
-58.308
3.64473
3.72854
-71.4194
-71.4243
-65.2282
-65.2303
-57.9506
-57.9522
-32.3223
-31.8282
-31.5135
-30.1526
-46.6909
-51.1588
-33.8776
-36.4795
-35.6539
-32.6254
-29.6601
-34.8393
-38.4775
-38.2591
-58.3139
-62.9533
-52.7795
-85.6406
-86.7605
-55.0809
-51.6985
-43.6071
-56.7124
-55.3811
-41.1511
-52.889
-56.123
-40.5082
-90.9816
-85.431
-81.1351
-68.3923
-53.4487
-56.035
-86.7304
-85.6077
-91.1174
-68.3799
-81.1257
-85.4646
-41.073
-40.4753
-56.1245
-52.9044
-51.7137
-55.3631
-56.7005
-43.636
-123.04
-106.907
-68.9128
-70.4337
-124.266
-70.6397
-68.9416
-106.913
-40.4829
-40.9478
-51.2443
-50.9033
-40.4529
-50.8302
-51.2359
-40.9465
-76.7698
-55.0178
-45.5575
-72.8461
-41.3944
13.6312
-15.7855
-36.7024
-41.3412
-36.6988
-15.7819
13.6682
-76.8362
-72.8749
-45.5674
-55.0356
136.17
139.169
200.574
104.158
17.5462
-21.9313
164.31
130.561
18.1603
130.633
164.411
-21.6485
136.216
104.223
200.643
139.321
-35.1582
-31.919
-33.393
-34.9848
-30.7372
-32.1477
-32.9344
-31.4253
-43.2504
-41.2785
-35.9223
-35.1915
-41.6777
-36.8854
-36.301
-42.3951
-35.1431
-34.9719
-33.3847
-31.9058
-41.6699
-42.3874
-36.2956
-36.8797
-43.215
-35.1907
-35.9209
-41.3466
-30.732
-31.4169
-32.9293
-32.1446
-34.504
-34.7423
-31.6604
-31.2563
-34.5659
-31.2866
-31.6617
-34.7433
-29.4527
-30.0195
-30.3047
-29.966
-29.4444
-29.947
-30.3032
-30.0174
-55.1942
-53.754
-69.1202
-76.4483
-48.8323
-63.7624
-66.6465
-51.3347
-48.8198
-51.3163
-66.6499
-63.7526
-55.1975
-76.3583
-69.1276
-53.7596
-27.9194
-36.3409
-35.9907
-30.3856
-46.7632
-49.1339
-42.2679
-40.688
-50.2619
-41.0193
-43.2698
-51.8291
-42.7297
-34.4267
-35.5964
-39.1118
-27.9142
-30.3847
-36.004
-36.3604
-42.827
-39.0208
-35.6064
-34.4336
-50.2932
-51.8519
-43.2939
-41.0604
-46.8436
-40.7209
-42.2964
-49.1929
-29.5609
-30.6378
-31.9878
-32.1557
-29.5726
-32.1689
-31.9921
-30.6408
-39.1344
-35.0197
-33.6083
-34.7789
-38.8452
-34.7527
-33.6057
-35.0513
-49.233
-47.5179
-54.714
-60.7395
-44.5271
-42.5877
-46.2055
-46.8189
-44.5206
-46.8199
-46.2043
-42.5873
-49.2228
-60.7343
-54.7223
-47.513
-38.2498
-31.0389
-30.4048
-36.4919
-37.2045
-36.4461
-30.41
-30.9783
-39.5512
-38.6628
-37.8172
-37.833
-39.5799
-37.8736
-37.8295
-38.6726
6.60994
-65.2129
-179.846
-53.8164
-48.5873
-45.1458
-49.1177
-56.1873
-101.12
-51.2294
-46.893
-48.2939
-60.3882
7.32484
-179.939
-48.9269
-54.0326
-45.3236
-56.2665
-49.6358
-101.248
-46.8335
-51.3378
-48.247
-39.3467
-36.0534
-36.8653
-37.1038
-27.555
-28.0604
-29.5249
-29.0211
-42.7527
-42.7255
-45.5851
-46.7955
-46.4741
-43.6873
-46.5655
-47.4111
-39.3525
-37.118
-36.0394
-36.8513
-27.5529
-29.0285
-28.0583
-29.5197
-42.729
-46.7927
-42.709
-45.5795
-46.4921
-47.3987
-43.6537
-46.6008
-15.029
-26.5434
-55.6236
85.885
-157.055
-157.021
-127.165
-29.0279
-64.8237
-54.3185
-64.907
-58.7151
-44.8924
-45.1106
-50.3446
-37.9702
-35.6781
-35.6744
-34.229
-31.8638
-35.292
-34.4972
-37.8642
-33.8616
-74.5916
-74.5603
-75.5306
-45.9431
-56.1927
-54.6753
-63.7958
-50.7078
-40.3697
-40.3729
-41.6829
-39.3683
-43.3074
-46.426
-40.9807
-46.3678
-14.7038
-26.5507
-55.8941
87.4346
-64.8815
-54.3501
-64.8997
-58.815
-44.8815
-45.0834
-50.3459
-37.9318
-35.3195
-34.5142
-37.887
-33.8806
-56.2334
-54.6602
-63.879
-50.7096
-43.3338
-46.4225
-41.0123
-46.367
-30.3618
-29.9661
-30.9845
-30.3416
-37.5901
-37.8032
-39.4347
-36.6277
-37.3822
-37.3822
-39.0196
-36.0378
-32.1755
-33.7608
-33.1309
-32.529
-30.2788
-30.2799
-30.1706
-30.4721
-48.4689
-47.3528
-45.4769
-50.9811
-4.6917
-4.65364
11.2051
-44.136
-63.64
-63.6469
-65.3155
-62.9887
-30.3581
-29.9625
-30.9742
-30.3465
-37.5755
-37.7956
-39.4309
-36.6173
-32.1746
-33.7616
-33.1297
-32.5299
-48.4547
-47.476
-45.3989
-50.9831
-74.4745
-67.4856
-66.2299
-60.9669
-74.4619
-67.474
-66.224
-60.9602
-63.7287
-59.0106
-59.0179
-55.0281
-34.2742
-26.0323
-26.0326
-17.6771
198.786
203.39
187.245
198.832
-33.8171
-34.575
-34.3057
-35.2032
-33.8112
-34.5691
-34.3014
-35.1988
-30.8441
-31.2433
-30.5713
-30.8444
-69.4236
-70.29
-69.3811
-69.437
-41.4649
-40.4233
-40.1627
-37.4537
-41.4867
-40.44
-40.1742
-37.484
-33.0736
-32.7027
-32.7045
-32.3329
-49.6096
-51.4122
-51.4173
-53.1903
-31.4815
-28.273
-35.0328
-31.4562
16.6858
3.20254
-29.2084
113.792
-223.542
-147.61
-150.053
-56.0772
-105.51
-80.3302
-112.188
-88.0992
-48.0626
-45.677
-51.3744
-38.0779
-42.5676
-38.4623
-37.5318
-37.1223
-38.4233
-36.6508
-41.2513
-36.9281
-43.3589
-38.2639
-89.2279
55.0705
-72.1296
-79.4861
-78.2823
-20.7817
-73.6241
-65.5248
-70.686
-62.3442
-47.4855
-45.4436
-51.47
-40.0494
-41.6963
-40.8375
-42.3551
-39.9159
-46.0864
-42.9164
-45.0931
-45.4473
-217.534
-147.4
-150.008
-55.4525
17.1891
3.66022
-27.6103
114.182
-105.674
-80.4301
-112.099
-88.3853
-42.4114
-38.2911
-37.5384
-37.1234
-48.1686
-45.7168
-51.4555
-38.0834
-38.5088
-36.6965
-41.3065
-36.9879
-72.3162
-79.5428
-78.3404
-20.9284
-43.2131
-38.5424
-89.12
54.9756
-73.6681
-65.5056
-70.675
-62.3576
-41.692
-40.8423
-42.3572
-39.9097
-47.4527
-45.4178
-51.443
-40.0132
-46.0911
-42.9249
-45.0601
-45.4504
-42.1643
-46.9256
-46.8957
-44.4246
-33.3381
-31.1823
-32.205
-32.4262
-37.8771
-37.4153
-41.1281
-35.6342
-37.2276
-37.2703
-38.9148
-35.8216
-26.817
-29.4711
-21.5214
-30.3517
-29.2644
-29.4997
-30.2338
-29.5126
-30.0592
-30.5822
-30.6602
-29.3873
-29.5308
-30.0774
-29.792
-30.05
-41.6075
-43.9242
-43.5256
-38.9391
-39.5891
-38.1439
-39.1467
-38.5296
-47.6665
-48.3443
-44.9759
-53.1579
-55.3742
-20.942
-33.1644
-62.621
-46.4157
-47.5651
-40.6644
-47.7695
-40.6499
-36.083
-37.6833
-37.4872
-47.0026
-49.5541
-47.0591
-49.1959
-50.5484
-59.787
-54.0239
-51.4195
-42.1712
-46.9385
-46.8746
-44.4586
-37.2474
-37.2761
-38.9286
-35.8342
-33.3346
-31.1777
-32.1908
-32.4335
-37.8706
-37.4055
-41.1381
-35.6209
-26.8157
-29.4896
-21.505
-30.3634
-29.5418
-30.0824
-29.7998
-30.058
-29.2616
-29.496
-30.2255
-29.5172
-30.056
-30.5794
-30.6573
-29.3845
-41.5704
-43.9216
-43.511
-38.9247
-55.3434
-20.9287
-33.1166
-62.5878
-39.3499
-38.1423
-39.1495
-38.5241
-47.6696
-48.3391
-44.9748
-53.1579
-46.3983
-47.5563
-40.8036
-47.7581
-50.5367
-59.7893
-54.0178
-51.4164
-40.6523
-36.086
-37.6794
-37.4954
-47.0167
-49.5295
-47.0584
-49.1871
-100.897
-98.9401
-115.788
-102.902
150.064
194.256
175.68
175.446
-93.4327
-75.5541
-83.2643
-83.279
169.537
201.903
190.159
190.165
-67.754
-67.9824
-76.5864
-61.6474
-59.2299
-58.9016
-63.9611
-55.0017
-48.4779
-44.3392
-45.4515
-46.8252
-36.2177
-33.7536
-34.1872
-36.3799
-34.2385
-33.7483
-34.1458
-34.1501
-28.5656
-28.4019
-28.8016
-28.7781
-39.989
-40.3293
-39.7814
-40.7893
-33.1583
-32.8949
-32.525
-33.598
-63.7351
-51.7114
-56.3247
-56.3304
92.5654
153.104
155.317
155.376
-64.6067
-65.1839
-60.0384
-70.348
-39.8478
-31.6276
-43.2763
-29.6968
-42.2278
-44.0574
-42.8168
-42.8164
-36.8557
-37.5884
-36.8177
-36.8273
-38.4489
-37.8175
-40.1047
-37.8601
-50.4357
-53.2201
-52.5214
-50.8516
-100.906
-98.9088
-115.756
-102.947
150.157
194.263
175.616
175.702
-67.733
-67.9658
-76.5585
-61.6327
-59.505
-58.9344
-64.0506
-54.8766
-48.509
-44.367
-46.8524
-45.4846
-36.1824
-33.7003
-34.1429
-36.3434
-40.0125
-40.3518
-39.8025
-40.8162
-33.1733
-32.9031
-32.5357
-33.6108
-64.6186
-65.1843
-70.335
-60.0554
-39.8705
-31.6264
-29.7081
-43.2713
-38.4605
-37.8301
-37.7928
-40.1482
-50.4472
-53.2317
-50.8406
-52.3136
-31.8538
-32.4162
-32.1855
-31.9539
-30.5338
-30.7378
-31.0388
-30.3667
-45.1146
-52.8792
-50.6892
-48.2247
-35.3664
-34.8243
-34.4794
-35.7325
-42.9972
-48.2529
-45.3822
-45.3811
-33.8439
-32.2927
-32.9712
-32.9711
-33.7216
-34.0579
-33.303
-34.7017
-32.357
-33.8517
-31.395
-33.9568
-30.0772
-30.1969
-30.0813
-30.0807
-30.972
-31.608
-31.268
-31.2697
-39.9382
-37.1858
-38.1597
-38.3742
-55.5842
-65.4503
-61.6694
-59.3331
19.7277
-1.38184
8.66523
8.69537
-73.9075
-69.9894
-71.4789
-71.4929
-67.0512
-68.569
-67.4003
-67.4011
-60.1574
-56.8539
-58.2974
-58.3021
-31.8448
-32.4089
-32.1765
-31.9469
-30.5436
-30.7417
-31.0468
-30.374
-45.0502
-52.8735
-48.1611
-50.6602
-35.3577
-34.8168
-34.4702
-35.7263
-33.719
-34.0547
-34.6995
-33.2996
-32.3603
-33.8456
-31.3954
-33.9643
-39.941
-37.183
-38.3694
-38.1657
-55.5887
-65.4534
-59.335
-61.6714
-93.2417
-128.568
-128.285
-106.614
-50.667
-49.2933
-52.9724
-51.226
-43.0486
-42.082
-49.0892
-45.2862
-87.9099
-79.5452
-91.8324
-81.183
-94.2816
-127.948
-127.977
-106.528
-88.0149
-79.4891
-91.7687
-81.1629
-43.2003
-41.8074
-49.1174
-45.3558
-50.644
-49.2516
-52.9551
-51.2036
-97.9718
-87.3316
-84.1539
-76.8577
-98.1805
-87.6605
-84.2342
-77.0007
-45.1652
-42.8993
-47.9962
-45.1189
-45.1263
-42.7768
-47.9659
-45.226
-65.6487
-61.2869
-57.5274
-55.8244
-31.7794
-21.2054
-22.5697
-6.67739
-31.7755
-21.1838
-22.5606
-6.65299
-65.6785
-61.3122
-57.5572
-55.8238
131.146
63.5775
150.199
187.201
98.7939
65.1641
149.119
142.756
64.3814
99.2743
142.832
149.319
63.0871
130.785
186.393
149.843
-32.7077
-33.5303
-32.5611
-33.2761
-31.3816
-31.313
-31.7028
-31.8734
-38.0195
-40.5358
-36.8586
-38.5931
-38.5428
-39.8327
-37.447
-38.6334
-32.6939
-33.5167
-32.5498
-33.2645
-38.5385
-39.8281
-37.4424
-38.6282
-38.0175
-40.5373
-36.8579
-38.5946
-31.3761
-31.3088
-31.6972
-31.8689
-32.6323
-33.6382
-32.0822
-32.8587
-33.6489
-32.647
-32.8632
-32.091
-29.813
-29.7565
-29.9667
-29.9841
-29.7456
-29.806
-29.9771
-29.9625
-61.24
-73.0254
-65.0668
-71.9988
-52.6218
-54.9392
-57.2241
-61.7809
-54.9375
-52.6204
-61.7845
-57.2289
-72.9841
-61.2302
-72.0029
-65.0884
-22.793
-26.9178
-28.6512
-26.8102
-45.5035
-43.2042
-44.3497
-42.4971
-50.3155
-48.7221
-49.4403
-47.1819
-38.8811
-36.777
-37.5924
-35.6152
-22.7897
-26.9143
-28.6485
-26.8064
-38.9161
-36.7939
-37.6362
-35.6361
-50.3404
-48.7142
-49.4555
-47.204
-45.5557
-43.2504
-44.3896
-42.5339
-31.0155
-30.7344
-31.5664
-31.2156
-31.0263
-30.7542
-31.5721
-31.2114
-35.911
-35.8747
-34.7544
-34.6546
-35.9157
-35.8472
-34.7575
-34.6432
-52.1139
-58.5365
-54.473
-57.7083
-43.768
-45.1934
-43.644
-45.4084
-43.7675
-45.1818
-43.632
-45.4065
-52.0991
-58.5305
-54.4669
-57.6999
-34.9948
-33.5215
-32.5496
-30.8896
-33.4414
-34.9028
-30.8415
-32.4733
-38.4616
-38.1944
-37.6246
-37.7898
-38.2181
-38.4806
-37.8143
-37.6412
-37.55
133.471
-173.795
70.2886
-106.812
-122.887
-52.8497
-39.6416
-40.762
-39.8901
-45.4375
-39.9503
-104.967
15.7737
-80.3149
-19.0104
-89.0922
-79.7126
-53.4558
-41.649
-43.7725
-41.4438
-48.8546
-46.6928
-177.93
32.915
-37.3077
134.43
-107.021
-123.538
-40.9996
-38.3186
-52.9708
-39.8197
-45.5303
-40.1005
-80.369
-19.4717
-105.141
15.771
-89.1669
-79.7348
-43.7622
-41.4158
-53.4338
-41.6125
-48.9411
-46.6781
-40.9022
-40.4575
-37.0956
-34.5543
-46.9844
-36.1754
-38.6217
-35.7217
-27.1434
-28.8151
-29.9453
-29.2391
-30.6474
-29.3306
-29.3801
-29.489
-42.3235
-41.0977
-40.8799
-41.1685
-44.0412
-52.1328
-43.6175
-52.2062
-43.499
-46.7359
-43.4155
-43.101
-44.1558
-48.0187
-48.403
-48.5276
-40.9034
-40.4779
-38.6472
-35.7424
-37.0902
-34.564
-47.0027
-36.1613
-27.1358
-28.8244
-29.3899
-29.4992
-29.9401
-29.2444
-30.6427
-29.3262
-42.2859
-41.0168
-43.5143
-52.2082
-40.8571
-41.1581
-44.0339
-52.1348
-43.4114
-46.726
-48.3932
-48.5152
-43.6389
-43.1224
-44.1957
-48.0039
-42.502
94.1797
-63.0153
75.5083
-62.1547
-81.0953
130.893
146.044
-126.568
-56.0581
-126.539
-56.003
-106.78
-106.78
108.771
108.796
-84.2449
-70.244
-53.7104
-50.4491
-74.8321
-59.8933
-64.2819
-54.3844
-50.1863
-37.8135
-49.7525
-39.0397
-50.2831
-51.9456
-36.4703
-37.4105
-35.5045
-34.0111
-35.4468
-34.2835
-34.5299
-34.5429
-29.6664
-29.6402
-38.9123
-35.1907
-34.4885
-32.4242
-39.5626
-39.6112
-32.8157
-34.0919
-78.0439
-36.1611
-78.072
-35.9796
-72.6714
-72.6827
-38.4829
-38.2073
-66.1544
-57.7607
-51.068
-42.2242
-58.7046
-66.3547
-49.0831
-40.5509
-41.8629
-39.6946
-41.8686
-39.6893
-42.3252
-42.326
-38.2798
-38.2906
-40.0757
-46.049
-41.3852
-47.5113
-39.2885
-38.6548
-46.9409
-45.4624
-42.3113
94.4382
-63.0945
75.6164
-62.6438
-81.1696
146.131
131.008
-84.2336
-70.403
-53.6979
-50.5066
-74.8049
-59.8793
-64.4417
-54.4819
-50.2311
-37.7571
-49.7366
-39.007
-51.9704
-50.3278
-36.4361
-37.3357
-38.9467
-35.2216
-34.5248
-32.4385
-39.5785
-39.6384
-32.8305
-34.1027
-66.0967
-57.774
-51.0816
-42.2228
-66.3742
-58.7008
-40.5499
-49.0916
-40.1152
-46.0457
-41.5964
-47.5033
-38.6723
-39.3243
-45.4781
-46.9329
-31.3946
-31.0829
-30.717
-29.8494
-31.7266
-31.6145
-30.8077
-30.1679
-40.1399
-36.0232
-38.9134
-37.2606
-42.6342
-41.0682
-35.4248
-36.3607
-38.9349
-35.9686
-38.9361
-35.9697
-40.8257
-40.8257
-34.9189
-34.9188
-31.8376
-30.9396
-34.9572
-34.5397
-32.8483
-34.2573
-31.2536
-33.3439
-30.0856
-30.3863
-30.088
-30.3984
-30.0737
-30.0728
-30.6835
-30.6849
-45.3132
-52.2064
-43.8937
-50.1956
-41.875
-42.1971
-52.9266
-51.6861
6.53927
-43.825
6.56572
-43.8041
18.4458
18.47
-75.4858
-75.4237
-63.1498
-61.6489
-63.1464
-61.6403
-65.7712
-65.7483
-61.2594
-61.2561
-31.3824
-31.0889
-30.7085
-29.8539
-31.7147
-31.6047
-30.8182
-30.1841
-40.1817
-36.0093
-38.913
-37.2558
-41.0709
-42.6534
-35.4133
-36.3535
-31.8351
-30.9382
-34.9575
-34.5438
-34.2561
-32.8337
-31.2542
-33.3482
-45.3085
-52.2067
-44.0141
-50.1945
-42.1826
-41.8592
-51.6624
-52.9177
-85.5902
-82.3597
-75.8953
-61.5975
-60.4195
-72.5024
-56.7421
-56.1599
-85.5662
-82.3457
-75.8755
-61.5859
-72.4949
-60.4201
-56.1565
-56.7321
-68.8906
-68.9034
-63.5326
-54.7965
-63.5557
-54.8082
-51.3767
-51.373
-44.1835
-44.1896
-36.4699
-20.6168
-20.6132
-36.4742
-12.9656
-13.1237
199.776