# vtk DataFile Version 2.0
tet_velo
ASCII
DATASET UNSTRUCTURED_GRID
POINTS 29498 float
-0.858849 0.075 -1.925
-0.695 0.095 1.93115
-0.805 0.695 -2.03989
-0.785 0.865 2.06235
0.858849 0.075 -1.925
0.695 0.095 1.93115
0.805 0.695 -2.03989
0.785 0.865 2.06235
-0.774616 0.111283 -0.639617
-0.749994 0.0879555 0.645767
-0.843042 0.796376 -0.672477
-0.833361 0.850028 0.694937
0.774605 0.111295 -0.639617
0.750473 0.0874763 0.645767
0.843056 0.79639 -0.672477
0.83336 0.850027 0.694937
-1.67937 -0.303842 -2.97531
-1.66604 -0.259391 -1.91415
-1.59986 -0.238114 -0.63089
-1.54506 -0.264868 0.635863
-1.49738 -0.271884 1.91774
-1.48655 -0.258752 2.97208
-1.48953 -0.2385 4.03904
-1.67824 0.024819 -3.00327
-1.67109 0.0763743 -1.93315
-1.60175 0.116067 -0.633923
-1.54651 0.102801 0.657917
-1.48659 0.102418 1.95557
-1.47722 0.115924 3.01108
-1.48341 0.135022 4.07536
-1.65679 0.673571 -3.0822
-1.64883 0.722426 -2.01547
-1.6466 0.807582 -0.660327
-1.61274 0.851515 0.70063
-1.55513 0.865544 2.0542
-1.51444 0.876225 3.10632
-1.49999 0.89012 4.15737
-1.62717 1.71391 -3.13892
-1.62349 1.77021 -2.05991
-1.62651 1.86044 -0.678168
-1.62216 1.9381 0.721253
-1.59884 1.9822 2.10214
-1.57002 2.00114 3.17936
-1.54442 2.01534 4.23937
-0.85981 -0.304516 -2.97002
-0.856301 -0.258178 -1.90643
-0.799508 -0.23947 -0.631926
-0.767951 -0.275755 0.625493
-0.735872 -0.280222 1.89961
-0.721927 -0.264962 2.95978
-0.7202 -0.243122 4.03192
-0.857566 0.0205603 -3.00164
-0.70451 0.111047 3.00093
-0.711095 0.131164 4.06999
-0.836088 0.659913 -3.09234
-0.732607 0.874722 3.10795
-0.720436 0.888347 4.15772
-0.806977 1.7035 -3.14895
-0.802081 1.75992 -2.07096
-0.80983 1.85573 -0.684829
-0.817192 1.93901 0.722053
-0.805562 1.98439 2.10784
-0.780939 2.00253 3.18506
-0.757225 2.01591 4.24351
0.805475 -0.304528 -2.97002
0.811687 -0.258185 -1.90643
0.77101 -0.239522 -0.631926
0.744897 -0.276077 0.625493
0.71301 -0.280347 1.89961
0.760039 -0.265058 2.95978
0.795154 -0.243226 4.03192
0.814312 0.0205536 -3.00164
0.773941 0.110983 3.00093
0.805808 0.131072 4.06999
0.809543 0.659909 -3.09235
0.804176 0.874673 3.10795
0.819134 0.888269 4.15772
0.833501 1.70348 -3.14895
0.839929 1.7599 -2.07096
0.832107 1.8557 -0.684829
0.808683 1.93897 0.722052
0.793523 1.98433 2.10784
0.800876 2.00246 3.18506
0.815491 2.01583 4.24351
1.63209 -0.303875 -2.97531
1.63632 -0.259421 -1.91415
1.58179 -0.238241 -0.63089
1.52947 -0.265317 0.635863
1.4879 -0.272196 1.91774
1.51901 -0.258982 2.97208
1.5573 -0.238719 4.03904
1.64512 0.0247983 -3.00327
1.66728 0.0763649 -1.93315
1.60217 0.116002 -0.633924
1.54576 0.102333 0.657917
1.49158 0.10215 1.95557
1.52893 0.115732 3.01108
1.56691 0.134823 4.07536
1.64274 0.673555 -3.0822
1.65601 0.722422 -2.01547
1.65354 0.80757 -0.660327
1.61431 0.851349 0.70063
1.56172 0.86537 2.0542
1.56906 0.876074 3.10632
1.58795 0.889947 4.15737
1.65252 1.71387 -3.13892
1.65776 1.77017 -2.05991
1.64829 1.86038 -0.678168
1.61982 1.938 0.721253
1.59522 1.98207 2.10214
1.59362 2.001 3.17936
1.60269 2.01518 4.23937
-0.838399 0.385 -1.98892
0 0.0715105 -1.92849
-0.812994 0.0968799 -1.28231
-0.812806 0.48 2.06956
0 0.072819 1.95333
-0.720252 0.0937229 1.28846
0 0.722533 -2.06742
-0.842336 0.764002 -1.35618
0 0.864568 2.06192
-0.820357 0.86869 1.37864
0.838425 0.385 -1.98895
0.813511 0.0963635 -1.28231
0.812815 0.48 2.06957
0.720192 0.0937828 1.28846
0.842327 0.763993 -1.35618
0.820388 0.868721 1.37864
-0.763011 0.0989136 0.003075
-0.846538 0.453829 -0.656047
-5.7267e-06 0.0722166 -0.639617
-0.845247 0.468992 0.670352
0.000239625 0.0721471 0.645767
-0.842598 0.827598 0.01123
7.03326e-06 1.03595 -0.672477
-7.07277e-07 1.16785 0.694937
0.763016 0.098909 0.003075
0.844417 0.453842 -0.656047
0.845253 0.468751 0.670352
0.842602 0.827602 0.01123
-0.898086 0.419415 -1.31925
-0.844394 0.461411 0.0071525
-0.897816 0.474496 1.33355
-2.86335e-06 0.0705805 -1.28231
0.000116949 0.0722175 0.003075
0.000119813 0.0706042 1.28846
0 0.385 -2.15065
0 0.48 2.14827
3.51663e-06 0.880561 -1.35618
3.16299e-06 1.19326 0.01123
-3.53638e-07 1.03123 1.37864
0.898087 0.419421 -1.31925
0.844399 0.461297 0.0071525
0.897817 0.474376 1.33355
-1.26497 0.0756872 -1.92907
-0.857575 -0.091589 -1.91572
-0.858207 0.0477801 -2.46332
-1.09079 0.0987088 1.94336
-0.715436 -0.0926112 1.91538
-0.699755 0.103023 2.46604
-1.22691 0.708713 -2.02768
-0.820544 0.677457 -2.56612
-0.803541 1.22746 -2.05542
-1.17007 0.865272 2.05828
-0.758803 0.869861 2.58515
-0.795281 1.42469 2.0851
0.835268 -0.0915925 -1.91572
0.836581 0.0477768 -2.46332
1.26306 0.0756825 -1.92907
0.704005 -0.0926734 1.91538
0.73447 0.102991 2.46604
1.09329 0.098575 1.94336
0.807272 0.677454 -2.56612
0.822465 1.22745 -2.05542
1.23051 0.708711 -2.02768
0.794588 0.869837 2.58515
0.789262 1.42466 2.0851
1.17336 0.865185 2.05828
-1.18818 0.113675 -0.63677
-0.787062 -0.0640934 -0.635771
-1.14825 0.0953783 0.651842
-0.758972 -0.0938999 0.63563
-1.24482 0.801979 -0.666402
-0.826436 1.32605 -0.678653
-1.22305 0.850771 0.697783
-0.825277 1.39452 0.708495
0.772808 -0.0641135 -0.635771
1.18839 0.113648 -0.63677
0.747685 -0.0943006 0.63563
1.14812 0.0949046 0.651842
0.837582 1.32605 -0.678653
1.2483 0.80198 -0.666402
0.821021 1.3945 0.708495
1.22383 0.850688 0.697783
-1.67271 -0.281616 -2.44473
-1.67881 -0.139511 -2.98929
-1.26959 -0.304179 -2.97267
-1.63295 -0.248752 -1.27252
-1.66857 -0.0915082 -1.92365
-1.26117 -0.258784 -1.91029
-1.57246 -0.251491 0.00248629
-1.6008 -0.0610236 -0.632407
-1.19968 -0.238792 -0.631408
-1.52122 -0.268376 1.2768
-1.54579 -0.0810334 0.64689
-1.15651 -0.270312 0.630678
-1.49197 -0.265318 2.44491
-1.49198 -0.0847331 1.93665
-1.11663 -0.276053 1.90867
-1.48804 -0.248626 3.50556
-1.48189 -0.0714144 2.99158
-1.10424 -0.261857 2.96593
-1.48647 -0.0517389 4.0572
-1.10486 -0.240811 4.03548
-1.67467 0.0505967 -2.46821
-1.66752 0.349195 -3.04274
-1.2679 0.0226897 -3.00245
-1.63642 0.0962207 -1.28354
-1.65996 0.3994 -1.97431
-1.57413 0.109434 0.0119967
-1.62418 0.461825 -0.647125
-1.51655 0.102609 1.30674
-1.57963 0.477158 0.679273
-1.4819 0.109171 2.48332
-1.52086 0.483981 2.00489
-1.48032 0.125473 3.54322
-1.49583 0.496074 3.0587
-1.09087 0.113485 3.006
-1.4917 0.512571 4.11636
-1.09725 0.133093 4.07267
-1.65281 0.697998 -2.54884
-1.64198 1.19374 -3.11056
-1.24644 0.666742 -3.08727
-1.64772 0.765004 -1.3379
-1.63616 1.24632 -2.03769
-1.62967 0.829548 0.0201517
-1.63655 1.33401 -0.669247
-1.58394 0.858529 1.37742
-1.61745 1.39481 0.710942
-1.53478 0.870885 2.58026
-1.57699 1.42387 2.07817
-1.50721 0.883173 3.63184
-1.54223 1.43868 3.14284
-1.12352 0.875474 3.10713
-1.5222 1.45273 4.19837
-1.11021 0.889234 4.15755
-1.62533 1.74206 -2.59942
-1.21707 1.7087 -3.14394
-1.625 1.81532 -1.36904
-1.21279 1.76506 -2.06543
-1.62433 1.89927 0.0215426
-1.21817 1.85808 -0.681499
-1.6105 1.96015 1.4117
-1.21967 1.93856 0.721653
-1.58443 1.99167 2.64075
-1.2022 1.9833 2.10499
-1.55722 2.00824 3.70937
-1.17548 2.00184 3.18221
-1.15082 2.01563 4.24144
-0.858056 -0.281347 -2.43823
-0.858688 -0.141978 -2.98583
-0.0271677 -0.304522 -2.97002
-0.827904 -0.248824 -1.26918
-0.0223072 -0.258182 -1.90643
-0.783729 -0.257613 -0.00321658
-0.0142487 -0.239496 -0.631926
-0.751911 -0.277989 1.26255
-0.0115269 -0.275916 0.625493
-0.728899 -0.272592 2.42969
-0.0114311 -0.280285 1.89961
-0.721064 -0.254042 3.49585
-0.713218 -0.0769573 2.98036
0.0190561 -0.26501 2.95978
-0.715648 -0.055979 4.05095
0.0374766 -0.243174 4.03192
-0.846827 0.340237 -3.04699
-0.0216268 0.0205569 -3.00164
-0.707803 0.121105 3.53546
-0.718558 0.492884 3.05444
0.0347153 0.111015 3.00093
-0.715766 0.509755 4.11385
0.0473564 0.131118 4.06999
-0.821533 1.18171 -3.12065
-0.0132724 0.659911 -3.09234
-0.726521 0.881535 3.63283
-0.756773 1.43863 3.1465
0.0357846 0.874698 3.10795
-0.73883 1.45213 4.20062
0.0493491 0.888308 4.15772
-0.804529 1.73171 -2.60996
0.013262 1.70349 -3.14895
-0.805956 1.80782 -1.37789
0.0189239 1.75991 -2.07096
-0.813511 1.89737 0.0186116
0.0111388 1.85571 -0.684829
-0.811377 1.9617 1.41495
-0.00425464 1.93899 0.722052
-0.79325 1.99346 2.64645
-0.00601912 1.98436 2.10784
-0.769082 2.00922 3.71429
0.0099684 2.0025 3.18506
0.0291332 2.01587 4.24351
0.808581 -0.281357 -2.43823
0.809894 -0.141987 -2.98583
1.21878 -0.304201 -2.97267
0.791349 -0.248853 -1.26918
1.224 -0.258803 -1.91029
0.757954 -0.257799 -0.0032166
1.1764 -0.238882 -0.631408
0.728953 -0.278212 1.26255
1.13719 -0.270697 0.630678
0.736524 -0.272702 2.42969
1.10045 -0.276271 1.90867
0.777596 -0.254142 3.49585
0.76699 -0.0770377 2.98036
1.13952 -0.26202 2.96593
0.800481 -0.0560769 4.05095
1.17623 -0.240972 4.03548
0.811928 0.340231 -3.04699
1.22972 0.0226759 -3.00245
0.789874 0.121027 3.53546
0.789058 0.492828 3.05444
1.15143 0.113357 3.006
0.812471 0.50967 4.11385
1.18636 0.132947 4.07267
0.821522 1.18169 -3.12065
1.22614 0.666732 -3.08727
0.811655 0.881471 3.63283
0.802526 1.43857 3.1465
1.18662 0.875374 3.10713
0.817313 1.45205 4.20062
1.20354 0.889108 4.15755
0.836715 1.73169 -2.60996
1.24301 1.70867 -3.14394
0.836018 1.8078 -1.37789
1.24885 1.76503 -2.06543
0.820395 1.89734 0.0186115
1.2402 1.85804 -0.681499
0.801103 1.96165 1.41495
1.21425 1.93849 0.721653
0.7972 1.9934 2.64645
1.19437 1.9832 2.10499
0.808184 2.00915 3.71429
1.19725 2.00173 3.18221
1.20909 2.01551 4.24144
1.63421 -0.281648 -2.44473
1.63861 -0.139538 -2.98929
1.60906 -0.248831 -1.27252
1.6518 -0.0915278 -1.92365
1.55563 -0.251779 0.00248625
1.59198 -0.06112 -0.632407
1.50869 -0.268756 1.2768
1.53762 -0.0814919 0.64689
1.50345 -0.265589 2.44491
1.48974 -0.0850228 1.93665
1.53815 -0.248851 3.50556
1.52397 -0.071625 2.99158
1.5621 -0.0519481 4.0572
1.6562 0.0505816 -2.46821
1.64393 0.349176 -3.04273
1.63472 0.0961832 -1.28354
1.66164 0.399394 -1.97431
1.57397 0.109167 0.0119966
1.62786 0.461786 -0.647125
1.51867 0.102242 1.30674
1.58003 0.476841 0.679273
1.51025 0.108941 2.48332
1.52665 0.48376 2.00489
1.54792 0.125277 3.54322
1.54899 0.495903 3.0587
1.57743 0.512385 4.11636
1.64938 0.697989 -2.54884
1.64763 1.19371 -3.11056
1.65478 0.764996 -1.3379
[...]
POINT_DATA 29498
VECTORS point_vectors float
-5.84641 -4.55563 22.285
-0.0154603 0.444607 2.54509
-3.66729 2.27447 6.4558
0.171705 -0.224825 1.20025
5.85589 -4.55081 22.2817
0.0101861 0.449886 2.58231
3.66483 2.26814 6.45786
-0.169292 -0.231598 1.21216
0.0199535 -0.00533578 0.258469
0.0204561 -0.00839903 0.828425
-0.00519482 -0.000933953 0.211967
0.0489127 0.10065 0.305188
-0.0198369 -0.00521944 0.257746
-0.0205108 -0.00906803 0.873635
0.00523662 -0.000783068 0.212866
-0.0488264 0.100521 0.305211
-0.678161 -0.246615 19.9619
-1.11342 -0.495304 20.6756
-0.453655 -0.170033 21.347
-0.0336773 0.0693061 21.4615
0.340155 0.321362 21.4227
0.557364 0.44517 21.2219
0.497348 0.395504 20.8003
-0.79767 -0.157874 19.8644
-1.44089 -0.362864 20.659
-0.567271 -0.17495 21.4041
-0.0382516 0.0097157 21.5231
0.553779 0.304728 21.4955
0.909562 0.414149 21.1777
0.710762 0.258352 20.4832
-0.775248 0.124426 19.7862
-1.6392 0.239718 20.5173
-0.813508 -0.0957819 21.3819
-0.074022 -0.0824051 21.6085
0.699611 -0.131053 21.4796
1.05471 -0.174324 21.0561
0.863696 -0.2702 20.6801
-0.451789 0.359117 20.0091
-0.774665 0.587252 20.4436
-0.643817 0.388743 21.1124
-0.146328 0.0233067 21.4246
0.237111 -0.263238 21.2767
0.385666 -0.337186 21.1088
0.402924 -0.391442 20.78
-0.837241 -0.800019 19.2342
-2.12785 -2.44391 21.2142
-0.591979 -0.153768 21.9128
-0.175534 0.134462 21.3349
-0.0186445 0.669005 20.9306
0.257389 0.990985 20.5021
0.390012 1.06029 19.9227
-1.03215 -0.581408 18.8411
0.248413 1.34463 10.4124
0.938898 1.39362 13.1701
-0.967942 0.321104 18.7541
1.7691 -0.351563 9.79369
1.7596 -0.772159 13.7776
-0.403281 0.662449 19.6878
-0.840977 1.43283 20.208
-0.871954 1.22223 21.2622
-0.182321 0.125255 21.8045
0.209763 -0.528977 21.4007
0.302511 -0.717972 21.0682
0.271153 -0.550891 20.7045
0.824429 -0.834001 19.1909
2.14875 -2.62246 21.2688
0.606915 -0.146945 21.8085
0.186865 0.130734 21.3128
0.036318 0.67256 20.7533
-0.298596 0.997028 20.8428
-0.572201 0.944481 20.9355
1.02459 -0.602097 18.7813
-0.589423 1.43176 12.8044
-1.20146 1.21474 14.9292
0.969575 0.322753 18.7072
-1.8143 -0.287373 11.4855
-1.69115 -0.505685 15.3705
0.413378 0.650446 19.7026
0.851792 1.39122 20.2187
0.88029 1.19394 21.2614
0.183078 0.125718 21.8083
-0.204589 -0.535966 21.4026
-0.303513 -0.704921 21.059
-0.284918 -0.523091 20.6555
0.70374 -0.260409 19.9354
1.15551 -0.515535 20.6829
0.477676 -0.179784 21.3501
0.0284343 0.0701906 21.4797
-0.348196 0.3364 21.4288
-0.557024 0.43103 21.2041
-0.513648 0.32163 20.7827
0.814503 -0.163985 19.8402
1.43877 -0.369124 20.6636
0.566632 -0.179994 21.4071
0.0328803 0.00736896 21.5304
-0.551994 0.301887 21.4985
-0.845953 0.415223 21.1894
-0.625396 0.181659 20.573
0.782105 0.133125 19.7752
1.62282 0.236831 20.5212
0.808889 -0.0938182 21.3828
0.0729876 -0.0827258 21.6111
-0.699171 -0.133434 21.4821
-1.0019 -0.171206 20.9286
-0.79199 -0.256406 20.6744
0.448702 0.35471 20.0179
0.755589 0.564406 20.4538
0.62907 0.37669 21.1082
0.146757 0.0220209 21.4266
-0.237789 -0.26677 21.2778
-0.381375 -0.337804 21.0991
-0.39819 -0.381524 20.7547
-0.668197 -0.117822 0.984797
-0.00142595 -0.425832 1.10288
0.0654296 -0.527817 5.00946
0.0987574 0.053034 0.443634
0.0179753 0.0557904 0.304818
-0.00646422 0.00361318 0.374712
0.000659937 0.710264 0.495454
-0.0781457 -0.0858808 0.413623
0.00147704 0.00586367 -0.0203535
0.0186679 0.0249327 0.117389
0.673676 -0.119447 0.995659
-0.0583765 -0.535268 5.08113
-0.100444 0.0517441 0.448021
0.00726172 0.00413874 0.37211
0.078322 -0.0861388 0.414712
-0.0187391 0.0250555 0.11859
0.0368742 -0.0134231 0.750799
0 0 0
3.15889e-08 -3.66687e-09 1.05504e-06
8.54116e-06 0.000107294 0.000784814
-4.68495e-06 -9.73253e-07 0.000434104
0.0106072 0.0683081 0.256753
3.9747e-05 0.0177432 0.0467671
6.79435e-07 -0.000110707 0.00169854
-0.0365437 -0.013232 0.749986
0 0 0
-8.78261e-06 0.000111816 0.000817819
-0.0106056 0.0682279 0.256954
-0.00014535 0.00278747 0.0464804
0 0 0
5.92292e-06 0.000126079 0.00119749
-1.92606e-07 1.282e-07 -4.27765e-06
-1.60685e-08 -2.68793e-09 9.09177e-07
-1.67413e-08 -2.6735e-08 -1.68985e-05
2.98612e-05 -2.36491 1.91164
8.26836e-05 0.001834 -0.000164218
8.52987e-07 0.000250306 0.00480986
2.66745e-09 0.00035107 0.00866225
-8.81428e-08 -4.17346e-06 1.97535e-05
0.000157131 0.00284552 0.0461614
0 0 0
-6.05504e-06 0.000127694 0.00122103
-2.55321 -0.99974 20.9243
-3.18886 -3.17622 21.6691
-2.72459 -1.85288 18.0959
0.818452 0.76173 19.2336
-0.0275761 0.861912 15.5813
-0.150705 0.977396 7.75267
-3.33447 0.781014 20.47
-2.61849 1.1401 17.3237
-2.06689 2.58708 19.9927
1.22542 -0.202153 20.4765
0.850783 0.0521683 6.52453
0.575724 -0.932013 20.9324
3.21291 -3.33711 21.727
2.75573 -1.97116 17.9821
2.56428 -1.00928 20.9224
0.0534815 0.862791 15.4084
-0.0629738 1.1452 9.01916
-0.825634 0.759229 19.3032
2.61206 1.1635 17.2411
2.06716 2.49936 20.0099
3.30865 0.769783 20.4779
-1.02649 0.0621863 7.87892
-0.572085 -0.944707 20.9108
-1.227 -0.219627 20.5476
-0.529608 -0.305547 21.5806
0.134047 0.00185741 16.4612
0.0170572 0.0289555 20.3162
0.27753 0.0803314 16.0096
-1.15501 -0.470744 21.7115
-2.45907 1.71383 21.3935
-0.00746532 -0.266457 21.3198
-0.250064 0.0359938 21.613
-0.157543 0.0021352 15.917
0.533034 -0.306543 21.5751
-0.294893 0.078224 15.8313
-0.0131431 0.0285499 20.3094
2.43342 1.63364 21.4035
1.14902 -0.461909 21.7133
0.251231 0.0372171 21.6071
0.00701489 -0.267944 21.3295
-0.975357 -0.40953 20.2029
-0.744401 -0.21401 19.9089
-0.828662 -0.451802 19.6823
-0.822749 -0.348875 21.2089
-1.32004 -0.434091 20.6622
-1.62185 -1.04317 20.8322
-0.208854 -0.028386 21.4501
-0.522963 -0.202659 21.3748
-0.484543 -0.249193 21.6066
0.134461 0.208554 21.4816
-0.0467099 0.0335946 21.4864
-0.0847829 0.0935166 21.5676
0.477517 0.427299 21.2749
0.429537 0.338488 21.4544
0.285847 0.580785 21.5266
0.6099 0.404274 20.8902
0.712699 0.494811 21.1789
0.490823 0.911965 21.1647
0.549218 0.35675 20.6143
0.672315 0.855703 20.5212
-1.23383 -0.297337 20.0862
-0.815975 0.00125344 19.7885
-1.0128 -0.310624 19.4701
-1.03017 -0.276444 21.2521
-1.6607 -0.0492404 20.5957
-0.266608 -0.0939715 21.4656
-0.677311 -0.160111 21.4045
0.207739 0.148457 21.5542
-0.0426026 -0.0399841 21.6031
0.752496 0.363368 21.3461
0.701532 0.0957942 21.5367
0.984744 0.309641 21.3323
1.13813 0.1749 20.6364
1.22694 0.897521 19.8809
1.0807 -0.0117003 20.4167
1.07512 0.944668 20.5252
-1.29303 0.207199 19.9411
-0.650345 0.324493 19.8717
-0.980675 0.222772 19.3612
-1.26312 0.0842888 21.1922
-1.19812 0.583014 20.4407
-0.444065 -0.116199 21.5396
-0.878314 0.230061 21.2566
0.323906 -0.0852032 21.6231
-0.147826 -0.0276606 21.5546
0.903733 -0.167688 21.2717
0.462408 -0.313784 21.3702
1.06198 -0.229493 21.1933
0.617563 -0.441304 21.1359
1.57965 -0.409155 20.2497
0.5534 -0.489308 20.9812
1.36318 -0.280405 20.6673
-0.640795 0.506033 20.1512
-0.492396 0.512918 19.8418
-0.763889 0.528821 20.8138
-0.888228 0.958127 20.3355
-0.422065 0.210508 21.3596
-0.827141 0.688612 21.2155
0.0909415 -0.141989 21.393
-0.183612 0.0525951 21.6021
0.34422 -0.335177 21.1746
0.238661 -0.403849 21.3572
0.383575 -0.392988 20.9166
0.369623 -0.520952 20.9925
0.356955 -0.393855 20.5416
-1.69459 -1.82612 19.3129
-0.940389 -0.694627 19.059
-0.0418903 -1.21347 18.6652
-1.15322 -0.8971 22.1069
-0.0861975 -4.97019 21.4446
-0.331398 0.0400034 21.6056
-0.0132263 -0.781762 18.6148
-0.0910203 0.318382 21.1565
-0.00463257 -0.264722 17.0331
0.0623043 0.841413 20.6437
0.00758896 0.0860704 16.0751
0.354998 1.1113 20.1708
0.254894 1.22053 16.9637
0.0290855 0.311157 14.7247
0.152114 1.63251 16.2993
0.0313968 0.535454 12.8683
-1.06819 -0.148882 18.6463
-0.0531654 -0.945808 17.9625
0.981293 1.42132 12.4159
0.704125 0.961125 4.43052
0.137647 -0.515866 -1.27988
2.59966 0.700766 10.6233
-0.18183 -0.0795646 2.75046
-0.694076 0.706901 19.2391
-0.0151118 0.446224 17.9557
1.86467 -0.928845 12.0895
0.698592 -1.23528 20.6566
-0.160764 -0.466831 1.9249
0.642283 -0.924446 20.6078
-0.205386 -2.41196 7.76856
-0.648744 1.08899 19.7969
0.00673198 0.843592 19.4673
-0.901902 1.38225 20.7906
0.0229924 2.03631 20.0476
-0.605181 0.747693 21.7448
0.0174936 1.95995 21.2867
0.0804832 -0.290638 21.6468
-0.00153324 0.258284 22.0234
0.270094 -0.643622 21.2355
0.00323932 -0.624856 21.4907
0.333461 -0.686586 20.8014
-0.00407655 -0.863906 20.9718
-0.0165343 -0.974211 20.2683
1.67525 -1.97735 19.2571
0.916064 -0.726547 18.9924
0.827183 -0.484783 19.6556
1.19433 -0.946595 22.1658
1.68717 -1.15239 20.8562
0.344905 0.0385546 21.5611
0.47671 -0.24813 21.6268
0.0986021 0.311129 21.0246
0.0815267 0.0968109 21.5732
-0.0623736 0.871367 20.7131
-0.27633 0.601743 21.532
-0.422703 1.11623 21.0837
-0.338822 1.33281 17.5957
-0.554385 0.834458 21.2191
-0.386934 1.44443 17.8712
-0.663934 0.820228 20.6553
1.06911 -0.143823 18.5807
1.02492 -0.340579 19.4089
-1.13328 1.45222 14.0309
-1.09674 1.07901 6.79231
-1.15466 0.808761 20.4774
-2.39523 0.771183 13.7518
-0.928306 0.76516 20.5436
0.693598 0.707021 19.2371
0.983967 0.223462 19.3367
-1.90208 -0.791425 13.6916
-0.723143 -1.19176 20.6795
-1.49957 -0.481712 20.8458
-0.670563 -0.902949 20.4501
-1.21396 -0.369739 20.6552
0.660045 1.05821 19.8152
0.491453 0.498274 19.8575
0.90982 1.34553 20.7941
0.886371 0.913381 20.3477
0.607755 0.741922 21.7432
0.821996 0.668908 21.2086
-0.0771937 -0.294162 21.6503
0.183807 0.0517433 21.6065
-0.268276 -0.645089 21.2352
-0.238244 -0.408371 21.3607
-0.336818 -0.672926 20.8139
-0.372506 -0.512684 20.9998
-0.359664 -0.389196 20.5727
1.0148 -0.42243 20.1848
0.75987 -0.216092 19.8811
0.850362 -0.354047 21.2195
1.34625 -0.444256 20.6595
0.234002 -0.0314917 21.4479
0.528191 -0.211212 21.3788
-0.139291 0.19308 21.4879
0.0356679 0.0356263 21.4975
-0.468297 0.393421 21.2537
-0.434068 0.33884 21.4598
-0.592743 0.38866 20.9421
-0.701247 0.489816 21.1523
-0.537015 0.259444 20.6237
1.25141 -0.310159 20.074
0.825925 -0.00558411 19.7782
1.02581 -0.285036 21.2586
1.65837 -0.0486918 20.6014
0.268381 -0.0990543 21.4623
0.67446 -0.157016 21.4125
-0.207631 0.145764 21.5626
0.0424856 -0.0404003 21.6133
-0.73392 0.345572 21.3217
-0.703523 0.100206 21.5618
-0.884217 0.286175 21.3329
-1.07958 0.153034 20.6483
-0.962896 -0.104843 20.4001
1.29825 0.214801 19.939
0.649362 0.320607 19.8774
1.25655 0.0883157 21.1909
1.17564 0.562473 20.4469
0.444723 -0.11482 21.5387
0.86236 0.227415 21.2528
-0.325759 -0.0871189 21.6262
0.147956 -0.0280131 21.5569
-0.87737 -0.166065 21.276
-0.463419 -0.316852 21.372
-0.979613 -0.207173 21.2788
-0.60168 -0.409367 21.1508
-0.516057 -0.485445 20.9632
0.636949 0.495233 20.1607
0.748946 0.515094 20.8123
0.417043 0.207676 21.3579
-0.0902003 -0.143294 21.3974
-0.342464 -0.334592 21.1742
-0.375953 -0.389281 20.8987
-1.13166 -0.368108 20.1269
-2.15735 -1.9498 18.8154
-1.38044 -0.866912 19.9461
-1.98541 -0.73462 19.5669
-0.910323 -0.391742 19.5883
-2.06207 -1.09893 20.8765
-0.955474 -0.326404 21.2419
-0.87723 -0.655755 20.6806
-1.0135 -0.61106 21.5288
-1.33587 -0.536384 21.7856
-0.495294 -0.278156 21.6713
-0.248127 -0.0796007 21.4463
0.289924 0.0446151 15.985
-0.221448 -0.0554302 21.5517
-0.166993 -0.133557 20.9306
-0.0347088 0.0643727 21.4225
0.158164 0.179096 21.4965
0.108413 0.320645 15.4974
0.0763165 0.290132 21.6056
0.327733 0.299009 19.7824
0.510168 0.715332 21.0545
0.596478 0.406643 21.2939
0.0374398 1.03727 15.9573
0.423075 0.729798 21.3461
0.978479 0.876392 19.5367
0.939332 0.944499 20.6807
0.787348 0.383853 21.1482
0.484659 1.36643 16.1784
0.656597 0.95221 20.8745
1.22031 1.08291 20.2067
0.839454 1.01817 20.6799
-1.34815 -0.0227374 19.9746
-3.25225 -0.552934 16.9248
-2.04599 0.474749 19.2137
-1.05862 -0.0711456 19.34
-3.50506 -0.324869 20.7847
-1.18832 -0.112267 21.2573
-1.76685 0.0308747 21.7167
-0.607829 -0.368142 21.3831
-0.329311 -0.130693 21.5112
-0.529282 -0.501512 21.6172
0.114074 -0.0351661 19.7115
0.30483 0.038323 21.6499
0.612697 -0.078604 20.9599
1.18057 0.326726 18.55
0.924809 0.124324 21.3218
-0.0868563 0.872389 2.48727
1.45402 -0.294296 20.2648
1.90305 0.404867 18.4526
1.21025 0.230612 21.6409
2.08945 0.736967 8.09981
1.73496 -0.430291 20.1366
1.8446 0.811182 20.3706
-0.97908 0.498956 20.0328
-1.33259 1.56531 19.0476
-0.723558 0.781848 19.9942
-0.738654 0.484929 19.5783
-1.74204 1.22539 20.3115
-1.09838 0.434215 20.951
-2.02121 1.75279 21.0322
-0.922973 0.871775 20.8276
-1.43807 0.481889 21.4077
-0.538369 0.0873212 21.4873
-1.63001 0.817221 22.298
-0.555103 0.399786 21.512
-0.250582 -0.0457813 21.8556
0.200098 -0.182867 21.5202
0.41086 -0.616623 21.2638
0.085546 -0.227015 21.5255
0.570637 -0.573153 21.5049
0.569737 -0.379821 21.2289
0.652746 -1.06681 20.6863
0.322137 -0.503992 21.1882
0.69247 -0.759826 21.2416
0.670187 -0.360311 20.7444
0.693624 -1.21716 20.5792
0.370754 -0.511223 20.9092
0.732638 -0.735461 20.0983
2.14525 -2.08932 18.7016
-0.0619827 -3.3709 18.3186
-0.0491302 -3.82567 15.2197
-0.0397654 -1.09442 18.3295
-0.0558967 -7.55336 22.6554
0.804348 -0.647168 20.1129
-0.0491202 -2.09726 22.3029
0.0108834 -0.189027 6.30544
-0.310651 0.0446621 15.6501
-0.011305 -0.423165 17.9657
0.00891423 -0.051553 7.43322
-0.101173 0.310875 15.2995
0.00152218 -0.108687 16.4383
0.0217682 0.117939 7.96803
-0.093442 1.10087 16.3988
0.0191488 0.165356 15.6689
0.149079 -0.24743 -0.0450359
0.115583 0.196219 7.22915
-0.598766 1.41464 17.5454
0.0368199 0.763244 13.3856
0.0913654 0.055181 0.403083
0.030335 0.802235 6.42952
3.24756 -0.562795 16.7977
-0.0230604 2.08121 14.8233
-0.031612 -0.198464 17.711
-0.176852 0.838689 3.63359
-8.97224e-05 0.341672 1.23053
0.0581816 -1.49603 -2.80893
-2.09207 0.708516 10.5478
-0.349814 -1.92588 4.71511
-0.358014 -3.62964 -0.37137
1.33744 1.54839 19.0698
0.014119 1.51987 19.5029
-0.00054372 0.976213 18.7808
0.0324725 4.43082 19.4986
2.01826 1.70068 21.0374
0.0210743 2.04664 20.7295
0.0188942 3.87659 21.1803
1.62721 0.806486 22.2931
0.00430857 1.264 22.0218
-0.000870631 0.226392 21.2352
-0.412464 -0.622974 21.2343
0.0008447 -0.331665 21.7643
0.00528972 -0.879734 18.0968
-0.654387 -1.06198 20.7501
0.00160066 -0.779121 21.229
-0.0485967 -1.36599 19.349
-0.728055 -1.16402 20.5922
0.00145784 -0.851465 20.8242
-0.0210683 -0.98623 18.8173
1.16219 -0.383649 20.1112
1.426 -0.951268 19.9028
2.04147 -0.777872 19.5131
0.918273 -0.425547 19.5362
2.12387 -1.16036 20.8923
0.965418 -0.335342 21.2515
1.01433 -0.639745 21.566
1.34037 -0.539928 21.7797
0.495174 -0.27958 21.6765
0.257515 -0.0839253 21.4412
0.216649 -0.0521623 21.5583
0.171656 -0.135264 20.9247
0.0353505 0.0680709 21.3814
-0.159053 0.174659 21.5071
-0.0720082 0.301753 21.6133
-0.324746 0.299778 19.778
-0.512846 0.7307 21.0379
-0.592314 0.399108 21.287
-0.439116 0.720802 21.3638
-1.01157 0.826598 20.1229
-0.92156 0.898308 20.8306
-0.762736 0.360532 21.1902
-0.660959 0.833195 20.8233
-1.192 0.892941 20.6621
-0.769489 0.869264 20.6884
1.36463 -0.029664 19.9703
2.06934 0.481319 19.1954
1.06825 -0.06927 19.2953
3.49938 -0.325497 20.7853
1.184 -0.111442 21.262
1.76174 0.0311869 21.7072
0.610141 -0.368036 21.3963
0.328859 -0.129351 21.5207
0.528571 -0.496367 21.6301
-0.113797 -0.0373825 19.722
-0.305516 0.042136 21.6609
-0.610185 -0.0853834 20.9931
-1.19188 0.317054 18.6586
-0.898501 0.117829 21.3402
-1.42366 -0.350777 20.7508
-1.76205 0.361559 19.3016
-1.14064 0.172117 21.9423
-1.60689 -0.464721 20.6224
-1.6648 0.574486 20.3582
0.970218 0.488451 20.0423
0.723708 0.750028 20.016
0.740207 0.484344 19.5815
1.72173 1.17484 20.3244
1.08129 0.426471 20.9463
0.911394 0.840059 20.8277
1.41792 0.467835 21.4043
0.533812 0.088763 21.4845
0.554233 0.392927 21.5106
0.251862 -0.0471322 21.8589
-0.200272 -0.184213 21.5228
-0.0872593 -0.231203 21.5309
-0.572756 -0.581135 21.5079
-0.562435 -0.370814 21.2238
-0.322508 -0.504775 21.1873
-0.709882 -0.736323 21.1694
-0.651584 -0.364585 20.7351
-0.364644 -0.496248 20.9072
-0.717612 -0.686397 20.3078
-1.67422 -0.870452 19.7659
-1.16077 -0.592119 21.653
-0.199245 -0.0914245 21.5526
0.198273 0.327845 21.2707
0.66883 0.873028 20.8023
0.930055 1.24832 20.5401
-2.27316 -0.188766 19.225
-1.55737 -0.258244 22.0746
-0.118919 -0.26354 20.3857
0.458914 0.176651 19.494
1.40526 0.388653 18.2631
1.88891 0.548047 17.5071
-1.28702 0.907247 19.6305
-1.58618 0.803226 21.0555
-0.912877 0.182624 21.7884
0.276605 -0.332653 21.7555
0.685767 -0.707882 21.3223
0.701035 -0.802545 21.0522
-0.0648266 -3.87843 17.0495
0.000693885 -0.745477 9.98973
0.0112968 -0.10392 6.56414
0.00885379 -0.0126597 7.7936
0.0874649 -0.0122857 7.4394
0.0863279 0.789302 6.31485
-0.0351297 -0.852125 13.5973
-0.0115921 0.129859 -2.27993
-0.25952 -2.51958 -2.88214
0.0080802 2.44209 18.227
0.0220992 3.33633 20.8314
0.00369555 2.18388 22.1592
0.00136086 -0.633292 18.9739
-8.47452e-05 -1.05388 18.4007
-0.0543863 -1.49159 19.0058
1.73088 -0.939284 19.7206
1.1772 -0.611299 21.6671
0.199167 -0.0897492 21.532
-0.196405 0.334557 21.231
-0.681581 0.843429 20.9749
-0.928845 1.10591 20.6209
2.32546 -0.195228 19.1812
1.55716 -0.257859 22.0643
0.123044 -0.263778 20.4085
-0.46161 0.171124 19.5453
-1.42339 0.32827 19.1424
-1.76618 0.460326 18.3373
1.28063 0.888059 19.6527
1.5632 0.782386 21.0515
0.906583 0.178031 21.7834
-0.2768 -0.335679 21.7588
-0.685988 -0.695333 21.3136
-0.706422 -0.74522 20.9956
-1.02151 -0.61402 3.68878
-0.0595956 -0.202301 0.645656
0.00600335 -0.00373687 0.122672
0 0 0
-0.0326451 0.0227994 0.256283
-0.0221828 0.0329064 0.591099
-1.42716 0.156069 1.85312
-0.0860688 0.701154 0.478751
-0.217439 0.0304717 1.16229
0.0842619 0.0376195 0.294907
-0.00696237 -0.00830672 0.0246072
0.0300209 0.0212012 0.155934
0.0607135 -0.206258 0.65887
1.02049 -0.625796 3.69424
-0.0056486 -0.00400732 0.125153
0.0352829 0.0237342 0.260687
0 0 0
0.0332888 0.0399226 0.691158
0.0894488 0.696795 0.479546
1.41803 0.155661 1.84083
0.220214 0.0307895 1.17765
0.00988271 -0.00902632 0.0268451
-0.0852279 0.0364874 0.298735
-0.0299309 0.0210236 0.156848
0.00922789 0.00800312 0.361056
0.034784 -0.010206 0.540403
1.32647e-18 -4.23372e-18 5.87672e-17
0 0 0
0 0 0
0.032259 -0.0102596 0.909002
-0.000180316 0.000511365 0.0193172
0 0 0
-0.381463 -0.378723 1.08917
2.51497e-05 2.56818e-05 0.00258073
0.0138933 0.0720127 0.406747
-0.00818525 0.0169548 0.045131
0.0227083 0.0499175 0.163323
4.96223e-05 0.00243595 0.00849139
0.0253131 0.0680031 0.253216
0.00842067 -0.00338009 0.0381637
-0.0103837 0.00770856 0.351547
0 0 0
-0.0346093 -0.0100956 0.539301
0 0 0
0 0 0
0 0 0
-0.0318507 -0.0100656 0.913984
0.00018561 0.000524925 0.0197495
0.388553 -0.388576 1.11311
0.00805138 0.016946 0.0450739
0 0 0
-0.0136244 0.0722302 0.406872
-0.0225886 0.0497729 0.163172
-0.00839092 -0.00336445 0.0381241
-5.00799e-05 0.00243953 0.00854147
-0.025221 0.0677678 0.252925
-0.0103898 -0.0185222 0.461105
-0.284386 -0.554145 0.206559
2.80762e-07 6.878e-07 -1.11347e-05
0 0 0
0 0 0
0 0 0
0 0 0
-0.00111871 0.00135267 -0.000141698
8.24575e-05 0.000129493 0.0140743
0.0133754 -0.121568 -0.114533
-7.73544e-05 0.00059136 0.00748229
0 0 0
-0.000431201 0.839401 0.410506
-5.13215e-06 0.0216243 0.0966745
0.00584416 -0.0116799 0.122405
-0.00154115 0.000681183 0.00790444
-8.41264e-07 -2.87419e-05 2.3531e-06
8.62732e-08 -4.78233e-08 2.15975e-07
0.0364261 0.081768 0.542738
4.03307e-06 -8.89282e-06 3.76867e-05
0.287699 -0.557845 0.208612
0.0104186 -0.0183711 0.460768
0 0 0
0 0 0
0.00115568 0.00118846 -0.000124199
0 0 0
0 0 0
7.29872e-05 0.000606907 0.00774513
0.0014978 0.000655902 0.00763795
-0.0058703 -0.0115605 0.122489
-4.1528e-06 -9.85057e-06 4.12398e-05
-0.0366987 0.0817798 0.546202
-1.27138e-05 5.70378e-05 0.00329528
0 0 0
0 0 0
0 0 0
5.90794e-08 -1.75268e-08 1.52996e-06
-5.61038e-08 -2.95627e-09 2.41553e-06
0 0 0
-0.00191805 7.37853e-05 0.050263
-3.07362e-08 -2.59969e-10 2.27355e-06
4.67933e-07 -2.96356e-08 -9.61065e-05
2.67669e-06 0.000101666 0.000448763
0.00165555 0.00206795 0.0488172
0 0 0
7.61686e-06 0.013727 0.0514625
3.03365e-07 -5.36871e-05 0.00188394
3.16434e-07 -6.18751e-05 0.000302789
0 0 0
1.36978e-05 6.094e-05 0.00350839
0 0 0
0 0 0
0 0 0
0.00196161 4.51555e-05 0.0502988
-0.00164391 0.00207057 0.0489009
-2.57789e-06 9.79088e-05 0.000433294
-0.0153235 -0.0230429 0.348615
-0.00015013 -0.000348249 0.00379465
0 0 0
0 0 0
0 0 0