# vtk DataFile Version 2.0
tri_press
ASCII
DATASET UNSTRUCTURED_GRID
POINTS 3682 float
-0.699765 0.125 -2.105
-0.626582 0.235 2.155
-0.695 0.621713 -2.025
-0.630214 0.875 2.075
0.695 0.125 -2.11039
0.617671 0.215 2.135
0.695 0.622429 -2.025
0.601459 0.885 2.095
-0.736226 0.100811 -0.685
-0.730764 0.118546 0.735
-0.791774 0.824511 -0.658334
-0.75259 0.891351 0.708333
0.724829 0.0993943 -0.69526
0.710595 0.117852 0.71987
0.786143 0.832276 -0.651667
0.738738 0.903575 0.721667
-1.4425 -0.281902 -3.23467
-1.44476 -0.222967 -2.11887
-1.46386 -0.23426 -0.698485
-1.43725 -0.230827 0.731588
-1.3591 -0.153199 2.15275
-1.34144 -0.0997648 3.27239
-1.35236 -0.0584676 4.38448
-1.43992 0.0288207 -3.2103
-1.44557 0.112655 -2.10019
-1.47677 0.122122 -0.689434
-1.43571 0.128039 0.725575
-1.32523 0.20012 2.13738
-1.31926 0.251906 3.25729
-1.34167 0.293118 4.37142
-1.43806 0.608043 -3.14969
-1.45136 0.689419 -2.03945
-1.5131 0.829012 -0.664939
-1.45671 0.876267 0.70557
-1.33419 0.883935 2.08209
-1.32783 0.937695 3.21052
-1.34995 0.989942 4.33679
-1.43802 1.6075 -3.0936
-1.44992 1.70484 -1.98998
-1.47667 1.8541 -0.630227
-1.47635 1.95275 0.719126
-1.44448 1.99174 2.08139
-1.42136 2.02125 3.19022
-1.41193 2.06084 4.31002
-0.718227 -0.276263 -3.2387
-0.710431 -0.213979 -2.12473
-0.7321 -0.244718 -0.69937
-0.73344 -0.239118 0.735974
-0.679982 -0.139225 2.16168
-0.665482 -0.0901762 3.27883
-0.673052 -0.0540482 4.38833
-0.715815 0.0268318 -3.21172
-0.646236 0.263412 3.26465
-0.665007 0.297671 4.37525
-0.711219 0.579993 -3.14368
-0.654584 0.939182 3.21283
-0.673221 0.991577 4.33879
-0.703829 1.59028 -3.08711
-0.709418 1.68962 -1.98243
-0.739173 1.85389 -0.624481
-0.759195 1.96041 0.721244
-0.749477 1.99538 2.08092
-0.73255 2.02245 3.18957
-0.723045 2.06173 4.30981
0.710309 -0.275052 -3.24223
0.713003 -0.21357 -2.13014
0.722254 -0.24504 -0.707987
0.692955 -0.240586 0.723691
0.634263 -0.150319 2.14715
0.650837 -0.0967637 3.27083
0.666785 -0.0564182 4.38464
0.704094 0.0279543 -3.21479
0.645696 0.2568 3.25855
0.664328 0.295857 4.37311
0.711294 0.581683 -3.14451
0.63573 0.941768 3.21938
0.656786 0.993085 4.34142
0.755676 1.59389 -3.08602
0.762472 1.694 -1.98022
0.745463 1.85996 -0.620154
0.692911 1.96775 0.727988
0.646737 2.0023 2.08873
0.64184 2.02802 3.19608
0.649885 2.06605 4.31437
1.43285 -0.278697 -3.24069
1.43822 -0.220443 -2.12707
1.45134 -0.232049 -0.710173
1.41153 -0.230711 0.715865
1.33454 -0.163144 2.13525
1.33048 -0.10747 3.26091
1.3462 -0.0614373 4.37831
1.42819 0.0321371 -3.21523
1.43467 0.115761 -2.10638
1.46475 0.125806 -0.698241
1.42305 0.131382 0.713855
1.32017 0.190595 2.12388
1.31918 0.245252 3.24974
1.34008 0.291235 4.36802
1.43869 0.612544 -3.15099
1.44967 0.694925 -2.03882
1.50736 0.840087 -0.659342
1.44518 0.891317 0.717101
1.31505 0.894477 2.09762
1.31162 0.94258 3.21936
1.33379 0.993408 4.34119
1.4831 1.61486 -3.09154
1.49173 1.71359 -1.98597
1.47979 1.86562 -0.622661
1.422 1.96625 0.730627
1.35899 2.00446 2.09459
1.34104 2.03176 3.20151
1.3437 2.06924 4.31825
-0.728327 0.373356 -2.09595
-0.00238252 0.0964387 -2.13626
-0.741891 0.0890103 -1.395
-0.647355 0.555 2.13396
-0.00445551 0.202232 2.16777
-0.718809 0.136637 1.445
0 0.689861 -2.09279
-0.78452 0.764245 -1.34167
-0.0143775 0.930422 2.13542
-0.7131 0.904874 1.39167
0.725869 0.373715 -2.09856
0.733417 0.088695 -1.40283
0.636923 0.55 2.14236
0.69432 0.136239 1.42744
0.780039 0.76682 -1.33833
0.704767 0.928956 1.40833
-0.734574 0.1086 0.025
-0.875852 0.462661 -0.671667
-0.00569836 0.0994965 -0.69013
-0.870403 0.504948 0.721667
-0.0100844 0.124046 0.727435
-0.781564 0.867313 0.025
-0.00281507 1.08174 -0.655
-0.00692591 1.30338 0.715
0.71913 0.107205 0.012305
0.875667 0.465835 -0.673463
0.870295 0.510713 0.720768
0.771018 0.876503 0.035
-0.879975 0.418009 -1.36833
0.880235 0.419775 -1.37058
-0.00404044 0.087554 -1.39891
-0.00140753 0.841457 -1.34
-0.00119126 0.373535 -2.30158
-0.881327 0.483805 0.025
0.881249 0.488274 0.0236525
-0.00789139 0.111779 0.0186525
-0.00487049 1.29331 0.03
-0.877003 0.529974 1.41833
0.87701 0.530357 1.41788
-0.00726996 0.13582 1.43622
-0.0106517 1.15061 1.4
-0.00941649 0.5525 2.234
-0.704273 0.249178 -2.0907
-0.351074 0.0992658 -2.13208
-0.740323 0.0875099 -1.75
-0.664481 0.395 2.17199
-0.315519 0.209656 2.17034
-0.703621 0.154893 1.8
-0.718807 0.497535 -2.06762
-0.3475 0.679671 -2.08278
-0.764383 0.717602 -1.68333
-0.641117 0.715 2.10681
-0.322296 0.920116 2.12262
-0.678248 0.896528 1.73333
0.346309 0.099442 -2.1346
0.697212 0.249357 -2.09125
0.735351 0.0857045 -1.75661
0.306608 0.205177 2.15482
0.662113 0.3825 2.1735
0.666255 0.16536 1.78122
0.3475 0.679733 -2.08248
0.717732 0.498072 -2.06908
0.76179 0.718895 -1.68167
0.293541 0.92191 2.12941
0.61952 0.7175 2.11901
0.657247 0.911112 1.75167
-0.739099 0.0948705 -1.04
-0.737867 0.102239 -0.33
-0.882329 0.243591 -0.678334
-0.371315 0.0994474 -0.687565
-0.72449 0.127888 1.09
-0.735771 0.11047 0.38
-0.871553 0.276262 0.728333
-0.371159 0.119826 0.731218
-0.789916 0.796147 -1
-0.863156 0.658258 -0.665
-0.788865 0.848108 -0.316667
-0.446491 1.05152 -0.656667
-0.735462 0.90073 1.05
-0.852196 0.7185 0.715
-0.770358 0.882614 0.366667
-0.470908 1.27967 0.711667
0.729086 0.094082 -1.04904
0.360518 0.0975412 -0.692695
0.724508 0.100772 -0.341478
0.881801 0.241838 -0.684362
0.702018 0.127486 1.07365
0.350958 0.119543 0.723653
0.717545 0.109846 0.366088
0.871316 0.273847 0.720319
0.785075 0.801532 -0.995
0.440058 1.0538 -0.653334
0.862048 0.664627 -0.662565
0.781312 0.85712 -0.308333
0.725041 0.919554 1.065
0.454766 1.2812 0.718333
0.85003 0.729901 0.721218
0.755969 0.89113 0.378333
-0.872945 0.395683 -1.73214
-0.364759 0.373446 -2.28923
-0.00321148 0.0843441 -1.76758
-0.00178689 0.234987 -2.29661
-0.874837 0.25351 -1.38167
-0.372966 0.0875805 -1.39696
-0.82228 0.542487 1.77615
-0.328386 0.55375 2.21087
-0.00586274 0.15156 1.80199
-0.006936 0.377366 2.3193
-0.863957 0.333306 1.43167
-0.363039 0.136328 1.44061
-0.000703767 0.786368 -1.7164
-0.000595629 0.531698 -2.26932
-0.883822 0.591127 -1.355
-0.392964 0.828149 -1.34083
-0.0125146 0.98906 1.76771
-0.011897 0.741461 2.17163
-0.830395 0.717424 1.405
-0.361876 1.12612 1.39583
0.872897 0.396745 -1.73457
0.362339 0.373625 -2.28957
0.873312 0.254235 -1.3867
0.364688 0.0848527 -1.40087
0.821914 0.540178 1.78012
0.313753 0.55125 2.213
0.86413 0.333298 1.42266
0.343525 0.134353 1.43183
0.883385 0.593297 -1.35446
0.389316 0.828514 -1.33917
0.825042 0.729656 1.41311
0.347057 1.1246 1.40417
-0.884575 0.25789 0.025
-0.371147 0.110361 0.0218262
-0.875356 0.440335 -1.02
-0.88047 0.473233 -0.323333
-0.0048694 0.0937487 -1.04452
-0.00679488 0.103349 -0.335739
-0.877462 0.494377 0.373333
-0.885292 0.517461 1.07
-0.00898791 0.115912 0.373044
-0.00867719 0.129543 1.08183
-0.893934 0.706803 0.025
-0.488964 1.27181 0.0275
-0.0021113 0.884817 -0.9975
-0.00384278 1.24032 -0.3125
-0.0058982 1.312 0.3725
-0.0087888 1.26327 1.0575
0.884111 0.255779 0.0179788
0.356263 0.108206 0.0154788
0.875157 0.442805 -1.02202
0.880405 0.477055 -0.324905
0.877379 0.499494 0.37221
0.885187 0.520535 1.06933
0.88198 0.710312 0.0293262
0.476999 1.27276 0.0325
-0.864832 0.251344 -1.74107
-0.87742 0.267623 -1.03
-0.860785 0.617357 -1.01
-0.875482 0.544331 -1.70774
0.860802 0.251796 -1.74559
0.87545 0.545685 -1.70812
0.859981 0.621177 -1.00851
0.87744 0.268425 -1.03553
-0.36202 0.0844226 -1.75879
0.355498 0.0834071 -1.7621
0.362127 0.0910813 -1.04678
-0.371964 0.0934117 -1.04226
-0.370232 0.776828 -1.69986
-0.395129 0.859736 -0.99875
0.39049 0.862254 -0.99625
0.368408 0.777065 -1.69903
-0.357917 0.242083 -2.29604
-0.35613 0.514617 -2.14016
0.35492 0.514885 -2.13996
0.354324 0.242172 -2.29793
-0.885107 0.249913 -0.326667
-0.87976 0.266228 0.376667
-0.860906 0.706572 0.37
-0.865586 0.676051 -0.32
0.884509 0.248032 -0.333192
0.864255 0.68359 -0.316619
0.859145 0.716676 0.375272
0.879306 0.264017 0.369149
-0.372192 0.102982 -0.332869
0.359994 0.0996666 -0.338608
0.354493 0.112109 0.369566
-0.37211 0.113179 0.376522
-0.491613 1.20943 -0.314583
-0.486497 1.28886 0.369583
0.472335 1.28988 0.375417
0.483244 1.21271 -0.310417
-0.873019 0.322526 1.08
-0.825333 0.364153 1.78807
-0.792621 0.716212 1.75474
-0.84631 0.707787 1.06
0.873319 0.32379 1.07149
0.843633 0.7184 1.06716
0.789389 0.723578 1.76589
0.826965 0.357899 1.78067
-0.366732 0.128814 1.08591
0.34689 0.126836 1.07774
0.325066 0.148478 1.79161
-0.339279 0.150413 1.801
-0.370817 1.24592 1.05375
-0.342086 0.970414 1.75052
0.320299 0.970158 1.75969
0.356482 1.24569 1.06125
-0.321952 0.386183 2.28937
0.31018 0.379933 2.29523
0.303647 0.72948 2.16776
-0.325341 0.72823 2.1671
-0.685703 0.187089 -2.08153
-0.525419 0.100831 -2.12984
-0.730051 0.0962482 -1.9275
-0.65263 0.315 2.17059
-0.47105 0.219654 2.16535
-0.671944 0.188104 1.9775
-0.709225 0.559624 -2.04863
-0.52125 0.662213 -2.06541
-0.740243 0.680209 -1.85417
-0.630203 0.795 2.08544
-0.476255 0.906605 2.10786
-0.655646 0.887179 1.90417
0.520654 0.100901 -2.13382
0.680683 0.187179 -2.0854
0.724754 0.0957744 -1.9335
0.462139 0.214923 2.14008
0.652473 0.29875 2.16683
0.651005 0.181138 1.95811
0.52125 0.662367 -2.06503
0.708183 0.56025 -2.04886
0.738769 0.681036 -1.85333
0.4475 0.90982 2.11857
0.603956 0.80125 2.10047
0.631829 0.900532 1.92333
-0.735587 0.0999159 -0.8625
-0.737021 0.101551 -0.5075
-0.883477 0.135101 -0.681667
-0.554199 0.099273 -0.686283
-0.7283 0.122544 0.9125
-0.734541 0.113235 0.5575
-0.854188 0.170889 0.731667
-0.551719 0.117672 0.733109
-0.792033 0.811517 -0.829167
-0.845688 0.750496 -0.661667
-0.790853 0.836843 -0.4875
-0.660059 1.01987 -0.6575
-0.742827 0.894842 0.879167
-0.82195 0.814704 0.711667
-0.763042 0.888551 0.5375
-0.632752 1.12752 0.71
0.724095 0.0996006 -0.872151
0.542687 0.0984401 -0.693978
0.724621 0.100131 -0.518369
0.877756 0.133396 -0.689811
0.706853 0.122123 0.896761
0.53135 0.117551 0.721761
0.71506 0.112859 0.542979
0.864282 0.159186 0.720095
0.786887 0.818182 -0.823334
0.652431 1.0217 -0.6525
0.842396 0.757602 -0.657116
0.784496 0.845467 -0.48
[...]
POINT_DATA 3682
SCALARS point_scalars float 1
LOOKUP_TABLE default
-27.4687
-41.3317
-23.8448
-35.5795
-23.6727
-42.102
-23.9144
-35.1302
-39.0277
-38.7314
-62.4728
-49.3173
-38.7152
-39.4273
-63.2329
-49.1734
-26.1289
-107.189
-39.1743
-39.2576
-45.416
-38.7324
-36.5197
-26.1289
-102.844
-39.364
-39.3993
-43.5826
-37.2926
-36.5197
74.1098
-78.6818
-50.3264
-41.9002
-41.1589
-35.9776
-35.2885
-21.3735
-57.7896
-86.9677
-58.0636
-36.0632
-35.3881
-34.0967
83.625
-154.727
-39.1658
-38.841
-46.7894
-36.1745
-36.1444
83.625
-36.1745
-36.1444
162.212
-33.7256
-35.089
-21.1355
-42.771
-71.7468
-57.4001
-32.9746
-31.6413
-30.7415
85.8447
-156.073
-38.8881
-39.4305
-42.9719
-37.0307
-36.1914
85.8447
-36.1807
-36.1914
163.3
-34.0505
-35.418
-20.43
-44.8381
-81.2115
-59.3952
-32.3778
-31.6448
-30.7132
-19.4617
-106.397
-38.4208
-40.2642
-44.7502
-38.7287
-36.4221
-19.4617
-103.168
-38.2365
-40.1912
-43.9817
-37.1834
-36.4221
74.1301
-78.9718
-50.4345
-45.0238
-41.3136
-35.5353
-35.8023
-21.2461
-57.9027
-85.7279
-59.3828
-34.7862
-34.0672
-34.0672
15.6238
-161.497
-51.7963
-36.2075
-40.5765
-41.809
-46.8332
-41.8992
-30.2192
-42.6251
18.4192
-51.9143
-35.8355
-41.4276
-40.7653
-42.4658
-36.9681
-41.4623
-40.8366
-40.2582
-39.3721
-56.6284
6.48832
-63.6145
-37.1454
-41.3739
-40.48
-57.2768
-55.129
-55.1101
-56.8821
-7.8622
207.157
-43.5377
-43.6256
-37.8109
-84.8241
-44.9361
-44.8165
-42.052
-37.7187
-30.3131
26.3593
-127.383
-81.9703
-37.718
-41.3763
-46.5868
3.64751
-39.1221
-53.2615
-36.0181
-30.9791
-37.0778
-133.822
25.2868
-83.1659
-41.1526
-37.7623
-46.0309
-38.3625
4.58413
-52.8282
-30.7702
-35.4756
-36.2991
-42.3777
-38.1042
-39.4842
-39.901
-39.1896
-37.6091
-39.1695
-39.3934
-38.0956
-47.6751
-60.4396
-1.49006
-46.2234
-42.6921
-53.0258
-60.2325
-42.4293
-39.9951
-38.2394
-39.0588
-39.1269
-39.2424
-37.9885
-39.9299
-37.2872
-1.32734
-47.9133
-60.9244
-46.6898
-60.6886
-43.4411
-53.5592
-91.0966
192.376
-82.1689
128.579
-53.969
-54.8519
-44.9379
-33.6569
-44.7219
-34.1737
-43.6498
-42.3152
-31.5779
172.778
-55.5252
-13.5795
-31.7503
-29.6489
-45.2971
-38.5971
-91.6448
194.192
-53.8775
-55.1988
-44.8232
-33.4748
-43.4692
-42.0978
-55.4498
-13.5378
-44.9321
-38.3679
-40.0882
-37.2911
-43.4406
-43.2125
-46.965
-39.059
-42.215
-42.3287
-38.1506
-39.6537
-51.599
-80.4001
17.3757
-76.9327
-75.9705
-50.0208
-39.9951
-37.6912
-43.4061
-43.3374
-42.4587
-42.1459
-51.457
-80.3982
-91.1818
-43.7086
-43.1345
-82.0939
-92.143
-81.8524
-43.076
-43.7569
-78.2945
-78.7433
-45.9119
-45.7303
-33.1266
8.68783
9.47942
-33.0735
160.031
163.281
160.847
167.396
-40.2088
-39.7057
-45.7944
-49.171
-40.2907
-49.5644
-46.0332
-40.0123
-38.5287
-38.6655
-38.0802
-37.8747
-78.1859
-68.6999
-69.054
-76.3757
-41.6421
-47.1887
-42.4287
-43.6537
-41.4243
-43.5285
-42.2089
-47.3793
-39.6072
-39.5142
-45.1659
-44.846
-50.7235
-32.9942
-32.8155
-50.4379
-35.7148
-35.7367
-32.7082
-33.0003
25.5255
-131.006
-111.909
-38.9761
-41.166
-46.1583
-4.76322
-34.8638
-51.5849
-36.2916
-32.2475
-35.2493
-129.082
33.9126
-112.09
-41.7992
-39.4762
-46.0141
-34.7965
-4.36964
-51.5048
-31.7893
-35.3347
-34.5805
-39.8342
-38.3041
-39.2725
-39.1052
-41.3086
-38.4212
-38.4174
-39.2237
-54.2724
-53.9874
-62.0822
-46.0191
-47.609
-46.9161
-51.1596
-53.328
-39.5375
-39.0695
-38.1311
-38.5079
-40.6171
-39.2243
-38.613
-41.1399
-54.6918
-43.4021
-54.7473
-62.5992
-47.4363
-53.7693
-47.1667
-51.1312
24.2974
10.7916
-82.9292
129.906
-154.849
-175.35
-111.704
-38.0194
-60.9914
-46.4881
-53.0825
-52.9088
-36.8403
-36.1297
-42.1399
-34.7719
-40.8542
-40.7375
-43.5955
-36.9354
-46.74
-40.5569
-43.0587
-42.2899
-47.0723
-47.4946
-41.579
49.2863
-46.3283
-36.1722
-54.132
-22.7413
-30.2524
-30.2296
-31.0259
-26.6402
-40.2754
-44.8207
-43.5578
-40.484
28.1469
13.003
-82.5004
130.257
-61.6856
-46.5175
-53.0235
-53.2095
-36.7849
-35.8801
-41.9813
-34.6707
-46.4444
-40.459
-42.9558
-41.9805
-45.7655
-34.8273
-53.7538
-22.4191
-39.6954
-44.3774
-43.0838
-39.9356
-37.7675
-37.0315
-38.8117
-37.016
-40.0356
-44.0178
-40.5914
-42.8128
-40.577
-40.6561
-43.5901
-39.7994
-39.5763
-41.6094
-41.5419
-39.3169
-39.4882
-39.413
-38.6377
-39.6252
-58.7193
-54.508
-53.5191
-66.6377
5.21335
5.13992
24.6116
-30.6833
-63.1385
-63.0539
-69.7268
-57.0504
-38.5159
-37.3757
-38.0109
-37.4143
-39.8086
-44.0743
-40.5347
-42.808
-39.8494
-41.9025
-41.8254
-39.5265
-59.4706
-55.2083
-53.6812
-67.4095
-66.7262
-54.6038
-55.0052
-48.2727
-66.5434
-54.6883
-54.9142
-48.2341
-65.7548
-56.3773
-56.625
-51.165
-20.1648
-9.2649
-9.22708
4.3528
202.997
191.682
177.87
204.428
-41.66
-43.2974
-43.0212
-46.6779
-41.7458
-43.479
-43.1647
-46.5696
-37.5787
-38.8978
-37.841
-37.7858
-83.3067
-94.1513
-81.9749
-83.2419
-48.3421
-44.4711
-46.1466
-42.6868
-48.3013
-44.2712
-46.2332
-42.6129
-43.77
-42.1245
-42.0148
-40.8854
-34.0971
-38.026
-37.8791
-43.0585
-31.6555
-32.4615
-29.8412
-31.4299
-99.1283
111.723
-102.959
49.6219
-91.9824
-76.8885
-43.0495
-35.9925
-44.1386
-37.5482
-47.9272
-44.0685
-75.0151
94.857
-42.28
76.6156
-65.5713
-37.9147
-41.6365
-34.5219
-31.6504
-31.911
-39.8512
-34.1017
-105.475
52.8735
-99.3033
108.17
-93.2423
-77.1102
-44.492
-37.7382
-43.0243
-36.0522
-47.8807
-44.5824
-42.2944
80.4032
-74.9039
94.6037
-65.1648
-37.7624
-31.5439
-31.4048
-41.4459
-34.1526
-39.5426
-33.8351
-43.3479
-44.3662
-39.2528
-38.0815
-38.4289
-39.9949
-42.5165
-39.0797
-40.246
-39.4927
-38.7785
-37.6936
-39.5996
-39.3113
-38.6466
-39.5554
-44.8276
-4.23653
-44.3397
-49.2554
-54.3421
-82.0991
16.7623
-29.4927
-44.7808
-51.8883
-44.8392
-44.2269
-49.5362
-59.0286
-64.3535
-56.5745
-43.5662
-44.405
-42.6124
-39.0382
-39.5047
-38.1862
-38.3469
-39.633
-39.9141
-39.4431
-38.6808
-39.5108
-39.2815
-37.9146
-39.9444
-39.235
-44.8223
-3.93549
17.385
-31.244
-44.4769
-49.5565
-55.0848
-83.8012
-45.5352
-51.6282
-64.8156
-56.4287
-45.2567
-44.1973
-49.9332
-59.4193
-90.9938
-89.9933
178.53
171.373
-81.1559
-81.7306
161.071
160.104
-63.8921
-47.0227
-63.205
-49.626
-46.2844
-43.7239
-35.0842
-33.2936
-44.9549
-44.9376
-34.9304
-34.8936
-41.4593
-48.6379
-40.9232
-44.4352
-31.6044
-31.5614
173.209
165.562
-47.9506
-68.379
-23.8637
-2.98391
-32.1882
-32.0742
-30.6535
-30.8376
-43.9183
-44.2647
-44.0239
-34.9962
-91.6913
-90.1222
170.112
183.261
-64.2299
-46.9295
-63.6148
-49.9496
-43.5384
-46.2884
-35.0291
-33.0685
-41.2758
-48.1195
-40.8024
-43.6805
-68.4103
-47.8163
-3.76283
-23.8401
-44.2744
-43.5275
-34.7974
-43.6427
-39.7365
-39.9952
-38.4418
-37.4036
-44.0349
-42.9201
-41.4407
-45.6788
-46.7995
-46.6467
-38.8903
-39.0665
-40.9979
-43.734
-42.3982
-41.9901
-38.1377
-38.0865
-39.6614
-39.6439
-47.0039
-47.5714
-88.5702
-74.3596
14.9511
15.175
-74.7368
-75.3286
-74.4555
-74.5218
-50.165
-49.9593
-40.2336
-40.2877
-38.7913
-37.6575
-42.8717
-44.1086
-41.5028
-45.9611
-43.9983
-41.2481
-42.2938
-42.1019
-48.1124
-47.1844
-74.7579
-88.6446
-100.105
-62.5063
-65.1795
-95.4344
-36.6526
-39.645
-47.6894
-45.924
-49.8107
-47.1086
-48.4262
-42.0614
-69.315
-79.8599
-67.2797
-60.7145
-98.2734
-95.4432
-65.4274
-63.1012
-69.1225
-60.0067
-66.8707
-79.6943
-50.4049
-42.0952
-48.3534
-46.8097
-37.0605
-46.0931
-47.7239
-39.5564
-100.053
-109.209
-65.3593
-61.1073
-101.059
-61.4879
-65.429
-111.617
-41.1725
-43.4075
-51.0165
-48.2688
-41.2119
-48.0118
-50.763
-43.3172
-43.5585
-30.0295
-21.1384
-41.5135
-8.14329
22.6047
1.96868
-13.0942
-6.38473
-11.7191
2.13157
23.1505
-43.5439
-41.5262
-21.1032
-29.9233
72.5504
117.263
188.826
-36.1957
47.4079
65.3138
179.225
117.106
47.5766
117.337
181.207
72.7231
66.829
-81.2025
170.545
118.889
-38.5104
-37.9576
-41.5437
-41.0915
-39.1661
-40.651
-41.4612
-38.734
-48.3514
-50.9981
-45.1635
-42.7994
-55.1343
-45.5006
-45.4429
-53.7962
-38.5784
-40.9317
-41.7231
-38.8685
-55.6666
-54.2613
-45.7397
-45.6407
-48.9479
-43.1796
-45.2628
-51.4622
-38.5789
-38.7598
-41.6253
-40.9105
-38.4329
-39.6367
-38.7795
-38.0767
-38.3463
-38.5989
-38.8989
-39.579
-38.6342
-38.7408
-37.8308
-37.4866
-38.4793
-37.1845
-37.6804
-38.7403
-89.3777
-72.7623
-92.3624
-29.4364
-55.3621
-68.8852
-80.5603
-62.1141
-55.7202
-62.5542
-80.6414
-68.9078
-87.8603
-29.7642
-92.6798
-73.8317
-41.6709
-40.5757
-42.118
-38.898
-44.1358
-42.5982
-48.2184
-49.2958
-39.8066
-41.8708
-46.5186
-41.8539
-46.6086
-41.5687
-43.5023
-44.5739
-40.5228
-38.9034
-41.9861
-40.2721
-46.9336
-44.5587
-43.6466
-41.6159
-39.5304
-41.7638
-46.2839
-41.2504
-44.1876
-48.6025
-47.9977
-42.4693
-39.6616
-39.5363
-40.9607
-40.9203
-39.5557
-40.7566
-40.8637
-39.4731
-45.9188
-43.7574
-43.3917
-44.9621
-45.7697
-46.1765
-43.5754
-43.5864
-50.5953
-46.219
-43.3189
-57.0931
-32.585
-31.2052
-34.3604
-36.5052
-32.3372
-36.1113
-34.263
-31.141
-50.8162
-56.9955
-43.0503
-45.8548
-37.4707
-37.1775
-33.6249
-35.469
-37.7004
-35.5907
-33.4717
-37.171
-33.5626
-28.1347
-30.9345
-34.5198
-33.7906
-34.6646
-31.2154
-28.8178
3.0914
-91.5685
-133.036
-40.7426
-41.372
-43.119
-13.0054
-23.1308
-47.3903
-36.4671
-33.6043
-34.8887
-92.3078
20.4673
-135.625
-42.0835
-41.4458
-43.8809
-24.4628
-13.0385
-47.9197
-32.8729
-35.7828
-34.2709
-39.58
-38.542
-41.3716
-38.8765
-39.8228
-38.8233
-38.1864
-39.1975
-61.8709
-57.8959
-62.2823
-90.212
-48.424
-48.5531
-50.304
-50.4826
-39.1129
-38.7263
-38.4016
-38.8591
-39.7364
-39.3142
-39.156
-40.3665
-63.109
-89.0137
-58.6869
-62.7066
-48.4054
-50.6749
-48.5889
-50.0871
19.0492
12.5598
-58.515
80.7993
-158.449
-170.884
-134.634
-45.9973
-55.826
-48.546
-52.5809
-52.2799
-36.3292
-36.1811
-40.1215
-35.1139
-40.6635
-40.6508
-42.188
-37.5803
-43.8607
-40.8165
-41.8318
-42.084
-46.8956
-47.2982
-46.3778
-47.4077
-45.0152
-37.4916
-49.6292
-30.0201
-30.2104
-30.2171
-30.8919
-26.818
-41.3568
-43.4231
-42.9989
-42.5203
22.4141
14.8866
-57.4855
81.894
-56.24
-48.3757
-52.5627
-52.4341
-36.135
-35.9658
-39.8407
-35.0816
-43.4641
-40.6404
-41.5867
-41.773
-44.0145
-36.5533
-49.1288
-29.3527
-41.0665
-42.7018
-42.6185
-41.9688
-37.3403
-36.8994
-37.6569
-36.9174
-40.5913
-42.6231
-40.968
-42.2242
-40.8004
-40.8297
-42.0033
-40.2929
-39.8263
-40.8454
-40.9715
-39.0182
-39.336
-39.3254
-39.3681
-39.0941
-57.688
-55.506
-55.084
-60.6982
6.74088
6.50705
17.0643
-9.89201
-63.5789
-63.5413
-66.6233
-60.3622
-37.9452
-37.1423
-37.0882
-37.2449
-40.4221
-42.612
-40.91
-42.143
-40.0448
-41.0998
-41.2418
-39.135
-58.4399
-56.1146
-55.3895
-61.2715
-60.0984
-54.9412
-55.0661
-51.0437
-60.0119
-54.9856
-55.0165
-51.0434
-60.797
-56.6878
-56.8561
-53.632
-13.9416
-8.22181
-8.20538
-1.7708
204.646
199.505
197.95
205.91
-42.5317
-43.3662
-43.4032
-44.7901
-42.6295
-43.5163
-43.4878
-44.8268
-37.757
-38.3826
-37.7635
-37.8343
-84.4323
-87.8157
-83.8221
-84.4586
-47.3867
-44.8196
-45.1646
-43.4853
-47.2412
-44.6567
-45.1688
-43.4266
-42.4757
-42.0656
-42.0257
-41.7556
-35.7265
-37.8117
-37.725
-40.0408
-30.7264
-30.7914
-30.1252
-30.5786
22.7663
26.8668
-68.5799
58.9507
-129.102
-143.52
-121.759
-98.2042
-96.1903
-69.6728
-89.7364
-79.0482
-38.1741
-37.461
-41.2489
-36.2625
-41.9084
-40.8422
-42.846
-39.2227
-47.1805
-46.1431
-48.2287
-44.2975
-0.722348
7.66455
-47.4648
59.0703
-36.9548
-46.2957
-44.0706
-48.1064
-53.6846
-48.6133
-61.2954
-42.9704
-35.9321
-36.0507
-40.0879
-34.7842
-31.4384
-30.4704
-31.2298
-31.1169
-35.9246
-38.1553
-38.4256
-35.0867
-128.497
-158.373
-126.08
-95.996
25.2996
26.209
-66.8997
64.9228
-96.2789
-70.4393
-91.4469
-79.7008
-41.4837
-40.8363
-43.0086
-38.7644
-38.4335
-37.2445
-41.3474
-36.2366
-45.0964
-47.2086
-47.4799
-44.4078
-36.7394
-46.1275
-44.0342
-45.347
-0.283345
9.22895
-47.3511
59.3767
-53.7332
-48.3644
-60.7439
-42.6362
-30.8803
-30.2729
-31.1465
-30.6559
-35.2098
-35.6971
-39.6186
-34.6188
-35.3799
-37.3781
-37.6705
-34.5989
-41.0037
-45.0789
-41.8974
-43.5707
-37.9988
-37.9935
-38.5311
-37.9739
-39.3989
-39.5469
-38.8536
-39.8237
-39.4978
-40.2999
-40.9478
-39.4008
-39.2988
-39.2959
-39.4538
-39.3598
-38.1751
-37.3158
-37.9233
-37.7429
-38.833
-39.4535
-39.5638
-39.4826
-39.338
-39.4331
-39.3081
-39.1827
-46.2193
-34.9654
-44.9
-15.2829
-50.5067
-45.5092
-46.057
-48.7357
-61.5165
-59.6074
-57.8791
-68.1929
-8.57445
3.33202
10.696
-12.7941
-46.6076
-45.8862
-46.0348
-47.9142
-44.8688
-42.033
-44.2031
-41.6201
-51.9702
-53.9322
-51.4716
-56.0438
-57.3271
-62.0895
-62.6792
-59.1669
-40.9537
-45.2774
-42.2312
-43.5369
-39.4644
-40.384
-40.9962
-39.4808
-38.0142
-38.2692
-38.9174
-38.1119
-38.9305
-39.218
-38.6354
-39.3351
-39.3636
-39.3122
-39.2845
-39.3332
-39.2307
-39.3872
-39.1962
-39.0692
-38.3496
-37.6128
-38.5202
-37.9722
-39.8802
-39.8949
-40.0882
-39.6655
-45.4076
-34.2423
-44.9185
-16.921
-8.38499
3.128
10.727
-13.35
-51.0043
-45.729
-46.2972
-48.9448
-62.0026
-60.2437
-58.528
-68.9058
-46.6797
-45.8393
-46.2086
-48.1945
-58.6968
-62.1027
-62.9479
-58.8572
-45.4205
-42.673
-44.5864
-40.4493
-52.296
-54.6632
-52.513
-56.2436
-101.574
-76.008
-91.0797
-90.1994
164.514
203.435
188.457
184.846
-95.243
-72.0913
-81.8281
-82.0568
40.5912
184.487
163.707
158.506
-53.6579
-54.2308
-58.1591
-49.996
-53.7863
-55.6725
-58.5843
-51.7569
-43.5345
-46.5784
-45.7316
-44.2525
-34.3714
-32.7125
-34.0583
-33.6041
-43.8161
-44.9372
-44.8686
-44.8273
-35.7962
-33.2564
-34.4142
-34.3529
-43.1601
-44.0821
-42.4142
-45.9049
-42.4499
-42.2041
-41.8165
-42.9276
-36.6828
-25.8694
-31.3459
-31.2643
118.339
187.612
182.239
177.648
-55.1428
-55.2687
-51.409
-61.2108
-17.5409
-11.0658
-19.1538
-8.40848
-31.3177
-32.7397
-31.8762
-31.8279
-28.4333
-29.4927
-29.8658
-29.9703
-44.1272
-46.6767
-44.7192
-45.1469
-39.4515
-38.324
-41.0558
-36.5998
-101.026
-76.3516
-91.585
-90.4642
165.809
204.61
185.544
192.192
-53.5549
-54.2366
-58.1238
-50.2443
-54.0627
-56.1149
-58.9297
-52.1764
-43.4301
-46.4947
-44.0781
-45.6487
-34.1515
-32.4805
-34.0262
-33.4182
-42.9706
-43.8893
-42.2084
-45.5135
-42.0854
-42.0549
-41.7742
-42.6907
-55.0393
-55.1926
-61.0212
-51.2311
-17.3343
-11.0458
-8.53426
-19.053
-43.795
-46.398
-44.9515
-44.1464
-39.0298
-38.1304
-36.3664
-40.6727
-39.7094
-40.8046
-39.9809
-40.1511
-37.1932
-37.3903
-37.8288
-37.2732
-41.1984
-46.2407
-43.9299
-43.1714
-43.008
-43.3193
-42.2511
-44.2746
-44.9842
-49.2648
-46.9489
-46.9099
-39.3428
-38.8616
-39.0068
-39.0699
-41.8965
-42.5848
-41.4858
-42.9563
-40.8416
-42.8083
-42.506
-41.8746
-38.4268
-37.9721
-38.163
-38.118
-39.6298
-40.1954
-39.6565
-39.6517
-53.7499
-48.6502
-50.5259
-45.8482
-76.3618
-81.771
-81.4644
-76.6789
23.8888
10.6231
16.5995
16.3348
-51.2087
-93.7966
-76.8166
-76.7901
-72.7161
-79.0832
-75.602
-75.6324
-53.8616
-46.7663
-49.9773
-49.8952
-39.412
-40.8371
-40.031
-40.2284
-37.5641
-37.7245
-38.2046
-37.5123
-41.1546
-46.2968
-43.1122
-43.9338
-43.0643
-43.4927
-42.3326
-44.473
-42.1697
-42.7819
-43.1896
-41.7277
-40.7676
-42.7364
-42.3827
-41.8341
-52.8806
-48.65
-47.3688
-49.9878
-76.4853
-81.6361
-76.9799
-82.141
-104.636
-91.4884
-91.0988
-74.6224
-43.7619
-40.0976
-45.7273
-43.9252
-43.9557
-43.2229
-44.6301
-42.832
-80.7568
-72.0341
-86.0414
-75.3101
-105.564
-92.4041
-91.8386
-75.1517
-80.1822
-71.5272
-86.0457
-75.0521
-43.9603
-43.2899
-44.5856
-42.7722
-43.9719
-40.1419
-45.7599
-43.9843
-89.834
-76.8168
-80.0382
-69.6488
-90.8152
-76.9962
-80.7061
-70.0037
-45.1541
-44.0671
-48.2374
-46.4856
-45.0744
-43.8164
-48.0486
-46.2864
-37.6545
-34.9105
-32.1851
-28.6037
2.29845
14.3002
3.53513
12.4976
4.64881
15.6838
1.6424
12.8192
-37.6443
-34.8649
-32.1324
-28.5748
125.577
124.28
167.554
169.856
141.98
160.564
149.877
160.859
157.769
140.815
150.564
147.414
127.224
135.074
191.715
175.586
-40.0521
-40.0712
-40.1497
-40.7646
-39.5567
-39.6694
-39.8992
-40.2096
-45.2765
-47.1748
-44.7039
-46.4559
-49.351
-51.3223
-47.3935
-48.791
-40.3988
-39.9668
-40.4519
-40.8349
-49.7001
-51.8405
-47.6868
-49.2738
-45.6791
-47.3805
-45.0214
-46.6597
-40.0766
-39.8408
-40.2486
-40.4901
-38.3036
-38.7835
-38.4155
-38.7188
-38.7068
-38.3668
-38.9459
-38.7988
-38.3341
-38.0041
-38.1178
-37.9065
-37.7935
-38.2234
-37.6694
-37.9451
-92.7424
-52.2036
-90.4925
-73.8086
-63.2395
-66.3288
-71.4081
-72.3811
-66.7431
-63.6114
-72.5063
-71.7422
-51.9526
-87.617
-74.2804
-90.8277
-41.2351
-40.3975
-41.3384
-42.0322
-44.8495
-47.557
-46.8057
-49.6856
-41.6411
-41.1987
-43.2653
-43.0443
-44.1366
-46.1944
-43.6589
-42.73
-41.0481
-40.3164
-41.1611
-41.8766
-44.3805
-47.5953
-43.9266
-42.8507
-41.381
-40.9475
-42.9937
-42.8519
-44.8256
-47.7267
-46.9153
-49.5788
-39.5616
-39.5494
-40.2047
-39.6152
-39.4837
-39.4589
-40.0349
-39.6055
-44.6901
-44.9807
-45.1012
-44.9146
-44.4863
-43.8703
-45.0352
-44.8647
-51.2287
-53.7938
-47.4144
-50.4179
-32.3227
-33.4813
-32.5639
-33.8646
-32.1742
-33.2466
-32.3941
-33.6521
-50.6894
-53.5015
-46.9847
-50.148
-35.9437
-36.3445
-35.672
-35.4444
-36.5463
-35.9069
-35.4178
-35.5952
-32.2443
-33.3154
-31.6503
-32.799
-33.6311
-32.6411
-33.0227
-31.836
-70.2447
44.5205
-116.983
2.32424
-100.34
-104.538
-42.2652
-37.9105
-43.5847
-39.4187
-44.9601
-46.2496
-47.2658
32.802
-45.0663
5.8861
-67.2678
-46.2426
-39.8612
-34.674
-32.0629
-33.3219
-37.4314
-33.4794
-117.239
-8.59232
-61.3276
33.2659
-98.6334
-104.95
-44.1983
-39.1257
-42.9083
-38.3264
-44.5879
-47.2135
-45.1378
6.92009
-46.8894
33.2387
-66.648
-46.1748
-31.7921
-32.9331
-39.4178
-34.2873
-36.9161
-33.1044
-37.3861
-40.6561
-38.345
-38.2964
-36.3846
-39.5133
-39.7204
-38.7479
-42.1218
-39.7119
-38.0798
-38.4186
-38.9505
-40.6335
-39.1007
-39.1344
-52.2683
-42.5843
-52.1366
-54.8502
-58.618
-75.0296
-14.9351
-73.3044
-47.4831
-48.4856
-47.4879
-46.8513
-50.0008
-52.6876
-54.0835
-51.7817
-36.8671
-40.5485
-39.6063
-38.6984
-38.6126
-38.1774
-35.6625
-38.4673
-42.0267
-39.684
-39.116
-39.1443
-38.3224
-38.6208
-39.434
-42.2048
-53.1136
-40.1892
-14.7253
-74.0841
-53.015
-55.5131
-59.3832
-76.0954
-47.3239
-48.5667
-54.407
-52.0285
-47.9714
-47.4292
-50.5999
-52.8381
-59.9344
75.0663
-56.9741
76.3449
-89.5605
-82.4819
127.517
130.109
-132.321
-46.5304
-137.618
-82.3879
-110.392
-112
-37.9897
-57.2075
-62.1677
-60.9101
-45.8605
-47.2559
-56.8058
-49.2067
-56.4893
-50.0386
-40.4624
-35.6463
-39.9569
-35.0585
-42.292
-42.0477
-34.9067
-34.8219
-42.4121
-38.1534
-42.4284
-38.0528
-43.6796
-43.5096
-37.0161
-36.9816
-48.7837
-47.0012
-39.6757
-40.882
-41.9074
-45.9105
-41.5609
-43.59
-45.3757
-50.8165
-45.102
-52.5387
-41.6993
-41.6673
43.7512
65.0183
-55.5494
-35.703
-44.3292
-22.5127
-49.3772
-59.2113
-26.1657
-18.0043
-30.9432
-28.3291
-30.9229
-27.8772
-31.0762
-31.0609
-26.7944
-27.5802
-40.6827
-38.3135
-44.9045
-46.3254
-42.7818
-44.0895
-43.0141
-38.3268
-56.3514
74.2894
-57.2777
77.2789
-89.0188
-82.0527
129.651
128.725
-62.7364
-61.3503
-46.0542
-47.3886
-56.9537
-49.4355
-56.8941
-50.2372
-40.4599
-35.7082
-40.1848
-35.0093
-41.9265
-42.1829
-34.9117
-34.6616
-47.7216
-46.1029
-39.3387
-40.6835
-41.5058
-45.1247
-41.3703
-43.0887
-55.4506
-35.5475
-43.937
-21.6278
-58.4471
-48.9607
-17.3904
-25.9853
-40.0616
-37.7865
-44.6302
-45.8261
-43.9389
-42.1059
-37.8698
-42.4752
-37.1813
-37.9441
-37.5063
-37.0164
-37.2913
-38.8076
-37.5156
-37.0122
-39.6669
-40.6122
-42.8885
-44.8038
-40.0528
-41.2341
-41.833
-43.8854
-41.7287
-39.9947
-41.8197
-40.0143
-43.5544
-43.5153
-39.7751
-39.7476
-40.1587
-38.4014
-42.2662
-41.216
-41.0199
-42.0873
-38.6025
-40.6433
-39.377
-39.2613
-39.2451
-39.3275
-38.7506
-38.7537
-39.6139
-39.564
-56.5711
-64.6546
-52.9628
-58.097
-52.5909
-53.864
-69.2021
-64.3515
16.1786
-9.76016
16.0599
-10.2172
24.0226
23.9701
-29.9742
-30.3752
-65.9705
-59.9658
-65.91
-59.9528
-69.5482
-69.5243
-57.0748
-57.0224
-38.3473
-38.5372
-37.6819
-37.38
-37.8617
-38.1796
-38.0787
-37.3174
-39.5123
-40.3795
-42.9382
-44.8311
-41.2116
-39.9833
-41.7554
-43.9565
-40.4774
-38.5504
-42.6195
-41.424
-42.3979
-41.3133
-38.7401
-40.7716
-57.1269
-65.1417
-53.6094
-58.4906
-54.2993
-52.3914
-64.8834
-70.3628
-65.8742
-67.1594
-59.3331
-50.9382
-51.2227
-60.7073
-47.9168
-48.7235
-65.9711
-66.6069
-59.3966
-51.0204
-60.63
-51.1483
-48.6275
-47.921
-65.5947
-65.4208
-59.833
-53.129
-60.5751
-53.4322
-51.1957
-51.1051
-20.4169
-20.3862
-15.1422
-3.74401
-3.64347
-15.0972
4.14873
3.95422
195.41
192.273
189.83
179.723