# vtk DataFile Version 2.0
tet_velo
ASCII
DATASET UNSTRUCTURED_GRID
POINTS 29498 float
-0.832245 0.165 -2.105
-0.725 0.215 1.98994
-0.832245 0.465 -2.105
-0.555 0.881633 2.035
0.855 0.165 -2.14366
0.725 0.215 1.98781
0.855 0.455 -2.14366
0.555 0.880715 2.035
-0.853026 0.125137 -0.74002
-0.818758 0.140324 0.62496
-0.846177 0.710224 -0.725
-0.770845 0.866185 0.655
0.854553 0.13878 -0.766504
0.826415 0.140252 0.610653
0.851175 0.69308 -0.750773
0.778029 0.861839 0.642114
-1.65311 -0.185581 -3.20461
-1.666 -0.113179 -2.10155
-1.66087 -0.139961 -0.737338
-1.5893 -0.162921 0.621272
-1.49335 -0.120271 1.98501
-1.48165 -0.0670955 3.08575
-1.50361 -0.0095616 4.19077
-1.65808 0.0453085 -3.19827
-1.67257 0.148632 -2.09317
-1.66896 0.156504 -0.727324
-1.57186 0.16444 0.634537
-1.4339 0.210716 2.00003
-1.44581 0.263083 3.10194
-1.48725 0.318762 4.20726
-1.65843 0.449273 -3.19153
-1.67149 0.550283 -2.08712
-1.66058 0.732847 -0.711025
-1.53027 0.854821 0.663518
-1.33147 0.888297 2.03931
-1.39299 0.934086 3.14093
-1.47115 0.985215 4.24401
-1.64282 1.22858 -3.17298
-1.64758 1.35663 -2.06736
-1.63491 1.58084 -0.68228
-1.58651 1.77975 0.70445
-1.52762 1.88665 2.0889
-1.5159 1.93648 3.19321
-1.53557 1.98114 4.29567
-0.818193 -0.177048 -3.21843
-0.82907 -0.0978815 -2.11356
-0.840787 -0.152413 -0.748575
-0.814624 -0.18178 0.612092
-0.761574 -0.124621 1.97677
-0.75996 -0.0710863 3.07884
-0.778028 -0.0140803 4.18443
-0.821325 0.0426235 -3.21332
-0.746732 0.261001 3.09587
-0.773555 0.315082 4.20157
-0.821977 0.411184 -3.20877
-0.704269 0.931094 3.13715
-0.767846 0.982664 4.23947
-0.816705 1.19811 -3.1883
-0.824998 1.32577 -2.08198
-0.83091 1.56768 -0.694073
-0.821312 1.78401 0.696598
-0.799213 1.89186 2.08385
-0.795737 1.93889 3.18861
-0.811809 1.98196 4.2907
0.860963 -0.178424 -3.2516
0.856719 -0.0961049 -2.14731
0.844596 -0.144087 -0.774004
0.807608 -0.180413 0.59695
0.734198 -0.12461 1.96999
0.69056 -0.0713416 3.07188
0.673068 -0.0145813 4.1757
0.860564 0.0398363 -3.24827
0.655607 0.260636 3.0908
0.650406 0.314471 4.19379
0.859097 0.404461 -3.24369
0.595805 0.930208 3.13276
0.620268 0.9817 4.23194
0.842736 1.19126 -3.21704
0.830527 1.31799 -2.10942
0.793146 1.56038 -0.716762
0.720814 1.77945 0.680228
0.648511 1.88924 2.07218
0.629181 1.93692 3.17813
0.626287 1.98027 4.27989
1.69773 -0.189062 -3.26786
1.69445 -0.112604 -2.16384
1.67419 -0.131923 -0.786506
1.60555 -0.160413 0.589999
1.49621 -0.120446 1.96694
1.43824 -0.0677696 3.06903
1.41655 -0.01066 4.17179
1.69909 0.0391226 -3.26416
1.6971 0.144601 -2.15931
1.68071 0.162871 -0.777779
1.59931 0.165743 0.604885
1.45529 0.210102 1.98611
1.39589 0.262129 3.08809
1.38695 0.317433 4.18991
1.69648 0.437009 -3.25734
1.69475 0.534332 -2.15311
1.67084 0.718404 -0.760869
1.55007 0.849989 0.635022
1.34122 0.885953 2.02692
1.32309 0.932135 3.12794
1.34613 0.983189 4.22707
1.66905 1.21578 -3.22915
1.65384 1.34252 -2.12085
1.60429 1.56798 -0.727115
1.50651 1.77137 0.671027
1.40356 1.88152 2.06405
1.36793 1.93254 3.17085
1.36249 1.97773 4.27308
-0.826362 0.315 -2.09912
0.0113775 0.164187 -2.12514
-0.841255 0.146449 -1.42251
-0.670727 0.548316 2.0432
0 0.237274 1.9666
-0.783656 0.165885 1.30745
0.0113775 0.475442 -2.13977
-0.883072 0.631473 -1.415
0 0.91599 2.06982
-0.723919 0.934906 1.345
0.848337 0.31 -2.137
0.850405 0.156262 -1.45508
0.669403 0.547858 2.04081
0.787641 0.165693 1.29923
0.885349 0.606301 -1.44722
0.727756 0.932518 1.33856
-0.836644 0.131979 -0.05753
-0.88367 0.417681 -0.73251
0.000763479 0.156868 -0.753262
-0.889791 0.503255 0.63998
0.00382871 0.179855 0.617807
-0.8158 0.795494 -0.035
0.00249914 0.990455 -0.737887
0.00359204 1.28104 0.648557
0.845844 0.134156 -0.077925
0.883553 0.41593 -0.758639
0.889689 0.501045 0.626383
0.8227 0.785557 -0.05433
-0.881238 0.36634 -1.41876
-0.884913 0.460468 -0.046265
-0.881505 0.525786 1.32623
0.0060705 0.165037 -1.4388
0.00229609 0.16827 -0.0677275
0.00191435 0.211528 1.30334
0.0113775 0.3125 -2.13606
0 0.548087 2.13883
0.00693833 0.811613 -1.43111
0.00304559 1.27582 -0.044665
0.00179602 1.11043 1.34178
0.887358 0.362965 -1.45115
0.884783 0.458488 -0.0661275
0.881849 0.524451 1.31889
-1.25241 0.156816 -2.09908
-0.830657 0.0335593 -2.10928
-0.826785 0.103812 -2.65916
-1.07945 0.212858 1.99499
-0.743287 0.0451894 1.98336
-0.735866 0.238001 2.5429
-1.25187 0.507641 -2.09606
-0.827111 0.438092 -2.65688
-0.828621 0.895387 -2.09349
-0.943237 0.884965 2.03716
-0.629634 0.906363 2.58608
-0.677107 1.38675 2.05942
0.85586 0.0344476 -2.14548
0.857782 0.102418 -2.69596
1.27605 0.1548 -2.15149
0.729599 0.0451949 1.9789
0.690304 0.237818 2.53931
1.09014 0.212551 1.98696
0.857049 0.42973 -2.69368
0.842764 0.886496 -2.12654
1.27487 0.494666 -2.14839
0.575402 0.905461 2.58388
0.601756 1.38498 2.05359
0.948108 0.883334 2.03096
-1.26099 0.140821 -0.733672
-0.846907 -0.0136378 -0.744298
-1.19531 0.152382 0.629748
-0.816691 -0.0207278 0.618526
-1.25338 0.721536 -0.718012
-0.838543 1.13895 -0.709536
-1.15056 0.860503 0.659259
-0.796078 1.3251 0.675799
0.849574 -0.00265364 -0.770254
1.26763 0.150826 -0.772141
0.817011 -0.0200805 0.603802
1.21286 0.152997 0.607769
0.822161 1.12673 -0.733768
1.26101 0.705742 -0.755821
0.749421 1.32065 0.661171
1.16405 0.855914 0.638568
-1.65956 -0.14938 -2.65308
-1.6556 -0.0701364 -3.20144
-1.23565 -0.181315 -3.21152
-1.66344 -0.12657 -1.41944
-1.66929 0.0177262 -2.09736
-1.24754 -0.10553 -2.10756
-1.62508 -0.151441 -0.0580332
-1.66492 0.00827174 -0.732331
-1.25083 -0.146187 -0.742957
-1.54132 -0.141596 1.30314
-1.58058 0.000759485 0.627904
-1.20196 -0.17235 0.616682
-1.4875 -0.0936835 2.53538
-1.46362 0.0452222 1.99252
-1.12746 -0.122446 1.98089
-1.49263 -0.0383285 3.63826
-1.46373 0.0979935 3.09384
-1.1208 -0.0690909 3.0823
-1.49543 0.1546 4.19902
-1.14082 -0.011821 4.1876
-1.66532 0.09697 -2.64572
-1.65825 0.247291 -3.1949
-1.2397 0.043966 -3.20579
-1.67076 0.152568 -1.41025
-1.67203 0.349457 -2.09015
-1.62041 0.160472 -0.0463934
-1.66477 0.444676 -0.719174
-1.50288 0.187578 1.31729
-1.55106 0.50963 0.649027
-1.43985 0.236899 2.55098
-1.38269 0.549507 2.01967
-1.46653 0.290922 3.6546
-1.4194 0.598584 3.12143
-1.09627 0.262042 3.0989
-1.4792 0.651989 4.22564
-1.1304 0.316922 4.20442
-1.66496 0.499778 -2.63933
-1.65062 0.838928 -3.18225
-1.2402 0.430229 -3.20015
-1.66603 0.641565 -1.39907
-1.65953 0.953456 -2.07724
-1.59542 0.793834 -0.0237535
-1.64774 1.15685 -0.696652
-1.43087 0.871559 1.35142
-1.55839 1.31729 0.683984
-1.36223 0.911192 2.59012
-1.42955 1.38748 2.06411
-1.43207 0.95965 3.69247
-1.45444 1.43528 3.16707
-1.04863 0.93259 3.13904
-1.50336 1.48318 4.26984
-1.1195 0.98394 4.24174
-1.6452 1.29261 -2.62017
-1.22976 1.21335 -3.18064
-1.64124 1.46874 -1.37482
-1.23629 1.3412 -2.07467
-1.61071 1.6803 0.0110852
-1.23291 1.57426 -0.688176
-1.55707 1.8332 1.39668
-1.20391 1.78188 0.700524
-1.52176 1.91157 2.64105
-1.16342 1.88926 2.08637
-1.52573 1.95881 3.74444
-1.15582 1.93768 3.19091
-1.17369 1.98155 4.29319
-0.823632 -0.137465 -2.666
-0.819759 -0.0672125 -3.21588
0.0213847 -0.177736 -3.23502
-0.834929 -0.125147 -1.43107
0.0138246 -0.0969932 -2.13044
-0.827706 -0.167096 -0.0682419
0.00190423 -0.14825 -0.76129
-0.788099 -0.1532 1.29443
-0.00350817 -0.181096 0.604521
-0.760767 -0.0978537 2.5278
-0.0136881 -0.124616 1.97338
-0.768994 -0.0425833 3.63164
-0.753346 0.0949575 3.08735
-0.0347 -0.0712139 3.07536
-0.775791 0.150501 4.193
-0.0524802 -0.0143308 4.18007
-0.821651 0.226904 -3.21104
0.0196197 0.0412299 -3.23079
-0.760143 0.288042 3.64872
-0.7255 0.596048 3.11651
-0.0455622 0.260819 3.09333
-0.7707 0.648873 4.22052
-0.0615743 0.314777 4.19768
-0.819341 0.804646 -3.19854
0.0185599 0.407822 -3.22623
-0.736057 0.956879 3.68831
-0.750003 1.43499 3.16288
-0.0542319 0.930651 3.13495
-0.789828 1.48231 4.26509
-0.073789 0.982182 4.2357
-0.820851 1.26194 -2.63514
0.0130159 1.19469 -3.20267
-0.827954 1.44672 -1.38803
0.00276472 1.32188 -2.0957
-0.826111 1.67584 0.00126242
-0.0188818 1.56403 -0.705417
-0.810262 1.83794 1.39022
-0.0502489 1.78173 0.688413
-0.797475 1.91538 2.63623
-0.0753509 1.89055 2.07801
-0.803773 1.96042 3.73966
-0.0832778 1.93791 3.18337
-0.0927611 1.98111 4.2853
0.858841 -0.137264 -2.69946
0.860763 -0.0692939 -3.24994
1.27935 -0.183743 -3.25973
0.850657 -0.120096 -1.46066
1.27558 -0.104354 -2.15558
0.826102 -0.16225 -0.0885271
1.2594 -0.138005 -0.780255
0.770903 -0.152511 1.28347
1.20658 -0.170413 0.593474
0.712379 -0.0979759 2.52094
1.1152 -0.122528 1.96847
0.681814 -0.0429615 3.62379
0.673084 0.0946472 3.08134
1.0644 -0.0695556 3.07045
0.661737 0.149945 4.18474
1.04481 -0.0126207 4.17375
0.859831 0.222148 -3.24598
1.27983 0.0394794 -3.25621
0.653007 0.287554 3.64229
0.625706 0.595422 3.11178
1.02575 0.261382 3.08944
0.635337 0.648086 4.21286
1.01868 0.315952 4.19185
0.850917 0.797862 -3.23037
1.27779 0.420735 -3.25052
0.608036 0.955954 3.68235
0.612493 1.43357 3.15544
0.959448 0.931171 3.13035
0.623277 1.48099 4.25591
0.983198 0.982445 4.2295
0.836632 1.25463 -2.66323
1.25589 1.20352 -3.22309
0.811837 1.43918 -1.41309
1.24218 1.33026 -2.11514
0.75698 1.66992 -0.0182672
1.19872 1.56418 -0.721938
0.684663 1.83435 1.3762
1.11366 1.77541 0.675627
0.638846 1.91308 2.62516
1.02603 1.88538 2.06811
0.627734 1.9586 3.72901
0.998558 1.93473 3.17449
0.994389 1.979 4.27649
1.69609 -0.150833 -2.71585
1.69841 -0.0749696 -3.26601
1.68432 -0.122263 -1.47518
1.69578 0.0159985 -2.16158
1.63987 -0.146168 -0.0982536
1.67745 0.015474 -0.782142
1.55088 -0.14043 1.27847
1.60243 0.00266485 0.597442
1.46722 -0.094108 2.51799
1.47575 0.0448276 1.97653
1.42739 -0.0392148 3.62041
1.41706 0.0971795 3.07856
1.40175 0.153387 4.18085
1.6981 0.0918617 -2.71174
1.69779 0.238066 -3.26075
1.68891 0.153736 -1.46855
1.69592 0.339466 -2.15621
1.64001 0.164307 -0.0864467
1.67578 0.440638 -0.769324
1.5273 0.187922 1.2955
1.57469 0.507866 0.619954
1.42559 0.236115 2.5371
1.39825 0.548027 2.00651
1.39142 0.289781 3.639
1.35949 0.597132 3.10801
1.36654 0.650311 4.20849
1.69562 0.485671 -2.70523
1.68277 0.826393 -3.24325
1.68279 0.626368 -1.45699
[...]
POINT_DATA 29498
VECTORS point_vectors float
-4.8999 -4.717 11.0814
0.148571 0.404585 1.48821
-4.48231 1.87454 7.88402
-0.121504 -0.101713 0.0442834
1.74389 -1.63834 3.26505
-0.161641 0.43276 1.5994
10.9244 4.47989 14.386
0.125778 -0.100938 0.0383571
0.218659 -0.114492 3.36664
0.0417338 -0.0190431 0.59155
-0.0278888 -0.0316628 0.233893
0 0 0
-0.167391 -0.0980502 3.07183
-0.105247 -0.0398434 1.29939
0.0303994 -0.0383171 0.33048
0 0 0
-0.52127 -0.203567 19.9047
-1.09328 -0.491728 20.4504
-0.425411 -0.405343 21.2465
0.105476 -0.139356 21.4448
0.694867 0.1852 21.3819
0.976613 0.265545 21.0685
0.915919 0.101865 20.4069
-0.578053 -0.15961 19.851
-1.25891 -0.415181 20.4273
-0.555271 -0.436311 21.2743
0.0876799 -0.289116 21.5135
0.983771 -0.0155738 21.4417
1.24268 0.00343091 21.0443
1.02802 -0.07799 20.6233
-0.626286 -0.0102481 19.7845
-1.49441 -0.0822853 20.3243
-1.04054 -0.356191 21.2478
-0.306088 -0.381332 21.6437
0.606809 -0.748823 21.4141
0.957566 -0.699393 21.1901
0.645643 -0.515076 20.7475
-0.534323 0.231651 19.8613
-1.01761 0.472575 20.2623
-0.964124 0.325022 21.0403
-0.36734 -0.00923833 21.4239
0.0684629 -0.305119 21.2781
0.258419 -0.460337 21.0311
0.287502 -0.485722 20.6783
-0.554847 -0.478645 19.3658
-2.67284 -3.53261 20.4412
-0.317658 -0.234384 21.2783
0.206305 0.227169 20.7363
0.527881 1.1172 19.647
0.975514 1.65418 19.201
0.869753 1.05908 19.4137
-0.61103 -0.361375 19.2111
2.02923 1.66085 12.2412
1.93745 0.833951 14.8728
-0.702926 -0.0445256 19.0272
0.970518 -0.862358 8.44754
1.11298 -0.72327 14.6093
-0.549471 0.497861 19.3485
-1.53992 1.86545 19.6755
-1.78518 1.68265 20.9972
-0.540769 0.287352 21.8732
-0.0576609 -0.365088 21.3974
0.0922367 -0.593233 21.2154
0.00955523 -0.518261 20.4234
0.545919 -0.44451 19.414
2.66426 -3.34073 20.4705
0.313281 -0.128649 21.1212
-0.231772 0.269271 20.6879
-0.502777 1.1357 19.5081
-0.83765 1.59854 18.6404
-0.771483 1.33872 19.0344
0.597686 -0.333963 19.26
-1.72623 1.55513 10.4933
-2.0482 1.26227 13.1315
0.665084 -0.0542024 19.0979
-0.731157 -0.676175 4.67011
-0.957035 -0.712532 10.5056
0.540405 0.470802 19.3727
1.55056 1.85104 19.6485
1.81194 1.82207 20.9455
0.548424 0.387286 21.9532
0.0830752 -0.338791 21.3941
-0.0443547 -0.590988 21.1304
-0.106051 -0.525169 20.8163
0.499344 -0.189631 19.9069
1.05936 -0.471993 20.4661
0.412184 -0.41025 21.2156
-0.105792 -0.15754 21.4266
-0.706255 0.18644 21.3799
-1.03227 0.323682 21.0594
-0.957479 0.223027 20.6211
0.538843 -0.140841 19.8748
1.21363 -0.388355 20.4075
0.5506 -0.448258 21.2558
-0.0837668 -0.302461 21.4935
-0.959996 -0.0452388 21.4481
-1.35141 0.0496864 21.0143
-1.05297 0.0369821 20.8859
0.576895 -0.0118022 19.8176
1.40771 -0.0917994 20.3255
1.04524 -0.384911 21.2202
0.333304 -0.392462 21.6318
-0.574702 -0.748902 21.4156
-1.00969 -0.810674 21.1246
-0.797002 -0.693004 20.3106
0.514781 0.213452 19.8669
1.02209 0.451186 20.2395
1.01451 0.357632 21.0229
0.411741 0.00976735 21.4561
-0.0452488 -0.333537 21.3105
-0.225663 -0.492672 21.0225
-0.184622 -0.405291 20.7913
-0.875589 -0.150389 1.25937
0.0151112 -4.94671 5.10528
0.0799488 -0.0361496 0.725802
-0.0148859 -0.0423683 0.0129798
-1.48865e-05 0.00197922 0.0170157
0.0126717 0.0257937 0.689383
0 0 0
-0.172631 -0.126085 0.817002
0.00453584 0.128702 -0.174067
0.0123848 0.00365691 0.0823222
1.80646 -0.0611622 0.818233
-0.232044 -0.0600575 1.00385
0.0132425 -0.0386892 0.0110984
-0.0140647 0.0201273 0.525813
0.266459 -0.148611 1.25717
-0.0163568 0.00478938 0.105563
0.054967 -0.00796387 1.34473
3.37301e-06 -5.58377e-06 0.00203384
-0.00150648 -0.00170365 0.0351172
-0.000669905 0.0154504 0.0955723
-0.00162161 0.00593819 0.111638
0.000369313 0.000882265 0.00405173
2.74026e-05 0.0337294 0.0780975
0 0 0
-0.0904633 -0.0113262 2.73626
3.26627e-05 0.000492568 0.0176236
0.0007377 0.0177496 0.096272
-0.0150784 0.0271938 0.111599
0 0 0
5.32785e-05 0.00391536 0.0294209
0.00037071 0.0010585 0.00869122
-0.00223247 8.86149e-05 0.0200087
0 0 0
-3.57891e-19 5.8718e-19 2.77446e-17
0 0 0
-0.00108523 -0.0146146 0.00364804
9.28861e-05 0.0035385 0.0260985
0.000556074 0.0561283 0.365046
-3.01881e-05 0.00158215 -0.00344553
0.000110304 4.44258e-05 0.0433354
-2.09923e-05 0.00609462 0.0408369
-0.000343636 0.000992402 0.00790367
-2.50979 -1.00828 20.3151
-4.37188 -5.08455 20.3173
-1.62587 -1.12084 18.2848
1.56929 0.656964 18.8468
0.401581 1.28207 13.9009
1.15727 1.18029 8.79414
-2.95181 -0.0724024 20.0493
-1.97333 0.00163321 17.738
-3.4431 2.82844 18.9029
0.778893 -0.522334 13.3903
-0.428738 -0.703775 2.95937
0.106783 -0.575639 18.24
4.28245 -4.8267 19.9937
1.60243 -1.0171 18.3456
2.40813 -0.947253 20.3218
-0.419101 1.30206 14.0713
-0.935727 1.03072 7.87728
-1.61985 0.643815 19.2225
1.88156 -0.0466622 17.9022
3.4188 2.72118 18.8654
2.81093 -0.113425 20.0699
0.551194 -0.555988 1.85856
-0.0796601 -0.53265 16.4451
-0.778638 -0.479648 13.4134
-0.344012 -0.781671 21.6176
0.433297 -0.115086 17.3294
0.403752 -0.290048 20.8561
0.63388 0.178971 16.0556
-1.76341 -0.872379 21.5692
-3.88085 1.45051 20.9072
-0.505063 -0.565112 20.4345
-0.721007 0.150052 20.3279
-0.682439 -0.0946257 17.009
0.290834 -0.838329 21.6099
-0.763256 0.180417 16.3549
-0.446201 -0.325838 21.05
3.96652 1.6023 20.7855
1.7776 -0.918549 21.5452
0.536369 0.297046 18.8794
0.572782 -0.606384 20.6668
-0.868028 -0.369358 20.03
-0.558537 -0.18496 19.8723
-0.592934 -0.31416 19.6526
-0.857516 -0.499948 21.0183
-1.18593 -0.474938 20.4433
-1.75256 -1.17487 20.4317
-0.140016 -0.280149 21.3829
-0.48935 -0.419572 21.26
-0.302425 -0.45346 21.4703
0.372235 0.0231425 21.5105
0.0991686 -0.214079 21.4576
0.233872 -0.020011 21.5514
0.863599 0.240734 21.247
0.837276 0.117835 21.414
0.89732 0.673881 21.3841
0.892636 0.189061 21.1631
1.15626 0.14925 21.1168
1.31781 0.846742 20.7754
1.00104 0.0130898 20.5369
0.961356 0.498653 21.3352
-0.965066 -0.286399 19.9637
-0.607737 -0.0864833 19.8115
-0.665129 -0.252443 19.5653
-1.01306 -0.485673 21.0061
-1.41879 -0.226284 20.3647
-0.226526 -0.389592 21.4158
-0.800844 -0.458504 21.2755
0.476118 -0.14833 21.6332
-0.0958442 -0.433855 21.6101
1.17583 0.00828262 21.2435
1.00076 -0.463211 21.3307
1.2215 -0.117267 21.0338
1.2453 -0.450284 20.9594
1.99859 0.536785 19.5931
0.968527 -0.400959 20.5663
1.39867 0.0995751 20.8985
-1.09272 -0.0272449 19.865
-0.599912 0.119153 19.8071
-0.747491 -0.0281278 19.4527
-1.35252 -0.220957 20.957
-1.32717 0.311504 20.2557
-0.723232 -0.403253 21.5105
-1.14658 0.0366604 21.1545
0.166151 -0.521603 21.7055
-0.416224 -0.187925 21.5622
0.805358 -0.755671 21.2705
0.19595 -0.505471 21.3886
0.943219 -0.630826 20.7435
0.433708 -0.593682 21.117
1.18242 -0.842131 18.7348
0.413189 -0.54217 20.7896
1.03471 -0.984415 19.6711
-0.791561 0.367742 19.9815
-0.587891 0.344622 19.6115
-1.05372 0.447081 20.6781
-1.3665 0.929147 20.0433
-0.709021 0.177752 21.3204
-1.39022 0.733704 21.0869
-0.103804 -0.180169 21.3808
-0.474808 0.101791 21.6214
0.162954 -0.403621 21.1704
0.0252479 -0.365937 21.3265
0.250005 -0.456192 20.8702
0.186631 -0.518584 20.8933
0.103295 -0.332351 20.9305
-1.21982 -1.31051 18.9819
-0.585855 -0.419475 19.2836
0.0058699 -0.636752 19.0059
-1.09468 -0.946188 21.938
0.0535808 -6.06144 20.3831
0.0438853 0.0208852 20.6848
0.0561229 -0.634069 18.9284
0.397486 0.569965 20.0717
0.0102735 -0.0381616 17.9212
0.732283 1.35823 19.1466
-0.0222874 0.522748 15.9025
1.17827 1.49106 18.9829
1.43942 1.78215 16.3107
-0.0314981 1.01309 14.6538
1.36427 1.04385 16.9159
0.0520759 1.70267 14.7343
-0.664508 -0.231752 19.0658
0.00791241 -0.586497 18.7494
2.11149 1.1976 13.3167
2.01031 0.16248 7.87432
0.0346829 -0.0298662 2.1609
2.04672 0.24684 14.0824
0.226181 1.33459 7.37245
-0.64912 0.285087 19.0823
0.00531766 -0.0489119 18.4649
1.07693 -0.874844 11.4794
0.308375 -1.14188 20.0344
0.366524 1.25118 -5.68806
0.234647 -0.976959 20.1535
0.262025 -0.151067 -1.14015
-1.00635 1.10908 19.2028
0.0029854 0.670289 19.0068
-1.63073 1.74506 20.474
-0.00290337 3.15064 19.2078
-1.27657 1.08775 21.8516
-0.0540689 3.57963 20.4979
-0.193885 -0.163493 21.6209
-0.0627084 0.713191 22.2601
0.0344403 -0.498889 21.2833
-0.0339129 -0.21925 21.5501
0.117832 -0.624704 20.8949
-0.00463847 -0.615619 21.3009
-0.00691927 -0.483101 20.9374
1.21948 -1.22786 19.0289
0.574985 -0.392934 19.3385
0.566594 -0.271617 19.6895
1.13788 -0.710616 21.7177
1.69509 -1.08821 20.4294
-0.0663963 0.0776567 20.6784
0.264054 -0.435425 21.441
-0.435583 0.60693 20.0515
-0.268482 0.00485045 21.5439
-0.674283 1.39485 19.2184
-0.922572 0.729147 21.3839
-1.10009 1.64784 18.4521
-1.27569 1.73419 15.7487
-1.37116 0.971608 20.8556
-1.27791 1.3606 16.4259
-1.04939 0.675686 21.5611
0.633888 -0.21439 19.1375
0.631461 -0.213169 19.6087
-2.06735 1.45632 12.2732
-1.61641 0.273515 5.30477
-2.21151 0.746062 19.0773
-2.31232 0.717748 10.9571
-1.54516 0.257723 19.6087
0.620962 0.254083 19.1445
0.706966 -0.0345223 19.5128
-0.931601 -0.844889 7.41387
-0.183064 -1.06127 19.8657
-1.35069 -0.818766 16.6357
-0.207685 -1.05609 19.8931
-1.12737 -0.956466 18.3594
0.995139 1.06756 19.206
0.569919 0.314924 19.6305
1.63327 1.7927 20.4558
1.35987 0.909064 20.0222
1.32502 1.29733 21.9078
1.4597 0.803744 21.0599
0.210754 -0.134252 21.6771
0.516387 0.144172 21.6872
-0.00127532 -0.491725 21.2844
0.0106673 -0.375503 21.3618
-0.098756 -0.663372 20.9417
-0.134965 -0.53929 21.0025
-0.0637219 -0.441835 20.8508
0.827327 -0.333181 20.0337
0.522263 -0.166198 19.891
0.811154 -0.484151 20.9882
1.13927 -0.433884 20.4389
0.131055 -0.289522 21.3679
0.48072 -0.42598 21.2358
-0.37632 0.0151885 21.5088
-0.101456 -0.22864 21.4419
-0.877638 0.266431 21.2503
-0.83713 0.0985493 21.4105
-0.995678 0.315336 21.1619
-1.25522 0.209749 21.0691
-1.03382 0.133769 20.7708
0.909133 -0.247913 19.9745
0.563159 -0.0829151 19.8347
0.966736 -0.461555 20.9767
1.36875 -0.225458 20.3541
0.222195 -0.402478 21.3986
0.805459 -0.472633 21.2462
-0.462846 -0.177391 21.6224
0.114249 -0.455016 21.5955
-1.21723 -0.000155766 21.2395
-0.966419 -0.484478 21.3146
-1.41323 -0.0778061 20.7761
-1.36233 -0.493653 20.8603
-1.12877 -0.520161 20.2186
1.01518 -0.0349552 19.8938
0.565289 0.109854 19.8184
1.31931 -0.242137 20.9251
1.30045 0.285373 20.2438
0.740682 -0.423583 21.4924
1.19603 0.0313256 21.1379
-0.13218 -0.522411 21.7028
0.467599 -0.197564 21.5773
-0.786548 -0.799779 21.2849
-0.170932 -0.532698 21.4084
-0.980443 -0.732029 20.553
-0.406216 -0.660628 21.2249
-0.4039 -0.630447 20.7557
0.778146 0.345656 19.9725
1.07219 0.452119 20.654
0.770181 0.202501 21.3319
0.136283 -0.178289 21.4229
-0.143225 -0.439729 21.1665
-0.251436 -0.394857 20.8214
-0.926248 -0.328003 19.9929
-1.46646 -1.28925 18.6141
-1.12777 -0.701623 19.6523
-1.40509 -0.566004 19.419
-0.633037 -0.281675 19.6044
-2.12986 -1.14762 20.3901
-0.932493 -0.498193 21.015
-0.0329123 -0.46604 18.0753
-0.925415 -0.803563 21.3912
-1.22444 -0.967782 21.5916
-0.299667 -0.579117 21.5189
-0.177232 -0.336613 21.3977
0.586071 0.0406339 16.1579
0.0151128 -0.23407 21.5278
0.105748 -0.573881 21.3678
0.358905 -0.120893 21.3764
0.411792 -0.0606802 21.5609
0.585027 0.539313 14.7878
0.526244 0.274972 21.5761
0.791287 0.143508 19.9206
1.27419 0.726329 20.5991
1.04716 0.13558 21.2494
0.87741 1.51643 14.9203
1.1403 0.797585 20.9635
1.75754 0.596889 19.1135
1.5291 0.724719 20.7589
1.1134 0.0492339 20.9909
1.61686 1.37977 16.2834
1.40764 0.927371 20.9572
1.94806 0.417964 19.2781
1.10776 0.364567 21.355
-1.07522 -0.157713 19.908
-1.89925 -0.689284 17.8308
-1.62317 -0.03868 19.2399
-0.722473 -0.175721 19.4861
-2.90082 -0.612147 20.1783
-1.22687 -0.35419 20.9859
-2.27751 -0.571262 21.3503
-0.874873 -1.12385 21.6783
-0.445456 -0.49334 21.4827
-1.20166 -0.888314 21.2912
0.0789759 -0.431719 19.4707
0.396641 -0.422743 21.6694
0.438088 -0.178367 17.9999
1.45901 0.0999497 14.0693
1.16025 -0.469012 21.1984
0.651538 -0.396222 3.75099
0.935018 -0.739306 17.2676
1.91879 -0.209991 18.541
1.10534 -0.484314 21.2879
2.16475 0.277337 10.9375
1.11237 -1.00552 20.0159
1.52319 -0.459562 19.8918
-0.982022 0.241731 19.8938
-1.58138 1.00377 18.3477
-0.987795 0.671912 19.6587
-0.703131 0.222345 19.4965
-2.22632 0.82621 19.9102
-1.34525 0.204127 20.7848
-3.10977 1.88402 20.8481
-1.48044 0.892115 20.6365
-2.00619 0.239157 21.2865
-0.84666 -0.0799125 21.4562
-2.64493 0.373189 21.6952
-1.0052 0.456325 21.5387
-0.664345 -0.126805 21.8876
-0.0548322 -0.350718 21.5364
0.105022 -0.372816 19.1224
-0.137723 -0.196348 21.5041
0.0736988 -0.684448 21.4693
0.321342 -0.601575 21.2871
0.140766 -0.799691 19.0995
0.127256 -0.465938 21.1773
0.359886 -0.810744 21.31
0.429213 -0.533163 20.9865
0.379363 -1.05425 19.8014
0.287583 -0.480989 20.9214
0.334101 -0.70048 20.6998
1.41571 -1.15136 18.692
0.00364168 -2.06917 18.1319
-0.00966791 -1.84765 16.7962
0.00394877 -0.634656 18.8589
0.0538972 -9.53812 20.4084
-0.0880834 -0.206166 17.4072
0.144145 -1.80555 21.8887
-0.0720451 -0.143199 9.63176
-0.746444 0.0150364 16.402
0.0181226 -0.286207 17.9725
-0.0565701 0.103788 9.95817
-0.711771 0.564861 15.0584
-0.00653728 0.193308 16.6262
-0.0505377 0.415969 8.60197
-0.705198 1.47521 14.2302
-0.0221577 0.719828 15.2002
-0.0785649 -0.190558 2.03265
-0.00814634 0.676522 8.92377
-1.53404 1.57167 15.696
0.0120495 1.49638 15.2071
0.114701 0.565763 4.2739
0.218451 1.61199 11.8693
1.7951 -0.59874 18.0094
-0.00969012 -0.042499 15.7357
0.00868365 -0.34581 18.5992
-0.380428 -0.375055 2.6144
0.0389527 1.0141 -4.56846
0.340129 0.305902 -3.81109
-2.27791 0.640756 8.41271
0.418312 0.438608 -3.24594
0.265321 0.64316 1.12204
1.52401 0.938245 18.4309
0.00348728 1.74521 18.6026
0.00605042 0.423386 18.6412
0.0119024 6.62251 17.3521
3.22914 1.93567 20.8867
-0.0267242 2.97992 20.134
-0.0506873 5.15343 17.1113
2.77258 0.330008 20.7876
-0.0966514 2.64381 22.4045
-0.00228029 0.187072 13.6261
-0.284666 -0.298867 17.5848
-0.0401908 0.0198383 21.8478
-0.0520225 0.0110627 9.65983
-0.0661782 -0.737995 17.8131
-0.0200432 -0.38974 21.4296
0.0574149 -0.826019 14.038
-0.28849 -1.06572 19.3301
-0.0289063 -0.617822 21.5006
-0.00945704 -0.642554 15.6292
0.873864 -0.302657 20.004
1.08466 -0.647791 19.6752
1.34304 -0.518454 19.4594
0.599028 -0.242393 19.6491
2.03547 -1.05231 20.3791
0.885852 -0.484554 21.0148
0.867349 -0.743173 21.3605
1.10566 -0.946737 21.5017
0.235932 -0.589843 21.4863
0.171461 -0.346565 21.3805
-0.0534193 -0.210217 21.5063
-0.167032 -0.615396 21.395
-0.397834 -0.125217 21.427
-0.404578 -0.075583 21.5423
-0.557417 0.304951 21.5816
-0.846996 0.118828 20.3509
-1.3229 0.754197 20.7197
-1.08307 0.156812 21.2483
-1.15807 0.87476 21.0287
-1.83867 0.708538 18.9217
-1.74233 0.888543 20.3784
-1.29487 0.0927838 20.7555
-1.52801 1.12344 21.1049
-1.96859 0.6032 19.1553
-1.26032 0.515568 20.3269
0.951961 -0.142241 19.9261
1.52716 -0.0500623 19.2978
0.689469 -0.155077 19.5363
2.77037 -0.58107 20.1988
1.19539 -0.371774 20.9543
2.2497 -0.638445 21.2866
0.881726 -1.20316 21.6751
0.456603 -0.506775 21.4643
1.25011 -0.904389 21.4794
-0.0388978 -0.512647 19.6834
-0.365913 -0.441332 21.6731
-0.393252 -0.186616 18.1446
-1.45045 0.167025 14.3309
-1.19109 -0.512038 21.1794
-0.859725 -0.68284 15.4185
-2.07547 -0.1788 16.6317
-1.27315 -0.440342 20.7767
-1.19939 -0.965325 17.6613
-1.67139 -0.292322 18.3612
0.934657 0.225741 19.898
0.972805 0.639 19.6559
0.674023 0.195506 19.5291
2.18946 0.807614 19.8836
1.3608 0.191349 20.7607
1.5107 0.920842 20.6111
2.06872 0.231709 21.2572
0.897963 -0.0903845 21.4584
1.08572 0.540178 21.5646
0.733983 -0.118159 21.929
0.0823124 -0.358158 21.5714
0.168735 -0.176569 21.5415
-0.0273096 -0.689617 21.4135
-0.300608 -0.634206 21.3474
-0.0811797 -0.492521 21.2222
-0.368629 -0.939332 20.7217
-0.451106 -0.60619 21.0448
-0.200035 -0.593275 21.1085
-0.28823 -0.832739 20.5
-1.28563 -0.642637 19.5647
-1.05799 -0.892949 21.4771
0.0830369 -0.36419 21.5122
0.729867 0.220408 21.1518
1.49419 0.736189 20.7328
1.69925 0.718145 20.4653
-1.56295 -0.326228 19.2984
-1.70338 -0.953933 21.5616
-0.3109 -0.991181 20.9561
0.680388 0.152449 17.5558
1.65374 -0.135905 16.8627
1.88063 -0.135061 18.4587
-1.35987 0.487621 19.3836
-2.14892 0.550614 20.8648
-1.45764 0.0346614 21.8121
-0.132026 -0.427706 21.7376
0.228218 -0.779627 21.3376
0.45901 -0.834309 21.1556
-0.0152617 -2.17287 17.4899
-0.0300066 -0.458563 10.9815
-0.0773355 -0.0389898 9.42994
-0.0500731 0.193379 9.12187
-0.0571218 0.398313 8.50219
0.108214 1.18343 9.93872
-0.0164185 -1.22873 15.8966
0.045074 0.161446 -3.0877
0.353447 0.071364 -1.66705
0.000442459 1.73446 16.9696
-0.00255886 4.00426 19.9117
-0.0285829 2.01611 12.3831
-0.0234529 -0.189213 11.1929
-0.0964726 -0.149996 11.2273
-0.0642239 -0.85517 14.7836
1.22964 -0.583782 19.6061
0.967133 -0.848734 21.4315
-0.13873 -0.368052 21.5015
-0.774286 0.227752 21.2641
-1.55057 0.838749 20.5756
-1.77145 0.914618 20.3414
1.46503 -0.312753 19.3681
1.63157 -1.00555 21.4697
0.34862 -1.06694 21.0133
-0.651497 0.132836 17.6939
-1.62932 -0.058433 15.5698
-1.98643 -0.0836063 16.5378
1.30115 0.456755 19.4089
2.20026 0.534728 20.8396
1.57404 0.0417825 21.8298
0.170009 -0.430688 21.7396
-0.179173 -0.79821 21.2275
-0.488789 -0.989173 20.5293
-1.17017 -0.409497 1.74465
-0.863484 -9.25176 7.1165
0.263434 -0.302868 1.35267
0.0104563 -0.0247541 0.00573531
-0.0206535 0.0246143 0.181499
-0.0393422 0.0352926 0.456149
-1.2287 0.0766037 1.69444
-0.255992 0.428767 0.268413
-0.225793 -0.0244488 0.528638
-0.0204937 -0.0292178 -0.00618498
-0.104483 0.0608456 -0.104372
-0.0311091 -0.0279872 0.0726312
0.377539 -4.11259 2.96445
3.43082 -0.901445 2.22101
-0.167464 -0.0732315 1.05516
0.00179504 0.00445717 0.0247086
-0.0134407 -0.0251308 0.00912793
0.034283 0.0596555 0.508001
0.40975 0.629948 0.405206
3.32427 0.906417 2.16302
0.121041 -0.0786815 0.315058
0.105864 0.0694671 -0.117168
0.0206617 -0.0294912 -0.00638083
0.027318 -0.0245827 0.0623589
0.0208647 -0.0129351 1.12748
0.105907 -0.0438618 2.00951
0 0 0
0 0 0
0.00347252 0.00298218 0.0878166
0.0256996 8.78144e-05 0.75489
0 0 0
0.00330059 0.000929802 0.033123
-0.0207147 -0.0504811 0.226644
1.29764e-05 0.000261535 0.0111156
0.011951 0.0475347 0.327926
-0.0420124 0.0188605 0.0550519
0 0 0
0.000689356 0.00351369 0.0143797
0 0 0
0.0104254 0.00175037 0.0631727
-0.108511 -0.0999237 0.982326
4.13315e-18 -6.71262e-19 -2.63743e-17
-0.156413 -0.0614448 3.08527
0 0 0
-0.0154667 0.0104762 0.324826
0 0 0
-0.0687532 0.000762629 1.92363
0 0 0
0.0591031 -0.118039 0.5442
0.0518049 0.0154921 0.0517938
3.01641e-05 7.24288e-05 0.00599782
-0.00123255 0.0472252 0.460779
0 0 0
-0.0267669 0.00611037 0.154039
0 0 0
0 0 0
-0.0163103 -0.0264334 0.0851291
0 0 0
-0.000842387 -0.00025683 0.00918722
0 0 0
-3.71287e-05 -0.000209564 0.00378939
0 0 0
0.00581775 -0.00115759 0.0339199
-0.0265836 -0.0117807 0.00576089
-1.32902e-05 4.30352e-05 0.00118246
0 0 0
-2.68034e-18 -6.07825e-18 -6.02388e-17
-9.47623e-05 0.000484099 0.0260572
0.000302377 0.00974533 0.0177071
0.000132454 0.00442393 0.0186431
0 0 0
-0.0210069 0.00818437 0.0731403
-6.36885e-19 -6.0347e-18 -1.03868e-18
0 0 0
0 0 0
-0.00399286 0.00111905 -0.00245878
0.156966 -0.201107 0.11836
0 0 0
0 0 0
-0.00293891 -0.0118531 0.418538
0.0274295 -0.0125706 0.0059824
-0.00363547 -0.000985239 0.0218059
0 0 0
0 0 0
0.0300952 0.0173647 0.131809
0.00261985 0.00149839 0.0809878
0.00473352 0.00141673 -0.00302849
0 0 0
0 0 0
-5.19329e-18 -1.92243e-19 -5.36343e-17
-3.50269e-05 -0.0016338 0.0363539
4.45635e-06 0.00053136 0.00838787
0 0 0
0 0 0
-0.000287892 0.00857859 0.0542842
7.11551e-05 0.0297899 0.24742
0 0 0
0 0 0
0.0207218 0.0782348 0.356824
-0.174516 0.126747 1.41379
0.000464572 0.00558402 0.0451833
-1.24804e-05 0.0284826 0.0594622
-3.97838e-05 0.000219953 0.00640804
-6.01419e-05 -0.00578707 0.0547287
0 0 0
0 0 0
0 0 0
1.03508e-05 0.000409122 0.00472028
0.000217558 0.00588849 0.0333044
0.000590257 0.0229863 0.178858
0.170297 0.144861 1.13186
-0.0120565 0.0667831 0.300136
-0.0131719 -0.0145641 0.063822
-0.128906 -0.0852622 0.480936
5.55685e-05 -0.000331377 0.00727006
-0.00149933 -0.00681833 0.0746816
0 0 0
0.000658667 0.00580749 0.0332861
5.62989e-19 -3.49938e-18 -4.04649e-17
0.000127107 0.000830883 0.00329456
-0.000299914 0.0034197 0.0381313
2.36954e-18 1.12795e-17 5.8708e-17
0 0 0
0.00723527 -0.00582827 0.0598591