# vtk DataFile Version 2.0
tet_velo
ASCII
DATASET UNSTRUCTURED_GRID
POINTS 29498 float
-0.840506 0.235 -2.175
-0.895 0.215 2.12292
-0.795 0.69732 -2.095
-0.775 0.722159 2.085
0.840504 0.235 -2.175
0.895 0.215 2.12292
0.795 0.69732 -2.095
0.775 0.722159 2.085
-0.832969 0.254035 -0.74236
-0.83468 0.263822 0.69028
-0.788551 0.705818 -0.701667
-0.781814 0.714027 0.691667
0.832969 0.254034 -0.74236
0.834684 0.263817 0.69028
0.788555 0.705821 -0.701667
0.781809 0.714022 0.691667
-1.65004 0.00293113 -3.32304
-1.65036 0.0117117 -2.19267
-1.64414 0.0282004 -0.759015
-1.64525 0.0310864 0.682552
-1.6759 -0.00137647 2.11687
-1.68883 -0.0171252 3.25051
-1.69084 -0.0217191 4.3781
-1.64878 0.230157 -3.29717
-1.64685 0.237625 -2.1711
-1.63873 0.25449 -0.745088
-1.63983 0.263834 0.684458
-1.67979 0.234745 2.11122
-1.69482 0.21983 3.2443
-1.696 0.215038 4.37317
-1.62914 0.689455 -3.2344
-1.61123 0.696646 -2.1067
-1.60119 0.707917 -0.707489
-1.59302 0.720628 0.688939
-1.60217 0.722591 2.0889
-1.65366 0.707573 3.22361
-1.6808 0.697145 4.35882
-1.61461 1.3827 -3.1698
-1.60535 1.38959 -2.04799
-1.5981 1.40004 -0.661518
-1.59532 1.41249 0.716478
-1.60463 1.42078 2.10336
-1.62703 1.41925 3.22603
-1.65215 1.4131 4.35695
-0.834255 0.00120459 -3.32558
-0.833767 0.00984423 -2.19637
-0.82807 0.0280889 -0.758519
-0.823523 0.0303443 0.687521
-0.849783 -0.0134369 2.12556
-0.866691 -0.0262803 3.2564
-0.871192 -0.027415 4.38151
-0.837591 0.228559 -3.29795
-0.885463 0.210758 3.24916
-0.881558 0.209664 4.37574
-0.822933 0.688778 -3.22954
-0.853167 0.704679 3.22283
-0.874542 0.694363 4.35865
-0.809456 1.38181 -3.16499
-0.802041 1.38858 -2.04269
-0.797236 1.39864 -0.658326
-0.795708 1.41137 0.716095
-0.803916 1.42071 2.10062
-0.824639 1.41927 3.2233
-0.847397 1.41278 4.35496
0.816362 0.00120448 -3.32558
0.832683 0.00984388 -2.19637
0.832367 0.0280872 -0.758519
0.846644 0.0303411 0.687521
0.879894 -0.0134381 2.12556
0.826569 -0.0262815 3.2564
0.791024 -0.0274163 4.38151
0.809453 0.228559 -3.29795
0.804613 0.210757 3.24916
0.774826 0.209663 4.37574
0.794212 0.688778 -3.22954
0.763161 0.704678 3.22283
0.75507 0.694362 4.35865
0.799753 1.38181 -3.16499
0.80068 1.38858 -2.04269
0.798882 1.39864 -0.658326
0.795287 1.41137 0.716095
0.788077 1.42071 2.10062
0.776408 1.41927 3.2233
0.763681 1.41277 4.35496
1.63887 0.00293068 -3.32304
1.65308 0.011711 -2.19267
1.65279 0.0281975 -0.759015
1.66546 0.0310809 0.682552
1.69452 -0.00138004 2.11687
1.65915 -0.017128 3.25051
1.62165 -0.0217221 4.3781
1.63193 0.230157 -3.29717
1.64902 0.237626 -2.1711
1.64355 0.254488 -0.745088
1.64697 0.263828 0.684458
1.68112 0.234742 2.11122
1.64034 0.219828 3.2443
1.6056 0.215036 4.37317
1.61133 0.689455 -3.2344
1.61287 0.696647 -2.1067
1.60476 0.707918 -0.707489
1.5966 0.720622 0.688939
1.59748 0.722588 2.0889
1.58873 0.707571 3.22361
1.57758 0.697142 4.35882
1.60704 1.3827 -3.1698
1.60552 1.38959 -2.04799
1.60126 1.40004 -0.661518
1.59579 1.41249 0.716478
1.58922 1.42078 2.10336
1.58149 1.41924 3.22603
1.57284 1.4131 4.35695
-0.774756 0.46616 -2.092
-1.01328e-06 0.258162 -2.15184
-0.844094 0.237161 -1.45868
-0.836732 0.46858 2.10569
0 0.217391 2.12053
-0.853407 0.250844 1.4066
0 0.713354 -2.11103
-0.791764 0.701557 -1.39833
0 0.720661 2.0835
-0.778368 0.718054 1.38833
0.774736 0.46616 -2.09198
0.844092 0.237162 -1.45868
0.837451 0.46858 2.10641
0.846818 0.257433 1.4066
0.791779 0.701572 -1.39833
0.778362 0.718048 1.38833
-0.833812 0.258941 -0.02604
-0.843012 0.479927 -0.722013
1.38442e-07 0.141191 -0.74236
-0.842682 0.488924 0.690974
1.74851e-06 0.141244 0.69028
-0.785207 0.709947 -0.005
1.56518e-06 1.05362 -0.701667
-2.52225e-06 1.11367 0.691667
0.833817 0.258935 -0.02604
0.843186 0.479927 -0.722013
0.842732 0.48892 0.690974
0.785206 0.709946 -0.005
-0.83568 0.473043 -1.42851
-0.842857 0.484425 -0.01552
-0.841838 0.478752 1.39747
-4.37419e-07 0.223649 -1.45868
9.43476e-07 0.141218 -0.02604
8.74255e-07 0.183324 1.4066
-5.06639e-07 0.46616 -2.15894
0 0.46858 2.10621
7.82588e-07 0.830202 -1.39833
-4.78538e-07 1.17079 -0.005
-1.26113e-06 0.780738 1.38833
0.83568 0.473044 -1.42851
0.842922 0.484423 -0.01552
0.837082 0.47875 1.39747
-1.24368 0.236313 -2.17305
-0.837136 0.122422 -2.18569
-0.839049 0.23178 -2.73648
-1.2874 0.224872 2.11707
-0.872392 0.100782 2.12424
-0.890232 0.212879 2.68604
-1.20312 0.696983 -2.10085
-0.808967 0.693049 -2.66227
-0.79852 1.04295 -2.06885
-1.18859 0.722375 2.08695
-0.814083 0.713419 2.65391
-0.789458 1.07143 2.09281
0.836593 0.122422 -2.18569
0.824978 0.23178 -2.73648
1.24476 0.236313 -2.17305
0.887447 0.100781 2.12424
0.849807 0.212878 2.68604
1.28806 0.224871 2.11707
0.794606 0.693049 -2.66227
0.79784 1.04295 -2.06885
1.20394 0.696983 -2.10085
0.76908 0.713419 2.65391
0.781538 1.07143 2.09281
1.18624 0.722374 2.08695
-1.23585 0.254263 -0.743724
-0.830519 0.141062 -0.750439
-1.23725 0.263828 0.687369
-0.829102 0.147083 0.688901
-1.19487 0.706867 -0.704578
-0.792894 1.05223 -0.679997
-1.18742 0.717328 0.690303
-0.788761 1.0627 0.703881
0.832668 0.14106 -0.75044
1.23826 0.254261 -0.743724
0.840664 0.147079 0.688901
1.24083 0.263823 0.687369
0.793718 1.05223 -0.679997
1.19666 0.706869 -0.704578
0.788548 1.06269 0.703881
1.1892 0.717322 0.690303
-1.6502 0.0073214 -2.75786
-1.64941 0.116544 -3.31011
-1.24215 0.00206786 -3.32431
-1.64725 0.019956 -1.47584
-1.6486 0.124669 -2.18188
-1.24206 0.010778 -2.19452
-1.64469 0.0296434 -0.0382316
-1.64144 0.141345 -0.752052
-1.23611 0.0281446 -0.758767
-1.66057 0.014855 1.39971
-1.64254 0.14746 0.683505
-1.23438 0.0307154 0.685036
-1.68236 -0.00925083 2.68369
-1.67784 0.116684 2.11405
-1.26284 -0.00740667 2.12122
-1.68984 -0.0194221 3.8143
-1.69183 0.101353 3.2474
-1.27776 -0.0217028 3.25345
-1.69342 0.0966597 4.37564
-1.28102 -0.024567 4.3798
-1.64782 0.233891 -2.73413
-1.63896 0.459806 -3.26579
-1.24319 0.229358 -3.29756
-1.64279 0.246058 -1.45809
-1.62904 0.467136 -2.1389
-1.63928 0.259162 -0.0303149
-1.61996 0.481203 -0.726288
-1.65981 0.24929 1.39784
-1.61642 0.492231 0.686698
-1.68731 0.227288 2.67776
-1.64098 0.478668 2.10006
-1.69541 0.217434 3.80873
-1.67424 0.463702 3.23395
-1.29014 0.215294 3.24673
-1.6884 0.456092 4.366
-1.28878 0.212351 4.37446
-1.62019 0.69305 -2.67055
-1.62188 1.03608 -3.2021
-1.22603 0.689116 -3.23197
-1.60621 0.702281 -1.40709
-1.60829 1.04312 -2.07734
-1.5971 0.714273 -0.00927497
-1.59965 1.05398 -0.684503
-1.59759 0.72161 1.38892
-1.59417 1.06656 0.702708
-1.62791 0.715082 2.65626
-1.6034 1.07169 2.09613
-1.66723 0.702359 3.79121
-1.64035 1.06341 3.22482
-1.25341 0.706126 3.22322
-1.66647 1.05512 4.35788
-1.27767 0.695754 4.35874
-1.60998 1.38615 -2.60889
-1.21204 1.38226 -3.1674
-1.60172 1.39481 -1.35475
-1.20369 1.38909 -2.04534
-1.59671 1.40626 0.0274801
-1.19767 1.39934 -0.659922
-1.59998 1.41664 1.40992
-1.19551 1.41193 0.716287
-1.61583 1.42001 2.66469
-1.20428 1.42074 2.10199
-1.63959 1.41617 3.79149
-1.22584 1.41926 3.22466
-1.24977 1.41294 4.35596
-0.834011 0.00552441 -2.76097
-0.835923 0.114882 -3.31176
-0.00894638 0.00120454 -3.32558
-0.830918 0.0189666 -1.47744
-0.000541958 0.00984405 -2.19637
-0.825796 0.0292166 -0.0354989
0.00214866 0.0280881 -0.758519
-0.836653 0.00845373 1.40654
0.0115603 0.0303427 0.687521
-0.858237 -0.0198586 2.69098
0.0150555 -0.0134375 2.12556
-0.868941 -0.0268477 3.81896
-0.876077 0.0922387 3.25278
-0.0200609 -0.0262809 3.2564
-0.876375 0.0911247 4.37863
-0.0400839 -0.0274157 4.38151
-0.830262 0.458668 -3.26375
-0.0140693 0.228559 -3.29795
-0.883511 0.210211 3.81245
-0.869315 0.457718 3.23599
-0.0404251 0.210757 3.24916
-0.87805 0.452014 4.3672
-0.0533657 0.209664 4.37574
-0.816195 1.03529 -3.19727
-0.0143607 0.688778 -3.22954
-0.863854 0.699521 3.79074
-0.838903 1.06197 3.22306
-0.0450031 0.704679 3.22283
-0.86097 1.05357 4.35681
-0.0597358 0.694363 4.35865
-0.805748 1.3852 -2.60384
-0.00485157 1.38181 -3.16499
-0.799638 1.39361 -1.35051
-0.000680635 1.38858 -2.04269
-0.796472 1.40501 0.0288845
0.00082282 1.39864 -0.658326
-0.799812 1.41604 1.40836
-0.000210624 1.41137 0.716095
-0.814278 1.41999 2.66196
-0.00791984 1.42071 2.10062
-0.836018 1.41602 3.78913
-0.0241156 1.41927 3.2233
-0.041858 1.41277 4.35496
0.824522 0.00552418 -2.76097
0.812907 0.114882 -3.31176
1.22762 0.00206758 -3.32431
0.832525 0.0189656 -1.47744
1.24288 0.0107774 -2.19452
0.839505 0.0292142 -0.0354989
1.24258 0.0281424 -0.758767
0.863269 0.00845148 1.40654
1.25605 0.030711 0.685036
0.853232 -0.0198598 2.69098
1.28721 -0.00740909 2.12122
0.808796 -0.0268489 3.81896
0.815591 0.0922377 3.25278
1.24286 -0.0217047 3.25345
0.782925 0.0911234 4.37863
1.20634 -0.0245692 4.37981
0.801832 0.458668 -3.26375
1.22069 0.229358 -3.29756
0.78972 0.21021 3.81245
0.783887 0.457718 3.23599
1.22248 0.215292 3.24673
0.764948 0.452013 4.3672
1.19021 0.212349 4.37446
0.796982 1.03529 -3.19727
1.20277 0.689116 -3.23197
0.759115 0.69952 3.79074
0.769784 1.06197 3.22306
1.17595 0.706125 3.22322
0.759376 1.05357 4.35681
1.16633 0.695752 4.35874
0.800216 1.3852 -2.60384
1.2034 1.38226 -3.1674
0.799781 1.39361 -1.35051
1.2031 1.38909 -2.04534
0.797084 1.405 0.0288844
1.20007 1.39934 -0.659922
0.791682 1.41604 1.40836
1.19554 1.41193 0.716286
0.782242 1.41999 2.66196
1.18865 1.42074 2.10199
0.770045 1.41602 3.78913
1.17895 1.41926 3.22466
1.16826 1.41294 4.35596
1.64597 0.00732083 -2.75786
1.6354 0.116544 -3.31011
1.65293 0.0199542 -1.47584
1.65105 0.124668 -2.18188
1.65912 0.0296392 -0.0382316
1.64817 0.141343 -0.752052
1.67999 0.0148504 1.39971
1.65621 0.147455 0.683505
1.67683 -0.009254 2.68369
1.68782 0.116681 2.11405
1.6404 -0.019425 3.8143
1.64974 0.10135 3.2474
1.61363 0.0966568 4.37564
1.64048 0.233891 -2.73413
1.62163 0.459806 -3.26579
1.64629 0.246057 -1.45809
1.63095 0.467136 -2.1389
1.64526 0.259158 -0.030315
1.62416 0.481203 -0.726288
1.66405 0.249285 1.39784
1.62179 0.492225 0.686698
1.66073 0.227285 2.67776
1.6393 0.478665 2.10006
1.62297 0.217432 3.80873
1.61453 0.463699 3.23395
1.59159 0.456089 4.366
1.6121 0.693051 -2.67055
1.60919 1.03608 -3.2021
1.60882 0.702282 -1.40709
[...]
POINT_DATA 29498
VECTORS point_vectors float
-3.68773 -3.58188 8.82789
0.513359 0.356086 6.46878
-3.57919 2.51711 7.11985
0.566338 -0.0296873 1.93608
3.69356 -3.58298 8.83144
-0.514379 0.349444 6.52059
3.57454 2.50927 7.12317
-0.563927 -0.0255095 2.19528
0.00421506 -0.00373645 0.0652896
0 0 0
-0.0206027 -0.0198396 0.345253
0.0253945 0.027402 0.0929292
-0.00419995 -0.00368376 0.0658189
0 0 0
0.00821672 -0.00965394 0.24626
-0.0250974 0.0270624 0.0926559
-0.521336 -0.128081 19.8594
-1.13542 -0.394369 20.4129
-0.509826 -0.174653 21.1586
0.0358747 0.0654007 21.2582
0.383029 0.217138 21.1277
0.501053 0.310325 20.7194
0.442031 0.146002 20.6437
-0.561595 -0.06885 19.796
-1.35234 -0.293171 20.4133
-0.549347 -0.181512 21.198
0.07778 0.027818 21.31
0.468846 0.157668 21.1463
0.560377 0.210222 20.5776
0.569948 0.15856 20.8122
-0.627279 0.0778965 19.7667
-1.51654 0.139179 20.444
-0.747796 -0.104495 21.2189
0.0546328 -0.0552353 21.4014
0.578664 -0.0139174 21.2
0.755938 -0.108671 20.4797
0.709172 -0.0637924 20.797
-0.507993 0.308573 19.9106
-0.960629 0.543325 20.404
-0.721155 0.245239 21.1174
-0.0362378 -0.0389452 21.3181
0.413553 -0.242063 21.099
0.482536 -0.293334 20.8999
0.378611 -0.302439 20.6112
-0.533833 -0.322447 19.2965
-2.99279 -3.68173 20.1401
-0.633549 -0.210778 17.0725
0.344079 0.0395943 14.5989
0.608137 0.59895 18.015
0.704482 1.0369 18.2859
0.506042 0.65877 19.0813
-0.601239 -0.212911 19.1207
1.04276 1.27424 13.7668
0.873367 0.462952 15.4672
-0.720997 0.183098 18.9819
2.19075 -0.107047 13.4783
1.19792 -0.120562 14.5024
-0.506803 0.63671 19.4492
-1.49946 1.98483 20.2176
-1.81714 1.40527 21.468
-0.00573 -0.169521 21.8487
0.586127 -0.775553 20.9088
0.692681 -0.914065 20.5612
0.538743 -0.573437 20.8346
0.526524 -0.325445 19.278
2.99774 -3.6917 20.1439
0.644929 -0.20101 17.2032
-0.271979 0.109812 15.4578
-0.580638 0.590526 18.6481
-0.65232 1.08995 17.5552
-0.531416 0.512507 18.0335
0.599742 -0.217043 19.0902
-0.945811 1.4188 11.478
-0.903403 0.370895 13.9267
0.720774 0.182195 18.9312
-1.80676 -0.248465 9.49168
-1.24381 -0.154451 12.6338
0.502469 0.640093 19.4435
1.49908 1.98848 20.2169
1.81469 1.40067 21.4693
0.00623646 -0.171618 21.8492
-0.584925 -0.79383 20.8779
-0.672384 -0.980577 20.5444
-0.543309 -0.60973 20.9128
0.530463 -0.131508 19.8568
1.14165 -0.378782 20.4108
0.50746 -0.171785 21.1535
-0.037831 0.0630703 21.2562
-0.377102 0.21338 21.1196
-0.539689 0.319039 20.7317
-0.461784 0.142103 20.6151
0.569273 -0.0756143 19.7804
1.34868 -0.28988 20.4234
0.54935 -0.178375 21.1952
-0.0783512 0.0309783 21.3086
-0.457031 0.154806 21.1449
-0.624869 0.230058 20.6934
-0.609141 0.145316 20.787
0.631128 0.0856937 19.7569
1.51417 0.138999 20.453
0.742881 -0.104089 21.2207
-0.0580682 -0.0586348 21.4025
-0.580185 -0.0106614 21.1932
-0.80238 -0.107296 20.4605
-0.730141 -0.0493702 20.7416
0.508719 0.310668 19.9105
0.960768 0.542946 20.4022
0.718982 0.245942 21.1145
0.0354242 -0.0393035 21.3279
-0.417894 -0.243128 21.1006
-0.511655 -0.317757 20.831
-0.383956 -0.285233 20.5508
0 0 0
-0.00184496 -4.94386 3.741
0.0161864 0.0630921 2.05055
0.106488 0.0817982 0.816555
-4.71531e-05 0.0715909 0.284161
0.0104878 0.0467708 1.06614
-0.00093878 2.00498 1.93433
-0.0622131 -0.0925754 0.408548
0.000738853 0.088433 -0.0308371
0.0274107 0.0274148 0.0890908
0 0 0
-0.011792 0.0668257 2.08127
-0.112129 0.0880241 0.875729
-0.0119786 0.0388309 0.915833
0.0626278 -0.0935211 0.408847
-0.0280499 0.0281145 0.0891952
-0.00062877 0.0104531 0.138726
0 0 0
2.85005e-07 -1.17148e-06 5.57838e-05
4.55324e-05 0.00086433 0.00332157
-8.55979e-07 -6.61996e-07 -0.000441902
0.0331251 0.0492898 0.222784
-0.000238287 0.122207 0.150984
5.8661e-06 -0.0153008 0.0850804
0.000656018 0.0105973 0.139212
-1.091e-06 0.000143178 0.00227488
-0.000139866 0.00200932 0.00878179
-0.0329305 0.0490182 0.222702
0 0 0
0 0 0
0 0 0
9.47105e-10 9.18519e-08 -2.49746e-06
7.99287e-08 -6.50462e-08 1.37595e-05
0 0 0
-1.5234e-05 -0.000165416 0.00357835
4.42849e-05 0.000918789 -0.000674962
4.54709e-07 -3.64116e-07 -4.30251e-06
2.02398e-07 7.37886e-05 0.00694372
2.48698e-07 3.94595e-06 -8.16726e-05
0 0 0
0 0 0
0 0 0
-2.62565 -0.918852 20.3742
-4.73851 -5.31401 20.1233
-1.66644 -0.81362 18.1952
0.685312 0.392776 21.1392
0.829276 0.312657 15.0237
0.980427 0.807014 12.7991
-3.31415 0.674841 20.3768
-2.07247 0.887608 17.6133
-3.07051 3.24198 20.3354
0.995605 0.0942079 19.9599
1.51355 0.310422 9.31317
1.53277 -0.26082 16.454
4.74827 -5.32844 20.1283
1.67802 -0.859084 18.1141
2.62221 -0.910882 20.3785
-0.789462 0.314728 15.5876
-0.682007 0.768713 10.5784
-0.677227 0.389849 21.1379
2.05972 0.900953 17.5451
3.07322 3.24781 20.3333
3.30497 0.668302 20.3789
-1.24723 0.142158 7.58539
-1.5522 -0.258197 16.3205
-0.99661 0.110069 19.898
-0.426736 -0.372178 21.3548
0.242266 0.0462138 6.86899
0.312325 0.1675 20.9879
0.151047 -0.320144 5.81481
-1.12472 -0.327298 20.8279
-3.21946 0.236831 18.504
0.206276 -0.0947355 20.0025
0.722791 0.817497 13.2445
-0.254006 0.0451703 7.1329
0.435331 -0.374282 21.364
-0.107706 -0.268699 7.20822
-0.326065 0.16075 21.019
3.2147 0.23754 18.5189
1.12967 -0.326658 20.8617
-0.706966 0.821119 13.1433
-0.213583 -0.105436 20.0341
-0.87473 -0.273788 19.9572
-0.549017 -0.104767 19.8378
-0.577267 -0.207971 19.6044
-0.878734 -0.317089 20.9504
-1.21437 -0.358185 20.4059
-1.93593 -1.0613 20.3537
-0.203199 -0.0456929 21.2467
-0.53124 -0.17088 21.1773
-0.501689 -0.157429 21.3812
0.22876 0.156705 21.2377
0.0571346 0.0574404 21.2707
0.146892 0.268614 21.374
0.470014 0.243266 21.0311
0.419741 0.195784 21.1277
0.499199 0.472007 21.2446
0.480605 0.271164 20.7381
0.521647 0.255688 20.5696
0.737995 0.526232 20.8819
0.505989 0.152281 20.728
0.581572 0.474141 20.8012
-1.01725 -0.178389 19.9021
-0.612561 0.0123436 19.7861
-0.666511 -0.16303 19.5031
-0.995195 -0.26494 21.0041
-1.47192 -0.0772147 20.435
-0.213768 -0.0809338 21.2939
-0.649115 -0.165812 21.1988
0.300154 0.11152 21.2585
0.063581 -0.0310829 21.3801
0.60057 0.155 21.0558
0.53866 0.0749023 21.1995
0.575905 0.239823 21.1348
0.698296 0.0603899 20.3501
1.03065 0.403477 21.2534
0.703685 0.0433176 20.7868
0.717426 0.471939 20.9835
-1.14736 0.135107 19.8771
-0.601155 0.225609 19.8285
-0.769282 0.136166 19.4124
-1.16606 -0.00758126 21.0338
-1.29365 0.447483 20.4107
-0.338957 -0.0985481 21.3766
-0.800626 0.080627 21.1897
0.357698 -0.00900388 21.3195
-0.00792599 -0.0620967 21.3736
0.703378 -0.0259469 21.0754
0.513989 -0.159418 21.1277
0.718209 0.0107169 21.2536
0.682929 -0.219286 20.7957
1.16194 -0.0744934 20.4711
0.522643 -0.182111 20.5363
0.993892 -0.0073784 20.8009
-0.772623 0.45935 20.0645
-0.549302 0.446405 19.7044
-0.904392 0.412803 20.8311
-1.3063 1.0303 20.347
-0.389437 0.09124 21.3058
-1.13958 0.504768 21.2953
0.234584 -0.157488 21.2433
-0.0464585 -0.0882774 21.568
0.448345 -0.290669 20.9534
0.527114 -0.442781 21.1926
0.460985 -0.272661 20.6444
0.580031 -0.559678 20.7335
0.546925 -0.413206 20.4489
-1.28949 -1.09199 18.7667
-0.57382 -0.270482 19.2065
-0.00920074 -0.57074 18.8857
-1.59499 -0.4253 20.3653
-0.00305523 -6.35556 19.6325
0.0521415 0.0133204 15.1862
-0.00233315 -0.597414 10.4524
0.407385 0.39468 16.4352
-0.00548708 0.0192671 7.35964
0.714873 0.975186 18.09
-0.0127165 0.358231 10.6091
0.549175 0.961818 18.9733
0.892479 1.21174 15.8037
0.00778724 0.726929 12.5254
0.698525 0.608668 17.1906
0.0089183 0.961765 12.227
-0.672959 -0.0197334 19.048
-0.0126809 -0.340853 18.703
0.879713 0.789749 14.8276
1.64673 0.816351 12.7701
-0.137086 0.350699 1.92846
1.31231 0.356946 13.9365
0.158465 0.612897 9.07631
-0.639869 0.492056 19.1777
-0.0151366 0.244111 18.4129
1.45316 -0.244048 14.0948
1.40029 -0.740021 18.2634
0.164717 -1.60324 1.54426
0.854382 -0.440479 19.173
0.161225 -1.41617 7.31224
-0.98393 1.35204 19.4043
-0.00370933 0.836843 19.1604
-1.54751 1.45313 20.8871
-0.00243757 3.34189 19.9637
-0.88068 0.551201 22.1057
0.00266691 4.02556 21.6257
0.372536 -0.60005 21.4551
3.32583e-05 -0.207537 19.5775
0.635147 -0.898865 20.8745
0.00434723 -0.971033 18.5119
0.583944 -0.866714 20.2952
0.0473545 -1.27954 19.4794
0.0239601 -1.04309 19.0403
1.28869 -1.10261 18.746
0.565516 -0.27236 19.1831
0.581333 -0.215445 19.5919
1.59594 -0.412396 20.3755
1.9354 -1.05514 20.3532
-0.0185787 0.0401825 15.6959
0.503344 -0.165846 21.374
-0.380902 0.419562 17.0469
-0.155346 0.250495 21.3821
-0.717098 0.974148 18.0628
-0.493285 0.445746 21.2449
-0.487607 0.946721 18.2726
-0.82726 1.27564 14.7218
-0.774723 0.515847 20.9645
-0.717409 0.441701 15.9801
-0.549626 0.587456 20.7645
0.670659 -0.0201293 19.0012
0.667244 -0.165066 19.4821
-0.817322 0.787121 12.5859
-1.19517 0.691474 8.8542
-1.10028 0.43601 21.2095
-1.34791 0.332372 12.1665
-0.725887 0.535493 20.2799
0.633806 0.500075 19.1561
0.772647 0.135979 19.3792
-1.43944 -0.267136 11.6335
-1.55064 -0.751876 17.3598
-1.34623 0.0520037 19.4272
-0.863568 -0.460208 17.6819
-1.05645 -0.0399714 19.0523
0.980611 1.35722 19.3983
0.549446 0.449605 19.7004
1.54669 1.45329 20.8867
1.30682 1.03047 20.3476
0.880599 0.549262 22.105
1.13629 0.501392 21.2945
-0.374352 -0.609243 21.4343
0.0457631 -0.0921435 21.5687
-0.622348 -0.936767 20.8146
-0.538674 -0.45635 21.2004
-0.539534 -0.920438 20.3379
-0.603403 -0.588541 20.7303
-0.546541 -0.444426 20.5279
0.882713 -0.277796 19.967
0.555185 -0.107959 19.8302
0.870615 -0.304081 20.9584
1.2186 -0.346613 20.4096
0.204834 -0.0435923 21.2396
0.532187 -0.165525 21.1742
-0.229979 0.153752 21.2272
-0.0582078 0.0614101 21.2683
-0.481589 0.248611 21.0243
-0.409595 0.191665 21.1234
-0.497238 0.266819 20.697
-0.558713 0.278767 20.5949
-0.535462 0.14371 20.701
0.992244 -0.165912 19.8935
0.617452 0.0131566 19.7765
0.990761 -0.269452 21.0031
1.4778 -0.0748166 20.453
0.214273 -0.0801712 21.2964
0.650396 -0.163722 21.1978
-0.298411 0.111406 21.2512
-0.0649628 -0.0337982 21.3785
-0.618322 0.167254 21.0852
-0.533272 0.0758278 21.2059
-0.605002 0.220027 21.107
-0.770343 0.0940056 20.5908
-0.769583 0.0513937 20.8268
1.15382 0.140775 19.8775
0.610077 0.226042 19.8238
1.16718 -0.00452726 21.0335
1.29023 0.444199 20.4194
0.337745 -0.0993894 21.377
0.792183 0.0805086 21.1942
-0.360247 -0.0104192 21.3168
0.00217118 -0.0645639 21.3769
-0.736601 -0.0423871 21.0852
-0.526574 -0.159825 21.1424
-0.730712 0.0120767 21.2085
-0.727466 -0.211123 20.9994
-0.534085 -0.173976 20.4895
0.776455 0.460174 20.0625
0.904837 0.412252 20.8324
0.387984 0.092923 21.3039
-0.236493 -0.156486 21.2481
-0.492188 -0.308891 20.9323
-0.468395 -0.259159 20.5985
-0.925971 -0.241461 19.9355
-1.48128 -1.00009 18.471
-1.20074 -0.566778 19.5428
-1.44648 -0.423582 19.3579
-0.62336 -0.187208 19.5549
-2.29231 -1.05754 20.3653
-0.924196 -0.288095 20.9584
-0.390427 0.152177 12.9032
-1.02042 -0.488923 21.3031
-1.09453 -0.605302 21.511
-0.422546 -0.224477 21.4147
-0.211342 -0.0568764 21.2641
0.13012 -0.0390999 6.55033
-0.112948 0.0763162 21.4223
0.0123841 -0.103628 21.1776
0.253418 0.236527 21.2899
0.253284 0.149594 21.245
0.401723 0.226559 10.9344
0.330456 0.388275 21.2665
0.505257 0.302669 21.071
0.604383 0.446716 21.2244
0.560687 0.1877 21.0791
0.985505 1.00804 15.9505
0.699143 0.572299 21.1608
0.973201 0.437164 21.0189
0.889276 0.475673 21.0637
0.519445 0.266589 20.9162
0.710238 0.913895 16.4918
0.79485 0.363281 20.3958
1.02574 0.153215 20.2624
0.649499 0.47304 20.8923
-1.10487 -0.0159929 19.872
-2.14913 -0.115107 17.3919
-1.72458 0.334989 19.1789
-0.7299 -0.00538398 19.4397
-3.47635 -0.307923 20.4244
-1.099 -0.140003 21.0336
-1.82069 0.0540625 21.5864
-0.786363 -0.546754 20.6185
-0.261545 -0.120807 21.3455
-0.416534 -0.330243 20.3881
0.284417 0.0411002 19.701
0.335896 0.04328 21.3181
0.642407 0.0914291 19.8794
0.860501 0.326744 20.2923
0.672551 0.0744674 21.0976
0.604672 0.297123 6.25838
1.18674 -0.0181518 20.2071
1.1378 0.182307 20.9481
0.714413 0.10837 21.2139
1.30157 0.729049 13.3907
1.1457 -0.0847923 19.5357
1.11367 0.476248 20.2637
-1.01313 0.379892 19.9429
-1.56175 1.5218 18.609
-0.961568 0.795874 19.8108
-0.688686 0.347948 19.5263
-2.08325 1.1278 20.3581
-1.10327 0.262151 20.9199
-2.63114 0.935448 21.0885
-1.26015 0.738861 20.9158
-1.38143 0.0624813 21.4408
-0.412524 -0.0168132 21.3613
-0.546186 0.446473 14.6085
-0.607556 0.189831 21.5837
0.0363876 -0.17167 21.641
0.314442 -0.102988 21.2731
1.43016 0.231408 14.7846
0.333752 -0.308122 21.3652
0.821524 -0.366104 21.2323
0.625162 -0.192114 20.9771
1.54766 -0.577108 17.8034
0.617502 -0.517872 21.0448
0.915195 -0.458468 20.7471
0.625854 -0.253189 20.6749
1.09734 -0.688016 18.3913
0.638053 -0.53856 20.8197
0.763005 -0.279713 21.0193
1.48013 -1.0183 18.438
-0.0139792 -1.93219 17.7849
-0.0171901 -1.61869 16.4367
-0.0115149 -0.458215 18.7932
-0.00203854 -9.36515 19.5369
0.39915 0.163756 13.004
0.00273744 -1.75362 17.2391
-0.00162959 -0.0655759 2.53038
-0.133091 -0.0295086 7.3438
-0.00489153 -0.123934 7.79994
-0.00166285 0.00382931 1.68817
-0.424448 0.235096 11.6916
-0.0135601 0.142963 8.80321
-0.00268321 0.350416 5.01353
-0.940812 1.00435 15.578
-0.00532541 0.510832 11.3579
-0.00621213 0.187659 1.61528
-0.0948887 0.609485 7.38917
-0.636864 0.901962 15.5897
0.0539669 1.00316 12.4573
-0.130473 -0.153871 3.38838
0.137942 0.834588 10.4989
2.13616 -0.126992 17.32
-0.0233827 1.43224 15.6958
-0.0146308 -0.0404462 18.3737
-0.169485 0.136795 3.80059
0.00546423 -0.378388 0.295591
-0.128215 -1.21872 -1.92106
-1.23775 0.743894 10.6013
0.260068 -1.07661 3.92421
0.153724 -1.03412 3.7839
1.56079 1.54831 18.5881
-0.00452037 2.01512 18.8807
-0.00752744 0.765282 18.702
-0.00225104 6.31565 19.6062
2.6291 0.937711 21.0878
-0.000458748 2.7709 20.704
0.00349737 5.15046 9.29349
0.549932 0.443822 14.6009
0.000488306 1.28842 21.7342
4.65635e-05 -0.302066 2.32815
-1.44365 0.239954 14.6275
0.00026899 -0.745951 19.4384
0.0104846 -0.498255 4.73875
-1.58886 -0.586794 17.1889
0.0106451 -1.1944 19.1743
0.0670065 -1.29366 9.51998
-1.11389 -0.81098 17.0605
0.0913051 -1.0052 18.7334
0.0416661 -2.07745 13.4864
0.936634 -0.232202 19.9356
1.21051 -0.57485 19.5265
1.46192 -0.430446 19.3329
0.629997 -0.196896 19.541
2.28563 -1.05285 20.3661
0.915017 -0.280769 20.9609
1.02186 -0.493559 21.2988
1.09512 -0.599954 21.5027
0.430664 -0.232218 21.4153
0.213506 -0.0547484 21.261
0.115112 0.0617844 21.4238
-0.00826578 -0.109163 21.2036
-0.261505 0.220446 21.3169
-0.254168 0.151873 21.2388
-0.326727 0.361717 21.2805
-0.505574 0.301735 21.0506
-0.591749 0.431442 21.2272
-0.564919 0.200352 21.0847
-0.700598 0.567644 21.1553
-0.99269 0.475481 21.0252
-0.939442 0.479526 21.187
-0.543213 0.254435 20.8779
-0.787753 0.491723 20.411
-1.01129 0.359803 20.0077
-0.620586 0.601837 20.8518
1.09515 -0.0170271 19.8698
1.74127 0.339219 19.1551
0.736792 -0.00480137 19.4105
3.46946 -0.30994 20.428
1.10001 -0.138158 21.0302
1.8207 0.0453022 21.5848
0.791399 -0.548389 20.6687
0.264656 -0.119536 21.3487
0.414142 -0.329762 20.4107
-0.297424 0.0271015 19.7766
-0.338437 0.042045 21.3157
-0.641976 0.0976444 19.8537
-0.851975 0.331285 20.2828
-0.692777 0.0808621 21.0295
-1.24905 0.00447797 19.919
-1.36496 0.294833 19.7359
-0.761184 0.106747 21.2448
-1.24374 -0.0200361 18.3649
-1.1659 0.453227 18.6133
1.0172 0.383293 19.9429
0.962657 0.800399 19.8082
0.689173 0.358085 19.5111
2.08282 1.1295 20.3596
1.09968 0.257718 20.9203
1.25877 0.737007 20.9165
1.37866 0.0649275 21.4426
0.410774 -0.0191521 21.3629
0.606358 0.187381 21.5817
-0.0377825 -0.1764 21.6448
-0.318603 -0.106907 21.2736
-0.335819 -0.312729 21.3654
-0.834952 -0.364729 21.2169
-0.65402 -0.199141 20.9659
-0.618141 -0.543983 21.0443
-0.952231 -0.500598 20.849
-0.635232 -0.244472 20.6446
-0.650505 -0.591361 20.6609
-0.805438 -0.345875 20.998
-1.32722 -0.518361 19.4301
-1.01414 -0.515508 21.4012
-0.0157244 0.0142017 21.3951
0.430303 0.359018 21.1941
0.822244 0.577748 20.9411
0.910296 0.258246 20.3291
-1.73329 -0.0820231 19.1782
-1.58146 -0.681072 21.7398
-0.175045 -0.263225 19.7676
0.578047 0.251916 19.8578
1.14828 0.289284 20.4625
1.10682 0.0345572 19.9004
-1.39656 0.77092 19.4812
-1.5905 0.451363 21.1327
-0.681135 -0.103634 21.7133
0.556545 -0.251064 21.3988
0.947606 -0.44016 20.9569
0.979425 -0.411436 20.4224
-0.0156046 -1.74135 17.1577
-0.00020921 -0.401709 5.84419
-0.00163397 -0.00848087 1.79333
-0.00994308 0.0924009 3.52858
-0.00627377 0.354744 6.17179
-0.0980316 0.553424 8.00215
-0.0227657 -0.295658 15.4305
-0.056908 -0.163831 -2.39457
-0.163692 -1.83504 -0.720233
-0.00978816 2.46198 17.506
-0.000253871 3.00197 19.1932
0 0 0
-0.000487387 -0.117321 2.44687
0.0567166 -1.02662 7.56651
0.111906 -1.94225 11.7889
1.34098 -0.530258 19.4153
1.01431 -0.512446 21.395
0.022914 -0.000872717 21.4145
-0.425795 0.340525 21.2207
-0.826185 0.601837 20.9534
-0.895956 0.43279 20.3243
1.75117 -0.0830677 19.1492
1.57767 -0.68137 21.7411
0.174948 -0.266865 19.8374
-0.575707 0.248878 19.8439
-1.1889 0.360108 20.2867
-1.22281 0.252402 18.964
1.40375 0.786153 19.4661
1.59071 0.450377 21.1327
0.679032 -0.104611 21.7157
-0.563477 -0.251579 21.3897
-0.989473 -0.46626 20.8601
-1.05 -0.42322 20.6042
-6.5318 -1.16648 5.51721
-0.238889 -2.89443 3.83339
0.0646918 0.267294 3.01778
0.202888 -0.0577061 2.10821
-0.0306925 0.124737 0.483499
-0.00825566 0.074246 0.753675
-7.65635 0.434532 3.57043
-0.163964 2.09775 0.954114
-0.0558959 -0.0694514 0.572881
-0.0644271 0.0412281 -0.000527899
-0.0557891 0.0565101 0.0105358
0.0549324 0.0315053 0.190172
0.297668 -3.78979 4.39684
6.53604 -1.16807 5.51709
0.00530673 0.269727 3.62106
0.0303604 0.123887 0.479721
-0.199019 -0.0580094 2.10647
0.0100788 0.0746727 0.786753
0.164089 2.0987 0.954869
7.61544 0.4601 3.58857
0.0557527 -0.0692965 0.573969
0.0561169 0.0556385 0.0109884
0.0640487 0.0420303 0.000241135
-0.0556895 0.0319937 0.190857
-0.0763288 0.223181 1.62167
9.51154e-05 0.00256413 0.0640302
0.000121518 0.00153862 0.0434485
0 0 0
0.02887 0.0318303 1.40092
-0.00144967 0.017634 0.19707
-0.000287496 0.00202693 0.00923389
0 0 0
-0.101837 -0.100973 0.415776
-0.00185276 -0.00595077 0.110673
0.0514101 0.0550488 0.336874
-0.124219 0.0953234 0.163778
0.00702589 0.00726722 0.0210311
0.00693116 0.0324322 0.108666
0.0414138 0.0446381 0.179677
0.0381165 -0.0462136 0.269106
0.123843 0.209605 2.0791
0 0 0
-7.38382e-05 0.00265078 0.0641784
-9.81981e-05 0.00136041 0.0378055
-0.0233905 0.017226 0.901257
0 0 0
0.00147674 0.017793 0.198443
0.000498556 0.00968263 0.0537433
0.101467 -0.100611 0.415329
0.122702 0.0933523 0.163395
0.0018118 -0.00575958 0.110808
-0.0516774 0.0551204 0.335999
-0.00709221 0.00733912 0.0209676
-0.03787 -0.0459898 0.267788
-0.00684688 0.0315224 0.109798
-0.0409903 0.0441588 0.17954
0 0 0
0 0 0
-3.55385e-10 -5.90648e-08 9.50475e-07
0 0 0
0 0 0
0 0 0
0 0 0
-0.00232178 0.000207705 -0.00025042
-4.74401e-08 -8.05645e-08 -1.3074e-05
0 0 0
0.00237918 0.0137753 0.135271
0 0 0
-0.000476063 2.72096 1.81504
7.62543e-07 0.000385179 0.00435099
0 0 0
3.26261e-06 -3.02516e-07 -4.29364e-06
0 0 0
3.83372e-07 5.51347e-06 -0.000190178
0.00687119 0.0316554 0.115081
9.50437e-06 9.13433e-07 -2.20107e-05
0 0 0
0 0 0
0 0 0
0 0 0
0.00242621 0.000216435 -0.000256239
0 0 0
0 0 0
-0.00093687 0.0138151 0.133122
-3.7171e-06 -3.44719e-07 -4.88895e-06
0 0 0
-9.5264e-06 9.04286e-07 -2.17478e-05
-0.00767906 0.0378111 0.129036
-0.000123635 0.00411259 0.0330453
0 0 0
-7.36545e-09 7.63866e-07 8.50659e-06
0 0 0
0 0 0
-9.00772e-08 1.47409e-07 -1.67202e-05
0 0 0
0 0 0
-4.08559e-08 1.66174e-08 -7.00423e-06
-2.06559e-07 -9.92887e-08 -1.10535e-05
0.00468855 0.0229284 0.10749
0.0351624 0.0126438 0.398883
0 0 0
1.34726e-07 0.00291634 0.0397508
1.42184e-06 -0.00162386 0.0247506
0 0 0
0 0 0
0.000102619 0.00321854 0.0258043
0 0 0
0 0 0
9.81047e-07 -1.85109e-05 -8.2271e-05
0 0 0
-0.0351006 0.0126283 0.398662
-0.00466171 0.0227595 0.107206
0.00424607 0.0314004 0.0529157
0 0 0
0.00238956 0.00448703 0.0465255
-0.00165933 -0.00637028 0.0306257
-0.000122958 0.00597774 0.0632571
0.00162203 0.00816295 0.0574991
-0.000156621 0.00480914 0.0341431
0.0035434 0.0168842 0.0648762
0.000145831 0.00180095 0.0113364
0.0022256 0.00984413 0.0324959
-0.000118532 0.00430991 0.0179019
0.00364595 0.015946 0.0677525
-1.71733e-05 -3.36146e-05 0.000768583
2.2231e-05 -3.98053e-05 0.000952973
0 0 0
0 0 0