# vtk DataFile Version 2.0
tet_velo
ASCII
DATASET UNSTRUCTURED_GRID
POINTS 29498 float
-0.875 0.365 -2.47731
-0.869546 0.325 2.515
-0.855 0.785 -2.43373
-0.855 0.705 2.46054
0.875 0.365 -2.47733
0.869548 0.325 2.515
0.855 0.785 -2.43373
0.855 0.705 2.46054
-0.871461 0.353388 -0.813207
-0.871459 0.338238 0.850897
-0.871046 0.774379 -0.802307
-0.871441 0.748108 0.829117
0.871461 0.353389 -0.81322
0.871459 0.33824 0.85089
0.871044 0.774377 -0.802307
0.871441 0.748108 0.829117
-1.74675 0.1706 -3.79873
-1.74522 0.158999 -2.48054
-1.74265 0.147392 -0.815587
-1.7395 0.135125 0.855939
-1.73585 0.120732 2.52144
-1.73565 0.102948 3.84235
-1.73661 0.0827705 5.15824
-1.74534 0.378571 -3.78869
-1.74385 0.367043 -2.47406
-1.74274 0.354534 -0.815472
-1.73918 0.337303 0.846058
-1.73307 0.318176 2.50527
-1.7342 0.300012 3.82572
-1.73615 0.280579 5.14267
-1.73698 0.797636 -3.75943
-1.73133 0.786642 -2.44345
-1.74035 0.773082 -0.807144
-1.73802 0.745851 0.826851
-1.72516 0.708917 2.46379
-1.73011 0.691207 3.78559
-1.73504 0.675355 5.10781
-1.73201 1.42724 -3.74011
-1.73023 1.41481 -2.42903
-1.73386 1.39453 -0.803315
-1.73684 1.36305 0.815355
-1.73589 1.32603 2.44141
-1.7358 1.3013 3.75321
-1.73713 1.28187 5.07186
-0.877426 0.169053 -3.80084
-0.874683 0.157195 -2.48362
-0.871797 0.14637 -0.815178
-0.870467 0.136202 0.860068
-0.869077 0.125106 2.52866
-0.869565 0.105645 3.84725
-0.870387 0.083976 5.16107
-0.877739 0.377091 -3.78934
-0.869861 0.302194 3.82976
-0.870764 0.281295 5.14481
-0.870637 0.796511 -3.75539
-0.8665 0.689787 3.78494
-0.870484 0.674467 5.10767
-0.863839 1.42727 -3.73611
-0.861135 1.41528 -2.42463
-0.864537 1.39553 -0.800663
-0.869142 1.36323 0.815035
-0.870182 1.32454 2.43914
-0.870479 1.29947 3.75093
-0.871545 1.28038 5.07021
0.865048 0.169053 -3.80086
0.872004 0.157195 -2.48363
0.871564 0.146371 -0.81519
0.871372 0.136203 0.860062
0.86955 0.125106 2.52866
0.865212 0.105646 3.84725
0.863147 0.0839765 5.16107
0.862179 0.377091 -3.78935
0.862246 0.302194 3.82976
0.861133 0.281295 5.14481
0.857585 0.796511 -3.75539
0.857107 0.689787 3.78493
0.858543 0.674467 5.10767
0.86988 1.42727 -3.73612
0.873085 1.41528 -2.42463
0.873077 1.39553 -0.800666
0.867632 1.36323 0.815032
0.861683 1.32454 2.43913
0.859975 1.29947 3.75093
0.859694 1.28038 5.0702
1.73647 0.170599 -3.79875
1.74292 0.158999 -2.48056
1.74319 0.147392 -0.815607
1.74139 0.135126 0.855926
1.73748 0.120733 2.52143
1.73328 0.102949 3.84234
1.73093 0.0827712 5.15823
1.734 0.37857 -3.78871
1.74272 0.367043 -2.47409
1.74337 0.354535 -0.815492
1.74074 0.337305 0.846047
1.73462 0.318177 2.50527
1.73013 0.300013 3.82572
1.72861 0.28058 5.14267
1.72843 0.797635 -3.75944
1.73182 0.786641 -2.44346
1.74173 0.77308 -0.807152
1.73917 0.745852 0.826845
1.72558 0.708917 2.46378
1.7241 0.691208 3.78558
1.72524 0.675355 5.1078
1.7375 1.42724 -3.74012
1.74046 1.41481 -2.42904
1.7416 1.39453 -0.803323
1.7367 1.36305 0.815349
1.72967 1.32603 2.44141
1.72702 1.3013 3.7532
1.72655 1.28187 5.07185
-0.860565 0.575 -2.45109
0 0.362686 -2.47963
-0.899595 0.332829 -1.64526
-0.845449 0.515 2.47095
1.01328e-06 0.323353 2.51665
-0.899875 0.302246 1.68295
0 0.804119 -2.45285
-0.870954 0.787621 -1.61802
0 0.705804 2.46134
-0.873659 0.736992 1.64483
0.860376 0.575 -2.45091
0.899595 0.33283 -1.64528
0.845469 0.515 2.47097
0.899875 0.302248 1.68295
0.870954 0.787621 -1.61802
0.873653 0.736987 1.64483
-0.87146 0.345813 0.0188451
-0.871615 0.563884 -0.807757
-4.41139e-08 0.193727 -0.813213
-0.871621 0.543173 0.840007
-1.51793e-07 0.204821 0.850894
-0.87123 0.76123 0.0134051
-1.06092e-06 0.831488 -0.802307
0 1.27116 0.829117
0.871466 0.345808 0.0188351
0.871615 0.563883 -0.807763
0.871621 0.543174 0.840004
0.87129 0.76129 0.0134051
-0.896497 0.569442 -1.63164
-0.871618 0.553528 0.0161251
-0.896936 0.529087 1.66389
-2.20569e-08 0.163401 -1.64527
-9.79533e-08 0.199254 0.0188401
4.30743e-07 0.261622 1.68295
0 0.575 -2.48691
5.06639e-07 0.515 2.48393
-5.30458e-07 0.812612 -1.61802
-5.30458e-07 1.27575 0.0134051
0 0.814107 1.64483
0.896497 0.569441 -1.63165
0.871624 0.553528 0.0161201
0.896936 0.529087 1.66389
-1.30942 0.366022 -2.47569
-0.874841 0.261097 -2.48046
-0.87637 0.371045 -3.13332
-1.30131 0.321588 2.51014
-0.869312 0.225053 2.52183
-0.869703 0.313597 3.17238
-1.29316 0.785821 -2.43859
-0.862818 0.790756 -3.09456
-0.858067 1.10014 -2.42918
-1.29008 0.706958 2.46216
-0.86075 0.697393 3.12274
-0.862591 1.01477 2.44984
0.873502 0.261097 -2.48048
0.868589 0.371045 -3.13334
1.30886 0.366022 -2.47571
0.869549 0.225053 2.52183
0.865897 0.313597 3.17238
1.30208 0.321589 2.51013
0.856293 0.790756 -3.09456
0.864043 1.10014 -2.42918
1.29341 0.785821 -2.4386
0.856054 0.697394 3.12274
0.858342 1.01477 2.44984
1.29029 0.706959 2.46216
-1.3071 0.353961 -0.814339
-0.871629 0.249879 -0.814192
-1.30532 0.337771 0.848477
-0.870963 0.23722 0.855483
-1.3057 0.773731 -0.804725
-0.867791 1.08496 -0.801485
-1.30473 0.74698 0.827984
-0.870291 1.05567 0.822076
0.871513 0.24988 -0.814205
1.30741 0.353962 -0.814356
0.871415 0.237222 0.855476
1.3061 0.337772 0.848469
0.87206 1.08496 -0.801487
1.30639 0.773729 -0.80473
0.869537 1.05567 0.822075
1.30531 0.74698 0.827981
-1.74599 0.164799 -3.13963
-1.74605 0.274585 -3.79371
-1.31209 0.169826 -3.79979
-1.74393 0.153195 -1.64806
-1.74453 0.263021 -2.4773
-1.30995 0.158097 -2.48208
-1.74108 0.141258 0.0201761
-1.7427 0.250963 -0.815529
-1.30722 0.146881 -0.815382
-1.73768 0.127929 1.68869
-1.73934 0.236214 0.850999
-1.30499 0.135663 0.858004
-1.73575 0.11184 3.1819
-1.73446 0.219454 2.51336
-1.30246 0.122919 2.52505
-1.73613 0.0928594 4.50029
-1.73492 0.20148 3.83403
-1.30261 0.104297 3.8448
-1.73638 0.181675 5.15045
-1.3035 0.0833733 5.15965
-1.74459 0.372807 -3.13137
-1.74116 0.588103 -3.77406
-1.31154 0.377831 -3.78901
-1.7433 0.360789 -1.64477
-1.73759 0.576843 -2.45876
-1.74096 0.345919 0.0152929
-1.74155 0.563808 -0.811308
-1.73613 0.32774 1.67567
-1.7386 0.541577 0.836455
-1.73363 0.309094 3.1655
-1.72911 0.513546 2.48453
-1.73517 0.290296 4.4842
-1.73216 0.49561 3.80565
-1.30203 0.301103 3.82774
-1.73559 0.477967 5.12524
-1.30346 0.280937 5.14374
-1.73415 0.792139 -3.10144
-1.73449 1.11244 -3.74977
-1.30381 0.797074 -3.75741
-1.73584 0.779862 -1.6253
-1.73078 1.10073 -2.43624
-1.73919 0.759467 0.00985359
-1.73711 1.08381 -0.80523
-1.73159 0.727384 1.64532
-1.73743 1.05445 0.821103
-1.72764 0.700062 3.12469
-1.73053 1.01747 2.4526
-1.73258 0.683281 4.4467
-1.73296 0.996253 3.7694
-1.29831 0.690497 3.78526
-1.73608 0.978615 5.08983
-1.30276 0.674911 5.10774
-1.73112 1.42103 -3.08457
-1.29792 1.42726 -3.73811
-1.73204 1.40467 -1.61617
-1.29568 1.41505 -2.42683
-1.73535 1.37879 0.00601975
-1.2992 1.39503 -0.801989
-1.73637 1.34454 1.62838
-1.30299 1.36314 0.815195
-1.73585 1.31366 3.09731
-1.30304 1.32529 2.44027
-1.73646 1.29159 4.41253
-1.30314 1.30038 3.75207
-1.30434 1.28113 5.07103
-0.876055 0.163124 -3.14223
-0.877583 0.273072 -3.79509
-0.00618921 0.169053 -3.80085
-0.87324 0.151783 -1.6494
-0.00133943 0.157195 -2.48362
-0.871132 0.141286 0.0224452
-0.000116118 0.146371 -0.815184
-0.869772 0.130654 1.69437
0.000452694 0.136203 0.860065
-0.869321 0.115376 3.18796
0.000236253 0.125106 2.52866
-0.869976 0.0948106 4.50416
-0.869713 0.203919 3.83851
-0.00217613 0.105645 3.84725
-0.870575 0.182635 5.15294
-0.00362001 0.0839762 5.16107
-0.874188 0.586801 -3.77236
-0.00778017 0.377091 -3.78934
-0.870312 0.291744 4.48729
-0.868181 0.49599 3.80735
-0.00380756 0.302194 3.82976
-0.870624 0.477881 5.12624
-0.00481532 0.281295 5.14481
-0.867238 1.11189 -3.74575
-0.00652579 0.796511 -3.75539
-0.868492 0.682127 4.4463
-0.86849 0.994627 3.76793
-0.00469657 0.689787 3.78494
-0.871014 0.977422 5.08894
-0.00597057 0.674467 5.10767
-0.862487 1.42128 -3.08037
0.00302041 1.42727 -3.73612
-0.862836 1.40541 -1.61265
0.00597546 1.41528 -2.42463
-0.866839 1.37938 0.00718578
0.00426999 1.39553 -0.800665
-0.869662 1.34389 1.62709
-0.000754678 1.36323 0.815034
-0.870331 1.312 3.09503
-0.00424929 1.32454 2.43913
-0.871012 1.28992 4.41057
-0.00525229 1.29947 3.75093
-0.00592519 1.28038 5.0702
0.868526 0.163124 -3.14224
0.863613 0.273072 -3.7951
1.30076 0.169826 -3.79981
0.871784 0.151783 -1.64941
1.30746 0.158097 -2.4821
0.871468 0.141287 0.0224359
1.30738 0.146882 -0.815399
0.870461 0.130655 1.69436
1.30638 0.135665 0.857994
0.867381 0.115376 3.18795
1.30351 0.12292 2.52505
0.86418 0.094811 4.50416
0.863729 0.20392 3.8385
1.29924 0.104297 3.8448
0.86214 0.182636 5.15294
1.29704 0.0833739 5.15965
0.859882 0.586801 -3.77237
1.29809 0.377831 -3.78903
0.861689 0.291744 4.48728
0.859676 0.49599 3.80735
1.29619 0.301103 3.82774
0.859838 0.477881 5.12624
1.29487 0.280938 5.14374
0.863733 1.11189 -3.74576
1.29301 0.797073 -3.75742
0.857825 0.682127 4.4463
0.858541 0.994627 3.76793
1.2906 0.690497 3.78526
0.859119 0.977422 5.08894
1.29189 0.674911 5.10774
0.871483 1.42128 -3.08038
1.30369 1.42726 -3.73812
0.873081 1.40541 -1.61265
1.30677 1.41505 -2.42683
0.870354 1.37938 0.00718301
1.30734 1.39503 -0.801994
0.864658 1.34389 1.62708
1.30217 1.36314 0.815191
0.860829 1.312 3.09503
1.29568 1.32529 2.44027
0.859834 1.28992 4.41057
1.2935 1.30038 3.75207
1.29312 1.28113 5.07103
1.7397 0.164799 -3.13966
1.73523 0.274585 -3.79373
1.74306 0.153196 -1.64808
1.74282 0.263021 -2.47732
1.74229 0.141259 0.0201597
1.74328 0.250964 -0.815549
1.73943 0.12793 1.68868
1.74106 0.236216 0.850987
1.73538 0.111841 3.18189
1.73605 0.219455 2.51335
1.7321 0.0928602 4.50029
1.7317 0.201481 3.83403
1.72977 0.181676 5.15045
1.73836 0.372807 -3.1314
1.73122 0.588103 -3.77407
1.74304 0.360789 -1.64479
1.73727 0.576842 -2.45878
1.74206 0.34592 0.0152776
1.74255 0.563808 -0.811322
1.73768 0.327741 1.67566
1.73996 0.541578 0.836446
1.73237 0.309095 3.16549
1.7301 0.513547 2.48453
1.72937 0.290296 4.48419
1.72712 0.49561 3.80565
1.72692 0.477968 5.12524
1.73013 0.792138 -3.10145
1.73297 1.11244 -3.74978
1.73677 0.779861 -1.62531
1.73614 1.10073 -2.43625
1.74045 0.759466 0.00984656
1.74166 1.0838 -0.805237
1.73237 0.727384 1.64531
[...]
POINT_DATA 29498
VECTORS point_vectors float
-10.5125 -6.14115 14.7582
0.367113 0.522733 3.62177
-5.44875 4.4963 10.9731
0.358241 -0.248213 2.14469
10.4307 -6.33392 14.4857
-0.358729 0.513951 3.5836
5.43712 4.54176 11.0467
-0.35438 -0.231934 2.11753
0.00174573 -0.0231811 0.106229
-0.00045506 0.00466663 0.402273
-0.759613 -0.722283 1.56156
0.0989947 0.179615 0.600542
-0.00176786 -0.0233353 0.106687
0.000841185 0.00607313 0.399898
0.761263 -0.724016 1.56008
-0.0996533 0.180697 0.600328
-0.452479 -0.0566799 19.8711
-1.17067 -0.265162 20.3746
-0.462436 -0.183542 21.1897
0.058344 -0.00652708 21.4081
0.541691 0.188 21.2556
0.667118 0.127494 21.1038
0.859218 0.183312 20.4547
-0.469108 -0.00341296 19.8512
-1.30002 -0.110192 20.363
-0.522843 -0.189652 21.1773
0.0759426 -0.056561 21.4494
0.63057 0.103029 21.2835
0.775968 0.0228284 21.1547
0.642148 0.040937 20.8894
-0.47629 0.103734 19.853
-1.27811 0.219961 20.3783
-0.709213 -0.182185 21.1387
0.011786 -0.176041 21.4888
0.663299 -0.0990181 21.3051
0.963845 -0.0529222 21.2163
0.67718 -0.0984925 21.0029
-0.367366 0.223174 19.9333
-0.857916 0.461479 20.3592
-0.750156 0.176059 21.0345
-0.149819 -0.0989572 21.4569
0.43794 -0.321266 21.2424
0.696222 -0.244892 20.8022
0.537075 -0.27573 20.459
-0.450383 -0.173345 19.3822
-4.37425 -3.82374 18.8324
1.11113 -0.947097 10.9161
0.57235 -0.199348 11.701
0.957128 0.754827 15.6367
1.14614 1.1661 16.678
0.692693 0.95859 18.2833
-0.492738 -0.0550403 19.3186
1.49318 1.11892 14.2332
1.02691 0.63372 16.5302
-0.492046 0.202497 19.3112
2.1621 -0.108873 11.9693
1.05166 -0.0187861 15.9844
-0.354968 0.419579 19.598
-1.2709 1.80014 20.1272
-1.90309 1.37788 20.7415
-0.40376 -0.0613924 20.8333
0.597604 -0.793126 19.1164
0.878785 -1.14258 19.2815
0.52519 -0.728589 19.8804
0.450847 -0.169661 19.3739
4.37027 -3.86724 18.803
-1.10694 -0.943523 10.869
-0.571738 -0.2103 11.691
-0.941099 0.731489 15.571
-1.09361 1.13468 16.4773
-0.674793 0.933049 18.221
0.490231 -0.0507933 19.3139
-1.51727 1.03911 14.02
-1.11716 0.565148 16.4748
0.489986 0.195668 19.3106
-2.04902 -0.040762 12.275
-1.17078 -0.140819 15.8565
0.355092 0.419921 19.6054
1.27762 1.77553 20.1299
1.90164 1.34865 20.7512
0.403351 -0.0612322 20.8224
-0.608331 -0.79391 18.9887
-1.00253 -1.10787 19.1877
-0.338447 -0.690551 20.052
0.452471 -0.0553399 19.8644
1.17257 -0.264272 20.376
0.462968 -0.186268 21.1914
-0.0578286 -0.00712599 21.4051
-0.534015 0.183742 21.2521
-0.65228 0.215929 20.7846
-0.880033 0.166026 20.3745
0.467848 -0.000427015 19.8438
1.29932 -0.108998 20.3592
0.524767 -0.191994 21.1797
-0.07689 -0.0546567 21.453
-0.621333 0.100286 21.2803
-0.758355 0.132293 20.7478
-0.910952 0.00927525 20.4582
0.475155 0.105671 19.8466
1.27744 0.217691 20.384
0.704792 -0.179399 21.1401
-0.00938882 -0.174317 21.4831
-0.658267 -0.0962646 21.3055
-0.809172 -0.0248407 20.8089
-0.906335 -0.125548 20.4566
0.367006 0.224499 19.9323
0.853647 0.457831 20.3609
0.741926 0.176869 21.0361
0.147651 -0.0974736 21.4545
-0.435539 -0.317859 21.2445
-0.617894 -0.328177 20.562
-0.482802 -0.231088 20.5202
-14.6039 1.53659 9.53981
-0.000540095 -2.0885 2.58659
0.0337715 -0.165206 0.848022
-0.0328422 -0.0512036 0.250199
-0.0349864 -0.063167 0.0989473
0.0958254 -0.0115446 2.51937
-0.000755219 2.55629 3.47862
-0.132546 -0.302971 1.8996
-0.0303668 0.422531 -0.320843
0.0660652 0.0724959 0.395212
14.5934 1.59712 9.49184
-0.0340393 -0.16586 0.848963
0.0376739 -0.0527086 0.242417
-0.0951038 -0.0107082 2.50651
0.134138 -0.305536 1.89813
-0.0670939 0.0735889 0.395318
0.00238818 -0.00272484 0.210158
2.36866e-06 -0.000212075 0.000979704
0 0 0
1.34361e-05 0.000493299 0.00214464
7.3891e-06 0.000100781 0.0140623
0.13038 0.267713 1.04753
0 0 0
3.27843e-07 -1.4518e-05 0.000921515
-0.0023885 -0.00272071 0.210043
-2.40138e-06 -0.00021127 0.000974499
-1.33827e-05 0.000496832 0.00213245
-0.133557 0.269537 1.06991
2.05531e-05 -0.000739974 0.00376921
0 0 0
5.56765e-06 4.26273e-05 0.000444105
-1.61684e-05 -9.22361e-05 0.0116044
-4.08491e-09 2.29382e-06 0.000531756
-9.89468e-06 0.000326788 0.00294043
0.00131654 0.129983 0.336021
8.10968e-06 -4.02108e-06 4.12382e-06
-6.86334e-09 5.90236e-09 1.89201e-07
-2.50002e-07 7.74768e-05 0.00395625
7.95374e-06 4.2529e-05 -0.0010275
-2.09999e-05 -0.000729851 0.00372356
0 0 0
-5.47582e-06 4.2539e-05 0.000434946
-2.70452 -0.454062 20.1948
-6.45803 -4.84613 18.2823
-1.4565 -0.390716 18.297
1.01723 0.316971 21.1076
0.719029 0.755833 11.3771
1.2641 0.859493 11.4886
-2.62208 0.675752 20.3192
-1.44565 0.679591 18.2852
-2.51778 2.94434 20.0711
1.1484 -0.191415 20.8179
1.33965 -0.021946 9.08395
1.40579 -0.114492 12.9848
6.44001 -4.91379 18.2505
1.44436 -0.39466 18.2641
2.71168 -0.458783 20.1942
-0.699614 0.735396 11.2912
-1.19421 0.856383 11.3043
-0.998664 0.312646 21.0894
1.44401 0.686802 18.2677
2.52062 2.9152 20.0745
2.6299 0.679131 20.3169
-1.26651 0.00210887 8.74771
-1.42495 -0.0921895 12.8616
-1.13457 -0.184766 20.7966
-0.456729 -0.43337 21.4257
0.557625 -0.812602 4.47665
0.281406 -0.037092 21.2473
0.249391 -0.254362 5.27502
-1.10014 -0.542396 21.2225
-2.9321 0.837967 17.248
0.174864 -0.430374 21.1941
0.362576 0.796106 9.83968
-0.557657 -0.809715 4.46013
0.45683 -0.434023 21.4244
-0.247336 -0.25291 5.27285
-0.277835 -0.0370549 21.2426
2.9265 0.819673 17.3479
1.10188 -0.539122 21.2203
-0.365796 0.805528 9.77769
-0.172093 -0.428761 21.187
-0.81898 -0.15783 19.9391
-0.4659 -0.0288214 19.8531
-0.492542 -0.0973931 19.658
-0.870262 -0.196149 21.0142
-1.24102 -0.196363 20.3712
-2.23212 -0.783028 20.1916
-0.190373 -0.120433 21.3313
-0.477977 -0.187231 21.1892
-0.425188 -0.250111 21.3943
0.301611 0.0955575 21.366
0.0717308 -0.0223414 21.4268
0.186798 0.0863617 21.4858
0.662161 0.240476 21.0423
0.587227 0.159371 21.2658
0.821073 0.466196 21.2783
0.531808 0.118184 20.6204
0.729741 0.0940287 21.1685
1.12552 0.393136 20.5541
0.750683 0.112124 20.6721
0.879226 0.539505 20.5917
-0.871565 -0.0487057 19.9123
-0.475412 0.0424999 19.8478
-0.514988 -0.0272277 19.6262
-0.915861 -0.145333 21.0125
-1.35485 0.0373532 20.3652
-0.230651 -0.169154 21.3692
-0.607971 -0.190868 21.1622
0.346948 0.0401677 21.4104
0.0435514 -0.116486 21.4663
0.746078 0.115978 21.1213
0.665825 0.00680891 21.3059
0.835512 0.0601573 21.0349
0.864526 -0.0154061 21.1814
1.37468 0.265027 20.4627
0.64209 -0.0342408 20.9747
0.662151 0.397425 21.0258
-0.878574 0.16509 19.9241
-0.431031 0.167339 19.8746
-0.533792 0.152231 19.6119
-0.980987 0.00764081 20.9362
-1.10885 0.385703 20.3462
-0.394813 -0.230498 21.3942
-0.770323 -0.00244629 21.0863
0.34967 -0.124365 21.4335
-0.0743048 -0.157942 21.4801
0.780249 -0.0905417 21.1264
0.566621 -0.246227 21.2739
0.908184 -0.158487 21.0758
0.862802 -0.214227 21.0317
1.49666 -0.174775 20.7034
0.715763 -0.237876 20.2395
0.688259 -0.261928 20.6509
-0.628703 0.36425 20.0394
-0.397499 0.303715 19.7882
-0.839159 0.33698 20.7649
-1.19026 0.897352 20.2959
-0.54247 0.0451584 21.3436
-1.29515 0.401144 21.0319
0.188598 -0.212147 21.3988
-0.312811 -0.1577 21.7348
0.53879 -0.393982 21.1581
0.537455 -0.563526 21.3701
0.454965 -0.303168 20.605
0.591436 -0.676912 21.0194
0.541742 -0.525175 20.1207
-1.26415 -0.716526 18.6236
-0.464084 -0.113383 19.3427
-0.00728971 -0.258113 19.0555
-0.0808817 -0.621174 11.6521
-0.00669276 -7.56682 17.0204
0.645553 -0.427557 11.27
0.00325606 0.0465621 2.39541
0.920875 0.223238 13.7532
0.000974321 0.0259058 4.24275
1.15086 1.14808 17.1913
-0.070391 0.314706 7.29902
1.04027 0.719975 18.1933
1.3163 1.1998 14.9528
-0.030606 1.02202 10.1074
1.02235 0.797892 16.6554
0.0366203 0.494005 12.3833
-0.505408 0.0699639 19.2973
-0.00611685 -0.0816119 18.9226
1.56581 0.556237 14.3122
1.85501 0.547335 13.4804
0.0903234 0.580806 3.0729
1.03929 0.307467 16.2573
0.0594259 0.209916 10.9154
-0.445339 0.346437 19.4339
-0.00775928 0.287322 18.9448
1.82947 -0.0151974 12.7719
1.61368 -0.710025 15.5921
0.347966 -0.830798 -1.95951
0.762786 -0.589605 16.8782
0.108519 -0.351231 7.94715
-0.765211 1.01487 19.4265
0.00133146 0.573335 19.3791
-1.3418 1.2332 20.7938
0.0109915 2.89066 19.9625
-1.74832 0.732202 22.1166
0.0127836 3.04328 19.7407
0.33562 -0.531289 19.3794
0.00168804 -0.038974 8.13826
0.753791 -1.02751 19.2288
-0.00200344 -0.281091 8.09956
0.826459 -0.857511 20.1476
0.0379516 -0.981122 11.7351
0.0775307 -0.707321 10.1422
1.25888 -0.719975 18.5879
0.465319 -0.108274 19.337
0.493626 -0.101342 19.653
0.0727906 -0.622974 11.4801
2.24274 -0.794088 20.1868
-0.641912 -0.426712 11.2523
0.427759 -0.251456 21.3905
-0.916752 0.222717 13.6766
-0.18176 0.0849902 21.479
-1.14465 1.09537 17.084
-0.809062 0.455881 21.2626
-0.883579 0.799906 17.2872
-1.28949 1.14905 14.8601
-1.09343 0.427832 20.9967
-0.923099 0.812079 16.5853
-0.80399 0.584549 20.6943
0.501837 0.065821 19.2954
0.521766 -0.0264448 19.6154
-1.27903 0.660146 14.9723
-1.82933 0.525376 13.2966
-1.30496 0.363424 20.9977
-1.50414 0.0739502 16.2632
-0.846416 0.416916 20.7724
0.440128 0.348814 19.441
0.540597 0.15699 19.6051
-1.59165 -0.0371923 13.6931
-1.62871 -0.66905 15.5991
-1.46793 -0.193512 20.8868
-0.364834 -0.554169 16.9292
-0.95273 -0.313145 20.3541
0.766305 1.00709 19.4305
0.396762 0.301879 19.7916
1.34226 1.215 20.7945
1.1846 0.887311 20.2996
1.73777 0.723773 22.1166
1.28175 0.39267 21.0347
-0.356361 -0.530896 19.2392
0.310075 -0.15738 21.7344
-0.759313 -1.01356 19.1034
-0.538384 -0.562796 21.3645
-0.857815 -0.894517 19.7464
-0.671297 -0.618771 21.0805
-0.330948 -0.481356 20.3251
0.823913 -0.155102 19.9348
0.464032 -0.025275 19.8479
0.872401 -0.193892 21.0149
1.24128 -0.194492 20.3677
0.188928 -0.120807 21.3309
0.480713 -0.189374 21.1912
-0.301445 0.0958366 21.361
-0.0716403 -0.0216069 21.4287
-0.660754 0.206211 21.0882
-0.578042 0.153934 21.2614
-0.718514 0.191811 20.5093
-0.687767 0.193879 20.7816
-0.895492 0.0876506 20.4163
0.874171 -0.0480412 19.9057
0.473649 0.0432242 19.8389
0.913483 -0.140065 21.0121
1.355 0.0336171 20.3635
0.231297 -0.169863 21.3675
0.606552 -0.191613 21.1643
-0.34529 0.0408702 21.405
-0.042902 -0.114887 21.4653
-0.740192 0.119241 21.0881
-0.659432 0.00677956 21.3032
-0.704618 0.129636 20.8528
-0.782913 0.0485006 20.7758
-0.91654 -0.0671092 20.4606
0.880162 0.167075 19.9189
0.431205 0.171041 19.8703
0.981949 0.00432401 20.9384
1.10329 0.385747 20.3483
0.390614 -0.229823 21.3943
0.762968 0.00393644 21.0886
-0.350839 -0.122236 21.4304
0.0739576 -0.155683 21.4761
-0.778941 -0.0822665 21.1286
-0.563771 -0.242781 21.2764
-0.782757 -0.125431 20.6958
-0.752238 -0.245074 20.6833
-0.94282 -0.101094 20.3936
0.62746 0.362281 20.0427
0.834937 0.335423 20.7654
0.54074 0.043675 21.3402
-0.188712 -0.209633 21.3924
-0.551454 -0.372984 21.132
-0.457798 -0.247768 20.7777
-0.843449 -0.103849 19.9268
-1.33843 -0.571111 18.4778
-1.13528 -0.347548 19.4646
-1.25066 -0.161658 19.3682
-0.508676 -0.0689647 19.6312
-2.44019 -0.640932 20.2097
-0.897062 -0.171171 21.0101
0.476913 -0.640014 4.12945
-1.14208 -0.282232 21.4672
-1.08445 -0.254623 21.5184
-0.418328 -0.327363 21.4186
-0.193556 -0.135727 21.3416
0.191643 -0.219716 4.99053
-0.09264 -0.118282 21.5187
-0.0579898 -0.299832 21.4347
0.238689 0.0339458 21.4327
0.326554 0.0772446 21.3823
0.617325 0.0116146 8.62143
0.508808 0.269091 21.4191
0.609942 0.152229 21.2341
0.934772 0.401256 21.2021
0.693504 0.184438 21.1164
1.19553 1.0362 14.2014
0.974247 0.588475 21.013
1.26295 0.404747 20.8095
1.29899 0.339299 20.4822
0.68366 0.0891707 20.8276
1.38646 0.634969 16.1026
0.782176 0.349387 21.2508
1.085 0.292114 21.4143
0.770689 0.468465 20.8087
-0.909188 0.0479242 19.9102
-1.54165 0.13974 18.131
-1.28908 0.347529 19.3731
-0.530137 0.0572367 19.6124
-2.90895 0.115337 20.2547
-0.932912 -0.071515 21.0004
-1.29852 -0.023616 21.313
-0.729943 -0.580762 21.2973
-0.303344 -0.224279 21.4032
-0.51243 -0.660789 21.4625
0.280675 -0.220771 21.0303
0.357363 -0.0386094 21.4317
0.706994 -0.227724 20.9564
1.12666 0.0856788 20.8952
0.770374 0.0129341 21.1218
1.09887 0.40403 8.02077
1.40528 -0.209726 20.5186
1.4432 0.0364042 20.5655
0.907804 -0.0256145 21.2357
1.8631 0.424734 12.3437
1.34887 -0.281325 19.8654
0.675031 0.0678927 20.8388
-0.802875 0.299671 19.96
-1.14486 1.0817 18.9318
-0.787138 0.626689 19.8063
-0.477471 0.246232 19.6836
-1.79523 0.983769 20.2749
-0.93254 0.178777 20.8663
-2.25987 1.00376 21.0533
-1.15048 0.598174 20.8173
-1.48653 -0.086486 21.1125
-0.527378 -0.133442 21.3944
-1.25181 -0.282778 13.0381
-0.99651 0.128018 21.6296
-0.164906 -0.392779 21.6201
0.278347 -0.205346 21.4204
1.2268 0.487494 11.0392
0.211658 -0.391341 21.5961
0.871917 -0.537588 21.1792
0.67975 -0.263208 21.0062
1.5258 -0.538717 14.6338
0.694188 -0.689136 21.2663
1.12774 -0.510951 20.761
0.690166 -0.229909 20.8267
1.37768 -0.565163 16.9835
0.88653 -0.524409 20.2648
0.720336 -0.487097 19.904
1.33498 -0.577988 18.4423
-0.00931361 -1.21034 17.5053
-0.00959735 -0.657054 16.93
-0.00823694 -0.169197 18.9932
-0.00125119 -9.30936 15.8124
-0.468465 -0.630898 4.03667
-0.00164186 -0.00936635 1.1784
0 0 0
-0.191623 -0.220026 4.99811
-0.000541622 0.00991852 3.42878
-7.75831e-05 0.000566224 0.0776554
-0.612698 0.0139726 8.57686
-0.00781973 0.357379 5.63183
-0.0994618 0.189801 3.22411
-1.16158 1.00542 14.0411
-0.126575 0.571599 9.01467
-0.11289 -0.0957901 0.131693
0.0328259 0.981149 6.50382
-1.06898 0.781756 15.8226
-0.205678 1.04287 12.2995
0.082205 0.874219 8.38468
0.0480231 0.351961 11.6494
1.54359 0.138407 18.104
-0.00699285 1.14555 16.8914
-0.00404399 0.0757247 18.8581
-1.01351 0.421091 7.73023
0.180433 -0.621591 -3.21609
0.204968 -1.00702 -3.34726
-1.74075 0.409373 13.4118
0.103808 -0.180637 3.56281
0.0810729 -0.0746076 9.45372
1.13814 1.08069 18.9301
0.00406615 1.51515 18.9854
-0.000460949 0.487246 19.0957
0.00679804 5.34031 20.0245
2.24759 0.97883 21.0594
0.00909488 2.01305 20.7283
0.0161094 1.09065 10.2888
1.27668 -0.306429 13.1716
0.00327996 1.41649 15.6885
0 0 0
-1.23608 0.489147 10.9334
0.0134533 0.00117098 7.6688
-0.163166 0.913166 -1.42872
-1.54934 -0.494268 14.4796
-0.0334609 -0.571311 9.27658
-0.0191013 -0.611916 0.280288
-1.38388 -0.646232 16.1518
-0.200961 -1.39123 11.8103
0.140475 -0.748089 5.517
0.845349 -0.101752 19.9216
1.14028 -0.356357 19.4533
1.25848 -0.1662 19.3526
0.512544 -0.0711868 19.6236
2.45129 -0.649828 20.2079
0.894333 -0.164857 21.011
1.14469 -0.283789 21.4666
1.08568 -0.256466 21.5194
0.420587 -0.329103 21.4159
0.194288 -0.137095 21.3391
0.0945867 -0.120416 21.5134
0.0591046 -0.300746 21.4313
-0.234514 0.0328747 21.4276
-0.325199 0.0776462 21.3764
-0.505523 0.265946 21.4088
-0.608237 0.151561 21.2253
-0.918446 0.394472 21.1843
-0.689302 0.173745 21.0615
-0.976194 0.576248 20.8891
-1.23573 0.398919 20.8105
-1.22325 0.427049 21.0106
-0.715471 0.163484 20.6708
-0.916756 0.487613 20.8665
-1.12727 0.43889 20.3103
-0.81716 0.508047 20.7373
0.914953 0.0501883 19.9051
1.2948 0.356111 19.3632
0.538962 0.0575427 19.6016
2.91804 0.116361 20.2517
0.933032 -0.0734107 20.9996
1.30297 -0.0212625 21.3176
0.734008 -0.577634 21.2937
0.303691 -0.223726 21.403
0.514767 -0.65909 21.4552
-0.277099 -0.218539 21.0204
-0.35772 -0.0379739 21.4286
-0.70647 -0.224781 20.9462
-1.10866 0.0868195 20.8728
-0.774551 0.0147595 21.122
-1.38569 -0.197113 20.4906
-1.38963 0.085906 20.9489
-0.726689 0.0256041 20.8346
-1.17317 -0.131572 20.5747
-1.26238 -0.0867862 20.6638
0.801483 0.302795 19.96
0.784961 0.621994 19.8091
0.476751 0.24812 19.6835
1.78538 0.976077 20.2748
0.929671 0.182917 20.8678
1.14123 0.590055 20.8168
1.47237 -0.0858806 21.1131
0.526145 -0.129153 21.393
0.988487 0.125513 21.6247
0.163299 -0.391746 21.6196
-0.279954 -0.202466 21.4181
-0.216845 -0.39285 21.5954
-0.871993 -0.531834 21.1668
-0.688019 -0.266998 21.0213
-0.699619 -0.680037 21.2684
-1.13975 -0.504437 20.8571
-0.679367 -0.266676 20.7362
-0.826655 -0.587503 19.874
-0.828715 -0.354153 20.0933
-1.2028 -0.275625 19.4197
-1.10709 -0.25775 21.4819
-0.0602975 -0.198586 21.532
0.568119 0.214144 21.3417
1.15558 0.484786 20.9232
0.93199 0.323561 21.4381
-1.32416 0.082591 19.3263
-1.19819 -0.211801 21.5348
-0.201856 -0.51555 21.251
0.678161 -0.0113825 20.972
1.40537 0.107394 20.6458
1.38296 0.159998 19.4418
-1.07648 0.569764 19.5908
-1.35135 0.282324 21.0014
-1.01385 -0.333947 21.7197
0.474904 -0.432286 21.3673
1.09514 -0.640364 21.0335
1.10367 -0.454753 20.4764
-0.0108098 -1.04291 17.1525
0 0 0
0 0 0
-0.00555563 0.191842 1.92184
-0.176997 0.241889 4.26244
-0.0617371 0.958542 10.3421
-0.00857691 0.186591 16.6168
0.224443 -0.828178 -4.24401
0.175581 0.420082 3.16247
0.000823758 1.67972 18.0573
0.000351762 1.79108 19.605
0 0 0
0.00418575 0.497099 -1.95839
-0.102868 -0.290927 -0.0997693
-0.157754 -1.39941 3.07094
1.21232 -0.285019 19.4087
1.10976 -0.259883 21.4824
0.0615389 -0.199427 21.5287
-0.565382 0.212155 21.331
-1.13289 0.479126 20.9565
-1.05708 0.482459 20.4577
1.3308 0.0854145 19.3142
1.20363 -0.211002 21.5394
0.206141 -0.513818 21.2401
-0.675619 -0.0100491 20.9579
-1.38685 0.107975 20.6614
-1.18931 0.143835 20.2902
1.07217 0.570298 19.5912
1.34253 0.283897 20.9999
1.00642 -0.332962 21.7148
-0.479352 -0.431223 21.3629
-1.08639 -0.631464 21.0358
-1.05219 -0.565625 20.0664
-5.32986 -0.990877 5.6711
-0.354288 -1.6111 1.1854
-0.00641323 -0.0396562 1.13731
0.290159 -0.064382 1.48177
-0.105744 0.0979719 0.396943
0.109534 0.0101288 2.17448
-12.1542 3.11767 9.89613
-0.371874 1.98866 1.45977
-0.162925 -0.182351 2.28552
-0.0139573 0.00913934 0.191713
-0.0473207 0.0552346 -0.0846856
0.175085 0.159222 1.03731
0.353215 -1.60764 1.17971
5.33461 -1.00418 5.67646
0.00472257 -0.039397 1.13662
0.108473 0.0832563 0.370863
-0.282433 -0.0672196 1.45862
-0.107768 0.0109804 2.15741
0.400244 2.151 1.56837
12.5305 3.18409 10.002
0.165887 -0.187901 2.2863
0.0409233 0.0747073 -0.111253
0.0182412 0.00927204 0.186171
-0.178517 0.163184 1.03512
0.0153167 -0.103115 0.310091
0.00245947 -0.00678389 0.074562
0 0 0
0 0 0
0.107872 -0.0904958 1.68517
1.72225e-05 0.00774755 0.319381
0 0 0
4.90408e-18 -1.26469e-19 7.76351e-17
-0.418569 -0.593111 1.67242
6.17775e-07 -5.18251e-05 0.000231218
0.0132854 0.0734129 1.45312
0 0 0
0.0649717 0.105202 0.343387
4.92554e-06 0.000323066 0.00118154
0.14982 0.20627 0.794551
0.0225755 0.00552879 0.206544
-0.0153702 -0.103105 0.310204
0 0 0
-0.00243598 -0.00676749 0.0746042
0 0 0
-0.113951 -0.0936256 1.65776
0 0 0
-1.36176e-05 0.00778699 0.318654
0 0 0
0.420814 -0.595599 1.67118
0 0 0
-1.15642e-06 -9.76573e-05 0.000434852
-0.0129324 0.0728413 1.44979
-0.0646618 0.104912 0.341652
-0.0225894 0.00555719 0.205847
-5.17691e-06 0.000340621 0.00123416
-0.151873 0.200882 0.779075
-4.47821e-05 7.68747e-05 0.00167373
0 0 0
0 0 0
0.00363887 -0.418278 0.190585
3.04708e-05 -0.000421471 0.00252703
1.27519e-08 -1.95897e-08 8.26505e-07
2.69992e-06 1.22876e-05 0.000133579
2.1131e-05 -3.70956e-07 5.27479e-07
-3.5721e-05 0.000184341 0.00316551
-0.00964457 -0.0161617 -0.00414577
1.95201e-05 0.000130165 0.00205052
0 0 0
0.000281704 0.323145 0.11508
-2.36547e-07 2.39025e-05 0.00100917
-0.00543698 -0.0416376 0.166505
0 0 0
1.59403e-05 -3.27399e-05 1.15292e-05
-0.00014596 0.000624632 -0.00510589
6.3779e-05 0.000540798 0.00405233
-3.01435e-05 1.98471e-05 -0.000406636
0.0111808 0.0124503 0.00537896
5.02177e-05 0.000105712 0.00188635
-6.27813e-07 -9.87075e-07 4.18089e-05
-3.07498e-05 -0.000417193 0.00251498
-2.34339e-05 -1.23955e-06 1.1412e-06
-8.3347e-07 3.89109e-06 4.13594e-05
0 0 0
-1.93609e-05 0.00013038 0.00202735
0 0 0
0.00546685 -0.0416299 0.164773
2.46227e-05 1.95398e-05 -0.000386526
-3.7104e-05 0.000318837 0.00235271
0 0 0
0 0 0
-4.46552e-09 1.88675e-07 -5.22975e-07
-2.79249e-09 -2.2931e-08 -4.89478e-07
1.00291e-08 1.71909e-08 7.36107e-07
1.10938e-06 6.80931e-07 0.000121807
1.07218e-07 4.29344e-06 2.17851e-05
-1.72488e-05 0.000763721 0.00614468
5.66637e-07 3.86631e-07 9.6568e-05
0 0 0
-4.97004e-06 0.000200942 0.000983524
-0.000396794 0.00920698 0.265327
-6.40812e-07 -1.35104e-07 -8.62689e-07
-0.000273777 0.594728 0.89707
1.7287e-06 1.025e-06 0.000287506
0.000113188 0.00316539 -0.00306466
0 0 0
0 0 0
2.15923e-08 9.10169e-07 -2.51209e-06
-1.31432e-07 1.08744e-06 2.29289e-05
2.13719e-07 -8.58688e-06 -4.33284e-05
1.67888e-05 0.000759016 0.00611966