# vtk DataFile Version 2.0
tri_press
ASCII
DATASET UNSTRUCTURED_GRID
POINTS 3682 float
-0.875 0.365 -2.47731
-0.869546 0.325 2.515
-0.855 0.785 -2.43373
-0.855 0.705 2.46054
0.875 0.365 -2.47733
0.869548 0.325 2.515
0.855 0.785 -2.43373
0.855 0.705 2.46054
-0.871461 0.353388 -0.813207
-0.871459 0.338238 0.850897
-0.871046 0.774379 -0.802307
-0.871441 0.748108 0.829117
0.871461 0.353389 -0.81322
0.871459 0.33824 0.85089
0.871044 0.774377 -0.802307
0.871441 0.748108 0.829117
-1.74675 0.1706 -3.79873
-1.74522 0.158999 -2.48054
-1.74265 0.147392 -0.815587
-1.7395 0.135125 0.855939
-1.73585 0.120732 2.52144
-1.73565 0.102948 3.84235
-1.73661 0.0827705 5.15824
-1.74534 0.378571 -3.78869
-1.74385 0.367043 -2.47406
-1.74274 0.354534 -0.815472
-1.73918 0.337303 0.846058
-1.73307 0.318176 2.50527
-1.7342 0.300012 3.82572
-1.73615 0.280579 5.14267
-1.73698 0.797636 -3.75943
-1.73133 0.786642 -2.44345
-1.74035 0.773082 -0.807144
-1.73802 0.745851 0.826851
-1.72516 0.708917 2.46379
-1.73011 0.691207 3.78559
-1.73504 0.675355 5.10781
-1.73201 1.42724 -3.74011
-1.73023 1.41481 -2.42903
-1.73386 1.39453 -0.803315
-1.73684 1.36305 0.815355
-1.73589 1.32603 2.44141
-1.7358 1.3013 3.75321
-1.73713 1.28187 5.07186
-0.877426 0.169053 -3.80084
-0.874683 0.157195 -2.48362
-0.871797 0.14637 -0.815178
-0.870467 0.136202 0.860068
-0.869077 0.125106 2.52866
-0.869565 0.105645 3.84725
-0.870387 0.083976 5.16107
-0.877739 0.377091 -3.78934
-0.869861 0.302194 3.82976
-0.870764 0.281295 5.14481
-0.870637 0.796511 -3.75539
-0.8665 0.689787 3.78494
-0.870484 0.674467 5.10767
-0.863839 1.42727 -3.73611
-0.861135 1.41528 -2.42463
-0.864537 1.39553 -0.800663
-0.869142 1.36323 0.815035
-0.870182 1.32454 2.43914
-0.870479 1.29947 3.75093
-0.871545 1.28038 5.07021
0.865048 0.169053 -3.80086
0.872004 0.157195 -2.48363
0.871564 0.146371 -0.81519
0.871372 0.136203 0.860062
0.86955 0.125106 2.52866
0.865212 0.105646 3.84725
0.863147 0.0839765 5.16107
0.862179 0.377091 -3.78935
0.862246 0.302194 3.82976
0.861133 0.281295 5.14481
0.857585 0.796511 -3.75539
0.857107 0.689787 3.78493
0.858543 0.674467 5.10767
0.86988 1.42727 -3.73612
0.873085 1.41528 -2.42463
0.873077 1.39553 -0.800666
0.867632 1.36323 0.815032
0.861683 1.32454 2.43913
0.859975 1.29947 3.75093
0.859694 1.28038 5.0702
1.73647 0.170599 -3.79875
1.74292 0.158999 -2.48056
1.74319 0.147392 -0.815607
1.74139 0.135126 0.855926
1.73748 0.120733 2.52143
1.73328 0.102949 3.84234
1.73093 0.0827712 5.15823
1.734 0.37857 -3.78871
1.74272 0.367043 -2.47409
1.74337 0.354535 -0.815492
1.74074 0.337305 0.846047
1.73462 0.318177 2.50527
1.73013 0.300013 3.82572
1.72861 0.28058 5.14267
1.72843 0.797635 -3.75944
1.73182 0.786641 -2.44346
1.74173 0.77308 -0.807152
1.73917 0.745852 0.826845
1.72558 0.708917 2.46378
1.7241 0.691208 3.78558
1.72524 0.675355 5.1078
1.7375 1.42724 -3.74012
1.74046 1.41481 -2.42904
1.7416 1.39453 -0.803323
1.7367 1.36305 0.815349
1.72967 1.32603 2.44141
1.72702 1.3013 3.7532
1.72655 1.28187 5.07185
-0.860565 0.575 -2.45109
0 0.362686 -2.47963
-0.899595 0.332829 -1.64526
-0.845449 0.515 2.47095
1.01328e-06 0.323353 2.51665
-0.899875 0.302246 1.68295
0 0.804119 -2.45285
-0.870954 0.787621 -1.61802
0 0.705804 2.46134
-0.873659 0.736992 1.64483
0.860376 0.575 -2.45091
0.899595 0.33283 -1.64528
0.845469 0.515 2.47097
0.899875 0.302248 1.68295
0.870954 0.787621 -1.61802
0.873653 0.736987 1.64483
-0.87146 0.345813 0.0188451
-0.871615 0.563884 -0.807757
-4.41139e-08 0.193727 -0.813213
-0.871621 0.543173 0.840007
-1.51793e-07 0.204821 0.850894
-0.87123 0.76123 0.0134051
-1.06092e-06 0.831488 -0.802307
0 1.27116 0.829117
0.871466 0.345808 0.0188351
0.871615 0.563883 -0.807763
0.871621 0.543174 0.840004
0.87129 0.76129 0.0134051
-0.896497 0.569442 -1.63164
0.896497 0.569441 -1.63165
-2.20569e-08 0.163401 -1.64527
-5.30458e-07 0.812612 -1.61802
0 0.575 -2.48691
-0.871618 0.553528 0.0161251
0.871624 0.553528 0.0161201
-9.79533e-08 0.199254 0.0188401
-5.30458e-07 1.27575 0.0134051
-0.896936 0.529087 1.66389
0.896936 0.529087 1.66389
4.30743e-07 0.261622 1.68295
0 0.814107 1.64483
5.06639e-07 0.515 2.48393
-0.87758 0.47 -2.474
-0.4375 0.399934 -2.44238
-0.899438 0.336774 -2.06128
-0.87405 0.42 2.50953
-0.434772 0.323352 2.51665
-0.871671 0.326663 2.09897
-0.862895 0.68 -2.44752
-0.4275 0.757124 -2.40585
-0.87088 0.794214 -2.02587
-0.850081 0.61 2.4656
-0.4275 0.705797 2.46134
-0.874129 0.730796 2.05268
0.4375 0.399943 -2.44238
0.877597 0.47 -2.47403
0.899438 0.336775 -2.0613
0.434775 0.323352 2.51665
0.874 0.42 2.50947
0.871644 0.326692 2.09897
0.4275 0.757802 -2.40653
0.862917 0.68 -2.44755
0.870882 0.794215 -2.02587
0.4275 0.705804 2.46134
0.850085 0.61 2.4656
0.874121 0.730788 2.05268
-0.871351 0.357286 -1.22923
-0.87146 0.349601 -0.397181
-0.871461 0.458674 -0.810482
-0.466403 0.212213 -0.81321
-0.899932 0.305978 1.26692
-0.871459 0.342026 0.434871
-0.871459 0.440746 0.845452
-0.465228 0.212532 0.850895
-0.871035 0.781035 -1.21016
-0.871519 0.669226 -0.805032
-0.871183 0.76785 -0.394451
-0.441422 0.814731 -0.802307
-0.87143 0.74143 1.23697
-0.871583 0.645667 0.834562
-0.871326 0.75466 0.421261
-0.552256 1.24271 0.829117
0.871351 0.357286 -1.22925
0.466403 0.212213 -0.813217
0.871466 0.349596 -0.397193
0.871461 0.458674 -0.810492
0.899931 0.30598 1.26692
0.465228 0.212533 0.850892
0.871459 0.342027 0.434863
0.871459 0.440747 0.845447
0.871045 0.781045 -1.21016
0.441417 0.814724 -0.802307
0.871533 0.669232 -0.805035
0.871176 0.767843 -0.394451
0.87143 0.74143 1.23697
0.55223 1.24265 0.829117
0.871583 0.645667 0.83456
0.871326 0.75466 0.421261
-0.896371 0.572221 -2.04136
-0.430283 0.575 -2.42513
-1.10285e-08 0.202249 -2.06245
0 0.468843 -2.50369
-0.898051 0.451136 -1.63845
-0.449797 0.174501 -1.64526
-0.871601 0.522043 2.06742
-0.422724 0.515 2.48393
7.22011e-07 0.296895 2.0998
7.59959e-07 0.419177 2.53518
-0.898412 0.415666 1.67342
-0.449937 0.265102 1.68295
-2.65229e-07 0.812485 -2.03543
0 0.68956 -2.47982
-0.891957 0.678531 -1.62483
-0.435477 0.798853 -1.61802
0 0.791253 2.05309
2.5332e-07 0.610402 2.48339
-0.895575 0.633039 1.65436
-0.436829 0.814109 1.64483
0.896371 0.572221 -2.04128
0.430188 0.575 -2.42511
0.898051 0.451136 -1.63846
0.449797 0.174504 -1.64527
0.8716 0.522043 2.06743
0.422735 0.515 2.48393
0.898411 0.415668 1.67342
0.449938 0.265271 1.68295
0.89197 0.678531 -1.62483
0.435477 0.798855 -1.61802
0.895575 0.633037 1.65436
0.436827 0.814109 1.64483
-0.87146 0.44971 0.0174851
-0.46581 0.212372 0.0188426
-0.871431 0.566663 -1.2197
-0.871617 0.558706 -0.395816
-3.30854e-08 0.18564 -1.22924
-7.10336e-08 0.196502 -0.397187
-0.871619 0.548351 0.428066
-0.896942 0.53613 1.25195
-1.24873e-07 0.202032 0.434867
1.39475e-07 0.215622 1.26692
-0.87158 0.657457 0.0147651
-0.55006 1.24738 0.0134051
-7.95686e-07 0.812737 -1.21016
-7.95686e-07 1.21385 -0.394451
-2.65229e-07 1.27423 0.421261
0 0.986781 1.23697
0.871466 0.449708 0.0174776
0.465812 0.212372 0.0188376
0.871431 0.566662 -1.21971
0.871622 0.558706 -0.395822
0.871619 0.548351 0.428062
0.896941 0.53613 1.25195
0.871586 0.657474 0.0147626
0.550075 1.24738 0.0134051
-0.897834 0.460568 -2.05132
-0.871451 0.454886 -1.22447
-0.871413 0.673831 -1.21493
-0.891501 0.679266 -2.03362
0.897834 0.460568 -2.05129
0.891513 0.679266 -2.03358
0.871413 0.67383 -1.21493
0.871451 0.454886 -1.22448
-0.443649 0.210361 -2.06187
0.443649 0.210361 -2.06188
0.442764 0.210623 -1.22924
-0.442764 0.210623 -1.22924
-0.431489 0.787212 -2.03065
-0.4355 0.807302 -1.21016
0.435499 0.807302 -1.21016
0.431488 0.787212 -2.03065
-0.433891 0.469422 -2.44927
-0.428891 0.68478 -2.42216
0.428844 0.68478 -2.42216
0.433844 0.469422 -2.44875
-0.87146 0.454192 -0.396498
-0.871459 0.445228 0.431469
-0.871582 0.651562 0.424663
-0.871573 0.663353 -0.395133
0.871466 0.45419 -0.396507
0.871581 0.663364 -0.395136
0.871582 0.651569 0.424661
0.871459 0.445229 0.431462
-0.466107 0.212293 -0.397184
0.466108 0.212293 -0.39719
0.46552 0.212452 0.434865
-0.465519 0.212452 0.434869
-0.556973 1.15352 -0.394451
-0.551632 1.24599 0.421261
0.551634 1.24598 0.421261
0.556968 1.1535 -0.394451
-0.898351 0.428186 1.25944
-0.871706 0.417833 2.0832
-0.871562 0.62152 2.06005
-0.895573 0.63934 1.24446
0.898351 0.428187 1.25943
0.895573 0.639339 1.24446
0.871561 0.621518 2.06006
0.871706 0.417834 2.0832
-0.442833 0.216719 1.26692
0.442833 0.216719 1.26692
0.442356 0.298402 2.09938
-0.442355 0.298407 2.09939
-0.436275 0.945843 1.23697
-0.432165 0.791215 2.05289
0.432163 0.791215 2.05289
0.436274 0.945855 1.23697
-0.428748 0.419588 2.5354
0.428755 0.419588 2.5354
0.425117 0.610201 2.48339
-0.425112 0.610201 2.48339
-0.876504 0.4175 -2.47587
-0.65625 0.399932 -2.44238
-0.871656 0.36645 -2.2693
-0.87173 0.3725 2.5122
-0.652159 0.323351 2.51665
-0.880506 0.315934 2.30699
-0.863887 0.7325 -2.44556
-0.64125 0.756348 -2.40508
-0.870846 0.797513 -2.2298
-0.852447 0.6575 2.46298
-0.64125 0.705794 2.46133
-0.875329 0.728662 2.25661
0.65625 0.399946 -2.44238
0.876501 0.4175 -2.47588
0.871639 0.366467 -2.26932
0.652161 0.323353 2.51665
0.871649 0.3725 2.51211
0.880057 0.316385 2.30699
0.64125 0.756922 -2.40565
0.863968 0.7325 -2.44565
0.870847 0.797513 -2.2298
0.64125 0.705804 2.46134
0.852273 0.6575 2.4628
0.875316 0.72865 2.25661
-0.871351 0.355392 -1.02122
-0.871461 0.351494 -0.605194
-0.871461 0.406031 -0.811844
-0.70385 0.212963 -0.813208
-0.882706 0.325097 1.05891
-0.871459 0.340132 0.642884
-0.871459 0.389492 0.848174
-0.699369 0.213334 0.850896
-0.871076 0.777742 -1.00623
-0.877606 0.724964 -0.803669
-0.871121 0.771121 -0.598379
-0.665659 0.813405 -0.802307
-0.871395 0.744729 1.03304
-0.87302 0.697641 0.831839
-0.871384 0.751384 0.625189
-0.721026 1.01376 0.829117
0.871351 0.355392 -1.02123
0.70385 0.212963 -0.813218
0.871466 0.351489 -0.605206
0.871461 0.406032 -0.811856
0.882706 0.325099 1.0589
0.69937 0.213334 0.850891
0.871459 0.340133 0.642876
0.871459 0.389494 0.848169
0.87108 0.777747 -1.00623
0.665649 0.813389 -0.802307
0.877611 0.724966 -0.803671
0.87111 0.77111 -0.598379
0.871395 0.744729 1.03304
[...]
POINT_DATA 3682
SCALARS point_scalars float 1
LOOKUP_TABLE default
-31.3279
-46.2128
-40.1208
-41.1269
-26.9212
-45.3819
-40.2553
-40.3136
-29.9189
-32.3559
-29.0739
-41.2605
-29.9396
-32.1619
-29.0996
-41.277
20.9724
-149.765
-29.9417
-32.2112
-40.6062
-45.5731
-45.5731
20.9724
-149.769
-29.3968
-32.5097
-40.2451
-45.5731
-45.5731
16.1915
-173.543
-30.7112
-40.4801
-40.3312
-42.1659
-42.1659
-1.76489
-107.962
-28.0916
-40.4753
-39.1169
-41.4677
-39.0916
20.9724
-55.606
-32.8174
-36.5768
-44.4942
-39.5677
-39.5677
20.9724
-36.9617
-38.9743
50.7662
-34.166
-34.166
-1.76489
-112.338
-23.6404
-51.603
-39.4705
-36.5251
-35.5284
20.0013
-48.5535
-32.8232
-36.2872
-43.6996
-38.75
-38.75
20.0013
-36.565
-38.6483
52.0854
-33.4798
-33.4798
-2.1565
-111.066
-24.1551
-51.6298
-36.8943
-35.6078
-34.5945
20.0013
-151.293
-29.962
-32.2385
-40.0069
-44.6953
-44.6953
20.0013
-150.765
-29.4043
-32.3386
-39.5521
-44.6953
-44.6953
15.447
-175.52
-30.7378
-40.4909
-39.6367
-41.3048
-41.3048
-2.1565
-107.689
-28.1224
-40.4855
-38.5916
-40.6158
-38.1789
13.1002
20.0119
-48.7134
-41.0838
-30.9639
-35.0459
-91.102
-32.9491
-32.9588
-39.2619
15.6506
-48.7403
-40.1489
-34.8879
-33.0079
-39.2499
-34.1321
-28.9168
-38.9632
-34.9598
-36.4235
-45.9424
16.9775
-54.7029
-34.1136
-28.9225
-34.9293
-46.0896
-40.4985
-40.5101
-75.4368
-25.8335
200.943
-37.8135
-37.7983
-33.703
-87.6572
-37.1624
-37.0417
-36.0306
-40.0259
-25.403
11.3704
86.1363
-76.7471
-43.108
-35.2483
-30.409
-9.41802
-126.351
-57.1592
-40.9516
-32.5491
-36.4696
86.3025
10.6225
-76.9791
-34.1992
-42.2454
-30.1077
-126.541
-12.2777
-57.34
-32.0813
-40.0624
-36.2713
-30.6744
-32.8704
-29.0397
-37.2681
-36.2208
-34
-33.4991
-35.968
-22.6351
-29.52
-46.0228
5.13618
-42.9085
-36.9346
-42.9261
-53.3448
-30.6912
-37.26
-32.8578
-29.0417
-36.2574
-35.9519
-33.9574
-33.4241
-22.6811
5.09226
-29.5348
-46.0171
-42.9906
-53.3852
-36.922
-43.0322
-66.6366
195.386
-96.9368
197.225
-43.1936
-72.0665
-32.333
-31.2253
-32.6138
-26.1598
-36.5968
-35.9419
-58.2181
171.032
-37.6266
-28.1237
-36.5261
-25.3093
-37.4977
-40.3979
-66.8243
195.306
-43.1988
-71.6642
-32.0324
-29.8696
-36.4558
-35.8269
-37.6869
-28.1322
-37.3973
-40.4981
-35.8454
-33.3309
-27.5126
-36.103
-50.496
-34.5794
-36.8188
-37.7413
-34.414
-39.1476
-40.2072
-76.173
-3.75678
-34.975
-62.5241
-40.0533
-35.8268
-33.3215
-27.5401
-36.0955
-36.8831
-37.7566
-40.2268
-76.1421
-68.3654
-28.6318
-26.8445
-62.2639
-68.5162
-62.5374
-26.8891
-28.6469
-100.637
-100.529
-47.3506
-47.3636
-61.622
-8.41315
-8.42688
-61.6186
188.025
142.25
142.808
188.856
-34.1062
-35.4145
-38.5459
-39.4057
-34.098
-39.4006
-38.5543
-35.3794
-33.9024
-33.8963
-34.0442
-34.0625
-12.4581
-56.4765
-56.4823
-12.5368
-37.2664
-31.0886
-33.2667
-37.6811
-37.308
-37.6605
-32.9755
-30.7928
-39.1419
-39.1371
-32.8384
-33.1279
-41.7964
-36.2734
-36.2926
-41.8873
-31.8581
-30.6184
-29.4607
-30.8538
16.7223
89.4899
-83.3559
-46.4733
-38.3815
-34.8727
-23.5442
-94.1334
-88.4596
-41.2494
-33.6519
-38.2284
88.4744
15.7454
-82.3943
-37.5405
-45.5995
-34.2889
-92.8073
-23.3242
-88.8284
-32.852
-40.3824
-37.803
-28.2222
-31.3074
-29.2274
-35.2631
-32.5257
-33.6269
-32.9411
-36.1094
-23.2399
-30.6514
-39.4757
-10.2355
-41.5789
-38.0075
-42.0569
-47.6815
-28.2318
-35.2425
-31.284
-29.2303
-32.8254
-35.9985
-33.5443
-32.8216
-23.2802
-10.2563
-30.6759
-39.4811
-41.5964
-47.703
-38.0018
-42.0692
3.24228
-10.2635
-99.5113
185.441
40.3814
39.6506
-60.8357
140.725
-58.5757
-41.8514
-44.9972
-65.5461
-40.8876
-41.7878
-35.7052
-33.0301
-32.5248
-31.6383
-31.7751
-28.677
-38.0583
-35.3703
-35.9665
-35.6103
-92.6298
-85.3235
-96.7957
96.9481
-42.5247
-25.7992
-35.6097
-29.7638
-33.3067
-33.167
-34.8934
-27.4781
-36.5666
-40.6613
-37.9989
-40.5924
2.77771
-19.5916
-100.186
187.529
-58.6615
-41.867
-45.007
-65.5475
-39.9891
-40.8806
-35.2071
-32.2528
-37.7786
-35.2687
-35.8187
-35.445
-42.6061
-25.8449
-35.688
-29.7729
-36.4778
-40.6868
-37.9349
-40.6765
-33.8091
-34.2047
-35.0522
-33.2311
-28.9299
-29.0245
-26.5941
-32.7159
-38.4544
-38.4823
-43.458
-36.0573
-34.1577
-35.9235
-36.1369
-31.1144
-36.2425
-36.2496
-35.2511
-37.8305
-47.2408
-44.8479
-42.4763
-55.9774
13.9976
13.9627
6.55468
54.8743
-54.8106
-54.8498
-57.6234
-47.8143
-33.8083
-34.1744
-35.0005
-33.2157
-28.933
-29.0345
-26.6122
-32.7112
-34.11
-35.9033
-36.1037
-31.1408
-47.2355
-44.3304
-42.6174
-55.9372
-49.5986
-41.6367
-39.3992
-33.2754
-49.6591
-41.6423
-39.4241
-33.2596
-98.8579
-74.6852
-74.6679
-63.0067
-39.3981
-26.3933
-26.4098
-14.3648
198.613
200.768
199.137
198.066
-36.7404
-37.8569
-37.6051
-39.0474
-36.7224
-37.8511
-37.5538
-39.0346
-33.6069
-33.8719
-33.9014
-33.6023
-85.3816
-108.82
-71.2316
-85.3689
-36.6891
-36.9352
-37.3373
-36.9287
-36.5977
-36.8025
-37.2297
-36.8857
-33.8308
-36.0946
-36.0343
-38.4344
-38.595
-40.214
-40.3117
-40.1307
-28.065
-25.3789
-25.2954
-26.462
-93.6114
186.5
-96.6646
154.267
-70.4614
-93.1628
-34.5983
-33.522
-33.2634
-33.908
-30.3808
-33.4243
-97.355
144.697
-97.4985
71.2734
-58.8864
-60.6708
-36.1174
-32.9914
-34.0388
-30.9072
-34.2421
-37.3177
-96.3105
155.058
-93.8074
185.518
-70.5922
-93.1
-32.7562
-32.7438
-34.0797
-32.8048
-30.0871
-33.0818
-97.4763
70.5102
-98.1787
145.514
-59.1456
-60.6892
-33.7923
-29.6959
-35.6321
-32.1379
-33.9694
-37.2517
-29.3194
-43.2322
-33.3856
-33.4923
-27.3221
-31.6732
-41.073
-35.0454
-36.7105
-37.6387
-34.778
-33.7809
-34.8016
-30.037
-34.868
-37.8157
-26.0547
-12.5728
-26.1621
-35.162
-42.2961
-72.7659
-0.904234
18.1649
-39.4848
-44.2026
-37.8273
-35.4884
-39.9443
-48.1952
-53.5815
-51.1946
-29.3325
-43.2119
-41.0592
-35.0376
-33.3241
-33.4816
-27.3322
-31.6623
-36.7492
-37.6959
-34.8439
-37.8295
-34.7685
-33.7442
-34.7471
-30.1118
-26.1077
-12.5791
-0.928772
18.0917
-26.1931
-35.1648
-42.2922
-72.7346
-39.5155
-44.3068
-53.5893
-51.2552
-37.8121
-35.5067
-40.0037
-48.084
-67.1559
-64.788
200.387
181.38
-101.25
-101.23
190.316
190.672
-51.8464
-36.7139
-95.2927
-61.5131
-31.7281
-32.8384
-31.1723
-31.0696
-32.6292
-32.806
-28.7746
-27.2656
-36.1715
-37.5552
-38.2697
-33.7628
-59.4927
-59.5095
156.722
160.194
-31.7376
-46.2963
-41.9549
-17.3992
-36.3403
-36.4037
-26.0831
-27.6792
-36.1428
-37.8079
-41.4532
-38.541
-67.3231
-65.034
184.043
201.101
-51.8952
-36.7217
-95.2712
-61.5282
-32.5395
-31.4293
-29.8775
-29.6904
-36.1265
-37.3306
-38.217
-33.5929
-46.3951
-31.7553
-17.4101
-41.9609
-37.7842
-35.9608
-38.65
-41.5373
-35.4541
-35.837
-33.4086
-33.5555
-28.0934
-26.8729
-34.9595
-37.5223
-49.6389
-49.6499
-34.4163
-34.4173
-36.0997
-37.7929
-37.4966
-37.9472
-34.3328
-34.306
-39.1613
-39.1451
-39.5621
-40.7892
-101.996
-63.0858
-5.08952
-5.10819
-30.0129
-29.8759
-61.2063
-61.2111
-40.6839
-40.7766
-35.4479
-35.801
-33.4024
-33.5425
-26.9106
-28.1135
-34.9517
-37.5157
-37.8086
-36.0694
-37.5219
-37.9561
-40.7868
-39.4447
-63.0732
-101.955
-85.9248
-53.8584
-50.5844
-97.9036
-27.5845
-26.9448
-34.8449
-38.7246
-26.1158
-29.9763
-32.785
-26.2043
-90.3837
-98.7938
-48.2961
-44.2788
-85.6968
-98.3586
-50.6364
-53.9119
-90.9175
-44.3818
-48.3756
-99.6387
-26.1584
-26.2288
-32.7949
-30.0212
-27.5933
-38.7354
-34.8895
-26.9583
-69.8874
-64.5161
-99.2427
-88.3435
-69.89
-88.412
-99.2253
-64.8205
-38.3393
-42.7321
-62.8897
-58.2163
-38.3565
-58.2102
-62.8805
-42.7756
-95.9276
-42.5899
-40.3806
-98.5947
-8.8712
4.54555
-15.399
-19.7602
-8.88033
-19.7675
-15.4137
4.51861
-95.9131
-98.6417
-40.3942
-42.6082
144.09
189.486
200.121
148.344
30.3868
104.008
188.554
178.042
30.8892
179.002
195.168
103.145
142.14
148.555
199.49
190.027
-31.3492
-34.5308
-36.4153
-32.1481
-34.221
-35.5465
-36.6626
-35.0396
-39.0865
-41.3872
-38.6644
-37.0578
-37.7713
-33.7553
-38.989
-43.3372
-31.3331
-32.1406
-36.4719
-34.5257
-37.78
-43.3343
-38.9842
-33.7534
-39.0808
-37.0348
-38.594
-41.1853
-34.1529
-35.007
-36.621
-35.3798
-34.255
-35.8279
-33.7421
-33.2341
-34.23
-33.2389
-33.7377
-35.8154
-34.4269
-35.1116
-33.8171
-33.4004
-34.491
-33.4237
-33.8301
-35.122
-41.5573
-63.0061
-106.186
44.0153
-46.7437
-56.7874
-69.389
-51.1093
-46.7466
-51.0625
-69.3819
-56.8034
-41.5472
43.9196
-106.142
-62.9831
-29.8981
-35.6441
-36.5869
-30.2986
-34.0349
-35.6525
-37.1554
-37.8452
-36.362
-35.3228
-36.6084
-36.0623
-37.2243
-33.2809
-37.2937
-38.7298
-30.0224
-30.3339
-36.5011
-35.5679
-37.2348
-38.7212
-37.2587
-33.307
-35.8873
-35.5667
-36.0935
-35.0734
-33.5031
-37.5937
-36.9561
-35.1402
-41.7187
-37.8063
-38.3932
-36.4585
-42.0772
-36.3579
-38.3622
-37.7989
-34.001
-31.9611
-33.7597
-33.5416
-34.5366
-33.7663
-33.8579
-32.3004
-48.1254
-42.1091
-40.6728
-48.5412
-35.3681
-34.4309
-38.5637
-39.0159
-34.995
-39.0781
-38.6772
-34.3739
-48.1665
-48.6068
-40.7609
-42.1866
-36.3121
-30.9737
-28.2001
-32.9759
-35.5178
-32.2386
-26.5081
-29.745
-32.3611
-27.2337
-26.2475
-32.1571
-33.2465
-32.9574
-27.8808
-28.5172
-1.12375
87.7544
-133.121
-46.1865
-40.9752
-40.6976
-40.3823
-101.434
-107.962
-41.2243
-36.1971
-40.3264
85.9998
0.143094
-134.26
-40.1574
-45.3362
-39.9765
-100.949
-40.8016
-107.689
-35.3492
-40.3783
-39.7353
-29.3244
-30.4623
-29.5151
-32.6208
-30.5116
-33.2132
-32.6386
-35.8186
-25.1675
-30.1988
-34.6855
-20.5318
-41.316
-39.8059
-41.5616
-43.9883
-29.3338
-32.6323
-30.4455
-29.5264
-30.2629
-35.5312
-33.0852
-32.4824
-25.2023
-20.55
-30.2253
-34.7021
-41.3341
-44.0226
-39.8119
-41.5746
7.5753
3.32405
-157.735
177.043
36.1593
36.6079
12.9722
96.7858
-52.3362
-47.861
-46.5462
-61.0541
-41.2681
-41.4179
-41.4859
-34.2731
-31.4885
-30.9977
-31.2877
-30.1898
-36.8553
-34.6655
-35.3227
-35.442
-100.678
-100.264
-129.6
21.492
-37.778
-30.3829
-34.3176
-30.5123
-33.5591
-33.4433
-34.8919
-30.1287
-38.3797
-39.839
-38.5317
-40.6816
8.59368
-1.60768
-158.824
179.558
-52.3846
-47.8762
-46.5621
-61.0899
-39.9643
-40.5424
-40.7736
-33.5377
-36.6709
-34.5405
-35.1704
-35.2611
-37.8329
-30.4299
-34.3836
-30.5322
-38.3387
-39.847
-38.4891
-40.7457
-33.9884
-34.1721
-34.5109
-33.0428
-28.908
-28.9698
-27.4398
-30.747
-38.8443
-38.9205
-41.1171
-37.1957
-34.5536
-35.4216
-35.688
-33.8967
-36.3376
-36.378
-35.7593
-37.1076
-46.6938
-45.3862
-44.1459
-50.386
16.1608
16.1349
12.2171
30.9826
-54.7226
-54.743
-56.0916
-54.0106
-33.9763
-34.1472
-34.5514
-33.0249
-28.9119
-28.9775
-27.452
-30.8008
-34.5149
-35.3962
-35.6511
-33.8898
-46.7003
-45.3417
-44.3458
-50.3497
-44.141
-41.0375
-40.0032
-38.6491
-44.1729
-41.0443
-40.0182
-38.6232
-84.9046
-75.3514
-75.2896
-68.2118
-32.2534
-25.8736
-25.8827
-19.9609
198.352
200.892
200.326
198.153
-37.2463
-37.7611
-37.7481
-38.4193
-37.2291
-37.7541
-37.7119
-38.4054
-33.6784
-33.7376
-33.7624
-33.6776
-87.0589
-101.927
-78.037
-87.0515
-38.7974
-37.0562
-37.2506
-36.777
-38.6325
-36.929
-37.137
-36.7156
-34.8017
-36.0702
-36.0395
-37.1128
-39.4987
-40.0943
-40.1543
-40.2565
-26.4198
-25.3968
-25.3492
-25.4146
14.453
-2.94711
-142.434
183.963
90.3838
74.4586
25.2893
128.414
-86.3711
-66.2969
-73.1456
-86.255
-44.9566
-42.3217
-42.4541
-35.0112
-36.7613
-33.8232
-33.6778
-35.1234
-28.4247
-32.3715
-30.0535
-32.9521
-7.39247
-8.7579
-153.305
155.747
-144.029
-56.6905
-135.776
-14.118
-69.0031
-49.4586
-57.9748
-58.9045
-41.1526
-41.3102
-40.0989
-34.6105
-32.6685
-32.5831
-33.3103
-31.6722
-35.8374
-35.8078
-35.2059
-38.9464
91.8008
74.9938
25.1524
128.904
13.5752
-3.60948
-142.532
188.351
-86.5757
-66.4264
-73.3094
-86.8528
-35.8224
-32.7806
-32.9807
-33.9741
-44.0791
-41.4572
-41.7415
-34.295
-28.1046
-32.1036
-29.7595
-32.6119
-144.665
-59.3194
-135.943
-15.6113
-5.95163
-9.96026
-155.79
155.418
-69.2615
-49.5771
-58.2064
-58.9569
-32.0295
-32.2249
-32.9749
-30.8035
-40.2653
-40.4042
-39.4285
-33.7986
-35.548
-35.6931
-34.963
-38.8478
-28.7172
-34.9104
-29.7734
-38.6354
-32.1169
-33.4319
-33.1088
-33.0047
-29.0986
-28.9616
-27.9781
-30.3022
-36.3549
-37.9946
-38.9434
-35.9697
-35.4325
-35.3638
-36.3298
-36.2119
-33.8448
-34.0957
-34.3946
-33.2749
-33.202
-33.8122
-34.3165
-32.1581
-35.8338
-36.1658
-35.3937
-36.8406
-21.7908
-23.8184
-24.4178
-15.7074
-30.0403
-29.265
-27.385
-32.2635
-44.0872
-47.5486
-44.0234
-53.4458
-0.584133
10.1171
2.43467
7.35652
-41.856
-41.6612
-40.8572
-45.227
-37.3548
-36.4367
-37.452
-36.25
-42.6647
-44.0947
-41.5381
-45.568
-52.064
-54.6821
-53.2729
-57.7209
-28.7313
-34.9281
-29.7878
-38.6349
-36.3409
-37.9944
-38.9334
-35.9618
-32.1022
-33.4281
-33.0982
-32.9819
-29.1003
-28.9639
-27.9849
-30.2956
-36.0591
-35.3167
-36.3576
-36.2495
-35.7965
-36.158
-35.3705
-36.8389
-33.788
-34.0616
-34.3746
-33.2319
-33.1115
-33.753
-34.2474
-32.1228
-21.8345
-23.8632
-24.4686
-15.7211
-0.615316
10.0834
2.40314
7.30256
-30.0593
-29.2774
-27.408
-32.2713
-44.0892
-47.5349
-44.0194
-53.4337
-41.8579
-41.7191
-40.9237
-45.284
-52.0941
-54.7373
-53.2966
-57.8251
-37.345
-36.4209
-37.435
-36.2494
-42.6819
-44.1295
-41.6521
-45.6149
-77.8636
-57.0492
-66.8871
-65.7753
194.113
195.661
198.329
189.951
-123.584
-101.65
-98.1836
-98.1024
184.627
202.787
196.976
196.946
-44.023
-42.3176
-46.8844
-41.6072
-69.1373
-73.4707
-80.6086
-65.4056
-33.0982
-33.4567
-32.0304
-32.6077
-32.2683
-29.8058
-31.2787
-31.1384
-32.1797
-33.0788
-32.5954
-32.6891
-27.2344
-25.3166
-27.1525
-26.1884
-36.3867
-36.8111
-36.1225
-38.2841
-35.7898
-36.0531
-37.0879
-34.6062
-72.7259
-47.7467
-58.5154
-58.525
145.2
186.809
170.991
168.018
-36.665
-38.5842
-35.3314
-41.2081
-28.9205
-27.2091
-34.5444
-22.4968
-35.5465
-37.5915
-36.4587
-36.5022
-25.3373
-25.2813
-24.9839
-26.0268
-37.7256
-37.4148
-39.0995
-37.3748
-40.458
-40.3189
-41.0291
-39.6125
-78.2776
-57.1578
-67.065
-65.9912
194.455
194.361
190.875
198.52
-44.0293
-42.3213
-46.9076
-41.6026
-69.1367
-73.4014
-81.3076
-65.4085
-32.719
-33.2103
-32.3275
-31.7305
-31.2609
-28.1453
-29.9514
-29.7482
-36.2425
-36.6737
-36.0227
-38.091
-35.6485
-35.9643
-37.0111
-34.4632
-36.7485
-38.6235
-41.2672
-35.3648
-28.9259
-27.223
-22.5077
-34.5519
-37.6414
-37.3107
-37.321
-39.028
-40.5474
-40.4269
-39.7238
-41.1187
-35.4846
-36.2619
-35.7353
-35.8706
-33.1981
-33.4664
-33.3259
-33.4104
-26.5514
-29.5848
-27.8087
-27.3443
-34.606
-37.1455
-35.4646
-36.7995
-46.546
-55.9113
-50.2411
-50.2483
-35.1959
-34.1544
-34.5333
-34.5464
-36.5041
-37.271
-36.5377
-37.4031
-34.6509
-37.3889
-37.6927
-37.9462
-34.7935
-34.1231
-34.3978
-34.3751
-38.8952
-39.1239
-39.1866
-39.1625
-41.0322
-39.6533
-39.9259
-40.3541
-66.4805
-82.1777
-87.7287
-68.5687
1.44829
-8.98044
-4.10022
-4.11113
48.3141
-87.9178
-34.6621
-34.746
-59.7197
-66.1805
-62.1826
-62.1851
-42.367
-39.7873
-40.1926
-40.252
-35.4659
-36.2431
-35.7249
-35.8416
-33.1863
-33.4597
-33.3184
-33.3992
-26.5752
-29.6313
-27.3751
-27.8321
-34.6478
-37.1387
-35.3168
-36.7486
-36.4769
-37.2336
-37.3415
-36.4683
-34.6904
-37.3793
-37.7112
-37.9611
-41.085
-39.6523
-40.3592
-39.8898
-66.4484
-82.1619
-68.548
-87.6954
-74.5587
-69.3161
-67.7086
-59.0768
-28.9386
-27.4173
-31.4791
-28.4355
-26.5654
-25.8614
-28.7771
-26.7205
-73.6918
-60.5799
-63.6442
-53.5409
-74.7535
-69.4553
-67.8673
-59.1648
-74.2533
-60.8525
-63.9119
-53.6961
-26.6139
-25.8995
-28.8276
-26.761
-28.9526
-27.4313
-31.4942
-28.4528
-134.53
-98.0423
-101.625
-99.8795
-134.348
-97.8596
-101.57
-99.8431
-45.6007
-43.4584
-53.4907
-48.7174
-45.6184
-43.4745
-53.4921
-48.7284
-76.7285
-61.5322
-60.7796
-50.7178
-10.3285
-4.65286
-12.7535
-6.75478
-10.3364
-4.67018
-12.7655
-6.77413
-76.72
-61.5352
-60.7868
-50.7258
185.097
173.198
197.265
187.701
144.141
121.854
166.74
149.147
120.249
144.486
152.498
169.085
174.107
185.038
188.745
198.088
-33.7419
-32.9995
-34.945
-34.4897
-35.1001
-35.1575
-35.6462
-35.7407
-38.1956
-38.9497
-38.2181
-39.073
-37.6419
-40.604
-38.4405
-40.4344
-33.7519
-32.9898
-34.9388
-34.4817
-37.6404
-40.5993
-38.4347
-40.4285
-38.1875
-38.971
-38.212
-39.0323
-35.0628
-35.1153
-35.6119
-35.7076
-33.5881
-34.3772
-33.5897
-34.2204
-34.3702
-33.5802
-34.2177
-33.5841
-34.4016
-33.8709
-34.1973
-33.7584
-33.8988
-34.4233
-33.7738
-34.2058
-56.7537
22.2243
-76.6039
-15.4395
-52.5067
-54.63
-59.2434
-59.3479
-54.6394
-52.5032
-59.353
-59.2354
22.1935
-56.6377
-15.3672
-76.5624
-37.0348
-34.2535
-36.6349
-37.4371
-29.7687
-30.7917
-31.4074
-33.2127
-34.1061
-33.7008
-33.0808
-33.4875
-38.7673
-36.2484
-38.5278
-37.8002
-37.0797
-34.3605
-36.6183
-37.4697
-38.7641
-36.2492
-38.5391
-37.7973
-33.7361
-33.4149
-32.7849
-33.23
-29.4151
-30.438
-31.11
-32.9562
-38.8681
-38.7327
-39.1433
-39.1823
-38.8786
-38.7457
-39.112
-39.1708
-32.7339
-33.0105
-32.7129
-33.0419
-33.1183
-33.333
-32.9536
-33.2611
-42.5802
-43.5041
-41.3662
-41.2386
-35.1413
-36.5492
-36.246
-37.4673
-35.0435
-36.5187
-36.3033
-37.55
-42.6644
-43.5959
-41.4595
-41.3231
-32.866
-32.7516
-31.5691
-30.4706
-31.5488
-31.9556
-28.9433
-30.3126
-29.4483
-30.9365
-27.8895
-29.5893
-31.9839
-30.7926
-30.9702
-29.4931
-125.726
147.78
10.4888
127.842
-83.9962
-68.7532
-41.7237
-38.0076
-35.7369
-38.1584
-34.1674
-35.6549
-141.588
48.8249
-138.249
-34.0289
-87.9033
-92.9409
-39.8693
-35.5967
-34.4324
-33.5046
-37.2001
-37.7614
10.1965
126.311
-125.614
145.302
-83.3583
-66.866
-35.0592
-37.3035
-41.0328
-37.2298
-33.6177
-35.0937
-138.741
-34.2701
-142.683
48.5278
-88.3481
-92.9875
-33.8643
-32.6282
-39.2361
-34.6857
-36.7473
-37.3623
-27.6816
-31.2294
-31.327
-33.0703
-28.3432
-30.1858
-36.177
-34.8137
-29.1032
-44.1375
-34.0142
-33.6157
-33.8201
-31.3019
-35.1594
-36.5904
-24.826
-14.9993
-27.7581
-34.2453
-38.9403
-46.6074
-8.03469
-14.9104
-39.6857
-44.5115
-39.0524
-37.8443
-40.7687
-44.3855
-46.828
-47.3341
-27.6898
-31.2515
-36.1654
-34.784
-31.3072
-33.0361
-28.3499
-30.1737
-29.2742
-43.3754
-35.073
-36.5107
-33.9398
-33.5253
-33.7288
-31.2214
-24.8696
-15.0176
-8.04818
-14.939
-27.7923
-34.2614
-38.9503
-46.592
-39.6973
-44.5412
-46.8396
-47.3673
-39.0479
-37.8474
-40.7733
-44.4046
-151.12
176.245
-156.158
175.908
-99.3855
-99.7687
187.897
182.356
-2.05759
97.7684
-1.83798
97.1949
-58.6686
-57.205
152.977
152.938
-55.803
-77.3819
-40.1218
-54.4475
-48.14
-43.7936
-73.6664
-60.2969
-42.2223
-33.8575
-40.8745
-34.3117
-35.6507
-36.0608
-32.9916
-32.9934
-32.109
-32.0759
-31.6045
-30.9943
-31.7779
-31.9626
-29.5675
-28.8164
-38.1523
-34.0477
-35.3413
-36.3778
-35.529
-37.8112
-36.4353
-34.3671
-135.933
-4.71701
-136.019
0.118437
-97.1892
-97.2244
100.144
100.437
-43.4014
-42.0364
-28.1011
-21.6076
-32.6463
-39.5261
-35.8565
-24.3546
-34.2398
-30.4127
-34.2125
-29.6477
-34.7491
-34.7343
-26.4568
-27.2809
-35.2477
-39.3871
-39.5552
-42.2605
-38.5329
-38.0509
-41.4264
-39.7955
-151.456
180.982
-159.077
175.447
-99.954
-100.509
183.819
188.07
-55.8691
-77.3277
-40.1356
-54.4303
-48.1642
-43.7987
-73.6846
-60.2955
-41.4993
-33.1456
-40.1768
-33.5477
-35.5602
-35.1443
-32.241
-32.2048
-37.8837
-33.7996
-35.2529
-36.2336
-35.4157
-37.6209
-36.2984
-34.1789
-43.494
-42.0685
-28.1484
-21.6231
-39.5865
-32.7232
-24.3624
-35.8692
-35.5784
-39.4063
-39.56
-42.3405
-38.0186
-38.4382
-39.8772
-41.5059
-34.2694
-33.1359
-34.6097
-33.1125
-34.9417
-35.0301
-33.2292
-33.2846
-27.6727
-30.4756
-27.2548
-31.2207
-26.8063
-26.4622
-32.4171
-33.1359
-40.3246
-36.9101
-40.3202
-36.9055
-43.2507
-43.337
-36.0145
-35.9929
-34.9652
-33.004
-36.5884
-35.0113
-35.754
-36.5793
-30.733
-32.1093
-35.6184
-36.959
-35.614
-36.9505
-35.2048
-35.1996
-37.7975
-37.7994
-44.9524
-53.0401
-43.1221
-47.7941
-41.8313
-43.1469
-59.0423
-53.2506
9.58768
22.7078
9.563
22.5835
6.09312
6.07771
51.8145
51.4211
-55.7006
-54.9069
-55.7262
-54.9596
-57.4109
-57.4198
-48.0023
-48.0153
-34.2657
-33.164
-34.5783
-33.0868
-34.9306
-35.0609
-33.2183
-33.266
-27.6814
-30.4714
-27.2718
-31.328
-26.4824
-26.8219
-32.4109
-33.2371
-34.9138
-32.9877
-36.5624
-35.0088
-36.5511
-35.744
-30.7638
-32.1354
-44.9481
-53.0251
-42.7019
-47.6511
-43.1596
-41.9527
-53.1994
-59.013
-49.545
-48.9457
-45.277
-39.6481
-37.4756
-42.9635
-33.8398
-33.0537
-49.5962
-49.0145
-45.3025
-39.6287
-43.014
-37.4486
-33.055
-33.8415
-99.1643
-99.1397
-84.0604
-67.7468
-84.038
-67.7486
-62.8053
-62.7794
-39.7559
-39.7651
-32.9556
-20.6625
-20.6779
-32.971
-14.6911
-14.6996
200.717
196.344
200.271
199.938
199.483
199.288
196.756