# vtk DataFile Version 2.0
tri_press
ASCII
DATASET UNSTRUCTURED_GRID
POINTS 3682 float
-0.715 0.205 -2.39463
-0.705 0.505 2.32683
-0.725 0.782244 -2.275
-0.575 1.125 2.27989
0.715 0.205 -2.39463
0.705 0.505 2.32683
0.725 0.782244 -2.275
0.575 1.125 2.27989
-0.794844 0.221823 -0.82081
-0.878117 0.235216 0.75301
-0.811573 1.03307 -0.756704
-0.778758 1.16451 0.761593
0.794886 0.221781 -0.82081
0.878117 0.235216 0.75301
0.811593 1.03309 -0.756704
0.778758 1.16451 0.761593
-1.49784 -0.27948 -3.65972
-1.50467 -0.18657 -2.4229
-1.56832 -0.166925 -0.847649
-1.61226 -0.142842 0.738781
-1.52007 0.0404065 2.31498
-1.48874 0.158974 3.55641
-1.49945 0.241408 4.7893
-1.49587 0.0746672 -3.61987
-1.50165 0.193535 -2.38912
-1.57921 0.242539 -0.824664
-1.61112 0.257535 0.744786
-1.455 0.421778 2.3103
-1.44649 0.536296 3.55095
-1.47894 0.619876 4.78565
-1.50144 0.73815 -3.52458
-1.51074 0.854433 -2.29153
-1.58222 1.04469 -0.764927
-1.54246 1.12965 0.75774
-1.36287 1.14015 2.2854
-1.39791 1.2507 3.52834
-1.45992 1.35771 4.772
-1.52047 1.86911 -3.42339
-1.53057 2.00358 -2.19865
-1.5564 2.20272 -0.690054
-1.55447 2.33955 0.806578
-1.51753 2.39483 2.31576
-1.50391 2.44789 3.5417
-1.51444 2.5262 4.7793
-0.736006 -0.27376 -3.6633
-0.725305 -0.176754 -2.42813
-0.77352 -0.177458 -0.846948
-0.840379 -0.155867 0.7458
-0.780297 0.0850146 2.32725
-0.759041 0.190636 3.56473
-0.768786 0.25798 4.79412
-0.737172 0.0720167 -3.62097
-0.732413 0.56816 3.55781
-0.757605 0.634897 4.78929
-0.741432 0.707914 -3.51771
-0.694895 1.25299 3.52724
-0.747881 1.36143 4.77177
-0.750712 1.84938 -3.4166
-0.754447 1.98545 -2.19117
-0.780987 2.20096 -0.685545
-0.80009 2.34792 0.806037
-0.789273 2.39564 2.31189
-0.781337 2.44491 3.53784
-0.788668 2.52387 4.77649
0.755044 -0.273764 -3.6633
0.762439 -0.176763 -2.42813
0.815499 -0.177486 -0.846948
0.833304 -0.155873 0.7458
0.717036 0.0850135 2.32725
0.693571 0.190634 3.56473
0.688595 0.257978 4.79412
0.737298 0.0720152 -3.62097
0.669866 0.568159 3.55781
0.674468 0.634895 4.78929
0.739147 0.707915 -3.51771
0.625247 1.25299 3.52724
0.653542 1.36143 4.77177
0.776858 1.84939 -3.4166
0.784604 1.98545 -2.19117
0.773187 2.20097 -0.685545
0.720245 2.34792 0.806037
0.662398 2.39564 2.31189
0.651639 2.44491 3.53784
0.654936 2.52386 4.77649
1.51434 -0.279489 -3.65972
1.52611 -0.186586 -2.4229
1.59499 -0.166961 -0.847649
1.62278 -0.142856 0.738781
1.50233 0.0404023 2.31498
1.44764 0.158971 3.55641
1.43399 0.241404 4.7893
1.49505 0.0746633 -3.61987
1.49778 0.193528 -2.38912
1.58107 0.242505 -0.824664
1.62714 0.257524 0.744786
1.4728 0.421776 2.3103
1.41521 0.536293 3.55095
1.41276 0.619873 4.78565
1.49687 0.738151 -3.52458
1.5044 0.854439 -2.29153
1.57848 1.04469 -0.764927
1.55163 1.12965 0.75774
1.37522 1.14015 2.2854
1.35769 1.2507 3.52835
1.38183 1.3577 4.772
1.5403 1.86911 -3.42339
1.55018 2.00358 -2.19865
1.54585 2.20272 -0.690054
1.4904 2.33955 0.806578
1.41498 2.39483 2.31576
1.39061 2.44788 3.5417
1.39083 2.5262 4.7793
-0.745726 0.493622 -2.36054
0 0.201401 -2.39823
-0.76167 0.206663 -1.60772
-0.671864 0.815 2.33522
0 0.411931 2.4199
-0.8532 0.308467 1.53992
0 0.857798 -2.35055
-0.801538 0.940908 -1.51585
0 1.12871 2.2836
-0.725774 1.19365 1.52074
0.745738 0.493622 -2.36055
0.76166 0.206673 -1.60772
0.671738 0.815 2.3351
0.852914 0.308752 1.53992
0.801544 0.940914 -1.51585
0.725838 1.19371 1.52074
-0.83723 0.22777 -0.0339
-0.886061 0.627446 -0.788757
2.1213e-05 0.224147 -0.82081
-0.888896 0.699861 0.757302
0 0.219266 0.75301
-0.797867 1.10149 0.00244498
9.89924e-06 1.32038 -0.756704
0 1.48116 0.761593
0.837381 0.227619 -0.0339
0.88606 0.627435 -0.788757
0.888896 0.699861 0.757302
0.797808 1.10143 0.00244498
-0.865133 0.560534 -1.56179
0.865133 0.560528 -1.56179
1.06065e-05 0.203874 -1.60772
4.94962e-06 1.01143 -1.51585
0 0.493622 -2.51804
-0.886614 0.663653 -0.0157275
0.886613 0.663648 -0.0157275
1.06065e-05 0.224874 -0.0339
4.94962e-06 1.50858 0.00244498
-0.876397 0.75743 1.53033
0.876394 0.75743 1.53033
0 0.242104 1.53992
-2.77556e-17 1.28969 1.52074
0 0.815 2.49026
-0.71885 0.349311 -2.36607
-0.3575 0.201414 -2.39822
-0.738571 0.205595 -2.00118
-0.690071 0.66 2.33267
-0.3525 0.427328 2.4045
-0.787489 0.398345 1.93337
-0.748731 0.637933 -2.33114
-0.3625 0.847971 -2.34073
-0.784333 0.88264 -1.89543
-0.62989 0.97 2.31401
-0.2875 1.12834 2.28323
-0.610879 1.11982 1.90032
0.3575 0.201393 -2.39824
0.718846 0.349311 -2.36607
0.738569 0.205597 -2.00118
0.3525 0.427366 2.40446
0.690061 0.66 2.33266
0.78749 0.398344 1.93337
0.3625 0.847956 -2.34071
0.748955 0.637933 -2.33136
0.784342 0.882649 -1.89543
0.2875 1.12834 2.28323
0.629899 0.97 2.31402
0.610904 1.11984 1.90032
-0.784784 0.207716 -1.21427
-0.817496 0.223338 -0.427355
-0.873524 0.408099 -0.804784
-0.397977 0.221854 -0.82081
-0.86017 0.27733 1.14647
-0.85412 0.235047 0.359555
-0.887651 0.465466 0.755156
-0.443177 0.219005 0.75301
-0.818284 0.998717 -1.13628
-0.883724 0.847711 -0.77273
-0.80365 1.06621 -0.377129
-0.472859 1.31088 -0.756704
-0.765114 1.19193 1.14117
-0.876588 0.953564 0.759448
-0.790474 1.13516 0.382019
-0.465863 1.4758 0.761593
0.784791 0.207709 -1.21427
0.398009 0.221854 -0.82081
0.817457 0.223376 -0.427355
0.873518 0.408085 -0.804784
0.860162 0.277338 1.14647
0.443177 0.219004 0.75301
0.854158 0.235009 0.359555
0.887652 0.465466 0.755156
0.81821 0.998643 -1.13628
0.472872 1.31088 -0.756704
0.883719 0.847708 -0.77273
0.803651 1.06621 -0.377129
0.76511 1.19192 1.14117
0.465863 1.4758 0.761593
0.876546 0.953543 0.759448
0.790476 1.13516 0.382019
-0.85727 0.527078 -1.96116
-0.372863 0.493622 -2.47959
5.30326e-06 0.203196 -2.00297
0 0.347511 -2.50385
-0.862696 0.383599 -1.58475
-0.38083 0.20385 -1.60772
-0.819327 0.786215 1.93278
-0.335932 0.815 2.46907
0 0.289855 1.97991
0 0.613466 2.52045
-0.884353 0.532949 1.53513
-0.4266 0.245071 1.53992
2.47481e-06 0.951103 -1.9332
0 0.67571 -2.52822
-0.870806 0.750721 -1.53882
-0.400767 1.0087 -1.51585
-1.38778e-17 1.14442 1.90217
0 0.971854 2.45353
-0.851313 0.975539 1.52554
-0.362887 1.28567 1.52074
0.857273 0.527075 -1.96117
0.372869 0.493622 -2.47959
0.862696 0.383601 -1.58475
0.380835 0.20385 -1.60772
0.819337 0.786215 1.93271
0.335869 0.815 2.46908
0.884353 0.533091 1.53513
0.426457 0.245086 1.53992
0.8708 0.750721 -1.53882
0.400775 1.0087 -1.51585
0.851283 0.975571 1.52554
0.362919 1.28568 1.52074
-0.876686 0.43833 -0.0248138
-0.420242 0.223058 -0.0339
-0.884458 0.59399 -1.17527
-0.886555 0.64555 -0.402242
1.59098e-05 0.204551 -1.21427
1.59098e-05 0.22451 -0.427355
-0.886684 0.681757 0.370787
-0.895176 0.728646 1.14382
5.30326e-06 0.225237 0.359555
0 0.228889 1.14647
-0.885376 0.904139 -0.00664127
-0.499459 1.50609 0.00244498
7.42443e-06 1.11441 -1.13628
7.42443e-06 1.46894 -0.377129
2.47481e-06 1.50727 0.382019
-1.38778e-17 1.42762 1.14117
0.876679 0.438292 -0.0248138
0.420291 0.223056 -0.0339
0.884459 0.593981 -1.17527
0.886554 0.645541 -0.402242
0.886684 0.681754 0.370787
0.895176 0.728646 1.14382
0.885371 0.904119 -0.00664127
0.499449 1.50609 0.00244498
-0.853246 0.366455 -1.98117
-0.885571 0.404116 -1.19477
-0.88399 0.790489 -1.15577
-0.855777 0.694327 -1.92829
0.853245 0.366456 -1.98117
0.855776 0.694327 -1.9283
0.883988 0.790491 -1.15577
0.885571 0.404104 -1.19477
-0.369165 0.20316 -2.00207
0.369168 0.20316 -2.00207
0.389145 0.204539 -1.21427
-0.38912 0.204539 -1.21427
-0.381633 0.951359 -1.91431
-0.403274 1.10351 -1.13628
0.403288 1.10351 -1.13628
0.381637 0.951359 -1.91431
-0.365182 0.348411 -2.46646
-0.367682 0.656821 -2.49392
0.367684 0.656821 -2.49388
0.365184 0.348411 -2.46644
-0.875254 0.42314 -0.414799
-0.877472 0.454246 0.365171
-0.883345 0.930033 0.376403
-0.884242 0.875771 -0.389686
0.875238 0.423119 -0.414799
0.884218 0.87575 -0.389686
0.883349 0.930026 0.376403
0.877469 0.454227 0.365171
-0.40911 0.222455 -0.427355
0.40915 0.222455 -0.427355
0.430401 0.223696 0.359555
-0.430384 0.223682 0.359555
-0.515845 1.46786 -0.377129
-0.48871 1.50304 0.382019
0.488704 1.50304 0.382019
0.515851 1.46786 -0.377129
-0.895086 0.500243 1.14514
-0.824208 0.596474 1.93308
-0.792432 0.97277 1.91655
-0.873871 0.953861 1.14249
0.895086 0.500315 1.14514
0.873855 0.953877 1.14249
0.792427 0.972786 1.91652
0.82422 0.596546 1.93304
-0.432829 0.231541 1.14647
0.432758 0.231462 1.14647
0.389479 0.287425 1.95664
-0.38955 0.287439 1.95664
-0.376133 1.42166 1.14117
-0.325193 1.13856 1.90124
0.32521 1.13852 1.90124
0.376149 1.42167 1.14117
-0.344216 0.636733 2.50209
0.344185 0.636733 2.5021
0.311685 0.970927 2.41982
-0.311716 0.970927 2.41974
-0.69518 0.277156 -2.35861
-0.53625 0.201415 -2.39822
-0.726952 0.205131 -2.1979
-0.697621 0.5825 2.32983
-0.52875 0.448762 2.38307
-0.754414 0.443502 2.1301
-0.742679 0.710089 -2.30888
-0.54375 0.835865 -2.32862
-0.764873 0.842648 -2.08521
-0.60354 1.0475 2.29805
-0.43125 1.12793 2.28282
-0.593133 1.1226 2.0901
0.53625 0.201395 -2.39823
0.695193 0.277156 -2.35862
0.726951 0.205132 -2.1979
0.52875 0.448997 2.38283
0.69761 0.5825 2.32982
0.754414 0.443503 2.1301
0.54375 0.835863 -2.32862
0.742701 0.710089 -2.3089
0.764874 0.84265 -2.08521
0.43125 1.12794 2.28283
0.603762 1.0475 2.29827
0.593007 1.12248 2.0901
-0.784807 0.219776 -1.01754
-0.806096 0.222653 -0.624083
-0.861697 0.301204 -0.812797
-0.596198 0.222262 -0.82081
-0.858774 0.266643 0.949738
-0.855604 0.245646 0.556283
-0.885939 0.348814 0.754083
-0.664386 0.219633 0.75301
-0.815528 1.01649 -0.946491
-0.856451 0.944791 -0.764717
-0.807615 1.04964 -0.566916
-0.690965 1.26947 -0.756704
-0.771225 1.1775 0.951381
-0.824335 1.05737 0.760521
-0.785943 1.15116 0.571806
-0.671588 1.41871 0.761593
0.784843 0.21974 -1.01754
0.596225 0.222262 -0.82081
0.806096 0.222654 -0.624083
0.861693 0.301188 -0.812797
0.85876 0.266656 0.949738
0.664386 0.219633 0.75301
0.855603 0.245647 0.556283
0.885939 0.348814 0.754083
0.815531 1.0165 -0.946491
0.690973 1.26946 -0.756704
0.856451 0.944796 -0.764717
0.807607 1.04963 -0.566916
0.771201 1.17748 0.951381
0.671587 1.41871 0.761593
0.824334 1.05737 0.760521
0.785946 1.15116 0.571806
[...]
POINT_DATA 3682
SCALARS point_scalars float 1
LOOKUP_TABLE default
-74.8883
-37.4861
-49.5289
-36.2506
-74.7979
-34.4321
-49.2692
-34.6132
-38.644
-46.7877
-64.463
-53.1455
-38.5826
-46.4319
-64.3551
-52.9581
-3.46057
-104.306
-41.6996
-45.1484
-42.4467
-35.647
-33.6002
-3.46057
-102.813
-40.7996
-46.9192
-41.6353
-34.6424
-33.1293
18.9531
-78.8926
-53.4919
-49.1649
-40.8433
-34.1474
-33.2136
-13.5405
-49.2077
-91.884
-61.3516
-36.8277
-36.17
-35.5825
-54.6345
-152.171
-39.017
-41.2561
-42.13
-33.3639
-31.98
62.5464
-32.7907
-31.98
153.586
-33.1929
-32.9698
-6.63341
-36.5204
-85.4586
-64.4148
-35.7536
-35.1737
-33.6267
-53.7203
-152.067
-39.4064
-40.9169
-39.54
-28.8132
-26.8648
64.3115
-28.0324
-26.8648
153.516
-30.6267
-29.3831
-2.78459
-37.1564
-85.3507
-64.3228
-34.4152
-32.4201
-32.6683
-3.47954
-104.729
-41.6466
-44.7489
-39.9338
-31.2432
-30.186
-3.47954
-102.849
-40.6961
-46.5573
-39.048
-31.6555
-30.0875
19.2749
-78.7102
-53.3744
-48.8192
-38.8249
-31.8528
-30.7997
-13.3245
-49.1608
-91.748
-61.1831
-35.3924
-34.1318
-33.3164
-38.6938
-212.707
-53.9743
-35.8721
-30.6327
-53.1729
-48.7502
-38.7464
-34.9
-49.5581
-40.0482
-53.9107
-33.2395
-51.9916
-38.676
-49.2959
-36.7172
-45.3546
-39.8183
-44.0147
-39.7412
-56.546
-17.1154
-65.5908
-36.6326
-45.2406
-43.6694
-56.356
-52.1129
-52.0429
-62.1608
0.513649
204.441
-43.3692
-43.1966
-35.8934
-94.8483
-50.9555
-49.9363
-44.1504
-43.6357
-29.8063
-22.2654
-224.014
-81.2598
-36.2707
-33.6902
-43.8681
-50.9341
-54.729
-52.5204
-35.9141
-34.7533
-40.3472
-223.998
-22.2216
-81.4328
-30.6087
-33.3353
-41.9588
-54.6098
-50.9857
-52.4805
-34.3481
-33.6433
-39.8775
-48.2564
-36.5806
-41.8089
-39.0091
-43.6645
-36.9236
-42.9617
-39.9535
-52.745
-52.2557
-60.3663
-19.1142
-54.0917
-48.9705
-54.0224
-64.0164
-48.1987
-38.978
-36.4632
-41.7031
-43.1186
-39.7954
-36.6434
-42.6037
-52.5733
-19.1845
-52.1387
-60.2109
-53.8254
-63.947
-48.6854
-53.852
-84.9479
188.59
-88.1663
151.334
-53.0118
-60.2771
-43.8427
-32.6358
-39.1202
-27.1149
-51.3855
-45.5625
-28.0863
150.397
-50.1395
-5.66799
-38.8554
-31.4255
-50.2832
-44.474
-84.8784
188.526
-52.9393
-60.2531
-42.1393
-29.7489
-50.216
-44.9567
-50.0611
-5.62658
-49.596
-44.4309
-40.1626
-35.7232
-47.8362
-44.0788
-48.9646
-36.3713
-43.0166
-47.8334
-36.9524
-42.43
-49.4614
-86.6744
25.7529
-98.9264
-77.7383
-53.8901
-40.0029
-35.6688
-47.7606
-43.941
-42.7854
-47.2698
-49.2869
-86.6202
-88.3848
-49.0538
-50.4576
-80.1091
-88.2869
-79.9775
-50.357
-49.0857
-86.1301
-86.2258
-48.2808
-48.2968
-30.4753
18.7397
18.7786
-30.455
145.371
143.804
143.886
145.375
-40.4412
-40.1277
-48.1914
-50.5246
-40.3139
-50.3814
-47.9846
-39.9014
-36.06
-36.0198
-36.707
-36.7957
-93.0822
-72.4083
-72.3338
-93.0576
-46.0584
-44.2515
-43.3054
-50.3306
-45.4561
-49.9328
-42.1328
-42.3731
-42.6928
-42.4082
-40.0484
-41.3625
-54.4145
-39.1814
-39.0814
-54.3607
-32.4768
-27.8406
-31.3373
-32.9794
3.03412
-171.659
-118.329
-36.7647
-34.6636
-41.7031
-47.4453
-28.0688
-54.5442
-36.2026
-34.8482
-37.7918
-170.922
2.93742
-117.999
-31.5425
-33.7686
-39.0748
-28.507
-47.4009
-54.5572
-33.9049
-34.0954
-36.9353
-39.6852
-37.0777
-40.3694
-38.3188
-41.4202
-35.4809
-45.9465
-40.114
-64.9334
-57.4064
-62.6594
-76.7962
-52.8127
-51.2328
-53.5394
-60.9748
-39.6149
-38.2705
-36.9956
-40.2706
-41.0238
-39.8908
-35.2961
-45.5725
-64.7908
-77.4612
-57.2894
-62.5203
-52.6025
-60.951
-51.0145
-53.3667
-30.6199
-46.5081
-96.7698
138.918
-216.668
-216.703
-116.72
69.2542
-64.07
-48.4205
-53.1532
-57.7749
-35.9759
-35.6139
-41.5717
-33.3055
-32.0724
-30.0087
-35.4681
-27.515
-47.7849
-48.0964
-51.9936
-48.3298
-55.0998
-55.0467
-41.6402
51.3522
-41.9163
-38.6618
-49.5846
-14.3884
-34.8211
-34.7239
-37.3054
-32.9699
-44.7092
-52.3889
-50.0537
-45.9498
-32.0736
-46.7239
-96.8308
138.708
-63.9959
-48.3663
-53.0856
-57.6789
-33.1548
-33.1928
-39.2338
-31.139
-46.3179
-47.3196
-50.7878
-47.4588
-41.7638
-38.5639
-49.5143
-14.3297
-44.4084
-52.111
-49.5883
-45.8337
-37.5444
-36.91
-38.9163
-35.6712
-43.4771
-48.0677
-46.532
-44.6367
-39.6119
-39.5963
-43.2306
-37.6195
-43.0552
-45.6231
-43.1736
-46.1985
-39.6713
-39.5933
-37.8407
-41.7589
-58.1047
-55.4044
-54.014
-69.1204
-16.927
-16.9039
12.2327
-62.9266
-65.2414
-65.198
-71.4393
-59.6283
-37.4309
-36.7773
-38.769
-35.5934
-43.3669
-47.9515
-46.433
-44.5122
-42.6994
-45.2975
-42.8949
-45.757
-57.9294
-55.2303
-53.8401
-68.9734
-63.4258
-52.8788
-50.9481
-47.0498
-63.3589
-52.8075
-50.875
-46.9907
-72.7861
-61.6724
-61.6643
-54.337
-13.3586
-0.954337
-0.93389
12.9444
197.301
188.831
206.082
197.312
-41.6369
-43.6683
-43.1702
-45.7293
-41.4687
-43.5138
-42.9719
-45.5552
-35.8483
-35.8821
-36.2835
-35.8202
-93.1073
-101.247
-85.4571
-93.0748
-47.5251
-50.997
-50.4411
-50.2731
-46.2352
-49.891
-49.5382
-49.5156
-42.4529
-44.5831
-44.2612
-43.3561
-40.8774
-43.8339
-43.8285
-48.1853
-31.6046
-27.9983
-30.4254
-28.9991
-103.828
111.405
-116.638
108.168
-91.8882
-83.0721
-41.3519
-33.125
-38.8289
-32.4271
-44.0402
-42.8311
-79.0323
106.98
-42.9146
67.2141
-70.3623
-34.5358
-40.5731
-33.4679
-37.2434
-33.1085
-42.5315
-39.5016
-116.567
108.189
-104.04
111.856
-91.8014
-83.3775
-36.5452
-28.1548
-38.8574
-30.342
-42.124
-41.1614
-42.8761
67.2116
-78.9875
107.214
-70.3552
-34.5139
-37.0474
-31.9736
-38.8496
-31.6091
-41.6906
-39.2724
-50.7394
-47.9615
-39.0243
-35.833
-43.4411
-40.8922
-42.2021
-37.0809
-45.1364
-42.6575
-39.1022
-36.7169
-39.9034
-44.3031
-37.7052
-41.661
-53.2386
2.12965
-51.6315
-51.5714
-55.7325
-79.5469
6.39274
-61.9845
-52.467
-56.2438
-48.1631
-48.5118
-51.8827
-62.8979
-68.1321
-59.4941
-50.8316
-47.9287
-42.1746
-37.0456
-38.9032
-35.7703
-43.3442
-40.7786
-44.5374
-42.2665
-37.591
-41.4687
-38.8841
-36.5878
-39.6285
-43.8466
-53.1262
2.24412
6.42495
-61.9302
-51.5259
-51.4423
-55.5841
-79.402
-52.1432
-56.1585
-68.0582
-59.4352
-47.9282
-48.1649
-51.7123
-62.7664
-86.5733
-82.8354
176.382
195.405
-87.6444
-87.6378
153.722
153.734
-64.3521
-46.495
-70.7444
-52.8921
-44.0835
-43.6583
-32.4726
-32.8222
-39.2508
-39.9995
-30.0582
-25.5347
-49.9498
-47.9985
-44.0458
-44.271
-28.5143
-28.5039
147.338
146.056
-48.005
-61.457
-17.3935
6.1446
-38.9347
-38.9369
-31.2163
-32.5516
-46.9544
-50.601
-49.417
-41.3596
-86.4743
-82.7721
195.397
176.355
-64.2831
-46.3587
-70.7227
-52.8704
-42.1459
-42.2859
-28.4136
-30.6614
-49.1266
-46.5306
-43.6586
-43.3813
-61.3783
-47.9759
6.18825
-17.358
-50.0028
-46.0949
-41.302
-49.3675
-40.2262
-40.1861
-35.6863
-36.1332
-47.8607
-48.5007
-42.1234
-46.6329
-48.7189
-48.7248
-36.2997
-36.279
-41.4835
-44.9431
-47.1353
-48.6586
-36.8654
-36.9097
-42.5105
-42.3628
-48.5801
-49.4597
-91.2429
-78.1557
24.4446
24.5625
-97.7039
-97.6947
-76.578
-76.5422
-54.0575
-54.0454
-40.0865
-39.995
-35.6404
-36.0654
-48.4099
-47.7975
-41.9899
-46.4924
-44.7189
-41.2514
-46.5413
-48.1368
-49.2964
-48.3974
-78.0772
-91.0269
-97.9657
-64.3449
-64.1647
-104.639
-41.553
-45.0395
-46.9785
-45.636
-56.9366
-47.909
-47.5665
-48.4002
-66.9913
-89.0117
-62.2681
-58.9012
-98.0179
-104.851
-64.0961
-64.2858
-66.8229
-58.8207
-62.1997
-88.9821
-56.83
-48.2974
-47.5367
-47.8323
-41.4614
-45.5314
-46.9155
-44.9446
-116.891
-116.62
-72.2785
-67.9667
-116.649
-67.9107
-72.2677
-116.629
-41.047
-42.9539
-53.9371
-51.0344
-41.0899
-51.101
-53.9475
-42.9679
-44.4795
-23.3083
-14.226
-41.81
-53.9778
11.2321
11.3963
-5.66283
-54.4419
-5.63339
11.4117
11.2976
-44.4279
-41.8958
-14.2183
-23.1932
59.0173
135.98
183.243
98.9888
65.2664
55.9581
201.229
126.258
65.384
126.169
201.226
56.0701
54.6855
99.0186
183.259
135.78
-39.4146
-38.8862
-41.8448
-42.6773
-36.8456
-41.8474
-41.5482
-39.0207
-51.4758
-52.7259
-45.2845
-44.9658
-56.6879
-47.4205
-46.1018
-54.2458
-39.3107
-42.5566
-41.6959
-38.7579
-56.5513
-54.0733
-45.9444
-47.2944
-51.2906
-44.6994
-45.0901
-52.5624
-36.5982
-38.84
-41.3514
-41.5682
-36.6371
-37.4721
-35.836
-35.5898
-36.5834
-35.5225
-35.8128
-37.4545
-37.3182
-37.7423
-36.208
-36.0127
-37.4812
-36.1137
-36.2346
-37.8026
-87.2563
-72.1454
-99.6379
-61.8449
-61.2976
-70.7226
-83.8953
-64.9119
-61.1417
-64.7338
-83.8604
-70.6887
-87.08
-61.8259
-99.5588
-71.9669
-42.6748
-49.0837
-50.2727
-44.9797
-41.689
-41.369
-47.7221
-48.0123
-39.2329
-46.6164
-47.0961
-41.4754
-50.7424
-47.739
-50.2109
-51.1918
-42.2389
-44.5253
-49.4626
-48.28
-50.4888
-50.7715
-49.5408
-47.3297
-37.8877
-39.3295
-45.9571
-46.0071
-39.1256
-46.5289
-46.3214
-38.9585
-41.2783
-41.8125
-43.5719
-44.4755
-40.9814
-43.9191
-43.3623
-41.7108
-38.9351
-35.4489
-42.6103
-44.4645
-41.6888
-45.6324
-43.0957
-36.7406
-57.3151
-51.0834
-48.464
-59.6461
-37.1705
-37.2945
-41.007
-42.1741
-36.7471
-42.0124
-41.0088
-37.2543
-57.1938
-59.6194
-48.4458
-51.0038
-33.3103
-30.0994
-30.8405
-33.0963
-30.2457
-30.4156
-27.2044
-26.1759
-32.0502
-32.5964
-30.1447
-31.3785
-33.7757
-33.3472
-32.0839
-33.0985
-41.86
-37.0575
-159.183
-37.8471
-35.5522
-39.0883
-43.9972
-26.8753
-60.9509
-36.4586
-35.2734
-36.651
-36.8142
-41.9708
-158.974
-32.4486
-34.7612
-36.2891
-26.5667
-43.8596
-60.8235
-34.0038
-34.4611
-35.4571
-39.7507
-37.329
-41.0503
-38.2584
-44.886
-34.5968
-48.1444
-41.3855
-66.0188
-61.0245
-63.5553
-78.9671
-52.7826
-51.9644
-53.4551
-55.5865
-39.6733
-38.2021
-37.2614
-40.9475
-44.5227
-41.1194
-34.3513
-47.7724
-65.8996
-78.9304
-60.9114
-63.4336
-52.5945
-55.3973
-51.768
-53.2685
-30.2474
-43.759
-87.9036
77.2133
-208.891
-208.912
-146.218
35.9428
-58.3592
-50.5706
-53.5548
-56.0542
-35.9219
-35.8381
-39.6415
-33.9723
-31.3078
-30.1583
-33.7026
-29.5867
-52.1154
-50.4215
-52.185
-49.8836
-52.6077
-52.7155
-56.7037
3.17648
-39.7601
-36.3822
-46.3551
-23.9928
-34.8902
-34.8644
-36.1579
-34.0175
-47.2939
-50.628
-49.5637
-47.8948
-28.5551
-47.0164
-88.0125
77.1102
-58.2925
-50.5102
-53.495
-55.9978
-33.1843
-33.3497
-36.9904
-31.6472
-50.7268
-49.5257
-50.9939
-48.8362
-39.6877
-36.7338
-46.2888
-23.9242
-47.0132
-50.3625
-49.1874
-47.7421
-35.9961
-36.0937
-38.0252
-35.7476
-44.4077
-46.6008
-45.7959
-44.9442
-39.7883
-39.7806
-41.3878
-38.5652
-43.6563
-44.4766
-43.4449
-44.3929
-39.7353
-39.6963
-38.228
-41.3609
-57.3656
-56.0314
-55.2428
-62.4535
-17.1379
-17.1258
-1.13192
-38.2803
-65.5041
-65.4848
-68.6671
-62.6108
-35.908
-35.9489
-37.8936
-35.6613
-44.2956
-46.4852
-45.6897
-44.8257
-43.3049
-44.1404
-43.1354
-44.0072
-57.1847
-55.8493
-55.0629
-62.2681
-57.0496
-52.5403
-51.6234
-49.2433
-56.9815
-52.4692
-51.5562
-49.1812
-67.0636
-61.5279
-61.5218
-57.9648
-6.67996
0.161578
0.170661
7.01517
202.038
200.141
204.401
202.044
-42.4406
-43.5457
-43.2628
-44.4983
-42.27
-43.3827
-43.0788
-44.3246
-35.8855
-35.8344
-36.0461
-35.8714
-94.419
-99.5481
-89.8996
-94.4004
-49.5363
-50.9324
-50.8409
-51.0202
-48.3889
-49.8659
-49.8684
-50.1358
-43.6799
-44.3008
-44.1378
-44.1299
-42.2004
-43.685
-43.685
-45.5461
-30.8077
-29.1673
-30.253
-29.1178
-11.9941
-21.8237
-84.3181
67.5599
-224.691
-223.682
-149.277
-12.0816
-96.2478
-71.4836
-88.2056
-81.8537
-36.5875
-36.064
-40.2983
-34.1447
-34.2455
-32.8458
-36.8286
-32.6587
-43.0999
-45.6582
-43.9415
-44.04
-50.037
-47.6647
-77.7808
59.2582
-41.4942
-55.7607
-55.942
22.1216
-52.2954
-47.047
-62.518
-40.3006
-36.0526
-35.6722
-39.1696
-34.1327
-34.6859
-34.7829
-35.989
-33.5283
-38.9433
-42.085
-41.369
-39.8
-224.631
-223.699
-149.285
-12.1167
-12.0569
-21.1945
-84.5093
67.5226
-96.4038
-71.4011
-88.1577
-82.1723
-31.1303
-30.1394
-33.8428
-29.3363
-33.585
-33.1863
-37.3699
-31.4103
-40.8266
-43.9794
-42.019
-42.3147
-42.9136
-55.7094
-55.9063
22.2113
-50.1604
-47.8833
-77.8383
59.3896
-52.265
-46.9454
-62.476
-40.2697
-34.0465
-34.5693
-35.6791
-32.8359
-33.8853
-33.316
-37.098
-32.0913
-38.3288
-41.7193
-40.7585
-39.4735
-43.1554
-47.4112
-53.0843
-48.0882
-36.4193
-35.823
-38.755
-35.9277
-41.1745
-42.664
-42.5394
-41.2667
-38.5762
-39.3845
-40.376
-37.9066
-42.9258
-44.5917
-44.9608
-42.5399
-40.3432
-37.3917
-39.1103
-36.8577
-43.9999
-42.6345
-41.0183
-42.7356
-39.9735
-39.7124
-38.1377
-41.3731
-65.5523
-44.4367
-55.9626
-23.7269
-54.6585
-49.9157
-51.9169
-51.5884
-61.7066
-59.3351
-58.208
-67.9384
-36.0973
-16.4065
-6.58236
-36.0391
-52.9876
-53.3977
-53.056
-55.7856
-50.4963
-47.134
-48.6936
-48.9065
-53.7777
-54.7037
-52.7399
-57.72
-63.479
-64.7624
-66.3292
-61.8035
-43.1013
-47.3592
-52.1053
-48.0458
-38.5361
-39.3616
-40.3464
-37.8735
-36.3349
-35.7023
-38.6308
-35.8485
-41.0713
-42.5557
-42.4363
-41.1581
-42.4575
-43.9531
-44.3699
-42.0768
-39.7838
-39.595
-38.0048
-41.1877
-40.1918
-37.2119
-38.8886
-36.701
-43.6363
-42.2785
-40.7035
-42.3399
-65.3819
-44.3219
-55.8332
-23.5533
-36.0321
-16.3979
-6.23816
-35.7451
-54.5412
-49.7992
-51.8049
-51.4679
-61.5583
-59.1738
-58.0552
-67.7875
-52.751
-53.119
-52.7576
-55.6391
-63.3865
-64.7088
-66.2592
-61.7383
-50.2448
-46.8248
-48.4412
-48.591
-53.6066
-54.5257
-52.5748
-57.5295
-102.685
-71.765
-85.8677
-83.7782
175.751
195.373
185.49
191.748
-99.6825
-79.7067
-87.5154
-87.5077
124.31
173.714
151.691
151.668
-53.0441
-53.0158
-57.9447
-48.9791
-59.1321
-60.6087
-65.0615
-56.2711
-42.4777
-45.529
-43.9388
-43.7457
-33.0324
-32.2153
-32.4899
-32.7299
-37.1405
-40.7544
-39.0895
-39.4797
-26.7722
-27.3825
-28.5948
-25.9759
-51.8327
-51.1205
-50.4223
-50.2902
-46.636
-44.9666
-44.8322
-45.2225
-33.053
-21.2898
-28.1593
-28.1565
108.489
189.354
147.275
147.059
-50.1854
-50.492
-48.3794
-54.6166
-9.32654
-2.74851
-11.4226
0.70946
-38.247
-39.6901
-38.8677
-38.8787
-32.0838
-30.8281
-31.0257
-32.1003
-50.3456
-50.1072
-49.2736
-49.8823
-45.0116
-44.0864
-46.5741
-42.813
-102.637
-71.6977
-85.7848
-83.7155
175.647
195.368
191.705
185.459
-52.9732
-52.9434
-57.8774
-48.8928
-59.0983
-60.5915
-65.0378
-56.2481
-40.5145
-44.0617
-42.1274
-42.1867
-30.5367
-29.2775
-29.0503
-30.1966
-50.6314
-49.9832
-49.4527
-48.9731
-45.9058
-44.4911
-44.3436
-44.4904
-50.1113
-50.4131
-54.5483
-48.283
-9.28004
-2.71637
0.745091
-11.3802
-49.771
-49.3017
-49.2751
-48.5068
-44.9398
-44.0685
-42.7662
-46.5346
-39.4662
-40.913
-40.1711
-40.176
-35.6644
-35.789
-35.6619
-35.8918
-47.5287
-46.5588
-47.9653
-47.9431
-44.3502
-43.8346
-43.0465
-45.3339
-45.9271
-51.2884
-48.8878
-48.8902
-36.8863
-36.0471
-36.3582
-36.348
-43.0692
-43.0929
-42.1722
-43.9357
-47.2119
-48.7675
-47.5301
-48.174
-37.3671
-36.5767
-36.9352
-36.9572
-41.9614
-42.8549
-42.4244
-42.348
-52.4678
-47.2053
-48.9922
-49.4674
-80.1567
-90.7177
-91.17
-81.8926
24.0353
19.5069
24.8018
24.7992
-82.8601
-101.578
-98.6957
-98.691
-74.4482
-81.2374
-77.4587
-77.4411
-56.6795
-51.057
-53.7828
-53.7938
-39.3134
-40.7477
-40.0234
-40.0011
-35.5972
-35.7477
-35.6121
-35.8316
-47.4389
-46.4964
-47.8622
-47.8939
-44.2189
-43.689
-42.9108
-45.1945
-42.8161
-42.879
-43.7073
-41.9398
-46.7107
-48.1146
-46.9481
-47.6303
-52.2939
-47.0316
-49.2908
-48.8106
-80.0648
-90.6706
-81.8138
-91.1102
-106.367
-89.3981
-87.3223
-72.8733
-49.9802
-46.5613
-45.6445
-47.8652
-51.7445
-51.0914
-49.1176
-49.2637
-87.6003
-76.2291
-81.8524
-69.1522
-106.302
-89.3108
-87.2113
-72.8006
-87.6109
-76.1788
-81.768
-69.0616
-51.6438
-50.9913
-49.0996
-49.165
-50.0589
-46.4646
-45.6904
-47.8045
-98.7364
-84.8288
-86.8218
-77.699
-98.5157
-85.0235
-86.8175
-77.6788
-48.0689
-45.0526
-50.1317
-48.5015
-48.0927
-45.0749
-50.1515
-48.5118
-35.0482
-32.2116
-29.3327
-24.3951
13.4171
18.6049
12.9514
21.903
13.4819
18.3811
12.9968
21.9295
-35.017
-32.1905
-29.3171
-24.3707
143.595
137.981
162.197
146.292
131.695
103.216
177.108
144.593
103.154
131.853
146.753
177.136
137.995
143.613
146.299
162.172
-39.7334
-40.6142
-40.2977
-41.3131
-39.4825
-40.0041
-40.2003
-40.7882
-48.0408
-50.273
-46.1596
-48.3114
-50.8669
-53.3537
-48.3038
-49.8451
-39.61
-40.4936
-40.1645
-41.1821
-50.7327
-53.2081
-48.1621
-49.6972
-47.8217
-50.0852
-45.9413
-48.1182
-39.2605
-39.7581
-39.9914
-40.558
-35.9079
-36.475
-35.8133
-36.1892
-36.4374
-35.8567
-36.1591
-35.7705
-37.1148
-36.6191
-36.7887
-36.3648
-36.7283
-37.2153
-36.4418
-36.8549
-86.094
-77.4377
-94.3736
-95.9485
-68.6852
-70.1648
-74.8697
-74.9997
-70.0863
-68.5896
-74.9446
-74.7952
-77.3832
-86.1113
-95.9182
-94.285
-45.7199
-45.4871
-47.2236
-46.6421
-42.6476
-44.2469
-44.1526
-45.8563
-41.6687
-43.0368
-43.3944
-45.005
-51.7796
-49.3062
-50.8646
-49.292
-45.1183
-44.9602
-46.5296
-46.0419
-51.4854
-48.916
-50.3375
-48.7968
-40.2803
-42.0069
-42.0364
-44.0243
-40.4727
-42.3381
-42.3106
-44.2043
-42.6638
-42.1807
-43.3954
-42.5773
-42.3312
-41.9506
-43.0733
-42.3634
-38.0524
-40.6163
-39.5777
-41.6185
-39.7504
-42.1234
-40.6454
-42.703
-55.1872
-57.1087
-52.1298
-54.0917
-38.3694
-39.3163
-39.0384
-40.1189
-38.2363
-39.1565
-38.9988
-40.0509
-55.1261
-57.0568
-52.0863
-54.1137
-32.7365
-32.4325
-32.4968
-31.5107
-27.5682
-29.1722
-25.9952
-28.121
-31.7159
-31.5548
-31.2401
-30.9828
-33.2627
-33.0793
-32.8994
-32.6908
-103.123
46.4473
-159.562
-64.9671
-110.806
-119.057
-40.1642
-34.5556
-38.1353
-33.5569
-41.8024
-42.5023
-76.2904
28.2865
-56.2713
26.0369
-59.9776
-46.7166
-38.0102
-34.6694
-35.9575
-34.0788
-38.5828
-37.278
-159.418
-66.6127
-103.232
46.467
-110.814
-118.62
-35.0444
-30.4758
-37.243
-31.6243
-39.1934
-39.7115
-56.2318
26.2431
-76.373
27.9916
-59.9864
-46.6595
-35.3442
-32.4648
-36.1971
-32.6706
-37.3896
-36.7014
-40.3096
-40.4802
-39.4476
-36.6336
-41.3605
-39.7381
-39.6859
-37.3002
-41.5326
-42.0671
-34.8155
-36.8517
-40.4808
-43.1276
-37.9321
-41.2814
-61.0905
-77.1638
-57.5056
-57.2807
-59.6519
-71.9652
-74.7545
-91.5046
-51.6964
-54.6445
-51.6618
-50.831
-52.3851
-56.5507
-60.1806
-59.871
-40.2485
-40.4289
-39.6406
-37.2487
-39.3509
-36.5688
-41.2585
-39.6422
-41.1152
-41.7092
-37.7421
-41.0238
-34.5907
-36.6733
-40.1655
-42.7425
-60.9717
-76.7493
-74.4252
-91.3697
-57.3876
-57.1574
-59.5126
-71.8281
-51.4689
-54.4592
-60.0542
-60.0584
-51.4648
-50.5998
-52.2118
-56.3546
-82.1013
80.5247
-85.433
71.2139
-101.409
-94.6484
137.26
133.813
-146.804
43.5454
-146.827
43.4946
-116.679
-116.683
101.759
101.92
-64.0407
-66.0987
-46.0701
-49.9548
-58.1555
-48.5813
-62.698
-54.0839
-40.2403
-34.0187
-40.3186
-33.9705
-41.4922
-41.4188
-33.2129
-33.3316
-35.2828
-31.1288
-33.4482
-28.9052
-35.3849
-36.06
-28.9751
-26.5603
-47.7422
-46.7291
-49.3286
-45.1243
-50.6198
-50.7281
-45.7396
-47.6234
-56.4518
14.9674
-56.4599
14.9523
-41.3165
-41.2876
50.3479
50.7225
-53.031
-30.8571
-47.5906
-20.9231
-48.9001
-53.1186
-18.4956
-9.45684
-36.1345
-33.5791
-36.0499
-33.3973
-37.3224
-37.316
-32.9095
-33.2652
-46.0843
-43.0427
-51.6405
-53.1953
-48.7672
-50.0699
-48.1522
-43.9055
-82.1857
80.7045
-85.548
71.5423
-101.527
-94.644
133.601
137.064
-63.9858
-66.0199
-46.0186
-49.9084
-58.0925
-48.5055
-62.6483
-54.0451
-37.4239
-31.4201
-37.7441
-31.7809
-39.1827
-39.1145
-30.8278
-31.2764
-46.2576
-45.3991
-48.5082
-44.4716
-49.7166
-49.3596
-45.0579
-46.6174
-53.2232
-30.7619
-47.4985
-20.851
-53.0171
-48.8236
-9.3926
-18.4371
-45.6314
-42.8218
-51.298
-53.0688
-49.5353
-48.2413
-43.7783
-48.0684
-38.4593
-35.7532
-38.5174
-36.1729
-38.8718
-38.9585
-35.5863
-35.8295
-44.1016
-43.0258
-48.2679
-47.7436
-45.784
-47.3429
-43.6201
-45.9781
-41.1526
-38.3859
-41.1382
-38.3693
-43.1977
-43.2121
-37.5949
-37.5861
-41.9598
-43.3099
-45.084
-46.7068
-42.4057
-43.9919
-45.451
-47.2343
-38.1751
-41.3993
-38.1062
-41.3119
-37.8081
-37.8378
-41.7882
-41.7371
-56.8843
-64.2723
-53.9772
-59.794
-53.1487
-54.463
-70.535
-66.5927
-1.9653
-37.1926
-1.90084
-37.1901
11.9879
12.0073
-62.8767
-62.7274
-68.163
-62.4514
-68.1314
-62.4215
-71.2651
-71.2483
-59.6387
-59.6259
-38.3349
-35.6767
-38.3535
-36.0582
-38.7401
-38.7918
-35.5156
-35.7402
-43.9978
-42.9109
-48.1583
-47.6238
-47.2417
-45.6867
-43.4976
-45.8518
-41.6458
-42.9146
-44.7908
-46.3425
-43.718
-42.1248
-45.0019
-46.805
-56.7069
-64.0956
-53.8154
-59.6102
-54.286
-52.9734
-66.4364
-70.3787
-63.8525
-62.8557
-57.6391
-49.4387
-48.4299
-55.9205
-46.9932
-47.2466
-63.7847
-62.7873
-57.5701
-49.3678
-55.852
-48.3792
-47.1917
-46.934
-72.6168
-72.6104
-66.5582
-57.5202
-66.5358
-57.509
-54.2124
-54.2176
-13.5589
-13.5546
-7.83918
5.46184
5.47842
-7.81855
12.5753
12.5824
193.697