# vtk DataFile Version 2.0
tet_velo
ASCII
DATASET UNSTRUCTURED_GRID
POINTS 29498 float
-0.785 0.195 -1.58934
-0.548539 0.215 1.775
-0.623916 0.675 -1.495
-0.586103 0.675 1.625
0.785 0.195 -1.58931
0.548541 0.215 1.775
0.625 0.675 -1.49417
0.586104 0.675 1.625
-0.748938 0.158909 -0.467893
-0.695313 0.140379 0.653553
-0.724558 0.788246 -0.455
-0.725399 0.801692 0.585
0.750375 0.157472 -0.467873
0.691448 0.144246 0.653563
0.724908 0.787873 -0.454447
0.725574 0.801504 0.585277
-1.5238 -0.118673 -2.45495
-1.51232 -0.101358 -1.59049
-1.47638 -0.128856 -0.466914
-1.39644 -0.146203 0.673105
-1.27803 -0.108009 1.79807
-1.24893 -0.102323 2.66932
-1.2566 -0.114356 3.52801
-1.51344 0.157857 -2.43695
-1.50254 0.191498 -1.58142
-1.47572 0.176892 -0.473693
-1.38524 0.148454 0.641403
-1.22946 0.166788 1.75069
-1.21456 0.169782 2.62078
-1.23654 0.159961 3.48214
-1.44458 0.689366 -2.37814
-1.39794 0.722732 -1.51936
-1.44539 0.792754 -0.467178
-1.40165 0.780219 0.579283
-1.25522 0.692903 1.63304
-1.22697 0.694613 2.50652
-1.23941 0.702099 3.38102
-1.39353 1.57268 -2.35109
-1.37513 1.61475 -1.50442
-1.38912 1.67875 -0.478771
-1.39427 1.68501 0.529362
-1.35939 1.62778 1.55591
-1.32409 1.59124 2.40446
-1.30128 1.57753 3.27009
-0.797679 -0.118452 -2.46008
-0.778832 -0.0995035 -1.59806
-0.752671 -0.138989 -0.465801
-0.71541 -0.149779 0.683467
-0.634177 -0.0812189 1.81613
-0.60797 -0.0846994 2.68158
-0.610279 -0.106077 3.53513
-0.800181 0.153322 -2.43839
-0.573327 0.186222 2.6309
-0.59222 0.166387 3.48751
-0.742504 0.668498 -2.36784
-0.583189 0.690569 2.50493
-0.592908 0.700316 3.38072
-0.683764 1.56028 -2.34092
-0.660934 1.60407 -1.49326
-0.678129 1.67896 -0.471996
-0.703393 1.68981 0.528677
-0.692395 1.62516 1.55031
-0.663538 1.58568 2.39885
-0.640418 1.57285 3.26603
0.694597 -0.11859 -2.45989
0.752545 -0.099775 -1.59798
0.731516 -0.139498 -0.46575
0.663631 -0.147384 0.6835
0.57352 -0.0802663 1.81615
0.615549 -0.0839984 2.68161
0.653731 -0.105355 3.53519
0.676687 0.153234 -2.43814
0.620324 0.186689 2.63093
0.659939 0.167026 3.48757
0.639424 0.668431 -2.36733
0.634147 0.690907 2.50497
0.6679 0.700847 3.38078
0.72088 1.56019 -2.3405
0.743303 1.60396 -1.49282
0.740073 1.67888 -0.471629
0.694391 1.68991 0.528927
0.651243 1.62545 1.55047
0.655621 1.58608 2.39898
0.676004 1.57332 3.26615
1.43598 -0.118969 -2.45452
1.4886 -0.101891 -1.59019
1.46497 -0.129196 -0.466695
1.36972 -0.143158 0.673239
1.25262 -0.10569 1.79815
1.26145 -0.100677 2.66941
1.29941 -0.112855 3.52814
1.4227 0.157602 -2.43641
1.49455 0.191051 -1.58101
1.48055 0.175966 -0.473402
1.38834 0.151734 0.641555
1.2413 0.168836 1.75075
1.2567 0.171169 2.62087
1.30045 0.161335 3.48226
1.37722 0.689159 -2.37729
1.4037 0.722449 -1.51838
1.45939 0.792066 -0.466453
1.41225 0.781045 0.579664
1.27093 0.694163 1.63316
1.27472 0.695671 2.50663
1.31149 0.70326 3.38117
1.42817 1.57251 -2.35029
1.44734 1.61456 -1.50361
1.44751 1.67865 -0.478088
1.39893 1.6853 0.529844
1.33974 1.62847 1.55623
1.32915 1.5921 2.40472
1.34286 1.57851 3.27033
-0.694422 0.435 -1.53213
0 0.185574 -1.59875
-0.778092 0.165831 -1.02862
-0.576986 0.445 1.70967
1.01328e-06 0.222653 1.76735
-0.633731 0.165885 1.21428
0.000542015 0.745188 -1.56477
-0.705635 0.763021 -0.975
4.76837e-07 0.761655 1.71166
-0.713711 0.796306 1.105
0.694941 0.435 -1.53168
0.778837 0.165086 -1.02859
0.576962 0.445 1.70964
0.628532 0.171086 1.21428
0.706236 0.762719 -0.974308
0.713805 0.796218 1.10514
-0.714871 0.156899 0.09283
-0.779472 0.473577 -0.461447
0.000718652 0.139312 -0.467883
-0.778999 0.471036 0.619277
-0.00193284 0.139348 0.653558
-0.724977 0.794967 0.065
0.000175182 1.0815 -0.454723
8.7297e-05 1.17425 0.585138
0.729679 0.142092 0.092845
0.779387 0.472673 -0.46116
0.777541 0.472875 0.61942
0.725251 0.794699 0.065415
-0.889579 0.454289 -1.00181
-0.778111 0.472306 0.078915
-0.896288 0.458018 1.15964
0.000359326 0.15374 -1.0286
-0.000607093 0.139314 0.0928375
-0.000965912 0.160942 1.21428
0.000271007 0.435 -1.83839
7.45058e-07 0.445 1.84174
0.000358598 0.861992 -0.974654
0.000131239 1.21089 0.0652075
4.38869e-05 1.02623 1.10507
0.889727 0.453836 -1.00145
0.778125 0.472774 0.07913
0.896275 0.458938 1.15971
-1.14377 0.193249 -1.58538
-0.781916 0.0477482 -1.5937
-0.79259 0.174161 -2.01386
-0.889001 0.190894 1.76285
-0.591358 0.0668906 1.79556
-0.560933 0.200611 2.20295
-1.01093 0.698866 -1.50718
-0.68321 0.671749 -1.93142
-0.642425 1.13954 -1.49413
-0.920662 0.683951 1.62902
-0.584646 0.682785 2.06497
-0.639249 1.15008 1.58766
0.768773 0.0476125 -1.59365
0.730844 0.174117 -2.01372
1.13977 0.193026 -1.58516
0.561031 0.0673668 1.79557
0.584432 0.200844 2.20296
0.894921 0.191918 1.76287
0.632212 0.671715 -1.93075
0.684151 1.13948 -1.49349
1.01435 0.698725 -1.50628
0.610125 0.682954 2.06499
0.618673 1.15023 1.58774
0.928519 0.684582 1.62908
-1.11233 0.1679 -0.470793
-0.750804 0.00995985 -0.466847
-1.04028 0.144417 0.647478
-0.705362 -0.00469978 0.66851
-1.08497 0.7905 -0.461089
-0.701343 1.2336 -0.463498
-1.06352 0.790955 0.582141
-0.714396 1.24575 0.556838
0.740945 0.00898692 -0.466812
1.11546 0.166719 -0.470638
0.677539 -0.00156892 0.668532
1.03989 0.14799 0.647559
0.732491 1.23338 -0.463038
1.09215 0.78997 -0.46045
0.709982 1.24571 0.557102
1.06891 0.791275 0.58247
-1.51806 -0.110016 -2.02272
-1.51862 0.019592 -2.44595
-1.16074 -0.118563 -2.45752
-1.49435 -0.115107 -1.0287
-1.50743 0.0450699 -1.58595
-1.14558 -0.100431 -1.59428
-1.43641 -0.137529 0.103096
-1.47605 0.0240178 -0.470303
-1.11453 -0.133922 -0.466357
-1.33724 -0.127106 1.23559
-1.39084 0.00112553 0.657254
-1.05592 -0.147991 0.678286
-1.26348 -0.105166 2.23369
-1.25375 0.0293894 1.77438
-0.956104 -0.094614 1.8071
-1.25277 -0.108339 3.09866
-1.23174 0.0337297 2.64505
-0.928451 -0.0935112 2.67545
-1.24657 0.0228027 3.50507
-0.933442 -0.110217 3.53157
-1.50799 0.174678 -2.00918
-1.47901 0.423612 -2.40755
-1.15681 0.15559 -2.43767
-1.48913 0.184195 -1.02755
-1.45024 0.457115 -1.55039
-1.43048 0.162673 0.0838553
-1.46055 0.484823 -0.470436
-1.30735 0.157621 1.19605
-1.39345 0.464337 0.610343
-1.22201 0.168285 2.18574
-1.24234 0.429845 1.69187
-1.22555 0.164872 3.05146
-1.22076 0.432198 2.56365
-0.893942 0.178002 2.62584
-1.23798 0.43103 3.43158
-0.914381 0.163174 3.48482
-1.42126 0.706049 -1.94875
-1.41906 1.13102 -2.36461
-1.09354 0.678932 -2.37299
-1.42166 0.757743 -0.993268
-1.38653 1.16874 -1.51189
-1.42352 0.786486 0.0560521
-1.41726 1.23575 -0.472975
-1.32843 0.736561 1.10616
-1.39796 1.23261 0.554322
-1.24109 0.693758 2.06978
-1.3073 1.16034 1.59448
-1.23319 0.698356 2.94377
-1.27553 1.14293 2.45549
-0.905077 0.692591 2.50573
-1.27035 1.13982 3.32556
-0.916159 0.701207 3.38087
-1.38433 1.59371 -1.92775
-1.03865 1.56648 -2.346
-1.38213 1.64675 -0.991597
-1.01803 1.60941 -1.49884
-1.3917 1.68188 0.0252957
-1.03363 1.67886 -0.475383
-1.37683 1.6564 1.04264
-1.04883 1.68741 0.529019
-1.34174 1.60951 1.98018
-1.02589 1.62647 1.55311
-1.31268 1.58439 2.83727
-0.993812 1.58846 2.40165
-0.970849 1.57519 3.26806
-0.788256 -0.108978 -2.02907
-0.79893 0.0174349 -2.44923
-0.0515412 -0.118521 -2.45998
-0.765752 -0.119246 -1.03193
-0.0131436 -0.0996392 -1.59802
-0.734041 -0.144384 0.108833
-0.0105775 -0.139243 -0.465776
-0.674793 -0.115499 1.2498
-0.0258896 -0.148582 0.683483
-0.621073 -0.0829591 2.24885
-0.0303281 -0.0807426 1.81614
-0.609124 -0.0953884 3.10836
-0.590648 0.0507613 2.65624
0.00378952 -0.0843489 2.6816
-0.60125 0.030155 3.51132
0.0217258 -0.105716 3.53516
-0.771342 0.41091 -2.40311
-0.0617468 0.153278 -2.43826
-0.582774 0.176305 3.05921
-0.578258 0.438396 2.56792
0.0234983 0.186455 2.63091
-0.592564 0.433352 3.43412
0.0338596 0.166706 3.48754
-0.713134 1.11439 -2.35438
-0.05154 0.668464 -2.36758
-0.588048 0.695442 2.94283
-0.623363 1.13812 2.45189
0.025479 0.690738 2.50495
-0.616663 1.13658 3.32338
0.0374961 0.700582 3.38075
-0.672349 1.58218 -1.91709
0.0185583 1.56023 -2.34071
-0.669531 1.64152 -0.982626
0.0411843 1.60402 -1.49304
-0.690761 1.68439 0.0283403
0.0309724 1.67892 -0.471813
-0.697894 1.65748 1.0395
-0.00450086 1.68986 0.528802
-0.677966 1.60542 1.97458
-0.0205763 1.6253 1.55039
-0.651978 1.57926 2.83244
-0.00395804 1.58588 2.39891
0.0177931 1.57308 3.26609
0.723571 -0.109183 -2.02894
0.685642 0.0173221 -2.44901
1.06529 -0.11878 -2.45721
0.74203 -0.119637 -1.03187
1.12057 -0.100833 -1.59409
0.697573 -0.143441 0.108875
1.09824 -0.134347 -0.466223
0.618576 -0.113825 1.24982
1.01668 -0.145271 0.678369
0.594535 -0.0821324 2.24888
0.913071 -0.0929781 1.80715
0.63464 -0.0946768 3.1084
0.617936 0.0513451 2.65627
0.938498 -0.092338 2.67551
0.656835 0.0308352 3.51138
0.976571 -0.109105 3.53167
0.658056 0.410832 -2.40274
1.0497 0.155418 -2.43728
0.640132 0.176857 3.05925
0.627235 0.438798 2.56795
0.93851 0.178929 2.6259
0.66392 0.433936 3.43418
0.980194 0.16418 3.48491
0.680152 1.11431 -2.35392
1.00832 0.678795 -2.37231
0.651023 0.695877 2.94288
0.644884 1.13849 2.45197
0.954432 0.693289 2.5058
0.671952 1.13708 3.32347
0.989695 0.702053 3.38098
0.732091 1.58207 -1.91666
1.07453 1.56635 -2.34539
0.741688 1.64142 -0.982223
1.09532 1.60926 -1.49822
0.717232 1.68439 0.0286487
1.09379 1.67877 -0.474858
0.672817 1.65768 1.0397
1.04666 1.68761 0.529386
0.653432 1.60577 1.97472
0.995494 1.62696 1.55335
0.665813 1.5797 2.83256
0.992388 1.58909 2.40185
1.00943 1.57591 3.26824
1.46229 -0.11043 -2.02236
1.42934 0.0193166 -2.44547
1.47678 -0.115543 -1.02844
1.49157 0.0445803 -1.5856
1.41734 -0.136177 0.103272
1.47276 0.0233852 -0.470049
1.31117 -0.124424 1.23569
1.37903 0.00428802 0.657397
1.25703 -0.103184 2.23378
1.24696 0.0315728 1.77445
1.28043 -0.106766 3.09878
1.25907 0.0352458 2.64514
1.29993 0.02424 3.5052
1.45863 0.174327 -2.00871
1.39996 0.423381 -2.40685
1.48755 0.183509 -1.02721
1.44912 0.45675 -1.5497
1.43444 0.16385 0.0840766
1.46997 0.484016 -0.469928
1.31482 0.160285 1.19615
1.4003 0.46639 0.61061
1.249 0.170002 2.18581
1.25612 0.4315 1.69195
1.27857 0.166252 3.05156
1.26571 0.43342 2.56375
1.30597 0.432297 3.43172
1.39046 0.705804 -1.94783
1.4027 1.13083 -2.36379
[...]
POINT_DATA 29498
VECTORS point_vectors float
-2.60615 -3.10777 7.1505
-0.171421 0.157973 0.803375
-0.315997 0.610568 1.29837
-0.0717548 -0.0215998 -0.052905
4.73959 -7.81407 13.658
0.168105 0.162126 0.843019
0.330655 0.650276 1.38972
0.0726307 -0.0220922 -0.0535859
0 0 0
0.0269716 0.0413186 0.480377
0 0 0
0 0 0
0 0 0
-0.0118264 0.0235045 0.172892
0 0 0
2.78474e-17 -3.86682e-17 -1.08114e-16
-0.725299 -0.326515 19.861
-1.24355 -0.679599 20.4785
-0.431141 -0.360761 21.2859
0.0801307 -0.0777569 21.3522
0.675308 0.318651 21.3178
0.936459 0.508885 20.8963
0.973919 0.593518 20.5174
-0.901921 -0.224151 19.7449
-1.73809 -0.573833 20.4004
-0.571891 -0.437761 21.4016
0.0560732 -0.252536 21.4787
1.0168 0.239081 21.0855
1.21633 0.39875 20.9304
1.17775 0.283353 20.6659
-1.04157 0.165732 19.6034
-2.30165 0.378347 20.3122
-1.13728 -0.218587 21.4267
-0.337563 -0.284417 21.5629
0.724462 -0.467304 21.1624
1.19115 -0.429814 20.5782
1.09354 -0.365437 20.2514
-0.630839 0.485196 19.8956
-0.952379 0.758424 20.3403
-0.843659 0.518257 21.0476
-0.345286 0.0977359 21.3514
0.0939183 -0.258184 21.2517
0.316984 -0.443906 21.0741
0.409842 -0.528362 20.6716
-0.842566 -0.863795 19.1609
-1.69345 -3.34498 20.7853
-0.474416 -0.330081 21.5934
-0.0708327 0.188324 20.2704
0.0804281 1.07762 17.8875
0.249332 1.38596 17.8958
0.517563 1.35104 18.5039
-1.21002 -0.650973 18.6285
0.108434 1.56288 9.05489
1.10466 1.63283 14.2408
-1.40402 0.432181 18.1911
0.963241 0.222434 2.3395
1.93504 -0.029187 7.88151
-0.563124 0.969968 19.4683
-0.952212 1.79112 20.0808
-1.14656 1.6283 21.2142
-0.434396 0.364354 21.8212
0.0269229 -0.414595 21.4899
0.209685 -0.772325 21.1763
0.292037 -0.878562 20.8217
0.819244 -0.969095 19.0257
1.63242 -3.55306 20.7802
0.489911 -0.336408 21.3104
0.0863355 0.193188 20.0352
0.00767802 0.990095 17.4263
-0.269934 1.36464 17.9014
-0.576064 1.30235 18.7448
1.12572 -0.784436 18.3994
-0.372139 1.6312 10.0472
-1.23262 1.5623 14.8115
1.39055 0.542699 17.845
-1.06361 0.200189 3.72541
-2.0894 -0.0485562 9.82292
0.583426 0.94614 19.4892
1.02322 1.67458 20.1152
1.18127 1.48874 21.2077
0.433399 0.36949 21.8277
-0.0120334 -0.416381 21.5004
-0.203808 -0.775187 21.1779
-0.329922 -0.865604 20.7646
0.76204 -0.389087 19.8003
1.29062 -0.725022 20.4729
0.426928 -0.366286 21.3064
-0.096665 -0.075107 21.367
-0.695347 0.366353 21.3324
-0.931818 0.482879 20.9204
-0.934785 0.516796 20.5365
0.970498 -0.266709 19.6282
1.7635 -0.584515 20.393
0.568731 -0.430359 21.3923
-0.0628968 -0.24823 21.4774
-1.0021 0.203658 21.1614
-1.20517 0.302729 21.0092
-1.12164 0.166856 20.6961
1.08929 0.193275 19.5191
2.28232 0.368729 20.3185
1.11569 -0.21135 21.4127
0.328565 -0.281343 21.5496
-0.707591 -0.453301 21.2697
-1.10218 -0.471088 21.1279
-0.966194 -0.429494 20.8665
0.619482 0.468061 19.9182
0.905069 0.67864 20.3685
0.815979 0.470005 21.0323
0.342331 0.0952044 21.3488
-0.0957098 -0.265618 21.2606
-0.316536 -0.441961 21.0734
-0.405142 -0.501833 20.6759
-0.37157 0.0515048 0.461649
0 0 0
-0.0272328 0.00469066 0.211099
-0.0247627 -0.00218965 -0.0163785
-0.000464042 -0.0222595 0.0889066
0.000724736 -0.000249423 0.0556754
-4.02911e-05 0.0316136 0.078524
0 0 0
0.000141002 0.0555299 -0.0450343
0.0054968 -0.000436928 0.0410709
0.301138 0.0396498 0.368563
0.020542 0.00604677 0.127633
0.0246967 -0.00250053 -0.0164829
-0.00120323 0.000419221 0.0780602
0 0 0
-0.00527563 -0.000460949 0.0399227
-2.2071e-18 -2.47556e-20 -7.56192e-17
7.7132e-06 0.000157493 -7.76476e-05
5.40115e-07 -1.08434e-06 0.000134262
0 0 0
0.00113073 0.0277098 0.158898
0 0 0
8.88319e-06 0.0413026 0.0925036
1.7108e-06 -0.00195099 0.0160647
-0.00124951 -0.00378782 0.247045
-8.47441e-06 0.000151941 -7.08529e-05
0 0 0
9.54539e-18 -1.48379e-17 -6.53146e-17
0 0 0
0 0 0
0.000199965 0.00572077 0.0377305
-2.18202e-07 6.81709e-08 -2.55994e-05
1.30527e-07 -2.79476e-08 2.73601e-05
-4.97813e-08 -1.68431e-07 -3.18067e-05
0.00430435 -0.00234606 0.0158979
9.28535e-05 -0.0108168 -0.00479317
0 0 0
6.43426e-07 1.87081e-05 0.000491055
0 0 0
0 0 0
0 0 0
-0.000224241 0.00618074 0.0415758
-3.41433 -1.69542 20.0357
-2.65428 -5.32477 20.6464
-2.72181 -1.86779 17.7762
0.99484 1.16593 11.9626
-0.191282 1.04112 10.4227
-0.630295 0.994051 5.91191
-4.85991 1.8126 19.5881
-3.8135 2.03878 16.3449
-2.11807 3.23518 19.8298
1.09247 0.116107 9.81793
-0.444495 0.388219 0.818601
0.913471 -0.237788 13.4481
2.7369 -5.77363 20.4389
2.81902 -2.18816 17.3617
3.46625 -1.69595 20.008
0.251645 0.955142 10.0237
0.481367 1.02246 6.25782
-1.01066 1.21076 12.3287
3.83691 2.25908 15.9387
2.17939 3.07117 19.8567
4.82343 1.75786 19.6138
0.394369 0.338942 1.11784
-0.857465 -0.26995 12.7063
-1.14355 0.141143 10.4187
-0.068653 -0.355361 20.42
-0.714576 0.092201 16.1675
0.186413 0.299026 18.2803
0.0899991 0.217005 14.7008
-1.79385 -0.716 21.226
-3.12047 2.07736 21.503
-0.438269 -0.222427 18.7975
-0.288854 0.219502 19.9744
0.702434 0.0749902 15.8092
0.0616419 -0.379846 20.5075
-0.102458 0.289956 14.0942
-0.220916 0.281327 18.2188
3.02706 1.88627 21.5315
1.78334 -0.701789 21.3228
0.273627 0.217578 19.8655
0.444873 -0.26 19.039
-1.05003 -0.520919 20.0359
-0.829673 -0.30804 19.8041
-0.853774 -0.531061 19.5739
-0.930957 -0.620622 21.1212
-1.48141 -0.649298 20.4305
-1.79522 -1.64048 20.484
-0.136426 -0.198855 21.311
-0.500313 -0.414139 21.3303
-0.298886 -0.393554 21.5748
0.376592 0.112586 21.4138
0.0796961 -0.154761 21.4153
0.143967 0.0869552 21.4295
0.836819 0.439435 21.1655
0.852668 0.324732 21.2575
0.666247 0.945503 20.8224
0.871938 0.519439 20.655
1.08259 0.483519 20.8627
0.935402 1.05023 20.687
1.07417 0.537966 20.5069
0.971439 0.949601 20.5387
-1.34227 -0.400834 19.8997
-0.99969 -0.101142 19.6583
-1.0625 -0.403709 19.3363
-1.30926 -0.618375 21.2589
-2.19958 -0.231389 20.3424
-0.186425 -0.326613 21.4084
-0.837124 -0.436858 21.4717
0.451786 -0.0951636 21.5566
-0.124657 -0.363105 21.5677
1.16108 0.377743 20.8987
1.0126 -0.136759 20.8272
1.15017 0.318505 20.9192
1.43713 -0.038068 20.2131
1.35404 1.34955 16.3034
1.23577 -0.0133755 20.0636
1.46262 1.22465 17.429
-1.69706 0.262668 19.7267
-0.866075 0.417801 19.7321
-1.32945 0.254548 19.049
-1.86096 0.0689101 21.2734
-1.5497 0.783095 20.3127
-0.702822 -0.312737 21.5159
-1.18109 0.29165 21.2408
0.0846634 -0.315818 21.6446
-0.413817 -0.0479114 21.4907
0.958905 -0.451956 20.836
0.278154 -0.393801 21.4117
1.26542 -0.429462 20.2607
0.619297 -0.582761 21.0893
1.44735 -0.121085 12.7271
0.650843 -0.612202 20.6439
1.87514 -0.315723 14.9224
-0.816034 0.658284 20.0603
-0.678578 0.722107 19.7025
-0.964852 0.692173 20.7302
-1.09459 1.23097 20.2234
-0.62644 0.306875 21.2576
-1.08348 0.932922 21.1482
-0.100263 -0.096845 21.3321
-0.423394 0.208837 21.5613
0.209863 -0.371787 21.1414
0.0892026 -0.340209 21.3648
0.404429 -0.500902 20.8894
0.296994 -0.610576 21.1116
0.400454 -0.68152 20.816
-1.5674 -1.97743 19.1261
-1.02615 -0.830025 18.9119
-0.084284 -1.38804 18.5184
-0.711224 -1.28821 22.2569
-0.0610879 -4.11366 21.7582
-0.28947 -0.058246 20.8393
-0.017756 -0.696949 20.5798
0.0492433 0.505616 19.1368
0.00228952 0.0256603 18.6517
0.141232 1.22947 18.4134
-0.0290933 0.474264 15.434
0.258848 1.43712 18.7699
0.286951 1.64986 15.0208
-0.000288997 0.847985 15.8143
0.766985 1.59255 16.9057
0.00271081 1.04241 15.5973
-1.39197 -0.213574 18.2214
-0.139428 -1.2258 17.4592
0.669687 1.70023 12.1762
0.838767 1.04739 2.80413
0.126343 -0.0161035 0.516981
1.81377 1.40876 8.40485
0.00296208 0.700244 6.98255
-0.987892 1.01502 18.8765
-0.126608 0.914664 16.609
1.56602 0.186262 4.91925
0.919545 -0.812521 14.7682
-0.0864308 -0.694793 -3.51591
0.8679 -1.02876 15.082
-0.162823 -0.558186 -1.52617
-0.792883 1.45907 19.6475
0.0192937 1.28842 19.2671
-1.10194 1.7897 20.6471
0.0635383 2.40527 19.9217
-0.894311 1.06161 21.7741
0.0781526 2.71486 21.1814
-0.125932 -0.119435 21.6673
-0.00299386 0.646662 22.1944
0.106881 -0.598335 21.3858
-0.00424967 -0.322786 21.5188
0.280511 -0.88473 21.0463
0.00103277 -0.753817 21.0736
-0.00571385 -0.95188 20.4955
1.53449 -2.19674 18.9932
0.971714 -0.898948 18.7111
0.857806 -0.615258 19.4674
0.697241 -1.3004 22.3035
1.86736 -1.75346 20.4688
0.29753 -0.10497 20.6163
0.29493 -0.371753 21.5885
-0.0218636 0.488222 18.6585
-0.141311 0.133436 21.4143
-0.0759217 1.18134 18.0141
-0.610635 1.02684 20.543
-0.337546 1.441 18.8452
-0.36061 1.62884 15.1714
-0.951996 1.04335 20.6878
-0.859757 1.51502 17.2276
-1.01959 0.922045 20.5251
1.35722 -0.225981 17.9066
1.15442 -0.446991 19.1448
-0.915649 1.69142 13.2196
-0.940042 1.06959 3.84371
-1.43973 1.22893 17.6243
-1.86949 1.25079 10.7915
-1.4126 1.00748 18.4175
0.97425 1.06759 18.8415
1.36617 0.294133 18.8768
-1.7286 0.137722 6.80912
-0.949265 -0.813348 15.3939
-1.47906 -0.178648 14.6084
-0.931257 -0.998193 16.1897
-1.69562 -0.326327 16.211
0.814341 1.37557 19.693
0.679903 0.695503 19.7192
1.15766 1.66797 20.6718
1.08136 1.13862 20.2456
0.9039 1.01504 21.7555
1.04269 0.845907 21.1293
0.128054 -0.119624 21.6787
0.423433 0.207933 21.5628
-0.0920026 -0.602409 21.3899
-0.0852038 -0.350447 21.3686
-0.288647 -0.878357 21.0461
-0.296418 -0.612498 21.1112
-0.403818 -0.666902 20.8349
1.10636 -0.583954 19.999
0.891675 -0.354745 19.7072
0.941678 -0.647199 21.1434
1.53546 -0.681186 20.4201
0.128988 -0.200128 21.3286
0.494021 -0.411613 21.3401
-0.403945 0.128139 21.4286
-0.0946912 -0.152754 21.422
-0.838603 0.451079 21.1588
-0.872797 0.347364 21.2263
-0.85807 0.496107 20.6849
-1.08004 0.423107 20.9146
-1.03028 0.43977 20.5322
1.42367 -0.445841 19.8444
1.07619 -0.117116 19.5448
1.30597 -0.614824 21.2633
2.20452 -0.228395 20.3387
0.181758 -0.315997 21.4047
0.825873 -0.425047 21.4515
-0.454808 -0.0960212 21.5527
0.116375 -0.358402 21.5637
-1.13183 0.327212 20.9563
-0.977176 -0.147874 20.9897
-1.1242 0.258468 20.957
-1.34359 -0.108581 20.9419
-1.11736 -0.0738772 20.6497
1.74429 0.290926 19.6803
0.873991 0.426576 19.7176
1.82979 0.0601744 21.2612
1.50607 0.724342 20.3283
0.689392 -0.304134 21.4992
1.13189 0.257307 21.2231
-0.0891637 -0.313167 21.6354
0.408959 -0.0518834 21.4857
-0.912491 -0.467258 21.0694
-0.279104 -0.397742 21.4137
-1.13458 -0.461562 20.6655
-0.606834 -0.563315 21.0927
-0.640237 -0.577906 20.6462
0.797094 0.616496 20.0822
0.926147 0.629703 20.7287
0.612867 0.286767 21.241
0.0999453 -0.0977697 21.3357
-0.210046 -0.375993 21.1416
-0.396405 -0.489174 20.897
-1.22251 -0.487005 19.9604
-2.09796 -2.07953 18.5125
-1.39915 -1.0533 19.7022
-2.01654 -0.871662 19.2641
-0.960287 -0.475083 19.4512
-2.496 -1.83144 20.3277
-1.12671 -0.65227 21.2018
-0.828915 -0.569416 18.1148
-0.963621 -1.13237 21.6323
-1.68701 -1.60258 22.3846
-0.183311 -0.38605 21.5221
-0.157259 -0.267182 21.3591
-0.268815 0.0933638 14.7733
-0.0547913 -0.102032 21.4493
0.115174 0.21603 18.9677
0.187952 0.172121 20.6701
0.427083 0.0306556 21.513
0.0890285 0.322123 12.3053
0.37871 0.455405 21.2676
0.408534 0.529596 15.0228
0.867466 1.22667 18.1386
1.00916 0.445028 21.0618
-0.0240375 1.22174 12.6926
0.776188 1.04229 20.8191
1.18965 1.30669 14.8588
1.11339 1.2843 18.9122
0.975452 0.484451 20.7136
0.477329 1.72544 16.934
0.850417 0.837724 20.7561
1.46613 1.2146 16.7276
1.23219 1.1829 19.0813
-1.62262 -0.155571 19.7768
-4.0108 -0.416573 16.1495
-2.68059 0.690021 18.7421
-1.28737 -0.115388 19.0987
-5.32698 -0.296001 19.5371
-1.68022 -0.388993 21.3535
-3.31245 0.296592 22.3545
-0.426628 -0.835845 19.0628
-0.40666 -0.43433 21.5077
-1.07523 -0.733206 19.9807
0.137514 0.195396 15.8114
0.282 -0.292058 21.5879
0.496497 0.776008 15.7588
0.704842 0.190024 6.20163
1.21965 -0.0332406 20.4677
-0.632438 0.643654 0.920089
1.08898 -0.00524933 11.3256
1.70385 0.721207 12.2438
1.56456 0.0733195 19.4413
1.30102 1.31544 5.40067
1.7652 -0.199885 14.6105
1.71214 0.7688 15.9793
-1.23501 0.645787 19.8852
-1.67585 2.18252 18.8049
-0.895645 1.00772 19.8707
-1.00913 0.676891 19.3628
-2.16473 1.72714 20.0851
-1.47463 0.588484 20.9141
-2.36569 2.49041 20.8404
-1.15788 1.17438 20.7182
-1.83326 0.661187 21.4513
-0.821486 0.0875984 21.4379
-2.04915 0.770174 21.9114
-0.81526 0.583352 21.4884
-0.570503 0.0305817 21.8719
-0.044634 -0.19078 21.4921
0.646346 -0.12792 17.25
-0.115222 -0.103178 21.4981
0.32944 -0.592706 21.1518
0.458827 -0.506298 21.297
0.816679 -0.458968 14.0849
0.198431 -0.488496 21.2408
0.707414 -0.852208 20.7156
0.724244 -0.620961 20.9159
0.984472 -1.02894 15.6344
0.374795 -0.683652 20.9238
0.780005 -0.901109 20.6902
2.10485 -2.38677 18.2657
-0.100178 -3.76665 18.4925
-0.201323 -5.66542 14.1217
-0.117454 -1.40495 17.9784
-0.0603013 -4.33943 20.6212
0.853638 -0.515101 17.4201
-0.0319504 -1.5303 22.0574
0.0172869 -0.276746 12.4973
0.236197 0.00855103 14.5458
-0.0118056 -0.308578 19.271
0.0284864 0.148238 11.3666
-0.097707 0.336773 11.7218
0.0138968 0.267932 16.9857
-0.052444 0.2654 6.95771
0.0220781 1.20522 12.6198
-0.0117593 0.451138 15.5812
0.0879257 -0.784388 -0.35621
0.0777602 0.645519 9.56888
-0.611082 1.70093 17.0676
0.00133927 1.07905 15.8755
-0.00320106 -0.705638 2.92467
0.00481203 1.01846 12.1446
4.18678 -0.49838 15.4954
-0.2044 5.53228 12.3502
-0.137574 -0.291661 16.5531
0.615378 0.671131 1.17119
0.0140823 0.294757 -2.80499
0.019473 -1.25578 -4.64567
-1.46695 1.27763 6.86024
-0.204516 -1.07401 -2.37647
0.00687685 -0.478147 -2.02469
1.67809 2.16806 18.8118
0.0394266 1.9348 19.4205
-0.0250049 1.59715 18.1985
0.0833185 4.48027 19.589
2.38353 2.33724 20.883
0.0771306 2.56179 20.4493
0.0871542 5.40132 20.5642
2.01289 0.733593 21.8993
0.0229008 1.91638 22.2147
0.00177427 -0.045264 13.9382
-0.698414 -0.120565 16.7494
-0.00464415 -0.0275192 21.87
0.00562309 -0.0453005 3.44739
-0.814746 -0.462349 14.1051
-0.00138942 -0.498971 21.3829
-0.011327 -0.546484 5.83395
-1.01368 -1.00131 16.5872
-0.00273014 -0.952412 20.5956
-0.0373432 -1.02946 8.83996
1.29564 -0.540917 19.898
1.45277 -1.17564 19.6046
2.13579 -0.936189 19.0858
1.02158 -0.605408 19.3235
2.58365 -1.913 20.2956
1.13715 -0.664303 21.2188
0.952646 -1.13166 21.6723
1.6672 -1.59141 22.4033
0.170888 -0.363003 21.5066
0.149518 -0.264306 21.3672
0.0681518 -0.0760293 21.4469
-0.12784 0.182751 19.1428
-0.209206 0.223738 20.5005
-0.443394 0.0406828 21.5132
-0.353084 0.513051 21.0456
-0.451946 0.501484 15.0297
-0.829736 1.2633 17.5898
-1.00049 0.428072 21.082
-0.757049 1.07653 20.7482
-1.26215 1.25057 15.7737
-1.16171 1.22338 19.113
-0.95885 0.443962 20.7495
-0.8771 0.82527 20.6972
-1.54054 1.01696 17.9619
-1.292 1.09824 19.5155
1.70244 -0.152588 19.6986
2.81912 0.773225 18.5581
1.32493 -0.148892 18.8982
5.32274 -0.278904 19.5361
1.66152 -0.385272 21.3454
3.27518 0.275326 22.3461
0.442714 -0.841173 19.2617
0.401541 -0.425297 21.4974
1.06684 -0.722891 20.1702
-0.135896 0.145628 15.9984
-0.285516 -0.291363 21.6012
-0.468362 0.646247 16.2388
-0.776466 0.245168 6.78117
-1.17477 -0.0738282 20.6564
-1.14746 -0.0528709 12.6727
-1.8135 0.603001 14.2685
-1.44576 0.0451602 19.818
-1.6872 -0.266208 16.438
-1.68484 0.56559 17.0106
1.22556 0.634374 19.8961
0.896625 0.952851 19.8951
1.01177 0.696885 19.3417
2.12107 1.58411 20.1068
1.42466 0.535854 20.9058
1.1426 1.07994 20.7269
1.76004 0.613514 21.4331
0.798237 0.0741997 21.4219
0.796257 0.55517 21.4644
0.568931 0.027936 21.8726
0.0412799 -0.192148 21.4902
0.115899 -0.107192 21.5043
-0.33102 -0.600401 21.1078
-0.457576 -0.499019 21.2887
-0.194215 -0.493105 21.2419
-0.698354 -0.838892 20.7981
-0.711463 -0.580469 20.9249
-0.380033 -0.676704 20.9197
-0.769078 -0.852214 20.6853
-1.72388 -1.02697 19.4596
-1.16665 -1.36504 21.9661
0.0233165 -0.00599869 20.947
0.453063 0.565155 19.3931
1.00484 1.27799 18.3049
1.08658 1.16141 19.0211
-2.57617 -0.222781 18.8237
-2.67737 -0.910514 22.4208
0.091714 -0.472067 16.9383
0.182781 0.732429 14.1999
1.20305 0.54469 9.78003
1.93331 0.771343 14.2263
-1.60419 1.23683 19.4347
-2.08095 1.23706 21.0379
-1.27493 0.270892 21.8129
-0.0276752 -0.259974 21.7407
0.498044 -0.721132 20.9521
0.829794 -0.946591 20.3643
-0.139413 -4.98422 17.0957
0.00208219 -0.619404 13.9614
0.012196 -0.0896101 11.4229
0.0218768 0.163484 9.43578
-0.00380265 -0.0973742 8.08949
-0.00071351 0.856089 11.7177
-0.257474 -0.559823 9.787
0.0432932 -0.797482 -4.28842
-0.125072 -2.0063 -3.77831
0.00899932 3.38637 18.1435
0.0935595 4.07529 20.1377
0.0154878 2.33103 19.5756
0.00227172 -0.356498 7.59942
0.00176758 0.152039 5.20797
-0.0148465 -0.977576 7.51806
1.79123 -1.14339 19.3419
1.13603 -1.36916 22.0175
-0.0156835 0.0292999 20.8777
-0.470814 0.584074 18.9355
-1.01707 1.26842 18.3221
-1.11909 1.01175 19.3272
2.76421 -0.266949 18.5876
2.65369 -0.909541 22.4502
-0.0707544 -0.494385 17.1719
-0.194457 0.680579 14.5123
-1.33739 0.594396 11.4339
-1.96973 0.566826 16.1264
1.59825 1.21805 19.4477
2.01162 1.15131 21.0245
1.24833 0.257434 21.7889
0.0237592 -0.265094 21.716
-0.495416 -0.721792 20.9749
-0.799909 -0.916336 20.6284
-0.222889 -0.0130101 0.255635
-0.00609872 -0.0242678 0.140517
-0.0249968 0.000824246 0.197996
-0.021198 -0.00128342 -0.010512
-0.142444 -0.0266019 0.0473889
-0.0105706 0.0275788 0.0924578
-0.346844 0.157691 0.464564
-0.0115459 0.0678054 0.197895
-0.00296713 0.00207574 0.0146629
-0.028138 -0.00208426 -0.0212785
-0.0146837 0.020682 -0.0223246
-0.0135938 -0.0488558 0.101301
0 0 0
0.221185 -8.87896e-05 0.25676
0.0589563 -0.0247677 0.591408
0.141121 -0.0254052 0.0495245
0.00860694 -0.0010053 -0.00418555
0.0218589 0.0524259 0.210024
0.0107112 0.065968 0.194652
0.332799 0.173585 0.496184
0.00374598 0.00265937 0.0186417
0.014725 0.0205762 -0.022208
0.0266644 -0.00200698 -0.0200891
0.0141754 -0.0488494 0.099124
-0.0458307 0.00603573 0.344054
4.53673e-19 -1.74606e-19 -3.63577e-17
0 0 0
0 0 0
-9.90733e-05 0.00152461 0.0492163
0 0 0
0 0 0
0.00471664 0.00697171 0.159676
0 0 0
0.000564295 8.10101e-05 0.0258838
0 0 0
-0.0390618 0.03643 0.101858
0 0 0
7.05239e-05 0.000493341 0.000783042
0 0 0
0.0324764 -0.0112629 0.131652
0.0307693 0.00378561 0.214364
0 0 0
0 0 0
0 0 0
0 0 0
-0.00204783 0.00517209 0.121925
-0.0191872 -0.00540198 0.912322
0 0 0
0 0 0
0.0389497 0.0364854 0.101405
-0.000544954 5.74241e-05 0.0244848
3.54643e-18 -9.58806e-18 -1.18735e-16
0 0 0
-0.0326255 -0.0111665 0.129499
-9.73489e-05 0.00067834 0.0010672
2.41298e-17 -3.4146e-17 -1.15823e-16
-0.0197728 -0.00215927 0.18142
-0.778842 -0.0725326 0.439953
-8.87193e-08 3.23657e-07 -1.33055e-05
0.00152518 -0.131119 0.0408462
0 0 0
3.43617e-07 8.41064e-09 -6.5356e-06
0.224235 -0.023678 0.924647
-0.0878389 0.00566304 -0.0225535
0 0 0
9.71165e-05 -0.0156882 -0.009555
-0.00235487 0.0159614 0.133805
-3.56316e-08 8.68223e-08 1.5945e-05
0 0 0
0.000155782 0.00265378 0.0137132
0.00213007 0.00024328 0.0934333
-0.00472991 0.00109359 0.0118107
-1.10749e-05 0.0136961 -0.00556368
0 0 0
0.0422858 0.211337 1.08158
-0.000820303 -0.00147663 0.00664269
0.810143 -0.11132 0.463769
0.0222847 -0.00274017 0.20355
3.96947e-06 -1.32842e-07 5.28336e-05
0 0 0
0.0875134 0.00542091 -0.0223504
-0.225924 -0.018999 0.927384
0 0 0
0.00202728 0.0155152 0.131441
0.00469589 0.00108294 0.0117026
-0.00194989 7.1521e-05 0.0919823
0.000825019 -0.00147033 0.00663442
-0.037527 0.211517 1.09939
0 0 0
0 0 0
0.0473173 -0.0150422 0.323219
0 0 0
-3.73851e-07 -4.47391e-08 -7.01432e-05
-1.33307e-09 -5.02269e-09 2.39008e-06
0 0 0
-0.041485 0.0218506 0.224476
-1.78841e-07 -4.27796e-09 -2.75608e-05
2.71999e-07 3.40575e-07 4.36347e-05
0.000378065 0.00267152 0.00530294
0.0220387 0.0108018 0.243097
1.40717e-05 0.018402 0.0455312
6.00414e-06 0.0210487 0.100025
0 0 0
1.92588e-07 -0.000232742 0.00121835
-1.49176e-18 3.303e-20 4.25537e-17
0 0 0
-0.0479941 -0.0162058 0.32106
0 0 0
0 0 0
0.0404582 0.0222205 0.221979
-0.0238774 0.0109067 0.246653
-0.000382812 0.00269881 0.00537568
0 0 0
-1.76427 0.0923228 4.33221
0.0617289 0.0344903 0.177251
0 0 0
0 0 0
0.00112925 0.00701569 0.0206085
-0.0175817 0.00892616 0.30874
0 0 0
-0.00219135 -0.00540561 0.232643
0 0 0
0.107454 0.061135 0.593683
0 0 0
1.3122e-06 9.6101e-07 -2.52574e-05
-4.08357e-06 1.50109e-06 -6.30008e-05
0 0 0
7.73631e-06 2.21747e-07 0.000125403
0 0 0
0 0 0
0 0 0
6.46469e-19 -1.99837e-20 -2.21573e-17
6.3625e-07 2.6294e-07 3.66701e-05
6.68342e-06 0.000130405 0.00710423
0 0 0
0 0 0
-0.163538 -0.0765428 0.0735785
0.232324 -0.18074 0.112584
-0.508737 0.856893 0.404189