# vtk DataFile Version 2.0
tri_press
ASCII
DATASET UNSTRUCTURED_GRID
POINTS 3682 float
-0.785 0.195 -1.58934
-0.548539 0.215 1.775
-0.623916 0.675 -1.495
-0.586103 0.675 1.625
0.785 0.195 -1.58931
0.548541 0.215 1.775
0.625 0.675 -1.49417
0.586104 0.675 1.625
-0.748938 0.158909 -0.467893
-0.695313 0.140379 0.653553
-0.724558 0.788246 -0.455
-0.725399 0.801692 0.585
0.750375 0.157472 -0.467873
0.691448 0.144246 0.653563
0.724908 0.787873 -0.454447
0.725574 0.801504 0.585277
-1.5238 -0.118673 -2.45495
-1.51232 -0.101358 -1.59049
-1.47638 -0.128856 -0.466914
-1.39644 -0.146203 0.673105
-1.27803 -0.108009 1.79807
-1.24893 -0.102323 2.66932
-1.2566 -0.114356 3.52801
-1.51344 0.157857 -2.43695
-1.50254 0.191498 -1.58142
-1.47572 0.176892 -0.473693
-1.38524 0.148454 0.641403
-1.22946 0.166788 1.75069
-1.21456 0.169782 2.62078
-1.23654 0.159961 3.48214
-1.44458 0.689366 -2.37814
-1.39794 0.722732 -1.51936
-1.44539 0.792754 -0.467178
-1.40165 0.780219 0.579283
-1.25522 0.692903 1.63304
-1.22697 0.694613 2.50652
-1.23941 0.702099 3.38102
-1.39353 1.57268 -2.35109
-1.37513 1.61475 -1.50442
-1.38912 1.67875 -0.478771
-1.39427 1.68501 0.529362
-1.35939 1.62778 1.55591
-1.32409 1.59124 2.40446
-1.30128 1.57753 3.27009
-0.797679 -0.118452 -2.46008
-0.778832 -0.0995035 -1.59806
-0.752671 -0.138989 -0.465801
-0.71541 -0.149779 0.683467
-0.634177 -0.0812189 1.81613
-0.60797 -0.0846994 2.68158
-0.610279 -0.106077 3.53513
-0.800181 0.153322 -2.43839
-0.573327 0.186222 2.6309
-0.59222 0.166387 3.48751
-0.742504 0.668498 -2.36784
-0.583189 0.690569 2.50493
-0.592908 0.700316 3.38072
-0.683764 1.56028 -2.34092
-0.660934 1.60407 -1.49326
-0.678129 1.67896 -0.471996
-0.703393 1.68981 0.528677
-0.692395 1.62516 1.55031
-0.663538 1.58568 2.39885
-0.640418 1.57285 3.26603
0.694597 -0.11859 -2.45989
0.752545 -0.099775 -1.59798
0.731516 -0.139498 -0.46575
0.663631 -0.147384 0.6835
0.57352 -0.0802663 1.81615
0.615549 -0.0839984 2.68161
0.653731 -0.105355 3.53519
0.676687 0.153234 -2.43814
0.620324 0.186689 2.63093
0.659939 0.167026 3.48757
0.639424 0.668431 -2.36733
0.634147 0.690907 2.50497
0.6679 0.700847 3.38078
0.72088 1.56019 -2.3405
0.743303 1.60396 -1.49282
0.740073 1.67888 -0.471629
0.694391 1.68991 0.528927
0.651243 1.62545 1.55047
0.655621 1.58608 2.39898
0.676004 1.57332 3.26615
1.43598 -0.118969 -2.45452
1.4886 -0.101891 -1.59019
1.46497 -0.129196 -0.466695
1.36972 -0.143158 0.673239
1.25262 -0.10569 1.79815
1.26145 -0.100677 2.66941
1.29941 -0.112855 3.52814
1.4227 0.157602 -2.43641
1.49455 0.191051 -1.58101
1.48055 0.175966 -0.473402
1.38834 0.151734 0.641555
1.2413 0.168836 1.75075
1.2567 0.171169 2.62087
1.30045 0.161335 3.48226
1.37722 0.689159 -2.37729
1.4037 0.722449 -1.51838
1.45939 0.792066 -0.466453
1.41225 0.781045 0.579664
1.27093 0.694163 1.63316
1.27472 0.695671 2.50663
1.31149 0.70326 3.38117
1.42817 1.57251 -2.35029
1.44734 1.61456 -1.50361
1.44751 1.67865 -0.478088
1.39893 1.6853 0.529844
1.33974 1.62847 1.55623
1.32915 1.5921 2.40472
1.34286 1.57851 3.27033
-0.694422 0.435 -1.53213
0 0.185574 -1.59875
-0.778092 0.165831 -1.02862
-0.576986 0.445 1.70967
1.01328e-06 0.222653 1.76735
-0.633731 0.165885 1.21428
0.000542015 0.745188 -1.56477
-0.705635 0.763021 -0.975
4.76837e-07 0.761655 1.71166
-0.713711 0.796306 1.105
0.694941 0.435 -1.53168
0.778837 0.165086 -1.02859
0.576962 0.445 1.70964
0.628532 0.171086 1.21428
0.706236 0.762719 -0.974308
0.713805 0.796218 1.10514
-0.714871 0.156899 0.09283
-0.779472 0.473577 -0.461447
0.000718652 0.139312 -0.467883
-0.778999 0.471036 0.619277
-0.00193284 0.139348 0.653558
-0.724977 0.794967 0.065
0.000175182 1.0815 -0.454723
8.7297e-05 1.17425 0.585138
0.729679 0.142092 0.092845
0.779387 0.472673 -0.46116
0.777541 0.472875 0.61942
0.725251 0.794699 0.065415
-0.889579 0.454289 -1.00181
0.889727 0.453836 -1.00145
0.000359326 0.15374 -1.0286
0.000358598 0.861992 -0.974654
0.000271007 0.435 -1.83839
-0.778111 0.472306 0.078915
0.778125 0.472774 0.07913
-0.000607093 0.139314 0.0928375
0.000131239 1.21089 0.0652075
-0.896288 0.458018 1.15964
0.896275 0.458938 1.15971
-0.000965912 0.160942 1.21428
4.38869e-05 1.02623 1.10507
7.45058e-07 0.445 1.84174
-0.705001 0.315 -1.52603
-0.3925 0.179622 -1.60471
-0.795161 0.166801 -1.30898
-0.524038 0.33 1.70361
-0.274269 0.230976 1.75902
-0.598536 0.183042 1.49464
-0.669802 0.555 -1.5242
-0.311687 0.740879 -1.56067
-0.678868 0.733104 -1.235
-0.588724 0.56 1.67451
-0.293051 0.748536 1.69854
-0.682385 0.768131 1.365
0.3925 0.185812 -1.59851
0.705128 0.315 -1.52565
0.804559 0.157402 -1.30895
0.274271 0.230977 1.75902
0.524372 0.33 1.70394
0.604101 0.177479 1.49464
0.312771 0.740816 -1.56019
0.670653 0.555 -1.52361
0.679623 0.732864 -1.23424
0.293052 0.748521 1.69852
0.588702 0.56 1.67449
0.682387 0.768042 1.36507
-0.765175 0.16071 -0.748255
-0.731925 0.157883 -0.187532
-0.776968 0.309861 -0.46467
-0.375944 0.145442 -0.467888
-0.649812 0.167843 0.933915
-0.698312 0.155419 0.373192
-0.86291 0.242831 0.636415
-0.345895 0.145319 0.653556
-0.718424 0.778962 -0.715
-0.783207 0.646508 -0.458223
-0.724755 0.791594 -0.195
-0.41232 1.03513 -0.454862
-0.723894 0.803338 0.845
-0.777254 0.648891 0.602138
-0.725173 0.798315 0.325
-0.438461 1.13958 0.585069
0.763494 0.162391 -0.748233
0.376708 0.146071 -0.467878
0.733735 0.156074 -0.187514
0.776907 0.309059 -0.464517
0.642915 0.174741 0.933923
0.342594 0.146123 0.653561
0.722154 0.131578 0.373204
0.863077 0.244269 0.636492
0.718826 0.77855 -0.714378
0.412787 1.03518 -0.454585
0.78325 0.645824 -0.457803
0.725072 0.791279 -0.194516
0.724023 0.803195 0.845208
0.438638 1.13949 0.585208
0.777089 0.649956 0.602348
0.725397 0.798086 0.325346
-0.891966 0.444644 -1.26697
-0.347075 0.435 -1.79539
0.000179663 0.153726 -1.31368
0.000135504 0.310287 -1.84144
-0.895743 0.31006 -1.01521
-0.388866 0.153879 -1.02861
-0.884207 0.451509 1.43465
-0.288493 0.445 1.81659
-0.000482449 0.186543 1.49081
8.79169e-07 0.333827 1.81103
-0.871786 0.311951 1.18696
-0.317348 0.160946 1.21428
0.000450307 0.82318 -1.26971
0.000406511 0.590094 -1.79012
-0.89573 0.608655 -0.988404
-0.352638 0.857673 -0.974827
2.21819e-05 0.90613 1.40836
6.10948e-07 0.603328 1.76568
-0.895261 0.627162 1.13232
-0.356834 1.00765 1.10503
0.892309 0.444418 -1.26657
0.347606 0.435 -1.7952
0.895762 0.309461 -1.01502
0.389598 0.153792 -1.0286
0.883572 0.451969 1.43467
0.288482 0.445 1.81659
0.872393 0.315012 1.187
0.313783 0.165789 1.21428
0.895735 0.608278 -0.987879
0.353297 0.857676 -0.974481
0.895255 0.627578 1.13242
0.356924 1.00761 1.1051
-0.77547 0.300113 0.0858725
-0.359095 0.145394 0.0928337
-0.881259 0.463933 -0.731628
-0.77896 0.472942 -0.191266
0.000538989 0.153722 -0.748244
5.57795e-05 0.139313 -0.187523
-0.77779 0.471671 0.349096
-0.886637 0.464527 0.889458
-0.00126997 0.139314 0.373198
-0.00144937 0.160927 0.933919
-0.77952 0.647625 0.0719575
-0.450181 1.17845 0.0651038
0.00026689 0.953345 -0.714689
0.00015321 1.18328 -0.194758
0.000109268 1.20531 0.325173
6.5592e-05 1.11302 0.845104
0.775173 0.296797 0.0859875
0.361834 0.146106 0.0928412
0.881322 0.463254 -0.731305
0.778929 0.472723 -0.191015
0.777884 0.472825 0.349275
0.886615 0.465907 0.889565
0.779534 0.647659 0.0722725
0.450487 1.17839 0.0653113
-0.886678 0.31253 -1.28797
-0.886292 0.313151 -0.739941
-0.78923 0.619783 -0.723314
-0.895231 0.581827 -1.25099
0.886683 0.312231 -1.28776
0.89411 0.581639 -1.2504
0.788286 0.619275 -0.722841
0.886312 0.312267 -0.739769
-0.390683 0.153841 -1.31133
0.391049 0.15378 -1.31131
0.382573 0.153834 -0.748238
-0.381488 0.153826 -0.748249
-0.332163 0.821467 -1.25236
-0.357415 0.916958 -0.714844
0.357919 0.917013 -0.714533
0.333034 0.821499 -1.25198
-0.369788 0.312644 -1.76801
-0.329381 0.572547 -1.77204
0.330188 0.572547 -1.77315
0.370053 0.312644 -1.76904
-0.776168 0.305012 -0.189399
-0.863964 0.249085 0.361144
-0.777401 0.647765 0.337048
-0.780813 0.646791 -0.193133
0.776042 0.302928 -0.189265
0.780849 0.64647 -0.192765
0.777378 0.648341 0.33731
0.863845 0.248174 0.36124
-0.367519 0.145418 -0.187527
0.369271 0.146089 -0.187519
0.352214 0.146116 0.373201
-0.352485 0.145376 0.373195
-0.451304 1.1469 -0.194879
-0.45074 1.17185 0.325087
0.45097 1.17176 0.325259
0.451682 1.14687 -0.194637
-0.873928 0.308829 0.911686
-0.851657 0.320976 1.46465
-0.759692 0.593581 1.39983
-0.78463 0.631763 0.867229
0.875287 0.311786 0.911744
0.785636 0.632384 0.867386
0.759176 0.593789 1.39987
0.851545 0.322506 1.46466
-0.332986 0.16093 0.933917
0.32927 0.161147 0.933921
0.294027 0.185216 1.49273
-0.295809 0.185142 1.49273
-0.359745 1.09433 0.845052
-0.324942 0.896987 1.38668
0.324988 0.896978 1.38672
0.359877 1.0943 0.845156
-0.281381 0.331913 1.78571
0.281376 0.331913 1.78571
0.290767 0.581664 1.76181
-0.290772 0.581664 1.7619
-0.714383 0.255 -1.52707
-0.58875 0.186779 -1.59756
-0.800221 0.17076 -1.44916
-0.567194 0.2725 1.77021
-0.411404 0.252799 1.7372
-0.54131 0.231249 1.63482
-0.652536 0.615 -1.51528
-0.467801 0.733916 -1.55381
-0.658462 0.711122 -1.365
-0.587478 0.6175 1.64982
-0.439577 0.718122 1.66812
-0.638746 0.726068 1.495
0.58875 0.186672 -1.59764
0.712434 0.255 -1.52485
0.809838 0.161143 -1.44913
0.411406 0.252801 1.7372
0.567154 0.2725 1.77017
0.542891 0.229669 1.63482
0.468886 0.7338 -1.55307
0.65358 0.615 -1.51464
0.659302 0.710923 -1.3642
0.439578 0.718626 1.66863
0.587737 0.6175 1.65008
0.638751 0.726027 1.49503
-0.75253 0.164335 -0.608074
-0.740442 0.158385 -0.327713
-0.85668 0.187522 -0.466282
-0.565503 0.14605 -0.467891
-0.661589 0.165084 0.793734
-0.696894 0.147818 0.513373
-0.834346 0.163988 0.644984
-0.519061 0.145937 0.653555
-0.724441 0.786554 -0.585
-0.769419 0.725145 -0.456612
-0.724658 0.789922 -0.325
-0.598957 0.972725 -0.454931
-0.724668 0.802537 0.715
-0.767691 0.733473 0.593569
-0.725281 0.799998 0.455
-0.596896 1.00057 0.585035
0.758517 0.15835 -0.608053
0.566271 0.146312 -0.467876
0.742002 0.156826 -0.327694
0.856577 0.186797 -0.466195
0.654819 0.171856 0.793743
0.516276 0.146676 0.653562
0.707886 0.136827 0.513384
0.838302 0.163738 0.645028
[...]
POINT_DATA 3682
SCALARS point_scalars float 1
LOOKUP_TABLE default
-52.5333
-33.9776
-21.0663
-33.7189
-16.0904
-34.0579
-23.0053
-33.7388
-39.5872
-40.2063
-56.3266
-45.7453
-38.944
-41.9398
-56.2478
-45.7228
-59.2611
-135.645
-39.6197
-37.1246
-49.4608
-34.2835
-34.2835
63.3125
-135.645
-43.1665
-32.2378
-49.8703
-34.2835
-33.3433
63.3125
-121.035
-49.5671
-38.1484
-50.5042
-33.2423
-32.7033
-16.4083
-88.0408
-85.9426
-62.1835
-42.5026
-33.9989
-32.7415
60.3979
-96.803
-40.0026
-39.7081
-34.8525
-33.3433
-29.7881
60.3979
-31.1749
-28.3907
123.981
-31.1264
-28.9213
16.7082
-43.4866
-75.3105
-65.2793
-38.2697
-32.5224
-31.4096
59.7008
-69.8319
-39.3769
-41.6137
-34.8153
-33.4016
-29.8345
59.7008
-31.2179
-30.4505
138.5
-31.8733
-30.7488
6.99974
-44.0631
-73.579
-65.261
-37.8201
-32.5268
-31.4193
-56.452
-123.396
-39.4288
-38.3062
-50.2906
-34.4466
-34.4466
22.829
-135.712
-43.1041
-32.1603
-49.5434
-34.4466
-33.4016
53.2916
-122.986
-49.5033
-38.1663
-51.4687
-33.2789
-32.7151
-18.5943
-87.6591
-86.1488
-62.1882
-42.4482
-34.0158
-33.1456
23.1992
-83.486
-58.6452
-32.9764
-28.6549
-37.1356
-33.0762
-68.5141
-32.8135
-48.7134
24.774
-60.2686
-32.9834
-36.6378
-68.6042
-48.7015
-33.0308
-44.5152
-41.2565
-30.2347
-40.0766
-49.5799
-15.8394
-61.5176
-32.8424
-44.4653
-30.1846
-49.5985
-81.0965
-81.185
-56.5611
-8.77278
205.778
-34.1938
-34.3556
-36.5596
-95.7903
-44.8064
-44.6852
-36.4544
-39.8445
-20.518
36.9772
-89.33
-90.2291
-33.2164
-31.4206
-45.3577
18.4175
-29.0178
-59.265
-33.0824
-32.3246
-41.388
-88.3177
40.7904
-92.3038
-31.4719
-33.046
-45.562
-29.5598
19.5372
-59.3225
-32.3308
-33.1034
-41.3847
-45.6413
-34.554
-44.0911
-41.314
-35.0179
-33.7344
-32.4658
-39.2474
-52.6389
-47.7998
-53.0054
-14.4784
-48.2478
-36.334
-46.9539
-59.5362
-44.8103
-41.2147
-34.1188
-44.0642
-34.5402
-39.4426
-34.8973
-32.477
-52.5923
-14.6502
-47.7244
-53.005
-48.2464
-59.5318
-36.4668
-46.9547
-160.364
164.592
-74.3735
172.949
-76.6963
-56.511
-48.6056
-28.5141
-38.5034
-24.2844
-41.5447
-37.0365
-32.9213
127.11
-85.9753
-20.3644
-34.1754
-27.1723
-52.2145
-40.9563
-160.195
164.156
-76.9576
-57.3566
-48.6611
-28.5658
-41.3507
-36.8037
-85.9989
-20.4306
-52.2876
-40.9536
-31.4494
-35.6949
-59.1491
-37.5934
-44.3601
-37.943
-32.5211
-32.8763
-36.9153
-34.957
-39.9998
-84.3294
10.9506
-98.585
-77.2676
-48.6403
-31.3767
-35.818
-59.1371
-37.7171
-32.7124
-32.6597
-40.1025
-84.2853
-143.651
-59.8948
-58.3057
-122.435
-144.308
-122.94
-58.2821
-59.771
-75.6271
-77.2504
-44.6536
-44.3019
-37.4312
-0.505931
-0.618726
-37.6341
154.87
132.864
139.139
152.285
-36.4954
-28.8549
-38.1016
-42.8816
-36.5965
-42.9366
-38.2234
-28.4533
-37.0247
-36.9621
-36.5988
-36.2232
-91.1739
-69.841
-69.8379
-91.1271
-36.6637
-49.623
-42.1135
-38.2709
-36.5989
-38.4208
-42.1663
-49.7424
-34.9514
-35.3777
-39.8901
-40.5421
-48.9907
-35.1694
-35.1686
-48.9861
-29.5783
-29.6224
-30.3016
-30.2845
33.5453
-103.97
-110.493
-33.6318
-34.1702
-37.6921
9.62613
-26.3056
-56.3243
-33.4333
-32.5363
-37.0777
-90.4519
43.8634
-112.674
-34.2401
-33.7035
-37.7746
-32.2272
9.54388
-56.9427
-32.5466
-33.4537
-37.0871
-40.7612
-36.5772
-39.0361
-40.6236
-36.2337
-34.8004
-36.6457
-39.6362
-55.2531
-51.6745
-54.8595
-59.4147
-45.929
-40.0936
-46.1489
-53.5413
-40.8308
-40.3145
-36.1648
-38.7622
-36.2583
-39.953
-36.1829
-37.259
-55.1539
-59.3816
-51.5951
-54.837
-45.9135
-53.5245
-40.1596
-46.1343
29.8339
19.2856
5.86189
106.989
-85.9973
-81.8895
-85.8887
70.6095
-70.2663
-51.0284
-71.5909
-57.0811
-33.1447
-33.0404
-36.8524
-32.0955
-29.4512
-29.4751
-32.1403
-25.7887
-42.7527
-34.7917
-38.973
-37.4325
-30.9084
-30.6296
-38.0811
3.80919
-66.1317
-58.8609
-88.4062
-35.1303
-32.3268
-32.435
-33.117
-27.555
-45.2587
-50.0057
-51.703
-43.6198
35.4235
20.2954
4.8963
107.068
-73.8715
-51.1978
-71.7651
-58.0909
-33.1652
-33.0556
-36.8911
-32.1222
-40.1076
-34.8512
-38.6162
-36.9838
-66.3361
-58.9469
-88.5227
-35.2546
-45.2551
-49.9745
-51.7492
-43.6141
-33.4782
-33.2147
-31.5234
-34.6438
-44.0266
-45.4512
-49.8074
-40.3477
-41.2443
-41.2132
-41.1276
-39.3675
-29.9092
-32.3998
-32.3754
-23.6374
-40.0215
-40.1341
-37.7409
-35.2688
-51.1857
-48.2227
-43.8714
-62.2727
-14.3339
-14.3645
4.66533
-49.3314
-60.9742
-60.9251
-69.2619
-54.739
-32.1388
-33.5067
-32.4821
-34.7079
-43.9889
-45.3838
-49.7586
-40.397
-29.2871
-32.4991
-32.3489
-23.6768
-51.2006
-48.237
-43.9069
-62.2646
-101.968
-79.3407
-81.9048
-68.7465
-102.227
-79.5272
-81.9965
-68.8297
-64.6626
-56.4675
-56.7923
-50.0304
-21.9515
-11.7531
-11.7809
4.18571
198.704
202.202
181.698
198.242
-32.6246
-35.656
-33.1007
-36.5385
-32.7379
-35.8012
-33.287
-36.7061
-36.3468
-37.0217
-36.5353
-36.4116
-94.782
-97.7899
-86.2519
-94.7753
-48.7438
-43.0333
-46.786
-43.7738
-48.7696
-42.826
-46.7038
-43.6846
-37.9618
-36.6557
-36.509
-35.5004
-36.6922
-40.1278
-40.127
-43.6119
-23.3873
-22.0322
-24.6714
-23.4407
-75.1382
105.788
-82.5042
114.896
-125.131
-78.8584
-37.3339
-32.1278
-34.1256
-30.0598
-50.1101
-42.5718
-15.3562
73.4067
-36.4678
30.6494
-61.4232
-42.3917
-36.8335
-32.4153
-33.2016
-30.3479
-42.9348
-37.0519
-90.3665
102.758
-76.1931
105.396
-123.908
-81.4534
-34.0453
-30.1205
-37.3772
-32.1756
-51.02
-41.4997
-36.9159
32.3768
-15.1355
71.9408
-61.7094
-42.6178
-33.209
-30.3579
-36.8694
-32.4293
-42.9667
-37.0546
-60.8683
-44.7767
-34.496
-36.0116
-49.2262
-39.4954
-40.1998
-38.6059
-35.2474
-34.9219
-31.6146
-35.3162
-32.0963
-33.7594
-37.1953
-35.1063
-59.9008
-24.9595
-51.8136
-44.9293
-47.1863
-74.7905
-3.29441
-40.4268
-41.3304
-50.7936
-37.3139
-35.6675
-41.5591
-55.5507
-64.9733
-54.3139
-60.4352
-44.8475
-40.7292
-38.5065
-34.1264
-35.8627
-49.1621
-39.5418
-35.5049
-35.3018
-37.5517
-35.3878
-31.494
-36.044
-31.9375
-33.8196
-59.8671
-25.1682
-3.31859
-40.6587
-51.7553
-44.9282
-47.1923
-74.7531
-41.4633
-50.9137
-64.9601
-54.3025
-37.423
-35.8149
-41.6132
-55.5523
-152.096
-160.941
155.97
157.89
-74.5334
-75.29
175.032
174.061
-95.9802
-65.7221
-64.8392
-49.8396
-49.2333
-44.6963
-28.7006
-29.4012
-39.3432
-39.8634
-25.9116
-25.957
-38.65
-46.1113
-35.666
-39.1351
-34.0036
-34.0856
146.411
145.516
-72.4026
-110.909
-29.392
-10.2629
-34.4003
-34.4016
-28.4819
-28.4838
-53.533
-44.6619
-44.7139
-37.7509
-152.255
-161.308
158.361
154.128
-96.7065
-65.7101
-65.6003
-50.3561
-44.6636
-49.2899
-28.7536
-29.3679
-38.8499
-45.8151
-35.7159
-38.5233
-111.022
-72.4583
-10.3348
-29.3855
-45.256
-53.673
-37.7511
-44.7142
-34.24
-32.3946
-36.166
-35.7321
-60.1428
-56.869
-36.5791
-39.5161
-44.3975
-44.3645
-37.77
-37.7402
-29.8814
-34.8015
-37.363
-29.6026
-36.8605
-36.7172
-34.9305
-35.0281
-38.949
-41.29
-89.2383
-76.0985
8.3099
8.30095
-96.2051
-96.2452
-75.8198
-75.812
-48.8204
-48.8178
-34.3381
-32.7181
-36.1825
-36.0039
-56.8428
-60.0792
-36.6681
-39.6289
-34.9759
-30.1695
-37.428
-29.5071
-41.3712
-39.0699
-76.0708
-89.2892
-77.7904
-90.237
-99.1795
-43.0249
-43.8357
-49.1237
-67.5006
-62.2007
-55.0603
-70.4363
-70.2329
-50.4575
-37.7741
11.2571
-103.058
-99.8892
-89.2247
-45.0178
-99.5863
-91.4207
-37.4684
-100.287
-103.235
11.4667
-54.9963
-50.4109
-70.2787
-70.4586
-44.5006
-62.0288
-67.5745
-49.0872
-88.6264
-81.7523
-64.5185
-66.0277
-98.0356
-68.1195
-64.9833
-87.1652
-40.1029
-41.1194
-50.0492
-50.6032
-39.8111
-50.2017
-49.8516
-40.5865
-40.6523
-39.3258
-23.7944
-36.2476
-37.5855
3.23878
0.690782
-27.0894
-38.0185
-27.2211
0.633797
3.2209
-41.4945
-36.2925
-23.8179
-39.3114
97.0116
104.829
195.148
83.1723
38.1882
7.50432
174.398
95.9768
44.4296
96.8264
175.209
8.96666
80.6182
82.154
194.729
104.294
-35.8329
-33.8443
-34.4119
-39.53
-33.8635
-32.564
-31.4217
-29.883
-40.6872
-42.6639
-35.538
-34.1282
-49.0669
-41.8916
-37.8283
-45.4445
-35.6771
-39.5758
-34.4958
-33.5115
-49.0431
-45.4709
-37.975
-41.925
-40.7388
-34.2027
-35.7283
-42.7125
-33.2415
-31.9727
-31.5386
-32.7259
-37.7737
-39.2678
-36.8195
-35.0518
-37.4255
-34.8726
-36.834
-39.1674
-37.3301
-37.7251
-36.4316
-35.0915
-36.5538
-34.709
-36.3185
-37.5834
-82.5896
-68.0963
-96.279
-45.0396
-55.1373
-68.5611
-84.7055
-57.765
-55.1217
-57.7655
-84.7036
-68.558
-82.6553
-45.0569
-96.2789
-68.0985
-39.3774
-36.3475
-41.2628
-25.6626
-38.2601
-36.4512
-46.9875
-45.4428
-36.8991
-48.1049
-50.6179
-36.9139
-39.8889
-29.7658
-46.1532
-47.7784
-39.8685
-25.2354
-41.2049
-36.1989
-39.9526
-47.6996
-45.9403
-29.9251
-36.9192
-36.9522
-50.7232
-48.1243
-38.4168
-44.4658
-46.8243
-36.4936
-34.8398
-35.1526
-35.5467
-35.6683
-35.1959
-35.653
-35.5366
-35.2763
-35.9504
-32.643
-37.9256
-38.9839
-35.935
-40.1517
-38.1872
-32.6815
-52.4275
-47.078
-43.8971
-54.4777
-34.3917
-33.0736
-36.9605
-40.2792
-34.3974
-40.2771
-36.9488
-33.0841
-52.4112
-54.4728
-43.895
-47.0673
-33.5516
-27.0975
-24.1215
-31.7659
-33.5903
-31.7979
-24.1854
-27.1386
-32.4663
-28.6896
-26.1687
-32.3567
-32.4532
-32.3369
-26.2268
-28.665
-36.5314
-106.867
-76.0398
-33.0166
-34.8525
-33.9905
-5.45592
-31.0432
-50.6708
-33.5815
-32.9295
-35.2
-67.7378
-1.63585
-43.6731
-34.8153
-33.2371
-34.2313
-38.0394
-6.19549
-51.4443
-32.9504
-33.6012
-35.2169
-40.7387
-38.0119
-38.172
-40.0601
-39.3969
-35.8212
-38.9975
-40.1125
-57.0343
-53.9537
-55.6366
-68.8414
-45.6908
-43.001
-45.8793
-48.5721
-40.409
-39.5967
-37.4767
-37.7898
-39.2788
-40.3808
-38.9088
-39.2681
-56.9315
-68.6296
-53.881
-55.5988
-45.6742
-48.5505
-43.0179
-45.8598
27.1489
20.8486
24.8989
73.081
-84.2958
-82.8319
-80.6207
-61.5595
-63.7924
-54.4783
-67.0218
-57.5572
-33.0508
-33.0242
-34.394
-32.7104
-28.8476
-28.8587
-30.3004
-26.5717
-38.4852
-35.4851
-37.5551
-37.4847
-33.0268
-32.9333
-34.9503
-22.3254
-70.4501
-63.7167
-76.8806
-49.8791
-32.3885
-32.41
-33.0158
-29.8238
-47.2128
-49.8983
-50.6426
-46.0137
30.1323
22.0171
27.4015
74.114
-67.7545
-54.6883
-67.0777
-58.6475
-33.0637
-33.0348
-34.4125
-32.7164
-38.0272
-35.4229
-38.135
-36.9502
-70.6655
-63.8492
-76.9777
-50.1579
-47.1144
-49.8546
-50.6404
-45.9384
-33.1622
-32.9731
-31.8109
-34.0116
-44.2472
-44.8429
-47.1442
-42.2224
-41.3509
-41.3119
-42.086
-40.2522
-30.8526
-30.6739
-31.5951
-28.163
-40.0571
-40.1203
-38.4695
-38.0992
-50.325
-48.9411
-46.9747
-54.8616
-15.4121
-15.3864
-4.64958
-29.9515
-61.4533
-61.4519
-65.3782
-57.6509
-31.1763
-32.6937
-32.5862
-34.0591
-44.2017
-44.7831
-47.094
-42.2152
-30.7669
-30.7096
-31.5546
-28.2867
-50.3409
-48.9592
-46.978
-54.8638
-89.7353
-80.3105
-81.4699
-74.1022
-89.9297
-80.4275
-81.5523
-74.1165
-60.0167
-56.5579
-56.7004
-53.088
-15.9453
-9.52462
-9.53198
-2.29349
200.891
205.697
196.296
200.451
-33.4516
-34.8705
-33.6436
-35.0465
-33.5839
-35.0242
-33.8148
-35.2203
-36.4901
-36.7321
-36.4966
-36.5212
-95.5
-99.7679
-89.9699
-95.4966
-46.1779
-43.7717
-45.8566
-43.9571
-46.077
-43.6334
-45.7436
-43.8372
-37.0907
-36.5274
-36.5091
-35.9089
-38.0837
-39.9347
-39.9343
-41.7247
-21.202
-21.11
-21.8974
-21.2342
35.8936
34.1161
37.7978
76.0063
-89.5861
-85.2207
-85.8663
-26.2067
-108.472
-78.3578
-104.945
-82.3805
-33.3513
-33.2617
-35.3049
-33.1355
-33.0675
-30.235
-32.9176
-30.661
-41.4464
-47.1615
-49.6037
-43.2804
16.4458
19.6364
-9.23693
50.0895
-29.1378
-29.3217
-35.795
-19.9284
-58.9487
-62.1528
-63.334
-46.6809
-33.23
-33.0197
-34.5783
-32.6197
-32.5015
-32.3465
-32.5326
-31.1089
-39.1692
-43.2672
-42.5047
-38.9526
-87.127
-83.7128
-85.7396
44.9005
42.4128
38.0161
42.5592
75.6081
-117.545
-81.6231
-106.69
-86.2678
-33.1411
-30.2704
-32.8933
-30.7179
-33.4067
-33.2666
-35.3265
-33.1628
-42.0861
-43.2981
-50.1424
-42.3092
-31.5669
-29.0162
-36.1645
-17.7998
16.7025
20.4856
-9.17701
53.053
-59.391
-62.1564
-63.3119
-47.1302
-32.5065
-32.4064
-32.5406
-31.1183
-33.2512
-33.0405
-34.6047
-32.6317
-39.174
-43.2651
-42.5105
-38.9528
-42.8574
-48.317
-57.3765
-45.4956
-35.4115
-33.9116
-33.3588
-35.3091
-42.918
-43.9384
-46.6687
-41.5334
-41.7252
-41.1882
-41.7361
-39.3474
-35.1155
-34.8179
-35.0828
-34.8694
-33.5245
-33.4285
-33.151
-34.5484
-33.0874
-32.1668
-32.1891
-32.0309
-39.1933
-39.9282
-37.9929
-37.6203
-53.1026
-55.2211
-59.1609
-42.9237
-49.6078
-46.461
-49.5238
-46.299
-53.9467
-52.0793
-50.094
-60.8508
-24.8759
-13.6748
-8.23603
-26.5245
-46.9098
-49.0819
-44.4431
-50.0944
-37.6493
-34.4025
-36.8394
-35.7939
-46.4994
-47.5214
-44.1612
-50.1371
-57.4622
-60.3829
-62.3923
-56.9659
-42.4269
-48.2964
-56.6358
-44.5153
-41.5226
-41.0619
-42.0392
-39.2271
-35.0716
-33.2408
-32.8748
-35.0314
-42.8512
-43.9015
-46.633
-41.5342
-35.0889
-34.2565
-36.5994
-34.8508
-39.4164
-40.0973
-38.2858
-37.8699
-36.6413
-33.7557
-34.7355
-35.6505
-33.0618
-31.9446
-32.0595
-32.0377
-53.006
-55.3345
-59.0228
-43.2175
-25.0032
-13.6698
-8.26924
-26.6615
-49.543
-46.3868
-49.4577
-46.2583
-53.936
-52.0856
-50.0818
-60.8371
-46.9004
-49.0714
-44.4995
-50.1142
-57.4361
-60.361
-62.3875
-56.9529
-37.7505
-34.5527
-36.9519
-35.9391
-46.4927
-47.53
-44.1804
-50.141
-146.314
-121.245
-155.852
-161.031
136.026
189.294
161.596
163.127
-80.8459
-69.4947
-74.4569
-74.8351
132.141
192.052
177.14
178.619
-74.8442
-78.1238
-84.5381
-70.2771
-56.783
-56.5031
-60.4225
-53.0976
-38.3504
-49.5722
-49.7875
-46.6184
-30.5442
-26.0593
-28.3624
-28.6606
-35.0718
-39.6958
-38.9828
-39.283
-25.0175
-23.3477
-24.7592
-24.7876
-40.7472
-42.0586
-39.9688
-43.5566
-37.3143
-36.823
-36.2843
-37.9246
-37.0252
-27.8162
-33.2693
-33.2998
74.2829
164.904
138.315
138.322
-89.0024
-82.5104
-76.2415
-94.8229
-26.8176
-15.3415
-25.3882
-14.9843
-33.4611
-35.3998
-34.2366
-34.2382
-26.6999
-27.0509
-27.6433
-27.6743
-54.9035
-48.1302
-52.2542
-49.1466
-42.0354
-40.3248
-42.7477
-39.2739
-149.953
-121.535
-155.831
-161.226
136.587
188.727
162.764
160.362
-75.0151
-78.365
-85.0716
-70.3714
-57.7077
-57.0889
-61.2382
-53.6827
-38.3542
-49.6669
-46.5936
-49.8466
-30.5814
-26.1169
-28.4203
-28.7049
-40.5567
-41.8611
-40.0287
-43.2863
-36.9528
-36.6061
-36.2318
-37.5899
-88.9957
-82.593
-94.839
-76.3643
-26.8902
-15.389
-15.0469
-25.4471
-55.1064
-48.1014
-48.2148
-52.4219
-42.0335
-40.3234
-39.2736
-42.781
-30.3287
-31.786
-33.0962
-28.6987
-35.2945
-36.0418
-35.8888
-35.6386
-51.9667
-63.8293
-59.5234
-57.8423
-38.8183
-36.5501
-37.0423
-38.2827
-41.6706
-47.2676
-44.39
-44.3883
-38.5764
-37.4104
-37.9119
-37.894
-32.8489
-32.7165
-31.3533
-33.3663
-23.9534
-41.4112
-35.5047
-30.1741
-37.283
-36.6832
-36.9212
-36.8512
-35.0171
-35.173
-34.9392
-34.9799
-41.5624
-38.3702
-39.4492
-40.6007
-74.6582
-91.6179
-88.6498
-79.9678
9.80052
9.89597
10.2105
10.2017
-82.2695
-97.1948
-98.3372
-98.4061
-73.1817
-82.1404
-76.9383
-76.9353
-51.4966
-45.9527
-48.6765
-48.6749
-30.545
-31.8637
-33.1239
-28.804
-35.4178
-36.1437
-35.9442
-35.849
-51.9276
-63.9427
-57.8361
-59.479
-38.9165
-36.6885
-37.151
-38.4087
-32.8842
-32.9194
-33.5301
-31.703
-23.7846
-41.3518
-35.3449
-30.0831
-41.6325
-38.5055
-40.6915
-39.5616
-74.5882
-91.5862
-79.946
-88.6306
-171.862
-140.494
-148.106
-108.646
-59.6358
-54.4854
-62.7235
-60.3203
-59.2379
-54.6714
-62.8134
-57.1294
-27.9536
-79.7403
-145.354
-128.716
-172.467
-140.894
-148.418
-109.428
-28.5799
-80.3003
-146.24
-128.392
-59.2302
-54.6337
-62.7887
-57.096
-59.4592
-54.5407
-62.6432
-60.2275
-80.1895
-76.5966
-74.8115
-70.0961
-85.0189
-78.7396
-76.1044
-71.1007
-44.8399
-42.0197
-47.4033
-44.5433
-44.4591
-41.7301
-47.208
-44.3327
-38.1777
-39.8158
-35.1166
-33.2247
-9.02556
-0.604142
-5.568
4.44355
-9.14413
-0.64656
-5.63416
4.40418
-38.4811
-40.0067
-35.2537
-33.3183
136.032
149.655
153.214
173.555
101.677
93.3989
149.425
147.402
89.3799
97.8898
146.672
150.078
139.957
141.955
165.985
152.559
-36.3504
-37.8519
-35.3202
-36.4001
-31.2393
-32.2876
-28.6761
-25.8851
-37.7135
-39.3183
-36.5622
-38.5106
-43.8373
-44.743
-41.1656
-42.0516
-36.4261
-37.9318
-35.424
-36.4717
-43.8695
-44.7769
-41.2416
-42.1189
-37.8282
-39.4106
-36.7196
-38.6304
-30.5314
-32.193
-29.0911
-25.8912
-36.6165
-37.6999
-36.5545
-37.4543
-37.6215
-36.531
-37.4158
-36.5309
-36.9876
-36.3849
-36.7091
-36.2844
-35.8583
-36.6088
-35.9511
-36.466
-89.401
-72.2957
-92.2777
-93.7192
-63.8553
-68.4528
-73.7675
-73.6597
-68.4303
-63.8489
-73.6512
-73.7657
-72.4323
-89.1747
-94.5007
-92.2728
-36.188
-35.2918
-37.5839
-36.8686
-42.3216
-49.9056
-49.0767
-49.1335
-39.6228
-42.632
-42.4982
-50.095
-39.4574
-36.3188
-40.3974
-33.628
-36.0992
-35.1171
-37.7389
-36.9951
-39.6997
-36.4772
-40.6616
-33.7528
-39.6673
-42.6733
-42.5526
-50.1898
-42.37
-50.5173
-49.0778
-49.1055
-34.9595
-34.9406
-35.2543
-34.9188
-35.4625
-35.2283
-35.5789
-35.1454
-36.6672
-40.5257
-39.8886
-40.3208
-36.8326
-41.4725
-40.3354
-41.5083
-49.7913
-51.71
-46.9898
-48.8379
-34.1376
-35.9078
-34.7242
-36.3004
-34.1429
-35.9118
-34.7248
-36.3067
-49.7857
-51.7016
-46.984
-48.833
-30.6633
-29.8019
-29.1994
-27.6609
-29.8536
-30.7201
-27.7055
-29.247
-30.3811
-31.2745
-29.4874
-30.0162
-31.2695
-30.3724
-30.0095
-29.463
11.1072
97.4409
-88.4675
16.0662
-94.4047
-97.4138
-35.1995
-33.3946
-35.08
-34.0273
-37.8297
-36.8009
-28.9523
24.9691
-40.1206
13.7155
-46.6934
-47.9448
-34.9834
-32.6329
-33.1786
-32.4918
-37.0585
-35.549
-93.0113
30.8529
10.7468
76.6307
-102.411
-107.994
-35.1342
-34.0984
-35.3047
-33.3889
-38.1176
-36.9824
-41.6916
39.3429
-29.1478
35.8702
-46.6402
-49.1104
-33.1984
-32.5022
-35.0026
-32.6454
-37.0731
-35.5594
-40.7242
-39.3714
-35.4623
-37.5233
-43.9019
-37.0325
-40.2151
-38.944
-38.0187
-34.9284
-34.8772
-35.9416
-35.1512
-37.5829
-37.6126
-37.7851
-55.8668
-55.8795
-53.1657
-50.2489
-51.7352
-64.6776
-47.3898
-74.4367
-43.3149
-48.2191
-40.3103
-39.9629
-43.3839
-49.134
-54.3683
-52.8584
-41.4362
-40.0539
-39.6233
-38.6158
-35.1638
-36.8908
-43.4538
-36.8307
-38.603
-35.2841
-38.2472
-38.0668
-35.9445
-37.0301
-34.9469
-38.3003
-55.8946
-55.9293
-47.5628
-74.5319
-53.1004
-50.1948
-51.6964
-64.6402
-43.3396
-48.176
-54.3489
-52.8437
-40.3648
-40.019
-43.3977
-49.127
39.8949
70.1276
9.39661
64.5351
-22.1823
19.2053
109.047
101.56
-79.8947
-16.7677
-80.8453
-22.7129
-84.2605
-85.6236
58.8738
75.819
-84.3497
-67.1691
-57.5973
-50.5251
-79.0101
-65.8859
-61.2083
-53.4534
-34.407
-32.7737
-34.4266
-32.6711
-36.6205
-36.7806
-31.9895
-32.186
-30.9205
-27.9394
-30.8914
-27.9808
-32.2752
-32.2922
-26.1393
-26.1639
-46.2226
-41.2253
-35.0433
-35.3629
-37.9255
-42.5202
-36.4352
-38.6672
-36.782
-23.4375
-36.7891
-23.1677
-37.3972
-37.3673
0.803044
1.79306
-78.4596
-47.6647
-67.4095
-44.3468
-77.4215
-98.5757
-38.2869
-30.5673
-32.8257
-29.7705
-32.867
-29.7897
-33.1012
-33.1137
-28.3739
-28.2979
-47.1291
-42.1548
-48.4029
-48.5155
-50.2107
-51.0029
-45.4921
-41.8528
40.0597
70.2392
9.98753
66.1811
-24.9095
19.1294
104.09
109.86
-86.0028
-70.485
-57.3269
-50.7971
-80.1369
-65.9188
-62.759
-54.1099
-34.4208
-32.7959
-34.454
-32.6784
-36.8237
-36.6607
-32.0174
-32.2096
-43.7276
-39.5836
-34.9706
-35.3441
-37.533
-41.9152
-36.2266
-37.9011
-78.689
-47.5249
-67.4633
-44.5452
-98.5472
-77.4876
-30.6737
-38.3495
-47.1466
-42.1505
-48.374
-48.4872
-50.9124
-50.2186
-41.8478
-45.458
-32.3125
-34.1288
-32.1953
-33.9501
-32.6877
-30.1278
-34.8515
-34.6427
-46.7598
-41.5433
-47.7267
-43.5062
-49.4671
-50.0001
-39.8991
-40.8994
-41.2813
-40.231
-42.0894
-40.116
-41.223
-41.0661
-39.3763
-39.3354
-29.5545
-30.2535
-33.4186
-31.0195
-33.8381
-32.7277
-22.7081
-26.486
-38.2703
-38.0203
-38.3999
-38.1015
-37.7647
-37.6941
-35.2261
-35.2848
-48.4488
-57.7643
-45.3578
-52.1269
-43.2501
-44.7268
-65.3854
-59.7006
-3.21484
-25.7035
-3.36426
-26.1863
4.4449
4.49909
-47.2885
-47.3638
-64.8143
-57.7141
-64.8038
-57.7171
-69.0938
-69.0922
-54.4595
-54.4577
-31.6693
-33.8054
-33.5734
-34.5936
-33.0087
-31.9647
-34.6837
-34.8569
-46.7084
-41.5452
-47.6673
-43.4795
-49.9511
-49.4348
-39.9466
-40.9443
-29.0512
-30.1335
-33.4927
-31.1344
-32.7759
-33.0834
-22.5536
-26.5593
-48.4501
-57.7752
-45.382
-52.1363
-44.7594
-43.2986
-59.6986
-65.3756
-100.505
-101.968
-87.5803
-72.6839
-74.7394
-90.6813
-68.2237
-69.0447
-100.818
-102.173
-87.882
-72.8007
-90.8078
-74.8317
-69.157
-68.2869
-64.582
-64.7878
-60.2556
-52.9983
-60.6457
-53.2596
-50.0124
-49.9355
-22.2425
-22.2596
-18.3135
-5.609
-5.63567
-18.3319
3.32742
3.308
199.343
191.287
198.705