# vtk DataFile Version 2.0
tet_velo
ASCII
DATASET UNSTRUCTURED_GRID
POINTS 29498 float
-0.733118 0.225 -1.945
-0.673393 0.345 2.065
-0.715 0.505 -2.02008
-0.625 0.905 2.04737
0.733057 0.225 -1.945
0.673504 0.345 2.065
0.715 0.505 -2.02002
0.625 0.905 2.04744
-0.753223 0.224986 -0.608333
-0.766389 0.231913 0.728333
-0.836245 0.789578 -0.664264
-0.77938 0.896047 0.691553
0.753221 0.224985 -0.608333
0.766445 0.23191 0.728333
0.836222 0.789555 -0.6642
0.779357 0.896023 0.69162
-1.5132 -0.125578 -2.99538
-1.50986 -0.033301 -1.91837
-1.51831 -0.0290756 -0.582199
-1.49835 -0.0414621 0.750118
-1.42899 0.0293003 2.08596
-1.41307 0.0942543 3.16138
-1.42344 0.154815 4.23974
-1.51111 0.0915667 -3.02602
-1.5127 0.214776 -1.94692
-1.53376 0.252975 -0.607024
-1.49827 0.253568 0.731149
-1.39149 0.323501 2.07068
-1.38896 0.387146 3.14637
-1.4122 0.446845 4.2241
-1.50594 0.47648 -3.09268
-1.51531 0.596168 -2.01439
-1.58569 0.802573 -0.661441
-1.51369 0.885274 0.692868
-1.37007 0.912345 2.04545
-1.37953 0.971471 3.12036
-1.41295 1.03396 4.19501
-1.50509 1.234 -3.17828
-1.51508 1.37507 -2.09711
-1.54433 1.59403 -0.73795
-1.53985 1.75422 0.62534
-1.49972 1.83255 1.98431
-1.47667 1.87938 3.06507
-1.47181 1.93087 4.14181
-0.756589 -0.121165 -2.99413
-0.743343 -0.0241962 -1.91656
-0.751476 -0.0420622 -0.582428
-0.759835 -0.0577056 0.747709
-0.718094 0.0361758 2.08174
-0.706037 0.0984493 3.15852
-0.712653 0.155237 4.23809
-0.755183 0.0855186 -3.02562
-0.689181 0.39277 3.14402
-0.705862 0.447498 4.22286
-0.747059 0.436771 -3.09503
-0.680456 0.969863 3.12076
-0.708377 1.03277 4.19512
-0.736517 1.20715 -3.1806
-0.738737 1.34996 -2.09967
-0.771882 1.58751 -0.739482
-0.791137 1.75923 0.62555
-0.775498 1.83527 1.98566
-0.758953 1.87961 3.06642
-0.753489 1.93042 4.1428
0.738796 -0.121168 -2.99411
0.74666 -0.0241984 -1.91655
0.759799 -0.0420649 -0.582423
0.74941 -0.057709 0.747715
0.687518 0.036174 2.08175
0.688992 0.0984467 3.15854
0.698071 0.155233 4.23812
0.73004 0.0855155 -3.0256
0.677357 0.392768 3.14404
0.691273 0.447494 4.22289
0.733102 0.436767 -3.09499
0.659266 0.969861 3.12081
0.680748 1.03276 4.19515
0.789128 1.20714 -3.18055
0.801509 1.34995 -2.09962
0.78459 1.5875 -0.739432
0.72672 1.75921 0.625602
0.677744 1.83526 1.98571
0.671634 1.8796 3.06647
0.678215 1.93042 4.14284
1.49621 -0.125588 -2.99533
1.50698 -0.0333103 -1.91834
1.52386 -0.0290865 -0.58217
1.50156 -0.0414725 0.750148
1.42468 0.0292939 2.086
1.40794 0.0942476 3.16142
1.41505 0.154806 4.23979
1.48954 0.0915572 -3.02597
1.50508 0.214766 -1.94688
1.53441 0.252961 -0.606986
1.50927 0.253555 0.731189
1.40581 0.323496 2.07072
1.39055 0.38714 3.14642
1.40419 0.446836 4.22416
1.49627 0.476468 -3.09261
1.51437 0.596153 -2.01431
1.58696 0.802543 -0.661351
1.51976 0.885245 0.692962
1.3779 0.912336 2.04555
1.3703 0.971463 3.12045
1.39177 1.03395 4.19509
1.54978 1.23398 -3.17819
1.56404 1.37504 -2.09702
1.55381 1.594 -0.737855
1.49029 1.7542 0.625438
1.42184 1.83253 1.9844
1.40176 1.87936 3.06516
1.40339 1.93086 4.14189
-0.72867 0.365 -1.98715
-3.04878e-05 0.221341 -1.94866
-0.744481 0.223683 -1.27667
-0.696465 0.625 2.10345
5.54919e-05 0.330554 2.07945
-0.704111 0.304236 1.39667
0 0.601647 -2.1167
-0.848832 0.720499 -1.34217
0 0.952599 2.095
-0.735693 0.934026 1.36946
0.728613 0.365 -1.98709
0.744449 0.223683 -1.27667
0.696499 0.625 2.10347
0.704189 0.30424 1.39667
0.848811 0.720478 -1.34211
0.735718 0.934051 1.36953
-0.757761 0.230495 0.06
-0.888793 0.507282 -0.636299
-1.40378e-06 0.22145 -0.608333
-0.887972 0.56398 0.709943
2.82439e-05 0.229428 0.728333
-0.814831 0.849831 0.0136449
-1.16641e-05 0.939897 -0.664232
-1.16641e-05 1.27115 0.691587
0.757787 0.230494 0.06
0.888762 0.50727 -0.636267
0.888009 0.563967 0.709977
0.814876 0.849876 0.01371
-0.884258 0.436141 -1.30942
-0.893963 0.535631 0.0368225
-0.882183 0.59449 1.38306
-1.59458e-05 0.220955 -1.27667
1.34201e-05 0.228648 0.06
4.18679e-05 0.278814 1.39667
-1.52439e-05 0.365 -2.14714
2.7746e-05 0.625 2.18067
-5.83207e-06 0.81409 -1.34214
-1.16641e-05 1.25106 0.0136775
-5.83207e-06 1.09482 1.3695
0.884261 0.436135 -1.30939
0.893965 0.535618 0.036855
0.882182 0.594483 1.3831
-1.12291 0.219888 -1.94596
-0.738231 0.100402 -1.93078
-0.744151 0.155259 -2.48531
-1.03244 0.334251 2.06784
-0.695744 0.190588 2.07337
-0.681287 0.368885 2.60451
-1.11515 0.550584 -2.01724
-0.731029 0.470885 -2.55756
-0.726869 0.92748 -2.05987
-0.997537 0.908673 2.04641
-0.652728 0.937432 2.58407
-0.700249 1.37013 2.01652
0.739859 0.100401 -1.93077
0.731549 0.155258 -2.4853
1.11907 0.219883 -1.94594
0.680511 0.190587 2.07338
0.67543 0.368884 2.60452
1.03966 0.334248 2.06786
0.724051 0.470884 -2.55751
0.758254 0.927474 -2.05982
1.11469 0.550577 -2.01716
0.642133 0.93743 2.58413
0.651372 1.37013 2.01658
1.00145 0.908668 2.0465
-1.14349 0.238981 -0.607679
-0.75235 0.091462 -0.595381
-1.13233 0.24274 0.729741
-0.763112 0.0871036 0.738021
-1.21097 0.796076 -0.662852
-0.804063 1.18855 -0.701873
-1.14654 0.89066 0.692211
-0.785259 1.32764 0.658552
0.75651 0.0914602 -0.595378
1.14381 0.238973 -0.60766
0.757927 0.0871005 0.738024
1.13786 0.242732 0.729761
0.810406 1.18853 -0.701816
1.21159 0.796049 -0.662775
0.753038 1.32762 0.658611
1.14956 0.890634 0.692291
-1.51153 -0.0794397 -2.45687
-1.51215 -0.0170058 -3.0107
-1.13489 -0.123371 -2.99475
-1.51408 -0.0311883 -1.25028
-1.51128 0.0907376 -1.93265
-1.1266 -0.0287486 -1.91746
-1.50833 -0.0352689 0.0839592
-1.52603 0.11195 -0.594612
-1.13489 -0.0355689 -0.582314
-1.46367 -0.0060809 1.41804
-1.49831 0.106053 0.740633
-1.12909 -0.0495839 0.748913
-1.42103 0.0617773 2.62367
-1.41024 0.176401 2.07832
-1.07354 0.0327381 2.08385
-1.41826 0.124535 3.70056
-1.40102 0.2407 3.15387
-1.05956 0.0963518 3.15995
-1.41782 0.30083 4.23192
-1.06805 0.155026 4.23891
-1.51191 0.153172 -2.48647
-1.50852 0.284023 -3.05935
-1.13315 0.0885427 -3.02582
-1.52323 0.233876 -1.27697
-1.51401 0.405472 -1.98066
-1.51601 0.253271 0.0620626
-1.55972 0.527774 -0.634233
-1.44488 0.288534 1.40091
-1.50598 0.569421 0.712008
-1.39023 0.355323 2.60852
-1.38078 0.617923 2.05807
-1.40058 0.416995 3.68523
-1.38424 0.679308 3.13336
-1.03907 0.389958 3.14519
-1.41258 0.740401 4.20956
-1.05903 0.447171 4.22348
-1.51062 0.536324 -2.55354
-1.50551 0.855241 -3.13548
-1.1265 0.456625 -3.09386
-1.5505 0.699371 -1.33792
-1.51519 0.985618 -2.05575
-1.54969 0.843923 0.0157131
-1.56501 1.1983 -0.699696
-1.44188 0.89881 1.36916
-1.52677 1.31975 0.659104
-1.3748 0.941908 2.58291
-1.4349 1.37245 2.01488
-1.39624 1.00271 3.65769
-1.4281 1.42543 3.09271
-1.02999 0.970667 3.12056
-1.44238 1.48241 4.16841
-1.06066 1.03336 4.19506
-1.51008 1.30453 -2.63769
-1.1208 1.22057 -3.17944
-1.5297 1.48455 -1.41753
-1.12691 1.36251 -2.09839
-1.54209 1.67413 -0.0563047
-1.1581 1.59077 -0.738716
-1.51978 1.79339 1.30482
-1.16549 1.75672 0.625445
-1.48819 1.85596 2.52469
-1.13761 1.83391 1.98498
-1.47424 1.90513 3.60344
-1.11781 1.8795 3.06574
-1.11265 1.93065 4.1423
-0.749966 -0.0726804 -2.45534
-0.755886 -0.017823 -3.00987
-0.00889637 -0.121166 -2.99412
-0.74741 -0.0331292 -1.24949
0.00165856 -0.0241973 -1.91655
-0.755655 -0.0498839 0.0826404
0.00416127 -0.0420636 -0.582426
-0.738964 -0.0107649 1.41473
-0.00521244 -0.0577073 0.747712
-0.712065 0.0673126 2.62013
-0.0152881 0.0361749 2.08175
-0.709345 0.126843 3.6983
-0.697609 0.245609 3.15127
-0.0085225 0.098448 3.15853
-0.709258 0.301367 4.23048
-0.00729113 0.155235 4.2381
-0.751121 0.261145 -3.06032
-0.0125715 0.085517 -3.02561
-0.697521 0.420134 3.68344
-0.684818 0.681316 3.13239
-0.00591198 0.392769 3.14403
-0.70712 0.740133 4.20899
-0.00729443 0.447496 4.22288
-0.741788 0.821958 -3.13781
-0.00697859 0.436769 -3.09501
-0.694417 1.00132 3.65794
-0.719705 1.42474 3.09359
-0.0105955 0.969862 3.12079
-0.730933 1.4816 4.16896
-0.0138147 1.03277 4.19514
-0.737627 1.27855 -2.64013
0.026305 1.20714 -3.18057
-0.755309 1.46874 -1.41957
0.0313857 1.34995 -2.09964
-0.781509 1.67337 -0.0569659
0.00635407 1.58751 -0.739457
-0.783318 1.79725 1.30561
-0.0322089 1.75922 0.625576
-0.767225 1.85744 2.52604
-0.0488769 1.83526 1.98569
-0.756221 1.90502 3.60461
-0.0436597 1.87961 3.06644
-0.0376367 1.93042 4.14282
0.742728 -0.0726833 -2.45533
0.734418 -0.0178264 -3.00985
1.1175 -0.123378 -2.99472
0.75323 -0.0331316 -1.24949
1.12682 -0.0287544 -1.91744
0.754604 -0.049887 0.0826461
1.14183 -0.0355757 -0.582296
0.718464 -0.0107675 1.41473
1.12548 -0.0495907 0.748931
0.688255 0.0673104 2.62015
1.0561 0.032734 2.08387
0.693531 0.12684 3.69833
0.683174 0.245607 3.15129
1.04847 0.0963471 3.15998
0.694672 0.301364 4.2305
1.05656 0.15502 4.23895
0.731571 0.261141 -3.06029
1.10979 0.0885363 -3.02578
0.684315 0.420131 3.68347
0.668311 0.681314 3.13243
1.03395 0.389954 3.14523
0.686011 0.740129 4.20902
1.04773 0.447165 4.22353
0.761115 0.821952 -3.13777
1.11469 0.456618 -3.0938
0.670007 1.00131 3.65798
0.66545 1.42473 3.09364
1.01478 0.970662 3.12063
0.679482 1.48159 4.169
1.03626 1.03336 4.19512
0.795318 1.27854 -2.64009
1.16945 1.22056 -3.17937
0.793049 1.46872 -1.41953
1.18278 1.3625 -2.09832
0.755655 1.67336 -0.0569154
1.1692 1.59075 -0.738644
0.702232 1.79723 1.30566
1.10851 1.7567 0.62552
0.674689 1.85743 2.52609
1.04979 1.83389 1.98506
0.674925 1.90501 3.60465
1.0367 1.87948 3.06581
1.0408 1.93064 4.14237
1.50159 -0.0794494 -2.45684
1.49287 -0.0170156 -3.01065
1.51542 -0.0311984 -1.25025
1.50603 0.090728 -1.93261
1.51271 -0.0352795 0.0839889
1.52913 0.111937 -0.594578
1.46312 -0.00608927 1.41807
1.50542 0.106041 0.740668
1.41631 0.0617707 2.62371
1.41524 0.176395 2.07836
1.4115 0.124527 3.70061
1.39925 0.240694 3.15392
1.40962 0.300821 4.23198
1.49731 0.153162 -2.48643
1.49291 0.284013 -3.05929
1.51974 0.233864 -1.27694
1.50972 0.40546 -1.98059
1.52184 0.253258 0.0621011
1.56069 0.527752 -0.634169
1.45754 0.288526 1.40096
1.51452 0.5694 0.712075
1.39818 0.355318 2.60857
1.39186 0.617916 2.05814
1.39737 0.416988 3.68529
1.38043 0.679302 3.13343
1.39798 0.740392 4.20962
1.50532 0.536311 -2.55346
1.52303 0.855226 -3.1354
1.55067 0.699348 -1.33783
[...]
POINT_DATA 29498
VECTORS point_vectors float
-0.281195 -0.459254 1.19859
0.0526181 0.191472 0.857145
-3.26722 1.19625 3.73749
-0.0830871 -0.139577 0.172086
0.280801 -0.458907 1.19868
-0.0529862 0.191251 0.857088
3.25792 1.19326 3.73045
0.0834836 -0.139607 0.172343
0.000605056 -2.23862e-05 0.0130737
0.00116994 0.00110462 0.0873928
-0.13883 -0.128156 0.442105
0 0 0
-0.000604616 -1.3515e-05 0.0128003
-0.00140392 0.00100732 0.0831761
0.136316 -0.127129 0.435372
0 0 0
-0.552294 -0.254439 19.8621
-1.16755 -0.653099 20.4553
-0.428582 -0.485939 21.2064
0.169479 -0.172609 21.392
0.835114 0.17588 21.2564
1.0453 0.142308 20.9796
0.871024 0.0204684 20.6352
-0.61757 -0.189934 19.7862
-1.49364 -0.525746 20.3613
-0.608481 -0.563035 21.2591
0.154299 -0.317829 21.5221
1.06282 -0.0822198 21.3205
1.22489 -0.0761425 20.8612
0.980984 -0.134286 20.6686
-0.601851 -0.0464719 19.715
-1.62989 -0.0588352 20.1694
-1.13026 -0.325308 21.1578
-0.265894 -0.410413 21.5793
0.673935 -0.712594 21.3216
0.900455 -0.745927 21.0112
0.565377 -0.548841 20.4474
-0.462346 0.194532 19.8098
-0.992822 0.49532 20.0799
-1.0026 0.388876 20.8708
-0.442014 -0.00464556 21.3456
0.0432279 -0.340799 21.1678
0.242254 -0.436065 20.9898
0.255374 -0.547474 20.6498
-0.582882 -0.602538 19.3113
-1.89233 -3.47787 21.1542
0.00254297 -0.218605 20.389
0.26441 0.290546 19.6943
0.643524 1.34618 17.9038
1.14009 1.62265 18.0345
0.99153 1.02446 17.6409
-0.660189 -0.457717 19.1175
1.78105 1.3332 10.2354
1.864 0.835145 13.7072
-0.684205 -0.0962911 18.9988
0.913531 -0.865354 8.63227
0.898827 -0.862326 13.1918
-0.442505 0.421337 19.3585
-1.26649 1.74274 19.5211
-1.53063 1.68609 20.672
-0.691845 0.421157 21.8437
-0.102894 -0.405573 21.2903
0.0707278 -0.631096 21.0449
0.00405769 -0.426887 20.9041
0.575115 -0.610658 19.296
1.90328 -3.46685 21.1517
-0.00540418 -0.221302 20.4258
-0.259673 0.292268 19.638
-0.583231 1.34843 17.6325
-1.11105 1.62185 17.9844
-0.971389 1.05465 17.5932
0.642061 -0.473766 19.0853
-1.73833 1.32455 9.91202
-1.87872 0.885235 13.3847
0.673954 -0.0948027 18.9834
-0.88017 -0.84284 7.92539
-0.881213 -0.84564 12.5056
0.462083 0.40148 19.4041
1.29127 1.63654 19.5722
1.53509 1.65551 20.6781
0.683975 0.491929 21.9048
0.123273 -0.389262 21.314
-0.0496486 -0.618238 20.9547
-0.0410646 -0.419904 21.055
0.557706 -0.262423 19.8512
1.17047 -0.659741 20.4569
0.433144 -0.484137 21.1986
-0.164907 -0.175557 21.3859
-0.836273 0.180513 21.2597
-1.04661 0.148341 20.9716
-0.874405 0.0307353 20.6652
0.62319 -0.196059 19.7694
1.5104 -0.538135 20.3608
0.60892 -0.561306 21.258
-0.150258 -0.313932 21.5077
-1.04137 -0.0882632 21.3149
-1.22012 -0.0770792 20.8606
-0.992583 -0.141476 20.6546
0.608265 -0.0496118 19.7064
1.63531 -0.059171 20.1672
1.12771 -0.324186 21.1562
0.262096 -0.402403 21.5729
-0.665191 -0.703485 21.3217
-0.908514 -0.760606 21.0074
-0.595578 -0.585182 20.3779
0.459007 0.187866 19.8285
0.960159 0.460686 20.1096
0.995962 0.382409 20.8695
0.455086 0.0108651 21.3783
-0.0328405 -0.355623 21.1855
-0.194237 -0.471832 20.9547
-0.205644 -0.502195 20.6892
-0.141201 -0.0187823 0.230038
6.23715e-08 -0.000239516 0.00167048
-0.000123583 0.000962307 0.140539
-0.00554328 -0.0939975 0.0977368
-0.000148643 0.0478525 0.15075
0 0 0
6.99277e-05 0.549242 0.718102
-0.0841645 -0.0404726 0.286161
-0.0010487 0.129788 -0.132868
5.4807e-05 2.65498e-05 0.000364757
0.14057 -0.018821 0.228571
0.000192512 0.000968036 0.14008
0.00567543 -0.0940348 0.0975647
0 0 0
0.0852597 -0.0410638 0.288879
-5.14636e-05 2.50729e-05 0.000342027
0.000518691 7.55562e-05 0.0237361
-0.000222282 -0.00459706 0.0659803
-1.9279e-09 1.04063e-07 3.39238e-05
0 0 0
8.35974e-07 5.26295e-05 0.0215122
0 0 0
-1.63303e-05 0.00737301 0.0187194
1.86861e-06 -0.00216823 0.0385402
-0.000475525 6.69078e-05 0.021523
0.000225106 -0.00454813 0.0661972
0 0 0
0 0 0
0 0 0
-1.25231e-05 0.000404767 0.00378389
0 0 0
-1.24178e-10 3.24794e-08 7.46842e-06
1.03132e-10 -5.96344e-09 -1.17151e-06
-3.09308e-08 -6.9462e-06 -6.69155e-05
0 0 0
-0.000591736 -0.0468129 0.015148
0 0 0
-2.03469e-05 0.0527035 0.229276
9.07843e-06 0.000111754 -0.00038099
0 0 0
1.31396e-05 0.000426734 0.00398404
0 0 0
-2.90513 -1.44367 20.235
-2.95376 -5.3389 21.683
-1.86239 -1.52818 18.1145
1.5568 0.643892 16.8694
0.397335 1.29131 11.2852
1.10259 0.98905 6.96316
-3.54869 0.0138259 19.568
-1.95851 -0.190577 17.5614
-2.92866 3.10007 18.6098
1.07098 -0.644196 16.2997
-0.088238 -0.771342 4.73321
0.0623812 -0.734041 18.3928
2.97368 -5.32382 21.6697
1.86175 -1.56558 18.0652
2.93133 -1.46879 20.2289
-0.343004 1.24566 10.959
-1.07374 0.970715 6.7713
-1.55215 0.61394 17.1031
1.96056 -0.193315 17.5248
2.97131 2.89723 18.6846
3.55921 0.0151824 19.5702
0.157529 -0.76572 4.34419
-0.0646144 -0.703974 17.4857
-1.07172 -0.647039 16.4914
-0.306096 -0.987225 20.9594
0.241916 0.0408003 13.6633
0.406839 -0.230623 19.6591
0.273745 0.261147 14.0616
-1.89458 -0.803364 21.307
-3.1939 1.83868 20.5713
-0.409333 -0.744288 20.411
-1.0214 0.0868354 20.7859
-0.238503 0.0400753 13.7618
0.308198 -0.986831 20.9611
-0.279768 0.255083 13.9699
-0.40143 -0.245752 19.7956
3.18686 1.79521 20.5875
1.89232 -0.801904 21.3087
0.92608 0.130966 20.1226
0.414965 -0.751639 20.4846
-0.895604 -0.458334 20.0115
-0.598592 -0.233581 19.8268
-0.60776 -0.399685 19.6313
-0.838754 -0.610998 21.0379
-1.34708 -0.605348 20.4124
-1.79899 -1.5251 20.5277
-0.132541 -0.349686 21.3376
-0.520192 -0.526716 21.2323
-0.181595 -0.615472 21.4548
0.505017 0.00910649 21.4031
0.167175 -0.24771 21.4556
0.363044 -0.0521601 21.4781
0.996728 0.219521 21.0645
0.954773 0.073939 21.2783
1.12279 0.701687 20.8225
1.13445 0.0770648 20.4897
1.13487 0.0411243 20.9372
1.32206 0.678211 20.263
0.872959 -0.0302417 20.7793
0.92277 0.355193 20.3322
-1.08321 -0.345759 19.8793
-0.607372 -0.118211 19.75
-0.678932 -0.331116 19.5135
-1.11679 -0.602497 21.0797
-1.59991 -0.320272 20.2607
-0.242451 -0.468995 21.3998
-0.885122 -0.507369 21.2197
0.601062 -0.195727 21.527
-0.0443558 -0.445727 21.5854
1.19225 -0.0658924 21.1158
1.0066 -0.473664 21.3309
1.29094 -0.204949 20.4978
1.14889 -0.523531 20.8655
1.8902 0.394889 18.3059
0.842079 -0.504895 20.3431
1.49367 -0.0426501 19.3242
-1.10532 -0.0470606 19.7555
-0.5541 0.101238 19.7537
-0.708055 -0.0619888 19.4007
-1.50057 -0.189561 20.8663
-1.39208 0.356101 20.0806
-0.767675 -0.391369 21.4317
-1.2163 0.0946888 21.0001
0.251971 -0.536626 21.58
-0.448689 -0.222902 21.4869
0.781473 -0.747156 21.1471
0.224526 -0.541414 21.2481
0.832081 -0.674385 20.5278
0.422193 -0.620593 20.9554
1.15652 -0.935604 18.764
0.370127 -0.642509 20.6
0.991767 -1.15413 19.2989
-0.723938 0.358124 19.8562
-0.489529 0.303798 19.5838
-1.06418 0.49177 20.5205
-1.24878 0.995225 19.8515
-0.795166 0.213265 21.1916
-1.36322 0.859503 20.8467
-0.151267 -0.194043 21.3143
-0.586607 0.142973 21.5701
0.162775 -0.417716 21.0283
-0.00842933 -0.402984 21.2427
0.187815 -0.348832 20.7756
0.147023 -0.563338 20.8255
0.000893986 -0.344063 20.854
-1.34533 -1.69648 19.014
-0.624901 -0.552411 19.2254
-0.0109414 -0.844099 18.9444
-0.4076 -0.920873 21.6842
0.0046399 -4.38776 22.4041
0.167115 -0.0160872 19.7653
0.00103574 -0.266436 18.3718
0.500273 0.886099 18.7322
0.00121457 0.140523 17.4
0.810473 1.53486 17.7089
0.000746308 0.928027 15.0117
1.26455 1.27324 17.0143
1.47836 1.76858 14.1427
-0.00524784 1.47434 14.7193
1.55461 1.00458 14.5175
0.0277941 1.60942 16.0038
-0.671759 -0.30586 19.0095
-0.022262 -0.669045 18.6241
2.01044 1.11545 12.0472
1.84923 -0.0570186 7.5609
0.00573916 0.603103 3.10516
1.65765 0.205045 13.0457
0.0282027 1.56116 7.35296
-0.570807 0.250383 19.1031
-0.00541433 -0.123689 18.4827
0.891104 -0.875344 11.0287
0.198555 -1.0711 19.7698
0.0855144 1.63624 -6.2974
0.0331665 -0.892099 20.2269
0.00157101 0.304841 -2.71509
-0.817497 0.976145 19.1837
0.0135821 0.548015 19.1177
-1.3623 1.76299 20.3012
0.0594021 2.63287 19.2086
-1.43943 1.38237 21.5949
0.01535 2.8819 20.2713
-0.267842 -0.159957 21.5926
-0.0518711 1.01075 22.265
-0.0414893 -0.503297 21.1899
-0.0238783 -0.193405 21.5074
0.0922934 -0.638202 20.6571
-0.0188271 -0.545789 20.7613
-0.00626609 -0.251051 20.3601
1.33807 -1.70944 19.0058
0.611569 -0.557758 19.2007
0.608203 -0.408219 19.6177
0.409008 -0.919871 21.6902
1.79873 -1.52782 20.5261
-0.165767 -0.0145762 19.762
0.190771 -0.616557 21.4485
-0.470723 0.884317 18.5211
-0.360772 -0.0510923 21.4752
-0.753569 1.55474 17.5062
-1.12415 0.739873 20.7798
-1.25574 1.29721 16.9408
-1.4387 1.75955 13.888
-1.32819 0.714065 20.135
-1.54186 1.03923 14.4593
-0.938348 0.375572 20.2082
0.663674 -0.309351 18.9929
0.679927 -0.341601 19.491
-2.01961 1.15343 11.7729
-1.79307 -0.0346267 7.12975
-1.89429 0.4131 18.2407
-1.64226 0.220105 12.5165
-1.50307 -0.0284576 19.1891
0.579834 0.242595 19.1205
0.711071 -0.0611976 19.39
-0.873835 -0.863954 10.3228
-0.132236 -1.02259 19.8284
-1.1958 -0.934178 18.4386
-0.0183232 -0.900721 20.1364
-0.998581 -1.19013 19.2333
0.841173 0.924233 19.2447
0.494003 0.289586 19.6107
1.38392 1.67797 20.318
1.20253 0.882625 19.9029
1.44222 1.46033 21.6037
1.35191 0.839263 20.8497
0.269929 -0.142147 21.6204
0.605447 0.181006 21.6075
0.0559175 -0.490037 21.1872
0.0261987 -0.412405 21.2627
-0.0621405 -0.649843 20.6338
-0.164243 -0.617695 20.8289
0.0363128 -0.373521 20.8228
0.904828 -0.470952 20.0026
0.60009 -0.241589 19.8141
0.843141 -0.61059 21.0332
1.35874 -0.61561 20.4127
0.134757 -0.350028 21.3396
0.523397 -0.52414 21.2275
-0.503051 0.0052559 21.4008
-0.16049 -0.248777 21.4457
-0.996552 0.221647 21.0578
-0.946236 0.0666041 21.2793
-1.1538 0.0772413 20.4632
-1.13474 0.0413261 20.9343
-0.872898 -0.0254597 20.8061
1.10632 -0.359927 19.8629
0.613216 -0.123187 19.7384
1.11909 -0.607001 21.0826
1.6179 -0.326239 20.257
0.245207 -0.466346 21.3926
0.88595 -0.508702 21.2174
-0.589642 -0.195649 21.5173
0.0465307 -0.436174 21.5723
-1.17821 -0.0716262 21.1314
-0.984729 -0.458847 21.2675
-1.29618 -0.199664 20.4771
-1.15106 -0.531656 20.8606
-0.862326 -0.532256 20.2944
1.11512 -0.0468101 19.7474
0.55087 0.0984936 19.7621
1.4999 -0.18897 20.8645
1.35 0.338584 20.0992
0.764848 -0.389123 21.4282
1.20907 0.0929465 20.9988
-0.248306 -0.5305 21.5695
0.464156 -0.220315 21.508
-0.780929 -0.746011 21.1573
-0.220074 -0.563633 21.2618
-0.837093 -0.690667 20.5115
-0.428971 -0.665478 20.9534
-0.340335 -0.653633 20.6338
0.710845 0.340033 19.883
1.02975 0.47522 20.5209
0.810067 0.226697 21.1992
0.160568 -0.195141 21.3358
-0.130355 -0.433727 21.0536
-0.206693 -0.383948 20.6543
-1.01413 -0.415782 19.9455
-1.64593 -1.72322 18.5402
-1.21929 -0.881648 19.6469
-1.54119 -0.751596 19.3149
-0.65376 -0.370154 19.577
-2.27024 -1.58304 20.4085
-0.976583 -0.614389 21.0589
0.0126605 -0.249306 15.2023
-0.787217 -1.04072 21.4455
-1.36652 -1.33334 21.792
-0.196748 -0.797414 21.4001
-0.176665 -0.414312 21.3755
0.2977 0.0654195 13.4573
0.0832903 -0.368074 21.4593
0.039857 -0.646306 20.0825
0.431176 -0.141783 20.8943
0.565464 -0.0704317 21.4706
0.472945 0.812676 11.4824
0.783571 0.355296 21.1165
0.909895 0.186294 17.7571
1.39892 0.740826 19.0216
1.12329 0.107882 21.0702
0.90407 1.5463 12.9102
1.30603 0.753746 20.5723
1.77652 0.522999 17.6395
1.71317 0.629877 19.0446
1.22946 -0.070698 20.5272
1.70703 1.24864 13.7813
1.37011 0.624581 20.3334
1.81132 0.240001 18.4336
1.20822 0.156271 19.8282
-1.11951 -0.207986 19.7981
-2.03632 -0.886535 17.6146
-1.6372 -0.0789558 19.0077
-0.68919 -0.199928 19.4492
-3.45658 -0.811451 19.8762
-1.34567 -0.415327 20.986
-2.5617 -0.363215 21.3239
-0.962187 -1.17557 21.0025
-0.494532 -0.512104 21.4391
-1.31345 -0.953677 21.2508
0.208348 -0.393223 18.8877
0.490103 -0.433906 21.5647
0.530157 -0.39695 18.5317
1.55668 0.0181595 14.7741
1.1452 -0.511071 21.0557
0.872302 -0.418115 3.85182
1.04546 -0.874185 17.9806
1.77656 -0.323958 17.7174
0.955083 -0.503445 20.9941
1.99877 0.131027 10.2792
0.995174 -1.12857 19.8604
1.34629 -0.602721 18.909
-0.960952 0.215211 19.7731
-1.38485 0.932187 18.3607
-0.850208 0.635145 19.5598
-0.614357 0.181338 19.468
-2.2001 1.04365 19.6372
-1.40466 0.269834 20.6528
-2.65005 2.20081 20.612
-1.37516 0.997408 20.4563
-2.05004 0.401645 21.0317
-0.945259 -0.0768068 21.3539
-3.24026 0.972897 21.9632
-1.13452 0.59422 21.3718
-0.749748 -0.18019 21.8565
-0.0452077 -0.389497 21.4527
0.0179194 -0.494361 19.255
-0.200976 -0.200337 21.4482
0.106019 -0.783675 21.331
0.353233 -0.613915 21.0782
0.0492753 -0.860423 19.1647
0.0760896 -0.488555 21.0951
0.329201 -0.834604 21.1414
0.376267 -0.534463 20.8895
0.242263 -0.953388 19.6239
0.25943 -0.549712 20.8439
0.137529 -0.74815 20.8484
1.6408 -1.75272 18.5033
-0.00911157 -2.84932 18.259
-0.0233577 -2.94555 16.2956
-0.0105173 -0.815884 18.8009
0.00241801 -4.22769 20.4915
-0.00577048 -0.254111 15.2498
0.00269206 -0.941052 20.5732
-0.00131142 0.00364603 9.28794
-0.298719 0.0650557 13.4547
4.00283e-05 -0.0711119 17.4685
0.00141078 0.105914 10.2912
-0.449583 0.810658 11.2839
0.00529212 0.647575 15.8676
-0.000679406 0.578496 7.32313
-0.841263 1.51634 12.5932
0.0061094 1.1073 14.714
-0.0051506 -0.0367815 2.06356
0.000531502 0.915797 8.21374
-1.69814 1.27221 13.7066
0.0169121 1.44206 14.2275
0.00856852 0.841498 3.93121
0.0279984 1.58529 11.6784
2.04253 -0.896024 17.5611
-0.00991744 0.0647658 15.3473
-0.0115727 -0.400581 18.4968
-0.820239 -0.427245 3.59417
0.00234088 0.936492 -4.52277
0.0706967 0.345201 -2.71014
-1.94525 0.185073 9.92133
0.0832863 0.673169 -4.57665
0.0407875 0.935826 1.82549
1.3929 0.903883 18.4132
0.0386357 1.44602 18.7452
0.0077068 0.373837 18.7172
0.0634052 5.18731 18.0795
2.65645 2.1126 20.6114
0.0501768 2.60399 20.075
0.0154454 4.27283 18.767
3.31762 1.02874 21.9526
-0.0398192 2.98905 21.8202
-0.0179317 0.466804 15.3376
-0.129154 -0.451552 18.3567
-0.031592 0.084507 21.8683
-0.0235336 -0.0777899 9.48862
0.00573706 -0.846472 18.9574
-0.0213776 -0.310549 21.3277
0.00324659 -0.0575951 12.0393
-0.207567 -0.946095 19.4787
-0.0141448 -0.453991 20.6407
-0.00879255 -0.247362 14.9894
1.03175 -0.429239 19.9322
1.22564 -0.898979 19.6302
1.55528 -0.762656 19.2839
0.653375 -0.381834 19.5592
2.27501 -1.59435 20.4061
0.980365 -0.616191 21.0578
0.791605 -1.03858 21.44
1.36752 -1.33897 21.7964
0.205511 -0.793544 21.4003
0.179539 -0.413458 21.3744
-0.0787713 -0.369082 21.4579
-0.0349774 -0.648545 20.1262
-0.425499 -0.144892 20.8957
-0.557951 -0.0730545 21.4671
-0.78684 0.377246 21.0699
-0.90942 0.169893 17.9129
-1.39619 0.756474 18.9587
-1.11819 0.0990657 21.0597
-1.30239 0.793244 20.4466
-1.77297 0.517303 17.6584
-1.71704 0.655802 18.9504
-1.24039 -0.0682761 20.5116
-1.36317 0.635618 20.3266
-1.79732 0.249974 18.4246
-1.22071 0.173557 19.6986
1.13689 -0.212062 19.7849
1.64628 -0.077548 18.9934
0.693855 -0.199077 19.4326
3.48396 -0.818659 19.873
1.34864 -0.417009 20.9858
2.56058 -0.362519 21.3237
0.962688 -1.17407 21.0072
0.492682 -0.511141 21.4344
1.3121 -0.948461 21.2704
-0.202124 -0.412565 19.0387
-0.478088 -0.427836 21.5573
-0.523398 -0.41067 18.6132
-1.55959 0.0219211 15.1057
-1.13382 -0.511298 21.0425
-1.04447 -0.865959 17.8398
-1.80222 -0.323306 17.4886
-0.958014 -0.504833 20.9963
-1.0289 -1.12154 19.5406
-1.36345 -0.574998 18.7129
0.944078 0.206425 19.7923
0.842371 0.590721 19.6095
0.615012 0.180109 19.4833
2.15255 0.961601 19.6779
1.38658 0.26307 20.6519
1.35928 0.946596 20.4638
2.03651 0.393202 21.0335
0.955782 -0.0778377 21.3569
1.14793 0.622115 21.3846
0.777698 -0.176745 21.8853
0.0481611 -0.3978 21.4701
0.210356 -0.196333 21.4775
-0.0729487 -0.806773 21.3343
-0.350031 -0.641406 21.0848
-0.0652536 -0.510381 21.0979
-0.331207 -0.881679 21.0487
-0.379699 -0.577604 20.9039
-0.252854 -0.625742 21.0354
-0.123024 -0.77598 20.765
-1.38935 -0.839605 19.4779
-1.0006 -1.21082 21.5914
0.104104 -0.508579 21.0456
0.932888 0.305034 19.906
1.60448 0.709565 19.1866
1.58775 0.431755 19.3627
-1.65655 -0.4328 19.13
-2.04175 -1.00068 21.6924
-0.378636 -0.979846 20.1858
0.760371 0.00625502 17.3012
1.70971 -0.247431 16.3673
1.51223 -0.284392 18.0518
-1.28654 0.496849 19.26
-2.14946 0.764951 20.6949
-1.66667 0.112565 21.6942
-0.136509 -0.513555 21.6548
0.230013 -0.846206 21.1501
0.42176 -0.88118 20.9476
-0.0183885 -3.14804 17.3075
6.62981e-05 -0.200392 10.0295
-2.70681e-06 0.0545122 9.58995
0.00291117 0.518805 8.05466
0.00235961 0.639202 7.66137
0.0128412 1.12209 9.03906
-0.0203056 -1.4782 15.5297
0.00181321 0.252175 -2.27644
0.0639574 0.824833 0.19226
0.0285642 1.67228 17.2762
0.0332477 3.69621 20.1636
-0.0333794 4.87664 19.3797
-0.0155656 -0.165548 11.0382
-0.0405924 0.00166186 10.912
-0.0334623 -0.562346 14.4146
1.39651 -0.85586 19.4613
1.00461 -1.20949 21.5892
-0.0989524 -0.506653 21.0536
-0.933026 0.308698 19.8684
-1.60054 0.726216 19.1183
-1.57718 0.442474 19.355
1.67329 -0.441137 19.1066
2.04452 -1.00348 21.6952
0.384298 -0.981117 20.2476
-0.763252 -0.0187185 17.497
-1.70438 -0.240436 16.2831
-1.52764 -0.274969 17.7924
1.27618 0.481751 19.3052
2.1061 0.738533 20.6925
1.69491 0.119038 21.7063
0.151041 -0.525365 21.6532
-0.19846 -0.874405 21.1272
-0.423711 -0.919963 20.7211
-0.237903 -0.143348 0.321844
-0.000152719 -0.000466715 0.00413032
-0.000946641 0.000543155 0.109107
0.0506875 -0.00639261 0.104147
-0.00329128 0.018729 0.0724492
-0.00344017 0.00663686 0.078208
-1.57944 -0.00843217 2.07922
-0.228755 0.908668 0.932276
-0.465947 0.16296 1.3939
-0.00511649 -0.0200376 0.0125091
-0.151266 0.0319777 -0.0550426
-0.00132174 -0.0162914 0.0865997
0.000137844 -0.000464847 0.00410957
0.220445 -0.133032 0.298633
0.000798795 0.000427455 0.106883
0.00309195 0.0184902 0.0718378
-0.0505787 -0.00613321 0.10455
0.00338486 0.0064695 0.0779972
0.262575 1.05446 1.06796
1.58763 -0.00853775 2.09042
0.464741 0.163354 1.39072
0.149692 0.0325484 -0.055501
0.00522093 -0.0199014 0.0122169
0.00125609 -0.0161812 0.0864893
0.00245422 -0.000227218 0.167218
0.00128281 0.00016138 0.0304304
0.00119546 -0.00142641 0.0511057
0 0 0
0.0165635 0.0216239 0.25368
0.0003632 0.000136601 0.0337436
-0.00409419 0.0217041 0.233214
-1.46069e-18 -4.02506e-19 -8.98001e-17
-0.246425 -0.137637 0.77876
-0.00294819 -0.00997095 0.0725575
-0.000298232 0.00243599 0.0411142
-0.0428586 0.019449 0.0511996
0 0 0
0.0059083 0.0189485 0.0903278
0 0 0
0.0454247 -0.0144892 0.289811
-0.00231695 -0.000185003 0.167142
2.05425e-18 -5.03597e-19 -4.37256e-17
-0.00126428 0.00015065 0.0297236
-0.00109707 -0.00144632 0.0525162
-0.0130797 0.0226402 0.255676
1.45895e-18 -4.02553e-19 -8.98417e-17
-0.000354496 0.000139594 0.0332551
0.00442522 0.0227711 0.234037
0.230927 -0.126287 0.729339
0.0429372 0.0193667 0.0508939
0.00277651 -0.00977371 0.0717981
0.00030509 0.00245337 0.0413958
0 0 0
-0.0453272 -0.0143976 0.288853
-0.00588109 0.0189188 0.0898355
0 0 0
-0.128916 -0.049145 0.514008
0 0 0
-1.09692e-08 2.16878e-06 0.000395701
0 0 0
-0.000603239 -0.00200629 0.0247782
7.61429e-07 6.80203e-08 1.82682e-05
1.58169e-18 -1.06039e-18 5.47879e-18
-0.105987 -0.0514861 0.0313641
0 0 0
-4.55638e-05 -0.00914424 -0.00283295
0.000444538 0.00300362 0.0291952
-1.77291e-06 -4.74427e-06 -4.55833e-05
-0.000275805 0.11898 0.11184
5.68656e-07 0.00209984 0.00894259
-0.00160244 -0.00364155 0.0383237
-0.0135837 0.0089227 0.0683885
0 0 0
-6.71784e-06 0.00028301 -0.00388468
0.00761754 0.00349588 0.0595964
-2.70334e-05 3.76742e-06 -1.47815e-05
0 0 0
0.131842 -0.0495723 0.522361
-2.16137e-07 1.96228e-08 5.27212e-06
0.000618372 -0.00206183 0.0253683
0.110456 -0.0541038 0.032563
0 0 0
1.75258e-06 -4.89555e-06 -4.70622e-05
-0.000456214 0.00301932 0.0296807
0.014023 0.00922108 0.0708734
0.00167918 -0.00382231 0.0402106
8.51766e-05 1.18687e-05 -4.6538e-05
-0.0074784 0.00340418 0.0585636
-0.00376364 0.00985725 0.18832
1.84311e-05 2.493e-06 0.000468236
-0.000178954 -0.00210149 0.0225901
-0.000579997 0.00266076 0.0684512
1.41996e-10 -2.29812e-07 -5.99255e-05
-1.06773e-09 5.73481e-08 1.03083e-05
0 0 0
0.00132977 0.00425662 0.0507951
1.99709e-09 -1.99216e-07 -5.24938e-05
0 0 0
0.000147323 0.00110615 0.00898674
-0.15002 0.15422 0.717869
0 0 0
-1.91933e-07 0.00142133 0.0031121
1.59774e-06 7.59071e-05 0.00178609
-5.38665e-07 5.08227e-05 -0.000201817
-1.79746e-05 2.42042e-06 0.000454974
0.00377816 0.00987641 0.188363
0.000176696 -0.0020701 0.0222863
0.000577173 0.00269849 0.0689286