# vtk DataFile Version 2.0
tet_velo
ASCII
DATASET UNSTRUCTURED_GRID
POINTS 29498 float
-0.633655 0.195 -1.925
-0.535 0.175 1.9509
-0.745 0.615 -1.71932
-0.615 0.865 1.92859
0.601679 0.185 -1.925
0.589821 0.155 1.925
0.708459 0.605 -1.735
0.655 0.865875 1.925
-0.649525 0.139579 -0.633033
-0.608454 0.141097 0.658933
-0.781332 0.777999 -0.50335
-0.728976 0.852309 0.71262
0.648037 0.12469 -0.641667
0.627821 0.130953 0.641667
0.768191 0.76951 -0.515
0.74263 0.848727 0.705
-1.33684 -0.148477 -2.98262
-1.32894 -0.113104 -1.97954
-1.32597 -0.154029 -0.68661
-1.27495 -0.181802 0.621125
-1.20372 -0.166794 1.91526
-1.1823 -0.141149 2.92429
-1.17951 -0.111909 3.92185
-1.34537 0.126096 -2.90823
-1.34529 0.185334 -1.91279
-1.35034 0.166336 -0.633413
-1.28392 0.157585 0.652822
-1.19142 0.177779 1.93357
-1.1739 0.203481 2.94182
-1.17672 0.231331 3.94167
-1.39735 0.628275 -2.73752
-1.43771 0.683995 -1.73745
-1.45739 0.794092 -0.509328
-1.38355 0.851784 0.713354
-1.26625 0.87158 1.94304
-1.21973 0.896717 2.9576
-1.20549 0.922358 3.97118
-1.43219 1.51029 -2.53619
-1.44783 1.58572 -1.54795
-1.45286 1.72214 -0.342195
-1.42572 1.83741 0.847788
-1.37127 1.89867 2.05457
-1.32372 1.92681 3.04496
-1.28701 1.95003 4.05048
-0.656379 -0.146035 -2.99119
-0.647014 -0.107282 -1.99039
-0.651389 -0.169329 -0.690719
-0.624598 -0.197455 0.623782
-0.57329 -0.17642 1.92386
-0.549153 -0.149328 2.92827
-0.540607 -0.119376 3.92167
-0.65286 0.121077 -2.91421
-0.534509 0.197835 2.94507
-0.535408 0.225113 3.94045
-0.691362 0.596988 -2.73407
-0.569511 0.893377 2.95158
-0.556402 0.918419 3.96579
-0.725331 1.48609 -2.53267
-0.736167 1.56203 -1.54351
-0.744627 1.71165 -0.341391
-0.735313 1.83767 0.842364
-0.700645 1.8999 2.04498
-0.660085 1.92651 3.03529
-0.626052 1.94844 4.04198
0.659118 -0.156297 -2.99664
0.630953 -0.118157 -1.99399
0.647311 -0.182333 -0.699648
0.627563 -0.208537 0.608059
0.611617 -0.191706 1.903
0.667065 -0.161673 2.91094
0.710819 -0.129406 3.9072
0.669821 0.111027 -2.91989
0.674141 0.186003 2.92813
0.715646 0.215706 3.92651
0.704015 0.587178 -2.74437
0.690123 0.887865 2.94144
0.716565 0.911256 3.95427
0.691512 1.47689 -2.54309
0.698101 1.55313 -1.55424
0.694677 1.70376 -0.351542
0.671036 1.83151 0.833239
0.655063 1.89484 2.03633
0.668802 1.92105 3.02608
0.691723 1.94216 4.03198
1.32657 -0.168937 -2.99551
1.30473 -0.134537 -1.9912
1.31841 -0.177119 -0.704805
1.28747 -0.202499 0.593719
1.25477 -0.190458 1.88158
1.29456 -0.162978 2.89306
1.342 -0.131208 3.89399
1.33826 0.106 -2.92162
1.31041 0.164736 -1.92374
1.34207 0.143437 -0.650985
1.30504 0.139118 0.626524
1.25116 0.155557 1.90071
1.29738 0.18314 2.91179
1.34548 0.213174 3.91476
1.38528 0.608807 -2.75646
1.39705 0.664752 -1.75797
1.43895 0.77604 -0.529004
1.39473 0.839925 0.694662
1.31003 0.862843 1.92499
1.32423 0.884201 2.93604
1.3545 0.907789 3.94813
1.39151 1.49194 -2.55655
1.40297 1.56797 -1.56874
1.4016 1.70618 -0.362221
1.36982 1.8244 0.829138
1.33727 1.8875 2.03647
1.33713 1.91513 3.02597
1.35241 1.93705 4.03024
-0.72256 0.405 -1.85539
-0.015988 0.151611 -1.96339
-0.664656 0.144223 -1.27902
-0.600461 0.52 1.96521
0.0274105 0.2016 1.90135
-0.584596 0.14518 1.30492
-0.0182705 0.61238 -1.72954
-0.817491 0.750824 -1.11134
0.02 0.913921 1.97528
-0.705602 0.892269 1.32061
0.687725 0.395 -1.86266
0.646069 0.133634 -1.28333
0.65226 0.510438 1.95485
0.60778 0.144017 1.28333
0.808593 0.757523 -1.125
0.714356 0.872842 1.315
-0.630922 0.138405 0.01295
-0.896152 0.458789 -0.568192
-0.00074402 0.130185 -0.63735
-0.867453 0.496703 0.685777
0.00968318 0.134782 0.6503
-0.74264 0.80264 0.104635
-0.00657079 0.853008 -0.509175
0.00682713 1.19818 0.70881
0.640148 0.125602 0
0.887793 0.4471 -0.578333
0.893155 0.48984 0.673333
0.749308 0.803016 0.095
-0.861128 0.431894 -1.19518
-0.876827 0.477746 0.0587925
-0.885947 0.508352 1.31276
-0.00836601 0.134606 -1.28118
0.00446958 0.128069 0.006475
0.0185468 0.146636 1.29413
-0.0171292 0.4 -2.02859
0.0237052 0.515219 2.03846
-0.0124206 0.796083 -1.11817
0.000128169 1.13744 0.0998175
0.0134136 1.12133 1.3178
0.883703 0.42105 -1.20417
0.885584 0.46847 0.0475
0.838022 0.500139 1.29917
-0.989473 0.190167 -1.91889
-0.640334 0.0438588 -1.9577
-0.643258 0.158039 -2.4196
-0.86321 0.176389 1.94223
-0.554145 -0.000710228 1.93738
-0.534754 0.186418 2.44798
-1.09136 0.649498 -1.72839
-0.718181 0.605994 -2.22669
-0.740584 1.08851 -1.63141
-0.940623 0.86829 1.93581
-0.592256 0.879188 2.44008
-0.657823 1.38245 1.98679
0.616316 0.0334214 -1.9595
0.63575 0.148013 -2.42244
0.956044 0.174868 -1.92437
0.600719 -0.0183528 1.914
0.631981 0.170501 2.42656
0.92049 0.155279 1.91286
0.706237 0.596089 -2.23968
0.70328 1.07907 -1.64462
1.05275 0.634876 -1.74648
0.672561 0.87687 2.43322
0.655032 1.38036 1.98067
0.982514 0.864359 1.92499
-0.999934 0.152957 -0.633223
-0.650457 -0.0148751 -0.661876
-0.946188 0.149341 0.655877
-0.616526 -0.028179 0.641358
-1.11936 0.786045 -0.506339
-0.762979 1.24482 -0.42237
-1.05626 0.852046 0.712987
-0.732144 1.34499 0.777492
0.647674 -0.0288214 -0.670657
0.995053 0.134064 -0.646326
0.627692 -0.0387918 0.624863
0.966429 0.135036 0.634095
0.731434 1.23664 -0.433271
1.10357 0.772775 -0.522002
0.706833 1.34012 0.76912
1.06868 0.844326 0.699831
-1.33289 -0.130791 -2.48108
-1.34111 -0.0111901 -2.94542
-0.996611 -0.147256 -2.98691
-1.32745 -0.133567 -1.33307
-1.33711 0.0361149 -1.94616
-0.987974 -0.110193 -1.98497
-1.30046 -0.167916 -0.0327425
-1.33816 0.00615348 -0.660011
-0.988682 -0.161679 -0.688665
-1.23934 -0.174298 1.26819
-1.27944 -0.0121084 0.636973
-0.949775 -0.189629 0.622453
-1.19301 -0.153971 2.41977
-1.19757 0.00549223 1.92441
-0.888504 -0.171607 1.91956
-1.18091 -0.126529 3.42307
-1.1781 0.0311662 2.93305
-0.865728 -0.145238 2.92628
-1.17812 0.0597107 3.93176
-0.86006 -0.115643 3.92176
-1.34533 0.155715 -2.41051
-1.37136 0.377186 -2.82287
-0.999114 0.123587 -2.91122
-1.34782 0.175835 -1.2731
-1.3915 0.434665 -1.82512
-1.31713 0.161961 0.00970409
-1.40387 0.480214 -0.57137
-1.23767 0.167682 1.29319
-1.33374 0.504685 0.683088
-1.18266 0.19063 2.43769
-1.22883 0.524679 1.9383
-1.17531 0.217406 3.44174
-1.19681 0.550099 2.94971
-0.854205 0.200658 2.94344
-1.1911 0.576844 3.95643
-0.856064 0.228222 3.94106
-1.41753 0.656135 -2.23748
-1.41477 1.06928 -2.63685
-1.04436 0.612631 -2.73579
-1.44755 0.739044 -1.12339
-1.44277 1.13486 -1.6427
-1.42047 0.822938 0.102013
-1.45513 1.25812 -0.425761
-1.3249 0.861682 1.3282
-1.40464 1.3446 0.780571
-1.24299 0.884148 2.45032
-1.31876 1.38512 1.99881
-1.21261 0.909537 3.46439
-1.27172 1.41177 3.00128
-0.894618 0.895047 2.95459
-1.24625 1.43619 4.01083
-0.880944 0.920388 3.96849
-1.44001 1.548 -2.04207
-1.07876 1.49819 -2.53443
-1.45035 1.65393 -0.945072
-1.092 1.57387 -1.54573
-1.43929 1.77977 0.252797
-1.09874 1.71689 -0.341793
-1.3985 1.86804 1.45118
-1.08052 1.83754 0.845076
-1.34749 1.91274 2.54977
-1.03596 1.89928 2.04978
-1.30536 1.93842 3.54772
-0.991901 1.92666 3.04013
-0.956532 1.94924 4.04623
-0.651696 -0.126658 -2.49079
-0.65462 -0.0124786 -2.9527
0.00136947 -0.151166 -2.99391
-0.649201 -0.138306 -1.34056
-0.00803051 -0.11272 -1.99219
-0.637994 -0.183392 -0.0334687
-0.00203915 -0.175831 -0.695184
-0.598944 -0.186938 1.27382
0.0014825 -0.202996 0.615921
-0.561222 -0.162874 2.42607
0.0191632 -0.184063 1.91343
-0.54488 -0.134352 3.42497
-0.541831 0.0242535 2.93667
0.0589558 -0.1555 2.91961
-0.538008 0.0528684 3.93106
0.0851058 -0.124391 3.91444
-0.672111 0.359033 -2.82414
0.00848027 0.116052 -2.91705
-0.534959 0.211474 3.44276
-0.55201 0.545606 2.94832
0.0698159 0.191919 2.9366
-0.545905 0.571766 3.95312
0.0901189 0.220409 3.93348
-0.708346 1.04154 -2.63337
0.00632637 0.592083 -2.73922
-0.562957 0.905898 3.45868
-0.614798 1.40994 2.99344
0.0603057 0.890621 2.94651
-0.591227 1.43343 4.00388
0.0800815 0.914837 3.96003
-0.730749 1.52406 -2.03809
-0.0169091 1.48149 -2.53788
-0.740397 1.63684 -0.942448
-0.0190332 1.55758 -1.54887
-0.73997 1.77466 0.250486
-0.0249745 1.70771 -0.346466
-0.717979 1.86878 1.44367
-0.0321384 1.83459 0.837801
-0.680365 1.91321 2.54014
-0.0227911 1.89737 2.04066
-0.643069 1.93748 3.53863
0.00435871 1.92378 3.03069
0.0328353 1.9453 4.03698
0.645035 -0.137227 -2.49531
0.664469 -0.0226352 -2.95826
0.992844 -0.162617 -2.99607
0.639132 -0.150245 -1.34682
0.967841 -0.126347 -1.99259
0.637437 -0.195435 -0.0457944
0.982861 -0.179726 -0.702226
0.61959 -0.200121 1.25553
0.957518 -0.205518 0.600889
0.639341 -0.176689 2.40697
0.933195 -0.191082 1.89229
0.688942 -0.145539 3.40907
0.670603 0.0121651 2.91953
0.980814 -0.162325 2.902
0.713232 0.0431497 3.91685
1.02641 -0.130307 3.9006
0.686918 0.349103 -2.83213
1.00404 0.108513 -2.92075
0.694893 0.200854 3.42732
0.682132 0.536934 2.93479
0.985759 0.184571 2.91996
0.716105 0.563481 3.94039
1.03056 0.21444 3.92063
0.697764 1.03203 -2.64373
1.04465 0.597993 -2.75041
0.703344 0.899561 3.44785
0.679463 1.40446 2.98376
1.00718 0.886033 2.93874
0.704144 1.42671 3.99312
1.03553 0.909523 3.9512
0.694806 1.51501 -2.04867
1.04151 1.48442 -2.54982
0.696389 1.62845 -0.952891
1.05054 1.56055 -1.56149
0.682857 1.76764 0.240849
1.04814 1.70497 -0.356881
0.66305 1.86318 1.43479
1.02043 1.82796 0.831188
0.661933 1.90794 2.53121
0.996166 1.89117 2.0364
0.680263 1.9316 3.52903
1.00297 1.91809 3.02603
1.02207 1.9396 4.03111
1.31565 -0.151737 -2.49335
1.33241 -0.0314687 -2.95857
1.31157 -0.155828 -1.348
1.30757 0.0150996 -1.95747
1.30294 -0.189809 -0.0555428
1.33024 -0.0168408 -0.677895
1.27112 -0.196479 1.23765
1.29626 -0.0316906 0.610121
1.27467 -0.176718 2.38732
1.25297 -0.0174507 1.89115
1.31828 -0.147093 3.39353
1.29597 0.0100812 2.90242
1.34374 0.040983 3.90438
1.32433 0.135368 -2.42268
1.36177 0.357403 -2.83904
1.32624 0.154087 -1.28736
1.35373 0.414744 -1.84085
1.32355 0.141278 -0.0122306
1.39051 0.459739 -0.589995
1.2781 0.147338 1.26362
1.34989 0.489522 0.660593
1.27427 0.169348 2.40625
1.28059 0.5092 1.91285
1.32143 0.198157 3.41328
1.3108 0.533671 2.92391
1.34999 0.560481 3.93145
1.39117 0.63678 -2.25721
1.3884 1.05037 -2.6565
1.418 0.720396 -1.14349
[...]
POINT_DATA 29498
VECTORS point_vectors float
-0.61824 -0.998245 1.44718
-0.0814047 0.436899 2.23451
-2.27062 1.22655 3.61088
-0.164884 -0.151769 0.266171
0.898474 -1.78239 2.63136
-0.21659 0.799216 5.30919
2.31475 2.17441 3.98695
0.183897 -0.24869 0.421067
-9.54158e-05 -0.000112126 0.00604639
0.000649141 6.25096e-05 0.0166009
-0.29679 -0.174343 0.694231
1.6191e-17 2.06911e-17 7.59122e-17
0.000183054 -3.19572e-05 0.00473668
5.78418e-05 4.65068e-05 0.00458281
0.0563116 -0.022145 0.119062
0 0 0
-0.54251 -0.26108 19.7643
-1.33819 -0.843363 20.2143
-0.492733 -0.586462 21.2633
0.138956 -0.225992 21.4868
0.845325 0.39119 21.3999
1.15273 0.553926 20.9227
0.981369 0.363447 20.8831
-0.688647 -0.185843 19.6442
-1.90641 -0.67748 20.175
-0.724666 -0.668153 21.3404
0.106186 -0.477786 21.6287
1.31836 0.142756 20.9733
1.58457 0.237161 20.4658
1.46002 -0.0169773 20.1981
-0.830468 0.0921779 19.6246
-1.90668 0.154174 20.3358
-1.19961 -0.285479 21.159
-0.527412 -0.531728 21.6232
0.611945 -0.909443 21.17
1.02365 -1.03764 20.6388
0.759759 -0.863595 20.1648
-0.601089 0.428592 19.8978
-0.884668 0.612887 20.3804
-0.808838 0.409699 20.9418
-0.409678 0.0654188 21.2927
-0.0196798 -0.30272 21.1694
0.133982 -0.450495 20.9036
0.147158 -0.465734 20.5832
-0.476803 -0.511449 19.2685
-1.77379 -3.54217 20.1145
-0.142564 -0.565772 21.3331
0.15596 0.0956576 20.5388
0.414232 1.13436 20.1313
0.717852 1.50222 19.7939
0.750884 1.48065 19.4148
-0.640782 -0.427705 18.908
1.15956 1.58758 9.90293
1.72542 1.5 13.9306
-0.983275 0.27726 18.4723
0.389591 -0.750196 3.9215
0.411148 -0.859155 7.89875
-0.567185 0.907173 19.4971
-0.956368 1.57899 20.2309
-1.02222 1.32861 20.9065
-0.497052 0.428691 21.6259
-0.111178 -0.270993 21.2737
0.0154494 -0.509983 20.992
0.191479 -0.380795 21.1211
0.466316 -0.505461 19.2864
1.64752 -3.50693 20.0648
0.101202 -0.627541 21.5487
-0.115388 0.148292 20.8857
-0.44872 1.1428 20.4213
-0.844628 1.41599 20.1766
-0.825245 1.27026 19.7572
0.634382 -0.413235 18.9525
-1.56614 1.63692 13.1422
-1.6731 1.07836 15.0637
0.964804 0.245517 18.5286
-0.751676 -1.1582 7.45198
-0.674349 -1.05549 11.7034
0.549807 0.892499 19.4755
0.920591 1.64149 20.2124
1.0126 1.44763 20.8801
0.491152 0.472921 21.688
0.12684 -0.277445 21.2804
-0.00730837 -0.518446 21.017
-0.130965 -0.405925 20.9217
0.529765 -0.265427 19.7602
1.33343 -0.897957 20.1633
0.509296 -0.60047 21.2777
-0.138294 -0.202584 21.5308
-0.767078 0.325496 21.3522
-1.02643 0.387618 21.0664
-0.968741 0.22798 20.4048
0.673663 -0.191079 19.6473
1.99501 -0.787153 20.0609
0.705355 -0.666477 21.3506
-0.164358 -0.436775 21.7099
-1.16026 0.0815932 21.0665
-1.33907 0.0649693 20.9614
-1.39795 -0.0124453 19.8406
0.816235 0.0807182 19.6002
2.07601 0.218483 20.2302
1.23756 -0.307326 21.1584
0.506483 -0.560486 21.6851
-0.563455 -0.830827 21.3054
-0.926698 -0.850309 20.9886
-0.637016 -0.554113 20.6124
0.609865 0.443684 19.8671
0.923094 0.673463 20.3728
0.850234 0.465885 20.9544
0.433466 0.0886659 21.3354
0.026174 -0.319046 21.1703
-0.142261 -0.458514 20.9145
-0.196909 -0.490907 20.6081
-0.576621 -0.0324323 0.658085
-1.64532e-18 -1.04931e-17 5.99602e-17
-0.000906727 0.00240771 0.0744733
-0.0110116 -0.0198267 -0.0156657
0.0150869 0.11506 0.579105
0.10217 0.0434727 0.926079
0.000714826 0.0398513 0.084341
-0.126465 -0.0516594 0.571891
0.0278358 0.0957225 -0.216475
0.0091206 0.000740612 0.0717027
0.629279 -0.0392515 0.836909
0.0116742 -0.000109189 0.14555
0.03347 -0.0347202 -0.0401955
-0.0138682 0.00599524 0.19237
0.208979 -0.0780418 0.919165
0 0 0
0.00074213 0.000161116 0.0318612
0.0343463 -0.0239716 0.29778
0 0 0
0.000327876 0.00415988 0.0311482
1.5478e-05 8.29405e-06 0.00112728
0 0 0
-0.00184864 0.00331574 0.0352861
1.87284e-05 -0.000286908 0.032236
-2.37402e-05 9.26282e-07 0.00133057
-0.00608544 -0.0254056 0.19548
-5.40539e-06 -0.000150479 0.0411125
0 0 0
0 0 0
0.0010596 -0.00298816 0.0892945
0.000433389 0.00114823 0.0253731
0 0 0
0 0 0
-0.00302237 0.0261291 0.450173
0 0 0
0.00300687 -0.0201726 -0.00868921
-0.000280152 0.0221432 0.116282
-0.000223295 0.221529 0.55227
0.000200971 -0.000977975 0.00436773
0 0 0
0.000713024 -0.00271586 0.0690306
0 0 0
-3.78105 -2.02981 19.6602
-2.99093 -5.96719 20.01
-1.82604 -1.37145 17.5648
1.34495 1.16175 13.1853
0.304217 1.18283 14.3389
0.377447 0.88972 7.22893
-3.79467 0.586172 20.2165
-3.02774 1.41447 16.8199
-2.15614 2.78214 20.1064
0.79031 -0.83408 13.6068
-0.756162 -0.601321 2.0021
-0.287493 -0.533726 20.8735
2.71725 -5.85355 19.9334
1.77235 -1.36748 17.6081
3.78621 -2.33109 19.3247
-0.476914 1.21719 15.4798
-0.803861 1.28627 9.85577
-1.4218 0.897559 15.8774
2.9249 1.29906 16.8275
2.08395 2.99201 20.0111
4.30909 0.908575 19.7427
0.353177 -0.82123 4.15027
0.28929 -0.59299 20.8183
-0.796429 -0.692618 14.8017
-0.260951 -0.741977 18.2008
0.0548659 -0.210425 15.5829
0.287275 -0.151021 13.5005
0.275972 0.130238 14.423
-1.7927 -0.756509 20.7579
-2.30015 1.59019 20.7881
-0.734351 -0.718872 17.9392
-1.14419 0.489088 22.196
0.087016 -0.308527 16.1559
0.208421 -0.436068 17.6996
-0.102134 0.211937 14.5481
-0.347293 0.00173122 14.6742
2.30164 1.7614 20.6494
1.78242 -0.868345 20.1097
1.17876 0.522627 22.3442
0.82615 -0.865379 18.3073
-0.920603 -0.508936 19.801
-0.62064 -0.233671 19.705
-0.553488 -0.385768 19.542
-0.980533 -0.820577 21.0253
-1.61128 -0.803117 20.2033
-1.82013 -1.82906 20.0819
-0.153216 -0.411505 21.3676
-0.596873 -0.634774 21.2969
-0.321416 -0.731394 21.487
0.493863 0.0570278 21.552
0.149442 -0.330541 21.5622
0.241059 -0.0847878 21.4555
0.999505 0.505494 21.1623
1.09797 0.308096 21.2436
0.830752 0.912962 20.9562
1.19089 0.547581 20.5943
1.37768 0.445917 20.7124
1.11934 1.13888 20.4596
1.21669 0.228054 20.5627
0.863833 0.87903 20.5232
-1.27164 -0.372804 19.648
-0.779083 -0.0917093 19.6125
-0.752839 -0.286409 19.3044
-1.39204 -0.764996 21.1316
-2.06584 -0.265796 20.2466
-0.28207 -0.608292 21.4999
-0.989915 -0.57248 21.2881
0.696695 -0.213901 21.3818
-0.170003 -0.641666 21.6221
1.49955 0.220666 20.688
1.26987 -0.52535 20.4805
1.48102 0.144539 20.5242
1.61394 -0.517719 19.9575
1.91633 1.20449 16.0523
1.36769 -0.541186 20.2616
1.63048 0.592355 16.6647
-1.454 0.17248 19.7317
-0.773956 0.320977 19.73
-1.03337 0.135825 19.1374
-1.5447 -0.0655787 20.9746
-1.38931 0.577396 20.3451
-0.960106 -0.455412 21.415
-1.15918 0.195875 21.0234
0.0508149 -0.665467 21.644
-0.596238 -0.109886 21.4951
0.779748 -0.974189 20.899
0.0654799 -0.548531 21.3012
0.914691 -0.967629 20.6497
0.292249 -0.706045 21.0693
1.20737 -1.05821 14.8413
0.241871 -0.673015 20.8084
0.905509 -1.08668 15.4307
-0.781572 0.575916 20.0826
-0.636746 0.630741 19.7198
-0.877595 0.520701 20.6948
-1.03388 1.04715 20.3129
-0.65789 0.27908 21.1773
-0.997048 0.773122 20.952
-0.175901 -0.1407 21.2599
-0.481904 0.21768 21.4519
0.0615997 -0.390076 21.0474
-0.0676389 -0.313153 21.2236
0.141712 -0.402941 20.8382
0.0708704 -0.517199 20.8988
-0.033118 -0.427618 20.5094
-1.07857 -1.45418 18.8652
-0.548168 -0.47415 19.1047
-0.000273459 -0.652886 19.0183
-0.505631 -1.44214 22.0474
-0.0637307 -4.74515 20.6597
0.00790383 -0.194373 20.7432
-0.0153759 -0.620761 20.7595
0.324304 0.625678 20.3431
0.0350803 0.0374333 19.7751
0.527983 1.36068 20.0675
0.0410767 0.986101 19.1435
0.849938 1.52267 19.259
0.824432 1.81461 16.2442
-0.0193394 1.56841 18.9799
1.11216 1.69827 17.4513
-0.0785789 1.64136 18.9751
-0.856605 -0.159751 18.5851
0.0120224 -0.531107 18.4415
1.53636 1.72658 12.6172
1.84422 0.447945 3.6923
-0.00807689 0.982927 6.82684
2.4441 0.77008 8.32642
-0.251457 1.57685 9.92566
-0.846949 0.839006 18.931
0.0149051 0.447044 17.708
1.10811 -0.957334 6.53054
-0.00861818 -0.897089 20.2862
-0.271491 2.09281 -4.62142
-0.00871535 -0.798668 20.3073
-0.58467 0.527497 -0.0111793
-0.816252 1.39301 19.7377
-0.0242592 1.17412 19.245
-0.984665 1.39794 20.6108
-0.0230293 2.16535 20.1114
-0.871447 1.06002 21.4381
-0.0612708 2.19097 20.7589
-0.234022 -0.0358722 21.4957
-0.0260089 0.786341 21.8687
-0.0378348 -0.400634 21.1398
0.00172086 -0.145629 21.3154
0.0397987 -0.566045 20.8489
0.00675758 -0.523647 20.8687
0.0264312 -0.251359 20.5039
1.04875 -1.44194 18.8842
0.542513 -0.470701 19.1325
0.537573 -0.37905 19.5474
0.37332 -1.54007 22.078
1.74597 -1.89187 20.0136
-0.02766 -0.254655 21.0231
0.338962 -0.749614 21.5028
-0.257674 0.720188 20.5211
-0.225329 -0.0449071 21.5951
-0.622807 1.35806 20.2394
-0.811867 0.803624 21.0103
-0.977295 1.38254 19.5662
-1.18193 1.64324 17.0148
-1.12071 0.894342 20.6566
-1.08937 1.25812 18.5798
-0.936407 0.618141 20.8328
0.83587 -0.16483 18.6457
0.734179 -0.292021 19.3227
-1.92178 1.58365 14.9672
-1.87914 0.342919 6.83602
-1.87018 0.749131 18.5943
-2.13138 0.261577 12.0832
-1.36992 0.143775 19.9239
0.818756 0.852885 18.922
0.999913 0.123263 19.1424
-1.3064 -1.20983 10.2957
-0.0473516 -0.995487 20.3923
-1.19273 -1.06728 17.1698
-0.0784781 -0.80508 20.7195
-0.8945 -1.02748 18.1313
0.787507 1.42262 19.6969
0.633755 0.654562 19.6723
0.967705 1.47611 20.6001
1.04309 1.12456 20.2909
0.85835 1.18512 21.4677
1.02461 0.870628 20.9337
0.24032 -0.0412375 21.5216
0.500161 0.250514 21.5003
0.0491959 -0.415438 21.1468
0.0737913 -0.322721 21.2325
-0.0381331 -0.567431 20.8687
-0.0754024 -0.53202 20.91
-0.0269027 -0.447788 20.5042
0.902925 -0.527615 19.78
0.599201 -0.237623 19.7065
1.03589 -0.902944 21.0334
1.65179 -0.900642 20.1264
0.189496 -0.431943 21.3746
0.601162 -0.643682 21.3159
-0.497283 0.0985008 21.5074
-0.173323 -0.295154 21.6262
-0.903055 0.390723 21.1573
-0.980651 0.247009 21.4065
-0.980048 0.321652 20.6676
-1.21626 0.290042 20.9127
-1.21357 0.101872 20.0622
1.25274 -0.400999 19.6165
0.763225 -0.103323 19.6021
1.49345 -0.855771 21.2074
2.27763 -0.297139 20.1245
0.321732 -0.631006 21.5164
0.988498 -0.603204 21.2877
-0.732041 -0.19105 21.5585
0.109076 -0.672729 21.7152
-1.28103 0.0899838 21.1232
-1.10278 -0.557273 21.1932
-1.23346 -0.0602813 21.049
-1.414 -0.499149 20.7717
-1.10388 -0.329584 20.326
1.46962 0.176353 19.6583
0.77226 0.319463 19.6931
1.64813 -0.0380136 21.0477
1.49551 0.668147 20.3004
1.03173 -0.457056 21.4442
1.22748 0.231485 21.0145
-0.101475 -0.687913 21.5888
0.624003 -0.115796 21.5531
-0.775052 -0.856177 21.1667
-0.0788509 -0.548333 21.3145
-0.950074 -0.80976 20.7718
-0.320307 -0.696002 21.0644
-0.310631 -0.647326 20.8116
0.80659 0.617977 20.0509
0.915218 0.5746 20.69
0.700849 0.324352 21.2076
0.18651 -0.146956 21.2877
-0.0644597 -0.399027 21.0586
-0.129168 -0.404494 20.8212
-1.115 -0.491183 19.7361
-1.39983 -1.52853 18.2746
-1.10798 -0.901321 19.4101
-1.68926 -0.746077 18.9109
-0.653514 -0.380881 19.4318
-2.62676 -2.05366 19.8916
-1.18224 -0.823438 21.0909
-0.235001 -0.682676 17.3673
-0.931932 -1.327 21.4301
-1.35376 -1.61644 21.4335
-0.304163 -0.83417 21.1892
-0.193175 -0.494499 21.4279
0.10407 -0.00448727 14.4625
-0.00584943 -0.381792 21.4739
0.147969 -0.297433 15.131
0.343039 -0.0877826 19.3474
0.621663 -0.0326586 21.5616
0.435485 0.590091 14.1024
0.551093 0.406038 21.2191
0.738343 0.387905 12.6148
1.14323 1.13447 18.4615
1.28155 0.409943 20.9547
0.497755 1.42352 15.0985
1.02175 1.05064 20.8252
1.60378 1.12633 14.7676
1.50912 1.2691 18.8754
1.32073 0.381244 20.8562
1.13443 1.86133 16.7458
1.18318 1.01576 20.5824
2.01155 1.16941 16.3088
1.14729 0.849862 19.0695
-1.41696 -0.172566 19.6396
-2.70606 -0.308223 16.6427
-2.2482 0.425203 18.9004
-0.910443 -0.108033 19.181
-4.51452 -0.607193 19.8554
-1.58344 -0.45027 21.1055
-2.35643 -0.173517 21.4008
-0.859783 -0.893474 19.3549
-0.609905 -0.683185 21.5216
-1.56899 -1.16321 19.1388
0.0950896 -0.295004 14.5606
0.467007 -0.600727 21.5678
0.352914 -0.0911932 16.0613
1.21773 0.025443 7.53906
1.47693 -0.551731 20.3514
0.40006 -0.328068 1.67982
0.739678 -0.972078 14.1467
2.06937 -0.136213 12.536
1.55411 -0.384932 19.5709
2.57213 0.87019 6.71827
1.38329 -1.21602 15.0896
1.82195 -0.394873 15.6287
-1.16009 0.511884 19.9083
-1.62694 1.95382 18.8879
-0.880623 0.923334 19.9211
-0.910069 0.555414 19.3643
-1.99565 1.31649 20.2631
-1.28344 0.383226 20.7905
-1.99281 1.75447 20.7949
-1.03406 0.914679 20.6724
-1.71502 0.548303 21.015
-0.988327 0.0611123 21.3061
-2.50826 1.64163 21.9303
-0.813939 0.580296 21.2882
-0.908939 0.0600331 21.8296
-0.194303 -0.342546 21.4994
-0.389694 -0.299468 21.4503
-0.209295 -0.107896 21.3856
-0.11858 -0.649815 21.4874
0.206772 -0.639404 21.1761
-0.18711 -0.67488 20.5302
0.0128743 -0.421398 21.0878
0.116021 -0.897606 21.1372
0.323466 -0.729549 20.8387
-0.0236156 -0.982723 19.8388
0.176137 -0.52525 21.0155
0.146396 -0.778106 20.5634
1.36154 -1.51762 18.3212
-0.0138497 -2.11553 18.255
-0.0140213 -2.18166 16.0347
0.00247932 -0.664822 18.7501
-0.162552 -6.92788 22.0558
0.0274858 -0.899915 18.5962
-0.0351006 -1.41283 22.0835
-0.0169772 -0.191699 13.0219
-0.0673815 -0.0706218 14.7264
-0.00264131 -0.282931 19.91
0.0784179 0.100579 12.128
-0.206855 0.763814 14.6548
0.0563223 0.54745 19.3393
0.0657477 0.868929 12.1065
-0.79295 1.52219 16.3369
0.0184492 1.22385 19.2531
0.107322 0.275625 4.79514
-0.00234473 1.47591 13.8946
-1.43421 1.52775 17.467
-0.0727218 1.6895 18.9911
-0.111354 1.94379 9.23707
-0.193501 1.80305 15.141
2.6268 -0.345371 16.7197
-0.0089038 3.35895 14.171
0.0090847 -0.216174 17.9925
-0.662419 -0.0595539 2.9927
0.105335 0.583055 -4.63049
-0.301418 0.461418 -2.21936
-2.38328 0.435799 10.4587
-0.585337 0.792004 -3.54808
-0.545563 1.82983 2.82931
1.57336 1.98376 18.7945
-0.0298616 1.87048 19.5035
-0.003068 1.24883 18.4225
-0.0399414 4.28504 19.8504
1.93236 1.86399 20.8023
-0.0384545 2.04199 20.4805
-0.095085 3.66329 19.9685
2.6267 1.94962 21.9397
-0.0639704 1.87461 21.6261
-0.021357 1.21468 21.6856
0.387389 -0.386532 21.3574
-0.00776126 0.109495 21.593
0.0354075 -0.0396216 15.7894
0.175504 -0.749931 20.7845
0.0102981 -0.286068 21.2036
0.0728168 -0.322463 15.6267
-0.0516398 -1.0438 20.4972
0.013354 -0.390935 21.1082
0.154144 -0.293066 16.3984
1.08961 -0.505842 19.7066
1.0775 -0.904025 19.4014
1.64236 -0.808372 18.8637
0.635429 -0.374738 19.4434
2.59808 -2.26394 19.7477
1.26241 -0.915642 21.1302
0.953966 -1.49206 21.4675
1.41093 -1.78758 21.2984
0.353515 -0.795814 21.2913
0.230739 -0.518058 21.4418
0.0407899 -0.443847 21.5179
-0.0732518 -0.42194 15.3747
-0.330476 -0.014518 19.7396
-0.644907 0.00618302 21.6027
-0.5524 0.473594 21.3784
-0.968547 0.52471 14.4914
-1.11443 0.933336 19.2725
-1.14063 0.298743 21.1981
-1.01058 0.914612 20.8781
-1.70401 0.841521 17.5819
-1.49639 0.909244 19.9211
-1.09924 0.147437 20.9171
-1.15737 0.810265 20.7103
-1.73075 0.726451 18.4964
-1.1791 0.488174 20.9111
1.43414 -0.178448 19.5864
2.2058 0.403882 18.8071
0.885083 -0.125926 19.1941
4.90774 -0.66441 19.2019
1.74998 -0.483383 21.2093
2.56137 -0.0589241 21.6727
0.622483 -0.923093 18.0425
0.677764 -0.711618 21.5385
1.75518 -1.1546 18.969
-0.204211 -0.527397 15.073
-0.552307 -0.616841 21.4307
-0.207808 -0.412689 16.533
-1.33195 0.194564 11.4119
-1.31641 -0.533679 21.0246
-0.85339 -0.9713 16.5102
-2.05112 -0.273039 16.3049
-1.22501 -0.496583 20.7987
-1.18395 -1.10604 17.8222
-1.66355 -0.600125 18.7098
1.20423 0.540479 19.8377
0.883404 0.970255 19.8763
0.887536 0.554761 19.3379
2.05386 1.51796 20.1812
1.35547 0.441457 20.7976
1.04817 0.982294 20.6559
1.79431 0.635861 20.9779
1.05486 0.0818244 21.3342
0.859467 0.662037 21.3153
0.944377 0.0584586 21.9247
0.189369 -0.359558 21.5107
0.218004 -0.110254 21.4096
0.0921294 -0.667449 21.4926
-0.221639 -0.63162 21.175
-0.0133334 -0.436705 21.0947
-0.217964 -0.889547 21.1002
-0.343427 -0.658725 20.7921
-0.186803 -0.538838 21.009
-0.195601 -0.727191 20.6925
-1.38306 -0.894144 19.1614
-1.10987 -1.51713 21.6907
0.0871722 -0.380804 20.0608
0.737544 0.489234 18.7037
1.34589 1.19358 18.481
1.62076 1.19036 18.4296
-2.15063 -0.243276 18.729
-2.19708 -0.955931 21.6429
-0.202901 -0.919886 16.3941
0.386087 0.0374692 12.0452
1.60407 -0.122539 10.8781
2.19199 -0.145311 13.8855
-1.55684 1.06635 19.4983
-1.74749 0.821913 20.8365
-1.61429 0.400122 21.5627
-0.339578 -0.348942 21.7325
-0.00414499 -0.776053 21.3065
0.232273 -1.05479 20.7055
-0.017685 -2.41065 17.3003
-0.00199482 -0.383847 14.7338
0.00382168 -0.0699129 12.1427
0.0825615 0.504029 12.0371
0.0505083 1.00774 12.9467
-0.0764445 1.95225 14.8435
-0.0105937 -0.116029 13.7769
-0.0139077 -0.18484 -1.85959
-0.557796 0.965844 -0.830427
-0.0179911 3.08313 18.2328
-0.0482721 3.25053 20.5603
-0.0809579 4.27445 21.8362
0.0162458 -0.0264106 18.9073
0.069428 -0.153259 15.5549
0.0583595 -0.75627 16.0073
1.33418 -0.894637 19.1766
1.16445 -1.74896 21.8165
0.00345765 -0.464803 20.2384
-0.773801 0.596229 19.2543
-1.36353 0.944537 19.6365
-1.57788 0.846848 20.1164
2.0791 -0.280058 18.6749
2.2917 -1.04038 21.3549
0.318561 -0.990193 15.7759
-0.766689 -0.188282 13.3651
-1.67423 -0.0967535 14.2045
-2.04897 -0.255213 16.9117
1.54321 1.1028 19.4254
1.80135 0.916948 20.8702
1.74714 0.509825 21.59
0.318765 -0.393311 21.726
-0.0477938 -0.801879 21.2886
-0.287756 -0.993804 20.8001
-0.397753 -0.151724 0.464591
-0.140165 -3.01022 5.90259
-0.101524 -0.110243 1.36193
-0.00167286 -0.00861381 -0.0019523
-0.000632017 0.00310091 0.0106778
-0.136485 0.139039 1.65004
-1.4133 0.643434 1.96216
-0.0184672 0.263429 0.490394
-0.581905 0.377289 2.52755
-0.00400462 -0.0134516 0.00223591
-0.0443122 0.00455165 -0.0651801
-0.0511457 -0.0128106 0.0445468
0.471605 -3.08204 6.33442
0.479142 -0.235375 0.598972
-0.00954735 -0.0566061 0.413016
-0.000289807 0.00427527 0.0202955
0.0228198 -0.0244352 -0.00374484
-0.0037182 0.0100841 0.0981534
0.0107031 0.215179 0.428904
0.697998 0.0936722 0.909966
0.375015 0.263526 1.46631
0.0642026 -0.00321529 -0.0415462
0.00867594 -0.0167798 -0.00279131
0 0 0
0.0194065 -0.012097 0.242331
1.30936e-05 1.18635e-05 0.00225501
0.00252702 0.00149974 0.201658
0 0 0
0.00770581 0.0103251 0.172725
0.000281459 2.58215e-05 0.0082526
0.00156298 -0.0003261 0.0504684
0 0 0
-0.241896 -0.130475 0.950368
0.0234445 -0.0729567 0.244558
-0.398352 -0.11015 0.677517
-0.0536422 -0.0044534 0.0557252
0.00979201 0.00889164 0.0350094
0.00193491 0.0079119 0.0419575
0 0 0
0.00181704 0.00292481 0.0739987
0.00372096 -0.00211327 0.165464
-0.000279513 -0.000168942 0.0103863
-1.4006e-05 3.62835e-07 0.00265881
-0.000585091 0.000726804 0.0778404
0.00262353 0.00318081 0.0184246
0.000161579 0.000177763 0.0149121
-3.85655e-05 1.36264e-05 0.00380482
-0.000957074 0.00441656 0.125752
0.327885 -0.175393 1.08041
0.0163148 -0.00196589 0.0139395
0.0168348 -0.168424 0.627588
0 0 0
1.05414e-17 -8.71803e-18 -5.53829e-17
0 0 0
0.00170943 0.00833358 0.0905912
0 0 0
-0.0299452 -0.0172803 0.219991
-0.213816 0.334688 0.35744
0 0 0
0 0 0
-0.000474352 -0.000614105 0.0142554
0 0 0
0.0685405 0.0101371 0.272193
-0.0148249 -0.0207675 -0.00927333
0.00113646 0.0495135 0.654376
0 0 0
-4.60381e-05 0.00179551 0.0266334
0 0 0
0 0 0
0.000215988 0.0165529 0.0629576
0 0 0
0 0 0
0.0126443 -0.0304964 -0.00259588
0.000296324 0.00298739 -0.0073803
0.00939976 0.0307177 0.301506
0.000622272 -0.00506631 0.0190644
0.291212 0.427971 0.468281
0.400284 -0.147796 1.2701
0 0 0
0.00764465 0.00158077 0.318408
0.0375549 -0.0332212 -0.0289076
0 0 0
0 0 0
0 0 0
0 0 0
0 0 0
0.000394877 -0.00446388 0.0174611
-1.86721e-18 5.39437e-18 4.86347e-17
0.00109923 -5.10698e-05 0.0795374
0 0 0
0 0 0
0.00070516 -0.00848624 0.103799
-2.05323e-07 6.27023e-08 5.07268e-05
1.74121e-09 -5.53639e-10 -3.47922e-05
0.000464284 0.00203455 0.0261141
0 0 0
0 0 0
0.000556146 0.00118648 0.0271854
0.00145956 0.00523936 0.0569612
-0.168541 0.382914 0.999531
-0.00150345 0.00516431 0.0523085
-0.000777803 0.0136281 0.0279905
8.98712e-05 0.0128672 0.122726
0.000314641 -0.00216242 0.0271638
-8.15831e-05 1.13104e-06 0.0032333
1.19121e-05 -0.00229853 0.0606245
0.000531217 -1.23738e-05 0.021035
0.000629082 -0.00563319 0.0537931
0.000152137 0.000390118 0.024764
-0.000283745 5.79889e-05 0.00275567
0.188637 0.322808 0.964696
0.00303855 0.00129269 0.117342
-0.0348616 -0.0433663 0.298051
-0.309085 -0.134527 1.5137
0 0 0
0 0 0
0.00057643 -0.000324702 0.0286127
-0.00692461 -0.0172202 0.130702
0.00246749 0.00126302 0.1211
0.00377394 0.0102294 0.0889098
0 0 0
-0.0254915 0.0211853 0.327869
0.0331983 0.0275772 0.135431
0 0 0
0 0 0
0 0 0
0 0 0
-2.10897e-06 4.80054e-08 6.06864e-05