# vtk DataFile Version 2.0
tet_velo
ASCII
DATASET UNSTRUCTURED_GRID
POINTS 29498 float
-0.765 0.055 -2.0787
-0.775 0.075 2.23459
-0.715 0.605 -2.14269
-0.765 0.825 2.16985
0.765 0.055 -2.0787
0.775 0.075 2.21137
0.715 0.605 -2.14269
0.765 0.825 2.16985
-0.763502 0.0664982 -0.640937
-0.758998 0.0810021 0.796827
-0.828917 0.775584 -0.705177
-0.815883 0.819216 0.732337
0.763504 0.0664964 -0.648677
0.752971 0.0870286 0.781347
0.828927 0.775594 -0.705177
0.815877 0.819211 0.732337
-1.56081 -0.334604 -3.19591
-1.55264 -0.278521 -2.04682
-1.5508 -0.264315 -0.609599
-1.53972 -0.270087 0.827869
-1.53745 -0.277092 2.26508
-1.54072 -0.268403 3.41418
-1.54342 -0.248994 4.56298
-1.5549 -0.0201051 -3.22671
-1.55037 0.0530053 -2.07759
-1.55991 0.0843732 -0.639425
-1.54442 0.0898119 0.799311
-1.53867 0.0858238 2.23749
-1.54249 0.094637 3.38685
-1.54549 0.113445 4.53553
-1.53531 0.587134 -3.28915
-1.53005 0.658736 -2.14077
-1.6009 0.781226 -0.702633
-1.58718 0.821827 0.736186
-1.54719 0.829129 2.17484
-1.54854 0.835786 3.32783
-1.55226 0.850044 4.47851
-1.52836 1.60566 -3.37904
-1.53258 1.68735 -2.22977
-1.56569 1.81023 -0.791335
-1.58591 1.8941 0.648192
-1.5807 1.9305 2.08779
-1.57269 1.94514 3.23949
-1.5677 1.95845 4.39058
-0.788921 -0.334848 -3.19693
-0.773283 -0.276564 -2.0484
-0.769707 -0.272373 -0.612493
-0.763544 -0.27719 0.8231
-0.765755 -0.286607 2.25913
-0.768461 -0.276252 3.40892
-0.769567 -0.254865 4.55832
-0.786686 -0.0262061 -3.22757
-0.77151 0.0874063 3.38283
-0.771834 0.107898 4.53142
-0.766982 0.562679 -3.29032
-0.774504 0.831558 3.32531
-0.777439 0.846252 4.4755
-0.746762 1.58968 -3.3805
-0.74259 1.67275 -2.2313
-0.771719 1.80616 -0.792922
-0.797541 1.89549 0.646507
-0.799192 1.93136 2.08587
-0.793446 1.94497 3.23731
-0.789171 1.95773 4.3881
0.747262 -0.334655 -3.19865
0.764112 -0.27643 -2.05057
0.765061 -0.27162 -0.619791
0.761975 -0.273118 0.809575
0.775981 -0.285037 2.24098
0.775866 -0.275028 3.3947
0.776913 -0.253541 4.54731
0.738031 -0.0260925 -3.22854
0.772593 0.0882196 3.36903
0.774478 0.109064 4.52098
0.733287 0.562771 -3.29098
0.768111 0.832174 3.31881
0.77074 0.847252 4.46778
0.801696 1.58996 -3.38215
0.818737 1.67302 -2.23286
0.818119 1.80653 -0.794802
0.792836 1.89606 0.644037
0.772534 1.93212 2.08254
0.768517 1.94587 3.23286
0.769429 1.95874 4.38264
1.52252 -0.334088 -3.20016
1.53978 -0.278022 -2.05223
1.5461 -0.262541 -0.622003
1.53866 -0.264377 0.806253
1.54454 -0.273148 2.23736
1.54848 -0.26549 3.38947
1.55119 -0.246209 4.54223
1.51537 -0.0197515 -3.22967
1.54128 0.0532345 -2.08067
1.5578 0.0853982 -0.649875
1.54223 0.0957448 0.779385
1.54107 0.0891992 2.21062
1.54581 0.0970642 3.36343
1.54913 0.115981 4.51582
1.51257 0.587428 -3.29126
1.53064 0.6589 -2.14213
1.60402 0.78161 -0.706419
1.58729 0.82394 0.728859
1.54589 0.831316 2.16459
1.54408 0.837708 3.3138
1.54705 0.85225 4.46325
1.57666 1.60629 -3.38274
1.59568 1.68799 -2.2334
1.60577 1.81111 -0.795763
1.58576 1.89543 0.6424
1.56101 1.93221 2.08026
1.55219 1.94706 3.23007
1.55054 1.96054 4.37948
-0.774339 0.33 -2.14503
0 0.0512687 -2.08243
-0.769221 0.0557792 -1.35982
-0.836867 0.45 2.26909
0 0.0718461 2.22613
-0.776106 0.0688935 1.51571
0 0.634889 -2.17258
-0.822259 0.740593 -1.42393
0 0.841933 2.18678
-0.807914 0.839581 1.45109
0.774316 0.33 -2.14501
0.769211 0.0557885 -1.36369
0.839235 0.45 2.25985
0.776102 0.068898 1.49636
0.822281 0.740614 -1.42393
0.807891 0.839558 1.45109
-0.767531 0.0674691 0.077945
-0.880394 0.421041 -0.673057
8.83931e-07 0.0665522 -0.644807
-0.89676 0.450109 0.764582
-0.00301327 0.0910598 0.789087
-0.821672 0.796672 0.0135801
4.95225e-06 0.944864 -0.705177
-2.86335e-06 1.22749 0.732337
0.767524 0.0674761 0.066335
0.880393 0.421045 -0.676927
0.896721 0.45312 0.756842
0.821666 0.796666 0.0135801
-0.896342 0.375521 -1.39188
-0.881812 0.435575 0.0457625
-0.896648 0.450055 1.4834
4.41966e-07 0.0528783 -1.36175
-0.00150619 0.0671699 0.07214
-0.00150663 0.0680985 1.50603
0 0.33 -2.36242
0 0.45 2.3846
2.47613e-06 0.795182 -1.42393
1.04445e-06 1.23074 0.0135801
-1.43168e-06 0.970738 1.45109
0.89634 0.375523 -1.39381
0.881923 0.437082 0.0399575
0.89663 0.45156 1.47373
-1.15768 0.0540026 -2.07814
-0.769141 -0.110782 -2.06355
-0.775843 0.0143969 -2.65313
-1.15683 0.0804119 2.23604
-0.770377 -0.105803 2.24686
-0.773255 0.0812032 2.80871
-1.12252 0.631868 -2.14173
-0.740991 0.583839 -2.71651
-0.728795 1.13887 -2.187
-1.1561 0.827064 2.17235
-0.769752 0.828279 2.74758
-0.782096 1.37818 2.12786
0.764556 -0.110715 -2.06463
0.751515 0.0144537 -2.65362
1.15314 0.0541173 -2.07968
0.77549 -0.105018 2.22617
0.773796 0.0816098 2.7902
1.15803 0.0820996 2.211
0.724143 0.583886 -2.71684
0.766868 1.13901 -2.18777
1.12282 0.63195 -2.14241
0.766555 0.828587 2.74433
0.768767 1.37856 2.1262
1.15545 0.828158 2.16722
-1.16171 0.0754357 -0.640181
-0.766604 -0.102937 -0.626715
-1.15171 0.085407 0.798069
-0.761271 -0.0980942 0.809964
-1.21491 0.778405 -0.703905
-0.800318 1.29087 -0.749049
-1.20153 0.820522 0.734261
-0.806712 1.35735 0.689422
0.764282 -0.102562 -0.634234
1.16065 0.0759473 -0.649276
0.757473 -0.0930447 0.795461
1.1476 0.0913867 0.780366
0.823523 1.29106 -0.749989
1.21647 0.778602 -0.705798
0.804357 1.35764 0.688187
1.20158 0.821575 0.730598
-1.55672 -0.306563 -2.62137
-1.55785 -0.177355 -3.21131
-1.17487 -0.334726 -3.19642
-1.55172 -0.271418 -1.32821
-1.5515 -0.112758 -2.0622
-1.16296 -0.277542 -2.04761
-1.54526 -0.267201 0.109135
-1.55535 -0.0899709 -0.624512
-1.16025 -0.268344 -0.611046
-1.53859 -0.27359 1.54648
-1.54207 -0.0901377 0.81359
-1.15163 -0.273639 0.825485
-1.53909 -0.272748 2.83963
-1.53806 -0.0956341 2.25129
-1.1516 -0.281849 2.26211
-1.54207 -0.258699 3.98858
-1.54161 -0.0868832 3.40052
-1.15459 -0.272328 3.41155
-1.54445 -0.0677748 4.54926
-1.15649 -0.25193 4.56065
-1.55263 0.0164501 -2.65215
-1.5451 0.283515 -3.25793
-1.17079 -0.0231556 -3.22714
-1.55514 0.0686892 -1.35851
-1.54021 0.355871 -2.10918
-1.55216 0.0870926 0.0799431
-1.5804 0.432799 -0.671029
-1.54154 0.0878178 1.5184
-1.5658 0.45582 0.767749
-1.54058 0.0902304 2.81217
-1.54293 0.457476 2.20617
-1.54399 0.104041 3.96119
-1.54552 0.465211 3.35734
-1.157 0.0910217 3.38484
-1.54888 0.481745 4.50702
-1.15866 0.110671 4.53348
-1.53268 0.622935 -2.71496
-1.53183 1.0964 -3.33409
-1.15114 0.574906 -3.28973
-1.56547 0.719981 -1.4217
-1.53131 1.17304 -2.18527
-1.59404 0.801526 0.0167764
-1.58329 1.29573 -0.746984
-1.56719 0.825478 1.45552
-1.58655 1.35796 0.692189
-1.54787 0.832457 2.75134
-1.56395 1.37982 2.13132
-1.5504 0.842915 3.90317
-1.56062 1.39046 3.28366
-1.16152 0.833672 3.32657
-1.55998 1.40425 4.43455
-1.16485 0.848148 4.477
-1.53047 1.64651 -2.8044
-1.13756 1.59767 -3.37977
-1.54913 1.74879 -1.51055
-1.13758 1.68005 -2.23054
-1.5758 1.85217 -0.0715716
-1.1687 1.80819 -0.792129
-1.58331 1.9123 1.36799
-1.19172 1.89479 0.64735
-1.5767 1.93782 2.66364
-1.18995 1.93093 2.08683
-1.5702 1.9518 3.81503
-1.18307 1.94506 3.2384
-1.17844 1.95809 4.38934
-0.781102 -0.305706 -2.62266
-0.787803 -0.180527 -3.21225
-0.0208294 -0.334752 -3.19779
-0.771495 -0.274468 -1.33044
-0.00458533 -0.276497 -2.04948
-0.766625 -0.274782 0.105304
-0.0023231 -0.271996 -0.616142
-0.764649 -0.281899 1.54112
-0.000784389 -0.275154 0.816337
-0.767108 -0.281429 2.83403
0.00511294 -0.285822 2.25006
-0.769014 -0.265558 3.98362
-0.769986 -0.0944227 3.39587
0.0037026 -0.27564 3.40181
-0.770701 -0.0734836 4.54487
0.00367263 -0.254203 4.55281
-0.776834 0.268236 -3.25894
-0.0243276 -0.0261493 -3.22805
-0.771672 0.0976522 3.95713
-0.773007 0.459482 3.35407
0.000541444 0.087813 3.37593
-0.774636 0.477075 4.50346
0.00132202 0.108481 4.5262
-0.756872 1.07618 -3.33541
-0.0168478 0.562725 -3.29065
-0.775971 0.838905 3.9004
-0.783975 1.38827 3.28131
-0.00319644 0.831866 3.32206
-0.783305 1.40199 4.4318
-0.00334954 0.846752 4.47164
-0.744676 1.63121 -2.8059
0.0274674 1.58982 -3.38132
-0.757154 1.73945 -1.51211
0.0380735 1.67288 -2.23208
-0.78463 1.85082 -0.0732074
0.0231998 1.80634 -0.793862
-0.798367 1.91342 1.36619
-0.00235269 1.89578 0.645272
-0.796319 1.93817 2.66159
-0.0133292 1.93174 2.0842
-0.791308 1.95135 3.81271
-0.0124646 1.94542 3.23509
-0.00987075 1.95824 4.38537
0.755687 -0.305543 -2.62461
0.742646 -0.180374 -3.2136
1.13489 -0.334372 -3.19941
0.764586 -0.274025 -1.33518
1.15194 -0.277226 -2.0514
0.763518 -0.272369 0.0948919
1.15558 -0.26708 -0.620897
0.768978 -0.279077 1.52528
1.15032 -0.268748 0.807914
0.775924 -0.280032 2.81784
1.16026 -0.279093 2.23917
0.776389 -0.264285 3.971
0.77423 -0.0934042 3.38186
1.16217 -0.270259 3.39209
0.775695 -0.072239 4.53415
1.16405 -0.249875 4.54477
0.735659 0.268339 -3.25976
1.1267 -0.022922 -3.2291
0.773535 0.0986416 3.94501
0.770352 0.460197 3.34392
1.1592 0.0926419 3.36623
0.772609 0.478158 4.49438
1.16181 0.112522 4.5184
0.767492 1.07637 -3.33657
1.12293 0.5751 -3.29112
0.769425 0.839713 3.8933
0.768314 1.38902 3.27584
1.1561 0.834941 3.3163
0.770085 1.403 4.42521
1.1589 0.849751 4.46551
0.810217 1.63149 -2.8075
1.18918 1.59812 -3.38244
0.818428 1.73977 -1.51383
1.20721 1.68051 -2.23313
0.805477 1.8513 -0.0753823
1.21195 1.80882 -0.795283
0.782685 1.91409 1.36329
1.1893 1.89575 0.643219
0.770525 1.939 2.6577
1.16677 1.93217 2.0814
0.768973 1.9523 3.80775
1.16036 1.94646 3.23147
1.15998 1.95964 4.38106
1.53115 -0.306055 -2.6262
1.51894 -0.17692 -3.21491
1.54294 -0.270282 -1.33712
1.54053 -0.112394 -2.06645
1.54238 -0.263459 0.0921253
1.55195 -0.0885714 -0.635939
1.5416 -0.268763 1.52181
1.54044 -0.0843162 0.792819
1.54651 -0.269319 2.81342
1.5428 -0.0919746 2.22399
1.54984 -0.255849 3.96585
1.54715 -0.0842127 3.37645
1.55016 -0.0651136 4.52902
1.52833 0.0167415 -2.65517
1.51397 0.283838 -3.26046
1.54954 0.0693164 -1.36527
1.53596 0.356067 -2.1114
1.55001 0.0905715 0.0647553
1.58091 0.433504 -0.678147
1.54165 0.092472 1.495
1.56476 0.459843 0.754122
1.54344 0.0931317 2.78702
1.54348 0.460258 2.18761
1.54747 0.106523 3.93962
1.54495 0.467386 3.33861
1.54809 0.484116 4.48953
1.5216 0.623164 -2.7167
1.54461 1.09686 -3.337
1.56733 0.720255 -1.42428
[...]
POINT_DATA 29498
VECTORS point_vectors float
-3.44005 -5.28119 10.3628
-0.00411128 0.508453 1.78464
-1.66242 2.07616 3.39195
0.0668005 -0.00972441 0.271638
3.44472 -5.28006 10.3719
-0.10824 0.588945 2.03711
1.65205 2.07902 3.3908
-0.062108 -0.0200158 0.279344
0.00574761 0.00218451 0.182263
0.0264852 -0.0213371 0.395362
-0.219473 -0.0818685 0.448985
4.94872e-05 8.35445e-05 0.000255652
-0.00595764 0.00192099 0.168951
-0.00949473 -0.00547992 0.0830116
0.220724 -0.0825174 0.449178
-5.45269e-05 9.21568e-05 0.000285019
-0.611996 -0.253798 19.8742
-1.20591 -0.61701 20.6303
-0.376891 -0.250565 21.338
-0.0087932 -0.00564336 21.4563
0.362624 0.293315 21.4075
0.630292 0.410383 21.1115
0.632613 0.0303779 20.9603
-0.717588 -0.17174 19.7749
-1.61223 -0.478871 20.5369
-0.557676 -0.355635 21.3745
-0.066291 -0.0798341 21.5422
0.523829 0.238653 21.4854
0.856057 0.321114 21.1292
0.892012 0.0482777 21.1483
-0.699813 0.111522 19.6832
-1.79202 0.243031 20.3368
-1.04975 -0.200167 21.3379
-0.189714 -0.136303 21.6838
0.665379 -0.140631 21.5652
1.03351 -0.285396 21.1509
0.944043 -0.160626 21.0277
-0.39621 0.319231 19.9368
-0.769445 0.624556 20.2878
-0.79121 0.503865 21.0183
-0.276947 0.0917187 21.4754
0.215332 -0.250327 21.3687
0.393328 -0.392903 21.1283
0.388712 -0.403676 20.7611
-0.638438 -0.634911 19.3005
-1.75894 -2.90322 21.2514
-0.295572 -0.104999 21.738
-0.0247653 0.073333 20.8747
0.0030911 0.602979 20.5959
0.228784 1.13199 21.1904
0.312865 1.00296 20.6431
-0.795121 -0.432665 18.9825
0.63334 1.5641 10.9197
1.06874 0.610272 14.1953
-0.769235 0.192687 18.8838
2.46283 -0.243895 11.3485
1.49042 -0.5636 13.8269
-0.327751 0.539561 19.6373
-0.797055 1.44456 20.0201
-0.992677 1.42719 20.9929
-0.349872 0.349215 21.9472
0.199865 -0.496895 21.5195
0.347524 -0.72514 21.1422
0.327864 -0.65266 20.794
0.628209 -0.658942 19.2708
1.75702 -2.93869 21.2506
0.311324 -0.106514 21.7574
0.0514498 0.079614 20.8878
0.00486721 0.749339 20.7563
-0.218064 1.36375 21.1602
-0.28713 1.04123 20.9333
0.769285 -0.464409 18.9017
-0.823077 1.70852 12.1011
-1.15387 0.75274 14.8745
0.728771 0.206497 18.8224
-2.43943 -0.448715 11.3147
-1.534 -0.473052 14.2106
0.343205 0.52964 19.6549
0.836278 1.31883 20.0459
1.00709 1.36025 20.9973
0.360281 0.350524 21.953
-0.179593 -0.515182 21.5293
-0.324202 -0.754721 21.152
-0.290222 -0.657847 20.7716
0.617121 -0.265868 19.8519
1.23295 -0.632288 20.6262
0.392314 -0.263423 21.3456
0.0022847 -0.0052759 21.4788
-0.405485 0.30671 21.4413
-0.693724 0.4291 21.1287
-0.65722 0.0162904 20.7893
0.725626 -0.180461 19.7453
1.63172 -0.482752 20.528
0.571248 -0.362755 21.3781
0.0709568 -0.0866956 21.5674
-0.576367 0.238843 21.5324
-0.92646 0.301537 21.0931
-0.90878 0.0187306 21.0239
0.706237 0.118149 19.6773
1.79063 0.242687 20.3423
1.05228 -0.19858 21.3398
0.196823 -0.143011 21.6985
-0.69329 -0.178384 21.5974
-1.07916 -0.324759 21.1564
-0.95567 -0.200468 20.9721
0.389019 0.30764 19.9565
0.748228 0.584148 20.31
0.766167 0.475032 21.0155
0.284175 0.0885669 21.4805
-0.214696 -0.272161 21.3842
-0.390371 -0.410803 21.1235
-0.389437 -0.424694 20.7613
-1.21971 -0.00643661 2.43563
0.000212914 -0.102515 0.645548
-0.00294178 0.00160237 0.0896477
0.084412 0.148765 0.17045
0.0382091 0.0460948 0.152068
-0.0362784 0.0628038 0.963054
-0.054004 1.53723 1.77333
-0.45777 -0.112939 1.71697
0.0189112 0.0709189 -0.0763169
0.105743 0.0650127 0.302853
1.21441 -0.00590675 2.42528
0.00337001 0.00198491 0.0909613
-0.0851786 0.0417245 0.180063
0.0369203 0.0437456 0.643097
0.45911 -0.11385 1.71568
-0.101101 0.061705 0.30076
0.000193467 0.00124549 0.0951168
0.00018046 -0.00131878 0.0172566
0 0 0
-0.00156912 0.00790812 0.0328529
0 0 0
0 0 0
-0.000167135 0.00122955 0.00347855
9.75517e-05 -0.00275405 0.0341913
0.000162202 0.00146736 0.0998139
-0.000137121 -0.00111141 0.0171522
0.00502667 0.0255769 0.107921
0 0 0
-0.000544344 -0.00867384 0.075845
-0.000121982 0.0011745 0.0113182
0.000837438 0.0051511 0.0459014
2.50798e-09 -8.60968e-10 1.14211e-07
0 0 0
0.00835377 0.0819647 0.251317
-0.00490859 -0.3477 0.857083
0.00201996 0.0118787 -0.00226867
-0.000139275 0.00206452 0.0155715
-3.60508e-06 0.00511484 0.0495032
2.2635e-05 0.00174223 -0.00364581
0.000522274 -0.00884071 0.0746529
0.000103727 0.000994759 0.00955105
0 0 0
-3.10873 -1.45282 20.5744
-2.88221 -4.6091 22.0205
-2.28172 -1.72239 17.9155
0.682532 0.741305 19.6406
-0.258066 0.78714 15.3412
-0.369043 0.902002 7.69176
-3.707 0.917436 19.9937
-2.26053 0.976362 17.302
-1.85504 2.63873 19.6046
1.23014 -0.0526165 19.925
1.31713 0.441084 7.63375
0.634268 -0.807983 20.5518
2.87743 -4.69256 22.0803
2.28984 -1.78794 17.7738
3.14296 -1.47418 20.5697
0.225979 0.983949 15.8145
-0.0531627 1.13412 8.69031
-0.796463 0.773832 19.7862
2.25002 1.02117 17.2166
1.87275 2.48898 19.6506
3.70273 0.919811 19.9947
-1.17657 0.0407992 7.66071
-0.60297 -0.841513 20.5191
-1.25573 -0.139935 19.9882
-0.308237 -0.632275 20.9452
0.0066246 0.187624 15.533
-0.123607 -0.0410725 19.2685
0.189999 0.0116009 14.4746
-1.68401 -0.648861 21.5537
-2.44603 1.8498 20.9173
-0.181985 -0.327306 20.7734
-0.666428 0.27912 22.1123
-0.00617029 0.178687 15.5069
0.33134 -0.651992 20.9348
-0.172029 0.017772 14.1515
0.127348 -0.0440755 19.1846
2.42231 1.74351 20.9416
1.68913 -0.641069 21.5522
0.673967 0.277113 22.1196
0.190548 -0.33547 20.7846
-1.00154 -0.461825 20.087
-0.680681 -0.224864 19.8065
-0.683005 -0.436627 19.6262
-0.779434 -0.458824 21.2288
-1.42661 -0.564662 20.5922
-1.67591 -1.40682 20.7353
-0.156332 -0.118851 21.4117
-0.467006 -0.327277 21.3546
-0.233594 -0.347646 21.529
0.187333 0.172675 21.4882
-0.0422998 -0.0500136 21.4929
0.00641113 -0.0250755 21.4805
0.492661 0.337073 21.2833
0.431824 0.278704 21.4336
0.314103 0.531191 21.3861
0.57319 0.3051 21.001
0.724809 0.410253 21.1529
0.674945 0.75726 20.9365
0.762313 0.0393278 21.0543
0.562576 0.747114 20.2501
-1.23494 -0.357854 19.9288
-0.74467 -0.0415803 19.6903
-0.813782 -0.307183 19.3998
-1.09501 -0.452881 21.2647
-1.85331 -0.150775 20.4338
-0.265053 -0.236184 21.4441
-0.796224 -0.337959 21.3812
0.213797 0.102003 21.6097
-0.105351 -0.121756 21.656
0.704207 0.278878 21.3825
0.655234 0.0670279 21.5639
0.825201 0.240258 20.8784
1.05288 0.17698 21.4625
1.19051 0.931592 20.2207
1.16839 0.0199841 21.2864
0.911586 0.968329 19.9586
-1.28585 0.190217 19.7749
-0.580773 0.282111 19.7982
-0.801762 0.156058 19.3116
-1.49126 0.0236884 21.0902
-1.27795 0.623861 20.2659
-0.648224 -0.215913 21.5581
-1.11426 0.280151 21.1616
0.273397 -0.0926687 21.6852
-0.30429 -0.0170484 21.6297
0.87447 -0.188853 21.4914
0.424798 -0.299584 21.4482
0.862252 -0.17315 21.0915
0.624808 -0.471091 21.0848
1.55596 -0.375934 20.2398
0.51002 -0.406666 20.605
1.29665 -0.389965 20.5862
-0.60052 0.476829 20.0492
-0.413763 0.430486 19.7863
-0.846326 0.58765 20.6851
-0.885328 0.99489 20.1525
-0.602114 0.305929 21.3352
-0.963329 0.853789 21.0323
0.0116389 -0.0963007 21.4748
-0.336615 0.186358 21.6995
0.329792 -0.348756 21.249
0.219338 -0.362538 21.458
0.444183 -0.400659 20.9202
0.410986 -0.559778 21.0644
0.396093 -0.464621 20.6255
-1.40672 -1.77051 19.1719
-0.747333 -0.56812 19.1042
-0.0176331 -0.920443 18.9286
-0.716385 -0.847763 22.2204
-0.0131695 -4.2729 21.7531
-0.113934 0.0432473 21.2257
-0.00146674 -0.518372 20.2566
-0.0383857 0.303857 20.7127
0.00565987 -0.14877 17.9144
0.0795021 0.845234 20.5407
0.125329 0.194561 17.3539
0.52591 1.03834 20.5075
0.38111 1.37572 16.4273
0.205333 0.773049 17.214
0.689915 0.809901 17.4349
-0.00943607 0.649163 13.7679
-0.852555 -0.136382 18.7782
-0.0192667 -0.711677 18.3566
0.60181 1.46256 12.2502
1.60898 0.977725 7.52122
0.020246 0.323341 0.633256
1.79785 -0.0358709 9.46927
-0.0891591 0.382007 5.32594
-0.539798 0.512855 19.248
-0.0154318 0.34025 18.2202
1.90288 -0.877618 12.6646
0.931908 -1.21039 20.3668
0.109116 -1.2963 1.41805
0.664131 -0.885459 21.0442
-0.0182944 -1.49882 7.7334
-0.559689 0.999502 19.6498
0.0157409 0.705293 19.4991
-0.907492 1.47227 20.5648
0.0478316 1.90255 19.858
-0.862395 1.09717 21.6868
0.0461303 2.2297 20.852
0.00410135 -0.189988 21.7925
0.00327861 0.571896 22.2244
0.28443 -0.653376 21.3342
0.0118857 -0.600852 21.645
0.36707 -0.739086 20.8225
0.0220018 -0.893384 21.2005
-0.000210493 -1.01132 20.5944
1.39729 -1.81305 19.1316
0.728509 -0.596691 19.0278
0.673359 -0.453297 19.5929
0.733177 -0.844935 22.2481
1.69898 -1.44302 20.7465
0.129763 0.0447229 21.2454
0.235676 -0.352577 21.5383
0.0705399 0.328716 20.7836
0.00116785 -0.0235556 21.4969
-0.158518 1.07453 20.6429
-0.375585 0.596046 21.4598
-0.58933 1.13046 20.4851
-0.47053 1.57082 17.0565
-0.724354 0.812095 20.9419
-0.716369 0.907791 17.961
-0.600709 0.746596 20.3554
0.821743 -0.13331 18.6963
0.820942 -0.327331 19.3647
-0.776059 1.53119 13.4175
-1.77404 0.968034 8.52072
-1.32993 0.924831 20.3905
-1.95855 0.162538 10.4434
-0.949749 0.940599 20.1805
0.543433 0.511016 19.2559
0.803772 0.158786 19.2842
-1.91268 -1.01472 12.8992
-0.882843 -1.29227 20.44
-1.60612 -0.476001 20.1428
-0.614505 -0.928211 20.9591
-1.2592 -0.476991 20.44
0.588788 0.94718 19.6892
0.419332 0.401977 19.8037
0.935444 1.36976 20.5781
0.889503 0.912524 20.1827
0.874189 1.07764 21.6825
0.951097 0.794006 21.0336
0.00997813 -0.196393 21.8027
0.345915 0.184312 21.7063
-0.261367 -0.681412 21.3401
-0.207918 -0.382717 21.4711
-0.351702 -0.762191 20.8156
-0.40366 -0.584263 21.0618
-0.39071 -0.481244 20.6261
1.01921 -0.470852 20.0742
0.680308 -0.231661 19.7933
0.79466 -0.470156 21.2318
1.4438 -0.576181 20.5852
0.166416 -0.12343 21.4221
0.482159 -0.335676 21.3592
-0.194764 0.162882 21.5129
0.0444066 -0.0553587 21.5184
-0.561729 0.369655 21.2971
-0.475285 0.285201 21.4746
-0.626159 0.304288 20.9518
-0.78627 0.399618 21.148
-0.783 0.0175105 20.9066
1.26186 -0.370021 19.8961
0.758092 -0.041388 19.6687
1.10768 -0.458084 21.2655
1.86485 -0.151306 20.4312
0.278155 -0.24413 21.4475
0.80677 -0.338009 21.3879
-0.216786 0.100288 21.6433
0.113621 -0.129736 21.6759
-0.785284 0.297992 21.3765
-0.704239 0.0502889 21.6119
-0.857197 0.248969 20.8804
-1.10777 0.119225 21.3612
-1.18991 -0.0311303 21.1742
1.30004 0.197584 19.7659
0.579061 0.27628 19.8092
1.49065 0.0252024 21.0933
1.25059 0.59545 20.2811
0.657388 -0.217639 21.5641
1.08931 0.275345 21.156
-0.272158 -0.114313 21.7093
0.311699 -0.0212891 21.6375
-0.922017 -0.240672 21.4878
-0.429983 -0.329445 21.4632
-0.880009 -0.194425 21.1107
-0.628074 -0.506125 21.0895
-0.526948 -0.419306 20.6373
0.594505 0.462416 20.0668
0.822562 0.555585 20.6903
0.594046 0.29717 21.3355
-0.00391757 -0.103934 21.4867
-0.329234 -0.373694 21.2522
-0.440697 -0.426257 20.922
-1.14507 -0.421727 19.994
-1.76081 -1.86676 18.6093
-1.2887 -0.942756 19.7374
-1.81852 -0.758225 19.2835
-0.784104 -0.386908 19.462
-2.29233 -1.54563 20.709
-0.9554 -0.465324 21.2467
-0.342137 -0.301163 18.3319
-0.778383 -0.788533 21.5687
-1.34027 -1.04084 21.8971
-0.243902 -0.478668 21.5236
-0.221283 -0.194326 21.4167
0.136518 0.163462 15.0622
-0.0621716 -0.161883 21.4781
-0.0675806 -0.325048 19.7699
-0.0177349 -0.072639 20.8713
0.192037 0.141812 21.5484
-0.121465 0.376379 14.7531
0.143305 0.246514 21.5041
0.250995 0.396785 19.4854
0.469647 0.643172 20.8241
0.583076 0.333716 21.3059
-0.0913457 0.882695 15.3996
0.456539 0.682647 21.2866
0.870751 0.846536 19.7618
0.98459 0.733736 20.6796
0.604779 0.242829 20.8167
0.224866 1.52125 16.166
0.757595 0.820589 20.4302
1.2347 0.870871 19.952
0.765392 0.965006 19.8544
-1.35587 -0.0864076 19.7812
-2.64941 -0.450834 17.0322
-1.889 0.420094 18.9782
-0.854772 -0.0799962 19.3104
-4.01832 -0.351761 20.2361
-1.34343 -0.244981 21.2329
-2.28798 -0.0077162 21.5849
-0.702695 -0.817673 21.1146
-0.436678 -0.279452 21.5126
-0.942968 -0.732864 21.1788
0.0195857 0.00824573 19.7217
0.28505 0.00923356 21.6895
0.589777 0.047499 20.2201
1.09258 0.576682 18.6492
0.870868 0.0806231 21.4278
-0.0230368 1.36477 2.98156
1.43064 -0.170111 20.0232
1.73554 0.439662 18.9284
1.06713 -0.0157133 21.0611
2.2175 0.903556 10.0324
1.63489 -0.629621 19.533
1.55129 0.141945 16.2241
-0.949275 0.482928 19.8865
-1.12123 1.37513 18.9195
-0.667503 0.747502 19.8534
-0.622215 0.412081 19.5406
-1.76223 1.33566 20.0099
-1.24884 0.476428 20.8155
-1.94979 1.94465 20.7389
-0.96695 0.983273 20.6436
-1.73076 0.64598 21.202
-0.779223 0.101466 21.4959
-2.28669 1.17174 22.334
-0.772006 0.602029 21.4905
-0.489999 0.039201 21.9655
0.116437 -0.170806 21.5967
0.306231 -0.48363 21.362
0.0152944 -0.15604 21.6359
0.534346 -0.521514 21.6101
0.573732 -0.389823 21.2748
0.695266 -0.995195 20.6371
0.322099 -0.502937 21.2623
0.706367 -0.796183 21.1214
0.636473 -0.427198 20.8974
0.862229 -1.26956 20.069
0.405278 -0.490297 20.9853
0.685636 -0.604033 20.7691
1.74645 -1.92721 18.5377
-0.0287434 -2.97587 18.4103
-0.0519058 -3.25596 15.8316
-0.023475 -0.831771 18.5872
-0.00646258 -6.54618 24.0523
0.357688 -0.284094 18.2974
-0.00549161 -1.41243 22.3163
0.00403039 -0.122189 9.26641
-0.125369 0.166702 15.0191
0.00244585 -0.260906 18.7923
0.0192481 -0.0503497 8.53047
0.176232 0.35847 14.9473
0.0330691 -0.0324715 17.4359
0.289303 0.186362 9.68835
-0.0612766 1.23058 16.1322
0.208003 0.361163 17.214
0.41942 -0.224253 0.89641
0.239684 0.749548 9.33988
-0.34731 1.60487 17.0752
0.133361 0.680183 15.3579
-0.181684 0.257497 1.76832
-0.0551823 0.560849 8.00565
2.62844 -0.446931 16.8852
-0.0328476 1.76684 15.2612
-0.0333681 -0.206105 18.11
-0.339409 0.918614 3.56615
-0.00869035 -0.0582389 1.13533
-0.540615 -1.9629 -3.43473
-2.37939 0.906477 10.7556
-0.0604236 -1.67538 4.62402
-0.197501 -0.734575 3.45205
1.13652 1.32972 18.9616
0.0276711 1.29276 19.4477
0.00507229 0.775544 18.8956
0.0829722 4.04759 19.2123
1.94731 1.83715 20.7544
0.0525079 2.05746 20.4631
0.0584827 4.07338 20.0898
2.26646 1.14407 22.3541
0.0231814 1.92674 21.9272
6.28649e-06 0.447044 19.9303
-0.302546 -0.484124 21.2606
0.00557583 -0.214652 21.9131
0.0138506 -0.849149 14.7338
-0.660999 -1.06287 20.6156
0.0173598 -0.828017 21.3644
0.0361378 -1.57806 17.5547
-0.834435 -1.22347 20.2099
0.0197134 -1.09052 21.1664
0.0365813 -1.47906 17.9843
1.16334 -0.433268 19.9806
1.32051 -0.994345 19.7068
1.8646 -0.808733 19.2269
0.771157 -0.403605 19.44
2.3271 -1.57871 20.7108
0.96758 -0.471327 21.247
0.78056 -0.794664 21.5891
1.34697 -1.05114 21.9276
0.252126 -0.493531 21.5214
0.232666 -0.200792 21.422
0.0650935 -0.165906 21.4949
0.0794323 -0.338399 19.7307
0.0254322 -0.0749216 20.8282
-0.197867 0.135612 21.5797
-0.135778 0.261222 21.5551
-0.239178 0.407993 19.3985
-0.559667 0.703183 20.9638
-0.65773 0.356906 21.3018
-0.543145 0.781782 21.3022
-1.08231 0.898887 19.8761
-1.03166 0.806776 20.6777
-0.64697 0.261532 20.8145
-0.797521 0.790248 20.489
-1.28061 0.856951 20.0509
-0.809376 0.940778 20.0674
1.38493 -0.0874018 19.7609
1.90295 0.426202 18.9433
0.863888 -0.0846136 19.2652
4.03855 -0.353592 20.2259
1.34941 -0.244707 21.2368
2.28556 -0.00644337 21.579
0.724721 -0.815671 21.1209
0.446761 -0.282779 21.5272
0.952789 -0.73126 21.1979
-0.0154227 0.00591818 19.6819
-0.2963 -0.00442732 21.7218
-0.577184 0.0103321 20.2604
-1.19435 0.50345 18.9169
-0.951518 0.0615673 21.4004
-1.50642 -0.311642 20.067
-1.86457 0.357279 19.0352
-1.10945 -0.0079979 21.0486
-1.61615 -0.631358 19.4996
-1.6427 0.183307 16.7266
0.938924 0.466606 19.9022
0.6687 0.685957 19.8888
0.621809 0.403636 19.5504
1.73333 1.25244 20.0418
1.22072 0.463166 20.8126
0.964858 0.914509 20.6477
1.68503 0.615996 21.202
0.774548 0.10282 21.4939
0.770087 0.579433 21.4786
0.501202 0.0342029 21.9737
-0.107636 -0.183895 21.6132
-0.00827597 -0.162695 21.6488
-0.524273 -0.565012 21.6329
-0.582195 -0.428972 21.2904
-0.309287 -0.530432 21.2738
-0.704128 -0.835353 21.122
-0.643984 -0.428487 20.896
-0.381093 -0.517488 20.9841
-0.668845 -0.66394 20.7108
-1.57568 -0.91855 19.5098
-0.993498 -0.930704 21.762
-0.0368195 -0.243224 21.1408
0.197966 0.298017 20.9254
0.634967 0.745675 20.8062
0.957995 0.955486 20.1539
-2.03418 -0.180598 18.9892
-1.86517 -0.540943 22.0441
-0.220498 -0.564096 20.277
0.460015 0.383633 19.2805
1.30426 0.587754 18.5687
1.94367 0.588296 19.7888
-1.18748 0.868256 19.4706
-1.73498 0.98081 20.8441
-1.3102 0.325087 21.8037
0.167631 -0.270251 21.8503
0.694966 -0.671603 21.4441
0.75132 -0.797866 20.7713
-0.0356728 -3.32585 17.361
0.0100761 -0.531055 12.4424
0.00801056 -0.0415519 8.81009
0.052722 0.0567021 9.31748
0.509782 0.0366003 9.07063
0.0393269 0.935659 8.93052
-0.039389 -0.737391 14.4905
-0.270126 -0.588554 -2.20716
-0.745094 -3.47344 -2.2278
0.0264153 2.03798 18.2821
0.0699379 3.2753 20.4464
0.0115027 3.65156 22.5205
0.00724304 -0.555309 15.6213
0.0283684 -1.09254 16.1627
0.0108588 -1.30765 17.3755
1.59657 -0.96671 19.4852
0.988151 -0.942013 21.7862
0.0412072 -0.249226 21.1164
-0.191842 0.306876 20.9538
-0.778023 0.844923 20.8668
-1.00307 0.904545 20.302
2.08024 -0.194088 18.9223
1.86994 -0.546036 22.0363
0.23423 -0.570032 20.2671
-0.462783 0.366835 19.2233
-1.51444 0.473124 18.701
-1.94442 0.446696 19.7734
1.17382 0.835406 19.5022
1.70455 0.927723 20.8435
1.29735 0.320293 21.7925
-0.155795 -0.286738 21.8664
-0.698872 -0.735438 21.4542
-0.784182 -0.845873 20.7431
0 0 0
-0.0315326 -0.112233 0.676142
-0.0104799 -0.00204065 0.175414
0.0351757 0.0518289 0.215065
-0.00957558 -0.00214418 0.108011
-0.0755722 0.0565473 0.782524
-2.49832 0.361155 3.35039
-0.787989 2.43497 2.17268
-0.525605 0.144754 2.08382
-0.0434058 0.0216158 -0.0160477
0.0232708 0.0446256 -0.0296975
0.179253 0.0913521 0.780624
0.0319874 -0.112317 0.676477
0 0 0
0.00975755 -0.00150315 0.156022
0.0682752 0.0938853 0.286769
-0.041347 0.0300776 0.181115
0.0759771 0.0929464 0.834572
0.0282588 0.1485 0.375191
2.49659 0.359763 3.33868
0.528343 0.14662 2.0854
0.0189196 0.0304624 -0.018343
0.0308165 0.00477619 -0.00871359
-0.158006 0.0770273 0.787596
-0.00671519 0.0142818 0.149751
0.00400127 0.000145947 0.0913346
0 0 0
0.00015982 1.61451e-06 0.00151338
-0.0148908 0.0123102 0.260877
0.00377316 0.00328341 0.265567
-0.050231 0.0840251 0.569088
0 0 0
-0.0837884 -0.04089 0.266735
-0.00119447 -0.0178701 0.210557
0.000189991 0.000483263 0.0062097
-0.00815537 0.00414797 0.0104517
0.0157016 0.0220424 0.058989
0.0151683 0.0827766 0.301955
1.13299e-17 1.8001e-17 5.54187e-17
0.0787849 -0.00671128 0.403243
0 0 0
-0.00030108 2.45528e-06 0.00272658
-0.0038431 0.000173215 0.0934898
0 0 0
0.0130755 0.00816957 0.202754
0 0 0
-0.00389125 0.00561577 0.320796
0.0113079 0.0237698 0.158427
0.0837928 -0.0409004 0.265511
0.0103756 0.00442327 0.0131008
0.00132786 -0.0186748 0.226934
-0.000235419 0.000593071 0.00755295
-0.0151351 0.021396 0.0583483
-0.0785081 -0.0070712 0.408584
-0.0155641 0.0839405 0.308979
0 0 0
-0.0808532 -0.0186905 0.304169
-1.67395 -2.40444 2.20592
3.14626e-05 -0.000264648 0.00957872
0.000649927 -1.17818 0.64093
0 0 0
-9.12057e-08 1.21104e-09 -7.05885e-07
0.000791954 0.00357899 0.0213775
-0.00430542 0.0130773 -0.00347837
-1.32147e-06 -5.26076e-08 -3.30584e-05
0.0626611 -0.0191114 -0.0270814
0 0 0
-0.00680027 0.091307 0.274969
-0.0131706 0.193358 0.358506
-0.000567196 0.0051964 0.0254427
-0.000855676 -0.00552094 0.0401464
-0.00019131 0.00017479 0.00140668
9.34458e-05 0.000520443 -4.84067e-05
6.01276e-05 0.00012502 -0.0024521
0.00462594 0.023014 0.102889
0 0 0
1.67778 -2.41552 2.2036
0.0718542 -0.0163284 0.270074
5.59052e-08 7.50607e-10 -4.81121e-07
0 0 0
0.00453534 0.00646262 -0.0022683
-0.000778522 0.00308586 0.0203799
0.00225348 0.0206007 0.305693
0 0 0
0.000175523 0.000164357 0.00132613
0.000830487 -0.00543188 0.0388993
0 0 0
-0.00361393 0.0177661 0.0844275
0 0 0
0.00014069 4.49185e-07 0.00187715
0.00632712 -0.0316865 0.202103
-0.000270349 0.00180195 0.0263221
0 0 0
1.30091e-08 1.36465e-09 1.16618e-06
-1.06236e-05 0.000103335 0.000626395
2.1414e-06 9.61455e-05 0.000579101
0.000324058 0.000467488 0.0364466
4.08593e-08 -6.80574e-12 4.6682e-06
7.83434e-05 0.00726777 0.0382039
-0.0223165 0.0300283 0.45113
-0.00171693 0.0037481 0.0481873
-0.000921459 0.0593982 0.1316
3.94205e-05 4.68355e-05 0.0250189
8.38204e-06 0.000144863 -4.08137e-06
-4.39637e-05 1.77436e-07 0.000619264
0 0 0
-0.00806652 -0.0356393 0.225633
0.000267514 0.00176011 0.0255324
4.85879e-06 4.72346e-05 0.000287485
0 0 0
0.0223939 0.0304497 0.455628