# vtk DataFile Version 2.0
tri_press
ASCII
DATASET UNSTRUCTURED_GRID
POINTS 3682 float
-0.715 0.175 -1.87354
-0.653702 0.245 2.015
-0.686229 0.515 -1.905
-0.515 0.901822 1.975
0.725 0.175 -1.87133
0.653711 0.245 2.015
0.69395 0.515 -1.905
0.541779 0.895 1.955
-0.719443 0.173458 -0.57736
-0.745356 0.150445 0.71882
-0.786187 0.800975 -0.611667
-0.683255 0.88406 0.681667
0.725791 0.173779 -0.575887
0.750578 0.148562 0.719557
0.798211 0.796652 -0.618333
0.698098 0.873928 0.668334
-1.45469 -0.196767 -2.88612
-1.45213 -0.109064 -1.85221
-1.44575 -0.113573 -0.555363
-1.42316 -0.153073 0.743248
-1.35601 -0.102838 2.04026
-1.34079 -0.0466041 3.07498
-1.35232 0.00739565 4.10843
-1.45431 0.0496784 -2.90478
-1.45649 0.168452 -1.87136
-1.45575 0.201671 -0.575109
-1.41213 0.177112 0.72236
-1.30497 0.231616 2.01867
-1.30754 0.286832 3.05261
-1.33493 0.339204 4.0858
-1.44387 0.495584 -2.93938
-1.44915 0.610856 -1.90488
-1.48885 0.81485 -0.610633
-1.3712 0.879492 0.684212
-1.21553 0.906871 1.97805
-1.25685 0.956042 3.00895
-1.31297 1.0073 4.04084
-1.42794 1.35208 -2.99522
-1.43201 1.48801 -1.9615
-1.44266 1.69996 -0.670524
-1.41061 1.85195 0.619731
-1.35627 1.92765 1.90994
-1.3412 1.97041 2.94205
-1.35158 2.01384 3.97453
-0.729751 -0.194267 -2.88732
-0.720479 -0.10179 -1.85374
-0.718007 -0.12648 -0.556847
-0.730538 -0.173128 0.741506
-0.694 -0.101508 2.03843
-0.685688 -0.0465584 3.07224
-0.694213 0.00480865 4.10523
-0.730095 0.0412188 -2.9058
-0.668338 0.288542 3.04855
-0.685379 0.337165 4.08191
-0.718741 0.453002 -2.93984
-0.624779 0.953348 3.00317
-0.670716 1.00452 4.03581
-0.69937 1.32281 -2.99645
-0.699383 1.46044 -1.96313
-0.722419 1.69072 -0.673342
-0.722238 1.85353 0.615378
-0.695026 1.92838 1.90461
-0.686148 1.9693 2.93669
-0.694034 2.01198 3.96953
0.71704 -0.195208 -2.88733
0.726951 -0.102265 -1.85274
0.732786 -0.127088 -0.556426
0.727673 -0.175023 0.741082
0.657875 -0.102777 2.03696
0.630244 -0.0489677 3.06765
0.622784 0.00155404 4.09901
0.710044 0.040479 -2.90555
0.609532 0.285894 3.04255
0.610849 0.333647 4.07469
0.708005 0.452079 -2.94056
0.576777 0.948426 2.99086
0.598511 1.00009 4.02621
0.752055 1.32032 -2.99972
0.760096 1.45744 -1.96726
0.733358 1.68627 -0.679752
0.668695 1.84759 0.606123
0.620279 1.92235 1.89359
0.611461 1.96379 2.92599
0.613398 2.00696 3.95985
1.44607 -0.199284 -2.88741
1.45815 -0.111244 -1.85275
1.46152 -0.116757 -0.557587
1.43679 -0.158308 0.738386
1.35093 -0.107684 2.03287
1.30796 -0.0523859 3.06433
1.29576 0.000610095 4.09579
1.44181 0.0473714 -2.90587
1.46169 0.166345 -1.87184
1.46815 0.198001 -0.57837
1.43546 0.170386 0.715147
1.32561 0.226159 2.00827
1.28105 0.280424 3.03931
1.27827 0.331919 4.0714
1.44179 0.492796 -2.94209
1.46018 0.607734 -1.90842
1.50478 0.807324 -0.620834
1.39733 0.866465 0.665512
1.24846 0.895777 1.95317
1.2369 0.94654 2.98747
1.25724 0.998485 4.02255
1.47563 1.34686 -3.00205
1.48304 1.48183 -1.96996
1.45592 1.69128 -0.682979
1.37575 1.84079 0.602353
1.30179 1.9162 1.88947
1.27998 1.95973 2.92184
1.27985 2.00397 3.95586
-0.713407 0.345 -1.90206
0.00500003 0.172762 -1.87467
-0.732458 0.158992 -1.22545
-0.652001 0.573411 2.06265
4.50015e-06 0.221912 2.03809
-0.760485 0.136766 1.36691
0.0038605 0.604986 -1.99499
-0.822155 0.743935 -1.25833
0.0133895 0.883637 1.95023
-0.613321 0.907135 1.32833
0.721923 0.345 -1.90061
0.740788 0.158997 -1.22361
0.665714 0.57 2.05297
0.762697 0.136228 1.36728
0.825668 0.735413 -1.26167
0.630913 0.895439 1.31167
-0.729353 0.164998 0.07073
-0.816672 0.487217 -0.594513
0.0031742 0.16522 -0.576623
-0.863755 0.517253 0.700244
0.00261119 0.172114 0.719189
-0.739077 0.846874 0.035
0.00601223 0.994432 -0.615
0.00742151 1.24873 0.675
0.733912 0.165444 0.071835
0.82446 0.485216 -0.59711
0.862633 0.511245 0.693945
0.75416 0.841295 0.025
-0.843726 0.416108 -1.24189
0.834489 0.415108 -1.24264
0.00408711 0.175105 -1.22453
0.00493637 0.843569 -1.26
0.00443026 0.345 -2.11932
-0.822211 0.502235 0.052865
0.829636 0.49823 0.0484175
0.00289269 0.168266 0.0712825
0.00671687 1.28682 0.03
-0.892207 0.545332 1.34762
0.89233 0.540623 1.33947
0.00130784 0.174063 1.36709
0.0104055 1.06251 1.32
0.006697 0.571705 2.16425
-0.71453 0.26 -1.88813
-0.355 0.172811 -1.87518
-0.72559 0.165135 -1.5495
-0.646559 0.409205 2.03253
-0.326849 0.227685 2.03231
-0.731277 0.1667 1.69096
-0.685506 0.43 -1.88922
-0.341184 0.592183 -1.98218
-0.781992 0.657268 -1.58167
-0.530429 0.737616 1.96575
-0.250805 0.883566 1.95345
-0.537291 0.877609 1.65167
0.365 0.172786 -1.8741
0.724002 0.26 -1.88651
0.734751 0.165141 -1.54747
0.326858 0.228104 2.0319
0.652947 0.4075 2.02722
0.731731 0.167088 1.69114
0.348905 0.592981 -1.98298
0.688235 0.43 -1.88311
0.789954 0.655352 -1.58333
0.277584 0.880128 1.94342
0.55634 0.7325 1.95658
0.558951 0.867825 1.63333
-0.737338 0.154837 -0.901405
-0.726762 0.166864 -0.253315
-0.800031 0.31435 -0.585937
-0.354556 0.176496 -0.576992
-0.765221 0.131306 1.04287
-0.721897 0.173179 0.394775
-0.87297 0.299642 0.709532
-0.364688 0.174649 0.719004
-0.807924 0.776208 -0.935
-0.820983 0.653873 -0.60309
-0.764803 0.826095 -0.288333
-0.419938 0.957404 -0.613333
-0.652873 0.900182 1.005
-0.815403 0.721605 0.690955
-0.710767 0.865067 0.358333
-0.417316 1.22519 0.678333
0.744835 0.154843 -0.899748
0.361138 0.176189 -0.576255
0.732065 0.167398 -0.252026
0.807521 0.3133 -0.586498
0.76734 0.131693 1.04342
0.371334 0.17086 0.719373
0.72582 0.173428 0.395696
0.872035 0.297189 0.706751
0.817998 0.772091 -0.94
0.430633 0.952585 -0.616667
0.829067 0.649799 -0.607722
0.777919 0.820707 -0.296667
0.670319 0.890497 0.99
0.433979 1.22377 0.671667
0.819329 0.712069 0.681139
0.727997 0.85948 0.346667
-0.825381 0.380554 -1.57198
-0.354489 0.345 -2.03097
0.00454357 0.176629 -1.5496
0.00471514 0.258881 -2.0078
-0.844542 0.28755 -1.23367
-0.364185 0.173359 -1.22499
-0.824141 0.559371 1.70514
-0.322652 0.572558 2.14661
0.000656172 0.188309 1.70259
0.00335075 0.396809 2.11789
-0.881113 0.341049 1.35727
-0.379589 0.179946 1.367
0.00439844 0.755895 -1.62749
0.00414538 0.474993 -2.15258
-0.842406 0.580022 -1.25011
-0.40861 0.823943 -1.25917
0.0118975 0.969784 1.63511
0.0100432 0.727671 2.06802
-0.878317 0.726233 1.33798
-0.301458 1.05039 1.32417
0.820243 0.380054 -1.57163
0.363177 0.345 -2.03102
0.835387 0.287052 -1.23312
0.372438 0.173405 -1.22407
0.827637 0.555311 1.69622
0.336205 0.570853 2.14544
0.881239 0.338426 1.35338
0.382003 0.179352 1.36719
0.83754 0.57526 -1.25215
0.415302 0.823751 -1.26083
0.884697 0.718031 1.32557
0.320659 1.052 1.31583
-0.808901 0.317057 0.0617975
-0.357423 0.178246 0.0710063
-0.84758 0.451662 -0.918203
-0.819322 0.494726 -0.270824
0.00363065 0.176739 -0.900576
0.00303344 0.16743 -0.25267
-0.826067 0.509744 0.376554
-0.894813 0.531292 1.02393
0.00275194 0.176348 0.395236
0.00195952 0.17244 1.04314
-0.822448 0.695456 0.0439325
-0.460505 1.2555 0.0325
0.0054743 0.901267 -0.9375
0.00636455 1.17284 -0.2925
0.00706919 1.28887 0.3525
0.0089135 1.1664 0.9975
0.816289 0.31458 0.0601263
0.362839 0.177981 0.0715588
0.838627 0.450162 -0.919874
0.827056 0.491723 -0.274346
0.832797 0.504738 0.371181
0.894891 0.525934 1.01671
0.8312 0.689414 0.0367088
0.473976 1.25113 0.0275
-0.827069 0.273775 -1.56074
-0.847883 0.308944 -0.909804
-0.844807 0.612059 -0.926601
-0.821075 0.505011 -1.57682
0.820408 0.273526 -1.55955
0.819085 0.50263 -1.57748
0.839419 0.608097 -0.929937
0.839598 0.308275 -0.909811
-0.359593 0.176649 -1.54955
0.368719 0.176655 -1.54854
0.36846 0.174504 -0.900162
-0.36116 0.174462 -0.900991
-0.374897 0.737815 -1.60458
-0.399348 0.88309 -0.93625
0.408707 0.882475 -0.93875
0.382104 0.737817 -1.60541
-0.354744 0.259441 -2.00421
-0.347836 0.452497 -2.0968
0.356041 0.452497 -2.0962
0.364088 0.259441 -2.00425
-0.804572 0.31565 -0.26207
-0.818782 0.319426 0.385665
-0.832859 0.715497 0.367444
-0.822394 0.675003 -0.279579
0.811869 0.313958 -0.263186
0.830585 0.669832 -0.285506
0.842222 0.70922 0.358924
0.818511 0.31871 0.383439
-0.356 0.177349 -0.252993
0.362019 0.177025 -0.252348
0.365417 0.177759 0.395466
-0.360039 0.178481 0.395005
-0.449601 1.12521 -0.290417
-0.449773 1.26207 0.355417
0.464693 1.25888 0.349583
0.461352 1.11995 -0.294583
-0.886467 0.337449 1.0334
-0.831076 0.375127 1.69805
-0.759668 0.731925 1.6784
-0.895213 0.713445 1.01447
0.886359 0.334165 1.03006
0.895264 0.705309 1.00335
0.768756 0.725265 1.66478
0.831417 0.372963 1.69368
-0.375481 0.177052 1.043
0.379299 0.17676 1.04328
0.35443 0.197362 1.69687
-0.353219 0.197526 1.69677
-0.319687 1.15231 1.00125
-0.276132 0.958278 1.64339
0.299122 0.958046 1.63422
0.336709 1.1536 0.99375
-0.32475 0.403007 2.12161
0.331532 0.402154 2.11961
0.306895 0.730086 2.04536
-0.286729 0.732644 2.04739
-0.718106 0.2175 -1.88417
-0.535 0.177732 -1.87053
-0.723118 0.167245 -1.71152
-0.63947 0.327103 2.01311
-0.490275 0.219574 2.04043
-0.698394 0.199946 1.85298
-0.657854 0.4725 -1.8691
-0.513707 0.566647 -1.95665
-0.747048 0.599071 -1.74333
-0.451637 0.819719 1.8993
-0.382903 0.915428 1.98696
-0.482417 0.845987 1.81333
0.545 0.177713 -1.86889
0.727744 0.2175 -1.88216
0.732709 0.167238 -1.7094
0.490284 0.224308 2.03569
0.642352 0.32625 2.01013
0.698704 0.200061 1.85307
0.521428 0.566611 -1.95661
0.66414 0.4725 -1.8671
0.755113 0.598336 -1.74417
0.409682 0.86842 1.93007
0.479998 0.81375 1.88673
0.506742 0.83779 1.79417
-0.741732 0.150806 -0.739383
-0.720499 0.172764 -0.415338
-0.807226 0.220159 -0.581648
-0.542575 0.163825 -0.577176
-0.767857 0.128307 0.880843
-0.742517 0.152922 0.556798
-0.875542 0.191854 0.714176
-0.561726 0.149139 0.718912
-0.796624 0.788159 -0.773333
-0.815551 0.733407 -0.607378
-0.776082 0.814122 -0.45
-0.610998 0.89506 -0.6125
-0.66779 0.891848 0.843333
-0.782083 0.81921 0.686311
-0.697137 0.87469 0.52
-0.575054 1.10416 0.68
0.748826 0.150798 -0.737817
0.549092 0.16373 -0.576071
0.726346 0.173171 -0.413956
0.807912 0.222911 -0.581193
0.770094 0.128993 0.881487
0.568862 0.143899 0.719465
0.745749 0.153445 0.557626
0.874259 0.1914 0.713154
0.807149 0.783415 -0.779167
0.621813 0.8894 -0.6175
[...]
POINT_DATA 3682
SCALARS point_scalars float 1
LOOKUP_TABLE default
-90.2847
-42.9555
37.7105
-34.5812
-107.824
-42.9122
29.9377
-34.8631
-34.141
-31.5504
-43.3901
-47.8587
-34.0636
-30.9954
-42.4283
-47.815
-39.1703
-86.0409
-46.4438
-45.0522
-48.7425
-41.5401
-39.3269
-39.1703
-87.3555
-47.986
-38.972
-46.1565
-38.1895
-37.3226
52.5129
-103.127
-41.9797
-34.8301
-39.9539
-36.8296
-36.866
52.5129
-54.4738
-57.4333
-59.4925
-41.8045
-34.5812
-33.3105
-21.8905
-136.694
-33.3285
-36.3384
-45.429
-39.385
-36.6359
89.8025
-37.2014
-36.6359
166.114
-36.2753
-36.38
104.717
-35.4897
-27.075
-61.798
-34.1223
-33.3105
-31.4693
-33.9992
-124.136
-34.1295
-37.8046
-45.2041
-38.7162
-36.5591
89.7343
-37.2151
-36.5591
169.94
-36.1964
-35.9238
104.181
-35.8111
-28.0232
-65.5072
-33.894
-33.7155
-31.9486
-22.3881
-74.8239
-45.305
-44.5467
-48.6043
-41.5632
-39.3332
-22.3881
-88.9485
-46.8206
-39.8378
-46.9289
-38.1211
-37.3047
32.224
-119.78
-40.953
-29.9782
-40.5527
-37.1125
-36.9548
32.224
-56.2769
-69.2826
-59.9435
-41.109
-33.7155
-33.7155
17.0989
-102.293
-47.813
-37.4834
-42.7132
-45.4375
30.8551
-57.3628
-31.4935
-41.9341
20.093
-46.8565
-37.8414
-45.5603
-56.8299
-42.3253
-28.5297
-37.1043
-34.6001
-26.3166
-35.0446
-55.4303
23.8021
-58.7101
-29.0497
-37.3463
-26.5974
-55.3806
-57.0001
-54.5726
-47.5372
-20.0596
189.723
-34.1374
-34.9596
-33.4043
-109.765
-51.1362
-50.4486
-41.4249
-36.0554
-33.9423
-44.2348
-107.489
-64.4935
-38.7855
-43.4349
-50.21
40.2097
34.3598
-64.7829
-34.7623
-31.7954
-35.8605
-107.673
-45.728
-63.5719
-43.3999
-39.0072
-50.1162
34.0658
41.9826
-71.0375
-31.6353
-34.9033
-36.0968
-40.0186
-30.3351
-35.4664
-33.8933
-42.1494
-27.4906
-30.2151
-35.8057
-46.2911
-39.7512
-55.0574
6.02899
-46.6001
-37.1848
-51.4648
-57.3323
-38.9907
-33.5851
-29.8456
-35.194
-41.9084
-35.31
-26.7412
-30.0005
-45.1834
3.34003
-39.6095
-52.3733
-46.5999
-57.77
-36.894
-51.9156
-76.9254
169.375
-64.133
196.61
-54.217
-47.5795
-45.58
-35.9611
-44.5478
-35.1379
-50.4308
-41.967
-18.4276
188.22
-60.6875
-29.7187
-32.6605
-29.6564
-53.9122
-36.6414
-81.2215
169.996
-52.273
-47.4861
-45.8931
-36.1072
-49.8456
-42.1023
-58.1409
-29.7829
-53.3945
-36.8653
-31.129
-32.5049
-47.8044
-35.1501
-38.074
-33.0725
-30.9328
-46.9685
-32.661
-38.5111
-41.1751
-101.725
-3.61357
-18.4651
-82.8416
-43.8845
-31.7903
-32.5623
-44.6175
-35.8335
-31.9739
-46.5912
-41.568
-102.867
-72.4026
-46.997
-48.1212
-75.0222
-76.0166
-84.2075
-45.4673
-43.6321
-63.5717
-63.6519
-38.1662
-38.3364
-25.7149
-15.4486
-15.4759
-24.9231
179.013
167.776
166.805
180.422
-32.3529
-26.7685
-39.4667
-41.168
-32.8568
-41.2468
-39.2065
-27.4903
-32.0797
-32.1217
-31.8391
-31.7436
-24.019
-74.9809
-75.0868
-24.2809
-46.0142
-49.3168
-41.8535
-48.2415
-45.7617
-46.9667
-42.1419
-49.4306
-38.9929
-39.1601
-45.0336
-44.8261
-44.2957
-33.0837
-33.1413
-44.6883
-37.3302
-37.4345
-32.7148
-32.3724
-36.8822
-109.107
-92.2229
-39.3426
-43.5172
-45.4981
45.0114
31.0517
-36.9969
-35.3848
-31.6756
-34.6436
-111.126
-73.9177
-91.1554
-43.3622
-39.0271
-45.5093
29.9798
40.8892
-41.9208
-32.0772
-34.6416
-34.5246
-41.5908
-30.2669
-34.0507
-33.7193
-44.0998
-28.7785
-34.3677
-37.3661
-41.8617
-42.1061
-51.848
-20.1768
-46.7338
-43.9081
-49.2175
-53.3735
-41.2326
-33.7874
-30.5801
-33.7697
-44.8445
-36.5621
-28.3771
-34.7377
-40.7429
-21.6422
-41.5808
-49.0496
-46.7007
-53.3627
-42.8086
-49.6958
-9.13219
39.1611
-103.907
111.777
-102.223
-102.302
-75.8504
91.4953
-55.2882
-42.9997
-52.3211
-47.6297
-37.8462
-35.2568
-40.2832
-36.581
-42.5645
-42.3944
-43.7873
-37.4665
-51.8925
-42.8238
-49.2044
-43.3671
34.9551
36.2052
-5.22264
100.797
-57.1189
-54.3344
-64.0856
-40.1802
-31.6063
-31.5818
-30.7675
-28.6496
-38.4337
-45.2051
-49.5044
-38.0628
-10.7247
43.9661
-113.051
107.501
-53.9313
-42.072
-50.6341
-47.2883
-38.0461
-35.3747
-40.3648
-36.6932
-52.4953
-42.6764
-49.509
-43.4655
-60.0254
-50.5711
-61.4442
-39.918
-38.7556
-45.6846
-50.7067
-38.6404
-29.7101
-29.416
-29.1469
-30.8884
-36.351
-38.2794
-46.0871
-35.3899
-34.5536
-33.8005
-35.8619
-33.8304
-27.6292
-31.6854
-29.0422
-44.6198
-37.2999
-36.0675
-33.7246
-37.3465
-56.1734
-53.9641
-47.9831
-72.4249
20.7815
20.0383
11.7239
14.8669
-58.4967
-58.7109
-69.9
-50.479
-30.0042
-29.7118
-29.7577
-31.0956
-36.2405
-38.3743
-43.2345
-36.0026
-27.199
-32.3742
-30.0075
-43.886
-56.2399
-53.8754
-47.9943
-72.3103
-69.0571
-55.7622
-58.6613
-51.2898
-64.0492
-53.4995
-56.1636
-48.077
-54.6687
-47.408
-47.4353
-42.1664
-23.7445
-22.5746
-22.5503
-12.5633
185.728
192.72
201.773
185.051
-32.1475
-34.8868
-32.7813
-36.9946
-33.0971
-35.637
-33.706
-37.6744
-33.3075
-32.816
-31.9945
-33.2685
-108.178
-89.2551
-98.6038
-108.151
-53.7804
-50.6821
-52.3205
-48.3921
-53.9619
-49.7232
-51.4004
-48.0439
-44.1043
-41.3741
-41.5673
-39.9043
-33.8099
-36.1421
-36.236
-39.3578
-34.4643
-35.0012
-30.4715
-34.6476
-89.8902
101.005
-76.5413
77.413
-68.0957
-63.1049
-42.3736
-37.5839
-43.9277
-37.5878
-49.8238
-45.659
-109.002
136.314
2.62754
102.792
-70.3334
-36.9683
-37.8987
-33.8773
-31.5833
-31.4428
-38.6677
-33.7891
-76.6263
91.0182
-94.2895
88.0061
-70.7022
-62.8459
-43.9029
-37.6101
-42.4304
-37.5876
-49.9701
-45.8172
2.84451
102.84
-115.194
138.56
-80.6631
-37.6
-31.6697
-32.2105
-38.1963
-33.9539
-39.437
-34.062
-45.2608
-39.1795
-30.5905
-31.3446
-46.0672
-32.9364
-37.381
-33.5735
-44.618
-40.0474
-27.8834
-30.5362
-23.9068
-46.9927
-32.7061
-38.6773
-48.8595
-26.9479
-44.6385
-40.1671
-47.0832
-80.9529
-4.49769
0.610941
-49.9747
-45.8677
-38.1586
-31.4808
-46.8418
-59.7948
-65.9862
-50.3443
-42.0264
-38.7721
-37.3322
-33.6075
-30.9143
-31.3777
-44.2758
-33.2464
-44.4008
-40.1622
-33.2084
-38.5849
-25.1613
-29.774
-24.2266
-46.8747
-45.932
-26.9889
-4.57952
0.819354
-42.0461
-40.0745
-46.2825
-80.8674
-48.0486
-46.4903
-66.1103
-50.8015
-40.3992
-30.224
-47.0195
-59.5604
-74.6905
-77.8395
172.252
173.788
-63.1048
-63.2266
194.056
191.649
-66.2221
-49.0191
-54.4903
-42.4264
-47.2429
-43.1475
-36.88
-33.6094
-44.8272
-44.8673
-35.8604
-35.8956
-46.8909
-54.8474
-40.5476
-44.6634
-19.5338
-19.5307
188.124
188.679
-53.1502
-73.5448
-31.3763
-22.7499
-32.6975
-32.7712
-30.7976
-30.4564
-48.6177
-50.9983
-39.8464
-34.3553
-78.593
-84.36
173.303
172.421
-61.0791
-46.3194
-54.5
-42.2999
-43.512
-47.451
-36.9185
-33.9087
-46.6159
-55.2766
-40.6502
-44.5176
-67.9727
-49.8632
-22.7902
-32.0671
-50.2697
-49.1951
-34.5426
-40.271
-31.8589
-29.484
-32.2507
-30.9994
-47.5081
-48.1451
-33.3334
-37.5631
-37.7666
-37.7802
-32.7993
-32.9973
-28.1717
-34.2613
-46.5656
-47.6052
-32.2584
-32.3047
-38.6502
-38.8168
-40.0042
-41.6009
-76.538
-88.0075
-6.15373
-6.36005
-17.9491
-18.2765
-81.6881
-81.9256
-43.9394
-44.1448
-32.4207
-30.6522
-32.3528
-30.9921
-44.9462
-44.295
-34.0805
-38.0723
-35.122
-29.6194
-46.221
-47.1522
-42.0268
-40.3261
-86.4776
-76.5549
-92.8297
-63.2983
-67.908
-92.9356
-45.3726
-46.0936
-50.3705
-46.7142
-44.1273
-55.0534
-52.0192
-45.1558
-84.4209
-111.981
-70.4827
-71.0993
-91.6708
-102.052
-62.692
-58.8128
-95.1681
-69.3617
-65.6638
-122.845
-42.6205
-42.6627
-48.9113
-51.8198
-44.6683
-44.9657
-47.3199
-43.7315
-80.6425
-76.8312
-54.6874
-54.2648
-80.2479
-54.3131
-54.6317
-76.8195
-39.2409
-37.0184
-42.1366
-42.2322
-39.6173
-42.6096
-42.1985
-36.2638
34.8497
-46.467
-25.2735
-4.94708
-23.6723
8.45268
-14.9355
-33.7167
-26.1718
-33.1465
-15.1078
8.53249
35.2843
-4.76738
-25.7355
-48.0072
19.978
123.324
185.778
94.3065
128.14
99.6551
194.771
114.758
124.459
98.0025
194.851
100.165
20.159
67.4647
185.785
115.559
-30.963
-30.0578
-32.9599
-33.8946
-20.5845
-25.5671
-30.6798
-27.4299
-44.7803
-47.3396
-35.745
-33.2591
-44.588
-37.3043
-37.5884
-48.3198
-31.1145
-34.4653
-33.7578
-30.589
-43.5677
-48.0196
-38.2368
-37.6898
-45.702
-34.6583
-36.502
-47.5282
-20.7373
-29.1283
-31.7813
-26.025
-32.2277
-33.6398
-32.6224
-30.9834
-32.2084
-31.1639
-32.6449
-33.7315
-32.3576
-34.0753
-31.6399
-30.5207
-31.681
-30.5993
-31.6214
-33.4439
-46.8125
-80.9196
-83.4526
12.1723
-56.1268
-68.7123
-95.5202
-64.8616
-56.0538
-64.67
-95.5268
-68.947
-52.1669
12.1353
-83.3623
-79.715
-44.9902
-45.4169
-47.6191
-46.53
-42.9581
-41.1687
-55.3652
-55.8091
-34.798
-43.9745
-51.8477
-38.1293
-41.9586
-37.8578
-49.0162
-51.7284
-44.8328
-46.1854
-47.3761
-45.12
-40.4813
-51.4465
-48.6147
-36.6664
-34.9054
-38.423
-52.1169
-45.1199
-42.9829
-56.1179
-55.7095
-41.3018
-38.6846
-37.222
-40.0869
-41.72
-39.1086
-41.7302
-40.2358
-37.3942
-44.3936
-43.7802
-43.9231
-45.693
-44.1804
-45.4996
-43.5323
-43.8924
-49.8174
-41.488
-39.44
-50.2789
-33.2533
-30.8175
-33.9089
-35.2871
-33.4731
-35.8581
-33.9926
-30.9589
-50.3021
-50.5156
-39.5682
-42.0616
-37.5281
-37.4583
-35.0105
-36.8182
-37.5315
-36.8721
-35.0066
-37.5376
-33.8601
-29.7204
-31.8721
-34.9996
-34.7826
-34.8459
-31.6418
-29.4234
-63.0361
-128.752
-119.258
-40.6266
-43.2721
-44.5143
46.8934
39.6257
-3.44904
-35.6239
-33.3566
-35.0711
-124.347
-89.4468
-108.53
-43.2056
-40.6152
-44.3955
36.7139
34.3391
-3.86862
-32.2047
-35.1738
-34.5667
-39.563
-31.309
-34.5622
-33.4353
-36.8389
-33.0202
-33.5164
-33.9914
-42.4463
-43.2592
-49.5178
-37.5252
-47.1668
-47.6999
-48.5532
-49.7143
-39.9309
-33.563
-31.192
-34.237
-38.3234
-32.0162
-32.0253
-35.1949
-41.0866
-37.3362
-42.4907
-46.507
-47.2302
-49.4992
-46.5257
-48.5491
17.0803
40.7431
-100.043
100.115
-102.317
-102.438
-86.7592
59.7996
-51.1177
-45.1165
-50.8903
-47.6322
-37.9147
-36.0225
-38.7156
-36.8663
-42.5318
-42.563
-43.2804
-39.1151
-47.1846
-43.9828
-47.8466
-44.3416
31.2096
31.5635
15.0868
46.5612
-57.8194
-55.6251
-63.4713
-48.4516
-31.5522
-31.5456
-31.3291
-28.5906
-39.8599
-43.6875
-44.2825
-39.7814
14.1547
22.8332
-106.368
93.8101
-50.0902
-44.1255
-49.2279
-46.9205
-38.116
-36.5157
-38.8191
-37.0615
-47.6811
-43.9431
-48.2561
-44.553
-57.5804
-53.7251
-61.2411
-47.5479
-40.216
-44.0675
-45.8187
-40.3143
-29.3197
-28.4244
-28.7058
-29.6696
-36.6275
-37.5908
-41.6488
-35.9524
-34.5833
-34.4309
-34.5158
-34.5227
-26.7553
-27.9488
-27.9589
-35.1113
-35.7916
-34.7365
-33.6475
-36.695
-56.0254
-54.8259
-52.2233
-61.6205
23.1328
23.1304
19.7882
21.8993
-58.6338
-58.754
-63.4302
-54.6606
-29.6361
-29.1498
-28.9631
-29.936
-36.9112
-37.8853
-40.2358
-36.3684
-26.538
-28.6437
-28.2123
-34.7637
-55.953
-54.7712
-51.9782
-61.5517
-61.4566
-56.5361
-57.8502
-53.9725
-58.6028
-54.093
-55.3106
-50.9248
-50.9827
-47.5602
-47.5854
-44.6175
-22.3715
-20.6963
-20.7164
-16.5474
189.428
191.126
189.933
189.33
-33.0589
-34.5554
-33.5848
-35.4312
-33.9462
-35.3801
-34.4345
-36.201
-33.3135
-32.915
-32.8821
-33.2728
-109.517
-109.752
-105.431
-109.575
-53.633
-50.9749
-51.4757
-49.428
-53.3419
-50.0962
-50.7612
-48.9937
-42.4383
-41.3179
-41.4258
-40.6144
-34.8571
-36.0626
-36.1062
-37.5542
-34.2517
-35.5088
-31.4687
-34.2293
-36.7097
-44.3862
-85.2923
72.0866
-109.53
-104.299
-89.2106
50.8278
-73.7205
-59.6538
-65.7615
-62.9213
-39.1594
-38.182
-40.8849
-37.8033
-42.7851
-43.0966
-43.4582
-39.2961
-47.716
-51.5109
-50.438
-47.2304
44.7436
52.0448
-61.0831
107.238
27.8223
36.5365
13.5023
50.4292
-59.4329
-63.5747
-69.3674
-51.1155
-34.9508
-35.0163
-36.1957
-34.3916
-31.6009
-31.7594
-31.7747
-30.4312
-34.9936
-36.8819
-36.416
-34.8218
-109.9
-104.485
-89.2424
63.734
-56.9595
-34.4501
-89.952
82.6452
-73.1466
-58.0717
-67.0057
-62.4139
-42.9277
-43.0791
-43.4553
-39.2751
-39.1598
-38.2316
-40.9082
-37.9224
-47.6709
-51.5756
-50.357
-47.4034
26.6397
36.0742
12.3345
50.663
42.4302
45.2927
-61.0033
95.9255
-68.2419
-72.7664
-78.6667
-55.0558
-31.8218
-31.6833
-31.752
-31.1466
-35.0838
-35.1359
-36.4595
-34.444
-35.0998
-37.228
-36.8088
-35.1309
-39.5274
-41.0765
-42.0998
-39.4277
-29.7937
-30.037
-30.3621
-30.8348
-34.1926
-36.1122
-40.0927
-33.7613
-33.7782
-34.2766
-35.97
-33.2752
-42.2073
-42.2387
-44.9954
-41.0389
-24.4415
-30.7977
-29.0208
-28.5566
-32.9519
-28.5478
-23.1773
-42.2696
-35.5059
-37.0668
-33.3851
-38.2697
-43.4589
-50.5119
-48.703
-37.945
-40.7422
-38.7696
-41.3496
-39.6122
-53.1355
-56.3638
-50.4958
-66.0965
-5.66399
15.8214
1.77422
6.10675
-46.892
-45.8962
-48.4423
-45.9019
-39.7443
-34.8513
-38.6132
-32.9688
-50.2726
-53.0012
-50.3315
-54.467
-56.7629
-58.1429
-61.5726
-53.9326
-38.6072
-40.1173
-40.0609
-38.8167
-33.7308
-33.5799
-35.551
-33.1679
-29.5883
-30.3129
-30.3062
-30.878
-33.9441
-35.8176
-39.4099
-33.8742
-42.0314
-42.0752
-44.8216
-40.9954
-35.2672
-36.5721
-32.9521
-38.3063
-24.2775
-29.9887
-24.9085
-28.1505
-32.9426
-28.309
-23.4047
-42.1775
-43.2909
-48.031
-46.6733
-37.5261
-9.23212
14.8418
1.83409
4.20738
-40.3282
-38.8438
-41.0095
-39.4995
-50.3622
-55.6128
-49.5297
-61.4146
-46.862
-46.574
-48.7576
-46.4508
-57.0181
-58.3335
-62.0555
-54.565
-39.3399
-34.636
-38.7313
-32.5183
-50.9402
-53.1038
-50.4183
-54.6491
-80.1713
-75.522
-75.6113
-77.9569
135.479
177.642
169.719
166.471
-69.611
-58.6221
-63.7313
-63.9671
155.658
197.998
197.794
197.749
-53.5162
-55.1853
-58.3875
-51.4916
-47.7039
-47.4772
-50.8975
-44.5422
-42.5177
-49.8854
-46.6492
-44.0468
-36.448
-34.8508
-36.6348
-34.7636
-43.8651
-45.0593
-44.6437
-44.7273
-36.098
-34.7661
-35.265
-35.2754
-50.0824
-50.5406
-48.0536
-52.2103
-42.7336
-41.556
-41.2541
-42.765
-13.9823
-22.1965
-18.258
-18.3197
149.568
206.494
189.47
186.95
-62.302
-59.5879
-56.9527
-65.4986
-33.8214
-25.4591
-31.1407
-26.9353
-31.4145
-33.2446
-32.652
-32.6876
-29.0096
-30.2293
-30.0419
-29.8085
-52.8878
-53.6097
-52.9534
-52.4028
-37.2065
-36.3102
-38.1501
-35.4401
-91.8595
-71.6771
-79.9447
-82.5046
138.134
178.073
168.732
170.414
-51.6466
-52.947
-55.908
-48.8443
-47.5363
-47.4943
-50.8584
-44.6557
-42.7405
-50.2907
-44.4617
-46.9243
-36.5357
-34.9815
-36.8365
-35.0369
-49.7781
-49.7142
-47.7507
-52.2645
-42.743
-41.7424
-41.3724
-42.9474
-59.9701
-57.1269
-61.9881
-53.6819
-33.6812
-25.421
-26.8442
-31.5404
-53.3752
-52.5978
-51.5908
-53.1674
-37.516
-36.4514
-35.5982
-38.3852
-30.2081
-31.5222
-31.6613
-30.4533
-32.5326
-33.0816
-32.6757
-31.8667
-46.1557
-48.9682
-47.6454
-47.9191
-35.197
-35.1023
-34.1474
-36.2568
-36.7369
-39.8406
-38.0607
-37.9657
-33.3839
-32.9075
-33.0299
-33.1044
-29.9692
-31.8424
-29.4374
-32.5529
-46.4001
-47.6118
-46.7611
-47.2152
-33.237
-32.174
-32.5838
-32.5538
-37.8994
-39.1996
-38.4053
-38.5592
-44.2511
-38.8565
-40.6345
-41.4821
-92.7736
-106.304
-98.0389
-94.3358
4.20284
-8.23408
-4.50519
-4.64839
0.663244
-45.5161
-18.0293
-17.8288
-76.211
-89.9359
-82.593
-82.7466
-46.8446
-41.4264
-43.8609
-43.9514
-31.0357
-32.3738
-32.1262
-31.2904
-32.6131
-33.1002
-32.8625
-31.8427
-43.7768
-45.9916
-44.7162
-44.4588
-35.8457
-35.8125
-34.9262
-36.8726
-31.1086
-32.8466
-33.503
-30.8021
-45.8391
-47.2651
-46.4176
-46.8494
-44.4928
-39.4308
-41.9878
-40.9075
-91.7914
-106.243
-92.8337
-96.8305
-75.2668
-70.8329
-73.346
-72.9684
-46.4595
-46.1469
-47.1971
-47.2327
-48.3193
-46.9073
-50.2043
-48.2004
-77.4109
-70.8943
-77.1146
-76.3563
-84.9829
-73.7968
-77.4592
-67.5391
-92.0632
-83.0365
-84.9347
-76.3752
-45.6207
-43.4244
-46.9954
-45.2389
-43.1609
-43.7611
-44.5561
-43.9975
-69.5714
-63.4088
-63.4689
-58.3346
-69.644
-63.4282
-63.5986
-58.293
-38.4529
-37.5076
-40.1479
-38.0526
-38.5959
-37.6414
-40.2725
-38.0146
-13.2005
-34.06
-21.6373
-28.2983
-21.3063
-11.4503
-19.1452
-9.72638
-21.2604
-11.7443
-19.1036
-9.64747
-12.5534
-32.8707
-21.626
-28.8557
149.384
144.831
175.865
188.473
142.681
142.271
178.172
180.784
143.063
141.544
181.428
178.812
146.086
149.849
187.816
177.504
-31.4996
-32.5342
-32.1308
-32.7666
-26.542
-25.0908
-28.2694
-27.2528
-39.4478
-43.5007
-36.0728
-38.8212
-40.6464
-43.8297
-39.139
-41.5539
-31.9665
-33.0273
-32.8216
-33.3622
-40.6375
-43.5549
-39.5002
-41.7216
-40.8492
-43.4833
-36.441
-38.9673
-26.736
-25.4948
-29.4966
-28.4849
-31.7963
-33.2826
-31.678
-32.4293
-33.4045
-31.8533
-32.5589
-31.6685
-32.8234
-31.1165
-32.2203
-30.8584
-31.0846
-32.6272
-30.8605
-32.1266
-47.6666
-10.0391
-42.3252
-18.8733
-66.5831
-70.3317
-81.709
-79.7671
-70.3267
-66.3808
-79.997
-80.7325
-10.1918
-49.867
-19.9117
-43.5684
-45.4805
-46.1501
-46.2272
-46.2074
-45.8148
-49.3791
-48.2079
-53.8888
-39.7074
-40.7125
-42.5317
-44.8157
-47.9115
-39.1708
-50.0482
-48.0054
-45.2687
-46.0144
-45.9488
-45.8756
-47.0269
-39.177
-49.0346
-47.2836
-40.0185
-41.2473
-42.9113
-45.1578
-45.2513
-49.3903
-48.3473
-54.0143
-39.4053
-38.2698
-39.7966
-38.8145
-39.6118
-38.3421
-39.8869
-38.9987
-44.1842
-45.1492
-44.8345
-46.0753
-44.2088
-44.9923
-44.9052
-45.6383
-44.9194
-47.2735
-41.9184
-44.0042
-32.1408
-33.3787
-32.8609
-33.7386
-32.2378
-33.4632
-32.9242
-33.8111
-45.4064
-47.7378
-42.2068
-44.2871
-37.5849
-37.5025
-37.149
-37.0044
-37.5392
-37.6423
-37.0796
-37.177
-32.4949
-33.5215
-31.8176
-33.2759
-33.22
-32.0788
-32.9187
-31.3997
-89.2703
-6.26912
-93.6059
3.64428
-96.8632
-84.0362
-41.821
-37.7378
-44.3445
-39.2487
-44.5462
-44.8042
-60.7465
97.4947
26.547
79.6961
-67.2254
22.3233
-35.0176
-35.2666
-32.9237
-32.9331
-34.8938
-34.0623
-93.7165
0.200759
-91.4325
7.70549
-95.5193
-82.7374
-44.6568
-39.3452
-41.888
-37.7205
-44.4917
-45.0885
26.3699
78.0293
-58.7145
92.7811
-73.7265
24.0274
-32.8131
-33.3139
-34.4754
-34.8025
-34.6234
-34.1987
-41.9378
-41.3145
-30.418
-31.4479
-42.2948
-31.6785
-36.6277
-32.845
-46.6922
-41.4188
-21.6133
-31.1744
-22.6523
-46.8025
-34.8546
-40.0699
-43.9443
-35.4124
-42.2695
-43.3562
-47.3832
-65.8603
-17.6401
-26.8263
-47.9854
-47.5159
-44.0358
-42.1595
-48.0848
-51.7548
-54.6236
-51.4631
-41.7504
-40.7833
-36.5167
-32.7717
-30.6161
-31.4255
-41.733
-31.6858
-46.1623
-43.0146
-33.4258
-40.9157
-21.5732
-31.2846
-22.1735
-46.908
-42.6797
-35.2774
-22.2431
-27.5001
-41.5678
-42.2886
-45.9128
-64.8537
-46.9144
-47.6099
-54.504
-51.6854
-43.8944
-41.2721
-48.7779
-51.7625
-102.01
107.456
-91.9603
92.6533
-99.1682
-108.7
117.558
114.22
-86.6524
52.7073
-86.5216
25.9428
-76.6891
-76.659
118.173
122.358
-61.2711
-54.5176
-45.3307
-42.7852
-56.4048
-49.2675
-50.6662
-44.8397
-39.53
-37.1831
-36.6673
-34.8013
-40.9734
-39.0228
-36.9062
-35.6944
-43.5461
-38.8712
-43.2669
-38.9008
-43.8351
-43.953
-37.4177
-37.4464
-55.184
-47.0273
-44.5127
-42.3645
-46.99
-50.8141
-42.4908
-44.5005
13.8861
34.7167
13.8302
33.3694
-4.95458
-5.02123
96.6567
96.4123
-64.6237
-53.1009
-56.1433
-41.2413
-59.6522
-69.9052
-43.4175
-39.244
-31.3987
-29.0827
-31.4382
-29.4057
-30.8009
-30.803
-28.9948
-28.7702
-39.5726
-36.6825
-48.0734
-43.4224
-47.3496
-51.1636
-39.7038
-36.5898
-104.821
96.5981
-91.8223
85.9937
-107.841
-118.748
100.193
106.481
-57.48
-53.903
-43.7333
-42.0858
-54.3443
-47.1648
-50.614
-44.469
-39.6137
-37.1116
-36.7978
-34.954
-39.3924
-41.0875
-36.8727
-35.8666
-55.4214
-47.1478
-43.8847
-42.3805
-46.9087
-50.5528
-42.5559
-44.6819
-67.1908
-53.334
-52.4708
-39.9513
-64.9237
-56.2335
-38.1967
-44.1677
-41.3324
-37.2263
-48.8372
-43.726
-51.6886
-48.1571
-37.0885
-40.2271
-29.7069
-30.3364
-25.8476
-30.3206
-29.6486
-28.3148
-30.9269
-31.115
-40.7222
-34.7269
-41.6597
-37.4015
-46.2725
-45.5791
-34.551
-36.3058
-35.2972
-34.1123
-34.3994
-34.2325
-35.8992
-35.9603
-33.798
-33.8469
-24.4703
-40.242
-33.2587
-29.0392
-27.0776
-31.5429
-45.866
-42.6767
-34.2889
-38.8784
-35.963
-36.432
-34.024
-33.4861
-37.1753
-37.3167
-52.1043
-64.1282
-51.8399
-57.9736
-47.7676
-48.2051
-76.9151
-68.3494
14.8423
19.7928
14.3664
19.316
11.0882
10.8897
14.1165
13.9161
-62.9836
-53.963
-63.2405
-54.2263
-69.6818
-69.7933
-50.2521
-50.3777
-30.1597
-30.5633
-28.7806
-30.2713
-30.2755
-29.8134
-31.1445
-31.1084
-40.1365
-34.9697
-40.3946
-37.7375
-42.8602
-43.6104
-35.2455
-36.8265
-24.7792
-40.0903
-34.3
-30.4389
-32.3712
-27.7407
-45.4509
-41.2289
-52.4603
-63.8471
-51.4441
-57.8837
-48.158
-47.6125
-68.08
-77.1399
-68.4747
-69.6519
-60.1055
-52.8576
-55.3014
-63.1405
-50.8897
-51.6583
-63.3558
-64.7653
-57.3802
-49.9711
-60.1456
-52.1133
-48.4868
-47.7201
-54.7587
-54.7024
-50.9898
-44.4375
-50.8298
-44.5145
-42.1817
-42.2064
-24.1465
-24.2872
-24.3698
-19.0244
-19.1488
-24.4547
-13.0854
-13.1848
184.69
183.998
189.378
189.168
199.402
199.008
183.608
183.913
-32.5294
-31.5852