# vtk DataFile Version 2.0
tri_press
ASCII
DATASET UNSTRUCTURED_GRID
POINTS 3682 float
-0.729201 0.265 -2.295
-0.753745 0.405 2.505
-0.745 0.929461 -2.355
-0.715 1.23727 2.375
0.729195 0.265 -2.295
0.753745 0.405 2.505
0.745 0.929447 -2.355
0.715 1.23727 2.375
-0.745808 0.303241 -0.695
-0.794199 0.309698 0.905
-0.807063 1.10413 -0.778334
-0.781822 1.19149 0.798333
0.745769 0.303276 -0.695
0.794198 0.309697 0.905
0.807073 1.10413 -0.778334
0.781805 1.19147 0.798333
-1.50068 -0.198099 -3.5224
-1.49946 -0.124824 -2.25175
-1.51598 -0.0939114 -0.651142
-1.54308 -0.0917707 0.954157
-1.52781 -0.0282315 2.55516
-1.52103 0.0332167 3.82775
-1.52428 0.0917622 5.09675
-1.50023 0.172709 -3.56079
-1.50169 0.260937 -2.29268
-1.52422 0.31417 -0.696619
-1.54843 0.325959 0.901544
-1.51322 0.393429 2.49805
-1.5119 0.454353 3.77032
-1.52072 0.511725 5.04008
-1.50876 0.890109 -3.63102
-1.52177 0.975619 -2.36195
-1.56371 1.11363 -0.78179
-1.54603 1.18649 0.796714
-1.49089 1.23777 2.37732
-1.50123 1.2955 3.65054
-1.51879 1.35257 4.92407
-1.5207 2.06221 -3.7539
-1.53078 2.15927 -2.48833
-1.55112 2.30556 -0.915735
-1.55533 2.42658 0.651827
-1.54275 2.50704 2.22466
-1.53707 2.56034 3.49075
-1.539 2.61305 4.76173
-0.743803 -0.195883 -3.52391
-0.737709 -0.119816 -2.25394
-0.745949 -0.0982748 -0.650847
-0.777371 -0.103505 0.957107
-0.769222 -0.0255477 2.56031
-0.764516 0.0352797 3.83125
-0.767257 0.0921007 5.09878
-0.741966 0.169255 -3.56125
-0.7595 0.457858 3.7732
-0.765953 0.512613 5.04161
-0.746554 0.869576 -3.62813
-0.750587 1.29652 3.65008
-0.765951 1.35322 4.92398
-0.751623 2.04781 -3.75105
-0.756798 2.14552 -2.48518
-0.776375 2.30123 -0.91384
-0.788073 2.42919 0.6516
-0.783881 2.50972 2.22304
-0.780349 2.56192 3.48913
-0.781852 2.61404 4.76055
0.749482 -0.19588 -3.52391
0.743697 -0.119809 -2.25394
0.761439 -0.0982523 -0.650847
0.784336 -0.103502 0.957107
0.756856 -0.0255475 2.56031
0.749092 0.0352798 3.83125
0.746617 0.0921008 5.09878
0.746476 0.169254 -3.56125
0.741578 0.457857 3.7732
0.74173 0.512613 5.04161
0.754985 0.869571 -3.62813
0.727549 1.29652 3.65008
0.73407 1.35321 4.92398
0.78005 2.0478 -3.75105
0.785091 2.14552 -2.48518
0.778582 2.30123 -0.91384
0.755266 2.42919 0.6516
0.735142 2.50972 2.22304
0.730866 2.56192 3.48913
0.730841 2.61403 4.76055
1.50432 -0.198093 -3.5224
1.50154 -0.12481 -2.25175
1.52458 -0.0938828 -0.651142
1.55149 -0.0917632 0.954157
1.5271 -0.028231 2.55516
1.5125 0.033217 3.82775
1.5078 0.0917621 5.09675
1.50127 0.172711 -3.56079
1.4978 0.260944 -2.29268
1.52322 0.314199 -0.69662
1.55352 0.325961 0.901544
1.51906 0.393428 2.49805
1.50328 0.454352 3.77032
1.50139 0.511724 5.04008
1.51358 0.890103 -3.63102
1.51986 0.975611 -2.36195
1.56106 1.11363 -0.78179
1.54699 1.18648 0.796714
1.49292 1.23777 2.37732
1.48638 1.2955 3.65055
1.49149 1.35256 4.92407
1.54422 2.06221 -3.7539
1.5515 2.15926 -2.48833
1.55077 2.30555 -0.915735
1.52815 2.42657 0.651827
1.50175 2.50703 2.22466
1.49256 2.56034 3.49075
1.49097 2.61305 4.76173
-0.799326 0.59723 -2.38723
-3.01003e-06 0.261348 -2.29865
-0.748811 0.272814 -1.495
-0.738492 0.821135 2.44412
0 0.411996 2.498
-0.813434 0.317887 1.705
0 0.983403 -2.40895
-0.810216 1.05098 -1.56667
0 1.26698 2.40471
-0.759336 1.2253 1.58667
0.799336 0.597223 -2.38724
0.748669 0.272951 -1.495
0.738493 0.821135 2.44412
0.813523 0.317797 1.705
0.810216 1.05097 -1.56667
0.759329 1.2253 1.58667
-0.764331 0.312142 0.105
-0.878872 0.703684 -0.736667
-1.92602e-05 0.296868 -0.695
-0.889575 0.750593 0.851667
-7.55732e-07 0.297194 0.905
-0.795434 1.1488 0.00999999
4.59664e-06 1.59325 -0.778334
-8.45044e-06 1.66561 0.798333
0.764272 0.312198 0.105
0.878866 0.703701 -0.736667
0.889575 0.750582 0.851667
0.795437 1.1488 0.00999999
-0.868205 0.650457 -1.53083
0.868215 0.650462 -1.53083
-1.11351e-05 0.266771 -1.495
2.29832e-06 1.14446 -1.56667
-1.50502e-06 0.597227 -2.54982
-0.884317 0.727139 0.0575
0.884315 0.727142 0.0575
-1.0008e-05 0.299843 0.105
-1.9269e-06 1.6656 0.00999999
-0.87559 0.785864 1.64583
0.875592 0.785859 1.64583
-3.77866e-07 0.307214 1.705
-4.22522e-06 1.6656 1.58667
0 0.821135 2.47151
-0.779647 0.431115 -2.3565
-0.364602 0.261353 -2.29865
-0.740401 0.267512 -1.895
-0.80326 0.613068 2.5317
-0.376873 0.411776 2.49822
-0.793168 0.351865 2.105
-0.776103 0.763346 -2.37505
-0.3725 0.977586 -2.40313
-0.79974 1.01235 -1.96083
-0.746768 1.0292 2.42958
-0.3575 1.26345 2.40118
-0.745649 1.23977 1.98083
0.364596 0.261347 -2.29865
0.779655 0.431112 -2.35651
0.73992 0.267988 -1.895
0.376873 0.411832 2.49817
0.803199 0.613068 2.53164
0.79319 0.351842 2.105
0.3725 0.977612 -2.40316
0.776132 0.763335 -2.37508
0.799761 1.01236 -1.96083
0.3575 1.26347 2.4012
0.746782 1.0292 2.4296
0.745643 1.23976 1.98083
-0.741315 0.294022 -1.095
-0.754455 0.308306 -0.295
-0.858981 0.480142 -0.715834
-0.376924 0.292034 -0.695
-0.803608 0.314001 1.305
-0.77687 0.313315 0.505
-0.873741 0.514219 0.878334
-0.400503 0.296641 0.905
-0.811751 1.08066 -1.1725
-0.859888 0.912366 -0.7575
-0.800825 1.12604 -0.384167
-0.505623 1.55288 -0.778334
-0.77268 1.2105 1.1925
-0.855409 0.980896 0.825
-0.788624 1.17014 0.404167
-0.499475 1.64567 0.798333
0.74105 0.294283 -1.095
0.376894 0.292034 -0.695
0.754566 0.308191 -0.295
0.858981 0.480157 -0.715834
0.803778 0.31383 1.305
0.400501 0.29664 0.905
0.776867 0.313316 0.505
0.873748 0.514209 0.878334
0.811784 1.08069 -1.1725
0.505654 1.55292 -0.778334
0.859896 0.912378 -0.7575
0.800829 1.12604 -0.384167
0.772638 1.21045 1.1925
0.499464 1.64567 0.798333
0.855406 0.980883 0.825
0.788622 1.17013 0.404167
-0.852583 0.623844 -1.95903
-0.399664 0.597229 -2.52876
-7.07258e-06 0.264414 -1.89683
-2.25753e-06 0.429288 -2.52456
-0.848953 0.461635 -1.51292
-0.374411 0.266771 -1.495
-0.85204 0.8035 2.04498
-0.369246 0.821135 2.47135
-1.88933e-07 0.337474 2.1015
0 0.616565 2.56783
-0.872451 0.551876 1.67542
-0.406717 0.307197 1.705
1.14916e-06 1.09416 -1.98781
-7.52509e-07 0.790315 -2.49983
-0.859453 0.850718 -1.54875
-0.405107 1.13851 -1.56667
-2.11261e-06 1.66561 1.99569
0 1.04406 2.46341
-0.840222 1.00558 1.61625
-0.37967 1.65408 1.58667
0.852569 0.623843 -1.95904
0.399667 0.597225 -2.52876
0.848995 0.461707 -1.51292
0.374329 0.266771 -1.495
0.852038 0.803497 2.04498
0.369246 0.821135 2.47135
0.872451 0.551828 1.67542
0.406761 0.307197 1.705
0.859423 0.850715 -1.54875
0.405109 1.13851 -1.56667
0.840211 1.00558 1.61625
0.379662 1.65408 1.58667
-0.866568 0.498519 0.08125
-0.387032 0.29627 0.105
-0.88574 0.677071 -1.13375
-0.881803 0.715411 -0.339583
-1.51977e-05 0.291135 -1.095
-1.46341e-05 0.298382 -0.295
-0.887322 0.738866 0.454583
-0.883834 0.768229 1.24875
-5.38186e-06 0.301357 0.505
-5.66799e-07 0.304837 1.305
-0.857637 0.94685 0.03375
-0.516037 1.64384 0.00999999
3.44748e-06 1.31568 -1.1725
1.33487e-06 1.6656 -0.384167
-5.18867e-06 1.6656 0.404167
-6.33783e-06 1.6656 1.1925
0.866568 0.498533 0.08125
0.387006 0.29627 0.105
0.885732 0.677082 -1.13375
0.8818 0.715422 -0.339583
0.887322 0.738862 0.454583
0.883838 0.76822 1.24875
0.857634 0.946847 0.03375
0.516041 1.64384 0.00999999
-0.832435 0.446375 -1.92701
-0.858038 0.482549 -1.11438
-0.864257 0.877312 -1.15313
-0.853878 0.807032 -1.95993
0.832435 0.446409 -1.92702
0.853856 0.807025 -1.95993
0.864286 0.877314 -1.15313
0.858047 0.482598 -1.11438
-0.369507 0.264421 -1.89591
0.369462 0.264421 -1.89591
0.373602 0.29113 -1.095
-0.373662 0.29113 -1.095
-0.388803 1.09464 -1.97432
-0.404318 1.28979 -1.1725
0.404324 1.28975 -1.1725
0.388805 1.09464 -1.97432
-0.382133 0.430201 -2.47888
-0.386082 0.77683 -2.4607
0.386084 0.776825 -2.46066
0.382132 0.4302 -2.47897
-0.862723 0.489356 -0.317292
-0.870168 0.506362 0.479792
-0.856584 0.963904 0.429375
-0.858856 0.929655 -0.361875
0.862722 0.489371 -0.317292
0.858851 0.929656 -0.361875
0.856586 0.963898 0.429375
0.870165 0.506367 0.479792
-0.381978 0.294152 -0.295
0.38195 0.294152 -0.295
0.392785 0.298391 0.505
-0.392799 0.298391 0.505
-0.532696 1.64209 -0.384167
-0.50779 1.64482 0.404167
0.507785 1.64482 0.404167
0.5327 1.64209 -0.384167
-0.878692 0.541011 1.27688
-0.845714 0.582472 2.07499
-0.830445 1.01739 2.01291
-0.851342 0.988313 1.22063
0.878634 0.540984 1.27688
0.851297 0.988301 1.22063
0.830435 1.01739 2.01291
0.845715 0.582448 2.07499
-0.401908 0.304823 1.305
0.40193 0.304823 1.305
0.391817 0.337407 2.10325
-0.391795 0.337407 2.10325
-0.385293 1.6539 1.1925
-0.368585 1.65443 1.98826
0.368581 1.65443 1.98826
0.38528 1.6539 1.1925
-0.373059 0.614816 2.58533
0.373059 0.614816 2.58545
0.363373 1.03663 2.46349
-0.363373 1.03663 2.46349
-0.750594 0.348058 -2.32192
-0.546902 0.261356 -2.29864
-0.735709 0.265348 -2.095
-0.78548 0.509034 2.52533
-0.565309 0.409966 2.50003
-0.779975 0.371914 2.305
-0.761498 0.846403 -2.36597
-0.55875 0.959951 -2.38549
-0.790658 0.989195 -2.15792
-0.738147 1.13324 2.40955
-0.53625 1.2534 2.39113
-0.738774 1.24697 2.17792
0.546895 0.261351 -2.29865
0.750612 0.348056 -2.32194
0.735672 0.26538 -2.095
0.565309 0.410033 2.49997
0.78548 0.509034 2.52533
0.779974 0.371914 2.305
0.55875 0.959932 -2.38548
0.761497 0.846391 -2.36597
0.790403 0.988926 -2.15792
0.53625 1.25341 2.39114
0.738223 1.13324 2.40963
0.73877 1.24696 2.17792
-0.744505 0.297688 -0.895
-0.750292 0.305613 -0.495
-0.831144 0.377317 -0.705417
-0.563943 0.292483 -0.695
-0.799654 0.311099 1.105
-0.783735 0.313306 0.705
-0.88114 0.388373 0.891667
-0.600359 0.297152 0.905
-0.809782 1.09277 -0.975417
-0.839852 1.01143 -0.767917
-0.803463 1.1146 -0.58125
-0.693371 1.40256 -0.778334
-0.778425 1.20217 0.995417
-0.829258 1.09151 0.811667
-0.785222 1.18081 0.60125
-0.667873 1.47303 0.798333
0.744262 0.297927 -0.895
0.563917 0.292483 -0.695
0.750281 0.30562 -0.495
0.831139 0.377334 -0.705417
0.799737 0.311014 1.105
0.600357 0.297152 0.905
0.783733 0.313306 0.705
0.881139 0.38837 0.891667
0.809797 1.09278 -0.975417
0.693386 1.40257 -0.778334
0.839859 1.01144 -0.767917
0.803471 1.1146 -0.58125
0.778419 1.20216 0.995417
0.667867 1.47303 0.798333
0.829255 1.0915 0.811667
0.785208 1.18079 0.60125
-0.79113 0.514173 -2.3735
[...]
POINT_DATA 3682
SCALARS point_scalars float 1
LOOKUP_TABLE default
-134.818
-52.7239
-63.0561
-40.0643
-135.111
-55.9834
-63.4763
-47.6889
-39.5742
-41.2321
-67.5536
-44.6487
-39.7258
-41.6413
-67.9053
-45.7767
-34.952
-87.5682
-39.6164
-46.9579
-52.6084
-50.9597
-47.7175
30.9679
-87.5682
-41.8221
-42.3674
-50.6117
-47.5154
-48.1923
28.9445
-120.544
-57.2479
-43.1606
-46.9386
-43.151
-46.9726
-73.7622
-79.449
-116.275
-47.8838
-45.1709
-38.5648
-40.1819
32.6732
-159.905
-38.7495
-43.3452
-53.122
-46.4732
-45.2592
77.5667
-44.8324
-44.8139
168.802
-38.1868
-44.0641
-47.1603
-71.0078
-110.439
-49.5314
-46.648
-40.1585
-33.797
32.2849
-160.661
-38.9077
-43.7865
-55.4462
-49.2613
-47.0446
77.0513
-46.8222
-46.8635
168.909
-45.0575
-46.1357
-48.8669
-71.1993
-110.84
-50.0433
-51.6972
-45.525
-42.3277
-35.2559
-88.0013
-39.8151
-47.8341
-55.4904
-54.4116
-50.946
31.1706
-88.0013
-42.0721
-43.2994
-54.1654
-51.3699
-51.1951
27.078
-123.187
-57.6154
-44.2272
-53.0656
-49.9531
-50.8549
-74.2539
-79.8312
-116.37
-48.6674
-51.1633
-45.5691
-47.8549
-98.8734
-155.804
-54.2372
-44.0803
-49.7727
-48.2358
-66.3001
-42.8273
-35.3089
-43.1738
-98.8113
-54.3565
-48.5312
-49.4863
-43.0433
-45.7451
-37.0373
-46.2123
-40.904
-41.8901
-41.9129
-51.2569
-75.6144
-49.4168
-37.3418
-46.507
-42.9386
-51.8594
-50.8247
-51.0112
-62.0402
5.45967
203.026
-41.6942
-42.2085
-38.1687
-71.1221
-44.7126
-46.9736
-50.1913
-44.1877
-44.3291
-112.751
-156.293
-75.0097
-46.7291
-49.3419
-48.5597
-79.9668
-37.9232
-60.0458
-42.5882
-32.2827
-42.6217
-156.424
-113.206
-74.8838
-51.0237
-50.609
-50.0777
-38.2565
-79.7547
-60.2622
-41.3421
-48.8379
-46.9494
-44.3053
-37.707
-42.3129
-40.2661
-42.4331
-37.3629
-41.461
-41.6459
-61.0556
-53.7512
-59.0776
-70.3177
-44.1048
-42.8557
-46.4228
-47.4939
-44.4226
-40.3343
-37.8708
-42.5642
-43.2195
-41.859
-37.7315
-42.41
-61.3375
-69.9042
-54.0834
-59.4792
-45.7455
-48.0704
-43.9332
-47.2068
-75.3041
192.561
-84.9861
122.904
-51.2882
-60.4773
-44.4169
-42.3983
-54.1708
-45.2192
-46.1319
-49.6375
-34.244
175.902
-47.7707
-3.56762
-43.9489
-41.8548
-43.4569
-43.4674
-75.4937
192.754
-51.4531
-60.5312
-47.7484
-45.8065
-48.0734
-50.1631
-47.9495
-3.66623
-45.9326
-44.79
-39.2376
-37.8251
-47.0425
-43.8849
-48.3549
-38.4355
-40.6806
-43.6132
-39.1713
-45.0933
-45.7324
-64.4686
44.677
-101.697
-56.9187
-45.7026
-39.6823
-37.9394
-47.2564
-44.2736
-41.3859
-45.1119
-46.2946
-64.776
-74.315
-47.8197
-50.6107
-71.9228
-74.4491
-72.074
-50.8737
-47.9841
-82.9091
-82.9687
-47.2846
-47.2264
-37.3413
28.3427
28.5184
-37.4215
132.877
177.981
178.169
133.22
-40.4475
-38.7149
-43.0913
-49.8037
-40.7815
-50.236
-43.8408
-39.3205
-38.0809
-38.1701
-38.9033
-38.7538
-91.7897
-53.5983
-53.988
-92.0962
-43.5649
-44.7909
-43.6631
-43.6127
-44.8529
-45.2078
-47.5933
-47.35
-44.5109
-44.8344
-54.7153
-53.7956
-45.0359
-43.8745
-47.2574
-45.7528
-43.8908
-45.8737
-44.7564
-38.203
-112.633
-160.22
-105.724
-50.1175
-49.726
-50.7046
-63.8249
-43.2191
-82.6971
-41.7926
-35.2848
-42.0586
-160.322
-113.027
-105.879
-52.1983
-53.5195
-52.8154
-43.4235
-63.4465
-82.8317
-43.1326
-48.7535
-47.8157
-40.9519
-38.3106
-40.6501
-39.6061
-46.858
-36.6992
-41.7882
-41.552
-69.4034
-59.6467
-63.4679
-110.932
-44.5377
-43.787
-45.1903
-46.6927
-41.039
-39.7135
-38.4765
-40.8743
-47.4519
-41.8684
-37.1202
-42.7163
-69.7718
-111.352
-59.9879
-63.8211
-45.8501
-47.6942
-44.869
-46.1132
-118.128
-102.002
-108.676
147.473
-156.386
-156.495
-109.15
-13.3867
-61.2609
-52.3936
-51.4361
-58.2206
-43.8146
-43.4766
-46.7059
-41.9553
-49.4456
-50.2907
-52.0896
-46.7225
-53.3262
-44.693
-46.9822
-49.1241
-56.483
-56.3385
-63.2622
146.988
-49.1676
-42.7043
-47.0744
-16.5059
-32.3898
-38.6424
-38.8332
-38.3653
-42.9084
-43.5631
-43.2607
-43.0703
-117.421
-101.96
-110.118
147.502
-61.3221
-52.4956
-51.592
-58.2987
-47.938
-48.6374
-51.1456
-46.0644
-54.9832
-45.6339
-48.7837
-49.9205
-49.3737
-42.8232
-47.2706
-16.6765
-46.2175
-45.6009
-45.8224
-45.0873
-37.2697
-37.1333
-38.1598
-37.4356
-44.1082
-49.4423
-47.4531
-45.109
-40.7523
-40.7865
-43.7879
-39.1901
-42.1482
-42.1921
-41.0833
-43.0384
-41.7991
-41.9053
-40.116
-44.1936
-54.8585
-48.5076
-48.4688
-57.406
-70.7874
-70.8734
24.1656
-122.089
-48.9508
-49.2311
-52.5586
-47.2033
-37.551
-37.3856
-38.5618
-37.6144
-44.3788
-49.7553
-47.7112
-45.4458
-43.1381
-43.2584
-41.9356
-44.1695
-55.3583
-49.1845
-49.0637
-57.8898
-58.9973
-51.0185
-50.1982
-48.1371
-59.1734
-51.1994
-50.3805
-48.3121
-71.2371
-61.6995
-61.7247
-55.7391
-13.6491
3.05945
3.02104
19.2089
201.188
175.115
195.884
201.632
-40.2545
-42.7043
-41.025
-43.4895
-40.734
-43.1516
-41.6223
-44.0289
-38.0654
-38.1275
-38.5212
-38.1218
-69.7214
-83.4658
-62.8612
-69.8668
-45.6926
-45.2562
-44.1
-43.1552
-48.4514
-47.3476
-46.4861
-44.9626
-54.488
-50.0534
-50.3215
-47.2811
-43.932
-43.833
-44.5446
-44.7382
-43.4164
-45.2266
-43.7069
-45.4321
-101.748
88.4231
-108.056
-45.4501
-75.2469
-79.8856
-47.4179
-43.2457
-51.7227
-46.0491
-45.193
-53.1519
-109.035
138.972
-64.9767
130.823
-67.3672
-43.3898
-44.8359
-38.5432
-38.6311
-33.8524
-43.089
-44.1865
-108.118
-47.2163
-102.101
88.3208
-75.4487
-79.93
-52.9744
-47.4367
-50.9187
-46.0695
-47.3908
-54.473
-65.0844
131.024
-109.442
139.145
-67.5564
-43.4921
-44.021
-43.0196
-50.0765
-45.3773
-47.3044
-48.5439
-47.3049
-45.7113
-39.1564
-37.6716
-43.8488
-41.2613
-42.9205
-38.7775
-43.3654
-43.9576
-37.8177
-38.1995
-38.569
-44.3541
-39.7073
-43.8474
-54.9696
-2.86776
-53.3112
-52.1936
-54.109
-72.5523
9.53218
-114.231
-43.8493
-44.8799
-42.7563
-43.3663
-44.854
-49.6954
-50.3077
-46.282
-47.44
-45.7431
-42.9837
-38.8557
-39.4611
-37.8113
-44.0349
-41.5511
-44.5522
-44.4529
-39.8837
-44.1078
-38.366
-38.4303
-39.2992
-45.4286
-55.2749
-3.04933
9.51222
-114.392
-53.6109
-52.5662
-54.5552
-72.9492
-45.4816
-46.0827
-50.7717
-46.9214
-43.65
-44.6734
-45.6226
-50.3698
-74.7718
-74.2142
163.859
180.048
-84.5111
-84.5411
129.371
130.858
-59.3064
-47.253
-69.1044
-54.9463
-44.3998
-44.3177
-42.6399
-40.9576
-54.4658
-53.9979
-44.5817
-45.7987
-43.6638
-48.2765
-46.6531
-54.3693
-34.6686
-34.724
179.198
178.952
-47.4864
-55.796
-19.4447
7.97617
-43.4661
-45.4377
-43.6281
-39.8712
-43.5216
-43.3455
-44.0992
-43.225
-74.9652
-74.3788
180.167
161.665
-59.4388
-47.4138
-69.2727
-54.9864
-47.9984
-47.3611
-45.732
-45.4971
-45.23
-50.5646
-47.0598
-55.0649
-55.9712
-47.6927
7.87964
-19.5422
-45.3285
-46.6242
-45.2197
-45.0622
-39.7614
-38.8933
-37.7856
-38.1392
-47.3386
-48.6689
-41.9223
-46.5661
-48.0667
-48.0379
-38.3126
-38.3571
-39.5485
-41.8102
-43.7076
-43.6727
-39.1239
-39.0497
-44.9081
-45.068
-44.2082
-47.7939
-74.5378
-58.1455
41.3351
41.3495
-100.452
-100.59
-56.1003
-56.2888
-45.4513
-45.8189
-40.1513
-39.4047
-37.8882
-38.2685
-48.9037
-47.5108
-42.2826
-46.9785
-42.5418
-40.2043
-45.1075
-45.219
-48.2935
-44.8513
-58.4847
-74.834
-89.1279
-59.369
-58.9321
-104.114
-42.0463
-45.5703
-47.9401
-46.6718
-60.1588
-46.9905
-48.4428
-49.6851
-103.35
-113.857
-58.0246
-54.0426
-89.5561
-104.18
-59.0958
-59.4593
-103.667
-54.234
-58.1994
-114.293
-60.4869
-49.9598
-48.6498
-47.1953
-42.2327
-46.8299
-48.1442
-45.8063
-106.15
-108.959
-70.7773
-66.245
-106.235
-66.3155
-70.8075
-108.978
-41.9355
-43.6313
-55.5532
-54.3529
-41.8446
-54.2818
-55.5378
-43.6001
-71.075
-28.8991
-14.9638
-63.622
-87.3086
23.5937
16.1661
-11.2906
-87.457
-11.6557
16.0967
23.5896
-71.2668
-63.6563
-15.0065
-29.063
-34.75
128.308
166.41
-18.5486
100.26
140.433
188.429
125.658
100.296
125.718
188.527
140.661
-35.644
-21.1404
168.945
128.196
-39.6137
-38.4525
-41.0356
-42.9041
-36.619
-40.0462
-39.8259
-37.9839
-44.0208
-46.496
-42.4588
-41.8243
-57.0679
-48.1789
-44.9325
-51.1738
-39.8772
-43.2162
-41.4518
-38.8162
-57.4409
-51.7093
-45.4052
-48.5362
-44.9297
-42.7026
-43.0831
-47.1619
-37.2633
-38.4399
-40.3806
-40.841
-38.2339
-39.1173
-38.0276
-37.3987
-38.355
-37.5653
-38.0778
-39.1551
-39.339
-40.0754
-38.4729
-37.8888
-39.0714
-37.6928
-38.4087
-39.9868
-87.0777
-63.6272
-81.8493
-121.462
-47.5602
-51.9466
-61.7616
-52.9067
-48.3805
-53.4707
-61.9239
-52.1731
-87.3993
-121.616
-81.9885
-64.06
-44.5084
-43.7593
-43.3353
-43.2
-47.7542
-47.0268
-46.8104
-49.7989
-43.2782
-43.1631
-44.3999
-46.1252
-44.1151
-42.8752
-43.3254
-43.4934
-45.502
-44.3259
-45.0185
-45.219
-45.4577
-45.5253
-45.2334
-44.1536
-48.8572
-50.9606
-47.3184
-46.4292
-50.6681
-51.8106
-49.3639
-51.0202
-43.6043
-44.0718
-47.0938
-45.9738
-44.0081
-46.591
-47.2852
-44.2002
-53.2155
-52.4902
-54.7187
-55.3978
-51.447
-54.3465
-54.3699
-51.8449
-44.8868
-44.0927
-44.4539
-46.8684
-41.0638
-37.9603
-43.4849
-42.7849
-47.2494
-45.7373
-44.595
-41.2224
-46.091
-47.1877
-44.9525
-45.7398
-45.2617
-46.3012
-43.9044
-42.3465
-47.54
-46.0832
-45.5591
-47.0092
-44.5473
-41.0123
-44.8657
-45.8278
-36.3461
-40.6735
-42.3123
-35.4715
-103.857
-156.598
-134.313
-51.8175
-50.757
-52.4957
-53.1755
-52.4457
-102.499
-40.9188
-36.9539
-41.8056
-156.728
-104.14
-134.534
-53.2567
-55.3172
-55.0671
-52.322
-53.3877
-102.973
-44.1829
-48.1472
-48.4409
-40.9468
-38.5776
-39.7153
-39.433
-44.5923
-36.1358
-40.3847
-41.6755
-69.0863
-63.2829
-65.545
-82.9141
-44.5123
-44.3624
-44.8705
-45.429
-41.0625
-39.5616
-38.7297
-39.9
-45.0846
-42.0314
-36.557
-41.1023
-69.4388
-83.2958
-63.6252
-65.8994
-45.7161
-46.5008
-45.4509
-45.8762
-115.303
-98.3848
-134.055
67.9901
-156.401
-156.461
-132.144
-147.504
-57.2708
-52.192
-52.9061
-56.5034
-44.218
-44.0734
-50.9049
-42.3146
-49.176
-49.6426
-50.9079
-47.8568
-52.8515
-44.7145
-47.2638
-48.9056
-64.6389
-64.2373
-75.5634
70.0652
-45.3344
-42.0657
-46.7779
-27.6862
-33.7949
-36.9948
-35.9681
-36.6245
-43.0388
-43.3371
-43.2076
-43.1575
-115.4
-98.6329
-134.494
67.6779
-57.3439
-52.3076
-52.9049
-56.5937
-48.3003
-48.7557
-56.2412
-46.3567
-54.3244
-45.9043
-48.9227
-49.8513
-45.5397
-42.2623
-46.9842
-27.8872
-45.9492
-45.6211
-45.7905
-45.6646
-37.0042
-36.9557
-38.2106
-37.2264
-45.1625
-47.5568
-47.1362
-45.678
-40.8851
-40.9022
-42.3214
-39.8504
-42.2569
-41.9355
-41.5915
-42.2115
-41.9099
-41.9625
-40.421
-43.2719
-52.8856
-49.7677
-50.0685
-54.3293
-74.1445
-73.9554
-19.5607
-124.652
-49.2671
-49.4103
-50.8426
-48.1983
-37.3234
-37.2209
-38.5641
-37.4391
-45.4484
-47.8577
-47.4144
-45.9917
-43.2853
-42.9929
-42.5351
-43.5302
-53.4477
-50.4007
-50.6784
-54.854
-54.4057
-50.9764
-50.5229
-48.9678
-54.5832
-51.1629
-50.7079
-49.1593
-66.2012
-61.9372
-61.9494
-58.4853
-4.4013
4.8021
4.78575
13.0795
204.743
194.394
195.481
204.474
-40.9804
-42.129
-41.2876
-42.4749
-41.4807
-42.6084
-41.8408
-43.0002
-38.1384
-38.1014
-38.3219
-38.1663
-70.7779
-76.6352
-66.6409
-70.8522
-46.1806
-45.0078
-44.4978
-43.6368
-48.7412
-47.1815
-46.8257
-45.6474
-52.0138
-50.103
-50.234
-48.624
-44.0294
-44.0071
-44.3781
-44.4179
-43.7634
-44.9098
-44.2732
-44.8404
-115.56
-110.778
-120.677
13.9242
-157.113
-155.961
-132.599
-132.36
-87.2794
-66.9387
-76.5039
-77.6584
-49.0612
-42.7262
-49.6963
-43.4062
-48.9831
-48.9117
-50.6263
-47.0391
-50.4801
-48.0839
-45.9293
-52.6525
-74.2408
-96.1214
-135.51
85.5692
-50.4666
-46.7016
-75.4622
81.0189
-74.2631
-51.6612
-67.4953
-48.1145
-42.4929
-42.9579
-47.7791
-39.6854
-33.377
-31.9704
-34.6416
-32.5564
-42.455
-42.7788
-42.808
-42.5917
-157.227
-156.081
-132.652
-133.633
-115.955
-110.952
-120.849
13.7956
-87.3427
-66.904
-77.5746
-77.685
-51.2731
-50.294
-52.0725
-48.8084
-52.5249
-47.014
-53.8868
-46.6586
-52.4751
-49.6547
-47.9358
-54.0895
-55.4623
-46.8263
-75.5618
81.0064
-73.7095
-96.1399
-136.234
85.5662
-74.3642
-52.0781
-67.7257
-48.267
-42.4254
-40.0327
-40.6284
-42.1581
-49.26
-48.5606
-54.1781
-45.6893
-47.4411
-46.5516
-47.0823
-47.0934
-42.0394
-49.2597
-45.7877
-44.7671
-37.9319
-37.4462
-37.9155
-37.4593
-41.3836
-43.0567
-43.0619
-41.7135
-39.8488
-40.6267
-41.3525
-39.4106
-43.4136
-43.0932
-43.8378
-43.6259
-37.1575
-37.0419
-37.7579
-37.8
-41.4911
-41.5121
-38.7412
-44.0335
-41.5435
-41.687
-40.1301
-42.9589
-70.5997
-47.4927
-59.69
-33.9742
-56.484
-51.3902
-53.8551
-53.147
-61.3135
-56.9933
-56.5182
-65.248
-95.4189
-67.0154
-17.2076
-108.148
-44.3094
-43.7836
-44.0406
-44.2142
-43.1699
-42.4514
-42.9917
-42.9007
-45.7131
-47.3328
-45.9327
-48.1482
-47.3035
-48.4846
-48.918
-47.2124
-42.133
-49.3691
-45.8839
-44.8567
-39.9376
-40.6764
-41.4177
-39.4838
-38.084
-37.6532
-38.159
-37.629
-41.621
-43.3144
-43.2976
-41.9839
-44.1372
-43.9455
-44.907
-44.2255
-41.8099
-41.8472
-40.3247
-43.1927
-37.5541
-37.3525
-38.2382
-38.0803
-42.4498
-42.4697
-39.5589
-45.0745
-71.0086
-47.6009
-60.0361
-34.0554
-96.4546
-67.1315
-17.4294
-108.463
-56.8238
-51.7137
-54.1685
-53.4984
-61.6784
-57.4416
-56.9436
-65.6365
-45.7934
-45.6137
-45.6843
-45.7629
-48.0988
-48.9025
-49.4441
-47.8094
-44.252
-43.5229
-43.9763
-44.082
-46.5619
-48.0605
-46.7155
-48.89
-90.5739
-65.111
-75.0116
-74.7173
179.946
197.187
182.42
187.136
-95.133
-77.283
-84.8049
-84.8192
61.6159
144.899
120.73
121.899
-51.338
-51.1658
-55.0402
-49.1148
-59.4986
-61.1732
-64.3742
-57.2562
-45.234
-44.4146
-44.3919
-44.4519
-41.9951
-42.9718
-42.7004
-41.8639
-53.1753
-55.2358
-54.3455
-54.111
-46.4582
-44.5609
-45.2428
-45.7257
-46.5378
-45.6146
-44.6556
-48.8101
-49.4026
-49.8911
-48.0129
-51.615
-47.1806
-23.3678
-34.1508
-34.1765
143.731
194.446
173.053
172.688
-47.1838
-49.1893
-46.4568
-51.3931
-9.44101
0.323818
-11.7392
3.06282
-43.7766
-43.8784
-43.6284
-44.6813
-40.3935
-42.8616
-42.8195
-40.8484
-43.3044
-43.7094
-43.5245
-43.337
-43.3295
-43.6517
-43.7411
-43.2972
-91.0655
-65.2914
-75.2104
-74.8897
180.162
198.462
187.344
182.447
-51.4909
-51.3405
-55.1874
-49.3084
-59.5653
-61.2115
-64.4311
-57.3035
-49.0538
-47.3754
-47.9639
-47.5312
-45.9344
-45.6432
-45.8321
-45.7147
-48.3802
-47.6245
-46.3942
-51.0188
-50.0604
-50.283
-48.4738
-52.2139
-47.3763
-49.3597
-51.5788
-46.6422
-9.57649
0.257796
2.96444
-11.8381
-45.8145
-46.1502
-45.5536
-46.2934
-44.9141
-44.681
-44.9058
-44.8628
-38.7663
-39.6527
-39.4667
-39.0357
-37.6274
-37.9692
-37.7656
-37.9697
-47.8154
-46.7959
-46.8267
-47.7484
-44.4908
-43.2936
-42.9222
-45.0298
-45.729
-51.7887
-48.3279
-48.3134
-38.7463
-38.2174
-38.4095
-38.4316
-40.764
-40.7609
-40.1418
-41.1869
-43.4617
-43.3696
-43.6885
-43.6991
-39.598
-38.8147
-39.1738
-39.137
-44.6615
-46.094
-45.0236
-45.1031
-47.0454
-44.5392
-44.8991
-46.5751
-60.9312
-67.8489
-69.2571
-61.0615
41.6489
34.3065
43.4487
43.4644
-110.195
-92.4333
-101.494
-101.571
-54.5587
-59.6562
-56.6962
-56.7927
-46.3735
-45.1606
-45.5925
-45.7817
-39.195
-40.1098
-39.8838
-39.5115
-37.7744
-38.0533
-37.8738
-38.0906
-48.0522
-46.9851
-47.9724
-47.025
-44.8525
-43.7111
-43.3009
-45.4285
-41.5381
-41.409
-41.9042
-40.8287
-44.5226
-45.01
-45.1428
-45.1776
-47.6202
-45.0906
-47.1049
-45.4988
-61.3394
-68.0656
-61.3826
-69.551
-87.2234
-74.3567
-74.0895
-64.8795
-47.7038
-44.8722
-48.9311
-47.6173
-52.1791
-52.3167
-48.9511
-49.5469
-86.3987
-68.4598
-73.3535
-61.7992
-87.5607
-74.4702
-74.2595
-65.0073
-86.522
-68.6233
-73.5118
-61.9599
-52.4586
-52.6023
-49.1776
-49.7955
-47.8658
-45.0728
-49.0355
-47.764
-93.2486
-81.5785
-83.8391
-75.3328
-93.3117
-81.6444
-83.8846
-75.3939
-46.7593
-44.7525
-50.8527
-47.78
-46.6901
-44.6924
-50.8027
-47.7356
-49.849
-39.714
-35.798
-28.0443
15.1578
28.3842
16.5483
36.3896
15.0227
28.2897
16.455
36.3057
-49.8995
-39.7441
-35.8653
-28.137
125.184
88.5735
152.171
140.43
162.108
147.068
183.815
175.72
147.209
162.756
175.92
184.061
87.4306
124.964
140.485
154.219
-39.841
-40.8519
-40.0602
-41.0316
-38.3215
-38.6396
-38.7803
-39.1225
-42.6447
-43.9189
-42.3956
-43.5792
-51.029
-51.7093
-48.1025
-48.9503
-40.1608
-41.162
-40.4207
-41.3746
-51.4299
-52.1502
-48.5257
-49.4179
-43.4582
-44.6793
-43.1362
-44.2712
-38.9054
-39.3037
-39.3363
-39.7497
-37.8652
-38.362
-37.8787
-38.2375
-38.4457
-37.9804
-38.3031
-37.9744
-39.3457
-38.6924
-39.0426
-38.5504
-38.5014
-39.1834
-38.4112
-38.9317
-81.9554
-100.878
-82.8238
-97.9989
-51.5097
-51.7298
-55.6143
-55.1179
-52.1629
-52.0476
-55.3978
-55.9808
-101.185
-82.3665
-98.1962
-83.1336
-43.4969
-43.1437
-43.44
-43.7019
-45.7849
-45.0584
-44.5153
-45.45
-43.8988
-43.3347
-44.0806
-43.5085
-43.6566
-43.7001
-43.4206
-43.6082
-44.724
-44.2857
-44.8406
-45.0491
-45.2723
-45.1419
-45.1913
-45.194
-48.3779
-47.4511
-47.8839
-46.9932
-48.7603
-47.4576
-47.279
-47.773
-44.2508
-44.1892
-45.4739
-44.7349
-44.6588
-44.4819
-45.8355
-44.9757
-53.8036
-54.7333
-54.6572
-55.9257
-52.755
-53.598
-53.9548
-55.1196
-44.9876
-45.631
-44.543
-45.2625
-44.5959
-44.2794
-43.5731
-43.3152
-49.4315
-48.1666
-46.3358
-45.8647
-45.8904
-46.3011
-45.3732
-45.8053
-43.0778
-46.0499
-42.1443
-44.2409
-46.9421
-45.9322
-45.5972
-45.5185
-44.0689
-45.1796
-44.2751
-45.1602
-37.9773
-36.1214
-39.6834
-38.9344
-114.489
-63.8947
-133.731
-117.381
-87.9613
-104.363
-52.0845
-45.9029
-50.7964
-46.7524
-48.3409
-51.6464
-115.674
70.4754
-77.1951
44.425
-99.5054
-74.9499
-44.6904
-38.0944
-36.5387
-35.4769
-42.603
-41.9614
-133.83
-117.126
-114.863
-64.3764
-88.3696
-104.472
-52.8906
-49.5014
-55.6136
-48.6158
-50.8775
-53.5424
-77.2167
44.3297
-116.089
70.4805
-99.6784
-75.0589
-42.9672
-43.9507
-51.4175
-45.086
-48.2394
-48.2811
-41.1235
-41.1396
-38.5613
-37.9997
-41.4485
-39.9634
-41.0001
-38.7344
-46.1937
-43.8417
-36.2917
-38.417
-32.648
-48.1839
-39.5407
-43.015
-64.7004
-89.7668
-60.2737
-58.4997
-60.1459
-72.8612
-111.835
-101.675
-44.485
-44.8607
-43.8705
-43.806
-44.7689
-46.4477
-46.8427
-45.5917
-41.2637
-41.2392
-41.098
-38.8489
-38.7745
-38.1428
-41.6571
-40.2087
-46.9649
-44.3288
-39.829
-43.3697
-36.8416
-38.7319
-33.3055
-49.126
-65.0487
-90.1665
-112.326
-101.996
-60.6038
-58.854
-60.5126
-73.218
-45.8332
-46.1671
-47.7578
-46.6784
-44.8642
-45.0068
-45.6898
-47.3367
-126.47
52.8214
-135.36
75.8654
-105.28
-111.338
142.42
137.815
-132.442
-150.292
-132.422
-153.117
-109.035
-109.044
-13.8733
-13.7347
-59.9514
-64.0172
-48.4655
-53.8496
-55.6822
-49.3762
-61.7015
-55.5584
-51.5242
-42.6954
-50.2504
-41.1891
-46.8843
-46.4478
-42.2896
-41.4801
-50.6493
-47.3989
-51.3861
-48.2918
-52.2715
-51.948
-46.5292
-46.8752
-51.0035
-53.6775
-44.1786
-45.4127
-45.1601
-51.2567
-47.3777
-51.2419
-74.2875
72.0144
-74.2662
72.4681
-63.0616
-63.0825
145.999
146.125
-53.9801
-36.4822
-48.4331
-25.8439
-45.9249
-49.8196
-22.3298
-12.6958
-34.4261
-33.6416
-38.5284
-39.6746
-38.282
-40.0517
-39.889
-36.877
-42.9567
-42.7979
-43.6919
-43.7445
-43.2938
-43.4103
-43.328
-42.8335
-126.798
52.8427
-135.918
75.4794
-106.182
-112.408
137.893
142.389
-60.0493
-64.0979
-48.6021
-53.9312
-55.8464
-49.506
-61.7791
-55.6347
-56.4224
-46.4511
-56.2488
-46.1136
-51.0963
-51.0956
-46.1185
-45.9951
-52.9435
-54.9437
-45.498
-46.1503
-46.7857
-53.4537
-48.0793
-52.3346
-54.1843
-36.6624
-48.639
-26.1701
-50.0153
-46.1204
-12.8962
-22.4888
-46.2571
-46.1267
-45.746
-45.7244
-45.6862
-46.1864
-45.189
-45.2493
-37.4655
-37.1718
-37.5417
-37.4381
-38.215
-38.0009
-37.3737
-37.5358
-44.7978
-43.4928
-49.7573
-48.8944
-46.404
-48.3955
-44.0368
-46.3819
-42.1364
-39.7161
-42.1674
-39.7534
-43.8119
-43.7966
-39.1768
-39.1964
-41.6031
-42.9285
-41.9981
-42.4836
-40.6728
-41.3813
-43.2567
-42.8046
-40.2682
-43.1696
-40.3666
-43.2853
-40.111
-40.0669
-44.1495
-44.2133
-53.0408
-59.113
-47.7878
-50.7467
-47.3819
-49.6452
-60.244
-54.9449
-11.1097
-122.701
-11.609
-122.974
24.6961
24.7036
-122.208
-122.312
-50.3123
-47.8196
-50.5639
-48.1177
-52.3798
-52.4961
-47.0725
-47.2365
-37.7992
-37.3884
-37.9296
-37.6696
-38.605
-38.4279
-37.5478
-37.721
-45.0529
-43.782
-50.0515
-49.2281
-48.6597
-46.6539
-44.3653
-46.7271
-42.4993
-43.9969
-42.9648
-43.6564
-42.2448
-41.5043
-44.3567
-44.001
-53.5758
-59.5516
-48.4648
-51.3684
-50.2126
-48.0099
-55.4657
-60.6974
-59.0578
-58.5916
-54.5754
-49.0704
-48.5973
-53.595
-47.8328
-48.6016
-59.231
-58.7676
-54.7468
-49.2553
-53.7715
-48.801
-48.7934
-48.017
-71.0728
-71.0875
-65.8021
-58.2951
-65.83
-58.3156
-55.7451
-55.738
-13.8641
-13.8855
-6.12631
10.6986
10.6654
-6.16926
18.7136
18.6593
191.275
193.953
173.882
175.838