# vtk DataFile Version 2.0
tet_velo
ASCII
DATASET UNSTRUCTURED_GRID
POINTS 29498 float
-0.765 0.155 -2.10309
-0.740637 0.205 1.935
-0.795 0.540861 -1.915
-0.815 0.652611 1.665
0.765 0.155 -2.10309
0.740632 0.205 1.935
0.795 0.540861 -1.915
0.815 0.652611 1.665
-0.813523 0.115023 -0.75706
-0.816623 0.120468 0.58897
-0.737091 0.513535 -0.721667
-0.801806 0.608834 0.471667
0.813611 0.114933 -0.75706
0.816581 0.120507 0.58897
0.737103 0.513548 -0.721667
0.80181 0.608838 0.471667
-1.54212 -0.063595 -3.12606
-1.55026 -0.0724843 -2.11039
-1.59231 -0.103747 -0.760416
-1.61601 -0.10184 0.620293
-1.58306 -0.0428054 1.97286
-1.56619 0.00509307 3.0012
-1.5621 0.043235 4.00608
-1.54124 0.146507 -3.08691
-1.54338 0.139478 -2.08792
-1.58689 0.112838 -0.767658
-1.61636 0.127752 0.566353
-1.57125 0.190318 1.88955
-1.55524 0.237586 2.91574
-1.55394 0.274272 3.92559
-1.55149 0.543384 -2.96576
-1.54923 0.533773 -1.96045
-1.5402 0.525011 -0.744284
-1.60232 0.595946 0.461069
-1.6064 0.647393 1.68017
-1.57169 0.691949 2.71267
-1.55487 0.728337 3.74715
-1.56854 1.13359 -2.89883
-1.56665 1.13497 -1.9164
-1.56013 1.16541 -0.749734
-1.5718 1.23993 0.384018
-1.58128 1.3102 1.55228
-1.57328 1.3531 2.53804
-1.56037 1.38902 3.55585
-0.760899 -0.0532701 -3.13591
-0.76456 -0.0605304 -2.12477
-0.800098 -0.101783 -0.758488
-0.819348 -0.106339 0.639596
-0.788685 -0.0356484 2.00661
-0.771416 0.0116119 3.0241
-0.767594 0.0478927 4.01934
-0.76169 0.156498 -3.08995
-0.752342 0.245237 2.93462
-0.756676 0.279539 3.93559
-0.773854 0.549637 -2.94687
-0.766915 0.697717 2.70963
-0.754416 0.733444 3.7465
-0.79222 1.13353 -2.88016
-0.79229 1.13254 -1.89583
-0.778499 1.16218 -0.737335
-0.778606 1.24329 0.38253
-0.783454 1.31599 1.54165
-0.77456 1.3582 2.52743
-0.762174 1.3933 3.54814
0.79022 -0.0532805 -3.13591
0.789295 -0.0605494 -2.12477
0.809187 -0.101838 -0.758488
0.794672 -0.106325 0.639597
0.750007 -0.0356408 2.00661
0.784177 0.0116162 3.0241
0.806772 0.0478963 4.01934
0.786932 0.156493 -3.08995
0.80008 0.24524 2.93462
0.819185 0.279542 3.93559
0.787209 0.549636 -2.94687
0.827364 0.697719 2.70964
0.834484 0.733447 3.7465
0.762285 1.13352 -2.88016
0.758214 1.13254 -1.89583
0.774923 1.16218 -0.737335
0.802114 1.24329 0.38253
0.814729 1.31599 1.54165
0.823971 1.3582 2.52743
0.832777 1.3933 3.54814
1.5656 -0.0636184 -3.12606
1.56454 -0.072523 -2.11039
1.59325 -0.103818 -0.760416
1.5961 -0.101836 0.620293
1.55857 -0.0427894 1.97286
1.57351 0.00510264 3.0012
1.59474 0.0432416 4.00608
1.55949 0.146492 -3.08691
1.54588 0.139456 -2.08792
1.58384 0.112761 -0.767658
1.60943 0.127765 0.566353
1.56852 0.190335 1.88955
1.58604 0.237595 2.91574
1.60613 0.274278 3.9256
1.55704 0.543377 -2.96575
1.54455 0.533771 -1.96045
1.53617 0.524995 -0.744284
1.60112 0.595947 0.461069
1.61224 0.647404 1.68017
1.61702 0.691956 2.71267
1.62468 0.728342 3.74715
1.54143 1.13359 -2.89883
1.53814 1.13496 -1.9164
1.55552 1.1654 -0.749735
1.59013 1.23993 0.384017
1.61057 1.3102 1.55228
1.6203 1.3531 2.53804
1.62778 1.38902 3.55585
-0.789406 0.347931 -2.01845
0 0.0703162 -2.18777
-0.794141 0.130132 -1.43008
-0.791737 0.428806 1.81392
-2.5034e-06 0.15345 1.98655
-0.75555 0.185815 1.26199
0 0.634056 -2.0082
-0.865583 0.626735 -1.31833
0 0.851773 1.86416
-0.876338 0.698658 1.06833
0.789553 0.347931 -2.0186
0.793672 0.1306 -1.43008
0.791737 0.428806 1.81392
0.755524 0.185836 1.26199
0.865644 0.626797 -1.31833
0.876148 0.698467 1.06833
-0.847714 0.0851041 -0.0840451
-0.734624 0.314279 -0.739363
4.42442e-05 0.0594202 -0.75706
-0.805417 0.364651 0.530318
-2.11144e-05 0.097006 0.58897
-0.794043 0.585779 -0.125
6.15081e-06 1.1709 -0.721667
1.77478e-06 1.57063 0.471667
0.847704 0.0851123 -0.0840451
0.734611 0.31424 -0.739363
0.805417 0.364672 0.530318
0.794028 0.585764 -0.125
-0.8933 0.331105 -1.3742
-0.795995 0.339465 -0.104523
-0.892602 0.396728 1.16516
2.21221e-05 0.0597461 -1.43008
1.15649e-05 0.0774603 -0.0840451
-1.18089e-05 0.133457 1.26199
0 0.347931 -2.19551
-1.2517e-06 0.428806 2.11933
3.0754e-06 0.953225 -1.31833
3.96279e-06 1.53986 -0.125
8.87389e-07 1.46081 1.06833
0.893301 0.331085 -1.3742
0.795998 0.339456 -0.104523
0.892597 0.396739 1.16516
-1.15419 0.147239 -2.09551
-0.76478 0.0472348 -2.11393
-0.763345 0.155749 -2.59652
-1.15594 0.197659 1.91227
-0.764661 0.0846758 1.9708
-0.74649 0.225118 2.43481
-1.17212 0.537317 -1.93773
-0.784427 0.545249 -2.43094
-0.793645 0.836702 -1.90541
-1.2107 0.650002 1.67258
-0.790958 0.675164 2.18732
-0.799227 0.984301 1.60333
0.777147 0.0472253 -2.11393
0.775966 0.155746 -2.59652
1.15544 0.147228 -2.09551
0.74532 0.0846796 1.9708
0.770356 0.22512 2.43481
1.15457 0.197667 1.91227
0.791105 0.545248 -2.43094
0.776607 0.836701 -1.90541
1.16978 0.537316 -1.93773
0.821182 0.675165 2.18732
0.814865 0.984302 1.60333
1.21362 0.650008 1.67258
-1.20021 0.11393 -0.762359
-0.806811 0.00661989 -0.757774
-1.21649 0.12411 0.577662
-0.817986 0.00706465 0.614283
-1.13864 0.519273 -0.732975
-0.757795 0.837857 -0.729501
-1.20206 0.60239 0.466368
-0.790206 0.926061 0.427098
0.811399 0.0065471 -0.757774
1.19872 0.113847 -0.762359
0.805626 0.00709101 0.614283
1.213 0.124136 0.577662
0.756013 0.837862 -0.729501
1.13664 0.519271 -0.732975
0.801962 0.926063 0.427098
1.20146 0.602392 0.466368
-1.54619 -0.0680396 -2.61823
-1.54168 0.0414561 -3.10649
-1.15151 -0.0584326 -3.13099
-1.57129 -0.0881158 -1.43541
-1.54682 0.0334966 -2.09916
-1.15741 -0.0665074 -2.11758
-1.60416 -0.102794 -0.0700617
-1.5896 0.00454521 -0.764037
-1.1962 -0.102765 -0.759452
-1.59954 -0.0723229 1.29658
-1.61619 0.0129557 0.593323
-1.21768 -0.10409 0.629945
-1.57462 -0.0188561 2.48703
-1.57715 0.0737562 1.9312
-1.18587 -0.0392269 1.98973
-1.56414 0.024164 3.50364
-1.56071 0.12134 2.95847
-1.1688 0.00835246 3.01265
-1.55802 0.158753 3.96584
-1.16485 0.0455639 4.01271
-1.54231 0.142992 -2.58742
-1.54637 0.344946 -3.02633
-1.15147 0.151503 -3.08843
-1.56514 0.126158 -1.42779
-1.54631 0.336626 -2.02419
-1.60163 0.120295 -0.100652
-1.56354 0.318924 -0.755971
-1.59381 0.159035 1.22795
-1.60934 0.361849 0.513711
-1.56325 0.213952 2.40264
-1.58882 0.418855 1.78486
-1.55459 0.255929 3.42067
-1.56347 0.464768 2.8142
-1.15379 0.241411 2.92518
-1.5544 0.501304 3.83637
-1.15531 0.276905 3.93059
-1.55036 0.538579 -2.4631
-1.56001 0.838489 -2.93229
-1.16267 0.546511 -2.95631
-1.54471 0.529392 -1.35237
-1.55794 0.834372 -1.93843
-1.57126 0.560478 -0.141607
-1.55016 0.845208 -0.747009
-1.60436 0.621669 1.07062
-1.58706 0.917938 0.422543
-1.58904 0.669671 2.19642
-1.59384 0.978796 1.61622
-1.56328 0.710143 3.22991
-1.57249 1.02252 2.62536
-1.1693 0.694833 2.71115
-1.55762 1.05868 3.6515
-1.15464 0.73089 3.74683
-1.56759 1.13428 -2.40761
-1.18038 1.13356 -2.88949
-1.56339 1.15019 -1.33307
-1.17947 1.13376 -1.90611
-1.56596 1.20267 -0.182858
-1.16931 1.16379 -0.743534
-1.57654 1.27506 0.968147
-1.1752 1.24161 0.383274
-1.57728 1.33165 2.04516
-1.18237 1.3131 1.54696
-1.56683 1.37106 3.04695
-1.17392 1.35565 2.53274
-1.16127 1.39116 3.55199
-0.762729 -0.0569003 -2.63034
-0.761294 0.0516139 -3.11293
0.0146607 -0.0532753 -3.13591
-0.782329 -0.0811567 -1.44163
0.0123671 -0.0605399 -2.12477
-0.809723 -0.104061 -0.059446
0.00454453 -0.101811 -0.758488
-0.804016 -0.0709938 1.3231
-0.0123381 -0.106332 0.639596
-0.78005 -0.0120183 2.51535
-0.0193388 -0.0356446 2.00661
-0.769505 0.0297523 3.52172
-0.761879 0.128424 2.97936
0.00638071 0.011614 3.0241
-0.762135 0.163716 3.97746
0.0195892 0.0478945 4.01934
-0.767772 0.353068 -3.01841
0.0126208 0.156495 -3.08995
-0.754509 0.262388 3.4351
-0.759629 0.471477 2.82213
0.0238691 0.245238 2.93462
-0.755546 0.506491 3.84105
0.0312547 0.279541 3.93559
-0.783037 0.841582 -2.91352
0.00667751 0.549637 -2.94687
-0.760665 0.71558 3.22807
-0.770738 1.02796 2.61853
0.0302244 0.697718 2.70963
-0.758295 1.06337 3.64732
0.0400343 0.733445 3.7465
-0.792255 1.13303 -2.38799
-0.0149675 1.13352 -2.88016
-0.785395 1.14736 -1.31658
-0.0170377 1.13254 -1.89583
-0.778553 1.20273 -0.177402
-0.00178835 1.16218 -0.737335
-0.78103 1.27964 0.962091
0.0117542 1.24329 0.38253
-0.779007 1.3371 2.03454
0.0156376 1.31599 1.54165
-0.768367 1.37575 3.03778
0.0247051 1.3582 2.52743
0.0353017 1.3933 3.54814
0.789757 -0.0569149 -2.63034
0.788576 0.051606 -3.11293
1.17791 -0.0584494 -3.13099
0.799241 -0.0811939 -1.44163
1.17692 -0.0665362 -2.11758
0.80193 -0.104082 -0.059446
1.20122 -0.102828 -0.759452
0.77234 -0.0709831 1.3231
1.19539 -0.104081 0.629945
0.767092 -0.0120123 2.51535
1.15429 -0.0392151 1.98973
0.795475 0.0297562 3.52172
0.792129 0.128428 2.97936
1.17884 0.00835942 3.01265
0.812979 0.163719 3.97746
1.20076 0.0455689 4.01271
0.787071 0.353064 -3.01841
1.17321 0.151492 -3.08843
0.809633 0.262391 3.4351
0.813722 0.47148 2.82213
1.19306 0.241418 2.92518
0.826835 0.506495 3.84105
1.21266 0.27691 3.93059
0.774747 0.841579 -2.91352
1.17212 0.546506 -2.95631
0.830924 0.715583 3.22807
0.825667 1.02796 2.61853
1.22219 0.694838 2.71115
0.833631 1.06337 3.64732
1.22958 0.730895 3.74683
0.76025 1.13303 -2.38799
1.15186 1.13355 -2.88949
0.766568 1.14736 -1.31658
1.14818 1.13375 -1.90611
0.788518 1.20273 -0.177403
1.16522 1.16379 -0.743535
0.808422 1.27964 0.962091
1.19612 1.24161 0.383273
0.81935 1.3371 2.03454
1.21265 1.3131 1.54696
0.828374 1.37575 3.03778
1.22214 1.35565 2.53274
1.23028 1.39116 3.55199
1.56507 -0.0680707 -2.61823
1.56254 0.0414367 -3.10649
1.5789 -0.0881705 -1.43541
1.55521 0.0334663 -2.09916
1.59468 -0.102827 -0.0700618
1.58854 0.00447136 -0.764037
1.57734 -0.0723127 1.29658
1.60277 0.0129643 0.593323
1.56604 -0.0188434 2.48703
1.56354 0.0737727 1.9312
1.58412 0.0241721 3.50364
1.57977 0.121349 2.95847
1.60044 0.15876 3.96584
1.55268 0.142974 -2.58742
1.55826 0.344934 -3.02633
1.56486 0.126108 -1.42779
1.54521 0.336613 -2.02419
1.59663 0.120263 -0.100652
1.56 0.318878 -0.755971
1.58897 0.15905 1.22795
1.60527 0.361856 0.513711
1.57728 0.213965 2.40264
1.59038 0.41887 1.78486
1.59608 0.255937 3.42067
1.60153 0.464776 2.8142
1.61541 0.50131 3.83637
1.55079 0.538574 -2.4631
1.54923 0.838481 -2.93229
[...]
POINT_DATA 29498
VECTORS point_vectors float
-9.37667 -9.37409 14.7358
0.168325 0.345843 1.65801
-1.20029 0.64135 1.51806
-0.123403 -0.135198 0.0981529
9.35547 -9.37021 14.7268
-0.258618 0.151711 1.41938
1.24415 0.663966 1.57484
0.114939 -0.0483066 -0.00131154
0.188294 -0.170392 1.22846
0.49066 -0.304125 1.93069
-0.000167228 0.0025394 0.00580177
0.00021003 0.00538583 0.00883805
-0.190291 -0.190133 1.22353
-0.514418 -0.340142 1.91234
0.000159061 0.0024708 0.00577614
-0.000201669 0.00528168 0.00847163
-0.702359 -0.286386 19.8293
-1.42904 -0.745456 20.5156
-0.479778 -0.578547 21.5272
0.0946744 -0.321412 21.7205
0.684982 -0.0244494 21.7417
1.07734 0.14702 21.5208
1.21736 0.214726 20.7623
-0.773079 -0.23212 19.7616
-1.72732 -0.66465 20.4525
-0.608807 -0.671286 21.5606
0.0187356 -0.429977 21.7397
0.695838 -0.190913 21.846
1.1382 -0.0462288 21.5399
1.23975 -0.0231456 21.0385
-0.942855 -0.0399104 19.6854
-2.04082 -0.281519 20.5145
-1.10941 -0.830651 21.534
-0.402302 -0.599774 21.8694
0.341866 -0.473238 21.9202
0.887062 -0.477045 21.6678
1.04181 -0.51429 21.621
-0.867187 0.275031 19.7636
-1.72476 0.418913 20.3116
-1.75862 -0.0908269 21.3799
-0.83206 -0.220257 21.9276
-0.0203288 -0.355589 21.8366
0.400133 -0.490419 21.5801
0.78626 -0.576547 21.3953
-0.732014 -0.607988 19.0753
-3.11598 -4.81112 20.1574
-0.221119 -0.241387 19.1498
0.710786 0.233734 18.1266
0.746472 1.18477 17.2242
1.31288 1.94113 18.2701
1.27882 1.71439 18.7416
-0.86115 -0.481786 18.8163
1.44115 1.80731 11.3507
2.02565 1.57879 13.7342
-1.21693 0.0520308 18.3548
0.479452 0.624014 4.76871
2.00625 0.628412 8.72106
-0.954742 0.763193 18.8634
-3.13527 2.77973 19.3561
-7.65403 0.635735 20.2095
0.206256 1.17609 7.26708
0.718123 0.468294 10.8646
0.781303 -0.38209 14.0803
1.26072 -1.16041 16.5415
0.735237 -0.593904 19.112
3.12664 -4.53806 20.1458
0.182683 -0.253909 19.2767
-0.815489 0.224215 17.6975
-0.82116 0.831919 16.2165
-1.35402 1.35188 18.0501
-1.48796 1.32119 18.7415
0.861087 -0.469094 18.8428
-0.877494 1.10641 10.7694
-1.70814 0.987536 13.544
1.2154 0.0484308 18.3757
0.0597023 0.725974 3.14988
-1.22863 0.365911 7.60326
0.927401 0.785067 18.8257
3.1141 2.96941 19.2604
7.69296 0.65695 20.0839
-0.0897993 1.2337 9.12674
-0.668392 0.803643 11.6587
-0.842412 0.356102 14.2034
-1.35636 -0.64063 15.6162
0.697876 -0.285033 19.8211
1.40409 -0.739384 20.5095
0.472899 -0.592108 21.4958
-0.106406 -0.353665 21.659
-0.58697 -0.136254 21.6589
-0.951924 0.0322597 21.5678
-1.15726 0.140064 20.6084
0.762354 -0.229952 19.7644
1.71085 -0.666335 20.4408
0.599331 -0.684564 21.536
-0.0174113 -0.466336 21.6816
-0.556539 -0.301948 21.7533
-0.919593 -0.168278 21.6138
-1.10164 -0.0998525 21.1168
0.929805 -0.0423371 19.6806
2.0416 -0.28157 20.5006
1.11116 -0.834994 21.5156
0.419823 -0.615534 21.7947
-0.18092 -0.491649 21.8076
-0.593257 -0.446904 21.6768
-0.998409 -0.446736 21.7409
0.868438 0.288587 19.7332
1.75614 0.447146 20.2828
1.75608 -0.0832479 21.3508
0.82694 -0.196518 21.8471
0.112964 -0.266923 21.7469
-0.259856 -0.347968 21.5576
-0.570239 -0.424583 21.4565
-1.48355 0.282315 0.903125
-0.00806223 -5.37194 5.85597
-0.0168337 0.00423575 0.412818
-0.0183494 -0.0440905 0.0160216
-0.0131079 0.00175148 0.103316
-0.00323776 0.00343927 0.091108
0.000913066 1.19481 1.15826
-0.147031 -0.276573 1.06879
-0.0277996 0.0266063 -0.0199651
0.01207 0.136147 0.380384
1.48524 0.275667 0.91074
0.0136551 0.00274182 0.381036
0.0273642 -0.0303515 -0.000549322
0.000385985 0.00270069 0.0886918
0.147891 -0.277867 1.07254
-0.0097646 0.121123 0.346293
0.194709 -0.357667 6.64059
0 0 0
-0.000186571 0.00187941 0.03873
0.000237312 0.00965001 0.0247548
-8.54328e-05 0.000173931 0.00667008
-0.00153539 0.0137731 0.0313752
0.000447691 -0.00386383 -0.0013026
-0.00129451 -0.00150734 0.0890711
-0.228661 -0.407393 6.60721
-2.85426e-18 -7.05208e-18 1.71151e-18
-0.000239807 0.00912313 0.0241085
0.00152066 0.0131772 0.0304872
0.00184646 0.0115514 0.101104
-0.00164773 0.00742146 0.0413013
0 0 0
0 0 0
-4.36073e-05 0.000108768 0.00611915
0 0 0
0.0571882 0.52414 0.449836
-0.0136378 0.0119833 -0.00722689
8.51753e-07 0.0014862 0.00611548
-2.49483e-05 0.000772971 0.00521442
-1.95609e-05 9.4961e-06 -5.8432e-06
-0.00184679 0.0112902 0.100997
0.00159984 0.00712482 0.0406233
0 0 0
-3.35746 -1.76619 20.1853
-4.76191 -6.71018 19.6215
-2.15378 -1.41901 17.5922
1.31107 0.202783 20.8502
0.155624 1.24263 11.4972
0.670465 1.07824 7.73339
-4.4618 -0.268481 20.4919
-3.42779 0.638658 16.4637
-5.49738 3.92394 18.9888
0.589133 -0.423276 20.0842
-0.433979 0.272467 2.36479
0.106101 0.194545 4.33777
4.76559 -6.46489 19.6575
2.14867 -1.39942 17.6274
3.33426 -1.76612 20.1699
-0.339772 0.798394 10.3209
-0.286651 0.50937 7.10595
-1.08483 -0.0758286 20.5278
3.41778 0.626502 16.5047
5.50565 4.13761 18.885
4.47338 -0.263166 20.4719
0.658096 0.938839 1.28326
-0.0520976 0.602315 3.67679
-0.305102 -0.466309 19.7287
-0.0639519 -0.857683 21.7492
-0.17666 0.294586 11.2088
0.399742 -0.540197 21.533
0.941827 0.110138 12.3105
-0.740674 -2.1711 20.0014
-1.12103 -0.800653 5.64669
-0.446512 -1.14773 20.4744
0.13736 0.498997 0.996883
0.12296 0.29068 11.3914
0.0525593 -0.875476 21.7145
-1.0372 0.100928 11.8663
-0.410122 -0.595222 21.4268
1.06569 -0.755103 5.40024
0.724812 -2.17073 19.8934
-0.208074 0.806827 1.65756
0.460538 -1.16582 20.3467
-1.12604 -0.529696 19.9754
-0.743123 -0.268571 19.8002
-0.787594 -0.444766 19.4693
-1.03289 -0.713267 21.2791
-1.55214 -0.719875 20.4861
-2.28794 -1.78689 20.3856
-0.143668 -0.456641 21.6398
-0.54616 -0.621079 21.5441
-0.233659 -0.58757 21.8132
0.351841 -0.181151 21.7959
0.0614121 -0.372525 21.7197
0.393238 -0.246555 21.849
0.878848 0.117254 21.6131
0.682309 -0.0930856 21.7693
1.07389 0.372698 21.7208
1.01085 0.164502 21.4959
1.10719 0.0575571 21.5566
1.57441 0.732719 21.3129
1.24246 0.0850544 20.8946
1.55963 0.583586 21.1936
-1.30055 -0.438088 19.8752
-0.861487 -0.152243 19.7073
-0.901202 -0.374545 19.3663
-1.22042 -0.762649 21.331
-1.96208 -0.509358 20.4726
-0.256163 -0.568882 21.66
-0.781947 -0.797491 21.5794
0.313886 -0.312851 21.8727
-0.175172 -0.563453 21.8283
0.931251 -0.113398 21.7433
0.541262 -0.387903 21.9216
1.21348 -0.0348263 21.4131
1.04975 -0.297428 21.6086
1.76508 0.357039 20.8549
1.22848 -0.242527 21.3313
2.08113 0.253115 20.4419
-1.57411 -0.103337 19.83
-0.947044 0.124364 19.7082
-1.16021 -0.0177192 19.1434
-1.64782 -0.614929 21.3165
-1.99554 0.116194 20.3994
-0.74219 -0.765526 21.7583
-1.58673 -0.591237 21.4959
-0.0396822 -0.506443 21.9518
-0.700945 -0.459749 21.9132
0.641613 -0.466976 21.8506
0.0944275 -0.43489 21.8694
1.10399 -0.389103 21.3669
0.626979 -0.528978 21.6268
1.20745 -0.359636 19.2364
1.11493 -0.661432 21.2415
1.76606 -0.201222 19.0943
-1.2992 0.396069 19.9057
-0.979886 0.460644 19.3925
-1.85205 0.167769 20.9054
-2.53034 1.11127 20.01
-1.36047 -0.181547 21.762
-3.18696 0.0158412 21.5173
-0.367819 -0.275748 21.9376
-1.25606 -0.105733 22.4362
0.21262 -0.432665 21.7507
-0.0382142 -0.357279 22.0229
0.627862 -0.57082 21.5709
0.453937 -0.659274 21.9364
0.850303 -1.03533 21.8323
-1.63641 -1.7059 18.4628
-0.782914 -0.568957 18.9752
0.0045012 -0.863625 18.5843
-0.888057 -1.12761 20.795
-0.0630045 -7.99015 23.1905
0.370827 -0.0703712 17.7383
-0.0228485 -0.0434211 12.9161
0.780075 0.540878 17.3039
-0.0602886 0.371683 13.0635
0.971055 1.53773 17.5488
-0.409029 0.589035 11.3409
1.5261 2.00456 18.4146
1.30331 1.83959 15.0436
-0.692383 0.807949 10.6831
1.65863 1.64513 16.1165
-0.418203 2.34166 12.736
-1.04229 -0.276105 18.5309
0.00893186 -0.665137 18.2072
2.06618 2.05582 13.6581
0.949696 1.27545 6.79598
-0.152491 -1.28165 -1.00354
2.32779 1.10061 12.6729
0.249194 1.25699 4.24871
-1.14092 0.497044 18.5114
0.00557861 0.157158 17.2835
1.51862 0.586194 6.39526
0.474308 0.205821 6.38096
0.700671 -1.30114 -3.2727
1.40013 -0.798758 10.7667
1.4295 -0.462545 -2.25972
-1.87898 1.74157 18.5601
-0.0273368 1.14463 18.2204
-4.24381 1.96863 20.3281
-0.117578 5.62667 18.0595
-0.836059 0.922085 10.0978
-0.00349961 -0.408782 -0.185796
0.747945 1.2618 8.58463
4.39317e-19 -5.11984e-19 -3.49709e-17
0.636739 0.072986 12.3313
-1.13404 0.474524 -0.631255
1.10874 -0.877396 15.578
-0.720771 -0.141653 1.69561
-0.219966 -0.993364 4.14576
1.63924 -1.65344 18.5218
0.785433 -0.5577 19.0048
0.786824 -0.434401 19.4906
0.896403 -1.13994 21.1819
2.22256 -1.7042 20.3808
-0.441823 -0.0877067 17.6582
0.224372 -0.607667 21.7828
-0.878293 0.482597 16.5746
-0.433203 -0.285388 21.7897
-0.980869 0.967782 16.873
-0.995691 0.166432 21.4725
-1.54206 1.6942 17.9618
-1.13452 1.20533 14.6272
-1.4114 0.465345 21.3209
-1.6176 1.15156 15.2745
-1.584 0.478917 21.3189
1.04447 -0.272754 18.5656
0.894814 -0.376018 19.3864
-1.67363 1.64633 13.0739
-0.123347 0.767246 5.47614
-1.38836 0.0181775 21.0141
-1.87511 0.744678 11.9321
-1.89453 0.188424 20.5432
1.12785 0.499999 18.498
1.15133 -0.0188386 19.154
-1.18761 0.311163 5.17048
-0.42737 0.926671 5.40198
-0.670311 -0.487305 20.1293
-0.87552 -0.363454 10.1718
-1.50198 -0.329446 19.8671
1.84235 1.81406 18.4865
0.98035 0.487332 19.3463
4.26075 2.10034 20.2592
2.60285 1.1997 19.9677
1.06466 0.818656 11.3096
3.19555 0.0268804 21.4866
-0.681266 1.30871 10.0494
1.24843 -0.0716901 22.3032
-0.559059 0.665768 12.7761
0.180578 -0.202159 21.9033
-1.08636 -0.0663683 14.9301
-0.216469 -0.384305 22.13
-0.691534 -0.748615 22.0794
1.11328 -0.521454 19.9678
0.735225 -0.268216 19.7976
1.02297 -0.72133 21.2548
1.52602 -0.721578 20.4782
0.134241 -0.476373 21.6068
0.537783 -0.634153 21.5165
-0.33075 -0.243078 21.7117
-0.0673196 -0.410394 21.6583
-0.747084 -0.0186715 21.6024
-0.571088 -0.207305 21.6946
-0.998543 0.0612647 21.5822
-0.937186 -0.0583025 21.6213
-1.14396 0.0220411 20.8532
1.28198 -0.433675 19.8737
0.842909 -0.148466 19.7132
1.2091 -0.770317 21.3132
1.95211 -0.509897 20.4584
0.248591 -0.594188 21.6232
0.772711 -0.805574 21.5561
-0.273588 -0.381427 21.773
0.185071 -0.588729 21.7619
-0.719172 -0.236814 21.6985
-0.386354 -0.449374 21.8242
-1.04062 -0.104867 21.4389
-0.771996 -0.356947 21.6544
-1.07009 -0.315584 21.5311
1.56227 -0.103847 19.8176
0.948445 0.12748 19.6857
1.64492 -0.620699 21.2955
2.02469 0.120714 20.3837
0.744872 -0.775456 21.703
1.57949 -0.583883 21.4729
0.0999401 -0.524239 21.8464
0.713656 -0.4486 21.8377
-0.388735 -0.475712 21.7531
0.0479527 -0.390645 21.7693
-0.81927 -0.376387 21.273
-0.363862 -0.411068 21.5805
-0.951327 -0.519736 21.2385
1.31249 0.416237 19.874
1.87022 0.178481 20.8834
1.34758 -0.168622 21.7151
0.400529 -0.224769 21.8423
-0.0780814 -0.308782 21.6906
-0.475969 -0.454961 21.5403
-1.20627 -0.50239 19.9321
-1.86139 -1.63556 18.0924
-1.49175 -0.966929 19.4163
-1.88222 -0.831641 19.1461
-0.843585 -0.428335 19.4232
-2.80726 -1.84919 20.3031
-1.11733 -0.736629 21.2971
-0.393154 -0.292232 13.2086
-1.05976 -1.13015 21.7937
-1.25271 -1.39481 22.1604
-0.146405 -0.669574 21.8582
-0.194439 -0.509985 21.6442
0.654171 -0.19333 12.0982
0.131657 -0.409236 21.816
0.203659 -0.712949 21.6183
0.423303 -0.388306 21.7429
0.332915 -0.228009 21.8247
0.479232 0.481277 11.1794
0.673278 -0.00864492 21.883
0.693033 -0.251001 21.1788
1.22071 0.298425 21.3898
0.89645 0.0120817 21.6708
0.796468 1.5101 13.0304
1.32094 0.538905 21.5134
1.58347 0.305186 20.987
1.70455 0.527894 21.0908
1.11753 0.0807792 21.4208
1.78397 2.07085 16.1284
1.71791 0.88493 21.4141
1.94898 0.452258 20.6171
1.81332 0.425809 21.0089
-1.4644 -0.29642 19.8295
-2.89431 -0.691287 16.7435
-2.52917 0.006472 18.9026
-1.05513 -0.203785 19.2218
-4.2749 -1.14352 20.269
-1.42587 -0.715683 21.3628
-2.25183 -1.45138 22.1114
-0.0838359 -1.36776 20.609
-0.451984 -0.709866 21.7197
-0.816742 -1.74277 20.648
0.230434 -0.809401 20.5502
0.136891 -0.455189 21.935
-0.154381 -0.665888 20.6865
1.1345 -0.159598 20.3846
0.807895 -0.357516 21.8178
-0.00640415 0.345454 3.07026
0.8937 -0.431318 19.8625
1.71193 -0.00692037 19.7912
1.28272 -0.344808 21.4883
1.88194 1.42027 10.4414
1.64454 -0.350634 19.433
2.1145 0.0531119 19.8502
-1.51887 0.177108 19.8472
-2.63587 1.65328 17.6026
-1.71106 0.846052 19.4202
-1.09844 0.279817 19.2116
-3.50521 0.808123 20.1261
-1.86903 -0.277617 21.1116
-5.41378 0.027528 19.2234
-2.90186 0.571713 20.8387
-2.90481 -1.45219 21.664
-1.17559 -0.561445 21.7901
0.00671857 0.183524 0.405113
-2.27341 -0.0913099 22.3055
-1.31345 -0.677422 21.9354
-0.294649 -0.411688 21.9677
0.580894 1.4615 4.47026
-0.511876 -0.183105 22.3275
0.00391882 -0.5115 21.2047
0.343852 -0.480171 21.7749
-0.00826007 0.207212 4.91912
0.195785 -0.487613 21.8298
0.737294 -0.565737 20.1969
0.855367 -0.649898 21.7053
0.838576 -0.037054 8.08712
0.708346 -0.875082 21.9614
1.28641 -0.751991 19.4605
1.85885 -1.60366 18.1548
0.0215214 -2.83212 17.0889
0.0142271 -2.37023 15.5654
0.00837571 -0.82126 18.4415
-0.0270333 -4.81163 15.4588
0.390829 -0.305006 13.6441
-0.000940607 -0.477418 14.1875
-0.0193791 0.111195 5.29857
-0.73274 -0.219631 11.936
-0.035868 0.158826 12.4869
-0.0620735 0.224324 6.48869
-0.612704 0.408933 10.5763
-0.136407 0.41174 11.8633
-0.475268 0.226036 5.3678
-0.753795 0.814784 12.1043
-0.776993 0.517397 10.8806
-0.967846 -0.408531 -0.364071
-0.601867 -0.147621 4.24674
-1.62372 1.69591 15.1982
-0.478159 1.91665 11.9029
0.127921 0.534036 2.18618
-0.100132 1.78346 8.37819
2.88194 -0.684565 16.8129
0.0100019 1.88261 13.0578
0.0133276 -0.320349 17.6906
0.642829 0.485745 2.31917
-0.474458 0.609068 -1.77891
0.593912 -1.80512 -3.81199
-1.54235 1.07817 9.40204
1.06453 -0.922102 -4.21836
1.21611 -0.445261 -2.24747
2.61409 1.6904 17.5469
-0.0585233 2.97792 17.3577
-0.0159123 0.854442 17.5768
-0.0870432 9.21304 16.1023
5.3532 0.0539613 18.7754
-0.0939251 5.4235 17.8756
0 0 0
-0.0177068 0.371311 0.895247
0 0 0
0 0 0
-0.565923 1.59286 4.62654
0 0 0
0 0 0
-0.106733 1.35974 4.4304
-0.951378 0.764663 0.538754
0.441094 -0.606963 -1.59122
-0.5751 0.39481 7.45843
-0.468575 -0.113189 2.28361
1.11607 -0.208368 -4.07458
1.18812 -0.496846 19.9282
1.45898 -0.9258 19.4612
1.85102 -0.825087 19.1732
0.84165 -0.419528 19.441
2.74785 -1.801 20.2976
1.10362 -0.744819 21.2765
1.05628 -1.12849 21.7509
1.2441 -1.40534 22.1376
0.14106 -0.692499 21.827
0.185093 -0.534707 21.6072
-0.155624 -0.433104 21.7828
-0.217421 -0.741155 21.5579
-0.455358 -0.436287 21.6398
-0.300776 -0.299843 21.7224
-0.708199 -0.0955624 21.6952
-0.672873 -0.379204 20.9652
-1.08517 0.0414679 21.1154
-0.73031 -0.116636 21.6475
-1.144 0.246857 21.4101
-1.1811 -0.0495524 20.8724
-1.39818 0.219888 21.0863
-1.01527 -0.0138401 21.4536
-1.64179 0.645161 21.5204
-1.71642 0.0903052 20.9686
-1.71008 0.329402 21.2274
1.44234 -0.293082 19.8256
2.51057 0.00466365 18.9073
1.04624 -0.203892 19.2359
4.26814 -1.14506 20.2506
1.41652 -0.721139 21.3449
2.24188 -1.46129 22.0738
0.0726266 -1.37341 20.5302
0.447149 -0.726294 21.6752
0.80766 -1.75996 20.4863
-0.221212 -0.851367 20.4144
-0.0842259 -0.501752 21.8311
0.229221 -0.703986 20.5033
-0.835122 -0.327784 19.9897
-0.544777 -0.4248 21.7509
-0.383069 -0.405066 19.6459
-1.1539 -0.24976 20.2804
-1.01616 -0.311745 21.525
-1.16455 -0.431848 20.5577
-1.80052 -0.0652025 19.947
1.53532 0.183108 19.8177
1.73404 0.913293 19.3564
1.09167 0.282934 19.1905
3.59755 0.862131 20.0901
1.87613 -0.28225 21.0962
2.94815 0.607085 20.8066
2.90223 -1.4529 21.6316
1.16812 -0.559503 21.7401
2.24422 -0.0725155 22.2321
1.31392 -0.657843 21.8429
0.348114 -0.394848 21.8614
0.566561 -0.113275 22.1789
0.233732 -0.426414 21.0649
-0.14389 -0.40226 21.6795
0.0245995 -0.277499 21.9827
-0.286618 -0.394441 20.6745
-0.635292 -0.54 21.7324
-0.515316 -0.592976 22.1378
-1.13164 -0.573554 19.3094
-1.6586 -0.924372 19.2811
-1.13786 -1.21988 21.94
0.187626 -0.544161 21.7751
0.729316 -0.135348 21.6859
1.5239 0.447551 21.3042
1.86946 0.599762 21.48
-2.32285 -0.470951 18.9222
-1.74754 -1.57349 22.4735
0.0358237 -1.23895 20.7359
0.386696 -0.473045 20.6849
1.43082 -0.144268 20.1745
1.99258 0.0252854 19.9692
-2.19461 0.632781 19.1049
-3.16941 -0.475268 21.4357
-2.17164 -1.00343 22.1852
-0.603865 -0.392647 21.5979
0.321379 -0.499813 20.7279
1.18597 -0.57062 19.6127
0.0252332 -2.75483 16.3986
-0.00932104 -0.0147116 4.6465
-0.0319417 0.111894 5.77331
-0.14758 0.185755 5.51866
-1.03095 0.102131 4.38755
-0.205213 1.31942 6.94538
0.0214367 -0.775297 13.7777
-0.497933 -0.574737 -2.57035
1.04759 -1.77659 -4.37697
-0.0404981 3.23687 15.4134
0 0 0
0 0 0
0 0 0
-0.377633 1.0047 -0.85922
0.463266 -0.671494 -2.77869
1.6333 -0.895557 19.3092
1.13474 -1.22584 21.905
-0.210295 -0.570699 21.7278
-0.737485 -0.24115 21.4391
-1.23381 0.0986034 21.16
-1.70637 0.320591 21.6593
2.29653 -0.465689 18.9391
1.73906 -1.58175 22.4514
-0.0432581 -1.25691 20.622
-0.326612 -0.566846 20.4769
-0.890361 -0.34571 20.1078
-1.4824 -0.196075 20.4783
2.21336 0.64882 19.0557
3.21494 -0.478881 21.4302
2.16548 -0.997201 22.0822
0.68339 -0.401689 21.5625
0.0596524 -0.376297 20.9456
-0.816676 -0.296098 19.5034
-2.64518 -1.45001 2.41489
-4.29472 -15.3732 13.399
-0.0269566 -0.020991 0.51706
0.00155781 -0.0664508 0.031132
-0.0265935 0.016447 0.167015
-0.00542209 0.00633938 0.123806
-0.896962 0.0961985 0.902171
-0.369754 0.889604 0.795055
-0.369956 -0.227856 1.49288
0.000183727 -0.0984467 0.118682
-0.00264359 0.000510911 -0.00222528
0.078019 0.0859777 0.655793
4.30463 -15.3615 13.4105
2.65748 -1.4583 2.42537
0.0249017 -0.0206017 0.495954
-0.000158259 0.0127114 0.136814
0.0133007 -0.0684693 0.0187386
8.84976e-05 0.00476082 0.113807
0.367919 0.888778 0.796349
0.861167 0.0924587 0.867673
0.366232 -0.226656 1.48031
-0.000945922 0.0111601 -0.00649261
0.0163586 -0.0789563 0.0787342
-0.0624415 0.0652143 0.590469
0.000687894 -0.00159922 0.0111661
0.263658 -0.269813 5.79303
0 0 0
0 0 0
-0.00576383 0.0123133 0.145847
0.25638 -0.198493 5.14074
0 0 0
0.000193013 0.00083856 0.0383128
0 0 0
2.00513e-19 5.74907e-19 2.05656e-18
-0.00170688 0.0109926 0.0231882
-0.0752086 -0.0123703 0.0236494
1.33243e-18 -2.43709e-17 -1.90807e-17
0.000233108 0.006279 0.0104815
-0.000611257 0.0148154 0.0299884
0.0892913 0.091846 0.803591
0 0 0
0 0 0
-0.284039 -0.309256 5.7694
9.31022e-19 8.19766e-18 3.79038e-18
0.00213898 0.0108552 0.138606
-0.00103143 0.000850797 0.0378426
-0.297021 -0.244852 5.19032
0 0 0
0 0 0
0.0762778 -0.0125019 0.0240813
0 0 0
0.00167998 0.0106123 0.0228057
0 0 0
-0.100284 0.101575 0.776986
-0.000232419 0.00615118 0.0102477
0.000628022 0.0144676 0.0291028
-0.00162698 -0.000322117 0.03204
0 0 0
1.26189e-05 -0.000236592 0.018686
-0.000602751 -0.225973 0.040417
-0.0155693 0.0261904 0.252862
0 0 0
0.00566887 0.0233549 0.171022
0 0 0
0 0 0
-0.0750736 -0.0430058 -0.0152358
0.00292225 0.0264824 0.286262
-2.04323e-06 4.71993e-06 0.00017306
0.0517993 0.579881 0.462115
-0.000103855 0.0516164 0.130458
0 0 0
0 0 0
-0.0257173 0.0345335 -0.0202104
-0.000378998 0.000151698 -0.000234299
0 0 0
-0.000517654 -0.00280015 0.00551152
0 0 0
0.00167006 -0.00037593 0.0329054
0 0 0
0.0151269 0.025383 0.251233
0 0 0
-0.00508877 0.0163724 0.155893
-0.000278792 0.000101733 0.00546639
-0.00391659 0.017755 0.27885
0 0 0
0 0 0
-0.00456786 -0.000201238 0.00399433
0 0 0
-3.87738e-18 1.78172e-17 1.51346e-16
0 0 0
0 0 0
-0.00102105 0.00518782 0.0204939
0 0 0
-0.000246454 0.00126398 0.0446316
0 0 0
-0.101269 0.0415571 0.885199
0 0 0
-4.92597e-05 5.25209e-05 0.00171179
-0.000623033 0.00544151 0.016641
-0.0669699 0.146383 1.55096
-3.08521e-05 0.000142295 -0.000808545
0.00150132 0.0752003 0.221323
-0.000699691 0.00468053 0.0886128
-7.96131e-06 -1.98149e-05 0.000131164
0 0 0
0 0 0
-0.00118215 0.000783659 0.00765611
0.00100175 0.00493116 0.0199907
-2.90513e-19 -7.35481e-18 -2.52597e-17
0.0992824 0.0298372 0.868659
0.0519316 0.15607 1.54179
0.00061221 0.00525481 0.01625
-0.00212465 -0.000365863 0.050786
0 0 0
-0.0137025 0.0597552 0.228718
0.048319 -0.0529697 0.161984
0 0 0
-0.00111606 0.00815745 0.0225416
0 0 0
0.00349728 0.0986029 0.26334
-0.0409103 -0.0152665 0.568951
-0.0218504 0.102687 0.118041
0 0 0
0 0 0
-0.0142857 0.00118324 0.112328
0.0139681 0.00118955 0.112306
0 0 0
0 0 0
0.000433799 0.000289783 0.0109638
-0.00054269 0.000288535 0.0110022
0 0 0
3.08401e-18 -9.10733e-19 -4.65275e-17
-0.000167741 0.000305464 0.00539882
-0.0001298 0.000513293 0.00946415