# vtk DataFile Version 2.0
tet_velo
ASCII
DATASET UNSTRUCTURED_GRID
POINTS 29498 float
-0.76058 0.395 -2.385
-0.755 0.345 2.35863
-0.761165 0.785 -2.245
-0.695 0.971083 2.375
0.760585 0.395 -2.385
0.755 0.345 2.35869
0.761172 0.785 -2.245
0.695 0.971083 2.375
-0.838587 0.298466 -0.80379
-0.840471 0.278056 0.77742
-0.821472 0.929389 -0.705
-0.801913 0.993913 0.835
0.838596 0.298461 -0.80377
0.840819 0.27771 0.77746
0.821506 0.929419 -0.705
0.801926 0.993924 0.835
-1.57124 0.0695912 -3.68006
-1.57844 0.0837577 -2.43159
-1.63091 0.00716147 -0.849313
-1.63142 -0.0374398 0.741258
-1.57264 -0.00468694 2.32423
-1.55713 0.0230015 3.57612
-1.56388 0.0428566 4.82167
-1.56875 0.33594 -3.62487
-1.57379 0.376413 -2.38091
-1.63956 0.322392 -0.806654
-1.62652 0.291909 0.77131
-1.53785 0.323584 2.34636
-1.53465 0.349936 3.59766
-1.55268 0.368787 4.84456
-1.56893 0.814806 -3.50294
-1.57137 0.852279 -2.25727
-1.62545 0.940731 -0.711111
-1.59633 0.98004 0.83213
-1.49648 0.974619 2.37908
-1.51267 0.997143 3.63208
-1.54408 1.0185 4.88562
-1.58107 1.66353 -3.35104
-1.58594 1.72267 -2.11154
-1.60279 1.84099 -0.578744
-1.60243 1.93557 0.94517
-1.58091 1.97091 2.4784
-1.57174 1.98344 3.71879
-1.57552 1.99673 4.96782
-0.776536 0.0793368 -3.68271
-0.767548 0.0976007 -2.43546
-0.816634 -0.00401392 -0.848785
-0.832893 -0.0482572 0.74648
-0.794421 0.00417221 2.33336
-0.784162 0.0293068 3.58231
-0.789796 0.0455891 4.82526
-0.778043 0.337715 -3.62569
-0.769658 0.35739 3.60277
-0.783376 0.371789 4.84727
-0.77904 0.78807 -3.49784
-0.752645 0.99831 3.63127
-0.779071 1.01988 4.88545
-0.78413 1.64379 -3.346
-0.784524 1.70328 -2.10599
-0.80097 1.83542 -0.575394
-0.812562 1.94087 0.944773
-0.805933 1.97518 2.47554
-0.80017 1.98564 3.71593
-0.8024 1.99818 4.96575
0.788926 0.0793289 -3.68271
0.80176 0.0975939 -2.43546
0.836921 -0.00405937 -0.848766
0.820261 -0.0484907 0.746515
0.762722 0.0040826 2.3334
0.753988 0.0292377 3.58235
0.754034 0.0455152 4.82529
0.772817 0.337711 -3.62569
0.742489 0.357344 3.6028
0.747375 0.371724 4.84729
0.770719 0.788069 -3.49784
0.721878 0.998276 3.63128
0.737695 1.01982 4.88547
0.800277 1.64379 -3.34599
0.807268 1.70327 -2.10598
0.802837 1.83541 -0.575389
0.773385 1.94085 0.944779
0.741883 1.97514 2.47554
0.736633 1.98559 3.71594
0.739377 1.99812 4.96576
1.58075 0.06957 -3.68004
1.59574 0.0837357 -2.43158
1.64345 0.00706291 -0.849281
1.63185 -0.0377648 0.741313
1.56339 -0.00491114 2.3243
1.5386 0.0228374 3.57618
1.53502 0.0427009 4.82173
1.56369 0.335929 -3.62487
1.57043 0.376409 -2.3809
1.64005 0.32234 -0.806627
1.63481 0.291572 0.771361
1.54733 0.323392 2.34642
1.52221 0.349799 3.59772
1.52455 0.368646 4.84461
1.56012 0.814802 -3.50294
1.56581 0.852287 -2.25727
1.62376 0.94074 -0.711101
1.60212 0.979933 0.832149
1.50338 0.974497 2.37911
1.4959 0.997037 3.63212
1.51036 1.01838 4.88566
1.59299 1.66351 -3.35103
1.60139 1.72265 -2.11153
1.60236 1.84096 -0.578733
1.57181 1.93551 0.945185
1.52998 1.97083 2.47842
1.51694 1.98334 3.71881
1.51774 1.99662 4.96785
-0.755447 0.59 -2.30957
2.5034e-06 0.355035 -2.42496
-0.865724 0.280593 -1.5944
-0.740661 0.658041 2.38248
0 0.337611 2.36605
-0.859744 0.24952 1.56803
3.48687e-06 0.858538 -2.31854
-0.818932 0.884808 -1.475
0 1.00166 2.40558
-0.786707 1.02075 1.605
0.755353 0.59 -2.30947
0.865718 0.280603 -1.59439
0.740593 0.658041 2.38244
0.859745 0.249519 1.56808
0.818948 0.884818 -1.475
0.786709 1.02075 1.605
-0.837372 0.290418 -0.013185
-0.861166 0.613928 -0.754395
4.49804e-06 0.159001 -0.80378
-0.866517 0.635984 0.80621
0.000173721 0.187654 0.77744
-0.808711 0.95867 0.0650001
1.71734e-05 1.28261 -0.705
6.46489e-06 1.46677 0.835
0.837371 0.290421 -0.013155
0.861176 0.61394 -0.754385
0.866515 0.635817 0.80623
0.808742 0.958697 0.0650001
-0.868371 0.601964 -1.5347
-0.871601 0.624956 0.0259075
-0.874534 0.647013 1.58651
3.50072e-06 0.18238 -1.59439
8.91094e-05 0.14761 -0.01317
8.68604e-05 0.219518 1.56805
2.99513e-06 0.59 -2.4613
0 0.658041 2.41557
1.03302e-05 0.973302 -1.475
1.18192e-05 1.47277 0.0650001
3.23245e-06 1.20009 1.605
0.868358 0.60197 -1.53469
0.871603 0.624878 0.0259225
0.874719 0.646929 1.58654
-1.16719 0.385706 -2.38295
-0.764064 0.2463 -2.41023
-0.769311 0.366357 -3.00535
-1.14642 0.334292 2.35249
-0.77471 0.174586 2.34599
-0.762329 0.351195 2.9807
-1.16627 0.81864 -2.25114
-0.770103 0.786535 -2.87142
-0.772844 1.24414 -2.17549
-1.09574 0.972851 2.37704
-0.723823 0.984697 3.00313
-0.750467 1.47313 2.42527
0.781172 0.246297 -2.41023
0.766701 0.366356 -3.00534
1.16551 0.385705 -2.38295
0.758861 0.174541 2.34605
0.748744 0.351172 2.98075
1.15116 0.334196 2.35256
0.765945 0.786534 -2.87142
0.78422 1.24414 -2.17549
1.16349 0.818643 -2.25113
0.708439 0.98468 3.00314
0.718441 1.47311 2.42527
1.09919 0.97279 2.37705
-1.23907 0.310429 -0.805222
-0.82761 0.147226 -0.826288
-1.23349 0.284982 0.774365
-0.836682 0.114899 0.76195
-1.22346 0.93506 -0.708055
-0.811221 1.3824 -0.640197
-1.19912 0.986977 0.833565
-0.807237 1.46739 0.889887
0.837758 0.147201 -0.826268
1.23932 0.310401 -0.805199
0.83054 0.11461 0.761987
1.23781 0.284641 0.774411
0.812171 1.38241 -0.640195
1.22263 0.935079 -0.70805
0.787655 1.46739 0.88989
1.20203 0.986928 0.833575
-1.57484 0.0766745 -3.05582
-1.56999 0.202766 -3.65246
-1.17389 0.074464 -3.68138
-1.60468 0.0454596 -1.64045
-1.57612 0.230085 -2.40625
-1.17299 0.0906792 -2.43353
-1.63117 -0.0151392 -0.0540276
-1.63524 0.164777 -0.827983
-1.22377 0.00157377 -0.849049
-1.60203 -0.0210634 1.53275
-1.62897 0.127235 0.756284
-1.23216 -0.0428485 0.743869
-1.56488 0.00915731 2.95018
-1.55524 0.159449 2.33529
-1.18353 -0.000257361 2.32879
-1.5605 0.0329291 4.1989
-1.54589 0.186469 3.58689
-1.17064 0.0261542 3.57922
-1.55828 0.205822 4.83312
-1.17684 0.0442228 4.82347
-1.57127 0.356177 -3.00289
-1.56884 0.575373 -3.56391
-1.17339 0.336827 -3.62528
-1.60668 0.349403 -1.59378
-1.57258 0.614346 -2.31909
-1.63304 0.307151 -0.0176722
-1.6325 0.631562 -0.758882
-1.58218 0.307747 1.55883
-1.61143 0.635975 0.80172
-1.53625 0.33676 2.97201
-1.51716 0.649101 2.36272
-1.54366 0.359362 4.22111
-1.52366 0.673539 3.61487
-1.15215 0.353663 3.60021
-1.54838 0.693645 4.86509
-1.16803 0.370288 4.84591
-1.57015 0.833543 -2.88011
-1.575 1.23917 -3.42699
-1.17398 0.801438 -3.50039
-1.59841 0.896505 -1.48419
-1.57866 1.28747 -2.18441
-1.61089 0.960386 0.0605097
-1.61412 1.39086 -0.644927
-1.54641 0.977329 1.60561
-1.59938 1.4578 0.88865
-1.50458 0.985881 3.00558
-1.53869 1.47277 2.42874
-1.52837 1.00782 4.25885
-1.54221 1.49029 3.67543
-1.13266 0.997727 3.63167
-1.5598 1.50762 4.92672
-1.16158 1.01919 4.88554
-1.5835 1.6931 -2.73129
-1.1826 1.65366 -3.34852
-1.59437 1.78183 -1.34514
-1.18523 1.71297 -2.10877
-1.60261 1.88828 0.183213
-1.20188 1.8382 -0.577069
-1.59167 1.95324 1.71178
-1.2075 1.93822 0.944972
-1.57632 1.97718 3.09859
-1.19342 1.97305 2.47697
-1.57363 1.99009 4.34331
-1.18596 1.98454 3.71736
-1.18896 1.99746 4.96679
-0.772042 0.0884687 -3.05909
-0.777289 0.208526 -3.6542
0.00619497 0.0793328 -3.68271
-0.792091 0.0467934 -1.64212
0.0171058 0.0975973 -2.43546
-0.824763 -0.0261355 -0.0511527
0.0101435 -0.00403665 -0.848776
-0.813657 -0.0220425 1.53992
-0.00631582 -0.0483739 0.746497
-0.789291 0.0167395 2.95783
-0.0158495 0.00412741 2.33338
-0.786979 0.037448 4.20379
-0.77691 0.193349 3.59254
-0.0150868 0.0292722 3.58233
-0.786586 0.208689 4.83626
-0.017881 0.0455521 4.82528
-0.778541 0.562892 -3.56177
-0.00261281 0.337713 -3.62569
-0.776517 0.36459 4.22502
-0.761151 0.67785 3.61702
-0.0135843 0.357367 3.60278
-0.781223 0.695834 4.86636
-0.0180003 0.371756 4.84728
-0.781585 1.21593 -3.42192
-0.00416077 0.788069 -3.49784
-0.765858 1.00909 4.25836
-0.776408 1.49197 3.6736
-0.0153836 0.998293 3.63128
-0.790736 1.50903 4.9256
-0.020688 1.01985 4.88546
-0.784327 1.67354 -2.72599
0.00807391 1.64379 -3.34599
-0.792747 1.76935 -1.34069
0.0113719 1.70328 -2.10599
-0.806766 1.88814 0.18469
0.000933317 1.83541 -0.575392
-0.809248 1.95803 1.71015
-0.0195888 1.94086 0.944776
-0.803052 1.98041 3.09573
-0.0320251 1.97516 2.47554
-0.801285 1.99191 4.34084
-0.0317686 1.98561 3.71593
-0.0315118 1.99815 4.96576
0.795343 0.0884614 -3.05908
0.780872 0.20852 -3.6542
1.18484 0.0744494 -3.68138
0.81934 0.0467672 -1.64211
1.19875 0.0906648 -2.43352
0.828591 -0.026275 -0.0511258
1.24018 0.00150177 -0.849023
0.791491 -0.022204 1.53996
1.22605 -0.0431278 0.743914
0.758355 0.0166601 2.95788
1.16306 -0.00041427 2.32885
0.754011 0.0373764 4.20382
0.748239 0.193291 3.59258
1.1463 0.0260375 3.57927
0.750704 0.20862 4.83629
1.14452 0.044108 4.82351
0.771768 0.56289 -3.56176
1.16825 0.33682 -3.62528
0.744932 0.364534 4.22505
0.732184 0.67781 3.61704
1.13235 0.353572 3.60026
0.742535 0.695774 4.86638
1.13596 0.370185 4.84595
0.785498 1.21593 -3.42192
1.16542 0.801435 -3.50039
0.729787 1.00905 4.25838
0.729256 1.49193 3.67361
1.10889 0.997656 3.6317
0.738536 1.50897 4.92562
1.12403 1.0191 4.88556
0.803773 1.67353 -2.72599
1.19663 1.65365 -3.34851
0.805052 1.76934 -1.34069
1.20433 1.71296 -2.10876
0.788111 1.88813 0.184695
1.2026 1.83818 -0.577061
0.757634 1.958 1.71016
1.1726 1.93818 0.944982
0.739258 1.98037 3.09574
1.13593 1.97298 2.47698
0.738005 1.99186 4.34085
1.12678 1.98447 3.71738
1.12856 1.99737 4.96681
1.58825 0.0766528 -3.05581
1.57222 0.202749 -3.65246
1.6196 0.0453993 -1.64043
1.58309 0.230073 -2.40624
1.63765 -0.015351 -0.0539837
1.64175 0.164702 -0.827954
1.59762 -0.021338 1.53281
1.63333 0.126904 0.756337
1.551 0.00896315 2.95024
1.55536 0.15924 2.33536
1.53681 0.0327692 4.19896
1.5304 0.186318 3.58695
1.52978 0.205673 4.83317
1.56706 0.356169 -3.00288
1.5619 0.575365 -3.5639
1.60524 0.349375 -1.59376
1.56812 0.614348 -2.31909
1.63743 0.306956 -0.017633
1.6319 0.63154 -0.758864
1.59107 0.307482 1.55889
1.61847 0.635753 0.801755
1.53477 0.336596 2.97207
1.52536 0.648945 2.36277
1.52338 0.359223 4.22117
1.50905 0.673418 3.61492
1.51746 0.693513 4.86513
1.56296 0.833544 -2.8801
1.57655 1.23916 -3.42698
1.59478 0.896513 -1.48418
1.5836 1.28747 -2.1844
1.61294 0.960336 0.060524
[...]
POINT_DATA 29498
VECTORS point_vectors float
-3.37548 -1.69023 4.25873
0.109268 0.328217 1.04672
-3.51895 3.31656 6.30169
-0.0125545 -0.073341 0.218374
3.37796 -1.69079 4.26112
-0.0625261 0.348559 1.06585
3.51809 3.3179 6.29876
-0.00675515 -0.0392804 0.194424
0.0126452 -0.0207027 0.254491
-0.0317105 -0.0114056 0.312634
-0.00984497 0.000230072 0.130246
0 0 0
-0.013845 -0.021286 0.252084
0.0248818 -0.00963561 0.218952
0.0110695 -0.00147623 0.134453
3.34122e-18 -5.31712e-18 -2.26724e-17
-0.517483 -0.153047 19.8267
-1.37358 -0.54692 20.3465
-0.542176 -0.381299 21.3748
0.0300057 -0.0920006 21.563
0.595792 0.25611 21.4624
0.754168 0.290391 21.2001
0.93455 0.20383 20.4112
-0.56133 -0.0803232 19.7823
-1.67027 -0.343074 20.3324
-0.650173 -0.418221 21.4267
0.039188 -0.156454 21.6523
0.805868 0.115699 21.5483
1.02479 0.129782 21.5994
1.09958 -0.00852323 21.364
-0.653193 0.0843531 19.7444
-1.78605 0.190636 20.3888
-1.0902 -0.259622 21.4298
-0.125478 -0.246152 21.7661
0.788001 -0.326091 21.5087
1.14135 -0.343022 20.9462
0.812054 -0.274699 20.4966
-0.524251 0.325731 19.9326
-1.00176 0.591093 20.441
-0.911333 0.336631 21.2852
-0.168901 -0.0782638 21.6329
0.302417 -0.406214 21.3435
0.444704 -0.442519 21.0595
0.427428 -0.359017 20.9696
-0.483529 -0.328579 19.3212
-3.68637 -4.26542 19.1179
-0.216498 -0.341463 19.6924
0.273283 0.0481148 19.3606
0.581393 1.12444 18.2573
0.720292 1.37645 18.8979
0.714202 1.07724 18.4833
-0.594568 -0.194824 19.1157
1.40375 1.39325 11.921
1.70218 0.874591 13.1355
-0.731022 0.217562 18.8981
1.56439 -0.36106 10.3526
1.15238 -0.329046 15.4343
-0.500476 0.658583 19.4906
-1.16243 1.68927 20.1882
-1.67526 1.73956 21.5141
-0.219059 0.00120222 22.0902
0.244161 -0.671622 21.547
0.368102 -0.825339 21.0938
0.514636 -0.788552 20.8319
0.48439 -0.318574 19.3326
3.62455 -3.92094 19.239
0.242883 -0.346795 19.9412
-0.287325 0.0461907 19.1609
-0.569663 1.11164 17.7639
-0.684972 1.35975 19.112
-0.935026 1.09632 16.4699
0.592041 -0.192077 19.0891
-1.03915 1.47079 10.7067
-1.4878 1.00242 12.2846
0.722739 0.219522 18.894
-1.53089 -0.227294 9.24924
-0.81257 -0.222852 14.5927
0.505137 0.653092 19.5011
1.18205 1.64542 20.1973
1.67207 1.73424 21.5116
0.212269 0.0106264 22.1182
-0.229688 -0.684881 21.5873
-0.342045 -0.855136 21.1279
-0.577537 -0.756392 20.768
0.512614 -0.156252 19.8099
1.33161 -0.531175 20.3572
0.535943 -0.381788 21.3707
-0.0322661 -0.0952321 21.5569
-0.590533 0.246191 21.4623
-0.840057 0.358105 21.0764
-0.949941 0.216604 20.5282
0.562334 -0.0823438 19.7653
1.67964 -0.347515 20.326
0.65069 -0.420828 21.4281
-0.039206 -0.157788 21.6512
-0.777882 0.0988222 21.5354
-1.03023 0.220549 20.907
-0.920159 0.0666019 20.9569
0.658617 0.088326 19.7315
1.79742 0.193186 20.388
1.09134 -0.258469 21.4293
0.12142 -0.241886 21.758
-0.763225 -0.307513 21.5125
-1.12023 -0.393136 20.8995
-1.04963 -0.240936 20.7588
0.520273 0.323214 19.9412
0.993561 0.580032 20.447
0.909005 0.337312 21.2882
0.17062 -0.0752729 21.6349
-0.293713 -0.410517 21.3273
-0.487822 -0.445379 21.0324
-0.51284 -0.419397 20.9387
-4.02131 0.3527 2.37016
0 0 0
-0.0094992 -0.0314936 0.895889
-0.0204326 0.00180237 0.045361
-0.0179892 0.00555172 0.0163258
-0.00387712 0.106601 2.55966
-8.57308e-05 0.456407 1.31651
-0.0713502 -0.0621032 0.209109
-0.026358 0.15301 -0.102799
0.0252987 0.0258059 0.154488
3.99324 0.344655 2.34679
0.0101822 -0.0307276 0.893059
0.0332091 0.0127325 0.0284167
-0.0109886 0.0911852 2.57135
0.0711344 -0.0620784 0.20906
-0.0258099 0.0265647 0.153534
0.00946538 -0.00210366 0.265805
0 0 0
-4.59574e-19 -3.21085e-19 -5.65839e-17
0 0 0
7.20975e-05 0.00176403 0.0549118
0 0 0
-1.3041e-06 0.00465101 0.00812745
-5.19343e-06 -5.77028e-05 0.000972772
-0.00944616 -0.00214939 0.264962
0 0 0
0 0 0
0 0 0
0.000129339 -0.00138107 0.0124521
0 0 0
0.00371191 0.00656895 0.0488018
0 0 0
-0.000404528 0.0062557 0.147124
0 0 0
-0.000317641 0.193237 0.106487
-0.00718217 0.0190215 -0.00721276
2.03781e-05 0.000136312 0.00226902
-1.04652e-07 1.74066e-06 4.11405e-05
6.0525e-06 0.00170873 -0.00311074
-0.000104421 -0.0011418 0.0103102
5.99504e-19 -1.64221e-17 -1.1005e-16
-0.00408412 0.00722381 0.053816
-3.4222 -0.931518 20.0241
-6.37999 -5.76501 17.9485
-1.782 -0.694376 17.8838
1.30018 0.551873 19.5535
0.300927 1.24486 10.7189
0.556126 1.08499 8.3032
-3.57417 0.725775 20.3126
-2.34001 0.958109 17.4274
-2.5001 2.87254 20.1044
1.27309 -0.151192 18.2695
0.702621 0.063951 5.85609
0.907314 -0.677113 17.1245
6.3003 -5.33953 18.1199
1.78742 -0.697066 17.8668
3.43617 -0.937713 20.0182
-0.273842 1.15124 10.2719
-0.306899 1.00624 7.70222
-1.26063 0.505447 19.5565
2.33741 0.96792 17.417
2.494 2.79845 20.1106
3.59688 0.74036 20.311
-0.63915 0.319423 5.24886
-0.975851 -0.667837 16.4126
-1.23189 -0.128638 18.2157
-0.518951 -0.735341 21.7099
0.370484 -0.390539 9.72828
0.152308 -0.161367 21.1224
0.488649 -0.22433 12.6575
-1.81201 -0.832386 21.6979
-4.25896 1.71794 21.4271
-0.112901 -0.400641 20.649
0.173156 0.276427 17.8
-0.390613 -0.415663 10.4631
0.521089 -0.735204 21.7086
-0.484116 -0.232112 12.4319
-0.150108 -0.166505 21.17
4.23694 1.71871 21.4334
1.81622 -0.838409 21.69
-0.307803 0.368216 16.8666
0.114925 -0.407271 20.6968
-0.928164 -0.328309 19.8859
-0.539407 -0.116685 19.8045
-0.54941 -0.253329 19.5835
-1.01669 -0.4964 21.1192
-1.57391 -0.483992 20.3437
-2.3589 -1.3772 20.0983
-0.209003 -0.241531 21.5145
-0.577652 -0.398135 21.4077
-0.469342 -0.485103 21.6167
0.297364 0.083154 21.5748
0.03648 -0.107944 21.5848
0.0960179 -0.0341164 21.6986
0.729081 0.309976 21.3526
0.705595 0.199834 21.5113
0.818644 0.630019 21.3937
0.804745 0.337506 20.577
0.890511 0.209013 21.4117
0.973273 0.842653 21.1461
1.15078 0.123144 20.9075
0.858006 0.658348 21.4555
-1.0984 -0.191925 19.8043
-0.59802 -0.0151217 19.7622
-0.655728 -0.134177 19.4533
-1.19504 -0.427505 21.1856
-1.79055 -0.101145 20.3704
-0.261716 -0.311225 21.5759
-0.833963 -0.423899 21.4268
0.396598 -0.0143594 21.7041
-0.0157181 -0.228841 21.7392
0.987218 0.151103 21.3999
0.880804 -0.107115 21.5807
0.930379 0.168435 20.805
1.1404 -0.093579 21.5299
1.58891 0.605221 19.342
0.939736 -0.199475 21.0676
1.19805 0.419385 19.3288
-1.27427 0.158342 19.7961
-0.620874 0.253764 19.7923
-0.774223 0.140881 19.3907
-1.44104 -0.0622144 21.0862
-1.37944 0.510268 20.4053
-0.616612 -0.299795 21.6997
-1.15284 0.108945 21.3621
0.367103 -0.241276 21.7538
-0.18825 -0.140199 21.7366
0.985157 -0.314601 21.2688
0.519224 -0.411822 21.4632
0.81864 -0.416097 21.1832
0.637326 -0.445408 20.9939
1.55244 -0.479805 19.5481
0.499849 -0.372818 20.9539
0.928481 -0.413652 19.6254
-0.809601 0.515896 20.0938
-0.563364 0.489774 19.7203
-1.03935 0.508653 20.858
-1.20708 1.06373 20.3221
-0.553743 0.135612 21.5758
-1.29745 0.774604 21.4063
0.12197 -0.247776 21.523
-0.215088 -0.0411815 21.8434
0.435043 -0.407874 21.3299
0.310619 -0.508369 21.46
0.471741 -0.426903 20.758
0.456427 -0.589852 21.2707
0.558261 -0.614835 21.3621
-1.28398 -1.03714 18.6184
-0.544131 -0.280419 19.2001
-0.000762499 -0.460804 18.9931
-1.06327 -1.12785 20.5917
0.0641897 -8.68937 18.251
0.148351 -0.0441237 19.0616
-0.00274755 -0.301491 13.019
0.479601 0.442108 18.5828
0.0100987 0.0834715 13.4718
0.686031 1.28576 18.6815
-0.00931682 0.593017 12.2665
0.844004 1.08342 18.8223
1.2149 1.48143 14.958
-0.309342 0.846483 13.9556
1.52146 1.04408 14.6001
-0.090206 1.01332 13.2284
-0.676727 -0.00845421 18.9978
-0.00446496 -0.269254 18.7114
1.75605 1.11142 13.4481
1.73601 0.730458 8.69812
0.305101 -1.80908 -1.7106
1.63251 0.386746 12.6507
0.267605 0.767745 7.92373
-0.648856 0.593994 19.1636
-0.0105446 0.306015 18.3577
1.80638 -0.395367 13.9895
0.88464 -1.19873 19.0771
0.425066 -1.06806 -1.70083
0.683802 -0.907686 19.1774
0.101399 -1.24788 2.07213
-0.863373 1.30097 19.6
0.00567154 0.885109 19.2513
-1.39587 1.63968 20.6262
0.0196344 2.48891 20.0022
-0.883751 0.757312 22.2039
0.00251823 3.66297 21.5276
0.124109 -0.469139 21.7822
-0.014438 0.161946 22.495
0.341097 -0.836247 21.3481
-0.00632213 -0.732261 21.7778
0.277162 -0.687666 20.3597
0.0454748 -0.974217 21.4396
0.0415651 -0.460071 21.5595
1.29407 -1.01894 18.6655
0.544467 -0.27527 19.1876
0.547379 -0.250426 19.5934
1.16484 -1.16167 21.1838
2.28951 -1.30113 20.1153
-0.153149 -0.0452414 19.1029
0.475532 -0.48795 21.6015
-0.510759 0.456415 18.2521
-0.100074 -0.0371849 21.6863
-0.597988 1.19492 18.1319
-0.821088 0.627351 21.3109
-0.67807 1.25335 18.5173
-0.994883 1.55346 14.7096
-1.01793 0.79319 21.058
-1.22813 1.22769 13.4925
-0.760566 0.640589 21.1755
0.667622 -0.00691754 18.9733
0.655713 -0.13333 19.4489
-1.60452 1.33644 11.5962
-1.38326 0.852897 7.29217
-1.55852 0.597939 19.4507
-1.27817 0.541474 11.3401
-1.24571 0.21486 19.7159
0.645854 0.593261 19.1647
0.773501 0.141044 19.3823
-1.6956 -0.343492 12.5286
-0.93465 -1.18529 18.7069
-1.5912 -0.432163 19.3662
-0.713364 -0.875307 18.9184
-0.879149 -0.487655 19.178
0.876558 1.2729 19.6129
0.563201 0.479507 19.7305
1.40258 1.61535 20.6317
1.20061 1.03439 20.3268
0.880165 0.784684 22.2179
1.29469 0.772745 21.4058
-0.116713 -0.482559 21.7927
0.212391 -0.0404416 21.8605
-0.339541 -0.853785 21.421
-0.310422 -0.519653 21.4455
-0.288769 -0.695416 20.3127
-0.503329 -0.615052 21.2811
-0.621386 -0.669615 21.332
0.914639 -0.321796 19.8875
0.537474 -0.119298 19.7876
1.00238 -0.487705 21.1059
1.56107 -0.477257 20.337
0.204529 -0.242438 21.5175
0.575403 -0.399476 21.4065
-0.307734 0.0852814 21.5792
-0.0374752 -0.111491 21.5825
-0.728141 0.303493 21.3166
-0.691347 0.183756 21.5092
-0.720978 0.268734 21.0557
-0.931885 0.289715 20.9901
-0.918629 0.170463 20.795
1.10483 -0.195498 19.7956
0.603054 -0.0142489 19.7473
1.19698 -0.429191 21.1849
1.80371 -0.101357 20.3647
0.263664 -0.313209 21.5719
0.835931 -0.426285 21.4256
-0.392791 -0.0192985 21.6869
0.0175821 -0.228942 21.727
-0.94526 0.143393 21.3164
-0.845505 -0.108617 21.5893
-1.07602 0.182754 20.6827
-1.13453 -0.0444143 20.8704
-0.989847 -0.0755115 21.0236
1.28405 0.160922 19.7939
0.622451 0.251884 19.789
1.44255 -0.0594389 21.0887
1.37154 0.507037 20.4037
0.615023 -0.296545 21.6964
1.15364 0.109464 21.3641
-0.36166 -0.238463 21.7269
0.188977 -0.141829 21.7365
-0.943198 -0.314265 21.1944
-0.51983 -0.412772 21.4558
-0.929877 -0.393738 21.3251
-0.592006 -0.468244 21.2477
-0.433448 -0.350424 21.001
0.804284 0.507731 20.1027
1.03166 0.504533 20.8605
0.561318 0.137631 21.585
-0.129237 -0.245311 21.5422
-0.454614 -0.410999 21.3667
-0.494979 -0.444707 20.7987
-1.02712 -0.265048 19.8374
-1.512 -0.981604 18.2602
-1.23087 -0.644815 19.3948
-1.58794 -0.377808 19.1269
-0.608206 -0.206433 19.5159
-2.91076 -1.24598 20.038
-1.10616 -0.474693 21.1653
-0.186199 -0.254525 8.43743
-1.28963 -0.896219 21.5823
-1.47345 -0.861468 21.7883
-0.452567 -0.575323 21.6845
-0.225514 -0.263255 21.5367
0.430892 -0.0798561 11.2037
-0.0953994 -0.23178 21.6668
-0.0477688 -0.47168 21.4203
0.151713 -0.106135 21.4983
0.351505 0.0443243 21.6324
0.287266 0.341148 11.596
0.418374 0.257351 21.6667
0.626646 0.182385 20.8595
1.08868 0.634603 20.8347
0.856245 0.241768 21.3139
0.673681 1.32583 13.4003
0.980833 0.715886 21.1183
1.45495 0.585837 20.0491
1.18511 0.766601 20.7721
0.909741 0.250905 20.8193
1.51747 1.1087 14.8971
1.04182 0.658747 21.4218
1.31907 0.571734 21.1177
1.09339 0.588994 20.7206
-1.20655 -0.0305789 19.783
-2.14334 -0.0116798 17.404
-1.8546 0.40029 19.0614
-0.730298 -0.0162029 19.3981
-3.87651 -0.131398 20.1975
-1.32635 -0.304111 21.1791
-2.17111 -0.289213 21.4541
-0.990266 -0.957793 21.3125
-0.403705 -0.367488 21.6436
-0.851442 -0.800693 21.3209
0.102897 -0.217993 20.2604
0.418226 -0.125251 21.7737
0.69345 -0.0867771 19.5153
1.39782 0.237574 18.0519
1.06772 -0.0977127 21.4745
0.551469 0.548944 4.73541
1.40916 -0.382536 19.3305
1.73325 0.0964204 19.1045
0.921531 -0.144646 21.0381
2.02566 0.622413 12.4866
1.62872 -0.447524 19.6926
1.12843 -0.0680469 18.8348
-1.06024 0.439709 19.9247
-1.52807 1.59326 18.7812
-0.958837 0.893374 19.8719
-0.688591 0.372685 19.5263
-2.0777 1.18268 20.2969
-1.33747 0.297551 20.9382
-2.64541 1.79861 20.6143
-1.32201 0.934849 20.8116
-2.05484 0.368388 21.5662
-0.69061 -0.0194398 21.6735
-1.41542 0.322846 19.3655
-0.758301 0.352928 21.8373
-0.309988 -0.166463 22.1034
0.223875 -0.277452 21.6244
0.866735 -0.33016 17.4376
0.14478 -0.335006 21.6644
0.61112 -0.696027 21.5609
0.665763 -0.430061 21.2623
0.909915 -1.02325 18.4176
0.402827 -0.573958 21.0832
0.802821 -0.781983 21.4077
0.593847 -0.533867 21.078
0.806854 -1.10882 19.4483
0.295769 -0.438013 21.26
0.667423 -0.537039 20.3794
1.51884 -0.964671 18.2773
0.0257696 -1.65479 17.5722
-0.00670084 -1.1391 16.1812
-0.00356752 -0.385115 18.8438
-0.00273275 -12.6362 13.8542
0.23441 -0.295854 9.55416
-0.00620141 -0.933703 12.9601
0.0196401 -0.00240057 3.22056
-0.441217 -0.0886147 11.3153
0.0174106 -0.061605 12.6296
0.0126576 0.0829731 5.84302
-0.321398 0.316847 11.1819
0.0162716 0.353375 12.7741
-0.11709 0.321203 4.42907
-0.556362 1.22988 12.9357
-0.163107 0.534394 12.8545
-0.316605 -0.458015 -2.03851
-0.0998181 -0.563991 4.24089
-1.13887 1.37125 14.5174
-0.0455696 1.39806 13.0582
0.134855 0.120938 3.05523
0.160788 0.969813 10.1249
2.14582 -0.00743326 17.3887
-0.00858751 1.84331 15.1801
-0.00411491 -0.0248188 18.5031
-0.2476 0.723393 3.8532
-0.00978267 -0.0297602 -0.937287
0.758392 -1.99906 -4.06396
-1.81199 0.777263 10.3779
-0.224476 -2.07559 -1.29403
0.310802 0.180249 4.63277
1.52543 1.5767 18.8038
0.0103272 1.90085 19.2967
0.00266301 0.787578 18.7576
0.0202414 4.533 19.9452
2.63681 1.77368 20.6246
0.0143818 2.66576 20.2545
0.00229266 7.09342 17.9556
1.3221 0.37192 18.8067
-0.0178212 1.55593 22.7546
0.0121281 -0.230194 10.1497
-0.966039 -0.283009 16.559
-0.00789217 -0.461154 22.067
-0.00850916 -0.504677 7.86556
-0.9658 -0.981797 17.7653
-0.0167338 -0.942515 21.2647
0.0710457 -1.44685 12.6184
-0.906793 -1.13983 19.2503
0.0947042 -1.09812 21.0693
0.0424001 -0.899855 13.9956
1.02146 -0.262477 19.8272
1.22214 -0.628083 19.4157
1.5932 -0.379551 19.1217
0.608271 -0.205026 19.5174
2.84956 -1.21385 20.0511
1.09663 -0.47092 21.1569
1.28254 -0.87678 21.5467
1.47833 -0.860282 21.79
0.459204 -0.575688 21.6737
0.224005 -0.264511 21.5367
0.0918259 -0.234977 21.6605
0.0526641 -0.474234 21.4353
-0.152301 -0.108553 21.4856
-0.354546 0.0419288 21.6293
-0.434127 0.260607 21.6372
-0.630172 0.164339 20.8945
-1.07679 0.612966 20.7011
-0.836746 0.230998 21.315
-0.945578 0.698985 21.0786
-1.37501 0.570081 19.8727
-1.2348 0.724012 20.624
-0.956445 0.274435 20.8375
-0.977253 0.908487 21.064
-1.6143 0.661271 19.4022
-0.968144 0.560008 20.2639
1.2151 -0.0283457 19.7833
1.86635 0.408832 19.0399
0.732273 -0.0124124 19.3878
3.89838 -0.12962 20.1816
1.33399 -0.304363 21.1776
2.17401 -0.288812 21.4567
0.992067 -0.960102 21.3048
0.402472 -0.367333 21.6394
0.855561 -0.800714 21.341
-0.100885 -0.231519 20.3421
-0.411465 -0.126784 21.7554
-0.687431 -0.097823 19.5787
-1.345 0.229962 18.0799
-1.03031 -0.0899327 21.3607
-1.36097 -0.312692 19.1646
-1.74608 0.11606 18.9772
-1.08273 -0.125297 20.854
-1.51241 -0.514962 18.6882
-1.1695 -0.145043 19.5556
1.05484 0.439057 19.9209
0.952291 0.869239 19.8854
0.685014 0.372109 19.5293
2.0572 1.16346 20.2988
1.33382 0.297405 20.9364
1.31453 0.918522 20.8145
2.05383 0.370237 21.5639
0.694713 -0.0202119 21.6763
0.763312 0.366052 21.8495
0.308457 -0.162451 22.1167
-0.231987 -0.284525 21.6271
-0.148994 -0.346194 21.6742
-0.61306 -0.693897 21.5486
-0.659557 -0.439502 21.281
-0.376029 -0.5841 21.0278
-0.812504 -0.813123 21.3551
-0.661383 -0.513792 20.9836
-0.23296 -0.479229 21.3715
-0.569127 -0.549625 20.2422
-1.38132 -0.552849 19.2456
-1.36612 -0.865343 21.6959
-0.0424841 -0.329267 21.6279
0.541001 0.222658 21.3754
1.22993 0.700996 20.7506
1.18396 0.593545 21.5447
-1.7889 -0.0340371 19.0252
-1.87227 -0.734951 21.7967
-0.294282 -0.678078 20.7537
0.708555 0.148687 19.5501
1.60341 0.118668 19.1235
1.58402 0.096061 20.0226
-1.39731 0.865209 19.4899
-1.99416 0.659118 20.9236
-1.13401 0.0362124 22.11
0.301954 -0.451381 21.8808
0.698081 -0.787295 21.4581
0.75521 -0.727806 20.6244
0.0112728 -1.58796 16.9264
-0.0139847 -0.0532823 1.6564
-0.00713702 0.0971283 3.84919
0.0357965 0.208974 5.56697
-0.466493 0.0187088 4.64816
0.0935803 0.964981 8.71087
-0.00829673 0.0877036 15.3464
0.320524 -0.758364 -3.2925
0.0407913 -0.95251 -1.06495
0.0129836 2.69626 17.831
0.0105828 3.38954 19.7016
-0.00279608 0.473378 8.34723
0.00394665 -0.341846 7.35431
-0.0241349 -0.879154 10.8019
0.0822629 -1.29404 14.6426
1.37641 -0.546989 19.2565
1.36413 -0.854222 21.6647
0.0459723 -0.333307 21.6337
-0.553374 0.217292 21.3385
-1.18455 0.686232 20.5935
-1.28623 0.833914 20.5155
1.79478 -0.0309228 19.0137
1.87733 -0.734662 21.801
0.299033 -0.682336 20.787
-0.705117 0.125327 19.638
-1.50551 0.157231 18.8116
-1.6087 0.16211 19.3734
1.39165 0.8565 19.4986
1.98035 0.654431 20.9256
1.14037 0.0429185 22.1189
-0.311726 -0.455825 21.882
-0.68211 -0.784473 21.5791
-0.743145 -0.776779 20.6445
-2.36647 -0.322035 2.43065
0 0 0
-0.357836 -0.28058 2.31107
0.0727724 -0.0288623 0.337863
-0.0424744 -0.0033745 0.00740893
0.107582 0.261047 2.09635
-3.94125 1.27628 3.33736
-0.0705318 0.666282 1.27715
-0.318538 -0.0990235 1.46298
0.0112145 2.19693e-05 0.0390956
-0.0119152 0.0272424 -0.0192429
0.00522606 -0.00169396 0.0454157
0 0 0
2.44763 -0.332095 2.51804
0.368252 -0.283771 2.33619
0.0490553 0.0194096 0.0598327
-0.0611169 -0.0192352 0.316495
-0.148477 0.228044 2.08909
0.0669841 0.619417 1.18648
3.82971 1.23746 3.24342
0.322343 -0.0988806 1.47899
-0.000319654 0.0380817 -0.0242698
-0.00879182 0.0080338 0.0337713
-0.00625202 -0.000748411 0.0450172
0.0125295 -0.0046101 0.217156
0.00384979 -0.0120256 0.215809
0 0 0
0.00145126 0.000320137 0.026104
0.00161554 -0.0312754 2.53968
0.000246339 0.00544342 0.355418
-0.00531533 0.0148403 0.067634
0.00199936 0.00103716 0.0346658
-0.378989 -0.25018 0.770803
-0.00165056 0.000454582 0.105734
0 0 0
-0.0774934 0.0531237 0.126299
0 0 0
0.000841391 0.00747213 0.0261145
0 0 0
0.047937 0.00192977 0.230023
-0.012264 -0.0046427 0.214283
-5.35741e-18 1.78776e-18 7.76587e-17
-0.00411621 -0.0125499 0.216715
0 0 0
-0.00800074 -0.0387014 2.52734
-0.00206582 0.000799756 0.0286408
-7.12634e-05 0.00554252 0.354443
0.00534504 0.0146239 0.0677379
0.376451 -0.248461 0.770985
0.0787636 0.0543832 0.128188
0.00161204 1.61654e-05 0.101995
0 0 0
0 0 0
-0.0481561 0.00197147 0.230295
-0.000876188 0.00773749 0.0272065
0 0 0
0 0 0
0 0 0
-0.000168047 -0.00567407 0.0664329
-8.94564e-05 -0.0199025 0.00878367
-0.00114754 -0.00849659 0.188389
0.00942372 -0.00438495 0.095066
0.0148862 0.00409522 0.114251
-0.0335921 0.00887235 -0.00170203
0 0 0
-0.0276136 0.00728657 -0.0171185
0 0 0
0.000315389 0.00102983 0.0213492
1.59164e-05 1.04083 0.535414
-9.3323e-06 0.00705596 0.0456609
0 0 0
-0.0110046 0.0011289 0.0182787
0 0 0
-0.000136574 0.000415809 -0.0048865
0.000162004 0.0002572 0.00218926
-0.0024244 0.00129256 -0.00279054
0 0 0
0 0 0
-0.00859199 -0.00402833 0.0880351
0.00115874 -0.00838856 0.188457
0.0348373 0.0184452 -0.00322664
-0.0144876 0.0046462 0.110796
-0.000173769 0.00108405 0.022111
0 0 0
0.0109941 0.00113172 0.0183077
2.88769e-18 -1.3937e-17 6.4173e-17
0.00233237 0.00124625 -0.00270359
-0.000160748 0.000261236 0.00216132
0 0 0
0 0 0
0 0 0
0 0 0
-0.00153097 -0.0117059 0.109421
0.00629137 -0.066029 0.408237
8.85431e-19 1.20627e-17 6.41112e-17
-0.00109122 0.00505846 0.0365686
0 0 0
-0.000402904 0.00138904 0.038558
0.0127714 0.14959 0.615748
0.0432472 0.0360455 0.58256
0 0 0
1.36661e-06 0.0109698 0.0502179
-6.90107e-09 5.22627e-10 6.79238e-07
1.6105e-05 -0.00124819 0.00620336
0 0 0
0 0 0
1.01241e-19 -1.72006e-18 1.06004e-17
0 0 0
0 0 0
0.00105234 0.00503758 0.0367728
-0.0434874 0.0361164 0.581858
-0.0222596 0.209128 0.85384
0 0 0
-0.0133605 -0.00975679 0.0837989
0 0 0
-0.00722299 -0.0424496 0.202064
0 0 0
-0.000528755 0.00573327 0.0305236
0 0 0
0.00146604 0.0145323 0.054778
-0.00696668 0.015683 0.164474
0 0 0
9.59682e-05 7.1155e-05 0.000912987
0.000419623 6.95726e-05 0.00372843
-0.0015944 -0.00379739 0.0455207
0.00164817 -0.00383243 0.0456951
0.00916202 -0.00717058 0.143181
-0.00568308 -0.00793792 0.123927
0 0 0
0 0 0