# vtk DataFile Version 2.0
tri_press
ASCII
DATASET UNSTRUCTURED_GRID
POINTS 3682 float
-0.780867 0.135 -1.615
-0.640051 0.235 1.605
-0.587103 0.665 -1.755
-0.618909 0.645 1.625
0.780867 0.135 -1.615
0.640056 0.235 1.605
0.587103 0.665 -1.755
0.618913 0.645 1.625
-0.746924 0.155337 -0.541667
-0.705212 0.183444 0.531667
-0.765941 0.82657 -0.628333
-0.775734 0.819093 0.498333
0.746946 0.155317 -0.541667
0.705027 0.183633 0.531667
0.765949 0.826576 -0.628333
0.77576 0.819117 0.498333
-1.54252 -0.209713 -2.45532
-1.52519 -0.162179 -1.5753
-1.49497 -0.132983 -0.503342
-1.43027 -0.102409 0.557879
-1.35674 -0.0674032 1.62893
-1.34447 -0.0762521 2.50453
-1.35311 -0.0988616 3.38832
-1.52753 0.0790375 -2.50615
-1.51237 0.141612 -1.6203
-1.50038 0.177894 -0.537965
-1.42782 0.184682 0.539566
-1.32628 0.187532 1.62088
-1.32506 0.175776 2.49723
-1.34375 0.157815 3.37928
-1.44638 0.652052 -2.62277
-1.39482 0.716636 -1.73912
-1.4979 0.824572 -0.620434
-1.47145 0.80012 0.502035
-1.33058 0.675421 1.6197
-1.32828 0.66473 2.49385
-1.3491 0.670037 3.3673
-1.39722 1.59931 -2.75761
-1.38246 1.66543 -1.86597
-1.42476 1.73943 -0.729987
-1.45698 1.71753 0.41749
-1.43678 1.61895 1.55292
-1.41214 1.56126 2.44339
-1.39891 1.53925 3.32267
-0.811497 -0.216934 -2.45188
-0.781389 -0.169014 -1.57028
-0.754095 -0.146927 -0.504015
-0.718753 -0.101387 0.551136
-0.675321 -0.0393715 1.61714
-0.665737 -0.0597071 2.49653
-0.669783 -0.0926589 3.38369
-0.812486 0.0676688 -2.50509
-0.651337 0.189334 2.49063
-0.663588 0.160868 3.37579
-0.742377 0.627257 -2.62937
-0.652079 0.653122 2.49491
-0.668704 0.662432 3.36753
-0.673541 1.58728 -2.76413
-0.647663 1.65679 -1.87315
-0.686329 1.74262 -0.734318
-0.735623 1.721 0.41801
-0.737823 1.61046 1.55663
-0.719152 1.54922 2.44709
-0.705631 1.52899 3.32536
0.682239 -0.216929 -2.45188
0.750615 -0.169013 -1.57028
0.736977 -0.146915 -0.504016
0.69794 -0.101261 0.551136
0.655729 -0.0393221 1.61714
0.667316 -0.0596679 2.49653
0.683817 -0.0926159 3.38369
0.656259 0.0676719 -2.50509
0.659567 0.189361 2.49063
0.679846 0.160906 3.37579
0.615164 0.62726 -2.62937
0.651096 0.653143 2.49491
0.674399 0.662466 3.36753
0.746575 1.58729 -2.76413
0.781822 1.6568 -1.87315
0.783817 1.74264 -0.734318
0.729345 1.72103 0.41801
0.674822 1.61049 1.55663
0.669375 1.54926 2.44709
0.680331 1.52902 3.32536
1.4312 -0.2097 -2.45532
1.49472 -0.16217 -1.5753
1.48655 -0.132942 -0.503342
1.42512 -0.102231 0.557879
1.35697 -0.0672782 1.62893
1.35448 -0.0761585 2.50453
1.37141 -0.0987713 3.38832
1.41031 0.0790475 -2.50615
1.49787 0.141616 -1.6203
1.50306 0.177914 -0.537965
1.43639 0.18487 0.539566
1.3407 0.18764 1.62088
1.34186 0.175854 2.49723
1.36434 0.157898 3.37928
1.36216 0.652062 -2.62277
1.39945 0.716644 -1.73912
1.51188 0.82459 -0.620434
1.48112 0.800207 0.502035
1.33972 0.675496 1.6197
1.33576 0.664795 2.49385
1.36012 0.670111 3.3673
1.46305 1.59933 -2.7576
1.49701 1.66546 -1.86597
1.51255 1.73947 -0.729987
1.46432 1.71759 0.41749
1.39701 1.61902 1.55292
1.3777 1.56133 2.44339
1.38246 1.53932 3.32267
-0.679837 0.4 -1.68085
0 0.130609 -1.61939
-0.750371 0.158694 -1.07833
-0.630802 0.44 1.61632
2.5034e-06 0.220783 1.61922
-0.670772 0.211081 1.06833
0 0.654134 -1.74413
-0.688803 0.758066 -1.19167
1.99676e-06 0.748519 1.72852
-0.741725 0.77645 1.06167
0.679697 0.4 -1.68071
0.750627 0.158438 -1.07833
0.630762 0.44 1.61628
0.670795 0.211063 1.06833
0.688781 0.758043 -1.19167
0.74175 0.776472 1.06167
-0.733792 0.161667 -0.005
-0.838527 0.490953 -0.585
1.09458e-05 0.148796 -0.541667
-0.838331 0.501269 0.515
-9.29422e-05 0.167771 0.531667
-0.7826 0.834594 -0.065
3.84767e-06 1.37457 -0.628333
1.30006e-05 1.55025 0.498333
0.73379 0.161671 -0.005
0.838533 0.490947 -0.585
0.838336 0.501375 0.515
0.782587 0.834579 -0.065
-0.833308 0.445477 -1.135
0.83331 0.445473 -1.135
5.47288e-06 0.133088 -1.07833
1.92384e-06 0.972645 -1.19167
0 0.4 -1.79829
-0.85085 0.496111 -0.035
0.85085 0.496161 -0.035
-4.09982e-05 0.156988 -0.005
8.42413e-06 1.54473 -0.065
-0.887806 0.470634 1.065
0.887809 0.470687 1.065
-4.52194e-05 0.190401 1.06833
7.49867e-06 1.34338 1.06167
2.25008e-06 0.44 1.78602
-0.731104 0.2675 -1.64868
-0.390433 0.132649 -1.61735
-0.750375 0.16209 -1.34667
-0.630528 0.3375 1.60576
-0.320024 0.221077 1.61892
-0.65728 0.221172 1.33667
-0.630002 0.5325 -1.71446
-0.293552 0.640757 -1.73076
-0.641239 0.714819 -1.47333
-0.622398 0.5425 1.6182
-0.309454 0.679254 1.65925
-0.693321 0.723729 1.34333
0.390433 0.131726 -1.61827
0.731136 0.2675 -1.64871
0.750343 0.162123 -1.34667
0.320029 0.221084 1.61892
0.630506 0.3375 1.60574
0.657439 0.221017 1.33667
0.293552 0.640834 -1.73083
0.629561 0.5325 -1.71402
0.641221 0.714801 -1.47333
0.309457 0.679233 1.65923
0.622412 0.5425 1.61821
0.693306 0.72371 1.34333
-0.747478 0.158185 -0.81
-0.739844 0.159016 -0.273333
-0.827211 0.305902 -0.563333
-0.374528 0.149925 -0.541667
-0.684751 0.200504 0.8
-0.720131 0.171926 0.263333
-0.831209 0.312637 0.523333
-0.357206 0.166501 0.531667
-0.735695 0.80064 -0.91
-0.828766 0.672028 -0.606667
-0.778628 0.834939 -0.346667
-0.47974 1.29411 -0.628333
-0.762849 0.801891 0.78
-0.832702 0.673016 0.506667
-0.786523 0.8342 0.216667
-0.536879 1.48271 0.498333
0.746701 0.158964 -0.81
0.374611 0.149792 -0.541667
0.739833 0.15903 -0.273333
0.827212 0.305896 -0.563333
0.684623 0.200636 0.8
0.357068 0.1665 0.531667
0.720084 0.171977 0.263333
0.83121 0.31274 0.523333
0.735669 0.800614 -0.91
0.479758 1.29414 -0.628333
0.828783 0.672033 -0.606667
0.778623 0.834933 -0.346667
0.76284 0.801879 0.78
0.536893 1.4827 0.498333
0.832703 0.673073 0.506667
0.787001 0.834675 0.216667
-0.815983 0.422738 -1.40793
-0.339918 0.4 -1.76761
2.73644e-06 0.129392 -1.34886
0 0.265305 -1.79417
-0.829287 0.302085 -1.10667
-0.375183 0.133985 -1.07833
-0.855415 0.455317 1.34066
-0.3154 0.44 1.74563
-2.1358e-05 0.201962 1.34378
2.37674e-06 0.330392 1.76654
-0.895072 0.340858 1.06667
-0.335409 0.189629 1.06833
9.61918e-07 0.910197 -1.4679
0 0.527067 -1.7976
-0.845156 0.601771 -1.16333
-0.344401 0.942253 -1.19167
4.74771e-06 0.997353 1.39509
2.12342e-06 0.594259 1.73348
-0.866725 0.623542 1.06333
-0.370859 1.31284 1.06167
0.815981 0.422737 -1.40786
0.339849 0.4 -1.76762
0.829289 0.301956 -1.10667
0.375316 0.133991 -1.07833
0.855417 0.455344 1.34064
0.315382 0.44 1.7456
0.895072 0.340875 1.06667
0.335375 0.189629 1.06833
0.845097 0.601758 -1.16333
0.344391 0.942205 -1.19167
0.866708 0.62358 1.06333
0.370879 1.31279 1.06167
-0.838332 0.305883 -0.02
-0.367634 0.157893 -0.005
-0.824462 0.468215 -0.86
-0.849228 0.493532 -0.31
8.20932e-06 0.142249 -0.81
-1.50262e-05 0.155449 -0.273333
-0.848984 0.49869 0.24
-0.880354 0.485951 0.79
-6.69702e-05 0.163986 0.263333
-6.90808e-05 0.179467 0.8
-0.84349 0.678735 -0.05
-0.53641 1.47989 -0.065
2.88575e-06 1.05477 -0.91
6.1359e-06 1.52498 -0.346667
1.07124e-05 1.55392 0.216667
1.02496e-05 1.51869 0.78
0.838334 0.305909 -0.02
0.367593 0.157893 -0.005
0.824265 0.46821 -0.86
0.849229 0.493554 -0.31
0.848982 0.498768 0.24
0.880263 0.486031 0.79
0.843489 0.678755 -0.05
0.536416 1.47989 -0.065
-0.816588 0.284793 -1.3773
-0.825903 0.312615 -0.835
-0.807066 0.630266 -0.885
-0.815863 0.567136 -1.44063
0.816589 0.284728 -1.37726
0.815373 0.567129 -1.44059
0.807048 0.63026 -0.885
0.825903 0.312544 -0.835
-0.382808 0.132256 -1.34776
0.382875 0.132302 -1.34776
0.374398 0.141524 -0.81
-0.37432 0.139602 -0.81
-0.318976 0.880312 -1.47062
-0.363685 1.02249 -0.91
0.363684 0.988954 -0.91
0.318971 0.88024 -1.47062
-0.365176 0.266402 -1.75977
-0.316735 0.529784 -1.75941
0.3167 0.529784 -1.75926
0.365141 0.266402 -1.7598
-0.83739 0.303584 -0.291667
-0.83585 0.308721 0.251667
-0.842477 0.678066 0.228333
-0.840682 0.677658 -0.328333
0.837392 0.303593 -0.291667
0.840687 0.677669 -0.328333
0.842483 0.678108 0.228333
0.835848 0.308786 0.251667
-0.370195 0.15568 -0.273333
0.370183 0.155681 -0.273333
0.361405 0.164048 0.263333
-0.361494 0.164049 0.263333
-0.549453 1.46976 -0.346667
-0.537331 1.48267 0.216667
0.537344 1.48267 0.216667
0.549503 1.46985 -0.346667
-0.885579 0.341607 0.795
-0.875603 0.339179 1.33866
-0.73845 0.583021 1.342
-0.822047 0.641862 0.785
0.885579 0.341689 0.795
0.82204 0.641913 0.785
0.738551 0.58304 1.34199
0.875615 0.339187 1.33865
-0.344031 0.177967 0.8
0.343921 0.17797 0.8
0.327702 0.202857 1.34022
-0.327717 0.202649 1.34022
-0.37936 1.50021 0.78
-0.340156 0.989583 1.36921
0.340168 0.989474 1.36921
0.379383 1.50007 0.78
-0.317712 0.333946 1.74119
0.317706 0.333946 1.74327
0.31242 0.56838 1.71
-0.312427 0.56838 1.70998
-0.770961 0.20125 -1.64681
-0.58565 0.136058 -1.61394
-0.780779 0.133387 -1.48083
-0.63546 0.28625 1.60555
-0.480038 0.22234 1.61766
-0.648568 0.228184 1.47083
-0.606485 0.59875 -1.73266
-0.440327 0.632801 -1.7228
-0.625841 0.701579 -1.61417
-0.621484 0.59375 1.62243
-0.464181 0.65672 1.63672
-0.642694 0.670943 1.48417
0.58565 0.134674 -1.61533
0.770985 0.20125 -1.64684
0.78075 0.133416 -1.48083
0.480043 0.222363 1.61764
0.635474 0.28625 1.60556
0.648597 0.228159 1.47083
0.440327 0.631003 -1.721
0.606498 0.59875 -1.73267
0.625849 0.701587 -1.61417
0.464185 0.656741 1.63674
0.621424 0.59375 1.62237
0.642717 0.670962 1.48417
-0.744955 0.159008 -0.675833
-0.743136 0.157425 -0.4075
-0.818279 0.215015 -0.5525
-0.560193 0.153696 -0.541667
-0.693296 0.19366 0.665833
-0.712085 0.178272 0.3975
-0.828425 0.217934 0.5275
-0.531981 0.173428 0.531667
-0.753332 0.816119 -0.769167
-0.79375 0.747497 -0.6175
-0.774466 0.832935 -0.4875
-0.670567 1.15579 -0.628333
-0.76943 0.810631 0.639167
-0.811648 0.749769 0.5025
-0.780894 0.826412 0.3575
-0.664724 1.16774 0.498333
0.745174 0.15879 -0.675833
0.560208 0.153696 -0.541667
0.743139 0.157424 -0.4075
0.818291 0.215 -0.5525
0.693283 0.193676 0.665833
0.531869 0.173423 0.531667
0.711917 0.178443 0.3975
0.828436 0.218027 0.5275
0.753367 0.816153 -0.769167
0.670493 1.15564 -0.628333
0.793753 0.747498 -0.6175
0.774485 0.832954 -0.4875
0.769448 0.810646 0.639167
0.664725 1.16771 0.498333
0.811615 0.749787 0.5025
0.780707 0.826222 0.3575
-0.69191 0.33375 -1.6512
[...]
POINT_DATA 3682
SCALARS point_scalars float 1
LOOKUP_TABLE default
-155.73
-52.6874
56.6692
-45.0254
-156.133
-52.6265
56.8433
-44.9729
-48.9503
-45.9486
-86.9564
-55.378
-48.8843
-45.8907
-86.9224
-55.3136
-55.1828
-143.031
-48.2234
-46.6854
-62.1776
-52.5657
-48.8064
-55.1828
-148.229
-48.7003
-36.4491
-65.171
-52.5657
-46.4188
30.3087
-81.8686
-69.2825
-52.1178
-60.9231
-46.4162
-46.4188
-41.7803
-47.3318
-174.427
-64.1275
-42.9635
-45.5945
-45.9806
-33.5981
-161.009
-49.3829
-46.1433
-51.9829
-50.0064
-49.9669
74.0598
-50.2956
-49.9669
81.4117
-46.4188
-46.4563
-11.1365
-44.57
-160.792
-63.8882
-40.696
-42.2709
-45.5616
1.26962
-161.335
-49.3539
-45.79
-52.3419
-50.1325
-50.0817
-0.973954
-48.5764
-47.4306
81.8109
-46.3941
-46.4414
-11.1036
-42.6453
-137.919
-63.7899
-40.6021
-42.1507
-45.5563
-55.8724
-143.021
-48.1911
-46.6026
-62.1345
-52.4962
-48.7686
-55.8724
-148.636
-48.7057
-36.4301
-65.0713
-52.4962
-46.3941
30.8638
-82.0721
-69.0975
-52.0303
-60.8023
-46.3904
-46.3941
-41.8844
-64.423
-174.362
-64.0253
-42.7636
-44.8821
-45.9322
3.07752
-157.521
-65.4395
-47.0306
-51.8047
-47.2379
141.281
-47.0118
-42.5038
-51.7281
3.18899
-65.4552
-46.9865
-47.2471
-46.9635
-51.5537
-46.4836
-56.6701
-53.0526
-45.2235
-46.3709
-68.8523
22.9652
-63.3955
-46.5746
-56.6305
-45.1912
-68.7511
-70.7693
-70.7641
-76.233
26.9088
198.667
-54.7138
-54.6868
-46.5177
-101.932
-56.0372
-55.9316
-47.5331
-38.8141
-46.7543
5.92656
-169.658
-89.3017
-47.9804
-51.7277
-50.1827
41.2224
128.416
-49.2264
-47.0018
-43.7072
-47.1098
-170.726
5.44305
-89.494
-51.7423
-47.9238
-50.1054
128.318
40.8492
-49.1883
-43.6567
-46.9562
-46.9775
-57.3064
-47.2705
-50.3411
-51.9693
-45.3968
-45.7677
-40.8207
-45.8652
-62.913
-67.8971
-79.6079
20.1098
-51.0538
-51.0656
-60.7558
-60.5173
-56.9587
-51.9418
-47.2991
-50.2995
-45.3514
-45.8508
-45.8731
-40.7884
-63.0169
19.9426
-67.8777
-79.4625
-50.9594
-60.4549
-51.0196
-60.4875
-112.605
184.999
-104.161
139.839
-67.2537
-74.3974
-62.1494
-46.6937
-49.1382
-47.6558
-53.0605
-47.4817
-16.9673
195.918
-76.3731
11.5865
-38.8793
-46.3688
-57.5157
-40.0101
-112.625
185.017
-67.2479
-74.3637
-62.0351
-46.6648
-52.9881
-47.4744
-76.6666
11.614
-57.2568
-39.986
-50.2149
-46.1979
-61.7028
-57.5511
-61.6072
-48.2988
-50.7655
-42.6014
-45.6987
-46.7071
-61.5041
-93.1721
64.0967
-150.347
-78.4537
-49.3715
-50.2268
-46.1859
-61.6973
-57.5177
-50.7331
-42.0564
-61.4552
-92.8679
-100.155
-63.6537
-65.1186
-80.9653
-100.162
-80.7393
-65.0739
-63.6697
-102.204
-102.178
-60.4838
-60.6208
-30.6073
39.5763
37.4762
-30.6453
135.855
183.287
183.359
136.349
-51.7047
-47.0001
-56.0774
-67.1624
-51.6693
-67.1121
-56.0164
-47.0818
-47.723
-47.7072
-45.4306
-45.4448
-145.755
-72.4766
-72.3766
-145.756
-45.8823
-63.8265
-50.6924
-47.9103
-45.7271
-47.808
-50.5607
-63.711
-46.4793
-46.4697
-49.0109
-49.0575
-51.2034
-39.3516
-39.2892
-51.1791
-47.4492
-47.4825
-45.5462
-45.5694
-74.496
-176.937
-126.093
-50.5809
-52.2435
-51.8485
59.9783
133.608
-60.2163
-46.418
-43.9692
-45.3368
-176.655
-75.0595
-126.112
-52.2497
-50.5162
-51.8005
133.818
60.1042
-60.4752
-43.8969
-46.3737
-45.2643
-49.3765
-48.4232
-46.8963
-50.6466
-45.3121
-44.5233
-42.3527
-45.5882
-81.2269
-77.0318
-84.727
-155.223
-52.8238
-54.6252
-59.3441
-59.4493
-49.3149
-50.616
-48.4012
-46.8066
-45.2433
-45.5544
-44.5083
-42.3576
-81.2963
-155.109
-77.0157
-84.7633
-52.7579
-59.3486
-54.6136
-59.2498
16.7561
-2.47739
-131.367
176.385
-158.946
-159.293
-125.67
14.6186
-74.3695
-59.5864
-64.7092
-71.6359
-47.3045
-46.7769
-48.845
-46.5822
-51.6994
-51.7133
-50.1907
-50.0186
-48.7154
-46.0563
-49.8226
-47.3619
132.451
134.349
4.59295
172.121
-46.7992
-51.828
-69.0412
-8.99592
-43.1688
-43.1505
-41.3144
-46.9758
-49.477
-50.8123
-54.0176
-42.7178
16.3918
-2.00576
-131.414
176.213
-74.2015
-59.7756
-64.7175
-71.6208
-47.2569
-46.7325
-48.7625
-46.5506
-48.6827
-46.0296
-49.7956
-47.3599
-46.4664
-51.6831
-69.0606
-8.73321
-49.3081
-50.6696
-53.8251
-42.6401
-46.5084
-46.6037
-48.6099
-45.9497
-53.2932
-61.382
-55.3022
-57.9316
-52.7933
-52.7677
-56.5357
-50.4717
-42.491
-48.0282
-48.7113
-40.9245
-46.2537
-46.253
-45.8177
-46.7988
-74.3972
-64.9618
-65.6866
-80.6333
28.9367
28.9575
82.74
-170.781
-63.5682
-63.5411
-71.155
-56.6895
-46.4152
-46.4842
-48.9882
-45.9385
-53.2556
-61.3543
-55.2511
-57.899
-42.4643
-48.0039
-48.6624
-40.868
-74.2702
-64.9235
-65.6177
-80.3675
-84.7088
-69.4227
-74.1999
-67.3885
-84.7233
-69.4153
-74.2289
-67.3798
-88.0694
-75.8638
-75.8348
-67.8766
7.24494
23.7947
23.6225
45.5985
196.981
181.824
203.072
196.988
-52.1147
-56.7218
-52.857
-57.5514
-52.0992
-56.6917
-52.8262
-57.518
-46.4232
-47.12
-46.514
-46.4166
-100.432
-121.023
-88.9218
-100.401
-58.9528
-55.1921
-56.6826
-48.7167
-58.8012
-55.1002
-56.6475
-48.6765
-47.9559
-47.5153
-47.5064
-47.0445
-38.1958
-39.263
-39.2414
-43.2123
-46.8516
-47.4414
-46.2467
-46.7152
-157.392
120.125
-125.524
47.3299
-93.1747
-98.8148
-50.5955
-47.0314
-50.4899
-49.5498
-60.4858
-49.1429
-57.9228
178.618
7.74453
167.44
-47.655
-41.4372
-48.0909
-45.5128
-40.8103
-44.8979
-49.9553
-41.4632
-125.599
47.7823
-157.408
120.758
-93.1977
-98.7815
-50.4964
-49.635
-50.4772
-46.9755
-60.3109
-48.9882
7.80178
167.381
-58.0259
178.66
-47.5278
-41.5443
-40.744
-44.8614
-48.0024
-45.4709
-49.8269
-41.3875
-63.573
-59.9382
-49.1143
-47.2048
-51.4168
-51.7965
-55.2206
-49.6891
-46.1597
-46.0302
-46.4226
-45.3186
-44.9151
-33.7976
-45.4119
-46.7103
-63.8376
-1.92159
-65.4671
-69.5217
-73.7544
-104.348
57.3105
-146.986
-50.6569
-52.7046
-54.0084
-48.3348
-59.3239
-67.0499
-66.2519
-58.3544
-63.4738
-59.6739
-55.1911
-49.6719
-49.0141
-47.1845
-51.2756
-51.7694
-46.0658
-46.0432
-45.3975
-46.6976
-46.547
-45.3071
-44.7813
-33.7821
-63.7587
-3.28646
57.3679
-146.393
-65.4178
-69.4815
-73.6732
-104.082
-50.5557
-52.6141
-66.1645
-58.3096
-53.9539
-48.2438
-59.1764
-66.9954
-107.358
-119.337
168.946
189.484
-103.881
-103.857
142.264
142.526
-77.8293
-60.7596
-86.0423
-66.3295
-63.5228
-54.2876
-46.9992
-46.0111
-49.1115
-49.1199
-47.9369
-47.9777
-46.777
-56.4952
-46.9494
-47.9388
-17.991
-18.029
192.574
192.565
-69.2111
-92.5404
-7.68207
27.7229
-38.9841
-38.9631
-45.7488
-45.7791
-58.3295
-51.1291
-44.5138
-39.1805
-107.365
-119.232
189.487
169.029
-77.823
-60.7608
-85.9974
-66.3194
-54.1767
-63.4166
-46.9606
-45.9948
-46.7229
-56.3723
-46.9389
-47.9364
-92.4964
-69.1659
27.8965
-7.60902
-50.9986
-58.1662
-39.1386
-44.4936
-51.3905
-48.8682
-46.7041
-46.1802
-62.6033
-62.1664
-54.1001
-61.5657
-61.3351
-61.6077
-48.1365
-48.1257
-48.7097
-53.1822
-44.946
-43.7413
-45.5961
-45.6053
-46.6563
-46.6554
-58.5468
-64.947
-114.029
-80.882
57.686
57.0374
-148.848
-148.744
-77.0695
-77.0338
-49.853
-49.8408
-51.3822
-48.8389
-46.691
-46.1695
-62.3168
-62.6902
-54.0685
-61.5346
-53.1359
-48.6856
-45.1287
-43.6592
-64.889
-58.477
-80.7745
-114.045
-138.761
-74.9993
-80.939
-159.764
-47.9651
-53.5135
-63.8177
-58.9349
-71.8933
-63.7456
-70.7116
-59.269
-68.7992
-65.0681
-88.5237
-59.8441
-138.765
-159.754
-80.9411
-74.9809
-68.7814
-59.7206
-88.5907
-64.9792
-71.9435
-59.2124
-70.6433
-63.7442
-47.9389
-58.9632
-63.8309
-53.3554
-125.661
-125.612
-87.7162
-82.7478
-125.608
-82.7053
-87.6853
-125.647
-53.4553
-56.2106
-67.4883
-64.4553
-53.5296
-64.4093
-67.5228
-56.1202
-18.5128
-23.2911
2.78042
6.83776
-67.4213
79.7473
40.8632
-0.212362
-73.7749
0.293551
40.1339
80.2066
-19.6662
6.95062
2.7106
-23.1349
29.5672
147.285
181.092
33.286
165.315
172.111
201.313
177.538
164.342
177.648
201.313
171.744
30.8151
34.0252
181.161
147.734
-49.0994
-49.2099
-53.6511
-54.396
-43.6615
-46.6853
-50.5573
-46.7528
-57.8579
-61.9785
-55.4271
-51.1016
-77.7541
-63.1501
-60.1449
-70.1159
-49.077
-54.3656
-53.6303
-49.1329
-77.7134
-70.0245
-60.1047
-63.1064
-57.7631
-51.0528
-55.382
-61.9895
-43.6759
-46.4014
-50.536
-46.6466
-48.9033
-50.2684
-47.001
-46.3442
-48.8823
-46.3293
-46.9929
-50.2519
-45.135
-45.6977
-46.432
-46.1618
-45.1666
-46.169
-46.4394
-45.704
-125.542
-90.1855
-122.904
-158.526
-64.026
-70.0416
-86.1817
-73.1519
-63.9671
-72.9453
-86.1459
-70.0073
-125.191
-158.588
-122.904
-89.9482
-43.9823
-46.7464
-47.8988
-36.3881
-55.613
-49.537
-58.1331
-52.3592
-47.1513
-52.5787
-60.8451
-48.6097
-52.1728
-44.9752
-48.4775
-52.3089
-43.9093
-36.343
-47.8454
-46.7212
-52.1013
-52.1572
-48.3738
-44.8655
-47.0699
-48.5312
-60.6652
-52.4113
-55.4328
-52.3107
-58.0004
-49.4907
-45.7336
-46.8277
-47.0373
-46.6878
-45.67
-46.6642
-47.0287
-46.8233
-50.6399
-50.2892
-47.9143
-48.1133
-50.6127
-48.1074
-47.9173
-50.2871
-55.184
-46.4902
-43.5139
-56.9632
-42.3046
-40.9773
-38.4562
-41.3885
-42.2162
-41.3161
-38.4186
-40.964
-55.0732
-56.945
-43.5039
-46.5019
-49.0662
-49.9458
-47.3455
-46.6856
-49.0301
-46.634
-47.4026
-49.9802
-44.8722
-46.305
-46.1668
-45.9845
-44.9355
-46.0186
-46.1699
-46.3099
-142.451
-177.95
-159.348
-52.243
-53.1555
-52.3335
65.3032
118.741
-54.8753
-45.8554
-43.8215
-44.2621
-178.694
-142.935
-159.478
-53.3838
-52.1748
-52.2844
119.843
65.5446
-55.2327
-43.7527
-45.8055
-44.2056
-49.5266
-49.2045
-47.0652
-49.9692
-46.1703
-44.7021
-44.4206
-45.6933
-85.6656
-80.9688
-86.1233
-115.631
-54.1773
-55.2255
-57.1061
-57.4049
-49.4477
-49.9293
-49.1889
-46.9242
-46.0877
-45.6518
-44.6612
-44.4201
-85.6735
-115.114
-80.9375
-86.1436
-54.1104
-57.2977
-55.184
-57.02
13.3017
-7.55253
-11.2495
130.868
-156.571
-156.743
-140.176
-112.798
-69.0518
-61.7966
-63.3744
-68.6
-47.1758
-46.8325
-47.6131
-46.8967
-51.7896
-51.7985
-51.3713
-50.8079
-48.184
-46.6223
-48.23
-47.2745
138.317
139.573
69.9049
154.378
-45.0079
-50.2494
-59.5036
-27.8463
-42.4931
-42.4828
-41.5235
-45.9204
-50.5937
-51.6273
-52.821
-45.8849
13.2707
-7.18695
-11.7945
130.952
-69.0556
-61.9065
-63.4272
-68.6204
-47.1301
-46.7905
-47.5467
-46.8697
-48.1867
-46.6323
-48.2304
-47.344
-44.5011
-49.7181
-59.4146
-27.6128
-50.4094
-51.4621
-52.6316
-45.7578
-46.2509
-46.8722
-47.6702
-45.9817
-54.811
-58.8234
-55.5929
-57.8784
-52.9995
-52.9855
-54.5999
-51.8774
-43.8017
-46.6146
-47.1706
-43.0516
-46.4295
-46.4278
-46.0164
-46.6185
-71.5993
-66.1739
-66.9456
-74.7694
23.3406
23.407
62.8188
-87.8394
-63.4943
-63.4808
-67.2145
-60.1476
-46.3301
-46.8524
-48.1788
-45.99
-54.7713
-58.7888
-55.5501
-57.8415
-43.772
-46.5891
-47.1128
-43.0195
-71.4857
-66.1074
-66.8675
-74.6156
-76.6028
-70.0707
-71.8008
-65.7858
-76.6123
-70.061
-71.8166
-65.7449
-81.7219
-76.128
-76.1117
-71.7072
16.8811
26.1546
26.0076
36.0273
198.935
191.802
202.147
198.944
-53.3863
-55.6253
-53.7507
-56.0907
-53.3644
-55.5978
-53.7225
-56.0598
-46.5137
-46.7482
-46.4035
-46.5097
-101.455
-110.643
-94.8283
-101.439
-58.3228
-55.5621
-55.798
-51.7097
-58.1899
-55.463
-55.6809
-51.6393
-47.7407
-47.5186
-47.5151
-47.1559
-38.4242
-38.9925
-38.9854
-40.8144
-46.8342
-47.1429
-46.3412
-46.7407
-23.9304
14.6762
-143.196
82.0758
-173.786
-160.784
-143.936
-103.537
-108.203
-80.7399
-90.0867
-94.4366
-48.9169
-47.5292
-49.2103
-46.956
-51.8951
-51.6312
-51.231
-50.807
-51.2284
-49.0197
-52.5516
-49.245
48.5054
16.2032
-67.5818
147.685
137.916
128.554
67.104
151.878
-60.129
-48.3286
-47.7487
-46.4617
-46.8933
-46.8687
-47.1581
-45.8006
-43.6867
-44.0149
-41.835
-44.3405
-45.7558
-48.4658
-48.5675
-43.3602
-175.938
-161.289
-144.461
-101.905
-24.3216
14.1643
-143.228
81.3931
-108.223
-80.7124
-90.2339
-94.4049
-51.8962
-51.6506
-51.241
-50.867
-48.8556
-47.4772
-49.1359
-46.9079
-51.1961
-48.8945
-52.1495
-49.1516
136.959
129.639
67.6762
151.835
48.3986
16.351
-67.4722
147.283
-60.0504
-48.3164
-47.6957
-46.5221
-43.6327
-43.9823
-41.7725
-44.2461
-46.8526
-46.8215
-47.0874
-45.7568
-45.6476
-48.3159
-48.4364
-43.2472
-52.2264
-60.431
-62.3433
-58.6617
-47.697
-46.9438
-47.7187
-47.0516
-48.8874
-51.8358
-50.1977
-51.3128
-51.3781
-52.4513
-53.3933
-50.928
-45.2085
-45.7903
-46.0688
-46.0653
-45.3585
-46.1371
-46.4564
-45.2169
-41.3362
-41.4172
-43.2009
-36.4327
-45.6149
-46.0733
-45.4984
-46.2358
-73.8126
-54.4967
-66.2175
-37.5174
-72.1848
-64.3834
-66.3576
-69.574
-82.1843
-77.033
-75.9656
-90.2776
-55.2522
30.2111
49.8603
-35.6379
-51.8061
-51.1257
-51.1661
-51.3446
-52.6345
-49.518
-52.5398
-49.4509
-61.0622
-62.8028
-60.3016
-64.0264
-62.3975
-63.0957
-63.441
-59.6985
-51.8999
-60.4093
-62.2118
-58.4116
-51.351
-52.4241
-53.3515
-50.9131
-47.6777
-46.9012
-47.6013
-47.0264
-48.8443
-51.7969
-50.1653
-51.2875
-45.1889
-45.7382
-46.0041
-46.0355
-45.6042
-46.065
-45.4841
-46.2173
-45.3777
-46.0474
-47.9921
-45.2135
-41.2939
-41.3908
-43.1923
-36.4179
-73.7099
-54.601
-66.2589
-38.1127
-56.0572
29.8865
50.1042
-36.2044
-72.1763
-64.3556
-66.2702
-69.5611
-82.1359
-76.8774
-75.8536
-89.9378
-51.7197
-51.0038
-51.0732
-51.2199
-62.2618
-63.0477
-63.3611
-59.6424
-52.5952
-49.4795
-52.4881
-49.3696
-61.1034
-62.4812
-59.9108
-63.9274
-141.724
-94.8693
-110.464
-115.239
180.392
192.972
179.057
188.509
-114.012
-95.6395
-104.13
-104.117
83.8162
163.566
141.192
141.309
-65.7447
-68.4719
-71.762
-63.2048
-73.3596
-75.1904
-79.7898
-70.0542
-50.4986
-60.1168
-60.2141
-57.2573
-46.4972
-46.6736
-46.8387
-46.348
-49.6066
-48.4892
-49.1289
-49.1322
-48.7891
-47.3515
-47.7097
-47.7406
-51.453
-54.2093
-48.7569
-55.6533
-47.453
-47.5112
-47.036
-47.7581
-20.1033
-4.50911
-14.7832
-14.8078
186.249
201.53
195.812
196.087
-74.9239
-78.3414
-73.027
-82.2069
2.47743
18.9971
3.5083
20.8876
-39.6684
-38.4758
-38.8944
-38.8757
-46.7679
-46.1849
-46.0683
-46.1359
-56.1659
-57.5176
-59.9657
-54.1843
-41.05
-39.609
-41.7742
-39.4509
-141.71
-94.8859
-110.465
-115.258
180.313
192.972
188.514
179.078
-65.7405
-68.4659
-71.7571
-63.2042
-73.3323
-75.1563
-79.7468
-70.0313
-50.3985
-59.979
-57.0987
-60.1106
-46.4717
-46.6315
-46.7864
-46.3336
-51.3984
-54.1238
-48.6977
-55.5601
-47.4448
-47.504
-47.0267
-47.754
-75.1011
-78.3621
-82.2627
-72.9775
2.67363
18.8862
20.9485
3.5033
-55.9883
-57.5264
-54.0093
-59.588
-41.0117
-39.5852
-39.4218
-41.7683
-49.4113
-51.0877
-50.7813
-49.5887
-46.0606
-46.3252
-46.3974
-46.1093
-57.7953
-66.8677
-62.7025
-61.4548
-57.5726
-57.2692
-55.8033
-59.4429
-58.786
-64.7006
-61.4541
-61.6488
-49.1425
-47.6282
-48.2756
-48.2694
-49.9063
-51.745
-49.5714
-51.9548
-39.4008
-48.2363
-43.9227
-42.0524
-45.7179
-46.2082
-45.7328
-45.7375
-46.7484
-46.9431
-46.6594
-46.6583
-63.5376
-59.3712
-59.932
-62.9076
-87.1274
-98.0309
-101.849
-86.4891
80.4233
51.3127
63.7354
62.6806
-174.177
-134.263
-151.276
-151.32
-75.0724
-82.8825
-78.021
-78.0036
-53.1062
-46.1316
-49.4856
-49.4797
-49.4338
-51.0832
-50.7947
-49.5721
-46.0474
-46.3157
-46.3853
-46.0979
-57.7434
-66.896
-61.4717
-62.7227
-57.5406
-57.237
-55.7708
-59.4084
-49.8869
-51.7128
-51.9157
-49.5428
-39.6115
-48.2989
-43.8822
-41.8014
-63.4811
-59.3326
-62.8534
-59.8869
-86.9523
-97.9712
-86.3895
-101.568
-119.059
-97.5883
-104.06
-86.6703
-63.9348
-55.6051
-66.8537
-63.4876
-66.2873
-65.1128
-65.8893
-63.7418
-48.4364
-45.4225
-108.487
-95.0911
-119.077
-97.5974
-104.079
-86.6692
-48.4924
-45.3302
-108.326
-94.8097
-66.2813
-65.2682
-65.794
-63.7963
-63.8704
-55.4603
-66.8502
-63.5564
-112.4
-101.075
-103.085
-93.5731
-112.417
-101.048
-103.055
-93.5353
-60.1197
-57.5615
-63.437
-60.84
-60.3667
-57.739
-63.4001
-61.136
-24.6107
-37.5493
-23.1582
-19.6006
18.9305
49.8132
32.3542
49.4428
23.449
52.193
33.3368
47.958
-24.3125
-37.5631
-23.2098
-19.6947
134.412
107.671
155.95
138.895
179.829
177.849
187.826
188.701
177.816
179.896
188.598
187.925
108.312
135.187
139.302
156.137
-50.703
-51.6981
-51.6982
-52.7868
-46.1173
-46.107
-48.0188
-47.8677
-55.1323
-57.7407
-54.6179
-57.26
-68.3453
-70.5824
-64.2011
-66.27
-50.6667
-51.6612
-51.6708
-52.7541
-68.2972
-70.5175
-64.1675
-66.2105
-55.0753
-57.6703
-54.5618
-57.1754
-46.1267
-46.0704
-48.0157
-47.8902
-47.4525
-48.4691
-47.141
-47.9551
-48.451
-47.4352
-47.941
-47.1266
-45.3635
-45.2535
-45.4926
-45.8837
-45.2763
-45.3784
-45.8957
-45.5042
-128.189
-171.453
-129.46
-148.063
-70.3697
-69.1261
-76.3788
-74.9898
-69.0344
-70.2281
-74.9336
-76.2735
-170.805
-128.225
-147.914
-129.552
-45.704
-39.1817
-48.0647
-45.2885
-59.7019
-63.9747
-64.1515
-58.0754
-49.3775
-50.4353
-51.5038
-54.1022
-49.1986
-47.6828
-48.8178
-46.6877
-45.5861
-39.059
-47.9912
-45.1955
-49.0904
-47.6013
-48.6891
-46.5967
-49.2754
-50.3047
-51.3887
-53.9282
-59.6043
-63.851
-64.0153
-57.9227
-46.3669
-46.8076
-46.8293
-46.6335
-46.3569
-46.7992
-46.8185
-46.6275
-49.4736
-48.9408
-49.0844
-48.5695
-49.5107
-49.0128
-49.1044
-48.5632
-52.3151
-54.8171
-47.652
-50.258
-39.7823
-40.2334
-39.1137
-39.2538
-39.7273
-40.1577
-39.0731
-39.1877
-52.2713
-54.7848
-47.6145
-50.235
-47.1354
-48.2916
-47.0559
-47.6434
-48.3983
-47.1352
-47.6638
-47.0615
-45.2674
-45.5244
-45.6249
-45.7695
-45.563
-45.2977
-45.7874
-45.632
-165.275
-14.3457
-149.169
-71.4658
-128.105
-127.111
-51.6001
-49.4525
-51.4059
-50.7348
-57.0072
-50.8252
-69.4823
153.193
25.9018
148.101
-71.5434
-52.1257
-47.0051
-44.9386
-42.9121
-44.462
-46.3206
-43.4313
-149.874
-71.9291
-165.42
-14.7131
-128.157
-126.893
-51.3979
-50.8084
-51.5195
-49.4523
-56.9368
-50.8145
26.6637
147.663
-69.3941
153.428
-71.6702
-52.8128
-42.8292
-44.3858
-46.9361
-44.8741
-46.2474
-43.3494
-46.1254
-52.3784
-48.0095
-48.5651
-47.7022
-47.9554
-51.7707
-49.8956
-45.7727
-45.395
-43.9949
-45.2468
-41.1486
-46.0405
-45.382
-45.6974
-76.8376
-102.661
-74.6902
-78.4385
-80.4423
-99.1244
-111.104
-153.29
-52.8991
-53.9848
-56.3175
-53.0502
-58.822
-62.2178
-61.3186
-57.3579
-46.1279
-52.3099
-51.7214
-49.8714
-47.988
-48.5417
-47.6443
-47.9437
-45.6556
-45.3496
-45.3535
-45.656
-43.9996
-45.2293
-41.112
-45.9245
-76.936
-102.309
-118.12
-152.767
-74.6752
-78.4259
-80.4309
-98.8549
-52.8358
-53.8902
-61.254
-57.2501
-56.2294
-52.9781
-58.7235
-62.1503
-113.074
75.4128
-34.0371
136.607
-160.267
-109.219
167.168
176.802
-140.53
-111.561
-140.738
-112.554
-125.619
-125.624
23.449
23.6971
-73.6645
-78.7428
-58.0764
-62.5557
-69.4275
-61.9378
-76.7915
-67.6909
-48.2092
-47.2715
-47.2181
-46.2871
-49.191
-48.703
-46.7588
-46.276
-51.2327
-50.9141
-51.2407
-50.9343
-50.1871
-50.1857
-49.9957
-50.0207
-50.4096
-48.5036
-46.8941
-46.3392
-47.4237
-51.2945
-46.8704
-47.7954
71.5031
156.735
71.5945
156.659
7.05072
6.93368
172.102
171.302
-53.4865
-37.4345
-58.7764
-24.4819
-68.2601
-61.5338
-15.1341
-4.53949
-41.8252
-45.6104
-41.81
-45.603
-41.1491
-41.1423
-46.7997
-46.7965
-51.4494
-43.9924
-51.9851
-47.6073
-53.8717
-54.6551
-44.2045
-41.6908
-112.857
75.8458
-33.8537
136.539
-160.203
-109.365
176.771
167.148
-73.7754
-78.6926
-58.1305
-62.6206
-69.4112
-61.966
-76.7584
-67.7012
-48.1402
-47.239
-47.1653
-46.259
-48.6228
-49.1154
-46.7171
-46.2445
-50.5081
-48.4572
-46.8752
-46.2535
-47.3999
-51.2586
-46.8763
-47.7727
-53.3117
-37.1237
-58.7062
-24.4063
-61.3364
-68.2736
-4.16637
-14.9604
-51.2869
-43.8481
-51.8338
-47.4895
-53.9801
-53.6994
-41.6175
-44.2258
-47.7485
-46.2652
-46.2409
-46.3724
-48.6274
-47.9584
-46.0974
-45.9522
-52.5366
-54.2188
-59.9192
-62.6338
-54.3438
-57.1634
-56.0014
-60.3646
-54.3158
-51.6681
-54.2704
-51.6459
-56.4765
-56.3769
-50.4483
-50.4385
-44.8274
-39.2042
-49.5235
-46.3837
-47.6882
-49.8755
-38.5241
-42.9124
-45.9129
-46.5915
-45.9108
-46.5912
-45.8134
-45.8155
-46.7446
-46.7419
-71.6998
-81.8126
-63.2591
-69.0432
-63.6171
-67.8015
-85.0299
-76.6776
65.0018
-64.5573
65.3378
-64.8138
82.4828
82.8614
-169.733
-169.644
-66.7453
-60.3746
-66.7158
-60.3516
-71.01
-70.994
-56.7733
-56.7641
-47.5988
-46.2444
-45.7651
-46.3378
-48.7937
-47.9687
-46.0864
-45.9395
-52.5153
-54.177
-59.8776
-62.6055
-57.1143
-54.2621
-55.9705
-60.3269
-44.7943
-39.1876
-49.4791
-46.3201
-49.828
-47.6435
-38.48
-42.8366
-71.5901
-81.6825
-63.3948
-68.8997
-67.7171
-63.5679
-76.4098
-84.7732
-82.631
-86.5164
-74.2977
-65.1945
-69.8882
-79.7637
-65.8714
-69.1624
-82.6383
-86.5525
-74.2953
-65.1667
-79.7864
-69.8837
-69.1313
-65.8634
-88.02
-88.0039
-81.3841
-71.3704
-81.3537
-71.3396
-67.7027
-67.7246
4.81118
4.74933
13.1948
33.0883
32.9206
13.085
43.697
43.4927
190.863
200.126
182.45
182.482
203.483
203.474
200.128
190.887