# vtk DataFile Version 2.0
tet_velo
ASCII
DATASET UNSTRUCTURED_GRID
POINTS 29498 float
-0.805 0.115 -2.36391
-0.73414 0.235 2.465
-0.745 0.795 -2.40765
-0.739964 1.145 2.405
0.805 0.115 -2.36393
0.734146 0.235 2.465
0.745 0.795 -2.40765
0.73997 1.145 2.405
-0.821226 0.115154 -0.754273
-0.813916 0.138844 0.855363
-0.844464 1.01281 -0.803433
-0.806606 1.0933 0.800783
0.821231 0.115151 -0.754287
0.81402 0.138744 0.855357
0.844476 1.01282 -0.803433
0.80661 1.0933 0.800783
-1.6298 -0.391247 -3.6245
-1.62561 -0.317867 -2.33896
-1.63198 -0.310517 -0.729184
-1.61071 -0.304453 0.881684
-1.55536 -0.235522 2.49155
-1.54003 -0.17157 3.77754
-1.54383 -0.110109 5.0627
-1.62422 0.00837029 -3.64832
-1.62161 0.105382 -2.36337
-1.63848 0.135755 -0.754647
-1.60643 0.152129 0.854562
-1.52956 0.224529 2.46339
-1.52204 0.28784 3.7493
-1.53378 0.348082 5.03463
-1.59959 0.767533 -3.69443
-1.588 0.862222 -2.40926
-1.64604 1.01908 -0.804233
-1.6044 1.08895 0.80041
-1.53124 1.14551 2.40554
-1.52269 1.20583 3.69168
-1.53318 1.26555 4.97789
-1.58807 2.03509 -3.76767
-1.58704 2.14536 -2.48331
-1.60848 2.31361 -0.880043
-1.61088 2.44442 0.722057
-1.58869 2.52852 2.32538
-1.57226 2.58467 3.60986
-1.56389 2.6401 4.89548
-0.824283 -0.386643 -3.62485
-0.809605 -0.309825 -2.33948
-0.816847 -0.319797 -0.729119
-0.815789 -0.315221 0.882367
-0.777917 -0.233078 2.49275
-0.76454 -0.169819 3.77835
-0.766127 -0.109965 5.06317
-0.824463 0.00522942 -3.64843
-0.747506 0.29095 3.74997
-0.757621 0.348782 5.03499
-0.802528 0.739019 -3.69376
-0.748243 1.20674 3.69157
-0.756874 1.26612 4.97786
-0.781727 2.01596 -3.76701
-0.774792 2.12753 -2.48258
-0.797574 2.30905 -0.879605
-0.812435 2.44752 0.722002
-0.802331 2.53127 2.325
-0.789161 2.58631 3.60948
-0.780492 2.64114 4.8952
0.784812 -0.386645 -3.62487
0.810368 -0.309827 -2.33949
0.818941 -0.319811 -0.729131
0.797234 -0.315289 0.882361
0.745995 -0.233104 2.49275
0.761625 -0.169839 3.77835
0.777209 -0.109987 5.06317
0.771202 0.00522838 -3.64844
0.761733 0.290937 3.74997
0.778621 0.348763 5.03499
0.759639 0.739019 -3.69377
0.764026 1.20673 3.69157
0.780228 1.2661 4.97786
0.817807 2.01596 -3.76701
0.832538 2.12752 -2.48259
0.82579 2.30905 -0.879608
0.79385 2.44752 0.722
0.772549 2.53126 2.325
0.774272 2.58629 3.60948
0.782965 2.64112 4.8952
1.59437 -0.391253 -3.62452
1.61983 -0.317874 -2.33899
1.63286 -0.310547 -0.729204
1.60352 -0.304547 0.881672
1.54343 -0.235587 2.49155
1.54162 -0.171618 3.77754
1.55602 -0.110154 5.06269
1.58266 0.00836722 -3.64834
1.61427 0.105382 -2.36339
1.63921 0.135739 -0.754666
1.61083 0.15203 0.854551
1.53638 0.224473 2.46338
1.5369 0.2878 3.7493
1.55463 0.348041 5.03463
1.56959 0.767532 -3.69444
1.58721 0.862225 -2.40927
1.64943 1.01908 -0.804241
1.60902 1.08892 0.800404
1.53896 1.14548 2.40554
1.53935 1.2058 3.69167
1.55647 1.26551 4.97788
1.61873 2.03509 -3.76768
1.63372 2.14536 -2.48332
1.63359 2.3136 -0.880051
1.60074 2.4444 0.722051
1.56921 2.52849 2.32538
1.56349 2.58464 3.60986
1.56931 2.64006 4.89547
-0.80581 0.455 -2.41659
0 0.0991976 -2.37972
-0.82732 0.10087 -1.55909
-0.80206 0.69 2.50001
3.01003e-06 0.223777 2.47622
-0.768031 0.192919 1.66018
0 0.851635 -2.46429
-0.853897 0.96307 -1.60554
3.01003e-06 1.18593 2.44593
-0.786706 1.13257 1.60289
0.805802 0.455 -2.41659
0.827266 0.100925 -1.55911
0.802022 0.69 2.49996
0.768021 0.192934 1.66018
0.853881 0.963052 -1.60554
0.78671 1.13257 1.60289
-0.818195 0.126375 0.050545
-0.877883 0.563981 -0.778853
2.41658e-06 0.0699267 -0.75428
-0.885351 0.61607 0.828073
5.19639e-05 0.0881325 0.85536
-0.826226 1.05374 -0.00132501
6.30331e-06 1.3848 -0.803433
2.2543e-06 1.62144 0.800783
0.818198 0.126375 0.050535
0.877886 0.563985 -0.77886
0.885354 0.616021 0.82807
0.82623 1.05374 -0.00132501
-0.884827 0.509491 -1.58232
-0.880688 0.590026 0.02461
-0.886624 0.653035 1.63154
1.20829e-06 0.0713642 -1.5591
2.71902e-05 0.0785137 0.05054
2.7487e-05 0.145454 1.66018
0 0.455 -2.52304
3.01003e-06 0.69 2.61729
3.15166e-06 1.07493 -1.60554
4.27881e-06 1.58028 -0.00132501
2.63217e-06 1.42071 1.60289
0.882787 0.509493 -1.58233
0.880694 0.590003 0.024605
0.886626 0.65301 1.63154
-1.21331 0.110191 -2.36364
-0.807303 -0.0974124 -2.35169
-0.814731 0.0601147 -3.00617
-1.13185 0.229764 2.46419
-0.756028 0.000961166 2.47888
-0.740823 0.262975 3.10749
-1.1665 0.828611 -2.40845
-0.773764 0.767009 -3.0507
-0.759896 1.46126 -2.44512
-1.1356 1.14526 2.40527
-0.744103 1.17587 3.04828
-0.771148 1.83814 2.365
0.807684 -0.0974135 -2.35171
0.788101 0.0601142 -3.00618
1.20964 0.110191 -2.36366
0.740071 0.000948166 2.47887
0.74794 0.262968 3.10748
1.13526 0.229737 2.46419
0.75232 0.767009 -3.05071
0.788769 1.46126 -2.44512
1.16611 0.828613 -2.40846
0.751998 1.17587 3.04828
0.756259 1.83813 2.365
1.13946 1.14524 2.40527
-1.22985 0.125454 -0.75446
-0.819037 -0.102322 -0.741696
-1.21017 0.145486 0.854963
-0.814853 -0.0881886 0.868865
-1.24525 1.01594 -0.803833
-0.821019 1.66093 -0.841519
-1.2055 1.09112 0.800596
-0.809521 1.77041 0.761393
0.820086 -0.10233 -0.741709
1.23022 0.125445 -0.754477
0.805627 -0.0882724 0.868859
1.21243 0.145387 0.854954
0.835133 1.66093 -0.841521
1.24695 1.01595 -0.803837
0.80023 1.77041 0.761392
1.20781 1.09111 0.800594
-1.6277 -0.354557 -2.98173
-1.62701 -0.191438 -3.63641
-1.22704 -0.388945 -3.62468
-1.6288 -0.314192 -1.53407
-1.62361 -0.106243 -2.35116
-1.21761 -0.313846 -2.33922
-1.62134 -0.307485 0.0762504
-1.63523 -0.0873809 -0.741915
-1.22441 -0.315157 -0.729151
-1.58303 -0.269987 1.68662
-1.60857 -0.076162 0.868123
-1.21325 -0.309837 0.882026
-1.54769 -0.203546 3.13455
-1.54246 -0.00549651 2.47747
-1.16664 -0.2343 2.49215
-1.54193 -0.140839 4.42012
-1.53103 0.058135 3.76342
-1.15228 -0.170694 3.77795
-1.53881 0.118987 5.04867
-1.15498 -0.110037 5.06293
-1.62292 0.0568764 -3.00584
-1.61191 0.387952 -3.67137
-1.22434 0.00679986 -3.64837
-1.63005 0.120569 -1.55901
-1.60481 0.483802 -2.38631
-1.62246 0.143942 0.0499576
-1.64226 0.577416 -0.77944
-1.56799 0.188329 1.65898
-1.60542 0.62054 0.827486
-1.5258 0.256184 3.10634
-1.5304 0.68502 2.43446
-1.52791 0.317961 4.39197
-1.52237 0.746837 3.72049
-1.13477 0.289395 3.74964
-1.53348 0.806814 5.00626
-1.1457 0.348432 5.03481
-1.5938 0.814878 -3.05184
-1.59383 1.40131 -3.73105
-1.20106 0.753276 -3.69409
-1.61702 0.940649 -1.60675
-1.58752 1.50379 -2.44629
-1.62522 1.05401 -0.00191169
-1.62726 1.66634 -0.842138
-1.56782 1.11723 1.60297
-1.60764 1.76669 0.761233
-1.52697 1.17567 3.04861
-1.55997 1.83701 2.36546
-1.52794 1.23569 4.33478
-1.54748 1.89525 3.65077
-1.13547 1.20629 3.69162
-1.54853 1.95282 4.93668
-1.14502 1.26583 4.97787
-1.58755 2.09023 -3.12549
-1.1849 2.02553 -3.76734
-1.59776 2.22948 -1.68168
-1.18092 2.13644 -2.48295
-1.60968 2.37901 -0.0789934
-1.20303 2.31133 -0.879824
-1.59979 2.48647 1.52372
-1.21166 2.44597 0.722029
-1.58048 2.55659 2.96762
-1.19551 2.5299 2.32519
-1.56807 2.61238 4.25267
-1.18071 2.58549 3.60967
-1.17219 2.64062 4.89534
-0.816944 -0.348234 -2.98217
-0.824373 -0.190707 -3.63664
-0.0197359 -0.386644 -3.62486
-0.813226 -0.314811 -1.5343
0.000381216 -0.309826 -2.33948
-0.816318 -0.317509 0.0766243
0.00104688 -0.319804 -0.729125
-0.796853 -0.27415 1.68756
-0.00927751 -0.315255 0.882364
-0.771229 -0.201448 3.13555
-0.0159608 -0.233091 2.49275
-0.765334 -0.139892 4.42076
-0.756023 0.0605656 3.76416
-0.00145766 -0.169829 3.77835
-0.761874 0.119408 5.04908
0.00554105 -0.109976 5.06317
-0.813495 0.372124 -3.67109
-0.0266304 0.0052289 -3.64843
-0.752563 0.319866 4.39248
-0.747874 0.748846 3.72077
0.00711382 0.290943 3.74997
-0.757247 0.807449 5.00643
0.0104999 0.348772 5.03499
-0.792128 1.37749 -3.73038
-0.0214443 0.739019 -3.69376
-0.752558 1.23643 4.33472
-0.768702 1.89653 3.65053
0.00789183 1.20674 3.69157
-0.768683 1.95363 4.93653
0.0116771 1.26611 4.97786
-0.778259 2.07174 -3.1248
0.0180397 2.01596 -3.76701
-0.786183 2.21829 -1.68109
0.028873 2.12753 -2.48259
-0.805005 2.37829 -0.0788014
0.0141082 2.30905 -0.879607
-0.807383 2.4894 1.5235
-0.00929282 2.44752 0.722001
-0.795746 2.55879 2.96724
-0.0148915 2.53127 2.325
-0.784826 2.61372 4.25234
-0.00744467 2.5863 3.60948
0.00123669 2.64113 4.8952
0.79759 -0.348236 -2.98218
0.778007 -0.190708 -3.63665
1.18959 -0.388949 -3.6247
0.814654 -0.314819 -1.53431
1.2151 -0.313851 -2.33924
0.808088 -0.31755 0.076615
1.2259 -0.315179 -0.729167
0.771615 -0.274196 1.68755
1.20038 -0.309918 0.882016
0.75381 -0.201471 3.13555
1.14471 -0.234345 2.49215
0.769417 -0.139913 4.42076
0.761679 0.0605488 3.76416
1.15162 -0.170728 3.77794
0.777915 0.119388 5.04908
1.16662 -0.110071 5.06293
0.765421 0.372123 -3.6711
1.17693 0.0067978 -3.64839
0.770177 0.31985 4.39248
0.76288 0.748834 3.72077
1.14932 0.289368 3.74963
0.779424 0.807432 5.00642
1.16662 0.348402 5.03481
0.788723 1.37749 -3.73039
1.16462 0.753275 -3.6941
0.772127 1.23642 4.33471
0.769149 1.89651 3.65052
1.15169 1.20627 3.69162
0.781596 1.95361 4.93653
1.16835 1.26581 4.97787
0.825172 2.07174 -3.1248
1.21827 2.02552 -3.76735
0.829164 2.21829 -1.6811
1.23313 2.13644 -2.48295
0.80982 2.37828 -0.0788041
1.22969 2.31132 -0.879829
0.783199 2.48939 1.5235
1.1973 2.44596 0.722025
0.77341 2.55878 2.96724
1.17088 2.52988 2.32519
0.778619 2.61371 4.25234
1.16888 2.58547 3.60967
1.17614 2.64059 4.89533
1.6071 -0.354564 -2.98176
1.58851 -0.191443 -3.63643
1.62635 -0.31421 -1.5341
1.61705 -0.106246 -2.35119
1.61819 -0.307547 0.0762339
1.63604 -0.0874036 -0.741935
1.57348 -0.270067 1.68661
1.60718 -0.0762586 0.868111
1.54252 -0.203602 3.13454
1.5399 -0.00555706 2.47747
1.54882 -0.140886 4.42012
1.53926 0.0580912 3.76342
1.55533 0.118943 5.04866
1.59847 0.0568744 -3.00587
1.57613 0.38795 -3.67139
1.62674 0.120561 -1.55903
1.60074 0.483804 -2.38633
1.62502 0.143885 0.0499423
1.64432 0.577409 -0.779454
1.5736 0.188252 1.65897
1.60993 0.620474 0.827478
1.53664 0.256137 3.10634
1.53767 0.684974 2.43446
1.54576 0.317921 4.39196
1.53812 0.746802 3.72049
1.55555 0.806775 5.00626
1.5784 0.814879 -3.05186
1.59416 1.40131 -3.73106
1.61832 0.940652 -1.60676
1.61046 1.50379 -2.4463
1.62922 1.054 -0.00191872
[...]
POINT_DATA 29498
VECTORS point_vectors float
-5.44776 -5.114 14.1178
0.0911003 0.140807 0.697451
-1.09267 0.831735 1.85461
0.163634 -0.133904 0.988501
5.44247 -5.10179 14.1085
-0.111264 0.195486 0.799105
1.09028 0.828952 1.84883
-0.113127 -0.211394 1.04704
0.0285684 -0.00507814 0.605593
0.0107997 -0.00580093 0.158419
-0.00804884 0.0117822 0.608782
0.00897286 0.0141465 0.0506558
-0.0276463 -0.00441378 0.605861
-0.010093 -0.00528439 0.162034
0.00830005 0.0114484 0.609501
-0.00892283 0.0140903 0.0510673
-0.592916 -0.297811 19.9597
-1.1807 -0.699387 20.8427
-0.32216 -0.284611 21.6721
0.164807 -0.0261558 21.8071
0.606932 0.225577 21.658
0.692613 0.339937 21.4378
1.20869 0.217181 20.7299
-0.759108 -0.239805 19.8085
-1.71791 -0.626623 20.7855
-0.473589 -0.37374 21.7337
0.141866 -0.150035 21.8747
0.74503 0.0687574 21.7755
0.993557 0.139731 21.4962
1.17403 -0.0299927 21.5374
-0.76529 0.0826875 19.7258
-2.06433 0.265042 20.5374
-1.04083 -0.277999 21.706
-0.131968 -0.301023 21.9586
0.630868 -0.338553 21.7954
0.93534 -0.449078 21.3582
0.856154 -0.397457 20.4902
-0.389556 0.318962 20.0042
-0.76715 0.599222 20.4273
-0.739118 0.440841 21.3521
-0.254553 0.0576078 21.7874
0.134442 -0.218171 21.5555
0.314937 -0.309784 21.0486
0.230408 -0.365888 20.8168
-0.580509 -0.652952 19.4224
-1.82603 -2.77331 21.4194
-0.310351 -0.199403 22.1202
0.196418 0.300287 21.7525
0.532706 0.861356 20.9243
0.752763 1.18713 20.4487
0.762443 1.24949 20.1128
-0.771691 -0.523827 19.055
0.131384 1.27226 9.18255
1.44509 0.799414 11.4379
-0.839106 0.224232 18.8028
1.71454 -0.010752 11.2608
1.22011 -0.967235 16.9181
-0.312223 0.572458 19.7434
-0.72257 1.2998 20.178
-0.918402 1.246 21.3889
-0.295236 0.218873 22.1077
0.140994 -0.40147 21.7664
0.213553 -0.517426 21.4884
0.24909 -0.428825 21.1188
0.56446 -0.67552 19.4126
1.83447 -2.77301 21.4211
0.324459 -0.197338 22.1279
-0.157933 0.307341 21.7533
-0.446432 0.999627 20.7434
-0.838679 1.38658 19.9926
-0.73342 1.27799 20.2551
0.75567 -0.548786 18.9861
-1.13472 1.70751 11.1915
-1.74108 1.06497 13.8419
0.830715 0.227939 18.7287
-1.67297 -0.445148 11.889
-0.811294 -1.01955 17.4246
0.33182 0.562606 19.7574
0.758234 1.24332 20.2013
0.931579 1.21167 21.3905
0.307878 0.220745 22.123
-0.11278 -0.409561 21.8039
-0.087627 -0.439184 21.6968
-0.106149 -0.555942 21.1157
0.601156 -0.298295 19.9536
1.18897 -0.704469 20.8511
0.331486 -0.280222 21.6906
-0.160276 -0.0165406 21.8326
-0.6641 0.270257 21.6938
-0.843847 0.421623 21.3288
-1.17473 0.239831 20.7382
0.761143 -0.240227 19.7668
1.72907 -0.629784 20.8042
0.477851 -0.374948 21.7372
-0.136723 -0.146351 21.8904
-0.817589 0.0948491 21.8346
-1.05514 0.178274 21.3004
-1.38339 0.0680854 20.9061
0.778923 0.0861727 19.6952
2.06676 0.262375 20.5432
1.03901 -0.278839 21.7163
0.130904 -0.306262 21.979
-0.674574 -0.385063 21.8455
-1.01153 -0.503418 21.3144
-1.24361 -0.425198 21.3295
0.391678 0.312498 20.0189
0.759485 0.576755 20.4448
0.731179 0.426657 21.3532
0.263209 0.0492173 21.7946
-0.140197 -0.230554 21.5513
-0.180251 -0.293034 21.2708
-0.24742 -0.359137 20.9723
-3.23029 -0.107774 3.96487
6.06987e-05 -0.0922993 0.347798
-0.0228689 -0.00735931 2.11588
0.0341822 0.134044 0.160006
0.0229864 0.0121985 0.0574006
0.00524186 0.00226096 0.095418
-0.00032516 0.663168 0.896834
-0.176629 -0.171893 0.916983
0.0432622 0.0303337 -0.054141
0 0 0
3.23191 -0.106687 3.96282
0.0250052 -0.0072943 2.11113
-0.0665743 0.0646289 0.219183
-0.00398211 0.00296562 0.095572
0.17653 -0.171926 0.915515
0 0 0
0.0204761 -0.00390495 0.384025
0 0 0
0 0 0
-5.11676e-05 0.0037894 0.0403915
3.85911e-05 5.9589e-05 0.00620353
0.0536052 0.0777086 0.310134
8.88732e-05 0.0563496 0.127309
0.000250098 -0.00786066 0.122821
-0.0192364 -0.00341503 0.384779
0 0 0
5.34526e-05 0.00384014 0.0408465
-0.0530968 0.0772481 0.310434
0 0 0
0 0 0
0.000110633 0.00114011 0.0153921
1.04825e-05 -0.000422608 0.0118226
-4.72726e-06 4.12061e-06 0.000652238
9.59119e-06 2.63318e-05 0.000286629
-0.000159128 -0.233785 0.0514334
0.0252534 0.0571342 -0.00447958
0.000146067 0.0256539 0.0828242
0 0 0
1.85638e-05 -2.01453e-05 0.000208512
0 0 0
0 0 0
-0.000106998 0.00103832 0.0149277
-3.18896 -1.56262 21.0005
-3.05337 -4.16867 21.7973
-2.35706 -1.79799 18.0158
1.05335 0.388424 18.8643
0.668662 0.958289 15.1633
-0.0622099 0.838556 6.34362
-4.0955 0.943441 20.3677
-2.51677 1.04245 17.1581
-1.91726 2.63749 19.7626
1.0308 -0.256281 19.8824
1.03477 0.578875 7.48269
0.362614 -0.744322 21.6881
3.05925 -4.16612 21.8007
2.36069 -1.89563 17.8708
3.21236 -1.58301 21.0087
-0.534246 1.15087 15.0765
-0.374425 1.24147 7.87803
-1.18523 0.483302 19.1317
2.50003 1.08541 17.0313
1.94213 2.5293 19.7898
4.09971 0.945331 20.3728
-0.884607 -0.0119921 7.92174
-0.314676 -0.794222 21.7084
-1.069 -0.385693 20.0807
-0.285249 -0.57911 21.7191
0.112555 0.029457 18.4287
0.313209 -0.185519 20.7521
0.568917 0.264779 17.3345
-1.55013 -0.87698 22.0552
-2.77416 1.79334 21.6821
-0.158717 -0.531686 21.0659
-0.665281 0.139223 22.5367
-0.0971397 0.032543 18.4462
0.291495 -0.57805 21.7271
-0.532209 0.276237 17.2108
-0.302959 -0.175817 20.8
2.75471 1.71898 21.698
1.54981 -0.873565 22.0632
0.686055 0.135022 22.549
0.163277 -0.542602 21.1092
-0.97798 -0.518907 20.1986
-0.679765 -0.265276 19.8815
-0.664965 -0.468498 19.7208
-0.735183 -0.488686 21.4788
-1.50449 -0.689388 20.824
-1.6193 -1.38671 20.961
-0.0483659 -0.136519 21.7517
-0.398342 -0.354904 21.6912
-0.272601 -0.319702 21.8398
0.386762 0.119747 21.7673
0.149362 -0.103557 21.8391
0.241224 0.0579232 21.9258
0.702647 0.271234 21.5197
0.663256 0.172484 21.7064
0.672815 0.497197 21.6291
0.796852 0.209442 20.8354
0.897898 0.287369 21.4457
0.900317 0.679141 21.2069
1.42443 0.125516 20.9213
1.03541 0.872441 21.0344
-1.30802 -0.431014 19.9985
-0.779686 -0.0484963 19.726
-0.841796 -0.378738 19.4686
-1.04755 -0.496371 21.5527
-2.05654 -0.219481 20.6904
-0.123448 -0.260975 21.8059
-0.686771 -0.418462 21.7537
0.432559 -0.0527125 21.8823
0.0558843 -0.265695 21.953
0.899851 0.133239 21.5903
0.776371 -0.132885 21.8395
1.16912 0.0624275 21.7455
1.21986 -0.0978293 21.5862
1.37368 0.44457 18.4471
1.09966 -0.213032 20.5957
1.20625 0.520636 20.726
-1.44025 0.205645 19.8055
-0.576139 0.313998 19.8439
-0.906224 0.16169 19.2876
-1.58556 -0.0660653 21.3671
-1.32774 0.676776 20.3999
-0.552636 -0.348009 21.9062
-1.15758 0.240126 21.5108
0.255005 -0.287531 21.9349
-0.317715 -0.108031 21.9285
0.819304 -0.34989 21.5811
0.316745 -0.359142 21.7035
0.828253 -0.536883 21.49
0.556557 -0.476536 21.5378
1.22868 -0.557214 20.4051
0.569474 -0.451166 21.3147
1.05511 -0.482182 19.6052
-0.601725 0.478385 20.1538
-0.3997 0.425466 19.8935
-0.819694 0.583065 20.8974
-0.828481 0.940726 20.3176
-0.523247 0.245489 21.6427
-0.89852 0.75615 21.3883
-0.00770752 -0.106818 21.6808
-0.27334 0.0972397 21.9282
0.218909 -0.271873 21.4603
0.155126 -0.332251 21.6875
0.270593 -0.359558 21.032
0.269389 -0.397529 21.4035
0.249 -0.707635 20.7745
-1.30644 -1.74702 19.3932
-0.682779 -0.650281 19.2364
6.92673e-05 -0.9225 19.075
-0.831686 -0.891796 22.2713
-0.00436788 -4.59766 21.7696
-0.0225873 0.076576 21.8992
0.00304119 -0.583611 20.7426
0.423071 0.628288 21.4128
0.0135708 0.0895952 18.7
0.586061 0.88563 20.5233
0.126707 0.620932 16.5916
0.936532 1.32322 19.7278
0.598773 1.34762 15.4403
0.488577 0.861779 16.1147
1.04073 1.27475 15.8381
0.0906775 0.984435 13.1398
-0.882777 -0.170263 18.7842
-0.0272622 -0.783698 18.4186
1.72479 0.901737 9.82967
0.926779 0.934792 4.18227
-0.0777335 -0.830427 -0.282182
1.38225 0.0334424 10.8017
-0.0327001 0.502829 6.81932
-0.533913 0.576203 19.3285
-0.019271 0.330191 18.1846
1.90266 -0.844981 16.3612
0.542455 -1.01989 21.538
0.282167 -1.14616 2.51655
0.633987 -0.924873 20.8267
-0.0217303 -1.15505 6.6622
-0.51665 0.939027 19.8259
0.0119681 0.660566 19.619
-0.911888 1.38059 20.7718
0.0280562 1.70845 20.0141
-0.674682 0.786525 21.9417
0.026396 1.98184 21.3395
-0.0267624 -0.190471 21.9686
0.00303127 0.42531 22.3252
0.182994 -0.45151 21.4374
0.0175089 -0.427958 21.6127
0.218315 -0.667368 21.0302
0.00905879 -0.645789 21.1361
0.0676256 -1.02016 20.5479
1.30094 -1.78335 19.377
0.677949 -0.682509 19.1766
0.660046 -0.484315 19.7113
0.842207 -0.886964 22.2739
1.61952 -1.40955 20.9678
0.0473725 0.0795597 21.9111
0.280768 -0.324418 21.8464
-0.361388 0.663354 21.4243
-0.230761 0.0740191 21.9443
-0.569291 1.16622 20.4936
-0.702608 0.615404 21.6918
-0.844918 1.2122 19.9046
-1.07781 1.58301 16.1758
-1.06242 0.770874 21.2399
-1.21434 1.44742 16.3859
-1.00285 1.0357 21.241
0.874186 -0.175327 18.6967
0.839643 -0.400021 19.4206
-1.75609 1.48775 12.2549
-1.43941 0.954886 7.18286
-1.69503 0.532152 19.2431
-1.25325 0.328322 12.5692
-1.45649 0.184331 20.5591
0.53263 0.57764 19.3236
0.896947 0.16328 19.2493
-1.61998 -1.03397 15.6517
-0.508599 -1.07894 21.3293
-1.35429 -0.673452 20.6693
-0.739724 -1.11533 19.9585
-0.856475 -0.669487 20.313
0.543063 0.90892 19.8461
0.402162 0.411871 19.9046
0.929564 1.31131 20.7895
0.829777 0.895913 20.338
0.686937 0.779978 21.9443
0.894053 0.722654 21.3903
0.0524398 -0.203075 21.9822
0.290991 0.0954038 21.9348
-0.137657 -0.470701 21.5153
-0.134483 -0.352793 21.6805
-0.190445 -0.60253 20.9792
-0.147624 -0.440045 21.4582
-0.263818 -0.571389 21.0227
0.994255 -0.536343 20.1901
0.682266 -0.26854 19.8494
0.746429 -0.487864 21.4857
1.50419 -0.695758 20.8314
0.0513956 -0.136292 21.7664
0.403276 -0.357328 21.6971
-0.403552 0.141255 21.8083
-0.143239 -0.0971459 21.8513
-0.769281 0.344669 21.5322
-0.718541 0.219808 21.7487
-0.842144 0.305769 21.0535
-0.915776 0.32133 21.4081
-1.37084 0.188353 20.7601
1.33223 -0.441143 19.9654
0.789704 -0.047953 19.6927
1.0461 -0.499823 21.5558
2.07396 -0.218063 20.6951
0.127546 -0.257714 21.814
0.69216 -0.421437 21.7664
-0.441966 -0.0367979 21.9228
-0.052233 -0.265785 21.9697
-1.04983 0.1661 21.6428
-0.860301 -0.161168 21.9048
-1.32365 0.319772 21.076
-1.2576 -0.153899 21.3497
-1.4849 -0.238515 21.4634
1.45896 0.210865 19.7849
0.572517 0.313398 19.8438
1.58314 -0.0659397 21.3884
1.30853 0.656204 20.4108
0.557313 -0.350624 21.9195
1.14715 0.230627 21.5146
-0.262029 -0.305713 21.9661
0.327423 -0.118605 21.9486
-0.902713 -0.422637 21.5918
-0.31576 -0.395771 21.7295
-1.01749 -0.480112 21.2996
-0.585975 -0.535658 21.3707
-0.611923 -0.564161 20.8153
0.599713 0.460886 20.172
0.814533 0.556841 20.9075
0.529427 0.241165 21.6473
0.0218471 -0.123275 21.6895
-0.214412 -0.322469 21.4681
-0.328948 -0.318849 21.08
-1.14857 -0.496684 20.0772
-1.78708 -1.92354 18.7994
-1.27637 -1.01086 19.9082
-1.98083 -0.92808 19.3211
-0.769834 -0.445169 19.5879
-2.28786 -1.59726 21.0083
-0.901669 -0.523499 21.5248
-0.646903 -0.537717 20.6496
-0.807687 -0.732667 21.7854
-1.16055 -0.929149 22.1673
-0.22245 -0.404437 21.9262
-0.0886753 -0.223798 21.7777
0.390705 0.131497 17.3429
-0.000506577 -0.121185 21.881
0.060084 -0.359536 21.2237
0.344833 -0.0311531 21.787
0.397298 0.0268619 21.7868
0.770238 0.614072 15.5933
0.490132 0.280586 21.8283
0.657815 0.0181699 19.713
0.922376 0.496217 20.9213
0.772471 0.242849 21.6543
0.622524 1.02266 15.5132
0.758984 0.573785 21.309
1.06393 0.464756 18.8237
1.30969 0.50932 20.8659
0.891486 0.127283 21.0423
1.19439 1.09805 15.6422
1.09889 0.703378 21.294
1.51402 0.542394 17.9189
1.19447 0.869082 21.267
-1.48881 -0.120336 19.8318
-2.82481 -0.538468 16.9717
-2.10917 0.51695 18.923
-0.943769 -0.113421 19.2863
-4.41381 -0.467932 20.7659
-1.32539 -0.371754 21.5849
-2.35809 -0.365164 21.9131
-0.589827 -0.748235 21.742
-0.272272 -0.367501 21.877
-0.759832 -0.832505 21.5659
0.214762 -0.246874 20.3294
0.384095 -0.182903 21.9544
0.41126 -0.181192 20.425
1.12032 0.215973 18.2423
0.989624 -0.114127 21.6672
-0.149815 1.69052 1.61576
1.14387 -0.374433 20.4025
1.54664 0.22392 18.4677
1.13492 -0.357985 21.7931
2.13138 0.332862 9.98049
1.72883 -0.371903 19.7145
1.24644 -0.202019 19.5896
-0.99004 0.525486 19.9465
-1.14709 1.43543 19.0345
-0.618399 0.712648 19.9867
-0.607221 0.434618 19.5856
-1.83643 1.38042 20.1688
-1.37271 0.493219 21.0657
-2.19931 2.10881 20.8248
-0.95701 0.957829 20.8395
-1.78228 0.606173 21.6487
-0.761717 0.0307765 21.8217
-1.88951 0.780876 22.5592
-0.647411 0.440812 21.7977
-0.472543 -0.0581139 22.2023
0.0644999 -0.223144 21.8676
0.193124 -0.441307 21.9215
0.0227821 -0.167704 21.8372
0.383056 -0.525794 21.8067
0.455899 -0.390234 21.5933
0.442783 -0.857924 21.5348
0.223627 -0.386323 21.4342
0.625305 -0.623271 21.2032
0.657115 -0.529761 21.0276
0.656871 -0.925657 20.4405
0.266954 -0.460878 21.1361
0.703923 -0.635639 21.8218
1.78274 -1.99717 18.7368
-0.0221399 -2.76497 18.7102
-0.0599011 -3.25096 15.7766
-0.027177 -0.884507 18.7543
0.0011809 -7.50257 23.5548
0.658017 -0.537596 20.6576
0.000559771 -1.61937 22.468
0.0046862 -0.16257 9.2971
-0.370595 0.13904 17.3133
0.00275504 -0.187854 19.435
0.0269153 0.12413 9.51098
-0.690833 0.648079 15.4074
0.0373137 0.450271 17.6141
0.313309 0.453076 7.53035
-0.660376 1.41355 15.9251
0.249764 0.60021 16.0007
0.937875 -0.339508 -2.02348
0.667728 0.677583 7.51475
-1.31413 1.43264 15.7465
-0.0122134 1.40262 13.2481
-0.163593 1.44899 5.04562
0.0138729 0.907962 9.25446
2.823 -0.55707 16.7951
-0.0411203 1.90897 14.9558
-0.0206175 -0.227881 18.1046
-0.112433 0.858876 3.3985
0.259229 -0.0254015 1.29357
-0.707113 -2.22537 -3.99626
-2.14042 0.614389 10.5241
-0.548211 -1.81563 3.87949
-0.108313 -0.310583 1.93388
1.15707 1.4227 19.0484
0.0122558 1.20428 19.6497
-5.04821e-05 0.763005 18.9963
0.0502296 3.87958 19.3355
2.20887 2.03407 20.8464
0.0276958 1.92168 20.6124
0.0427065 4.68303 21.077
1.89416 0.768446 22.5657
0.00970141 1.33162 22.1196
0.00624361 0.642785 22.1922
-0.151844 -0.463634 21.9693
0.0133413 -0.206004 22.0861
0.037384 -0.835729 18.6815
-0.396748 -0.956393 21.528
0.034061 -0.495541 21.7062
0.0575827 -1.18088 19.8599
-0.590812 -1.15241 20.0213
-0.0598422 -0.695716 20.9542
-0.0252042 -0.840045 20.5457
1.17285 -0.509494 20.077
1.28262 -1.03934 19.9116
1.99919 -0.967421 19.2681
0.773633 -0.466898 19.5541
2.30526 -1.6089 21.0183
0.900348 -0.531134 21.5253
0.818624 -0.741438 21.789
1.16374 -0.932187 22.1745
0.230157 -0.402999 21.9313
0.0950523 -0.220508 21.7885
0.00236173 -0.111984 21.8978
-0.0508307 -0.354753 21.2469
-0.333664 -0.0187212 21.8008
-0.410487 0.0513553 21.8371
-0.48633 0.323568 21.8694
-0.658556 0.0441288 19.8276
-0.996756 0.625386 20.949
-0.866942 0.303339 21.6017
-0.842417 0.752132 21.3191
-1.34757 0.568443 19.2591
-1.40744 0.689054 21.1117
-1.09286 0.278303 21.0903
-0.978605 0.868961 21.2638
-1.81953 0.618762 19.6403
-1.198 0.961721 20.8734
1.52483 -0.13532 19.8006
2.14202 0.534122 18.8679
0.942334 -0.110748 19.2352
4.43959 -0.467832 20.7702
1.33757 -0.371796 21.5924
2.35906 -0.365591 21.9175
0.595284 -0.747122 21.7639
0.275339 -0.365976 21.8901
0.764657 -0.834557 21.6037
-0.212256 -0.251384 20.3982
-0.398782 -0.18897 21.9951
-0.403269 -0.227679 20.5268
-1.2745 0.135567 18.6172
-1.09223 -0.160749 21.6351
-1.22855 -0.568364 20.5823
-1.7859 -0.149142 19.3188
-1.48039 -0.274193 21.0232
-1.32218 -0.707851 20.0424
-1.17276 -0.384564 19.505
0.980531 0.522547 19.9586
0.622537 0.686891 20.0056
0.607831 0.436147 19.5968
1.80741 1.31738 20.1881
1.35448 0.477381 21.0771
0.955261 0.907141 20.8492
1.75804 0.582879 21.6507
0.762794 0.0261714 21.8282
0.655523 0.43268 21.8005
0.484704 -0.0664259 22.2183
-0.0620019 -0.245936 21.8889
-0.00578951 -0.179408 21.8521
-0.371538 -0.577427 21.8339
-0.478096 -0.472435 21.5868
-0.183723 -0.415736 21.5098
-0.608935 -0.738361 21.3091
-0.629223 -0.510641 20.9277
-0.338282 -0.640237 20.9635
-0.613301 -0.7774 21.0791
-1.58755 -1.041 19.6476
-0.918753 -0.811648 21.9584
0.0959681 -0.203903 21.8467
0.670799 0.198951 21.3587
0.981021 0.569294 20.7688
1.33725 0.711733 21.9283
-2.33569 -0.310566 18.9319
-1.72025 -0.650385 22.4416
-0.074026 -0.53747 20.9038
0.505514 0.0119567 19.3199
1.16768 0.263561 18.1812
1.9429 0.00837576 18.0429
-1.17563 0.893263 19.5896
-1.89229 1.00513 21.0454
-1.19478 0.19834 22.1079
0.0875974 -0.310769 22.0719
0.492572 -0.637046 21.6073
0.558679 -0.57048 21.8998
-0.0408346 -3.34108 17.4825
0.00167721 -0.70113 12.3333
0.0141106 0.00191439 8.95951
0.0697038 0.392494 8.26281
0.792422 0.303817 7.21666
-0.0813228 1.61101 8.85572
-0.0644824 -0.842506 14.073
-0.404147 -0.790552 -1.7591
-0.64537 -0.320519 -1.22594
0.0119068 2.09636 18.3968
0.038272 3.60038 20.2286
0.0124092 2.83644 22.7105
0.0177059 -0.564515 19.7464
0.0430653 -0.970701 19.2896
-0.0206163 -1.37296 20.2019
1.62483 -1.08763 19.6154
0.925637 -0.811092 21.9622
-0.0834257 -0.198997 21.855
-0.666205 0.236014 21.3697
-1.14725 0.733607 20.8541
-1.43115 0.880346 21.2185
2.38524 -0.315377 18.8646
1.72323 -0.651476 22.451
0.0790788 -0.538442 20.9499
-0.519564 -0.00416884 19.4694
-1.46882 0.0809741 18.7615
-1.88022 -0.233978 19.5629
1.17418 0.877351 19.6072
1.86512 0.968905 21.0517
1.19477 0.18912 22.1123
-0.0745659 -0.333395 22.0982
-0.487843 -0.714612 21.6256
-0.729198 -0.847283 21.429
-1.10154 -0.292937 2.06087
-0.0366607 -0.192137 0.676108
-0.0765702 -0.117547 2.62443
0.0193325 0.0476269 0.111837
-0.00957991 0.0292768 0.146813
-0.0174488 0.0519382 0.502803
-2.20614 0.259564 3.35483
-0.0133029 0.0838267 0.114732
-0.370162 -0.0090665 1.11608
0.0352426 0.0270999 0.119597
0.0161015 0.0373704 -0.0441614
0.01022 0.00791679 0.0647339
0.0365076 -0.192711 0.678152
1.09951 -0.29138 2.05588
0.0771717 -0.115258 2.6224
0.0545045 0.0514354 0.19903
-0.0437994 0.040143 0.159318
0.0321923 0.0640994 0.532152
0.0129892 0.081994 0.112203
2.20277 0.260337 3.35816
0.366556 -0.0107033 1.10446
0.0546051 0.0131137 -0.0102993
-0.0337864 -0.00449366 0.13662
-0.00896904 0.00656243 0.0659295
0.0163053 -0.00258194 1.30605
0.0175015 -0.00617373 0.514439
0 0 0
0 0 0
0.0331758 0.0170925 0.334544
0.0147767 -0.000860349 0.270693
0 0 0
0.000296831 5.93837e-05 0.00562114
-0.0664275 -0.0840507 0.382458
0.000365139 0.00127316 0.037079
0.0393811 0.0645538 0.382679
-0.228242 0.116161 0.395658
0.0231016 0.0301196 0.135839
0.00181633 0.0109381 0.0530673
0.00516441 0.00782437 0.0273745
0.373404 0.291368 1.24576
-0.0157771 -0.00219428 1.30398
0 0 0
-0.0166898 -0.00543726 0.514952
0 0 0
-0.0291779 0.0171449 0.305207
-0.000255943 5.9432e-05 0.0056284
-0.0134112 -0.00019867 0.271113
0 0 0
0.0659229 -0.083661 0.381817
0.230979 0.111893 0.396427
-0.000365462 0.00128062 0.037157
-0.0392068 0.0642301 0.382767
-0.0225882 0.0294681 0.136097
-0.369326 0.28648 1.2465
-0.00180786 0.0108746 0.0535047
-0.00512571 0.00778288 0.0274819
-0.0247309 -0.0159553 0.190352
0 0 0
3.69354e-07 4.00269e-06 0.00472256
-0.000292423 -1.59652 0.756078
0 0 0
0.00241942 -0.000527921 0.0131679
0.000688631 0.00164329 0.0250167
-0.0134118 0.0455001 -0.00801468
0 0 0
0.0112852 0.00570396 -0.00170135
-0.00036809 0.0064313 0.14774
1.60952e-06 1.41528e-06 1.56232e-05
7.60638e-06 0.0353757 0.0143832
0 0 0
-2.65826e-06 -2.84739e-05 0.000243041
-0.00645384 0.00297495 0.0194129
0.00405321 0.00398435 -0.00106966
0 0 0
4.86296e-06 3.19269e-05 0.000206587
0.000165816 -0.000637364 0.0021939
0.177238 -0.062442 0.0124401
0.0267686 -0.017164 0.207121
-0.00240049 -0.000529111 0.0131738
0 0 0
0.0197754 0.018507 -0.00314529
-0.00169054 0.00173454 0.0357979
2.04875e-06 -3.1663e-06 -3.46399e-05
0.000345459 0.00693626 0.148681
0.00644627 0.0029551 0.0192936
2.78587e-06 -3.00211e-05 0.000255356
-7.38819e-05 -0.000630389 0.00215167
-1.61319e-05 0.000106405 0.000748353
-2.68568e-21 3.54387e-19 8.44561e-18
0.000577224 4.1058e-05 0.00580894
0 0 0
0 0 0
8.21805e-07 -7.76833e-06 0.0011922
8.77371e-05 0.000649496 0.0366346
0 0 0
0 0 0
0 0 0
8.30583e-05 0.000547065 0.00725904
0.00161014 0.00762039 0.0480639
-0.0217947 0.0595572 0.598981
2.12847e-05 0.00532235 0.0119074
7.02037e-06 0.00224387 0.0125287
9.71233e-05 0.00772671 0.0904667
0 0 0
-0.000551256 4.14637e-05 0.00581217
0 0 0
0 0 0
0 0 0
0 0 0
0 0 0
0.0231321 0.0586351 0.599748
-0.00160201 0.00758966 0.047968
-0.0356774 -0.0268197 0.31506
-0.0158436 -0.0214906 0.193642
-0.00227638 -0.000893696 0.0448912
-0.00279379 -0.0145226 0.219288
9.63779e-06 0.000367302 0.0158439
0.00105934 0.00920489 0.0822954
0 0 0
0.00203792 0.0104409 0.0634276
0.00252107 -0.00218936 0.173629