# vtk DataFile Version 2.0
tet_velo
ASCII
DATASET UNSTRUCTURED_GRID
POINTS 29498 float
-0.600889 0.145 -1.915
-0.815 0.225 1.70198
-0.735 0.675 -1.70577
-0.666416 0.805 1.815
0.605 0.145 -1.91657
0.824783 0.225 1.695
0.735 0.675 -1.70805
0.665515 0.805 1.815
-0.707307 0.136619 -0.70934
-0.786052 0.155911 0.49632
-0.806595 0.81279 -0.53218
-0.788663 0.861052 0.64141
0.713462 0.136465 -0.712713
0.794394 0.155461 0.491144
0.806514 0.813009 -0.5337
0.788358 0.861348 0.64065
-1.33618 -0.218431 -2.95243
-1.34686 -0.177917 -2.00077
-1.43238 -0.176525 -0.794486
-1.50715 -0.164926 0.418168
-1.53302 -0.11783 1.62498
-1.54187 -0.0929706 2.57923
-1.54964 -0.0767386 3.52858
-1.3417 0.0837042 -2.85902
-1.35455 0.140075 -1.91081
-1.45626 0.154068 -0.710516
-1.5244 0.163057 0.492689
-1.52989 0.197651 1.6936
-1.54522 0.220854 2.64751
-1.55773 0.238401 3.5979
-1.40317 0.664958 -2.6635
-1.45572 0.720637 -1.71409
-1.53491 0.817761 -0.535593
-1.53157 0.84766 0.640688
-1.45424 0.818056 1.81993
-1.51148 0.839931 2.77625
-1.55728 0.867341 3.73238
-1.46886 1.62229 -2.39334
-1.50112 1.68757 -1.44857
-1.54028 1.78497 -0.280087
-1.55485 1.83811 0.881729
-1.54921 1.83696 2.05083
-1.55843 1.83682 2.99689
-1.58075 1.85038 3.94954
-0.625878 -0.217171 -2.95549
-0.622035 -0.174801 -2.00487
-0.688462 -0.185927 -0.795458
-0.749803 -0.169585 0.420448
-0.777172 -0.103434 1.63004
-0.790662 -0.083991 2.58223
-0.799619 -0.0732273 3.52972
-0.623554 0.0802224 -2.86068
-0.809191 0.229237 2.65007
-0.81378 0.240852 3.59855
-0.671745 0.64516 -2.66071
-0.78127 0.836063 2.77467
-0.820733 0.865072 3.73113
-0.725478 1.60981 -2.39058
-0.748892 1.67641 -1.44539
-0.781121 1.78373 -0.278525
-0.801758 1.84174 0.880501
-0.806984 1.83568 2.04773
-0.818642 1.83327 2.99375
-0.839794 1.84716 3.94691
0.718701 -0.217172 -2.9575
0.680775 -0.174826 -2.00694
0.74311 -0.186068 -0.798685
0.802756 -0.169894 0.415798
0.816809 -0.103545 1.62436
0.758647 -0.084066 2.5777
0.720821 -0.0732981 3.52605
0.713129 0.080231 -2.86259
0.726857 0.22919 2.64574
0.696869 0.240793 3.59509
0.748054 0.645183 -2.66275
0.665744 0.836041 2.77253
0.660852 0.865035 3.72848
0.753784 1.60986 -2.3926
0.753212 1.67648 -1.44734
0.747201 1.78384 -0.280314
0.71763 1.84184 0.878892
0.678385 1.83573 2.04613
0.658188 1.83328 2.9919
0.642597 1.84715 3.94476
1.4137 -0.218426 -2.95659
1.38515 -0.177946 -2.00514
1.4678 -0.176704 -0.800326
1.55325 -0.165326 0.410382
1.57075 -0.118091 1.61596
1.52524 -0.0931428 2.57114
1.48373 -0.076884 3.52154
1.40435 0.0837329 -2.863
1.35572 0.140104 -1.91473
1.45768 0.153975 -0.715892
1.54322 0.162684 0.485454
1.54821 0.197429 1.68501
1.49614 0.220717 2.63993
1.45939 0.238276 3.59124
1.44981 0.665026 -2.66751
1.44545 0.720748 -1.718
1.52151 0.817984 -0.53935
1.52965 0.847799 0.637036
1.44687 0.817985 1.81629
1.42553 0.83986 2.77146
1.41533 0.86726 3.72704
1.48814 1.6224 -2.39739
1.49484 1.68772 -1.4525
1.50073 1.78515 -0.283798
1.47615 1.83828 0.878246
1.43121 1.83703 2.04732
1.40614 1.83683 2.99297
1.39005 1.85036 3.94513
-0.694222 0.41 -1.83666
0.0020555 0.138109 -1.92268
-0.68735 0.107558 -1.31217
-0.763893 0.515 1.78167
0.00489151 0.240301 1.68319
-0.79097 0.200012 1.09915
0 0.756172 -1.78808
-0.812351 0.785448 -1.11898
-0.000450492 0.907297 1.9173
-0.766877 0.872363 1.22821
0.696089 0.41 -1.8384
0.692546 0.107418 -1.31464
0.768144 0.515 1.778
0.799704 0.200115 1.09307
0.81258 0.785828 -1.12088
0.765841 0.872079 1.22783
-0.743945 0.149 -0.10651
-0.875595 0.474705 -0.62076
0.0030778 0.104679 -0.711027
-0.864641 0.508482 0.568865
0.00417125 0.121138 0.493732
-0.804839 0.844131 0.054615
-4.09141e-05 1.0094 -0.53294
-0.00015254 1.24141 0.64103
0.751073 0.148819 -0.110785
0.878116 0.474737 -0.623207
0.866873 0.508404 0.565897
0.804564 0.844307 0.053475
-0.873907 0.442352 -1.21557
-0.880248 0.491593 -0.0259475
-0.897891 0.511741 1.16368
0.00256665 0.111272 -1.31341
0.00362453 0.119892 -0.108647
0.00453138 0.1796 1.09611
0.00102775 0.41 -2.04457
0.00222051 0.515 2.03074
-2.0457e-05 0.912876 -1.11993
-9.6727e-05 1.26979 0.054045
-0.000301516 1.0965 1.22802
0.872417 0.442368 -1.21776
0.88255 0.491571 -0.028655
0.897894 0.511702 1.16045
-0.977719 0.142538 -1.91291
-0.611462 -0.0149005 -1.95994
-0.612221 0.112611 -2.38784
-1.17245 0.211326 1.69779
-0.796086 0.0607828 1.66601
-0.812095 0.227119 2.17602
-1.09536 0.697819 -1.70993
-0.703372 0.66008 -2.18324
-0.741946 1.1757 -1.57558
-1.06033 0.811528 1.81747
-0.723843 0.820531 2.29483
-0.7367 1.32034 1.93136
0.642887 -0.0149132 -1.96175
0.659065 0.112615 -2.38958
0.980362 0.142552 -1.91565
0.820796 0.0607277 1.65968
0.77582 0.227095 2.17037
1.18649 0.211215 1.69001
0.741527 0.660092 -2.1854
0.744106 1.17574 -1.57769
1.09022 0.697874 -1.71302
0.665629 0.820521 2.29377
0.67195 1.32037 1.93057
1.05619 0.811493 1.81565
-1.08178 0.145344 -0.709928
-0.697884 -0.0246542 -0.752399
-1.15523 0.159484 0.494505
-0.767927 -0.00683679 0.458384
-1.17075 0.815275 -0.533887
-0.793858 1.29826 -0.405353
-1.16011 0.854356 0.641049
-0.79521 1.35139 0.760956
0.728286 -0.0248015 -0.755699
1.08557 0.14522 -0.714303
0.798575 -0.00721671 0.453471
1.1688 0.159073 0.488299
0.776857 1.29842 -0.407007
1.16401 0.815496 -0.536525
0.752994 1.35159 0.759771
1.159 0.854573 0.638843
-1.34152 -0.198174 -2.4766
-1.33894 -0.0673633 -2.90572
-0.981031 -0.217801 -2.95396
-1.38962 -0.177221 -1.39763
-1.3507 -0.0189211 -1.95579
-0.984446 -0.176359 -2.00282
-1.46976 -0.170726 -0.188159
-1.44432 -0.0112287 -0.752501
-1.06042 -0.181226 -0.794972
-1.52008 -0.141378 1.02158
-1.51577 -0.000934736 0.455428
-1.12848 -0.167256 0.419308
-1.53745 -0.1054 2.1021
-1.53146 0.0399104 1.65929
-1.1551 -0.110632 1.62751
-1.54575 -0.0848546 3.0539
-1.54355 0.0639416 2.61337
-1.16627 -0.0884808 2.58073
-1.55368 0.080831 3.56324
-1.17463 -0.0749829 3.52915
-1.34813 0.11189 -2.38492
-1.37244 0.374331 -2.76126
-0.982629 0.0819633 -2.85985
-1.4054 0.147072 -1.31066
-1.40513 0.430356 -1.81245
-1.49033 0.158562 -0.108914
-1.49558 0.485914 -0.623055
-1.52715 0.180354 1.09314
-1.52798 0.505358 0.566689
-1.53756 0.209252 2.17055
-1.49206 0.507854 1.75677
-1.55148 0.229627 3.12271
-1.52835 0.530392 2.71188
-1.17721 0.225046 2.64879
-1.5575 0.552871 3.66514
-1.18576 0.239626 3.59822
-1.42944 0.692798 -2.18879
-1.43601 1.14362 -2.52842
-1.03746 0.655059 -2.66211
-1.49531 0.769199 -1.12484
-1.47842 1.20411 -1.58133
-1.53324 0.83271 0.0525477
-1.5376 1.30136 -0.40784
-1.4929 0.832858 1.23031
-1.54321 1.34289 0.761208
-1.48286 0.828993 2.29809
-1.50172 1.32751 1.93538
-1.53438 0.853636 3.25431
-1.53495 1.33837 2.88657
-1.14637 0.837997 2.77546
-1.56901 1.35886 3.84096
-1.189 0.866206 3.73175
-1.48499 1.65493 -1.92096
-1.09717 1.61605 -2.39196
-1.5207 1.73627 -0.864327
-1.125 1.68199 -1.44698
-1.54757 1.81154 0.300821
-1.1607 1.78435 -0.279306
-1.55203 1.83754 1.46628
-1.1783 1.83993 0.881115
-1.55382 1.83689 2.52386
-1.1781 1.83632 2.04928
-1.56959 1.8436 3.47322
-1.18853 1.83504 2.99532
-1.21027 1.84877 3.94823
-0.623957 -0.195986 -2.48018
-0.624716 -0.0684745 -2.90809
0.0464116 -0.217172 -2.9565
-0.655248 -0.180364 -1.40017
0.0293699 -0.174814 -2.0059
-0.719132 -0.177756 -0.187505
0.0273243 -0.185998 -0.797071
-0.763487 -0.13651 1.02524
0.0264767 -0.16974 0.418123
-0.783917 -0.0937127 2.10614
0.0198188 -0.103489 1.6272
-0.795141 -0.0786091 3.05598
-0.799927 0.0726232 2.61615
-0.0160078 -0.0840285 2.57997
-0.8067 0.0838122 3.56413
-0.0393993 -0.0732627 3.52789
-0.647649 0.362691 -2.7607
0.0447878 0.0802267 -2.86164
-0.811486 0.235045 3.12431
-0.79523 0.53265 2.71237
-0.0411671 0.229214 2.64791
-0.817257 0.552962 3.66484
-0.0584555 0.240822 3.59682
-0.698612 1.12748 -2.52565
0.0381545 0.645172 -2.66173
-0.801002 0.850567 3.2529
-0.799956 1.33467 2.88421
-0.0577633 0.836052 2.7736
-0.830264 1.35612 3.83902
-0.0799406 0.865053 3.7298
-0.737185 1.64311 -1.91799
0.0141529 1.60983 -2.39159
-0.765006 1.73007 -0.861958
0.00216007 1.67644 -1.44636
-0.791439 1.81274 0.300988
-0.01696 1.78379 -0.27942
-0.804371 1.83871 1.46411
-0.042064 1.84179 0.879697
-0.812813 1.83448 2.52074
-0.0642995 1.83571 2.04693
-0.829218 1.84022 3.47033
-0.0802266 1.83328 2.99282
-0.0985987 1.84716 3.94583
0.699738 -0.195999 -2.48222
0.715915 -0.0684704 -2.91005
1.0662 -0.217799 -2.95705
0.711942 -0.180447 -1.40281
1.03296 -0.176386 -2.00604
0.772933 -0.177981 -0.191444
1.10545 -0.181386 -0.799506
0.809783 -0.136719 1.02008
1.178 -0.16761 0.41309
0.787728 -0.0938052 2.10103
1.19378 -0.110818 1.62016
0.739734 -0.078682 3.05188
0.742752 0.072562 2.61172
1.14194 -0.0886044 2.57442
0.708845 0.0837473 3.56057
1.10228 -0.075091 3.5238
0.730592 0.362707 -2.76267
1.05874 0.0819819 -2.8628
0.711863 0.234991 3.12042
0.6963 0.532616 2.70914
1.1115 0.224953 2.64284
0.678861 0.552914 3.66178
1.07813 0.239534 3.59317
0.750919 1.12752 -2.52767
1.09893 0.655105 -2.66513
0.663298 0.850538 3.2505
0.661966 1.33466 2.88222
1.04564 0.83795 2.772
0.651724 1.35609 3.83662
1.03809 0.866148 3.72776
0.753498 1.64317 -1.91997
1.12096 1.61613 -2.39499
0.750207 1.73016 -0.863826
1.12403 1.6821 -1.44992
0.732415 1.81284 0.299289
1.12397 1.7845 -0.282056
0.698007 1.83879 1.46251
1.09689 1.84006 0.878569
0.668287 1.83451 2.51902
1.0548 1.83638 2.04673
0.650393 1.84022 3.46833
1.03216 1.83506 2.99244
1.01632 1.84876 3.94494
1.39943 -0.198186 -2.48087
1.40903 -0.0673467 -2.9098
1.42647 -0.177325 -1.40273
1.37044 -0.0189207 -1.95993
1.51052 -0.171015 -0.194972
1.46274 -0.0113643 -0.758109
1.562 -0.141708 1.01317
1.54823 -0.00132083 0.447918
1.54799 -0.105617 2.09355
1.55948 0.0396692 1.65049
1.50449 -0.0850134 3.04634
1.51069 0.0637869 2.60553
1.47156 0.0806959 3.55639
1.38004 0.111919 -2.38887
1.42708 0.374379 -2.76526
1.4067 0.14704 -1.31531
1.40059 0.430426 -1.81636
1.50045 0.15833 -0.115219
1.48959 0.48598 -0.627621
1.54571 0.180057 1.08523
1.53643 0.505242 0.561245
1.52218 0.209073 2.16247
1.49754 0.507707 1.75065
1.47777 0.229496 3.11559
1.46084 0.530288 2.7057
1.43736 0.552768 3.65914
1.44763 0.692887 -2.19276
1.46898 1.14371 -2.53245
1.48348 0.769366 -1.12867
[...]
POINT_DATA 29498
VECTORS point_vectors float
-0.157168 -2.83407 4.38338
0.210295 0.374987 1.80426
-0.804556 0.575815 1.30538
-0.0659314 -0.0972307 0.0882091
0.268488 -3.08651 4.48507
-0.270225 0.445278 2.29591
0.959399 0.696516 1.55998
0.0671933 -0.0947349 0.0838647
0.000243596 0.000943451 0.017786
0.0527133 -0.0175986 0.458286
-0.0136406 -0.0174711 0.0873297
0.00997848 0.0156053 0.0488746
-0.00108776 0.00168442 0.0365358
-0.0279471 -0.00355514 0.246695
0.01456 -0.018519 0.094403
-0.0151779 0.0241006 0.076861
-0.642856 -0.355501 19.7502
-1.39802 -0.973076 20.3263
-0.51927 -0.568375 21.4125
0.0544709 -0.223956 21.4628
0.552794 0.0100714 21.4128
0.873871 0.120178 21.149
0.814103 0.125243 21.1601
-0.855999 -0.282947 19.5962
-2.17634 -0.887143 20.2904
-0.710836 -0.616444 21.4878
-0.019572 -0.345585 21.5158
0.673955 -0.162774 21.5378
0.989821 -0.0723688 21.179
0.914092 -0.215073 21.3272
-1.08028 0.134489 19.558
-2.20459 0.200688 20.5216
-1.10542 -0.277409 21.3638
-0.277819 -0.356568 21.6094
0.566039 -0.571137 21.5158
0.82549 -0.583861 21.14
0.781526 -0.577103 20.9082
-0.722767 0.52929 20.0153
-0.973352 0.635869 20.5701
-0.790072 0.318671 21.1539
-0.290485 -0.0672729 21.3786
0.0447387 -0.333168 21.2137
0.245888 -0.454782 21.0769
0.295773 -0.610787 20.7055
-0.545527 -0.707242 19.2032
-1.67291 -3.78282 20.1399
-0.127322 -0.378242 21.8167
0.272324 0.149821 20.5421
0.828901 0.984118 19.4893
1.15724 1.36083 19.3724
1.24901 1.27615 19.8673
-0.818196 -0.694419 18.6233
1.55267 1.09412 11.7786
1.9705 0.959717 14.3113
-1.37019 0.432943 17.938
0.788674 -0.983912 8.90838
1.19632 -0.841117 13.3521
-0.709308 1.17321 19.5489
-1.05406 1.67251 20.4347
-1.14114 1.35487 21.331
-0.406312 0.141044 21.7304
-0.126202 -0.382088 21.3691
0.0376565 -0.634698 21.1429
-0.0472393 -0.581775 20.5176
0.596835 -0.674776 19.2673
1.77544 -3.54609 20.0805
0.107123 -0.417104 21.7893
-0.309012 0.110553 20.7074
-0.867733 0.917195 19.7147
-1.10294 1.41199 19.2543
-1.17662 1.45041 19.4825
0.863269 -0.609496 18.7851
-1.36399 1.25717 10.3171
-1.94461 1.2282 13.171
1.39425 0.388847 18.1438
-0.394456 -1.01615 4.5606
-0.982657 -0.801974 8.61162
0.723826 1.14785 19.568
1.05707 1.66485 20.4344
1.13496 1.42972 21.325
0.403268 0.164146 21.7627
0.145801 -0.351181 21.3796
0.0344315 -0.615776 21.2129
-0.054473 -0.5678 20.8654
0.62612 -0.320342 19.7859
1.35451 -0.910431 20.3406
0.534803 -0.54961 21.3831
-0.0380072 -0.22214 21.4374
-0.532501 -0.00599194 21.4222
-0.890663 0.130748 21.1574
-0.861782 0.144997 21.1232
0.83986 -0.262753 19.6505
2.16974 -0.882525 20.2852
0.724196 -0.620712 21.4815
0.0278428 -0.338621 21.5028
-0.650718 -0.164785 21.5254
-1.05624 -0.0562421 21.1675
-1.11111 -0.167011 21.0814
1.04045 0.110527 19.6105
2.23761 0.215119 20.5122
1.13705 -0.28061 21.3699
0.278704 -0.35894 21.6156
-0.57012 -0.579708 21.5126
-0.910303 -0.674681 21.1525
-0.899389 -0.561748 20.8444
0.716544 0.517637 20.0268
0.975281 0.640941 20.5691
0.811672 0.353575 21.1649
0.312848 -0.050678 21.4115
-0.0298062 -0.359749 21.2367
-0.210912 -0.501847 21.0429
-0.371666 -0.5483 20.4446
-0.128936 -0.0191754 0.129816
0.00308083 -0.194634 0.874758
-0.0187637 0.00584279 0.214301
0 0 0
0.00146938 0.00521191 0.0390094
0.0340545 0.00613617 0.329993
-6.32386e-05 0.0445584 0.103638
-0.0209694 -0.0157346 0.11781
-0.000557427 0.0259688 -0.0380971
0 0 0
0.136906 -0.0181457 0.133378
0.0236478 0.00876676 0.3141
0 0 0
-0.0453951 -0.00165377 0.503472
0.0160568 -0.0118794 0.0910579
0 0 0
0.000243597 0.00130515 0.0612381
-4.43256e-05 -0.00235185 0.0205316
-0.000236553 0.000887676 0.076467
0 0 0
-0.000325784 -0.00033913 0.0703032
0.0125987 0.0336504 0.148471
6.34016e-06 0.0114205 0.0313581
-1.92073e-06 -0.000976401 0.00866063
-0.000404015 0.00251051 0.0933506
0.000777515 -0.00520096 0.0545958
0 0 0
-0.0125703 0.0333848 0.151018
-0.00072748 -0.000327942 0.0206613
-0.000155671 0.00104091 0.0275545
7.21699e-05 0.000600641 0.0114005
-1.31044e-19 -2.81349e-20 5.28508e-17
-0.000374545 7.46289e-05 0.0492613
0.00152041 0.00478709 0.0130859
-0.00276714 -0.59497 0.518087
0 0 0
7.19461e-05 0.0233641 0.193589
9.41926e-05 0.0142898 0.082316
1.41554e-07 -1.12074e-06 3.96339e-06
0.00173017 -0.000866517 0.0416265
5.09973e-05 0.00106743 0.0295329
-6.77931e-05 0.000556218 0.0101754
-4.36115 -2.80033 19.5735
-2.46371 -6.21655 20.1589
-2.17279 -2.16811 17.1536
1.14484 0.0174489 20.1939
0.876603 0.986609 14.204
1.06624 0.927111 8.79683
-4.43589 0.936195 20.4192
-4.01465 2.08256 16.1201
-2.39218 2.96079 20.3934
1.06828 -0.550957 17.3066
-0.370988 -1.19529 3.84946
0.0244631 -0.655525 17.5619
2.59525 -5.9123 20.0637
2.21931 -1.99626 17.3805
4.35936 -2.77195 19.5883
-0.90747 0.966076 14.6868
-0.935849 0.909272 7.61097
-1.11968 -0.0138011 20.4607
3.97252 1.84789 16.4732
2.39388 2.95082 20.3894
4.4801 0.946821 20.423
0.664144 -1.01325 2.32269
0.000971025 -0.609229 15.9066
-1.06674 -0.548688 17.1703
-0.368387 -0.971477 20.6609
0.0161935 0.224217 14.9932
0.188928 -0.436542 20.3235
0.35785 0.171237 14.8438
-1.73461 -0.77643 21.4444
-3.00561 1.83661 21.1839
-0.32267 -0.690764 20.7032
-0.570053 -0.0747836 20.8249
-0.0833595 0.168627 15.7186
0.419858 -1.00079 20.7199
-0.364006 0.155013 15.3484
-0.179078 -0.452949 20.62
3.02272 1.92552 21.1655
1.76274 -0.785249 21.3749
0.407604 -0.037777 19.8062
0.316386 -0.690575 20.6521
-1.02592 -0.636562 19.8482
-0.74633 -0.33211 19.6783
-0.656972 -0.532581 19.4847
-1.09161 -0.886904 21.1746
-1.78823 -0.979257 20.2854
-1.88788 -2.1107 20.1738
-0.175756 -0.366888 21.4357
-0.620594 -0.609852 21.4475
-0.286353 -0.714779 21.7177
0.301133 -0.0980237 21.5079
0.00820222 -0.301526 21.4719
0.237167 -0.231782 21.6295
0.751155 0.0912487 21.2859
0.600273 -0.0762601 21.4437
0.879188 0.267161 21.5121
0.927158 0.113402 21.0455
0.923848 0.0351264 21.1726
1.22163 0.537944 20.8818
0.852747 -0.00711513 21.2745
1.2844 0.621605 20.6244
-1.51832 -0.538929 19.6535
-1.01363 -0.132956 19.5336
-0.937845 -0.462086 19.1574
-1.49093 -0.828032 21.3539
-2.41901 -0.34547 20.3968
-0.318079 -0.484061 21.4987
-0.944258 -0.512021 21.434
0.290383 -0.248308 21.5836
-0.159635 -0.402376 21.5829
0.877078 -0.0982712 21.3291
0.678161 -0.35768 21.557
1.03199 -0.0595138 20.8918
0.984958 -0.347717 21.1692
1.57211 0.161749 20.374
0.982696 -0.50346 21.2924
1.61762 0.140104 19.9108
-1.79728 0.215909 19.7552
-0.993384 0.453267 19.7436
-1.40954 0.212469 18.8989
-1.62272 -0.0886738 21.2052
-1.53059 0.617187 20.5344
-0.711232 -0.360041 21.5412
-1.10239 0.112266 21.2566
0.125301 -0.425611 21.6544
-0.343331 -0.209671 21.5268
0.717606 -0.579251 21.3077
0.205276 -0.512658 21.3456
0.865313 -0.514835 21.0386
0.405681 -0.621651 21.103
1.23493 -0.917807 19.8898
0.358424 -0.487274 20.8542
0.951935 -0.755958 20.5903
-0.890517 0.64731 20.2531
-0.801248 0.839845 19.78
-0.932642 0.507401 20.8928
-1.13596 1.09107 20.5185
-0.555377 0.132398 21.3484
-1.0174 0.713542 21.2618
-0.0829932 -0.216328 21.3261
-0.354502 0.00357442 21.5412
0.12793 -0.407551 21.1177
-0.00970114 -0.399918 21.2749
0.206552 -0.417629 20.8741
0.161146 -0.573778 20.9434
0.256509 -0.430844 20.5839
-1.13841 -1.77861 18.8467
-0.66614 -0.72295 18.9194
0.053131 -0.916194 18.9089
-0.586505 -1.66516 22.5696
0.0742121 -5.02056 20.6364
0.0974877 -0.0102242 21.0036
0.0176766 -0.560065 20.6087
0.598211 0.576569 19.9434
-0.00582662 0.0722681 18.1492
0.968823 1.26164 19.4943
-0.0325266 0.946953 16.2604
1.28505 1.4256 19.6903
1.38165 1.39523 16.7478
0.0155931 1.39889 16.8226
1.60849 1.26123 17.4004
0.0707349 2.03912 18.2409
-1.19088 -0.287721 18.0558
0.0796503 -0.865132 18.0888
1.93845 1.35087 13.6677
1.43656 -0.323037 7.26171
0.0404495 0.716721 5.37467
2.06788 0.195991 12.7183
0.168515 1.74855 9.62492
-1.14096 1.27382 18.7245
0.103337 0.754771 16.7684
1.77094 -1.22908 11.5656
0.222892 -1.04205 18.9392
0.0713089 1.28101 -4.15208
0.423853 -0.920978 19.2718
0.462169 1.34301 -0.948906
-0.933755 1.59719 19.9369
0.0144447 1.56085 19.3012
-1.12484 1.50566 20.82
0.00435348 2.36269 20.3211
-0.819082 0.770012 21.8088
-0.0399119 2.49706 21.3405
-0.204071 -0.209775 21.4885
-0.0363498 0.425851 21.9433
-0.0589605 -0.510518 21.2903
-0.0340453 -0.137897 21.46
0.0677536 -0.638613 20.9646
-0.0299167 -0.474836 21.2627
-0.0496888 -0.435253 20.9331
1.19405 -1.66458 18.9505
0.722426 -0.670396 19.0422
0.648082 -0.473141 19.5758
0.676059 -1.70708 22.5201
1.83747 -1.86444 20.1715
-0.132164 -0.065619 21.1316
0.345977 -0.726223 21.6549
-0.629592 0.516075 20.2232
-0.207617 -0.25717 21.6246
-0.973207 1.26071 19.5032
-0.84423 0.221851 21.5523
-1.22376 1.54402 19.5011
-1.23457 1.51611 15.8816
-1.24235 0.582149 20.7989
-1.52915 1.47463 16.9027
-1.39736 0.730508 20.4915
1.19693 -0.261821 18.2912
0.927198 -0.440408 19.2684
-1.82931 1.57476 12.4166
-1.20175 -0.179462 4.4946
-1.65711 0.28624 19.2838
-2.21521 0.567422 9.69159
-1.73385 0.323298 19.1496
1.19115 1.19851 18.8123
1.3855 0.194049 18.9892
-1.45919 -1.13436 7.01683
-0.140142 -1.01643 16.9951
-1.31139 -0.926873 18.1997
-0.262154 -0.911572 18.2111
-1.08517 -0.806787 17.994
0.942428 1.57152 19.9412
0.799216 0.810757 19.7935
1.11609 1.53188 20.8159
1.13525 1.09257 20.516
0.810951 0.824104 21.8505
1.0394 0.762636 21.2698
0.215861 -0.186549 21.5354
0.370371 0.0301671 21.5891
0.0886051 -0.480232 21.3203
0.0452161 -0.408455 21.3091
0.0100258 -0.654545 20.8881
-0.151435 -0.669104 20.9694
-0.0681497 -0.600088 20.9967
0.994039 -0.59129 19.8914
0.729352 -0.313116 19.729
1.07052 -0.837174 21.1408
1.74126 -0.931725 20.2888
0.187231 -0.353718 21.4195
0.638337 -0.603176 21.4253
-0.276353 -0.111499 21.4934
0.00596116 -0.295443 21.4511
-0.743372 0.0895572 21.2882
-0.57435 -0.0715268 21.4347
-0.949528 0.147015 21.0608
-0.966518 0.0566585 21.1714
-0.992569 0.0151213 21.1889
1.48284 -0.509099 19.6868
0.987852 -0.126944 19.5934
1.48768 -0.827248 21.3415
2.43563 -0.346494 20.392
0.330173 -0.479092 21.4946
0.958268 -0.518625 21.435
-0.280043 -0.245853 21.5672
0.162473 -0.399239 21.5756
-0.889855 -0.0974525 21.3381
-0.665014 -0.357637 21.5648
-1.11587 -0.0687074 21.0064
-1.0759 -0.392251 21.1879
-1.10564 -0.477629 21.0647
1.76381 0.199402 19.7769
0.972264 0.426871 19.7697
1.64672 -0.086289 21.2108
1.54388 0.628033 20.5309
0.723434 -0.367375 21.5513
1.1403 0.135216 21.2658
-0.125387 -0.431383 21.6574
0.366068 -0.213832 21.5572
-0.756474 -0.64206 21.2851
-0.190735 -0.542231 21.3785
-1.00029 -0.596201 21.2402
-0.414497 -0.745752 21.1647
-0.389065 -0.605547 20.9626
0.887669 0.641109 20.2545
0.941535 0.52585 20.8925
0.58295 0.162924 21.3746
0.101217 -0.220664 21.3551
-0.114148 -0.439327 21.1453
-0.169226 -0.454292 20.8569
-1.26913 -0.633194 19.7569
-1.54767 -2.03878 18.172
-1.23888 -1.14795 19.4102
-2.0359 -1.10445 18.7779
-0.794344 -0.529762 19.3414
-2.80586 -2.50904 19.9498
-1.29086 -0.881448 21.2836
-0.41078 -0.69122 18.1131
-1.08418 -1.53785 21.7206
-1.71333 -1.88285 22.3554
-0.232629 -0.854994 21.6914
-0.258897 -0.439344 21.4532
0.216344 0.210226 14.5735
0.0321995 -0.42122 21.6216
-0.0306177 -0.666037 19.9837
0.272008 -0.361945 21.336
0.289772 -0.184671 21.5404
0.807562 0.584763 13.7266
0.536554 -0.0321819 21.6485
0.518636 -0.307421 19.9119
1.05223 0.169371 21.0407
0.812438 0.00928527 21.2889
1.07832 1.33837 15.2747
1.09241 0.447474 21.3187
1.44211 0.0918134 20.4195
1.4489 0.39555 20.7516
1.00211 0.0516289 20.9804
1.58842 1.49027 17.1862
1.30508 0.541309 20.7543
1.59573 0.183293 20.1325
1.43169 0.466992 20.6369
-1.73796 -0.242142 19.6285
-3.65643 -0.591342 15.5425
-2.9018 0.657968 18.7456
-1.22196 -0.187674 18.9195
-5.7279 -0.734257 19.8322
-1.64682 -0.475977 21.3617
-2.44293 -0.223092 21.8788
-0.925947 -0.966479 20.7665
-0.511857 -0.490374 21.5447
-1.05888 -0.906866 20.9782
0.0389052 -0.480593 19.3935
0.219994 -0.363402 21.6535
0.314877 -0.317115 19.2768
1.21849 -0.19403 17.6569
0.894599 -0.346349 21.3252
0.351565 -0.950256 2.87483
1.07535 -0.834454 18.8917
1.60249 -0.383473 19.6353
1.07367 -0.351239 20.9256
2.10343 -0.0926688 10.7157
1.21338 -0.785663 20.2678
1.57879 -0.255507 18.9022
-1.37944 0.622016 20.034
-1.99127 2.51929 18.9636
-1.02368 1.07606 20.0799
-1.16533 0.767804 19.3144
-2.12953 1.36935 20.4986
-1.33585 0.343213 20.9949
-2.31691 1.81468 20.9539
-1.13 0.906994 20.8905
-1.8207 0.429245 21.3866
-0.756842 -0.0635476 21.4962
-2.32124 0.786809 22.2583
-0.712957 0.36097 21.5471
-0.544186 -0.201908 21.8468
-0.0411534 -0.36885 21.4835
-0.0309252 -0.505985 19.1831
-0.134233 -0.24164 21.4312
0.0925543 -0.758427 21.4287
0.326408 -0.568875 21.2255
0.0737592 -0.850599 18.4347
0.0847728 -0.486116 21.1657
0.378124 -0.932099 21.2212
0.375348 -0.639766 20.9652
0.350059 -1.34221 19.4392
0.21628 -0.560855 20.8703
0.35555 -0.74625 21.0729
1.59532 -1.88505 18.363
0.0984844 -2.50146 18.3066
0.0953204 -3.38695 15.439
0.0507138 -0.939555 18.5181
0.0462426 -7.5727 22.1599
0.433531 -0.673546 18.1943
0.0410314 -1.87201 22.6436
0.00184234 -0.0926427 11.3582
-0.250273 0.187793 15.1439
2.34281e-05 -0.13575 19.0636
-0.0091009 0.0619605 10.063
-0.846318 0.55903 14.2156
-0.0266906 0.582631 17.0379
0.0153193 0.681763 8.43268
-1.02163 1.35715 15.0547
-0.00499759 1.16788 16.6353
0.00156158 0.204773 2.69632
0.0322309 1.22353 11.5992
-1.49312 1.66296 16.7722
0.023844 1.60397 17.1488
0.0863849 0.918886 6.70317
0.117336 2.1156 14.623
3.60869 -0.567545 15.9654
0.142817 5.05592 12.539
0.118834 -0.375657 17.1774
-0.150106 -0.962615 1.9177
-0.0561972 0.436217 -3.19268
0.0738693 0.551421 -1.16427
-1.91529 0.172661 7.4693
0.473673 1.38844 -4.56164
0.359188 1.33457 2.03459
2.03946 2.42559 18.9862
0.0127436 2.19363 19.7506
0.0586635 1.86611 18.0444
0.00435582 4.5538 20.1773
2.31339 1.8488 20.9514
-0.0160088 2.33242 20.662
-0.0390053 4.7765 19.6509
2.39974 0.875761 22.2226
-0.0405773 1.47985 22.201
-0.0288646 0.153658 16.8987
-0.0797959 -0.462028 17.9993
-0.0343277 0.0233281 21.6938
-0.0940482 0.148854 7.4458
0.053427 -0.767535 16.5546
-0.0365958 -0.256321 21.5253
-0.240475 0.173664 6.81007
-0.207578 -1.28414 18.2085
-0.0178263 -0.48232 20.9477
-0.194718 -0.585432 10.8401
1.2289 -0.599936 19.8029
1.19238 -1.01768 19.5257
1.97358 -1.01746 18.91
0.788803 -0.479158 19.4248
2.71041 -2.34471 20.0178
1.27907 -0.85077 21.2478
1.10806 -1.43342 21.6273
1.68907 -1.86333 22.3224
0.299124 -0.87561 21.717
0.274706 -0.430466 21.4352
0.0125228 -0.439327 21.6156
0.0627911 -0.693229 20.2333
-0.239644 -0.374839 21.4616
-0.271223 -0.183641 21.5114
-0.506409 -0.0583377 21.6401
-0.507881 -0.317199 20.1808
-1.00989 0.129093 21.1506
-0.808762 0.0145178 21.2935
-1.08094 0.434263 21.3515
-1.47989 0.124369 20.0933
-1.48993 0.475497 20.6027
-1.0756 0.0640521 21.0346
-1.3401 0.604095 20.7222
-1.79716 0.266876 19.0718
-1.55846 0.608174 20.4113
1.67314 -0.242421 19.67
2.78323 0.594455 18.8689
1.18749 -0.177661 19.0746
5.73228 -0.741816 19.8573
1.66272 -0.482278 21.3603
2.46517 -0.231144 21.8582
0.956866 -0.961493 20.7754
0.518571 -0.490504 21.5451
1.06502 -0.910344 20.9156
-0.0411091 -0.491663 19.5588
-0.217313 -0.359911 21.6465
-0.31718 -0.308643 19.1897
-1.21077 -0.205272 17.8506
-0.930858 -0.370145 21.3636
-1.11388 -0.797307 17.9003
-1.70413 -0.316669 17.5628
-1.16378 -0.362144 21.0499
-1.44863 -0.952187 17.3562
-1.82715 -0.220192 17.6804
1.36152 0.60258 20.0419
1.02223 1.06056 20.0817
1.16197 0.732138 19.3553
2.13457 1.37891 20.4943
1.36031 0.364579 20.9968
1.13521 0.931392 20.8857
1.87304 0.465543 21.3845
0.795482 -0.053219 21.5184
0.740844 0.415898 21.5834
0.575701 -0.204074 21.8818
0.0441514 -0.389465 21.5189
0.156203 -0.235958 21.4595
-0.0327005 -0.795487 21.4147
-0.316176 -0.627465 21.2425
-0.0434721 -0.513209 21.1764
-0.314192 -1.00219 21.0591
-0.425282 -0.683134 20.9916
-0.167685 -0.64979 21.1209
-0.39078 -0.836142 20.2304
-1.57689 -1.19209 19.1341
-1.29867 -1.76031 22.0875
0.0749099 -0.55878 21.3163
0.616804 -0.1699 21.1188
1.32574 0.310693 20.8622
1.43853 0.419229 20.7767
-2.79481 -0.386621 18.4844
-2.30585 -0.954044 21.9786
-0.364016 -0.828391 19.8639
0.32644 -0.276595 18.9291
1.43248 -0.367706 18.4991
1.63831 -0.36372 19.5617
-1.84581 1.3011 19.6338
-1.91539 0.77027 21.0672
-1.28181 0.0908678 21.8604
-0.114061 -0.493625 21.6895
0.241714 -0.862851 21.2836
0.437318 -0.878937 20.9406
0.0836746 -3.07472 17.2301
0.00335324 -0.715562 14.6635
-0.0106179 0.0316585 10.0751
-0.0762919 0.620079 8.66336
0.0154667 0.894452 9.86407
0.0779146 1.40016 12.7202
0.12729 -0.778049 11.8288
-0.0680497 -0.759659 -0.455214
0.333111 0.741852 -0.618198
0.0414767 3.9987 18.3313
-0.0111769 3.433 20.5219
-0.0365508 2.5604 20.911
-0.0278057 -0.095794 11.6592
-0.0888988 0.0267041 7.18311
-0.0260502 -1.03219 9.78194
1.54106 -1.08888 19.2249
1.32427 -1.67135 21.9864
-0.0245275 -0.598727 21.5551
-0.581423 -0.193682 21.3856
-1.33269 0.330552 20.8145
-1.49282 0.514504 20.7135
2.68764 -0.357167 18.63
2.30424 -0.967426 21.9663
0.379547 -0.819234 19.9183
-0.323404 -0.281145 18.9979
-1.4652 -0.33057 17.5957
-1.94132 -0.319485 17.8118
1.81854 1.24839 19.6673
1.93642 0.800679 21.0663
1.34345 0.109492 21.9098
0.139519 -0.512761 21.6535
-0.160921 -0.899547 21.2617
-0.396296 -1.07101 20.3396
0 0 0
0.00329069 -0.119752 0.426529
-1.98043e-17 -4.01873e-18 1.79329e-16
0.015878 -0.0155409 0.035502
-0.0047199 0.0204871 0.214891
0.0266986 0.00610753 0.522374
-0.359101 0.103289 0.432915
-0.0306111 0.15912 0.318251
-0.365895 0.0395309 1.03495
-0.003727 -0.0198247 0.00517555
-0.0170988 0.00131801 -0.00608433
0 0 0
-0.00400247 -0.120835 0.4319
0 0 0
0 0 0
-8.52801e-05 0.00177606 0.0144275
-0.0176358 -0.0171322 0.0385339
-0.0318094 0.00478314 0.598004
0.0300085 0.162801 0.32537
0.38476 0.11095 0.462956
0.36279 0.0380842 1.0189
0.0153326 0.00127366 -0.00558296
0.00496375 -0.0260798 0.00684875
0.00177079 -0.00822611 0.0143152
0.00126944 -0.000895623 0.060857
0.00234444 0.00047069 0.098821
0 0 0
0 0 0
0.101477 -0.0357947 0.8272
0.000448268 0.00292524 0.157418
0 0 0
0 0 0
-0.00498573 -0.00794523 0.0217077
-0.0088491 -0.0284436 0.192359
0.000281919 0.00077144 0.0115686
-0.0270631 0.00406469 0.0192718
0.00157341 0.00317198 0.00800722
0.0157683 0.0606043 0.249712
0.0158109 0.0301701 0.107572
0.0190826 -0.0115556 0.11052
-0.00509086 -0.00241246 0.151841
0 0 0
-0.00144668 0.000262197 0.0560053
0 0 0
-0.148492 -0.005451 1.34096
0 0 0
-0.000515276 0.003682 0.233038
0 0 0
0.0039599 -0.00627422 0.017718
0.0294711 0.00456208 0.0212534
0.00899582 -0.0279338 0.19835
-0.000361295 0.000943157 0.0144737
-0.00228085 0.00451257 0.011438
-0.0211595 -0.0121168 0.120404
-0.0174527 0.0694105 0.294714
-0.0153135 0.0285853 0.105053
-0.0226151 -0.0166891 0.229986
-0.17667 -0.0319802 0.0889179
0 0 0
-0.0013001 0.0250219 -0.00983403
-0.00627218 -0.00435849 0.132587
-0.00195114 0.000164177 0.123147
0.000372744 0.000619367 0.00977329
-0.00744423 -0.00869892 0.00171373
-0.000986535 0.0102692 0.136654
-0.000121534 -0.0123813 -0.00069515
0.000992444 -0.000465394 0.167696
0.000157151 0.00022642 0.00198635
-0.000975269 0.597111 0.593948
0.00071273 0.107433 0.42142
-0.00300747 -0.00270046 0.0674731
-0.0291266 0.015504 0.13938
0.000849189 -0.125693 -0.00871498
0 0 0
0.00161668 0.0100314 0.106799
-0.000815296 9.84377e-05 -0.000685446
0 0 0
0 0 0
0.000900606 4.36308e-05 0.0560478
0 0 0
0.00584108 -0.006668 0.000367327
-0.000117563 0.000402809 0.0062606
0 0 0
0 0 0
0.0290741 0.0154646 0.13882
0 0 0
0.00066765 7.70753e-05 -0.000551303
-0.00153311 0.00990076 0.106779
0 0 0
0 0 0
0 0 0
-0.00016561 -0.00169809 0.0452545
0 0 0
-0.000417895 0.000474913 0.0371888
0.000576747 0.00278881 0.029185
-0.0102284 0.00423681 0.185807
-0.000345146 6.76587e-05 0.0404739
0 0 0
0.00318192 0.01514 0.134128
-0.0580321 0.0858137 0.508426
-0.000505408 0.00106132 0.123879
3.28691e-05 0.052572 0.119224
0 0 0
-3.53344e-06 0.000640041 0.000399242
0 0 0
-8.75333e-19 -3.74903e-18 -1.09721e-16
0.000436627 -0.00112934 0.0373459
0.000212525 -0.00166181 0.0481263
-0.000681435 0.00267357 0.0284755
0.00685569 0.00280246 0.15385
0.0635137 0.0900713 0.538682
-0.00333602 0.0164504 0.137034
-0.0848991 -0.0815295 0.720762
0 0 0
0 0 0
0.00386064 -0.0161824 0.0844738
0 0 0
-1.74434e-05 0.00142709 0.0383721
2.46194e-18 9.31955e-18 1.267e-16
0.00997602 0.0219829 0.117203
-0.00308811 -0.00579997 0.103903