# vtk DataFile Version 2.0
tri_press
ASCII
DATASET UNSTRUCTURED_GRID
POINTS 3682 float
-0.575386 0.075 -1.845
-0.901341 0.105 1.495
-0.575 0.559733 -1.695
-0.525 0.776497 1.785
0.57123 0.075 -1.845
0.901369 0.105 1.495
0.575 0.559713 -1.695
0.525 0.775898 1.785
-0.696115 0.0729223 -0.731667
-0.814163 0.0735267 0.381667
-0.668231 0.741885 -0.535
-0.633849 0.796424 0.625
0.693362 0.0729146 -0.731667
0.8128 0.0735231 0.381667
0.668388 0.741829 -0.535
0.633723 0.795892 0.625
-1.23385 -0.294225 -2.85587
-1.2453 -0.239194 -1.94651
-1.34658 -0.238461 -0.834383
-1.45937 -0.254005 0.268352
-1.53119 -0.239759 1.37969
-1.55224 -0.221155 2.28517
-1.55928 -0.200008 3.19782
-1.22915 -0.00412459 -2.76409
-1.23517 0.0707881 -1.84963
-1.35325 0.0929551 -0.728428
-1.46123 0.0866549 0.388579
-1.52151 0.0991452 1.50889
-1.55527 0.117134 2.41503
-1.56833 0.138099 3.32616
-1.22964 0.547866 -2.59363
-1.23046 0.620736 -1.68111
-1.32 0.750585 -0.528088
-1.32053 0.79208 0.628239
-1.27755 0.784302 1.78037
-1.42757 0.799535 2.68458
-1.52339 0.82112 3.58818
-1.26019 1.49765 -2.30286
-1.26901 1.58359 -1.38335
-1.30361 1.71715 -0.215197
-1.32368 1.8061 0.963012
-1.34293 1.83529 2.13068
-1.39869 1.84643 3.04917
-1.47035 1.86122 3.95787
-0.600122 -0.293218 -2.85286
-0.586605 -0.235371 -1.94212
-0.660418 -0.248092 -0.834972
-0.745588 -0.26414 0.262453
-0.808578 -0.240012 1.36937
-0.84364 -0.222484 2.27817
-0.858593 -0.202609 3.19377
-0.603356 -0.00988042 -2.76316
-0.885112 0.116374 2.40926
-0.883974 0.135494 3.32311
-0.60495 0.520543 -2.5994
-0.784513 0.795522 2.6855
-0.863952 0.817845 3.58838
-0.618901 1.47942 -2.30857
-0.620131 1.56672 -1.38963
-0.648782 1.71263 -0.218987
-0.671941 1.80867 0.963467
-0.694473 1.83587 2.13392
-0.747571 1.84521 3.05241
-0.81262 1.85957 3.96023
0.626548 -0.293252 -2.85286
0.641926 -0.23539 -1.94212
0.72557 -0.248123 -0.834972
0.821872 -0.264182 0.262453
0.863115 -0.240067 1.36937
0.707831 -0.222635 2.27817
0.605775 -0.202813 3.19377
0.596173 -0.00990745 -2.76316
0.640519 0.116185 2.40926
0.55701 0.135261 3.32311
0.592254 0.520506 -2.5994
0.509832 0.795141 2.6855
0.493519 0.817538 3.58838
0.644235 1.47933 -2.30857
0.653753 1.56661 -1.38963
0.650603 1.71245 -0.218987
0.62129 1.80837 0.963467
0.579531 1.8355 2.13392
0.542097 1.84486 3.05241
0.505179 1.85926 3.96023
1.26018 -0.294315 -2.85587
1.28006 -0.23927 -1.94651
1.39325 -0.238593 -0.834383
1.52528 -0.254217 0.268352
1.57366 -0.240017 1.37969
1.4535 -0.221509 2.28517
1.34077 -0.200426 3.19782
1.22509 -0.0042033 -2.76409
1.22903 0.0707295 -1.84964
1.35513 0.0928093 -0.728428
1.48294 0.0863585 0.388579
1.5308 0.0988039 1.50889
1.39277 0.116706 2.41503
1.29062 0.137629 3.32616
1.21677 0.54777 -2.59363
1.22052 0.62065 -1.68111
1.3134 0.750347 -0.528088
1.32673 0.791393 0.628239
1.26634 0.783509 1.78037
1.22982 0.798855 2.68458
1.2012 0.82053 3.58818
1.27912 1.49746 -2.30286
1.29102 1.58336 -1.38335
1.30074 1.71679 -0.215197
1.27913 1.80552 0.963012
1.23714 1.83461 2.13068
1.20515 1.84576 3.04917
1.17706 1.8606 3.95787
-0.600742 0.317366 -1.79555
-0.002078 0.0718247 -1.84818
-0.637119 0.0725924 -1.28833
-0.707574 0.440749 1.6344
1.39773e-05 0.10139 1.49861
-0.856668 0.0903476 0.938333
0 0.623837 -1.75911
-0.673679 0.702873 -1.115
0 0.816617 1.82542
-0.610538 0.817575 1.205
0.597669 0.317357 -1.79455
0.63367 0.0725832 -1.28833
0.707315 0.440449 1.63413
0.855974 0.0903721 0.938333
0.673793 0.70287 -1.115
0.610865 0.817399 1.205
-0.755131 0.0732323 -0.175
-0.748206 0.407404 -0.633333
-0.00137682 0.0706619 -0.731667
-0.750642 0.434975 0.503333
-0.000681579 0.0708615 0.381667
-0.658749 0.776864 0.045
7.8488e-05 0.873052 -0.535
-6.29305e-05 1.0829 0.625
0.753073 0.0732267 -0.175
0.748197 0.407372 -0.633333
0.750118 0.434708 0.503333
0.658871 0.776677 0.045
-0.89878 0.362385 -1.20167
0.89878 0.362364 -1.20167
-0.00172741 0.0705571 -1.28833
3.9244e-05 0.780406 -1.115
-0.001039 0.317361 -1.97408
-0.746005 0.42119 -0.065
0.745991 0.42104 -0.065
-0.0010292 0.0707617 -0.175
7.77873e-06 1.08643 0.045
-0.897768 0.437862 1.07167
0.897777 0.437578 1.07167
-0.000333801 0.0786282 0.938333
-3.14653e-05 0.970511 1.205
6.98864e-06 0.440599 1.98347
-0.565188 0.196183 -1.7974
-0.288732 0.0718306 -1.84817
-0.607411 0.0726382 -1.56667
-0.814231 0.272874 1.57448
-0.450664 0.101511 1.49849
-0.875822 0.100856 1.21667
-0.578973 0.43855 -1.73638
-0.2875 0.60576 -1.74103
-0.657307 0.66427 -1.405
-0.640618 0.608623 1.73403
-0.2625 0.806956 1.81561
-0.5809 0.810167 1.495
0.284576 0.0718286 -1.84817
0.562269 0.196178 -1.7976
0.603608 0.0726335 -1.56667
0.450691 0.101512 1.49849
0.81087 0.272724 1.57109
0.875444 0.100914 1.21667
0.2875 0.606289 -1.74157
0.578287 0.438535 -1.73673
0.657348 0.664243 -1.405
0.2625 0.806928 1.81588
0.640229 0.608173 1.73364
0.581229 0.809945 1.495
-0.666618 0.0727565 -1.01
-0.725621 0.0730791 -0.453333
-0.73677 0.232858 -0.6825
-0.34871 0.0718642 -0.731667
-0.843682 0.0736704 0.66
-0.784645 0.0733815 0.103333
-0.899945 0.19548 0.4425
-0.407353 0.0723318 0.381667
-0.670545 0.721969 -0.825
-0.757184 0.599128 -0.584167
-0.664104 0.759989 -0.245
-0.354333 0.847983 -0.535
-0.619148 0.803954 0.915
-0.750344 0.644749 0.564167
-0.649459 0.789804 0.335
-0.374046 1.05384 0.625
0.663517 0.072748 -1.01
0.345958 0.0718566 -0.731667
0.723215 0.0730724 -0.453333
0.736572 0.232247 -0.6825
0.842666 0.0736679 0.66
0.405991 0.0723284 0.381667
0.782934 0.0733771 0.103333
0.899559 0.195065 0.4425
0.670663 0.721923 -0.825
0.354489 0.847952 -0.535
0.757196 0.599052 -0.584167
0.664213 0.759837 -0.245
0.619295 0.803646 0.915
0.373726 1.05319 0.625
0.749906 0.644293 0.564167
0.649642 0.78963 0.335
-0.8638 0.339876 -1.49861
-0.30089 0.317364 -1.94689
-0.0019027 0.0706625 -1.56825
-0.0015585 0.194593 -1.936
-0.900766 0.217489 -1.245
-0.319423 0.0705648 -1.28833
-0.897047 0.439305 1.35303
-0.353783 0.440674 1.94177
-0.000159912 0.0890786 1.21847
1.0483e-05 0.270994 1.92921
-0.900106 0.264105 1.005
-0.428501 0.078626 0.938333
1.9622e-05 0.721464 -1.43706
-0.000519499 0.470599 -1.93319
-0.896429 0.532629 -1.15833
-0.33682 0.746224 -1.115
-1.57326e-05 0.889026 1.51521
3.49432e-06 0.628608 1.9107
-0.895148 0.627718 1.13833
-0.305285 0.95325 1.205
0.865125 0.33986 -1.49811
0.298315 0.317359 -1.94491
0.900766 0.217474 -1.245
0.315971 0.0705648 -1.28833
0.897055 0.439014 1.3529
0.353661 0.440524 1.94191
0.900115 0.263975 1.005
0.42782 0.0786263 0.938333
0.896428 0.532617 -1.15833
0.336916 0.746255 -1.115
0.895154 0.627489 1.13833
0.305417 0.953165 1.205
-0.732508 0.256241 -0.12
-0.378029 0.0720985 -0.175
-0.897596 0.384895 -0.9175
-0.749795 0.414297 -0.349167
-0.00155211 0.0706069 -1.01
-0.00120301 0.0707118 -0.453333
-0.745344 0.428083 0.219167
-0.837249 0.436419 0.7875
-0.000855389 0.0708116 0.103333
-0.00050769 0.0709113 0.66
-0.745152 0.620415 -0.01
-0.391785 1.05648 0.045
5.8866e-05 0.801335 -0.825
4.31333e-05 0.998062 -0.245
-2.75759e-05 1.10233 0.335
-4.71979e-05 1.0325 0.915
0.732577 0.255611 -0.12
0.375972 0.072093 -0.175
0.897597 0.384868 -0.9175
0.749785 0.414206 -0.349167
0.745165 0.427874 0.219167
0.837905 0.436143 0.7875
0.745163 0.620224 -0.01
0.391597 1.05587 0.045
-0.84538 0.206836 -1.53264
-0.900453 0.228826 -0.96375
-0.799872 0.553637 -0.87125
-0.860676 0.485589 -1.4518
0.845793 0.206826 -1.53239
0.861413 0.485576 -1.45156
0.799907 0.553609 -0.87125
0.900454 0.228809 -0.96375
-0.304078 0.0706675 -1.56746
0.300274 0.0706689 -1.56746
0.330982 0.0706149 -1.01
-0.334085 0.0706149 -1.01
-0.31216 0.693594 -1.42103
-0.335448 0.785187 -0.825
0.335575 0.785183 -0.825
0.312208 0.693667 -1.42103
-0.294811 0.195388 -1.9144
-0.294195 0.454575 -1.91266
0.292907 0.454567 -1.91337
0.291445 0.195386 -1.91425
-0.736354 0.243692 -0.40125
-0.85627 0.205839 0.16125
-0.743733 0.630574 0.277083
-0.75155 0.609962 -0.297083
0.736521 0.242955 -0.40125
0.751558 0.609828 -0.297083
0.743758 0.63037 0.277083
0.855036 0.205854 0.16125
-0.36337 0.0719815 -0.453333
0.360965 0.0719749 -0.453333
0.390982 0.0722108 0.103333
-0.392691 0.0722152 0.103333
-0.384063 0.974238 -0.245
-0.391768 1.07286 0.335
0.391623 1.07245 0.335
0.384195 0.974215 -0.245
-0.798839 0.259178 0.72375
-0.899987 0.26849 1.28485
-0.792582 0.618171 1.42402
-0.785813 0.621709 0.85125
0.801206 0.259045 0.72375
0.786174 0.621394 0.85125
0.792355 0.617831 1.42395
0.899992 0.26835 1.28478
-0.417961 0.0709163 0.66
0.416939 0.0709169 0.66
0.439256 0.0890432 1.21757
-0.439582 0.0890417 1.21757
-0.31112 1.01307 0.915
-0.283892 0.874139 1.5051
0.283958 0.874321 1.5051
0.311123 1.01301 0.915
-0.402223 0.271934 1.84172
0.402176 0.271859 1.825
0.308081 0.618391 1.90494
-0.308142 0.618615 1.90521
-0.551078 0.135592 -1.80199
-0.432059 0.0718397 -1.84816
-0.59227 0.0729474 -1.70583
-0.856971 0.188937 1.53392
-0.676002 0.100698 1.4993
-0.88947 0.102039 1.35583
-0.583707 0.499141 -1.72241
-0.43125 0.586983 -1.72225
-0.624136 0.619984 -1.55
-0.580791 0.69256 1.7575
-0.39375 0.796133 1.80471
-0.556023 0.796405 1.64
0.427903 0.0718417 -1.84816
0.546429 0.135589 -1.80098
0.58829 0.0729455 -1.70583
0.67603 0.100693 1.49931
0.85701 0.188862 1.53394
0.890144 0.101219 1.35583
0.43125 0.587 -1.72228
0.583788 0.499124 -1.72301
0.624163 0.619967 -1.55
0.39375 0.796011 1.80504
0.580771 0.692036 1.75747
0.556398 0.796205 1.64
-0.681368 0.0728381 -0.870833
-0.710868 0.0730016 -0.5925
-0.875245 0.0734893 -0.707083
-0.522417 0.0723856 -0.731667
-0.828919 0.0736016 0.520833
-0.799402 0.0734559 0.2425
-0.899985 0.113038 0.412083
-0.610753 0.0729388 0.381667
-0.671272 0.733811 -0.68
-0.737098 0.682702 -0.559583
-0.665398 0.750168 -0.39
-0.521279 0.814929 -0.535
-0.625585 0.799275 0.77
-0.721215 0.735146 0.594583
-0.642287 0.793748 0.48
-0.523391 0.964022 0.625
0.678442 0.0728288 -0.870833
0.519664 0.0723773 -0.731667
0.708289 0.0729934 -0.5925
0.873163 0.0734829 -0.707083
0.827731 0.0735975 0.520833
0.60939 0.0729356 0.381667
0.797867 0.0734504 0.2425
0.8996 0.112584 0.412083
0.671406 0.733756 -0.68
0.521439 0.814892 -0.535
0.737348 0.682719 -0.559583
0.665527 0.750059 -0.39
[...]
POINT_DATA 3682
SCALARS point_scalars float 1
LOOKUP_TABLE default
-0.570944
-52.8083
7.92907
-34.1548
3.27646
-52.3241
8.28981
-33.8127
-40.2774
-32.0514
-46.4795
-47.1011
-40.2262
-32.0007
-46.4503
-47.1161
10.5409
-54.7308
-38.1609
-29.5781
-42.144
-51.5628
-35.2935
10.5409
-54.7308
-51.6662
-29.4306
-52.6075
-43.5233
-32.2713
75.0629
-93.0634
-44.5396
-30.7467
-53.4017
-32.1246
-31.681
-12.0527
-101.54
-70.7258
-52.4474
-36.221
-33.8647
-33.8647
75.8448
-60.3909
-42.5447
-31.591
-40.547
-38.1635
-33.2385
133.489
-33.6186
-30.6759
164.887
-31.344
-30.6661
-11.344
-49.8159
-72.2366
-55.8855
-33.3425
-31.6523
-31.6523
74.8511
-116.76
-42.3268
-31.047
-40.0278
-35.3588
-31.3643
129.391
-32.9212
-27.8124
164.264
-29.8598
-27.6942
-11.3173
-49.8974
-72.1487
-55.8473
-32.5481
-30.7182
-29.6367
12.106
-59.1659
-37.211
-29.4214
-41.9063
-46.6135
-34.9475
12.106
-59.1659
-51.683
-29.3599
-52.1945
-38.106
-31.4014
100.984
-92.8585
-44.5283
-30.3368
-53.011
-31.8193
-31.1456
-13.7619
-104.744
-70.5653
-52.4281
-35.5053
-33.5133
-31.7308
52.1194
-212.297
-65.9777
-36.5655
-36.6288
-35.2109
-21.4062
-65.0027
-31.1142
-48.3594
52.5167
-65.4265
-36.1497
-35.0168
-64.9668
-48.2088
-32.3279
-44.6211
-40.8527
-25.0576
-34.1393
-48.0075
5.11487
-66.234
-32.3263
-44.5598
-25.0191
-47.9803
-90.5355
-90.4555
-60.5784
-34.1622
205.639
-31.5217
-31.572
-34.3137
-85.5056
-46.3411
-46.0083
-36.9705
-43.8813
-22.6012
64.9616
-213.604
-101.792
-41.2907
-39.4296
-39.2341
46.4573
-22.8132
-54.8669
-34.697
-31.7768
-40.929
-214.002
70.1274
-100.983
-39.1469
-40.5502
-38.9403
-22.886
48.3651
-54.8108
-31.6028
-34.3175
-40.7173
-47.8656
-35.1522
-45.5884
-40.1419
-32.9397
-31.096
-29.3463
-33.1816
-46.9162
-44.0865
-50.8601
-1.56355
-49.791
-32.5297
-46.1704
-62.287
-47.7479
-40.1471
-35.1093
-45.5076
-32.8697
-33.1567
-31.0533
-29.2059
-46.8856
-1.58583
-44.039
-50.6631
-49.6945
-62.1939
-32.5011
-46.0926
-53.3915
184.078
-84.6672
168.9
-89.8465
-59.8079
-49.5285
-29.7669
-36.9036
-24.6686
-42.202
-36.5436
-34.5783
190.146
-89.2388
-38.6258
-36.5604
-27.9823
-55.6524
-44.6047
-58.5619
183.55
-89.7514
-59.8107
-49.074
-29.2152
-41.8923
-36.4427
-89.18
-38.5626
-55.3292
-44.5344
-31.0766
-33.5364
-61.3001
-35.4379
-48.3438
-36.5156
-29.2915
-14.0682
-33.6089
-35.7553
-36.7969
-79.2731
-15.8807
-24.7646
-80.6886
-53.0804
-31.1395
-33.5338
-61.2157
-35.5326
-29.2656
-14.1155
-36.7805
-78.8448
-21.8946
-60.5638
-56.0128
-52.9237
-24.7618
-54.6076
-55.956
-60.5239
-82.4673
-82.6589
-47.6669
-47.6656
-38.3828
-20.8191
-20.8283
-38.1699
166.613
160.107
160.349
166.278
-36.5314
-28.5796
-34.7683
-39.1214
-36.583
-39.1357
-34.7176
-28.6565
-35.7571
-35.7541
-32.7701
-32.7835
-31.12
-73.208
-73.1713
-31.1699
-18.5478
-44.8905
-47.7512
-36.2243
-18.2722
-36.4869
-47.3365
-44.5162
-35.5312
-35.4734
-37.3122
-37.4624
-52.4318
-37.2563
-37.1569
-52.3706
-31.3233
-30.7685
-29.5812
-29.9348
40.9531
-130.585
-146.767
-51.5261
-43.7858
-40.88
36.7342
-16.178
-26.4784
-34.3132
-32.668
-37.3675
-130.381
45.6548
-150.407
-43.2765
-50.1982
-40.6176
-16.117
37.5023
-26.7626
-32.4132
-33.9287
-37.1137
-43.2614
-37.3431
-37.2615
-39.7447
-32.836
-31.2829
-30.3833
-32.5922
-43.2465
-46.6539
-48.8757
-15.0241
-49.3082
-41.5936
-46.3919
-54.6281
-43.1824
-39.7417
-37.3834
-37.0873
-32.7609
-32.5504
-31.3009
-30.4265
-43.2002
-15.0547
-46.6305
-48.8023
-49.2126
-54.5926
-41.5157
-46.3036
53.5453
48.1888
57.868
139.913
-215.273
-215.049
-119.604
3.65439
-80.8301
-55.4611
-86.1063
-60.6115
-37.7025
-35.6219
-48.2963
-32.1486
-37.335
-37.1861
-36.8217
-27.2732
-37.4532
-37.4214
-39.3896
-35.7234
-24.2845
-24.2105
-26.4069
62.0028
-66.494
-56.0025
-88.9694
-46.4075
-31.2419
-31.1587
-33.6441
-27.58
-44.8012
-50.0649
-55.4697
-46.2836
58.417
49.7555
59.7321
140.479
-79.6319
-55.5138
-85.952
-60.5243
-37.2652
-35.2351
-47.9552
-31.8965
-37.1852
-37.2536
-39.0841
-35.5861
-66.5476
-56.022
-88.9065
-46.3402
-44.6294
-49.9521
-55.2705
-46.1718
-33.5829
-31.4125
-30.3489
-32.8701
-45.3029
-43.9744
-48.2381
-39.4456
-40.5255
-40.5433
-44.1593
-38.3748
-25.2049
-27.3612
-27.6214
-21.416
-33.9342
-33.9201
-33.6839
-34.774
-49.155
-46.6991
-43.0066
-65.5601
3.65485
3.66466
-1.80317
-3.14537
-65.3221
-65.2767
-73.594
-59.5243
-33.5753
-31.4338
-30.4242
-32.8695
-45.2361
-43.9178
-48.2104
-39.4643
-25.1204
-27.3553
-27.5893
-21.3579
-49.1469
-46.6292
-42.9334
-65.2018
-132.869
-90.7478
-90.3059
-72.6065
-132.388
-90.664
-90.2339
-72.5404
-69.8926
-59.7297
-59.7402
-53.678
-37.3083
-34.8
-34.8472
-26.016
197.551
180.824
198.049
197.685
-30.9485
-32.9658
-30.4885
-33.4451
-31.0043
-33.0561
-30.5122
-33.469
-34.1122
-35.1942
-33.7798
-34.1046
-83.9198
-64.0354
-85.6343
-83.6013
-47.5969
-44.3378
-48.9576
-45.624
-47.2185
-44.0191
-48.6058
-45.3112
-37.0922
-36.9015
-36.8557
-37.1489
-40.0311
-44.0926
-44.052
-48.0553
-25.3422
-24.182
-25.8453
-24.5769
65.2555
110.116
-116.248
63.9131
-31.1787
-83.6565
-49.2824
-33.6209
-38.2774
-33.2084
-42.248
-38.0496
36.2872
101.326
-31.717
59.1899
-38.8176
-42.7221
-39.3977
-31.4428
-34.346
-30.0055
-44.921
-38.9136
-116.673
63.2354
67.144
108.796
-35.7725
-83.7357
-38.0687
-32.8919
-48.6755
-33.2337
-41.9009
-37.842
-31.69
58.6038
36.0139
101.47
-39.1651
-42.7745
-34.1983
-29.7107
-38.9967
-31.159
-44.5364
-38.7508
-59.3168
-47.6315
-35.1833
-35.2708
-56.0795
-41.368
-43.4441
-37.5619
-27.4151
-35.3854
-27.9772
-32.0317
-27.9353
-22.3361
-32.8914
-34.3376
-57.3686
-29.3711
-49.4235
-41.4253
-44.0185
-56.9938
-9.06652
-7.88159
-44.7233
-52.4601
-33.555
-31.7677
-41.4717
-56.8982
-67.1019
-57.2615
-59.3186
-47.5367
-43.4529
-37.557
-35.0701
-35.2615
-56.001
-41.2352
-27.489
-35.2078
-32.8719
-34.2956
-27.8574
-32.0165
-27.8518
-22.2042
-57.2964
-29.3855
-9.09119
-7.63731
-49.3433
-41.4273
-44.0036
-56.815
-44.2504
-52.3202
-67.1651
-57.2225
-33.5129
-31.7867
-41.4088
-56.7784
-45.9727
-78.0274
175.696
166.637
-83.7709
-83.9115
159.152
160.52
-138.964
-71.7598
-68.7521
-53.103
-47.1594
-54.5719
-31.157
-29.611
-37.0401
-37.1176
-27.4921
-26.8791
-37.4919
-43.147
-37.5407
-37.2016
-35.3742
-35.3569
177.737
178.076
-72.7406
-131.586
-40.6705
-29.7724
-36.822
-36.7703
-28.43
-28.7073
-58.6371
-44.6541
-48.4834
-40.8203
-49.275
-79.8227
167.168
175.989
-138.559
-71.7071
-68.8396
-53.0933
-54.111
-46.7433
-30.7352
-29.12
-37.1958
-42.8191
-37.4638
-37.0984
-131.394
-72.6411
-29.7733
-40.514
-44.6267
-58.4031
-40.7297
-48.4239
-33.1581
-30.4666
-34.4363
-32.9845
-61.3497
-61.3405
-35.7278
-36.3446
-47.8694
-47.9365
-36.3403
-36.3474
-28.6606
-31.2558
-13.5905
-23.7523
-33.385
-33.3953
-35.6368
-35.6045
-35.7128
-37.8842
-59.5123
-76.4603
-17.1852
-17.1926
-25.1951
-25.2301
-79.0286
-79.1067
-52.9917
-52.9558
-33.268
-30.4397
-34.4337
-32.9782
-61.2491
-61.2855
-35.8053
-36.4173
-31.2337
-28.6464
-13.5893
-23.3462
-37.8873
-35.67
-76.4154
-59.7981
2.23462
-143.462
-132.151
63.3251
-42.8693
-51.5487
-72.6297
-68.6532
-50.2508
-72.0384
-72.043
-48.9173
6.61875
49.708
-130.887
-123.268
1.51322
64.0119
-131.763
-142.949
6.4507
-123.278
-130.44
50.5551
-50.1674
-48.8107
-71.9755
-71.9842
-42.9406
-68.6019
-72.5706
-51.5068
-120.399
-117.975
-69.5009
-69.8406
-121.12
-69.7648
-69.5431
-118.154
-43.3711
-43.9566
-53.5496
-53.2984
-43.4164
-53.346
-53.552
-43.9697
-36.0258
-48.8953
-38.1294
-27.8536
-17.9983
-3.64716
-27.2168
-38.0141
-17.9913
-38.0019
-27.2359
-3.61962
-36.1815
-27.8437
-37.9958
-48.9217
65.1863
117.748
181.963
21.5518
33.277
72.1816
187.818
118.077
33.3832
119.591
188.076
69.7198
65.4748
19.9172
179.424
117.34
-36.8458
-32.2998
-32.7533
-40.2037
-28.6838
-27.2837
-29.9463
-29.3307
-41.408
-42.134
-32.3207
-29.5597
-44.8603
-39.3889
-34.5755
-42.929
-36.5918
-40.199
-32.8542
-32.4269
-44.8314
-42.9161
-34.6333
-39.4158
-41.3188
-29.5434
-32.3206
-42.0568
-28.5514
-29.3492
-29.9712
-27.2379
-37.1348
-38.1494
-35.0164
-33.8655
-37.1209
-33.8611
-35.003
-38.1606
-32.145
-33.4845
-33.5925
-32.2533
-32.1902
-32.2682
-33.6008
-33.4954
-31.4317
-69.0528
-63.7055
-4.11109
-54.9187
-72.3736
-83.8059
-59.9843
-54.8141
-59.9268
-83.8673
-72.3664
-31.4531
-4.14491
-63.8318
-69.3146
-31.0609
-34.5052
-45.1188
-21.63
-46.5983
-50.9456
-45.4072
-40.8101
-39.3324
-51.3882
-50.519
-41.0307
-43.2421
-24.8527
-45.4026
-51.1049
-30.9919
-21.4844
-44.814
-33.9609
-43.1329
-50.9701
-45.0077
-24.8796
-38.9311
-40.6269
-50.1232
-51.0408
-46.2282
-40.5059
-45.0543
-50.3619
-33.34
-34.6503
-37.2322
-38.2869
-33.2823
-38.1761
-37.1916
-34.6262
-39.1979
-37.1029
-37.1007
-36.7862
-39.5005
-36.934
-37.1599
-37.2099
-53.196
-49.5558
-48.1174
-59.0184
-35.3807
-33.7427
-40.2332
-42.4924
-35.1919
-42.3625
-40.1941
-33.6916
-53.1467
-58.9918
-48.09
-49.3326
-36.7371
-30.0326
-27.2094
-32.8596
-36.2361
-32.57
-26.561
-29.497
-31.2091
-28.3085
-26.9191
-31.2354
-31.5302
-31.5002
-27.3878
-28.5513
4.27444
-60.3909
-103.315
-56.061
-47.5399
-44.9516
24.2339
-5.69468
-11.7263
-34.4986
-33.2619
-35.5694
-66.7623
9.8958
-102.738
-46.8878
-55.4765
-44.7616
-5.40891
24.4256
-11.8643
-33.0666
-34.0611
-35.292
-41.9531
-38.7943
-40.3931
-39.8399
-32.1708
-31.4607
-31.8683
-32.2732
-45.9192
-46.2078
-49.0234
-36.7366
-48.34
-46.0445
-46.5412
-50.0021
-41.9312
-39.8182
-38.7643
-40.4242
-32.0801
-32.2305
-31.4367
-31.8402
-45.8943
-36.7773
-46.1816
-48.9697
-48.1927
-49.8985
-45.9464
-46.4846
52.5471
53.0388
44.1253
100.382
-213.211
-212.946
-162.429
-44.1076
-72.3343
-60.423
-84.1777
-62.0747
-36.9491
-36.2615
-39.8582
-33.5346
-36.8261
-36.75
-36.6465
-30.3674
-35.7863
-38.006
-37.5249
-35.4145
-22.4523
-22.3744
-22.9444
-33.8409
-68.9271
-60.176
-85.0187
-54.0271
-31.0842
-31.0388
-32.1933
-28.7112
-46.505
-49.2823
-52.2471
-47.2514
54.8148
53.672
45.7859
101.662
-71.5035
-60.0588
-83.9604
-61.9229
-36.5207
-35.8574
-39.4449
-33.2142
-35.5199
-37.8552
-37.2435
-35.2567
-68.9127
-60.1272
-84.97
-54.0761
-46.343
-49.1568
-52.0276
-47.1064
-32.8516
-31.796
-31.0849
-32.6255
-44.9788
-44.2467
-46.5204
-41.9944
-40.7245
-40.693
-42.3945
-39.5484
-24.8662
-25.8701
-26.4273
-23.4345
-34.0752
-34.0677
-33.8329
-34.4064
-48.5708
-47.2843
-46.4639
-54.8518
4.81789
4.8146
3.61972
2.97796
-66.0802
-66.0693
-69.8592
-62.947
-32.8371
-31.7866
-31.1401
-32.6269
-44.9182
-44.1835
-46.4632
-41.961
-24.7961
-25.8555
-26.3995
-23.3687
-48.5388
-47.2298
-46.4019
-54.7646
-104.76
-90.8087
-90.1463
-80.6707
-104.622
-90.7271
-90.0707
-80.6056
-64.817
-60.6579
-60.5554
-56.8273
-37.1955
-34.3837
-34.4372
-30.7724
204.775
191.77
201.903
202.91
-31.1353
-32.2105
-30.9983
-32.2652
-31.1885
-32.2804
-31.0393
-32.3048
-34.2371
-34.7065
-34.0438
-34.2387
-85.7311
-82.067
-86.886
-85.6281
-46.9145
-45.3136
-47.5105
-45.9818
-46.5596
-44.9853
-47.1683
-45.6613
-36.9857
-36.9204
-36.897
-37.2997
-41.9477
-43.9334
-43.9198
-46.101
-23.3621
-23.1016
-23.7972
-22.8657
58.43
60.3937
46.0846
101.27
-191.61
-217.283
-158.27
-17.3145
-120.906
-90.1057
-79.9447
-89.4456
-43.8767
-39.0513
-51.2494
-35.8696
-41.0141
-38.1864
-38.6839
-36.3109
-38.8855
-38.9587
-40.3195
-38.4404
43.4448
45.2451
38.0815
64.0556
-20.4623
-24.0826
-28.2735
-37.0349
-39.8328
-64.832
-48.1247
-51.8222
-34.3902
-35.0186
-37.1387
-32.4603
-32.1931
-31.456
-32.8641
-30.5106
-38.9775
-42.7408
-43.7501
-39.6122
-191.683
-217.448
-158.835
-17.8624
64.4237
65.5296
58.1397
102.668
-121.341
-88.473
-85.4601
-89.4503
-40.6584
-37.9708
-38.4425
-35.823
-43.2
-38.6534
-50.8988
-35.3596
-38.455
-38.7231
-39.9793
-38.2055
-19.9155
-24.1309
-28.1066
-36.6609
44.757
47.8437
38.8581
64.316
-39.9376
-64.9279
-48.4016
-51.8353
-31.9744
-31.3277
-32.7023
-30.2666
-34.0143
-34.635
-36.75
-32.1336
-38.7415
-42.5512
-43.4156
-39.4385
-45.709
-51.4328
-55.7061
-47.7986
-36.4048
-34.4493
-34.7617
-35.2529
-43.5897
-45.569
-46.9679
-43.7651
-39.9679
-40.4441
-41.9153
-38.7918
-32.8499
-33.7325
-29.338
-34.7568
-30.9343
-31.2671
-29.1903
-31.6264
-29.2623
-25.6116
-27.8894
-26.06
-32.7535
-33.6647
-32.9964
-33.6559
-43.1577
-52.1636
-56.2614
-36.9001
-45.3774
-43.7562
-46.4093
-42.9131
-50.2889
-49.6191
-47.9411
-65.1291
-7.06777
1.91054
-4.27755
-3.00301
-49.8358
-49.6197
-48.7655
-50.3939
-36.1877
-29.6551
-33.1305
-31.7586
-46.3647
-46.3121
-44.9905
-51.4239
-58.6872
-63.772
-64.5604
-60.1453
-45.6246
-51.3971
-55.7033
-47.7448
-39.9499
-40.4459
-41.901
-38.786
-36.3318
-34.4249
-34.7043
-35.243
-43.2285
-45.4912
-46.9764
-43.7405
-32.8116
-33.5923
-29.4437
-34.6637
-32.722
-33.6434
-32.9755
-33.6235
-30.9044
-31.2387
-29.0984
-31.6075
-29.1336
-25.536
-27.821
-26.0115
-43.1104
-52.1699
-56.1966
-36.9153
-7.07902
1.92142
-4.38075
-2.98082
-45.3524
-43.6965
-46.336
-42.8983
-50.2618
-49.6061
-47.8592
-65.1047
-49.6501
-49.5097
-48.6404
-50.3776
-58.6077
-63.6881
-64.7849
-60.0204
-36.1236
-29.6517
-33.1151
-31.7391
-46.293
-46.2311
-44.8824
-51.3558
67.0552
-158.39
-60.7456
-65.3486
167.331
190.547
184.196
177.559
-97.4996
-76.0917
-83.667
-83.6535
126.305
177.044
164.315
166.095
-89.0977
-90.7171
-104.883
-79.515
-60.0196
-60.3261
-63.8886
-56.1451
-51.5861
-48.4307
-48.2009
-51.1316
-30.9134
-27.8814
-30.1702
-29.4926
-36.9744
-37.0563
-36.9391
-36.9776
-25.795
-23.5291
-25.6086
-25.2073
-40.955
-43.296
-42.0886
-42.6308
-36.031
-36.9057
-37.2777
-36.8901
-30.1483
-36.715
-34.7795
-34.9724
165.992
196.122
190.947
191.003
-91.0322
-88.8752
-79.8677
-105.252
-41.0262
-35.986
-40.5574
-35.2948
-34.9956
-38.1833
-36.6597
-36.6343
-28.4063
-27.4854
-28.0674
-28.2399
-59.2596
-50.9209
-58.1514
-49.4588
-45.2639
-44.2505
-46.4148
-42.7051
65.9049
-158.777
-63.3245
-68.2986
167.405
190.089
178.326
184.352
-88.9866
-90.6268
-104.712
-79.4457
-60.0191
-60.4259
-63.627
-56.1997
-51.1028
-48.0244
-50.6452
-47.7667
-30.5389
-27.1578
-29.643
-28.9535
-40.6467
-42.9844
-41.7718
-42.3161
-35.8958
-36.8398
-37.1889
-36.7976
-90.9693
-88.8133
-105.157
-79.7863
-40.9433
-36.0103
-35.2904
-40.4523
-58.9843
-50.5639
-49.2227
-57.7674
-45.1717
-44.1936
-42.6327
-46.3513
-29.9931
-30.8807
-31.9716
-28.6848
-33.1983
-33.8579
-33.9355
-33.2349
-57.1552
-66.1646
-61.1395
-61.3125
-37.2483
-34.0395
-35.5631
-35.6472
-46.0843
-50.8003
-48.1977
-48.1461
-37.3891
-35.8457
-36.4012
-36.4004
-28.5622
-29.9018
-28.7601
-29.9516
-18.7387
-32.1568
-12.2529
-18.3088
-33.6216
-33.6238
-33.5358
-33.5406
-35.2175
-36.341
-35.7179
-35.7068
-38.6123
-35.0182
-36.2447
-37.1898
-74.0496
-80.8143
-74.185
-77.8628
-8.13794
-20.655
-15.8773
-15.8844
-11.2627
-38.864
-24.5681
-24.5966
-77.1156
-83.8183
-80.1588
-80.1934
-56.3669
-50.6525
-53.0567
-53.0391
-30.0012
-30.9423
-32.0522
-28.7711
-33.1956
-33.855
-33.9279
-33.2281
-57.0183
-66.0948
-61.2193
-61.0674
-37.3157
-34.1402
-35.6525
-35.7361
-28.5319
-29.907
-29.9333
-28.745
-18.6837
-32.0306
-12.25
-18.3648
-38.5839
-35.0181
-37.1837
-36.2142
-73.1449
-80.2383
-77.6556
-74.1967
54.455
-19.629
-29.6331
-145.368
-60.3611
-56.9457
-65.3919
-60.8674
-57.0535
-52.2836
-65.4654
-59.5049
31.6631
-27.3854
-80.6651
-139.032
44.6746
-22.6028
-32.8146
-144.772
30.8549
-28.3556
-82.8658
-139.659
-57.0357
-52.2184
-65.3982
-59.4196
-60.3355
-56.8852
-65.3499
-60.8145
-94.017
-83.2099
-83.3258
-74.4674
-94.1745
-83.3112
-83.336
-74.5507
-47.4879
-45.5039
-50.1593
-48.039
-47.4978
-45.4794
-50.1921
-47.9876
-36.0869
-40.6252
-37.2344
-40.1147
-24.7653
-14.8237
-25.0522
-20.0174
-24.7917
-14.7701
-25.0962
-20.0187
-36.5811
-40.5758
-36.9273
-40.0397
145.682
134.755
175.271
164.703
135.917
122.687
169.776
169.043
122.607
135.65
169.238
170.547
133.866
148.018
164.985
176.551
-35.5
-38.6606
-34.635
-36.1011
-27.4171
-25.7432
-29.4722
-29.2585
-34.0472
-37.2648
-32.9154
-35.202
-39.965
-41.198
-37.4006
-38.4754
-35.5142
-38.7085
-34.7076
-36.1682
-39.9793
-41.1926
-37.4429
-38.4862
-33.9973
-37.1933
-32.8789
-35.151
-27.3841
-25.6682
-29.4834
-29.2538
-35.4575
-36.6744
-35.0901
-36.0622
-36.6691
-35.4591
-36.0593
-35.0865
-32.7608
-32.4111
-33.1188
-32.8067
-32.4253
-32.7746
-32.811
-33.1285
-39.0718
-18.8181
-43.8336
-27.6846
-66.4756
-70.1735
-75.3581
-76.9262
-69.9212
-66.4275
-76.9765
-75.3973
-18.7855
-39
-27.7052
-44.0243
-20.4341
-21.132
-20.8683
-16.1824
-46.4587
-43.6416
-46.1071
-43.8554
-43.1615
-46.0452
-52.593
-55.4377
-40.6823
-32.3811
-39.2004
-30.9219
-22.0231
-21.0297
-21.0608
-16.0939
-40.5863
-32.5749
-39.1464
-30.0878
-42.7541
-45.6486
-52.2327
-55.0461
-46.0186
-43.2868
-45.7108
-43.5076
-35.5093
-34.9029
-36.3763
-35.6083
-35.4383
-34.8535
-36.3063
-35.5635
-37.865
-37.451
-37.18
-37.267
-38.0454
-37.6355
-37.2946
-37.3989
-52.776
-54.8146
-50.3121
-52.8075
-35.8506
-38.0229
-37.0456
-39.1166
-35.7299
-37.8933
-36.9654
-39.0196
-52.7009
-54.7457
-50.2579
-52.7599
-32.3298
-31.483
-31.2327
-29.9254
-30.845
-31.8748
-29.4804
-30.7163
-29.4943
-30.4995
-28.9048
-29.5282
-30.8065
-29.8197
-29.9487
-29.237
3.65721
82.8305
-172.44
-1.4139
-65.2779
-132.009
-52.9804
-39.5493
-41.0277
-39.2119
-43.5935
-40.1071
20.139
46.0113
-30.5295
-2.71942
-9.29397
-37.1887
-36.9589
-32.5288
-33.8116
-31.7558
-38.9639
-36.0865
-173.91
2.76487
11.7808
83.7445
-65.1503
-133.773
-40.6775
-38.6692
-52.508
-38.976
-43.2863
-39.8396
-30.4963
-2.22439
20.392
46.5086
-9.50022
-37.346
-33.5971
-31.4142
-36.5572
-32.1834
-38.6054
-35.8724
-42.501
-43.4689
-37.5806
-37.2462
-40.4341
-39.3072
-41.4001
-38.3882
-32.8838
-32.7201
-28.943
-31.746
-29.3373
-30.0351
-32.276
-33.0014
-47.126
-29.7829
-47.8956
-46.103
-45.9051
-51.68
-13.2413
-19.8411
-47.8979
-50.1687
-41.5842
-42.2969
-45.2859
-50.3612
-54.737
-53.8346
-42.3747
-43.435
-41.3843
-38.4309
-37.5245
-37.2369
-40.5416
-39.4738
-32.7182
-32.6578
-32.2748
-32.9524
-28.873
-31.6757
-29.1197
-29.9516
-47.0603
-29.7273
-13.198
-19.9662
-47.8358
-46.0978
-45.8524
-51.9673
-47.7921
-50.0477
-54.7274
-53.7621
-41.5373
-42.1631
-45.2543
-50.2456
45.7775
99.1822
40.5191
74.5405
61.3814
54.9499
131.306
130.403
-160.414
-33.6835
-160.589
-36.1796
-117.515
-117.596
7.06659
7.38982
-139.311
-72.9219
-65.8256
-53.8433
-101.273
-76.0223
-64.6926
-56.6405
-44.8265
-34.515
-38.0465
-32.7637
-50.7009
-43.235
-32.7069
-31.6658
-37.197
-31.8811
-37.0715
-31.4082
-36.8888
-36.9429
-28.2287
-27.8937
-39.1323
-37.0514
-35.7272
-38.8277
-39.0228
-40.1194
-37.5211
-36.1587
-24.9246
-31.487
-25.0373
-31.3718
-26.8874
-26.7056
65.3331
65.7416
-86.0304
-56.2161
-67.3365
-44.1522
-85.7477
-100.93
-48.2065
-42.7753
-32.4765
-29.3576
-32.3853
-29.2015
-33.7126
-33.6791
-27.823
-27.9611
-48.1051
-43.4349
-52.4247
-50.4626
-54.7547
-54.4847
-47.8158
-44.564
52.897
99.8753
44.162
75.7009
63.8761
56.5581
130.968
131.132
-138.635
-72.6743
-65.7605
-53.8107
-100.994
-75.93
-64.5998
-56.572
-44.4961
-34.1838
-37.6442
-32.4403
-42.8473
-50.2457
-32.4421
-31.3861
-38.8601
-36.8652
-35.3143
-38.7135
-38.7046
-39.8252
-37.3888
-36.019
-86.1699
-56.2362
-67.3577
-44.1337
-100.875
-85.6483
-42.7606
-48.134
-47.8179
-43.2889
-52.3145
-50.3662
-54.3225
-54.4644
-44.4438
-47.7117
-32.7473
-33.7194
-29.6993
-31.9394
-31.862
-30.4521
-33.3116
-32.5264
-46.1444
-42.815
-46.646
-41.4834
-49.0329
-48.2911
-39.8315
-39.211
-42.2472
-39.2989
-42.2399
-39.313
-44.1065
-44.1026
-38.3965
-38.3732
-26.391
-23.5388
-28.3897
-26.0606
-27.2617
-28.2899
-21.3052
-22.5094
-33.6109
-34.2273
-33.601
-34.211
-33.6204
-33.6268
-34.6757
-34.6656
-46.9735
-57.6011
-45.7956
-52.8254
-42.5271
-42.6896
-68.1861
-62.4538
2.23294
1.6402
2.20675
1.62865
-2.40871
-2.39531
-3.5273
-3.54488
-68.882
-61.9208
-68.781
-61.9063
-73.3636
-73.333
-59.3915
-59.3924
-32.7972
-33.7175
-29.6963
-31.9269
-31.9873
-30.495
-33.3093
-32.515
-46.1424
-42.7698
-46.5659
-41.4667
-48.2108
-48.9661
-39.8393
-39.2353
-26.3259
-23.4319
-28.4003
-26.0461
-28.2682
-27.23
-21.2141
-22.4578
-46.9609
-57.5615
-45.5632
-52.7391
-42.632
-42.4473
-62.3688
-68.2825
-132.581
-131.5
-105.477
-80.6708
-80.0531
-104.379
-72.7289
-72.2429
-132.232
-131.005
-105.328
-80.6071
-104.252
-79.9884
-72.1753
-72.6663
-69.5544
-69.5443
-64.8979
-56.3976
-64.8014
-56.3987
-53.6896
-53.6911
-37.8324
-37.6545
-37.6555
-31.6057
-31.6069
-37.6831
-26.3287
-26.3359
192.874
196.64
180.598
180.996
193.852
194.066
197.007
192.15
-31.7167
-30.4246
-32.7915
-33.6241