# vtk DataFile Version 2.0
tet_velo
ASCII
DATASET UNSTRUCTURED_GRID
POINTS 29498 float
-0.895 0.565 -2.27918
-0.895 0.565 2.27656
-0.895 1.005 -2.10191
-0.765 1.50619 2.035
0.895 0.565 -2.27918
0.895 0.565 2.27656
0.895 1.005 -2.10191
0.765 1.50619 2.035
-0.895104 0.564896 -0.7606
-0.895812 0.564188 0.75798
-0.864384 1.18478 -0.72294
-0.814887 1.34568 0.65603
0.895095 0.564905 -0.7606
0.896207 0.563793 0.75798
0.864381 1.18478 -0.72294
0.814882 1.34568 0.65603
-1.76214 0.177419 -3.44746
-1.76738 0.247102 -2.28851
-1.75966 0.242926 -0.766319
-1.74454 0.204156 0.783969
-1.73506 0.197214 2.30852
-1.73727 0.249187 3.47906
-1.74377 0.326362 4.62815
-1.76637 0.459733 -3.40901
-1.7709 0.549025 -2.26531
-1.75768 0.578084 -0.770289
-1.73345 0.588923 0.737301
-1.71768 0.613056 2.235
-1.72864 0.667295 3.40357
-1.74086 0.739196 4.55721
-1.7664 0.976877 -3.29294
-1.76592 1.05942 -2.14347
-1.73123 1.2087 -0.743619
-1.67047 1.35725 0.646341
-1.62877 1.49063 2.04887
-1.68151 1.53809 3.22321
-1.72267 1.58394 4.39936
-1.75641 1.8858 -3.2238
-1.75205 1.9933 -2.09524
-1.73129 2.19372 -0.740652
-1.69959 2.4231 0.583843
-1.68267 2.61184 1.93989
-1.69519 2.70843 3.0715
-1.71944 2.77152 4.2324
-0.881335 0.187631 -3.45646
-0.887998 0.262308 -2.30165
-0.886719 0.239909 -0.764556
-0.882987 0.18296 0.801618
-0.881787 0.161282 2.33938
-0.889943 0.224702 3.5
-0.897448 0.312034 4.64027
-0.885121 0.462074 -3.41179
-0.896456 0.647107 3.42083
-0.901725 0.728327 4.56635
-0.886679 0.954013 -3.27568
-0.859884 1.54097 3.22043
-0.892734 1.58432 4.39877
-0.88526 1.86433 -3.20673
-0.88569 1.97008 -2.07643
-0.875976 2.18036 -0.729315
-0.858272 2.42474 0.582482
-0.85037 2.62295 1.93017
-0.863755 2.71946 3.0618
-0.885063 2.77947 4.22535
0.893571 0.18762 -3.45646
0.893856 0.262301 -2.30165
0.893424 0.239865 -0.764556
0.894353 0.182694 0.801618
0.887142 0.161179 2.33938
0.839102 0.224622 3.5
0.810543 0.311947 4.64027
0.893238 0.462066 -3.41179
0.814875 0.647054 3.42083
0.793638 0.728251 4.56635
0.888989 0.954007 -3.27568
0.770156 1.54093 3.22043
0.772539 1.58426 4.39877
0.864265 1.86432 -3.20673
0.855901 1.97006 -2.07643
0.839275 2.18033 -0.729316
0.81845 2.4247 0.582482
0.80022 2.6229 1.93017
0.789274 2.7194 3.0618
0.780446 2.7794 4.22535
1.77752 0.177387 -3.44746
1.77758 0.247073 -2.28851
1.77106 0.242817 -0.766319
1.76157 0.203783 0.783968
1.74407 0.196955 2.30852
1.7014 0.248996 3.47907
1.66959 0.32618 4.62815
1.77728 0.459711 -3.40901
1.7766 0.549012 -2.26531
1.76428 0.578024 -0.77029
1.74503 0.588534 0.737301
1.72356 0.612834 2.235
1.67647 0.667136 3.40357
1.65031 0.73903 4.55721
1.77015 0.976857 -3.29294
1.7674 1.05941 -2.14347
1.73328 1.20867 -0.743619
1.67666 1.35711 0.64634
1.62886 1.49049 2.04887
1.61958 1.53796 3.22321
1.61957 1.5838 4.39936
1.73826 1.88575 -3.2238
1.72694 1.99326 -2.09524
1.70087 2.19366 -0.740653
1.6664 2.42301 0.583842
1.63812 2.61172 1.93989
1.62617 2.70831 3.0715
1.62036 2.77138 4.2324
-0.899936 0.785 -2.19548
0 0.565 -2.27918
-0.89837 0.56163 -1.51989
-0.892105 1.03559 2.21789
0 0.562624 2.27894
-0.898625 0.561375 1.51727
0 0.994241 -2.09115
-0.877079 1.09228 -1.41243
0 1.50623 2.03505
-0.790102 1.42609 1.34552
0.899936 0.785 -2.19548
0.898364 0.561636 -1.51989
0.892055 1.03559 2.21784
0.898631 0.561369 1.51727
0.877048 1.09225 -1.41243
0.790103 1.42609 1.34552
-0.895088 0.564912 -0.00130999
-0.899939 0.874839 -0.74177
-4.67008e-06 0.420725 -0.7606
-0.899923 0.954934 0.707005
0.000197675 0.420583 0.75798
-0.839665 1.26526 -0.033455
-1.48436e-06 1.43039 -0.72294
-2.66941e-06 1.73815 0.65603
0.895088 0.564912 -0.00130999
0.899939 0.874842 -0.74177
0.899923 0.954734 0.707005
0.839665 1.26526 -0.033455
-0.896694 0.829919 -1.46616
-0.899935 0.914887 -0.0173825
-0.899959 0.995265 1.43139
-2.33504e-06 0.420611 -1.51989
9.65026e-05 0.420736 -0.00130999
9.88376e-05 0.420595 1.51727
0 0.785 -2.2808
0 1.03559 2.25043
-7.4218e-07 1.18656 -1.41243
-2.07688e-06 1.72561 -0.033455
-1.33471e-06 1.75079 1.34552
0.896694 0.829921 -1.46616
0.899935 0.914788 -0.0173825
0.899959 0.995165 1.43139
-1.33295 0.557013 -2.27225
-0.891499 0.413654 -2.29041
-0.89006 0.513537 -2.84548
-1.30634 0.589028 2.25578
-0.888394 0.363141 2.30797
-0.895728 0.606054 2.8487
-1.33046 1.03221 -2.12269
-0.89084 0.979506 -2.68879
-0.890345 1.48754 -2.08917
-1.19689 1.49841 2.04193
-0.812442 1.52358 2.62772
-0.807685 2.06457 1.98259
0.894428 0.413651 -2.29041
0.894119 0.513533 -2.84548
1.3358 0.557006 -2.27225
0.891071 0.36309 2.30797
0.854937 0.606027 2.8487
1.30928 0.588917 2.25578
0.891994 0.979503 -2.68879
0.87545 1.48753 -2.08917
1.3312 1.03221 -2.12269
0.767578 1.52356 2.62772
0.78261 2.06455 1.98259
1.19693 1.49834 2.04193
-1.32639 0.57149 -0.765445
-0.890912 0.402402 -0.762578
-1.31463 0.576555 0.747641
-0.8894 0.373574 0.779799
-1.29781 1.19674 -0.733279
-0.87018 1.68257 -0.726128
-1.24268 1.35147 0.651185
-0.83658 1.88521 0.619256
0.894259 0.402385 -0.762578
1.32969 0.571465 -0.765445
0.89528 0.373244 0.779799
1.32062 0.576164 0.747641
0.851828 1.68256 -0.726128
1.29883 1.19672 -0.733279
0.816666 1.88519 0.619256
1.24577 1.35139 0.651185
-1.76476 0.212261 -2.86798
-1.76426 0.318576 -3.42823
-1.32174 0.182525 -3.45196
-1.76352 0.245014 -1.52741
-1.76914 0.398064 -2.27691
-1.32769 0.254705 -2.29508
-1.7521 0.223541 0.00882496
-1.75867 0.410505 -0.768304
-1.32319 0.241417 -0.765437
-1.7398 0.200685 1.54625
-1.73899 0.396539 0.760635
-1.31376 0.193558 0.792793
-1.73617 0.2232 2.89379
-1.72637 0.405135 2.27176
-1.30842 0.179248 2.32395
-1.74052 0.287775 4.05361
-1.73295 0.458241 3.44132
-1.31361 0.236945 3.48953
-1.74232 0.532779 4.59268
-1.32061 0.319198 4.63421
-1.76863 0.504379 -2.83716
-1.76638 0.718305 -3.35098
-1.32575 0.460904 -3.4104
-1.76429 0.563555 -1.5178
-1.76841 0.804224 -2.20439
-1.74556 0.583503 -0.016494
-1.74446 0.89339 -0.756954
-1.72557 0.600989 1.48615
-1.70196 0.973089 0.691821
-1.72316 0.640176 2.81929
-1.67323 1.05184 2.14193
-1.73475 0.703246 3.98039
-1.70507 1.10269 3.31339
-1.31255 0.657201 3.4122
-1.73177 1.16157 4.47828
-1.32129 0.733762 4.56178
-1.76616 1.01815 -2.7182
-1.7614 1.43134 -3.25837
-1.32654 0.965445 -3.28431
-1.74858 1.13406 -1.44354
-1.75898 1.52636 -2.11935
-1.70085 1.28298 -0.048639
-1.73126 1.70121 -0.742135
-1.64962 1.42394 1.3476
-1.68503 1.89018 0.615092
-1.65514 1.51436 2.63604
-1.65572 2.05123 1.99438
-1.70209 1.56102 3.81128
-1.68835 2.12326 3.14735
-1.2707 1.53953 3.22182
-1.72106 2.17773 4.31588
-1.3077 1.58413 4.39906
-1.75423 1.93955 -2.65952
-1.32083 1.87507 -3.21526
-1.74167 2.09351 -1.41794
-1.31887 1.98169 -2.08583
-1.71544 2.30841 -0.0784047
-1.30363 2.18704 -0.734984
-1.69113 2.51747 1.26186
-1.27893 2.42392 0.583163
-1.68893 2.66013 2.50569
-1.26652 2.61739 1.93503
-1.70732 2.73998 3.65195
-1.27947 2.71395 3.06665
-1.30225 2.77549 4.22888
-0.884666 0.22497 -2.87906
-0.883228 0.324852 -3.43413
0.00611805 0.187625 -3.45646
-0.887359 0.251108 -1.5331
0.00292925 0.262305 -2.30165
-0.884853 0.211434 0.0185309
0.0033524 0.239887 -0.764556
-0.882387 0.172121 1.5705
0.00568297 0.182827 0.801618
-0.885865 0.192992 2.91969
0.00267739 0.161231 2.33938
-0.893696 0.268368 4.07013
-0.893199 0.435905 3.46042
-0.0254205 0.224662 3.5
-0.899586 0.520181 4.60331
-0.0434526 0.311991 4.64027
-0.8859 0.708043 -3.34373
0.00405875 0.46207 -3.41179
-0.89909 0.687717 3.99359
-0.87817 1.09404 3.32063
-0.0407904 0.64708 3.42083
-0.897229 1.15633 4.48256
-0.0540432 0.728289 4.56635
-0.88597 1.40917 -3.2412
0.00115477 0.95401 -3.27568
-0.876309 1.56265 3.8096
-0.861819 2.13022 3.14112
-0.0448637 1.54095 3.22043
-0.888898 2.1819 4.31206
-0.0600976 1.58429 4.39877
-0.885475 1.91721 -2.64158
-0.0104977 1.86433 -3.20673
-0.880833 2.07522 -1.40287
-0.0148948 1.97007 -2.07643
-0.867124 2.30255 -0.0734165
-0.0183507 2.18035 -0.729315
-0.854321 2.52385 1.25633
-0.0199107 2.42472 0.582482
-0.857062 2.67121 2.49598
-0.0250752 2.62293 1.93017
-0.874409 2.74946 3.64357
-0.0372405 2.71943 3.0618
-0.0523083 2.77944 4.22535
0.893714 0.22496 -2.87906
0.893405 0.324843 -3.43412
1.33554 0.182503 -3.45196
0.89364 0.251083 -1.5331
1.33572 0.254687 -2.29508
0.893889 0.21128 0.0185309
1.33224 0.241341 -0.765437
0.890748 0.171937 1.5705
1.32796 0.193239 0.792793
0.863122 0.192901 2.91969
1.3156 0.179067 2.32395
0.824822 0.268285 4.07013
0.826988 0.435838 3.46042
1.27025 0.236809 3.48953
0.80209 0.520099 4.60331
1.24007 0.319063 4.63421
0.891114 0.708037 -3.34373
1.33526 0.460889 -3.4104
0.804256 0.687652 3.99359
0.792516 1.09399 3.32063
1.24567 0.657095 3.4122
0.783088 1.15625 4.48256
1.22198 0.73364 4.56178
0.876627 1.40916 -3.2412
1.32957 0.965432 -3.28431
0.771348 1.5626 3.8096
0.779715 2.13017 3.14111
1.19487 1.53945 3.22182
0.776493 2.18183 4.31206
1.19605 1.58403 4.39906
0.860083 1.91719 -2.64158
1.30126 1.87504 -3.21526
0.847588 2.0752 -1.40287
1.29142 1.98166 -2.08583
0.828863 2.30252 -0.0734166
1.27007 2.187 -0.734984
0.809335 2.5238 1.25633
1.24243 2.42386 0.583162
0.794747 2.67115 2.49598
1.21917 2.61731 1.93503
0.78486 2.7494 3.64357
1.20772 2.71385 3.06665
1.2004 2.77539 4.22888
1.77755 0.21223 -2.86798
1.7774 0.318549 -3.42823
1.77432 0.244945 -1.52741
1.77709 0.398042 -2.27691
1.76631 0.2233 0.00882491
1.76767 0.41042 -0.768304
1.75282 0.200369 1.54625
1.7533 0.396159 0.760635
1.72274 0.222976 2.89379
1.73381 0.404895 2.27176
1.6855 0.287588 4.05361
1.68894 0.458066 3.44132
1.65995 0.532605 4.59268
1.77694 0.504362 -2.83716
1.77371 0.718284 -3.35098
1.77044 0.563518 -1.5178
1.772 0.804211 -2.20439
1.75465 0.583279 -0.0164941
1.74878 0.893347 -0.756954
1.7343 0.600684 1.48615
1.71085 0.972823 0.691821
1.70002 0.639985 2.81929
1.67621 1.05166 2.14193
1.66339 0.703083 3.98039
1.64803 1.10255 3.31339
1.63494 1.16141 4.47828
1.76877 1.01813 -2.7182
1.75421 1.43131 -3.25837
1.75034 1.13404 -1.44354
1.74717 1.52634 -2.11935
1.70497 1.28289 -0.0486391
1.71707 1.70117 -0.742136
1.65276 1.4238 1.3476
1.67153 1.89006 0.615091
1.62422 1.51423 2.63604
1.63349 2.05111 1.99438
1.61958 1.56088 3.81128
1.62288 2.12313 3.14735
1.61996 2.17759 4.31588
[...]
POINT_DATA 29498
VECTORS point_vectors float
-9.77224 -4.71063 11.7083
0.390776 0.397077 2.85387
-6.89467 3.65106 11.0404
0.177306 0.0653322 0.651228
9.76809 -4.70504 11.7035
-0.372542 0.39562 2.81571
6.95322 3.70778 11.0701
-0.171056 0.0667779 0.628783
0.0246421 -0.0238468 0.456295
-0.0608 0.0754092 0.506893
2.47739e-06 1.7668e-05 0.000166846
3.61567e-05 0.000118911 0.00031386
-0.0293786 -0.0318281 0.458752
0.05009 0.0644458 0.562338
1.12642e-06 -8.03002e-06 -7.60529e-05
-1.41078e-05 4.69623e-05 0.000122042
-0.511373 -0.23283 19.9552
-1.1211 -0.578478 20.5099
-0.430054 -0.448058 21.4274
0.0132855 -0.152085 21.6428
0.44682 0.152595 21.739
0.901442 0.324323 21.5296
1.14803 0.155732 21.482
-0.5724 -0.182363 19.8999
-1.34023 -0.430398 20.4847
-0.628229 -0.590248 21.4418
-0.00373416 -0.345527 21.7213
0.551877 -0.0561003 21.8294
1.06042 0.122478 21.5145
1.24081 -0.0317234 21.3466
-0.701985 -0.0323657 19.831
-1.5545 -0.082564 20.4922
-1.23457 -0.49181 21.4364
-0.516746 -0.459771 21.8943
0.187454 -0.420036 21.938
0.827166 -0.516563 21.3612
0.896499 -0.547045 21.4746
-0.542177 0.212574 19.9653
-1.03062 0.417926 20.3609
-1.08145 0.336199 21.1825
-0.556424 0.108706 21.7636
-0.0811875 -0.137017 21.7369
0.150339 -0.307987 21.6274
0.324378 -0.383239 21.2477
-0.539445 -0.502304 19.3512
-3.20836 -3.70764 20.0287
0.0679398 -0.159706 19.3931
0.0880585 0.0260726 19.4921
0.358994 0.877772 20.0858
0.934619 1.85361 19.27
1.39516 1.38743 16.8529
-0.650378 -0.386247 19.1448
1.88221 2.03737 12.1663
2.16072 1.0625 15.2451
-0.871675 0.0489746 18.8868
1.77128 -0.0246395 13.2769
1.487 -1.04169 15.3327
-0.546927 0.545268 19.4632
-1.30982 1.55655 19.8694
-1.8469 1.84341 21.1105
-0.772649 0.588018 22.0983
-0.128501 -0.119132 21.9543
0.182255 -0.48747 21.5716
0.211638 -0.633151 21.2924
0.550602 -0.502303 19.3586
3.21146 -3.62326 20.0505
-0.0886621 -0.157455 19.4472
-0.0885407 0.0649205 19.652
-0.358643 0.843546 20.1327
-0.699713 1.88968 18.0213
-1.39428 1.49108 15.566
0.657214 -0.385996 19.1565
-1.5349 2.18428 9.89862
-2.1655 1.23302 13.682
0.87176 0.0483647 18.8825
-1.80826 0.220407 9.80965
-1.5954 -1.08838 13.7301
0.542037 0.556222 19.451
1.29406 1.61095 19.8482
1.83876 1.96703 21.0853
0.762326 0.623053 22.1227
0.144098 -0.108352 21.9942
-0.174812 -0.49442 21.5604
-0.18507 -0.555019 21.4621
0.516817 -0.236164 19.9547
1.12011 -0.557497 20.5247
0.440376 -0.443411 21.4205
-0.0102242 -0.14751 21.6474
-0.430073 0.135089 21.722
-0.895169 0.350853 21.5953
-1.19478 0.173152 21.5735
0.57629 -0.184927 19.9037
1.34011 -0.425634 20.4964
0.639115 -0.582446 21.4378
0.00658634 -0.34478 21.7162
-0.532226 -0.0573289 21.815
-1.14209 0.170662 21.6234
-1.28835 -0.0260612 21.6402
0.697489 -0.0316304 19.8348
1.55501 -0.0858051 20.4908
1.23655 -0.491707 21.432
0.509554 -0.450684 21.8905
-0.198393 -0.417787 21.9202
-0.878549 -0.546233 21.5493
-0.966209 -0.703689 21.5359
0.543935 0.217689 19.9574
1.04176 0.438627 20.3502
1.12321 0.363793 21.1797
0.567056 0.128815 21.7798
0.0923537 -0.134665 21.7381
-0.137358 -0.308631 21.6062
-0.291794 -0.362127 21.2332
-6.25237 -1.0257 7.48576
0.00095534 -1.96682 0.723753
0.0464926 -0.0614744 0.790153
0.206987 0.169399 0.681813
-0.0284569 -0.100698 -0.114523
-0.0101783 0.0500104 0.795702
1.43682e-05 0.344682 0.459779
-0.151316 -0.197559 0.964772
-0.000555842 0.00449879 -0.00316511
0.00216362 0.0067614 0.0233909
6.2554 -1.00672 7.5148
-0.0464723 -0.0613154 0.789739
-0.203126 0.172814 0.668412
0.0113232 0.0507385 0.798436
0.150064 -0.196683 0.960415
-0.00221644 0.00692446 0.0234179
-0.0115906 0.024694 0.534171
-1.5619e-06 -3.09556e-05 -0.000233953
9.10728e-09 -2.11502e-08 1.37607e-05
-6.54945e-07 -3.38027e-05 -0.000121597
-7.56919e-07 -1.56084e-06 0.000680639
0.000198607 0.000637407 0.00096764
-5.63398e-06 0.00133373 0.00193411
7.81907e-07 8.94219e-06 0.000472127
0.0111087 0.0260487 0.541453
1.6013e-06 -3.08985e-05 -0.000239281
6.59344e-07 -3.38099e-05 -0.000121343
-0.000177782 0.000571077 0.00088588
1.51884e-08 -9.49355e-08 1.59508e-06
4.45084e-07 2.20847e-05 6.52077e-05
7.78161e-05 0.0075411 0.0306961
-2.92408e-08 -6.49247e-07 3.9672e-05
-1.36313e-08 5.47658e-08 -3.91123e-05
-1.93405e-07 1.49866e-08 4.42978e-05
-0.00220726 2.10438 1.42429
-0.000600588 0.0119657 -0.00357424
-5.52692e-06 0.00247641 0.0174351
-1.32813e-05 0.003514 0.0515505
0 0 0
1.11879e-08 6.89043e-08 -1.20637e-06
-4.45957e-07 2.20947e-05 6.55604e-05
-7.5926e-05 0.00752654 0.0303983
-2.63138 -1.01725 20.3771
-5.69043 -5.2569 19.5109
-1.76027 -1.02219 18.1365
0.913677 0.1913 21.6977
0.720514 1.02671 14.8277
0.302587 1.49151 9.54516
-3.02895 0.0401452 20.4998
-2.5234 0.666623 17.4573
-2.7411 2.40083 19.5643
0.242949 -0.432888 20.7888
0.874451 0.816509 7.28823
-0.175092 -0.353542 21.8974
5.66699 -5.18736 19.5355
1.76009 -1.01724 18.1564
2.62154 -1.00909 20.3862
-0.702856 0.988917 14.8241
0.163789 1.61363 7.74648
-0.886865 0.1814 21.6885
2.52222 0.665045 17.4574
2.7343 2.47484 19.5361
3.02509 0.0428243 20.4947
-0.774056 0.944634 5.40568
0.164921 -0.333433 21.826
-0.238882 -0.420372 20.7489
-0.376635 -0.990796 21.8563
0.796386 -0.270995 10.39
0.286401 -0.306238 21.6517
-0.0156954 -0.240454 12.5458
-2.30154 -1.27804 21.8022
-4.79471 2.43418 20.9662
-0.839809 -0.902456 21.5108
-1.21578 0.398789 20.8954
-0.816185 -0.183716 10.1228
0.384882 -0.989809 21.8609
-0.0318129 -0.0761746 12.9524
-0.285697 -0.313485 21.6682
4.91152 2.6399 20.8596
2.29574 -1.27313 21.7966
1.17533 0.438776 20.681
0.835777 -0.898881 21.5347
-0.856955 -0.409367 20.0721
-0.537944 -0.207576 19.924
-0.612657 -0.380718 19.6763
-0.831208 -0.559689 21.126
-1.23434 -0.505708 20.5015
-1.88411 -1.25428 20.4592
-0.17153 -0.306391 21.582
-0.523949 -0.524 21.4369
-0.299288 -0.529873 21.6417
0.20889 -0.00654696 21.7241
0.0205846 -0.243345 21.6928
0.110068 -0.0354745 21.7515
0.638217 0.303942 21.5589
0.519187 0.0518621 21.7971
0.580828 0.445028 21.8499
0.898108 0.497334 21.0642
1.00889 0.272645 21.578
1.1208 0.692943 21.455
1.22342 0.0517861 21.7783
1.21733 0.562887 21.9416
-0.977902 -0.302876 19.996
-0.65134 -0.132828 19.8504
-0.690734 -0.284876 19.5691
-1.03487 -0.592647 21.1826
-1.51192 -0.282356 20.481
-0.249831 -0.49327 21.6308
-0.916864 -0.639056 21.4543
0.253759 -0.182646 21.8139
-0.188343 -0.512901 21.8338
0.818325 0.0406496 21.7697
0.472829 -0.332906 21.9398
1.18757 0.198718 20.9581
1.07194 -0.252773 21.4163
1.76796 0.470702 21.7276
1.10235 -0.323448 21.2532
1.96723 0.249803 20.3555
-1.17989 -0.013792 19.9608
-0.662265 0.140784 19.8614
-0.853624 -0.0129282 19.4479
-1.45614 -0.326242 21.0663
-1.35652 0.274853 20.3915
-0.902942 -0.548837 21.7743
-1.39148 0.00356022 21.3039
-0.157865 -0.410557 21.9412
-0.670349 -0.137201 21.8298
0.518256 -0.443388 21.8276
-0.00518147 -0.307697 21.869
0.938608 -0.544739 21.6432
0.453932 -0.473108 21.6664
1.06111 -0.923978 21.8791
0.491758 -0.521 20.8204
1.17378 -0.856521 20.7409
-0.805714 0.331204 20.1094
-0.609581 0.370755 19.7198
-1.12554 0.416638 20.7628
-1.27488 0.851078 20.171
-0.829599 0.236785 21.5553
-1.53189 0.794644 21.2198
-0.290573 -0.0280249 21.7685
-0.6831 0.226529 21.9028
0.0579073 -0.249132 21.6529
-0.0826729 -0.206045 21.8515
0.28954 -0.422583 21.1886
0.154363 -0.437009 21.6289
0.336556 -0.457494 21.22
-1.27101 -1.29301 18.8778
-0.58406 -0.467834 19.2507
0.00811731 -0.661851 18.997
-1.25108 -0.732434 21.5813
0.0088337 -7.1698 19.1806
0.137711 -0.00786772 19.2021
-0.000161349 -0.315437 12.6857
0.16782 0.281575 19.6923
-0.00453764 -0.170712 13.4145
0.499671 1.23328 19.9819
-0.0400612 -0.0593003 13.5338
1.23204 1.79639 18.5042
1.50073 2.0117 17.5989
-0.158661 0.444027 8.84401
1.74472 1.29498 14.2912
0.16264 1.63365 12.4955
-0.769587 -0.212369 18.9385
0.00215953 -0.563967 18.5669
2.38734 2.08061 15.1989
2.31793 1.37047 10.1815
0.11882 -1.03515 -5.6044
2.54865 0.112486 15.6293
0.257338 0.485927 3.43858
-0.752501 0.455367 19.1062
0.000827461 0.199198 18.08
1.68435 -1.06221 15.3034
0.211132 -0.923922 22.1674
0.10812 -0.703724 0.985428
0.144886 -0.835902 22.31
0.206167 -1.40896 7.63527
-0.930183 1.10348 19.4792
-0.00840664 0.792344 19.1573
-1.64049 1.67089 20.3666
-0.0319981 2.52121 19.4348
-1.37993 1.26822 22.0032
-0.0569628 3.63262 20.7657
-0.400799 0.194464 22.064
-0.0277514 1.13295 22.3693
-0.00954329 -0.33469 21.8992
-0.0159859 0.000533834 22.0484
0.0804915 -0.556725 21.7539
0.000279727 -0.526723 21.8658
-0.0310522 -0.58733 21.2912
1.27638 -1.28127 18.8993
0.589502 -0.463206 19.2643
0.616027 -0.370592 19.6825
1.24271 -0.727494 21.6031
1.87118 -1.23435 20.4658
-0.138392 0.00512771 19.3035
0.302114 -0.529598 21.6433
-0.17379 0.274307 19.8175
-0.114847 -0.0382922 21.7425
-0.433428 1.21153 19.607
-0.566067 0.425174 21.839
-1.1335 1.86972 16.6563
-1.17869 2.0847 15.972
-1.11495 0.758634 21.4774
-1.73328 1.40415 12.7692
-1.23964 0.7273 20.9419
0.76885 -0.214021 18.9468
0.692426 -0.282182 19.5823
-2.19573 2.20434 12.5996
-2.18503 1.71117 6.52587
-1.82893 0.669023 21.3221
-2.40895 0.12701 13.5791
-2.01708 0.472829 19.1635
0.746301 0.456715 19.0964
0.852564 -0.0132411 19.4553
-1.63857 -1.09381 12.799
-0.240308 -0.994066 21.8217
-1.16003 -0.710222 20.6485
-0.20022 -0.801897 21.0914
-1.26757 -0.902159 19.2679
0.916329 1.12786 19.4621
0.609493 0.37712 19.7134
1.60978 1.75507 20.3421
1.28335 0.882407 20.1564
1.36868 1.34898 22.0242
1.57401 0.85642 21.2144
0.405842 0.206728 22.0894
0.699273 0.259359 21.9037
0.0243023 -0.335132 21.9265
0.0870599 -0.19103 21.8476
-0.0318894 -0.602694 21.849
-0.158187 -0.473837 21.639
-0.366039 -0.561432 20.9844
0.840691 -0.394622 20.084
0.545418 -0.214169 19.9264
0.826534 -0.558744 21.1026
1.23459 -0.495187 20.5138
0.175914 -0.303298 21.5799
0.535052 -0.515759 21.4313
-0.20339 -0.00764159 21.7208
-0.0121217 -0.238475 21.6887
-0.622307 0.29567 21.5432
-0.497896 0.0414873 21.7825
-0.945212 0.503013 20.9604
-1.05277 0.305507 21.6808
-1.3059 0.0954679 21.8742
1.00111 -0.306451 20.0169
0.646437 -0.128251 19.8596
1.02807 -0.58002 21.1855
1.50634 -0.283508 20.4911
0.251308 -0.487915 21.6268
0.918214 -0.629693 21.4521
-0.247861 -0.184136 21.8027
0.181448 -0.503665 21.826
-0.820754 0.0404469 21.7924
-0.461124 -0.328513 21.9365
-1.21701 0.135833 21.1602
-1.1792 -0.265403 21.4728
-1.15684 -0.35743 21.5371
1.17356 -0.0149035 19.9703
0.6643 0.141468 19.8525
1.45736 -0.331888 21.0618
1.37099 0.287384 20.3881
0.900507 -0.543149 21.768
1.42189 0.00809487 21.3126
0.158401 -0.407681 21.9302
0.679758 -0.136266 21.8323
-0.517358 -0.451198 21.8543
0.00856901 -0.30947 21.8622
-0.991904 -0.661178 21.7019
-0.486242 -0.470932 21.7216
-0.551892 -0.55861 20.7304
0.809765 0.345295 20.0951
1.14703 0.434784 20.7516
0.849069 0.241005 21.5764
0.304875 -0.0110932 21.7833
-0.0775441 -0.240792 21.6382
-0.315778 -0.438597 21.1475
-0.922726 -0.365866 20.0257
-1.56971 -1.28567 18.5103
-1.18281 -0.764472 19.6578
-1.52205 -0.575098 19.4143
-0.647262 -0.355249 19.6253
-2.29299 -1.18215 20.4213
-0.925488 -0.585015 21.1712
0.44532 -0.605299 11.4818
-0.943818 -0.816896 21.5236
-1.12802 -1.01465 21.6073
-0.250495 -0.725262 21.7493
-0.189755 -0.401681 21.6056
0.332643 -0.00527465 12.0254
-0.002775 -0.253604 21.7056
0.0814104 -0.652982 21.805
0.236456 -0.129793 21.7733
0.255408 -0.0881437 21.7741
0.172052 0.228287 12.8224
0.28223 0.16645 21.8297
0.499893 -0.0594283 21.6333
0.794409 0.365647 21.8594
0.709848 0.174263 21.6299
0.736605 1.4531 15.672
0.862493 0.67901 21.7269
1.3128 0.338131 21.6745
1.48507 0.757684 21.4215
1.01948 0.325265 21.1359
1.73551 2.22111 17.6768
1.0398 0.697823 21.6292
1.9956 0.479954 20.7003
1.57539 0.473179 19.4772
-1.13518 -0.201333 19.9615
-2.28135 -0.358959 17.4959
-1.90018 0.134289 19.3212
-0.813896 -0.156346 19.4524
-3.06076 -0.540891 20.4814
-1.29238 -0.506725 21.1077
-2.378 -0.847935 21.3142
-0.985735 -1.51375 21.829
-0.528509 -0.645045 21.7474
-1.51259 -1.18361 22.0413
0.127823 -0.8287 21.0891
0.124444 -0.395663 21.9348
-0.349826 -0.585208 21.0852
0.836742 -0.190837 20.8324
0.765707 -0.280747 21.8548
0.334436 1.78816 5.69505
0.665599 -0.614593 21.3802
1.58341 -0.516483 21.9993
1.20762 -0.34753 21.2496
2.76195 0.204894 12.6614
1.45363 -0.759305 21.1558
1.95203 -0.00571805 20.2008
-1.03272 0.243805 20.0008
-1.59356 1.3162 18.7288
-0.945857 0.645226 19.8201
-0.7703 0.252343 19.5309
-2.06825 0.805457 20.1388
-1.46469 0.177075 20.8501
-3.23725 1.89769 20.3198
-1.48414 0.863433 20.6385
-2.48897 0.356714 21.4033
-1.1031 -0.0698681 21.6776
-3.14014 0.879984 22.3713
-1.17167 0.564413 21.7435
-1.05264 -0.046941 22.1494
-0.31923 -0.219649 21.8855
-0.617544 0.160557 21.2839
-0.319974 -0.00209177 21.9102
-0.0979975 -0.386107 22.0894
0.234526 -0.398646 21.7724
0.0589613 -0.650734 21.8152
0.0694684 -0.331359 21.8206
0.512503 -0.758263 21.474
0.415241 -0.527674 21.6174
0.466594 -1.32333 21.6689
0.0853903 -0.38351 21.573
0.405189 -0.687032 21.5469
1.57467 -1.27641 18.5307
0.0108473 -2.085 17.9083
0.0023354 -1.70213 16.3658
0.00575433 -0.624496 18.8464
0.00240178 -11.5159 16.9894
-0.428998 -0.601433 11.778
0.00241941 -1.42158 18.2317
2.36845e-05 -0.0223132 3.21928
-0.341257 0.00739727 12.2821
6.33264e-05 -0.208544 12.696
-0.0048221 -0.0263303 4.92537
-0.166701 0.215 13.0991
-0.0142038 -0.0382323 13.5677
-0.0903176 -0.334274 2.80927
-0.398739 1.48415 14.4229
-0.117069 -0.425859 10.5438
-0.0518502 -2.02405 -4.92765
-0.157685 -0.452703 -0.973281
-1.58169 2.32567 15.4639
0.0395862 -0.61871 6.2591
0.320933 -2.25094 -4.08602
0.215926 1.94865 9.06815
2.2802 -0.359874 17.5083
0.00116344 1.49541 14.9956
0.00248567 -0.255894 18.329
-0.0199648 1.89266 3.61609
-0.0429359 0.412608 0.891314
0.218258 -2.41462 -5.11385
-2.56978 0.345674 9.31579
0.152588 -1.50841 2.50693
0.272883 -1.5864 -1.5035
1.58642 1.34385 18.7041
-0.0180154 1.65288 19.027
-0.00574213 0.715811 18.5988
-0.0309938 4.74216 18.5364
3.22777 2.00276 20.285
-0.0350946 2.88008 19.9438
-0.0523159 6.72659 18.779
3.14674 0.931758 22.1218
-0.047852 2.52616 22.2917
-0.0203365 1.30373 19.5726
0.540623 0.215031 20.8808
-0.0236607 0.511138 22.1493
-0.0207724 -0.0382771 19.569
-0.069761 -0.609887 21.6519
-0.0188995 -0.276383 21.9749
-0.0232968 -0.841194 20.3433
-0.505166 -1.37364 21.2075
-0.0159913 -0.865776 21.7255
-0.0253374 -1.6797 20.0064
0.918598 -0.357229 20.0467
1.17314 -0.758412 19.6745
1.51197 -0.570396 19.4333
0.650585 -0.351245 19.6384
2.26978 -1.16587 20.4266
0.919879 -0.579547 21.1647
0.947165 -0.810909 21.5146
1.13059 -1.01175 21.6048
0.261171 -0.725124 21.7489
0.193606 -0.395095 21.6024
0.00602094 -0.256619 21.7023
-0.0777787 -0.65517 21.8186
-0.239532 -0.134371 21.7737
-0.245516 -0.0906632 21.7627
-0.279189 0.153943 21.8178
-0.486331 -0.066528 21.639
-0.769803 0.346986 21.8503
-0.700504 0.176169 21.6383
-0.84056 0.683927 21.7377
-1.29952 0.386123 21.5089
-1.52904 0.9237 21.0886
-1.08648 0.325037 21.1286
-1.119 0.854868 21.7233
-2.13537 0.776487 20.6367
-1.58735 0.642422 18.2625
1.11493 -0.196813 19.9885
1.8939 0.133277 19.3266
0.811636 -0.155336 19.4663
3.04833 -0.540582 20.4821
1.27883 -0.491242 21.1037
2.37661 -0.841098 21.307
0.987225 -1.50601 21.8274
0.523515 -0.638901 21.7441
1.51114 -1.17788 22.0536
-0.123767 -0.830611 21.1101
-0.124046 -0.389843 21.9147
0.347697 -0.579157 21.0768
-0.816639 -0.191632 20.8414
-0.771795 -0.296162 21.8793
-0.705223 -0.507891 20.8902
-1.73319 -0.204491 20.6476
-1.2355 -0.42039 21.4736
-1.5906 -0.822926 20.2716
-2.21393 0.185923 19.4046
1.0404 0.245977 19.998
0.948932 0.663386 19.8102
0.770818 0.254806 19.5253
2.08689 0.830558 20.1258
1.48083 0.181764 20.85
1.50911 0.906882 20.6279
2.55375 0.371708 21.4084
1.12083 -0.070455 21.6903
1.19439 0.603466 21.7634
1.06713 -0.0357628 22.1642
0.325484 -0.224789 21.89
0.335035 0.0180966 21.9322
0.110128 -0.377601 22.1036
-0.224883 -0.40334 21.7902
-0.0331325 -0.337816 21.8237
-0.436643 -0.778429 21.7781
-0.441781 -0.582154 21.5661
-0.0513505 -0.374953 21.6856
-0.317434 -0.752288 21.8726
-1.33277 -0.692973 19.5514
-0.985736 -0.904404 21.5926
0.103353 -0.403767 21.7867
0.422076 0.0894421 21.8171
1.10482 0.531195 21.7384
1.61559 0.955289 20.9104
-1.73906 -0.257556 19.2943
-1.66108 -1.16573 21.6436
-0.269539 -1.25221 21.481
0.389383 -0.482962 20.9593
1.26201 -0.0937486 20.8124
1.78985 -0.379693 21.0684
-1.42205 0.587915 19.5578
-2.30889 0.538446 20.7558
-1.82181 0.123959 22.0668
-0.532833 -0.190275 22.1592
0.178526 -0.555535 21.9351
0.589029 -0.809558 21.542
0.00649364 -1.9109 17.2094
-0.00343417 -0.0663076 2.87319
-0.000149839 -0.0209225 4.06986
-0.0163892 0.00133412 4.98135
-0.126036 -1.26152 0.251701
0.0591451 -2.65552 -3.78803
0.00393639 -0.441468 15.275
0.00225679 -1.17876 -3.76691
0.253673 -1.97025 -4.47618
-0.0143609 2.28452 17.6559
-0.0378753 4.32785 19.4239
-0.0343963 3.65179 21.6153
-0.0138455 0.715389 20.7065
-0.0242998 -0.311771 19.8198
0.011802 -1.18585 19.9915
1.31746 -0.686652 19.5756
0.990422 -0.900746 21.5885
-0.098502 -0.406638 21.7878
-0.411528 0.0788212 21.8141
-1.08467 0.560292 21.702
-1.72399 1.21309 20.8629
1.73287 -0.257272 19.3095
1.65653 -1.16017 21.6348
0.272709 -1.24832 21.4934
-0.381842 -0.483431 20.9617
-1.27528 0.0504052 20.412
-2.146 -0.126534 20.3925
1.42946 0.601936 19.5398
2.3393 0.5673 20.7467
1.86584 0.141447 22.0891
0.552505 -0.17884 22.1829
-0.163023 -0.566847 21.9765
-0.623737 -0.908774 21.5977
-2.52629 -0.372394 2.87417
-0.232785 -1.98904 0.754532
0.0269159 -0.0061598 0.821331
0.184765 0.131055 1.13684
-0.447744 0.0293883 0.00165993
0.0103443 0.0228792 0.866981
-10.6464 1.05369 9.40384
-0.0710091 0.378076 0.527213
-0.719071 -0.510408 2.46491
0.154583 0.0354149 0.537024
-0.00148926 0.00439235 -0.00326552
0.00305296 0.00802278 0.0295673
0.235583 -2.00786 0.769957
2.52581 -0.371434 2.87476
-0.0257381 -0.00509265 0.822239
0.434038 0.010703 -0.00434707
-0.179876 0.134136 1.11996
-0.00999965 0.0218104 0.852456
0.0706997 0.374861 0.522602
10.8909 1.04683 9.59368
0.718927 -0.50956 2.46389
0.000700656 0.00459463 -0.00342264
-0.156551 0.043258 0.531581
-0.00311873 0.00820541 0.0295429
0.0195566 -0.0435215 0.740222
-0.00108975 0.00981576 0.517951
3.29216e-06 5.33177e-05 0.000761579
0 0 0
0.0063162 0.03256 0.683196
-0.0147564 0.035334 0.517358
1.52354e-06 0.000108472 0.000551352
0 0 0
-0.607083 -0.480968 1.17153
0.00059978 0.0113246 0.0590711
4.8513e-05 0.000170741 0.000405565
-0.00138876 0.00182798 0.00266845
0.00112816 0.00342415 0.0101089
4.36267e-05 0.000150363 0.000388622
0 0 0
8.84773e-05 8.79383e-06 0.000464524
-0.0150905 -0.0351058 0.728418
3.5372e-18 -2.42674e-19 -3.5391e-17
0.00120271 0.0109595 0.527845
-3.39095e-06 4.83747e-05 0.000759153
-0.00014377 0.0403939 0.708618
0 0 0
0.0139796 0.0402293 0.541723
-1.6664e-06 0.000111921 0.000580576
0.607322 -0.48103 1.17305
0.00177672 0.00234089 0.00342216
-0.000595457 0.0112611 0.0591126
-3.40203e-05 0.00011971 0.000284827
-0.00113458 0.0034515 0.00995723
-8.95166e-05 8.81859e-06 0.000465532
-5.60666e-05 0.000193236 0.000495885
-3.04305e-05 0.00010601 0.000205719
1.35548e-07 -1.9463e-06 -1.12462e-05
-0.708082 2.12041 1.42221
1.51047e-05 -0.0143657 0.132936
0 0 0
-1.95845e-07 6.07409e-08 -1.79564e-05
3.35985e-06 -4.09303e-07 2.90334e-05
9.172e-05 0.00258917 0.0118713
-0.00787166 0.0108572 -0.00222965
0 0 0
0 0 0
2.4365e-07 6.64719e-06 4.1578e-05
5.00592e-07 4.47212e-08 3.77886e-05
0 0 0
1.10083e-05 0.0450714 0.171359
0 0 0
-0.00773234 0.00295635 0.0192723
0.000180758 0.0173375 -0.00624308
-0.000169578 -0.000533852 0.0657726
2.11055e-05 6.77147e-05 0.000250172
0 0 0
0.70835 2.12343 1.42422
-1.94259e-07 -2.48198e-06 -1.40069e-05
-3.25929e-06 -3.90514e-07 2.76556e-05
2.33962e-07 2.91676e-08 -2.16401e-05
0.00803394 0.0119985 -0.00262211
-9.07984e-05 0.00258974 0.0117862
-8.13087e-07 4.54016e-08 4.17205e-05
1.86689e-07 -5.1599e-06 -3.20807e-05
0.00762097 0.00291675 0.0190227
0 0 0
0 0 0
-4.82814e-05 0.000154679 0.000566457
3.65143e-06 0.000202357 0.000976781
0 0 0
-0.000485834 -0.00274728 0.0678996
-7.68821e-08 -3.2918e-06 -1.05863e-05
0 0 0
-9.19723e-09 9.52748e-09 -1.25204e-05
1.61818e-07 8.22512e-06 2.54379e-05
0.000193633 0.00598638 0.0221439
1.60028e-10 -2.18618e-08 1.27849e-05
3.85267e-08 6.15297e-09 -1.36964e-05
0.00134068 0.00556592 0.0131516
-0.00115268 0.0028648 0.0436084