# vtk DataFile Version 2.0
tri_press
ASCII
DATASET UNSTRUCTURED_GRID
POINTS 3682 float
-0.895 0.565 -2.27918
-0.895 0.565 2.27656
-0.895 1.005 -2.10191
-0.765 1.50619 2.035
0.895 0.565 -2.27918
0.895 0.565 2.27656
0.895 1.005 -2.10191
0.765 1.50619 2.035
-0.895104 0.564896 -0.7606
-0.895812 0.564188 0.75798
-0.864384 1.18478 -0.72294
-0.814887 1.34568 0.65603
0.895095 0.564905 -0.7606
0.896207 0.563793 0.75798
0.864381 1.18478 -0.72294
0.814882 1.34568 0.65603
-1.76214 0.177419 -3.44746
-1.76738 0.247102 -2.28851
-1.75966 0.242926 -0.766319
-1.74454 0.204156 0.783969
-1.73506 0.197214 2.30852
-1.73727 0.249187 3.47906
-1.74377 0.326362 4.62815
-1.76637 0.459733 -3.40901
-1.7709 0.549025 -2.26531
-1.75768 0.578084 -0.770289
-1.73345 0.588923 0.737301
-1.71768 0.613056 2.235
-1.72864 0.667295 3.40357
-1.74086 0.739196 4.55721
-1.7664 0.976877 -3.29294
-1.76592 1.05942 -2.14347
-1.73123 1.2087 -0.743619
-1.67047 1.35725 0.646341
-1.62877 1.49063 2.04887
-1.68151 1.53809 3.22321
-1.72267 1.58394 4.39936
-1.75641 1.8858 -3.2238
-1.75205 1.9933 -2.09524
-1.73129 2.19372 -0.740652
-1.69959 2.4231 0.583843
-1.68267 2.61184 1.93989
-1.69519 2.70843 3.0715
-1.71944 2.77152 4.2324
-0.881335 0.187631 -3.45646
-0.887998 0.262308 -2.30165
-0.886719 0.239909 -0.764556
-0.882987 0.18296 0.801618
-0.881787 0.161282 2.33938
-0.889943 0.224702 3.5
-0.897448 0.312034 4.64027
-0.885121 0.462074 -3.41179
-0.896456 0.647107 3.42083
-0.901725 0.728327 4.56635
-0.886679 0.954013 -3.27568
-0.859884 1.54097 3.22043
-0.892734 1.58432 4.39877
-0.88526 1.86433 -3.20673
-0.88569 1.97008 -2.07643
-0.875976 2.18036 -0.729315
-0.858272 2.42474 0.582482
-0.85037 2.62295 1.93017
-0.863755 2.71946 3.0618
-0.885063 2.77947 4.22535
0.893571 0.18762 -3.45646
0.893856 0.262301 -2.30165
0.893424 0.239865 -0.764556
0.894353 0.182694 0.801618
0.887142 0.161179 2.33938
0.839102 0.224622 3.5
0.810543 0.311947 4.64027
0.893238 0.462066 -3.41179
0.814875 0.647054 3.42083
0.793638 0.728251 4.56635
0.888989 0.954007 -3.27568
0.770156 1.54093 3.22043
0.772539 1.58426 4.39877
0.864265 1.86432 -3.20673
0.855901 1.97006 -2.07643
0.839275 2.18033 -0.729316
0.81845 2.4247 0.582482
0.80022 2.6229 1.93017
0.789274 2.7194 3.0618
0.780446 2.7794 4.22535
1.77752 0.177387 -3.44746
1.77758 0.247073 -2.28851
1.77106 0.242817 -0.766319
1.76157 0.203783 0.783968
1.74407 0.196955 2.30852
1.7014 0.248996 3.47907
1.66959 0.32618 4.62815
1.77728 0.459711 -3.40901
1.7766 0.549012 -2.26531
1.76428 0.578024 -0.77029
1.74503 0.588534 0.737301
1.72356 0.612834 2.235
1.67647 0.667136 3.40357
1.65031 0.73903 4.55721
1.77015 0.976857 -3.29294
1.7674 1.05941 -2.14347
1.73328 1.20867 -0.743619
1.67666 1.35711 0.64634
1.62886 1.49049 2.04887
1.61958 1.53796 3.22321
1.61957 1.5838 4.39936
1.73826 1.88575 -3.2238
1.72694 1.99326 -2.09524
1.70087 2.19366 -0.740653
1.6664 2.42301 0.583842
1.63812 2.61172 1.93989
1.62617 2.70831 3.0715
1.62036 2.77138 4.2324
-0.899936 0.785 -2.19548
0 0.565 -2.27918
-0.89837 0.56163 -1.51989
-0.892105 1.03559 2.21789
0 0.562624 2.27894
-0.898625 0.561375 1.51727
0 0.994241 -2.09115
-0.877079 1.09228 -1.41243
0 1.50623 2.03505
-0.790102 1.42609 1.34552
0.899936 0.785 -2.19548
0.898364 0.561636 -1.51989
0.892055 1.03559 2.21784
0.898631 0.561369 1.51727
0.877048 1.09225 -1.41243
0.790103 1.42609 1.34552
-0.895088 0.564912 -0.00130999
-0.899939 0.874839 -0.74177
-4.67008e-06 0.420725 -0.7606
-0.899923 0.954934 0.707005
0.000197675 0.420583 0.75798
-0.839665 1.26526 -0.033455
-1.48436e-06 1.43039 -0.72294
-2.66941e-06 1.73815 0.65603
0.895088 0.564912 -0.00130999
0.899939 0.874842 -0.74177
0.899923 0.954734 0.707005
0.839665 1.26526 -0.033455
-0.896694 0.829919 -1.46616
0.896694 0.829921 -1.46616
-2.33504e-06 0.420611 -1.51989
-7.4218e-07 1.18656 -1.41243
0 0.785 -2.2808
-0.899935 0.914887 -0.0173825
0.899935 0.914788 -0.0173825
9.65026e-05 0.420736 -0.00130999
-2.07688e-06 1.72561 -0.033455
-0.899959 0.995265 1.43139
0.899959 0.995165 1.43139
9.88376e-05 0.420595 1.51727
-1.33471e-06 1.75079 1.34552
0 1.03559 2.25043
-0.899949 0.675 -2.23981
-0.4475 0.565009 -2.27917
-0.898078 0.561922 -1.89954
-0.899952 0.800297 2.25362
-0.4475 0.564963 2.2766
-0.898519 0.561481 1.89692
-0.899941 0.895 -2.15117
-0.4475 0.993864 -2.09077
-0.888393 1.05099 -1.75717
-0.837867 1.27089 2.13576
-0.3825 1.50621 2.03502
-0.777737 1.46633 1.69026
0.4475 0.564998 -2.27918
0.899949 0.675 -2.23981
0.89807 0.56193 -1.89954
0.4475 0.564978 2.27658
0.899953 0.800297 2.25362
0.898527 0.561473 1.89692
0.4475 0.993833 -2.09074
0.899941 0.895 -2.15117
0.888389 1.05099 -1.75717
0.3825 1.50622 2.03503
0.837867 1.27089 2.13576
0.777739 1.46633 1.69026
-0.898641 0.561359 -1.14025
-0.895102 0.564898 -0.380955
-0.899995 0.718631 -0.751185
-0.482769 0.422381 -0.7606
-0.89873 0.56127 1.13763
-0.895086 0.564914 0.378335
-0.899995 0.758498 0.732493
-0.48291 0.42218 0.75798
-0.870884 1.13868 -1.06768
-0.899908 1.03868 -0.732355
-0.852028 1.22502 -0.378198
-0.493548 1.4303 -0.72294
-0.802474 1.38587 1.00077
-0.872645 1.15793 0.681518
-0.827261 1.30546 0.311288
-0.505539 1.7381 0.65603
0.898635 0.561365 -1.14025
0.482762 0.422381 -0.7606
0.895097 0.564903 -0.380955
0.899995 0.718635 -0.751185
0.898735 0.561265 1.13763
0.483203 0.422186 0.75798
0.89509 0.56491 0.378335
0.899995 0.758299 0.732493
0.870902 1.1387 -1.06768
0.493542 1.43029 -0.72294
0.899908 1.03868 -0.732355
0.852028 1.22502 -0.378198
0.802471 1.38586 1.00077
0.505535 1.7381 0.65603
0.872672 1.15784 0.681518
0.827276 1.30547 0.311288
-0.89642 0.80746 -1.83082
-0.449968 0.785 -2.2808
-1.16752e-06 0.420608 -1.89953
0 0.675 -2.26269
-0.897813 0.695774 -1.49302
-0.449186 0.420612 -1.51989
-0.899958 1.01543 1.82464
-0.446053 1.03559 2.25043
4.94188e-05 0.428575 1.8981
0 0.79911 2.2786
-0.897614 0.77832 1.47433
-0.449263 0.420595 1.51727
-3.7109e-07 1.1257 -1.75179
0 0.889621 -2.15973
-0.895631 0.961098 -1.43929
-0.43854 1.18734 -1.41243
-6.67353e-07 1.75723 1.69028
0 1.27091 2.16946
-0.85642 1.21068 1.38845
-0.395052 1.75079 1.34552
0.89642 0.80746 -1.83082
0.449968 0.785 -2.2808
0.897813 0.695779 -1.49302
0.449181 0.420612 -1.51989
0.899958 1.01538 1.82461
0.446028 1.03559 2.25043
0.897615 0.778267 1.47433
0.449365 0.420595 1.51727
0.895631 0.961084 -1.43929
0.438524 1.18734 -1.41243
0.856446 1.21063 1.38845
0.395051 1.75079 1.34552
-0.899995 0.738658 -0.00934625
-0.482714 0.422388 -0.00130999
-0.899968 0.852379 -1.10396
-0.899933 0.894863 -0.379576
-3.50256e-06 0.420614 -1.14025
4.59163e-05 0.42073 -0.380955
-0.899926 0.934911 0.344811
-0.899961 0.9751 1.0692
0.000147089 0.420741 0.378335
0.000148256 0.420589 1.13763
-0.890375 1.10036 -0.0254188
-0.53488 1.72553 -0.033455
-1.11327e-06 1.22191 -1.06768
-1.78062e-06 1.66134 -0.378198
-2.37315e-06 1.73177 0.311288
-2.00206e-06 1.74432 1.00077
0.899995 0.738608 -0.00934625
0.48281 0.422388 -0.00130999
0.899968 0.852381 -1.10396
0.899933 0.894815 -0.379576
0.899926 0.934761 0.344811
0.899961 0.974949 1.0692
0.890385 1.10032 -0.0254188
0.534878 1.72553 -0.033455
-0.897483 0.685387 -1.86518
-0.898112 0.707821 -1.1221
-0.899956 0.995454 -1.08582
-0.896797 0.928049 -1.79399
0.897483 0.685389 -1.86518
0.896795 0.928042 -1.79399
0.899956 0.995447 -1.08582
0.898112 0.707826 -1.1221
-0.448343 0.420608 -1.89953
0.44834 0.420608 -1.89953
0.448363 0.420614 -1.14025
-0.44837 0.420614 -1.14025
-0.44302 1.11228 -1.75448
-0.435366 1.22191 -1.06768
0.435357 1.22191 -1.06768
0.443012 1.11228 -1.75448
-0.448734 0.675 -2.28843
-0.448734 0.89231 -2.15882
0.448734 0.89231 -2.15882
0.448734 0.675 -2.28843
-0.899995 0.728644 -0.380266
-0.899995 0.748578 0.361573
-0.881477 1.12913 0.328049
-0.898073 1.07099 -0.378887
0.899995 0.728622 -0.380266
0.898077 1.07097 -0.378887
0.881497 1.12906 0.328049
0.899995 0.748453 0.361573
-0.482741 0.422384 -0.380955
0.482786 0.422384 -0.380955
0.482954 0.422392 0.378335
-0.482758 0.422391 0.378335
-0.555908 1.6613 -0.378198
-0.520182 1.73176 0.311288
0.520178 1.73176 0.311288
0.555906 1.6613 -0.378198
-0.897804 0.768941 1.10341
-0.899977 0.789309 1.86078
-0.847165 1.24079 1.75745
-0.869548 1.18049 1.03499
0.897805 0.768765 1.10341
0.86958 1.18042 1.03499
0.847172 1.24076 1.75744
0.899977 0.789282 1.86076
-0.448535 0.420589 1.13763
0.448784 0.420589 1.13763
0.448432 0.428557 1.89751
-0.448381 0.428555 1.89751
-0.401248 1.74432 1.00077
-0.388776 1.75723 1.69027
0.388775 1.75723 1.69027
0.401245 1.74432 1.00077
-0.446776 0.799704 2.2786
0.446764 0.799704 2.2786
0.414264 1.2709 2.16947
-0.414276 1.2709 2.16947
-0.899956 0.62 -2.26198
-0.67125 0.565014 -2.27917
-0.89826 0.56174 -2.08936
-0.899965 0.682649 2.26758
-0.67125 0.56496 2.2766
-0.89507 0.56493 2.08674
-0.899943 0.95 -2.12901
-0.67125 1.00019 -2.0971
-0.893467 1.02977 -1.92954
-0.80165 1.38854 2.0856
-0.57375 1.50621 2.03502
-0.771536 1.48643 1.86263
0.67125 0.564998 -2.27918
0.899956 0.62 -2.26198
0.898251 0.561749 -2.08936
0.67125 0.564981 2.27658
0.899965 0.682649 2.26758
0.895081 0.564919 2.08674
0.67125 1.00015 -2.09706
0.899943 0.95 -2.12901
0.893464 1.02976 -1.92954
0.57375 1.50623 2.03504
0.801661 1.38854 2.08561
0.771534 1.48642 1.86263
-0.898769 0.561231 -0.950423
-0.89509 0.56491 -0.570778
-0.899995 0.640541 -0.755893
-0.724174 0.423164 -0.7606
-0.898783 0.561217 0.947803
-0.895086 0.564914 0.568158
-0.899995 0.660297 0.745236
-0.724492 0.422921 0.75798
-0.870445 1.16454 -0.895311
-0.886241 1.11378 -0.727648
-0.858187 1.20488 -0.550569
-0.740043 1.42969 -0.72294
-0.808678 1.36577 0.828401
-0.843771 1.25181 0.668774
-0.821033 1.32553 0.483659
-0.718562 1.65859 0.65603
0.898765 0.561235 -0.950423
0.724168 0.423164 -0.7606
0.895096 0.564904 -0.570778
0.899995 0.640545 -0.755893
0.898787 0.561213 0.947803
0.724735 0.422929 0.75798
0.895091 0.564909 0.568158
0.899995 0.660099 0.745236
0.870448 1.16454 -0.895311
0.740034 1.42968 -0.72294
0.886235 1.11378 -0.727648
0.858196 1.20489 -0.550569
0.808676 1.36577 0.828401
0.718561 1.65859 0.65603
0.843767 1.25175 0.668774
0.821034 1.32553 0.483659
-0.899942 0.73 -2.21765
[...]
POINT_DATA 3682
SCALARS point_scalars float 1
LOOKUP_TABLE default
-78.312
-56.3626
-105.528
-58.1242
-77.7305
-55.3761
-104.22
-57.6769
-40.4767
-37.8647
-70.8853
-52.2175
-41.0902
-38.0802
-70.8614
-52.2164
-43.4588
-170.461
-40.6551
-40.8485
-56.8252
-56.1294
-56.1294
27.7395
-179.694
-41.5026
-39.7237
-56.8262
-56.1294
-56.1294
-99.0595
-127.93
-60.7431
-48.7496
-53.9016
-59.7195
-59.4845
-100.323
-99.1986
-118.235
-59.1584
-61.6036
-58.4209
-57.8252
67.2272
-141.762
-39.2908
-37.9534
-52.219
-51.8161
-50.592
128.488
-55.1463
-46.8788
154.107
-51.3843
-49.6915
17.087
-45.0449
-101.229
-62.7923
-64.89
-57.7431
-57.691
66.7134
-140.799
-39.8763
-36.7868
-51.5846
-50.8031
-46.7839
130.051
-46.1821
-45.9491
154.044
-50.4568
-49.25
16.0418
-44.0013
-101.723
-62.7317
-66.1408
-57.3728
-55.8045
-41.9767
-170.425
-44.1567
-38.814
-55.8924
-55.1105
-55.1105
27.5337
-179.918
-42.0121
-39.6035
-55.9163
-55.1105
-55.1105
-99.0155
-127.907
-60.7361
-48.624
-53.4587
-58.1395
-59.9377
-98.7253
-99.1562
-116.97
-59.1046
-61.2614
-58.0093
-57.3365
-113.448
76.1013
-46.9983
-58.4222
-30.4392
-41.3208
-30.4515
-49.1931
-51.3701
-50.4127
-113.787
-46.8567
-57.7049
-41.1523
-49.1392
-50.2409
-38.8114
-47.6566
-43.9201
-44.3001
-38.3776
-62.2697
36.0286
-67.8092
-38.745
-47.7255
-44.1459
-62.2195
-46.1611
-46.088
-70.0567
-6.30967
176.137
-47.2483
-47.2073
-38.1565
-110.653
-44.8395
-44.5853
-41.3015
-59.1447
-46.3048
-117.563
80.1453
-73.7846
-55.7273
-41.2657
-46.555
-94.2804
-50.9366
-69.8668
-58.5357
-51.3813
-52.7794
79.899
-117.5
-73.5393
-40.1872
-54.8851
-46.2868
-50.9948
-93.586
-69.7988
-51.1292
-58.0549
-52.5052
-39.1488
-39.5248
-43.6278
-42.7307
-39.8477
-37.8017
-41.6003
-37.9495
-46.7331
-56.3792
-69.0488
31.6332
-50.474
-48.9681
-56.1252
-63.5902
-38.4244
-42.8555
-39.4305
-43.8255
-39.661
-37.816
-37.8542
-41.3913
-46.6939
31.6629
-56.3842
-68.9892
-50.3948
-63.545
-48.871
-56.1228
-73.5669
159.879
-108.333
207.124
-46.4358
-66.3598
-48.086
-50.1096
-41.9967
-35.8797
-42.9189
-41.8589
-28.4019
137.789
-46.9001
-13.9993
-62.801
-51.5959
-48.2827
-57.982
-73.5329
159.97
-46.3345
-66.3059
-47.7131
-49.4003
-42.68
-41.6678
-46.8386
-13.9895
-48.0414
-57.902
-42.8796
-37.6789
-42.6715
-48.7537
-52.5527
-39.8433
-45.2877
-44.3308
-37.7896
-39.6826
-55.057
-100.308
21.967
-95.5704
-81.2284
-60.6056
-42.8543
-37.6712
-42.6385
-48.7345
-45.2284
-44.0701
-54.8946
-100.259
-74.368
-41.2922
-46.0517
-69.6798
-74.2539
-69.6418
-46.0212
-41.2177
-103.408
-103.307
-50.6062
-50.5911
-28.237
16.143
16.1297
-28.2406
199.481
134.172
134.204
199.558
-43.8807
-41.5538
-51.6128
-57.8809
-43.8689
-57.8358
-51.5697
-41.55
-39.0702
-39.0833
-37.2931
-37.2879
-90.925
-74.6485
-74.6006
-91.148
-41.9658
-46.1144
-50.6203
-48.1695
-41.6392
-47.9917
-50.238
-45.71
-39.7703
-39.5822
-45.1035
-45.5168
-58.7536
-64.2302
-64.0441
-58.708
-43.8951
-42.6538
-51.447
-51.6827
-86.5393
85.7397
-107.639
-55.5107
-46.4798
-49.3627
-93.0471
-61.458
-92.3494
-57.3953
-51.9375
-55.1556
86.3952
-86.56
-107.659
-45.4624
-54.5914
-48.7473
-61.8501
-92.7585
-92.343
-51.593
-56.9883
-54.8039
-44.6508
-39.7209
-42.0993
-40.5777
-43.771
-36.9672
-40.661
-37.0884
-66.4653
-64.1705
-71.2127
-50.4596
-51.116
-50.5472
-53.8872
-58.6331
-45.6969
-41.026
-39.7936
-42.4042
-41.4345
-36.9935
-37.2319
-40.427
-66.4444
-50.4042
-64.156
-71.1745
-51.0835
-58.5697
-50.4866
-53.9001
-143.515
-91.4723
-107.365
143.02
81.9465
81.7131
-160.087
171.145
-56.4112
-42.0592
-46.2424
-60.7214
-55.8061
-58.2678
-50.9056
-50.178
-34.7948
-34.0041
-38.9516
-32.5662
-43.3159
-39.9451
-42.2478
-41.9394
-36.6308
-36.7893
-28.244
87.6384
-61.4253
-42.7977
-47.954
-26.2952
-51.3901
-51.2598
-56.7143
-51.8705
-51.322
-50.1675
-49.3184
-56.0936
-143.438
-96.4339
-107.384
142.972
-56.3106
-41.7793
-46.1183
-60.6252
-55.0742
-57.6935
-50.4161
-49.5785
-43.0763
-39.8504
-42.0385
-41.7013
-61.1907
-42.7726
-47.8999
-26.2732
-51.1024
-50.0405
-49.1012
-55.9846
-39.2073
-38.3723
-41.0351
-37.0713
-45.3168
-51.1499
-45.355
-48.6909
-43.5032
-43.5445
-47.4344
-41.5098
-42.7998
-46.5644
-44.6565
-44.2417
-38.3198
-38.2617
-37.9658
-38.9895
-65.9082
-58.9464
-58.9705
-77.6707
35.9019
35.946
35.2783
-3.38176
-66.7859
-66.7635
-73.4887
-63.3062
-39.1378
-38.32
-41.018
-37.0252
-45.4379
-51.181
-45.4149
-48.7101
-42.6221
-46.435
-44.5768
-44.0191
-65.8311
-58.8942
-59.1211
-77.5554
-55.294
-46.238
-46.2283
-42.5569
-55.2426
-46.1528
-46.1613
-42.4759
-85.2217
-69.2235
-69.1992
-60.1675
-20.9248
-8.1949
-8.19026
8.9415
166.065
204.288
142.365
166.124
-44.9102
-48.1588
-46.2443
-50.2602
-44.8788
-48.1185
-46.2146
-50.2025
-38.0349
-38.8331
-37.8236
-38.033
-108.747
-129.127
-92.5899
-108.723
-46.0039
-43.7788
-46.9476
-44.2461
-45.705
-43.5275
-46.6982
-44.0083
-42.0948
-41.5043
-41.3958
-40.4631
-59.9538
-58.896
-58.8536
-59.3053
-48.1114
-40.468
-49.9791
-47.3702
-107.041
194.712
-154.294
169.017
-73.8752
-94.7115
-49.1916
-47.0605
-45.7563
-42.0451
-45.7153
-48.0887
-101.763
125.942
-32.917
80.3469
-70.5123
-33.2826
-52.487
-51.2066
-58.0556
-51.4811
-51.5124
-63.5327
-154.406
169.214
-106.872
194.755
-73.727
-94.3605
-45.0375
-40.8268
-48.6314
-46.2506
-45.3171
-47.8144
-32.9013
80.1773
-101.774
126.083
-70.4662
-33.2288
-57.8051
-51.2827
-52.0821
-50.8727
-51.1948
-63.3144
-40.5348
-47.996
-41.8838
-38.0378
-42.6319
-43.8764
-46.1067
-40.4754
-41.1722
-39.9009
-39.9547
-36.41
-41.2641
-42.2195
-37.4418
-39.0332
-48.6459
2.4262
-51.7736
-57.9942
-63.7702
-106.379
29.789
-6.54876
-49.1438
-55.9983
-50.1281
-48.0884
-53.7296
-64.0698
-68.3648
-60.3002
-40.2759
-47.923
-46.2156
-40.5367
-41.8712
-37.9565
-42.8102
-43.9336
-40.8224
-39.6101
-37.418
-38.8219
-39.9973
-36.4877
-41.2289
-41.8122
-48.6078
2.56121
30.5069
-6.10393
-51.7767
-57.9764
-63.7175
-106.299
-49.0056
-55.9366
-68.3189
-60.2568
-50.0685
-47.9501
-53.7756
-63.9706
-74.2451
-71.9592
198.759
137.581
-107.52
-107.469
204.693
204.786
-55.7993
-42.1889
-80.5885
-57.2158
-47.0431
-49.7919
-47.1507
-51.4343
-42.827
-43.0791
-38.6895
-37.6323
-42.1944
-44.1637
-40.6513
-43.6273
-27.7135
-27.7317
137.153
137.188
-43.9684
-54.4707
-25.8301
2.08886
-63.2171
-63.1192
-51.6132
-51.7524
-49.2303
-47.8174
-57.8236
-59.4056
-74.1759
-71.9323
137.553
198.825
-55.7165
-42.0441
-80.5194
-57.1769
-49.4377
-46.6578
-46.0981
-51.0452
-41.9689
-43.8759
-40.4808
-43.3674
-54.3862
-43.9076
2.10496
-25.84
-47.6269
-48.9431
-59.2885
-57.7649
-43.5034
-42.2179
-38.2309
-37.3593
-41.906
-44.2917
-46.1061
-52.5209
-52.1281
-52.1189
-39.6032
-39.6151
-43.1348
-47.8907
-43.0845
-46.3011
-37.6542
-37.6628
-39.7072
-39.6215
-53.4377
-56.7934
-120.458
-84.1193
20.7229
20.7293
-94.6117
-94.5963
-79.7053
-79.683
-60.168
-60.1442
-43.4725
-42.2058
-38.2245
-37.3594
-44.2667
-41.8507
-46.0934
-52.4893
-47.8428
-43.1109
-42.796
-46.0808
-56.7265
-53.406
-84.0664
-120.267
-106.173
-56.0468
-55.5997
-107.381
-42.0358
-43.6986
-42.3115
-41.8631
-58.5642
-44.5046
-43.0472
-47.8734
-99.101
-106.116
-54.6462
-57.6678
-106.051
-107.265
-55.5374
-55.9443
-99.0666
-57.5763
-54.5894
-106.195
-58.5511
-47.8689
-42.9789
-44.459
-42.3803
-41.6686
-42.206
-43.805
-140.006
-154.832
-83.5427
-73.0978
-140.397
-73.0249
-83.5076
-154.956
-48.787
-47.1366
-59.302
-52.6915
-47.6647
-52.8198
-59.3136
-47.1023
-43.3255
-34.2363
-21.8513
-29.4193
-8.30223
33.8982
7.88699
-11.3287
-7.91877
-11.2875
7.90102
33.8427
-43.2608
-29.384
-21.8327
-34.2039
169.105
191.238
205.355
174.031
70.9751
78.0916
141.4
123.488
70.1439
123.69
141.409
78.0327
169.121
174.133
205.511
191.265
-41.9883
-41.5816
-45.6518
-46.1994
-39.6758
-42.9419
-44.0914
-40.5264
-52.0631
-56.271
-49.0343
-47.1355
-64.6821
-52.607
-51.6225
-61.4794
-42.0591
-46.2352
-45.6187
-41.5526
-64.6514
-61.41
-51.5692
-52.6074
-52.0304
-47.0573
-49.0065
-56.214
-39.7359
-40.5337
-44.068
-42.874
-38.8291
-41.2428
-38.6341
-37.4913
-38.8223
-37.4189
-38.6359
-41.2705
-36.1132
-37.8242
-37.7128
-36.7416
-35.8709
-36.7443
-37.716
-37.8507
-119.886
-89.5127
-127.482
-3.0202
-60.4279
-72.2537
-90.7553
-69.3846
-60.3475
-69.2687
-90.7325
-72.2318
-119.813
-2.96952
-127.466
-89.3357
-41.8616
-41.3963
-43.1431
-43.0884
-48.796
-49.8833
-44.6816
-43.8198
-53.1477
-50.1774
-48.0659
-52.2425
-49.5977
-46.1941
-46.5392
-48.9513
-41.1426
-42.8007
-42.8969
-41.2008
-49.4993
-48.7753
-46.3231
-46.0146
-52.7643
-51.8073
-47.7735
-49.9144
-48.2298
-43.5515
-44.3855
-49.3488
-40.2297
-38.953
-40.542
-40.5219
-38.2375
-40.3175
-40.4513
-38.8706
-51.1183
-40.7306
-42.4389
-44.1848
-51.9529
-44.4756
-42.5936
-41.1545
-54.7114
-55.9039
-58.9547
-62.7127
-60.5883
-57.1226
-59.8855
-57.5819
-60.264
-57.4193
-59.8239
-56.9891
-54.6562
-62.6905
-58.9238
-55.8225
-46.1419
-35.8413
-43.3882
-48.7565
-45.2647
-48.0473
-42.4297
-34.8028
-51.075
-51.6909
-50.4492
-50.5075
-51.3786
-50.9327
-50.702
-51.7843
-73.2129
73.3066
-163.289
-56.9729
-49.2877
-49.6341
-120.992
-81.8066
-117.198
-57.9736
-53.1815
-55.0009
74.9881
-73.2915
-163.415
-48.2884
-55.9949
-48.8821
-78.782
-119.508
-117.624
-52.7963
-57.4655
-54.6234
-42.9772
-39.9928
-41.2411
-38.8855
-42.6374
-36.6958
-39.9572
-32.8389
-70.9595
-67.293
-71.2995
-104.872
-51.5993
-51.3422
-52.9629
-54.6463
-44.623
-39.6639
-40.2025
-41.6869
-40.7894
-35.1877
-37.0128
-39.7594
-70.9393
-104.839
-67.2741
-71.2686
-51.5853
-54.6346
-51.3091
-52.9763
-125.303
-101.427
-157.727
100.869
76.8088
77.9552
-156.657
134.447
-50.9235
-44.1777
-46.3511
-55.7015
-56.2099
-58.7425
-53.7604
-50.004
-31.9404
-31.5183
-35.2105
-30.8861
-42.2267
-40.5711
-42.0094
-40.8557
-33.8983
-33.9834
-32.5733
39.1933
-54.3842
-45.561
-49.558
-40.2897
-51.3775
-51.3118
-52.8997
-51.5295
-50.7664
-50.1776
-49.949
-53.7205
-125.27
-103.175
-157.488
100.586
-50.8104
-43.9901
-46.2186
-55.6174
-55.5049
-58.0786
-53.1823
-49.3492
-42.0346
-40.4413
-41.8253
-40.5306
-54.4213
-45.4848
-49.5055
-40.2482
-50.5685
-50.0288
-49.7546
-53.5879
-38.9607
-38.5272
-39.9657
-37.0574
-46.3722
-49.2596
-46.7199
-48.3024
-43.7895
-43.8076
-45.4524
-42.6768
-43.4992
-45.1911
-44.5867
-44.2605
-38.3705
-38.3421
-38.1147
-38.6721
-64.0397
-60.5607
-60.7402
-69.1834
36.0505
35.9904
39.7862
22.4876
-67.5572
-67.546
-70.428
-65.6083
-38.9183
-38.5061
-39.9256
-37.0376
-46.4646
-49.3081
-46.7996
-48.3489
-43.334
-45.0499
-44.4761
-44.068
-63.9796
-60.4948
-60.7254
-69.0543
-49.8558
-46.1791
-46.4868
-43.8862
-49.793
-46.1001
-46.4177
-43.8061
-76.4617
-69.8502
-69.8383
-64.6567
-14.0877
-6.81523
-6.81281
1.72142
173.565
195.504
128.007
175.929
-46.0116
-47.7589
-46.8428
-48.7125
-45.9761
-47.7144
-46.808
-48.6645
-38.1261
-38.438
-37.9472
-38.1253
-110.208
-121.107
-100.584
-110.198
-45.3078
-44.2836
-45.8409
-44.5971
-45.0361
-44.0293
-45.5887
-44.3533
-41.679
-41.3688
-41.3129
-40.8393
-59.4341
-59.1083
-59.0867
-59.1123
-47.9956
-43.5904
-48.2413
-46.4381
-113.291
-109.715
-148.319
136.284
82.5384
81.0903
-150.641
138.033
-87.2219
-63.8851
-73.564
-86.0385
-55.3533
-55.8937
-50.6818
-47.3766
-44.2036
-37.7219
-42.8743
-41.4699
-47.8752
-44.6968
-45.8826
-48.6993
-92.4512
-92.6198
-153.262
101.924
-55.7239
-45.9939
-49.652
29.3392
-79.7887
-65.8993
-73.0018
-48.5383
-58.2262
-57.5919
-53.7959
-51.8652
-51.4732
-51.3615
-53.6493
-51.2837
-53.6584
-51.9416
-52.052
-58.321
82.4175
81.2812
-150.44
138.414
-113.214
-109.654
-148.138
136.28
-86.9937
-63.762
-73.3789
-85.2715
-43.1435
-36.8265
-42.0575
-40.2915
-54.4803
-55.0893
-50.0161
-46.668
-47.4117
-44.4327
-45.5258
-47.5737
-55.6579
-46.089
-49.6177
29.2583
-91.2443
-97.8334
-153.563
101.483
-79.7375
-65.8201
-72.9326
-48.7372
-51.1722
-51.1678
-53.3815
-51.0557
-57.7986
-57.0608
-53.3597
-51.4525
-53.3509
-51.6966
-51.7478
-58.0591
-39.9617
-40.5043
-39.9476
-43.1842
-39.6118
-39.3394
-40.6803
-37.7511
-42.8749
-44.374
-43.345
-43.7394
-42.0769
-43.1858
-44.3631
-41.4389
-40.3134
-39.5296
-40.6696
-39.7822
-37.3676
-38.0292
-38.9784
-36.2108
-41.1076
-42.1728
-41.3102
-42.1369
-37.7252
-38.2122
-37.641
-38.532
-57.2933
-42.863
-49.5126
-21.4011
-59.996
-53.5451
-54.4817
-57.4229
-70.322
-67.5891
-66.0933
-82.3386
20.2021
35.0665
35.7081
16.7954
-50.7519
-50.1965
-49.7447
-52.8344
-49.7561
-48.0507
-49.4667
-48.5538
-54.9358
-57.4794
-54.9875
-60.1153
-62.5085
-65.4649
-65.8529
-61.954
-39.0306
-40.0755
-39.5231
-42.7162
-42.2936
-43.259
-44.4961
-41.5329
-39.6097
-39.2854
-40.6112
-37.6715
-43.1219
-44.5259
-43.5882
-43.858
-39.6701
-39.4321
-40.3954
-39.9786
-37.5362
-38.1202
-37.5736
-38.3417
-37.5335
-38.0719
-39.0306
-36.3695
-40.8807
-41.9788
-41.2173
-41.7953
-57.2029
-42.8413
-49.4709
-20.4154
20.2501
35.0664
35.7343
16.8961
-59.9899
-53.5623
-54.4914
-57.4187
-70.2751
-67.5155
-66.0387
-82.2546
-50.6965
-50.0951
-49.6351
-52.7624
-62.4517
-65.431
-65.8076
-61.9101
-49.6756
-47.9371
-49.3906
-48.437
-54.944
-57.4511
-54.9699
-60.0199
-87.521
-62.9903
-73.9779
-73.1072
154.408
161.984
187.825
125.66
-125.975
-94.158
-108.085
-108.051
198.152
206.414
206.879
206.928
-46.1601
-46.2955
-50.1742
-43.748
-63.9724
-68.0722
-71.7142
-61.3703
-49.213
-47.0311
-47.5498
-48.9084
-50.4496
-49.3382
-48.8629
-50.8614
-40.8855
-42.6446
-42.1699
-42.3013
-34.1597
-37.8676
-36.7453
-36.198
-42.5547
-43.3281
-42.4877
-43.5852
-41.9692
-41.6827
-41.1575
-42.615
-29.2091
-25.2649
-28.2995
-28.3078
120.775
140.537
138.006
138.103
-47.0238
-46.2932
-44.7323
-49.9655
-19.0421
-10.5926
-20.7977
-6.54158
-60.6015
-60.7201
-62.9267
-62.877
-52.1665
-50.9846
-51.5899
-51.6577
-48.7965
-47.7536
-48.655
-47.9745
-57.2324
-58.5439
-57.7808
-58.4921
-87.4801
-62.9503
-73.9288
-73.0774
154.56
162.039
125.677
187.882
-46.0465
-46.2019
-50.0853
-43.6306
-63.8994
-68.0342
-71.6547
-61.322
-48.7893
-46.6998
-48.5464
-47.17
-49.8033
-48.492
-47.9759
-50.4452
-42.3285
-43.0816
-42.1881
-43.3236
-41.7519
-41.5285
-40.981
-42.3976
-46.9599
-46.2267
-49.8981
-44.6673
-19.0262
-10.5858
-6.52589
-20.792
-48.5643
-47.5076
-47.7488
-48.3945
-57.1386
-58.4818
-58.398
-57.7127
-41.9887
-43.8366
-43.2347
-42.5184
-37.446
-37.8809
-37.9091
-37.4975
-43.8902
-42.075
-42.2896
-43.3094
-48.9977
-48.3518
-47.412
-50.551
-49.7993
-55.8937
-52.4497
-52.4454
-40.5995
-39.2684
-39.7732
-39.7797
-45.0381
-45.7797
-44.4035
-46.372
-44.2406
-44.2527
-43.7119
-45.0419
-37.8502
-37.7733
-37.7524
-37.7581
-39.3358
-40.0093
-39.6769
-39.6347
-57.0434
-52.3957
-54.222
-55.9129
-89.903
-105.901
-110.588
-91.2781
27.898
16.604
21.667
21.6591
-60.8875
-124.722
-95.506
-95.5202
-77.0335
-86.3366
-80.8513
-80.8637
-61.7296
-59.7904
-60.516
-60.504
-41.9651
-43.8091
-43.2048
-42.4993
-37.4279
-37.8773
-37.9
-37.4932
-43.9014
-42.0084
-43.2807
-42.247
-48.995
-48.321
-47.3962
-50.5249
-44.9828
-45.7461
-46.4011
-44.3683
-44.0049
-43.9978
-43.4407
-44.8094
-56.9693
-52.3085
-55.8158
-54.2298
-89.8631
-105.86
-91.228
-110.542
-88.0592
-74.178
-74.4675
-63.9062
-40.9617
-41.7124
-41.3584
-41.5923
-47.1906
-48.6666
-44.3843
-45.0439
-82.5979
-68.7728
-70.9002
-60.6904
-87.9158
-74.0458
-74.375
-63.8166
-82.5665
-68.7341
-70.8635
-60.6247
-47.1568
-48.6565
-44.3362
-45.0161
-40.8523
-41.7228
-41.203
-41.5326
-120.572
-99.8814
-105.769
-89.4595
-120.557
-99.7211
-105.695
-89.3748
-49.4273
-48.2306
-53.793
-51.495
-49.4277
-48.1695
-53.8138
-51.481
-28.2113
-29.6219
-27.8561
-28.2099
11.1357
22.3545
9.89486
19.0266
11.1636
22.383
9.91347
19.1447
-28.2012
-29.5994
-27.8686
-28.1756
199.267
192.62
206.07
202.95
131.732
109.095
135.834
136.146
109.101
131.69
136.317
135.836
192.682
199.306
203.071
206.16
-42.8804
-43.9471
-43.6718
-44.9019
-40.813
-41.3488
-41.8941
-42.3985
-50.94
-52.6628
-49.8133
-52.5318
-58.0897
-60.9862
-54.7399
-57.4644
-42.8679
-43.961
-43.647
-44.8915
-58.0574
-60.9356
-54.7021
-57.4077
-50.8923
-52.6259
-49.7625
-52.4916
-40.8275
-41.3401
-41.8883
-42.3812
-38.6612
-39.6752
-38.595
-39.4096
-39.7077
-38.6552
-39.4251
-38.595
-37.3288
-37.0061
-37.5075
-37.2932
-36.9742
-37.3298
-37.289
-37.5141
-109.263
-61.8201
-117.271
-93.0626
-69.7495
-71.2351
-78.912
-77.6943
-71.1884
-69.6839
-77.6592
-78.8627
-61.1614
-109.977
-93.101
-117.014
-41.6077
-42.0226
-41.9779
-42.4522
-47.6928
-45.8376
-46.4938
-44.783
-51.4418
-50.9668
-50.123
-49.8418
-48.7763
-47.8623
-48.0878
-47.5235
-41.2591
-41.6386
-41.7073
-42.1484
-48.6214
-47.7018
-47.9137
-47.3135
-51.07
-50.635
-49.7758
-49.5305
-47.2331
-45.4236
-46.0992
-44.4658
-39.8165
-39.3806
-40.1389
-39.7283
-39.5681
-39.1695
-39.9604
-39.5947
-45.5184
-46.4887
-43.8159
-44.8235
-46.0727
-46.916
-44.164
-45.1489
-57.9233
-59.3116
-58.1612
-59.5918
-62.3058
-64.7255
-63.6617
-60.8329
-62.1428
-64.5069
-63.5167
-60.6905
-57.8704
-59.2677
-58.1098
-59.5566
-45.9706
-42.8458
-45.2922
-41.2794
-41.6005
-44.9389
-39.9955
-44.105
-51.5215
-51.1856
-51.5823
-51.2942
-51.4589
-51.7106
-51.6775
-51.7809
-158.762
145.031
-140.209
137.076
-106.259
-126.286
-50.695
-46.6668
-48.552
-46.1075
-48.6499
-54.8555
-151.081
64.9635
-69.8199
14.9313
-97.1623
-55.8552
-53.9324
-52.4982
-55.5559
-51.4833
-53.5563
-62.2304
-139.817
137.185
-158.716
145.105
-106.17
-127.428
-47.6407
-45.1717
-49.988
-45.8668
-48.0698
-53.9529
-69.7099
14.1568
-151.253
66.8176
-97.123
-55.8835
-55.1986
-51.1567
-53.5097
-52.1103
-53.1797
-61.8527
-42.7926
-42.7241
-40.8109
-38.2271
-42.3121
-41.9275
-42.5585
-39.3976
-42.1788
-53.0306
-38.5584
-34.5307
-39.8233
-41.6399
-35.8491
-39.689
-63.4507
-66.3794
-62.7315
-64.5927
-67.5477
-93.4566
-23.0979
-103.459
-50.3037
-52.7733
-51.2194
-50.0318
-52.8875
-56.9645
-58.7975
-56.8321
-43.4841
-46.2999
-43.7124
-39.5084
-40.852
-38.2635
-42.7247
-42.0965
-41.1003
-42.789
-36.1364
-38.4581
-38.6918
-35.1576
-39.83
-41.0476
-63.4396
-66.3739
-23.0382
-103.682
-62.7193
-64.5723
-67.5134
-93.4133
-50.2366
-52.7574
-58.7269
-56.7734
-51.1772
-49.9543
-52.876
-56.9277
-149.649
119.74
-156.254
96.4678
-107.573
-107.689
173.388
110.196
-155.513
137.967
-155.111
138.014
-156.464
-156.521
175.494
175.443
-55.6524
-66.9815
-41.6788
-49.2193
-50.1189
-43.5193
-66.0789
-56.4175
-51.6596
-48.8055
-53.9609
-51.2488
-50.2866
-51.6401
-49.5562
-50.6319
-37.5354
-34.623
-37.0463
-33.6751
-39.4414
-39.6618
-33.5787
-32.9973
-43.7599
-43.2746
-40.9907
-39.2294
-41.7583
-43.0324
-41.1182
-42.9872
-37.6711
30.5357
-37.5687
30.3728
-28.4735
-28.4626
85.1877
85.1855
-59.6447
-47.9237
-45.0731
-28.0775
-45.5122
-51.8821
-30.9825
-19.7841
-53.107
-51.4835
-52.9788
-51.3668
-56.7953
-56.718
-51.8161
-51.867
-50.7496
-55.5717
-49.5756
-53.5685
-49.6852
-49.0735
-55.9119
-56.6123
-149.379
119.686
-155.921
96.0992
-107.477
-107.817
109.879
173.382
-55.5476
-66.932
-41.4442
-48.9102
-50.0137
-43.3635
-65.9973
-56.304
-50.9799
-48.1657
-53.4666
-50.7603
-51.1836
-49.7749
-48.9122
-50.1539
-43.5072
-42.9318
-40.8453
-39.0344
-41.5902
-42.7956
-40.9026
-42.7415
-59.5004
-47.8619
-45.0411
-28.0353
-51.8007
-45.4496
-19.7464
-30.9786
-50.5025
-55.3824
-49.4264
-53.4669
-48.8788
-49.4457
-56.4836
-55.8164
-40.3785
-37.4252
-39.5063
-36.7208
-41.1385
-40.9204
-37.2434
-36.9074
-44.7005
-45.8848
-49.7931
-52.031
-44.5933
-46.4605
-47.2424
-50.7697
-45.1523
-42.3818
-45.1928
-42.418
-47.3643
-47.3488
-41.4357
-41.4488
-42.6821
-42.9601
-46.6267
-46.3032
-43.6621
-45.7191
-43.6038
-44.9797
-38.0343
-38.6417
-37.9929
-38.5705
-37.9258
-37.9401
-38.9777
-38.9395
-63.6032
-75.1681
-57.6148
-64.1122
-57.5944
-60.072
-82.9271
-72.9121
39.4
22.4472
39.4489
22.4773
34.9329
34.7494
-3.32438
-3.31505
-69.311
-64.7369
-69.2891
-64.7148
-73.1851
-73.1743
-63.1824
-63.1713
-40.3232
-37.3814
-39.5012
-36.7708
-41.1176
-40.9112
-37.1839
-36.8815
-44.8411
-45.9659
-49.83
-52.0487
-46.5025
-44.6695
-47.2732
-50.7756
-42.6603
-42.716
-46.5251
-46.1452
-45.6387
-43.5874
-43.3529
-44.7788
-63.5316
-75.0369
-57.5542
-63.9737
-60.0085
-57.6963
-72.7925
-82.798
-55.4428
-54.9513
-50.0362
-43.7791
-44.0501
-49.4366
-42.3968
-42.7436
-55.3869
-54.9
-49.964
-43.6808
-49.4915
-43.9782
-42.6696
-42.3049
-84.2345
-84.2163
-75.545
-63.9128
-75.5158
-63.894
-59.6642
-59.6698
-21.1546
-21.1389
-15.6551
-0.892734
-0.886107
-15.6523
9.02162
9.02624
192.293
128.746
203.864
203.89
142.435
142.689
128.856
192.596
-45.3089