# vtk DataFile Version 2.0
tet_velo
ASCII
DATASET UNSTRUCTURED_GRID
POINTS 29498 float
-0.896217 0.155 -1.625
-0.891045 0.155 1.705
-0.635 0.786429 -1.725
-0.674567 1.035 1.685
0.896217 0.155 -1.625
0.891045 0.155 1.705
0.635 0.786429 -1.725
0.674567 1.035 1.685
-0.863302 0.186191 -0.515
-0.875176 0.172593 0.595
-0.795996 1.01709 -0.588333
-0.785099 1.07586 0.548333
0.863286 0.186207 -0.515
0.875187 0.172582 0.595
0.795993 1.01709 -0.588333
0.785098 1.07586 0.548333
-1.73119 -0.30564 -2.48883
-1.71588 -0.228401 -1.59015
-1.69364 -0.205619 -0.480838
-1.67924 -0.238425 0.623106
-1.67304 -0.266222 1.73196
-1.67754 -0.269369 2.62843
-1.68384 -0.259088 3.529
-1.71337 0.0584725 -2.52924
-1.69481 0.157077 -1.62765
-1.68552 0.20897 -0.513149
-1.66865 0.191282 0.59895
-1.65039 0.163564 1.71294
-1.66782 0.160413 2.60978
-1.68192 0.170539 3.50947
-1.60287 0.764293 -2.61755
-1.52094 0.860029 -1.71706
-1.60702 1.03049 -0.584384
-1.5872 1.07676 0.550184
-1.51109 1.04667 1.68235
-1.59331 1.04008 2.57809
-1.65334 1.04695 3.47349
-1.53867 1.97809 -2.72997
-1.50837 2.0875 -1.82548
-1.53842 2.2538 -0.68416
-1.56839 2.35878 0.462912
-1.57498 2.38229 1.60396
-1.59748 2.38037 2.50786
-1.63117 2.38118 3.40617
-0.917365 -0.308699 -2.48711
-0.886297 -0.228291 -1.58764
-0.858474 -0.216436 -0.481174
-0.852801 -0.252884 0.619735
-0.858875 -0.276758 1.72607
-0.873183 -0.278968 2.62443
-0.881742 -0.267544 3.52668
-0.92408 0.0473169 -2.52871
-0.888026 0.151611 2.60648
-0.891171 0.162266 3.50773
-0.833214 0.729222 -2.62085
-0.829637 1.03176 2.57862
-0.877587 1.03976 3.4736
-0.749891 1.9548 -2.73323
-0.71189 2.06608 -1.82908
-0.740583 2.24727 -0.686326
-0.781833 2.36082 0.463172
-0.799219 2.38226 1.60581
-0.821971 2.37809 2.50971
-0.850847 2.37816 3.40751
0.76745 -0.308698 -2.48711
0.861975 -0.228287 -1.58764
0.864313 -0.216426 -0.481174
0.876753 -0.252889 0.619735
0.877492 -0.276761 1.72607
0.7979 -0.27897 2.62443
0.75167 -0.267545 3.52668
0.727431 0.0473177 -2.52871
0.757172 0.151609 2.60648
0.723349 0.162264 3.50773
0.660835 0.729222 -2.62085
0.68281 1.03176 2.57862
0.688801 1.03976 3.4736
0.796972 1.9548 -2.73323
0.832643 2.06608 -1.82908
0.834517 2.24727 -0.686326
0.789959 2.36082 0.463172
0.744032 2.38226 1.60581
0.723334 2.37809 2.50971
0.711714 2.37815 3.40751
1.60914 -0.305636 -2.48883
1.69593 -0.228394 -1.59015
1.708 -0.205608 -0.480838
1.70946 -0.23843 0.623106
1.69498 -0.266228 1.73196
1.62772 -0.269373 2.62843
1.57611 -0.259091 3.529
1.57268 0.0584749 -2.52924
1.68436 0.157081 -1.62765
1.69576 0.208984 -0.513149
1.68673 0.191275 0.59895
1.66229 0.163559 1.71294
1.58753 0.16041 2.60978
1.54503 0.170536 3.50948
1.48909 0.764294 -2.61755
1.52594 0.860029 -1.71706
1.62367 1.03049 -0.584384
1.60081 1.07676 0.550184
1.51269 1.04666 1.68235
1.49538 1.04008 2.57809
1.49593 1.04694 3.47349
1.58208 1.97809 -2.72997
1.61262 2.0875 -1.82549
1.62564 2.2538 -0.684161
1.58786 2.35878 0.462912
1.53654 2.38229 1.60396
1.51413 2.38037 2.50786
1.50581 2.38118 3.40617
-0.778331 0.470714 -1.68772
0 0.15102 -1.62898
-0.894807 0.155548 -1.07
-0.799133 0.595 1.71133
0 0.153277 1.70672
-0.891841 0.155066 1.15
0 0.806123 -1.74469
-0.753724 0.939987 -1.15667
0 1.09673 1.74673
-0.771556 1.09716 1.11667
0.778335 0.470714 -1.68773
0.894789 0.155566 -1.07
0.79913 0.595 1.71132
0.891843 0.155064 1.15
0.753741 0.940004 -1.15667
0.771553 1.09715 1.11667
-0.875145 0.173486 0.04
-0.8336 0.601642 -0.551667
-8.34376e-06 0.130067 -0.515
-0.892956 0.624229 0.571667
5.62134e-06 0.131519 0.595
-0.785769 1.0417 -0.02
-1.41192e-06 1.35206 -0.588333
-7.11228e-07 1.51807 0.548333
0.875148 0.173483 0.04
0.833683 0.601649 -0.551667
0.892953 0.624222 0.571667
0.785757 1.04169 -0.02
-0.897033 0.536178 -1.11333
-0.807813 0.612935 0.00999999
-0.887016 0.609614 1.13333
-4.17188e-06 0.151915 -1.07
-1.36121e-06 0.131403 0.04
2.81067e-06 0.152383 1.15
0 0.470714 -1.66015
0 0.595 1.87997
-7.0596e-07 1.08551 -1.15667
-1.06157e-06 1.51618 -0.02
-3.55614e-07 1.50401 1.11667
0.897033 0.536182 -1.11333
0.807445 0.612936 0.00999999
0.887016 0.609611 1.13333
-1.29552 0.156039 -1.62632
-0.891257 -0.0366454 -1.60632
-0.910148 0.101158 -2.07686
-1.27072 0.159282 1.70897
-0.87496 -0.0608792 1.71554
-0.889535 0.153305 2.15574
-1.07797 0.823229 -1.72103
-0.734107 0.757825 -2.17293
-0.673445 1.42626 -1.77704
-1.09283 1.04083 1.68368
-0.752102 1.03338 2.13181
-0.736893 1.70863 1.64541
0.879096 -0.0366437 -1.60632
0.811824 0.101159 -2.07686
1.29029 0.15604 -1.62632
0.884268 -0.0608805 1.71554
0.824108 0.153305 2.15574
1.27667 0.159279 1.70897
0.647917 0.757826 -2.17293
0.733822 1.42626 -1.77704
1.08047 0.823229 -1.72103
0.678688 1.03338 2.13181
0.7093 1.70863 1.64541
1.09363 1.04083 1.68368
-1.27441 0.19758 -0.514075
-0.860888 -0.0151228 -0.498087
-1.27191 0.181937 0.596975
-0.863988 -0.0401453 0.607368
-1.20151 1.02379 -0.586359
-0.76829 1.63218 -0.63733
-1.18615 1.07631 0.549259
-0.783466 1.71834 0.505753
0.863799 -0.0151096 -0.498087
1.27952 0.197595 -0.514075
0.87597 -0.0401536 0.607368
1.28096 0.181929 0.596975
0.815255 1.63218 -0.63733
1.20983 1.02379 -0.586359
0.787528 1.71834 0.505752
1.19296 1.07631 0.549259
-1.72354 -0.26702 -2.03949
-1.72228 -0.123584 -2.50904
-1.32428 -0.30717 -2.48797
-1.70476 -0.21701 -1.03549
-1.70535 -0.035662 -1.6089
-1.30109 -0.228346 -1.58889
-1.68644 -0.222022 0.0711342
-1.68958 0.00167553 -0.496993
-1.27606 -0.211028 -0.481006
-1.67614 -0.252324 1.17754
-1.67394 -0.0235717 0.611028
-1.26602 -0.245654 0.621421
-1.67529 -0.267796 2.1802
-1.66171 -0.051329 1.72245
-1.26596 -0.27149 1.72902
-1.68069 -0.264228 3.07871
-1.67268 -0.054478 2.61911
-1.27536 -0.274169 2.62643
-1.68288 -0.0442741 3.51923
-1.28279 -0.263316 3.52784
-1.70409 0.107775 -2.07845
-1.65812 0.411383 -2.5734
-1.31873 0.0528947 -2.52898
-1.69017 0.183024 -1.0704
-1.60787 0.508553 -1.67236
-1.67708 0.200126 0.0429003
-1.64627 0.619731 -0.548766
-1.65952 0.177423 1.15594
-1.62792 0.634021 0.574567
-1.65911 0.161989 2.16136
-1.58074 0.605116 1.69764
-1.67487 0.165476 3.05963
-1.63057 0.600246 2.59394
-1.27792 0.156012 2.60813
-1.66763 0.608744 3.49148
-1.28655 0.166402 3.5086
-1.5619 0.812161 -2.16731
-1.57077 1.37119 -2.67376
-1.21804 0.746758 -2.6192
-1.56398 0.945261 -1.15072
-1.51465 1.47376 -1.77127
-1.59711 1.05363 -0.0170997
-1.57272 1.64214 -0.634272
-1.54914 1.06171 1.11627
-1.57779 1.71777 0.506548
-1.5522 1.04337 2.13022
-1.54303 1.71448 1.64315
-1.62333 1.04351 3.02579
-1.5954 1.71023 2.54298
-1.21148 1.03592 2.57836
-1.64225 1.71407 3.43983
-1.26546 1.04335 3.47354
-1.52352 2.03279 -2.27773
-1.14428 1.96644 -2.7316
-1.5234 2.17065 -1.25482
-1.11013 2.07679 -1.82728
-1.55341 2.30629 -0.110624
-1.1395 2.25053 -0.685243
-1.57168 2.37054 1.03343
-1.17511 2.3598 0.463042
-1.58623 2.38133 2.05591
-1.1871 2.38228 1.60489
-1.61432 2.38078 2.95701
-1.20973 2.37923 2.50879
-1.24101 2.37967 3.40684
-0.901831 -0.268495 -2.03737
-0.920722 -0.130691 -2.50791
-0.0749579 -0.308699 -2.48711
-0.872385 -0.222363 -1.03441
-0.0121609 -0.228289 -1.58764
-0.855637 -0.23466 0.0692803
0.00291939 -0.216431 -0.481174
-0.855838 -0.264821 1.1729
0.0119763 -0.252887 0.619735
-0.866029 -0.277863 2.17525
0.00930824 -0.27676 1.72607
-0.877463 -0.273256 3.07556
-0.880604 -0.0636787 2.61546
-0.0376417 -0.278969 2.62443
-0.886457 -0.052639 3.5172
-0.0650361 -0.267544 3.52668
-0.878647 0.388269 -2.57478
-0.0983243 0.0473173 -2.52871
-0.889598 0.156938 3.05711
-0.858831 0.591685 2.59255
-0.0654269 0.15161 2.60648
-0.884379 0.601012 3.49066
-0.0839109 0.162265 3.50773
-0.791552 1.34201 -2.67704
-0.0861893 0.729222 -2.62085
-0.853612 1.03576 3.02611
-0.825804 1.70492 2.54417
-0.0734137 1.03176 2.57862
-0.864217 1.70896 3.44056
-0.0943928 1.03976 3.4736
-0.730891 2.01044 -2.28115
0.0235402 1.9548 -2.73323
-0.726236 2.15668 -1.2577
0.0603767 2.06608 -1.82908
-0.761208 2.30404 -0.111577
0.046967 2.24727 -0.686326
-0.790526 2.37154 1.03449
0.00406293 2.36082 0.463172
-0.810595 2.38018 2.05776
-0.0275933 2.38226 1.60581
-0.836409 2.37812 2.95861
-0.0493185 2.37809 2.50971
-0.0695664 2.37815 3.40751
0.814712 -0.268493 -2.03737
0.74744 -0.13069 -2.50791
1.1883 -0.307167 -2.48797
0.863144 -0.222357 -1.03441
1.27895 -0.228341 -1.58889
0.870533 -0.234658 0.0692803
1.28616 -0.211017 -0.481006
0.877123 -0.264825 1.1729
1.29311 -0.24566 0.621421
0.837696 -0.277865 2.17525
1.28624 -0.271494 1.72902
0.774785 -0.273257 3.07556
0.777536 -0.0636801 2.61546
1.21281 -0.274171 2.62643
0.73751 -0.0526405 3.51721
1.16389 -0.263318 3.52784
0.694133 0.38827 -2.57478
1.15006 0.0528963 -2.52898
0.74026 0.156937 3.05711
0.719991 0.591684 2.59255
1.17235 0.15601 2.60813
0.706075 0.60101 3.49066
1.13419 0.1664 3.5086
0.728903 1.34201 -2.67704
1.07496 0.746758 -2.6192
0.685805 1.03576 3.02611
0.703072 1.70492 2.54417
1.0891 1.03592 2.57836
0.700257 1.70895 3.44056
1.09237 1.04335 3.47354
0.814807 2.01044 -2.28115
1.18953 1.96644 -2.7316
0.83358 2.15668 -1.2577
1.22263 2.07679 -1.82728
0.812238 2.30404 -0.111577
1.23008 2.25053 -0.685243
0.766996 2.37154 1.03449
1.18891 2.3598 0.463042
0.733683 2.38017 2.05776
1.14028 2.38227 1.60489
0.717524 2.37812 2.95861
1.11873 2.37923 2.50879
1.10876 2.37967 3.40684
1.65254 -0.267015 -2.03949
1.59091 -0.123581 -2.50904
1.70196 -0.217001 -1.03549
1.69014 -0.0356569 -1.6089
1.70873 -0.222019 0.0711342
1.70188 0.00168799 -0.496993
1.70222 -0.252329 1.17754
1.6981 -0.0235775 0.611028
1.66135 -0.2678 2.1802
1.67864 -0.0513347 1.72245
1.60192 -0.264232 3.07871
1.60763 -0.0544815 2.61911
1.56057 -0.0442773 3.51924
1.62852 0.107778 -2.07845
1.53088 0.411384 -2.5734
1.69006 0.183032 -1.0704
1.60515 0.508555 -1.67236
1.69125 0.200129 0.0429003
1.65972 0.619739 -0.548766
1.67451 0.177417 1.15594
1.64377 0.634016 0.574567
1.62491 0.161984 2.16136
1.58749 0.605112 1.69764
1.56628 0.165473 3.05963
1.54145 0.600243 2.59394
1.52048 0.608741 3.49148
1.50751 0.812161 -2.16731
1.53558 1.37119 -2.67376
1.57481 0.945262 -1.15072
1.56928 1.47376 -1.77127
1.61224 1.05363 -0.0170998
1.62466 1.64215 -0.634272
1.55675 1.06171 1.11627
[...]
POINT_DATA 29498
VECTORS point_vectors float
-4.2735 -4.12106 12.6481
0.298618 0.449038 4.80089
-1.65139 1.91181 3.14004
0.00655858 0.0988228 -0.0272142
4.34392 -4.15455 12.7489
-0.302927 0.4525 4.79198
1.66234 1.93047 3.15242
-0.00398369 0.094792 -0.0265142
-0.00734589 0.233531 1.34608
0.00234774 0.0110698 1.44385
8.11042e-05 0.0015257 0.0260193
0.000134181 0.000251806 0.000863775
0.00734919 0.232237 1.34284
-0.0017858 0.0113483 1.44279
-8.52055e-05 0.0016069 0.0277747
-9.48527e-05 0.000176001 0.000614913
-0.756549 -0.427541 20.1393
-1.08501 -0.630245 20.8483
-0.429769 -0.378617 21.4963
-0.0300518 -0.145944 21.6303
0.309972 0.101669 21.6388
0.548135 0.223858 21.5073
0.727517 0.245268 21.3339
-0.965138 -0.350197 19.9527
-1.52847 -0.616803 20.8215
-0.613283 -0.453479 21.6026
-0.085353 -0.246482 21.7084
0.381818 -0.0295889 21.7405
0.705666 0.0976677 21.5191
0.933067 0.13335 21.238
-1.08591 0.0688573 19.7024
-2.35408 0.241555 20.3796
-1.36196 -0.195869 21.6145
-0.530966 -0.268408 21.8765
0.256845 -0.331484 21.8799
0.694614 -0.380448 21.6306
1.00792 -0.440048 21.1865
-0.548739 0.401771 19.9988
-0.849835 0.6632 20.3523
-0.839434 0.573076 21.1314
-0.414629 0.167144 21.571
-0.032436 -0.130727 21.5825
0.179759 -0.291875 21.4744
0.26146 -0.336414 21.2004
-0.964499 -1.20487 19.4463
-1.62099 -2.61916 21.5979
-0.509854 -0.294145 22.0562
-0.157528 0.00712556 21.8618
0.111981 0.505161 21.7887
0.341787 0.900728 21.7264
0.78466 1.14073 21.3355
-1.38523 -0.998694 18.782
0.822854 1.19098 13.9064
1.45874 1.83937 15.6548
-1.39535 0.275093 18.224
1.17241 0.891308 9.11011
2.10513 -0.226689 14.4827
-0.455381 0.734281 19.6107
-0.818472 1.49558 19.9629
-0.94757 1.53026 21.2299
-0.462064 0.548109 21.8939
-0.0739315 -0.131386 21.8074
0.104287 -0.446108 21.6229
0.203584 -0.529935 21.0155
0.945101 -1.34814 19.3485
1.59143 -2.69537 21.6388
0.504598 -0.284633 22.0316
0.148868 0.0216258 21.8559
-0.126924 0.512627 21.8081
-0.241965 0.938985 21.7914
-0.66602 1.23668 21.3265
1.31433 -1.22281 18.3656
-0.129539 1.31247 10.183
-1.0135 2.05874 13.4612
1.27896 0.369967 17.8249
-0.926494 0.984155 4.38578
-1.89771 -0.307709 8.6571
0.474547 0.711618 19.63
0.88605 1.37763 20.0152
0.996557 1.36806 21.2256
0.464461 0.54556 21.8918
0.0787903 -0.134303 21.8232
-0.0936009 -0.451044 21.6283
-0.153877 -0.523794 21.1078
0.801029 -0.479222 20.0505
1.08813 -0.665743 20.8753
0.420868 -0.376066 21.4841
0.0451447 -0.154654 21.6138
-0.302966 0.104667 21.6507
-0.572912 0.253654 21.5043
-0.780443 0.304762 21.3813
1.05628 -0.408515 19.8396
1.55158 -0.613474 20.8256
0.620075 -0.445323 21.5933
0.0922082 -0.23658 21.699
-0.372733 -0.0295992 21.7298
-0.779221 0.111217 21.5697
-1.06125 0.183395 21.3933
1.13655 0.0856812 19.5799
2.33268 0.228473 20.3823
1.34125 -0.196282 21.6088
0.521211 -0.263072 21.8753
-0.262332 -0.33426 21.8816
-0.758987 -0.438058 21.6944
-1.20542 -0.557854 21.4091
0.547417 0.387049 20.0177
0.822341 0.594416 20.3834
0.793345 0.514876 21.1271
0.408542 0.166752 21.5646
0.0297632 -0.140287 21.5944
-0.181635 -0.311022 21.4959
-0.289799 -0.374104 21.2641
-3.51101 1.20757 1.84934
-3.31198e-06 -0.000832073 0.0123764
-0.173882 0.259704 3.58661
-0.0378527 0.00425999 -0.0181857
0.000839168 0.0317574 0.166431
-0.00896539 0.0912947 4.05033
0.000134283 0.45713 0.534154
-0.125019 -0.0327776 0.222568
3.55777e-05 0.00208154 -0.000831474
0 0 0
3.51901 1.19846 1.86141
0.175236 0.254278 3.58929
0.0398074 0.00333447 -0.0188376
0.0109138 0.0933043 4.04304
0.128418 -0.0337694 0.229
0 0 0
-0.0382109 0.0879238 1.97031
8.13179e-05 0.0219344 0.042999
-3.64764e-07 -3.56963e-05 0.00760969
-0.0889706 0.205599 0.918891
0 0 0
0 0 0
-2.48769e-06 0.0057779 0.013791
8.33215e-08 -4.82617e-08 8.60377e-06
0.0380002 0.0871917 1.96704
-5.80633e-05 0.0221844 0.044036
0.0899142 0.20379 0.918326
0 0 0
-1.06619e-07 1.0218e-06 0.000909297
0 0 0
1.26655e-06 4.54912e-05 0.000208849
-6.48277e-09 9.10038e-08 5.63719e-06
-6.52734e-08 -1.37923e-09 -1.16832e-05
1.1504e-09 1.07363e-08 9.80491e-07
0 0 0
0.00576129 0.24682 -0.0708975
0 0 0
2.03153e-05 0.0119429 0.125013
4.45718e-05 -0.00187545 0.0743948
2.47172e-07 -1.5878e-07 0.000922201
0 0 0
-1.28368e-06 4.59928e-05 0.000211218
-2.85932 -1.48415 21.0935
-2.69571 -4.01765 22.1907
-3.16775 -2.60569 18.2013
0.68089 0.136098 21.7093
0.314873 0.694269 18.7605
0.588883 0.917364 11.1865
-4.91564 1.39258 19.7352
-3.32957 1.44074 16.248
-2.1243 2.92096 19.1021
0.74318 0.0672871 18.4705
0.571274 1.28903 3.6555
0.0811035 -0.422309 21.0971
2.6788 -4.10281 22.2207
3.19698 -3.22911 17.6474
2.87655 -1.4947 21.0876
-0.320709 0.702861 18.9099
-0.104913 0.784093 8.6899
-0.676793 0.119099 21.7634
3.22756 1.67107 15.6208
2.20541 2.72308 19.203
4.88738 1.36689 19.7445
-0.273536 1.35183 2.0755
-0.105408 -0.43466 20.7405
-0.745311 0.0548495 18.539
-0.307303 -0.790737 22.1293
-0.416753 0.30275 17.7575
0.0867894 -0.389236 21.7754
0.0642129 0.114349 17.7608
-2.25392 -0.594302 22.2094
-2.88076 2.48121 21.6114
-0.798674 -0.457948 21.8055
-1.01166 0.597594 22.5195
0.415944 0.305001 17.853
0.32159 -0.789444 22.1259
-0.0592068 0.121863 17.9635
-0.0745413 -0.403917 21.8423
2.7829 2.2332 21.6174
2.22998 -0.579724 22.1872
1.01041 0.594114 22.5226
0.797856 -0.460157 21.8705
-1.0049 -0.59607 20.4092
-0.873123 -0.401416 20.0359
-0.964079 -0.72849 19.8172
-0.771546 -0.534683 21.3178
-1.3084 -0.662155 20.8644
-1.503 -1.29508 21.0571
-0.197994 -0.241142 21.6051
-0.501315 -0.431468 21.586
-0.352749 -0.403206 21.7498
0.151397 0.00220028 21.7227
-0.0584372 -0.203675 21.6708
-0.0153267 -0.109744 21.746
0.424537 0.159592 21.5742
0.340868 0.0401232 21.7075
0.335867 0.256803 21.7748
0.568145 0.285438 21.4176
0.628051 0.183357 21.5162
0.633076 0.509705 21.7199
0.839861 0.175657 21.1773
1.07518 0.911368 21.1374
-1.34267 -0.512043 20.2459
-1.09336 -0.154402 19.7803
-1.26366 -0.579111 19.5104
-1.12039 -0.557716 21.4131
-2.08685 -0.325871 20.681
-0.307719 -0.355587 21.657
-0.964194 -0.487085 21.6478
0.136013 -0.14311 21.7883
-0.297174 -0.361405 21.8077
0.552454 0.057564 21.6738
0.405515 -0.19832 21.9218
0.837874 0.190791 21.2969
0.769076 -0.133913 21.5677
1.10861 0.3847 21.7855
1.09468 -0.066203 21.7031
1.50616 0.499589 21.266
-1.75592 0.174325 19.8301
-0.807904 0.368221 19.8136
-1.37932 0.175234 19.0844
-1.98651 0.0025038 21.2785
-1.52236 0.735367 20.2603
-0.923942 -0.283476 21.79
-1.32694 0.414437 21.3533
-0.121342 -0.299344 21.9258
-0.598762 0.0391622 21.7763
0.481934 -0.352378 21.7455
0.0201874 -0.247409 21.7435
0.942531 -0.373453 21.7242
0.348844 -0.418129 21.57
0.995835 -0.434281 20.7821
0.583211 -0.495811 21.1685
1.50553 -0.570943 20.6851
-0.717665 0.548807 20.136
-0.551063 0.567398 19.8079
-0.914645 0.69442 20.7531
-0.925479 1.04439 20.1778
-0.624672 0.361741 21.4558
-0.97511 0.976682 21.1866
-0.201414 0.00569078 21.6303
-0.482719 0.353031 21.7159
0.0592118 -0.187434 21.4883
-0.0519541 -0.131971 21.7399
0.252911 -0.335132 21.3394
0.149924 -0.345259 21.5003
0.264595 -0.466819 21.1418
-1.54491 -2.18224 19.8373
-1.16959 -1.16592 19.1778
-0.132805 -1.92858 18.8447
-0.861208 -0.989779 22.3134
-0.0338171 -3.73611 22.1944
-0.297387 -0.119696 21.8155
-0.00116169 -0.72582 21.4613
-0.0124501 0.221256 21.8327
0.00277434 -0.224582 21.2167
0.255172 0.726699 21.5324
0.00372735 0.210082 20.8233
0.546531 1.01099 21.5406
0.649602 1.12804 19.4709
-0.0124507 0.453039 20.2605
1.11611 1.57716 20.016
0.0052775 0.982749 17.3843
-1.53994 -0.476636 18.2942
-0.25253 -1.7883 17.4451
0.837487 1.42992 14.7115
0.244513 1.19761 5.7696
-0.410122 -0.152227 -0.331092
2.26195 1.09956 11.925
-0.477195 -0.293438 2.63265
-0.871502 0.868988 18.9888
-0.197492 0.528888 16.9015
1.4678 0.395501 11.57
0.365867 -0.802076 21.4289
0.00120135 -0.591606 -0.251236
0.622061 -1.1496 21.553
0.386423 -0.941231 -2.91346
-0.632411 1.12839 19.6885
0.0160487 0.915801 19.4396
-0.989186 1.71677 20.5426
0.0816675 1.92706 19.7426
-0.755982 1.07172 21.6927
0.0879492 2.2484 21.2038
-0.244217 0.159124 21.9186
0.00404588 0.845885 22.0842
0.0254266 -0.297787 21.7312
-0.000695452 -0.0844691 21.9049
0.17646 -0.589698 21.5636
0.00562066 -0.485677 21.7836
0.020696 -0.854261 21.229
1.51925 -2.41536 19.7635
1.12131 -1.36904 18.9047
0.964639 -0.844653 19.7456
0.864102 -1.00285 22.3405
1.52787 -1.36513 21.0875
0.296128 -0.112112 21.8133
0.359824 -0.414532 21.75
0.00740599 0.229989 21.8451
0.0176826 -0.125465 21.7423
-0.212103 0.737605 21.5734
-0.334126 0.25121 21.7793
-0.401656 1.0926 21.7633
-0.420342 1.25283 17.6658
-0.613466 0.56966 21.7087
-0.681706 1.76775 18.5899
-1.01493 0.980687 21.1782
1.44866 -0.501364 17.7376
1.34482 -0.765909 19.2376
-0.384013 1.76306 12.0794
0.433375 1.47584 0.331213
-1.13583 0.603262 21.2455
-1.95022 1.37346 6.8049
-1.68966 0.977019 20.6665
0.82367 0.906693 18.9275
1.44915 0.236054 18.7985
-1.29124 0.565947 6.04894
-0.405286 -0.828855 20.3404
-1.19994 -0.177096 18.8503
-0.594298 -1.29754 19.8992
-1.83191 -0.505846 19.6634
0.699607 1.06638 19.7108
0.554985 0.555935 19.8193
1.04317 1.52692 20.5794
0.924516 0.930956 20.2322
0.774696 1.0213 21.6965
0.955938 0.871089 21.175
0.245353 0.164356 21.9234
0.484319 0.345912 21.7068
-0.0147667 -0.303905 21.7548
0.0539208 -0.136034 21.7529
-0.170927 -0.580311 21.501
-0.153259 -0.372663 21.4913
-0.249759 -0.51842 21.1277
1.06577 -0.652466 20.3882
0.939626 -0.459767 19.9383
0.764288 -0.548604 21.3147
1.36624 -0.684572 20.8933
0.197063 -0.235869 21.6055
0.515559 -0.427385 21.5808
-0.153747 0.00396658 21.7253
0.066082 -0.199207 21.6554
-0.433915 0.170852 21.5958
-0.334099 0.0391497 21.7021
-0.626452 0.303739 21.4124
-0.664622 0.220323 21.5012
-0.905518 0.234989 21.2068
1.46804 -0.579637 20.1903
1.16756 -0.182487 19.6424
1.1175 -0.555947 21.4123
2.09775 -0.324779 20.6753
0.312862 -0.349545 21.6516
0.96231 -0.479392 21.6377
-0.134219 -0.143262 21.7782
0.287149 -0.360054 21.8036
-0.593046 0.073288 21.7159
-0.409261 -0.19973 21.9158
-0.973925 0.200689 21.5214
-0.851536 -0.161398 21.6356
-1.28392 -0.122092 21.9288
1.83589 0.202657 19.7503
0.814565 0.379773 19.7863
1.95997 0.002542 21.2693
1.4312 0.675546 20.2918
0.913142 -0.280834 21.7836
1.26552 0.378096 21.3415
0.121111 -0.296615 21.9236
0.591917 0.0375323 21.7692
-0.510648 -0.388014 21.7906
-0.0234116 -0.253185 21.7539
-1.04737 -0.44293 21.8396
-0.357215 -0.456372 21.5963
-0.588677 -0.569933 21.1839
0.693494 0.50471 20.1624
0.884834 0.621325 20.7657
0.611966 0.348236 21.4454
0.201271 0.00139569 21.6323
-0.0595961 -0.195715 21.4922
-0.249085 -0.363909 21.3413
-1.20091 -0.567497 20.3155
-2.24546 -2.54767 19.2555
-1.38217 -1.12837 20.1983
-2.17004 -1.05533 19.7286
-1.10074 -0.676286 19.6786
-2.09223 -1.48927 21.1182
-0.931634 -0.586258 21.4508
-0.898944 -0.539992 21.1018
-0.858525 -0.825418 21.7103
-1.26533 -1.08092 22.1527
-0.278487 -0.495115 21.8692
-0.236743 -0.30215 21.6106
-0.118154 0.152678 17.7378
-0.14304 -0.22752 21.6992
-0.046013 -0.56989 21.8804
0.096753 -0.175122 21.831
0.142388 -0.0776354 21.7468
0.217721 0.298206 18.1309
0.144558 0.0618871 21.8093
0.328034 -0.126502 21.7611
0.527107 0.262947 21.8319
0.498076 0.116846 21.6342
0.436265 0.951058 18.5883
0.486321 0.388828 21.6911
0.891901 0.327466 21.4747
0.891083 0.526073 21.6331
0.76252 0.297296 21.5062
0.854987 1.26826 20.0763
0.772277 0.640996 21.2014
1.2537 0.485861 21.6733
1.1843 0.82575 20.9763
-1.7229 -0.227619 19.9957
-4.16247 -0.736119 16.0416
-2.67366 0.510799 18.7716
-1.44661 -0.277105 19.2289
-4.9808 -0.562891 20.5797
-1.5601 -0.448349 21.4787
-3.58406 -0.0169389 21.9289
-1.09274 -1.21348 22.186
-0.570849 -0.443345 21.7334
-1.42498 -0.67739 22.0796
-0.346049 -0.597298 21.0805
0.0520297 -0.269921 21.8973
-0.048496 -0.209699 20.6457
0.760737 0.221004 19.233
0.625785 -0.154493 21.8162
-0.486789 0.98978 2.24755
0.759375 -0.284815 20.4429
1.24602 -0.000588133 20.7073
1.01444 -0.109926 21.4874
1.05148 1.34849 9.12043
1.35015 -0.378087 20.2679
1.72617 0.185356 20.2767
-1.17318 0.556058 19.9274
-1.41375 1.72991 18.7655
-0.753242 0.816082 19.9309
-0.925834 0.588199 19.4535
-2.05091 1.52703 19.8653
-1.55046 0.636385 20.9061
-2.69505 3.0161 20.3469
-1.06037 1.14393 20.67
-2.00975 0.980198 21.5412
-0.984036 0.206546 21.652
-2.11025 1.4998 22.6075
-0.77073 0.668552 21.5771
-0.841341 0.221748 22.0927
-0.270779 -0.110716 21.8166
-0.407462 0.0477868 22.1878
-0.25765 0.0721942 21.7908
0.00886888 -0.339121 21.9788
0.203541 -0.331644 21.6561
0.21121 -0.575192 21.0731
0.0773894 -0.262523 21.6336
0.384021 -0.591598 21.7019
0.521236 -0.445357 21.4714
0.537323 -0.996586 21.3214
0.217184 -0.458614 21.3803
0.668684 -0.77942 21.1463
2.24946 -3.04074 18.9419
-0.101153 -3.85783 19.4825
-0.241778 -6.70872 15.0219
-0.16709 -1.9797 18.212
-0.0164552 -5.07263 23.5237
0.905429 -0.546824 21.0743
-0.0139019 -1.55353 22.5517
-0.00120282 -0.203607 11.6701
0.120093 0.157321 17.8783
0.000739741 -0.408046 21.1189
-0.00329265 -0.0445171 11.7518
-0.210262 0.30308 18.273
0.00232477 0.0247135 21.0184
0.00827533 0.23365 12.5395
-0.344727 0.95186 17.8814
0.00166723 0.315521 20.66
-0.185409 -0.52064 0.995621
-0.00444503 0.368511 12.8273
-0.649269 1.65304 18.3479
0.000792896 0.701133 18.0224
-0.262956 -0.855165 0.992316
-0.00415225 0.931009 12.3752
4.19113 -0.940005 15.0618
-0.253663 2.7525 13.1218
-0.219061 -0.729728 16.6328
0.886343 1.04461 0.11619
0.00545077 0.921136 0.447422
-0.181301 -1.6375 -3.51843
0.00134931 1.72179 2.92097
-0.194756 -1.37312 -1.51405
0.403186 -3.64595 -6.35214
1.41498 1.73561 18.7607
0.0507296 1.43012 19.4845
-0.0366382 1.20532 18.4788
0.128166 4.19397 18.3474
2.7016 2.75774 20.4278
0.0869437 2.31971 20.3807
0.125747 5.1508 21.2218
2.07684 1.39515 22.5598
0.0370445 1.6466 21.8712
0.00447556 1.28451 22.3832
0.404415 0.0520442 22.1608
-0.00355129 0.2957 22.0409
0.00607342 -0.292253 15.4289
-0.252431 -0.589143 20.3833
0.00204009 -0.300791 21.7951
0.0463104 -0.643567 15.1355
-0.523817 -1.05038 20.6058
0.0200422 -0.622612 21.5445
0.0674761 -1.42691 16.3042
1.32057 -0.647043 20.2766
1.41735 -1.3056 20.1689
2.38863 -1.27299 19.497
1.17807 -0.864019 19.48
2.11428 -1.52804 21.1248
0.940558 -0.579727 21.4484
0.856061 -0.839391 21.7286
1.265 -1.07974 22.1456
0.289941 -0.506317 21.8607
0.239635 -0.296142 21.6
0.150132 -0.240491 21.6974
0.059829 -0.576866 21.9081
-0.087102 -0.189918 21.8306
-0.139161 -0.073402 21.7429
-0.145177 0.0494204 21.8049
-0.320176 -0.139195 21.8104
-0.52852 0.248808 21.8393
-0.51883 0.13475 21.6584
-0.488236 0.408889 21.7
-0.942477 0.419416 21.3545
-0.907869 0.699436 21.2782
-0.831466 0.324068 21.5066
-0.770776 0.735175 21.1939
-1.37502 0.705252 21.105
-1.36188 1.19624 20.8414
1.81908 -0.242178 19.9031
2.87161 0.664929 18.4764
1.49361 -0.309138 18.8616
4.98934 -0.565703 20.5796
1.55284 -0.438192 21.4719
3.55038 -0.0230212 21.916
1.09486 -1.18619 22.2076
0.570185 -0.43579 21.7253
1.41374 -0.662301 22.092
0.351871 -0.606568 21.2445
-0.0519622 -0.266611 21.8934
0.0548996 -0.223719 20.7279
-0.76745 0.197953 19.3711
-0.665544 -0.166033 21.8492
-0.872782 0.0231838 18.7018
-1.32981 0.318606 17.9919
-1.18392 -0.140352 21.7082
-1.53541 -0.356487 19.3692
-2.07947 0.513247 18.5617
1.16084 0.554542 19.9336
0.767178 0.762193 19.9592
0.927174 0.623476 19.3943
2.00027 1.38767 19.9318
1.48351 0.59044 20.9034
1.05043 1.0069 20.7066
1.9155 0.898585 21.5186
0.953256 0.195949 21.6338
0.755016 0.625166 21.5518
0.835677 0.215142 22.0859
0.270828 -0.110506 21.8184
0.259816 0.0729039 21.7967
-0.00697978 -0.347781 21.9915
-0.206095 -0.347379 21.6834
-0.0652814 -0.269444 21.6444
-0.388478 -0.657698 21.733
-0.549046 -0.493504 21.5407
-0.198122 -0.504863 21.4552
-0.680665 -0.955947 21.4003
-1.79287 -1.16916 19.9756
-0.994093 -0.928711 21.949
-0.0444249 -0.312919 21.7955
0.278574 0.0241263 21.8567
0.706178 0.417383 21.7377
0.969949 0.65255 21.2799
-2.83113 -0.440945 19.03
-2.42678 -1.05702 22.6442
-0.545974 -0.941927 21.1168
0.171614 -0.14893 20.1911
0.927979 0.14619 19.9776
1.57354 0.0726794 19.8916
-1.46844 1.05249 19.4654
-2.2877 1.40991 20.7952
-1.48499 0.559661 21.9969
-0.364222 -0.0671545 22.086
0.201887 -0.486006 21.827
0.526748 -0.741409 21.5793
-0.159716 -5.38157 18.2628
-0.004599 -0.732407 15.3127
-0.00188064 -0.0982369 11.4986
-0.00107075 0.144413 11.8951
-0.0192413 0.120074 12.5658
0.0049055 0.676292 13.547
-0.348776 -1.65845 10.2083
-0.0813233 0.279211 -2.24719
0.0322247 -3.00609 -5.4146
-0.00141555 2.5142 18.0173
0.120596 4.95086 19.5994
0.0486995 3.38618 23.1667
-0.00394072 0.337754 20.7662
0.020034 -0.383663 15.2027
0.119131 -1.0651 15.622
1.90167 -1.37003 19.8797
1.00201 -0.94076 21.9499
0.0569496 -0.325546 21.7902
-0.272721 0.0128578 21.8649
-0.716187 0.461906 21.7336
-1.02169 0.793017 21.1675
3.1571 -0.461133 18.6913
2.41934 -1.04519 22.6262
0.55906 -0.936521 21.2821
-0.169619 -0.178276 20.3572
-0.963182 0.341094 19.0593
-1.81662 0.264142 18.5238
1.46382 1.04236 19.4728
2.20141 1.26054 20.8232
1.4401 0.520105 21.9662
0.364392 -0.0689268 22.0928
-0.196984 -0.512316 21.8599
-0.595572 -0.849508 21.6308
-1.52257 -0.446257 1.50158
-0.00292119 -0.0030713 0.0304193
-0.300909 0.148757 3.95984
0.169829 -0.0106766 0.69378
-0.0335124 0.0572238 0.287157
-0.0286237 0.166266 3.10727
-1.37299 0.577134 1.53518
-0.0462131 0.340921 0.399118
-0.434811 0.121358 0.823035
-0.00348005 0.00639408 -0.0031993
0.00122121 0.0123332 -0.00409054
0.00502702 0.00319503 0.0244368
0.00288915 -0.00314213 0.0304558
1.51644 -0.452359 1.4985
0.307735 0.140467 3.97175
0.0345153 0.0576328 0.289368
-0.171464 -0.0102138 0.697166
0.0320306 0.169522 3.15226
0.0636055 0.329324 0.373947
1.5186 0.633362 1.67657
0.43602 0.121526 0.824724
-0.000703316 0.0112002 -0.00367784
0.00368379 0.00652841 -0.00332379
-0.00498471 0.00313954 0.0243681
-0.071893 0.324452 0.843626
-0.0719562 0.191136 2.23744
0 0 0
0 0 0
-0.099706 0.0735561 1.41244
0.0205579 -0.0077263 1.46157
0.000217548 0.0204301 0.144697
0 0 0
-0.679549 -0.225174 1.83755
0 0 0
0 0 0
-0.0735132 0.0419465 0.177433
0.000271501 0.000453452 0.00204461
0 0 0
0 0 0
0.0180943 0.00255501 0.11231
0.0714519 0.323811 0.83848
0 0 0
0.0718315 0.189738 2.23357
0 0 0
0.10088 0.0734937 1.41618
0 0 0
-0.0202595 -0.00785351 1.46017
-0.000218581 0.0203632 0.144544
0.672816 -0.222691 1.82221
0.0770889 0.0443306 0.186538
0 0 0
0 0 0
-0.000254681 0.000425837 0.00193801
-0.0179647 0.0025084 0.112073
0 0 0
0 0 0
-5.76542e-05 -9.18671e-05 0.00126332
0 0 0
-6.93116e-09 -1.6493e-07 7.34036e-06
0 0 0
1.1034e-05 0.000107566 0.000510492
-1.92487e-07 5.71261e-08 6.24367e-06
2.03769e-05 0.000285842 0.0013402
-0.13134 0.211723 -0.098328
2.15263e-07 4.71102e-07 0.000116287
0 0 0
1.85401e-08 7.35094e-07 5.44833e-06
-3.53685e-08 -1.34944e-08 -1.19806e-06
0 0 0
6.51502e-06 0.000777508 0.001755
0 0 0
0 0 0
0.000365178 0.0370125 -0.00301839
0.000134612 -0.00780778 0.13328
0 0 0
0.00242164 -0.000494022 0.0259502
0 0 0
6.08225e-05 -9.70912e-05 0.00132098
-4.04284e-08 -1.24624e-08 -1.37061e-06
-1.13098e-05 0.000111822 0.000534571
0.132449 0.203944 -0.0947809
-2.0561e-05 0.000287896 0.00135179
1.67289e-07 -6.74523e-08 -5.98427e-06
-1.75498e-08 6.94244e-07 5.13916e-06
0.00945917 0.0129862 0.030623
0 0 0
-0.00238014 -0.000491069 0.025795
0 0 0
0 0 0
0 0 0
0 0 0
0 0 0
-0.000104638 -0.021643 0.251239
1.78067e-06 -3.03274e-09 -7.42741e-06
1.80811e-18 -9.64204e-18 -1.37303e-17
0 0 0
-7.26678e-08 5.03176e-09 -2.02443e-05
-2.08851e-07 8.6852e-06 0.00183866
1.43537e-05 0.000807664 0.00188076
-0.00650304 0.037821 0.430871
0.00153898 0.0340612 0.0723097
6.3689e-05 0.154062 0.535983
-2.10913e-06 -8.66991e-06 -0.000441638
2.26775e-06 -9.71123e-05 0.00516188
0 0 0
5.07167e-20 -3.79343e-18 -8.96311e-18
0 0 0
0 0 0
0 0 0
0 0 0
0.00648012 0.037947 0.431781
-8.82357e-06 0.000555089 0.00129053
-3.42485e-05 9.471e-06 0.000906923
-0.393635 -0.109532 0.837452
0.00436349 0.00104961 0.0106818
0 0 0
0 0 0
1.66059e-05 0.00140293 0.00408092
0 0 0
6.31981e-05 0.00304573 0.00631495
0 0 0
1.69775e-05 0.000228047 0.00096939
9.29743e-06 0.000153981 0.00112969
0 0 0
1.17738e-07 9.14786e-09 -9.92901e-07
-7.82498e-07 6.13499e-08 -6.66528e-06
0.000197041 -0.0248827 0.279191
-0.000330628 -0.0249401 0.279685
0 0 0
0 0 0
0 0 0
0 0 0
6.46664e-05 6.14507e-06 0.00185327