# vtk DataFile Version 2.0
tri_press
ASCII
DATASET UNSTRUCTURED_GRID
POINTS 3682 float
-0.896217 0.155 -1.625
-0.891045 0.155 1.705
-0.635 0.786429 -1.725
-0.674567 1.035 1.685
0.896217 0.155 -1.625
0.891045 0.155 1.705
0.635 0.786429 -1.725
0.674567 1.035 1.685
-0.863302 0.186191 -0.515
-0.875176 0.172593 0.595
-0.795996 1.01709 -0.588333
-0.785099 1.07586 0.548333
0.863286 0.186207 -0.515
0.875187 0.172582 0.595
0.795993 1.01709 -0.588333
0.785098 1.07586 0.548333
-1.73119 -0.30564 -2.48883
-1.71588 -0.228401 -1.59015
-1.69364 -0.205619 -0.480838
-1.67924 -0.238425 0.623106
-1.67304 -0.266222 1.73196
-1.67754 -0.269369 2.62843
-1.68384 -0.259088 3.529
-1.71337 0.0584725 -2.52924
-1.69481 0.157077 -1.62765
-1.68552 0.20897 -0.513149
-1.66865 0.191282 0.59895
-1.65039 0.163564 1.71294
-1.66782 0.160413 2.60978
-1.68192 0.170539 3.50947
-1.60287 0.764293 -2.61755
-1.52094 0.860029 -1.71706
-1.60702 1.03049 -0.584384
-1.5872 1.07676 0.550184
-1.51109 1.04667 1.68235
-1.59331 1.04008 2.57809
-1.65334 1.04695 3.47349
-1.53867 1.97809 -2.72997
-1.50837 2.0875 -1.82548
-1.53842 2.2538 -0.68416
-1.56839 2.35878 0.462912
-1.57498 2.38229 1.60396
-1.59748 2.38037 2.50786
-1.63117 2.38118 3.40617
-0.917365 -0.308699 -2.48711
-0.886297 -0.228291 -1.58764
-0.858474 -0.216436 -0.481174
-0.852801 -0.252884 0.619735
-0.858875 -0.276758 1.72607
-0.873183 -0.278968 2.62443
-0.881742 -0.267544 3.52668
-0.92408 0.0473169 -2.52871
-0.888026 0.151611 2.60648
-0.891171 0.162266 3.50773
-0.833214 0.729222 -2.62085
-0.829637 1.03176 2.57862
-0.877587 1.03976 3.4736
-0.749891 1.9548 -2.73323
-0.71189 2.06608 -1.82908
-0.740583 2.24727 -0.686326
-0.781833 2.36082 0.463172
-0.799219 2.38226 1.60581
-0.821971 2.37809 2.50971
-0.850847 2.37816 3.40751
0.76745 -0.308698 -2.48711
0.861975 -0.228287 -1.58764
0.864313 -0.216426 -0.481174
0.876753 -0.252889 0.619735
0.877492 -0.276761 1.72607
0.7979 -0.27897 2.62443
0.75167 -0.267545 3.52668
0.727431 0.0473177 -2.52871
0.757172 0.151609 2.60648
0.723349 0.162264 3.50773
0.660835 0.729222 -2.62085
0.68281 1.03176 2.57862
0.688801 1.03976 3.4736
0.796972 1.9548 -2.73323
0.832643 2.06608 -1.82908
0.834517 2.24727 -0.686326
0.789959 2.36082 0.463172
0.744032 2.38226 1.60581
0.723334 2.37809 2.50971
0.711714 2.37815 3.40751
1.60914 -0.305636 -2.48883
1.69593 -0.228394 -1.59015
1.708 -0.205608 -0.480838
1.70946 -0.23843 0.623106
1.69498 -0.266228 1.73196
1.62772 -0.269373 2.62843
1.57611 -0.259091 3.529
1.57268 0.0584749 -2.52924
1.68436 0.157081 -1.62765
1.69576 0.208984 -0.513149
1.68673 0.191275 0.59895
1.66229 0.163559 1.71294
1.58753 0.16041 2.60978
1.54503 0.170536 3.50948
1.48909 0.764294 -2.61755
1.52594 0.860029 -1.71706
1.62367 1.03049 -0.584384
1.60081 1.07676 0.550184
1.51269 1.04666 1.68235
1.49538 1.04008 2.57809
1.49593 1.04694 3.47349
1.58208 1.97809 -2.72997
1.61262 2.0875 -1.82549
1.62564 2.2538 -0.684161
1.58786 2.35878 0.462912
1.53654 2.38229 1.60396
1.51413 2.38037 2.50786
1.50581 2.38118 3.40617
-0.778331 0.470714 -1.68772
0 0.15102 -1.62898
-0.894807 0.155548 -1.07
-0.799133 0.595 1.71133
0 0.153277 1.70672
-0.891841 0.155066 1.15
0 0.806123 -1.74469
-0.753724 0.939987 -1.15667
0 1.09673 1.74673
-0.771556 1.09716 1.11667
0.778335 0.470714 -1.68773
0.894789 0.155566 -1.07
0.79913 0.595 1.71132
0.891843 0.155064 1.15
0.753741 0.940004 -1.15667
0.771553 1.09715 1.11667
-0.875145 0.173486 0.04
-0.8336 0.601642 -0.551667
-8.34376e-06 0.130067 -0.515
-0.892956 0.624229 0.571667
5.62134e-06 0.131519 0.595
-0.785769 1.0417 -0.02
-1.41192e-06 1.35206 -0.588333
-7.11228e-07 1.51807 0.548333
0.875148 0.173483 0.04
0.833683 0.601649 -0.551667
0.892953 0.624222 0.571667
0.785757 1.04169 -0.02
-0.897033 0.536178 -1.11333
0.897033 0.536182 -1.11333
-4.17188e-06 0.151915 -1.07
-7.0596e-07 1.08551 -1.15667
0 0.470714 -1.66015
-0.807813 0.612935 0.00999999
0.807445 0.612936 0.00999999
-1.36121e-06 0.131403 0.04
-1.06157e-06 1.51618 -0.02
-0.887016 0.609614 1.13333
0.887016 0.609611 1.13333
2.81067e-06 0.152383 1.15
-3.55614e-07 1.50401 1.11667
0 0.595 1.87997
-0.846535 0.312857 -1.66562
-0.448108 0.151016 -1.62898
-0.894357 0.156429 -1.3475
-0.865502 0.375 1.72858
-0.445522 0.153318 1.70668
-0.886719 0.159756 1.4275
-0.721119 0.628572 -1.72081
-0.3175 0.793261 -1.73183
-0.702747 0.871593 -1.44083
-0.719525 0.815 1.68084
-0.337283 1.0771 1.7271
-0.752821 1.09584 1.40083
0.448108 0.151009 -1.62899
0.846536 0.312857 -1.66562
0.894334 0.156452 -1.3475
0.445522 0.153324 1.70668
0.865488 0.375 1.72856
0.887006 0.15947 1.4275
0.3175 0.793248 -1.73182
0.721903 0.628572 -1.7216
0.702762 0.871608 -1.44083
0.337283 1.07788 1.72788
0.719576 0.815 1.68089
0.75282 1.09584 1.40083
-0.85907 0.190854 -0.7925
-0.870237 0.178825 -0.2375
-0.79531 0.420487 -0.533333
-0.441463 0.138513 -0.515
-0.874056 0.173282 0.8725
-0.875171 0.173029 0.3175
-0.89033 0.395279 0.583333
-0.444166 0.138894 0.595
-0.8026 1.00628 -0.8725
-0.834786 0.819361 -0.57
-0.789405 1.02792 -0.304167
-0.465675 1.31993 -0.588333
-0.778731 1.08691 0.8325
-0.817464 0.839265 0.56
-0.785122 1.05847 0.264167
-0.483698 1.47926 0.548333
0.858773 0.191151 -0.7925
0.441451 0.138513 -0.515
0.870234 0.178828 -0.2375
0.795313 0.420513 -0.533333
0.874068 0.17327 0.8725
0.444174 0.138894 0.595
0.875178 0.173022 0.3175
0.890325 0.395275 0.583333
0.802513 1.00619 -0.8725
0.465672 1.31993 -0.588333
0.835249 0.819575 -0.57
0.789393 1.02791 -0.304167
0.778728 1.08691 0.8325
0.483701 1.47927 0.548333
0.816712 0.838886 0.56
0.78512 1.05847 0.264167
-0.897282 0.503446 -1.40053
-0.389166 0.470714 -1.65969
-2.08594e-06 0.151857 -1.34949
0 0.310867 -1.66032
-0.899405 0.345863 -1.09167
-0.447406 0.151932 -1.07
-0.886758 0.602307 1.42233
-0.399567 0.595 1.84342
1.40533e-06 0.152441 1.42836
0 0.374138 1.83233
-0.889389 0.38234 1.14167
-0.445919 0.15243 1.15
-3.5298e-07 0.950545 -1.45068
0 0.638419 -1.85695
-0.84382 0.738083 -1.135
-0.376862 1.06897 -1.15667
-1.77807e-07 1.49092 1.4317
0 0.845864 1.80845
-0.835411 0.853385 1.125
-0.385778 1.4837 1.11667
0.897282 0.503448 -1.40053
0.389167 0.470714 -1.65969
0.899405 0.345874 -1.09167
0.447393 0.151932 -1.07
0.886758 0.602306 1.42233
0.399565 0.595 1.84318
0.889389 0.382338 1.14167
0.445923 0.15243 1.15
0.837791 0.738093 -1.135
0.37687 1.06896 -1.15667
0.836054 0.853382 1.125
0.385776 1.4837 1.11667
-0.794023 0.416939 0.025
-0.444441 0.138708 0.04
-0.827025 0.56891 -0.8325
-0.821454 0.607289 -0.270833
-6.25782e-06 0.131195 -0.7925
-4.85249e-06 0.131346 -0.2375
-0.795251 0.618582 0.290833
-0.882577 0.616922 0.8525
2.13006e-06 0.131461 0.3175
4.216e-06 0.13154 0.8725
-0.834897 0.846371 -0.00500003
-0.491477 1.47612 -0.02
-1.05894e-06 1.22264 -0.8725
-1.23675e-06 1.47117 -0.304167
-8.86401e-07 1.52239 0.264167
-5.33421e-07 1.51109 0.8325
0.794004 0.416856 0.025
0.444441 0.138708 0.04
0.82689 0.568915 -0.8325
0.821867 0.607292 -0.270833
0.793959 0.618579 0.290833
0.88257 0.616917 0.8525
0.835363 0.846693 -0.00500003
0.491471 1.47612 -0.02
-0.899595 0.32936 -1.37401
-0.854156 0.36989 -0.8125
-0.835041 0.773725 -0.8525
-0.86577 0.683327 -1.42068
0.899595 0.329365 -1.37401
0.865761 0.683332 -1.42068
0.835378 0.773731 -0.8525
0.851831 0.369901 -0.8125
-0.447757 0.151871 -1.3485
0.447751 0.151871 -1.3485
0.439516 0.131295 -0.7925
-0.439531 0.131295 -0.7925
-0.347181 0.937322 -1.44576
-0.387431 1.20605 -0.8725
0.387433 1.20605 -0.8725
0.347185 0.937322 -1.44576
-0.418637 0.311862 -1.6597
-0.353333 0.633495 -1.83189
0.353334 0.633495 -1.83177
0.418638 0.311862 -1.6597
-0.794666 0.418713 -0.254167
-0.790434 0.43198 0.304167
-0.835186 0.84732 0.2775
-0.834959 0.832925 -0.2875
0.794658 0.418685 -0.254167
0.835549 0.833256 -0.2875
0.835367 0.847454 0.2775
0.790433 0.431931 0.304167
-0.442952 0.13861 -0.2375
0.442946 0.138611 -0.2375
0.444308 0.138801 0.3175
-0.444304 0.138801 0.3175
-0.493017 1.42691 -0.304167
-0.490074 1.48267 0.264167
0.490072 1.48267 0.264167
0.493026 1.42693 -0.304167
-0.883642 0.390376 0.8625
-0.889128 0.37867 1.42492
-0.809581 0.834192 1.41158
-0.835395 0.851716 0.8425
0.883638 0.39037 0.8625
0.836119 0.851712 0.8425
0.809753 0.834191 1.41158
0.889128 0.378669 1.42491
-0.441752 0.131666 0.8725
0.44176 0.131666 0.8725
0.445723 0.152492 1.42793
-0.445721 0.152492 1.42793
-0.389164 1.49084 0.8325
-0.361531 1.47604 1.41627
0.36153 1.47604 1.41627
0.389162 1.49084 0.8325
-0.422545 0.374569 1.7877
0.422544 0.374569 1.7877
0.368424 0.830432 1.7789
-0.368425 0.830432 1.7789
-0.875049 0.233929 -1.64898
-0.672163 0.151033 -1.62897
-0.89477 0.156231 -1.48625
-0.884423 0.265 1.72294
-0.668284 0.151059 1.70894
-0.886042 0.160219 1.56625
-0.680675 0.7075 -1.72552
-0.47625 0.795662 -1.73423
-0.668829 0.828966 -1.58292
-0.701023 0.925 1.6869
-0.505925 1.06169 1.71169
-0.736464 1.08819 1.54292
0.672163 0.151026 -1.62897
0.875055 0.233929 -1.64899
0.894745 0.156256 -1.48625
0.668284 0.151065 1.70893
0.88441 0.265 1.72292
0.886717 0.159543 1.56625
0.47625 0.795662 -1.73423
0.680585 0.7075 -1.72543
0.668734 0.828871 -1.58292
0.505925 1.06183 1.71183
0.700966 0.925 1.68684
0.736751 1.08848 1.54292
-0.859959 0.189749 -0.65375
-0.866697 0.182581 -0.37625
-0.839811 0.298086 -0.524167
-0.665576 0.135965 -0.515
-0.875023 0.172531 0.73375
-0.875184 0.172801 0.45625
-0.878931 0.285847 0.589167
-0.669531 0.136023 0.595
-0.7995 1.01189 -0.730417
-0.833817 0.92744 -0.579167
-0.792473 1.02228 -0.44625
-0.663552 1.23394 -0.588333
-0.78205 1.08152 0.690417
-0.834342 0.974095 0.554167
-0.786318 1.06837 0.40625
-0.653946 1.31666 0.548333
0.859945 0.189764 -0.65375
0.665566 0.135965 -0.515
0.866692 0.182585 -0.37625
0.839803 0.298109 -0.524167
0.875033 0.17252 0.73375
0.669538 0.136023 0.595
0.875193 0.172792 0.45625
0.878931 0.285841 0.589167
0.799505 1.01189 -0.730417
0.663527 1.2339 -0.588333
0.834432 0.927738 -0.579167
0.792491 1.0223 -0.44625
0.782045 1.08152 0.690417
0.653943 1.31665 0.548333
0.835102 0.974473 0.554167
0.786317 1.06837 0.40625
-0.811636 0.391786 -1.67588
-0.752199 0.549643 -1.70674
-0.896298 0.48708 -1.54413
[...]
POINT_DATA 3682
SCALARS point_scalars float 1
LOOKUP_TABLE default
-168.165
-58.9065
-33.7331
-46.8649
-163.153
-59.2133
-34.023
-46.989
-42.5371
-38.6498
-76.3819
-55.8132
-42.5354
-38.7245
-76.4227
-55.9541
-152.451
-149.936
-40.5848
-39.7124
-51.2449
-62.3661
-62.3661
-101.397
-186.645
-42.726
-40.3336
-53.1432
-54.5919
-54.5919
1.02957
-136.558
-68.8635
-51.4928
-55.221
-46.3027
-42.6887
-22.902
-53.546
-92.5002
-65.9678
-59.444
-52.4754
-46.6408
-43.6353
-185.668
-43.6092
-39.5448
-57.1729
-46.6771
-45.0484
-43.6353
-45.0484
-45.0484
154.163
-44.5131
-42.9158
36.9952
-13.859
-78.9699
-70.1801
-57.6386
-53.0438
-46.5356
-48.1319
-190.926
-43.6124
-39.2959
-57.96
-46.9446
-45.0559
31.0413
-45.3048
-42.3508
167.477
-44.6908
-41.5393
27.3395
-23.4048
-79.5307
-69.9962
-57.7
-53.1214
-46.6323
-146.056
-149.122
-40.591
-39.7914
-51.6479
-62.5875
-58.829
-49.3523
-185.95
-42.7212
-40.4159
-53.3713
-54.8487
-48.8021
21.5865
-136.445
-68.8661
-51.5673
-55.3984
-45.8303
-42.9001
-23.307
-55.2061
-92.5252
-66.0426
-59.4943
-52.541
-46.8093
25.2144
-131.226
-67.3468
-45.1952
-43.5053
-42.0737
17.1633
-62.7806
-46.1773
-55.0418
24.6254
-67.4933
-45.4322
-42.1838
-62.5167
-55.1544
-36.6867
-53.3895
-49.3471
-50.3217
-42.1751
-58.4786
-43.9069
-70.8287
-36.797
-53.3848
-50.4202
-58.5194
-83.2556
-83.19
-69.495
2.46776
196.771
-43.476
-43.477
-42.4359
-103.661
-48.9022
-49.0413
-41.3554
-58.2664
-41.7636
-64.3756
-136.72
-91.6976
-50.764
-48.0741
-44.0564
-13.9057
18.0492
-41.4797
-45.1205
-45.7969
-55.2979
-136.745
-64.8364
-91.7278
-48.3081
-51.042
-44.1437
17.9215
-13.7734
-41.6262
-45.8476
-45.3291
-55.3939
-58.5912
-38.1169
-48.7804
-48.7109
-37.3355
-37.1016
-46.5375
-40.6379
-92.6965
-61.4184
-65.2392
-58.0008
-54.7806
-49.353
-55.961
-66.2501
-58.6201
-48.7147
-38.1419
-48.7732
-37.3642
-40.6587
-37.1519
-46.5736
-92.7876
-57.9796
-61.4299
-65.2904
-54.8595
-66.2796
-49.4617
-55.991
-121.503
189.015
-92.3709
195.703
-75.8026
-68.5062
-50.093
-42.0719
-41.6951
-33.1887
-45.9915
-41.3759
8.37055
161.572
-95.6286
-7.40376
-54.1091
-44.6918
-52.0163
-57.8389
-121.455
189.023
-75.7538
-68.4909
-50.2615
-42.2777
-46.1097
-41.4265
-94.1052
-5.99306
-52.2093
-57.8763
-40.9402
-41.4142
-64.5608
-47.7449
-54.7802
-44.8024
-38.7355
-47.117
-41.6926
-43.9073
-49.5558
-91.9301
-14.5316
-95.9024
-83.9522
-62.9151
-40.966
-41.4201
-64.6586
-47.7545
-38.7839
-47.2053
-49.5694
-91.9644
-109.471
-61.7417
-72.4091
-101.372
-109.406
-101.475
-72.3993
-60.8871
-91.368
-91.3495
-53.4708
-53.4796
-0.53611
-23.2558
-23.5208
-0.873726
180.43
153.691
153.564
180.503
-42.4762
-35.1659
-47.6167
-54.2047
-42.4865
-54.2437
-47.6354
-35.1545
-43.5145
-43.5177
-40.7682
-40.7544
-88.0985
-76.3354
-76.3607
-88.1787
-43.1201
-47.4128
-54.3002
-51.1844
-43.1985
-51.3026
-54.4243
-47.5814
-44.2061
-44.2461
-42.6763
-42.5746
-61.109
-56.5786
-56.6281
-61.122
-39.8819
-40.1597
-44.1996
-44.0993
-79.8296
-148.449
-121.467
-54.353
-51.1935
-45.6185
-24.6504
-0.929987
-27.7712
-45.9302
-45.5531
-53.2393
-148.224
-80.318
-121.835
-51.558
-54.6178
-45.8788
-0.986327
-24.1014
-27.7709
-45.6221
-46.1251
-53.3424
-47.2554
-38.7481
-46.6119
-46.3775
-41.7296
-38.6645
-42.739
-40.0392
-84.4392
-67.905
-70.1916
-88.3375
-55.2188
-52.3091
-55.6454
-61.2198
-47.2443
-46.3777
-38.7665
-46.5884
-41.7933
-40.0695
-38.7242
-42.8048
-84.2997
-88.373
-67.9432
-70.2285
-55.2791
-61.2587
-52.4426
-55.6875
-2.3106
0.96696
-176.858
120.408
-131.072
-131.07
-109.908
33.8451
-75.4661
-60.8868
-72.0905
-66.8122
-47.5221
-44.9851
-51.9587
-42.9288
-44.1559
-44.3109
-42.1505
-34.6862
-41.5031
-44.9597
-44.7587
-41.1915
14.7877
14.7648
5.99161
116.991
-57.6449
-64.6848
-94.6571
-27.7203
-46.0524
-46.0356
-47.4338
-45.6958
-56.4652
-54.5772
-53.7776
-58.1676
-3.24913
2.58057
-176.123
120.571
-75.3741
-60.7721
-72.0679
-66.783
-47.7865
-45.1874
-52.1517
-43.14
-41.6077
-45.0164
-44.8687
-41.257
-57.5865
-64.588
-94.3428
-27.4614
-56.5429
-54.6837
-53.9567
-58.2135
-36.8425
-36.2804
-36.7913
-40.088
-50.6322
-57.112
-57.6752
-50.1864
-49.0505
-48.9712
-52.4832
-46.7351
-51.9811
-49.8988
-37.911
-48.9183
-41.9721
-41.9855
-41.7835
-42.8727
-61.479
-57.2839
-54.1173
-72.4125
-43.2584
-43.3238
-30.0945
-59.4599
-69.7209
-69.7312
-76.7182
-66.4105
-36.8753
-36.3175
-36.7956
-40.0973
-50.6159
-57.1181
-57.6808
-50.1824
-52.1284
-49.9286
-37.8978
-49.0231
-61.519
-57.3157
-54.1702
-72.4389
-97.4866
-79.5914
-88.2016
-75.4544
-97.4162
-79.5402
-88.2073
-75.4209
-79.5177
-68.6603
-68.6533
-60.7288
8.16872
-2.13344
0.984651
-3.96567
194.343
196.26
203.126
194.357
-41.7101
-45.4428
-41.3247
-45.3755
-41.7182
-45.5075
-41.301
-45.3789
-42.1768
-43.3926
-41.8589
-42.1783
-101.009
-111.309
-94.6353
-101.027
-49.3312
-47.3874
-51.572
-48.6188
-49.4864
-47.5149
-51.7265
-48.7444
-41.3533
-41.4051
-41.4327
-43.6394
-56.0146
-58.2199
-58.2351
-60.2795
-41.7197
-33.6726
-42.2086
-41.871
-163.988
119.974
-111.468
34.3659
-101.889
-91.2099
-49.5739
-41.904
-44.0661
-40.7439
-46.2002
-43.1431
-64.1991
130.754
-7.8306
107.715
-82.0994
-12.3042
-51.0389
-43.6732
-47.8313
-45.3262
-53.9853
-57.9301
-111.453
37.3779
-163.846
119.659
-101.845
-91.1788
-44.217
-41.014
-49.7961
-42.1556
-46.3658
-43.2689
-8.31049
111.117
-64.2993
130.467
-82.325
-12.3593
-47.8785
-45.372
-51.2158
-43.8236
-54.1049
-57.9782
-61.5967
-52.2317
-41.5373
-41.7069
-53.9242
-45.0875
-52.1715
-45.3697
-41.6252
-44.447
-34.6514
-39.7418
-33.0315
-43.8087
-40.7789
-42.8019
-82.3113
-52.2049
-65.9588
-57.4031
-59.2874
-82.8423
-41.0257
-68.1096
-52.6637
-58.7746
-48.7269
-51.2267
-51.9436
-65.2843
-70.7504
-62.9965
-61.5963
-52.2247
-52.1753
-45.3719
-41.5452
-41.711
-53.9388
-45.0925
-41.6669
-44.4966
-40.7971
-42.8319
-34.6772
-39.7613
-32.5581
-43.8844
-82.4222
-52.3392
-41.1272
-68.1659
-65.9513
-57.4293
-59.3616
-82.9153
-52.7853
-58.8093
-70.7749
-63.0162
-48.6377
-51.3593
-52.0054
-65.3206
-114.925
-133.435
188.233
187.908
-92.0312
-92.0233
192.317
192.332
-88.9227
-68.6266
-78.6521
-59.27
-48.6455
-53.098
-38.9359
-42.451
-42.0028
-41.9452
-35.4842
-35.6963
-45.7012
-46.4264
-43.9237
-41.6586
5.96375
5.43784
156.943
157.007
-81.8625
-113.179
-1.17735
-12.9508
-54.6173
-54.6468
-44.4979
-44.454
-54.6934
-51.3338
-59.399
-56.5257
-114.9
-133.366
188.042
188.02
-88.87
-68.5744
-78.635
-59.5055
-53.2836
-48.8156
-39.2728
-42.6195
-45.8021
-46.5635
-43.9697
-41.7289
-113.187
-81.7479
-13.2675
-1.35156
-51.4698
-54.9019
-56.5756
-59.4177
-40.2054
-38.9732
-42.2394
-40.9404
-63.0543
-67.7754
-44.6726
-50.2534
-53.5665
-53.5718
-44.4839
-44.4859
-36.7423
-41.9327
-45.0378
-50.745
-41.4429
-41.4202
-43.9355
-43.9556
-47.9348
-51.6031
-96.3608
-84.6999
-15.8036
-16.0531
-95.5986
-95.6334
-82.1472
-82.1591
-62.4904
-62.4968
-40.2499
-38.9916
-42.2432
-40.9496
-67.7426
-62.6475
-44.6479
-50.2787
-41.9305
-36.7326
-45.132
-50.7632
-51.6386
-47.9542
-84.7172
-96.3897
-141.258
-83.1644
-93.4266
-176.957
-53.2216
-55.3977
-71.5447
-66.9168
-74.3983
-90.0756
-78.1345
-61.3672
-56.5285
-120.741
-103.861
-90.5386
-141.384
-176.731
-93.3859
-83.0675
-56.6142
-91.7076
-103.725
-120.453
-74.3804
-61.3674
-77.9711
-89.9141
-53.2594
-66.9027
-71.4118
-55.3974
-113.437
-108.193
-79.2249
-77.2921
-113.385
-77.2535
-79.2173
-108.186
-51.048
-52.3191
-60.3176
-58.4595
-51.0442
-58.479
-60.3242
-52.3177
-19.1102
-21.2722
8.05484
1.15233
-75.2317
-31.6554
-5.53667
-37.7364
-75.2182
-37.8119
-5.76178
-31.9165
-19.0711
0.971031
5.57526
-21.1325
61.9721
123.501
193.439
64.0617
121.818
115.936
201.618
147.973
121.596
147.747
201.629
114.69
61.9174
64.1722
193.467
123.385
-43.3155
-39.0252
-43.0248
-47.0837
-39.4431
-31.4316
-39.6266
-37.7066
-52
-52.5037
-43.0985
-43.7951
-63.0446
-53.3732
-47.6214
-56.3528
-43.3081
-47.0634
-43.111
-39.0484
-63.11
-56.4179
-47.6651
-53.3849
-52.0465
-43.8294
-43.0653
-52.5922
-39.5838
-37.7145
-39.6246
-31.4678
-43.4259
-46.4349
-43.0973
-40.6954
-43.4272
-40.7016
-43.0994
-46.4369
-39.9053
-41.5493
-41.6256
-39.793
-39.8804
-39.7789
-41.6299
-41.5295
-92.3365
-74.858
-107.705
-61.0547
-62.4306
-75.1582
-92.0818
-69.1641
-62.4649
-69.1984
-92.0923
-75.1689
-92.4123
-61.0397
-107.734
-74.8932
-42.0489
-44.7321
-47.1972
-46.0077
-48.5313
-50.1892
-47.8207
-44.994
-51.1172
-56.0598
-51.9166
-53.6755
-53.1273
-50.3551
-51.0247
-52.8072
-42.1202
-46.0967
-47.3093
-44.8328
-53.2677
-52.9444
-51.1433
-50.5353
-51.261
-53.8915
-52.0999
-56.2253
-48.7718
-45.1176
-47.9661
-50.4094
-40.6349
-42.798
-43.9011
-44.5373
-40.6719
-44.5957
-43.9259
-42.8128
-45.7454
-42.7592
-41.4966
-41.8354
-45.558
-41.7481
-41.4577
-42.6714
-57.972
-58.4609
-60.0382
-65.6566
-49.4388
-47.4743
-56.1806
-57.3126
-49.4953
-57.3745
-56.2065
-47.5013
-58.0031
-65.6664
-60.0473
-58.5003
-43.1757
-37.1198
-35.7625
-41.7776
-43.4309
-42.0381
-36.0086
-37.3482
-44.8476
-45.7391
-42.7663
-42.7639
-44.7489
-42.5562
-42.6762
-45.7393
-130.423
-160.455
-167.369
-61.0793
-55.1378
-47.862
-21.6122
16.7315
-48.5215
-46.3541
-45.9271
-50.0982
-157.654
-132.39
-167.712
-55.3999
-61.307
-48.2818
4.99614
-21.9548
-48.6907
-46.0149
-46.5258
-50.215
-44.5519
-40.7136
-45.1347
-44.4031
-39.9467
-38.7984
-40.0953
-39.4322
-81.1696
-72.164
-73.2173
-90.4562
-55.4778
-54.4009
-55.8409
-58.1676
-44.5509
-44.4081
-40.7206
-45.1182
-40.01
-39.4742
-38.8629
-40.1772
-81.1574
-90.5173
-72.2086
-73.2468
-55.515
-58.2119
-54.6048
-55.9432
31.8715
19.6379
-117.509
108.67
-131.135
-131.13
-119.296
-133.455
-68.8442
-62.9807
-69.3734
-66.1794
-45.7023
-44.9525
-52.713
-43.0187
-43.6966
-43.7698
-42.3531
-37.9093
-42.6899
-42.5479
-43.4746
-41.3086
15.2462
15.1743
4.7499
62.8352
-63.2187
-60.0976
-78.4265
-47.3342
-46.0918
-46.1216
-46.0555
-46.1333
-55.5836
-54.7105
-54.6643
-56.0541
31.1417
19.5211
-118.564
108.402
-68.5319
-62.9812
-69.4295
-66.1814
-45.9752
-45.1524
-52.8158
-43.2187
-42.7792
-42.6404
-43.5975
-41.3809
-62.9737
-59.9468
-77.688
-47.1573
-55.6967
-54.8193
-54.8183
-56.1307
-36.8528
-36.6514
-36.6975
-38.7997
-51.8287
-55.2941
-55.244
-51.7006
-49.2441
-49.2448
-50.7389
-48.0652
-52.2601
-47.4994
-40.137
-52.7639
-42.119
-42.124
-41.9409
-42.4844
-59.9465
-57.9766
-57.046
-64.5718
-43.7544
-43.7908
-36.052
-51.1708
-70.3667
-70.3721
-73.6071
-68.5063
-36.8819
-36.6985
-36.7774
-38.8166
-51.816
-55.2977
-55.239
-51.6988
-52.3676
-47.5774
-40.0608
-52.7954
-59.9819
-58.0126
-57.1105
-64.6088
-89.4771
-81.3622
-85.441
-78.3138
-89.4065
-81.3058
-85.3823
-78.2248
-74.3158
-68.8663
-68.8624
-64.5089
4.40437
-0.227234
2.20977
-0.196718
196.01
196.716
201.909
196.021
-42.696
-44.3735
-42.4625
-43.6476
-42.6997
-44.3857
-42.4466
-43.6483
-42.3544
-42.8657
-42.0966
-42.3534
-102.898
-108.964
-99.7484
-102.907
-49.0842
-48.1428
-49.8513
-48.857
-49.2319
-48.2757
-49.9985
-48.9875
-41.2896
-41.346
-41.3612
-41.6263
-57.1666
-58.2572
-58.2648
-59.1808
-41.745
-36.5209
-43.4201
-41.9906
-81.1616
-44.4942
-185.972
97.1473
-141.43
-132.846
-123.047
-131.736
-103.56
-84.5814
-96.7072
-90.3221
-53.0009
-49.1292
-52.4764
-42.7744
-50.1279
-46.1637
-45.1197
-43.4104
-44.4267
-42.7459
-45.3841
-43.329
-20.7771
-3.9418
-56.6824
80.0463
14.1521
19.3507
-3.52575
58.0589
-36.5623
-53.706
-66.6111
-22.0584
-45.4059
-44.9852
-48.4369
-43.7485
-45.6606
-45.9467
-46.0634
-45.6564
-53.8376
-56.4738
-54.3608
-57.4635
-141.346
-132.839
-123.039
-131.072
-81.8846
-45.1357
-185.704
96.7307
-103.671
-84.8967
-96.762
-90.321
-50.3897
-46.364
-45.3067
-43.7646
-53.2813
-49.4079
-52.7394
-43.0187
-44.5516
-42.8096
-45.5283
-43.452
14.0465
19.3524
-3.65543
62.0728
-20.9455
-3.92135
-57.635
80.4557
-36.6118
-53.7818
-66.8794
-22.0424
-45.706
-45.9986
-46.1063
-45.6809
-45.5928
-45.1817
-48.6299
-43.9175
-53.9112
-56.561
-54.4679
-57.5209
-52.0505
-64.5957
-61.2554
-51.9548
-38.5217
-36.4946
-38.9947
-39.7193
-48.5744
-49.4906
-51.1319
-46.7194
-48.129
-48.7688
-50.8998
-46.5172
-40.0096
-38.5464
-40.0762
-43.2046
-38.2013
-36.5013
-35.9799
-38.799
-44.426
-49.7205
-41.8292
-49.0822
-39.7943
-41.6069
-40.7824
-41.3829
-91.6555
-84.2559
-92.2862
-71.1332
-64.1977
-59.1393
-63.5081
-59.271
-67.6115
-63.2079
-62.812
-72.5762
-74.3248
-46.2789
-52.256
-61.2258
-54.9428
-54.6655
-54.0881
-56.3782
-49.5353
-51.4364
-50.489
-49.0885
-55.6618
-56.4296
-54.3705
-60.4164
-65.3502
-68.3566
-68.3944
-64.666
-52.0281
-64.6698
-61.2689
-51.938
-48.1325
-48.7715
-50.9051
-46.5187
-38.5414
-36.5258
-39.0091
-39.732
-48.5596
-49.4817
-51.1197
-46.7196
-40.109
-38.6059
-40.1248
-43.2567
-39.8179
-41.6255
-40.8027
-41.407
-38.2544
-36.5453
-36.0274
-38.8279
-44.4746
-49.7776
-42.1878
-49.1487
-91.7469
-84.2923
-92.4223
-71.3195
-74.1803
-46.35
-52.2129
-61.2879
-64.2092
-59.1472
-63.4991
-59.3038
-67.6636
-63.2562
-62.8883
-72.6275
-55.0157
-54.7597
-54.1941
-56.4303
-65.3011
-68.3705
-68.4217
-64.6871
-49.5562
-51.4758
-50.5039
-49.0756
-55.6977
-56.462
-54.4402
-60.4561
-148.757
-107.728
-118.01
-126.994
160.983
191.199
188.892
189.894
-99.0244
-85.5647
-92.2563
-92.2516
180.211
195.678
194.325
194.339
-73.9435
-77.6163
-81.4813
-71.6865
-67.4543
-68.3417
-73.4129
-62.7533
-50.6011
-49.6543
-49.3281
-51.0944
-42.5427
-42.0793
-39.4644
-43.2186
-41.9248
-41.5048
-41.7614
-41.7332
-33.572
-32.0772
-33.957
-34.0942
-45.3425
-46.7064
-45.8896
-46.1541
-41.3251
-41.3812
-41.6295
-41.4127
7.17615
8.22222
7.68897
7.3458
149.559
188.321
159.674
159.677
-97.6852
-91
-87.198
-105.019
-14.5803
-4.63179
-5.90956
-8.17819
-52.2772
-54.9066
-54.314
-54.3237
-45.2869
-43.5322
-44.6679
-44.6442
-52.7119
-51.8174
-53.3047
-51.6438
-57.903
-58.1329
-58.5929
-57.1277
-148.822
-107.668
-117.982
-126.929
160.96
191.204
189.909
188.901
-73.901
-77.5695
-81.4271
-71.6369
-67.4322
-68.3315
-73.3969
-62.7391
-50.7844
-49.8161
-51.2729
-49.4983
-42.7582
-42.25
-39.7692
-43.3727
-45.4574
-46.8289
-45.9999
-46.281
-41.3841
-41.4212
-41.6733
-41.4715
-96.3819
-90.637
-103.826
-86.985
-14.3053
-1.28676
-8.6317
-3.3667
-52.8937
-51.9936
-51.8056
-53.5476
-57.9468
-58.1604
-57.1694
-58.62
-37.2412
-40.6659
-40.5832
-40.4102
-40.8656
-41.8414
-41.7737
-41.1274
-60.71
-70.6356
-64.1964
-66.0351
-48.9586
-46.5141
-46.382
-48.7747
-54.1379
-56.8445
-54.1504
-54.1536
-45.7146
-44.0384
-44.7261
-44.7269
-37.8596
-39.9975
-37.861
-38.2552
-46.7361
-47.8571
-45.9371
-48.5381
-41.7159
-41.6488
-40.5443
-41.5908
-43.3241
-45.0772
-43.8922
-43.9018
-51.4247
-47.7155
-48.6437
-50.5041
-82.2501
-97.9256
-96.4333
-88.5611
-19.9973
-8.206
-14.9344
-15.064
-77.0649
-106.479
-96.4393
-96.4644
-80.0514
-88.8041
-83.6842
-83.6891
-64.4514
-61.5075
-62.8261
-62.8305
-37.2493
-40.6892
-40.62
-40.4245
-40.873
-41.8453
-41.7786
-41.1349
-60.722
-70.3081
-66.0319
-64.1471
-48.9467
-46.596
-46.3793
-48.7909
-37.9393
-40.0411
-38.2097
-37.9007
-46.8997
-47.9673
-46.0351
-48.6107
-51.4499
-47.72
-50.5232
-48.651
-82.2337
-97.9471
-88.582
-96.4342
-126.091
-105.826
-112.239
-97.9834
-61.6221
-55.9682
-67.3254
-61.7274
-76.3601
-68.8847
-76.813
-69.7056
-78.725
-90.2767
-134.427
-105.037
-126.008
-105.755
-112.196
-97.9266
-78.7115
-90.5547
-134.377
-105.149
-76.3846
-68.8724
-76.7248
-69.6955
-61.1125
-56.1019
-67.3791
-61.3825
-99.7216
-91.4298
-92.2624
-84.8471
-99.7039
-91.4027
-92.2503
-84.8293
-52.3174
-53.8696
-55.2033
-53.729
-52.3304
-53.735
-55.2199
-53.7347
-0.991159
-5.38328
2.91981
-0.403826
-32.8704
-30.3738
-17.2921
-18.5315
-33.0532
-30.5916
-17.5896
-18.8523
-1.21529
-5.5274
2.39158
-0.84734
141.609
156.308
180.243
185.667
150.062
142.506
173.504
155.467
142.429
149.481
155.547
173.547
142.968
140.842
185.691
180.317
-42.6587
-43.7099
-41.2876
-43.1505
-33.0382
-33.7938
-36.6241
-35.7537
-48.0413
-49.2131
-46.3609
-47.5527
-55.7093
-56.2945
-52.2681
-52.8286
-42.6726
-43.714
-41.3187
-43.1421
-55.7309
-56.3461
-52.3001
-52.8784
-48.0029
-49.2175
-46.3988
-47.6039
-33.0439
-33.8008
-36.6226
-35.7195
-42.776
-44.3641
-42.8124
-44.0698
-44.3667
-42.7791
-44.0727
-42.8157
-40.7526
-40.3331
-41.1337
-40.8153
-40.3172
-40.7366
-40.8042
-41.122
-88.5109
-76.337
-94.4883
-93.0868
-71.4978
-73.5297
-80.2159
-80.0249
-73.5512
-71.5262
-80.0431
-80.2415
-76.3613
-88.5766
-93.1796
-94.5715
-42.126
-39.1197
-44.6187
-44.2287
-48.2793
-46.8457
-48.0482
-46.8352
-52.7176
-53.6596
-55.0191
-56.0686
-51.583
-51.123
-51.2339
-51.6183
-42.1895
-39.2056
-44.7072
-44.3146
-51.702
-51.2377
-51.3597
-51.6793
-52.8839
-53.7973
-55.1111
-56.181
-48.4724
-47.0102
-48.218
-46.9857
-44.3386
-43.4498
-45.6448
-44.0616
-44.3844
-43.4845
-45.6923
-44.0922
-43.3703
-43.0029
-42.3105
-42.1438
-43.2468
-42.8865
-42.2284
-42.0596
-60.306
-61.9468
-60.1679
-61.959
-53.5805
-57.592
-55.6216
-55.8359
-53.6174
-57.6544
-55.6616
-55.8855
-60.3339
-61.9667
-60.1873
-61.9696
-40.8278
-39.6117
-39.1127
-37.5743
-39.8444
-41.0879
-38.1181
-39.4255
-44.8368
-44.0626
-44.3706
-43.342
-43.9348
-44.7635
-43.2049
-44.2987
-189.22
7.58297
-133.005
-34.432
-132.79
-115.589
-50.8178
-44.6066
-47.6146
-46.1364
-47.2604
-45.9523
-51.2551
83.662
-25.3476
85.6278
-39.5541
-26.7633
-49.7594
-44.578
-46.9426
-45.1419
-52.1564
-51.4691
-132.906
-34.244
-188.537
6.77399
-132.919
-115.553
-47.8397
-46.3938
-51.0558
-44.8523
-47.5559
-46.1772
-25.8507
83.2752
-51.4547
83.5748
-39.5526
-26.8571
-47.0108
-45.2202
-49.7937
-44.7078
-52.2886
-51.5399
-52.344
-47.6746
-40.2801
-41.2293
-50.1735
-45.1165
-48.1355
-44.6099
-42.826
-39.7807
-39.147
-39.1901
-41.3819
-43.2807
-39.9988
-40.7164
-79.9144
-92.6454
-70.9941
-65.2807
-66.8874
-79.4957
-85.8838
-92.9966
-54.6436
-56.6969
-52.1292
-52.8607
-54.0153
-59.0372
-61.7602
-59.519
-52.3778
-47.6744
-48.1357
-44.6098
-40.2805
-41.238
-50.1757
-45.1062
-42.8923
-39.8316
-40.0266
-40.7506
-39.2154
-39.2262
-41.4543
-43.3443
-79.8431
-92.4819
-85.6589
-93.0454
-70.9885
-65.3419
-66.9484
-79.5577
-54.7532
-56.7403
-61.7993
-59.5528
-52.1739
-53.0036
-54.067
-59.078
-176.29
93.5177
-54.5128
92.7642
-183.766
-149.806
120.672
144.083
-119.51
-122.616
-119.506
-122.533
-107.964
-107.959
49.0814
49.1765
-79.2049
-75.651
-64.8258
-58.8454
-76.6515
-68.7469
-71.6917
-62.3331
-52.9561
-42.4458
-50.938
-43.099
-50.587
-53.4012
-41.7916
-43.3408
-43.1678
-40.1178
-43.2797
-40.3081
-42.3089
-42.264
-35.473
-35.5881
-43.4302
-41.6416
-44.9269
-45.533
-44.6353
-44.7169
-41.5967
-41.3612
5.40666
63.1229
6.01357
63.0689
3.98491
3.88129
116.738
116.749
-76.1716
-39.2117
-88.4681
-52.0181
-91.6386
-91.7691
-24.3048
-30.8703
-46.0447
-46.0016
-46.0925
-45.8566
-47.44
-47.4581
-45.8485
-45.8564
-56.4127
-56.5663
-53.8959
-56.2803
-55.024
-53.1073
-58.1582
-57.2063
-176.466
93.3774
-54.9105
92.9307
-183.032
-149.604
143.941
120.759
-79.1835
-75.5743
-64.7726
-58.8341
-76.5596
-68.7043
-71.6546
-62.3096
-53.2115
-42.6795
-51.1504
-43.3044
-53.6144
-50.7876
-42.0525
-43.5249
-43.5493
-41.7253
-45.007
-45.5885
-44.746
-44.8332
-41.6551
-41.4363
-76.397
-39.1009
-88.4764
-52.0373
-92.0231
-91.8562
-30.8832
-24.0187
-56.4873
-56.6327
-54.0234
-56.3392
-53.2593
-55.2637
-57.2575
-58.2008
-37.3638
-39.2244
-35.9514
-38.5769
-38.0619
-38.3782
-40.2953
-39.8552
-52.7709
-48.7016
-59.0308
-55.1281
-56.3739
-59.4544
-48.5867
-51.7802
-50.6433
-47.6631
-50.645
-47.6648
-52.4107
-52.4435
-46.7755
-46.668
-36.5715
-50.7747
-46.7129
-50.8656
-33.4758
-37.755
-47.8545
-48.6518
-41.7112
-42.357
-41.7285
-42.3702
-41.7264
-41.7133
-42.8492
-42.811
-59.6277
-67.7314
-55.5034
-63.0342
-53.1336
-55.2065
-73.1791
-71.0758
-38.2955
-52.4469
-38.3737
-52.4899
-30.3982
-30.2673
-59.9286
-59.9353
-72.3164
-67.5919
-72.3265
-67.6019
-76.4967
-76.502
-66.141
-66.1456
-37.3874
-39.239
-35.9812
-38.5998
-38.0799
-38.4008
-40.3027
-39.8668
-52.7532
-48.6855
-59.03
-55.1398
-59.4516
-56.3707
-48.5727
-51.7858
-36.6615
-50.8585
-46.7301
-50.9587
-37.5518
-33.5728
-47.9709
-48.8441
-59.6988
-67.7685
-55.5759
-63.0739
-55.2577
-53.198
-71.1017
-73.2009
-95.5282
-99.8636
-85.662
-74.9519
-83.9867
-94.0121
-73.5997
-76.9498
-95.4767
-99.77
-85.6178
-74.8822
-93.9024
-84.3286
-76.77
-73.5775
-79.4312
-78.9115
-73.6472
-64.1498
-73.6408
-64.1431
-60.6068
-60.6101
9.24156
7.4967
-0.221348
-1.13351
-1.46646
2.95482
-4.3719
-4.53766
194.233
199.703
194.998