# vtk DataFile Version 2.0
tet_velo
ASCII
DATASET UNSTRUCTURED_GRID
POINTS 29498 float
-0.852954 0.165 -1.895
-0.68319 0.305 2.105
-0.681017 0.735 -1.975
-0.605984 0.995 2.075
0.842865 0.165 -1.905
0.683188 0.305 2.105
0.675 0.735 -1.98046
0.605 0.995997 2.075
-0.812655 0.195378 -0.561667
-0.787745 0.210366 0.771667
-0.768605 0.934266 -0.625
-0.735978 1.01332 0.725
0.800819 0.200487 -0.568333
0.784108 0.210639 0.768333
0.765849 0.936181 -0.62864
0.73519 1.01585 0.72318
-1.64133 -0.260904 -2.93699
-1.63082 -0.185287 -1.86272
-1.59212 -0.156341 -0.529759
-1.53143 -0.147418 0.799445
-1.4455 -0.0846748 2.1321
-1.42549 -0.0366598 3.20483
-1.4332 0.00506523 4.28046
-1.63083 0.0672344 -2.97013
-1.61977 0.161165 -1.89412
-1.58645 0.211985 -0.558313
-1.51596 0.224205 0.775517
-1.39924 0.280322 2.11102
-1.39546 0.32691 3.18419
-1.41711 0.368973 4.25948
-1.55612 0.698932 -3.04188
-1.50453 0.791087 -1.9672
-1.53499 0.942096 -0.620154
-1.47086 1.00157 0.727663
-1.34421 1.00477 2.07449
-1.3649 1.04889 3.14706
-1.40266 1.09768 4.21979
-1.49752 1.76003 -3.13731
-1.47479 1.86382 -2.06001
-1.47931 2.01553 -0.707171
-1.47302 2.1177 0.649015
-1.44343 2.1575 2.0018
-1.43062 2.18413 3.07899
-1.43301 2.22074 4.15305
-0.861769 -0.259759 -2.93906
-0.844997 -0.180957 -1.86411
-0.813747 -0.1637 -0.532326
-0.787377 -0.156972 0.79591
-0.731718 -0.0737263 2.12758
-0.718627 -0.029709 3.20152
-0.724092 0.00749048 4.27809
-0.865002 0.0618663 -2.97279
-0.700217 0.334233 3.18138
-0.715032 0.370925 4.25752
-0.803103 0.673731 -3.04661
-0.677092 1.04649 3.14659
-0.706849 1.0963 4.21896
-0.739239 1.74398 -3.14171
-0.714267 1.84932 -2.06442
-0.726351 2.01325 -0.710353
-0.742248 2.12224 0.647728
-0.73404 2.15833 2.00179
-0.725635 2.18267 3.07904
-0.725288 2.21921 4.15276
0.745603 -0.258676 -2.94665
0.805745 -0.179603 -1.87249
0.790504 -0.160036 -0.538549
0.760729 -0.155896 0.792438
0.693486 -0.0733322 2.12635
0.684235 -0.0290317 3.20023
0.688161 0.00845963 4.27638
0.727099 0.0625526 -2.98054
0.668593 0.334836 3.18052
0.679408 0.37187 4.25603
0.68697 0.674321 -3.05293
0.642722 1.04745 3.1458
0.669083 1.09739 4.21753
0.763983 1.74533 -3.14681
0.783956 1.85081 -2.06911
0.774498 2.01513 -0.714196
0.725693 2.12421 0.644901
0.68192 2.16001 1.99969
0.677109 2.18417 3.07709
0.685612 2.22065 4.15071
1.54361 -0.258272 -2.95109
1.59831 -0.181898 -1.87726
1.57992 -0.150518 -0.541152
1.52372 -0.144347 0.792499
1.43466 -0.0831563 2.12846
1.40666 -0.0349469 3.20157
1.40733 0.00716613 4.27672
1.52919 0.0693076 -2.98436
1.6038 0.163599 -1.90915
1.58392 0.218259 -0.569684
1.5241 0.227214 0.769061
1.41182 0.281587 2.10832
1.38429 0.328518 3.18158
1.39338 0.371034 4.25611
1.47869 0.700762 -3.05427
1.50489 0.792918 -1.97898
1.54515 0.946594 -0.629061
1.48237 1.00575 0.722509
1.35557 1.00703 2.07213
1.35151 1.051 3.14461
1.37742 1.09999 4.21653
1.52112 1.7629 -3.14746
1.53612 1.86696 -2.0694
1.52666 2.0193 -0.714981
1.47098 2.12158 0.643101
1.41122 2.16088 1.99727
1.39629 2.18717 3.07481
1.40277 2.22367 4.14875
-0.805442 0.45 -1.97346
-0.00504449 0.165613 -1.89939
-0.815875 0.197118 -1.22833
-0.713141 0.65 2.15855
-9.83477e-07 0.299276 2.11072
-0.748827 0.244324 1.43833
-0.00300848 0.809991 -2.05272
-0.761725 0.871547 -1.3
-0.000491977 1.03199 2.11149
-0.704374 1.03755 1.4
0.798923 0.45 -1.98272
0.821894 0.182691 -1.23667
0.712704 0.650499 2.15861
0.746262 0.245205 1.43667
0.757346 0.872512 -1.30455
0.703569 1.0394 1.39909
-0.797208 0.205864 0.105
-0.877967 0.564822 -0.593333
-0.00591771 0.200733 -0.565
-0.878871 0.611841 0.748333
-0.00181887 0.21453 0.77
-0.757882 0.979381 0.05
-0.00137804 1.18549 -0.62682
-0.000394252 1.41499 0.72409
0.785587 0.21244 0.1
0.876609 0.568334 -0.598487
0.879074 0.613247 0.745757
0.75664 0.982138 0.04727
-0.881345 0.507411 -1.26417
-0.885272 0.588332 0.0775
-0.895922 0.630921 1.41917
-0.0054811 0.19334 -1.2325
-0.00386829 0.211947 0.1025
-0.000909927 0.248483 1.4375
-0.00402649 0.45 -2.28601
-0.00024648 0.650249 2.30213
-0.00219326 0.979267 -1.30228
-0.000886147 1.41547 0.048635
-0.000443114 1.24793 1.39955
0.88305 0.509167 -1.27061
0.883753 0.59079 0.073635
0.895916 0.631873 1.41788
-1.23636 0.163083 -1.89456
-0.848975 -0.00797871 -1.87956
-0.858978 0.113433 -2.4339
-1.04122 0.292661 2.10801
-0.707454 0.115637 2.11629
-0.691703 0.319616 2.64319
-1.09278 0.763044 -1.9711
-0.74206 0.704365 -2.5108
-0.697642 1.29216 -2.01971
-0.975096 0.999887 2.07474
-0.641538 1.02075 2.61079
-0.670012 1.57666 2.03839
0.824305 -0.00730125 -1.88874
0.784982 0.113776 -2.44277
1.22333 0.164299 -1.90707
0.688337 0.115834 2.11567
0.67589 0.319918 2.64276
1.0475 0.293293 2.10666
0.680985 0.704661 -2.5167
0.729478 1.29291 -2.02479
1.08994 0.763959 -1.97972
0.623861 1.02172 2.6104
0.64346 1.57801 2.03735
0.980286 1.00151 2.07356
-1.19955 0.203682 -0.55999
-0.813201 0.0158391 -0.546996
-1.15185 0.217286 0.773592
-0.787561 0.0266968 0.783788
-1.1518 0.938181 -0.622577
-0.747478 1.47376 -0.667677
-1.10342 1.00744 0.726332
-0.739113 1.56778 0.686364
0.795662 0.0202255 -0.553441
1.19237 0.209373 -0.569009
0.772419 0.0273715 0.780386
1.1541 0.218927 0.768697
0.770173 1.47565 -0.671418
1.1555 0.941388 -0.62885
0.730441 1.57003 0.684041
1.10878 1.0108 0.722844
-1.63607 -0.223096 -2.39986
-1.63608 -0.0968348 -2.95356
-1.25155 -0.260332 -2.93803
-1.61147 -0.170814 -1.19624
-1.62529 -0.0120609 -1.87842
-1.23791 -0.183122 -1.86342
-1.56177 -0.15188 0.134843
-1.58928 0.0278219 -0.544036
-1.20293 -0.16002 -0.531042
-1.48846 -0.116047 1.46577
-1.52369 0.0383936 0.787481
-1.1594 -0.152195 0.797678
-1.43549 -0.0606673 2.66847
-1.42237 0.0978236 2.12156
-1.08861 -0.0792005 2.12984
-1.42934 -0.0157973 3.74265
-1.41047 0.145125 3.19451
-1.07206 -0.0331844 3.20318
-1.42515 0.187019 4.26997
-1.07864 0.00627786 4.27927
-1.6253 0.1142 -2.43212
-1.59347 0.383083 -3.006
-1.24791 0.0645504 -2.97146
-1.60311 0.186575 -1.22622
-1.56215 0.476126 -1.93066
-1.55121 0.218095 0.108602
-1.56072 0.57704 -0.589233
-1.4576 0.252264 1.44327
-1.49341 0.612887 0.75159
-1.39735 0.303616 2.64761
-1.37172 0.642548 2.09275
-1.40628 0.347942 3.72184
-1.38018 0.687899 3.16563
-1.04784 0.330571 3.18278
-1.40989 0.733329 4.23963
-1.06607 0.369949 4.2585
-1.53033 0.74501 -2.50454
-1.52682 1.22948 -3.08959
-1.17961 0.686332 -3.04424
-1.51976 0.866591 -1.29368
-1.48966 1.32745 -2.01361
-1.50292 0.971832 0.0537546
-1.50715 1.47881 -0.663662
-1.40753 1.00317 1.40108
-1.47194 1.55963 0.688339
-1.35455 1.02683 2.61078
-1.39382 1.58114 2.03815
-1.38378 1.07329 3.68342
-1.39776 1.61651 3.11303
-1.02099 1.04769 3.14683
-1.41784 1.65921 4.18642
-1.05476 1.09699 4.21937
-1.48616 1.81193 -2.59866
-1.11838 1.752 -3.13951
-1.47705 1.93967 -1.38359
-1.09453 1.85657 -2.06222
-1.47617 2.06661 -0.0290778
-1.10283 2.01439 -0.708762
-1.45822 2.1376 1.32541
-1.10763 2.11997 0.648371
-1.43703 2.17082 2.5404
-1.08873 2.15792 2.0018
-1.43182 2.20244 3.61602
-1.07813 2.1834 3.07902
-1.07915 2.21998 4.15291
-0.853383 -0.220358 -2.40159
-0.863386 -0.0989465 -2.95593
-0.0580831 -0.259218 -2.94286
-0.829372 -0.172328 -1.19822
-0.0196256 -0.18028 -1.8683
-0.800562 -0.160336 0.131792
-0.0116217 -0.161868 -0.535437
-0.759547 -0.115349 1.46175
-0.0133238 -0.156434 0.794174
-0.725172 -0.0517176 2.66455
-0.0191158 -0.0735293 2.12697
-0.72136 -0.0111093 3.7398
-0.709422 0.152262 3.19145
-0.0171958 -0.0293703 3.20088
-0.719562 0.189208 4.2678
-0.0179658 0.00797506 4.27723
-0.834053 0.367799 -3.0097
-0.0689515 0.0622094 -2.97667
-0.707624 0.352579 3.71945
-0.688654 0.690362 3.16398
-0.0158118 0.334534 3.18095
-0.71094 0.733613 4.23824
-0.0178117 0.371397 4.25677
-0.771171 1.20885 -3.09416
-0.0580664 0.674026 -3.04977
-0.691971 1.0714 3.68278
-0.701364 1.61458 3.11282
-0.0171851 1.04697 3.14619
-0.716069 1.65776 4.18586
-0.0188831 1.09685 4.21825
-0.726753 1.79665 -2.60307
0.0123722 1.74466 -3.14426
-0.720309 1.93129 -1.38739
0.0348446 1.85007 -2.06677
-0.7343 2.06775 -0.0313129
0.0240731 2.01419 -0.712275
-0.738144 2.14029 1.32476
-0.00827742 2.12323 0.646314
-0.729838 2.1705 2.54041
-0.0260597 2.15917 2.00074
-0.725462 2.20094 3.6159
-0.024263 2.18342 3.07807
-0.0198381 2.21993 4.15174
0.775674 -0.219139 -2.40957
0.736351 -0.0980618 -2.9636
1.14461 -0.258474 -2.94887
0.798125 -0.169819 -1.20552
1.20203 -0.18075 -1.87487
0.775617 -0.157966 0.126945
1.18521 -0.155277 -0.539851
0.727108 -0.114614 1.45939
1.14223 -0.150122 0.792469
0.688861 -0.0511819 2.66329
1.06407 -0.0782442 2.1274
0.686198 -0.010286 3.73831
0.676414 0.152902 3.19038
1.04545 -0.0319893 3.2009
0.683785 0.190165 4.26621
1.04775 0.00781288 4.27655
0.707035 0.368437 -3.01674
1.12814 0.0659301 -2.98245
0.674001 0.353353 3.71827
0.655658 0.691142 3.16316
1.02644 0.331677 3.18105
0.674246 0.73463 4.23678
1.03639 0.371452 4.25607
0.725477 1.20983 -3.09987
1.08283 0.687542 -3.0536
0.655903 1.07242 3.68166
0.659916 1.61581 3.11145
0.997117 1.04922 3.14521
0.677347 1.65902 4.18412
1.02325 1.09869 4.21703
0.77397 1.79807 -2.60796
1.14255 1.75412 -3.14714
0.779227 1.93297 -1.39166
1.16004 1.85889 -2.06926
0.750095 2.06967 -0.0346472
1.15058 2.01721 -0.714588
0.703807 2.14211 1.3223
1.09834 2.1229 0.644001
0.679515 2.17209 2.53839
1.04657 2.16045 1.99848
0.681361 2.20241 3.6139
1.0367 2.18567 3.07595
1.04419 2.22216 4.14973
1.57096 -0.220085 -2.41417
1.5364 -0.0944822 -2.96772
1.58911 -0.166208 -1.2092
1.60105 -0.00914991 -1.8932
1.55182 -0.147433 0.125674
1.58192 0.0338703 -0.555418
1.47919 -0.113752 1.46048
1.52391 0.0414334 0.78078
1.42066 -0.0590516 2.66502
1.42324 0.0992153 2.11839
1.40699 -0.0138904 3.73915
1.39547 0.146786 3.19158
1.40036 0.1891 4.26641
1.56649 0.116453 -2.44675
1.50394 0.385035 -3.01931
1.59386 0.190929 -1.23942
1.55434 0.478258 -1.94407
1.55401 0.222736 0.0996884
1.56453 0.582427 -0.599372
1.46796 0.2544 1.43869
1.50324 0.616483 0.745785
1.39805 0.305052 2.64495
1.38369 0.644307 2.09022
1.38883 0.349776 3.71884
1.3679 0.689758 3.1631
1.3854 0.735511 4.23632
1.49179 0.74684 -2.51663
1.4999 1.23183 -3.10087
1.52502 0.869756 -1.30402
1.5205 1.32994 -2.02419
[...]
POINT_DATA 29498
VECTORS point_vectors float
-5.15292 -5.84099 19.1686
-0.0195105 0.293035 0.951137
-1.48426 2.00964 3.00705
-0.00688345 -0.0143074 0.0615335
3.0604 -4.44648 13.8388
0.0170994 0.290446 0.95356
1.51118 2.07159 2.93993
0.00780346 -0.0150031 0.0671075
0.042667 -0.0164329 0.643492
0.0136605 0.00327858 0.307788
0 0 0
0 0 0
-0.0355796 -0.0182216 0.580978
-0.0136634 0.000773195 0.271876
0 0 0
-6.5814e-18 7.58348e-18 3.10783e-17
-0.637891 -0.331172 19.9936
-1.01604 -0.64088 20.7295
-0.311864 -0.368513 21.3412
0.176391 -0.057415 21.4902
0.655279 0.281041 21.3599
0.880733 0.32321 21.0378
0.792207 0.221224 20.7127
-0.759017 -0.249036 19.8885
-1.43937 -0.573998 20.6965
-0.502447 -0.476469 21.4078
0.158342 -0.207823 21.6147
0.962902 0.125867 21.4085
1.17026 0.12136 21.0942
0.948065 0.0711425 20.9693
-0.82201 0.0396952 19.7031
-2.02759 0.160596 20.4326
-1.19849 -0.279517 21.4159
-0.230322 -0.3647 21.7688
0.748135 -0.595006 21.5145
1.02248 -0.607995 21.1663
0.801102 -0.455751 20.5449
-0.471909 0.331416 19.9215
-0.855278 0.626825 20.2962
-0.846766 0.51559 21.0483
-0.321153 0.0572251 21.4695
0.126158 -0.285748 21.3818
0.289969 -0.41574 21.1089
0.283252 -0.415167 20.7367
-0.76183 -0.910531 19.4359
-1.39656 -2.39123 21.5012
-0.0829623 -0.25813 21.573
0.17046 0.292966 20.9434
0.31613 1.122 19.5099
0.57174 1.38153 18.6393
0.638316 0.960151 18.4295
-1.03684 -0.734242 18.935
0.958294 1.6225 10.0928
1.72056 1.05695 12.8367
-1.06897 0.171158 18.6409
1.09273 -0.372735 8.92121
1.51336 -0.609799 14.0576
-0.395912 0.641078 19.5948
-0.802661 1.41985 20.0241
-1.00163 1.50691 21.0578
-0.356999 0.336977 21.8803
0.0478648 -0.411098 21.4717
0.178118 -0.591944 21.095
0.0978093 -0.418235 21.092
0.737344 -0.972643 19.3588
1.3256 -2.55095 21.5681
0.0887511 -0.236467 21.5031
-0.149563 0.291192 20.8911
-0.26062 1.12134 19.4334
-0.462616 1.3462 18.5323
-0.575076 1.02779 18.2612
0.966345 -0.808917 18.7569
-0.793007 1.5185 9.31527
-1.75112 1.12199 11.8307
0.969547 0.173402 18.4224
-1.002 -0.31183 7.80029
-1.55202 -0.574908 13.0547
0.404333 0.626161 19.6112
0.838209 1.3645 20.038
1.01468 1.41051 21.0639
0.354977 0.353142 21.885
-0.0322618 -0.406259 21.4909
-0.155567 -0.587302 21.0778
-0.0934574 -0.426414 21.1545
0.672419 -0.382399 19.9358
1.05228 -0.67069 20.7314
0.320947 -0.382151 21.3315
-0.169338 -0.0656269 21.4824
-0.653551 0.289747 21.3701
-0.893717 0.324836 21.014
-0.787422 0.245468 20.7855
0.841254 -0.28052 19.7846
1.47536 -0.590138 20.6886
0.505268 -0.484437 21.4089
-0.14883 -0.215716 21.6022
-0.941875 0.10764 21.4065
-1.17073 0.131518 21.0841
-0.943041 0.0876028 21.0368
0.861252 0.0626742 19.6302
2.02457 0.167462 20.4196
1.1913 -0.265662 21.4083
0.236539 -0.353515 21.7604
-0.730838 -0.576446 21.4853
-1.03783 -0.614919 21.1571
-0.836208 -0.461441 20.4711
0.46475 0.324716 19.9312
0.829443 0.572535 20.3134
0.81576 0.474474 21.0283
0.322203 0.0606152 21.4738
-0.119797 -0.292885 21.3881
-0.29199 -0.411121 21.0821
-0.248549 -0.427516 20.7847
-0.358018 -0.0355118 0.553504
-1.50986e-05 -0.0418934 0.425082
0.00710465 0.0232832 0.295011
0.03584 -0.0318403 0.11067
-0.000240823 0.00298496 0.0175061
-0.0156095 0.0272579 0.492495
0.000269815 0.128711 0.335584
-0.261947 -0.103432 0.539594
-0.000241108 0.00396703 -0.0117344
0 0 0
0.431553 -0.0153352 0.603022
-0.033639 0.013064 0.969849
-0.0319163 -0.0298586 0.103071
0.0135857 0.0255389 0.461164
0.180973 -0.0554012 0.421962
0 0 0
-0.00370073 0.00329323 0.232454
-7.54796e-05 -0.000110993 0.00666657
0 0 0
0.000298208 0.0021583 0.0127946
-0.000187236 0.00153695 0.032988
0 0 0
2.75624e-05 0.0322541 0.0643404
0.000153638 -0.00117102 0.0185213
-0.00200514 -0.00189764 0.149927
9.80726e-05 -0.000109706 0.00738975
-0.000380828 0.00279834 0.0166068
0 0 0
0 0 0
0.000176309 0.00324951 0.0258326
0.005241 0.0157688 0.10712
0 0 0
0 0 0
-0.000435689 0.00535444 0.090623
-0.00390011 -0.00395967 0.0141296
-0.0125405 0.131151 -0.144366
9.31557e-05 0.00437809 0.0449185
-0.000342283 0.0143064 0.130773
-2.08711e-05 0.00177953 -0.00417644
0 0 0
-0.000229862 0.00423581 0.0336924
-0.00437048 0.0141026 0.0938303
-2.53171 -1.40001 21.0083
-2.12997 -3.56489 22.0741
-2.60766 -2.1653 18.3875
1.27064 0.965058 16.9139
-0.0499807 1.28718 12.8264
0.0927405 1.22283 6.76238
-4.32595 0.985656 20.1687
-3.09145 1.13517 16.803
-1.96109 2.76218 19.6751
1.1897 -0.254083 15.9776
0.274467 -0.000799359 4.58227
0.243892 -0.799088 20.1801
2.07288 -3.89449 22.1589
2.67646 -2.53082 18.0163
2.62346 -1.47241 20.9712
0.0950329 1.22975 12.5723
0.0211317 1.15111 6.42557
-1.26201 0.930625 17.1176
3.08141 1.27437 16.41
1.99191 2.63244 19.6876
4.34052 1.02143 20.1152
-0.200737 0.0947507 4.16097
-0.271663 -0.783841 19.7902
-1.1812 -0.25877 16.2256
-0.342029 -0.843431 21.4653
0.286376 0.00465244 17.2343
0.349829 -0.111686 19.8838
0.243935 0.389669 16.1575
-2.1491 -0.79526 21.4838
-2.77209 2.23705 20.9988
-0.206071 -0.41393 19.9817
-0.720986 0.158996 22.2317
-0.261205 0.0526589 16.719
0.334915 -0.858856 21.3339
-0.225721 0.366683 15.9098
-0.338879 -0.123236 19.8847
2.72752 2.10449 21.0285
2.13116 -0.770948 21.5153
0.718584 0.177656 22.232
0.248989 -0.432219 20.1669
-0.923526 -0.538107 20.2416
-0.707461 -0.304081 19.9321
-0.756319 -0.553132 19.7794
-0.642404 -0.522481 21.2089
-1.23112 -0.624431 20.7208
-1.40253 -1.28209 20.9478
-0.0733457 -0.227218 21.4639
-0.412674 -0.42912 21.3698
-0.169374 -0.462674 21.5411
0.409169 0.113334 21.4927
0.160771 -0.142995 21.5259
0.270116 0.0376427 21.6035
0.772043 0.348788 21.2656
0.814079 0.232623 21.4437
0.763812 0.757255 21.0176
0.91235 0.281665 20.8234
1.04953 0.213866 21.1728
1.0951 0.880867 20.8858
0.907638 0.170619 20.874
0.75584 0.630695 21.5379
-1.20454 -0.440228 20.0935
-0.82162 -0.117368 19.7544
-0.969298 -0.439881 19.5211
-0.949557 -0.546484 21.2834
-1.80788 -0.284347 20.5907
-0.177744 -0.365031 21.5394
-0.841098 -0.489764 21.4329
0.526714 -0.0483716 21.6517
0.00858603 -0.352071 21.7437
1.1007 0.160789 21.2355
1.04877 -0.2718 21.3198
1.31612 0.0552414 20.7627
1.24903 -0.300966 21.1045
1.59427 0.838995 18.1525
1.06478 -0.346841 20.5273
1.37031 0.521666 19.2716
-1.48323 0.115098 19.8067
-0.680228 0.266117 19.7824
-1.02819 0.0996806 19.2696
-1.60179 -0.104283 21.1605
-1.39856 0.637909 20.2906
-0.749401 -0.36119 21.7003
-1.23892 0.289365 21.2256
0.331704 -0.420112 21.757
-0.387743 -0.103659 21.6798
0.894959 -0.61487 21.2875
0.297898 -0.474319 21.4326
1.0168 -0.53245 20.8865
0.510479 -0.550644 20.9924
1.305 -0.768812 19.2335
0.372986 -0.529062 20.937
1.31249 -0.722538 19.6118
-0.66946 0.489764 20.0418
-0.490547 0.478129 19.7483
-0.914462 0.623248 20.6902
-0.912728 0.997238 20.1743
-0.638602 0.297095 21.3729
-1.0041 0.889087 21.0947
-0.0583246 -0.143061 21.4259
-0.389665 0.189438 21.654
0.208902 -0.377385 21.1791
0.100499 -0.377348 21.4052
0.239045 -0.362286 21.059
0.242803 -0.529229 20.9467
0.129626 -0.426264 21.0445
-1.42623 -1.92151 19.6858
-0.881262 -0.823629 19.2071
-0.0803034 -1.40731 18.9626
-0.444551 -0.768355 21.9787
-0.0146512 -3.00481 22.2058
0.0704711 0.0155957 21.1725
0.0014666 -0.255978 20.8531
0.269968 0.674271 20.2762
-0.00361269 0.194563 19.6482
0.414388 1.26935 19.4868
-0.0180077 0.666355 17.1403
0.671511 1.35134 19.2714
0.771135 1.75947 15.7696
-0.0195155 0.967538 16.8132
1.00736 1.06281 15.8406
0.0311862 1.60921 16.2114
-1.14076 -0.334622 18.6573
-0.139994 -1.23853 18.0073
1.44156 1.27701 11.1668
1.6613 0.411969 6.77081
-0.0140475 -0.172932 0.137386
1.92029 0.43023 12.0244
0.0936035 0.357568 5.65564
-0.732722 0.656034 19.1175
-0.116978 0.306457 17.6526
1.36184 -0.703595 11.4434
0.38692 -1.0682 20.2539
0.0719509 -0.0227171 -2.77307
0.397278 -0.935076 19.7026
0.0342971 -1.54903 0.871068
-0.611561 1.07768 19.688
0.00637752 0.783459 19.3983
-0.930395 1.50775 20.5359
0.0448024 1.92268 19.8596
-0.749354 1.04211 21.7087
0.0582302 2.19874 20.9717
-0.0815202 -0.173417 21.7022
-0.00378218 0.601853 22.064
0.106229 -0.525642 21.3389
-0.000672449 -0.402246 21.5607
0.198095 -0.690771 20.7895
0.00529245 -0.692962 21.1079
-0.00125944 -0.803153 21.0004
1.37443 -2.12724 19.6164
0.821432 -0.941854 19.0677
0.746042 -0.608332 19.6999
0.438575 -0.763177 22.0477
1.45277 -1.40324 20.9653
-0.0609705 0.0309263 21.0377
0.155933 -0.466121 21.5443
-0.230416 0.673956 20.1818
-0.274469 0.0443059 21.6047
-0.308093 1.24302 19.0235
-0.74575 0.788699 20.9703
-0.631949 1.38557 19.0821
-0.670343 1.71495 15.6329
-1.1019 0.928206 20.881
-0.938277 1.12379 15.6293
-0.771308 0.677916 21.5905
1.07756 -0.365726 18.3683
0.967587 -0.523493 19.3704
-1.41207 1.33795 10.2978
-1.4943 0.368511 5.8553
-1.58141 0.913367 17.8182
-1.94138 0.455192 11.0376
-1.3952 0.561063 18.8526
0.697908 0.683099 19.056
1.01466 0.103334 19.1528
-1.33748 -0.678226 10.3389
-0.403157 -1.05259 19.8607
-1.31703 -0.769488 19.0098
-0.417334 -0.950755 19.5606
-1.31433 -0.733712 19.5414
0.63077 1.0342 19.7136
0.491039 0.465878 19.7615
0.963111 1.43076 20.5458
0.903004 0.913831 20.2019
0.755402 1.02465 21.6921
0.990577 0.833541 21.0871
0.08863 -0.163773 21.7071
0.393896 0.198826 21.6564
-0.0905351 -0.525841 21.3385
-0.0969307 -0.375147 21.4028
-0.190721 -0.699806 20.7827
-0.243619 -0.530515 20.9643
-0.121998 -0.423625 21.0359
0.962195 -0.578847 20.2259
0.738012 -0.34818 19.8703
0.662595 -0.534151 21.2215
1.26431 -0.657993 20.7197
0.0802365 -0.239456 21.4651
0.414473 -0.443627 21.361
-0.409088 0.10409 21.4989
-0.157074 -0.154454 21.5119
-0.774308 0.355178 21.2682
-0.80841 0.21972 21.4389
-0.939473 0.275799 20.789
-1.05678 0.225487 21.1721
-0.907101 0.192396 20.9482
1.30345 -0.463858 20.0494
0.885069 -0.150039 19.6605
0.965734 -0.560536 21.3003
1.83563 -0.288094 20.5835
0.17948 -0.369929 21.5367
0.844052 -0.490091 21.4338
-0.515357 -0.0579845 21.6458
0.00507221 -0.348092 21.7386
-1.09306 0.152857 21.2311
-1.00656 -0.272114 21.3348
-1.3539 0.0698129 20.6942
-1.25372 -0.317782 21.0996
-1.10512 -0.35807 20.4589
1.54879 0.144975 19.7449
0.674943 0.270271 19.7724
1.5913 -0.0952129 21.1556
1.35212 0.590343 20.2931
0.749841 -0.347215 21.6838
1.19315 0.269762 21.2076
-0.313918 -0.410883 21.7475
0.389709 -0.0978062 21.6741
-0.881889 -0.612089 21.2919
-0.290764 -0.474908 21.438
-1.02781 -0.544937 20.81
-0.518405 -0.567494 21.0027
-0.391985 -0.538409 20.9916
0.658434 0.458968 20.0613
0.877301 0.566687 20.6928
0.632954 0.285823 21.3638
0.0538968 -0.142143 21.4342
-0.195886 -0.369816 21.1703
-0.233086 -0.387724 21.0619
-1.07875 -0.499424 20.1645
-1.96475 -2.2141 19.1311
-1.25232 -1.02902 20.0463
-1.90228 -0.9222 19.6428
-0.851907 -0.504216 19.663
-1.87876 -1.39645 21.0013
-0.803938 -0.546128 21.2313
-0.200445 -0.319375 19.6441
-0.597628 -0.754646 21.5193
-0.982566 -1.04482 21.8834
-0.191884 -0.633034 21.6153
-0.128533 -0.306931 21.4931
0.292414 0.179215 16.3806
0.0682175 -0.227472 21.5853
0.040781 -0.494638 20.6231
0.3719 -0.0395804 21.2106
0.465338 0.0417546 21.5631
0.189511 0.695926 14.4232
0.520012 0.365167 21.4983
0.666919 0.386595 18.342
1.0472 0.888294 19.7816
0.989888 0.319915 21.2139
0.206858 1.41685 14.0333
0.916807 0.849002 20.8761
1.42787 0.873799 17.7539
1.22055 0.886796 19.6253
1.18028 0.179635 20.6067
1.05176 1.32853 15.011
1.05178 0.921267 21.0402
1.68579 0.673426 18.7102
0.976693 0.523587 19.7778
-1.42592 -0.204255 19.9189
-3.49631 -0.884641 16.8966
-2.30274 0.40309 18.935
-1.0781 -0.210165 19.3091
-4.03636 -0.66452 20.737
-1.31847 -0.431035 21.2806
-2.62545 -0.310804 21.6806
-0.880609 -1.09547 21.0642
-0.420923 -0.454903 21.6424
-1.19801 -0.797877 20.7916
0.238921 -0.142829 18.4556
0.508673 -0.271654 21.6966
0.738349 -0.0664651 18.1986
1.45125 0.379722 14.2509
1.2047 -0.289393 21.1717
0.382334 0.559778 3.20282
1.21265 -0.546289 18.11
1.90955 0.0845371 17.067
1.19191 -0.346215 21.0865
2.04813 0.532601 9.39823
1.42697 -0.796972 19.6979
1.57184 -0.0879813 18.7045
-1.07694 0.503014 19.8911
-1.35902 1.61314 18.8667
-0.735872 0.773835 19.8585
-0.760207 0.442391 19.4713
-1.89211 1.43583 20.0265
-1.38806 0.481735 20.8351
-2.08405 2.13453 20.5867
-1.00847 0.995073 20.6354
-1.92784 0.749742 21.2886
-0.889398 0.0925678 21.584
-2.23598 1.26887 22.5026
-0.772308 0.588547 21.5582
-0.560763 -0.0537146 22.0203
0.0387857 -0.310612 21.6291
0.0459997 -0.539488 21.2639
-0.088699 -0.163483 21.587
0.265587 -0.669322 21.5936
0.423913 -0.534709 21.2748
0.265034 -0.906525 20.5651
0.175289 -0.469034 21.2089
0.445084 -0.825358 21.4698
0.579248 -0.481827 20.7671
0.443101 -1.06609 19.6604
0.257308 -0.550628 21.17
0.329815 -0.714428 20.7997
1.9159 -2.47173 18.9681
-0.0885786 -3.49443 19.3708
-0.203543 -6.07593 15.7328
-0.0943137 -1.35507 18.5039
0.00593833 -3.42068 23.0772
0.241454 -0.312516 19.5495
0.00289468 -0.858621 22.2451
-0.00938517 0.0322182 12.6733
-0.275443 0.20402 15.9199
0.00125348 -0.0333901 19.9786
-0.0192064 0.244945 12.0959
-0.164241 0.691637 14.1949
-0.0062317 0.463424 18.397
-0.0329537 0.476443 8.65148
-0.0995123 1.39128 13.6214
-0.0250303 0.609557 16.8778
-0.0825428 -0.981491 -1.02663
-0.0558714 0.839944 8.81661
-1.01097 1.36521 14.7576
-0.00282014 1.48585 16.4528
-0.00949867 -0.09356 1.34115
0.0645101 1.48811 12.9402
3.5972 -0.96729 16.3013
-0.226617 2.81964 13.3957
-0.140688 -0.517853 17.4729
-0.212752 0.589929 2.69603
0.00879163 0.393333 -2.43982
0.143079 -0.804467 -4.78006
-1.90864 0.582967 8.54799
0.0464599 -0.658138 -1.34868
0.104015 -0.786729 0.176452
1.33733 1.61069 18.8562
0.0212934 1.41579 19.451
-0.0201111 0.927367 18.6494
0.0449077 4.02458 19.3585
2.09208 2.04775 20.6062
0.0507325 2.03085 20.393
0.0510451 4.60174 20.2839
2.21293 1.25076 22.4978
0.00668936 1.66403 21.9416
-0.00920149 0.602107 21.2667
-0.0774137 -0.528448 21.0048
-0.00351732 -0.11055 21.8005
-0.00547055 -0.55988 14.7746
-0.265974 -0.885661 20.2056
0.00153208 -0.545445 21.376
-0.00439731 -0.875403 16.8098
-0.437084 -1.08463 19.4507
0.0031967 -0.598661 21.1987
0.00256601 -0.835643 17.0885
1.13392 -0.552113 20.1412
1.31409 -1.15177 19.974
2.03551 -1.10357 19.4414
0.849711 -0.58226 19.5371
1.96645 -1.51724 20.9996
0.819864 -0.567317 21.2463
0.591406 -0.782245 21.5469
0.988284 -1.07593 21.913
0.177808 -0.649365 21.6097
0.128201 -0.320075 21.4985
-0.0809149 -0.22552 21.5783
-0.0373681 -0.500872 20.4571
-0.369231 -0.0394331 21.117
-0.462679 0.0327723 21.5649
-0.523857 0.385138 21.4415
-0.666725 0.370234 18.3902
-1.03044 0.912633 19.6145
-0.987807 0.307757 21.2118
-0.905319 0.867271 20.8375
-1.40032 0.892904 17.466
-1.21448 0.968062 19.2711
-1.22605 0.187563 20.5191
-1.03792 0.987866 21.1339
-1.65705 0.722314 18.6374
-1.00967 0.560045 19.3879
1.51349 -0.227914 19.881
2.37803 0.463158 18.773
1.07993 -0.216851 19.1643
4.18995 -0.66111 20.6572
1.33858 -0.430889 21.29
2.6449 -0.292209 21.6847
0.888957 -1.10525 21.0512
0.430357 -0.451451 21.6345
1.21889 -0.787897 20.9141
-0.224527 -0.165797 18.5732
-0.489341 -0.270376 21.697
-0.713588 -0.0954463 18.4301
-1.43633 0.386827 14.509
-1.18395 -0.296929 21.1867
-1.19573 -0.507137 17.8345
-1.94808 0.117834 16.5209
-1.20542 -0.354987 21.0554
-1.43901 -0.812354 19.4447
-1.59182 -0.0450545 18.2877
1.06214 0.494891 19.8927
0.729854 0.737829 19.8877
0.74961 0.457659 19.4374
1.84273 1.35153 20.0463
1.34446 0.446582 20.8322
0.992493 0.92566 20.6432
1.87495 0.702628 21.2827
0.876682 0.0912601 21.5634
0.763552 0.568846 21.5438
0.564821 -0.0443981 22.0172
-0.0294832 -0.30278 21.6308
0.0880746 -0.16052 21.5938
-0.261751 -0.670993 21.5922
-0.418981 -0.538898 21.2646
-0.175888 -0.47505 21.2106
-0.43097 -0.82993 21.504
-0.590221 -0.50588 20.7913
-0.261505 -0.56276 21.173
-0.313765 -0.730404 20.7331
-1.55457 -1.03018 19.8837
-0.746741 -0.897642 21.6544
0.114362 -0.364424 21.5321
0.674357 0.37991 20.6209
1.15585 0.968676 19.6711
1.3676 0.810416 20.0455
-2.42418 -0.434686 19.1228
-1.67667 -0.962004 22.0188
-0.221217 -0.69632 19.4939
0.719504 0.408909 16.7685
1.59188 0.190404 15.6472
1.77165 0.0632209 17.4317
-1.32599 0.925342 19.4695
-1.91181 1.05694 20.8135
-1.43668 0.3814 21.9442
0.00396807 -0.408697 21.8555
0.391962 -0.747042 21.3546
0.618547 -0.837441 21.1594
-0.116461 -4.72821 18.2984
-0.005128 -0.218926 15.6201
-0.00608451 0.097743 12.0025
-0.0176295 0.36668 10.4453
-0.103161 0.0269477 8.1993
-0.0150745 0.841321 8.97088
-0.27907 -1.63274 11.9789
0.0201999 -0.698288 -4.22039
0.140107 -0.548237 -1.77738
-0.0102069 2.51334 18.1338
0.0481875 3.36756 20.1782
0.0112016 3.33056 22.6873
-0.00376904 -0.414587 17.7235
-0.00813064 -0.634518 15.7062
-0.0023571 -1.27359 16.8023
1.65173 -1.17322 19.7529
0.732045 -0.928102 21.6878
-0.122688 -0.368885 21.4295
-0.675994 0.392524 20.5154
-1.123 1.00074 19.4365
-1.34817 0.863478 19.9794
2.52435 -0.43455 18.9184
1.69471 -0.965028 22.0273
0.236846 -0.725265 19.5756
-0.714381 0.377148 16.962
-1.55843 0.2175 15.3147
-1.79473 0.100433 16.9183
1.3143 0.925211 19.4632
1.87143 0.996998 20.8204
1.42045 0.377094 21.9203
-0.000422811 -0.403998 21.8657
-0.386526 -0.748025 21.3623
-0.587575 -0.851891 21.2823
-1.31423 -0.456964 1.90892
-0.00717733 -0.173503 1.00269
0 0 0
0.0550243 0.0341508 0.107959
-0.0564634 0.0458972 0.27943
-0.110037 0.111869 0.873441
-1.63473 0.392501 2.31221
-0.0186839 0.142949 0.340652
-0.126372 0.0368349 0.41827
-0.0201559 -0.00450501 -0.00503059
-0.000688081 0.00346911 -0.0209251
0.0231519 -0.021852 0.290031
0.0329967 -0.251788 1.66222
1.74519 -0.542999 2.09034
2.40856e-05 0.00601589 0.988799
0.0560901 0.0450707 0.281229
-0.0535487 0.0326449 0.106155
0.0958342 0.0993421 0.800596
0.0176791 0.139192 0.330089
2.17952 0.477408 2.93329
0.179537 0.0549999 0.601858
-0.000582506 0.00385839 -0.0226943
0.0176529 -0.00381586 -0.00265376
-0.0230779 -0.0202915 0.280606
0.0707522 -0.0402068 1.039
0.0294544 0.0155278 0.854084
0 0 0
0 0 0
0.00380812 0.00719274 0.281421
-0.0165654 0.0273835 0.452263
0 0 0
0.00385018 0.000461259 0.0890258
-0.10303 -0.0506116 0.214854
-0.0065895 -0.00480924 0.183483
0 0 0
-0.0326695 0.0362562 0.0807565
0 0 0
0.00300305 0.0099265 0.0423527
0 0 0
0.0367941 -0.0100075 0.211329
-0.0617797 -0.0517838 1.25516
0 0 0
-0.0380293 -0.00532006 1.02774
0 0 0
-0.00104686 0.0194129 0.295269
-0.00282171 0.00499772 0.13725
0.0343974 0.0339289 0.67132
0 0 0
0.121915 -0.055044 0.241725
0.0361709 0.0396707 0.088934
0.007374 -0.00560808 0.194083
0 0 0
0 0 0
-0.0366804 -0.00998292 0.205295
-0.00468677 0.0153409 0.0648836
0 0 0
-5.04319e-05 -0.000587086 0.0194201
-0.421811 -0.183176 0.287311
0 0 0
0 0 0
0 0 0
0 0 0
0.00128173 -0.000215851 0.00825296
-0.327184 0.0589635 -0.0555552
0 0 0
-0.00237257 -0.0286886 -0.00838631
0.00265142 0.018975 0.159133
0.00151661 0.0200338 0.274934
-0.1369 2.00925 1.17372
0.0051093 0.248214 0.654621
-0.00328086 -0.0408485 0.429492
0 0 0
0 0 0
0 0 0
0 0 0
-0.00206439 -2.21792e-05 0.000770483
0.41306 -0.107929 0.239024
8.00065e-05 -0.0013635 0.0294404
0 0 0
0 0 0
0.339775 0.0641379 -0.0612551
-0.00204105 -0.000285913 0.0131296
-0.00238729 0.0205924 0.273551
-0.00263831 0.0178054 0.150488
0 0 0
-0.0128162 -0.0394493 0.411235
0.00184155 -1.21848e-05 0.000711069
0 0 0
0 0 0
0 0 0
3.96934e-05 -0.000645599 0.00465462
-6.91844e-05 0.000375305 0.00518624
0 0 0
0 0 0
0.000142691 0.00196634 0.0138725
-0.00322597 0.00781287 0.0566361
0 0 0
0 0 0
0.0014277 0.00719365 0.0379634
-0.0287597 0.0336669 0.484415
0 0 0
0.00474882 0.182713 0.493687
-1.61984e-05 0.000308535 0.0167784
-7.14787e-05 -0.00573284 0.0355079
0 0 0
0 0 0
-5.15959e-05 -0.00072492 0.00539454
0.000128703 0.000844999 0.0116934
-2.83444e-05 0.000743165 0.00523924
0.00324169 0.00786771 0.0569646
0.0303929 0.0338601 0.500246
-0.00223528 0.0107867 0.057199
-0.000465858 -0.000920814 0.0128173
-0.00829793 -0.00691084 0.075235
3.97951e-19 -7.32797e-18 1.22419e-16
0 0 0
0 0 0
0.000112069 0.0109297 0.0739243
0 0 0
0 0 0
-0.000553412 0.00256368 0.028284
0 0 0
0 0 0
0 0 0
0 0 0
0 0 0
0 0 0
0 0 0
0 0 0
1.05995e-18 -6.41945e-19 -3.07637e-17
0 0 0
0 0 0
0 0 0
0 0 0
-0.00607234 0.00763629 0.0987031
0.00563034 0.00785589 0.103065
-1.4259 -1.72387 1.1375
2.18819 -3.36427 2.31136
-1.54784 1.82604 1.4537
1.01695 1.19391 0.999086
-0.0211267 -0.00321364 -0.00155145
0.0238994 -0.00430054 -0.00200768
-0.0717652 0.0320601 0.000459215
0.0691137 0.0332896 -0.000502847
-4.5978e-05 6.13499e-05 0.000340669