# vtk DataFile Version 2.0
tet_velo
ASCII
DATASET UNSTRUCTURED_GRID
POINTS 29498 float
-0.765 0.075 -2.08944
-0.778224 0.145 1.995
-0.825 0.455 -2.02595
-0.771615 0.775 2.085
0.765 0.075 -2.08944
0.778224 0.145 1.995
0.825 0.455 -2.02595
0.771616 0.775 2.085
-0.783507 0.0842339 -0.72796
-0.796052 0.0994307 0.63352
-0.846801 0.601262 -0.655633
-0.836054 0.714978 0.714684
0.783507 0.0842346 -0.72796
0.796061 0.0994221 0.63352
0.846804 0.601265 -0.655633
0.836062 0.714985 0.714684
-1.57329 -0.240637 -3.21893
-1.5753 -0.183059 -2.1262
-1.58817 -0.173142 -0.764953
-1.59168 -0.17727 0.59452
-1.57691 -0.147557 1.95562
-1.57469 -0.102363 3.04761
-1.57924 -0.0499062 4.14096
-1.57664 -0.00726834 -3.18401
-1.58182 0.0652678 -2.09032
-1.59868 0.0965411 -0.727347
-1.59769 0.115166 0.634829
-1.56964 0.154008 1.99763
-1.57034 0.199485 3.08974
-1.57816 0.24999 4.1828
-1.60354 0.428127 -3.11664
-1.62986 0.49698 -2.02332
-1.6489 0.616006 -0.654324
-1.63116 0.713325 0.715297
-1.57675 0.773364 2.08412
-1.57606 0.814846 3.17587
-1.58499 0.857649 4.26751
-1.62245 1.17611 -3.00895
-1.63654 1.26099 -1.91431
-1.64775 1.40604 -0.542446
-1.64551 1.54951 0.831318
-1.63039 1.64998 2.20309
-1.61927 1.70436 3.29754
-1.61478 1.74889 4.39014
-0.772394 -0.235049 -3.21836
-0.773481 -0.174306 -2.12537
-0.784679 -0.17784 -0.765065
-0.793827 -0.189664 0.593403
-0.786977 -0.15737 1.95367
-0.784757 -0.109305 3.04629
-0.78742 -0.0547016 4.14019
-0.769784 -0.00716437 -3.18383
-0.781353 0.194356 3.08865
-0.786807 0.246361 4.18223
-0.789741 0.410267 -3.11774
-0.784383 0.814785 3.17605
-0.792415 0.857109 4.26754
-0.807043 1.16123 -3.01003
-0.818427 1.24561 -1.9155
-0.829666 1.39905 -0.543164
-0.834721 1.55205 0.831404
-0.828965 1.65495 2.2037
-0.820803 1.70822 3.29815
-0.816965 1.75141 4.39058
0.803711 -0.235049 -3.21836
0.781796 -0.174306 -2.12537
0.790237 -0.17784 -0.765065
0.795045 -0.189669 0.593403
0.783509 -0.157372 1.95367
0.787121 -0.109307 3.04629
0.791249 -0.0547025 4.14019
0.809174 -0.00716403 -3.18383
0.784401 0.194355 3.08865
0.789425 0.24636 4.18223
0.828604 0.410267 -3.11774
0.780634 0.814785 3.17605
0.785381 0.857109 4.26754
0.824899 1.16123 -3.01003
0.822636 1.24562 -1.9155
0.816313 1.39905 -0.543164
0.798488 1.55205 0.831404
0.779495 1.65495 2.2037
0.776247 1.70822 3.29815
0.777367 1.75141 4.39058
1.59809 -0.240636 -3.21893
1.57984 -0.183058 -2.1262
1.58981 -0.173142 -0.764953
1.59451 -0.177276 0.59452
1.57931 -0.147561 1.95562
1.5791 -0.102365 3.04761
1.58349 -0.0499081 4.14096
1.60331 -0.0072672 -3.18401
1.58068 0.065269 -2.09032
1.59629 0.0965428 -0.727347
1.6003 0.11516 0.634829
1.57465 0.154004 1.99763
1.5753 0.199483 3.08974
1.581 0.249988 4.1828
1.62927 0.428128 -3.11664
1.62814 0.496982 -2.02332
1.64494 0.616011 -0.654325
1.63051 0.71333 0.715297
1.57717 0.773363 2.08412
1.57314 0.814846 3.17587
1.57802 0.857648 4.26751
1.63711 1.17611 -3.00895
1.63759 1.26099 -1.91431
1.63323 1.40604 -0.542447
1.61336 1.54951 0.831318
1.58766 1.64998 2.20309
1.5784 1.70436 3.29754
1.57665 1.74889 4.39014
-0.786128 0.265 -2.04882
0 0.0614257 -2.10301
-0.782028 0.0718428 -1.4087
-0.798443 0.46 2.06352
0 0.0968068 2.04319
-0.831269 0.0780838 1.31426
0 0.510529 -2.08148
-0.858502 0.550733 -1.34079
4.76837e-07 0.798386 2.10839
-0.832194 0.773348 1.39984
0.786112 0.265 -2.04881
0.781624 0.0722464 -1.4087
0.798437 0.46 2.06352
0.83148 0.0778728 1.31426
0.858502 0.550733 -1.34079
0.83218 0.773333 1.39984
-0.78995 0.0916618 -0.0472201
-0.849238 0.342748 -0.691797
-3.53638e-07 0.0607575 -0.72796
-0.849494 0.407204 0.674102
4.31347e-06 0.0607797 0.63352
-0.849165 0.665858 0.029525
1.57218e-06 0.830367 -0.655633
3.9952e-06 1.13735 0.714684
0.789946 0.0916657 -0.0472201
0.849244 0.34275 -0.691797
0.8495 0.407204 0.674102
0.849172 0.665864 0.029525
-0.860276 0.303874 -1.37475
-0.84937 0.374976 -0.0088475
-0.89857 0.433602 1.35705
-1.76819e-07 0.0605327 -1.4087
1.97991e-06 0.0607691 -0.0472201
2.15673e-06 0.0604849 1.31426
0 0.265 -2.0464
2.38419e-07 0.46 2.16274
7.86091e-07 0.799283 -1.34079
2.78369e-06 1.0861 0.029525
2.23602e-06 1.0034 1.39984
0.860275 0.303875 -1.37475
0.849376 0.374977 -0.0088475
0.89857 0.433602 1.35705
-1.17341 0.0701339 -2.08988
-0.76924 -0.0496532 -2.10741
-0.767392 0.0339178 -2.63664
-1.17393 0.149504 1.99632
-0.782601 -0.00618493 1.97433
-0.779789 0.169678 2.54183
-1.22743 0.47599 -2.02463
-0.807371 0.432633 -2.57184
-0.821714 0.850307 -1.97072
-1.17418 0.774182 2.08456
-0.777999 0.794893 2.63052
-0.80029 1.21497 2.14435
0.773398 -0.049653 -2.10741
0.787087 0.033918 -2.63664
1.17284 0.0701345 -2.08988
0.780867 -0.00618591 1.97433
0.781313 0.169678 2.54183
1.17644 0.149502 1.99632
0.826802 0.432634 -2.57184
0.823818 0.850308 -1.97072
1.22657 0.475991 -2.02463
0.776125 0.794893 2.63052
0.775556 1.21497 2.14435
1.17439 0.774182 2.08456
-1.19109 0.0903875 -0.727653
-0.784093 -0.0468028 -0.746513
-1.19687 0.107298 0.634174
-0.79494 -0.0451165 0.613461
-1.24785 0.608634 -0.654979
-0.838233 1.00016 -0.599399
-1.23361 0.714151 0.71499
-0.835388 1.13351 0.773044
0.786872 -0.0468026 -0.746513
1.1899 0.0903887 -0.727654
0.795553 -0.0451235 0.613461
1.19818 0.107291 0.634174
0.831558 1.00016 -0.599399
1.24587 0.608638 -0.654979
0.817275 1.13352 0.773044
1.23328 0.714157 0.71499
-1.5743 -0.211848 -2.67257
-1.57497 -0.123953 -3.20147
-1.17284 -0.237843 -3.21864
-1.58174 -0.178101 -1.44558
-1.57856 -0.0588958 -2.10826
-1.17439 -0.178683 -2.12579
-1.58993 -0.175206 -0.0852167
-1.59343 -0.0383004 -0.74615
-1.18642 -0.175491 -0.765009
-1.5843 -0.162414 1.27507
-1.59469 -0.0310523 0.614674
-1.19276 -0.183467 0.593961
-1.5758 -0.12496 2.50162
-1.57327 0.00322553 1.97663
-1.18194 -0.152463 1.95465
-1.57696 -0.0761343 3.59428
-1.57251 0.0485614 3.06868
-1.17972 -0.105834 3.04695
-1.5787 0.100042 4.16188
-1.18333 -0.0523039 4.14057
-1.57923 0.0289997 -2.63716
-1.59009 0.210429 -3.15032
-1.17321 -0.00721635 -3.18392
-1.59025 0.0809044 -1.40883
-1.60584 0.281124 -2.05682
-1.59819 0.105853 -0.0462589
-1.62379 0.356274 -0.690836
-1.58367 0.134587 1.31623
-1.61443 0.414245 0.675063
-1.56999 0.176747 2.54369
-1.57319 0.463686 2.04088
-1.57425 0.224738 3.63627
-1.5732 0.507166 3.13281
-1.17585 0.196921 3.0892
-1.58158 0.553819 4.22515
-1.18249 0.248175 4.18251
-1.6167 0.462554 -2.56998
-1.61299 0.802117 -3.0628
-1.19664 0.419197 -3.11719
-1.63938 0.556493 -1.33882
-1.6332 0.878984 -1.96881
-1.64003 0.664666 0.0304862
-1.64833 1.01102 -0.598385
-1.60395 0.743344 1.39971
-1.63833 1.13142 0.773308
-1.5764 0.794105 2.63
-1.60357 1.21167 2.1436
-1.58052 0.836247 3.72169
-1.59766 1.2596 3.23671
-1.18022 0.814816 3.17596
-1.59989 1.30327 4.32882
-1.1887 0.857379 4.26752
-1.6295 1.21855 -2.46163
-1.21475 1.16867 -3.00949
-1.64215 1.33351 -1.22838
-1.22748 1.2533 -1.9149
-1.64663 1.47777 0.144436
-1.23871 1.40254 -0.542805
-1.63795 1.59974 1.5172
-1.24011 1.55078 0.831361
-1.62483 1.67717 2.75031
-1.22968 1.65246 2.20339
-1.61703 1.72663 3.84384
-1.22004 1.70629 3.29785
-1.21587 1.75015 4.39036
-0.772937 -0.204678 -2.67187
-0.771089 -0.121107 -3.20109
0.0156586 -0.235049 -3.21836
-0.77908 -0.176073 -1.44522
0.00415771 -0.174306 -2.12537
-0.789253 -0.183752 -0.0858311
0.00277924 -0.17784 -0.765065
-0.790402 -0.173517 1.27354
0.000608797 -0.189666 0.593403
-0.785867 -0.133338 2.49998
-0.00173418 -0.157371 1.95367
-0.786088 -0.0820035 3.59324
-0.783055 0.0425253 3.06747
0.0011821 -0.109306 3.04629
-0.787113 0.0958295 4.16121
0.00191449 -0.0547021 4.14019
-0.779763 0.201551 -3.15078
0.0196952 -0.0071642 -3.18383
-0.78408 0.220358 3.63544
-0.782868 0.504571 3.13235
0.00152407 0.194356 3.08865
-0.789611 0.551735 4.22488
0.001309 0.24636 4.18223
-0.798392 0.78575 -3.06388
0.0194313 0.410267 -3.11774
-0.788399 0.835947 3.72179
-0.802593 1.2615 3.2371
-0.0018745 0.814785 3.17605
-0.80469 1.30426 4.32906
-0.00351713 0.857109 4.26754
-0.812735 1.20342 -2.46277
0.00892798 1.16123 -3.01003
-0.824046 1.32233 -1.22933
0.00210434 1.24562 -1.9155
-0.832193 1.47555 0.14412
-0.00667631 1.39905 -0.543164
-0.831843 1.6035 1.51755
-0.0181168 1.55205 0.831404
-0.824884 1.68158 2.75093
-0.0247351 1.65495 2.2037
-0.818884 1.72981 3.84437
-0.0222782 1.70822 3.29815
-0.0197987 1.75141 4.39058
0.792754 -0.204677 -2.67187
0.806443 -0.121106 -3.20109
1.2009 -0.237842 -3.21864
0.786017 -0.176073 -1.44522
1.18082 -0.178682 -2.12579
0.792641 -0.183754 -0.0858311
1.19002 -0.175491 -0.765009
0.789277 -0.17352 1.27354
1.19478 -0.183473 0.593961
0.785315 -0.133339 2.49998
1.18141 -0.152467 1.95465
0.789185 -0.0820046 3.59324
0.785761 0.0425243 3.06747
1.18311 -0.105836 3.04695
0.790337 0.0958287 4.16121
1.18737 -0.0523053 4.14058
0.818889 0.201552 -3.15078
1.20624 -0.00721561 -3.18392
0.786913 0.220358 3.63544
0.782518 0.50457 3.13235
1.17985 0.196919 3.0892
0.787403 0.551734 4.22488
1.18521 0.248174 4.18251
0.826752 0.78575 -3.06388
1.22893 0.419198 -3.11719
0.783007 0.835947 3.72179
0.77844 1.2615 3.2371
1.17689 0.814815 3.17596
0.781374 1.30426 4.32906
1.1817 0.857378 4.26752
0.823767 1.20343 -2.46277
1.231 1.16867 -3.00949
0.819474 1.32233 -1.22933
1.23011 1.2533 -1.9149
0.8074 1.47555 0.14412
1.22477 1.40255 -0.542806
0.788991 1.6035 1.51755
1.20592 1.55078 0.831361
0.777871 1.68158 2.75093
1.18358 1.65246 2.20339
0.776807 1.72981 3.84437
1.17732 1.70629 3.29785
1.17701 1.75015 4.39036
1.58897 -0.211847 -2.67257
1.6007 -0.123952 -3.20147
1.58483 -0.1781 -1.44558
1.58026 -0.0588947 -2.10826
1.59216 -0.175209 -0.0852168
1.59305 -0.0382996 -0.74615
1.58691 -0.162419 1.27507
1.59741 -0.0310581 0.614674
1.57921 -0.124963 2.50162
1.57698 0.00322136 1.97663
1.5813 -0.0761366 3.59428
1.5772 0.0485591 3.06868
1.58224 0.10004 4.16188
1.592 0.0290009 -2.63716
1.61629 0.21043 -3.15032
1.58849 0.0809059 -1.40883
1.60441 0.281126 -2.05682
1.5983 0.105852 -0.046259
1.62062 0.356277 -0.690836
1.58748 0.134582 1.31623
1.6154 0.414245 0.675063
1.57497 0.176744 2.54369
1.57591 0.463684 2.04088
1.57815 0.224736 3.63627
1.57422 0.507164 3.13281
1.57951 0.553818 4.22515
1.6287 0.462555 -2.56998
1.63319 0.802119 -3.0628
[...]
POINT_DATA 29498
VECTORS point_vectors float
-7.19676 -7.82203 12.4865
0.113154 0.147908 0.321561
-6.74217 1.35556 8.25679
0.183108 0.0245144 1.35575
7.20015 -7.8192 12.4856
-0.12458 0.151954 0.341895
6.73289 1.35185 8.24512
-0.180669 -0.0163517 1.39168
0.060217 -0.0169565 0.88086
0.000936466 -0.00023273 0.060078
3.83144e-06 4.35815e-05 0.00219388
0.0965023 0.154612 0.530953
-0.0591726 -0.0165348 0.880467
-0.000856207 -0.000168621 0.0600577
-3.65717e-06 4.2668e-05 0.00212723
-0.0963206 0.154236 0.532054
-0.547869 -0.185133 19.841
-1.23509 -0.516782 20.4351
-0.467967 -0.284502 21.2325
-0.0717725 -0.102314 21.3202
0.412776 0.173602 21.3974
0.748922 0.302712 20.9796
0.561685 0.135186 20.6602
-0.64641 -0.137721 19.7979
-1.46993 -0.404559 20.4444
-0.560567 -0.296857 21.2513
-0.120441 -0.146584 21.3492
0.533839 0.0873386 21.4713
0.877393 0.188809 21.1979
0.787383 -0.0271267 20.6847
-0.707618 0.0560761 19.7352
-1.60752 0.0376094 20.4312
-0.747848 -0.19927 21.2048
-0.240716 -0.165303 21.4405
0.568187 -0.209459 21.475
0.891039 -0.326247 21.0776
0.75436 -0.31692 20.6624
-0.615555 0.307935 19.8853
-1.06796 0.519844 20.4311
-0.746397 0.259879 21.0898
-0.241653 0.0150241 21.3818
0.238786 -0.275773 21.2439
0.398668 -0.436648 20.9889
0.362221 -0.371834 20.6028
-0.57439 -0.494513 19.2658
-2.67936 -3.80497 20.219
-0.178871 0.0974911 19.7427
0.138592 0.089754 19.1762
0.131114 0.892685 18.1061
0.399367 1.4592 17.3274
0.525836 1.5155 17.2133
-0.678687 -0.364213 19.0554
0.761633 1.63411 9.43701
1.91576 0.699053 12.8115
-0.854493 0.0651849 18.8064
1.97497 -0.403308 11.4076
1.30894 -0.614053 14.8465
-0.665141 0.710516 19.2765
-1.78429 2.16687 20.1098
-1.47281 1.19149 21.1994
-0.444809 0.315111 21.914
0.209326 -0.548182 21.4751
0.40598 -0.754572 20.9324
0.228459 -0.639939 20.9523
0.581318 -0.46332 19.3135
2.69928 -3.75318 20.2447
0.185146 0.102575 19.8481
-0.124684 0.0958206 19.2016
-0.124764 0.934009 18.1336
-0.468971 1.5021 17.47
-0.532739 1.51835 17.5435
0.689334 -0.348446 19.1049
-0.925491 1.67565 9.82965
-1.93332 0.752147 13.1312
0.856325 0.0601422 18.8632
-1.98401 -0.492304 11.4763
-1.31295 -0.630077 14.8748
0.673475 0.697662 19.2903
1.7884 2.15539 20.1115
1.47737 1.2218 21.1951
0.450371 0.336537 21.9565
-0.193624 -0.579573 21.4974
-0.401874 -0.805505 20.854
-0.206761 -0.663843 20.985
0.549071 -0.182012 19.8473
1.22913 -0.519391 20.4479
0.476216 -0.288746 21.231
0.0754218 -0.109703 21.3289
-0.430818 0.178018 21.4054
-0.770539 0.316974 21.0009
-0.566058 0.133786 20.6607
0.641168 -0.133488 19.8063
1.47246 -0.412045 20.4488
0.562983 -0.301487 21.2598
0.115715 -0.14527 21.3585
-0.547757 0.0876221 21.4841
-0.901022 0.187188 21.1773
-0.799806 -0.0210809 20.6876
0.700696 0.0545497 19.7616
1.61227 0.0367904 20.4352
0.750819 -0.202504 21.2165
0.240607 -0.167793 21.4498
-0.583648 -0.221014 21.4878
-0.908823 -0.336858 21.074
-0.762514 -0.318104 20.6673
0.613938 0.302859 19.8952
1.06832 0.518535 20.433
0.760556 0.259273 21.096
0.254574 0.0165463 21.3941
-0.242954 -0.295819 21.2615
-0.404776 -0.451261 20.9758
-0.364809 -0.386485 20.6038
-3.09992 -0.367339 3.05646
-0.00189106 -0.173539 0.735769
-0.00297373 0.00572522 0.611392
0.0521533 0.0238646 0.124638
0.0638949 -0.0274116 0.22816
-0.00625359 0.00607088 0.299967
0.000326844 0.264737 0.275473
-0.0201674 -0.0119372 0.348036
0.00515951 0.011162 -0.0185008
0.0131049 0.0127218 0.0990788
3.09062 -0.366892 3.04706
0.00728401 0.00489769 0.603558
-0.0556892 0.0207534 0.131605
0.00672322 0.00632703 0.304869
0.0201564 -0.0118583 0.347961
-0.012907 0.0124027 0.098554
0.0204148 -0.00679053 0.51407
1.23308e-05 4.22415e-06 0.00111285
2.10395e-08 -2.60622e-09 1.61003e-06
-1.40604e-05 0.00105056 0.00610978
-1.49125e-06 4.19922e-09 1.85687e-06
-0.00023861 0.0180867 0.209025
0 0 0
1.40353e-05 -0.00101592 0.0272754
-0.0198465 -0.00656541 0.513708
-1.19707e-05 4.08935e-06 0.00110605
1.40205e-05 0.00104851 0.00612031
0.000250631 0.018025 0.2088
-0.000111446 -0.000432902 0.00815283
1.8908e-07 4.31488e-06 6.37882e-05
4.23598e-06 0.000196245 0.00194251
-3.85096e-09 1.29899e-09 -4.97902e-07
-8.43546e-08 -1.16815e-08 -6.91922e-06
-3.55454e-08 -1.11328e-08 -5.53417e-06
-0.000693354 0.000282613 0.000235835
0.00107171 0.00877226 -0.00182144
1.37687e-06 0.00202768 0.0124526
1.51236e-05 0.0163281 0.0549207
7.07156e-06 -4.86886e-05 0.000203798
0.000111076 -0.000419141 0.00809246
2.53073e-09 -5.82121e-08 -8.57381e-07
-4.19097e-06 0.000188102 0.00188383
-3.06979 -1.30267 20.3518
-4.35403 -6.24126 20.5005
-1.84336 -1.28492 17.9401
0.967606 0.496727 20.022
-0.284748 1.19488 10.2121
0.0714867 1.01848 6.22137
-3.31089 0.133812 20.3941
-2.44879 0.359123 17.2581
-4.10301 3.49815 19.5751
1.04085 -0.255209 20.2794
0.934175 0.0626943 7.51502
0.611851 -0.673874 19.6319
4.34958 -6.13521 20.4732
1.85671 -1.25782 18.0147
3.07763 -1.31058 20.3459
0.278528 1.23056 10.2954
-0.201211 1.10147 6.52951
-1.00277 0.50356 20.1039
2.4601 0.350216 17.3745
4.09849 3.48018 19.5817
3.31872 0.134123 20.3971
-0.959195 -0.0691596 7.59104
-0.652936 -0.668353 19.1694
-1.06742 -0.286103 20.3262
-0.361656 -0.563228 21.364
0.235507 0.199884 12.9249
-0.0401818 -0.205221 20.3406
0.333956 -0.00241938 12.6644
-1.01231 -0.607783 21.5464
-2.41954 0.389679 18.8001
-0.309217 -0.285301 21.1412
-0.68984 0.257246 19.1565
-0.22361 0.206003 13.0204
0.365072 -0.565026 21.3555
-0.3205 0.00386556 12.6942
0.0438872 -0.204807 20.3573
2.43181 0.411205 18.7043
1.01473 -0.613694 21.5471
0.661934 0.297194 18.7931
0.309878 -0.288799 21.1478
-0.933562 -0.362664 19.9553
-0.600007 -0.161761 19.8146
-0.606167 -0.309712 19.5651
-0.908713 -0.432806 21.0594
-1.38472 -0.463264 20.4439
-1.98833 -1.35396 20.3488
-0.213045 -0.173033 21.2757
-0.523161 -0.309927 21.2417
-0.320108 -0.366406 21.4693
0.0917386 0.0073123 21.4289
-0.102603 -0.140302 21.3347
-0.0105674 -0.126805 21.2872
0.595935 0.249775 21.2505
0.461983 0.14653 21.4253
0.539969 0.494463 21.3497
0.843478 0.221536 21.1482
0.835286 0.274546 20.9727
0.980917 0.807052 20.7386
0.666577 0.0886268 20.7439
0.963923 0.820359 20.2792
-1.10329 -0.287829 19.9062
-0.679501 -0.0580349 19.7496
-0.728687 -0.245825 19.448
-1.05497 -0.384327 21.1119
-1.62683 -0.203946 20.4342
-0.289096 -0.225402 21.2833
-0.661349 -0.273262 21.2506
0.0987432 -0.0371151 21.5049
-0.195931 -0.16884 21.4123
0.767801 0.126267 21.3174
0.577773 -0.077929 21.4907
0.95025 0.131252 21.5664
1.01983 -0.0578822 20.5376
1.35593 0.619519 20.0735
0.969256 -0.249008 20.616
1.29062 0.639002 20.3726
-1.22759 0.0711087 19.8606
-0.686688 0.188553 19.7984
-0.868651 0.0571929 19.3464
-1.20664 -0.0964249 21.0742
-1.38348 0.368463 20.4126
-0.496201 -0.211242 21.3327
-0.85344 0.0276794 21.162
0.140306 -0.135871 21.5701
-0.286646 -0.0706833 21.4502
0.768727 -0.255257 21.3193
0.385481 -0.313226 21.3519
0.866277 -0.264169 21.2861
0.586086 -0.472721 21.0218
1.29479 -0.538845 20.6845
0.463269 -0.403525 20.4961
1.03424 -0.492228 21.1164
-0.892885 0.464023 20.0527
-0.700376 0.487404 19.6222
-0.964722 0.40737 20.868
-1.51684 1.07175 20.343
-0.523991 0.146675 21.2728
-1.11189 0.494111 21.1962
0.0318988 -0.142431 21.3837
-0.367188 0.0873248 21.5938
0.323689 -0.348156 21.1286
0.251099 -0.401787 21.3634
0.446143 -0.390806 20.8066
0.438574 -0.604723 20.9656
0.32426 -0.446471 20.5484
-1.28584 -1.37383 18.8206
-0.638918 -0.424545 19.143
0.011818 -0.631798 18.9221
-0.958291 -0.681185 21.6758
0.00770064 -5.87141 19.814
0.0584982 0.143023 19.3399
8.32371e-05 -0.385054 14.5878
0.242577 0.107685 18.4925
0.0033196 -0.100267 13.3029
0.207622 1.11045 17.7054
0.0630486 0.178145 11.6709
0.77661 1.43896 17.174
0.443691 1.66746 13.5605
0.0883862 0.345492 8.30849
0.973867 1.23985 14.8417
-0.0136795 1.17314 6.87311
-0.769401 -0.191255 18.8674
0.0168477 -0.586267 18.5509
1.68373 1.14451 11.6134
1.39017 0.866727 6.96174
-0.0988614 -0.764594 -2.92146
2.20166 0.260378 13.1006
-0.112132 -0.429905 3.11968
-0.803752 0.492476 18.9167
0.0195183 0.107592 18.1667
1.68222 -0.973447 13.2732
0.784531 -1.1683 20.5654
-0.0271211 -0.825594 1.83866
0.563454 -0.763198 21.1397
0.00335485 -1.73784 9.54361
-1.2363 1.5168 19.2566
0.0095521 0.991254 18.8706
-1.63294 1.66067 21.069
0.00692065 3.7433 19.7609
-1.20383 0.905299 21.6903
-0.0178311 2.62108 20.9035
0.0280477 -0.243613 21.733
-0.00644161 0.605368 22.5007
0.301975 -0.706277 21.3044
0.015623 -0.672647 21.7018
0.300298 -0.808769 20.7109
0.0209276 -0.913013 21.2561
0.00939055 -0.957606 20.8172
1.30233 -1.33658 18.8769
0.649508 -0.407752 19.1919
0.611229 -0.294074 19.5975
0.954778 -0.674599 21.6912
1.98519 -1.34186 20.344
-0.0491778 0.147383 19.3907
0.326018 -0.366324 21.4684
-0.226728 0.111622 18.4896
0.0128188 -0.12598 21.2893
-0.234681 1.19722 17.8126
-0.557119 0.515514 21.3681
-0.813151 1.47556 17.4026
-0.566481 1.72097 13.8423
-1.00796 0.832591 20.7605
-0.991516 1.25766 15.1996
-0.953078 0.802983 20.2993
0.777059 -0.175798 18.9116
0.734544 -0.233587 19.4831
-1.76597 1.17963 11.9465
-1.51742 0.816632 7.27493
-1.39625 0.623419 20.149
-2.22562 0.266697 13.2684
-1.28326 0.612555 20.3933
0.805719 0.476774 18.958
0.868257 0.0513205 19.3932
-1.70258 -1.03134 13.3843
-0.777369 -1.21764 20.4567
-1.32244 -0.558679 20.67
-0.530956 -0.799396 21.1306
-1.02323 -0.530396 20.9824
1.24435 1.49336 19.2709
0.701783 0.479062 19.6371
1.63422 1.67413 21.0693
1.5148 1.06623 20.3447
1.22284 0.962754 21.7106
1.12795 0.510715 21.2004
-0.023453 -0.257059 21.7664
0.378926 0.0944711 21.6224
-0.28268 -0.743105 21.3123
-0.249888 -0.431444 21.3824
-0.270533 -0.84713 20.7148
-0.434193 -0.62807 21.0059
-0.312921 -0.472429 20.5795
0.923891 -0.353713 19.9715
0.603794 -0.157495 19.819
0.915629 -0.436303 21.0619
1.38288 -0.468038 20.4517
0.229723 -0.174825 21.271
0.527309 -0.314407 21.246
-0.0987456 0.00258948 21.4362
0.100899 -0.143162 21.341
-0.617792 0.256093 21.2501
-0.473388 0.149804 21.4352
-0.847164 0.239448 21.1045
-0.862045 0.284457 20.9929
-0.676998 0.0860157 20.7497
1.09782 -0.284689 19.9102
0.672103 -0.0590006 19.7734
1.05597 -0.391324 21.1204
1.63065 -0.204121 20.4381
0.294711 -0.230562 21.2821
0.661182 -0.274144 21.2601
-0.10538 -0.0365095 21.5161
0.193967 -0.169151 21.4248
-0.791217 0.128085 21.3151
-0.596245 -0.0785338 21.5096
-0.958133 0.121914 21.5161
-1.0438 -0.0530776 20.5308
-0.986633 -0.231966 20.6143
1.21393 0.0685442 19.8772
0.68171 0.186249 19.8141
1.21132 -0.0978847 21.0823
1.38459 0.368348 20.4154
0.498461 -0.210501 21.3397
0.860283 0.0248149 21.1712
-0.146611 -0.141889 21.5816
0.291875 -0.0767329 21.4654
-0.79246 -0.269534 21.3215
-0.398973 -0.33332 21.3629
-0.871884 -0.288774 21.2594
-0.596683 -0.501221 20.9999
-0.466847 -0.407916 20.4869
0.890727 0.457292 20.0582
0.973144 0.409355 20.8709
0.540282 0.151408 21.283
-0.0317986 -0.150957 21.4016
-0.331607 -0.36114 21.1477
-0.452531 -0.402995 20.8198
-1.04133 -0.329519 19.9212
-1.57056 -1.38737 18.3554
-1.21861 -0.710527 19.5275
-1.58516 -0.600568 19.2626
-0.68016 -0.275038 19.4882
-2.48734 -1.411 20.363
-1.01088 -0.414073 21.0961
-0.242268 -0.0688129 14.6488
-1.00687 -0.791551 21.515
-1.29997 -0.881216 21.8296
-0.307372 -0.452622 21.4794
-0.25469 -0.216967 21.2712
0.359993 0.0808773 13.0257
-0.0875286 -0.207936 21.3592
-0.0996273 -0.37973 20.8137
-0.00372744 -0.177908 21.0026
0.0901933 -0.0236889 21.4564
0.130254 0.033481 11.8291
0.109384 0.017993 21.4172
0.0967295 0.0256149 20.4914
0.766404 0.542885 20.8409
0.663909 0.207501 21.2573
0.053209 1.22167 11.5351
0.759762 0.660059 21.1808
1.18262 0.569172 19.9405
1.18372 0.809285 20.4313
0.900662 0.197095 21.3264
1.0897 1.40513 14.2156
1.08642 1.00746 20.2815
1.51232 0.513642 19.6724
1.06875 0.775741 20.3641
-1.20256 -0.124698 19.8609
-2.31439 -0.595268 17.2368
-1.95918 0.109476 19.1333
-0.81529 -0.137506 19.379
-3.5253 -0.595588 20.3813
-1.16986 -0.254521 21.1199
-1.78659 -0.360754 21.6004
-0.631678 -0.621989 21.5448
-0.400784 -0.248052 21.3153
-0.687962 -0.556534 21.4206
-0.139236 -0.218189 20.4163
0.129232 -0.0999646 21.5737
0.255517 -0.0429113 20.8709
1.12452 0.188297 19.515
0.81669 -0.0796048 21.321
0.111148 0.863178 3.42092
1.21252 -0.388191 20.3921
1.72386 0.0838991 19.4856
1.05085 -0.049107 21.7788
2.16315 0.487998 10.3278
1.48539 -0.624726 20.2478
1.70569 0.26309 20.5552
-1.10428 0.310374 19.9537
-1.94219 1.50224 18.2278
-1.18431 0.882287 19.7574
-0.826609 0.340358 19.4404
-2.44174 0.983504 20.3155
-1.16922 0.212986 20.9663
-3.40793 1.36907 21.2315
-1.34858 0.789577 20.9628
-1.4093 0.0189674 21.3431
-0.604773 -0.0439968 21.33
-2.13364 0.112402 19.0595
-0.839352 0.322423 21.4512
-0.511924 -0.0918342 21.7388
0.101138 -0.17441 21.4945
0.409523 -0.149598 19.3463
0.0256736 -0.187711 21.5367
0.46969 -0.555923 21.4873
0.532469 -0.39596 21.1745
0.688516 -0.908075 20.2758
0.362737 -0.549831 21.1195
0.705407 -0.797536 20.8195
0.568094 -0.3879 20.6237
0.811195 -1.17585 20.3464
0.355585 -0.529982 21.0294
0.659675 -0.570035 20.7368
1.58434 -1.3506 18.4104
0.0228161 -2.17658 17.9416
0.028997 -2.12476 16.3448
0.0126936 -0.59496 18.7233
-0.0021009 -10.8409 22.485
0.247235 -0.0829199 14.7873
0.00351362 -1.3623 18.9401
-5.10754e-05 -0.0574711 5.58402
-0.34839 0.0851228 13.0799
6.71357e-05 -0.141973 13.4657
0.00525541 -0.0216883 5.89048
-0.117068 0.0323947 11.8439
0.0146297 -0.0357813 12.4131
0.102733 0.209528 4.34465
-0.115211 1.32697 11.7903
0.147124 0.0928904 10.3296
0.136994 -0.295687 -2.25426
0.0215414 0.117675 1.59438
-1.14367 1.44346 14.561
0.0811976 0.855434 6.73992
-0.0803703 -0.459841 0.100645
-0.0383248 0.811644 4.80674
2.3045 -0.573606 17.3309
0.0318903 0.843546 14.8499
0.0214292 -0.289719 18.3203
-0.235003 0.738578 3.58705
0.00357047 0.147813 1.10015
-0.188561 -1.62525 -3.32226
-2.22917 0.485983 10.6004
-0.0072842 -1.54182 5.07992
-0.207084 -2.5035 1.27514
1.9477 1.47307 18.2805
0.0125882 2.40843 18.6051
0.0206593 0.703343 18.3562
0.00534686 7.1065 18.3506
3.41857 1.38791 21.217
-0.00552867 2.93982 21.0973
-0.0116518 2.21618 14.7935
2.15986 0.105896 18.6776
-0.0317374 2.57905 22.1675
0.0146159 -0.00473901 11.0244
-0.477141 -0.111544 18.8137
0.0057191 -0.353322 22.0178
0.0497547 -0.780345 12.1645
-0.702557 -0.934594 19.8013
0.0148088 -0.86303 21.4762
0.0434453 -1.51689 16.8396
-0.774746 -1.18478 20.3199
0.00738912 -1.10155 21.3895
0.0102998 -1.57406 17.017
1.03769 -0.324884 19.9308
1.20839 -0.695945 19.5535
1.56669 -0.574943 19.302
0.686884 -0.263767 19.5208
2.48197 -1.4027 20.3625
1.01229 -0.420294 21.0997
1.00799 -0.789139 21.5065
1.30523 -0.885613 21.8291
0.315353 -0.452534 21.4779
0.264274 -0.219071 21.2656
0.0922174 -0.207136 21.3606
0.104384 -0.379384 20.8097
0.0117826 -0.176283 21.0148
-0.0930971 -0.0221386 21.4673
-0.105252 0.0234136 21.4302
-0.0985821 0.0280832 20.5297
-0.792934 0.561753 20.8749
-0.685152 0.213161 21.2553
-0.794637 0.691423 21.187
-1.24563 0.580016 20.0363
-1.22671 0.82765 20.4537
-0.902851 0.205053 21.2668
-1.11278 1.00458 20.3086
-1.52943 0.523526 19.732
-1.06437 0.758503 20.3888
1.18455 -0.123133 19.88
1.91826 0.103408 19.186
0.815853 -0.138064 19.421
3.53301 -0.59931 20.3816
1.17175 -0.256081 21.1282
1.7902 -0.362839 21.6069
0.632624 -0.625861 21.5428
0.399666 -0.248539 21.326
0.688632 -0.560104 21.414
0.13921 -0.220979 20.4304
-0.138182 -0.0999197 21.5893
-0.259313 -0.0528047 20.8896
-1.16491 0.169947 19.5975
-0.843505 -0.0831719 21.3261
-1.25779 -0.426446 20.3868
-1.76885 0.0592594 19.5287
-1.06709 -0.0798505 21.7375
-1.49598 -0.60552 20.2213
-1.70404 0.201816 20.566
1.09404 0.307047 19.966
1.17914 0.870404 19.7674
0.828419 0.336042 19.4728
2.44023 0.980141 20.3202
1.17596 0.214374 20.9725
1.35435 0.797127 20.9644
1.42767 0.0188718 21.3499
0.615572 -0.0484238 21.3393
0.863766 0.338399 21.4664
0.534821 -0.0948972 21.7669
-0.103868 -0.188452 21.5102
-0.0230045 -0.199328 21.5608
-0.481054 -0.597155 21.5096
-0.550512 -0.423716 21.1871
-0.350295 -0.584771 21.1308
-0.718557 -0.834822 20.8132
-0.57495 -0.396403 20.6215
-0.356419 -0.572749 20.9392
-0.637466 -0.608707 20.7251
-1.4107 -0.682329 19.3943
-1.11667 -0.837686 21.6541
-0.0699791 -0.289247 21.207
0.109647 0.00891807 21.0479
0.961331 0.677408 20.4294
1.28816 0.904136 20.104
-1.8384 -0.297936 19.11
-1.59133 -0.613372 21.8822
-0.284773 -0.49817 20.7681
0.163182 0.0719078 20.438
1.31005 0.141287 19.1774
1.74465 0.0739195 18.4277
-1.63294 0.738306 19.4135
-1.88924 0.368915 21.2639
-1.07507 -0.0616732 21.571
0.0772644 -0.270116 21.7462
0.657398 -0.678252 21.2055
0.756075 -0.775449 20.8434
0.0215511 -2.24736 17.1292
0.00234234 -0.283291 7.57451
0.00164711 -0.0156406 5.43065
0.0180191 0.00420669 5.72146
0.269518 -0.263827 2.67965
0.042763 0.462164 2.45325
0.0311064 -0.951367 14.8667
-0.139722 -0.154352 -2.60961
-0.289453 -2.47732 -2.9831
0.0238125 2.6428 16.755
-0.00229178 3.82013 20.2319
-0.0115834 2.95445 12.1355
0.0304845 -0.683411 11.3684
0.0589499 -1.03871 14.7461
0.0367743 -1.41525 17.4147
1.39824 -0.663542 19.4329
1.12507 -0.837822 21.6454
0.0775869 -0.288631 21.2126
-0.107544 0.0147523 21.0671
-1.0116 0.702302 20.4675
-1.31206 0.918992 20.1292
1.80448 -0.292038 19.1686
1.59561 -0.616599 21.8885
0.284222 -0.498094 20.7607
-0.169856 0.0658415 20.4765
-1.37858 0.118072 19.254
-1.76415 0.0701251 18.4851
1.61802 0.716154 19.4387
1.89948 0.371341 21.2705
1.09955 -0.0612729 21.5852
-0.0779324 -0.287111 21.7625
-0.665591 -0.725132 21.2008
-0.768444 -0.803218 20.7917
-1.44293 -0.564342 1.32087
-0.0664464 -0.861115 1.54367
-0.0270058 0.00161511 0.385304
0.0870767 0.0668719 0.224321
-0.232422 -0.0924435 0.115225
-0.0750288 0.0533119 0.761412
-2.95292 0.0622505 3.16017
-0.0387285 0.160093 0.185256
-0.137662 -0.0746363 0.961569
-0.0291319 0.0542001 0.0504223
-0.0138365 0.0299925 -0.026511
0.0816506 0.0568622 0.567262
0.0665853 -0.8618 1.54544
1.44226 -0.563843 1.31954
0.0304318 0.00288455 0.436902
0.258607 -0.0569438 0.141727
-0.0962549 0.063599 0.238212
0.0775637 0.0611295 0.784794
0.038902 0.160768 0.186061
2.98638 0.0615002 3.18978
0.137694 -0.0755401 0.96646
0.0350504 0.0208811 -0.0143949
0.0291671 0.0395641 0.0593611
-0.0788143 0.0520634 0.572437
0.0170569 0.00274365 0.663836
0.0412387 -0.0156671 0.739494
0.000233578 0.000539136 0.0356014
0 0 0
0.00656845 -0.143707 1.2748
0.00708762 -0.00222605 0.249282
-0.000409128 0.00854761 0.0918014
0 0 0
-0.00822701 -0.0195053 0.263502
1.28778e-06 1.66965e-06 0.000232006
-0.00136017 0.00267063 0.154363
0 0 0
0.0597399 0.244801 0.691467
0 0 0
0.0285875 0.0727459 0.427285
0.425248 0.157854 1.80466
-0.0170226 0.00323856 0.691315
0 0 0
-0.0404751 -0.0153069 0.73974
-0.000250547 0.000551479 0.0354359
-0.110576 -0.577252 1.81536
0 0 0
-0.0067188 -0.00205527 0.249677
0.000411429 0.0085551 0.0918034
0.00760542 -0.0196713 0.269409
0 0 0
-1.17558e-06 1.52701e-06 0.000212745
0.00138165 0.00265593 0.154453
-0.0585938 0.243459 0.690143
-0.423388 0.156366 1.80631
0 0 0
-0.0285101 0.0725379 0.427236
-0.00191626 -0.00184957 0.0267503
0 0 0
0 0 0
0.000276164 -0.305649 0.0645769
0 0 0
4.65572e-07 -1.14309e-09 9.15221e-07
0.0603302 0.0338025 0.595249
-0.00512523 0.00442089 -0.00111883
2.82801e-05 5.94174e-06 0.00184255
0 0 0
0 0 0
6.25017e-07 5.34811e-08 2.53094e-05
0 0 0
2.44403e-05 0.0843836 0.241935
-2.68636e-05 -6.87752e-05 0.00233181
-0.00344701 0.00716393 0.0421645
0.00116557 0.0139987 -0.000789582
3.44099e-05 5.31939e-05 -0.000152711
7.04943e-06 0.000189605 0.00129086
0.000395446 -0.000744267 0.0029498
0 0 0
0.00208325 -0.00202705 0.0290642
-1.4956e-07 -3.23719e-10 2.9443e-07
0 0 0
0.00523854 0.00306999 -0.000864337
-0.0610799 0.0323227 0.602298
-4.34542e-07 5.46464e-08 2.50038e-05
0 0 0
0.00345333 0.00716483 0.0421671
2.67222e-05 -6.70159e-05 0.00231807
-0.000344645 -0.000723071 0.00285336
-6.7669e-06 0.000179893 0.0012436
-0.000151254 0.00124175 0.0349195
0 0 0
0.000164065 -0.00026858 0.0157502
2.09892e-07 2.65146e-06 7.65112e-05
-2.40801e-07 -5.52996e-08 -1.18325e-05
1.17061e-08 2.20283e-09 8.85214e-07
0 0 0
-0.0633313 0.0411916 0.289981
-1.29327e-08 -1.54377e-10 -1.30352e-06
0 0 0
8.47355e-09 4.75056e-07 5.53636e-06
-0.760938 0.0558565 2.15874
3.29734e-06 0.000249493 0.00586691
6.87363e-06 0.00405255 0.0136446
1.21487e-05 0.00336019 0.0426578
1.34639e-05 -0.0010587 0.00530316
0 0 0