# vtk DataFile Version 2.0
tri_press
ASCII
DATASET UNSTRUCTURED_GRID
POINTS 3682 float
-0.765 0.075 -2.08944
-0.778224 0.145 1.995
-0.825 0.455 -2.02595
-0.771615 0.775 2.085
0.765 0.075 -2.08944
0.778224 0.145 1.995
0.825 0.455 -2.02595
0.771616 0.775 2.085
-0.783507 0.0842339 -0.72796
-0.796052 0.0994307 0.63352
-0.846801 0.601262 -0.655633
-0.836054 0.714978 0.714684
0.783507 0.0842346 -0.72796
0.796061 0.0994221 0.63352
0.846804 0.601265 -0.655633
0.836062 0.714985 0.714684
-1.57329 -0.240637 -3.21893
-1.5753 -0.183059 -2.1262
-1.58817 -0.173142 -0.764953
-1.59168 -0.17727 0.59452
-1.57691 -0.147557 1.95562
-1.57469 -0.102363 3.04761
-1.57924 -0.0499062 4.14096
-1.57664 -0.00726834 -3.18401
-1.58182 0.0652678 -2.09032
-1.59868 0.0965411 -0.727347
-1.59769 0.115166 0.634829
-1.56964 0.154008 1.99763
-1.57034 0.199485 3.08974
-1.57816 0.24999 4.1828
-1.60354 0.428127 -3.11664
-1.62986 0.49698 -2.02332
-1.6489 0.616006 -0.654324
-1.63116 0.713325 0.715297
-1.57675 0.773364 2.08412
-1.57606 0.814846 3.17587
-1.58499 0.857649 4.26751
-1.62245 1.17611 -3.00895
-1.63654 1.26099 -1.91431
-1.64775 1.40604 -0.542446
-1.64551 1.54951 0.831318
-1.63039 1.64998 2.20309
-1.61927 1.70436 3.29754
-1.61478 1.74889 4.39014
-0.772394 -0.235049 -3.21836
-0.773481 -0.174306 -2.12537
-0.784679 -0.17784 -0.765065
-0.793827 -0.189664 0.593403
-0.786977 -0.15737 1.95367
-0.784757 -0.109305 3.04629
-0.78742 -0.0547016 4.14019
-0.769784 -0.00716437 -3.18383
-0.781353 0.194356 3.08865
-0.786807 0.246361 4.18223
-0.789741 0.410267 -3.11774
-0.784383 0.814785 3.17605
-0.792415 0.857109 4.26754
-0.807043 1.16123 -3.01003
-0.818427 1.24561 -1.9155
-0.829666 1.39905 -0.543164
-0.834721 1.55205 0.831404
-0.828965 1.65495 2.2037
-0.820803 1.70822 3.29815
-0.816965 1.75141 4.39058
0.803711 -0.235049 -3.21836
0.781796 -0.174306 -2.12537
0.790237 -0.17784 -0.765065
0.795045 -0.189669 0.593403
0.783509 -0.157372 1.95367
0.787121 -0.109307 3.04629
0.791249 -0.0547025 4.14019
0.809174 -0.00716403 -3.18383
0.784401 0.194355 3.08865
0.789425 0.24636 4.18223
0.828604 0.410267 -3.11774
0.780634 0.814785 3.17605
0.785381 0.857109 4.26754
0.824899 1.16123 -3.01003
0.822636 1.24562 -1.9155
0.816313 1.39905 -0.543164
0.798488 1.55205 0.831404
0.779495 1.65495 2.2037
0.776247 1.70822 3.29815
0.777367 1.75141 4.39058
1.59809 -0.240636 -3.21893
1.57984 -0.183058 -2.1262
1.58981 -0.173142 -0.764953
1.59451 -0.177276 0.59452
1.57931 -0.147561 1.95562
1.5791 -0.102365 3.04761
1.58349 -0.0499081 4.14096
1.60331 -0.0072672 -3.18401
1.58068 0.065269 -2.09032
1.59629 0.0965428 -0.727347
1.6003 0.11516 0.634829
1.57465 0.154004 1.99763
1.5753 0.199483 3.08974
1.581 0.249988 4.1828
1.62927 0.428128 -3.11664
1.62814 0.496982 -2.02332
1.64494 0.616011 -0.654325
1.63051 0.71333 0.715297
1.57717 0.773363 2.08412
1.57314 0.814846 3.17587
1.57802 0.857648 4.26751
1.63711 1.17611 -3.00895
1.63759 1.26099 -1.91431
1.63323 1.40604 -0.542447
1.61336 1.54951 0.831318
1.58766 1.64998 2.20309
1.5784 1.70436 3.29754
1.57665 1.74889 4.39014
-0.786128 0.265 -2.04882
0 0.0614257 -2.10301
-0.782028 0.0718428 -1.4087
-0.798443 0.46 2.06352
0 0.0968068 2.04319
-0.831269 0.0780838 1.31426
0 0.510529 -2.08148
-0.858502 0.550733 -1.34079
4.76837e-07 0.798386 2.10839
-0.832194 0.773348 1.39984
0.786112 0.265 -2.04881
0.781624 0.0722464 -1.4087
0.798437 0.46 2.06352
0.83148 0.0778728 1.31426
0.858502 0.550733 -1.34079
0.83218 0.773333 1.39984
-0.78995 0.0916618 -0.0472201
-0.849238 0.342748 -0.691797
-3.53638e-07 0.0607575 -0.72796
-0.849494 0.407204 0.674102
4.31347e-06 0.0607797 0.63352
-0.849165 0.665858 0.029525
1.57218e-06 0.830367 -0.655633
3.9952e-06 1.13735 0.714684
0.789946 0.0916657 -0.0472201
0.849244 0.34275 -0.691797
0.8495 0.407204 0.674102
0.849172 0.665864 0.029525
-0.860276 0.303874 -1.37475
0.860275 0.303875 -1.37475
-1.76819e-07 0.0605327 -1.4087
7.86091e-07 0.799283 -1.34079
0 0.265 -2.0464
-0.84937 0.374976 -0.0088475
0.849376 0.374977 -0.0088475
1.97991e-06 0.0607691 -0.0472201
2.78369e-06 1.0861 0.029525
-0.89857 0.433602 1.35705
0.89857 0.433602 1.35705
2.15673e-06 0.0604849 1.31426
2.23602e-06 1.0034 1.39984
2.38419e-07 0.46 2.16274
-0.76526 0.17 -2.05883
-0.3825 0.0614206 -2.10302
-0.770737 0.0761985 -1.74907
-0.806601 0.3025 2.04753
-0.389112 0.108226 2.03177
-0.835801 0.0804875 1.65463
-0.805283 0.36 -2.03711
-0.4125 0.49735 -2.0683
-0.852747 0.513863 -1.68337
-0.776219 0.6175 2.06545
-0.385807 0.791815 2.10181
-0.803344 0.775614 1.74242
0.3825 0.0614328 -2.10301
0.765264 0.17 -2.05883
0.770684 0.0762516 -1.74907
0.389112 0.108212 2.03179
0.806598 0.3025 2.04753
0.836075 0.0802139 1.65463
0.4125 0.497364 -2.06831
0.805362 0.36 -2.03718
0.852797 0.513912 -1.68337
0.385808 0.791821 2.10182
0.776324 0.6175 2.06556
0.803351 0.775619 1.74242
-0.789022 0.0717836 -1.06833
-0.786798 0.0878785 -0.38759
-0.84371 0.199822 -0.709879
-0.396939 0.0621258 -0.72796
-0.831937 0.0704812 0.97389
-0.79292 0.0956269 0.29315
-0.849286 0.240061 0.653811
-0.406976 0.0622 0.63352
-0.854925 0.578272 -0.998213
-0.849184 0.472588 -0.673715
-0.849167 0.634745 -0.313054
-0.480544 0.830103 -0.655633
-0.837195 0.747234 1.05726
-0.849138 0.564273 0.694393
-0.843724 0.691532 0.372104
-0.519022 1.12816 0.714684
0.789431 0.0713753 -1.06833
0.396938 0.0621258 -0.72796
0.786798 0.087879 -0.38759
0.843716 0.199822 -0.709879
0.831154 0.071264 0.97389
0.406983 0.0622 0.63352
0.792943 0.095604 0.29315
0.849293 0.240057 0.653811
0.854895 0.578241 -0.998213
0.480546 0.830102 -0.655633
0.849191 0.472591 -0.673715
0.849174 0.63475 -0.313054
0.837195 0.747233 1.05726
0.519029 1.12816 0.714684
0.849144 0.564276 0.694393
0.843721 0.691528 0.372104
-0.854016 0.284437 -1.71178
-0.393064 0.265 -2.04321
-8.84096e-08 0.0607404 -1.75586
0 0.163213 -2.1356
-0.85335 0.187858 -1.39172
-0.391014 0.0605414 -1.4087
-0.895917 0.446801 1.71029
-0.399221 0.46 2.13499
1.07837e-06 0.0604856 1.67873
1.19209e-07 0.278403 2.09894
-0.89934 0.255843 1.33566
-0.415634 0.0604946 1.31426
3.93046e-07 0.721025 -1.71114
0 0.387764 -2.04624
-0.859624 0.427304 -1.35777
-0.429251 0.796339 -1.34079
1.35643e-06 0.905346 1.75411
3.57628e-07 0.629193 2.14575
-0.896487 0.603475 1.37845
-0.416096 0.99784 1.39984
0.854057 0.284437 -1.71178
0.393056 0.265 -2.04321
0.853064 0.188061 -1.39172
0.390812 0.0605414 -1.4087
0.895919 0.446801 1.71028
0.399219 0.46 2.135
0.899341 0.255737 1.33566
0.415741 0.0604946 1.31426
0.859624 0.427304 -1.35777
0.429252 0.796339 -1.34079
0.896487 0.603468 1.37845
0.416091 0.997841 1.39984
-0.846818 0.21974 -0.0280338
-0.402002 0.0621598 -0.0472201
-0.862111 0.323311 -1.03327
-0.849308 0.358862 -0.350322
-2.65229e-07 0.0605341 -1.06833
8.13138e-07 0.0607631 -0.38759
-0.849172 0.39109 0.332627
-0.896762 0.420403 1.01558
3.14669e-06 0.0607744 0.29315
3.2351e-06 0.0606942 0.97389
-0.849304 0.520435 0.0103388
-0.515566 1.05795 0.029525
1.17914e-06 0.829329 -0.998213
2.17794e-06 0.96431 -0.313054
3.38945e-06 1.14028 0.372104
3.11561e-06 1.08936 1.05726
0.846821 0.219741 -0.0280338
0.402003 0.0621598 -0.0472201
0.862111 0.323312 -1.03327
0.849314 0.358863 -0.350322
0.849178 0.39109 0.332627
0.896761 0.420403 1.01558
0.84931 0.520438 0.0103388
0.515569 1.05795 0.029525
-0.846426 0.178929 -1.73043
-0.857242 0.200675 -1.0508
-0.860795 0.449654 -1.01574
-0.855511 0.393652 -1.69758
0.84641 0.17903 -1.73042
0.855516 0.393652 -1.69757
0.860797 0.449656 -1.01574
0.857274 0.200776 -1.0508
-0.386757 0.0607484 -1.75246
0.386656 0.0607485 -1.75246
0.391283 0.0605428 -1.06833
-0.391384 0.0605428 -1.06833
-0.420875 0.71802 -1.69725
-0.426325 0.829354 -0.998213
0.426327 0.829354 -0.998213
0.420876 0.717976 -1.69725
-0.387782 0.166606 -2.10842
-0.402782 0.373882 -2.04312
0.402778 0.373882 -2.04312
0.387778 0.166606 -2.10842
-0.845253 0.209787 -0.368956
-0.848517 0.229668 0.312889
-0.849359 0.542423 0.352366
-0.84925 0.496514 -0.331688
0.845259 0.209786 -0.368956
0.849256 0.496517 -0.331688
0.849365 0.542426 0.352366
0.848524 0.229665 0.312889
-0.39947 0.0621428 -0.38759
0.399471 0.0621428 -0.38759
0.404495 0.0621766 0.29315
-0.404491 0.0621766 0.29315
-0.495364 0.938643 -0.313054
-0.531238 1.12094 0.372104
0.531244 1.12094 0.372104
0.495347 0.938603 -0.313054
-0.898253 0.25458 0.994733
-0.899368 0.279171 1.68246
-0.851342 0.610488 1.72635
-0.870814 0.582283 1.03642
0.898253 0.254525 0.994733
0.870813 0.582281 1.03642
0.851322 0.610484 1.72635
0.899371 0.279119 1.68246
-0.406829 0.060703 0.97389
0.406887 0.060703 0.97389
0.402427 0.0604954 1.66668
-0.402373 0.0604954 1.66668
-0.417061 1.08634 1.05726
-0.400952 0.899612 1.74827
0.40095 0.899702 1.74827
0.417062 1.08635 1.05726
-0.394167 0.290452 2.10671
0.394165 0.290452 2.10635
0.392513 0.623346 2.11926
-0.392514 0.623346 2.11926
-0.757269 0.1225 -2.06627
-0.57375 0.0614246 -2.10302
-0.768632 0.074836 -1.91926
-0.797308 0.22375 2.02616
-0.583668 0.142162 1.99784
-0.807206 0.11255 1.82482
-0.815912 0.4075 -2.0323
-0.61875 0.493024 -2.06397
-0.846766 0.492324 -1.85466
-0.727139 0.69625 2.02845
-0.578711 0.784116 2.09412
-0.789438 0.777266 1.91371
0.57375 0.0614159 -2.10302
0.75732 0.1225 -2.06632
0.768618 0.07485 -1.91926
0.583668 0.142193 1.99781
0.797352 0.22375 2.0262
0.806794 0.112962 1.82482
0.61875 0.493033 -2.06398
0.815933 0.4075 -2.03232
0.846768 0.492326 -1.85466
0.578712 0.784109 2.09411
0.727114 0.69625 2.02842
0.789444 0.77727 1.91371
-0.781309 0.082965 -0.898145
-0.785254 0.085955 -0.557775
-0.824449 0.136608 -0.718919
-0.595415 0.062796 -0.72796
-0.797542 0.101409 0.803705
-0.794458 0.0975574 0.463335
-0.835492 0.163334 0.643666
-0.610471 0.0629013 0.63352
-0.849022 0.587926 -0.826923
-0.849148 0.537503 -0.664674
-0.845374 0.615394 -0.484344
-0.727615 0.843569 -0.655633
-0.836167 0.730648 0.885973
-0.849108 0.642881 0.704538
-0.841014 0.70438 0.543394
-0.647264 0.861019 0.714684
0.781311 0.0829623 -0.898145
0.595415 0.062796 -0.72796
0.785253 0.085956 -0.557775
0.824452 0.136608 -0.718919
0.797541 0.101409 0.803705
0.610477 0.0629013 0.63352
0.794476 0.0975394 0.463335
[...]
POINT_DATA 3682
SCALARS point_scalars float 1
LOOKUP_TABLE default
-69.2649
-42.0845
-81.7568
-39.3001
-69.3364
-43.5674
-81.9014
-40.3286
-32.9716
-26.476
-37.421
-38.6307
-33.0029
-26.6573
-37.4969
-38.7813
-37.7773
-179.486
-33.0116
-26.9609
-54.3696
-38.0895
-34.1836
-37.7773
-153.466
-33.3911
-27.1019
-54.3137
-37.3677
-34.1529
-73.6689
-121.232
-36.2101
-34.1393
-43.8958
-38.1653
-36.7905
-33.7301
-81.5708
-35.9224
-39.5328
-39.2463
-39.2463
-39.5635
-59.7814
-135.371
-34.7614
-27.8994
-45.2066
-33.5758
-32.8963
-62.4829
-33.3756
-32.9807
136.418
-34.2
-34.1984
96.0901
-66.2433
-31.6346
-62.4813
-37.3352
-37.1218
-35.4691
-64.0882
-188.75
-34.6749
-28.0093
-46.6648
-35.0569
-34.2829
-65.3608
-34.6599
-34.2914
137.013
-35.0519
-35.0519
95.3109
-65.9128
-31.6927
-63.5359
-38.3556
-38.0352
-36.2214
-37.7833
-179.64
-33.0403
-27.1397
-55.2737
-39.5091
-35.3749
-37.7833
-153.594
-33.4466
-27.2947
-55.1276
-38.8683
-35.3197
-73.8194
-121.279
-36.2822
-34.3067
-44.941
-39.3153
-37.8702
-42.8644
-81.6412
-36.152
-39.6716
-40.2694
-40.2694
-40.6173
-55.5341
-217.711
-51.7917
-38.2796
-33.4896
-37.7641
56.9681
-54.139
-35.3304
-53.7731
-55.8032
-51.353
-39.5087
-38.2203
-54.1754
-54.112
-29.2067
-33.9037
-38.9126
-28.9761
-31.1913
-37.1196
-16.2503
-73.4558
-29.2708
-33.9629
-29.1589
-37.2144
-52.3669
-52.3655
-61.4568
-58.1939
201.853
-32.0157
-32.1024
-32.0649
-48.034
-45.4994
-45.9947
-34.0743
-48.1396
-29.5378
-39.4141
-119.482
-73.7557
-38.851
-34.5015
-46.3092
-68.759
48.0975
-75.3354
-38.2577
-35.18
-43.678
-119.424
-39.6504
-74.1745
-36.147
-40.8489
-48.2024
48.1123
-69.1961
-75.3257
-35.6471
-39.3573
-44.3153
-41.9739
-30.3565
-33.0554
-37.8947
-28.5642
-28.4545
-26.9725
-30.3759
-42.7511
-35.0705
-35.6775
-23.9219
-41.08
-31.9748
-38.5386
-61.6704
-42.0278
-37.9081
-30.4056
-33.0871
-30.9591
-30.4423
-28.5561
-27.1687
-42.8539
-23.9542
-35.1313
-35.7519
-41.2489
-61.8595
-32.1486
-38.6613
-77.4778
198.158
-89.625
172.098
-52.1019
-59.5353
-51.9285
-31.1365
-35.4761
-29.5495
-43.5154
-34.5156
-64.7905
201.478
-52.6149
-58.3941
-40.1301
-33.0427
-47.7224
-49.0601
-77.4792
198.141
-52.0732
-59.8378
-52.8431
-32.6511
-44.0059
-34.7893
-52.6352
-58.4121
-48.1989
-49.2018
-30.5417
-31.3758
-42.4199
-32.0905
-46.7669
-34.5694
-31.5333
-33.7767
-30.9994
-32.3555
-33.9516
-50.1361
-40.4037
-6.44077
-82.2524
-60.5248
-30.6268
-31.4053
-42.4652
-32.1561
-31.6617
-34.0376
-34.0445
-50.2246
-76.5515
-42.2732
-42.8872
-75.4993
-76.5689
-75.507
-42.9264
-42.2974
-88.5876
-88.5903
-45.5934
-45.5865
-64.6539
-43.4855
-43.5084
-64.6347
166.43
197.022
196.876
166.453
-31.0211
-29.8149
-33.8633
-33.4863
-31.0817
-33.555
-33.9912
-29.9417
-33.6427
-33.6613
-30.3888
-30.3476
-19.5948
-66.3488
-66.4441
-19.6717
-31.8057
-54.3234
-46.0144
-33.397
-32.0388
-33.5808
-46.7677
-55.3305
-32.2261
-32.3349
-37.6728
-37.0203
-59.8361
-41.0635
-41.3359
-59.9416
-31.2899
-33.028
-34.0712
-33.2985
-54.7372
-78.842
-124.842
-40.0282
-36.7284
-47.682
-76.1306
50.7462
-100.705
-37.1577
-35.9977
-41.5289
-78.736
-54.9572
-124.964
-38.3206
-41.4418
-48.5718
50.1672
-76.3773
-100.733
-36.8127
-38.2333
-42.1454
-39.0313
-31.2854
-32.631
-36.1203
-23.6908
-27.6973
-26.4033
-29.278
-38.9712
-35.9025
-34.5437
-33.5742
-37.3061
-34.1041
-38.856
-46.7317
-39.0849
-36.143
-31.3242
-32.664
-24.0052
-29.3827
-27.8277
-26.6035
-38.9428
-33.5848
-35.9702
-34.5943
-37.4655
-46.8606
-34.2704
-38.9928
-43.385
-63.9046
-121.385
177.296
-193.694
-193.433
-121.651
87.9248
-62.0347
-45.2721
-51.3509
-56.584
-38.7717
-37.5702
-41.8926
-33.2252
-33.493
-34.6427
-35.4845
-30.5366
-40.0217
-37.6666
-42.0663
-35.5098
53.676
51.9376
-26.6704
148.744
-63.0514
-47.2712
-53.281
-56.1806
-35.3189
-35.51
-37.3338
-33.4983
-48.5379
-47.2991
-50.9586
-50.3681
-43.6477
-64.267
-121.428
177.645
-61.9455
-44.7805
-51.2969
-56.5467
-40.1293
-38.7259
-42.8884
-34.3762
-40.6142
-38.0864
-42.5516
-35.8907
-63.0713
-47.3286
-53.3089
-56.2006
-48.9833
-47.6531
-51.3961
-50.5934
-29.7735
-28.8768
-29.8119
-30.5238
-33.4625
-34.391
-38.398
-32.6521
-38.7427
-38.7498
-42.3317
-36.4387
-27.8375
-30.3311
-30.5824
-26.3744
-31.0043
-31.0369
-30.9448
-31.6353
-36.2719
-38.1707
-35.2558
-47.425
-18.045
-18.076
-27.4159
-5.44261
-71.4111
-71.4588
-78.1917
-67.8038
-29.7892
-28.9566
-29.8896
-30.5681
-33.5107
-34.4485
-38.4387
-32.7115
-28.0262
-30.5098
-30.7126
-26.582
-36.3516
-38.2748
-35.3502
-47.5287
-62.0647
-52.3795
-52.3947
-46.2348
-62.0414
-52.3573
-52.4059
-46.2717
-73.3019
-61.2426
-61.2383
-52.927
-65.1774
-58.4845
-58.4921
-50.9262
200.261
199.014
202.217
200.246
-31.2921
-32.0209
-31.9238
-32.8819
-31.3803
-32.097
-32.0313
-32.9736
-31.9107
-33.0985
-31.4204
-31.9257
-45.1803
-22.397
-79.2394
-45.2117
-48.0979
-44.5837
-46.4568
-43.5081
-48.7534
-45.0791
-46.9469
-43.8871
-34.903
-34.1481
-34.3
-33.2591
-43.7302
-48.2146
-48.2891
-53.6518
-29.8858
-27.5197
-31.7768
-30.9206
-127.283
161.135
-124.028
87.0053
-73.5207
-83.8051
-43.1188
-32.7875
-38.5851
-32.1876
-52.7057
-39.4835
-112.49
177.546
-22.033
153.123
-75.7987
-63.2196
-42.0745
-34.3288
-37.7366
-33.4619
-42.0698
-43.7364
-124.063
87.0255
-127.393
161.167
-73.5461
-83.8296
-39.7223
-33.7532
-43.9939
-34.1964
-53.6317
-40.3352
-22.0684
153.447
-112.518
177.591
-75.8088
-63.2925
-38.1327
-34.1705
-43.0331
-35.2044
-42.7164
-44.0871
-41.4059
-43.7064
-30.5249
-32.4208
-37.9861
-31.7162
-41.1922
-35.4286
-27.8375
-32.5012
-29.0349
-29.4674
-28.964
-22.9118
-30.2673
-31.1362
-43.0274
-45.7271
-38.3366
-33.7243
-34.4611
-41.6355
-32.1701
-16.6855
-35.2047
-52.1914
-33.1092
-30.705
-35.3866
-47.9012
-62.2585
-63.7136
-41.4208
-43.7249
-41.1994
-35.4434
-30.5843
-32.4507
-38.3277
-31.7667
-27.99
-32.5975
-30.3208
-31.2179
-29.1558
-29.532
-29.1175
-23.141
-43.0694
-45.7771
-32.1948
-16.7133
-38.3775
-33.7861
-34.5325
-41.7218
-35.392
-52.3523
-62.3539
-63.8267
-33.2592
-30.9118
-35.5128
-48.0145
-78.072
-76.5414
191.896
196.147
-89.6108
-89.6164
166.658
166.634
-62.5598
-45.8998
-71.5995
-51.4665
-53.8376
-49.3596
-29.9213
-32.4113
-36.0868
-35.7225
-29.7789
-31.088
-42.5524
-46.2007
-33.4389
-35.8024
-65.2034
-65.2108
199.833
199.833
-46.6618
-61.6003
-64.6793
-52.409
-40.2881
-40.438
-33.4194
-32.9726
-52.1295
-45.3387
-53.8935
-45.0006
-78.0776
-76.5438
196.092
191.902
-62.4603
-45.9825
-71.5937
-51.4626
-50.199
-54.8027
-31.9531
-33.4619
-42.9137
-46.8695
-33.6115
-36.2204
-61.6033
-46.7036
-52.4293
-64.67
-45.7302
-52.7562
-45.1954
-54.0055
-30.703
-30.2777
-32.3201
-30.7359
-42.3438
-42.6187
-31.5555
-32.7059
-46.5543
-46.551
-34.3616
-34.3714
-30.6349
-32.5769
-32.6968
-34.2727
-30.8849
-30.8651
-32.3046
-32.3652
-34.0027
-33.727
-37.0751
-63.2827
-41.279
-41.2918
-8.73573
-8.77718
-79.7367
-79.7745
-60.2733
-60.3247
-30.7722
-30.3808
-32.3434
-30.7722
-42.6639
-42.3755
-31.619
-32.7731
-32.7054
-30.764
-32.9562
-34.5239
-33.8063
-34.1113
-63.6013
-37.1064
-132.903
-62.0659
-62.3315
-125.511
-39.163
-38.2572
-46.1002
-45.1629
-38.8748
-47.085
-46.3777
-38.3017
-108.015
-117.244
-61.7315
-62.4337
-133.041
-125.563
-62.288
-61.884
-108.039
-62.4446
-61.7226
-117.275
-38.9045
-38.3433
-46.4153
-47.1333
-39.2739
-45.3275
-46.1437
-38.341
-117.431
-120.977
-73.1871
-67.8853
-117.486
-67.8464
-73.1901
-121.009
-39.5345
-42.0936
-52.7322
-48.6345
-39.5147
-48.637
-52.7307
-42.0891
-24.469
-63.3798
-64.8727
-24.364
-40.6845
-28.7184
-51.5032
-51.8556
-40.7211
-51.8664
-51.5138
-28.7302
-24.4342
-24.7189
-64.8756
-63.3793
113.106
174.995
194.308
93.7219
158.459
165.631
199.374
180.053
158.899
179.912
199.368
164.327
113.102
93.6032
194.339
175.102
-31.2781
-30.0912
-31.3706
-32.1917
-27.8865
-29.696
-31.0823
-29.5222
-35.0087
-35.5316
-32.9528
-31.7512
-34.3161
-33.1538
-32.7119
-34.8576
-31.3245
-32.2479
-31.4446
-30.1538
-34.3776
-34.9379
-32.7894
-33.2147
-35.1552
-31.9033
-33.0618
-35.6641
-28.0367
-29.6199
-31.1886
-29.8505
-33.9653
-36.2655
-32.952
-31.1851
-33.9905
-31.2212
-32.9643
-36.2735
-29.4423
-30.7998
-31.2562
-30.0311
-29.3593
-29.9765
-31.2385
-30.7734
-34.0282
-46.4127
-22.2461
-7.92638
-47.3513
-75.6721
-76.0747
-47.7123
-47.4708
-47.8191
-76.106
-75.7144
-34.0746
-7.95207
-22.1953
-46.44
-21.7768
-41.3909
-43.1134
-24.5755
-45.1801
-42.2879
-47.2093
-44.7971
-42.4193
-53.236
-49.0455
-41.8122
-33.4054
-28.2439
-44.0475
-43.1194
-22.0572
-24.7879
-43.4861
-41.7408
-33.5889
-43.5115
-44.4346
-28.4472
-43.3207
-42.7931
-49.6846
-53.8009
-46.1608
-45.4654
-47.8736
-43.2931
-29.6429
-31.5171
-33.2253
-34.2622
-29.7615
-34.4822
-33.3167
-31.5626
-44.6498
-36.4419
-35.2874
-37.8632
-43.2979
-37.2911
-35.0544
-35.8256
-48.7319
-52.562
-53.5766
-66.9852
-39.433
-37.3538
-43.8959
-48.4212
-39.9363
-48.6843
-43.9957
-37.5341
-48.869
-67.0337
-53.6368
-52.7632
-33.8773
-30.6852
-27.9684
-32.8748
-35.1713
-34.2057
-29.5232
-31.8714
-35.5187
-33.6878
-32.3464
-34.5904
-34.5809
-33.6033
-31.6834
-33.3097
-64.3957
-61.9701
-169.159
-41.0167
-38.2066
-43.9407
-81.1395
18.2434
-119.378
-37.679
-36.9894
-40.8912
-61.9443
-64.4744
-169.319
-39.7778
-42.4772
-45.1725
17.7988
-81.1957
-119.414
-37.921
-39.1889
-41.8017
-33.8788
-32.0434
-32.6049
-34.6874
-25.5654
-27.336
-26.3155
-27.8495
-38.679
-36.5808
-35.5078
-38.9177
-37.3669
-36.0794
-38.8118
-44.3863
-33.9157
-34.713
-32.0776
-32.6386
-25.7892
-27.9863
-27.4872
-26.5115
-38.7625
-39.0161
-36.6525
-35.5904
-37.5248
-44.5211
-36.2386
-38.9542
-48.208
-59.1023
-159.049
118.742
-213.927
-213.603
-170.138
19.4169
-56.4961
-47.7676
-51.3225
-54.2091
-38.377
-37.991
-41.8743
-34.2587
-33.3072
-33.9265
-35.6988
-31.8808
-38.4537
-37.2678
-40.3071
-36.2013
56.0126
56.7119
18.5235
91.3159
-58.4205
-50.4643
-53.7386
-58.9573
-35.3014
-35.3834
-36.1068
-34.6647
-51.7715
-51.52
-53.099
-52.3291
-48.4857
-59.4323
-159.138
118.945
-55.9365
-47.5673
-51.1173
-54.1499
-39.6409
-39.1913
-43.0672
-35.329
-38.9922
-37.6683
-40.7856
-36.6369
-58.449
-50.5097
-53.7705
-58.9909
-52.156
-51.9613
-53.4993
-52.592
-29.4879
-29.1733
-29.4751
-29.7543
-33.6352
-34.0922
-35.5632
-33.1117
-38.9425
-38.9459
-40.4906
-37.6405
-28.3631
-29.6353
-29.8864
-27.878
-31.1434
-31.1599
-30.9979
-31.3753
-36.6005
-37.7355
-36.0725
-43.513
-16.6593
-16.6875
-21.6486
-10.3954
-73.0363
-73.0604
-75.955
-70.4156
-29.5488
-29.2437
-29.5475
-29.8067
-33.6914
-34.1505
-35.6081
-33.1692
-28.5487
-29.8161
-30.0548
-28.0743
-36.686
-37.8378
-36.1672
-43.6071
-56.7049
-52.3852
-52.3689
-49.0046
-56.6889
-52.3754
-52.3745
-49.0247
-66.9536
-61.2375
-61.237
-56.8663
-61.7028
-58.3956
-58.3986
-55.2513
201.162
202.016
202.124
201.156
-31.6337
-32.0043
-32.0124
-32.4432
-31.7228
-32.0868
-32.0581
-32.534
-31.9671
-32.5916
-31.6516
-31.9748
-47.3907
-34.2644
-67.4614
-47.4078
-46.6979
-45.0368
-45.9464
-44.4972
-47.2661
-45.5327
-46.4395
-44.931
-34.5524
-34.0606
-34.1358
-33.6666
-45.9179
-48.1463
-48.1835
-50.6781
-29.6336
-28.2365
-30.737
-30.2419
-35.7745
-38.5792
-161.584
115.944
-105.446
-152.019
-184.637
-12.3187
-90.2926
-66.6264
-71.9449
-78.6533
-39.7759
-39.0031
-41.7396
-34.3602
-35.9546
-34.154
-38.3211
-33.1991
-52.055
-42.5837
-50.0368
-41.7206
-75.3385
-66.8582
-152.541
101.832
50.621
47.56
12.8263
105.127
-89.643
-69.6009
-76.2989
-72.1707
-37.3327
-37.7386
-43.8049
-35.6289
-35.3586
-35.1374
-36.3065
-34.3354
-42.1737
-45.3894
-42.3717
-44.3795
-105.212
-151.996
-184.715
-12.2755
-35.9802
-38.8222
-161.693
115.923
-90.5184
-66.9519
-72.2498
-78.7614
-37.5493
-35.667
-39.7669
-34.8375
-41.1822
-40.0809
-42.9702
-35.5758
-53.0523
-43.2549
-51.1138
-42.7821
50.4529
47.3633
12.8081
105.265
-75.6486
-67.2085
-152.627
102.137
-89.662
-69.6224
-76.3096
-72.2653
-35.9645
-35.4987
-36.7494
-34.8945
-38.3594
-38.8316
-44.9619
-36.5385
-42.7288
-45.8879
-42.9885
-44.8202
-41.2765
-42.7323
-40.4287
-42.6338
-30.9095
-29.991
-30.3231
-31.3744
-32.8549
-33.2524
-34.626
-32.2635
-37.1926
-38.3904
-39.4506
-36.5482
-17.5664
-41.29
-25.0748
-34.3735
-28.1333
-28.6629
-28.7361
-28.8423
-26.5835
-27.3651
-28.1493
-25.427
-29.8483
-30.7922
-30.2577
-30.7243
-40.8166
-45.3228
-43.0632
-41.5498
-35.4875
-34.7181
-35.9737
-34.2668
-34.7696
-35.887
-34.9357
-38.6326
-27.5495
-20.3647
-27.6534
-19.7948
-38.6064
-44.0993
-38.3153
-48.0057
-32.912
-31.1097
-32.663
-31.3117
-38.385
-38.191
-36.5993
-45.1954
-51.1497
-68.519
-62.1621
-63.8786
-41.4271
-43.3744
-40.3443
-42.6916
-37.21
-38.4006
-39.4624
-36.562
-30.9515
-30.0539
-30.379
-31.4102
-32.8812
-33.3021
-34.817
-32.3071
-18.243
-41.2542
-24.9951
-34.2479
-29.9329
-30.8419
-30.3169
-30.7972
-28.248
-28.7523
-28.8532
-28.9232
-26.7829
-27.5572
-28.3239
-25.6435
-40.7584
-45.4157
-43.1133
-41.6357
-27.5857
-20.3881
-27.6805
-19.8376
-35.5517
-34.7768
-36.0269
-34.3224
-34.8152
-35.9629
-35.0077
-38.7015
-38.7804
-44.2439
-38.4706
-48.1658
-51.2665
-68.5913
-62.2452
-63.9467
-33.0827
-31.2861
-32.8245
-31.4987
-38.5137
-38.3049
-36.7249
-45.3247
-95.3145
-68.4065
-77.6289
-76.8679
192.938
198.92
198.689
197.024
-101.527
-80.7242
-89.3621
-89.3695
150.568
187.964
169.861
169.789
-51.9036
-52.3182
-56.5497
-48.739
-58.3269
-60.4513
-65.2773
-55.3805
-46.2589
-49.6083
-52.9548
-50.4461
-32.1383
-30.3646
-30.4859
-31.8003
-35.5334
-35.2138
-35.6772
-35.4869
-29.7656
-28.1133
-29.5436
-30.3312
-42.9141
-44.0838
-42.9176
-44.6121
-34.9445
-34.3035
-34.0307
-35.1896
-48.4796
-67.7003
-64.9129
-64.9147
188.717
201.704
200.908
200.869
-52.8789
-52.4701
-49.2874
-56.6917
-57.6562
-58.542
-61.3673
-55.5948
-38.6343
-41.9138
-40.1818
-40.2345
-33.2633
-32.4609
-33.108
-32.8599
-48.6807
-47.0757
-49.3722
-46.5107
-51.061
-48.4113
-51.3747
-46.9208
-95.3306
-68.3935
-77.6344
-76.8683
192.595
198.9
196.997
198.66
-51.8643
-52.2898
-56.484
-48.7294
-58.3044
-60.4469
-65.2656
-55.3754
-47.1969
-50.3705
-51.3104
-53.8861
-33.5513
-31.7499
-32.2453
-33.0728
-43.4021
-44.5772
-43.3412
-45.1857
-35.2723
-34.5215
-34.2483
-35.5313
-52.9033
-52.4862
-56.7013
-49.3193
-57.6768
-58.5556
-55.613
-61.372
-49.1449
-47.5604
-46.9403
-49.9111
-51.2275
-48.523
-47.1388
-51.5044
-30.1346
-30.9221
-30.5793
-30.4082
-30.961
-31.6725
-31.8166
-30.9843
-40.8157
-44.0028
-42.3748
-42.4857
-32.3159
-32.0931
-31.812
-32.39
-44.3505
-49.6085
-46.4187
-46.4179
-35.4109
-33.7645
-34.4604
-34.4648
-31.121
-31.7959
-31.0559
-32.0253
-24.0934
-42.8127
-33.5663
-34.2517
-30.9822
-31.1593
-30.9818
-30.9713
-32.0126
-32.7655
-32.3454
-32.3766
-34.5593
-33.3971
-34.1208
-33.8745
-53.9967
-43.6633
-42.0287
-52.7267
-33.6255
-46.5341
-40.6391
-40.6454
-4.15686
-12.5868
-7.20566
-7.22785
-80.3319
-82.4691
-81.707
-81.7255
-64.7311
-56.7219
-60.4492
-60.4751
-30.2165
-31.0089
-30.656
-30.5018
-30.9981
-31.694
-31.8427
-31.0171
-40.8921
-44.0445
-42.5307
-42.4204
-32.3777
-32.1632
-31.8766
-32.4564
-31.2437
-31.9135
-32.1538
-31.1838
-24.3097
-43.1421
-33.831
-34.5109
-34.6529
-33.4895
-33.8979
-34.2214
-54.1217
-43.687
-52.8128
-42.0896
-91.9216
-75.0308
-77.7497
-69.633
-42.1586
-42.1055
-43.6561
-42.3054
-42.9671
-41.5102
-44.4566
-42.8031
-89.6919
-75.3027
-75.9386
-67.8454
-92.0175
-75.0357
-77.7604
-69.5813
-89.7068
-75.3127
-75.9434
-67.8452
-43.0026
-41.5428
-44.502
-42.8465
-42.176
-41.9865
-43.7242
-42.3354
-101.314
-86.732
-89.3051
-79.2129
-101.322
-86.7383
-89.3028
-79.2094
-44.6482
-43.2035
-48.2823
-45.9053
-44.6406
-43.1972
-48.2839
-45.9026
-50.2041
-62.8513
-64.5957
-67.8921
-44.9398
-37.5137
-48.7808
-42.2106
-44.9716
-37.5377
-48.8032
-42.2277
-50.2277
-63.2149
-64.5891
-67.9035
168.232
146.516
184.465
164.087
193.167
198.488
196.09
198.661
198.328
192.69
198.652
195.894
146.525
168.33
164.138
184.486
-30.7543
-31.283
-30.8451
-31.2852
-29.393
-29.4061
-30.1107
-30.2386
-33.5257
-34.6033
-33.1982
-34.0026
-33.5392
-33.846
-33.0703
-33.542
-30.8141
-31.3391
-30.9097
-31.3473
-33.6023
-33.9153
-33.138
-33.6159
-33.6644
-34.7306
-33.3265
-34.234
-29.517
-29.5444
-30.2259
-30.3674
-33.1121
-34.476
-32.9327
-34.0602
-34.4916
-33.1358
-34.0748
-32.9542
-30.3368
-30.0319
-30.665
-30.5709
-29.9789
-30.2893
-30.5328
-30.6343
-32.8162
-15.8153
-26.8312
-11.9721
-53.0877
-63.6936
-66.2654
-74.8575
-63.7902
-53.1997
-74.9216
-66.3359
-15.8583
-32.9025
-12.0395
-26.8672
-29.6799
-18.6544
-42.6889
-31.7097
-49.8204
-53.7242
-53.3136
-48.6085
-42.0698
-43.7207
-47.731
-51.4155
-33.6591
-30.1749
-38.6442
-34.3642
-29.8745
-18.8702
-42.9949
-31.9577
-33.8499
-30.3842
-38.9463
-34.535
-42.8846
-44.4155
-48.5327
-52.0979
-50.8713
-54.6904
-54.3343
-49.3974
-32.1801
-31.6566
-32.7544
-32.2583
-32.3052
-31.7502
-32.8884
-32.3452
-38.5145
-38.8814
-36.7408
-36.8281
-37.6693
-38.1138
-36.2246
-36.314
-59.9686
-63.7668
-56.4672
-60.0285
-39.3285
-42.1311
-40.5301
-42.9254
-39.6504
-42.454
-40.74
-43.1542
-60.0659
-63.7611
-56.5633
-60.1047
-31.7745
-31.8815
-29.8061
-30.1608
-33.4347
-33.6299
-31.8625
-31.9877
-34.1573
-34.3872
-33.6863
-33.7825
-33.5333
-33.4356
-32.8897
-33.0507
-177.023
103.509
-178.479
10.3596
-130.96
-115.007
-42.3016
-35.3226
-40.9912
-35.1333
-46.8435
-42.9252
-139.75
91.0431
1.41081
111.871
-103.778
-62.2143
-45.2476
-35.5976
-37.7675
-35.1995
-41.9868
-40.595
-178.559
10.3976
-177.155
103.463
-131.182
-115.095
-42.8559
-36.8108
-43.5301
-36.7129
-47.9236
-44.0561
1.38854
111.462
-139.811
90.8804
-103.803
-62.3169
-38.3892
-36.0979
-46.3559
-36.6067
-42.8508
-41.1676
-39.0087
-37.8239
-31.0942
-32.6742
-33.783
-31.8728
-37.6353
-34.9793
-21.9805
-26.715
-27.7943
-28.4214
-27.5376
-24.6454
-29.1496
-29.4626
-39.1176
-38.0547
-36.8625
-34.9294
-34.4045
-36.2204
-36.6974
-32.482
-35.2477
-43.0376
-34.7311
-33.5368
-36.4112
-45.3974
-46.9108
-46.6518
-39.0862
-37.8533
-37.6568
-35.0029
-31.1369
-32.7032
-33.8793
-31.9115
-22.2952
-26.9269
-29.243
-29.5781
-27.9393
-28.5261
-27.7086
-24.8825
-39.1278
-38.0662
-36.7371
-32.7023
-36.9268
-34.9947
-34.4609
-36.2385
-35.4223
-43.1795
-47.0353
-46.7852
-34.8865
-33.7132
-36.5547
-45.52
-159.628
120.065
-157.683
111.625
-122.611
-119.811
179.62
177.45
-172.744
25.5643
-172.858
25.6426
-116.388
-116.415
71.7956
71.6172
-61.8289
-64.7407
-45.0609
-47.1501
-56.0115
-48.0392
-62.1427
-52.6105
-41.555
-34.1206
-42.5402
-34.5101
-42.058
-41.8497
-33.0664
-33.383
-36.2839
-31.755
-37.1563
-32.9748
-35.8175
-35.4921
-30.5096
-31.186
-42.6766
-38.4596
-40.2378
-35.2743
-41.6579
-42.856
-34.9287
-36.4005
16.8189
82.7467
16.7894
88.5349
-27.8445
-27.8096
146.646
144.002
-62.7493
-67.1913
-47.3724
-52.2596
-49.8045
-57.4615
-58.667
-54.1578
-36.0741
-34.377
-36.2934
-34.6107
-37.3251
-37.4159
-33.7474
-33.5591
-48.7875
-48.5405
-43.1469
-51.3088
-53.6465
-48.1567
-51.3312
-48.1521
-159.726
120.092
-157.752
112.121
-122.66
-119.848
178.015
179.786
-61.6759
-64.6002
-44.6982
-47.1816
-55.7436
-47.8642
-62.0914
-52.5921
-42.7631
-35.2685
-43.7124
-35.4859
-42.8392
-43.0535
-34.2924
-34.4548
-43.3385
-39.0908
-40.5683
-35.5866
-42.0821
-43.4188
-35.2257
-36.868
-62.765
-67.2461
-47.425
-52.2811
-57.4798
-49.8421
-54.1811
-58.6783
-49.2831
-48.8871
-43.5351
-51.5891
-48.5787
-54.156
-48.3685
-51.5424
-29.8633
-30.3798
-29.1971
-29.3093
-29.9682
-29.6893
-30.9041
-30.0723
-35.4122
-32.6756
-35.5691
-33.6548
-38.4412
-38.3275
-32.3953
-32.8348
-40.3389
-37.4149
-40.3447
-37.423
-42.2577
-42.2562
-36.2662
-36.2704
-28.9342
-26.5227
-31.1232
-29.4353
-30.0121
-31.1066
-25.4744
-27.2755
-30.8151
-31.227
-30.8454
-31.2654
-30.9087
-30.8953
-31.5958
-31.6183
-35.5077
-41.6756
-36.587
-44.864
-35.5203
-35.0175
-47.6678
-47.9226
-23.1895
-12.7245
-23.204
-12.8199
-27.7583
-27.7648
-5.84728
-5.86108
-73.7022
-69.0768
-73.7487
-69.1249
-77.6107
-77.632
-67.6048
-67.6297
-29.9092
-30.4203
-29.2884
-29.3746
-30.0394
-29.7762
-30.9436
-30.1221
-35.4527
-32.727
-35.6211
-33.7145
-38.3696
-38.4812
-32.4533
-32.8951
-29.075
-26.7257
-31.2542
-29.6275
-31.2598
-30.1671
-25.684
-27.4797
-35.588
-41.7317
-36.695
-44.9714
-35.0017
-35.6217
-48.0269
-47.7104
-62.1848
-61.8378
-56.7605
-48.9331
-49.0496
-56.5919
-46.2034
-46.3189
-62.1519
-61.8224
-56.7298
-48.9443
-56.5902
-49.0756
-46.3551
-46.241
-73.217
-72.5542
-66.8088
-56.6877
-66.8079
-56.6871
-53.0548
-53.0534
-64.6449
-64.6486
-61.6419
-55.5565
-55.5654