# vtk DataFile Version 2.0
tet_velo
ASCII
DATASET UNSTRUCTURED_GRID
POINTS 29498 float
-0.701718 0.205 -1.715
-0.605 0.275 1.90287
-0.625 0.660371 -1.835
-0.655 0.737531 1.825
0.695 0.205 -1.72172
0.605 0.275 1.90287
0.625 0.660371 -1.835
0.655 0.737531 1.825
-0.728837 0.168975 -0.509043
-0.738117 0.150789 0.696913
-0.766403 0.817494 -0.615
-0.747652 0.814463 0.605
0.724203 0.169131 -0.513523
0.73626 0.150407 0.694674
0.766402 0.817493 -0.615
0.747648 0.814459 0.605
-1.44491 -0.127341 -2.63359
-1.43777 -0.095727 -1.6629
-1.45703 -0.123231 -0.457151
-1.44837 -0.137599 0.745719
-1.36759 -0.0606878 1.95124
-1.34074 -0.0241332 2.92076
-1.3433 -0.011408 3.89251
-1.43441 0.147526 -2.68742
-1.42908 0.200225 -1.7154
-1.46524 0.188474 -0.507224
-1.4483 0.158973 0.699551
-1.33217 0.220019 1.9075
-1.31464 0.253821 2.87732
-1.32806 0.268069 3.84876
-1.40148 0.668214 -2.79987
-1.3869 0.720991 -1.82938
-1.48122 0.815957 -0.611807
-1.46105 0.795604 0.606715
-1.36153 0.749267 1.82418
-1.32955 0.782145 2.79356
-1.33187 0.814167 3.7629
-1.39117 1.55182 -2.95781
-1.39235 1.61322 -1.9848
-1.43125 1.6977 -0.762947
-1.45101 1.71472 0.461922
-1.42782 1.68231 1.68393
-1.39925 1.67287 2.65726
-1.37826 1.68495 3.6279
-0.734996 -0.126178 -2.63426
-0.712578 -0.0923478 -1.66318
-0.725943 -0.133644 -0.458563
-0.73923 -0.142311 0.743259
-0.681046 -0.0297401 1.94782
-0.655569 -0.00261468 2.91832
-0.654968 -0.00024056 3.89088
-0.732353 0.142407 -2.68839
-0.625695 0.274793 2.87527
-0.639677 0.277792 3.84744
-0.702001 0.642385 -2.80237
-0.637752 0.782342 2.79345
-0.640521 0.815545 3.76254
-0.6752 1.53748 -2.96023
-0.666337 1.60141 -1.9873
-0.701218 1.69884 -0.764616
-0.731897 1.71923 0.461552
-0.723137 1.6801 1.6844
-0.69893 1.66858 2.65773
-0.67839 1.68166 3.62809
0.673429 -0.126167 -2.6386
0.706076 -0.0923207 -1.66857
0.725988 -0.133587 -0.462598
0.706504 -0.142547 0.741027
0.625292 -0.0298349 1.94706
0.665197 -0.00268553 2.91759
0.698285 -0.000314544 3.88997
0.656001 0.142412 -2.69257
0.673913 0.274746 2.8748
0.70663 0.277726 3.84667
0.646319 0.642387 -2.80443
0.691906 0.782306 2.79307
0.716373 0.815489 3.76185
0.735635 1.53747 -2.96181
0.758517 1.6014 -1.98853
0.757731 1.69883 -0.765595
0.721996 1.71921 0.460743
0.695228 1.68006 1.68368
0.701352 1.66853 2.65696
0.717663 1.68161 3.62721
1.38691 -0.127321 -2.64131
1.42003 -0.0956803 -1.6715
1.45064 -0.123197 -0.463975
1.42927 -0.137903 0.741561
1.343 -0.0609202 1.9491
1.3525 -0.0243001 2.91896
1.38404 -0.0115627 3.89054
1.3713 0.147541 -2.69476
1.41076 0.200258 -1.72388
1.45861 0.188561 -0.513708
1.44822 0.158643 0.69581
1.3401 0.219814 1.9059
1.35404 0.25368 2.8759
1.38885 0.267927 3.84701
1.36057 0.668219 -2.80449
1.38379 0.720998 -1.83305
1.48343 0.815986 -0.614644
1.46513 0.795497 0.604903
1.37367 0.749134 1.82308
1.37605 0.782034 2.79238
1.40191 0.814044 3.76133
1.44295 1.55181 -2.96117
1.46771 1.61321 -1.98759
1.48036 1.69767 -0.76522
1.45045 1.71466 0.460044
1.41414 1.68222 1.68227
1.4095 1.67277 2.65556
1.42027 1.68484 3.62604
-0.688764 0.432686 -1.80041
-0.00335899 0.201326 -1.72203
-0.714895 0.18737 -1.11202
-0.629821 0.506266 1.86376
0 0.248444 1.92943
-0.671203 0.21325 1.29989
0 0.73409 -1.90872
-0.754804 0.798035 -1.225
0 0.797922 1.88539
-0.741823 0.816494 1.215
0.685399 0.432686 -1.80376
0.71039 0.186276 -1.11762
0.629817 0.506266 1.86375
0.667612 0.215722 1.29877
0.754802 0.798033 -1.225
0.741806 0.816477 1.215
-0.740354 0.153005 0.093935
-0.881954 0.493235 -0.562022
-0.00231704 0.170307 -0.511283
-0.853989 0.482626 0.650957
-0.000928743 0.188503 0.695793
-0.74995 0.808901 -0.005
-3.5298e-07 0.899049 -0.615
-2.12315e-06 1.16971 0.605
0.737444 0.152556 0.090575
0.881898 0.493312 -0.564262
0.853758 0.482433 0.649837
0.74996 0.808911 -0.005
-0.877704 0.46296 -1.16851
-0.875517 0.48793 0.0444675
-0.807824 0.494446 1.25745
-0.00283801 0.187834 -1.11482
-0.00162289 0.169414 0.092255
-0.000464372 0.209859 1.29933
-0.00167949 0.432686 -1.94257
0 0.506266 2.00241
-1.7649e-07 0.866782 -1.225
-1.23806e-06 1.14602 -0.005
-1.06157e-06 0.917855 1.215
0.877692 0.462999 -1.17131
0.875571 0.487872 0.0427875
0.807821 0.494349 1.25689
-1.0654 0.202612 -1.7152
-0.707148 0.0563261 -1.68909
-0.717035 0.173704 -2.20169
-0.968585 0.24751 1.90518
-0.643023 0.12263 1.92534
-0.615348 0.274897 2.38907
-1.00595 0.690681 -1.83219
-0.663501 0.651378 -2.31868
-0.645668 1.13089 -1.91115
-1.00827 0.743399 1.82459
-0.646376 0.759936 2.30923
-0.689069 1.20882 1.7547
0.700538 0.0563396 -1.69515
0.6755 0.173706 -2.20714
1.05288 0.202629 -1.7228
0.615146 0.122583 1.92496
0.639457 0.274873 2.38884
0.972549 0.247407 1.90438
0.635659 0.651379 -2.31972
0.691759 1.13089 -1.91177
1.0044 0.690684 -1.83403
0.673453 0.759919 2.30904
0.675114 1.2088 1.75434
1.01433 0.743333 1.82404
-1.09704 0.178724 -0.508134
-0.72739 0.0176657 -0.483803
-1.09321 0.154881 0.698232
-0.738674 0.0042387 0.720086
-1.12381 0.816726 -0.613404
-0.733811 1.25817 -0.689808
-1.10435 0.805034 0.605858
-0.739775 1.26685 0.533276
0.725095 0.017772 -0.488061
1.09141 0.178846 -0.513615
0.721382 0.0039297 0.71785
1.09224 0.154525 0.695242
0.762067 1.25816 -0.690298
1.12492 0.81674 -0.614822
0.734822 1.26683 0.532872
1.10639 0.804978 0.604952
-1.44134 -0.111534 -2.14825
-1.43966 0.0100926 -2.6605
-1.08996 -0.126759 -2.63392
-1.4474 -0.109479 -1.06003
-1.43343 0.0522488 -1.68915
-1.07518 -0.0940374 -1.66304
-1.4527 -0.130415 0.144284
-1.46114 0.0326213 -0.482187
-1.09149 -0.128437 -0.457857
-1.40798 -0.0991433 1.34848
-1.44833 0.0106869 0.722635
-1.0938 -0.139955 0.744489
-1.35416 -0.0424105 2.436
-1.34988 0.0796658 1.92937
-1.02432 -0.0452139 1.94953
-1.34202 -0.0177706 3.40664
-1.32769 0.114844 2.89904
-0.998154 -0.0133739 2.91954
-1.33568 0.128331 3.87063
-0.999136 -0.0058243 3.8917
-1.43174 0.173875 -2.20141
-1.41794 0.40787 -2.74364
-1.08338 0.144967 -2.6879
-1.44716 0.194349 -1.11131
-1.40799 0.460608 -1.77239
-1.45677 0.173723 0.0961632
-1.47323 0.502215 -0.559516
-1.39024 0.189496 1.30352
-1.45468 0.477288 0.653133
-1.32341 0.23692 2.39241
-1.34685 0.484643 1.86584
-1.32135 0.260945 3.36304
-1.3221 0.517983 2.83544
-0.97017 0.264307 2.8763
-1.32997 0.541118 3.80583
-0.983869 0.272931 3.8481
-1.39419 0.694602 -2.31462
-1.39632 1.11002 -2.87884
-1.05174 0.655299 -2.80112
-1.43406 0.768474 -1.2206
-1.38963 1.1671 -1.90709
-1.47114 0.805781 -0.00254599
-1.45624 1.25683 -0.687377
-1.41129 0.772435 1.21545
-1.45603 1.25516 0.534318
-1.34554 0.765706 2.30887
-1.39468 1.21579 1.75406
-1.33071 0.798156 3.27823
-1.3644 1.22751 2.72541
-0.983653 0.782243 2.7935
-1.35507 1.24956 3.6954
-0.986196 0.814856 3.76272
-1.39176 1.58252 -2.47131
-1.03318 1.54465 -2.95902
-1.4118 1.65546 -1.37387
-1.02935 1.60731 -1.98605
-1.44113 1.70621 -0.150513
-1.06624 1.69827 -0.763781
-1.43942 1.69852 1.07293
-1.09146 1.71698 0.461737
-1.41353 1.67759 2.1706
-1.07548 1.68121 1.68417
-1.38875 1.67891 3.14258
-1.04909 1.67072 2.6575
-1.02832 1.68331 3.628
-0.723787 -0.109263 -2.14872
-0.733675 0.00811471 -2.66132
-0.0307836 -0.126173 -2.63643
-0.71926 -0.112996 -1.06087
-0.00325077 -0.0923343 -1.66588
-0.732586 -0.137978 0.142348
2.27375e-05 -0.133615 -0.46058
-0.710138 -0.0860257 1.34554
-0.0163631 -0.142429 0.742143
-0.668307 -0.0161774 2.43307
-0.0278769 -0.0297875 1.94744
-0.655268 -0.00142762 3.4046
-0.640632 0.136089 2.89679
0.00481377 -0.00265011 2.91796
-0.647323 0.138776 3.86916
0.0216588 -0.000277552 3.89043
-0.717177 0.392396 -2.74538
-0.038176 0.14241 -2.69048
-0.632686 0.276293 3.36136
-0.631724 0.528568 2.83436
0.0241088 0.27477 2.87504
-0.640099 0.546669 3.80499
0.0334762 0.277759 3.84706
-0.6886 1.08993 -2.8813
-0.0278413 0.642386 -2.8034
-0.639136 0.798944 3.278
-0.668341 1.22546 2.72559
0.0270772 0.782324 2.79326
-0.659456 1.2486 3.69532
0.0379259 0.815517 3.7622
-0.670768 1.56944 -2.47376
0.0302177 1.53747 -2.96102
-0.683777 1.65012 -1.37596
0.0460904 1.6014 -1.98791
-0.716558 1.70903 -0.151532
0.0282565 1.69883 -0.765106
-0.727517 1.69967 1.07298
-0.00495072 1.71922 0.461148
-0.711034 1.67434 2.17107
-0.0139547 1.68008 1.68404
-0.68866 1.67512 3.14291
0.00121107 1.66855 2.65734
0.0196363 1.68163 3.62765
0.689753 -0.109244 -2.15359
0.664715 0.00812259 -2.66558
1.03017 -0.126744 -2.63996
0.716032 -0.112954 -1.06558
1.06305 -0.0940005 -1.67003
0.716246 -0.138067 0.139214
1.08831 -0.128392 -0.463286
0.665898 -0.0861912 1.34404
1.06789 -0.140225 0.741294
0.645244 -0.0162602 2.43233
0.984144 -0.0453776 1.94808
0.681741 -0.00150004 3.40378
0.669555 0.13603 2.8962
1.00885 -0.0134928 2.91827
0.702458 0.138706 3.86832
1.04116 -0.0059386 3.89026
0.65116 0.3924 -2.7485
1.01365 0.144977 -2.69367
0.690271 0.276236 3.36073
0.68291 0.528526 2.83394
1.01398 0.264213 2.87535
0.711501 0.546608 3.80426
1.04774 0.272827 3.84684
0.690977 1.08993 -2.88312
1.00344 0.655303 -2.80446
0.70414 0.798898 3.27746
0.696629 1.22542 2.72501
1.03398 0.78217 2.79273
0.717018 1.24855 3.69453
1.05914 0.814767 3.76159
0.747076 1.56944 -2.47517
1.08929 1.54464 -2.96149
0.758124 1.65011 -1.37706
1.11312 1.6073 -1.98806
0.739863 1.70902 -0.152426
1.11905 1.69825 -0.765408
0.708612 1.69963 1.07221
1.08622 1.71694 0.460394
0.69829 1.6743 2.17032
1.05468 1.68114 1.68298
0.709508 1.67507 3.14208
1.05542 1.67065 2.65626
1.06897 1.68323 3.62662
1.40347 -0.111501 -2.15641
1.3791 0.01011 -2.66804
1.43534 -0.109439 -1.06774
1.41539 0.0522889 -1.69769
1.43996 -0.13055 0.138793
1.45462 0.0326819 -0.488841
1.38614 -0.0994115 1.34533
1.43875 0.0103699 0.718685
1.34775 -0.0426102 2.43403
1.34155 0.0794471 1.9275
1.36827 -0.0179314 3.40475
1.35327 0.11469 2.89743
1.38644 0.128182 3.86877
1.39103 0.173899 -2.20932
1.36593 0.40788 -2.74963
1.43468 0.194409 -1.1188
1.39727 0.460628 -1.77847
1.45342 0.173602 0.0910512
1.47102 0.502273 -0.564176
1.39416 0.189228 1.30085
1.45668 0.47707 0.650356
1.34707 0.236747 2.3909
1.35688 0.484474 1.86449
1.37144 0.260804 3.36146
1.36504 0.517857 2.83414
1.39538 0.540986 3.80417
1.37218 0.694608 -2.31877
1.40176 1.11001 -2.88283
1.43361 0.768492 -1.22385
1.42575 1.1671 -1.91032
[...]
POINT_DATA 29498
VECTORS point_vectors float
-0.861783 -3.18183 5.86273
0.0774922 0.12402 0.48928
-0.681375 0.81193 1.53024
0.00381137 -0.0648313 0.141729
0.81871 -2.96939 5.42939
-0.0765698 0.130984 0.518614
0.673712 0.80275 1.51494
-0.00420026 -0.0647381 0.141965
0.00568447 -0.0322762 0.209671
0 0 0
-0.0308412 -0.0143612 0.163609
0.00705803 0.00476959 0.0329879
-0.0045409 -0.0158091 0.190953
0 0 0
0.0307533 -0.0143167 0.1632
-0.00703176 0.00475617 0.0329045
-0.741783 -0.29848 19.823
-1.33937 -0.699926 20.5706
-0.493536 -0.249995 21.248
0.0611455 0.0690939 21.3005
0.632683 0.383908 21.0979
0.809278 0.413219 20.7272
0.766027 0.22043 20.1274
-0.852418 -0.196136 19.6823
-1.85778 -0.527218 20.4518
-0.634959 -0.239308 21.32
0.0838142 -0.000247037 21.3944
0.898901 0.249131 21.1626
1.03471 0.243512 20.8159
1.02398 0.0876057 19.8612
-0.773975 0.157183 19.6106
-2.04836 0.460429 20.1645
-0.916267 0.0587148 21.2603
-0.0692401 -0.153656 21.4411
0.827064 -0.318311 21.2546
0.972304 -0.383974 20.8779
0.954462 -0.292268 20.1548
-0.421703 0.354086 19.88
-0.744668 0.65966 20.2143
-0.625502 0.458145 20.9018
-0.248119 0.0670249 21.2073
0.156324 -0.276098 21.0512
0.30345 -0.412348 20.8252
0.283497 -0.341104 20.6642
-0.884809 -0.864329 19.0205
-1.80623 -3.29917 21.2329
-0.496287 -0.515297 21.1959
-0.0795314 0.0606879 20.4611
0.188487 1.12464 16.6576
0.586686 1.23526 16.5467
0.309013 1.08086 17.8838
-0.941266 -0.584516 18.7008
1.02489 1.09018 8.8355
1.2952 0.84871 12.5406
-0.867681 0.249753 18.64
1.25483 -0.592919 8.09877
1.14007 -0.816659 12.5639
-0.345153 0.583463 19.5754
-0.717555 1.50604 19.9557
-0.673115 1.09069 20.9703
-0.411272 0.365975 21.5597
0.102156 -0.459241 21.2543
0.222657 -0.681005 20.886
0.121631 -0.725555 20.8089
0.815486 -0.919468 18.9257
1.80952 -3.33811 21.2149
0.49688 -0.513794 21.1985
0.0686414 0.0410807 20.2392
-0.0971931 1.07678 16.0996
-0.590868 1.24998 16.6915
-0.343795 1.02093 18.235
0.90354 -0.631343 18.5847
-1.20527 1.13638 9.97885
-1.35267 0.763369 13.0721
0.85666 0.27313 18.5261
-1.35986 -0.630683 9.66576
-1.15337 -0.986546 13.96
0.358767 0.567869 19.5985
0.791745 1.38707 19.9907
0.70108 1.02564 20.9713
0.412711 0.375199 21.5666
-0.0989627 -0.46406 21.2616
-0.223782 -0.679395 20.8864
-0.149205 -0.707184 20.8047
0.770905 -0.333773 19.774
1.37663 -0.734564 20.5601
0.498615 -0.261056 21.2523
-0.0568322 0.0678561 21.3109
-0.649466 0.401078 21.1277
-0.791566 0.399425 20.7475
-0.719373 0.210036 20.1855
0.872331 -0.218466 19.6238
1.92061 -0.554384 20.4251
0.643113 -0.245541 21.3263
-0.0791709 -0.00220093 21.3939
-0.881899 0.234469 21.1831
-0.999377 0.206053 20.8257
-0.900478 0.0810483 20.1529
0.785745 0.163583 19.5743
2.05603 0.464314 20.1573
0.917699 0.0584301 21.2593
0.0709376 -0.151254 21.4373
-0.814473 -0.310606 21.2544
-0.932642 -0.357958 20.8643
-0.841382 -0.26853 20.4242
0.418312 0.339942 19.9013
0.718799 0.601232 20.2359
0.615436 0.435167 20.8909
0.248703 0.0678879 21.2067
-0.156172 -0.278989 21.0498
-0.303182 -0.410272 20.8282
-0.293798 -0.326043 20.6198
-0.64272 -0.100304 0.768759
-0.000134508 -0.00466236 0.0508687
-0.0129819 -0.00749344 0.241163
-0.011415 -0.00240977 -0.00613502
-0.000103125 0.0142688 0.0354378
7.01127e-19 1.81948e-18 1.66962e-17
0.000132799 0.299007 0.418071
-0.059726 0.0236167 0.471339
-1.88695e-05 0.00263172 -0.00735053
0.0338119 0.0101918 0.213177
0.647491 -0.0971599 0.770064
0.0155508 -0.00841467 0.277285
0.0113786 -0.00239362 -0.00616547
0 0 0
0.0596059 0.0235382 0.470039
-0.0339792 0.0102778 0.213434
-0.00271687 0.00143168 0.137493
0 0 0
4.06657e-07 -0.00020745 0.0045344
0 0 0
0 0 0
-0.000563631 -0.000206758 0.034761
0 0 0
-6.56177e-06 -0.00895484 0.109198
0.00123587 0.000636174 0.0591835
0 0 0
7.10348e-19 -4.13988e-18 -4.34269e-17
0.000615998 -0.00022998 0.0358271
-8.36011e-05 -0.000117416 0.00211908
0 0 0
-4.25897e-18 -5.16517e-18 -9.03078e-17
3.28682e-06 -1.32235e-05 0.00108837
-8.54282e-06 0.000121083 0.0117106
7.38037e-05 0.000400114 0.0100241
0 0 0
0 0 0
5.89266e-07 0.00133849 0.014637
2.79211e-05 0.179906 0.367271
0 0 0
7.64168e-05 -0.000107906 0.00193575
-3.44312e-18 -2.31912e-19 8.65019e-17
0 0 0
-3.74859 -1.72915 20.325
-2.72571 -5.14027 21.8637
-2.63952 -2.08541 17.4586
1.3566 0.824811 15.2764
0.000955186 1.07187 8.52846
0.381163 0.74978 5.21431
-4.34147 1.50695 19.4164
-2.45304 0.989123 16.8426
-1.84748 3.07535 19.5083
1.38574 -0.447684 16.5382
0.499273 -0.447797 4.78961
0.347335 -0.813698 19.0301
2.75601 -5.19689 21.8005
2.57617 -2.22466 17.255
3.82882 -1.80695 20.2657
0.0716505 0.997128 8.12585
-0.498388 0.819447 5.78134
-1.35199 0.814521 15.426
2.43484 1.04094 16.6874
1.87973 2.87301 19.5578
4.3507 1.5167 19.4
-0.644729 -0.482321 5.67539
-0.34633 -0.811386 18.9281
-1.37466 -0.460819 16.8163
-0.522215 -0.340753 20.4299
-0.301348 -0.353649 16.271
0.143373 0.24991 19.3694
0.169279 -0.18494 14.7949
-1.26552 -0.0409653 21.4189
-1.3435 1.20507 21.2209
-0.0186339 -0.432713 19.6436
-0.728766 0.131019 21.694
0.29994 -0.352278 16.2386
0.519046 -0.334414 20.3577
-0.192643 -0.204147 14.4246
-0.133649 0.248089 19.3518
1.33962 1.14836 21.2263
1.26534 -0.0399577 21.4248
0.731156 0.139305 21.6999
0.022298 -0.433362 19.7069
-1.14761 -0.542176 20.0222
-0.790481 -0.252084 19.7615
-0.883213 -0.548813 19.4454
-0.921444 -0.502192 21.1148
-1.60694 -0.643315 20.5334
-1.90094 -1.64685 20.6921
-0.193953 -0.0842369 21.2817
-0.564302 -0.257849 21.2708
-0.506362 -0.379063 21.4832
0.367303 0.241005 21.294
0.0713928 0.0343144 21.3399
0.00932322 0.144809 21.4388
0.746069 0.42451 20.9204
0.751974 0.353516 21.1631
0.741006 0.882801 20.5906
0.725619 0.306556 20.6961
0.937437 0.328046 20.7769
0.909145 0.924861 20.2147
0.912195 0.155305 19.9128
0.615341 0.719638 20.7234
-1.39302 -0.353077 19.8405
-0.83405 -0.0364973 19.6209
-0.981886 -0.350625 19.2746
-1.26258 -0.410218 21.2171
-2.14674 -0.0778727 20.2944
-0.231848 -0.121117 21.3589
-0.801517 -0.145571 21.3215
0.517178 0.131611 21.3861
0.0488867 -0.103701 21.4771
1.03238 0.29175 20.9208
0.950472 -0.0552311 21.2224
0.931541 0.103843 20.9723
1.21863 -0.0802864 20.7608
1.54966 0.830812 17.428
1.00083 -0.107541 20.1348
1.06675 0.420493 18.5949
-1.38126 0.282522 19.6471
-0.611304 0.309211 19.7385
-0.905457 0.180653 19.1968
-1.57725 0.290528 21.0966
-1.29465 0.761612 20.1566
-0.503811 -0.0972981 21.3645
-0.857451 0.339994 21.0784
0.403526 -0.230651 21.4233
-0.244486 -0.0767522 21.3372
0.969946 -0.38961 20.9912
0.40711 -0.407692 21.1557
0.91586 -0.345259 20.886
0.575166 -0.508216 20.945
1.49302 -0.692782 17.8081
0.592139 -0.454384 20.5109
1.08792 -0.655515 17.4746
-0.593395 0.506448 19.9828
-0.418721 0.487446 19.7404
-0.756217 0.631463 20.624
-0.833816 1.05744 20.0818
-0.475551 0.261325 21.0843
-0.717829 0.738724 20.9521
-0.0220005 -0.11582 21.1883
-0.338725 0.170055 21.3488
0.268859 -0.332391 20.9938
0.149732 -0.380311 21.1826
0.341269 -0.395447 20.7166
0.325187 -0.558829 20.8592
0.344641 -0.542878 20.7742
-1.66541 -2.21551 18.9923
-0.938432 -0.766207 18.8608
-0.0464853 -1.27999 18.5013
-0.862418 -1.15862 21.92
-0.00864751 -4.19821 22.0938
-0.277145 -0.095371 20.8528
9.224e-05 -0.698247 20.4961
0.0981137 0.762915 18.3823
-0.00757669 0.00825079 18.6802
0.317706 1.20527 16.3566
-0.010154 0.545988 13.8354
0.707103 1.16114 16.9459
0.758622 1.34619 12.4461
-0.000502387 0.812423 13.7883
0.756878 0.980426 15.2071
-0.000100926 1.27249 14.2795
-0.977223 -0.15868 18.5251
-0.0638644 -0.884022 17.8864
1.29543 1.18357 11.2924
1.77767 0.377376 5.99352
-0.0269658 -0.125139 0.282655
1.97471 0.388153 10.5178
-0.0307929 0.26401 4.76051
-0.585932 0.600001 19.1575
-0.0508898 0.351855 17.954
1.6853 -0.821008 10.8731
0.503597 -1.03792 19.1788
-0.039663 -0.111465 -2.0195
0.502096 -0.952611 18.7803
-0.1604 -0.254789 4.19014
-0.544756 1.02636 19.602
0.0217543 0.728861 19.4397
-0.722763 1.43781 20.6731
0.0480839 1.94602 19.8507
-0.67453 0.861459 21.2685
0.0365924 1.52269 20.9138
-0.0782827 -0.159244 21.4879
-0.00636535 0.76432 21.8893
0.171193 -0.600163 21.0954
0.000185074 -0.499436 21.4594
0.264408 -0.691973 20.745
-0.000743007 -0.764535 21.2006
-0.00111943 -0.885315 20.6806
1.64303 -2.2996 18.9139
0.862181 -0.834638 18.7514
0.881383 -0.578619 19.3984
0.861596 -1.16347 21.9146
1.92384 -1.69493 20.6754
0.273276 -0.105819 20.7966
0.513516 -0.380892 21.4815
-0.0660413 0.73606 18.1783
0.00491763 0.149252 21.4282
-0.268713 1.18898 15.9128
-0.712944 0.941588 20.5385
-0.768288 1.14871 17.1019
-0.857781 1.33957 13.0849
-0.912888 0.915929 20.3215
-0.803249 0.906711 15.6497
-0.652158 0.669596 20.8504
0.961781 -0.179081 18.3862
0.983328 -0.38745 19.1728
-1.46975 1.25018 12.47
-1.82127 0.345422 7.33727
-1.54928 0.749315 18.2238
-1.76705 0.347219 12.3163
-1.03792 0.34099 19.4421
0.585501 0.597151 19.1623
0.906873 0.192565 19.1335
-1.83661 -0.897314 12.6482
-0.509861 -1.03362 19.4055
-1.46766 -0.663513 18.7673
-0.495202 -0.94214 19.5394
-1.06706 -0.557073 18.3242
0.564543 0.962892 19.6492
0.417408 0.449268 19.7615
0.761494 1.35192 20.6686
0.834492 0.968901 20.1009
0.673504 0.8322 21.2634
0.706168 0.696478 20.9442
0.0795127 -0.158117 21.4969
0.340778 0.172177 21.3522
-0.168103 -0.603342 21.0987
-0.149613 -0.384788 21.1942
-0.272861 -0.69065 20.7111
-0.325349 -0.556773 20.8587
-0.327781 -0.519721 20.8559
1.19259 -0.582517 19.9835
0.816191 -0.28505 19.7004
0.934496 -0.523231 21.1199
1.64494 -0.679607 20.5112
0.196519 -0.090975 21.2821
0.571826 -0.264953 21.274
-0.378562 0.243686 21.2935
-0.0687928 0.0327428 21.3468
-0.74801 0.429459 20.9273
-0.759071 0.357934 21.1476
-0.708212 0.274241 20.7035
-0.91234 0.298175 20.8055
-0.844673 0.158163 19.9777
1.43192 -0.37983 19.7771
0.850416 -0.0359777 19.5695
1.28689 -0.423471 21.2278
2.19019 -0.0759614 20.276
0.23517 -0.12201 21.3586
0.806095 -0.145078 21.321
-0.511425 0.133517 21.3677
-0.0449079 -0.103099 21.4741
-1.00277 0.266605 20.9263
-0.932658 -0.0526762 21.2387
-0.889025 0.0993505 20.9025
-1.14041 -0.075949 20.7795
-0.920982 -0.105211 20.4143
1.4034 0.297909 19.6185
0.608642 0.307342 19.7431
1.58422 0.292028 21.0957
1.26051 0.717258 20.1682
0.505301 -0.095629 21.361
0.843403 0.323633 21.0658
-0.396909 -0.225923 21.4189
0.245525 -0.0764032 21.3354
-0.933867 -0.36591 20.9902
-0.406779 -0.407957 21.1571
-0.867819 -0.320809 20.7912
-0.566255 -0.490428 20.9263
-0.586174 -0.411867 20.545
0.572985 0.471242 20.0192
0.737104 0.588807 20.6164
0.468096 0.251666 21.076
0.0224406 -0.115692 21.1901
-0.268547 -0.332176 20.994
-0.343463 -0.377743 20.7351
-1.27957 -0.455462 19.9353
-2.15909 -2.3341 18.2536
-1.55908 -1.1664 19.6194
-2.10639 -0.865711 19.0753
-0.940909 -0.488578 19.3651
-2.66776 -1.84543 20.5855
-1.10465 -0.474327 21.1735
-0.650067 -0.645847 17.8811
-1.00984 -0.882343 21.5051
-1.64939 -1.05761 21.9921
-0.543006 -0.373151 21.4233
-0.214654 -0.109452 21.3254
-0.125294 0.0336232 15.357
-0.199019 -0.0605321 21.4513
-0.0140596 0.00581262 19.5679
0.0487026 0.190358 20.902
0.441448 0.203684 21.373
-0.0129423 0.699468 9.9144
0.438513 0.589962 21.079
0.882551 0.521974 17.2303
1.06051 1.0054 18.491
0.897423 0.371006 20.9314
0.312078 1.23877 10.7295
0.845979 0.926923 20.4993
1.48841 0.827653 16.7668
1.23155 0.960044 18.7382
0.842602 0.202493 20.8224
0.99021 1.32478 14.9161
0.938121 0.887031 20.3029
1.33622 0.806906 17.0182
0.849779 0.57449 19.4261
-1.48618 -0.0747573 19.6863
-2.92956 -0.554031 16.5588
-2.00733 0.484991 18.7816
-0.995631 -0.0672109 19.1697
-4.89028 -0.265117 19.6604
-1.51211 -0.118827 21.2188
-2.50794 0.707592 21.8208
-0.853207 -0.344511 20.594
-0.339062 -0.155268 21.4172
-0.693739 -0.453418 20.4954
0.264375 -0.100573 18.0804
0.52985 -0.0747523 21.3981
0.696781 -0.374872 18.2584
1.47423 0.227697 14.1188
1.12968 -0.066919 20.9482
0.523182 0.148438 2.53793
1.48026 -0.592406 17.2756
1.82011 0.0920087 16.1612
0.948082 -0.128388 20.9549
1.88188 0.302155 9.29078
1.52744 -0.713638 17.2865
1.45186 0.0180125 18.2406
-0.96489 0.529929 19.8053
-1.1791 1.49855 18.7653
-0.633707 0.764205 19.7974
-0.640735 0.448636 19.4646
-1.76068 1.6057 19.8957
-1.19144 0.641638 20.7976
-1.46443 2.12814 21.1832
-0.837296 1.03122 20.6498
-1.1364 0.626803 21.2122
-0.593459 0.111217 21.2392
-1.64162 0.925955 21.5688
-0.5986 0.490303 21.1834
-0.440118 -0.0457099 21.6651
0.133991 -0.249941 21.307
0.0321627 -0.478138 20.6665
-0.0497169 -0.145915 21.3392
0.429135 -0.689446 21.2367
0.52166 -0.477879 21.0099
0.372281 -0.9284 19.1575
0.2446 -0.499897 21.0169
0.605279 -0.835772 20.7659
0.555283 -0.50686 20.5341
0.477246 -1.02005 18.9855
0.350382 -0.559985 20.74
0.619573 -0.698576 20.6497
2.1058 -2.45214 18.1363
-0.0501781 -3.77037 18.3248
-0.106065 -4.1375 15.0322
-0.0557521 -1.17562 18.1592
-0.0119636 -5.11506 22.4139
0.645018 -0.650316 17.8108
-0.000568804 -1.46942 21.8693
0.000183818 -0.289432 12.1676
0.112608 0.0243445 15.1627
-0.00393744 -0.259457 19.3087
-0.00765514 0.106721 11.1648
0.0406471 0.665345 9.60185
-0.000989668 0.377349 16.2481
-0.00987895 0.372183 6.00958
-0.320751 1.24479 10.7654
-0.00195396 0.560837 13.8229
0.0315073 -0.468023 0.020101
0.0142853 0.459344 6.64523
-1.10577 1.29501 15.2144
0.0125444 0.919592 14.0664
-0.0150458 0.596125 3.11682
-0.0174443 0.806417 9.54187
2.89339 -0.601906 16.3134
-0.0601429 1.77859 14.5565
-0.0745337 -0.264639 17.6901
-0.613525 0.149573 3.11962
0.00531783 0.535087 -2.30595
-0.116177 -0.465691 -3.73293
-1.87094 0.207463 11.4238
-0.105981 -0.384951 0.287415
-0.171946 -0.241331 -1.75432
1.18971 1.45864 18.8141
0.0334449 1.32309 19.4189
8.05818e-06 0.795594 18.77
0.0730476 4.32627 19.3703
1.50596 2.04315 21.1723
0.0384599 1.87339 20.6852
0.0400048 2.22892 20.8907
1.61499 0.897524 21.5965
0.0220889 1.58365 21.2701
-0.00258384 0.55924 20.0658
-0.0365758 -0.479575 20.6084
-0.00149328 -0.137529 21.6838
0.00794543 -0.676262 10.8293
-0.375849 -0.926618 19.1976
0.000314538 -0.645914 21.4501
-0.0133196 -0.956417 13.3424
-0.466925 -1.01463 19.2952
-0.00627079 -0.787934 20.9325
-0.0216007 -0.828053 14.4439
1.31792 -0.486539 19.8848
1.57567 -1.2441 19.5512
2.16196 -0.970407 18.9404
0.953691 -0.523972 19.2887
2.73602 -1.92152 20.5653
1.12282 -0.491864 21.1828
1.01851 -0.893991 21.5092
1.63962 -1.08059 21.9352
0.549003 -0.37423 21.4255
0.216107 -0.113035 21.3282
0.206105 -0.0571263 21.4543
0.0160325 0.00996676 19.5078
-0.0288983 0.194607 20.8117
-0.443341 0.212564 21.3556
-0.427204 0.632526 21.0452
-0.878705 0.530833 17.3773
-1.05461 1.0436 18.0856
-0.887694 0.362153 20.936
-0.839186 0.952697 20.4823
-1.48965 0.778705 17.3656
-1.22177 0.898275 19.002
-0.824007 0.179397 20.8473
-0.952122 0.873408 20.4353
-1.27562 0.66796 17.7369
-0.831116 0.510669 20.1179
1.54144 -0.0727141 19.6314
2.03034 0.50074 18.7049
1.00712 -0.0754337 19.0646
4.96477 -0.270408 19.6065
1.53056 -0.119356 21.2259
2.51418 0.707768 21.8184
0.85423 -0.346047 20.5605
0.342945 -0.155432 21.417
0.694577 -0.449332 20.5237
-0.259064 -0.0997377 18.1074
-0.521623 -0.0727593 21.3987
-0.689717 -0.381322 18.3876
-1.47668 0.221178 14.3395
-1.08353 -0.0633489 20.959
-1.47716 -0.596687 18.1649
-1.77334 0.0626802 17.3681
-0.922311 -0.116484 21.0028
-1.3848 -0.645529 18.1504
-1.42667 0.0951325 19.0469
0.943117 0.509445 19.8268
0.630909 0.697344 19.8226
0.638189 0.443652 19.4701
1.72124 1.48162 19.9287
1.1671 0.607026 20.7873
0.842807 0.963575 20.6444
1.11789 0.591927 21.2048
0.586349 0.106292 21.2328
0.588441 0.469263 21.176
0.443064 -0.0446425 21.6669
-0.132725 -0.249107 21.3075
0.0506956 -0.146026 21.3444
-0.427629 -0.696875 21.2242
-0.517566 -0.470591 21.0077
-0.244104 -0.503523 21.0175
-0.608845 -0.80714 20.7773
-0.549218 -0.470359 20.5745
-0.350555 -0.554149 20.75
-0.635999 -0.64908 20.6433
-1.83433 -1.07415 19.3987
-1.24519 -0.988587 21.7456
-0.138235 -0.0124303 21.0967
0.673663 0.665662 19.8861
1.14924 1.05198 18.424
1.1581 0.897289 18.471
-2.24668 -0.175418 18.7637
-2.38857 -0.259932 22.0124
-0.148363 -0.332356 18.8723
0.85477 0.0795719 16.1718
1.68997 0.135457 15.5788
1.80822 0.0447411 17.076
-1.17977 0.928885 19.3872
-1.52729 1.23402 20.9848
-0.949509 0.268586 21.4582
0.0814137 -0.385301 21.5657
0.542538 -0.789314 20.9623
0.577689 -0.823926 20.5949
-0.0863073 -4.27397 16.9621
-0.00151711 -0.585423 13.1123
-0.000889955 -0.0244765 11.436
0.00774461 0.316046 8.32818
0.00172208 0.0704995 6.11787
-0.000917825 0.795395 8.38915
-0.107804 -1.11004 13.3966
0.00813419 -0.286694 -3.62241
-0.0970008 -0.493405 -2.82375
0.0230612 2.19426 18.11
0.0483157 2.8832 21.299
0.0334222 3.74792 20.7911
0.00244661 -0.625148 12.826
-0.00326085 -0.683808 11.9731
-0.0190509 -1.08101 14.8726
1.88555 -1.16908 19.3052
1.25739 -1.01041 21.7631
0.144707 -0.00582843 21.0609
-0.678976 0.687837 19.6175
-1.14817 1.03531 18.4918
-1.11696 0.797229 19.0063
2.34671 -0.206752 18.6298
2.39947 -0.266024 21.9648
0.151717 -0.33259 18.8611
-0.8525 0.0745629 16.2689
-1.67472 0.0998205 16.4132
-1.71098 0.083754 17.8943
1.16924 0.895931 19.4181
1.49873 1.15777 20.954
0.934517 0.25832 21.4491
-0.0789615 -0.38622 21.5681
-0.544114 -0.780096 20.9615
-0.588845 -0.790511 20.5532
-0.665483 -0.334547 0.808232
-0.00926506 -0.0271366 0.158279
-0.026876 -0.00697593 0.258726
-0.00250182 -0.00131144 -0.00215914
-0.0138336 0.0155426 0.0772272
0 0 0
-0.351592 0.0767421 0.342364
-0.0720058 0.328878 0.465321
-0.262605 0.242226 1.27323
-0.00207146 -0.00068507 0.00407148
-0.00794537 0.00175888 -0.0108635
0.0154317 -0.030509 0.217185
0.00367984 -0.0103884 0.0613122
0.507572 -0.256762 0.620308
0.0247767 -0.00914136 0.244972
0.0138107 0.0153333 0.0761888
0.00834073 -0.00467312 -0.00746094
0 0 0
0.0704237 0.320562 0.454502
0.434514 0.095052 0.423042
0.263306 0.245064 1.27602
0.00789253 0.00176577 -0.0108856
0.00204189 -0.000624017 0.00416044
-0.0154959 -0.0303663 0.216639
0.00128333 -0.00230799 0.0965751
-0.00135149 -0.000737306 0.135053
-4.69116e-18 1.40878e-18 -5.92262e-17
0.000687752 -0.000744353 0.0151571
0 0 0
-0.00288001 0.00389674 0.256461
0 0 0
0 0 0
-0.0450206 -0.0140997 0.29207
-0.0149133 -0.0296587 0.374403
-0.0202573 -0.0135381 0.0798488
0 0 0
0.0324868 0.0234148 0.154442
0.00896513 0.0164289 0.196205
0.00123534 0.000902202 0.00778052
0.103328 0.0676819 0.496004
-0.00126866 -0.00225778 0.0929049
-0.000819559 -0.000874766 0.0178809
0.00113915 -0.000336391 0.101534
0 0 0
0 0 0
0 0 0
0.00343758 0.00461999 0.198605
0 0 0
0.0449905 -0.0141637 0.291303
0 0 0
0.0148889 -0.0295069 0.374045
0.0202706 -0.0135595 0.0799744
-0.03309 0.0239298 0.156963
-0.103293 0.0675939 0.496603
-0.00900661 0.0165442 0.196366
-0.00124308 0.000908686 0.00783545
-0.0902288 -0.0115889 0.424513
0 0 0
-1.45757e-05 -0.00549792 0.0800778
-9.10879e-05 -0.00364788 0.00195392
-0.00248759 -0.00197922 0.0762348
8.44961e-06 -1.37775e-05 0.000827963
0 0 0
-0.0030688 -0.000620038 -0.000375918
4.04522e-05 0.000261878 0.0143484
-6.02842e-05 -0.0102803 -0.00130354
0.00464379 0.00271816 0.0962538
-0.000391408 0.000503231 0.0126145
0 0 0
3.06731e-06 0.0276539 0.173046
-0.0157518 -0.0271735 0.220476
-0.00530291 0.00575703 0.0734962
-0.000172829 0.023544 -0.00917046
-1.70316e-07 7.10932e-05 -0.000761421
0.00775448 0.00956627 0.123528
-0.00425707 0.00115278 -0.00130635
0 0 0
0.108825 -0.0133614 0.51282
-2.8806e-06 -4.83603e-06 0.000290674
0.00245331 -0.00201178 0.076096
0.00277026 -0.000561363 -0.000338646
0 0 0
0.000489798 0.000480954 0.0120699
-0.00562442 0.00313595 0.112616
0.00588957 0.00609427 0.0797226
0.0165194 -0.0276165 0.226056
0.00389743 0.00105874 -0.00116733
-0.0077398 0.00953343 0.123494
0.00230846 0.000741078 0.047929
1.44465e-18 3.36237e-19 4.1723e-17
0 0 0
-0.000858518 -0.000289908 0.0705022
3.79153e-07 -4.82272e-07 9.01518e-05
7.35105e-09 -1.76591e-08 -2.43115e-05
0.000552931 0.000820821 0.0259946
0 0 0
-8.00624e-05 0.00120846 0.0539347
0 0 0
0.00182618 -0.0072197 0.182499
-0.754933 0.167184 1.87229
-4.25677e-07 0.000108152 0.00167266
7.92089e-05 0.000150524 0.000362141
1.9571e-05 0.00691743 0.249246
5.2329e-05 0.0109811 -0.00820234
-2.97026e-18 6.47157e-19 8.32465e-17
-0.00179907 0.000570687 0.0371558
0 0 0
0.000947492 -0.000264838 0.0862358
-0.000558127 0.00086042 0.0263942
0 0 0
0.761658 0.169685 1.88632
-0.00179684 -0.00707055 0.1788
0 0 0
-0.183956 0.00685862 0.743086