# vtk DataFile Version 2.0
tri_press
ASCII
DATASET UNSTRUCTURED_GRID
POINTS 3682 float
-0.814291 0.145 -1.665
-0.757465 0.285 1.805
-0.757655 0.745 -1.635
-0.524447 1.375 1.405
0.824832 0.145 -1.655
0.755 0.285 1.80835
0.75765 0.745 -1.635
0.524438 1.375 1.405
-0.803143 0.183872 -0.508333
-0.827437 0.187303 0.648333
-0.738845 1.01393 -0.621667
-0.666717 1.22953 0.391667
0.809141 0.18408 -0.50055
0.828567 0.188044 0.6539
0.738731 1.01382 -0.621667
0.666711 1.22954 0.391667
-1.56794 -0.386034 -2.46629
-1.57334 -0.271881 -1.59865
-1.55689 -0.244425 -0.438436
-1.53635 -0.269115 0.750682
-1.48353 -0.210834 1.91332
-1.47421 -0.115137 2.79285
-1.48746 -0.00593066 3.65029
-1.57238 -0.0103186 -2.50467
-1.57544 0.129101 -1.6524
-1.55158 0.200771 -0.519758
-1.51657 0.221683 0.62591
-1.43199 0.304093 1.76124
-1.4442 0.400685 2.63855
-1.47408 0.505164 3.50047
-1.55033 0.686655 -2.53982
-1.53018 0.818318 -1.68009
-1.49104 1.04331 -0.644925
-1.39209 1.22912 0.380059
-1.26856 1.36589 1.41766
-1.35662 1.4542 2.30019
-1.4384 1.54106 3.18468
-1.52269 1.90442 -2.70112
-1.50825 2.0652 -1.86363
-1.47968 2.33955 -0.874583
-1.43315 2.62025 0.0834274
-1.39729 2.83043 1.07336
-1.41108 2.94747 1.9127
-1.4499 3.04093 2.78182
-0.793465 -0.375966 -2.47304
-0.798453 -0.255671 -1.60953
-0.788959 -0.249288 -0.434371
-0.797736 -0.295519 0.770512
-0.770491 -0.231623 1.94634
-0.773663 -0.129022 2.81561
-0.787837 -0.0149243 3.66402
-0.802926 -0.0103911 -2.50554
-0.771243 0.391128 2.65733
-0.788452 0.499004 3.51104
-0.788495 0.654994 -2.52078
-0.703456 1.45708 2.29828
-0.769707 1.54207 3.18513
-0.771177 1.8773 -2.68234
-0.763128 2.03684 -1.8432
-0.752236 2.32569 -0.861926
-0.733569 2.62453 0.0830268
-0.719883 2.84136 1.06441
-0.736663 2.95689 1.9038
-0.769709 3.04756 2.77572
0.792128 -0.375925 -2.46633
0.813508 -0.255614 -1.6012
0.811222 -0.24906 -0.427314
0.808259 -0.294991 0.775786
0.74892 -0.231425 1.95009
0.672603 -0.128864 2.81874
0.631505 -0.0147516 3.66696
0.781424 -0.0103712 -2.49918
0.629774 0.391233 2.66002
0.60273 0.499155 3.5137
0.754034 0.655001 -2.51761
0.551393 1.45716 2.29977
0.566712 1.5422 3.18727
0.737842 1.87733 -2.67975
0.731732 2.03685 -1.84114
0.70599 2.32571 -0.860197
0.658686 2.6246 0.0845867
0.612179 2.84146 1.06597
0.593341 2.95701 1.9056
0.583096 3.04769 2.77781
1.57797 -0.385933 -2.45418
1.5971 -0.271746 -1.58508
1.58682 -0.244035 -0.426492
1.56412 -0.268343 0.759988
1.48617 -0.21033 1.9205
1.40448 -0.11476 2.7991
1.35544 -0.00556649 3.65622
1.56837 -0.0102593 -2.49331
1.59253 0.129154 -1.63933
1.57074 0.201064 -0.508603
1.5408 0.222471 0.634352
1.44549 0.304518 1.76749
1.35678 0.400997 2.64404
1.32025 0.505495 3.50592
1.53254 0.686681 -2.53263
1.53529 0.818302 -1.67443
1.49887 1.04332 -0.640157
1.40679 1.2294 0.383813
1.27458 1.36616 1.42078
1.25569 1.45445 2.30397
1.2664 1.54134 3.18921
1.49409 1.90448 -2.6956
1.48187 2.06525 -1.85896
1.44252 2.33963 -0.870563
1.37393 2.62041 0.0870567
1.30702 2.83065 1.07691
1.28218 2.94771 1.91659
1.27549 3.04121 2.7862
-0.813416 0.445 -1.67744
0.00527051 0.141201 -1.6638
-0.791521 0.181632 -1.08667
-0.736419 0.83 1.70046
-0.0012325 0.272666 1.81901
-0.769826 0.258777 1.22667
-2.5034e-06 0.790742 -1.68074
-0.763767 0.89498 -1.12833
-4.50015e-06 1.43386 1.46386
-0.61579 1.32248 0.898333
0.818496 0.445 -1.67226
0.79371 0.187817 -1.07778
0.734513 0.83 1.70147
0.768871 0.259434 1.23113
0.763416 0.894635 -1.12833
0.615791 1.32248 0.898333
-0.816811 0.184067 0.07
-0.870885 0.598899 -0.565
0.002999 0.152301 -0.504442
-0.864395 0.708418 0.52
0.000564606 0.17066 0.651117
-0.706143 1.12509 -0.115
-5.67692e-05 1.2806 -0.621667
-2.98636e-06 1.49582 0.391667
0.820724 0.184192 0.076675
0.870955 0.598949 -0.561108
0.864133 0.70879 0.522783
0.706136 1.12509 -0.115
-0.876501 0.52195 -1.1075
0.880575 0.521975 -1.10305
0.00413476 0.136984 -1.08222
-2.96363e-05 0.947626 -1.12833
0.002634 0.445 -1.93525
-0.87649 0.653659 -0.0225
0.876655 0.65387 -0.0191625
0.0017818 0.15265 0.0733375
-2.98778e-05 1.48972 -0.115
-0.854542 0.769209 1.0625
0.854647 0.769395 1.06473
-0.000333949 0.171321 1.2289
-3.74326e-06 1.48985 0.898333
-0.000618502 0.83 1.80979
-0.797699 0.295 -1.65507
-0.40451 0.141432 -1.66607
-0.780394 0.185828 -1.37583
-0.782363 0.5575 1.78815
-0.379349 0.241953 1.84888
-0.767894 0.26764 1.51583
-0.799714 0.595 -1.6704
-0.378829 0.779454 -1.66945
-0.782024 0.841303 -1.38167
-0.625132 1.1025 1.54743
-0.262226 1.43196 1.46196
-0.593632 1.37225 1.15167
0.415051 0.141209 -1.66129
0.807665 0.295 -1.64963
0.782988 0.192691 -1.36639
0.376884 0.241882 1.85063
0.781078 0.5575 1.79123
0.76647 0.267683 1.51974
0.378824 0.779295 -1.6693
0.801208 0.595 -1.66676
0.781541 0.840826 -1.38167
0.262217 1.43155 1.46155
0.624526 1.1025 1.54829
0.59379 1.37242 1.15167
-0.796288 0.183797 -0.7975
-0.810049 0.183898 -0.219167
-0.849154 0.385316 -0.536667
-0.40187 0.16449 -0.506388
-0.836676 0.184995 0.9375
-0.823432 0.184378 0.359167
-0.84988 0.445879 0.584167
-0.414838 0.176178 0.649725
-0.725758 0.928905 -0.875
-0.852181 0.830071 -0.593333
-0.721195 1.06821 -0.368333
-0.404109 1.21658 -0.621667
-0.64313 1.27788 0.645
-0.774836 0.973616 0.455833
-0.689189 1.18007 0.138333
-0.389258 1.47447 0.391667
0.803554 0.18382 -0.789163
0.407862 0.164608 -0.502496
0.815012 0.184057 -0.211938
0.849514 0.386781 -0.530829
0.837614 0.184844 0.942513
0.41614 0.176203 0.652508
0.826289 0.184474 0.365288
0.849941 0.446621 0.588342
0.725705 0.928858 -0.875
0.404034 1.2166 -0.621667
0.852274 0.830099 -0.591388
0.721191 1.06821 -0.368333
0.643132 1.27789 0.645
0.389253 1.47448 0.391667
0.774667 0.973785 0.457225
0.689198 1.18009 0.138333
-0.862823 0.483475 -1.39247
-0.405391 0.445 -1.8798
0.00470263 0.142479 -1.37301
0.00395226 0.293101 -1.83991
-0.852707 0.351791 -1.09708
-0.393693 0.142192 -1.08444
-0.845701 0.799605 1.38148
-0.368519 0.83 1.81561
-0.000783227 0.178703 1.52395
-0.000925504 0.551333 1.92389
-0.885361 0.513993 1.14458
-0.38508 0.204157 1.22778
-1.60699e-05 0.902475 -1.40454
0.00131575 0.617871 -1.87335
-0.891016 0.708465 -1.11792
-0.381898 0.915928 -1.12833
-4.1217e-06 1.47378 1.1811
-0.000311501 1.13193 1.66545
-0.722281 1.04584 0.980417
-0.307897 1.47777 0.898333
0.865239 0.483487 -1.38765
0.410565 0.445 -1.87678
0.856978 0.354896 -1.09041
0.398922 0.142227 -1.08
0.845568 0.799697 1.3831
0.366947 0.83 1.81541
0.885149 0.514414 1.14793
0.384269 0.204348 1.23001
0.891059 0.708305 -1.11569
0.381693 0.915857 -1.12833
0.722209 1.04594 0.981531
0.307894 1.47778 0.898333
-0.858332 0.413022 0.02375
-0.408366 0.166656 0.0716687
-0.871111 0.560424 -0.83625
-0.876329 0.626279 -0.29375
0.00356688 0.167998 -0.793331
0.0023904 0.152736 -0.215552
-0.871677 0.681038 0.24875
-0.856959 0.738814 0.79125
0.00117321 0.152826 0.362227
0.000115329 0.16962 0.940006
-0.829575 0.908505 -0.06875
-0.430595 1.46242 -0.115
-4.32028e-05 1.05094 -0.875
-4.33235e-05 1.45632 -0.368333
-1.64321e-05 1.49584 0.138333
-3.36481e-06 1.49549 0.645
0.858447 0.414152 0.0287562
0.41211 0.166707 0.0750062
0.870835 0.560462 -0.832081
0.876373 0.626409 -0.290135
0.87159 0.68133 0.25181
0.85687 0.739092 0.793756
0.829582 0.908574 -0.0670813
0.430586 1.46247 -0.115
-0.838425 0.323395 -1.38415
-0.869277 0.371588 -0.816875
-0.863509 0.757439 -0.855625
-0.886144 0.651732 -1.38707
0.845236 0.324948 -1.37702
0.886199 0.651652 -1.38466
0.863545 0.757344 -0.853541
0.860694 0.373205 -0.810622
-0.399102 0.14568 -1.37442
0.406987 0.145693 -1.3697
0.402496 0.165898 -0.791247
-0.396883 0.16589 -0.795416
-0.380364 0.866973 -1.3931
-0.375675 1.00182 -0.875
0.375515 1.00609 -0.875
0.380259 0.866835 -1.3931
-0.404951 0.29405 -1.80059
-0.39211 0.606436 -1.82958
0.394694 0.606436 -1.82849
0.412808 0.29405 -1.79774
-0.856127 0.397977 -0.256458
-0.855954 0.428526 0.303958
-0.805459 0.942687 0.193542
-0.844639 0.871168 -0.331042
0.8564 0.399257 -0.251037
0.844649 0.871197 -0.329234
0.805362 0.942798 0.195072
0.855955 0.429506 0.308549
-0.405121 0.165566 -0.217359
0.409989 0.165651 -0.213745
0.415331 0.169043 0.363757
-0.412797 0.169027 0.360697
-0.44933 1.40346 -0.368333
-0.411332 1.47126 0.138333
0.411315 1.47127 0.138333
0.449434 1.40379 -0.368333
-0.85063 0.480927 0.864375
-0.887459 0.535746 1.44866
-0.699316 1.07417 1.26657
-0.740766 1.00741 0.718125
0.850818 0.481416 0.868134
0.740721 1.00755 0.719378
0.699216 1.07422 1.26738
0.886915 0.535957 1.45142
-0.399258 0.178439 0.938753
0.399417 0.176547 0.941259
0.380576 0.235987 1.52185
-0.382214 0.235834 1.51989
-0.320628 1.48144 0.645
-0.285061 1.46573 1.16638
0.285055 1.46575 1.16638
0.320624 1.48144 0.645
-0.373934 0.554416 1.89846
0.371916 0.554416 1.89893
0.314582 1.11721 1.65151
-0.315372 1.11721 1.65194
-0.791419 0.22 -1.64546
-0.609401 0.141379 -1.66737
-0.772504 0.190252 -1.52042
-0.774082 0.42125 1.80074
-0.568407 0.254426 1.83599
-0.770306 0.268693 1.66042
-0.782438 0.67 -1.65645
-0.568242 0.773835 -1.66384
-0.780792 0.804104 -1.50833
-0.573517 1.23875 1.47494
-0.393336 1.41535 1.44535
-0.568727 1.38331 1.27833
0.619942 0.142836 -1.65841
0.800655 0.22 -1.63672
0.772714 0.200042 -1.51069
0.565942 0.254214 1.83872
0.771781 0.42125 1.80353
0.768725 0.268352 1.66404
0.568237 0.773851 -1.66385
0.782664 0.67 -1.65412
0.780344 0.803662 -1.50833
0.393327 1.41355 1.44355
0.573156 1.23875 1.47532
0.569031 1.38363 1.27833
-0.799879 0.183671 -0.652917
-0.806676 0.183806 -0.36375
-0.829619 0.282859 -0.5225
-0.603424 0.172347 -0.507361
-0.819923 0.198283 0.792917
-0.825197 0.186078 0.50375
-0.830606 0.320617 0.61625
-0.62392 0.176176 0.649029
-0.711067 0.950181 -0.748333
-0.796126 0.922305 -0.6075
-0.728868 1.03992 -0.495
-0.583813 1.13992 -0.621667
-0.655557 1.25434 0.518333
-0.718198 1.10029 0.42375
-0.678127 1.20498 0.265
-0.563647 1.42332 0.391667
0.806336 0.183962 -0.644856
0.60895 0.173446 -0.501523
0.812167 0.183978 -0.356244
0.830465 0.284862 -0.51569
0.820397 0.199137 0.798206
0.624863 0.177104 0.653204
0.825933 0.187754 0.509594
0.830685 0.321617 0.621121
0.711707 0.950827 -0.748333
0.58375 1.13995 -0.621667
[...]
POINT_DATA 3682
SCALARS point_scalars float 1
LOOKUP_TABLE default
-116.955
-53.7125
-52.031
-43.8159
-130.829
-54.1872
-52.2995
-45.0541
-44.2306
-41.322
-102.017
-62.0529
-43.4836
-41.8107
-101.788
-62.3708
-104.991
-113.918
-43.2207
-42.4085
-56.2628
-54.0028
-53.0031
-80.0158
-119.36
-43.8175
-41.0776
-54.0312
-47.2507
-45.3781
68.537
-101.01
-67.7315
-52.8352
-44.6154
-41.658
-40.7681
-40.124
-67.3042
-136.753
-82.3647
-50.3836
-43.7515
-42.2476
1.50085
-176.084
-43.8889
-43.5252
-52.1622
-50.454
-50.454
-0.539703
-44.4439
-44.4057
151.09
-37.515
-38.0948
10.4718
-54.7098
-119.603
-84.2007
-51.0669
-41.8829
-40.5071
6.39824
-95.9598
-43.9394
-43.5224
-52.1952
-50.0904
-45.4726
6.39824
-44.7442
-44.6942
163.582
-38.1942
-38.8335
10.244
-55.3708
-111.859
-87.9951
-51.8633
-41.6554
-39.8463
-116.125
-173.544
-41.8837
-43.0868
-56.3653
-53.1667
-52.5999
-57.6952
-159.08
-44.2487
-41.2115
-56.468
-48.2229
-45.0632
43.4151
-98.5729
-69.3079
-52.6261
-45.7409
-43.0591
-42.0093
-40.3009
-67.7947
-138.621
-82.2783
-50.9624
-44.9386
-42.1893
-93.155
-142.095
-56.6462
-43.3413
-48.1557
-44.3326
7.8467
-45.6522
-38.3133
-51.3998
-90.1459
-60.1605
-44.6023
-44.65
-45.7613
-52.0069
-41.7053
-51.436
-49.149
-47.2913
-43.7364
-81.5276
23.0769
-72.6403
-41.6657
-51.5099
-47.6392
-81.8679
-64.215
-66.0438
-71.0183
25.0919
209.08
-51.9802
-52.1869
-43.891
-119.899
-43.9445
-44.5618
-46.083
-54.7297
-39.0282
-127.444
-140.256
-86.3368
-45.7837
-49.2768
-45.1233
-40.6468
-9.8867
-61.3295
-40.1075
-39.235
-47.5441
-140.836
-116.476
-88.2133
-49.5865
-46.4502
-45.7032
-10.0729
-39.091
-61.8464
-40.0236
-41.3914
-48.3819
-62.8774
-42.6493
-46.884
-47.8969
-57.0129
-41.4409
-41.9265
-43.9934
-44.7434
-66.5932
-96.651
15.9521
-56.2813
-56.66
-70.5958
-69.6033
-62.2444
-47.9246
-42.5686
-46.7301
-57.3267
-44.0187
-41.7874
-42.2697
-42.1632
16.0202
-66.9726
-97.2913
-56.7027
-69.7831
-57.0085
-70.894
-92.7174
177.799
-95.6969
143.844
-61.2176
-70.5329
-50.5013
-38.8162
-46.2608
-42.5078
-44.9952
-47.2196
-8.57351
168.007
-66.7491
6.09788
-47.0648
-32.7513
-48.47
-54.1274
-93.8388
176.474
-63.1774
-70.5115
-51.5383
-40.2585
-45.2726
-47.3435
-68.0858
5.58148
-49.2483
-54.4068
-45.8194
-43.0703
-57.6121
-52.1486
-57.3118
-44.9435
-49.4545
-43.9669
-44.926
-45.2947
-67.8303
-118.156
55.7164
-149.168
-88.8597
-62.1467
-45.8693
-43.1459
-56.868
-52.3028
-49.717
-44.4277
-68.0969
-118.303
-91.5275
-62.1165
-58.1684
-101.484
-92.2015
-103.157
-58.3814
-60.4615
-95.6726
-95.6949
-57.4209
-57.5422
-19.2784
29.0836
28.7584
-19.5875
150.601
145.541
146.043
149.775
-46.0851
-44.6899
-62.0748
-70.1585
-46.1248
-70.4512
-62.3762
-44.9011
-44.0629
-44.1171
-43.993
-43.9194
-100.235
-84.7892
-84.9541
-100.549
-37.9839
-50.8356
-46.0169
-51.215
-38.3818
-51.7611
-47.0841
-51.7622
-46.4715
-46.7192
-45.2675
-45.0312
-60.7846
-48.0485
-48.4907
-60.9834
-42.5129
-43.2156
-36.3424
-34.8062
-141.241
-122.557
-123.716
-47.6132
-50.3598
-47.1056
-43.2318
12.0256
-69.5299
-40.479
-40.7041
-47.2266
-122.835
-108.378
-132.543
-50.599
-48.5521
-48.6354
12.1559
-43.9613
-70.0897
-41.6856
-41.6826
-48.2263
-47.4429
-42.2488
-45.2647
-46.2732
-39.6192
-41.6613
-40.9928
-43.7711
-51.6783
-87.6418
-107.521
-24.0919
-58.902
-58.7569
-66.1013
-65.917
-47.1295
-46.2634
-42.8749
-45.1336
-39.8739
-43.7014
-41.4921
-41.3173
-55.3119
-25.1679
-87.9958
-108.43
-59.2702
-66.186
-59.1021
-66.3953
-119.124
-59.9281
-134.182
134.366
-143.547
-143.897
-117.26
36.3645
-68.6903
-54.7977
-59.0889
-67.1806
-44.8132
-40.6009
-49.7379
-40.0569
-49.3504
-49.4427
-48.867
-44.6241
-43.8528
-46.4264
-46.0759
-46.5958
-2.30035
-2.50933
-21.3598
102.886
-51.9992
-41.2122
-65.1606
-12.6522
-38.3695
-38.7904
-43.3014
-34.4908
-49.1178
-53.6248
-49.9778
-53.3264
-116.774
-58.1416
-134.886
135.487
-68.9532
-49.9923
-61.345
-67.6199
-45.7682
-41.9095
-50.9671
-41.4949
-44.4579
-46.6356
-46.4609
-46.7672
-52.2599
-40.3843
-66.0414
-13.0254
-49.8132
-54.1415
-50.689
-53.7398
-42.1879
-41.6339
-44.0413
-42.126
-48.8043
-56.6838
-52.4387
-51.9415
-48.8205
-48.9118
-53.7511
-46.5009
-43.9505
-53.5161
-47.7729
-45.2678
-43.859
-43.9046
-44.7768
-44.7861
-88.2576
-75.4925
-73.9625
-99.4045
25.7867
26.3583
61.01
-36.2161
-71.9694
-72.0602
-79.9198
-66.8046
-42.0832
-41.5879
-43.9264
-42.2534
-48.7634
-56.9444
-52.3777
-52.0623
-44.2952
-54.1227
-48.1079
-45.6686
-88.6793
-75.8024
-74.2625
-99.58
-73.6385
-62.7429
-65.754
-60.3941
-74.7987
-64.5162
-67.447
-61.6455
-81.4349
-71.6152
-71.525
-64.2707
9.51235
20.5691
20.5453
39.5041
197.547
149.461
190.726
197.502
-48.3212
-52.537
-50.957
-57.6924
-48.4445
-52.6712
-51.182
-57.9257
-43.6989
-44.1293
-44.1342
-43.7255
-118.876
-142.096
-100.918
-118.965
-46.6075
-41.3078
-47.5033
-43.2166
-47.9012
-42.0915
-47.8912
-43.6802
-46.1341
-46.8551
-46.9283
-46.2193
-50.8635
-54.5623
-54.7106
-58.3148
-38.7456
-41.1135
-33.1188
-39.6073
-118.481
92.82
-120.65
18.8734
-90.9147
-92.3904
-55.094
-42.3681
-46.1536
-44.3132
-49.1362
-45.5879
-117.879
121.764
-26.9078
59.4856
-86.9492
-35.2241
-44.0318
-36.8078
-43.6723
-35.5914
-46.909
-48.3139
-121.284
34.2093
-124.547
88.8179
-90.7289
-93.263
-46.4208
-44.6537
-56.2009
-43.085
-50.1381
-45.9184
-27.2001
58.1301
-119.185
123.501
-87.8015
-35.6849
-44.2678
-36.5439
-45.2224
-38.2482
-47.9008
-48.9476
-66.5778
-57.6792
-44.6445
-42.9368
-50.1674
-46.0429
-51.599
-45.4999
-37.2658
-49.2407
-43.3579
-42.6349
-43.4293
-40.3052
-44.1426
-44.9133
-61.7557
-6.22782
-61.9792
-69.9456
-84.9156
-135.64
38.1597
-29.303
-53.603
-58.9384
-58.9665
-53.9367
-64.9644
-78.8302
-76.1457
-64.7093
-61.833
-57.3966
-51.4854
-45.5306
-44.6943
-43.0596
-49.627
-46.0084
-38.9947
-49.4483
-44.1391
-44.9345
-43.51
-42.8145
-43.6823
-40.762
-62.0637
-4.73754
38.618
-29.4624
-62.3405
-70.2569
-85.2691
-136.232
-54.085
-59.2159
-76.3129
-64.8963
-59.3532
-54.3611
-65.2588
-79.0828
-93.0846
-94.1115
152.265
171.913
-95.4754
-95.2242
137.996
137.043
-70.6627
-55.6111
-80.2558
-63.399
-51.8966
-46.7902
-41.5628
-35.3224
-45.2196
-45.1034
-42.6751
-43.0112
-37.8396
-48.3979
-48.634
-45.9663
-9.73351
-9.82313
162.045
162.953
-61.1909
-76.2727
-6.34545
17.5354
-47.5434
-47.7782
-34.0832
-33.0715
-47.2087
-49.9694
-57.2984
-51.0025
-92.4277
-96.4775
171.197
152.568
-72.3907
-57.0768
-80.199
-63.26
-47.7987
-53.0713
-42.3785
-37.1817
-38.8039
-49.2469
-48.7033
-46.1545
-76.8967
-61.2412
16.1902
-6.69381
-50.6099
-48.1813
-51.3497
-57.5355
-46.4139
-45.5451
-43.3085
-43.2674
-59.0343
-56.8966
-48.5801
-58.8611
-57.5561
-57.582
-44.7747
-44.7774
-46.5877
-54.0325
-40.718
-47.9605
-44.7147
-44.6947
-45.7376
-45.8685
-64.9873
-69.7102
-146.047
-96.9575
50.1576
49.8632
-129.6
-129.553
-88.0593
-88.1431
-61.8614
-61.9634
-46.4298
-45.699
-43.3767
-43.345
-57.0084
-57.8169
-48.6484
-59.0963
-54.3267
-46.8184
-41.1753
-48.4573
-69.9744
-65.256
-97.1178
-146.158
-120.927
-69.2119
-72.4708
-119.39
-48.3675
-51.1958
-58.0922
-50.9091
-71.2586
-60.6157
-61.795
-55.7971
-85.6518
-136.718
-74.6424
-71.8169
-130.527
-128.249
-73.7123
-70.7171
-85.7293
-72.46
-75.587
-136.011
-72.4271
-55.8913
-62.0915
-60.9163
-47.9682
-52.0136
-59.8168
-50.7854
-127.219
-117.329
-81.5778
-76.5965
-127.235
-77.0648
-81.235
-118.304
-50.0542
-52.8306
-63.9625
-62.5728
-50.0038
-63.0806
-64.1139
-52.8056
-51.8528
-23.398
5.39142
-24.668
-3.9739
55.8586
33.447
-5.93526
-6.77097
-6.62933
34.2409
55.8156
-52.5079
-24.7401
5.3037
-23.8655
-31.8932
111.046
143.191
32.3224
90.9234
84.4842
184.743
138.568
91.0732
140.914
183.939
83.9762
-38.8875
51.0939
144.369
105.299
-44.409
-44.9428
-48.8662
-48.417
-42.2874
-45.2662
-47.7603
-43.9733
-61.6767
-69.3751
-55.9381
-50.2175
-87.2872
-58.0716
-59.1751
-78.8185
-44.4985
-48.425
-48.9536
-44.8111
-87.5587
-79.1457
-59.4001
-58.3004
-61.9752
-50.4958
-56.2033
-69.6743
-42.4619
-44.0718
-47.944
-45.5646
-44.0918
-46.3459
-43.951
-42.3249
-44.1996
-42.4561
-43.9615
-46.3538
-43.0164
-44.9575
-43.9847
-42.389
-42.9661
-42.2451
-43.9334
-44.9393
-77.7388
-126.761
-143.362
-28.1584
-71.637
-79.0985
-100.796
-86.7426
-71.8969
-87.0263
-100.884
-79.1859
-77.3402
-28.2259
-143.512
-126.884
-39.028
-45.8745
-39.5149
-42.1893
-53.5122
-53.3101
-47.767
-46.9312
-44.8701
-48.3388
-46.1289
-45.3756
-56.1776
-50.1718
-47.3663
-51.711
-39.4985
-42.6083
-40.0787
-45.4499
-56.5753
-52.2984
-47.9209
-50.476
-45.9962
-46.6031
-47.8543
-49.1933
-53.9166
-47.6313
-48.7639
-54.3648
-45.0664
-44.6671
-47.7055
-48.6411
-45.165
-48.677
-47.7582
-44.7016
-46.2197
-47.8782
-46.3847
-45.7075
-45.8305
-45.1973
-46.2726
-47.7959
-61.0809
-56.1153
-58.085
-66.3402
-45.4356
-43.161
-51.0274
-50.6571
-46.2206
-51.1611
-51.2094
-43.4678
-61.429
-66.4368
-58.2064
-56.4697
-44.4339
-44.5728
-41.2332
-41.9759
-44.9294
-42.8847
-41.6411
-44.7303
-37.9771
-35.2424
-34.6951
-39.0785
-36.8402
-37.4318
-33.5044
-34.7043
-126.411
-101.307
-188.706
-50.6751
-50.8896
-52.4253
-45.1259
-1.99677
-71.3169
-41.3964
-42.0105
-45.8969
-90.827
-115.254
-160.944
-51.3371
-51.2093
-53.9136
-2.23953
-45.4376
-72.4981
-43.1419
-42.5591
-47.0271
-46.3276
-42.588
-44.7988
-45.3117
-42.9893
-40.2444
-40.734
-43.3035
-77.3582
-101.311
-116.69
-62.9412
-60.3638
-60.5503
-63.9841
-63.586
-45.0596
-45.4204
-42.1372
-44.06
-43.2103
-43.2295
-40.2057
-41.0079
-78.5851
-64.0029
-101.643
-117.073
-60.7075
-63.8889
-60.8822
-64.295
-107.163
-77.1292
-142.304
55.7863
-141.832
-142.057
-139.266
-142.875
-61.7347
-55.1986
-58.1953
-63.235
-44.0003
-41.994
-47.35
-40.8262
-48.9365
-48.6565
-51.9074
-45.2842
-43.8051
-44.52
-45.3623
-45.8213
5.57676
5.41112
-0.211513
5.57687
-47.0109
-43.0612
-60.1449
-27.0041
-38.1998
-38.3816
-40.3647
-35.4483
-50.1584
-52.4067
-50.6197
-52.5215
-104.848
-72.2457
-151.607
55.8672
-64.8869
-55.8186
-60.3311
-64.2805
-45.1045
-43.3227
-48.6577
-42.057
-44.2305
-44.9814
-45.7922
-46.0917
-47.1373
-42.7364
-60.8935
-27.2733
-50.8102
-52.9628
-51.286
-53.029
-41.4889
-41.2479
-42.9477
-41.8269
-50.0082
-53.7041
-51.253
-51.6354
-49.2005
-49.3168
-52.6857
-47.6864
-45.4733
-49.4792
-47.5192
-46.3308
-43.8634
-43.8909
-43.4962
-43.6686
-84.8226
-78.3676
-77.0236
-90.0509
24.3893
24.3226
47.297
-2.65853
-72.4954
-72.5423
-76.1322
-69.6198
-41.434
-41.3587
-43.0675
-41.9549
-50.0044
-53.8675
-51.268
-51.7286
-45.8276
-49.889
-47.9032
-46.6846
-85.1937
-78.6895
-77.3457
-90.3757
-67.9072
-63.5889
-65.0976
-62.3205
-69.8925
-65.4192
-66.6301
-63.2726
-75.3643
-71.1149
-71.1989
-67.7062
16.954
23.3737
23.4058
32.5084
204.825
194.004
202.493
205.775
-49.7465
-52.3594
-51.5634
-54.5874
-49.9072
-52.4729
-51.791
-54.7955
-43.8696
-43.8804
-43.9243
-43.8717
-120.233
-130.105
-109.63
-120.289
-44.9337
-42.5348
-46.0604
-43.7339
-46.2018
-43.3139
-46.2827
-44.0185
-46.4213
-46.1922
-46.2077
-46.0933
-52.8878
-54.6635
-54.7387
-56.4907
-38.8459
-39.8261
-36.7293
-39.1838
-121.723
-121.47
-149.943
4.79583
-127.19
-142.358
-152.231
-129.619
-99.8793
-76.4067
-88.4569
-88.7008
-46.9509
-44.4566
-52.2199
-42.8786
-48.9525
-49.8682
-47.3778
-45.1753
-45.1258
-44.5713
-47.5474
-46.2385
-42.1907
-45.5299
-95.0114
64.9794
-11.0656
-11.3321
-26.1993
3.82825
-70.4427
-57.6623
-76.0888
-46.7175
-39.9546
-39.9448
-42.2689
-37.7314
-39.7373
-38.8151
-41.1209
-36.3001
-47.9722
-47.3062
-47.6406
-48.8617
-126.657
-142.148
-152.037
-127.358
-109.122
-122.466
-161.096
-0.355997
-103.262
-77.6312
-88.8659
-90.9794
-49.1954
-50.0783
-47.6265
-45.5553
-47.5686
-45.2641
-52.9802
-43.582
-45.9171
-45.0379
-48.3531
-46.5763
-11.3529
-11.6054
-26.4446
3.83487
-40.2198
-42.5223
-97.8846
62.9914
-71.0067
-58.2687
-76.4735
-47.3633
-40.6966
-39.3142
-41.7471
-37.1575
-41.2021
-41.2318
-43.5177
-39.0555
-48.7998
-48.0147
-48.6004
-49.5597
-50.4822
-65.0571
-65.6445
-58.6833
-41.8064
-42.0425
-43.6701
-42.636
-46.1669
-47.8445
-47.9252
-46.2658
-47.1543
-48.3862
-50.0743
-46.5705
-40.3993
-54.3386
-44.8077
-54.4698
-41.4208
-41.3559
-43.0102
-42.1209
-41.3153
-42.758
-42.7873
-41.0241
-44.0162
-43.8928
-43.6971
-44.398
-46.4841
-41.5907
-57.8147
-26.7137
-74.7369
-60.6129
-64.2508
-68.7516
-101.144
-92.153
-88.5427
-129.36
2.76139
25.5092
31.9164
-4.76045
-57.5208
-54.8138
-54.8848
-58.357
-57.1051
-55.6673
-57.8691
-55.4219
-68.367
-72.9018
-67.8031
-74.3418
-67.968
-70.8216
-72.6783
-67.139
-50.703
-61.6513
-63.1277
-58.0853
-47.1629
-48.3203
-50.0377
-46.594
-42.7138
-41.9787
-43.6434
-42.7469
-45.9798
-47.7168
-47.6421
-46.1742
-40.6634
-52.8014
-47.6385
-54.3215
-44.0358
-43.9169
-43.7361
-44.4277
-41.664
-41.4979
-43.3233
-42.402
-41.647
-43.099
-43.0682
-41.4335
-46.0817
-39.8083
-58.3997
-22.0838
2.67706
25.4793
32.1341
-4.89971
-75.0465
-60.9332
-64.5334
-69.0702
-101.958
-92.6394
-88.9996
-130.217
-57.9149
-55.2801
-55.3441
-58.6383
-68.1915
-70.9595
-72.8492
-67.3235
-57.4606
-56.0611
-58.1009
-55.8228
-68.6683
-73.205
-68.0996
-74.6279
-108.449
-82.3264
-92.6266
-92.8663
168.151
180.438
164.808
186.032
-104.932
-88.1154
-95.7448
-95.6199
148.486
135.266
146.117
145.244
-59.7223
-61.9425
-64.6268
-58.9911
-68.9154
-71.3019
-74.5145
-67.0169
-50.1656
-49.0401
-52.5024
-48.0185
-39.3978
-38.5794
-40.486
-36.627
-47.1747
-45.8895
-45.8154
-45.7132
-44.5177
-40.8254
-42.7353
-42.8858
-45.8051
-42.2773
-41.5208
-47.0598
-46.9957
-47.5909
-47.8523
-46.4894
-15.999
-0.0299522
-8.50223
-8.52983
138.436
179.471
167.179
168.477
-66.0678
-66.7725
-64.2733
-70.0291
-4.28798
15.0414
-0.568005
12.009
-45.3777
-49.1146
-47.3495
-47.474
-33.565
-32.8727
-33.2178
-32.6949
-49.0796
-48.4368
-47.6448
-49.0958
-53.7976
-54.3717
-55.677
-52.5922
-109.865
-82.6841
-92.8938
-94.7735
168.719
180.037
185.776
160.923
-62.2454
-63.8533
-66.8687
-60.1872
-69.0177
-71.2812
-74.5811
-66.9552
-51.3085
-50.0205
-49.0402
-53.6107
-40.9748
-39.8092
-41.4729
-38.4428
-45.9523
-43.0022
-42.4997
-47.7392
-47.1512
-47.7028
-47.951
-46.6516
-67.1505
-68.449
-71.162
-64.7603
-4.91108
14.8282
11.2863
-0.987815
-49.8255
-49.2173
-49.7865
-48.5471
-54.1362
-54.5894
-52.9036
-55.9315
-44.5206
-47.0157
-46.2251
-45.7119
-42.6267
-43.4286
-43.1288
-43.0972
-54.5636
-59.64
-58.3117
-57.0105
-51.9767
-52.3001
-50.1052
-55.5168
-52.4684
-61.8541
-57.1225
-57.3383
-45.6212
-44.4378
-44.9364
-44.919
-48.5266
-50.3315
-47.9065
-51.332
-44.6327
-43.333
-42.4147
-45.8898
-46.2065
-44.3967
-44.9494
-44.9473
-45.152
-45.702
-45.5589
-45.6929
-71.9402
-61.7236
-66.3855
-69.1262
-113.52
-118.072
-131.724
-105.761
63.3431
46.4688
54.0458
54.2618
-99.9067
-149.109
-146.258
-146.396
-84.3116
-94.2334
-88.6987
-88.7421
-64.397
-60.2063
-62.092
-62.1439
-44.5254
-47.1036
-46.2325
-45.8231
-42.7334
-43.4763
-43.1997
-43.1737
-54.2857
-59.7799
-56.7116
-57.2393
-52.1104
-52.4672
-50.2138
-55.724
-48.8245
-50.5761
-51.62
-48.1559
-45.0779
-43.8152
-42.8778
-46.3654
-72.2285
-61.9658
-69.3989
-66.6545
-113.75
-118.193
-105.939
-131.879
-103.319
-91.0569
-91.692
-79.3363
-64.6782
-55.1265
-59.4346
-59.6724
-59.3989
-59.7183
-58.4809
-57.4753
-113.207
-96.6168
-97.7291
-86.0739
-103.755
-91.3804
-92.543
-81.4308
-114.512
-97.9504
-100.399
-86.5649
-59.3027
-60.289
-58.218
-57.7469
-61.5471
-53.3565
-60.6017
-58.2807
-104.988
-94.6954
-96.0517
-87.1758
-104.773
-94.8117
-95.9168
-87.168
-57.2498
-53.0477
-61.313
-57.5617
-57.58
-53.0323
-61.3921
-57.614
-25.9622
-27.1116
-13.2135
-12.8741
14.552
34.1509
23.8136
41.3918
13.6789
35.2726
21.0821
40.582
-26.3115
-27.5202
-13.4043
-13.1932
129.252
139.505
154.336
145.21
124.525
116.757
151.904
156.436
115.37
124.753
160.004
152.287
139.759
124.872
145.46
152.695
-45.0564
-46.0016
-46.2893
-47.246
-43.9387
-44.0954
-45.1954
-45.4726
-60.7427
-63.5329
-57.6505
-63.7286
-70.2658
-78.3091
-63.4685
-70.1054
-45.1134
-46.0496
-46.3513
-47.2903
-70.5374
-78.6001
-63.735
-70.4012
-61.04
-63.8272
-57.9519
-63.995
-44.2076
-44.303
-45.3641
-45.6874
-43.5379
-44.7222
-43.6268
-44.4914
-44.7616
-43.622
-44.5141
-43.6884
-44.3184
-43.4456
-44.3616
-43.6589
-43.3408
-44.2953
-43.5919
-44.3185
-95.893
-52.0327
-136.283
-116.249
-82.0291
-80.2285
-90.193
-86.5351
-80.3932
-82.2348
-86.6609
-90.3547
-51.8331
-96.046
-116.325
-136.879
-36.4003
-39.2052
-36.9109
-39.2229
-51.9011
-50.2881
-51.0535
-49.1877
-45.046
-46.3426
-45.9825
-46.5545
-52.2362
-52.6182
-50.4278
-50.4058
-37.09
-39.6858
-37.4236
-39.6931
-52.7405
-53.1172
-51.0104
-50.9288
-46.1695
-47.3769
-47.0499
-47.5823
-52.4731
-51.1568
-52.3149
-50.1493
-47.0867
-45.61
-48.1423
-46.0515
-47.3628
-45.5699
-48.5068
-46.2535
-45.2071
-45.359
-45.5357
-46.013
-44.9675
-45.0791
-45.41
-45.8158
-60.1492
-62.6732
-59.0017
-61.4837
-46.0844
-48.2877
-47.7969
-49.5435
-46.6079
-48.8379
-48.1402
-49.9328
-60.3905
-62.8648
-59.2191
-61.6336
-42.4845
-44.6081
-41.5003
-42.9042
-44.8511
-43.1636
-43.2159
-42.3055
-36.3427
-37.3725
-35.229
-36.6241
-35.8261
-35.1138
-34.8503
-33.8906
-157.542
-65.5126
-168.185
-100.131
-123.957
-123.903
-56.5115
-45.025
-48.256
-45.4179
-51.2482
-46.13
-83.3655
55.6189
-45.6657
57.1327
-79.8889
-57.2318
-43.1966
-38.0195
-42.9554
-38.0105
-45.7535
-46.5464
-157.753
-100.85
-171.211
-80.8009
-129.372
-126.165
-48.6239
-45.9197
-56.75
-45.5754
-53.2178
-46.6532
-45.9148
57.3599
-83.7475
54.629
-80.0602
-57.9261
-43.8115
-39.1604
-44.3763
-39.1987
-46.8545
-47.4779
-47.3292
-48.7654
-42.7846
-43.5604
-46.5873
-44.6006
-47.9384
-45.0153
-38.1781
-43.7757
-42.629
-42.5326
-41.5977
-40.2802
-43.1416
-44.4118
-65.0948
-30.5078
-80.7428
-88.1663
-94.6677
-125.383
-11.181
-48.4907
-57.6626
-59.449
-60.1844
-57.5494
-63.9649
-68.3876
-68.6156
-63.3643
-47.1745
-48.8906
-47.9568
-45.1168
-43.4361
-43.7207
-46.3136
-44.4749
-38.5999
-43.8737
-43.1099
-44.3783
-42.6402
-42.5243
-41.8407
-40.7281
-67.5517
-31.6468
-11.2603
-48.0055
-81.6682
-88.3812
-94.9076
-126.05
-58.0435
-59.8235
-68.8774
-63.6546
-60.5
-57.9289
-64.267
-68.6734
-152.312
44.9765
-127.744
68.2117
-125.857
-136.544
122.47
143.527
-144.197
-146.748
-143.908
-144.708
-117.415
-117.271
59.5141
59.2759
-68.1594
-72.7981
-48.1645
-62.3319
-62.9769
-56.9256
-70.9297
-65.2741
-49.5448
-42.603
-43.6153
-38.5727
-51.0547
-47.2289
-41.1253
-38.6616
-48.2915
-45.0158
-48.3848
-45.2
-49.1223
-49.1429
-44.6594
-44.8572
-45.816
-42.7304
-48.4365
-47.539
-45.46
-46.6891
-47.3119
-45.6033
-12.2427
8.05137
-12.7234
7.25356
-22.0459
-22.0976
101.281
100.508
-67.799
-34.23
-54.6259
-21.7385
-61.392
-68.8509
-17.8923
-8.85815
-40.3462
-35.6269
-40.7481
-36.0788
-43.0594
-43.2224
-34.7544
-34.4689
-48.7849
-50.422
-52.5941
-55.119
-49.1749
-50.8
-54.6687
-51.9643
-158.285
45.456
-132.855
67.222
-132.36
-136.156
144.323
120.717
-69.4762
-73.8603
-47.9764
-60.6732
-65.2591
-57.5865
-72.0739
-64.9622
-50.6466
-43.4808
-44.8647
-39.9111
-48.4746
-52.1971
-42.257
-40.316
-46.18
-43.4688
-45.5903
-47.4941
-45.8261
-47.2953
-47.4404
-45.8229
-68.2806
-34.8708
-54.5639
-21.5579
-69.7077
-61.9101
-9.40853
-18.2808
-49.5795
-50.9939
-53.1549
-55.5526
-51.4478
-49.9597
-52.4192
-55.0504
-43.5749
-42.0533
-43.2488
-41.8801
-45.0738
-43.6951
-42.1826
-42.1313
-49.3636
-48.5006
-55.2533
-57.4657
-51.6667
-53.636
-49.9275
-54.6736
-51.3737
-47.5158
-51.408
-47.5232
-53.0244
-53.3975
-46.4928
-46.505
-44.7388
-43.0337
-49.5187
-53.3446
-46.4707
-48.5647
-43.5245
-47.3522
-43.579
-44.2257
-43.6223
-44.2534
-44.8677
-44.882
-44.7238
-44.7958
-82.1815
-103.715
-72.162
-80.9161
-71.53
-76.4252
-110.072
-90.438
42.2705
0.877015
42.591
0.706918
60.5635
60.5117
-32.2547
-32.2888
-75.3618
-69.0356
-75.4479
-69.1299
-79.7308
-79.7752
-66.7213
-66.7701
-43.4463
-42.1754
-43.3603
-42.0323
-44.671
-43.6725
-42.3002
-42.2515
-49.1468
-48.4934
-55.5042
-57.6886
-53.7505
-51.424
-50.017
-54.852
-45.0468
-43.4023
-50.0364
-53.5276
-48.9213
-46.7922
-43.9282
-47.7181
-82.569
-104.137
-72.4662
-81.2132
-76.7309
-71.8295
-90.7139
-110.405
-73.1708
-73.9582
-66.317
-61.2069
-63.5769
-68.8805
-59.209
-61.6949
-74.2114
-75.319
-68.3573
-62.1705
-70.4487
-64.1943
-62.3392
-60.9853
-81.4304
-81.4597
-75.6399
-67.6617
-76.1147
-67.5267
-63.8948
-64.0722
8.21818
8.17766
13.1357
26.3347
26.3414
13.0823
37.5957
39.1127
187.312
195.388
149.022
148.28
189.175
189.112
195.077
186.458
-48.6632