# vtk DataFile Version 2.0
tet_velo
ASCII
DATASET UNSTRUCTURED_GRID
POINTS 29498 float
-0.625 0.335 -2.45075
-0.705 0.375 2.44521
-0.715 0.795144 -2.255
-0.695 0.915 2.37002
0.625 0.335 -2.45075
0.705 0.375 2.44521
0.715 0.795143 -2.255
0.695 0.915 2.37002
-0.694756 0.305244 -0.818764
-0.73708 0.30292 0.813223
-0.825456 0.952219 -0.713327
-0.80319 0.976572 0.828347
0.694756 0.305244 -0.818764
0.73708 0.30292 0.813223
0.825487 0.952249 -0.713327
0.803199 0.97658 0.828347
-1.37049 -0.00387398 -3.76674
-1.37285 0.0319647 -2.49732
-1.4269 0.012326 -0.863
-1.4602 0.00184556 0.789498
-1.44261 0.0449564 2.42535
-1.43806 0.0669881 3.70227
-1.44407 0.0779717 4.9653
-1.37144 0.273266 -3.70133
-1.37913 0.329368 -2.44178
-1.45037 0.325847 -0.825032
-1.47504 0.311452 0.799846
-1.43227 0.343336 2.41833
-1.43195 0.363555 3.69397
-1.44322 0.375565 4.95995
-1.41274 0.798353 -3.54517
-1.45713 0.853762 -2.28188
-1.5489 0.955384 -0.726704
-1.53355 0.963449 0.822079
-1.44501 0.926463 2.37899
-1.44219 0.94517 3.65837
-1.45515 0.967553 4.93891
-1.45653 1.69276 -3.37883
-1.48584 1.75905 -2.12907
-1.53128 1.85854 -0.603173
-1.54783 1.90306 0.903261
-1.52862 1.89181 2.4301
-1.51055 1.88576 3.68184
-1.50221 1.89378 4.95252
-0.657877 -0.0023255 -3.77257
-0.648169 0.035855 -2.50582
-0.690689 0.00161568 -0.86186
-0.7269 -0.00400959 0.800915
-0.719697 0.0615366 2.44531
-0.715019 0.0777787 3.71581
-0.718489 0.0826238 4.97314
-0.65209 0.268645 -3.70313
-0.709694 0.374037 3.70514
-0.717939 0.379273 4.96586
-0.681249 0.773055 -3.534
-0.715209 0.942614 3.65657
-0.727654 0.966267 4.93853
-0.710797 1.67729 -3.36779
-0.729105 1.74545 -2.11691
-0.768062 1.85727 -0.595839
-0.793413 1.90688 0.902381
-0.787812 1.8907 2.42382
-0.774338 1.88253 3.67556
-0.767339 1.89093 4.94796
0.70287 -0.00232172 -3.77257
0.67545 0.035857 -2.50582
0.713036 0.00161719 -0.86186
0.733727 -0.00400873 0.800915
0.713324 0.0615372 2.44531
0.71926 0.0777798 3.71581
0.725536 0.082626 4.97314
0.701064 0.268648 -3.70313
0.715318 0.374037 3.70513
0.722846 0.379275 4.96586
0.733368 0.773059 -3.534
0.709299 0.942615 3.65657
0.71612 0.966269 4.93853
0.76994 1.6773 -3.36779
0.777236 1.74546 -2.11691
0.771623 1.85728 -0.595839
0.738006 1.90689 0.902381
0.705528 1.89071 2.42382
0.699901 1.88254 3.67556
0.701347 1.89093 4.94796
1.40282 -0.00386428 -3.76674
1.38311 0.0319738 -2.49732
1.43481 0.0123342 -0.863
1.46734 0.00184981 0.789498
1.4466 0.0449588 2.42535
1.44567 0.0669914 3.70227
1.45169 0.0779761 4.9653
1.40007 0.273275 -3.70133
1.3709 0.329379 -2.44178
1.44356 0.325859 -0.825032
1.47874 0.311457 0.799846
1.44044 0.343337 2.41833
1.44039 0.363557 3.69397
1.44825 0.375569 4.95995
1.44417 0.798365 -3.54517
1.45038 0.853778 -2.28188
1.53996 0.955416 -0.726704
1.53115 0.963462 0.822078
1.44525 0.926467 2.37899
1.43718 0.945174 3.65837
1.44344 0.967558 4.93891
1.50503 1.69278 -3.37883
1.51948 1.75907 -2.12907
1.52767 1.85856 -0.603173
1.4991 1.90307 0.90326
1.45776 1.89182 2.4301
1.44232 1.88577 3.68184
1.43866 1.89379 4.95252
-0.710335 0.565072 -2.39321
0 0.337488 -2.44826
-0.674034 0.305966 -1.63476
-0.733029 0.645 2.44064
0 0.369681 2.45053
-0.756274 0.303726 1.62922
0 0.888677 -2.34853
-0.795068 0.898521 -1.48416
0 0.958414 2.41343
-0.772813 0.969503 1.59918
0.71039 0.565072 -2.39327
0.674034 0.305966 -1.63476
0.732881 0.645 2.4405
0.75683 0.30317 1.62922
0.79507 0.898522 -1.48416
0.772818 0.969508 1.59918
-0.715254 0.304746 -0.00277007
-0.896446 0.628732 -0.766045
3.55614e-08 0.312545 -0.818764
-0.889516 0.639746 0.820785
0 0.312935 0.813223
-0.819203 0.969275 0.0575099
1.52045e-05 1.23202 -0.713327
4.24629e-06 1.44201 0.828347
0.715197 0.304803 -0.00277007
0.896494 0.628746 -0.766045
0.889518 0.63975 0.820785
0.819206 0.969278 0.0575099
-0.837658 0.596902 -1.55946
-0.894118 0.634239 0.0273699
-0.868493 0.642373 1.6142
1.77807e-08 0.313649 -1.63476
1.77807e-08 0.31268 -0.00277007
0 0.329579 1.62922
0 0.565072 -2.55017
0 0.645 2.50418
7.60224e-06 0.973619 -1.48416
9.72539e-06 1.44199 0.0575099
2.12315e-06 1.06378 1.59918
0.83767 0.596909 -1.55946
0.894119 0.634248 0.0273699
0.868485 0.642375 1.6142
-1.00207 0.332184 -2.44627
-0.636584 0.185427 -2.47829
-0.638545 0.301822 -3.07694
-1.06864 0.359168 2.43177
-0.712348 0.218268 2.44526
-0.707347 0.374518 3.07517
-1.08607 0.824453 -2.26844
-0.698124 0.7841 -2.8945
-0.722053 1.2703 -2.18595
-1.07 0.920732 2.3745
-0.705105 0.928807 3.0133
-0.741406 1.40285 2.39692
0.650225 0.185429 -2.47829
0.663032 0.301824 -3.07694
0.997952 0.33219 -2.44627
0.709162 0.218269 2.44526
0.710159 0.374519 3.07517
1.07272 0.359169 2.43177
0.724184 0.784101 -2.8945
0.746118 1.2703 -2.18595
1.08269 0.824461 -2.26844
0.70215 0.928807 3.0133
0.700264 1.40285 2.39692
1.07013 0.920733 2.3745
-1.07257 0.315546 -0.821898
-0.692722 0.15343 -0.840312
-1.10606 0.307186 0.806535
-0.73199 0.149455 0.807069
-1.18718 0.953802 -0.720015
-0.796759 1.40474 -0.654583
-1.16837 0.97001 0.825213
-0.798302 1.44172 0.865364
0.703896 0.153431 -0.840312
1.06916 0.315552 -0.821898
0.735403 0.149456 0.807069
1.10791 0.307188 0.806535
0.798555 1.40476 -0.654583
1.18272 0.953832 -0.720015
0.770603 1.44173 0.865364
1.16717 0.970021 0.825213
-1.37167 0.0140453 -3.13203
-1.37097 0.134696 -3.73404
-1.01418 -0.00309974 -3.76965
-1.39988 0.0221454 -1.68016
-1.37599 0.180667 -2.46955
-1.01051 0.0339098 -2.50157
-1.44355 0.0070858 -0.036751
-1.43864 0.169087 -0.844016
-1.0588 0.00697086 -0.86243
-1.45141 0.023401 1.60742
-1.46762 0.156649 0.794672
-1.09355 -0.00108201 0.795207
-1.44034 0.0559723 3.06381
-1.43744 0.194146 2.42184
-1.08115 0.0532465 2.43533
-1.44106 0.0724799 4.33379
-1.435 0.215271 3.69812
-1.07654 0.0723834 3.70904
-1.44364 0.226768 4.96263
-1.08128 0.0802978 4.96922
-1.37529 0.301317 -3.07156
-1.39209 0.535809 -3.62325
-1.01177 0.270955 -3.70223
-1.41475 0.327608 -1.63341
-1.41813 0.591565 -2.36183
-1.46271 0.318649 -0.0125925
-1.49964 0.640616 -0.775868
-1.45366 0.327394 1.60909
-1.50429 0.63745 0.810963
-1.43211 0.353445 3.05615
-1.43864 0.634899 2.39866
-1.43758 0.36956 4.32696
-1.43707 0.654362 3.67617
-1.07082 0.368796 3.69955
-1.44918 0.671559 4.94943
-1.08058 0.377419 4.96291
-1.43493 0.826058 -2.91353
-1.43463 1.24556 -3.462
-1.04699 0.785704 -3.53959
-1.50302 0.904573 -1.50429
-1.47149 1.30641 -2.20548
-1.54122 0.959417 0.0476874
-1.54009 1.40696 -0.664938
-1.48928 0.944956 1.60053
-1.54069 1.43325 0.86267
-1.4436 0.935817 3.01868
-1.48681 1.40914 2.40455
-1.44867 0.956362 4.29864
-1.47637 1.41546 3.6701
-1.0787 0.943892 3.65747
-1.47868 1.43067 4.94572
-1.0914 0.96691 4.93872
-1.47119 1.72591 -2.75395
-1.08367 1.68503 -3.37331
-1.50856 1.8088 -1.36612
-1.10747 1.75225 -2.12299
-1.53956 1.8808 0.150044
-1.14967 1.8579 -0.599506
-1.53823 1.89743 1.66668
-1.17062 1.90497 0.902821
-1.51958 1.88878 3.05597
-1.15822 1.89126 2.42696
-1.50638 1.88977 4.31718
-1.14244 1.88415 3.6787
-1.13477 1.89236 4.95024
-0.653023 0.0167647 -3.13919
-0.654983 0.13316 -3.73785
0.0224967 -0.00232361 -3.77257
-0.669429 0.0187353 -1.68384
0.0136406 0.035856 -2.50582
-0.708794 -0.00119695 -0.0304723
0.0111735 0.00161644 -0.86186
-0.723298 0.0287635 1.62311
0.00341353 -0.00400916 0.800915
-0.717358 0.0696576 3.08056
-0.00318627 0.0615369 2.44531
-0.716754 0.0802013 4.34448
-0.712356 0.225908 3.71047
0.00212054 0.0777792 3.71581
-0.718214 0.230948 4.9695
0.00352362 0.0826249 4.97314
-0.666669 0.52085 -3.61857
0.0244867 0.268646 -3.70313
-0.713816 0.376655 4.3355
-0.712451 0.658325 3.68085
0.00281235 0.374037 3.70514
-0.722796 0.67277 4.95219
0.00245326 0.379274 4.96586
-0.696023 1.22517 -3.4509
0.0260595 0.773057 -3.534
-0.721431 0.95444 4.29755
-0.744774 1.41257 3.66607
-0.00295485 0.942614 3.65657
-0.747496 1.4286 4.94324
-0.00576684 0.966268 4.93853
-0.719951 1.71137 -2.74235
0.0295716 1.6773 -3.36779
-0.748583 1.80136 -1.35637
0.0240657 1.74545 -2.11691
-0.780737 1.88207 0.153271
0.00178077 1.85727 -0.595839
-0.790613 1.89879 1.6631
-0.0277033 1.90688 0.902381
-0.781075 1.88662 3.04969
-0.0411423 1.8907 2.42382
-0.770839 1.88673 4.31176
-0.0372183 1.88253 3.67556
-0.0329959 1.89093 4.94796
0.68916 0.0167676 -3.13919
0.701967 0.133163 -3.73785
1.05285 -0.003093 -3.76965
0.694243 0.0187371 -1.68384
1.02928 0.0339154 -2.50157
0.723381 -0.00119577 -0.0304723
1.07392 0.00697567 -0.86243
0.723526 0.0287642 1.62311
1.10054 -0.00107946 0.795207
0.716292 0.0696585 3.08056
1.07996 0.053248 2.43533
0.722398 0.0802029 4.34448
0.717289 0.225909 3.71047
1.08247 0.0723856 3.70904
0.724191 0.23095 4.9695
1.08861 0.0803011 4.96922
0.717216 0.520853 -3.61857
1.05057 0.270962 -3.70223
0.719082 0.376656 4.3355
0.712309 0.658326 3.68085
1.07786 0.368797 3.69955
0.719483 0.672772 4.95219
1.08555 0.377422 4.96291
0.751654 1.22518 -3.4509
1.08877 0.785712 -3.53959
0.71271 0.954442 4.29755
0.7046 1.41258 3.66607
1.07324 0.943895 3.65747
0.708733 1.4286 4.94324
1.07978 0.966914 4.93872
0.773588 1.71138 -2.74235
1.13749 1.68504 -3.37331
0.77443 1.80137 -1.35637
1.14836 1.75227 -2.12299
0.754815 1.88208 0.153271
1.14965 1.85792 -0.599506
0.721767 1.8988 1.6631
1.11855 1.90498 0.90282
0.702715 1.88662 3.04969
1.08164 1.89126 2.42696
0.700624 1.88673 4.31176
1.07111 1.88415 3.6787
1.07 1.89236 4.95024
1.39297 0.0140547 -3.13203
1.40145 0.134706 -3.73404
1.40896 0.022154 -1.68016
1.37701 0.180677 -2.46955
1.45107 0.00709198 -0.0367511
1.43918 0.169097 -0.844016
1.45697 0.0234043 1.60742
1.47304 0.156653 0.794672
1.44614 0.0559751 3.06381
1.44352 0.194148 2.42184
1.44868 0.0724838 4.33379
1.44303 0.215274 3.69812
1.44997 0.226773 4.96263
1.38549 0.301327 -3.07156
1.42212 0.53582 -3.62325
1.40723 0.327619 -1.63341
1.41064 0.591579 -2.36183
1.46115 0.318658 -0.0125926
1.49176 0.640638 -0.775868
1.45959 0.327397 1.60909
1.50495 0.637459 0.810962
1.44042 0.353447 3.05615
1.44285 0.634902 2.39866
1.44432 0.369563 4.32696
1.43879 0.654366 3.67617
1.44585 0.671564 4.94943
1.44727 0.826072 -2.91353
1.4746 1.24557 -3.462
1.49517 0.904597 -1.50429
1.48493 1.30643 -2.20548
1.53556 0.959439 0.0476873
1.53382 1.40699 -0.664939
[...]
POINT_DATA 29498
VECTORS point_vectors float
-2.01693 -4.36568 7.99805
0.0880556 0.181201 0.554929
-2.82561 1.88327 4.79166
0.00299205 -0.119069 0.329573
2.04102 -4.35906 7.96536
-0.0770604 0.168712 0.530601
2.82526 1.88138 4.79095
-0.0176873 -0.0935808 0.309796
-0.000121718 -6.62433e-06 0.010382
-0.000275675 5.47309e-05 0.00703937
-0.00248732 -0.00184384 0.0887892
0 0 0
0.000105208 -4.37396e-06 0.00863187
0.000271217 5.41955e-05 0.0069845
0.00251285 -0.00183681 0.0890683
0 0 0
-0.406323 -0.184747 19.8089
-1.26592 -0.78016 20.2107
-0.520126 -0.557527 21.2666
0.036923 -0.0629264 21.4425
0.622532 0.355809 21.3209
0.874527 0.310929 20.735
1.0142 0.391346 20.5763
-0.488109 -0.148092 19.7293
-1.70459 -0.646164 20.1472
-0.744501 -0.642501 21.3484
0.070888 -0.124031 21.5639
0.873854 0.247141 21.2995
1.15943 0.186511 21.0266
0.772159 0.140104 21.3178
-0.616545 0.0381297 19.6584
-1.81423 0.124558 20.2513
-1.19099 -0.258264 21.3088
-0.0820013 -0.234727 21.6501
0.864202 -0.309267 21.4167
1.2236 -0.279128 20.792
0.785108 -0.256164 20.1793
-0.476115 0.311374 19.8759
-0.918753 0.588386 20.3262
-0.922924 0.38539 21.1394
-0.200609 -0.0737594 21.503
0.289033 -0.382133 21.2482
0.470149 -0.419369 20.8816
0.415089 -0.37057 20.9792
-0.325654 -0.349585 19.4471
-1.77244 -3.37187 19.9516
-0.151051 -0.480144 21.1493
-0.0390924 0.0974676 20.2705
0.132711 1.15559 18.3273
0.631755 1.4076 18.3651
0.391327 1.15197 18.5932
-0.399074 -0.297006 19.2247
1.02099 1.52453 11.543
1.60702 0.92668 13.2392
-0.600793 0.104809 18.9417
1.86468 -0.0751126 9.93802
1.08427 -0.208657 14.3046
-0.422505 0.605744 19.5129
-0.969199 1.55515 20.129
-1.43703 1.67966 21.2928
-0.29007 0.046704 21.9483
0.188981 -0.670464 21.5072
0.393676 -0.883627 20.2824
0.483492 -0.78967 20.5076
0.329923 -0.328102 19.4804
1.82288 -3.21561 19.942
0.148121 -0.498151 21.219
0.0347758 0.100328 20.3172
-0.122378 1.10058 18.2157
-0.581628 1.32162 18.2442
-0.740024 1.0311 17.4346
0.433893 -0.281218 19.2515
-0.864111 1.46083 11.2182
-1.33348 0.905975 13.1119
0.630966 0.101466 18.987
-1.79511 0.0564158 9.73998
-0.691676 -0.108434 14.0851
0.441612 0.587267 19.5413
1.00379 1.47048 20.1444
1.43727 1.67165 21.2919
0.285839 0.0672205 21.9792
-0.16659 -0.687029 21.5753
-0.376625 -0.893378 20.2873
-0.585007 -0.741524 20.4218
0.404346 -0.184716 19.8223
1.2486 -0.770105 20.2131
0.518104 -0.556834 21.2612
-0.0352138 -0.0687192 21.4229
-0.607828 0.338631 21.3147
-0.845522 0.355897 20.9163
-0.906366 0.296304 20.0189
0.474533 -0.138124 19.7482
1.73827 -0.672656 20.1494
0.743602 -0.648377 21.3508
-0.0687144 -0.12526 21.5527
-0.843223 0.232427 21.3065
-1.05077 0.281898 20.785
-0.919366 0.0892256 20.3413
0.606999 0.0367876 19.6774
1.83012 0.131719 20.2452
1.20027 -0.260249 21.3115
0.0783107 -0.232238 21.648
-0.855481 -0.283105 21.348
-1.18674 -0.322299 20.7596
-0.938173 -0.143161 20.3243
0.465888 0.297554 19.8947
0.904634 0.563711 20.3351
0.923781 0.390187 21.1396
0.21032 -0.0682655 21.5277
-0.29689 -0.405479 21.2504
-0.511964 -0.40311 20.8243
-0.495327 -0.43258 20.9465
-2.22156 0.0201594 2.11482
-8.90165e-05 -0.192292 0.62499
0.014174 -0.00276395 0.174159
0.0924557 -0.0236996 0.233575
-0.0120926 0.0238881 0.135013
-0.0342397 0.0435142 0.583153
0.000595763 0.328776 1.07937
-0.394513 -0.159914 1.32228
-0.00771252 0.0437884 -0.0927039
0.0617162 0.0159147 0.23128
2.24559 0.0150393 2.13561
-0.0140434 -0.0027567 0.173494
-0.0838624 -0.0192366 0.214936
0.0333845 0.0443349 0.608641
0.394518 -0.160099 1.32311
-0.0641793 0.0178099 0.232113
0 0 0
-0.00206463 -0.00725523 0.257189
1.86686e-06 -1.08678e-05 0.0134908
0.000935945 0.00611374 0.0427871
-2.16671e-05 2.11532e-05 0.0174142
0.00561886 0.0121564 0.0442997
-3.78934e-05 0.0297497 0.0517656
-1.59567e-07 -0.000145277 0.00189183
0 0 0
0.00206998 -0.0073552 0.258588
-0.000588231 0.0042901 0.0296175
-0.00561297 0.0121629 0.0443762
-0.000296608 -0.000946752 0.00990531
-4.09905e-05 0.0071007 0.0524916
0.00549036 0.0111212 0.0830475
1.44496e-07 8.81614e-08 -6.16932e-05
-1.90513e-06 -6.23917e-06 0.00243567
-0.000180736 0.000945354 0.0441039
0.0738655 0.175715 0.278032
0 0 0
-1.73556e-08 0.000190148 0.00416305
0 0 0
0 0 0
0.000316188 -0.0010158 0.0105305
4.1112e-05 0.00707734 0.052388
-0.0051437 0.0107059 0.077909
-3.36785 -1.82566 19.7761
-2.85207 -5.39434 19.8169
-1.27801 -1.04314 18.133
1.21525 0.98095 18.1815
-0.043049 1.1869 11.5613
0.491754 1.23987 8.35719
-3.67666 0.573393 20.1381
-2.21872 0.713762 17.3701
-2.11074 2.6217 20.0692
1.41486 -0.0380393 17.6557
0.917459 -0.0116709 6.08798
0.875341 -0.610391 15.4455
2.92517 -5.2753 19.7814
1.30904 -1.01114 18.1831
3.40255 -1.85926 19.7687
0.0548367 1.12092 11.3403
-0.386748 1.14957 8.14449
-1.16903 0.953085 18.2335
2.22638 0.694597 17.5004
2.13335 2.50913 20.0722
3.71642 0.589531 20.1439
-0.870887 0.203905 5.82884
-0.91968 -0.582023 14.331
-1.3998 -0.00421234 17.6022
-0.51312 -1.01658 20.256
0.288925 -0.190127 15.093
0.0774898 0.212099 19.0011
-0.124201 0.127973 13.704
-1.99203 -0.758955 21.4356
-3.75871 2.11455 21.2839
0.0904535 -0.295095 19.8092
0.0510949 0.147822 17.362
-0.280761 -0.207195 15.2628
0.504173 -1.01345 20.1383
0.122781 0.1297 13.7546
-0.0786449 0.204746 19.0347
3.74185 2.10203 21.2878
2.00212 -0.781553 21.3833
-0.197086 0.247132 16.3033
-0.095174 -0.287133 19.7805
-0.793621 -0.43064 19.7998
-0.444234 -0.172722 19.7666
-0.415325 -0.29736 19.6329
-0.945977 -0.75516 20.9752
-1.50428 -0.751171 20.1671
-1.7428 -1.6547 20.0852
-0.202859 -0.298229 21.4055
-0.601927 -0.603964 21.314
-0.326127 -0.728903 21.4632
0.323688 0.168689 21.4723
0.0523049 -0.0885314 21.5049
0.0588925 0.012591 21.4757
0.765192 0.416825 21.1318
0.738218 0.313936 21.3306
0.699588 0.802252 21.1676
0.718572 0.321992 20.7683
1.03139 0.246665 20.8462
0.924594 0.777841 20.9276
0.972595 0.283049 20.9544
0.824763 0.801255 21.1009
-1.01754 -0.350723 19.6629
-0.568668 -0.0669197 19.6794
-0.491549 -0.216723 19.4915
-1.26658 -0.741493 21.0215
-1.91376 -0.266146 20.2003
-0.282511 -0.387395 21.5179
-1.01537 -0.52647 21.3578
0.476002 0.0839661 21.56
0.0248688 -0.197441 21.6406
1.009 0.260492 21.2467
0.96885 -0.0222215 21.2806
0.887764 0.203531 21.1786
1.21734 -0.055482 21.2849
1.60853 0.840343 18.3941
0.75556 -0.173058 20.8402
0.98577 0.468804 19.5188
-1.28282 0.104067 19.6588
-0.58365 0.22166 19.7301
-0.660305 0.06387 19.3532
-1.5398 -0.119991 20.8851
-1.37456 0.522052 20.2733
-0.61602 -0.292547 21.6011
-1.2178 0.140792 21.2317
0.444519 -0.229599 21.5906
-0.186563 -0.176483 21.6096
1.06797 -0.263192 21.0644
0.547182 -0.437327 21.3475
0.964911 -0.325366 20.8202
0.636359 -0.437659 20.9169
1.67251 -0.397026 19.3251
0.489176 -0.331624 20.545
0.939765 -0.399409 19.4226
-0.73725 0.502125 20.0133
-0.494134 0.455293 19.7009
-1.00883 0.528709 20.7211
-1.06386 1.01343 20.2408
-0.580808 0.144243 21.4599
-1.23854 0.834554 21.2531
0.101288 -0.242817 21.3784
-0.258414 -0.0348113 21.7164
0.445274 -0.403637 21.2166
0.294478 -0.516445 21.3608
0.466671 -0.410126 20.6966
0.548523 -0.616968 21.0419
0.495378 -0.595072 21.2264
-0.839966 -1.07514 18.9845
-0.36484 -0.341778 19.3634
0.00977082 -0.464537 19.2634
-0.639604 -1.21303 21.775
0.0241263 -4.66946 20.2892
-0.0590238 -0.128641 20.5907
0.00117923 -0.575577 20.6262
-0.0123897 0.491145 19.0153
-0.00454845 -0.104536 18.6514
0.321288 1.34629 18.358
-0.0633848 0.527352 15.2792
0.586572 0.974559 18.2499
0.836588 1.61661 15.6289
-0.15831 0.895756 15.8318
1.20414 1.08947 15.1253
-0.051067 0.685326 14.7015
-0.516005 -0.135764 19.0679
0.0111956 -0.362146 19.0001
1.76436 1.15264 12.7478
1.84019 0.898462 8.77847
0.365264 -0.89016 1.58335
1.62134 0.524098 12.6931
0.0906828 0.400408 10.3067
-0.555714 0.503143 19.1576
0.0273158 0.15535 18.5255
1.93738 -0.132363 13.3929
0.985718 -1.16646 17.8465
0.379619 -0.809677 -2.02483
0.631576 -0.812794 18.8113
0.127663 -0.809239 2.39843
-0.743068 1.23406 19.6042
0.0200754 0.771891 19.3276
-1.18014 1.56971 20.4963
0.0444222 2.16453 20.0109
-0.887443 0.806279 22.01
0.00475485 3.13553 21.2367
0.0458381 -0.431782 21.6886
-0.0199083 0.269672 22.3234
0.305772 -0.842295 21.328
-0.00499672 -0.659907 21.6016
0.284149 -0.693165 20.0798
-0.000193081 -0.961683 20.3433
0.00506796 -0.451175 20.8145
0.862387 -1.02605 19.0285
0.377486 -0.318659 19.3941
0.417806 -0.289747 19.6414
0.641217 -1.20983 21.7265
1.70721 -1.5693 20.0794
0.055432 -0.128588 20.6758
0.338918 -0.72909 21.4494
0.00357369 0.48673 19.0024
-0.0605552 0.00816058 21.4763
-0.281929 1.24897 18.2348
-0.679537 0.776634 21.1281
-0.727104 1.04456 16.7213
-0.712828 1.56852 15.4986
-0.922814 0.775911 21.1095
-1.05421 1.09111 14.6127
-0.658001 0.848257 21.1792
0.550625 -0.133192 19.098
0.498919 -0.207486 19.5124
-1.41022 1.2767 12.0439
-1.60247 0.94304 8.56991
-1.49813 0.827278 18.8318
-1.22745 0.547068 12.2996
-1.1575 0.232998 20.4684
0.573515 0.483231 19.203
0.658106 0.0635407 19.3964
-1.78219 -0.0495135 12.7602
-1.07713 -1.12698 17.5538
-1.7256 -0.392576 19.318
-0.654661 -0.747718 18.6769
-0.857834 -0.410097 19.2359
0.777043 1.15964 19.6397
0.501108 0.431662 19.7235
1.19414 1.5331 20.5056
1.05499 0.961387 20.2496
0.885545 0.844895 22.0305
1.23804 0.834058 21.252
-0.0319463 -0.437644 21.7129
0.262141 -0.0301152 21.7479
-0.276073 -0.822909 21.3763
-0.283553 -0.547974 21.356
-0.304497 -0.690234 20.2201
-0.54602 -0.665528 21.19
-0.590085 -0.667186 20.9342
0.776907 -0.419676 19.8054
0.440987 -0.166679 19.7781
0.937372 -0.745174 20.9721
1.49899 -0.750614 20.1616
0.201422 -0.300847 21.401
0.601904 -0.601904 21.3108
-0.322536 0.160707 21.4625
-0.0519877 -0.0907381 21.4911
-0.752047 0.40251 21.1217
-0.716474 0.296508 21.3294
-0.813219 0.36032 20.6391
-0.954112 0.321457 20.8535
-0.90456 0.211206 20.2051
1.01094 -0.345868 19.668
0.554092 -0.0650482 19.6932
1.26814 -0.750787 21.0248
1.93913 -0.274507 20.1958
0.282296 -0.388674 21.5158
1.02248 -0.533287 21.3623
-0.468475 0.0822441 21.5466
-0.023072 -0.194824 21.6331
-0.966704 0.259951 21.1663
-0.937772 -0.0197042 21.2892
-1.00292 0.277291 20.6652
-1.18935 -0.0212973 20.841
-0.928014 -0.105735 20.3925
1.26698 0.100406 19.671
0.57415 0.205823 19.7585
1.55683 -0.116916 20.8892
1.35433 0.508292 20.2753
0.617613 -0.291219 21.604
1.22712 0.140445 21.2332
-0.446021 -0.224264 21.5757
0.190583 -0.179103 21.6225
-1.03463 -0.257693 21.0297
-0.560577 -0.454203 21.3539
-0.952564 -0.244426 20.9815
-0.617657 -0.461135 21.1359
-0.383707 -0.297192 20.6381
0.725825 0.477796 20.033
0.99831 0.515249 20.7227
0.594625 0.155043 21.4707
-0.108517 -0.261915 21.4231
-0.429927 -0.442038 21.1919
-0.41057 -0.409166 20.8208
-0.920593 -0.400755 19.7073
-1.06086 -1.13037 18.5988
-0.908599 -0.722233 19.4703
-1.29611 -0.600864 19.0765
-0.440423 -0.262478 19.5742
-2.39372 -1.84315 19.9445
-1.09653 -0.767208 20.9982
-0.0599948 -0.584288 17.18
-0.868811 -1.16265 21.2842
-1.30408 -1.49586 21.3772
-0.375606 -0.9151 21.3926
-0.232536 -0.338733 21.4448
-0.0387878 0.0287123 13.9465
-0.0805713 -0.300386 21.4868
-0.076683 -0.285015 19.1706
0.0815375 0.0673826 20.6698
0.386295 0.139229 21.5308
-0.191772 0.413596 12.2089
0.316658 0.420481 21.3414
0.523194 0.666723 18.7455
0.931502 0.978573 19.6794
0.922353 0.375073 21.0866
0.309929 1.46688 13.9704
0.848547 0.895485 20.8962
1.41158 0.92902 19.0769
1.18771 0.945594 19.7001
0.866407 0.257224 21.1677
1.40221 1.01284 14.8382
0.788386 0.618007 21.8636
1.29171 0.662946 18.6625
0.975706 0.671039 19.8606
-1.19745 -0.136045 19.6215
-1.83946 -0.364701 17.4821
-1.84964 0.283562 18.9091
-0.604425 -0.109604 19.3869
-4.19018 -0.671973 19.8781
-1.4975 -0.449517 20.9823
-2.44826 -0.198346 21.0572
-1.12436 -1.05984 20.4914
-0.442457 -0.38406 21.5917
-0.752274 -0.735193 20.6467
0.232136 0.102348 18.6793
0.515986 -0.0731508 21.5827
0.897856 0.0645369 18.6216
1.47284 0.504813 16.7381
1.10913 -0.0204562 21.2372
0.992703 0.599419 5.00485
1.60881 -0.278472 18.8165
1.85711 0.392245 18.0752
1.0631 -0.112926 20.7509
2.02192 0.778068 12.1661
1.61319 -0.460668 19.5754
1.00737 0.0634007 18.8617
-1.02962 0.432367 19.821
-1.38513 1.54604 18.7721
-0.838583 0.82617 19.8305
-0.624049 0.347776 19.4784
-1.93322 1.20564 20.1489
-1.37768 0.335444 20.7659
-2.22281 1.84068 20.3758
-1.21138 0.963468 20.6628
-2.04903 0.50095 21.4128
-0.707464 -0.0438793 21.5683
-1.56585 0.270724 19.5604
-0.776356 0.378159 21.7017
-0.322193 -0.229351 21.9768
0.247274 -0.305465 21.5045
0.810704 -0.290746 15.9859
0.111234 -0.347119 21.5771
0.632374 -0.750054 21.2319
0.693377 -0.451977 21.1855
0.918621 -0.869045 16.708
0.384605 -0.601079 21.0283
0.837636 -0.816721 21.2786
0.688002 -0.457666 20.7384
0.901511 -1.01643 19.0743
0.261893 -0.405323 21.0438
0.638669 -0.512737 20.0347
1.08879 -1.08495 18.6552
0.0263009 -1.54318 18.5087
0.0275694 -1.48482 17.1485
0.0110183 -0.417923 19.1709
-0.012533 -6.90678 21.1386
0.0824437 -0.6033 17.4165
0.000354035 -1.41886 21.8097
-0.00190013 -0.156039 11.8984
0.0445701 0.0311417 14.0338
-0.000593686 -0.296081 19.4664
-0.00617072 -0.00312354 10.4494
0.179219 0.407328 12.1953
-0.0120942 0.212823 16.7669
-0.124397 0.34377 7.51167
-0.275107 1.3637 13.7472
-0.124335 0.536594 15.0984
-0.250037 -0.376185 0.534241
-0.149696 0.454914 8.18831
-0.987715 1.18263 14.4548
-0.13661 1.1332 15.3269
0.161996 0.609591 6.61829
0.0559993 0.592894 12.2862
1.86523 -0.35379 17.5778
0.0454017 1.53175 15.2566
0.0166413 -0.170827 18.7238
-0.779094 0.684834 4.66227
0.015 -0.355243 -2.06298
0.686778 -2.00838 -3.57274
-1.69875 0.854972 11.1025
-0.17572 -1.53643 -0.952603
0.176256 0.0380177 6.35758
1.40958 1.45213 18.8525
0.0381361 1.69821 19.3768
0.0305996 0.692219 18.815
0.0357421 3.98236 20.0459
2.22836 1.80101 20.3899
0.0234487 2.32167 20.2414
0.00552638 6.12889 18.7873
1.50893 0.294542 19.076
-0.0236679 1.61807 22.4722
0.00928822 -0.179312 9.99613
-0.907586 -0.248746 14.9278
-0.00950248 -0.3607 21.6898
-0.0236592 -0.250424 4.74945
-0.959246 -0.809396 15.9288
-0.0168647 -0.878034 20.7959
0.023968 -1.1263 10.2354
-0.961045 -1.0185 18.6939
0.0683996 -1.10904 20.209
0.0413284 -0.808672 12.2166
0.909381 -0.391994 19.7195
0.902922 -0.70435 19.4958
1.29101 -0.583227 19.1119
0.445917 -0.255588 19.5953
2.36911 -1.79501 19.9411
1.09254 -0.764745 20.9972
0.880597 -1.14683 21.2552
1.29939 -1.50294 21.3564
0.388281 -0.915663 21.3953
0.23549 -0.341076 21.4361
0.0855603 -0.306033 21.4849
0.0771986 -0.284757 19.1419
-0.0830312 0.0610112 20.6948
-0.380324 0.132516 21.5111
-0.317777 0.41194 21.3301
-0.520855 0.655194 18.7907
-0.902159 0.950803 19.6643
-0.883131 0.359256 21.0956
-0.840967 0.851337 20.8607
-1.32191 0.900577 19.0824
-1.12481 0.909672 19.7685
-1.10413 0.429079 20.4879
-0.685915 0.804847 21.7226
-1.34185 0.626854 19.4642
-0.926949 0.586883 20.5918
1.18502 -0.13229 19.6329
1.81696 0.272742 18.9668
0.607369 -0.102983 19.4089
4.20087 -0.665825 19.8761
1.51278 -0.454722 20.986
2.45837 -0.20137 21.0509
1.1213 -1.06908 20.4473
0.443737 -0.386854 21.5952
0.746306 -0.735635 20.5819
-0.230796 0.100643 18.6855
-0.509459 -0.0701303 21.5712
-0.903298 0.075373 18.6176
-1.42821 0.519176 16.7419
-1.06933 -0.00947424 21.1748
-1.55555 -0.226068 18.7332
-1.81613 0.387013 18.3066
-0.961946 0.0155554 20.8985
-1.63129 -0.451982 18.9832
-1.07789 -0.087368 20.008
1.00797 0.411299 19.8408
0.841481 0.789384 19.8504
0.614054 0.320806 19.5135
1.91064 1.14973 20.1574
1.37253 0.332408 20.7663
1.2001 0.932654 20.6686
2.05299 0.502829 21.4117
0.719593 -0.0452329 21.5792
0.78993 0.396817 21.723
0.333149 -0.226365 22.0014
-0.259263 -0.315284 21.5276
-0.107718 -0.367092 21.5892
-0.655495 -0.75666 21.0503
-0.689679 -0.490457 21.2233
-0.407966 -0.638753 21.0554
-0.899883 -0.845758 20.829
-0.732988 -0.434371 20.4894
-0.22551 -0.459203 20.9195
-0.512713 -0.490719 20.0373
-1.09808 -0.684973 19.2679
-1.02057 -1.33215 21.4171
-0.0525391 -0.339905 20.8966
0.40466 0.544565 20.3421
1.12659 1.02541 19.9217
1.13609 0.589501 19.3678
-1.65767 -0.242697 18.8826
-2.1134 -1.0507 21.2586
-0.218887 -0.492445 19.2179
0.791983 0.489715 17.808
1.73623 0.408809 18.0099
1.56787 0.282648 18.2302
-1.30955 0.853539 19.4147
-1.93556 0.806373 20.6937
-1.14524 0.0363663 21.9971
0.282834 -0.528354 21.7667
0.779404 -0.817615 21.0764
0.838521 -0.698119 20.2116
0.0232679 -1.61338 17.8673
0.00532861 -0.526895 14.1145
-0.00315396 -0.0722612 10.7962
-0.0165145 0.160945 9.13386
-0.346299 0.128937 7.2979
0.0903631 1.19884 12.1947
0.0512144 -0.430045 15.8582
0.235422 -0.716753 -3.7633
0.0784535 -0.389158 1.0931
0.0546042 2.48988 17.9958
0.0193725 3.00279 19.8831
-0.00787348 0.900616 11.5503
0.00294037 -0.0997607 5.00811
-0.076036 -0.550863 7.88865
-0.0279047 -1.32678 11.9928
1.09739 -0.667799 19.2939
1.0285 -1.31653 21.3959
0.0566791 -0.345293 20.9184
-0.404592 0.534954 20.3464
-1.05977 0.986052 19.8904
-1.0052 0.672809 20.4866
1.63022 -0.239786 18.9373
2.10868 -1.05815 21.1911
0.215989 -0.490334 19.1643
-0.790552 0.489648 17.8366
-1.63967 0.431095 17.9396
-1.48638 0.25989 19.082
1.2842 0.80494 19.4559
1.91998 0.784947 20.6961
1.16435 0.0497171 22.0085
-0.30436 -0.541671 21.6848
-0.800668 -0.813748 20.8838
-0.808475 -0.724748 20.0403
-5.30256 -2.07542 5.70709
-0.0180891 -0.200388 0.913399
0.00539701 -0.0314689 0.593047
0.0163406 0.00270332 0.0490027
-0.0161426 0.0186893 0.0719355
-0.0134441 0.109757 0.856096
-0.450594 0.0236432 0.445639
-0.0424631 0.355462 1.04002
-0.381043 -0.0246345 1.65051
0.0941253 -0.0443313 0.31354
-0.023024 0.0580645 -0.0664429
0.0752552 0.00930017 0.552615
0.0201159 -0.204663 0.922308
5.23089 -2.07633 5.61028
-0.00446643 -0.0314864 0.587208
0.013221 0.0163311 0.0641916
-0.0149459 0.00257079 0.0462783
0.0119807 0.107484 0.842812
0.0421099 0.361924 1.04572
0.459101 0.0235928 0.453633
0.381616 -0.0250848 1.65278
0.00129526 0.0804504 -0.0867367
-0.0830019 -0.0270415 0.289578
-0.0857201 0.0205516 0.550371
0.0153332 -0.00320247 0.0935667
0 0 0
-0.000141469 -2.58224e-05 0.0420427
0 0 0
-0.0121179 0.00792383 0.242917
0 0 0
-0.0110152 0.0221394 0.187393
0 0 0
-0.681194 -0.373394 1.35494
-0.000616658 -0.000947698 0.0262645
0.00205352 0.00547767 0.0383058
-0.0410585 0.0301434 0.0667038
0.00116932 0.00194228 0.00876543
0.00367511 0.0258351 0.120613
0 0 0
0.0633754 -0.00975001 0.303476
-0.0153509 -0.00320614 0.0938779
0 0 0
0 0 0
0.000142637 -3.87726e-05 0.042733
0.0118521 0.00783074 0.242122
0 0 0
0 0 0
0.0109596 0.0219341 0.187036
0.682831 -0.373906 1.35773
0.041094 0.0302019 0.0668183
0.000611179 -0.000941224 0.0260306
-0.00205988 0.00548986 0.0385862
-0.00125058 0.0020787 0.00924334
-0.06374 -0.00972557 0.304169
-0.00375944 0.0259789 0.120389
0 0 0
-0.00383738 -0.00210619 0.0337394
-0.574101 0.683449 0.745343
0 0 0
-0.000470878 -0.307552 0.0910135
0 0 0
0.00107277 -8.74921e-05 0.0134052
0.00232389 0.00137903 0.0190157
0 0 0
0 0 0
0 0 0
0.00219082 0.00426715 0.04851
-0.000945321 0.000603594 0.026784
-0.000175613 0.0947409 0.0233363
7.23409e-06 0.000633042 0.00593512
-0.032877 -0.0484199 0.313324
-0.00397754 0.00100283 0.0120765
0 0 0
-9.56703e-05 0.000187425 -0.00315732
0.00634569 0.00617119 0.0512123
0 0 0
0.481402 0.588884 0.62351
0.00371985 -0.0020481 0.0326978
-0.000993852 -8.09679e-05 0.012534
0 0 0
0 0 0
-0.00234046 0.00152763 0.0191708
0.00054711 0.000468591 0.0199527
-0.00203316 0.00415379 0.0457721
0.00394518 0.000995671 0.0119823
0.0322891 -0.0477448 0.308725
0 0 0
-0.00646467 0.00655913 0.0512901
-0.00077871 0.00481778 0.0422564
0 0 0
-0.0238278 -0.00456217 0.212964
-0.000238771 0.0102516 0.122176
1.57712e-07 -3.14277e-07 -0.000236225
3.05227e-08 -3.87043e-09 -0.000161492
7.04565e-05 0.002653 0.0172973
2.9015e-05 0.000160376 0.00108441
3.05384e-08 -2.96623e-09 -0.000149932
0 0 0
0.00683495 0.0220547 0.0870018
-0.00257985 0.0109952 0.173699
0 0 0
-1.38529e-05 0.0472595 0.241605
-6.02431e-07 2.22737e-06 0.000150182
1.47098e-05 -0.00127827 0.00465043
0 0 0
0.000784964 0.00486635 0.0428173
0.0237396 -0.00466493 0.212502
0.000235441 0.010181 0.121873
-7.02463e-05 0.00262949 0.0171338
-3.44306e-05 0.000190617 0.00127316
0.0024962 0.0109994 0.17329
-0.00685102 0.0221085 0.0872162
-1.17586e-17 -8.50342e-18 1.44278e-16
-0.0214566 -0.0135913 0.126216
-0.0865987 -0.0507803 0.617013
-0.00827298 -0.0164743 0.100951