# vtk DataFile Version 2.0
tri_press
ASCII
DATASET UNSTRUCTURED_GRID
POINTS 3682 float
-0.625 0.335 -2.45075
-0.705 0.375 2.44521
-0.715 0.795144 -2.255
-0.695 0.915 2.37002
0.625 0.335 -2.45075
0.705 0.375 2.44521
0.715 0.795143 -2.255
0.695 0.915 2.37002
-0.694756 0.305244 -0.818764
-0.73708 0.30292 0.813223
-0.825456 0.952219 -0.713327
-0.80319 0.976572 0.828347
0.694756 0.305244 -0.818764
0.73708 0.30292 0.813223
0.825487 0.952249 -0.713327
0.803199 0.97658 0.828347
-1.37049 -0.00387398 -3.76674
-1.37285 0.0319647 -2.49732
-1.4269 0.012326 -0.863
-1.4602 0.00184556 0.789498
-1.44261 0.0449564 2.42535
-1.43806 0.0669881 3.70227
-1.44407 0.0779717 4.9653
-1.37144 0.273266 -3.70133
-1.37913 0.329368 -2.44178
-1.45037 0.325847 -0.825032
-1.47504 0.311452 0.799846
-1.43227 0.343336 2.41833
-1.43195 0.363555 3.69397
-1.44322 0.375565 4.95995
-1.41274 0.798353 -3.54517
-1.45713 0.853762 -2.28188
-1.5489 0.955384 -0.726704
-1.53355 0.963449 0.822079
-1.44501 0.926463 2.37899
-1.44219 0.94517 3.65837
-1.45515 0.967553 4.93891
-1.45653 1.69276 -3.37883
-1.48584 1.75905 -2.12907
-1.53128 1.85854 -0.603173
-1.54783 1.90306 0.903261
-1.52862 1.89181 2.4301
-1.51055 1.88576 3.68184
-1.50221 1.89378 4.95252
-0.657877 -0.0023255 -3.77257
-0.648169 0.035855 -2.50582
-0.690689 0.00161568 -0.86186
-0.7269 -0.00400959 0.800915
-0.719697 0.0615366 2.44531
-0.715019 0.0777787 3.71581
-0.718489 0.0826238 4.97314
-0.65209 0.268645 -3.70313
-0.709694 0.374037 3.70514
-0.717939 0.379273 4.96586
-0.681249 0.773055 -3.534
-0.715209 0.942614 3.65657
-0.727654 0.966267 4.93853
-0.710797 1.67729 -3.36779
-0.729105 1.74545 -2.11691
-0.768062 1.85727 -0.595839
-0.793413 1.90688 0.902381
-0.787812 1.8907 2.42382
-0.774338 1.88253 3.67556
-0.767339 1.89093 4.94796
0.70287 -0.00232172 -3.77257
0.67545 0.035857 -2.50582
0.713036 0.00161719 -0.86186
0.733727 -0.00400873 0.800915
0.713324 0.0615372 2.44531
0.71926 0.0777798 3.71581
0.725536 0.082626 4.97314
0.701064 0.268648 -3.70313
0.715318 0.374037 3.70513
0.722846 0.379275 4.96586
0.733368 0.773059 -3.534
0.709299 0.942615 3.65657
0.71612 0.966269 4.93853
0.76994 1.6773 -3.36779
0.777236 1.74546 -2.11691
0.771623 1.85728 -0.595839
0.738006 1.90689 0.902381
0.705528 1.89071 2.42382
0.699901 1.88254 3.67556
0.701347 1.89093 4.94796
1.40282 -0.00386428 -3.76674
1.38311 0.0319738 -2.49732
1.43481 0.0123342 -0.863
1.46734 0.00184981 0.789498
1.4466 0.0449588 2.42535
1.44567 0.0669914 3.70227
1.45169 0.0779761 4.9653
1.40007 0.273275 -3.70133
1.3709 0.329379 -2.44178
1.44356 0.325859 -0.825032
1.47874 0.311457 0.799846
1.44044 0.343337 2.41833
1.44039 0.363557 3.69397
1.44825 0.375569 4.95995
1.44417 0.798365 -3.54517
1.45038 0.853778 -2.28188
1.53996 0.955416 -0.726704
1.53115 0.963462 0.822078
1.44525 0.926467 2.37899
1.43718 0.945174 3.65837
1.44344 0.967558 4.93891
1.50503 1.69278 -3.37883
1.51948 1.75907 -2.12907
1.52767 1.85856 -0.603173
1.4991 1.90307 0.90326
1.45776 1.89182 2.4301
1.44232 1.88577 3.68184
1.43866 1.89379 4.95252
-0.710335 0.565072 -2.39321
0 0.337488 -2.44826
-0.674034 0.305966 -1.63476
-0.733029 0.645 2.44064
0 0.369681 2.45053
-0.756274 0.303726 1.62922
0 0.888677 -2.34853
-0.795068 0.898521 -1.48416
0 0.958414 2.41343
-0.772813 0.969503 1.59918
0.71039 0.565072 -2.39327
0.674034 0.305966 -1.63476
0.732881 0.645 2.4405
0.75683 0.30317 1.62922
0.79507 0.898522 -1.48416
0.772818 0.969508 1.59918
-0.715254 0.304746 -0.00277007
-0.896446 0.628732 -0.766045
3.55614e-08 0.312545 -0.818764
-0.889516 0.639746 0.820785
0 0.312935 0.813223
-0.819203 0.969275 0.0575099
1.52045e-05 1.23202 -0.713327
4.24629e-06 1.44201 0.828347
0.715197 0.304803 -0.00277007
0.896494 0.628746 -0.766045
0.889518 0.63975 0.820785
0.819206 0.969278 0.0575099
-0.837658 0.596902 -1.55946
0.83767 0.596909 -1.55946
1.77807e-08 0.313649 -1.63476
7.60224e-06 0.973619 -1.48416
0 0.565072 -2.55017
-0.894118 0.634239 0.0273699
0.894119 0.634248 0.0273699
1.77807e-08 0.31268 -0.00277007
9.72539e-06 1.44199 0.0575099
-0.868493 0.642373 1.6142
0.868485 0.642375 1.6142
0 0.329579 1.62922
2.12315e-06 1.06378 1.59918
0 0.645 2.50418
-0.678478 0.450036 -2.43279
-0.3125 0.340635 -2.44512
-0.654746 0.315254 -2.04275
-0.730766 0.51 2.45468
-0.3525 0.366159 2.45405
-0.742377 0.327623 2.03721
-0.69524 0.680108 -2.30668
-0.3575 0.860895 -2.32075
-0.767473 0.859272 -1.86958
-0.726946 0.78 2.41826
-0.3475 0.951755 2.40677
-0.745988 0.954334 1.9846
0.3125 0.340145 -2.4456
0.678323 0.450036 -2.43264
0.654685 0.315315 -2.04275
0.3525 0.366246 2.45396
0.730754 0.51 2.45467
0.742377 0.327623 2.03721
0.3575 0.86087 -2.32073
0.695228 0.680107 -2.30667
0.767486 0.859284 -1.86958
0.3475 0.951764 2.40678
0.726889 0.78 2.41821
0.745976 0.954322 1.9846
-0.684335 0.305665 -1.22676
-0.704977 0.305023 -0.410767
-0.87328 0.428148 -0.792404
-0.344328 0.314995 -0.818764
-0.746908 0.303092 1.22122
-0.725437 0.304563 0.405227
-0.881474 0.437245 0.817004
-0.366755 0.311497 0.813223
-0.818148 0.933256 -1.09875
-0.877255 0.798627 -0.739686
-0.822401 0.960818 -0.327909
-0.46377 1.19422 -0.713327
-0.794445 0.979481 1.21377
-0.87406 0.822012 0.824566
-0.811945 0.973672 0.442928
-0.502336 1.41078 0.828347
0.684335 0.305665 -1.22676
0.344332 0.314987 -0.818764
0.704977 0.305023 -0.410767
0.873292 0.428162 -0.792404
0.746908 0.303092 1.22122
0.366747 0.311513 0.813223
0.725435 0.304565 0.405227
0.881515 0.437227 0.817004
0.818169 0.933276 -1.09875
0.463789 1.19421 -0.713327
0.877243 0.798624 -0.739686
0.822409 0.960826 -0.327909
0.794437 0.979473 1.21377
0.50236 1.41081 0.828347
0.874024 0.821997 0.824566
0.811945 0.973671 0.442928
-0.817524 0.580987 -1.97634
-0.355167 0.565072 -2.5186
8.89035e-09 0.320508 -2.04151
0 0.45128 -2.56663
-0.81977 0.451434 -1.59711
-0.337017 0.313309 -1.63476
-0.820907 0.643686 2.02742
-0.366514 0.645 2.51028
0 0.345497 2.03987
0 0.50734 2.56314
-0.859266 0.47305 1.62171
-0.378137 0.311509 1.62922
3.80112e-06 0.939278 -1.91635
0 0.726875 -2.43746
-0.852086 0.747711 -1.52181
-0.39753 0.960019 -1.48416
1.06157e-06 1.00911 2.00631
0 0.801707 2.48635
-0.846221 0.805938 1.60669
-0.386405 1.02972 1.59918
0.817487 0.58099 -1.97636
0.355195 0.565072 -2.51874
0.819755 0.451437 -1.59711
0.337017 0.313302 -1.63476
0.820918 0.643688 2.02735
0.36644 0.645 2.51031
0.859126 0.472773 1.62171
0.378415 0.311934 1.62922
0.852056 0.747716 -1.52181
0.397539 0.960019 -1.48416
0.846222 0.805942 1.60669
0.38641 1.02994 1.59918
-0.874983 0.434344 0.0122999
-0.356064 0.311838 -0.00277007
-0.883665 0.612817 -1.16275
-0.895423 0.631485 -0.369338
2.66711e-08 0.313827 -1.22676
2.66711e-08 0.313333 -0.410767
-0.892115 0.636992 0.424078
-0.879032 0.641059 1.21749
8.89035e-09 0.313503 0.405227
0 0.327859 1.22122
-0.875712 0.811283 0.0424399
-0.513594 1.41363 0.0575099
1.14034e-05 0.971271 -1.09875
1.24649e-05 1.41672 -0.327909
6.98584e-06 1.45088 0.442928
3.18472e-06 1.37673 1.21377
0.87499 0.43436 0.0122999
0.356046 0.311847 -0.00277007
0.883664 0.612828 -1.16275
0.895419 0.631497 -0.369338
0.892119 0.636999 0.424078
0.879037 0.641063 1.21749
0.875723 0.811293 0.0424399
0.513597 1.41361 0.0575099
-0.798528 0.450735 -2.00954
-0.867448 0.459211 -1.19476
-0.876727 0.769093 -1.13075
-0.821057 0.71391 -1.92296
0.798557 0.450737 -2.00956
0.821095 0.713911 -1.92297
0.876757 0.769107 -1.13075
0.867437 0.459216 -1.19476
-0.324759 0.32558 -2.04213
0.324759 0.325567 -2.04213
0.342198 0.312466 -1.22676
-0.342198 0.312476 -1.22676
-0.377515 0.92182 -1.89297
-0.405125 0.976098 -1.09875
0.405145 0.976099 -1.09875
0.377519 0.921816 -1.89297
-0.333834 0.450658 -2.53672
-0.356334 0.703491 -2.41225
0.356348 0.703491 -2.41161
0.333848 0.450658 -2.53672
-0.874027 0.431298 -0.390052
-0.874229 0.437794 0.414652
-0.872388 0.815398 0.433503
-0.876609 0.805018 -0.348623
0.874031 0.431316 -0.390052
0.876613 0.805023 -0.348623
0.872386 0.815402 0.433503
0.874242 0.437799 0.414652
-0.350902 0.312005 -0.410767
0.350893 0.312008 -0.410767
0.36142 0.311633 0.405227
-0.36143 0.311626 0.405227
-0.527312 1.38118 -0.327909
-0.513088 1.42245 0.442928
0.513097 1.42245 0.442928
0.527293 1.38111 -0.327909
-0.868803 0.472191 1.21936
-0.811482 0.491525 2.03232
-0.807624 0.792969 2.00601
-0.866641 0.807048 1.21563
0.868775 0.472054 1.21936
0.866652 0.807053 1.21563
0.807628 0.792971 2.00597
0.811479 0.491386 2.03228
-0.373338 0.305006 1.22122
0.373477 0.306352 1.22122
0.365457 0.331481 2.03854
-0.365318 0.33149 2.03854
-0.393999 1.36597 1.21377
-0.366953 1.00677 1.99546
0.366955 1.00677 1.99546
0.394006 1.36597 1.21377
-0.359507 0.50867 2.54799
0.35947 0.50867 2.54798
0.35697 0.790853 2.48942
-0.357007 0.790853 2.48952
-0.652301 0.392518 -2.44233
-0.46875 0.341046 -2.4447
-0.642253 0.322747 -2.24675
-0.722296 0.4425 2.45436
-0.52875 0.369471 2.45074
-0.727789 0.347211 2.24121
-0.712436 0.737626 -2.28815
-0.53625 0.825701 -2.28556
-0.748512 0.834484 -2.06229
-0.716305 0.8475 2.39947
-0.52125 0.940988 2.39601
-0.725582 0.939754 2.17731
0.46875 0.340777 -2.44497
0.652089 0.392518 -2.44212
0.64221 0.32279 -2.24675
0.52875 0.369604 2.45061
0.722236 0.4425 2.4543
0.727776 0.347224 2.24121
0.53625 0.8257 -2.28556
0.712518 0.737625 -2.28824
0.748519 0.834489 -2.06229
0.52125 0.940926 2.39595
0.716134 0.8475 2.3993
0.725583 0.939755 2.17731
-0.689455 0.305545 -1.02276
-0.699863 0.305137 -0.614765
-0.854628 0.331391 -0.805584
-0.520317 0.30857 -0.818764
-0.741961 0.303039 1.01722
-0.731964 0.303036 0.609225
-0.888871 0.330286 0.815114
-0.553571 0.303902 0.813223
-0.82279 0.943726 -0.906036
-0.854711 0.877101 -0.726507
-0.82391 0.9565 -0.520618
-0.685085 1.15416 -0.713327
-0.798823 0.978032 1.02106
-0.839932 0.899945 0.826456
-0.807567 0.975121 0.635638
-0.673145 1.23444 0.828347
0.689455 0.305545 -1.02276
0.520317 0.308569 -0.818764
0.699863 0.305137 -0.614765
0.854621 0.331404 -0.805584
0.741961 0.303039 1.01722
0.553571 0.303902 0.813223
0.731965 0.303035 0.609225
0.888887 0.330279 0.815114
0.822798 0.943732 -0.906036
0.685103 1.15416 -0.713327
0.854715 0.877111 -0.726507
0.823936 0.956525 -0.520618
[...]
POINT_DATA 3682
SCALARS point_scalars float 1
LOOKUP_TABLE default
-47.619
-40.0412
-76.9226
-36.1431
-47.9278
-38.2665
-76.9194
-34.9662
-34.6794
-34.6812
-57.1819
-45.2455
-34.6723
-34.6091
-57.0957
-45.2534
5.39813
-81.1196
-39.1783
-41.9659
-39.622
-40.0445
-34.7504
47.1422
-77.904
-39.3973
-36.7418
-39.8082
-37.4093
-33.109
55.4204
-86.0476
-47.2198
-41.5829
-37.7567
-35.9706
-32.5358
-73.2354
-50.7569
-97.7821
-51.3276
-36.9378
-36.5653
-35.5868
112.782
-154.429
-34.9303
-34.5403
-39.4274
-34.2303
-32.2157
173.103
-31.7909
-31.114
175.129
-31.3962
-30.5565
-54.5196
-45.6045
-98.1184
-54.951
-34.5012
-32.9254
-31.1124
112.605
-152.125
-35.0852
-34.4861
-37.6808
-32.44
-30.0688
163.795
-30.199
-28.8608
174.821
-29.8076
-27.9345
-50.8161
-45.5518
-97.8862
-56.4817
-33.9474
-31.3641
-29.7778
5.89961
-81.3566
-39.1612
-41.9161
-38.3007
-38.2746
-33.045
26.0903
-77.9894
-39.3666
-36.6839
-38.3808
-35.6765
-31.5185
55.8189
-86.2893
-47.2248
-41.5371
-36.66
-34.3224
-31.0169
-73.2756
-50.4311
-97.4801
-51.6523
-35.788
-34.2377
-34.1823
-1.95673
-146.505
-41.4095
-36.2415
-31.6547
-40.3776
-118.626
-22.9768
-33.0164
-43.5936
-1.85761
-41.3972
-34.6273
-40.184
-22.999
-43.5887
-32.8407
-41.6176
-33.7779
-40.2405
-34.44
-50.0495
25.9823
-61.0532
-32.8067
-41.5826
-39.9482
-50.0179
-34.1228
-34.1143
-47.1406
-4.33822
195.078
-40.0506
-40.0017
-32.59
-77.6363
-42.8402
-42.5279
-37.1242
-38.4611
-25.8968
10.4451
-176.077
-56.3924
-37.1774
-35.422
-39.1311
6.27236
-112.136
-39.8305
-36.4013
-32.1399
-38.5128
-176.096
9.85972
-56.2068
-33.6094
-35.4464
-38.3776
-112.315
6.31689
-39.8256
-31.9157
-34.8575
-38.2575
-33.5893
-33.3107
-39.2146
-33.6728
-35.6614
-32.7882
-39.7595
-33.8882
-29.5694
-46.4968
-54.2781
7.97434
-45.2291
-41.39
-46.8533
-56.8424
-33.5698
-33.6675
-33.2857
-39.1873
-35.4761
-33.8455
-32.7935
-39.6836
-29.542
8.03365
-46.4533
-54.2071
-45.2153
-56.8667
-41.3435
-46.8107
-58.2795
182.008
-65.3997
176.774
-35.9176
-46.3216
-39.5072
-30.5967
-36.4134
-24.2941
-42.7546
-37.9641
-32.137
169.46
-33.3483
-7.38496
-36.7633
-27.4736
-42.9835
-39.7817
-58.2567
183.716
-35.9148
-46.3017
-38.7502
-28.4413
-42.4441
-37.7166
-33.3467
-7.37143
-42.7652
-39.8665
-36.6844
-32.5341
-36.3292
-41.1016
-37.5172
-32.6867
-39.0182
-39.7216
-33.0484
-36.6989
-44.9216
-69.6142
19.0457
-107.146
-66.5552
-48.4008
-36.6388
-32.5138
-36.3072
-41.0557
-38.9505
-39.5551
-44.8809
-69.5848
-57.8007
-29.1993
-36.4453
-51.4748
-57.7687
-51.4946
-36.4389
-29.2091
-65.2701
-65.2622
-37.0497
-37.0631
-32.8517
12.3045
12.3465
-32.8338
146.321
145.594
144.963
146.254
-37.4076
-36.2391
-42.5635
-46.551
-37.369
-46.5009
-42.5124
-36.1677
-32.7225
-32.7009
-32.9096
-32.9306
-101.211
-60.213
-60.2032
-101.144
-38.2792
-39.4722
-39.2875
-41.8609
-38.1011
-41.7634
-38.6699
-38.6621
-35.9974
-35.836
-37.1436
-37.6975
-50.3322
-36.9206
-36.9714
-50.4743
-30.6484
-28.113
-29.0292
-30.7061
34.4586
-124.797
-82.3482
-39.1733
-37.4106
-38.142
-29.0666
-104.037
-56.6739
-36.3931
-32.5272
-36.9674
-124.658
16.9842
-82.6122
-35.5157
-37.4018
-37.0625
-103.965
-29.0221
-56.6688
-31.6183
-34.9643
-36.3899
-35.8877
-33.7685
-36.9557
-33.7308
-36.1615
-33.3855
-41.8476
-34.0331
-47.5984
-50.7335
-56.1679
-53.2291
-45.1552
-44.1308
-45.7374
-50.1629
-35.8399
-33.7154
-33.7441
-36.951
-36.0427
-33.9717
-33.2648
-41.7973
-47.5719
-53.7453
-50.6857
-56.0953
-45.1604
-50.1713
-44.1125
-45.7285
-9.56481
7.11188
-88.6244
150.805
-184.61
-185.36
-87.6628
91.7613
-49.0639
-36.2181
-37.4712
-44.7555
-36.5352
-36.4156
-38.3568
-31.5719
-33.4183
-32.175
-34.4372
-26.8273
-40.0669
-36.8647
-43.8747
-39.4744
-115.676
-115.844
-54.7805
90.3687
-29.179
-24.0643
-29.9525
-12.6684
-32.9058
-32.7726
-34.6266
-30.5011
-40.3192
-46.5136
-42.6778
-41.0311
-4.01061
7.01924
-88.6689
150.572
-49.1566
-36.1976
-37.4657
-44.7118
-34.857
-34.7893
-37.218
-30.1896
-39.5175
-36.5604
-43.5149
-39.1245
-29.1337
-24.0352
-29.946
-12.6434
-40.2355
-46.4873
-42.5424
-41.0978
-32.9796
-32.8309
-34.8454
-32.5686
-40.3268
-43.4484
-41.1621
-41.5877
-33.7765
-33.7929
-35.0905
-33.0283
-39.6249
-40.6204
-38.9452
-40.056
-34.3151
-34.2953
-33.5814
-35.4395
-52.1709
-48.4282
-47.8002
-59.8611
22.1736
22.2161
34.4922
-42.3184
-60.603
-60.6097
-63.1683
-55.7772
-32.9554
-32.7958
-34.8128
-32.5423
-40.2952
-43.4089
-41.1209
-41.5442
-39.4492
-40.4629
-38.8538
-40.1335
-52.1282
-48.3851
-47.7678
-59.8134
-43.9333
-35.016
-33.5448
-28.5316
-43.9373
-35.012
-33.5311
-28.5659
-55.1141
-46.9379
-46.9154
-41.5408
-16.3171
-4.69491
-4.67936
8.12621
188.005
206.782
183.917
187.844
-38.2343
-40.5239
-39.5364
-42.084
-38.1851
-40.4789
-39.4812
-42.0385
-32.5675
-32.549
-32.708
-32.5539
-75.8052
-88.167
-72.7596
-75.7655
-41.4558
-42.599
-43.0673
-41.2817
-40.9659
-42.2672
-42.7884
-41.0475
-37.0491
-37.2906
-37.1679
-36.1759
-38.3718
-38.9895
-39.0688
-41.3233
-27.986
-23.4462
-25.8378
-25.9438
-78.6129
138.622
-90.7008
55.1019
-56.3273
-62.1716
-38.7031
-32.0173
-36.1272
-32.3224
-39.5614
-38.2382
-79.6452
113.988
-55.4231
79.2533
-46.1443
-35.8041
-37.936
-31.6044
-34.4481
-31.4069
-38.9437
-37.1949
-90.803
55.1215
-78.6854
138.8
-56.2775
-62.0743
-35.1789
-30.0469
-37.5134
-30.4052
-38.7526
-37.5327
-55.3762
78.226
-79.6837
114.034
-46.1946
-35.7831
-34.3328
-30.5265
-36.9562
-30.2018
-38.4588
-37.1596
-22.9538
-36.3486
-35.4208
-32.8327
-41.7927
-37.9965
-34.9521
-33.1115
-37.3132
-35.8409
-34.8506
-32.8839
-35.8254
-38.8935
-33.4719
-35.0563
-35.7807
0.704366
-42.5847
-47.2418
-50.3339
-75.019
21.8583
-40.3362
-43.8663
-52.3705
-41.8642
-42.9704
-44.8828
-53.1641
-57.9939
-55.5355
-22.9783
-36.3293
-34.942
-33.0937
-35.3892
-32.809
-41.7276
-37.9626
-37.1226
-35.7006
-33.4222
-35.0478
-34.7785
-32.8443
-35.7432
-38.7771
-35.774
0.776475
21.942
-39.4098
-42.5527
-47.1894
-50.2741
-74.9812
-43.8188
-52.4226
-57.9892
-55.3975
-41.8105
-42.8983
-44.8428
-53.1147
-57.8707
-55.9478
186.417
147.801
-65.555
-64.9668
141.626
141.78
-45.2114
-29.9642
-54.1846
-40.7967
-39.4967
-39.4354
-30.2283
-30.4417
-36.5069
-36.8065
-27.5502
-24.8427
-39.9818
-41.4138
-37.2986
-38.0829
-32.0436
-32.0065
164.074
164.954
-30.4896
-40.3203
-19.2413
2.33182
-36.8186
-36.888
-27.1136
-28.6115
-40.7201
-43.7675
-42.242
-38.9013
-57.8622
-55.9385
147.422
186.714
-45.2601
-29.9711
-54.1711
-40.7715
-38.7322
-38.7077
-27.434
-28.2777
-39.7205
-40.8614
-37.2125
-37.6441
-40.2596
-30.4997
2.35175
-19.2297
-43.6139
-40.3482
-38.9766
-42.3116
-36.9713
-36.5985
-32.6215
-32.7054
-32.4342
-37.4744
-39.0942
-43.3756
-37.3194
-37.3307
-32.7131
-32.6902
-37.5221
-40.5219
-38.9424
-40.7694
-33.0082
-33.02
-36.7044
-36.6538
-43.5315
-44.6907
-81.1683
-65.5139
17.5185
17.5551
-107.944
-107.94
-65.1704
-65.1726
-48.8557
-48.8907
-36.9305
-36.542
-32.5964
-32.6852
-37.4591
-32.4397
-39.0512
-43.3289
-40.4603
-37.4518
-38.7683
-40.6301
-44.6495
-43.4847
-65.4798
-81.1463
-81.9031
-46.0598
-44.6324
-82.4705
-39.6493
-41.7121
-29.5432
-31.0859
-45.4596
-30.7296
-28.756
-41.7767
-71.5179
-87.5354
-42.7367
-35.4741
-81.949
-82.5248
-44.6549
-46.0975
-71.5213
-35.409
-42.7265
-87.6115
-45.4285
-41.7364
-28.8022
-30.7191
-39.5871
-31.0854
-29.5534
-41.6515
-87.7098
-89.2648
-54.9299
-52.3908
-87.8677
-52.5144
-54.8857
-89.1016
-34.8733
-35.0527
-41.5131
-39.3196
-34.8909
-39.3686
-41.5454
-35.0592
-56.6097
-21.8122
-17.0038
-56.9648
-2.01055
30.8613
6.72206
-5.16055
-1.84024
-5.12811
6.74369
30.9016
-56.5575
-56.8365
-16.9836
-21.7784
74.7299
169.041
205.069
61.3844
64.2683
86.0073
176.53
107.065
64.334
107.063
176.864
84.6037
74.1679
57.4226
205.17
168.925
-35.8484
-35.0094
-38.5868
-39.6831
-34.367
-37.379
-37.8976
-34.9542
-43.9943
-46.1067
-41.2095
-40.1667
-51.3614
-43.871
-42.5637
-49.1087
-35.8188
-39.6453
-38.5431
-34.9754
-51.2961
-49.0707
-42.52
-43.8245
-43.9695
-40.0891
-41.1583
-46.065
-34.2911
-34.8986
-37.8407
-37.2915
-33.1698
-33.0298
-32.5833
-32.6318
-33.145
-32.6041
-32.5653
-33.0346
-33.3384
-33.5231
-32.6914
-32.6287
-33.3943
-32.6576
-32.7031
-33.5544
-85.3164
-65.3573
-87.273
-33.1142
-51.2962
-62.0852
-71.0167
-56.3069
-51.271
-56.2641
-70.9785
-62.0965
-84.1116
-33.0926
-87.2522
-65.3145
-38.2852
-39.3481
-40.5669
-39.5365
-38.8554
-38.4693
-41.6003
-41.8384
-37.5493
-40.3595
-41.147
-38.2313
-45.2351
-41.0419
-42.3842
-45.2026
-38.1398
-39.4984
-40.3134
-39.0581
-45.2165
-44.879
-42.1746
-41.0805
-36.73
-37.1487
-40.712
-40.0986
-37.6745
-41.2108
-41.0622
-37.3006
-34.7681
-35.2328
-36.5062
-36.8993
-34.6837
-36.7261
-36.4442
-35.2107
-35.9925
-34.5586
-37.1573
-38.7421
-37.0797
-39.2161
-37.3642
-35.1465
-49.5059
-45.2971
-41.4834
-55.4214
-34.8753
-34.5453
-38.548
-39.2812
-34.6062
-39.3253
-38.6211
-34.5327
-49.5363
-55.4295
-41.5305
-45.3441
-33.8099
-29.3697
-26.9102
-31.5615
-32.0591
-30.0344
-23.8761
-27.2373
-30.5843
-30.3705
-25.7405
-30.0558
-31.8422
-31.5248
-27.7643
-30.9006
-28.9853
-72.2523
-115.777
-39.9958
-38.4668
-39.4476
-53.4709
-66.1513
-80.0148
-36.4117
-33.7573
-36.1652
-70.6507
-31.8678
-115.973
-36.6519
-38.2178
-38.0117
-65.871
-53.5003
-80.0217
-32.6494
-35.0942
-35.3276
-35.544
-34.1888
-35.1395
-34.0724
-35.2948
-33.8486
-37.4465
-34.2926
-58.1681
-54.0034
-56.8312
-77.7329
-45.2862
-44.7235
-45.3771
-47.6404
-35.5238
-34.0548
-34.1657
-35.1499
-35.2025
-34.2244
-33.7974
-37.374
-58.1325
-77.4038
-53.9502
-56.7564
-45.291
-47.6458
-44.7245
-45.3819
-6.39992
4.21162
-75.505
98.8922
-162.27
-162.105
-113.032
33.6838
-45.1825
-38.4356
-38.8542
-43.5046
-36.2857
-36.1007
-38.6831
-32.4868
-32.4826
-31.8348
-32.9137
-29.2082
-39.7533
-38.2454
-46.3322
-39.8331
-110.053
-110.198
-74.6036
19.2573
-26.7944
-23.2471
-27.2356
-16.4979
-33.058
-33.004
-33.8278
-31.3893
-41.3576
-44.9303
-42.8399
-42.6146
-12.8002
4.4879
-75.5294
98.7917
-45.2316
-38.4148
-38.8473
-43.4543
-34.6584
-34.4806
-37.2431
-31.0546
-39.4147
-37.8863
-44.2127
-39.5236
-26.7787
-23.0935
-27.2156
-16.4712
-41.3246
-44.9321
-42.753
-42.6814
-32.8774
-32.8201
-33.298
-32.6565
-41.0581
-42.4367
-41.4075
-41.7204
-33.7515
-33.7597
-34.2479
-33.4011
-39.8964
-40.4097
-39.3512
-40.0033
-34.4064
-34.3961
-33.921
-34.8942
-51.1585
-49.2349
-48.7894
-55.1157
25.4659
25.2681
36.3879
1.86479
-60.9422
-60.9462
-62.7172
-58.1955
-32.8503
-32.7811
-33.2797
-32.6259
-41.0251
-42.4002
-41.364
-41.684
-39.6721
-40.1515
-39.2238
-40.0479
-51.1262
-49.1995
-48.7598
-55.0687
-38.5524
-34.5703
-33.6408
-30.8034
-38.5464
-34.5641
-33.6274
-30.7943
-50.7448
-47.0556
-47.0499
-44.08
-10.1301
-4.09067
-4.08099
1.95408
191.989
202.863
177.895
191.919
-39.0918
-40.3417
-39.8216
-41.1051
-39.0419
-40.2946
-39.7696
-41.0578
-32.5778
-32.4987
-32.6593
-32.5704
-77.1614
-81.523
-75.0868
-77.154
-42.5357
-42.7065
-42.9831
-42.5631
-42.1405
-42.3838
-42.6846
-42.2908
-37.0236
-37.2234
-37.162
-36.557
-38.5992
-38.6559
-38.7062
-39.5092
-26.8272
-24.8047
-25.6212
-25.7131
22.0562
2.81144
-75.227
113.107
-158.867
-183.864
-118.268
31.916
-67.1307
-51.9961
-55.2937
-59.4204
-37.7424
-36.908
-39.2054
-33.1094
-36.1389
-34.2637
-35.4101
-33.8523
-38.2318
-39.7353
-39.4546
-38.6141
-7.89298
15.2404
-98.2491
83.48
-111.014
-123.163
-74.2541
13.939
-49.1566
-33.2243
-43.1928
-36.5644
-36.4049
-36.5337
-38.4882
-32.584
-32.0735
-32.3683
-33.1973
-31.371
-37.6447
-39.6148
-38.6665
-37.5873
-158.328
-185.123
-118.745
33.7901
14.9513
7.0106
-75.2524
112.833
-66.9793
-51.9769
-55.2421
-59.1743
-34.3535
-32.6228
-34.1454
-31.6764
-36.0003
-35.1844
-37.7172
-31.5167
-37.306
-39.0802
-38.642
-37.8685
-112.89
-123.858
-74.2767
7.34763
-7.78769
15.2848
-98.2683
83.5371
-49.152
-33.4692
-43.207
-36.5708
-31.3847
-32.3297
-32.9694
-30.5445
-34.9069
-34.9282
-37.2035
-31.1149
-37.2578
-39.4662
-38.2817
-37.4931
-35.6848
-34.599
-22.7408
-35.6695
-33.4791
-33.1156
-34.0637
-32.9893
-38.2524
-39.6545
-40.1272
-38.4726
-33.725
-33.7372
-34.5611
-33.1173
-35.4483
-35.8175
-35.9057
-35.7389
-32.923
-32.8289
-33.1763
-32.8673
-40.3301
-39.5983
-35.2715
-39.9641
-33.8498
-34.2091
-33.8098
-34.4005
-36.5065
-26.8994
-34.9463
-11.1933
-48.3785
-44.8394
-44.7151
-47.1033
-55.3403
-53.2012
-52.4232
-62.9341
-6.67678
17.1117
19.6537
-8.91037
-45.025
-45.6473
-44.5564
-48.8865
-42.4466
-40.8758
-41.3243
-42.0962
-46.2547
-47.6137
-45.7863
-50.0556
-52.2513
-59.7301
-58.0163
-56.6746
-35.6556
-34.5802
-22.7754
-35.645
-33.7175
-33.7384
-34.5501
-33.1042
-33.4544
-33.0925
-34.0359
-32.965
-38.2332
-39.626
-40.0764
-38.4419
-35.3031
-35.5703
-35.7104
-35.5796
-33.7983
-34.1785
-33.7689
-34.3514
-32.8198
-32.7971
-33.1138
-32.828
-40.2701
-39.4675
-35.1797
-39.8762
-36.535
-26.8664
-34.93
-11.0913
-6.87552
17.1749
19.7312
-8.89984
-48.332
-44.7982
-44.681
-47.054
-55.2669
-53.145
-52.3558
-62.8755
-45.021
-45.5984
-44.5194
-48.9275
-52.2125
-59.7411
-58.0175
-56.7016
-42.4065
-40.8383
-41.2706
-42.0665
-46.2268
-47.5662
-45.7494
-50.0006
-69.4784
-50.962
-58.1259
-57.3455
169.452
187.814
194.12
162.927
-74.6158
-59.6143
-65.3851
-64.2135
136.524
191.778
150.629
151.075
-36.5055
-35.408
-40.7843
-32.2208
-45.6364
-46.7944
-49.9728
-43.277
-38.7284
-40.3296
-39.5079
-39.5182
-31.1358
-28.9528
-30.2995
-30.4475
-35.8044
-37.0113
-36.3726
-36.5182
-25.4325
-23.8026
-25.7077
-24.0568
-43.0744
-42.6514
-41.618
-42.6613
-38.8386
-37.5233
-37.6368
-37.9653
-41.2254
-23.5631
-31.9049
-31.8833
154.028
179.899
169.133
169.359
-31.9916
-33.6153
-30.1219
-36.7532
-9.71613
-5.82542
-12.7205
-2.48909
-35.6421
-37.6866
-36.7928
-36.8382
-28.7439
-26.4696
-26.7079
-27.658
-42.7755
-43.0902
-41.7237
-43.9405
-40.2542
-39.3496
-40.507
-39.5726
-69.5147
-50.9532
-58.1093
-57.3281
168.902
188.046
163.494
194.958
-36.5025
-35.4054
-40.8
-32.2195
-45.614
-46.7771
-49.9529
-43.254
-37.8222
-39.7162
-38.7835
-38.7361
-29.5277
-26.5458
-27.7627
-28.226
-42.7453
-42.3276
-41.3176
-42.2358
-38.4882
-37.3545
-37.4999
-37.7462
-32
-33.604
-36.7791
-30.0871
-9.69978
-5.80927
-2.47279
-12.7078
-42.5976
-42.8378
-43.7571
-41.4418
-40.3305
-39.4326
-39.6478
-40.5943
-36.0381
-37.3731
-36.8035
-36.6487
-32.5444
-32.5421
-32.6351
-32.5554
-39.9365
-30.2525
-34.5682
-37.3573
-41.4146
-40.8103
-40.0377
-42.2683
-36.143
-39.3302
-37.4236
-37.4267
-32.808
-32.6106
-32.7214
-32.7054
-38.8939
-39.2645
-38.2359
-39.8153
-39.9799
-40.261
-39.2682
-40.246
-33.2884
-32.8573
-33.028
-33.0363
-36.7692
-35.9724
-36.8529
-36.8329
-46.6628
-43.2703
-44.0102
-45.4494
-65.3318
-73.399
-74.235
-66.7516
26.6064
14.0424
18.4795
18.5526
-93.9865
-98.0495
-107.697
-107.717
-64.5328
-69.4779
-66.2644
-66.2649
-52.3833
-44.4434
-48.4432
-48.4617
-35.9969
-37.3256
-36.7615
-36.5959
-32.5221
-32.5242
-32.6145
-32.5351
-39.8987
-30.2655
-37.3345
-34.5519
-41.3697
-40.7651
-39.9934
-42.2213
-38.8178
-39.2043
-39.75
-38.1662
-39.8116
-40.0642
-39.0972
-40.0904
-46.6252
-43.2265
-45.4101
-43.9665
-65.2599
-73.3834
-66.7229
-74.2083
-70.2334
-57.9121
-57.6916
-51.2863
-26.0305
-41.4706
-27.3944
-31.0892
-36.0488
-39.9768
-33.4017
-37.018
-60.9125
-48.3937
-54.0567
-44.8491
-70.2367
-57.8657
-57.6769
-51.263
-60.9387
-48.4718
-54.0459
-44.8191
-36.0585
-39.9572
-33.3702
-37.0123
-26.0286
-41.4716
-27.4093
-31.1085
-75.5578
-64.3737
-65.6005
-58.4533
-75.5764
-64.3507
-65.5721
-58.4549
-36.737
-35.8196
-38.7061
-37.2524
-36.748
-35.8333
-38.7259
-37.2677
-43.2923
-34.4494
-32.3008
-25.5406
8.12699
16.2285
7.44122
15.5126
8.16501
16.2893
7.47096
15.5563
-43.2716
-34.4422
-32.2664
-25.5283
145.814
101.426
173.983
135.569
128.661
128.158
153.762
158.973
127.527
128.812
159.158
153.213
103.564
147.522
139.624
173.873
-36.6361
-37.6581
-37.1927
-38.184
-35.6779
-36.0521
-36.3946
-36.7779
-42.2164
-43.7131
-41.4476
-43.0481
-47.0015
-48.3414
-44.7847
-45.8142
-36.6003
-37.6204
-37.1536
-38.1433
-46.9487
-48.2874
-44.7369
-45.7674
-42.1636
-43.6663
-41.391
-42.9981
-35.6049
-35.9733
-36.3306
-36.7082
-32.7582
-33.0068
-32.6357
-32.7446
-32.9923
-32.7367
-32.7197
-32.6098
-33.1136
-32.8923
-32.9402
-32.8488
-32.9266
-33.1538
-32.8709
-32.9457
-93.1435
-77.9217
-91.1642
-103.62
-56.7017
-58.6241
-63.1025
-63.4775
-58.6186
-56.6655
-63.4837
-63.0664
-77.8571
-93.0915
-103.598
-91.116
-38.0514
-38.2924
-38.9703
-38.6478
-38.8954
-39.5118
-39.4695
-40.3988
-38.4927
-39.1547
-39.3627
-39.97
-42.7454
-42.5885
-42.5093
-41.2155
-37.8696
-38.1497
-38.7541
-38.4706
-42.6802
-42.5022
-42.3979
-41.0929
-37.7268
-38.6004
-38.7
-39.4813
-37.9309
-38.7034
-38.6676
-39.7275
-35.9034
-35.4034
-36.4973
-36.154
-35.761
-35.409
-36.3285
-36.0515
-36.1452
-37.3001
-36.8036
-37.737
-36.8677
-37.9398
-37.2522
-38.2833
-51.6913
-53.3612
-45.9305
-49.1454
-35.621
-36.9468
-36.8088
-37.9868
-35.604
-36.9564
-36.8779
-38.0562
-51.7615
-53.4232
-45.9961
-49.1152
-31.5466
-31.1169
-30.4071
-29.2563
-28.6822
-29.6661
-26.3021
-27.6306
-29.8985
-29.8279
-28.0652
-28.5302
-31.2701
-31.1218
-30.5086
-29.7519
-83.8489
112.898
-120.229
15.8795
-83.3864
-85.014
-40.1776
-34.8335
-36.9982
-35.8573
-38.9059
-37.4397
-89.0117
48.8568
-75.3619
-4.38302
-62.2134
-55.95
-37.7761
-32.9701
-33.6198
-32.1002
-37.4434
-35.44
-120.511
17.2658
-83.6013
112.812
-83.5238
-85.2575
-35.6084
-33.9557
-38.6839
-33.1073
-37.7565
-36.3383
-75.2878
-4.00309
-89.076
48.9753
-62.1913
-55.9328
-33.1433
-30.9552
-36.6876
-31.5658
-36.7064
-35.0857
-36.8144
-35.2535
-34.2149
-33.3782
-40.0697
-36.7693
-34.1979
-33.3223
-37.954
-34.8484
-32.9556
-33.4049
-31.0503
-40.0297
-33.6919
-34.5606
-47.1943
-33.0244
-48.9057
-51.5391
-53.9039
-68.2218
-15.6819
-82.4937
-44.8016
-47.0738
-43.7181
-44.839
-44.8206
-48.4758
-50.7075
-49.7726
-36.7089
-35.2264
-34.1801
-33.301
-34.1886
-33.3553
-40.0541
-36.7369
-37.8192
-34.7485
-33.6354
-34.4902
-32.8797
-33.3398
-30.982
-39.9108
-47.1685
-32.9559
-15.4387
-82.2934
-48.8718
-51.4785
-53.8306
-68.1457
-44.8062
-47.091
-50.7043
-49.7922
-43.6966
-44.8129
-44.8055
-48.4502
-77.106
110.69
-82.4995
74.3811
-83.1501
-88.1982
164.018
126.854
-115.294
-16.4624
-117.151
-21.1584
-88.0236
-87.9997
48.8078
49.9213
-46.9371
-50.5512
-32.8592
-38.2141
-41.595
-33.403
-48.4347
-41.7206
-38.7245
-32.6047
-38.6494
-32.4037
-38.3986
-38.2847
-31.5125
-31.5659
-34.0969
-31.3663
-33.2444
-29.6215
-34.3786
-34.6319
-27.8215
-26.5937
-41.4713
-39.5117
-38.0716
-36.8672
-42.4545
-42.3894
-37.7684
-39.4819
-77.6473
-16.9418
-77.2903
-4.48064
-55.3012
-55.236
96.7894
97.4713
-32.7262
-24.1905
-29.4884
-12.4305
-29.7255
-32.3787
-16.8776
-8.16815
-33.5654
-31.3352
-33.5352
-31.1678
-34.6121
-34.6164
-30.367
-30.687
-40.2118
-39.6513
-45.3194
-47.9746
-41.3809
-44.2043
-42.66
-40.2636
-77.1651
110.571
-82.4492
74.3528
-83.2046
-88.2331
126.594
163.846
-46.9846
-50.9005
-32.8534
-38.1828
-41.6287
-33.4003
-48.4174
-41.6843
-37.2577
-31.0834
-37.2584
-30.8862
-37.1761
-37.2444
-30.0432
-30.1349
-40.8573
-39.014
-37.7723
-36.6394
-42.0662
-41.9265
-37.5249
-39.1041
-32.6796
-24.1291
-29.4689
-12.3903
-32.369
-29.7091
-8.14693
-16.8527
-40.0096
-39.6652
-45.2538
-48.1082
-44.0988
-41.1888
-40.3214
-42.7268
-33.568
-32.741
-33.2674
-32.7028
-34.9946
-34.995
-32.5672
-32.5797
-40.9624
-39.993
-42.5275
-43.8291
-41.5148
-41.2719
-40.5888
-42.7002
-34.3841
-33.3064
-34.3889
-33.3498
-35.0835
-35.0846
-33.014
-33.0096
-37.9969
-39.6121
-40.1729
-40.7305
-38.1683
-39.5732
-39.7868
-40.4878
-33.9184
-34.7016
-33.8977
-34.6818
-33.5596
-33.5725
-35.3613
-35.3492
-50.8336
-58.4747
-47.2895
-52.4405
-46.5687
-49.0243
-62.1695
-58.0234
31.9937
-1.01998
32.097
-0.675215
33.4112
33.2623
-38.5303
-38.3981
-61.9455
-57.9317
-61.953
-57.9393
-62.9012
-62.9057
-55.3574
-55.3628
-33.5385
-32.7145
-33.2176
-32.6711
-34.9636
-34.9416
-32.542
-32.5523
-40.92
-39.9605
-42.4879
-43.785
-41.2313
-41.4733
-40.5484
-42.6549
-37.8813
-39.5952
-40.0755
-40.8429
-39.4879
-38.0766
-39.8155
-40.5973
-50.7969
-58.4231
-47.2476
-52.393
-48.9919
-46.532
-57.98
-62.1264
-44.29
-43.4
-39.4169
-31.5284
-29.1922
-37.9173
-29.0337
-27.9854
-44.2974
-43.4027
-39.4134
-31.5261
-37.9131
-29.1182
-28.0392
-29.0506
-55.0396
-55.0075
-50.5615
-43.9301
-50.4544
-43.9161
-41.5139
-41.5275
-16.4417
-16.4299
-10.7314
0.761933
0.779122
-10.716
7.68376
7.69607
202.394
173.762
205.247