# vtk DataFile Version 2.0
tet_velo
ASCII
DATASET UNSTRUCTURED_GRID
POINTS 29498 float
-0.835 0.265 -2.42636
-0.775 0.335 2.54626
-0.807288 0.705 -2.345
-0.783763 0.805 2.485
0.835 0.265 -2.42636
0.775 0.335 2.54623
0.807282 0.705 -2.345
0.783761 0.805 2.485
-0.837021 0.266312 -0.76882
-0.841313 0.265354 0.88872
-0.823823 0.76271 -0.735
-0.833025 0.813087 0.875
0.837021 0.266313 -0.76883
0.841276 0.265391 0.8887
0.823828 0.76272 -0.735
0.833027 0.813092 0.875
-1.66574 -0.00613553 -3.74703
-1.66474 0.0161034 -2.44003
-1.66703 0.0172793 -0.781266
-1.66163 0.0181328 0.88707
-1.62112 0.0632455 2.54664
-1.60802 0.0948911 3.85758
-1.60988 0.117957 5.16121
-1.66344 0.231911 -3.72343
-1.66165 0.260478 -2.42164
-1.66646 0.270853 -0.772117
-1.65992 0.273302 0.881682
-1.60148 0.31478 2.53211
-1.59398 0.345438 3.84238
-1.60184 0.368512 5.14756
-1.6514 0.694477 -3.66291
-1.64213 0.721732 -2.35915
-1.65433 0.768983 -0.742038
-1.65326 0.80294 0.871706
-1.60391 0.808464 2.48973
-1.59468 0.837466 3.80197
-1.60068 0.865408 5.11482
-1.64481 1.42367 -3.60787
-1.64143 1.45745 -2.31122
-1.64496 1.51342 -0.709524
-1.6476 1.56134 0.881929
-1.63798 1.58488 2.48412
-1.62737 1.60142 3.78181
-1.62106 1.62248 5.08947
-0.838041 -0.00351102 -3.75009
-0.834265 0.0200624 -2.44451
-0.835208 0.0151664 -0.78067
-0.84024 0.0133089 0.893074
-0.811334 0.0734627 2.55714
-0.799794 0.102234 3.8647
-0.800476 0.12175 5.16533
-0.838704 0.232366 -3.72438
-0.785699 0.353076 3.84825
-0.793302 0.372073 5.15067
-0.829075 0.687652 -3.65703
-0.786667 0.838275 3.80102
-0.792032 0.866529 5.11461
-0.820554 1.41832 -3.60205
-0.816205 1.45203 -2.30482
-0.819414 1.51196 -0.705666
-0.826435 1.56389 0.881463
-0.823773 1.5861 2.48081
-0.81496 1.60148 3.7785
-0.808342 1.62247 5.08706
0.822264 -0.00350837 -3.7501
0.833772 0.020064 -2.44451
0.836514 0.0151719 -0.780679
0.825617 0.0133348 0.893057
0.783693 0.0734727 2.55712
0.79688 0.102242 3.86468
0.809027 0.121759 5.16532
0.817341 0.232368 -3.72438
0.798445 0.353082 3.84823
0.811231 0.372081 5.15065
0.809902 0.687654 -3.65704
0.801927 0.838279 3.80101
0.813598 0.866536 5.1146
0.824571 1.41832 -3.60206
0.828892 1.45204 -2.30482
0.829742 1.51197 -0.705669
0.819581 1.5639 0.88146
0.806726 1.58611 2.48081
0.808387 1.60149 3.7785
0.814862 1.62248 5.08706
1.65226 -0.00612874 -3.74703
1.66303 0.0161098 -2.44004
1.66752 0.0172937 -0.781282
1.65454 0.0181705 0.887042
1.6093 0.0632713 2.54661
1.60793 0.0949109 3.85755
1.6187 0.117977 5.16119
1.64772 0.231916 -3.72344
1.6602 0.260483 -2.42164
1.66707 0.270864 -0.772131
1.6616 0.273342 0.881656
1.60573 0.314802 2.53208
1.60586 0.345455 3.84235
1.61884 0.36853 5.14754
1.63826 0.694483 -3.66291
1.64217 0.721739 -2.35915
1.65609 0.768996 -0.742043
1.6562 0.80296 0.871696
1.60986 0.80848 2.48971
1.6095 0.83748 3.80195
1.6214 0.865424 5.1148
1.64838 1.42369 -3.60787
1.65227 1.45746 -2.31123
1.65425 1.51343 -0.70953
1.64441 1.56135 0.881921
1.62779 1.5849 2.48411
1.6249 1.60144 3.7818
1.62935 1.6225 5.08945
-0.793152 0.485 -2.35769
0 0.213134 -2.47823
-0.852136 0.249531 -1.59759
-0.79267 0.57 2.52892
0 0.351513 2.52973
-0.818945 0.289389 1.71749
-3.01003e-06 0.756069 -2.39607
-0.826256 0.744556 -1.54
-9.83477e-07 0.749837 2.42984
-0.818313 0.818962 1.68
0.79308 0.485 -2.35762
0.861655 0.240012 -1.59759
0.792683 0.57 2.52892
0.81895 0.289383 1.71747
0.826276 0.744581 -1.54
0.818307 0.818959 1.68
-0.835452 0.269548 0.0599501
-0.878026 0.514511 -0.75191
-1.41587e-07 0.153057 -0.768825
-0.880501 0.53922 0.88186
-1.87738e-05 0.131024 0.88871
-0.833399 0.792873 0.0699999
2.54398e-06 0.963853 -0.735
9.93621e-07 1.28412 0.875
0.835455 0.269545 0.0599351
0.878027 0.514516 -0.751915
0.880512 0.539242 0.88185
0.833397 0.792875 0.0699999
-0.866559 0.499756 -1.5688
-0.878866 0.526866 0.064975
-0.876153 0.55461 1.69875
-7.07935e-08 0.130874 -1.59759
-9.45769e-06 0.152686 0.0599426
-9.38689e-06 0.215319 1.71748
-1.50502e-06 0.485 -2.3447
-4.91738e-07 0.57 2.42263
-2.33026e-07 0.841048 -1.54
1.7688e-06 1.29509 0.0699999
5.07238e-09 0.891129 1.68
0.883377 0.499758 -1.5688
0.878868 0.526879 0.0649675
0.876151 0.554621 1.69873
-1.24832 0.262739 -2.424
-0.834632 0.142531 -2.43544
-0.836852 0.248683 -3.07537
-1.18824 0.32489 2.53919
-0.793167 0.204231 2.5517
-0.78035 0.344038 3.19726
-1.22471 0.713366 -2.35207
-0.818182 0.696326 -3.00102
-0.811746 1.07852 -2.32491
-1.19384 0.806732 2.48736
-0.785215 0.821637 3.14301
-0.803768 1.19555 2.48291
0.834386 0.142532 -2.43544
0.82617 0.248684 -3.07537
1.2476 0.262741 -2.424
0.779346 0.204236 2.55168
0.786722 0.344041 3.19723
1.19037 0.324901 2.53915
0.808592 0.696327 -3.00102
0.818087 1.07852 -2.32491
1.22472 0.713369 -2.35208
0.792844 0.82164 3.143
0.795243 1.19556 2.4829
1.19681 0.80674 2.48736
-1.25174 0.268583 -0.770469
-0.836114 0.140739 -0.774745
-1.25062 0.269328 0.885201
-0.840776 0.139331 0.890897
-1.23908 0.765846 -0.738519
-0.821619 1.13734 -0.720333
-1.24314 0.808013 0.873353
-0.82973 1.18849 0.878232
0.836767 0.140742 -0.774755
1.25204 0.268588 -0.770481
0.833447 0.139363 0.890878
1.25144 0.269366 0.885178
0.826785 1.13734 -0.720334
1.23996 0.765858 -0.738522
0.826304 1.1885 0.87823
1.24461 0.808026 0.873348
-1.66524 0.00498393 -3.09353
-1.66459 0.112888 -3.73523
-1.25189 -0.00482328 -3.74856
-1.66589 0.0166913 -1.61065
-1.6632 0.138291 -2.43084
-1.2495 0.0180829 -2.44227
-1.66433 0.017706 0.0529021
-1.66674 0.144066 -0.776692
-1.25112 0.0162229 -0.780968
-1.64138 0.0406892 1.71686
-1.66077 0.145717 0.884376
-1.25093 0.0157209 0.890072
-1.61457 0.0790683 3.20211
-1.6113 0.189013 2.53938
-1.21623 0.0683541 2.55189
-1.60895 0.106424 4.5094
-1.601 0.220165 3.84998
-1.2039 0.0985625 3.86114
-1.60586 0.243235 5.15439
-1.20518 0.119853 5.16327
-1.66255 0.246194 -3.07254
-1.65742 0.463194 -3.69317
-1.25107 0.232138 -3.72391
-1.66405 0.265665 -1.59688
-1.65189 0.491105 -2.39039
-1.66319 0.272077 0.0547823
-1.66039 0.519918 -0.757078
-1.6307 0.294041 1.7069
-1.65659 0.538121 0.876694
-1.59773 0.330109 3.18725
-1.6027 0.561622 2.51092
-1.59791 0.356975 4.49497
-1.59433 0.591452 3.82217
-1.18984 0.349257 3.84532
-1.60126 0.61696 5.13119
-1.19757 0.370292 5.14911
-1.64677 0.708104 -3.01103
-1.64811 1.05908 -3.63539
-1.24024 0.691064 -3.65997
-1.64823 0.745357 -1.55059
-1.64178 1.08959 -2.33519
-1.65379 0.785961 0.0648337
-1.64964 1.1412 -0.725781
-1.62858 0.805702 1.68072
-1.65043 1.18214 0.876817
-1.59929 0.822965 3.14585
-1.62094 1.19667 2.48693
-1.59768 0.851437 4.45839
-1.61102 1.21944 3.79189
-1.19067 0.83787 3.80149
-1.61087 1.24394 5.10214
-1.19636 0.865968 5.11471
-1.64312 1.44056 -2.95954
-1.23268 1.421 -3.60496
-1.6432 1.48544 -1.51037
-1.22882 1.45474 -2.30802
-1.64628 1.53738 0.0862023
-1.23219 1.51269 -0.707595
-1.64279 1.57311 1.68303
-1.23702 1.56262 0.881696
-1.63267 1.59315 3.13297
-1.23087 1.58549 2.48247
-1.62422 1.61195 4.43564
-1.22117 1.60145 3.78016
-1.2147 1.62248 5.08827
-0.836153 0.00827569 -3.0973
-0.838373 0.114427 -3.73724
-0.00788852 -0.0035097 -3.75009
-0.834736 0.0176144 -1.61259
-0.000246249 0.0200632 -2.44451
-0.837724 0.0142377 0.0562022
0.000653005 0.0151692 -0.780674
-0.825787 0.0433858 1.72511
-0.00731115 0.0133218 0.893065
-0.805564 0.0878483 3.21092
-0.0138208 0.0734677 2.55713
-0.800135 0.111992 4.51502
-0.792747 0.227655 3.85648
-0.00145682 0.102238 3.86469
-0.796889 0.246911 5.158
0.00427559 0.121754 5.16533
-0.83389 0.460009 -3.69071
-0.0106817 0.232367 -3.72438
-0.789501 0.362575 4.49946
-0.786183 0.595676 3.82464
0.00637289 0.353079 3.84824
-0.792667 0.619301 5.13264
0.00896418 0.372077 5.15066
-0.824815 1.05298 -3.62954
-0.0095864 0.687653 -3.65703
-0.78935 0.852402 4.45781
-0.800814 1.21988 3.78976
0.00762976 0.838277 3.80101
-0.800187 1.2445 5.10084
0.0107829 0.866533 5.1146
-0.818379 1.43517 -2.95344
0.00200839 1.41832 -3.60206
-0.817809 1.482 -1.50524
0.00634368 1.45203 -2.30482
-0.822924 1.53793 0.0878987
0.0051639 1.51196 -0.705667
-0.825104 1.575 1.68114
-0.00342702 1.5639 0.881462
-0.819367 1.59379 3.12966
-0.00852389 1.58611 2.48081
-0.811651 1.61198 4.43278
-0.00328695 1.60149 3.7785
0.00326003 1.62248 5.08706
0.828018 0.00827783 -3.0973
0.819803 0.11443 -3.73724
1.23726 -0.00481856 -3.74856
0.835143 0.017618 -1.6126
1.2484 0.0180869 -2.44228
0.831066 0.0142533 0.0561887
1.25201 0.0162328 -0.780981
0.804655 0.0434037 1.72509
1.24008 0.0157526 0.890049
0.790286 0.0878574 3.2109
1.1965 0.068372 2.55186
0.802954 0.112001 4.515
0.797663 0.227662 3.85646
1.20241 0.0985765 3.86112
0.810129 0.24692 5.15799
1.21387 0.119868 5.16325
0.813621 0.460011 -3.69071
1.23253 0.232142 -3.72391
0.804838 0.362581 4.49944
0.800186 0.595681 3.82462
1.20215 0.349268 3.84529
0.812414 0.619309 5.13263
1.21503 0.370305 5.14909
0.817237 1.05299 -3.62955
1.22408 0.691068 -3.65997
0.807762 0.852408 4.4578
0.805157 1.21989 3.78975
1.20571 0.83788 3.80148
0.81423 1.24451 5.10083
1.2175 0.86598 5.1147
0.826731 1.43518 -2.95344
1.23648 1.421 -3.60496
0.829317 1.482 -1.50525
1.24058 1.45475 -2.30802
0.824661 1.53794 0.0878958
1.242 1.5127 -0.707599
0.813153 1.57501 1.68114
1.23199 1.56263 0.88169
0.807556 1.5938 3.12965
1.21726 1.58551 2.48246
0.811624 1.61199 4.43278
1.21664 1.60146 3.78015
1.2221 1.62249 5.08825
1.65765 0.00499055 -3.09354
1.64999 0.112894 -3.73523
1.66527 0.0167018 -1.61066
1.66162 0.138296 -2.43084
1.66103 0.0177321 0.0528801
1.66729 0.144079 -0.776707
1.63192 0.0407209 1.71683
1.65807 0.145756 0.884349
1.60862 0.0790911 3.20208
1.60752 0.189037 2.53934
1.61332 0.106444 4.50937
1.6069 0.220183 3.84995
1.61877 0.243253 5.15436
1.65396 0.2462 -3.07254
1.64299 0.4632 -3.69318
1.66363 0.265673 -1.59689
1.65118 0.491111 -2.3904
1.66433 0.272103 0.0547626
1.66158 0.51993 -0.757087
1.63366 0.294072 1.70687
1.6589 0.538151 0.876676
1.6058 0.330129 3.18721
1.6078 0.561641 2.5109
1.61235 0.356992 4.49494
1.60768 0.591467 3.82215
1.62012 0.616977 5.13117
1.64021 0.708111 -3.01103
1.64332 1.05908 -3.63539
1.64913 0.745368 -1.5506
1.64722 1.0896 -2.33519
1.65615 0.785978 0.0648264
1.65517 1.14121 -0.725787
1.63303 0.80572 1.68071
[...]
POINT_DATA 29498
VECTORS point_vectors float
-2.5931 -1.52763 4.27436
0.164095 0.559986 2.03289
-5.07088 4.97425 9.53833
-0.00707046 -0.216726 1.36312
2.56524 -1.49183 4.18753
-0.147788 0.54753 1.99949
5.0352 4.95355 9.48384
0.014049 -0.196999 1.33329
0.015627 -0.0245415 0.671687
0.0256685 -0.0350894 1.06534
0 0 0
0 0 0
-0.0133963 -0.0221697 0.656553
-0.0284694 -0.0219408 1.14525
0 0 0
0 0 0
-0.451922 -0.129172 19.8719
-1.13046 -0.443626 20.3837
-0.445082 -0.345195 21.2208
0.117849 -0.0946492 21.4671
0.663872 0.149656 21.2998
0.835711 0.186212 20.8411
1.0176 0.092163 20.4802
-0.487266 -0.0761977 19.8221
-1.37323 -0.342586 20.3554
-0.544633 -0.399073 21.2396
0.12112 -0.174724 21.5253
0.772484 -0.00492054 21.3532
0.931554 0.0225266 20.9879
0.695558 -0.153316 21.034
-0.535193 0.0522744 19.8003
-1.53173 0.111874 20.3566
-0.947855 -0.313494 21.2185
-0.0665574 -0.26815 21.5865
0.705966 -0.276874 21.3647
0.841549 -0.325714 21.0952
0.597488 -0.332808 20.3234
-0.421997 0.24041 19.9176
-0.913385 0.497168 20.343
-0.891708 0.259759 21.087
-0.201245 -0.0886322 21.4939
0.344009 -0.349265 21.2394
0.414844 -0.451465 20.7539
0.299239 -0.340642 20.6934
-0.434146 -0.27734 19.4338
-2.86033 -3.67005 20.4284
-0.120521 -0.204465 17.9006
0.459579 0.231874 17.1034
0.934613 1.04514 16.5971
1.29413 1.28607 16.545
0.853014 0.930942 17.6429
-0.502139 -0.192854 19.2948
1.63466 1.13913 13.3686
1.20644 0.574515 14.655
-0.578236 0.139503 19.1627
1.77568 -0.238258 9.77068
0.837143 -0.26346 14.3825
-0.406295 0.485928 19.5239
-1.26514 1.78153 20.1291
-1.89883 1.66282 20.9417
-0.383129 0.0341646 22.0863
0.275986 -0.789625 21.2835
0.381521 -0.939556 20.5322
0.363332 -0.695878 20.2299
0.42927 -0.276727 19.4339
2.86202 -3.68098 20.4003
0.121444 -0.185852 17.6528
-0.448514 0.255013 16.6319
-0.877171 1.02691 15.9275
-1.26649 1.21932 16.2926
-0.897705 0.903816 17.4813
0.502621 -0.1909 19.2663
-1.65446 1.04591 13.5822
-1.29125 0.426465 15.1231
0.569695 0.135084 19.1424
-1.70309 -0.12932 10.8468
-0.546832 -0.221153 14.8107
0.407066 0.486439 19.5206
1.26266 1.74857 20.1296
1.89286 1.62404 20.9508
0.383746 0.0345376 22.0864
-0.270286 -0.793795 21.2899
-0.377491 -0.942792 20.5693
-0.378541 -0.670992 20.2369
0.451053 -0.134394 19.8554
1.13385 -0.447294 20.3778
0.440354 -0.345234 21.2225
-0.122159 -0.0940118 21.46
-0.665994 0.151109 21.2766
-0.771382 0.167023 20.9243
-1.0025 0.0503073 20.2821
0.487533 -0.0775264 19.8157
1.3824 -0.341291 20.3486
0.537602 -0.398955 21.2429
-0.12742 -0.172436 21.5284
-0.760868 -0.00838771 21.3281
-0.867946 -0.00453942 20.7712
-0.996688 -0.177609 20.4861
0.534666 0.0550055 19.7848
1.536 0.116197 20.3543
0.939921 -0.312196 21.2205
0.0629532 -0.267419 21.5833
-0.685977 -0.272311 21.3392
-0.855306 -0.266665 20.9186
-1.01008 -0.17414 20.4705
0.423208 0.239175 19.9133
0.909617 0.491112 20.348
0.881898 0.253234 21.088
0.198891 -0.0905059 21.4928
-0.344848 -0.354005 21.2259
-0.413125 -0.442762 20.8879
-0.278187 -0.313387 20.7158
-1.76666 0.241474 1.21236
0.0184468 -2.06661 2.90307
0.108586 0.137162 1.49621
-0.147439 -0.0524834 0.221742
-0.0192345 -0.0791547 -0.0159731
0.087845 0.0902263 1.04164
-0.000426393 2.51819 2.4645
-0.284167 -0.130296 0.871484
-0.0353895 0.247474 -0.0805114
0.0192144 0.0164176 0.0755989
1.77729 0.233074 1.20589
0.0144818 -0.00952842 0.491729
0.157061 -0.0468113 0.220511
-0.0431424 0.100264 1.25399
0.201467 -0.0790252 0.601994
-0.019925 0.0172075 0.0757164
0.000978759 0.0342253 0.7943
4.77625e-06 -3.70042e-05 0.000702798
-0.000213214 2.60216e-06 0.013004
0 0 0
-0.00211283 -0.0117698 0.123573
0 0 0
0.000972581 -0.0062862 -0.00684911
5.39711e-05 -0.00653623 0.0832145
-0.000448925 0.0349283 0.764614
-7.00893e-06 -5.16702e-05 0.00102103
0 0 0
0 0 0
0.00401995 -0.00203739 0.0256132
0 0 0
0.00271487 0.00570645 0.0639933
0.0020461 -0.00706192 0.0421552
-7.01255e-05 1.92937e-05 0.0276489
-8.82804e-05 0.000567848 0.0114349
0.000404964 0.246869 0.165772
0 0 0
-1.43993e-07 2.36338e-06 0.000134227
2.75333e-06 0.000737008 0.0219465
-2.3481e-07 4.21872e-06 -4.45497e-05
0 0 0
2.10052e-19 2.21187e-18 1.19201e-17
-0.00280126 0.00663267 0.0664572
-2.65763 -0.991428 20.3702
-4.63578 -5.45533 20.5905
-1.52149 -0.748858 18.2779
1.25345 0.34067 19.6635
0.872725 0.96292 11.4408
1.09293 1.04888 9.97255
-3.18648 0.552387 20.2834
-1.85463 0.622646 17.901
-2.61459 3.05126 20.1809
1.07638 -0.326376 19.5042
0.948978 -0.179314 7.32543
0.959261 -0.494833 15.2888
4.65854 -5.48556 20.5532
1.52054 -0.759847 18.2317
2.67699 -0.996711 20.3557
-0.817826 0.937256 10.869
-1.04494 1.03818 10.0676
-1.22843 0.326476 19.6656
1.85045 0.632664 17.8542
2.60742 3.0239 20.1781
3.19083 0.561449 20.2729
-0.960782 -0.1119 7.4894
-0.97643 -0.478505 15.0633
-1.05554 -0.326189 19.5326
-0.379624 -0.792142 21.2351
0.419465 -0.193497 9.97317
0.349199 -0.178737 20.7616
0.704467 0.0267163 11.5633
-1.5447 -0.802295 21.0416
-3.85051 1.29445 19.2068
-0.0960492 -0.517056 20.6086
0.291873 0.653109 13.9886
-0.367836 -0.168934 9.64084
0.365837 -0.784152 21.231
-0.71493 0.101817 10.9405
-0.360219 -0.173542 20.7693
3.8291 1.25379 19.2767
1.53502 -0.812854 21.0439
-0.314515 0.674097 13.7656
0.0887088 -0.524915 20.6205
-0.829785 -0.29806 19.951
-0.472787 -0.113911 19.8531
-0.489395 -0.193019 19.6712
-0.793511 -0.402995 21.0064
-1.21798 -0.412085 20.3785
-1.88227 -1.1388 20.3842
-0.144614 -0.238129 21.3754
-0.486537 -0.357146 21.234
-0.305293 -0.432998 21.4042
0.400051 0.0393761 21.413
0.118339 -0.119231 21.4788
0.310827 0.017004 21.5377
0.749671 0.195491 21.0926
0.725905 0.0780894 21.3172
1.01781 0.517332 21.0474
0.655703 -0.00182802 20.5889
0.922941 0.100586 20.9861
1.29212 0.395754 20.6192
0.856581 -0.0305764 20.7571
0.888661 0.54125 20.9161
-0.928242 -0.193292 19.8808
-0.523742 -0.0111538 19.8
-0.550871 -0.135417 19.5861
-0.945669 -0.383178 21.0198
-1.46765 -0.123509 20.3534
-0.207101 -0.310761 21.4291
-0.735915 -0.382376 21.2297
0.462775 -0.0639767 21.5025
0.0326069 -0.247663 21.5754
0.919701 0.0322263 21.0837
0.78137 -0.149206 21.4145
0.95643 -0.121515 21.1373
0.912562 -0.123929 20.9979
1.61363 0.239359 19.3435
0.60596 -0.277462 21.1073
0.729508 0.197039 20.6952
-1.01592 0.0925098 19.8468
-0.507732 0.168373 19.8237
-0.61581 0.0876831 19.5139
-1.20135 -0.118942 20.9618
-1.26754 0.391216 20.3451
-0.53303 -0.314601 21.4958
-1.02141 -0.00384629 21.1606
0.353423 -0.248848 21.5357
-0.170137 -0.18298 21.5577
0.836549 -0.292373 21.1063
0.505805 -0.382235 21.2599
0.805793 -0.298796 21.1031
0.708295 -0.390885 20.9103
1.41384 -0.5069 19.8362
0.477038 -0.361676 20.2687
0.538178 -0.540941 19.7698
-0.689183 0.398852 20.0174
-0.462039 0.351171 19.7319
-0.943218 0.407463 20.7509
-1.22632 0.970791 20.2553
-0.616318 0.0896798 21.3978
-1.40834 0.62749 21.1307
0.113787 -0.245064 21.4041
-0.30496 -0.0577901 21.7184
0.442605 -0.400587 21.18
0.353981 -0.530478 21.3296
0.372778 -0.353203 20.8813
0.513773 -0.601598 21.1229
0.432574 -0.531901 20.5996
-1.165 -1.03668 18.8652
-0.465741 -0.245755 19.3743
-0.00276788 -0.454111 19.0689
-1.03503 -0.637183 20.0888
0.0050509 -6.32226 21.2972
0.203838 -0.0111303 16.9925
-0.021095 -0.135341 11.3881
0.710075 0.619321 16.5609
-0.0616124 -0.121559 10.2677
1.094 1.29495 17.4552
-0.0653426 0.590672 9.38042
1.09587 0.791405 17.4346
1.54007 1.37147 14.7548
-0.0369626 1.22426 11.039
1.25113 0.76193 15.0086
0.00125568 0.652361 13.2849
-0.558578 -0.0333603 19.2045
-0.0113614 -0.282051 18.9094
1.73825 0.64463 11.8359
1.82235 0.416637 10.3008
0.103433 0.257057 1.69664
1.10894 0.198307 14.1018
0.00469006 0.265207 10.9133
-0.515024 0.371562 19.3069
-0.00991624 0.185233 18.7302
1.52108 -0.164514 13.5828
1.03822 -1.07025 18.2731
0.0970591 -0.619323 -1.03751
0.357527 -0.719379 19.3464
0.0284544 -0.492329 6.19821
-0.867233 1.19741 19.4206
-0.00217392 0.635612 19.2701
-1.33502 1.39066 20.6465
0.0103075 2.75485 20.0282
-1.31947 0.866391 22.1719
0.0224755 3.77762 20.1651
0.0741772 -0.533785 21.6855
-0.00156748 0.227105 20.183
0.373761 -0.90153 21.1043
0.000530379 -0.640463 19.0232
0.305855 -0.805785 20.5435
0.0110884 -1.04977 19.0102
0.0299194 -0.38197 15.2751
1.15953 -1.04497 18.8434
0.461554 -0.243599 19.3643
0.488633 -0.205456 19.6656
1.16195 -0.897613 20.336
1.89148 -1.15291 20.3735
-0.206429 -0.00658212 16.6245
0.295419 -0.426759 21.4007
-0.689548 0.613881 16.0154
-0.316818 0.0328071 21.5063
-1.03832 1.26658 17.038
-1.01655 0.532431 20.9731
-1.03064 0.868339 16.3564
-1.51713 1.29439 14.7283
-1.17555 0.502717 20.9651
-1.14151 0.772333 15.392
-0.858063 0.601516 21.0286
0.554782 -0.03238 19.1787
0.552734 -0.139219 19.5706
-1.43393 0.74958 13.1368
-1.76406 0.444217 11.126
-1.54058 0.265217 19.652
-1.18741 -0.000368783 14.6059
-1.08329 0.0401416 20.7007
0.507596 0.374407 19.3018
0.622209 0.0869439 19.4977
-1.42382 -0.199133 13.1694
-1.2196 -1.00007 18.3944
-1.37588 -0.567416 20.3275
-0.213051 -0.659925 19.5899
-0.508343 -0.476973 19.8665
0.869896 1.1926 19.4253
0.463825 0.3492 19.7331
1.33681 1.37642 20.6518
1.22111 0.95106 20.2577
1.31822 0.862492 22.1693
1.39278 0.609675 21.1318
-0.0687031 -0.542056 21.7024
0.304838 -0.0599765 21.7216
-0.375987 -0.899098 21.101
-0.354037 -0.532144 21.3342
-0.385901 -0.787453 20.566
-0.535998 -0.593976 20.9559
-0.359976 -0.513501 20.6452
0.830501 -0.299979 19.9275
0.473166 -0.11902 19.8407
0.802833 -0.409187 21.0084
1.22261 -0.411986 20.3785
0.138752 -0.237601 21.3761
0.481979 -0.358626 21.2355
-0.405834 0.0408611 21.4148
-0.122563 -0.120525 21.4764
-0.751537 0.182723 21.1141
-0.723511 0.072871 21.3032
-0.837831 0.0969364 20.5565
-0.820839 0.0903081 20.8559
-0.999595 -0.0636507 20.3841
0.936196 -0.197209 19.8747
0.524498 -0.0102223 19.7868
0.952726 -0.381984 21.0277
1.47278 -0.122799 20.3481
0.204944 -0.310585 21.4251
0.728689 -0.382707 21.2329
-0.456629 -0.0662681 21.4926
-0.0375885 -0.245025 21.5741
-0.896593 0.0170221 21.1379
-0.767418 -0.141475 21.3569
-0.750708 -0.0104361 20.9939
-0.897436 -0.12871 20.7243
-0.973265 -0.271275 20.5174
1.02318 0.0950567 19.8389
0.506772 0.173683 19.8157
1.20413 -0.114433 20.9691
1.26123 0.393073 20.3435
0.527592 -0.313145 21.4942
1.01129 -0.00175057 21.1615
-0.350826 -0.247064 21.5312
0.16486 -0.184059 21.5569
-0.817958 -0.297444 21.1603
-0.497958 -0.376825 21.2437
-0.779205 -0.307676 20.6822
-0.626793 -0.407216 20.6841
-0.635011 -0.223682 20.5854
0.687001 0.398379 20.0234
0.938317 0.403812 20.7539
0.612621 0.0869491 21.3979
-0.113848 -0.245929 21.4001
-0.436337 -0.404091 21.1024
-0.362867 -0.341876 20.8169
-0.863224 -0.254031 19.9282
-1.35662 -0.962253 18.5669
-1.10163 -0.543797 19.5627
-1.30639 -0.40046 19.3519
-0.515732 -0.171845 19.6328
-2.26732 -1.14463 20.376
-0.862375 -0.383563 21.0032
-0.158513 -0.0291551 12.5565
-0.898814 -0.664069 21.3299
-1.05462 -0.841819 21.4708
-0.267082 -0.586557 21.4202
-0.165939 -0.259126 21.3869
0.353928 0.0104818 10.2885
0.0356082 -0.210001 21.5201
0.0456913 -0.49027 20.9668
0.373197 -0.0766001 21.2963
0.442231 -0.0019991 21.4458
0.588951 0.558472 10.5382
0.67626 0.287063 21.3935
0.823299 0.136007 20.2749
1.15823 0.434382 20.7404
0.846273 0.116675 21.012
1.23628 1.30773 13.8248
1.15505 0.607327 20.9258
1.48688 0.398588 19.819
1.50787 0.337073 19.7014
0.806066 -0.0616715 20.8631
1.56678 0.711282 14.3283
0.978941 0.356864 21.9508
1.31083 0.22918 18.5168
0.780222 0.386745 20.9327
-1.02717 -0.0510908 19.8428
-1.81726 -0.16764 17.8134
-1.54881 0.25638 19.2055
-0.600176 -0.0177124 19.5298
-3.3242 -0.383991 20.3708
-1.0919 -0.282773 21.0224
-1.83456 -0.180112 21.3084
-0.952817 -0.952071 20.703
-0.361553 -0.364625 21.4934
-0.758179 -0.782277 20.9777
0.177331 -0.386661 20.0158
0.41443 -0.178592 21.5341
0.608574 -0.300049 19.9167
1.24766 0.0118321 18.9959
0.944871 -0.128451 21.1986
0.890313 0.441492 5.79765
1.26474 -0.474658 19.8603
1.57488 -0.0384154 19.4216
0.972561 -0.253048 21.1904
1.83324 0.329327 10.7194
1.13067 -0.590763 19.9771
0.63054 -0.183729 20.2445
-0.886927 0.303568 19.9045
-1.34711 1.25537 18.7465
-0.876305 0.692449 19.7695
-0.562269 0.256287 19.5937
-1.96845 1.03471 20.2459
-1.15661 0.18656 20.8479
-2.30001 1.3897 20.9311
-1.26102 0.749225 20.7351
-1.91205 0.136319 21.2505
-0.644904 -0.12275 21.4748
-1.29333 0.000777973 16.3158
-0.942009 0.28263 21.6725
-0.357374 -0.235521 21.7502
0.218725 -0.284568 21.4808
0.92262 -0.0688517 14.0549
0.130695 -0.34545 21.5512
0.610488 -0.633916 21.1854
0.621524 -0.413745 21.098
1.02111 -0.841595 16.9092
0.458397 -0.635718 21.1171
0.697265 -0.682934 20.7303
0.53253 -0.316663 20.872
0.822083 -0.867931 19.601
0.346587 -0.507993 20.7091
0.436693 -0.567044 19.7299
1.34824 -0.967624 18.5299
-0.0111645 -1.74895 17.9184
-0.013938 -1.30793 16.8287
-0.0078371 -0.375264 19.0165
0.101692 -8.53887 21.4766
0.499628 -0.540007 12.3401
0.0723929 -1.07962 14.9091
-0.038677 -0.00737661 3.34926
-0.335059 0.0183581 9.79322
-0.0049095 -0.0339876 10.5382
-0.0445263 -0.132365 2.64324
-0.559414 0.472153 10.1495
0.0144907 0.433712 9.27521
-0.141584 0.17695 3.0537
-1.19309 1.25979 13.5895
-0.113307 0.77621 10.4196
-0.0300412 -0.294601 -1.39415
0.0337801 1.0705 6.02521
-1.23139 0.907398 14.3248
-0.192368 1.29128 13.0788
0.0917753 1.08461 7.48562
0.00297287 0.458784 12.0991
1.81793 -0.165275 17.7704
-0.0194243 1.15359 16.0735
-0.00836187 -0.0435585 18.7312
-0.862695 0.479091 5.91606
0.0751496 -0.641985 -2.35839
0.202145 -0.961773 -2.9934
-1.57224 0.323087 12.1106
-0.0748469 -0.786102 2.91934
0.0183769 -0.119116 8.57514
1.34205 1.25656 18.7429
0.00306508 1.71052 19.0217
0.00122882 0.523666 18.9304
0.00823736 5.11128 20.1152
2.29402 1.38087 20.9385
0.0123693 2.20613 20.4389
0.0252214 3.4841 12.9033
1.31103 -0.00962829 16.3606
0.00369154 2.22563 22.7029
0.00150678 -0.113191 1.64095
-0.941765 -0.0670692 13.7896
8.61642e-05 -0.318971 19.4803
-0.10968 0.270188 1.4065
-1.02945 -0.821362 16.9154
0.0038631 -0.962593 19.2238
0.0689408 -0.841636 9.1707
-0.953528 -0.963669 19.1745
-0.015976 -0.93244 19.9349
0.0497929 -0.606732 8.67516
0.867026 -0.259081 19.9165
1.09569 -0.561841 19.5442
1.32179 -0.410945 19.3224
0.515098 -0.181999 19.6233
2.28083 -1.15156 20.361
0.871308 -0.385937 21.0069
0.934366 -0.684391 21.3479
1.10334 -0.8339 21.4961
0.257379 -0.579394 21.4169
0.16171 -0.258992 21.3868
-0.0411766 -0.203464 21.508
-0.047556 -0.488129 20.9667
-0.38298 -0.0617006 21.252
-0.442579 -0.00299466 21.4458
-0.683707 0.298958 21.3395
-0.813556 0.125597 20.2726
-1.15155 0.438066 20.6257
-0.841814 0.0991603 21.144
-1.17949 0.590813 20.7893
-1.4595 0.343277 19.918
-1.35545 0.442909 20.2733
-0.79427 0.0432502 20.7752
-1.04 0.482288 21.1563
-1.36735 0.235717 19.3159
-0.924323 0.387889 20.9715
1.03455 -0.0484829 19.8341
1.56451 0.263663 19.1839
0.603979 -0.0194716 19.5127
3.34018 -0.37835 20.3583
1.10002 -0.281176 21.0305
1.85323 -0.168233 21.3388
0.937462 -0.956053 20.7139
0.357489 -0.3643 21.4933
0.7567 -0.788002 20.9886
-0.191252 -0.39625 20.0514
-0.412529 -0.176386 21.528
-0.606111 -0.305632 19.9551
-1.21968 0.00635005 19.0206
-0.913394 -0.122384 21.1158
-1.2513 -0.462982 19.9846
-1.54366 -0.0963735 19.6612
-0.687524 -0.205172 21.0382
-1.19934 -0.535206 19.9847
-1.00645 -0.398585 20.2179
0.884822 0.308145 19.9026
0.875465 0.686753 19.7748
0.55571 0.260899 19.5904
1.95917 1.02516 20.2451
1.15255 0.192405 20.8539
1.25272 0.733324 20.7395
1.88881 0.123588 21.2504
0.63909 -0.123146 21.4732
0.940151 0.278292 21.6697
0.354329 -0.240304 21.7508
-0.223956 -0.284182 21.4734
-0.131777 -0.349705 21.552
-0.612495 -0.628499 21.1675
-0.621303 -0.409944 21.0982
-0.462698 -0.626453 21.1338
-0.768285 -0.641677 20.7809
-0.511819 -0.325571 20.8906
-0.352724 -0.512127 20.755
-0.19594 -0.512251 20.013
-1.20243 -0.478502 19.4633
-0.91509 -0.715811 21.4029
0.093723 -0.335356 21.4137
0.777402 0.219552 21.0209
1.32136 0.517646 20.5591
1.13941 0.295815 21.01
-1.52674 -0.109528 19.2048
-1.60668 -0.785415 21.6009
-0.295159 -0.756117 20.28
0.744523 -0.083076 19.4661
1.51292 -0.0650505 19.2882
1.40856 -0.0838476 17.3633
-1.21748 0.634145 19.5122
-1.68997 0.455282 20.904
-1.16366 -0.12884 21.8162
0.289016 -0.443636 21.4696
0.799844 -0.69548 20.6284
0.855406 -0.594065 19.912
-0.0118927 -1.61127 17.3539
0.108682 -0.414488 3.27729
-0.00562629 0.00136991 3.36976
-0.00923643 0.177772 3.38246
-0.159034 0.256049 3.97032
-0.0502968 1.18795 10.2822
-0.0209112 -0.290054 15.8084
0.206112 -0.912673 -3.97205
0.0983684 0.31983 3.46331
0.000714787 2.07113 17.8299
0.00709704 2.48283 20.1613
0 0 0
0.0119733 0.331252 0.554955
-0.074763 -0.431732 5.00973
-0.154054 -1.42519 9.54855
1.21011 -0.496193 19.4413
0.964833 -0.725761 21.4286
-0.0974439 -0.329077 21.3932
-0.78 0.223116 20.9606
-1.32713 0.476679 20.5447
-1.20991 0.404784 20.2228
1.5366 -0.108481 19.181
1.63722 -0.765745 21.6247
0.292089 -0.76155 20.3023
-0.736265 -0.0914111 19.5075
-1.48134 -0.0680067 19.4267
-1.2674 -0.109979 19.5863
1.21199 0.636207 19.51
1.68042 0.451505 20.9138
1.1569 -0.133379 21.8174
-0.296571 -0.444534 21.4563
-0.801065 -0.678851 20.6422
-0.9246 -0.698145 19.3909
-7.5753 -1.88464 8.15985
-0.678328 -2.99934 2.19586
-0.117256 -0.433394 3.92686
0.178788 -0.0388651 0.702197
-0.0629493 -0.00365139 0.020149
0.089456 0.0438437 1.36715
-6.81202 1.36719 4.76301
-0.653275 4.4078 3.86278
-0.269919 -0.105073 1.79795
-0.0699645 -0.0385813 0.534833
-0.077208 0.099102 -0.0673814
0.0764006 0.048449 0.441573
0.713194 -3.07637 2.29674
7.57709 -1.87085 8.15543
0.273319 -0.486307 4.57323
0.0652734 -0.0138487 0.0131051
-0.172758 -0.0389196 0.69581
-0.0994512 0.0592749 1.20146
0.673537 4.41785 3.83403
6.78636 1.35811 4.74467
0.261206 -0.0957395 1.78887
0.0722644 0.130721 -0.0869738
0.0903982 -0.0295319 0.519497
-0.0795045 0.0513588 0.439908
0.181165 -0.042816 1.10516
-0.00149126 0.0135143 0.635849
7.81765e-05 -0.00013922 0.00585777
0.000420518 -3.81856e-05 0.0083756
0.0239385 0.00795825 0.592709
-0.00503255 0.0358391 0.849386
-5.57739e-05 6.90876e-05 0.000619692
0.00317753 -0.00125927 0.125955
-0.0373557 -0.0253271 0.0657338
-0.00535414 -0.0197233 0.122261
0 0 0
0 0 0
0.0243802 0.0465108 0.134062
0.00501894 0.0231964 0.0948908
0 0 0
0.0746155 -0.039079 0.522374
-0.169582 -0.0475305 0.985786
0 0 0
0.00140962 0.0131156 0.599848
-9.50543e-05 -0.000163412 0.00662263
-0.0962254 0.00206065 0.617315
0.000816777 0.00200879 0.179253
0.00687342 0.0372007 0.803131
0.00320169 0.0041492 0.0397615
0.0379819 -0.0258317 0.0640298
0 0 0
0.00532872 -0.0196689 0.122323
0 0 0
-0.0246674 0.0473812 0.133626
-0.0744328 -0.0391476 0.522766
-0.00496461 0.0226746 0.0950454
0 0 0
-0.0103726 0.0140706 0.0461103
-0.156493 0.176514 0.0179547
-0.000110857 -0.00131884 0.0276859
0.000282902 -0.228486 0.0710902
0 0 0
0 0 0
0 0 0
0 0 0
-0.000124641 0.00114459 0.0123296
-0.0296612 0.0513011 -0.106603
0 0 0
-1.15782e-18 3.54483e-18 4.40725e-17
0 0 0
0 0 0
-0.00651459 -0.047382 0.157339
-0.0174411 0.000942619 0.0502586
0 0 0
-2.77382e-05 8.80417e-05 -0.00099377
0.00153585 0.00424246 0.0241732
4.61039e-07 2.0581e-06 -2.2102e-05
0.153053 0.17215 0.0169801
0.0105395 0.0150976 0.045836
0 0 0
3.59501e-05 0.000629292 0.0174312
0 0 0
0 0 0
0 0 0
-5.94599e-18 3.51863e-18 6.52636e-17
0.0173803 0.000926423 0.0500676
0.0147997 -0.0582651 0.297041
3.33973e-07 -6.48084e-07 6.86872e-06
-0.00155167 0.00444522 0.0238277
-0.000129387 0.000902962 0.0102777
0 0 0
9.19034e-19 -8.26147e-18 3.36556e-17
0 0 0
-0.00540017 0.0959286 0.435764
4.74402e-05 2.67845e-05 0.167773
-5.42164e-05 0.00061869 0.00332269
0 0 0
-0.000866603 0.000224471 0.198767
0.0245459 0.0950336 0.360042
0.00203428 0.00906079 0.0336536
0.080355 0.0949707 1.16882
1.35857e-05 -0.000449807 0.00164416
-8.39297e-05 0.664472 1.38784
1.25273e-05 0.000666742 0.0647904
0 0 0
0 0 0
0.00014239 0.00099272 0.0110754
0 0 0
0 0 0
3.7492e-05 0.000414591 0.00222357
-0.000502394 0.0034565 0.0229478
-0.0796526 0.0945686 1.17057
-0.00205442 0.00917014 0.0337915
-0.033122 0.0506518 0.311488
-0.00755244 -0.00641627 0.0549092
0.0215521 -0.0367951 0.168847
-0.00160333 -0.0123033 0.0474273
-2.94971e-05 0.000262277 0.0044015
0.00375284 0.0183187 0.110221
-0.000384822 0.00264391 0.0277167
0.00379693 0.0162118 0.0627099
0.000116977 0.0109974 0.114831
0 0 0
0.0022368 0.0044179 0.0641858