# vtk DataFile Version 2.0
tri_press
ASCII
DATASET UNSTRUCTURED_GRID
POINTS 3682 float
-0.835 0.265 -2.42636
-0.775 0.335 2.54626
-0.807288 0.705 -2.345
-0.783763 0.805 2.485
0.835 0.265 -2.42636
0.775 0.335 2.54623
0.807282 0.705 -2.345
0.783761 0.805 2.485
-0.837021 0.266312 -0.76882
-0.841313 0.265354 0.88872
-0.823823 0.76271 -0.735
-0.833025 0.813087 0.875
0.837021 0.266313 -0.76883
0.841276 0.265391 0.8887
0.823828 0.76272 -0.735
0.833027 0.813092 0.875
-1.66574 -0.00613553 -3.74703
-1.66474 0.0161034 -2.44003
-1.66703 0.0172793 -0.781266
-1.66163 0.0181328 0.88707
-1.62112 0.0632455 2.54664
-1.60802 0.0948911 3.85758
-1.60988 0.117957 5.16121
-1.66344 0.231911 -3.72343
-1.66165 0.260478 -2.42164
-1.66646 0.270853 -0.772117
-1.65992 0.273302 0.881682
-1.60148 0.31478 2.53211
-1.59398 0.345438 3.84238
-1.60184 0.368512 5.14756
-1.6514 0.694477 -3.66291
-1.64213 0.721732 -2.35915
-1.65433 0.768983 -0.742038
-1.65326 0.80294 0.871706
-1.60391 0.808464 2.48973
-1.59468 0.837466 3.80197
-1.60068 0.865408 5.11482
-1.64481 1.42367 -3.60787
-1.64143 1.45745 -2.31122
-1.64496 1.51342 -0.709524
-1.6476 1.56134 0.881929
-1.63798 1.58488 2.48412
-1.62737 1.60142 3.78181
-1.62106 1.62248 5.08947
-0.838041 -0.00351102 -3.75009
-0.834265 0.0200624 -2.44451
-0.835208 0.0151664 -0.78067
-0.84024 0.0133089 0.893074
-0.811334 0.0734627 2.55714
-0.799794 0.102234 3.8647
-0.800476 0.12175 5.16533
-0.838704 0.232366 -3.72438
-0.785699 0.353076 3.84825
-0.793302 0.372073 5.15067
-0.829075 0.687652 -3.65703
-0.786667 0.838275 3.80102
-0.792032 0.866529 5.11461
-0.820554 1.41832 -3.60205
-0.816205 1.45203 -2.30482
-0.819414 1.51196 -0.705666
-0.826435 1.56389 0.881463
-0.823773 1.5861 2.48081
-0.81496 1.60148 3.7785
-0.808342 1.62247 5.08706
0.822264 -0.00350837 -3.7501
0.833772 0.020064 -2.44451
0.836514 0.0151719 -0.780679
0.825617 0.0133348 0.893057
0.783693 0.0734727 2.55712
0.79688 0.102242 3.86468
0.809027 0.121759 5.16532
0.817341 0.232368 -3.72438
0.798445 0.353082 3.84823
0.811231 0.372081 5.15065
0.809902 0.687654 -3.65704
0.801927 0.838279 3.80101
0.813598 0.866536 5.1146
0.824571 1.41832 -3.60206
0.828892 1.45204 -2.30482
0.829742 1.51197 -0.705669
0.819581 1.5639 0.88146
0.806726 1.58611 2.48081
0.808387 1.60149 3.7785
0.814862 1.62248 5.08706
1.65226 -0.00612874 -3.74703
1.66303 0.0161098 -2.44004
1.66752 0.0172937 -0.781282
1.65454 0.0181705 0.887042
1.6093 0.0632713 2.54661
1.60793 0.0949109 3.85755
1.6187 0.117977 5.16119
1.64772 0.231916 -3.72344
1.6602 0.260483 -2.42164
1.66707 0.270864 -0.772131
1.6616 0.273342 0.881656
1.60573 0.314802 2.53208
1.60586 0.345455 3.84235
1.61884 0.36853 5.14754
1.63826 0.694483 -3.66291
1.64217 0.721739 -2.35915
1.65609 0.768996 -0.742043
1.6562 0.80296 0.871696
1.60986 0.80848 2.48971
1.6095 0.83748 3.80195
1.6214 0.865424 5.1148
1.64838 1.42369 -3.60787
1.65227 1.45746 -2.31123
1.65425 1.51343 -0.70953
1.64441 1.56135 0.881921
1.62779 1.5849 2.48411
1.6249 1.60144 3.7818
1.62935 1.6225 5.08945
-0.793152 0.485 -2.35769
0 0.213134 -2.47823
-0.852136 0.249531 -1.59759
-0.79267 0.57 2.52892
0 0.351513 2.52973
-0.818945 0.289389 1.71749
-3.01003e-06 0.756069 -2.39607
-0.826256 0.744556 -1.54
-9.83477e-07 0.749837 2.42984
-0.818313 0.818962 1.68
0.79308 0.485 -2.35762
0.861655 0.240012 -1.59759
0.792683 0.57 2.52892
0.81895 0.289383 1.71747
0.826276 0.744581 -1.54
0.818307 0.818959 1.68
-0.835452 0.269548 0.0599501
-0.878026 0.514511 -0.75191
-1.41587e-07 0.153057 -0.768825
-0.880501 0.53922 0.88186
-1.87738e-05 0.131024 0.88871
-0.833399 0.792873 0.0699999
2.54398e-06 0.963853 -0.735
9.93621e-07 1.28412 0.875
0.835455 0.269545 0.0599351
0.878027 0.514516 -0.751915
0.880512 0.539242 0.88185
0.833397 0.792875 0.0699999
-0.866559 0.499756 -1.5688
0.883377 0.499758 -1.5688
-7.07935e-08 0.130874 -1.59759
-2.33026e-07 0.841048 -1.54
-1.50502e-06 0.485 -2.3447
-0.878866 0.526866 0.064975
0.878868 0.526879 0.0649675
-9.45769e-06 0.152686 0.0599426
1.7688e-06 1.29509 0.0699999
-0.876153 0.55461 1.69875
0.876151 0.554621 1.69873
-9.38689e-06 0.215319 1.71748
5.07238e-09 0.891129 1.68
-4.91738e-07 0.57 2.42263
-0.866091 0.375 -2.44404
-0.4175 0.232695 -2.45866
-0.86136 0.239473 -2.01197
-0.791147 0.4525 2.5449
-0.3875 0.358747 2.52251
-0.80044 0.308727 2.13188
-0.804279 0.595 -2.3554
-0.403646 0.727988 -2.36799
-0.822136 0.730142 -1.9425
-0.79463 0.6875 2.51337
-0.391882 0.742446 2.42245
-0.803364 0.814307 2.0825
0.4175 0.233655 -2.45771
0.866106 0.375 -2.44406
0.865677 0.235156 -2.01198
0.3875 0.358751 2.52249
0.791314 0.4525 2.54505
0.800433 0.308734 2.13185
0.403639 0.728075 -2.36808
0.804223 0.595 -2.35535
0.82215 0.730162 -1.9425
0.39188 0.742434 2.42243
0.79467 0.6875 2.51341
0.803346 0.814292 2.0825
-0.864645 0.237855 -1.18321
-0.836156 0.26801 -0.354435
-0.860436 0.388955 -0.760365
-0.44165 0.163405 -0.768823
-0.833468 0.274032 1.30311
-0.834895 0.270939 0.474335
-0.878338 0.393572 0.88529
-0.43437 0.17078 0.888715
-0.825188 0.753781 -1.1375
-0.878708 0.652502 -0.743455
-0.833769 0.78295 -0.3325
-0.449872 0.939205 -0.735
-0.83101 0.821365 1.2775
-0.875404 0.685474 0.87843
-0.83056 0.800328 0.4725
-0.522256 1.26009 0.875
0.864592 0.237908 -1.18321
0.43887 0.168964 -0.768828
0.836155 0.268012 -0.354447
0.86046 0.388946 -0.760373
0.832696 0.274804 1.30308
0.433554 0.172357 0.888705
0.834908 0.270925 0.474318
0.878355 0.393586 0.885275
0.825178 0.753776 -1.1375
0.44987 0.939196 -0.735
0.878707 0.652508 -0.743458
0.833759 0.782944 -0.3325
0.831 0.821359 1.2775
0.52225 1.26008 0.875
0.87541 0.685487 0.878425
0.830503 0.800274 0.4725
-0.871082 0.492378 -1.96324
-0.396577 0.485 -2.38755
-3.53968e-08 0.197371 -2.03791
-7.52509e-07 0.349067 -2.5231
-0.855286 0.374643 -1.58319
-0.426068 0.193003 -1.59759
-0.853138 0.562305 2.11383
-0.396335 0.57 2.44335
-4.69345e-06 0.243613 2.1236
-2.45869e-07 0.460757 2.54611
-0.857264 0.421999 1.70812
-0.409477 0.221267 1.71748
-1.62153e-06 0.793921 -1.96803
-2.25753e-06 0.620535 -2.34976
-0.875346 0.622156 -1.5544
-0.413128 0.820927 -1.54
-4.89202e-07 0.857648 2.05492
-7.37607e-07 0.659919 2.41244
-0.861572 0.686786 1.68937
-0.409156 0.887521 1.68
0.871082 0.492379 -1.96321
0.396539 0.485 -2.38736
0.896501 0.369885 -1.5832
0.430827 0.184048 -1.59759
0.853182 0.56231 2.11383
0.396341 0.57 2.44336
0.857248 0.422002 1.7081
0.409471 0.222989 1.71747
0.892625 0.62217 -1.5544
0.413138 0.820916 -1.54
0.86157 0.68679 1.68937
0.409153 0.887515 1.68
-0.860619 0.396476 0.0624626
-0.44157 0.163439 0.0599464
-0.875159 0.507133 -1.16035
-0.878222 0.520688 -0.343468
-1.0619e-07 0.131519 -1.18321
-4.79964e-06 0.152659 -0.354441
-0.879446 0.533043 0.473418
-0.884386 0.546915 1.2903
-1.41157e-05 0.152707 0.474326
-1.40803e-05 0.165266 1.30309
-0.876726 0.670167 0.0674875
-0.531644 1.27387 0.0699999
1.15548e-06 0.848382 -1.1375
2.15639e-06 1.26987 -0.3325
1.38121e-06 1.29724 0.4725
4.99347e-07 0.994762 1.2775
0.860638 0.396474 0.0624513
0.4415 0.163562 0.0599388
0.875197 0.507137 -1.16036
0.878223 0.520698 -0.343474
0.879448 0.53306 0.473409
0.884392 0.546931 1.29029
0.876722 0.670172 0.0674837
0.531642 1.27387 0.0699999
-0.879053 0.374822 -1.98761
-0.880098 0.382527 -1.17178
-0.879891 0.630383 -1.14893
-0.869684 0.608578 -1.95287
0.878827 0.372442 -1.98759
0.870084 0.608585 -1.95285
0.879803 0.630394 -1.14893
0.88014 0.38015 -1.17178
-0.421784 0.20896 -2.02494
0.424164 0.209858 -2.02494
0.424669 0.174822 -1.18321
-0.422289 0.176207 -1.18321
-0.408387 0.780089 -1.95527
-0.412519 0.836849 -1.1375
0.412527 0.836846 -1.1375
0.408389 0.780088 -1.95527
-0.407038 0.362034 -2.47949
-0.400111 0.607767 -2.38295
0.400089 0.607767 -2.38296
0.407019 0.362034 -2.47935
-0.860277 0.392841 -0.348951
-0.860612 0.399457 0.473876
-0.875955 0.677765 0.472959
-0.877812 0.661382 -0.337984
0.860302 0.392833 -0.348961
0.877801 0.661383 -0.337987
0.875934 0.677764 0.472954
0.860623 0.399466 0.473863
-0.441651 0.16334 -0.354438
0.441571 0.16349 -0.354444
0.436271 0.170471 0.474322
-0.436402 0.170246 0.474331
-0.557006 1.23904 -0.3325
-0.531421 1.27593 0.4725
0.531421 1.27592 0.4725
0.556982 1.23899 -0.3325
-0.887074 0.412143 1.2967
-0.842653 0.43725 2.12285
-0.8472 0.687143 2.09817
-0.870636 0.68147 1.2839
0.879335 0.412159 1.29669
0.870615 0.681478 1.2839
0.847199 0.687145 2.09816
0.842639 0.437251 2.12284
-0.415071 0.194138 1.3031
0.415049 0.195326 1.30309
0.398485 0.278292 2.12773
-0.398489 0.237282 2.12774
-0.412834 0.978002 1.2775
-0.400519 0.851932 2.06871
0.400517 0.851917 2.06871
0.412834 0.978102 1.2775
-0.391917 0.456628 2.54709
0.391921 0.456628 2.54709
0.394111 0.673709 2.4309
-0.394108 0.673709 2.4309
-0.845494 0.32 -2.43015
-0.62625 0.246612 -2.44475
-0.823068 0.277348 -2.21917
-0.79059 0.39375 2.5531
-0.58125 0.364127 2.51713
-0.789547 0.320036 2.33907
-0.809256 0.65 -2.35367
-0.605467 0.712957 -2.35296
-0.816686 0.719545 -2.14375
-0.796987 0.74625 2.50698
-0.587822 0.737305 2.4173
-0.794396 0.810486 2.28375
0.62625 0.246574 -2.44479
0.845446 0.32 -2.4301
0.822905 0.277512 -2.21917
0.58125 0.364121 2.51711
0.789745 0.39375 2.55223
0.789548 0.320036 2.33904
0.605461 0.712965 -2.35297
0.809255 0.65 -2.35368
0.816691 0.719556 -2.14375
0.587821 0.737308 2.41731
0.797819 0.74625 2.50781
0.794385 0.810477 2.28375
-0.837868 0.265049 -0.976013
-0.836585 0.267165 -0.561628
-0.844317 0.32984 -0.764593
-0.641296 0.210938 -0.768821
-0.839597 0.267487 1.09591
-0.832941 0.273309 0.681528
-0.871191 0.32378 0.887005
-0.64712 0.199511 0.888718
-0.823914 0.757654 -0.93625
-0.864273 0.71411 -0.739228
-0.830405 0.774439 -0.53375
-0.668649 0.91456 -0.735
-0.832967 0.818176 1.07625
-0.858512 0.751429 0.876715
-0.832085 0.807 0.67375
-0.704809 1.09093 0.875
0.837864 0.265052 -0.976021
0.664756 0.164017 -0.768829
0.836585 0.267165 -0.561639
0.844317 0.329841 -0.764601
0.838418 0.268665 1.09589
0.644087 0.205528 0.888703
0.83294 0.27331 0.681509
0.871402 0.323695 0.886988
0.824159 0.757904 -0.93625
0.668651 0.914561 -0.735
0.864277 0.714119 -0.739229
0.830405 0.774444 -0.53375
0.832961 0.818173 1.07625
[...]
POINT_DATA 3682
SCALARS point_scalars float 1
LOOKUP_TABLE default
-80.4885
-40.8949
-150.97
-36.8554
-79.3572
-40.0213
-150.377
-36.0825
-31.5042
-36.6233
-41.3125
-43.5645
-31.1275
-37.1323
-41.3791
-43.5933
-7.4994
-126.638
-31.5491
-35.6671
-38.4424
-40.3465
-40.3638
-7.4994
-153.731
-32.6224
-36.0752
-38.6945
-40.2764
-38.9506
17.6154
-126.523
-37.2996
-40.2111
-37.6052
-34.9635
-34.9635
-131.795
-95.9472
-71.2537
-50.1308
-34.717
-36.9631
-36.6246
64.4928
-105.09
-32.0538
-40.9588
-39.9896
-40.3638
-40.3638
174.574
-35.7191
-35.086
162.913
-34.9635
-36.5291
-44.2684
-118.079
-79.2471
-56.2958
-35.1442
-36.6246
-36.6246
67.339
-124.782
-32.537
-42.4493
-39.1694
-39.5594
-39.5594
174.69
-34.8409
-34.3441
170.768
-34.2189
-35.7773
-44.442
-111.296
-80.0555
-56.4036
-34.4562
-35.7784
-35.7784
-6.92533
-125.634
-31.0809
-36.9124
-37.8776
-39.5295
-39.5594
-6.92533
-152.706
-32.3449
-37.2749
-38.1407
-39.4713
-36.7877
18.1529
-125.846
-37.1537
-40.3096
-36.9708
-34.2189
-34.2189
-131.124
-95.3874
-71.1628
-50.1722
-34.111
-36.2243
-35.7784
-51.7982
-172.127
-37.9553
-34.4479
-28.7802
-38.5604
-129.163
-30.1468
-30.4551
-40.3769
-53.9186
-40.4947
-33.7004
-36.8258
-30.4969
-40.3385
-35.1529
-33.9702
-36.0203
-37.7166
-37.8694
-47.0973
35.1648
-56.4787
-35.024
-33.7442
-38.1391
-47.1097
-37.5403
-40.4372
-49.2323
-19.3526
198.336
-38.3362
-38.2884
-35.5229
-83.6325
-37.5639
-37.3802
-36.8434
-40.2418
-25.6257
-69.4646
-132.168
-47.3643
-37.4729
-32.6193
-35.0807
-51.8288
-123.883
-51.8957
-35.5784
-30.9982
-36.6107
-120.696
-68.9284
-46.7688
-31.5725
-36.7194
-36.094
-116.596
-51.386
-51.3819
-30.3844
-34.7752
-36.4219
-44.2515
-34.0363
-32.4148
-35.9253
-37.234
-34.5597
-34.7782
-37.6367
-24.1696
-37.4192
-50.2483
21.0812
-46.5893
-40.6223
-42.9948
-57.2439
-42.4813
-35.672
-33.8304
-32.1432
-41.5652
-37.7225
-34.5653
-36.4155
-24.5221
20.9877
-37.3314
-50.1926
-46.4379
-57.2777
-40.6876
-43.0694
-60.5172
186.574
-63.7149
198.959
-37.3891
-45.929
-35.5073
-30.2243
-36.5097
-24.349
-38.2929
-37.821
-46.3708
200.105
-36.4083
-22.2516
-36.083
-25.633
-38.0494
-40.5088
-59.5979
186.598
-40.8738
-47.3578
-35.2428
-28.9959
-37.981
-36.8228
-38.8895
-22.3347
-37.8628
-40.575
-36.3356
-35.7865
-33.1764
-38.06
-45.1565
-35.3046
-37.1176
-39.9106
-35.6395
-42.4288
-42.2529
-71.2164
6.71184
-103.496
-64.6285
-41.3682
-36.2491
-35.6936
-32.9962
-37.9254
-37.2205
-39.2672
-42.2446
-71.2165
-52.1995
-36.7518
-31.5949
-57.9624
-51.1021
-57.2223
-31.5879
-36.0856
-65.8037
-64.9115
-41.5995
-41.2414
-53.004
-0.440261
-0.500531
-52.9315
189.22
159.674
159.785
188.68
-35.7145
-35.5776
-40.0574
-43.1473
-35.5359
-43.0813
-40.1864
-35.6813
-35.3918
-35.2614
-36.5576
-36.8469
-108.367
-57.8801
-57.8892
-108.212
-38.1953
-35.0554
-35.6523
-41.0901
-37.9504
-40.7816
-35.3651
-34.8236
-38.7781
-39.2076
-36.382
-37.6159
-42.8799
-35.6817
-35.6597
-42.9339
-30.4951
-29.0989
-29.2267
-30.2912
-66.0994
-100.241
-81.2716
-40.3306
-35.2636
-35.8089
-32.6766
-85.1576
-82.1269
-37.1604
-32.0222
-34.9951
-97.5812
-65.2548
-80.3805
-34.3436
-39.5263
-35.2864
-85.2493
-32.1234
-81.6551
-31.2507
-36.365
-34.5582
-29.9286
-32.7803
-31.6206
-31.7596
-36.734
-32.9532
-35.2534
-36.8021
-29.5072
-39.3136
-49.0806
-16.8161
-45.1098
-42.0042
-42.0853
-52.0556
-29.5351
-33.5079
-32.6428
-31.3784
-33.6702
-37.3629
-33.358
-36.6222
-29.705
-17.5008
-39.2995
-49.0447
-45.0247
-52.0853
-42.0303
-42.1736
-36.4732
-51.9044
-88.6463
157.312
-167.39
-167.471
-94.1456
116.022
-46.181
-29.9786
-37.7598
-40.3691
-35.7883
-34.57
-36.3984
-31.7355
-30.2373
-29.3617
-33.4059
-26.4053
-34.9507
-39.0004
-38.859
-39.3642
-132.399
-132.006
-81.0224
80.2026
-39.3558
-25.1997
-35.6085
-25.9033
-30.656
-30.3136
-34.5486
-26.4784
-39.042
-42.9011
-38.6325
-40.7223
-36.2275
-51.5305
-87.6788
157.454
-41.8646
-41.2234
-40.9985
-43.5752
-35.0508
-33.8162
-35.9213
-30.9445
-35.1009
-36.5497
-38.7196
-38.1886
-38.5776
-26.4889
-36.6603
-26.1058
-38.9846
-42.8644
-38.4911
-40.761
-34.9688
-34.8631
-35.6769
-35.267
-33.1678
-35.3053
-32.1288
-36.4348
-36.1841
-35.8545
-36.3212
-35.5292
-35.608
-39.2459
-36.5026
-39.9779
-38.9929
-38.7731
-35.4883
-41.4024
-49.2888
-45.0301
-44.425
-56.991
32.1129
31.9177
19.5393
32.0104
-56.7908
-56.8145
-60.4281
-49.7751
-34.8073
-34.8153
-35.5802
-35.0809
-32.9097
-35.1355
-31.8358
-36.2667
-36.8165
-39.3565
-36.7426
-39.4287
-49.2519
-45.0913
-44.4246
-56.991
-48.2023
-37.4487
-37.4672
-34.6332
-47.2959
-40.7561
-40.044
-37.4777
-50.7543
-48.1386
-48.8903
-46.7101
-33.2847
-19.9562
-19.9908
-6.15153
194.522
197.039
198.995
194.475
-37.3912
-38.5603
-37.8449
-40.0108
-37.3215
-38.4647
-37.879
-39.9859
-35.9451
-35.3603
-35.5881
-35.8839
-80.6848
-102.141
-71.2276
-80.6874
-36.0864
-37.8477
-37.6918
-39.7955
-35.9431
-37.7036
-37.4976
-38.9344
-37.0085
-37.1621
-36.9875
-36.9208
-38.2913
-40.3673
-40.4362
-41.3243
-26.859
-25.8695
-25.4875
-25.605
-84.9449
175.899
-97.8832
114.239
-45.3891
-63.8038
-36.2002
-32.5326
-35.4018
-31.5805
-34.8935
-36.2301
-91.175
156.997
-84.8444
90.7397
-54.9234
-54.0636
-35.7804
-31.7924
-33.4303
-30.4023
-35.6919
-35.9371
-97.1091
102.57
-83.7993
176.044
-44.0324
-62.053
-34.7377
-30.3838
-35.7493
-31.7807
-34.7142
-35.9518
-84.7279
91.4362
-90.3435
157.023
-54.1969
-53.896
-33.2319
-29.4473
-35.2933
-30.9862
-35.4209
-35.8099
-40.1667
-45.6572
-34.8053
-34.9986
-31.1847
-34.2826
-35.4085
-35.6552
-37.4663
-37.7554
-34.962
-36.3011
-33.582
-39.2319
-36.3181
-40.0257
-30.6031
-8.19476
-32.7529
-41.3943
-46.3477
-73.0261
8.31166
7.87852
-42.3503
-45.0842
-39.7457
-41.4589
-41.5784
-48.7617
-55.586
-52.4343
-38.9748
-43.3969
-34.9607
-35.6169
-34.612
-34.6193
-30.8111
-34.0833
-37.7548
-40.5072
-36.6073
-39.2387
-35.0717
-36.0253
-33.8923
-38.1221
-30.7862
-8.30034
8.48669
7.72206
-32.6351
-41.3147
-46.2909
-72.9097
-42.1327
-45.1267
-55.6005
-52.4958
-39.8581
-41.2319
-41.8149
-48.7877
-59.0354
-60.5478
202.425
179.32
-63.7873
-63.4447
197.205
197.067
-47.0442
-34.7259
-50.8717
-42.5235
-35.2486
-35.7487
-30.3955
-30.226
-36.4918
-36.8163
-27.0039
-25.4201
-39.9767
-34.8784
-38.0383
-36.1107
-47.4866
-47.4624
195.148
195.148
-32.907
-46.1945
-35.8816
-10.4573
-35.9116
-35.9574
-26.9435
-27.9826
-36.5872
-39.9308
-42.1997
-38.2659
-58.0289
-59.6988
179.349
202.37
-44.742
-39.9843
-50.0237
-44.7212
-35.4684
-35.0033
-29.2218
-29.0571
-38.2958
-34.797
-37.7917
-37.2262
-46.1706
-35.43
-10.5465
-35.912
-39.6151
-36.4167
-38.3279
-42.2537
-36.3832
-36.0147
-35.4312
-36.3355
-34.2457
-32.3368
-36.8494
-40.1029
-42.988
-42.6837
-35.3838
-35.4096
-36.4094
-38.4131
-38.9984
-40.4378
-35.9104
-36.0035
-40.4653
-41.0416
-41.1401
-43.2028
-86.9848
-61.7773
4.44455
4.41231
-103.769
-103.757
-63.0787
-63.0885
-41.8395
-41.9093
-36.2447
-36.0123
-35.3145
-36.1255
-32.2257
-33.9053
-36.6903
-40.0063
-38.5119
-36.5122
-38.4764
-40.0539
-43.1616
-41.1473
-61.7768
-87.0585
-82.0616
-46.1149
-48.0318
-86.6152
-30.7888
-31.7197
-34.8498
-33.594
-33.1254
-31.0107
-34.5381
-32.5707
-85.656
-92.8514
-47.9269
-45.1595
-80.9071
-85.5879
-46.5891
-42.9447
-84.9404
-43.1345
-47.3686
-91.9336
-33.1845
-32.345
-37.0094
-33.4368
-30.3869
-40.8977
-38.5115
-31.3806
-95.2679
-95.5755
-50.56
-50.3432
-94.7322
-47.5154
-51.4427
-94.2463
-31.7752
-36.3477
-44.6442
-45.0191
-33.5654
-37.7781
-44.9679
-36.6112
-85.7719
-37.233
-34.4955
-79.6984
-4.37305
16.593
-7.33337
-15.2873
-4.46521
-15.5175
-7.36993
16.6315
-85.5607
-79.6518
-34.5001
-37.2115
108.39
173.807
192.616
136.011
115.342
107.924
195.065
160.256
115.38
160.27
195.066
108.35
109.473
128.577
192.607
173.898
-33.3803
-35.7226
-37.4967
-35.3144
-31.7114
-35.4001
-36.9947
-35.3933
-41.081
-42.8324
-39.2639
-38.1405
-44.9043
-38.3569
-40.4889
-46.0064
-33.1905
-35.1244
-37.3777
-35.5693
-44.85
-45.9742
-40.4244
-38.2287
-41.169
-38.3011
-39.3097
-42.69
-32.0592
-35.3606
-36.9529
-35.6891
-35.7962
-35.6144
-35.618
-35.1637
-34.7786
-34.9221
-35.6275
-35.7035
-37.4466
-35.9052
-35.7715
-35.4192
-39.8799
-35.6332
-35.8827
-36.143
-77.0818
-63.8129
-99.0367
29.7853
-46.4242
-59.6651
-69.1079
-52.0569
-46.4689
-52.0619
-69.1119
-59.6794
-76.6558
29.9458
-99.0393
-63.8076
-38.1419
-39.9831
-40.0287
-39.5982
-35.6797
-36.3348
-35.5578
-34.632
-35.3502
-36.944
-36.395
-36.1758
-43.0714
-40.4873
-39.6161
-40.8704
-37.1802
-38.6935
-38.5901
-37.7962
-42.9225
-40.6775
-39.1981
-40.1235
-34.8652
-35.6913
-36.2314
-36.7907
-35.2322
-34.6271
-35.4481
-35.8744
-37.2993
-40.1491
-37.4714
-38.3302
-34.3434
-37.3112
-37.2884
-40.1528
-35.7826
-33.675
-37.1325
-35.6245
-36.2125
-35.4921
-37.0752
-34.0842
-52.4409
-42.8004
-41.6182
-49.3853
-33.7097
-34.0689
-38.25
-38.4452
-33.3159
-38.4518
-38.3327
-34.0351
-52.4129
-49.4302
-41.6709
-42.8418
-34.2471
-28.5257
-26.9967
-31.7611
-33.3882
-31.0265
-25.8002
-27.2607
-31.2088
-27.9262
-26.18
-30.9186
-32.0107
-31.723
-27.3385
-28.8034
-71.2541
-88.6436
-126.369
-40.8937
-36.2986
-37.5329
-85.9293
-85.063
-108.473
-36.9703
-32.2736
-34.577
-81.7167
-70.3961
-125.625
-35.4735
-40.0731
-36.8685
-84.8057
-85.7617
-107.974
-31.4536
-36.0982
-33.9863
-31.045
-31.9718
-31.4764
-31.8223
-36.5923
-33.1217
-35.2005
-38.1362
-36.4267
-39.9062
-46.0634
-46.8528
-44.3531
-42.9029
-42.7536
-47.9516
-30.6255
-32.669
-31.9006
-31.1887
-35.1023
-37.9276
-33.4956
-36.0988
-36.5767
-47.0139
-39.9269
-46.0722
-44.3201
-47.9712
-42.9251
-42.8251
-51.6635
-51.7368
-130.893
128.339
-172.092
-172.311
-129.126
6.09348
-46.7247
-27.6262
-38.1652
-39.2646
-35.2717
-34.7551
-38.67
-31.6942
-29.2768
-28.7478
-31.1326
-27.7484
-35.0686
-41.8384
-38.4398
-38.9812
-135.484
-135.331
-119.485
3.27135
-35.1265
-26.3087
-32.9063
-27.3922
-30.5005
-30.2271
-33.8816
-28.5067
-39.6635
-41.7426
-39.1891
-41.1211
-53.9693
-51.5227
-129.762
129.129
-39.6757
-40.9616
-40.7743
-39.6593
-34.5324
-34.0094
-38.0126
-30.926
-35.178
-39.0658
-37.8491
-36.1192
-34.874
-27.119
-34.0673
-27.7417
-39.6287
-41.6778
-39.0887
-41.1431
-35.2057
-34.6676
-35.4363
-35.7843
-33.552
-34.5382
-32.9071
-35.2365
-36.3647
-35.9281
-36.426
-35.7023
-36.5639
-38.724
-36.6771
-39.3501
-38.7567
-37.6205
-33.9889
-40.55
-48.3198
-45.9039
-45.7498
-51.6439
34.4518
34.0026
24.6373
46.9544
-56.5541
-56.567
-58.6784
-52.6987
-35.0585
-34.6128
-35.3261
-35.365
-33.3083
-34.3354
-32.6402
-35.0445
-37.2752
-38.8563
-36.9898
-39.0531
-48.2832
-45.9254
-45.7517
-51.6293
-43.5126
-37.5143
-37.7106
-32.7992
-43.146
-40.6412
-40.2561
-38.1559
-44.9
-48.5425
-49.0274
-49.9669
-27.1818
-19.5208
-19.5369
-12.6042
195.62
198.507
199.079
195.62
-37.8593
-38.5231
-38.0455
-39.095
-37.7997
-38.4511
-38.024
-39.0593
-35.6726
-35.4248
-35.5582
-35.596
-82.4751
-92.9976
-76.388
-82.4765
-36.3581
-37.6273
-37.5955
-39.1902
-36.2137
-37.4586
-37.4051
-38.8044
-36.8778
-36.9764
-36.844
-36.8
-39.3907
-40.2827
-40.3247
-40.881
-26.0675
-25.7321
-25.5546
-25.457
-54.2233
-31.1034
-141.407
143.534
-109.213
-134.76
-139.971
19.0401
-55.563
-52.0478
-44.444
-60.1439
-38.9588
-36.865
-39.1415
-32.7573
-33.8794
-31.3925
-34.0572
-32.2603
-36.1217
-35.06
-34.2719
-35.4012
-53.2374
-51.3566
-140.541
134.34
-90.2101
-139.106
-122.557
-26.6494
-62.828
-45.1363
-52.7608
-52.8415
-36.3004
-34.8616
-37.8987
-31.6967
-31.3846
-30.6528
-32.2439
-30.6732
-35.5737
-37.8974
-35.969
-36.6471
-116.038
-133.75
-139.351
7.39595
-53.571
-30.6968
-140.046
143.719
-53.8609
-50.7541
-43.9477
-57.4776
-32.8895
-30.3565
-33.2152
-31.1606
-38.1668
-36.1266
-38.5087
-32.0772
-35.6689
-35.2038
-34.3499
-35.7567
-89.782
-138.48
-122.376
-19.8094
-52.698
-50.8932
-139.597
134.405
-62.3532
-44.5646
-52.0977
-52.5959
-30.6493
-29.9647
-32.0369
-29.8877
-35.4909
-34.0768
-37.2077
-30.8875
-35.2671
-37.7782
-35.7316
-36.4958
-35.3155
-40.9763
-42.2455
-47.3204
-33.6227
-34.5542
-34.3914
-34.2066
-32.0571
-32.7992
-31.641
-33.3472
-34.2091
-36.044
-36.956
-35.7461
-37.7905
-37.0373
-37.168
-37.4521
-34.385
-34.6158
-34.7195
-35.1181
-35.0729
-34.9251
-32.8692
-37.8733
-36.5122
-38.9716
-36.3485
-38.853
-24.5672
-25.5863
-28.623
-16.2274
-38.66
-36.179
-34.7668
-39.6452
-49.8596
-50.1512
-48.3709
-58.959
11.9036
27.8855
11.9676
27.0227
-45.4284
-44.3572
-43.8667
-48.2726
-41.3088
-39.858
-40.0992
-40.9892
-42.3611
-44.0586
-42.4856
-45.5167
-56.2849
-56.997
-57.7068
-55.9693
-34.3027
-40.2971
-40.7314
-44.5072
-36.0902
-35.7189
-35.5304
-35.4107
-33.3917
-34.3695
-34.1937
-33.8501
-31.7933
-32.5327
-31.2972
-33.1315
-41.0589
-36.2627
-38.8426
-41.4529
-37.4682
-38.8552
-36.7539
-38.3059
-34.5626
-34.5287
-34.8189
-35.0305
-36.6226
-36.3975
-33.3968
-38.3685
-24.7542
-26.1115
-28.8893
-16.4764
11.0697
27.7315
12.3634
27.1229
-38.612
-36.0472
-34.6713
-39.5616
-49.8123
-50.1017
-48.3154
-58.8845
-45.3096
-44.2769
-43.7056
-48.2627
-56.3125
-57.029
-57.7333
-56.0167
-41.3443
-39.967
-40.1844
-40.9461
-42.4485
-44.2934
-42.6004
-45.5704
-69.2672
-54.2568
-59.9917
-60.6973
167.264
193.838
186.627
183.84
-75.7655
-54.9111
-63.5896
-63.4722
172.365
196.285
198.894
198.825
-37.7213
-37.5685
-47.0813
-29.2604
-42.8391
-47.6489
-48.2717
-43.701
-35.7586
-35.7725
-35.3711
-35.6542
-31.0996
-29.0905
-30.323
-30.2059
-36.554
-36.9058
-36.4977
-36.6304
-24.8102
-25.9101
-25.4269
-24.4434
-38.4352
-37.9209
-41.555
-35.2949
-38.7495
-37.2327
-38.5927
-36.2719
-61.0126
-38.0461
-46.6568
-46.6507
158.874
199.472
196.596
196.591
-35.9586
-36.9333
-31.8184
-41.2132
-23.6831
-20.8062
-29.0567
-16.1519
-35.0924
-37.1866
-36.0171
-36.05
-25.9739
-25.4202
-24.9219
-25.6209
-38.2765
-37.86
-37.0958
-39.0678
-40.5319
-40.4657
-41.437
-39.4387
-68.3824
-53.2784
-59.0442
-59.8084
167.333
193.844
183.833
186.661
-40.9708
-40.7611
-42.3602
-39.1554
-46.0218
-47.9742
-47.7167
-46.8952
-35.3906
-35.5844
-35.3815
-35.1175
-30.1343
-27.6644
-29.1252
-28.9957
-38.2295
-37.7074
-40.5419
-35.2178
-37.3051
-36.9288
-37.936
-36.257
-37.8382
-39.6611
-41.841
-36.7688
-23.8079
-20.8626
-16.2439
-29.137
-38.1069
-37.6651
-38.8119
-36.934
-40.5842
-40.5411
-39.507
-41.4962
-35.9532
-36.869
-36.4652
-36.1871
-35.5746
-35.9905
-35.5567
-35.9772
-32.2758
-34.9895
-33.5588
-32.79
-37.3732
-38.4066
-37.4405
-38.8788
-39.2095
-45.1392
-44.2204
-44.0836
-35.3689
-35.2816
-35.3434
-35.3569
-36.8509
-37.5507
-36.788
-37.7459
-40.155
-39.6647
-39.4859
-40.1561
-35.6066
-35.5753
-35.6514
-35.7634
-44.8859
-38.7256
-41.1021
-41.4104
-43.3333
-41.028
-41.606
-42.814
-63.5116
-77.5195
-78.5592
-65.712
13.019
0.0322032
5.70421
5.69034
-26.6216
-116.698
-104.601
-104.659
-62.451
-67.3931
-64.2287
-64.2334
-43.1821
-41.1947
-41.5006
-41.5329
-35.8592
-36.7914
-36.3515
-36.1293
-35.4021
-35.9551
-35.449
-35.9067
-32.0006
-34.9292
-32.6687
-33.2986
-37.2234
-38.2922
-37.2925
-38.7607
-37.0188
-37.602
-37.8442
-36.8919
-39.4645
-38.9479
-38.818
-39.6773
-43.3305
-41.0132
-42.7877
-41.6137
-63.5124
-77.5183
-65.7123
-78.5815
-63.4095
-48.854
-55.7745
-52.3147
-38.269
-33.5823
-37.7408
-35.3654
-31.4175
-31.7183
-33.2545
-31.9501
-69.3831
-56.4506
-59.2714
-52.0513
-62.3692
-47.7056
-54.6498
-50.8236
-68.5889
-55.7157
-58.4782
-51.1053
-31.5107
-31.6184
-33.241
-31.8858
-37.3119
-33.1051
-37.0337
-34.8976
-77.6997
-65.8801
-64.2841
-57.2141
-76.8902
-64.7017
-63.7408
-56.5082
-41.9061
-37.1439
-42.5844
-41.682
-42.0282
-36.9383
-41.0639
-41.4724
-65.4457
-54.3326
-50.2684
-43.7085
-3.93819
3.7689
-5.29072
2.3757
-3.99566
3.7424
-5.36695
2.32005
-65.3568
-54.2214
-50.2271
-43.6497
175.434
161.123
201.021
187.728
151.696
145.431
172.427
194.01
145.535
151.769
194.023
172.495
159.907
175.274
187.559
200.481
-35.2506
-35.0765
-36.109
-36.2503
-35.2522
-34.958
-35.8181
-35.9897
-39.7568
-40.7945
-39.2042
-40.6038
-42.524
-44.6907
-41.5009
-43.3565
-35.063
-34.8805
-35.9487
-36.0814
-42.45
-44.6305
-41.4209
-43.3008
-39.8681
-40.9706
-39.3028
-40.6869
-35.3562
-35.1591
-35.8595
-36.0933
-35.3405
-35.5376
-35.3767
-35.4061
-35.4328
-35.0515
-35.3804
-35.2509
-36.2646
-36.5909
-36.1171
-36.5369
-37.1811
-36.1421
-36.812
-36.2046
-104.309
-21.9729
-100.273
-96.2903
-52.9863
-56.4031
-59.4579
-61.287
-56.4167
-52.9715
-61.3027
-59.4659
-22.0583
-104.152
-96.2608
-100.31
-37.9587
-38.5992
-38.4152
-38.6125
-35.5291
-34.9158
-35.1673
-34.7265
-35.5192
-35.6944
-35.7055
-36.0769
-41.5555
-41.6901
-40.4489
-40.7047
-37.7507
-38.1396
-37.7963
-38.1375
-41.2887
-41.4102
-40.1208
-40.3659
-35.1385
-35.4105
-35.421
-35.8614
-35.1853
-34.7035
-34.9281
-34.6075
-38.1799
-39.5786
-37.805
-39.679
-39.0169
-40.001
-38.0062
-39.9664
-35.6848
-36.2835
-36.3448
-38.8368
-37.8177
-36.6366
-37.0446
-36.6878
-43.5986
-44.7786
-42.5122
-42.3758
-34.445
-35.6895
-35.8076
-37.009
-34.3322
-35.6033
-35.8345
-37.0447
-43.6515
-44.8352
-42.5691
-42.4251
-31.6672
-30.8887
-30.2765
-28.865
-29.5301
-30.6544
-27.1763
-28.9747
-29.3075
-30.1359
-28.1644
-29.1092
-31.0547
-30.3267
-30.2392
-29.35
-130.184
96.5533
-133.139
35.57
-81.4755
-89.1289
-39.018
-35.2762
-36.6329
-34.8445
-35.3945
-36.5712
-124.07
92.0549
-125.211
24.7523
-84.2139
-81.791
-36.5927
-32.4401
-32.9572
-32.0126
-35.1555
-34.308
-131.089
37.0596
-128.974
97.9097
-80.447
-89.0593
-35.6966
-33.9521
-38.4153
-34.4497
-34.9205
-35.9801
-125.253
24.7832
-123.301
92.1343
-83.5922
-81.5417
-32.3625
-31.2263
-35.9035
-31.6172
-34.6872
-33.874
-30.4755
-30.8021
-33.0237
-33.7993
-31.0298
-32.5507
-35.663
-31.0461
-37.0979
-36.4875
-31.6617
-37.1504
-31.0933
-37.2359
-38.6913
-37.2392
-31.2636
-19.7861
-35.9603
-42.5509
-46.8977
-61.6467
-1.9133
-48.9269
-44.1419
-48.7115
-41.3886
-42.6636
-41.8361
-43.8213
-48.9414
-52.0989
-30.065
-29.3288
-31.2252
-35.1415
-32.8494
-33.4152
-30.6658
-32.3682
-36.0098
-28.8825
-41.5931
-34.7787
-32.0535
-37.4781
-31.6069
-37.2404
-31.3902
-20.0015
-2.52053
-49.1859
-35.9816
-42.5122
-46.8531
-61.5783
-44.0299
-48.6827
-48.9909
-52.1114
-41.454
-42.6122
-41.9163
-43.8914
-140.909
138.335
-139.842
132.167
-87.565
-91.6013
151.931
159.604
-127.815
29.6801
-126.713
31.8611
-93.794
-95.1819
120.343
120.15
-46.1256
-48.7786
-32.7659
-31.4799
-48.19
-26.3134
-45.175
-41.5201
-38.8725
-31.6553
-38.2528
-31.6052
-36.3739
-36.3176
-31.75
-31.7404
-32.1377
-29.5795
-31.5482
-28.5193
-33.2769
-33.5819
-27.1311
-26.3364
-34.5713
-35.4731
-40.093
-38.0766
-42.0551
-34.9967
-40.565
-37.0841
-116.864
5.85385
-116.846
6.55669
-79.6987
-79.6657
102.635
102.662
-41.8091
-38.0725
-29.1936
-17.8667
-31.2594
-39.8942
-31.0366
-20.2518
-33.1157
-29.7204
-33.0684
-29.1548
-34.4084
-34.4001
-26.6854
-27.2636
-37.596
-39.0648
-41.9472
-43.2159
-37.6769
-39.7179
-41.7757
-39.5408
-139.342
138.415
-138.747
132.322
-86.5633
-90.6471
159.717
152.103
-41.8692
-44.6658
-41.0441
-43.8096
-41.6384
-39.4064
-40.4173
-48.2733
-38.2324
-30.8891
-37.5874
-30.8187
-35.8365
-35.9056
-30.9897
-30.9428
-34.7157
-35.7113
-36.7255
-37.1305
-40.7467
-35.0088
-38.7737
-37.4181
-40.4473
-37.9441
-31.3204
-18.3198
-39.4876
-34.8067
-20.5113
-31.123
-37.4714
-39.0461
-41.8325
-43.2905
-39.5407
-37.5425
-39.5721
-41.8166
-35.399
-34.7027
-35.1653
-35.5176
-35.7362
-35.4726
-35.3345
-35.1125
-32.2703
-34.2522
-33.7406
-36.932
-31.9404
-32.3733
-35.8475
-37.2048
-36.3014
-35.8832
-36.1154
-35.7478
-36.2731
-36.9766
-35.5667
-35.6585
-34.4975
-38.604
-38.6609
-39.8274
-36.0187
-37.3309
-39.7056
-40.2431
-35.9253
-40.1583
-35.8707
-40.3316
-35.5063
-36.0559
-40.8313
-41.0786
-47.9354
-55.6427
-44.0795
-48.2892
-43.5884
-45.194
-60.1677
-54.3388
23.1973
42.2482
22.8491
41.7875
18.6939
18.8813
31.5871
31.6939
-58.4766
-53.3501
-58.495
-53.3794
-60.2088
-60.2166
-48.7723
-48.7978
-35.2428
-34.4435
-35.1223
-35.3016
-35.608
-35.4069
-35.0946
-34.9893
-31.9633
-34.0367
-33.5396
-36.787
-32.1114
-31.6272
-35.6671
-37.0512
-34.9597
-38.6557
-38.7886
-39.7044
-37.5275
-36.2811
-39.0875
-39.7604
-47.9011
-55.6087
-44.0759
-48.3058
-45.1764
-43.6005
-54.3401
-60.1649
-48.3724
-47.958
-45.1065
-31.5066
-32.8667
-43.3401
-34.6585
-34.5188
-47.3093
-47.2014
-42.979
-38.6876
-43.0194
-37.6764
-37.3183
-37.9912
-50.3138
-51.4948
-47.8299
-47.146
-48.7876
-47.7347
-45.1768
-47.062
-33.6757
-33.6744
-27.2763
-13.4885
-13.5248
-27.3023
-6.47506
-6.49204
194.281
194.768
196.479