# vtk DataFile Version 2.0
tet_velo
ASCII
DATASET UNSTRUCTURED_GRID
POINTS 29498 float
-0.785 0.195 -1.78421
-0.857343 0.215 1.765
-0.705 0.755 -1.81477
-0.763073 0.995 1.805
0.785 0.195 -1.78421
0.857343 0.215 1.765
0.705 0.755 -1.81478
0.763068 0.995 1.805
-0.789286 0.221495 -0.60114
-0.810724 0.230838 0.58193
-0.839842 0.950485 -0.60818
-0.822094 0.993379 0.59841
0.78924 0.221541 -0.60114
0.810643 0.230919 0.58193
0.839609 0.950253 -0.608187
0.82126 0.992548 0.598407
-1.59877 -0.209852 -2.73817
-1.59008 -0.142696 -1.78229
-1.59608 -0.118428 -0.599826
-1.60731 -0.129241 0.577901
-1.62943 -0.144914 1.75996
-1.63967 -0.139582 2.71389
-1.64296 -0.120808 3.67143
-1.59071 0.110671 -2.74499
-1.5843 0.195839 -1.78654
-1.60376 0.240859 -0.599506
-1.6124 0.242414 0.585415
-1.63234 0.229831 1.772
-1.64488 0.235555 2.72626
-1.64865 0.253873 3.68303
-1.55888 0.731903 -2.76524
-1.54303 0.815291 -1.80777
-1.62843 0.957551 -0.604695
-1.61932 0.998681 0.600043
-1.585 1.00108 1.80266
-1.62167 1.00458 2.75595
-1.64491 1.01763 3.70893
-1.54973 1.78616 -2.77794
-1.55067 1.87973 -1.81694
-1.58961 2.01781 -0.606242
-1.61674 2.10827 0.609527
-1.62079 2.14433 1.81998
-1.62873 2.1572 2.78046
-1.64137 2.16898 3.73601
-0.81192 -0.211931 -2.73665
-0.792251 -0.142399 -1.78008
-0.790551 -0.127533 -0.600124
-0.79853 -0.139169 0.574927
-0.821388 -0.157401 1.75477
-0.833961 -0.149943 2.71036
-0.837745 -0.128756 3.66938
-0.811298 0.102076 -2.74453
-0.848975 0.225936 2.72335
-0.84719 0.246341 3.68149
-0.7819 0.703661 -2.76815
-0.829123 0.998691 2.75641
-0.848096 1.01224 3.70903
-0.755808 1.76779 -2.78082
-0.747222 1.86304 -1.82011
-0.781143 2.0128 -0.608153
-0.812982 2.10894 0.609755
-0.822094 2.14432 1.82162
-0.830873 2.15604 2.7821
-0.842562 2.16718 3.7372
0.758107 -0.211978 -2.73665
0.786639 -0.142418 -1.78008
0.799259 -0.127531 -0.600125
0.823421 -0.139147 0.574927
0.849473 -0.157408 1.75477
0.811815 -0.149982 2.71036
0.788152 -0.128827 3.66938
0.74092 0.102037 -2.74453
0.792884 0.225904 2.72335
0.77411 0.246269 3.68149
0.726991 0.70361 -2.76816
0.758803 0.998629 2.75641
0.755772 1.01214 3.70902
0.811912 1.76765 -2.78082
0.832989 1.86286 -1.82012
0.832603 2.01253 -0.608158
0.803575 2.10859 0.609752
0.778093 2.14405 1.82161
0.766068 2.15584 2.78209
0.757987 2.16701 3.73719
1.55217 -0.20998 -2.73817
1.58066 -0.1428 -1.78229
1.6033 -0.118554 -0.599828
1.62848 -0.129356 0.5779
1.6508 -0.144985 1.75996
1.62677 -0.139693 2.71389
1.60219 -0.12097 3.67143
1.53653 0.11055 -2.745
1.57455 0.195731 -1.78655
1.60424 0.240672 -0.599509
1.61983 0.242202 0.585413
1.63803 0.229779 1.772
1.61048 0.23545 2.72626
1.58851 0.253707 3.68303
1.52155 0.731749 -2.76525
1.54287 0.815118 -1.80778
1.63155 0.957091 -0.604704
1.62108 0.997861 0.600039
1.58119 1.00084 1.80266
1.57122 1.00439 2.75595
1.56565 1.01741 3.70892
1.59848 1.78586 -2.77795
1.62097 1.87937 -1.81695
1.63378 2.01729 -0.60625
1.61262 2.10764 0.609521
1.58449 2.14381 1.81998
1.57049 2.15679 2.78046
1.56257 2.16862 3.73601
-0.775478 0.475 -1.82997
0 0.189701 -1.78951
-0.803378 0.192013 -1.19268
-0.844809 0.605 1.8196
0 0.202157 1.77784
-0.841202 0.21575 1.17347
0 0.823797 -1.88357
-0.811735 0.892056 -1.21148
-2.5034e-06 1.09354 1.90354
-0.817897 1.0195 1.20171
0.775476 0.475 -1.82997
0.803316 0.192075 -1.19268
0.844763 0.605 1.81956
0.841233 0.21572 1.17347
0.811729 0.892051 -1.21148
0.817856 1.01947 1.2017
-0.80052 0.225652 -0.00960499
-0.885611 0.58599 -0.60466
-2.29457e-05 0.225053 -0.60114
-0.878063 0.612108 0.59017
-4.07297e-05 0.221857 0.58193
-0.824269 0.965233 -0.00488502
-0.000116449 1.25804 -0.608183
-0.000417095 1.53222 0.598408
0.803105 0.223066 -0.00960499
0.885598 0.585897 -0.604663
0.878015 0.611734 0.590168
0.824268 0.965234 -0.00489002
-0.896869 0.530495 -1.20208
-0.887446 0.599049 -0.007245
-0.881411 0.608554 1.18759
-1.14728e-05 0.183212 -1.19268
-3.18377e-05 0.225386 -0.00960499
-2.03648e-05 0.199304 1.17347
0 0.475 -2.06708
-1.2517e-06 0.605 2.05348
-5.82243e-05 1.02499 -1.21148
-0.000266772 1.50359 -0.00488752
-0.000209799 1.49892 1.2017
0.89687 0.530449 -1.20208
0.887406 0.598815 -0.00724751
0.881471 0.608367 1.18758
-1.18465 0.19542 -1.78538
-0.788625 0.0263004 -1.78214
-0.798149 0.148538 -2.26437
-1.24484 0.222416 1.7685
-0.839366 0.0287996 1.75988
-0.853159 0.220468 2.24417
-1.12401 0.785145 -1.81127
-0.74345 0.729331 -2.29146
-0.726111 1.30902 -1.81744
-1.17404 0.99804 1.80383
-0.796098 0.996846 2.28071
-0.792583 1.56966 1.81331
0.785819 0.026291 -1.78214
0.76296 0.148519 -2.26437
1.17978 0.195366 -1.78538
0.853408 0.0287962 1.75988
0.825113 0.220452 2.24417
1.24769 0.222389 1.7685
0.715996 0.729305 -2.29147
0.768995 1.30893 -1.81745
1.12393 0.785059 -1.81128
0.760936 0.996814 2.28071
0.770581 1.56953 1.81331
1.17213 0.997922 1.80383
-1.19652 0.231177 -0.600323
-0.789918 0.046981 -0.600632
-1.21156 0.236626 0.583672
-0.804627 0.0458346 0.578429
-1.23413 0.954018 -0.606438
-0.810492 1.48164 -0.608167
-1.22071 0.99603 0.599227
-0.817538 1.55116 0.604083
0.794249 0.0470053 -0.600632
1.19674 0.231107 -0.600325
0.817032 0.0458864 0.578429
1.21524 0.236561 0.583672
0.836106 1.48139 -0.608172
1.23558 0.953672 -0.606445
0.812418 1.55057 0.604079
1.22117 0.995204 0.599223
-1.59442 -0.176274 -2.26023
-1.59474 -0.0495907 -2.74158
-1.20535 -0.210892 -2.73741
-1.59308 -0.130562 -1.19106
-1.58719 0.0265715 -1.78442
-1.19116 -0.142548 -1.78118
-1.6017 -0.123835 -0.0109624
-1.59992 0.0612154 -0.599666
-1.19332 -0.122981 -0.599975
-1.61837 -0.137078 1.16893
-1.60986 0.0565865 0.581658
-1.20292 -0.134205 0.576414
-1.63455 -0.142248 2.23693
-1.63088 0.0424585 1.76598
-1.22541 -0.151158 1.75736
-1.64131 -0.130195 3.19266
-1.64227 0.0479866 2.72007
-1.23681 -0.144763 2.71212
-1.6458 0.0665326 3.67723
-1.24035 -0.124782 3.67041
-1.58751 0.153255 -2.26577
-1.57479 0.421287 -2.75512
-1.20101 0.106373 -2.74476
-1.59403 0.218349 -1.19302
-1.56367 0.505565 -1.79716
-1.60808 0.241637 -0.00704553
-1.61609 0.599205 -0.6021
-1.62237 0.236123 1.17871
-1.61586 0.620548 0.592729
-1.63861 0.232693 2.24913
-1.60867 0.615456 1.78733
-1.64676 0.244714 3.20464
-1.63327 0.620066 2.7411
-1.24693 0.230746 2.7248
-1.64678 0.635753 3.69598
-1.24792 0.250107 3.68226
-1.55095 0.773597 -2.28651
-1.5543 1.25903 -2.77159
-1.17039 0.717782 -2.7667
-1.58573 0.886421 -1.20623
-1.54685 1.34751 -1.81235
-1.62387 0.978116 -0.0023259
-1.60902 1.48768 -0.605468
-1.60216 0.99988 1.20135
-1.61803 1.55348 0.604785
-1.60333 1.00283 2.27931
-1.6029 1.57271 1.81132
-1.63329 1.0111 3.23244
-1.6252 1.58089 2.7682
-1.22539 1.00163 2.75618
-1.64314 1.5933 3.72247
-1.2465 1.01493 3.70898
-1.5502 1.83294 -2.29744
-1.15277 1.77698 -2.77938
-1.57014 1.94877 -1.21159
-1.14895 1.87138 -1.81853
-1.60318 2.06304 0.00164275
-1.18538 2.01531 -0.607197
-1.61877 2.1263 1.21475
-1.21486 2.10861 0.609641
-1.62476 2.15077 2.30022
-1.22144 2.14433 1.8208
-1.63505 2.16309 3.25824
-1.2298 2.15662 2.78128
-1.24196 2.16808 3.7366
-0.802085 -0.177165 -2.25836
-0.811609 -0.0549274 -2.74059
-0.0269064 -0.211954 -2.73665
-0.791401 -0.134966 -1.1901
-0.00280601 -0.142409 -1.78008
-0.794541 -0.133351 -0.0125984
0.00435363 -0.127532 -0.600124
-0.809959 -0.148285 1.16485
0.0124456 -0.139158 0.574927
-0.827674 -0.153672 2.23256
0.0140425 -0.157404 1.75477
-0.835853 -0.13935 3.18987
-0.841468 0.0379965 2.71685
-0.0110728 -0.149962 2.71036
-0.842468 0.0587924 3.67544
-0.0247968 -0.128792 3.66938
-0.796599 0.402869 -2.75634
-0.035189 0.102057 -2.74453
-0.848083 0.236139 3.20242
-0.839049 0.612314 2.73988
-0.0280458 0.22592 2.72335
-0.847643 0.629288 3.69526
-0.03654 0.246305 3.68149
-0.768854 1.23573 -2.77449
-0.0274545 0.703636 -2.76816
-0.838609 1.00546 3.23272
-0.829998 1.57737 2.76926
-0.03516 0.99866 2.75641
-0.845329 1.58971 3.72311
-0.0461617 1.01219 3.70903
-0.751515 1.81542 -2.30046
0.028052 1.76772 -2.78082
-0.764182 1.93792 -1.21413
0.0428836 1.86295 -1.82011
-0.797062 2.06087 0.000800718
0.02573 2.01266 -0.608156
-0.817538 2.12663 1.21569
-0.0047032 2.10877 0.609753
-0.826483 2.15018 2.30186
-0.0220003 2.14419 1.82161
-0.836717 2.16161 3.25965
-0.0324022 2.15594 2.78209
-0.0422875 2.1671 3.7372
0.772373 -0.177198 -2.25836
0.749513 -0.0549704 -2.74059
1.15514 -0.210979 -2.73741
0.792949 -0.134974 -1.1901
1.18365 -0.142609 -1.78118
0.81134 -0.133339 -0.0125988
1.20128 -0.123042 -0.599976
0.836447 -0.148277 1.16485
1.22595 -0.134251 0.576413
0.830644 -0.153695 2.23256
1.25014 -0.151196 1.75736
0.799983 -0.139405 3.18987
0.802349 0.0379612 2.71685
1.21929 -0.144837 2.71212
0.781131 0.058721 3.67544
1.19517 -0.124898 3.6704
0.733956 0.402824 -2.75634
1.13873 0.106294 -2.74476
0.783497 0.236087 3.20242
0.775843 0.612266 2.73988
1.20168 0.230677 2.7248
0.764941 0.629204 3.69526
1.18131 0.249988 3.68226
0.769452 1.23563 -2.77449
1.12427 0.71768 -2.76671
0.757288 1.00538 3.23272
0.762436 1.57723 2.76925
1.16501 1.00151 2.75618
0.756879 1.58957 3.72311
1.16071 1.01478 3.70897
0.82245 1.81526 -2.30047
1.2052 1.77676 -2.77938
0.832796 1.9377 -1.21414
1.22698 1.87112 -1.81853
0.818089 2.06056 0.000796972
1.23319 2.01491 -0.607204
0.790834 2.12632 1.21568
1.2081 2.10811 0.609636
0.772081 2.14994 2.30185
1.18129 2.14393 1.8208
0.762027 2.16142 3.25964
1.16828 2.15631 2.78128
1.16028 2.16782 3.7366
1.56642 -0.17639 -2.26023
1.54435 -0.0497149 -2.74158
1.59198 -0.130677 -1.19106
1.57761 0.0264659 -1.78442
1.61589 -0.123955 -0.0109643
1.60377 0.0610593 -0.599669
1.63964 -0.137171 1.16893
1.62416 0.056423 0.581656
1.63879 -0.142339 2.23693
1.64441 0.0423969 1.76598
1.61448 -0.130331 3.19266
1.61863 0.0478785 2.72007
1.59535 0.066369 3.67723
1.55554 0.153141 -2.26577
1.52904 0.42115 -2.75512
1.58939 0.218202 -1.19303
1.55871 0.505425 -1.79716
1.61204 0.241437 -0.007048
1.61789 0.598882 -0.602106
1.62893 0.23599 1.17871
1.62046 0.620032 0.592726
1.62425 0.232614 2.24913
1.60961 0.615311 1.78733
1.5995 0.244579 3.20464
1.59085 0.619921 2.7411
1.57708 0.63556 3.69598
1.53221 0.773434 -2.28652
1.56001 1.25881 -2.7716
1.58721 0.886105 -1.20624
1.58192 1.34724 -1.81237
[...]
POINT_DATA 29498
VECTORS point_vectors float
-2.35849 -2.80814 6.68041
-0.00361882 0.386861 2.08425
-2.60288 1.96022 3.81002
0.080868 -0.0538989 0.314736
2.36054 -2.81089 6.67718
0.00306997 0.384703 2.07046
2.62054 1.97111 3.83369
-0.0843819 -0.0487886 0.311544
0.024881 0.00653875 0.270146
-0.045771 0.0525872 1.05643
-0.0136273 0.00646719 0.273012
0.00741021 0.0186672 0.0444715
-0.0246904 0.0067423 0.269197
0.0452626 0.0518318 1.04645
0.0127164 0.00577484 0.256383
-0.00377812 0.00920284 0.0220732
-0.734356 -0.409729 19.9679
-1.20491 -0.733795 20.7096
-0.445477 -0.454781 21.4304
-0.0496027 -0.169465 21.5486
0.299915 0.113727 21.6353
0.57049 0.297961 21.3801
0.771282 0.260657 21.2907
-0.900888 -0.321758 19.8359
-1.69277 -0.667251 20.6378
-0.622169 -0.549758 21.5284
-0.0859125 -0.269858 21.6388
0.43197 0.0387279 21.7338
0.779712 0.176476 21.5437
0.974302 0.228783 21.6624
-1.01242 0.0357182 19.6751
-2.0934 0.0919517 20.3935
-1.29718 -0.306016 21.484
-0.422302 -0.330796 21.8
0.387636 -0.309194 21.8164
0.817988 -0.331375 21.5104
1.16517 -0.414515 20.9518
-0.617848 0.376989 19.9459
-0.972702 0.64289 20.3499
-0.983613 0.496482 21.1388
-0.482822 0.123328 21.6194
0.0159257 -0.221831 21.5985
0.275209 -0.370395 21.4073
0.368501 -0.445862 21.0154
-0.853246 -0.982407 19.3048
-1.71893 -3.02337 21.3242
-0.153931 -0.0751256 21.7811
-0.0127412 0.129664 21.0964
0.0786153 0.62368 21.3961
0.35081 1.08239 21.37
0.970131 1.50692 20.9415
-1.1181 -0.851251 18.7696
0.590361 1.49865 13.356
1.37182 1.61963 14.8907
-1.26275 0.185619 18.3141
1.38746 0.730942 9.95676
2.17242 -0.294672 14.2878
-0.537392 0.800402 19.4831
-1.04 1.62583 19.9303
-1.37435 1.80434 21.1152
-0.658965 0.570665 22.1255
-0.050566 -0.313341 21.858
0.192945 -0.664695 21.6268
0.294832 -0.951113 21.1093
0.813642 -1.04376 19.2273
1.71039 -3.04069 21.3348
0.143134 -0.0766598 21.7473
-0.00639557 0.127063 21.0727
-0.115998 0.60986 21.4739
-0.302598 1.05833 21.3055
-0.837016 1.5284 20.5205
1.08733 -0.927359 18.6217
-0.233748 1.48042 11.1721
-1.17742 1.76435 12.8206
1.23545 0.199478 18.1472
-1.20553 0.998291 7.00771
-2.09939 -0.281491 11.3041
0.5587 0.753633 19.5253
1.07461 1.53282 19.9746
1.40066 1.68692 21.138
0.655598 0.579988 22.1305
0.0438314 -0.314545 21.846
-0.180932 -0.68396 21.6414
-0.280982 -0.989993 21.1184
0.751124 -0.432348 19.9336
1.21493 -0.747446 20.7079
0.446932 -0.457287 21.4218
0.0570138 -0.180338 21.5415
-0.289717 0.0881188 21.6307
-0.574839 0.292648 21.3863
-0.772499 0.29556 21.2908
0.934927 -0.342774 19.7865
1.71377 -0.679036 20.6387
0.622211 -0.549221 21.5255
0.0884814 -0.269661 21.6368
-0.42377 0.03611 21.7293
-0.792159 0.19088 21.5516
-1.04283 0.235029 21.657
1.03871 0.0427752 19.6318
2.09112 0.0929555 20.3926
1.29228 -0.302723 21.4816
0.42127 -0.32932 21.7962
-0.386279 -0.305288 21.8182
-0.875765 -0.350062 21.5022
-1.17591 -0.436622 21.0584
0.613515 0.365477 19.9617
0.932283 0.571796 20.3815
0.94904 0.461474 21.1337
0.483952 0.124524 21.6188
-0.0180417 -0.227844 21.6095
-0.276469 -0.385734 21.414
-0.402778 -0.496642 20.9438
-0.67228 0.0333474 0.930102
3.8475e-06 -0.0119346 0.0446634
-0.000452464 0.00400164 0.470695
0.108253 0.0149044 0.366587
-0.000466071 0.00450086 0.0904777
-0.0664958 -0.000215253 1.46055
0.00115859 0.425608 0.68251
-0.463249 -0.314352 1.29648
-0.000588777 0.0133676 -0.0138965
0.00286753 0.00804472 0.0408478
0.669608 0.0330736 0.925929
0.000365663 0.00415531 0.468845
-0.107044 0.017481 0.361074
0.0658201 0.000473343 1.45938
0.46285 -0.315288 1.29659
-0.00287484 0.00803588 0.0404403
-0.00602891 0.0103513 0.243394
0 0 0
0 0 0
0 0 0
-9.44796e-06 -0.000300641 0.012428
0 0 0
-2.64654e-05 0.0809599 0.153712
-9.8427e-08 -3.4175e-08 -1.52268e-05
0.0124794 0.0196935 0.480522
0 0 0
0 0 0
0 0 0
-0.000673371 -0.0050042 0.0349203
0 0 0
0 0 0
-3.8891e-08 8.18298e-09 -3.94149e-07
-7.7456e-08 8.62119e-08 9.43261e-05
0 0 0
-1.33999e-05 -0.0048386 0.00283104
-0.026364 0.804403 -0.198418
-0.000136176 0.00256389 0.0136513
-9.83596e-06 0.014368 0.0973036
-1.88891e-05 -0.00132686 0.0169153
0.000670141 -0.00504773 0.0349433
0 0 0
0 0 0
-3.08021 -1.69175 20.7725
-2.55254 -4.71286 21.8008
-2.8214 -2.41397 17.9184
0.707777 0.270585 21.531
0.0238369 0.869261 18.1471
0.36069 1.20624 10.3645
-4.21157 0.718704 20.0532
-3.42195 1.17857 16.4133
-2.43939 2.86567 19.434
0.850649 -0.329295 20.5972
0.767735 0.983522 5.34941
0.50239 -0.428115 18.0469
2.54523 -4.75029 21.8217
2.85187 -2.65025 17.6861
3.11237 -1.71502 20.7717
-0.0458232 0.869998 18.3492
-0.150237 1.08601 9.10927
-0.694781 0.25842 21.5405
3.42546 1.25363 16.1625
2.47792 2.71292 19.4909
4.20495 0.714262 20.0507
-0.577314 1.17324 3.95903
-0.553936 -0.379352 17.5544
-0.843581 -0.316496 20.5605
-0.309011 -0.973951 21.7897
0.231512 0.446907 16.2122
0.100021 -0.332328 21.0415
0.0453562 0.294966 16.5977
-2.15773 -0.865646 21.9691
-3.79193 2.39574 21.1253
-0.499375 -0.686244 21.649
-1.10434 0.292961 20.4962
-0.234687 0.443764 16.3026
0.311839 -0.974249 21.7879
-0.0453753 0.302633 16.7924
-0.0961182 -0.338675 21.0923
3.73993 2.22028 21.1818
2.14996 -0.861339 21.9621
1.08011 0.30853 20.3022
0.499365 -0.686338 21.6513
-1.05063 -0.5997 20.2108
-0.85041 -0.373752 19.893
-0.873457 -0.660695 19.6556
-0.857844 -0.635808 21.2618
-1.41725 -0.724697 20.6809
-1.66516 -1.53644 20.8671
-0.209129 -0.303573 21.5126
-0.544526 -0.49272 21.456
-0.237214 -0.504829 21.7194
0.0999771 -0.0423549 21.6186
-0.0701079 -0.212324 21.5544
0.0580556 -0.122614 21.6283
0.458967 0.236522 21.5626
0.346759 0.0810924 21.6342
0.362823 0.33508 21.7585
0.706188 0.43353 21.47
0.664793 0.249021 21.4841
0.679485 0.648014 21.5653
0.836118 0.338447 21.4554
0.94597 0.866457 21.3234
-1.37112 -0.502166 20.0403
-0.996186 -0.155487 19.7221
-1.10048 -0.547234 19.408
-1.20037 -0.65694 21.3494
-1.96012 -0.33698 20.5405
-0.301629 -0.415107 21.5835
-0.948042 -0.534519 21.5313
0.126106 -0.114326 21.7182
-0.226295 -0.353462 21.7211
0.623247 0.114079 21.6553
0.478161 -0.145285 21.8091
0.87986 0.235218 21.0988
0.872801 -0.0613674 21.5733
1.16162 0.491476 21.3977
1.16541 -0.0321678 21.7248
1.60099 0.474413 20.4589
-1.64352 0.0938602 19.7966
-0.823853 0.32529 19.7565
-1.24621 0.094036 19.1263
-1.78456 -0.128453 21.1405
-1.52345 0.585044 20.2937
-0.857465 -0.378929 21.7253
-1.35341 0.249437 21.2994
-0.0236696 -0.291857 21.8468
-0.577686 -0.0844869 21.7733
0.612407 -0.320377 21.6768
0.169079 -0.321267 21.717
0.989799 -0.305474 21.2271
0.486366 -0.439927 21.4325
1.24788 -0.474661 21.138
0.692184 -0.451595 21.2418
1.67283 -0.48972 20.6708
-0.798812 0.552251 20.0847
-0.628434 0.590799 19.7223
-1.05455 0.608371 20.7498
-1.1082 1.0514 20.1775
-0.785782 0.318646 21.4693
-1.29437 0.97655 21.1699
-0.201163 -0.0658468 21.6488
-0.600922 0.253986 21.8463
0.169038 -0.325203 21.5003
0.0170289 -0.294816 21.7362
0.354004 -0.394902 21.3225
0.251026 -0.495277 21.4448
0.309784 -0.56589 21.5654
-1.54453 -2.11516 19.4286
-0.982779 -0.970701 19.0428
-0.0458557 -1.50288 18.7491
-0.663699 -1.05219 22.4064
-0.011092 -4.94165 21.8665
-0.0195166 0.0905283 21.351
0.00722721 -0.70622 19.4691
-0.0102366 0.162849 21.2668
0.00805089 -0.294653 16.7102
0.192906 0.930456 21.1358
0.00292714 0.0411086 16.8865
0.533619 1.1523 21.3444
0.485167 1.43355 18.694
-0.0293351 0.132554 16.9579
0.964481 1.66147 18.5634
-0.0283004 0.917176 14.6943
-1.28998 -0.406467 18.3685
-0.0773193 -1.34497 17.7806
1.05809 2.04653 15.3006
0.729433 1.36997 7.03913
-0.243798 -1.47182 -3.34945
2.33361 1.0242 12.4808
-0.0611672 -1.05757 0.625563
-0.899813 0.811048 18.8973
-0.0791684 0.358773 17.0971
2.14165 0.185766 12.919
0.712092 -0.910043 19.4189
0.0213432 -1.08315 -2.05899
0.841803 -1.27558 19.5058
0.399482 -1.30192 -3.68749
-0.787841 1.23444 19.5924
0.0234472 1.01601 19.2575
-1.26664 1.79284 20.4522
0.0827905 2.2784 19.6822
-1.1662 1.31774 21.9121
0.0822129 2.99273 20.9533
-0.285721 0.0307699 22.0294
-0.00566711 1.06959 22.4639
0.0747753 -0.497623 21.7176
-0.000599863 -0.228034 21.9249
0.275931 -0.661842 21.1282
0.00837657 -0.673354 21.7902
0.0189872 -0.780124 21.3647
1.52352 -2.22345 19.3856
0.949782 -1.04119 18.9528
0.886214 -0.701784 19.6138
0.663145 -1.04704 22.4032
1.67642 -1.56089 20.8701
0.00609826 0.0779198 21.3727
0.242295 -0.50568 21.7115
-0.00735218 0.162079 21.3462
-0.0557908 -0.129967 21.6245
-0.194631 0.908227 21.1419
-0.368495 0.306692 21.7465
-0.422347 1.22684 21.1327
-0.362274 1.40402 18.538
-0.663689 0.655207 21.5414
-0.81839 1.71334 18.0329
-0.98619 0.95299 21.303
1.26806 -0.446107 18.1849
1.12337 -0.600397 19.3281
-0.745626 2.18421 13.4607
-0.35289 1.46017 4.75364
-1.19167 0.625024 21.0908
-2.09389 1.1968 10.0909
-1.68628 0.729881 20.0853
0.900303 0.809942 18.8984
1.26529 0.103842 19.0442
-2.04928 0.473423 9.71217
-0.752611 -0.890149 18.5929
-1.33325 -0.337086 20.3101
-0.821798 -1.3441 18.5406
-1.8428 -0.464229 20.3729
0.809589 1.1756 19.6332
0.639665 0.566236 19.7513
1.28778 1.67071 20.4805
1.10668 0.955364 20.2137
1.16428 1.27598 21.8966
1.26944 0.900492 21.1651
0.279803 0.0421008 22.0387
0.60244 0.259085 21.8506
-0.0650896 -0.502419 21.7423
-0.0124284 -0.29523 21.753
-0.249608 -0.723718 21.2181
-0.236202 -0.518108 21.4834
-0.319935 -0.626244 21.656
1.07213 -0.622036 20.2014
0.864551 -0.397206 19.8629
0.86078 -0.640354 21.2594
1.42918 -0.737978 20.6851
0.214061 -0.311356 21.5093
0.545426 -0.49224 21.4496
-0.0965235 -0.0541036 21.6146
0.0760644 -0.215663 21.5529
-0.457077 0.221009 21.5564
-0.341474 0.0737624 21.6442
-0.728252 0.429536 21.4359
-0.668346 0.273238 21.4932
-0.88496 0.337307 21.4413
1.42585 -0.522429 20.0152
1.02913 -0.174331 19.6757
1.20547 -0.662415 21.3537
1.97363 -0.342468 20.5384
0.302696 -0.415178 21.5805
0.946157 -0.534996 21.526
-0.123191 -0.118961 21.7087
0.226487 -0.355237 21.7118
-0.621612 0.111491 21.6552
-0.469839 -0.148657 21.8011
-0.921373 0.248976 21.1679
-0.912719 -0.0656766 21.5886
-1.18295 -0.0508919 21.8455
1.67782 0.0971546 19.7733
0.821469 0.323078 19.7604
1.77953 -0.12717 21.1383
1.47073 0.55162 20.311
0.853975 -0.375994 21.7214
1.31731 0.235475 21.2937
0.0241852 -0.290332 21.8431
0.577703 -0.0843662 21.7722
-0.617999 -0.325296 21.6782
-0.169932 -0.323094 21.7189
-1.09339 -0.322373 21.3148
-0.50512 -0.447308 21.4588
-0.722496 -0.505395 21.259
0.774865 0.510449 20.1175
1.00264 0.564381 20.7459
0.773425 0.309714 21.4642
0.205287 -0.0695562 21.6514
-0.167154 -0.331964 21.5119
-0.376022 -0.411416 21.3654
-1.22074 -0.582364 20.1318
-2.06896 -2.38452 18.8092
-1.39786 -1.16058 19.9275
-2.0935 -1.09776 19.4818
-1.001 -0.633179 19.5241
-2.31584 -1.7369 20.8477
-1.01839 -0.653062 21.2791
-0.302344 -0.513364 19.2988
-0.858888 -0.995015 21.7113
-1.39687 -1.34641 22.1708
-0.207495 -0.698951 21.8525
-0.259057 -0.356205 21.5349
0.222587 0.318726 16.4379
-0.015238 -0.274958 21.6405
-0.00869981 -0.627921 21.1588
0.118954 -0.226687 21.5498
0.107235 -0.0722732 21.6586
-0.0733077 0.16594 17.2392
0.129484 0.0318078 21.7248
0.178872 -0.052098 21.2658
0.53584 0.348949 21.702
0.529688 0.184888 21.588
0.218581 1.24808 18.1494
0.538562 0.513922 21.6414
0.974704 0.420327 21.3802
0.939115 0.642244 21.371
0.775091 0.334018 21.2654
0.751786 1.69588 18.4513
0.869624 0.746895 21.0998
1.29008 0.562284 21.3088
1.29167 0.819141 21.0758
-1.55541 -0.231185 19.904
-3.73635 -0.952639 16.3989
-2.51433 0.398155 18.8721
-1.27151 -0.268261 19.1815
-4.32943 -0.681536 20.4061
-1.53347 -0.484171 21.3133
-2.9533 -0.267277 21.5815
-1.08622 -1.21846 21.9804
-0.540603 -0.48231 21.6638
-1.20232 -0.948886 22.0575
-0.0870404 -0.501821 20.8334
0.0961939 -0.224733 21.8261
0.067721 -0.410043 21.2771
0.927016 0.0973436 20.3269
0.727503 -0.0991329 21.6795
-0.152649 0.99117 3.5832
1.04089 -0.41367 20.7448
1.44059 0.118518 20.7048
1.08291 -0.0200908 21.138
2.12995 1.22212 11.0252
1.41397 -0.556293 21.2029
1.92824 0.216559 20.0287
-1.2102 0.492416 19.9031
-1.62528 1.78103 18.7124
-0.878772 0.854533 19.8605
-0.963467 0.522718 19.3766
-2.16376 1.36563 19.9825
-1.54283 0.441747 20.8564
-2.82231 2.4274 20.3352
-1.28533 1.09771 20.6387
-2.29801 0.645261 21.4151
-1.02377 0.057151 21.6393
-3.18859 0.95587 22.6439
-1.02894 0.646345 21.6576
-0.880832 -0.0519863 22.1451
-0.176121 -0.200172 21.7921
0.00156889 0.0332252 19.1456
-0.247637 -0.0485118 21.8301
0.166896 -0.516084 21.9263
0.385514 -0.39945 21.5879
0.568891 -0.640113 18.6739
0.163027 -0.41191 21.616
0.616716 -0.752193 21.5792
0.655298 -0.469144 21.2378
0.937582 -1.02564 19.767
0.355482 -0.540177 21.1949
0.91139 -0.763625 21.1333
2.07056 -2.53716 18.7437
-0.0485367 -3.62844 18.7274
-0.0801176 -4.96739 15.4534
-0.0480622 -1.49481 18.3113
-0.00713349 -7.34662 23.2698
0.306719 -0.50951 19.3172
0.00364415 -2.12293 22.7758
-0.00339576 -0.068788 6.63916
-0.227612 0.31934 16.6193
0.00758089 -0.34557 17.507
-0.0136475 -0.131051 7.42494
0.0740225 0.176599 17.4428
0.00425132 -0.243841 16.6447
-0.0097761 0.0957814 9.126
-0.176553 1.21923 18.0097
-0.0132017 0.066309 16.4648
-0.162283 -0.540258 -0.763889
-0.191634 -0.314365 7.08626
-0.60036 1.78618 18.0826
-0.0244458 0.578323 16.1296
-0.203655 -0.541364 -2.35813
-0.084649 0.773054 7.50562
3.8252 -1.01691 15.999
-0.0839606 2.72104 12.961
-0.0868931 -0.64458 17.0811
0.456415 1.10923 2.2635
-0.0378431 0.777057 -0.56587
-0.0526543 -1.93156 -4.29917
-1.58789 1.5112 7.73754
0.215085 -1.25082 -3.30957
0.518251 -2.87446 -3.74786
1.64339 1.71649 18.7647
0.0478705 1.68969 19.3274
-0.00118369 1.19811 18.2971
0.073768 4.53524 18.8576
2.82882 2.26991 20.3993
0.0879997 2.62043 20.1799
0.0689921 6.03034 19.7686
3.12687 0.92873 22.6738
0.0162564 2.39311 22.2205
-0.00502464 0.846569 16.4411
-0.0776527 0.0839992 18.5997
-0.0081385 0.222071 22.2323
-0.00715851 -0.128806 7.44705
-0.612115 -0.586083 17.9695
-0.00177389 -0.435628 21.9111
-0.0203251 -0.573235 9.52183
-0.973682 -1.08366 18.6602
0.00664365 -0.895141 21.6976
0.0222233 -1.48039 11.9765
1.25523 -0.612615 20.1228
1.41906 -1.21774 19.9006
2.17801 -1.17448 19.3902
1.01584 -0.685362 19.4595
2.33212 -1.76584 20.8494
1.02302 -0.658266 21.2784
0.858678 -0.99661 21.7094
1.39756 -1.35376 22.1799
0.2174 -0.704345 21.8522
0.259185 -0.35511 21.5371
0.0200887 -0.281147 21.6378
0.0154742 -0.628631 21.1909
-0.109857 -0.233915 21.566
-0.103093 -0.0829076 21.6424
-0.132006 0.0232356 21.7192
-0.177915 -0.0624897 21.3078
-0.525477 0.320628 21.7257
-0.52332 0.181091 21.5826
-0.529559 0.497094 21.6344
-0.975628 0.472971 21.1172
-0.91452 0.688333 21.3094
-0.803492 0.330071 21.324
-0.869235 0.778999 21.0681
-1.38294 0.728567 20.7313
-1.33496 0.937739 21.05
1.60114 -0.246932 19.8803
2.57596 0.427272 18.7862
1.29999 -0.276424 19.0804
4.35943 -0.685549 20.4019
1.53717 -0.487908 21.3125
2.94847 -0.266494 21.5791
1.08657 -1.21518 21.9812
0.538453 -0.482708 21.6602
1.19908 -0.945517 22.061
0.0902505 -0.50441 20.868
-0.0951981 -0.223996 21.8214
-0.0665338 -0.405049 21.2625
-0.914783 0.0974153 20.3199
-0.729229 -0.100709 21.6796
-1.07396 -0.365982 20.3661
-1.51428 0.22764 20.1372
-1.14497 -0.0421553 21.251
-1.4851 -0.47592 20.4797
-2.08663 0.37393 19.2905
1.19103 0.47901 19.92
0.893029 0.791983 19.9035
0.962462 0.521175 19.3807
2.09337 1.24958 20.0259
1.49082 0.428125 20.856
1.26005 1.00609 20.6564
2.22747 0.60613 21.4112
1.01298 0.0562783 21.6323
1.01659 0.618081 21.6445
0.882971 -0.0499783 22.1476
0.179949 -0.198996 21.7955
0.250462 -0.042123 21.8391
-0.165247 -0.523466 21.9144
-0.397561 -0.410956 21.5916
-0.151816 -0.424363 21.6229
-0.604727 -0.797255 21.5858
-0.674271 -0.466618 21.3129
-0.360639 -0.584275 21.2389
-0.954695 -0.886128 21.1402
-1.74681 -1.18159 19.7038
-1.06037 -1.17774 21.909
0.044085 -0.440753 21.6757
0.181926 -0.0144657 21.6494
0.787364 0.557384 21.4298
1.08974 0.67122 21.3242
-2.62973 -0.479036 18.9896
-2.28708 -1.05572 22.2006
-0.448134 -0.919841 21.3022
0.204689 -0.102002 20.6098
1.18206 0.0777575 20.466
1.6453 0.0983762 21.0087
-1.5528 0.980397 19.4334
-2.3006 1.03552 20.7665
-1.70458 0.22565 22.049
-0.29238 -0.262445 22.123
0.394473 -0.646741 21.7799
0.693558 -0.891354 21.441
-0.0539188 -4.40862 17.5491
0.000836366 -0.813226 11.1099
-0.0103149 -0.0614227 6.84642
-0.0144743 -0.159062 8.63661
-0.0448493 -0.186394 8.26163
-0.188012 0.481905 7.47507
-0.0869512 -1.81476 12.2498
-0.0993995 0.0644194 -2.38494
0.220351 -2.44762 -5.63883
0.0292539 2.89089 17.8109
0.0771942 4.27687 19.5455
0.0178403 3.88912 20.815
-0.00500327 -0.198645 12.6912
-0.0174609 -0.177376 8.00482
0.00490419 -0.978741 10.9542
1.78214 -1.25734 19.6434
1.05993 -1.18084 21.9083
-0.0316716 -0.445441 21.6802
-0.178219 -0.0234096 21.6701
-0.775146 0.558174 21.3965
-1.08988 0.7281 21.3016
2.7142 -0.483651 18.8754
2.28824 -1.05763 22.2047
0.451622 -0.919543 21.3365
-0.201509 -0.10796 20.6358
-1.18743 0.174773 19.9698
-1.75001 0.226022 19.8018
1.53617 0.943475 19.4666
2.24025 0.957237 20.7847
1.67527 0.212826 22.0316
0.2964 -0.260839 22.1289
-0.383665 -0.667611 21.7714
-0.715644 -0.959457 21.5141
-0.874689 -0.330826 0.771594
-0.00206074 -0.0106811 0.051626
-0.0323057 0.00490691 0.623596
0.0986 0.0119158 0.280628
-0.0250989 0.0180888 0.130703
-0.0892318 0.0330467 1.42997
-0.077622 0.0168925 0.0947608
-0.198145 0.797246 1.25982
-0.210093 0.00336669 0.495587
0.0537223 0.0374744 0.238793
0.000461712 0.0147048 -0.0139467
0.0215501 0.0162545 0.110176
0.00207191 -0.0107919 0.0520291
0.858997 -0.327895 0.755436
0.0358917 0.00507321 0.615066
0.0231464 0.0191747 0.132775
-0.0956701 0.0127811 0.275163
0.089173 0.0333289 1.44545
0.183657 0.722174 1.15649
0.096584 0.0210495 0.117936
0.209308 0.00336389 0.493333
-0.0016248 0.0204996 -0.0188296
-0.0535993 0.0392451 0.238375
-0.0214283 0.0164584 0.10907
0.0163416 0.014024 0.992515
0.00652864 0.000620733 0.140639
-1.09083e-18 -2.915e-18 -7.24976e-17
0.0174906 0.00180876 0.0638411
-0.0512993 -0.0588234 0.930971
-0.0320853 0.0584083 0.785186
0 0 0
0.00403237 0.00022796 0.0683638
-0.553569 -0.454923 1.29539
1.78342e-19 1.02009e-18 1.71108e-17
0 0 0
-0.032789 0.0286444 0.0690267
0.00458315 0.0110553 0.0331694
0.00284392 0.019315 0.0621966
0.0158193 0.0470641 0.135157
0.063299 0.0180156 0.461109
-0.016797 0.0135998 0.991785
-0.0175697 0.00181094 0.0638976
-0.00732886 0.000711447 0.155748
0 0 0
0.0531678 -0.0624895 0.982261
-0.00410226 0.000229246 0.0685462
0.0312684 0.0593292 0.791653
3.4039e-19 3.75868e-18 1.87526e-17
0.548726 -0.450121 1.29144
0.0335199 0.0294044 0.0705083
0 0 0
0 0 0
-0.00443553 0.010696 0.031957
-0.0671054 0.0193285 0.485055
-0.0028358 0.0192708 0.0619499
-0.0156664 0.0465492 0.133589
-0.129195 -0.109194 0.815877
0 0 0
3.83187e-06 -9.5681e-07 0.000123009
-8.05436e-06 -0.000170731 0.000176577
0 0 0
0.00257681 6.18666e-05 0.0149199
-6.18441e-06 -1.81087e-05 -9.2333e-05
-0.292214 0.247137 -0.0727679
0 0 0
-0.00134616 -0.00339552 -0.00740145
0 0 0
0.000333833 -2.99157e-05 0.0109691
0 0 0
-0.000384055 0.342502 1.11425
-0.0125389 -0.0172013 0.0798421
-0.0224349 0.00911083 0.0593932
-0.000584021 0.019122 -8.87274e-05
-8.07509e-05 0.00332647 -0.00531069
0.000274307 0.0341735 0.163328
0.00130086 -0.00118828 0.0151591
0 0 0
0.128698 -0.108189 0.814101
-0.00257092 6.20201e-05 0.0149018
0 0 0
0.290001 0.25529 -0.0780366
0 0 0
-0.000350266 -3.02897e-05 0.0109378
0 0 0
0.0224522 0.00912123 0.0594269
0.00285291 -0.00403826 0.018355
-0.0013077 -0.00115111 0.0148542
-0.000591368 0.0338249 0.164457
0 0 0
0.00809516 0.000559531 0.0581597
0.00111915 -0.00819809 0.0656421
0 0 0
2.74736e-07 3.07868e-09 4.43799e-06
-1.00271e-07 5.18075e-07 8.53005e-05
0 0 0
0 0 0
-2.58551e-07 -2.15203e-07 0.000383208
0 0 0
0 0 0
-0.16895 0.0454087 1.2116
1.61347e-06 0.000942758 0.00212673
-4.87634e-06 0.0148276 0.0318348
-3.41504e-05 0.00308815 0.0482734
1.44599e-06 -5.26381e-06 0.000130963
-0.00791901 0.00054861 0.0564278
0 0 0
-0.00113517 -0.00827454 0.0663644
0 0 0
0 0 0
-5.39327e-19 1.00475e-17 4.45111e-17
0.167148 0.0459686 1.20095
0 0 0
0 0 0
0 0 0
0.00129331 -0.00384459 0.0755155
-0.00165054 -0.00389387 0.0161393
0 0 0
0.000121938 0.000917791 0.00427843
0 0 0
0 0 0
0 0 0
0.00790476 0.0426828 0.159895
0 0 0
0.011625 0.0149188 0.10419
0.00236145 3.48742e-06 0.0239306
-0.00234431 4.35245e-06 0.0239337
0.0023025 0.000130784 0.0178191