# vtk DataFile Version 2.0
tri_press
ASCII
DATASET UNSTRUCTURED_GRID
POINTS 3682 float
-0.785 0.195 -1.78421
-0.857343 0.215 1.765
-0.705 0.755 -1.81477
-0.763073 0.995 1.805
0.785 0.195 -1.78421
0.857343 0.215 1.765
0.705 0.755 -1.81478
0.763068 0.995 1.805
-0.789286 0.221495 -0.60114
-0.810724 0.230838 0.58193
-0.839842 0.950485 -0.60818
-0.822094 0.993379 0.59841
0.78924 0.221541 -0.60114
0.810643 0.230919 0.58193
0.839609 0.950253 -0.608187
0.82126 0.992548 0.598407
-1.59877 -0.209852 -2.73817
-1.59008 -0.142696 -1.78229
-1.59608 -0.118428 -0.599826
-1.60731 -0.129241 0.577901
-1.62943 -0.144914 1.75996
-1.63967 -0.139582 2.71389
-1.64296 -0.120808 3.67143
-1.59071 0.110671 -2.74499
-1.5843 0.195839 -1.78654
-1.60376 0.240859 -0.599506
-1.6124 0.242414 0.585415
-1.63234 0.229831 1.772
-1.64488 0.235555 2.72626
-1.64865 0.253873 3.68303
-1.55888 0.731903 -2.76524
-1.54303 0.815291 -1.80777
-1.62843 0.957551 -0.604695
-1.61932 0.998681 0.600043
-1.585 1.00108 1.80266
-1.62167 1.00458 2.75595
-1.64491 1.01763 3.70893
-1.54973 1.78616 -2.77794
-1.55067 1.87973 -1.81694
-1.58961 2.01781 -0.606242
-1.61674 2.10827 0.609527
-1.62079 2.14433 1.81998
-1.62873 2.1572 2.78046
-1.64137 2.16898 3.73601
-0.81192 -0.211931 -2.73665
-0.792251 -0.142399 -1.78008
-0.790551 -0.127533 -0.600124
-0.79853 -0.139169 0.574927
-0.821388 -0.157401 1.75477
-0.833961 -0.149943 2.71036
-0.837745 -0.128756 3.66938
-0.811298 0.102076 -2.74453
-0.848975 0.225936 2.72335
-0.84719 0.246341 3.68149
-0.7819 0.703661 -2.76815
-0.829123 0.998691 2.75641
-0.848096 1.01224 3.70903
-0.755808 1.76779 -2.78082
-0.747222 1.86304 -1.82011
-0.781143 2.0128 -0.608153
-0.812982 2.10894 0.609755
-0.822094 2.14432 1.82162
-0.830873 2.15604 2.7821
-0.842562 2.16718 3.7372
0.758107 -0.211978 -2.73665
0.786639 -0.142418 -1.78008
0.799259 -0.127531 -0.600125
0.823421 -0.139147 0.574927
0.849473 -0.157408 1.75477
0.811815 -0.149982 2.71036
0.788152 -0.128827 3.66938
0.74092 0.102037 -2.74453
0.792884 0.225904 2.72335
0.77411 0.246269 3.68149
0.726991 0.70361 -2.76816
0.758803 0.998629 2.75641
0.755772 1.01214 3.70902
0.811912 1.76765 -2.78082
0.832989 1.86286 -1.82012
0.832603 2.01253 -0.608158
0.803575 2.10859 0.609752
0.778093 2.14405 1.82161
0.766068 2.15584 2.78209
0.757987 2.16701 3.73719
1.55217 -0.20998 -2.73817
1.58066 -0.1428 -1.78229
1.6033 -0.118554 -0.599828
1.62848 -0.129356 0.5779
1.6508 -0.144985 1.75996
1.62677 -0.139693 2.71389
1.60219 -0.12097 3.67143
1.53653 0.11055 -2.745
1.57455 0.195731 -1.78655
1.60424 0.240672 -0.599509
1.61983 0.242202 0.585413
1.63803 0.229779 1.772
1.61048 0.23545 2.72626
1.58851 0.253707 3.68303
1.52155 0.731749 -2.76525
1.54287 0.815118 -1.80778
1.63155 0.957091 -0.604704
1.62108 0.997861 0.600039
1.58119 1.00084 1.80266
1.57122 1.00439 2.75595
1.56565 1.01741 3.70892
1.59848 1.78586 -2.77795
1.62097 1.87937 -1.81695
1.63378 2.01729 -0.60625
1.61262 2.10764 0.609521
1.58449 2.14381 1.81998
1.57049 2.15679 2.78046
1.56257 2.16862 3.73601
-0.775478 0.475 -1.82997
0 0.189701 -1.78951
-0.803378 0.192013 -1.19268
-0.844809 0.605 1.8196
0 0.202157 1.77784
-0.841202 0.21575 1.17347
0 0.823797 -1.88357
-0.811735 0.892056 -1.21148
-2.5034e-06 1.09354 1.90354
-0.817897 1.0195 1.20171
0.775476 0.475 -1.82997
0.803316 0.192075 -1.19268
0.844763 0.605 1.81956
0.841233 0.21572 1.17347
0.811729 0.892051 -1.21148
0.817856 1.01947 1.2017
-0.80052 0.225652 -0.00960499
-0.885611 0.58599 -0.60466
-2.29457e-05 0.225053 -0.60114
-0.878063 0.612108 0.59017
-4.07297e-05 0.221857 0.58193
-0.824269 0.965233 -0.00488502
-0.000116449 1.25804 -0.608183
-0.000417095 1.53222 0.598408
0.803105 0.223066 -0.00960499
0.885598 0.585897 -0.604663
0.878015 0.611734 0.590168
0.824268 0.965234 -0.00489002
-0.896869 0.530495 -1.20208
0.89687 0.530449 -1.20208
-1.14728e-05 0.183212 -1.19268
-5.82243e-05 1.02499 -1.21148
0 0.475 -2.06708
-0.887446 0.599049 -0.007245
0.887406 0.598815 -0.00724751
-3.18377e-05 0.225386 -0.00960499
-0.000266772 1.50359 -0.00488752
-0.881411 0.608554 1.18759
0.881471 0.608367 1.18758
-2.03648e-05 0.199304 1.17347
-0.000209799 1.49892 1.2017
-1.2517e-06 0.605 2.05348
-0.785118 0.335 -1.81197
-0.3925 0.189731 -1.78948
-0.796309 0.191387 -1.48844
-0.851382 0.41 1.79261
-0.428672 0.206126 1.77387
-0.848176 0.216472 1.46923
-0.747317 0.615 -1.82945
-0.3525 0.807944 -1.86772
-0.779649 0.844809 -1.51312
-0.811326 0.8 1.81969
-0.381538 1.07478 1.88478
-0.809619 1.02639 1.50335
0.3925 0.189726 -1.78948
0.785108 0.335 -1.81196
0.796296 0.1914 -1.48844
0.428672 0.206119 1.77388
0.851341 0.41 1.79257
0.848383 0.216265 1.46923
0.3525 0.80783 -1.86761
0.747589 0.615 -1.82973
0.779645 0.844806 -1.51313
0.381533 1.07659 1.88659
0.811359 0.8 1.81972
0.80957 1.02634 1.50335
-0.81028 0.192805 -0.896908
-0.796945 0.221532 -0.305373
-0.85584 0.394547 -0.6029
-0.398748 0.215087 -0.60114
-0.815236 0.234021 0.877698
-0.806834 0.227033 0.286163
-0.853193 0.417074 0.58605
-0.409569 0.217974 0.58193
-0.827589 0.92307 -0.909828
-0.870134 0.771941 -0.60642
-0.827274 0.953077 -0.306533
-0.476828 1.21796 -0.608182
-0.818902 1.00535 0.900058
-0.867804 0.811606 0.59429
-0.828343 0.984467 0.296763
-0.531026 1.50234 0.598409
0.81022 0.192865 -0.896908
0.398713 0.215087 -0.60114
0.796467 0.22201 -0.305373
0.855831 0.394513 -0.602902
0.815853 0.233404 0.877698
0.409508 0.217974 0.58193
0.80699 0.226877 0.286163
0.853165 0.416909 0.586049
0.827577 0.92306 -0.909835
0.476656 1.21796 -0.608185
0.870146 0.771847 -0.606425
0.827268 0.953073 -0.306538
0.818858 1.00531 0.900055
0.530466 1.50247 0.598408
0.867891 0.811268 0.594288
0.828388 0.984515 0.296758
-0.893567 0.502747 -1.51602
-0.387739 0.475 -2.03224
-5.73642e-06 0.182849 -1.49109
0 0.33235 -1.93183
-0.88093 0.361254 -1.19738
-0.401695 0.184426 -1.19268
-0.877274 0.606777 1.50359
-0.422405 0.605 2.0312
-1.01824e-05 0.19951 1.47565
-6.25849e-07 0.403579 2.01498
-0.87814 0.412152 1.18053
-0.420611 0.202165 1.17347
-2.91121e-05 0.982645 -1.54753
0 0.649399 -2.02647
-0.87999 0.711276 -1.20678
-0.405897 1.00882 -1.21148
-0.000106151 1.3741 1.55262
-1.87755e-06 0.849269 1.99826
-0.878281 0.814028 1.19465
-0.409053 1.48713 1.2017
0.893677 0.502724 -1.51603
0.387738 0.475 -2.03224
0.88093 0.361262 -1.19738
0.401652 0.184427 -1.19268
0.877276 0.606683 1.50357
0.422381 0.605 2.03121
0.878142 0.412043 1.18052
0.420606 0.202161 1.17347
0.878613 0.71125 -1.20678
0.405835 1.00884 -1.21148
0.878327 0.813916 1.19464
0.408823 1.48715 1.2017
-0.858016 0.405334 -0.008425
-0.404772 0.216527 -0.00960499
-0.895498 0.558242 -0.903368
-0.886453 0.59252 -0.305953
-1.72092e-05 0.183562 -0.896908
-2.73917e-05 0.22522 -0.305373
-0.881849 0.605579 0.291463
-0.874027 0.610331 0.888878
-3.62837e-05 0.225553 0.286163
-3.05472e-05 0.222201 0.877698
-0.871861 0.790143 -0.00606501
-0.531844 1.47356 -0.00488627
-8.73364e-05 1.09151 -0.909831
-0.00019161 1.42287 -0.306535
-0.000341933 1.52751 0.29676
-0.000313447 1.52191 0.900056
0.857866 0.404636 -0.00842625
0.405386 0.216529 -0.00960499
0.895499 0.558173 -0.903371
0.886428 0.592356 -0.305955
0.881818 0.605274 0.29146
0.873997 0.61005 0.888876
0.87187 0.790041 -0.00606877
0.5316 1.47361 -0.00488877
-0.880488 0.348127 -1.50223
-0.894818 0.382498 -0.900138
-0.881504 0.739756 -0.906598
-0.848631 0.663138 -1.51457
0.880486 0.348131 -1.50223
0.84863 0.663125 -1.51458
0.881725 0.739663 -0.906603
0.894816 0.382491 -0.900139
-0.397097 0.183569 -1.48977
0.397076 0.18357 -1.48977
0.39813 0.18527 -0.896908
-0.398174 0.185269 -0.896908
-0.379198 0.939302 -1.53032
-0.412938 1.06293 -0.909829
0.412791 1.06861 -0.909833
0.379168 0.939285 -1.53033
-0.39012 0.333675 -1.98601
-0.37012 0.632199 -1.97756
0.370119 0.632199 -1.97692
0.390119 0.333675 -1.98602
-0.856838 0.399985 -0.305663
-0.855429 0.411291 0.288813
-0.867152 0.799534 0.294113
-0.870514 0.7808 -0.306243
0.856758 0.39962 -0.305664
0.870534 0.780707 -0.306247
0.86718 0.799304 0.294109
0.85531 0.410875 0.288812
-0.401758 0.215811 -0.305373
0.402047 0.215812 -0.305373
0.407447 0.217251 0.286163
-0.407171 0.21725 0.286163
-0.515309 1.36771 -0.306534
-0.53711 1.4993 0.296761
0.536703 1.49938 0.296759
0.515104 1.36774 -0.306537
-0.851968 0.416813 0.883288
-0.87726 0.411076 1.48641
-0.869423 0.807014 1.50347
-0.87476 0.808386 0.894468
0.851949 0.416685 0.883287
0.874857 0.808028 0.894466
0.869451 0.806958 1.50346
0.877261 0.411022 1.4864
-0.412997 0.221527 0.877698
0.412954 0.221526 0.877698
0.424639 0.202866 1.47244
-0.424641 0.202866 1.47244
-0.410154 1.50819 0.900057
-0.395295 1.36409 1.52799
0.395178 1.36414 1.52799
0.409622 1.50822 0.900056
-0.425538 0.406789 1.9888
0.425526 0.406789 1.9888
0.401957 0.824635 1.972
-0.401972 0.824635 1.97252
-0.787384 0.265 -1.80041
-0.58875 0.191238 -1.78797
-0.792744 0.191103 -1.63633
-0.854069 0.3125 1.77851
-0.643007 0.207384 1.77262
-0.852116 0.216379 1.61712
-0.727793 0.685 -1.82374
-0.52875 0.786291 -1.84606
-0.745651 0.803231 -1.66395
-0.790601 0.8975 1.81574
-0.572305 1.05446 1.86446
-0.792511 1.01686 1.65418
0.58875 0.191233 -1.78798
0.787364 0.265 -1.8004
0.792737 0.19111 -1.63633
0.643007 0.207033 1.77297
0.854087 0.3125 1.77853
0.852472 0.216023 1.61712
0.52875 0.786285 -1.84606
0.727787 0.685 -1.82375
0.745653 0.803233 -1.66396
0.5723 1.05459 1.86459
0.790577 0.8975 1.81572
0.792507 1.01686 1.65418
-0.789639 0.217295 -0.749024
-0.792983 0.221646 -0.453256
-0.839324 0.29964 -0.60202
-0.592414 0.221496 -0.60114
-0.812916 0.232494 0.729814
-0.809715 0.227999 0.434046
-0.83788 0.320995 0.58399
-0.612161 0.220378 0.58193
-0.834212 0.937274 -0.759004
-0.857109 0.862273 -0.6073
-0.828421 0.946643 -0.457356
-0.696361 1.16027 -0.608181
-0.819599 0.998464 0.749234
-0.848172 0.904104 0.59635
-0.823428 0.987133 0.447586
-0.692272 1.27928 0.59841
0.789551 0.217382 -0.749024
0.59238 0.221507 -0.60114
0.7927 0.221929 -0.453256
0.839324 0.299633 -0.602021
0.813249 0.232161 0.729814
0.612118 0.220361 0.58193
0.809582 0.228133 0.434046
0.83791 0.320911 0.58399
0.834249 0.937313 -0.759011
0.696131 1.16011 -0.608186
[...]
POINT_DATA 3682
SCALARS point_scalars float 1
LOOKUP_TABLE default
-149.798
-61.0668
-29.2688
-49.309
-149.073
-60.6593
-30.1556
-49.1543
-41.15
-33.0061
-72.0657
-51.5635
-41.1497
-32.8804
-71.9027
-51.4638
-56.2965
-93.8646
-59.3672
-33.6345
-61.1999
-51.6882
-46.3997
-44.6305
-88.1782
-56.9613
-35.1155
-57.8277
-44.5892
-42.0437
-15.2028
-92.3426
-61.6477
-46.2904
-53.0064
-48.4138
-42.2447
-53.6048
-61.208
-105.57
-69.9846
-55.0877
-47.8706
-44.9475
-40.8521
-146.911
-43.2094
-32.7541
-58.8396
-45.909
-37.3984
47.2501
-40.8655
-37.3984
154.689
-42.7519
-41.6714
40.0011
-31.9164
-80.1771
-68.6967
-56.6546
-44.9661
-44.0448
-74.7897
-146.194
-43.1361
-32.6292
-58.4482
-45.3345
-41.994
40.0193
-40.4363
-39.3658
168.514
-42.724
-41.2739
40.181
-36.1991
-81.0771
-68.6325
-56.654
-44.673
-43.9736
-55.601
-91.1652
-59.3123
-33.5172
-60.806
-51.1743
-45.8561
-47.2371
-88.943
-56.9138
-35.0347
-57.437
-43.5179
-41.5896
-15.3249
-92.2238
-61.4832
-46.212
-52.7654
-46.9521
-41.9075
-53.3439
-61.2541
-105.973
-69.6528
-57.3103
-47.7285
-44.7937
-32.8349
-170.982
-62.8261
-49.8349
-41.1001
-40.56
-1.4047
-54.1325
-45.0309
-51.883
-32.7323
-62.7895
-49.4435
-40.4216
-54.4307
-51.7754
-35.1347
-48.688
-47.9559
-41.1031
-33.6919
-59.5548
14.7701
-77.9205
-35.2538
-48.647
-41.0356
-59.347
-68.9377
-68.8879
-73.2813
-4.20875
197.152
-44.3806
-44.3457
-36.7138
-105.363
-46.2162
-46.1137
-39.0675
-60.1217
-36.8771
-3.72057
-135.375
-86.976
-53.6926
-46.9154
-44.2944
-36.9199
-3.23879
-52.2748
-49.3402
-44.5887
-56.76
-135.366
1.99612
-86.8959
-46.7503
-53.2182
-44.0448
-4.42037
-36.9934
-52.2825
-44.5533
-49.0195
-56.5972
-55.5967
-36.6277
-44.0456
-45.6261
-25.0009
-34.5051
-37.3774
-33.3602
-52.801
-56.8848
-65.259
0.14842
-50.428
-45.3475
-54.9243
-69.2659
-55.5343
-45.6164
-36.5357
-44.0126
-25.0039
-33.3416
-34.5536
-37.3161
-52.8165
0.113904
-56.8071
-65.2031
-50.3858
-69.2246
-45.2828
-54.8965
-91.0572
189.477
-97.0927
110.724
-67.4337
-68.913
-52.2658
-40.9954
-40.5931
-29.7104
-44.124
-39.5688
-38.2524
161.227
-67.5656
-14.6521
-48.2264
-40.8842
-48.7073
-60.2566
-91.186
189.655
-67.4069
-68.9103
-52.0115
-40.5521
-43.9714
-39.5055
-67.2393
-14.5985
-48.6476
-60.216
-40.1206
-35.7085
-58.4581
-45.9914
-58.8285
-40.7326
-43.3342
-42.7172
-34.6319
-33.4147
-50.7559
-99.4835
20.1846
-56.835
-90.3709
-68.5016
-40.1015
-35.6927
-58.446
-45.9378
-43.2906
-42.6319
-50.7318
-99.4647
-97.5519
-57.713
-57.9983
-73.1441
-97.7977
-73.2481
-58.0165
-57.6678
-89.8855
-89.8949
-57.6449
-57.6547
-27.9654
8.97306
8.90961
-27.9082
152.138
136.098
136.4
152.033
-41.1329
-39.5632
-48.3845
-53.8409
-41.0694
-53.7834
-48.3496
-39.5266
-39.0371
-39.022
-34.0627
-34.0683
-52.2936
-80.3169
-80.3238
-52.033
-33.5677
-49.3582
-54.6244
-45.7054
-33.5001
-45.6075
-54.4304
-49.1078
-31.8533
-31.8223
-41.8305
-41.9464
-66.2218
-49.673
-49.6596
-66.1944
-38.7801
-38.1337
-41.6532
-41.9511
-43.4622
-135.327
-107.38
-58.4353
-53.2114
-48.1138
-25.2201
-14.6771
-48.9317
-49.7278
-44.8194
-53.5996
-135.25
-43.0738
-107.791
-52.7431
-57.881
-47.8301
-14.8538
-25.6045
-49.0506
-44.7339
-49.4795
-53.4303
-49.8079
-37.794
-42.2357
-43.5567
-32.5281
-34.2747
-36.1411
-32.9824
-62.4199
-63.0691
-70.2505
-47.8088
-50.6838
-48.2571
-53.0954
-59.3728
-49.7885
-43.5453
-37.7757
-42.2123
-32.4237
-32.946
-34.2256
-36.0746
-62.2925
-47.7707
-62.9582
-70.1393
-50.628
-59.268
-48.1801
-53.0806
-19.2759
-31.5961
-98.775
123.977
-161.31
-161.298
-120.289
29.3963
-71.8729
-57.5297
-66.2368
-65.3109
-51.21
-49.6837
-53.8255
-41.4527
-42.4513
-42.5438
-41
-31.2978
-44.4164
-40.8415
-43.4614
-39.9552
-5.86742
-5.83735
-15.1531
103.213
-66.7373
-54.8998
-62.713
-26.0113
-44.8288
-44.8731
-45.1498
-44.3255
-54.6424
-50.5983
-51.8482
-60.3969
-19.2025
-31.6271
-98.7053
124.016
-71.8268
-57.4629
-66.1997
-65.3028
-50.7508
-49.3129
-53.4941
-41.1192
-44.1769
-40.8352
-43.2993
-39.8512
-66.8002
-54.8898
-62.6353
-25.9613
-54.5378
-50.5749
-51.6892
-60.3604
-36.343
-34.8383
-38.6138
-34.791
-46.0591
-52.0837
-52.9342
-47.2401
-47.4451
-47.4409
-52.8455
-43.8768
-38.727
-42.7878
-41.7069
-41.287
-33.3988
-33.3909
-34.0434
-33.8869
-62.2973
-56.9994
-54.7861
-77.5939
12.2063
12.2489
25.0133
-12.9412
-76.4153
-76.397
-83.2799
-73.0712
-36.0834
-34.9456
-38.6601
-34.7464
-46.0219
-52.0252
-52.8917
-47.1881
-38.6664
-42.7228
-41.6557
-41.2072
-62.25
-56.9907
-54.7449
-77.5738
-82.3336
-68.3555
-69.7258
-61.4981
-82.2452
-68.3207
-69.6293
-61.4829
-83.0407
-72.1678
-72.1662
-65.4148
-19.8668
-7.69918
-7.69753
7.33548
194.216
111.859
204.84
194.537
-41.9514
-45.025
-44.1361
-47.4321
-41.9218
-44.9848
-44.0957
-47.3982
-36.4334
-38.3881
-35.4919
-36.4276
-103.147
-111.56
-97.2196
-103.147
-51.8794
-45.5282
-46.8022
-44.2805
-51.6591
-45.3769
-46.8182
-44.167
-39.9418
-39.2083
-39.1809
-38.1054
-55.0436
-60.1499
-60.1354
-64.1981
-37.6763
-31.8102
-38.7956
-37.3003
-105.678
71.9025
-107.555
54.3915
-92.6976
-86.0033
-54.0106
-41.1307
-43.818
-40.3814
-48.2055
-43.0954
-80.6923
98.6834
-35.2387
87.8379
-69.806
-33.3739
-53.506
-41.9983
-45.6677
-43.8386
-55.4758
-53.0748
-107.566
54.2243
-105.411
71.7096
-92.5635
-86.0494
-43.6609
-39.6759
-53.6522
-40.6852
-47.9668
-42.9015
-35.207
88.6032
-80.6827
98.5513
-69.8468
-33.3977
-45.595
-43.7496
-53.2286
-41.7434
-55.3473
-52.9919
-57.0775
-56.2257
-39.5517
-37.5494
-51.4776
-42.0442
-52.2918
-41.769
-27.6269
-29.9377
-37.9441
-33.8397
-38.2116
-36.2512
-33.5731
-32.763
-57.2314
-12.6691
-58.6914
-55.5055
-58.5843
-100.769
13.1515
-22.2041
-47.6316
-59.9842
-45.7732
-45.3853
-51.4583
-64.5997
-74.9183
-67.4787
-57.0169
-56.2081
-52.2815
-41.7556
-39.4731
-37.5149
-51.4411
-41.9949
-27.5673
-29.8879
-33.5618
-32.7386
-37.9173
-33.8447
-38.1595
-36.1872
-57.2297
-12.0962
13.269
-21.5408
-58.6365
-55.4355
-58.5273
-100.636
-47.5465
-59.928
-74.7695
-67.4452
-45.7253
-45.2987
-51.4094
-64.5699
-96.863
-79.749
158.806
186.715
-95.2184
-95.2167
116.673
116.503
-79.4628
-60.2878
-77.628
-62.4254
-50.5536
-53.9411
-38.3375
-40.8533
-40.9271
-40.9744
-32.6649
-32.2637
-47.122
-51.1169
-38.2828
-40.7148
-28.4373
-28.2207
155.431
155.411
-59.5255
-77.2864
-23.0565
-4.70104
-48.6234
-48.5891
-41.3366
-41.5303
-53.3041
-46.8047
-63.3699
-57.5897
-96.9422
-79.8967
186.764
159.999
-79.4559
-60.2567
-77.6312
-62.4186
-53.7091
-50.2996
-37.7306
-40.4567
-46.9896
-50.9028
-38.2363
-40.6291
-77.2235
-59.4921
-4.57286
-23.0158
-46.7257
-53.0072
-57.5101
-63.3323
-40.5904
-39.7836
-37.0549
-34.7576
-58.1647
-58.8586
-43.1342
-49.6862
-58.5006
-58.5051
-40.3062
-40.3005
-40.9076
-46.1534
-38.4049
-43.2772
-34.4605
-34.465
-32.9251
-32.9107
-50.2087
-52.1491
-108.427
-88.0384
17.9209
17.814
-51.9819
-51.9161
-89.2469
-89.2252
-67.8568
-67.8398
-40.5347
-39.7649
-37.041
-34.7503
-58.8688
-58.1353
-43.0751
-49.6316
-46.1133
-40.8694
-38.3264
-43.1816
-52.1023
-50.1671
-88.0812
-108.709
-97.2219
-77.4178
-80.7509
-105.597
-50.0366
-51.6384
-61.1387
-60.2738
-61.8051
-57.8926
-61.7929
-55.5748
-71.8816
-89.3492
-84.2245
-72.1359
-95.859
-105.597
-80.727
-77.3541
-72.0412
-72.2546
-83.9656
-89.2823
-61.7429
-55.5279
-61.8213
-57.8371
-50.0027
-60.2265
-61.1116
-51.5981
-104.66
-116.991
-81.6871
-73.5709
-104.717
-73.5805
-81.6863
-116.985
-51.3519
-52.8412
-64.6225
-59.7105
-51.3703
-59.7271
-64.6257
-52.8456
-37.5272
-31.33
-19.5352
-28.0043
-17.5745
21.9617
4.63993
-19.9913
-18.305
-19.9219
4.7523
21.9128
-37.501
-28.2361
-19.4298
-31.3444
37.78
104.522
115.708
13.7829
86.0912
101.723
192.779
126.964
86.019
126.812
192.737
99.2963
32.7912
13.7382
113.415
105.036
-40.2056
-39.1019
-42.4677
-44.1836
-37.2094
-39.539
-41.7151
-38.2649
-48.7541
-53.9149
-47.1128
-43.5746
-61.1388
-50.9511
-48.4484
-56.4939
-40.158
-44.1336
-42.4202
-39.0165
-61.0486
-56.4452
-48.3997
-50.8921
-48.7123
-43.5251
-47.0652
-53.8911
-37.1396
-38.2753
-41.6829
-39.4875
-39.7739
-43.3409
-38.0468
-35.9828
-39.7445
-35.9599
-38.0409
-43.3358
-33.0994
-33.8963
-35.2729
-34.7315
-33.1205
-34.7102
-35.2778
-33.9021
-100.593
-86.5106
-112.999
-13.467
-65.0072
-81.713
-95.2633
-70.0564
-64.9376
-70.0364
-95.2567
-81.6901
-100.364
-13.3319
-113.007
-86.5735
-34.222
-49.4178
-44.9804
-38.1251
-53.2546
-53.562
-51.4901
-50.6757
-53.3133
-53.2905
-52.9886
-54.0392
-47.7551
-42.5952
-44.8492
-46.8952
-34.17
-38.0578
-44.8343
-49.3141
-47.6783
-46.8904
-44.7151
-42.5192
-53.0872
-53.7219
-52.674
-53.0848
-52.9234
-50.4563
-51.281
-53.2084
-32.5785
-33.6549
-38.2103
-38.9796
-32.5382
-38.9119
-38.1901
-33.6441
-45.9489
-41.6916
-40.114
-41.3195
-46.258
-41.4608
-40.1508
-41.742
-57.4438
-60.6875
-63.978
-71.8905
-47.8944
-45.2757
-55.6749
-59.4471
-47.8025
-59.3338
-55.6481
-45.2391
-57.3553
-71.8736
-63.9539
-60.6398
-43.1151
-33.8413
-33.7537
-40.4891
-42.6111
-40.094
-33.2934
-34.1985
-42.8055
-43.981
-39.3676
-41.0631
-42.9693
-41.3819
-39.6625
-44.0273
-87.8061
-159.145
-144.794
-62.8088
-57.0666
-51.4943
-26.6601
-7.47606
-61.905
-49.5826
-45.9996
-51.5207
-158.813
-87.1268
-144.518
-56.5985
-62.2723
-51.2555
-7.58357
-25.4954
-62.0399
-45.8712
-49.3663
-51.3683
-43.5394
-38.9577
-41.0694
-42.5268
-32.8102
-33.8601
-34.387
-32.7747
-71.5734
-67.2375
-74.8465
-87.9869
-51.2338
-49.7534
-52.162
-55.5361
-43.5238
-42.5114
-38.9688
-41.056
-32.677
-32.7079
-33.7629
-34.2906
-71.5252
-87.8167
-67.102
-74.6491
-51.098
-55.4117
-49.7016
-52.1861
-27.1263
-33.3755
-77.7643
67.1364
-170.431
-170.425
-140.52
-62.1766
-66.5919
-59.5587
-64.9948
-63.8012
-50.9847
-49.8725
-52.4142
-42.312
-41.7111
-41.5823
-41.1148
-34.3895
-41.624
-38.9325
-42.2144
-40.2827
-5.47143
-5.2462
-19.4678
35.5524
-58.377
-55.6106
-61.1801
-38.2957
-45.0227
-45.0246
-44.7764
-45.2949
-52.9508
-51.2391
-52.1005
-56.0741
-26.9892
-33.3309
-77.6517
67.0014
-66.5568
-59.5177
-64.9457
-63.7819
-50.5348
-49.5016
-52.0378
-41.9693
-41.4542
-38.8726
-42.0615
-40.1573
-58.4061
-55.566
-61.1146
-38.2926
-52.8456
-51.1726
-51.9772
-56.0077
-35.9325
-34.9857
-37.084
-34.4893
-47.2464
-50.2101
-50.4032
-47.947
-47.8458
-47.8439
-50.352
-45.7958
-39.7937
-41.9226
-41.2335
-41.256
-33.6188
-33.6146
-33.7178
-33.8902
-61.2298
-58.2097
-57.4575
-67.4418
14.2241
14.2929
21.8593
0.871868
-77.5349
-77.5259
-80.6487
-75.2401
-35.4507
-35.3714
-37.2776
-34.5492
-47.2086
-50.163
-50.3653
-47.897
-39.7333
-41.8579
-41.1739
-41.1793
-61.1689
-58.223
-57.3427
-67.3979
-74.6476
-68.6086
-69.2821
-64.7827
-74.5808
-68.5634
-69.2527
-64.7551
-77.8551
-72.9917
-72.9908
-69.1655
-10.9121
-5.17221
-5.20203
0.323028
196.676
164.292
208.826
196.032
-43.1292
-44.6527
-44.1461
-45.7685
-43.0977
-44.6146
-44.1121
-45.7299
-36.6518
-37.4869
-36.0443
-36.6491
-104.525
-106.325
-101.757
-104.53
-48.8709
-45.9448
-46.5722
-45.2045
-48.7257
-45.8039
-46.4639
-44.8219
-39.5245
-39.1144
-39.1032
-38.4909
-57.7978
-60.1467
-60.1426
-62.2158
-36.6099
-31.921
-39.5559
-36.3671
-35.1719
-7.69454
-117.94
47.7159
-131.453
-145.057
-119.652
-64.983
-97.8033
-78.4092
-93.1358
-85.3287
-55.5586
-53.3011
-55.4836
-43.012
-49.967
-44.1964
-45.2568
-42.89
-45.6278
-43.9664
-46.9229
-43.5936
-29.3398
-26.9687
-71.7914
53.7902
-11.4505
-4.54519
-26.1663
35.7084
-47.2546
-60.4063
-66.8411
-37.9392
-49.8122
-49.2954
-52.0986
-43.0448
-44.5762
-44.6853
-44.7808
-44.5642
-54.9148
-56.4082
-55.9891
-55.5397
-131.409
-145.042
-119.661
-64.9723
-34.8439
-10.1842
-117.035
47.7701
-98.4412
-78.3078
-92.6836
-85.4116
-49.5197
-44.325
-45.0647
-41.7048
-55.0173
-52.7481
-55.0383
-42.5664
-45.3551
-43.6968
-46.6856
-43.3777
-11.0444
-4.90928
-25.1968
36.1171
-29.5302
-27.1216
-71.9241
53.9984
-47.2814
-60.4496
-66.8432
-37.9548
-44.5224
-44.6789
-44.7386
-44.5023
-49.5364
-48.9447
-51.796
-42.762
-54.7555
-56.2668
-55.811
-55.423
-57.0607
-55.7804
-57.5146
-55.4999
-37.0516
-36.2775
-38.0363
-37.0774
-43.0326
-45.0656
-46.3845
-42.861
-44.4367
-46.8181
-48.0784
-43.5362
-29.9601
-32.7309
-25.3831
-28.5911
-34.2886
-34.577
-36.4365
-33.9302
-36.423
-38.1626
-37.867
-36.8226
-33.2595
-33.1917
-33.4077
-33.164
-55.8463
-52.9376
-56.5927
-30.329
-59.7285
-54.3901
-57.6254
-56.2717
-66.4877
-63.349
-62.2277
-78.3706
-11.882
6.87974
9.01699
-9.84462
-50.2975
-50.2234
-49.0234
-55.0111
-46.8597
-43.8406
-45.4067
-45.1609
-54.2061
-55.0669
-53.0806
-60.4139
-62.4677
-73.9646
-71.3147
-68.8501
-57.0314
-55.7042
-57.4487
-55.474
-44.4236
-46.8116
-48.0693
-43.5247
-36.9939
-36.0874
-37.9345
-37.008
-43.0021
-45.0303
-46.3539
-42.8204
-29.8856
-32.7544
-25.3638
-28.5649
-33.2344
-33.1792
-33.3929
-33.1424
-34.2941
-34.7141
-36.4381
-33.9365
-36.3564
-38.0997
-37.8099
-36.7581
-55.7486
-52.9524
-56.5725
-30.7301
-11.8867
6.93203
9.03863
-9.74867
-59.636
-54.3219
-57.5553
-56.1962
-66.4024
-63.3018
-62.1674
-78.3837
-50.2398
-50.189
-48.9553
-54.9402
-62.422
-73.9448
-71.2639
-68.8245
-46.7905
-43.7738
-45.3479
-45.0893
-54.1747
-55.0373
-53.0625
-60.2949
-89.7103
-91.8692
-95.1859
-86.6147
168.286
196.688
181.146
194.549
-107.266
-89.2649
-96.4642
-96.4627
80.0701
106.15
111.393
111.317
-66.7102
-67.8418
-72.4095
-63.0636
-67.0675
-70.7374
-72.9219
-65.4302
-53.2403
-51.8931
-51.1388
-53.4809
-41.4853
-40.0255
-38.7381
-41.6372
-40.8382
-40.299
-40.669
-40.6908
-29.9238
-30.3666
-30.6171
-30.3756
-43.7175
-44.8812
-44.5743
-46.8504
-39.7124
-39.3526
-38.7425
-40.156
-11.5494
-36.429
-31.1963
-32.1892
145.663
185.912
156.867
157.219
-64.591
-69.2475
-63.3953
-72.5559
-19.5052
-10.7834
-18.7899
-9.59058
-46.2223
-51.6826
-48.4101
-48.3938
-42.2683
-39.768
-40.8516
-40.9777
-48.9903
-47.4022
-51.0661
-47.3566
-60.0121
-60.1498
-61.8039
-59.0499
-89.6693
-92.0342
-95.2957
-86.8614
168.315
196.699
194.594
181.467
-66.6851
-67.8128
-72.3872
-63.0338
-67.0642
-70.7345
-72.9219
-65.4252
-52.9616
-51.6622
-53.2313
-50.8862
-41.1036
-39.5624
-38.1561
-41.2733
-43.5608
-44.7282
-44.4303
-46.6713
-39.6291
-39.3082
-38.6881
-40.0826
-64.4379
-68.9915
-71.823
-63.0565
-19.4513
-10.7452
-9.51624
-18.7422
-48.8422
-47.5423
-47.2849
-50.7988
-59.9676
-60.1224
-58.995
-61.7689
-39.2135
-41.0383
-40.3082
-39.9405
-35.2489
-36.1447
-36.3172
-35.2063
-56.104
-59.7082
-58.4459
-58.6614
-46.5911
-45.4975
-44.5154
-47.5848
-55.9728
-61.9896
-58.7292
-58.7314
-42.204
-39.4564
-40.6459
-40.6433
-42.0637
-44.583
-41.6981
-45.2233
-41.6754
-43.2562
-41.2078
-42.7255
-34.3131
-35.0247
-34.59
-34.5924
-33.9366
-35.4608
-33.3538
-33.3478
-52.6577
-49.0643
-49.3784
-51.4156
-95.233
-101.496
-113.462
-92.0908
24.3078
14.7705
19.7478
19.6904
-35.0916
-97.8711
-55.1904
-55.1952
-86.6229
-93.7803
-90.1635
-90.1511
-70.9025
-66.1656
-68.3125
-68.304
-39.2165
-41.0137
-40.2722
-39.9276
-35.1982
-36.1345
-36.303
-35.1935
-56.0721
-59.6972
-58.6541
-58.4317
-46.5378
-45.4507
-44.4578
-47.5301
-42.024
-44.5454
-45.1783
-41.6581
-41.5914
-43.1996
-41.1316
-42.6343
-52.6369
-49.0346
-51.3778
-49.3303
-95.2261
-101.523
-92.1234
-113.487
-95.937
-93.8423
-96.9586
-90.761
-56.8438
-57.242
-58.2676
-57.9238
-57.2882
-58.7965
-58.0194
-58.9803
-80.1387
-72.0018
-76.1204
-74.0702
-96.2201
-93.9518
-97.0433
-90.7608
-80.267
-72.0525
-76.391
-74.3866
-57.284
-58.7823
-57.9824
-59.0216
-56.7899
-57.1984
-58.2292
-57.8839
-98.2784
-87.5379
-92.6637
-83.152
-98.2893
-87.5626
-92.6639
-83.1584
-56.9739
-56.7387
-59.819
-58.1552
-56.9867
-56.7504
-59.8275
-58.1623
-32.9177
-31.592
-27.0245
-25.9603
0.542195
12.5871
2.10087
14.4011
0.192643
12.2992
2.50055
14.5503
-32.8041
-31.6232
-26.8942
-25.9047
140.768
119.001
149.872
141.361
124.208
127.528
165.663
147.996
128.324
123.945
148.116
165.724
118.887
140.976
141.292
149.666
-40.2214
-41.5039
-40.7999
-42.0847
-38.5975
-38.6025
-39.9612
-40.2984
-46.6581
-49.6177
-46.8751
-50.4787
-54.6796
-56.0984
-51.8837
-52.9418
-40.1549
-41.4462
-40.7361
-42.0273
-54.6147
-56.0418
-51.8257
-52.889
-46.6148
-49.5503
-46.8375
-50.4578
-38.5689
-38.552
-39.9349
-40.2603
-38.1856
-40.2861
-37.9888
-39.8005
-40.2714
-38.165
-39.7906
-37.9744
-33.8017
-33.89
-34.2969
-34.3629
-33.8904
-33.8098
-34.3679
-34.3032
-86.2921
-38.5306
-70.4942
-51.3729
-70.714
-78.0195
-82.8657
-86.257
-77.9019
-70.7418
-86.2328
-82.9008
-38.2539
-85.5969
-51.2556
-70.4347
-30.1643
-35.2208
-41.5194
-35.6706
-50.8926
-48.8558
-49.9315
-50.3073
-54.4359
-55.193
-54.2085
-54.3694
-46.8159
-45.4357
-46.1078
-44.2689
-30.0875
-35.1535
-41.419
-35.5836
-46.7277
-45.3405
-46.0093
-44.1728
-54.2037
-55.0232
-53.9953
-54.1877
-50.6009
-48.6098
-49.6792
-50.0761
-30.6008
-32.5369
-34.6864
-32.3151
-30.5635
-32.5103
-34.6489
-32.2928
-42.6849
-42.2612
-41.3343
-41.2046
-42.8196
-42.4191
-41.4105
-41.304
-65.4204
-67.3538
-64.9063
-67.22
-47.251
-51.0912
-48.8756
-54.0234
-47.1852
-51.0302
-48.8573
-53.9739
-65.3674
-67.324
-64.873
-67.1943
-40.2436
-39.3217
-38.3922
-35.8131
-38.6186
-39.7623
-35.3347
-37.7794
-42.634
-41.7524
-41.5262
-40.8889
-42.0222
-42.8421
-41.2531
-41.7881
-138.954
26.2585
-119.905
-47.6422
-93.2898
-107.201
-58.3618
-46.0901
-48.9899
-45.7148
-51.0632
-46.9877
-68.8866
54.5594
-36.9111
43.6354
-64.1048
-43.0069
-52.566
-43.8843
-46.0999
-43.8638
-53.4072
-51.1254
-119.953
-51.5498
-137.892
25.4893
-93.2248
-107.313
-48.5693
-45.1648
-57.9267
-45.579
-50.7608
-46.6864
-36.9225
43.6956
-68.9668
54.5932
-64.2899
-42.8451
-46.0212
-43.7503
-52.3285
-43.6722
-53.2245
-51.0107
-49.9588
-50.7318
-38.7596
-38.8835
-44.5527
-41.0758
-46.4156
-41.3106
-33.39
-32.4086
-35.9814
-33.4325
-36.7888
-35.5647
-33.2062
-32.6761
-64.6411
-47.1804
-62.7686
-62.7536
-65.9252
-91.2453
-22.4874
-68.382
-49.2336
-53.7048
-48.456
-47.8701
-50.9909
-59.3261
-62.0371
-58.2409
-49.9304
-50.7142
-46.4015
-41.2879
-38.7145
-38.8428
-44.5335
-41.0381
-33.2979
-32.3608
-33.1746
-32.6372
-35.9092
-33.3938
-36.7203
-35.4966
-64.5739
-46.2785
-22.2242
-68.1599
-62.6795
-62.6414
-65.8123
-91.1496
-49.1644
-53.6367
-61.9097
-58.145
-48.4085
-47.786
-50.9671
-59.2386
-95.0143
48.9689
-69.7915
72.0958
-103.358
-95.1902
115.562
131.175
-134.626
-93.4246
-134.616
-93.4297
-119.415
-119.411
35.4637
35.413
-75.9754
-72.0179
-58.7386
-58.4835
-70.6506
-62.7064
-69.0285
-62.1988
-53.9966
-42.3637
-52.472
-42.6698
-53.5766
-54.2122
-40.6122
-41.8664
-42.1674
-36.3604
-42.1317
-36.3569
-41.1604
-41.2045
-32.2743
-32.1293
-49.0683
-41.9247
-45.3459
-39.7074
-44.2924
-46.1179
-39.3129
-40.6792
-27.1072
35.6246
-27.2339
35.8509
-20.5628
-21.0934
94.9884
95.1426
-73.4267
-42.5275
-57.8124
-35.1324
-60.2348
-66.0393
-27.0727
-24.568
-44.7342
-45.2515
-44.7351
-44.9858
-45.212
-45.1925
-44.1323
-44.2547
-53.5258
-58.2597
-49.2839
-55.0305
-52.4749
-48.2549
-60.8822
-60.0283
-94.77
48.6991
-69.7502
71.9986
-103.39
-95.1359
131.155
115.632
-75.8724
-72.0187
-58.6763
-58.4517
-70.6055
-62.6652
-69.0279
-62.2183
-53.5705
-41.9408
-52.1239
-42.3415
-53.8829
-53.2287
-40.2403
-41.4369
-48.8335
-41.7452
-45.2355
-39.6289
-44.1567
-45.9271
-39.2269
-40.5579
-73.54
-42.5099
-57.7739
-35.1113
-66.1141
-60.1255
-24.5335
-26.9106
-53.4078
-58.1508
-49.3042
-54.9716
-48.2767
-52.3074
-60.0045
-60.8373
-37.7138
-35.8988
-36.7935
-34.4992
-38.8582
-38.3337
-35.2948
-34.5851
-48.0575
-44.9979
-53.4006
-51.4288
-52.0745
-53.919
-45.6938
-48.7791
-49.8994
-45.2188
-49.8954
-45.2142
-52.8651
-52.8673
-43.7752
-43.7729
-38.9948
-38.4022
-43.0683
-42.4998
-40.5786
-42.6838
-39.6018
-41.9039
-33.6819
-33.4571
-33.6751
-33.448
-34.0107
-34.0135
-33.8426
-33.8378
-59.6923
-72.3273
-55.4968
-63.0384
-53.3405
-55.6541
-81.4863
-73.5668
18.3692
0.614349
18.3507
0.904897
24.1275
24.1103
-11.9166
-11.9499
-79.1675
-73.8889
-79.1419
-73.8719
-82.9389
-82.9299
-72.792
-72.7846
-37.514
-35.8072
-36.8021
-34.5481
-38.8267
-38.3658
-35.3512
-34.5025
-48.0256
-44.9524
-53.3482
-51.3693
-53.8779
-52.0285
-45.6429
-48.7244
-38.9379
-38.3373
-43.0103
-42.4355
-42.6303
-40.5349
-39.527
-41.8305
-59.6459
-72.2907
-55.4839
-62.9963
-55.6025
-53.2772
-73.5443
-81.4778
-81.2781
-84.0393
-73.785
-64.3033
-64.9794
-76.2868
-61.3243
-61.8471
-81.2227
-83.9238
-73.7475
-64.2718
-76.1301
-64.9602
-61.8523
-61.3007
-82.6878
-82.6873
-76.6065
-68.1895
-76.6054
-68.1871
-65.1981
-65.1999
-20.1126
-19.9654
-12.6499
-2.38314
-2.34227
-12.6245
6.92525