# vtk DataFile Version 2.0
tri_press
ASCII
DATASET UNSTRUCTURED_GRID
POINTS 3682 float
-0.774814 0.285 -2.035
-0.755267 0.375 2.135
-0.725 0.855 -1.9958
-0.525 1.54302 1.855
0.774814 0.285 -2.035
0.755264 0.375 2.135
0.725 0.855 -1.9958
0.525 1.54303 1.855
-0.829505 0.253794 -0.645
-0.850046 0.256737 0.745
-0.72745 1.15346 -0.7122
-0.644057 1.36607 0.5714
0.829504 0.253793 -0.645
0.8504 0.25638 0.745
0.726745 1.15276 -0.7122
0.644044 1.36606 0.5714
-1.52488 -0.269797 -3.06354
-1.53639 -0.168967 -1.99416
-1.56602 -0.194698 -0.601408
-1.56072 -0.234587 0.812757
-1.49877 -0.161123 2.20731
-1.48341 -0.0517027 3.28553
-1.494 0.0680803 4.3474
-1.52536 0.121237 -3.0822
-1.53151 0.258157 -2.02443
-1.56185 0.279822 -0.652385
-1.53698 0.290409 0.72924
-1.44211 0.392503 2.10333
-1.4494 0.502722 3.18004
-1.47764 0.616706 4.24538
-1.50339 0.822565 -3.08964
-1.48361 0.951356 -2.02747
-1.47379 1.18091 -0.72796
-1.37928 1.36525 0.564016
-1.26915 1.52808 1.86557
-1.35565 1.62945 2.94669
-1.43604 1.72377 4.02918
-1.48698 2.08298 -3.18079
-1.47454 2.24838 -2.13457
-1.45434 2.54227 -0.869551
-1.41229 2.84422 0.372532
-1.3798 3.0772 1.63866
-1.39683 3.2093 2.68721
-1.43739 3.3126 3.75809
-0.765994 -0.253608 -3.07041
-0.765222 -0.14532 -2.00417
-0.797685 -0.203648 -0.600064
-0.818228 -0.262004 0.826208
-0.780424 -0.181047 2.23083
-0.778848 -0.0641663 3.30149
-0.791747 0.0605663 4.35663
-0.774568 0.124582 -3.08431
-0.7722 0.495301 3.1932
-0.789662 0.612598 4.25235
-0.760915 0.783356 -3.07648
-0.701196 1.63608 2.94457
-0.766345 1.7277 4.02873
-0.750259 2.05038 -3.16778
-0.742095 2.2146 -2.12023
-0.736719 2.52706 -0.860911
-0.719193 2.84955 0.371496
-0.705313 3.09058 1.63126
-0.724178 3.22152 2.67982
-0.758441 3.32169 3.75271
0.767752 -0.253704 -3.07041
0.797549 -0.145373 -2.00417
0.827376 -0.203722 -0.600064
0.820783 -0.262258 0.826208
0.748646 -0.181147 2.23083
0.673408 -0.0642525 3.30149
0.632677 0.0604631 4.35663
0.747407 0.124503 -3.08431
0.63223 0.495244 3.1932
0.605505 0.612507 4.25235
0.723679 0.783256 -3.07648
0.55478 1.63604 2.94457
0.571588 1.72762 4.02873
0.722378 2.05016 -3.16778
0.719589 2.21434 -2.12023
0.696864 2.52678 -0.860911
0.65444 2.84937 0.371495
0.616238 3.09047 1.63126
0.600237 3.22142 2.67982
0.591043 3.32158 3.75271
1.53389 -0.270046 -3.06354
1.56276 -0.1692 -1.99416
1.59533 -0.194964 -0.601408
1.58222 -0.234983 0.812757
1.49455 -0.161386 2.20731
1.4092 -0.0519141 3.28553
1.359 0.0678568 4.3474
1.51279 0.120992 -3.08219
1.53677 0.257889 -2.02443
1.57333 0.279514 -0.652385
1.55856 0.290014 0.72924
1.4552 0.392289 2.10333
1.36229 0.50255 3.18005
1.32488 0.616503 4.24538
1.47846 0.822265 -3.08963
1.48139 0.950953 -2.02747
1.47699 1.1802 -0.72796
1.39373 1.365 0.564015
1.27714 1.52793 1.86557
1.26022 1.6293 2.94669
1.27183 1.72358 4.02918
1.46121 2.08253 -3.18079
1.45352 2.24787 -2.13457
1.42196 2.54173 -0.869551
1.36192 2.84385 0.372532
1.30561 3.07694 1.63866
1.28575 3.20907 2.68721
1.28133 3.31236 3.75809
-0.797819 0.57 -2.06331
0 0.270938 -2.04906
-0.809103 0.262453 -1.34
-0.692089 0.95901 2.04696
-1.51992e-06 0.357356 2.15264
-0.847058 0.271466 1.44
0 0.905408 -2.04621
-0.702067 0.980071 -1.354
0 1.57006 1.88204
-0.594871 1.46489 1.2132
0.7975 0.57 -2.06299
0.809177 0.262379 -1.34
0.692145 0.959015 2.04701
0.847219 0.271303 1.44
0.70209 0.980095 -1.354
0.594844 1.46487 1.2132
-0.841194 0.253846 0.05
-0.876801 0.703625 -0.6786
-3.98638e-07 0.25117 -0.645
-0.867798 0.811403 0.6582
0.000177181 0.252801 0.745
-0.686897 1.26091 -0.0704
-0.000352632 1.32421 -0.7122
-6.36154e-06 1.57177 0.5714
0.841193 0.253846 0.05
0.876806 0.703274 -0.6786
0.867837 0.811222 0.6582
0.686899 1.26091 -0.0704
-0.883375 0.636813 -1.347
0.883376 0.636637 -1.347
-1.99319e-07 0.258637 -1.34
-0.000176316 1.00919 -1.354
0 0.57 -2.2807
-0.874567 0.757514 -0.0102
0.874657 0.757248 -0.0102
8.83912e-05 0.251212 0.05
-0.000179497 1.5569 -0.0704
-0.877506 0.885207 1.3266
0.877515 0.885119 1.3266
8.78305e-05 0.265761 1.44
-3.18077e-06 1.57465 1.2132
-7.59959e-07 0.959013 2.13121
-0.800228 0.4275 -2.06307
-0.387407 0.271985 -2.04801
-0.795083 0.270602 -1.6875
-0.725231 0.667005 2.09253
-0.377634 0.34109 2.16891
-0.822504 0.301892 1.7875
-0.757427 0.7125 -2.02557
-0.3625 0.901497 -2.0423
-0.73401 0.938011 -1.6749
-0.599235 1.25102 1.94167
-0.2625 1.56836 1.88034
-0.571142 1.51516 1.5341
0.387407 0.272003 -2.048
0.800225 0.4275 -2.06306
0.795108 0.270576 -1.6875
0.377631 0.359001 2.151
0.725239 0.667008 2.09254
0.82268 0.301713 1.7875
0.3625 0.901435 -2.04224
0.75751 0.7125 -2.02566
0.734011 0.938014 -1.6749
0.2625 1.56837 1.88034
0.599091 1.25102 1.94153
0.571135 1.51516 1.5341
-0.817165 0.260262 -0.9925
-0.835348 0.253821 -0.2975
-0.891157 0.459708 -0.6618
-0.414656 0.252674 -0.645
-0.849092 0.263561 1.0925
-0.84629 0.254622 0.3975
-0.892564 0.517249 0.7016
-0.425924 0.252789 0.745
-0.655631 1.00764 -1.0331
-0.818096 0.936526 -0.6954
-0.708474 1.20848 -0.3913
-0.390267 1.29156 -0.7122
-0.620305 1.41632 0.8923
-0.7497 1.08562 0.6148
-0.670836 1.31885 0.2505
-0.371705 1.56827 0.5714
0.817227 0.2602 -0.9925
0.414655 0.252675 -0.645
0.835347 0.253821 -0.2975
0.891146 0.459539 -0.6618
0.848799 0.263852 1.0925
0.426188 0.252791 0.745
0.846562 0.254348 0.3975
0.892546 0.517088 0.7016
0.655619 1.00763 -1.0331
0.389776 1.29164 -0.7122
0.818261 0.936257 -0.6954
0.708475 1.20849 -0.3913
0.620307 1.41633 0.8923
0.371696 1.56827 0.5714
0.749721 1.08553 0.6148
0.670838 1.31886 0.2505
-0.880457 0.603406 -1.70516
-0.39891 0.57 -2.26647
-9.96595e-08 0.261244 -1.69453
0 0.420469 -2.284
-0.888639 0.449633 -1.3435
-0.404552 0.259394 -1.34
-0.851437 0.922108 1.68678
-0.346045 0.959011 2.11936
4.31553e-05 0.298727 1.79632
-1.13994e-06 0.658184 2.20378
-0.888286 0.578337 1.3833
-0.423485 0.267153 1.44
-8.8158e-05 0.976604 -1.7001
0 0.737704 -2.19778
-0.878139 0.808442 -1.3505
-0.351122 1.00586 -1.354
-1.59038e-06 1.57467 1.54762
-3.7998e-07 1.26454 2.00393
-0.726317 1.17505 1.2699
-0.297437 1.57289 1.2132
0.880542 0.603319 -1.705
0.39875 0.57 -2.26673
0.88864 0.449508 -1.3435
0.404588 0.259388 -1.34
0.851282 0.922067 1.68681
0.346072 0.959014 2.11946
0.888289 0.578211 1.3833
0.423653 0.267147 1.44
0.87813 0.808366 -1.3505
0.350957 1.00586 -1.354
0.72634 1.17499 1.2699
0.29742 1.5729 1.2132
-0.892922 0.48816 0.0199
-0.420452 0.252731 0.05
-0.88385 0.670219 -1.0128
-0.876058 0.73057 -0.3444
-2.98979e-07 0.252856 -0.9925
4.39963e-05 0.251192 -0.2975
-0.871598 0.784459 0.324
-0.885094 0.848305 0.9924
0.000132786 0.251233 0.3975
0.000132506 0.259464 1.0925
-0.773138 1.00541 -0.0403
-0.414298 1.55042 -0.0704
-0.000264474 1.09544 -1.0331
-0.000266064 1.51979 -0.3913
-9.29292e-05 1.56738 0.2505
-4.77115e-06 1.57461 0.8923
0.892915 0.488052 0.0199
0.420539 0.252732 0.05
0.88408 0.669956 -1.0128
0.876067 0.730261 -0.3444
0.871627 0.784235 0.324
0.885048 0.84817 0.9924
0.773227 1.00531 -0.0403
0.414103 1.55039 -0.0704
-0.880534 0.438566 -1.69633
-0.896241 0.464171 -1.00265
-0.864966 0.868491 -1.02295
-0.860103 0.760471 -1.69003
0.880454 0.438504 -1.69625
0.860335 0.760433 -1.68995
0.865147 0.868191 -1.02295
0.896244 0.464021 -1.00265
-0.395979 0.263783 -1.69102
0.395998 0.263765 -1.69102
0.40967 0.253202 -0.9925
-0.409652 0.25321 -0.9925
-0.356811 0.975419 -1.6875
-0.357512 1.06962 -1.0331
0.357077 1.07082 -1.0331
0.356729 0.975393 -1.6875
-0.393158 0.423985 -2.31129
-0.380705 0.725102 -2.17686
0.380625 0.725102 -2.1769
0.393078 0.423985 -2.31129
-0.892205 0.473851 -0.32095
-0.892631 0.50276 0.36075
-0.760739 1.04518 0.28725
-0.803134 0.974729 -0.36785
0.892192 0.473714 -0.32095
0.803253 0.974536 -0.36785
0.760822 1.04509 0.28725
0.892621 0.502625 0.36075
-0.417553 0.252705 -0.2975
0.417597 0.252705 -0.2975
0.423364 0.252761 0.3975
-0.423188 0.25276 0.3975
-0.436568 1.48956 -0.3913
-0.39497 1.56328 0.2505
0.394873 1.56328 0.2505
0.436844 1.49083 -0.3913
-0.895132 0.556203 1.04245
-0.878853 0.622671 1.73714
-0.705108 1.21303 1.61044
-0.739761 1.13189 0.94235
0.895133 0.556006 1.04245
0.739784 1.13182 0.94235
0.705119 1.21301 1.61045
0.878774 0.622609 1.73715
-0.42421 0.259603 1.0925
0.424471 0.25961 1.0925
0.400642 0.302078 1.79191
-0.40056 0.28834 1.79191
-0.309734 1.57252 0.8923
-0.279969 1.57337 1.54086
0.27996 1.57337 1.54086
0.30972 1.57252 0.8923
-0.361839 0.662595 2.19156
0.361852 0.662596 2.19157
0.304286 1.25778 1.99589
-0.304272 1.25778 1.99586
-0.79421 0.35625 -2.05572
-0.581111 0.27271 -2.04729
-0.791671 0.271079 -1.86125
-0.784219 0.521003 2.15774
-0.566451 0.359956 2.15004
-0.78706 0.340272 1.96125
-0.746515 0.78375 -2.01599
-0.54375 0.88355 -2.02435
-0.737607 0.904608 -1.83535
-0.543529 1.39702 1.87975
-0.39375 1.56625 1.87823
-0.556076 1.53709 1.69455
0.581111 0.272705 -2.0473
0.794191 0.35625 -2.0557
0.791699 0.27105 -1.86125
0.566448 0.361744 2.14826
0.784214 0.521004 2.15773
0.787096 0.340233 1.96125
0.54375 0.883517 -2.02432
0.746534 0.78375 -2.01601
0.737589 0.90459 -1.83535
0.39375 1.56626 1.87823
0.543447 1.39703 1.87966
0.556041 1.53707 1.69455
-0.826581 0.253782 -0.81875
-0.832426 0.253807 -0.47125
-0.86615 0.353841 -0.6534
-0.622078 0.253239 -0.645
-0.845829 0.263889 0.91875
-0.848129 0.255718 0.57125
-0.873774 0.385759 0.7233
-0.638699 0.253334 0.745
-0.687235 1.07624 -0.87265
-0.777005 1.04711 -0.7038
-0.719539 1.18255 -0.55175
-0.567394 1.23958 -0.7122
-0.632482 1.3915 0.73185
-0.704361 1.22959 0.5931
-0.654042 1.33905 0.41095
-0.547698 1.5468 0.5714
0.82658 0.253782 -0.81875
0.622077 0.253239 -0.645
0.832425 0.253808 -0.47125
0.866151 0.353753 -0.6534
0.845843 0.263873 0.91875
0.63892 0.253335 0.745
0.848465 0.25538 0.57125
0.873737 0.385602 0.7233
0.687211 1.07622 -0.87265
0.567019 1.23971 -0.7122
0.778288 1.0474 -0.7038
0.719493 1.1825 -0.55175
0.632502 1.39152 0.73185
0.547688 1.54681 0.5714
0.704383 1.22955 0.5931
0.654022 1.33904 0.41095
-0.804091 0.49875 -2.06826
-0.761385 0.64125 -2.0282
-0.847184 0.586703 -1.88423
-0.598365 0.57 -2.20771
-0.193704 0.27167 -2.04833
0.193704 0.27168 -2.04832
-4.98298e-08 0.265517 -1.8718
0 0.345704 -2.24877
[...]
POINT_DATA 3682
SCALARS point_scalars float 1
LOOKUP_TABLE default
-99.8403
-54.0487
-67.2861
-44.8002
-99.8898
-54.2312
-67.306
-45.8742
-41.3624
-40.454
-90.949
-51.8184
-41.3965
-40.6808
-90.0168
-51.9847
-72.6975
-87.8878
-41.5564
-40.0541
-54.289
-55.0663
-46.5956
16.6798
-82.3974
-41.5353
-38.5879
-54.0868
-48.7504
-45.7747
67.8121
-102.547
-59.3673
-48.5759
-46.2179
-41.9382
-43.212
-64.5326
-52.6808
-98.6276
-61.1539
-44.896
-44.4579
-44.4579
20.0842
-119.875
-41.1026
-45.0947
-53.274
-47.8727
-46.9789
127.413
-46.3706
-46.0807
171.275
-38.4568
-42.3338
-17.368
-52.0056
-89.6264
-61.8467
-43.9408
-42.4271
-42.4271
20.0752
-120.321
-40.9442
-45.3938
-53.4785
-47.7071
-46.8043
127.399
-46.5111
-46.0493
177.319
-37.755
-42.7222
-16.7773
-51.4713
-88.523
-61.941
-44.2435
-43.5361
-41.5127
-72.7619
-88.1069
-41.5952
-40.3322
-54.6399
-55.3617
-46.3788
16.4829
-84.0491
-41.5418
-38.8351
-54.4671
-48.762
-45.9063
67.2658
-102.618
-59.2899
-48.678
-47.1928
-42.4564
-43.5445
-64.5454
-52.6942
-95.6468
-61.275
-45.4889
-45.5337
-45.5337
-52.9354
-125.967
-49.91
-43.4987
-52.0369
-49.9663
-69.7134
-27.8122
-38.4654
-45.5976
-52.4945
-49.9114
-44.2627
-50.3499
-27.8884
-45.9766
-38.7502
-48.0012
-43.3146
-42.2435
-45.5082
-69.0062
29.0619
-59.2808
-38.8265
-48.0088
-42.446
-69.1801
-54.6526
-54.699
-55.8075
5.90744
197.771
-46.9142
-47.1995
-41.0215
-94.7522
-46.8566
-47.281
-53.6593
-46.7281
-39.6916
-63.9463
-116.579
-68.2179
-45.906
-53.3712
-57.6975
-68.1543
-64.0119
-48.7893
-40.3323
-39.5282
-43.7653
-116.552
-63.4763
-68.1813
-52.1827
-46.4023
-58.2916
-64.0317
-74.8682
-48.8166
-40.3266
-41.3746
-44.36
-41.1437
-39.2247
-43.0145
-42.6628
-45.9906
-39.3205
-40.2054
-44.7506
-18.5656
-64.1542
-84.9828
21.4262
-48.0535
-47.1524
-58.6027
-56.1262
-41.1977
-42.6773
-39.2797
-43.0432
-46.201
-44.8641
-39.4439
-40.4226
-18.6144
21.6346
-64.0736
-85.2683
-48.3263
-56.2062
-47.3549
-58.7426
-84.4946
166.576
-74.2591
136.908
-52.8404
-53.7358
-50.0185
-39.6985
-56.4809
-44.9254
-47.2931
-52.8672
-25.4453
157.525
-55.171
-1.74709
-43.0615
-32.131
-46.2104
-46.1557
-84.5887
166.503
-52.8752
-53.75
-50.6706
-40.6022
-47.6652
-53.4716
-55.2052
-1.74279
-46.6674
-46.3197
-41.6555
-40.4093
-47.988
-48.426
-47.5528
-41.1784
-44.3471
-45.2227
-42.5144
-48.2738
-58.8279
-94.1642
33.0149
-114.128
-72.5097
-51.9486
-41.7988
-40.4458
-47.9458
-48.4457
-44.5416
-45.646
-59.3259
-94.2401
-78.8933
-45.2351
-50.5287
-65.712
-78.9925
-65.5714
-50.5092
-45.25
-71.1986
-71.2153
-46.4782
-46.466
-28.7119
20.218
20.6561
-28.7204
145.807
147.645
147.803
145.715
-42.3972
-40.9416
-51.6697
-63.0903
-42.4708
-63.0783
-51.78
-41.1208
-40.5441
-40.5676
-41.8913
-41.8287
-85.5033
-69.2179
-69.2638
-85.3063
-45.5664
-53.9402
-45.297
-45.2634
-45.8704
-45.6528
-45.9966
-54.565
-47.6274
-47.849
-57.1912
-55.1398
-51.7951
-43.3732
-43.648
-51.9037
-44.6167
-44.8011
-35.8997
-34.6102
-64.2099
-130.697
-94.9835
-50.7922
-53.2184
-54.0746
-62.8286
-77.134
-57.9395
-40.5841
-42.0792
-45.4545
-130.723
-64.7446
-95.0415
-52.7389
-51.0859
-54.3133
-77.0635
-62.9975
-57.9977
-43.1637
-41.5897
-46.218
-42.6128
-40.3588
-41.721
-41.9181
-44.9698
-41.4239
-37.4665
-44.0959
-27.0315
-85.194
-100.444
-4.99442
-49.6656
-49.6131
-54.6362
-54.7653
-42.6291
-41.9392
-40.3967
-41.7593
-45.2382
-44.2563
-41.5579
-37.6891
-27.5419
-5.56312
-84.9891
-101.379
-49.8909
-54.7345
-49.8032
-54.7663
-59.4388
-62.8388
-87.7997
127.105
-124.259
-124.254
-91.8809
0.831276
-54.592
-45.4867
-51.3436
-51.8072
-45.5041
-41.3795
-49.8844
-41.1636
-52.2291
-52.1371
-53.519
-47.4142
-57.864
-46.6302
-47.8543
-51.7869
-64.497
-64.5218
-43.3997
69.397
-37.0849
-20.8898
-42.3496
-11.5763
-38.6241
-39.0602
-41.6771
-35.3521
-44.625
-47.7236
-45.9251
-45.7546
-58.6537
-62.6653
-87.9417
127.194
-54.6735
-45.5054
-51.373
-51.823
-46.0427
-42.3361
-50.6821
-42.0665
-58.5828
-46.9541
-48.2232
-52.3552
-37.1611
-20.9674
-42.41
-11.6118
-45.1119
-48.0479
-46.3685
-45.9848
-38.8733
-38.4973
-40.0841
-39.7525
-45.0068
-53.0909
-47.4331
-48.5041
-43.1455
-43.1524
-45.2068
-41.9722
-40.6573
-44.7606
-43.2154
-40.4068
-45.2871
-45.3463
-43.8594
-47.2272
-76.4081
-63.002
-62.3469
-84.9232
28.1492
28.2079
48.546
-12.9562
-58.7008
-58.7422
-65.2969
-55.1418
-38.9415
-38.5716
-40.2005
-39.8049
-45.0288
-53.0462
-47.4274
-48.5091
-40.8699
-44.9185
-43.3997
-40.8502
-76.5944
-63.1463
-62.6221
-85.1295
-65.0323
-53.919
-55.6914
-49.103
-65.2205
-53.965
-55.7179
-49.1271
-63.1991
-55.3001
-55.307
-50.4344
-10.1604
3.673
3.67936
18.6377
193.804
197.827
189.986
195.134
-43.8923
-47.6804
-45.6484
-52.3229
-44.0783
-47.7641
-45.8842
-53.2105
-40.8643
-40.8724
-41.5737
-40.8824
-94.7465
-115.109
-81.4234
-94.7852
-48.7493
-47.5707
-46.9496
-45.991
-49.2762
-47.966
-47.4092
-46.345
-56.7847
-53.4285
-53.7816
-50.7918
-44.73
-46.5708
-46.6545
-49.1175
-39.5112
-45.3646
-34.6958
-40.1523
-83.5701
103.828
-89.6896
19.654
-74.4118
-69.5477
-52.3837
-44.2523
-52.8391
-47.1327
-55.2062
-56.7794
-79.8877
111.201
-46.0205
81.2329
-55.2335
-34.5915
-45.2183
-37.3378
-42.992
-36.6717
-44.78
-43.9198
-89.6638
19.7266
-83.2109
103.686
-74.5872
-69.559
-53.7498
-46.9117
-52.9538
-44.5664
-55.6902
-58.0327
-46.0322
81.5239
-79.9179
111.255
-55.1295
-34.6255
-43.4486
-37.5503
-46.1236
-38.563
-45.4593
-44.379
-44.1644
-44.7804
-40.6761
-39.9543
-44.9627
-42.8348
-44.436
-41.2894
-45.6274
-46.9967
-39.5767
-41.0519
-40.7557
-42.9026
-43.1246
-46.9069
-50.3743
6.53909
-57.6241
-64.1569
-70.8234
-106.986
34.0623
-17.6404
-46.5526
-50.943
-48.9005
-45.9812
-54.6995
-62.8928
-62.555
-54.8858
-44.1816
-44.7987
-44.448
-41.308
-40.7464
-39.9896
-44.9855
-42.8811
-45.9059
-47.2579
-43.2083
-47.0631
-39.7543
-41.1414
-40.9546
-43.1607
-50.4564
6.0927
33.9888
-17.3685
-57.503
-64.1213
-70.9718
-107.421
-46.8752
-51.1069
-62.6276
-54.9851
-49.047
-46.3082
-54.8232
-62.9796
-82.3969
-78.6312
184.318
162.683
-73.4786
-73.4852
139.937
139.911
-61.953
-47.19
-60.8102
-48.5723
-52.2461
-46.5098
-44.6824
-35.867
-56.7604
-56.1386
-44.9173
-45.0203
-45.4214
-50.6125
-50.0815
-56.4555
-25.813
-25.8193
159.492
159.332
-49.4892
-62.4905
-15.4047
9.51482
-43.1388
-43.2948
-33.512
-32.7308
-46.114
-47.752
-48.4002
-44.2376
-82.3679
-78.2088
162.71
184.187
-62.028
-47.2204
-60.8247
-48.5875
-47.2075
-52.8425
-44.9372
-37.0913
-45.7531
-51.0219
-50.4348
-57.7563
-62.6764
-49.5299
9.48746
-15.4135
-48.1528
-46.6794
-44.4446
-48.5303
-41.9779
-41.2449
-40.2737
-40.9188
-46.2906
-50.0934
-44.8936
-53.97
-47.3267
-47.3205
-41.0099
-41.021
-42.4266
-47.7434
-45.2747
-44.045
-42.3772
-42.3455
-48.0667
-48.1926
-54.0555
-61.6884
-110.523
-78.6664
30.6643
30.7683
-105.139
-105.238
-71.7993
-71.8315
-51.8585
-51.9137
-42.0862
-41.408
-40.3036
-40.9661
-50.0829
-46.286
-44.9544
-53.9217
-47.9112
-42.6137
-45.5878
-44.5924
-61.7832
-54.2171
-78.7239
-110.307
-81.4629
-59.6704
-63.2967
-89.3035
-45.2185
-45.8509
-48.274
-45.6672
-67.3689
-43.0032
-50.0066
-49.895
-76.6413
-85.1224
-67.3333
-49.0989
-81.3918
-89.2811
-63.4332
-59.7337
-76.6708
-49.429
-67.5753
-85.1877
-67.0975
-49.8646
-50.0101
-43.0544
-45.2426
-45.6929
-48.3048
-45.8705
-91.2246
-90.8286
-62.6066
-58.1341
-91.2119
-58.1762
-62.6129
-90.8194
-43.8019
-44.9126
-49.9644
-47.0311
-43.785
-47.0094
-49.9585
-44.9065
-50.8167
-22.8217
-11.3217
-43.7663
10.0231
45.7045
16.6121
-0.28981
9.9326
-0.350435
16.7082
45.7046
-50.8322
-43.7743
-11.3226
-22.8406
12.7714
135.125
200.251
-5.01668
49.3249
81.7015
185.822
114.486
49.1911
114.697
185.909
82.0928
12.674
-4.99891
200.267
135.468
-41.5381
-40.3104
-44.4158
-45.091
-41.1717
-41.6426
-43.1255
-39.4625
-51.6153
-58.2455
-49.7241
-46.006
-75.0734
-54.1516
-52.4877
-66.7697
-41.5863
-45.1239
-44.5282
-40.4063
-75.1392
-66.9934
-52.1073
-54.1287
-51.7611
-46.1896
-49.9716
-58.4087
-41.3557
-39.5991
-43.3124
-41.918
-40.6769
-41.8056
-40.7172
-39.6695
-40.7044
-39.7134
-40.7315
-41.8143
-42.3668
-43.8002
-41.4261
-40.2708
-42.258
-40.2042
-41.4024
-43.7571
-55.244
-103.864
-115.104
-19.5917
-59.3315
-64.5571
-80.7978
-71.4285
-59.4518
-71.5753
-80.8352
-64.5827
-54.2819
-19.5065
-115.189
-103.979
-43.7334
-45.2729
-45.8334
-42.07
-54.1301
-52.3326
-50.6017
-53.4394
-44.9532
-45.4861
-46.7332
-47.0369
-48.1705
-44.6855
-47.4344
-47.78
-43.9898
-42.3507
-46.1826
-45.5921
-48.4346
-48.1669
-47.784
-45.1121
-45.8412
-47.9116
-47.3008
-46.0284
-54.5564
-53.922
-51.1022
-52.9929
-45.8768
-47.1711
-50.5719
-49.0891
-46.0803
-49.4928
-50.7771
-47.2574
-53.4501
-53.6721
-57.2798
-58.164
-53.459
-57.1375
-56.6723
-53.5486
-51.3149
-47.9696
-48.9341
-55.0393
-43.8969
-41.8536
-44.6474
-44.0317
-44.467
-44.3616
-44.757
-42.0987
-51.4574
-55.0864
-49.0008
-48.1575
-46.4437
-47.3203
-45.0529
-44.3811
-46.4344
-44.7617
-45.2808
-47.2883
-39.0897
-36.0723
-35.1855
-39.6381
-38.1097
-38.3822
-34.6277
-35.5527
-77.0461
-133.709
-115.935
-51.9001
-53.6866
-53.3161
-65.5786
-67.3547
-79.7595
-41.9089
-43.5678
-45.4001
-133.781
-77.1154
-115.93
-53.7785
-52.1861
-53.0967
-67.1926
-65.5979
-79.8011
-44.6649
-42.992
-45.876
-41.8128
-40.6119
-41.5619
-41.5392
-44.794
-40.5794
-37.5461
-43.5993
-51.8216
-95.5278
-107.631
-34.9211
-50.5695
-50.7658
-53.0704
-52.9382
-41.8268
-41.606
-40.6485
-41.594
-45.0691
-43.7879
-40.7541
-37.7849
-52.4358
-36.9466
-94.7644
-107.351
-50.759
-53.0915
-50.9473
-53.2137
-55.5448
-57.9598
-89.6281
65.989
-125.622
-125.613
-108.388
-135.509
-51.267
-47.0296
-50.4738
-50.9167
-44.5845
-42.5396
-48.8666
-42.0493
-52.0841
-52.0478
-52.4342
-48.3411
-51.8113
-46.7492
-49.0041
-51.0983
-65.2056
-65.2427
-55.9567
-52.1965
-33.2489
-24.1166
-37.995
-18.8955
-38.4464
-38.6598
-41.0116
-35.7658
-44.5801
-46.4193
-45.7422
-46.023
-54.7903
-57.7542
-89.5404
64.7143
-51.3105
-47.0724
-50.5017
-50.9293
-45.2132
-43.401
-49.7313
-42.8314
-52.2476
-47.0426
-49.4298
-51.5884
-33.3218
-24.1911
-38.0644
-18.9519
-45.0071
-46.759
-46.1712
-46.2931
-38.7311
-38.5149
-39.3849
-39.4036
-46.439
-50.1054
-47.3796
-48.2353
-43.2685
-43.2719
-44.2088
-42.5745
-41.2164
-43.4184
-42.7502
-41.8234
-45.4726
-45.5024
-44.7373
-46.2269
-72.6353
-65.9332
-65.6381
-75.3065
28.7875
28.8102
43.0232
10.3581
-59.1772
-59.1996
-61.9237
-57.0638
-38.8045
-38.5796
-39.4901
-39.4615
-46.4701
-50.0905
-47.3831
-48.2351
-41.4301
-43.5876
-42.9372
-42.0483
-72.8176
-66.0919
-65.8545
-75.4657
-59.6719
-54.4249
-55.2569
-51.3271
-59.7412
-54.4738
-55.2924
-51.3598
-59.2099
-55.6755
-55.6784
-52.9873
-2.73098
4.98859
4.98712
12.8086
196.576
204.69
185.743
195.676
-45.3272
-47.306
-46.3113
-49.2335
-45.5487
-47.5021
-46.5912
-49.6611
-40.9796
-40.8993
-41.2445
-40.9888
-94.7282
-103.558
-87.4614
-94.7473
-47.8864
-47.31
-46.7424
-45.8924
-48.3548
-47.7176
-47.1907
-46.274
-54.805
-53.5831
-53.7623
-52.4129
-45.6744
-46.6757
-46.7176
-47.8548
-39.5679
-43.2523
-37.1482
-39.8172
-68.9011
-61.518
-88.8705
52.2703
-120.524
-120.979
-107.344
-96.3027
-79.5078
-61.053
-71.4629
-68.8196
-48.1417
-46.3205
-51.5255
-44.148
-54.1594
-52.3154
-54.6097
-50.0239
-56.2118
-60.6555
-55.9773
-57.7939
-63.866
-72.6008
-109.084
52.6385
-73.6587
-62.6988
-58.4486
-14.3743
-53.5042
-42.8777
-53.3246
-39.1893
-40.2107
-40.6575
-46.1232
-38.4203
-40.3397
-38.9907
-41.9643
-37.0127
-44.0636
-43.9002
-44.6685
-43.6751
-120.488
-120.974
-107.31
-96.3526
-68.8341
-60.8232
-88.7416
51.5658
-79.4814
-61.0676
-71.4689
-68.81
-52.248
-52.3016
-52.4717
-48.1497
-48.5276
-46.7913
-52.0871
-44.5541
-56.6049
-61.3701
-56.4439
-58.8246
-73.4182
-62.693
-58.4165
-14.3264
-64.4589
-70.256
-109.004
52.5831
-53.519
-42.9855
-53.2559
-39.2207
-41.2633
-39.6248
-42.5458
-37.8961
-41.2747
-41.6091
-47.2137
-39.517
-44.7228
-44.5282
-45.33
-44.171
-41.3402
-43.6294
-43.0365
-43.2904
-39.457
-38.8831
-40.1045
-39.666
-42.1834
-43.9404
-43.2514
-42.958
-42.3475
-42.9124
-43.6621
-41.8243
-44.4258
-47.0135
-45.8601
-46.654
-40.8576
-38.8483
-37.6079
-40.6465
-39.336
-40.6028
-40.4478
-42.2665
-44.211
-45.0978
-43.8571
-45.8267
-20.8583
-20.2354
-41.1126
-6.00916
-72.2066
-57.8555
-61.2586
-64.4858
-91.6353
-80.3116
-77.3758
-112.987
13.3178
25.9222
31.187
5.10923
-49.0983
-47.8559
-47.2284
-48.564
-48.0861
-46.4841
-47.9111
-46.3087
-56.9775
-60.0805
-56.4956
-60.9442
-56.2546
-57.7461
-59.4242
-54.1358
-41.3784
-43.658
-43.0709
-43.3146
-42.3652
-42.923
-43.6752
-41.8406
-39.5056
-38.9441
-40.1752
-39.7111
-42.2171
-43.9624
-43.2747
-42.9933
-44.6956
-47.2405
-46.1128
-46.8913
-44.3477
-45.1851
-43.954
-45.9588
-40.9826
-38.9434
-37.7915
-40.7499
-39.553
-40.8198
-40.654
-42.505
-20.9621
-20.2944
-41.1363
-5.98211
13.2621
25.9788
31.1851
5.29266
-72.204
-57.7613
-61.1341
-64.4926
-92.3412
-80.5545
-77.6514
-113.47
-49.3521
-48.1556
-47.5317
-48.7178
-56.3575
-57.8048
-59.4993
-54.2244
-48.2796
-46.7269
-48.0837
-46.5604
-57.1096
-60.2077
-56.6408
-61.0685
-82.4077
-75.3183
-83.1097
-82.5977
149.457
179.086
184.022
158.826
-81.6117
-68.0712
-73.9687
-73.971
81.7573
179.082
137.857
137.831
-52.0807
-53.3291
-57.1936
-49.7306
-52.7154
-54.6434
-56.9361
-51.0576
-50.7269
-49.1957
-51.3128
-47.6801
-40.2076
-39.4494
-42.9616
-37.8543
-54.7785
-57.4789
-56.5354
-56.2513
-47.0022
-45.8031
-44.9821
-45.0396
-47.2786
-47.3876
-46.3108
-48.3254
-52.3725
-53.1934
-51.7643
-54.0772
-33.4517
-17.3682
-25.3459
-25.3482
116.452
182.283
160.174
160.003
-48.0182
-55.8931
-51.4358
-58.4219
-6.07032
1.90208
-9.25983
4.78588
-42.1124
-43.8777
-43.0652
-43.144
-33.4966
-32.7266
-32.812
-32.3745
-46.059
-46.308
-46.236
-46.9735
-45.9586
-46.3939
-47.2272
-45.1519
-82.5439
-74.3251
-83.1183
-82.1477
149.046
179.219
158.808
184.292
-52.1095
-53.3706
-57.2313
-49.7629
-52.7301
-54.6552
-56.9554
-51.0693
-51.4631
-49.7914
-48.3679
-51.9239
-41.1852
-40.183
-43.4365
-38.9492
-47.6467
-47.7692
-46.6612
-48.7028
-52.9882
-53.7054
-52.2171
-54.9172
-48.0543
-55.9161
-58.4565
-51.4591
-6.08429
1.91298
4.80178
-9.2665
-46.5106
-46.7678
-47.3962
-46.7416
-46.1614
-46.5186
-45.3375
-47.3728
-40.559
-42.6686
-41.8553
-41.4006
-40.1002
-40.6689
-40.2822
-40.6182
-47.9043
-48.011
-46.8964
-49.2494
-48.5517
-48.0719
-46.4543
-50.7175
-46.2658
-48.8262
-47.531
-47.5283
-41.5002
-40.9695
-41.1258
-41.1284
-43.6738
-44.9437
-43.2111
-45.9069
-41.1027
-46.5145
-45.9106
-42.7754
-43.1395
-41.992
-42.5093
-42.4935
-47.7233
-49.4679
-48.2017
-48.2663
-59.2949
-55.2599
-56.0469
-61.0609
-93.4498
-94.6849
-102.466
-85.9158
45.1013
24.6826
32.6794
32.5907
-73.2138
-126.574
-113.424
-113.444
-69.0484
-76.5965
-72.1802
-72.2095
-53.4706
-50.4966
-51.9117
-51.939
-40.6835
-42.8294
-41.9836
-41.5555
-40.145
-40.6964
-40.3147
-40.6595
-47.9049
-48.0816
-49.2488
-46.8601
-48.5649
-48.1081
-46.4955
-50.7035
-43.8605
-45.1535
-46.0956
-43.4035
-41.3341
-46.8468
-46.2445
-43.4732
-59.6398
-57.0029
-61.7975
-56.3184
-92.3533
-94.7267
-85.951
-102.518
-89.066
-78.6075
-79.7097
-66.7882
-44.8519
-46.6909
-44.7068
-45.6358
-49.2808
-55.0752
-47.3087
-52.3613
-65.6077
-57.1764
-72.5596
-64.722
-89.4765
-78.8709
-79.8085
-66.8206
-65.5997
-57.1305
-72.2655
-64.9071
-49.257
-55.0029
-47.3404
-52.3292
-44.8635
-46.7116
-44.7264
-45.6509
-78.7731
-70.1407
-72.3654
-65.3754
-78.7736
-70.1654
-72.3761
-65.389
-45.9383
-45.2984
-47.4374
-46.9805
-45.9237
-45.2864
-47.4225
-46.971
-36.4813
-31.6064
-26.8953
-21.8017
13.5692
29.2171
13.7337
26.3419
14.1835
29.188
13.598
26.3643
-36.5038
-31.534
-26.9073
-21.8095
111.539
102.061
173.456
148.223
131.81
122.843
159.775
153.682
123.101
131.954
153.638
159.868
102.089
111.564
148.162
173.283
-41.2936
-42.5272
-42.2317
-43.5908
-40.5168
-40.9254
-41.0709
-41.6
-50.0695
-53.0616
-50.003
-52.8794
-63.8194
-67.2919
-58.3115
-62.5294
-41.3645
-42.5884
-42.3198
-43.664
-63.8069
-67.3665
-58.2492
-62.4903
-50.2048
-53.1688
-50.1123
-52.9385
-40.688
-41.1153
-41.2424
-41.7838
-40.258
-40.8555
-40.3659
-40.816
-40.8766
-40.2876
-40.8332
-40.3926
-42.4916
-41.5408
-42.1756
-41.3813
-41.4641
-42.4188
-41.3271
-42.128
-79.9385
-41.4032
-112.213
-94.9365
-67.1445
-65.8366
-73.1644
-70.798
-65.9014
-67.1884
-70.8396
-73.2141
-40.5004
-81.0136
-95.2721
-112.951
-45.8856
-43.5502
-45.4057
-45.5358
-54.6344
-53.9382
-53.1162
-52.8536
-44.178
-45.0112
-45.717
-45.8063
-45.9666
-45.6685
-46.0474
-44.8435
-46.1791
-43.8255
-45.7216
-45.8406
-46.3187
-46.0334
-46.4396
-45.2674
-44.9461
-45.702
-46.4201
-46.4356
-55.1728
-54.4492
-53.7117
-53.4073
-47.3406
-47.1895
-48.7751
-47.8685
-47.5904
-47.3741
-49.0525
-48.0487
-55.0852
-58.0072
-56.6851
-58.8381
-53.1113
-56.4627
-55.7585
-56.3328
-50.8877
-54.9537
-49.6198
-51.6327
-42.9718
-43.5044
-43.2965
-43.8556
-43.3117
-43.8846
-43.5256
-44.0903
-51.0181
-55.0603
-49.7372
-51.7165
-44.3132
-45.9926
-45.1871
-44.7889
-45.9149
-44.5441
-44.9392
-45.3656
-36.5863
-37.3654
-34.5089
-35.9694
-36.0431
-35.5149
-34.5961
-33.4201
-94.5392
-2.94801
-116.572
-63.588
-90.577
-92.5465
-54.2942
-46.7397
-53.5051
-47.6736
-55.1565
-53.5003
-96.749
31.2744
-63.7337
-9.33062
-68.3968
-54.8467
-46.9767
-38.8916
-43.4086
-38.664
-45.4525
-45.0865
-116.568
-63.5161
-94.481
-3.2118
-90.7459
-92.5458
-52.4325
-47.911
-54.6788
-46.8558
-55.5111
-53.4556
-63.6796
-9.68216
-96.768
31.1722
-68.4567
-54.902
-44.1232
-39.6456
-48.0516
-39.87
-46.3103
-45.7114
-42.06
-43.569
-41.6185
-40.4385
-41.9185
-41.7197
-42.7021
-41.1888
-44.61
-45.1807
-42.4459
-41.7076
-39.7128
-40.8714
-43.0402
-45.2125
-51.9444
-8.27857
-79.8685
-79.5032
-85.1839
-101.4
7.94355
-21.658
-48.9598
-50.3091
-50.4572
-48.9302
-53.1965
-56.2916
-56.649
-53.1218
-42.0902
-43.5844
-42.7207
-41.2131
-41.6638
-40.4638
-41.9424
-41.7671
-44.8669
-45.395
-43.1826
-45.3968
-42.5951
-41.8427
-39.9227
-41.1085
-52.3442
-8.43949
7.66099
-21.0015
-78.995
-79.5828
-85.3514
-100.594
-49.2053
-50.5053
-56.7178
-53.1692
-50.6178
-49.1564
-53.3357
-56.4116
-85.7995
68.5234
-99.7128
44.0099
-89.4439
-86.6504
139.131
106.508
-107.395
-117.738
-107.382
-118.938
-91.4544
-91.4429
6.3364
6.34865
-58.0081
-56.406
-45.3823
-46.3921
-54.739
-48.2139
-54.8132
-49.3004
-51.1887
-44.443
-47.6077
-39.695
-51.3013
-48.7313
-43.0517
-39.7964
-52.6945
-48.2729
-52.4354
-48.3224
-53.5904
-53.5014
-47.3623
-47.3461
-56.7705
-57.5732
-45.1265
-48.2271
-46.443
-47.5188
-50.3201
-53.734
-57.0115
-40.2674
-57.0358
-40.426
-43.5222
-43.5264
77.2525
77.455
-44.8056
-29.3721
-36.8322
-9.39602
-41.7493
-46.5605
-17.3711
-5.88092
-41.2154
-35.9288
-41.5385
-36.4437
-41.6649
-41.7807
-35.6042
-35.3308
-45.1974
-44.6639
-47.5404
-47.9997
-45.6235
-46.7311
-46.8168
-44.8162
-85.8128
70.4539
-99.8428
43.8064
-89.5164
-86.771
106.457
139.51
-58.1339
-56.4814
-45.4027
-46.4127
-54.799
-48.241
-54.8307
-49.3193
-51.8708
-44.8624
-48.6619
-40.7707
-49.5995
-52.0053
-43.7001
-40.9327
-57.3368
-58.4181
-45.4323
-48.6106
-46.7844
-47.9163
-50.7687
-54.5077
-44.8794
-29.4189
-36.9014
-9.49721
-46.6248
-41.7946
-5.91819
-17.4067
-45.7202
-45.0667
-47.8965
-48.2634
-47.1535
-46.1117
-45.1003
-47.0284
-39.6188
-39.3847
-38.4555
-39.7641
-40.1489
-39.7244
-39.6627
-39.9292
-45.1694
-44.9438
-51.3385
-54.0933
-46.8348
-48.2411
-46.4103
-50.8626
-44.0496
-42.3942
-44.0558
-42.4021
-45.1014
-45.0985
-41.9297
-41.9339
-41.0718
-40.1091
-45.2123
-43.7029
-42.179
-44.6676
-40.4116
-42.6837
-44.5254
-46.0916
-44.5759
-46.1619
-43.8326
-43.8109
-47.2589
-47.301
-71.352
-86.9292
-60.6219
-66.5618
-60.2194
-64.522
-93.0807
-77.7306
41.0074
9.79843
41.0172
9.92376
47.7811
47.7956
-14.0668
-14.0154
-61.2892
-56.698
-61.3254
-56.7415
-65.2632
-65.261
-55.1028
-55.1268
-39.7091
-39.4346
-38.5678
-39.8508
-40.2572
-39.8499
-39.7102
-39.9877
-45.1995
-44.9484
-51.2933
-54.0669
-48.2278
-46.8311
-46.4262
-50.8572
-41.2873
-40.3407
-45.3934
-43.6196
-44.8507
-42.3654
-40.709
-42.9668
-71.5746
-87.1027
-60.7764
-66.6951
-64.7954
-60.4378
-78.0458
-93.2757
-63.9419
-66.0272
-58.5214
-50.7455
-52.2321
-60.5535
-48.6167
-49.8971
-64.0879
-66.2318
-58.5815
-50.7823
-60.5856
-52.2512
-49.9025
-48.651
-63.0264
-63.029
-58.652
-52.5127
-58.6594
-52.5186
-50.3014
-50.2986
-10.3107
-10.3133
-3.77422
10.8335
10.8498
-3.77183
18.257
18.1742
203.274
180.916
200.933
200.952
186.477