# vtk DataFile Version 2.0
tet_velo
ASCII
DATASET UNSTRUCTURED_GRID
POINTS 29498 float
-0.662949 0.065 -2.195
-0.556016 0.115 2.305
-0.698094 0.735 -2.015
-0.61464 0.975 2.165
0.66928 0.065 -2.195
0.549535 0.115 2.305
0.702896 0.735 -2.015
0.595 0.9913 2.165
-0.637441 0.0715304 -0.695
-0.61441 0.0755832 0.805
-0.774501 0.919225 -0.621667
-0.754244 1.00679 0.771667
0.639506 0.0715254 -0.695
0.612177 0.0756066 0.805
0.774929 0.928432 -0.621667
0.74858 1.02348 0.771667
-1.362 -0.410611 -3.38169
-1.35726 -0.34741 -2.22441
-1.33027 -0.340108 -0.721649
-1.2772 -0.353725 0.802576
-1.21482 -0.335763 2.30714
-1.20777 -0.313093 3.47328
-1.22161 -0.287219 4.62302
-1.36569 -0.0257843 -3.33003
-1.36997 0.0569846 -2.18441
-1.34964 0.0880616 -0.702403
-1.28633 0.0875558 0.789201
-1.19697 0.102111 2.27325
-1.19625 0.124479 3.43788
-1.21757 0.150561 4.5911
-1.38414 0.71317 -3.19679
-1.41507 0.792282 -2.04675
-1.45306 0.931115 -0.637466
-1.39639 0.995395 0.764264
-1.26421 0.982822 2.17559
-1.2379 1.00448 3.34463
-1.24556 1.03357 4.51506
-1.38731 1.94851 -3.07712
-1.4061 2.04329 -1.94306
-1.43026 2.19482 -0.56836
-1.42869 2.30615 0.783353
-1.39141 2.34508 2.15917
-1.35528 2.3599 3.29556
-1.33203 2.37953 4.45434
-0.674333 -0.407117 -3.38857
-0.672912 -0.340487 -2.23445
-0.654024 -0.347465 -0.720302
-0.630495 -0.363179 0.816061
-0.594723 -0.332647 2.33072
-0.585807 -0.311015 3.48927
-0.592877 -0.286632 4.63228
-0.669939 -0.0291944 -3.33215
-0.57086 0.128117 3.45107
-0.587813 0.151521 4.59808
-0.679303 0.68779 -3.1836
-0.60175 1.0045 3.34251
-0.608829 1.03425 4.5146
-0.6792 1.93189 -3.06408
-0.692262 2.02805 -1.92869
-0.720083 2.19318 -0.559698
-0.740568 2.31471 0.782313
-0.728919 2.35149 2.15175
-0.701141 2.36368 3.28815
-0.680217 2.38243 4.44895
0.684265 -0.405293 -3.38857
0.661642 -0.339498 -2.23445
0.6405 -0.346365 -0.720302
0.611563 -0.361906 0.816061
0.573314 -0.331013 2.33072
0.609791 -0.306629 3.48927
0.638852 -0.280584 4.63228
0.694969 -0.0277484 -3.33215
0.612092 0.133476 3.45107
0.640722 0.158324 4.59808
0.715573 0.689604 -3.1836
0.621562 1.01519 3.34251
0.638727 1.04314 4.5146
0.73675 1.93665 -3.06408
0.738902 2.03377 -1.92869
0.720649 2.20144 -0.559698
0.666732 2.32546 0.782313
0.615421 2.36289 2.15175
0.61081 2.37432 3.28815
0.62066 2.39207 4.44895
1.36877 -0.405771 -3.38169
1.3496 -0.343109 -2.22441
1.32116 -0.334617 -0.721649
1.26852 -0.346981 0.802576
1.20961 -0.328148 2.30714
1.23022 -0.302701 3.47328
1.26298 -0.27474 4.62302
1.38267 -0.0212775 -3.33003
1.37116 0.0613091 -2.18441
1.34915 0.0949367 -0.702403
1.28792 0.0967424 0.789201
1.20082 0.111798 2.27325
1.22791 0.136813 3.43788
1.26304 0.164396 4.5911
1.41372 0.718637 -3.19679
1.42287 0.798625 -2.04675
1.45426 0.945685 -0.637466
1.39119 1.01751 0.764263
1.25155 1.00536 2.17559
1.24819 1.02394 3.34463
1.26882 1.05088 4.51506
1.43876 1.95841 -3.07712
1.44388 2.055 -1.94306
1.42788 2.21085 -0.56836
1.3667 2.32637 0.783352
1.29671 2.36654 2.15917
1.27516 2.38029 3.29556
1.27604 2.39833 4.45434
-0.727652 0.4 -2.15213
0.00316548 0.0616512 -2.19835
-0.658041 0.0604197 -1.445
-0.657592 0.545 2.30726
-0.00324053 0.192146 2.22785
-0.626182 0.0543225 1.555
0.00240099 0.805302 -2.0853
-0.757422 0.848237 -1.31833
-0.00981998 1.02826 2.21011
-0.709403 1.01585 1.46833
0.73351 0.4 -2.15242
0.6622 0.0604555 -1.445
0.647345 0.55315 2.31008
0.621873 0.0542862 1.555
0.757211 0.850014 -1.31833
0.692864 1.02846 1.46833
-0.623745 0.075738 0.0550001
-0.885931 0.495378 -0.658333
0.00103266 0.0729805 -0.695
-0.890674 0.541185 0.788333
-0.00111686 0.0797975 0.805
-0.763292 0.961925 0.0749999
0.000213897 1.20664 -0.621667
-0.00283198 1.40163 0.771667
0.623664 0.0757438 0.0550001
0.889352 0.499979 -0.658333
0.891268 0.549544 0.788333
0.76175 0.975952 0.0749999
-0.885424 0.447689 -1.38167
-0.892864 0.518281 0.065
-0.876637 0.543092 1.51167
0.00209907 0.0591451 -1.445
-4.20993e-05 0.0798544 0.0550001
-0.00217869 0.0517547 1.555
0.00278324 0.4 -2.36421
-0.00653026 0.549075 2.36642
0.00130745 0.880591 -1.31833
-0.00130904 1.40497 0.0749999
-0.00632598 1.2049 1.46833
0.878524 0.449989 -1.38167
0.896373 0.524761 0.065
0.883848 0.551347 1.51167
-1.01646 0.0609923 -2.1897
-0.667931 -0.137744 -2.21472
-0.666444 0.0179028 -2.76358
-0.876491 0.108556 2.28912
-0.575369 -0.108824 2.31786
-0.563438 0.121558 2.87803
-1.05658 0.763641 -2.03088
-0.688699 0.711395 -2.5993
-0.695178 1.38152 -1.97185
-0.939427 0.978911 2.1703
-0.608195 0.989751 2.75376
-0.671779 1.66325 2.15837
0.665461 -0.137249 -2.21472
0.682124 0.0186258 -2.76358
1.02022 0.0631546 -2.1897
0.561425 -0.108006 2.31786
0.580814 0.124238 2.87803
0.875178 0.113399 2.28912
0.709235 0.712302 -2.5993
0.720899 1.38439 -1.97185
1.06288 0.766812 -2.03088
0.608281 1.00325 2.75376
0.60521 1.67709 2.15837
0.923276 0.99833 2.1703
-0.993542 0.079796 -0.698702
-0.645732 -0.137967 -0.707651
-0.950368 0.0815695 0.797101
-0.622453 -0.143798 0.810531
-1.11378 0.92517 -0.629566
-0.747292 1.5562 -0.590683
-1.07532 1.00109 0.767965
-0.747406 1.66075 0.77699
0.640003 -0.13742 -0.707651
0.994328 0.083231 -0.698702
0.61187 -0.14315 0.810531
0.950048 0.0861745 0.797101
0.747789 1.56494 -0.590683
1.11459 0.937058 -0.629566
0.707656 1.67447 0.77699
1.06989 1.0205 0.767965
-1.35963 -0.37901 -2.80305
-1.36385 -0.218198 -3.35586
-1.01817 -0.408864 -3.38513
-1.34376 -0.343759 -1.47303
-1.36361 -0.145213 -2.20441
-1.01509 -0.343948 -2.22943
-1.30374 -0.346916 0.0404637
-1.33996 -0.126023 -0.712026
-0.992147 -0.343786 -0.720976
-1.24601 -0.344744 1.55486
-1.28176 -0.133085 0.795889
-0.953849 -0.358452 0.809319
-1.21129 -0.324428 2.89021
-1.20589 -0.116826 2.29019
-0.904769 -0.334205 2.31893
-1.21469 -0.300156 4.04815
-1.20201 -0.0943069 3.45558
-0.896787 -0.312054 3.48127
-1.21959 -0.0683291 4.60706
-0.907242 -0.286925 4.62765
-1.36783 0.0156001 -2.75722
-1.37492 0.343693 -3.26341
-1.01781 -0.0274894 -3.33109
-1.35981 0.0725231 -1.4434
-1.39252 0.424634 -2.11558
-1.31798 0.0878087 0.043399
-1.40135 0.509588 -0.669934
-1.24165 0.0948336 1.53122
-1.34136 0.541475 0.776732
-1.19661 0.113295 2.85556
-1.23059 0.542467 2.22442
-1.20691 0.13752 4.01449
-1.21707 0.564481 3.39126
-0.883555 0.126298 3.44447
-1.23157 0.592064 4.55308
-0.902692 0.151041 4.59459
-1.3996 0.752726 -2.62177
-1.38573 1.33084 -3.13696
-1.03172 0.70048 -3.19019
-1.43406 0.861699 -1.34211
-1.41058 1.41779 -1.99491
-1.42473 0.963255 0.0633988
-1.44166 1.56297 -0.602913
-1.3303 0.989108 1.46993
-1.41254 1.65077 0.773808
-1.25106 0.993652 2.76011
-1.32781 1.66395 2.16738
-1.24173 1.01903 3.92985
-1.29659 1.68219 3.3201
-0.919824 1.00449 3.34357
-1.2888 1.70655 4.4847
-0.927197 1.03391 4.51483
-1.3967 1.9959 -2.51009
-1.03325 1.9402 -3.0706
-1.41818 2.11905 -1.25571
-1.04918 2.03567 -1.93588
-1.42948 2.25049 0.107497
-1.07517 2.194 -0.564029
-1.41005 2.32562 1.47126
-1.08463 2.31043 0.782833
-1.37334 2.35249 2.72737
-1.06016 2.34829 2.15546
-1.34365 2.36971 3.87495
-1.02821 2.36179 3.29186
-1.00612 2.38098 4.45164
-0.673623 -0.373802 -2.81151
-0.672136 -0.218156 -3.36036
0.00496571 -0.406205 -3.38857
-0.663468 -0.343976 -1.47737
-0.00563506 -0.339993 -2.23445
-0.64226 -0.355322 0.0478793
-0.0067621 -0.346915 -0.720302
-0.612609 -0.347913 1.57339
-0.00946623 -0.362542 0.816061
-0.590265 -0.321831 2.90999
-0.0107043 -0.33183 2.33072
-0.589342 -0.298823 4.06077
-0.578333 -0.0914491 3.47017
0.0119923 -0.308822 3.48927
-0.590345 -0.0675554 4.61518
0.0229873 -0.283608 4.63228
-0.674621 0.329298 -3.25788
0.0125149 -0.0284714 -3.33215
-0.579337 0.139819 4.02457
-0.586305 0.56631 3.39679
0.0206161 0.130796 3.45107
-0.598321 0.592884 4.55634
0.0264543 0.154922 4.59808
-0.679252 1.30984 -3.12384
0.018135 0.688697 -3.1836
-0.60529 1.01938 3.92856
-0.651445 1.68409 3.31533
0.00990574 1.00985 3.34251
-0.644523 1.70834 4.48178
0.0149488 1.03869 4.5146
-0.685731 1.97997 -2.49639
0.028775 1.93427 -3.06408
-0.706173 2.11061 -1.2442
0.0233198 2.03091 -1.92869
-0.730326 2.25394 0.111308
0.000282901 2.19731 -0.559698
-0.734743 2.3331 1.46703
-0.0369179 2.32008 0.782313
-0.71503 2.35758 2.71995
-0.0567492 2.35719 2.15175
-0.690679 2.37305 3.86855
-0.0451654 2.369 3.28815
-0.0297786 2.38725 4.44895
0.672954 -0.372395 -2.81151
0.689617 -0.216521 -3.36036
1.02652 -0.405532 -3.38513
0.651071 -0.342931 -1.47737
1.00562 -0.341303 -2.22943
0.626031 -0.354135 0.0478793
0.980831 -0.340491 -0.720976
0.592438 -0.346459 1.57339
0.940039 -0.354443 0.809319
0.591553 -0.318821 2.90999
0.891464 -0.329581 2.31893
0.624322 -0.293606 4.06077
0.610942 -0.0865763 3.47017
0.920007 -0.304665 3.48127
0.639787 -0.0611301 4.61518
0.950915 -0.277662 4.62765
0.705271 0.330928 -3.25788
1.03882 -0.024513 -3.33109
0.626407 0.1459 4.02457
0.616827 0.574333 3.39679
0.919999 0.135145 3.44447
0.639724 0.600732 4.55634
0.951879 0.16136 4.59459
0.726162 1.31313 -3.12384
1.06464 0.70412 -3.19019
0.630144 1.02916 3.92856
0.616186 1.69475 3.31533
0.934876 1.01956 3.34357
0.629693 1.7176 4.48178
0.953774 1.04701 4.51483
0.737826 1.98521 -2.49639
1.08775 1.94753 -3.0706
0.729775 2.11761 -1.2442
1.09139 2.04439 -1.93588
0.693691 2.26345 0.111308
1.07427 2.20615 -0.564029
0.641076 2.34417 1.46703
1.01672 2.32591 0.782833
0.613115 2.3686 2.71995
0.956066 2.36471 2.15546
0.615735 2.38319 3.86855
0.942983 2.3773 3.29186
0.948351 2.3952 4.45164
1.35919 -0.37444 -2.80305
1.37572 -0.213524 -3.35586
1.33538 -0.338863 -1.47303
1.36038 -0.1409 -2.20441
1.29484 -0.340799 0.0404636
1.33516 -0.11984 -0.712026
1.23906 -0.337564 1.55486
1.27822 -0.125119 0.795889
1.21992 -0.315425 2.89021
1.20522 -0.108175 2.29019
1.2466 -0.288721 4.04815
1.22906 -0.0829438 3.45558
1.26301 -0.055172 4.60706
1.37692 0.0200158 -2.75722
1.3982 0.34868 -3.26341
1.36016 0.0781229 -1.4434
1.39701 0.429967 -2.11558
1.31853 0.0958395 0.0433989
1.4017 0.520311 -0.669935
1.24437 0.10427 1.53122
1.33956 0.557126 0.776732
1.21436 0.124306 2.85556
1.22619 0.558579 2.22442
1.24547 0.150605 4.01449
1.23805 0.580375 3.39126
1.26593 0.607639 4.55308
1.41829 0.758631 -2.62177
1.42624 1.33852 -3.13696
[...]
POINT_DATA 29498
VECTORS point_vectors float
-5.65881 -9.50071 10.777
-0.470291 -0.0748858 0.905859
-1.99046 2.0565 4.9937
0.102403 -0.0117962 0.238688
6.00232 -10.7895 11.9828
0.480385 0.211487 1.24526
2.19052 2.39201 5.47495
-0.00788337 -0.0648131 0.249116
0 0 0
-0.000968113 0.000309664 0.0187223
0 0 0
-3.97586e-18 -8.18818e-18 -2.50562e-17
0 0 0
0.00161773 0.000464251 0.0270723
0 0 0
-0.00083038 0.00183881 0.00558527
-0.580061 -0.322273 19.7677
-1.39131 -1.05359 20.5008
-0.365397 -0.476684 21.5921
0.0751372 -0.0122805 21.7373
0.510098 0.510281 21.5318
0.691701 0.584909 21.2539
0.638197 0.603484 20.6641
-0.756152 -0.254833 19.6166
-2.3055 -1.00983 20.4157
-0.612091 -0.666911 21.774
0.126871 -0.118658 21.6333
0.999894 0.660579 20.1555
1.21328 0.770323 20.816
1.00591 0.72767 20.7882
-0.94313 0.189021 19.5026
-2.49301 0.52118 20.4903
-1.44231 -0.279897 21.6654
-0.20909 -0.303964 22.0372
0.970175 -0.474939 21.3668
1.19806 -0.557879 21.1952
1.18297 -0.396121 20.7353
-0.490453 0.4794 19.994
-0.792457 0.734027 20.4974
-0.700906 0.535764 21.2324
-0.1836 0.0616589 21.6614
0.176276 -0.279402 21.4175
0.286212 -0.396446 21.083
0.25168 -0.411484 20.9579
-0.480622 -0.606419 19.368
-1.45543 -3.15913 20.6466
-0.188998 -0.349564 21.9449
-0.0997641 0.0488442 21.2459
0.00916503 0.702009 20.2972
0.0583142 1.14369 18.8065
0.361467 0.782247 19.1921
-0.680969 -0.555863 18.8764
0.00301353 1.36089 7.19992
1.23369 0.465872 11.0207
-1.00434 0.35515 18.2798
1.77854 -0.20174 7.89765
1.31895 -0.57963 13.3342
-0.374238 0.804367 19.7641
-0.671185 1.38887 20.3477
-0.7478 1.28909 21.3626
-0.245565 0.172457 21.9907
0.0953633 -0.435809 21.6057
0.233504 -0.505849 21.0925
0.0529813 -0.378059 20.7018
0.486445 -0.591473 19.3787
1.45194 -3.2278 20.6547
0.206945 -0.325724 21.9172
0.127572 0.0408371 21.1961
0.0961918 0.852386 20.3351
-0.0839747 1.35687 19.3087
-0.345723 0.953982 20.1545
0.693577 -0.521867 18.9149
-0.492141 1.80498 10.1383
-1.41885 0.779508 12.9371
1.05614 0.350171 18.3632
-1.68973 -0.482959 8.87478
-1.37152 -0.489895 14.711
0.393031 0.776983 19.7828
0.704462 1.34783 20.3566
0.748067 1.27446 21.3636
0.227315 0.179142 22.0009
-0.0739703 -0.459195 21.6002
-0.158452 -0.566454 21.0876
-0.0366025 -0.40598 20.721
0.583221 -0.323965 19.7744
1.39964 -1.08026 20.5131
0.363559 -0.490735 21.6026
-0.068381 -0.0144431 21.7653
-0.548482 0.59287 21.5675
-0.744551 0.57208 21.1838
-0.680495 0.608711 20.5702
0.764013 -0.250907 19.6378
2.31368 -0.996267 20.4288
0.642297 -0.682464 21.7934
-0.101466 -0.119428 21.6266
-1.14734 0.720638 20.2811
-1.30836 0.737505 20.9236
-1.05141 0.590214 20.893
0.921477 0.178211 19.5445
2.43391 0.502358 20.5064
1.453 -0.260443 21.6741
0.21013 -0.316565 22.0615
-1.02154 -0.575442 21.3557
-1.21687 -0.64273 21.2757
-1.12519 -0.491113 20.6717
0.488853 0.454338 20.0156
0.779073 0.695645 20.5076
0.695297 0.532909 21.2346
0.192813 0.0528421 21.6982
-0.160794 -0.319182 21.436
-0.255389 -0.446285 21.0823
-0.207541 -0.404634 20.9651
-1.1411 -0.0540917 1.17619
-0.00252408 -0.200016 0.79715
-0.00674444 0.0017182 0.161426
-0.101805 0.189476 -0.0327294
0.0185444 -0.0228777 -0.00875927
0.00885337 0.0362467 0.359957
0.000581024 0.147946 0.386795
-0.0742643 -0.022948 0.168526
0.0351566 0.110232 -0.191418
0.00743729 0.00576456 0.031892
1.02512 -0.0348814 1.02594
0.00433493 0.00140647 0.146657
0.037949 0.0659305 -0.00162172
0.00623591 0.0444608 0.429137
0.0631784 -0.0177766 0.143552
-0.00712509 0.00263113 0.0251605
0 0 0
-1.42784e-06 -5.15603e-06 0.00354712
0 0 0
0.00137312 0.0111899 0.057303
4.94774e-06 0.000375372 0.0466601
0 0 0
0.000192133 0.0483755 0.0900211
0.00037171 -0.00285764 0.0363029
0 0 0
6.5439e-06 -1.85544e-05 0.00688868
-0.000641307 0.00615402 0.0300694
0 0 0
0 0 0
-0.000254429 0.00160247 0.0111161
0.000283501 0.00102642 0.00643166
-1.03913e-07 -4.62392e-08 -2.77865e-05
-8.68044e-09 1.43473e-08 2.01093e-06
0.0167764 0.097001 0.363112
-0.060311 -0.136743 0.289885
0.0105857 0.0815955 0.00575194
0 0 0
1.68737e-05 0.00123885 0.0157068
-9.84382e-05 0.00172502 -0.00395159
0.000193778 -0.00187776 0.0134121
0.000170318 0.00462606 0.0313659
-0.00416997 0.0154661 0.107694
-4.37808 -2.81957 19.8796
-2.47945 -5.29832 20.6718
-1.95051 -1.88705 17.6168
0.494303 1.38933 10.6654
-0.300897 0.759583 13.2809
-0.981837 0.335836 3.40227
-4.61272 1.65212 20.3572
-3.17481 1.90575 16.5055
-1.71064 2.58991 20.1312
1.54152 0.27821 14.2801
1.04848 0.607135 4.41998
0.334948 -0.924187 21.3513
2.45813 -5.32515 20.7284
1.97686 -1.8505 17.6698
4.4125 -2.78837 19.9218
0.476788 0.980686 13.5531
0.566684 0.930019 5.49682
-0.637644 1.64414 11.0155
3.18915 1.83526 16.634
1.72919 2.5108 20.1424
4.55233 1.56485 20.4397
-0.746445 0.0745765 4.59112
-0.232097 -0.961117 21.342
-1.50428 0.0565214 14.2598
-0.131536 -0.186765 13.9355
0.0227685 -0.00762665 16.2304
-0.264279 0.806044 10.4744
-0.153906 0.0863745 15.1034
-2.40769 -0.873139 21.3084
-2.48841 2.30337 21.4702
-0.0203387 -0.139292 18.9499
-0.432476 0.0952082 22.5372
-0.0230435 0.000555237 16.2203
0.159006 -0.211354 13.8275
0.181881 0.079699 15.0012
0.277999 0.731531 10.2934
2.44408 2.28662 21.4833
2.45833 -0.818681 21.434
0.466515 0.109733 22.6241
0.0118414 -0.166039 19.0942
-1.01254 -0.670896 19.8872
-0.647785 -0.31511 19.691
-0.580135 -0.49256 19.5815
-0.892205 -0.835851 21.4476
-1.80648 -1.12828 20.485
-1.64387 -1.94873 20.4906
-0.0954192 -0.241985 21.67
-0.430339 -0.576078 21.6644
-0.186156 -0.485288 21.7798
0.301322 0.268891 21.7304
0.136972 -0.04552 21.7618
0.0347531 0.0979146 21.7263
0.597313 0.563664 21.3448
0.733954 0.615977 21.2487
0.30949 0.80116 21.2785
0.760567 0.759767 20.6795
0.956395 0.917413 20.6147
0.489607 1.00411 21.1705
0.848556 0.737176 20.5998
0.452297 0.854807 21.1035
-1.47932 -0.580001 19.6493
-0.911151 -0.0970065 19.4878
-0.843011 -0.451355 19.2906
-1.37684 -0.907621 21.6778
-2.83933 -0.24907 20.4435
-0.207719 -0.443847 21.8279
-1.02378 -0.616866 21.8092
0.553086 0.28471 21.054
0.0614475 -0.263661 21.7078
1.07226 0.663862 20.297
1.25312 0.148004 20.1772
1.16286 0.66938 20.2118
1.50135 0.115991 20.1969
0.981903 1.79009 13.775
1.4445 -0.0957031 17.4234
1.19024 0.878203 15.8665
-1.79263 0.397171 19.5865
-0.74842 0.463135 19.7253
-1.08201 0.255475 18.9874
-1.90972 0.0370157 21.3412
-1.46675 0.910177 20.4311
-0.84992 -0.334342 21.987
-1.26182 0.465251 21.4334
0.450441 -0.350609 21.9317
-0.29397 -0.0462886 21.9073
1.12937 -0.503629 21.0741
0.413573 -0.490623 21.5926
1.30085 -0.582108 20.749
0.592928 -0.67146 21.0147
1.84822 -0.373441 16.9578
0.450754 -0.474869 20.8755
1.36683 -0.569139 18.8983
-0.662124 0.651909 20.1979
-0.474118 0.620951 19.8655
-0.7938 0.673021 20.892
-0.79362 1.01871 20.4518
-0.483224 0.304725 21.5312
-0.819482 0.88466 21.3228
0.0339984 -0.144373 21.5599
-0.21116 0.100192 21.8186
0.242376 -0.340301 21.2936
0.165888 -0.360091 21.4668
0.246193 -0.334694 21.0374
0.247946 -0.535716 21.0997
0.152297 -0.393941 20.8333
-1.01277 -1.61257 19.2198
-0.554988 -0.630919 19.1588
0.0121926 -0.811614 19.1375
-0.564026 -1.17851 22.2784
-0.00460657 -4.2204 21.1099
-0.0958192 -0.0576967 21.5224
0.00951257 -0.39308 21.5886
-0.0539555 0.363695 20.8577
0.0187101 -0.0878071 20.3994
0.045474 0.730343 20.0887
0.113136 0.470098 19.3422
0.162843 1.25491 18.7161
-0.0831421 1.37025 14.0837
0.156457 0.839577 17.2649
0.79758 0.624059 15.1064
0.0375493 0.785773 15.8965
-0.876666 -0.13112 18.3852
0.0122906 -0.840219 18.3596
0.409189 1.6841 9.72052
1.12504 0.751275 1.89712
0.158686 0.0228311 0.154235
1.87343 0.00288641 6.06801
-0.157292 0.633905 6.89202
-0.693083 0.965744 19.1155
0.0332551 0.602907 17.6259
1.94267 -0.982877 10.45
0.489929 -1.16027 20.6655
0.0947184 -1.00028 0.338289
0.49081 -1.0284 20.0676
-0.0648643 -1.60821 4.09775
-0.538009 1.16185 19.9724
0.0260997 0.932725 19.618
-0.755556 1.41441 20.7842
0.0373202 1.72283 20.2448
-0.5308 0.776458 21.8272
0.0056073 1.86529 21.3626
-0.0278513 -0.207895 21.7919
-0.000521522 0.277733 22.1103
0.177805 -0.543492 21.4699
0.028162 -0.475449 21.5277
0.197588 -0.764491 20.6232
0.0305335 -0.743705 21.1411
-0.0196476 -0.613708 20.6639
1.02332 -1.62412 19.2165
0.570928 -0.612778 19.1812
0.577394 -0.486729 19.5934
0.571214 -1.16138 22.3476
1.65812 -1.98354 20.5156
0.118397 -0.0714339 21.4841
0.182186 -0.476114 21.7937
0.121216 0.392522 20.8439
-0.0201423 0.113868 21.7603
0.0558761 0.966055 20.2263
-0.302534 0.967308 21.3083
-0.277276 1.34485 19.6431
-0.0679384 1.66237 15.3432
-0.49938 1.16514 21.1418
-0.882287 0.866745 16.5458
-0.460957 0.877376 21.1226
0.906348 -0.124424 18.4246
0.859314 -0.449381 19.2921
-0.682299 1.87212 12.0981
-1.7942 1.00036 4.91264
-1.26304 1.74425 15.3184
-2.12127 0.277408 8.65488
-1.2672 0.938765 17.1853
0.738831 0.932438 19.1644
1.08569 0.252059 19.036
-1.88919 -1.10203 11.2579
-0.403897 -1.17658 20.787
-1.80986 -0.617488 17.7648
-0.388844 -1.02878 19.9645
-1.2821 -0.696538 19.5897
0.560763 1.12394 19.9926
0.482781 0.596569 19.9032
0.776753 1.38202 20.7931
0.796896 0.979965 20.4552
0.522496 0.801689 21.8439
0.81469 0.874378 21.3246
0.037508 -0.219384 21.794
0.227456 0.10607 21.8574
-0.141959 -0.564197 21.4434
-0.121501 -0.401097 21.5001
-0.166108 -0.680609 20.605
-0.218901 -0.537486 21.0892
-0.122864 -0.390403 20.8194
1.011 -0.683034 19.8897
0.657986 -0.31093 19.7042
0.891554 -0.850468 21.4573
1.83355 -1.13352 20.4888
0.10093 -0.246174 21.686
0.451196 -0.594941 21.6754
-0.307321 0.305766 21.7881
-0.133886 -0.0434884 21.7764
-0.684807 0.652265 21.3439
-0.830839 0.714976 21.3051
-0.767903 0.769901 20.7266
-1.05119 0.893713 20.7229
-0.876741 0.627251 20.6867
1.48728 -0.570062 19.6629
0.902574 -0.0913969 19.5193
1.38798 -0.907387 21.6616
2.80405 -0.237613 20.4715
0.227345 -0.444203 21.837
1.05142 -0.61282 21.8168
-0.582912 0.313717 21.0779
-0.0610934 -0.256916 21.7848
-1.25254 0.66439 20.5547
-1.42172 0.0704742 20.3223
-1.18669 0.625936 20.2628
-1.58487 0.02231 20.5695
-1.51266 -0.135397 18.5721
1.75684 0.386854 19.6323
0.734617 0.43754 19.7644
1.89924 0.0498709 21.3274
1.43577 0.870366 20.4424
0.854077 -0.328377 22.0084
1.25545 0.473221 21.4367
-0.471963 -0.400026 21.9735
0.303744 -0.0550128 21.9359
-1.17887 -0.648279 21.1837
-0.398778 -0.555169 21.6073
-1.23257 -0.621148 20.7589
-0.587528 -0.738958 21.0526
-0.442918 -0.505536 20.8374
0.655155 0.61731 20.2163
0.77964 0.649746 20.9023
0.488095 0.316928 21.5355
-0.0245949 -0.166772 21.5966
-0.219298 -0.387357 21.281
-0.24418 -0.414697 21.0305
-1.20196 -0.664696 19.7933
-1.41478 -1.89544 18.524
-1.12665 -1.09258 19.5864
-1.9142 -1.11186 18.8775
-0.642289 -0.475836 19.4278
-2.55476 -2.57237 20.3803
-1.09057 -0.928619 21.5917
-0.47707 -0.563572 19.2765
-0.730686 -1.12243 21.8066
-0.77195 -1.16339 19.0058
-0.101864 -0.495564 20.8097
-0.0944889 -0.332067 21.739
0.0358336 0.110827 15.4062
0.0038104 -0.155599 21.746
-0.096977 0.270853 11.7753
-0.0638574 0.270732 19.1865
0.429669 0.312527 21.6026
-0.225823 0.392729 14.5741
0.161832 0.467403 21.6923
-0.0770838 0.976554 10.2631
0.310508 1.20768 18.3423
0.811521 0.629793 21.1609
-0.183728 0.678145 14.0807
0.383383 0.866815 20.9325
0.618768 1.30616 13.1442
0.733419 1.39586 19.515
0.90167 0.812787 20.626
-0.244747 1.85805 14.0638
0.709792 0.969245 20.5133
1.36642 1.1291 15.4016
0.773505 1.08731 19.8559
-1.82215 -0.171475 19.4716
-3.041 -0.475803 16.1339
-2.64562 0.883817 18.5922
-1.00127 -0.113719 18.9982
-6.31875 -0.29423 19.8585
-1.75304 -0.513076 21.619
-2.93451 -0.212982 21.6944
-0.498398 -0.98307 16.9938
-0.465 -0.502247 21.9117
-1.18643 -0.754327 20.0301
0.250925 0.694204 13.3923
0.652205 -0.0521216 21.4086
1.04558 0.433415 16.6103
0.924559 0.954022 7.76955
1.38552 0.186019 20.1748
-0.408144 1.09951 -0.324139
1.51433 0.0284439 15.3847
2.02413 0.875728 12.7923
1.78563 0.247372 20.2429
2.62776 0.44762 4.65192
1.69549 -0.564758 17.7383
1.65897 -0.0464083 11.7457
-1.17328 0.769652 19.9038
-1.28096 1.95405 19.1834
-0.667304 0.889675 20.0878
-0.771528 0.694132 19.4277
-1.7492 1.60532 20.2855
-1.42666 0.706904 20.9709
-1.89483 2.15594 20.6335
-0.867459 1.02158 20.8521
-1.88019 0.986577 21.5533
-0.834722 0.215017 21.814
-1.61787 1.18229 22.6909
-0.549707 0.532617 21.6872
-0.386952 0.00758918 22.1955
0.153113 -0.30186 21.8162
0.153946 -0.620456 21.9406
0.0187656 -0.192118 21.6773
0.417325 -0.695926 21.6944
0.521929 -0.586132 21.3981
0.413016 -1.03523 21.2021
0.217329 -0.453861 21.353
0.551404 -0.882866 21.527
0.694543 -0.596689 20.9182
0.565483 -1.15224 20.0969
0.243751 -0.514845 21.0303
0.478506 -0.762695 20.4908
1.43012 -1.88047 18.5472
0.00774216 -2.23471 18.7007
0.0292837 -3.04647 16.076
0.00982542 -0.775241 18.877
0.00310435 -6.5347 22.8465
0.508039 -0.547789 19.2426
0.00472571 -1.30345 22.6277
0.00665019 -0.026678 13.4596
-0.0193566 0.0893644 15.4089
0.00630014 -0.136229 20.8224
0.0100778 -0.0428484 12.8845
0.321572 0.423294 14.5834
0.0390495 0.183965 19.9364
0.274761 0.289785 9.79735
0.297331 1.15861 14.8171
0.162584 0.588491 18.9374
0.368851 -0.618254 -1.29969
0.312534 0.812226 10.7056
0.141379 2.03708 15.9598
0.120126 0.860378 16.2145
-0.163651 0.020059 3.05634
0.0228148 0.757903 9.75219
3.06372 -0.458582 16.2668
0.063255 3.70016 13.7284
0.0248137 -0.206045 17.7992
-0.238084 1.22548 1.26169
0.130325 0.0835678 0.502169
-0.613444 -3.16763 -3.15424
-2.81488 0.751057 7.63739
0.0236949 -2.06531 1.68888
-0.244009 -0.054822 4.13516
1.31055 1.87616 19.2239
0.0404358 1.41965 19.8416
0.0247374 1.25752 18.7762
0.0422225 3.5453 19.9498
1.89934 2.11305 20.6462
0.014089 1.82541 20.681
0.00487145 4.51553 21.0984
1.60136 1.24316 22.7173
-0.00423763 1.15617 22.0005
-0.00631093 0.439178 22.75
-0.0622349 -0.669467 22.1009
0.0100758 -0.230541 21.8412
0.0264918 -0.853943 19.9552
-0.312361 -1.09886 21.2451
0.0394406 -0.637481 21.5216
0.0258931 -1.23655 19.7111
-0.487145 -1.16135 20.1605
0.0380611 -0.547467 20.6772
0.0421095 -1.20883 20.1262
1.21079 -0.662088 19.7978
1.11858 -1.10438 19.5867
1.91695 -1.08952 18.9086
0.653173 -0.463453 19.4451
2.60595 -2.57233 20.3935
1.10193 -0.935345 21.5917
0.721863 -1.1112 21.8145
0.789944 -1.23116 19.036
0.0880507 -0.483499 20.6536
0.113921 -0.340668 21.7543
0.0102438 -0.134672 21.7722
0.140354 0.341729 11.6664
0.103213 0.291531 19.0398
-0.447661 0.347254 21.6349
-0.126699 0.516157 21.6998
0.11469 1.0792 10.1189
-0.331922 1.42479 18.3721
-0.932382 0.726738 21.1485
-0.432803 1.05239 20.9807
-0.904713 1.64446 14.1562
-0.886957 1.56949 20.0176
-0.882921 0.745843 20.6931
-0.765173 1.02231 20.338
-1.39906 1.18457 17.292
-0.788273 1.1753 20.5599
1.80105 -0.159065 19.5245
2.61283 0.857378 18.6817
1.01178 -0.107107 19.0351
6.22266 -0.269686 20.0064
1.75827 -0.500329 21.5971
2.94183 -0.186576 21.6507
0.548778 -0.999711 17.32
0.465559 -0.495614 21.9477
1.20454 -0.748682 20.2075
-0.258969 0.741401 13.4735
-0.71156 -0.0711193 21.502
-1.07955 0.332781 16.6714
-1.10149 0.690013 8.04596
-1.58359 0.0318843 20.5408
-1.52134 -0.29909 15.9513
-2.28282 0.640717 14.3307
-1.74129 0.0675549 20.3703
-1.64992 -0.726712 18.6351
-1.81696 0.0710053 13.6135
1.13768 0.727578 19.9409
0.670513 0.837583 20.1111
0.777399 0.67196 19.4627
1.73285 1.53218 20.3023
1.40465 0.69717 20.971
0.864743 0.997411 20.8584
1.86702 0.998211 21.553
0.845063 0.224475 21.8339
0.551022 0.54069 21.6928
0.399798 0.00167568 22.2381
-0.134025 -0.335659 21.8362
0.00662337 -0.209655 21.7046
-0.371332 -0.77741 21.7197
-0.505444 -0.675187 21.3926
-0.189717 -0.503402 21.3962
-0.511991 -0.937247 21.523
-0.652846 -0.633075 20.7968
-0.214879 -0.629025 20.8698
-0.427325 -0.785205 20.4359
-1.45749 -1.16771 19.2638
-0.784395 -1.36643 22.2373
0.0260371 -0.0571502 19.6836
0.0427399 0.73158 18.8094
0.332239 1.22372 18.485
0.78375 1.26247 19.5872
-2.61625 -0.27795 18.2722
-1.64537 -0.977919 20.2931
-0.075209 -0.106489 15.0254
0.495245 1.06852 11.1311
0.987298 1.14128 10.1437
2.10876 0.925267 15.5285
-1.33819 1.25627 19.5746
-1.80281 1.25201 20.9125
-1.24396 0.497295 22.159
0.171406 -0.423956 22.0128
0.538239 -0.805761 21.4924
0.599128 -0.881559 20.8312
0.0117221 -2.82556 17.7018
0.00575742 -0.570617 16.8395
-0.0053614 0.0493444 12.9479
0.0643366 0.174789 12.4932
0.565335 0.21191 10.7561
0.0926179 1.18759 10.1161
0.0427161 -0.693957 13.1854
-0.318559 -0.833038 -1.21897
-0.95049 -3.15947 -2.34654
0.0416618 2.78347 18.6744
0.0261604 3.27906 20.1529
-0.017241 2.44516 23.1251
0.0111687 -0.514657 21.0395
0.0326492 -1.00687 19.6453
0.0403145 -1.29376 19.8565
1.47385 -1.15969 19.2813
0.761278 -1.34787 22.1783
-0.00149971 -0.0283516 19.5411
-5.2924e-05 0.820207 18.7854
-0.483561 1.45785 18.9033
-0.91295 1.24296 20.1112
2.59628 -0.258083 18.3492
1.68458 -0.9617 20.4427
0.0597918 -0.088766 15.1728
-0.540838 1.05235 11.1628
-1.46971 0.766638 11.5301
-2.22753 0.504323 17.1363
1.31804 1.19573 19.6254
1.78288 1.23365 20.9101
1.24884 0.526785 22.1838
-0.141092 -0.473428 22.0545
-0.480784 -0.900289 21.5234
-0.584991 -0.934899 20.8012
1.54783e-16 2.3133e-17 -7.43497e-17
0.132518 -0.521613 1.70605
-0.036737 0.00376865 0.209435
0 0 0
0.00280243 -0.0658453 -0.00329922
-0.0289217 0.0402856 0.249282
-1.31602 0.780702 1.8826
-0.00520172 0.073557 0.175545
-0.00770612 0.0015217 0.0269129
-0.00189943 0.00910342 -0.00413365
0.0739739 0.0937731 -0.0852071
0.0262897 0.00253383 0.148593
-0.110445 -0.428915 1.45109
0.0211961 -0.00138656 0.0140607
0.0208392 0.0022618 0.110588
0.114535 -0.0801067 0.00017451
0 0 0
0.0388601 0.0427583 0.278407
0.00615673 0.0886941 0.193044
1.04305 0.620162 1.4882
0.00853918 0.0013177 0.0287775
-0.0107919 0.0273258 -0.0682686
0.0172968 0.0105877 -0.0117204
-0.00418901 -0.0083737 0.100969
0.111656 -0.142208 0.465849
1.21141e-05 1.67129e-06 0.000392802
-9.66846e-05 0.000273514 0.0128266
0 0 0
-0.00985544 0.00124024 0.106686
0 0 0
0 0 0
-0.00344293 0.00229962 0.120934
-0.0049503 -0.00191843 0.0090336
-0.000508363 0.00586534 0.163935
0 0 0
-0.0040078 0.00442443 0.0106705
0 0 0
0.00642296 0.0148813 0.0641865
0 0 0
0.0339614 -0.00867973 0.208217
-0.083588 -0.08773 0.365365
-1.67424e-06 1.24448e-07 3.5426e-05
-0.000174705 3.21896e-05 0.00606982
2.66105e-05 6.57974e-05 0.00578536
0.0134583 0.00188551 0.130352
0.00351652 0.00154285 0.0957648
0 0 0
0 0 0
0.0138943 -0.00544523 0.02488
0.00564602 0.00629304 0.0151474
-2.26057e-05 0.00914467 0.185318
0 0 0
-0.00582992 0.00993444 0.0327068
-0.0232156 -0.00524579 0.144692
-0.00819278 0.0197074 0.0843159
0 0 0
-0.0109798 -0.0207249 0.19934
-0.486462 -0.160392 0.278769
0.00203683 -0.00282084 0.0735911
0.00239373 -0.0351829 0.00399429
-6.24798e-06 -6.41803e-06 0.000248004
-6.71882e-08 -1.58569e-08 5.21811e-06
0.00493144 0.00404518 0.0284035
-0.0088089 0.0743503 0.0126163
0 0 0
0.05766 -0.0242074 -0.0231337
0.00130942 0.0074483 0.0528151
-0.01758 0.0973436 0.415347
0.00402605 1.38779 0.863747
-0.000126734 0.00284942 0.0304221
-0.00106959 -0.00759828 0.0297374
-0.001102 0.000311419 0.00275547
0 0 0
0 0 0
0.0152335 0.0224477 0.120725
-0.00138759 -0.000260867 0.00053107
0.587329 -0.0776774 0.347395
0 0 0
2.33095e-07 -9.66369e-08 3.22333e-05
1.59879e-05 -7.41191e-05 0.00117687
0.0379042 0.0479231 0.0045465
-0.00589202 0.00306969 0.0341367
0.0441952 0.110187 0.512569
-0.00147056 0.00604305 0.051673
0.00123517 0.000376081 0.0032624
0.00143413 -0.00673426 0.0302598
0.00205156 0.00103355 -0.00265337
-0.00870738 0.00712763 0.0595996
-0.00114457 0.00684113 0.0919517
0.000100392 0.000121987 0.0177084
-1.93788e-05 -0.000427518 0.00515561
-3.11601e-05 0.000325808 0.00423086
0.000412172 -0.0461744 0.166638
1.08796e-08 -1.32985e-08 -3.86273e-06
0.000111243 0.00415449 0.0240186
-8.5604e-05 0.0109015 0.0690775
8.15944e-10 -2.5971e-09 -1.49841e-06
3.80174e-07 -7.73479e-08 6.08121e-05
0.00162704 0.0081819 0.0462149
-0.00221372 0.00619416 0.0899016
0 0 0
0.000206948 0.0611788 0.28901
0.000110254 5.73353e-05 0.0109909
0.000159951 -0.0935346 0.727816
-0.000249905 6.88391e-05 0.0183255
0.000138038 0.00100438 0.0117601
4.37084e-05 -0.000557911 0.00688002
2.2037e-05 0.00026685 0.0027254
-0.000140484 0.0048107 0.0275635
-0.000136689 0.00425583 0.0276384
0.00269754 0.0113202 0.150513
-0.0120502 0.0375922 0.179683
0.0012447 -0.00449646 0.140412
-0.0310212 -0.0358972 0.291561
0 0 0