# vtk DataFile Version 2.0
tet_velo
ASCII
DATASET UNSTRUCTURED_GRID
POINTS 29498 float
-0.704864 0.285 -2.075
-0.525 0.335 2.20164
-0.735 0.765 -1.96544
-0.774151 1.135 1.985
0.704427 0.285 -2.075
0.621405 0.305 2.065
0.734764 0.765 -1.965
0.77416 1.135 1.985
-0.690564 0.256012 -0.649454
-0.618015 0.285273 0.776093
-0.825886 0.966169 -0.648627
-0.797766 1.04833 0.668187
0.71166 0.25676 -0.695
0.665821 0.281591 0.685
0.826607 0.967044 -0.648333
0.797529 1.04817 0.668333
-1.46377 -0.119014 -3.16052
-1.45181 -0.0595463 -2.06965
-1.42568 -0.0741672 -0.644515
-1.3486 -0.0778307 0.803692
-1.26575 -0.0416485 2.23061
-1.24066 0.0075907 3.33043
-1.23579 0.0638673 4.41199
-1.46718 0.186771 -3.13721
-1.46444 0.271043 -2.05788
-1.45109 0.27857 -0.648078
-1.3679 0.297729 0.774782
-1.27826 0.348425 2.18676
-1.25031 0.397936 3.28659
-1.24576 0.451197 4.37095
-1.48679 0.751405 -3.06541
-1.50821 0.832712 -1.98614
-1.55902 0.973836 -0.649604
-1.51877 1.05334 0.683359
-1.4636 1.13363 2.02502
-1.36812 1.18394 3.15061
-1.31543 1.23015 4.26408
-1.51179 1.7319 -3.01621
-1.52547 1.83183 -1.94769
-1.55509 1.99669 -0.644266
-1.5637 2.14282 0.6425
-1.53447 2.25087 1.95394
-1.48298 2.31483 3.03913
-1.42769 2.36633 4.14325
-0.727519 -0.111902 -3.17335
-0.714283 -0.0485863 -2.08898
-0.697539 -0.084009 -0.660148
-0.642983 -0.0913094 0.789227
-0.572817 -0.0588135 2.21934
-0.54142 -0.00527936 3.31557
-0.531076 0.0547678 4.39388
-0.724344 0.185886 -3.14426
-0.531381 0.388549 3.2762
-0.532887 0.444082 4.35379
-0.734214 0.72334 -3.05895
-0.63343 1.18355 3.13366
-0.588401 1.22819 4.24588
-0.752198 1.71162 -3.01158
-0.758213 1.81221 -1.94217
-0.787892 1.98966 -0.644807
-0.807651 2.14431 0.631596
-0.790417 2.25474 1.93518
-0.744605 2.31803 3.0189
-0.693695 2.36801 4.12328
0.719415 -0.111937 -3.18341
0.710846 -0.0485103 -2.10172
0.707692 -0.0841002 -0.703073
0.673852 -0.0962208 0.709644
0.663589 -0.0776791 2.11251
0.764451 -0.0198507 3.23189
0.8324 0.0448511 4.32912
0.723953 0.185893 -3.14988
0.781148 0.373235 3.19503
0.840563 0.434357 4.2924
0.741157 0.723376 -3.06256
0.807316 1.1771 3.09546
0.833972 1.22149 4.20053
0.758262 1.71155 -3.02107
0.769978 1.81221 -1.95109
0.760123 1.98956 -0.655674
0.729837 2.14371 0.61719
0.721106 2.25325 1.91569
0.742042 2.31544 2.9928
0.773231 2.36454 4.09124
1.44963 -0.119168 -3.18528
1.4444 -0.0595059 -2.10138
1.43645 -0.0750299 -0.717405
1.38451 -0.0861727 0.676556
1.35984 -0.0655107 2.06753
1.43828 -0.01514 3.18509
1.51423 0.0462216 4.28992
1.4568 0.186773 -3.15431
1.45612 0.271332 -2.07583
1.46306 0.278702 -0.709431
1.4028 0.291336 0.657598
1.36093 0.323507 2.02867
1.45037 0.375183 3.14878
1.52276 0.433995 4.255
1.48269 0.751491 -3.07743
1.50066 0.833094 -1.99365
1.55392 0.974553 -0.671505
1.51032 1.05173 0.640442
1.47316 1.12683 1.96475
1.50008 1.17184 3.0681
1.53371 1.21769 4.17431
1.50657 1.73165 -3.03754
1.5222 1.83168 -1.96863
1.52012 1.99623 -0.669963
1.49014 2.14127 0.60867
1.47209 2.24748 1.90979
1.48136 2.30949 2.98383
1.50319 2.35944 4.07808
-0.75438 0.525 -2.05467
-0.000218511 0.268644 -2.09136
-0.708962 0.259258 -1.36223
-0.717356 0.735 2.1611
0.0482025 0.387495 2.06583
-0.538356 0.343288 1.48887
-0.000118017 0.841544 -2.04176
-0.821947 0.907088 -1.30703
4.50015e-06 1.21933 2.06933
-0.794796 1.1005 1.32659
0.754039 0.525 -2.05444
0.71939 0.259533 -1.385
0.798779 0.72 2.126
0.604722 0.332187 1.375
0.821657 0.906993 -1.30667
0.794572 1.10031 1.32667
-0.654701 0.270231 0.0633199
-0.86023 0.61109 -0.64904
0.0105479 0.253493 -0.672227
-0.868628 0.666802 0.72214
0.023903 0.283064 0.730547
-0.812053 1.00748 0.00977999
0.00036052 1.30814 -0.64848
-0.000118718 1.66261 0.66826
0.690741 0.267175 -0.005
0.860789 0.611902 -0.671667
0.864123 0.664879 0.676667
0.812782 1.00832 0.00999999
-0.863809 0.568045 -1.33463
-0.86059 0.638946 0.03655
-0.894915 0.700901 1.40773
0.00516469 0.253547 -1.37361
0.0172255 0.269898 0.02916
0.0360528 0.360604 1.43193
-0.000168264 0.525 -2.24331
0.0241035 0.7275 2.24065
0.000121251 0.997002 -1.30685
0.000120901 1.6135 0.00988999
-5.71087e-05 1.65201 1.32663
0.863966 0.568451 -1.34583
0.86105 0.638391 0.0025
0.895509 0.69244 1.35083
-1.08465 0.278022 -2.06644
-0.709574 0.118207 -2.08199
-0.714604 0.235443 -2.60963
-0.901629 0.341712 2.1942
-0.548908 0.138093 2.21049
-0.528191 0.361774 2.73892
-1.1216 0.798856 -1.97579
-0.734607 0.74417 -2.51219
-0.746606 1.2886 -1.95381
-1.11888 1.13432 2.00501
-0.703791 1.15928 2.55933
-0.782284 1.69487 1.96009
0.707637 0.118245 -2.08836
0.71419 0.235447 -2.61244
1.08027 0.278166 -2.07541
0.642497 0.11366 2.08875
0.701277 0.339118 2.63002
0.991167 0.314253 2.04683
0.737961 0.744188 -2.51378
0.752371 1.2886 -1.95804
1.11771 0.799047 -1.97932
0.790738 1.15605 2.54023
0.747633 1.69413 1.95035
1.12366 1.13091 1.97487
-1.07083 0.267291 -0.648766
-0.694051 0.0860016 -0.654801
-0.992957 0.291501 0.775438
-0.630499 0.0969816 0.78266
-1.19245 0.970003 -0.649116
-0.806889 1.47792 -0.646717
-1.15827 1.05084 0.675773
-0.802709 1.59632 0.649892
0.709676 0.0863299 -0.699037
1.08736 0.267731 -0.702216
0.669837 0.0926851 0.697322
1.03431 0.286463 0.671299
0.793365 1.4783 -0.652004
1.19027 0.970799 -0.659919
0.763683 1.59594 0.642762
1.15392 1.04995 0.654388
-1.45779 -0.0892803 -2.61508
-1.46548 0.0338783 -3.14886
-1.09565 -0.115458 -3.16693
-1.43874 -0.0668567 -1.35708
-1.45812 0.105749 -2.06376
-1.08305 -0.0540663 -2.07932
-1.38714 -0.075999 0.0795885
-1.43838 0.102202 -0.646296
-1.06161 -0.0790881 -0.652331
-1.30717 -0.0597396 1.51715
-1.35825 0.109949 0.789237
-0.995789 -0.0845701 0.796459
-1.25321 -0.0170289 2.78052
-1.27201 0.153388 2.20869
-0.919285 -0.050231 2.22498
-1.23823 0.035729 3.87121
-1.24549 0.202763 3.30851
-0.891042 0.00115567 3.323
-1.24077 0.257532 4.39147
-0.883434 0.0593176 4.40294
-1.46581 0.228907 -2.59754
-1.47698 0.469088 -3.10131
-1.09576 0.186328 -3.14073
-1.45776 0.274807 -1.35298
-1.48633 0.551878 -2.02201
-1.40949 0.28815 0.0633518
-1.50505 0.626203 -0.648841
-1.32308 0.323077 1.48077
-1.44333 0.675536 0.729071
-1.26429 0.37318 2.73668
-1.37093 0.741029 2.10589
-1.24804 0.424567 3.82877
-1.30922 0.790937 3.2186
-0.890847 0.393242 3.2814
-1.28059 0.840673 4.31751
-0.889322 0.44764 4.36237
-1.4975 0.792058 -2.52577
-1.49929 1.24165 -3.04081
-1.1105 0.737373 -3.06218
-1.53361 0.903274 -1.31787
-1.51684 1.33227 -1.96691
-1.53889 1.01359 0.0168775
-1.55705 1.48526 -0.646935
-1.49119 1.09349 1.35419
-1.54123 1.59808 0.66293
-1.41586 1.15879 2.58781
-1.49904 1.69225 1.98948
-1.34178 1.20704 3.70734
-1.42555 1.74939 3.09487
-1.00078 1.18374 3.14213
-1.37156 1.79824 4.20367
-0.951914 1.22917 4.25498
-1.51863 1.78186 -2.48195
-1.13199 1.72176 -3.01389
-1.54028 1.91426 -1.29598
-1.14184 1.82202 -1.94493
-1.55939 2.06975 -0.000882847
-1.17149 1.99318 -0.644536
-1.54908 2.19684 1.29822
-1.18568 2.14357 0.637048
-1.50872 2.28285 2.49654
-1.16244 2.2528 1.94456
-1.45534 2.34058 3.59119
-1.11379 2.31643 3.02902
-1.06069 2.36717 4.13327
-0.720901 -0.0802442 -2.63117
-0.725931 0.0369919 -3.1588
-0.00405175 -0.111919 -3.17838
-0.705911 -0.0662976 -1.37457
-0.00171856 -0.0485483 -2.09535
-0.670261 -0.0876592 0.0645395
0.00507653 -0.0840546 -0.68161
-0.6079 -0.0750615 1.50428
0.0154346 -0.0937651 0.749435
-0.557118 -0.0320464 2.76745
0.0453861 -0.0682463 2.16592
-0.536248 0.0247442 3.85472
-0.5364 0.191635 3.29589
0.111515 -0.012565 3.27373
-0.531981 0.249425 4.37383
0.150662 0.0498095 4.3615
-0.729279 0.454613 -3.1016
-0.000195353 0.185889 -3.14707
-0.532134 0.416315 3.815
-0.582406 0.78605 3.20493
0.124884 0.380892 3.23562
-0.560644 0.836138 4.29984
0.153838 0.439219 4.32309
-0.743206 1.21748 -3.03526
0.0034715 0.723358 -3.06075
-0.610916 1.20587 3.68977
-0.689018 1.75079 3.07628
0.086943 1.18032 3.11456
-0.641048 1.7981 4.18458
0.122785 1.22484 4.2232
-0.755205 1.76191 -2.47687
0.00303202 1.71158 -3.01633
-0.773052 1.90094 -1.29349
0.00588282 1.81221 -1.94663
-0.797771 2.06699 -0.00660542
-0.0138845 1.98961 -0.650241
-0.799034 2.19953 1.28339
-0.038907 2.14401 0.624393
-0.767511 2.28638 2.47704
-0.0346552 2.254 1.92544
-0.71915 2.34302 3.57109
-0.00128152 2.31674 3.00585
0.0397678 2.36627 4.10726
0.715131 -0.0802234 -2.64257
0.721684 0.0369782 -3.16664
1.08452 -0.115552 -3.18435
0.709269 -0.0663053 -1.4024
1.07762 -0.0540081 -2.10155
0.690772 -0.0901605 0.00328525
1.07207 -0.079565 -0.710239
0.668721 -0.0869499 1.41108
1.02918 -0.0911967 0.6931
0.71402 -0.0487649 2.6722
1.01171 -0.0715949 2.09002
0.798426 0.0125002 3.7805
0.7728 0.176692 3.21346
1.10136 -0.0174953 3.20849
0.836481 0.239604 4.31076
1.17332 0.0455364 4.30952
0.732555 0.454635 -3.10622
1.09038 0.186333 -3.1521
0.810855 0.403796 3.74371
0.794232 0.775166 3.14524
1.11576 0.374209 3.1719
0.837267 0.827924 4.24646
1.18166 0.434176 4.2737
0.74971 1.21746 -3.04182
1.11192 0.737434 -3.06999
0.820644 1.19929 3.64799
0.774679 1.74627 3.04413
1.1537 1.17447 3.08178
0.803601 1.79302 4.14588
1.18384 1.21959 4.18742
0.76412 1.76188 -2.48608
1.13242 1.7216 -3.02931
0.76505 1.90088 -1.30338
1.14609 1.82194 -1.95986
0.74498 2.06664 -0.0192423
1.14012 1.9929 -0.662819
0.725472 2.19848 1.26644
1.10999 2.14249 0.61293
0.731574 2.28435 2.45425
1.0966 2.25037 1.91274
0.757636 2.33999 3.54202
1.1117 2.31247 2.98831
1.13821 2.36199 4.08466
1.44701 -0.089337 -2.64333
1.45322 0.0338025 -3.1698
1.44042 -0.0672679 -1.40939
1.45026 0.105913 -2.0886
1.41048 -0.0806013 -0.0204241
1.44975 0.101836 -0.713418
1.37217 -0.0758417 1.37204
1.39365 0.102582 0.667077
1.39906 -0.0403254 2.62631
1.36038 0.128998 2.0481
1.47626 0.0155408 3.7375
1.44432 0.180022 3.16693
1.5185 0.240108 4.27246
1.45646 0.229052 -2.61507
1.46975 0.469132 -3.11587
1.45959 0.275017 -1.39263
1.47839 0.552213 -2.03474
1.43293 0.285019 -0.0259164
1.50849 0.626628 -0.690468
1.38186 0.307421 1.34313
1.45656 0.671531 0.64902
1.40565 0.349345 2.58872
1.41704 0.725168 1.99671
1.48657 0.404589 3.70189
1.47523 0.773513 3.10844
1.52824 0.825841 4.21466
1.49167 0.792293 -2.53554
1.49463 1.24157 -3.05749
1.52729 0.903824 -1.33258
1.51143 1.33239 -1.98114
[...]
POINT_DATA 29498
VECTORS point_vectors float
-5.42235 -6.55322 9.87086
0.387101 0.630168 3.5446
-3.07343 1.63124 5.47024
0.0108284 -0.17517 0.266305
5.19286 -6.38195 9.76163
-0.329604 -0.345583 6.06849
3.06075 1.62125 5.53633
-0.014843 -0.176753 0.271865
0.000837117 3.11363e-05 0.00864174
0.00162753 0.000464533 0.0175488
0 0 0
0 0 0
-0.00581688 0.000817696 0.0813798
-0.00599759 0.00233041 0.0769151
0 0 0
0 0 0
-0.584029 -0.336501 19.8602
-1.25268 -0.898408 20.5268
-0.324014 -0.638717 21.5509
0.359507 -0.279886 21.7863
1.11546 0.307168 21.711
1.44465 0.463837 21.1556
1.20108 0.270964 21.3586
-0.682563 -0.275025 19.7496
-1.79719 -0.813919 20.4291
-0.54253 -0.868589 21.6078
0.281646 -0.64285 21.8935
1.4469 -0.223605 21.8182
1.791 0.00500815 21.1286
1.76816 0.0116806 20.2498
-0.807723 -0.0269604 19.6461
-2.00304 -0.0700489 20.3098
-1.42566 -0.588236 21.4442
-0.550274 -0.714072 21.8173
0.27606 -0.916268 21.8416
0.854013 -1.12015 21.7944
1.33213 -1.06481 20.3215
-0.564926 0.296056 19.8629
-1.0664 0.554111 20.2253
-1.19542 0.431214 21.0537
-0.670176 0.0256522 21.562
-0.15538 -0.296138 21.561
0.0605613 -0.507247 21.3552
0.068249 -0.514638 21.1663
-0.556054 -0.672 19.3252
-1.93898 -3.48193 20.6385
-0.0653272 -0.32052 21.7764
0.429296 0.369784 21.1951
0.776736 1.44682 20.7323
1.35531 2.27694 20.7054
1.18722 1.71641 18.7286
-0.691092 -0.577996 19.0143
1.98933 2.41524 11.9265
2.58999 2.28807 14.5386
-0.911802 0.0357423 18.6139
0.157437 0.130503 2.65462
1.89474 -1.26484 6.24886
-0.503651 0.638715 19.4372
-1.13239 1.54638 19.7748
-1.80293 1.93235 20.8504
-0.974739 0.675283 22.0342
-0.381317 -0.0904498 21.7735
-0.228657 -0.483463 21.5179
0.0181388 -0.626628 21.5723
0.539632 -0.661882 19.3146
1.96081 -3.51111 20.5474
0.0844143 -0.343281 21.7981
-0.416032 0.32781 21.4501
-0.900097 1.24532 21.1866
-1.54779 1.65359 20.3015
-1.45404 0.90091 19.779
0.689068 -0.570298 19.0227
-2.46065 1.83856 15.562
-2.40071 0.839544 17.6293
0.911028 0.0387413 18.6358
-0.43699 -1.24601 7.79911
-1.52826 -1.69333 14.0447
0.501336 0.630031 19.4448
1.13258 1.52399 19.7765
1.79501 2.03153 20.8068
0.969326 0.798429 22.0777
0.389194 -0.035536 21.7752
0.220008 -0.471854 21.5324
-0.102735 -0.689389 21.3793
0.569674 -0.335 19.8538
1.26506 -0.904132 20.4877
0.373266 -0.654263 21.526
-0.288976 -0.311003 21.7549
-0.923794 0.15742 21.7285
-1.19811 0.273654 21.3425
-1.13014 0.0931296 20.5774
0.674809 -0.272928 19.7438
1.80678 -0.813495 20.3946
0.590912 -0.86824 21.6005
-0.195267 -0.638568 21.8688
-1.13854 -0.271388 21.8523
-1.4634 -0.133048 21.2978
-1.29914 -0.0336648 21.1427
0.796524 -0.0283756 19.6539
2.02147 -0.0581836 20.2977
1.45118 -0.58071 21.4385
0.576284 -0.719102 21.8331
-0.234688 -0.874467 21.8457
-0.842169 -0.915595 21.5991
-0.65285 -0.630232 21.0032
0.551253 0.294203 19.8607
1.05834 0.550708 20.2127
1.2457 0.472055 21.0379
0.718911 0.0712723 21.5824
0.208609 -0.269432 21.588
-0.0335299 -0.479842 21.4041
-0.0446222 -0.628122 20.6886
-3.90365 0.14567 3.09085
0.00495715 -0.736885 1.56054
0.0180098 -0.00479268 0.219851
-0.0469948 -0.112523 0.0285597
-0.000521729 0.0116991 0.0319644
0.00559381 0.00549899 0.05302
-0.00187076 0.133623 0.243958
-0.412441 -0.215993 1.16772
-0.00015875 -0.00216136 0.0016985
0 0 0
3.8838 0.157492 3.06408
-0.0320773 -0.00854493 0.379638
-0.0863512 -0.170634 0.182707
-0.0222408 0.0326815 0.182882
0.411146 -0.21464 1.16913
0 0 0
0.00160644 0.000637655 0.0241555
0 0 0
-1.741e-05 1.50137e-05 0.00155022
0 0 0
2.15872e-05 0.000202037 0.00989463
0 0 0
-0.000369052 0.0557823 0.0953408
0 0 0
-0.00308762 0.00068722 0.0450996
-2.27589e-19 -2.21543e-18 8.71239e-17
0 0 0
0 0 0
-0.00231669 -0.00566496 0.0489747
0 0 0
0.000319385 -0.000299004 0.0153409
-1.06841e-06 -1.71348e-07 6.30567e-05
0 0 0
-0.000882024 0.00295996 0.0185797
0.0115736 0.0569206 0.15985
-0.00134858 -0.104551 0.05361
-0.00130764 0.00912135 0.0547306
-2.47658e-05 0.0349125 0.151996
-7.35077e-06 -0.00101626 0.0214943
0.00422388 -0.00814843 0.0746896
0 0 0
-0.00157001 -0.00419197 0.116388
-3.40455 -1.96349 20.2721
-3.25461 -5.57739 20.6883
-1.91216 -1.60594 17.8983
1.60488 0.954051 14.9604
0.912034 1.53036 16.3526
1.16176 1.65697 9.41649
-3.97339 0.343706 20.0602
-2.79846 0.69431 16.815
-2.49811 2.60648 19.3643
0.300321 -1.13458 19.5004
-0.782204 -1.69459 1.70523
-0.310639 -0.229161 17.253
3.27551 -5.5917 20.5766
1.90819 -1.59339 17.9058
3.43028 -1.97461 20.2342
-1.13647 1.33172 17.7099
-1.54117 1.60209 11.6772
-1.59456 0.378425 18.0033
2.78784 0.691614 16.8529
2.49156 2.55946 19.3634
3.982 0.365223 20.0291
0.481427 -1.84006 4.68173
0.235274 -0.189783 15.989
-0.283128 -1.12219 19.6489
0.0168366 -1.09375 20.3795
0.524447 -0.00188837 16.8806
0.501847 -0.47632 16.4905
0.821141 0.396574 15.3233
-2.34434 -1.42653 21.8176
-4.66 2.14836 20.9039
-0.74005 -1.07026 20.4185
-1.37554 0.17648 18.8313
-0.473909 -0.0138419 17.2559
0.106415 -1.18558 21.0367
-0.810633 0.371515 16.0428
-0.533194 -0.524891 18.172
4.74094 2.27822 20.8175
2.37303 -1.41792 21.8039
1.04177 0.383392 16.7016
0.755456 -1.10278 20.4581
-0.943663 -0.596578 20.0109
-0.641163 -0.316581 19.8062
-0.631806 -0.516873 19.5995
-0.845507 -0.848031 21.2867
-1.51144 -0.871018 20.4849
-1.79482 -1.82249 20.5844
0.0583098 -0.445395 21.6746
-0.409251 -0.749706 21.5766
-0.0626889 -0.642541 21.7711
0.758359 -0.0064074 21.8478
0.359097 -0.449317 21.8407
0.578056 -0.0419044 21.8399
1.32334 0.430067 21.4395
1.32838 0.113961 21.7316
1.2548 0.956029 21.5129
1.58032 0.440237 21.0446
1.64 0.278469 21.2587
1.68318 1.35816 20.6016
1.34734 0.16218 21.2088
1.52877 0.863159 20.0675
-1.23962 -0.50729 19.8212
-0.773083 -0.186446 19.6503
-0.75347 -0.427196 19.4215
-1.23083 -0.928776 21.3607
-1.99138 -0.432582 20.3703
-0.0718625 -0.748567 21.7674
-1.00366 -0.880565 21.5642
0.820165 -0.496113 21.9616
-0.105687 -0.846233 21.9081
1.78006 -0.0616845 21.3542
1.0027 -0.874687 21.7677
2.05259 0.0208564 20.8527
1.69632 -0.708341 21.7197
2.53703 1.20238 18.3627
1.74212 -1.03992 19.9875
2.30336 0.839466 17.7845
-1.47836 -0.00302603 19.7189
-0.729648 0.19778 19.7233
-0.930935 -0.000275881 19.2347
-1.77237 -0.361188 21.0378
-1.54314 0.431174 20.2022
-0.964676 -0.711651 21.7369
-1.57638 0.0625926 21.2247
-0.173008 -0.758107 21.9097
-0.808436 -0.286205 21.7353
0.607504 -1.08776 21.7588
-0.153462 -0.546615 21.6812
1.15405 -1.02422 21.6935
0.276759 -0.789919 21.4972
1.12595 -1.34522 16.7688
0.284656 -0.751833 21.683
1.52067 -1.45803 16.2933
-0.813465 0.442052 19.9819
-0.600099 0.451172 19.6539
-1.20883 0.529756 20.626
-1.21958 0.978629 20.0296
-1.00481 0.251239 21.4141
-1.60417 0.959634 21.0341
-0.408906 -0.162928 21.6282
-0.861462 0.257102 21.7844
-0.0339562 -0.39629 21.4846
-0.300573 -0.236596 21.6737
0.103223 -0.51941 21.4553
-0.00591847 -0.512409 21.3702
0.220498 -0.756225 21.0861
-1.19866 -1.68767 19.059
-0.603567 -0.633617 19.1987
-0.00435266 -0.867939 19.0272
-0.692521 -1.21242 22.3651
-0.00148331 -5.133 21.0083
0.209696 0.0496121 21.3375
0.000137713 -0.498756 20.9202
0.619141 0.992102 20.7806
-0.00787121 0.251711 19.7016
1.0251 1.93029 20.6663
-0.0360152 1.33049 19.6903
1.05538 2.23733 20.4953
1.44884 2.4272 17.5461
-0.164972 2.32295 19.2003
1.68982 1.96982 17.5707
-0.561545 2.57532 18.8064
-0.876339 -0.299112 18.7272
0.0014968 -0.74738 18.5728
2.33064 2.69955 13.7553
2.11029 0.408623 4.9182
-0.294121 2.11262 9.29675
2.90925 0.0945101 8.54365
-0.886555 2.73521 13.1733
-0.767433 0.575482 18.9588
0.00803212 0.13276 17.924
1.00885 -0.666261 3.67446
-0.223022 -1.04734 16.0964
0.0815861 1.80012 -4.23375
-0.154363 -1.39671 15.1403
-0.0233387 4.43753 1.0081
-0.82605 1.14423 19.4578
0.00388305 0.810237 19.184
-1.48103 1.75881 20.1839
0.0136768 2.23105 19.4532
-1.61358 1.47022 21.812
-0.0590853 3.6002 20.389
-0.574814 0.17292 21.9187
-0.0693535 1.51035 22.3903
-0.299011 -0.256074 21.7404
-0.0410643 0.288485 21.7459
-0.143782 -0.563133 21.0683
-0.00689688 -0.220301 21.5017
0.00644474 -0.295389 19.7183
1.17272 -1.66405 19.0508
0.594727 -0.62475 19.1956
0.617273 -0.510734 19.5941
0.733157 -1.27208 22.3579
1.81295 -1.83899 20.5316
-0.19895 0.0228707 21.4489
0.111145 -0.678724 21.7654
-0.673706 0.884391 21.2625
-0.523721 -0.104639 21.8254
-1.24025 1.59848 21.153
-1.15145 0.644934 21.7023
-1.54872 1.48039 20.889
-2.10741 2.00913 18.9629
-1.57349 0.780313 21.4299
-1.92237 1.05065 18.5054
-1.20591 0.343049 21.4164
0.875268 -0.291726 18.739
0.746267 -0.42238 19.4192
-2.36745 1.35521 16.5597
-2.5153 -0.410905 9.29004
-2.20141 0.331551 19.9624
-2.53053 -0.295199 16.8868
-1.89646 0.031614 20.1082
0.76391 0.5631 18.977
0.919537 -0.00108853 19.244
-1.34194 -1.37721 9.73275
0.145459 -1.15345 18.7332
-0.992341 -1.26365 19.9744
-0.166947 -1.41829 16.0162
-1.61477 -1.42153 19.7568
0.826407 1.12315 19.4642
0.592583 0.442452 19.6549
1.46441 1.76734 20.1707
1.20362 0.967187 20.023
1.61175 1.61591 21.8202
1.62032 1.02029 21.0087
0.566407 0.240081 21.9422
0.922807 0.341081 21.8278
0.312217 -0.23133 21.7594
0.329647 -0.209015 21.6935
0.153798 -0.564205 21.029
0.0241947 -0.493663 21.4563
-0.189367 -0.67946 21.3499
0.924501 -0.584616 19.9938
0.630522 -0.311029 19.7989
0.886323 -0.862458 21.2476
1.52057 -0.877003 20.4499
0.0141076 -0.47587 21.6319
0.466481 -0.760815 21.5616
-0.612097 -0.103374 21.8054
-0.271699 -0.458594 21.8089
-1.10377 0.257074 21.5464
-1.06953 -0.0343897 21.7833
-1.20402 0.232624 20.9511
-1.35935 0.095007 21.3596
-1.25549 -0.00929512 20.7661
1.23023 -0.505426 19.8013
0.763061 -0.181547 19.6555
1.27636 -0.926758 21.324
2.01962 -0.434924 20.3471
0.13611 -0.756405 21.7366
1.03931 -0.874763 21.5538
-0.646113 -0.513574 21.9378
0.14217 -0.831332 21.8915
-1.39564 -0.166387 21.657
-0.845583 -0.805124 21.8232
-1.5104 -0.23312 21.2076
-1.32866 -0.644943 21.5282
-0.972262 -0.454473 21.0782
1.45929 -0.00414359 19.7111
0.714846 0.192041 19.7278
1.79492 -0.347774 21.0335
1.54159 0.437942 20.1881
0.990137 -0.718433 21.7332
1.625 0.0676151 21.2105
0.21821 -0.75044 21.889
0.862343 -0.273239 21.7715
-0.556523 -0.932679 21.7511
0.188582 -0.545054 21.7338
-1.06236 -0.8758 21.5899
-0.312924 -0.770496 21.5852
-0.292326 -0.940209 20.3102
0.803149 0.433504 19.9743
1.218 0.55297 20.6074
1.05355 0.298612 21.408
0.433894 -0.12926 21.6255
0.0645522 -0.373685 21.4818
-0.110683 -0.460904 21.2672
-1.11096 -0.579064 19.8991
-1.48598 -1.74199 18.5592
-1.22115 -1.08565 19.6058
-1.74638 -0.947685 19.1281
-0.695188 -0.502934 19.5289
-2.43666 -1.98505 20.4653
-1.02235 -0.909449 21.338
-0.0804743 -0.516037 18.5707
-0.738348 -1.18627 21.7067
-1.24959 -1.67473 22.0207
0.0276442 -0.849246 21.643
0.0242397 -0.586949 21.7034
0.635361 0.219123 15.4852
0.292081 -0.320408 21.7787
0.433128 -0.632306 18.3574
0.769846 -0.23977 20.558
0.851771 -0.234245 21.9049
0.771438 1.10576 14.8855
0.964739 0.466648 21.8393
1.38173 -0.123559 14.0905
1.6904 0.998409 19.8171
1.582 0.257762 21.5002
1.21799 2.13726 16.9072
1.50376 1.22591 21.3041
2.23158 1.0848 16.3907
2.11237 1.65646 19.3545
1.98732 0.311812 20.902
1.47042 2.41534 17.1306
1.49831 1.15067 20.7739
2.39125 0.922901 17.715
1.8726 0.991199 18.7503
-1.42703 -0.293108 19.7232
-2.55355 -0.732062 17.0103
-2.17813 0.193362 18.8619
-0.913197 -0.232486 19.2437
-4.27358 -0.874451 20.1381
-1.60619 -0.716389 21.247
-2.89568 -0.723229 21.3786
-0.846748 -1.68647 21.0394
-0.485963 -0.880119 21.7933
-1.43706 -1.53485 21.3869
0.0893691 -0.599431 17.8906
0.339355 -0.861201 21.9676
-0.260421 -0.738004 19.7386
1.44633 -0.347678 14.4331
1.39151 -0.909777 21.5478
0.822196 -0.821002 2.20925
0.517955 -1.22396 18.2706
2.552 -0.513678 14.531
1.72922 -0.71177 21.2648
2.53489 1.41118 7.45441
1.45168 -1.47596 15.2622
2.33248 -0.528346 17.5154
-1.17115 0.379323 19.822
-1.56519 1.52973 18.6042
-0.904893 0.755338 19.7375
-0.801814 0.343235 19.3881
-2.19371 1.13554 19.8826
-1.66556 0.250362 20.7458
-3.05177 2.15782 20.0051
-1.46594 1.03241 20.4685
-2.67204 0.3949 21.3025
-1.2482 -0.144507 21.6164
-3.76523 0.274675 21.9863
-1.33641 0.644918 21.5888
-1.24761 -0.231451 22.0743
-0.441373 -0.410217 21.7713
-0.392291 0.119506 17.582
-0.524136 -0.0277206 21.7555
-0.42399 -0.627925 21.9075
0.0528747 -0.659262 21.6208
-0.357753 -0.523053 16.4866
-0.183828 -0.360412 21.5895
0.0786219 -1.06169 21.4893
0.497674 -0.696001 20.981
0.155069 -1.23505 13.8035
-0.0322477 -0.731026 21.581
0.172024 -1.14944 21.0431
1.469 -1.71573 18.5602
-0.00686839 -2.5018 18.3928
4.58207e-05 -2.74983 16.1621
-0.00121489 -0.873612 18.8478
0.00994425 -8.05587 21.9407
0.127373 -0.579968 18.7969
0.000140994 -1.60581 22.2553
-0.0111755 -0.0549193 11.6336
-0.643937 0.185883 16.0759
-0.00200082 -0.0818803 19.8726
-0.0169793 0.251864 11.6117
-0.933299 1.1002 16.0562
-0.0223891 0.809988 19.6166
-0.0448885 1.21907 12.8424
-1.59311 1.83441 18.8121
-0.114677 1.86766 19.4129
-0.197042 1.19122 6.33233
-0.215422 2.69415 15.9228
-1.9203 1.61771 17.46
-0.360444 2.42041 18.7008
-0.602618 2.89202 10.8
-0.851239 2.67286 17.1068
2.54484 -0.717536 17.0359
0.00873035 1.83756 14.0734
0.00283902 -0.390431 18.0814
-1.14646 -1.16157 4.98557
0.0812816 0.440848 -2.68361
-0.724509 1.29127 0.266589
-2.7866 0.635566 12.629
0.0696086 2.26004 -1.63132
-0.743866 4.72408 5.75023
1.55447 1.49636 18.6242
0.0093105 1.59996 19.1437
0.00475865 0.80063 18.4944
0.0246857 4.25841 18.8088
3.03283 2.17024 19.9939
-0.00835189 2.71175 19.7278
-0.0535169 6.6977 18.3952
3.91762 0.287841 21.6195
-0.0709279 3.16641 22.1006
-0.00898945 0.61683 9.48315
0.1748 0.278744 15.6957
-0.0449698 0.604262 22.0943
-0.0681512 0.484229 3.60385
0.362195 -0.52261 17.2786
-0.0211535 0.169884 22.0522
0.0697625 0.628747 4.01307
-0.15407 -1.3284 14.8403
0.00804551 -0.604982 20.3267
-0.0312474 1.76827 8.23091
1.09274 -0.577072 19.8881
1.20914 -1.0738 19.5796
1.73664 -0.936662 19.1182
0.688005 -0.500864 19.524
2.4599 -1.9973 20.4109
1.06459 -0.917065 21.3056
0.811436 -1.23643 21.6907
1.31365 -1.6888 21.9689
0.0529203 -0.901094 21.7575
0.0485754 -0.608899 21.6764
-0.249937 -0.359918 21.7648
-0.360547 -0.740467 19.3319
-0.689049 -0.303075 20.9486
-0.674499 -0.276508 21.8777
-0.862844 0.298159 21.8292
-1.29953 -0.282391 17.008
-1.51471 0.585506 20.7676
-1.31515 0.0764105 21.6106
-1.40344 0.796957 21.5548
-2.10814 0.376064 19.6724
-1.87019 0.622758 20.8987
-1.38899 -0.000813788 21.0478
-1.63663 0.715599 21.2825
-2.44235 0.213694 20.131
-1.41965 0.241846 20.9827
1.41884 -0.291776 19.7155
2.15888 0.195167 18.8564
0.906887 -0.227294 19.2483
4.30318 -0.866371 20.0854
1.63826 -0.708852 21.2314
2.92225 -0.702118 21.3674
0.913394 -1.68078 21.0979
0.536312 -0.882477 21.7733
1.46169 -1.54902 21.3893
-0.0970839 -0.707463 18.3654
-0.258645 -0.821082 21.9324
0.29033 -0.768295 19.87
-1.32083 -0.418532 16.8308
-1.17909 -0.75558 21.6686
-0.525257 -1.36918 20.4431
-1.99862 -0.689348 19.3631
-1.34141 -0.637416 21.3084
-1.47699 -1.35936 20.2082
-2.02126 -1.15231 19.5022
1.1608 0.381349 19.8143
0.895919 0.74565 19.7373
0.791123 0.338954 19.3873
2.17181 1.13655 19.8642
1.68503 0.2711 20.7274
1.46793 1.05567 20.4471
2.72675 0.439517 21.2799
1.3094 -0.125662 21.6206
1.39549 0.744129 21.6048
1.33812 -0.228376 22.1265
0.485231 -0.393266 21.7612
0.553007 0.00727506 21.7891
0.45435 -0.615972 21.8947
-0.0274959 -0.663997 21.5813
0.194791 -0.341152 21.5954
-0.086669 -0.993747 21.4935
-0.477028 -0.770922 21.7031
0.0322157 -0.678968 21.5233
-0.22889 -1.04083 22.5779
-1.41414 -1.05627 19.4406
-0.893521 -1.41914 21.8999
0.460803 -0.467372 20.9864
1.38409 0.416457 19.8281
2.01904 1.28443 19.83
1.90901 1.10294 18.6215
-2.12629 -0.453116 18.8284
-2.14423 -1.51535 21.6745
-0.0763001 -1.22113 19.3829
0.365729 -0.397904 16.5527
1.76496 -0.607193 14.3306
2.47372 0.331144 15.469
-1.47868 0.763588 19.3536
-2.46578 0.800733 20.5861
-2.08247 -0.0157045 22.009
-0.716745 -0.408696 22.0172
-0.236154 -0.791651 21.7047
0.39511 -1.37985 21.2541
-0.00333381 -2.67532 17.557
-0.00425874 -0.582008 13.323
-0.0113158 0.091131 11.0573
-0.0676225 0.746624 11.2893
-0.141996 1.86703 14.3833
-0.3825 2.53216 15.9424
0.00116874 -1.02842 14.3157
-0.00778512 0.0875989 0.814537
-1.52829 3.01983 3.37331
0.0164572 2.51285 17.731
-0.00342013 4.06281 18.9295
-0.0604276 3.50181 14.5815
-0.00148975 -0.0196357 8.02783
0.0248453 0.201282 3.86673
0.1992 -0.939803 6.35792
1.38709 -1.04224 19.4173
0.961333 -1.44709 21.8743
-0.385512 -0.543485 21.2436
-1.22861 0.158397 20.7565
-1.82842 0.716574 20.9169
-2.06295 0.497712 20.8543
2.10786 -0.445773 18.8287
2.21911 -1.49313 21.7122
0.132089 -1.30713 19.7563
-0.332275 -0.51818 17.4799
-1.69699 -0.742437 18.2261
-2.10076 -0.760088 19.9944
1.45766 0.756532 19.3501
2.47428 0.825086 20.5656
2.18904 0.0162901 22.0389
0.76939 -0.39684 21.9912
0.247284 -0.793977 21.8549
-0.410156 -1.08681 20.8229
-1.20128 -0.444056 1.10897
0.0683093 -1.69391 1.88507
-0.0130819 -0.00747241 0.56245
0.0023147 -0.0313574 -0.0115006
0.012142 0.0139257 0.0790941
0.00685808 0.00263124 0.0428776
-0.0119628 0.00142209 0.0149636
0 0 0
-0.249725 -0.111715 0.672143
0.0674146 -0.217883 0.234417
-0.0475188 -0.0243653 0.00640355
0 0 0
-0.0794336 -1.68781 1.73264
0.689968 -0.254676 0.63192
0.0212912 -0.00110716 0.719547
-0.00797083 0.0303189 0.085591
-0.0417206 0.0945331 0.185257
-0.0085177 0.00506411 0.134868
4.46059e-17 1.36587e-16 3.05531e-16
0.00559672 0.000685718 0.00710053
0.268792 -0.104912 0.707618
0.0469433 -0.0236369 0.00549213
-0.0486215 -0.0765742 0.259804
0 0 0
0.0048496 -0.000191671 0.0372324
0.0015189 0.000311722 0.0201954
0.000770298 -0.000388296 0.0533063
0 0 0
-0.00258837 0.0109545 0.0938971
0 0 0
-0.000316169 -0.000459904 0.00915977
0.000899474 0.000439613 0.0154461
-0.278932 -0.222286 0.551025
0 0 0
0 0 0
0 0 0
0 0 0
0 0 0
0 0 0
0.0233466 0.0253139 0.478529
-0.0350071 -0.00910719 0.380969
0 0 0
0 0 0
-0.000716655 -0.000515717 0.0497069
-0.00555036 0.0157598 0.233013
-0.00100298 0.000452716 0.0175557
-0.00306629 0.000978053 0.0405143
7.99387e-05 -0.000146283 0.00270767
0.272145 -0.217312 0.538304
8.56407e-17 5.64848e-17 1.15979e-16
1.95266e-05 6.39691e-05 0.00270456
0 0 0
0 0 0
-0.0227865 0.0244503 0.478773
0 0 0
-1.57652e-18 2.79524e-18 8.3239e-18
-0.0143293 -0.0232299 0.111051
-0.235256 -0.0732709 0.174047
0.00020329 -0.00125263 0.0244387
-0.00136088 -0.811157 0.691565
-0.000401811 -0.00148802 0.0133387
0.000829123 -2.60522e-05 0.00494831
0.0184929 0.0118152 0.255542
-0.0164451 -0.128798 0.0619865
0.0274925 0.00903422 0.592422
-0.00036704 -0.00290057 -0.000957966
0.00739847 -0.00575837 0.258742
-9.75405e-06 4.24037e-05 0.000189567
-0.698575 3.76168 2.07109
-0.00051701 0.0136194 0.0832559
-0.00608394 -0.0118566 0.0652073
3.81334e-17 -1.05469e-17 -6.70949e-17
0 0 0
-0.000257724 0.0122825 -0.0192281
2.30139e-05 0.000179298 0.00641005
0.00136189 -0.00227035 0.0407627
0.365225 0.0834446 0.22709
0.0150269 -0.0251853 0.199622
-0.000511389 -1.46926e-05 0.0031113
0.000643591 -0.00228779 0.0201067
0.00965907 -0.0880931 0.028801
-0.00237759 0.0018813 0.0315437
0 0 0
-0.0251907 -0.0267976 0.423744
0 0 0
0.00946433 -0.0183257 0.100492
-0.0014657 -0.00228063 0.0411078
-3.36863e-06 4.52891e-05 0.00108799
6.23586e-05 0.000799592 0.0264666
0 0 0
0.00366736 -0.0105532 0.0950369
0 0 0
-8.69385e-07 1.02128e-07 4.97066e-05
0 0 0
0 0 0
-0.000433989 0.000301087 0.0240153
-4.08953e-05 0.000168681 0.0101068
0 0 0
0.000195605 0.0043032 0.0191805
-0.521827 0.174715 2.74485
-0.000383589 0.00241966 0.00452078
-3.68157e-05 0.0178319 0.0391172
2.04299e-06 0.00340861 0.0450192
3.55822e-05 1.68424e-05 0.005066
0 0 0
-4.65985e-05 0.00225887 0.0623955
-0.0034646 -0.00901363 0.081854
0 0 0
0 0 0
3.46226e-05 1.99782e-05 0.00151791
0.508958 0.17221 2.67845
-8.23431e-05 0.00166211 0.00739539
-0.0230142 -0.0483409 0.346365
0 0 0
1.3688e-05 -5.08009e-05 0.00109052
-0.00105703 -0.00771642 0.0468316
0.000131581 0.000758488 0.0304515
5.32868e-05 0.00224923 0.013077
2.48564e-05 5.28893e-05 0.00516474
2.52419e-06 6.1719e-05 0.00029376
0 0 0
-0.000293683 0.00140694 0.0185845
0.0126984 0.0351786 0.485156
0.00344205 -0.00108757 0.0255132
-0.00167127 -0.00205491 0.0519364
0.00246551 -0.00246119 0.0571891
0.00212211 1.04624e-05 0.0139806
-0.000566348 -1.13075e-06 0.00355786
0 0 0
0 0 0
0.00137583 0.000683554 0.0184454