# vtk DataFile Version 2.0
tet_velo
ASCII
DATASET UNSTRUCTURED_GRID
POINTS 29498 float
-0.754893 0.165 -2.015
-0.685105 0.265 2.095
-0.765 0.625 -1.97761
-0.695 0.962705 1.995
0.754893 0.165 -2.015
0.685105 0.265 2.095
0.765 0.625 -1.97761
0.695 0.962705 1.995
-0.788755 0.141209 -0.645
-0.796719 0.143315 0.725
-0.819347 0.815249 -0.653407
-0.784638 0.916441 0.670797
0.789037 0.140927 -0.645
0.796223 0.143811 0.725
0.818946 0.814847 -0.653407
0.784635 0.916438 0.670797
-1.54614 -0.225452 -3.08534
-1.54816 -0.166561 -2.00768
-1.56852 -0.183493 -0.636496
-1.55923 -0.196137 0.743905
-1.48952 -0.116662 2.11587
-1.46842 -0.045098 3.19733
-1.47371 0.0182637 4.27175
-1.54583 0.0683607 -3.08311
-1.54945 0.150729 -2.01045
-1.57726 0.159608 -0.648179
-1.55657 0.160876 0.718217
-1.45537 0.244479 2.08137
-1.44437 0.314995 3.16218
-1.46043 0.376649 4.2381
-1.55097 0.609205 -3.06579
-1.56082 0.688168 -1.99124
-1.59662 0.826591 -0.66019
-1.55342 0.905704 0.667618
-1.45858 0.961691 1.99955
-1.44611 1.02803 3.08226
-1.4605 1.0903 4.16556
-1.55752 1.54549 -3.07425
-1.56441 1.6437 -2.00656
-1.57678 1.80682 -0.690357
-1.56782 1.948 0.615976
-1.53721 2.03967 1.93266
-1.51571 2.09812 3.00135
-1.50554 2.1546 4.07965
-0.767151 -0.217493 -3.08829
-0.76133 -0.154584 -2.01199
-0.781419 -0.191338 -0.635918
-0.794382 -0.209218 0.749695
-0.745798 -0.109111 2.12599
-0.727117 -0.0391133 3.20419
-0.729735 0.0211542 4.27572
-0.766658 0.0685586 -3.08402
-0.703635 0.32279 3.16784
-0.718158 0.380245 4.24109
-0.76974 0.583393 -3.06013
-0.705247 1.0314 3.08135
-0.717756 1.0931 4.16536
-0.772612 1.52657 -3.06865
-0.776004 1.62517 -2.00039
-0.791256 1.80112 -0.686639
-0.7966 1.95255 0.61553
-0.781403 2.04452 1.92947
-0.764181 2.10149 2.99817
-0.753801 2.15713 4.07734
0.773362 -0.217567 -3.08829
0.774759 -0.154663 -2.01199
0.790501 -0.191483 -0.635918
0.771436 -0.20893 0.749695
0.700438 -0.108995 2.12599
0.72166 -0.0390341 3.20419
0.741612 0.0212292 4.27572
0.767946 0.0685037 -3.08402
0.722806 0.322843 3.16784
0.74411 0.380311 4.24109
0.772656 0.583333 -3.06013
0.726411 1.03144 3.08135
0.746079 1.09315 4.16536
0.792401 1.52645 -3.06865
0.796613 1.62502 -2.00039
0.786794 1.80098 -0.686639
0.756366 1.95248 0.61553
0.731974 2.04453 1.92947
0.73419 2.10151 2.99817
0.744242 2.15716 4.07734
1.54959 -0.225631 -3.08534
1.55331 -0.16678 -2.00768
1.57256 -0.183706 -0.636496
1.54963 -0.195807 0.743905
1.47127 -0.116389 2.11587
1.46823 -0.044916 3.19733
1.48619 0.0184154 4.27175
1.54466 0.0681931 -3.08311
1.54608 0.150514 -2.01045
1.57703 0.159273 -0.648179
1.56076 0.161253 0.718217
1.46336 0.244729 2.08137
1.463 0.315151 3.16218
1.485 0.376789 4.2381
1.55135 0.609023 -3.06579
1.55812 0.687924 -1.99124
1.59524 0.826126 -0.66019
1.55716 0.905752 0.667618
1.46768 0.961841 1.99955
1.46675 1.02814 3.08226
1.48726 1.09041 4.16556
1.57317 1.54525 -3.07425
1.57867 1.64342 -2.00656
1.57154 1.80655 -0.690358
1.53646 1.94789 0.615976
1.49953 2.03968 1.93266
1.49221 2.09816 3.00135
1.49847 2.15466 4.07965
-0.777985 0.395 -2.01434
0 0.170359 -2.00964
-0.789716 0.135213 -1.33
-0.726547 0.613853 2.08149
0 0.272962 2.08704
-0.799924 0.145145 1.41
0 0.789134 -2.14174
-0.842577 0.770528 -1.31551
0 1.04759 2.07988
-0.760614 0.960368 1.3329
0.788212 0.395 -2.02457
0.789716 0.135213 -1.33
0.726549 0.613853 2.0815
0.799488 0.145582 1.41
0.842597 0.770548 -1.31551
0.760603 0.960357 1.3329
-0.792692 0.142307 0.04
-0.842414 0.478229 -0.649203
0.000141031 0.164081 -0.645
-0.843352 0.529878 0.697898
-0.000248195 0.164278 0.725
-0.780995 0.844847 0.00869501
-0.000200819 1.20308 -0.653407
-1.48568e-06 1.44734 0.670797
0.792586 0.142413 0.04
0.842408 0.477887 -0.649203
0.843362 0.530125 0.697898
0.780943 0.844796 0.00869501
-0.893148 0.436614 -1.32275
-0.834173 0.504054 0.0243475
-0.894617 0.571865 1.37145
7.05156e-05 0.157591 -1.33
-5.35818e-05 0.164182 0.04
-0.000124097 0.240441 1.41
0 0.395 -2.2008
0 0.613853 2.17404
-0.00010041 0.965494 -1.31551
-0.000101152 1.4345 0.00869501
-7.42838e-07 1.42071 1.3329
0.89315 0.436444 -1.32275
0.83418 0.504006 0.0243475
0.894617 0.571989 1.37145
-1.15217 0.157865 -2.01273
-0.758112 0.00520805 -2.0135
-0.760776 0.116779 -2.54951
-1.07024 0.254739 2.08818
-0.715451 0.0779444 2.11049
-0.69437 0.293895 2.63142
-1.16291 0.656584 -1.98443
-0.76737 0.604197 -2.51887
-0.770502 1.12508 -1.989
-1.07679 0.962198 1.99727
-0.700123 0.997052 2.53817
-0.738201 1.50361 1.96224
0.764826 0.00516839 -2.0135
0.761419 0.116752 -2.54951
1.15048 0.157757 -2.01273
0.692772 0.0780024 2.11049
0.703956 0.293922 2.63142
1.07423 0.254864 2.08818
0.768828 0.604166 -2.51887
0.780806 1.12501 -1.989
1.16156 0.656462 -1.98443
0.710706 0.99707 2.53817
0.713487 1.50362 1.96224
1.08134 0.962273 1.99727
-1.18301 0.150409 -0.646589
-0.785087 -0.0250644 -0.640459
-1.17664 0.152096 0.721608
-0.795551 -0.0329513 0.737347
-1.20798 0.82092 -0.656798
-0.805302 1.30819 -0.670023
-1.16903 0.911073 0.669208
-0.790619 1.43449 0.643164
0.789769 -0.0252782 -0.640459
1.18303 0.1501 -0.646589
0.78383 -0.032559 0.737347
1.17849 0.152532 0.721608
0.80287 1.30791 -0.670023
1.20709 0.820487 -0.656798
0.7705 1.43446 0.643163
1.1709 0.911095 0.669207
-1.54715 -0.196006 -2.54651
-1.54599 -0.0785454 -3.08422
-1.15665 -0.221472 -3.08682
-1.55834 -0.175027 -1.32209
-1.54881 -0.00791563 -2.00907
-1.15475 -0.160572 -2.00984
-1.56387 -0.189815 0.0537047
-1.57289 -0.0119424 -0.642337
-1.17497 -0.187415 -0.636207
-1.52437 -0.156399 1.42989
-1.5579 -0.0176302 0.731061
-1.17681 -0.202677 0.7468
-1.47897 -0.0808799 2.6566
-1.47245 0.0639086 2.09862
-1.11766 -0.112887 2.12093
-1.47107 -0.0134172 3.73454
-1.4564 0.134948 3.17975
-1.09777 -0.0421057 3.20076
-1.46707 0.197456 4.25492
-1.10172 0.0197089 4.27374
-1.54764 0.109545 -2.54678
-1.5484 0.338783 -3.07445
-1.15625 0.0684597 -3.08356
-1.56335 0.155169 -1.32932
-1.55513 0.419449 -2.00085
-1.56691 0.160242 0.0350191
-1.58694 0.493099 -0.654184
-1.50597 0.202678 1.39979
-1.555 0.53329 0.692918
-1.44987 0.279737 2.62177
-1.45698 0.603085 2.04046
-1.4524 0.345822 3.70014
-1.44524 0.671512 3.12222
-1.074 0.318893 3.16501
-1.46047 0.733473 4.20183
-1.08929 0.378447 4.2396
-1.5559 0.648687 -2.52852
-1.55425 1.07735 -3.07002
-1.16036 0.596299 -3.06296
-1.57872 0.757379 -1.32572
-1.56262 1.16593 -1.9989
-1.57502 0.866147 0.00371416
-1.5867 1.3167 -0.675274
-1.506 0.933698 1.33358
-1.56062 1.42685 0.641797
-1.45235 0.99486 2.5409
-1.4979 1.50068 1.9661
-1.45331 1.05916 3.62391
-1.48091 1.56307 3.0418
-1.07568 1.02971 3.0818
-1.48302 1.62245 4.1226
-1.08913 1.0917 4.16546
-1.56097 1.59459 -2.54041
-1.16507 1.53603 -3.07145
-1.5706 1.72526 -1.34846
-1.17021 1.63443 -2.00348
-1.5723 1.87741 -0.0371904
-1.18402 1.80397 -0.688498
-1.55252 1.99384 1.27432
-1.18221 1.95027 0.615753
-1.52646 2.06889 2.467
-1.15931 2.0421 1.93107
-1.51062 2.12636 3.5405
-1.13995 2.0998 2.99976
-1.12967 2.15586 4.07849
-0.764241 -0.186039 -2.55014
-0.766905 -0.0744672 -3.08615
0.00310569 -0.21753 -3.08829
-0.771375 -0.172961 -1.32395
0.00671408 -0.154624 -2.01199
-0.787901 -0.200278 0.0568886
0.004541 -0.191411 -0.635918
-0.77009 -0.159164 1.43784
-0.0114729 -0.209074 0.749695
-0.736458 -0.0741123 2.66509
-0.0226796 -0.109053 2.12599
-0.728426 -0.00897956 3.73996
-0.715376 0.141839 3.18602
-0.00272898 -0.0390737 3.20419
-0.723947 0.2007 4.25841
0.00593883 0.0211917 4.27572
-0.768199 0.325976 -3.07207
0.000643774 0.0685312 -3.08402
-0.710897 0.351518 3.70447
-0.704441 0.677095 3.1246
0.00958531 0.322817 3.16784
-0.717957 0.736673 4.20323
0.0129759 0.380278 4.24109
-0.771176 1.05498 -3.06439
0.00145828 0.583363 -3.06013
-0.711502 1.06225 3.62335
-0.734714 1.56644 3.03976
0.0105821 1.03142 3.08135
-0.735778 1.62511 4.12135
0.0141611 1.09313 4.16536
-0.774308 1.57587 -2.53452
0.00989483 1.52651 -3.06865
-0.78363 1.71315 -1.34352
0.0103042 1.6251 -2.00039
-0.793928 1.87683 -0.0355541
-0.00223123 1.80105 -0.686639
-0.789002 1.99853 1.2725
-0.0201174 1.95251 0.61553
-0.772792 2.07301 2.46382
-0.0247144 2.04452 1.92947
-0.758991 2.12931 3.53775
-0.0149956 2.1015 2.99817
-0.00477935 2.15714 4.07734
0.77406 -0.186115 -2.55014
0.770654 -0.0745314 -3.08615
1.16148 -0.221599 -3.08682
0.78263 -0.173073 -1.32395
1.16404 -0.160721 -2.00984
0.780969 -0.200206 0.0568886
1.18153 -0.187595 -0.636207
0.735937 -0.158962 1.43784
1.16053 -0.202368 0.7468
0.711049 -0.0740147 2.66509
1.08586 -0.112692 2.12093
0.731636 -0.00890249 3.73996
0.722233 0.141905 3.18602
1.09494 -0.0419751 3.20076
0.742861 0.20077 4.25841
1.1139 0.0198223 4.27374
0.770301 0.325918 -3.07207
1.1563 0.0683484 -3.08356
0.733458 0.351577 3.70447
0.724609 0.677139 3.1246
1.0929 0.318997 3.16501
0.745094 0.736732 4.20323
1.11455 0.37855 4.2396
0.782529 1.05489 -3.06439
1.16201 0.596178 -3.06296
0.736245 1.06229 3.62335
0.730301 1.56647 3.03976
1.09658 1.02979 3.0818
0.74516 1.62516 4.12135
1.11667 1.09178 4.16546
0.794507 1.57574 -2.53452
1.18278 1.53585 -3.07145
0.791703 1.713 -1.34352
1.18764 1.63422 -2.00348
0.77158 1.87673 -0.0355542
1.17917 1.80376 -0.688498
0.74417 1.99851 1.2725
1.14641 1.95019 0.615753
0.733082 2.07302 2.46382
1.11575 2.0421 1.93107
0.739216 2.12933 3.53775
1.1132 2.09984 2.99976
1.12136 2.15591 4.07849
1.55145 -0.196205 -2.54651
1.54712 -0.0787191 -3.08422
1.56294 -0.175243 -1.32209
1.54969 -0.00813269 -2.00907
1.56109 -0.189757 0.0537047
1.57479 -0.0122167 -0.642337
1.51045 -0.156098 1.42989
1.55519 -0.0172774 0.731061
1.46975 -0.0806523 2.6566
1.46732 0.0641702 2.09862
1.47721 -0.0132503 3.73454
1.46561 0.135117 3.17975
1.48559 0.197602 4.25492
1.54537 0.109354 -2.54678
1.54801 0.338608 -3.07445
1.56155 0.154894 -1.32932
1.5521 0.419219 -2.00085
1.56889 0.160263 0.0350191
1.58613 0.4927 -0.654184
1.51206 0.202991 1.39979
1.55896 0.533502 0.692917
1.46318 0.27994 2.62177
1.46552 0.603285 2.04046
1.474 0.34597 3.70014
1.46487 0.671647 3.12222
1.48613 0.733598 4.20183
1.55474 0.648473 -2.52852
1.56226 1.07714 -3.07002
1.57668 0.757025 -1.32572
1.56839 1.16567 -1.9989
1.5762 0.865939 0.00371408
1.58339 1.31634 -0.675274
[...]
POINT_DATA 29498
VECTORS point_vectors float
-2.67272 -4.02683 7.47316
0.114305 0.117026 0.360956
-0.722691 0.214362 0.912037
-0.0786806 -0.116589 0.0520443
2.7289 -3.97922 7.37356
-0.115727 0.0783687 0.29279
0.723017 0.21377 0.913287
0.0906755 -0.109552 0.0348379
0.0262798 0.019041 1.57939
0.344348 -0.194782 1.84912
-0.00662868 -0.00686341 0.157626
0.00522991 0.00995522 0.0317187
-0.0303192 0.0160439 1.61452
-0.356246 -0.199976 1.80822
0.00633885 -0.00660853 0.143868
-0.00517238 0.0098587 0.0310563
-0.643494 -0.309521 19.8805
-1.24712 -0.721245 20.6026
-0.352794 -0.369469 21.392
0.0913955 -0.170045 21.572
0.76703 0.152506 21.5646
1.07362 0.240206 21.2739
1.05433 0.0877256 20.7559
-0.749022 -0.248066 19.7869
-1.68867 -0.607927 20.5585
-0.496351 -0.474551 21.4493
-0.00888488 -0.328866 21.6098
0.98405 -0.116347 21.6689
1.30801 -0.0949622 21.3187
1.19702 -0.00974608 21.0761
-0.834734 -0.0033176 19.6684
-1.94638 0.00962629 20.4428
-1.04534 -0.408911 21.4214
-0.410773 -0.395373 21.6846
0.452726 -0.653047 21.6926
0.883285 -0.81757 21.3532
0.758157 -0.606814 20.9699
-0.568754 0.338508 19.8848
-1.03563 0.600455 20.3215
-0.995473 0.384296 21.0999
-0.485167 0.050881 21.4802
-0.0299753 -0.247991 21.4905
0.246737 -0.453842 21.4238
0.349209 -0.737539 20.5926
-0.670308 -0.765082 19.3018
-1.80496 -3.35974 20.9968
-0.352105 -0.184486 21.5498
0.198914 0.0373048 21.3154
0.71267 1.35287 19.7475
1.20574 1.66862 18.6762
1.20044 1.26821 18.6243
-0.811233 -0.601922 18.9548
1.98002 1.48771 10.3564
2.27617 1.26993 13.7937
-1.05528 0.0420188 18.5788
-0.139384 -0.758449 5.36711
1.36883 -1.52546 11.0231
-0.540611 0.698461 19.4091
-1.20722 1.77912 19.9634
-1.55203 1.6442 21.0473
-0.669497 0.506303 21.9283
-0.135441 -0.264145 21.5906
0.00726657 -0.609956 21.4346
0.0532076 -0.492413 21.9027
0.670872 -0.742942 19.3237
1.83466 -3.31656 20.9945
0.337162 -0.182053 21.5968
-0.230905 0.0516619 21.1985
-0.681383 1.26509 19.3654
-1.23263 1.55145 18.5183
-1.23573 1.17866 18.5737
0.813372 -0.601559 18.9521
-2.00346 1.14764 10.3584
-2.22932 1.10302 13.8999
1.05405 0.0432536 18.5801
0.589682 -0.715566 4.07243
-1.1698 -1.21414 10.3177
0.542024 0.689657 19.419
1.21816 1.7424 19.9681
1.54228 1.65858 21.0387
0.645699 0.557935 21.9363
0.111305 -0.182419 21.5753
-0.0565073 -0.491711 21.4175
-0.06987 -0.452779 22.21
0.63629 -0.307557 19.8739
1.23742 -0.723492 20.6128
0.357748 -0.381022 21.3738
-0.0953105 -0.181694 21.5496
-0.754976 0.128422 21.5499
-1.05135 0.196782 21.2966
-1.06535 0.071011 20.7334
0.751572 -0.247505 19.775
1.69286 -0.616273 20.5651
0.491213 -0.483334 21.4397
0.00683293 -0.342464 21.5818
-0.917909 -0.171231 21.6439
-1.22269 -0.135681 21.3121
-1.18137 -0.049132 21.0877
0.828206 -0.00376747 19.676
1.94875 0.00678666 20.4512
1.04328 -0.412419 21.4179
0.413073 -0.39408 21.6667
-0.370727 -0.632848 21.6411
-0.759814 -0.754723 21.4007
-0.633784 -0.522911 21.0781
0.558306 0.334984 19.8923
1.02337 0.587826 20.325
0.994488 0.388941 21.0923
0.495027 0.0601144 21.4773
0.0565523 -0.222877 21.4775
-0.213148 -0.421171 21.487
-0.251974 -0.75438 20.5096
-3.2272 -0.717121 2.56996
-0.0543542 -0.160409 1.16131
-0.0263897 0.0203739 0.717048
-0.0402996 -0.0492507 -0.00419684
-5.93603e-06 2.21406e-05 8.92823e-05
-0.021585 0.0211918 0.675409
-0.00111142 2.19126 1.97914
-0.0629354 -0.0653855 0.25188
-0.0120442 0.00689432 -0.0114349
0 0 0
5.90958 -0.989935 4.69547
0.0245711 0.0197536 0.714583
0.0428394 -0.0687556 0.0026283
0.00952528 0.018806 0.649943
0.0633501 -0.0656489 0.253146
0 0 0
0.0613246 -0.00542251 1.66386
0 0 0
0 0 0
0 0 0
0 0 0
0 0 0
-0.000133333 0.0527223 0.10843
-0.000180496 -0.000220445 0.0278961
-0.0663312 -0.00773245 1.64992
0 0 0
0 0 0
0 0 0
0.00554397 -0.00532858 0.174891
0 0 0
0.00897834 0.00706705 0.207558
0 0 0
0 0 0
0 0 0
-0.000158758 -0.0991673 0.0269496
0 0 0
-4.94916e-05 0.000155041 0.0012863
-0.000125753 0.018566 0.121868
-4.74698e-06 -1.34756e-05 0.000225288
-0.00557003 -0.00496154 0.175744
0 0 0
-0.00847376 0.00595262 0.199476
-3.34755 -1.82457 20.5843
-2.62457 -5.26113 21.3249
-2.15232 -1.97311 17.8347
1.65488 0.381365 17.8182
0.586389 1.50805 12.3887
1.32105 0.913437 6.87228
-4.14517 0.381327 20.3123
-3.08284 0.550403 16.6526
-2.89572 3.24032 19.6422
0.685135 -0.699295 18.5071
-0.554636 -0.959909 3.50027
0.144598 -0.41884 17.5666
2.70878 -5.24224 21.3006
2.15578 -1.97226 17.8256
3.35666 -1.83422 20.5946
-0.553551 1.33422 11.7064
-1.35025 0.491659 6.61112
-1.57989 0.265324 17.8204
3.08147 0.555387 16.658
2.90069 3.17172 19.6529
4.14971 0.381089 20.31
0.729762 -0.921753 2.51558
-0.195415 -0.221288 16.5638
-0.547088 -0.696259 18.3774
-0.166042 -0.683778 21.5274
-0.0777597 0.144821 17.2073
0.0661106 -0.4288 20.6833
0.707937 -0.0948519 16.8936
-1.52907 -1.06863 21.6576
-3.95431 1.54016 21.0704
-0.597618 -0.689962 20.6214
-0.952745 0.29298 19.3246
0.0569836 0.143466 17.2966
0.157572 -0.685449 21.5161
-0.774367 -0.0791149 16.7616
-0.0802163 -0.45459 20.6838
3.96122 1.55668 21.0532
1.52994 -1.07725 21.6368
0.871483 0.374363 18.7748
0.60112 -0.685491 20.5969
-1.01371 -0.550273 20.0628
-0.704867 -0.288235 19.8328
-0.691256 -0.510209 19.6355
-0.805981 -0.557039 21.2688
-1.45177 -0.695585 20.5847
-1.76973 -1.62405 20.7325
-0.10672 -0.251694 21.4883
-0.435925 -0.441518 21.4133
-0.223092 -0.388379 21.6222
0.390913 -0.0201789 21.6787
0.044893 -0.26346 21.569
0.171875 -0.172527 21.6761
0.929008 0.23875 21.4836
0.892703 0.0349238 21.6332
1.04722 0.657641 21.4784
1.08088 0.197438 21.1119
1.22495 0.0906521 21.3688
1.48792 0.8402 20.9743
1.18141 -0.000275832 20.9003
1.22511 0.580619 21.3048
-1.28101 -0.436484 19.9331
-0.808771 -0.127669 19.7028
-0.861043 -0.433905 19.4336
-1.06766 -0.588809 21.3672
-1.8963 -0.324035 20.5072
-0.207813 -0.402889 21.4986
-0.755455 -0.512974 21.4366
0.394926 -0.229702 21.8453
-0.187866 -0.42825 21.6713
1.20901 -0.0859155 21.4577
0.823008 -0.495562 21.6664
1.48626 -0.182793 21.0185
1.24032 -0.505445 21.3416
2.02842 0.307987 18.857
1.13291 -0.457077 20.8098
1.75042 0.0568373 19.5965
-1.44172 0.0262343 19.8076
-0.758177 0.23286 19.7493
-1.01921 0.0241019 19.2266
-1.54032 -0.23262 21.2391
-1.53484 0.490191 20.3337
-0.711093 -0.431488 21.5726
-1.24761 0.0561649 21.2566
-0.0186302 -0.471769 21.8314
-0.55575 -0.15529 21.6314
0.668058 -0.713718 21.5401
0.0758455 -0.454411 21.5641
1.07567 -0.789932 20.9115
0.428108 -0.585028 21.2707
1.13379 -0.838198 19.2325
0.369148 -0.756141 20.8938
1.75267 -1.29369 18.823
-0.80614 0.484002 20.0242
-0.597341 0.510774 19.6555
-1.07484 0.532339 20.757
-1.24897 1.10731 20.1653
-0.784196 0.219363 21.3741
-1.3414 0.807614 21.1255
-0.256621 -0.110346 21.5597
-0.626069 0.211483 21.6982
0.0905239 -0.406167 21.3441
-0.111654 -0.283436 21.521
0.191253 -0.348489 21.2695
0.142019 -0.494393 21.1418
-0.00552701 -0.370737 21.8267
-1.3342 -1.88146 19.1324
-0.740519 -0.691327 19.1246
0.00219015 -1.03776 18.9118
-0.83026 -0.98013 22.3489
-0.000342979 -4.49868 21.3717
-0.101478 -0.0354265 21.4095
-0.00573039 -0.589199 20.9477
0.483878 0.553472 20.6969
-0.00152966 0.0261306 20.0906
0.946412 1.57344 19.5302
-0.0604253 0.832872 17.255
1.2325 1.68608 19.3391
1.68942 1.84385 15.6939
-0.0727608 1.33711 16.2873
1.70194 1.44356 16.3755
-0.128592 2.24875 16.4738
-0.97814 -0.346655 18.6561
-0.00251319 -0.896721 18.3969
2.30414 1.24871 12.0098
1.46085 -0.230524 6.15259
-0.105671 0.801084 4.17957
2.3976 0.440476 12.542
-0.0486381 2.36817 9.10502
-0.819175 0.581526 18.9444
0.00026498 0.0765301 17.7321
0.685582 -1.0459 8.35542
0.259124 -1.05519 19.842
0.416792 2.07189 -6.16568
0.179741 -1.39251 19.2272
0.816261 1.68966 -5.59716
-0.895964 1.30019 19.4599
0.00829481 0.959631 19.1205
-1.35143 1.69089 20.541
0.0175237 2.58692 19.7134
-1.2926 1.19568 21.8031
-0.0119845 3.1935 20.7245
-0.316136 0.033358 21.8389
-0.0442817 1.02244 22.2556
-0.0732918 -0.410867 21.4996
-0.0598042 -0.0622086 21.7686
0.0954292 -0.720701 21.3923
-0.0568926 -0.374687 21.5048
-0.117693 -0.481269 22.1917
1.34298 -1.84698 19.1509
0.743353 -0.684275 19.1314
0.693786 -0.507878 19.6395
0.820203 -0.954052 22.3282
1.76578 -1.604 20.731
0.089098 -0.0325747 21.391
0.222795 -0.394147 21.6108
-0.51868 0.544304 20.5411
-0.19485 -0.177054 21.6673
-0.948885 1.46484 19.3685
-1.04319 0.648676 21.3674
-1.33289 1.62705 19.295
-1.76061 1.65581 15.4657
-1.47982 0.780779 20.9714
-1.71954 1.33603 16.1756
-1.24231 0.457105 21.3583
0.975404 -0.344784 18.653
0.864427 -0.438524 19.4275
-2.22677 1.01941 12.0552
-1.31455 -0.526049 5.7835
-1.90441 0.140286 19.0287
-2.34989 0.325357 12.8456
-1.73967 -0.0408767 19.7463
0.818993 0.578039 18.9536
1.01808 0.023019 19.2294
-0.324663 -0.869268 7.54677
-0.212922 -0.783852 19.4577
-0.913352 -0.831495 19.2152
-0.177081 -1.29267 18.8345
-1.60165 -1.36489 18.9165
0.897736 1.27468 19.474
0.592261 0.502219 19.6651
1.34967 1.67502 20.5412
1.23758 1.07497 20.1735
1.28046 1.2508 21.8023
1.33793 0.81671 21.1188
0.290752 0.0807636 21.8338
0.624092 0.244924 21.6997
0.0496048 -0.308356 21.4873
0.113644 -0.224194 21.4988
-0.127479 -0.640411 21.3689
-0.148787 -0.424946 21.0744
0.0223165 -0.377531 22.0793
0.99688 -0.540324 20.0693
0.704923 -0.28623 19.8194
0.808911 -0.561537 21.2595
1.44734 -0.703597 20.5952
0.111437 -0.26637 21.4764
0.431045 -0.453502 21.3981
-0.390894 -0.0443709 21.6681
-0.0490496 -0.281195 21.5348
-0.899519 0.190406 21.4981
-0.853666 -0.00895389 21.6175
-1.07 0.156558 21.1225
-1.16763 0.0540837 21.373
-1.19608 -0.0179313 20.8987
1.28338 -0.436889 19.9366
0.805254 -0.128062 19.7039
1.06421 -0.596447 21.3652
1.89924 -0.328555 20.5175
0.201199 -0.409631 21.4877
0.74849 -0.519077 21.4384
-0.375048 -0.254387 21.8057
0.190885 -0.435672 21.6511
-1.11758 -0.152634 21.4559
-0.732201 -0.511743 21.6304
-1.38645 -0.255985 21.1765
-1.12036 -0.503404 21.3808
-1.02146 -0.400707 20.9649
1.44338 0.0237103 19.8151
0.756287 0.226721 19.759
1.53826 -0.236898 21.2399
1.52483 0.482974 20.3369
0.709606 -0.433264 21.5601
1.25008 0.0559426 21.2501
0.047897 -0.463932 21.7809
0.563095 -0.154873 21.6216
-0.560987 -0.691804 21.5012
-0.0247543 -0.424786 21.5505
-0.954084 -0.77873 21.0386
-0.363877 -0.547389 21.3284
-0.461683 -0.736482 20.886
0.799785 0.478075 20.0292
1.06651 0.530513 20.7529
0.795392 0.229485 21.3679
0.259124 -0.0943431 21.5229
-0.059878 -0.340904 21.2989
-0.159858 -0.303224 21.2295
-1.15138 -0.511688 19.9995
-1.72981 -2.02963 18.5592
-1.28948 -1.0687 19.7341
-1.8848 -0.981749 19.2882
-0.789775 -0.478536 19.5145
-2.44982 -1.81538 20.666
-0.945462 -0.590365 21.3056
-0.697879 -0.362342 19.1087
-0.820215 -0.879977 21.6957
-1.1262 -1.15074 22.1943
-0.152618 -0.489132 21.6596
-0.158429 -0.346412 21.4854
0.218557 0.0986388 16.8398
0.00563037 -0.23457 21.586
0.0895326 -0.468453 20.9925
0.181258 -0.314185 21.4486
0.383223 -0.130426 21.741
0.647373 0.434696 15.3456
0.549933 0.166811 21.861
0.641062 -0.0431011 20.0681
1.41402 0.617803 20.6878
1.12791 0.113141 21.4429
1.05016 1.6345 13.8973
1.30097 0.79584 21.0703
1.87245 0.342832 18.7476
1.68415 0.680465 20.2388
1.34274 0.0291985 20.9954
1.79335 1.49224 15.4283
1.58504 0.918659 20.943
2.20411 0.293582 19.1163
1.42606 0.453588 20.1953
-1.43366 -0.22761 19.8388
-2.88776 -1.00099 16.8159
-2.36073 0.187538 18.9395
-0.97492 -0.221725 19.2781
-4.31764 -0.815836 20.3963
-1.35467 -0.442626 21.3302
-2.29012 -0.553434 21.9056
-0.531887 -1.03114 21.1248
-0.412334 -0.5018 21.5357
-1.00738 -1.09654 21.2306
-0.130695 -0.479922 19.6029
0.229777 -0.414169 21.8764
0.0753877 -0.436072 19.6607
1.32282 -0.328608 16.7881
1.08307 -0.522411 21.4824
0.215383 -0.809992 2.95146
0.758544 -0.870207 19.0158
1.77466 -0.429011 18.5632
1.25825 -0.569848 21.352
2.2432 0.267311 9.11104
1.25921 -1.17803 19.4347
1.93243 -0.775053 18.9174
-1.18637 0.397616 19.8794
-1.80698 1.66497 18.4414
-0.958964 0.84919 19.7685
-0.865637 0.390902 19.3912
-2.31694 1.24632 20.1201
-1.4727 0.290909 20.9252
-2.86728 1.96943 20.818
-1.34303 1.01132 20.6974
-2.07444 0.270797 21.3856
-0.92536 -0.079753 21.5216
-2.87641 0.232413 21.3495
-1.04934 0.535522 21.5505
-0.884772 -0.0923837 21.9471
-0.229704 -0.294764 21.6839
-0.0773523 0.0749285 18.2485
-0.305762 -0.0713118 21.6937
-0.0487201 -0.594324 21.7789
0.263247 -0.553926 21.4814
0.0817459 -0.652938 18.7947
0.0136162 -0.411425 21.4371
0.298889 -0.82931 21.8233
0.516219 -0.503634 21.2518
0.408254 -1.2532 18.7322
0.221667 -0.66173 21.5389
0.27621 -0.86967 21.7711
1.73662 -2.01263 18.5674
0.00694789 -2.93 18.4999
-0.00545002 -3.63147 16.0719
-0.00172372 -1.00285 18.6468
-0.0283039 -6.03749 22.4663
0.666482 -0.354803 19.111
0.000148776 -1.61277 22.5958
-0.0034913 -0.166427 13.3111
-0.246786 0.0936949 16.7876
-0.00977312 -0.339758 20.4185
0.0055442 0.13169 12.6942
-0.753129 0.422889 15.0118
-0.00962232 0.459278 18.4639
-0.137847 0.637354 9.47221
-1.07822 1.40574 13.3929
-0.088815 1.13624 16.866
-0.292335 -0.0538176 2.50554
-0.134981 1.40441 10.3014
-1.81827 1.34659 15.2236
-0.108756 2.19061 16.9618
-0.00611203 1.1152 4.66895
-0.100813 2.25961 13.6392
2.86902 -0.981699 16.8478
-0.00188814 1.45412 13.5163
0.00022911 -0.486832 17.9134
-0.103292 -1.21393 2.67113
0.0495545 0.756359 -4.10154
0.281013 0.560426 -2.00763
-2.03723 -0.069874 8.73177
0.884535 2.59344 -6.93529
0.392031 2.27923 -0.326769
1.81025 1.63688 18.4623
0.012349 1.84286 19.1034
0.00487763 0.868082 18.3518
0.0158939 5.1421 19.2862
2.86252 1.94804 20.8186
0.00633062 2.63593 20.2323
-0.0157729 5.70655 18.6853
2.87146 0.225157 21.0012
-0.0400571 2.55111 22.1628
-0.0228165 0.389847 11.6325
-0.0544616 0.194035 17.2341
-0.0471232 0.258981 21.9836
-0.305565 -0.0838118 7.26107
-0.0825763 -0.392604 18.0913
-0.063259 -0.183653 21.6526
-0.514124 -0.272439 10.7557
-0.422703 -1.02792 18.2447
-0.048019 -0.576488 21.8178
-0.312847 -0.744198 11.2435
1.14597 -0.508286 20.0119
1.29086 -1.06555 19.7402
1.8896 -0.988191 19.2814
0.794478 -0.482793 19.5097
2.44094 -1.8026 20.6698
0.941468 -0.601397 21.2986
0.818508 -0.877861 21.68
1.11333 -1.14724 22.1831
0.152665 -0.491642 21.6364
0.155828 -0.360283 21.4723
-0.0163282 -0.238961 21.5767
-0.0978706 -0.480093 20.9922
-0.20028 -0.327947 21.3925
-0.374618 -0.158947 21.7137
-0.563253 0.159129 21.8207
-0.626903 -0.100598 20.0838
-1.38325 0.564686 20.3773
-1.07171 0.0490521 21.4485
-1.27978 0.723305 21.0215
-1.73995 0.180548 18.8426
-1.63446 0.569879 20.3166
-1.2862 -0.0286215 21.0823
-1.59769 0.847425 20.9414
-2.1788 0.217293 19.0634
-1.41735 0.346954 20.3909
1.43882 -0.230959 19.841
2.35896 0.18752 18.9409
0.974075 -0.222537 19.2798
4.291 -0.821258 20.3863
1.35191 -0.446302 21.3358
2.28938 -0.558692 21.9026
0.527508 -1.04157 21.1086
0.407257 -0.508594 21.5327
1.00671 -1.09164 21.1971
0.131259 -0.502563 19.619
-0.201425 -0.422028 21.8417
-0.0396272 -0.439308 19.6475
-1.19965 -0.405046 16.7015
-0.956373 -0.542315 21.479
-0.548931 -0.826759 18.9294
-1.57492 -0.504989 18.6878
-1.17757 -0.591948 21.4294
-1.13824 -1.1444 19.2167
-1.86148 -0.905677 19.0784
1.18018 0.391946 19.888
0.955394 0.830698 19.7823
0.862386 0.387304 19.3986
2.29964 1.22435 20.1217
1.46826 0.290661 20.9217
1.3352 1.00173 20.6953
2.07892 0.273389 21.3755
0.931567 -0.0818046 21.5133
1.0601 0.566871 21.5511
0.895234 -0.0751863 21.9377
0.246804 -0.274588 21.6449
0.306437 -0.0338321 21.6811
0.115309 -0.517158 21.7241
-0.206549 -0.50909 21.4458
-0.0115788 -0.343702 21.4167
-0.197215 -0.698919 21.8669
-0.45915 -0.541549 21.4087
-0.200758 -0.616045 21.6203
-0.177789 -0.843325 22.0467
-1.57465 -1.07395 19.4921
-0.905861 -0.973312 21.9045
0.0879595 -0.326968 21.501
0.680443 0.0831436 21.3422
1.66423 0.693801 20.3389
1.92777 0.678471 20.2166
-2.31378 -0.463966 18.9761
-1.74199 -0.96213 22.3704
-0.119064 -0.828328 20.1408
0.452314 -0.170067 18.9777
1.53591 -0.499965 17.4925
1.92982 -0.365045 18.7302
-1.60565 0.856127 19.3472
-2.19451 0.732275 21.0093
-1.54937 0.037186 21.8335
-0.385574 -0.311061 21.9576
0.110397 -0.72012 21.6181
0.578288 -1.12399 21.2104
-0.000391394 -3.40531 17.5101
0.00140945 -0.753422 16.8225
-0.00725991 -0.0954534 12.3959
0.00741734 0.440762 10.6406
-0.181819 0.711072 9.17749
-0.0527013 1.68552 10.8137
-0.000521141 -1.81227 13.7849
-0.00213947 -0.100321 -0.50064
0.332077 1.43556 -1.34609
0.0159246 2.94152 17.2666
0.00278971 3.80199 20.0538
-0.0258785 2.30489 13.535
-0.0574651 -0.181752 10.845
-0.434249 0.0833703 8.66029
-0.331454 -0.737165 10.9394
1.57593 -1.07146 19.4916
0.905902 -0.970389 21.8866
-0.0956973 -0.332146 21.4682
-0.684092 0.0432867 21.1759
-1.59813 0.574786 20.2282
-1.934 0.609021 20.2252
2.31048 -0.464862 18.9792
1.73209 -0.978414 22.3608
0.11923 -0.838671 20.1368
-0.422461 -0.208173 18.9817
-1.33494 -0.595907 17.6003
-1.83807 -0.413634 19.0205
1.59532 0.843389 19.3597
2.18415 0.728457 21.0018
1.56671 0.0410376 21.8288
0.403709 -0.278124 21.9238
-0.0164174 -0.607513 21.5921
-0.524336 -1.00882 21.2153
-1.73627 -0.58674 1.89411
-0.0848744 -0.300634 0.696749
-0.070744 0.014546 0.876441
0.0579461 -0.0333661 0.118296
0 0 0
-0.01996 0.0997458 0.528885
-1.18231 0.258043 1.12998
-0.985056 3.10035 1.93687
-0.295177 0.0090042 0.919649
-0.00941254 -0.0317369 0.00988146
-0.0101531 -0.00141767 -0.000822772
0 0 0
0 0 0
1.27023 -0.405252 1.59437
0.0664234 0.0141305 0.867939
0 0 0
-0.0542016 -0.0546729 0.108242
-0.0047893 0.0918527 0.673602
0.986007 3.09418 1.93485
1.16555 0.265822 1.1146
0.295772 0.00908433 0.923823
0.00830223 0.0015756 -0.00338166
0.0133943 -0.0383123 0.00722877
0 0 0
-0.0110437 0.0702414 1.12785
0.0398093 0.00406103 1.61992
0 0 0
0 0 0
0.00765785 0.00291696 0.238202
0.103942 -0.0609044 2.14092
0 0 0
0 0 0
-0.034497 -0.069674 0.250154
0.00125089 0.00250847 0.0457831
0.0235605 0.0545997 0.265704
-0.0696281 0.038483 0.119629
0 0 0
-0.00119884 0.0428046 0.122406
0 0 0
0.0907004 0.07132 0.666839
0.00880674 0.0693995 1.1257
0 0 0
-0.0441832 0.00156003 1.62864
0 0 0
-0.0130855 0.00483064 0.264227
0 0 0
-0.111057 -0.0685137 2.10338
0 0 0
0.0342654 -0.0693965 0.249273
0.0699811 0.0387682 0.120499
-0.00123279 0.00241963 0.0453855
-0.0223601 0.0515961 0.253537
0 0 0
-0.0950025 0.0744352 0.663202
0.00112668 0.0424114 0.120875
0 0 0
0 0 0
0 0 0
0 0 0
0.00999748 -5.49663 2.46508
0 0 0
0 0 0
0.00331288 -0.00309653 0.030844
0 0 0
0 0 0
4.03208e-07 1.24408e-06 -3.18213e-08
0.00288669 0.00462801 0.120207
0 0 0
-0.00350795 1.3808 0.608407
-7.77851e-05 0.00114581 0.00550861
0.00189467 -0.00764177 0.0612226
-0.0106644 0.00429199 0.0333342
-0.000957868 -0.00219974 9.85947e-05
-0.00324223 -0.00367526 0.0248041
0.00614805 -0.000255507 0.0816013
0 0 0
0 0 0
0 0 0
0 0 0
0 0 0
0 0 0
-0.00314994 -0.00375963 0.0293009
0 0 0
-0.00280114 0.00429783 0.118634
0.0105351 0.00424798 0.032973
-0.00188756 -0.00758672 0.0610417
0 0 0
-0.00593892 -0.000483572 0.0801807
0 0 0
0 0 0
0.00759201 -0.00338788 0.077994
0 0 0
0 0 0
0 0 0
-2.6897e-05 0.000470366 0.00271243
-0.00397201 0.00627467 0.0918456
0 0 0
0 0 0
0.000596502 0.0034924 0.0139487
-0.189953 0.124313 1.40723
0 0 0
-8.85054e-05 0.0581761 0.1635
-8.987e-05 0.00037186 0.0297354
-3.17955e-06 -3.85107e-06 0.000285205
0 0 0
0 0 0
-0.00771935 -0.003355 0.0793408
0 0 0
2.89326e-05 0.000501525 0.00292892
0.00395232 0.00598948 0.091144
0.185627 0.124853 1.39553
-0.000614003 0.00359227 0.0144071
0 0 0
-0.0130193 -0.0138311 0.192924
0 0 0
0.00467116 -0.00946314 0.0633655
0 0 0
0.00219008 0.0121887 0.0599209
0 0 0
-0.000178992 0.00614921 0.0212065
-0.00248364 0.00140126 0.0487101
0 0 0
0 0 0
0.00296695 -0.0066285 0.0875027
9.23877e-06 7.50496e-06 0.000318467
0 0 0
0 0 0
0 0 0
0 0 0
0 0 0
0 0 0
0 0 0
0 0 0
0 0 0
-0.0426371 0.0219804 0.151948
0 0 0
-0.687861 -4.09632 0.998941
0.681792 -3.88164 0.952288
-0.61464 0.800549 0.634481
0.557764 0.743509 0.563787
-0.00118838 -0.00598318 -2.2205e-06
-0.00218322 -0.00817296 0.000670393
-0.00528498 -0.00410356 0.000431567
0.00347054 -0.00634886 0.000519364
-0.0035074 0.00370299 0.0187458
0.00333755 0.00354882 0.0179503
0 0 0
0 0 0
-0.106053 0.0747032 0.272999
0.102095 0.0723182 0.263976
0.0671688 0.085044 0.936748
-0.0706603 0.0871937 0.928735
0 0 0
0 0 0
-0.0083558 -0.0133896 0.0970897
0.00182626 -0.0115391 0.0898508
0 0 0
0.0113056 -0.0120039 0.170812
0 0 0
-0.00456688 -0.00926398 0.0620506
0 0 0