# vtk DataFile Version 2.0
tet_velo
ASCII
DATASET UNSTRUCTURED_GRID
POINTS 29498 float
-0.775 0.205 -2.11251
-0.825 0.315 2.14454
-0.723494 0.765 -2.085
-0.785 0.989747 2.215
0.768554 0.205 -2.115
0.815 0.325 2.16075
0.715 0.765 -2.09054
0.785 0.989825 2.215
-0.790908 0.242426 -0.693493
-0.804028 0.282638 0.725524
-0.815767 0.911686 -0.651667
-0.805225 0.955559 0.781667
0.788329 0.240707 -0.68975
0.808719 0.275799 0.7355
0.811301 0.912909 -0.65536
0.801688 0.954904 0.77982
-1.57579 -0.174326 -3.2748
-1.5697 -0.113271 -2.13253
-1.58337 -0.0738331 -0.713621
-1.59693 -0.0445012 0.701925
-1.6113 -0.011207 2.12057
-1.61624 0.0219705 3.2615
-1.61683 0.060069 4.40506
-1.57003 0.131904 -3.25718
-1.56453 0.204676 -2.11325
-1.58909 0.254883 -0.6923
-1.60042 0.287452 0.726651
-1.61251 0.319691 2.14729
-1.61806 0.353099 3.28832
-1.61884 0.391505 4.43156
-1.54988 0.730452 -3.22519
-1.53688 0.802464 -2.08089
-1.59976 0.913224 -0.650203
-1.60142 0.958524 0.780646
-1.59127 0.992544 2.21061
-1.60628 1.02404 3.34847
-1.61511 1.06065 4.48795
-1.54881 1.69946 -3.16973
-1.54823 1.77699 -2.02429
-1.57514 1.88294 -0.588517
-1.59524 1.95694 0.849302
-1.59956 2.00391 2.28389
-1.6035 2.03699 3.42688
-1.60871 2.0714 4.5674
-0.796501 -0.175288 -3.27456
-0.780388 -0.113039 -2.13128
-0.786935 -0.0805258 -0.712764
-0.796362 -0.0494122 0.702795
-0.811663 -0.013658 2.12111
-0.817203 0.0196789 3.2626
-0.817893 0.0578961 4.40661
-0.796754 0.127077 -3.25793
-0.822437 0.350618 3.28897
-0.821172 0.389313 4.43306
-0.778683 0.71339 -3.22796
-0.811391 1.02154 3.35014
-0.818999 1.05853 4.48969
-0.76467 1.68901 -3.17204
-0.75709 1.76785 -2.02663
-0.778904 1.88093 -0.589813
-0.799035 1.9572 0.849722
-0.803709 2.00331 2.2856
-0.807553 2.03591 3.42883
-0.81243 2.07019 4.56929
0.755024 -0.175592 -3.27612
0.777979 -0.113497 -2.13212
0.79587 -0.0824574 -0.709386
0.811832 -0.0534365 0.711259
0.813123 -0.0095186 2.1334
0.797154 0.0228356 3.27205
0.788151 0.0593399 4.41361
0.740128 0.126942 -3.26034
0.790481 0.354601 3.29827
0.783301 0.390919 4.43972
0.729097 0.713369 -3.23156
0.781065 1.02284 3.3543
0.778632 1.05935 4.49441
0.788402 1.68888 -3.17426
0.805092 1.7678 -2.0289
0.80946 1.88074 -0.591283
0.797759 1.95657 0.8495
0.789779 2.00264 2.28662
0.785547 2.03545 3.43084
0.782016 2.06988 4.57202
1.53828 -0.175058 -3.27733
1.56138 -0.11431 -2.13371
1.58887 -0.0770825 -0.708748
1.61007 -0.0499499 0.714704
1.61461 -0.00871343 2.13867
1.60257 0.0254769 3.27749
1.59221 0.0620187 4.418
1.52394 0.131509 -3.26119
1.55118 0.204335 -2.11668
1.58657 0.252415 -0.689156
1.60681 0.281049 0.738272
1.61052 0.323384 2.16513
1.59698 0.357313 3.30364
1.58753 0.393666 4.44388
1.51167 0.730353 -3.23102
1.52712 0.802762 -2.08771
1.5964 0.913242 -0.653365
1.60089 0.955517 0.782596
1.5904 0.991727 2.21663
1.58445 1.02537 3.35713
1.58064 1.06168 4.49709
1.56738 1.69911 -3.17363
1.58541 1.77671 -2.02811
1.60041 1.88232 -0.590762
1.59636 1.95555 0.849484
1.5887 2.00248 2.28644
1.58415 2.03596 3.43114
1.58079 2.07066 4.5729
-0.78603 0.485 -2.13554
-0.003223 0.201241 -2.11751
-0.792214 0.214453 -1.403
-0.842464 0.652373 2.21723
-0.005 0.318755 2.15389
-0.832289 0.281044 1.43503
-0.00424701 0.815499 -2.13827
-0.79729 0.866002 -1.36833
0 0.98993 2.21514
-0.795868 0.973408 1.49833
0.778756 0.485 -2.13975
0.790301 0.210994 -1.40238
0.835063 0.657412 2.22294
0.831814 0.280445 1.44812
0.790956 0.86676 -1.37295
0.793127 0.972148 1.49741
-0.795627 0.264373 0.0160151
-0.854922 0.577056 -0.67258
-0.00128943 0.211647 -0.691622
-0.853636 0.619098 0.753595
0.00234511 0.226806 0.730512
-0.81423 0.937357 0.0649999
-0.00223277 1.20634 -0.653513
-0.00176883 1.5053 0.780743
0.797989 0.258788 0.022875
0.851243 0.576808 -0.672555
0.84935 0.615352 0.75766
0.810146 0.937559 0.06223
-0.860668 0.531028 -1.38567
-0.852381 0.598077 0.0405075
-0.873193 0.635736 1.46668
-0.00225622 0.205354 -1.40269
0.000527838 0.219526 0.019445
-0.00132744 0.228404 1.44158
-0.00373501 0.485 -2.28885
-0.0025 0.654893 2.2343
-0.00323989 0.937801 -1.37064
-0.0020008 1.50448 0.063615
-0.000884417 1.47954 1.49787
0.866089 0.530904 -1.38766
0.848218 0.59608 0.0425525
0.891671 0.636382 1.47277
-1.16976 0.204838 -2.11288
-0.777694 0.0459806 -2.12189
-0.785877 0.166039 -2.68522
-1.21876 0.317346 2.14591
-0.818331 0.150671 2.13283
-0.823718 0.332809 2.71676
-1.13019 0.783732 -2.08294
-0.751089 0.739195 -2.65648
-0.740292 1.26642 -2.05582
-1.18813 0.991145 2.21281
-0.798195 1.00564 2.78257
-0.794355 1.49653 2.2503
0.773266 0.0457515 -2.12356
0.754341 0.165971 -2.68767
1.15987 0.204668 -2.11584
0.814061 0.157741 2.14707
0.802741 0.339801 2.72951
1.21276 0.324192 2.16294
0.722048 0.739184 -2.66105
0.760046 1.2664 -2.05972
1.12106 0.783881 -2.08912
0.783032 1.00633 2.78465
0.78739 1.49623 2.25081
1.1877 0.990776 2.21581
-1.19 0.248654 -0.692897
-0.788921 0.0809499 -0.703129
-1.20222 0.285045 0.726087
-0.800195 0.116613 0.714159
-1.20776 0.912455 -0.650935
-0.797335 1.39631 -0.62074
-1.20332 0.957041 0.781156
-0.80213 1.45638 0.815694
0.792099 0.0791248 -0.699568
1.18745 0.246561 -0.689453
0.810275 0.111181 0.72338
1.20776 0.278424 0.736886
0.81038 1.39682 -0.623322
1.20385 0.913076 -0.654363
0.799723 1.45574 0.81466
1.20129 0.95521 0.781208
-1.57275 -0.143798 -2.70366
-1.57291 -0.021211 -3.26599
-1.18614 -0.174807 -3.27468
-1.57654 -0.0935519 -1.42308
-1.56712 0.0457029 -2.12289
-1.17505 -0.113155 -2.1319
-1.59015 -0.0591671 -0.00584832
-1.58623 0.0905251 -0.702961
-1.18515 -0.0771794 -0.713193
-1.60412 -0.0278541 1.41125
-1.59867 0.121475 0.714288
-1.19665 -0.0469567 0.70236
-1.61377 0.00538174 2.69103
-1.61191 0.154242 2.13393
-1.21148 -0.0124325 2.12084
-1.61653 0.0410198 3.83328
-1.61715 0.187535 3.27491
-1.21672 0.0208247 3.26205
-1.61784 0.225787 4.41831
-1.21736 0.0589826 4.40584
-1.56728 0.16829 -2.68521
-1.55995 0.431178 -3.24118
-1.18339 0.12949 -3.25755
-1.57681 0.22978 -1.40277
-1.5507 0.50357 -2.09707
-1.59476 0.271167 0.0171754
-1.59442 0.584054 -0.671252
-1.60647 0.303571 1.43697
-1.60092 0.622988 0.753648
-1.61529 0.336395 2.7178
-1.60189 0.656117 2.17895
-1.61845 0.372302 3.85994
-1.61217 0.68857 3.3184
-1.22025 0.351858 3.28864
-1.61698 0.726078 4.45975
-1.22001 0.390409 4.43231
-1.54338 0.766458 -2.65304
-1.54934 1.21496 -3.19746
-1.16428 0.721921 -3.22658
-1.56832 0.857844 -1.36554
-1.54255 1.28972 -2.05259
-1.60059 0.935874 0.0652214
-1.58745 1.39808 -0.61936
-1.59635 0.975534 1.49563
-1.59833 1.45773 0.814974
-1.59877 1.00829 2.77954
-1.59542 1.49823 2.24725
-1.61069 1.04235 3.91821
-1.60489 1.53051 3.38767
-1.20883 1.02279 3.34931
-1.61191 1.56602 4.52767
-1.21705 1.05959 4.48882
-1.54852 1.73822 -2.59701
-1.15674 1.69423 -3.17089
-1.56168 1.82996 -1.3064
-1.15266 1.77242 -2.02546
-1.58519 1.91994 0.130392
-1.17702 1.88194 -0.589165
-1.5974 1.98042 1.5666
-1.19714 1.95707 0.849512
-1.60153 2.02045 2.85538
-1.20164 2.00361 2.28475
-1.60611 2.05419 3.99714
-1.20553 2.03645 3.42785
-1.21057 2.07079 4.56834
-0.788445 -0.144164 -2.70292
-0.796627 -0.0241055 -3.26624
-0.0207386 -0.17544 -3.27534
-0.783662 -0.0967823 -1.42202
-0.00120466 -0.113268 -2.1317
-0.791648 -0.064969 -0.00498439
0.00446721 -0.0814916 -0.711075
-0.804012 -0.0315351 1.41195
0.00773495 -0.0514243 0.707027
-0.814433 0.00301041 2.69186
0.000730036 -0.0115883 2.12726
-0.817548 0.0387875 3.83461
-0.81982 0.185148 3.27579
-0.0100248 0.0212572 3.26733
-0.819533 0.223604 4.41984
-0.0148715 0.058618 4.41011
-0.787719 0.420234 -3.24294
-0.0283131 0.127009 -3.25913
-0.821804 0.369965 3.86102
-0.816914 0.686077 3.31956
-0.0159776 0.35261 3.29362
-0.820086 0.723923 4.46137
-0.0189354 0.390116 4.43639
-0.771677 1.2012 -3.2
-0.0247934 0.713379 -3.22976
-0.815195 1.04003 3.91991
-0.809472 1.52872 3.38948
-0.0151629 1.02219 3.35222
-0.815715 1.56436 4.52949
-0.0201836 1.05894 4.49205
-0.76088 1.72843 -2.59934
0.0118661 1.68894 -3.17315
-0.767997 1.82439 -1.30822
0.0240009 1.76782 -2.02777
-0.788969 1.91907 0.129954
0.0152782 1.88084 -0.590548
-0.801372 1.98026 1.56766
-0.000637687 1.95689 0.849611
-0.805631 2.01961 2.85721
-0.00696501 2.00298 2.28611
-0.809991 2.05305 3.99906
-0.0110027 2.03568 3.42983
-0.0152069 2.07003 4.57065
0.766501 -0.144545 -2.70412
0.747576 -0.0243253 -3.26823
1.14665 -0.175325 -3.27673
0.786924 -0.0979773 -1.42076
1.16968 -0.113904 -2.13292
0.803851 -0.067947 0.000936541
1.19237 -0.07977 -0.709067
0.812477 -0.0314776 1.42233
1.21095 -0.0516932 0.712982
0.805138 0.00665848 2.70272
1.21387 -0.00911602 2.13603
0.792652 0.0410877 3.84283
0.793818 0.188718 3.28516
1.19986 0.0241562 3.27477
0.785726 0.22513 4.42666
1.19018 0.0606793 4.4158
0.734612 0.420155 -3.24595
1.13204 0.129225 -3.26076
0.786891 0.37276 3.869
0.785773 0.688721 3.32629
1.19373 0.355957 3.30096
0.780966 0.725137 4.46706
1.18542 0.392293 4.4418
0.758749 1.20113 -3.20291
1.12038 0.721861 -3.23129
0.779849 1.0411 3.92435
0.783306 1.52915 3.39257
1.18276 1.02411 3.35571
0.780324 1.56462 4.53321
1.17964 1.06052 4.49575
0.796747 1.72834 -2.60158
1.17789 1.694 -3.17395
0.807276 1.82427 -1.31009
1.19525 1.77225 -2.0285
0.80361 1.91865 0.129109
1.20494 1.88153 -0.591023
0.793769 1.97961 1.56806
1.19706 1.95606 0.849492
0.787663 2.01905 2.85873
1.18924 2.00256 2.28653
0.783782 2.05266 4.00143
1.18485 2.03571 3.43099
1.1814 2.07027 4.57246
1.54983 -0.144684 -2.70552
1.53111 -0.0217746 -3.26926
1.57513 -0.0956963 -1.42123
1.55628 0.0450126 -2.1252
1.59947 -0.0635162 0.00297806
1.58772 0.0876661 -0.698952
1.61234 -0.0293317 1.42668
1.60844 0.115549 0.726488
1.60859 0.00838175 2.70808
1.61257 0.157335 2.1519
1.59739 0.0437478 3.84774
1.59977 0.191395 3.29057
1.58987 0.227842 4.43094
1.53756 0.167922 -2.68894
1.51781 0.430931 -3.2461
1.56887 0.228375 -1.40292
1.53915 0.503549 -2.1022
1.59669 0.266732 0.024558
1.59148 0.582828 -0.671261
1.60866 0.302216 1.4517
1.60385 0.618283 0.760434
1.60375 0.340348 2.73438
1.60046 0.657556 2.19088
1.59226 0.37549 3.87376
1.59072 0.691344 3.33038
1.58409 0.727671 4.47049
1.51939 0.766557 -2.65936
1.53952 1.21473 -3.20232
1.56176 0.858002 -1.37054
[...]
POINT_DATA 29498
VECTORS point_vectors float
-4.46257 -5.50223 14.3135
0.574087 0.407856 2.40118
-5.58463 5.51067 9.02646
-0.22179 -0.409916 0.555317
4.33338 -5.23525 13.1144
-0.619067 0.50521 3.03376
6.30601 6.30602 9.26373
0.101946 -0.380519 0.695264
0.0120693 0.00847269 0.532888
-0.00159693 0.00590015 0.353226
-0.104365 -0.0817741 0.394317
0 0 0
-0.0103806 0.00543523 0.401186
-0.0157233 -0.0103945 0.7826
0.106248 -0.093042 0.381067
0 0 0
-0.553348 -0.285319 19.895
-1.17639 -0.694732 20.5674
-0.396766 -0.534288 21.4007
0.0883971 -0.304799 21.5628
0.591846 -0.0848663 21.6109
0.953057 0.112251 21.2873
0.977452 -0.0328917 20.8917
-0.661709 -0.223961 19.7981
-1.57062 -0.608507 20.5082
-0.556509 -0.655696 21.4609
0.018043 -0.42354 21.6249
0.600134 -0.294613 21.6814
1.09355 -0.131702 21.1945
1.20119 -0.249001 21.3305
-0.736799 0.0260005 19.6869
-1.8858 0.0659332 20.359
-1.2604 -0.449626 21.3948
-0.360538 -0.472507 21.6944
0.274339 -0.537952 21.649
0.855517 -0.707927 21.1898
0.839111 -0.382071 21.5789
-0.516086 0.311077 19.9074
-0.984612 0.559104 20.3069
-1.07158 0.39271 21.1393
-0.443579 -0.0179706 21.5558
-0.00324759 -0.302249 21.4574
0.216458 -0.363635 21.4415
0.303969 -0.318813 21.1203
-0.574539 -0.600769 19.373
-2.00443 -3.18441 20.902
0.0586988 -0.0504588 21.2065
0.455858 0.186831 19.9055
1.21735 0.955842 19.9937
1.60322 1.34283 18.6864
1.5307 1.05062 18.6654
-0.6957 -0.467135 19.0827
2.13378 1.1255 14.2165
2.08023 1.21463 15.1532
-0.851387 0.111002 18.7629
1.35062 -1.20673 8.47936
1.50652 -0.97314 14.3674
-0.455889 0.632246 19.5153
-1.00893 1.52802 19.9786
-1.74942 1.95382 21.0834
-0.589597 0.327542 21.9915
-0.129856 -0.244449 21.648
0.109329 -0.719007 21.8338
0.0986431 -0.644882 20.1951
0.56332 -0.618253 19.3276
2.018 -3.19876 20.887
-0.053261 -0.0371392 21.319
-0.430673 0.18224 20.1372
-1.14608 1.079 20.0101
-1.56246 1.60025 18.6247
-1.51444 1.11375 18.4653
0.673417 -0.500866 19.0083
-2.1136 1.44436 13.7221
-2.13341 1.23346 15.0143
0.80005 0.104786 18.6742
-1.46439 -1.11852 9.03598
-1.59316 -0.846847 14.9257
0.465197 0.618042 19.5329
1.0453 1.44965 20.0008
1.76466 1.85465 21.1066
0.61556 0.309423 22.0196
0.157526 -0.376676 21.6874
-0.102706 -0.85601 21.7225
-0.132454 -0.781194 20.0603
0.566571 -0.293157 19.8684
1.18703 -0.709894 20.5712
0.400016 -0.532041 21.4042
-0.0801273 -0.294065 21.5836
-0.623617 -0.0340403 21.6322
-0.97527 0.165449 21.2911
-0.982286 -0.0361132 20.8327
0.677483 -0.236085 19.7692
1.60199 -0.619183 20.4977
0.555477 -0.651786 21.4755
-0.0111054 -0.405789 21.6502
-0.668841 -0.243963 21.7232
-1.16287 -0.083799 21.2061
-1.21774 -0.260086 21.1759
0.745523 0.0354782 19.6607
1.91026 0.0806083 20.3437
1.26439 -0.449136 21.4107
0.357365 -0.466677 21.7287
-0.377336 -0.531612 21.6951
-1.00313 -0.678113 21.1549
-0.823762 -0.372814 21.5193
0.51327 0.306431 19.9188
0.963997 0.532722 20.3269
1.04698 0.370703 21.1482
0.444181 -0.0316969 21.5778
-0.0164916 -0.336364 21.4831
-0.244183 -0.425992 21.3712
-0.303502 -0.298026 21.0959
-1.97559 -0.138394 2.62272
8.90961e-05 -0.141023 0.683234
0.0280042 -0.0004573 0.271605
0.160485 -0.119504 0.547144
0.030748 0.117762 0.262206
0.109867 -0.054116 1.73549
0.0101635 1.13992 1.60585
-0.156485 -0.0428558 0.281431
0.035272 -0.027227 0.00410882
0 0 0
2.60628 -0.131827 3.32018
-0.0239211 -0.0101191 0.474304
-0.121319 -0.0713519 0.496637
-0.0485778 0.0144747 0.91309
0.344539 -0.0540115 0.622326
1.73338e-18 -3.49729e-18 -2.88011e-17
-0.00306624 0.0401156 1.06196
0 0 0
7.1366e-05 3.28023e-06 0.00606706
1.75732e-05 0.00118934 0.0063693
2.89903e-05 1.20408e-05 0.0057916
0 0 0
-9.2017e-05 0.00974067 0.0165573
2.9266e-05 -1.68349e-05 0.00222168
-0.00176243 0.0377946 1.35094
-1.06509e-18 -5.59719e-18 6.88503e-17
0 0 0
0 0 0
0 0 0
0 0 0
0 0 0
5.30906e-07 1.07453e-09 2.08789e-05
0.000120706 0.000482908 0.0292566
-4.44716e-07 -4.82959e-07 -5.55349e-05
-0.0159689 -0.0437797 0.105228
0 0 0
8.05486e-06 0.0031963 0.036533
-8.05278e-06 0.000214235 0.00351777
0.000860786 -0.000891797 0.0149262
0 0 0
0 0 0
0 0 0
-2.94555 -1.53989 20.546
-3.28988 -4.78029 21.3218
-1.99069 -1.56353 18.0259
1.07121 -0.335893 20.9777
1.49916 0.826957 15.184
1.478 0.501449 10.1081
-3.78504 0.666158 20.0976
-2.49462 0.920786 17.1922
-2.22951 2.67684 19.7294
0.311525 -0.737594 19.8202
-0.419641 -1.24131 4.16876
0.116779 -0.0358484 15.7174
3.31485 -4.83373 21.2649
1.97426 -1.62364 17.9219
3.01399 -1.58598 20.5104
-1.31973 1.01403 14.8754
-1.49952 0.883985 9.82457
-1.18742 -0.222728 20.9345
2.44102 0.920027 17.0838
2.25972 2.57793 19.7342
3.85155 0.721001 20.0349
0.066882 -1.07549 5.28629
-0.188186 -0.311835 16.0593
-0.496157 -0.7567 20.0669
-0.260269 -1.1253 21.6236
0.588952 0.272141 15.2869
0.253152 -0.570549 20.7454
0.453178 0.127571 13.867
-2.19447 -1.21308 21.5212
-4.49654 2.2 20.9072
-0.486998 -0.905938 20.6192
-0.29068 0.36855 16.2118
-0.549857 0.299864 15.4559
0.250224 -1.11574 21.605
-0.430095 0.138154 14.3794
-0.217227 -0.555467 20.7837
4.39897 2.0792 20.9603
2.198 -1.21514 21.5356
0.312217 0.35155 16.2386
0.478489 -0.882493 20.6461
-0.93563 -0.507039 20.0562
-0.627995 -0.262654 19.8647
-0.618056 -0.428157 19.631
-0.845524 -0.642978 21.1855
-1.34112 -0.672964 20.5406
-1.66779 -1.47658 20.6179
-0.106542 -0.410215 21.4987
-0.480036 -0.575525 21.4225
-0.128031 -0.612703 21.6372
0.312076 -0.198699 21.6487
0.0629294 -0.356129 21.5776
0.311411 -0.28019 21.6504
0.787015 0.00773468 21.5029
0.614855 -0.177187 21.6494
0.983349 0.115172 21.6747
0.995835 0.0990092 20.9874
1.03101 0.0623496 21.2054
1.37617 0.324225 21.4038
1.1113 -0.153803 21.0793
1.28521 0.27996 21.4573
-1.17482 -0.413422 19.9181
-0.72707 -0.101633 19.7187
-0.758674 -0.37475 19.48
-1.11986 -0.688614 21.2386
-1.81567 -0.321564 20.449
-0.230182 -0.543625 21.549
-0.894337 -0.648933 21.4238
0.271789 -0.35573 21.7082
-0.146172 -0.498935 21.6963
0.877158 -0.24684 21.5473
0.493075 -0.46921 21.7094
1.15948 -0.187858 21.2521
0.994185 -0.376496 21.3809
1.59877 -0.0977857 20.4677
1.11742 -0.443719 21.3742
1.60806 0.171357 19.59
-1.35332 0.0847735 19.7841
-0.667067 0.231176 19.7623
-0.881073 0.0707815 19.2734
-1.59288 -0.224408 21.0505
-1.42196 0.498541 20.2882
-0.800306 -0.500094 21.6562
-1.37869 0.0836968 21.2562
-0.0297025 -0.467056 21.7163
-0.497204 -0.198451 21.6546
0.531245 -0.587737 21.5393
0.057371 -0.399602 21.5443
0.794343 -0.582686 21.2811
0.452319 -0.595633 21.5347
1.06471 -0.823863 20.614
0.45071 -0.326776 21.9442
1.35818 -1.18269 18.786
-0.760494 0.45356 20.0345
-0.554599 0.468618 19.6955
-1.09834 0.521692 20.7123
-1.10353 0.997122 20.1477
-0.786097 0.183118 21.484
-1.46719 0.910462 21.1627
-0.189771 -0.17104 21.5408
-0.552802 0.109685 21.7649
0.165128 -0.412102 21.4638
-0.0858941 -0.29071 21.5868
0.303847 -0.757575 20.3742
0.187732 -0.547182 21.5466
0.162742 -0.469899 22.0923
-1.23661 -1.60391 19.1411
-0.63512 -0.533952 19.2279
-0.0166064 -0.832699 18.9954
-0.634362 -0.907553 22.1852
-0.0407255 -4.84162 21.4958
0.323108 0.137918 20.2951
0.0101164 -0.314161 18.784
0.763043 0.390492 19.8091
0.017561 0.00579881 15.6309
1.45333 1.22007 20.0509
0.0747918 1.03416 15.7266
1.54145 1.33252 19.7591
2.01889 1.5627 16.3721
0.0743444 2.00556 16.9895
1.90313 1.23835 16.8438
0.11006 2.44329 17.6749
-0.831648 -0.195142 18.8406
-0.0317126 -0.721078 18.5724
2.06092 0.823134 14.3434
1.91363 -0.853862 6.99939
0.0730288 1.77514 6.79027
2.20221 0.301797 14.0249
0.0871721 2.35917 12.1426
-0.698113 0.57241 19.0936
-0.0279517 0.194615 18.1372
1.55813 -0.900823 10.2594
0.523175 -1.07301 16.9126
-0.742224 2.84456 -5.50526
0.292847 -1.05072 15.095
-0.53874 2.68261 -3.19785
-0.766014 1.15349 19.5708
0.00953158 0.828221 19.2837
-1.33428 1.66312 20.3554
0.0531491 2.20495 19.7657
-1.25329 1.11505 22.0908
0.061879 3.78583 20.7312
-0.262407 -0.0565498 21.7753
0.0239409 0.817459 22.4039
-0.0114216 -0.46007 21.6311
0.0900883 0.0610629 21.4685
0.0312195 -0.554947 23.0458
0.145455 -0.569927 21.9309
0.221914 -0.349001 22.0895
1.22686 -1.63945 19.109
0.618368 -0.55956 19.1679
0.621475 -0.446285 19.6099
0.634585 -0.921222 22.232
1.69126 -1.4962 20.6079
-0.302187 0.134238 20.5284
0.150455 -0.601609 21.6339
-0.723254 0.421623 19.9368
-0.27393 -0.268787 21.6932
-1.38429 1.41364 20.0772
-1.01111 0.208673 21.7069
-1.46206 1.47136 19.6568
-1.97614 1.89642 16.3564
-1.43834 0.455078 21.3721
-1.93222 1.29705 16.6942
-1.3023 0.427396 21.4608
0.789956 -0.197196 18.7397
0.766878 -0.400338 19.4391
-2.10673 1.06637 14.074
-2.01281 -0.521939 7.09914
-1.79253 0.0402985 20.0369
-2.31638 0.383852 14.1236
-1.62684 0.280404 19.1995
0.6917 0.576118 19.0769
0.869007 0.0743718 19.235
-1.7577 -0.818319 10.7203
-0.618824 -1.24656 17.4715
-1.2714 -0.848683 20.2993
-0.351148 -1.33769 16.0434
-1.46146 -1.10334 18.813
0.784262 1.10264 19.6026
0.560249 0.456041 19.7101
1.35849 1.5991 20.3818
1.1012 0.938046 20.1732
1.27312 1.07928 22.085
1.44514 0.852572 21.1691
0.295845 -0.114046 21.8345
0.563377 0.0925412 21.7898
0.0393281 -0.632064 21.6478
0.0561736 -0.390021 21.6168
0.0349011 -0.629902 22.6677
-0.222177 -0.670889 21.5359
-0.169653 -0.526179 21.9313
0.948208 -0.518721 20.0492
0.643007 -0.274127 19.8428
0.856741 -0.649985 21.1975
1.36844 -0.687961 20.5334
0.121285 -0.405272 21.5037
0.480701 -0.571395 21.435
-0.314654 -0.172229 21.6896
-0.0560537 -0.339343 21.6018
-0.828179 0.0687387 21.5084
-0.664568 -0.126659 21.6776
-1.02207 0.122293 20.9387
-1.07287 0.0999476 21.2359
-1.11261 -0.158951 20.9818
1.20718 -0.435536 19.8917
0.738721 -0.112861 19.6965
1.13641 -0.696596 21.2624
1.84383 -0.321781 20.4406
0.228881 -0.530298 21.5632
0.896601 -0.647144 21.4443
-0.296055 -0.3276 21.7591
0.147653 -0.486648 21.7236
-0.969149 -0.180872 21.5722
-0.586793 -0.438073 21.7607
-1.2161 -0.10713 21.174
-1.10805 -0.364765 21.3888
-1.0812 -0.445888 21.3425
1.3769 0.0941391 19.7543
0.668817 0.230988 19.7596
1.61089 -0.219139 21.0682
1.40496 0.488251 20.2945
0.800673 -0.497396 21.6733
1.35975 0.0821687 21.2618
-0.0102545 -0.461201 21.7643
0.493576 -0.206818 21.692
-0.672572 -0.616467 21.5498
-0.138509 -0.455106 21.5717
-0.785225 -0.552929 21.32
-0.550715 -0.594769 21.5253
-0.473202 -0.293047 21.7307
0.759408 0.4449 20.0471
1.07463 0.500955 20.7204
0.782589 0.174202 21.4898
0.177865 -0.195311 21.5767
-0.205332 -0.45245 21.4762
-0.368922 -0.919847 20.4671
-1.04491 -0.493316 20.0108
-1.62855 -1.71674 18.6857
-1.18869 -0.933117 19.6924
-1.66036 -0.815447 19.341
-0.690061 -0.40246 19.5552
-2.26128 -1.62277 20.605
-0.957775 -0.669257 21.209
0.265356 -0.266602 18.1632
-0.794886 -1.01875 21.599
-1.27433 -1.33222 21.9103
-0.108293 -0.85199 21.6603
-0.159064 -0.460404 21.5215
0.51257 0.233837 14.4373
0.145005 -0.415255 21.6424
0.0899698 -0.819174 21.0075
0.330935 -0.443489 21.3151
0.298994 -0.262684 21.6761
0.900332 0.193629 14.3328
0.559822 -0.146717 21.7073
0.474547 -0.463085 20.8522
1.09049 -0.0923345 21.4116
0.86811 -0.128729 21.5695
1.66959 1.1091 16.0251
1.24685 0.288284 21.5228
1.46733 -0.197468 20.6441
1.49404 0.182743 21.6156
1.14132 -0.135041 20.9524
1.77166 1.12251 15.647
1.63972 0.452022 21.004
2.08627 0.0331716 20.007
1.42835 0.197976 21.2787
-1.31939 -0.187307 19.8147
-2.56855 -0.524343 17.1383
-2.00845 0.307173 18.9894
-0.877625 -0.146987 19.307
-3.88265 -0.635932 20.3133
-1.41319 -0.525107 21.1826
-2.57322 -0.365746 21.3657
-1.02228 -1.44391 21.3998
-0.478197 -0.608275 21.6088
-1.15869 -1.2024 21.3173
0.0629556 -0.702465 19.9593
0.144477 -0.440636 21.7514
-0.0549194 -0.663643 20.1538
0.786658 -0.604624 19.8549
0.774193 -0.474651 21.6702
0.41954 -1.11416 4.60958
0.572558 -0.86043 19.9088
1.57712 -0.427977 20.6747
1.05886 -0.387087 21.3267
2.18835 0.454584 9.93537
1.38057 -0.923646 20.433
1.72809 -0.742605 18.466
-1.08006 0.41186 19.8923
-1.40853 1.51874 18.7879
-0.856105 0.792816 19.8192
-0.746737 0.380628 19.4307
-1.98292 1.24928 20.0608
-1.48476 0.289397 20.8067
-2.5601 1.92839 20.2557
-1.32799 0.992744 20.5882
-2.40742 0.448419 21.3325
-0.951986 -0.08094 21.6049
-2.24603 0.270314 20.3407
-1.06808 0.512649 21.7315
-0.771136 -0.208642 21.9919
-0.170847 -0.296283 21.6397
0.24197 0.227916 15.2965
-0.245178 -0.133328 21.6569
-0.12058 -0.498532 21.6834
0.252842 -0.533824 21.4575
0.15718 -0.369927 16.7549
0.052316 -0.409879 21.4897
0.413107 -0.894305 21.5528
0.495238 -0.692049 20.9976
0.284868 -1.39676 18.3605
0.0721397 -0.538632 22.1598
0.362135 -0.641412 19.4946
1.62694 -1.77049 18.6092
-0.023612 -2.55947 18.3857
-0.0488376 -2.75166 16.181
-0.0195271 -0.871166 18.7265
-0.149076 -7.05996 23.295
-0.271287 -0.28748 18.3044
-0.0246272 -1.33874 21.8651
0.041904 0.0392209 8.43054
-0.490256 0.236832 14.8349
0.0163768 -0.0779988 16.4797
0.0229002 0.0327419 7.71214
-0.854915 0.238308 14.4203
0.037638 0.268745 15.1656
0.105805 0.765638 7.83411
-1.61274 1.39985 15.951
0.105414 1.36477 16.2786
0.287295 0.160976 3.83832
0.175782 2.28323 12.1915
-1.80288 1.31305 15.7279
0.103914 2.61073 17.3114
0.0228755 2.32272 8.2683
0.1043 2.38714 15.0368
2.54069 -0.553892 16.9972
-0.0637508 1.7678 14.818
-0.0289618 -0.261261 18.109
-0.468104 -0.706334 4.36942
-0.519216 1.00348 -3.46137
-0.38906 1.52705 -0.595387
-2.22781 0.936825 10.1652
-0.889444 3.47279 -6.89393
-0.203715 2.62699 3.55815
1.40801 1.50005 18.7978
0.0217047 1.58791 19.2733
-0.00335217 0.797213 18.65
0.0417052 4.2105 19.4029
2.57091 1.87191 20.2909
0.0483927 2.53672 19.9877
0.0649117 6.84238 17.5966
2.36633 0.216302 20.8318
0.0290939 2.34456 22.6436
0.0512284 0.061775 6.00917
-0.228372 0.165485 15.349
0.0468113 0.20551 21.8819
0.918803 0.546959 1.63355
-0.293272 -0.735237 17.2139
0.114769 -0.220648 21.9182
0.313593 -0.608513 3.37225
-0.376476 -1.55165 18.5883
0.246705 -0.4833 22.5829
0.0124501 -1.35542 11.8825
1.07034 -0.513687 19.9855
1.20246 -0.959696 19.6692
1.69839 -0.833815 19.2639
0.706333 -0.433894 19.5248
2.29508 -1.65624 20.5839
0.968724 -0.680098 21.2297
0.815968 -1.02778 21.6101
1.31075 -1.35601 21.9579
0.114849 -0.834301 21.6615
0.168001 -0.453344 21.5301
-0.114297 -0.409693 21.6476
-0.0755193 -0.804917 21.0591
-0.298248 -0.4366 21.4001
-0.310616 -0.235713 21.7165
-0.545022 -0.107458 21.7676
-0.4753 -0.417963 20.9261
-1.15904 0.0265173 21.4298
-0.942119 -0.0642233 21.5624
-1.30172 0.403369 21.4968
-1.62665 -0.0498608 20.5934
-1.57693 0.358334 21.3674
-1.17816 -0.079021 20.8889
-1.62259 0.534959 20.9945
-2.14926 0.0571299 19.6212
-1.4455 0.355923 20.8856
1.35319 -0.198968 19.7849
2.05632 0.33609 18.9102
0.896138 -0.149872 19.2631
3.97098 -0.639782 20.2541
1.43547 -0.527238 21.207
2.61 -0.32941 21.4044
1.01495 -1.44802 21.3482
0.478882 -0.600465 21.6283
1.15629 -1.20421 21.3265
-0.0353218 -0.685122 20.0085
-0.180858 -0.418234 21.8067
0.0065226 -0.662081 20.2787
-0.949146 -0.552512 20.0076
-0.88854 -0.421418 21.6713
-0.846605 -0.846877 19.861
-1.78629 -0.401683 20.0837
-1.05652 -0.330222 21.3506
-1.54982 -1.01542 20.1605
-1.80457 -0.574189 18.3251
1.07646 0.408647 19.8971
0.860102 0.760528 19.8425
0.746023 0.383675 19.4241
1.96239 1.2021 20.0692
1.468 0.287977 20.8158
1.31283 0.933465 20.6105
2.36774 0.425752 21.3398
0.949229 -0.0821724 21.6142
1.06937 0.489566 21.7327
0.772139 -0.221453 22.0257
0.14312 -0.323748 21.6855
0.244376 -0.178667 21.7081
-0.0020454 -0.612806 21.767
-0.355477 -0.602555 21.4698
-0.0943294 -0.528939 21.4791
-0.544253 -1.03176 21.5214
-0.542756 -0.776306 20.9452
-0.0642855 -0.538226 22.015
-0.40387 -0.752826 19.4771
-1.42989 -0.895211 19.5189
-0.960315 -1.19772 21.7371
0.185218 -0.617126 21.4165
0.572294 -0.323418 21.3601
1.43406 0.10722 21.3145
1.98739 0.300761 20.7765
-2.00472 -0.300395 19.0345
-2.07051 -1.15871 21.9011
-0.293562 -1.1699 20.5355
0.290788 -0.549233 20.0959
1.21181 -0.65093 20.1073
1.61717 -0.377446 20.5434
-1.38869 0.849065 19.4327
-2.14351 0.761137 20.7023
-1.55962 -0.00919791 22.0442
-0.339379 -0.34858 21.8507
0.0956129 -0.69242 21.5834
0.548281 -0.937569 21.4563
-0.0448494 -2.99855 17.4851
0.0417621 -0.343963 11.2119
0.021559 0.0580005 7.85403
0.0477266 0.134505 7.84006
0.182966 1.03652 9.61194
0.0803524 2.19965 12.136
-0.0575045 -0.818508 14.5958
-0.262559 0.100577 -0.287376
-0.280879 2.03014 3.92829
0.00927841 2.43 17.9637
0.0475182 3.48899 19.5493
-0.00676608 0.532069 6.5034
0.134155 -0.157168 5.57583
0.782309 0.354068 1.66569
0.189776 -0.299578 3.37986
1.45177 -0.93191 19.4711
0.983852 -1.21701 21.7608
-0.158504 -0.609548 21.4911
-0.562581 -0.290385 21.4696
-1.52877 0.238346 21.3035
-1.97124 0.361636 20.5579
2.06013 -0.301715 18.9427
2.12434 -1.16341 21.9664
0.302392 -1.16554 20.5152
-0.319581 -0.521751 20.2695
-1.42848 -0.563611 20.0151
-1.6419 -0.346426 19.9034
1.38464 0.840988 19.4373
2.10653 0.740874 20.7209
1.55507 -0.0206464 22.046
0.312182 -0.39238 21.927
-0.250304 -0.825299 21.6223
-0.598131 -0.980069 21.4255
-0.383036 -0.0904376 0.485369
0.0964308 -0.322089 0.810109
0.0332106 -0.0352703 0.719906
0.102661 0.000342193 0.445693
0.00692571 0.146954 0.495631
0.230982 0.0123929 1.64811
0 0 0
-0.0298201 0.342938 0.820067
-0.276539 -0.0303462 1.09453
0.0553922 -0.105371 0.216953
-0.0356824 -0.0415378 -0.00107045
-1.24284e-18 -2.05485e-18 -5.15016e-17
-0.204585 -0.577331 1.29622
1.08827 -0.258231 1.43842
-0.0369482 -0.044512 0.667653
0.0439258 0.147625 0.37144
-0.377382 0.0739785 1.12564
-0.156675 0.0449001 1.05428
0.037823 0.409955 0.914217
0.884526 0.0810454 0.499458
0.0808559 0.0110188 0.310245
0.07429 -0.0361019 0.0201289
-0.0593875 -0.0644642 0.199788
0 0 0
0.00603824 0.0137277 0.16743
0.0144081 0.02915 1.32326
0.000486207 -1.3849e-05 0.0311351
0 0 0
0.0577235 -0.060883 0.750077
-0.0140625 0.0312986 0.787261
-0.00385284 0.0163776 0.161193
0.000501711 1.89754e-05 0.00759524
-0.668065 -0.496868 0.928457
0 0 0
0 0 0
-0.11099 0.0713173 0.12575
0 0 0
2.21253e-05 0.000414989 0.00174578
0 0 0
0.0727396 0.0437713 0.487367
-0.00694405 0.0336764 0.336055
-0.00254601 0.000321774 0.0195024
-0.00684162 0.0406302 1.39121
-0.000269849 -0.00023209 0.0263431
-0.0527121 -0.0502029 0.523121
-0.000262646 7.53648e-06 0.0037275
0.0226594 0.048119 1.18689
0.00215375 0.0106698 0.0998394
0.745852 -0.572327 1.06998
0.115397 0.0674197 0.124634
0 0 0
0 0 0
0 0 0
-0.0615397 0.0383864 0.433219
0 0 0
0 0 0
-0.000313535 -0.000339796 0.0051523
-0.134177 0.0683419 0.108486
2.53656e-06 -2.31321e-06 0.000197914
0 0 0
0 0 0
2.08551e-06 1.03387e-09 2.20369e-05
0 0 0
0 0 0
8.87576e-05 0.000302416 0.00254185
0.0114511 -0.0416841 -0.00769674
-1.48902e-07 -1.31369e-06 -0.000205638
5.35274e-06 5.26139e-07 5.88346e-05
-0.00437387 1.91485 1.3426
-0.00238829 0.0140714 0.0822849
0 0 0
-0.00532294 0.000679287 0.00826028
0 0 0
0 0 0
9.99769e-05 0.000507208 0.00520759
0.00420736 -0.00374517 0.068495
0.132849 0.0675665 0.108415
0.057105 -0.0391516 0.377796
-2.65417e-07 1.36673e-10 2.56673e-06
0 0 0
0 0 0
0 0 0
3.25691e-06 -5.25909e-07 -5.61199e-05
-0.0010837 0.00579026 0.208791
0.00522971 0.00065394 0.00805286
0.0104275 -0.0330331 0.178682
-0.00132141 -0.00426399 0.0725591
0 0 0
-0.000784494 0.00522619 0.0426967
0.0022858 0.000449108 0.0285517
0 0 0
0 0 0
0.000808628 0.000700751 0.0378926
-4.14712e-08 -4.46822e-08 -7.622e-06
0 0 0
-0.00368305 0.0199329 0.0944024
2.46107e-09 1.89015e-09 5.09597e-07
1.13348e-07 4.5334e-08 1.5791e-05
0 0 0
0.0548719 0.112651 1.06591
0 0 0
-0.00209656 1.04062 1.94817
0.00107423 -0.00143414 0.0439251
2.52036e-05 -3.81817e-05 0.00132203
-0.00210565 0.000354735 0.0266061
0.00048065 0.00438024 0.0355367
0 0 0
0 0 0
0 0 0
9.42262e-05 0.000374713 0.00127029
-0.0270389 0.0872193 0.884997
0 0 0
0 0 0
-0.0095935 -0.00682747 0.0388519
0.00314543 -0.0236654 0.128718
0.00060729 -0.0107909 0.0338191
-0.000956146 0.00749767 0.0824397
0 0 0
-0.00382168 0.0192246 0.153683
0 0 0
0 0 0
7.13488e-20 1.05238e-17 4.50356e-17
0 0 0
0.00101998 0.00268159 0.0910323
-7.08703e-06 -1.12227e-06 8.00474e-05
6.35346e-06 -9.85772e-07 7.00759e-05
0.00278284 0.000477284 0.0258452
-0.00284242 0.000524376 0.0273425
2.99867e-05 1.60759e-06 0.000289293
-4.2385e-05 2.01404e-06 0.000396037
0.000175486 9.83967e-06 0.00246314
-0.000118546 6.94431e-06 0.00172938
5.95401e-05 3.38393e-06 0.000933963
-4.97817e-05 3.32558e-06 0.000926664
0.000761387 0.00042698 0.00413316