# vtk DataFile Version 2.0
tri_press
ASCII
DATASET UNSTRUCTURED_GRID
POINTS 3682 float
-0.775 0.205 -2.11251
-0.825 0.315 2.14454
-0.723494 0.765 -2.085
-0.785 0.989747 2.215
0.768554 0.205 -2.115
0.815 0.325 2.16075
0.715 0.765 -2.09054
0.785 0.989825 2.215
-0.790908 0.242426 -0.693493
-0.804028 0.282638 0.725524
-0.815767 0.911686 -0.651667
-0.805225 0.955559 0.781667
0.788329 0.240707 -0.68975
0.808719 0.275799 0.7355
0.811301 0.912909 -0.65536
0.801688 0.954904 0.77982
-1.57579 -0.174326 -3.2748
-1.5697 -0.113271 -2.13253
-1.58337 -0.0738331 -0.713621
-1.59693 -0.0445012 0.701925
-1.6113 -0.011207 2.12057
-1.61624 0.0219705 3.2615
-1.61683 0.060069 4.40506
-1.57003 0.131904 -3.25718
-1.56453 0.204676 -2.11325
-1.58909 0.254883 -0.6923
-1.60042 0.287452 0.726651
-1.61251 0.319691 2.14729
-1.61806 0.353099 3.28832
-1.61884 0.391505 4.43156
-1.54988 0.730452 -3.22519
-1.53688 0.802464 -2.08089
-1.59976 0.913224 -0.650203
-1.60142 0.958524 0.780646
-1.59127 0.992544 2.21061
-1.60628 1.02404 3.34847
-1.61511 1.06065 4.48795
-1.54881 1.69946 -3.16973
-1.54823 1.77699 -2.02429
-1.57514 1.88294 -0.588517
-1.59524 1.95694 0.849302
-1.59956 2.00391 2.28389
-1.6035 2.03699 3.42688
-1.60871 2.0714 4.5674
-0.796501 -0.175288 -3.27456
-0.780388 -0.113039 -2.13128
-0.786935 -0.0805258 -0.712764
-0.796362 -0.0494122 0.702795
-0.811663 -0.013658 2.12111
-0.817203 0.0196789 3.2626
-0.817893 0.0578961 4.40661
-0.796754 0.127077 -3.25793
-0.822437 0.350618 3.28897
-0.821172 0.389313 4.43306
-0.778683 0.71339 -3.22796
-0.811391 1.02154 3.35014
-0.818999 1.05853 4.48969
-0.76467 1.68901 -3.17204
-0.75709 1.76785 -2.02663
-0.778904 1.88093 -0.589813
-0.799035 1.9572 0.849722
-0.803709 2.00331 2.2856
-0.807553 2.03591 3.42883
-0.81243 2.07019 4.56929
0.755024 -0.175592 -3.27612
0.777979 -0.113497 -2.13212
0.79587 -0.0824574 -0.709386
0.811832 -0.0534365 0.711259
0.813123 -0.0095186 2.1334
0.797154 0.0228356 3.27205
0.788151 0.0593399 4.41361
0.740128 0.126942 -3.26034
0.790481 0.354601 3.29827
0.783301 0.390919 4.43972
0.729097 0.713369 -3.23156
0.781065 1.02284 3.3543
0.778632 1.05935 4.49441
0.788402 1.68888 -3.17426
0.805092 1.7678 -2.0289
0.80946 1.88074 -0.591283
0.797759 1.95657 0.8495
0.789779 2.00264 2.28662
0.785547 2.03545 3.43084
0.782016 2.06988 4.57202
1.53828 -0.175058 -3.27733
1.56138 -0.11431 -2.13371
1.58887 -0.0770825 -0.708748
1.61007 -0.0499499 0.714704
1.61461 -0.00871343 2.13867
1.60257 0.0254769 3.27749
1.59221 0.0620187 4.418
1.52394 0.131509 -3.26119
1.55118 0.204335 -2.11668
1.58657 0.252415 -0.689156
1.60681 0.281049 0.738272
1.61052 0.323384 2.16513
1.59698 0.357313 3.30364
1.58753 0.393666 4.44388
1.51167 0.730353 -3.23102
1.52712 0.802762 -2.08771
1.5964 0.913242 -0.653365
1.60089 0.955517 0.782596
1.5904 0.991727 2.21663
1.58445 1.02537 3.35713
1.58064 1.06168 4.49709
1.56738 1.69911 -3.17363
1.58541 1.77671 -2.02811
1.60041 1.88232 -0.590762
1.59636 1.95555 0.849484
1.5887 2.00248 2.28644
1.58415 2.03596 3.43114
1.58079 2.07066 4.5729
-0.78603 0.485 -2.13554
-0.003223 0.201241 -2.11751
-0.792214 0.214453 -1.403
-0.842464 0.652373 2.21723
-0.005 0.318755 2.15389
-0.832289 0.281044 1.43503
-0.00424701 0.815499 -2.13827
-0.79729 0.866002 -1.36833
0 0.98993 2.21514
-0.795868 0.973408 1.49833
0.778756 0.485 -2.13975
0.790301 0.210994 -1.40238
0.835063 0.657412 2.22294
0.831814 0.280445 1.44812
0.790956 0.86676 -1.37295
0.793127 0.972148 1.49741
-0.795627 0.264373 0.0160151
-0.854922 0.577056 -0.67258
-0.00128943 0.211647 -0.691622
-0.853636 0.619098 0.753595
0.00234511 0.226806 0.730512
-0.81423 0.937357 0.0649999
-0.00223277 1.20634 -0.653513
-0.00176883 1.5053 0.780743
0.797989 0.258788 0.022875
0.851243 0.576808 -0.672555
0.84935 0.615352 0.75766
0.810146 0.937559 0.06223
-0.860668 0.531028 -1.38567
0.866089 0.530904 -1.38766
-0.00225622 0.205354 -1.40269
-0.00323989 0.937801 -1.37064
-0.00373501 0.485 -2.28885
-0.852381 0.598077 0.0405075
0.848218 0.59608 0.0425525
0.000527838 0.219526 0.019445
-0.0020008 1.50448 0.063615
-0.873193 0.635736 1.46668
0.891671 0.636382 1.47277
-0.00132744 0.228404 1.44158
-0.000884417 1.47954 1.49787
-0.0025 0.654893 2.2343
-0.763677 0.345 -2.10719
-0.389111 0.201248 -2.11688
-0.784904 0.208429 -1.75776
-0.875263 0.483687 2.22242
-0.415 0.318343 2.14775
-0.826172 0.300495 1.78979
-0.721406 0.625 -2.07691
-0.363871 0.795962 -2.11735
-0.775443 0.830552 -1.72667
-0.825414 0.82106 2.2278
-0.3925 0.989497 2.21473
-0.791385 0.982528 1.85667
0.382665 0.201251 -2.11813
0.756567 0.345 -2.11029
0.779853 0.207572 -1.75869
0.405 0.320241 2.15896
0.875387 0.491206 2.2422
0.821448 0.304681 1.80444
0.355376 0.795557 -2.11971
0.711371 0.625 -2.07964
0.768052 0.830954 -1.73174
0.3925 0.990366 2.21556
0.820117 0.823619 2.22905
0.789083 0.981006 1.8562
-0.798961 0.221039 -1.04825
-0.793428 0.253239 -0.338739
-0.844514 0.398941 -0.683037
-0.403016 0.213202 -0.692558
-0.824081 0.275919 1.08028
-0.799196 0.274137 0.370769
-0.847645 0.441462 0.739559
-0.415199 0.226007 0.728018
-0.805714 0.88803 -1.01
-0.851363 0.752381 -0.662124
-0.815702 0.925225 -0.293333
-0.469458 1.17993 -0.65259
-0.799963 0.963899 1.14
-0.851942 0.798584 0.767631
-0.810263 0.946993 0.423333
-0.529441 1.48232 0.781205
0.798433 0.216733 -1.04606
0.400001 0.213215 -0.690686
0.793216 0.24969 -0.333438
0.840531 0.398385 -0.681153
0.822419 0.27597 1.09181
0.41819 0.225986 0.733006
0.80332 0.267328 0.379188
0.843089 0.438548 0.74658
0.799921 0.888627 -1.01416
0.464047 1.17865 -0.654437
0.847605 0.753025 -0.663958
0.811429 0.925939 -0.296565
0.796526 0.962645 1.13862
0.526035 1.48225 0.780282
0.848148 0.796443 0.76874
0.806529 0.946844 0.421025
-0.842168 0.508014 -1.7606
-0.394883 0.485 -2.2669
-0.00273961 0.204221 -1.7601
-0.003479 0.343121 -2.22596
-0.854739 0.37274 -1.39433
-0.397235 0.205382 -1.40285
-0.85808 0.644055 1.84196
-0.422482 0.653633 2.23499
-0.00316372 0.28666 1.79773
-0.00375 0.486824 2.27366
-0.877461 0.45839 1.45086
-0.416808 0.228387 1.43831
-0.00374345 0.892995 -1.75446
-0.00399101 0.65025 -2.2145
-0.882596 0.698515 -1.377
-0.400265 0.917392 -1.36949
-0.000442209 1.28922 1.85651
-0.00125 0.822411 2.19996
-0.854609 0.804572 1.48251
-0.398376 1.47519 1.4981
0.848809 0.507952 -1.76371
0.38751 0.485 -2.26732
0.85502 0.370949 -1.39502
0.394022 0.205406 -1.40253
0.852892 0.646897 1.84785
0.416282 0.656153 2.23539
0.895585 0.458414 1.46045
0.415243 0.22839 1.44485
0.888622 0.698832 -1.38031
0.393858 0.917348 -1.3718
0.850716 0.804265 1.48509
0.396121 1.47521 1.49764
-0.843841 0.421307 0.0282613
-0.408485 0.220078 0.01773
-0.870669 0.554042 -1.02912
-0.853695 0.587567 -0.316036
-0.00177283 0.206714 -1.04716
-0.000380798 0.218672 -0.336088
-0.852408 0.608588 0.397051
-0.863681 0.627417 1.11014
0.00143647 0.226469 0.374978
0.000508834 0.227776 1.08605
-0.851869 0.776998 0.0527537
-0.534402 1.47349 0.0643075
-0.00273633 0.969468 -1.01208
-0.00211679 1.46539 -0.294949
-0.00188482 1.51447 0.422179
-0.00132663 1.4965 1.13931
0.839369 0.419301 0.0327137
0.408963 0.219748 0.02116
0.866985 0.553856 -1.03011
0.849787 0.586444 -0.315001
0.848209 0.605716 0.400106
0.865155 0.625867 1.11521
0.847899 0.776178 0.0523912
0.530308 1.47349 0.0629225
-0.838381 0.35887 -1.75918
-0.86891 0.391241 -1.03869
-0.867554 0.721443 -1.01956
-0.842564 0.661758 -1.74363
0.840147 0.357974 -1.7612
0.837689 0.661916 -1.74773
0.863307 0.721845 -1.02213
0.869824 0.389853 -1.03809
-0.393173 0.20422 -1.75893
0.388344 0.20423 -1.75939
0.393771 0.20672 -1.04661
-0.396667 0.206711 -1.0477
-0.382068 0.871816 -1.74056
-0.404632 0.950931 -1.01104
0.399196 0.95005 -1.01312
0.374617 0.871729 -1.7431
-0.391997 0.34406 -2.21619
-0.379377 0.637625 -2.16839
0.371443 0.637625 -2.16929
0.385088 0.34406 -2.2069
-0.844201 0.410112 -0.327388
-0.845011 0.43175 0.38391
-0.851996 0.787837 0.410192
-0.850366 0.764064 -0.304685
0.839935 0.408851 -0.324219
0.846743 0.764097 -0.305783
0.84834 0.786469 0.410566
0.840537 0.429271 0.389647
-0.404674 0.218792 -0.337414
0.403327 0.218791 -0.334763
0.412184 0.225651 0.377083
-0.41053 0.225668 0.372874
-0.54877 1.42039 -0.294141
-0.534332 1.48272 0.422756
0.53059 1.48271 0.421602
0.544173 1.42006 -0.295757
-0.85947 0.454629 1.09521
-0.875603 0.471038 1.81587
-0.856569 0.812816 1.84931
-0.85207 0.79595 1.12507
0.875567 0.451995 1.10351
0.848588 0.794696 1.12691
0.852963 0.813942 1.85203
0.87175 0.47481 1.82615
-0.408825 0.227757 1.08316
0.410388 0.227767 1.08893
0.410122 0.28703 1.80109
-0.415904 0.286271 1.79376
-0.400937 1.49188 1.13965
-0.395438 1.2891 1.85659
0.394311 1.28935 1.85636
0.39804 1.49192 1.13896
-0.418741 0.485255 2.27133
0.410641 0.489015 2.27607
0.404391 0.823015 2.23477
-0.407491 0.821736 2.23433
-0.765028 0.275 -2.10554
-0.582056 0.201253 -2.11657
-0.780512 0.206155 -1.93513
-0.827294 0.399343 2.16064
-0.62 0.31621 2.14661
-0.832724 0.30061 1.96716
-0.727589 0.695 -2.0861
-0.543682 0.784744 -2.10544
-0.756775 0.805082 -1.90583
-0.805836 0.905404 2.22203
-0.58875 0.989289 2.21453
-0.789159 0.987105 2.03583
0.57561 0.201263 -2.11843
0.758231 0.275 -2.10831
0.774373 0.206117 -1.93684
0.61 0.32121 2.16126
0.82169 0.408103 2.17797
0.82287 0.310195 1.98259
0.535188 0.783663 -2.10851
0.716972 0.695 -2.08887
0.749281 0.805732 -1.91114
0.58875 0.990596 2.21578
0.803823 0.906722 2.22329
0.787065 0.985439 2.0356
-0.789363 0.237303 -0.87087
-0.792161 0.247839 -0.516116
-0.823421 0.317828 -0.688265
-0.60399 0.213757 -0.693026
-0.806111 0.287222 0.902901
-0.801602 0.278398 0.548146
-0.825879 0.362029 0.732541
-0.622674 0.228203 0.726771
-0.810138 0.899256 -0.830834
-0.843482 0.836992 -0.656895
-0.815782 0.918503 -0.4725
-0.669977 1.10054 -0.652129
-0.80263 0.959765 0.960833
-0.840509 0.883034 0.774649
-0.807743 0.951275 0.6025
-0.684601 1.25347 0.781436
0.785656 0.236444 -0.867906
0.600756 0.213779 -0.690218
0.790894 0.245077 -0.511594
0.82099 0.316266 -0.685451
0.811084 0.280369 0.913656
0.624801 0.228199 0.734253
0.80606 0.271523 0.557344
0.821391 0.35943 0.74104
0.804986 0.900144 -0.834758
0.664255 1.09894 -0.654898
[...]
POINT_DATA 3682
SCALARS point_scalars float 1
LOOKUP_TABLE default
-156.18
-60.3421
-66.5615
-41.4823
-145.038
-62.3712
-52.5258
-46.9555
-38.5743
-35.4234
-67.4631
-45.0961
-38.5087
-35.6222
-68.4542
-46.0678
-60.2715
-115.569
-38.8604
-35.5256
-53.6297
-53.1441
-45.6619
-60.2715
-105.668
-40.7673
-36.5236
-49.9653
-53.1441
-45.6619
4.2123
-86.12
-57.5954
-42.0135
-46.156
-47.1147
-47.1147
-29.0087
-48.2393
-125.499
-52.1885
-39.3713
-41.7895
-42.9491
-40.0966
-174.543
-38.9933
-36.1418
-56.8139
-45.6049
-44.6806
1.78468
-44.6806
-44.1429
151.75
-40.8903
-43.9307
-51.1351
-53.7988
-109.404
-51.6151
-39.6434
-39.7526
-39.7526
-31.3997
-175.322
-39.1912
-36.6667
-56.5231
-47.536
-46.0001
98.9687
-46.0001
-46.0001
159.997
-45.1243
-44.8799
9.00648
-54.2152
-115.547
-52.6806
-43.6643
-45.9391
-45.9391
-27.0111
-107.085
-38.1692
-35.6049
-57.1155
-54.7763
-53.8484
-27.0111
-102.628
-40.5357
-36.1841
-52.5271
-53.8484
-51.7514
1.43376
-86.4487
-56.6588
-43.0269
-50.4423
-51.1474
-50.228
-32.4465
-47.729
-124.951
-53.071
-43.8107
-47.1523
-45.9391
-59.5953
-169.246
-55.6687
-49.8204
-50.0441
-46.3145
-117.003
-36.0895
-34.9158
-41.7581
-54.3751
-56.4685
-52.04
-48.67
-36.1058
-44.4832
-36.5926
-43.4144
-42.3476
-38.493
-39.5829
-55.9665
52.5704
-59.1409
-36.644
-43.3159
-38.3894
-56.4351
-53.7624
-56.1986
-62.6479
-0.898657
202.85
-42.7092
-42.8449
-37.8253
-98.4962
-42.4352
-48.6552
-49.9516
-44.4231
-42.7003
-103.417
-185.978
-76.6736
-53.4447
-50.9338
-46.4547
-33.8563
-115.246
-47.1463
-46.4547
-32.4612
-40.5567
-185.567
-91.2281
-77.5207
-51.8589
-58.2373
-49.2741
-122.765
-21.7874
-46.9465
-40.2495
-50.4441
-44.2667
-50.0836
-36.6606
-40.3619
-41.4271
-39.7998
-35.63
-36.415
-39.1195
-36.4876
-50.6711
-62.6616
26.6322
-43.0133
-41.2328
-49.6748
-53.8589
-50.9918
-41.5999
-36.405
-40.1018
-40.5994
-39.2762
-35.8333
-36.0378
-36.4817
27.5977
-51.2093
-63.295
-44.8213
-54.6117
-41.6817
-50.2542
-73.7331
196.001
-86.9779
158.298
-54.4469
-60.9268
-42.0906
-42.2436
-50.0193
-45.7734
-43.8537
-48.8124
-31.1981
189.31
-53.6967
-6.87134
-35.0427
-42.3847
-42.0175
-44.8425
-71.2827
196.474
-56.461
-61.5764
-44.375
-44.2125
-49.0717
-49.4712
-56.5446
-7.11516
-44.9497
-46.5763
-39.1878
-37.286
-48.3138
-44.1402
-49.9084
-38.2552
-40.4448
-37.4388
-37.3519
-43.5622
-47.9347
-83.8005
26.6361
-115.601
-73.9013
-51.3271
-39.397
-37.3607
-48.4492
-44.1391
-40.62
-37.0681
-48.2214
-84.3
-70.7575
-49.8665
-47.0583
-64.4399
-69.4369
-62.8989
-47.7509
-50.9183
-85.6944
-86.396
-48.9982
-48.7948
-34.0515
14.7315
15.0012
-34.4804
135.214
173.562
173.045
134.362
-39.8251
-37.894
-44.1104
-51.4119
-39.8397
-51.6104
-44.4848
-37.9703
-37.6781
-37.6979
-36.9417
-36.8396
-117.735
-65.0129
-67.0211
-113.159
-36.5333
-43.3641
-41.4243
-39.9025
-36.7612
-41.803
-44.3777
-44.3861
-42.7113
-43.242
-50.0993
-49.4947
-49.9943
-34.5674
-38.1046
-50.7882
-45.1791
-46.1804
-43.727
-41.1719
-106.706
-205.77
-99.7609
-56.6825
-54.0052
-48.2666
-31.9324
-32.7336
-65.4471
-45.6633
-35.0081
-40.2853
-204.073
-95.548
-99.4725
-54.6631
-58.1705
-48.849
-29.5473
-20.8903
-66.8246
-42.4244
-50.6639
-44.7993
-40.4462
-37.6364
-39.1488
-40.1237
-34.1398
-35.6726
-36.0748
-38.4632
-48.7045
-58.1747
-65.8112
-37.0136
-43.802
-43.7739
-47.0796
-49.6019
-40.078
-40.4021
-37.0483
-38.6092
-35.4841
-38.6988
-35.7601
-35.8496
-49.4076
-33.9937
-58.057
-66.5524
-45.1471
-50.6168
-44.5053
-47.8689
-78.841
-52.9929
-97.3546
158.817
-168.607
-174.641
-112.121
82.7125
-63.4588
-51.0433
-53.7226
-58.7584
-51.1284
-48.4514
-45.7069
-41.9963
-49.9227
-50.3384
-48.9767
-46.9972
-48.6945
-43.2482
-44.5445
-46.8343
-101.311
-97.0429
-54.3442
162.921
-37.8574
-33.9581
-45.7147
-16.9497
-33.1218
-37.6055
-34.051
-40.2402
-41.0138
-42.4935
-41.949
-44.8919
-62.8642
-36.2665
-95.8012
157.82
-64.8519
-52.1278
-54.2492
-59.496
-54.5668
-50.6323
-49.0014
-44.5631
-51.7143
-46.9455
-48.1044
-48.4107
-38.8133
-35.1982
-47.1417
-17.1897
-44.1823
-44.7678
-44.7598
-47.304
-36.5295
-35.7556
-38.0693
-36.9081
-41.7089
-46.0151
-44.4036
-44.0159
-42.1174
-42.1797
-45.3493
-40.0826
-37.6276
-39.9354
-39.4988
-37.5448
-39.4635
-39.52
-38.2086
-41.3697
-59.1641
-52.4379
-52.1213
-68.9337
48.4697
49.0411
47.5012
12.5325
-58.0048
-58.2037
-64.7473
-54.9263
-36.3478
-35.8652
-38.4448
-37.0063
-41.4737
-46.0717
-44.2353
-43.9618
-37.3272
-40.1424
-39.5744
-37.1753
-59.6319
-52.9184
-52.5502
-69.5428
-61.8679
-53.8532
-53.2707
-48.7668
-64.4228
-56.0797
-56.0181
-52.1609
-72.5064
-62.1971
-62.3843
-55.3763
-15.1784
-2.08334
-2.13138
14.4251
205.088
176.113
177.035
205.227
-40.9313
-43.6174
-41.5407
-45.1676
-41.0235
-43.7413
-41.7304
-45.365
-37.7152
-37.6681
-36.9123
-37.7345
-95.0545
-124.475
-83.3208
-95.9513
-42.7437
-43.3385
-42.7143
-41.0707
-45.447
-49.3228
-46.9148
-45.3454
-56.9648
-49.6627
-49.9263
-46.35
-40.3969
-44.2936
-45.2395
-47.7758
-42.3816
-43.8307
-41.9871
-43.5529
-92.2443
150.008
-114.16
98.8364
-70.5509
-83.1868
-47.9966
-44.966
-49.4126
-46.979
-45.1078
-49.5797
-92.9387
135.373
-56.5006
145.378
-57.7094
-37.7196
-43.5708
-41.2326
-32.7983
-38.1495
-41.0357
-37.5462
-115.313
115.565
-90.0411
150.91
-68.2339
-83.8997
-49.519
-48.1985
-49.2329
-46.4247
-47.5414
-50.5934
-56.9688
153.602
-93.0469
135.989
-57.7065
-38.2651
-38.1108
-42.7617
-47.0103
-44.6104
-44.4747
-41.8609
-54.1661
-47.6421
-38.5289
-36.8477
-44.0666
-40.056
-44.3375
-39.3177
-36.8416
-41.7943
-37.034
-36.1526
-37.1306
-34.9292
-37.679
-40.7827
-46.6206
-4.94445
-48.0211
-51.9564
-56.7859
-96.0371
28.0872
-14.1271
-42.0295
-46.791
-42.5681
-40.2253
-47.2113
-56.2616
-59.069
-52.3149
-54.7496
-48.0602
-44.3775
-39.031
-38.5006
-36.8504
-43.5492
-39.9935
-36.4342
-42.6231
-37.7971
-41.0519
-37.1835
-36.3085
-37.319
-32.253
-47.3524
-4.80141
28.4862
-13.3741
-48.283
-52.415
-57.202
-96.0952
-43.8283
-48.2727
-59.0534
-52.9471
-42.9768
-40.9737
-47.8497
-57.065
-71.6995
-71.2839
160.163
163.953
-86.3596
-86.9276
161.439
152.376
-61.9274
-51.0922
-70.676
-53.9274
-41.7801
-41.7859
-43.2041
-41.9551
-50.1165
-49.8682
-45.5144
-45.9875
-41.2978
-42.9778
-45.243
-56.9915
-32.1067
-32.0482
175.896
175.097
-49.864
-60.9393
-19.3865
4.59862
-34.2779
-36.4687
-43.2084
-41.9142
-41.1483
-41.7956
-47.0674
-42.0402
-69.8764
-67.5035
163.697
161.474
-64.7925
-53.1597
-71.5206
-54.3035
-44.5346
-42.8247
-44.4772
-44.0381
-45.7735
-48.8122
-45.9223
-57.6479
-60.8706
-50.6892
4.52172
-19.7423
-44.0721
-44.2742
-44.9958
-48.2177
-39.589
-38.4265
-37.1356
-36.4761
-49.1063
-46.8499
-41.8405
-47.3975
-49.7055
-49.5955
-38.1477
-38.1478
-39.2547
-42.268
-36.7363
-38.5666
-37.2672
-37.2059
-43.3069
-43.537
-46.026
-49.6415
-111.52
-72.0018
23.3932
23.7949
-109.992
-108.923
-71.9008
-73.459
-50.9112
-51.2856
-39.6324
-38.5365
-37.1721
-36.5613
-47.158
-49.4837
-41.8029
-47.4375
-42.511
-39.3481
-36.4114
-39.6468
-49.9884
-46.4151
-72.9035
-112.212
-92.3724
-62.8828
-61.7366
-93.2988
-42.0236
-44.0758
-49.5924
-51.0722
-54.5454
-44.5885
-49.0549
-45.2659
-80.9408
-99.9027
-62.4471
-48.9927
-91.0264
-90.1421
-64.4472
-63.7958
-81.4617
-49.6345
-65.0554
-99.4889
-54.1869
-45.3703
-52.5623
-45.5946
-41.5841
-54.3554
-52.2141
-43.7261
-112.617
-111.759
-71.8305
-68.2561
-114.305
-68.9313
-72.274
-112.612
-43.0546
-45.1833
-55.1547
-52.7353
-42.8769
-52.439
-54.9142
-45.0722
-61.3286
-26.4717
-16.4114
-56.5884
-7.57586
43.3823
11.4979
-8.87451
-7.94095
-9.07601
11.6344
44.131
-62.2051
-56.6684
-16.6603
-26.9535
142.38
151.638
178.813
80.1112
86.5513
175.997
168.722
121.211
86.8057
123.379
168.695
176.067
146.703
109.849
177.329
152.348
-38.6345
-38.3892
-41.5572
-41.7821
-36.7426
-38.5662
-40.0093
-37.4245
-45.3086
-49.5107
-43.6897
-41.0727
-58.3958
-47.2612
-46.5121
-54.5401
-38.3758
-41.665
-41.586
-38.0434
-58.4721
-54.8454
-46.7021
-47.2979
-45.9717
-41.3127
-43.9161
-49.9432
-36.8297
-37.6777
-40.1642
-38.5536
-38.3616
-39.9235
-37.5323
-36.4865
-37.8417
-36.5381
-37.5625
-39.8171
-37.0039
-38.1533
-36.8524
-35.9312
-36.991
-35.8224
-36.7957
-38.0674
-102.278
-79.2566
-123.861
11.6688
-52.3617
-63.243
-80.7216
-61.4158
-53.2244
-62.1832
-82.2292
-63.4122
-104.08
12.0899
-121.567
-80.026
-32.2372
-41.4886
-41.0316
-36.3971
-47.3361
-46.3113
-41.8161
-45.3929
-41.9703
-41.2708
-42.111
-44.9724
-42.7868
-39.0129
-40.9368
-42.2131
-31.0283
-34.6935
-45.55
-45.9918
-43.9552
-44.6513
-44.7359
-39.3504
-45.8609
-47.9706
-44.7837
-44.4136
-49.4452
-50.3672
-46.652
-48.6471
-41.6583
-41.1773
-46.0395
-44.3831
-41.7358
-45.916
-46.3152
-41.3358
-50.7107
-49.1431
-57.1356
-53.5625
-50.2194
-52.6572
-56.8987
-49.0296
-46.9059
-45.9632
-47.4876
-54.2585
-34.6703
-32.551
-40.3612
-43.717
-39.8779
-47.2623
-42.0596
-36.2134
-48.1738
-54.5418
-48.0723
-47.4893
-48.1477
-46.8042
-43.5669
-42.6232
-49.6985
-44.6905
-44.189
-47.4304
-44.2615
-41.4576
-42.8578
-44.7278
-39.1046
-42.083
-41.433
-39.2003
-118.594
-185.401
-121.924
-61.4609
-56.0055
-52.761
-51.6501
-33.8094
-87.1197
-44.0755
-37.7095
-39.2737
-174.416
-108.796
-123.22
-56.9002
-61.4008
-54.5738
-26.3411
-35.8779
-87.2942
-44.061
-49.2764
-44.0825
-38.7132
-38.1345
-38.4288
-38.9378
-35.7162
-35.7233
-35.9769
-36.3904
-67.7596
-62.515
-67.3488
-77.5281
-44.4151
-44.6266
-46.0719
-47.2114
-38.0636
-39.2605
-37.1479
-37.9828
-35.7561
-36.9181
-35.8311
-35.6583
-68.5647
-74.9806
-63.036
-68.2706
-45.5607
-48.1683
-45.4258
-46.9408
-75.461
-43.1455
-111.221
94.4541
-166.674
-170.825
-137.454
28.3455
-58.7773
-52.9871
-53.7325
-56.7916
-49.8531
-49.5264
-48.7431
-42.9446
-49.9267
-50.1121
-48.9812
-48.8958
-45.5041
-44.073
-44.9
-46.2241
-124.281
-118.677
-74.766
53.4389
-37.3595
-34.8624
-46.0523
-23.9133
-33.9328
-36.2734
-33.9658
-37.8091
-41.3672
-42.0575
-41.7816
-42.3997
-61.6534
-32.9097
-111.258
97.613
-59.9335
-54.2543
-55.3986
-57.6781
-52.3698
-50.8502
-52.1805
-45.4442
-49.1118
-46.7234
-48.5279
-48.1142
-36.965
-35.4906
-46.8781
-23.9199
-44.3215
-44.5927
-44.6163
-45.008
-36.7113
-36.1642
-37.2371
-36.4552
-42.4378
-44.5869
-43.255
-43.7267
-42.3043
-42.3222
-43.6343
-41.4317
-38.0894
-39.1837
-38.9273
-37.9361
-39.5244
-39.5779
-38.8286
-40.4386
-57.4068
-54.1508
-54.8287
-61.8569
51.5515
51.98
54.0635
36.9769
-58.8375
-58.9329
-61.6989
-56.9339
-36.5705
-36.2957
-37.2543
-36.5811
-42.2697
-44.5655
-43.1156
-43.6488
-37.9031
-39.1999
-38.9552
-37.6467
-57.8873
-54.7182
-54.7111
-62.231
-57.4005
-53.846
-53.5998
-51.5033
-60.4958
-56.1581
-55.9984
-54.6225
-67.2075
-62.5646
-62.7533
-58.7979
-7.96168
-0.865142
-0.828471
7.17964
207.157
202.267
197.397
206.838
-41.8246
-43.2023
-42.1458
-43.8112
-41.9507
-43.3458
-42.31
-43.9584
-37.808
-37.6175
-37.3514
-37.8128
-97.5765
-107.724
-90.1253
-98.1633
-42.7275
-43.027
-42.5237
-43.0806
-48.9159
-49.066
-47.8867
-47.1703
-52.2934
-49.853
-50.0036
-48.0202
-42.7538
-44.3
-44.7824
-45.9517
-42.6055
-42.3148
-42.5816
-43.1903
-109.87
-96.731
-114.244
71.7007
-172.271
-169.228
-143.616
47.0446
-85.8478
-70.2198
-72.0179
-79.3761
-55.926
-52.8913
-52.213
-46.2129
-52.0337
-50.1957
-49.4861
-48.9102
-44.5424
-49.4076
-45.3746
-49.0448
-35.9286
-50.2359
-106.864
93.2995
-99.0076
-127.617
-73.6372
40.8693
-50.8739
-41.4341
-54.0547
-40.3687
-46.8105
-47.4684
-47.5144
-42.1731
-33.204
-32.5418
-31.9076
-35.5655
-40.2995
-40.7285
-40.7767
-39.3938
-162.344
-174.479
-146.704
49.3558
-90.7357
-81.245
-113.252
72.7651
-86.0556
-71.8864
-71.196
-80.0141
-53.1606
-50.9286
-50.0932
-50.3431
-57.0994
-55.3251
-53.768
-47.9179
-46.1739
-51.8777
-47.5177
-50.1462
-111.436
-134.397
-74.6809
47.3537
-20.8592
-33.1365
-105.752
97.2919
-50.1354
-42.4244
-54.147
-40.5191
-41.4152
-38.9621
-38.8738
-41.8224
-51.3517
-49.9644
-51.5589
-45.3943
-44.4098
-44.1361
-44.3683
-43.3537
-45.6028
-49.4856
-54.687
-47.5776
-36.8558
-36.7633
-37.3772
-36.1508
-39.7768
-41.0363
-41.5534
-40.113
-40.8884
-41.8138
-42.7153
-40.5063
-35.2522
-43.3341
-36.6265
-41.6802
-35.7399
-35.6261
-36.4506
-35.2792
-36.1727
-37.1289
-37.1605
-35.8249
-38.8191
-39.2785
-38.2868
-39.9793
-41.237
-36.0138
-45.0235
-17.9597
-53.8771
-48.0908
-49.0039
-51.5514
-64.3846
-61.0259
-59.6802
-75.4719
-0.164437
42.0648
34.5628
11.0768
-43.4336
-42.6324
-42.7066
-45.0351
-42.3551
-40.5364
-41.8319
-40.655
-48.2225
-51.0313
-48.94
-52.8255
-51.9264
-56.6831
-56.1461
-53.4315
-45.9791
-50.092
-54.8534
-48.0009
-41.0985
-41.9752
-42.8616
-40.2531
-38.0704
-36.5726
-37.1293
-36.1133
-39.4192
-40.806
-41.1994
-39.8992
-37.0413
-44.6542
-36.4237
-42.5899
-38.9956
-39.4168
-38.4202
-40.1834
-35.843
-35.8626
-36.4898
-35.63
-35.8059
-36.6908
-36.7766
-34.7501
-40.8486
-35.0963
-45.031
-17.8231
1.05558
42.8213
34.429
11.6649
-54.2176
-48.4041
-49.4877
-52.1608
-64.961
-61.4428
-60.2513
-76.0467
-44.921
-44.6583
-44.5164
-46.7073
-52.8092
-57.0594
-56.7742
-54.2269
-43.1033
-40.8587
-42.2485
-41.2081
-48.9109
-51.5957
-49.386
-53.3924
-80.1355
-67.2931
-72.1709
-73.9302
179.98
199.956
185.463
181.059
-97.2939
-78.8824
-86.5783
-86.7967
170.932
157.52
163.644
153.602
-54.1213
-54.0693
-56.8323
-52.41
-60.0299
-61.5806
-65.3862
-57.4025
-43.4233
-42.1243
-41.9261
-41.8934
-42.1102
-42.0617
-41.4899
-42.3826
-49.3677
-53.0989
-50.2451
-50.0344
-46.1004
-45.3516
-45.6541
-45.8154
-44.163
-43.5035
-43.5779
-44.9415
-47.5252
-49.2967
-46.855
-51.605
-40.9715
-23.324
-31.2264
-31.2378
183.974
182.621
173.994
174.822
-49.9146
-53.4875
-51.6689
-58.1654
-11.5336
-3.92138
-13.3939
-0.984095
-34.5217
-36.2958
-34.5617
-35.7037
-41.9764
-41.8843
-42.7189
-42.0244
-41.8084
-42.2344
-41.4537
-42.1526
-45.2355
-44.5046
-45.9239
-43.7921
-74.7938
-68.8422
-70.3857
-72.298
185.287
199.702
182.251
188.706
-55.8863
-56.2357
-59.8507
-54.6017
-60.5739
-62.0291
-65.9641
-57.7371
-46.067
-43.6451
-44.4839
-43.5013
-44.32
-43.8218
-43.7988
-44.2895
-48.4442
-49.4138
-47.9482
-49.3026
-48.5888
-49.7693
-47.5197
-52.0846
-52.2249
-56.3345
-59.1037
-54.24
-11.8434
-4.01394
-1.15092
-13.7859
-44.8779
-45.8747
-44.9761
-44.449
-47.3215
-45.8665
-46.0282
-47.2958
-38.6705
-40.0327
-39.4662
-38.6985
-37.0526
-37.5537
-37.1166
-36.8398
-46.2988
-48.286
-48.8795
-47.451
-44.1864
-43.9186
-42.937
-45.501
-47.3756
-52.417
-49.8852
-49.8339
-38.8358
-37.9106
-38.2806
-38.2841
-39.9624
-40.9422
-39.8857
-41.215
-36.8015
-38.5647
-36.7568
-37.9898
-37.6614
-37.0831
-37.3371
-37.3056
-42.3916
-44.8854
-43.4765
-43.5883
-49.6701
-46.4555
-47.0628
-48.7449
-76.0986
-90.6145
-95.2963
-77.1416
36.1773
21.0379
25.5001
26.0952
-30.5565
-143.451
-114.403
-113.602
-69.04
-77.9447
-73.2216
-73.598
-53.078
-49.5548
-51.1837
-51.3745
-39.0511
-40.1086
-39.5879
-39.103
-37.1602
-37.597
-37.1543
-36.9465
-46.1455
-49.8305
-47.6301
-48.8675
-44.1665
-43.9813
-42.918
-45.5353
-40.0971
-41.1373
-41.4336
-40.0351
-36.2777
-40.8846
-36.4212
-38.1468
-50.172
-46.6835
-49.1748
-47.3105
-76.8519
-90.7841
-78.3742
-95.3265
-75.6352
-69.5216
-71.2833
-66.2507
-50.3126
-47.8536
-49.8129
-49.2934
-46.7909
-47.5085
-46.9428
-46.7561
-74.1507
-60.6651
-67.7431
-62.9341
-71.5918
-67.8747
-69.7769
-69.287
-72.9135
-60.7943
-65.3476
-60.7244
-47.5087
-47.8315
-48.3972
-47.2692
-51.4689
-47.8588
-51.5453
-50.0404
-97.0272
-85.4671
-85.9336
-77.1739
-97.7865
-85.7924
-86.5666
-77.8247
-48.4918
-46.5252
-51.4252
-49.4406
-48.1617
-46.35
-51.1194
-49.2723
-43.2
-35.8306
-33.4437
-26.4347
7.12818
18.8336
9.6937
19.863
7.31139
19.3216
9.71071
20.3057
-43.6111
-36.3525
-33.5691
-26.7443
141.229
130.663
134.927
158.262
152.069
165.365
171.827
175.822
166.44
154.21
175.005
172.903
139.017
139.357
149.783
134.293
-39.2523
-39.9855
-39.85
-40.8719
-37.4494
-37.5274
-38.0818
-38.5513
-43.3343
-45.5943
-43.1852
-45.0595
-51.7602
-53.963
-49.3288
-50.6512
-39.2798
-39.9247
-39.7993
-40.8685
-52.2924
-54.2547
-49.412
-50.9786
-43.713
-46.188
-43.4918
-45.3963
-37.5492
-37.6435
-38.1644
-38.6304
-37.2879
-38.2326
-37.3308
-37.9565
-38.2298
-37.3006
-37.9837
-37.3612
-37.2907
-36.6403
-37.1412
-36.7001
-36.5114
-37.1862
-36.6086
-37.058
-127.123
-42.7824
-122.847
-94.8591
-60.5103
-61.7018
-68.964
-69.7553
-62.2351
-61.2994
-71.9648
-70.0955
-44.2429
-126.694
-93.0872
-124.894
-36.8661
-35.5275
-38.2178
-36.3036
-44.7793
-43.9735
-42.2919
-42.7287
-42.2099
-41.2609
-41.5809
-41.0722
-40.8949
-39.9956
-40.7945
-39.1895
-37.0355
-33.5554
-40.6045
-36.438
-42.6229
-41.0778
-43.0247
-41.0272
-45.3923
-44.4782
-44.4104
-44.1659
-46.0491
-45.8467
-43.1347
-46.7584
-42.0451
-41.68
-43.8952
-43.0529
-42.991
-42.0693
-44.5386
-43.4149
-49.5122
-49.9729
-50.0769
-53.4913
-49.1503
-49.1823
-49.557
-52.8821
-49.4286
-51.3084
-48.5269
-50.5196
-33.5815
-35.3227
-34.2843
-36.8072
-37.7697
-39.2722
-37.2619
-40.061
-50.5703
-52.0412
-49.4614
-51.0919
-45.0301
-45.7394
-44.7463
-45.3578
-46.9258
-46.2628
-46.0704
-45.5779
-43.3879
-44.2016
-43.4022
-43.8562
-40.9254
-40.0545
-41.5803
-41.6947
-115.692
60.3617
-148.194
-3.04306
-94.8941
-105.845
-54.9595
-49.8819
-52.0015
-53.0114
-47.4114
-51.347
-100.831
98.4471
-93.1345
31.1011
-72.6131
-61.8655
-43.9607
-40.7616
-34.3736
-37.268
-40.8745
-37.787
-150.197
11.8283
-117.26
50.3682
-93.1387
-106.563
-51.9516
-52.6757
-55.7795
-51.1602
-48.7782
-51.3359
-95.1245
44.8866
-101.967
102.503
-74.3444
-62.6018
-40.5459
-43.8398
-48.3346
-45.174
-45.1678
-43.274
-40.8478
-41.3159
-37.9115
-37.5021
-39.8555
-38.8799
-41.1762
-39.5394
-31.6946
-40.9639
-36.3737
-35.839
-36.4656
-35.2206
-37.5303
-39.7022
-56.0462
-30.6762
-56.6217
-58.6961
-61.879
-86.7796
-13.9157
-71.5421
-43.515
-45.4693
-44.4681
-43.078
-46.3671
-49.6586
-50.7539
-48.1256
-40.5731
-41.4435
-41.3396
-39.0588
-37.488
-36.8898
-39.2889
-38.3967
-31.8356
-41.6148
-37.6496
-39.8698
-36.2948
-35.8577
-36.4349
-34.5419
-56.2553
-30.2792
-13.0615
-68.3219
-56.4077
-58.685
-62.3294
-88.7423
-44.8327
-46.7601
-51.7834
-49.32
-45.137
-43.9646
-46.9876
-50.3801
-116.746
78.6245
-107.868
79.1875
-93.2878
-99.7769
165.176
145.76
-137.134
16.1758
-138.552
48.2883
-111.589
-112.973
104.656
100.017
-65.0159
-65.591
-52.4623
-51.108
-56.6369
-51.9283
-63.0561
-55.2588
-49.4509
-43.9286
-48.7088
-42.8586
-46.03
-45.3265
-41.4849
-42.3617
-48.9008
-48.4994
-49.3072
-49.2041
-49.1018
-48.9652
-46.872
-47.1812
-47.088
-49.1867
-41.4208
-45.922
-43.723
-45.7058
-45.3374
-49.1568
-78.3431
107.718
-77.4309
110.199
-55.3248
-55.1668
176.376
170.106
-47.5132
-30.8724
-42.2807
-18.1912
-44.4261
-47.2536
-20.976
-13.0064
-31.9633
-36.357
-36.4874
-39.6767
-33.153
-35.1642
-40.6581
-39.4998
-41.1286
-41.1865
-42.7961
-43.7819
-41.6848
-42.1936
-45.5678
-44.9691
-116.565
82.313
-104.794
78.7014
-91.5179
-98.5633
148.05
166.827
-66.7399
-66.4198
-56.2969
-51.8128
-59.254
-53.7101
-63.4523
-55.8044
-52.3172
-46.099
-52.1434
-45.4809
-48.2293
-49.5313
-44.2011
-44.7554
-51.0594
-51.1119
-45.4019
-47.4019
-48.0956
-49.5215
-46.917
-51.1381
-48.3521
-31.1201
-43.5814
-18.4035
-48.2217
-46.1719
-13.1491
-21.3797
-44.2668
-44.5084
-45.1692
-45.851
-44.7227
-44.6649
-47.8697
-47.268
-37.3223
-35.873
-36.6676
-35.1164
-38.2534
-37.8229
-36.5478
-36.3538
-42.2985
-41.7179
-45.1986
-46.7655
-44.1015
-44.9083
-42.8008
-45.4356
-43.3646
-41.2652
-43.4561
-41.1479
-45.3303
-45.2476
-40.0807
-40.0529
-38.0292
-37.0235
-40.4
-39.4189
-39.0725
-40.2074
-36.9523
-38.2778
-38.7547
-40.25
-38.7851
-40.3778
-38.2019
-38.1551
-41.3016
-41.3816
-56.9267
-67.8101
-51.2404
-56.8696
-51.4299
-52.9191
-73.6345
-64.9141
49.4266
33.8162
50.0352
34.2847
46.1659
46.7913
12.5553
12.7152
-60.4044
-56.0548
-60.5614
-56.2941
-64.3576
-64.4543
-54.7309
-54.8664
-36.909
-35.9404
-36.727
-35.3305
-37.9172
-38.5391
-36.6087
-36.4971
-42.0019
-41.53
-45.283
-46.8099
-44.8535
-43.8341
-42.7128
-45.4341
-37.9384
-36.3551
-40.6338
-39.6213
-40.3275
-39.1009
-36.0031
-38.2794
-57.3408
-68.3604
-51.6412
-57.3201
-53.3168
-51.6488
-65.4953
-74.4095
-61.8832
-62.1045
-57.0554
-51.9002
-51.3037
-57.2429
-48.8502
-49.0087
-64.7488
-64.5834
-60.1485
-54.4572
-61.1256
-54.5452
-52.7556
-51.6585
-71.8452
-71.9544
-66.5667
-58.3078
-66.9678
-58.5615
-54.9404
-54.8169
-15.3619
-15.4412
-9.06366
4.78365
4.79609
-9.21074
13.669
13.7258
200.214
192.082
177.742
176.196
170.148