# vtk DataFile Version 2.0
tet_velo
ASCII
DATASET UNSTRUCTURED_GRID
POINTS 29498 float
-0.735 0.205 -2.15109
-0.625 0.275 2.20475
-0.735 0.755 -2.05216
-0.675 1.025 2.13699
0.735 0.205 -2.15109
0.715 0.365 2.18794
0.735 0.755 -2.05216
0.675 1.025 2.13699
-0.718774 0.207892 -0.699143
-0.695992 0.217341 0.752804
-0.817911 0.947911 -0.655777
-0.786949 1.02695 0.740607
0.772184 0.214483 -0.704747
0.828501 0.204832 0.741597
0.817906 0.947906 -0.655777
0.78696 1.02696 0.740607
-1.50215 -0.213656 -3.30774
-1.48907 -0.148965 -2.16918
-1.46399 -0.143301 -0.716192
-1.41759 -0.146742 0.748119
-1.35982 -0.101364 2.20204
-1.34845 -0.0564513 3.34521
-1.35533 -0.0111345 4.47965
-1.51162 0.112174 -3.27733
-1.50576 0.19747 -2.14478
-1.49618 0.226446 -0.701893
-1.44418 0.229222 0.746399
-1.35804 0.26228 2.19037
-1.35556 0.307005 3.33294
-1.37145 0.35442 4.4691
-1.5256 0.731454 -3.20154
-1.52873 0.814822 -2.06726
-1.57466 0.956562 -0.662138
-1.52587 1.01599 0.73955
-1.41799 1.02288 2.14611
-1.41089 1.05291 3.29359
-1.42549 1.09651 4.44014
-1.56426 1.77897 -3.12679
-1.56952 1.87657 -2.00015
-1.59592 2.02647 -0.612777
-1.60342 2.13404 0.763454
-1.57795 2.17997 2.15225
-1.55508 2.20494 3.28186
-1.54196 2.23635 4.42265
-0.748013 -0.210115 -3.31205
-0.730284 -0.141737 -2.17553
-0.700782 -0.151758 -0.717587
-0.670834 -0.153511 0.751668
-0.642245 -0.0810762 2.20997
-0.632124 -0.0403834 3.3497
-0.634422 -0.000499144 4.48108
-0.755162 0.108592 -3.27904
-0.640954 0.319377 3.33688
-0.652433 0.363531 4.46975
-0.761649 0.705528 -3.19555
-0.692898 1.05452 3.29067
-0.704953 1.10039 4.43772
-0.793483 1.76176 -3.12108
-0.792615 1.86054 -1.9938
-0.82217 2.02311 -0.609429
-0.8479 2.13901 0.761695
-0.841252 2.18349 2.14701
-0.823473 2.20704 3.27644
-0.810385 2.23862 4.41806
0.748581 -0.209172 -3.3133
0.757522 -0.140302 -2.1771
0.799141 -0.148367 -0.722871
0.832462 -0.153414 0.741876
0.762804 -0.0303279 2.19683
0.776862 -0.0010297 3.33941
0.796397 0.0247093 4.47311
0.736101 0.109106 -3.27975
0.747887 0.362402 3.32689
0.770319 0.388677 4.4622
0.734528 0.705835 -3.19603
0.700987 1.0717 3.28597
0.720786 1.11707 4.43214
0.7354 1.76248 -3.12227
0.74807 1.86116 -1.99493
0.732106 2.02369 -0.610789
0.682631 2.13968 0.759907
0.643349 2.18566 2.1446
0.641774 2.21197 3.27322
0.65233 2.24583 4.41411
1.50656 -0.211407 -3.31082
1.51905 -0.145829 -2.1731
1.56035 -0.138757 -0.725171
1.58139 -0.140575 0.73247
1.51189 -0.0441108 2.18197
1.50548 0.00147325 3.32732
1.52279 0.0323393 4.46463
1.4942 0.113729 -3.27946
1.50654 0.199402 -2.14702
1.54901 0.231571 -0.709458
1.56974 0.227899 0.731974
1.47544 0.324389 2.17091
1.47202 0.366585 3.31598
1.49406 0.397337 4.45483
1.49287 0.732469 -3.20308
1.51267 0.815505 -2.06824
1.56764 0.958476 -0.664879
1.53576 1.01428 0.734245
1.43265 1.03513 2.13868
1.42575 1.08238 3.28344
1.4457 1.12641 4.42909
1.49497 1.78061 -3.12947
1.5094 1.87805 -2.00278
1.50039 2.02795 -0.615983
1.45055 2.13594 0.759261
1.39877 2.18508 2.1468
1.38576 2.21501 3.27504
1.39105 2.25047 4.41461
-0.779717 0.48 -2.14634
0 0.191406 -2.16468
-0.728559 0.204775 -1.42512
-0.733716 0.65 2.25459
0.045 0.325766 2.19058
-0.669044 0.237623 1.47878
0 0.82105 -2.11821
-0.816752 0.891752 -1.35397
0 1.08821 2.2002
-0.754974 1.04997 1.4388
0.779732 0.48 -2.14636
0.752296 0.211037 -1.42792
0.756254 0.695 2.22372
0.81523 0.241437 1.46477
0.816739 0.891739 -1.35397
0.754947 1.04995 1.4388
-0.705286 0.214714 0.0268301
-0.886051 0.577902 -0.67746
0.0267047 0.211566 -0.701945
-0.891761 0.622145 0.746705
0.0662546 0.23427 0.7472
-0.807903 0.992903 0.042415
-2.47613e-06 1.24627 -0.655777
5.65821e-06 1.49879 0.740607
0.814882 0.195118 0.018425
0.887374 0.581194 -0.680262
0.891191 0.615896 0.741102
0.807905 0.992905 0.042415
-0.890129 0.528951 -1.38954
-0.890955 0.600023 0.0346226
-0.895891 0.636072 1.45879
0.0133524 0.210379 -1.42652
0.0464797 0.22293 0.0226275
0.0556273 0.305463 1.47177
0 0.48 -2.34496
0.0225 0.6725 2.34672
-1.23806e-06 0.977194 -1.35397
1.59104e-06 1.4864 0.042415
2.82911e-06 1.32643 1.4388
0.890105 0.530597 -1.39094
0.890672 0.598545 0.03042
0.895681 0.655448 1.45178
-1.12038 0.201235 -2.14794
-0.732642 0.0316315 -2.16331
-0.745081 0.156796 -2.71507
-0.991521 0.26864 2.19756
-0.633623 0.0969619 2.20736
-0.632977 0.297188 2.77081
-1.13187 0.784911 -2.05971
-0.748325 0.730264 -2.62385
-0.763807 1.30777 -2.02298
-1.04649 1.02394 2.14155
-0.683949 1.03976 2.71383
-0.758126 1.60425 2.142
0.746261 0.0323491 -2.1641
0.73555 0.157053 -2.71542
1.12077 0.202201 -2.14905
0.738902 0.167336 2.19238
0.731444 0.363701 2.75741
1.09522 0.344695 2.17943
0.734764 0.730418 -2.62409
0.741535 1.30808 -2.02354
1.12384 0.785253 -2.0602
0.687994 1.04835 2.71148
0.659175 1.60533 2.14079
1.05383 1.03006 2.13784
-1.10748 0.217169 -0.700518
-0.709778 0.0280673 -0.708365
-1.07009 0.223282 0.749601
-0.683413 0.031915 0.752236
-1.19629 0.952236 -0.658958
-0.82004 1.48551 -0.632603
-1.15641 1.02147 0.740078
-0.817424 1.58298 0.751151
0.785663 0.0330579 -0.713809
1.1606 0.223027 -0.707102
0.830482 0.0257089 0.741736
1.19912 0.216366 0.736785
0.775006 1.4858 -0.633283
1.19277 0.953191 -0.660328
0.734795 1.58332 0.750257
1.16136 1.02062 0.737426
-1.49561 -0.18131 -2.73846
-1.50688 -0.050741 -3.29254
-1.12508 -0.211886 -3.3099
-1.47653 -0.146133 -1.44268
-1.49742 0.0242529 -2.15698
-1.10968 -0.145351 -2.17235
-1.44079 -0.145021 0.0159635
-1.48009 0.0415726 -0.709042
-1.08239 -0.147529 -0.71689
-1.3887 -0.124053 1.47508
-1.43088 0.04124 0.747259
-1.04421 -0.150127 0.749894
-1.35413 -0.0789074 2.77362
-1.35893 0.0804582 2.1962
-1.00103 -0.0912198 2.206
-1.35189 -0.0337929 3.91243
-1.352 0.125277 3.33907
-0.990286 -0.0484174 3.34745
-1.36339 0.171643 4.47438
-0.994876 -0.0058168 4.48037
-1.50869 0.154822 -2.71105
-1.51861 0.421814 -3.23943
-1.13339 0.110383 -3.27818
-1.50097 0.211958 -1.42334
-1.51725 0.506146 -2.10602
-1.47018 0.227834 0.0222532
-1.53542 0.591504 -0.682015
-1.40111 0.245751 1.46838
-1.48503 0.622605 0.742974
-1.3568 0.284643 2.76165
-1.38802 0.642581 2.16824
-1.36351 0.330713 3.90102
-1.38322 0.679957 3.31327
-0.998257 0.313191 3.33491
-1.39847 0.725464 4.45462
-1.01194 0.358975 4.46943
-1.52717 0.773138 -2.6344
-1.54493 1.25521 -3.16417
-1.14363 0.718491 -3.19855
-1.5517 0.885692 -1.3647
-1.54912 1.3457 -2.03371
-1.55027 0.986275 0.0387056
-1.58529 1.49151 -0.637458
-1.47193 1.01944 1.44283
-1.56464 1.57502 0.751502
-1.41444 1.0379 2.71985
-1.49797 1.60143 2.14918
-1.41819 1.07471 3.86687
-1.48298 1.62892 3.28773
-1.05189 1.05371 3.29213
-1.48373 1.66643 4.43139
-1.06522 1.09845 4.43893
-1.56689 1.82777 -2.56347
-1.17887 1.77037 -3.12394
-1.58272 1.95152 -1.30647
-1.18107 1.86855 -1.99698
-1.59967 2.08026 0.0753386
-1.20905 2.02479 -0.611103
-1.59068 2.15701 1.45785
-1.22566 2.13653 0.762575
-1.56651 2.19246 2.71706
-1.2096 2.18173 2.14963
-1.54852 2.22065 3.85225
-1.18927 2.20599 3.27915
-1.17617 2.23749 4.42035
-0.739148 -0.175926 -2.74379
-0.751587 -0.0507618 -3.29555
0.000283746 -0.209644 -3.31268
-0.715533 -0.146747 -1.44656
0.0136194 -0.141019 -2.17632
-0.685808 -0.152634 0.0170404
0.0491797 -0.150062 -0.720229
-0.656539 -0.117294 1.48082
0.0808143 -0.153463 0.746772
-0.637184 -0.0607298 2.77984
0.0602796 -0.055702 2.2034
-0.633273 -0.0204413 3.91539
-0.636539 0.139497 3.34329
0.0723693 -0.0207065 3.34455
-0.643427 0.181516 4.47542
0.0809876 0.0121051 4.4771
-0.758405 0.40706 -3.23729
-0.0095305 0.108849 -3.2794
-0.646693 0.341454 3.90332
-0.666926 0.686946 3.31377
0.0534669 0.340889 3.33188
-0.678693 0.73196 4.45374
0.0589428 0.376104 4.46597
-0.777566 1.23364 -3.15831
-0.0135604 0.705682 -3.19579
-0.698926 1.07745 3.86419
-0.758186 1.63078 3.28355
0.00404435 1.06311 3.28832
-0.757669 1.66951 4.42789
0.00791631 1.10873 4.43493
-0.793049 1.81115 -2.55744
-0.0290417 1.76212 -3.12168
-0.807392 1.94182 -1.30162
-0.0222727 1.86085 -1.99437
-0.835035 2.08106 0.0761333
-0.0450319 2.0234 -0.610109
-0.844576 2.16125 1.45435
-0.0826347 2.13935 0.760801
-0.832363 2.19527 2.71172
-0.0989517 2.18458 2.1458
-0.816929 2.22283 3.84725
-0.0908494 2.20951 3.27483
-0.0790273 2.24223 4.41608
0.753052 -0.174737 -2.7452
0.742341 -0.0500329 -3.29653
1.12757 -0.210289 -3.31206
0.778332 -0.144334 -1.44999
1.13829 -0.143065 -2.1751
0.815802 -0.150891 0.00950273
1.17974 -0.143562 -0.724021
0.797633 -0.0918711 1.46935
1.20692 -0.146994 0.737173
0.769833 -0.0156788 2.76812
1.13734 -0.0372193 2.1894
0.78663 0.0118398 3.90626
0.762375 0.180686 3.33315
1.14117 0.000221778 3.33336
0.783358 0.206693 4.46765
1.15959 0.0285243 4.46887
0.735315 0.407471 -3.23789
1.11515 0.111418 -3.27961
0.759103 0.375539 3.89454
0.724437 0.71705 3.30643
1.10996 0.364493 3.32144
0.745552 0.752875 4.44717
1.13219 0.393007 4.45851
0.734964 1.23416 -3.15915
1.1137 0.719152 -3.19955
0.710887 1.09439 3.85905
0.67138 1.64184 3.27959
1.06337 1.07704 3.2847
0.686558 1.68145 4.42312
1.08324 1.12174 4.43061
0.741735 1.81182 -2.5586
1.11519 1.77155 -3.12587
0.740088 1.94242 -1.30286
1.12873 1.8696 -1.99886
0.707368 2.08168 0.0745587
1.11625 2.02582 -0.613386
0.66299 2.16267 1.45225
1.06659 2.13781 0.759584
0.642561 2.19882 2.70891
1.02106 2.18537 2.1457
0.647052 2.2289 3.84366
1.01377 2.21349 3.27413
1.02169 2.24815 4.41436
1.51281 -0.178618 -2.74196
1.50038 -0.0488389 -3.29514
1.5397 -0.142293 -1.44913
1.5128 0.0267863 -2.16006
1.57087 -0.139666 0.0036495
1.55468 0.0464073 -0.717315
1.54664 -0.0923426 1.45722
1.57556 0.0436624 0.732222
1.50868 -0.0213188 2.75465
1.49366 0.140139 2.17644
1.51414 0.0169063 3.89597
1.48875 0.184029 3.32165
1.50843 0.214838 4.45973
1.50037 0.156565 -2.71324
1.49353 0.423099 -3.24127
1.52778 0.215486 -1.42824
1.50961 0.507453 -2.10763
1.55938 0.229735 0.0112579
1.55833 0.595024 -0.687168
1.52259 0.276144 1.45144
1.55275 0.621091 0.733109
1.47373 0.345487 2.74345
1.45404 0.679759 2.1548
1.48304 0.381961 3.88541
1.44889 0.724484 3.29971
1.46988 0.761872 4.44196
1.50277 0.773987 -2.63566
1.49392 1.25654 -3.16627
1.54016 0.88699 -1.36656
1.51104 1.34678 -2.03551
1.5517 0.986379 0.034683
1.53401 1.49321 -0.640431
[...]
POINT_DATA 29498
VECTORS point_vectors float
-0.420263 -1.98888 4.26096
0.239097 0.577876 2.06758
-1.46582 0.843899 2.57639
-0.147287 -0.205166 0.233781
0.410785 -1.99502 4.28141
-0.0484244 0.0582887 0.196805
1.4749 0.849884 2.59156
0.145427 -0.199181 0.224816
0 0 0
0 0 0
0 0 0
0 0 0
-0.00195278 0.000491112 0.0437006
-0.136469 -0.00671582 2.91513
0 0 0
0 0 0
-0.554394 -0.328469 19.8665
-1.23672 -0.87785 20.5979
-0.30469 -0.523329 21.4884
0.211157 -0.175199 21.6459
0.852921 0.280703 21.5882
1.12098 0.316637 21.1361
0.987763 0.19061 21.1244
-0.703648 -0.272087 19.7484
-1.75378 -0.763203 20.5201
-0.517783 -0.690691 21.5434
0.170522 -0.391312 21.7194
1.13348 -0.0202262 21.5949
1.41335 0.00262138 21.3582
1.26808 -0.0588426 21.3471
-0.821534 0.0281721 19.6519
-2.03627 0.0758716 20.4346
-1.25747 -0.417404 21.4563
-0.316718 -0.493229 21.7867
0.568788 -0.752747 21.6286
0.978732 -0.794234 21.493
1.04618 -0.620825 20.8503
-0.538647 0.333594 19.931
-0.922713 0.573305 20.3707
-0.905347 0.39843 21.1419
-0.393101 0.00140801 21.5373
-0.0033642 -0.287906 21.4455
0.216437 -0.429049 21.3696
0.276853 -0.51851 20.5665
-0.537001 -0.663613 19.3486
-1.60358 -3.30315 21.0066
-0.0542228 -0.243422 21.4362
0.249629 0.25979 20.7895
0.454742 1.27674 19.7786
0.98165 1.75892 19.071
1.2843 1.19441 17.3575
-0.712725 -0.533873 18.9968
1.69709 1.85135 11.5238
2.2714 1.55259 13.6563
-0.979004 0.119723 18.5706
0.942846 -0.875058 6.95203
1.53199 -0.689199 14.3576
-0.486366 0.688228 19.5675
-0.984904 1.49402 20.0783
-1.26629 1.50506 21.1761
-0.525905 0.287829 21.9076
-0.148162 -0.28547 21.5984
0.0232404 -0.493757 20.9369
-0.0383994 -0.419137 21.7646
0.537258 -0.655969 19.362
1.64348 -3.18878 20.988
0.00212518 -0.247495 21.6417
-0.360314 0.223963 21.3716
-0.672853 1.31623 19.6661
-1.29989 1.56804 18.4185
-1.35385 1.03036 18.8374
0.703041 -0.549097 18.9701
-1.95635 1.51573 12.9117
-2.13813 1.27027 14.7997
0.945104 0.115762 18.518
-0.934965 -0.884526 7.39439
-1.49764 -0.788243 14.591
0.460783 0.721368 19.5328
0.966229 1.54644 20.063
1.24444 1.71508 21.1522
0.489418 0.405914 21.9818
0.182018 -0.203783 21.6559
0.0152028 -0.467285 21.1646
0.00640598 -0.459514 20.7218
0.560042 -0.326296 19.8594
1.19268 -0.811066 20.5997
0.348113 -0.498214 21.4272
-0.162722 -0.192057 21.5833
-0.749912 0.124032 21.5528
-1.00622 0.198435 21.3867
-0.982569 -0.0318211 20.8276
0.712398 -0.275094 19.7427
1.75175 -0.761024 20.519
0.528026 -0.653102 21.5068
-0.122906 -0.353019 21.6794
-0.976785 -0.144351 21.6151
-1.29315 -0.0953717 21.2725
-1.26637 -0.198791 21.1993
0.828104 0.0369789 19.6271
2.07235 0.0928407 20.4325
1.26 -0.42268 21.4684
0.316818 -0.482266 21.7883
-0.536173 -0.735018 21.6303
-0.907014 -0.80174 21.4839
-0.942294 -0.572347 20.963
0.546998 0.354822 19.9119
0.954225 0.62252 20.3618
0.978428 0.477657 21.1595
0.433187 0.0289053 21.5757
0.0241553 -0.295926 21.4909
-0.176264 -0.437199 21.2388
-0.125951 -0.399465 21.2218
-2.24369 -0.0692312 2.40529
0.00688838 -0.0718574 0.59234
0.00373724 0.00122879 0.10793
0.0339638 -0.133615 0.0974492
-0.000562952 0.00939397 0.0386946
-0.000129514 0.000595325 0.0361578
0.000183798 0.394273 0.6255
-0.205998 -0.115841 0.506003
-0.012588 0.242253 -0.341413
0 0 0
2.24182 -0.0720975 2.40929
-0.0121939 0.00577156 0.28419
-0.0137669 -0.0532199 0.0527149
0.0471273 0.0369281 1.53636
0.207231 -0.11603 0.506627
0 0 0
-1.89149e-18 -2.16787e-19 -5.41872e-17
0 0 0
-0.000612216 -0.00158962 0.0662752
-0.00035409 0.0114879 0.0786757
0.000736301 0.00808792 0.0990618
0 0 0
6.25718e-05 0.0484721 0.0948457
-7.66329e-06 -0.000886776 0.0254393
-0.0195072 0.00243658 1.55264
5.09897e-05 -0.000482048 0.042039
0.000235737 0.00881944 0.0602001
-1.82111e-17 3.28499e-17 1.09904e-16
0 0 0
-0.00010532 0.00817245 0.0653075
0.000364092 0.00272626 0.034481
0 0 0
-4.0923e-05 4.21267e-05 0.0041012
0 0 0
8.63071e-05 -0.039005 0.0101775
-0.00277424 -0.0915015 0.0406519
-1.04123e-05 0.00101456 0.00604256
6.04354e-05 0.0109722 0.0997218
-6.62393e-05 0.00220563 -0.00505826
0 0 0
9.36174e-05 0.00868551 0.0703637
-0.0011984 0.0059439 0.0729617
-3.45353 -2.01825 20.5454
-2.52372 -5.29789 21.4602
-1.97955 -1.82551 17.8944
1.50844 0.932697 15.8091
0.260167 1.4286 13.5972
0.962559 1.07768 7.78186
-4.18001 0.689912 20.2699
-2.90183 1.1001 16.7811
-2.27774 2.7229 19.7954
0.787782 -0.633488 16.7797
-0.60335 -0.948923 2.66403
-0.0906533 -0.470127 18.7384
2.59382 -5.19962 21.4259
1.9829 -1.85613 17.8568
3.44201 -2.02137 20.5449
-0.421858 1.439 11.9583
-1.34282 0.934515 8.1707
-1.53837 0.388618 18.0086
2.89505 1.11845 16.6824
2.25406 2.78907 19.7772
4.26525 0.729472 20.2616
0.597121 -0.950195 2.7219
0.0444924 -0.377918 16.9732
-0.760314 -0.641389 17.0782
-0.0810344 -0.916759 19.9622
0.344108 0.0379232 15.7912
0.305138 -0.0862085 17.3149
0.433373 0.263028 14.9437
-2.10812 -1.12159 21.6134
-3.50675 2.04788 21.2264
-0.337228 -0.677175 20.2168
-0.910024 0.0512897 21.2782
-0.337529 0.0501652 17.2613
0.206236 -0.999358 20.9118
-0.496227 0.294502 17.6372
-0.33348 -0.378098 20.6462
3.64726 2.3776 21.1052
2.1258 -1.13609 21.5889
0.71048 0.184074 19.85
0.345931 -0.690083 20.3101
-0.962261 -0.605163 20.0281
-0.6495 -0.314789 19.8231
-0.592973 -0.483518 19.6252
-0.767173 -0.732 21.3026
-1.50047 -0.865546 20.5629
-1.65413 -1.77012 20.6824
-0.0133789 -0.340281 21.5624
-0.411343 -0.631046 21.5156
-0.0710727 -0.539402 21.6764
0.490193 0.0289414 21.725
0.20689 -0.287751 21.6883
0.365592 -0.00305502 21.661
1.03402 0.363032 21.4215
1.0094 0.174863 21.6748
0.944544 0.854956 21.3405
1.30796 0.340047 20.6426
1.27869 0.169086 21.3341
1.40958 1.12799 21.2715
1.12667 0.0645748 21.2656
1.28229 0.790262 21.2226
-1.25252 -0.495073 19.8653
-0.797867 -0.136585 19.6733
-0.788339 -0.446845 19.4385
-1.11437 -0.78275 21.3921
-2.0116 -0.374006 20.4844
-0.13636 -0.553634 21.6577
-0.914503 -0.671218 21.5108
0.558684 -0.218762 21.7811
-0.0473151 -0.521561 21.8245
1.34029 0.0271344 21.4068
1.05279 -0.529533 21.5088
1.76623 0.160334 20.5617
1.39381 -0.470828 21.562
1.87808 0.996175 17.6189
1.46379 -0.708523 20.5579
1.77421 0.75046 17.5017
-1.52343 0.0991129 19.7785
-0.715868 0.263067 19.7572
-0.999745 0.0798172 19.1739
-1.61412 -0.220247 21.1557
-1.46678 0.534073 20.3497
-0.792219 -0.496209 21.7352
-1.29301 0.168713 21.2855
0.146446 -0.561984 21.8081
-0.485046 -0.201815 21.6916
0.78667 -0.850309 21.4869
0.113525 -0.510102 21.5147
0.879073 -0.666026 21.4502
0.368269 -0.628641 21.2744
1.32946 -1.01538 18.4014
0.359365 -0.455393 21.4913
1.48386 -1.3441 18.4727
-0.768421 0.479623 20.0934
-0.563266 0.513894 19.7534
-0.97208 0.520307 20.766
-1.05215 0.958924 20.2572
-0.689274 0.21776 21.4428
-1.18475 0.809769 21.2049
-0.150203 -0.178078 21.4475
-0.480381 0.0980981 21.7144
0.0876424 -0.358338 21.291
-0.0601915 -0.314695 21.4933
0.27507 -0.626347 20.6559
0.133056 -0.478807 21.1341
0.0284725 -0.421062 21.7715
-1.15579 -1.74727 19.1516
-0.62451 -0.59961 19.1704
-3.15569e-05 -0.841007 19.0732
-0.48621 -0.962543 22.1694
0.0435134 -4.38099 21.6531
0.112105 0.0233702 21.0354
0.0393533 -0.385383 20.9209
0.33354 0.565793 20.2272
0.00729176 0.204146 19.983
0.693036 1.55187 19.7349
-0.0289419 0.894473 17.5451
0.722046 1.83112 19.9797
1.35159 2.05113 16.3934
-0.0651605 1.70004 17.6775
1.77785 1.3735 15.5069
-0.269808 1.98415 17.468
-0.906847 -0.240093 18.6723
-0.0116011 -0.753483 18.4866
2.02709 1.70243 12.2064
2.28759 -0.153505 6.36957
-0.00562394 1.39377 5.78651
2.39024 0.593275 13.1976
-0.312858 2.06652 12.593
-0.776901 0.688631 19.045
-0.0240551 0.272142 17.8171
1.42289 -0.770433 8.98557
0.204857 -0.989352 19.0349
0.0862865 2.15464 -6.02182
0.198958 -1.06752 16.7626
0.0126126 1.85651 -2.46411
-0.747335 1.15191 19.6791
-0.0177444 0.907155 19.3059
-1.18917 1.53619 20.549
-0.0418271 2.11647 19.8799
-0.99741 0.965855 21.8345
-0.118443 2.69863 21.0531
-0.258457 -0.104605 21.7419
-0.068834 0.672212 22.1628
-0.0610657 -0.431005 21.5362
-0.0185731 -0.0764916 21.6407
0.0349955 -0.674414 20.7403
0.0249899 -0.470461 21.414
-0.0122751 -0.352882 22.0111
1.1608 -1.70023 19.1956
0.619799 -0.6036 19.1637
0.594554 -0.477767 19.6274
0.4759 -0.93116 22.1773
1.63868 -1.67073 20.6738
-0.195818 -0.0112408 21.4333
0.134428 -0.571643 21.6079
-0.477972 0.568515 20.6257
-0.31995 -0.132238 21.6998
-0.980379 1.51237 19.9486
-1.06469 0.547173 21.3716
-1.03392 1.37543 20.2349
-1.66361 1.93919 15.892
-1.39938 0.74114 21.1618
-1.8362 1.2356 16.7753
-1.19522 0.502092 21.3284
0.880471 -0.242586 18.6251
0.793259 -0.455652 19.4147
-2.0608 1.22801 13.7417
-2.36617 -0.494187 7.20955
-1.90274 0.422109 18.9537
-2.31871 0.303502 14.1728
-1.65871 0.454554 18.5611
0.744 0.718146 18.9799
0.992399 0.0817622 19.1447
-1.37184 -0.808694 9.47857
-0.017445 -0.952407 17.462
-1.24364 -0.9971 18.5201
-0.189604 -1.1102 16.1486
-1.45262 -1.29201 18.5606
0.728227 1.19407 19.6607
0.553177 0.539867 19.7155
1.15751 1.64091 20.5212
1.05833 1.029 20.2294
0.959426 1.16395 21.9064
1.22736 0.952496 21.215
0.251292 -0.0344152 21.7627
0.517822 0.174229 21.7866
0.110579 -0.357083 21.6251
0.106223 -0.297189 21.5315
-0.032153 -0.667634 20.9064
-0.125874 -0.532619 21.0206
-0.00311954 -0.40558 21.8433
0.947901 -0.582 20.0397
0.652379 -0.311989 19.8276
0.775838 -0.666437 21.2476
1.46782 -0.820133 20.5622
0.0656817 -0.336549 21.5401
0.442845 -0.579283 21.4652
-0.427286 -0.0461722 21.6246
-0.145962 -0.267901 21.5902
-0.940719 0.211281 21.4333
-0.880984 0.0133786 21.6324
-1.1317 0.174554 20.7379
-1.15816 0.126954 21.2225
-1.13655 -0.121015 21.0061
1.2907 -0.518564 19.8479
0.801403 -0.140206 19.6582
1.11452 -0.75142 21.3593
2.05182 -0.379164 20.4948
0.176289 -0.502223 21.5997
0.893811 -0.655231 21.4972
-0.470807 -0.247683 21.7855
0.0638335 -0.472872 21.7914
-1.18031 -0.0989135 21.4935
-0.910255 -0.509597 21.6157
-1.38471 -0.0351005 20.9582
-1.2652 -0.440156 21.4636
-1.20404 -0.547799 20.9867
1.53984 0.110148 19.7472
0.725316 0.27465 19.7357
1.62889 -0.237274 21.1705
1.51607 0.57682 20.3391
0.796261 -0.499748 21.7342
1.3797 0.164738 21.3072
-0.132877 -0.554493 21.7979
0.516683 -0.197741 21.7495
-0.730332 -0.831968 21.5144
-0.0989446 -0.548486 21.5709
-0.807439 -0.673451 21.4289
-0.313564 -0.664677 21.2824
-0.283925 -0.414481 21.7556
0.785417 0.51877 20.0582
1.03377 0.581012 20.7646
0.74623 0.270899 21.4777
0.166095 -0.180814 21.5312
-0.048338 -0.373583 21.2862
-0.109522 -0.511942 21.35
-1.11746 -0.587662 19.9522
-1.5579 -1.91304 18.6256
-1.16697 -1.0576 19.6824
-1.75584 -0.957186 19.1972
-0.708159 -0.477099 19.5278
-2.41831 -2.05801 20.6391
-0.946276 -0.791493 21.3445
-0.18459 -0.274248 18.1999
-0.639369 -1.03114 21.7022
-1.02706 -1.50964 22.0044
0.0117752 -0.717926 21.4281
-0.0622979 -0.462593 21.6199
0.366799 0.150526 15.0421
0.182434 -0.252112 21.6644
0.194472 -0.435226 18.1953
0.455592 -0.080844 20.5135
0.538463 -0.0821649 21.7681
0.312669 0.471208 13.9152
0.58969 0.332477 21.5678
0.495357 0.306633 16.1681
1.25505 1.01303 19.4341
1.23294 0.230216 21.366
0.62688 1.72591 14.7975
1.21176 1.02292 21.0698
1.86613 0.855713 16.9644
1.64317 1.224 19.1968
1.70408 0.225745 20.3759
1.19519 1.6828 16.2313
1.21598 0.960868 21.3209
1.95024 0.446868 19.0754
1.5519 0.789376 19.3622
-1.47011 -0.237565 19.7788
-2.80418 -0.656969 16.749
-2.31349 0.365767 18.877
-0.968609 -0.181741 19.2136
-4.56736 -0.759344 20.3744
-1.45823 -0.572759 21.3293
-2.58749 -0.514353 21.6209
-0.773405 -1.32534 20.3491
-0.452434 -0.624523 21.7344
-1.18297 -1.10454 21.1388
0.152949 -0.189519 17.7753
0.42489 -0.467961 21.794
0.416943 -0.286641 18.5591
1.40135 -0.126257 14.3274
1.26315 -0.551324 21.3356
0.579601 -0.731671 3.0381
0.87088 -0.89958 17.8451
2.11474 -0.371244 15.7442
1.29269 -0.369664 21.2536
2.51033 1.03143 9.5152
1.71414 -1.32732 18.6617
1.95339 -0.258248 17.1026
-1.13101 0.446649 19.9239
-1.52422 1.69963 18.8333
-0.825384 0.791807 19.9103
-0.796124 0.442212 19.4295
-2.04444 1.26244 20.1525
-1.44448 0.344892 20.8802
-2.53168 1.98592 20.4923
-1.18846 0.943191 20.7077
-2.15127 0.506977 21.3959
-0.938664 -0.0297001 21.6243
-2.52114 0.705179 22.4149
-0.891959 0.467448 21.6191
-0.713163 -0.173012 22.014
-0.127155 -0.358599 21.6472
-0.103891 -0.336879 19.5227
-0.212345 -0.16734 21.6234
-0.0609538 -0.674754 21.6238
0.262109 -0.615035 21.4727
-0.0288164 -0.66343 19.0807
0.0147641 -0.388208 21.3521
0.280392 -0.953925 21.3991
0.534391 -0.719772 20.8072
0.200005 -1.11452 18.1526
0.00112543 -0.422566 22.0171
0.234805 -0.672777 19.8982
1.56219 -1.89883 18.6437
0.0177539 -2.60655 18.5797
-0.0115003 -3.10205 16.1486
-0.00473147 -0.83637 18.7555
0.0417497 -6.23546 23.4021
0.129379 -0.304068 19.084
0.0543028 -1.23913 22.4465
0.00141821 -0.0306761 12.3285
-0.398452 0.118075 17.3939
0.022612 -0.0977212 20.1773
-0.0288337 0.272478 12.2838
-0.39794 0.518491 14.9817
-0.00767687 0.40464 18.6313
-0.0130654 0.742167 9.70282
-1.09502 1.62042 14.6722
-0.0507513 1.21366 17.7288
-0.0516714 0.0521596 3.25071
-0.00492506 1.87096 12.2856
-1.50954 1.28724 15.9316
-0.188578 2.12031 17.4598
-0.17507 1.65628 7.18494
-0.386173 2.06228 15.1496
2.79535 -0.6782 16.6756
-0.0386896 2.4578 14.0165
-0.0182286 -0.378143 17.9869
-0.538607 -0.911935 3.74741
0.0382361 0.942429 -4.36448
-0.145896 1.10636 -1.1923
-2.52023 0.839916 10.4335
0.0829217 2.32957 -6.24332
-0.156044 2.25046 2.79546
1.49808 1.74747 18.7588
-0.0323624 1.65125 19.3498
-0.0201266 0.971692 18.5726
-0.0348147 4.18921 19.4339
2.51584 2.12161 20.4421
-0.0735986 2.34156 20.2936
-0.115482 5.66365 20.0629
2.73354 0.913356 22.3022
-0.102339 1.89384 22.1583
-0.0595555 0.589911 18.5433
-0.0722806 -0.317822 18.0796
-0.0505053 0.102387 21.7842
-0.0626967 0.0851793 10.2003
0.0669053 -0.581728 17.9407
-0.0329839 -0.249876 21.5291
-0.0844568 -0.467226 11.0651
-0.19243 -1.16208 16.9293
-0.00473345 -0.574936 21.2408
0.0157326 -1.06807 15.0478
1.11568 -0.590271 19.9692
1.16412 -1.03752 19.6969
1.76955 -0.968751 19.1724
0.714852 -0.486109 19.5178
2.38069 -1.97713 20.63
0.935238 -0.722884 21.3017
0.690141 -1.01196 21.627
1.08238 -1.47206 22.0783
0.109683 -0.762225 21.6301
0.121495 -0.426254 21.5598
-0.116569 -0.340801 21.6564
-0.104993 -0.648957 20.6808
-0.382619 -0.260904 21.5296
-0.437588 -0.13825 21.6843
-0.594444 0.134835 21.7132
-0.665261 -0.0208999 19.7294
-1.37312 0.564625 20.1171
-1.08699 0.0937715 21.4557
-1.2389 0.704509 21.1327
-1.81895 0.36491 19.225
-1.5334 0.701503 20.3016
-1.32097 -0.0116231 20.7517
-1.371 0.587793 21.0387
-2.13481 0.237936 19.4028
-1.39371 0.463191 20.5024
1.49422 -0.246579 19.7512
2.35658 0.402134 18.8048
0.978283 -0.184121 19.1887
4.60356 -0.775194 20.3703
1.45301 -0.572465 21.3119
2.60978 -0.529785 21.6294
0.847013 -1.33163 20.9399
0.45535 -0.591548 21.689
1.19079 -1.11017 21.1585
-0.135876 -0.430273 19.416
-0.358973 -0.434613 21.8296
-0.393352 -0.332374 18.7802
-1.35306 -0.245798 16.3573
-1.14943 -0.553692 21.4225
-0.825664 -0.902041 18.1246
-1.91883 -0.479944 16.9763
-1.10537 -0.403862 21.3375
-1.59539 -1.27646 18.8292
-1.83469 -0.530559 17.9754
1.16474 0.47941 19.8974
0.823082 0.849024 19.8725
0.788962 0.466136 19.3809
2.08429 1.35329 20.1239
1.51456 0.366332 20.8889
1.19996 1.03744 20.6859
2.27179 0.573969 21.4013
1.00383 -0.0290187 21.6699
0.952985 0.626812 21.6863
0.786954 -0.163512 22.0893
0.134446 -0.379478 21.6955
0.241345 -0.137005 21.6458
0.134702 -0.66318 21.5852
-0.237062 -0.641356 21.4807
0.023461 -0.404217 21.4418
-0.225804 -0.940688 21.5778
-0.66078 -0.685448 20.5001
0.000200218 -0.493613 21.8908
-0.214129 -0.715733 19.3668
-1.47474 -1.07038 19.4493
-0.715025 -1.23864 21.9261
0.285468 -0.363099 20.8704
0.67747 0.306586 19.8032
1.52845 1.07571 19.4825
1.55397 0.69413 19.8983
-2.27449 -0.362086 18.8501
-1.87629 -1.2051 22.1291
-0.153943 -0.827664 18.8323
0.52905 0.231885 16.2824
1.64921 -0.360024 15.4915
2.01449 0.0441461 16.7902
-1.43253 0.916317 19.4838
-2.08901 0.840248 20.8309
-1.48906 0.115284 21.9959
-0.235254 -0.456735 21.8323
0.0822921 -0.799381 21.4837
0.534426 -1.06006 21.0472
0.00555579 -3.04878 17.6462
0.0483796 -0.431974 14.9516
-0.0317324 0.0660437 11.938
-0.0446181 0.283751 10.4336
-0.0569483 0.842001 10.4965
-0.209796 1.86509 12.2522
-0.0223523 -0.943745 13.9147
-0.00120146 0.0598437 -1.01028
-0.215026 1.42304 3.09516
-0.0395942 2.71968 18.0497
-0.0683663 3.68586 19.7482
-0.111944 3.23632 21.6285
-0.0282575 -0.0778494 13.3651
-0.110683 0.0593585 10.5387
-0.0211764 -0.671755 11.3479
1.47574 -1.06545 19.4534
0.780461 -1.19732 21.8328
-0.163609 -0.498955 21.593
-0.694248 0.0554097 21.0512
-1.62 0.641751 20.273
-1.74713 0.424339 20.3968
2.3111 -0.365992 18.8016
1.87848 -1.1978 22.1323
0.220778 -0.922551 19.9555
-0.57596 -0.0411322 18.3117
-1.6025 -0.470954 17.5505
-1.84891 -0.123623 17.9224
1.45465 0.98356 19.4247
2.15087 0.921508 20.808
1.63433 0.184229 22.0769
0.272633 -0.472108 21.8193
-0.0332071 -0.815808 21.509
-0.366351 -1.08882 21.7011
-2.04553 -0.843198 1.83036
-0.0129628 -0.082069 0.507314
-0.0264296 0.0122306 0.296781
0.0321592 -0.00792706 0.0505933
-0.0036315 0.010786 0.0437051
-0.0135702 0.0140049 0.178334
-0.371817 0.0500353 0.459549
-0.0571444 0.704772 1.21175
-0.231394 0.020058 0.799674
-0.00664315 -0.0830896 0.0424096
-0.197334 0.0792929 -0.189799
-0.00155997 -0.0029188 0.00800344
0.0149948 -0.0818357 0.566305
2.17267 -0.901886 1.94513
0.0235594 0.0126347 0.298061
0.000742612 0.0160171 0.0488648
-0.0385184 -0.00615948 0.0611711
-0.0310718 0.178714 0.866128
0.0584004 0.700843 1.20614
0.241502 0.0318961 0.298132
0.230346 0.0198341 0.797576
0.186733 0.0885802 -0.206966
0.00363623 -0.0450554 0.0242626
0.00154277 -0.00293693 0.0082944
0.00990951 -0.00146001 0.116078
0 0 0
0 0 0
0 0 0
-0.000819432 0.00419677 0.0604834
0 0 0
0 0 0
0 0 0
-0.158225 -0.138075 0.446533
-0.00180422 -0.00345786 0.0849192
0 0 0
-0.0565742 0.0472215 0.120413
0 0 0
0.00188664 0.00897338 0.0423363
0 0 0
0.0362097 -0.000651068 0.217586
-0.0300051 -0.0132937 0.524848
0 0 0
-0.0390016 0.000361366 0.829131
0 0 0
-0.0396342 0.0244301 1.13503
-0.00112442 0.000274256 0.0133226
-0.0569383 0.0305794 1.40114
8.0214e-05 0.000289643 0.00468503
0.156904 -0.136935 0.44292
0.0498261 0.0412428 0.105783
0.00188589 -0.00352752 0.0895273
0 0 0
0 0 0
-0.0359515 -0.000585509 0.216863
-0.00185723 0.00881688 0.0415181
0 0 0
-0.0114062 -0.0170212 0.154706
-0.221335 -0.00831746 0.0905474
0 0 0
0 0 0
-0.00093934 -0.00263172 0.0528252
0 0 0
0.000173125 -9.55926e-05 0.00120686
-0.0346823 -0.0976451 0.0168069
0.00824847 -0.0146346 0.350182
-1.33769e-08 -7.61479e-07 -3.63693e-08
0.000827026 0.0137781 0.170631
0 0 0
-0.001052 0.987446 0.713478
-5.32989e-06 0.00301658 0.0151223
-0.00505958 -0.0300765 0.160345
-0.00317592 0.000963542 0.00732136
-0.000383467 -0.00690761 0.000601167
0 0 0
0.00636949 0.00627787 0.0867601
-0.00215505 0.000607596 -0.00121725
0.222403 -0.00927094 0.0908093
0.0113226 -0.0155571 0.149358
0 0 0
0.000625603 -0.0018239 0.0357472
0.0612529 -0.117262 0.0485953
-0.00064048 -0.000523795 0.00420204
0 0 0
-0.000539006 0.00347984 0.0504451
0.00424125 0.00128281 0.00976098
0.00541355 -0.0322772 0.170874
0.00213223 0.000642709 -0.00125482
-0.00526712 0.00469771 0.0718381
0 0 0
-3.55971e-18 -1.03058e-18 -5.95779e-17
0 0 0
-3.94562e-05 0.00837795 0.114629
-0.00012806 0.001377 0.0447674
0 0 0
-0.000186439 0.0207153 0.146063
5.71396e-05 0.00455005 0.0430738
-0.000156853 0.000177597 0.0128008
-4.58911e-06 2.49018e-05 0.000332742
0.000902902 0.0113585 0.0600143
-0.0581404 0.0449907 0.469388
0.000242092 0.0027869 0.00974672
-2.52203e-05 0.142149 0.376724
-6.36394e-08 0.000191107 0.00671859
-1.26402e-05 -0.00114121 0.00575861
0 0 0
0 0 0
0 0 0
3.21205e-05 0.00925305 0.122857
4.75924e-05 0.0221532 0.159674
-4.58332e-05 0.00246794 0.023031
0.057886 0.0447521 0.467525
-0.00067581 0.00706695 0.0366652
-0.00390566 -0.0145586 0.115456
-0.0423503 -0.0356196 0.323995
0 0 0
-0.00156151 -0.0115138 0.067001
0 0 0
0.00287849 0.0255666 0.10384
0 0 0
0.00073249 0.00371273 0.0168008
0 0 0
0.000815358 0.0058489 0.038531
0 0 0
0.00401436 -0.00623879 0.0422528
0 0 0
0 0 0
0.00107664 0.00021277 0.0121974
-0.00666317 0.00271779 0.0528245
0 0 0
0 0 0
0 0 0
0 0 0
0 0 0
-3.42627e-05 4.33431e-05 0.000626105
-0.0168552 -0.0182204 0.304679
0 0 0
0 0 0