# vtk DataFile Version 2.0
tet_velo
ASCII
DATASET UNSTRUCTURED_GRID
POINTS 29498 float
-0.845 0.355 -2.49333
-0.818378 0.365 2.575
-0.836646 0.735 -2.405
-0.805 0.90856 2.525
0.845 0.355 -2.49333
0.818383 0.365 2.575
0.836642 0.735 -2.405
0.805 0.90856 2.525
-0.857006 0.337454 -0.803887
-0.861407 0.327511 0.885557
-0.861886 0.828642 -0.761667
-0.843292 0.87845 0.881667
0.857006 0.337455 -0.803887
0.861416 0.327506 0.885557
0.861888 0.828646 -0.761667
0.843191 0.878351 0.881667
-1.69891 0.085288 -3.84439
-1.69944 0.111582 -2.5113
-1.7061 0.0956444 -0.820666
-1.70186 0.0748692 0.879249
-1.67468 0.0946813 2.57067
-1.6667 0.121768 3.90758
-1.66915 0.149232 5.23741
-1.69822 0.309147 -3.8168
-1.69906 0.347607 -2.48875
-1.70862 0.34671 -0.807087
-1.69933 0.337924 0.878727
-1.6595 0.363663 2.56127
-1.65646 0.39066 3.89754
-1.66367 0.41674 5.22887
-1.69496 0.732233 -3.74868
-1.69465 0.768456 -2.41873
-1.70921 0.83611 -0.768496
-1.68757 0.876181 0.878467
-1.64825 0.906094 2.52958
-1.65036 0.930547 3.86775
-1.66075 0.953301 5.20652
-1.69379 1.43637 -3.68117
-1.69451 1.48342 -2.35812
-1.69876 1.56661 -0.722844
-1.69414 1.64319 0.902498
-1.68194 1.69441 2.53826
-1.67601 1.72241 3.86232
-1.67541 1.74521 5.19605
-0.84961 0.0895441 -3.84736
-0.846448 0.11812 -2.51564
-0.853118 0.0920495 -0.820084
-0.858289 0.0666947 0.885078
-0.839851 0.0926078 2.58086
-0.833645 0.120658 3.9145
-0.835348 0.148308 5.24141
-0.850031 0.30916 -3.81772
-0.825569 0.390856 3.90324
-0.831466 0.416568 5.23189
-0.847095 0.718338 -3.74298
-0.821038 0.93218 3.86683
-0.829703 0.954361 5.20632
-0.844322 1.42574 -3.67554
-0.843778 1.4728 -2.35191
-0.849925 1.56259 -0.7191
-0.851969 1.64513 0.902049
-0.846219 1.69771 2.53505
-0.841834 1.72514 3.85911
-0.840717 1.74721 5.19372
0.845977 0.0895413 -3.84736
0.851104 0.118119 -2.51564
0.857585 0.0920469 -0.820084
0.851327 0.0666872 0.885078
0.823013 0.0926033 2.58086
0.824578 0.120651 3.9145
0.828296 0.148297 5.24141
0.841932 0.309158 -3.81772
0.821914 0.390851 3.90324
0.827104 0.416558 5.23189
0.840178 0.718336 -3.74298
0.817487 0.932172 3.86683
0.825291 0.954348 5.20632
0.851891 1.42573 -3.67554
0.854472 1.47279 -2.35191
0.849603 1.56257 -0.7191
0.835287 1.64509 0.902048
0.824065 1.69768 2.53505
0.82364 1.72511 3.85911
0.82642 1.74718 5.19372
1.69572 0.0852801 -3.84439
1.70134 0.111576 -2.5113
1.7092 0.0956288 -0.820666
1.70056 0.0748425 0.879249
1.66874 0.094664 2.57067
1.66169 0.121749 3.90758
1.66409 0.149208 5.23741
1.69199 0.309141 -3.8168
1.69773 0.347604 -2.48875
1.70943 0.346693 -0.807087
1.70245 0.337885 0.878727
1.66323 0.363649 2.56127
1.65654 0.390643 3.89754
1.6612 0.416716 5.22887
1.6899 0.732226 -3.74868
1.69393 0.768452 -2.41873
1.7096 0.836084 -0.768496
1.68992 0.876082 0.878466
1.65188 0.906061 2.52958
1.65042 0.930522 3.86775
1.65814 0.953271 5.20652
1.69986 1.43635 -3.68117
1.70244 1.4834 -2.35812
1.69838 1.56656 -0.722844
1.68164 1.64312 0.902497
1.66493 1.69435 2.53826
1.66104 1.72236 3.86232
1.66289 1.74517 5.19605
-0.850813 0.545 -2.45915
0 0.339681 -2.50865
-0.891044 0.306185 -1.64861
-0.840267 0.63678 2.57858
2.5034e-06 0.37032 2.56968
-0.864867 0.321281 1.73028
-1.99676e-06 0.783996 -2.454
-0.859775 0.79233 -1.58333
0 0.88444 2.50088
-0.830028 0.899387 1.70333
0.851497 0.545 -2.45984
0.891044 0.306187 -1.64861
0.840294 0.63678 2.5786
0.864885 0.321268 1.73028
0.859773 0.792331 -1.58333
0.830026 0.899385 1.70333
-0.859307 0.332382 0.040835
-0.880427 0.583048 -0.782777
-1.20425e-07 0.179313 -0.803887
-0.880024 0.60298 0.883612
4.35579e-06 0.19724 0.885557
-0.852277 0.853234 0.0600001
6.49731e-07 1.16912 -0.761667
-5.01275e-05 1.38889 0.881667
0.859314 0.332378 0.040835
0.880431 0.583051 -0.782777
0.880025 0.602928 0.883612
0.852481 0.85344 0.0600001
-0.895016 0.564024 -1.61597
-0.88234 0.593014 0.0504175
-0.895368 0.61988 1.71681
-6.02123e-08 0.220337 -1.64861
2.11768e-06 0.187526 0.040835
3.42959e-06 0.264289 1.73028
-9.98378e-07 0.545 -2.60995
1.2517e-06 0.63678 2.51932
-6.73512e-07 0.927171 -1.58333
-2.47389e-05 1.40066 0.0600001
-2.50638e-05 0.984262 1.70333
0.895017 0.564025 -1.61597
0.88234 0.59299 0.0504175
0.895369 0.619854 1.71681
-1.27203 0.351303 -2.49104
-0.845724 0.23656 -2.50449
-0.847516 0.33208 -3.15552
-1.23894 0.364331 2.56814
-0.829115 0.228804 2.57793
-0.821973 0.377928 3.23912
-1.26565 0.751728 -2.41186
-0.84187 0.726669 -3.07399
-0.840212 1.1039 -2.37846
-1.22663 0.907327 2.52729
-0.813019 0.92037 3.19592
-0.82561 1.30314 2.53003
0.848052 0.236559 -2.50449
0.843466 0.332079 -3.15552
1.27136 0.351302 -2.49104
0.820698 0.228802 2.57793
0.820148 0.377925 3.23912
1.24081 0.364324 2.56814
0.83841 0.726668 -3.07399
0.845557 1.10389 -2.37846
1.26528 0.751726 -2.41186
0.811243 0.920366 3.19592
0.814532 1.30312 2.53003
1.22844 0.907311 2.52729
-1.28281 0.342082 -0.805487
-0.855062 0.214752 -0.811985
-1.28037 0.332717 0.882142
-0.859848 0.197103 0.885318
-1.28555 0.832376 -0.765082
-0.855906 1.19562 -0.740383
-1.26543 0.877315 0.880067
-0.84763 1.26179 0.891858
0.857295 0.214751 -0.811986
1.28322 0.342074 -0.805487
0.856372 0.197097 0.885318
1.28193 0.332695 0.882142
0.855745 1.19561 -0.740383
1.28574 0.832365 -0.765082
0.839239 1.26172 0.891858
1.26656 0.877217 0.880067
-1.69917 0.098435 -3.17785
-1.69857 0.197218 -3.8306
-1.27426 0.087416 -3.84588
-1.70277 0.103613 -1.66598
-1.69925 0.229594 -2.50003
-1.27294 0.114851 -2.51347
-1.70398 0.0852568 0.0292915
-1.70736 0.221177 -0.813877
-1.27961 0.0938469 -0.820375
-1.68827 0.0847752 1.72496
-1.7006 0.206396 0.878988
-1.28008 0.0707819 0.882164
-1.67069 0.108225 3.23912
-1.66709 0.229172 2.56597
-1.25726 0.0936445 2.57576
-1.66792 0.1355 4.5725
-1.66158 0.256214 3.90256
-1.25017 0.121213 3.91104
-1.66641 0.282986 5.23314
-1.25225 0.14877 5.23941
-1.69864 0.328377 -3.15278
-1.69659 0.52069 -3.78274
-1.27413 0.309154 -3.81726
-1.70384 0.347158 -1.64792
-1.69685 0.558031 -2.45374
-1.70398 0.342317 0.0358201
-1.70891 0.59141 -0.787792
-1.67942 0.350793 1.72
-1.69345 0.607052 0.878597
-1.65798 0.377161 3.22941
-1.65388 0.634878 2.54543
-1.66006 0.4037 4.5632
-1.65341 0.660603 3.88264
-1.24101 0.390758 3.90039
-1.66221 0.68502 5.2177
-1.24757 0.416654 5.23038
-1.6948 0.750344 -3.0837
-1.69438 1.0843 -3.71493
-1.27103 0.725286 -3.74583
-1.70193 0.802283 -1.59361
-1.69458 1.12594 -2.38842
-1.69839 0.856145 0.0549852
-1.70398 1.20136 -0.74567
-1.66791 0.891137 1.70402
-1.69085 1.25968 0.890482
-1.64931 0.91832 3.19867
-1.6651 1.30025 2.53392
-1.65556 0.941924 4.53714
-1.66318 1.32648 3.86503
-1.2357 0.931363 3.86729
-1.66808 1.34926 5.20128
-1.24523 0.953831 5.20642
-1.69415 1.4599 -3.01965
-1.26906 1.43105 -3.67836
-1.69664 1.52501 -1.54048
-1.26915 1.47811 -2.35502
-1.69645 1.6049 0.089827
-1.27434 1.5646 -0.720972
-1.68804 1.6688 1.72038
-1.27306 1.64416 0.902273
-1.67897 1.70841 3.20029
-1.26408 1.69606 2.53666
-1.67571 1.73381 4.52918
-1.25892 1.72377 3.86072
-1.25807 1.74621 5.19489
-0.848029 0.103832 -3.1815
-0.84982 0.199352 -3.83254
-0.00181627 0.0895427 -3.84736
-0.849783 0.105085 -1.66786
0.00232825 0.11812 -2.51564
-0.855703 0.0793721 0.0324972
0.00223354 0.0920482 -0.820084
-0.84907 0.0796512 1.73297
-0.00348075 0.066691 0.885078
-0.836748 0.106633 3.24768
-0.00841907 0.0926055 2.58086
-0.834496 0.134483 4.57795
-0.829607 0.255757 3.90887
-0.00453335 0.120654 3.9145
-0.833407 0.282438 5.23665
-0.00352558 0.148303 5.24141
-0.848563 0.513749 -3.78035
-0.00404945 0.309159 -3.81772
-0.828517 0.403712 4.56757
-0.823303 0.661518 3.88504
-0.00182765 0.390854 3.90324
-0.830585 0.685464 5.21911
-0.00218096 0.416563 5.23189
-0.845708 1.07204 -3.70926
-0.00345852 0.718337 -3.74298
-0.82537 0.94327 4.53658
-0.831436 1.32866 3.86297
-0.0017755 0.932176 3.86683
-0.83521 1.35078 5.20002
-0.00220646 0.954354 5.20632
-0.84405 1.44927 -3.01372
0.00378466 1.42573 -3.67554
-0.846852 1.51769 -1.53551
0.00534711 1.47279 -2.35191
-0.850947 1.60386 0.0914745
-0.000161114 1.56258 -0.7191
-0.849094 1.67142 1.71855
-0.00834059 1.64511 0.902048
-0.844026 1.71143 3.19708
-0.0110772 1.6977 2.53505
-0.841275 1.73617 4.52642
-0.00909689 1.72512 3.85911
-0.00714844 1.74719 5.19372
0.848541 0.10383 -3.1815
0.843955 0.19935 -3.83254
1.27085 0.0874107 -3.84588
0.854345 0.105083 -1.66786
1.27622 0.114847 -2.51347
0.854456 0.079367 0.0324971
1.28339 0.0938379 -0.820375
0.83717 0.0796452 1.73297
1.27595 0.0707648 0.882164
0.823796 0.106627 3.24768
1.24587 0.0936336 2.57576
0.826437 0.134474 4.57795
0.823246 0.255751 3.90887
1.24313 0.1212 3.91104
0.8277 0.282428 5.23665
1.2462 0.148753 5.23941
0.841055 0.513747 -3.78035
1.26696 0.30915 -3.81726
0.824509 0.403704 4.56757
0.8197 0.661511 3.88504
1.23923 0.390747 3.90039
0.826197 0.685453 5.21911
1.24415 0.416637 5.23038
0.846034 1.07203 -3.70926
1.26504 0.725281 -3.74583
0.821389 0.94326 4.53658
0.820563 1.32864 3.86297
1.23395 0.931347 3.86729
0.825855 1.35077 5.20002
1.24171 0.95381 5.20642
0.853182 1.44926 -3.01372
1.27587 1.43104 -3.67836
0.852038 1.51768 -1.53551
1.27845 1.47809 -2.35502
0.842445 1.60383 0.0914743
1.27399 1.56456 -0.720972
0.829676 1.67139 1.71855
1.25847 1.6441 0.902273
0.823852 1.7114 3.19708
1.2445 1.69602 2.53666
0.82503 1.73615 4.52642
1.24234 1.72374 3.86071
1.24465 1.74618 5.19489
1.69853 0.098428 -3.17785
1.69385 0.197211 -3.83059
1.70527 0.103602 -1.66598
1.69954 0.22959 -2.50003
1.70488 0.0852356 0.0292914
1.70932 0.221161 -0.813877
1.68465 0.0847532 1.72496
1.70151 0.206364 0.878988
1.66521 0.108207 3.23912
1.66598 0.229156 2.56597
1.66289 0.135478 4.5725
1.65911 0.256196 3.90256
1.66265 0.282962 5.23314
1.69486 0.328372 -3.15278
1.69095 0.520684 -3.78274
1.70358 0.347148 -1.64792
1.69583 0.558028 -2.45374
1.70594 0.342289 0.03582
1.70951 0.591388 -0.787792
1.68284 0.350767 1.72
1.69619 0.606983 0.878597
1.65989 0.377146 3.22941
1.65756 0.634855 2.54543
1.65887 0.40368 4.56321
1.65348 0.660582 3.88265
1.65967 0.684994 5.2177
1.69191 0.750339 -3.0837
1.69488 1.08429 -3.71493
1.70176 0.802268 -1.59361
1.69818 1.12593 -2.38842
1.69976 0.856083 0.0549851
1.70399 1.20132 -0.74567
[...]
POINT_DATA 29498
VECTORS point_vectors float
-5.70515 -4.01 11.0278
0.19239 0.477316 1.86183
-8.73477 4.14734 12.1866
0.288957 -0.21321 2.49399
5.74137 -4.03167 11.0652
-0.1498 0.461115 1.77289
8.71797 4.14043 12.1729
-0.306411 -0.155578 2.41445
0.00854429 -0.0131575 0.186187
-0.00107877 -0.000323142 0.0141489
0.0206287 0.031117 0.558627
0.0156798 0.0416545 0.184398
-0.00852183 -0.0131465 0.185875
0.000878735 -0.000221833 0.0110828
-0.0206663 0.0311868 0.560924
-0.0155998 0.0411677 0.181349
-0.445046 -0.113545 19.8825
-1.16814 -0.42177 20.383
-0.474327 -0.321259 21.3238
0.112574 -0.0727159 21.5374
0.622984 0.16705 21.3997
0.797311 0.180142 21.0595
0.926733 0.144527 20.6387
-0.47949 -0.068685 19.8393
-1.34975 -0.26003 20.3553
-0.573514 -0.371441 21.342
0.119875 -0.165699 21.5859
0.732552 0.0116097 21.4377
0.86407 0.0120217 21.0271
0.6244 -0.145578 21.2787
-0.522366 0.0333486 19.8115
-1.47197 0.0732981 20.3584
-0.917395 -0.329171 21.3317
-0.0449026 -0.315535 21.635
0.658091 -0.295242 21.4631
0.923242 -0.353337 21.2023
0.659048 -0.313669 20.1131
-0.43274 0.214758 19.9058
-0.995618 0.445261 20.3462
-0.965405 0.183818 21.2048
-0.224304 -0.135716 21.5963
0.308565 -0.367421 21.3647
0.46102 -0.489329 20.8583
0.353964 -0.377017 20.8372
-0.42393 -0.249531 19.4248
-3.6036 -3.75059 19.5796
0.102644 -0.362641 15.4314
0.690055 -0.0394351 15.8478
0.977637 0.972242 16.8297
1.35548 1.31841 17.1767
1.10224 0.981872 17.742
-0.485998 -0.16052 19.3255
1.65625 1.22073 14.4109
1.23631 0.591587 16.0386
-0.561457 0.0848147 19.2192
1.85453 -0.0245871 11.2863
0.841419 -0.383514 15.5565
-0.420093 0.439366 19.5093
-1.46693 1.83353 19.9756
-2.50598 1.89999 21.1611
-0.521772 0.0467971 21.9596
0.208446 -0.755961 21.4796
0.45158 -1.02229 20.9082
0.494682 -0.726825 19.8276
0.425276 -0.248941 19.4187
3.60475 -3.69878 19.5906
-0.0871506 -0.358262 15.6232
-0.703931 -0.0437864 15.6194
-0.912408 0.925832 16.3141
-1.12971 1.34664 17.0268
-1.06293 0.968598 17.5037
0.485734 -0.160079 19.3138
-1.6174 1.20945 13.751
-1.50228 0.299114 16.2037
0.56003 0.0858728 19.211
-1.73265 0.126467 11.4179
-0.535489 -0.367465 15.5099
0.421926 0.437313 19.5116
1.47041 1.81125 19.9793
2.50475 1.90232 21.159
0.521068 0.0608825 21.9545
-0.229956 -0.74565 21.2923
-0.463789 -0.982211 20.7561
-0.550507 -0.719703 19.7224
0.444578 -0.11159 19.8808
1.16656 -0.419559 20.3877
0.472679 -0.32261 21.3228
-0.113821 -0.0721794 21.5372
-0.606085 0.158279 21.3952
-0.71418 0.213135 21.057
-0.893171 0.0867932 20.5085
0.47948 -0.0654214 19.8395
1.34913 -0.25933 20.3523
0.574598 -0.373264 21.3437
-0.12241 -0.16163 21.5929
-0.711489 0.0083518 21.4269
-0.895552 -0.00661921 20.9341
-0.946342 -0.162702 20.719
0.523814 0.0352519 19.8111
1.47248 0.0721453 20.3635
0.914974 -0.329696 21.3338
0.0431104 -0.312326 21.6286
-0.633759 -0.275612 21.429
-0.877853 -0.308292 21.0855
-0.938614 -0.211199 20.7295
0.431861 0.214106 19.9056
0.990071 0.43914 20.3474
0.965154 0.182823 21.2066
0.221122 -0.134715 21.5966
-0.312295 -0.353521 21.3473
-0.454015 -0.477607 20.9488
-0.369006 -0.366176 20.8687
-1.47171 0.254575 1.3092
0 0 0
0.039795 -0.112381 1.54278
-0.114591 -0.0716222 0.341084
-0.0097706 -0.0165708 -0.00404518
0.0342194 0.0336312 1.7267
-0.0609892 1.24871 1.68666
-0.0203628 -0.0321808 0.185891
-0.0272281 0.298888 -0.132004
0.0506067 0.064358 0.255531
1.51855 0.260766 1.3481
-0.0395843 -0.112326 1.54243
0.127813 -0.0566459 0.315427
-0.0339694 0.0338662 1.71856
0.0203593 -0.0321601 0.186074
-0.0521946 0.0665873 0.256535
-0.00032867 0.00352628 0.247789
0 0 0
0 0 0
0.000124286 0.00146627 0.0107473
-2.10978e-05 0.00039553 0.0190187
0.0103434 0.0314986 0.102713
-6.68427e-05 0.065181 0.113387
7.4848e-06 -9.85073e-06 0.000770452
0.000314446 0.00348457 0.247422
0 0 0
-0.000127768 0.00151171 0.0109967
-0.0115551 0.0364376 0.118615
0 0 0
0.000306312 0.00483599 0.0310474
0.0192588 0.0531146 0.377133
0 0 0
-8.12534e-07 3.75994e-06 0.000802085
-8.86495e-06 2.72825e-05 0.00108057
-0.0011006 1.49383 1.73583
-0.000872096 0.00137335 -0.00097789
-1.66842e-06 0.000387858 0.00356407
2.99021e-06 0.000225875 0.00612888
0 0 0
0 0 0
-0.000306065 0.00482751 0.030992
-0.0193014 0.0542372 0.376044
-2.66906 -0.754871 20.264
-5.71832 -5.12578 19.2629
-1.44855 -0.660515 18.3378
1.21325 0.246146 20.8716
0.919252 0.910697 11.4673
1.16606 1.03736 10.386
-2.91755 0.301383 20.3277
-1.75664 0.480429 17.995
-3.01974 2.97488 19.8219
1.0711 -0.345548 20.4428
1.12224 0.114367 8.8638
1.04199 -0.267249 14.3711
5.70307 -5.06394 19.2738
1.44988 -0.666447 18.3178
2.67234 -0.756366 20.2626
-0.822933 0.867091 10.9707
-0.947146 1.01474 10.0612
-1.16452 0.236694 20.8534
1.75465 0.484579 17.9851
3.02105 2.94511 19.8303
2.92013 0.301417 20.3286
-1.12267 0.277978 8.62229
-1.09199 -0.224421 14.0061
-1.04813 -0.317774 20.4294
-0.416025 -0.653034 21.6787
0.410073 -0.506412 7.01202
0.389806 -0.150406 21.4292
0.543001 -0.544215 7.95678
-1.43846 -0.908541 21.6259
-5.36549 0.473096 19.0284
0.0480226 -0.558893 21.0289
0.423577 0.945489 10.873
-0.406838 -0.504558 7.17785
0.414346 -0.652882 21.6754
-0.543479 -0.560601 7.66103
-0.389115 -0.149436 21.4303
5.36559 0.476847 19.029
1.43674 -0.908282 21.626
-0.452596 0.998946 10.3438
-0.0498176 -0.556949 21.0465
-0.816294 -0.264388 19.9473
-0.465761 -0.0978816 19.8604
-0.478146 -0.16516 19.6826
-0.884742 -0.380448 21.0494
-1.26864 -0.368988 20.376
-2.04201 -1.02674 20.2709
-0.147526 -0.195992 21.4745
-0.496398 -0.340717 21.3399
-0.420184 -0.392533 21.5566
0.35991 0.0412766 21.5038
0.123898 -0.105245 21.554
0.277543 0.0332553 21.656
0.777082 0.205941 21.2237
0.692213 0.0995635 21.4172
0.937696 0.466095 21.3663
0.678788 0.0661174 20.7436
0.88795 0.0628114 21.0861
1.35224 0.461578 20.849
0.751721 -0.0145305 21.0038
0.932179 0.536244 21.1157
-0.892736 -0.150195 19.8964
-0.502802 -0.0206448 19.8245
-0.533674 -0.112721 19.6109
-1.01605 -0.356495 21.0579
-1.44884 -0.127458 20.3584
-0.190041 -0.284357 21.5263
-0.709962 -0.386056 21.3418
0.412734 -0.0649793 21.5674
0.0665588 -0.254155 21.6142
0.894375 0.0533589 21.1943
0.745224 -0.13336 21.4673
1.02637 -0.106028 21.5671
1.06843 -0.055571 21.0642
1.56549 0.274199 20.4538
0.629402 -0.249573 21.1448
0.778515 0.156664 20.8393
-0.990614 0.0742339 19.8799
-0.50262 0.142135 19.8326
-0.608535 0.0671099 19.5426
-1.21899 -0.166669 20.9843
-1.28095 0.312698 20.3241
-0.464853 -0.3567 21.5794
-1.03823 -0.08355 21.2782
0.312381 -0.279498 21.5891
-0.163766 -0.237351 21.6369
0.809783 -0.304295 21.2438
0.488941 -0.388293 21.396
0.866814 -0.284589 21.2624
0.777451 -0.394101 21.1239
1.43677 -0.499747 20.8014
0.495974 -0.392502 20.685
0.70344 -0.465683 19.2946
-0.739556 0.366572 20.0109
-0.466454 0.315186 19.7267
-1.08676 0.369441 20.7997
-1.36753 0.912748 20.2089
-0.645632 0.0113333 21.5177
-1.62621 0.559123 21.3025
0.087561 -0.273548 21.5405
-0.370912 -0.111387 21.808
0.44002 -0.42539 21.1831
0.331884 -0.542889 21.4629
0.418208 -0.372787 20.9932
0.698944 -0.602876 20.967
0.472534 -0.611352 21.102
-1.15926 -0.895392 18.8021
-0.453311 -0.214039 19.3709
-0.00500304 -0.378063 19.1016
-0.808981 -0.749689 18.3117
0.00511455 -8.03744 18.9422
0.41011 -0.201941 15.1048
-0.0017626 -0.110613 7.61591
0.807375 0.351513 16.0621
-0.00399797 0.230505 9.20835
1.1668 1.26478 17.7273
-0.143144 0.539754 10.245
1.28688 0.903291 17.6325
1.55407 1.35986 15.7256
-0.0554386 1.13271 10.6777
1.26629 0.792677 16.4568
-0.0215864 0.67571 13.1891
-0.530647 -0.0448642 19.2681
-0.0029252 -0.218532 18.9515
1.91251 0.848261 12.1433
1.88946 0.678389 10.3546
0.161254 -0.230083 0.129513
1.1738 0.185783 15.2575
0.0297274 0.241243 9.8796
-0.516688 0.31536 19.3161
-0.00205378 0.133158 18.7754
1.68429 -0.176779 14.8836
1.17419 -1.03278 16.8811
0.0039416 -1.59115 -2.48533
0.60001 -0.65497 18.5939
0.150098 -0.653485 3.3296
-0.930994 1.14317 19.3191
0.00187996 0.607644 19.2353
-1.72986 1.56059 20.5653
0.0120712 3.01419 19.6697
-1.47667 0.724864 22.3807
-0.00184769 5.08371 20.4287
-0.0155713 -0.493683 21.7317
-0.00102985 0.318907 18.8353
0.311703 -0.886031 21.5689
0.000316975 -0.576882 18.3174
0.400968 -0.890701 19.8341
-0.0820922 -1.11378 19.2963
0.0149964 -0.377959 17.1868
1.16208 -0.892996 18.7936
0.454589 -0.214225 19.3585
0.475451 -0.168438 19.6832
0.83818 -0.74142 18.5005
2.03258 -1.01683 20.2671
-0.413454 -0.202556 15.0507
0.422688 -0.394241 21.5475
-0.800952 0.354384 15.6735
-0.277575 0.0331304 21.6468
-1.05931 1.18053 17.3571
-0.911535 0.457005 21.2938
-1.0865 1.00748 16.6063
-1.42216 1.36588 15.1406
-1.19653 0.550132 21.2663
-1.30021 0.700742 16.3532
-0.8623 0.627319 21.2158
0.527486 -0.0447416 19.2614
0.531506 -0.112502 19.6043
-1.60714 0.817011 13.4804
-1.78839 0.827219 10.2663
-1.57386 0.301526 20.4304
-1.21243 -0.0123109 15.2328
-1.18172 -0.0347575 21.1226
0.515603 0.31557 19.3157
0.609128 0.0670785 19.536
-1.80665 -0.288026 13.8766
-1.45587 -0.941631 16.8388
-1.40473 -0.5149 20.8061
-0.472835 -0.59759 18.6555
-0.635874 -0.375054 19.6905
0.93388 1.13432 19.3252
0.46583 0.312205 19.7296
1.73067 1.54832 20.567
1.35887 0.891707 20.2138
1.48357 0.747607 22.3956
1.62496 0.559308 21.3017
-0.000168213 -0.494995 21.6407
0.372946 -0.107723 21.8138
-0.337009 -0.869091 21.4395
-0.328415 -0.535024 21.4701
-0.498408 -0.876391 19.8031
-0.74125 -0.6059 20.833
-0.465671 -0.59859 21.0843
0.820675 -0.259389 19.9369
0.465914 -0.0942023 19.8607
0.884391 -0.377338 21.0468
1.26563 -0.366285 20.3742
0.143434 -0.194917 21.4735
0.498135 -0.340784 21.3406
-0.360472 0.0424345 21.4991
-0.125461 -0.102649 21.5589
-0.753839 0.18305 21.1872
-0.671206 0.091078 21.4015
-0.742461 0.115937 20.8385
-0.854331 0.131572 20.9776
-0.926891 -0.0492209 20.6308
0.895892 -0.152773 19.8912
0.503639 -0.0192394 19.8231
1.01231 -0.351468 21.0581
1.44924 -0.130429 20.358
0.190192 -0.28437 21.5212
0.707863 -0.388495 21.3447
-0.407191 -0.0626928 21.5587
-0.0684825 -0.251825 21.6122
-0.890597 0.0413355 21.2848
-0.721222 -0.124119 21.4627
-0.733544 0.0169354 21.2607
-0.959987 -0.102025 20.8617
-0.916094 -0.234247 20.7013
0.991103 0.0746786 19.8754
0.502869 0.143903 19.8313
1.21883 -0.168943 20.9861
1.27438 0.311839 20.3254
0.460659 -0.356434 21.5751
1.03691 -0.0804285 21.2799
-0.3127 -0.276945 21.5755
0.163593 -0.237082 21.6362
-0.800417 -0.299806 21.268
-0.482121 -0.379113 21.3736
-0.816691 -0.324355 20.8486
-0.696465 -0.417738 20.7723
-0.465628 -0.335145 20.8392
0.737179 0.363794 20.0136
1.08413 0.366684 20.7987
0.647358 0.0117359 21.5212
-0.0888292 -0.26735 21.5211
-0.448038 -0.435235 21.1402
-0.407085 -0.363318 20.975
-0.855013 -0.217837 19.9251
-1.31918 -0.790564 18.5327
-1.07519 -0.502478 19.5169
-1.27308 -0.337286 19.3589
-0.506919 -0.147264 19.6436
-2.33211 -0.928381 20.2748
-0.938809 -0.373434 21.0565
0.319578 -0.501142 8.67101
-1.10069 -0.625126 21.4135
-1.1841 -0.659136 21.4911
-0.400442 -0.494375 21.6152
-0.150331 -0.227507 21.4903
0.248491 -0.200474 7.34938
-0.0249437 -0.155463 21.6531
0.0796032 -0.375779 21.5893
0.343278 -0.0463496 21.6247
0.400627 0.0020702 21.5253
0.528566 0.168774 9.78318
0.58312 0.229072 21.5566
0.721961 0.0587294 21.223
1.09774 0.381261 21.2579
0.83043 0.149952 21.2186
1.3235 1.25116 14.2912
1.10302 0.592112 21.1412
1.47441 0.353715 20.6955
1.50126 0.384101 20.6691
0.856153 -0.0162363 21.1659
1.6808 0.881773 14.724
0.987655 0.343872 22.1405
1.41379 0.249268 19.0287
0.811492 0.360416 21.1933
-0.986003 -0.0589071 19.8795
-1.68362 -0.154476 18.0213
-1.45964 0.207032 19.2829
-0.574261 -0.0280605 19.5738
-2.96205 -0.272319 20.2922
-1.09594 -0.28951 21.0523
-1.82038 -0.430372 21.2796
-0.801403 -0.936101 21.6131
-0.284255 -0.358432 21.5608
-0.543605 -0.816146 21.5623
0.315396 -0.389834 20.9858
0.396832 -0.179424 21.5883
0.616814 -0.330677 20.7181
1.20358 -0.043339 20.3061
0.892083 -0.126897 21.2678
0.846574 0.55073 6.53084
1.30586 -0.406593 20.4506
1.60202 -0.0962045 20.7779
1.05871 -0.234416 21.4541
2.0053 0.451987 11.8369
1.32588 -0.454428 19.9164
0.713559 -0.254994 20.1434
-0.925288 0.262433 19.9181
-1.37676 1.11853 18.6852
-0.928079 0.654008 19.7537
-0.5602 0.220677 19.6015
-2.08341 0.89459 20.2044
-1.21123 0.107043 20.8882
-3.04538 1.37597 20.7216
-1.50351 0.726111 20.7578
-2.01007 -0.104949 21.4745
-0.608547 -0.190519 21.5765
-0.4144 0.636971 11.7871
-0.996301 0.166742 21.8105
-0.364435 -0.370425 21.8623
0.205696 -0.305797 21.5782
1.02837 0.332361 12.3744
0.0702445 -0.363074 21.6857
0.603489 -0.681638 21.5145
0.605757 -0.47461 21.2786
1.14695 -0.690489 16.345
0.439816 -0.66872 21.1055
0.601487 -0.815651 21.4125
0.580838 -0.355043 20.9549
0.948081 -0.934798 18.7462
0.392913 -0.509269 21.031
0.585161 -0.544257 19.8856
1.3218 -0.79261 18.5181
-0.00309363 -1.47676 17.8135
-0.00596479 -1.10016 16.907
-0.00390478 -0.302383 19.0385
0.0079837 -10.0646 15.2075
-0.305885 -0.505729 8.84701
0.000453689 -0.39732 10.204
-0.000167359 0.000790236 0.329168
-0.248533 -0.20106 7.29146
-0.00233246 0.0201249 7.83384
-0.00216885 0.0618148 2.45241
-0.519171 0.166676 9.45771
-0.0183869 0.340375 9.59765
-0.262464 0.248066 3.64746
-1.17534 1.16882 13.8697
-0.29395 0.513569 10.5137
-0.0706423 -0.824088 -2.92182
0.0377247 0.753526 5.39378
-1.34026 0.976803 14.7783
-0.171216 1.37617 12.9998
0.201523 1.37352 6.80373
0.00407046 0.458477 11.5344
1.68137 -0.154818 18.0059
-0.00413312 0.985127 16.2844
3.91644e-05 -0.0690452 18.7486
-0.673701 0.69654 6.17455
0.240826 -0.633833 -1.50754
0.204384 -1.35644 -3.47109
-1.86002 0.342973 12.3545
-0.0573834 -1.19872 0.134375
0.085669 -0.197572 6.55678
1.37502 1.11416 18.6918
0.0073896 1.70772 18.8245
-0.00227644 0.472918 18.8845
0.00636413 5.38691 19.4403
3.04267 1.3615 20.7289
0.00678105 2.76889 20.1458
-0.00325676 4.88836 10.5465
0.358846 0.70001 11.4288
-0.0121643 1.77888 21.3428
0.000502788 -0.000661718 0.0517547
-1.05957 0.349373 11.8895
-0.00111678 -0.284246 18.3203
-0.166404 0.281226 1.19261
-1.19289 -0.610463 16.0882
0.00151004 -0.87684 19.0326
0.181416 -0.934848 9.36403
-1.18845 -0.991345 18.3215
-0.0442979 -1.09556 19.523
0.0860521 -0.640197 9.51784
0.859244 -0.21432 19.9199
1.07568 -0.502842 19.5134
1.27732 -0.339776 19.3494
0.504757 -0.149903 19.6411
2.32858 -0.925763 20.2729
0.935818 -0.366837 21.0552
1.10135 -0.625329 21.4019
1.18273 -0.658702 21.4892
0.400799 -0.49642 21.6088
0.150289 -0.227933 21.4849
0.0238736 -0.156769 21.6483
-0.0800905 -0.376295 21.5885
-0.344056 -0.0462362 21.619
-0.398135 0.00416553 21.5178
-0.584015 0.228563 21.5192
-0.716443 0.0574756 21.2226
-1.06247 0.369532 21.1853
-0.822652 0.119225 21.2254
-1.09004 0.56454 21.0795
-1.40519 0.329442 20.7043
-1.47842 0.465507 20.8871
-0.738552 0.0656215 21.0616
-1.07951 0.517015 21.0538
-1.39806 0.255678 19.7222
-0.972785 0.372196 21.2357
0.990859 -0.0561916 19.8771
1.46338 0.208542 19.2756
0.573528 -0.0281173 19.567
2.9638 -0.271374 20.2914
1.0954 -0.292043 21.0514
1.81885 -0.431603 21.2802
0.801049 -0.934476 21.6127
0.281198 -0.358214 21.5601
0.5452 -0.815362 21.5736
-0.315124 -0.387104 20.993
-0.393811 -0.179085 21.5762
-0.620216 -0.322672 20.7257
-1.16142 -0.0309054 20.2954
-0.882289 -0.132711 21.3003
-1.27483 -0.35551 20.4161
-1.66353 -0.119622 20.614
-0.813914 -0.0994889 21.1068
-1.50235 -0.594644 19.5997
-0.909958 -0.359704 20.2292
0.922417 0.264427 19.9188
0.923839 0.644479 19.7629
0.559561 0.220052 19.6019
2.07017 0.881675 20.2059
1.20876 0.110244 20.889
1.4969 0.718904 20.7581
2.01165 -0.104226 21.4732
0.609435 -0.19156 21.5742
1.00221 0.172524 21.8165
0.364564 -0.372958 21.8251
-0.20807 -0.301264 21.5813
-0.0715579 -0.363538 21.6897
-0.614374 -0.661591 21.4443
-0.618566 -0.441381 21.2982
-0.440065 -0.661386 21.113
-0.670101 -0.787279 21.6229
-0.563669 -0.347639 21.0174
-0.375891 -0.525722 20.9802
-0.389562 -0.48171 20.0223
-1.18783 -0.439044 19.4463
-1.13558 -0.631001 21.4525
0.0361928 -0.247376 21.6842
0.666735 0.152457 21.4612
1.35843 0.462586 21.0243
1.18211 0.282113 21.6118
-1.44057 -0.0914717 19.2824
-1.47981 -0.69101 21.4987
-0.0875611 -0.680934 21.3024
0.71648 -0.137767 20.7496
1.50966 -0.0445972 20.262
1.50708 -0.146538 18.7183
-1.25172 0.545386 19.4891
-1.92314 0.279567 20.9332
-1.09732 -0.31524 21.9357
0.24445 -0.50029 21.7389
0.78112 -0.782481 21.3258
0.939662 -0.552692 19.9415
-0.00364524 -1.38655 17.2681
1.47173e-05 -0.0205224 1.56416
-0.000609493 0.00600602 1.28124
-0.0218714 0.119968 3.84053
-0.457724 -0.0446351 2.76714
0.0151528 1.37485 9.90176
-0.00436908 -0.206471 16.3129
0.475586 -1.36682 -3.55266
0.174155 0.369931 2.6884
0.00209416 1.86489 17.6265
0.00410041 3.09939 19.3573
0 0 0
0.0160473 0.421613 0.478632
-0.143124 -0.453562 4.87145
-0.149695 -1.48758 10.8858
1.19069 -0.440812 19.4426
1.13607 -0.631274 21.4462
-0.0368629 -0.248349 21.6801
-0.665979 0.151937 21.427
-1.30843 0.430286 21.0754
-1.33362 0.451881 20.0635
1.44281 -0.0900414 19.2768
1.47845 -0.689669 21.4987
0.0880659 -0.679682 21.306
-0.713372 -0.135074 20.7652
-1.43527 -0.00883918 20.2424
-1.33352 -0.126704 20.1682
1.24879 0.542141 19.4919
1.91583 0.275846 20.9325
1.10211 -0.319313 21.9262
-0.25772 -0.497943 21.7075
-0.787971 -0.75241 21.2798
-1.06788 -0.641505 19.4952
-6.55373 -1.39173 9.4796
-0.115471 -0.626954 0.499545
0.0146974 -0.0822498 0.601863
0.212542 -0.0694234 0.793496
-0.112034 0.046891 0.113858
0.0952705 0.00538377 1.12146
-2.27861 0.521381 2.99729
-0.459831 2.47133 1.88732
-0.122703 -0.0826421 1.06656
0.00216477 0.00643253 0.194331
-0.0492935 0.122685 -0.1058
0.173039 0.103572 0.771482
0.114262 -0.62148 0.496192
6.5324 -1.39204 9.46098
-0.013784 -0.0818222 0.602101
0.11218 0.0199435 0.0782336
-0.190589 -0.0530058 0.759635
-0.0925848 0.00684733 1.11069
0.452887 2.4472 1.8718
2.27824 0.521041 2.9963
0.122453 -0.0817824 1.06544
0.0147043 0.176067 -0.143924
0.000708746 0.014937 0.185767
-0.186878 0.11356 0.772464
0.0471903 -0.0288909 1.00009
0.00213053 -0.00257428 0.180109
3.91106e-05 -0.000303035 0.0142515
0 0 0
0.0505574 -0.0155512 1.11089
-0.000367789 0.00228977 0.219421
0.000752343 0.00775075 0.086331
0.0016582 0.000613807 0.030415
-0.129996 -0.181049 0.541606
1.36476e-05 -3.50242e-06 0.00546949
0.0268663 0.103358 0.385899
-0.0333554 0.0209522 0.0384216
0.0048076 0.017189 0.0650227
0.000934442 0.0046693 0.0219266
0.0111887 0.0260164 0.101331
0.017726 0.00126001 0.0996537
-0.0473152 -0.0289916 1.0011
0 0 0
-0.00213078 -0.00259149 0.179729
-3.86124e-05 -0.000300838 0.0140685
-0.050291 -0.0162517 1.10403
-0.00170766 0.000612927 0.0303943
0.000360246 0.00227436 0.219428
-0.000755337 0.00775777 0.085512
0.129983 -0.180938 0.541691
0.0332619 0.0208398 0.0382719
-1.44608e-05 1.04082e-05 0.00544575
-0.026854 0.103337 0.386746
-0.0049142 0.0175721 0.0655818
-0.0180583 0.00127858 0.101265
-0.000917821 0.00458543 0.021337
-0.0112602 0.026137 0.101514
0 0 0
0 0 0
4.20485e-07 -0.000103108 0.00310094
0.00208974 -0.685715 0.51798
0 0 0
0 0 0
0.000966359 0.00238013 0.0307807
0 0 0
-0.00051427 0.00165693 0.0203583
-0.0121643 -0.0113559 -0.010893
0.00341825 0.0329834 0.342548
3.73887e-05 2.6027e-05 0.000997651
-0.000665326 0.3579 0.116429
-4.99117e-05 0.00815718 0.0576244
-0.000274847 -0.00156288 0.0123741
-0.000467376 0.000157021 0.00156077
0 0 0
-1.74021e-06 4.67188e-06 -5.28968e-05
0 0 0
0 0 0
0 0 0
0 0 0
0 0 0
0 0 0
2.75008e-18 9.54112e-19 -5.72935e-19
-0.00111366 0.00288719 0.0341131
-4.59075e-05 2.56672e-05 0.000984942
-0.00337497 0.0335337 0.340997
0.000542755 0.00018312 0.00181422
0.00027027 -0.00154475 0.012244
8.50278e-18 2.1361e-18 -1.462e-17
0 0 0
0.000331377 0.00430112 0.0423397
0.00015101 1.09322e-05 0.00247603
0 0 0
2.42175e-05 0.000459772 0.00385474
0 0 0
9.23738e-08 8.38328e-08 3.73213e-05
0.000167095 0.00199629 0.0135765
1.3466e-05 0.000308627 0.00240192
-6.4826e-06 3.76586e-05 0.00780166
-1.50401e-06 5.68462e-06 0.00016781
0.000799643 0.00859759 0.031172
0.038544 0.0339959 0.394004
-0.000129202 0.00542434 0.0379514
-7.11284e-05 0.0963557 0.439747
2.15457e-05 -1.58574e-05 0.00227178
0.000414578 -0.0506924 0.30167
-0.000152673 1.09258e-05 0.00247213
-0.000328278 0.00425083 0.0418692
0 0 0
-2.58374e-05 0.000490785 0.00411661
-0.000156909 0.00199508 0.0135981
-1.3714e-05 0.000314894 0.00242258
-0.0389807 0.0342049 0.394419
-0.000805163 0.00858059 0.0311916