# vtk DataFile Version 2.0
tet_velo
ASCII
DATASET UNSTRUCTURED_GRID
POINTS 29498 float
-0.607022 0.205 -2.095
-0.668981 0.285 2.085
-0.685 0.740237 -1.955
-0.615 0.979342 2.115
0.607013 0.205 -2.095
0.668971 0.285 2.085
0.685 0.740237 -1.955
0.615 0.979342 2.115
-0.657042 0.2023 -0.701667
-0.685914 0.220747 0.691667
-0.779433 0.937705 -0.598333
-0.754145 1.01545 0.758333
0.657124 0.202209 -0.701667
0.686036 0.220615 0.691667
0.779429 0.937701 -0.598333
0.754177 1.01548 0.758333
-1.31018 -0.205625 -3.24415
-1.31208 -0.143506 -2.14417
-1.34822 -0.138215 -0.74989
-1.36154 -0.136001 0.651771
-1.34178 -0.0950757 2.04667
-1.34116 -0.063611 3.1497
-1.35063 -0.0346452 4.24709
-1.31256 0.114592 -3.18733
-1.32011 0.198379 -2.09136
-1.37044 0.224927 -0.704211
-1.37345 0.233767 0.686236
-1.32833 0.267077 2.07409
-1.33442 0.297272 3.17659
-1.35039 0.326739 4.27518
-1.34878 0.72243 -3.06341
-1.38934 0.804238 -1.96591
-1.46271 0.947569 -0.603764
-1.42947 1.00459 0.755789
-1.3177 0.991502 2.11864
-1.33281 1.01896 3.22267
-1.3596 1.05369 4.32717
-1.38211 1.76052 -2.90508
-1.40788 1.85717 -1.81308
-1.44454 2.00679 -0.462821
-1.45233 2.10726 0.879538
-1.42766 2.13716 2.23018
-1.41194 2.15118 3.32299
-1.41014 2.17414 4.42348
-0.632493 -0.203521 -3.24652
-0.625795 -0.138422 -2.14762
-0.655209 -0.149572 -0.749427
-0.676782 -0.145555 0.656406
-0.67183 -0.0880592 2.05478
-0.67259 -0.0600229 3.1552
-0.679117 -0.0346615 4.25027
-0.627933 0.109687 -3.18806
-0.671971 0.301001 3.18113
-0.681484 0.326213 4.27758
-0.653107 0.694285 -3.05887
-0.667626 1.01431 3.22194
-0.690884 1.05039 4.32701
-0.676016 1.74166 -2.9006
-0.692856 1.83968 -1.80814
-0.726819 2.00271 -0.459844
-0.748949 2.11121 0.879181
-0.74282 2.1374 2.22763
-0.732608 2.14891 3.32044
-0.731414 2.17165 4.42163
0.671492 -0.203538 -3.24652
0.645514 -0.138446 -2.14762
0.671912 -0.14965 -0.749427
0.687857 -0.145656 0.656406
0.675005 -0.0880954 2.05478
0.664789 -0.0600518 3.1552
0.661689 -0.0346932 4.25027
0.671851 0.109677 -3.18806
0.651756 0.300982 3.18113
0.652477 0.326186 4.27758
0.700567 0.694279 -3.05887
0.630033 1.0143 3.22194
0.637512 1.05037 4.32701
0.729087 1.74165 -2.9006
0.733893 1.83967 -1.80814
0.723645 2.00269 -0.459844
0.681176 2.1112 0.879181
0.637116 2.13739 2.22763
0.626249 2.14889 3.32044
0.624692 2.17162 4.42163
1.33954 -0.205666 -3.24415
1.32028 -0.143562 -2.14417
1.35588 -0.138336 -0.74989
1.37478 -0.136153 0.651771
1.35355 -0.0951683 2.04667
1.34132 -0.0636802 3.1497
1.33793 -0.0347128 4.24709
1.33965 0.114563 -3.18733
1.31406 0.198345 -2.09136
1.36629 0.22482 -0.704212
1.38137 0.233621 0.686236
1.33953 0.267002 2.07409
1.32723 0.297216 3.17659
1.32751 0.326679 4.27518
1.37905 0.72241 -3.06341
1.38501 0.804224 -1.96591
1.45639 0.947534 -0.603764
1.42957 1.00456 0.755788
1.31724 0.991459 2.11864
1.30563 1.01892 3.22267
1.31211 1.05364 4.32717
1.42632 1.76049 -2.90508
1.4368 1.85714 -1.81308
1.4361 2.00676 -0.462822
1.39381 2.10723 0.879538
1.33705 2.13713 2.23018
1.31487 2.15114 3.32299
1.30846 2.17409 4.42348
-0.694122 0.472618 -2.07311
-4.50015e-06 0.18188 -2.11812
-0.641269 0.194413 -1.39833
-0.687538 0.632171 2.14555
-5.00679e-06 0.298857 2.07114
-0.704204 0.226118 1.38833
0 0.816074 -2.03084
-0.766436 0.87319 -1.27667
0 1.03087 2.16653
-0.713633 1.02646 1.43667
0.694181 0.472618 -2.07317
0.641341 0.194331 -1.39833
0.687501 0.632171 2.14552
0.705725 0.224587 1.38833
0.766414 0.873168 -1.27667
0.713699 1.02652 1.43667
-0.669861 0.21314 -0.005
-0.871048 0.570003 -0.65
4.09747e-05 0.201576 -0.701667
-0.872495 0.618099 0.725
6.09586e-05 0.220611 0.691667
-0.777428 0.987218 0.08
-2.12315e-06 1.2592 -0.598333
1.59104e-05 1.4327 0.758333
0.669986 0.213006 -0.005
0.871034 0.569955 -0.65
0.872491 0.618049 0.725
0.777455 0.987245 0.08
-0.864068 0.521311 -1.3375
-0.879483 0.594051 0.0375
-0.887268 0.625135 1.4125
1.82373e-05 0.196934 -1.39833
5.09666e-05 0.211817 -0.005
2.79759e-05 0.231367 1.38833
-2.25008e-06 0.472618 -2.31408
-2.5034e-06 0.632171 2.29679
-1.06157e-06 0.951616 -1.27667
6.89364e-06 1.42957 0.08
7.95522e-06 1.27162 1.43667
0.864074 0.521287 -1.3375
0.879474 0.594002 0.0375
0.887269 0.62511 1.4125
-0.963567 0.201689 -2.09318
-0.616409 0.0332889 -2.12131
-0.617477 0.157343 -2.64153
-0.998654 0.276039 2.07954
-0.670405 0.0984704 2.06989
-0.670476 0.293001 2.63306
-1.03717 0.772238 -1.96046
-0.669053 0.717261 -2.50694
-0.688928 1.28996 -1.88157
-0.96635 0.985422 2.11682
-0.641313 0.996826 2.66847
-0.67891 1.55837 2.17132
0.626264 0.0332771 -2.12131
0.639432 0.157339 -2.64153
0.960538 0.201673 -2.09318
0.671988 0.0984523 2.06989
0.660363 0.292991 2.63306
1.00425 0.276001 2.07954
0.692783 0.717258 -2.50694
0.709446 1.28995 -1.88157
1.03501 0.77223 -1.96046
0.622516 0.996819 2.66847
0.626058 1.55837 2.17132
0.966122 0.985401 2.11682
-1.01374 0.213614 -0.702939
-0.656125 0.0263638 -0.725547
-1.02968 0.227257 0.688951
-0.681348 0.0375961 0.674037
-1.12107 0.942637 -0.601049
-0.753126 1.47021 -0.529089
-1.09181 1.01002 0.757061
-0.751547 1.56333 0.818757
0.664518 0.0262796 -0.725547
1.01171 0.213514 -0.702939
0.686947 0.03748 0.674037
1.0337 0.227118 0.688951
0.751537 1.4702 -0.529089
1.11791 0.942618 -0.601049
0.717676 1.56334 0.818757
1.09187 1.01002 0.757061
-1.31113 -0.174566 -2.69416
-1.31137 -0.0455167 -3.21574
-0.971336 -0.204573 -3.24534
-1.33015 -0.140861 -1.44703
-1.3161 0.0274362 -2.11776
-0.968939 -0.140964 -2.1459
-1.35488 -0.137108 -0.0490594
-1.35933 0.0433561 -0.727051
-1.00171 -0.143894 -0.749658
-1.35166 -0.115538 1.34922
-1.3675 0.0488833 0.669003
-1.01916 -0.140778 0.654089
-1.34147 -0.0793434 2.59819
-1.33505 0.0860009 2.06038
-1.0068 -0.0915675 2.05073
-1.3459 -0.0491281 3.69839
-1.33779 0.116831 3.16315
-1.00688 -0.0618169 3.15245
-1.35051 0.146047 4.26113
-1.01487 -0.0346533 4.24868
-1.31634 0.156485 -2.63935
-1.33067 0.418511 -3.12537
-0.970246 0.112139 -3.1877
-1.34527 0.211653 -1.39778
-1.35473 0.501308 -2.02864
-1.37194 0.229347 -0.00898784
-1.41657 0.586248 -0.653988
-1.35089 0.250422 1.38016
-1.40146 0.61918 0.721012
-1.33137 0.282175 2.62534
-1.32301 0.62929 2.09636
-1.3424 0.312005 3.72589
-1.33361 0.658117 3.19963
-1.00319 0.299137 3.17886
-1.35499 0.690213 4.30117
-1.01594 0.326476 4.27638
-1.36906 0.763334 -2.51466
-1.36544 1.24147 -2.98425
-1.00094 0.708357 -3.06114
-1.42603 0.875904 -1.28484
-1.39861 1.3307 -1.8895
-1.44609 0.976081 0.0760121
-1.45362 1.47718 -0.533293
-1.37358 0.998047 1.43722
-1.4409 1.55593 0.817663
-1.32525 1.00523 2.67065
-1.37268 1.56433 2.17441
-1.3462 1.03633 3.77492
-1.37238 1.58507 3.27283
-1.00022 1.01664 3.2223
-1.38487 1.61391 4.37532
-1.02524 1.05204 4.32709
-1.39499 1.80884 -2.35908
-1.02906 1.75109 -2.90284
-1.42621 1.93198 -1.13795
-1.05037 1.84843 -1.81061
-1.44844 2.05702 0.208358
-1.08568 2.00475 -0.461333
-1.43999 2.12221 1.55486
-1.10064 2.10924 0.879359
-1.4198 2.14417 2.77658
-1.08524 2.13728 2.22891
-1.41104 2.16266 3.87323
-1.07228 2.15005 3.32171
-1.07078 2.17289 4.42255
-0.629144 -0.170972 -2.69707
-0.630213 -0.0469173 -3.21729
0.0194995 -0.20353 -3.24652
-0.640502 -0.143997 -1.44852
0.00985945 -0.138434 -2.14762
-0.665995 -0.147564 -0.0465102
0.00835133 -0.149611 -0.749427
-0.674306 -0.116807 1.35559
0.0055379 -0.145605 0.656406
-0.67221 -0.074041 2.60499
0.00158771 -0.0880773 2.05478
-0.675854 -0.0473422 3.70273
-0.672281 0.120489 3.16816
-0.00390045 -0.0600373 3.1552
-0.680301 0.145776 4.26393
-0.00871394 -0.0346773 4.25027
-0.64052 0.401986 -3.12347
0.021959 0.109682 -3.18806
-0.676728 0.313607 3.72935
-0.669799 0.657655 3.20153
-0.0101077 0.300992 3.18113
-0.686184 0.688304 4.30229
-0.0145035 0.3262 4.27758
-0.664561 1.21797 -2.97974
0.02373 0.694282 -3.05887
-0.679255 1.03235 3.77447
-0.700117 1.58161 3.27119
-0.0187968 1.0143 3.22194
-0.711149 1.61102 4.37432
-0.0266859 1.05038 4.32701
-0.684436 1.79067 -2.35437
0.0265355 1.74166 -2.9006
-0.709838 1.92119 -1.13399
0.0205181 1.83967 -1.80814
-0.737884 2.05696 0.209668
-0.00158673 2.0027 -0.459844
-0.745885 2.12431 1.55341
-0.0338866 2.11121 0.879181
-0.737714 2.14316 2.77403
-0.0528517 2.1374 2.22763
-0.732011 2.16028 3.87103
-0.0531795 2.1489 3.32044
-0.0533609 2.17163 4.42163
0.658503 -0.170992 -2.69707
0.671671 -0.0469305 -3.21729
1.00551 -0.204602 -3.24534
0.658713 -0.144048 -1.44852
0.982898 -0.141004 -2.1459
0.679885 -0.147653 -0.0465102
1.0139 -0.143993 -0.749658
0.681431 -0.116875 1.35559
1.03132 -0.140904 0.654089
0.669897 -0.0740736 2.60499
1.01428 -0.0916318 2.05073
0.663239 -0.0473725 3.70274
0.658273 0.120465 3.16816
1.00306 -0.061866 3.15245
0.657083 0.145746 4.26393
0.999812 -0.034703 4.24868
0.686209 0.401978 -3.12347
1.00575 0.11212 -3.1877
0.652117 0.313584 3.72935
0.640894 0.657639 3.20153
0.989491 0.299099 3.17886
0.644995 0.688279 4.30229
0.989993 0.326432 4.27638
0.714827 1.21796 -2.97974
1.03981 0.708344 -3.06114
0.633772 1.03233 3.77447
0.628141 1.5816 3.27119
0.967832 1.01661 3.2223
0.631102 1.611 4.37432
0.974813 1.052 4.32709
0.73149 1.79066 -2.35437
1.0777 1.75107 -2.90284
0.728769 1.92118 -1.13399
1.08535 1.84841 -1.81061
0.702411 2.05695 0.209668
1.07987 2.00473 -0.461333
0.659146 2.1243 1.55341
1.0375 2.10922 0.879359
0.631683 2.14314 2.77403
0.987084 2.13726 2.22891
0.625471 2.16026 3.87103
0.970559 2.15002 3.32171
0.966577 2.17286 4.42255
1.32991 -0.174614 -2.69416
1.33959 -0.0455515 -3.21574
1.33808 -0.140949 -1.44703
1.31717 0.0273916 -2.11776
1.36533 -0.137244 -0.0490594
1.36109 0.043242 -0.727051
1.36417 -0.115661 1.34922
1.37808 0.0487337 0.669003
1.34744 -0.0794242 2.59819
1.34654 0.0859167 2.06038
1.33963 -0.0491965 3.69839
1.33427 0.116768 3.16315
1.33272 0.145983 4.26114
1.32686 0.156454 -2.63935
1.35935 0.418487 -3.12537
1.34018 0.211582 -1.39779
1.34954 0.501285 -2.02864
1.37383 0.22922 -0.00898793
1.41134 0.586177 -0.653988
1.36045 0.250311 1.38016
1.40547 0.61909 0.721012
1.33338 0.282109 2.62534
1.32839 0.62923 2.09636
1.32737 0.311947 3.72589
1.31643 0.658069 3.19963
1.31981 0.690158 4.30117
1.38203 0.763317 -2.51466
1.40268 1.24145 -2.98425
1.4207 0.875879 -1.28484
[...]
POINT_DATA 29498
VECTORS point_vectors float
-0.753643 -1.69106 2.48313
0.0174769 0.0631557 0.213266
-0.721486 0.411364 1.36356
-0.136455 -0.176274 0.123522
0.775804 -1.74004 2.55189
-0.0173079 0.0632465 0.215141
0.720995 0.411886 1.36275
0.136666 -0.175346 0.121445
0 0 0
0 0 0
0 0 0
0 0 0
0 0 0
0 0 0
0 0 0
0 0 0
-0.556216 -0.333124 19.7717
-1.33797 -1.06464 20.4173
-0.39073 -0.634595 21.4563
0.13681 -0.180119 21.5985
0.751432 0.280755 21.5287
1.06796 0.421455 20.9821
0.860808 0.253357 20.8685
-0.723408 -0.295021 19.6391
-2.10681 -0.97786 20.329
-0.693406 -0.803746 21.567
0.0906759 -0.344849 21.731
1.07113 0.0491854 21.5573
1.3081 0.114972 21.199
1.01842 0.0894481 21.191
-0.902077 0.0941828 19.5295
-2.29059 0.208114 20.2814
-1.42883 -0.385571 21.5052
-0.254705 -0.428091 21.8095
0.679236 -0.749128 21.5571
1.00546 -0.706568 21.3726
1.02701 -0.648134 20.4283
-0.591028 0.45259 19.8898
-0.975639 0.717766 20.3666
-0.891078 0.492414 21.1798
-0.28853 -0.0234117 21.4827
0.0857955 -0.320287 21.3284
0.225243 -0.401215 21.1027
0.170068 -0.333547 20.9849
-0.467598 -0.665439 19.2896
-1.47485 -3.42147 20.6082
0.0980104 -0.383624 21.6141
0.207461 0.171385 20.7942
0.409808 1.14719 19.9702
0.697534 1.47549 19.572
0.669234 1.17709 19.4401
-0.627455 -0.623839 18.9162
1.42652 1.53257 10.8234
1.81141 1.27694 13.5511
-0.925112 0.183088 18.4343
0.960309 -0.785725 7.61082
1.45198 -0.652768 13.6756
-0.476352 0.803642 19.5184
-0.926557 1.58577 20.0911
-1.10915 1.56677 21.373
-0.327273 0.143673 21.8244
-0.0457129 -0.371903 21.4427
0.0772012 -0.546285 21.0767
0.0263764 -0.482443 20.3824
0.488591 -0.65062 19.3096
1.51113 -3.36256 20.5831
-0.0971835 -0.405806 21.6457
-0.210713 0.163347 20.8253
-0.415216 1.1565 20.0307
-0.675674 1.47308 19.5649
-0.639699 1.22194 19.3862
0.650508 -0.587632 18.971
-1.35723 1.50542 10.4581
-1.77342 1.34948 13.4407
0.970159 0.166668 18.5112
-0.716182 -0.738473 5.8405
-1.43472 -0.619009 12.12
0.496541 0.784915 19.548
0.958354 1.53461 20.1049
1.10949 1.57427 21.3733
0.321686 0.174456 21.8399
0.0712356 -0.334472 21.4846
-0.0688208 -0.57278 21.1193
-0.0467849 -0.505133 20.2187
0.548999 -0.315102 19.7975
1.33045 -1.05597 20.4118
0.395396 -0.636512 21.4536
-0.126724 -0.188545 21.5951
-0.738855 0.265255 21.5178
-1.0648 0.419613 20.9857
-0.859491 0.265666 20.8958
0.716246 -0.282567 19.6573
2.12732 -0.995282 20.3212
0.695648 -0.810253 21.568
-0.0855989 -0.345061 21.7279
-1.05615 0.0404809 21.5545
-1.31648 0.119586 21.199
-1.06118 0.0906701 21.1418
0.882229 0.0816787 19.5631
2.3034 0.212503 20.2813
1.44101 -0.3921 21.513
0.253182 -0.427126 21.812
-0.680678 -0.748822 21.5182
-1.0433 -0.74771 21.3641
-1.1333 -0.724725 20.2468
0.584907 0.424969 19.9135
0.964506 0.69108 20.3757
0.895963 0.500417 21.1839
0.29841 -0.0148414 21.5275
-0.0579274 -0.334834 21.358
-0.198437 -0.41533 21.0059
-0.103332 -0.319244 21.2315
-0.426974 -0.0600608 0.580303
-3.07466e-05 -0.196391 1.03972
-0.00141247 0.000724555 0.0417079
-0.000810912 -0.0181971 0.00819002
-6.06595e-06 0.00151999 0.0118378
-1.28139e-05 0.00547171 0.511744
-4.29935e-05 0.108388 0.296154
-0.33751 -0.0815105 0.558066
-0.000472704 0.0271706 -0.102174
0 0 0
0.432687 -0.0605985 0.588375
0.0014553 0.000736875 0.0428836
0.0007038 -0.0180685 0.00821351
0.00220149 0.00719012 0.564941
0.337035 -0.0811818 0.557295
0 0 0
-0.000815382 0.000755875 0.0307685
-0.00075469 0.000849381 0.0379922
-2.17595e-05 -3.93809e-05 0.00493534
0.000352016 0.00263053 0.0128038
-5.93829e-06 0.000334667 0.0105356
0 0 0
7.43251e-06 0.0808012 0.172815
-5.72348e-06 -0.000972312 0.0176199
0.000755905 0.000774455 0.0312803
0.000725233 0.000803592 0.0367202
-0.000350685 0.00263103 0.0127183
0 0 0
0 0 0
6.53219e-05 0.00210676 0.0213178
0.00441324 0.0120836 0.124093
-9.10471e-07 1.78815e-06 0.000178876
-5.34658e-06 0.00035962 0.016267
1.8712e-05 0.0015259 0.0490424
-8.52236e-05 0.0657604 0.0704288
-0.000418194 -0.0266124 0.00388882
0 0 0
-2.57566e-07 0.00532239 0.054923
-6.76372e-06 0.00157399 -0.0038512
0 0 0
-6.36226e-05 0.00208817 0.0210997
-0.00439183 0.0119475 0.123826
-3.97448 -2.67679 19.9566
-2.25683 -5.77121 20.9557
-2.00284 -1.94509 17.4908
1.40473 0.915075 15.9971
0.122258 1.24797 13.346
0.786751 0.976371 7.4925
-4.33757 0.933812 20.0602
-3.18622 1.30817 16.5111
-2.09625 2.69271 19.8085
0.899358 -0.546067 14.933
-0.404843 -0.548361 3.23078
0.0242083 -0.604006 18.4633
2.33735 -5.73105 20.8919
2.03976 -1.85707 17.6466
4.01258 -2.70254 19.9479
-0.128178 1.2537 13.3706
-0.733993 0.941456 7.25547
-1.40328 0.888696 16.1886
3.19179 1.21674 16.6941
2.11734 2.60531 19.8272
4.35992 0.943863 20.0581
0.466541 -0.488651 2.75202
-0.0380498 -0.551406 17.2598
-0.906499 -0.544498 14.9287
-0.180566 -0.91368 17.899
0.252257 -0.0189261 15.9745
0.13885 0.116555 16.28
0.0859108 0.24618 14.702
-2.36984 -0.965214 21.4959
-3.41629 2.3036 21.6417
-0.116662 -0.334709 19.2752
-0.561311 -0.0832644 21.4875
-0.249539 -0.030029 16.0687
0.174529 -0.901249 17.7423
-0.0905766 0.239172 14.7538
-0.135712 0.10195 16.4103
3.41908 2.31687 21.6403
2.38003 -0.974894 21.4828
0.48621 -0.0463616 20.9203
0.117103 -0.339508 19.3145
-0.971231 -0.649484 19.8785
-0.644129 -0.31363 19.7024
-0.559555 -0.493909 19.552
-0.906033 -0.946447 21.2534
-1.69296 -1.05194 20.3774
-1.67844 -2.01756 20.3878
-0.0866379 -0.393968 21.531
-0.51438 -0.725895 21.5078
-0.119322 -0.72392 21.6636
0.41609 0.0396102 21.6441
0.123626 -0.260696 21.6718
0.270358 -0.0878507 21.5912
0.924801 0.366405 21.3413
0.910398 0.202839 21.5698
0.843412 0.763377 21.1728
1.04359 0.395562 20.9654
1.20312 0.278584 21.187
1.19985 0.852869 21.1081
0.980379 0.154361 21.0134
0.887787 0.605671 21.4443
-1.37614 -0.585788 19.6374
-0.858433 -0.143649 19.5345
-0.733713 -0.431558 19.3129
-1.4242 -1.00433 21.3869
-2.51632 -0.396159 20.2818
-0.240969 -0.587358 21.6978
-1.08148 -0.71574 21.5723
0.505925 -0.146422 21.7503
-0.0436085 -0.448466 21.8188
1.25341 0.100449 21.3228
1.11227 -0.435273 21.4123
1.59876 0.0510296 20.543
1.37708 -0.36176 21.2576
1.79336 0.830784 17.959
1.32247 -0.590262 20.3309
1.48432 0.435501 18.7423
-1.667 0.192187 19.5853
-0.793463 0.361977 19.6719
-0.989586 0.104084 19.0786
-1.94184 -0.132406 21.1116
-1.58283 0.712342 20.3031
-0.812524 -0.432169 21.7866
-1.37096 0.276527 21.351
0.28964 -0.52535 21.772
-0.359934 -0.173631 21.6851
0.85518 -0.787469 21.3286
0.218454 -0.54071 21.4354
0.94917 -0.577467 21.2084
0.410546 -0.640799 21.0644
1.3523 -0.907544 18.3407
0.295479 -0.425132 21.2948
1.39648 -1.20701 19.0103
-0.810933 0.629093 20.0616
-0.571349 0.622076 19.7095
-1.03582 0.673784 20.7971
-1.04715 1.11721 20.2449
-0.601559 0.237988 21.4474
-1.07123 0.892616 21.2977
-0.0601048 -0.217154 21.4025
-0.33317 0.049971 21.6539
0.169364 -0.404223 21.2174
0.0169488 -0.371382 21.3816
0.209694 -0.463544 21.0046
0.199306 -0.559199 21.0776
0.0506234 -0.39765 21.5026
-1.04275 -1.68503 19.0341
-0.558914 -0.663351 19.0803
0.0124092 -0.801835 19.0779
-0.275835 -1.24907 22.1933
0.0162526 -4.38548 21.2593
0.169973 -0.0353401 21.0324
0.000966829 -0.360792 21.1192
0.271739 0.518063 20.4741
-0.00319107 0.105729 19.6212
0.596987 1.39212 19.9033
-2.31166e-05 0.91911 18.1742
0.910729 1.6018 19.5823
1.04525 1.74663 16.7787
0.000166508 1.32732 18.3933
1.10385 1.30322 17.2648
-0.0062085 1.97979 18.306
-0.830081 -0.240389 18.5098
0.0241511 -0.771863 18.5767
1.78649 1.31867 12.0786
2.05552 -0.116665 6.56566
-0.00217436 0.775694 5.12982
2.1405 0.602248 12.5449
0.0673683 1.82515 11.0303
-0.782236 0.830651 18.9127
0.0486783 0.329327 17.724
1.21951 -0.632398 9.71252
0.291768 -0.999327 18.7654
0.104031 1.53528 -6.60951
0.234141 -1.09923 18.356
0.0288088 1.00301 -4.11461
-0.721588 1.29232 19.6964
0.0246991 1.00109 19.3446
-1.11301 1.71463 20.5887
0.0326076 2.12336 19.9239
-0.722186 0.823958 21.8535
-0.00446032 2.45915 21.4108
-0.13427 -0.20139 21.5959
-0.0179372 0.373481 21.9933
0.0232455 -0.489526 21.3796
-0.00280264 -0.241897 21.4957
0.0571284 -0.604374 21.1117
0.0216401 -0.545559 21.2345
-0.00344696 -0.341991 21.7144
1.05799 -1.64357 19.071
0.574135 -0.629124 19.12
0.564469 -0.476373 19.5734
0.283078 -1.25589 22.1654
1.66905 -1.96074 20.3885
-0.170771 -0.0457956 20.9806
0.136973 -0.727151 21.6562
-0.272874 0.51969 20.4927
-0.262016 -0.0977055 21.5897
-0.59314 1.3921 19.9018
-0.843496 0.749725 21.1755
-0.893538 1.62258 19.53
-1.01364 1.74013 16.742
-1.19057 0.852489 21.109
-1.06136 1.35836 17.1857
-0.890354 0.612631 21.4579
0.883528 -0.236972 18.595
0.739895 -0.428747 19.3413
-1.76479 1.36491 11.9677
-1.95434 -0.113823 5.78418
-1.80005 0.875261 17.7562
-2.12668 0.62422 11.3568
-1.51292 0.481272 18.4331
0.81195 0.804808 18.9677
0.981314 0.0918262 19.1479
-1.13372 -0.69251 7.82692
-0.20859 -1.02262 18.1082
-1.40163 -0.903589 17.527
-0.233949 -1.16587 17.6951
-1.40449 -1.19365 18.6553
0.755379 1.24769 19.7178
0.582849 0.594527 19.7348
1.12342 1.6788 20.5984
1.04852 1.07385 20.2569
0.715612 0.867654 21.8785
1.07408 0.899445 21.2985
0.138289 -0.174838 21.5837
0.343415 0.061153 21.6789
-0.00310592 -0.460465 21.3955
0.0052242 -0.377175 21.4118
-0.0741949 -0.617048 21.3093
-0.192422 -0.562443 21.0398
-0.0372395 -0.397895 21.5082
0.944695 -0.638426 19.8935
0.635928 -0.298736 19.7264
0.908213 -0.948015 21.2476
1.6948 -1.05335 20.3778
0.0947193 -0.398688 21.5202
0.519757 -0.72945 21.5032
-0.405184 0.0263242 21.6317
-0.113948 -0.264964 21.6684
-0.911768 0.359433 21.3408
-0.893726 0.185869 21.5702
-1.04307 0.398247 20.9541
-1.2019 0.28399 21.1821
-0.982715 0.17328 21.057
1.36971 -0.576338 19.6447
0.841739 -0.144337 19.5597
1.43128 -1.01513 21.3934
2.54054 -0.400082 20.2804
0.241874 -0.587994 21.6937
1.08616 -0.722356 21.5794
-0.498942 -0.148805 21.7503
0.0459586 -0.447681 21.8206
-1.25346 0.0949111 21.3236
-1.09772 -0.422136 21.3829
-1.63418 0.0731279 20.4832
-1.40132 -0.368157 21.2573
-1.39037 -0.592852 20.2645
1.64599 0.182769 19.6083
0.780578 0.344611 19.7013
1.95307 -0.135333 21.1178
1.56558 0.695253 20.308
0.815791 -0.434607 21.7916
1.38288 0.282741 21.3563
-0.288169 -0.525032 21.7669
0.369194 -0.175353 21.7154
-0.855669 -0.802199 21.3258
-0.201182 -0.55876 21.434
-0.968157 -0.603593 21.1226
-0.40781 -0.707139 21.0627
-0.253497 -0.468706 21.4368
0.798452 0.603402 20.0793
1.0308 0.662139 20.7983
0.614812 0.249921 21.4682
0.0689191 -0.22103 21.4628
-0.12844 -0.403556 21.1989
-0.104554 -0.40243 21.2874
-1.1673 -0.640851 19.7638
-1.43955 -1.87733 18.4152
-1.13519 -1.11195 19.5168
-1.80496 -1.05199 18.8959
-0.681196 -0.497947 19.4534
-2.56004 -2.47232 20.2459
-1.14496 -1.00992 21.33
0.0511866 -0.54462 18.2699
-0.699436 -1.3607 21.6649
-1.17101 -1.98669 20.9471
-0.0777142 -0.919355 21.1309
-0.145354 -0.487836 21.6021
0.107186 0.18349 14.9317
0.126815 -0.366797 21.6537
0.071214 -0.342218 16.6765
0.274187 -0.0910399 19.9701
0.471232 -0.035791 21.7159
0.0580436 0.472005 14.1814
0.489311 0.266203 21.4256
0.44748 0.458442 16.0729
1.10014 0.939681 19.3391
1.12449 0.277926 21.3159
0.442674 1.51669 14.5539
1.05868 0.850365 21.063
1.65182 0.804769 17.1564
1.44039 0.954292 19.4309
1.40061 0.286387 20.6314
1.29288 1.47884 16.3528
1.21245 1.04237 20.9582
1.77683 0.542797 18.9491
1.14104 0.604874 19.7153
-1.6795 -0.242242 19.5246
-2.97974 -0.699648 16.3955
-2.50263 0.48132 18.6451
-0.932282 -0.183156 19.1217
-5.14157 -0.78625 19.8406
-1.80758 -0.635365 21.3311
-3.08789 -0.324377 21.4462
-0.889978 -1.27352 19.17
-0.524212 -0.607809 21.8086
-1.15811 -0.838601 20.4809
0.204091 0.0975399 16.6171
0.499596 -0.366394 21.6942
0.666912 -0.0784476 17.3781
1.42081 -0.0525369 13.1202
1.30316 -0.417859 21.0238
0.522844 -0.433305 3.09436
0.981819 -0.792641 16.8122
2.09554 -0.225439 16.1421
1.244 -0.377771 21.095
2.20607 0.712596 9.69377
1.5562 -1.1961 18.999
1.77924 -0.203098 17.6862
-1.25508 0.621496 19.832
-1.55791 1.95017 18.7969
-0.829206 0.95248 19.89
-0.848721 0.557549 19.3353
-2.04034 1.44959 20.0916
-1.59373 0.52167 20.8575
-2.52282 2.33809 20.2775
-1.17377 1.09855 20.7383
-2.1328 0.753754 21.5408
-0.865916 0.0240795 21.6705
-1.92428 0.780538 22.1097
-0.7161 0.462808 21.6626
-0.507263 -0.160335 21.9959
0.00394252 -0.374825 21.5815
0.0185128 -0.572153 20.0589
-0.0969543 -0.217346 21.5121
0.0795096 -0.706911 21.5854
0.333291 -0.635356 21.299
0.0769243 -0.807329 19.192
0.0937953 -0.463204 21.2717
0.382251 -0.937829 21.5483
0.6082 -0.581822 20.6742
0.28857 -1.10377 18.8703
0.0464499 -0.434919 21.5573
0.251901 -0.747572 20.1367
1.46306 -1.78207 18.4849
0.031254 -2.3737 18.5931
0.0419017 -3.07481 16.0289
0.0129525 -0.859586 18.7692
0.0132357 -6.46595 22.9577
-0.053044 -0.581019 18.4177
0.00610613 -1.26343 22.4636
-0.00119727 0.00755256 12.7377
-0.104888 0.179542 14.9775
-0.00180719 -0.0732094 20.1297
-0.00335054 0.146757 11.9427
-0.0511734 0.480623 14.2514
-0.00152278 0.388541 18.8357
-3.20422e-05 0.758853 10.3619
-0.417067 1.50984 14.462
-0.00108885 1.12601 18.2206
-0.0167116 -0.225291 2.69217
-0.0068053 1.44591 12.8711
-1.27761 1.50818 16.2661
0.00703617 1.88248 18.803
0.0267911 1.09569 6.60597
0.0499138 1.99342 15.7549
2.94825 -0.704098 16.5919
0.0936782 3.12237 13.4471
0.026211 -0.322801 17.9324
-0.426039 -0.429056 2.63661
-0.00746706 0.976085 -5.20689
0.106359 0.240985 -2.66525
-2.17507 0.772681 9.02752
0.027889 1.54805 -6.52902
0.104264 1.4472 2.35739
1.56765 1.85877 18.8763
0.032078 1.70237 19.5189
0.0389772 1.14056 18.4782
0.0313955 3.92474 19.5404
2.52804 2.29602 20.2956
0.0214591 2.43173 20.3941
-0.00434484 5.61189 21.099
1.94005 0.822285 21.991
-0.0231242 1.38019 22.1287
-0.0193988 0.358439 19.6102
-0.103382 -0.540912 18.9965
-0.00953483 -0.0691889 21.6607
-0.025493 -0.0315739 11.5341
-0.0474685 -0.77252 18.1017
-0.00621376 -0.387571 21.4396
-0.0256537 -0.620603 12.6694
-0.289059 -1.16662 18.2424
-0.00515044 -0.536858 21.2489
0.0199543 -0.956809 15.1303
1.15752 -0.633133 19.778
1.14109 -1.06875 19.5494
1.79399 -1.03046 18.9308
0.687729 -0.489158 19.4669
2.55227 -2.45157 20.2459
1.14796 -1.00988 21.3272
0.722953 -1.34557 21.6412
1.15036 -1.98943 20.8542
0.0940707 -0.934976 21.2169
0.152477 -0.4908 21.5957
-0.114548 -0.373141 21.6444
-0.069236 -0.349726 16.7311
-0.274175 -0.111511 20.135
-0.463294 -0.0422494 21.7127
-0.489304 0.254387 21.477
-0.461817 0.441082 16.2466
-1.10485 0.91319 19.4116
-1.11545 0.269389 21.3084
-1.05703 0.847187 21.0582
-1.65232 0.812347 17.0219
-1.44058 0.980345 19.2982
-1.4167 0.301158 20.6262
-1.21203 1.05091 20.9376
-1.77522 0.585022 18.4982
-1.1682 0.640645 19.4797
1.65465 -0.240383 19.5459
2.43079 0.459084 18.7288
0.937072 -0.177963 19.159
5.1895 -0.798263 19.8238
1.81534 -0.643966 21.3387
3.10077 -0.329419 21.4493
0.878339 -1.27602 19.0688
0.526107 -0.609235 21.8106
1.16333 -0.841618 20.4621
-0.200889 0.0854015 16.7114
-0.494252 -0.365488 21.7051
-0.668421 -0.0909546 17.4783
-1.42084 -0.0414129 13.2687
-1.30403 -0.422869 20.993
-0.96198 -0.77381 16.2629
-2.14946 -0.23382 15.5822
-1.30391 -0.33273 20.9013
-1.54227 -1.0898 18.1225
-1.8214 -0.135881 17.2571
1.2368 0.5996 19.8556
0.834468 0.907351 19.9114
0.838778 0.520329 19.3854
2.02924 1.4074 20.1027
1.58904 0.519381 20.8585
1.17262 1.0798 20.7404
2.14331 0.763129 21.5416
0.879852 0.026724 21.6855
0.724188 0.493017 21.6815
0.524082 -0.156476 22.027
-0.00272284 -0.389024 21.6006
0.110351 -0.215178 21.5072
-0.0536993 -0.71249 21.5058
-0.318436 -0.661853 21.288
-0.0705105 -0.484781 21.3347
-0.355556 -0.950212 21.6504
-0.667469 -0.572445 20.6144
-0.0626375 -0.510391 21.2894
-0.236597 -0.822802 19.7347
-1.43683 -1.14404 19.2605
-0.833456 -1.71719 21.9503
0.181098 -0.429708 20.3302
0.514426 0.33253 19.53
1.31582 0.994354 19.3901
1.48721 0.833074 20.0244
-2.36629 -0.409469 18.56
-2.36855 -1.29549 21.484
-0.199893 -0.577116 17.5589
0.599134 0.431261 15.153
1.62695 -0.238975 14.7443
1.90367 0.0728778 16.6346
-1.50888 1.10885 19.4319
-2.20429 1.12747 20.7393
-1.30321 0.227346 22.0433
-0.0610556 -0.50421 21.796
0.241016 -0.838736 21.3922
0.427552 -1.01248 21.3983
0.0275864 -3.00872 17.6745
0.00203587 -0.408858 15.0231
-0.00239896 0.0912069 12.0163
0.00039411 0.286426 11.3274
-0.00369497 0.788388 11.3442
0.0220446 1.64655 13.339
0.0767131 -0.896931 13.4606
-0.00414335 -0.263741 -2.59694
0.132287 0.827402 1.27147
0.0631864 2.97562 18.2527
0.018902 3.97801 19.4499
-0.0268498 2.3751 21.3282
-0.0112805 -0.222632 15.1622
-0.029764 -0.114287 12.0557
-0.00475054 -0.784802 12.7447
1.43403 -1.12613 19.3015
0.853759 -1.71109 21.9371
-0.17241 -0.460693 20.498
-0.520496 0.318322 19.6407
-1.31045 0.992302 19.3622
-1.49261 0.861372 19.6841
2.34051 -0.395431 18.618
2.35299 -1.30426 21.4101
0.199794 -0.57641 17.5438
-0.600783 0.415364 15.2585
-1.61983 -0.232319 14.3848
-1.94312 0.110915 16.0333
1.49452 1.05187 19.4661
2.19177 1.11127 20.7431
1.33476 0.250818 22.0635
0.0764323 -0.51432 21.8377
-0.216117 -0.84426 21.3817
-0.36683 -1.02464 21.0902
-0.301403 -0.1585 0.331592
0.0137017 -0.217342 0.903147
-0.00568224 0.00103073 0.0935012
0.0440253 -0.0216524 0.0616744
-0.00603415 0.0109594 0.0697998
-0.0365138 0.0788928 1.141
-0.210182 0.0659812 0.242857
-0.0141301 0.108555 0.260737
-0.311972 -0.00221192 0.826129
-0.0113073 -0.0178562 -0.00319388
-0.0552987 0.0211567 -0.0792303
-0.0133769 -0.0209172 0.0729623
-0.013777 -0.217496 0.904783
0.280804 -0.149039 0.31002
0.00591825 0.00108781 0.0921068
0.0060164 0.0109483 0.07021
-0.0442312 -0.0218253 0.061766
0.0361697 0.0729484 1.09339
0.0144038 0.10927 0.262245
0.205693 0.0645449 0.237572
0.311735 -0.00208283 0.824924
0.0546323 0.0217369 -0.0806751
0.0113034 -0.0179991 -0.00312898
0.0132546 -0.0206641 0.0720897
0.00651916 -0.00135922 0.10993
-1.20844e-05 3.07481e-05 0.00213679
-6.77522e-05 -6.04046e-05 0.00330116
0 0 0
-0.0220002 0.0134393 0.264962
-0.000347377 0.000157164 0.0145716
0.000152242 0.00434047 0.0343841
3.93995e-05 5.09029e-05 0.00215137
-0.0219485 -0.0109961 0.044651
-0.000350693 0.000179417 0.0103057
0 0 0
-0.0299168 0.0452841 0.101038
0 0 0
0.00140476 0.00504171 0.0234658
0 0 0
0.0435572 -0.00818766 0.317209
-0.0064813 -0.00132062 0.109653
0 0 0
2.19673e-05 4.80884e-05 0.00333869
3.5117e-05 -3.1371e-05 0.0017086
0.0263817 0.0124729 0.288704
-3.99329e-05 4.91249e-05 0.00208397
0.000365399 0.00016942 0.0150404
-0.000141292 0.00450565 0.034721
0.0208198 -0.0104289 0.0423406
0.0364425 0.0388642 0.0978502
0.000362407 0.00018443 0.0106384
0 0 0
0 0 0
-0.0439209 -0.00825496 0.318789
-0.00141916 0.00509934 0.0236851
0 0 0
-0.235069 -0.175903 0.997611
-0.06372 -0.0168683 0.0313459
6.03586e-06 -8.69974e-06 0.0284015
0 0 0
5.12632e-18 1.17612e-17 -1.36294e-16
-7.27106e-06 -2.3118e-06 -0.000160646
0 0 0
-0.038305 -0.0194701 0.00303228
2.6936e-05 0.0112812 0.0736487
-0.000626498 -0.0664859 -0.0105866
0 0 0
0 0 0
-0.000870537 0.569481 0.384915
-2.48235e-07 0.00197274 0.0118836
-0.0329876 -0.1428 0.755978
0 0 0
0 0 0
0 0 0
0 0 0
-0.0013872 -0.000135682 -0.000297597
0.0647574 -0.0171044 0.0318496
0.233695 -0.176677 1.00072
5.83323e-06 -1.86098e-06 -0.000129657
0 0 0
0.0408304 -0.0207821 0.00322882
9.48552e-18 1.52688e-17 -6.56925e-17
2.45153e-18 -2.48089e-18 -1.24141e-16
0 0 0
0 0 0
0.0334278 -0.143351 0.75781
0.00140274 -0.000133012 -0.000311359
0 0 0
-7.52637e-05 0.000986108 0.0136513
0 0 0
0 0 0
-0.000166597 0.00120284 0.0188079
0 0 0
7.66525e-08 -2.05268e-07 -1.92559e-05
0.000293187 0.00434691 0.0349335
-0.0309183 0.0417513 0.389843
0 0 0
1.37207e-06 5.0131e-06 0.000980742
0 0 0
-0.0233838 0.0443339 0.674754
-1.09159e-05 0.0197812 0.0355336
-2.09014e-06 0.0180648 0.090965
-7.79179e-06 0.000378234 0.0433555
-1.09218e-05 -0.00226603 0.0128847
0 0 0
7.7553e-05 0.0010148 0.0138817
0 0 0
0.000163853 0.00117795 0.0184469
-0.000291603 0.0043655 0.0349924
0.028326 0.0385624 0.362608
0.0230636 0.0443671 0.673934
0 0 0
-0.0609779 -0.0356215 0.238581
-0.0495768 0.000333501 0.189127
-0.00434879 9.48836e-05 0.117574
0 0 0
-0.00032628 0.000458227 0.0214304
-2.86816e-05 0.001157 0.00754268
4.66917e-05 0.00322063 0.0300561
0.000605388 0.0034854 0.0159754
0 0 0
0 0 0
0 0 0
0.000729255 -0.00120084 0.00849303
0 0 0
0 0 0
0 0 0
8.33557e-07 -2.33935e-07 -1.53506e-05
3.52061e-19 1.04973e-19 1.74591e-17
5.31327e-19 -1.58387e-19 -2.62061e-17
0 0 0
0 0 0
0.0003016 0.000236116 0.0231056