# vtk DataFile Version 2.0
tri_press
ASCII
DATASET UNSTRUCTURED_GRID
POINTS 3682 float
-0.677145 0.225 -1.935
-0.716946 0.305 2.045
-0.735 0.745 -1.83913
-0.595 1.48026 2.025
0.681145 0.225 -1.935
0.716854 0.305 2.045
0.734604 0.755 -1.825
0.595 1.48026 2.025
-0.740618 0.201461 -0.608333
-0.772703 0.209309 0.718334
-0.755122 1.05688 -0.551087
-0.692481 1.28599 0.736957
0.743007 0.201708 -0.608333
0.774411 0.208873 0.718334
0.753621 1.0623 -0.541667
0.691525 1.2885 0.741667
-1.40019 -0.317684 -3.00983
-1.41073 -0.209902 -1.96523
-1.45214 -0.228842 -0.637107
-1.46779 -0.269044 0.699616
-1.43467 -0.210538 2.02848
-1.42658 -0.104851 3.07668
-1.43486 0.0178349 4.11838
-1.40543 0.0520727 -2.97372
-1.41603 0.196082 -1.93391
-1.46193 0.226747 -0.613447
-1.46261 0.243757 0.711182
-1.4037 0.334867 2.03248
-1.4083 0.441859 3.08003
-1.42728 0.558216 4.12298
-1.43206 0.708793 -2.89185
-1.45501 0.842672 -1.85244
-1.47068 1.08586 -0.558676
-1.40699 1.2884 0.733231
-1.32055 1.46361 2.02809
-1.36512 1.56136 3.07751
-1.41195 1.65358 4.12706
-1.45423 1.91286 -2.79655
-1.4652 2.08596 -1.76163
-1.46657 2.39615 -0.48245
-1.44143 2.71981 0.788991
-1.41323 2.97091 2.06941
-1.41521 3.10963 3.10694
-1.43401 3.21457 4.15261
-0.680036 -0.299938 -3.01027
-0.681922 -0.184807 -1.96738
-0.721277 -0.236976 -0.635274
-0.750572 -0.297584 0.705561
-0.732545 -0.238247 2.03795
-0.731088 -0.122892 3.0833
-0.739516 0.00715995 4.12254
-0.68243 0.0572034 -2.97153
-0.72695 0.429174 3.08555
-0.739181 0.551341 4.12626
-0.705082 0.670947 -2.88309
-0.693233 1.5674 3.07733
-0.732116 1.65682 4.12759
-0.728433 1.88089 -2.78842
-0.738855 2.05244 -1.75314
-0.747288 2.38104 -0.476614
-0.739029 2.72584 0.790417
-0.725526 2.98587 2.06783
-0.730297 3.1234 3.10518
-0.746561 3.22479 4.15158
0.733301 -0.298013 -3.00733
0.720709 -0.184193 -1.96644
0.751694 -0.236545 -0.63471
0.759436 -0.297628 0.705947
0.71641 -0.2382 2.03822
0.678939 -0.122664 3.08384
0.659138 0.00760031 4.12346
0.727502 0.0598659 -2.96758
0.656053 0.429346 3.08595
0.643699 0.551757 4.12713
0.73743 0.676704 -2.8747
0.613526 1.56769 3.07793
0.622697 1.65734 4.12864
0.724212 1.88549 -2.7813
0.718427 2.05713 -1.74576
0.700502 2.38475 -0.470444
0.66775 2.72823 0.794617
0.638778 2.98731 2.07046
0.628428 3.12451 3.10723
0.62286 3.22582 4.15349
1.44781 -0.313337 -3.0031
1.43938 -0.207041 -1.96071
1.47541 -0.226889 -0.633901
1.48547 -0.268265 0.701578
1.43592 -0.210136 2.02965
1.39155 -0.104192 3.07817
1.36684 0.0188517 4.12047
1.44064 0.0576922 -2.96519
1.42167 0.200068 -1.92767
1.46701 0.229473 -0.608988
1.47655 0.244667 0.713485
1.41354 0.335098 2.03331
1.36545 0.442427 3.08132
1.34768 0.559198 4.12499
1.45263 0.718331 -2.87759
1.4502 0.853518 -1.83609
1.46503 1.09303 -0.546551
1.41141 1.29178 0.73959
1.32339 1.46449 2.02997
1.31114 1.56224 3.0793
1.31752 1.65479 4.12944
1.44754 1.92143 -2.7832
1.44267 2.09452 -1.74805
1.42286 2.40303 -0.47099
1.3797 2.72441 0.797065
1.33686 2.97385 2.07476
1.32095 3.11195 3.11122
1.31608 3.21671 4.15658
-0.741868 0.485 -1.92286
0.002 0.210193 -1.94981
-0.718118 0.203994 -1.27167
-0.695252 0.89263 2.07428
-4.60148e-05 0.262983 2.08702
-0.760088 0.241891 1.38167
-0.000198007 0.814055 -1.89612
-0.76695 0.922826 -1.19511
0 1.51843 2.06317
-0.663111 1.40249 1.38098
0.74742 0.49 -1.91955
0.721427 0.204003 -1.27167
0.695594 0.89263 2.07467
0.76067 0.241899 1.38167
0.763715 0.928255 -1.18333
0.66248 1.4036 1.38333
-0.758243 0.203803 0.0550001
-0.858646 0.629168 -0.57971
0.00119447 0.202448 -0.608333
-0.853806 0.747648 0.727645
0.000853956 0.202896 0.718334
-0.74434 1.19197 0.092935
-0.00075076 1.32505 -0.546377
-0.000477716 1.56181 0.739312
0.760233 0.203767 0.0550001
0.858731 0.632006 -0.575
0.853449 0.748685 0.73
0.743052 1.19588 0.1
-0.869345 0.557084 -1.23339
0.869883 0.561003 -1.2275
0.00159723 0.202201 -1.27167
-0.000474383 0.988357 -1.18922
0.000900999 0.4875 -2.17992
-0.854651 0.688408 0.0739675
0.854697 0.690346 0.0775
0.00102421 0.202675 0.0550001
-0.000614238 1.60752 0.0964675
-0.849207 0.820139 1.38132
0.84914 0.820658 1.3825
0.000403971 0.230899 1.38167
-0.000238858 1.5867 1.38216
-2.30074e-05 0.89263 2.13182
-0.719405 0.355 -1.93883
-0.337573 0.211572 -1.94843
-0.708669 0.20346 -1.60333
-0.74359 0.598815 2.09713
-0.358496 0.263587 2.08641
-0.761429 0.250534 1.71333
-0.747438 0.615 -1.89
-0.367599 0.789435 -1.87753
-0.763116 0.846055 -1.51712
-0.660566 1.18645 2.06508
-0.2975 1.51145 2.05619
-0.636588 1.44891 1.70299
0.341573 0.211557 -1.94844
0.724643 0.3575 -1.93763
0.712317 0.203471 -1.60333
0.358404 0.26359 2.08641
0.743559 0.598815 2.09717
0.761653 0.250559 1.71333
0.367203 0.792984 -1.86902
0.748986 0.6225 -1.88025
0.760644 0.853112 -1.50417
0.2975 1.51143 2.05617
0.660557 1.18645 2.06509
0.634843 1.44803 1.70417
-0.727619 0.204476 -0.94
-0.748687 0.203375 -0.276667
-0.82559 0.402335 -0.594022
-0.367461 0.206456 -0.608333
-0.788315 0.203681 1.05
-0.764642 0.207387 0.386667
-0.836659 0.466776 0.722989
-0.385585 0.206781 0.718334
-0.773071 1.00189 -0.873098
-0.829688 0.854424 -0.565398
-0.739191 1.11388 -0.229076
-0.431515 1.29812 -0.548732
-0.682569 1.34901 1.05897
-0.774665 1.01758 0.732301
-0.71261 1.23318 0.414946
-0.408804 1.54855 0.738134
0.736069 0.199003 -0.94
0.369908 0.206464 -0.608333
0.751118 0.203239 -0.276667
0.826033 0.404275 -0.591667
0.789247 0.20368 1.05
0.387182 0.206786 0.718334
0.765858 0.207784 0.386667
0.836734 0.467377 0.724167
0.77092 1.00753 -0.8625
0.429937 1.30068 -0.544022
0.828202 0.858169 -0.558333
0.737861 1.11862 -0.220833
0.681819 1.35086 1.0625
0.407262 1.54863 0.740489
0.774274 1.01948 0.735834
0.711482 1.23638 0.420833
-0.861215 0.521042 -1.57812
-0.370484 0.48625 -2.15553
0.00179862 0.202097 -1.61074
0.0014505 0.348846 -1.92065
-0.86049 0.380539 -1.25253
-0.35826 0.203486 -1.27167
-0.834512 0.856385 1.7278
-0.347637 0.89263 2.12081
0.000178978 0.251005 1.73434
-3.45111e-05 0.577806 2.14158
-0.89557 0.531015 1.38149
-0.379842 0.231153 1.38167
-0.000336195 0.919858 -1.54267
0.000351496 0.650777 -2.08586
-0.854131 0.739955 -1.21425
-0.383712 0.976232 -1.19216
-0.000119429 1.56345 1.72266
-1.15037e-05 1.20553 2.11754
-0.770013 1.11132 1.38115
-0.331675 1.58062 1.38157
0.861471 0.525502 -1.57352
0.374161 0.48875 -2.15147
0.860507 0.382503 -1.24958
0.361512 0.203487 -1.27167
0.834343 0.856644 1.72858
0.347785 0.89263 2.12079
0.895572 0.531278 1.38208
0.380537 0.231153 1.38167
0.850988 0.744629 -1.20542
0.38162 0.977613 -1.18628
0.769796 1.11213 1.38292
0.331121 1.58019 1.38274
-0.83026 0.434199 0.0644838
-0.376917 0.206623 0.0550001
-0.856765 0.593126 -0.906549
-0.858969 0.658788 -0.252871
0.00139585 0.202273 -0.94
0.00110934 0.202562 -0.276667
-0.854251 0.718028 0.400806
-0.852226 0.783894 1.05448
0.000939084 0.202787 0.386667
0.000628964 0.202403 1.05
-0.810226 0.945554 0.0834513
-0.466946 1.58868 0.0947013
-0.000612571 1.13551 -0.867799
-0.000682499 1.47656 -0.224955
-0.000545977 1.55998 0.41789
-0.000358287 1.56205 1.06073
0.830571 0.435503 0.0662501
0.378924 0.206629 0.0550001
0.856894 0.596505 -0.90125
0.858945 0.661176 -0.24875
0.854215 0.719515 0.40375
0.852234 0.784671 1.05625
0.801159 0.944255 0.08875
0.464618 1.5885 0.0982338
-0.854542 0.36777 -1.59073
-0.836444 0.397927 -0.923274
-0.845783 0.791489 -0.889823
-0.85568 0.677478 -1.54762
0.855324 0.370001 -1.58843
0.85558 0.683564 -1.53884
0.844518 0.795892 -0.881875
0.829722 0.39968 -0.920625
-0.347916 0.203451 -1.60704
0.351542 0.203451 -1.60704
0.366806 0.2035 -0.94
-0.363986 0.2035 -0.94
-0.375656 0.908705 -1.52989
-0.380824 1.11402 -0.870448
0.379028 1.11749 -0.865149
0.374412 0.910224 -1.52342
-0.354028 0.351923 -2.15785
-0.369041 0.632889 -2.05519
0.370682 0.636639 -2.05397
0.357867 0.353173 -2.15493
-0.829413 0.417523 -0.264769
-0.834311 0.450062 0.393737
-0.783418 0.977053 0.407876
-0.818924 0.899473 -0.240974
0.829823 0.419129 -0.262708
0.817666 0.902705 -0.234792
0.782952 0.979488 0.412292
0.834466 0.451034 0.395208
-0.372189 0.20654 -0.276667
0.374416 0.206546 -0.276667
0.383053 0.206708 0.386667
-0.381251 0.206703 0.386667
-0.466492 1.47792 -0.227015
-0.42594 1.54475 0.416418
0.424074 1.54483 0.419362
0.464731 1.4795 -0.222894
-0.856281 0.504747 1.05224
-0.87355 0.564915 1.72057
-0.758674 1.14888 1.71539
-0.779634 1.06407 1.05673
0.856711 0.505029 1.05313
0.779338 1.06536 1.05938
0.758545 1.14929 1.71638
0.873285 0.565047 1.72096
-0.382883 0.1984 1.05
0.384085 0.198418 1.05
0.36947 0.25168 1.72384
-0.369169 0.251679 1.72384
-0.339077 1.55416 1.05985
-0.314587 1.55665 1.71283
0.31431 1.55662 1.71341
0.338322 1.55414 1.06162
-0.353067 0.588311 2.13782
0.353095 0.588311 2.13787
0.322643 1.19599 2.10712
-0.322569 1.19599 2.10713
-0.700999 0.29 -1.93964
-0.507359 0.211607 -1.94839
-0.70228 0.204857 -1.76917
-0.746819 0.451908 2.08762
-0.537721 0.266138 2.08386
-0.748063 0.268891 1.87917
-0.744715 0.68 -1.86806
-0.5513 0.759135 -1.85025
-0.755358 0.801827 -1.67812
-0.633784 1.33335 2.05104
-0.44625 1.50293 2.04767
-0.617499 1.46629 1.86399
0.511359 0.211589 -1.94841
0.705685 0.29125 -1.93911
0.707536 0.20343 -1.76917
0.537629 0.266115 2.08389
0.746737 0.451908 2.08761
0.747943 0.269089 1.87917
0.550903 0.764337 -1.83735
0.744878 0.68875 -1.85571
0.753454 0.809886 -1.66458
0.44625 1.50292 2.04766
0.633303 1.33335 2.05057
0.617154 1.46638 1.86458
-0.737766 0.199321 -0.774167
-0.744711 0.202359 -0.4425
-0.794355 0.296273 -0.601178
-0.552467 0.207102 -0.608333
-0.774857 0.212147 0.884167
-0.767991 0.20903 0.5525
-0.805394 0.337686 0.720661
-0.579446 0.207442 0.718334
-0.774253 1.03954 -0.712092
-0.782092 0.950493 -0.558243
-0.747364 1.08559 -0.390081
-0.635715 1.26229 -0.549909
-0.682144 1.31212 0.897962
-0.739237 1.15462 0.734629
-0.702751 1.25979 0.575951
-0.611661 1.53931 0.737546
0.740125 0.199769 -0.774167
0.554945 0.207109 -0.608333
0.747085 0.202451 -0.4425
0.794844 0.297829 -0.6
0.775634 0.212471 0.884167
0.580988 0.207446 0.718334
0.769126 0.209337 0.5525
0.805547 0.338138 0.72125
0.773298 1.04595 -0.702083
0.633953 1.26584 -0.542844
0.78099 0.955276 -0.55
[...]
POINT_DATA 3682
SCALARS point_scalars float 1
LOOKUP_TABLE default
-85.8022
-60.0942
-36.998
-44.817
-87.5027
-60.0728
-34.3723
-44.8548
-41.8698
-40.7884
-84.7169
-53.4974
-41.7032
-40.3374
-84.7966
-53.2976
34.6348
-89.0001
-41.144
-39.2141
-71.7367
-57.279
-50.9166
34.6348
-80.8049
-41.5553
-39.1008
-56.3714
-53.4345
-49.5725
59.0357
-62.9386
-64.2258
-50.4097
-50.4927
-45.0146
-45.009
-44.965
-43.4494
-114.742
-60.2539
-48.0363
-43.2227
-43.7883
12.6259
-126.309
-42.6136
-41.0155
-58.5604
-50.9166
-50.8898
95.1556
-49.4506
-49.4506
156.753
-40.856
-39.8079
10.6043
-19.0186
-101.512
-59.3353
-50.0409
-40.5248
-39.4558
11.9369
-133.82
-41.6152
-40.5466
-58.568
-50.8744
-50.8617
106.426
-49.4287
-49.4159
158.194
-40.2858
-38.8719
7.64966
-15.8898
-103.515
-58.2754
-49.5675
-40.545
-39.4448
44.0762
-88.2511
-41.2841
-42.0505
-71.7737
-57.2405
-50.8744
44.0762
-78.9272
-41.4999
-38.5889
-56.3234
-53.4131
-49.5469
64.279
-66.4446
-64.3032
-50.3298
-50.4312
-44.9619
-44.2948
-34.9684
-40.8663
-114.484
-59.4591
-48.4967
-43.2758
-43.8046
-41.2236
-118.819
-57.0707
-49.1689
-57.8196
-51.8089
-17.6275
-48.6784
-33.8301
-49.5837
-43.9061
-56.3144
-49.1193
-51.8332
-46.8398
-49.3944
-39.1382
-49.9176
-42.6254
-43.1289
-44.7888
-68.8827
7.41585
-64.1271
-39.288
-50.2215
-43.0429
-68.6121
-63.7125
-63.5666
-57.6585
21.2517
198.678
-47.8393
-47.7972
-40.0455
-130.79
-52.95
-52.9786
-50.6975
-44.842
-49.6603
-41.2382
-114.314
-81.6258
-51.8246
-58.0046
-59.2309
-32.704
-29.8546
-50.9583
-45.3798
-37.3003
-48.3692
-115.089
-43.5036
-80.7744
-57.9522
-51.8063
-59.2439
-24.9681
-33.3434
-49.2973
-37.3312
-45.3405
-48.3636
-47.439
-39.698
-43.3839
-42.5045
-52.8417
-40.5639
-39.1387
-43.6048
-76.975
-63.9828
-73.4011
-4.50018
-50.8926
-49.0984
-60.2907
-61.3111
-48.5757
-42.5308
-39.6532
-43.4823
-52.5642
-43.5687
-39.844
-38.9772
-75.8422
-5.7981
-64.195
-73.2387
-50.6579
-62.2314
-49.0628
-60.0758
-98.4746
183.356
-75.3284
192.233
-61.7313
-57.0241
-57.3468
-48.9827
-50.4903
-49.4854
-56.1006
-50.8055
-7.77678
135.357
-63.4583
9.45852
-37.9127
-36.5659
-50.093
-44.7652
-96.4389
182.388
-61.2018
-56.9827
-57.3218
-48.9547
-56.288
-50.7935
-62.9603
10.0526
-50.0741
-44.6902
-42.1743
-39.7803
-51.6196
-49.3428
-47.992
-40.2729
-44.9487
-44.1184
-41.4963
-51.4727
-57.8914
-115.096
41.537
-25.5442
-83.6028
-51.7961
-42.075
-39.7741
-51.6971
-49.3594
-44.9498
-44.1041
-57.0813
-113.173
-99.8845
-54.1256
-60.2356
-72.2529
-98.8322
-71.7098
-60.3629
-53.8874
-75.1383
-75.0505
-47.7832
-47.7128
-14.1728
32.0664
31.9697
-13.8394
176.692
115.31
114.224
180.235
-42.9182
-40.9445
-53.0845
-61.5007
-42.9305
-61.8165
-53.1453
-40.9444
-40.0314
-40.0255
-40.9913
-41.0082
-46.0634
-78.2806
-77.8254
-49.7644
-36.8221
-66.7219
-51.0382
-48.6069
-36.8088
-48.6078
-51.0066
-66.6428
-52.0276
-51.9898
-50.795
-50.8063
-50.933
-38.3258
-38.2007
-51.0636
-49.1652
-49.1504
-39.2835
-39.3854
-35.4607
-126.739
-98.5156
-54.2005
-59.1925
-57.8821
-36.8269
-14.168
-46.7762
-44.7364
-40.1521
-47.9064
-128.663
-37.7943
-100.123
-59.3122
-54.1678
-57.6505
-15.5684
-34.7568
-47.1759
-40.1677
-44.6936
-47.8514
-43.2016
-40.5702
-41.5832
-42.202
-41.1993
-39.3338
-38.9935
-42.7123
-96.0124
-73.1356
-77.8268
-59.2193
-50.7534
-51.4472
-56.694
-58.5112
-43.6292
-42.1881
-40.4388
-41.5938
-40.4303
-42.6294
-39.4208
-38.7209
-98.6706
-59.7212
-73.5181
-77.8032
-50.7665
-58.4808
-51.3156
-56.3251
-41.8258
-42.9277
-53.9229
135.854
-117.804
-118.188
-90.3416
53.1084
-65.8024
-51.5193
-60.8873
-56.784
-50.121
-47.9117
-59.0596
-48.4719
-57.7065
-57.6753
-52.6489
-49.302
-52.5338
-49.443
-55.6003
-50.7193
-18.7042
-16.8391
-15.7906
76.6048
-44.6286
-50.6252
-61.8171
-2.9899
-34.9416
-34.9389
-42.9366
-28.8532
-48.7972
-50.1659
-49.7916
-45.6588
-45.0184
-43.2701
-59.6325
135.081
-65.5042
-51.5802
-60.1364
-56.6061
-50.0888
-47.8227
-59.1251
-48.4227
-52.5403
-49.436
-55.7321
-50.7167
-45.2188
-52.8659
-61.38
-2.50846
-48.8176
-49.9834
-49.718
-45.4526
-39.2939
-39.611
-40.9152
-39.5185
-45.9175
-55.0017
-50.3532
-49.8768
-42.5163
-42.5281
-44.8531
-41.1262
-41.7414
-46.7088
-44.0285
-44.1972
-44.5895
-44.5744
-42.8769
-47.3288
-69.2978
-65.7006
-62.2854
-85.7907
6.45083
6.11025
27.938
-20.2332
-63.7961
-63.7657
-72.5207
-57.2152
-39.2655
-39.5268
-40.7702
-39.5141
-46.1254
-55.2511
-50.2709
-50.0047
-41.6993
-46.6069
-44.0309
-44.1273
-69.1834
-66.0694
-62.1508
-85.5227
-73.19
-62.9159
-64.8331
-60.0057
-72.4749
-62.7105
-64.666
-59.7554
-65.0985
-57.3445
-57.3249
-52.1758
6.87541
18.1878
18.5713
35.587
193.299
192.274
166.777
193.436
-44.3985
-49.0828
-46.011
-52.9703
-44.3623
-49.0164
-45.9242
-52.2978
-39.9574
-39.936
-40.5735
-39.9531
-127.254
-127.872
-100.494
-127.422
-56.1498
-55.557
-50.812
-47.9961
-56.0264
-55.7065
-50.7986
-47.9865
-50.37
-50.7236
-50.7164
-51.4551
-42.7901
-44.8539
-44.8218
-47.3528
-49.4355
-49.4463
-44.6796
-49.4549
-51.9909
118.206
-90.9215
79.1473
-94.5177
-76.7623
-57.0929
-48.7878
-53.0165
-48.963
-69.8475
-51.9514
-61.7995
88.9126
-14.3735
55.2418
-62.5609
-23.4714
-51.9142
-42.407
-46.6393
-34.552
-49.3391
-42.2811
-90.8642
68.0146
-56.8372
117.355
-93.7586
-76.4143
-52.9815
-48.947
-57.0595
-48.7635
-69.8182
-51.9388
-13.8974
54.9068
-66.0143
85.7546
-62.6113
-23.087
-46.7422
-34.5028
-51.8484
-42.3131
-49.3113
-42.2118
-55.7761
-47.5288
-41.4704
-39.8356
-45.3132
-43.1143
-44.7262
-40.8355
-33.9557
-53.0185
-40.2435
-40.4413
-40.3246
-37.7501
-42.1736
-46.8166
-70.393
10.3302
-62.9087
-62.0946
-67.2624
-107.761
18.2831
-26.5726
-50.2035
-48.7154
-50.995
-46.7035
-56.7571
-67.4154
-69.5003
-56.5372
-55.559
-47.7692
-44.7769
-40.8342
-41.4518
-39.8175
-45.5303
-43.1469
-34.0448
-53.032
-42.1482
-46.7828
-40.287
-40.4191
-40.3007
-37.5885
-70.7863
9.95205
17.6118
-28.1552
-63.3296
-62.3077
-66.7299
-107.535
-50.1056
-49.6593
-67.8964
-56.2158
-51.0307
-46.7463
-56.7026
-66.9871
-98.2761
-92.3238
189.681
147.878
-74.9006
-74.8871
192.082
191.966
-74.1684
-59.7239
-64.3857
-51.687
-61.702
-53.354
-48.5287
-45.244
-50.5003
-50.5079
-49.4302
-49.4238
-46.6591
-62.7607
-51.5085
-50.705
-9.6583
-9.36137
132.5
123.27
-60.2119
-71.6358
-2.27505
25.0438
-37.8607
-37.8077
-37.3733
-37.4383
-50.6267
-49.5339
-46.9417
-44.1688
-96.6657
-90.2844
146.182
190.286
-72.9765
-60.079
-64.3854
-51.7161
-53.2973
-61.639
-48.5015
-45.1638
-46.5662
-62.8325
-51.4838
-50.696
-70.8203
-59.8762
25.6953
-1.68928
-49.5238
-50.593
-43.9755
-46.8137
-42.7428
-41.2878
-39.7011
-40.2284
-52.165
-54.9158
-45.3454
-52.768
-47.8546
-47.8331
-40.1812
-40.1788
-42.3701
-49.1231
-39.677
-46.7753
-41.3542
-41.3618
-51.7525
-51.7366
-56.8076
-59.8728
-114.422
-95.4084
39.5473
39.3968
-29.8115
-30.9665
-82.4296
-82.2353
-51.6402
-51.5955
-42.7233
-41.2715
-39.6955
-40.2175
-54.8773
-52.1223
-45.5321
-52.7416
-49.1843
-42.3652
-39.6963
-46.7959
-59.8843
-57.0871
-100.206
-113.321
-60.2752
-73.2875
-73.8914
-53.6321
-45.1002
-47.2241
-60.312
-56.8565
-75.8077
-62.5452
-60.2165
-55.1455
-64.0679
-56.4066
-72.9283
-64.9912
-62.3743
-59.0017
-72.8632
-72.6258
-68.1059
-64.079
-72.389
-61.2577
-76.5401
-55.2893
-60.0275
-62.9232
-45.0818
-57.4655
-60.164
-47.2605
-95.4684
-89.9196
-64.6976
-64.3045
-95.1239
-64.3374
-64.7027
-89.9433
-44.6873
-44.7668
-51.9461
-51.4695
-44.5732
-51.399
-51.9338
-44.7497
-21.0762
-12.8431
4.48046
-14.9045
-26.3759
26.366
33.2185
4.6822
-27.3886
7.06104
33.4678
26.1093
-22.3954
-14.5883
4.82935
-12.0179
-22.969
121.713
192.128
75.8836
43.6847
105.524
155.458
104.548
34.8541
99.908
156.435
99.6645
-23.8259
72.2998
192.014
115.038
-41.6588
-41.2828
-45.559
-45.9859
-39.7154
-41.7822
-43.1161
-40.2423
-53.9731
-61.1923
-50.7986
-47.6452
-70.5926
-54.5757
-54.391
-63.372
-41.6622
-45.9909
-45.4113
-41.2908
-70.5368
-63.2642
-54.653
-54.6872
-53.8183
-47.6939
-50.8183
-61.2035
-39.8609
-40.2659
-43.0865
-41.7593
-40.6441
-41.0221
-39.8507
-39.4829
-40.6212
-39.4731
-39.8474
-41.0223
-41.2897
-42.69
-40.4636
-39.8434
-41.3227
-39.8615
-40.4704
-42.7018
-94.3821
-98.3654
-125.923
-21.1045
-62.932
-71.7122
-100.443
-75.457
-60.9823
-75.8115
-100.524
-71.4986
-96.9324
-21.854
-125.463
-97.4319
-35.3087
-47.1987
-46.0719
-40.9327
-56.9959
-58.9015
-61.7305
-61.7831
-49.1585
-49.5545
-52.5462
-56.5643
-48.872
-46.631
-49.0033
-49.9901
-35.0479
-40.7606
-45.9301
-47.1323
-48.7993
-49.9041
-48.984
-46.5819
-49.1638
-56.4839
-52.4639
-49.5194
-56.944
-61.7755
-61.746
-58.9724
-44.9932
-47.1381
-51.4533
-51.0845
-44.9463
-51.0648
-51.4395
-47.1217
-53.9781
-52.6896
-50.4357
-51.2546
-54.0098
-51.2616
-50.4412
-52.7162
-53.2607
-47.4564
-47.2904
-56.8828
-49.759
-44.1652
-43.0602
-45.1387
-49.7903
-44.4541
-43.0332
-44.3224
-53.394
-56.8064
-47.2123
-47.3255
-48.8136
-49.2422
-48.7692
-48.3281
-48.7903
-48.2918
-48.7484
-49.2313
-39.4424
-30.1194
-44.7159
-45.7884
-39.4976
-45.8726
-44.7665
-30.1487
-56.5057
-119.224
-108.815
-56.567
-60.0617
-59.6044
-32.2286
-19.1917
-49.9571
-45.0254
-41.9564
-45.2905
-120.571
-56.9773
-107.061
-60.0207
-56.5307
-59.5228
-19.4684
-31.6365
-48.7449
-41.9895
-45.0312
-45.4552
-42.5409
-41.1474
-41.2109
-41.9602
-40.5396
-39.4604
-39.4397
-41.9323
-92.7873
-77.6128
-80.6918
-109.876
-52.3202
-52.6245
-55.0296
-55.1697
-42.2688
-41.8927
-40.9434
-41.3397
-39.6516
-41.7101
-39.6853
-39.075
-93.4744
-110.159
-77.8839
-80.6754
-52.1619
-55.0168
-52.4287
-54.7414
-42.5789
-41.8698
-51.4069
71.6499
-118.99
-117.379
-101.97
22.655
-60.952
-53.936
-59.7594
-56.6373
-50.0803
-48.7236
-55.1357
-47.9969
-57.3438
-57.3279
-54.2179
-51.3731
-52.166
-50.0535
-53.806
-50.5222
-16.2628
-15.2059
-18.6384
-7.02565
-52.5895
-46.5941
-60.1868
-19.0735
-34.1411
-34.1387
-37.6602
-28.8286
-49.2773
-49.8223
-49.6129
-47.4713
-43.1581
-43.4144
-58.4685
73.5888
-60.4479
-52.4795
-58.9441
-56.217
-50.0548
-48.6321
-55.07
-47.9345
-52.1882
-50.0761
-53.9068
-50.533
-51.0198
-44.3698
-59.276
-17.5424
-49.1943
-49.6356
-49.5115
-47.273
-38.9344
-39.5143
-40.0501
-39.4027
-47.6721
-52.2837
-49.9047
-49.8932
-42.5571
-42.5591
-43.6354
-41.7956
-42.6131
-43.9392
-43.5498
-43.4647
-44.7359
-44.7288
-43.7543
-45.9739
-66.2657
-70.3675
-65.6159
-74.5492
7.30399
7.10854
16.9341
-8.82245
-64.0396
-64.0217
-68.5827
-60.3189
-38.9573
-39.5352
-39.9693
-39.4277
-47.9831
-52.4797
-50.1151
-50.0794
-42.5108
-43.824
-43.5679
-43.2982
-66.0742
-70.2945
-65.4211
-74.7241
-68.0736
-63.2497
-64.2044
-61.5648
-67.4822
-63.1524
-64.0737
-61.7057
-61.1221
-57.5527
-57.5467
-54.751
13.515
20.4758
20.6687
28.251
204.067
199.455
182.572
203.939
-46.0395
-48.8735
-46.5186
-50.1584
-46.06
-48.8656
-46.3716
-50.2262
-40.016
-39.9421
-40.2613
-40.0136
-130.181
-133.979
-118.165
-131.267
-54.4519
-54.9087
-51.6251
-50.9099
-54.4217
-54.9875
-51.648
-50.9446
-50.5463
-50.685
-50.6791
-50.844
-45.4614
-44.72
-44.6937
-45.2435
-49.4869
-49.3431
-47.471
-49.4437
-31.859
-42.3132
-49.0081
29.9969
-120.422
-115.32
-102.269
-54.9177
-95.6172
-72.564
-89.8072
-78.2741
-53.3386
-50.533
-56.6816
-49.0316
-58.0988
-58.0399
-54.5656
-51.1602
-59.2055
-54.9542
-72.0798
-53.6029
-34.5173
-39.0029
-66.7471
47.7472
-20.016
-26.8988
-16.7499
19.3066
-45.7374
-46.3051
-62.2132
-31.8909
-45.0845
-46.6374
-51.3533
-43.6268
-38.5222
-36.2975
-41.0376
-34.9249
-48.2958
-48.4585
-48.5994
-47.74
-121.04
-115.868
-102.611
-28.9194
-37.615
-44.2504
-53.76
40.6466
-95.2777
-72.1515
-88.8997
-77.4564
-58.0574
-58.0156
-54.5467
-51.1313
-53.3135
-50.4983
-56.648
-49.0082
-59.2197
-54.9483
-72.0479
-53.5975
-16.7768
-24.5232
-15.542
2.0884
-34.0437
-34.7437
-74.0173
47.5581
-48.0518
-44.1841
-60.7894
-31.2972
-38.5313
-36.302
-41.09
-34.9137
-45.0189
-46.5507
-51.2324
-43.5492
-48.0885
-48.6061
-48.5454
-47.8556
-44.0203
-49.3033
-53.1647
-47.1718
-39.9247
-39.2515
-40.6366
-39.7352
-42.4779
-44.5219
-44.0512
-43.1566
-42.5066
-42.4041
-43.7861
-41.4349
-36.8093
-55.3566
-35.4667
-55.2804
-40.2897
-39.5367
-40.0283
-40.0735
-38.8962
-39.1552
-39.8715
-39.0032
-42.9379
-44.2783
-42.901
-45.0328
-92.6225
-63.9769
-79.8927
-18.3992
-68.2782
-58.9297
-64.109
-63.0793
-75.6205
-71.4388
-70.2347
-87.3459
-18.5757
2.79083
6.25989
-12.4379
-50.6614
-50.3843
-50.6315
-47.8015
-50.0367
-48.4078
-50.0647
-47.9891
-58.4227
-62.353
-58.5749
-63.4157
-59.3257
-63.1534
-66.5626
-58.4446
-45.3161
-50.2245
-53.8861
-47.7052
-42.5185
-42.4124
-43.8132
-41.4467
-39.8675
-39.2024
-40.5891
-39.7084
-42.5333
-44.6056
-44.165
-43.2388
-37.1494
-55.4418
-35.616
-55.2821
-42.8953
-44.2567
-42.8742
-44.9985
-40.3422
-39.8027
-40.0708
-40.046
-38.5746
-39.0138
-39.7633
-38.7921
-93.4808
-64.8147
-81.2276
-21.0643
-20.325
2.31434
5.49086
-13.4421
-68.5017
-59.2576
-64.4452
-63.243
-75.4976
-71.305
-70.0867
-87.0012
-50.3873
-50.1955
-50.4567
-47.4414
-59.4287
-63.1666
-67.0272
-58.1539
-50.0055
-48.3741
-50.1045
-47.9888
-58.111
-62.2919
-58.4409
-63.2581
-86.732
-81.5759
-97.8356
-95.5932
162.823
193.265
189.207
162.522
-82.3106
-69.7064
-75.1551
-75.1377
192.228
192.237
192.186
192.133
-60.7263
-62.8706
-67.5599
-59.0647
-56.9303
-57.151
-60.3986
-54.1702
-58.4739
-56.661
-58.8717
-54.9872
-48.8638
-49.4618
-48.9574
-47.1748
-51.6493
-50.1679
-50.4953
-50.4992
-49.3176
-48.8947
-49.445
-49.4427
-56.0179
-55.9144
-52.5302
-59.6096
-50.8095
-50.745
-50.8755
-50.7562
-12.7917
-0.846685
-8.0927
-7.94717
118.352
157.165
127.897
126.637
-61.8499
-64.9659
-61.7018
-67.0782
3.1737
14.842
4.30184
16.9441
-39.3448
-40.1158
-37.9072
-37.8797
-32.0168
-40.8681
-36.8364
-36.8713
-49.9594
-50.2579
-50.3701
-49.8313
-43.6272
-44.8063
-44.5887
-46.8467
-86.6456
-80.4145
-96.593
-93.7484
162.05
194.005
162.76
187.386
-60.0472
-62.4695
-66.5439
-59.0537
-56.8569
-57.1157
-60.3336
-54.1665
-58.4863
-56.5935
-54.932
-58.856
-48.8217
-49.4353
-48.9259
-47.1238
-56.1781
-56.1144
-52.6861
-59.6146
-50.7971
-50.7324
-50.8599
-50.7465
-61.2765
-64.5588
-66.888
-61.2862
3.71045
15.4026
17.448
4.77499
-49.9208
-50.2276
-49.8107
-50.3405
-43.9934
-44.7816
-46.9114
-44.2792
-41.3773
-42.9137
-42.7707
-41.4535
-39.6523
-39.8676
-39.6996
-39.9613
-51.027
-55.981
-51.4183
-52.9806
-49.5555
-49.1307
-47.6597
-50.709
-46.3107
-49.9115
-47.9305
-47.9211
-40.6321
-40.0365
-40.2359
-40.2351
-44.5534
-45.4547
-43.9101
-46.6399
-43.3266
-45.7245
-42.182
-45.8407
-42.1292
-40.9825
-41.4544
-41.4587
-48.9992
-52.5146
-51.9624
-51.9461
-58.6112
-55.3399
-59.058
-58.304
-100.923
-123.131
-114.722
-115.503
36.3681
42.1496
40.971
40.9768
-29.8293
-86.9101
-28.4547
-29.3854
-77.6139
-91.0783
-83.3791
-83.2743
-54.3535
-49.447
-51.7612
-51.737
-41.2057
-42.8644
-42.7197
-41.4122
-39.6448
-39.8597
-39.693
-39.9532
-50.9618
-55.5167
-53.0187
-51.2515
-49.6316
-49.0316
-47.8108
-50.7418
-44.5288
-45.425
-46.674
-43.8962
-43.2836
-45.733
-42.1859
-45.8363
-58.4212
-54.7267
-58.83
-58.4816
-99.8998
-122.112
-111.895
-114.227
-88.2668
-99.9897
-97.9411
-83.7738
-55.9673
-48.5184
-58.3666
-52.7996
-63.9048
-61.6737
-58.769
-57.1271
-63.4969
-63.6443
-83.1705
-73.0778
-86.5486
-99.1325
-96.392
-82.9736
-65.086
-63.6908
-81.1387
-71.6612
-64.1586
-61.8486
-59.0031
-57.1611
-55.5203
-48.2607
-58.8368
-52.3293
-82.7606
-75.8336
-74.8273
-69.205
-82.6534
-75.6851
-74.7712
-69.168
-47.7978
-46.1629
-49.5936
-47.7903
-47.6682
-46.0927
-49.5547
-47.7569
-15.1621
-17.5243
-11.1495
-8.15727
24.393
25.8993
31.343
36.6621
24.2356
25.427
31.5098
36.67
-15.2154
-17.1947
-10.7816
-7.49229
143.121
164.689
186.809
192.044
109.095
91.9566
127.622
114.896
93.6429
105.099
111.307
125.654
129.289
145.719
191.902
187.525
-41.8925
-42.9527
-42.8419
-43.9152
-40.3597
-40.6739
-41.1251
-41.4338
-52.0569
-54.5234
-51.6983
-54.7018
-61.7654
-65.3637
-56.9909
-60.9275
-41.8858
-42.9774
-42.8275
-43.9194
-61.968
-65.2755
-57.0416
-60.8808
-52.1342
-54.5466
-51.7743
-54.833
-40.3832
-40.6747
-41.1338
-41.4243
-39.9316
-40.3615
-39.8112
-40.0936
-40.359
-39.92
-40.0872
-39.8036
-41.5214
-40.7253
-41.186
-40.5603
-40.7441
-41.5437
-40.5729
-41.1994
-73.1406
-28.4426
-87.8728
-31.0184
-74.3835
-72.5683
-86.2159
-80.5109
-71.9625
-72.5031
-80.1845
-85.4281
-30.4959
-75.9506
-32.8525
-90.7559
-35.8739
-35.4382
-39.7642
-37.9094
-60.4222
-68.7071
-64.5298
-67.3105
-51.2163
-50.1235
-51.9882
-50.8327
-49.4651
-46.9117
-48.9458
-47.4605
-35.9134
-35.3062
-39.8339
-37.8795
-49.4397
-46.9954
-48.9515
-47.4705
-51.1887
-50.0877
-51.937
-50.7969
-60.3807
-68.6626
-64.4387
-67.2433
-52.7852
-48.2717
-53.2886
-52.4664
-52.7056
-48.2135
-53.2453
-52.4243
-51.9859
-51.1876
-50.5988
-50.5737
-52.0089
-51.1994
-50.6091
-50.5816
-50.4826
-53.2455
-48.9294
-51.3888
-41.3745
-38.6861
-38.053
-41.0414
-41.2589
-38.5707
-37.955
-40.8326
-51.2733
-53.2174
-48.8001
-51.327
-48.9578
-48.9918
-48.948
-49.336
-48.9774
-48.9381
-49.3259
-48.928
-36.1125
-40.5856
-38.1873
-42.4085
-40.6942
-36.2013
-42.5053
-38.276
-62.721
-8.39195
-112.678
-66.1935
-77.7126
-97.9465
-56.8077
-49.7438
-55.7843
-50.7897
-57.9738
-55.3202
-73.8235
36.6011
-17.2917
-0.520596
-60.9989
-29.7162
-49.0672
-41.6477
-44.1157
-39.0687
-47.9746
-50.1381
-112.237
-64.3961
-65.9921
-11.6081
-78.8146
-97.6294
-55.744
-50.7478
-56.7586
-49.7136
-57.9166
-55.2761
-15.1491
0.766773
-76.2364
30.4974
-64.8934
-31.4982
-44.1905
-39.0504
-49.0708
-41.6039
-48.0118
-50.2036
-43.4854
-44.3784
-40.9814
-40.5778
-42.4425
-41.8266
-43.1241
-41.2471
-37.3295
-43.1029
-39.2449
-40.6629
-39.3018
-38.1349
-41.9237
-43.8631
-87.6668
-83.3366
-74.8564
-71.83
-73.7272
-102.103
-41.7082
-73.3744
-49.8562
-52.4572
-52.6709
-50.2501
-55.4267
-58.9825
-60.0524
-55.8277
-43.4059
-44.4469
-43.1679
-41.23
-40.9211
-40.5202
-42.4787
-41.8
-36.7844
-43.0317
-41.8702
-43.7858
-39.4772
-40.6423
-39.5279
-37.6584
-88.3661
-85.3425
-42.6568
-73.6292
-75.8413
-71.8681
-73.6711
-102.069
-49.7406
-52.6257
-59.9683
-55.6515
-52.5221
-50.1613
-55.1851
-58.4074
-46.5145
27.4313
-63.4882
44.7103
-53.569
-55.7026
120.621
120.022
-100.4
34.1704
-100.772
30.1954
-90.4328
-90.3754
74.0566
78.6415
-71.5862
-64.1628
-54.7699
-51.1899
-66.9654
-57.4635
-60.2702
-53.9056
-56.2061
-48.6658
-54.5071
-46.0942
-59.4477
-59.1117
-48.513
-47.2084
-54.3247
-51.3193
-54.3197
-51.3038
-52.6754
-52.682
-49.2235
-49.2212
-59.1097
-51.703
-48.5206
-50.7529
-52.6721
-58.8633
-50.548
-51.1728
-17.5554
-10.9735
-16.8093
-15.2398
-15.9413
-15.7421
96.4532
97.1828
-63.5957
-20.8444
-67.3282
-11.3345
-61.71
-63.0179
-9.0272
2.43236
-38.6144
-30.7627
-38.7164
-30.7617
-43.295
-43.3234
-28.8599
-28.875
-49.0801
-47.3429
-50.1159
-48.998
-49.6793
-49.9023
-46.7318
-46.4889
-51.5768
31.6516
-70.2493
42.3474
-59.3789
-60.7238
111.311
119.233
-71.054
-64.3639
-55.12
-51.3761
-66.2423
-56.663
-60.1126
-53.8183
-56.1017
-48.6265
-54.4107
-46.0162
-59.0456
-59.6263
-48.4735
-47.142
-59.1104
-51.6981
-48.4715
-50.7387
-52.7837
-58.8634
-50.5441
-51.1692
-63.1568
-20.0936
-68.6608
-10.839
-62.9078
-61.583
3.9934
-8.43477
-49.0537
-46.8876
-49.983
-49.1026
-49.8274
-49.6252
-46.7614
-46.5461
-40.3538
-39.3724
-39.7929
-39.6728
-41.2028
-40.3956
-39.4608
-39.6547
-46.4465
-44.9179
-54.9915
-54.7875
-48.9432
-52.513
-47.9475
-51.8783
-43.5396
-41.685
-43.555
-41.6908
-44.8175
-44.8086
-41.0921
-41.0933
-41.6559
-42.8152
-46.9482
-46.8973
-43.2793
-45.6569
-41.8316
-46.1763
-43.56
-45.7863
-43.5463
-45.7705
-42.8189
-42.8248
-47.2645
-47.2568
-66.1441
-79.579
-63.3654
-70.1569
-64.6679
-60.4831
-91.3821
-81.6967
15.1954
-7.27693
14.7631
-8.07137
27.7416
27.5421
-20.2989
-20.6461
-68.1135
-59.8685
-68.0841
-59.7871
-72.3203
-72.2115
-57.1621
-57.1256
-40.3358
-39.3558
-39.7715
-39.6353
-41.405
-40.074
-39.4556
-39.643
-46.449
-45.3097
-55.177
-54.9685
-52.6309
-48.9278
-48.0847
-51.9773
-41.5977
-42.6744
-46.998
-46.8894
-45.7081
-43.2396
-41.6889
-46.2175
-65.989
-79.3557
-63.3018
-70.5584
-60.2782
-64.4663
-81.5774
-91.5474
-73.4186
-72.7646
-67.7575
-60.7988
-62.9591
-68.2827
-60.0601
-60.2212
-72.4707
-72.0616
-66.784
-61.0458
-67.8547
-62.8915
-59.9336
-59.7787
-64.9534
-64.9437
-60.7419
-54.4733
-60.7185
-54.4729
-52.0741
-52.07
6.26078
6.43531
11.7361
25.5071
25.7778
12.0158
34.8811
34.9982
197.723
174.978
192.222
192.171
155.543
156.011
175.346
197.632