# vtk DataFile Version 2.0
tet_velo
ASCII
DATASET UNSTRUCTURED_GRID
POINTS 29498 float
-0.665741 0.165 -2.115
-0.675 0.235 2.12445
-0.733528 0.635 -1.955
-0.683373 0.925 2.015
0.666498 0.165 -2.115
0.675 0.235 2.12502
0.734253 0.635 -1.955
0.684094 0.925 2.015
-0.716277 0.140884 -0.70185
-0.742709 0.140871 0.7113
-0.819116 0.833973 -0.631667
-0.794167 0.922409 0.691667
0.716778 0.140887 -0.70166
0.742951 0.140882 0.71168
0.819868 0.834001 -0.631667
0.794736 0.922256 0.691667
-1.42044 -0.226986 -3.23855
-1.42234 -0.169189 -2.14397
-1.459 -0.185792 -0.728487
-1.47095 -0.202226 0.70507
-1.42819 -0.14462 2.12208
-1.41643 -0.0939306 3.22411
-1.42291 -0.0492335 4.31234
-1.42169 0.0711988 -3.19087
-1.42822 0.15333 -2.10611
-1.47781 0.162504 -0.708121
-1.47997 0.157773 0.697935
-1.40764 0.214503 2.09764
-1.40248 0.263985 3.1984
-1.41672 0.307859 4.28956
-1.45279 0.62414 -3.07028
-1.48764 0.703251 -1.98179
-1.55489 0.845508 -0.645033
-1.52657 0.911005 0.685338
-1.42619 0.929987 2.0238
-1.41466 0.975638 3.12818
-1.42675 1.0222 4.23378
-1.48273 1.58881 -2.95702
-1.50496 1.68651 -1.882
-1.53723 1.84655 -0.574382
-1.54272 1.9703 0.713853
-1.51588 2.0311 2.02239
-1.49252 2.06595 3.09931
-1.48021 2.10361 4.19509
-0.689996 -0.221212 -3.24431
-0.682997 -0.159553 -2.15239
-0.713482 -0.195764 -0.727282
-0.737959 -0.214775 0.716543
-0.711718 -0.13699 2.14208
-0.700315 -0.0887809 3.23771
-0.70352 -0.0475851 4.32025
-0.685662 0.0689689 -3.19263
-0.686021 0.270323 3.2096
-0.697727 0.309716 4.29554
-0.707441 0.595279 -3.05914
-0.693738 0.975512 3.12646
-0.705126 1.02235 4.23347
-0.727997 1.56851 -2.946
-0.742208 1.66709 -1.86987
-0.771979 1.84118 -0.56705
-0.789663 1.97487 0.713019
-0.778912 2.03418 2.01618
-0.76069 2.06695 3.09312
-0.749458 2.10399 4.19061
0.723642 -0.221213 -3.24427
0.702902 -0.159553 -2.15233
0.728386 -0.195764 -0.727103
0.731125 -0.214774 0.716875
0.688219 -0.136992 2.14252
0.705774 -0.0887876 3.23806
0.721474 -0.0475967 4.32052
0.723183 0.0689685 -3.19261
0.705543 0.270318 3.20994
0.722108 0.309705 4.2958
0.748009 0.595279 -3.05913
0.707079 0.975502 3.12662
0.720273 1.02233 4.23366
0.774493 1.5685 -2.94596
0.779539 1.66708 -1.86983
0.771397 1.84116 -0.567004
0.736912 1.97482 0.71308
0.704959 2.03413 2.01626
0.702854 2.06692 3.09323
0.709048 2.10397 4.19074
1.44453 -0.22699 -3.23844
1.42971 -0.169191 -2.14384
1.46374 -0.185804 -0.728182
1.47009 -0.202247 0.705601
1.42288 -0.144634 2.12276
1.42519 -0.0939494 3.22472
1.44044 -0.0492598 4.31285
1.44389 0.0711977 -3.19079
1.42275 0.153334 -2.10603
1.47359 0.162489 -0.707865
1.48399 0.157732 0.698424
1.41661 0.214492 2.0983
1.42129 0.263967 3.19897
1.43912 0.307831 4.29005
1.47792 0.62414 -3.07023
1.48377 0.703259 -1.98175
1.54957 0.845491 -0.644941
1.52696 0.910863 0.685518
1.43098 0.929944 2.02405
1.42604 0.975607 3.12852
1.43968 1.02217 4.23416
1.52111 1.5888 -2.95693
1.53127 1.68649 -1.88192
1.53204 1.8465 -0.574274
1.49803 1.97021 0.713995
1.45461 2.03102 2.02257
1.44143 2.06588 3.09954
1.44216 2.10355 4.19536
-0.716851 0.4 -2.05222
0.000378489 0.143035 -2.13697
-0.698933 0.145018 -1.40843
-0.689983 0.58 2.08052
0 0.223994 2.13574
-0.693766 0.203024 1.41788
0.000362486 0.731793 -2.05179
-0.814047 0.772212 -1.29333
0.000360519 0.952614 2.04261
-0.770778 0.955713 1.35333
0.717605 0.4 -2.05223
0.69956 0.145021 -1.40833
0.690664 0.58 2.08113
0.698919 0.197998 1.41835
0.814388 0.771828 -1.29333
0.771495 0.955708 1.35333
-0.72885 0.141521 0.00472498
-0.867703 0.487428 -0.666758
0.000250417 0.143491 -0.701755
-0.870055 0.53164 0.701483
0.000120861 0.146161 0.71149
-0.811788 0.883338 0.03
0.00037597 1.12122 -0.631667
0.000284451 1.32646 0.691667
0.729226 0.141523 0.00501001
0.868389 0.487444 -0.666663
0.865531 0.531569 0.701674
0.812478 0.883304 0.03
-0.89677 0.443714 -1.35088
-0.871643 0.509534 0.0173625
-0.87629 0.55582 1.3856
0.000314453 0.148419 -1.40838
0.000185639 0.144749 0.00486749
6.04303e-05 0.200949 1.41811
0.000370488 0.4 -2.30583
0.000180259 0.58 2.22741
0.000369228 0.880069 -1.29333
0.000330211 1.32927 0.03
0.000322485 1.14962 1.35333
0.896748 0.443722 -1.35083
0.872342 0.509506 0.017505
0.87641 0.555784 1.38584
-1.04698 0.159165 -2.11055
-0.674369 0.00272344 -2.13369
-0.675702 0.116984 -2.65381
-1.04132 0.224751 2.11105
-0.693359 0.049005 2.13326
-0.68051 0.252662 2.66703
-1.11059 0.669126 -1.96839
-0.720484 0.61514 -2.50707
-0.737868 1.15105 -1.91243
-1.05478 0.927493 2.0194
-0.688555 0.950256 2.57073
-0.731143 1.47959 2.01559
0.6847 0.00272337 -2.13367
0.69484 0.116984 -2.6538
1.04462 0.159167 -2.11052
0.681609 0.0490041 2.13377
0.690272 0.252659 2.66748
1.0458 0.224746 2.11166
0.741131 0.61514 -2.50706
0.756896 1.15104 -1.91241
1.10901 0.669129 -1.96838
0.695586 0.950251 2.57081
0.694526 1.47957 2.01563
1.05754 0.927472 2.01953
-1.09704 0.151694 -0.704986
-0.71488 -0.0274402 -0.714566
-1.11134 0.149322 0.704617
-0.740334 -0.0369522 0.713921
-1.187 0.839741 -0.63835
-0.795547 1.33758 -0.599358
-1.16037 0.916707 0.688503
-0.791915 1.44864 0.702343
0.722582 -0.0274384 -0.714381
1.09518 0.151688 -0.704762
0.737038 -0.036946 0.714277
1.11347 0.149307 0.705052
0.795632 1.33758 -0.599335
1.18472 0.839746 -0.638304
0.765824 1.44854 0.702373
1.16085 0.916559 0.688592
-1.42139 -0.198088 -2.69126
-1.42107 -0.0778938 -3.21471
-1.05522 -0.224099 -3.24143
-1.44067 -0.177491 -1.43623
-1.42528 -0.00792985 -2.12504
-1.05267 -0.164371 -2.14818
-1.46498 -0.194009 -0.0117083
-1.4684 -0.0116438 -0.718304
-1.08624 -0.190778 -0.727884
-1.44957 -0.173423 1.41357
-1.47546 -0.0222264 0.701503
-1.10445 -0.208501 0.710806
-1.42231 -0.119276 2.67309
-1.41792 0.0349411 2.10986
-1.06995 -0.140805 2.13208
-1.41967 -0.0715821 3.76823
-1.40945 0.0850272 3.21125
-1.05837 -0.0913558 3.23091
-1.41981 0.129312 4.30095
-1.06321 -0.0484093 4.3163
-1.42495 0.112264 -2.64849
-1.43724 0.34767 -3.13057
-1.05368 0.0700838 -3.19175
-1.45301 0.157917 -1.40711
-1.45793 0.428291 -2.04395
-1.47889 0.160138 -0.0050932
-1.51635 0.504006 -0.676577
-1.44381 0.186138 1.39779
-1.50327 0.534389 0.691637
-1.40506 0.239244 2.64802
-1.41692 0.572245 2.06072
-1.4096 0.285922 3.74398
-1.40857 0.619812 3.16329
-1.04425 0.267154 3.204
-1.42173 0.665031 4.26167
-1.05722 0.308787 4.29255
-1.47022 0.663696 -2.52603
-1.46776 1.10648 -3.01365
-1.08012 0.60971 -3.06471
-1.52127 0.77438 -1.31341
-1.4963 1.19488 -1.93189
-1.54073 0.878257 0.0201524
-1.54606 1.34603 -0.609708
-1.47638 0.920496 1.35457
-1.53464 1.44065 0.699596
-1.42042 0.952812 2.57599
-1.47104 1.48055 2.02309
-1.4207 0.99892 3.68098
-1.45359 1.52079 3.11374
-1.0542 0.975575 3.12732
-1.45348 1.56291 4.21443
-1.06594 1.02228 4.23363
-1.49385 1.63766 -2.41951
-1.10537 1.57866 -2.95151
-1.52109 1.76653 -1.22819
-1.12358 1.6768 -1.87594
-1.53997 1.90843 0.0697354
-1.1546 1.84387 -0.570716
-1.5293 2.0007 1.36812
-1.16619 1.97259 0.713436
-1.5042 2.04852 2.56085
-1.1474 2.03264 2.01928
-1.48636 2.08478 3.6472
-1.1266 2.06645 3.09621
-1.11483 2.1038 4.19285
-0.686496 -0.190382 -2.69835
-0.687829 -0.0761214 -3.21847
0.0168232 -0.221212 -3.24429
-0.698239 -0.177659 -1.43983
0.00995259 -0.159553 -2.15236
-0.72572 -0.20527 -0.0053696
0.00745216 -0.195764 -0.727192
-0.724838 -0.175883 1.42931
-0.00341685 -0.214775 0.716709
-0.706016 -0.112885 2.68989
-0.0117495 -0.136991 2.1423
-0.701918 -0.068183 3.77898
-0.693168 0.0907711 3.22365
0.00272946 -0.0887843 3.23788
-0.700623 0.131066 4.3079
0.00897687 -0.0475909 4.32039
-0.696551 0.332124 -3.12589
0.0187604 0.0689687 -3.19262
-0.691874 0.29002 3.75257
-0.689879 0.622918 3.16803
0.00976127 0.27032 3.20977
-0.701426 0.666033 4.26451
0.0121907 0.30971 4.29567
-0.717719 1.08189 -3.00257
0.020284 0.595279 -3.05913
-0.699432 0.998931 3.67996
-0.727214 1.52123 3.10979
0.00667054 0.975507 3.12654
-0.727292 1.56317 4.21204
0.00757357 1.02234 4.23357
-0.735102 1.6178 -2.40794
0.023248 1.56851 -2.94598
-0.757093 1.75414 -1.21846
0.0186658 1.66709 -1.86985
-0.780821 1.90803 0.0729848
-0.000290885 1.84117 -0.567027
-0.784287 2.00452 1.3646
-0.0263754 1.97485 0.71305
-0.769801 2.05056 2.55465
-0.0369767 2.03415 2.01622
-0.755074 2.08547 3.64186
-0.0289182 2.06694 3.09317
-0.0202049 2.10398 4.19068
0.713272 -0.190383 -2.6983
0.723412 -0.0761221 -3.21844
1.08408 -0.224101 -3.24136
0.715644 -0.177659 -1.43972
1.0663 -0.164372 -2.14809
0.729756 -0.205269 -0.00511399
1.09606 -0.190784 -0.727642
0.709672 -0.175883 1.4297
1.10061 -0.20851 0.711238
0.696996 -0.11289 2.69029
1.05555 -0.140813 2.13264
0.713624 -0.0681921 3.77929
0.705659 0.090765 3.224
1.06548 -0.0913685 3.23139
0.721791 0.131054 4.30816
1.08095 -0.0484283 4.31669
0.735596 0.332124 -3.12587
1.08353 0.0700831 -3.1917
0.713826 0.290011 3.75287
0.706311 0.62291 3.16828
1.06342 0.267142 3.20446
0.721191 0.666019 4.26473
1.08061 0.308768 4.29292
0.761251 1.08189 -3.00254
1.11297 0.60971 -3.06468
0.713676 0.998917 3.68014
0.704966 1.52121 3.10992
1.06656 0.975554 3.12757
0.714661 1.56315 4.2122
1.07998 1.02225 4.23391
0.777016 1.61779 -2.4079
1.1478 1.57865 -2.95145
0.775468 1.75412 -1.21842
1.1554 1.67679 -1.87587
0.754154 1.90799 0.0730381
1.15172 1.84383 -0.570639
0.720935 2.00448 1.36467
1.11747 1.97252 0.713537
0.703906 2.05053 2.55474
1.07978 2.03258 2.01942
0.705951 2.08544 3.64198
1.07214 2.0664 3.09638
1.0756 2.10376 4.19305
1.43712 -0.19809 -2.69114
1.44421 -0.077896 -3.21462
1.44672 -0.177497 -1.43601
1.42623 -0.00792836 -2.12494
1.46692 -0.194026 -0.0112907
1.46866 -0.0116575 -0.718024
1.44649 -0.17344 1.41418
1.47704 -0.0222573 0.702012
1.42404 -0.119292 2.67374
1.41974 0.0349291 2.11053
1.43281 -0.0716046 3.76878
1.42324 0.0850087 3.21184
1.43978 0.129286 4.30145
1.43332 0.112266 -2.64841
1.4609 0.347669 -3.13051
1.44817 0.157912 -1.40695
1.45326 0.428296 -2.04389
1.47879 0.160111 -0.00472042
1.51158 0.50399 -0.676403
1.4503 0.186112 1.39836
1.50548 0.534298 0.691971
1.41895 0.239229 2.64864
1.4238 0.572218 2.06118
1.4302 0.285899 3.74451
1.42366 0.619787 3.16375
1.4394 0.664999 4.2621
1.48084 0.663699 -2.52599
1.49952 1.10647 -3.01358
1.51667 0.774375 -1.31335
[...]
POINT_DATA 29498
VECTORS point_vectors float
-3.70016 -6.23699 8.52852
0.214151 0.396755 1.24102
-0.859264 0.804684 2.17493
-0.0492412 -0.205152 0.276573
3.79508 -6.36687 8.7255
-0.214983 0.401106 1.23895
0.858204 0.802757 2.16929
0.051954 -0.212538 0.285271
-0.00175643 0.000675455 0.0723393
0.0215946 0.0440806 0.497794
0 0 0
-1.55891e-17 -2.27911e-17 -1.01751e-16
0.00202714 0.000811695 0.0688772
-0.0219962 0.0445605 0.502563
0 0 0
0 0 0
-0.557314 -0.297843 19.8064
-1.33206 -0.907411 20.419
-0.359576 -0.506256 21.4264
0.1863 -0.153936 21.5615
0.763118 0.178509 21.4662
1.04495 0.25229 21.0566
0.925127 0.111506 20.7396
-0.692985 -0.230996 19.7019
-1.93486 -0.778726 20.3363
-0.575952 -0.636623 21.4908
0.121251 -0.343985 21.6614
0.982601 -0.0628606 21.501
1.28566 -0.0688054 21.2536
1.11954 -0.053959 20.9859
-0.849681 0.0605312 19.6017
-2.10795 0.115802 20.3755
-1.20881 -0.38693 21.4165
-0.296937 -0.412068 21.7012
0.513855 -0.688536 21.5473
0.948821 -0.774058 21.3143
0.809902 -0.653829 20.6763
-0.581332 0.394169 19.9021
-0.980481 0.648738 20.3573
-0.933005 0.423565 21.1093
-0.386608 0.0136464 21.437
0.000324479 -0.272066 21.3972
0.230752 -0.455553 21.2905
0.277519 -0.608904 20.6714
-0.50261 -0.638503 19.2655
-1.68792 -3.63587 20.5925
-0.0331788 -0.33471 21.681
0.245874 0.24796 21.2531
0.52815 1.14753 19.953
0.9746 1.47321 18.8144
0.965641 1.07061 18.7372
-0.670711 -0.5388 18.9474
1.83491 1.52732 10.9604
1.96428 1.19865 13.5402
-0.999542 0.141057 18.4911
0.51746 -0.874653 6.20963
1.22562 -0.965678 12.1139
-0.526397 0.804112 19.4659
-1.05629 1.67691 20.0583
-1.30185 1.62353 21.2022
-0.475399 0.311468 21.8137
-0.115812 -0.251992 21.4181
0.0639387 -0.553456 21.2019
0.01871 -0.394147 21.5788
0.529805 -0.61248 19.3069
1.69538 -3.51524 20.5719
0.0364086 -0.344825 21.6216
-0.235966 0.251745 21.2317
-0.487776 1.15772 19.8595
-0.97234 1.48351 18.859
-0.979747 1.01658 18.8386
0.700032 -0.517662 18.9996
-1.87769 1.55475 11.3207
-1.95407 1.13147 13.8356
1.044 0.13439 18.5589
-0.541976 -0.886669 6.59919
-1.24798 -0.966101 12.5251
0.54296 0.781197 19.4925
1.08687 1.61864 20.0778
1.30072 1.62855 21.2
0.47337 0.346361 21.8424
0.126278 -0.229655 21.4378
-0.0477207 -0.531467 21.1781
-0.0380101 -0.394758 21.6736
0.556247 -0.291541 19.8173
1.3278 -0.893047 20.4153
0.369664 -0.508589 21.4242
-0.188855 -0.158729 21.5595
-0.771701 0.189943 21.4665
-1.03786 0.264093 21.0352
-0.923298 0.0872861 20.7065
0.693966 -0.226416 19.7132
1.95178 -0.787739 20.3341
0.578649 -0.642575 21.4935
-0.118442 -0.343984 21.655
-0.970137 -0.0693038 21.4994
-1.25863 -0.0490545 21.2131
-1.12211 -0.0801729 20.9518
0.831248 0.0488822 19.6247
2.11977 0.114756 20.3724
1.21671 -0.389176 21.4194
0.297184 -0.409854 21.7003
-0.512179 -0.680939 21.5428
-0.933637 -0.761927 21.3126
-0.777069 -0.633687 20.7357
0.573566 0.372888 19.9234
0.970644 0.624397 20.3615
0.936367 0.427309 21.1079
0.400028 0.0219503 21.4585
0.0186872 -0.291608 21.3871
-0.219558 -0.463639 21.2473
-0.24607 -0.57368 20.7536
-0.416969 -0.0384745 0.487631
0.00391883 -0.0137756 0.116603
-0.00496242 0.000279839 0.0632478
0 0 0
3.80632e-05 0.00373704 0.0317678
-0.00176486 0.0029935 0.0527039
5.12731e-05 0.0966037 0.253245
-0.226851 -0.100943 0.430304
0.000366083 0.00143498 -0.00881357
0 0 0
0.425196 -0.0396702 0.496197
0.00433747 0.000217747 0.0542906
0 0 0
0.00466037 0.00851025 0.132678
0.21953 -0.0980233 0.415412
0 0 0
-0.000919471 0.000552258 0.17863
3.0852e-05 0.00024128 0.00443021
-3.16941e-06 1.28942e-06 0.000322219
-0.0333558 0.0512246 0.316549
0.000216835 0.0191599 0.10512
0 0 0
-0.00443052 1.37687 2.48103
-2.20105e-06 -0.00165765 0.0176559
0.00127874 0.000582319 0.176507
-2.3517e-05 0.000190368 0.00339476
0.018782 0.0351473 0.209266
0 0 0
0 0 0
-2.73108e-05 0.00369028 0.0208125
0.0429859 0.0133453 0.243992
8.88001e-07 -3.73962e-07 -1.46459e-05
2.81876e-07 -1.37414e-07 -4.48754e-05
-3.07107e-05 0.000812953 0.0215492
0 0 0
0 0 0
-3.78961e-06 0.0016647 0.0118065
0.000156724 0.0161115 0.135874
-1.4042e-05 0.00266016 -0.00670628
0 0 0
3.16242e-05 0.00370694 0.0208476
-0.0446043 0.0131551 0.251117
-3.78825 -2.21186 19.795
-2.65122 -5.98866 20.615
-1.96555 -1.67132 17.691
1.39361 0.69816 17.2718
0.337631 1.27383 13.9792
1.087 0.957033 8.19831
-4.15637 0.775745 20.0491
-3.25625 1.09532 16.5958
-2.30999 2.85677 19.8411
0.733679 -0.669667 17.3985
-0.517126 -0.77103 3.87301
-0.141523 -0.529362 18.7988
2.65456 -5.86044 20.5599
1.96705 -1.63651 17.7699
3.80021 -2.23208 19.7917
-0.31054 1.26247 13.7993
-1.11832 0.982636 8.33288
-1.39954 0.674888 17.4043
3.25758 1.0444 16.7516
2.33832 2.77879 19.8588
4.17309 0.784914 20.0493
0.489498 -0.773885 4.02002
0.141791 -0.505147 18.1725
-0.723156 -0.667096 17.4892
-0.103001 -0.758804 19.64
-0.118597 -0.0272028 16.1833
0.304383 -0.183251 18.9833
0.310136 0.341314 16.1475
-2.0352 -1.00009 21.6521
-3.5938 2.21642 21.2911
-0.413764 -0.640793 20.5429
-0.760702 0.054344 21.0334
0.132788 -0.0368264 16.3289
0.112659 -0.76097 19.6029
-0.296159 0.346656 16.0894
-0.304869 -0.185907 19.0143
3.59427 2.2198 21.2928
2.04714 -1.00754 21.6357
0.726272 0.106652 20.7488
0.41169 -0.6409 20.5461
-0.975734 -0.581016 19.9078
-0.629701 -0.271896 19.7624
-0.580054 -0.455569 19.5609
-0.882259 -0.800065 21.2584
-1.63206 -0.880131 20.3733
-1.75999 -1.89952 20.3534
-0.0637282 -0.311133 21.4968
-0.481568 -0.584452 21.4543
-0.164392 -0.574191 21.6061
0.462567 0.0236646 21.5948
0.152369 -0.255693 21.5873
0.313899 -0.0579353 21.6501
0.904263 0.265928 21.4096
0.883548 0.0907105 21.5005
0.912584 0.643359 21.307
1.02882 0.21458 20.9326
1.18705 0.0846232 21.2629
1.33431 0.87034 20.743
1.05645 0.0153869 20.8631
1.09613 0.592865 21.1977
-1.28445 -0.466025 19.7324
-0.797185 -0.122925 19.6225
-0.762282 -0.400326 19.3729
-1.29032 -0.807005 21.3888
-2.16324 -0.372334 20.3369
-0.197931 -0.492939 21.5757
-0.918382 -0.613337 21.4568
0.521096 -0.188698 21.7067
-0.0723098 -0.467406 21.7228
1.21796 -0.0298713 21.3171
0.901792 -0.473799 21.4654
1.50816 -0.0850368 20.6674
1.2963 -0.475422 21.2186
1.90599 0.635708 18.2074
1.17546 -0.552619 20.4967
1.52311 0.299084 18.9589
-1.53132 0.117958 19.7106
-0.769554 0.306538 19.723
-1.00456 0.0740914 19.1498
-1.69652 -0.191834 21.1518
-1.51816 0.589071 20.3225
-0.750878 -0.417803 21.6298
-1.28711 0.142191 21.2538
0.132333 -0.522333 21.7082
-0.445289 -0.181532 21.5987
0.730948 -0.77592 21.4567
0.111111 -0.496056 21.426
0.98883 -0.711013 20.9416
0.410109 -0.630176 21.1529
1.16585 -0.892533 18.6723
0.310102 -0.637456 20.9748
1.35849 -1.34799 18.9896
-0.796057 0.551244 20.0587
-0.625157 0.580809 19.693
-1.01563 0.604104 20.7421
-1.13855 1.1052 20.2322
-0.681881 0.215474 21.3848
-1.18728 0.861152 21.1943
-0.166283 -0.159082 21.3848
-0.467825 0.121034 21.6267
0.0943179 -0.418052 21.2104
-0.084947 -0.322052 21.3985
0.144021 -0.346324 21.1818
0.139969 -0.489376 20.9849
-0.0383167 -0.351903 21.4159
-1.14459 -1.65816 18.9555
-0.594785 -0.58953 19.0822
0.0118193 -0.802323 19.0173
-0.325465 -1.16104 22.3277
0.0979378 -4.70698 21.3303
0.0719866 -0.0638937 21.2403
0.00745915 -0.327429 20.789
0.343186 0.625545 20.5012
-0.0066465 0.240999 20.1519
0.77135 1.43855 20.0329
-0.00577615 0.888227 18.1128
1.01994 1.59593 19.1929
1.35808 1.69674 16.0317
-0.0161858 1.48639 17.4636
1.36135 1.22407 16.6305
-0.011408 2.036 17.305
-0.873819 -0.242528 18.5928
0.0231256 -0.71612 18.4749
1.97444 1.20182 12.2167
2.09009 -0.132246 6.76748
0.00144021 1.01993 4.33961
2.24408 0.487673 12.3542
-0.0545984 1.99642 10.9476
-0.798019 0.737152 18.9381
0.0398481 0.265636 17.6965
0.932903 -0.842018 9.1916
0.0679919 -1.08489 19.9447
-0.0288291 1.70106 -6.96339
0.0661686 -1.16144 19.5934
-0.00518853 1.13501 -5.77275
-0.829094 1.33851 19.6091
0.0191135 1.05344 19.2307
-1.21353 1.69195 20.5367
0.0301803 2.29715 19.8826
-0.946624 1.00587 21.7985
-0.00133121 2.80929 21.1324
-0.22857 -0.0748279 21.6363
-0.0333538 0.666832 22.0157
-0.0521993 -0.390559 21.3401
-0.0195362 -0.058663 21.5621
0.0737481 -0.660426 21.2732
0.00546948 -0.45685 20.9879
-0.000373552 -0.213385 21.9227
1.14809 -1.60241 19.0334
0.621753 -0.566177 19.137
0.587398 -0.442111 19.5886
0.320106 -1.1916 22.3397
1.74206 -1.84572 20.3612
-0.0693781 -0.0712131 21.2265
0.177632 -0.581404 21.6006
-0.326856 0.627509 20.4634
-0.31448 -0.060019 21.6469
-0.755699 1.45223 19.9977
-0.910149 0.671729 21.2609
-1.01764 1.56182 19.2616
-1.38542 1.69211 16.0931
-1.34074 0.854449 20.7289
-1.36908 1.1661 16.7504
-1.08963 0.567967 21.1646
0.918924 -0.249546 18.6581
0.769977 -0.403043 19.3977
-1.99715 1.16616 12.3227
-2.12592 -0.128055 7.15745
-1.87445 0.571126 18.483
-2.20896 0.422026 12.8091
-1.49313 0.255688 19.2193
0.817267 0.700589 18.9865
1.00357 0.0696359 19.1921
-0.955434 -0.847477 9.63584
-0.0347285 -1.0628 19.7776
-1.13676 -0.882564 18.9683
-0.0631237 -1.1645 19.52
-1.36042 -1.32473 19.033
0.855053 1.29532 19.6383
0.625122 0.547105 19.7175
1.22569 1.65143 20.5486
1.13704 1.0625 20.2434
0.94407 1.04622 21.8171
1.19065 0.868336 21.1903
0.229191 -0.0575395 21.6245
0.475403 0.146845 21.6406
0.0625865 -0.365219 21.3403
0.0895907 -0.311677 21.4115
-0.0553765 -0.663306 21.2692
-0.127162 -0.495558 20.9385
0.0487537 -0.363016 21.4684
0.971785 -0.565588 19.9107
0.632906 -0.267969 19.778
0.881171 -0.796481 21.2541
1.62978 -0.877051 20.3754
0.0753918 -0.320135 21.493
0.48389 -0.589655 21.457
-0.464613 0.0137903 21.5953
-0.152166 -0.260507 21.5852
-0.902635 0.252534 21.4006
-0.879149 0.0910929 21.4937
-0.996838 0.189214 20.9791
-1.16851 0.101431 21.248
-1.05672 -0.011046 20.8338
1.27442 -0.460065 19.7376
0.776998 -0.112719 19.6439
1.29409 -0.815448 21.392
2.17587 -0.379148 20.3345
0.198215 -0.492374 21.5745
0.917301 -0.622636 21.4614
-0.51473 -0.19756 21.7016
0.0742395 -0.465834 21.7176
-1.19575 -0.0340323 21.3131
-0.889219 -0.470503 21.4707
-1.4444 -0.111836 20.7577
-1.27305 -0.469584 21.2468
-1.14467 -0.521241 20.5816
1.51081 0.107124 19.7255
0.761251 0.28599 19.7458
1.70615 -0.191592 21.1529
1.5008 0.57147 20.326
0.753796 -0.4224 21.6322
1.2989 0.143018 21.2566
-0.132199 -0.518397 21.7039
0.458752 -0.182678 21.6227
-0.731562 -0.762956 21.4491
-0.100245 -0.503544 21.4384
-0.9782 -0.700097 20.9743
-0.399111 -0.643766 21.1854
-0.308093 -0.642571 20.997
0.785691 0.527886 20.0751
1.01091 0.592205 20.743
0.697817 0.225554 21.393
0.173096 -0.162523 21.4033
-0.0743897 -0.409477 21.2352
-0.124476 -0.345434 21.2416
-1.12163 -0.544637 19.8284
-1.5298 -1.7461 18.4085
-1.15346 -1.01593 19.5358
-1.74538 -0.924033 18.9993
-0.690766 -0.439659 19.4572
-2.5792 -2.22188 20.1804
-1.09142 -0.815772 21.3235
-0.164773 -0.449663 18.0619
-0.762233 -1.23218 21.7186
-1.29594 -1.633 21.8169
-0.120048 -0.682373 21.3993
-0.124319 -0.418251 21.5281
0.024348 0.0804146 15.7453
0.0879727 -0.3062 21.6128
0.124992 -0.380993 18.8807
0.38309 -0.134197 21.0212
0.486836 -0.0847484 21.6394
0.233272 0.665311 14.2581
0.583967 0.272245 21.5367
0.725352 0.272995 17.7032
1.18645 0.720289 20.0189
1.11194 0.157728 21.3008
0.747823 1.5434 14.4192
1.16108 0.777847 20.8905
1.76872 0.639239 18.1703
1.55974 0.830779 19.9723
1.38489 0.10943 20.6123
1.42021 1.44297 16.3358
1.31026 0.893092 20.8426
1.9049 0.386385 19.2192
1.25717 0.518853 20.1719
-1.485 -0.220816 19.6737
-2.88074 -0.689621 16.6137
-2.33908 0.337769 18.8341
-0.932816 -0.172166 19.1808
-4.93901 -0.664759 19.6923
-1.57674 -0.549235 21.3317
-2.63794 -0.469053 21.704
-0.730617 -1.32708 20.5053
-0.455309 -0.569535 21.6238
-1.20277 -1.00531 21.3474
0.131753 -0.343845 18.6765
0.398685 -0.439165 21.7241
0.303947 -0.454766 19.2695
1.38122 -0.0423091 15.5216
1.15763 -0.507823 21.3048
0.598468 -0.684396 3.52745
0.855219 -0.897551 18.6542
1.98893 -0.347918 17.4505
1.17459 -0.541807 21.3057
2.24307 0.47652 9.58175
1.26813 -1.24633 19.3244
1.75744 -0.472088 18.3667
-1.1967 0.504678 19.8746
-1.65065 1.88328 18.7136
-0.911321 0.906467 19.8333
-0.848276 0.478534 19.3799
-2.12258 1.34356 20.1285
-1.49701 0.377055 20.8622
-2.58922 2.09761 20.4553
-1.23469 1.04879 20.6785
-2.10289 0.539404 21.3992
-0.886811 -0.0374935 21.5507
-2.44604 0.836813 22.2721
-0.858213 0.508508 21.5446
-0.674887 -0.137088 21.9337
-0.117256 -0.346004 21.5614
-0.165869 -0.41082 19.9674
-0.222012 -0.149952 21.5472
-0.0634853 -0.632473 21.6146
0.263498 -0.605959 21.3809
-0.120009 -0.715748 19.3649
0.0083255 -0.407916 21.2961
0.247402 -0.833854 21.6706
0.476953 -0.555131 21.0643
0.239594 -1.10625 19.601
0.146631 -0.563235 21.4323
0.17501 -0.848093 21.263
1.54489 -1.71916 18.5055
0.0361024 -2.47829 18.3547
0.0395782 -2.80651 15.9712
0.0116156 -0.788001 18.7156
0.251679 -6.56919 23.1739
0.1709 -0.482418 18.1876
0.0588894 -1.03346 22.2428
-0.0606355 -0.0081758 12.5637
-0.0109916 0.0792509 15.7627
-0.00542396 -0.0970466 20.0052
-0.0231831 0.283532 12.6638
-0.225929 0.644176 14.2191
-0.00837192 0.510782 18.7694
-0.00648736 0.651425 10.5651
-0.744103 1.53901 14.4098
-0.00587616 1.3183 18.1729
-0.00718974 0.0509919 2.44084
-0.0184111 1.64045 12.0353
-1.43147 1.4117 16.4437
-0.0140491 1.98726 17.9711
-0.0340098 1.15743 5.98621
-0.0548197 2.06458 14.8923
2.8611 -0.681534 16.8042
0.0664324 2.87818 13.235
0.0253065 -0.386792 17.9214
-0.621433 -0.701065 3.68236
0.00732017 1.13013 -4.89564
-0.023237 0.370601 -3.09718
-2.22456 0.439349 9.97276
-0.0370085 1.59767 -6.86786
-0.0329885 1.6466 1.99395
1.66962 1.80407 18.7687
0.0255694 1.80547 19.359
0.0316958 1.06247 18.412
0.0354878 4.31246 19.5755
2.58181 2.05524 20.4642
0.0222385 2.53776 20.2799
-0.00195315 5.61872 20.1868
2.48315 0.892784 22.2728
-0.0257613 1.83641 22.1033
-0.0201731 0.544271 19.085
0.111645 -0.391731 19.4365
-0.0269625 0.131472 21.7044
-0.0279644 0.0857918 11.7197
0.130842 -0.674211 19.0635
-0.0100464 -0.205743 21.3946
-0.00491313 -0.465574 13.9643
-0.232405 -1.10015 19.4911
-0.00763046 -0.468843 21.6209
-0.00669574 -0.659064 14.2412
1.11961 -0.533303 19.8331
1.1486 -0.984887 19.5784
1.73348 -0.912939 19.0389
0.69991 -0.435344 19.4747
2.56113 -2.20178 20.1866
1.08947 -0.820889 21.3206
0.780633 -1.22312 21.6951
1.29644 -1.64349 21.8138
0.137229 -0.697394 21.42
0.130927 -0.425721 21.5172
-0.0823207 -0.311318 21.6121
-0.117701 -0.383465 18.8788
-0.377126 -0.133186 21.0009
-0.483257 -0.0900352 21.6385
-0.58137 0.276069 21.5049
-0.723251 0.263833 17.8727
-1.17757 0.734762 19.9234
-1.09651 0.153868 21.2811
-1.15831 0.781638 20.8785
-1.75483 0.593722 18.3817
-1.54572 0.778547 20.1654
-1.34731 0.0896777 20.6696
-1.31157 0.865271 20.8435
-1.92054 0.363418 19.245
-1.23225 0.480326 20.4059
1.46625 -0.214848 19.6878
2.31526 0.322293 18.8892
0.933128 -0.167567 19.2188
4.95957 -0.676335 19.6891
1.58751 -0.555376 21.3309
2.64795 -0.472234 21.704
0.728245 -1.33202 20.4566
0.450699 -0.568815 21.6298
1.20285 -1.00712 21.3363
-0.135578 -0.341186 18.671
-0.396364 -0.437247 21.7196
-0.297697 -0.457086 19.3059
-1.37341 -0.0541884 15.6646
-1.14064 -0.503826 21.3112
-0.852961 -0.902247 18.8321
-1.95652 -0.343644 17.83
-1.15939 -0.538678 21.3372
-1.24407 -1.20073 19.4301
-1.73624 -0.511405 18.5623
1.17708 0.477556 19.8927
0.908036 0.855335 19.8595
0.848185 0.458614 19.4213
2.11102 1.29396 20.1426
1.49628 0.372446 20.8624
1.23224 1.02783 20.6841
2.11562 0.543737 21.4033
0.900921 -0.0379902 21.5636
0.880626 0.533986 21.5731
0.68828 -0.129231 21.9542
0.121325 -0.35365 21.5775
0.229024 -0.137226 21.5609
0.083373 -0.639746 21.6152
-0.252988 -0.61326 21.3802
-0.0060329 -0.41702 21.2819
-0.235637 -0.845458 21.7029
-0.479889 -0.573604 21.0653
-0.149718 -0.594858 21.4655
-0.169207 -0.855554 21.222
-1.47749 -1.04511 19.29
-0.937144 -1.48162 22.0243
0.133846 -0.363709 21.0477
0.721458 0.28464 20.3162
1.47253 0.807144 20.0331
1.63067 0.721875 20.2979
-2.27823 -0.380607 18.7229
-2.01787 -1.12535 21.6982
-0.16188 -0.897557 19.3859
0.706012 0.0355583 17.4693
1.60693 -0.326919 16.6443
1.91945 -0.142407 17.3868
-1.54412 0.988265 19.4251
-2.15118 0.887538 20.8207
-1.4287 0.161947 21.9063
-0.219289 -0.423851 21.7699
0.0800967 -0.73048 21.4995
0.493679 -1.04135 21.178
0.0325888 -2.86697 17.3713
-0.047632 -0.129803 14.2261
-0.0409077 0.0254569 12.0866
-0.0146913 0.386695 10.9294
-0.0136877 0.858603 10.6451
-0.0299451 1.8439 12.5966
0.0488307 -0.982401 13.5791
0.0159934 0.0153211 -2.71117
-0.0594041 0.665033 0.18692
0.0470346 3.0374 17.9189
0.0171674 3.76255 19.7475
-0.0235637 2.93796 21.0618
-0.00988675 -0.013696 14.663
-0.0679716 0.147728 12.4952
-0.00875158 -0.702357 13.7804
1.46794 -1.01895 19.3198
0.950364 -1.47748 22.0028
-0.124468 -0.371403 21.0602
-0.711797 0.285804 20.2837
-1.46903 0.788779 20.0797
-1.6499 0.706736 20.3128
2.25074 -0.376108 18.7843
2.01388 -1.13367 21.6711
0.161397 -0.894891 19.3723
-0.706138 0.0218027 17.5572
-1.59611 -0.333361 16.9557
-1.88977 -0.15793 17.7314
1.53606 0.948485 19.4624
2.14037 0.874746 20.8234
1.45913 0.168725 21.926
0.228683 -0.425049 21.7877
-0.0636381 -0.739279 21.5196
-0.477372 -1.07327 21.217
-3.87901 -2.17478 4.59681
-0.00314225 -0.173345 0.603754
-0.0536555 0.00556038 0.330364
0 0 0
-0.0116491 0.0203416 0.151529
-0.00542734 0.00422891 0.103446
-1.74058 0.250148 2.23787
-0.0180312 0.293783 0.644817
-0.0641364 0.0173566 0.202663
0.00497316 -0.0455788 0.0331199
-0.0196072 0.00119422 -0.00895725
-0.0114536 -0.0282746 0.157321
-0.00358329 -0.172129 0.627963
4.06908 -2.24596 4.82502
0.0542409 0.00566106 0.335446
0.00902109 0.0188678 0.145586
0 0 0
0.00522236 0.00430609 0.0988525
0.0184696 0.294112 0.646095
1.7345 0.246183 2.21815
0.072284 0.0190025 0.228817
0.019152 0.00139165 -0.00954597
-0.00619735 -0.045352 0.0343819
0.0111521 -0.0274977 0.152522
0 0 0
-0.000625997 0.000300704 0.0717179
-4.29293e-19 -7.7837e-19 -2.61847e-17
0 0 0
-0.000109938 0.000160141 0.00499058
0.00225277 -0.000178036 0.0746037
-0.0272468 0.00440955 0.220974
0.00235283 0.00646439 0.0868133
-0.161239 -0.11117 0.306674
0 0 0
0 0 0
-0.0545354 0.0605072 0.14164
0 0 0
-0.0406302 0.22902 0.686098
0 0 0
0.0112631 -0.00496704 0.0915811
0 0 0
-1.29714e-18 8.10779e-19 3.61941e-17
0.000574137 0.000338793 0.0648952
0 0 0
0.000171944 0.000384308 0.0104729
-0.00258606 0.00655394 0.0884819
-0.002081 -0.000143009 0.0746676
0.00690054 0.000575592 0.0584994
0.168765 -0.115726 0.31819
0.0550509 0.0610827 0.142891
1.21675e-18 4.11429e-18 6.85016e-17
0 0 0
0 0 0
-0.011052 -0.00488702 0.0900862
0.0435858 0.23387 0.699489
0 0 0
-0.0248696 -0.0301781 0.242815
-0.225575 -0.0940607 0.166381
0 0 0
-0.0582056 -0.618664 -0.0807316
-9.78405e-05 -8.96501e-05 0.0156949
-8.50579e-19 -2.04557e-19 -9.1398e-18
7.07736e-05 7.34505e-06 0.000637489
0 0 0
0 0 0
0 0 0
0.00213002 0.00540861 0.0407776
0 0 0
0 0 0
0.00020682 0.00510644 0.0254907
-0.000149948 -0.00351606 0.0232746
-0.0105785 0.00341032 0.0277762
0 0 0
1.08251e-19 -2.59681e-18 1.23408e-17
0.000753015 -0.000490406 0.0100006
-0.00194797 0.000545827 -0.00165993
0.213017 -0.0818565 0.150833
0.0274228 -0.0318564 0.25853
0 0 0
0.000107658 -0.00019813 0.0161384
0 0 0
-9.35826e-05 9.62412e-06 0.000846377
0 0 0
-0.00182125 0.00385396 0.0314191
0.00963939 0.00315238 0.0253956
0.000193777 -0.00466221 0.0308234
0.0019091 0.000549902 -0.0016542
-0.000164406 -0.000106085 0.0023237
0 0 0
0 0 0
0 0 0
-0.000187533 0.00503682 0.0336235
-7.92924e-19 1.36577e-19 2.26423e-17
-4.26253e-08 1.90781e-08 5.418e-06
-2.82703e-05 0.00708757 0.0333337
0 0 0
-1.74283e-07 1.39523e-07 3.47242e-05
0 0 0
0 0 0
-0.0325304 0.0412462 0.371594
1.23236e-05 0.00225683 0.00440701
0.000482519 0.155552 0.526451
-7.16094e-05 0.000279407 0.0194168
3.43316e-05 -2.53691e-05 0.00124206
0 0 0
0 0 0
0 0 0
0.000198374 0.00513527 0.0340136
2.79118e-05 0.00674198 0.0317812
-0.000577657 0.0041384 0.0482725
0.0324713 0.0414878 0.372811
0 0 0
-0.211273 -0.0807192 0.81656
-0.174417 -0.087325 0.670253
0.00474845 -0.00308983 0.0423963
0 0 0
0 0 0
0 0 0
0 0 0
-1.09222e-18 -1.24843e-17 -6.01566e-17
0 0 0
0 0 0
0 0 0
0.00332586 -0.00211149 0.030055
0 0 0
0 0 0
0 0 0
-3.94091e-19 -1.66309e-22 1.22887e-17
0 0 0
0 0 0
0 0 0
0 0 0
0 0 0
0 0 0
-1.08409e-18 5.161e-19 7.13146e-17
0 0 0
-0.0432562 -0.0694292 0.00817998
0.129402 -0.25617 -0.0135478
-0.724645 1.09805 0.925955
0.744215 1.13036 0.946297
0 0 0
0 0 0
0 0 0
0 0 0
-0.0092063 0.0116536 0.0670714