# vtk DataFile Version 2.0
tri_press
ASCII
DATASET UNSTRUCTURED_GRID
POINTS 3682 float
-0.665741 0.165 -2.115
-0.675 0.235 2.12445
-0.733528 0.635 -1.955
-0.683373 0.925 2.015
0.666498 0.165 -2.115
0.675 0.235 2.12502
0.734253 0.635 -1.955
0.684094 0.925 2.015
-0.716277 0.140884 -0.70185
-0.742709 0.140871 0.7113
-0.819116 0.833973 -0.631667
-0.794167 0.922409 0.691667
0.716778 0.140887 -0.70166
0.742951 0.140882 0.71168
0.819868 0.834001 -0.631667
0.794736 0.922256 0.691667
-1.42044 -0.226986 -3.23855
-1.42234 -0.169189 -2.14397
-1.459 -0.185792 -0.728487
-1.47095 -0.202226 0.70507
-1.42819 -0.14462 2.12208
-1.41643 -0.0939306 3.22411
-1.42291 -0.0492335 4.31234
-1.42169 0.0711988 -3.19087
-1.42822 0.15333 -2.10611
-1.47781 0.162504 -0.708121
-1.47997 0.157773 0.697935
-1.40764 0.214503 2.09764
-1.40248 0.263985 3.1984
-1.41672 0.307859 4.28956
-1.45279 0.62414 -3.07028
-1.48764 0.703251 -1.98179
-1.55489 0.845508 -0.645033
-1.52657 0.911005 0.685338
-1.42619 0.929987 2.0238
-1.41466 0.975638 3.12818
-1.42675 1.0222 4.23378
-1.48273 1.58881 -2.95702
-1.50496 1.68651 -1.882
-1.53723 1.84655 -0.574382
-1.54272 1.9703 0.713853
-1.51588 2.0311 2.02239
-1.49252 2.06595 3.09931
-1.48021 2.10361 4.19509
-0.689996 -0.221212 -3.24431
-0.682997 -0.159553 -2.15239
-0.713482 -0.195764 -0.727282
-0.737959 -0.214775 0.716543
-0.711718 -0.13699 2.14208
-0.700315 -0.0887809 3.23771
-0.70352 -0.0475851 4.32025
-0.685662 0.0689689 -3.19263
-0.686021 0.270323 3.2096
-0.697727 0.309716 4.29554
-0.707441 0.595279 -3.05914
-0.693738 0.975512 3.12646
-0.705126 1.02235 4.23347
-0.727997 1.56851 -2.946
-0.742208 1.66709 -1.86987
-0.771979 1.84118 -0.56705
-0.789663 1.97487 0.713019
-0.778912 2.03418 2.01618
-0.76069 2.06695 3.09312
-0.749458 2.10399 4.19061
0.723642 -0.221213 -3.24427
0.702902 -0.159553 -2.15233
0.728386 -0.195764 -0.727103
0.731125 -0.214774 0.716875
0.688219 -0.136992 2.14252
0.705774 -0.0887876 3.23806
0.721474 -0.0475967 4.32052
0.723183 0.0689685 -3.19261
0.705543 0.270318 3.20994
0.722108 0.309705 4.2958
0.748009 0.595279 -3.05913
0.707079 0.975502 3.12662
0.720273 1.02233 4.23366
0.774493 1.5685 -2.94596
0.779539 1.66708 -1.86983
0.771397 1.84116 -0.567004
0.736912 1.97482 0.71308
0.704959 2.03413 2.01626
0.702854 2.06692 3.09323
0.709048 2.10397 4.19074
1.44453 -0.22699 -3.23844
1.42971 -0.169191 -2.14384
1.46374 -0.185804 -0.728182
1.47009 -0.202247 0.705601
1.42288 -0.144634 2.12276
1.42519 -0.0939494 3.22472
1.44044 -0.0492598 4.31285
1.44389 0.0711977 -3.19079
1.42275 0.153334 -2.10603
1.47359 0.162489 -0.707865
1.48399 0.157732 0.698424
1.41661 0.214492 2.0983
1.42129 0.263967 3.19897
1.43912 0.307831 4.29005
1.47792 0.62414 -3.07023
1.48377 0.703259 -1.98175
1.54957 0.845491 -0.644941
1.52696 0.910863 0.685518
1.43098 0.929944 2.02405
1.42604 0.975607 3.12852
1.43968 1.02217 4.23416
1.52111 1.5888 -2.95693
1.53127 1.68649 -1.88192
1.53204 1.8465 -0.574274
1.49803 1.97021 0.713995
1.45461 2.03102 2.02257
1.44143 2.06588 3.09954
1.44216 2.10355 4.19536
-0.716851 0.4 -2.05222
0.000378489 0.143035 -2.13697
-0.698933 0.145018 -1.40843
-0.689983 0.58 2.08052
0 0.223994 2.13574
-0.693766 0.203024 1.41788
0.000362486 0.731793 -2.05179
-0.814047 0.772212 -1.29333
0.000360519 0.952614 2.04261
-0.770778 0.955713 1.35333
0.717605 0.4 -2.05223
0.69956 0.145021 -1.40833
0.690664 0.58 2.08113
0.698919 0.197998 1.41835
0.814388 0.771828 -1.29333
0.771495 0.955708 1.35333
-0.72885 0.141521 0.00472498
-0.867703 0.487428 -0.666758
0.000250417 0.143491 -0.701755
-0.870055 0.53164 0.701483
0.000120861 0.146161 0.71149
-0.811788 0.883338 0.03
0.00037597 1.12122 -0.631667
0.000284451 1.32646 0.691667
0.729226 0.141523 0.00501001
0.868389 0.487444 -0.666663
0.865531 0.531569 0.701674
0.812478 0.883304 0.03
-0.89677 0.443714 -1.35088
0.896748 0.443722 -1.35083
0.000314453 0.148419 -1.40838
0.000369228 0.880069 -1.29333
0.000370488 0.4 -2.30583
-0.871643 0.509534 0.0173625
0.872342 0.509506 0.017505
0.000185639 0.144749 0.00486749
0.000330211 1.32927 0.03
-0.87629 0.55582 1.3856
0.87641 0.555784 1.38584
6.04303e-05 0.200949 1.41811
0.000322485 1.14962 1.35333
0.000180259 0.58 2.22741
-0.699748 0.2825 -2.09206
-0.332681 0.143057 -2.13694
-0.692616 0.14473 -1.76171
-0.694391 0.4075 2.11439
-0.3375 0.22444 2.13515
-0.687003 0.216392 1.77116
-0.746655 0.5175 -2.02507
-0.366583 0.71635 -2.03635
-0.798698 0.728516 -1.62417
-0.690825 0.7525 2.05191
-0.341506 0.946879 2.03688
-0.737985 0.951266 1.68417
0.333438 0.143047 -2.13695
0.700382 0.2825 -2.09195
0.693307 0.144733 -1.76167
0.3375 0.224444 2.13543
0.694966 0.4075 2.11521
0.687056 0.216402 1.77169
0.367308 0.716343 -2.03634
0.747351 0.5175 -2.02504
0.799169 0.728263 -1.62417
0.342227 0.946881 2.03688
0.691389 0.7525 2.05207
0.73869 0.951249 1.68417
-0.705204 0.145352 -1.05514
-0.722547 0.141218 -0.348563
-0.846106 0.287098 -0.684304
-0.355263 0.147689 -0.701803
-0.697883 0.192302 1.06459
-0.735126 0.141849 0.358013
-0.868846 0.305024 0.706392
-0.366251 0.153603 0.711395
-0.817543 0.804054 -0.9625
-0.871801 0.674896 -0.649213
-0.816274 0.859477 -0.300833
-0.469383 1.09762 -0.631667
-0.788299 0.944887 1.0225
-0.862672 0.742305 0.696575
-0.804387 0.904283 0.360833
-0.489075 1.3087 0.691667
0.705768 0.145356 -1.055
0.355763 0.147692 -0.701708
0.722988 0.141219 -0.348325
0.846819 0.287048 -0.684162
0.698065 0.19231 1.06502
0.36649 0.153613 0.711585
0.735441 0.14185 0.358345
0.863323 0.306684 0.706677
0.818266 0.804053 -0.9625
0.470118 1.0976 -0.631667
0.872511 0.674914 -0.649165
0.81689 0.85937 -0.300833
0.788856 0.944722 1.0225
0.489688 1.30872 0.691667
0.863388 0.74354 0.69667
0.805001 0.904174 0.360833
-0.895904 0.421857 -1.70155
-0.35824 0.4 -2.26762
0.000346471 0.147716 -1.77267
0.000374489 0.271517 -2.21639
-0.897378 0.294366 -1.37965
-0.349309 0.148417 -1.4084
-0.815977 0.56791 1.73306
-0.344901 0.58 2.1988
3.02151e-05 0.212368 1.77693
9.01297e-05 0.401997 2.30646
-0.865999 0.379422 1.40174
-0.346853 0.201506 1.41799
0.000365857 0.824779 -1.67256
0.000366487 0.565897 -2.21982
-0.895716 0.607963 -1.32211
-0.406839 0.869149 -1.29333
0.000341502 0.996638 1.69797
0.000270389 0.766307 2.1805
-0.838279 0.755766 1.36947
-0.385228 1.13498 1.35333
0.895872 0.421861 -1.70153
0.358988 0.4 -2.26772
0.897374 0.294372 -1.37958
0.349937 0.148418 -1.40835
0.81665 0.567892 1.73348
0.345422 0.58 2.19855
0.865164 0.376891 1.4021
0.34949 0.198561 1.41823
0.895678 0.607775 -1.32208
0.407378 0.86915 -1.29333
0.838049 0.755746 1.36959
0.385909 1.13499 1.35333
-0.847073 0.302114 0.0110437
-0.360089 0.15162 0.00479624
-0.872356 0.465571 -1.00882
-0.870679 0.498481 -0.324698
0.000282435 0.149079 -1.05507
0.000218028 0.14412 -0.348444
-0.871806 0.520587 0.359423
-0.891224 0.54373 1.04354
0.00015325 0.145379 0.358179
9.06454e-05 0.189831 1.0648
-0.872669 0.711913 0.0236813
-0.504301 1.30345 0.03
0.000372599 0.932355 -0.9625
0.000353091 1.27301 -0.300833
0.000307331 1.34256 0.360833
0.000303468 1.26236 1.0225
0.847782 0.302016 0.0112575
0.360462 0.151624 0.00493875
0.872332 0.465583 -1.00875
0.871389 0.498475 -0.324579
0.872492 0.520538 0.359589
0.892577 0.543676 1.04376
0.87337 0.711886 0.0237525
0.504985 1.30345 0.03
-0.896089 0.288433 -1.73163
-0.878806 0.304261 -1.03198
-0.869877 0.634332 -0.985659
-0.895181 0.562731 -1.66286
0.890578 0.288436 -1.7316
0.895145 0.562637 -1.66285
0.870583 0.634249 -0.985624
0.876572 0.304269 -1.03187
-0.340995 0.147712 -1.76719
0.341688 0.147713 -1.76717
0.354226 0.149096 -1.05503
-0.353661 0.149096 -1.0551
-0.386711 0.815943 -1.64836
-0.408104 0.925862 -0.9625
0.40875 0.912887 -0.9625
0.387343 0.815943 -1.64836
-0.345461 0.277009 -2.1902
-0.362412 0.541698 -2.23919
0.363148 0.541698 -2.23913
0.346213 0.277009 -2.20712
-0.846692 0.294555 -0.33663
-0.846918 0.30909 0.358718
-0.871222 0.728885 0.360128
-0.873423 0.693999 -0.312766
0.847392 0.294486 -0.336452
0.874138 0.693998 -0.312706
0.871951 0.729498 0.360211
0.847553 0.30835 0.358967
-0.357152 0.150703 -0.348503
0.357588 0.150706 -0.348384
0.363514 0.152543 0.358262
-0.363206 0.15254 0.358096
-0.50834 1.24353 -0.300833
-0.503891 1.32048 0.360833
0.504541 1.32049 0.360833
0.509019 1.24346 -0.300833
-0.876671 0.357839 1.05407
-0.812941 0.393461 1.75211
-0.81281 0.754133 1.70861
-0.852581 0.741395 1.03302
0.884439 0.356558 1.05439
0.852284 0.741329 1.03313
0.81349 0.754123 1.70883
0.813617 0.392195 1.75258
-0.359073 0.189817 1.06469
0.360513 0.189834 1.06491
0.343495 0.212718 1.77431
-0.342176 0.212715 1.77404
-0.391085 1.2468 1.0225
-0.363367 0.99762 1.69107
0.364068 0.997608 1.69107
0.39171 1.24682 1.0225
-0.341201 0.404748 2.27621
0.341461 0.404748 2.27637
0.343825 0.759404 2.15646
-0.343204 0.759404 2.15655
-0.667511 0.22375 -2.0883
-0.499211 0.141769 -2.13823
-0.689101 0.144943 -1.93836
-0.694003 0.32125 2.12872
-0.50625 0.224749 2.13477
-0.68839 0.218308 1.94781
-0.742437 0.57625 -1.99238
-0.550055 0.686625 -2.00663
-0.77751 0.693155 -1.78958
-0.68763 0.83875 2.03398
-0.51244 0.942577 2.03258
-0.711351 0.938804 1.84958
0.499968 0.141759 -2.13824
0.668346 0.22375 -2.08838
0.689825 0.144944 -1.93833
0.50625 0.225316 2.13463
0.694136 0.32125 2.12927
0.688358 0.218372 1.94835
0.55078 0.686637 -2.00664
0.743356 0.57625 -1.99257
0.778274 0.693194 -1.78958
0.513161 0.942601 2.0326
0.688239 0.83875 2.03403
0.712091 0.938823 1.84958
-0.713139 0.14072 -0.878494
-0.719416 0.141047 -0.525206
-0.837339 0.185917 -0.693077
-0.535295 0.145237 -0.701826
-0.700357 0.186526 0.887944
-0.738274 0.142004 0.534656
-0.864816 0.193428 0.708846
-0.551238 0.153721 0.711348
-0.819043 0.819727 -0.797083
-0.861136 0.762274 -0.64044
-0.81757 0.8466 -0.46625
-0.692806 1.06291 -0.631667
-0.788695 0.93111 0.857084
-0.854636 0.845465 0.694121
-0.798945 0.913014 0.52625
-0.670516 1.17335 0.691667
0.713676 0.140719 -0.878328
0.535795 0.14524 -0.701684
0.719884 0.141052 -0.524993
0.838023 0.185855 -0.692911
0.70081 0.186294 0.888348
0.551471 0.153745 0.711633
0.73856 0.142002 0.535013
0.859815 0.195444 0.709178
0.81984 0.8198 -0.797083
[...]
POINT_DATA 3682
SCALARS point_scalars float 1
LOOKUP_TABLE default
-62.8521
-48.9761
-26.1217
-37.816
-62.0905
-48.804
-26.3784
-37.7026
-37.8743
-48.7155
-60.0482
-48.9371
-38.0137
-48.4836
-60.1349
-48.8954
-87.9383
-92.7305
-38.4362
-40.2569
-48.8087
-42.1904
-40.0372
5.91988
-91.9556
-37.6672
-43.3123
-48.6233
-39.7361
-39.0331
53.0251
-70.1835
-50.4808
-44.7699
-43.3974
-38.3655
-38.2529
-14.5169
-57.1695
-89.7556
-58.1902
-38.1582
-37.3879
-36.4652
85.2554
-123.511
-38.3302
-47.0114
-49.8512
-41.4191
-39.5329
85.2554
-39.6125
-39.5329
163.272
-37.7622
-37.5836
37.6354
-36.5325
-72.0471
-60.8353
-34.772
-35.4721
-32.9736
71.2148
-99.8571
-38.976
-46.8289
-50.0133
-41.4255
-39.4898
71.9184
-39.5576
-39.3951
157.208
-37.806
-37.4627
37.4682
-38.0984
-71.8656
-60.7891
-34.6986
-35.1142
-32.5334
-84.851
-90.8182
-39.0147
-37.481
-48.5828
-42.0534
-39.8269
5.97213
-88.6194
-37.9159
-41.3973
-48.3189
-39.6267
-38.935
53.947
-69.8268
-50.5319
-44.6052
-43.1899
-38.2373
-38.183
-14.6747
-56.6683
-89.4406
-58.3079
-38.1172
-37.249
-36.3631
6.74219
-158.206
-56.4443
-39.6493
-44.7507
-40.1175
-40.6075
-51.1873
-32.6668
-44.1172
6.36857
-56.2639
-39.5278
-40.873
-50.9586
-44.0712
-36.5358
-40.7614
-38.8805
-35.7713
-45.2657
-53.7941
8.45649
-62.8731
-36.5586
-40.8356
-35.4018
-53.8045
-64.1357
-63.9789
-55.6993
-3.81204
194.688
-41.2377
-41.2935
-37.5983
-90.5294
-48.5379
-48.3757
-38.735
-37.2703
-32.3048
3.42798
-189.313
-84.7554
-41.8486
-45.4674
-41.4953
-1.98357
-24.8616
-48.2417
-39.1941
-32.8897
-38.5159
-186.561
4.30468
-84.2804
-45.3405
-41.6936
-41.6201
-24.8893
-2.52143
-47.9449
-32.8204
-39.0785
-38.4629
-41.9237
-36.3434
-37.7477
-38.9628
-38.1847
-37.9295
-36.5853
-44.4007
-45.0759
-47.2278
-57.0988
-4.34022
-45.8546
-40.1976
-50.8887
-61.9791
-41.6862
-38.8779
-36.4249
-37.9363
-38.1348
-44.507
-37.9799
-35.3238
-44.9338
-4.39218
-47.2813
-57.0154
-45.8146
-61.954
-40.2121
-51.0021
-113.629
182.523
-83.5407
184.956
-64.1249
-55.9672
-43.5702
-36.4138
-40.1847
-36.0716
-45.9109
-38.9259
-26.5646
148.864
-62.6328
-10.0722
-33.0771
-30.8291
-45.108
-38.3892
-112.64
182.196
-64.1185
-55.5248
-43.5388
-36.2772
-46.0088
-39.119
-62.4402
-10.0595
-44.91
-38.3854
-38.2248
-37.1926
-45.4934
-41.1099
-43.1077
-37.2439
-41.1795
-45.439
-39.7109
-39.3259
-46.1401
-82.0217
20.0619
-79.8562
-77.768
-47.4561
-38.3119
-37.118
-45.2267
-41.1665
-41.2905
-45.3855
-46.1777
-82.0326
-115.203
-46.9264
-45.9038
-98.4721
-113.135
-97.6714
-45.7523
-46.6075
-83.3606
-82.4646
-42.7798
-43.0953
-28.9404
13.7506
14.0212
-28.9375
169.731
133.164
132.643
171.946
-37.7131
-37.9974
-45.3165
-47.2975
-37.7807
-47.3403
-45.4008
-38.1484
-37.1239
-37.0854
-39.081
-39.0983
-74.4222
-70.3912
-70.3715
-74.4073
-43.6554
-43.5564
-43.3009
-45.4653
-43.8514
-45.3401
-43.2412
-43.5618
-39.1405
-39.1142
-40.8156
-40.5805
-48.348
-34.0833
-34.0651
-48.3435
-38.2027
-38.1235
-35.63
-35.7971
-8.03802
-173.518
-119.632
-44.0446
-46.685
-45.7806
-13.4328
-24.2351
-45.4862
-38.9041
-33.892
-37.5073
-172.455
-6.70826
-119.531
-46.0839
-43.8749
-45.7074
-24.3051
-13.773
-45.9825
-33.7954
-38.8024
-37.4684
-39.1983
-36.7299
-38.0035
-37.955
-40.3698
-39.6478
-41.1283
-45.0722
-56.8066
-52.6737
-58.5852
-58.832
-47.1899
-45.9543
-49.9225
-54.7692
-39.0011
-37.8994
-36.6767
-38.1438
-40.2451
-45.0525
-39.6815
-40.0238
-56.7803
-58.4335
-52.7441
-58.5691
-47.1808
-54.73
-45.9729
-49.9503
7.87217
4.12994
-39.3351
127.906
-185.892
-167.598
-105.336
127.799
-68.2878
-48.473
-62.5025
-55.2787
-40.9193
-39.6877
-45.3073
-37.1892
-44.9171
-44.9598
-42.7629
-38.8981
-40.2837
-39.0501
-44.3801
-38.9832
-36.0797
-35.9252
-35.3706
79.146
-54.6646
-44.296
-63.7566
-21.3627
-32.6985
-32.6604
-32.7173
-29.0024
-40.8663
-45.897
-44.1012
-40.4409
8.30932
4.91969
-40.2261
126.9
-67.9926
-48.2071
-62.6001
-54.9928
-40.7881
-39.5575
-45.2083
-37.0957
-40.2755
-38.7079
-45.4748
-39.3944
-54.5755
-44.0724
-63.5915
-21.2747
-40.8369
-45.8326
-44.0054
-40.4326
-36.3558
-37.1205
-36.9685
-36.7924
-38.9935
-43.3479
-41.4358
-40.6765
-38.9762
-38.8817
-40.7463
-37.7743
-35.5754
-35.1481
-40.7692
-41.9499
-45.0842
-45.2837
-41.5387
-40.7391
-55.5235
-52.2061
-50.0392
-65.865
2.74063
2.87003
23.0056
-33.2812
-62.8504
-62.8371
-70.7872
-55.2423
-36.3422
-37.1699
-37.0082
-36.7375
-39.0839
-43.4165
-41.424
-40.7314
-34.4511
-35.2126
-40.8865
-42.2195
-55.5349
-52.2286
-50.0651
-65.924
-79.6788
-64.3541
-63.2311
-54.5764
-79.4391
-64.2447
-63.0428
-54.4166
-67.3463
-56.2085
-55.694
-48.2769
-15.2196
-5.39117
-5.39349
7.75659
195.146
178.485
178.179
198.324
-39.4258
-41.3769
-41.0985
-43.4433
-39.4905
-41.4308
-41.2109
-43.4891
-37.5382
-37.2052
-38.4321
-37.5175
-88.2835
-91.9921
-83.9545
-88.2862
-44.8078
-47.0625
-47.0046
-46.4423
-44.6618
-46.8953
-46.879
-46.2344
-39.1107
-38.8021
-38.8607
-37.6956
-34.7613
-37.6417
-37.6339
-41.4233
-33.9307
-34.5623
-31.9449
-33.7719
-37.7369
126.556
-107.155
154.134
-95.6391
-81.7176
-46.7163
-38.3727
-43.4773
-39.8001
-44.8686
-40.8347
-44.0571
89.1536
-36.2444
60.5451
-74.3744
-35.1474
-43.6982
-36.9031
-33.1815
-34.5023
-42.1676
-35.1432
-106.109
119.805
-40.9891
122.038
-92.9264
-80.9974
-43.7156
-39.7642
-46.6337
-38.303
-44.5125
-41.1124
-36.2488
60.3459
-44.7021
88.9004
-73.8622
-35.1163
-33.1433
-34.3173
-43.6119
-36.7797
-42.0862
-35.1239
-48.7349
-42.4159
-36.7207
-36.6916
-40.1293
-37.6331
-40.7446
-37.351
-42.6202
-38.4236
-37.1113
-38.9951
-36.7023
-42.7828
-41.5936
-40.4537
-47.5686
-0.578188
-45.9105
-47.3975
-51.8376
-78.0295
16.5895
-41.059
-45.8361
-50.9691
-41.4908
-45.0191
-47.78
-58.5483
-66.7294
-55.5042
-48.551
-42.1983
-40.6084
-37.2731
-36.7502
-36.76
-40.0933
-37.5621
-42.5197
-38.3937
-41.6277
-40.4291
-37.2259
-38.9974
-37.0028
-42.5507
-47.4796
-0.462493
16.4058
-41.112
-45.926
-47.4456
-51.8809
-77.9637
-45.6767
-51.2244
-66.6931
-55.5
-41.4964
-45.1157
-47.7633
-58.5107
-119.143
-107.642
159.137
173.976
-84.541
-83.2085
171.558
159.615
-80.734
-54.2917
-67.4233
-48.4074
-43.4456
-43.6044
-37.9961
-36.3109
-40.3593
-40.3203
-37.1346
-37.0403
-44.5963
-46.0521
-37.7706
-39.3909
-26.7776
-26.7642
142.98
142.482
-52.4425
-78.1718
-20.2334
0.0201834
-33.3563
-33.3429
-32.8198
-33.0045
-43.4623
-46.916
-42.4986
-35.6917
-117.612
-106.855
173.414
162.237
-80.6974
-53.9499
-66.77
-48.0429
-43.5787
-43.4992
-37.8938
-36.1618
-44.6317
-45.6399
-37.6733
-39.3953
-77.8923
-51.9098
-0.27102
-20.2368
-46.6736
-43.4153
-35.6844
-42.4929
-38.1249
-38.1787
-37.3329
-38.1054
-46.1227
-45.1854
-39.0313
-43.8546
-43.0171
-43.3857
-37.2398
-37.1881
-39.122
-43.4641
-44.61
-44.9795
-39.647
-39.6485
-39.3083
-39.294
-45.4812
-46.9319
-86.2872
-75.1039
18.8248
18.6032
-78.1882
-78.1527
-76.4409
-76.4494
-47.5421
-47.5413
-38.2249
-38.2885
-37.3036
-38.2397
-44.9751
-45.7631
-39.0928
-43.9039
-43.5622
-39.2444
-44.8138
-45.1844
-46.969
-45.5662
-75.1597
-86.246
-53.6247
-80.1928
-80.2434
-36.6651
-38.9396
-40.4057
-54.6278
-53.8798
-51.352
-50.1166
-53.7511
-43.0334
-45.9076
-40.5415
-78.542
-76.823
-55.0812
-39.4829
-80.0225
-80.2513
-46.4131
-76.4813
-78.2975
-41.1684
-51.3241
-43.0407
-53.5511
-49.9049
-38.5452
-53.0723
-54.4838
-40.3873
-106.769
-108.197
-67.3996
-66.241
-106.199
-65.7904
-67.0385
-106.692
-40.1885
-40.7091
-48.1921
-47.412
-40.2962
-47.6785
-48.5794
-40.8607
-39.0981
-28.7556
-16.2031
-35.2987
-26.1162
22.1051
5.87355
-11.155
-27.2301
-11.0863
6.03576
22.1822
-39.0693
-35.2984
-16.2047
-28.6835
86.3758
129.868
165.859
170.252
47.0652
85.0746
183.162
118.538
46.8081
117.96
180.207
83.9764
81.5182
125.336
169.526
127.599
-36.7202
-36.8192
-39.4573
-38.701
-36.3945
-37.8558
-39.3287
-37.0833
-46.0134
-48.8996
-43.1302
-40.9699
-52.3636
-43.5914
-43.8137
-51.2453
-36.7885
-38.743
-39.5166
-36.8806
-52.3997
-51.2762
-43.8608
-43.6451
-46.0501
-41.4126
-43.2272
-48.9517
-36.6791
-37.1426
-39.4364
-38.0534
-37.1321
-37.7615
-37.2104
-36.935
-37.081
-36.914
-37.1675
-37.6884
-41.1404
-41.5513
-38.374
-37.7656
-41.1356
-37.6255
-38.3689
-41.5143
-87.4163
-70.9113
-91.1413
-33.3104
-56.6967
-70.2485
-82.2657
-61.6433
-56.8296
-61.5967
-82.2732
-70.249
-87.3278
-33.3117
-91.0757
-70.9117
-42.9018
-43.4616
-45.5459
-43.0426
-48.3142
-45.7331
-45.5868
-44.2939
-43.0806
-42.3649
-43.9731
-44.7044
-45.867
-43.1504
-48.1703
-45.6964
-43.0165
-43.4286
-45.3062
-43.2335
-45.8828
-45.5321
-47.7784
-43.1037
-43.0977
-44.5942
-43.8605
-42.3163
-48.0707
-43.7775
-45.4147
-45.6499
-40.0124
-40.6779
-37.6604
-38.3153
-39.9219
-38.2177
-37.6085
-40.6797
-44.6672
-42.9371
-39.1966
-39.5989
-44.0161
-39.579
-39.1624
-42.9066
-50.403
-45.0893
-41.6278
-55.3274
-34.0131
-32.8218
-35.0248
-37.1191
-33.9675
-37.1182
-35.0213
-32.8009
-50.3833
-55.3208
-41.6247
-45.1148
-40.1462
-39.4139
-36.1858
-38.3342
-39.9052
-38.2645
-36.0582
-39.2558
-36.5054
-30.8929
-33.5341
-36.894
-36.5507
-36.9955
-33.6938
-31.0512
-41.6351
-127.366
-134.235
-46.5635
-48.7839
-47.3247
-17.635
-20.9806
-42.8803
-39.641
-35.1561
-37.5323
-124.469
-40.4193
-133.822
-48.6872
-46.3749
-47.1193
-21.0068
-18.0377
-43.2478
-35.0116
-39.4986
-37.451
-38.6161
-37.1577
-38.4046
-37.3868
-44.5825
-41.5811
-47.8719
-47.0567
-60.2718
-56.2271
-58.9988
-84.1711
-48.1667
-47.6677
-49.3814
-51.0562
-38.6807
-37.3542
-37.1157
-38.8605
-44.3987
-46.9755
-41.5405
-46.6333
-60.3339
-84.7219
-56.2862
-59.0394
-48.1486
-51.0413
-47.6549
-49.3879
8.00557
6.15846
-26.7511
70.4616
-165.359
-153.956
-120.78
-25.5546
-61.7245
-52.0858
-61.1142
-55.394
-40.1016
-39.6857
-43.8325
-37.7394
-44.7731
-44.8061
-44.2578
-40.7535
-40.2091
-39.8543
-42.7064
-39.342
-37.9304
-37.7654
-38.1947
-46.995
-53.5072
-47.0788
-61.3775
-33.2563
-32.6768
-32.6589
-32.7954
-30.1608
-42.1977
-45.1523
-43.7723
-43.0995
8.25262
5.15535
-27.9498
70.0522
-61.5142
-51.8876
-61.1974
-55.1687
-39.9863
-39.5508
-43.6809
-37.6401
-40.9694
-39.2434
-45.3349
-39.9739
-53.4252
-46.8852
-61.1043
-33.1286
-42.1625
-45.0974
-43.7107
-43.1912
-36.3584
-36.6511
-36.4956
-36.6426
-39.8281
-41.8643
-40.8821
-40.638
-38.9365
-38.873
-39.6691
-38.2743
-35.5987
-34.873
-37.121
-38.1753
-45.1623
-45.2873
-42.718
-43.1296
-54.6662
-52.9792
-52.6232
-58.9813
3.70534
3.71105
12.9559
-16.2186
-62.8909
-62.8877
-66.8509
-59.2483
-36.3736
-36.6925
-36.5424
-36.6531
-39.9088
-41.9339
-40.942
-40.6948
-35.2545
-34.4666
-37.4784
-37.6252
-54.7252
-52.9612
-52.6341
-58.9814
-70.8564
-64.2479
-63.6684
-59.5398
-70.6752
-64.1114
-63.4954
-59.3813
-60.8875
-56.0701
-55.7056
-51.6667
-9.52286
-4.22826
-4.22183
2.2229
199.595
188.295
202.862
201.341
-40.2783
-41.3117
-41.2214
-42.3035
-40.3384
-41.3675
-41.2678
-42.3546
-37.5926
-37.3519
-37.96
-37.5794
-89.802
-91.117
-87.5552
-89.8024
-47.6996
-47.9149
-48.5598
-47.1656
-47.486
-47.6961
-48.4422
-47.0138
-38.8852
-38.7709
-38.799
-37.8297
-35.9399
-37.4298
-37.4297
-39.2031
-32.7986
-33.2306
-32.4666
-32.7002
0.200978
12.8155
-19.1613
63.3294
-190.794
-191.654
-129.387
91.6586
-97.2423
-75.7932
-98.8393
-81.9621
-42.4656
-41.6699
-45.3652
-38.9551
-46.1249
-45.134
-45.2345
-42.1777
-42.9043
-40.6701
-44.9867
-41.49
-5.65232
4.09014
-50.4676
58.7493
-24.4971
-33.071
-36.7035
-16.0041
-46.0599
-52.1243
-59.0332
-40.3609
-38.861
-39.5347
-42.1149
-37.059
-33.1722
-32.6999
-32.9248
-33.8454
-37.8886
-39.3025
-40.2725
-36.3762
-181.976
-187.316
-129.061
63.8717
1.71046
13.0132
-18.5352
67.3501
-96.776
-75.4355
-95.9332
-81.4221
-45.8932
-45.1427
-45.0551
-42.2038
-42.3099
-41.5201
-45.2248
-38.8599
-42.9785
-40.7704
-44.7832
-41.585
-24.525
-33.6973
-36.7002
-16.1853
-6.10035
4.37905
-51.3791
58.5706
-46.1931
-51.9015
-58.4887
-40.3016
-33.0907
-32.6454
-32.8738
-33.6877
-38.7312
-39.4098
-42.0097
-36.9473
-37.7535
-39.2651
-40.2174
-36.3516
-40.0703
-45.2318
-48.2085
-41.7046
-36.402
-36.3339
-36.3795
-36.3749
-37.5916
-38.2818
-38.2688
-37.5481
-38.6663
-38.9196
-39.8593
-38.0538
-38.8938
-38.3742
-41.9736
-38.0661
-38.681
-37.3712
-37.1539
-38.6294
-37.9061
-35.8912
-33.763
-41.0066
-44.4851
-44.7345
-43.1793
-42.5732
-53.4274
-43.3515
-48.2758
-20.4352
-49.7323
-45.1022
-46.6849
-47.3491
-57.9735
-56.5168
-54.8028
-65.2838
-17.7296
1.44539
7.88029
-21.6833
-45.9078
-46.0197
-46.2465
-46.1558
-44.2057
-37.5602
-36.8874
-44.2741
-50.5
-51.6688
-49.8766
-54.4149
-60.9183
-62.7407
-64.6011
-59.115
-39.8552
-44.9523
-47.9108
-41.5093
-38.5952
-38.8164
-39.7613
-37.9907
-36.4686
-36.2696
-36.4002
-36.5494
-37.6677
-38.397
-38.383
-37.6099
-38.8608
-38.1522
-41.8243
-38.0729
-44.5182
-44.91
-43.2576
-42.6115
-38.7262
-37.4212
-37.2474
-38.6467
-36.8139
-34.4277
-34.2588
-39.8907
-53.3179
-43.15
-48.1885
-20.2407
-17.7977
1.33532
7.81437
-21.7055
-49.7852
-45.1653
-46.7479
-47.3988
-57.9072
-56.5654
-54.8189
-65.3109
-45.9143
-45.942
-46.1932
-46.1425
-60.8914
-62.711
-64.5743
-59.1056
-44.2446
-37.6497
-36.9467
-44.3056
-50.4893
-51.7577
-49.6527
-54.3971
-98.6536
-93.2825
-117.962
-111.01
162.03
189.719
172.687
181.998
-93.7662
-74.745
-84.1103
-83.2248
186.689
180.794
180.418
186.317
-63.7091
-64.4421
-70.891
-59.4891
-55.4929
-56.2407
-61.0581
-51.8131
-44.0541
-43.4477
-43.5213
-43.5941
-36.7032
-35.3185
-37.0887
-36.525
-41.0775
-39.8938
-40.2801
-40.2597
-36.8284
-35.9625
-36.4301
-36.3688
-45.2596
-46.5543
-45.0228
-47.2719
-38.9416
-38.8469
-37.9734
-39.1007
-31.4759
-21.0246
-26.4986
-26.4881
138.253
145.767
148.197
147.896
-62.691
-62.9006
-57.388
-69.1932
-14.4133
-7.17272
-14.8416
-5.20105
-32.9955
-33.6031
-33.1435
-33.1365
-29.6102
-31.2883
-31.3653
-31.4796
-44.6963
-45.8125
-44.1608
-45.8301
-39.131
-37.9316
-40.2045
-36.9245
-97.7949
-92.7894
-116.734
-110.084
160.225
189.94
181.388
173.311
-63.7672
-64.3749
-70.8316
-59.4341
-55.1337
-55.6258
-60.5408
-51.4193
-44.0031
-43.3928
-43.5749
-43.4951
-36.5753
-35.1536
-36.9563
-36.3843
-45.5689
-46.4198
-44.9796
-47.1057
-39.1432
-38.9886
-37.7844
-39.4164
-62.5085
-62.698
-68.9865
-57.0656
-14.3736
-7.1866
-5.25911
-14.8231
-44.548
-45.6196
-45.5327
-44.0077
-39.1255
-37.9198
-36.918
-40.1938
-37.7363
-38.757
-38.1601
-38.3198
-37.0621
-37.333
-37.3529
-37.142
-42.9679
-49.3435
-45.859
-45.256
-40.9382
-41.2893
-39.9759
-42.4211
-41.7148
-45.5629
-43.0265
-43.267
-37.4422
-37.1568
-37.255
-37.2211
-41.4019
-41.0488
-40.083
-42.3655
-44.4201
-46.2477
-45.0064
-45.582
-40.5446
-39.0148
-39.7211
-39.7116
-40.0894
-38.6007
-39.3178
-39.3117
-47.9327
-44.7148
-45.8073
-46.5272
-76.1033
-85.5662
-83.5078
-78.27
23.8805
13.6204
19.6981
19.6575
-54.2582
-89.7375
-79.0969
-79.0378
-74.3488
-81.0581
-77.395
-77.3982
-51.1442
-44.2386
-47.4433
-47.441
-38.03
-38.8216
-38.2451
-38.4253
-36.7405
-37.3064
-37.3049
-37.244
-42.8011
-49.1783
-45.0233
-45.5452
-40.9913
-41.3463
-40.0349
-42.4734
-41.5372
-41.1783
-42.4707
-40.1989
-44.2861
-46.291
-45.0424
-45.7685
-47.9677
-44.7548
-46.5627
-45.8387
-76.163
-85.5795
-78.288
-83.508
-81.4779
-109.338
-119.295
-97.6164
-47.3874
-43.6469
-50.2267
-46.5107
-46.9375
-45.3647
-47.8095
-45.3176
-69.9689
-89.2357
-102.405
-92.2244
-83.8169
-106.197
-117.288
-96.5281
-69.6777
-88.4702
-101.589
-91.7773
-46.8331
-45.3092
-47.6906
-45.1202
-47.1657
-43.2476
-50.1314
-46.1944
-94.2442
-82.6924
-84.2714
-74.906
-93.2359
-81.6963
-82.9755
-73.7848
-42.6331
-41.3218
-45.2829
-42.9646
-42.8945
-41.5636
-45.6226
-43.3441
-33.2477
-31.8066
-27.6443
-24.5524
7.95924
17.5925
6.95039
16.5643
8.55312
18.4446
7.08897
16.445
-33.2457
-31.7772
-27.6385
-24.5344
153.247
178.065
164.314
171.938
111.735
107.578
153.026
137.045
107.143
111.368
136.059
152.616
170.011
147.692
171.456
169.627
-37.2727
-37.5721
-37.928
-38.2813
-37.6062
-37.7103
-38.0691
-38.4078
-46.4725
-46.2689
-44.4696
-45.2051
-47.3903
-49.5215
-45.4614
-47.1962
-37.3314
-37.6462
-38.0202
-38.3463
-47.4338
-49.5585
-45.5062
-47.2402
-46.5379
-46.34
-44.555
-45.2988
-37.6462
-37.9172
-38.1952
-38.5366
-36.9588
-37.3552
-36.6883
-37.1112
-37.3118
-36.9251
-37.0565
-36.6365
-40.0231
-39.1595
-39.4062
-38.994
-39.1726
-40.0259
-38.9969
-39.4146
-82.1233
-56.2262
-85.5793
-75.3175
-64.1211
-68.449
-72.6909
-74.6273
-68.4476
-63.8939
-74.6344
-72.6767
-56.0993
-82.2237
-75.283
-85.5154
-43.1717
-43.2492
-44.4499
-44.2464
-45.4251
-43.5908
-43.504
-43.9353
-43.3686
-43.0316
-43.54
-43.3142
-45.256
-45.4208
-46.6918
-45.7368
-43.4126
-43.3601
-44.8673
-44.6641
-45.0722
-45.3607
-46.6629
-45.7394
-43.3019
-42.9571
-43.5038
-43.2623
-45.3884
-43.6342
-43.5386
-43.8067
-38.8131
-39.887
-38.7129
-39.2874
-38.7741
-39.8674
-38.6752
-39.264
-41.6779
-41.3071
-40.4729
-40.3944
-41.5611
-40.7782
-40.3824
-40.2164
-49.3916
-52.3514
-45.1359
-47.8936
-33.6797
-34.5297
-33.6647
-34.7284
-33.6543
-34.5102
-33.6484
-34.7167
-49.3785
-52.345
-45.1241
-47.8923
-38.316
-38.5592
-38.2555
-37.8738
-38.4896
-38.2449
-37.7796
-38.169
-35.199
-36.5903
-34.3107
-35.8218
-36.7208
-35.3764
-35.9838
-34.5084
-31.2105
50.6781
-140.695
-19.4479
-98.0837
-110.9
-47.8989
-40.8632
-48.6064
-44.6819
-48.0969
-44.6334
-48.4518
32.9191
-37.3935
8.92605
-44.9493
-41.5022
-42.2802
-37.203
-33.6725
-35.5257
-41.0676
-35.1247
-140.79
-12.8339
-31.8248
54.3357
-92.4452
-110.63
-47.8001
-42.8985
-47.6851
-40.7791
-47.844
-44.5942
-37.3697
8.99919
-49.1197
32.8591
-45.5997
-41.5839
-33.6069
-35.3814
-42.1055
-37.073
-41.0283
-35.0716
-37.3343
-40.1957
-36.5738
-36.8996
-37.6794
-36.9499
-38.4578
-37.6762
-42.4588
-40.1891
-37.6636
-40.7923
-34.2023
-43.1006
-42.7996
-42.6491
-53.9526
-58.2225
-51.9428
-52.9447
-55.2948
-70.3273
-38.5554
-81.6338
-46.7205
-48.5104
-45.7127
-46.1844
-48.3947
-53.1238
-55.5331
-52.5787
-36.7272
-40.0877
-38.3733
-37.6331
-36.597
-36.7569
-38.1892
-36.9515
-42.4282
-40.009
-42.796
-42.5913
-37.8172
-40.7937
-35.0282
-42.3989
-53.9666
-58.179
-39.6879
-81.6222
-51.9835
-52.9837
-55.3115
-70.321
-46.7021
-48.482
-55.554
-52.5653
-45.7099
-46.1801
-48.423
-53.1039
-20.241
71.4198
-42.1396
72.3061
-38.5628
-39.2416
127.959
125.195
-127.035
68.9027
-124.302
31.152
-107.669
-106.286
152.19
137.33
-79.2449
-66.6191
-53.1989
-47.6261
-69.4489
-58.2452
-60.274
-51.1711
-44.2579
-38.714
-43.31
-37.4227
-45.3475
-45.0187
-37.8849
-37.0264
-44.3487
-41.3182
-44.3849
-41.3029
-42.8045
-42.7864
-39.1234
-39.0254
-41.9056
-39.6828
-42.4788
-38.4658
-43.7934
-45.0391
-38.7149
-39.0726
-37.1248
-42.8381
-37.1494
-43.2361
-35.1533
-35.0898
69.4569
71.5619
-72.3079
-38.1487
-48.675
-26.059
-55.7873
-69.6409
-24.7709
-16.1754
-32.7723
-31.4322
-32.7465
-31.3137
-32.7466
-32.7371
-29.3527
-29.5151
-41.5062
-39.2755
-45.6926
-47.3626
-43.2304
-45.0738
-42.6981
-38.5579
-19.9842
71.4617
-43.1097
73.3138
-39.9755
-40.0355
124.398
126.747
-79.2295
-66.2088
-52.3407
-47.3652
-69.4411
-58.8469
-59.9329
-50.8827
-44.1361
-38.6186
-43.1853
-37.3206
-44.9141
-45.2537
-37.8154
-36.926
-41.6297
-39.6885
-41.9795
-38.2685
-43.5136
-44.8371
-38.6786
-39.3439
-72.0091
-38.071
-48.436
-25.8823
-69.4552
-55.6098
-16.0838
-24.6797
-41.4761
-39.244
-45.6023
-47.3153
-44.8719
-43.1718
-38.5503
-42.6569
-36.3924
-36.5219
-36.7529
-37.3592
-36.8694
-37.0146
-36.9616
-37.3022
-39.2633
-38.7504
-43.0773
-43.4508
-40.852
-42.085
-39.5821
-42.0169
-39.7377
-38.305
-39.6044
-38.2668
-40.7115
-40.8026
-37.781
-37.7352
-35.6238
-39.106
-36.422
-41.8501
-38.5332
-41.7947
-42.8403
-41.6807
-42.6652
-42.9933
-42.7432
-43.0818
-41.544
-41.522
-40.7216
-40.7245
-54.0566
-61.7741
-51.082
-56.4596
-49.4283
-50.6678
-68.282
-63.6487
14.6697
-15.5878
14.7426
-15.3593
22.9922
23.0035
-32.9438
-32.9402
-66.7251
-59.3096
-66.7031
-59.3048
-70.68
-70.6776
-55.2333
-55.2419
-36.4782
-36.5067
-36.8176
-37.4245
-36.9056
-37.0627
-36.9041
-37.4374
-39.3367
-38.8002
-43.1435
-43.5071
-42.0847
-40.8398
-39.634
-42.0716
-35.9868
-38.6107
-35.6988
-41.7834
-41.8306
-38.7022
-43.3519
-41.5852
-54.068
-61.7653
-51.0998
-56.4848
-50.6976
-49.4703
-63.6907
-68.2803
-79.8531
-79.1528
-71.0662
-59.6818
-58.8168
-69.8155
-54.6282
-54.1662
-79.6045
-78.9131
-70.9231
-59.5455
-69.6096
-58.6191
-54.0006
-54.4859
-67.5632
-67.0378
-61.5423
-52.1259
-60.9172
-51.5871
-48.2102
-48.4591
-15.3349
-15.3431
-10.6716
0.678335
0.661043
-10.6706
7.06612
7.10701
183.373
202.585