# vtk DataFile Version 2.0
tri_press
ASCII
DATASET UNSTRUCTURED_GRID
POINTS 3682 float
-0.798352 0.145 -1.605
-0.805 0.275 1.6938
-0.805 0.645 -1.52724
-0.605 0.742085 1.785
0.802817 0.145 -1.605
0.803568 0.275 1.695
0.806764 0.645 -1.525
0.806245 0.655 1.655
-0.834531 0.154371 -0.5054
-0.815686 0.218765 0.5942
-0.807988 0.747016 -0.42316
-0.765733 0.80379 0.68092
0.837616 0.153784 -0.505
0.80452 0.230464 0.595
0.828955 0.670697 -0.465
0.765079 0.610328 0.595
-1.61889 -0.117982 -2.4907
-1.62023 -0.097225 -1.62103
-1.63807 -0.0646257 -0.51725
-1.62035 0.000261675 0.59337
-1.59224 0.0516531 1.69788
-1.57087 0.0770536 2.57093
-1.55137 0.096048 3.43936
-1.6166 0.137624 -2.45993
-1.61638 0.165368 -1.5915
-1.63505 0.198662 -0.487831
-1.59495 0.254344 0.621445
-1.54401 0.286875 1.72516
-1.52983 0.309441 2.59367
-1.51836 0.329655 3.45995
-1.61577 0.650543 -2.38916
-1.61427 0.686577 -1.51691
-1.61218 0.767317 -0.411091
-1.54233 0.814543 0.700275
-1.41185 0.781263 1.80337
-1.42826 0.785413 2.65133
-1.4482 0.803398 3.50584
-1.60779 1.4366 -2.29088
-1.60249 1.47386 -1.41928
-1.58721 1.52379 -0.328146
-1.53736 1.54967 0.763237
-1.45994 1.54587 1.84981
-1.4236 1.54059 2.71199
-1.41345 1.54643 3.57235
-0.808121 -0.133299 -2.50001
-0.802837 -0.115041 -1.63191
-0.827988 -0.0919685 -0.529468
-0.830004 -0.017434 0.578095
-0.8229 0.0430245 1.68064
-0.801555 0.0615811 2.54939
-0.777777 0.0747961 3.41605
-0.807033 0.121678 -2.46824
-0.771052 0.287477 2.56406
-0.749073 0.304511 3.43266
-0.808233 0.628842 -2.39591
-0.665984 0.747269 2.61365
-0.680969 0.76923 3.47257
-0.803297 1.41095 -2.30257
-0.799081 1.44438 -1.43361
-0.792653 1.48762 -0.348945
-0.758399 1.50655 0.734451
-0.687462 1.50266 1.816
-0.651258 1.49908 2.67793
-0.639679 1.50777 3.54015
0.805456 -0.14962 -2.50879
0.815266 -0.124013 -1.6367
0.821123 -0.101542 -0.53489
0.787897 -0.0212312 0.571327
0.776488 0.0336774 1.67047
0.769968 0.0333882 2.51883
0.782094 0.0335523 3.37439
0.8033 0.10878 -2.47487
0.784205 0.254909 2.52485
0.799912 0.259212 3.38473
0.803639 0.612703 -2.40363
0.828727 0.682347 2.53322
0.846166 0.709457 3.40927
0.807185 1.36782 -2.32599
0.810592 1.39212 -1.46186
0.804183 1.40963 -0.391632
0.802611 1.40521 0.673359
0.841994 1.40754 1.74341
0.875431 1.41657 2.60726
0.895713 1.43432 3.47595
1.6118 -0.161263 -2.51428
1.62207 -0.135724 -1.6419
1.62722 -0.11484 -0.54515
1.59029 -0.050919 0.554305
1.57187 0.00253324 1.64688
1.56323 0.00775966 2.49939
1.56948 0.00906021 3.35438
1.6105 0.0975123 -2.48123
1.61846 0.127498 -1.61161
1.63539 0.133148 -0.521641
1.59439 0.17839 0.567958
1.58427 0.229042 1.65564
1.57451 0.230481 2.50558
1.58353 0.234969 3.36393
1.61089 0.601912 -2.41427
1.61859 0.631401 -1.54515
1.62642 0.631421 -0.481338
1.56997 0.593139 0.576243
1.58386 0.631602 1.64012
1.60009 0.658419 2.51023
1.61853 0.683487 3.38475
1.61158 1.34674 -2.34014
1.61401 1.36667 -1.47786
1.60425 1.37312 -0.411916
1.59237 1.36158 0.647845
1.61531 1.36584 1.71445
1.64346 1.38037 2.57817
1.66556 1.4016 3.44821
-0.830513 0.395 -1.59496
0.00223249 0.142083 -1.60792
-0.814914 0.151213 -1.0552
-0.736048 0.508542 1.77045
-0.000716001 0.212316 1.75708
-0.878717 0.178508 1.144
0.000882 0.70211 -1.58323
-0.848639 0.738153 -0.9752
0.100623 0.808605 1.83006
-0.753983 0.841554 1.23296
0.832807 0.395 -1.59302
0.827609 0.142 -1.055
0.823604 0.465 1.6937
0.824516 0.232261 1.145
0.871939 0.711929 -0.995
0.885275 0.732277 1.125
-0.812508 0.199168 0.0444
-0.860101 0.450693 -0.46428
0.00154279 0.143283 -0.5052
-0.863893 0.511277 0.63756
-0.00558275 0.149964 0.5946
-0.78268 0.771222 0.12888
0.0104836 1.0538 -0.44408
-0.000327006 0.812847 0.63796
0.803237 0.209955 0.045
0.842362 0.412241 -0.485
0.848864 0.420396 0.595
0.814509 0.658004 0.065
-0.880978 0.422847 -1.0152
0.896829 0.40362 -1.025
0.00188764 0.1424 -1.0551
0.0056828 0.856454 -0.9851
0.00155725 0.395 -1.93056
-0.836719 0.480985 0.08664
0.816871 0.416318 0.055
-0.00201998 0.149543 0.0447
0.0050783 1.11165 0.09694
-0.878064 0.50991 1.18848
0.894948 0.442698 1.135
-0.00314938 0.147379 1.1445
0.0501477 0.838552 1.17898
0.0499533 0.486771 1.95534
-0.814112 0.27 -1.59966
-0.39806 0.142589 -1.60741
-0.806692 0.148047 -1.3301
-0.772159 0.391771 1.73376
-0.402858 0.279583 1.68952
-0.878744 0.189869 1.4189
-0.831028 0.52 -1.57437
-0.402059 0.679663 -1.56134
-0.867607 0.732364 -1.25122
-0.680099 0.625314 1.7873
-0.252189 0.804311 1.8365
-0.698342 0.81067 1.50898
0.402525 0.141647 -1.60835
0.816634 0.27 -1.59783
0.815671 0.143042 -1.33
0.401426 0.280421 1.68928
0.820309 0.37 1.70107
0.823698 0.243975 1.42
0.403823 0.679181 -1.55974
0.832193 0.52 -1.57142
0.879379 0.718491 -1.26
0.453434 0.789643 1.80037
0.824397 0.56 1.68382
0.882945 0.730823 1.39
-0.830187 0.147327 -0.7803
-0.845369 0.15492 -0.2305
-0.855873 0.298253 -0.48484
-0.417953 0.145908 -0.5053
-0.870967 0.174871 0.8691
-0.814214 0.208849 0.3193
-0.855293 0.357269 0.61588
-0.427456 0.150721 0.5944
-0.824614 0.738885 -0.69918
-0.855446 0.609555 -0.44372
-0.795919 0.759705 -0.14714
-0.462847 1.0286 -0.43362
-0.755531 0.818344 0.95694
-0.760391 0.630323 0.65924
-0.776231 0.789531 0.4049
-0.488052 1.01836 0.65944
0.833051 0.147454 -0.78
0.420937 0.145819 -0.5051
0.787148 0.215148 -0.23
0.82535 0.290332 -0.495
0.866089 0.179791 0.87
0.419367 0.150418 0.5948
0.802909 0.22118 0.32
0.82998 0.323786 0.595
0.836298 0.677164 -0.73
0.494439 1.01169 -0.45454
0.849458 0.548369 -0.475
0.822232 0.66485 -0.2
0.835848 0.681973 0.86
0.535702 1.01824 0.61648
0.790477 0.507115 0.595
0.810863 0.655235 0.33
-0.881122 0.408923 -1.30508
-0.414478 0.395 -1.88395
0.00206007 0.142139 -1.33151
0.00189487 0.268542 -1.95311
-0.882736 0.28703 -1.0352
-0.406513 0.142494 -1.05515
-0.877044 0.509226 1.47946
-0.343047 0.497657 1.90433
-0.00193269 0.175562 1.45079
0.0246186 0.349544 1.81438
-0.868433 0.344209 1.16624
-0.440933 0.0762655 1.14425
0.0032824 0.794777 -1.28417
0.00121962 0.548555 -1.87943
-0.876322 0.5805 -0.9952
-0.421478 0.820981 -0.98015
0.0753851 0.861633 1.50452
0.0752879 0.647688 1.96448
-0.87587 0.675732 1.21072
-0.351918 0.972847 1.20597
0.896816 0.39931 -1.30901
0.417182 0.395 -1.8765
0.896133 0.27281 -1.04
0.414748 0.142379 -1.05505
0.896095 0.453849 1.41435
0.436779 0.475886 1.91782
0.882057 0.337479 1.14
0.410683 0.205959 1.14475
0.895913 0.557774 -1.01
0.438811 0.808992 -0.99005
0.896064 0.587487 1.13
0.467711 0.941614 1.15199
-0.851351 0.326708 0.06552
-0.419407 0.15007 0.04455
-0.862547 0.43677 -0.73974
-0.846511 0.465839 -0.18882
0.00171522 0.142567 -0.78015
-0.000238594 0.149335 -0.23025
-0.821695 0.496131 0.3621
-0.87541 0.510594 0.91302
-0.00380137 0.149754 0.31965
-0.00436607 0.11006 0.86955
-0.841473 0.64199 0.10776
-0.460372 1.08458 0.11291
0.0080832 0.96302 -0.71459
0.00778095 1.10058 -0.17357
0.00237565 1.09779 0.36745
0.0249104 0.805364 0.90847
0.834333 0.300997 0.05
0.415454 0.150058 0.04485
0.878703 0.407931 -0.755
0.828153 0.41428 -0.215
0.804288 0.418357 0.325
0.877649 0.431547 0.865
0.826557 0.542595 0.06
0.502554 1.07035 0.08097
-0.882684 0.278515 -1.31759
-0.864604 0.294781 -0.76002
-0.870814 0.589677 -0.71946
-0.878081 0.55025 -1.27815
0.8961 0.271405 -1.3195
0.896258 0.538887 -1.2845
0.877487 0.549622 -0.7425
0.878499 0.277911 -0.7675
-0.402286 0.142177 -1.3308
0.408637 0.141536 -1.33075
0.417164 0.142591 -0.780075
-0.411504 0.142593 -0.780225
-0.411769 0.769591 -1.26769
-0.410115 0.936683 -0.706885
0.429265 0.923759 -0.722295
0.421317 0.763961 -1.27208
-0.406269 0.269271 -1.88075
-0.408268 0.534278 -1.80419
0.410502 0.534278 -1.79927
0.409853 0.269271 -1.87278
-0.856352 0.311111 -0.20966
-0.855161 0.341069 0.3407
-0.821256 0.646318 0.3835
-0.843917 0.623502 -0.16798
0.835847 0.292662 -0.2225
0.837349 0.545152 -0.2075
0.811717 0.526455 0.3275
0.831401 0.312769 0.3225
-0.417716 0.149917 -0.230375
0.417148 0.150034 -0.230125
0.417279 0.1505 0.319825
-0.423512 0.150234 0.319475
-0.469582 1.07253 -0.160355
-0.479006 1.06106 0.386175
0.521873 1.04978 0.348725
0.506398 1.05682 -0.186785
-0.867378 0.354615 0.89106
-0.869609 0.36799 1.44918
-0.876187 0.650523 1.49422
-0.8601 0.666633 0.93498
0.877219 0.331455 0.8675
0.871765 0.551425 0.8625
0.896061 0.573744 1.40217
0.884086 0.35374 1.41717
-0.425784 0.108974 0.869325
0.405076 0.115171 0.869775
0.406055 0.22709 1.4354
-0.421896 0.221636 1.43485
-0.367474 1.05196 0.932705
-0.302053 0.857654 1.50675
0.460573 0.888458 1.44726
0.425044 1.03466 0.884235
-0.372953 0.370657 1.89805
0.419102 0.359772 1.86804
0.445106 0.603844 1.87531
-0.297618 0.636501 1.9473
-0.79923 0.2075 -1.59533
-0.598206 0.144435 -1.60556
-0.801097 0.147949 -1.46755
-0.790861 0.333386 1.71606
-0.603929 0.215948 1.753
-0.816132 0.258175 1.55635
-0.817899 0.5825 -1.55069
-0.60353 0.677992 -1.55995
-0.8461 0.698478 -1.38923
-0.64502 0.683699 1.78862
-0.428594 0.784096 1.82165
-0.656292 0.780999 1.64699
0.602671 0.147895 -1.6021
0.801892 0.2075 -1.59358
0.808875 0.14439 -1.4675
0.602497 0.218416 1.75143
0.812084 0.3225 1.69818
0.82282 0.2503 1.5575
0.605294 0.678266 -1.55855
0.818213 0.5825 -1.54694
0.849976 0.68865 -1.3925
0.629839 0.735108 1.74047
0.814526 0.6075 1.66862
0.855917 0.704233 1.5225
-0.829205 0.154003 -0.64285
-0.839721 0.154874 -0.36795
-0.754984 0.271421 -0.49512
-0.625961 0.150701 -0.50535
-0.817167 0.222977 0.73165
-0.815109 0.213648 0.45675
-0.834366 0.288579 0.60504
-0.637375 0.153135 0.5943
-0.816269 0.742919 -0.56117
-0.842067 0.683461 -0.43344
-0.802194 0.753601 -0.28515
-0.649714 0.916402 -0.42839
-0.757628 0.808063 0.81893
-0.757689 0.714369 0.67008
-0.772072 0.79775 0.54291
-0.643076 0.943443 0.67018
0.834459 0.151494 -0.6425
0.633999 0.140358 -0.50505
0.840662 0.156187 -0.3675
0.736715 0.269442 -0.5
0.805936 0.234496 0.7325
0.647633 0.119061 0.5949
0.803763 0.225773 0.4575
0.816309 0.277596 0.595
0.832048 0.673352 -0.5975
0.66965 0.8571 -0.45977
0.840208 0.610034 -0.47
0.825816 0.667996 -0.3325
0.82004 0.665727 0.7275
0.689454 0.892411 0.60574
0.764608 0.552136 0.595
0.797288 0.642099 0.4625
-0.82311 0.3325 -1.59811
-0.832657 0.4575 -1.58655
[...]
POINT_DATA 3682
SCALARS point_scalars float 1
LOOKUP_TABLE default
-73.4028
-39.0252
-31.6541
-31.5739
-70.3025
-40.2238
-33.4785
-38.5693
-35.0583
-24.2235
-48.9967
-41.1152
-35.7265
-23.5162
-43.9807
-25.138
-57.4117
-121.815
-38.4951
-19.4513
-51.5216
-39.1465
-29.9918
32.9049
-118.145
-36.3727
-26.5891
-44.0003
-41.1466
-30.2463
-11.0162
-140.275
-42.6225
-31.9068
-47.3065
-31.7397
-29.8395
-24.8259
-89.0768
-48.516
-43.8239
-50.1572
-32.4127
-29.6647
40.1206
-114.002
-36.5973
-25.0032
-39.1565
-29.9918
-28.8867
40.1206
-29.3736
-28.8867
143.722
-28.6021
-27.7318
28.9818
-66.1412
-70.0031
-48.1722
-34.7713
-29.2446
-27.6695
39.4108
-104.483
-37.0876
-27.5394
-39.6624
-29.6443
-28.4051
39.4108
-29.6794
-28.4051
146.465
-28.4557
-28.2863
34.6043
-69.231
-74.5218
-49.8081
-36.6551
-30.3871
-28.6008
-37.8347
-117.553
-51.1767
-21.3305
-46.4978
-40.2191
-31.1146
12.0897
-118.764
-51.1767
-21.0083
-46.3414
-38.9616
-30.0889
-26.4052
-138.569
-40.8681
-21.5302
-47.7167
-37.4606
-30.1578
-32.9872
-87.2946
-50.8793
-39.3507
-52.1128
-36.4677
-30.0108
-57.8249
-85.4071
-51.2987
-32.5551
-32.9117
-38.3865
-13.8753
-61.4122
-28.3956
-48.3504
-43.9594
-55.7406
-38.1362
-40.9234
-68.3824
-44.2671
-33.8536
-39.0055
-36.8384
-25.8998
-29.3345
-43.4948
-66.8545
-49.7065
-28.4919
-37.7313
-21.7739
-35.5204
-58.8444
-64.1472
-50.7062
-4.16
200.334
-33.0929
-30.4507
-30.7401
-75.6635
-39.7529
-40.4092
-43.0344
-42.4361
-21.7302
-59.6142
-94.4866
-76.7104
-34.593
-34.3461
-52.7022
-41.0081
-22.5418
-89.7588
-31.6458
-28.8312
-40.9231
-93.6578
-51.6528
-78.2046
-34.2774
-39.2804
-44.1553
-25.8051
-31.3984
-93.0076
-30.3158
-38.4388
-51.3409
-46.0766
-31.0534
-36.0046
-36.1066
-35.3394
-27.0596
-25.9861
-27.1145
-51.0167
-42.1113
-46.3811
-64.5531
-42.2502
-26.2168
-39.9278
-49.0141
-47.6948
-35.7064
-31.6751
-35.9094
-48.314
-29.0854
-26.4391
-22.3252
-50.5064
-63.891
-39.7931
-41.065
-30.3383
-50.4136
-23.1319
-33.3182
-89.9688
168.284
-65.5967
184.251
-57.4633
-50.6721
-43.3895
-27.4034
-39.1083
-24.2841
-39.6672
-51.7509
-38.0359
112.968
-58.8198
-20.0606
-34.1555
-23.2759
-41.3999
-41.9361
-96.1638
168.744
-61.9604
-51.5489
-43.6316
-28.0081
-39.5025
-43.2973
-65.3782
-25.4437
-41.7003
-43.3187
-31.757
-30.2186
-45.0651
-35.5935
-41.9541
-32.3585
-30.538
-31.3442
-30.3732
-51.6414
-36.0064
-65.8959
-27.3166
-82.359
-63.6178
-47.9812
-28.9223
-30.323
-51.0228
-33.3584
-28.0581
-32.4606
-32.3706
-63.8927
-89.13
-46.7128
-44.9417
-88.1523
-94.4281
-94.4453
-50.6325
-51.125
-67.1147
-68.1981
-42.5124
-42.0842
-37.9588
-28.8773
-29.9287
-39.2396
146.149
80.0369
81.153
146.364
-33.3825
-26.1787
-34.2459
-39.6024
-31.0697
-35.7999
-29.9045
-26.0407
-31.9728
-31.9902
-30.1707
-29.4578
-73.9017
-56.6128
-55.1568
-70.6766
-32.5346
-44.7531
-46.9609
-29.2627
-39.165
-26.8157
-44.6803
-42.8749
-47.404
-53.2612
-40.5559
-41.8455
-48.5217
-34.5896
-37.187
-48.471
-29.4996
-30.1262
-27.9949
-26.5277
-56.2341
-101.416
-113.353
-37.837
-35.1286
-46.5435
-29.6213
-9.57053
-83.0642
-31.6339
-29.9148
-36.0049
-98.873
-45.4061
-112.94
-34.6096
-39.8041
-44.0978
-10.6041
-20.707
-80.9513
-32.6571
-38.5077
-49.0423
-39.8688
-31.1973
-35.5923
-34.8993
-17.3538
-26.0648
-25.0708
-26.0685
-49.9077
-44.624
-47.6722
-64.1001
-41.6707
-29.0797
-39.1272
-47.5752
-43.09
-33.37
-33.3337
-36.6699
-17.8973
-32.6441
-25.343
-22.6646
-45.7024
-60.9202
-41.5264
-42.477
-27.5922
-44.9145
-23.7312
-30.5302
-59.9161
-53.2939
-139.516
120.741
-87.1871
-86.6623
-76.3494
-23.9254
-61.5055
-46.3454
-55.2962
-50.5102
-33.4252
-31.9933
-45.3305
-28.9392
-33.7759
-33.7142
-35.5884
-26.1021
-36.8383
-40.2358
-39.1454
-41.9625
-16.619
-19.7
-23.3732
-3.30783
-74.8268
-52.1309
-59.4239
-40.951
-28.3918
-28.9711
-30.9192
-26.9008
-46.5242
-44.6048
-44.2644
-42.7428
-51.1024
-36.7504
-134.975
118.591
-63.4354
-50.4234
-59.4213
-52.6399
-38.593
-38.0048
-47.1616
-30.088
-39.6038
-41.3506
-39.4217
-44.1208
-82.005
-58.3892
-66.0358
-47.7651
-48.2076
-34.1769
-42.3196
-46.8758
-31.5644
-28.3048
-30.762
-29.9041
-37.7435
-40.3516
-42.0946
-37.0165
-36.8113
-36.7127
-38.719
-34.2282
-28.0163
-26.1913
-28.397
-29.7177
-28.8375
-29.2391
-30.4117
-41.3656
-44.5475
-40.5082
-40.3512
-53.2585
-65.4514
-63.4846
-45.6069
-80.7887
-50.4139
-52.8454
-58.0155
-49.4912
-28.044
-27.633
-28.7171
-29.2056
-36.7672
-38.5124
-42.98
-35.1387
-22.4149
-21.0743
-25.0241
-18.4868
-38.9763
-37.3153
-33.3213
-48.3141
-69.6992
-58.4247
-59.0448
-52.629
-75.8378
-63.2825
-64.8296
-58.2391
-57.2948
-50.8757
-51.0641
-45.7078
-9.26775
-7.42888
-7.96611
-12.05
195.514
206.767
171.036
192.872
-32.4887
-34.4752
-31.9739
-34.4723
-30.1269
-32.0456
-29.0338
-31.2557
-30.6283
-31.3812
-30.4514
-30.6772
-73.8541
-80.662
-69.7969
-73.3954
-41.6224
-39.8317
-40.0458
-37.9184
-41.8466
-40.1843
-41.1286
-39.5975
-41.0118
-43.4594
-42.5222
-44.9861
-38.0187
-42.3697
-42.2997
-45.368
-23.4292
-24.0709
-22.2328
-25.377
-131.589
103.989
-79.9614
15.7751
-86.3289
-68.93
-44.0586
-29.9596
-37.5816
-30.9306
-45.933
-51.7835
-139.071
86.3733
-35.409
16.5044
-95.3703
-57.2293
-42.5565
-28.6693
-31.3669
-27.9524
-49.6316
-36.3745
-81.0274
33.1428
-126.726
103.233
-90.6412
-71.2014
-37.4886
-31.3611
-47.3235
-30.7648
-42.1054
-48.0626
-35.3638
19.6595
-136.582
86.9581
-99.1601
-58.9548
-33.6855
-28.9697
-48.0548
-30.1796
-46.8536
-42.955
-48.6352
-42.5651
-31.44
-31.5487
-40.7287
-32.7057
-38.3892
-33.454
-33.8356
-42.2767
-27.2775
-28.2698
-27.1351
-26.7777
-29.0332
-38.2441
-47.9973
-49.0759
-44.0657
-40.6858
-42.2199
-58.0094
-43.4976
-76.0548
-34.8953
-46.7787
-31.6995
-33.4367
-36.5637
-49.1524
-52.1399
-52.0549
-50.7015
-43.8254
-38.302
-33.5647
-30.154
-31.6319
-41.8689
-32.0548
-47.3873
-35.1848
-30.4001
-39.8008
-26.2635
-28.9072
-24.9118
-16.7081
-50.4005
-54.0891
-43.7989
-75.8559
-42.8452
-37.6395
-37.9046
-53.7022
-24.9368
-45.794
-50.6213
-49.4594
-26.7595
-20.9844
-31.473
-43.91
-89.9956
-88.2155
163.964
139.988
-66.2585
-66.2485
164.021
171.701
-68.1213
-52.2885
-57.8634
-45.3721
-43.3908
-44.1316
-27.7673
-27.1478
-39.039
-41.628
-28.1233
-28.5609
-38.7473
-41.6289
-44.1081
-45.8473
-39.8582
-42.5834
74.3269
64.5886
-52.4468
-69.3581
-32.3809
-19.0036
-34.1736
-35.0845
-25.888
-23.9397
-43.5929
-38.773
-44.9012
-37.6378
-95.9952
-95.0557
140.055
157.701
-73.0938
-57.1249
-58.7754
-46.1093
-43.9624
-43.1504
-28.4677
-28.1595
-40.5589
-40.5497
-46.575
-41.5675
-76.551
-58.8494
-22.3354
-32.7906
-37.7346
-43.0008
-40.7811
-46.3228
-33.1013
-30.302
-30.9824
-29.7606
-45.7858
-44.6024
-34.8115
-37.1638
-42.0623
-42.0019
-32.308
-32.2537
-28.6546
-32.3617
-31.8391
-30.1015
-30.371
-30.016
-53.8464
-54.8462
-36.886
-37.7871
-70.047
-61.9395
-26.6286
-26.1531
-80.6881
-80.1077
-61.0155
-62.38
-47.0491
-47.9387
-30.1356
-28.3867
-30.9327
-30.1182
-51.1916
-51.048
-32.4881
-34.3325
-28.8466
-26.4306
-34.4523
-30.1713
-34.1588
-31.1939
-59.2151
-66.4089
-122.898
-66.0278
-69.2564
-137.218
-40.7221
-41.2126
-52.7756
-50.9135
-46.1267
-51.4639
-52.4161
-42.9319
-125.192
-140.177
-69.4375
-70.7332
-123.384
-133.27
-74.9288
-69.8962
-115.164
-77.6857
-76.3095
-138.354
-43.8065
-42.5716
-58.4065
-58.5329
-42.2003
-55.14
-57.7355
-42.9849
-84.4247
-77.8856
-57.6723
-58.4248
-88.7884
-60.3828
-57.8042
-77.8893
-37.7318
-38.6375
-45.8151
-47.0196
-38.099
-45.4125
-45.7981
-38.6987
-49.0423
-48.9367
-13.3295
-27.4396
-65.0578
-45.5566
-12.4916
-41.1777
-60.3954
-45.9469
-13.2241
-44.116
-53.153
-24.2093
-15.0532
-56.9512
39.9603
108.326
199.92
30.1027
35.0942
3.42391
160.706
109.726
39.6802
109.045
155.701
6.25755
30.2524
9.50536
193.752
118.674
-29.3515
-32.5138
-33.9863
-35.7342
-26.6252
-26.4744
-30.7821
-29.1012
-33.0753
-38.2805
-33.6784
-30.1376
-43.2625
-38.5004
-36.0557
-41.1063
-31.1858
-34.064
-31.8423
-28.8444
-39.4997
-36.1831
-32.7976
-36.2333
-28.2622
-26.0602
-29.9461
-33.564
-24.989
-27.7652
-29.216
-24.3261
-32.5578
-34.1042
-31.2713
-30.9486
-33.2247
-29.9818
-31.2495
-34.0866
-29.5616
-30.4082
-30.4022
-28.8736
-27.6362
-28.8359
-30.2568
-29.9617
-61.0253
-55.8843
-78.8216
-80.4952
-48.7122
-57.2296
-67.5241
-50.08
-44.4617
-45.6773
-67.7203
-56.2964
-57.6217
-79.1008
-77.4091
-50.7131
-21.6596
-39.5457
-38.0983
-28.5338
-45.6407
-44.5561
-41.7568
-42.3358
-38.0723
-48.4783
-42.3579
-45.5446
-38.8369
-31.4058
-38.5481
-38.2804
-15.7057
-17.8491
-40.0558
-40.4955
-24.3619
-34.4735
-38.8432
-19.1403
-49.7594
-47.0889
-42.375
-44.2648
-46.6697
-40.55
-40.7726
-47.9178
-29.2708
-41.6331
-44.7516
-41.7343
-28.963
-45.0292
-46.3937
-41.348
-38.2659
-36.3717
-40.1288
-43.3847
-39.3304
-41.105
-40.0862
-36.425
-47.6256
-46.354
-44.2547
-49.9084
-33.0138
-30.9203
-37.8836
-39.9343
-37.9419
-46.3634
-38.3804
-31.7881
-44.2806
-49.9034
-45.1587
-45.6969
-30.7007
-30.6704
-23.743
-29.527
-31.3118
-30.2951
-25.7316
-31.9931
-30.8407
-27.6528
-25.7664
-29.939
-29.1511
-28.613
-23.1619
-26.9936
-66.3068
-119.839
-115.105
-38.5206
-36.3581
-40.4383
-28.525
-2.65359
-68.2135
-31.607
-30.5564
-33.5758
-115.337
-60.2955
-114.991
-36.7869
-40.2071
-42.9007
-1.4772
-25.6858
-73.4463
-34.8078
-38.3971
-43.7947
-37.5192
-32.6011
-35.6511
-34.4992
-23.7164
-25.6661
-25.1071
-24.5163
-49.3993
-46.4689
-48.4353
-54.556
-41.6814
-36.5127
-40.1636
-44.7024
-38.9372
-34.1559
-33.4815
-36.7013
-21.7293
-28.7535
-24.6894
-23.0649
-44.9448
-52.889
-42.4917
-43.2168
-22.9039
-36.195
-24.3109
-28.54
-59.2656
-55.5295
-93.6683
49.3931
-86.4719
-85.4784
-84.0276
-95.8143
-56.2362
-48.0968
-53.1029
-50.8637
-32.8951
-32.2445
-39.0575
-30.0375
-32.9558
-33.1594
-34.638
-27.146
-38.4374
-38.7114
-38.5573
-38.781
-15.5905
-16.8605
-19.3737
-6.07311
-68.437
-55.0138
-60.6622
-55.2173
-28.334
-28.5855
-29.7035
-27.6926
-47.891
-46.5411
-47.5872
-45.7312
-46.4656
-41.3917
-106.262
53.8582
-59.3016
-53.1051
-58.2609
-53.8279
-37.8625
-38.3093
-46.3609
-32.094
-39.2376
-41.2625
-39.8081
-45.9285
-76.1437
-63.4025
-67.0236
-61.831
-46.2493
-36.6682
-42.1818
-46.9061
-35.1268
-28.7322
-32.5171
-30.0197
-38.3651
-39.6762
-40.4187
-37.8977
-36.8786
-36.8348
-37.6007
-35.8257
-27.2634
-25.8121
-27.9052
-27.3721
-29.2185
-29.2325
-30.4456
-34.4564
-43.8865
-43.0234
-41.9515
-47.7895
-66.6971
-65.925
-55.9714
-74.2886
-49.8702
-50.076
-56.5897
-49.82
-28.0434
-28.3737
-28.5267
-28.4045
-37.4477
-38.1226
-39.4963
-36.3133
-22.3384
-21.3487
-22.1426
-22.1946
-37.6959
-36.2791
-33.6211
-42.7762
-63.5588
-58.5935
-59.0265
-55.2686
-69.3128
-63.7024
-64.6395
-60.35
-53.8176
-50.6952
-50.7422
-48.0484
-4.32428
-4.80536
-4.89661
-7.20157
197.205
206.521
187.288
197.585
-32.6177
-33.8368
-32.3325
-33.716
-30.2313
-31.3008
-29.8315
-30.7833
-30.7293
-31.0792
-30.578
-30.7544
-75.193
-78.0791
-72.5025
-75.1655
-40.6411
-39.9034
-39.9362
-38.9726
-40.9152
-40.3164
-40.6961
-40.2099
-42.2706
-43.228
-42.9626
-43.8163
-40.4964
-42.2027
-42.2887
-43.7376
-21.8867
-22.1835
-22.1133
-22.9747
-61.2754
-61.2385
-70.4904
31.9661
-96.3753
-89.4547
-90.2852
-96.322
-90.9145
-67.7438
-84.2715
-71.267
-36.1823
-33.9616
-42.8727
-31.4452
-34.5526
-33.8435
-35.9877
-32.3631
-51.3189
-48.2574
-48.3503
-61.4346
-35.2526
-47.2153
-101.347
45.369
-26.424
-19.5099
-31.2448
-12.092
-86.074
-82.6142
-93.6196
-67.7221
-31.608
-31.7787
-35.1258
-29.7105
-29.3122
-28.5315
-30.1098
-28.3478
-38.8336
-43.9724
-44.9152
-38.253
-92.9689
-89.5207
-90.5307
-95.3439
-49.5296
-52.5215
-78.1603
24.526
-93.0899
-69.19
-88.8294
-73.797
-34.3176
-33.8362
-35.8983
-32.6661
-39.6029
-38.8758
-46.3448
-32.7376
-42.7428
-43.2282
-42.5316
-52.4934
-26.9928
-23.867
-33.7419
-11.399
-23.9441
-37.2749
-107.832
51.1825
-89.5549
-92.4834
-98.6075
-74.4439
-31.261
-29.6706
-32.0341
-29.3821
-38.7308
-38.2123
-47.2935
-32.4578
-52.2209
-49.7357
-49.4161
-48.2882
-43.1224
-45.7735
-47.5019
-43.1842
-30.7233
-31.0381
-31.6408
-31.2803
-35.2039
-36.8956
-37.9279
-33.5829
-35.1951
-36.5697
-37.3599
-34.7019
-16.7935
-41.8085
-32.6846
-44.8145
-26.6905
-27.6457
-27.182
-27.3462
-25.1554
-27.2175
-26.2019
-25.7516
-25.9809
-28.1558
-28.6583
-31.3926
-50.3115
-52.678
-49.2014
-60.4077
-43.1292
-41.1893
-43.0184
-41.3336
-47.2523
-45.7897
-44.5447
-51.3248
-68.009
-64.497
-52.6267
-73.8453
-41.1002
-43.8563
-38.7647
-45.308
-27.0474
-26.1111
-29.531
-26.3781
-39.1985
-39.2598
-37.8914
-43.9998
-49.0973
-53.1708
-51.7674
-48.6299
-44.6627
-48.1402
-50.0884
-44.7624
-34.643
-36.4097
-37.0525
-34.7005
-36.6654
-28.1411
-30.16
-31.556
-36.3565
-36.0553
-38.9259
-33.3826
-26.7918
-49.1538
-50.4765
-36.9401
-32.2861
-29.0525
-30.5093
-32.7395
-25.9325
-26.9873
-26.3669
-27.2238
-22.4598
-22.4039
-23.6922
-20.4833
-47.4041
-54.8575
-50.5708
-61.5982
-68.7444
-61.7452
-53.1917
-69.8892
-40.7146
-39.114
-41.2437
-38.7415
-41.6293
-39.9366
-39.0972
-48.7717
-30.7507
-31.4154
-27.2371
-41.9369
-47.9097
-53.4847
-50.6776
-51.4598
-23.7126
-21.4307
-24.5948
-20.5915
-32.3487
-35.3553
-32.2073
-37.0052
-120.884
-77.7121
-90.9503
-90.0363
148.479
177.224
163.838
159.06
-70.6906
-61.2453
-65.8472
-65.3058
149.081
197.271
152.016
185.874
-56.5332
-58.2897
-62.124
-54.2007
-50.5601
-50.8667
-54.1274
-47.9019
-44.7711
-42.4615
-43.2912
-43.4676
-28.2114
-25.7748
-27.3092
-27.237
-37.1169
-40.0863
-39.039
-40.3382
-23.9467
-24.1531
-25.0229
-25.1722
-39.5057
-39.7141
-39.2463
-40.3871
-47.2114
-44.5044
-36.6935
-49.8292
-29.9489
-23.2803
-35.7989
-36.8839
27.4179
154.017
89.1018
92.2478
-58.9125
-58.9584
-55.5875
-63.3045
-28.6464
-11.8103
-23.5397
-17.7605
-32.534
-35.937
-34.1665
-34.5282
-25.6628
-21.9174
-24.7066
-22.9793
-42.5088
-40.4132
-42.3213
-39.8041
-41.2062
-42.3572
-43.1874
-40.0403
-116.382
-84.3236
-96.015
-95.747
146.426
178.376
162.121
156.507
-60.638
-62.821
-66.9083
-58.7339
-51.9057
-51.4483
-55.1009
-48.7671
-44.8311
-42.6973
-43.7854
-43.4581
-29.1677
-26.8518
-28.1061
-28.061
-39.2981
-39.8787
-39.8599
-39.898
-45.2063
-42.5152
-44.8235
-42.0731
-65.8274
-65.0108
-70.2887
-61.432
-38.0468
-14.0584
-23.2515
-25.4716
-42.1323
-41.4003
-40.7477
-42.2513
-45.5495
-43.8925
-42.3392
-43.932
-30.9709
-32.4245
-31.977
-30.6439
-29.7591
-30.4615
-30.6079
-30.0277
-42.8593
-49.4923
-45.3651
-44.7319
-36.3045
-34.9803
-35.1217
-36.2768
-40.2756
-43.6877
-41.9653
-41.9643
-32.9515
-31.8164
-32.3612
-32.31
-29.5811
-31.3778
-29.6927
-31.4107
-29.2391
-35.3596
-31.6381
-31.1214
-30.3781
-30.3781
-30.4048
-30.2766
-42.783
-50.8273
-51.65
-52.6149
-38.1837
-34.8279
-36.532
-36.4888
-60.0816
-70.6172
-67.8049
-63.4915
-35.6881
-18.9956
-26.6571
-26.3325
-82.7313
-82.2901
-81.8838
-81.6585
-61.2489
-66.5049
-63.0332
-63.5264
-48.5916
-47.0551
-47.752
-47.826
-28.844
-29.5671
-29.9526
-28.2071
-29.7647
-30.5421
-30.621
-30.2313
-47.1239
-55.1203
-51.1641
-51.0032
-34.1649
-32.7311
-33.1046
-33.815
-27.2409
-28.3611
-28.5294
-27.4096
-23.0688
-35.2611
-33.3858
-31.3588
-32.9573
-31.7728
-33.2847
-31.774
-55.9952
-69.2275
-61.5657
-64.9999
-124.085
-88.7472
-90.2902
-76.1873
-47.2635
-43.7149
-50.679
-46.1135
-46.4186
-45.0662
-48.3701
-44.8777
-110.329
-90.9731
-87.7559
-77.0974
-120.706
-92.7161
-95.6372
-81.5294
-112.433
-95.3452
-94.6899
-84.2508
-50.562
-46.5899
-54.4554
-50.9029
-50.9215
-49.8391
-54.9639
-51.1821
-73.0015
-67.6193
-66.7268
-62.2898
-74.104
-69.4516
-67.2874
-63.2866
-43.1063
-40.396
-44.2939
-42.2077
-42.5788
-40.1497
-43.8074
-41.9867
-33.3735
-43.6763
-43.7146
-41.1806
-33.8762
-35.9353
-22.0488
-27.0262
-39.0039
-35.8649
-25.437
-26.846
-34.5021
-43.5777
-45.1871
-43.1956
139.407
102.694
162.917
158.763
95.0094
48.4554
113.066
79.0784
43.4074
94.5828
76.4995
112.839
99.423
133.54
159.273
163.25
-32.2973
-32.911
-33.1932
-34.4751
-27.0889
-27.0688
-28.6544
-26.9355
-33.4844
-35.424
-33.2874
-35.913
-40.1232
-40.6633
-38.3578
-38.761
-30.5089
-31.3587
-30.0021
-31.949
-36.6971
-36.7722
-34.9891
-35.0251
-28.549
-30.6734
-29.3624
-30.811
-26.1507
-25.6746
-26.996
-26.1475
-31.6421
-32.6549
-31.4911
-32.1293
-32.6928
-31.8578
-32.0883
-31.4409
-30.2767
-29.6245
-30.2672
-30.1377
-28.8602
-29.2877
-29.6151
-29.7577
-67.2494
-74.0936
-72.0326
-78.4123
-53.8332
-53.3786
-59.8863
-57.6228
-53.4968
-49.3957
-59.1281
-57.1828
-73.0084
-62.74
-77.2285
-68.1312
-33.0895
-29.5669
-36.303
-32.1265
-44.6894
-45.3654
-43.9064
-43.0496
-47.898
-49.2519
-45.0004
-45.4048
-31.107
-30.3111
-33.6778
-29.5923
-42.6475
-23.3278
-39.5825
-36.77
-25.3175
-24.0558
-30.7682
-28.5834
-45.8409
-45.5128
-44.3154
-43.7672
-44.2126
-42.7407
-42.8465
-41.8441
-40.9859
-39.274
-49.3651
-52.4375
-45.3858
-43.4971
-51.7981
-55.0151
-38.7413
-42.037
-39.4614
-40.9269
-39.2677
-42.6625
-41.9416
-45.8337
-47.0841
-49.1961
-46.9381
-46.0498
-32.972
-35.1052
-34.2911
-36.1012
-35.3146
-39.5775
-35.7779
-38.7439
-48.1726
-46.8788
-49.1669
-48.7858
-30.0872
-30.2252
-28.3204
-28.6549
-30.5954
-30.664
-29.3139
-29.3
-28.3099
-28.9758
-27.287
-28.1028
-27.8376
-27.4444
-26.7203
-25.1649
-86.0164
-50.9243
-96.9461
-72.0388
-123.276
-91.6578
-42.4845
-32.8302
-37.3817
-32.391
-45.7616
-42.5196
-104.013
31.1404
-35.4695
11.5733
-111.291
-58.5631
-34.2286
-29.8905
-31.4431
-29.4493
-36.7942
-34.5747
-95.9777
-52.9915
-86.0014
-34.0555
-116.819
-98.0152
-36.2895
-32.4842
-45.6964
-33.5629
-45.998
-40.153
-36.6152
17.0122
-103.847
37.6739
-98.0206
-66.0905
-35.2991
-31.5423
-47.1199
-33.1509
-50.3671
-41.659
-40.6703
-38.1176
-29.5785
-31.9273
-37.8138
-32.7576
-36.1966
-33.7189
-19.2241
-25.4678
-26.7138
-26.5427
-26.0304
-23.747
-26.979
-27.2
-47.9942
-58.9767
-45.3229
-43.8643
-45.4703
-53.0755
-65.693
-62.6069
-40.3905
-44.4874
-30.9726
-36.194
-35.6547
-45.0176
-48.0608
-47.1414
-41.9485
-38.6149
-36.0571
-32.2878
-31.2252
-33.038
-38.7175
-34.0322
-15.8278
-27.7157
-30.3908
-31.8074
-25.1587
-26.5938
-24.0953
-20.5079
-44.8051
-52.7542
-61.7108
-59.5802
-42.651
-40.4986
-40.6091
-51.3095
-24.8946
-40.2578
-44.2908
-44.7654
-25.8851
-21.3124
-29.2744
-37.3178
-84.0834
39.6291
-99.0025
51.0653
-138.839
-139.118
113.399
121.26
-87.1435
-90.9141
-87.4549
-86.7689
-76.8087
-76.7547
52.4109
-73.1794
-64.9998
-59.961
-48.2693
-45.9225
-59.6223
-52.4649
-54.6541
-47.863
-42.481
-30.6544
-36.9414
-29.6467
-45.0287
-45.6075
-29.1573
-28.6826
-35.2551
-32.1535
-35.4042
-31.9705
-35.6343
-35.82
-26.8358
-26.8315
-41.6513
-30.9723
-39.668
-40.6508
-39.095
-40.1038
-41.7956
-42.1007
-23.6919
-9.24656
-23.9696
-8.61845
-24.4094
-22.0148
-4.49123
5.74682
-73.0165
-62.2317
-51.3743
-55.9677
-55.762
-63.7985
-42.2426
-39.6979
-29.6762
-27.6539
-30.4337
-28.2067
-30.9236
-31.2606
-27.1152
-26.8296
-52.6639
-42.3334
-41.9287
-45.7419
-45.7367
-41.6564
-44.3659
-41.6131
-93.2959
56.1144
-118.738
56.6301
-135.893
-138.103
117.608
120.032
-68.1763
-61.8565
-53.8212
-48.041
-64.0095
-56.2963
-56.2981
-49.6435
-46.7806
-32.2202
-46.6231
-32.125
-47.4337
-47.3551
-30.1766
-30.0414
-40.2944
-32.5505
-40.7578
-44.8676
-39.8379
-39.5729
-44.5479
-42.0088
-80.6808
-70.1972
-58.2138
-57.8814
-70.8574
-62.2811
-46.7221
-51.6837
-45.6531
-49.9097
-32.9318
-42.4491
-39.1705
-43.1897
-47.0727
-46.5034
-31.983
-31.4569
-28.7204
-27.9949
-32.5427
-29.5871
-30.5793
-29.3252
-39.2383
-36.5002
-41.5264
-39.3141
-41.6451
-42.5861
-36.2893
-37.7061
-37.6236
-35.6819
-37.5213
-35.6563
-38.7297
-38.7769
-34.2123
-34.1937
-26.2858
-27.9693
-28.2659
-25.0368
-28.4392
-28.9904
-28.8975
-29.8283
-29.9781
-34.1727
-30.4077
-34.4685
-30.4363
-30.2614
-41.4709
-41.9476
-43.3357
-49.4636
-39.3175
-44.7178
-39.7593
-40.6127
-54.7961
-51.4152
-55.4416
-74.2559
-53.7917
-73.5852
-45.9611
-45.1085
-80.8492
-80.396
-58.1343
-50.2746
-57.3795
-50.0166
-58.0578
-58.0843
-49.9668
-49.9416
-28.289
-28.686
-27.6985
-28.0142
-28.9108
-28.3069
-29.5022
-28.9926
-39.033
-35.2373
-40.347
-37.1908
-42.7361
-42.9036
-34.8285
-35.6714
-23.0852
-21.1432
-24.1549
-21.7611
-25.9156
-24.2566
-18.1698
-18.8897
-37.3189
-45.473
-35.9114
-39.876
-35.1059
-32.7975
-46.8716
-49.0479
-69.569
-69.7137
-63.1668
-54.9508
-55.4762
-63.6971
-52.6438
-52.4883
-75.371
-76.2649
-68.4398
-59.7691
-69.9046
-60.8594
-58.389
-58.0304
-57.4079
-57.3726
-54.112
-48.1984
-54.3029
-48.3746
-45.7139
-45.6945
-10.5599
-10.8873
-7.50532
-8.74692
-8.92432