# vtk DataFile Version 2.0
tet_velo
ASCII
DATASET UNSTRUCTURED_GRID
POINTS 29498 float
-0.733704 0.165 -2.115
-0.725 0.305 2.0825
-0.645 0.742676 -1.925
-0.657933 1.065 2.025
0.735 0.165 -2.11558
0.725 0.305 2.0825
0.645 0.742676 -1.925
0.657933 1.065 2.025
-0.752891 0.189578 -0.715833
-0.782139 0.204095 0.683333
-0.768531 0.969337 -0.608333
-0.761285 1.06522 0.708334
0.75376 0.189573 -0.71622
0.782575 0.204092 0.68314
0.777851 0.978657 -0.608333
0.761334 1.06527 0.708334
-1.49528 -0.291851 -3.24945
-1.48807 -0.207813 -2.16313
-1.50527 -0.182891 -0.761815
-1.51494 -0.178188 0.656097
-1.47907 -0.111689 2.05881
-1.46889 -0.0554236 3.15198
-1.47388 -0.00389113 4.23247
-1.48585 0.0516469 -3.18401
-1.47849 0.157848 -2.10672
-1.50997 0.208655 -0.721486
-1.51548 0.221065 0.671162
-1.45363 0.283945 2.05798
-1.45307 0.338953 3.14999
-1.46673 0.390281 4.23319
-1.44848 0.705433 -3.03005
-1.42533 0.808455 -1.94943
-1.50822 0.979648 -0.620457
-1.49904 1.05453 0.702672
-1.41271 1.0733 2.03324
-1.43161 1.12497 3.12868
-1.45934 1.18071 4.22519
-1.43363 1.82225 -2.86113
-1.43 1.94054 -1.79283
-1.46449 2.11749 -0.490627
-1.48868 2.24481 0.793796
-1.48046 2.30519 2.09689
-1.47513 2.34337 3.16704
-1.47901 2.38839 4.25453
-0.761563 -0.28912 -3.2549
-0.740373 -0.201509 -2.17103
-0.748712 -0.191863 -0.76088
-0.768467 -0.190296 0.666467
-0.747535 -0.103658 2.07702
-0.741758 -0.0504642 3.16432
-0.746096 -0.00273078 4.23959
-0.761815 0.0467411 -3.18575
-0.733981 0.344693 3.16017
-0.743338 0.391294 4.23855
-0.729493 0.676299 -3.01991
-0.716834 1.12282 3.127
-0.740218 1.1793 4.22481
-0.698235 1.80358 -2.8511
-0.685683 1.92364 -1.78177
-0.715881 2.11445 -0.483974
-0.749697 2.24953 0.792948
-0.753835 2.30684 2.09111
-0.751141 2.34273 3.16127
-0.7536 2.38741 4.25032
0.7046 -0.288008 -3.25528
0.741386 -0.200917 -2.1715
0.76146 -0.19147 -0.761229
0.768717 -0.190132 0.666275
0.729308 -0.103556 2.07695
0.714669 -0.0502587 3.16425
0.710147 -0.00236821 4.23952
0.683806 0.0476953 -3.18612
0.701716 0.344836 3.16013
0.702085 0.39162 4.23849
0.665145 0.677559 -3.02009
0.678467 1.123 3.12697
0.691027 1.17967 4.22475
0.752763 1.80629 -2.85124
0.775582 1.92691 -1.78188
0.776219 2.11797 -0.484058
0.738485 2.25151 0.792878
0.702313 2.30778 2.09104
0.694854 2.34347 3.1612
0.696253 2.38815 4.25024
1.44615 -0.288944 -3.25011
1.48255 -0.205108 -2.16387
1.51427 -0.180755 -0.762404
1.52206 -0.17741 0.655738
1.4774 -0.111262 2.05862
1.45327 -0.0548538 3.15182
1.44561 -0.00305678 4.2323
1.42678 0.0546229 -3.18464
1.47103 0.161233 -2.10745
1.51308 0.211934 -0.722046
1.52371 0.22166 0.670839
1.46281 0.284194 2.05784
1.43739 0.339408 3.14987
1.4349 0.391052 4.23304
1.40517 0.709191 -3.03045
1.42765 0.813678 -1.94975
1.51981 0.98884 -0.620702
1.50567 1.05616 0.702515
1.41782 1.07366 2.03315
1.40918 1.12553 3.12858
1.41977 1.18157 4.22506
1.48209 1.82767 -2.86142
1.50551 1.94683 -1.79307
1.51787 2.12389 -0.490824
1.4865 2.24868 0.793633
1.44336 2.30723 2.09675
1.42903 2.34498 3.1669
1.42844 2.38996 4.25437
-0.676334 0.453838 -2.00698
0.000648022 0.161342 -2.11895
-0.753388 0.167199 -1.41542
-0.722572 0.685 2.08486
0 0.367123 2.02038
-0.758722 0.249396 1.38292
0 0.820425 -2.00275
-0.762487 0.911728 -1.26667
0 1.11715 2.07715
-0.73795 1.09345 1.36667
0.693696 0.453838 -2.02399
0.754486 0.167181 -1.4159
0.722573 0.685 2.08486
0.758934 0.249399 1.38282
0.762477 0.911719 -1.26667
0.737953 1.09345 1.36667
-0.767461 0.196891 -0.01625
-0.880001 0.579458 -0.662083
0.000434489 0.19369 -0.716027
-0.881603 0.634658 0.695834
0.000217951 0.204157 0.683237
-0.773927 1.0263 0.0500001
0.00466019 1.19662 -0.608333
2.47507e-05 1.5238 0.708334
0.768108 0.196892 -0.0165401
0.879691 0.584115 -0.662277
0.881606 0.634681 0.695737
0.773911 1.02628 0.0500001
-0.892916 0.516648 -1.34104
-0.880656 0.607058 0.016875
-0.885843 0.659829 1.37479
0.000541255 0.165126 -1.41566
0.00032622 0.198776 -0.016395
0.000108976 0.227074 1.38287
0.000324011 0.453838 -2.11867
0 0.685 2.21196
0.00233009 1.00974 -1.26667
0.00234247 1.48688 0.0500001
1.23754e-05 1.47471 1.36667
0.893133 0.518977 -1.34128
0.880631 0.609398 0.01673
0.885845 0.659841 1.37474
-1.1061 0.161424 -2.11086
-0.737039 -0.0182546 -2.14302
-0.74776 0.105871 -2.65038
-1.08931 0.294472 2.07024
-0.736267 0.100671 2.07976
-0.729491 0.324846 2.62133
-1.03517 0.775565 -1.93722
-0.687247 0.709488 -2.47246
-0.665341 1.33316 -1.85339
-1.03532 1.06915 2.02912
-0.687384 1.09391 2.576
-0.705884 1.68592 2.05805
0.738193 -0.0179586 -2.14354
0.709403 0.106348 -2.65085
1.10301 0.163117 -2.11152
0.727154 0.100722 2.07972
0.713358 0.324918 2.62131
1.0939 0.294597 2.07017
0.655073 0.710117 -2.47255
0.710291 1.3348 -1.85344
1.03632 0.778177 -1.93738
0.6682 1.094 2.57599
0.680123 1.68639 2.05802
1.03788 1.06933 2.02907
-1.13143 0.199117 -0.71866
-0.750802 -0.00114211 -0.738357
-1.14881 0.21258 0.677248
-0.775303 0.00689971 0.6749
-1.13838 0.974492 -0.614395
-0.742206 1.54189 -0.546154
-1.13016 1.05988 0.705503
-0.755491 1.65738 0.750641
0.75761 -0.000948068 -0.738724
1.13342 0.200754 -0.719133
0.775646 0.00697957 0.674707
1.15314 0.212876 0.67699
0.777035 1.54831 -0.546196
1.14883 0.983748 -0.614518
0.74991 1.65839 0.750606
1.1335 1.06072 0.705424
-1.49167 -0.249832 -2.70629
-1.49057 -0.120102 -3.21673
-1.12842 -0.290486 -3.25218
-1.49667 -0.195352 -1.46247
-1.48328 -0.0249827 -2.13492
-1.11422 -0.204661 -2.16708
-1.51011 -0.180539 -0.0528592
-1.50762 0.012882 -0.741651
-1.12699 -0.187377 -0.761348
-1.49701 -0.144938 1.35745
-1.51521 0.0214386 0.663629
-1.14171 -0.184242 0.661282
-1.47398 -0.0835563 2.60539
-1.46635 0.086128 2.05839
-1.1133 -0.107674 2.06791
-1.47138 -0.0296573 3.69222
-1.46098 0.141765 3.15098
-1.10532 -0.0529439 3.15815
-1.47031 0.193195 4.23283
-1.10999 -0.00331095 4.23603
-1.48217 0.104747 -2.64536
-1.46716 0.37854 -3.10703
-1.12383 0.049194 -3.18488
-1.49423 0.183251 -1.4141
-1.45191 0.483151 -2.02808
-1.51273 0.21486 -0.0251622
-1.5091 0.594152 -0.670972
-1.48455 0.252505 1.36457
-1.50726 0.637799 0.686917
-1.45335 0.311449 2.60399
-1.43317 0.678621 2.04561
-1.4599 0.364617 3.69159
-1.44234 0.731964 3.13933
-1.09353 0.341823 3.15508
-1.46303 0.785494 4.22919
-1.10503 0.390788 4.23587
-1.4369 0.756944 -2.48974
-1.44105 1.26384 -2.94559
-1.08898 0.690866 -3.02498
-1.46678 0.894051 -1.28495
-1.42767 1.3745 -1.87113
-1.50363 1.01709 0.0411074
-1.48636 1.54857 -0.555542
-1.45587 1.06392 1.36796
-1.49386 1.64967 0.748234
-1.42216 1.09914 2.58096
-1.44658 1.68924 2.06507
-1.44547 1.15284 3.67694
-1.45337 1.73417 3.14786
-1.07422 1.1239 3.12784
-1.46917 1.78455 4.23986
-1.09978 1.18 4.225
-1.43182 1.8814 -2.32698
-1.06593 1.81292 -2.85612
-1.44725 2.02901 -1.14173
-1.05784 1.93209 -1.7873
-1.47659 2.18115 0.151584
-1.09019 2.11597 -0.4873
-1.48457 2.275 1.44534
-1.11919 2.24717 0.793372
-1.47779 2.32428 2.63197
-1.11715 2.30601 2.094
-1.47707 2.36588 3.71078
-1.11313 2.34305 3.16415
-1.11631 2.3879 4.25242
-0.750968 -0.245315 -2.71297
-0.761689 -0.12119 -3.22033
-0.0284817 -0.288564 -3.25509
-0.744543 -0.196686 -1.46596
0.000506193 -0.201213 -2.17126
-0.75859 -0.191079 -0.0472065
0.00637403 -0.191666 -0.761054
-0.758001 -0.146977 1.37174
0.000124925 -0.190214 0.666371
-0.744647 -0.0770611 2.62067
-0.00911344 -0.103607 2.07698
-0.743927 -0.0265975 3.70196
-0.73787 0.147114 3.16224
-0.0135444 -0.0503615 3.16429
-0.744717 0.194282 4.23907
-0.0179745 -0.00254949 4.23956
-0.745654 0.36152 -3.10283
-0.0390049 0.0472182 -3.18594
-0.73866 0.367994 3.69936
-0.725408 0.733758 3.14359
-0.0161328 0.344764 3.16015
-0.741778 0.785299 4.23168
-0.0206267 0.391457 4.23852
-0.713864 1.23994 -2.93551
-0.032174 0.676929 -3.02
-0.728526 1.15106 3.67591
-0.733988 1.73278 3.14413
-0.0191838 1.12291 3.12699
-0.746909 1.78336 4.23756
-0.0245951 1.17949 4.22478
-0.691959 1.86361 -2.31644
0.0272637 1.80494 -2.85117
-0.700782 2.01904 -1.13287
0.0449497 1.92528 -1.78182
-0.732789 2.18199 0.154487
0.0301686 2.11621 -0.484016
-0.751766 2.27818 1.44203
-0.00560618 2.25052 0.792913
-0.752488 2.32479 2.62619
-0.025761 2.30731 2.09107
-0.752371 2.36507 3.70579
-0.0281434 2.3431 3.16123
-0.0286738 2.38778 4.25028
0.722993 -0.244462 -2.71339
0.694203 -0.120156 -3.2207
1.07537 -0.288476 -3.2527
0.751423 -0.196193 -1.46636
1.11197 -0.203012 -2.16768
0.765089 -0.190801 -0.047477
1.13787 -0.186112 -0.761817
0.749012 -0.146844 1.37161
1.14539 -0.183771 0.661006
0.721989 -0.0769073 2.6206
1.10336 -0.107409 2.06779
0.712408 -0.0263135 3.70189
0.708193 0.147289 3.16219
1.08397 -0.0525562 3.15804
0.706116 0.194626 4.239
1.07788 -0.0027125 4.23591
0.674475 0.362627 -3.1031
1.05529 0.0511591 -3.18538
0.7019 0.368228 3.69931
0.690091 0.733919 3.14355
1.06955 0.342122 3.155
0.696556 0.785646 4.23162
1.06849 0.391336 4.23576
0.708954 1.24193 -2.93567
1.03516 0.693375 -3.02527
0.684747 1.15134 3.67586
0.686661 1.73324 3.14409
1.04382 1.12427 3.12777
0.69364 1.78391 4.23749
1.0554 1.18062 4.2249
0.764172 1.8666 -2.31656
1.11742 1.81698 -2.85633
0.7759 2.02244 -1.13297
1.14055 1.93687 -1.78748
0.757352 2.18474 0.15441
1.14704 2.12093 -0.487441
0.720399 2.27964 1.44196
1.11249 2.25009 0.793256
0.698584 2.32563 2.62612
1.07284 2.30751 2.09389
0.695554 2.36581 3.70572
1.06194 2.34423 3.16405
1.06235 2.38906 4.2523
1.46435 -0.247026 -2.70699
1.43646 -0.11716 -3.21738
1.49841 -0.192931 -1.46314
1.47679 -0.0219371 -2.13566
1.51817 -0.179082 -0.0533332
1.51368 0.0155898 -0.742225
1.49973 -0.144336 1.35718
1.52289 0.0221248 0.663288
1.46534 -0.0830581 2.60522
1.4701 0.0864658 2.05823
1.44944 -0.0289553 3.69206
1.44533 0.142277 3.15084
1.44026 0.193997 4.23267
1.4489 0.107928 -2.64605
1.41597 0.381907 -3.10755
1.49205 0.186584 -1.41475
1.44934 0.487456 -2.0286
1.51839 0.216797 -0.0256036
1.51645 0.600387 -0.671374
1.49326 0.252927 1.36434
1.51469 0.638912 0.686677
1.4501 0.311801 2.60386
1.44031 0.678928 2.0455
1.43615 0.36523 3.69145
1.42328 0.732469 3.13922
1.42734 0.786312 4.22905
1.41641 0.761435 -2.4901
1.44363 1.26843 -2.94593
1.47373 0.901259 -1.28523
1.46658 1.38025 -1.87141
1.51274 1.0225 0.0409066
[...]
POINT_DATA 29498
VECTORS point_vectors float
-5.13172 -7.49786 10.4104
0.232268 0.417868 1.36368
-1.45709 1.15491 2.47557
-0.115914 -0.134043 0.0550156
5.4131 -7.90816 10.8278
-0.206791 0.445411 1.59916
1.46168 1.15553 2.47763
0.128819 -0.120671 0.0313171
0 0 0
0.000270761 0.00223117 0.136676
0 0 0
0 0 0
0 0 0
-0.000694818 0.00208545 0.136004
0 0 0
0 0 0
-0.524166 -0.321157 19.8716
-1.23988 -0.910469 20.4674
-0.333806 -0.610383 21.5452
0.249962 -0.257301 21.665
0.843774 0.0551957 21.6039
1.13942 0.18011 21.3096
1.12317 0.0315972 20.6676
-0.708202 -0.280854 19.7552
-1.8868 -0.841193 20.3535
-0.633178 -0.816495 21.6439
0.127964 -0.519768 21.8099
1.00758 -0.2629 21.6622
1.33628 -0.198787 21.2801
1.20841 -0.0712928 21.1836
-0.943419 0.0564805 19.5524
-2.50258 0.242006 20.3075
-1.48518 -0.419007 21.5417
-0.484634 -0.533977 21.8858
0.427901 -0.79696 21.7202
0.746884 -0.877821 21.5225
0.710575 -0.656808 20.9779
-0.627891 0.460266 19.9167
-0.98764 0.734288 20.402
-0.921515 0.502642 21.1568
-0.414712 0.0171953 21.5614
0.00144524 -0.284403 21.4619
0.134536 -0.42673 21.197
0.148485 -0.458905 20.7508
-0.506476 -0.635846 19.4467
-1.6922 -3.15392 20.5039
0.112527 -0.0379854 21.9681
0.424631 0.355153 21.6239
0.925705 1.36945 20.9186
1.30769 1.70776 20.2539
1.12102 1.25478 19.7668
-0.705509 -0.562454 19.0652
1.81483 1.59945 11.2448
2.14179 1.30685 14.4148
-1.06803 0.175074 18.3857
0.169793 -0.87245 7.08377
1.43563 -1.63673 12.5863
-0.50548 0.863057 19.5347
-0.904806 1.6113 20.1478
-1.08326 1.57677 21.1778
-0.503507 0.41074 21.8935
-0.162359 -0.240735 21.6427
-0.0369565 -0.444711 21.0112
0.00504167 -0.453572 21.2719
0.474064 -0.655263 19.4111
1.69428 -3.16273 20.5138
-0.127408 -0.0350884 21.9268
-0.429245 0.356698 21.6152
-0.915504 1.36157 20.8708
-1.26903 1.68723 20.1674
-1.08351 1.36825 19.7287
0.652931 -0.614566 18.9595
-1.74305 1.49728 10.368
-2.18375 1.51812 13.5204
0.997956 0.187287 18.2708
0.0974998 -0.656817 5.0488
-1.32861 -1.48003 10.4364
0.531149 0.842484 19.5617
0.958411 1.50923 20.1701
1.11596 1.4714 21.1768
0.491021 0.424807 21.8897
0.141004 -0.202895 21.6323
0.0230855 -0.416255 21.0043
0.0171011 -0.42609 21.2631
0.531298 -0.332087 19.8388
1.2497 -0.920778 20.469
0.352814 -0.610241 21.5363
-0.241324 -0.266399 21.6439
-0.832195 0.0402048 21.5989
-1.14823 0.173307 21.2972
-1.1395 0.0602099 20.7141
0.714742 -0.288357 19.7022
1.91833 -0.858345 20.3488
0.634716 -0.816487 21.6407
-0.123338 -0.519544 21.7902
-0.97329 -0.292656 21.6622
-1.33069 -0.213785 21.2865
-1.21303 -0.0386615 21.2585
0.963465 0.0739677 19.5139
2.48531 0.247957 20.3134
1.46708 -0.39181 21.5298
0.482265 -0.527249 21.8746
-0.382595 -0.782813 21.6945
-0.720232 -0.9059 21.5249
-0.794936 -0.750668 20.7257
0.620051 0.427829 19.9457
0.940698 0.655602 20.4282
0.895986 0.462541 21.1486
0.416499 0.0246056 21.559
0.0316112 -0.266564 21.4651
-0.126777 -0.41083 21.1263
-0.0757615 -0.411536 21.0338
0 0 0
-0.00113001 -0.0557456 0.331539
0.00214724 0.00857599 0.30619
-0.0196356 -0.0629307 0.0245754
-0.000524312 0.0022826 0.00904092
0.0282105 0.0114396 0.344549
-7.22597e-06 0.427096 0.653038
-0.0917977 -0.0141681 0.243803
-0.00154102 0.00267321 -0.00445282
0 0 0
4.42976 0.825403 2.37065
-0.00262546 0.00843595 0.299762
0.0225895 -0.0754804 0.0260301
-0.0303991 0.0112099 0.340548
0.0899878 -0.0141146 0.238418
0 0 0
0.000133769 0.000194402 0.0156242
0.00413806 -0.00288187 0.0424631
0 0 0
0 0 0
-4.1786e-06 5.9182e-06 0.000473936
0 0 0
-3.15021e-05 0.0245903 0.0468506
-2.03085e-05 -2.55407e-05 0.00241375
-0.000266462 0.000282732 0.0239659
-0.00404141 -0.00254538 0.0413552
0 0 0
0 0 0
-5.64839e-05 -0.000116598 0.00120309
0 0 0
3.53327e-05 0.000435179 0.00499593
4.69208e-09 1.06687e-07 -3.27762e-07
-2.15961e-07 1.45652e-07 1.28371e-05
0 0 0
0 0 0
0 0 0
-3.53848e-05 -0.0047188 0.0447954
-2.27517e-05 0.0107382 0.0530238
-0.000285308 -0.00120547 0.0112139
0.000478268 -0.000949224 0.0101174
0 0 0
-3.62412e-05 0.000435242 0.00520449
-3.57296 -2.16135 19.9285
-2.73499 -5.03139 20.5156
-1.82404 -1.61745 18.0323
1.44827 0.349547 17.3552
0.902445 1.53042 15.463
1.13985 0.987835 7.9214
-5.01394 1.42054 19.8301
-3.15281 1.37936 16.2752
-2.13241 3.04683 19.7924
0.692473 -0.717331 17.347
-0.555967 -0.987858 2.86845
-0.20143 -0.524943 19.7724
2.73584 -5.05713 20.5042
1.81508 -1.69169 17.8872
3.63983 -2.19067 19.9112
-0.918529 1.47796 15.2485
-1.1296 0.824033 7.3184
-1.4232 0.277006 17.3904
3.09736 1.48118 16.049
2.1974 2.83062 19.8304
4.99169 1.41852 19.845
0.789324 -1.12555 1.38548
0.177278 -0.425082 19.3426
-0.616415 -0.706723 17.337
-0.192146 -1.19456 19.7945
0.491087 0.469127 18.3573
0.304841 -0.374445 18.7704
0.449485 0.45257 17.8164
-2.53877 -1.08799 21.4776
-3.14733 2.47295 21.0117
-0.643135 -0.779216 20.4866
-1.20812 0.271007 22.2296
-0.485334 0.470784 18.4148
0.191487 -1.20059 19.7656
-0.460597 0.450464 17.7851
-0.310319 -0.400019 18.8633
3.07011 2.29098 21.0775
2.52316 -0.999413 21.5831
1.1954 0.292388 22.2021
0.647028 -0.779144 20.5203
-0.901756 -0.587419 19.9997
-0.620093 -0.306248 19.8164
-0.545906 -0.4622 19.67
-0.854919 -0.860248 21.2848
-1.51836 -0.902269 20.4265
-1.60005 -1.73306 20.442
-0.000435452 -0.418821 21.6117
-0.495662 -0.753386 21.5863
0.0595346 -0.658614 21.793
0.526039 -0.104548 21.7272
0.192164 -0.416382 21.6999
0.512783 -0.162024 21.8067
1.00804 0.147111 21.5017
0.943206 -0.091772 21.6495
1.18314 0.534424 21.4601
1.08339 0.157325 21.2004
1.26485 -0.00511194 21.3383
1.56626 0.716961 21.0159
1.22356 -0.07202 20.848
1.21237 0.474132 21.2192
-1.24549 -0.511162 19.8114
-0.839222 -0.165641 19.6159
-0.771976 -0.447595 19.4312
-1.38618 -0.958094 21.4354
-2.48015 -0.415198 20.3046
-0.22543 -0.675178 21.6864
-1.0995 -0.737935 21.6251
0.509137 -0.400496 21.8698
-0.164774 -0.616604 21.8979
1.2338 -0.213495 21.5116
0.837871 -0.619939 21.6672
1.49771 -0.309166 20.9918
1.21913 -0.586683 21.441
1.96058 0.258008 18.3406
1.06844 -0.599817 20.8716
1.72158 0.0115676 18.9907
-1.76603 0.182372 19.5973
-0.8367 0.369121 19.6874
-1.07417 0.0880452 19.093
-2.05461 -0.122489 21.2572
-1.65835 0.780888 20.3359
-0.993758 -0.530786 21.8165
-1.43504 0.291605 21.3206
-0.0054374 -0.612988 21.9042
-0.598391 -0.161453 21.7762
0.627939 -0.86897 21.5577
0.0328673 -0.516894 21.6016
0.948805 -0.848895 21.3557
0.306783 -0.649711 21.2378
0.997375 -0.924091 19.3065
0.313471 -0.683878 21.0322
1.54403 -1.41303 18.882
-0.83795 0.646385 20.0981
-0.604521 0.661588 19.7284
-1.01321 0.664803 20.8121
-1.03511 1.11595 20.303
-0.718843 0.292042 21.4544
-1.12498 0.955926 21.1918
-0.192786 -0.168816 21.5451
-0.509235 0.188767 21.7254
0.0476114 -0.344754 21.385
-0.107463 -0.285432 21.5484
0.121074 -0.407183 21.1833
0.0580244 -0.45494 21.2831
0.0881987 -0.498406 21.2061
-1.04763 -1.50882 19.2607
-0.621919 -0.616437 19.2333
-0.0239866 -0.795117 19.1758
-0.513814 -1.08921 22.469
-0.00218715 -5.10905 20.6576
0.309725 0.168178 21.6717
-0.000505514 -0.237759 19.9333
0.641291 0.819143 21.3817
-0.00619537 0.192254 18.7471
1.10558 1.57962 20.6091
-0.0118583 1.2219 17.1149
1.42314 1.74766 20.3455
1.62393 1.99589 16.9121
0.00284398 1.82487 17.2458
1.66285 1.44711 17.1928
0.0166886 2.70541 18.0683
-0.94819 -0.301397 18.6286
-0.0470125 -0.846973 18.5695
2.09837 1.32817 12.9049
1.56265 -0.473453 6.08401
-0.0170837 1.16146 5.99161
2.29558 0.100235 13.1923
0.112429 2.57693 11.003
-0.843776 0.86504 18.9047
-0.0730157 0.310626 17.5434
0.807996 -1.14507 9.2225
-0.081039 -0.967321 20.1077
0.149152 1.59226 -4.09689
-0.0194702 -1.06797 17.8979
0.207505 2.53061 -1.63179
-0.737351 1.3181 19.7446
0.024956 1.05872 19.3498
-1.00131 1.63607 20.5999
0.07549 2.07922 20.0071
-0.870117 1.08724 21.7781
0.0497592 2.39601 21.0697
-0.271338 -0.0165987 21.7842
-0.0120953 0.728136 22.0791
-0.0963408 -0.366353 21.5809
-0.0243691 -0.112599 21.5438
0.00312532 -0.547092 20.5134
-0.00774785 -0.368296 21.5176
-0.0322771 -0.436319 21.1926
1.03306 -1.54197 19.2075
0.5763 -0.657568 19.1467
0.541844 -0.485705 19.6373
0.512112 -1.08173 22.4622
1.61696 -1.75293 20.4396
-0.317559 0.16361 21.6708
-0.0452215 -0.670872 21.7834
-0.641113 0.820929 21.3675
-0.514657 -0.169454 21.7929
-1.08924 1.56907 20.5704
-1.18444 0.530122 21.4158
-1.43157 1.81962 20.2555
-1.58447 1.9511 16.7328
-1.5885 0.756918 21.01
-1.61618 1.56757 17.0846
-1.26602 0.494474 21.2328
0.863021 -0.297859 18.4995
0.784745 -0.484529 19.3695
-2.07604 1.39699 12.0145
-1.38434 -0.558479 5.07442
-1.94493 0.308264 17.9656
-2.22536 0.141772 11.4612
-1.79114 0.0982714 18.5282
0.835731 0.868157 18.8988
1.0774 0.100545 19.0008
-0.53643 -1.04547 6.7741
0.116652 -0.851626 19.1735
-0.917744 -0.938639 18.6473
0.00997952 -1.0194 17.7093
-1.50133 -1.52871 18.3744
0.784084 1.27552 19.7561
0.614751 0.631153 19.7595
1.04745 1.52133 20.6303
1.02666 0.99778 20.335
0.867337 1.05035 21.7598
1.09072 0.8753 21.1832
0.255464 0.0026426 21.7763
0.506288 0.19786 21.7193
0.0717639 -0.320969 21.5724
0.108587 -0.260833 21.5317
-0.00704491 -0.462011 20.658
-0.0671671 -0.448974 21.2505
-0.107285 -0.480312 21.2698
0.916209 -0.605832 19.9697
0.634104 -0.317841 19.7791
0.867663 -0.858869 21.2855
1.54425 -0.916205 20.4261
0.0155548 -0.430091 21.6032
0.500365 -0.756514 21.5805
-0.519678 -0.118981 21.7112
-0.18902 -0.420279 21.669
-0.995518 0.133193 21.5115
-0.922088 -0.116953 21.6418
-1.12124 0.15593 21.1712
-1.26165 -0.0169622 21.3484
-1.24145 -0.0366966 20.9142
1.28931 -0.539325 19.7586
0.866486 -0.188657 19.5693
1.38925 -0.964205 21.4398
2.50393 -0.402995 20.3122
0.22406 -0.670684 21.679
1.09908 -0.726032 21.6207
-0.500869 -0.408605 21.8638
0.169691 -0.611846 21.8846
-1.20858 -0.244226 21.5063
-0.789654 -0.631041 21.6592
-1.56818 -0.303597 20.9711
-1.20373 -0.626825 21.4399
-1.15063 -0.682768 20.6551
1.79509 0.204411 19.5659
0.831923 0.36896 19.6931
2.03214 -0.114988 21.2474
1.58877 0.719317 20.35
0.991029 -0.519244 21.7982
1.37269 0.268933 21.3093
0.0260655 -0.60522 21.8762
0.597141 -0.158947 21.7721
-0.569821 -0.871921 21.556
-0.0179659 -0.503024 21.5982
-0.906836 -0.855466 21.4339
-0.246685 -0.64514 21.2555
-0.253256 -0.653874 21.2852
0.807146 0.596887 20.1313
0.984403 0.603793 20.8252
0.703158 0.268076 21.4444
0.189824 -0.154295 21.5384
-0.0301183 -0.327924 21.3813
-0.0510872 -0.364984 21.4681
-1.0762 -0.583079 19.9179
-1.41587 -1.67609 18.7206
-1.05734 -0.955913 19.6821
-1.67088 -0.96783 19.1728
-0.679805 -0.463225 19.5241
-2.3537 -2.09208 20.2814
-1.10886 -0.92677 21.3572
-0.00516031 -0.266971 20.7713
-0.684798 -1.28496 21.7605
-1.63988 -2.32883 22.2315
0.166005 -1.01427 21.7058
-0.108708 -0.589656 21.6438
0.499326 0.392605 17.7883
0.335501 -0.393012 21.7464
0.0648836 -0.77485 18.9493
0.562999 -0.338088 21.1073
0.524766 -0.267071 21.7872
0.577348 0.866806 16.0243
0.82839 0.140656 21.7772
0.699859 -0.071181 17.8562
1.41496 0.507101 20.1633
1.16699 -0.0122707 21.4597
1.20376 1.72275 16.3484
1.38569 0.710036 21.1098
1.73222 0.297785 18.3946
1.76128 0.539554 20.3028
1.35267 -0.0521502 21.0322
1.778 1.59014 16.2068
1.63353 0.87251 20.9095
2.19376 0.242389 18.7654
1.40556 0.33926 20.3534
-1.58722 -0.286063 19.646
-2.83703 -0.707259 16.4766
-2.56252 0.524869 18.595
-0.974474 -0.216092 19.1895
-5.68009 -0.541311 19.5929
-1.89379 -0.609215 21.441
-3.43493 -0.150602 21.7751
-0.976832 -1.408 20.5283
-0.611304 -0.714327 21.7882
-1.60789 -1.0958 21.1389
0.0624647 -0.563507 18.6678
0.287769 -0.583206 21.9001
0.130903 -0.489236 19.0387
1.23124 -0.153226 15.2487
1.09242 -0.644025 21.4913
0.276645 -0.992571 2.73428
0.716457 -0.955935 18.6575
1.63297 -0.410339 17.8816
1.23234 -0.65442 21.2662
2.25162 0.429633 8.88509
1.19545 -1.20755 19.2764
1.94191 -0.98908 18.4279
-1.30657 0.641759 19.8454
-1.58813 2.01822 18.7512
-0.846665 0.959974 19.931
-0.898862 0.572035 19.3474
-2.13073 1.65621 20.0987
-1.61251 0.545302 20.9087
-2.28303 2.33063 20.4974
-1.11803 1.07417 20.7337
-2.26181 0.858956 21.3662
-1.07429 0.0546756 21.6822
-2.76662 1.40876 22.6256
-0.876703 0.608682 21.6275
-0.882019 -0.0579845 22.0918
-0.211488 -0.348829 21.7399
-0.41903 -0.32757 21.2263
-0.256076 -0.112163 21.6716
-0.12053 -0.629611 21.7027
0.187989 -0.589705 21.4924
-0.163796 -0.685098 20.0536
-0.013645 -0.384937 21.3002
0.182388 -0.909145 21.2245
0.499284 -0.611315 20.9926
0.188572 -0.996628 17.5555
0.0273823 -0.483388 21.4941
0.0402472 -0.656394 21.8264
1.3993 -1.73728 18.6584
-0.0314372 -2.302 18.6874
-0.0718316 -2.67177 16.3366
-0.0302051 -0.846682 18.8342
-0.000328375 -8.64542 21.3382
0.0241108 -0.262946 20.7984
0.00202165 -1.66956 23.229
-0.00427016 0.149375 8.17408
-0.501761 0.390946 17.7896
-0.00544286 0.0352199 19.0683
-0.0081729 0.148267 9.88482
-0.597959 0.85674 15.9498
-0.0104487 0.616691 17.6588
-0.0320517 0.96622 8.32685
-1.17912 1.67557 16.0754
-0.0153317 1.50223 17.2756
-0.0987358 0.222234 3.02732
-0.0375873 1.77098 11.9857
-1.7621 1.63654 16.0222
0.00560764 2.45186 18.1603
0.0678949 1.83951 6.74085
0.0869665 2.65122 15.1175
2.81695 -0.727811 16.2426
-0.105833 2.68191 13.5442
-0.0409277 -0.390838 17.9182
-0.1693 -1.17821 2.25927
0.0747135 0.182513 -3.42419
0.330252 0.424527 -1.07328
-2.01347 0.483838 7.55925
0.125752 2.33099 -3.59915
0.276622 3.29427 0.691914
1.58876 1.96794 18.8066
0.0503262 1.72524 19.5475
-0.00620189 1.21642 18.4177
0.0732107 4.20513 19.5259
2.29533 2.19916 20.5358
0.0752074 2.17746 20.4275
0.0829707 5.07171 20.0414
2.6956 1.31857 22.5994
0.0159779 1.77361 21.9623
-0.0164787 1.14393 21.5983
0.373315 -0.284127 20.9636
-0.0212677 0.145309 21.889
-0.0988832 0.0371002 13.5399
0.172396 -0.565206 19.6737
-0.0307354 -0.220975 21.5617
-0.158893 -0.304199 14.5992
-0.164033 -0.903738 17.1186
-0.0147305 -0.518297 21.0103
-0.0451882 -0.449422 15.0182
1.10702 -0.608945 19.8773
1.06593 -1.00695 19.6594
1.70637 -1.02175 19.0559
0.680864 -0.494151 19.4826
2.38672 -2.12528 20.2705
1.11102 -0.938287 21.3591
0.690892 -1.28286 21.7555
1.63244 -2.31852 22.1903
-0.15257 -1.02504 21.7069
0.11464 -0.59787 21.6324
-0.3285 -0.404152 21.738
-0.0660491 -0.78859 18.9943
-0.563287 -0.352975 21.1131
-0.514703 -0.280174 21.7699
-0.834613 0.133494 21.7492
-0.702 -0.107321 17.9635
-1.40478 0.477643 20.0689
-1.15216 -0.0391682 21.4573
-1.38436 0.697962 21.0733
-1.69436 0.265599 18.1294
-1.75742 0.598429 19.9862
-1.42903 -0.0506783 20.9924
-1.64339 0.9065 20.9437
-2.14853 0.251988 18.6127
-1.46466 0.406081 19.9794
1.64548 -0.283925 19.5972
2.64465 0.583322 18.4751
0.974896 -0.222063 19.1123
5.65007 -0.500623 19.5965
1.89067 -0.598672 21.4386
3.40793 -0.125865 21.7479
1.01156 -1.42178 20.7083
0.610817 -0.709912 21.7769
1.61979 -1.08343 21.3141
-0.0530166 -0.583413 18.7634
-0.26935 -0.585189 21.8864
-0.111241 -0.503565 19.0971
-1.1714 -0.210756 15.2517
-1.04809 -0.67295 21.4816
-0.613701 -0.916214 18.2222
-1.60952 -0.466996 16.9706
-1.26019 -0.644345 21.2942
-1.15859 -1.2654 18.4077
-1.98534 -0.945976 17.9587
1.2798 0.617334 19.8671
0.857787 0.884018 19.9718
0.896053 0.575102 19.3428
2.09883 1.54046 20.1334
1.54925 0.506871 20.9059
1.10242 0.990399 20.7433
2.15168 0.793695 21.3568
1.05278 0.0453525 21.6623
0.864306 0.582655 21.6063
0.88017 -0.0474134 22.0797
0.220916 -0.337504 21.7243
0.256226 -0.095337 21.6788
0.155251 -0.595396 21.6898
-0.155966 -0.583746 21.4921
0.0228573 -0.359232 21.2921
-0.1261 -0.86685 21.3179
-0.537265 -0.581869 20.7749
-0.021516 -0.484277 21.5166
-0.0181446 -0.698856 21.414
-1.36147 -1.01645 19.4295
-0.830746 -1.7579 22.0469
0.395391 -0.66213 21.223
0.906882 0.0492423 20.5098
1.68153 0.600236 20.083
1.95861 0.62162 20.1424
-2.37301 -0.40447 18.6408
-2.84635 -1.24939 22.402
-0.391906 -1.1047 19.2963
0.434612 -0.120737 17.2743
1.43512 -0.476147 16.8127
1.79834 -0.442992 18.5494
-1.57755 1.18062 19.408
-2.13293 1.18348 20.8247
-1.7133 0.344469 22.0337
-0.356339 -0.38726 21.9468
0.0143896 -0.754818 21.5331
0.486808 -1.01499 21.0686
-0.0411347 -2.66475 17.6558
0.00475535 -0.335535 11.3378
-0.00735021 0.123146 8.78645
-0.0129358 0.454768 9.36252
-0.0355886 1.17678 10.04
0.0531523 2.13218 12.8189
-0.0734049 -0.982911 13.5793
0.0733732 -0.257565 0.348987
0.336015 2.25912 0.654397
0.0219693 3.05212 18.1474
0.0757416 3.56847 19.9721
0.0263007 4.01728 22.6673
-0.0324482 0.0315471 18.4477
-0.162547 -0.0509682 14.2188
-0.0879944 -0.806701 14.247
1.39791 -1.08519 19.3692
0.832772 -1.75624 22.0469
-0.389037 -0.674873 21.2288
-0.909288 0.0308862 20.4731
-1.66118 0.585929 19.8681
-1.9395 0.622803 20.0189
2.41768 -0.41694 18.5065
2.82849 -1.25755 22.3704
0.405835 -1.1156 19.4193
-0.422665 -0.153919 17.3586
-1.33728 -0.48571 16.2336
-1.84348 -0.377373 17.6972
1.56209 1.14017 19.4349
2.07426 1.09918 20.8347
1.66505 0.334855 22.0023
0.365344 -0.369525 21.9353
0.033489 -0.711499 21.5308
-0.361109 -1.02509 21.5328
-0.319366 -0.00248026 0.119134
-0.0561558 -0.123909 0.614445
-0.0230929 0.00824188 0.409777
0.00558866 -0.0254056 0.0203184
-0.00178399 0.00389006 0.00927072
0.0221607 0.0268202 0.362706
-1.19207 0.528948 1.66331
-0.0982036 0.626523 0.878632
-0.174012 0.0556693 0.517298
-0.0205791 -0.0468946 -0.00763892
-0.00748335 0.00190543 -0.00392637
0 0 0
0.0560394 -0.123402 0.616826
0.414854 -0.00843004 0.148699
0.0279449 0.0104012 0.422006
0.00011945 0.00358476 0.00875193
-0.00805587 -0.0308006 0.0215503
-0.0240197 0.0260053 0.355502
0.0958072 0.621312 0.867076
1.18241 0.515145 1.64772
0.174389 0.0547908 0.512484
0.00627386 0.00363691 -0.00693863
0.0243596 -0.0553337 -0.00992083
0 0 0
0.0190961 0.00402881 0.374058
0.0031348 0.0011484 0.0688231
0 0 0
0 0 0
0.0467193 0.0800199 0.981521
0.000536549 0.000835739 0.0879572
0 0 0
0.000326233 0.00012182 0.00651118
-0.0829247 -0.033829 0.160115
0 0 0
0 0 0
-0.0232825 0.016672 0.0450847
0 0 0
0.00043394 0.00237531 0.010599
0 0 0
0.0075818 0.00313456 0.0932721
-0.0196886 0.00398373 0.370973
0 0 0
-0.00310864 0.00107097 0.0645583
0 0 0
-0.0505123 0.0799704 0.991498
-0.000342993 0.000121352 0.00649772
-0.000698283 0.000906331 0.0931677
0 0 0
0.083908 -0.0345276 0.161964
0.0326616 0.0234756 0.0634074
0 0 0
0 0 0
7.43015e-18 -1.10975e-17 -5.22977e-17
-0.00799217 0.00328928 0.0942563
-0.000446501 0.00244824 0.010933
0 0 0
0 0 0
0 0 0
1.12554e-08 -2.38601e-07 -3.1559e-06
0 0 0
0 0 0
6.01022e-06 3.78697e-07 1.37823e-05
0.0193606 0.00461628 0.134618
-0.00338734 -0.00628511 0.00284252
-0.000356394 0.00534308 0.0564673
-3.19287e-05 -0.000358202 -1.20003e-05
0.000588488 0.00250294 0.0425782
0 0 0
-6.19431e-06 0.00211829 0.00149131
-2.89446e-05 0.0231859 0.0971316
-0.0272969 -0.0418873 0.273504
-0.00152195 0.00101439 0.00742432
0 0 0
0 0 0
0.0191927 0.0420771 0.346155
0.000353182 -0.00128863 0.00924666
0 0 0
0 0 0
-8.32254e-06 5.35613e-07 1.91615e-05
0 0 0
0.00215691 -0.00807842 0.00385502
-0.0192892 0.00341687 0.136484
0 0 0
-0.000662152 0.0025073 0.0465605
0.0013868 0.000931977 0.00681895
0.027045 -0.0410533 0.26997
-0.000594434 -0.00117951 0.00865191
-0.0191082 0.0425476 0.354462
0 0 0
0.000315779 3.74119e-05 0.00291612
-9.18976e-06 -0.000239621 0.00442267
0 0 0
1.08686e-09 -6.54582e-07 -1.58563e-05
2.48256e-07 -1.59435e-07 -9.95377e-06
1.9436e-05 0.000933186 0.00785729
9.41476e-05 0.00157496 0.0129535
2.05957e-09 -1.70223e-09 -1.77974e-07
-1.89236e-05 6.28535e-05 0.00316048
0.00013936 0.00310503 0.0130586
-0.0419102 0.0308976 0.244948
0 0 0
-1.42705e-05 0.0355611 0.0794344
9.23151e-06 0.00136034 0.0183861
3.04194e-07 2.63433e-06 -4.2566e-05
-0.00046818 5.44719e-05 0.00424211
0 0 0
8.84166e-06 -0.000176216 0.00344655
0 0 0
-2.01237e-05 0.000987795 0.00832439
-9.28134e-05 0.00155277 0.0129676
0.0417291 0.0311603 0.246337
-0.000140557 0.0031334 0.0132065
0 0 0
-0.206119 -0.0711126 0.599441
0 0 0
-0.00121199 -0.0110564 0.0759681
-1.15349e-20 -2.5163e-18 -3.41593e-17
1.15251e-05 0.00112423 0.00919522
3.40651e-05 0.0029089 0.0351989
0.00124334 0.00728286 0.0335952
0 0 0
0 0 0
0.020303 0.0169793 0.254254
0.0364327 -0.0130385 0.228051
4.69951e-06 -4.05382e-07 1.63308e-05
-1.49517e-06 -1.325e-07 5.41322e-06
6.69902e-06 5.2206e-07 2.76802e-05
2.49405e-06 -1.95708e-07 -1.02962e-05
0.000658962 7.80216e-05 0.0042786
-0.000450303 5.27859e-05 0.00288216
0.000626963 0.00010079 0.00845644
-0.000703872 0.000109772 0.0092193
6.13656e-05 9.22064e-05 0.0041156