# vtk DataFile Version 2.0
tri_press
ASCII
DATASET UNSTRUCTURED_GRID
POINTS 3682 float
-0.780373 0.235 -2.165
-0.716078 0.365 2.285
-0.747746 0.765 -2.075
-0.705 0.985 2.26274
0.775 0.235 -2.17035
0.716079 0.365 2.285
0.74773 0.765 -2.075
0.705 0.985 2.26337
-0.828476 0.208799 -0.681667
-0.845369 0.213807 0.801667
-0.829018 0.933854 -0.629087
-0.807647 1.00006 0.816827
0.824906 0.208787 -0.685234
0.843888 0.213498 0.799884
0.829034 0.933881 -0.628877
0.807659 1.00008 0.817247
-1.59762 -0.164851 -3.36078
-1.5986 -0.116969 -2.18881
-1.63229 -0.13315 -0.704403
-1.63353 -0.131223 0.787453
-1.55646 -0.029424 2.27249
-1.53133 0.0378456 3.44756
-1.53585 0.0848249 4.61695
-1.59195 0.154559 -3.32829
-1.59235 0.223876 -2.16056
-1.63828 0.226904 -0.683677
-1.62959 0.226185 0.796437
-1.51557 0.319175 2.27407
-1.50287 0.384154 3.44871
-1.52011 0.431348 4.61944
-1.57729 0.754684 -3.25354
-1.57168 0.822408 -2.08504
-1.63151 0.939185 -0.633801
-1.6046 0.981169 0.814725
-1.50079 0.991717 2.26682
-1.49418 1.0542 3.44321
-1.51425 1.11336 4.62018
-1.57682 1.7594 -3.16936
-1.57871 1.84129 -2.00612
-1.5999 1.96789 -0.567151
-1.6037 2.05344 0.863743
-1.57896 2.08924 2.30336
-1.56037 2.12093 3.46796
-1.55314 2.16485 4.64062
-0.800573 -0.15929 -3.3644
-0.787683 -0.108355 -2.19355
-0.816111 -0.142081 -0.704853
-0.837702 -0.139326 0.791712
-0.783256 -0.00509359 2.28059
-0.762313 0.0552757 3.453
-0.764996 0.0940377 4.61998
-0.800142 0.153566 -3.32999
-0.73669 0.401989 3.45323
-0.752255 0.439928 4.62171
-0.787217 0.73129 -3.24949
-0.730687 1.05641 3.44235
-0.748017 1.1161 4.61984
-0.777748 1.74417 -3.16528
-0.774066 1.82729 -2.00149
-0.794743 1.96615 -0.564431
-0.810872 2.05861 0.863117
-0.801335 2.09053 2.30052
-0.786565 2.12017 3.46513
-0.778359 2.16431 4.63848
0.778962 -0.159297 -3.36781
0.798913 -0.108362 -2.19782
0.826819 -0.142125 -0.708037
0.812479 -0.139536 0.789971
0.730585 -0.00517378 2.28004
0.745571 0.055214 3.45258
0.762326 0.0939719 4.61947
0.76442 0.153563 -3.33328
0.743694 0.401948 3.45305
0.763149 0.43987 4.62133
0.759771 0.731289 -3.25109
0.740815 1.05638 3.44244
0.763174 1.11605 4.6196
0.807937 1.74417 -3.16642
0.819653 1.82729 -2.00233
0.815322 1.96615 -0.564999
0.783557 2.0586 0.862773
0.754894 2.0905 2.3003
0.755922 2.12013 3.46486
0.766098 2.16426 4.63809
1.57643 -0.164871 -3.36681
1.59768 -0.116992 -2.19555
1.63551 -0.133242 -0.709695
1.62281 -0.131515 0.784338
1.5349 -0.0296244 2.27104
1.52295 0.0376993 3.44647
1.53613 0.0846864 4.6158
1.56203 0.154548 -3.33403
1.58142 0.223871 -2.16721
1.63475 0.226853 -0.688669
1.63359 0.225885 0.793725
1.52441 0.319003 2.27314
1.51413 0.384032 3.44801
1.53261 0.431222 4.61853
1.55562 0.754679 -3.25709
1.56738 0.822414 -2.08781
1.63139 0.939194 -0.635709
1.61011 0.98108 0.81389
1.51174 0.99161 2.26674
1.50894 1.0541 3.44296
1.531 1.11325 4.61952
1.60174 1.75939 -3.17178
1.61451 1.84128 -2.00804
1.61713 1.96787 -0.568545
1.58574 2.05339 0.862815
1.5465 2.08916 2.3027
1.53826 2.12084 3.46726
1.54504 2.16476 4.63975
-0.819439 0.5 -2.17538
-0.0026865 0.226732 -2.17594
-0.821431 0.204893 -1.42333
-0.759073 0.675 2.3224
5.06639e-07 0.342911 2.30709
-0.820404 0.249723 1.54333
-7.98702e-06 0.853743 -2.16374
-0.821436 0.882481 -1.35204
0 1.02804 2.30609
-0.783448 1.01966 1.53978
0.817189 0.5 -2.1785
0.816015 0.205831 -1.42779
0.759134 0.675 2.32278
0.819064 0.250168 1.54244
0.821439 0.882497 -1.35194
0.783433 1.01964 1.54031
-0.835872 0.212354 0.0600001
-0.888788 0.571327 -0.655377
-0.00178514 0.222581 -0.68345
-0.892017 0.606936 0.809247
-0.00074031 0.229222 0.800775
-0.820801 0.969428 0.0938699
8.10963e-06 1.28622 -0.628982
6.17269e-06 1.47187 0.817037
0.834447 0.211092 0.057325
0.88879 0.571334 -0.657055
0.892052 0.60679 0.808565
0.820815 0.96945 0.094185
-0.88521 0.535663 -1.38769
0.885198 0.535667 -1.38987
-0.00223582 0.220795 -1.42556
6.13018e-08 0.994398 -1.35199
-0.00134724 0.5 -2.41566
-0.890813 0.589131 0.076935
0.890816 0.589062 0.075755
-0.00126272 0.228047 0.0586625
7.14116e-06 1.48465 0.0940275
-0.887114 0.640968 1.54156
0.887121 0.640895 1.54138
-0.000369901 0.287483 1.54289
3.08635e-06 1.23268 1.54005
2.5332e-07 0.675 2.39939
-0.788074 0.3675 -2.15836
-0.39153 0.226447 -2.17489
-0.814845 0.206004 -1.79417
-0.759163 0.52 2.32529
-0.358039 0.347777 2.30222
-0.796855 0.278747 1.91417
-0.797773 0.6325 -2.13937
-0.373877 0.835604 -2.1456
-0.80039 0.839539 -1.71352
-0.742138 0.83 2.30267
-0.3525 1.01895 2.29685
-0.757818 1.01592 1.90126
0.386157 0.227196 -2.17682
0.784113 0.3675 -2.16244
0.807697 0.208226 -1.79907
0.35804 0.347791 2.30221
0.759079 0.52 2.32536
0.796743 0.278413 1.91372
0.373861 0.835599 -2.1456
0.796361 0.6325 -2.14065
0.800371 0.839536 -1.71347
0.3525 1.01878 2.29699
0.742107 0.83 2.30311
0.757689 1.0158 1.90184
-0.823121 0.208678 -1.0525
-0.83254 0.21021 -0.310833
-0.868506 0.385126 -0.668522
-0.406549 0.232852 -0.682558
-0.822687 0.241965 1.1725
-0.840173 0.213528 0.430833
-0.867619 0.410909 0.805457
-0.417224 0.233175 0.801221
-0.831139 0.914079 -0.990565
-0.883131 0.764704 -0.642232
-0.8256 0.952331 -0.267608
-0.485396 1.25182 -0.629034
-0.799244 1.01356 1.17831
-0.879668 0.818419 0.813037
-0.814818 0.985341 0.455348
-0.506175 1.44067 0.816932
0.818976 0.208794 -1.05651
0.402975 0.232854 -0.684342
0.830415 0.209201 -0.313954
0.868381 0.384294 -0.671144
0.821671 0.241639 1.17116
0.415659 0.23319 0.800329
0.838734 0.212729 0.428604
0.867537 0.410361 0.804224
0.831106 0.914059 -0.990408
0.485676 1.25236 -0.628929
0.883121 0.764712 -0.642966
0.825601 0.952341 -0.267346
0.799225 1.01354 1.17878
0.506152 1.44061 0.817142
0.87968 0.818349 0.812906
0.814806 0.985335 0.455716
-0.882334 0.517832 -1.78153
-0.410393 0.5 -2.386
-0.00246116 0.220116 -1.80075
-0.00201687 0.363366 -2.38686
-0.885942 0.370278 -1.40551
-0.411833 0.222605 -1.42445
-0.866275 0.657984 1.93198
-0.379536 0.675 2.39047
-0.000184697 0.290284 1.92499
3.7998e-07 0.508956 2.41913
-0.886806 0.445346 1.54245
-0.410387 0.287217 1.54311
-3.96286e-06 0.944455 -1.75787
-0.000677615 0.676872 -2.3384
-0.885326 0.709072 -1.36987
-0.410718 0.982992 -1.35202
1.54317e-06 1.07039 1.92307
1.2666e-07 0.851518 2.34663
-0.864583 0.830312 1.54067
-0.391722 1.21226 1.53991
0.882313 0.517834 -1.78418
0.407921 0.5 -2.38661
0.885846 0.370749 -1.40883
0.40689 0.220035 -1.42668
0.866223 0.657948 1.93208
0.379567 0.675 2.39022
0.886727 0.445532 1.54191
0.409347 0.28735 1.54266
0.885328 0.709082 -1.3709
0.410719 0.982986 -1.35196
0.864589 0.83027 1.54084
0.391718 1.21254 1.54018
-0.868722 0.398053 0.0684675
-0.413928 0.229479 0.0593313
-0.888453 0.553495 -1.02153
-0.889961 0.580229 -0.289221
-0.00201048 0.227055 -1.05451
-0.00152393 0.222911 -0.312394
-0.892039 0.598034 0.443091
-0.894556 0.623952 1.1754
-0.00100152 0.22357 0.429719
-0.000555105 0.267758 1.17183
-0.885551 0.794152 0.0854025
-0.524268 1.45478 0.0939487
4.08546e-06 1.07771 -0.990486
7.62539e-06 1.44455 -0.267477
6.65693e-06 1.48936 0.455532
4.62952e-06 1.37622 1.17854
0.868579 0.397104 0.06654
0.408143 0.236469 0.0579938
0.888474 0.553501 -1.02346
0.889962 0.580198 -0.29065
0.89207 0.597926 0.44216
0.894609 0.623843 1.17497
0.885557 0.794127 0.08497
0.524277 1.45478 0.0941062
-0.883355 0.368889 -1.78785
-0.869655 0.38017 -1.03702
-0.88359 0.730831 -1.00605
-0.879948 0.670786 -1.74753
0.880262 0.369125 -1.79163
0.87943 0.670791 -1.74883
0.883595 0.730845 -1.00693
0.869739 0.380405 -1.03999
-0.401682 0.219722 -1.79746
0.396523 0.220025 -1.79991
0.409225 0.225988 -1.05551
-0.413482 0.22753 -1.0535
-0.392298 0.930971 -1.73569
-0.412612 1.05643 -0.990526
0.41262 1.05657 -0.990447
0.39229 0.930913 -1.73567
-0.400961 0.365433 -2.35443
-0.392135 0.654686 -2.31864
0.390891 0.654686 -2.31908
0.397039 0.365433 -2.3556
-0.868642 0.391575 -0.300027
-0.868169 0.404482 0.436962
-0.882601 0.806281 0.44922
-0.884598 0.779556 -0.278415
0.86853 0.390674 -0.302302
0.884584 0.779542 -0.278998
0.882613 0.806235 0.448938
0.868064 0.403729 0.435382
-0.40788 0.235882 -0.311614
0.404932 0.235916 -0.313174
0.414177 0.230278 0.429162
-0.415002 0.232475 0.430276
-0.533099 1.40983 -0.267543
-0.521562 1.46041 0.45544
0.52157 1.46041 0.455624
0.533127 1.40987 -0.267412
-0.885683 0.427859 1.17395
-0.855861 0.482673 1.92307
-0.838837 0.830156 1.91662
-0.878632 0.816906 1.17685
0.885691 0.427838 1.17307
0.878453 0.816853 1.17687
0.8388 0.830135 1.91696
0.855924 0.482766 1.9229
-0.416721 0.267505 1.17217
0.415461 0.267472 1.1715
0.383693 0.290507 1.91935
-0.384213 0.290507 1.91958
-0.397771 1.35193 1.17842
-0.372111 1.0595 1.91217
0.372109 1.05943 1.91245
0.397775 1.35177 1.17866
-0.368788 0.514478 2.4089
0.368803 0.514478 2.40869
0.366034 0.840759 2.35528
-0.366018 0.840759 2.35527
-0.785286 0.30125 -2.16274
-0.585951 0.224827 -2.17584
-0.80463 0.213481 -1.97958
-0.744955 0.4425 2.31248
-0.537058 0.342191 2.30781
-0.770518 0.307822 2.09958
-0.772218 0.69875 -2.10664
-0.560811 0.81037 -2.12037
-0.784157 0.812359 -1.89426
-0.731755 0.9075 2.29089
-0.52875 1.00809 2.28591
-0.739154 1.00821 2.082
0.580578 0.225986 -2.1787
0.780947 0.30125 -2.16779
0.799498 0.213464 -1.98471
0.537059 0.342357 2.30764
0.745049 0.4425 2.31265
0.770506 0.307611 2.09936
0.560796 0.810301 -2.1203
0.771542 0.69875 -2.10732
0.784092 0.812309 -1.89423
0.52875 1.00781 2.2861
0.731713 0.9075 2.2914
0.739017 1.00807 2.0826
-0.825806 0.208731 -0.867083
-0.830905 0.209107 -0.49625
-0.851027 0.295694 -0.675094
-0.615436 0.224978 -0.682113
-0.824285 0.237629 0.987084
-0.842706 0.213733 0.61625
-0.854946 0.313132 0.803562
-0.630632 0.224821 0.801444
-0.830351 0.92424 -0.809826
-0.866274 0.854379 -0.635659
-0.827307 0.94309 -0.448348
-0.706982 1.19239 -0.629061
-0.803585 1.00695 0.997566
-0.854969 0.914898 0.814932
-0.81136 0.99283 0.636088
-0.67457 1.25569 0.816879
0.822013 0.208718 -0.870873
0.61187 0.224961 -0.684788
0.827827 0.208828 -0.499594
0.850992 0.294367 -0.678189
0.821976 0.238372 0.985523
0.629039 0.224814 0.800106
0.841322 0.213102 0.614244
0.854935 0.312318 0.802054
0.830385 0.924284 -0.809642
[...]
POINT_DATA 3682
SCALARS point_scalars float 1
LOOKUP_TABLE default
-94.6725
-46.9696
-59.9708
-39.6201
-88.6634
-46.7189
-59.8984
-39.1514
-37.6888
-34.9962
-58.5703
-47.359
-37.412
-34.7696
-60.301
-47.3951
-76.3604
-107.413
-35.7714
-39.2819
-48.9596
-44.1699
-40.3264
21.2344
-98.3258
-37.483
-44.8838
-47.8016
-42.9022
-39.8612
34.109
-94.7174
-49.8985
-43.5555
-43.2349
-41.4973
-40.0848
-50.9048
-50.698
-93.053
-57.5673
-38.8682
-38.3478
-39.9373
-29.9255
-143.241
-37.4482
-40.3228
-49.9516
-40.3206
-39.6045
146.817
-39.5508
-39.3366
148.475
-38.4232
-38.6782
-0.642516
-46.8731
-94.0064
-57.0194
-36.034
-36.0459
-35.7424
57.4761
-128.054
-37.4381
-39.5181
-49.6459
-40.112
-39.4333
149.799
-39.3926
-39.1906
148.477
-38.1194
-38.4545
-9.19257
-46.8145
-93.6732
-57.1562
-35.677
-35.1858
-35.1289
-77.3506
-111.542
-35.9867
-39.6327
-48.7855
-43.8994
-40.0877
55.9211
-98.7037
-37.6153
-46.0673
-47.5517
-42.6179
-39.6211
51.3033
-95.6031
-50.2842
-43.5418
-43.0397
-41.0803
-39.7927
-50.888
-52.3713
-93.0701
-57.5206
-38.6903
-37.8491
-39.4365
-66.3113
-126.928
-50.4498
-41.9723
-43.5273
-42.5797
-57.5188
-40.442
-32.7706
-43.0612
-63.546
-51.2339
-41.634
-42.3029
-40.3235
-42.9807
-36.4074
-41.9482
-38.8885
-40.4678
-43.9344
-53.8129
-0.39869
-60.3228
-36.3218
-42.044
-40.4398
-53.7284
-49.6633
-49.6889
-55.4689
-1.44524
206.868
-41.5638
-41.5237
-37.4909
-89.4897
-44.422
-44.3063
-39.8911
-37.0161
-33.5281
-51.5282
-133.098
-72.7015
-44.0759
-44.6504
-46.22
-61.9313
-60.2522
-52.3891
-41.5013
-34.1767
-38.8186
-133.333
-46.1336
-71.9584
-44.4823
-43.7865
-46.0466
-60.5111
-59.6558
-52.3726
-33.6704
-41.0991
-38.6417
-43.1334
-36.3951
-38.8425
-38.8964
-39.9893
-36.5524
-36.1054
-42.5411
-46.2214
-48.1003
-57.8647
-10.1536
-45.4251
-43.347
-50.3746
-58.4662
-43.6357
-38.8947
-36.3463
-38.8899
-39.8365
-42.6609
-36.4944
-36.0176
-45.9337
-10.5178
-48.4266
-57.6562
-45.3618
-58.4388
-43.3443
-50.3268
-72.4315
183.087
-75.7031
128.401
-50.4563
-54.709
-46.0594
-37.4063
-43.5431
-37.6746
-45.2837
-40.2832
-30.3446
143.13
-49.6919
-8.29098
-33.9705
-31.1648
-43.8418
-37.7745
-72.3779
183.909
-50.5549
-54.7398
-45.8338
-37.0599
-45.1657
-40.2364
-49.6526
-8.20567
-43.7285
-37.743
-38.996
-37.8802
-43.3809
-42.1378
-45.1597
-37.5556
-40.7546
-42.4537
-40.0509
-41.0263
-45.7812
-79.381
24.5306
-98.9104
-72.9331
-44.8313
-38.9523
-37.1183
-43.3955
-42.1382
-40.7091
-42.3784
-45.6877
-79.351
-74.9375
-43.2682
-45.16
-67.2108
-74.5261
-67.1409
-45.1586
-43.2604
-75.3935
-75.5911
-44.8091
-44.7758
-31.8059
16.3178
16.7121
-31.7733
143.176
121.255
122.637
143.358
-39.0272
-38.6199
-44.7297
-48.2561
-39.024
-48.1984
-44.6712
-38.5686
-37.037
-37.3053
-39.9369
-39.7838
-96.7277
-66.4487
-66.4236
-96.7002
-41.8821
-47.1593
-44.0621
-43.6789
-41.848
-43.5325
-43.8255
-46.9618
-40.8997
-40.9622
-43.928
-44.0162
-45.7937
-34.8179
-34.7014
-45.7852
-39.3131
-39.1764
-35.8133
-36.3328
-59.8931
-155.831
-96.508
-44.8089
-45.3841
-48.6849
-51.4312
-54.5877
-68.0959
-41.0983
-35.7776
-38.653
-156.35
-54.0536
-98.3138
-45.1683
-44.5405
-48.4684
-54.5887
-50.5864
-68.021
-35.2356
-40.6687
-38.2835
-38.5496
-36.9014
-37.6838
-37.9638
-44.8728
-36.6546
-33.5377
-45.239
-56.8311
-52.6575
-59.151
-81.448
-46.2688
-45.0079
-48.8104
-52.2098
-38.3843
-37.9548
-36.6346
-37.7375
-45.7251
-44.6047
-36.5476
-33.5014
-56.8182
-81.7249
-53.2904
-58.9321
-45.942
-52.1726
-45.0699
-48.78
-56.727
-55.3888
-94.5389
134.733
-127.151
-127.424
-91.253
94.075
-58.8849
-47.3199
-50.598
-53.2262
-43.1559
-41.4187
-45.8331
-38.3737
-43.8705
-43.7761
-44.4938
-39.266
-46.0367
-40.125
-44.1553
-41.0057
-57.5275
-57.3999
-47.1615
63.1132
-45.6622
-40.9433
-48.2492
-19.0871
-33.1406
-32.8194
-34.2237
-29.7378
-40.0913
-44.6611
-43.2709
-39.685
-54.0891
-54.1638
-95.6304
135.649
-59.464
-46.7738
-50.8246
-53.4638
-42.8491
-41.0507
-45.5596
-38.0887
-45.9581
-40.1407
-43.9126
-40.9298
-45.5935
-40.7987
-48.1738
-18.9635
-39.9763
-44.5942
-43.1664
-39.6267
-36.5932
-36.6306
-38.1759
-37.2309
-40.1571
-44.476
-42.0525
-42.194
-38.7711
-38.8265
-41.2575
-38.1058
-38.87
-41.7209
-40.2621
-40.9805
-43.5112
-43.5778
-41.8868
-45.3388
-56.2697
-52.4624
-49.1208
-63.4205
-3.14941
-3.11371
25.1287
-48.7087
-60.2091
-60.1822
-66.5131
-52.5021
-36.5389
-36.5869
-38.1537
-36.8574
-40.2104
-44.6403
-42.1213
-42.2457
-38.8661
-41.6892
-40.2227
-40.9386
-56.1835
-52.4014
-48.9948
-63.398
-58.5397
-50.3408
-49.591
-45.4303
-58.605
-50.3875
-49.5779
-45.4638
-63.5923
-55.2126
-55.2726
-49.8412
-15.8764
-3.04423
-3.01304
12.0878
203.06
189.014
173.189
203.147
-40.1115
-42.0098
-41.2583
-43.5203
-40.0774
-41.9858
-41.2127
-43.4701
-37.7931
-37.5029
-38.7257
-37.3507
-87.0453
-99.0079
-80.0623
-87.0633
-45.5969
-44.9572
-44.3736
-43.4886
-45.4106
-44.8284
-44.2467
-43.3925
-41.089
-39.9713
-39.9602
-40.3183
-34.7549
-37.1899
-37.2059
-40.0023
-34.9912
-36.3402
-32.9309
-34.6701
-99.3931
120.64
-92.3563
66.7324
-74.5375
-74.4435
-47.5355
-39.5238
-45.2487
-40.2962
-47.0894
-44.556
-89.6053
77.3596
-47.3008
52.471
-61.7062
-36.2484
-43.7247
-37.8445
-34.2521
-35.0661
-42.0864
-35.6296
-92.6167
72.5831
-101.182
123.604
-73.4389
-74.6761
-45.1315
-40.14
-47.2967
-39.3523
-46.9148
-44.3655
-47.246
52.1901
-89.7898
77.9196
-61.6403
-36.2133
-34.0641
-34.4329
-43.4117
-37.4282
-41.8643
-35.5083
-43.3358
-44.0882
-38.018
-36.653
-39.1981
-38.882
-40.9028
-37.4935
-40.9541
-40.6677
-38.1215
-38.8816
-38.081
-42.05
-40.8657
-45.0419
-47.2244
-3.77512
-46.6672
-48.5713
-52.3447
-77.4981
14.303
-47.6269
-44.7631
-48.1876
-43.8722
-43.2618
-47.2046
-56.3907
-63.0111
-53.3305
-43.3174
-44.2277
-41.1367
-37.6267
-38.025
-36.7973
-39.2243
-38.8898
-40.9276
-40.6132
-40.8865
-45.1952
-38.0694
-38.8563
-38.0336
-42.0749
-47.1549
-3.63239
14.3499
-47.6824
-46.8684
-48.6538
-52.2201
-77.4035
-44.6588
-48.1308
-62.9719
-53.2805
-43.8341
-43.1257
-47.1388
-56.3687
-73.6463
-71.4367
149.875
157.426
-75.4275
-75.5408
150.648
150.52
-59.7176
-46.4635
-62.8676
-49.1228
-46.754
-45.4487
-39.0595
-37.4089
-43.6237
-43.6771
-38.4359
-38.3228
-42.4261
-46.8471
-40.4727
-41.4891
-30.3557
-30.3217
141.91
142.064
-45.424
-58.1108
-19.7914
2.70417
-34.2254
-34.1472
-32.4375
-32.869
-43.7538
-43.9801
-40.9369
-35.7653
-73.386
-71.4638
160.769
150.712
-60.0754
-46.3924
-62.9553
-49.2704
-45.211
-46.544
-38.9006
-37.0247
-42.3201
-46.6478
-40.4727
-41.43
-58.1045
-45.3973
3.22809
-19.7157
-43.8896
-43.5929
-35.6966
-40.912
-39.0204
-38.8622
-37.0135
-38.1206
-43.3968
-43.989
-40.2494
-44.6127
-45.0806
-45.0246
-37.3828
-37.659
-39.5108
-42.4212
-42.4308
-42.7181
-40.0172
-39.9652
-40.979
-41.0182
-45.7097
-48.1453
-90.3097
-71.7414
22.9106
22.9342
-98.5252
-98.424
-71.4373
-71.4206
-45.1277
-45.1185
-38.9957
-38.8096
-37.1054
-37.7008
-43.9939
-43.4205
-40.2603
-44.5981
-42.3699
-39.459
-42.3761
-42.6171
-48.1096
-45.6405
-71.722
-90.2277
-95.4745
-60.1443
-59.3522
-98.3753
-38.2554
-40.5359
-45.9119
-47.0419
-51.1006
-45.3995
-45.1082
-43.9229
-82.7779
-91.2377
-58.2748
-53.4358
-96.9517
-100.024
-59.5244
-60.6685
-82.8671
-53.4026
-58.3119
-91.7547
-51.6125
-44.0385
-45.1216
-45.3315
-38.301
-46.8154
-45.893
-40.5771
-93.6984
-91.0796
-63.3181
-61.3472
-94.3797
-61.6255
-63.381
-91.2147
-40.3363
-41.2342
-49.7013
-48.2369
-40.3154
-48.2171
-49.6334
-41.1733
-50.4511
-27.0579
-16.8128
-46.6947
-48.7534
23.3266
9.62668
-10.8137
-43.8135
-10.3935
9.62496
23.327
-50.3539
-46.7077
-16.5573
-26.9759
77.4124
111.376
170.943
79.0827
43.0472
69.0076
169.01
118.399
43.2303
119.005
167.898
69.1559
82.5923
69.3265
171.061
110.965
-37.75
-38.1515
-40.2537
-40.1684
-37.5869
-39.0158
-39.8851
-38.1688
-45.9828
-48.8092
-43.0659
-41.8256
-53.0237
-44.7957
-44.2646
-51.995
-37.7239
-40.1942
-40.2371
-38.1329
-53.0672
-51.9693
-44.2311
-44.8623
-45.9444
-41.7874
-43.0106
-48.7304
-37.5273
-38.0941
-39.833
-38.9746
-37.0466
-37.9101
-37.3743
-36.7709
-37.1864
-36.8234
-37.116
-38.0152
-40.2659
-41.7819
-38.3601
-37.4424
-40.3732
-37.7649
-38.6156
-41.7278
-86.7048
-69.4943
-97.2217
-45.3701
-54.1469
-66.0296
-78.3185
-60.179
-54.1135
-60.1274
-78.3273
-66.0074
-86.7567
-45.5194
-97.1769
-69.4387
-43.8755
-42.1604
-43.2808
-40.5797
-48.0253
-46.8235
-46.0978
-47.7697
-41.8923
-42.3724
-44.9182
-45.4114
-44.1565
-42.095
-43.6862
-44.0347
-44.0714
-40.553
-43.1913
-42.0847
-43.7919
-43.9601
-43.5905
-42.021
-41.5481
-45.1044
-44.7476
-42.2231
-47.7968
-47.5634
-45.912
-46.5712
-42.7407
-45.287
-40.3593
-40.5136
-43.662
-40.492
-40.3674
-45.3542
-45.6501
-44.658
-41.1559
-42.3113
-45.7986
-42.3822
-41.1814
-44.7221
-51.2574
-43.2999
-40.2819
-52.6934
-34.9009
-34.2031
-35.0525
-37.0759
-34.6541
-36.9859
-35.0064
-34.093
-51.1822
-52.6343
-40.2706
-43.2438
-40.5136
-39.618
-37.4707
-39.2629
-40.2827
-39.0909
-37.302
-39.5217
-36.7255
-31.542
-34.1496
-38.0641
-37.2721
-38.3829
-34.5074
-32.0401
-83.1612
-154.759
-114.961
-45.6138
-46.0542
-49.8489
-56.9592
-45.9457
-74.2597
-40.6135
-37.1015
-38.9075
-155.506
-76.6919
-117.524
-46.1441
-45.3529
-49.6317
-45.8417
-56.4534
-74.213
-36.5909
-40.1619
-38.5545
-37.6143
-36.4283
-38.3855
-37.8524
-47.5663
-37.9845
-32.7268
-45.1592
-57.732
-55.8312
-59.5774
-71.4145
-46.7909
-46.448
-48.0345
-49.3857
-37.9297
-37.8277
-36.4676
-38.9125
-48.7456
-42.5523
-37.6378
-32.8421
-60.4494
-76.0773
-56.5657
-59.4743
-46.6666
-49.3449
-46.4626
-48.0159
-65.0327
-62.3114
-104.733
70.5883
-128.059
-128.336
-105.439
-98.4598
-53.7645
-47.825
-50.5402
-52.0953
-42.7474
-41.4889
-45.2372
-38.8102
-43.5963
-43.5478
-45.5534
-40.799
-45.1807
-41.0904
-44.5168
-41.688
-55.1399
-55.5941
-54.1016
-22.314
-43.2436
-41.0656
-45.9714
-29.0049
-32.9201
-32.7409
-34.6452
-29.2361
-41.3263
-43.6912
-42.9832
-42.0011
-60.4401
-62.1603
-105.124
72.4124
-54.4662
-48.23
-50.9711
-52.4819
-42.4265
-41.1373
-44.943
-38.5194
-44.9483
-40.978
-44.5456
-41.5216
-43.163
-40.9149
-45.8522
-28.9299
-41.2214
-43.621
-42.8887
-41.9414
-37.042
-38.0654
-37.3182
-37.0588
-40.9742
-43.0839
-41.9402
-42.088
-38.8753
-38.9261
-39.5434
-38.5927
-39.8136
-41.0852
-40.0951
-41.0934
-43.8821
-43.9194
-43.2794
-46.5183
-54.8361
-53.2768
-51.9938
-57.591
-0.548125
-0.566137
14.7242
-20.754
-60.2924
-60.2784
-63.5495
-56.4855
-37.434
-37.6998
-37.0183
-36.8525
-41.0485
-43.2058
-42.0331
-42.1673
-39.7928
-41.0542
-40.0654
-41.0559
-54.7645
-53.2077
-51.8929
-57.557
-53.5315
-49.8816
-49.6675
-46.9632
-53.5943
-49.9175
-49.671
-46.9333
-59.1538
-55.3937
-55.448
-52.4103
-8.22125
-1.7976
-1.78941
4.72522
207.86
202.968
197.717
207.819
-40.8017
-41.7876
-41.4439
-42.4781
-40.7617
-41.7543
-41.3977
-42.4334
-37.7085
-37.8793
-37.7888
-37.5057
-88.7781
-94.3291
-84.6155
-88.7886
-44.7156
-44.6778
-44.4805
-44.42
-44.5711
-44.5594
-44.3555
-44.3133
-39.3088
-39.9154
-39.9117
-40.0344
-35.7959
-37.0361
-37.0289
-38.3393
-33.9839
-35.0715
-33.3819
-33.7875
-51.4321
-54.8841
-119.94
73.2739
-139.041
-129.397
-109.416
-62.9599
-82.9784
-65.5029
-73.627
-73.4722
-44.5382
-43.6312
-47.1051
-40.4121
-44.9751
-44.2501
-47.0967
-41.9435
-48.6248
-45.6777
-47.5427
-44.8734
-59.0864
-59.2963
-92.7813
29.914
-52.9112
-61.396
-54.4762
0.137265
-59.8948
-48.9906
-57.9306
-41.4606
-41.4954
-41.3464
-43.927
-38.6869
-34.9757
-33.5099
-34.2767
-34.2238
-38.5306
-38.8469
-40.8859
-36.2776
-138.602
-129.403
-109.762
-63.1681
-45.3362
-49.8079
-119.593
79.4591
-84.0425
-64.7582
-70.3499
-73.4981
-44.8642
-44.1149
-47.0327
-41.7814
-44.2573
-43.3336
-46.8276
-40.1785
-48.4994
-45.3707
-47.3918
-44.5901
-53.1679
-61.429
-54.4386
0.74048
-57.6826
-57.0236
-92.2837
30.8102
-59.836
-48.9063
-57.9023
-41.4125
-34.4497
-33.0701
-34.0187
-33.5001
-41.069
-40.9502
-43.6121
-38.3124
-38.2691
-38.7236
-40.673
-36.1981
-38.832
-47.5748
-42.651
-43.5229
-36.1724
-35.8064
-38.2374
-36.6212
-38.3354
-39.4359
-38.9307
-38.8605
-38.6349
-38.6262
-39.9052
-38.1159
-39.5821
-39.9468
-40.3067
-40.435
-38.1942
-37.8458
-37.0288
-38.439
-34.7273
-37.4259
-37.5002
-41.356
-42.7703
-43.0055
-41.4272
-45.6802
-56.0082
-42.1756
-48.4811
-26.3743
-50.3885
-46.121
-47.4257
-48.4456
-58.6371
-57.1475
-55.0882
-65.2644
-28.5689
-5.8891
5.304
-30.5664
-45.9349
-45.0121
-45.2346
-47.2664
-44.1085
-42.466
-43.5525
-43.2731
-49.5375
-51.2675
-48.9694
-53.0868
-56.0495
-59.8451
-61.0434
-57.1252
-38.9791
-45.7307
-43.0933
-43.4922
-38.696
-38.6898
-40.1187
-38.1982
-36.1598
-36.4024
-38.1941
-36.6965
-38.3776
-39.4806
-38.9862
-38.8839
-39.4786
-39.954
-40.2385
-40.2152
-42.9121
-43.0921
-41.493
-45.7926
-37.8948
-37.5674
-36.7635
-38.3652
-34.6616
-37.4087
-37.4601
-41.4211
-55.7429
-41.9609
-48.3155
-25.7445
-28.4682
-6.04054
5.25536
-30.8477
-50.8357
-46.3454
-47.7353
-48.6534
-58.4095
-56.9847
-54.9297
-65.0854
-45.7637
-44.9588
-45.1733
-47.1775
-55.9969
-59.8145
-61.0098
-57.0797
-44.1398
-42.4442
-43.5304
-43.2439
-49.4973
-51.2146
-48.9088
-53.0591
-81.8611
-65.2108
-73.0091
-71.974
162.111
195.057
174.758
184.084
-83.3058
-69.0151
-75.6309
-75.715
138.236
163.546
132.725
131.688
-50.6818
-50.4131
-54.5028
-47.9349
-54.0761
-54.9684
-58.521
-51.6181
-46.1298
-46.0497
-46.3901
-45.8211
-38.0263
-36.2813
-38.438
-37.3543
-44.0204
-43.0387
-43.5411
-43.5633
-38.3259
-37.1572
-37.9274
-37.8602
-44.8423
-45.2481
-43.847
-46.9716
-40.6267
-40.0809
-40.3016
-39.6759
-37.862
-22.5858
-30.3553
-30.3417
107.695
146.027
143.36
143.272
-49.1878
-49.9102
-47.0582
-53.2312
-13.052
-5.1563
-14.3408
-2.69106
-34.0597
-34.0668
-34.0422
-33.9972
-30.9319
-31.983
-31.5509
-31.8254
-43.5947
-44.1051
-43.7456
-43.9883
-38.4706
-37.3799
-39.2161
-36.6988
-82.4048
-65.1983
-72.8256
-71.9678
162.504
194.772
184.404
176.727
-50.8005
-50.465
-54.709
-47.9136
-54.2384
-55.0711
-58.4261
-51.7518
-45.861
-45.8468
-45.5869
-46.1736
-37.7076
-35.9143
-38.2011
-36.9881
-44.6819
-45.1091
-43.7668
-46.7834
-40.5582
-40.0579
-40.2818
-39.6218
-49.1305
-49.8856
-53.1995
-47.0018
-12.932
-5.10842
-2.61135
-14.2683
-43.4857
-43.9824
-43.8912
-43.608
-38.429
-37.3552
-36.6536
-39.1889
-38.5
-39.5231
-39.0328
-38.9275
-37.6627
-37.8756
-36.8093
-38.3834
-42.3127
-44.6857
-43.125
-43.673
-42.1995
-42.1232
-41.1362
-43.2698
-42.8869
-47.7353
-45.1461
-45.1144
-37.7501
-37.4746
-37.5017
-37.5909
-40.5653
-40.8592
-40.1067
-41.5217
-41.7352
-42.9574
-42.6339
-42.3898
-40.8481
-39.3182
-40.0353
-40.028
-42.4068
-40.6658
-40.977
-40.9965
-46.9879
-44.6663
-46.219
-46.9746
-71.3999
-84.4036
-83.364
-75.1665
28.8053
17.9777
23.9825
23.9853
-83.5601
-100.792
-98.4414
-98.3857
-69.7927
-76.3452
-72.6695
-72.6616
-48.1849
-42.1284
-44.9026
-44.897
-38.4768
-39.4752
-39.0041
-38.8694
-37.0426
-37.2669
-36.9387
-37.3986
-42.3447
-44.7006
-43.6765
-43.165
-42.2246
-42.1076
-41.135
-43.2651
-40.5226
-40.8106
-41.4736
-40.0591
-41.6616
-42.873
-42.5689
-42.3087
-46.8575
-44.6022
-46.9142
-46.1447
-71.3244
-84.4071
-75.147
-83.3091
-83.5895
-75.3657
-74.4141
-66.5818
-43.1622
-40.0061
-47.195
-43.4916
-45.8706
-45.7699
-44.9396
-44.5002
-74.9312
-64.1656
-69.9455
-63.0442
-86.168
-74.2437
-74.1127
-66.0561
-75.1515
-64.1233
-69.891
-62.9596
-45.8572
-45.8588
-44.922
-44.5115
-43.1317
-40.0073
-46.8333
-43.5262
-83.3167
-74.9695
-75.4677
-68.388
-83.5983
-75.2542
-75.6448
-68.5365
-44.5417
-42.6452
-47.2856
-44.9785
-44.4787
-42.6093
-47.1404
-44.9153
-39.2702
-33.8053
-30.7102
-26.0114
8.69791
18.6066
9.65636
20.0345
8.95423
18.751
9.13031
20.2164
-39.2627
-33.7786
-30.664
-25.9376
121.741
130.54
140.392
154.308
98.8775
99.8726
127.557
134.46
99.4988
99.1117
135.071
128.395
129.305
124.788
154.707
141.625
-38.4831
-38.9427
-39.0359
-39.6484
-38.2808
-38.3981
-38.8021
-39.0326
-44.3138
-45.9392
-43.4923
-45.1537
-48.4821
-50.218
-46.2197
-47.9052
-38.4848
-38.9523
-39.024
-39.6455
-48.4794
-50.1287
-46.1857
-47.8247
-44.2631
-45.8768
-43.438
-45.0899
-38.2279
-38.3468
-38.7515
-38.9845
-36.9083
-37.1882
-36.9224
-37.1804
-37.3834
-37.0545
-37.7121
-37.1355
-40.9172
-39.5598
-40.0468
-38.1702
-39.4846
-40.6463
-38.4766
-39.8886
-95.6405
-77.5748
-93.6574
-96.5374
-61.1878
-64.6656
-68.7012
-69.8389
-64.6347
-61.1332
-69.819
-68.675
-77.6292
-95.5673
-96.4446
-93.58
-41.415
-41.1991
-41.9204
-42.2315
-47.4046
-47.2702
-47.0236
-46.695
-44.0688
-43.1715
-44.8091
-43.8293
-44.0672
-43.5784
-43.7695
-43.2322
-41.4096
-41.2061
-41.8406
-42.1848
-43.933
-43.3999
-43.6563
-43.1058
-43.7559
-42.9412
-44.5692
-43.6381
-47.1894
-47.0806
-46.8207
-46.4938
-40.8374
-42.2178
-40.7051
-40.9812
-40.8818
-42.3261
-40.7314
-41.0319
-44.4825
-44.1354
-43.7482
-43.413
-44.5829
-44.2548
-43.8139
-43.4901
-46.6094
-49.4946
-43.1023
-45.4254
-34.4977
-35.21
-34.4408
-35.1604
-34.3528
-35.0919
-34.336
-35.0649
-46.572
-49.4502
-43.0771
-45.4036
-39.4107
-39.4957
-39.2669
-38.9776
-39.3504
-39.2619
-38.8481
-39.1335
-35.0492
-36.955
-33.9649
-36.549
-37.4213
-35.6289
-36.9988
-34.4726
-112.469
54.3437
-115.502
-24.9434
-94.9183
-93.525
-47.6285
-41.4549
-48.0947
-42.4408
-48.7252
-46.6193
-86.7234
12.0219
-58.2719
-3.46304
-78.0142
-55.3047
-41.8546
-38.1245
-34.8783
-36.8227
-40.8468
-35.7861
-116.145
-26.3902
-113.417
52.1596
-96.0694
-94.7332
-47.9121
-42.2244
-47.3796
-41.2233
-48.485
-46.4491
-58.1908
-3.47264
-86.3389
11.7139
-78.0171
-55.2162
-34.5343
-36.1851
-41.5165
-37.6315
-40.4966
-35.51
-37.5515
-39.6189
-38.5975
-36.8885
-37.8757
-37.7289
-38.3477
-37.5488
-45.3529
-41.5641
-36.5354
-39.9117
-36.4906
-44.9436
-41.8242
-45.4954
-53.9806
-71.5186
-51.99
-52.9927
-56.0712
-69.2196
-62.9468
-94.6443
-46.0533
-47.247
-45.464
-44.1205
-47.6281
-51.2534
-53.2445
-51.025
-37.8216
-39.7752
-38.4529
-37.6361
-38.4662
-37.0345
-37.9522
-37.7511
-45.863
-43.5329
-41.6139
-45.9145
-36.2686
-39.6961
-36.4482
-45.3248
-54.5013
-68.2749
-59.704
-95.0745
-52.7634
-53.2727
-56.0106
-68.8315
-45.353
-47.178
-53.2048
-50.9532
-45.4485
-44.7695
-47.5935
-51.2275
-111.631
61.379
-97.5395
64.4341
-98.0386
-93.2324
130.561
136.543
-105.699
-67.7527
-105.834
-65.4269
-91.3448
-91.4659
94.818
92.8273
-60.1658
-60.1397
-47.2374
-47.731
-54.4963
-48.0487
-56.8016
-50.4453
-46.5102
-39.8759
-44.6329
-38.9194
-46.4359
-45.79
-38.8305
-38.3042
-45.8774
-41.1833
-45.8981
-41.0948
-44.5257
-44.5586
-39.3657
-39.314
-47.2544
-43.5038
-41.3169
-40.5589
-43.9376
-46.828
-40.5007
-41.5569
-54.4465
-12.7474
-54.4489
-13.4047
-46.7072
-46.716
72.1422
72.6403
-51.0437
-34.0981
-45.3263
-24.8534
-46.3868
-50.6709
-22.6718
-15.1148
-34.4989
-31.2157
-34.3708
-30.694
-34.2415
-34.1852
-30.2569
-30.5709
-41.4856
-38.6892
-44.2023
-45.2791
-42.8083
-43.6719
-41.5168
-38.2315
-111.129
65.8283
-96.8062
65.3149
-99.1158
-93.9858
137.329
130.888
-60.7667
-60.4741
-46.8179
-47.5281
-54.8727
-48.0232
-57.1065
-50.5795
-46.2219
-39.6464
-44.3222
-38.5987
-45.4877
-46.1684
-38.6182
-37.986
-47.0044
-43.4956
-41.271
-40.5651
-43.8107
-46.7169
-40.4326
-41.4024
-50.9849
-34.0123
-45.2491
-24.6697
-50.602
-46.3272
-14.9515
-22.5631
-41.3471
-38.59
-44.1393
-45.2186
-43.5883
-42.6772
-38.1624
-41.4641
-37.9123
-36.7115
-37.0647
-37.5454
-38.1674
-38.1724
-36.9168
-37.505
-40.2512
-40.2194
-44.1982
-44.6628
-41.2412
-42.9263
-41.1573
-43.3761
-39.4666
-38.4455
-39.507
-38.5177
-41.2336
-41.2238
-38.043
-38.0909
-38.7961
-40.3962
-41.6705
-41.8163
-39.6357
-40.9635
-40.6172
-41.4623
-42.9179
-46.1944
-42.9793
-46.2972
-41.8494
-41.8201
-45.22
-45.2423
-53.4683
-61.4271
-50.6919
-56.38
-49.6322
-49.1349
-66.0581
-62.3464
13.0709
-20.0147
13.2204
-20.1283
24.8238
24.8485
-48.3
-48.3736
-63.1565
-56.5388
-63.1264
-56.5211
-66.485
-66.473
-52.5921
-52.5836
-37.5941
-36.6601
-36.7703
-37.4086
-38.158
-38.1416
-36.5891
-37.1377
-40.3111
-40.2656
-44.3582
-44.7924
-43.016
-41.2952
-41.1948
-43.4347
-38.763
-40.3967
-41.6382
-41.7732
-40.9235
-39.5945
-40.5857
-41.41
-53.5097
-61.3433
-50.618
-56.3403
-49.2108
-49.5512
-62.33
-66.0179
-58.8565
-58.2995
-54.2822
-47.6815
-46.4302
-53.1912
-45.6592
-45.3223
-58.9691
-58.3385
-54.4061
-47.6626
-53.2113
-46.3356
-45.3736
-45.6551
-63.5158
-63.5673
-58.8882
-52.1733
-59.0231
-52.2334
-49.8239
-49.7423
-15.9526
-15.9561
-9.52642
3.21027
3.22194
-9.57178
11.5882
11.5923
190.915
196.778
191.5