# vtk DataFile Version 2.0
tri_press
ASCII
DATASET UNSTRUCTURED_GRID
POINTS 3682 float
-0.715 0.245 -1.79347
-0.755 0.405 1.90232
-0.645 0.870304 -1.715
-0.675 1.125 1.79403
0.715 0.245 -1.79346
0.755 0.405 1.90232
0.645 0.870304 -1.715
0.675 1.125 1.79403
-0.781873 0.244793 -0.56154
-0.841011 0.252322 0.67039
-0.781371 1.08157 -0.545323
-0.774957 1.15006 0.624353
0.781874 0.244793 -0.561533
0.841088 0.252245 0.670393
0.781376 1.08158 -0.545323
0.774955 1.15006 0.624353
-1.48857 -0.222195 -2.75795
-1.4873 -0.153909 -1.79734
-1.5447 -0.149039 -0.563802
-1.59088 -0.143117 0.682266
-1.55253 -0.0408873 1.91686
-1.53606 0.0273927 2.88264
-1.53884 0.0768946 3.83885
-1.47825 0.146193 -2.7411
-1.47467 0.237619 -1.78729
-1.55102 0.265186 -0.565862
-1.59269 0.266839 0.661168
-1.52078 0.358547 1.88379
-1.51571 0.424467 2.84869
-1.5292 0.474543 3.80693
-1.44935 0.847113 -2.68992
-1.43095 0.93697 -1.73353
-1.53736 1.0872 -0.554546
-1.54516 1.13186 0.620032
-1.46243 1.13491 1.80021
-1.48433 1.19826 2.76769
-1.51571 1.26131 3.73597
-1.45476 2.02175 -2.65996
-1.45575 2.12524 -1.7129
-1.4984 2.27683 -0.554091
-1.52813 2.37077 0.591296
-1.52362 2.40374 1.75075
-1.52201 2.4341 2.69917
-1.52962 2.47981 3.66065
-0.747957 -0.219183 -2.76197
-0.725043 -0.147745 -1.8032
-0.764828 -0.159226 -0.563014
-0.814904 -0.152619 0.690137
-0.789502 -0.0167637 1.93062
-0.778972 0.0441689 2.89197
-0.782583 0.0851473 3.84426
-0.748765 0.141799 -2.74233
-0.767446 0.441511 2.85639
-0.778024 0.481965 3.81101
-0.724376 0.818576 -2.68222
-0.74348 1.1985 2.76645
-0.770644 1.26242 3.7357
-0.709943 2.00387 -2.65234
-0.700512 2.10924 -1.70451
-0.735114 2.27501 -0.549035
-0.769665 2.37585 0.59069
-0.774512 2.40387 1.74642
-0.774542 2.43187 2.69484
-0.780163 2.47792 3.65751
0.71296 -0.219184 -2.76196
0.749464 -0.147747 -1.80319
0.796681 -0.159236 -0.563008
0.816583 -0.152672 0.690141
0.758492 -0.0167838 1.93062
0.739827 0.0441533 2.89198
0.732624 0.0851306 3.84426
0.684671 0.141798 -2.74233
0.725951 0.441501 2.85639
0.724186 0.48195 3.81101
0.667695 0.818576 -2.68222
0.698909 1.1985 2.76645
0.712232 1.26241 3.7357
0.755015 2.00387 -2.65234
0.777545 2.10923 -1.70451
0.782201 2.275 -0.549034
0.753185 2.37584 0.590691
0.722792 2.40386 1.74642
0.716246 2.43186 2.69485
0.716935 2.4779 3.65751
1.45707 -0.2222 -2.75794
1.49469 -0.153914 -1.79733
1.56331 -0.149062 -0.563792
1.59959 -0.14319 0.682272
1.54439 -0.0409379 1.91686
1.51091 0.0273556 2.88264
1.49805 0.076859 3.83885
1.42809 0.14619 -2.74109
1.46458 0.237618 -1.78728
1.55083 0.265174 -0.565852
1.60089 0.266762 0.661174
1.52959 0.358504 1.88379
1.49335 0.424436 2.84869
1.48629 0.474511 3.80693
1.40702 0.847111 -2.68991
1.42518 0.936971 -1.73353
1.53716 1.0872 -0.554542
1.55047 1.13184 0.620034
1.46885 1.13488 1.80021
1.4582 1.19824 2.76769
1.46804 1.26128 3.73597
1.49181 2.02174 -2.65995
1.51648 2.12523 -1.71289
1.53733 2.27682 -0.554088
1.51921 2.37075 0.591298
1.48491 2.40372 1.75075
1.4731 2.43408 2.69917
1.47277 2.47978 3.66066
-0.73162 0.557652 -1.80586
0 0.241396 -1.79707
-0.749379 0.243954 -1.17751
-0.735166 0.765 1.86834
0 0.349743 1.95758
-0.784536 0.342131 1.28636
0 0.949087 -1.79378
-0.7798 1.04255 -1.13016
0 1.20181 1.87084
-0.761856 1.17441 1.20919
0.731681 0.557652 -1.80591
0.74938 0.243953 -1.1775
0.735167 0.765 1.86834
0.784566 0.3421 1.28636
0.779783 1.04254 -1.13016
0.761855 1.17441 1.20919
-0.809109 0.250891 0.054425
-0.878313 0.663183 -0.553432
3.18736e-07 0.241832 -0.561537
-0.87069 0.70119 0.647372
3.8538e-05 0.253795 0.670392
-0.782499 1.12015 0.039515
2.47086e-06 1.45698 -0.545323
-7.11228e-07 1.65579 0.624353
0.809194 0.250805 0.05443
0.878309 0.663185 -0.553428
0.870686 0.701151 0.647373
0.782488 1.12014 0.039515
-0.891172 0.610418 -1.15383
0.891168 0.610419 -1.15383
1.59368e-07 0.241349 -1.1775
1.23543e-06 1.12852 -1.13016
0 0.557652 -2.01421
-0.877368 0.682187 0.04697
0.877364 0.682168 0.0469725
1.94284e-05 0.249124 0.0544275
8.79815e-07 1.63838 0.039515
-0.884027 0.733095 1.24777
0.883876 0.733075 1.24777
1.9269e-05 0.281498 1.28636
-3.55614e-07 1.62441 1.20919
0 0.765 1.95271
-0.736486 0.401326 -1.81284
-0.3575 0.241415 -1.79705
-0.733177 0.243489 -1.48549
-0.77046 0.585 1.91071
-0.3775 0.350467 1.95685
-0.789095 0.354238 1.59434
-0.705777 0.713978 -1.77789
-0.3225 0.932541 -1.77724
-0.735045 0.979073 -1.42258
-0.710496 0.945 1.8366
-0.3375 1.17961 1.84864
-0.748791 1.18007 1.50161
0.3575 0.241404 -1.79706
0.736383 0.401326 -1.81273
0.733178 0.243489 -1.48548
0.3775 0.350465 1.95686
0.770397 0.585 1.91064
0.789089 0.354244 1.59434
0.3225 0.932565 -1.77726
0.705759 0.713978 -1.77787
0.735054 0.979083 -1.42258
0.3375 1.17959 1.84862
0.710552 0.945 1.83665
0.74884 1.18011 1.50161
-0.765556 0.244444 -0.869523
-0.797388 0.245946 -0.253558
-0.87355 0.43226 -0.557486
-0.391225 0.242736 -0.561538
-0.84627 0.26373 0.978373
-0.825337 0.251329 0.362408
-0.876794 0.466285 0.658881
-0.421797 0.250438 0.670391
-0.789648 1.07113 -0.837743
-0.873939 0.894427 -0.549378
-0.781653 1.10058 -0.252904
-0.476217 1.44034 -0.545323
-0.771833 1.16566 0.916773
-0.865909 0.947167 0.635863
-0.785192 1.14157 0.331934
-0.499846 1.62766 0.624353
0.765557 0.244443 -0.869515
0.390473 0.24424 -0.561535
0.797389 0.245944 -0.253552
0.873544 0.432263 -0.557481
0.846268 0.263732 0.978375
0.421794 0.250558 0.670393
0.825338 0.251329 0.362412
0.876668 0.466307 0.658883
0.789671 1.07115 -0.837743
0.476226 1.44035 -0.545323
0.873935 0.894428 -0.549376
0.781652 1.10058 -0.252904
0.771851 1.16568 0.916773
0.499845 1.62766 0.624353
0.865907 0.947147 0.635863
0.785215 1.14159 0.331934
-0.877911 0.584035 -1.47984
-0.36581 0.557652 -2.0005
7.96839e-08 0.241145 -1.48729
0 0.399524 -2.00315
-0.882174 0.427186 -1.16567
-0.37469 0.240942 -1.1775
-0.87341 0.749048 1.55806
-0.367583 0.765 1.94188
9.63451e-06 0.311505 1.62197
0 0.557371 2.00685
-0.86962 0.537613 1.26706
-0.392258 0.281542 1.28636
6.17715e-07 1.07883 -1.46197
0 0.753369 -1.94263
-0.861129 0.826486 -1.142
-0.389899 1.10437 -1.13016
-1.77807e-07 1.5767 1.54001
0 0.983404 1.93373
-0.849779 0.953751 1.22848
-0.380928 1.60171 1.20919
0.877908 0.584035 -1.47987
0.36584 0.557652 -2.00049
0.882179 0.427186 -1.16566
0.37469 0.241568 -1.1775
0.873787 0.749038 1.55806
0.367584 0.765 1.9419
0.869678 0.537588 1.26707
0.392293 0.281543 1.28636
0.860964 0.826478 -1.142
0.389892 1.10449 -1.13016
0.849437 0.95374 1.22848
0.380927 1.60171 1.20919
-0.878017 0.449149 0.0506975
-0.405195 0.248706 0.0544263
-0.88734 0.6368 -0.853633
-0.878703 0.672685 -0.253231
2.39052e-07 0.241929 -0.869519
9.87356e-06 0.242401 -0.253555
-0.875308 0.691688 0.347171
-0.86508 0.717143 0.947573
2.89832e-05 0.252082 0.36241
2.89035e-05 0.260241 0.978374
-0.870987 0.921696 0.0432425
-0.50707 1.61091 0.039515
1.85314e-06 1.30286 -0.837743
1.67534e-06 1.58212 -0.252904
8.42937e-08 1.65586 0.331934
-5.33421e-07 1.648 0.916773
0.877964 0.449144 0.0507012
0.404626 0.249926 0.0544288
0.887606 0.636802 -0.853629
0.8787 0.672677 -0.253228
0.875305 0.69166 0.347173
0.865073 0.717113 0.947574
0.870985 0.921684 0.0432437
0.507023 1.61081 0.039515
-0.866289 0.414256 -1.48267
-0.888136 0.440587 -0.861578
-0.878036 0.849432 -0.845688
-0.856842 0.770232 -1.45121
0.866273 0.414256 -1.48267
0.856784 0.770228 -1.45123
0.878029 0.84943 -0.845686
0.888123 0.440588 -0.861572
-0.366095 0.240813 -1.48639
0.366095 0.241269 -1.48638
0.382814 0.241884 -0.869517
-0.382813 0.241093 -0.869521
-0.3562 1.069 -1.44228
-0.390292 1.28783 -0.837743
0.390291 1.28784 -0.837743
0.356196 1.06899 -1.44228
-0.361655 0.400425 -1.99166
-0.344155 0.733674 -1.93669
0.34417 0.733674 -1.93662
0.36167 0.400425 -1.99169
-0.875888 0.440652 -0.253394
-0.875915 0.458463 0.354789
-0.87076 0.935587 0.339553
-0.872991 0.908325 -0.253068
0.875864 0.440649 -0.25339
0.872984 0.908318 -0.253066
0.87076 0.935572 0.339554
0.875979 0.458395 0.354792
-0.39958 0.24298 -0.253556
0.398621 0.244941 -0.253553
0.413255 0.250152 0.362411
-0.413496 0.249572 0.362409
-0.505999 1.55433 -0.252904
-0.508208 1.62878 0.331934
0.50819 1.62875 0.331934
0.505991 1.55432 -0.252904
-0.87142 0.507185 0.962973
-0.865342 0.561307 1.5762
-0.828838 0.949375 1.52983
-0.861219 0.939687 0.932173
0.87142 0.507143 0.962974
0.861262 0.939672 0.932173
0.828586 0.94937 1.52983
0.865359 0.561294 1.5762
-0.406372 0.260215 0.978373
0.406428 0.260215 0.978374
0.384896 0.310454 1.60815
-0.384879 0.310453 1.60815
-0.384203 1.62926 0.916773
-0.359214 1.55877 1.52081
0.359214 1.55842 1.52081
0.384202 1.62926 0.916773
-0.372542 0.571186 2.01946
0.372542 0.571186 2.01946
0.352542 0.964202 1.92308
-0.352542 0.964202 1.92308
-0.724155 0.323163 -1.80157
-0.53625 0.241429 -1.79704
-0.724998 0.243335 -1.63948
-0.762986 0.495 1.90677
-0.56625 0.354704 1.95262
-0.790764 0.360902 1.74833
-0.663345 0.792141 -1.7344
-0.48375 0.913379 -1.75808
-0.701343 0.93601 -1.56879
-0.704483 1.035 1.82705
-0.50625 1.1512 1.82023
-0.724522 1.16516 1.64782
0.53625 0.241421 -1.79704
0.724145 0.323163 -1.80155
0.724998 0.243335 -1.63947
0.56625 0.354714 1.95261
0.762958 0.495 1.90674
0.790781 0.360886 1.74833
0.48375 0.913378 -1.75807
0.663449 0.792141 -1.73451
0.701194 0.93586 -1.56879
0.50625 1.15099 1.82002
0.704466 1.035 1.82703
0.724426 1.16506 1.64782
-0.773415 0.244918 -0.715531
-0.789417 0.245583 -0.407549
-0.862944 0.320911 -0.559513
-0.58608 0.244704 -0.561539
-0.843379 0.258288 0.824381
-0.833621 0.251379 0.516399
-0.864581 0.356464 0.664636
-0.631525 0.251138 0.670391
-0.764051 1.05489 -0.691533
-0.833341 0.990843 -0.547351
-0.781128 1.09069 -0.399114
-0.683308 1.36999 -0.545323
-0.773639 1.1581 0.770563
-0.833781 1.05529 0.630108
-0.776299 1.14204 0.478144
-0.661928 1.43791 0.624353
0.773416 0.244918 -0.715524
0.58608 0.244703 -0.561534
0.789418 0.245582 -0.407543
0.862942 0.320911 -0.559507
0.843379 0.258288 0.824384
0.631573 0.251137 0.670393
0.833621 0.251379 0.516403
0.864575 0.356428 0.664638
0.774889 1.06573 -0.691533
0.683324 1.37001 -0.545323
0.833336 0.990843 -0.54735
0.781114 1.09068 -0.399114
[...]
POINT_DATA 3682
SCALARS point_scalars float 1
LOOKUP_TABLE default
-134.189
-55.7233
-11.1547
-41.6402
-134.176
-55.6151
-11.2229
-41.5061
-47.8027
-46.7126
-72.0136
-53.5516
-47.8162
-47.2333
-72.9435
-53.5557
-56.7241
-134.012
-48.5478
-46.9274
-56.3102
-56.109
-47.7029
-27.7324
-147.237
-48.3186
-46.1558
-57.0241
-50.9246
-46.1379
45.3181
-105.299
-62.7728
-50.7988
-49.7139
-44.52
-46.1732
-11.9851
-50.0343
-97.6655
-63.1324
-47.2658
-41.6708
-41.609
-49.7485
-135.608
-47.654
-47.9012
-57.4087
-48.1974
-47.7203
-49.7485
-46.4
-45.744
151.444
-41.9369
-45.1056
23.8687
-29.6231
-89.8093
-66.4446
-45.4566
-39.2199
-37.0606
-49.7485
-135.594
-47.6769
-48.7152
-55.8605
-48.1033
-47.6725
-49.7485
-46.0036
-45.7026
151.304
-41.344
-44.8168
23.8637
-31.8356
-88.0237
-66.4105
-45.3914
-38.4899
-36.8687
-56.7803
-134.341
-48.5294
-47.2369
-56.6925
-56.0265
-47.7199
4.73522
-147.456
-48.3169
-46.1375
-56.9214
-50.8692
-46.0751
45.2471
-105.563
-62.9879
-50.7925
-49.6165
-44.3364
-46.0948
-12.0025
-57.3506
-97.8161
-63.09
-47.1046
-41.5396
-41.4719
-6.28525
-134.335
-64.2518
-46.5567
-51.1363
-45.1696
-16.6874
-69.9817
-32.0117
-48.5993
-6.7406
-64.2576
-46.4502
-45.0881
-70.097
-48.5173
-42.2364
-53.6754
-48.5516
-47.1044
-48.0292
-60.0722
-31.9401
-69.9616
-42.1358
-53.6967
-47.083
-59.9664
-75.5638
-75.5335
-67.9977
17.6665
205.52
-48.2526
-48.2272
-44.3278
-98.0982
-50.4964
-50.3734
-51.365
-50.2469
-45.3486
-14.2323
-139.443
-90.8425
-50.3678
-51.7284
-48.1846
-4.51562
-8.18602
-56.5441
-45.401
-36.3609
-48.0321
-139.602
-14.9321
-90.8408
-51.6823
-50.2913
-48.1578
-8.41877
-4.42915
-56.5631
-36.116
-45.2735
-47.9077
-52.4077
-44.0116
-49.6203
-48.1407
-61.7397
-42.5202
-46.0006
-48.3362
-86.1051
-61.4267
-65.3911
-50.7157
-51.525
-49.956
-57.6158
-65.1643
-52.4226
-48.1663
-44.1423
-49.621
-61.7705
-48.4857
-42.5496
-45.9695
-85.6503
-50.7227
-61.5809
-65.2678
-51.5087
-65.1318
-49.9567
-57.5564
-114.595
184.246
-89.2282
173.986
-71.3334
-67.1375
-53.7567
-44.8049
-50.3913
-46.5083
-48.5572
-50.4453
-17.5687
160.735
-81.7419
9.05971
-38.6824
-42.0807
-49.7964
-50.6438
-114.461
184.393
-71.3027
-67.1322
-53.6498
-44.7522
-48.4804
-50.4562
-81.6633
9.0534
-49.2919
-50.5982
-45.5178
-43.7864
-64.9518
-49.7529
-55.4503
-45.7547
-47.8519
-46.3347
-45.3675
-50.3174
-52.8123
-87.9614
16.0659
-97.0796
-82.6495
-59.8485
-45.4879
-43.672
-64.955
-49.7509
-47.8241
-46.2853
-52.9213
-87.9157
-105.798
-61.365
-69.4981
-97.0485
-105.635
-96.9952
-69.4765
-61.3631
-89.0535
-89.0398
-54.8968
-54.8394
-21.5752
10.696
10.6984
-21.5867
151.039
136.019
136.111
150.878
-46.0175
-46.216
-51.7424
-56.207
-46.0027
-56.2062
-51.7278
-46.207
-45.2351
-45.2085
-44.845
-44.8732
-93.8061
-75.645
-75.6052
-93.6925
-47.0819
-52.1304
-51.7237
-48.7881
-47.2421
-48.8048
-51.5918
-52.0637
-50.4667
-50.468
-50.1458
-50.1954
-59.0207
-41.1606
-41.0902
-58.9849
-46.07
-46.0509
-42.0625
-42.1718
-45.6377
-149.076
-122.694
-51.6738
-52.8779
-55.1126
-1.98516
-8.29461
-42.818
-44.3897
-39.3119
-44.7874
-149.105
-45.6292
-122.714
-52.8022
-51.5903
-55.0481
-8.35121
-1.86971
-42.6888
-39.1682
-44.2208
-44.6305
-49.3191
-44.9735
-48.1226
-47.4795
-50.1682
-44.2672
-46.1139
-48.4516
-75.1929
-66.3959
-69.3805
-101.615
-52.1385
-52.0182
-55.6211
-59.0649
-49.3312
-47.4968
-45.0023
-48.1228
-49.1463
-48.7063
-44.3067
-46.0886
-75.5074
-102.225
-66.9363
-69.2111
-52.1496
-59.0152
-52.0454
-55.608
0.522866
-6.21823
-106.87
123.575
-135.973
-136.039
-107.324
109.157
-74.0596
-57.4493
-68.3946
-65.6614
-47.5564
-46.0983
-53.7881
-44.0397
-51.2439
-51.2258
-50.4567
-46.3716
-45.8682
-46.6166
-46.7905
-47.71
-17.4866
-17.297
-19.6532
88.8976
-61.1202
-85.2575
-79.1642
-6.13096
-33.1838
-33.0544
-34.1978
-38.4009
-50.2062
-50.2369
-49.2388
-50.413
0.000368683
-6.30279
-106.851
123.638
-74.0583
-57.461
-68.3729
-65.3519
-47.478
-45.9866
-53.6798
-43.921
-45.8624
-46.6063
-46.7465
-47.6978
-61.0997
-85.0245
-79.0447
-6.01377
-50.0839
-50.1873
-48.941
-50.3513
-43.4594
-42.2268
-43.783
-43.0246
-51.1762
-57.2275
-56.9193
-51.1842
-48.4951
-48.4857
-51.3845
-46.77
-46.1502
-48.2618
-47.4327
-46.7233
-48.2037
-48.2002
-46.5108
-49.0839
-62.3852
-58.3276
-57.0651
-71.7862
-35.596
-35.5804
-10.8705
-57.9253
-69.1464
-69.1276
-75.9253
-64.4929
-42.9237
-42.2625
-43.7528
-42.9765
-51.1818
-57.2855
-56.9319
-51.1946
-46.1347
-48.2482
-47.4095
-46.6977
-62.2846
-58.193
-57.1267
-71.7207
-85.9961
-73.4392
-79.9403
-69.1477
-85.9437
-73.4118
-79.8935
-69.1221
-77.112
-67.9109
-67.9191
-60.8636
-1.28264
15.6357
15.6508
25.5869
202.242
190.909
182.744
202.356
-46.5773
-48.831
-48.026
-50.3906
-46.5494
-48.8176
-47.9905
-50.3694
-44.1795
-45.538
-44.573
-44.1154
-95.7055
-100.97
-89.9917
-95.6934
-51.1123
-50.224
-50.0094
-46.0467
-50.9967
-50.129
-49.8482
-45.9997
-50.8377
-51.1726
-51.1798
-52.1348
-44.2803
-50.501
-50.4761
-55.1484
-45.2094
-44.799
-43.9089
-45.1857
-129.677
111.379
-109.405
31.6866
-101.109
-88.8315
-56.0324
-45.8136
-50.6542
-46.1946
-50.861
-49.3478
-68.8504
79.0449
-17.0843
89.8615
-86.4924
-27.7619
-50.9317
-42.9236
-37.0657
-39.3773
-49.5889
-42.54
-109.383
31.9604
-129.905
111.54
-100.961
-88.8203
-50.6662
-46.1674
-55.9506
-45.7751
-50.808
-49.3002
-17.0203
89.8782
-68.9454
79.221
-86.5201
-27.7521
-36.9705
-39.2143
-50.8148
-42.8035
-49.4852
-42.4657
-54.7706
-53.9457
-44.2502
-44.6157
-55.3835
-47.3107
-50.9341
-46.2184
-54.6773
-53.6518
-44.3062
-44.2283
-45.3811
-45.9938
-46.2325
-49.7474
-74.7984
-17.9474
-64.4853
-58.5606
-61.4257
-83.5942
-24.6597
-68.9716
-49.9358
-56.7579
-50.9096
-49.2203
-55.1471
-65.0603
-69.9023
-61.7438
-54.7686
-53.971
-50.9634
-46.2338
-44.2112
-44.669
-55.3842
-47.3088
-54.736
-53.6722
-46.2554
-49.4951
-44.3071
-44.2755
-45.365
-45.9844
-74.4838
-18.3821
-24.6399
-68.9446
-64.5928
-58.5856
-61.3537
-83.5753
-49.9826
-56.7126
-69.8739
-61.7093
-50.9098
-49.2127
-55.1747
-65.0018
-109.145
-114.168
174.485
169.337
-89.3237
-89.3129
166.946
166.738
-81.2232
-64.2825
-76.3192
-60.1095
-52.7725
-53.0596
-44.481
-43.7433
-50.3311
-50.3439
-46.4654
-46.4553
-48.9875
-48.8649
-51.5433
-50.039
-18.3126
-18.3117
150.261
150.4
-73.5737
-91.0892
-7.98301
19.7422
-39.4309
-39.343
-42.0242
-42.0873
-51.6112
-48.3587
-55.1494
-45.5468
-109.039
-114.044
169.633
174.357
-81.1711
-64.2712
-76.3168
-60.0954
-52.8928
-52.6955
-44.4013
-43.6679
-48.7526
-48.7913
-51.5536
-50.0876
-91.0625
-73.5154
19.7941
-7.99597
-48.5529
-51.5247
-45.5029
-55.1094
-45.1906
-45.4513
-44.9395
-44.0369
-65.0354
-65.6219
-47.598
-52.8028
-55.3943
-55.3677
-45.6547
-45.6273
-46.7816
-49.5858
-44.6344
-47.4666
-45.1619
-45.1933
-50.3465
-50.3432
-52.7707
-54.3051
-92.3062
-81.5289
15.3688
15.3714
-95.5327
-95.538
-81.45
-81.4354
-59.6175
-59.5989
-45.1668
-45.4252
-44.8144
-43.9623
-65.6257
-65.041
-47.5886
-52.8088
-49.5438
-46.7649
-44.5859
-47.4409
-54.3168
-52.5619
-81.5024
-92.1715
-134.231
-78.3021
-83.9425
-124.77
-55.3723
-55.3381
-66.831
-61.0995
-69.0677
-76.2331
-71.2421
-60.4981
-64.3315
-84.5711
-91.7295
-84.0413
-134.396
-124.13
-83.8912
-78.2623
-64.211
-84.0244
-91.6944
-85.018
-69.0958
-60.5383
-71.1988
-76.1183
-55.3658
-61.0907
-66.8151
-55.3426
-112.549
-108.092
-77.0476
-74.9596
-112.534
-74.9568
-77.0453
-108.076
-50.3085
-51.3483
-60.7949
-58.874
-50.2895
-58.8499
-60.7727
-51.3464
-19.0646
-21.3293
-2.62917
-19.306
-100.909
-13.1871
24.3056
0.380619
-101.018
0.339291
24.3162
-13.1987
-19.0633
-19.2528
-2.62767
-21.3891
27.0482
115.627
185.968
69.9877
63.4706
94.8376
181.97
119.722
63.6682
119.686
182.095
95.7852
28.06
70.0764
186.019
115.863
-45.9781
-43.9486
-46.9605
-48.8476
-44.9316
-46.2675
-46.4911
-43.9622
-53.4865
-57.3738
-50.0749
-48.9414
-63.9139
-54.6089
-51.3779
-59.2103
-45.9758
-48.8493
-46.9412
-43.901
-63.8441
-59.1555
-51.3773
-54.6344
-53.5063
-48.922
-50.0022
-56.9543
-44.9403
-43.9508
-46.4642
-46.2487
-45.5948
-46.6676
-45.4702
-44.2533
-45.6173
-43.8756
-45.4029
-46.6646
-45.9334
-46.3978
-44.402
-43.3199
-45.8495
-43.3185
-44.381
-46.5276
-92.3671
-77.1065
-99.1541
-61.2137
-61.5552
-74.8328
-87.5283
-67.8243
-61.5061
-67.7598
-87.5149
-74.818
-92.4475
-61.124
-99.1203
-77.0116
-47.745
-47.1138
-46.9732
-45.6535
-56.4029
-55.2055
-49.8512
-47.2726
-48.5635
-50.9187
-52.1107
-52.1753
-50.7464
-47.7275
-47.883
-48.8749
-47.6928
-45.6367
-46.9028
-46.9334
-50.7744
-48.8695
-47.8169
-47.7074
-48.4209
-52.0769
-52.034
-50.8252
-56.3099
-47.2279
-49.7605
-55.106
-50.7005
-49.3893
-51.9451
-50.0697
-50.1038
-50.0273
-51.9726
-49.4029
-51.2398
-50.4879
-50.6809
-48.143
-51.1846
-48.0992
-50.6682
-50.4914
-56.1913
-54.4779
-55.179
-63.9693
-39.0738
-35.2742
-44.7307
-47.6458
-38.9847
-47.5808
-44.7052
-35.268
-56.1451
-63.9511
-55.1582
-54.4136
-46.1527
-46.2998
-44.6457
-44.5613
-46.0983
-44.5018
-44.6214
-46.2908
-41.6142
-38.5882
-43.9009
-43.5923
-41.7537
-43.6789
-43.9393
-38.5993
-78.436
-155.456
-159.57
-52.7392
-53.5078
-58.6894
-2.99842
0.943071
-27.9459
-43.65
-39.5335
-42.0175
-155.492
-78.4562
-159.586
-53.4255
-52.6319
-58.6061
0.950291
-3.0943
-28.0191
-39.4034
-43.5087
-41.8768
-49.6297
-45.7151
-48.7871
-47.3139
-48.3891
-45.4572
-45.9149
-48.3684
-71.0133
-68.6361
-71.358
-84.7118
-52.8074
-52.777
-54.3153
-56.1308
-49.6374
-47.3308
-45.7325
-48.7935
-47.9835
-48.7862
-45.6283
-46.118
-73.5561
-85.0021
-69.5652
-71.1349
-52.8152
-56.0821
-52.8008
-54.3145
-3.87941
-6.81503
-43.9891
74.8666
-134.424
-134.46
-120.552
-55.9725
-68.564
-60.4966
-66.4932
-64.7639
-46.9771
-46.1858
-51.0206
-44.4291
-51.1661
-51.1642
-50.6303
-48.3841
-45.0909
-45.4041
-45.6821
-46.3784
-18.9579
-18.9492
-16.2724
34.8152
-65.2699
-74.3516
-80.2297
-33.3654
-32.2217
-32.1549
-32.4945
-34.0476
-49.0249
-49.5711
-49.1951
-49.2506
-4.58544
-7.08557
-44.0143
75.3661
-68.5669
-60.505
-66.4808
-64.7763
-46.88
-46.0865
-50.9061
-44.3394
-45.0927
-45.3411
-45.6214
-46.3334
-65.2164
-74.1471
-80.0986
-33.3387
-48.9369
-49.4988
-49.0966
-49.1763
-42.2746
-41.8561
-42.7628
-42.6589
-52.1297
-55.3667
-54.9281
-52.0827
-48.5367
-48.5187
-49.7896
-47.5692
-46.6068
-47.6236
-47.2287
-46.9183
-48.1218
-48.0964
-47.1902
-48.8907
-61.159
-59.114
-58.8689
-65.5468
-32.5926
-32.5872
-21.4162
-45.0347
-69.7664
-69.7576
-72.7319
-67.199
-41.5085
-41.8832
-42.7368
-42.6109
-52.1422
-55.4026
-54.9457
-52.0996
-46.5848
-47.6045
-47.2069
-46.8967
-61.0778
-58.9907
-58.7724
-65.4556
-79.9858
-74.4649
-77.3882
-71.8379
-79.9513
-74.4366
-77.3522
-71.8092
-72.2869
-67.9168
-67.9252
-64.2082
8.62456
16.9796
16.9844
24.4747
203.665
202.787
200.714
203.678
-47.3425
-48.5142
-48.1056
-49.3397
-47.3164
-48.4958
-48.0734
-49.3133
-44.2901
-44.9416
-44.3352
-44.2322
-97.4964
-102.12
-94.7893
-97.4885
-50.8945
-50.7211
-49.7951
-46.9493
-50.7823
-50.6181
-49.6367
-46.8554
-51.1351
-51.3215
-51.3217
-51.6558
-47.1067
-50.2314
-50.2234
-52.7992
-45.0146
-44.5093
-44.7972
-45.0018
-38.6377
-4.01014
-69.1724
60.3979
-143.243
-137.777
-125.019
-103.387
-103.908
-81.2856
-97.3759
-89.1577
-51.0587
-49.0472
-55.3558
-46.4799
-52.2211
-51.4012
-51.1726
-48.2451
-50.8129
-46.7934
-49.781
-48.6458
-1.14421
-5.98876
-37.6521
42.2328
-10.1005
-11.9036
-13.7965
25.7554
-56.4142
-58.8897
-74.8434
-36.7264
-44.9341
-45.8344
-48.6519
-43.4462
-37.8584
-34.8134
-36.6074
-36.2471
-46.455
-49.444
-48.6708
-45.2022
-143.416
-137.896
-125.048
-103.353
-38.6734
-5.18858
-67.6504
60.2441
-103.911
-81.2812
-96.781
-89.1542
-52.167
-51.3689
-51.1418
-48.2099
-50.9813
-48.9613
-55.2679
-46.4199
-50.7691
-46.7746
-49.7369
-48.6337
-10.146
-12.0337
-13.8552
25.4866
-0.980279
-5.94496
-37.6984
42.3961
-56.282
-58.913
-74.81
-36.7453
-37.6836
-34.6304
-36.4648
-36.0371
-44.7648
-45.7099
-48.5355
-43.3299
-46.336
-49.3038
-48.553
-45.0969
-50.8602
-54.5411
-51.7064
-53.2972
-44.123
-43.6734
-44.0397
-44.3133
-48.6713
-50.6383
-51.2803
-48.1068
-47.8548
-48.3325
-49.4912
-47.0267
-52.1319
-52.5818
-59.0993
-58.0541
-42.8488
-42.1865
-43.7094
-43.8569
-46.5522
-45.3837
-45.9213
-45.7134
-48.3099
-48.2909
-47.1807
-49.5344
-84.4409
-88.9322
-82.1402
-69.7184
-63.869
-59.3494
-62.7576
-59.8557
-67.0391
-63.8061
-63.9778
-72.6794
-72.1927
-39.7524
-40.4108
-61.0942
-51.719
-50.7976
-50.6292
-53.7751
-51.1879
-48.9252
-50.2682
-49.5194
-57.1761
-57.6279
-56.1796
-61.6146
-62.7255
-67.6116
-67.2453
-64.5407
-50.8758
-54.5552
-51.7132
-53.3164
-47.8751
-48.3305
-49.5221
-47.0512
-44.1752
-44.1492
-44.0491
-44.3975
-48.6701
-50.6417
-51.2785
-48.1065
-52.209
-52.8019
-59.0608
-58.1069
-48.557
-48.3061
-47.2196
-49.3753
-42.8888
-42.2075
-43.7233
-43.8988
-46.5306
-45.5219
-45.8938
-45.6812
-83.7593
-88.6064
-81.6101
-70.1833
-72.2917
-39.7102
-40.4597
-61.1042
-64.1256
-59.4445
-62.9301
-59.9315
-66.8973
-63.6987
-63.8628
-72.6108
-51.7221
-50.7715
-50.6469
-53.7231
-62.6673
-67.585
-67.2122
-64.5057
-51.203
-48.918
-50.2702
-49.5148
-57.1416
-57.5202
-56.1528
-61.536
-132.473
-97.0516
-113.398
-115.988
157.221
197.507
179.07
185.074
-97.2554
-82.6548
-89.1843
-89.1793
155.062
181.084
169.712
169.779
-69.705
-72.4522
-75.0096
-67.2551
-66.4339
-67.5867
-71.4355
-63.3993
-54.7703
-52.0252
-53.2661
-53.9618
-44.6976
-44.9037
-44.2349
-44.5274
-50.4096
-50.4911
-50.3855
-50.3888
-46.084
-46.393
-46.3881
-46.3841
-47.7187
-49.4186
-48.4038
-48.6086
-49.5401
-50.9114
-50.818
-50.2407
-19.7516
-12.4175
-17.8242
-17.8266
134.966
169.647
156.634
156.631
-79.2677
-82.5544
-76.6674
-86.6581
4.68101
12.7012
1.65827
15.7581
-35.611
-41.3655
-38.8295
-38.8081
-41.2522
-42.9459
-42.0776
-42.1076
-49.4106
-50.0662
-50.9216
-48.946
-50.8373
-50.3331
-52.8516
-48.1267
-132.548
-96.9689
-113.278
-115.806
157.136
197.6
185.394
179.182
-69.6793
-72.4221
-74.9735
-67.2336
-66.4592
-67.6016
-71.4506
-63.2684
-54.7289
-51.8891
-53.813
-53.1819
-44.6345
-44.8648
-44.1748
-44.4676
-47.6636
-49.3356
-48.3628
-48.5469
-49.5464
-50.923
-50.8268
-50.2846
-79.1843
-82.4836
-86.6945
-76.5501
4.6941
12.6543
15.8492
1.66041
-48.681
-49.8817
-48.7596
-50.8185
-50.7873
-50.2969
-48.0831
-52.8078
-44.3571
-46.3816
-45.6334
-45.3696
-43.4421
-44.0318
-44.3304
-43.7946
-60.2068
-67.3723
-65.2738
-65.3551
-50.3802
-49.2467
-48.6137
-51.2483
-53.2526
-57.9767
-55.453
-55.4069
-46.1685
-45.5659
-45.7236
-45.723
-47.6478
-47.9567
-47.2049
-48.6555
-46.5575
-46.1387
-45.6808
-46.8831
-45.8374
-44.989
-45.2424
-45.2539
-49.3448
-51.5868
-50.298
-50.253
-53.9001
-51.6746
-52.6689
-53.7636
-81.0548
-93.247
-91.3935
-84.794
4.90883
23.3099
16.0263
15.9999
-87.2297
-97.7239
-96.8357
-96.8397
-79.5535
-85.641
-82.2925
-82.2854
-62.0278
-57.4763
-59.7677
-59.7584
-44.3202
-46.3548
-45.6047
-45.3345
-43.3608
-43.9264
-44.2176
-43.7194
-60.237
-67.3423
-65.3602
-65.2799
-50.3841
-49.2391
-48.6078
-51.2512
-47.6239
-47.923
-48.6219
-47.1817
-46.5239
-46.0917
-45.6205
-46.8466
-54.306
-51.6657
-53.8061
-52.6296
-81.0263
-93.2188
-84.7295
-91.3825
-136.911
-103.539
-107.129
-90.5765
-58.6404
-59.6812
-62.177
-63.5714
-70.638
-66.8761
-71.3839
-67.0481
-87.8532
-92.3114
-105.108
-95.3287
-136.924
-103.381
-107.009
-90.4952
-87.9275
-92.3581
-105.007
-95.169
-70.5504
-66.9035
-71.3709
-67.0482
-58.6364
-59.6829
-62.1719
-63.573
-97.9144
-88.9108
-89.2616
-82.0825
-97.8968
-88.8967
-89.252
-82.0743
-54.4664
-52.7806
-57.3201
-55.2061
-54.4293
-52.7302
-57.2755
-55.1581
-21.8903
-25.4383
-19.1396
-18.2135
2.15503
-5.34859
17.9997
14.2438
2.14551
-5.24095
18.0271
14.2721
-21.9893
-25.4524
-19.1476
-18.2173
128.065
115.898
166.903
163.586
111.882
117.756
145.772
143.757
117.769
112.032
143.858
145.626
115.834
127.918
163.613
166.747
-45.1017
-46.5703
-45.2126
-46.9535
-44.9528
-45.5439
-45.9341
-46.6809
-51.3851
-53.6307
-50.6723
-52.164
-57.3623
-58.5427
-54.5582
-55.2606
-45.0773
-46.5615
-45.1894
-46.9418
-57.3674
-58.5232
-54.5634
-55.256
-51.3783
-53.6412
-50.632
-52.0143
-44.9497
-45.5499
-45.9135
-46.6705
-44.9389
-45.6344
-45.0648
-45.488
-45.6373
-44.9474
-45.4454
-44.9359
-45.489
-44.624
-45.0337
-44.3452
-44.5643
-45.5
-44.3892
-45.0904
-98.926
-77.9222
-93.0526
-94.0726
-69.5216
-73.2556
-77.7849
-79.0898
-73.2181
-69.4711
-79.0654
-77.7569
-77.7824
-99.103
-94.1022
-92.9537
-50.2101
-46.8152
-48.6119
-45.0357
-53.6248
-51.6988
-52.309
-50.2043
-51.5547
-50.5248
-52.5835
-51.6154
-49.6111
-48.98
-48.9141
-48.0553
-50.4799
-46.8384
-48.4887
-44.9891
-49.6533
-48.9787
-48.9398
-48.0473
-51.4294
-50.4125
-52.4278
-51.5328
-53.5624
-51.638
-52.2311
-50.1237
-51.0676
-49.8148
-51.3345
-50.3686
-51.0756
-49.8116
-51.3435
-50.364
-50.3722
-49.9996
-50.2622
-50.0526
-50.3699
-50.0098
-50.3046
-50.0721
-58.6756
-60.5076
-57.3665
-59.3876
-37.6498
-41.5709
-40.3402
-43.1319
-37.5844
-41.5079
-40.2438
-43.0882
-58.625
-60.4685
-57.3264
-59.3615
-45.8346
-45.944
-45.7888
-46.307
-45.919
-45.8094
-46.2869
-45.7705
-41.547
-42.4491
-41.8304
-42.9343
-42.5687
-41.667
-43.0263
-41.92
-83.5471
7.38089
-133.101
-92.056
-136.788
-114.995
-56.953
-47.1658
-53.1622
-48.6384
-56.3217
-51.5763
-30.9864
37.7705
-13.0242
28.9654
-52.7084
-27.079
-47.1615
-42.9033
-39.0699
-39.4147
-46.6623
-40.823
-133.097
-87.9086
-83.521
7.41491
-136.867
-114.998
-53.1475
-48.5721
-56.817
-47.0973
-56.1896
-51.567
-13.0185
29.0463
-31.2012
38.0531
-52.6305
-27.1434
-38.9529
-39.2813
-47.0039
-42.7679
-46.5115
-40.7051
-50.0251
-50.1084
-45.3166
-45.2922
-50.0194
-46.6184
-48.683
-46.4394
-48.4119
-51.1374
-44.6765
-45.5996
-45.4865
-47.0555
-46.9651
-49.9959
-72.4203
-90.9109
-67.7104
-65.8424
-67.139
-77.4553
-103.24
-106.251
-51.5167
-53.9887
-52.5946
-51.4409
-54.4572
-58.5647
-60.2582
-57.5388
-50.0209
-50.1249
-48.7003
-46.4579
-45.326
-45.3245
-50.0142
-46.6176
-47.9397
-50.4125
-47.1059
-49.5332
-44.6984
-45.6957
-45.5004
-46.9403
-71.5999
-92.7392
-103.375
-106.27
-68.2169
-65.8064
-66.984
-77.4377
-51.5455
-53.9535
-60.2045
-57.4907
-52.6289
-51.471
-54.4714
-58.5016
-55.8122
71.6155
-44.7196
72.5155
-117.118
-99.693
119.109
129.027
-122.085
-75.837
-122.088
-77.7152
-107.364
-107.35
52.9414
53.7091
-76.8002
-74.1918
-59.3644
-58.0626
-72.3822
-64.4843
-69.9445
-61.9302
-53.253
-44.9105
-50.0024
-44.0559
-55.1666
-52.7222
-44.3707
-43.7624
-50.7023
-48.2705
-50.6883
-48.2537
-50.4562
-50.4596
-46.634
-46.626
-46.7136
-46.6527
-46.758
-47.9411
-46.4302
-47.064
-47.7207
-47.9231
-16.0913
28.9175
-15.9563
27.6947
-20.2633
-20.236
92.1057
92.7237
-74.9242
-36.2371
-81.9986
-46.4151
-77.4527
-81.9594
-13.8373
-0.771956
-33.8518
-34.8524
-33.7664
-34.7515
-34.5777
-34.5385
-38.3403
-38.2224
-50.7575
-48.4305
-49.4323
-51.7325
-50.4644
-48.4214
-52.4226
-49.1269
-55.7121
72.5134
-44.768
72.5301
-116.87
-99.98
129.039
119.245
-76.7777
-74.1939
-59.364
-58.0805
-72.3591
-64.4649
-69.9579
-61.9523
-53.151
-44.8368
-49.8684
-43.9552
-52.6316
-55.0488
-44.3092
-43.6692
-46.6885
-46.6586
-46.6696
-47.9498
-46.3776
-47.0294
-47.6801
-47.8949
-74.9063
-36.3104
-81.8234
-46.2922
-81.9448
-77.3002
-0.770484
-13.9559
-50.6515
-48.3455
-49.3309
-51.673
-48.0202
-50.3913
-49.0637
-52.362
-43.2784
-43.8664
-43.0951
-42.9467
-44.2387
-43.8779
-43.5281
-43.0865
-52.9888
-49.7395
-58.7963
-55.8274
-55.9276
-58.6053
-49.9662
-52.8835
-49.7624
-47.4829
-49.7518
-47.4824
-51.3824
-51.3698
-46.7107
-46.7267
-46.0243
-46.0914
-48.6938
-48
-46.8248
-48.0214
-46.3261
-47.1839
-47.2097
-49.2325
-47.1878
-49.2556
-46.4523
-46.7066
-49.1529
-49.1634
-61.0594
-68.8063
-57.5234
-62.8019
-57.1709
-58.0305
-74.2441
-69.6839
-24.5025
-47.3765
-24.5097
-47.3731
-11.3291
-11.33
-59.5317
-59.4843
-71.7224
-66.6562
-71.7037
-66.6391
-75.6999
-75.6919
-64.3973
-64.3884
-43.0471
-43.5343
-43.1069
-42.965
-44.1338
-43.8616
-43.035
-43.0726
-52.9912
-49.7449
-58.8531
-55.8705
-58.6293
-55.935
-49.9715
-52.9018
-45.9957
-46.0703
-48.6771
-47.9835
-47.9994
-46.8008
-46.3024
-47.16
-60.9694
-68.7257
-57.3905
-62.7033
-58.0199
-56.8886
-69.619
-74.185
-84.85
-88.438
-77.7488
-69.6521
-75.1151
-84.0904
-68.1156
-70.5398
-84.7967
-88.3962
-77.7146
-69.629
-84.0383
-75.0677
-70.5088
-68.0983
-77.0825
-77.083
-72.2171
-64.1215
-72.2194
-64.1354
-60.8608
-60.8423
-1.47941
-1.47835
6.92434
22.9973
23.0055
6.93405
25.001
25.0039
197.276