# vtk DataFile Version 2.0
tet_velo
ASCII
DATASET UNSTRUCTURED_GRID
POINTS 29498 float
-0.585 0.085 -1.9414
-0.695 0.175 1.77782
-0.647814 0.635 -1.725
-0.575 0.835 1.80332
0.585 0.085 -1.9414
0.695 0.175 1.77782
0.647814 0.635 -1.725
0.575 0.835 1.80336
-0.636566 0.1001 -0.70166
-0.702146 0.101188 0.53808
-0.69938 0.777504 -0.548893
-0.6711 0.840162 0.627213
0.636567 0.1001 -0.70166
0.70215 0.101183 0.53808
0.699364 0.777488 -0.54888
0.671093 0.840155 0.62724
-1.23964 -0.294038 -2.97977
-1.24471 -0.242137 -2.01346
-1.28784 -0.229125 -0.772077
-1.33601 -0.232094 0.482112
-1.34056 -0.185891 1.72457
-1.34167 -0.147591 2.69617
-1.34782 -0.114358 3.65798
-1.24204 0.0155444 -2.89444
-1.24897 0.0813659 -1.93508
-1.30004 0.112251 -0.706082
-1.34316 0.113839 0.528647
-1.32721 0.157396 1.75887
-1.33579 0.194749 2.72956
-1.34804 0.22783 3.69345
-1.27084 0.613444 -2.70593
-1.29879 0.67737 -1.74395
-1.34411 0.785451 -0.558322
-1.3247 0.831841 0.622791
-1.2572 0.840536 1.80963
-1.30094 0.875463 2.78297
-1.33966 0.912282 3.75712
-1.30053 1.59602 -2.47101
-1.31792 1.66999 -1.51855
-1.33961 1.78266 -0.353555
-1.34167 1.86462 0.797727
-1.33086 1.90198 1.96339
-1.33637 1.92565 2.91724
-1.35379 1.95443 3.88445
-0.599699 -0.292547 -2.98387
-0.596927 -0.238367 -2.01945
-0.627975 -0.234811 -0.771269
-0.673648 -0.240862 0.490161
-0.683304 -0.17866 1.73864
-0.688955 -0.142852 2.70571
-0.695869 -0.112786 3.66351
-0.598128 0.0121133 -2.89571
-0.695457 0.200093 2.73744
-0.701606 0.229296 3.69763
-0.619905 0.594624 -2.69806
-0.666886 0.874486 2.78171
-0.699855 0.91173 3.75686
-0.643008 1.58324 -2.46323
-0.655434 1.65804 -1.50997
-0.675915 1.77965 -0.348381
-0.686564 1.8675 0.797116
-0.685919 1.90301 1.95897
-0.693481 1.92513 2.91283
-0.709395 1.95369 3.88124
0.641572 -0.292549 -2.98387
0.622445 -0.238368 -2.01944
0.657789 -0.234812 -0.771268
0.699005 -0.240865 0.490163
0.689488 -0.178662 1.73865
0.647251 -0.142853 2.70572
0.621522 -0.112788 3.66352
0.638266 0.0121113 -2.8957
0.624664 0.200092 2.73745
0.605442 0.229293 3.69764
0.656886 0.594622 -2.69806
0.581762 0.874485 2.78174
0.582736 0.911727 3.75688
0.667399 1.58324 -2.46322
0.667537 1.65803 -1.50997
0.65883 1.77965 -0.348368
0.631565 1.8675 0.797135
0.601298 1.90301 1.959
0.587638 1.92513 2.91285
0.578181 1.95369 3.88126
1.27497 -0.294044 -2.97976
1.26119 -0.242143 -2.01345
1.30669 -0.229131 -0.772068
1.35983 -0.232102 0.482124
1.35264 -0.185896 1.72459
1.31401 -0.147595 2.69619
1.28451 -0.114363 3.65801
1.26994 0.0155385 -2.89444
1.24721 0.0813596 -1.93508
1.2992 0.112243 -0.706071
1.35302 0.113831 0.528663
1.33518 0.157392 1.75889
1.29172 0.194745 2.72959
1.26698 0.227825 3.69348
1.29413 0.613437 -2.70593
1.29415 0.677361 -1.74394
1.33763 0.785433 -0.5583
1.32589 0.831829 0.622829
1.25514 0.840531 1.80968
1.23989 0.875459 2.78301
1.23702 0.912277 3.75716
1.31962 1.59601 -2.47099
1.32324 1.66998 -1.51853
1.32033 1.78265 -0.353529
1.29297 1.86461 0.797763
1.25561 1.90197 1.96343
1.23765 1.92564 2.91728
1.22816 1.95442 3.88448
-0.58875 0.36 -1.80554
0 0.0804529 -1.94595
-0.619968 0.083365 -1.32153
-0.668719 0.505 1.82429
0 0.241149 1.71167
-0.711567 0.1251 1.15795
0 0.668747 -1.75875
-0.714927 0.747582 -1.13695
0 0.897238 1.86558
-0.654886 0.869417 1.21527
0.588745 0.36 -1.80554
0.619932 0.0834015 -1.32153
0.668704 0.505 1.82429
0.711763 0.124904 1.15795
0.71491 0.747565 -1.13694
0.654884 0.869415 1.2153
-0.669286 0.100714 -0.08179
-0.801648 0.438802 -0.625277
2.12051e-07 0.0940396 -0.70166
-0.839295 0.470675 0.582647
2.33256e-06 0.0976487 0.53808
-0.68625 0.809843 0.03916
-7.77609e-06 1.02219 -0.548887
-3.53507e-06 1.18419 0.627227
0.669289 0.100711 -0.08179
0.801648 0.438794 -0.62527
0.839442 0.470669 0.58266
0.68625 0.809843 0.03918
-0.863453 0.399401 -1.22924
-0.808453 0.454738 -0.021315
-0.893361 0.487837 1.18661
1.06026e-07 0.0763201 -1.32153
1.27231e-06 0.0958453 -0.08179
1.16628e-06 0.194342 1.15795
0 0.36 -1.89136
0 0.505 2.03913
-3.88805e-06 0.824192 -1.13694
-5.65558e-06 1.19674 0.03917
-1.76753e-06 1.07086 1.21528
0.863454 0.399397 -1.22924
0.808452 0.454732 -0.021305
0.893363 0.487834 1.18663
-0.916987 0.083183 -1.93824
-0.590963 -0.0766833 -1.98042
-0.591564 0.0485566 -2.41855
-1.01111 0.166198 1.76834
-0.689152 -0.00182995 1.75823
-0.695229 0.187546 2.25763
-0.9733 0.656185 -1.73447
-0.63386 0.614812 -2.21153
-0.651624 1.14652 -1.61749
-0.916098 0.837768 1.80648
-0.620943 0.854743 2.29252
-0.63046 1.36901 1.88115
0.603723 -0.076684 -1.98042
0.611633 0.0485557 -2.41855
0.916106 0.0831798 -1.93824
0.692244 -0.00183077 1.75823
0.659832 0.187546 2.25764
1.01509 0.166196 1.76836
0.65235 0.614811 -2.21153
0.657676 1.14652 -1.61748
0.970984 0.65618 -1.73447
0.578381 0.854742 2.29255
0.588149 1.369 1.88118
0.915072 0.837766 1.80652
-0.968302 0.106176 -0.703871
-0.632271 -0.067355 -0.736465
-1.02266 0.107513 0.533363
-0.687897 -0.069837 0.51412
-1.02174 0.781477 -0.553608
-0.687647 1.27858 -0.448637
-0.997899 0.836001 0.625002
-0.678832 1.35383 0.712165
0.647178 -0.0673561 -0.736464
0.967883 0.106171 -0.703866
0.700578 -0.0698412 0.514122
1.02758 0.107507 0.533372
0.679097 1.27857 -0.448624
1.0185 0.781461 -0.55359
0.651329 1.35383 0.712187
0.998493 0.835992 0.625035
-1.24218 -0.268087 -2.49662
-1.24084 -0.139247 -2.93711
-0.91967 -0.293292 -2.98182
-1.26628 -0.235631 -1.39277
-1.24684 -0.0803857 -1.97427
-0.920821 -0.240252 -2.01645
-1.31192 -0.23061 -0.144982
-1.29394 -0.0584371 -0.739079
-0.957905 -0.231968 -0.771673
-1.33829 -0.208993 1.10334
-1.33959 -0.0591277 0.505379
-1.00483 -0.236478 0.486136
-1.34112 -0.166741 2.21037
-1.33389 -0.0142473 1.74172
-1.01193 -0.182275 1.73161
-1.34475 -0.130974 3.17707
-1.33873 0.023579 2.71286
-1.01531 -0.145221 2.70094
-1.34793 0.0567361 3.67572
-1.02185 -0.113572 3.66075
-1.24551 0.0484552 -2.41476
-1.25644 0.314494 -2.80019
-0.920083 0.0138288 -2.89507
-1.27451 0.0968083 -1.32058
-1.27388 0.379368 -1.83951
-1.3216 0.113045 -0.0887176
-1.32207 0.448851 -0.632202
-1.33519 0.135618 1.14376
-1.33393 0.47284 0.575719
-1.3315 0.176072 2.24422
-1.2922 0.498966 1.78425
-1.34192 0.211289 3.21151
-1.31836 0.535106 2.75627
-1.01562 0.197421 2.7335
-1.34385 0.570056 3.72529
-1.02482 0.228563 3.69554
-1.28481 0.645407 -2.22494
-1.28569 1.10473 -2.58847
-0.945374 0.604034 -2.702
-1.32145 0.73141 -1.15113
-1.30835 1.17368 -1.63125
-1.3344 0.808646 0.0322345
-1.34186 1.28406 -0.455938
-1.29095 0.836188 1.21621
-1.33318 1.34823 0.710259
-1.27907 0.857999 2.2963
-1.29403 1.37126 1.88651
-1.3203 0.893872 3.27004
-1.31866 1.40055 2.8501
-0.983912 0.874974 2.78234
-1.34673 1.43335 3.82078
-1.01976 0.912006 3.75699
-1.30922 1.63301 -1.99478
-0.971768 1.58963 -2.46712
-1.32877 1.72633 -0.936053
-0.986678 1.66402 -1.51426
-1.34064 1.82364 0.222086
-1.00776 1.78116 -0.350968
-1.33626 1.8833 1.38056
-1.01412 1.86606 0.797421
-1.33362 1.91381 2.44032
-1.00839 1.9025 1.96118
-1.34508 1.94004 3.40084
-1.01493 1.92539 2.91504
-1.03159 1.95406 3.88284
-0.598313 -0.265457 -2.50166
-0.598914 -0.140217 -2.93979
0.0209362 -0.292548 -2.98387
-0.612451 -0.236589 -1.39536
0.012759 -0.238367 -2.01945
-0.650812 -0.237836 -0.140554
0.0149071 -0.234811 -0.771268
-0.678476 -0.209761 1.1144
0.0126786 -0.240863 0.490162
-0.68613 -0.160756 2.22218
0.00309207 -0.178661 1.73864
-0.692412 -0.127819 3.18461
-0.692206 0.0286207 2.72158
-0.0208519 -0.142852 2.70572
-0.698738 0.0582546 3.68057
-0.0371737 -0.112787 3.66352
-0.609016 0.303369 -2.79688
0.0200692 0.0121123 -2.8957
-0.698532 0.214694 3.21753
-0.681172 0.537289 2.75958
-0.0353969 0.200092 2.73745
-0.700731 0.570513 3.72724
-0.048082 0.229294 3.69764
-0.631457 1.08893 -2.58064
0.0184905 0.594623 -2.69806
-0.683371 0.893108 3.26929
-0.680184 1.39981 2.84727
-0.0425619 0.874485 2.78173
-0.704625 1.43271 3.81905
-0.0585596 0.911729 3.75687
-0.649221 1.62064 -1.9866
0.0121953 1.58324 -2.46322
-0.665675 1.71885 -0.929178
0.00605154 1.65803 -1.50997
-0.68124 1.82358 0.224367
-0.00854234 1.77965 -0.348374
-0.686242 1.88526 1.37804
-0.0274996 1.8675 0.797125
-0.6897 1.91407 2.4359
-0.0423105 1.90301 1.95898
-0.701438 1.93941 3.39704
-0.0529217 1.92513 2.91284
-0.0656069 1.95369 3.88125
0.632008 -0.265459 -2.50166
0.639919 -0.140219 -2.93979
0.95827 -0.293296 -2.98182
0.640117 -0.23659 -1.39536
0.941816 -0.240255 -2.01645
0.678397 -0.237839 -0.140552
0.982238 -0.231972 -0.771668
0.694247 -0.209763 1.1144
1.02942 -0.236484 0.486144
0.66837 -0.160757 2.22218
1.02106 -0.182279 1.73162
0.634386 -0.127821 3.18462
0.635957 0.0286191 2.72159
0.980631 -0.145224 2.70096
0.613482 0.0582524 3.68058
0.953015 -0.113576 3.66077
0.647576 0.303367 -2.79688
0.954101 0.0138249 -2.89507
0.615053 0.214693 3.21755
0.603213 0.537288 2.7596
0.958193 0.197418 2.73352
0.594089 0.57051 3.72726
0.93621 0.228559 3.69556
0.662143 1.08893 -2.58064
0.975506 0.604029 -2.70199
0.582249 0.893106 3.26931
0.5847 1.39981 2.8473
0.910825 0.874972 2.78237
0.580459 1.43271 3.81907
0.90988 0.912002 3.75702
0.667468 1.62063 -1.98659
0.993509 1.58962 -2.46711
0.663184 1.71884 -0.929167
0.995386 1.66401 -1.51425
0.645198 1.82357 0.224384
0.989579 1.78115 -0.350948
0.616432 1.88525 1.37807
0.962269 1.86605 0.797449
0.594468 1.91407 2.43592
0.928454 1.90249 1.96121
0.58291 1.93941 3.39706
0.912646 1.92538 2.91507
0.903168 1.95405 3.88287
1.26808 -0.268093 -2.49661
1.27245 -0.139253 -2.9371
1.28394 -0.235637 -1.39276
1.2542 -0.0803917 -1.97427
1.33326 -0.230617 -0.144972
1.30294 -0.0584444 -0.739069
1.35623 -0.208999 1.10336
1.35642 -0.0591355 0.505394
1.33332 -0.166745 2.21039
1.34391 -0.0142517 1.74174
1.29926 -0.130979 3.1771
1.30287 0.023575 2.71289
1.27574 0.0567311 3.67575
1.25857 0.0484491 -2.41476
1.28203 0.314488 -2.80018
1.27321 0.0968011 -1.32057
1.27068 0.37936 -1.83951
1.32611 0.113037 -0.0887039
1.31841 0.448838 -0.632186
1.3441 0.135612 1.14378
1.33946 0.47283 0.575746
1.31345 0.176069 2.24424
1.29516 0.498962 1.78429
1.27935 0.211285 3.21154
1.26581 0.535102 2.7563
1.252 0.570051 3.72532
1.29414 0.645399 -2.22493
1.30687 1.10472 -2.58846
1.31589 0.731397 -1.15112
[...]
POINT_DATA 29498
VECTORS point_vectors float
-4.84574 -9.83229 12.8858
0.0795277 0.427173 1.73731
-0.645078 0.620482 1.38165
-0.0769725 -0.0453343 0.0312744
4.86148 -9.82522 12.9108
-0.0787422 0.421742 1.74178
0.646358 0.622007 1.38597
0.0774664 -0.0433895 0.0286545
0 0 0
0 0 0
0 0 0
4.12617e-17 5.94147e-17 2.16293e-16
0 0 0
0 0 0
0 0 0
0 0 0
-0.566796 -0.332179 19.7212
-1.38783 -1.08193 20.1575
-0.508995 -0.633002 21.4434
0.103458 -0.260215 21.4744
0.7007 0.168508 21.3558
0.926542 0.268352 21.0888
0.909953 0.24915 20.7265
-0.743306 -0.265755 19.5627
-2.35035 -1.03807 19.9502
-0.758573 -0.692808 21.5851
-0.0481284 -0.467125 21.5969
0.911913 -0.0870597 21.3613
1.14201 -0.0425391 20.9823
1.18186 -0.165993 20.2447
-1.05757 0.136977 19.4112
-2.62021 0.49965 20.2407
-1.25931 -0.243209 21.4739
-0.409228 -0.271651 21.6338
0.641435 -0.615182 21.3875
0.821952 -0.618287 21.057
0.73775 -0.466275 20.6424
-0.639352 0.578222 19.8997
-0.922785 0.774545 20.4637
-0.741943 0.473132 21.1173
-0.242099 0.0237852 21.3381
0.094487 -0.306318 21.1383
0.216883 -0.4108 20.8805
0.212511 -0.350674 20.7122
-0.445248 -0.588573 19.3054
-1.40614 -3.3623 19.9512
-0.0174314 -0.264867 21.8139
0.330533 0.261955 21.3352
0.667995 1.2481 19.967
0.857116 1.4374 19.6641
0.966001 1.31502 18.7479
-0.643499 -0.566355 18.8206
1.01127 1.32417 9.81781
1.46594 0.991651 12.6026
-1.08707 0.352764 18.147
0.656909 -0.618294 7.97961
0.854666 -0.815339 13.1657
-0.537796 1.03097 19.5504
-0.866222 1.67884 20.3018
-0.942075 1.33897 21.3041
-0.25355 0.162559 21.6346
0.0430595 -0.404023 21.2279
0.118726 -0.52105 20.9382
0.120189 -0.504593 20.5725
0.465704 -0.574449 19.3365
1.44601 -3.29051 19.9452
-0.0293208 -0.326101 21.9786
-0.35191 0.226752 21.3541
-0.677949 1.23821 19.9759
-0.796165 1.50542 19.6233
-0.882798 1.46933 18.3605
0.668947 -0.539387 18.8807
-0.741475 1.38949 8.99949
-1.40077 1.22494 12.1051
1.11543 0.342829 18.2216
-0.522976 -0.480688 5.37626
-0.753591 -0.825739 10.4289
0.548101 1.01667 19.5631
0.877736 1.66131 20.3058
0.93528 1.36819 21.3094
0.240111 0.177454 21.6612
-0.029296 -0.409997 21.226
-0.0988279 -0.529853 20.95
-0.171636 -0.501315 20.7673
0.564098 -0.320623 19.7358
1.36086 -1.03533 20.1668
0.514642 -0.622356 21.4288
-0.101075 -0.248441 21.4595
-0.685388 0.156032 21.3478
-0.954651 0.270846 21.1032
-0.998392 0.311596 20.5054
0.745313 -0.256254 19.5878
2.35178 -1.04683 19.9466
0.758805 -0.69835 21.5828
0.0479389 -0.460258 21.5881
-0.894021 -0.0930001 21.3594
-1.20201 -0.00881482 20.8338
-1.30992 -0.109308 19.9152
1.03421 0.133119 19.448
2.64261 0.503534 20.2389
1.27212 -0.246062 21.4846
0.410713 -0.272013 21.6296
-0.637789 -0.615493 21.3744
-0.860215 -0.6842 21.0196
-0.732033 -0.536822 20.6904
0.637086 0.566668 19.9133
0.919659 0.768384 20.4657
0.750331 0.487319 21.1197
0.246568 0.0274876 21.3493
-0.0891112 -0.318163 21.1398
-0.199713 -0.437722 20.8512
-0.152719 -0.336321 20.5767
-4.04339 -0.277849 2.18184
-0.0430122 -8.11706 13.3423
-0.027618 0.00627535 0.104149
-0.0316216 -0.0295887 -0.0243573
0.00161854 0.0189158 0.137388
0.0166522 0.0101707 0.292541
0 0 0
-0.460524 -0.10969 0.90918
-0.00388599 0.143334 -0.121765
0 0 0
3.99385 -0.273159 2.14804
0.0275496 0.00625549 0.104554
0.0308232 -0.0295436 -0.023584
-0.0176378 0.0104714 0.308195
0.459085 -0.109229 0.906172
0 0 0
2.56271e-18 8.50976e-19 1.22546e-16
0.000745402 -0.00246263 0.0164075
0 0 0
-0.0147519 0.012619 0.0896995
-1.10764e-05 0.000140759 0.0319029
0 0 0
0.00164091 0.0414498 0.0872358
-2.43354e-06 -0.00047824 0.00637085
0 0 0
-0.000739857 -0.00249793 0.0164158
0.0154235 0.0136028 0.094377
0 0 0
-0.00345037 -0.00235628 0.065565
0.000574224 0.00700267 0.0502234
0.000122504 0.00100479 0.0151475
8.07809e-08 -2.69325e-07 1.58413e-05
-4.3395e-07 7.861e-07 0.000748283
0 0 0
0 0 0
-0.00353755 -0.0474743 -0.0155936
-3.83826e-06 0.00107511 0.00847775
-7.89926e-06 0.00935662 0.0866198
-5.39707e-06 -2.29997e-05 0.000192724
0.00346374 -0.00226335 0.0657415
-0.000576444 0.00713401 0.0498877
-0.000126381 0.00103969 0.0157399
-4.04899 -2.83754 18.8948
-2.29599 -5.47167 19.5634
-1.69977 -1.70575 17.6296
1.27548 0.502676 15.2761
0.594394 1.28678 13.5558
0.535321 0.975084 6.67481
-5.11312 2.00847 19.6405
-3.27613 1.7908 16.1828
-1.96485 2.93911 20.1649
0.96318 -0.564184 14.9372
-0.24616 -0.28072 3.89935
0.214667 -0.707707 19.9302
2.33618 -5.31755 19.558
1.72257 -1.63711 17.6984
3.92168 -2.85492 18.814
-0.60816 1.28203 13.5732
-0.372857 0.918871 6.35166
-1.27679 0.473981 15.533
3.28474 1.73171 16.3312
1.97093 2.91802 20.1684
5.14587 2.03129 19.6304
0.38145 -0.140364 2.94548
-0.22991 -0.706973 19.2769
-0.957237 -0.570248 14.8825
-0.313113 0.190337 14.1251
-0.147928 0.182357 15.2465
0.122044 -0.412634 15.9665
0.395697 0.241945 14.9094
-1.86499 -1.02901 20.5263
-2.82553 2.00713 21.4851
-0.385559 -0.0619538 18.5139
-0.484052 0.140056 21.8123
0.155233 0.158368 15.3641
0.313135 0.196289 14.1255
-0.395352 0.234828 15.0232
-0.119092 -0.412867 16.1647
2.83823 2.07818 21.4783
1.87539 -1.01988 20.5956
0.426345 0.162544 21.4697
0.392389 -0.0700775 18.5399
-0.950633 -0.648687 19.7442
-0.637632 -0.305635 19.6517
-0.5438 -0.486713 19.492
-1.15255 -1.09171 21.1618
-1.8027 -1.13114 20.063
-1.64054 -2.06236 19.9585
-0.160353 -0.407928 21.4028
-0.606712 -0.677944 21.5067
-0.177086 -0.739314 21.7688
0.405407 -0.0745905 21.4939
0.0660083 -0.375977 21.5346
0.33942 -0.1756 21.4745
0.850406 0.241156 21.1678
0.851763 0.0618788 21.42
0.959275 0.628955 20.9676
0.966938 0.248733 20.7223
1.06056 0.139737 20.9608
1.14887 0.71122 20.3692
1.06105 0.0995771 20.3857
1.19789 0.657654 19.8924
-1.40542 -0.559187 19.4978
-0.916371 -0.113831 19.4389
-0.773928 -0.438751 19.1933
-1.8633 -1.06381 21.484
-2.92945 -0.314924 20.0132
-0.321807 -0.552109 21.572
-1.03496 -0.524173 21.6179
0.395491 -0.312338 21.6142
-0.307161 -0.413912 21.6155
1.06051 -0.0351238 21.1726
0.897672 -0.397175 21.3035
1.10123 -0.0994833 21.0004
1.14536 -0.419554 20.9617
1.53217 0.509468 17.0865
0.966084 -0.349612 20.4538
1.32661 0.218975 18.5249
-1.86846 0.330713 19.4402
-0.925217 0.505616 19.6166
-1.18538 0.252333 18.8579
-1.96695 0.151889 21.3409
-1.59892 0.9136 20.3918
-0.802804 -0.332623 21.5821
-1.18276 0.315258 21.2681
0.126248 -0.374087 21.7152
-0.355321 -0.0638953 21.5497
0.748015 -0.64015 21.1825
0.238074 -0.46761 21.2546
0.826582 -0.553931 21.1527
0.426268 -0.603723 21.012
1.07697 -0.8291 18.8563
0.413236 -0.501124 20.7559
0.79393 -0.748242 18.9782
-0.82937 0.738325 20.1425
-0.650815 0.802881 19.7398
-0.885342 0.656704 20.8226
-1.00628 1.18865 20.4013
-0.505011 0.250193 21.3043
-0.888283 0.820401 21.2115
-0.0398762 -0.170382 21.2599
-0.259051 0.0925615 21.4776
0.167729 -0.368368 21.0358
0.0779273 -0.372043 21.1964
0.178006 -0.400932 20.7428
0.17599 -0.500588 20.8731
0.163048 -0.439847 20.5162
-0.906496 -1.47217 18.9719
-0.530311 -0.598434 19.0815
0.0240325 -0.753123 19.0745
-0.399963 -1.54667 22.4007
0.0377623 -4.4574 20.096
0.125707 0.0348422 21.3651
0.0213178 -0.743525 21.107
0.559981 0.758478 20.5166
-0.00572637 0.121132 19.7468
0.738693 1.38229 19.6278
-0.00643731 1.04326 17.5061
0.88098 1.41288 19.1363
0.916014 1.53616 15.0619
0.0131714 1.35008 17.8835
1.11152 1.23229 16.7076
0.0454147 1.54107 17.5681
-0.904661 -0.241832 18.3451
0.0300513 -0.735515 18.409
1.39518 1.47699 12.0906
1.0236 0.268797 4.49121
-0.0463289 0.477036 4.88616
1.62285 0.282979 10.0215
0.120217 1.28931 8.55639
-0.877606 1.1237 18.7808
0.0432223 0.561702 17.2868
1.24357 -0.974117 11.567
0.311993 -0.942422 20.5164
0.0705616 -0.324809 -1.96894
0.29631 -0.766261 20.4267
0.124307 -0.296635 2.1196
-0.733201 1.50624 19.8272
0.0107692 1.3046 19.3653
-0.972817 1.58149 20.7672
0.00864588 2.19621 20.2006
-0.573506 0.735894 21.6571
-0.0215809 2.10275 21.3719
-0.0560481 -0.208607 21.4557
-0.0149287 0.289239 21.8185
0.0978744 -0.489996 21.0741
-0.00440056 -0.408172 21.2535
0.172628 -0.538644 20.7065
0.00470478 -0.553661 21.0856
-0.0126995 -0.654442 20.5394
0.931024 -1.42799 19.0208
0.555189 -0.578922 19.1182
0.547361 -0.459391 19.5295
0.374225 -1.5581 22.3059
1.63724 -1.9787 19.9802
-0.144264 -0.00798039 21.4325
0.20616 -0.740961 21.7356
-0.578234 0.741305 20.5809
-0.322752 -0.194613 21.5426
-0.712621 1.39668 19.6372
-0.957216 0.604372 20.9908
-0.729806 1.5151 19.1448
-0.785941 1.58173 14.7526
-1.16877 0.820248 20.3123
-1.03173 1.42232 16.2665
-1.18659 0.752577 19.8264
0.931222 -0.230093 18.4106
0.782311 -0.422535 19.236
-1.18654 1.53195 11.1918
-0.938503 0.470627 2.72336
-1.53741 0.665581 15.9451
-1.7621 0.580644 7.2309
-1.41328 0.43633 16.4634
0.899399 1.08893 18.827
1.18318 0.229594 18.9171
-1.04725 -0.843665 8.55631
-0.289386 -0.949377 19.7936
-1.13746 -0.809152 17.3234
-0.246017 -0.767626 20.3464
-0.823907 -0.811647 17.2644
0.746515 1.48466 19.8364
0.654367 0.787756 19.7456
0.970844 1.58462 20.7662
1.00824 1.17903 20.4036
0.560371 0.770823 21.68
0.898322 0.846078 21.2176
0.0538828 -0.211788 21.4734
0.259031 0.107907 21.5019
-0.0814198 -0.497704 21.08
-0.073333 -0.375971 21.2034
-0.167298 -0.570084 20.7374
-0.165104 -0.503289 20.8779
-0.0927705 -0.477318 20.4484
0.934069 -0.622557 19.7735
0.638008 -0.295065 19.6789
1.13739 -1.04488 21.1349
1.78216 -1.10776 20.0682
0.169379 -0.400037 21.3922
0.60798 -0.677799 21.4991
-0.400717 -0.077108 21.4864
-0.0610195 -0.366443 21.5191
-0.852637 0.247134 21.1638
-0.835229 0.0533445 21.4094
-1.01984 0.28312 20.6562
-1.09563 0.159491 20.9636
-1.15957 0.184736 20.1308
1.38978 -0.541651 19.5281
0.899966 -0.113046 19.4747
1.86324 -1.07267 21.4845
2.9468 -0.319381 20.0044
0.323377 -0.551059 21.5608
1.03701 -0.527532 21.622
-0.387991 -0.311583 21.6109
0.30161 -0.412607 21.6119
-1.08485 -0.0302706 21.083
-0.888166 -0.395713 21.2935
-1.16875 -0.0545021 20.9374
-1.21788 -0.449385 20.82
-1.08534 -0.29952 19.5364
1.84426 0.321938 19.4609
0.914055 0.491042 19.6347
1.98032 0.153725 21.3475
1.59895 0.91243 20.3932
0.808774 -0.336382 21.5843
1.19999 0.324935 21.2746
-0.124996 -0.373374 21.7078
0.363907 -0.0572237 21.5656
-0.757772 -0.679403 21.1383
-0.236702 -0.48165 21.2603
-0.848026 -0.619592 21.1442
-0.425393 -0.640847 21.0207
-0.418295 -0.554894 20.7458
0.824728 0.727609 20.1489
0.890487 0.663805 20.8225
0.51364 0.263019 21.3164
0.0491859 -0.172457 21.29
-0.16145 -0.382883 21.0388
-0.210677 -0.422628 20.7824
-1.14487 -0.638789 19.6211
-1.23243 -1.68674 18.4498
-1.03722 -1.03936 19.3905
-1.71619 -0.983609 18.735
-0.652311 -0.454199 19.3572
-2.4687 -2.58643 19.6284
-1.46191 -1.1419 21.3332
-0.149818 -0.644232 18.9321
-0.898752 -1.76756 21.684
-1.36292 -1.85782 18.547
-0.159425 -0.740282 20.7423
-0.204759 -0.485386 21.486
0.0565761 0.133453 14.5587
0.0923536 -0.396871 21.4945
-0.0720027 -0.0551275 14.8332
0.32803 -0.263481 19.6329
0.439002 -0.195711 21.5856
0.638162 0.656377 13.7294
0.667688 0.210892 21.2607
0.652475 -0.188006 15.5021
1.21985 0.636313 19.0397
0.993224 0.136602 21.1936
0.716523 1.39773 14.4048
1.06632 0.748319 20.6187
1.4146 0.46466 16.3707
1.40981 0.692855 19.0786
1.05654 0.0717509 20.8455
1.13705 1.50612 16.0751
1.16835 0.664088 20.3586
1.4819 0.505903 17.1894
1.31275 0.505266 19.4614
-1.72222 -0.195039 19.3928
-2.92205 -0.643878 15.9279
-2.70378 0.831198 18.334
-1.00557 -0.168812 18.9374
-6.68526 -0.542189 18.3498
-2.19177 -0.442706 21.5652
-2.83959 0.175478 21.8903
-0.237982 -0.764824 15.3896
-0.576155 -0.497343 21.6084
-1.10855 -0.853168 19.3628
-0.304727 -0.149399 15.1603
0.212206 -0.391494 21.6595
0.58263 0.210694 17.2479
1.11125 0.0042199 10.5725
1.05547 -0.413559 21.1175
-0.112906 -0.0766116 1.58044
0.952989 -0.685924 17.5204
1.51015 -0.304647 15.6984
1.03406 -0.359471 21.0825
1.46929 0.177432 8.7027
1.10807 -0.845209 18.4091
1.33794 -0.331223 17.1544
-1.36834 0.765478 19.8432
-1.60519 2.38873 18.927
-0.874419 1.08662 19.9852
-0.983678 0.756352 19.2846
-2.02198 1.74817 20.302
-1.44328 0.609705 20.9626
-2.17107 2.11702 20.74
-1.01499 1.06389 20.821
-1.80204 0.690983 21.4278
-0.795599 0.106521 21.4796
-1.73956 0.957067 22.1547
-0.581821 0.454734 21.4584
-0.469997 0.0023399 21.8283
0.0147633 -0.283316 21.4799
0.116463 -0.483253 20.827
-0.0357007 -0.189489 21.3612
0.195645 -0.633535 21.416
0.3541 -0.542594 21.1214
0.211514 -0.809269 20.5643
0.135959 -0.459256 21.0473
0.375774 -0.781109 20.9827
0.389772 -0.549636 20.5747
0.325891 -0.949635 20.6442
0.232519 -0.466185 20.7982
0.40165 -0.684476 20.4991
1.26537 -1.64599 18.5102
0.0310178 -2.00142 18.583
0.0376314 -2.55815 16.3511
0.0225026 -0.757025 18.8059
0.0176376 -7.28413 20.1598
0.126961 -0.724664 19.1524
0.0458718 -2.16939 22.6358
-0.00542588 -0.182998 10.6681
-0.0450101 0.125947 14.7458
0.00342771 -0.306979 19.8992
-0.0150444 0.14073 10.8772
-0.643416 0.651617 13.7755
-0.00769813 0.770881 18.3635
-0.00781705 0.838962 9.75984
-0.655001 1.39822 14.2266
1.16023e-05 1.14407 17.7488
-0.0863501 -0.12418 3.20603
-0.0364078 1.11254 12.3103
-0.969444 1.63418 16.1206
0.0354553 1.375 17.3905
0.0664922 1.26078 7.10824
0.111594 1.69512 14.1653
2.96355 -0.605105 16.0766
0.0608285 3.74784 13.0104
0.0458539 -0.335699 17.6931
0.317658 0.0253517 1.04028
-0.0121502 0.581648 -2.08032
0.130566 -0.545442 -3.7682
-1.36594 0.454377 5.40618
0.172178 -0.220961 -1.08588
0.103159 1.13379 0.093329
1.62371 2.31727 18.9586
0.0117417 1.91549 19.6563
0.019075 1.52504 18.2948
0.00941882 4.18269 19.9422
2.17109 2.1219 20.7387
-0.00276979 2.23737 20.6156
-0.0234679 4.90936 21.0368
1.75656 1.01134 22.1213
-0.0242085 1.16067 21.9231
-0.0171091 0.327292 20.6517
-0.17563 -0.480496 20.3182
-0.00900087 -0.193327 21.5273
-0.00553639 -0.568066 16.5393
-0.236031 -0.789288 19.5608
-0.00258007 -0.5221 21.0951
0.0274001 -0.856445 16.8105
-0.229057 -0.9831 20.2978
0.0261067 -0.51526 20.9742
0.0434077 -0.62362 18.3074
1.13254 -0.621774 19.6445
1.03759 -1.00329 19.4331
1.70605 -0.967538 18.7818
0.653867 -0.443449 19.4021
2.38014 -2.47513 19.6544
1.45012 -1.11739 21.3135
0.944881 -1.72804 21.6445
1.34853 -1.84307 18.5251
0.174081 -0.756719 20.8635
0.213386 -0.482712 21.475
-0.0748486 -0.408567 21.4697
0.0721178 -0.0586255 15.0371
-0.325211 -0.284411 19.9025
-0.427875 -0.195527 21.5716
-0.661147 0.183287 21.3177
-0.654094 -0.194755 15.7589
-1.22117 0.611165 19.1663
-1.0089 0.141348 21.191
-1.06703 0.774728 20.5616
-1.36219 0.552937 15.3737
-1.40377 0.825741 18.3062
-1.11577 0.116381 20.7692
-1.16131 0.741406 20.4003
-1.54894 0.719544 15.8486
-1.35799 0.693303 17.9812
1.70165 -0.199414 19.4242
2.66777 0.793935 18.3951
1.01388 -0.161066 18.9873
6.7218 -0.553694 18.3436
2.1979 -0.448231 21.5686
2.8467 0.167681 21.8684
0.230126 -0.756255 15.2601
0.577064 -0.500472 21.6073
1.11535 -0.859006 19.473
0.300199 -0.162979 15.3181
-0.212286 -0.389364 21.6506
-0.586867 0.208345 17.2207
-1.11111 0.0110923 10.6755
-1.08034 -0.430323 21.0677
-0.906384 -0.64298 16.2786
-1.4493 -0.22889 13.3221
-1.13095 -0.387618 20.8113
-1.24957 -0.9218 16.7122
-1.38994 -0.273235 15.2639
1.35456 0.751703 19.8538
0.876086 1.07067 19.9887
0.98682 0.728564 19.3081
2.01978 1.73769 20.3042
1.45359 0.615196 20.9666
1.01591 1.0705 20.8202
1.83642 0.714872 21.4347
0.815695 0.115454 21.4944
0.586252 0.482551 21.477
0.48151 0.018021 21.8556
-0.0145125 -0.290273 21.493
0.0406577 -0.187475 21.3818
-0.187309 -0.649508 21.4137
-0.357244 -0.563241 21.1296
-0.133424 -0.466162 21.0658
-0.329199 -0.832176 20.9816
-0.387747 -0.612991 20.6211
-0.220996 -0.48653 20.776
-0.412975 -0.719365 20.3943
-1.35067 -1.09627 19.1113
-1.16366 -2.38464 22.412
0.0301505 -0.339092 19.7331
0.797256 0.104683 19.1799
1.34769 0.693987 19.0033
1.43129 0.630287 19.2435
-2.50611 -0.333913 18.1999
-2.59209 -0.768995 20.2801
-0.0789526 -0.558064 15.0686
0.170474 -0.00440252 14.223
1.23953 -0.221379 13.5865
1.70923 -0.425201 16.7547
-1.63732 1.39875 19.4467
-1.92173 1.12152 20.9988
-1.18535 0.310578 21.806
0.00748939 -0.368545 21.6818
0.290242 -0.730554 21.1946
0.406809 -0.783239 20.757
0.0341111 -2.38398 17.7239
0.0101428 -1.17767 15.5504
-0.0126363 -0.079208 10.1185
-0.0104865 0.712147 9.78449
-0.0142984 0.817903 11.0415
0.0492751 1.53054 13.1927
0.0532929 -0.881314 13.0163
-0.0139909 -0.558282 -3.2635
0.173175 0.114842 -2.64721
0.0232554 3.51523 18.367
-0.00406625 3.61981 20.1502
-0.0265528 2.3709 22.4292
-0.00637185 -0.438907 18.1435
0.00112452 -0.571307 16.434
0.0353519 -1.05246 18.1214
1.33558 -1.05602 19.1551
1.22107 -2.34691 22.4048
-0.035318 -0.361002 19.9632
-0.791959 0.0819595 19.3647
-1.32337 0.746552 18.6523
-1.45479 0.793477 18.2264
2.4688 -0.337395 18.2753
2.55553 -0.772528 20.0894
0.078705 -0.562856 15.1188
-0.172297 -0.012043 14.3654
-1.12632 -0.206426 11.9229
-1.75361 -0.354905 15.171
1.63804 1.3672 19.4698
1.9299 1.13138 20.9974
1.21347 0.34074 21.8297
0.00307835 -0.373695 21.7284
-0.269195 -0.760233 21.1995
-0.414932 -0.869926 20.7563
-3.99162 -1.48784 3.4522
-0.152178 -0.459449 1.89687
-0.0120564 0.000253908 0.120087
-0.00412108 -0.0113071 -0.0101414
-0.00110561 0.00079535 0.00321363
0.0213165 0.0421627 0.239236
-2.02108e-16 8.35171e-17 1.1874e-16
-0.0185683 0.128607 0.357479
-0.152997 0.0743909 0.700548
-0.0144482 -0.0129016 -0.00533007
-0.0543172 0.0285745 -0.0475235
-0.00482009 -0.0111934 0.0562735
0.129825 -0.733702 1.8162
3.97964 -1.49469 3.44224
0.0116678 0.00024167 0.12012
0.000789735 0.000580152 0.00234276
0.00410989 -0.0114467 -0.0102715
-0.0282102 0.0548008 0.309801
0.0179745 0.129235 0.358647
0 0 0
0.152676 0.0741611 0.698667
0.0501674 0.0311032 -0.0501653
0.0145473 -0.0131414 -0.00547597
0.00478938 -0.011041 0.0556096
-0.00434778 0.000514613 0.0613011
0 0 0
0 0 0
0.000523536 5.84794e-05 0.00531912
0.0309995 0.0214354 0.372221
0 0 0
0 0 0
0 0 0
-0.0520224 -0.0261772 0.094236
-0.00133398 -0.00787709 0.0740527
0 0 0
-0.0191942 0.0215749 0.0532368
0 0 0
0.0004231 0.00121736 0.00285734
0 0 0
0.0194006 -0.00672967 0.10821
0.0037681 0.000480704 0.054593
-0.000534621 5.88038e-05 0.00532256
0 0 0
9.37569e-19 -8.42793e-19 -1.26738e-17
-0.00919313 0.00847051 0.168334
0 0 0
0 0 0
0 0 0
0.0533567 -0.0268344 0.0966598
0.0196169 0.0219173 0.0541729
0.00130418 -0.00778547 0.0737877
0 0 0
0 0 0
-0.019451 -0.00670589 0.108116
-0.000424573 0.00122321 0.00286955
-8.39059e-18 1.14496e-17 3.44555e-17
-0.732518 -0.0810869 1.78435
-1.16909 0.302189 -0.0237895
0 0 0
-0.000684435 -0.411206 0.146608
0 0 0
0.00114086 -0.000120559 0.0228997
0.0417438 -0.000489751 0.164137
-0.171585 -0.0279336 -0.0250334
-0.00102214 0.044845 0.384161
-0.00376192 -0.122997 -0.0471583
0 0 0
0.0534557 0.0805123 0.5893
0.000330863 0.0903444 0.0347887
0.000368359 0.0980923 0.330033
-0.00708208 -0.013346 0.138869
-0.0100775 0.00252945 0.0302912
0 0 0
0 0 0
0.109912 0.0635743 1.22378
-3.26338e-05 -0.00182962 0.00658259
1.1191 0.271349 0.0785719
0.729986 -0.0808469 1.78081
-0.00117111 -0.000116725 0.022409
0 0 0
0.174673 -0.0291941 -0.0267864
-0.0424487 -0.000738319 0.167133
-0.0540453 0.0804457 0.58878
0 0 0
0.0100662 0.00252152 0.0302107
0.00568149 -0.0103947 0.10665
-1.13705e-05 -0.0017856 0.00644429
-0.10969 0.0625606 1.20121
0 0 0
0.00167815 0.000141636 0.0203734
0.00650119 -0.00161754 0.101479
2.36453e-05 0.000624032 0.00885212
2.47697e-07 -6.47348e-08 2.72464e-05
2.82517e-09 -8.07088e-09 -3.48061e-06
0.000523547 0.00570593 0.0321867
-0.00339157 -0.00279852 0.0614167
4.98441e-09 -4.71354e-08 -1.05325e-05
0 0 0
0.00234304 0.012947 0.068952
-0.00588451 0.0257364 0.318214
0 0 0
-5.66716e-06 0.00424525 0.0167693
-4.03297e-07 -2.8673e-05 0.0251259
-1.37188e-05 -0.00260644 0.017825
-0.00207729 0.000173133 0.0249992
0 0 0
-0.00509027 -0.000779314 0.083893
-1.63732e-05 0.000617408 0.00880751
-0.000530384 0.00575634 0.0319186
0.00352499 -0.00285821 0.0644654
0.00585031 0.0256954 0.317738
-0.00227461 0.012663 0.0678361
-2.51862 -0.353923 3.56128
-0.930305 -0.139802 2.3222
0 0 0
-0.0215917 -0.0998066 0.241577
0 0 0
0.00114853 0.00800703 0.0499166
0 0 0
0.00417939 0.025848 0.0946627
0 0 0
0 0 0
0.0243643 0.0342429 0.335075
0 0 0
0.00470128 0.000627394 0.0256677
-0.00492902 0.000699996 0.0241055
0.000417732 6.20054e-05 0.00898386
-0.000431456 6.37702e-05 0.00894054
0.00252388 0.000137291 0.0287327
-0.00257224 0.000139957 0.0288902
0 0 0
0 0 0