# vtk DataFile Version 2.0
tri_press
ASCII
DATASET UNSTRUCTURED_GRID
POINTS 3682 float
-0.585 0.085 -1.9414
-0.695 0.175 1.77782
-0.647814 0.635 -1.725
-0.575 0.835 1.80332
0.585 0.085 -1.9414
0.695 0.175 1.77782
0.647814 0.635 -1.725
0.575 0.835 1.80336
-0.636566 0.1001 -0.70166
-0.702146 0.101188 0.53808
-0.69938 0.777504 -0.548893
-0.6711 0.840162 0.627213
0.636567 0.1001 -0.70166
0.70215 0.101183 0.53808
0.699364 0.777488 -0.54888
0.671093 0.840155 0.62724
-1.23964 -0.294038 -2.97977
-1.24471 -0.242137 -2.01346
-1.28784 -0.229125 -0.772077
-1.33601 -0.232094 0.482112
-1.34056 -0.185891 1.72457
-1.34167 -0.147591 2.69617
-1.34782 -0.114358 3.65798
-1.24204 0.0155444 -2.89444
-1.24897 0.0813659 -1.93508
-1.30004 0.112251 -0.706082
-1.34316 0.113839 0.528647
-1.32721 0.157396 1.75887
-1.33579 0.194749 2.72956
-1.34804 0.22783 3.69345
-1.27084 0.613444 -2.70593
-1.29879 0.67737 -1.74395
-1.34411 0.785451 -0.558322
-1.3247 0.831841 0.622791
-1.2572 0.840536 1.80963
-1.30094 0.875463 2.78297
-1.33966 0.912282 3.75712
-1.30053 1.59602 -2.47101
-1.31792 1.66999 -1.51855
-1.33961 1.78266 -0.353555
-1.34167 1.86462 0.797727
-1.33086 1.90198 1.96339
-1.33637 1.92565 2.91724
-1.35379 1.95443 3.88445
-0.599699 -0.292547 -2.98387
-0.596927 -0.238367 -2.01945
-0.627975 -0.234811 -0.771269
-0.673648 -0.240862 0.490161
-0.683304 -0.17866 1.73864
-0.688955 -0.142852 2.70571
-0.695869 -0.112786 3.66351
-0.598128 0.0121133 -2.89571
-0.695457 0.200093 2.73744
-0.701606 0.229296 3.69763
-0.619905 0.594624 -2.69806
-0.666886 0.874486 2.78171
-0.699855 0.91173 3.75686
-0.643008 1.58324 -2.46323
-0.655434 1.65804 -1.50997
-0.675915 1.77965 -0.348381
-0.686564 1.8675 0.797116
-0.685919 1.90301 1.95897
-0.693481 1.92513 2.91283
-0.709395 1.95369 3.88124
0.641572 -0.292549 -2.98387
0.622445 -0.238368 -2.01944
0.657789 -0.234812 -0.771268
0.699005 -0.240865 0.490163
0.689488 -0.178662 1.73865
0.647251 -0.142853 2.70572
0.621522 -0.112788 3.66352
0.638266 0.0121113 -2.8957
0.624664 0.200092 2.73745
0.605442 0.229293 3.69764
0.656886 0.594622 -2.69806
0.581762 0.874485 2.78174
0.582736 0.911727 3.75688
0.667399 1.58324 -2.46322
0.667537 1.65803 -1.50997
0.65883 1.77965 -0.348368
0.631565 1.8675 0.797135
0.601298 1.90301 1.959
0.587638 1.92513 2.91285
0.578181 1.95369 3.88126
1.27497 -0.294044 -2.97976
1.26119 -0.242143 -2.01345
1.30669 -0.229131 -0.772068
1.35983 -0.232102 0.482124
1.35264 -0.185896 1.72459
1.31401 -0.147595 2.69619
1.28451 -0.114363 3.65801
1.26994 0.0155385 -2.89444
1.24721 0.0813596 -1.93508
1.2992 0.112243 -0.706071
1.35302 0.113831 0.528663
1.33518 0.157392 1.75889
1.29172 0.194745 2.72959
1.26698 0.227825 3.69348
1.29413 0.613437 -2.70593
1.29415 0.677361 -1.74394
1.33763 0.785433 -0.5583
1.32589 0.831829 0.622829
1.25514 0.840531 1.80968
1.23989 0.875459 2.78301
1.23702 0.912277 3.75716
1.31962 1.59601 -2.47099
1.32324 1.66998 -1.51853
1.32033 1.78265 -0.353529
1.29297 1.86461 0.797763
1.25561 1.90197 1.96343
1.23765 1.92564 2.91728
1.22816 1.95442 3.88448
-0.58875 0.36 -1.80554
0 0.0804529 -1.94595
-0.619968 0.083365 -1.32153
-0.668719 0.505 1.82429
0 0.241149 1.71167
-0.711567 0.1251 1.15795
0 0.668747 -1.75875
-0.714927 0.747582 -1.13695
0 0.897238 1.86558
-0.654886 0.869417 1.21527
0.588745 0.36 -1.80554
0.619932 0.0834015 -1.32153
0.668704 0.505 1.82429
0.711763 0.124904 1.15795
0.71491 0.747565 -1.13694
0.654884 0.869415 1.2153
-0.669286 0.100714 -0.08179
-0.801648 0.438802 -0.625277
2.12051e-07 0.0940396 -0.70166
-0.839295 0.470675 0.582647
2.33256e-06 0.0976487 0.53808
-0.68625 0.809843 0.03916
-7.77609e-06 1.02219 -0.548887
-3.53507e-06 1.18419 0.627227
0.669289 0.100711 -0.08179
0.801648 0.438794 -0.62527
0.839442 0.470669 0.58266
0.68625 0.809843 0.03918
-0.863453 0.399401 -1.22924
0.863454 0.399397 -1.22924
1.06026e-07 0.0763201 -1.32153
-3.88805e-06 0.824192 -1.13694
0 0.36 -1.89136
-0.808453 0.454738 -0.021315
0.808452 0.454732 -0.021305
1.27231e-06 0.0958453 -0.08179
-5.65558e-06 1.19674 0.03917
-0.893361 0.487837 1.18661
0.893363 0.487834 1.18663
1.16628e-06 0.194342 1.15795
-1.76753e-06 1.07086 1.21528
0 0.505 2.03913
-0.583231 0.2225 -1.86983
-0.2925 0.0804569 -1.94594
-0.597445 0.0892215 -1.63147
-0.6819 0.34 1.80109
-0.3475 0.29243 1.66039
-0.708069 0.145264 1.46789
-0.600944 0.4975 -1.74793
-0.323907 0.69037 -1.78037
-0.704751 0.714671 -1.43097
-0.626096 0.67 1.81804
-0.2875 0.890506 1.85884
-0.621603 0.858869 1.50929
0.2925 0.0804534 -1.94595
0.583235 0.2225 -1.86983
0.597425 0.0892419 -1.63147
0.3475 0.292497 1.66032
0.681873 0.34 1.80108
0.709589 0.143744 1.46789
0.323907 0.690388 -1.78039
0.600962 0.4975 -1.74795
0.704748 0.714669 -1.43097
0.2875 0.890388 1.85874
0.62607 0.67 1.81804
0.6216 0.858865 1.50933
-0.635572 0.0844277 -1.0116
-0.652864 0.100469 -0.391725
-0.804526 0.226742 -0.663468
-0.320736 0.0921641 -0.70166
-0.710566 0.109434 0.848015
-0.685717 0.100949 0.228145
-0.831204 0.255689 0.560363
-0.350898 0.0997657 0.53808
-0.706987 0.762376 -0.84292
-0.781212 0.623502 -0.587085
-0.692733 0.793592 -0.254867
-0.39747 0.9954 -0.54889
-0.663188 0.854985 0.92124
-0.796458 0.676049 0.60493
-0.678816 0.825143 0.333187
-0.411176 1.16343 0.62722
0.634917 0.0850834 -1.0116
0.320739 0.0921591 -0.70166
0.652866 0.100468 -0.391725
0.804529 0.226737 -0.663465
0.708216 0.111784 0.848015
0.350976 0.0996158 0.53808
0.685718 0.100949 0.228145
0.831218 0.255715 0.56037
0.707 0.762389 -0.84291
0.39746 0.995405 -0.548883
0.781205 0.62349 -0.587075
0.692719 0.793578 -0.25485
0.663189 0.854985 0.92127
0.411174 1.16343 0.627233
0.796492 0.676024 0.60495
0.678809 0.825137 0.33321
-0.85117 0.379701 -1.51739
-0.294375 0.36 -2.00297
5.30128e-08 0.0842355 -1.63374
0 0.220226 -2.02179
-0.84729 0.241383 -1.27538
-0.309984 0.0763479 -1.32153
-0.869179 0.496419 1.50545
-0.33436 0.505 2.0136
5.83141e-07 0.215325 1.43481
0 0.373074 2.06257
-0.877398 0.306469 1.17228
-0.355783 0.157199 1.15795
-1.94402e-06 0.783176 -1.44785
0 0.514374 -1.95089
-0.873344 0.573492 -1.18309
-0.357466 0.811758 -1.13695
-8.83767e-07 0.952129 1.54043
0 0.701119 1.86793
-0.886903 0.678627 1.20094
-0.327444 1.05552 1.21528
0.851161 0.379699 -1.51739
0.294372 0.36 -2.00297
0.847281 0.241399 -1.27538
0.309966 0.0763574 -1.32153
0.869184 0.496417 1.50546
0.334352 0.505 2.01354
0.877378 0.306369 1.17229
0.355882 0.157234 1.15795
0.873339 0.573481 -1.18309
0.357453 0.811756 -1.13694
0.886705 0.678625 1.20096
0.327441 1.05552 1.21529
-0.812519 0.240902 -0.0515525
-0.335928 0.0957077 -0.08179
-0.8718 0.419102 -0.927258
-0.804182 0.44677 -0.323296
1.59038e-07 0.0777524 -1.0116
7.4218e-07 0.0949417 -0.391725
-0.807823 0.462707 0.280666
-0.895452 0.479256 0.884628
1.80244e-06 0.0973314 0.228145
1.74942e-06 0.176694 0.848015
-0.785965 0.651598 0.0089225
-0.428162 1.17336 0.039165
-5.83207e-06 0.851704 -0.842915
-6.71584e-06 1.15003 -0.254858
-4.59532e-06 1.2021 0.333198
-2.6513e-06 1.14618 0.921255
0.812519 0.240897 -0.0515475
0.336068 0.0954328 -0.08179
0.870598 0.419096 -0.927253
0.804185 0.446763 -0.323288
0.807816 0.4627 0.280678
0.895453 0.479252 0.884643
0.785946 0.651585 0.00893748
0.428156 1.17336 0.039175
-0.832163 0.231942 -1.57443
-0.858153 0.255417 -0.969426
-0.826128 0.590822 -0.885089
-0.858964 0.535496 -1.47418
0.832176 0.23195 -1.57443
0.85895 0.535491 -1.47418
0.826132 0.590811 -0.885081
0.858158 0.255423 -0.969424
-0.301242 0.08419 -1.6326
0.301233 0.0841966 -1.6326
0.314125 0.0777986 -1.0116
-0.314134 0.077799 -1.0116
-0.340686 0.770625 -1.43941
-0.35358 0.843633 -0.842918
0.353566 0.836757 -0.842913
0.34068 0.770607 -1.43941
-0.293437 0.221363 -2.01141
-0.309141 0.505937 -1.91997
0.30914 0.505937 -1.9007
0.293436 0.221363 -2.01135
-0.807881 0.234143 -0.357511
-0.815714 0.251369 0.254405
-0.786673 0.661554 0.306926
-0.782884 0.637198 -0.289081
0.807878 0.23414 -0.357506
0.782897 0.637199 -0.289069
0.786648 0.661519 0.306944
0.815715 0.251382 0.254411
-0.3285 0.0935994 -0.391725
0.328509 0.0935855 -0.391725
0.343127 0.0983154 0.228145
-0.343172 0.098219 0.228145
-0.43075 1.12025 -0.254863
-0.425122 1.1793 0.333193
0.425118 1.1793 0.333204
0.430767 1.1203 -0.254854
-0.883809 0.2962 0.866321
-0.869594 0.323234 1.48667
-0.784444 0.674314 1.50737
-0.849642 0.667023 0.902934
0.883828 0.296147 0.866329
0.84961 0.667018 0.902956
0.784396 0.674312 1.50739
0.86964 0.323184 1.48667
-0.353427 0.151351 0.848015
0.353479 0.150108 0.848015
0.351691 0.253547 1.45135
-0.351641 0.253635 1.45135
-0.331498 1.13465 0.921248
-0.307472 0.943764 1.52486
0.307471 0.943772 1.52488
0.331493 1.13458 0.921263
-0.34093 0.356537 1.92937
0.340926 0.356537 1.92936
0.310926 0.685559 1.91728
-0.31093 0.685559 1.91728
-0.557287 0.15375 -1.87878
-0.43875 0.0818152 -1.94458
-0.589307 0.0890268 -1.78643
-0.683205 0.2575 1.78421
-0.52125 0.217259 1.73556
-0.696835 0.164831 1.62285
-0.653664 0.56625 -1.76575
-0.48586 0.675816 -1.76582
-0.686466 0.685019 -1.57799
-0.601926 0.7525 1.81206
-0.43125 0.87215 1.84047
-0.599709 0.848342 1.65631
0.43875 0.0818042 -1.9446
0.556966 0.15375 -1.87846
0.589302 0.0890317 -1.78643
0.52125 0.217151 1.73567
0.683191 0.2575 1.7842
0.696919 0.164748 1.62285
0.48586 0.675753 -1.76575
0.653661 0.56625 -1.76575
0.686477 0.68503 -1.57799
0.43125 0.872107 1.84046
0.601707 0.7525 1.81187
0.599709 0.848342 1.65634
-0.62862 0.0997135 -0.856628
-0.644652 0.100348 -0.546693
-0.84013 0.103629 -0.682564
-0.478606 0.0962221 -0.70166
-0.709994 0.101673 0.693048
-0.693935 0.101065 0.383113
-0.875406 0.124073 0.549222
-0.527283 0.0989549 0.53808
-0.702827 0.769583 -0.695907
-0.757018 0.708864 -0.567989
-0.69595 0.785442 -0.40188
-0.586027 0.961656 -0.548892
-0.667315 0.847745 0.774227
-0.751474 0.766953 0.616072
-0.674952 0.832646 0.4802
-0.569953 1.05942 0.627217
0.628888 0.0994449 -0.856628
0.478606 0.0962225 -0.70166
0.644653 0.100347 -0.546693
0.840206 0.103589 -0.682563
0.709995 0.101672 0.693048
0.527286 0.0989547 0.53808
0.693936 0.101064 0.383113
0.87541 0.124086 0.549225
0.702836 0.769593 -0.695895
0.585645 0.960912 -0.548882
[...]
POINT_DATA 3682
SCALARS point_scalars float 1
LOOKUP_TABLE default
36.1414
-39.1028
-35.0029
-31.7688
35.6068
-39.0592
-35.0521
-31.5722
-38.8993
-40.8144
-55.2604
-46.3848
-38.8881
-40.884
-55.2111
-46.3961
26.0451
-77.6105
-43.3613
-35.6801
-46.7325
-39.5985
-30.146
26.0451
-106.269
-44.6646
-34.5314
-47.734
-31.686
-30.146
67.6446
-88.3275
-44.2225
-35.7387
-40.8407
-29.7869
-29.408
-36.2574
-62.098
-78.9385
-59.5676
-34.0607
-31.3003
-29.8752
102.743
26.0451
-40.3439
-40.0681
-37.0696
-30.146
-29.1835
102.743
-30.146
-29.1835
144.755
-28.8421
-27.1503
-13.9844
-45.0088
-79.049
-58.7371
-30.1296
-28.8307
-28.2106
11.4952
25.7521
-40.3031
-39.748
-36.9017
-30.0209
-28.8952
12.4434
-30.0209
-29.0303
147.601
-28.0819
-26.871
-14.2698
-45.6702
-79.2925
-57.2937
-29.3878
-28.73
-27.1861
11.4952
9.35628
-43.3407
-35.6729
-46.8009
-39.1525
-30.0209
12.7117
10.0965
-44.6378
-34.5224
-47.7734
-30.6604
-30.0209
21.499
-87.8339
-44.1624
-35.8262
-40.639
-29.6544
-29.29
-36.2936
-62.0335
-79.0395
-59.5323
-32.5484
-30.7948
-29.0415
115.699
-92.3486
-62.449
-31.8326
-33.0937
-38.5319
-48.3137
-53.5168
-28.658
-47.6375
116.164
-62.4557
-31.6744
-38.4767
-53.487
-47.5559
-35.753
-41.0637
-42.7479
-28.7241
-44.9946
-50.1239
0.1787
-63.0778
-35.7546
-41.0094
-28.7203
-50.0874
-74.8611
-74.7805
-63.8126
-18.1058
202.889
-35.6047
-35.6683
-38.5957
-88.0308
-46.5428
-46.4486
-38.9465
-41.2341
-21.3704
81.93
-172.234
-88.5745
-33.5461
-35.0998
-43.8962
67.1399
-51.8792
-63.429
-31.3765
-28.6681
-38.4849
-169.121
81.6914
-88.6112
-35.025
-33.3991
-43.9242
-52.1147
67.5295
-63.3878
-28.5708
-31.2045
-38.388
-48.7673
-36.0127
-42.4127
-41.099
-40.5989
-36.6185
-31.1364
-43.8922
-47.6842
-43.8191
-52.4012
-5.68934
-47.4759
-35.4772
-46.7894
-60.0484
-48.5962
-41.0784
-36.0088
-42.3723
-40.2575
-43.9547
-36.619
-31.0801
-47.6481
-5.73645
-43.7501
-52.3388
-47.4529
-60.025
-35.5492
-46.7686
-136.815
195.703
-95.6759
168.524
-77.0223
-61.2837
-48.657
-27.5054
-36.4856
-25.8825
-43.1255
-42.2525
-38.56
146.691
-72.4535
-24.5057
-32.9764
-23.6202
-52.9862
-42.1289
-136.272
196.243
-76.9178
-61.2366
-48.5261
-27.2552
-43.0566
-42.2432
-72.4171
-24.4982
-53.0122
-42.0967
-34.3133
-37.5478
-58.1793
-36.6272
-51.898
-39.0204
-32.7834
-45.7593
-40.3377
-43.0386
-40.5247
-79.3664
7.18944
-74.289
-75.4649
-52.0888
-34.3449
-37.5484
-58.1453
-36.6651
-32.809
-45.6911
-40.5463
-79.3325
-119.389
-55.0349
-54.4907
-109.484
-115.472
-109.465
-54.4386
-54.9619
-85.036
-85.14
-50.6466
-50.6975
-39.8977
1.08714
1.05403
-39.8796
177.93
163.613
167.138
179.204
-35.8754
-32.0127
-37.3299
-41.6382
-35.8887
-41.6298
-37.3706
-32.0214
-37.856
-37.8409
-39.2309
-39.2588
-65.6162
-68.4789
-68.4549
-65.6321
-43.7562
-48.2854
-44.4329
-40.7728
-43.684
-40.7505
-44.2404
-48.2398
-42.6213
-42.6391
-38.1995
-38.2191
-52.0791
-33.9651
-33.9154
-52.0565
-30.5998
-30.4712
-25.8023
-26.208
82.6929
-117.843
-126.487
-35.2391
-35.0002
-39.0964
0.828711
-39.7991
-56.7566
-31.7461
-29.4751
-34.6154
-117.178
82.2673
-126.726
-34.9285
-35.0852
-39.0481
-40.1695
0.689288
-56.8997
-29.3206
-31.5475
-34.4865
-44.2993
-36.9316
-40.1142
-39.779
-45.6177
-38.2119
-35.8339
-42.581
-53.6731
-48.3863
-53.5309
-51.5061
-46.9717
-42.6198
-46.2401
-53.3842
-44.2644
-39.7568
-36.923
-40.0997
-45.871
-42.6058
-38.2172
-35.8645
-53.6463
-52.289
-48.334
-53.4562
-46.9658
-53.3613
-42.6303
-46.257
126.41
98.8935
-50.3412
115.469
-103.085
-100.456
-140.964
-60.1095
-76.106
-53.7073
-75.6297
-60.0055
-32.409
-31.366
-37.7697
-29.3981
-34.0817
-34.0345
-34.8187
-27.4808
-40.1724
-38.8436
-40.5387
-38.867
-46.2568
-46.5912
-29.1725
71.6598
-59.145
-47.586
-67.6456
-33.5306
-28.5636
-28.5255
-30.4869
-24.0869
-43.2746
-48.161
-49.9723
-44.2259
126.339
101.577
-54.8828
114.983
-76.1059
-53.6792
-75.5859
-59.9667
-32.2568
-31.2516
-37.5972
-29.2786
-40.005
-38.7618
-40.4755
-38.8578
-59.1574
-47.5619
-67.6336
-33.5165
-43.015
-48.1126
-49.8759
-44.1752
-35.7299
-35.9201
-35.0794
-36.5019
-41.5184
-41.4216
-47.1634
-38.1052
-42.4259
-42.4119
-47.3601
-40.3655
-28.6358
-30.9949
-29.4166
-31.6052
-44.8844
-44.8853
-42.224
-52.1312
-51.7123
-48.2581
-45.0703
-61.6087
-1.17674
-1.27339
16.1484
-33.81
-62.4395
-62.4293
-68.6998
-57.7144
-35.7293
-35.9208
-35.0859
-36.5205
-41.4727
-41.3399
-47.0931
-38.0757
-28.5844
-31.0585
-29.4289
-31.5329
-51.4689
-48.2591
-45.062
-61.5835
-99.7447
-76.14
-73.2144
-63.6671
-99.583
-76.0332
-73.1713
-63.6369
-74.3136
-63.2821
-63.2374
-56.9074
-31.8135
-19.6094
-19.6161
-5.09806
201.825
201.191
201.356
200.326
-34.5547
-36.0788
-34.4861
-37.3554
-34.5931
-36.1489
-34.5265
-37.4206
-38.3314
-38.4733
-39.1382
-38.3268
-85.8301
-90.14
-82.6453
-85.8047
-49.1438
-44.8037
-48.4901
-45.8116
-49.0702
-44.7214
-48.3842
-45.7175
-37.6734
-39.2212
-39.2074
-40.2471
-36.3941
-41.4467
-41.432
-46.6131
-23.9119
-22.239
-22.6966
-23.5689
-32.2257
134.775
-122.166
115.154
-78.3286
-82.5562
-39.5633
-32.5878
-36.9276
-32.6857
-47.7626
-44.7759
-42.9661
115.724
-39.7428
96.49
-76.8613
-47.2713
-37.4086
-28.8919
-31.0972
-26.4433
-42.1496
-35.4815
-123.651
114.883
-33.3538
134.236
-74.9849
-82.5948
-36.863
-32.5815
-39.2687
-32.4204
-47.4964
-44.4613
-39.8101
90.458
-43.1559
114.461
-76.7765
-47.2659
-31.0347
-26.2215
-37.2253
-28.7285
-42.0019
-35.4066
-53.3728
-49.5256
-34.1539
-36.778
-51.4379
-37.8899
-46.3507
-38.9923
-41.1931
-40.9677
-33.6078
-37.9361
-30.5879
-40.564
-41.131
-50.4022
-53.4718
-13.8124
-47.2141
-42.2428
-46.7291
-73.4155
8.38982
-36.4977
-46.9919
-53.2092
-35.0779
-37.202
-42.0768
-55.0313
-64.1167
-56.3774
-53.283
-49.4577
-46.3119
-38.9744
-34.1451
-36.7662
-51.4286
-37.866
-41.1018
-41.0301
-41.1166
-50.3069
-33.597
-37.9824
-30.5759
-40.5457
-53.4227
-13.9222
8.34856
-36.5117
-47.1368
-42.1988
-46.6943
-72.8678
-46.9743
-53.1886
-64.0959
-56.3548
-35.1192
-37.2934
-42.0767
-55.0051
-117.1
-133.526
195.489
177.735
-93.9458
-93.9832
168.856
169.87
-109.442
-63.543
-70.3119
-55.0519
-48.8697
-46.43
-28.369
-27.0938
-36.7395
-36.7602
-27.8793
-27.7442
-42.7808
-45.0103
-40.2811
-38.1272
-38.0642
-38.036
163.335
169.637
-63.8809
-92.0379
-33.8674
-11.7893
-33.2913
-33.2573
-24.4984
-24.7218
-52.9908
-48.5324
-47.1314
-37.5397
-116.689
-133.365
172.436
199.956
-109.302
-63.4609
-70.2154
-55.008
-46.2865
-48.8736
-28.1618
-26.7715
-42.7048
-44.9313
-40.2582
-38.1036
-91.9711
-63.8335
-11.8338
-33.8376
-48.527
-52.8895
-37.5013
-47.0988
-34.9582
-33.4493
-37.437
-38.1037
-57.1194
-56.7817
-36.0426
-38.2815
-51.5777
-51.6145
-38.7476
-38.7363
-32.0183
-34.438
-44.936
-41.9472
-40.0498
-40.109
-43.0311
-43.0128
-39.1841
-40.9832
-83.853
-73.6222
6.05168
5.76666
-71.6014
-71.5667
-73.6849
-73.67
-52.2471
-52.2359
-35.0093
-33.47
-37.4159
-38.1181
-56.7547
-57.0544
-36.0591
-38.301
-34.4829
-32.0336
-44.8587
-41.8675
-41.0042
-39.2036
-73.5932
-83.7706
-34.387
-112.094
-107.936
-54.6488
-42.6863
-48.6454
-63.7567
-61.8115
-49.4909
-59.4615
-63.2329
-46.3988
-54.9409
-38.693
-94.812
-82.3189
-34.8228
-60.4693
-107.717
-112.177
-54.982
-82.33
-94.702
-41.2063
-49.4427
-46.3201
-63.2024
-59.4287
-42.6407
-61.7339
-63.6806
-48.6017
-119.688
-138.71
-73.3586
-68.8689
-120.302
-68.8167
-73.2606
-142.404
-45.4001
-47.1439
-56.493
-53.6463
-45.4384
-53.6967
-56.5283
-47.1725
-49.9526
-40.9133
-32.3556
-30.5713
-25.4186
14.6806
-7.0284
-23.6635
-25.9439
-23.6364
-7.03652
14.6118
-49.9427
-30.8336
-32.2895
-40.8554
120.611
115.636
200.72
-50.9425
65.4595
105.884
188.263
119.728
64.5984
119.289
186.762
104.352
120.083
-53.7734
200.9
115.143
-34.1507
-34.8858
-35.234
-37.7601
-34.8167
-28.5877
-33.5867
-34.9449
-41.3097
-43.8855
-36.2157
-31.2707
-47.1911
-39.2219
-37.871
-45.8879
-34.1346
-37.7365
-35.2778
-34.8905
-47.1393
-45.8764
-37.9353
-39.1709
-41.3152
-31.3353
-36.2679
-43.8748
-34.7869
-34.9452
-33.62
-28.5729
-37.7075
-40.0137
-38.2125
-36.4251
-37.6914
-36.4161
-38.2026
-40.0015
-39.8292
-41.7979
-38.8929
-36.9467
-39.8214
-36.9557
-38.8989
-41.8011
-73.503
-66.2318
-89.8817
-31.7877
-53.6551
-67.8319
-80.7664
-57.7325
-53.6341
-57.7057
-80.7474
-67.8166
-74.0939
-31.7455
-89.848
-66.2042
-50.6714
-40.7819
-44.391
-36.103
-42.8064
-38.3748
-46.8105
-42.1766
-37.6537
-46.8292
-53.073
-37.4259
-45.072
-32.0721
-47.7117
-48.4516
-50.6716
-36.0428
-44.3083
-40.7303
-45.071
-48.4183
-47.6305
-32.0659
-37.4758
-37.2513
-52.9903
-46.7196
-42.5464
-42.1718
-46.7327
-38.2291
-47.2396
-50.9772
-40.5616
-39.517
-47.1272
-39.4752
-40.5506
-51.0174
-36.6627
-35.6776
-37.9496
-39.3833
-36.71
-39.3154
-37.9608
-35.717
-51.8594
-49.115
-46.7056
-57.1541
-32.2909
-30.6561
-36.6483
-39.5039
-32.2013
-39.4432
-36.6302
-30.6254
-51.8207
-57.1306
-46.6494
-49.0631
-33.7369
-31.4561
-24.6934
-29.5511
-33.6348
-29.434
-24.4008
-31.3867
-28.7366
-24.3423
-23.4489
-28.9828
-28.9098
-29.1045
-23.6779
-24.5482
49.2746
-11.5639
-130.994
-38.0938
-36.18
-36.4081
-20.3465
-42.0001
-50.8516
-31.785
-30.4097
-33.0207
-12.0387
48.4288
-131.799
-36.0206
-37.7667
-35.9574
-42.0202
-20.5476
-50.8334
-30.2368
-31.5785
-32.8738
-40.4198
-37.9156
-38.9766
-39.177
-42.5865
-39.1692
-39.2259
-41.8052
-56.09
-51.5414
-54.1591
-69.6594
-46.6089
-45.2523
-46.3785
-48.1543
-40.4376
-39.1575
-37.9048
-38.9741
-42.6511
-41.8757
-39.2123
-39.3107
-56.0896
-69.5351
-51.5024
-54.0871
-46.6135
-48.1444
-45.2635
-46.3903
120.632
127.408
-32.1713
124.703
-94.4616
-93.597
-171.604
-99.1129
-68.7593
-57.8842
-73.4924
-60.26
-32.1412
-31.5461
-34.2166
-29.9369
-34.0697
-34.0307
-33.8167
-29.3159
-39.1795
-38.6686
-38.7453
-38.7152
-46.9714
-47.2139
-33.5573
-4.00913
-56.4447
-50.1188
-62.8954
-40.8412
-28.6452
-28.6272
-29.5953
-26.5103
-45.3676
-47.8451
-48.5043
-46.6784
121.066
127.19
-31.2527
124.299
-68.748
-57.9084
-73.4757
-60.2414
-31.9894
-31.3858
-34.066
-29.8041
-39.2003
-38.6751
-38.6904
-38.663
-56.4262
-50.1043
-62.8847
-40.8289
-45.2817
-47.7791
-48.4206
-46.6073
-35.5636
-35.7855
-35.5253
-36.0427
-41.2561
-41.0805
-43.6288
-39.36
-42.6898
-42.6821
-44.5571
-41.4927
-28.4329
-29.4722
-28.0133
-29.115
-44.9416
-44.9403
-43.3925
-46.8133
-50.5161
-49.0071
-48.326
-54.6567
0.0414452
0.00237772
11.6908
-13.5025
-62.9349
-62.9291
-65.9625
-60.2784
-35.5637
-35.7873
-35.5312
-36.0419
-41.208
-41.018
-43.5733
-39.3132
-28.4168
-29.4987
-28.0286
-29.0912
-50.4568
-48.8984
-48.2982
-54.6314
-84.0158
-75.5716
-73.8046
-68.6703
-83.9022
-75.4761
-73.7429
-68.6102
-68.4259
-63.7837
-63.756
-60.045
-25.4784
-18.5039
-18.5155
-11.4559
203.493
201.699
204.354
203.319
-35.0147
-35.8888
-35.1054
-36.3537
-35.0666
-35.9607
-35.1583
-36.4217
-38.5368
-38.4385
-38.8309
-38.5336
-87.3215
-88.3483
-86.3084
-87.3071
-47.4224
-45.552
-47.5329
-45.9968
-47.3316
-45.4614
-47.4366
-45.9042
-38.1192
-39.0495
-39.0414
-39.6502
-38.7472
-41.3066
-41.2998
-43.7732
-22.1272
-21.641
-22.4501
-21.9167
76.6421
101.481
10.2932
117.019
-178.375
-125.156
-149.882
58.9919
-102.15
-81.9626
-87.6748
-83.9917
-33.9882
-32.9215
-36.2519
-32.761
-35.0804
-34.5639
-36.059
-33.7921
-40.555
-42.2399
-45.7429
-45.085
22.593
91.1322
-23.2012
120.632
-49.9401
-47.2469
-43.6082
-89.8735
-61.9752
-60.5841
-71.6926
-52.93
-31.6087
-31.39
-34.6093
-29.6996
-28.9136
-28.51
-29.8628
-27.8248
-36.3333
-40.642
-40.2426
-36.7854
-178.497
-122.436
-156.324
54.1633
76.3814
101.896
10.031
116.137
-102.297
-81.9614
-86.3825
-84.0359
-35.006
-34.5033
-35.9919
-33.701
-33.8397
-32.7712
-36.1005
-32.4215
-40.6927
-41.86
-45.5185
-45.1034
-49.6935
-47.552
-43.4702
-85.2581
23.0024
93.3337
-23.9617
120.161
-61.9801
-60.5305
-71.6236
-52.8796
-28.7891
-28.4477
-29.7912
-27.668
-31.42
-31.2297
-34.4351
-29.5421
-36.2246
-40.5528
-40.1075
-36.6957
-48.3127
-50.7835
-51.2899
-49.0599
-36.4787
-35.7284
-35.6883
-36.2998
-42.073
-41.822
-45.8547
-39.6439
-40.3401
-41.9183
-42.7527
-39.9637
-42.4655
-39.2984
-39.7498
-41.0547
-37.3196
-36.3002
-35.3594
-37.3208
-34.0298
-30.3427
-31.117
-30.1717
-43.2578
-44.4555
-42.3271
-46.162
-53.2896
-46.0415
-52.6868
-28.5683
-46.0019
-42.2537
-44.8576
-43.0151
-53.2444
-51.9339
-49.827
-59.7164
-18.4958
-2.60445
3.19878
-21.4969
-47.2913
-47.648
-46.9115
-50.4844
-39.1573
-33.2407
-35.0983
-35.8241
-46.4077
-47.3625
-45.8106
-50.179
-59.5074
-61.624
-62.3638
-58.0454
-48.1233
-50.7251
-51.1827
-48.9622
-40.317
-41.9006
-42.7296
-39.9446
-36.473
-35.7255
-35.6912
-36.2914
-42.0505
-41.7806
-45.8279
-39.6081
-42.549
-39.0059
-39.6394
-41.035
-43.2824
-44.471
-42.3394
-46.203
-37.322
-36.3016
-35.3574
-37.32
-34.0052
-30.2606
-31.0844
-30.1556
-53.2313
-46.0069
-52.6432
-28.5854
-18.6449
-2.66162
3.10535
-21.7179
-45.9443
-42.1741
-44.8131
-42.9504
-53.1793
-51.9071
-49.7786
-59.6325
-47.2749
-47.622
-46.8905
-50.4814
-59.4725
-61.6086
-62.3365
-58.0248
-39.2054
-33.3296
-35.1582
-35.9268
-46.4027
-47.3648
-45.7495
-50.1356
-61.4764
-129.847
-125.313
-140
141.962
202.534
196.555
185.706
-114.601
-81.673
-95.2748
-95.2874
85.0984
190.973
169.005
170.852
-76.6628
-77.0681
-91.1388
-69.3521
-60.6685
-62.4728
-65.227
-57.8459
-43.2459
-50.1915
-48.8931
-47.8504
-28.6992
-25.8176
-27.8895
-27.3536
-35.6414
-37.2429
-36.5106
-36.5295
-26.7621
-24.4734
-28.3214
-28.2592
-42.0678
-43.9934
-42.8987
-43.9474
-39.721
-39.715
-40.2955
-40.81
-31.0313
-39.0889
-38.4218
-38.4604
118.833
182.621
155.602
157.836
-71.8462
-72.6642
-66.6099
-78.7105
-27.855
-21.7652
-29.3071
-18.2608
-31.757
-34.607
-33.1202
-33.1047
-22.783
-22.8872
-23.767
-23.8261
-52.682
-50.2927
-55.4812
-50.3441
-42.8576
-41.664
-44.6649
-39.6519
-60.2483
-129.54
-124.679
-139.668
143.214
200.336
186.644
197.327
-76.5841
-76.9559
-91.017
-69.2631
-60.6171
-62.4213
-65.1712
-57.8041
-43.0782
-50.0742
-47.7435
-48.8143
-28.5264
-25.4765
-27.6586
-27.102
-42.0022
-43.9182
-42.8346
-43.8727
-39.7071
-39.7063
-40.277
-40.8016
-71.8114
-72.6483
-78.6339
-66.6171
-27.8413
-21.7635
-18.271
-29.2874
-52.5395
-50.1752
-50.3932
-55.3455
-42.8164
-41.6424
-39.6097
-44.6316
-34.1328
-34.1927
-34.7841
-33.8318
-37.0045
-38.0001
-37.3979
-37.8093
-53.63
-59.8731
-57.6233
-58.2058
-37.1866
-36.3292
-36.2143
-37.3145
-50.1041
-54.1163
-51.7625
-51.7824
-39.6659
-38.69
-39.0079
-39.0021
-31.4382
-33.7442
-32.3291
-33.4923
-39.5812
-45.8435
-45.6131
-44.6769
-41.2783
-39.7751
-40.35
-40.3538
-46.3213
-41.4185
-43.0246
-43.0851
-42.4371
-38.6364
-40.1015
-40.733
-72.1846
-83.475
-80.6993
-76.8269
13.3733
1.16104
6.69732
6.95862
-54.9492
-86.0474
-73.9964
-73.9756
-72.166
-78.8435
-75.1829
-75.1746
-54.8157
-49.052
-52.1915
-52.1857
-34.1494
-34.2255
-34.8158
-33.8592
-37.0045
-38.0014
-37.3657
-37.8372
-53.5097
-59.9201
-58.1835
-57.5952
-37.1916
-36.386
-36.2388
-37.3474
-31.4413
-33.7755
-33.5271
-32.35
-39.4916
-45.7429
-45.5304
-44.6142
-42.4331
-38.6862
-40.7589
-40.1303
-72.1535
-83.4396
-76.792
-80.6587
-19.1283
-88.5532
-113.448
-140.987
-54.8178
-54.9013
-59.0762
-55.9944
-53.6456
-50.6013
-59.7133
-55.5651
-76.7795
-89.2529
-125.273
-109.107
-20.3886
-84.973
-114.311
-140.399
-77.0323
-89.2762
-125.196
-109.019
-53.5992
-50.5433
-59.674
-55.5173
-54.7614
-54.7982
-59.0002
-55.9204
-100.199
-82.4631
-90.1577
-74.3706
-100.539
-82.5194
-90.276
-74.3411
-50.0993
-49.5964
-52.515
-51.1771
-50.155
-49.6549
-52.563
-51.225
-41.9392
-42.966
-37.9851
-38.1317
-5.02562
5.54365
-4.31302
4.3834
-4.68025
5.79243
-4.43221
4.47584
-41.9609
-42.9463
-37.9734
-38.0855
154.035
154.413
187.568
172.131
152.113
148.578
169.293
160.524
150.725
154.282
162.428
167.431
154.421
153.61
173.261
190.615
-35.1691
-36.7141
-35.4058
-35.7571
-32.648
-30.7404
-32.8756
-31.9441
-36.2373
-39.6759
-35.6467
-38.3079
-41.8386
-43.7109
-39.7395
-41.4004
-35.1634
-36.7056
-35.4298
-35.7766
-41.8092
-43.6931
-39.7507
-41.3987
-36.283
-39.699
-35.6954
-38.3471
-32.6471
-30.7387
-32.8894
-31.9507
-37.3005
-38.3636
-37.557
-38.3869
-38.3467
-37.2858
-38.3726
-37.5419
-40.1116
-38.6136
-39.7201
-38.6656
-38.6247
-40.1357
-38.6747
-39.7364
-73.1528
-49.8493
-80.7732
-67.8821
-62.0685
-66.2701
-71.0112
-71.7122
-66.2496
-62.039
-71.6933
-70.986
-49.7492
-74.1365
-67.8169
-80.7544
-42.697
-45.0452
-43.1071
-44.5055
-46.9231
-48.2899
-48.6312
-45.7206
-40.5509
-43.6079
-45.1404
-48.9631
-44.5756
-38.9981
-42.5861
-39.1263
-42.6527
-44.9754
-43.0188
-44.4302
-44.5817
-39.0655
-42.4287
-39.0339
-40.3794
-43.4126
-44.9757
-48.7785
-46.7913
-48.1244
-48.6293
-45.6183
-41.4375
-46.4429
-40.6862
-43.35
-41.341
-46.3652
-40.744
-43.3603
-37.4988
-41.8665
-37.2955
-38.1765
-37.5567
-41.8841
-37.3298
-38.2134
-52.6681
-54.5239
-49.8327
-52.0057
-32.4838
-34.6107
-33.6037
-35.6323
-32.4248
-34.5491
-33.5649
-35.5893
-52.6462
-54.51
-49.802
-51.9885
-31.2224
-31.6255
-29.0502
-29.1181
-31.5099
-31.0877
-28.8873
-28.8851
-25.7835
-27.6033
-25.2765
-26.2978
-27.808
-26.0427
-26.7976
-25.6218
7.56312
113.375
-153.681
96.459
-70.6265
-119.842
-38.8683
-39.5975
-35.506
-32.6674
-43.2363
-36.662
-36.098
53.3797
-50.5275
-1.30993
-58.9397
-54.7595
-35.6055
-29.657
-30.6899
-29.0428
-36.4319
-33.1013
-154.402
96.2315
7.17785
112.717
-70.8893
-120.175
-35.4267
-33.8972
-38.7553
-39.2167
-42.991
-36.6441
-50.4719
-1.04718
-36.4125
53.1808
-58.9116
-54.8221
-30.5825
-28.8582
-35.3978
-29.4733
-36.277
-32.9942
-42.1879
-44.9006
-36.6429
-37.1963
-39.3051
-38.1179
-41.4147
-38.6074
-48.4095
-45.4681
-37.017
-39.014
-36.0391
-37.1499
-40.9216
-44.3839
-51.5744
-52.6177
-48.6596
-47.8466
-50.51
-63.097
-37.1919
-69.7459
-46.4426
-48.0409
-41.8444
-43.8269
-44.8312
-48.8987
-52.8495
-52.6683
-42.1694
-44.8739
-41.3861
-38.5886
-36.6405
-37.1828
-39.2692
-38.1269
-48.5322
-45.476
-40.9417
-44.3665
-36.989
-39.0249
-36.0471
-37.1653
-51.5501
-52.6407
-38.371
-69.6283
-48.6178
-47.7922
-50.4586
-63.0644
-46.437
-48.0255
-52.8224
-52.6647
-41.8521
-43.8487
-44.8421
-48.8908
-17.6206
126.305
-24.1747
126.379
-55.9823
-44.4099
114.136
114.746
-177.97
-106.087
-179.383
-102.426
-140.625
-142.356
-59.143
-58.1811
-104.725
-71.2475
-59.9357
-53.2965
-90.3616
-67.2293
-63.9714
-56.3415
-34.8729
-30.3755
-34.4217
-29.8496
-38.1277
-37.3855
-29.4084
-29.2813
-34.9563
-32.6325
-34.9125
-32.5635
-35.3977
-35.4246
-32.3607
-32.31
-39.6154
-39.7717
-39.2727
-39.1939
-40.4751
-41.2109
-39.3454
-39.0187
-33.5408
5.77557
-33.7693
3.97442
-29.5547
-29.4995
88.2675
86.3908
-71.1539
-47.6043
-56.4458
-33.8098
-63.0181
-74.7827
-37.5907
-28.5458
-29.6677
-26.6895
-29.6324
-26.5775
-30.5537
-30.5321
-23.9982
-24.1151
-44.8381
-41.6081
-47.9822
-50.2439
-49.0156
-49.4844
-46.5507
-41.7191
-14.521
125.779
-22.8141
126.019
-58.8452
-48.2896
114.225
113.482
-104.893
-71.2283
-59.8771
-53.2431
-90.3642
-67.1662
-63.9303
-56.3021
-34.722
-30.2509
-34.17
-29.7184
-37.2125
-37.9886
-29.293
-29.1491
-39.5154
-39.7487
-39.2201
-39.1526
-40.4103
-41.1025
-39.3222
-39.0483
-71.1552
-47.5935
-56.4183
-33.7832
-74.7098
-62.9884
-28.5276
-37.5961
-44.7407
-41.5328
-47.9414
-50.1871
-49.411
-48.8936
-41.6632
-46.5056
-35.5135
-35.9965
-34.9881
-36.4036
-34.9065
-36.0546
-36.3252
-36.6888
-44.5977
-39.3185
-43.2634
-40.1592
-47.5519
-46.7498
-37.8657
-38.4912
-44.1931
-41.0497
-44.1778
-41.0368
-47.2959
-47.3116
-40.2448
-40.2382
-27.6411
-30.8376
-30.6909
-31.4172
-28.9868
-30.0015
-33.5945
-31.2608
-43.2165
-46.8409
-43.2413
-46.8387
-42.158
-42.16
-50.3987
-50.3648
-49.0129
-57.1175
-47.1626
-52.2305
-44.3876
-45.3722
-63.9247
-59.6134
10.1272
-15.796
10.0545
-15.7369
15.7779
15.7241
-33.3773
-33.3668
-65.1835
-59.8406
-65.1689
-59.83
-68.5235
-68.5162
-57.4553
-57.4834
-35.519
-35.9917
-34.9888
-36.4022
-34.9129
-36.0627
-36.3193
-36.6892
-44.5487
-39.2813
-43.2081
-40.0914
-46.6744
-47.499
-37.8407
-38.4558
-27.5965
-30.831
-30.7657
-31.4593
-30.0466
-28.9769
-33.5141
-31.1925
-48.9016
-57.0892
-47.1309
-52.1991
-45.3573
-44.3825
-59.5871
-63.904
-105.22
-97.0568
-87.9011
-69.4679
-67.2922
-81.4809
-63.6631
-63.3829
-105.012
-96.9214
-87.752
-69.3851
-81.4099
-67.2608
-63.3583
-63.6116
-73.9616
-73.8973
-67.5746
-59.516
-67.5237
-59.4811
-56.7681
-56.7891
-31.9638
-31.9119
-26.545
-12.9957
-13.013
-26.5325
-5.56111
-5.91035
200.739
195.456
202.462
201.04
199.306
201.096
195.942
200.523
-34.8309
-34.1649