# vtk DataFile Version 2.0
tet_velo
ASCII
DATASET UNSTRUCTURED_GRID
POINTS 29498 float
-0.725 0.215 -2.13272
-0.705224 0.355 2.245
-0.784851 0.775 -2.055
-0.704073 0.995 2.125
0.725 0.215 -2.13282
0.705354 0.355 2.245
0.784789 0.775 -2.055
0.704073 0.995 2.125
-0.782519 0.197556 -0.67348
-0.803702 0.216448 0.78576
-0.837899 0.928307 -0.661667
-0.792591 0.983259 0.731667
0.78257 0.197548 -0.673547
0.804046 0.21619 0.785727
0.838105 0.928555 -0.661667
0.792669 0.983357 0.731667
-1.51722 -0.187573 -3.27514
-1.52279 -0.140767 -2.13414
-1.56098 -0.147292 -0.673194
-1.56788 -0.132288 0.801016
-1.51022 -0.0329346 2.26308
-1.49223 0.0346068 3.40955
-1.49791 0.0849342 4.5459
-1.51947 0.13952 -3.25996
-1.52741 0.205054 -2.12616
-1.57444 0.213181 -0.678042
-1.56837 0.224775 0.776006
-1.47991 0.318072 2.22539
-1.47123 0.383793 3.37093
-1.48692 0.434137 4.50943
-1.54621 0.759783 -3.21111
-1.57391 0.824333 -2.0746
-1.61499 0.929979 -0.671412
-1.56882 0.969284 0.727104
-1.47814 0.998526 2.13155
-1.4711 1.06253 3.27982
-1.48779 1.12229 4.42895
-1.56995 1.77671 -3.18738
-1.58563 1.85252 -2.06074
-1.60158 1.96519 -0.678923
-1.59056 2.04289 0.688684
-1.55936 2.08617 2.07119
-1.54006 2.12542 3.19928
-1.53278 2.17385 4.34121
-0.740178 -0.182587 -3.27942
-0.736655 -0.133301 -2.14037
-0.772043 -0.154943 -0.67238
-0.796589 -0.137974 0.809338
-0.757102 -0.0129562 2.27764
-0.741374 0.0491425 3.41943
-0.744724 0.0929075 4.55161
-0.738409 0.13894 -3.26129
-0.721637 0.398719 3.37908
-0.735491 0.441688 4.51374
-0.758764 0.739991 -3.20297
-0.721439 1.06535 3.27851
-0.736175 1.12528 4.42867
-0.778597 1.76427 -3.17933
-0.789996 1.84131 -2.05187
-0.80831 1.96427 -0.673579
-0.811358 2.0469 0.688035
-0.795039 2.08727 2.0666
-0.77998 2.12518 3.1947
-0.772659 2.17384 4.33787
0.776814 -0.182564 -3.27948
0.762081 -0.133291 -2.14045
0.789202 -0.154967 -0.67244
0.781943 -0.138141 0.809305
0.718481 -0.0130178 2.27763
0.733323 0.0491013 3.41942
0.748076 0.0928698 4.5516
0.774385 0.138962 -3.26135
0.73238 0.398693 3.37907
0.748741 0.441656 4.51372
0.79244 0.740023 -3.203
0.731578 1.06534 3.2785
0.747783 1.12525 4.42866
0.800953 1.76434 -3.17936
0.801458 1.8414 -2.05189
0.789302 1.96437 -0.673594
0.758614 2.04696 0.688023
0.734741 2.08729 2.06659
0.735177 2.12518 3.19468
0.742237 2.17383 4.33786
1.54562 -0.187511 -3.27526
1.53573 -0.140713 -2.13427
1.56891 -0.147302 -0.673295
1.56364 -0.132493 0.800954
1.49602 -0.0330792 2.26305
1.48983 0.034513 3.40953
1.50242 0.0848577 4.54587
1.54266 0.139589 -3.26007
1.5245 0.205136 -2.12629
1.57255 0.213236 -0.678138
1.57337 0.224568 0.775951
1.48785 0.317945 2.22536
1.48345 0.383716 3.37091
1.49982 0.434069 4.5094
1.56632 0.759878 -3.21117
1.56905 0.82447 -2.07465
1.60993 0.930234 -0.671454
1.5709 0.96933 0.727076
1.48514 0.998471 2.13154
1.48212 1.06249 3.27981
1.49863 1.12224 4.42893
1.58684 1.77685 -3.18743
1.59036 1.85268 -2.06078
1.5818 1.96537 -0.678958
1.54622 2.043 0.688656
1.50961 2.08621 2.07117
1.50089 2.12543 3.19926
1.50441 2.17384 4.34118
-0.775701 0.495 -2.11464
0 0.178308 -2.16946
-0.777791 0.182246 -1.4031
-0.751914 0.675 2.23227
6.49989e-05 0.307356 2.29264
-0.791264 0.248923 1.51538
-3.09944e-05 0.860356 -2.14036
-0.845904 0.886183 -1.35833
0 1.05702 2.18702
-0.785616 1.02641 1.42833
0.776045 0.495 -2.11506
0.776706 0.183353 -1.40318
0.751839 0.675 2.23213
0.791485 0.24881 1.51536
0.845628 0.885958 -1.35833
0.784811 1.02562 1.42833
-0.790048 0.210064 0.0561399
-0.892062 0.562931 -0.667574
2.5557e-05 0.172461 -0.673513
-0.884629 0.599853 0.758713
0.000172381 0.180337 0.785743
-0.817597 0.958135 0.035
0.00010308 1.2714 -0.661667
3.8846e-05 1.43358 0.731667
0.790108 0.210069 0.05609
0.892064 0.563051 -0.667607
0.884997 0.599774 0.758697
0.817574 0.958143 0.035
-0.875347 0.528966 -1.38072
-0.882553 0.581392 0.04557
-0.895335 0.637427 1.47186
1.27785e-05 0.171688 -1.40314
9.8969e-05 0.179461 0.056115
0.00011869 0.222275 1.51537
-1.54972e-05 0.495 -2.40346
3.24994e-05 0.675 2.38334
3.60429e-05 0.977634 -1.35833
7.09631e-05 1.42067 0.035
1.9423e-05 1.22891 1.42833
0.875334 0.529026 -1.38076
0.882425 0.581412 0.045545
0.89534 0.637387 1.47185
-1.1262 0.210027 -2.12944
-0.730828 0.0408494 -2.13654
-0.731705 0.17697 -2.697
-1.09257 0.336536 2.23519
-0.731163 0.171022 2.26132
-0.713431 0.37686 2.81204
-1.17938 0.799666 -2.0648
-0.771808 0.757496 -2.62898
-0.787424 1.30816 -2.05343
-1.09111 0.996763 2.12828
-0.712756 1.03018 2.70175
-0.749556 1.54113 2.0958
0.74354 0.0408545 -2.13663
0.749693 0.176981 -2.69708
1.12475 0.210068 -2.12955
0.711918 0.170991 2.26131
0.718867 0.376846 2.81203
1.0966 0.336472 2.23518
0.788614 0.757512 -2.629
0.793124 1.3082 -2.05344
1.17692 0.799735 -2.06483
0.717826 1.03017 2.70175
0.719407 1.54115 2.09579
1.09461 0.996736 2.12827
-1.17848 0.205368 -0.675761
-0.777281 0.0213063 -0.67293
-1.18604 0.220611 0.780883
-0.800145 0.039237 0.797549
-1.22645 0.929143 -0.666539
-0.823105 1.44629 -0.667623
-1.18071 0.976271 0.729385
-0.801975 1.51508 0.709851
0.785886 0.0212906 -0.672993
1.17756 0.205392 -0.675842
0.792995 0.0390244 0.797516
1.18871 0.220379 0.780839
0.813703 1.44646 -0.66763
1.22402 0.929394 -0.666561
0.775642 1.51516 0.709845
1.18178 0.976344 0.729372
-1.52001 -0.16417 -2.70464
-1.51835 -0.0240265 -3.26755
-1.1287 -0.18508 -3.27728
-1.54188 -0.14403 -1.40367
-1.5251 0.0321432 -2.13015
-1.12972 -0.137034 -2.13725
-1.56443 -0.13979 0.0639112
-1.56771 0.0329445 -0.675618
-1.16651 -0.151118 -0.672787
-1.53905 -0.0826113 1.53205
-1.56813 0.0462433 0.788511
-1.18223 -0.135131 0.805177
-1.50123 0.000836121 2.83632
-1.49506 0.142569 2.24423
-1.13366 -0.0229454 2.27036
-1.49507 0.0597705 3.97772
-1.48173 0.2092 3.39024
-1.1168 0.0418747 3.41449
-1.49241 0.259535 4.52766
-1.12132 0.0889209 4.54875
-1.52344 0.172287 -2.69306
-1.53284 0.449651 -3.23553
-1.12894 0.13923 -3.26062
-1.55092 0.209117 -1.4021
-1.55066 0.514693 -2.10038
-1.57141 0.218978 0.0489824
-1.59472 0.57158 -0.674727
-1.52414 0.271423 1.5007
-1.5686 0.597029 0.751555
-1.47557 0.350933 2.79816
-1.47903 0.658299 2.17847
-1.47907 0.408965 3.94018
-1.47117 0.723164 3.32538
-1.09643 0.391256 3.375
-1.48736 0.778212 4.46919
-1.1112 0.437912 4.51158
-1.56006 0.792058 -2.64285
-1.55808 1.26825 -3.19924
-1.15249 0.749887 -3.20704
-1.59445 0.877156 -1.373
-1.57977 1.33843 -2.06767
-1.59191 0.949631 0.0278457
-1.60829 1.44759 -0.675168
-1.52348 0.983905 1.42933
-1.57969 1.50609 0.707894
-1.47462 1.03053 2.70569
-1.51875 1.54235 2.10137
-1.47945 1.09241 3.85439
-1.50558 1.59398 3.23955
-1.09627 1.06394 3.27917
-1.51029 1.64807 4.38508
-1.11198 1.12378 4.42881
-1.57779 1.81462 -2.62406
-1.17427 1.77049 -3.18336
-1.5936 1.90886 -1.36983
-1.18781 1.84691 -2.0563
-1.59607 2.00404 0.00488059
-1.20494 1.96473 -0.676251
-1.57496 2.06453 1.37994
-1.20096 2.04489 0.68836
-1.54971 2.1058 2.63524
-1.1772 2.08672 2.06889
-1.53642 2.14964 3.77025
-1.16002 2.1253 3.19699
-1.15272 2.17384 4.33954
-0.738417 -0.157944 -2.70989
-0.739294 -0.0218238 -3.27035
0.018318 -0.182575 -3.27945
-0.754349 -0.144122 -1.40637
0.0127126 -0.133296 -2.14041
-0.784316 -0.146458 0.0684789
0.00857909 -0.154955 -0.67241
-0.776845 -0.075465 1.54349
-0.00732274 -0.138057 0.809321
-0.749238 0.0180931 2.84853
-0.0193101 -0.012987 2.27764
-0.743049 0.071025 3.98552
-0.731506 0.223931 3.39925
-0.00402536 0.0491219 3.41942
-0.740107 0.267298 4.53267
0.00167596 0.0928887 4.5516
-0.748587 0.439466 -3.23213
0.0179881 0.138951 -3.26132
-0.728564 0.420204 3.94641
-0.721538 0.732037 3.32879
0.00537151 0.398706 3.37907
-0.735833 0.783482 4.4712
0.00662486 0.441672 4.51373
-0.768681 1.25213 -3.19115
0.0168377 0.740007 -3.20298
-0.728807 1.09531 3.85359
-0.750709 1.59527 3.2366
0.00506962 1.06535 3.27851
-0.754417 1.64956 4.38327
0.00580407 1.12527 4.42866
-0.784297 1.80279 -2.6156
0.011178 1.76431 -3.17934
-0.799153 1.90279 -1.36272
0.00573086 1.84135 -2.05188
-0.809834 2.00559 0.00722768
-0.00950431 1.96432 -0.673587
-0.803199 2.06708 1.37732
-0.0263717 2.04693 0.688029
-0.787509 2.10622 2.63065
-0.0301491 2.08728 2.06659
-0.776319 2.14951 3.76628
-0.0224014 2.12518 3.19469
-0.0152113 2.17383 4.33787
0.769447 -0.157927 -2.70996
0.7756 -0.0218009 -3.27041
1.16122 -0.185037 -3.27737
0.775641 -0.144129 -1.40644
1.14891 -0.137002 -2.13736
0.785572 -0.146554 0.0684323
1.17906 -0.151135 -0.672867
0.750212 -0.0755793 1.54347
1.17279 -0.135317 0.805129
0.725902 0.0180417 2.84852
1.10725 -0.0230485 2.27034
0.740699 0.0709856 3.98551
0.732852 0.223897 3.39924
1.11158 0.0418071 3.41447
0.748408 0.267263 4.53266
1.12525 0.0888638 4.54873
0.783413 0.439493 -3.23217
1.15852 0.139275 -3.26071
0.74056 0.420174 3.9464
0.731979 0.732017 3.32879
1.10792 0.391204 3.37499
0.748262 0.783455 4.47119
1.12428 0.437862 4.51156
0.796696 1.25218 -3.19118
1.17938 0.749951 -3.20709
0.739681 1.0953 3.85358
0.733377 1.59526 3.23659
1.10685 1.06391 3.27916
0.74501 1.64954 4.38326
1.12321 1.12375 4.42879
0.801205 1.80287 -2.61562
1.19389 1.7706 -3.18339
0.79538 1.90288 -1.36274
1.19591 1.84704 -2.05633
0.773958 2.00567 0.00721429
1.18555 1.96487 -0.676276
0.746678 2.06713 1.3773
1.15242 2.04498 0.68834
0.734959 2.10624 2.63064
1.12218 2.08675 2.06888
0.738707 2.14951 3.76627
1.11803 2.12531 3.19697
1.12332 2.17384 4.33952
1.54068 -0.164112 -2.70476
1.54414 -0.023961 -3.26766
1.55232 -0.144008 -1.40378
1.53012 0.0322117 -2.13028
1.56627 -0.139897 0.0638295
1.57073 0.0329669 -0.675717
1.52983 -0.0827859 1.532
1.56851 0.0460377 0.788452
1.49292 0.000716867 2.83629
1.49193 0.142433 2.24421
1.49612 0.0596853 3.9777
1.48664 0.209115 3.39022
1.50112 0.259464 4.52763
1.53358 0.172363 -2.69318
1.55449 0.449733 -3.23562
1.54852 0.209186 -1.40221
1.54677 0.514803 -2.10047
1.57296 0.218902 0.0489063
1.59124 0.571735 -0.674796
1.53061 0.271256 1.50066
1.57214 0.596949 0.751514
1.48565 0.35083 2.79814
1.4865 0.658208 2.17845
1.49164 0.408893 3.94016
1.48279 0.723103 3.32536
1.49923 0.778156 4.46916
1.56768 0.792174 -2.64291
1.57658 1.26836 -3.1993
1.58949 0.877352 -1.37305
1.5797 1.33858 -2.06772
1.59042 0.949782 0.0278111
[...]
POINT_DATA 29498
VECTORS point_vectors float
-6.24601 -7.50446 9.4665
0.0664512 0.126282 0.347757
-1.39916 0.702681 2.58719
-0.0187957 -0.160984 0.508885
6.28063 -7.53901 9.55981
-0.0672185 0.127215 0.350764
1.39399 0.701498 2.571
0.0175611 -0.16177 0.509823
0.00562654 0.0128524 0.756116
0.00198216 -0.0104905 0.520691
-0.0106828 -0.00585687 0.276227
0 0 0
-0.00557027 0.0125955 0.75979
0.00128074 -0.0153466 0.565817
0.0112585 -0.00615174 0.277877
0 0 0
-0.617828 -0.313819 19.8472
-1.27208 -0.753413 20.6081
-0.374985 -0.375506 21.4102
0.125595 -0.0601119 21.5397
0.626098 0.243243 21.3588
0.830258 0.251751 21.3194
0.822947 -0.0239313 21.072
-0.750755 -0.22893 19.7324
-1.77704 -0.614202 20.538
-0.54043 -0.450353 21.4908
0.0896652 -0.159479 21.6163
0.854108 0.10465 21.4322
1.08317 0.0844448 21.3736
1.03878 -0.0990147 21.3962
-0.826414 0.08788 19.673
-1.89356 0.175211 20.508
-1.05476 -0.237174 21.4586
-0.144522 -0.257387 21.7222
0.716446 -0.36394 21.4852
0.960539 -0.472713 21.1659
0.751495 -0.31269 20.9633
-0.508435 0.358148 19.9711
-0.858827 0.592701 20.4289
-0.771761 0.402334 21.1573
-0.235311 0.0198138 21.5153
0.197255 -0.287295 21.4173
0.374771 -0.356907 21.2165
0.376561 -0.397798 20.6782
-0.620516 -0.695122 19.2293
-1.78879 -3.54024 21.0317
-0.149313 -0.276748 21.4442
0.183518 0.240931 20.4308
0.495901 1.2181 18.0771
0.841276 1.55559 17.0396
0.986604 0.813769 15.9145
-0.788325 -0.557423 18.8917
1.38044 1.50957 10.5402
1.48566 0.774904 10.5572
-1.02596 0.27076 18.5346
1.40249 -0.520345 10.7237
1.21964 -0.530911 16.5472
-0.464407 0.713775 19.6181
-0.930237 1.50956 20.2057
-1.103 1.42068 21.3246
-0.251164 0.175997 21.9155
0.174484 -0.498216 21.454
0.272493 -0.639394 21.0815
0.102836 -0.464871 20.5167
0.641479 -0.66079 19.2949
1.82434 -3.35508 20.9701
0.148647 -0.276357 21.4545
-0.172672 0.249824 20.412
-0.399833 1.19888 17.558
-0.825062 1.56629 16.9824
-0.985528 0.807487 15.9672
0.811541 -0.52606 18.9456
-1.38843 1.48798 10.7978
-1.4665 0.748955 10.7708
1.02626 0.274477 18.617
-1.43768 -0.528297 11.0158
-1.21939 -0.543742 16.7101
0.472352 0.699629 19.6302
0.933442 1.49417 20.2066
1.09868 1.46161 21.3218
0.242144 0.197195 21.9525
-0.160754 -0.507545 21.4621
-0.252351 -0.657047 21.0815
-0.101042 -0.467985 20.5741
0.618989 -0.303908 19.8556
1.25118 -0.737864 20.6131
0.378726 -0.379994 21.4033
-0.124251 -0.0596826 21.5382
-0.630717 0.255962 21.3663
-0.833547 0.249021 21.3067
-0.819186 -0.021384 21.0508
0.743149 -0.225563 19.7535
1.78272 -0.621763 20.5403
0.539201 -0.453333 21.4938
-0.0900044 -0.158105 21.6153
-0.843092 0.100765 21.4405
-1.06841 0.0832277 21.3561
-1.05014 -0.103137 21.3579
0.817359 0.0869312 19.6912
1.90503 0.176275 20.5112
1.05965 -0.240994 21.4649
0.143936 -0.259962 21.7279
-0.711018 -0.357229 21.4751
-0.958362 -0.455565 21.1591
-0.723241 -0.304985 20.9932
0.507426 0.35188 19.9783
0.855614 0.588805 20.4306
0.789204 0.415183 21.1607
0.23999 0.0167307 21.5287
-0.20549 -0.301506 21.3763
-0.367694 -0.361641 21.2194
-0.351569 -0.418673 20.7186
-0.817485 -0.125685 1.00175
5.48555e-05 -0.0160104 0.0832464
0.000775416 -0.00335803 0.46853
0.0158982 -0.0359572 0.0663296
0.000708218 0.0064336 0.0525229
-0.00358003 0.0530934 0.838255
-0.000188799 0.111766 0.350684
-0.378165 -0.165441 1.22536
-4.2356e-06 0.0103028 -0.0572613
0.00305523 0.00188587 0.0133022
0.989914 -0.15301 1.21502
0.000741967 -0.00202888 0.402912
-0.01662 -0.0352272 0.0670208
0.00394306 0.0537522 0.849581
0.368865 -0.157889 1.18878
-0.00416232 0.00253241 0.0179697
-0.0137029 0.0250971 0.731623
-0.00138532 -0.0177682 0.362623
-9.8971e-08 7.05527e-07 0.000194203
-0.00019073 0.00456256 0.0368268
0 0 0
0 0 0
7.26481e-05 0.0814759 0.157834
-2.05058e-06 0.00163383 1.1482
0.013685 0.0251131 0.730686
0.0013257 -0.0178487 0.36373
0.000212546 0.00372667 0.0306302
0 0 0
0 0 0
1.9415e-05 0.00106559 0.00927691
0.00136525 0.00415414 0.0377472
1.14063e-08 -8.43182e-08 -1.3118e-05
-1.47047e-06 2.60242e-06 0.00122001
1.42188e-08 0.000465775 0.00683273
-0.000360283 0.4269 0.688721
-0.0114278 0.50047 -0.227055
2.75979e-05 0.000543902 0.00655464
-1.84804e-05 0.00564778 0.11567
0.000104043 0.00151535 -0.00339742
0 0 0
-1.12233e-05 0.000842726 0.00730105
-0.00137737 0.00420882 0.0380938
-3.56463 -1.79668 20.5389
-3.05314 -6.02863 21.2637
-2.28303 -1.86713 17.65
1.24648 0.617534 17.8323
0.081478 1.29523 10.098
0.262094 1.09904 5.93472
-3.74822 0.762218 20.4454
-3.08715 1.30299 16.987
-2.12696 2.67632 20.0727
1.20194 -0.231612 18.2214
0.335634 -0.172903 5.60348
0.520654 -0.817283 20.3653
3.1028 -5.77855 21.1545
2.28628 -1.81002 17.7199
3.57893 -1.81627 20.5431
0.0183027 1.24991 9.64445
-0.297186 1.09846 6.05656
-1.24313 0.605263 17.8979
3.06334 1.26091 17.0923
2.12754 2.65481 20.0739
3.76544 0.771558 20.4442
-0.364501 -0.177281 5.74126
-0.538866 -0.814224 19.9499
-1.19644 -0.251153 18.2742
-0.333445 -0.775486 21.4174
0.0115365 0.0907243 15.7909
0.215386 -0.164146 20.415
0.250494 0.236485 15.1045
-1.70789 -0.797114 21.6985
-3.03605 1.9563 21.504
-0.106216 -0.451525 20.2317
-0.375733 0.0938798 21.6262
-0.0137326 0.0858183 16.0464
0.334769 -0.773655 21.4059
-0.249669 0.235149 14.9391
-0.213141 -0.166275 20.4636
3.07321 2.01804 21.4949
1.71232 -0.808923 21.683
0.321211 0.130554 21.3206
0.108741 -0.456387 20.2608
-1.02969 -0.559365 20.0398
-0.704862 -0.283574 19.8149
-0.682205 -0.490532 19.5627
-0.835391 -0.576118 21.2571
-1.51656 -0.718639 20.5736
-1.78083 -1.68254 20.6912
-0.096552 -0.202311 21.4925
-0.47126 -0.419075 21.4464
-0.227884 -0.46721 21.6221
0.376888 0.0947133 21.5466
0.102933 -0.113854 21.5573
0.220407 -0.0149134 21.6696
0.762326 0.29208 21.172
0.750612 0.192017 21.4191
0.859363 0.649037 21.0744
0.908338 0.271898 20.241
0.949337 0.202528 21.1765
1.10667 0.812055 21.0217
0.932706 -0.0598346 21.2348
0.864909 0.579331 21.4623
-1.33939 -0.438409 19.8666
-0.820237 -0.0749114 19.6752
-0.861671 -0.404684 19.3717
-1.14589 -0.581594 21.3545
-1.94257 -0.237545 20.5449
-0.192205 -0.308805 21.5499
-0.783963 -0.425854 21.4775
0.427126 -0.0386569 21.6572
-0.000247178 -0.232839 21.7162
0.99452 0.100487 21.3558
0.881584 -0.149722 21.4865
1.10311 0.0737288 20.6003
1.12868 -0.203542 21.1764
1.57195 0.627665 18.0342
0.98443 -0.28583 21.1163
1.25664 0.332565 16.3547
-1.4669 0.172451 19.8428
-0.692602 0.304967 19.7948
-1.01834 0.167052 19.1798
-1.46896 -0.0515316 21.1818
-1.36092 0.581554 20.419
-0.597451 -0.289184 21.6643
-1.08296 0.223932 21.3186
0.296559 -0.265505 21.7107
-0.271537 -0.0874972 21.6555
0.874292 -0.422562 21.2802
0.368464 -0.384743 21.4057
0.781523 -0.43246 21.1419
0.54463 -0.46013 21.0065
1.38849 -0.585875 19.2817
0.459407 -0.40385 20.9652
1.23511 -0.546934 19.2211
-0.724911 0.515212 20.1167
-0.536407 0.531747 19.7782
-0.882848 0.536514 20.8194
-0.976543 0.987656 20.3307
-0.539768 0.208448 21.4546
-1.02715 0.77477 21.276
0.0282265 -0.170175 21.4711
-0.277052 0.0870561 21.6815
0.284121 -0.382926 21.1846
0.18912 -0.411699 21.4137
0.362599 -0.394005 20.9171
0.323561 -0.51606 20.9431
0.185889 -0.409344 20.9628
-1.3236 -1.87206 19.0508
-0.70442 -0.626272 19.0605
0.022787 -0.941825 18.8921
-0.552959 -1.11122 22.2837
0.0184207 -4.33965 21.9254
0.0127298 -0.00742048 20.7537
-0.000590563 -0.27802 20.4747
0.400082 0.654216 18.9838
-0.00264406 0.172129 18.5675
0.590166 1.34833 17.8584
-2.27289e-05 0.716341 14.2091
0.581492 1.21994 17.9657
1.03968 1.79896 13.6115
-0.00273522 1.28564 13.7316
1.27299 0.876393 13.0922
-0.00359467 1.28112 14.3871
-0.978755 -0.177513 18.5903
0.0292011 -0.77536 18.2813
1.6217 1.21184 11.3448
2.08029 0.25678 6.6428
0.00235855 -0.00242642 -1.34573
1.56631 0.186689 12.1333
-0.0140868 1.01356 7.01843
-0.760487 0.752758 19.0899
0.0324774 0.451431 17.6776
1.39318 -0.747506 12.8484
0.625421 -0.99649 19.9477
-0.00922773 -0.462853 -0.367306
0.424302 -0.911641 19.824
-0.0102546 -1.71266 4.77282
-0.723219 1.1788 19.7458
0.00765789 0.934572 19.4092
-1.04435 1.48996 20.7002
0.00834603 2.14773 20.0463
-0.731208 0.832886 21.8783
-0.0222833 2.48315 21.2825
0.0449809 -0.273234 21.742
-0.00937116 0.361376 22.1373
0.222158 -0.596509 21.3436
0.00720499 -0.577904 21.5751
0.240657 -0.741608 20.8969
0.00804692 -0.848025 21.02
0.000257004 -0.79066 20.9348
1.33447 -1.78601 19.1208
0.72651 -0.593425 19.1203
0.690132 -0.474381 19.5853
0.567861 -1.09923 22.2426
1.77488 -1.62257 20.6697
-0.0123467 -0.00501909 20.7698
0.240392 -0.470054 21.6133
-0.373748 0.660279 18.7502
-0.220152 -0.0123136 21.6691
-0.540117 1.32092 17.4785
-0.854468 0.696418 20.9551
-0.570462 1.22392 17.9708
-1.04093 1.7899 13.6088
-1.11188 0.825076 21.0081
-1.26263 0.865254 13.225
-0.866202 0.569237 21.4655
0.997041 -0.173569 18.6689
0.866649 -0.400026 19.4025
-1.61633 1.19563 11.6763
-2.10403 0.259972 6.88992
-1.56863 0.590578 18.2141
-1.55902 0.168516 12.3079
-1.24888 0.314889 16.5635
0.76127 0.73121 19.1339
1.01592 0.159668 19.2269
-1.3947 -0.747659 13.2061
-0.622364 -1.00517 19.8087
-1.36282 -0.585101 19.4073
-0.419661 -0.916827 19.8118
-1.23406 -0.533904 19.2528
0.727017 1.16085 19.7545
0.536781 0.522688 19.7915
1.04217 1.49501 20.6989
0.97591 0.976632 20.3336
0.73575 0.880398 21.9096
1.03407 0.797179 21.279
-0.0462117 -0.284191 21.759
0.2841 0.0989224 21.7008
-0.20647 -0.607786 21.346
-0.195815 -0.418027 21.434
-0.236138 -0.75393 20.8982
-0.331574 -0.537438 20.9472
-0.173006 -0.411121 20.9658
1.01288 -0.539392 20.0566
0.704301 -0.276162 19.8264
0.839702 -0.576151 21.2536
1.50447 -0.711918 20.5726
0.106418 -0.208803 21.4892
0.472086 -0.422677 21.4472
-0.381224 0.0984592 21.5605
-0.105443 -0.114109 21.5561
-0.770323 0.311797 21.1711
-0.75042 0.192817 21.421
-0.911356 0.279087 20.2459
-0.936617 0.200834 21.1682
-0.936972 -0.0604828 21.2056
1.32648 -0.432977 19.8811
0.812819 -0.0708919 19.6961
1.14699 -0.585525 21.3591
1.95121 -0.239033 20.5492
0.19074 -0.306478 21.5505
0.785966 -0.42808 21.4867
-0.425574 -0.0377981 21.6541
-0.000835646 -0.233646 21.7158
-0.98244 0.0980346 21.372
-0.87024 -0.148763 21.4971
-1.07118 0.0716637 20.6515
-1.12091 -0.204869 21.1712
-0.960293 -0.274469 21.1683
1.45868 0.171243 19.8518
0.689398 0.298318 19.8077
1.47471 -0.0544064 21.189
1.36085 0.580034 20.4195
0.597045 -0.291046 21.6671
1.10151 0.222258 21.3247
-0.294675 -0.262673 21.7109
0.274941 -0.0897576 21.673
-0.866373 -0.413904 21.2657
-0.390782 -0.403752 21.4169
-0.764445 -0.417939 21.089
-0.556076 -0.461312 21.0529
-0.461578 -0.414983 20.9672
0.723671 0.508251 20.1214
0.888883 0.541351 20.8196
0.557607 0.21553 21.4688
-0.0323891 -0.171003 21.4873
-0.277387 -0.378362 21.1898
-0.333777 -0.41092 20.9339
-1.18034 -0.544368 19.9753
-1.8056 -2.02789 18.4467
-1.30169 -1.05984 19.6471
-1.92595 -0.890288 19.1559
-0.790273 -0.464496 19.4679
-2.6038 -1.92455 20.6513
-0.988175 -0.596897 21.3001
-0.329881 -0.524703 17.411
-0.822381 -0.977187 21.6593
-1.31132 -1.1823 22.0879
-0.2357 -0.598237 21.6971
-0.149074 -0.258392 21.512
0.0892517 0.165795 14.9967
0.0164425 -0.233704 21.6485
-0.00548557 -0.430525 20.7261
0.264274 -0.100743 21.393
0.397423 0.0361457 21.6056
0.367471 0.548563 12.5616
0.526345 0.272012 21.5588
0.586946 0.180136 19.39
1.10361 0.66344 19.9378
0.904563 0.195172 21.304
0.474078 1.33974 11.9267
0.978885 0.743349 20.801
1.3902 0.592311 18.4797
1.19167 0.799752 19.3629
1.01553 0.170803 20.4268
1.21878 1.20174 13.2434
0.997244 0.537486 21.0673
1.63228 0.567526 19.3627
1.05288 0.451956 18.9067
-1.47636 -0.13911 19.8122
-3.14472 -0.52789 16.6286
-2.23957 0.457295 19.0097
-1.01264 -0.114865 19.1857
-4.3206 -0.535617 20.4774
-1.38731 -0.37208 21.3106
-2.21691 -0.184421 21.6505
-0.840859 -0.86861 21.4133
-0.358739 -0.355932 21.6163
-0.806955 -0.848607 21.2096
0.150447 -0.185439 19.6271
0.403595 -0.144349 21.7372
0.582342 -0.0831725 19.3772
1.34354 0.237371 16.8226
1.04944 -0.175719 21.2749
0.254695 0.42179 3.41948
1.2571 -0.463748 19.114
1.71015 -0.024473 16.8243
0.945371 -0.213449 21.1552
1.8499 0.299571 8.93925
1.43648 -0.610235 19.6411
1.38067 -0.243004 17.7313
-1.08933 0.493313 19.9759
-1.49971 1.73663 18.9657
-0.780563 0.813923 19.9659
-0.782481 0.49713 19.4645
-1.89595 1.27292 20.2759
-1.2862 0.404486 20.9446
-2.2369 1.8741 20.732
-1.06602 0.930071 20.8012
-1.82997 0.5418 21.4844
-0.704752 0.0518231 21.6036
-1.80592 0.757299 22.4921
-0.687352 0.425011 21.6385
-0.398971 -0.0712207 21.9918
0.112615 -0.24199 21.6009
0.405736 -0.500945 20.734
0.0164828 -0.219817 21.5956
0.427304 -0.612296 21.5756
0.495314 -0.456564 21.3085
0.519604 -0.920625 20.5853
0.263322 -0.479704 21.2491
0.551554 -0.775753 21.4115
0.580644 -0.499356 20.8601
0.474977 -1.04638 19.8243
0.253888 -0.47834 21.133
0.398146 -0.588093 20.5719
1.82149 -1.97327 18.5468
0.0401692 -2.98187 18.384
0.0390551 -3.43137 15.5066
0.0234722 -0.911865 18.5795
0.00132486 -5.51769 23.0554
0.335432 -0.555363 17.7626
0.00463442 -1.02124 22.1484
-0.00185598 0.0194193 11.7115
-0.0859281 0.165178 15.0321
-0.00256708 -0.0502674 19.1996
-0.00151522 0.133753 10.6135
-0.349899 0.542523 12.2276
0.00131418 0.561841 16.171
-0.0199094 0.397603 5.54529
-0.433232 1.329 11.7608
-0.0485024 0.57686 14.1029
-0.00322941 -1.3454 -2.26302
-0.00309795 1.12503 5.91891
-1.22848 1.19703 13.2783
-0.00019904 1.44152 13.4656
0.000857933 -0.598923 -0.79979
-0.00854793 1.19355 10.8689
3.13292 -0.492784 16.7694
0.0542076 3.14936 13.5661
0.0342633 -0.291704 17.7661
-0.280416 0.411107 3.51781
0.00668652 0.406443 -1.07322
-0.0239877 -0.266026 -4.42326
-1.85048 0.289982 9.25642
-0.0122024 -1.53714 2.24692
-0.0189614 -0.559036 3.28092
1.50549 1.70111 18.9845
0.00890311 1.66437 19.5163
0.0192184 1.04372 18.6241
0.00692232 4.13203 19.8472
2.23592 1.87924 20.7299
-0.00306126 2.21409 20.5099
-0.0248426 5.37541 20.7931
1.83796 0.78422 22.4026
-0.0306303 1.47871 22.2732
-0.00201869 0.0749741 18.881
-0.436866 -0.514974 20.4981
-8.3255e-05 -0.31914 21.8573
0.00599757 -0.840574 15.0389
-0.514723 -0.926636 20.4504
0.00850537 -0.696441 21.3637
0.00354752 -1.13717 17.5343
-0.470268 -1.05402 19.7757
0.00417817 -0.651269 20.9884
0.00530906 -1.08783 19.021
1.16485 -0.534849 19.9839
1.29723 -1.02795 19.6712
1.89346 -0.868143 19.1973
0.787194 -0.444222 19.4894
2.56752 -1.87631 20.6423
0.983985 -0.600325 21.301
0.836547 -0.971451 21.6388
1.31314 -1.18447 22.089
0.251435 -0.600485 21.7024
0.151822 -0.264382 21.5118
-0.00927525 -0.235612 21.6442
0.00690658 -0.429928 20.7465
-0.260723 -0.0979253 21.3618
-0.399121 0.0351867 21.6069
-0.525868 0.290924 21.4769
-0.588453 0.174085 19.4889
-1.09894 0.688336 19.794
-0.903353 0.200898 21.3079
-0.975849 0.77771 20.7612
-1.38513 0.572231 18.6455
-1.18915 0.78809 19.4034
-1.0021 0.174357 20.4567
-0.994013 0.541176 21.0811
-1.64372 0.548285 19.385
-1.0489 0.438972 19.046
1.46089 -0.134346 19.8258
2.20212 0.435614 19.0598
1.0007 -0.115169 19.229
4.33339 -0.542113 20.4707
1.39063 -0.37524 21.3188
2.22187 -0.186141 21.6569
0.839682 -0.872168 21.3928
0.358923 -0.356226 21.623
0.805148 -0.847706 21.1928
-0.149031 -0.191501 19.6758
-0.405418 -0.145057 21.7432
-0.583165 -0.0964093 19.4315
-1.34622 0.223227 16.9611
-1.03525 -0.177725 21.2999
-1.25047 -0.476405 19.261
-1.69415 -0.0379245 17.139
-0.917245 -0.204212 21.1871
-1.40123 -0.603027 19.7404
-1.37502 -0.254714 17.9342
1.08203 0.48594 19.983
0.781785 0.801034 19.9739
0.78409 0.48455 19.4891
1.89092 1.26592 20.2772
1.2949 0.405262 20.9469
1.06814 0.936434 20.8003
1.85603 0.553892 21.4882
0.71881 0.0502673 21.6113
0.694253 0.457875 21.6543
0.40562 -0.064753 22.0163
-0.11488 -0.250304 21.6092
-0.016321 -0.22638 21.6166
-0.428021 -0.62959 21.5909
-0.499645 -0.468954 21.2773
-0.262092 -0.500093 21.2502
-0.558655 -0.784549 21.4413
-0.61009 -0.516055 20.8986
-0.258693 -0.502359 21.1446
-0.39274 -0.595425 20.5432
-1.61707 -1.03716 19.4141
-1.00126 -1.08695 21.8407
0.0432664 -0.326904 21.5211
0.616677 0.23079 20.8487
1.24849 0.730478 19.6125
1.31069 0.538518 20.2208
-2.31669 -0.252231 18.9068
-1.92595 -0.774432 22.1114
-0.192226 -0.592067 20.342
0.581219 0.14843 18.7278
1.52905 0.0726523 17.7866
1.51873 -0.0875104 17.8277
-1.39928 0.949418 19.5631
-1.84417 0.857159 20.9582
-1.1463 0.183195 21.9704
0.161252 -0.35401 21.8339
0.524847 -0.710137 21.3355
0.707148 -0.745735 20.8505
0.0479603 -3.54223 17.2159
0.00288324 -0.234754 13.2914
-0.00223564 0.0521539 10.719
0.00134712 0.396524 7.95639
-0.0187875 -0.557391 4.55499
0.000382393 0.469518 6.12789
0.0473579 -0.724456 13.1286
0.00589032 -0.49074 -4.39164
-0.0177967 -0.68064 -0.137687
0.016999 2.91802 18.2295
-0.00371053 3.34422 20.1126
-0.0170613 2.02738 21.0388
0.0094732 -0.711283 15.6074
0.00322788 -0.877192 16.5031
0.00117505 -1.31687 18.0277
1.59893 -1.00175 19.4424
1.01189 -1.07928 21.818
-0.0371598 -0.326482 21.5199
-0.614783 0.239554 20.7903
-1.24808 0.737715 19.5598
-1.31456 0.531882 20.2392
2.26756 -0.250343 18.9682
1.92854 -0.779025 22.1194
0.191721 -0.592843 20.3412
-0.584708 0.139001 18.8126
-1.5225 0.0603612 17.9457
-1.50836 -0.100241 18.0869
1.38898 0.924463 19.5819
1.84926 0.863317 20.9575
1.16994 0.201283 21.9908
-0.165291 -0.363843 21.8545
-0.523872 -0.721583 21.3388
-0.696753 -0.756475 20.8386
-3.26993 -0.769396 3.99374
0.0094741 -0.15971 0.753901
-0.0161033 -0.0019623 0.294328
0.0651649 0.00520776 0.133452
-0.0301166 0.0196148 0.0933647
0.0253245 0.270613 1.09621
-2.94095 0.327482 2.37832
-0.00730429 0.0387227 0.103446
-0.447342 -0.0685297 1.60381
0.022199 -0.031816 0.069042
-0.0334153 0.0107454 -0.0229788
0.00921209 -0.0136919 0.153156
-0.00798188 -0.154705 0.735666
3.28389 -0.78 4.0159
0.0178465 -0.0042721 0.336422
0.0305644 0.0200197 0.0960609
-0.0665328 0.00549484 0.137599
-0.0222298 0.266181 1.08333
0.00940086 0.0567022 0.141953
2.95065 0.328124 2.38314
0.449662 -0.0681766 1.61254
0.0333414 0.0109336 -0.0233121
-0.0214776 -0.0297473 0.0658766
-0.00999026 -0.0136597 0.158152
-0.0210097 0.0559564 0.646713
-0.00162467 0.0179065 0.820156
0.000443929 -0.000106437 0.176526
-1.10921e-19 -3.95139e-19 -4.25429e-17
0.0144352 0.0204043 0.574534
-0.00374926 0.0113897 0.407679
-0.00540755 0.0133038 0.159912
0 0 0
-0.100969 -0.0556345 0.197797
-4.0205e-06 -0.000152834 0.0055315
0.00528767 0.0113528 0.0446538
-0.108486 0.0982919 0.259871
0 0 0
0.00133071 0.0138412 0.0539343
0 0 0
0.00106217 -0.000362227 0.0059602
0.0198279 0.0542052 0.655573
-1.24165e-19 3.97871e-19 4.26451e-17
0.00194287 0.0177979 0.820112
-0.000365373 -0.000160882 0.175789
-0.0142573 0.0209958 0.578526
0 0 0
0.00379498 0.0112212 0.403625
0.00549258 0.0136303 0.159304
0.0985717 -0.053085 0.191906
0.10063 0.0908988 0.240231
2.58245e-07 -1.73974e-05 0.000637955
-0.00488171 0.0103842 0.0402232
0 0 0
-0.00151577 -0.000503056 0.00849175
-0.00133505 0.0147318 0.0561543
0 0 0
-0.0121483 -0.012948 0.199161
-1.14367 0.217848 0.790836
-5.64043e-09 -1.33396e-07 9.73882e-06
-0.00110709 -1.798 1.27934
-0.000595348 -0.00127107 0.0282111
-8.65302e-07 1.34841e-07 4.73525e-05
0.00519217 0.00250733 0.03249
-0.240532 0.0814121 -0.0605454
2.10919e-05 0.0020331 0.0235222
0 0 0
0.000243396 0.0294198 0.341519
0.00217771 0.0039191 0.0617401
-0.000905328 0.147432 0.0757933
-1.75432e-05 0.00864536 0.0697716
-2.32489e-05 -0.000152362 0.00090871
0 0 0
3.92207e-06 0.0263371 -0.00762624
0 0 0
0.0058006 0.0117927 0.07631
-0.00100549 -0.000628054 0.00148876
1.24398 0.237728 0.855289
0.0123736 -0.0129154 0.202034
7.46148e-07 1.26957e-07 4.29164e-05
0.000657338 -0.00146153 0.0312985
0.24002 0.0809684 -0.0604022
-0.00280306 0.0013335 0.017448
-0.00217977 0.00391963 0.0618612
-0.000511809 0.0264974 0.307832
0 0 0
9.1252e-06 -5.93618e-05 0.000353594
0.00117622 -0.000727481 0.00175234
-0.0060679 0.0120573 0.0767888
-0.00188748 0.00937355 0.10986
0 0 0
0 0 0
1.78386e-06 0.00262876 0.039268
-1.01522e-06 1.06907e-05 0.00146185
0 0 0
1.63273e-05 0.00140481 0.0108325
0 0 0
-4.71538e-09 8.50542e-09 4.07378e-06
0 0 0
0.000505644 0.00262054 0.0140224
0.0257071 0.0342337 0.685494
7.3278e-05 0.00611042 0.0191649
2.73966e-05 0.00198345 0.0125541
-2.77236e-06 -1.97827e-05 0.000623192
-1.80188e-05 -0.00156279 0.0073932
0 0 0
0.0018705 0.00962455 0.113667
0 0 0
-1.04699e-05 0.00229812 0.0344768
-1.14621e-05 0.00148935 0.0115016
0 0 0
-0.0255612 0.0349909 0.686386