# vtk DataFile Version 2.0
tet_velo
ASCII
DATASET UNSTRUCTURED_GRID
POINTS 29498 float
-0.767426 0.255 -2.025
-0.725 0.325 2.23799
-0.755 0.765 -1.97451
-0.655 1.015 2.25979
0.767406 0.255 -2.025
0.725 0.325 2.23994
0.755 0.765 -1.97431
0.655 1.015 2.25979
-0.82793 0.203688 -0.604004
-0.831506 0.209302 0.816993
-0.806029 0.932695 -0.563077
-0.76849 1.01182 0.848357
0.827919 0.203685 -0.603354
0.831777 0.209025 0.818293
0.805788 0.932454 -0.562944
0.768072 1.01141 0.848423
-1.56455 -0.143138 -3.17789
-1.5709 -0.103012 -2.04485
-1.60855 -0.138805 -0.623554
-1.59991 -0.148767 0.799662
-1.52853 -0.0726337 2.22112
-1.50915 -0.0154154 3.35496
-1.51678 0.0293924 4.48734
-1.56295 0.175507 -3.15616
-1.56761 0.239595 -2.02418
-1.61489 0.224713 -0.60483
-1.59113 0.222358 0.815345
-1.48596 0.295367 2.23488
-1.48134 0.350971 3.36856
-1.50245 0.395131 4.50126
-1.55768 0.765543 -3.10996
-1.55627 0.827239 -1.97755
-1.59418 0.941192 -0.564736
-1.54413 0.996942 0.847354
-1.43351 1.01877 2.26031
-1.45306 1.07112 3.39408
-1.4901 1.12087 4.52817
-1.56054 1.76817 -3.04816
-1.56188 1.84816 -1.91724
-1.57039 1.98382 -0.50759
-1.55855 2.0905 0.899912
-1.52922 2.14497 2.30958
-1.51904 2.18031 3.44052
-1.52443 2.22003 4.57353
-0.777842 -0.135097 -3.17839
-0.770725 -0.091345 -2.0456
-0.807893 -0.148723 -0.623171
-0.821883 -0.158423 0.801289
-0.77452 -0.058453 2.22375
-0.761454 -0.00517095 3.35685
-0.76781 0.034527 4.48857
-0.780324 0.176251 -3.15623
-0.743213 0.362152 3.37009
-0.759371 0.400269 4.50224
-0.776972 0.740637 -3.10862
-0.721752 1.07308 3.39411
-0.752513 1.12302 4.52839
-0.776171 1.75055 -3.04682
-0.774936 1.8312 -1.91578
-0.787433 1.97972 -0.506641
-0.792235 2.09546 0.899986
-0.780352 2.14813 2.30909
-0.77397 2.18158 3.44005
-0.777242 2.22091 4.57327
0.782809 -0.135149 -3.1782
0.798031 -0.0913754 -2.0454
0.825837 -0.148785 -0.622551
0.80584 -0.158633 0.802431
0.734093 -0.0585415 2.22528
0.724173 -0.00525884 3.35805
0.724838 0.0344149 4.48951
0.768177 0.17621 -3.1561
0.710918 0.362091 3.37125
0.717289 0.400166 4.50313
0.762346 0.740589 -3.10844
0.687272 1.07301 3.39467
0.706796 1.12291 4.52905
0.785681 1.75042 -3.04658
0.790683 1.83105 -1.91554
0.780383 1.97952 -0.506396
0.745096 2.09523 0.900253
0.71179 2.14793 2.30941
0.707097 2.18142 3.44046
0.711085 2.22076 4.57375
1.56916 -0.143277 -3.17743
1.58581 -0.10314 -2.04433
1.6214 -0.139015 -0.622467
1.59994 -0.149147 0.801505
1.51577 -0.072886 2.22347
1.4859 -0.0156354 3.35705
1.48218 0.0291491 4.48911
1.55424 0.175381 -3.15579
1.56564 0.239475 -2.02383
1.61747 0.224496 -0.603889
1.60129 0.221922 0.817051
1.49669 0.295157 2.23715
1.46641 0.350782 3.37054
1.46983 0.3949 4.50294
1.54579 0.765396 -3.10958
1.55232 0.827071 -1.9772
1.59399 0.940808 -0.564247
1.55136 0.996391 0.848059
1.44238 1.01853 2.2612
1.43525 1.07091 3.39529
1.45353 1.12063 4.52948
1.56697 1.76791 -3.04766
1.57194 1.84785 -1.91675
1.56337 1.98342 -0.507057
1.52215 2.09006 0.900513
1.47509 2.14459 2.31029
1.46183 2.17998 3.44138
1.46422 2.21972 4.57452
-0.806755 0.51 -2.0453
-1.00136e-05 0.255804 -2.0242
-0.806757 0.220264 -1.3145
-0.745753 0.67 2.30464
0 0.309288 2.25468
-0.78062 0.264785 1.52749
0 0.843782 -2.05319
-0.819356 0.887689 -1.26879
0 1.0367 2.28149
-0.751564 1.05323 1.55407
0.806779 0.51 -2.04523
0.806114 0.220891 -1.31418
0.745788 0.67 2.30565
0.780189 0.265212 1.52912
0.819335 0.887668 -1.26863
0.751538 1.0532 1.55411
-0.827191 0.209022 0.106495
-0.880841 0.568191 -0.58354
-5.26117e-06 0.204928 -0.603679
-0.8845 0.610563 0.832675
0.000135257 0.205562 0.817643
-0.786089 0.971089 0.14264
-0.000120561 1.22892 -0.56301
-0.000208948 1.43009 0.84839
0.827187 0.209016 0.10747
0.880085 0.56807 -0.583149
0.883774 0.610215 0.833358
0.785924 0.970924 0.14274
-0.879826 0.539096 -1.29165
-0.883231 0.589377 0.124567
-0.890061 0.640281 1.54078
-7.63737e-06 0.221021 -1.31434
6.49978e-05 0.212241 0.106982
6.76284e-05 0.263358 1.5283
-5.00679e-06 0.51 -2.29059
0 0.67 2.42136
-6.02805e-05 0.963864 -1.26871
-0.000164755 1.41793 0.14269
-0.000104474 1.25315 1.55409
0.879825 0.539035 -1.2914
0.88248 0.589142 0.125105
0.889321 0.640108 1.54161
-1.16752 0.247297 -2.02459
-0.769076 0.0818275 -2.0353
-0.773875 0.215625 -2.59062
-1.10548 0.310183 2.23643
-0.74976 0.133273 2.23087
-0.734106 0.343576 2.80404
-1.15563 0.79612 -1.97603
-0.765986 0.752819 -2.54156
-0.764968 1.2981 -1.94514
-1.04426 1.01689 2.26005
-0.688376 1.04404 2.82695
-0.717676 1.58156 2.28444
0.782719 0.0818123 -2.0352
0.767792 0.215605 -2.59055
1.16652 0.247238 -2.02442
0.729547 0.133229 2.23261
0.717959 0.343545 2.8056
1.11085 0.310079 2.23854
0.758673 0.752794 -2.54138
0.772842 1.29803 -1.94493
1.15366 0.796036 -1.97576
0.671136 1.04401 2.82723
0.683395 1.58147 2.2846
1.04869 1.01677 2.26049
-1.22141 0.214201 -0.604417
-0.817911 0.0274822 -0.613587
-1.21132 0.21583 0.816169
-0.826695 0.0254395 0.809141
-1.2001 0.936944 -0.563907
-0.796731 1.45621 -0.534859
-1.15631 1.00438 0.847855
-0.780363 1.55364 0.874171
0.826878 0.0274501 -0.612952
1.2227 0.21409 -0.603622
0.818809 0.0251961 0.810362
1.21654 0.215474 0.817672
0.793085 1.45599 -0.53467
1.19989 0.936631 -0.563595
0.756584 1.55332 0.874338
1.15972 1.0039 0.848241
-1.56772 -0.123075 -2.61137
-1.56375 0.0161844 -3.16702
-1.1712 -0.139118 -3.17814
-1.58973 -0.120909 -1.3342
-1.56925 0.0682913 -2.03452
-1.17081 -0.0971786 -2.04523
-1.60423 -0.143786 0.0880538
-1.61172 0.0429541 -0.614192
-1.20822 -0.143764 -0.623363
-1.56422 -0.1107 1.51039
-1.59552 0.0367954 0.807503
-1.2109 -0.153595 0.800476
-1.51884 -0.0440245 2.78804
-1.50725 0.111367 2.228
-1.15153 -0.0655433 2.22244
-1.51296 0.00698852 3.92115
-1.49524 0.167778 3.36176
-1.1353 -0.0102932 3.3559
-1.50962 0.212261 4.4943
-1.1423 0.0319597 4.48795
-1.56528 0.207551 -2.59017
-1.56031 0.470525 -3.13306
-1.17164 0.175879 -3.1562
-1.59125 0.232154 -1.31451
-1.56194 0.533417 -2.00087
-1.60301 0.223536 0.105257
-1.60453 0.582953 -0.584783
-1.53855 0.258862 1.52511
-1.56763 0.60965 0.831349
-1.48365 0.323169 2.80172
-1.45974 0.65707 2.2476
-1.4919 0.373051 3.93491
-1.4672 0.711043 3.38132
-1.11228 0.356562 3.36932
-1.49627 0.758001 4.51471
-1.13091 0.3977 4.50175
-1.55697 0.796391 -2.54375
-1.55911 1.26685 -3.07906
-1.16733 0.75309 -3.10929
-1.57522 0.884216 -1.27114
-1.55908 1.3377 -1.9474
-1.56915 0.969067 0.141309
-1.58228 1.4625 -0.536163
-1.48882 1.00786 1.55383
-1.55134 1.54372 0.873633
-1.44328 1.04494 2.8272
-1.48137 1.58187 2.28495
-1.47158 1.09599 3.96113
-1.48605 1.62571 3.4173
-1.0874 1.0721 3.3941
-1.50726 1.67045 4.55085
-1.1213 1.12195 4.52828
-1.56121 1.80816 -2.4827
-1.16835 1.75936 -3.04749
-1.56614 1.91599 -1.21242
-1.16841 1.83968 -1.91651
-1.56447 2.03716 0.196161
-1.17891 1.98177 -0.507116
-1.54389 2.11774 1.60475
-1.17539 2.09298 0.899949
-1.52413 2.16264 2.87505
-1.15479 2.14655 2.30933
-1.52174 2.20017 4.00703
-1.14651 2.18095 3.44029
-1.15084 2.22047 4.5734
-0.774284 -0.113221 -2.61199
-0.779083 0.020577 -3.16731
0.00248327 -0.135123 -3.1783
-0.789309 -0.120034 -1.33439
0.0136531 -0.0913602 -2.0455
-0.814888 -0.153573 0.0890589
0.00897225 -0.148754 -0.622861
-0.798202 -0.108438 1.51252
-0.0080216 -0.158528 0.80186
-0.767987 -0.031812 2.7903
-0.0202133 -0.0584973 2.22452
-0.764632 0.014678 3.92271
-0.752333 0.178491 3.36347
-0.0186407 -0.00521489 3.35745
-0.763591 0.217398 4.49541
-0.0214861 0.034471 4.48904
-0.778648 0.458444 -3.13243
-0.00607367 0.176231 -3.15617
-0.751292 0.381211 3.93617
-0.732482 0.717615 3.3821
-0.0161471 0.362122 3.37067
-0.755942 0.761644 4.51532
-0.0210411 0.400217 4.50269
-0.776572 1.24559 -3.07772
-0.00731302 0.740613 -3.10853
-0.737133 1.09805 3.96125
-0.747861 1.62733 3.41708
-0.0172403 1.07304 3.39439
-0.764878 1.67197 4.55083
-0.0228583 1.12297 4.52872
-0.775553 1.79087 -2.4813
0.00475485 1.75048 -3.0467
-0.781184 1.90546 -1.21121
0.00787392 1.83113 -1.91566
-0.789834 2.03759 0.196672
-0.00352532 1.97962 -0.506518
-0.786293 2.1218 1.60454
-0.0235694 2.09535 0.900119
-0.777161 2.16485 2.87457
-0.0342807 2.14803 2.30925
-0.775606 2.20125 4.00666
-0.0334364 2.1815 3.44025
-0.0330785 2.22083 4.57351
0.79042 -0.113262 -2.6118
0.775493 0.0205306 -3.16715
1.17599 -0.139213 -3.17782
0.811934 -0.12008 -1.33398
1.19192 -0.0972577 -2.04487
0.815839 -0.153709 0.08994
1.22362 -0.1439 -0.622509
0.769967 -0.108587 1.51386
1.20289 -0.15389 0.801968
0.729133 -0.0319002 2.79167
1.12493 -0.0657138 2.22437
0.724505 0.0145781 3.92378
0.717546 0.178416 3.36465
1.10504 -0.0104471 3.35755
0.721063 0.21729 4.49632
1.10351 0.031782 4.48931
0.765262 0.4584 -3.13227
1.16121 0.175796 -3.15594
0.714104 0.381128 3.93719
0.699095 0.717551 3.38296
1.08867 0.356436 3.3709
0.712043 0.761539 4.51609
1.09356 0.397533 4.50304
0.774013 1.24551 -3.07751
1.15407 0.752992 -3.10901
0.697034 1.09796 3.96186
0.697184 1.62722 3.41756
1.06126 1.07196 3.39498
0.708941 1.67183 4.5514
1.08016 1.12177 4.52927
0.788182 1.79074 -2.48106
1.17633 1.75916 -3.04712
0.785533 1.90529 -1.21097
1.18131 1.83945 -1.91614
0.762739 2.03737 0.196928
1.17188 1.98147 -0.506726
0.728443 2.12158 1.60483
1.13362 2.09264 0.900383
0.709444 2.16468 2.87493
1.09344 2.14626 2.30985
0.709091 2.20109 4.00711
1.08446 2.1807 3.44092
1.08765 2.22024 4.57414
1.57749 -0.123209 -2.61088
1.5617 0.0160522 -3.16661
1.6036 -0.121078 -1.3334
1.57572 0.0681676 -2.03408
1.61067 -0.144081 0.0895188
1.61943 0.0427405 -0.613178
1.55786 -0.111016 1.51249
1.60062 0.0363878 0.809278
1.50084 -0.0442607 2.79026
1.50623 0.111136 2.23031
1.48404 0.00675685 3.92308
1.47616 0.167573 3.3638
1.476 0.212025 4.49603
1.55994 0.207428 -2.58981
1.55002 0.470389 -3.13268
1.59155 0.231986 -1.31386
1.55898 0.533273 -2.00052
1.60938 0.223209 0.106581
1.60573 0.582652 -0.584068
1.54899 0.25854 1.5271
1.57633 0.609157 0.832555
1.48155 0.322969 2.80384
1.46954 0.656845 2.24917
1.46812 0.372841 3.93674
1.45083 0.710847 3.38292
1.46168 0.757766 4.51621
1.54906 0.796233 -2.54339
1.55638 1.26665 -3.07862
1.57316 0.88394 -1.27073
1.56213 1.33746 -1.94698
1.57268 0.9686 0.141906
1.57868 1.46211 -0.535652
[...]
POINT_DATA 29498
VECTORS point_vectors float
-3.41227 -5.93814 8.85624
0.148111 0.237119 0.662585
-0.754478 0.896738 1.84877
-0.0636526 -0.128888 0.387895
3.41562 -5.93001 8.82574
-0.121212 0.224127 0.648
0.748617 0.886828 1.8434
-0.0447531 -0.0262706 0.323814
0.0148835 -0.0836442 2.07991
0.44211 -0.680605 3.56181
-1.19566e-18 -2.63814e-18 -4.53945e-17
0 0 0
-0.00508764 -0.0779841 2.13261
-0.463182 -0.724982 3.53359
0 0 0
0 0 0
-0.590135 -0.275714 19.875
-1.17832 -0.643906 20.5302
-0.421593 -0.365212 21.3195
0.0644493 -0.0769616 21.5268
0.569638 0.248592 21.4086
0.814012 0.3454 21.1899
0.839024 0.0719174 20.9495
-0.683993 -0.196697 19.7837
-1.59123 -0.542551 20.4967
-0.553711 -0.424185 21.3873
0.0610918 -0.166907 21.596
0.860392 0.116049 21.5158
1.1427 0.173403 21.2848
1.10077 -0.0513123 21.2765
-0.757172 0.0657573 19.7139
-1.80764 0.132294 20.424
-1.10983 -0.28109 21.4012
-0.177216 -0.307262 21.7374
0.760806 -0.478733 21.5039
1.04246 -0.565891 21.1921
0.826148 -0.33285 21.0046
-0.499756 0.332542 19.9526
-0.88123 0.580199 20.392
-0.815745 0.405932 21.1212
-0.252205 -0.0123544 21.5006
0.169355 -0.337741 21.3304
0.279213 -0.360234 21.1644
0.258511 -0.31089 20.7839
-0.613834 -0.622608 19.3185
-1.75115 -3.10701 20.8103
-0.418036 -0.478672 21.7537
0.0430154 0.115763 21.3178
0.412923 1.09752 19.677
0.765563 1.41726 18.13
0.526029 0.985647 19.2201
-0.759035 -0.493641 18.9951
1.3289 1.65425 11.7521
2.13729 1.05665 12.2581
-0.933055 0.203979 18.6911
1.44195 -0.520816 10.3075
1.29268 -0.567254 16.8317
-0.455911 0.6896 19.6024
-0.922643 1.4673 20.1396
-1.14993 1.47707 21.2339
-0.322469 0.178375 21.9012
0.0792498 -0.490883 21.4737
0.216048 -0.608464 21.1637
0.159766 -0.524547 20.7486
0.607459 -0.614466 19.3158
1.77396 -2.93213 20.7631
0.399518 -0.458454 21.7402
-0.0625306 0.112492 21.2412
-0.38365 0.943669 19.3699
-0.635192 1.2421 17.6537
-0.884828 0.933551 16.1904
0.756277 -0.497201 18.9783
-0.708824 1.3118 9.4152
-1.51167 1.02837 10.6725
0.925529 0.203406 18.6625
-1.35464 -0.0880208 8.71741
-1.38694 -0.495681 15.2281
0.456679 0.685996 19.6076
0.92485 1.45389 20.1424
1.1438 1.49586 21.2286
0.300057 0.198786 21.9175
-0.0884599 -0.459834 21.4809
-0.237659 -0.603971 21.1569
-0.164689 -0.52174 20.4788
0.584437 -0.273487 19.8792
1.165 -0.637154 20.5289
0.41144 -0.366935 21.3038
-0.0664353 -0.085985 21.5026
-0.539583 0.213061 21.3799
-0.779489 0.347965 21.1065
-0.816711 0.226384 20.7908
0.684591 -0.203597 19.7754
1.59569 -0.547271 20.4949
0.545887 -0.422456 21.38
-0.0595566 -0.169851 21.5715
-0.769357 0.0770327 21.466
-1.03874 0.16071 21.1739
-0.946912 0.174679 21.1422
0.757603 0.0697569 19.7055
1.81151 0.134627 20.4262
1.10264 -0.280491 21.3999
0.176223 -0.3001 21.7133
-0.694825 -0.413097 21.445
-0.928431 -0.503195 21.1424
-0.793396 -0.364159 20.5481
0.496658 0.331494 19.9548
0.871947 0.572397 20.3931
0.817435 0.410607 21.1184
0.251521 -0.00690986 21.5011
-0.165441 -0.317421 21.3225
-0.28077 -0.348508 21.1385
-0.212749 -0.328726 20.9376
-1.50669 -0.11834 2.34529
-0.000484976 -0.0203783 0.154648
-0.0168961 -0.0214264 0.770941
0.00226561 -0.0212451 0.0232756
-0.022121 0.0221456 0.101577
-0.0033438 0.0337651 0.619107
-1.99509e-05 0.150703 0.400024
-0.141917 -0.0184502 0.318676
-0.0226656 0.0101497 -0.0587834
0.0547547 0.050948 0.252576
1.50275 -0.109708 2.33976
0.00919685 -0.0177484 0.626629
0.00529966 -0.0122737 0.00808707
-0.00295024 0.0342417 0.585717
0.182532 -0.0935335 0.432014
-0.0573861 0.0556885 0.249833
0.032982 0.0171412 3.30695
2.45559e-06 -0.000544702 0.0225285
-0.00020246 0.00115105 0.115616
-0.00028577 0.00800047 0.0482281
-0.00031389 -0.00368011 0.0788298
0 0 0
-1.32667e-05 0.0416616 0.0918644
-0.000189824 -0.003251 0.0755225
-0.0372855 0.0141228 3.32919
-3.82379e-06 -0.000521279 0.0222692
0.000314916 0.00791005 0.0472782
0 0 0
0 0 0
-6.57579e-05 0.00543198 0.0445294
0 0 0
2.30823e-05 -0.000154184 0.00405304
-7.18402e-05 6.33616e-05 0.0205164
-2.67786e-05 7.8847e-05 0.00107021
1.14424e-05 -0.00451219 0.00251785
0 0 0
-0.000187127 0.00190143 0.0674504
-4.47011e-08 0.000305149 0.00417872
-0.000196431 0.00211541 -0.00432533
0 0 0
0.000127593 0.0054622 0.0440039
0 0 0
-3.05376 -1.45537 20.5249
-2.73363 -4.86343 21.0719
-2.2067 -1.68888 17.8271
1.3247 0.660099 18.8048
0.254027 1.2865 13.5748
0.544029 1.23322 7.57299
-3.65565 0.66803 20.354
-2.83387 1.07516 17.0373
-2.0977 2.54972 19.9507
1.29196 -0.29009 17.7592
0.422805 -0.273316 5.41697
0.336897 -0.849306 20.1138
2.79224 -4.72822 21.0001
2.20674 -1.69871 17.8037
3.06887 -1.46148 20.5205
-0.215851 1.07948 12.751
-0.0296999 0.746007 6.14012
-1.18468 0.560639 18.6804
2.83788 1.09712 16.9701
2.09747 2.52934 19.9535
3.66642 0.681232 20.3527
-0.500041 0.478784 4.49851
-0.416836 -0.772233 19.4345
-1.23555 -0.137762 17.7324
-0.415512 -0.66913 21.6359
-0.229843 -0.175293 18.5762
0.19188 -0.168273 21.0793
0.313653 0.106289 17.4294
-1.8766 -0.897426 21.6142
-3.29301 2.18555 21.3237
-0.138037 -0.467553 20.324
-0.529252 0.0855598 21.1283
0.203528 -0.167767 18.7106
0.409775 -0.670664 21.6321
-0.348596 0.0951635 17.3
-0.19196 -0.183167 21.131
3.29821 2.21322 21.3108
1.86911 -0.901633 21.6027
0.491001 0.126406 20.9486
0.137873 -0.462943 20.3609
-0.951582 -0.501345 20.0387
-0.658076 -0.248888 19.8425
-0.65956 -0.443197 19.5993
-0.841656 -0.542766 21.1215
-1.36612 -0.618682 20.5116
-1.62518 -1.40144 20.5694
-0.163679 -0.218314 21.4515
-0.498032 -0.386505 21.3443
-0.380143 -0.448469 21.5432
0.317853 0.0953436 21.5452
0.0522408 -0.11793 21.5432
0.115742 -0.0158041 21.6413
0.715532 0.338515 21.2478
0.710426 0.205738 21.4591
0.735687 0.645441 21.4077
0.888868 0.394739 20.6683
1.00563 0.318763 21.1126
1.03044 0.840434 21.1033
0.969895 0.0103026 21.113
0.733239 0.473555 21.5917
-1.19626 -0.38524 19.9171
-0.744434 -0.0764911 19.7089
-0.792032 -0.35972 19.4536
-1.08217 -0.541407 21.2142
-1.78653 -0.249527 20.4701
-0.221776 -0.312546 21.512
-0.791066 -0.441706 21.4038
0.413833 -0.0435113 21.6601
-0.0224265 -0.273003 21.7071
1.04443 0.143799 21.3711
0.945584 -0.190973 21.5314
1.08604 0.0961759 20.7853
1.17684 -0.234395 21.1597
1.64219 0.708739 18.8711
1.0544 -0.28878 21.1762
1.56442 0.473075 17.4092
-1.35037 0.146628 19.8273
-0.67196 0.261267 19.8114
-0.920282 0.127108 19.3007
-1.49592 -0.0988476 21.0889
-1.32642 0.539694 20.3606
-0.662109 -0.330804 21.6434
-1.14946 0.194448 21.2669
0.309495 -0.342545 21.7319
-0.309306 -0.141237 21.6598
0.899855 -0.532854 21.2854
0.348748 -0.465669 21.4136
0.72197 -0.501411 21.2356
0.546479 -0.523756 20.9405
1.46144 -0.733343 19.6137
0.418879 -0.34054 20.9797
1.22291 -0.647792 19.4444
-0.708284 0.481431 20.1135
-0.545547 0.499011 19.7773
-0.918243 0.527762 20.7824
-1.0139 0.95815 20.2824
-0.580854 0.225204 21.4137
-1.06959 0.808716 21.2135
-0.00143869 -0.204477 21.4577
-0.313538 0.064489 21.6994
0.269257 -0.363478 21.2607
0.133937 -0.4192 21.4164
0.384132 -0.440258 20.6647
0.272609 -0.578121 21.2361
0.250366 -0.48546 21.1389
-1.28245 -1.65694 19.1261
-0.669602 -0.568557 19.1789
-0.0019061 -0.876596 18.9277
-0.840401 -1.24434 21.8764
0.0157421 -4.11576 21.4657
-0.167633 -0.139872 21.3729
0.00491337 -0.691301 21.4733
0.289456 0.582914 20.6071
-0.0160963 -0.0212457 20.1766
0.564293 1.36376 19.5977
-0.141267 0.682319 17.3034
0.965655 1.35906 18.5034
1.02213 1.75493 15.5658
-0.433534 0.968973 16.5204
1.52007 1.03389 15.289
-0.393804 1.4305 15.8876
-0.957261 -0.169224 18.7354
-0.0069563 -0.737459 18.4335
1.74442 1.56088 13.8528
1.88006 0.513433 7.37784
-0.193824 -0.249976 0.286197
2.12191 0.360038 13.0431
0.41352 1.38063 8.13262
-0.740133 0.685337 19.1276
-0.00949407 0.332752 17.9261
1.6262 -0.884457 12.6164
0.494158 -1.03458 19.9717
0.45714 -0.689383 -0.748839
0.370917 -0.953153 19.3876
0.0661499 -1.40087 2.93798
-0.72698 1.15893 19.7247
0.00295438 0.881787 19.3523
-1.07472 1.50372 20.6022
0.015755 2.07286 19.9769
-0.801146 0.873615 21.8406
-0.0130716 2.52654 21.1364
-0.0430791 -0.2651 21.7209
-0.0204347 0.393848 22.1142
0.157736 -0.605621 21.389
-0.0150654 -0.472301 21.5619
0.157274 -0.596007 21.0035
0.00869866 -0.661741 21.2555
0.019609 -0.54603 21.228
1.28473 -1.62663 19.1424
0.664603 -0.567224 19.1675
0.653981 -0.441953 19.5999
0.854579 -1.204 21.86
1.60288 -1.35267 20.563
0.150324 -0.135355 21.3679
0.372128 -0.444913 21.523
-0.307157 0.563521 20.3812
-0.124432 -0.0225508 21.6198
-0.471063 1.04839 19.2643
-0.686158 0.593252 21.2384
-0.725185 1.25303 18.3727
-0.802276 1.52505 14.7456
-0.980379 0.780685 21.1484
-1.19196 1.05479 13.024
-0.810227 0.606681 21.8243
0.956451 -0.168693 18.71
0.794552 -0.362645 19.4354
-1.5989 1.48371 11.2283
-1.00743 0.769655 4.67823
-1.39788 0.658313 18.2903
-1.70675 0.36243 10.4841
-1.51004 0.313407 19.0104
0.738221 0.686754 19.1211
0.917716 0.127391 19.2825
-1.8844 -0.751066 11.4323
-0.519809 -0.94837 19.6455
-1.41105 -0.541641 19.2039
-0.61968 -0.920532 19.1451
-1.61538 -0.790737 18.5529
0.728884 1.14751 19.733
0.544684 0.495547 19.7801
1.0706 1.4993 20.6016
1.00526 0.941252 20.2857
0.784103 0.92115 21.8502
1.06574 0.818501 21.2109
0.0216339 -0.250056 21.7245
0.309525 0.0835349 21.7109
-0.162432 -0.574556 21.3801
-0.144834 -0.404312 21.4159
-0.103196 -0.596983 21.1781
-0.314279 -0.568153 21.224
-0.200844 -0.468813 21.1544
0.943222 -0.498249 20.042
0.65472 -0.250754 19.8437
0.835977 -0.539991 21.1118
1.35008 -0.616989 20.5148
0.157664 -0.226276 21.4375
0.487138 -0.385025 21.3347
-0.316761 0.0805736 21.5176
-0.0531543 -0.1277 21.5206
-0.660152 0.280413 21.2338
-0.652095 0.164248 21.4195
-0.784564 0.262924 20.9912
-0.936945 0.260044 21.2254
-0.984852 0.2235 20.8061
1.20298 -0.392444 19.9087
0.748083 -0.0812101 19.7085
1.07798 -0.542953 21.2143
1.79532 -0.251037 20.4778
0.217452 -0.313467 21.4991
0.784859 -0.440838 21.4072
-0.390607 -0.0541102 21.6072
0.0241778 -0.270815 21.6816
-0.907136 0.119078 21.3269
-0.837964 -0.170515 21.4838
-1.00868 0.0734092 21.0008
-1.09662 -0.169242 21.224
-0.859451 -0.145973 21.1804
1.35888 0.151502 19.8201
0.670097 0.261364 19.8101
1.49406 -0.0999151 21.0895
1.31906 0.537578 20.3597
0.656604 -0.327787 21.6299
1.15032 0.194272 21.2643
-0.29564 -0.317268 21.6765
0.30954 -0.131696 21.656
-0.816332 -0.463472 21.2639
-0.343974 -0.436791 21.3966
-0.848733 -0.504106 21.5313
-0.472059 -0.489167 20.9747
-0.350139 -0.35586 21.0767
0.702683 0.475395 20.1159
0.912245 0.527262 20.7794
0.592774 0.237207 21.4082
-0.00895461 -0.199353 21.4855
-0.267578 -0.342756 21.2541
-0.397307 -0.457665 20.7455
-1.07662 -0.469565 19.9831
-1.63864 -1.78135 18.6308
-1.23362 -0.946999 19.666
-1.76449 -0.817721 19.2696
-0.726166 -0.414401 19.5298
-2.27881 -1.5743 20.5736
-0.951292 -0.54597 21.1475
-0.818254 -0.94685 19.9582
-0.91248 -0.893412 21.434
-1.28619 -1.00357 21.7425
-0.378687 -0.524309 21.6244
-0.197876 -0.263014 21.4733
0.0773773 0.0306393 17.476
-0.102042 -0.215327 21.574
-0.0319349 -0.394743 21.2846
0.183446 -0.0766399 21.5798
0.352344 0.0411007 21.599
0.513733 0.627059 14.9989
0.416801 0.277671 21.6622
0.646889 0.154928 20.1169
1.06237 0.697736 20.7481
0.89369 0.260456 21.3072
0.578538 1.50272 14.1377
0.89261 0.803264 21.0252
1.52839 0.676131 19.4303
1.21529 0.847242 20.2193
1.04446 0.236019 20.7857
1.38796 1.53234 15.8497
1.1 0.641212 20.8321
1.61118 0.453027 19.7448
1.05809 0.455681 20.1901
-1.37164 -0.150522 19.8269
-2.85429 -0.494211 16.9588
-2.12108 0.424993 18.9986
-0.928713 -0.120485 19.2881
-3.84717 -0.513476 20.4206
-1.32982 -0.39201 21.1933
-2.36682 -0.299114 21.4473
-0.846773 -0.992775 21.4357
-0.389153 -0.394959 21.5898
-0.923958 -0.870057 21.0944
0.132935 -0.227487 19.8522
0.416318 -0.187913 21.7467
0.65691 -0.0958388 19.1321
1.44117 0.275242 16.5475
1.12128 -0.232091 21.3393
0.442386 0.292926 3.27205
1.34214 -0.554676 18.7812
1.87769 0.0413009 18.2698
1.03706 -0.178892 20.9411
2.29568 0.729907 10.8862
1.47286 -0.768467 19.9666
1.56614 -0.216687 18.1129
-1.03858 0.453678 19.9538
-1.45654 1.65372 18.9688
-0.79708 0.786899 19.9362
-0.757256 0.437193 19.495
-1.88968 1.21229 20.2115
-1.32443 0.379304 20.8716
-2.26703 1.93637 20.5213
-1.09933 0.945092 20.7196
-1.95698 0.560145 21.4196
-0.76967 0.0231608 21.5864
-2.18945 0.824114 22.3079
-0.746457 0.449117 21.6264
-0.475442 -0.139507 22.0064
0.0916007 -0.307365 21.6226
0.245858 -0.562653 20.3426
-0.0261717 -0.239064 21.6124
0.343415 -0.715543 21.5574
0.46748 -0.518121 21.2943
0.387309 -0.972595 20.3375
0.217396 -0.498604 21.1724
0.573292 -0.898614 21.2003
0.574065 -0.652115 20.8777
0.508561 -1.06336 19.5528
0.154656 -0.428482 21.1648
0.392278 -0.620821 20.4016
1.64016 -1.76701 18.6386
0.00927919 -2.7142 18.4444
-0.0128967 -3.35914 15.5983
-0.00239535 -0.882019 18.6985
-0.00280658 -5.40928 22.6483
0.830965 -0.938513 20.0886
0.00984127 -1.62789 22.2288
0.00600005 -0.262749 14.4068
-0.0983075 0.0316459 17.5092
-0.00689744 -0.306215 20.5738
-0.0200822 0.0259971 13.0063
-0.550346 0.599037 14.6279
-0.0334377 0.451301 18.5342
-0.309245 0.492082 8.82653
-0.353248 1.07088 13.1302
-0.278476 0.685195 16.7818
-0.976354 -0.470236 0.36048
-0.709128 0.589435 7.99661
-1.0647 1.4153 15.4066
-0.34194 1.36113 15.977
0.329773 0.189601 1.80483
0.00985792 1.40556 12.0101
2.85204 -0.500109 16.9217
-0.016353 2.52801 14.0575
-0.00965058 -0.242804 17.9488
0.322684 0.654628 1.63591
-0.0931075 0.286191 -1.13328
1.31124 -1.12151 -3.52502
-1.99743 0.90425 8.5912
0.0766968 -1.59049 0.28994
0.378875 -0.0727227 2.4571
1.45462 1.64786 18.9705
0.024755 1.61702 19.4764
-0.0030052 0.97448 18.6577
0.0106919 3.96421 19.7213
2.26141 1.92838 20.5218
0.00301152 2.23077 20.4046
-0.0151331 5.22094 20.5824
2.18459 0.86287 22.0966
-0.0312606 1.54931 22.1612
-0.0210932 0.362781 19.7948
-0.284821 -0.549524 20.2397
-0.0122828 -0.222156 21.7463
-0.0359943 -0.579261 14.4129
-0.393816 -0.832278 20.2143
-0.0251387 -0.622134 21.3559
-0.134463 -1.1215 16.7571
-0.556487 -1.09021 19.3607
0.0390989 -0.812234 21.0043
-0.100763 -1.08238 19.0774
1.06918 -0.471282 19.988
1.22853 -0.930086 19.6731
1.77816 -0.826333 19.2487
0.724857 -0.418222 19.523
2.26596 -1.55031 20.5678
0.942955 -0.543479 21.1428
0.905403 -0.877527 21.4168
1.27851 -1.00296 21.7486
0.37365 -0.526706 21.6056
0.190545 -0.266119 21.4624
0.0925273 -0.219487 21.556
0.0309349 -0.402471 21.3086
-0.190289 -0.0867235 21.5515
-0.340376 0.0252491 21.5527
-0.418757 0.263764 21.614
-0.630209 0.126046 20.1083
-0.977003 0.620658 20.4994
-0.800864 0.216791 21.2641
-0.798116 0.708478 20.9425
-1.26533 0.567239 19.1173
-1.08609 0.771622 19.8029
-0.92969 0.182844 20.9696
-0.983323 0.831792 21.1926
-1.5837 0.586342 18.616
-1.1861 0.477979 20.5555
1.38383 -0.152092 19.821
2.13611 0.433631 18.9728
0.932967 -0.121298 19.2736
3.86576 -0.510503 20.4253
1.3266 -0.391148 21.1983
2.36263 -0.301525 21.446
0.839892 -0.994346 21.4357
0.385514 -0.392849 21.5796
0.917297 -0.862745 21.0982
-0.129256 -0.245592 19.9655
-0.393296 -0.179717 21.7001
-0.650375 -0.0766 19.1914
-1.27135 0.325444 16.4373
-0.982023 -0.194671 21.3279
-1.21227 -0.297402 18.4838
-1.66771 0.143498 17.4193
-1.10556 -0.264027 21.1103
-1.38444 -0.649157 19.067
-1.62387 -0.300337 18.7927
1.03524 0.453385 19.9526
0.795426 0.777713 19.9415
0.754296 0.440631 19.4896
1.87896 1.19805 20.2139
1.32053 0.379853 20.8686
1.09342 0.94042 20.718
1.95788 0.568161 21.4129
0.774754 0.0251134 21.5772
0.745832 0.475978 21.6354
0.481108 -0.12363 22.0132
-0.094448 -0.301307 21.5949
0.0158804 -0.223963 21.609
-0.351338 -0.671691 21.5232
-0.449151 -0.486169 21.2522
-0.216938 -0.470532 21.2022
-0.531246 -0.854555 21.3199
-0.677911 -0.607121 20.7655
-0.0795225 -0.441079 21.2637
-0.474211 -0.629826 20.2322
-1.449 -0.913054 19.5061
-1.08052 -0.951858 21.5627
-0.0479782 -0.276313 21.5912
0.583686 0.244091 21.2415
1.26807 0.821769 20.4387
1.4708 0.528696 19.9342
-2.14688 -0.267015 18.9721
-1.80878 -0.84517 21.8389
-0.208877 -0.673403 20.4671
0.615152 0.191733 18.58
1.69912 0.0681572 17.9121
1.74969 0.00996205 19.0975
-1.35933 0.890916 19.5598
-1.91088 0.848724 20.8333
-1.26401 0.148371 21.9609
0.0825742 -0.447715 21.8238
0.45305 -0.815351 21.4288
0.689103 -0.803799 20.6566
0.00420181 -3.14186 17.5117
0.00779135 -0.936775 16.0895
-0.00904156 -0.0713758 13.0118
-0.058325 0.446533 10.2831
-0.777776 0.232124 8.2646
-0.136254 1.08767 8.66752
-0.0216942 -0.89248 13.6157
0.328989 -0.312818 -2.63542
0.795392 -1.03403 -2.57599
0.0040731 2.72464 18.1948
0.00218662 3.39995 19.8869
-0.0279829 2.5927 21.57
-0.0188001 -0.450641 16.3191
-0.0384235 -0.707195 15.69
-0.0251439 -1.05118 17.2976
1.44685 -0.910737 19.5056
1.07751 -0.943958 21.5493
0.0421997 -0.282456 21.5755
-0.580448 0.221841 21.1475
-1.08697 0.695246 20.1393
-1.25316 0.738164 19.7678
2.16343 -0.268028 18.9495
1.80084 -0.848695 21.8418
0.210549 -0.677318 20.5153
-0.599119 0.18357 18.6201
-1.36635 0.193235 17.2653
-1.71873 0.0622601 17.7565
1.35586 0.890891 19.5594
1.90309 0.846552 20.8296
1.27351 0.16272 21.9633
-0.0967402 -0.432778 21.8153
-0.451765 -0.740096 21.4089
-0.545745 -0.844557 20.9789
-2.33069 -0.590612 3.49401
-0.0191952 -0.0403569 0.259948
-0.0274817 -0.0142111 0.415222
0.0180855 0.00975185 0.0347325
-0.0237994 0.0274718 0.109508
-0.0749585 0.103959 1.05906
-0.330253 0.0524726 0.470946
-0.0204995 0.192062 0.586349
-0.654184 0.0730978 1.99869
-0.0153512 -0.00531821 -0.00654941
-0.0238975 0.00645961 -0.0455679
-0.00450237 -0.00503356 0.01422
0.0175343 -0.0387484 0.247267
2.31901 -0.586025 3.46166
0.0266747 -0.0115717 0.366058
0.00661536 0.01932 0.0824247
-0.0135822 0.0106735 0.0285456
0.0630762 0.0914294 0.91242
0.0204282 0.192041 0.588763
0.47371 0.0751901 0.676054
0.655838 0.074596 2.00898
-0.0338694 0.0127535 -0.0700967
0.0188348 0.0096101 -0.0146158
0.00164456 -0.00378535 0.0133984
-0.0576149 -0.0275902 0.655628
0.0885368 -0.0329069 3.34247
0 0 0
0.000171407 0.000218214 0.00474187
0.0119468 0.0193119 0.384443
0.0347764 -0.00660304 3.53683
0 0 0
0.000605596 -0.00273447 0.0752434
-0.158693 -0.117985 0.428129
-0.0013977 0.0060667 0.302915
1.66555e-17 3.01944e-17 1.16055e-16
-0.0172842 0.0233656 0.0529835
0 0 0
0.00679081 0.0179144 0.0897371
0 0 0
0.0199932 -0.00607901 0.132122
0.0488519 -0.0156822 0.930133
-0.000241965 0.000268643 0.00588441
-0.0873986 -0.0303992 3.35247
0 0 0
-0.0158343 0.022218 0.348465
-0.000798851 -0.00156866 0.0522919
-0.0395577 -0.0102502 3.52876
0 0 0
0.156466 -0.116513 0.422582
0.0142662 0.0194316 0.0441052
0.00145906 0.00543959 0.292329
0 0 0
0 0 0
-0.0205408 -0.00596908 0.131113
-0.00714754 0.0188935 0.0927101
0 0 0
-0.0157805 -0.015249 0.215909
-0.0500591 -0.0333797 0.0266061
-3.81358e-08 2.6193e-06 -5.48544e-05
-0.000195088 -0.154065 0.052562
0 0 0
-2.21413e-06 -0.00216876 0.0560597
0 0 0
5.9254e-18 -9.09819e-19 7.1772e-19
0 0 0
-0.00199055 -0.0009261 -0.000398493
0.000451231 0.00523395 0.0557074
4.85973e-05 8.08914e-05 0.00114855
0.000287086 0.244825 0.11477
-1.81723e-07 0.000908388 0.00566689
-0.00204278 -0.0091739 0.0436477
-0.00156219 0.000322713 0.00370814
0 0 0
0 0 0
0.0019143 0.00236408 0.0225978
0 0 0
0.0514799 -0.0342231 0.0274202
0.0157895 -0.015718 0.216388
0.000176467 -0.000823713 0.0224533
0 0 0
2.43368e-17 2.32306e-17 -1.46305e-17
-0.0012162 0.000948375 0.0106326
0 0 0
-0.00205481 0.00617351 0.0642204
0.00159899 0.000330873 0.00380102
0.002192 -0.0100019 0.0464253
0 0 0
-0.0020515 0.00279056 0.0233372
-6.2848e-05 0.000644114 0.00948532
-1.59613e-18 -4.65764e-20 -4.71434e-17
0.000633139 -0.0031159 0.02404
-1.32172e-05 0.00132504 0.0149876
6.5422e-05 -0.00123219 0.0124321
-2.0205e-05 4.18406e-06 0.00721358
-7.10319e-05 0.00310499 0.0214877
-0.00242756 0.00640451 0.0682126
-9.80402e-05 -4.67482e-05 0.0215306
0 0 0
0.00706662 0.0798434 0.406882
-0.00986941 0.0158797 0.206633
0.0014912 0.00488339 0.0117857
-0.000170546 0.0858386 0.307444
-8.00531e-05 0.00111983 0.0472817
-0.000127331 -0.00322755 0.015741
0 0 0
5.59048e-05 0.000618614 0.00911554
-0.000651306 -0.00321898 0.0248109
5.12074e-05 0.00157454 0.0175887
4.00344e-05 0.00329944 0.0229449
0.00280726 0.00812223 0.0848279
0.00930904 0.0156531 0.203332
-0.00729905 0.0835793 0.428314
0 0 0
-0.0178328 -0.0230431 0.125405
0.0452035 -0.049931 0.256963
-0.00102543 -0.00422179 0.0232999