# vtk DataFile Version 2.0
tri_press
ASCII
DATASET UNSTRUCTURED_GRID
POINTS 3682 float
-0.565 0.165 -1.76605
-0.850801 0.205 1.625
-0.745 0.615 -1.48717
-0.745 0.751851 1.605
0.575 0.165 -1.77261
0.818149 0.165 1.615
0.746558 0.615 -1.485
0.690516 0.755 1.665
-0.700217 0.138383 -0.6357
-0.811867 0.135334 0.49465
-0.791288 0.706905 -0.456447
-0.80589 0.767124 0.574277
0.681569 0.139481 -0.643407
0.775716 0.126383 0.485797
0.780395 0.714184 -0.435
0.778229 0.777366 0.615
-1.2798 -0.14419 -2.73102
-1.30155 -0.120181 -1.86161
-1.41784 -0.140815 -0.73063
-1.53534 -0.152991 0.417038
-1.58595 -0.113289 1.54935
-1.60014 -0.0858545 2.42539
-1.60961 -0.0666998 3.28841
-1.28505 0.117598 -2.62083
-1.30684 0.154723 -1.7618
-1.43721 0.148693 -0.649685
-1.55606 0.145543 0.468871
-1.59331 0.185479 1.5829
-1.60925 0.211733 2.45985
-1.6197 0.229868 3.32712
-1.36377 0.614277 -2.37878
-1.43406 0.648703 -1.51917
-1.51364 0.715462 -0.474755
-1.55916 0.757489 0.560631
-1.53868 0.760786 1.60863
-1.58677 0.790975 2.50075
-1.62161 0.816629 3.39024
-1.44244 1.43396 -2.08331
-1.48606 1.48078 -1.23693
-1.53199 1.56519 -0.217945
-1.5636 1.63552 0.780487
-1.58271 1.6664 1.80356
-1.60313 1.68348 2.65841
-1.62876 1.70314 3.53457
-0.583211 -0.138789 -2.7345
-0.591715 -0.112125 -1.86763
-0.683683 -0.145885 -0.725838
-0.773517 -0.163185 0.434041
-0.812444 -0.111402 1.57633
-0.82996 -0.0855924 2.44767
-0.842677 -0.0685838 3.30551
-0.578101 0.118701 -2.61983
-0.849001 0.214706 2.48378
-0.856247 0.228732 3.34421
-0.641888 0.600514 -2.36394
-0.832012 0.790018 2.51494
-0.864049 0.815307 3.4037
-0.708806 1.42403 -2.0665
-0.744153 1.47125 -1.21766
-0.778034 1.56359 -0.20098
-0.80487 1.64036 0.792052
-0.82619 1.66896 1.81135
-0.847132 1.68387 2.66619
-0.872318 1.70275 3.5432
0.719323 -0.137828 -2.73472
0.658465 -0.111479 -1.87134
0.714794 -0.145797 -0.730116
0.782044 -0.171824 0.429571
0.805337 -0.13701 1.57296
0.751382 -0.104442 2.4554
0.709278 -0.0806285 3.31958
0.719529 0.119544 -2.62035
0.728658 0.1952 2.4959
0.691616 0.217164 3.36152
0.764292 0.601645 -2.36076
0.678326 0.783736 2.54918
0.662054 0.808502 3.42934
0.754409 1.42666 -2.0563
0.742523 1.47458 -1.20478
0.737332 1.56813 -0.181601
0.720892 1.64489 0.819406
0.688623 1.6714 1.84339
0.664878 1.68398 2.69671
0.642576 1.70117 3.57018
1.3943 -0.141742 -2.72788
1.34396 -0.117744 -1.86154
1.42503 -0.139788 -0.728734
1.53072 -0.164592 0.42266
1.56719 -0.145043 1.55979
1.52765 -0.114604 2.44694
1.48279 -0.0876724 3.31774
1.38922 0.120193 -2.61743
1.31325 0.157755 -1.76064
1.41252 0.152565 -0.643649
1.52526 0.137652 0.482321
1.55556 0.15281 1.60268
1.5091 0.183509 2.48988
1.46622 0.209895 3.36217
1.44753 0.617637 -2.36934
1.42729 0.65321 -1.50657
1.48473 0.725494 -0.443893
1.52212 0.766066 0.614569
1.47645 0.75702 1.67915
1.45301 0.779326 2.55942
1.43119 0.804312 3.43893
1.48054 1.43921 -2.06233
1.47738 1.48726 -1.21101
1.48481 1.57341 -0.180703
1.47845 1.64323 0.831386
1.44876 1.6702 1.86256
1.42427 1.68325 2.71566
1.40211 1.69997 3.58643
-0.703119 0.39 -1.67473
0.005 0.169088 -1.76524
-0.633214 0.151086 -1.20088
-0.835572 0.478426 1.65267
-0.016326 0.172942 1.63206
-0.835098 0.166403 1.05983
0.000779003 0.658889 -1.52997
-0.803611 0.696419 -0.971808
-0.027242 0.690158 1.57173
-0.806228 0.79027 1.08964
0.704771 0.39 -1.6728
0.629544 0.150981 -1.20801
0.811772 0.46 1.69744
0.795483 0.147141 1.0504
0.798616 0.699732 -0.96
0.769565 0.801376 1.14
-0.753773 0.139128 -0.070525
-0.769664 0.422644 -0.546073
-0.0093242 0.140063 -0.639553
-0.864256 0.451229 0.534463
-0.0180751 0.132694 0.490223
-0.789742 0.728167 0.058915
-0.00544649 0.955554 -0.445723
-0.0138306 0.809303 0.594638
0.722601 0.138973 -0.078805
0.786663 0.426833 -0.539203
0.865313 0.451874 0.550398
0.76883 0.735293 0.09
-0.843675 0.406322 -1.08634
0.843869 0.408416 -1.084
-0.0021621 0.14995 -1.20444
-0.00233375 0.75259 -0.965904
0.0028895 0.39 -1.93132
-0.790798 0.436937 -0.00580499
0.805563 0.439353 0.0055975
-0.0136996 0.133646 -0.074665
-0.00963855 1.05831 0.0744575
-0.895 0.464827 1.07473
0.89518 0.455937 1.0952
-0.0172006 0.136256 1.05511
-0.0205363 0.748318 1.11482
-0.021784 0.469213 1.95715
-0.626743 0.2775 -1.71307
-0.28 0.168677 -1.76401
-0.600344 0.156806 -1.48346
-0.849383 0.341713 1.64503
-0.433564 0.174273 1.64323
-0.841814 0.186837 1.34241
-0.734655 0.5025 -1.59155
-0.372111 0.63385 -1.50548
-0.796461 0.677865 -1.22949
-0.785402 0.615138 1.62395
-0.386121 0.685891 1.55325
-0.795586 0.791032 1.34732
0.29 0.169279 -1.76669
0.597363 0.2775 -1.68018
0.601701 0.158561 -1.49031
0.400911 0.170456 1.62204
0.824295 0.3125 1.66555
0.802048 0.160839 1.3327
0.373669 0.635305 -1.50585
0.736181 0.5025 -1.58941
0.794958 0.679737 -1.2225
0.331637 0.685616 1.5814
0.748343 0.6075 1.67842
0.749299 0.797446 1.4025
-0.665042 0.146408 -0.918288
-0.729775 0.135976 -0.353113
-0.730773 0.282597 -0.590887
-0.354034 0.140697 -0.637627
-0.834707 0.139644 0.777238
-0.780733 0.139318 0.212063
-0.854708 0.284958 0.514557
-0.414648 0.134659 0.492437
-0.795837 0.70005 -0.714128
-0.771123 0.560098 -0.50126
-0.788737 0.715758 -0.198766
-0.435237 0.90497 -0.451085
-0.806119 0.778758 0.831958
-0.866554 0.624917 0.55437
-0.797191 0.747021 0.316596
-0.42553 0.819553 0.584458
0.654386 0.146401 -0.925708
0.335679 0.140658 -0.64148
0.702905 0.138407 -0.361106
0.745544 0.277443 -0.591305
0.802649 0.119713 0.768098
0.376538 0.134104 0.48801
0.753953 0.127884 0.203496
0.854587 0.272093 0.518098
0.788396 0.705848 -0.6975
0.427532 0.914985 -0.440362
0.787167 0.572327 -0.487102
0.77128 0.721406 -0.1725
0.773748 0.789222 0.8775
0.407712 0.844361 0.604819
0.866677 0.637073 0.582699
0.774578 0.757378 0.3525
-0.831772 0.398161 -1.38054
-0.350115 0.39 -1.86292
0.00141895 0.162663 -1.48484
0.00394475 0.279544 -1.66299
-0.837826 0.278704 -1.14361
-0.317688 0.149923 -1.20266
-0.894921 0.471626 1.3637
-0.428678 0.473819 1.95864
-0.0167633 0.142383 1.34359
-0.019055 0.321077 1.97478
-0.895814 0.315615 1.06728
-0.426149 0.137245 1.05747
-0.000777371 0.716548 -1.24794
0.00183425 0.524444 -1.88923
-0.850589 0.551371 -1.02908
-0.402972 0.729763 -0.968856
-0.0238892 0.723108 1.34328
-0.024513 0.579686 1.97673
-0.895312 0.627549 1.08219
-0.413382 0.725684 1.10223
0.831744 0.399208 -1.3784
0.35383 0.39 -1.89348
0.837799 0.279699 -1.14601
0.313691 0.149978 -1.20623
0.894986 0.457969 1.39632
0.394994 0.464606 1.96409
0.891577 0.301539 1.0728
0.389141 0.135737 1.05276
0.851661 0.554074 -1.022
0.398141 0.731757 -0.962952
0.895466 0.628656 1.1176
0.374515 0.745335 1.12741
-0.757487 0.295431 -0.038165
-0.383981 0.135897 -0.072595
-0.846972 0.414483 -0.816208
-0.792795 0.42979 -0.275939
-0.00574315 0.146853 -0.921998
-0.0115119 0.139743 -0.357109
-0.763645 0.444083 0.264329
-0.877897 0.458028 0.804598
-0.0158874 0.133063 0.207779
-0.0176378 0.126959 0.772668
-0.789273 0.582054 0.026555
-0.459654 1.01317 0.0666863
-0.00389012 0.833011 -0.705814
-0.00754252 1.05329 -0.185633
-0.0117346 1.02894 0.334548
-0.0171835 0.777001 0.854729
0.808531 0.266939 -0.0366037
0.354708 0.135794 -0.076735
0.846967 0.417624 -0.811604
0.808801 0.433093 -0.266803
0.778873 0.445614 0.277998
0.877929 0.453906 0.822799
0.803724 0.595587 0.0477987
0.447164 1.03194 0.0822287
-0.826361 0.278102 -1.432
-0.839128 0.279609 -0.867248
-0.850952 0.558073 -0.765168
-0.841346 0.526935 -1.30501
0.8263 0.278599 -1.43435
0.841373 0.528287 -1.30045
0.851045 0.562291 -0.754552
0.839139 0.281428 -0.868656
-0.298844 0.162455 -1.48415
0.301845 0.162763 -1.48758
0.324907 0.146871 -0.923853
-0.33623 0.146833 -0.920143
-0.387541 0.69005 -1.23871
-0.40067 0.787368 -0.709971
0.392808 0.795649 -0.701657
0.385905 0.691268 -1.23522
-0.315057 0.278522 -1.87552
-0.361113 0.513472 -1.83598
0.363749 0.513472 -1.83477
0.321915 0.278522 -1.8588
-0.753366 0.284396 -0.314526
-0.775051 0.305718 0.238196
-0.763555 0.571306 0.290463
-0.793724 0.577839 -0.237353
0.769661 0.275879 -0.313954
0.807692 0.59008 -0.219652
0.771262 0.584361 0.315249
0.841538 0.264526 0.240747
-0.368019 0.140273 -0.355111
0.344196 0.140222 -0.359108
0.365563 0.135069 0.205638
-0.399382 0.135143 0.209921
-0.467251 0.998679 -0.192199
-0.463446 0.958067 0.325572
0.45607 0.995414 0.343524
0.456779 1.01232 -0.179067
-0.878259 0.304448 0.790918
-0.895591 0.328664 1.35306
-0.893654 0.621344 1.35551
-0.878691 0.618363 0.818278
0.877898 0.295334 0.795448
0.878712 0.621638 0.850149
0.891453 0.618078 1.39941
0.895867 0.30702 1.36451
-0.42056 0.126957 0.774953
0.383981 0.126963 0.770383
0.395026 0.142329 1.33814
-0.429856 0.142359 1.343
-0.411621 0.779626 0.843343
-0.399752 0.706897 1.3453
0.353076 0.712193 1.37289
0.378357 0.817775 0.866114
-0.431121 0.331395 1.91834
0.397953 0.316789 1.95398
0.363315 0.593593 1.92529
-0.4074 0.597412 1.94046
-0.6031 0.22125 -1.74679
-0.4225 0.169334 -1.76254
-0.584567 0.159008 -1.62476
-0.848535 0.273356 1.63346
-0.642182 0.168763 1.65499
-0.84544 0.196786 1.48371
-0.740466 0.55875 -1.54
-0.558555 0.651157 -1.52306
-0.78191 0.657612 -1.35833
-0.766587 0.683495 1.61586
-0.565561 0.788535 1.64879
-0.778206 0.779355 1.47616
0.4325 0.170134 -1.76666
0.610522 0.22125 -1.75074
0.591272 0.158859 -1.63146
0.60953 0.166779 1.61947
0.823518 0.23875 1.64257
0.808747 0.164271 1.47385
0.560113 0.65233 -1.5226
0.742239 0.55875 -1.53808
0.782298 0.658909 -1.35375
0.511076 0.772378 1.67527
0.71475 0.68125 1.66703
0.726936 0.783252 1.53375
-0.683623 0.141403 -0.776994
-0.714469 0.137706 -0.494406
-0.80868 0.163898 -0.613293
-0.52705 0.13969 -0.636663
-0.819606 0.141169 0.635944
-0.802045 0.13158 0.353356
-0.853806 0.199887 0.504603
-0.615547 0.130418 0.493543
-0.792747 0.702662 -0.585287
-0.831548 0.658673 -0.478853
-0.790236 0.711555 -0.327606
-0.597209 0.77383 -0.453766
-0.805963 0.7729 0.703117
-0.852628 0.704224 0.564323
-0.80277 0.758302 0.445436
-0.613841 0.789601 0.579367
0.669514 0.141404 -0.784557
0.50824 0.140838 -0.642443
0.692022 0.139159 -0.502256
0.806868 0.161806 -0.617356
0.789264 0.122967 0.626947
0.576078 0.130341 0.486903
0.764945 0.127023 0.344646
[...]
POINT_DATA 3682
SCALARS point_scalars float 1
LOOKUP_TABLE default
-67.9134
-51.5199
-23.1358
-44.1177
-63.0414
-51.0906
-24.4283
-39.6543
-34.7594
-30.4882
-42.2289
-41.1463
-34.4859
-30.3587
-42.6271
-42.968
27.3717
-77.3269
-44.7313
-30.277
-44.3657
-36.9054
-32.1943
29.6126
-76.5291
-45.1758
-30.2096
-48.5737
-36.6204
-30.9388
64.8994
-87.1134
-34.9523
-38.811
-51.2898
-33.3365
-30.8294
-40.2887
-57.5513
-41.2775
-39.6024
-46.509
-45.6939
-30.5265
160.811
-125.182
-36.2846
-30.6086
-44.5653
-32.2416
-31.0644
115.98
-32.2169
-29.6066
121.921
-30.0034
-29.6066
1.41557
-46.8515
-86.5508
-53.9353
-40.9784
-31.7302
-29.2046
28.2792
-113.084
-36.4861
-30.3104
-44.4618
-32.3897
-29.4602
28.2792
-30.5481
-29.4602
117.318
-29.7463
-28.7721
2.52798
-47.5112
-86.0235
-53.2982
-36.1676
-29.743
-28.8247
29.6299
-83.2574
-44.6735
-29.6686
-48.0874
-36.7685
-32.3807
32.8638
-83.823
-44.2548
-29.6874
-50.1823
-35.5609
-30.5018
29.0576
-86.6983
-34.4587
-38.6463
-49.537
-32.3092
-30.1114
-40.3655
-54.3197
-40.8034
-40.3867
-48.4734
-40.0688
-30.5096
38.3558
-123.426
-51.1866
-43.6089
-39.0643
-37.492
-21.98
-49.3012
-31.2468
-40.5981
39.0096
-50.3849
-39.6783
-36.5383
-46.7216
-40.9449
-27.5195
-34.9195
-34.4373
-27.0333
-32.4579
-40.5136
-16.2177
-44.4457
-27.8841
-33.349
-29.9107
-44.7256
-55.9569
-55.4786
-50.8291
-5.4775
191.635
-26.9272
-29.0399
-30.951
-84.6772
-40.7427
-42.0398
-37.4995
-37.8619
-22.3173
78.3461
-114.444
-73.6322
-47.4391
-41.3873
-39.8385
1.50516
-28.0471
-62.7858
-40.3663
-32.1298
-47.2662
-98.0575
87.4537
-71.5419
-41.6142
-44.9283
-38.6053
-26.9378
2.76312
-61.9937
-31.7148
-36.8399
-44.4268
-38.8764
-30.3352
-36.5156
-34.4126
-32.1241
-26.4306
-29.919
-31.8248
-42.3302
-33.9403
-43.3248
-32.829
-39.9612
-31.6322
-38.3336
-48.5636
-38.3717
-34.3567
-29.9572
-36.1203
-36.9403
-31.8108
-28.0893
-29.6487
-40.2303
-29.1366
-33.0898
-47.4965
-39.4801
-47.5411
-31.3139
-42.3527
-93.863
165.881
-68.9835
188.674
-56.2396
-50.6329
-47.7254
-29.1462
-39.1293
-24.542
-39.2418
-37.3757
-22.6575
38.4165
-54.7015
-20.4689
-34.3871
-24.8587
-41.9604
-38.3818
-93.0141
167.385
-55.8847
-49.846
-48.043
-28.86
-38.5632
-37.6233
-53.9906
-18.6406
-42.5165
-37.7555
-25.9368
-30.1761
-46.5248
-28.5288
-39.6591
-31.255
-21.4675
-36.5594
-31.2451
-35.9242
-29.6806
-70.9861
12.236
-103.541
-61.5643
-42.3035
-27.6484
-30.2067
-45.7751
-29.5485
-23.3308
-35.5609
-29.5965
-71.11
-101.822
-45.5691
-48.1409
-83.482
-103.109
-82.3918
-46.6278
-44.9103
-67.0167
-64.964
-39.0037
-39.5189
-31.9412
-5.15382
-2.90857
-30.7797
194.446
34.5402
35.1591
177.39
-28.2578
-20.4023
-21.7814
-30.6165
-27.879
-31.9706
-23.5473
-23.1003
-30.8249
-30.8351
-30.7063
-30.4595
-81.4191
-57.318
-58.4349
-84.0174
-35.4636
-44.1102
-49.386
-37.7891
-35.18
-35.993
-51.227
-44.5936
-36.4111
-36.1175
-39.6554
-39.4779
-42.6894
-34.7432
-34.3162
-42.1027
-30.1038
-29.724
-29.3402
-29.2493
55.6985
-117.886
-103.156
-50.8476
-43.8716
-43.2207
-0.662201
-25.9124
-65.4528
-41.734
-36.2952
-47.3437
-118.73
57.4984
-99.9337
-43.7724
-50.2789
-41.2234
-24.9289
-0.420742
-66.2087
-32.6768
-37.7451
-44.4575
-35.8412
-31.9391
-34.6773
-34.2551
-31.5243
-28.6791
-30.7006
-31.275
-41.4492
-34.8709
-42.6945
-53.2187
-41.4413
-37.764
-40.0336
-49.7363
-35.5812
-34.0883
-31.8768
-34.7676
-31.6103
-31.4718
-29.598
-30.8642
-40.9086
-57.0248
-36.7004
-44.8705
-42.1048
-48.3275
-37.3146
-43.4382
67.6357
9.93526
-75.3749
119.786
-122.148
-119.925
-85.9922
163.848
-60.4675
-44.6976
-55.6113
-50.5406
-45.3072
-41.2995
-49.0392
-30.6551
-39.5794
-39.94
-39.1997
-30.1309
-39.4098
-41.8609
-38.7379
-37.2369
-22.8155
-22.3504
-26.0602
-0.9661
-52.5007
-44.914
-54.3764
-36.8321
-31.5965
-31.2953
-32.7673
-28.7781
-44.0147
-39.2409
-41.439
-39.3372
67.9883
12.0978
-77.1411
119.355
-59.1788
-44.0671
-55.4084
-49.6739
-42.1655
-38.3122
-49.4048
-30.289
-37.4756
-39.0749
-37.535
-37.1329
-53.1622
-42.3616
-53.0252
-32.5985
-43.5527
-39.2817
-43.0287
-38.6002
-29.2568
-27.0069
-25.7662
-28.7593
-36.2034
-34.3435
-45.8791
-30.0282
-34.4671
-34.4322
-36.3484
-32.64
-30.6276
-24.2048
-18.5055
-34.7101
-32.3498
-32.3614
-31.7079
-32.9644
-41.9225
-39.8789
-32.4097
-53.6788
-16.2871
-16.7266
3.90701
-55.9479
-45.8642
-45.1027
-52.9346
-44.2086
-29.717
-27.5409
-27.0218
-29.0249
-34.725
-32.3065
-44.0756
-29.8488
-30.3979
-26.7828
-19.7288
-34.1329
-46.1631
-43.1877
-33.6358
-54.1365
-67.5423
-56.0437
-55.9855
-50.5764
-67.097
-55.6719
-55.4042
-49.7415
-58.6116
-50.8089
-50.4834
-44.4219
-15.825
-9.27567
-9.1321
8.78709
189.709
187.102
171.035
193.248
-25.948
-27.9771
-24.7227
-28.3529
-28.1169
-29.7777
-27.1221
-30.3585
-30.8264
-29.8779
-30.9841
-30.8273
-82.7034
-97.5964
-72.245
-83.1134
-44.025
-40.1663
-41.9524
-38.811
-43.9521
-40.9647
-42.5335
-37.1755
-37.7116
-37.4467
-37.5874
-38.5491
-36.1132
-37.9336
-37.8218
-40.2415
-25.0202
-21.5074
-19.9192
-24.1026
-75.3539
122.322
-84.8762
64.1486
-82.4043
-67.5724
-47.6109
-31.7362
-40.3093
-32.4581
-42.1943
-38.7805
-84.9201
54.3973
-37.4614
3.34988
-75.7129
-39.7659
-51.0612
-31.3639
-33.4449
-29.8536
-50.6589
-37.8253
-82.0117
111.299
-84.2462
115.558
-87.861
-65.8105
-40.5449
-32.5357
-47.5993
-31.8112
-42.026
-38.8555
-34.5861
3.48926
-85.7911
51.3913
-74.9257
-42.7896
-33.0375
-28.9385
-47.9652
-30.6317
-51.1441
-36.2089
-43.9332
-38.9672
-28.6207
-30.5446
-45.6371
-30.9636
-36.1288
-32.4142
-36.5335
-36.999
-25.1598
-29.5685
-24.6816
-30.5289
-30.9308
-32.8952
-46.6227
-34.2922
-40.0618
-32.6811
-32.9098
-55.8052
-12.5938
-58.6168
-37.9333
-43.6656
-18.7782
-38.408
-28.5929
-49.7466
-53.2556
-45.4327
-43.7473
-38.822
-35.5659
-32.4021
-28.6631
-30.3664
-44.471
-30.3672
-35.6882
-36.4482
-31.218
-32.6457
-27.2209
-30.0516
-25.5114
-30.2954
-44.985
-30.1994
-9.6126
-57.7346
-38.4506
-32.8046
-38.2885
-58.2626
-37.4501
-42.7443
-54.1606
-44.5872
-21.0427
-38.2376
-32.9338
-51.3031
-98.8261
-87.7914
171.715
133.359
-68.3685
-67.6251
188.45
189.432
-70.7621
-49.9097
-57.3564
-44.2711
-46.0531
-47.8181
-29.6131
-29.0825
-39.349
-39.2481
-26.8681
-26.0169
-38.4427
-42.2511
-39.1547
-37.9823
-24.5001
-24.6683
36.3359
38.0834
-49.1636
-64.2142
-22.0327
-12.7504
-34.2952
-34.1044
-26.9184
-27.7108
-45.667
-37.0719
-40.4272
-36.6193
-99.2009
-87.0003
135.022
163.915
-70.5461
-49.4402
-55.9571
-43.7584
-48.9565
-46.8176
-29.3196
-28.5504
-37.1122
-41.1071
-39.0629
-37.7967
-64.0259
-48.0956
-9.96489
-26.0553
-37.9016
-45.6057
-36.0511
-39.8275
-27.0948
-24.3092
-29.3682
-30.1798
-46.0906
-47.6957
-27.9841
-29.8028
-39.2885
-39.4323
-31.097
-31.1011
-20.8537
-22.3507
-36.1612
-37.3323
-31.1466
-31.0592
-36.0535
-35.9414
-24.8419
-29.1299
-79.4632
-62.8918
8.79946
9.3812
-94.4488
-97.477
-61.3944
-61.2265
-42.5061
-42.234
-27.8568
-26.4931
-29.4101
-30.3993
-46.6824
-45.2402
-28.5213
-31.4823
-24.1354
-22.7365
-35.1205
-35.5202
-32.4269
-27.2951
-64.7498
-80.8651
-65.3204
-72.2789
-69.4453
-81.5204
-38.627
-47.304
-50.2104
-48.9132
-42.5872
-48.8935
-50.0073
-41.5367
-78.0937
-76.4372
-65.4618
-63.6782
-69.6968
-88.629
-69.0875
-72.1019
-78.9452
-62.3836
-64.823
-79.5753
-41.2671
-40.3085
-48.7119
-47.3777
-38.5013
-48.6765
-49.5787
-45.8022
-89.1908
-85.3608
-58.2165
-57.4049
-87.1378
-56.1011
-57.6717
-84.2598
-35.708
-36.0292
-44.1844
-43.5798
-35.9852
-44.2717
-44.3809
-36.2695
-49.2485
-31.7174
-17.9478
-28.7706
-43.4793
1.60334
3.08635
-32.2339
-43.4881
-29.3089
4.69695
1.89433
-47.2474
-28.4314
-18.1206
-37.0808
64.697
117.358
187.687
163.46
39.2338
-0.831757
153.857
103.881
39.527
101.198
154.205
-0.0871817
52.4259
161.106
188.829
110.433
-30.4683
-27.4149
-27.0756
-30.0525
-28.9495
-17.8988
-24.1148
-24.4215
-29.8773
-28.5227
-25.5513
-19.1268
-36.6696
-30.6967
-29.4356
-31.912
-30.2212
-29.54
-28.5779
-28.0982
-40.0174
-37.4089
-31.8853
-30.9596
-33.104
-21.8423
-27.8894
-32.8944
-28.2787
-26.478
-26.4249
-21.1393
-32.1612
-32.6009
-29.6856
-29.3277
-32.0179
-29.3436
-29.6668
-32.5932
-30.7277
-31.6143
-30.8902
-29.3275
-30.1107
-28.9602
-30.8031
-31.5762
-58.2966
-54.6826
-95.3952
-48.6294
-49.3825
-54.2753
-71.4098
-51.5279
-50.7185
-52.1431
-71.4593
-53.5204
-62.1629
-50.8769
-94.7623
-56.1918
-30.9463
-37.651
-38.7675
-31.7792
-45.6976
-48.0629
-43.2644
-40.8173
-49.5593
-47.4284
-44.6824
-50.5908
-38.1215
-37.5009
-37.9519
-38.3294
-31.3721
-31.0639
-36.6842
-36.5308
-38.7807
-38.631
-37.5831
-37.2871
-48.422
-49.1118
-44.7921
-47.384
-45.0759
-39.7224
-42.8806
-48.3766
-32.7422
-32.8809
-38.7063
-39.9516
-32.5063
-39.1292
-38.7816
-32.8473
-41.2717
-39.6505
-37.7986
-38.0136
-41.1902
-38.261
-37.9132
-39.5505
-46.1836
-41.182
-40.2649
-44.6467
-37.2226
-32.8834
-35.9726
-38.3392
-35.1683
-37.4888
-35.8039
-32.6213
-44.9869
-44.2675
-40.0469
-40.2595
-33.8959
-30.5638
-25.173
-30.9378
-34.5945
-30.6701
-24.194
-31.1101
-31.1116
-28.9941
-23.0221
-30.1792
-32.1704
-30.4877
-24.9741
-28.7405
4.62909
-111.531
-144.685
-51.2884
-47.5064
-44.8562
-10.6845
-16.8926
-51.049
-43.4509
-40.1444
-45.5835
-103.303
-4.37626
-134.454
-46.8129
-52.5633
-44.1734
-16.1476
-11.495
-52.645
-36.0543
-38.8202
-40.8411
-36.1975
-33.2388
-35.0251
-34.3812
-31.622
-29.8222
-30.6213
-30.6152
-41.3387
-40.7293
-42.2772
-49.0754
-41.1843
-38.4634
-40.9806
-45.3791
-36.0052
-34.1275
-33.1602
-35.1607
-30.6322
-31.1484
-30.1888
-30.4827
-40.8604
-50.8598
-40.0982
-43.7848
-43.1868
-47.6467
-39.0359
-43.4651
53.9753
21.9349
-21.2036
94.0849
-123.15
-122.9
-99.8384
143.796
-55.2185
-47.8275
-55.4947
-50.4383
-44.466
-42.5416
-48.8544
-33.7415
-39.212
-39.3221
-40.2091
-33.9834
-38.1659
-36.8147
-37.8408
-36.993
-21.4429
-21.5635
-25.1622
-10.9904
-51.7
-46.906
-51.941
-42.2419
-31.4108
-31.2502
-32.0431
-29.5575
-42.084
-39.7284
-41.386
-39.6286
54.8423
23.4608
-20.3767
89.128
-53.9765
-47.1509
-55.314
-49.7901
-40.7373
-39.0906
-46.9122
-32.6558
-37.7117
-35.4804
-37.0729
-36.5876
-49.8406
-44.4589
-50.6038
-40.3789
-42.2743
-39.8241
-42.6167
-39.3816
-28.9975
-27.024
-26.8445
-28.0747
-35.552
-34.6525
-38.5412
-31.8739
-34.4543
-34.4556
-35.5632
-33.4845
-30.7355
-24.9297
-19.6277
-35.6078
-32.4302
-32.4404
-32.1086
-32.8561
-41.6556
-40.1139
-35.4446
-49.8672
-15.9933
-16.4133
-3.85841
-30.9997
-44.7173
-44.5035
-48.1744
-44.628
-29.0232
-27.5917
-26.9785
-28.3684
-34.1436
-32.6632
-37.2972
-30.6597
-31.881
-28.7269
-20.66
-33.4785
-45.8447
-44.1372
-38.4632
-50.337
-60.178
-55.9459
-56.1438
-52.936
-59.7121
-55.5392
-55.6173
-52.2903
-54.6685
-50.8824
-50.7219
-47.3841
-10.902
-6.83143
-6.52584
1.78534
191.503
186.007
192.838
193.269
-26.3961
-27.7407
-25.9293
-27.6011
-28.4813
-29.7992
-28.4028
-29.6804
-30.9266
-30.1341
-30.9218
-30.9204
-84.5961
-90.8982
-78.322
-84.5133
-43.28
-40.2954
-41.3329
-38.4138
-42.8229
-41.5993
-42.2328
-39.183
-37.6349
-37.462
-37.5599
-37.1016
-37.0176
-37.9357
-37.8461
-39.1452
-23.116
-21.604
-20.3466
-22.8495
59.2384
84.3436
-5.94381
120.997
-114.497
-117.615
-96.9681
10.3349
-84.8023
-66.3724
-77.2405
-69.3591
-49.0846
-46.2079
-50.581
-35.4191
-42.4523
-40.1036
-42.4557
-35.8534
-42.085
-39.1201
-41.2844
-38.635
4.61479
4.0452
-30.1483
41.4547
-35.1487
-23.9706
-33.4846
-16.5873
-61.2461
-57.724
-69.8634
-48.8321
-40.3958
-40.4639
-46.6446
-33.7953
-32.3283
-31.9906
-32.7921
-29.6474
-47.7532
-45.8898
-50.0577
-42.7016
-99.3754
-108.678
-91.5554
82.5194
63.143
78.061
-19.7338
111.044
-83.1529
-64.7443
-83.3238
-67.8788
-42.7686
-40.7556
-42.1091
-35.8032
-46.0768
-43.4405
-52.7913
-34.552
-39.7247
-38.4763
-40.2272
-38.1769
-34.1633
-23.4592
-32.0394
-16.9414
6.14551
4.46092
-32.4239
40.6636
-62.0928
-56.0777
-69.397
-49.3809
-31.914
-31.4327
-32.4244
-29.0145
-36.8795
-37.1191
-42.6492
-32.1336
-44.4009
-44.4995
-49.2901
-40.2038
-37.1439
-41.5385
-42.726
-39.0798
-30.686
-29.0673
-29.4451
-30.3408
-34.7475
-36.523
-44.3156
-34.2306
-34.4992
-34.3832
-35.6778
-33.3092
-30.5309
-42.0993
-34.678
-36.7955
-26.5126
-26.9391
-25.7851
-28.6317
-30.5957
-30.3411
-28.7654
-30.3307
-31.4775
-32.1953
-31.4971
-32.4517
-41.9925
-43.7853
-44.5344
-38.8487
-33.4043
-34.1537
-37.4867
-31.9812
-43.0524
-42.9107
-40.6965
-51.9868
-52.698
-18.4799
-21.7084
-42.4831
-40.7174
-39.0368
-38.324
-41.8476
-36.6831
-27.4861
-18.1345
-39.426
-38.2373
-39.063
-33.3933
-47.2332
-50.0422
-47.2741
-52.48
-46.9598
-36.6361
-41.0555
-42.4766
-38.7818
-34.2863
-34.3272
-35.6515
-33.2703
-30.821
-29.4975
-29.2145
-30.3182
-34.4309
-35.468
-43.2144
-32.6164
-32.4372
-44.2643
-36.5182
-36.7098
-31.5574
-32.1931
-31.492
-32.3704
-29.2829
-26.7361
-28.1867
-29.6822
-30.5291
-29.7263
-27.976
-30.3448
-40.2164
-40.9547
-43.4729
-37.2955
-50.5504
-17.4663
-18.638
-40.0222
-33.356
-32.6687
-35.8387
-31.3046
-46.202
-46.3841
-41.57
-52.9452
-40.5196
-39.1405
-38.5382
-41.5602
-48.217
-46.36
-52.2599
-46.0748
-36.788
-27.7874
-20.7048
-39.2313
-42.9993
-42.0342
-36.4864
-49.1392
-105.806
-77.6949
-96.104
-90.3081
137.969
185.108
165.318
163.35
-76.3555
-63.1212
-68.9224
-68.5618
188.663
188.747
188.36
188.995
-56.1022
-56.3498
-61.6623
-52.9861
-50.5804
-50.6646
-54.3694
-47.249
-48.3195
-45.3314
-46.882
-47.7462
-29.8098
-27.6899
-29.3643
-29.0574
-39.3357
-38.2202
-39.189
-39.1418
-27.7482
-22.0612
-25.4794
-24.8707
-38.826
-39.497
-37.7969
-41.4109
-37.3577
-37.3217
-37.0582
-37.6961
-25.4498
-19.7574
-22.9861
-23.025
18.7223
81.7312
35.9775
37.3299
-54.8825
-55.2218
-51.7817
-59.221
-29.3574
-13.5782
-21.2572
-17.4233
-33.4322
-35.2429
-34.3715
-34.26
-27.3738
-21.035
-25.4002
-26.2365
-41.6529
-42.2629
-43.8875
-39.4978
-38.618
-38.0256
-39.3413
-37.5242
-107.251
-77.1406
-95.5336
-89.4623
135.531
187.631
167.946
159.07
-55.8764
-55.99
-61.5201
-52.5765
-49.6386
-50.164
-53.3802
-46.6134
-47.871
-45.5565
-48.472
-47.4366
-29.5837
-26.3647
-29.1508
-28.5265
-38.3052
-39.6487
-36.8597
-40.3365
-37.5257
-37.7121
-37.2549
-37.7282
-53.9181
-54.5845
-58.3787
-51.0262
-25.4209
-13.502
-14.2471
-22.6325
-42.6441
-42.6613
-39.9978
-44.5756
-38.192
-37.6493
-36.8394
-38.7637
-25.2076
-25.8744
-26.5928
-25.2546
-29.7047
-30.6127
-29.6429
-30.1274
-47.2046
-48.0203
-46.387
-47.0058
-28.9626
-28.2533
-28.196
-29.1096
-37.2178
-41.7245
-39.668
-39.5644
-31.9011
-30.5615
-31.17
-31.1771
-19.5749
-23.1845
-21.1713
-21.9309
-36.6213
-37.1709
-36.3776
-36.6571
-31.4766
-31.0869
-31.2347
-31.1878
-34.4524
-38.677
-35.9689
-35.9211
-29.6258
-29.0296
-26.8606
-30.6677
-59.0452
-79.0185
-74.0659
-67.3147
9.65586
12.8237
10.8671
11.645
-84.3477
-102.649
-101.939
-101.841
-57.2727
-66.2818
-61.6293
-61.4473
-43.3564
-41.3056
-42.4231
-42.2939
-26.9065
-28.1133
-26.6466
-25.7958
-29.7866
-30.5585
-29.5158
-30.3498
-46.0193
-46.9477
-46.2617
-45.4407
-29.496
-29.5987
-29.024
-30.4141
-21.5818
-25.5125
-23.5793
-23.0209
-35.9209
-36.0904
-35.5031
-35.4417
-29.825
-30.5231
-31.7866
-29.1265
-61.2217
-79.7673
-67.428
-75.1889
-91.7316
-96.2002
-99.9991
-83.422
-45.7535
-44.2913
-47.8127
-45.8485
-47.5281
-48.9717
-48.0069
-48.0262
-91.6206
-81.4767
-85.9739
-72.906
-101.269
-99.8833
-100.893
-83.0441
-91.77
-80.4956
-85.1194
-72.3553
-46.115
-46.352
-46.5458
-46.4703
-45.2936
-43.4663
-47.2729
-45.1123
-75.0006
-66.8849
-67.6836
-60.8167
-72.8133
-64.6868
-66.352
-58.8656
-38.8403
-36.3831
-41.0132
-39.4004
-39.1159
-36.7782
-41.5659
-39.4712
-36.024
-35.4679
-27.0936
-26.3905
-19.6404
-7.84071
-8.33663
3.74422
-16.2833
-5.27957
-5.79479
4.74092
-33.0218
-35.6855
-27.3301
-28.1806
134.232
167.703
178.543
187.747
38.958
20.0112
84.3901
37.2356
21.7566
39.7155
38.8303
76.0196
181.429
136.159
189.808
169.36
-27.9209
-29.1514
-27.5431
-27.9998
-22.9181
-18.7312
-22.6794
-20.6104
-20.1337
-23.0617
-22.5019
-23.5475
-31.9874
-31.9935
-30.6006
-31.6246
-28.2186
-28.8958
-28.6045
-27.9417
-33.3004
-33.4276
-32.5071
-32.9675
-22.1729
-27.4519
-24.0071
-25.3207
-25.5484
-23.5801
-25.1497
-21.8939
-30.7259
-31.5573
-30.1063
-30.9681
-31.5387
-30.682
-30.9357
-30.1346
-30.967
-30.4555
-30.9589
-30.5246
-30.0896
-30.7116
-30.2934
-30.8136
-68.4915
-71.4387
-83.6237
-85.1289
-51.5324
-55.0616
-60.3606
-59.775
-56.036
-53.1235
-60.432
-61.5395
-74.0722
-75.4554
-89.3502
-84.4687
-35.5552
-31.6525
-37.2735
-35.8696
-46.3441
-43.1128
-45.172
-42.9446
-51.4208
-50.2917
-48.2079
-47.0946
-37.6675
-38.2965
-36.7317
-37.7055
-35.6911
-31.6848
-36.6838
-35.216
-36.8177
-37.4437
-36.9732
-35.9593
-51.1359
-51.8462
-49.693
-48.5095
-45.6827
-43.0625
-46.2332
-42.4145
-36.7533
-34.625
-39.6672
-36.3614
-36.1582
-34.3623
-38.8194
-35.9785
-40.2196
-39.5709
-39.5327
-38.4472
-40.0432
-39.3079
-39.3455
-38.4132
-43.3183
-43.9909
-41.5342
-42.5934
-34.0963
-35.3548
-34.5324
-35.7545
-33.6478
-34.4322
-34.039
-35.1835
-42.5564
-43.2797
-40.9668
-42.2913
-30.5586
-30.47
-29.8152
-29.1169
-30.7739
-30.5663
-28.6022
-29.2954
-29.0548
-29.8859
-28.3043
-28.9044
-30.5564
-29.3854
-29.1757
-28.8084
-54.9182
52.4293
-106.93
48.2795
-87.05
-92.6068
-48.6091
-37.0607
-44.0268
-36.8603
-44.8492
-41.8631
-45.0632
30.4248
-45.2897
1.50718
-72.9942
-56.1803
-47.5208
-35.2198
-36.8341
-34.1603
-48.8411
-41.7402
-105.081
31.8084
-45.3891
100.908
-93.6616
-91.3279
-43.6231
-36.8434
-51.2688
-37.7689
-43.2623
-41.1714
-44.2404
3.32312
-47.5632
33.4669
-73.339
-57.3071
-33.5452
-32.2694
-43.1009
-32.9044
-47.7399
-39.2013
-36.7209
-35.8958
-30.8454
-32.0762
-37.414
-31.7203
-35.3903
-33.1615
-31.2529
-32.5176
-28.6425
-29.7564
-29.7516
-30.9149
-30.8592
-32.3275
-41.9389
-44.278
-39.8316
-38.0378
-40.6461
-51.3329
-50.7497
-57.9829
-39.6483
-44.1862
-34.3417
-38.205
-35.3717
-46.7444
-49.8773
-48.2789
-36.3866
-35.6907
-35.2487
-33.1147
-30.9022
-31.9828
-37.0323
-31.594
-31.2943
-32.3451
-31.0894
-32.0524
-28.975
-30.4252
-29.4021
-31.4323
-41.1759
-47.5495
-50.967
-62.7408
-39.7448
-37.665
-41.0429
-53.0525
-40.8913
-43.8289
-49.5126
-46.9112
-36.1451
-38.3436
-37.0537
-48.9289
-32.8905
107.667
-34.7962
73.308
-80.1545
-70.6795
115.538
132.297
-99.0827
140.233
-97.3309
151.947
-85.9759
-85.4289
163.43
162.734
-71.7183
-58.3135
-48.012
-44.3844
-62.881
-52.0443
-54.2548
-47.2548
-49.6614
-34.4959
-47.4812
-32.9362
-48.3573
-49.3095
-30.8273
-30.5475
-40.902
-34.6048
-40.7985
-34.8321
-39.3565
-39.2763
-30.2863
-30.4012
-40.0921
-38.4538
-39.9354
-40.7017
-37.758
-40.2024
-37.174
-37.5917
-27.7905
-10.2912
-27.2371
-11.2256
-26.6627
-26.5197
0.0902119
-1.04943
-59.1009
-44.9727
-47.411
-39.212
-50.7001
-58.1629
-37.5853
-34.3564
-32.2349
-29.3263
-31.9855
-29.4764
-32.735
-32.6986
-28.8101
-28.7458
-46.159
-41.3544
-38.4422
-40.1407
-44.6371
-39.6244
-40.2592
-38.8653
-25.3878
96.7204
-35.7053
71.3306
-83.4468
-72.9786
130.934
107.621
-71.4065
-57.167
-47.6658
-43.6251
-62.8987
-51.8658
-53.1833
-46.4555
-50.0747
-33.2497
-43.4676
-31.8405
-49.5872
-48.9247
-30.2574
-30.2404
-38.7955
-38.2421
-36.9249
-39.3839
-36.4868
-39.0863
-36.6751
-37.508
-59.2682
-44.6255
-46.114
-36.8835
-57.6885
-49.5189
-30.8684
-35.2254
-46.6235
-40.2341
-38.8946
-39.6745
-40.2153
-46.4796
-38.0759
-39.0431
-27.8681
-29.4136
-25.8545
-27.526
-26.5739
-24.7429
-28.9007
-28.6384
-38.3874
-32.3413
-38.2742
-31.5695
-46.6213
-43.31
-30.0219
-30.0689
-35.5652
-33.5145
-35.5339
-33.4921
-36.298
-36.3343
-32.6215
-32.639
-25.1891
-31.933
-18.4119
-39.2655
-18.536
-18.8773
-33.0903
-36.2717
-31.9497
-32.7796
-31.981
-32.7485
-31.6898
-31.6599
-32.9387
-32.9359
-39.1482
-50.8369
-33.7127
-48.4976
-29.8407
-33.4899
-54.3844
-53.3057
-4.68612
-27.5194
-4.96994
-28.6492
3.50356
3.4802
-52.9703
-54.861
-50.55
-45.5897
-48.7004
-45.0101
-53.2993
-52.8793
-44.3103
-44.189
-28.9884
-29.4606
-26.7411
-28.2705
-27.1304
-26.3321
-28.8548
-29.2232
-37.9092
-30.9299
-36.9639
-31.0288
-41.2423
-44.5365
-29.5989
-30.3306
-25.5058
-31.2634
-21.5601
-36.1015
-20.1857
-18.5961
-32.5494
-35.7886
-40.1025
-51.385
-37.9469
-49.5438
-34.5021
-33.7788
-53.3302
-55.207
-68.5136
-66.4424
-61.0956
-52.9508
-52.4231
-59.6404
-50.4678
-50.3937
-68.1211
-65.9102
-60.7446
-52.4308
-58.9631
-51.9753
-49.4227
-49.7471
-58.6018
-58.3454
-54.5502
-47.3648
-54.1516
-47.1117
-44.3395
-44.437
-16.3239
-16.3132
-13.6999
-2.84685
-2.26521
-13.7452
7.28312
7.75833
185.348
189.5
186.854
187.985