# vtk DataFile Version 2.0
tet_velo
ASCII
DATASET UNSTRUCTURED_GRID
POINTS 29498 float
-0.685 0.155 -1.82331
-0.715 0.365 1.96794
-0.655 0.475 -1.95232
-0.705 0.749408 1.955
0.695 0.155 -1.80825
0.735 0.365 1.97985
0.645 0.478829 -1.945
0.705 0.755 1.96874
-0.740571 0.179429 -0.55956
-0.818162 0.181838 0.70419
-0.758169 0.652972 -0.64988
-0.741536 0.711142 0.65256
0.759576 0.173757 -0.54555
0.839556 0.17711 0.71715
0.750897 0.656783 -0.64042
0.73445 0.712393 0.66416
-1.42764 -0.139811 -2.8127
-1.42512 -0.0712309 -1.78576
-1.47707 -0.0505743 -0.523297
-1.54102 -0.0380466 0.731035
-1.50984 0.0895147 1.99281
-1.48805 0.18255 3.01634
-1.48439 0.253569 4.04605
-1.42553 0.0635005 -2.86435
-1.4213 0.149072 -1.83288
-1.48657 0.189563 -0.562685
-1.54989 0.195039 0.70379
-1.48952 0.318959 1.9732
-1.47506 0.410421 2.99733
-1.47974 0.481257 4.02574
-1.42029 0.440946 -2.97787
-1.40803 0.524101 -1.94697
-1.48982 0.654819 -0.650186
-1.50478 0.697438 0.64901
-1.46935 0.74978 1.9449
-1.46806 0.840113 2.96757
-1.47902 0.922124 3.9897
-1.45015 1.09556 -3.11949
-1.45141 1.18842 -2.0834
-1.48431 1.31812 -0.773041
-1.50614 1.40846 0.545478
-1.50362 1.47121 1.85508
-1.50017 1.53089 2.88959
-1.50037 1.60041 3.91587
-0.708032 -0.136479 -2.80403
-0.688134 -0.0658969 -1.77574
-0.720263 -0.0559749 -0.517512
-0.78339 -0.0471114 0.732288
-0.757655 0.113887 1.99029
-0.739483 0.201152 3.01669
-0.73731 0.264319 4.04891
-0.713938 0.0614351 -2.85787
-0.728117 0.430382 2.99882
-0.734685 0.492019 4.02949
-0.71089 0.421197 -2.97754
-0.726609 0.846738 2.97482
-0.737177 0.92801 3.99626
-0.724666 1.08389 -3.11888
-0.717716 1.17828 -2.08324
-0.743629 1.31812 -0.770563
-0.764668 1.41278 0.551873
-0.763178 1.47331 1.86409
-0.759478 1.53205 2.89866
-0.758377 1.60179 3.92418
0.70838 -0.136465 -2.79091
0.734601 -0.066945 -1.76153
0.785112 -0.0601491 -0.503811
0.814248 -0.0508539 0.745225
0.746529 0.112904 2.00263
0.749029 0.201185 3.0292
0.754492 0.264581 4.06154
0.680707 0.0621148 -2.84518
0.741987 0.431219 3.01139
0.749177 0.492727 4.04217
0.660071 0.423326 -2.96726
0.725898 0.849436 2.98785
0.737774 0.929474 4.00905
0.706199 1.08555 -3.10819
0.724108 1.18015 -2.07273
0.72954 1.31974 -0.759582
0.718474 1.41411 0.563669
0.7141 1.47495 1.87651
0.717811 1.53364 2.91127
0.723206 1.60305 3.9368
1.42901 -0.139804 -2.78709
1.45702 -0.0728062 -1.75908
1.52542 -0.0559938 -0.49691
1.57593 -0.0433186 0.756737
1.52422 0.0877767 2.01799
1.50597 0.182462 3.04155
1.50562 0.253937 4.07133
1.39996 0.0646709 -2.83953
1.42413 0.149327 -1.80682
1.5033 0.184935 -0.536781
1.57377 0.190279 0.729388
1.51481 0.3188 1.9985
1.49485 0.411606 3.02266
1.49753 0.482386 4.0511
1.37644 0.444301 -2.95613
1.39063 0.528519 -1.92631
1.47924 0.657187 -0.627956
1.501 0.697973 0.673379
1.47598 0.754156 1.97094
1.47279 0.843831 2.99336
1.48216 0.924529 4.0152
1.42457 1.0985 -3.09771
1.44469 1.19162 -2.06182
1.46417 1.32084 -0.750671
1.46371 1.41072 0.569202
1.45955 1.47394 1.87986
1.46171 1.53361 2.91472
1.46702 1.60265 3.94104
-0.653723 0.315 -1.87154
0.005 0.15273 -1.81805
-0.735857 0.144143 -1.19144
-0.678829 0.557204 1.9303
0.01 0.430775 1.90812
-0.840114 0.199886 1.33607
-0.005 0.483528 -1.95527
-0.794023 0.651425 -1.3011
0 0.754088 1.96375
-0.740238 0.747245 1.30378
0.65709 0.316914 -1.86372
0.747896 0.143771 -1.1769
0.68154 0.56 1.93583
0.84596 0.212374 1.3485
0.781997 0.651855 -1.29271
0.733581 0.747552 1.31645
-0.751433 0.208567 0.072315
-0.80062 0.4162 -0.60472
0.00950245 0.11898 -0.552555
-0.845894 0.44649 0.678375
0.0106972 0.113643 0.71067
-0.731506 0.66371 0.00134003
-0.00363597 0.799098 -0.64515
-0.00354304 1.02279 0.65836
0.769086 0.205914 0.0858001
0.805226 0.41527 -0.592985
0.847704 0.444752 0.690655
0.725542 0.667456 0.01187
-0.844189 0.3656 -1.24627
-0.803217 0.431345 0.0368275
-0.895518 0.501847 1.31992
0.00725122 0.139597 -1.18417
0.0100998 0.1151 0.0790575
0.0103486 0.146664 1.34228
0 0.315957 -1.79936
0.00500001 0.558602 1.9127
-0.00431798 0.681129 -1.29691
-0.00358951 1.03634 0.006605
-0.00177152 0.746488 1.31012
0.853943 0.366092 -1.23481
0.809135 0.430011 0.048835
0.895479 0.502376 1.33248
-1.05315 0.152036 -1.8281
-0.686567 0.0445516 -1.79952
-0.699469 0.108218 -2.34059
-1.10226 0.341979 1.97057
-0.736328 0.239444 1.97912
-0.721558 0.397691 2.48338
-1.03151 0.49955 -1.94965
-0.682945 0.448099 -2.46493
-0.686358 0.826642 -2.01778
-1.08717 0.749594 1.94995
-0.715804 0.798073 2.46491
-0.734089 1.11136 1.90954
0.7148 0.0440275 -1.78489
0.687853 0.108557 -2.32672
1.05957 0.152164 -1.80753
0.740765 0.238952 1.99124
0.738494 0.39811 2.49562
1.1249 0.3419 1.98917
0.652535 0.451078 -2.45613
0.684554 0.82949 -2.00886
1.01782 0.503674 -1.93566
0.715449 0.802218 2.4783
0.70955 1.11497 1.92263
1.09049 0.754578 1.96984
-1.11357 0.184496 -0.561122
-0.730417 0.061727 -0.538536
-1.18402 0.188439 0.70399
-0.800776 0.0673634 0.718239
-1.124 0.653896 -0.650033
-0.750899 0.985548 -0.710221
-1.12316 0.70429 0.650785
-0.753102 1.06196 0.602217
0.772344 0.0568041 -0.52468
1.13144 0.179346 -0.541165
0.826902 0.0631283 0.731188
1.20666 0.183695 0.723269
0.740219 0.988263 -0.700001
1.11507 0.656985 -0.634188
0.726462 1.06325 0.613914
1.11773 0.705183 0.668769
-1.42638 -0.105521 -2.29923
-1.42658 -0.0381555 -2.83852
-1.06783 -0.138145 -2.80837
-1.4511 -0.0609026 -1.15453
-1.42321 0.0389208 -1.80932
-1.05663 -0.0685639 -1.78075
-1.50904 -0.0443105 0.103869
-1.48182 0.0694944 -0.542991
-1.09867 -0.0532746 -0.520404
-1.52543 0.025734 1.36192
-1.54545 0.0784963 0.717413
-1.1622 -0.042579 0.731661
-1.49895 0.136032 2.50458
-1.49968 0.204237 1.983
-1.13375 0.101701 1.99155
-1.48622 0.21806 3.5312
-1.48156 0.296485 3.00684
-1.11377 0.191851 3.01651
-1.48206 0.367413 4.0359
-1.11085 0.258944 4.04748
-1.42341 0.106286 -2.34861
-1.42291 0.252223 -2.92111
-1.06973 0.0624678 -2.86111
-1.45393 0.169318 -1.19778
-1.41466 0.336587 -1.88993
-1.51823 0.192301 0.0705527
-1.4882 0.422191 -0.606435
-1.5197 0.256999 1.33849
-1.52733 0.446239 0.6764
-1.48229 0.36469 2.48526
-1.47943 0.534369 1.95905
-1.4774 0.445839 3.51154
-1.47156 0.625267 2.98245
-1.10159 0.420401 2.99808
-1.47938 0.701691 4.00772
-1.10721 0.486638 4.02762
-1.41416 0.482523 -2.46242
-1.43522 0.768253 -3.04868
-1.06559 0.431072 -2.97771
-1.44893 0.58946 -1.29858
-1.42972 0.85626 -2.01519
-1.4973 0.676129 -0.00058798
-1.48707 0.986472 -0.711613
-1.48706 0.723609 1.29696
-1.50546 1.05295 0.597244
-1.4687 0.794946 2.45624
-1.48648 1.1105 1.89999
-1.47354 0.881118 3.47864
-1.48412 1.1855 2.92858
-1.09733 0.843425 2.9712
-1.48969 1.26127 3.95278
-1.1081 0.925067 3.99298
-1.45078 1.14199 -2.60144
-1.08741 1.08973 -3.11918
-1.46786 1.25327 -1.42822
-1.08456 1.18335 -2.08332
-1.49523 1.36329 -0.113781
-1.11397 1.31812 -0.771802
-1.50488 1.43984 1.20028
-1.13541 1.41062 0.548676
-1.5019 1.50105 2.37234
-1.1334 1.47226 1.85958
-1.50027 1.56565 3.40273
-1.12983 1.53147 2.89413
-1.12937 1.6011 3.92003
-0.698083 -0.101188 -2.28988
-0.710985 -0.0375218 -2.83095
0.000173617 -0.136472 -2.79747
-0.704198 -0.0609359 -1.14662
0.0232335 -0.066421 -1.76864
-0.751826 -0.0515432 0.107388
0.0324247 -0.058062 -0.510661
-0.770523 0.0333879 1.36129
0.0154291 -0.0489827 0.738756
-0.748569 0.157519 2.50349
-0.00556305 0.113396 1.99646
-0.738397 0.232735 3.5328
-0.7338 0.315767 3.00776
0.00477279 0.201168 3.02294
-0.735997 0.378169 4.0392
0.00859085 0.26445 4.05522
-0.712414 0.241316 -2.91771
-0.0166157 0.0617749 -2.85153
-0.731401 0.4612 3.51416
-0.727363 0.63856 2.98682
0.0069351 0.430801 3.00511
-0.735931 0.710015 4.01288
0.00724626 0.492373 4.03583
-0.717778 0.752545 -3.04821
-0.0254099 0.422262 -2.9724
-0.731893 0.887374 3.48554
-0.743043 1.18939 2.93674
-0.00035536 0.848087 2.98134
-0.747777 1.2649 3.96022
0.000298511 0.928742 4.00266
-0.721191 1.13109 -2.60106
-0.00923325 1.08472 -3.11353
-0.730673 1.2482 -1.4269
0.00319556 1.17922 -2.07798
-0.754148 1.36545 -0.109345
-0.00704422 1.31893 -0.765072
-0.763923 1.44305 1.20798
-0.0230972 1.41345 0.557771
-0.761328 1.50268 2.38137
-0.0245391 1.47413 1.8703
-0.758928 1.56692 3.41142
-0.0208336 1.53285 2.90496
-0.0175855 1.60242 3.93049
0.72149 -0.101705 -2.27622
0.694543 -0.0371753 -2.81805
1.06869 -0.138135 -2.789
0.759857 -0.0635471 -1.13267
1.09581 -0.0698756 -1.7603
0.79968 -0.0555015 0.120707
1.15527 -0.0580714 -0.50036
0.780389 0.031025 1.37393
1.19509 -0.0470863 0.750981
0.747779 0.157045 2.51591
1.13537 0.10034 2.01031
0.751761 0.232883 3.54537
0.745508 0.316202 3.02029
1.1275 0.191823 3.03538
0.751835 0.378654 4.05185
1.13006 0.259259 4.06644
0.670389 0.242721 -2.90622
1.04033 0.0633928 -2.84236
0.745582 0.461973 3.52678
0.733943 0.640328 2.99962
1.11842 0.421413 3.01702
0.743476 0.711101 4.02561
1.12335 0.487557 4.04663
0.683135 0.754439 -3.03773
1.01825 0.433814 -2.96169
0.731836 0.889455 3.49845
0.721854 1.19154 2.94956
1.09935 0.846634 2.99061
0.73049 1.26626 3.97293
1.10997 0.927002 4.01213
0.715153 1.13285 -2.59046
1.06538 1.09203 -3.10295
0.726824 1.24995 -1.41615
1.0844 1.18589 -2.06728
0.724007 1.36693 -0.0979564
1.09686 1.32029 -0.755126
0.716287 1.44453 1.22009
1.09109 1.41242 0.566435
0.715956 1.50429 2.39389
1.08683 1.47445 1.87819
0.720509 1.56834 3.42403
1.08976 1.53363 2.91299
1.09512 1.60285 3.93892
1.44301 -0.106305 -2.27308
1.41448 -0.0375664 -2.81331
1.49122 -0.0644 -1.12799
1.44058 0.0382604 -1.78295
1.55067 -0.0496562 0.129913
1.51436 0.0644704 -0.516845
1.55007 0.022229 1.38736
1.57485 0.0734803 0.743062
1.51509 0.135119 2.52977
1.51951 0.203288 2.00824
1.5058 0.218199 3.55644
1.50041 0.297034 3.0321
1.50157 0.368161 4.06122
1.41205 0.106999 -2.32317
1.3882 0.254486 -2.89783
1.46372 0.167131 -1.1718
1.40738 0.338923 -1.86656
1.53853 0.187607 0.0963036
1.49127 0.421061 -0.582368
1.54429 0.25454 1.36394
1.53738 0.444126 0.701383
1.50483 0.365203 2.51058
1.49539 0.536478 1.98472
1.49619 0.446996 3.53688
1.48382 0.627719 3.00801
1.48984 0.703458 4.03315
1.38353 0.48641 -2.44122
1.4005 0.771402 -3.02692
1.43494 0.592853 -1.27713
1.41766 0.860071 -1.99407
1.49012 0.67758 0.0227114
[...]
POINT_DATA 29498
VECTORS point_vectors float
-2.73202 -2.30919 4.81741
-0.068885 0.158859 0.234936
-5.79297 3.52841 6.94956
0.11024 -0.321971 2.20605
3.64998 -4.41663 9.36304
0.0310535 0.188161 0.342697
4.51754 3.06083 6.83053
-0.107051 -0.261592 1.84872
0.0281356 -0.0122524 0.113535
0.0817479 -0.173266 1.08875
-0.153559 -0.135907 0.478088
0.489985 1.02375 1.13252
-0.0279582 0.0221238 0.467561
-0.017396 -0.213432 1.33976
0.238896 -0.19742 0.625742
-0.522156 0.704834 1.02616
-0.565691 -0.192676 19.7848
-1.28703 -0.554573 20.3582
-0.465821 -0.260348 21.0548
-0.0656766 -0.125677 21.129
0.615683 0.108341 21.101
0.867711 0.103116 20.7383
0.679271 -0.0520342 19.9791
-0.602759 -0.11662 19.7184
-1.5394 -0.372251 20.2429
-0.55704 -0.264988 21.0946
-0.132553 -0.162775 21.1647
0.719988 -0.027432 21.1628
0.96431 -0.0248238 20.6483
0.808597 -0.187078 19.9754
-0.54346 0.0257698 19.6948
-1.61443 0.134025 19.9971
-0.851371 -0.144129 21.044
-0.300198 -0.150503 21.2304
0.60479 -0.291802 21.1865
0.766601 -0.354928 20.8034
0.498709 -0.289021 20.114
-0.38755 0.195643 19.8194
-0.885822 0.501061 20.0191
-0.880735 0.348089 20.7905
-0.366075 0.0580658 21.138
0.176612 -0.263802 21.0403
0.307221 -0.348114 20.8821
0.264737 -0.345151 20.8277
-0.580762 -0.490098 19.1843
-2.74432 -4.02589 20.8031
-0.303494 0.0877802 18.1768
0.73429 -0.273045 17.3741
0.266746 1.40867 10.7221
1.24278 1.4747 12.4385
1.61667 0.615568 13.2822
-0.596925 -0.309641 19.0882
1.53742 0.669579 8.0366
1.97155 0.349677 12.6967
-0.519897 0.0423147 19.1089
1.30164 -0.816017 12.9086
0.666814 -0.846786 16.4774
-0.342496 0.347824 19.4968
-1.08086 1.5475 19.4059
-1.46479 1.40593 20.7781
-0.55931 0.491381 21.6786
0.159217 -0.512626 21.2837
0.290266 -0.712776 20.8536
0.217192 -0.564743 20.3351
0.588323 -0.500604 19.1774
2.73275 -3.5929 20.803
0.30205 0.086821 19.0783
-0.630344 -0.197635 18.0416
-0.294143 1.38324 10.7199
-1.24111 1.46924 12.586
-1.65249 0.586499 13.3637
0.597295 -0.327357 19.0366
-1.54311 0.670074 8.30658
-1.94423 0.343184 12.9653
0.509204 0.049296 19.0527
-1.26903 -0.793443 12.8491
-0.681864 -0.786216 16.4232
0.340282 0.358335 19.4893
1.08672 1.54075 19.4233
1.44737 1.44117 20.7879
0.530251 0.514083 21.7189
-0.155304 -0.516883 21.3177
-0.270308 -0.720107 20.8667
-0.212998 -0.540771 20.4515
0.579266 -0.197665 19.7879
1.22179 -0.519678 20.3843
0.460401 -0.240577 21.0175
0.0578869 -0.129645 21.1421
-0.60696 0.0992282 21.072
-0.842035 0.097033 20.7148
-0.627025 -0.0467363 19.9832
0.617158 -0.122902 19.7096
1.53571 -0.37972 20.2677
0.555582 -0.265452 21.0827
0.108485 -0.160196 21.1745
-0.682033 -0.0343328 21.1209
-0.933169 -0.0332026 20.5973
-0.761185 -0.189028 19.9407
0.563253 0.0321336 19.6653
1.65456 0.142861 19.9903
0.863057 -0.146583 21.0558
0.290443 -0.156315 21.2474
-0.587912 -0.29125 21.1591
-0.755692 -0.340699 20.7866
-0.469064 -0.285595 20.0313
0.392863 0.204587 19.8084
0.880686 0.509478 20.0253
0.889964 0.367987 20.8027
0.372045 0.0690623 21.1705
-0.181985 -0.273584 21.0655
-0.31816 -0.361441 20.874
-0.233873 -0.34867 20.9357
-3.86364 -1.04869 3.15815
-0.00038438 -0.018317 0.270591
-0.0012847 -0.000752102 0.0835275
-0.125447 0.0315448 -0.0286716
-0.00194126 -0.0586426 -0.0303802
0.0144531 0.0212356 0.810325
0.00142776 0.58065 0.66814
-0.365681 0.0715605 1.27779
-0.0530057 1.02979 -0.27897
0.0322238 0.0154859 0.210144
3.78021 -0.775132 3.28646
0.00566906 0.00183905 0.395367
0.151535 0.0343989 -0.028532
0.0113332 0.0581966 1.31697
0.153437 0.0449166 0.618239
-0.0247712 0.00855406 0.185543
0.00263063 -0.00343643 0.0393419
0.000139219 -0.00053693 0.00243201
-1.00718e-05 -0.00113243 0.0431747
-0.0154538 0.0135242 0.109341
6.90801e-08 6.21242e-09 -3.9336e-05
0.011444 0.0211562 0.0942272
0.000106906 0.00245641 0.00634547
0.00158656 0.0522345 0.181279
-0.0042138 -0.00986367 0.186083
0 0 0
0 0 0
-0.00356137 0.00807522 0.0544994
0 0 0
-0.00428679 0.0598792 0.541062
1.51314e-05 0.000193526 0.00389883
3.01822e-07 -2.36534e-07 3.32144e-05
-1.8954e-07 -4.2301e-07 8.91837e-05
0.000163324 0.000122815 0.00796756
0 0 0
0 0 0
5.89646e-06 0.00626617 0.0352962
-0.00037965 0.00890108 0.110671
2.92725e-05 0.000174585 -0.0116574
0.0106956 -0.0298547 0.462644
0.00443864 0.053519 0.407649
0.000270578 0.00383586 0.0678425
-3.23652 -1.20284 20.0514
-4.62352 -6.11765 21.2478
-1.70205 -1.11408 17.9255
1.40696 0.180468 18.8191
-0.293183 0.959755 3.40227
0.776656 0.896648 4.53684
-3.32382 0.556564 19.2344
-1.43288 0.206158 17.8737
-2.17921 2.6014 18.5218
1.13902 -0.551137 19.678
0.805816 -0.475872 8.84747
0.569583 -0.593515 19.0546
4.57714 -5.66553 21.355
1.75697 -1.18286 17.8317
3.19681 -1.21135 20.0596
0.286951 0.998344 3.60657
-0.808113 0.865973 4.93104
-1.32869 0.148394 19.1285
1.42552 0.231712 17.7963
2.17592 2.59286 18.5543
3.3889 0.596249 19.1994
-0.792774 -0.458036 8.78028
-0.583864 -0.579016 18.9554
-1.07818 -0.569236 19.7766
-0.312374 -0.4144 21.1306
-0.13078 0.400065 9.17216
-0.240931 -0.37224 20.768
1.00787 -0.903669 11.4793
-1.11022 -0.69762 21.1635
-2.70702 1.19549 20.805
-0.494081 -0.28317 20.3398
-0.660334 0.552807 19.9837
0.175691 0.430932 11.389
0.356754 -0.429885 21.1342
-0.877808 -0.813653 12.5252
0.187288 -0.348921 21.1156
2.68958 1.24662 20.8059
1.13138 -0.704579 21.0812
0.611264 0.592703 19.8172
0.491451 -0.274726 20.2154
-0.957025 -0.383926 19.8975
-0.592853 -0.16076 19.7464
-0.630334 -0.315702 19.5155
-0.919627 -0.435199 20.9513
-1.44305 -0.485339 20.3022
-2.1522 -1.46094 20.3667
-0.246195 -0.184887 21.068
-0.515376 -0.262904 21.0709
-0.330606 -0.273805 21.268
0.22383 -0.00660964 21.2499
-0.0981149 -0.145934 21.1412
-0.0253021 -0.264246 21.2072
0.78934 0.133093 20.9359
0.67267 0.0563201 21.1323
1.09379 0.449181 20.577
0.779794 0.0280227 21.1986
0.91601 0.0391461 20.6933
1.38443 0.418663 19.5497
0.756298 -0.12377 19.9511
0.967862 0.209186 20.6865
-1.08757 -0.225259 19.7557
-0.580896 -0.0410426 19.6966
-0.64956 -0.214511 19.4403
-1.13817 -0.356774 20.9867
-1.67496 -0.139839 20.1032
-0.304642 -0.218141 21.085
-0.694155 -0.255786 21.0897
0.238357 -0.0724749 21.3293
-0.218202 -0.171694 21.1985
0.871292 -0.0360214 20.975
0.696823 -0.17053 21.1669
0.813166 -0.125332 21.5544
0.896071 -0.236946 20.6733
1.63245 -0.0246389 19.2227
0.683788 -0.252822 20.0673
1.25454 -0.0516359 20.609
-0.995676 0.0747193 19.6748
-0.47037 0.149374 19.7495
-0.590183 0.0424386 19.4285
-1.42828 0.0538049 20.8239
-1.25656 0.438008 19.9835
-0.559739 -0.203012 21.1141
-0.983344 0.122079 20.9251
0.134353 -0.179743 21.3823
-0.381614 -0.0490459 21.2026
0.741134 -0.355025 20.9617
0.339694 -0.333372 21.1099
0.694605 -0.399349 20.9427
0.514196 -0.418095 20.8044
1.16574 -0.692013 20.0361
0.354932 -0.352512 20.31
0.599253 -0.521944 20.6912
-0.609709 0.332007 19.8453
-0.379711 0.266902 19.6767
-1.00269 0.515027 20.474
-1.09323 0.924882 19.7706
-0.667091 0.190167 21.0063
-1.2195 0.713414 20.8439
-0.0611088 -0.0990753 21.1843
-0.505464 0.218669 21.3576
0.261731 -0.347249 20.9493
0.192699 -0.375667 21.1689
0.325785 -0.320575 20.5715
0.347303 -0.536213 20.8059
0.311203 -0.447331 20.2767
-1.43276 -1.58168 18.6372
-0.593721 -0.401543 19.1334
0.000348455 -0.665908 18.803
-0.806749 -0.657113 20.679
0.0136344 -5.93398 21.7715
0.211295 -0.0315564 17.1723
0.0211473 -0.41631 13.8001
0.723334 0.379811 13.6173
0.0173424 0.0207069 11.2584
0.679407 1.45293 11.6637
-0.043067 -0.0626871 3.50232
1.44155 1.00302 13.104
1.35963 1.21404 9.72788
0.0244415 -0.361245 1.59121
1.82941 0.472965 12.7855
0.0363542 0.250837 4.81271
-0.573366 -0.125038 19.0594
-0.0148823 -0.426346 18.6254
1.69055 0.705323 11.0525
1.58122 -0.139656 8.83258
0.0866529 -1.02995 -2.80146
1.54505 -0.21082 13.0414
0.0623761 -1.01203 -1.94596
-0.430494 0.272156 19.2847
-0.0211035 0.0744897 18.7245
1.31234 -0.897246 15.3041
0.563748 -0.955924 20.0574
-0.00250933 -0.847743 4.04488
0.333296 -0.675706 20.5771
0.000666173 -1.48731 10.5686
-0.64715 0.793757 19.2663
-0.00431262 0.442744 19.3285
-1.3595 1.81271 20.3331
0.00700484 2.29209 19.0125
-1.31771 1.17044 21.4007
-0.0181831 2.80657 20.384
-0.05455 -0.104685 21.5761
-0.0334168 0.881013 22.2957
0.231391 -0.658827 21.0634
-0.00926471 -0.589339 21.5521
0.245692 -0.694305 20.7234
0.00429357 -0.837186 21.082
-0.0104216 -0.365852 21.0396
1.47233 -1.56607 18.6753
0.59761 -0.419682 19.1096
0.649908 -0.325108 19.5129
0.721215 -0.671618 20.8573
2.02804 -1.31189 20.3902
-0.151491 -0.059753 18.1809
0.371277 -0.305987 21.2715
-0.702978 0.468404 13.9653
-0.00283757 -0.227671 21.2852
-0.699105 1.4112 11.7149
-1.08646 0.441164 20.56
-1.43586 0.974653 13.1089
-1.37277 1.20733 10.0087
-1.31297 0.410455 19.7065
-1.80381 0.463551 13.1331
-0.91626 0.216111 20.6951
0.559216 -0.123759 19.0176
0.67411 -0.224162 19.4087
-1.64745 0.703153 11.1586
-1.56079 -0.133805 8.91379
-1.59952 -0.0393314 19.2708
-1.53404 -0.152282 13.1013
-1.2246 -0.0517118 20.5297
0.418573 0.28295 19.2597
0.600988 0.0467304 19.3759
-1.27264 -0.877788 15.239
-0.578838 -0.940921 20.0109
-1.11578 -0.673847 20.0949
-0.344083 -0.658655 20.4234
-0.57301 -0.50409 20.8754
0.644187 0.80136 19.2684
0.378931 0.275802 19.6682
1.34807 1.82445 20.3368
1.10921 0.938888 19.7665
1.30624 1.22755 21.424
1.22697 0.738657 20.8569
0.0316073 -0.112455 21.5932
0.508145 0.243553 21.3899
-0.223948 -0.661842 21.0853
-0.190924 -0.376711 21.1732
-0.215156 -0.699778 20.7547
-0.340392 -0.538172 20.8056
-0.324605 -0.446643 20.1426
0.96318 -0.378865 19.9181
0.605655 -0.165935 19.7478
0.877398 -0.404276 20.9176
1.41213 -0.476099 20.3323
0.248089 -0.183456 21.0773
0.510288 -0.259605 21.0441
-0.238659 -0.00640167 21.2091
0.077558 -0.139719 21.1487
-0.768336 0.122548 20.921
-0.654459 0.0370655 21.101
-0.751515 0.0207432 21.2128
-0.888098 0.0310966 20.6559
-0.697396 -0.118993 19.9531
1.10702 -0.234626 19.7533
0.601839 -0.0448488 19.6695
1.12122 -0.35819 20.9826
1.71824 -0.159532 20.1187
0.313808 -0.218523 21.0917
0.700745 -0.25488 21.0888
-0.260566 -0.0771774 21.2929
0.199659 -0.174137 21.209
-0.842251 -0.0375001 20.9092
-0.672993 -0.170411 21.122
-0.791713 -0.130945 21.6199
-0.878696 -0.217277 20.6371
-0.639064 -0.251138 20.0076
1.09771 0.0802366 19.6242
0.488001 0.162138 19.7239
1.46281 0.0520378 20.8482
1.31491 0.459209 19.9731
0.568585 -0.198752 21.1285
0.997526 0.128437 20.9395
-0.151987 -0.192308 21.3665
0.381221 -0.0486006 21.2271
-0.722943 -0.34689 20.9516
-0.34561 -0.34271 21.1091
-0.683537 -0.389457 20.9995
-0.515494 -0.41017 20.827
-0.354747 -0.368007 20.3535
0.621162 0.347482 19.8388
1.01159 0.53565 20.4792
0.680232 0.210706 21.0265
0.0577226 -0.100276 21.1973
-0.268955 -0.360342 20.9471
-0.327428 -0.342705 20.5178
-1.04958 -0.325547 19.8174
-1.56798 -1.3832 18.2723
-1.31701 -0.787778 19.4354
-1.51723 -0.543716 19.148
-0.646386 -0.263842 19.4724
-2.58965 -1.4404 20.2536
-1.03551 -0.402503 20.973
0.194669 -0.150581 13.1467
-1.07729 -0.830164 21.4344
-1.63272 -0.864488 21.6964
-0.316155 -0.339664 21.3498
-0.274956 -0.204685 21.0768
0.594951 -0.23424 9.83061
-0.130526 -0.229187 21.1143
-0.128792 -0.339837 20.4939
-0.112366 -0.34908 20.9864
0.227958 -0.0352268 21.2846
0.0504621 0.204083 5.72924
0.457187 0.0349859 21.1072
0.369385 -0.137656 20.6153
1.28934 0.359784 19.7273
0.858594 0.0690027 20.9307
0.600101 1.30775 7.09006
1.29824 0.513451 20.0173
1.53914 0.147537 19.0343
1.45973 0.249344 19.3178
0.796366 -0.0486934 21.3776
1.61039 0.890363 11.6647
1.21507 0.294194 19.6641
1.35576 -0.000791447 18.4952
1.13841 0.0671652 20.6344
-1.08689 -0.0914925 19.6885
-1.66996 -0.385834 17.7298
-1.35175 0.137152 19.0303
-0.634451 -0.0760881 19.417
-3.7407 -0.402925 19.5065
-1.32792 -0.214775 20.944
-2.47713 0.0624285 21.4104
-0.478235 -0.605681 21.0229
-0.405764 -0.234612 21.1024
-0.794619 -0.782919 20.7961
-0.345153 -0.280222 20.3204
0.187089 -0.136027 21.3658
0.285551 -0.0769071 20.2002
1.43419 -0.145378 18.3941
0.848878 -0.208516 20.9575
0.866031 0.0991801 4.22569
1.16507 -0.684875 19.967
1.46331 -0.427739 19.554
0.745065 -0.283862 21.3924
1.69562 -0.345448 11.9829
0.881815 -0.55579 20.4256
1.012 -0.2513 20.7075
-0.822262 0.27737 19.7299
-0.958192 0.809242 18.6891
-0.693471 0.540944 19.5732
-0.473798 0.21641 19.551
-1.89273 1.05246 19.4848
-1.30757 0.374775 20.6172
-2.55265 2.48366 20.6847
-1.30737 1.00162 20.4401
-1.58682 0.201731 21.0634
-0.712098 0.00141302 21.0845
-2.51356 0.775317 20.8991
-0.993494 0.467422 21.1697
-0.694847 0.0280946 21.5137
-0.011934 -0.158337 21.2773
0.404997 0.00658209 19.256
-0.0836204 -0.0986433 21.3543
0.391728 -0.599208 21.208
0.472504 -0.40999 20.9394
0.516242 -0.866664 19.8061
0.283389 -0.499722 20.9774
0.542157 -0.72984 20.9462
0.455319 -0.454974 20.5747
0.437204 -0.876205 20.1254
0.324228 -0.537808 20.6733
0.468864 -0.568555 20.4576
1.60755 -1.40195 18.2765
0.0408286 -2.55787 17.6899
-0.00052117 -1.93201 16.3754
-0.00312543 -0.550185 18.689
-0.0780945 -8.02248 22.1968
0.00244612 -0.188213 14.492
0.0174353 -1.02906 17.7496
0.0123963 -0.143665 5.80908
-0.458573 -0.250005 11.2401
0.00223113 -0.149324 11.9823
0.0160859 0.0063544 4.83207
-0.103201 0.242756 6.29672
0.00564766 0.231417 6.85957
-0.0597743 -0.882302 -0.3347
-0.635809 1.31782 7.2687
-0.0179656 0.0213548 2.71139
0.0497417 -0.397088 -3.43723
0.059388 -0.79082 -1.57313
-1.57392 0.854233 11.8524
0.0272098 0.268637 4.66754
0.0282651 -0.486167 -1.9336
0.0495989 -0.410655 1.36755
1.69095 -0.397153 17.6202
-0.0285747 0.395653 16.5976
-0.0206447 -0.18417 18.5988
-0.86337 0.10493 4.40507
-0.0214961 -0.0458905 0.76274
0.0563723 -0.906662 -0.921588
-1.63586 -0.345143 12.0089
0.00504754 -1.07887 6.99102
0.0256893 -1.15377 3.80274
0.959124 0.828287 18.6507
-0.00194069 1.08856 18.921
-0.014201 0.348381 19.0147
0.00705808 4.12702 17.7404
2.51067 2.52822 20.6833
-0.00754017 2.76216 20.1258
-0.0158768 3.90639 18.9036
2.52868 0.800704 20.796
-0.0503358 2.91791 21.8714
7.23849e-05 -0.017185 10.3969
-0.488384 0.033188 18.9701
-0.0224041 -0.15147 21.6696
0.00820397 -0.675667 10.7057
-0.535481 -0.836061 19.6634
-0.00378508 -0.745343 21.3698
0.00256712 -1.14647 16.1945
-0.4397 -0.868267 19.932
0.00592252 -0.874251 20.7715
0.00152914 -0.94533 18.1066
1.05893 -0.333858 19.8352
1.32124 -0.773476 19.4813
1.56826 -0.563173 19.1196
0.665102 -0.280946 19.4515
2.46179 -1.35323 20.2701
1.00727 -0.390076 20.9526
1.04071 -0.750803 21.3561
1.59067 -0.879976 21.6709
0.36362 -0.357791 21.3251
0.280578 -0.201957 21.0842
0.162923 -0.24943 21.1834
0.195635 -0.359197 20.7502
0.072723 -0.312361 21.1873
-0.244937 -0.0363657 21.2473
-0.496245 0.067608 21.1945
-0.437357 -0.130436 20.7338
-1.2387 0.317667 19.7554
-0.833746 0.0472621 20.91
-1.27755 0.486517 20.0821
-1.51102 0.102624 19.4799
-1.42857 0.235975 19.3522
-0.771186 -0.0550591 21.4264
-1.19202 0.260991 19.6841
-1.31948 -0.00619204 18.4912
-1.08363 0.0768556 20.6011
1.13143 -0.110213 19.6651
1.40612 0.149346 18.9485
0.661591 -0.0811472 19.3727
3.81823 -0.395148 19.5129
1.33597 -0.225378 20.9596
2.63499 0.100567 21.447
0.517103 -0.602273 20.9761
0.417285 -0.230206 21.1094
0.82285 -0.74728 20.6063
0.335767 -0.273766 20.2942
-0.202115 -0.145135 21.3334
-0.281053 -0.127582 20.1755
-1.3862 -0.175895 18.7315
-0.82752 -0.206554 20.9238
-1.1235 -0.680201 19.9936
-1.44787 -0.428048 19.5366
-0.735498 -0.276429 21.447
-0.847879 -0.5233 20.5475
-0.959229 -0.259363 20.6905
0.852727 0.290329 19.705
0.704755 0.557004 19.5697
0.477756 0.227449 19.5248
1.90697 1.08493 19.482
1.34149 0.387551 20.6193
1.30673 1.02156 20.4444
1.59633 0.234943 21.0748
0.727022 0.00663421 21.1056
1.00484 0.516478 21.1975
0.706875 0.0490901 21.5208
-0.00353641 -0.169021 21.2798
0.075384 -0.098626 21.3742
-0.377955 -0.598724 21.2033
-0.476358 -0.417063 20.9396
-0.276109 -0.501208 20.9776
-0.547418 -0.726078 20.9306
-0.468208 -0.443391 20.5664
-0.320872 -0.53792 20.7426
-0.459362 -0.557303 20.4476
-1.42028 -0.695241 19.2764
-1.29579 -0.89662 21.5671
-0.131555 -0.29169 21.002
0.431289 -0.0732707 20.8008
1.42406 0.364803 19.2706
1.29281 0.131023 19.0365
-1.53752 -0.205047 19.0169
-2.09914 -0.459425 21.6895
-0.216862 -0.560304 20.3534
0.288502 -0.0852661 20.3298
1.51681 -0.296132 18.9934
1.17918 -0.237729 19.1292
-0.995354 0.480911 19.3213
-2.03727 0.910519 20.7447
-1.3035 0.0458268 21.3437
-0.0395059 -0.215718 21.524
0.507132 -0.700108 21.01
0.516052 -0.639361 20.5896
0.0186331 -2.36246 16.9955
0.0486378 -0.175645 7.71413
0.000895027 -0.0225827 4.91868
0.00367588 0.0330241 1.25
0.00769175 -0.291211 -2.15078
0.0267276 -0.0950444 1.32704
-0.0174489 -0.684333 15.8796
0.0342641 -0.102967 -2.84446
0.0166639 -0.907195 1.1738
-0.0106188 1.19973 18.0015
-0.0116911 4.1428 20.4269
-0.0472097 2.85338 15.2052
-0.00199309 -0.393239 7.99483
-0.00239812 -0.933648 14.6045
-0.00398872 -1.11091 17.1628
1.43669 -0.705517 19.2859
1.24622 -0.849077 21.5051
0.169671 -0.306694 21.0738
-0.490415 -0.0442507 20.9436
-1.38881 0.333386 19.3278
-1.2622 0.0955204 19.0325
1.57719 -0.212242 18.9617
2.15604 -0.497816 21.7305
0.26749 -0.52799 20.2671
-0.336854 -0.149372 20.391
-1.46813 -0.303039 19.1567
-1.15426 -0.237498 19.1015
1.0116 0.507133 19.2939
2.05947 0.950015 20.7517
1.335 0.0815563 21.3655
0.0436674 -0.214196 21.4984
-0.493872 -0.694713 20.9965
-0.51881 -0.62537 20.6372
-1.29872 -0.448424 0.612499
-0.00856741 -0.316813 0.34946
0.0875328 -0.00584481 0.659317
0 0 0
-0.323191 -0.178421 0.00388709
0.0189358 0.127795 0.479933
-2.20251 -0.208037 1.15528
-0.0951698 0.721738 0.85266
-0.519224 0.403888 1.90291
-0.0527151 0.0501452 0.0534989
-0.504389 0.384384 0.279291
-0.0065234 -0.0185911 0.291135
-0.0433157 -0.289452 0.904366
0 0 0
-0.0384332 -0.0254155 0.487953
0.188792 -0.092842 -0.0125012
0 0 0
-0.0925152 0.138943 1.32881
0.0422396 0.300427 0.351582
4.26652 -0.143413 2.4673
0.395658 0.363113 1.59823
0.502143 0.431121 0.257712
0 0 0
0.000739802 -0.016096 0.190122
-0.0070943 -0.00420177 0.393388
0 0 0
0 0 0
0 0 0
0.0243474 -0.0193543 0.372294
-0.0214904 -0.0547913 0.460075
-0.0107295 -0.00627157 0.0864467
0.0100139 9.11985e-06 0.106083
-0.0388255 -0.0245068 0.235837
4.76137e-18 -7.26324e-18 3.23901e-17
0.00130542 0.00418434 0.0903833
-0.0273398 0.00406312 0.0329979
0.0556262 0.0465681 0.258114
0 0 0
0.0900508 0.171564 0.517816
0.442238 -0.0306524 1.37453
0.0144194 0.00579323 0.366694
0 0 0
0 0 0
-2.44633e-18 -2.23449e-18 1.9648e-17
-0.0543182 -0.0081355 0.680766
0 0 0
0.0176 -0.187833 1.22504
0.00858839 -0.00177188 0.0688007
0.172546 -0.0791125 0.589093
0.0122469 0.00172644 0.0152716
0 0 0
-0.000904949 0.00186554 0.0370563
-0.00454448 0.00505619 0.0231108
-0.457427 -0.00994869 1.51821
0 0 0
-0.0665734 0.10269 0.34423
-0.00305867 -0.00191402 0.0148568
-0.648007 -1.595 0.799993
0 0 0
0 0 0
-7.13352e-05 -0.000217352 0.00316373
0.000119312 -2.5383e-05 0.00264053
0.0330234 -0.00292506 0.197956
-0.0525246 0.0162676 -0.00134848
0.00082725 0.00610387 0.16732
0.00310848 -0.0051906 -0.0113637
8.90605e-05 0.00463916 0.118769
0 0 0
0.00418123 -0.0827669 0.183682
-0.00254754 0.0273165 0.121908
-0.00171914 -0.00237132 0.0271152
-0.00658756 0.0231315 0.124998
0 0 0
0.00039753 -0.000682424 -0.0198526
0.0289711 0.0767981 0.978364
0 0 0
0.466036 -1.01859 0.67305
0.0276181 -0.0184901 0.118311
-6.40195e-05 -1.51401e-05 0.00166124
0 0 0
0.0176238 0.00684529 -0.000914067
-0.00254095 0.000402855 0.0136682
0 0 0
0 0 0
0.000775151 0.00203713 0.0113692
0.0235531 -0.0277072 0.272547
-1.05493e-18 8.74106e-19 1.70906e-17
-0.0249535 0.0755197 0.923784
-0.000306795 -0.000398402 0.0390197
0.000805734 -2.39274e-05 0.00573086
-0.00134 -0.00760957 0.193017
0.00657826 -0.0033488 0.322624
0 0 0
-4.93351e-07 -7.38686e-07 0.000112587
-0.0149701 0.104829 0.407594
0 0 0
0 0 0
-0.000805496 0.0169998 0.086601
0.0249291 0.0646248 0.402397
-0.0302326 0.0803404 0.920277
1.44717e-05 0.00112918 0.0108932
-0.00059257 0.0103983 0.0261035
-2.72216e-05 0.000443588 0.0233809
-2.66893e-05 0.000245453 -0.00472314
-0.000997315 -9.10165e-06 0.00793274
0.000360188 0.000753951 0.0308159
-0.00256682 -0.00370607 0.164469
-0.00340473 0.00247694 0.277391
0.00690126 0.0440655 0.212723
0.0186866 0.00496233 0.179733
0.0248426 0.080957 0.760576
-0.062498 0.104391 0.510294
-0.00767941 -0.00637492 0.0354191
-0.087539 -0.0228009 0.304588