# vtk DataFile Version 2.0
tri_press
ASCII
DATASET UNSTRUCTURED_GRID
POINTS 3682 float
-0.685 0.155 -1.82331
-0.715 0.365 1.96794
-0.655 0.475 -1.95232
-0.705 0.749408 1.955
0.695 0.155 -1.80825
0.735 0.365 1.97985
0.645 0.478829 -1.945
0.705 0.755 1.96874
-0.740571 0.179429 -0.55956
-0.818162 0.181838 0.70419
-0.758169 0.652972 -0.64988
-0.741536 0.711142 0.65256
0.759576 0.173757 -0.54555
0.839556 0.17711 0.71715
0.750897 0.656783 -0.64042
0.73445 0.712393 0.66416
-1.42764 -0.139811 -2.8127
-1.42512 -0.0712309 -1.78576
-1.47707 -0.0505743 -0.523297
-1.54102 -0.0380466 0.731035
-1.50984 0.0895147 1.99281
-1.48805 0.18255 3.01634
-1.48439 0.253569 4.04605
-1.42553 0.0635005 -2.86435
-1.4213 0.149072 -1.83288
-1.48657 0.189563 -0.562685
-1.54989 0.195039 0.70379
-1.48952 0.318959 1.9732
-1.47506 0.410421 2.99733
-1.47974 0.481257 4.02574
-1.42029 0.440946 -2.97787
-1.40803 0.524101 -1.94697
-1.48982 0.654819 -0.650186
-1.50478 0.697438 0.64901
-1.46935 0.74978 1.9449
-1.46806 0.840113 2.96757
-1.47902 0.922124 3.9897
-1.45015 1.09556 -3.11949
-1.45141 1.18842 -2.0834
-1.48431 1.31812 -0.773041
-1.50614 1.40846 0.545478
-1.50362 1.47121 1.85508
-1.50017 1.53089 2.88959
-1.50037 1.60041 3.91587
-0.708032 -0.136479 -2.80403
-0.688134 -0.0658969 -1.77574
-0.720263 -0.0559749 -0.517512
-0.78339 -0.0471114 0.732288
-0.757655 0.113887 1.99029
-0.739483 0.201152 3.01669
-0.73731 0.264319 4.04891
-0.713938 0.0614351 -2.85787
-0.728117 0.430382 2.99882
-0.734685 0.492019 4.02949
-0.71089 0.421197 -2.97754
-0.726609 0.846738 2.97482
-0.737177 0.92801 3.99626
-0.724666 1.08389 -3.11888
-0.717716 1.17828 -2.08324
-0.743629 1.31812 -0.770563
-0.764668 1.41278 0.551873
-0.763178 1.47331 1.86409
-0.759478 1.53205 2.89866
-0.758377 1.60179 3.92418
0.70838 -0.136465 -2.79091
0.734601 -0.066945 -1.76153
0.785112 -0.0601491 -0.503811
0.814248 -0.0508539 0.745225
0.746529 0.112904 2.00263
0.749029 0.201185 3.0292
0.754492 0.264581 4.06154
0.680707 0.0621148 -2.84518
0.741987 0.431219 3.01139
0.749177 0.492727 4.04217
0.660071 0.423326 -2.96726
0.725898 0.849436 2.98785
0.737774 0.929474 4.00905
0.706199 1.08555 -3.10819
0.724108 1.18015 -2.07273
0.72954 1.31974 -0.759582
0.718474 1.41411 0.563669
0.7141 1.47495 1.87651
0.717811 1.53364 2.91127
0.723206 1.60305 3.9368
1.42901 -0.139804 -2.78709
1.45702 -0.0728062 -1.75908
1.52542 -0.0559938 -0.49691
1.57593 -0.0433186 0.756737
1.52422 0.0877767 2.01799
1.50597 0.182462 3.04155
1.50562 0.253937 4.07133
1.39996 0.0646709 -2.83953
1.42413 0.149327 -1.80682
1.5033 0.184935 -0.536781
1.57377 0.190279 0.729388
1.51481 0.3188 1.9985
1.49485 0.411606 3.02266
1.49753 0.482386 4.0511
1.37644 0.444301 -2.95613
1.39063 0.528519 -1.92631
1.47924 0.657187 -0.627956
1.501 0.697973 0.673379
1.47598 0.754156 1.97094
1.47279 0.843831 2.99336
1.48216 0.924529 4.0152
1.42457 1.0985 -3.09771
1.44469 1.19162 -2.06182
1.46417 1.32084 -0.750671
1.46371 1.41072 0.569202
1.45955 1.47394 1.87986
1.46171 1.53361 2.91472
1.46702 1.60265 3.94104
-0.653723 0.315 -1.87154
0.005 0.15273 -1.81805
-0.735857 0.144143 -1.19144
-0.678829 0.557204 1.9303
0.01 0.430775 1.90812
-0.840114 0.199886 1.33607
-0.005 0.483528 -1.95527
-0.794023 0.651425 -1.3011
0 0.754088 1.96375
-0.740238 0.747245 1.30378
0.65709 0.316914 -1.86372
0.747896 0.143771 -1.1769
0.68154 0.56 1.93583
0.84596 0.212374 1.3485
0.781997 0.651855 -1.29271
0.733581 0.747552 1.31645
-0.751433 0.208567 0.072315
-0.80062 0.4162 -0.60472
0.00950245 0.11898 -0.552555
-0.845894 0.44649 0.678375
0.0106972 0.113643 0.71067
-0.731506 0.66371 0.00134003
-0.00363597 0.799098 -0.64515
-0.00354304 1.02279 0.65836
0.769086 0.205914 0.0858001
0.805226 0.41527 -0.592985
0.847704 0.444752 0.690655
0.725542 0.667456 0.01187
-0.844189 0.3656 -1.24627
0.853943 0.366092 -1.23481
0.00725122 0.139597 -1.18417
-0.00431798 0.681129 -1.29691
0 0.315957 -1.79936
-0.803217 0.431345 0.0368275
0.809135 0.430011 0.048835
0.0100998 0.1151 0.0790575
-0.00358951 1.03634 0.006605
-0.895518 0.501847 1.31992
0.895479 0.502376 1.33248
0.0103486 0.146664 1.34228
-0.00177152 0.746488 1.31012
0.00500001 0.558602 1.9127
-0.645849 0.235 -1.82391
-0.34 0.152904 -1.82164
-0.712168 0.147832 -1.50737
-0.663373 0.461102 1.91558
-0.3525 0.368049 1.96787
-0.821192 0.238808 1.652
-0.644815 0.395 -1.90238
-0.33 0.482679 -1.95721
-0.745977 0.584677 -1.62671
-0.690831 0.653306 1.94157
-0.3525 0.753596 1.96123
-0.714679 0.740386 1.62939
0.35 0.152854 -1.81416
0.653767 0.235957 -1.8137
0.723786 0.147047 -1.49257
0.3725 0.368871 1.973
0.675605 0.4625 1.92518
0.839382 0.239785 1.66418
0.32 0.483076 -1.95203
0.652924 0.397872 -1.90624
0.73277 0.584613 -1.61886
0.3525 0.754563 1.96627
0.677449 0.6575 1.93647
0.708398 0.740384 1.6426
-0.764661 0.135339 -0.875498
-0.741439 0.198561 -0.243623
-0.781219 0.292503 -0.58214
-0.378882 0.12251 -0.556058
-0.834796 0.185204 1.02013
-0.77553 0.20447 0.388253
-0.844437 0.307959 0.691283
-0.408867 0.137472 0.70743
-0.799456 0.675558 -0.97549
-0.794901 0.542339 -0.6273
-0.731305 0.644809 -0.32427
-0.399905 0.76404 -0.647515
-0.744739 0.733045 0.97817
-0.801317 0.582617 0.665468
-0.735516 0.68642 0.32695
-0.44082 1.00353 0.65546
0.772918 0.139582 -0.861225
0.396444 0.122558 -0.549053
0.759798 0.194368 -0.229875
0.789716 0.290856 -0.569268
0.83885 0.19865 1.03283
0.427863 0.139903 0.71391
0.800584 0.19525 0.401475
0.862944 0.301274 0.703903
0.790412 0.678284 -0.966565
0.392252 0.765183 -0.642785
0.795371 0.544681 -0.616703
0.725267 0.649167 -0.314275
0.737343 0.7333 0.990305
0.433654 1.00399 0.66126
0.785702 0.575885 0.677408
0.729435 0.689364 0.338015
-0.80929 0.3403 -1.5589
-0.326862 0.315479 -1.88467
0.00612561 0.146132 -1.50111
0.0025 0.234343 -1.85929
-0.838349 0.254871 -1.21885
-0.364303 0.139397 -1.1878
-0.867327 0.529525 1.62511
-0.336914 0.557903 1.9129
0.0101743 0.148499 1.6252
0.00750002 0.494689 1.92492
-0.896666 0.350866 1.32799
-0.414883 0.201628 1.33917
-0.00465899 0.605212 -1.62609
-0.0025 0.399742 -1.94806
-0.84681 0.508512 -1.27368
-0.399171 0.673766 -1.299
-0.000885761 0.755713 1.63693
0.00250001 0.656345 1.88275
-0.893665 0.624546 1.31185
-0.371005 0.743149 1.30695
0.809694 0.341503 -1.54926
0.328545 0.316436 -1.87536
0.836812 0.254932 -1.20585
0.377574 0.1394 -1.18053
0.865039 0.531188 1.63415
0.34327 0.559301 1.91578
0.887824 0.357375 1.34049
0.428154 0.202558 1.34539
0.855775 0.508974 -1.26376
0.38884 0.673768 -1.29481
0.89306 0.624964 1.32446
0.365905 0.742826 1.31328
-0.788969 0.314134 0.0545712
-0.392509 0.118148 0.0756862
-0.849658 0.3909 -0.925494
-0.800327 0.423773 -0.283946
0.00837684 0.132992 -0.868361
0.00980114 0.117036 -0.236749
-0.809852 0.438918 0.357601
-0.886697 0.474168 0.999149
0.0103985 0.118354 0.394864
0.0105229 0.11165 1.02648
-0.794532 0.561113 0.0190838
-0.445011 1.00495 0.00397252
-0.00397698 0.720188 -0.971028
-0.00361274 0.942738 -0.319273
-0.00356627 1.04501 0.332483
-0.00265728 0.749518 0.984238
0.798938 0.313049 0.0673175
0.410756 0.118181 0.0824288
0.855215 0.390681 -0.913895
0.805435 0.422641 -0.272075
0.815194 0.437381 0.369745
0.892163 0.473564 1.01157
0.795305 0.562717 0.0303525
0.438019 1.00598 0.00923748
-0.799467 0.244936 -1.53314
-0.842643 0.276343 -0.900496
-0.849784 0.521549 -0.950492
-0.810955 0.451756 -1.59281
0.801551 0.245444 -1.52092
0.805715 0.453423 -1.58406
0.857833 0.5225 -0.94023
0.846643 0.274723 -0.88756
-0.352152 0.146285 -1.50424
0.363787 0.146273 -1.49684
0.381056 0.132449 -0.864793
-0.364919 0.132453 -0.871929
-0.364585 0.600986 -1.6264
-0.390037 0.710861 -0.973259
0.381235 0.71102 -0.968796
0.35442 0.60093 -1.62247
-0.333431 0.234672 -1.85221
-0.328431 0.397371 -1.91027
0.324273 0.398807 -1.91821
0.339273 0.23515 -1.84618
-0.783552 0.304089 -0.263784
-0.795749 0.321524 0.372927
-0.796221 0.571013 0.342276
-0.787771 0.548253 -0.304108
0.792619 0.302807 -0.250975
0.788319 0.55019 -0.293175
0.795371 0.571735 0.35388
0.798116 0.323574 0.38561
-0.386873 0.117974 -0.240186
0.404646 0.118279 -0.233312
0.422136 0.123388 0.398169
-0.402914 0.123357 0.391558
-0.436861 0.913301 -0.321771
-0.447566 1.01354 0.329716
0.440788 1.01489 0.335249
0.429338 0.913987 -0.316774
-0.890922 0.332515 1.00964
-0.869095 0.405984 1.63856
-0.840079 0.638926 1.62725
-0.876261 0.601681 0.988659
0.887351 0.334153 1.0222
0.878691 0.601768 1.00094
0.836739 0.641232 1.63837
0.869403 0.409937 1.64916
-0.409308 0.15234 1.0233
0.42664 0.152959 1.02965
0.400327 0.22494 1.64469
-0.383691 0.229757 1.6386
-0.371772 0.745087 0.981204
-0.361752 0.753546 1.63316
0.359202 0.753439 1.63976
0.365679 0.744445 0.987271
-0.344707 0.477895 1.92041
0.357885 0.478594 1.92398
0.347885 0.656923 1.88626
-0.344707 0.654826 1.88413
-0.668128 0.195 -1.82631
-0.5125 0.153081 -1.82335
-0.700615 0.149385 -1.66534
-0.723228 0.413051 1.9758
-0.53375 0.364611 1.96982
-0.785131 0.284869 1.80997
-0.658876 0.435 -1.93632
-0.4925 0.47995 -1.95588
-0.709548 0.538899 -1.78951
-0.706596 0.701357 1.95696
-0.52875 0.753461 1.96007
-0.697576 0.732633 1.7922
0.5225 0.153015 -1.81212
0.676943 0.195479 -1.81354
0.71123 0.149187 -1.65041
0.55375 0.365608 1.97775
0.74078 0.41375 1.98799
0.80656 0.283024 1.82201
0.4825 0.481205 -1.94877
0.652308 0.43835 -1.92896
0.697901 0.540737 -1.78193
0.52875 0.754728 1.96745
0.706193 0.70625 1.96757
0.692145 0.733137 1.80567
-0.774985 0.135015 -0.717529
-0.737445 0.192555 -0.401591
-0.767376 0.232725 -0.57085
-0.574885 0.120653 -0.557809
-0.833987 0.176013 0.862159
-0.798201 0.191799 0.546221
-0.836521 0.242288 0.697736
-0.628532 0.129619 0.70581
-0.781802 0.667255 -0.812685
-0.784936 0.601856 -0.63859
-0.740532 0.644685 -0.487075
-0.574901 0.700233 -0.648698
-0.743837 0.722792 0.815365
-0.739088 0.63071 0.659014
-0.738083 0.698338 0.489755
-0.584431 0.84384 0.65401
0.787733 0.135184 -0.703388
0.590771 0.122636 -0.547301
0.75564 0.18811 -0.387713
0.777454 0.230903 -0.557409
0.855493 0.17159 0.874988
0.648211 0.129505 0.71553
0.821576 0.184674 0.559313
0.85778 0.235928 0.710526
0.771628 0.668507 -0.803493
0.568953 0.705739 -0.641603
[...]
POINT_DATA 3682
SCALARS point_scalars float 1
LOOKUP_TABLE default
-48.1879
-30.3018
82.894
-32.7471
-46.978
-30.4355
73.0778
-36.0915
-31.8227
-26.4484
-35.9917
-37.7148
-30.0895
-29.999
-35.1626
-38.6214
-44.5591
-68.5892
-47.9954
-37.8152
-46.5185
-30.0599
-30.0599
85.9876
-65.1634
-48.8655
-34.3296
-50.1446
-30.9936
-30.0599
81.8779
-33.4608
-43.1121
-24.7554
-40.895
-32.1113
-32.1113
81.8779
-15.0656
-48.517
-34.5306
-39.4745
-32.1113
-32.1113
147.448
-145.836
-32.9262
-34.5867
-34.9232
-29.2793
-29.0815
168.885
-29.1293
-29.0815
168.885
-32.1113
-32.1113
168.885
2.81591
-33.8415
-55.8269
-32.6867
-32.1113
-32.1113
12.9739
-128.562
-30.3093
-36.9864
-35.3493
-29.8086
-29.8086
16.4738
-29.8086
-29.8086
20.1737
-36.1809
-34.9289
89.397
8.84172
-16.7917
-57.6545
-30.8879
-36.3246
-36.3246
12.9739
5.74666
-45.5764
-40.5755
-43.7299
-29.8086
-29.8086
16.6179
10.686
-43.4243
-35.6727
-42.5841
-29.8086
-29.8086
20.1737
11.4019
-45.591
-24.0084
-41.0841
-36.3246
-36.3246
20.1737
-14.2799
-51.4922
-43.2214
-38.3018
-36.3246
-36.3246
77.3776
-222.02
-48.0298
-29.7549
-22.5517
-39.1296
51.9059
-40.3819
-26.1747
-45.3135
70.0736
-47.74
-29.6933
-38.9956
-39.6629
-45.4384
-23.4457
-32.6347
-35.5591
-19.8919
-33.8137
-36.0196
12.8042
-57.6591
-24.3238
-31.709
-22.8761
-36.4513
-56.5749
-61.1334
-54.087
-30.2268
187.449
-25.2717
-25.6093
-33.5383
-85.3265
-45.6446
-44.4462
-32.2286
-42.1208
-23.2667
79.0494
-159.077
-72.8208
-29.2866
-26.5388
-46.3277
84.2034
61.4422
-21.1841
-31.7151
-27.8419
-38.2837
-156.83
68.9755
-69.5125
-26.2788
-29.379
-40.2346
55.8102
79.3478
-20.5898
-27.6528
-30.5707
-37.7232
-39.3967
-25.5815
-31.9472
-35.2178
-40.502
-18.6587
-21.2306
-33.7544
-48.8473
-33.2438
-34.2212
-2.98348
-45.9617
-21.2608
-35.0991
-57.5259
-39.2844
-34.9856
-25.1006
-30.994
-36.7648
-34.3377
-19.1942
-25.9243
-50.9439
-2.58138
-32.0726
-35.0496
-44.9038
-57.7417
-22.0145
-35.7646
-60.4991
175.93
-82.6297
145.55
-53.7339
-53.2849
-47.0488
-26.0739
-32.0371
-22.1595
-43.6109
-33.6305
-25.0692
198.109
-57.9711
-29.1155
-33.5004
-24.9801
-47.6126
-42.1417
-56.0782
177.788
-55.5277
-52.9534
-44.887
-25.8421
-42.3667
-33.7092
-65.9277
-30.6826
-47.2627
-42.2006
-23.5214
-32.0016
-45.2032
-26.3419
-40.3003
-33.6738
-21.382
-37.9962
-33.0784
-38.2171
-30.5836
-70.5079
-13.8385
-21.6568
-69.8702
-48.5208
-23.957
-32.382
-48.1768
-26.3762
-22.4592
-37.1606
-31.2243
-69.3618
-62.2488
-44.3159
-49.4641
-50.9708
-59.299
-49.4262
-49.1769
-46.3234
-83.8567
-82.5098
-39.549
-39.8261
-26.217
-25.0781
-24.5579
-24.6202
119.539
180.887
179.811
130.081
-25.2171
-18.2973
-29.2491
-28.7323
-25.2619
-28.9142
-30.3833
-18.9538
-32.5088
-32.221
-33.7829
-33.3036
-33.3308
-58.8702
-58.9673
-32.5334
-42.4476
-49.3518
-43.8156
-37.6277
-39.2567
-36.6137
-42.9274
-44.3758
-37.1595
-35.8785
-33.2075
-33.1747
-48.3249
-33.6601
-33.7719
-48.2476
-25.9486
-25.7464
-26.1556
-26.3959
24.762
-2.51924
-98.8461
-30.5488
-28.63
-37.0069
85.4253
80.6131
-3.67394
-33.1205
-29.863
-33.3005
-5.35374
4.97247
-94.7748
-28.5031
-30.6248
-38.567
74.516
85.8953
-1.72039
-29.6907
-34.3986
-32.6969
-46.2112
-26.3184
-31.122
-34.4965
-39.0389
-21.7588
-22.469
-33.7437
-42.3508
-35.5886
-33.1308
-24.9393
-46.3399
-23.4877
-35.4948
-44.8842
-43.5774
-33.5741
-26.0684
-29.9564
-49.2111
-34.9767
-23.2381
-27.1261
-41.9588
-27.6163
-34.3249
-32.1957
-45.9954
-45.3754
-24.8284
-35.2904
70.6553
91.1739
-76.0483
160.94
-213.776
-203.432
-114.119
71.8204
-56.721
-40.2058
-52.0663
-50.9833
-29.49
-30.5076
-39.3899
-27.6493
-23.9621
-23.7307
-28.7681
-22.0991
-41.7571
-39.1043
-42.1299
-34.8814
53.8963
51.0579
-3.63198
181.497
-34.1635
-51.6733
-56.374
-29.0522
-26.6288
-26.5123
-29.8262
-24.6296
-42.4222
-46.2585
-47.5988
-44.1137
57.4364
82.2257
-70.7043
162.445
-57.4408
-41.3349
-52.8039
-50.4454
-29.5122
-30.3121
-39.6388
-27.4923
-41.3266
-36.7108
-41.7965
-34.0237
-27.5478
-52.1575
-58.9307
-29.6879
-41.6223
-46.3445
-47.3833
-43.6397
-25.1854
-21.416
-23.267
-29.2837
-32.7434
-32.6443
-46.0672
-27.8435
-35.4522
-35.3545
-36.7593
-34.5404
-20.4961
-19.2676
-17.8819
-27.128
-32.8748
-32.7383
-33.4662
-34.7178
-36.9842
-35.6307
-34.6217
-49.4923
10.8422
10.395
2.59174
5.81739
-58.9529
-58.8198
-64.6298
-49.7068
-24.681
-21.4389
-23.8666
-30.7143
-31.5532
-31.4194
-43.708
-27.4277
-24.4832
-21.3619
-20.6042
-30.5292
-37.1913
-36.0945
-34.5403
-49.8391
-64.1234
-55.2043
-58.0602
-51.1057
-62.9919
-58.6007
-63.8014
-50.0864
-66.3866
-54.0804
-54.1457
-45.727
-17.9402
-31.415
-30.8317
-26.0348
184.457
175.307
182.745
183.166
-24.2525
-25.6852
-23.7022
-27.2288
-24.7371
-26.0154
-24.1597
-27.5412
-33.3159
-33.3337
-33.7061
-33.4265
-83.0329
-63.0249
-77.9365
-83.2359
-48.8494
-45.0065
-46.2292
-44.4294
-47.542
-43.2471
-45.4452
-42.7601
-31.9433
-33.2228
-33.4222
-33.0046
-37.7977
-41.9787
-41.9833
-45.8811
-24.405
-22.602
-24.5144
-24.1366
-84.1373
100.843
-117.72
65.2632
-64.7943
-83.0205
-38.2617
-27.5485
-30.0703
-25.3961
-50.2651
-40.1662
-43.4862
162.782
-3.2061
181.743
-39.5429
-36.1465
-38.901
-28.4529
-30.0812
-26.8063
-41.3688
-34.9101
-116.618
67.975
-74.4055
100.043
-62.0345
-80.9552
-30.1584
-24.8896
-39.6707
-27.5162
-42.4963
-39.1962
-3.19197
182.58
-37.2341
156.714
-37.1319
-32.7807
-29.8374
-26.6157
-38.5787
-28.2908
-40.5629
-34.8376
-43.1819
-38.7955
-25.2155
-30.8164
-46.8455
-26.8537
-36.5459
-33.3897
-43.9171
-37.1275
-17.0509
-30.5521
-17.4983
-24.4962
-33.3612
-38.0426
-50.8539
-37.133
-43.2352
-29.2636
-31.5788
-43.1344
-13.989
-7.31532
-41.9301
-53.5695
-28.4151
-32.2238
-31.254
-45.0724
-58.4958
-49.9958
-45.0617
-38.2578
-36.4415
-33.0716
-25.0986
-29.7837
-43.5543
-26.3324
-38.6449
-37.0941
-33.438
-37.6784
-17.4361
-30.753
-19.8607
-36.0078
-53.1643
-36.6878
-13.1036
-6.05076
-44.5471
-28.8951
-31.9639
-44.7524
-41.052
-52.8914
-58.3194
-50.0343
-29.7107
-32.0921
-32.0349
-44.8894
-61.6625
-55.738
152.054
183.112
-84.2458
-84.0005
158.899
159.094
-64.1762
-48.4492
-65.9114
-45.093
-48.1911
-45.8042
-26.1188
-26.2672
-31.2462
-31.423
-23.4454
-23.3211
-43.1119
-46.1588
-34.0988
-33.7975
-26.4234
-22.5248
190.195
191.766
-52.9513
-62.4052
-25.6717
-34.0644
-33.3276
-33.2394
-25.4786
-25.6623
-48.6225
-43.0367
-46.0751
-38.0662
-57.9363
-52.6571
182.325
157.161
-64.6804
-47.8514
-65.351
-44.8474
-44.5995
-45.3032
-25.8551
-26.0398
-40.4684
-45.4
-33.908
-33.3263
-52.5881
-53.7446
-33.179
-25.2813
-41.9182
-46.6437
-37.7436
-45.8439
-24.4398
-21.88
-32.0304
-32.4874
-44.9519
-47.372
-25.6251
-27.2034
-40.2553
-40.2599
-33.4837
-33.4144
-19.7613
-24.5355
-39.9369
-36.332
-35.953
-35.6287
-35.1154
-34.9546
-30.493
-29.5701
-63.3519
-63.0376
-17.3796
-17.1874
-19.6884
-19.9494
-67.7809
-67.7856
-48.6939
-48.6504
-24.6756
-22.3884
-32.1014
-32.7144
-48.9501
-47.4833
-25.7267
-27.2469
-25.7323
-20.3467
-37.8316
-36.0482
-29.9894
-31.0252
-63.0387
-63.3195
-89.1583
-61.3773
-64.884
-85.3054
-48.2168
-46.3416
-50.3271
-46.4377
-44.4187
-54.4514
-51.7008
-44.9946
-27.5637
-57.0599
-63.4819
-56.0599
-83.1768
-75.94
-64.5099
-62.2337
-19.034
-44.6676
-58.9252
-50.7173
-43.9187
-44.2577
-51.4975
-56.8962
-45.7609
-45.9169
-49.1416
-43.4615
-117.721
-115.252
-66.5248
-62.8412
-115.383
-62.2403
-66.5088
-115.346
-36.0646
-36.731
-45.6974
-43.0761
-35.9662
-43.1108
-45.716
-36.7416
1.02382
-23.7253
-17.8209
-3.80304
-27.6688
-1.06509
-28.1513
-45.344
-27.4781
-44.6368
-27.7755
-0.95325
-0.450805
-3.52952
-21.4026
-23.6567
38.2218
120.83
182.107
44.8417
180.816
181.625
184.442
168.147
182.681
166.474
183.357
182.173
27.8972
35.8484
183.662
127.112
-26.432
-24.3565
-24.8717
-27.2028
-18.2548
-17.5542
-22.6825
-21.45
-28.9512
-32.7339
-26.1855
-20.0297
-31.5922
-28.1901
-26.9731
-33.1552
-26.0207
-26.8288
-25.2199
-24.4722
-31.7338
-33.6325
-27.4314
-27.7906
-29.8919
-22.5354
-26.8308
-32.9547
-19.8526
-21.764
-23.133
-20.2778
-31.5153
-34.1343
-33.0844
-30.2965
-31.0444
-30.3827
-33.1265
-34.0464
-32.0424
-33.5856
-33.8181
-30.3872
-31.337
-29.5041
-33.7654
-33.2787
-34.4471
-51.5329
-62.0605
5.53
-48.2344
-63.4283
-75.2161
-46.3762
-47.3446
-46.4807
-75.4473
-63.2854
-35.1693
4.68574
-60.2545
-51.6118
-28.3208
-41.8232
-44.0925
-25.7039
-37.9225
-38.9584
-47.9837
-43.7084
-36.5854
-44.7273
-49.407
-39.3213
-42.4846
-28.6908
-44.2714
-44.078
-42.5553
-32.8129
-41.9968
-38.3875
-41.6057
-44.0808
-43.2812
-29.531
-36.1139
-39.4654
-47.3478
-43.6166
-40.6227
-43.0358
-46.7326
-39.5512
-41.3305
-37.6772
-33.713
-34.6297
-41.4028
-33.9502
-32.9846
-37.2538
-33.0255
-29.3505
-32.9102
-36.4032
-33.1233
-36.8215
-32.9685
-29.5235
-41.3335
-46.7437
-45.9125
-49.8035
-31.4414
-29.6816
-37.7052
-41.0005
-30.9497
-39.346
-37.6061
-29.5989
-41.3272
-49.9893
-45.8259
-47.2543
-27.7211
-23.7936
-23.8456
-27.7396
-27.7617
-27.5456
-23.5746
-23.5114
-28.148
-25.5984
-25.1099
-27.6514
-28.2372
-27.8722
-25.328
-25.8371
-18.0781
-35.1084
-131.599
-30.3033
-29.2597
-32.1036
93.8429
92.6674
10.5464
-33.151
-30.9536
-33.5823
-47.7791
-39.1734
-120.24
-29.0841
-30.4175
-32.3406
82.9616
79.8076
7.95799
-31.367
-34.5317
-31.2626
-40.3585
-28.7013
-30.9935
-34.2071
-31.8693
-23.3314
-23.905
-33.9239
-38.9914
-36.2657
-34.1339
-32.5955
-43.74
-26.4447
-35.1922
-44.9395
-38.2287
-31.5484
-28.3228
-29.8587
-37.4975
-34.8397
-27.1192
-28.6083
-38.3487
-34.9717
-35.0434
-32.0947
-43.9063
-45.1501
-28.5347
-34.4407
68.1267
98.2464
-51.2758
150.598
-222.227
-215.953
-140.451
-47.3477
-51.6995
-44.2141
-51.0276
-49.3102
-29.1627
-30.0765
-36.0829
-27.7783
-22.9809
-22.6599
-26.9124
-22.2393
-40.027
-38.9257
-40.911
-36.5742
52.0653
50.8512
-0.668848
154.672
-41.4138
-48.2374
-50.9244
-35.9557
-26.2976
-26.237
-27.4637
-25.6914
-44.2257
-46.2242
-46.3946
-44.9251
60.3225
78.0393
-40.8623
152.758
-52.3315
-43.0383
-51.6265
-48.6692
-29.1205
-29.9578
-35.885
-27.8267
-41.2202
-37.3243
-40.7038
-35.6199
-37.9012
-45.2534
-46.9374
-36.9802
-43.6624
-46.1576
-45.8709
-44.4523
-24.2388
-22.0082
-23.3426
-26.7788
-32.4112
-32.5569
-38.6252
-29.6499
-35.5549
-35.5099
-35.7541
-35.206
-20.2915
-19.6471
-18.8921
-23.5087
-33.4155
-33.5317
-33.5435
-34.2594
-36.5329
-35.8107
-34.8237
-42.119
12.366
11.519
9.07434
10.8617
-57.9847
-57.9134
-60.5553
-49.3563
-24.6686
-22.3021
-24.172
-28.4819
-31.4029
-31.5187
-36.5514
-28.9723
-24.0357
-21.9422
-21.5577
-26.1963
-36.6947
-36.2965
-35.1084
-42.2501
-62.0956
-55.7921
-57.5799
-51.4599
-64.9271
-60.1804
-62.7995
-54.1912
-59.8021
-54.0532
-53.999
-49.2737
-25.0121
-30.7034
-30.2927
-28.9853
184.961
182.567
186.242
184.208
-24.7034
-25.4546
-24.6306
-26.1222
-25.1393
-25.8868
-25.1634
-26.4032
-33.4635
-33.3602
-33.9548
-33.5018
-84.8595
-82.3379
-82.4192
-84.8512
-48.1541
-45.3999
-45.9799
-44.5714
-47.3247
-43.8072
-44.999
-42.9624
-32.0842
-32.5296
-32.5776
-32.3195
-40.0721
-41.9347
-42.1722
-43.7696
-23.6176
-22.9361
-23.8335
-23.4639
67.8039
86.9106
-91.6153
131.904
-42.041
-193.311
-156.004
19.6716
-82.0397
-64.6236
-71.3953
-77.4091
-29.7524
-29.2767
-35.7097
-28.1746
-28.0347
-24.4857
-28.5752
-25.6753
-39.9752
-49.5653
-48.3657
-42.6294
80.0074
85.6197
-17.3053
154.427
69.5152
56.9654
1.21382
158.036
-20.1754
-28.4776
-28.8272
-30.331
-32.0372
-31.0692
-36.5457
-28.9105
-28.2569
-27.2275
-28.2526
-27.9785
-36.0429
-40.2366
-40.3319
-36.2614
-30.0892
-189.794
-154.044
22.8039
55.8323
80.17
-81.1274
133.322
-78.2557
-63.4694
-65.2194
-75.4624
-27.8547
-24.2142
-28.7997
-25.6011
-29.8103
-29.3474
-35.7683
-28.0696
-41.3067
-39.1675
-40.6115
-41.5733
63.3025
52.5834
1.77414
156.106
82.318
85.4461
-25.039
145.314
-15.4726
-28.0274
-26.042
-29.7835
-28.0484
-27.065
-28.0074
-27.1952
-33.0752
-30.4838
-36.5086
-28.807
-35.1069
-39.7514
-39.4897
-36.188
-39.386
-37.4602
-42.3073
-38.4619
-26.0261
-25.2908
-25.4395
-27.784
-31.3393
-32.1398
-38.7431
-28.5192
-35.0302
-35.23
-36.0616
-34.1465
-42.7847
-39.3475
-43
-36.4687
-19.1691
-19.3328
-17.4099
-26.8481
-21.8263
-20.9028
-19.2439
-23.8102
-33.8321
-33.5645
-34.4901
-35.0797
-45.9283
-51.6806
-51.2801
-43.1459
-34.3637
-32.7365
-40.1184
-30.3172
-33.7795
-36.1406
-33.0337
-39.6443
-15.0462
6.53169
-7.7819
-2.03539
-45.3834
-45.8677
-44.4825
-45.9347
-23.0645
-19.568
-27.3513
-21.0408
-34.8385
-35.3252
-32.4473
-40.622
-48.0585
-60.8087
-56.6165
-55.7776
-38.8664
-40.1897
-43.7461
-37.1053
-34.6205
-35.083
-35.8758
-33.8253
-25.3903
-25.0937
-25.1153
-25.8049
-30.4881
-31.1348
-36.6151
-27.7404
-42.3097
-36.3987
-37.9063
-35.6457
-34.2454
-33.4751
-34.9793
-35.335
-19.7434
-18.5024
-17.2539
-27.454
-26.5367
-25.3098
-21.8008
-31.4398
-46.5953
-54.1006
-54.4703
-43.39
-14.6827
5.68748
-8.09946
-1.92666
-33.232
-31.6428
-37.7692
-29.7586
-34.792
-36.5263
-33.5316
-39.693
-44.431
-45.9854
-43.8022
-44.888
-49.289
-60.4362
-57.8944
-56.3836
-23.048
-22.189
-28.7463
-21.8776
-35.8789
-35.8785
-33.3187
-40.4778
-61.2524
-63.0976
-61.4352
-58.7399
160.241
184.446
165.501
184.707
-97.1616
-74.6539
-82.6476
-82.719
124.124
167.787
158.473
160.824
-52.7945
-54.4412
-60.9886
-50.5416
-52.4657
-53.7998
-59.083
-48.6241
-43.3438
-48.216
-47.6395
-46.4132
-27.0022
-25.358
-25.9839
-26.2004
-33.18
-32.0034
-31.9139
-32.1877
-22.1292
-22.2954
-22.5077
-22.2908
-42.8065
-44.3389
-42.7758
-46.2613
-33.6275
-33.3738
-34.6751
-33.768
-14.6562
-23.1191
-25.8441
-22.4327
185.785
183.181
194.455
195.2
-57.5888
-57.976
-53.664
-61.0726
-25.2622
-31.6232
-28.5817
-33.3843
-31.3804
-35.7136
-33.4988
-33.436
-24.8672
-24.8577
-25.0263
-25.1711
-48.4175
-46.6617
-49.6429
-44.6007
-42.4564
-41.9084
-43.9974
-40.1703
-56.4058
-59.5865
-57.367
-54.7726
163.4
183.079
183.995
169.699
-54.0765
-56.9257
-62.5963
-50.4179
-51.8519
-53.5856
-58.6425
-48.2795
-42.697
-46.3636
-44.7758
-45.1754
-26.6418
-25.0756
-25.7229
-25.9632
-42.1401
-42.6739
-41.0948
-44.7056
-33.3035
-33.6132
-34.2431
-33.6256
-64.2479
-64.154
-62.2049
-58.3256
-29.4135
-31.3686
-33.4405
-29.8386
-48.0219
-46.0875
-44.2669
-48.5352
-42.1679
-42.0505
-40.073
-43.9621
-23.3749
-23.8042
-23.967
-22.7568
-30.8454
-32.8043
-31.9108
-32.4535
-45.788
-48.0243
-45.1531
-45.6932
-26.8831
-25.9813
-25.9598
-26.7716
-38.2787
-42.9697
-40.2399
-40.2807
-34.0332
-33.4243
-33.6408
-33.6168
-19.3469
-22.7774
-20.3556
-22.628
-32.952
-41.8236
-38.9738
-37.3003
-33.2383
-33.2377
-33.3119
-33.6438
-35.6561
-36.0663
-37.17
-37.2747
-34.094
-28.6421
-31.0245
-29.9528
-61.8171
-79.5631
-72.4072
-66.1084
-6.00183
-20.8924
-14.7449
-14.5158
-7.10811
-39.9166
-21.2892
-21.2662
-67.1525
-73.6524
-69.3917
-69.3682
-49.3427
-47.3671
-48.6526
-48.6297
-23.7923
-24.2799
-24.3796
-23.3274
-31.4389
-33.1611
-32.1918
-32.8546
-46.6441
-48.2091
-48.4916
-47.8339
-26.7104
-26.199
-26.0306
-26.7849
-21.8474
-23.764
-23.9771
-21.2478
-32.0918
-42.63
-37.6037
-36.8463
-33.8558
-28.9591
-30.2968
-30.739
-59.5143
-80.3118
-65.7849
-72.7141
-66.3727
-62.6664
-61.8056
-60.7277
-43.8079
-45.4702
-45.7969
-44.5967
-49.4095
-29.1086
-50.8892
-48.6113
-45.5937
-49.1436
-52.4341
-60.4067
-64.6029
-59.8991
-58.7191
-61.4124
-39.0734
-44.4954
-50.5737
-51.6328
-50.7788
-48.2196
-50.9239
-49.2882
-46.0151
-45.759
-46.4992
-46.9485
-99.7583
-84.5146
-84.6308
-74.6021
-98.3621
-83.0558
-84.1976
-74.0016
-38.9278
-37.781
-42.1136
-39.9928
-39.4751
-37.8218
-42.3596
-40.1156
-18.8758
-32.8639
-26.5138
-23.0764
-31.3596
-19.0615
-30.3322
-20.3575
-30.6875
-18.6244
-29.7212
-20.1148
-18.442
-30.9796
-23.3612
-22.9556
100.383
94.7736
132.788
130.778
173.105
184.297
182.431
185.822
185.531
172.223
188.31
180.917
102.229
103.391
128.119
138.433
-25.1812
-25.866
-24.819
-25.3393
-17.8966
-17.2629
-20.5729
-19.2292
-28.8965
-31.3517
-26.5618
-29.8936
-28.6579
-30.1493
-27.8531
-29.0841
-25.1374
-25.639
-24.9015
-25.4537
-28.7558
-30.409
-27.9928
-29.4147
-30.5971
-32.1951
-27.7761
-30.7173
-17.9863
-17.7409
-20.6221
-19.3224
-31.7564
-32.8322
-32.2311
-32.99
-32.5565
-31.2743
-32.8458
-32.0857
-33.2337
-32.0592
-35.5192
-32.631
-31.7218
-33.0976
-32.43
-35.5529
-46.6071
-15.2473
-39.5352
-18.9183
-51.2631
-58.3626
-60.7987
-64.1524
-58.3107
-51.2779
-64.2334
-60.9701
-16.1284
-48.9203
-19.3106
-41.5776
-43.5887
-35.4301
-41.886
-41.3328
-44.5477
-50.6283
-48.7879
-48.7616
-42.354
-42.5253
-45.175
-46.7087
-39.6888
-34.6314
-40.3049
-36.4627
-39.1742
-36.3823
-40.8076
-38.5291
-38.6872
-32.8435
-40.2604
-35.675
-41.5178
-41.7419
-44.006
-44.8922
-43.7326
-43.7089
-44.992
-44.0456
-36.3664
-36.8616
-34.961
-35.1102
-37.4285
-36.5175
-35.9527
-34.3851
-31.6462
-36.5336
-31.856
-32.446
-32.0414
-36.9625
-31.7514
-33.0149
-53.118
-49.3907
-47.2766
-48.6387
-31.9768
-34.3467
-33.3597
-36.2207
-31.645
-34.2623
-33.4316
-35.9771
-49.4664
-49.335
-47.3064
-48.5866
-26.9989
-25.635
-26.1375
-24.6776
-25.432
-26.8087
-24.3266
-25.8457
-26.276
-27.2092
-26.0446
-26.1526
-27.4937
-26.4687
-26.3708
-26.2791
-100.509
111.98
-170.118
13.6398
-93.0847
-107.869
-32.9074
-28.6457
-29.8951
-28.1913
-37.6508
-34.7591
9.35206
167.454
6.25367
161.782
-13.9319
0.337343
-35.3322
-29.1572
-30.5925
-29.5758
-35.2204
-32.2304
-158.903
13.4587
-99.1118
93.6373
-88.3533
-105.852
-29.7965
-28.0833
-33.6965
-28.6496
-40.1818
-35.101
5.22472
159.813
0.683501
172.656
-8.96673
0.163583
-30.2737
-29.571
-34.3273
-28.386
-34.7364
-31.6067
-46.9553
-36.9327
-26.4195
-27.2443
-38.0395
-28.211
-35.5379
-32.6991
-33.1857
-45.8218
-19.0494
-29.5609
-19.961
-25.8406
-32.4386
-36.9624
-43.6558
-36.0069
-39.8999
-32.6625
-32.695
-35.4639
-24.4245
-29.2312
-45.2029
-42.104
-26.4958
-31.8082
-30.8984
-43.203
-47.7734
-43.3053
-44.1186
-37.489
-34.5331
-32.4701
-25.9325
-28.0077
-36.6336
-27.6042
-46.3744
-48.1235
-33.3151
-37.5954
-20.3978
-31.5409
-22.3467
-32.2968
-42.9984
-36.1047
-24.1025
-29.9449
-39.1032
-32.4205
-32.9738
-33.1918
-44.9688
-41.6586
-47.9326
-43.2038
-27.4505
-31.8063
-31.5019
-42.5835
-73.7377
125.28
-35.4225
159.064
-79.5204
-67.0816
142.314
167.005
-145.311
-16.232
-145.076
-1.76518
-114.479
-115.212
50.2221
47.6976
-61.7547
-59.6702
-44.768
-41.2184
-59.5925
-48.957
-56.3865
-46.4704
-35.8081
-28.2235
-36.4261
-28.2734
-39.5203
-39.2622
-27.6194
-27.5019
-27.6245
-23.8722
-27.3661
-23.6274
-28.6839
-28.7821
-22.6176
-22.4713
-42.7374
-40.1084
-40.7747
-36.0014
-41.5039
-43.962
-34.7632
-35.4102
-0.787793
155.437
-0.509558
154.738
-3.43255
-3.39658
181.461
181.739
-47.2869
-25.9372
-54.1515
-48.9918
-54.2544
-57.9818
-26.3422
-38.0133
-27.5201
-27.2991
-27.3991
-26.823
-29.7902
-29.7738
-25.3508
-25.3659
-43.5668
-41.0114
-44.8296
-45.8712
-46.7468
-46.4366
-45.8873
-43.3178
-63.4386
126.069
-36.5227
157.334
-74.0885
-61.6458
166.451
149.503
-62.1211
-59.7481
-44.7032
-41.8369
-60.542
-48.1037
-55.8557
-45.9348
-35.8989
-28.1319
-36.2491
-28.2935
-39.5756
-39.643
-27.6405
-27.5012
-42.4024
-39.1945
-37.5337
-34.4651
-39.3356
-43.6284
-33.8077
-34.9343
-37.8057
-23.8914
-56.4973
-48.0032
-47.3126
-61.637
-38.2382
-28.2133
-43.3043
-40.2935
-45.4166
-46.3061
-46.5023
-46.1965
-43.7392
-46.6947
-24.6112
-28.4159
-21.3605
-24.8959
-23.8791
-22.325
-29.5857
-29.0328
-38.3386
-29.0956
-39.6357
-29.6518
-46.112
-46.1808
-27.4686
-27.8967
-35.7098
-35.0009
-35.6358
-34.9185
-36.7544
-36.7564
-34.4495
-34.4032
-18.8455
-23.8855
-19.6366
-22.2385
-17.6158
-18.8356
-25.9075
-27.8238
-33.1243
-33.1843
-33.2105
-33.8767
-33.2422
-32.8038
-35.0679
-35.0755
-34.965
-43.3147
-33.8266
-41.1344
-33.9942
-34.2753
-51.7541
-47.9033
5.97375
9.90984
5.61696
9.60682
1.73559
2.26052
6.10188
5.73146
-60.657
-49.7549
-60.6344
-49.8129
-64.1042
-64.0837
-49.8834
-49.8038
-24.5472
-26.8143
-21.5331
-27.0533
-24.1195
-22.9478
-30.7416
-30.4505
-36.541
-28.3868
-37.0621
-29.007
-44.0193
-43.2926
-27.1395
-27.5574
-21.6724
-28.7807
-21.741
-24.5892
-21.0698
-20.4683
-31.3135
-30.0114
-35.4253
-43.1542
-34.0155
-41.2226
-34.4657
-33.866
-47.9337
-51.3109
-64.7871
-63.3084
-61.4525
-51.544
-52.1111
-61.446
-50.8272
-50.9977
-64.2441
-61.5906
-63.6048
-52.9946
-65.14
-55.6665
-50.8498
-49.8398
-66.4656
-66.446
-59.8643
-49.2529
-59.8917
-49.2524
-45.7385
-45.7562
-17.0591
-20.53
-25.9243
-30.3912
-30.1033
-25.7272
-26.6913
-26.5055
186.441
184.463
179.749
181.961
185.34
184.22
183.32
187.589