# vtk DataFile Version 2.0
tri_press
ASCII
DATASET UNSTRUCTURED_GRID
POINTS 3682 float
-0.693955 0.345 -1.905
-0.895 0.345 1.69057
-0.815 1.12174 -1.715
-0.715 1.245 1.93961
0.693955 0.345 -1.905
0.895 0.345 1.69057
0.815 1.12174 -1.715
0.715 1.245 1.93961
-0.762942 0.343028 -0.706477
-0.829709 0.343276 0.492047
-0.782567 1.16373 -0.496797
-0.766951 1.22253 0.721407
0.762946 0.343024 -0.706477
0.829711 0.343274 0.492047
0.782564 1.16372 -0.496797
0.766945 1.22253 0.721407
-1.45027 -0.0868538 -2.97788
-1.46389 -0.0699869 -2.01118
-1.52054 -0.0723655 -0.813165
-1.58691 -0.0823803 0.380889
-1.63763 -0.0848189 1.57857
-1.65344 -0.0737529 2.54364
-1.65844 -0.056716 3.51173
-1.45804 0.318152 -2.87581
-1.47061 0.339853 -1.90695
-1.52841 0.346888 -0.705111
-1.59286 0.351225 0.494962
-1.64057 0.354223 1.69643
-1.66038 0.36564 2.66177
-1.66657 0.381598 3.62922
-1.51055 1.11502 -2.67718
-1.54965 1.1346 -1.70914
-1.5487 1.17326 -0.493882
-1.54592 1.22197 0.722773
-1.53045 1.24399 1.93766
-1.60431 1.25323 2.90219
-1.65035 1.26377 3.86646
-1.55411 2.34577 -2.36444
-1.57261 2.37337 -1.39346
-1.5736 2.42933 -0.171817
-1.56559 2.49503 1.05407
-1.57013 2.54051 2.2755
-1.59692 2.56026 3.24605
-1.63267 2.57303 4.21248
-0.692286 -0.083676 -2.97661
-0.702049 -0.0653699 -2.00933
-0.746891 -0.0735278 -0.813413
-0.79508 -0.0885634 0.378401
-0.837915 -0.0925593 1.57422
-0.859184 -0.0792674 2.54069
-0.867698 -0.0602694 3.51002
-0.692233 0.319367 -2.87541
-0.883942 0.361064 2.65934
-0.882911 0.37873 3.62793
-0.736138 1.10963 -2.67961
-0.838833 1.25282 2.90258
-0.877489 1.26315 3.86655
-0.7816 2.3399 -2.36685
-0.800613 2.36672 -1.39611
-0.801402 2.42532 -0.173415
-0.794863 2.49619 1.05426
-0.801247 2.54349 2.27687
-0.827212 2.56265 3.24742
-0.860477 2.57458 4.21347
0.781042 -0.0836771 -2.97661
0.742932 -0.0653712 -2.00933
0.783425 -0.0735313 -0.813413
0.840602 -0.0885654 0.378401
0.874913 -0.0925601 1.57422
0.797724 -0.0792683 2.54069
0.74513 -0.0602705 3.51002
0.784159 0.319367 -2.87541
0.765104 0.361063 2.65934
0.72086 0.378729 3.62793
0.811493 1.10963 -2.67961
0.701438 1.25282 2.90258
0.68807 1.26315 3.86655
0.769626 2.3399 -2.36685
0.755821 2.36672 -1.39611
0.748853 2.42532 -0.173415
0.742883 2.49618 1.05426
0.725654 2.54349 2.27687
0.705921 2.56265 3.24742
0.684463 2.57458 4.21347
1.52807 -0.0868568 -2.97788
1.49595 -0.0699906 -2.01118
1.54584 -0.0723717 -0.813165
1.62338 -0.0823851 0.380889
1.66349 -0.0848216 1.57857
1.60802 -0.0737552 2.54364
1.55114 -0.056719 3.51173
1.52712 0.318149 -2.87581
1.47624 0.339851 -1.90695
1.52858 0.346882 -0.705111
1.60304 0.35122 0.494962
1.64424 0.354221 1.69643
1.57986 0.365638 2.66177
1.52702 0.381595 3.62922
1.55981 1.11502 -2.67718
1.54373 1.1346 -1.70914
1.5386 1.17326 -0.493882
1.54529 1.22197 0.722773
1.52129 1.24399 1.93766
1.50177 1.25323 2.90219
1.48255 1.26376 3.86646
1.54139 2.34577 -2.36444
1.53054 2.37337 -1.39346
1.52278 2.42932 -0.171817
1.51449 2.49502 1.05407
1.49627 2.5405 2.2755
1.47908 2.56026 3.24606
1.46164 2.57303 4.21248
-0.798919 0.73337 -1.85444
0 0.34145 -1.90855
-0.729656 0.342806 -1.30574
-0.7953 0.795 1.80539
0 0.341074 1.6945
-0.86323 0.343262 1.09131
0 1.16743 -1.76069
-0.80416 1.14811 -1.1059
0 1.33478 2.02939
-0.763251 1.25604 1.33051
0.798941 0.73337 -1.85446
0.729657 0.342805 -1.30574
0.795308 0.795 1.8054
0.863231 0.343262 1.09131
0.804163 1.14811 -1.1059
0.763227 1.25602 1.33051
-0.796311 0.343166 -0.107215
-0.84289 0.753377 -0.601637
2.19559e-06 0.340532 -0.706477
-0.829642 0.782904 0.606727
7.74284e-07 0.340595 0.492047
-0.772546 1.19092 0.112305
-1.25864e-06 1.57273 -0.496797
-3.21699e-06 1.66945 0.721407
0.796313 0.343164 -0.107215
0.84286 0.753374 -0.601637
0.829642 0.7829 0.606727
0.772555 1.19092 0.112305
-0.896501 0.743374 -1.20582
0.896501 0.743372 -1.20582
1.09779e-06 0.340447 -1.30574
-6.29322e-07 1.24895 -1.1059
0 0.73337 -2.15882
-0.819913 0.768141 0.002545
0.819907 0.768137 0.002545
1.48494e-06 0.34057 -0.107215
-2.23782e-06 1.66946 0.112305
-0.89603 0.788952 1.21091
0.89603 0.78895 1.21091
3.87142e-07 0.340556 1.09131
-1.60849e-06 1.66951 1.33051
0 0.795 2.15104
-0.757 0.539185 -1.89028
-0.346978 0.341463 -1.90854
-0.712968 0.342741 -1.60537
-0.835961 0.57 1.73879
-0.4475 0.341073 1.6945
-0.879934 0.343312 1.39094
-0.795309 0.927555 -1.77307
-0.4075 1.15863 -1.75189
-0.823768 1.14911 -1.41045
-0.75512 1.02 1.87247
-0.3575 1.31056 2.00517
-0.760164 1.27156 1.63506
0.346978 0.341455 -1.90855
0.756998 0.539185 -1.89028
0.712969 0.34274 -1.60537
0.4475 0.341077 1.69449
0.835911 0.57 1.73874
0.879934 0.343312 1.39094
0.4075 1.15862 -1.75188
0.795299 0.927555 -1.77306
0.823784 1.14913 -1.41045
0.3575 1.31056 2.00517
0.755123 1.02 1.87247
0.760165 1.27156 1.63506
-0.746343 0.342873 -1.00611
-0.779618 0.343105 -0.406846
-0.858694 0.520314 -0.654057
-0.381456 0.341807 -0.706477
-0.846516 0.343222 0.791678
-0.813011 0.34322 0.192416
-0.851818 0.552018 0.549387
-0.414824 0.341995 0.492047
-0.785727 1.14828 -0.801348
-0.821438 0.962907 -0.549217
-0.779092 1.17886 -0.192246
-0.470461 1.52658 -0.496797
-0.768714 1.2429 1.02596
-0.799238 1.00319 0.664067
-0.769764 1.20674 0.416856
-0.489793 1.65862 0.721407
0.746344 0.342873 -1.00611
0.381461 0.341805 -0.706477
0.77962 0.343103 -0.406846
0.868422 0.51544 -0.654057
0.84652 0.343219 0.791678
0.414826 0.341995 0.492047
0.813012 0.34322 0.192416
0.851818 0.552016 0.549387
0.785733 1.14829 -0.801348
0.470459 1.52658 -0.496797
0.82144 0.962913 -0.549217
0.779136 1.1789 -0.192246
0.768714 1.2429 1.02596
0.489788 1.65862 0.721407
0.799228 1.00318 0.664067
0.769766 1.20674 0.416856
-0.895163 0.738372 -1.53013
-0.39946 0.73337 -2.10748
5.48897e-07 0.340435 -1.60714
0 0.53741 -2.14465
-0.89838 0.54309 -1.25578
-0.364828 0.34046 -1.30574
-0.891337 0.791976 1.50815
-0.39765 0.795 2.11405
1.93571e-07 0.34057 1.3929
0 0.568037 2.13651
-0.898164 0.566107 1.15111
-0.431615 0.340559 1.09131
-3.14661e-07 1.22891 -1.4333
0 0.950401 -2.11875
-0.856208 0.945742 -1.15586
-0.40208 1.24436 -1.1059
-8.04247e-07 1.65167 1.67995
0 1.06489 2.12866
-0.831893 1.0225 1.27071
-0.381626 1.66156 1.33051
0.895163 0.738371 -1.53014
0.399471 0.73337 -2.10748
0.89838 0.543089 -1.25578
0.364829 0.34046 -1.30574
0.892615 0.791975 1.50815
0.397654 0.795 2.11403
0.898164 0.566106 1.15111
0.431616 0.340559 1.09131
0.85621 0.945742 -1.15586
0.402081 1.24436 -1.1059
0.831869 1.02248 1.27071
0.381613 1.66155 1.33051
-0.844769 0.537325 -0.052335
-0.398135 0.341908 -0.107215
-0.894145 0.748376 -0.903728
-0.823322 0.760759 -0.299546
1.64669e-06 0.340461 -1.00611
1.84026e-06 0.340555 -0.406846
-0.817803 0.775522 0.304636
-0.865446 0.785928 0.908818
1.12961e-06 0.340582 0.192416
5.80713e-07 0.340545 0.791678
-0.796162 0.979495 0.057425
-0.499971 1.65758 0.112305
-9.43982e-07 1.39732 -0.801348
-1.74823e-06 1.65488 -0.192246
-2.7274e-06 1.66945 0.416856
-2.41274e-06 1.66951 1.02596
0.844769 0.537321 -0.052335
0.398137 0.341908 -0.107215
0.895284 0.748373 -0.903728
0.823322 0.760755 -0.299546
0.817804 0.775518 0.304636
0.86568 0.785925 0.908818
0.796162 0.979496 0.057425
0.499973 1.65759 0.112305
-0.897097 0.541137 -1.56775
-0.897957 0.545646 -0.954918
-0.823661 0.952147 -0.852538
-0.853039 0.936649 -1.47029
0.897096 0.541137 -1.56776
0.853076 0.936649 -1.4703
0.823665 0.952146 -0.852538
0.897957 0.545644 -0.954918
-0.355903 0.34045 -1.60626
0.355903 0.34045 -1.60626
0.373152 0.340473 -1.00611
-0.373149 0.340473 -1.00611
-0.40479 1.2249 -1.42187
-0.396682 1.35765 -0.801348
0.396681 1.35765 -0.801348
0.40479 1.22489 -1.42187
-0.373219 0.538297 -2.09913
-0.40348 0.938978 -2.05674
0.403485 0.938978 -2.05676
0.373224 0.538297 -2.09913
-0.846744 0.531313 -0.353196
-0.845149 0.546244 0.248526
-0.794038 0.98951 0.360746
-0.802602 0.968102 -0.245896
0.846745 0.531306 -0.353196
0.802602 0.968105 -0.245896
0.794037 0.989509 0.360746
0.845149 0.546241 0.248526
-0.389793 0.341863 -0.406846
0.389796 0.341862 -0.406846
0.406482 0.341951 0.192416
-0.40648 0.341951 0.192416
-0.506013 1.63368 -0.192246
-0.495055 1.65845 0.416856
0.495052 1.65845 0.416856
0.505963 1.63358 -0.192246
-0.896834 0.564598 0.850248
-0.89774 0.568054 1.44954
-0.809596 1.02125 1.5716
-0.822186 1.01261 0.967388
0.896833 0.564596 0.850248
0.82221 1.0126 0.967388
0.809595 1.02124 1.57161
0.89774 0.568053 1.44955
-0.423235 0.34055 0.791678
0.423236 0.34055 0.791678
0.439558 0.340571 1.39192
-0.439557 0.340571 1.39192
-0.382552 1.66141 1.02596
-0.369563 1.63508 1.6575
0.369556 1.63508 1.6575
0.382542 1.66141 1.02596
-0.422575 0.569018 2.09841
0.422577 0.569018 2.11083
0.377577 1.04245 2.09485
-0.377575 1.04245 2.09485
-0.722951 0.442092 -1.89511
-0.520466 0.341482 -1.90852
-0.70431 0.343022 -1.75518
-0.863189 0.4575 1.71239
-0.67125 0.341069 1.6945
-0.888285 0.343338 1.54075
-0.80957 1.02465 -1.74845
-0.61125 1.14646 -1.73972
-0.820183 1.13623 -1.56272
-0.734408 1.1325 1.90539
-0.53625 1.28472 1.97933
-0.752672 1.27337 1.78733
0.520466 0.341474 -1.90853
0.722972 0.442092 -1.89514
0.70431 0.343022 -1.75518
0.67125 0.341072 1.6945
0.863138 0.4575 1.71234
0.888285 0.343338 1.54075
0.61125 1.14646 -1.73972
0.809583 1.02465 -1.74846
0.820181 1.13622 -1.56272
0.53625 1.28473 1.97934
0.734951 1.1325 1.90593
0.752647 1.27334 1.78733
-0.754686 0.342908 -0.856292
-0.771273 0.343074 -0.556661
-0.869236 0.402462 -0.680267
-0.572204 0.342409 -0.706477
-0.838056 0.343306 0.641862
-0.821361 0.343247 0.342231
-0.866199 0.434929 0.520717
-0.622268 0.342633 0.492047
-0.784131 1.15599 -0.649072
-0.802005 1.06332 -0.523007
-0.780879 1.17134 -0.344521
-0.695366 1.48286 -0.496797
-0.767934 1.23282 0.873682
-0.781481 1.11205 0.692737
-0.768349 1.21463 0.569131
-0.683499 1.55083 0.721407
0.754686 0.342907 -0.856292
0.572208 0.342405 -0.706477
0.771275 0.343072 -0.556661
0.870659 0.401744 -0.680267
0.838058 0.343304 0.641862
0.622269 0.342633 0.492047
0.821362 0.343246 0.342231
0.866198 0.434928 0.520717
0.784131 1.15599 -0.649072
0.695055 1.48224 -0.496797
0.802019 1.06333 -0.523007
0.780879 1.17134 -0.344521
[...]
POINT_DATA 3682
SCALARS point_scalars float 1
LOOKUP_TABLE default
-140.469
-70.1434
-93.628
-43.5612
-141.006
-69.0433
-93.5099
-42.8277
-47.0214
-36.6353
-61.9079
-44.723
-47.0208
-36.543
-61.7326
-44.5117
-57.3035
-101.528
-58.4396
-36.0178
-59.5813
-70.53
-47.9405
22.4823
-102.253
-58.4396
-35.3542
-69.0428
-50.6388
-47.0542
-9.58558
-115.485
-53.6648
-42.5597
-53.5389
-44.1019
-44.1019
-61.7486
-73.2453
-88.9699
-47.7519
-48.6837
-41.2519
-41.9792
-78.835
-177.397
-49.3004
-37.8052
-58.2804
-47.9405
-46.9194
112.573
-47.9405
-46.9194
93.8315
-42.6571
-42.8276
-69.4423
-38.7788
-90.0546
-49.1419
-45.8862
-37.1253
-38.3142
-78.9804
-177.969
-49.7683
-37.6603
-57.2053
-49.226
-46.7905
89.1347
-46.7905
-46.7905
80.3088
-42.152
-41.5364
-67.3794
-36.5608
-89.3992
-48.9284
-44.9625
-35.1026
-33.4439
-43.7714
-99.2181
-58.2276
-35.5916
-59.089
-70.5845
-47.4754
-27.0861
-101.773
-58.2276
-35.2428
-68.413
-50.3059
-46.9068
-9.7644
-115.542
-53.6059
-43.3245
-52.7647
-43.5789
-43.5789
-60.9054
-68.3204
-88.8997
-48.4302
-47.5643
-40.7342
-41.3656
-61.5712
-137.481
-68.0651
-55.1054
-62.4876
-46.0317
-45.438
-56.136
-29.4818
-50.6569
-62.7145
-68.0435
-54.7304
-45.7771
-56.0467
-50.2272
-38.8305
-48.8819
-47.9142
-35.9944
-41.286
-49.2028
-45.9592
-55.6959
-38.7852
-48.8457
-35.8742
-49.0186
-72.4842
-72.3992
-69.0805
2.42822
204.416
-40.6254
-40.6005
-40.741
-81.175
-53.9866
-53.6282
-47.1891
-46.5221
-46.5978
-42.7099
-147.574
-98.0094
-60.7922
-63.8658
-52.0047
-96.926
-50.1523
-73.1503
-50.7533
-35.1217
-49.0502
-147.557
-42.6326
-98.0026
-61.6743
-60.4744
-51.5887
-50.1506
-96.9669
-73.1151
-34.1553
-50.2252
-48.4034
-53.1153
-41.7345
-47.2859
-47.5976
-39.5723
-37.4352
-34.6402
-40.5121
-59.4017
-51.4915
-54.5528
-34.9867
-48.157
-39.8192
-45.629
-53.0736
-53.0999
-47.5799
-41.6933
-47.7337
-39.4273
-40.4503
-37.3691
-34.5167
-59.2986
-34.9211
-51.3862
-54.532
-47.9698
-52.9518
-39.8021
-45.5432
-94.5252
165.655
-91.6981
157.515
-74.0003
-68.8907
-60.5306
-46.1134
-52.5173
-46.8471
-50.7674
-47.1239
-26.1566
160.416
-67.1
-8.26921
-41.7732
-42.8177
-54.9869
-47.5638
-94.4745
165.844
-73.9128
-68.8798
-60.0648
-46.0397
-50.4583
-46.8989
-67.0104
-8.2566
-54.5703
-47.246
-38.7464
-40.3313
-59.8216
-43.6334
-56.0173
-43.1198
-38.0111
-40.6736
-40.29
-43.6242
-43.3395
-76.3855
23.8591
-100.756
-64.9688
-50.0901
-38.6947
-40.3036
-59.7721
-43.5457
-37.9654
-40.3871
-43.4943
-76.3116
-117.047
-58.5845
-54.5551
-89.4539
-116.918
-89.4148
-54.4708
-58.486
-93.337
-93.3321
-55.6919
-55.6003
-33.9369
14.1064
14.1902
-33.8954
133.985
133.311
133.524
134.089
-41.904
-36.4928
-40.7779
-47.4334
-41.6857
-47.3527
-40.7899
-36.4264
-42.7368
-42.7157
-39.6755
-39.7146
-95.1652
-60.7481
-60.6572
-95.0412
-41.9857
-57.4438
-53.4485
-44.6601
-41.8021
-44.3853
-52.9461
-57.062
-43.2276
-43.1172
-52.0982
-52.6133
-49.7536
-44.88
-44.1364
-49.5961
-46.4452
-46.2571
-44.1204
-44.4985
-48.2491
-167.643
-127.236
-69.5592
-65.9776
-56.7824
-94.1959
-58.5508
-82.916
-48.1015
-38.2988
-47.5661
-167.692
-48.2103
-127.27
-63.8495
-68.649
-56.2267
-58.5052
-94.1255
-82.9298
-37.5503
-47.4163
-46.7559
-49.8099
-44.0201
-46.1062
-47.0098
-39.1566
-37.7537
-35.1856
-39.5883
-62.9127
-55.3308
-58.9711
-88.2757
-46.5512
-44.2574
-45.1482
-50.7179
-49.7367
-46.9892
-43.9986
-46.2919
-39.018
-39.5063
-37.6789
-35.0697
-62.7833
-87.6767
-55.1842
-58.7972
-46.4226
-50.5323
-43.4304
-45.0579
-44.6504
-94.0639
-127.708
102.453
-138.569
-138.545
-110.877
46.4757
-80.3176
-59.597
-73.154
-68.0972
-57.2878
-52.8363
-59.7829
-46.0296
-62.8431
-61.5382
-55.7902
-49.5257
-49.1154
-44.3275
-49.1188
-46.7813
-46.8828
-46.9126
-35.6195
-25.1635
-63.112
-55.5
-61.5885
-24.2083
-31.5224
-30.7768
-33.2788
-37.5786
-49.6866
-49.8863
-53.3662
-48.6844
-44.755
-93.8924
-127.577
102.986
-80.301
-59.5729
-73.0725
-68.0817
-56.9505
-52.4058
-59.4061
-45.862
-48.7868
-44.1274
-48.8296
-46.5443
-63.0668
-55.4199
-61.51
-24.1155
-49.1597
-49.5688
-52.9303
-48.2914
-39.9245
-37.8643
-38.3428
-39.6803
-48.0995
-49.9708
-52.5165
-45.9466
-47.8549
-47.8422
-51.4997
-45.3043
-34.6963
-37.6236
-36.4388
-36.318
-41.1534
-41.1187
-40.6391
-42.2828
-50.7529
-47.1735
-46.0958
-62.5614
-42.3312
-42.0759
5.35675
-85.455
-55.1369
-55.0731
-59.7371
-52.549
-39.8791
-37.8165
-38.2877
-39.6415
-48.1595
-49.8912
-52.4185
-45.8657
-34.569
-37.5132
-36.3633
-36.1813
-50.3713
-47.0444
-45.8947
-62.4383
-87.3559
-73.53
-71.0952
-63.8766
-87.2737
-73.4424
-71.0001
-63.7807
-78.4266
-68.8615
-68.8506
-61.5413
-11.9729
-0.323971
-0.307538
16.6323
195.843
197.249
187.549
196
-39.6058
-41.7908
-39.238
-41.7407
-39.5593
-41.7325
-39.152
-41.7698
-40.7179
-41.6879
-40.3592
-40.7013
-80.5787
-90.955
-71.8175
-80.5445
-58.4694
-52.3785
-55.5564
-49.0499
-58.0685
-52.0461
-55.1746
-48.7339
-49.623
-47.2213
-47.0958
-45.2652
-44.7852
-46.8457
-46.6674
-48.1552
-46.552
-46.5722
-45.2791
-46.5405
-94.14
87.0728
-115.724
39.85
-120.41
-94.5803
-63.6112
-46.9624
-56.4855
-49.7488
-55.3223
-52.4709
-110.182
76.9634
-42.8089
11.9202
-80.4367
-47.5251
-56.6546
-44.3271
-36.2806
-40.7782
-51.2015
-47.9851
-115.721
39.9505
-96.7947
87.1591
-120.183
-94.5706
-55.6259
-49.4099
-63.1461
-46.7727
-54.9444
-51.8374
-42.7915
11.632
-110.075
77.0105
-80.3915
-47.4597
-35.5602
-39.9552
-56.1204
-43.9234
-50.6267
-47.2355
-57.3853
-54.7801
-41.5439
-42.2925
-57.3834
-44.238
-51.1521
-44.7852
-39.1132
-42.6698
-36.1559
-38.8994
-35.6555
-32.7292
-39.9603
-41.7782
-54.7249
0.532878
-51.9516
-50.3296
-52.256
-78.8393
4.95134
-79.7839
-47.7875
-49.733
-39.6807
-41.1895
-43.1998
-53.9371
-56.353
-51.1658
-57.2805
-54.76
-51.1352
-44.7664
-41.3542
-42.2654
-57.1303
-44.0152
-38.9209
-42.5286
-39.9117
-41.6965
-36.0818
-38.8473
-35.5649
-32.5438
-54.6154
0.653181
4.97978
-79.7401
-51.865
-50.1835
-51.8063
-78.7281
-47.5244
-49.5031
-56.2487
-51.0342
-39.6996
-40.767
-43.1891
-53.7899
-103.323
-90.1124
162.882
148.263
-92.1025
-92.0933
154.007
154.131
-89.7882
-64.0189
-78.8191
-61.4318
-59.2918
-56.4998
-46.0923
-45.1294
-52.204
-52.5093
-46.758
-46.6685
-48.3578
-53.5912
-44.9644
-49.5856
-28.0837
-27.9643
159.666
159.829
-59.7422
-75.0877
-21.4597
3.23754
-43.2572
-42.7606
-43.7025
-44.3333
-55.5568
-50.9946
-48.4112
-47.2094
-103.424
-90.091
148.4
163.057
-89.6814
-63.9314
-78.3986
-61.2625
-56.0611
-58.8673
-46.032
-44.8941
-48.0819
-53.2432
-44.8321
-49.2549
-75.0288
-59.6659
3.2736
-21.473
-50.6551
-55.0917
-46.7152
-48.1948
-40.0091
-37.6419
-41.2833
-39.826
-59.4155
-56.2895
-42.5929
-45.1335
-56.1252
-56.1374
-43.0468
-43.0334
-37.0991
-39.1423
-40.901
-43.033
-40.1528
-40.1746
-43.5488
-43.4869
-41.9864
-45.0512
-85.9902
-66.9331
21.4843
21.497
-97.8753
-97.8613
-64.1102
-64.0649
-50.0562
-49.9704
-39.9503
-37.5878
-41.2593
-39.7936
-56.2159
-59.3366
-42.4891
-45.0326
-39.1201
-37.0396
-40.6824
-42.5827
-45.0945
-41.9987
-66.8514
-85.9177
-72.5878
-90.0652
-88.6065
-123.069
-56.2221
-54.2559
-64.1809
-62.9699
-55.3836
-56.8758
-63.0163
-51.7853
-102.86
-119.217
-82.4515
-69.5106
-73.6149
-122.966
-88.5096
-89.9598
-102.819
-69.4502
-82.3457
-119.164
-55.2623
-51.71
-62.9415
-56.7906
-56.1853
-62.8887
-64.0897
-54.1745
-121.044
-112.138
-78.5502
-78.9126
-121.185
-78.9001
-78.5403
-112.127
-50.4843
-51.4342
-61.5949
-60.5085
-50.5073
-60.526
-61.6068
-51.4468
-54.866
-32.413
-14.2178
-37.0787
-70.2135
6.71579
12.503
-16.0629
-69.8017
-15.978
12.5406
6.80713
-54.8361
-37.0765
-14.2125
-35.7052
28.8872
102.791
188.363
60.2096
6.32988
-4.36242
178.537
82.7788
6.1777
83.0416
178.681
-4.50804
28.9213
61.0232
188.513
102.887
-44.0729
-39.4407
-40.7241
-44.8286
-35.6914
-35.9955
-38.3421
-36.827
-41.2534
-44.7029
-40.351
-37.9693
-54.053
-47.6863
-43.2173
-47.5884
-44.0391
-44.7407
-40.6527
-39.3853
-53.8344
-48.4409
-43.1686
-47.5906
-41.2751
-37.9245
-40.3543
-44.6358
-35.602
-36.7701
-38.2822
-35.9097
-44.3544
-45.0925
-41.6257
-40.7672
-44.2389
-40.7354
-41.6112
-45.0796
-38.9891
-40.4442
-40.1951
-39.0421
-39.0534
-39.0987
-40.2313
-40.4713
-93.1949
-68.6199
-90.477
-83.1259
-51.5507
-59.0216
-70.9329
-57.4361
-51.3886
-57.3017
-70.8933
-58.969
-93.1051
-82.6734
-90.4425
-68.5087
-34.0631
-46.9617
-49.5807
-35.0301
-62.0823
-65.7078
-55.2938
-51.6959
-52.7735
-51.2989
-59.4014
-58.2071
-42.0847
-38.0098
-50.1215
-50.7326
-33.8865
-34.8224
-49.2819
-46.7132
-41.7337
-50.4158
-49.7817
-37.8618
-52.0888
-57.7763
-58.9942
-50.7986
-61.6417
-51.3642
-54.9133
-65.3664
-40.5968
-42.1854
-45.1912
-44.6171
-40.4905
-44.5105
-45.1058
-42.1399
-56.0147
-55.6879
-49.4135
-49.0097
-56.8922
-49.3061
-49.6058
-56.1935
-48.5862
-48.5153
-48.295
-52.2645
-38.7444
-34.8511
-45.4814
-50.5795
-38.014
-49.8441
-45.1923
-34.23
-48.3765
-52.1921
-48.174
-48.235
-51.3604
-49.0429
-46.472
-46.283
-49.8628
-46.1333
-46.4559
-48.5515
-42.3064
-38.519
-45.1689
-44.4604
-42.943
-44.7569
-45.27
-38.914
-62.0542
-157.598
-168.363
-72.9923
-67.771
-60.8753
-93.0967
-65.8125
-104.678
-46.9754
-39.2275
-45.1777
-157.836
-62.6091
-169.488
-66.3475
-71.9543
-60.2554
-65.8172
-92.9745
-104.59
-38.5808
-46.2814
-44.4232
-48.909
-45.3208
-45.029
-46.8066
-36.473
-36.7748
-35.3608
-38.893
-63.0506
-58.0908
-60.4845
-80.0032
-45.2883
-44.0067
-44.84
-47.9707
-48.8572
-46.7854
-45.317
-45.1683
-36.3849
-38.8081
-36.6906
-35.2551
-62.9033
-79.7681
-57.9357
-60.3227
-45.1416
-47.7661
-42.9648
-44.5619
-50.8487
-76.9181
-129.157
27.75
-137.902
-137.872
-124.838
-93.6029
-73.5666
-63.4778
-71.4157
-67.859
-56.1223
-54.0045
-58.186
-47.6367
-62.7125
-62.1579
-58.1894
-56.5221
-47.3464
-44.9794
-47.772
-46.7496
-45.6323
-45.6551
-40.1166
-78.4199
-59.6719
-55.6276
-60.0348
-43.5775
-30.1703
-29.7862
-29.8015
-31.1786
-49.9262
-50.6074
-51.9873
-49.3282
-51.3419
-76.8991
-129.005
27.4289
-73.5475
-63.4551
-71.3591
-67.8415
-55.765
-53.6074
-57.7875
-47.374
-47.0576
-44.7541
-47.4966
-46.4845
-59.7882
-55.5247
-59.9481
-43.4456
-49.4558
-50.2319
-51.544
-48.8764
-39.1611
-37.9759
-39.0046
-39.2953
-48.354
-49.4161
-50.7465
-47.4449
-47.9298
-47.9222
-49.5957
-46.4402
-35.1807
-36.7783
-35.95
-36.0579
-41.2597
-41.2418
-40.8962
-41.7788
-50.2969
-48.14
-47.6383
-55.2573
-44.9635
-45.0079
-19.2212
-73.2592
-55.5736
-55.5405
-57.5942
-54.0252
-39.1166
-37.9301
-38.9512
-39.254
-48.3633
-49.3534
-50.7126
-47.3766
-35.0538
-36.6569
-35.8486
-35.9467
-50.0785
-47.9785
-47.4032
-55.1181
-79.0441
-73.1466
-71.8794
-67.7732
-78.9643
-73.0604
-71.7933
-67.6849
-72.833
-68.8487
-68.8403
-64.6451
-4.49954
1.74306
1.7499
9.21257
203.036
203.385
196.142
203.122
-40.0769
-41.1944
-39.8474
-41.14
-40.0382
-41.1551
-39.8256
-41.1336
-40.7799
-41.2102
-40.5053
-40.7715
-81.0354
-86.469
-76.1018
-81.0175
-55.5209
-53.1911
-54.9028
-52.9611
-55.1387
-52.8463
-54.5276
-52.6231
-48.3461
-47.347
-47.2757
-46.2434
-45.6533
-46.6377
-46.5447
-47.311
-46.5868
-46.5564
-45.8846
-46.5866
-38.6763
-42.1243
-92.3447
40.0191
-154.545
-143.222
-133.235
-86.1595
-111.969
-88.4346
-110.267
-95.2584
-64.0132
-58.8402
-67.7966
-50.136
-64.7976
-63.2858
-59.0361
-56.8252
-53.8791
-50.1416
-53.4173
-52.3998
-95.8907
-93.18
-126.508
-8.90415
-54.4035
-48.5576
-46.4909
-79.6693
-76.6544
-68.9671
-78.0006
-60.0954
-49.5227
-51.9178
-53.863
-45.1391
-37.1667
-33.565
-35.5364
-36.7199
-48.4322
-49.3919
-50.2935
-48.7447
-154.589
-143.212
-133.24
-86.0319
-38.448
-40.5925
-92.1265
40.1075
-111.969
-88.4223
-110.135
-95.2515
-62.3875
-61.3782
-57.876
-54.5906
-63.6604
-58.5144
-67.3768
-49.8715
-53.4064
-49.7749
-53.0365
-51.8895
-54.4001
-48.6645
-46.4837
-79.771
-95.873
-93.2581
-126.431
-9.00461
-76.6114
-68.9834
-77.952
-60.0986
-36.2878
-32.6645
-34.7277
-35.7013
-48.9365
-51.4405
-53.315
-44.6619
-47.7115
-48.8121
-49.6788
-47.9555
-51.2584
-56.1148
-52.907
-54.1338
-42.7379
-40.6584
-41.5089
-41.9161
-46.994
-47.7005
-51.8181
-45.4724
-47.3847
-47.7748
-49.3342
-46.0637
-36.8282
-43.7655
-36.4151
-42.2703
-37.2894
-37.4982
-37.5077
-38.3397
-34.851
-34.6433
-35.2641
-33.5744
-40.0052
-40.9188
-40.2136
-41.0582
-63.9902
-55.8374
-57.2056
-28.6711
-53.1774
-50.5993
-51.6756
-51.2678
-57.232
-52.5186
-53.1142
-64.3767
-38.2012
-38.0614
-8.44926
-56.8614
-46.9541
-49.1748
-47.466
-47.4061
-41.4194
-38.6034
-39.3675
-40.0327
-45.1278
-46.319
-44.332
-49.9032
-52.3606
-54.3969
-54.7479
-52.3554
-51.2484
-56.0922
-52.8332
-54.1118
-47.365
-47.7593
-49.3168
-46.0457
-42.705
-40.6132
-41.4249
-41.8845
-47.1845
-48.0332
-51.39
-46.0938
-36.6706
-43.5896
-36.2445
-42.1219
-39.9325
-40.8696
-40.1589
-40.9873
-37.2222
-37.4406
-37.4252
-38.3004
-34.7312
-34.52
-35.1585
-33.4345
-63.866
-55.7292
-57.1072
-28.6426
-38.1713
-38.0109
-8.41528
-56.7919
-53.0481
-50.5061
-51.5766
-51.1416
-57.1315
-52.4798
-53.2485
-64.2756
-46.8079
-48.9233
-47.288
-47.1495
-52.1983
-54.3044
-54.6344
-52.2274
-42.0204
-38.5455
-39.3865
-39.8902
-45.0628
-46.213
-44.295
-49.7446
-96.8159
-95.9902
-98.3279
-89.3872
135.874
184.438
166.003
159.414
-100.425
-84.454
-91.8511
-91.8394
121.458
181.05
157.188
157.277
-73.666
-73.9776
-80.8765
-68.2277
-68.4094
-69.0391
-73.4569
-64.7181
-62.1299
-58.7012
-60.0486
-59.3878
-45.9556
-46.4573
-46.1103
-45.588
-54.0519
-50.7612
-52.2457
-52.4057
-47.645
-46.64
-46.8499
-46.8074
-49.9648
-51.5694
-49.5836
-52.0939
-46.917
-47.1584
-45.8871
-48.2072
-30.696
-19.6977
-26.3871
-26.4318
92.3075
185.088
163.344
163.403
-63.8156
-69.3395
-63.1591
-70.4718
-14.4785
-3.65629
-14.5154
-2.8849
-37.2108
-44.3043
-42.3137
-42.0584
-41.7826
-45.2069
-42.2835
-44.3328
-54.3501
-55.486
-56.4832
-53.281
-48.1193
-47.161
-47.9253
-47.2824
-96.7766
-95.9226
-98.3298
-89.3554
136.067
184.631
159.572
166.188
-73.5808
-73.8893
-80.7829
-68.1416
-68.3965
-69.0287
-73.4477
-64.706
-61.8692
-58.1079
-58.9691
-59.5384
-45.8506
-46.4268
-46.0482
-45.4368
-49.666
-51.2489
-49.2918
-51.7658
-46.6623
-46.9789
-45.7046
-47.9412
-63.735
-69.2412
-70.4032
-63.0765
-14.4533
-3.63756
-2.86412
-14.5153
-53.9275
-55.0809
-52.901
-56.0243
-47.7568
-46.9075
-46.8897
-47.6656
-38.4788
-39.1821
-39.3625
-38.1939
-40.0669
-40.5504
-40.7465
-40.017
-55.4461
-61.5646
-59.8816
-58.0986
-44.6983
-42.5977
-43.0733
-44.2647
-53.6201
-58.7735
-56.0158
-56.0239
-44.0279
-42.3386
-43.1117
-43.1042
-37.3475
-38.6251
-37.4983
-38.56
-37.5311
-44.9869
-41.1565
-42.0924
-40.3981
-40.2664
-40.2647
-40.2757
-42.9133
-44.4048
-43.6147
-43.5828
-44.457
-42.4225
-42.6309
-44.2682
-70.7987
-79.4355
-81.2175
-71.1428
18.8139
23.1907
22.9585
22.9695
-94.4593
-96.0926
-99.157
-99.1541
-62.1916
-68.1453
-64.7636
-64.7404
-51.2395
-49.0735
-50.1011
-50.0568
-38.4265
-39.1315
-39.3075
-38.0932
-40.0048
-40.5281
-40.7208
-39.9872
-55.3877
-61.4162
-58.0197
-59.8441
-44.6137
-42.5222
-42.9848
-44.1749
-37.2923
-38.5169
-38.5247
-37.4442
-37.1752
-44.7051
-40.8937
-41.6829
-44.5707
-42.5086
-44.1383
-42.6601
-70.6931
-79.3842
-71.0635
-81.1497
-107.669
-122.971
-108.828
-102.755
-58.0856
-57.4619
-60.7081
-58.9502
-54.2341
-52.5536
-57.3544
-55.3006
-98.2626
-85.2585
-90.4304
-81.5172
-107.445
-122.704
-108.891
-102.597
-98.2111
-85.2165
-90.4136
-81.4553
-54.1357
-52.4668
-57.2733
-55.2214
-57.9831
-57.339
-60.6167
-58.8592
-103.162
-93.6978
-92.6923
-85.406
-103.159
-93.6924
-92.6868
-85.3996
-55.2352
-53.2146
-58.2454
-55.8318
-55.2529
-53.2309
-58.1058
-55.8458
-38.4033
-39.1286
-30.3834
-28.4172
8.27443
12.7141
9.52907
19.0246
8.30422
12.7379
9.58176
19.0776
-38.3593
-39.0276
-30.3516
-28.41
115.506
100.81
152.481
140.91
110.321
93.1555
144.156
151.125
93.0887
110.518
151.296
144.34
100.902
115.597
141.033
152.632
-41.5985
-42.9217
-40.8106
-42.1745
-36.1658
-36.0361
-37.045
-36.7493
-40.2202
-41.8639
-39.8924
-41.386
-48.856
-49.7888
-46.086
-46.1778
-41.4069
-42.8596
-40.7453
-42.0515
-48.6981
-49.3395
-45.9582
-46.1462
-40.2314
-41.8771
-39.8892
-41.394
-36.1028
-35.9588
-36.9859
-36.6861
-42.4875
-43.6894
-41.9431
-42.9292
-43.6696
-42.4619
-42.9116
-41.9207
-39.7551
-39.3004
-39.9502
-39.6869
-39.3421
-39.7986
-39.7224
-39.9814
-91.9028
-85.8567
-91.297
-96.0287
-57.8307
-58.4276
-63.6019
-62.8533
-58.3301
-57.7348
-62.7869
-63.5171
-85.2642
-91.7625
-96.0004
-91.1839
-41.8971
-34.8632
-47.0222
-41.9206
-60.0154
-56.399
-58.3487
-55.2974
-54.9695
-52.3754
-54.5996
-53.5065
-46.593
-42.9577
-47.9727
-43.6671
-41.6888
-34.6645
-46.764
-41.7426
-46.3311
-42.6217
-47.6768
-43.3378
-54.4581
-51.8374
-54.1272
-53.027
-59.6207
-56.0213
-57.9566
-54.9307
-42.9748
-42.4556
-44.07
-43.4221
-42.8466
-42.361
-43.9403
-43.334
-53.6625
-51.9692
-52.1429
-50.4048
-54.3635
-52.5299
-52.5704
-50.8018
-49.9472
-50.5551
-49.0243
-49.9145
-39.4387
-46.5064
-43.8351
-47.6546
-38.6865
-45.8708
-43.1852
-47.0145
-49.7622
-50.4121
-48.8413
-49.7914
-46.29
-46.996
-46.1017
-47.2366
-46.9065
-46.073
-47.155
-45.8995
-42.8517
-43.9979
-44.1281
-44.7557
-44.3901
-43.401
-45.036
-44.4539
-88.8431
17.7618
-146.583
-67.9274
-92.9491
-123.011
-69.1359
-53.7353
-60.0009
-57.7194
-59.4273
-57.0061
-122.567
-26.9231
-59.6173
-61.2826
-100.56
-65.143
-50.3349
-44.26
-37.8365
-39.8787
-50.7601
-41.71
-146.555
-67.9351
-88.902
17.8218
-93.2682
-123.004
-58.8433
-55.5232
-68.6342
-53.1444
-58.9733
-56.2589
-59.6244
-61.3138
-122.49
-27.0556
-100.548
-65.1338
-37.1247
-39.0705
-49.6215
-43.7448
-50.0149
-40.9378
-49.6527
-50.2056
-43.7106
-44.0496
-53.4236
-45.6527
-48.604
-45.5276
-37.6916
-39.7926
-36.1844
-38.4202
-35.3876
-34.8109
-39.2606
-40.0792
-58.6884
-79.9423
-55.579
-54.7465
-56.1579
-71.1911
-75.4661
-104.907
-45.6417
-48.5378
-42.8748
-42.1685
-43.3872
-48.5362
-50.8055
-49.8138
-49.6594
-50.1767
-48.5815
-45.5071
-43.6941
-44.028
-53.1623
-45.9824
-37.5061
-39.6778
-39.1887
-39.9856
-36.0997
-38.3504
-35.2853
-34.6975
-58.5702
-79.6591
-75.5631
-104.623
-55.4413
-54.5825
-55.9628
-71.0733
-45.6064
-48.3145
-50.6323
-49.6157
-43.6564
-41.3702
-43.444
-48.3542
-114.741
39.448
-127.299
2.0752
-129.083
-121.102
105.329
98.7638
-126.907
-91.8057
-126.888
-90.2358
-111.065
-111.046
56.6841
56.9139
-89.2479
-79.01
-61.2097
-59.877
-80.2471
-67.4422
-73.0383
-64.1439
-61.3806
-48.3596
-56.1362
-46.0792
-62.7596
-59.2202
-46.0858
-45.4791
-58.5006
-56.5286
-57.834
-55.0546
-55.8931
-56.1547
-49.4617
-49.3987
-50.2159
-49.3018
-45.8669
-44.5425
-48.0469
-50.3668
-45.6643
-47.9927
-41.663
-70.1911
-41.6506
-71.9529
-35.9243
-35.916
-16.2416
-16.263
-67.0871
-48.6164
-56.5633
-40.3232
-58.6821
-65.0204
-30.3328
-20.1705
-32.7829
-33.2761
-32.1488
-32.5262
-35.413
-35.1959
-39.766
-37.5681
-50.3469
-50.3271
-50.3421
-49.0198
-52.717
-52.1137
-48.1351
-49.6628
-114.953
39.8129
-127.337
1.43272
-128.964
-121.045
99.3763
105.48
-89.1731
-78.9971
-61.1512
-59.8571
-80.1587
-67.3627
-73.0242
-64.1271
-60.9969
-48.1365
-55.6992
-45.7087
-58.8148
-62.4085
-45.9273
-45.2619
-49.8915
-48.9397
-45.6371
-44.3457
-47.7782
-50.0569
-45.441
-47.6404
-67.0255
-48.5304
-56.4778
-40.1912
-64.9478
-58.6023
-20.0711
-29.5083
-49.8357
-49.6709
-50.0253
-48.7103
-51.7342
-52.2445
-49.1675
-47.7991
-39.6436
-40.3468
-36.6727
-38.6258
-38.8159
-37.5179
-40.1067
-39.3295
-50.3692
-46.3027
-50.7482
-49.03
-53.1705
-52.0702
-45.2956
-46.6854
-49.5425
-46.3773
-49.5299
-46.3647
-51.4894
-51.4973
-45.1594
-45.152
-35.4012
-34.157
-37.621
-37.9064
-36.2178
-37.1417
-35.8492
-36.7135
-40.7621
-41.5991
-40.7229
-41.5608
-40.5723
-40.5866
-42.2756
-42.2521
-48.1594
-59.0728
-45.8357
-52.2235
-45.4008
-45.7749
-65.3226
-59.7099
-16.4576
-71.8505
-16.4902
-71.8564
5.80799
5.87472
-85.1881
-85.1796
-56.9851
-53.6083
-56.9272
-53.5406
-59.5684
-59.5413
-52.4806
-52.4428
-39.5737
-40.3092
-36.6254
-38.5786
-38.7602
-37.4618
-40.0723
-39.2898
-50.3976
-46.2499
-50.6769
-48.9358
-52.0052
-53.0593
-45.2115
-46.6013
-35.2967
-34.0086
-37.5552
-37.7595
-37.0768
-36.1392
-35.6692
-36.4803
-48.8268
-58.9595
-45.7459
-52.071
-47.0286
-45.2779
-59.5811
-65.2063
-87.9307
-85.7472
-80.3062
-68.2977
-65.9063
-76.8029
-64.2523
-63.7274
-87.843
-85.6352
-80.2162
-68.2097
-76.7296
-65.807
-63.6352
-64.1583
-78.4995
-78.4902
-73.3492
-65.0101
-73.3387
-64.9987
-61.686
-61.6943
-12.3451
-12.342
-6.99057
6.07361
6.06655
-6.98244
15.3327
15.1985
194.097