# vtk DataFile Version 2.0
tet_velo
ASCII
DATASET UNSTRUCTURED_GRID
POINTS 29498 float
-0.762655 0.465 -2.415
-0.540247 0.335 2.455
-0.755 0.539288 -2.415
-0.664324 0.625 2.445
0.762649 0.465 -2.415
0.540244 0.335 2.455
0.755 0.539288 -2.415
0.664324 0.625 2.445
-0.814865 0.295321 -0.791667
-0.728866 0.26385 0.831667
-0.869326 0.71241 -0.795
-0.850144 0.752024 0.825
0.814851 0.29533 -0.791667
0.728867 0.263846 0.831667
0.869327 0.712411 -0.795
0.850145 0.752025 0.825
-1.58428 0.278232 -3.71044
-1.58439 0.270143 -2.41311
-1.60297 0.138548 -0.789687
-1.51008 0.0747844 0.834404
-1.3541 0.102755 2.45788
-1.31776 0.106678 3.75549
-1.33005 0.0933899 5.05258
-1.58111 0.411618 -3.71164
-1.58505 0.440821 -2.41467
-1.62362 0.333504 -0.791898
-1.50553 0.276188 0.831173
-1.29924 0.288545 2.45401
-1.27766 0.289549 3.75157
-1.30688 0.277035 5.04877
-1.57844 0.607437 -3.7131
-1.58929 0.634381 -2.41599
-1.66795 0.723076 -0.795494
-1.5966 0.725888 0.824769
-1.39463 0.640521 2.44533
-1.32938 0.63788 3.74303
-1.33013 0.638517 5.04077
-1.57813 1.07624 -3.7178
-1.58833 1.13025 -2.42119
-1.61697 1.24784 -0.801772
-1.61298 1.30911 0.816928
-1.55206 1.27708 2.43638
-1.48964 1.24275 3.73306
-1.44496 1.22324 5.03044
-0.789421 0.28961 -3.71065
-0.774938 0.286359 -2.41342
-0.806702 0.119124 -0.789645
-0.766252 0.0654789 0.834825
-0.659523 0.126824 2.45862
-0.622739 0.122655 3.75599
-0.625573 0.100639 5.05287
-0.787136 0.412527 -3.7117
-0.573798 0.305411 3.75198
-0.600742 0.283225 5.04899
-0.782134 0.569547 -3.71269
-0.612805 0.635632 3.74296
-0.613977 0.638164 5.04076
-0.773271 1.05018 -3.71739
-0.775124 1.10558 -2.42074
-0.805584 1.24319 -0.801501
-0.828719 1.31715 0.816895
-0.801793 1.27913 2.43615
-0.750199 1.24103 3.73283
-0.707885 1.2214 5.03027
0.77517 0.289611 -3.71065
0.787759 0.286361 -2.41342
0.791752 0.11913 -0.789645
0.697094 0.0654774 0.834825
0.5816 0.126824 2.45862
0.665712 0.122655 3.75599
0.732913 0.100639 5.05287
0.76628 0.412528 -3.7117
0.683949 0.305411 3.75198
0.748931 0.283225 5.04899
0.771346 0.569548 -3.71269
0.725568 0.635632 3.74296
0.767044 0.638164 5.04076
0.82594 1.05018 -3.71739
0.840348 1.10558 -2.42074
0.830484 1.24319 -0.801501
0.772291 1.31715 0.816895
0.719184 1.27913 2.43615
0.728693 1.24103 3.73283
0.757814 1.2214 5.03027
1.56541 0.278236 -3.71044
1.5802 0.270147 -2.41311
1.58812 0.138556 -0.789687
1.47131 0.0747841 0.834403
1.3215 0.102753 2.45788
1.35865 0.106678 3.75549
1.42827 0.0933896 5.05258
1.55949 0.41162 -3.71164
1.57532 0.440824 -2.41467
1.61993 0.333513 -0.791898
1.50796 0.276187 0.831173
1.31518 0.288543 2.45401
1.36443 0.289549 3.75157
1.43867 0.277034 5.04877
1.56876 0.607439 -3.7131
1.58662 0.634383 -2.41599
1.67041 0.72308 -0.795494
1.60314 0.725889 0.824769
1.41286 0.64052 2.44533
1.41984 0.63788 3.74303
1.46742 0.638517 5.04077
1.62283 1.07624 -3.7178
1.64007 1.13026 -2.42119
1.63693 1.24784 -0.801772
1.57269 1.30911 0.816928
1.49503 1.27708 2.43638
1.48103 1.24275 3.73306
1.49788 1.22324 5.03044
-0.761348 0.502144 -2.41752
-3.01003e-06 0.414034 -2.46597
-0.890672 0.278248 -1.60333
-0.548862 0.48 2.39658
-1.51992e-06 0.324613 2.46539
-0.666465 0.267517 1.64333
0 0.632632 -2.50834
-0.890631 0.704317 -1.605
0 0.669619 2.48962
-0.836729 0.768007 1.635
0.761374 0.502144 -2.41755
0.890659 0.278255 -1.60333
0.548819 0.48 2.39653
0.666705 0.267273 1.64333
0.890635 0.704321 -1.605
0.836724 0.768002 1.635
-0.778347 0.273104 0.02
-0.869614 0.503865 -0.793333
-7.1126e-06 0.264991 -0.791667
-0.882028 0.507937 0.828333
1.01255e-07 0.262316 0.831667
-0.862407 0.734889 0.015
7.0596e-07 1.08351 -0.795
3.5298e-07 1.29537 0.825
0.778343 0.273104 0.02
0.869614 0.503871 -0.793333
0.882011 0.507935 0.828333
0.862406 0.734888 0.015
-0.89757 0.503005 -1.60417
-0.869611 0.505901 0.0175
-0.869534 0.493968 1.63917
-5.06132e-06 0.265994 -1.60333
-3.50567e-06 0.26332 0.02
-7.09332e-07 0.262723 1.64333
-1.50502e-06 0.502144 -2.66399
-7.59959e-07 0.48 2.52712
3.5298e-07 0.905138 -1.605
5.2947e-07 1.30762 0.015
1.7649e-07 0.989587 1.635
0.89757 0.503007 -1.60417
0.869613 0.505903 0.0175
0.869531 0.493968 1.63917
-1.17385 0.45291 -2.41483
-0.768796 0.37568 -2.41421
-0.774896 0.438764 -3.06335
-0.919741 0.311773 2.4545
-0.599885 0.230912 2.45681
-0.557022 0.320206 3.10349
-1.17215 0.586834 -2.4155
-0.768567 0.554418 -3.06384
-0.765062 0.822434 -2.41787
-1.02948 0.63276 2.44517
-0.638565 0.630316 3.09398
-0.733059 0.952065 2.44057
0.775204 0.375681 -2.41421
0.764465 0.438764 -3.06335
1.16899 0.452912 -2.41483
0.560922 0.230912 2.45681
0.612097 0.320206 3.10349
0.927712 0.311772 2.4545
0.763173 0.554418 -3.06384
0.797674 0.822435 -2.41787
1.17081 0.586835 -2.4155
0.694946 0.630316 3.09398
0.691754 0.952065 2.44057
1.03859 0.63276 2.44517
-1.21924 0.314412 -0.791782
-0.810783 0.207222 -0.790656
-1.1172 0.270019 0.83142
-0.747559 0.164664 0.833246
-1.26864 0.717743 -0.795247
-0.837455 0.9778 -0.798251
-1.22337 0.738956 0.824884
-0.839432 1.03459 0.820948
0.803301 0.20723 -0.790656
1.21739 0.314421 -0.791783
0.71298 0.164662 0.833246
1.11841 0.270016 0.83142
0.849906 0.977802 -0.798251
1.26987 0.717746 -0.795247
0.811218 1.03459 0.820948
1.22664 0.738957 0.824884
-1.58434 0.274188 -3.06177
-1.5827 0.344925 -3.71104
-1.18685 0.283921 -3.71055
-1.59368 0.204345 -1.6014
-1.58472 0.355482 -2.41389
-1.17967 0.278251 -2.41326
-1.55653 0.106666 0.0223583
-1.61329 0.236026 -0.790792
-1.20484 0.128836 -0.789666
-1.43209 0.0887695 1.64614
-1.50781 0.175486 0.832788
-1.13817 0.0701316 0.834614
-1.33593 0.104716 3.10668
-1.32667 0.19565 2.45594
-1.00681 0.11479 2.45825
-1.3239 0.100034 4.40404
-1.29771 0.198114 3.75353
-0.97025 0.114667 3.75574
-1.31846 0.185212 5.05068
-0.977811 0.0970146 5.05273
-1.58308 0.426219 -3.06315
-1.57978 0.509528 -3.71237
-1.18412 0.412073 -3.71167
-1.60433 0.387162 -1.60328
-1.58717 0.537601 -2.41533
-1.56458 0.304846 0.0196375
-1.64578 0.52829 -0.793696
-1.40238 0.282367 1.64259
-1.55106 0.501038 0.827971
-1.28845 0.289047 3.10279
-1.34693 0.464533 2.44967
-1.29227 0.283292 4.40017
-1.30352 0.463715 3.7473
-0.925731 0.29748 3.75178
-1.3185 0.457776 5.04477
-0.95381 0.28013 5.04888
-1.58386 0.620909 -3.06454
-1.57829 0.841838 -3.71545
-1.18029 0.588492 -3.71289
-1.62862 0.678728 -1.60574
-1.58881 0.882317 -2.41859
-1.63227 0.724482 0.0146375
-1.64246 0.985458 -0.798633
-1.49561 0.683204 1.63505
-1.60479 1.0175 0.820848
-1.36201 0.639201 3.09418
-1.47335 0.958802 2.44086
-1.32975 0.638199 4.3919
-1.40951 0.940317 3.73804
-0.971091 0.636756 3.743
-1.38754 0.930879 5.0356
-0.972054 0.63834 5.04077
-1.58323 1.10325 -3.06949
-1.1757 1.06321 -3.71759
-1.60265 1.18905 -1.61148
-1.18173 1.11792 -2.42097
-1.61498 1.27848 0.00757817
-1.21127 1.24552 -0.801636
-1.58252 1.2931 1.62665
-1.22085 1.31313 0.816912
-1.52085 1.25992 3.08472
-1.17693 1.27811 2.43626
-1.4673 1.233 4.38175
-1.11992 1.24189 3.73294
-1.07642 1.22232 5.03035
-0.782179 0.287984 -3.06204
-0.788278 0.351068 -3.71118
-0.0071251 0.28961 -3.71065
-0.79082 0.202742 -1.60153
0.00641067 0.28636 -2.41342
-0.786477 0.0923015 0.02259
-0.00747518 0.119127 -0.789645
-0.712888 0.0961517 1.64672
-0.0345791 0.0654782 0.834825
-0.641131 0.12474 3.1073
-0.0389617 0.126824 2.45862
-0.624156 0.111647 4.40443
-0.598269 0.214033 3.75398
0.0214862 0.122655 3.75599
-0.613157 0.191932 5.05093
0.05367 0.100639 5.05287
-0.784635 0.491037 -3.71219
-0.010428 0.412528 -3.7117
-0.58727 0.294318 4.40049
-0.593302 0.470522 3.74747
0.0550758 0.305411 3.75198
-0.607359 0.460695 5.04487
0.0740948 0.283225 5.04899
-0.777703 0.809861 -3.71504
-0.00539399 0.569548 -3.71269
-0.613391 0.636898 4.39186
-0.681502 0.938329 3.7379
0.0563815 0.635632 3.74296
-0.660931 0.929783 5.03551
0.0765333 0.638164 5.04076
-0.774197 1.07788 -3.06906
0.0263346 1.05018 -3.71739
-0.790354 1.17439 -1.61112
0.0326121 1.10558 -2.42074
-0.817151 1.28017 0.00769718
0.0124502 1.24319 -0.801501
-0.815256 1.29814 1.62652
-0.028214 1.31715 0.816895
-0.775996 1.26008 3.08449
-0.0413044 1.27913 2.43615
-0.729042 1.23121 4.38155
-0.0107529 1.24103 3.73283
0.0249644 1.2214 5.03027
0.781465 0.287986 -3.06204
0.770725 0.35107 -3.71118
1.17029 0.283923 -3.71055
0.789755 0.202746 -1.60153
1.18398 0.278254 -2.41326
0.744423 0.0923036 0.02259
1.18994 0.128843 -0.789666
0.639347 0.0961505 1.64672
1.0842 0.0701308 0.834614
0.623656 0.124739 3.1073
0.95155 0.114788 2.45825
0.699312 0.111647 4.40443
0.674831 0.214033 3.75398
1.01218 0.114666 3.75574
0.740922 0.191932 5.05093
1.08059 0.0970144 5.05273
0.768813 0.491038 -3.71219
1.16288 0.412074 -3.71167
0.71644 0.294318 4.40049
0.704759 0.470522 3.74747
1.02419 0.29748 3.75178
0.757988 0.460694 5.04487
1.0938 0.28013 5.04888
0.798643 0.809862 -3.71504
1.17005 0.588494 -3.71289
0.746306 0.636898 4.39186
0.727131 0.938329 3.7379
1.0727 0.636756 3.743
0.762429 0.929783 5.03551
1.11723 0.63834 5.04077
0.833144 1.07788 -3.06906
1.22438 1.06321 -3.71759
0.835416 1.17439 -1.61112
1.24021 1.11792 -2.42097
0.801388 1.28017 0.00769708
1.23371 1.24552 -0.801637
0.745738 1.29814 1.62652
1.17249 1.31313 0.816911
0.723939 1.26008 3.08449
1.10711 1.27811 2.43626
0.743253 1.23121 4.38155
1.10486 1.24189 3.73294
1.12785 1.22232 5.03035
1.57281 0.274191 -3.06177
1.56245 0.344928 -3.71104
1.58416 0.204351 -1.6014
1.57776 0.355486 -2.41389
1.52971 0.10667 0.0223582
1.60403 0.236034 -0.790793
1.3964 0.0887686 1.64614
1.48963 0.175486 0.832788
1.34007 0.104715 3.10668
1.31834 0.195648 2.45594
1.39346 0.100034 4.40404
1.36154 0.198113 3.75353
1.43347 0.185212 5.05068
1.56741 0.426222 -3.06315
1.56412 0.50953 -3.71237
1.59763 0.387168 -1.60328
1.58097 0.537603 -2.41533
1.56394 0.30485 0.0196374
1.64517 0.528297 -0.793696
1.41157 0.282365 1.64259
1.55555 0.501038 0.827971
1.33981 0.289046 3.10279
1.36402 0.464532 2.44967
1.40155 0.283291 4.40017
1.39214 0.463714 3.7473
1.45305 0.457776 5.04477
1.57769 0.620911 -3.06454
1.59579 0.84184 -3.71545
1.62852 0.678731 -1.60574
1.61334 0.882319 -2.41859
1.63678 0.724485 0.0146374
1.65367 0.985462 -0.798633
1.508 0.683205 1.63505
1.58792 1.0175 0.820848
[...]
POINT_DATA 29498
VECTORS point_vectors float
-2.69531 -1.83719 5.11445
-0.271797 0.0524736 0.681122
-3.69877 0.494406 5.18897
-0.0171271 -0.0641935 0.136133
2.68473 -1.83016 5.09824
0.271045 0.0566029 0.689638
3.69694 0.493852 5.17574
0.0160696 -0.0655488 0.139663
0.0174365 -0.014178 0.327725
-0.000546106 0.000914612 0.165973
-0.0392606 -0.068829 1.00191
0.0388348 0.0691241 0.305475
-0.0173064 -0.0140427 0.327272
0.000629812 0.0010625 0.173152
0.0393389 -0.0688674 1.00214
-0.0389544 0.069322 0.305787
-0.417116 -0.0547925 19.8336
-1.31069 -0.340499 20.2094
-0.482651 -0.295303 21.1312
0.016118 0.00249175 21.3194
0.7409 0.515765 21.1273
0.947876 0.364343 20.3998
0.769472 0.481826 20.5334
-0.423262 -0.0234771 19.8174
-1.34587 -0.169821 20.1871
-0.558703 -0.307301 21.1413
0.0515863 -0.0324616 21.3892
1.0609 0.471576 21.0873
1.21072 0.304142 20.316
0.533068 0.436438 20.9777
-0.424317 0.00525454 19.8144
-1.37773 0.00364074 20.1596
-0.768823 -0.250466 21.1233
-0.0067954 -0.130481 21.4526
1.07438 -0.0688684 21.0516
1.29598 -0.0627494 20.7443
0.601955 -0.0748227 20.8599
-0.405956 0.129349 19.8264
-1.12802 0.378748 20.1435
-0.95509 0.107334 21.0452
-0.12915 -0.102687 21.4192
0.560365 -0.332684 21.1399
0.649337 -0.363869 20.7735
0.527338 -0.300612 20.2227
-0.427491 -0.156799 19.3658
-4.54309 -4.23583 18.077
-0.0935079 -0.0571977 15.2187
0.0274754 -0.0159937 15.9918
-0.143195 1.1288 12.6744
0.399802 1.23206 15.9235
-0.0342803 0.905941 17.1623
-0.439137 -0.0735291 19.3378
0.467071 1.12403 9.17491
0.818728 0.64476 12.9882
-0.441072 -0.00339864 19.3241
1.6685 0.420624 6.76496
1.46696 0.13177 10.3345
-0.378461 0.249169 19.4284
-2.19302 2.42292 19.3175
-2.88206 1.42909 20.9887
-0.202115 0.0512577 20.3572
0.921895 -0.760597 18.7453
0.912064 -1.07605 18.3394
0.433035 -0.616813 18.7202
0.427923 -0.156749 19.3421
4.52642 -4.03717 18.1693
0.0832479 -0.0605325 14.8709
-0.0531922 -0.0292886 15.2032
0.274575 0.964652 11.6801
-0.584483 1.19633 15.7774
-0.472341 0.810937 16.7859
0.438249 -0.0741967 19.3136
-0.852352 1.15915 10.9963
-0.936286 0.63904 13.5663
0.440634 -0.00433389 19.3111
-1.82098 0.464594 10.4523
-1.11625 0.118659 13.9125
0.385866 0.239408 19.4679
2.20094 2.16704 19.3997
2.79635 1.31358 21.0208
-0.0186111 0.207212 18.8952
-0.995772 -0.735996 17.2063
-1.02291 -1.05152 17.6944
-0.297984 -0.50053 19.5328
0.419688 -0.0536686 19.8188
1.31714 -0.341487 20.2002
0.48547 -0.305377 21.1365
-0.0144352 0.00713329 21.3264
-0.766196 0.565319 21.0735
-0.891648 0.390794 20.7145
-0.868342 0.285503 20.1648
0.428271 -0.0215485 19.802
1.36517 -0.175683 20.1853
0.560761 -0.310809 21.1453
-0.0516181 -0.0333863 21.3854
-1.03315 0.455078 21.0989
-1.02306 0.341983 20.6543
-0.874054 0.142052 20.204
0.428633 0.00761235 19.8007
1.38478 0.00485723 20.1578
0.766144 -0.248475 21.1227
0.00770006 -0.13004 21.4488
-1.04608 -0.0675622 21.091
-1.09051 -0.0900431 20.6467
-0.94813 -0.175223 20.1334
0.401595 0.125475 19.8367
1.08139 0.343643 20.155
0.932433 0.106395 21.0406
0.137598 -0.113331 21.4375
-0.582739 -0.358778 21.1428
-0.6564 -0.379432 20.7146
-0.745248 -0.214277 20.3106
-1.92687 -0.00309903 2.32508
1.45642e-19 7.68371e-17 -1.39507e-16
-0.050954 -0.131039 3.8537
0 0 0
0.000485252 -0.00150345 0.0240046
-0.0058991 0.00260379 0.0978529
0.000517604 0.347388 0.443465
-0.151188 -0.0447538 0.867132
0 0 0
0.0161788 0.0163265 0.0940452
1.93683 -0.0029913 2.32887
0.0510428 -0.131597 3.85703
0 0 0
0.00569529 0.00270231 0.095365
0.150857 -0.0447602 0.865794
-0.0162148 0.0163588 0.0942769
-0.00126449 -0.00509475 0.580425
1.97472e-06 2.1218e-06 0.000337589
0 0 0
-2.40112e-05 0.00013712 0.000897713
-8.91464e-08 3.08078e-06 0.000775089
0.00302971 0.00483838 0.0290646
-0.000483406 0.0884362 0.194867
-6.13517e-07 -0.000429221 0.0127068
0.000474724 -0.00226758 0.591865
-1.52312e-06 1.62434e-06 0.000259618
0 0 0
-0.00187822 0.00294639 0.0178003
-2.02248e-05 -0.000150219 0.0020978
1.9178e-07 7.97365e-06 5.19763e-05
0 0 0
-6.54341e-07 -1.06051e-05 0.000818914
0 0 0
0 0 0
0.000908764 -0.0818562 0.301796
-0.000233298 -0.0148875 -0.00688298
1.2704e-05 0.00418093 0.0366116
-1.52613e-07 0.0050351 0.0965881
2.52876e-05 0.0122856 -0.0289424
2.01678e-05 -0.000148628 0.00207494
-6.17722e-07 2.56955e-05 0.000167295
0 0 0
-2.84403 -0.471395 19.715
-6.05341 -4.88023 17.2268
-1.35635 -0.315171 18.3684
1.13294 1.37731 12.8989
-0.3229 0.784518 5.75129
-0.0325212 0.799975 5.46482
-2.90936 0.0135143 19.6609
-1.38776 -0.0540137 18.302
-4.46109 3.42879 17.9943
1.71076 0.457086 15.5192
1.12031 0.3772 3.75398
0.846072 -0.390086 7.94582
6.08979 -4.78972 17.3174
1.35816 -0.323504 18.3336
2.86955 -0.476437 19.7029
0.36326 0.686477 5.25173
-0.159521 0.978825 6.45258
-1.15899 1.37544 13.2278
1.38876 -0.0494061 18.2808
4.33851 3.05953 18.2286
2.91582 0.0119965 19.6585
-1.36921 0.439233 5.63142
-0.567721 -0.41365 6.30148
-1.71213 0.443621 15.9126
-0.384023 -0.530811 21.3389
0.254891 -0.0416203 8.08431
0.0287661 0.196248 18.9515
0.142782 -0.0318764 9.51255
-1.14257 -0.669479 21.3784
-3.80277 -0.984345 15.1466
0.069916 -0.200534 20.4879
0.664955 1.10339 11.5562
-0.25147 -0.0392124 7.83502
0.3826 -0.531706 21.3298
-0.129134 -0.0130927 8.8843
-0.029709 0.194501 18.9735
3.65091 -0.924921 15.6738
1.14212 -0.667166 21.3825
-0.740779 1.26722 9.76214
-0.0673357 -0.20481 20.5364
-0.822582 -0.169278 19.8342
-0.421214 -0.0374843 19.825
-0.468144 -0.108122 19.5994
-0.964584 -0.376647 20.9464
-1.32584 -0.261174 20.1954
-2.42976 -0.929912 19.8548
-0.206116 -0.17435 21.2384
-0.499381 -0.307509 21.1479
-0.385903 -0.386242 21.2881
0.364812 0.251369 21.3872
0.0301349 -0.0117967 21.3581
-0.0267277 0.0737703 20.89
0.849524 0.538611 20.8753
0.910254 0.505181 21.1094
0.775617 1.16159 19.1801
0.604503 0.377673 20.9667
1.09319 0.351702 20.2913
0.818135 0.979504 18.5129
0.65127 0.459132 20.7555
0.619742 0.897607 19.0444
-0.84955 -0.0854764 19.7981
-0.425718 -0.00826566 19.8106
-0.483245 -0.0503916 19.5759
-1.06327 -0.299877 20.9434
-1.35762 -0.0955414 20.1814
-0.236694 -0.216255 21.2717
-0.659031 -0.290663 21.1252
0.503333 0.195467 21.434
0.0280896 -0.105219 21.4372
1.14091 0.51302 20.7201
1.15089 0.192781 21.0417
0.848921 0.371831 21.2079
1.27896 0.115521 20.5874
1.21117 1.08851 16.2355
0.562384 0.184378 20.9297
0.700164 0.650217 18.4782
-0.857082 0.00699875 19.7909
-0.422363 0.0695763 19.8177
-0.486687 0.000970048 19.5698
-1.15342 -0.128015 20.88
-1.30827 0.22805 20.1493
-0.410935 -0.229785 21.3217
-0.906588 -0.0660491 21.0838
0.511394 -0.0721409 21.4546
-0.0966326 -0.139879 21.4303
1.1942 -0.0672086 20.9117
0.800866 -0.299374 21.1909
1.08362 0.00662007 21.0355
1.04649 -0.301561 20.6271
1.97515 0.33258 16.0045
0.676475 -0.242852 20.3035
0.761019 0.145228 18.5169
-0.74498 0.246895 19.8433
-0.430196 0.194599 19.6442
-1.12263 0.264082 20.7186
-1.7058 0.946147 19.8805
-0.596724 -0.0203967 21.3253
-1.60457 0.319051 21.1379
0.278794 -0.232066 21.3438
-0.229531 -0.105976 21.7036
0.694342 -0.331733 20.9331
0.71458 -0.617045 21.1571
0.606694 -0.317093 20.5374
0.804856 -0.669453 20.465
0.571714 -0.411036 20.2018
-1.25258 -0.655776 18.5634
-0.435345 -0.109519 19.348
-0.00409437 -0.221863 19.0615
-0.222819 -0.245067 9.46199
-0.00920967 -8.94244 13.6744
-0.0174139 -0.0171747 15.4991
-0.00102132 -0.176314 11.5638
-0.157764 0.410994 13.731
0.00286899 -0.0727828 12.9763
0.0228062 1.23354 14.1655
-0.0455933 0.425063 9.36934
0.404636 0.785038 15.7247
0.373309 1.20849 12.2917
0.0695882 0.748103 11.2012
0.392224 0.775351 15.0753
-0.135275 0.2828 12.5416
-0.440105 -0.0384639 19.331
-0.00434243 -0.109814 19.0044
1.27322 0.671106 11.3742
1.21321 0.951662 6.5994
0.293309 -0.0158252 2.86795
1.50777 0.39245 10.0032
-0.188758 0.0556182 11.2588
-0.4242 0.146215 19.3414
-0.00117819 -0.0154047 18.9756
1.94612 0.286279 8.88685
1.64769 -0.481299 11.8232
-0.0134597 -1.46092 -1.52563
0.755087 -0.425372 14.1412
-0.17763 -0.418286 8.92896
-1.00064 0.816156 18.9013
0.00968152 0.358627 19.1426
-2.08128 1.65876 20.8055
0.116535 4.66365 18.8943
-1.7909 0.288311 21.1923
0.0665686 4.18336 15.9975
0.819547 -0.407046 18.889
0.0113816 -0.0643243 1.94134
1.07893 -0.940538 18.6896
0.0695346 -0.666765 7.50273
0.865808 -0.6229 19.4363
0.064598 -1.08312 11.4525
0.0323432 -0.917874 11.0125
1.25569 -0.656287 18.5532
0.43521 -0.109852 19.3247
0.464535 -0.110372 19.5919
0.222344 -0.246174 9.44674
2.41352 -0.918234 19.8615
0.0060481 -0.0284652 14.7804
0.379891 -0.384451 21.2787
0.17308 0.300517 12.7613
0.0405257 0.0796238 20.5748
-0.00354378 1.20726 13.9147
-0.678024 1.25527 18.3123
-0.734535 0.69245 14.6925
-0.651134 1.21294 13.4208
-0.84214 0.901323 19.1372
-0.707209 0.728817 15.0778
-0.437703 0.859375 20.7804
0.439511 -0.039259 19.3123
0.479946 -0.0513637 19.5627
-1.05341 0.732697 11.8317
-1.36828 0.833996 10.3839
-1.24021 0.876308 17.6799
-1.2822 0.330895 13.889
-0.788065 0.528163 20.8429
0.426948 0.142148 19.3585
0.485694 -6.85627e-05 19.5637
-1.45851 0.26005 11.681
-1.69616 -0.464672 13.2949
-1.75497 0.273804 18.1633
-0.417117 -0.294618 15.5807
-1.00405 0.00628115 20.6926
1.01587 0.777022 18.9913
0.429385 0.18413 19.6744
2.08412 1.50887 20.8201
1.6273 0.851384 19.9263
1.8239 0.29057 21.0506
1.55373 0.300309 21.1349
-0.990129 -0.347996 17.394
0.249536 -0.109782 21.7464
-1.05087 -0.939958 17.5855
-0.731396 -0.690153 21.1368
-0.841101 -0.619752 19.1418
-0.892776 -0.645621 20.4167
-0.28525 -0.322373 20.4579
0.828725 -0.170708 19.8199
0.425223 -0.0357192 19.8101
0.975033 -0.384731 20.9477
1.33951 -0.264181 20.1903
0.201569 -0.181218 21.2485
0.501788 -0.312243 21.1518
-0.367943 0.268754 21.4019
-0.0292753 -0.00976778 21.3592
-0.847017 0.542411 20.888
-0.919274 0.517465 21.0963
-0.801423 0.390805 20.3953
-0.973318 0.38525 20.6883
-0.871198 0.213778 20.1844
0.860828 -0.0901056 19.7875
0.429829 -0.00673864 19.7949
1.0721 -0.304537 20.947
1.37218 -0.0967303 20.181
0.236263 -0.218652 21.2714
0.660294 -0.293489 21.1287
-0.497223 0.189286 21.4315
-0.0280991 -0.105622 21.435
-1.05101 0.447099 20.8361
-1.11192 0.182041 21.0683
-0.915505 0.410996 20.506
-1.0641 0.144168 20.6335
-0.917359 -0.0280761 20.2259
0.86004 0.00900739 19.7865
0.421598 0.0689507 19.8157
1.15474 -0.127142 20.8809
1.25874 0.22319 20.1579
0.409293 -0.228317 21.3194
0.892118 -0.0639377 21.0808
-0.500115 -0.0718847 21.4567
0.0989197 -0.143606 21.4379
-1.09382 -0.0769887 20.8921
-0.822657 -0.313084 21.1935
-0.756206 -0.0465443 20.8817
-0.979668 -0.337757 20.7607
-1.01279 -0.159273 20.1093
0.721441 0.234486 19.8737
1.085 0.249522 20.715
0.604582 -0.0231207 21.3307
-0.294612 -0.252119 21.3561
-0.691613 -0.389282 20.9172
-0.579672 -0.289524 20.6218
-0.836066 -0.127377 19.8162
-1.31335 -0.482812 18.4414
-1.09862 -0.353648 19.3628
-1.19208 -0.191484 19.2922
-0.478106 -0.0742338 19.5817
-2.67129 -0.738616 19.7656
-1.01628 -0.347012 20.9536
-0.0102286 -0.00648238 0.405364
-1.30672 -0.753715 21.4716
-1.44438 -0.647053 21.5332
-0.36575 -0.440185 21.2244
-0.213036 -0.195057 21.2531
0.0340214 0.00112278 9.08682
-0.115254 -0.1289 21.0629
0.0220264 -0.224287 20.2919
0.00171398 0.105083 20.0251
0.427808 0.232373 21.4224
-0.269577 0.207314 6.92011
0.337246 0.583419 20.1515
0.526263 0.795052 16.0159
0.944416 1.33975 16.6348
0.994928 0.534905 20.7968
-0.0966143 1.03627 9.45113
0.881244 1.12983 19.2086
1.25504 1.27011 15.3265
0.982873 1.05653 17.1023
0.720719 0.379677 21.2149
0.838929 0.728072 13.5495
0.860882 0.681461 19.4379
1.29045 0.527075 15.7581
0.656882 0.775389 18.789
-0.866951 -0.043867 19.7777
-1.38304 -0.189528 18.3289
-1.2132 0.00959776 19.2605
-0.484966 -0.0247108 19.5728
-2.94057 -0.241622 19.6789
-1.10809 -0.222908 20.9216
-1.84124 -0.343717 21.3184
-0.675169 -0.744195 21.3339
-0.313369 -0.251362 21.3065
-0.507155 -0.592831 21.0466
0.195184 0.0813745 19.6891
0.540288 0.0526808 21.4436
0.839414 0.320773 18.6422
1.60597 0.922573 12.5898
1.26836 0.206013 20.754
0.558071 0.587145 3.14577
1.86326 0.392116 16.476
1.65331 0.874506 16.7886
1.08626 0.375735 20.8656
1.95215 0.670214 8.38681
1.5217 0.177248 15.6693
0.72752 0.3992 18.5252
-0.816685 0.148072 19.8134
-1.26053 0.54072 18.4932
-0.934257 0.469883 19.4825
-0.467272 0.118535 19.5969
-2.39087 0.757016 19.7421
-1.20513 0.0984342 20.775
-2.69387 1.03057 18.6349
-1.68455 0.68033 20.8045
-1.62448 -0.2384 21.2702
-0.550543 -0.147453 21.343
-0.300636 0.314049 11.8333
-1.0074 0.0584681 21.6299
-0.182313 -0.234838 21.5201
0.377941 -0.18658 21.4013
1.62263 0.775516 10.4315
0.384249 -0.372597 21.5337
1.25051 -0.490226 19.9306
0.976189 -0.300226 20.8592
1.30308 -0.405793 10.0804
0.809837 -0.72248 20.9521
1.43497 -0.487431 19.0704
0.85429 -0.258874 20.8148
1.4563 -0.284667 13.9086
0.81927 -0.494186 20.5001
0.767241 -0.285552 19.0885
1.3149 -0.484607 18.4215
-0.00192028 -1.21915 17.2562
-0.0105515 -0.675653 16.8932
-0.00424752 -0.157068 19.0344
-0.005954 -1.31723 1.66984
0.0100535 -0.00654073 0.397637
-0.000305762 -0.155177 6.47604
0.000347397 -0.0547122 4.94696
-0.0488146 0.00139997 8.55046
0.00365789 -0.110806 12.0562
0.00265835 -0.0113242 6.82106
0.253882 0.149232 6.4767
-0.006462 0.071635 10.9794
-0.0235201 0.276231 3.37314
0.0167184 1.10111 9.87146
-0.00463076 0.317759 9.90571
0.0267677 -0.410304 0.0073717
0.146939 0.514388 6.56343
-0.901937 0.709935 13.2215
-0.241447 0.818176 12.7087
-0.0919356 0.695378 9.22829
-0.163789 0.166716 11.912
1.38453 -0.196046 18.3025
-0.00505084 0.0269745 16.8179
-0.00210745 -0.0663355 18.9631
-0.816964 0.736173 4.51636
-0.166956 -0.48941 -2.72583
0.267487 -1.58788 -1.95645
-1.50092 0.619406 11.2433
-0.233795 -0.651902 3.90921
-0.183194 -0.181334 10.0939
1.26796 0.527043 18.5503
0.0481294 1.38069 18.1115
0.00492416 0.207353 19.0538
0.114371 9.50529 16.6815
2.76822 0.987346 19.2723
0.0692154 3.02735 20.4544
0 0 0
0.227045 0.396469 11.244
0 0 0
0 0 0
-1.5791 0.748907 8.61903
0.0181996 -0.342093 4.96231
-0.0174222 0.470384 -0.434194
-1.32402 -0.407619 10.1467
0.0644846 -0.919159 9.5424
-0.0627761 -0.890555 2.31018
-1.15066 -0.243992 14.7098
-0.238963 -1.66086 11.6357
-0.0679682 -0.812987 7.05148
0.844776 -0.130407 19.8037
1.10511 -0.357553 19.355
1.20114 -0.193079 19.2703
0.47463 -0.0762513 19.5729
2.67246 -0.736717 19.7661
1.02531 -0.352783 20.9554
1.3129 -0.762227 21.4838
1.44944 -0.651919 21.545
0.355196 -0.440554 21.1881
0.211422 -0.200734 21.2566
0.110634 -0.116395 20.9446
-0.0207531 -0.224646 20.2803
0.0126675 0.115561 19.6662
-0.432102 0.240031 21.4158
-0.283501 0.6312 19.5152
-0.529932 0.787248 16.219
-0.886319 1.39851 15.7951
-0.971933 0.511281 20.8353
-0.88046 1.14397 19.1421
-1.3837 1.22566 16.7905
-1.02395 0.892363 18.1054
-0.936315 0.431984 20.3458
-0.561034 0.764289 20.992
-1.00559 0.595903 19.7632
-0.61288 0.693765 20.8117
0.872729 -0.0445925 19.771
1.21721 0.00866428 19.2518
0.48282 -0.0257161 19.5632
2.95707 -0.244435 19.6693
1.11415 -0.224196 20.9246
1.84162 -0.343839 21.3184
0.675753 -0.744866 21.3287
0.311513 -0.251714 21.3087
0.509034 -0.589486 21.0795
-0.194249 0.0724125 19.7442
-0.530387 0.0495199 21.4438
-0.834603 0.288658 18.8171
-1.62448 0.917998 13.0016
-1.18292 0.197611 20.8204
-1.77986 0.293022 17.8739
-1.76043 0.726065 18.3947
-0.753642 0.169014 20.8212
-1.35027 0.155882 19.2925
-1.10663 0.213292 20.8908
0.798358 0.146146 19.8304
0.917747 0.43159 19.5462
0.468956 0.116912 19.6131
2.28855 0.698279 19.7913
1.18407 0.0985369 20.7743
1.62172 0.616731 20.7944
1.58576 -0.228751 21.2642
0.551486 -0.146292 21.3443
1.02763 0.0608716 21.6441
0.190801 -0.241955 21.4322
-0.392102 -0.193109 21.4104
-0.403812 -0.407733 21.5478
-1.30062 -0.456769 19.4546
-0.955151 -0.318061 20.8283
-0.835478 -0.747532 20.9021
-1.31101 -0.519316 19.8519
-0.777722 -0.202864 20.7486
-0.84041 -0.536883 20.0276
-0.41767 -0.279424 20.1518
-1.16474 -0.269533 19.3267
-1.38444 -0.697465 21.5296
-0.0452732 -0.16073 20.7104
0.418669 0.694152 18.4212
1.03306 1.25986 17.7901
1.07566 0.604268 17.598
-1.19333 -0.0920341 19.2507
-1.6389 -0.549237 21.5149
-0.106003 -0.464272 20.3908
0.757622 0.597155 17.24
1.72035 0.923572 15.0508
1.523 0.537906 15.463
-1.11382 0.316234 19.3367
-1.97232 0.240957 21.0398
-0.941118 -0.324092 21.5683
0.619287 -0.297978 20.9402
1.35196 -0.528506 19.68
1.14542 -0.381274 19.4152
-0.0077771 -0.97665 17.0207
-5.91001e-05 -0.00712653 0.550296
0.00191672 -0.0225953 5.8537
-0.0038441 0.0209557 5.21292
-0.0116843 -0.071264 4.33926
-0.166692 0.756776 10.9685
-0.00757423 -0.303742 16.9341
0.0146259 -0.769864 -3.20192
-0.207105 -0.282303 3.41155
0.0274803 1.02218 17.2537
0.0389743 0.990105 8.06099
0 0 0
-0.00943384 0.2878 -0.594035
-0.0491957 -0.450674 0.880366
-0.310078 -1.63732 5.57467
1.17463 -0.27481 19.314
1.39009 -0.702283 21.542
0.0322271 -0.150752 20.483
-0.383795 0.737646 17.7807
-1.09058 1.23136 18.3538
-0.783315 0.680095 20.3776
1.19923 -0.0926935 19.2333
1.64259 -0.552599 21.5223
0.108397 -0.464999 20.4082
-0.765024 0.583334 17.4648
-1.73215 0.82216 16.794
-1.46476 0.461284 18.9477
1.09483 0.306606 19.3815
1.92175 0.223909 21.0237
0.94835 -0.328053 21.5619
-0.670234 -0.251428 20.573
-1.3569 -0.527655 19.7444
-1.20817 -0.490955 20.0036
-2.19361 -1.15975 3.82164
0 0 0
-0.190204 -0.337502 1.35253
-0.104276 -0.0794277 -0.0718955
-0.0268735 0.00402631 0.0526621
-0.00844036 0.00774168 0.0873653
-3.82789 -0.00615648 4.61896
0 0 0
-0.264457 -0.0123308 1.17864
-0.010343 -0.000773873 0.00187579
0 0 0
0.0989914 -0.0600171 0.456647
0 0 0
2.20769 -1.16034 3.8394
0.187753 -0.340505 1.36194
0.0277701 0.00419689 0.0534512
0.103218 -0.0779389 -0.0709092
0.00872264 0.00809675 0.0910218
0 0 0
3.81609 -0.00589368 4.58853
0.262724 -0.0124918 1.17415
0 0 0
0.0087847 -0.000597711 0.00340748
-0.0984487 -0.0605152 0.455196
0.0372914 0.0316667 1.44805
0.00262703 -0.000391259 0.0956251
0.000479669 -0.00324912 0.115885
2.3932e-05 -9.15566e-06 0.00874979
-0.000916385 0.000306993 0.0232257
0.00469206 0.000362463 0.310645
-0.00296149 0.00803521 0.118754
0 0 0
-0.129429 -0.257073 0.895707
1.46997e-07 -1.1609e-06 -0.00012726
0.01252 0.0936512 0.679788
-0.397327 0.135149 0.675203
0.0311692 0.0470724 0.218974
5.40021e-05 0.00119307 0.00496816
0.0456155 0.055374 0.275906
0.0926405 0.0265054 0.47556
-0.0357743 0.0306901 1.37752
-2.48111e-05 -6.82635e-06 0.00868961
-0.00264066 -0.000403172 0.0968763
-0.000475181 -0.00324591 0.11593
0.00101166 0.000328974 0.0257501
0 0 0
-0.00474252 8.99054e-05 0.323076
0.00342167 0.00788751 0.120042
0.129903 -0.258796 0.899032
0.402472 0.134552 0.676029
-1.90216e-07 -1.50873e-06 -0.00016374
-0.01253 0.0937503 0.679762
-0.0312116 0.0470832 0.218794
-0.0920543 0.0265657 0.472092
-5.52572e-05 0.0012171 0.00505727
-0.0454587 0.0552361 0.275237
-6.25767e-18 6.16641e-18 4.63526e-17
-0.0629397 -0.0200453 0.0759331
0 0 0
0.00187376 -4.10621 4.88095
-0.000885182 -0.00575655 0.0672286
-0.000535754 -0.000189663 0.0161212
0 0 0
0 0 0
3.16424e-06 0.000258715 0.00422123
-0.000404906 -0.189023 -0.101105
0.00663687 0.0156731 0.197551
0 0 0
0 0 0
6.1512e-05 0.0315471 0.209235
-4.87115e-05 -0.000170652 0.00259005
-0.0323219 0.0105179 0.128718
-0.00672819 0.00379452 -0.0717434
3.27448e-05 0.000684101 -0.0108929
6.22537e-08 5.65638e-07 4.40231e-06
3.57311e-18 -1.47951e-19 3.81425e-18
0.0510278 -0.016133 0.0613902
0 0 0
0.000533128 -0.000189291 0.0162357
0.000888247 -0.00576934 0.0673462
0 0 0
0 0 0
0 0 0
-0.00694512 0.016589 0.20912
0.0321759 0.0105457 0.128756
4.81005e-05 -0.000167482 0.00254511
0 0 0
3.40597e-08 -3.09429e-07 -2.40899e-06
-0.000332251 0.00981288 0.107177
0 0 0
0 0 0
1.29475e-06 3.37619e-05 0.000333087
2.17673e-07 -5.17165e-06 0.000854658
2.31308e-07 -2.68692e-07 0.000116408
1.68957e-06 0.000189389 0.000925177
0.000385256 0.00118643 0.0105101
7.25197e-08 -6.53393e-08 3.66676e-05
-7.62898e-09 -2.33872e-08 2.82362e-05
1.37026e-07 7.26341e-06 3.42061e-05
-0.0047058 0.020585 0.297215
0 0 0
1.15076e-05 0.0550392 0.174196
-2.87411e-06 -0.000277574 0.0631501
-1.1968e-05 -0.00106466 0.00237491
0 0 0
0.000330817 0.009843 0.107336
0 0 0
-8.23375e-07 2.14512e-05 0.000211511
-2.16784e-06 0.000240289 0.00117467
-0.000238681 0.000732775 0.00649888
0.0046821 0.020573 0.296882
-2.91934e-08 1.62002e-06 7.60235e-06
4.02786e-17 -2.89216e-17 -3.07671e-16