# vtk DataFile Version 2.0
tet_velo
ASCII
DATASET UNSTRUCTURED_GRID
POINTS 29498 float
-0.694283 0.345 -1.925
-0.895 0.345 1.67009
-0.815 1.12186 -1.735
-0.465 1.64036 1.805
0.694283 0.345 -1.925
0.895 0.345 1.67009
0.815 1.12186 -1.735
0.485 1.635 1.79833
-0.763166 0.343023 -0.726637
-0.829814 0.34328 0.471727
-0.745781 1.34214 -0.555
-0.678567 1.56443 0.625
0.763167 0.343022 -0.726637
0.829816 0.343279 0.471727
0.747219 1.33513 -0.557223
0.683043 1.552 0.620553
-1.41538 -0.238868 -2.95897
-1.43597 -0.157904 -2.00823
-1.48189 -0.161707 -0.809178
-1.51887 -0.204615 0.393962
-1.54382 -0.219384 1.59337
-1.56246 -0.178656 2.54582
-1.58001 -0.112614 3.49518
-1.4289 0.223601 -2.87108
-1.44763 0.328577 -1.92244
-1.48928 0.366266 -0.727002
-1.50948 0.378515 0.470389
-1.51005 0.383767 1.66618
-1.54986 0.425753 2.61814
-1.58063 0.487754 3.56799
-1.48119 1.09462 -2.68961
-1.52042 1.19196 -1.73999
-1.47832 1.38005 -0.557113
-1.38598 1.56539 0.624721
-1.24331 1.64068 1.80781
-1.40887 1.6729 2.75949
-1.53253 1.71334 3.71174
-1.50904 2.57154 -2.43179
-1.52231 2.70116 -1.48499
-1.49676 2.94779 -0.308881
-1.44437 3.21178 0.863231
-1.41305 3.38389 2.0393
-1.45122 3.45647 2.98601
-1.52334 3.50391 3.93653
-0.675453 -0.229296 -2.96067
-0.693725 -0.142507 -2.01056
-0.736589 -0.17067 -0.809589
-0.776818 -0.231804 0.395507
-0.815825 -0.25199 1.59657
-0.850071 -0.202885 2.54748
-0.871049 -0.129358 3.49558
-0.68036 0.223782 -2.87191
-0.883165 0.404855 2.6189
-0.891692 0.473447 3.56779
-0.725903 1.06391 -2.68769
-0.768111 1.66738 2.75717
-0.869297 1.70737 3.70994
-0.766895 2.54217 -2.43015
-0.786516 2.66928 -1.48325
-0.775744 2.92903 -0.308465
-0.750558 3.21322 0.861553
-0.743308 3.39191 2.03625
-0.784143 3.46216 2.98296
-0.849154 3.50652 3.93393
0.779439 -0.230613 -2.96115
0.741645 -0.143224 -2.01082
0.781229 -0.171443 -0.809891
0.839096 -0.232584 0.395121
0.861643 -0.252794 1.596
0.702242 -0.204849 2.54587
0.603573 -0.132194 3.4934
0.782077 0.222727 -2.87228
0.626841 0.402693 2.61685
0.550279 0.470389 3.5653
0.804401 1.06258 -2.68816
0.487344 1.66323 2.75303
0.482586 1.70342 3.70667
0.733641 2.53876 -2.43141
0.709768 2.66516 -1.48476
0.680509 2.92319 -0.31071
0.632897 3.20623 0.858378
0.568937 3.38557 2.0325
0.528733 3.45667 2.9793
0.494386 3.50159 3.9306
1.51311 -0.242353 -2.96025
1.48124 -0.16103 -2.00935
1.52292 -0.165595 -0.810669
1.58341 -0.208748 0.391884
1.58828 -0.223056 1.59067
1.45994 -0.183495 2.54207
1.35156 -0.118618 3.49075
1.512 0.220319 -2.87225
1.46076 0.325362 -1.92353
1.49905 0.361227 -0.728801
1.54153 0.372812 0.467573
1.53187 0.379684 1.66254
1.3876 0.420412 2.61355
1.29404 0.48132 3.563
1.53626 1.09062 -2.69102
1.51741 1.18722 -1.74157
1.47373 1.36921 -0.560826
1.40272 1.55061 0.618286
1.25205 1.63096 1.79939
1.21344 1.66459 2.7522
1.19849 1.70534 3.70547
1.47895 2.56448 -2.43444
1.45423 2.6928 -1.48811
1.41119 2.9366 -0.313284
1.34135 3.19874 0.857229
1.25707 3.37179 2.03229
1.21283 3.44573 2.97909
1.18513 3.49414 3.9301
-0.799175 0.73343 -1.87453
0 0.341447 -1.92855
-0.729939 0.342797 -1.32582
-0.765531 0.99268 1.82308
0 0.341077 1.67401
-0.863276 0.343272 1.07091
0 1.16753 -1.78067
-0.764671 1.21628 -1.145
0.01 1.66487 1.82886
-0.601019 1.63163 1.215
0.7992 0.73343 -1.87456
0.72994 0.342796 -1.32582
0.768544 0.99 1.81275
0.863276 0.343271 1.07091
0.768094 1.21548 -1.14611
0.613428 1.6229 1.20944
-0.796476 0.343166 -0.127455
-0.84032 0.842582 -0.640818
4.98518e-07 0.34053 -0.726637
-0.79984 0.953854 0.548363
7.3189e-07 0.340598 0.471727
-0.717042 1.45815 0.035
0.000719126 1.55612 -0.556112
0.00223806 1.66979 0.622777
0.796478 0.343164 -0.127455
0.840558 0.839074 -0.64193
0.800613 0.947638 0.54614
0.720395 1.44882 0.031665
-0.896072 0.788006 -1.23541
-0.80559 0.898218 -0.0462275
-0.846051 0.973267 1.14295
2.49259e-07 0.340441 -1.32582
6.15204e-07 0.340569 -0.127455
3.65945e-07 0.340561 1.07091
0 0.73343 -2.11748
0.005 0.99134 2.10847
0.000359563 1.24541 -1.14556
0.00147859 1.66955 0.0333325
0.00611903 1.66991 1.21222
0.896089 0.786252 -1.23597
0.806235 0.893356 -0.047895
0.847116 0.968819 1.14018
-1.07096 0.336789 -1.92372
-0.694004 0.101247 -1.96778
-0.687322 0.284391 -2.39845
-1.20253 0.364384 1.66814
-0.855412 0.0465052 1.63333
-0.889083 0.374927 2.1445
-1.16771 1.15691 -1.73749
-0.770451 1.09288 -2.21135
-0.800758 1.89557 -1.60913
-0.854155 1.64052 1.8064
-0.616556 1.65387 2.28109
-0.604154 2.51613 1.92063
0.717964 0.100888 -1.96791
0.73818 0.283863 -2.39864
1.07752 0.335181 -1.92426
0.878322 0.046103 1.63304
0.76092 0.373847 2.14347
1.21344 0.362342 1.66631
0.8097 1.09222 -2.21158
0.762384 1.89351 -1.60988
1.16621 1.15454 -1.73829
0.486172 1.64911 2.27568
0.526969 2.51028 1.91541
0.868527 1.63298 1.79886
-1.12622 0.354644 -0.726819
-0.749877 0.0861764 -0.768113
-1.16965 0.360898 0.471058
-0.803316 0.055738 0.433617
-1.11205 1.36109 -0.556056
-0.760763 2.13558 -0.431732
-1.03227 1.56491 0.624861
-0.714563 2.38882 0.743277
0.772198 0.0857897 -0.768264
1.13111 0.352125 -0.727719
0.834456 0.0553475 0.433424
1.18567 0.358045 0.46965
0.713864 2.12916 -0.433967
1.11048 1.35217 -0.559025
0.65797 2.37911 0.739466
1.04288 1.5513 0.61942
-1.42568 -0.198386 -2.4836
-1.42214 -0.00763362 -2.91503
-1.04542 -0.234082 -2.95982
-1.45893 -0.159806 -1.40871
-1.4418 0.0853364 -1.96533
-1.06485 -0.150206 -2.00939
-1.50038 -0.183161 -0.207608
-1.48558 0.10228 -0.76809
-1.10924 -0.166188 -0.809384
-1.53135 -0.212 0.993664
-1.51418 0.08695 0.432175
-1.14784 -0.21821 0.394734
-1.55314 -0.19902 2.06959
-1.52694 0.0821915 1.62977
-1.17982 -0.235687 1.59497
-1.57124 -0.145635 3.0205
-1.55616 0.123549 2.58198
-1.20627 -0.190771 2.54665
-1.58032 0.18757 3.53159
-1.22553 -0.120986 3.49538
-1.43826 0.276089 -2.39676
-1.45504 0.65911 -2.78035
-1.05463 0.223691 -2.87149
-1.46845 0.347421 -1.32472
-1.48402 0.76027 -1.83121
-1.49938 0.372391 -0.128306
-1.4838 0.873157 -0.642057
-1.50977 0.381141 1.06828
-1.44773 0.971952 0.547555
-1.52995 0.40476 2.14216
-1.37668 1.01222 1.73699
-1.56524 0.456754 3.09307
-1.47936 1.04933 2.68881
-1.21651 0.415304 2.61852
-1.55658 1.10055 3.63987
-1.23616 0.4806 3.56789
-1.5008 1.14329 -2.2148
-1.49512 1.83308 -2.5607
-1.10355 1.07926 -2.68865
-1.49937 1.28601 -1.14855
-1.52137 1.94656 -1.61249
-1.43215 1.47272 0.0338044
-1.48754 2.16392 -0.432997
-1.31464 1.60303 1.21626
-1.41517 2.38859 0.743976
-1.32609 1.65679 2.28365
-1.32818 2.51228 1.92355
-1.4707 1.69312 3.23562
-1.43004 2.56468 2.87275
-1.08849 1.67014 2.75833
-1.52793 2.60862 3.82414
-1.20092 1.71036 3.71084
-1.51568 2.63635 -1.95839
-1.13797 2.55685 -2.43097
-1.50954 2.82448 -0.896935
-1.15442 2.68522 -1.48412
-1.47056 3.07979 0.277175
-1.13625 2.93841 -0.308673
-1.42871 3.29784 1.45126
-1.09746 3.2125 0.862392
-1.43213 3.42018 2.51265
-1.07818 3.3879 2.03777
-1.48728 3.48019 3.46127
-1.11768 3.45932 2.98448
-1.18624 3.50522 3.93523
-0.684589 -0.185901 -2.48561
-0.677906 -0.00275708 -2.91629
0.0519933 -0.229954 -2.96091
-0.715157 -0.156588 -1.41007
0.0239598 -0.142865 -2.01069
-0.756704 -0.201237 -0.207041
0.0223198 -0.171056 -0.80974
-0.796321 -0.241897 0.996038
0.0311389 -0.232194 0.395314
-0.832948 -0.227437 2.07202
0.022909 -0.252392 1.59628
-0.86056 -0.166122 3.02153
-0.866618 0.100985 2.58319
-0.0739149 -0.203867 2.54668
-0.88137 0.172044 3.53169
-0.133738 -0.130776 3.49449
-0.703131 0.643845 -2.7798
0.0508581 0.223254 -2.87209
-0.887429 0.439151 3.09335
-0.825638 1.03612 2.68804
-0.128162 0.403774 2.61788
-0.880494 1.09041 3.63887
-0.170707 0.471918 3.56655
-0.746399 1.80304 -2.55892
0.0392491 1.06324 -2.68793
-0.818704 1.68738 3.23356
-0.776127 2.56477 2.87007
-0.140384 1.6653 2.7551
-0.859225 2.60695 3.82193
-0.193355 1.7054 3.7083
-0.776705 2.60572 -1.9567
-0.0166271 2.54046 -2.43078
-0.78113 2.79915 -0.895857
-0.038374 2.66722 -1.48401
-0.763151 3.07112 0.276544
-0.0476178 2.92611 -0.309587
-0.746933 3.30256 1.4489
-0.0588305 3.20972 0.859966
-0.763725 3.42704 2.50961
-0.0871852 3.38874 2.03438
-0.816648 3.48434 3.45844
-0.127705 3.45942 2.98113
-0.177384 3.50406 3.93227
0.760542 -0.186919 -2.48598
0.780758 -0.00394284 -2.91671
1.14628 -0.236483 -2.9607
0.761437 -0.157333 -1.41035
1.11144 -0.152127 -2.01008
0.810162 -0.202013 -0.207385
1.15207 -0.168519 -0.81028
0.850369 -0.242689 0.995558
1.21125 -0.220666 0.393502
0.781942 -0.228821 2.07093
1.22496 -0.237925 1.59333
0.652907 -0.168521 3.01964
0.664541 0.098922 2.58136
1.08109 -0.194172 2.54397
0.576926 0.169098 3.52935
0.977568 -0.125406 3.49208
0.793239 0.642652 -2.78022
1.14704 0.221523 -2.87227
0.58856 0.436541 3.09108
0.557092 1.03296 2.68494
1.00722 0.411552 2.6152
0.516432 1.0869 3.63598
0.92216 0.475855 3.56415
0.769021 1.80067 -2.55979
1.17033 1.0766 -2.68959
0.484965 1.68332 3.22985
0.508038 2.55995 2.86616
0.850389 1.66391 2.75261
0.488486 2.60251 3.81863
0.840538 1.70438 3.70607
0.721704 2.60196 -1.95809
1.1063 2.55162 -2.43292
0.695138 2.79417 -0.897737
1.082 2.67898 -1.48644
0.656703 3.06471 0.273834
1.04585 2.92989 -0.311997
0.600917 3.2959 1.44544
0.987125 3.20248 0.857804
0.548835 3.42112 2.5059
0.913006 3.37868 2.03239
0.511559 3.47913 3.45495
0.870779 3.4512 2.97919
0.839757 3.49787 3.93035
1.49718 -0.201691 -2.4848
1.51256 -0.0110168 -2.91625
1.50208 -0.163313 -1.41001
1.471 0.0821662 -1.96644
1.55316 -0.187172 -0.209392
1.51098 0.0978161 -0.769735
1.58584 -0.215902 0.991275
1.56247 0.082032 0.429729
1.52411 -0.203275 2.06637
1.56008 0.0783144 1.6266
1.40575 -0.151056 3.01641
1.42377 0.118459 2.57781
1.3228 0.181351 3.52687
1.48638 0.272841 -2.39789
1.52413 0.655468 -2.78164
1.47991 0.343295 -1.32616
1.48909 0.756292 -1.83255
1.52029 0.36702 -0.130614
1.48639 0.865218 -0.644813
1.5367 0.376248 1.06505
1.47213 0.961709 0.54293
1.45974 0.400048 2.13804
1.39196 1.00532 1.73096
1.34082 0.450866 3.08827
1.30052 1.0425 2.68287
1.24627 1.09333 3.63423
1.52684 1.13892 -2.2163
1.50761 1.82755 -2.56273
1.49557 1.27822 -1.1512
1.48582 1.94001 -1.61484
1.43823 1.45991 0.0287304
1.44246 2.1529 -0.437055
1.32739 1.59078 1.20884
1.37204 2.37467 0.737758
1.23274 1.64778 2.27579
[...]
POINT_DATA 29498
VECTORS point_vectors float
-1.78063 -4.82079 9.2085
0.375891 0.463955 5.56614
-2.07489 1.05595 6.42563
-0.380171 -0.0597332 0.532099
1.78075 -4.82109 9.20758
-0.352991 0.468529 5.52239
2.07199 1.05734 6.4238
0.333793 -0.0304908 0.577208
-0.0071524 0.0023527 0.0989115
0.0922969 -0.0905115 1.96186
0.00318998 -0.000174573 0.129133
0.0169198 0.031773 0.262568
0.00670737 0.00221124 0.0960472
-0.093059 -0.0909227 1.94837
-0.0040578 0.00211936 0.105025
-0.0197578 0.049012 0.356342
-0.661913 -0.509778 19.9405
-1.17537 -1.00688 20.6625
-0.473498 -0.497887 21.5388
-0.022523 -0.180533 21.6137
0.41114 0.0970374 21.7291
0.789651 0.288512 21.5217
0.848895 0.360468 21.1937
-1.03136 -0.49742 19.6737
-2.15819 -1.01419 20.6774
-0.647361 -0.599523 21.7271
-0.120677 -0.394145 21.7114
0.621148 -0.157295 21.9552
1.13553 -0.0638162 21.5735
1.29874 -0.163771 21.4839
-1.36383 0.231321 19.6032
-2.10284 0.357931 20.7803
-1.33146 -0.232853 21.6234
-0.625507 -0.34068 21.8755
-0.0885464 -0.755784 21.8857
0.316073 -0.841992 21.6772
0.639009 -0.891545 21.7085
-0.504681 0.4009 20.257
-0.619377 0.43534 20.7262
-0.48285 0.254574 21.1067
-0.246119 -0.00496049 21.5186
-0.0484317 -0.0848992 21.5366
0.0877477 -0.0973209 21.2308
0.0546817 -0.0615098 20.8073
-0.595565 -1.00784 19.4595
-1.23302 -2.82825 20.7963
-0.283447 -0.637471 21.9663
0.0185659 -0.15298 21.8599
0.354719 0.457501 22.0972
0.749153 1.04254 21.6901
1.04018 1.20111 21.3444
-1.07086 -1.13918 18.5485
2.01566 1.04684 13.4197
2.41327 1.11951 16.9768
-1.93664 0.945306 17.6021
-0.322831 -1.14606 14.2477
0.447959 -1.43825 16.6181
-0.445453 0.812953 20.051
-0.543918 0.936865 20.6218
-0.438858 0.600494 21.2034
-0.20954 0.0549849 21.7279
-0.0897508 -0.0853746 21.5389
0.042555 -0.106458 21.2359
0.0449637 -0.124164 20.8488
0.646518 -0.938808 19.5231
1.32306 -2.73321 20.767
0.297425 -0.628496 21.9373
-0.0258703 -0.158481 21.8273
-0.371624 0.426429 22.0641
-0.600107 1.16231 21.6827
-0.921668 1.66776 20.9037
1.15261 -1.05515 18.7116
-1.27578 1.07818 6.97815
-2.29559 2.45846 11.8199
1.97174 0.825975 17.8516
1.18893 -0.37941 4.69224
0.387303 -1.49262 9.91877
0.43676 0.825406 20.0416
0.514337 0.995897 20.6027
0.392338 0.624249 21.1959
0.173576 0.0681409 21.6328
0.065128 -0.0798427 21.4875
-0.0114984 -0.0880647 21.2868
-0.0114577 -0.148854 20.942
0.63832 -0.46124 19.9671
1.15032 -0.9294 20.6673
0.497781 -0.476108 21.5071
0.0281798 -0.196604 21.58
-0.389219 0.0616279 21.7412
-0.813757 0.353255 21.5355
-0.985783 0.583547 21.1709
0.985709 -0.437488 19.7625
2.11701 -0.991699 20.6773
0.650492 -0.590266 21.7223
0.129578 -0.377803 21.6914
-0.58262 -0.166235 21.9252
-1.39485 0.00343207 21.638
-1.86176 0.172098 20.3311
1.30857 0.18312 19.6933
2.11497 0.357729 20.7858
1.34076 -0.248157 21.6278
0.618516 -0.344227 21.8536
0.0937533 -0.739365 21.8845
-0.238598 -1.02095 21.2834
-0.715691 -0.932753 20.1331
0.517553 0.422929 20.2412
0.637719 0.475653 20.7051
0.510345 0.283878 21.1178
0.259599 0.0172075 21.61
0.0895765 -0.0799526 21.5575
-0.0452119 -0.112831 21.2216
-0.0364476 -0.105841 20.7046
-0.495875 0.00555627 0.830327
-3.84345e-05 -0.0430568 0.335633
-0.0128194 0.00159134 0.122013
0.0139396 -0.0242011 0.0374096
-0.00700804 0.0226645 0.291664
0.0153866 -0.0155673 0.766638
-1.90033e-06 0.00330953 0.013638
-0.205217 -0.0575195 0.245875
-0.0176887 0.35709 0.143926
-0.0060935 -0.00570061 0.209567
0.487292 0.00536536 0.818438
0.0126608 0.00157686 0.121298
-0.0162745 -0.025586 0.064156
-0.0151618 -0.015455 0.760678
0.102947 -0.0554966 0.192224
-0.000148888 -0.0008831 0.285476
0.00533647 -0.00119236 0.195046
0.000438142 -0.00891072 0.0448674
0 0 0
6.21039e-19 1.5306e-17 5.62927e-17
9.46361e-09 -8.03469e-09 -9.68296e-06
0.0049227 0.014781 0.0620415
-7.6006e-05 0.171474 0.362756
-4.62843e-05 2.16827e-05 0.00534948
-0.00535268 -0.00117525 0.189379
-0.000366652 -0.00723686 0.0362465
0 0 0
-0.00504162 0.0163236 0.070508
-6.11115e-05 -0.0002412 0.00216139
0 0 0
0 0 0
-6.83084e-10 3.43393e-08 3.67269e-06
9.77766e-09 -4.1364e-08 -2.04726e-05
1.09744e-07 -3.92022e-08 -3.24817e-05
-0.000800556 -0.0303315 0.0256664
-0.00312012 -0.13963 0.033163
0 0 0
3.91025e-06 0.000803946 0.0271207
1.16645e-05 4.14622e-06 0.00965542
6.53479e-05 -0.000254489 0.00233148
-5.89173e-05 0.000345227 0.00152585
0 0 0
-3.99219 -2.65733 20.5994
-2.10881 -4.8352 21.1296
-2.71783 -3.16297 17.4927
1.01676 0.060561 21.0287
0.610841 0.704033 20.8356
1.6643 1.06861 11.1912
-3.63935 1.07125 21.0383
-4.8131 3.14336 16.7011
-1.49921 1.89798 20.4679
0.0311546 -0.563338 15.3756
-0.85164 -0.651258 7.36126
-0.250142 -0.04401 21.7135
2.21392 -4.67942 21.0359
2.78202 -2.94053 17.7278
3.91727 -2.60205 20.6071
-0.616848 0.662043 20.9469
-0.880954 0.911736 5.95655
-0.988696 0.0375406 21.1873
4.72715 2.81001 17.081
1.47654 1.97358 20.4479
3.65402 1.07527 21.0344
1.40136 -0.416661 3.50365
0.231538 -0.000268734 21.7245
-0.0456029 -0.523607 15.6463
-0.272097 -0.705354 21.2146
-0.193792 -0.351721 20.7022
0.0376021 -0.393969 20.2234
0.107833 -0.0773124 20.1751
-2.29164 -0.799403 21.8643
-1.42841 1.59558 21.5698
-1.07974 -0.510031 21.4609
-0.512577 0.385593 21.8594
0.18751 -0.36154 20.7565
0.283649 -0.710675 21.2724
-0.111032 -0.0884617 20.3549
-0.02945 -0.418468 20.5524
1.42933 1.72478 21.5799
2.29891 -0.844146 21.8497
0.498152 0.429513 21.8665
1.07185 -0.535595 21.3858
-0.964858 -0.801277 20.145
-0.853122 -0.548625 19.8137
-0.678792 -0.771344 19.7122
-0.887873 -0.820305 21.3107
-1.63261 -1.08049 20.6681
-1.42804 -1.79536 20.6404
-0.184501 -0.278851 21.5716
-0.569528 -0.570641 21.6496
-0.397044 -0.6274 21.7595
0.177945 -0.0677281 21.7238
-0.0541499 -0.291674 21.6447
0.00787156 -0.204601 21.7134
0.620964 0.201522 21.6607
0.520229 -0.00846743 21.8181
0.439477 0.247941 21.9161
0.848707 0.298637 21.4351
0.960726 0.173544 21.5602
0.864163 0.65124 21.581
1.03751 0.184078 21.2893
1.10597 0.800461 21.2115
-1.66528 -0.805905 19.9058
-1.31815 -0.194194 19.5324
-1.17456 -0.783499 19.1818
-1.44035 -0.85474 21.6601
-2.58068 -0.282136 20.7487
-0.282697 -0.466295 21.6839
-0.966505 -0.548216 21.7742
0.131842 -0.311858 21.9024
-0.337404 -0.453952 21.8179
0.94507 -0.0923356 21.7711
0.592816 -0.691494 21.9388
1.31965 -0.0691499 21.291
1.0219 -0.714881 21.645
1.7438 0.230217 20.9917
1.25487 -0.622077 21.3027
2.0064 0.254656 19.9974
-1.96176 0.3722 20.0029
-0.940433 0.534671 19.9612
-1.79692 0.474065 18.8452
-1.68932 0.0332473 21.3922
-1.19859 0.648673 20.6511
-0.97282 -0.329569 21.8069
-0.953399 0.358803 21.3413
-0.352459 -0.494842 21.9583
-0.456092 0.0385714 21.6439
0.125685 -0.812131 21.7463
-0.147346 -0.218393 21.5895
0.482718 -0.809974 21.3437
0.0131013 -0.351504 21.3096
0.179199 -1.08353 20.8575
0.105546 -0.346408 21.1501
0.707681 -0.941813 20.0925
-0.569778 0.445074 20.4436
-0.523711 0.618248 20.1527
-0.597663 0.374201 20.9447
-0.64868 0.698918 20.6609
-0.379822 0.139467 21.2745
-0.539689 0.420397 21.1364
-0.155877 -0.0398498 21.518
-0.268845 0.047059 21.7777
0.103038 -0.105777 21.4346
-0.151717 -0.0731961 21.337
-0.0503512 -0.0710034 20.8924
0.0338386 -0.12433 21.1623
0.0357252 -0.111281 20.6906
-1.0145 -1.96831 19.5752
-0.797117 -1.12379 19.0534
0.0503969 -1.29561 19.2063
-0.636493 -1.54958 22.0365
0.0367366 -3.66292 21.1529
-0.111423 -0.30322 21.8031
0.00775077 -0.696202 22.0939
0.152654 0.0380362 22.0176
-0.00375505 -0.159271 21.9774
0.558042 0.83536 21.9492
-0.0204163 0.531035 22.2304
0.943766 1.16167 21.4371
1.2758 1.43967 20.3846
0.042808 1.31236 21.689
1.72879 1.6017 18.6443
0.153289 1.75913 20.9302
-1.7302 -0.491377 17.5275
0.112962 -1.61749 17.7995
2.30303 1.27883 16.0269
0.876731 -1.56184 8.55985
0.178192 0.600012 4.76224
2.20181 -1.15617 13.5641
0.651126 2.58505 8.3802
-0.96028 1.35548 19.3388
0.135825 1.72269 15.7201
0.320284 -1.64506 18.139
-0.045978 -0.369498 21.4162
-0.659848 1.07894 -2.85913
0.0178064 -0.582251 20.8955
-0.872729 -0.814065 2.01
-0.495412 0.919665 20.3127
-0.0143094 1.03664 19.9547
-0.527509 0.802921 20.9923
-0.0313848 1.26788 20.5369
-0.368464 0.308231 21.4159
-0.0440331 0.836718 21.2162
-0.164307 -0.0244685 21.6665
-0.0129913 0.14827 21.9164
0.0576605 -0.0895561 21.3937
-0.00144295 -0.0862161 21.4723
-0.0284713 -0.0904471 21.2326
0.0310809 -0.0848146 21.0627
-0.0105502 -0.142651 20.6545
1.05919 -1.80608 19.6415
0.850842 -1.05864 19.1887
0.667944 -0.674995 19.7835
0.677339 -1.51854 21.9972
1.38357 -1.65616 20.6484
0.106217 -0.300707 21.7846
0.40843 -0.62568 21.7254
-0.164318 0.0238182 21.9836
-0.00220475 -0.210891 21.6898
-0.52133 0.856139 21.9623
-0.427742 0.219759 21.8898
-0.727037 1.42059 21.3639
-0.792533 1.67842 19.2604
-0.856401 0.780115 21.6365
-1.60899 2.22047 17.6867
-1.121 1.04187 21.3988
1.73059 -0.435489 17.9408
1.13177 -0.698608 19.3279
-2.20453 1.56249 8.11189
0.190358 -0.76713 0.391111
-2.02008 0.686165 17.2594
-1.82836 0.0498791 1.95484
-2.425 0.972479 17.4038
0.977278 1.32862 19.3549
1.71935 0.397966 19.0201
0.335423 -0.94908 6.76555
0.0745139 -0.274032 21.2691
0.0946213 -1.08015 16.8669
0.141651 -0.491859 21.3925
-0.384159 -1.43398 15.6931
0.479279 0.949355 20.2973
0.51334 0.640659 20.1467
0.493549 0.878861 20.9698
0.644727 0.763909 20.6249
0.318395 0.327976 21.3852
0.525777 0.478555 21.1528
0.131659 -0.0165081 21.563
0.267197 0.0558042 21.7876
-0.0794375 -0.064265 21.2555
0.135549 -0.0790202 21.4116
0.0642737 -0.0928823 21.2847
-0.0279311 -0.113614 21.1919
-0.0454613 -0.125124 20.8615
0.927438 -0.722319 20.1849
0.822538 -0.483167 19.8954
0.882266 -0.759168 21.2703
1.58171 -1.02347 20.6743
0.188817 -0.271932 21.5654
0.579772 -0.561791 21.6299
-0.151045 -0.0913927 21.7028
0.0653715 -0.280914 21.6145
-0.637186 0.213682 21.66
-0.486293 -0.0206172 21.7953
-0.910506 0.443038 21.4186
-1.13273 0.292815 21.5797
-1.43413 0.426159 21.2056
1.58364 -0.724631 19.9624
1.24866 -0.19793 19.6438
1.42854 -0.837596 21.6437
2.55254 -0.293354 20.7387
0.285624 -0.457857 21.6711
0.960621 -0.546774 21.7719
-0.125358 -0.30006 21.883
0.341551 -0.440711 21.8193
-1.06712 -0.0682073 21.8442
-0.57036 -0.666186 21.9303
-1.68599 0.0208535 21.3329
-1.2095 -0.935393 21.5594
-1.94256 -1.04977 20.3043
1.88793 0.322742 20.0496
0.937545 0.519626 19.9699
1.69803 0.0269721 21.3995
1.23068 0.699484 20.6316
0.96693 -0.348563 21.7934
1.00516 0.405731 21.3687
0.338614 -0.496663 21.9639
0.479521 0.0596517 21.6662
-0.0481507 -0.8962 21.8549
0.151013 -0.223163 21.6341
-0.518097 -1.08486 21.1396
0.0214011 -0.387208 21.4855
-0.181317 -0.567991 20.6442
0.576764 0.464933 20.4319
0.614746 0.40801 20.9458
0.397122 0.178761 21.3139
0.170212 -0.0141417 21.6198
-0.0663107 -0.104024 21.4862
0.0392135 -0.0689506 21.0796
-1.33171 -0.864337 20.0322
-1.60572 -2.60916 18.8667
-1.10256 -1.3025 19.9004
-2.36319 -1.59093 19.1353
-0.924495 -0.839819 19.5024
-2.29768 -2.34659 20.6825
-1.15186 -0.895567 21.4859
-0.602727 -1.57168 22.6202
-0.886229 -1.24884 21.6616
-1.62123 -1.67501 22.6623
-0.370737 -0.672048 21.9812
-0.233986 -0.386163 21.6183
-0.0429288 -0.102469 20.0878
-0.130708 -0.326879 21.6816
0.0282323 -0.444158 20.4862
0.073474 -0.296684 21.6745
0.154436 -0.193048 21.8002
0.297296 0.0428687 20.3908
0.17027 -0.0528735 21.8516
0.182132 -0.316393 20.6006
0.722607 0.248355 21.9756
0.79814 0.0958079 21.7199
0.983982 1.30081 20.5354
0.666732 0.490338 21.7909
1.60302 0.204336 20.8763
1.34688 0.624476 21.535
1.06986 0.175165 21.43
1.51365 1.58827 19.3133
1.03976 0.707887 21.4234
1.93876 0.199104 20.6228
1.52108 0.585731 21.2373
-2.16408 -0.260543 19.806
-5.28558 -0.782623 15.0175
-3.17669 1.03911 19.1863
-1.67929 -0.320607 18.7801
-5.22154 -0.422235 20.916
-1.72813 -0.425762 21.7
-2.37644 -0.122177 21.8423
-0.764428 -0.940928 20.0713
-0.56395 -0.5296 21.8095
-1.63628 -0.726083 21.8814
-0.0507132 -0.493029 18.3555
-0.0127122 -0.465128 22.0128
-0.466853 -0.322247 18.999
1.01007 -0.7064 16.9571
0.83501 -0.739526 21.7873
0.218826 -2.05668 3.66416
-0.075361 -0.873268 19.5843
1.42693 -1.09976 20.4711
1.11948 -0.707693 21.5695
1.62623 -1.11653 11.8983
0.522508 -1.1449 20.7977
1.99997 -1.08005 20.1793
-1.13572 0.669757 20.2689
-1.29602 1.88826 19.841
-0.584775 0.702184 20.3784
-1.02775 0.927824 19.684
-1.45724 1.13653 20.6065
-1.12287 0.530117 21.0357
-1.59196 1.77638 20.87
-0.644271 0.584783 20.9798
-1.27442 0.789494 21.471
-0.686457 0.179972 21.5666
-0.884264 0.898791 21.919
-0.462516 0.280034 21.4137
-0.533907 0.184681 21.7375
-0.269549 -0.0900662 21.6093
-0.329569 0.116297 21.7641
-0.176965 -0.010817 21.6777
-0.222132 -0.144094 21.5935
-0.0474134 -0.32063 21.5483
-0.200732 -0.18604 21.5947
0.0807993 -0.0996209 21.4497
-0.0168299 -0.4397 21.4242
0.0738401 -0.386139 21.3009
-0.0162778 -0.504782 21.0684
-0.0418173 -0.0793921 21.0709
0.182398 -0.565973 20.6588
1.65629 -2.39341 19.0032
0.0738703 -2.66354 19.3115
0.145195 -5.62456 15.5367
0.0846728 -1.55462 18.6834
0.0280258 -5.53489 22.3805
0.618267 -1.60043 22.674
0.0182108 -1.70398 22.317
0.00348653 -0.361024 18.3547
0.0344306 -0.112584 20.2753
0.000107089 -0.342063 21.906
-0.00302465 -0.0544766 17.8328
-0.30032 0.0208672 20.4729
-0.00695902 0.0644675 22.1145
-0.0301301 0.630409 18.561
-0.801158 1.3764 19.9957
-0.00110133 0.988108 22.0313
0.0492529 0.379713 2.77974
0.0703288 1.50879 17.7372
-1.09797 1.95527 18.8752
0.0855615 1.63422 21.2775
0.277278 1.09119 6.6644
0.144905 2.23011 16.6234
5.1443 -0.758703 15.6249
0.167859 9.10363 12.3207
0.182101 -0.673673 15.9755
0.559938 -2.17942 0.743236
-0.418176 0.34816 -2.00791
-0.14495 1.11915 -0.840425
-0.243946 0.510883 1.38647
-0.294714 -0.321299 0.902017
0.835088 2.68625 -0.872093
1.29591 1.90519 19.8345
-0.0182537 1.16317 20.2463
0.0181919 2.00469 18.883
-0.0472514 2.86529 20.1795
1.56864 1.90933 20.8317
-0.0403116 1.13407 20.9638
-0.0557749 2.66088 21.6261
0.877383 0.974364 21.9638
-0.024885 0.496611 21.485
-0.02941 0.667012 21.9776
0.313409 0.162614 21.7651
-0.0162036 0.0748877 21.7204
-0.0330398 0.10612 21.6697
0.174148 -0.108494 21.5473
0.0342027 -0.0938882 21.4447
-0.0826686 -0.221169 21.5487
0.176495 -0.390089 21.5844
-0.00913368 -0.0832671 21.2834
-0.148064 -0.311371 21.0305
1.25462 -0.76519 20.0943
1.0911 -1.17697 19.956
2.27473 -1.43487 19.2651
0.896355 -0.731932 19.5976
2.25256 -2.2001 20.6695
1.13483 -0.851383 21.4426
0.915595 -1.2082 21.6057
1.63685 -1.67398 22.7358
0.390393 -0.674079 21.9535
0.24016 -0.385706 21.6061
0.138405 -0.330034 21.6688
-0.0152187 -0.462883 20.6634
-0.0557037 -0.307452 21.6948
-0.14387 -0.192203 21.7715
-0.161558 -0.0720413 21.8194
-0.180087 -0.332278 20.8651
-0.696782 0.210699 21.9738
-0.834728 0.140781 21.7491
-0.662633 0.517846 21.8046
-1.76133 0.421826 19.1502
-1.40999 0.956837 21.0035
-1.32511 0.41365 21.4659
-1.03665 0.970582 21.4877
-2.31747 1.00147 17.7825
-1.76159 1.30906 19.6448
2.04769 -0.250456 19.8681
3.05841 0.958237 19.307
1.63977 -0.31133 18.9699
5.19143 -0.428347 20.9086
1.71947 -0.42977 21.6964
2.37059 -0.123847 21.8552
0.762571 -0.937913 20.1404
0.560086 -0.521003 21.7886
1.61742 -0.763282 21.8399
0.0806523 -0.508714 18.6599
0.015848 -0.455023 21.9987
0.479036 -0.341635 19.1088
-0.997808 -0.728219 17.3343
-0.948486 -0.854567 21.7875
0.227105 -0.827806 16.1676
-1.16194 -1.22419 13.4173
-1.67709 -1.01431 21.2868
-0.409857 -1.55365 18.8376
-2.21287 -1.18407 13.6011
1.14459 0.681281 20.2585
0.581349 0.741169 20.3711
1.02931 0.906702 19.698
1.47747 1.20357 20.5984
1.17122 0.573972 21.0272
0.634436 0.6461 20.9841
1.32409 0.874283 21.4858
0.715476 0.214109 21.5959
0.482944 0.32522 21.4355
0.541854 0.214824 21.7514
0.273294 -0.0922287 21.6422
0.176192 -0.0180215 21.6934
0.236479 -0.13254 21.6263
0.0780953 -0.322701 21.5071
-0.0521352 -0.0932874 21.4303
0.0323356 -0.392044 21.4211
-0.0190845 -0.462937 21.3987
0.0262351 -0.0868979 21.2339
-0.0168731 -0.573837 20.9118
-1.60507 -1.51836 19.6085
-1.15121 -1.47305 22.0748
-0.0604505 -0.382088 21.7458
0.257516 -0.174966 21.8453
1.13881 0.535255 21.7521
1.43557 0.647443 21.4302
-3.58928 -0.397219 18.6035
-2.33872 -0.736759 22.304
-0.204316 -0.881291 18.7235
0.116127 -0.171838 17.9527
1.20336 -1.08323 18.9028
1.53922 -0.955352 20.5663
-1.31729 1.16974 20.0851
-1.42807 0.993322 21.0245
-0.863118 0.453397 21.7308
-0.307472 -0.00122311 21.6726
-0.118576 -0.2626 21.4122
0.000291083 -0.465484 21.4007
0.110096 -3.87446 18.2678
0.0106953 -1.44238 21.6649
0.00147871 -0.147735 17.7173
-0.0102126 0.0814571 17.9411
0.00121666 1.20507 17.8384
0.186851 1.96973 17.3093
0.230944 -1.24571 8.65868
-0.180263 -1.83137 0.537781
0.0453322 1.53052 -2.36403
-0.00746415 2.84499 19.4939
-0.0718195 2.97346 20.4997
-0.0400874 1.41206 22.0885
-0.0266818 0.358589 21.7547
-0.0284879 -0.0346014 21.6436
0.0248784 -0.417398 21.3977
1.58093 -1.37441 19.6709
1.18221 -1.43268 22.0031
0.0758614 -0.38849 21.7375
-0.247493 -0.189147 21.888
-1.14219 0.647011 21.7333
-1.69651 1.05007 20.6132
3.38701 -0.411976 18.8381
2.34391 -0.74104 22.3787
0.228023 -0.859855 18.9012
-0.0930109 -0.238626 18.3453
-1.10709 -1.13422 15.1241
-1.7379 -1.0786 14.2929
1.32889 1.19266 20.0773
1.45629 1.06269 21.0094
0.885418 0.514707 21.7461
0.328621 0.021576 21.6972
0.181982 -0.247545 21.5477
0.0203276 -0.491401 21.1202
-0.622213 -0.268652 0.787001
-0.0459592 -0.149021 0.911193
-0.0621505 0.00203968 0.43775
0 0 0
0.000220519 0.0402214 0.418565
0.0161224 0.0211143 2.39632
-0.794999 0.0726403 1.33924
-0.0100838 0.0192861 0.0808949
-0.789528 -0.28588 3.46532
-0.0477147 -0.0820715 0.0390674
-0.55321 0.249201 0.451412
-0.0700065 -0.105818 0.718646
0.0459928 -0.148959 0.910839
0.620318 -0.266749 0.783362
0.0620918 0.00205472 0.436686
-0.00011584 0.0183572 0.26335
-0.00219692 -0.00205351 0.00727783
-0.0137667 0.0232658 2.38766
0.00984522 0.0189308 0.0795838
0.790774 0.0723253 1.33191
0.783559 -0.291633 3.47462
0.489672 0.260761 0.229995
0.103307 -0.171017 0.0800026
0.0494053 -0.0252224 0.375208
0.00246407 -0.00648252 0.232383
-0.0054736 0.00251558 0.348646
0 0 0
0 0 0
0.175912 -0.176055 1.78577
0.0253632 -0.0140392 0.862998
0 0 0
3.4751e-19 -8.05897e-21 5.66366e-18
-1.30547 -0.773535 1.62857
3.4163e-05 0.000109121 0.00156151
0.00143614 0.0137714 0.0628614
-0.00920775 0.0166347 0.0347515
0.017528 0.0178574 0.3863
0.00171998 0.0119748 0.0337265
0.0135167 0.0269492 0.0921581
0.00017418 3.30083e-05 0.00316889
-0.00249303 -0.00646658 0.230546
0 0 0
0.00592314 0.00238299 0.340213
0 0 0
-0.175759 -0.1745 1.77295
0 0 0
-0.0254624 -0.0139034 0.852092
0 0 0
1.28748 -0.754584 1.63241
0.00632112 0.0113918 0.0238227
0 0 0
-0.00194681 0.0164447 0.0747143
-0.0372348 0.044716 0.90344
-0.000379235 6.84648e-05 0.00626411
-0.00312236 0.0219464 0.061024
-0.0167932 0.0316599 0.110495
-0.0546461 0.00533041 0.246991
0 0 0
-1.08449e-08 1.24261e-06 0.000137844
0 0 0
-1.18657e-06 -1.54791e-06 5.64841e-05
-2.80743e-08 4.65526e-09 5.25564e-07
0 0 0
-9.72905e-05 -0.000394405 4.75359e-06
-2.67722e-08 9.28717e-09 4.0443e-06
-1.80498e-19 -6.27104e-18 -2.76884e-20
-3.56095e-06 2.79642e-05 0.00090256
1.81704e-06 4.4301e-08 3.98481e-05
-0.000278552 0.296222 0.0732673
-7.60118e-06 0.00640769 0.0390457
-0.000622492 -0.0085303 0.0265826
0 0 0
-0.000964377 -0.00584417 0.001384
-0.00161056 0.0275073 0.365759
0 0 0
-0.00025046 3.44377e-05 0.0108241
0 0 0
0.059423 0.00581869 0.267867
1.67072e-08 2.794e-09 3.14546e-07
3.72233e-06 -4.84401e-06 0.000177112
0 0 0
0 0 0
1.57452e-06 -3.51185e-08 -3.24419e-05
4.44623e-06 3.10006e-05 0.00107297
0 0 0
0.000527262 -0.00687706 0.0215851
9.39704e-05 1.53758e-05 0.00457354
0 0 0
1.33631e-05 8.53886e-05 0.000647944
0 0 0
0 0 0
0.000113818 0.000283624 0.00150746
2.63529e-09 -4.88269e-08 -8.44929e-06
3.92854e-09 -3.85774e-08 -1.00352e-05
-8.05472e-19 -5.1919e-18 -2.15593e-17
-0.000967005 0.00712454 0.0344229
1.11333e-08 -1.96599e-08 -1.62441e-05
-3.53052e-07 4.56506e-08 0.000208408
0 0 0
-0.000944777 0.00171455 0.0279695
-1.21495e-05 0.0082539 0.0210789
-3.05741e-05 0.0625441 0.248088
-2.37319e-05 2.68241e-05 0.00384289
-3.63625e-05 5.05383e-06 0.00734553
0 0 0
-1.07734e-05 6.87259e-05 0.000523157
-8.52551e-18 -2.68366e-17 8.04384e-17
1.12499e-18 -2.77871e-18 -1.48968e-17
0 0 0
0.0013861 0.00575574 0.0277803
0.000464112 0.000903856 0.0148116
0 0 0
-0.0419405 -0.0481152 0.36943