# vtk DataFile Version 2.0
tet_velo
ASCII
DATASET UNSTRUCTURED_GRID
POINTS 29498 float
-0.780067 0.305 -2.045
-0.787831 0.445 2.235
-0.815 0.655 -2.06155
-0.795 0.630336 2.225
0.780067 0.305 -2.045
0.787827 0.445 2.235
0.815 0.655 -2.06155
0.795 0.630336 2.225
-0.821509 0.312812 -0.618334
-0.851726 0.33185 0.808333
-0.844571 0.683017 -0.6327
-0.852866 0.689757 0.79615
0.821503 0.312817 -0.618334
0.851687 0.331887 0.808333
0.844564 0.683009 -0.6327
0.852852 0.689742 0.79615
-1.60778 0.111989 -3.18017
-1.61103 0.124554 -2.03797
-1.64586 0.137675 -0.611355
-1.67095 0.173003 0.814816
-1.64049 0.257051 2.24139
-1.62817 0.292339 3.38341
-1.62999 0.304485 4.52578
-1.60739 0.289665 -3.18766
-1.61057 0.304627 -2.04522
-1.65251 0.315599 -0.618182
-1.67587 0.330589 0.808657
-1.62364 0.396357 2.23565
-1.61615 0.429291 3.37771
-1.62376 0.443701 4.52
-1.62268 0.643408 -3.20326
-1.63618 0.659786 -2.0609
-1.67098 0.679126 -0.632377
-1.68027 0.671653 0.796302
-1.62836 0.641118 2.22478
-1.61903 0.674971 3.36675
-1.62536 0.707405 4.50869
-1.64262 1.1717 -3.225
-1.65213 1.18658 -2.08232
-1.66787 1.19485 -0.653089
-1.67649 1.17525 0.776613
-1.66781 1.14158 2.20582
-1.65672 1.13667 3.34846
-1.65039 1.15249 4.49063
-0.791793 0.111592 -3.18003
-0.788288 0.12391 -2.03776
-0.814955 0.134926 -0.611383
-0.843311 0.17623 0.81454
-0.821485 0.28698 2.24091
-0.8103 0.313322 3.38309
-0.81121 0.316169 4.52559
-0.790258 0.289205 -3.18762
-0.797594 0.448801 3.37744
-0.805324 0.453585 4.51985
-0.802256 0.641934 -3.20353
-0.799747 0.675217 3.36679
-0.806265 0.709064 4.5087
-0.816815 1.17273 -3.22527
-0.822634 1.18858 -2.08261
-0.834342 1.19891 -0.653267
-0.845156 1.17798 0.776634
-0.842966 1.1383 2.20597
-0.833865 1.132 3.34861
-0.827721 1.14912 4.49074
0.813995 0.111592 -3.18003
0.806498 0.123911 -2.03776
0.829969 0.134933 -0.611383
0.836004 0.176255 0.81454
0.795863 0.286989 2.24091
0.807717 0.313329 3.38309
0.81791 0.316175 4.52559
0.810519 0.289205 -3.18762
0.809176 0.448806 3.37744
0.819776 0.453591 4.51985
0.820403 0.641934 -3.20353
0.81147 0.67522 3.36679
0.820553 0.709069 4.5087
0.830336 1.17273 -3.22527
0.83271 1.18857 -2.08262
0.834359 1.19891 -0.653267
0.824689 1.17798 0.776634
0.810768 1.1383 2.20597
0.811121 1.132 3.34861
0.815618 1.14912 4.49074
1.62443 0.11199 -3.18017
1.61978 0.124556 -2.03797
1.65184 0.137686 -0.611355
1.66773 0.173036 0.814816
1.63019 0.257073 2.24139
1.6281 0.292355 3.38342
1.63651 0.304498 4.52578
1.61974 0.289665 -3.18766
1.60809 0.304626 -2.04522
1.64971 0.315604 -0.618182
1.67687 0.330622 0.808657
1.62784 0.396377 2.23565
1.62661 0.429304 3.37771
1.63675 0.443713 4.52
1.63248 0.643407 -3.20326
1.63217 0.659782 -2.0609
1.66666 0.679118 -0.632377
1.68039 0.671651 0.796301
1.63249 0.641127 2.22478
1.62943 0.674979 3.36675
1.63802 0.707414 4.50869
1.65283 1.1717 -3.225
1.65786 1.18658 -2.08232
1.66496 1.19484 -0.65309
1.65883 1.17525 0.776612
1.64207 1.14158 2.20582
1.63744 1.13668 3.34846
1.63935 1.1525 4.49063
-0.80293 0.48 -2.05867
0 0.253547 -2.09645
-0.854677 0.255017 -1.33167
-0.803147 0.537668 2.24173
-1.99676e-06 0.494983 2.18502
-0.852101 0.356103 1.52167
0 0.728439 -2.13499
-0.844157 0.68338 -1.34713
0 0.630708 2.22537
-0.841912 0.678026 1.51058
0.802732 0.48 -2.05847
0.854615 0.255078 -1.33167
0.803183 0.537668 2.24177
0.852116 0.356085 1.52167
0.844168 0.68339 -1.34713
0.841902 0.678015 1.51058
-0.828006 0.330943 0.0949999
-0.870095 0.497915 -0.625517
-3.06927e-06 0.149566 -0.618334
-0.871163 0.510803 0.802242
-1.97151e-05 0.161017 0.808333
-0.845758 0.683426 0.081725
-3.8538e-06 0.952281 -0.6327
-7.21238e-06 1.16324 0.79615
0.828006 0.330942 0.0949999
0.870093 0.497913 -0.625517
0.871237 0.510815 0.802242
0.84575 0.683418 0.081725
-0.896083 0.488957 -1.3394
-0.863564 0.504359 0.0883625
-0.866256 0.524236 1.51612
-1.53464e-06 0.19149 -1.33167
-1.13922e-05 0.157415 0.0949999
-1.08559e-05 0.259429 1.52167
0 0.48 -2.2055
-9.98378e-07 0.537668 2.26357
-1.9269e-06 0.839084 -1.34713
-5.53309e-06 1.19388 0.081725
-3.60619e-06 0.866496 1.51058
0.896083 0.488957 -1.3394
0.863563 0.504364 0.0883625
0.866448 0.524241 1.51612
-1.19532 0.304813 -2.04511
-0.784178 0.214455 -2.04138
-0.785163 0.297103 -2.61631
-1.20574 0.420679 2.23532
-0.804658 0.36599 2.23795
-0.792713 0.446901 2.80622
-1.22559 0.657393 -2.06122
-0.808628 0.648467 -2.63254
-0.818817 0.921788 -2.07208
-1.21168 0.635727 2.22489
-0.797374 0.652776 2.7959
-0.818983 0.884318 2.21549
0.793282 0.214455 -2.04138
0.795293 0.297103 -2.61631
1.19408 0.304813 -2.04511
0.791845 0.365994 2.23795
0.798501 0.446903 2.80622
1.20783 0.420688 2.23532
0.817702 0.648467 -2.63254
0.823855 0.921787 -2.07208
1.22359 0.657391 -2.06122
0.803235 0.652778 2.7959
0.802884 0.884318 2.21549
1.21374 0.635731 2.22489
-1.23701 0.314206 -0.618258
-0.818232 0.223869 -0.614858
-1.2638 0.33122 0.808495
-0.847519 0.25404 0.811437
-1.25777 0.681071 -0.632538
-0.839456 0.940965 -0.642983
-1.26657 0.680705 0.796226
-0.849011 0.933869 0.786392
0.825736 0.223875 -0.614858
1.23561 0.314211 -0.618258
0.843845 0.254071 0.811437
1.26428 0.331254 0.808495
0.839461 0.940959 -0.642983
1.25561 0.681063 -0.632538
0.83877 0.93386 0.786392
1.26662 0.680697 0.796226
-1.6094 0.118271 -2.60907
-1.60758 0.200827 -3.18392
-1.19978 0.11179 -3.1801
-1.62845 0.131114 -1.32466
-1.6108 0.21459 -2.04159
-1.19966 0.124232 -2.03786
-1.65841 0.155339 0.10173
-1.64918 0.226637 -0.614769
-1.23041 0.1363 -0.611369
-1.65572 0.215027 1.5281
-1.67341 0.251796 0.811736
-1.25713 0.174617 0.814678
-1.63433 0.274695 2.8124
-1.63206 0.326704 2.23852
-1.23099 0.272015 2.24115
-1.62908 0.298412 3.9546
-1.62216 0.360815 3.38056
-1.21923 0.302831 3.38325
-1.62688 0.374093 4.52289
-1.2206 0.310327 4.52568
-1.60898 0.297146 -2.61644
-1.61503 0.466537 -3.19546
-1.19882 0.289435 -3.18764
-1.63154 0.310113 -1.3317
-1.62338 0.482206 -2.05306
-1.66419 0.323094 0.0952374
-1.66174 0.497362 -0.625279
-1.64975 0.363473 1.52215
-1.67807 0.501121 0.802479
-1.6199 0.412824 2.80668
-1.626 0.518738 2.23022
-1.61996 0.436496 3.94885
-1.61759 0.552131 3.37223
-1.20687 0.439046 3.37757
-1.62456 0.575553 4.51434
-1.21454 0.448643 4.51993
-1.62943 0.651597 -2.63208
-1.63265 0.907555 -3.21413
-1.21247 0.642671 -3.20339
-1.65358 0.669456 -1.34664
-1.64416 0.923184 -2.07161
-1.67563 0.675389 0.0819625
-1.66942 0.936987 -0.642733
-1.65432 0.656385 1.51054
-1.67838 0.923451 0.786457
-1.6237 0.658045 2.79577
-1.64809 0.891349 2.2153
-1.6222 0.691188 3.93772
-1.63787 0.905821 3.3576
-1.20939 0.675094 3.36677
-1.63788 0.929949 4.49966
-1.21581 0.708235 4.50869
-1.64738 1.17914 -2.65366
-1.22972 1.17222 -3.22514
-1.66 1.19072 -1.36771
-1.23738 1.18758 -2.08247
-1.67218 1.18505 0.0617617
-1.2511 1.19688 -0.653178
-1.67215 1.15841 1.49122
-1.26083 1.17662 0.776623
-1.66226 1.13913 2.77714
-1.25539 1.13994 2.2059
-1.65355 1.14458 3.91954
-1.24529 1.13434 3.34853
-1.23906 1.15081 4.49069
-0.79004 0.117751 -2.6089
-0.791025 0.200399 -3.18383
0.0111014 0.111592 -3.18003
-0.801622 0.129418 -1.32457
0.00910491 0.12391 -2.03776
-0.829133 0.155578 0.101578
0.0075069 0.134929 -0.611383
-0.832398 0.231605 1.52772
-0.00365358 0.176242 0.81454
-0.815893 0.300151 2.812
-0.0128113 0.286984 2.24091
-0.810755 0.314745 3.95434
-0.803947 0.381062 3.38026
-0.00129145 0.313325 3.38309
-0.808267 0.384877 4.52272
0.00335037 0.316172 4.52559
-0.796257 0.46557 -3.19557
0.0101305 0.289205 -3.18762
-0.801459 0.451193 3.94865
-0.798671 0.562009 3.37212
0.00579093 0.448803 3.37744
-0.805795 0.581325 4.51428
0.00722601 0.453588 4.51985
-0.809536 0.907334 -3.2144
0.00907355 0.641934 -3.20353
-0.803006 0.692141 3.93775
-0.816806 0.90361 3.3577
0.00586109 0.675218 3.36679
-0.816993 0.929092 4.49972
0.00714387 0.709066 4.5087
-0.819725 1.18065 -2.65394
0.0067602 1.17273 -3.22527
-0.828488 1.19374 -1.36794
0.00503765 1.18857 -2.08261
-0.839749 1.18845 0.0616836
8.82725e-06 1.19891 -0.653267
-0.844061 1.15814 1.4913
-0.0102337 1.17798 0.776634
-0.838415 1.13515 2.77729
-0.0160986 1.1383 2.20597
-0.830793 1.14056 3.91968
-0.0113722 1.132 3.34861
-0.00605151 1.14912 4.49074
0.810247 0.117752 -2.6089
0.812257 0.200399 -3.18383
1.21921 0.111791 -3.1801
0.818233 0.129422 -1.32457
1.21314 0.124233 -2.03786
0.832987 0.155594 0.101578
1.24091 0.136309 -0.611369
0.815933 0.231622 1.52772
1.25187 0.174645 0.814678
0.80179 0.300159 2.812
1.21303 0.272031 2.24115
0.812814 0.314752 3.95434
0.808446 0.381067 3.38026
1.21791 0.302842 3.38325
0.818843 0.384883 4.52272
1.22721 0.310337 4.52568
0.815461 0.465569 -3.19557
1.21513 0.289435 -3.18764
0.814476 0.451198 3.94865
0.810323 0.562013 3.37212
1.21789 0.439055 3.37757
0.820165 0.58133 4.51428
1.22826 0.448652 4.51993
0.825369 0.907333 -3.2144
1.22644 0.64267 -3.20339
0.816011 0.692144 3.93775
0.811295 0.903612 3.3577
1.22045 0.675099 3.36677
0.818085 0.929096 4.49972
1.22928 0.708241 4.50869
0.831523 1.18065 -2.65394
1.24158 1.17222 -3.22514
0.833534 1.19374 -1.36794
1.24529 1.18758 -2.08247
0.829524 1.18844 0.0616835
1.24966 1.19688 -0.653178
0.817729 1.15814 1.4913
1.24176 1.17661 0.776623
0.810945 1.13515 2.77729
1.22642 1.13994 2.2059
0.813369 1.14056 3.91967
1.22428 1.13434 3.34853
1.22748 1.15081 4.49069
1.6221 0.118273 -2.60907
1.62209 0.200827 -3.18392
1.63581 0.131121 -1.32466
1.61393 0.214591 -2.04159
1.65979 0.155361 0.10173
1.65078 0.226645 -0.614769
1.64896 0.215054 1.5281
1.6723 0.251829 0.811736
1.62915 0.274714 2.8124
1.62902 0.326725 2.23852
1.63231 0.298427 3.9546
1.62736 0.36083 3.38056
1.63663 0.374106 4.52289
1.61391 0.297146 -2.61644
1.62611 0.466536 -3.19546
1.6289 0.310115 -1.3317
1.62013 0.482204 -2.05306
1.66329 0.323113 0.0952373
1.65819 0.497361 -0.625279
1.65236 0.363499 1.52215
1.67863 0.501136 0.802479
1.62723 0.41284 2.80668
1.63016 0.518752 2.23022
1.63168 0.436509 3.94885
1.62802 0.552142 3.37223
1.63738 0.575564 4.51434
1.63233 0.651594 -2.63208
1.64266 0.907553 -3.21413
1.64942 0.66945 -1.34664
1.64502 0.92318 -2.07161
1.67353 0.675384 0.0819624
1.66581 0.93698 -0.642733
1.65644 0.656389 1.51054
1.66961 0.923448 0.786457
[...]
POINT_DATA 29498
VECTORS point_vectors float
-3.01224 -2.23508 6.49767
0.269301 0.170974 1.41249
-5.96237 5.4693 8.76742
0.140092 -0.23526 1.21115
3.07645 -2.28083 6.54757
-0.268086 0.173153 1.41252
5.98415 5.56201 8.68325
-0.142764 -0.237267 1.20682
0.00336977 -0.00439838 0.034668
-0.00416074 -0.0865234 0.643398
-0.0189875 -0.0355345 0.178262
0.0147898 0.0376495 0.169012
-0.00336293 -0.00438513 0.0345889
0.00223608 -0.0871137 0.636016
0.0189233 -0.0353912 0.176571
-0.0146416 0.0373789 0.168566
-0.544673 -0.120959 19.8224
-1.24208 -0.370812 20.3787
-0.526644 -0.20299 21.1526
0.0896933 -0.0280839 21.3054
0.671991 0.105756 21.1322
0.756067 0.127546 20.848
0.744886 -0.0616139 20.974
-0.563949 -0.0485378 19.7907
-1.39365 -0.220681 20.352
-0.585037 -0.218971 21.1669
0.0903901 -0.082368 21.3418
0.69448 0.00830213 21.1495
0.845718 0.0243927 21.0137
0.814867 -0.0984833 21.0913
-0.563379 0.0496378 19.7776
-1.36505 0.0872435 20.3152
-0.72894 -0.171965 21.1267
0.016143 -0.170089 21.3705
0.685617 -0.117071 21.1501
0.822486 -0.163806 20.8769
0.769168 -0.196165 20.9925
-0.474402 0.215582 19.8658
-1.02251 0.42737 20.2764
-0.844778 0.120039 21.0362
-0.12523 -0.11653 21.3525
0.469283 -0.299978 21.1214
0.631815 -0.371701 20.84
0.497252 -0.235925 20.6438
-0.57182 -0.3272 19.2113
-3.86121 -4.72772 20.2119
0.220064 -0.376992 9.543
0.956582 -0.659835 9.64617
0.900131 0.871685 9.2434
1.54801 1.31351 14.3121
1.12509 0.406523 13.6907
-0.634142 -0.186916 19.0736
1.77785 0.828087 13.0671
1.31671 0.271114 11.949
-0.647947 0.111061 19.0745
2.15924 -0.0304697 11.5518
1.20456 -0.0715989 13.1813
-0.492797 0.449239 19.4001
-1.7616 2.11538 19.8523
-2.68201 1.5139 20.9753
-0.184996 0.178322 19.0633
0.84958 -0.613449 17.441
1.07103 -0.902762 18.4764
0.62582 -0.581138 19.5474
0.578035 -0.31995 19.231
3.86028 -4.44082 20.231
-0.170731 -0.321482 10.4591
-1.00602 -0.66835 9.25916
-0.772507 0.889687 8.02046
-1.54926 1.30207 14.2326
-1.10377 0.399568 13.7795
0.636714 -0.183091 19.1039
-1.77393 0.80034 13.3324
-1.2874 0.264883 12.1412
0.646925 0.111298 19.0987
-2.15055 -0.0518282 11.8286
-1.18236 -0.0807081 13.3689
0.495258 0.444231 19.4107
1.75343 2.06351 19.8585
2.68268 1.51616 20.9759
0.067395 0.274654 18.2951
-0.893466 -0.584509 16.644
-1.09989 -0.903536 18.0394
-0.634414 -0.575917 19.3972
0.547836 -0.119101 19.8362
1.23406 -0.356217 20.3702
0.528171 -0.199229 21.1505
-0.0870178 -0.0279874 21.3109
-0.671086 0.105208 21.141
-0.749565 0.132334 20.8516
-0.74704 -0.0539625 20.9721
0.559441 -0.0514162 19.7898
1.40161 -0.221871 20.3508
0.585283 -0.217963 21.1703
-0.0857274 -0.0818344 21.3476
-0.685646 0.00180638 21.1681
-0.822473 0.0252613 21.0221
-0.810061 -0.0926881 21.0958
0.55907 0.0537114 19.7891
1.37753 0.0904546 20.325
0.736225 -0.170783 21.1327
-0.0166652 -0.170831 21.3729
-0.679184 -0.114501 21.1345
-0.813117 -0.163989 20.8207
-0.769616 -0.189273 20.9845
0.478243 0.208921 19.8699
1.01416 0.423782 20.2774
0.847735 0.118454 21.0341
0.131231 -0.120449 21.3621
-0.486058 -0.301758 21.104
-0.639207 -0.377017 20.887
-0.500394 -0.23315 20.6534
-5.38077 -0.308695 2.38154
2.71134e-05 -0.205126 0.879649
-0.0660511 0.0186698 1.14494
0.263965 0.0611468 0.95444
0.000166424 -0.001177 -0.0008716
0.108595 0.0895454 0.899471
0.00168412 0.595209 1.69269
-0.107114 -0.163207 0.861768
-8.86411e-05 0.0454347 -0.032891
0.0233551 0.0259477 0.21101
4.79976 -0.136253 2.23734
0.0653159 0.0179352 1.1331
-0.261754 0.0611875 0.950809
-0.107939 0.0465393 0.761082
0.107222 -0.163457 0.859207
-0.0230805 0.0257325 0.207668
0.00199278 -0.000472029 0.141784
0.000136036 -0.000784812 0.00599569
0 0 0
0 0 0
-1.97054e-05 0.00983883 0.101008
0.0250066 0.0459198 0.293797
0.000812136 0.00346508 0.00996594
1.2888e-05 -0.00783552 0.0608947
-0.00198538 -0.000446857 0.141293
-0.000130313 -0.000754671 0.00574497
0 0 0
-0.0249039 0.0457353 0.292505
-1.20439e-05 -0.000158145 0.00128102
0 0 0
0.0111589 0.00853531 0.154543
3.97707e-07 -0.000968573 0.00813484
4.81004e-21 -3.12295e-19 -5.64546e-17
-1.18109e-06 0.000452259 0.00367453
-0.000521852 -0.105041 0.150362
-0.00233878 -0.0757782 -0.195577
-2.84364e-05 0.0011112 0.0127001
1.25557e-05 0.000562132 0.0326591
0 0 0
1.28522e-05 -0.000167808 0.00135817
0 0 0
-0.0119262 0.00828804 0.159973
-2.90001 -0.785887 20.2552
-6.20538 -6.51392 20.239
-1.81911 -0.879973 17.8909
1.31816 0.150393 20.3283
0.69779 0.69582 5.23906
1.24174 0.801343 8.40585
-2.8791 0.470244 20.1626
-1.83536 0.569883 17.8648
-3.33312 3.42386 19.7112
1.27688 -0.213705 20.2374
1.28554 0.200334 8.20401
1.02875 -0.0940999 9.67729
6.10969 -6.10596 20.3579
1.82459 -0.873295 17.9302
2.90767 -0.790358 20.2519
-0.59086 0.692584 4.50139
-1.25176 0.798358 8.58565
-1.31009 0.148081 20.3454
1.83811 0.563679 17.8977
3.32788 3.37132 19.7167
2.89447 0.475194 20.1632
-1.3023 0.192904 8.40944
-0.948848 -0.113536 8.88868
-1.26692 -0.214899 20.2601
-0.529846 -0.412711 21.4105
0.330837 -0.416552 3.60736
0.289212 -0.112838 21.2022
0.336534 -0.696655 5.31053
-1.10131 -0.581705 21.3975
-4.01908 -0.204477 14.9701
0.125053 -0.395477 21.2772
0.588022 1.21032 9.25707
-0.367948 -0.441768 4.17782
0.529109 -0.412286 21.4106
-0.34686 -0.676654 4.93053
-0.288017 -0.113046 21.2062
4.02389 -0.202757 14.9808
1.1029 -0.590123 21.3955
-0.589637 1.21915 8.58871
-0.12278 -0.397348 21.2774
-0.945116 -0.258289 19.9205
-0.554223 -0.0848325 19.8065
-0.627583 -0.231973 19.5487
-0.955478 -0.315367 20.9432
-1.34 -0.305174 20.3654
-2.28976 -1.10565 20.3213
-0.203728 -0.130724 21.2839
-0.546286 -0.213456 21.1656
-0.523393 -0.26768 21.4478
0.396618 0.0490289 21.2834
0.102389 -0.0544884 21.3281
0.260991 0.0152451 21.3513
0.780031 0.121118 20.9685
0.682242 0.0613322 21.1383
1.13561 0.342011 20.7049
0.682164 0.0724677 20.5773
0.800878 0.0783649 20.9355
1.24446 0.272819 20.2253
0.784754 -0.0778264 21.0377
0.865658 0.209208 19.6457
-1.0386 -0.142147 19.8765
-0.576023 0.0124156 19.7798
-0.670109 -0.117454 19.4747
-1.04145 -0.216862 20.9719
-1.4285 -0.0484425 20.3237
-0.238347 -0.169717 21.3055
-0.658969 -0.206805 21.1502
0.420565 -0.0190456 21.3208
0.0531468 -0.128669 21.36
0.779597 -0.00389075 20.9943
0.691509 -0.0543173 21.1532
0.76047 -0.0169802 20.6425
0.854573 -0.0517666 20.9808
1.31022 0.118592 20.0221
0.831314 -0.17065 21.0677
1.05457 0.0701204 17.8264
-1.01611 0.084396 19.8569
-0.523785 0.15451 19.8257
-0.677392 0.0857145 19.4666
-1.12624 -0.032101 20.902
-1.19624 0.33616 20.288
-0.359677 -0.204126 21.3169
-0.846993 -0.0320213 21.0858
0.393941 -0.127058 21.3354
-0.0796171 -0.172706 21.3593
0.774973 -0.118955 21.012
0.574727 -0.242245 21.1228
0.710669 -0.148533 20.7254
0.74884 -0.279014 20.6006
1.31921 -0.189667 20.1415
0.63321 -0.216045 20.8182
0.953208 -0.274291 19.046
-0.78459 0.345424 19.9585
-0.528627 0.30645 19.637
-1.02534 0.320465 20.7225
-1.48012 0.93582 20.1171
-0.531759 -0.0214422 21.2867
-1.50602 0.33904 21.1282
0.237889 -0.214895 21.2906
-0.269152 -0.177248 21.6508
0.574053 -0.317348 20.9196
0.61478 -0.568347 21.2231
0.463136 -0.306172 20.4491
0.746251 -0.617682 20.7413
0.637773 -0.445563 20.2941
-1.52082 -1.24588 18.4181
-0.606982 -0.261593 19.126
0.0118879 -0.511477 18.8262
-1.06854 -0.565144 14.0935
-0.00158351 -6.4964 22.53
0.485137 -0.318625 9.2124
-3.37911e-05 0.00284858 1.34997
0.406152 0.419516 7.90925
0 0 0
1.29544 1.05767 12.1552
-0.0818897 -0.644828 0.520089
1.42101 0.745635 14.6544
1.66275 1.07485 13.6897
-0.0130965 0.841235 2.29487
1.21205 0.332549 12.6791
0.00233805 0.706443 9.99823
-0.660117 -0.0098482 19.0595
0.0108574 -0.275727 18.5915
1.70648 0.684794 14.1422
1.96855 0.398809 12.3095
0.00558658 -0.164412 -2.45689
1.34748 0.10833 11.8489
-0.00625946 0.439604 7.21095
-0.548564 0.335006 19.2326
0.00682344 0.150015 18.5584
1.53139 -0.152094 13.1886
1.82688 -0.55219 13.8461
-0.00772247 -0.56829 -2.86778
0.927507 -0.339852 16.245
-0.0145662 -0.467557 7.09769
-1.01007 1.11313 19.1635
0.00300081 0.620502 19.0653
-1.83566 1.49925 20.7173
0.0126616 3.63502 19.6582
-1.79654 0.377506 21.4071
-0.00110739 4.30112 17.1784
0.735298 -0.232327 17.4675
0.00245232 -0.0740309 0.763877
0.976177 -0.806182 17.7603
-0.0117605 -0.153257 4.36248
0.855421 -0.853657 18.7133
0.0138032 -1.14528 9.38368
-0.00597712 -1.37806 11.3912
1.53239 -1.21376 18.4677
0.614428 -0.254896 19.1465
0.628814 -0.222307 19.5656
1.09487 -0.545401 14.8422
2.24345 -1.05951 20.3213
-0.48903 -0.319027 9.44672
0.528198 -0.274676 21.4481
-0.315462 0.409397 7.03208
-0.264998 0.0180416 21.3246
-1.24518 1.07298 11.6897
-1.16152 0.363993 20.5618
-1.42257 0.744112 14.7048
-1.6614 1.05515 13.7826
-1.24311 0.274215 20.2227
-1.18663 0.326023 12.8206
-0.862734 0.204542 19.7514
0.660166 -0.0102551 19.0865
0.673217 -0.113639 19.4902
-1.68604 0.673575 14.4906
-1.96219 0.374231 12.5808
-1.27137 0.100326 20.1684
-1.31971 0.101157 12.0357
-1.04396 0.0665543 18.0267
0.551385 0.329897 19.2446
0.677858 0.0849741 19.4882
-1.51049 -0.169053 13.5519
-1.82916 -0.553321 13.7373
-1.28247 -0.208443 20.2665
-0.922796 -0.344331 16.2451
-0.949639 -0.280544 19.24
1.01426 1.09658 19.179
0.526482 0.300895 19.6464
1.83416 1.48295 20.7189
1.46974 0.921907 20.1217
1.81317 0.372623 21.2567
1.50946 0.340432 21.127
-0.831832 -0.167144 16.5176
0.287216 -0.173982 21.6713
-0.983197 -0.79139 17.1858
-0.620049 -0.590292 21.2227
-0.860154 -0.866542 18.4029
-0.783134 -0.630103 20.6556
-0.643822 -0.45703 20.2731
0.929251 -0.246265 19.939
0.552407 -0.0864979 19.8105
0.948004 -0.301414 20.9468
1.3368 -0.300078 20.3594
0.203188 -0.128478 21.2844
0.545666 -0.210919 21.1661
-0.398287 0.0507176 21.2816
-0.0996068 -0.0536686 21.3343
-0.776445 0.118797 20.9754
-0.677941 0.057445 21.1526
-0.683695 0.0724701 20.5793
-0.788604 0.0808038 20.9479
-0.788034 -0.070066 21.0343
0.995598 -0.143458 19.8801
0.569981 0.0126896 19.7856
1.04842 -0.216477 20.9757
1.44153 -0.0487247 20.336
0.24126 -0.170163 21.3043
0.662484 -0.205615 21.1548
-0.418904 -0.0218944 21.3182
-0.0506447 -0.128943 21.3639
-0.762855 0.00587377 20.9438
-0.684511 -0.0563471 21.1536
-0.746393 -0.0134858 20.6399
-0.834809 -0.0550954 20.9656
-0.825266 -0.164074 21.0705
1.01509 0.0879298 19.8706
0.524043 0.154756 19.8355
1.13441 -0.0298697 20.9063
1.19309 0.334211 20.2947
0.362896 -0.205471 21.3212
0.850307 -0.0309083 21.0893
-0.394603 -0.128097 21.3398
0.0793552 -0.175812 21.3694
-0.781063 -0.131468 21.0708
-0.58808 -0.245031 21.1186
-0.707422 -0.14922 20.7249
-0.744909 -0.281347 20.6146
-0.635618 -0.211457 20.8204
0.781609 0.340249 19.9615
1.02562 0.316818 20.7245
0.541324 -0.0232959 21.2934
-0.24281 -0.2252 21.3051
-0.588343 -0.321249 20.864
-0.463686 -0.305724 20.4624
-1.00285 -0.205603 19.899
-1.72052 -1.0648 18.0667
-1.33868 -0.565137 19.4333
-1.5036 -0.345905 19.2622
-0.648327 -0.188342 19.5156
-2.60521 -0.991712 20.28
-1.00162 -0.277693 20.9698
-0.404519 -0.120775 5.81727
-1.31173 -0.55555 21.3753
-1.42989 -0.478108 21.5168
-0.51063 -0.32023 21.4343
-0.208185 -0.152132 21.2953
0.243947 -0.220565 4.60421
-0.0673866 -0.113435 21.374
-0.0319661 -0.269206 21.1941
0.271083 -0.0431381 21.3184
0.415514 0.0148132 21.3008
0.15123 0.348221 3.20162
0.725093 0.219947 21.1785
0.819237 0.0601814 20.8043
1.23413 0.250957 20.4237
0.755723 0.0443003 20.9938
1.27283 0.931281 10.2927
1.28306 0.335119 20.577
1.44571 0.156719 20.4136
1.28449 0.197076 20.0838
0.723084 0.0263054 20.6166
1.56374 0.715214 14.3983
1.20342 0.239924 20.2128
1.33415 0.13364 20.1783
0.953228 0.134784 18.6265
-1.04545 -0.0085355 19.8441
-1.9723 -0.0878897 17.6468
-1.48535 0.218399 19.2553
-0.685648 -0.00194204 19.4578
-3.13211 -0.15149 20.2059
-1.09236 -0.122253 20.9342
-1.66997 -0.0875661 21.2971
-0.739432 -0.546972 21.3307
-0.294912 -0.198508 21.3132
-0.402296 -0.589793 21.398
0.23523 -0.266993 21.2215
0.433974 -0.0745199 21.3431
0.765339 -0.281234 20.8295
1.31868 -0.0468601 20.3974
0.815515 -0.0424961 20.9928
1.28236 0.526399 7.64688
1.40988 -0.244069 20.4119
1.31471 -0.0355375 20.0818
0.780266 -0.0858943 20.6389
1.72259 0.353061 13.7154
1.21163 -0.163431 20.3951
1.09895 -0.0898865 17.7242
-0.891647 0.273801 19.8981
-1.40671 1.08479 18.5526
-1.00961 0.634449 19.6256
-0.602252 0.251169 19.5578
-2.11747 0.910944 20.1064
-1.09661 0.181776 20.7908
-2.82472 1.03302 20.2304
-1.46769 0.652681 20.7803
-1.56609 -0.191645 21.2554
-0.500565 -0.126835 21.3132
-0.465275 0.214674 10.7182
-0.97177 0.0218704 21.6226
-0.162277 -0.358061 21.5888
0.296015 -0.214178 21.3124
1.08965 0.725551 8.6156
0.29085 -0.388294 21.4915
0.938233 -0.527293 20.8279
0.687438 -0.26278 20.9327
1.30978 -0.355833 12.4042
0.769211 -0.627017 20.9269
1.03436 -0.522082 20.8848
0.569809 -0.252727 20.7276
1.14087 -0.660623 14.7536
0.71824 -0.51969 20.5426
0.763122 -0.435155 20.4342
1.72956 -1.04156 18.1047
0.0273094 -2.29856 17.0752
0.018901 -1.75192 16.0032
0.0117616 -0.40329 18.6953
-0.00566042 -3.11293 13.8604
0.430797 -0.114985 6.23892
0.0130915 -0.773522 7.34852
-1.1949e-21 2.15645e-19 5.62045e-17
-0.250795 -0.22267 4.75077
-1.30886e-05 0.000800855 0.145534
0 0 0
-0.101227 0.308665 2.5886
0.000255095 0.113938 1.03367
-0.0399386 -0.867463 -0.517786
-1.24847 0.935671 10.1377
-0.0184525 -0.507177 -0.076633
0.0247116 -1.10054 -3.91015
-0.00396179 0.34563 -0.0856686
-1.55431 0.708844 14.5977
-0.000314112 0.0956634 3.76545
-0.00632337 -0.500842 -0.995043
-0.00110865 0.615685 8.82294
1.97306 -0.0835145 17.6861
0.0148759 1.20386 15.9824
0.00684542 -0.0254577 18.4661
-1.29493 0.518022 7.85439
0.0116943 -0.852294 -3.37604
-0.0125834 -0.613672 -4.08918
-1.70095 0.340956 14.0643
-0.0234408 -0.612129 1.21965
-0.00889145 -0.0502769 6.4032
1.41 1.06965 18.5762
0.00846241 1.80415 18.504
0.00651306 0.51684 18.8435
0.00317335 6.04223 19.7684
2.82084 1.0417 20.2957
0.00659581 2.70395 20.5488
0.00222907 1.07004 3.14811
0.403587 0.280685 10.3776
0 0 0
0 0 0
-1.05655 0.70806 7.77661
-0.00566847 -0.0709941 2.70437
-0.0207831 1.18618 -1.23767
-1.27365 -0.354 12.0166
0.00684634 -0.740794 7.25355
0.018534 -0.770309 1.32645
-1.14502 -0.667649 14.7114
0.00627861 -1.54613 11.2865
-0.00604312 -1.20419 7.86088
0.977914 -0.194162 19.905
1.31971 -0.536084 19.457
1.48973 -0.338312 19.2784
0.651885 -0.185608 19.5311
2.57038 -0.97121 20.2825
1.00118 -0.273663 20.9735
1.30338 -0.550241 21.3533
1.43132 -0.479034 21.5213
0.517736 -0.322009 21.4572
0.210126 -0.151224 21.2927
0.0710033 -0.115572 21.386
0.0326996 -0.268636 21.1918
-0.272249 -0.041851 21.2981
-0.414455 0.0148772 21.2969
-0.738876 0.226039 21.0576
-0.815784 0.0574138 20.819
-1.24447 0.258514 20.3405
-0.755278 0.0556295 20.9617
-1.29877 0.352903 20.481
-1.43084 0.149932 20.4471
-1.26588 0.188176 20.1509
-0.718636 0.0266544 20.6226
-1.19179 0.251249 20.2163
-1.30643 0.136656 20.1561
-0.946373 0.130719 18.7802
1.03578 -0.0101184 19.8562
1.4777 0.216405 19.2732
0.687323 -0.000852419 19.4776
3.14739 -0.153104 20.2038
1.10136 -0.12121 20.9361
1.6743 -0.087154 21.3071
0.735706 -0.552065 21.3061
0.298792 -0.199352 21.3146
0.401741 -0.595077 21.3901
-0.233699 -0.267098 21.2274
-0.429744 -0.0784641 21.3477
-0.761553 -0.284054 20.8442
-1.3136 -0.0519531 20.4191
-0.78235 -0.0534088 20.9699
-1.39347 -0.250501 20.4649
-1.27692 -0.0540586 20.2175
-0.764371 -0.0817416 20.6351
-1.18571 -0.169792 20.3563
-1.08972 -0.0941318 17.9177
0.8825 0.273725 19.9127
1.00383 0.621294 19.6387
0.600863 0.244242 19.573
2.10765 0.90272 20.1096
1.09497 0.182791 20.7971
1.4634 0.64913 20.7783
1.5702 -0.192824 21.2573
0.503014 -0.127673 21.3197
0.986805 0.0249892 21.6339
0.172614 -0.367256 21.5673
-0.304043 -0.215948 21.3221
-0.288796 -0.397638 21.5049
-0.947472 -0.534233 20.731
-0.688849 -0.268807 20.9829
-0.776484 -0.648161 20.7868
-1.04534 -0.525157 20.8392
-0.568324 -0.25512 20.7447
-0.736407 -0.53988 20.547
-0.771048 -0.435956 20.4362
-1.42895 -0.476901 19.3435
-1.35894 -0.515135 21.4351
-0.0525113 -0.178466 21.3577
0.787044 0.135958 20.9603
1.36739 0.24125 20.5079
1.35277 0.204612 20.0924
-1.55431 -0.0516829 19.2218
-1.57405 -0.312807 21.523
-0.153802 -0.46152 21.2551
0.81271 -0.113859 20.7959
1.48185 -0.044476 20.1117
1.28615 -0.00223449 20.3224
-1.24319 0.526893 19.4361
-1.70791 0.304059 20.9829
-0.881323 -0.386943 21.6502
0.497559 -0.426856 21.2317
1.07354 -0.569426 20.795
0.947995 -0.452758 20.3137
0.0209114 -2.03523 16.3353
0.00427195 -0.0758846 0.637343
0 0 0
0 0 0
-0.000882681 -0.794449 -1.89825
-0.00263814 -0.242512 1.28923
0.0158754 -0.20765 15.41
0.0148454 -1.16169 -4.48117
-0.0361597 -0.651596 -1.5456
0.012908 1.925 17.3265
0.00514664 1.86678 15.1733
0 0 0
-0.00597985 0.266158 -1.12522
0.0153321 -0.507263 0.1646
0.00949025 -1.30576 5.30752
1.40663 -0.464451 19.3683
1.35868 -0.512351 21.4193
0.0564204 -0.17739 21.3742
-0.792685 0.137057 20.9077
-1.36772 0.243855 20.4837
-1.33237 0.214185 20.0816
1.55152 -0.0531875 19.2377
1.57958 -0.314324 21.5357
0.153441 -0.463621 21.2434
-0.807487 -0.116073 20.8131
-1.47099 -0.0480537 20.187
-1.2589 -0.00396169 20.2898
1.23638 0.520586 19.4505
1.70658 0.304949 20.9834
0.890021 -0.394381 21.6518
-0.504639 -0.431678 21.1382
-1.09474 -0.582481 20.7229
-0.94834 -0.457345 20.3033
-2.96821 -1.01261 4.49809
-0.141637 -1.72143 2.12111
-0.135323 -0.226747 1.7797
0.295212 0.136799 1.12314
-0.017485 -0.00302011 -0.00207191
0.0141216 0.0161517 0.180523
-4.66726 0.962391 3.74655
0 0 0
-0.159925 -0.11761 1.5267
0.431469 -0.055646 1.6622
-0.00564547 0.00408948 -0.00309048
0.0472484 0.028259 0.361495
0.161639 -1.94026 2.35258
2.96957 -1.01059 4.54012
0.136333 -0.230841 1.80107
0.0177492 -0.00331394 -0.00223651
-0.290397 0.137077 1.10591
-0.0163893 0.0182405 0.199281
0 0 0
7.09397 0.918305 4.47337
0.159971 -0.120539 1.52524
0.00526731 0.0038515 -0.00289942
-0.431787 -0.0565285 1.65939
-0.046336 0.027907 0.354806
-0.0932458 0.136731 3.22685
0.000919461 -0.00193749 0.0386765
0 0 0
0 0 0
0.0486161 -0.0253757 1.01374
0.00308739 -0.00646712 0.276422
-0.00132661 0.000951554 0.0140775
0.00523423 0.0137135 0.124276
-0.128173 -0.124714 0.516652
0 0 0
0.00953073 0.014652 0.231478
-0.0899134 -0.00267767 0.0413608
0.0220441 0.0405353 0.2536
-0.000543119 0.0050163 0.0257283
0.0190082 0.0434381 0.236631
0.0651491 -0.00483829 0.347695
0.0930679 0.137637 3.22449
0 0 0
-0.000913761 -0.0019228 0.0386471
0 0 0
-0.0486868 -0.0253907 1.01692
-0.00531364 0.0136822 0.124035
-0.00318202 -0.00663253 0.271084
0.00116907 0.00080802 0.0123033
0.128214 -0.124773 0.516013
0.0893694 -0.00265624 0.0412336
0 0 0
-0.00964352 0.0148439 0.229348
-0.0218497 0.0408527 0.251881
-0.064333 -0.00482336 0.341905
0.000558979 0.00499071 0.0255378
-0.0190334 0.043403 0.236978
0 0 0
0 0 0
0 0 0
0 0 0
-0.000136187 -0.000510776 0.0233408
-0.0410859 -0.0309998 0.29785
0 0 0
-0.0524425 0.0105461 -0.00531975
-5.94597e-06 0.000124669 0.0059867
0 0 0
0.00360795 0.000676082 0.0400607
0 0 0
0.000123891 0.826668 0.265059
0.000116334 0.00730498 0.0703876
-0.00119634 -0.00294168 0.015698
-0.0108393 0.00157757 0.0379432
-0.000975029 0.0697224 -0.0837587
-4.75345e-06 0.000375852 -0.0018278
0.000574347 0.00058329 0.00758047
0 0 0
0 0 0
0 0 0
0.0413434 -0.0309946 0.298338
0.000135311 -0.000506792 0.0232888
0.0532666 0.0105962 -0.00553395
-0.00480294 0.00260472 0.0520812
0 0 0
-0.00206442 0.000494087 0.0224685
0.0108507 0.00158099 0.0380333
0.00166687 -0.0041165 0.0218767
0 0 0
-0.000702353 0.000719092 0.00947821
-2.62428e-19 -1.92865e-19 -1.64117e-17
0.000272517 2.69424e-05 0.00495171
0.000761694 -0.00549735 0.0239553
0 0 0
1.13177e-05 -0.0130865 0.121013
1.40858e-10 -7.6536e-09 -2.88925e-06
0 0 0
0.00694019 0.0183535 0.197858
-6.23808e-09 3.86569e-07 7.67107e-05
-1.66055e-06 0.000373861 0.0028449
0.000277265 0.00194634 0.0137097
0.0836894 0.0800839 0.7186
5.79468e-06 0.00102864 0.0138055
-0.000223279 0.0862228 0.461988
-1.98153e-05 -0.000425479 0.0173373
0 0 0
-0.000273133 2.69003e-05 0.00494068
0 0 0
-0.000764475 -0.00551202 0.0239841
0 0 0
0 0 0
-0.00648774 0.0179294 0.198866
-0.083508 0.080873 0.729709
-0.000277789 0.00195043 0.0137394
-0.226743 0.0317654 1.17172
-0.0157429 -0.0092262 0.198875
0.0180283 -0.0368162 0.153522
-0.000197291 -0.00211458 0.00739796
-3.01881e-18 3.64192e-18 -1.27142e-16
0 0 0
0 0 0
0 0 0
0.00234647 0.00596642 0.255379