# vtk DataFile Version 2.0
tri_press
ASCII
DATASET UNSTRUCTURED_GRID
POINTS 3682 float
-0.780067 0.305 -2.045
-0.787831 0.445 2.235
-0.815 0.655 -2.06155
-0.795 0.630336 2.225
0.780067 0.305 -2.045
0.787827 0.445 2.235
0.815 0.655 -2.06155
0.795 0.630336 2.225
-0.821509 0.312812 -0.618334
-0.851726 0.33185 0.808333
-0.844571 0.683017 -0.6327
-0.852866 0.689757 0.79615
0.821503 0.312817 -0.618334
0.851687 0.331887 0.808333
0.844564 0.683009 -0.6327
0.852852 0.689742 0.79615
-1.60778 0.111989 -3.18017
-1.61103 0.124554 -2.03797
-1.64586 0.137675 -0.611355
-1.67095 0.173003 0.814816
-1.64049 0.257051 2.24139
-1.62817 0.292339 3.38341
-1.62999 0.304485 4.52578
-1.60739 0.289665 -3.18766
-1.61057 0.304627 -2.04522
-1.65251 0.315599 -0.618182
-1.67587 0.330589 0.808657
-1.62364 0.396357 2.23565
-1.61615 0.429291 3.37771
-1.62376 0.443701 4.52
-1.62268 0.643408 -3.20326
-1.63618 0.659786 -2.0609
-1.67098 0.679126 -0.632377
-1.68027 0.671653 0.796302
-1.62836 0.641118 2.22478
-1.61903 0.674971 3.36675
-1.62536 0.707405 4.50869
-1.64262 1.1717 -3.225
-1.65213 1.18658 -2.08232
-1.66787 1.19485 -0.653089
-1.67649 1.17525 0.776613
-1.66781 1.14158 2.20582
-1.65672 1.13667 3.34846
-1.65039 1.15249 4.49063
-0.791793 0.111592 -3.18003
-0.788288 0.12391 -2.03776
-0.814955 0.134926 -0.611383
-0.843311 0.17623 0.81454
-0.821485 0.28698 2.24091
-0.8103 0.313322 3.38309
-0.81121 0.316169 4.52559
-0.790258 0.289205 -3.18762
-0.797594 0.448801 3.37744
-0.805324 0.453585 4.51985
-0.802256 0.641934 -3.20353
-0.799747 0.675217 3.36679
-0.806265 0.709064 4.5087
-0.816815 1.17273 -3.22527
-0.822634 1.18858 -2.08261
-0.834342 1.19891 -0.653267
-0.845156 1.17798 0.776634
-0.842966 1.1383 2.20597
-0.833865 1.132 3.34861
-0.827721 1.14912 4.49074
0.813995 0.111592 -3.18003
0.806498 0.123911 -2.03776
0.829969 0.134933 -0.611383
0.836004 0.176255 0.81454
0.795863 0.286989 2.24091
0.807717 0.313329 3.38309
0.81791 0.316175 4.52559
0.810519 0.289205 -3.18762
0.809176 0.448806 3.37744
0.819776 0.453591 4.51985
0.820403 0.641934 -3.20353
0.81147 0.67522 3.36679
0.820553 0.709069 4.5087
0.830336 1.17273 -3.22527
0.83271 1.18857 -2.08262
0.834359 1.19891 -0.653267
0.824689 1.17798 0.776634
0.810768 1.1383 2.20597
0.811121 1.132 3.34861
0.815618 1.14912 4.49074
1.62443 0.11199 -3.18017
1.61978 0.124556 -2.03797
1.65184 0.137686 -0.611355
1.66773 0.173036 0.814816
1.63019 0.257073 2.24139
1.6281 0.292355 3.38342
1.63651 0.304498 4.52578
1.61974 0.289665 -3.18766
1.60809 0.304626 -2.04522
1.64971 0.315604 -0.618182
1.67687 0.330622 0.808657
1.62784 0.396377 2.23565
1.62661 0.429304 3.37771
1.63675 0.443713 4.52
1.63248 0.643407 -3.20326
1.63217 0.659782 -2.0609
1.66666 0.679118 -0.632377
1.68039 0.671651 0.796301
1.63249 0.641127 2.22478
1.62943 0.674979 3.36675
1.63802 0.707414 4.50869
1.65283 1.1717 -3.225
1.65786 1.18658 -2.08232
1.66496 1.19484 -0.65309
1.65883 1.17525 0.776612
1.64207 1.14158 2.20582
1.63744 1.13668 3.34846
1.63935 1.1525 4.49063
-0.80293 0.48 -2.05867
0 0.253547 -2.09645
-0.854677 0.255017 -1.33167
-0.803147 0.537668 2.24173
-1.99676e-06 0.494983 2.18502
-0.852101 0.356103 1.52167
0 0.728439 -2.13499
-0.844157 0.68338 -1.34713
0 0.630708 2.22537
-0.841912 0.678026 1.51058
0.802732 0.48 -2.05847
0.854615 0.255078 -1.33167
0.803183 0.537668 2.24177
0.852116 0.356085 1.52167
0.844168 0.68339 -1.34713
0.841902 0.678015 1.51058
-0.828006 0.330943 0.0949999
-0.870095 0.497915 -0.625517
-3.06927e-06 0.149566 -0.618334
-0.871163 0.510803 0.802242
-1.97151e-05 0.161017 0.808333
-0.845758 0.683426 0.081725
-3.8538e-06 0.952281 -0.6327
-7.21238e-06 1.16324 0.79615
0.828006 0.330942 0.0949999
0.870093 0.497913 -0.625517
0.871237 0.510815 0.802242
0.84575 0.683418 0.081725
-0.896083 0.488957 -1.3394
0.896083 0.488957 -1.3394
-1.53464e-06 0.19149 -1.33167
-1.9269e-06 0.839084 -1.34713
0 0.48 -2.2055
-0.863564 0.504359 0.0883625
0.863563 0.504364 0.0883625
-1.13922e-05 0.157415 0.0949999
-5.53309e-06 1.19388 0.081725
-0.866256 0.524236 1.51612
0.866448 0.524241 1.51612
-1.08559e-05 0.259429 1.52167
-3.60619e-06 0.866496 1.51058
-9.98378e-07 0.537668 2.26357
-0.815377 0.3925 -2.07571
-0.390034 0.274413 -2.07559
-0.842091 0.25529 -1.68833
-0.796973 0.491334 2.23985
-0.393917 0.46274 2.21726
-0.818368 0.40215 1.87833
-0.815899 0.5675 -2.06704
-0.4075 0.672835 -2.07939
-0.838471 0.678082 -1.70434
-0.807365 0.584002 2.24166
-0.3975 0.614035 2.2087
-0.822218 0.657942 1.86779
0.390034 0.27348 -2.07652
0.815401 0.3925 -2.07574
0.842189 0.255191 -1.68833
0.393913 0.462766 2.21723
0.796765 0.491334 2.23964
0.817791 0.402723 1.87833
0.4075 0.673125 -2.07968
0.815902 0.5675 -2.06705
0.838487 0.678099 -1.70434
0.3975 0.613971 2.20864
0.807331 0.584002 2.24162
0.822213 0.657937 1.86779
-0.872451 0.249557 -0.975
-0.825268 0.321367 -0.261667
-0.852006 0.402262 -0.621925
-0.451243 0.150215 -0.618334
-0.861691 0.334199 1.165
-0.83001 0.341253 0.451667
-0.867972 0.418063 0.805288
-0.468771 0.160638 0.808333
-0.845364 0.684198 -0.989913
-0.864862 0.59423 -0.629108
-0.845026 0.683083 -0.275488
-0.470525 0.914124 -0.6327
-0.852583 0.689085 1.15336
-0.868883 0.603714 0.799196
-0.846143 0.683423 0.438938
-0.53271 1.13904 0.79615
0.872452 0.249555 -0.975
0.451238 0.150215 -0.618334
0.825261 0.321373 -0.261667
0.852005 0.402262 -0.621925
0.861706 0.334181 1.165
0.468741 0.160638 0.808333
0.829936 0.341324 0.451667
0.868002 0.418081 0.805288
0.84536 0.684194 -0.989913
0.470477 0.914038 -0.6327
0.864869 0.594231 -0.629108
0.845018 0.683075 -0.275488
0.852577 0.689078 1.15336
0.532723 1.13909 0.79615
0.868874 0.603693 0.799196
0.846149 0.683428 0.438938
-0.882955 0.484479 -1.69903
-0.401465 0.48 -2.08338
-7.67318e-07 0.233199 -1.71406
0 0.366773 -2.20746
-0.896315 0.371987 -1.33553
-0.427339 0.19149 -1.33167
-0.834249 0.530952 1.87893
-0.401574 0.537668 2.23943
-6.42634e-06 0.273849 1.85334
-1.49757e-06 0.516326 2.20028
-0.85805 0.440169 1.51889
-0.426056 0.259429 1.52167
-9.63451e-07 0.791745 -1.74106
0 0.604219 -2.20686
-0.877307 0.586169 -1.34326
-0.42208 0.794988 -1.34713
-1.80309e-06 0.806779 1.86797
-4.99189e-07 0.584188 2.26052
-0.856575 0.601131 1.51335
-0.420958 0.863587 1.51058
0.882993 0.484478 -1.69893
0.401366 0.48 -2.08359
0.896311 0.372017 -1.33553
0.427307 0.19149 -1.33167
0.838798 0.530955 1.87895
0.401591 0.537668 2.23944
0.857975 0.440163 1.51889
0.426052 0.259429 1.52167
0.877304 0.586173 -1.34326
0.422083 0.794981 -1.34713
0.856608 0.601128 1.51335
0.420949 0.862824 1.51058
-0.852166 0.41446 0.0916812
-0.457567 0.157062 0.0949999
-0.879962 0.493436 -0.982456
-0.866418 0.501137 -0.268577
-2.30195e-06 0.145909 -0.975
-7.23073e-06 0.150212 -0.261667
-0.861837 0.507581 0.445302
-0.885474 0.51752 1.15918
-1.55536e-05 0.158986 0.451667
-1.52855e-05 0.212282 1.165
-0.862299 0.597712 0.0850437
-0.537549 1.16799 0.081725
-2.89035e-06 0.850723 -0.989913
-4.69345e-06 1.17727 -0.275488
-6.37274e-06 1.19087 0.438938
-5.40928e-06 1.00254 1.15336
0.852165 0.414462 0.0916812
0.457555 0.157061 0.0949999
0.879962 0.493435 -0.982456
0.866415 0.501138 -0.268577
0.861821 0.507589 0.445302
0.885474 0.517528 1.15918
0.862296 0.59771 0.0850437
0.537375 1.16766 0.081725
-0.895397 0.382244 -1.69368
-0.868113 0.388675 -0.978728
-0.871684 0.588317 -0.986184
-0.871688 0.576834 -1.70169
0.895393 0.382259 -1.69363
0.871769 0.576837 -1.70164
0.871687 0.588317 -0.986184
0.86699 0.388691 -0.978728
-0.408686 0.240357 -1.7012
0.40867 0.240357 -1.7012
0.419028 0.145909 -0.975
-0.419048 0.145909 -0.975
-0.41479 0.761018 -1.7227
-0.422184 0.811886 -0.989913
0.422181 0.811728 -0.989913
0.414791 0.761005 -1.7227
-0.395749 0.379637 -2.15329
-0.404483 0.58586 -2.08415
0.404433 0.58586 -2.08414
0.3957 0.379637 -2.1533
-0.852023 0.408393 -0.265122
-0.852126 0.420233 0.448484
-0.859162 0.597498 0.44212
-0.862957 0.595659 -0.272032
0.852024 0.408393 -0.265122
0.862955 0.595657 -0.272032
0.859158 0.597488 0.44212
0.852144 0.420242 0.448484
-0.455623 0.151203 -0.261667
0.455615 0.151203 -0.261667
0.463316 0.158513 0.451667
-0.463337 0.158515 0.451667
-0.555413 1.14381 -0.275488
-0.539815 1.16289 0.438938
0.539364 1.162 0.438938
0.555358 1.14371 -0.275488
-0.879896 0.430748 1.16209
-0.836825 0.465752 1.87863
-0.832827 0.592566 1.87336
-0.868792 0.600705 1.15627
0.879941 0.430757 1.16209
0.868704 0.600703 1.15627
0.833022 0.592565 1.87337
0.836582 0.465749 1.87864
-0.425964 0.212281 1.165
0.425943 0.212281 1.165
0.409982 0.274963 1.86584
-0.409986 0.274954 1.86584
-0.423697 1.00329 1.15336
-0.409229 0.800439 1.86788
0.409225 0.800642 1.86788
0.423686 1.00313 1.15336
-0.397745 0.50383 2.23014
0.397752 0.50383 2.23015
0.399546 0.584095 2.2374
-0.399537 0.584095 2.23743
-0.798831 0.34875 -2.06147
-0.58505 0.296693 -2.05331
-0.809745 0.281479 -1.86667
-0.793302 0.468167 2.23832
-0.590874 0.457114 2.22289
-0.802826 0.423848 2.05667
-0.818329 0.61125 -2.06718
-0.61125 0.655857 -2.06241
-0.831894 0.6717 -1.88294
-0.800636 0.607169 2.23278
-0.59625 0.609782 2.20445
-0.81171 0.647241 2.04639
0.58505 0.296695 -2.0533
0.798925 0.34875 -2.06156
0.809804 0.28142 -1.86667
0.59087 0.461279 2.21872
0.793198 0.468167 2.23822
0.802686 0.423985 2.05667
0.61125 0.655979 -2.06253
0.818397 0.61125 -2.06724
0.831927 0.671732 -1.88294
0.59625 0.609831 2.20449
0.800262 0.607169 2.23241
0.811709 0.647239 2.04639
-0.821675 0.30649 -0.796667
-0.823366 0.317113 -0.44
-0.837907 0.356962 -0.620129
-0.676657 0.150953 -0.618334
-0.861679 0.328054 0.986667
-0.833403 0.344017 0.63
-0.863726 0.373018 0.80681
-0.682703 0.201336 0.808333
-0.844617 0.683257 -0.811306
-0.857462 0.639996 -0.630904
-0.844734 0.682985 -0.454094
-0.673323 0.83012 -0.6327
-0.853994 0.69069 0.974756
-0.862747 0.647672 0.797673
-0.850131 0.687216 0.617544
-0.700703 0.930231 0.79615
0.821676 0.306488 -0.796667
0.676582 0.151094 -0.618334
0.823351 0.317126 -0.44
0.837884 0.356975 -0.620129
0.861684 0.328046 0.986667
0.68091 0.204869 0.808333
0.833403 0.344014 0.63
0.86373 0.373041 0.80681
0.844612 0.683252 -0.811306
0.673302 0.830088 -0.6327
[...]
POINT_DATA 3682
SCALARS point_scalars float 1
LOOKUP_TABLE default
-71.1385
-34.9069
-80.7236
-34.7949
-70.0282
-34.8274
-70.7041
-34.863
-33.7523
-33.6607
-38.3628
-38.9725
-33.7532
-33.5688
-38.3539
-38.9421
1.50383
-61.577
-33.4987
-34.4285
-33.3519
-34.6712
-34.6712
1.50383
-72.094
-33.7375
-35.3248
-32.9063
-34.1656
-34.1656
1.50383
-104.31
-34.852
-35.5766
-32.8638
-34.1656
-34.1656
-48.999
-121.421
-38.4993
-40.4491
-33.3942
-35.5991
-34.1656
128.62
-123.082
-37.2897
-39.4469
-34.51
-34.6712
-32.3704
128.938
-33.925
-31.9489
128.938
-34.1076
-32.0432
-41.9311
-114.584
-41.7836
-51.8656
-32.8
-34.0489
-33.6664
129.66
-113.466
-37.2783
-39.5481
-34.2754
-34.5939
-34.5911
129.66
-34.1096
-34.1096
129.66
-34.1096
-34.1096
-30.7205
-114.347
-41.9299
-51.9742
-32.7544
-33.6096
-34.1096
-1.03566
-60.4233
-33.509
-34.3555
-33.3037
-34.5939
-34.5939
-1.03566
-71.9032
-33.7453
-35.3013
-32.92
-34.1096
-34.1096
-1.03566
-106.207
-34.8618
-35.5512
-32.8541
-34.1096
-34.1096
-30.7205
-122.273
-38.5176
-40.5069
-33.3537
-35.5362
-34.1096
-3.4818
-141.145
-42.493
-35.3803
-22.8611
-39.1457
-74.945
-36.7569
-25.6636
-38.2214
0.939089
-42.5362
-35.3071
-39.1003
-36.7781
-38.2301
-33.7628
-34.4789
-45.3476
-33.5697
-43.4766
-42.1045
36.1458
-55.4498
-33.7576
-34.4873
-33.5274
-42.0705
-42.4903
-42.4985
-39.7328
-18.8285
203.955
-35.8911
-35.8754
-37.6584
-80.1763
-36.6563
-36.7771
-31.7339
-36.2823
-20.5185
-38.7373
-76.3282
-62.9726
-35.2439
-27.4392
-33.7328
3.86141
-21.7329
-51.8369
-35.049
-28.2453
-34.3975
-74.9638
-40.0862
-63.0957
-27.3469
-35.1475
-33.6797
-21.6475
-17.3852
-52.5138
-28.1905
-34.9909
-34.3786
-44.5008
-34.1244
-33.5385
-44.4534
-35.794
-32.5084
-31.4392
-42.8492
-30.4501
-35.8782
-44.4955
16.0603
-40.3291
-35.9731
-37.4574
-54.796
-44.5304
-44.4375
-34.1199
-33.5448
-35.7518
-42.8033
-32.5384
-31.4463
-30.4541
16.0895
-35.8848
-44.5103
-40.2644
-54.8126
-35.9433
-37.4338
-57.3419
181.918
-55.4683
107.107
-43.6157
-42.2751
-33.9823
-27.1898
-27.8938
-22.5788
-37.0113
-32.3958
-40.9748
189.816
-40.327
-24.1563
-31.6758
-21.1648
-37.2873
-36.7512
-57.4766
181.824
-43.6328
-42.2709
-34.0495
-27.1011
-37.0814
-32.3884
-40.3322
-24.125
-37.2696
-36.7469
-34.3338
-36.8234
-35.8446
-36.4653
-50.8035
-40.7431
-33.1663
-37.7669
-38.5036
-36.9716
-38.1601
-68.0184
6.84857
-109.818
-65.3617
-41.4014
-34.3247
-36.8014
-35.8575
-36.471
-33.155
-37.6864
-38.137
-67.9506
-59.1157
-38.8443
-33.7831
-54.9299
-59.2089
-55.0419
-33.7889
-38.9232
-59.9476
-59.9316
-44.6689
-44.6789
-51.5341
-3.02237
-2.98917
-51.3697
136.087
157.194
157.148
136.115
-34.6598
-32.3905
-34.804
-39.5132
-34.6609
-39.5279
-34.7809
-32.3929
-39.5672
-39.5643
-37.9195
-37.9126
-104.448
-57.0086
-57.2989
-105.106
-36.6942
-34.0602
-33.8415
-38.8848
-36.6283
-38.5809
-33.8829
-34.0776
-36.2375
-36.2246
-30.5316
-30.4983
-42.9906
-31.8014
-31.7902
-42.9893
-27.1432
-27.0495
-27.5726
-27.6467
-48.0804
-12.461
-64.9063
-35.1756
-28.8745
-33.6189
-3.13228
-13.7428
-74.4419
-35.1296
-28.9357
-34.0633
-11.2639
-47.7965
-65.0127
-28.7897
-35.088
-33.5194
-18.8355
-0.247102
-74.6609
-28.8933
-35.0592
-34.0568
-35.9318
-33.9344
-33.4336
-41.3692
-38.4688
-31.5529
-31.504
-44.0602
-32.5485
-37.0561
-42.8496
-24.8631
-40.9398
-37.3495
-37.4065
-44.573
-35.9331
-41.3334
-33.9344
-33.4369
-38.4327
-43.7756
-31.5877
-31.4774
-32.5418
-24.8249
-37.0593
-43.0057
-40.9247
-44.4877
-37.3052
-37.3613
-50.1365
-2.59143
-78.9634
186.709
-120.87
-120.962
-83.6513
34.8743
-50.59
-42.2927
-44.0606
-43.3045
-35.4324
-35.2493
-33.1212
-28.7122
-23.6043
-23.5071
-27.5403
-22.7887
-33.7505
-36.7267
-38.6915
-33.7935
-65.508
-65.6746
-63.7762
111.099
-43.5177
-32.5339
-38.9551
-28.2363
-26.7526
-26.6848
-30.1767
-23.7574
-36.0813
-39.4831
-37.5589
-38.0106
-50.6836
-16.1856
-79.2891
186.751
-50.5969
-42.2043
-44.0846
-43.3891
-35.3391
-35.185
-33.197
-28.6602
-33.8518
-36.7277
-38.4697
-33.8608
-43.5497
-32.5403
-38.9736
-28.2087
-36.0369
-39.4915
-37.5599
-38.0042
-34.1579
-33.1445
-33.8828
-35.5031
-33.8829
-35.0278
-34.8698
-35.6572
-45.0794
-45.072
-50.4614
-42.469
-32.5555
-34.7157
-32.7283
-37.4929
-43.3054
-43.2918
-40.1007
-39.8005
-43.8007
-39.9957
-39.8055
-51.8921
33.4012
33.4271
19.87
12.1699
-55.6835
-55.6934
-61.2996
-48.2435
-34.1441
-33.1506
-33.8758
-35.424
-33.8913
-35.0358
-34.8754
-35.6743
-32.5201
-34.6841
-32.6867
-37.724
-43.7763
-39.9615
-39.7781
-51.8329
-50.8162
-43.2559
-41.5651
-40.0382
-50.8582
-43.2724
-41.5675
-40.0289
-42.8692
-40.1458
-40.1425
-42.5858
-27.5227
-20.5639
-20.4648
-7.38056
194.558
205.302
200.17
194.604
-35.0191
-36.5852
-34.7539
-36.9824
-35.0069
-36.5768
-34.737
-36.9628
-37.4534
-39.0192
-37.709
-37.4456
-78.0206
-92.1301
-70.7698
-77.9659
-35.2356
-36.7321
-37.0541
-39.257
-34.9377
-36.8445
-37.053
-39.2398
-29.3893
-31.8824
-31.8775
-34.2434
-34.1354
-36.4331
-36.4289
-38.3225
-23.3109
-20.9156
-20.2566
-23.2003
-66.6147
116.903
-96.737
38.9672
-58.7437
-64.3375
-33.2695
-28.7871
-31.5557
-27.2832
-33.9107
-32.1671
-82.3347
166.988
-81.7787
101.895
-54.4307
-53.6387
-32.9158
-28.7125
-29.7953
-27.9717
-33.9876
-32.8181
-96.6764
39.8031
-66.3841
116.076
-58.8412
-64.4152
-31.478
-27.1824
-33.3024
-28.7236
-33.8758
-32.0399
-81.7912
102.244
-82.9256
167.278
-54.5062
-53.576
-29.7592
-27.9091
-32.9112
-28.6728
-33.9909
-32.8022
-42.3066
-29.567
-34.2302
-37.571
-35.1176
-34.1617
-50.0812
-41.3482
-36.0472
-35.6761
-32.2874
-36.0686
-31.4896
-37.7684
-39.6977
-38.4613
-32.5718
-12.56
-34.1416
-38.3687
-41.5892
-65.9669
5.46373
-7.43823
-39.2449
-47.4769
-34.5906
-38.9041
-35.7128
-45.0181
-56.3918
-51.8955
-42.4362
-29.6023
-50.066
-41.3369
-34.2291
-37.605
-35.1199
-34.1689
-35.9991
-35.65
-39.6968
-38.4301
-32.298
-36.1334
-31.4685
-37.7608
-32.5756
-12.5262
5.49578
-7.28115
-34.1427
-38.4101
-41.605
-65.9833
-39.0728
-47.5483
-56.2722
-51.9826
-34.5891
-39.3914
-35.6891
-44.9421
-58.6753
-55.8344
182.472
175.631
-55.4763
-55.5004
139.884
139.932
-52.1862
-43.107
-47.256
-41.0047
-34.1207
-33.8482
-27.1245
-27.3639
-28.5143
-28.5232
-22.9256
-22.8233
-38.3756
-34.2711
-34.0409
-30.2317
-44.5891
-44.5928
174.546
174.565
-36.3037
-46.8323
-35.7064
-13.3929
-31.6356
-31.6319
-24.4635
-24.5494
-35.3424
-38.7593
-39.1433
-34.2791
-58.7922
-55.9662
175.475
182.323
-52.2227
-43.1083
-47.2316
-41.0017
-33.9443
-34.122
-27.0337
-27.2802
-38.3658
-34.1713
-34.0318
-30.1923
-46.8816
-36.2983
-13.3648
-35.6851
-38.7585
-35.2359
-34.278
-39.0758
-34.7839
-33.5124
-37.98
-36.8976
-37.2908
-34.4324
-35.3925
-37.8911
-50.157
-50.166
-40.5173
-40.5124
-32.6574
-33.9586
-37.162
-38.5451
-38.3515
-38.3545
-36.8286
-36.8209
-36.631
-39.2208
-78.6101
-60.8907
3.8873
3.91342
-109.426
-109.621
-63.8667
-63.8048
-41.7619
-41.7735
-34.7764
-33.5062
-37.9696
-36.8891
-34.444
-37.3208
-35.3959
-37.9017
-33.9388
-32.6541
-37.0869
-38.2912
-39.2072
-36.6078
-60.6608
-77.8245
-61.218
-52.8901
-51.821
-73.9225
-35.1831
-35.0656
-41.8113
-44.6323
-33.8742
-34.6871
-38.3731
-34.189
-79.1162
-81.9424
-49.0685
-45.1254
-60.8719
-73.8951
-51.8646
-52.8932
-79.4496
-45.1628
-49.12
-82.5695
-33.8725
-34.1909
-38.367
-34.6887
-35.1828
-44.646
-41.7993
-35.0715
-100.729
-85.388
-43.964
-48.7024
-100.939
-48.6456
-43.9653
-85.4969
-49.4848
-50.0624
-42.307
-41.8273
-49.4452
-41.8095
-42.3108
-50.0715
-86.3886
-38.7048
-30.132
-69.5071
-12.9393
16.8675
-8.86045
-19.7018
-12.872
-19.6803
-8.86234
16.895
-86.2902
-69.5804
-30.1215
-38.6877
46.661
189.845
194.764
39.4999
113.12
121.482
189.532
183.536
112.738
183.795
189.71
121.386
45.293
38.9231
194.693
189.937
-33.9008
-34.3284
-35.5959
-34.6985
-31.1848
-31.9514
-33.9869
-33.1922
-35.7355
-37.8528
-35.6711
-33.6009
-40.2354
-36.8547
-37.79
-41.2419
-33.9047
-34.7101
-35.5881
-34.3195
-40.3116
-41.2238
-37.7803
-36.8809
-35.7173
-33.5758
-35.6526
-37.825
-31.1941
-33.1944
-33.9732
-31.9149
-38.9645
-42.2033
-38.8187
-36.3315
-38.9361
-36.3458
-38.813
-42.1973
-39.5796
-39.86
-37.5125
-35.2722
-39.4968
-35.3184
-37.5172
-39.8658
-68.949
-57.7374
-90.0687
15.4668
-45.2286
-60.6101
-68.7977
-47.6809
-45.1181
-47.6186
-68.6999
-60.6081
-69.2442
15.586
-90.0908
-57.6876
-38.057
-38.0564
-38.8367
-37.7979
-33.5214
-33.18
-34.829
-33.9359
-33.2798
-35.5144
-35.3637
-33.0015
-39.8269
-38.246
-39.0137
-38.9463
-38.022
-37.8656
-38.8158
-38.0643
-39.9912
-38.9418
-39.0008
-38.6407
-33.2805
-33.041
-35.1529
-35.4579
-33.4818
-34.0097
-34.5216
-33.2641
-36.2463
-39.5955
-34.1257
-33.6637
-36.1961
-33.6538
-34.1272
-39.5835
-33.8808
-28.6869
-29.6563
-32.1293
-33.8623
-32.2335
-29.6608
-28.7125
-47.8817
-41.7409
-38.4826
-49.1876
-30.7889
-29.8856
-34.1286
-35.2565
-30.7476
-35.2466
-34.1305
-29.8789
-47.8394
-49.2149
-38.4818
-41.8142
-28.7714
-23.1205
-23.0308
-28.7494
-28.7125
-28.6915
-22.9157
-23.0281
-28.8451
-25.7165
-23.6071
-28.6135
-28.8868
-28.659
-23.7087
-25.7846
-60.6444
-8.6534
-92.3495
-35.0975
-30.613
-32.6629
-50.767
-15.1496
-115.469
-34.8805
-30.0109
-32.8388
-5.05515
-59.5055
-92.6095
-30.4937
-35.015
-32.5617
-6.41024
-45.312
-116.165
-29.9498
-34.8909
-32.7989
-34.3074
-33.8132
-33.5026
-36.9214
-36.9625
-29.3246
-31.6576
-41.3656
-36.5971
-37.6268
-40.63
-43.2366
-40.0173
-38.0485
-38.3014
-42.6038
-34.3103
-36.9053
-33.8144
-33.5047
-36.8758
-41.1691
-29.384
-31.6134
-36.5912
-43.1005
-37.6271
-40.6504
-40.0241
-42.5563
-38.0098
-38.2658
-18.3344
-17.4381
-114.79
155.633
-140.306
-140.379
-105.432
-13.2744
-44.7042
-41.2836
-43.4143
-43.9386
-35.3999
-35.3612
-32.9419
-29.5339
-22.7036
-22.6324
-27.8742
-22.8403
-34.802
-38.7843
-39.2015
-34.6949
-79.1307
-75.7855
-69.8663
11.8222
-40.0557
-34.7715
-37.9086
-32.0074
-26.0781
-26.1362
-29.3411
-24.7644
-36.9742
-38.9558
-37.7741
-38.9408
-15.8509
-14.8668
-115.946
156.216
-44.6725
-41.3258
-43.4479
-44.0516
-35.3217
-35.2927
-32.9417
-29.476
-34.7944
-38.9206
-38.8785
-34.7293
-40.0785
-34.7857
-37.9325
-31.9696
-36.9507
-38.9556
-37.7837
-38.9254
-34.0548
-33.4663
-33.8012
-34.2792
-34.1889
-34.7945
-34.3001
-35.0977
-45.2761
-45.2725
-47.2449
-43.7682
-33.0471
-34.0933
-33.2293
-35.4405
-43.457
-43.4505
-41.2549
-41.9091
-42.9327
-40.8714
-40.7771
-47.3055
35.6877
35.6965
25.6294
33.2173
-55.5174
-55.5385
-58.6929
-52.149
-34.0459
-33.4619
-33.7959
-34.2466
-34.1976
-34.8028
-34.3045
-35.113
-33.0009
-34.0548
-33.2263
-35.5368
-42.8999
-40.8373
-40.7471
-47.2557
-45.8827
-42.9686
-42.0775
-41.0576
-45.9039
-42.9827
-42.0804
-41.0707
-40.4196
-39.8175
-39.8169
-40.6426
-24.1495
-19.3127
-19.1563
-13.2691
199.309
207.195
209.208
199.292
-35.4009
-36.2592
-35.3062
-36.4085
-35.3871
-36.246
-35.2909
-36.3909
-37.6093
-37.8467
-37.5741
-37.6062
-79.6771
-85.7479
-74.9558
-79.6532
-35.5106
-36.7066
-36.9017
-38.7126
-35.5807
-36.8301
-36.9174
-38.6339
-30.4001
-31.7706
-31.7681
-32.9261
-35.3042
-36.3254
-36.3197
-37.2064
-21.2788
-20.7149
-20.2487
-21.1571
-50.6353
-23.6791
-101.296
119.149
-53.3809
-112.148
-120.298
-12.1027
-49.3637
-60.0116
-60.6734
-63.2528
-35.2101
-35.3682
-33.0696
-29.6509
-28.3249
-25.8676
-30.8438
-27.3555
-33.6
-34.1651
-33.7908
-33.0442
-0.761447
13.8871
-128.46
151.351
-9.15082
-59.4845
-94.6821
43.653
-61.4095
-47.4641
-54.3856
-52.9717
-35.0006
-35.1487
-32.7529
-29.6358
-28.6551
-27.6299
-28.9313
-28.139
-33.6736
-35.0107
-34.1107
-34.2965
-58.8292
-108.904
-120.617
-11.4257
-50.5187
-26.0076
-100.316
116.45
-49.4965
-60.2027
-60.7665
-63.4027
-28.33
-25.7625
-30.7134
-27.2573
-35.1182
-35.2718
-33.0431
-29.5629
-33.4125
-34.2405
-33.7529
-33.0375
-9.22235
-59.3235
-94.8434
44.8325
-2.84515
-10.1296
-132.285
155.589
-61.337
-47.5791
-54.438
-52.9529
-28.6055
-27.5599
-28.9209
-28.081
-34.937
-35.0877
-32.7437
-29.6129
-33.6795
-34.976
-34.0958
-34.2726
-42.9545
-39.1565
-44.4967
-32.3421
-34.0168
-34.1637
-34.1702
-35.4373
-33.4573
-33.6555
-33.8465
-33.82
-43.8657
-44.7591
-46.6135
-42.6942
-36.6147
-35.257
-35.7103
-35.8891
-31.9472
-32.9082
-32.3977
-34.0539
-31.4667
-31.9504
-30.7128
-35.6988
-41.8902
-42.7449
-40.8163
-40.3223
-31.4316
-31.2958
-31.7449
-20.7691
-36.4424
-35.3676
-34.7373
-37.2721
-43.9731
-44.2556
-42.8256
-53.9652
-5.55564
27.7751
9.22347
13.0677
-40.7246
-39.915
-39.6984
-43.7147
-36.655
-35.3439
-35.1776
-37.6103
-37.0839
-38.9917
-36.5678
-40.9807
-52.126
-55.8028
-55.8182
-53.6767
-42.9714
-39.1948
-44.5367
-32.3737
-43.8427
-44.7476
-46.5979
-42.6801
-34.0155
-34.1552
-34.1674
-35.419
-33.4616
-33.6628
-33.8503
-33.8267
-36.5686
-35.2191
-35.6652
-35.8637
-41.7685
-42.7202
-40.795
-40.274
-31.9627
-32.9332
-32.4181
-34.1057
-31.4588
-31.9346
-30.7287
-35.7124
-31.432
-31.3022
-31.7497
-20.7546
-5.46855
27.7843
9.23641
13.1183
-36.4482
-35.3742
-34.7378
-37.2978
-44.0896
-44.2459
-42.8424
-53.9303
-40.5879
-39.9266
-39.6002
-43.7598
-52.0735
-55.8301
-55.9991
-53.7792
-36.6216
-35.3131
-35.1783
-37.5961
-37.0502
-38.956
-36.5429
-40.998
-63.1117
-54.8851
-57.6592
-56.6268
185.448
184.321
183.096
179.275
-66.8258
-47.0869
-55.2835
-55.3007
68.9773
163.587
124.61
124.486
-43.9238
-43.4115
-46.9387
-42.193
-43.8206
-40.7685
-43.5822
-41.1512
-33.4529
-34.9192
-34.0954
-33.9004
-28.3014
-25.3081
-27.1273
-27.2657
-28.1751
-28.2792
-28.0485
-28.0539
-22.7372
-21.8518
-22.8111
-22.7559
-37.5211
-36.661
-39.6002
-34.467
-32.9481
-32.083
-33.3773
-31.2567
-52.2912
-31.7449
-41.9096
-42.0793
169.369
195.736
181.349
181.217
-39.4856
-41.0304
-38.1763
-43.1396
-26.4455
-22.351
-29.6071
-18.8276
-30.7327
-32.9383
-31.6687
-31.667
-22.6299
-20.2651
-22.5239
-22.5088
-37.3958
-37.1711
-36.182
-38.2909
-37.1504
-36.5534
-37.8468
-35.4234
-63.3914
-54.9218
-57.7958
-56.7589
185.371
184.302
179.17
183.003
-43.9439
-43.4285
-46.9592
-42.2029
-43.8332
-40.7589
-43.5743
-41.1476
-33.5084
-34.6345
-33.9998
-34.1056
-28.2453
-25.1747
-27.0369
-27.1791
-37.4372
-36.7609
-39.6103
-34.522
-32.9585
-32.0758
-33.3718
-31.2424
-39.4969
-41.0317
-43.1694
-38.1698
-26.4162
-22.3101
-18.7954
-29.5853
-37.3876
-37.158
-38.2554
-36.1666
-37.1459
-36.549
-35.4628
-37.8343
-34.0584
-34.6716
-34.6369
-33.923
-36.3293
-37.1901
-37.009
-36.7647
-35.5181
-37.646
-36.508
-35.1264
-36.167
-36.6103
-35.8928
-37.1314
-54.1246
-45.8828
-50.6526
-50.6575
-41.46
-40.5027
-40.7196
-40.7168
-32.5672
-34.1773
-32.9336
-33.5651
-38.2566
-37.8029
-37.429
-38.2375
-39.0628
-38.0373
-38.468
-38.47
-38.5184
-35.5674
-36.9396
-36.9357
-38.8689
-37.5708
-37.4091
-38.774
-58.3675
-74.703
-71.8839
-63.1695
13.4394
-0.086986
6.27711
6.2809
-68.3521
-102.504
-109.862
-109.703
-63.1521
-67.7394
-65.0126
-64.9777
-43.606
-39.7201
-41.4759
-41.4803
-34.0502
-34.661
-34.629
-33.9134
-36.2729
-37.1782
-36.9915
-36.7462
-35.5307
-37.6364
-35.1365
-36.5291
-36.1819
-36.6082
-35.8976
-37.1397
-32.543
-34.1692
-33.5486
-32.9272
-38.0417
-37.8105
-37.3494
-38.0373
-38.8438
-37.5493
-38.7535
-37.3852
-58.2645
-74.736
-63.1685
-71.153
-50.5246
-57.9674
-58.9994
-61.0651
-40.5787
-37.7901
-41.1872
-38.0201
-33.3761
-33.5564
-34.7854
-34.1035
-63.2442
-54.685
-55.19
-50.6378
-50.6288
-58.0736
-59.1104
-61.1311
-63.5047
-54.779
-55.3172
-50.7001
-33.3796
-33.5572
-34.785
-34.1123
-40.5559
-37.8203
-41.1397
-38.0557
-77.0174
-63.6432
-57.2316
-50.7574
-77.0183
-63.7018
-57.2307
-50.7339
-34.6297
-53.5734
-41.4138
-48.9841
-34.6205
-53.5905
-41.4184
-48.9955
-64.0554
-54.0544
-48.3481
-42.067
-7.43519
1.59886
-7.95028
1.13422
-7.39545
1.63444
-7.92348
1.16733
-63.9345
-53.9711
-48.1308
-42.0205
117.31
75.5887
162.757
136.344
167.51
142.892
168.116
163.384
143.064
167.869
164.406
167.955
75.5818
117.208
138.565
162.652
-34.3515
-34.4466
-34.7605
-34.9897
-32.3308
-31.7532
-33.034
-32.4221
-34.2326
-35.2198
-34.3235
-35.881
-39.1411
-40.3942
-38.715
-39.5121
-34.352
-34.4519
-34.7576
-34.9918
-39.1752
-40.4093
-38.7274
-39.5098
-34.2099
-35.1966
-34.3023
-35.8594
-32.3369
-31.7446
-33.0372
-32.4213
-38.8248
-40.2801
-39.2068
-40.1094
-40.2732
-38.8392
-40.1036
-39.203
-38.7641
-37.3956
-38.1679
-37.2271
-37.3636
-38.7567
-37.2264
-38.169
-91.4777
-42.4823
-91.5187
-101.957
-49.2641
-57.3667
-58.3547
-61.6242
-56.7359
-49.1975
-61.4805
-58.4383
-42.9087
-91.6197
-103.574
-91.869
-36.3993
-37.1066
-36.8839
-36.9389
-33.6901
-34.0194
-34.1092
-34.6232
-33.3539
-33.9067
-33.8147
-34.6495
-39.0147
-39.7428
-38.557
-38.6721
-36.3453
-37.0307
-36.8493
-36.8662
-38.773
-39.2726
-38.5952
-38.431
-33.3748
-33.9277
-33.8941
-34.6073
-33.5799
-33.996
-34.1224
-34.6023
-35.5354
-37.6201
-35.2175
-36.6133
-35.5219
-37.6006
-35.2092
-36.6023
-30.7065
-34.486
-29.1651
-29.6164
-30.7376
-34.3214
-29.1708
-29.5973
-44.814
-46.4154
-40.6961
-42.1906
-30.7122
-32.1816
-31.6726
-32.997
-30.6892
-32.1711
-31.6668
-32.9931
-44.8029
-46.455
-40.8349
-42.208
-28.3497
-27.1889
-27.1314
-25.1457
-27.0916
-28.3063
-25.0105
-27.0403
-27.7243
-28.3498
-26.3494
-27.4296
-28.4081
-27.7929
-27.5084
-26.4431
-91.2151
36.9184
-145.964
24.5996
-62.7952
-92.8914
-32.7367
-30.078
-33.3775
-28.8227
-33.6239
-33.0902
-121.205
129.118
-117.028
49.9351
-75.9695
-79.5411
-32.5876
-29.8571
-29.8329
-28.919
-33.6604
-32.8713
-146.616
25.393
-91.4422
34.4079
-62.6751
-93.1384
-33.5874
-28.7511
-32.6818
-29.9726
-33.5468
-33.0036
-116.491
45.8457
-123.129
135.669
-76.1938
-79.4885
-29.828
-28.8772
-32.569
-29.8027
-33.6581
-32.8263
-35.4331
-42.6842
-33.8929
-36.2056
-33.9102
-33.6057
-43.1432
-40.0469
-38.2435
-37.4276
-31.363
-34.658
-29.6724
-36.1975
-44.1146
-38.666
-33.6009
-26.8383
-35.6624
-38.7867
-41.3306
-54.9515
-15.8133
-42.6451
-40.2591
-44.5443
-36.3324
-38.7488
-36.4732
-41.1705
-45.6166
-45.5197
-35.4333
-42.8372
-43.1368
-40.0378
-33.895
-36.1689
-33.9136
-33.6099
-38.2042
-37.3877
-45.7988
-38.3699
-31.3843
-34.6613
-29.7
-36.1498
-33.5965
-26.8323
-15.8124
-42.5848
-35.6627
-38.8169
-41.4342
-55.8232
-40.2714
-44.5154
-45.5469
-45.4999
-36.2977
-38.7959
-36.4407
-41.0682
-122.756
170.345
-128.527
161.139
-76.6157
-80.4082
188.993
185.382
-109.316
-20.2313
-109.559
-19.2177
-83.5483
-83.6084
42.0576
42.1278
-51.6491
-49.0436
-43.9393
-39.8029
-46.8715
-42.6197
-41.2972
-43.6311
-32.8621
-29.3727
-32.7861
-29.5062
-33.1654
-33.0629
-28.7308
-28.6694
-28.7971
-23.3063
-28.7771
-23.2216
-27.8232
-27.8373
-22.711
-22.6735
-33.8644
-33.1675
-37.3613
-34.4411
-39.499
-34.7182
-33.9621
-32.8954
-79.1209
24.445
-79.1887
24.3443
-65.4866
-65.2167
111.57
110.578
-44.6932
-40.2322
-33.8067
-25.4634
-36.416
-41.5988
-32.9765
-23.8872
-29.0626
-26.3434
-29.0521
-26.275
-30.0723
-30.0711
-25.183
-25.1291
-35.7594
-36.7935
-39.1465
-41.5712
-36.4224
-38.5009
-39.8804
-36.5071
-121.766
169.931
-131.51
160.945
-76.7893
-80.8831
185.535
189.034
-51.6589
-48.9554
-43.9707
-39.9266
-46.8633
-42.6279
-41.3816
-43.6369
-32.853
-29.3038
-32.7885
-29.4442
-33.1212
-33.2541
-28.6758
-28.6176
-33.9594
-33.1435
-37.3647
-34.4251
-39.6171
-34.6822
-33.937
-32.9557
-44.7227
-40.2312
-33.8118
-25.4609
-41.6259
-36.4237
-23.8615
-32.9596
-35.7115
-36.7686
-39.1448
-41.6237
-38.4847
-36.4041
-36.4737
-39.8394
-34.2211
-34.7612
-33.1597
-33.8858
-34.2065
-33.5329
-35.5517
-35.1697
-33.9415
-34.3446
-34.3556
-35.9912
-35.0849
-34.5651
-35.1383
-36.2291
-46.9064
-43.5014
-46.8986
-43.4946
-50.3543
-50.3593
-42.4044
-42.4015
-32.0618
-35.4582
-34.2485
-36.4797
-32.3448
-33.1212
-37.5063
-37.9096
-40.9293
-41.6536
-40.92
-41.6395
-39.9959
-39.999
-39.7686
-39.7629
-42.3546
-50.8951
-38.8203
-44.1661
-38.8281
-40.4
-54.4189
-49.6839
23.2095
33.046
23.225
33.0172
19.253
19.2754
13.4667
13.3617
-58.4344
-52.6542
-58.4441
-52.6807
-61.1434
-61.1465
-48.4836
-48.4876
-34.2104
-34.7679
-33.1645
-33.8209
-34.1988
-33.5266
-35.5734
-35.0157
-33.9464
-34.3559
-34.3584
-36.0096
-34.5689
-35.0918
-35.1522
-36.2503
-32.0726
-35.5225
-34.2379
-36.5036
-33.083
-32.306
-37.633
-38.2862
-42.334
-50.8176
-38.7896
-44.1171
-40.3748
-38.7998
-49.6216
-54.357
-51.4998
-50.15
-46.6316
-41.609
-39.7674
-44.5598
-41.1541
-39.2504
-51.544
-50.1935
-46.6567
-41.6185
-44.5814
-39.7741
-39.2449
-41.1429
-43.1416
-43.1457
-41.105
-40.6635
-41.1028
-40.6605
-42.586
-42.5875
-28.2047
-28.3409
-25.7196
-14.9216
-14.8879
-25.6231
-7.70501
-7.40687
196.032
192.983
201.527