# vtk DataFile Version 2.0
tet_velo
ASCII
DATASET UNSTRUCTURED_GRID
POINTS 29498 float
-0.765 0.105 -1.79863
-0.625 0.225 1.94155
-0.595 0.520669 -1.785
-0.585 0.695 1.8538
0.775 0.105 -1.80171
0.681023 0.195 1.865
0.605 0.520957 -1.785
0.595 0.695 1.85405
-0.741735 0.121599 -0.551903
-0.70488 0.151787 0.694823
-0.756457 0.74357 -0.572067
-0.742204 0.79076 0.640867
0.759217 0.119457 -0.579473
0.72667 0.150679 0.642763
0.76656 0.743864 -0.571983
0.752324 0.790976 0.641033
-1.51923 -0.243613 -2.76776
-1.50433 -0.172467 -1.78711
-1.47886 -0.147306 -0.541256
-1.41423 -0.127552 0.712007
-1.33091 -0.080538 1.9584
-1.31282 -0.0609277 2.9418
-1.3188 -0.0492994 3.9192
-1.50803 0.0115764 -2.76833
-1.49523 0.104881 -1.79126
-1.48666 0.148271 -0.548855
-1.41318 0.162242 0.698334
-1.30302 0.192985 1.94145
-1.2983 0.210346 2.9253
-1.31535 0.223715 3.90345
-1.43865 0.498317 -2.76336
-1.39266 0.591063 -1.78785
-1.48216 0.748925 -0.568077
-1.43608 0.777958 0.65157
-1.29288 0.720409 1.87377
-1.30159 0.740588 2.87102
-1.32859 0.769912 3.8612
-1.40131 1.36043 -2.76821
-1.38731 1.46369 -1.79449
-1.42291 1.60748 -0.584531
-1.44434 1.67049 0.621926
-1.42029 1.65191 1.83622
-1.39954 1.6409 2.81897
-1.39138 1.65139 3.80675
-0.791321 -0.246486 -2.77394
-0.763375 -0.173319 -1.79613
-0.741386 -0.162266 -0.550922
-0.70663 -0.135906 0.700172
-0.650071 -0.0695757 1.94596
-0.637449 -0.0565412 2.92928
-0.640752 -0.0509105 3.90654
-0.794292 0.00186472 -2.77234
-0.632606 0.215008 2.91603
-0.642755 0.220913 3.89192
-0.734347 0.466109 -2.7635
-0.639411 0.730437 2.86195
-0.65983 0.761857 3.85098
-0.680748 1.3411 -2.76929
-0.657399 1.44706 -1.79536
-0.693216 1.60574 -0.587285
-0.735362 1.67376 0.615874
-0.734938 1.64699 1.82742
-0.719879 1.63258 2.80934
-0.710312 1.64351 3.79674
0.692012 -0.246884 -2.7816
0.755334 -0.173874 -1.80574
0.752117 -0.164 -0.576818
0.723488 -0.139483 0.654571
0.696716 -0.0878545 1.88578
0.697199 -0.0707075 2.88212
0.705389 -0.0604341 3.86991
0.665895 0.00169267 -2.77746
0.675583 0.199971 2.87041
0.689766 0.211546 3.85725
0.627652 0.466118 -2.7666
0.634052 0.724195 2.84052
0.662003 0.755463 3.82536
0.735305 1.34081 -2.77541
0.766212 1.44683 -1.80099
0.76074 1.60542 -0.593846
0.700447 1.67319 0.607478
0.644394 1.6457 1.81626
0.638641 1.63023 2.79446
0.650254 1.6403 3.77847
1.4362 -0.244614 -2.78524
1.49571 -0.173789 -1.80886
1.49683 -0.150213 -0.585219
1.44627 -0.134512 0.63892
1.3903 -0.103024 1.86613
1.38006 -0.082724 2.85966
1.38836 -0.0661437 3.85004
1.41435 0.0109794 -2.78138
1.49361 0.104226 -1.80527
1.50694 0.14587 -0.586209
1.44611 0.157599 0.631035
1.36253 0.169363 1.85227
1.35378 0.188415 2.84759
1.36921 0.207271 3.83784
1.36861 0.498074 -2.77241
1.40369 0.5911 -1.79396
1.50292 0.74836 -0.581719
1.45339 0.776951 0.626826
1.31182 0.714493 1.83978
1.31202 0.729156 2.8245
1.34002 0.758113 3.81038
1.44797 1.3597 -2.78183
1.47711 1.46303 -1.80762
1.48214 1.60659 -0.600004
1.42377 1.66899 0.602196
1.35297 1.64893 1.8109
1.33438 1.63604 2.78739
1.34131 1.64501 3.76955
-0.632854 0.312834 -1.74467
0.005 0.101258 -1.80391
-0.758086 0.108581 -1.17527
-0.625894 0.46 1.91857
0.0280115 0.246447 1.86683
-0.678634 0.1747 1.31819
0.005 0.582646 -1.84683
-0.753269 0.709659 -1.17853
0.00500003 0.774547 1.93347
-0.72654 0.805818 1.24733
0.642826 0.312978 -1.74618
0.771578 0.107759 -1.19059
0.662676 0.445 1.88419
0.704613 0.172072 1.25388
0.760933 0.707563 -1.17849
0.736566 0.805892 1.24754
-0.723509 0.136491 0.07146
-0.812344 0.432584 -0.561985
0.00874128 0.141913 -0.565688
-0.82417 0.471274 0.667845
0.010895 0.153381 0.668793
-0.757415 0.77525 0.0344
0.00505127 0.914545 -0.572025
0.00505977 1.15083 0.64095
0.756167 0.121845 0.031645
0.82208 0.431661 -0.575728
0.834187 0.470827 0.641898
0.767522 0.775501 0.034525
-0.824995 0.372709 -1.1769
-0.827043 0.451929 0.05293
-0.858457 0.465637 1.28276
0.00687064 0.130928 -1.18293
0.00981816 0.147834 0.0515525
0.0194533 0.186499 1.28603
0.005 0.312906 -1.9022
0.0165058 0.4525 2.04042
0.00502563 0.811656 -1.17851
0.00505552 1.17342 0.0344625
0.0050299 0.990442 1.24744
0.815544 0.37232 -1.18454
0.837233 0.451244 0.033085
0.849953 0.457914 1.25071
-1.13011 0.10494 -1.79494
-0.764187 -0.0341595 -1.79738
-0.779646 0.0534324 -2.28549
-0.964009 0.208993 1.9415
-0.637535 0.0777121 1.94375
-0.628803 0.220004 2.42879
-0.993832 0.555866 -1.78643
-0.664674 0.493389 -2.27425
-0.626199 0.983867 -1.79018
-0.938938 0.707704 1.86378
-0.612206 0.712718 2.35788
-0.659969 1.17099 1.84061
0.765167 -0.0344368 -1.80372
0.720447 0.0533463 -2.28959
1.1343 0.104613 -1.80349
0.688869 0.0535727 1.87539
0.678303 0.197485 2.3677
1.02178 0.182181 1.85864
0.616326 0.493537 -2.2758
0.685606 0.983892 -1.793
1.00434 0.556028 -1.78948
0.614526 0.709597 2.34729
0.619697 1.17035 1.83516
0.953411 0.704746 1.84691
-1.1142 0.134935 -0.550379
-0.74156 -0.0203338 -0.551413
-1.05903 0.157015 0.696579
-0.705755 0.00794037 0.697498
-1.11931 0.746247 -0.570072
-0.724837 1.17465 -0.579676
-1.08914 0.784359 0.646218
-0.738783 1.23226 0.62837
0.755667 -0.0222713 -0.578146
1.13308 0.132664 -0.582841
0.725079 0.0055981 0.648667
1.08639 0.154139 0.636899
0.76365 1.17464 -0.582915
1.13474 0.746112 -0.576851
0.726385 1.23208 0.624256
1.10286 0.783963 0.63393
-1.51178 -0.20804 -2.27743
-1.51363 -0.116018 -2.76805
-1.15528 -0.245049 -2.77085
-1.49159 -0.159887 -1.16418
-1.49978 -0.0337932 -1.78918
-1.13385 -0.172893 -1.79162
-1.44654 -0.137429 0.0853758
-1.48276 0.000482227 -0.545055
-1.11012 -0.154786 -0.546089
-1.37257 -0.104045 1.3352
-1.4137 0.0173451 0.705171
-1.06043 -0.131729 0.70609
-1.32187 -0.0707329 2.4501
-1.31696 0.0562237 1.94993
-0.99049 -0.0750568 1.95218
-1.31581 -0.0551136 3.4305
-1.30556 0.0747091 2.93355
-0.975136 -0.0587345 2.93554
-1.31707 0.0872078 3.91133
-0.979776 -0.050105 3.91287
-1.50163 0.0582286 -2.27979
-1.47334 0.254947 -2.76584
-1.15116 0.00672055 -2.77034
-1.49094 0.126576 -1.17006
-1.44394 0.347972 -1.78955
-1.44992 0.155256 0.0747397
-1.48441 0.448598 -0.558466
-1.3581 0.177614 1.31989
-1.42463 0.4701 0.674952
-1.30066 0.201666 2.43338
-1.29795 0.456697 1.90761
-1.30682 0.21703 3.41438
-1.29995 0.475467 2.89816
-0.965451 0.212677 2.92067
-1.32197 0.496814 3.88232
-0.979052 0.222314 3.89769
-1.41566 0.54469 -2.2756
-1.41998 0.929372 -2.76578
-1.0865 0.482213 -2.76343
-1.43741 0.669994 -1.17796
-1.38999 1.02738 -1.79117
-1.45912 0.763441 0.0417462
-1.45254 1.1782 -0.576304
-1.36448 0.749183 1.26267
-1.44021 1.22422 0.636748
-1.29723 0.730498 2.37239
-1.35658 1.18616 1.85499
-1.31509 0.75525 3.36611
-1.35057 1.19075 2.845
-0.970503 0.735512 2.86649
-1.35998 1.21065 3.83397
-0.994209 0.765885 3.85609
-1.39431 1.41206 -2.28135
-1.04103 1.35076 -2.76875
-1.40511 1.53559 -1.18951
-1.02236 1.45538 -1.79492
-1.43362 1.63898 0.0186974
-1.05806 1.60661 -0.585908
-1.43231 1.6612 1.22907
-1.08985 1.67213 0.6189
-1.40991 1.64641 2.32759
-1.07761 1.64945 1.83182
-1.39546 1.64615 3.31286
-1.05971 1.63674 2.81415
-1.05085 1.64745 3.80174
-0.777348 -0.209902 -2.28503
-0.792806 -0.122311 -2.77314
-0.0496544 -0.246685 -2.77777
-0.75238 -0.167793 -1.17352
-0.00402029 -0.173596 -1.80093
-0.724008 -0.149086 0.0746251
0.00536557 -0.163133 -0.56387
-0.67835 -0.102741 1.32307
0.00842886 -0.137694 0.677372
-0.64376 -0.0630585 2.43762
0.0233225 -0.0787151 1.91587
-0.639101 -0.0537259 3.41791
-0.635028 0.0792332 2.92266
0.0298751 -0.0636244 2.9057
-0.641753 0.0850012 3.89923
0.0323184 -0.0556723 3.88822
-0.764319 0.233987 -2.76792
-0.0641983 0.00177869 -2.7749
-0.637681 0.21796 3.40397
-0.636009 0.472722 2.88899
0.0214885 0.207489 2.89322
-0.651292 0.491385 3.87145
0.0235053 0.216229 3.87459
-0.707547 0.903606 -2.76639
-0.0533475 0.466113 -2.76505
-0.649621 0.746147 3.35647
-0.679645 1.18151 2.83564
-0.00267984 0.727316 2.85124
-0.685071 1.20268 3.82386
0.00108654 0.75866 3.83817
-0.669073 1.39408 -2.28232
0.0272789 1.34096 -2.77235
-0.675308 1.5264 -1.19132
0.0544066 1.44695 -1.79817
-0.714289 1.63975 0.0142943
0.0337617 1.60558 -0.590566
-0.73515 1.66037 1.22164
-0.0174576 1.67348 0.611676
-0.727408 1.63978 2.31838
-0.045272 1.64634 1.82184
-0.715095 1.63804 3.30304
-0.0406191 1.63141 2.8019
-0.0300286 1.64191 3.7876
0.723673 -0.210379 -2.29367
0.678954 -0.122596 -2.77953
1.06411 -0.245749 -2.78342
0.753726 -0.168937 -1.19128
1.12552 -0.173831 -1.8073
0.737802 -0.151741 0.0388766
1.12448 -0.157106 -0.581018
0.710102 -0.113669 1.27018
1.08488 -0.136997 0.646746
0.696957 -0.079281 2.38395
1.04351 -0.0954393 1.87596
0.701294 -0.0655708 3.37601
0.686391 0.0646316 2.87626
1.03863 -0.0767158 2.87089
0.697577 0.075556 3.86358
1.04687 -0.0632889 3.85997
0.646774 0.233905 -2.77203
1.04012 0.00633604 -2.77942
0.682674 0.205758 3.36383
0.654817 0.462083 2.85546
1.01468 0.194193 2.859
0.675884 0.483505 3.8413
1.02949 0.209409 3.84755
0.681479 0.903464 -2.77101
0.998133 0.482096 -2.7695
0.648027 0.739829 3.33294
0.636346 1.17721 2.81749
0.973038 0.726675 2.83251
0.656129 1.19788 3.80192
1.00101 0.756788 3.81787
0.750759 1.39382 -2.2882
1.09164 1.35026 -2.77862
0.763476 1.52612 -1.19742
1.12166 1.45493 -1.8043
0.730593 1.6393 0.0068159
1.12144 1.606 -0.596925
0.67242 1.65945 1.21187
1.06211 1.67109 0.604837
0.641517 1.63797 2.30536
0.998681 1.64731 1.81358
0.644447 1.63527 3.28646
0.986512 1.63314 2.79092
0.995784 1.64265 3.77401
1.46595 -0.209201 -2.29705
1.42528 -0.116817 -2.78331
1.49627 -0.162001 -1.19704
1.49466 -0.0347815 -1.80706
1.47155 -0.142363 0.0268505
1.50188 -0.0021714 -0.585714
1.41828 -0.118768 1.25253
1.44619 0.0115434 0.634978
1.38518 -0.092874 2.3629
1.37642 0.0331693 1.8592
1.38421 -0.0744339 3.35485
1.36692 0.0528457 2.85363
1.37879 0.0705638 3.84394
1.45398 0.0576026 -2.29333
1.39148 0.254527 -2.7769
1.50027 0.125048 -1.19574
1.44865 0.347663 -1.79962
1.47652 0.151735 0.0224132
1.50493 0.447115 -0.583964
1.40432 0.163481 1.24165
1.44975 0.467275 0.628931
1.35816 0.178889 2.34993
1.33718 0.441928 1.84603
1.36149 0.197843 3.34272
1.3329 0.458786 2.83605
1.35461 0.482692 3.82411
1.38615 0.544587 -2.28319
1.40829 0.928888 -2.77712
[...]
POINT_DATA 29498
VECTORS point_vectors float
-8.00587 -9.4651 18.1957
0.0820581 0.00720699 0.419919
-1.37233 0.834216 1.95827
-0.0245916 -0.0280792 -0.00202352
7.76309 -8.34205 18.229
-0.151301 0.343568 1.4838
2.27571 1.25815 3.0588
0.0224201 -0.0473517 0.0277981
-0.00259922 0.00614682 0.389048
0 0 0
-0.0396042 -0.0434301 0.188507
0.0254143 0.0330365 0.108864
-0.0102306 0.00568395 0.472483
0 0 0
0.0435308 -0.0534955 0.280784
-0.0317265 0.0400433 0.135257
-0.58555 -0.291772 19.8765
-1.14557 -0.678097 20.466
-0.400858 -0.486325 21.231
0.13461 -0.224637 21.3849
0.77002 0.179634 21.2633
1.0118 0.283674 20.8399
0.924839 0.147659 20.2578
-0.717887 -0.227807 19.8048
-1.56273 -0.575736 20.3622
-0.650906 -0.550728 21.2815
0.00453101 -0.359362 21.4988
0.91754 -0.0284461 21.2962
1.14707 0.0370757 20.9385
1.17395 -0.0603496 19.766
-0.790379 0.00571442 19.6536
-2.14036 0.132857 20.1502
-1.15734 -0.227091 21.2489
-0.298487 -0.30363 21.5519
0.745087 -0.515847 21.3837
0.942826 -0.566884 21.0332
0.819257 -0.381251 20.4278
-0.550699 0.354301 19.8022
-1.00928 0.703508 20.1809
-0.902246 0.487188 20.9435
-0.362578 0.0496555 21.3265
0.0933399 -0.306183 21.132
0.270265 -0.441418 20.9208
0.291508 -0.380671 20.7792
-0.651605 -0.669245 19.3296
-1.67658 -3.25776 20.8834
0.167423 -0.0441629 21.0392
0.270865 0.386969 19.0497
0.250953 1.20549 17.4488
0.698893 1.45995 17.7371
0.634326 1.41641 18.5743
-0.811437 -0.557651 19.0565
0.904255 1.29676 9.82237
1.2651 1.15734 13.3524
-0.943132 0.0142538 18.6329
1.16047 -0.295185 6.2347
1.25073 -0.507479 10.9617
-0.495748 0.690212 19.3758
-1.07707 1.85673 19.8041
-1.22243 1.62018 20.9398
-0.492988 0.365267 21.8089
-0.0226015 -0.451038 21.3812
0.155311 -0.718069 21.1072
0.0657085 -0.734332 20.548
0.600793 -0.72019 19.2401
1.68667 -3.24376 20.8706
-0.210894 -0.134593 21.1088
-0.267147 0.414581 19.5988
-0.367873 1.21322 18.4567
-0.776618 1.51606 19.0162
-0.665955 1.26527 18.9654
0.750835 -0.62484 18.8826
-1.03191 1.48127 10.9311
-1.27787 1.08709 13.979
0.87687 0.0305275 18.4591
-1.23182 -0.33704 6.21763
-1.33698 -0.528383 11.2111
0.521393 0.658228 19.4017
1.17624 1.67815 19.8443
1.24372 1.51722 20.9458
0.50748 0.38541 21.8562
0.062293 -0.456625 21.3906
-0.088101 -0.74695 21.0988
-0.0267578 -0.757847 20.652
0.598814 -0.314014 19.8244
1.14615 -0.683704 20.4299
0.453979 -0.499067 21.2084
-0.103105 -0.216145 21.3763
-0.661521 0.133041 21.2767
-0.888026 0.238736 20.9733
-0.883563 0.119634 20.4156
0.716626 -0.23874 19.7318
1.53813 -0.562068 20.3427
0.715702 -0.540837 21.2627
0.0103099 -0.341786 21.4797
-0.788557 -0.0270764 21.3384
-1.08527 0.00142241 21.0245
-1.14125 -0.080891 19.9947
0.800603 0.0099035 19.5921
2.06112 0.118881 20.1596
1.17396 -0.20638 21.2332
0.285785 -0.298937 21.5584
-0.741472 -0.489122 21.4125
-0.955961 -0.540421 21.0696
-0.847409 -0.379255 20.5944
0.536916 0.336203 19.8268
0.965607 0.628729 20.2134
0.873574 0.451981 20.9291
0.370291 0.0517707 21.3588
-0.0922542 -0.341181 21.1691
-0.287706 -0.508852 20.9208
-0.310181 -0.392787 20.7289
-0.266275 -0.0145769 0.316495
0.000366721 -0.0412338 0.375083
-0.10939 0.0811141 0.797118
-0.0239452 -0.0340688 -0.0194723
0 0 0
-0.0025187 0.00456754 0.0978565
0 0 0
-0.0796595 -0.0115386 0.325605
0.00424633 0.0273969 -0.0197742
0.00665347 0.00278966 0.0422861
0.719775 -0.0484059 0.871136
0.139733 0.135534 1.29069
0.00233652 -0.01519 0.00259656
0.0123754 0.0128008 0.307107
0.0975835 -0.0169821 0.406239
-0.00405655 0.00177475 0.0262001
0.00140399 0.0040853 0.158195
-0.000284367 -0.00122951 0.0115144
-0.000391694 6.47385e-05 0.025462
-0.000407404 0.00257236 0.0120986
0.000204524 0.000492092 0.0221194
0.00835672 0.0170528 0.122791
-0.000250742 0.00730194 0.0198083
-3.29385e-06 -0.00110961 0.00755296
0.00915954 0.00469178 0.530187
0.000962193 -0.00270558 0.0360839
0.0017883 0.0181999 0.102018
-0.00989312 0.0170326 0.118449
-0.00136957 -0.000640893 0.0461671
-8.33266e-05 0.00353332 0.0270348
0.00138219 0.00576214 0.0481886
-2.01617e-06 2.09731e-06 5.90041e-05
0 0 0
0 0 0
0 0 0
0.0491254 -0.0500915 -0.025726
-0.000103284 0.00554999 0.0336687
3.34691e-05 0.0148063 0.0971712
0.000113625 0.00245448 -0.00740726
0.00163775 -0.00274428 0.0562549
0.000135925 0.00432291 0.0354881
-0.00239702 0.00705237 0.0630803
-2.88096 -1.56763 20.1627
-2.68122 -5.08956 20.7849
-2.04305 -1.52672 18.2628
1.10957 1.05344 14.0998
-0.142109 1.06054 10.1236
0.262949 0.77478 6.03697
-4.8025 0.942075 19.1367
-2.73272 0.509291 16.7048
-2.50849 3.60872 18.9836
1.30133 -0.0984563 13.214
-0.0509385 -0.277172 2.60847
0.538983 -0.532085 14.7122
2.7004 -4.99547 20.8138
2.09244 -1.70911 17.9475
2.78745 -1.48715 20.1542
0.0175264 1.24909 12.4186
-0.462573 1.12281 7.71366
-1.08912 0.869518 16.7119
2.721 0.604447 16.357
2.60609 3.21689 19.1137
4.58672 0.801787 19.2789
-0.021303 -0.380849 2.76958
-0.50159 -0.605169 13.7181
-1.407 -0.0696395 14.1531
-0.558125 -1.06745 20.9385
0.0457409 0.307558 15.1965
0.000808693 -0.164061 17.468
0.20196 0.326711 12.7955
-1.82532 -0.668262 21.3819
-2.81699 1.89876 20.8765
-0.280575 -0.364346 19.9108
-0.54225 0.142615 20.3106
-0.213066 0.192775 15.6373
0.723113 -1.16993 21.3202
-0.0642101 0.427783 13.1938
-0.0554087 -0.246061 18.2845
2.77385 1.76598 20.9592
1.87445 -0.580857 21.4309
0.461366 0.114863 19.7969
0.256285 -0.425422 20.2564
-0.915236 -0.477879 20.0435
-0.654951 -0.261396 19.8424
-0.676686 -0.459856 19.6351
-0.824437 -0.654481 21.0725
-1.33707 -0.666633 20.4261
-1.62763 -1.50269 20.4923
-0.108732 -0.361488 21.2995
-0.52878 -0.543908 21.2471
-0.0949804 -0.708284 21.4751
0.449126 -0.0373683 21.4071
0.0780421 -0.302785 21.4428
0.392738 -0.161754 21.1937
0.90119 0.239283 21.0536
0.845132 0.0892799 21.3079
0.901721 0.800293 20.1808
0.929986 0.243063 20.7446
1.10261 0.168501 20.8344
1.1512 0.883541 20.14
1.06205 0.0339245 19.9714
0.873636 0.668779 20.6342
-1.15878 -0.398842 19.9076
-0.761974 -0.134553 19.6813
-0.801644 -0.359434 19.4651
-1.20851 -0.625565 21.1096
-1.96116 -0.326707 20.2452
-0.289676 -0.469163 21.3736
-0.928784 -0.465784 21.2966
0.424987 -0.202819 21.5149
-0.153593 -0.360631 21.5609
1.07537 0.0175832 21.1046
0.923345 -0.278513 21.3378
1.09794 -0.108288 20.9036
1.2302 -0.271327 20.9002
1.48867 0.881513 17.0958
1.07463 -0.229418 19.9843
1.14778 0.367767 18.5483
-1.42385 0.0678149 19.6462
-0.722742 0.237687 19.6811
-0.948831 0.0262194 19.2084
-1.7139 -0.0495232 21.0619
-1.59403 0.653928 20.1154
-0.764751 -0.320391 21.4531
-1.2049 0.220848 21.1008
0.195252 -0.368427 21.5918
-0.404236 -0.127736 21.4754
0.883724 -0.554363 21.1234
0.302013 -0.475614 21.2658
0.921353 -0.515543 21.2726
0.537127 -0.613085 21.007
1.535 -0.551356 17.2184
0.523703 -0.51503 20.6229
1.07283 -0.590472 16.7841
-0.804115 0.544171 19.8949
-0.563247 0.518415 19.5883
-1.01923 0.651502 20.6128
-1.17521 1.20402 20.0016
-0.67909 0.280788 21.207
-1.1739 0.940364 20.9814
-0.083376 -0.160643 21.2857
-0.463674 0.180333 21.5355
0.196306 -0.375636 21.0862
0.0640479 -0.398365 21.2529
0.294795 -0.451026 20.7172
0.242031 -0.61066 20.9292
0.280782 -0.615334 20.6
-1.30733 -1.61358 19.2067
-0.728711 -0.626162 19.1913
-0.0650969 -1.00516 18.8846
-0.136499 -0.862501 22.1658
-0.000402673 -4.47987 22.5509
0.212199 0.198944 19.8246
-0.0073878 -0.0899035 18.6004
0.221903 0.726692 18.1986
0.00883794 0.273751 16.6177
0.421492 1.38604 17.7466
0.0305878 0.813518 15.1271
0.843331 1.45605 17.6865
0.749219 1.52941 13.7889
0.0338605 1.22285 16.0168
0.859334 1.32374 16.3812
0.00275316 1.68378 16.9963
-0.903678 -0.322766 18.7691
-0.0992397 -0.840908 18.3166
1.29707 1.57037 12.2902
1.38887 0.548598 5.41039
0.0884301 0.36436 3.97171
2.04147 0.702563 9.90267
-0.0142464 0.969709 8.06621
-0.748118 0.570097 18.8992
-0.113055 0.0528957 17.777
1.95612 -0.512489 9.4189
0.589382 -0.989587 17.1148
-0.238511 -0.0765557 -4.12162
0.590535 -0.9556 17.4201
-0.113487 0.275873 1.93728
-0.819651 1.27686 19.3703
0.026399 0.894079 19.1276
-1.17661 1.81922 20.5108
0.122637 2.50187 19.5901
-1.08445 1.22497 21.657
0.0600497 2.61997 20.7479
-0.157313 -0.172664 21.5853
-0.0136359 0.721226 22.1521
0.0520224 -0.59055 21.2484
-0.00725779 -0.275162 21.4869
0.199327 -0.736441 20.7112
0.00933884 -0.657622 21.0041
0.0120035 -0.735011 20.6876
1.2881 -1.74253 19.1058
0.690738 -0.71151 19.0526
0.681415 -0.498845 19.5801
0.17471 -0.915785 22.2158
1.62497 -1.49789 20.4625
-0.252015 0.158048 20.1958
0.174271 -0.762321 21.4621
-0.259145 0.717477 18.8342
-0.372389 -0.175774 21.3135
-0.520527 1.42845 18.8166
-0.83357 0.626899 20.6486
-0.933551 1.36633 18.0973
-0.849596 1.60804 15.1891
-1.1533 0.776965 20.2672
-0.884188 1.21541 16.9543
-0.927095 0.615815 20.5745
0.841164 -0.352572 18.5914
0.831491 -0.418176 19.3591
-1.33576 1.62349 13.2975
-1.55926 0.621656 6.04974
-1.50048 0.774941 17.982
-2.01981 0.702766 10.8885
-1.13481 0.326795 19.4817
0.735566 0.589178 18.8772
0.969726 0.0152693 19.0864
-2.03551 -0.543086 9.48807
-0.556217 -1.0633 16.4218
-1.57384 -0.547048 17.2079
-0.572005 -0.989164 17.0315
-1.14007 -0.582449 16.7863
0.856081 1.18535 19.4161
0.562054 0.487816 19.6228
1.21684 1.66135 20.5066
1.13674 1.01699 20.0569
1.1022 1.21871 21.6556
1.16889 0.865545 20.9797
0.180829 -0.178818 21.6252
0.483879 0.18816 21.5733
0.00398059 -0.610993 21.3114
-0.051893 -0.427044 21.2973
-0.119464 -0.758663 20.9074
-0.222788 -0.653443 20.9585
-0.266227 -0.671376 20.6163
0.931668 -0.512516 19.994
0.665359 -0.28374 19.7963
0.850212 -0.659345 21.0298
1.32725 -0.66058 20.4007
0.152689 -0.36252 21.3098
0.592769 -0.550035 21.2249
-0.38215 -0.0480686 21.3714
-0.0415861 -0.290977 21.4217
-0.807062 0.216136 21.0913
-0.730815 0.0623064 21.3241
-0.860158 0.171342 20.8219
-0.997409 0.142799 20.9201
-1.0275 0.0213457 20.1377
1.1947 -0.415914 19.8413
0.786566 -0.146315 19.6105
1.22175 -0.615093 21.0585
1.91117 -0.318986 20.2387
0.338656 -0.463042 21.3768
0.974677 -0.442408 21.2819
-0.376715 -0.189467 21.5005
0.155169 -0.349944 21.555
-1.00107 0.0270733 21.1178
-0.850109 -0.243489 21.3671
-1.02207 -0.092647 21.0217
-1.18781 -0.247582 20.9812
-1.07016 -0.227334 20.2601
1.46316 0.0691796 19.6064
0.717615 0.236429 19.6761
1.68868 -0.0476227 21.0021
1.48678 0.581776 20.1428
0.775768 -0.303287 21.4628
1.1699 0.215578 21.0703
-0.211931 -0.359709 21.5856
0.408948 -0.133836 21.4951
-0.8987 -0.540537 21.2171
-0.319783 -0.504199 21.2995
-0.942869 -0.494388 21.1835
-0.560721 -0.650406 21.0115
-0.588945 -0.54601 20.6492
0.772969 0.498346 19.9378
0.974559 0.583904 20.6179
0.686856 0.277882 21.2101
0.0830541 -0.174717 21.3144
-0.210406 -0.425326 21.0945
-0.307306 -0.507653 20.722
-1.03452 -0.462935 19.9861
-1.67256 -1.70329 18.7496
-1.18812 -0.911682 19.7134
-1.62929 -0.797678 19.3586
-0.751397 -0.403499 19.5276
-2.21245 -1.64095 20.3651
-1.01537 -0.667994 21.0797
-0.160152 -0.0805022 17.8059
-0.742383 -1.14631 21.489
-1.56693 -1.54826 21.8559
-0.208535 -0.986211 21.4394
-0.202811 -0.431173 21.3369
0.0948929 0.304749 13.6009
0.196864 -0.449813 21.3376
-0.140356 -0.558875 18.9861
0.255759 -0.220242 19.8153
0.455937 -0.116416 21.4675
-0.0588615 0.555489 11.2753
0.631648 0.312331 20.7394
0.499276 0.401078 15.3494
0.950223 0.998094 17.3545
1.00549 0.144838 21.0962
0.26809 1.27856 12.1561
1.06363 0.869382 20.2781
1.28712 0.921509 16.0468
1.29837 0.986077 18.4099
1.00593 0.101625 20.8804
1.05104 1.62224 15.467
1.19258 0.838808 20.2852
1.41611 0.860753 16.921
1.02557 0.562814 19.1883
-1.34627 -0.219353 19.7286
-2.75416 -0.851275 17.005
-2.10548 0.170457 18.7437
-0.927838 -0.218461 19.292
-4.64871 -0.813438 19.5654
-1.54103 -0.442022 21.1442
-2.81205 -0.128805 21.7753
-1.01289 -0.869757 20.8357
-0.525856 -0.450847 21.4454
-1.1535 -0.756348 20.9244
-0.0802977 -0.11598 18.1775
0.335432 -0.310988 21.5714
0.541571 0.14289 18.028
1.23151 0.439154 11.4253
1.1065 -0.277319 21.0581
0.289886 0.0881512 2.1248
1.30241 -0.381265 15.5537
1.72851 0.264291 15.6807
1.04413 -0.302528 21.0056
1.86255 0.794251 8.74087
1.63592 -0.657159 16.5922
1.51691 -0.0176576 18.287
-1.17308 0.438921 19.7418
-1.58196 1.64966 18.3275
-0.895312 0.884346 19.652
-0.797319 0.388606 19.3431
-2.33066 1.59945 19.721
-1.49142 0.475164 20.7822
-2.43171 2.50542 20.844
-1.21664 1.14788 20.5894
-1.91485 0.591593 21.1812
-0.876697 0.0247722 21.3739
-2.83389 1.13991 22.0077
-0.942976 0.615665 21.412
-0.624384 -0.0666501 21.8404
0.00404235 -0.296452 21.4507
0.398759 -0.317206 18.0202
-0.12336 -0.171443 21.4413
0.29218 -0.723758 21.0388
0.454482 -0.553619 21.0972
0.439657 -0.722799 15.9027
0.16074 -0.511335 21.1215
0.569718 -0.910141 20.8575
0.531653 -0.614195 20.5946
0.522984 -1.08811 16.9142
0.294042 -0.623103 20.8544
0.591341 -0.771137 20.4967
1.6603 -1.84874 18.6306
-0.0760642 -3.0151 18.4247
-0.140945 -3.54675 15.7343
-0.0803381 -0.968221 18.5987
0.015711 -4.5101 20.9614
0.0859976 -0.184387 18.1041
0.00307725 -0.827955 21.0624
-0.0294356 0.109071 9.2354
-0.0816355 0.257488 14.404
-0.00612858 0.0795206 17.1892
0.0225763 0.221157 9.25925
0.0529363 0.611883 12.2664
0.00583863 0.484619 15.71
0.0618026 0.61698 7.90909
-0.422045 1.44192 13.8305
0.0467768 0.910988 15.6289
0.245712 -0.259093 2.40548
0.0943216 1.00174 10.6691
-1.13858 1.53443 15.9415
0.0247163 1.45646 16.505
-0.0296337 1.3111 6.82121
0.00114236 1.55595 13.0415
2.84094 -0.951672 16.6064
-0.161406 1.47819 13.8173
-0.110543 -0.490647 17.9173
-0.494053 0.0822597 2.65574
-0.0825054 0.290888 -3.95694
-0.248409 -0.348248 -3.19429
-1.89718 0.763658 9.72085
-0.121329 0.0675169 -2.60575
-0.22853 0.612688 -0.964099
1.59683 1.60667 18.3712
0.0684553 1.75227 19.0327
-0.0207526 0.798091 18.3794
0.143206 5.10619 18.6512
2.47764 2.30641 20.8272
0.0989977 2.52885 20.3563
0.0828018 4.2947 19.7445
2.83272 1.10008 22.0228
0.0106874 2.38182 22.0019
0.0135097 0.110629 15.08
-0.463809 -0.354357 17.0562
-0.0100284 -0.0194386 21.7537
0.0591475 -0.0585915 5.03877
-0.408078 -0.779611 15.118
0.00113216 -0.425921 21.2671
0.0469629 -0.497371 7.42146
-0.482665 -1.15967 16.3112
0.0206388 -0.685374 20.8597
0.0399254 -0.713543 11.1624
1.05036 -0.496601 19.944
1.2035 -0.96036 19.6702
1.66984 -0.872492 19.2724
0.761933 -0.458187 19.4617
2.1875 -1.60957 20.3424
1.03563 -0.66376 21.0321
0.777351 -1.16092 21.4391
1.58494 -1.50538 21.7117
0.319029 -1.05764 21.5222
0.245599 -0.438482 21.351
-0.14272 -0.495319 21.4357
0.206385 -0.671613 19.8381
-0.273859 -0.254016 20.2342
-0.380514 -0.118118 21.4393
-0.602611 0.206753 21.0669
-0.491804 0.271739 17.221
-0.995559 0.727674 19.1123
-0.926135 0.154844 21.1147
-1.0318 0.784912 20.5108
-1.35231 0.768352 17.4221
-1.32122 0.824311 19.3062
-0.943294 0.0338657 20.953
-1.17318 0.76434 20.2799
-1.35473 0.75252 17.7193
-1.03701 0.519781 20.2156
1.37141 -0.233104 19.6774
2.19344 0.223828 18.5953
0.953157 -0.230665 19.1902
4.45435 -0.81305 19.6272
1.5336 -0.423855 21.0801
2.76311 -0.0917245 21.6359
1.20732 -0.831294 21.0813
0.553929 -0.437121 21.4442
1.15898 -0.722824 21.1853
0.073087 -0.232466 18.9702
-0.314787 -0.292117 21.5665
-0.540684 0.0093165 18.4427
-1.31023 0.450529 13.7116
-1.06838 -0.26897 21.221
-1.37087 -0.407607 15.8831
-1.7229 0.255999 16.5185
-1.02393 -0.297866 21.1635
-1.6978 -0.677302 16.6724
-1.50718 -0.0463387 18.8181
1.14714 0.415072 19.7645
0.871665 0.7919 19.718
0.796075 0.387894 19.3284
2.19935 1.37741 19.8061
1.41486 0.440007 20.7389
1.19582 1.02269 20.5857
1.83111 0.559835 21.1725
0.877377 0.0270948 21.373
0.94758 0.608378 21.4078
0.636441 -0.0856811 21.8822
-0.00754979 -0.310499 21.4681
0.13654 -0.189013 21.4769
-0.313333 -0.78557 20.9029
-0.477778 -0.589802 21.1314
-0.141438 -0.562049 21.1331
-0.60075 -0.980151 20.6594
-0.546786 -0.625919 20.6402
-0.287529 -0.646365 20.8465
-0.609767 -0.812643 20.4854
-1.40687 -0.87819 19.5542
-0.989892 -1.40829 21.6602
0.0875256 -0.586003 20.5718
0.577486 0.382192 18.5177
1.13073 1.01037 17.8692
1.36297 0.949943 18.3001
-2.02333 -0.422842 18.9247
-2.39947 -0.837176 21.994
-0.395949 -0.653318 19.3811
0.419626 0.215568 16.0607
1.42953 0.253266 13.8056
1.74362 0.210944 16.6016
-1.50607 0.86792 19.2358
-2.18009 1.13885 20.895
-1.48158 0.255468 21.7223
-0.0338609 -0.403769 21.6728
0.434121 -0.823096 20.9416
0.562177 -0.892114 20.5789
-0.101758 -3.49752 17.3361
-0.0101387 -0.0700478 10.7516
-0.010521 0.110761 9.10213
0.0107852 0.319579 8.54947
0.132092 0.454883 9.18673
0.0205835 1.44889 12.1127
-0.178613 -1.45316 13.4757
-0.00385953 -0.54816 -3.36438
-0.193426 0.211708 -2.09543
0.0331118 2.55478 17.3784
0.0975359 3.98834 20.5402
0.0126487 4.05515 20.414
0.0198436 -0.25631 9.0066
0.0867365 0.0662793 6.66272
0.0502217 -0.8818 10.002
1.45076 -0.947188 19.4596
1.04872 -1.39753 21.5727
-0.0335423 -0.661749 20.9674
-0.571457 0.231283 19.6259
-1.20367 0.833927 19.279
-1.31507 0.76384 19.4814
2.09362 -0.4524 18.8123
2.46076 -0.832972 21.9211
0.520742 -0.691953 20.1824
-0.457804 0.102065 17.1147
-1.51374 0.285498 15.303
-1.75469 0.178173 17.2983
1.47628 0.828939 19.2805
2.11257 1.01911 20.8464
1.47702 0.252599 21.7286
0.0283015 -0.44667 21.6684
-0.45633 -0.89198 20.8072
-0.578794 -0.957933 20.5525
0 0 0
-0.0255396 -0.0672694 0.456593
-0.0950929 0.0413428 0.852444
-0.00301712 -0.0543716 -0.0247765
-0.00159058 0.00161781 0.00956107
-0.00914532 0.00549384 0.0882591
-0.467041 0.12308 0.536791
0 0 0
-0.033501 0.0318916 0.0974798
-0.0113661 -0.0157001 -0.00506861
-0.025915 0.0215294 -0.0198273
0 0 0
0.0364074 -0.0727185 0.519556
0 0 0
0.199599 0.135779 1.56276
0 0 0
0 0 0
0.00743538 0.00434921 0.132025
0 0 0
0.915084 0.195555 1.01932
0.0872012 0.073237 0.240777
0.0266063 0.0149067 -0.0139737
0.0236319 -0.0383965 -0.00767039
0 0 0
-0.0486649 0.0886732 1.06738
-0.00585118 0.00748617 0.534165
0.00489227 0.00457009 0.0830623
0 0 0
-0.00962532 0.00812312 0.125677
0 0 0
0 0 0
6.56292e-18 6.07731e-18 1.26179e-16
-0.0391692 -0.034187 0.160619
-0.00275477 -0.00654014 0.0711984
-0.00134233 0.00254755 0.0699708
-0.0207876 0.00265557 0.0157179
3.75825e-17 5.28756e-17 1.72396e-16
0.0174325 0.0600744 0.148817
0.0191195 0.0293599 0.126289
0.00437154 -0.00251428 0.0198126
0.001963 0.0320917 0.850464
0 0 0
0.00374663 0.00510623 0.420694
0 0 0
0.00304751 0.00368153 0.0445507
0 0 0
0.0137586 0.0126976 0.62725
0.00107247 0.00490827 0.0656634
0.0693642 -0.0520713 0.300788
0.0671667 0.0119831 0.0504454
0.0181666 -0.025205 0.264056
0.00492687 -0.002281 0.0690981
0 0 0
-0.00939239 -0.00630594 0.0448202
-0.00914257 0.0193267 0.0657895
-0.0238888 0.0339176 0.148518
0 0 0
0 0 0
0 0 0
0.0505085 -1.32054 0.0243954
0 0 0
0 0 0
0.0643965 0.0200104 0.248259
-0.0252472 -0.0115189 -0.00187837
0 0 0
0.00343812 -0.0103678 -0.00133902
0.00103135 0.00792248 0.0488367
0 0 0
0 0 0
0 0 0
-1.98814e-05 -3.19361e-06 0.000762319
-0.000465595 0.000418127 0.00260323
0 0 0
0.00105409 0.00121172 -0.0183597
0.0180791 0.0474738 0.352657
0 0 0
0 0 0
0 0 0
0 0 0
0 0 0
0.027825 -0.0103837 -0.00166554
-0.0173376 0.0258838 0.171231
0 0 0
-0.00171433 0.00917658 0.0642455
7.18296e-05 7.06685e-05 0.000432262
0.000281793 -0.000404338 0.00902299
0 0 0
0 0 0
0 0 0
0.00053419 0.000116688 0.0151693
0 0 0
-0.000198476 0.000319482 0.0136341
-0.000804517 0.00206231 0.0392807
0 0 0
0.000309864 0.00453492 0.0189837
0 0 0
1.24492e-06 1.6609e-06 0.000156066
0 0 0
0.00188657 0.0229434 0.157231
-0.0824173 0.106605 0.61875
-0.000154617 0.00300252 0.0237615
-0.000302342 0.0464925 0.109204
0.000136733 -7.80327e-05 0.0860722
5.87826e-05 -8.65507e-05 0.00107184
0 0 0
0 0 0
0 0 0
0.000426783 0.000132451 0.0193177
-0.000455668 0.00626887 0.0270101
-0.000476603 0.000101959 0.0157795
0.0494926 0.0641732 0.377128
-0.00191459 0.0242063 0.167711
-0.00859825 0.00455644 0.137539
0 0 0
-0.0170133 0.0135556 0.273502
0.00693097 -0.0120812 0.101209
0 0 0
-0.00561171 0.00274298 0.226743
2.70346e-19 -4.14563e-18 -1.19252e-17
0.00192484 0.00965485 0.040373
-3.33925e-06 -4.88389e-06 -8.81674e-05
-0.0107931 0.0548521 0.349214
0.079051 0.0445787 0.33139
0.0370733 -0.0288809 0.136736
0 0 0
0 0 0
0 0 0
-0.00100317 0.00138602 0.0235692
0 0 0
0 0 0
-1.61644e-18 -6.20601e-19 -5.13822e-17
-1.02791e-18 1.02913e-18 7.56582e-17
0 0 0
0 0 0
0 0 0
0 0 0
-2.13447 -2.77463 -0.179534
1.15631 -1.76548 0.838368
-0.215042 0.275612 0.237448
0.3316 0.438188 0.371615