# vtk DataFile Version 2.0
tri_press
ASCII
DATASET UNSTRUCTURED_GRID
POINTS 3682 float
-0.765 0.105 -1.79863
-0.625 0.225 1.94155
-0.595 0.520669 -1.785
-0.585 0.695 1.8538
0.775 0.105 -1.80171
0.681023 0.195 1.865
0.605 0.520957 -1.785
0.595 0.695 1.85405
-0.741735 0.121599 -0.551903
-0.70488 0.151787 0.694823
-0.756457 0.74357 -0.572067
-0.742204 0.79076 0.640867
0.759217 0.119457 -0.579473
0.72667 0.150679 0.642763
0.76656 0.743864 -0.571983
0.752324 0.790976 0.641033
-1.51923 -0.243613 -2.76776
-1.50433 -0.172467 -1.78711
-1.47886 -0.147306 -0.541256
-1.41423 -0.127552 0.712007
-1.33091 -0.080538 1.9584
-1.31282 -0.0609277 2.9418
-1.3188 -0.0492994 3.9192
-1.50803 0.0115764 -2.76833
-1.49523 0.104881 -1.79126
-1.48666 0.148271 -0.548855
-1.41318 0.162242 0.698334
-1.30302 0.192985 1.94145
-1.2983 0.210346 2.9253
-1.31535 0.223715 3.90345
-1.43865 0.498317 -2.76336
-1.39266 0.591063 -1.78785
-1.48216 0.748925 -0.568077
-1.43608 0.777958 0.65157
-1.29288 0.720409 1.87377
-1.30159 0.740588 2.87102
-1.32859 0.769912 3.8612
-1.40131 1.36043 -2.76821
-1.38731 1.46369 -1.79449
-1.42291 1.60748 -0.584531
-1.44434 1.67049 0.621926
-1.42029 1.65191 1.83622
-1.39954 1.6409 2.81897
-1.39138 1.65139 3.80675
-0.791321 -0.246486 -2.77394
-0.763375 -0.173319 -1.79613
-0.741386 -0.162266 -0.550922
-0.70663 -0.135906 0.700172
-0.650071 -0.0695757 1.94596
-0.637449 -0.0565412 2.92928
-0.640752 -0.0509105 3.90654
-0.794292 0.00186472 -2.77234
-0.632606 0.215008 2.91603
-0.642755 0.220913 3.89192
-0.734347 0.466109 -2.7635
-0.639411 0.730437 2.86195
-0.65983 0.761857 3.85098
-0.680748 1.3411 -2.76929
-0.657399 1.44706 -1.79536
-0.693216 1.60574 -0.587285
-0.735362 1.67376 0.615874
-0.734938 1.64699 1.82742
-0.719879 1.63258 2.80934
-0.710312 1.64351 3.79674
0.692012 -0.246884 -2.7816
0.755334 -0.173874 -1.80574
0.752117 -0.164 -0.576818
0.723488 -0.139483 0.654571
0.696716 -0.0878545 1.88578
0.697199 -0.0707075 2.88212
0.705389 -0.0604341 3.86991
0.665895 0.00169267 -2.77746
0.675583 0.199971 2.87041
0.689766 0.211546 3.85725
0.627652 0.466118 -2.7666
0.634052 0.724195 2.84052
0.662003 0.755463 3.82536
0.735305 1.34081 -2.77541
0.766212 1.44683 -1.80099
0.76074 1.60542 -0.593846
0.700447 1.67319 0.607478
0.644394 1.6457 1.81626
0.638641 1.63023 2.79446
0.650254 1.6403 3.77847
1.4362 -0.244614 -2.78524
1.49571 -0.173789 -1.80886
1.49683 -0.150213 -0.585219
1.44627 -0.134512 0.63892
1.3903 -0.103024 1.86613
1.38006 -0.082724 2.85966
1.38836 -0.0661437 3.85004
1.41435 0.0109794 -2.78138
1.49361 0.104226 -1.80527
1.50694 0.14587 -0.586209
1.44611 0.157599 0.631035
1.36253 0.169363 1.85227
1.35378 0.188415 2.84759
1.36921 0.207271 3.83784
1.36861 0.498074 -2.77241
1.40369 0.5911 -1.79396
1.50292 0.74836 -0.581719
1.45339 0.776951 0.626826
1.31182 0.714493 1.83978
1.31202 0.729156 2.8245
1.34002 0.758113 3.81038
1.44797 1.3597 -2.78183
1.47711 1.46303 -1.80762
1.48214 1.60659 -0.600004
1.42377 1.66899 0.602196
1.35297 1.64893 1.8109
1.33438 1.63604 2.78739
1.34131 1.64501 3.76955
-0.632854 0.312834 -1.74467
0.005 0.101258 -1.80391
-0.758086 0.108581 -1.17527
-0.625894 0.46 1.91857
0.0280115 0.246447 1.86683
-0.678634 0.1747 1.31819
0.005 0.582646 -1.84683
-0.753269 0.709659 -1.17853
0.00500003 0.774547 1.93347
-0.72654 0.805818 1.24733
0.642826 0.312978 -1.74618
0.771578 0.107759 -1.19059
0.662676 0.445 1.88419
0.704613 0.172072 1.25388
0.760933 0.707563 -1.17849
0.736566 0.805892 1.24754
-0.723509 0.136491 0.07146
-0.812344 0.432584 -0.561985
0.00874128 0.141913 -0.565688
-0.82417 0.471274 0.667845
0.010895 0.153381 0.668793
-0.757415 0.77525 0.0344
0.00505127 0.914545 -0.572025
0.00505977 1.15083 0.64095
0.756167 0.121845 0.031645
0.82208 0.431661 -0.575728
0.834187 0.470827 0.641898
0.767522 0.775501 0.034525
-0.824995 0.372709 -1.1769
0.815544 0.37232 -1.18454
0.00687064 0.130928 -1.18293
0.00502563 0.811656 -1.17851
0.005 0.312906 -1.9022
-0.827043 0.451929 0.05293
0.837233 0.451244 0.033085
0.00981816 0.147834 0.0515525
0.00505552 1.17342 0.0344625
-0.858457 0.465637 1.28276
0.849953 0.457914 1.25071
0.0194533 0.186499 1.28603
0.0050299 0.990442 1.24744
0.0165058 0.4525 2.04042
-0.641528 0.208917 -1.71425
-0.38 0.101277 -1.80312
-0.761594 0.106739 -1.48695
-0.620197 0.3425 1.92481
-0.298494 0.250073 1.88984
-0.671158 0.180509 1.62987
-0.622175 0.416752 -1.77308
-0.295 0.566432 -1.83069
-0.708788 0.649818 -1.48177
-0.616826 0.5775 1.89756
-0.29 0.763404 1.92227
-0.669824 0.764463 1.55057
0.39 0.101252 -1.80469
0.649864 0.208989 -1.7149
0.773187 0.106481 -1.49615
0.354517 0.242739 1.8439
0.666694 0.32 1.86944
0.696728 0.179626 1.55944
0.305 0.566514 -1.83063
0.632111 0.416968 -1.77379
0.717114 0.648408 -1.48175
0.3 0.763266 1.92225
0.641833 0.57 1.88211
0.679631 0.764295 1.5508
-0.75547 0.10953 -0.863585
-0.738682 0.122985 -0.240222
-0.833048 0.249087 -0.556944
-0.358584 0.147581 -0.558796
-0.687833 0.167167 1.00651
-0.713402 0.144932 0.383142
-0.866454 0.260566 0.681334
-0.342649 0.161272 0.681808
-0.74741 0.719162 -0.8753
-0.811073 0.601413 -0.567026
-0.758654 0.761128 -0.268833
-0.403455 0.884562 -0.572046
-0.725185 0.789102 0.9441
-0.806253 0.64255 0.654356
-0.751837 0.785033 0.337633
-0.446105 1.12586 0.640909
0.770264 0.108742 -0.885033
0.375408 0.147827 -0.572581
0.75552 0.122823 -0.273914
0.84268 0.249543 -0.577601
0.711708 0.165309 0.948323
0.364338 0.160918 0.655778
0.755667 0.122013 0.337204
0.877637 0.262149 0.642331
0.757496 0.719464 -0.875238
0.41339 0.884374 -0.572004
0.821101 0.601153 -0.573856
0.768781 0.761422 -0.268729
0.735353 0.789343 0.944288
0.456161 1.12584 0.640992
0.816662 0.642605 0.641466
0.761966 0.785281 0.337779
-0.816189 0.342772 -1.46078
-0.313927 0.31287 -1.90145
0.00593532 0.127381 -1.49342
0.005 0.207082 -1.98686
-0.816356 0.240645 -1.17608
-0.375608 0.127866 -1.1791
-0.844992 0.462818 1.60066
-0.304694 0.45625 2.02759
0.0237324 0.199128 1.57643
0.0222586 0.349473 2.03984
-0.846845 0.320168 1.30047
-0.32959 0.186712 1.30211
0.00501281 0.722269 -1.51267
0.005 0.447776 -1.96394
-0.828612 0.541184 -1.17772
-0.374121 0.797328 -1.17852
0.00501496 0.90663 1.59045
0.0107529 0.613523 1.94936
-0.865286 0.635728 1.26505
-0.360755 0.962325 1.24739
0.807104 0.342649 -1.46536
0.323913 0.312942 -1.90146
0.806996 0.240039 -1.18757
0.389224 0.126567 -1.18676
0.837045 0.451457 1.56745
0.339591 0.44875 2.02562
0.838502 0.314993 1.2523
0.362033 0.186253 1.26996
0.819027 0.539942 -1.18152
0.382979 0.797426 -1.1785
0.854708 0.631903 1.24913
0.370798 0.962337 1.24749
-0.806461 0.278618 0.062195
-0.350974 0.153906 0.0615063
-0.82748 0.402647 -0.869443
-0.82287 0.442257 -0.254528
0.00780596 0.134468 -0.874309
0.00927972 0.145096 -0.257068
-0.823086 0.461601 0.360388
-0.863564 0.468455 0.975303
0.0103566 0.150505 0.360173
0.0151742 0.178095 0.977414
-0.822997 0.628973 0.043665
-0.462402 1.14678 0.0344313
0.00503845 0.850331 -0.875269
0.00505339 1.07015 -0.268781
0.00505764 1.18722 0.337706
0.00504483 1.07627 0.944194
0.817276 0.276256 0.032365
0.373529 0.153766 0.0415988
0.816768 0.40199 -0.880135
0.83262 0.441452 -0.271322
0.833842 0.461036 0.337492
0.85495 0.464371 0.946305
0.833166 0.628766 0.033805
0.472344 1.14657 0.0344938
-0.811081 0.224781 -1.47387
-0.84197 0.258868 -0.866514
-0.823412 0.564631 -0.872371
-0.820827 0.478968 -1.47128
0.800399 0.224514 -1.48076
0.808442 0.478455 -1.47355
0.817586 0.563852 -0.877686
0.817173 0.257799 -0.882584
-0.377804 0.121718 -1.49018
0.389612 0.120763 -1.49479
0.386602 0.134159 -0.879671
-0.371052 0.135816 -0.868947
-0.334561 0.735529 -1.49722
-0.374912 0.83946 -0.875284
0.384392 0.839587 -0.875253
0.34399 0.735582 -1.49721
-0.346963 0.208 -1.94567
-0.304463 0.432264 -1.94891
0.314457 0.432372 -1.94879
0.356957 0.208036 -1.94638
-0.804688 0.271386 -0.247375
-0.804992 0.285324 0.371765
-0.817401 0.637149 0.349011
-0.819769 0.61656 -0.26168
0.814117 0.27083 -0.272618
0.829827 0.616307 -0.270025
0.827895 0.637176 0.337636
0.815096 0.285383 0.337348
-0.354225 0.151851 -0.248645
0.373736 0.152261 -0.265491
0.368965 0.15728 0.348689
-0.346867 0.157477 0.371657
-0.44141 1.03263 -0.268807
-0.466759 1.16133 0.33767
0.476801 1.1613 0.337743
0.451399 1.03254 -0.268755
-0.852665 0.315849 0.990904
-0.834403 0.331334 1.61527
-0.819387 0.606614 1.57562
-0.852737 0.633372 0.959701
0.844234 0.312873 0.947314
0.847036 0.631402 0.945296
0.830484 0.600951 1.55912
0.826742 0.317497 1.56345
-0.338291 0.179141 0.991959
0.365408 0.177567 0.962868
0.358275 0.19885 1.56794
-0.314042 0.199827 1.60315
-0.364664 1.05233 0.944147
-0.325378 0.896377 1.57051
0.335399 0.896408 1.57063
0.374745 1.05226 0.944241
-0.301594 0.345987 2.02974
0.347054 0.334737 2.02561
0.319795 0.591762 2.00146
-0.297347 0.595512 2.00141
-0.691001 0.156959 -1.74418
-0.5725 0.101307 -1.80271
-0.763258 0.105909 -1.64279
-0.60174 0.28375 1.91232
-0.461747 0.193463 1.95977
-0.663901 0.186933 1.78571
-0.611555 0.46871 -1.78201
-0.445 0.543376 -1.80767
-0.654391 0.58774 -1.63338
-0.604709 0.63625 1.87948
-0.4375 0.743927 1.90276
-0.636188 0.738508 1.70218
0.5825 0.101264 -1.80506
0.700299 0.156995 -1.74617
0.774071 0.105764 -1.64893
0.51777 0.192361 1.88096
0.667621 0.2575 1.86098
0.692056 0.184133 1.71222
0.455 0.543519 -1.8076
0.621395 0.468962 -1.78223
0.664396 0.588022 -1.63337
0.4475 0.744432 1.90345
0.623067 0.6325 1.87273
0.646227 0.738559 1.70242
-0.743948 0.120218 -0.707744
-0.739721 0.122779 -0.396063
-0.836122 0.160978 -0.554424
-0.551242 0.132424 -0.55535
-0.698476 0.157357 0.850664
-0.70997 0.14753 0.538983
-0.869556 0.164232 0.688079
-0.527279 0.149499 0.688316
-0.753547 0.732979 -0.723683
-0.790001 0.675609 -0.569546
-0.75823 0.753023 -0.42045
-0.590723 0.8356 -0.572056
-0.734311 0.790548 0.792483
-0.779243 0.719162 0.647611
-0.747734 0.788609 0.48925
-0.620255 1.01051 0.640888
0.759006 0.119834 -0.732253
0.568073 0.132123 -0.576027
0.755969 0.12254 -0.426694
0.846378 0.161785 -0.578537
0.72061 0.156573 0.795543
0.548925 0.148956 0.649271
0.728108 0.149407 0.489984
0.850324 0.182328 0.642547
0.763694 0.73333 -0.72361
[...]
POINT_DATA 3682
SCALARS point_scalars float 1
LOOKUP_TABLE default
-39.562
-34.6867
43.83
-31.2303
-43.5189
-41.4881
38.8407
-32.2441
-33.8474
-36.2509
-40.4468
-46.8564
-35.4666
-34.9853
-40.9566
-47.6321
72.5028
-128.326
-35.5924
-39.9523
-45.7993
-34.5257
-34.5257
72.5028
-138.925
-36.8856
-39.6578
-45.5891
-34.5257
-31.1381
72.5028
-132.796
-38.7291
-38.9774
-46.1599
-30.7232
-30.3367
54.4386
-88.888
-50.2369
-60.8387
-42.6325
-31.0571
-29.9958
41.1739
-97.0023
-33.7278
-36.1087
-37.8218
-31.1219
-30.1416
41.1739
-30.7752
-30.1906
140.845
-29.5523
-28.7817
65.2309
-43.6379
-25.996
-64.9691
-32.6411
-29.1546
-28.4678
27.5805
-99.8327
-35.3663
-35.0326
-27.2077
-39.8665
-39.8665
27.5805
-39.3079
-39.3079
146.41
-30.2946
-29.9991
64.4085
-45.9579
-26.7144
-65.5872
-32.8911
-29.7626
-29.5371
56.1916
-133.495
-39.4003
-36.2843
-27.2077
-39.8665
-39.8665
56.1916
-133.495
-39.4003
-38.8253
-28.6525
-39.3079
-39.3079
56.1916
-126.067
-39.2616
-41.2606
-46.4896
-39.3079
-39.3079
51.2225
-95.4812
-46.3009
-61.0891
-37.399
-31.8713
-30.6639
50.985
-138.355
-52.3051
-31.7379
-32.8222
-34.5933
35.6962
-69.3667
-26.6809
-46.6912
35.0507
-54.5353
-33.7302
-34.4369
-66.1807
-46.163
-31.5364
-37.2945
-36.1799
-34.2996
-35.995
-51.9716
12.3611
-64.3762
-32.9278
-38.4786
-37.1337
-53.5192
-63.5203
-62.5035
-54.9734
-33.446
200.993
-37.5168
-39.6797
-32.9608
-100.548
-41.6419
-40.5968
-35.0577
-38.5751
-22.9487
58.0892
-146.818
-85.3081
-32.531
-33.5042
-38.0565
44.9329
30.4399
-49.938
-31.3657
-28.0555
-39.011
-146.636
41.1793
-88.6252
-35.2745
-35.3286
-37.2939
31.2136
36.4354
-49.6432
-29.0823
-32.6805
-39.5842
-44.0458
-32.7
-39.1714
-35.5925
-34.7839
-32.138
-38.4231
-35.2467
-42.9356
-38.5663
-50.2926
0.173157
-44.3377
-38.9248
-49.6321
-62.5147
-40.6881
-35.7512
-33.3522
-41.5364
-35.9915
-35.2742
-35.2961
-38.3655
-40.2421
0.876029
-39.2094
-51.732
-44.2803
-62.7079
-40.7024
-50.7509
-119.221
188.162
-79.1441
162.988
-61.6138
-53.9589
-46.4077
-27.7784
-35.9837
-26.7269
-38.9493
-34.9201
-28.5778
171.588
-64.997
-36.9356
-32.7473
-22.2297
-45.2414
-39.1908
-118.382
187.038
-60.339
-53.9076
-44.7423
-29.6798
-38.118
-34.7774
-62.622
-36.07
-44.5549
-39.2408
-32.4037
-32.5448
-46.9124
-37.3241
-43.5908
-33.6362
-35.936
-41.4865
-33.6141
-34.2301
-43.403
-92.627
-13.0881
-21.0388
-87.9057
-47.9693
-38.2063
-32.8835
-42.9892
-39.1913
-37.9476
-40.519
-44.9798
-93.8237
-117.504
-44.5978
-47.4708
-135.39
-113.862
-126.075
-43.2069
-40.5977
-78.4079
-78.3778
-43.1092
-43.095
-44.4151
-19.8477
-19.5283
-43.6952
153.004
163.846
159.103
156.518
-35.9844
-31.6822
-42.1931
-41.5837
-37.8441
-43.1372
-43.5836
-35.1426
-33.2778
-33.4865
-33.6737
-33.3268
-22.6766
-78.5971
-79.091
-22.8812
-37.7431
-45.5447
-45.7131
-38.3812
-41.4208
-40.7833
-46.5077
-43.2565
-34.1308
-34.1741
-36.2961
-36.8437
-48.0114
-33.2366
-33.4242
-48.1238
-29.265
-30.9364
-28.933
-26.7283
45.0249
-176.183
-121.794
-33.3679
-35.5976
-40.2312
52.2061
25.618
2.74782
-31.3005
-29.2874
-34.8175
-180.699
29.5712
-125.364
-40.5496
-37.7839
-39.9843
24.028
41.9767
0.372165
-30.1292
-32.5726
-35.5829
-35.4691
-32.8098
-36.466
-34.8728
-38.944
-34.128
-38.8549
-35.5772
-39.2464
-39.7882
-45.3958
-18.1459
-44.9515
-42.9315
-48.092
-56.4853
-35.7236
-35.1269
-33.8481
-37.0439
-37.3675
-35.2973
-34.857
-36.1791
-38.6938
-18.1197
-40.0942
-45.9838
-45.7183
-56.5137
-44.0166
-49.2375
54.931
45.8817
-128.846
124.672
-138.978
-139.388
-100.899
-79.6933
-64.2139
-45.3147
-59.5777
-53.0357
-31.9978
-31.406
-35.7434
-29.8649
-32.7338
-33.701
-36.3723
-29.3264
-35.6085
-33.8888
-37.45
-34.5489
31.1435
33.4064
-44.8542
123.692
-73.9458
-56.4841
-70.6109
-46.3689
-26.9907
-27.8237
-30.239
-23.2384
-43.4163
-46.1644
-48.1128
-41.4369
38.2189
32.2529
-111.765
119.967
-64.4705
-43.6793
-58.8858
-52.8297
-34.4387
-33.1667
-41.1172
-30.6581
-35.1329
-33.89
-37.637
-34.5242
-70.5284
-52.2809
-67.1033
-44.5031
-43.7221
-45.7062
-47.3349
-41.5044
-32.8754
-31.5676
-27.179
-32.214
-37.5701
-37.5383
-41.3413
-36.7958
-35.9005
-35.8305
-38.9629
-34.7621
-37.15
-36.099
-35.3012
-34.8223
-35.9733
-35.9535
-34.4044
-35.3196
-51.6767
-51.2411
-47.558
-70.0036
8.49645
8.69058
-1.24411
5.73118
-63.9354
-64.0268
-75.9252
-54.7887
-33.1546
-33.1772
-37.4482
-32.9091
-39.5199
-38.5457
-40.7597
-38.648
-38.479
-38.3475
-36.918
-38.8161
-53.4455
-52.5086
-48.985
-71.7647
-81.5688
-62.6907
-64.229
-52.0218
-80.7647
-61.7979
-62.4327
-50.3429
-64.5474
-54.6002
-54.5702
-48.2658
-41.703
-33.8762
-33.5702
-23.7215
197.279
204.249
203.827
197.011
-35.3827
-37.6736
-37.0173
-39.979
-38.0274
-39.8188
-38.9963
-41.8818
-32.8205
-33.0813
-33.1349
-32.9582
-97.8137
-59.1879
-97.2284
-97.7362
-42.1159
-40.2525
-43.1812
-40.3818
-41.2798
-39.2124
-42.1184
-39.2389
-35.6955
-35.0381
-34.9482
-34.2784
-35.0539
-38.7009
-38.7304
-42.4356
-23.5335
-24.8534
-22.5285
-26.0257
-141.474
99.6593
-102.025
12.3863
-108.798
-79.0642
-38.0344
-31.0887
-36.6208
-31.1486
-45.6305
-36.1163
-19.1051
112.574
-32.0441
119.634
-109.084
-49.9216
-35.694
-29.5319
-30.2179
-27.1793
-42.4493
-34.5909
-101.985
16.9974
-139.738
98.2951
-107.154
-78.8796
-37.6498
-32.509
-43.6948
-31.6667
-42.5906
-36.219
-32.2608
118.719
-31.3252
110.326
-114.313
-49.2491
-30.6043
-28.8944
-37.8778
-30.4006
-44.1267
-34.8837
-45.044
-42.7425
-35.3108
-32.8799
-41.0231
-35.8121
-38.401
-34.171
-36.7132
-34.2438
-26.8835
-32.9356
-31.3588
-46.0113
-34.1677
-35.6711
-45.4278
-28.4921
-39.6612
-39.8862
-45.4087
-64.9156
-10.531
-2.28609
-40.1753
-49.9436
-41.0667
-34.6484
-45.81
-59.5662
-70.7086
-54.5016
-40.328
-42.5303
-38.4389
-34.2692
-35.3751
-33.2354
-37.9903
-37.78
-40.358
-34.8724
-34.3482
-35.7115
-35.8919
-33.905
-30.2552
-40.3188
-42.1798
-27.7576
-10.7095
-2.02637
-39.4123
-41.0656
-46.591
-63.8214
-40.6496
-49.8118
-71.1582
-54.6288
-42.5327
-36.7616
-47.2048
-60.561
-117.847
-127.712
188.257
189.179
-78.8285
-78.846
166.197
165.746
-79.1258
-50.4715
-63.3323
-47.5254
-46.1791
-46.677
-28.3735
-27.0806
-36.2623
-36.1308
-27.1952
-28.9897
-37.3153
-40.3796
-34.214
-35.4611
-38.2864
-37.5683
168.438
168.645
-53.2768
-85.3289
-43.6209
-29.3907
-32.9351
-33.0327
-23.7385
-22.1985
-46.208
-42.0305
-43.0492
-35.9309
-115.141
-123.046
188.659
188.574
-77.7664
-49.1183
-63.2534
-47.5284
-45.9249
-43.6803
-30.04
-29.2555
-36.7524
-39.2025
-34.1761
-35.8299
-83.5601
-50.4566
-28.8418
-42.7699
-40.3262
-44.2192
-35.979
-43.0934
-37.1014
-34.9684
-32.73
-32.7911
-45.9391
-48.0555
-36.3528
-38.9324
-43.412
-43.4371
-33.4771
-33.59
-33.2886
-38.7025
-39.9182
-40.9174
-33.6264
-33.4968
-34.1846
-34.2181
-42.9195
-42.9446
-50.253
-88.8105
-14.9852
-14.8881
-20.5429
-20.3989
-86.4542
-86.662
-47.7265
-47.8106
-38.2291
-34.9729
-32.9878
-33.1976
-43.2739
-42.0414
-38.1782
-40.6725
-40.4596
-35.8755
-41.1893
-40.684
-44.5915
-44.4223
-88.6796
-49.9307
-117.158
-76.3569
-80.9264
-128.742
-35.1847
-41.7105
-51.3941
-49.3193
-40.0425
-56.4429
-52.5143
-40.152
8.24901
-79.4503
-83.4748
-94.4661
-113.263
-122.685
-79.1608
-75.5043
1.9177
-90.0498
-82.043
-39.9047
-39.2339
-40.1603
-50.5458
-52.4425
-33.7467
-48.3662
-49.7934
-40.9579
-107.341
-101.088
-64.1123
-61.9286
-107.092
-61.5335
-64.0884
-101.13
-37.7916
-38.8308
-47.9621
-46.415
-37.7705
-46.7051
-47.9914
-38.7402
-13.9755
-51.1585
-40.3217
-39.045
-24.272
-3.07985
-24.9989
-37.5018
-23.4695
-36.1183
-24.7696
-2.97644
-14.821
-38.1079
-40.078
-49.1936
59.6616
100.182
200.025
-49.4098
94.6295
115.469
200.344
122.645
91.1544
118.86
200.067
115.498
57.646
-66.1578
199.782
93.234
-33.5096
-39.3633
-36.3957
-36.1635
-33.4574
-31.8611
-35.1269
-32.8948
-44.4337
-47.0305
-39.5353
-37.9385
-42.4003
-37.8585
-39.7373
-47.2264
-35.9588
-37.9781
-38.702
-35.5641
-43.367
-48.4182
-41.7016
-39.516
-45.6708
-39.4041
-41.3611
-48.3541
-34.1415
-30.7935
-37.0994
-32.8021
-33.6284
-34.5574
-32.9636
-32.4831
-33.981
-32.8953
-33.0642
-34.6469
-34.308
-34.3897
-33.1622
-33.222
-34.0045
-32.2858
-32.9947
-34.3022
-31.2883
-72.9097
-55.242
4.41773
-56.7601
-74.6557
-96.3415
-64.208
-57.4343
-65.2168
-96.5354
-74.7956
-32.3478
4.4131
-56.2933
-75.1778
-47.8033
-35.9386
-38.9373
-41.0166
-39.9996
-36.7592
-41.0609
-39.7019
-35.6187
-48.0686
-43.112
-35.6362
-40.2122
-32.1863
-41.585
-44.0078
-39.5958
-41.3543
-37.8057
-36.2164
-41.1612
-42.6537
-40.2904
-36.1461
-36.7852
-38.5345
-42.2728
-47.6258
-46.8716
-38.0668
-40.2927
-42.3788
-35.5554
-35.2801
-34.2584
-34.051
-34.8438
-33.9683
-34.2576
-35.4501
-37.6256
-36.8994
-35.9196
-34.887
-37.4522
-34.8273
-35.675
-36.1703
-51.6532
-45.4244
-42.597
-54.7377
-31.543
-30.0433
-35.2846
-37.7036
-32.1524
-37.9026
-35.3479
-30.2373
-51.9648
-54.8099
-42.6425
-45.342
-32.8185
-29.6064
-25.3945
-30.0636
-33.9042
-30.8614
-27.5126
-31.1356
-30.2759
-25.7036
-24.0622
-30.4868
-29.4171
-29.6833
-22.4792
-23.8923
-1.8447
-101.264
-77.5994
-33.2563
-35.4907
-38.0318
49.0602
40.5044
13.1083
-31.2403
-30.0423
-32.918
-76.486
-13.1171
-64.8042
-41.4149
-40.0618
-40.2256
37.3837
43.6145
10.0837
-30.8984
-32.4358
-33.77
-35.2309
-33.4123
-34.1711
-34.4363
-37.3785
-35.4721
-36.6206
-36.0772
-40.425
-40.1956
-41.8513
-34.3577
-46.0053
-44.6198
-47.4023
-50.5146
-34.8183
-34.8978
-34.8388
-36.3282
-35.9844
-35.3813
-33.7798
-34.0803
-40.5368
-33.5161
-40.3624
-42.5952
-46.7171
-51.175
-45.7959
-48.3766
52.5218
47.5308
51.8873
72.7981
-136.394
-136.669
-114.04
-3.56303
-57.7101
-48.1643
-57.0383
-52.0247
-31.8318
-31.5921
-33.5561
-30.4578
-32.6551
-33.1782
-34.3863
-30.2654
-35.0964
-34.4176
-35.8168
-34.5106
35.5954
35.3374
-12.6388
65.9796
-72.9045
-63.5881
-71.7026
-56.1679
-26.6475
-27.1786
-29.1612
-25.3528
-45.3151
-46.2369
-47.7188
-43.9226
36.3315
33.5615
34.508
67.3547
-59.7916
-48.6727
-57.7602
-51.9533
-34.0065
-33.4685
-35.8917
-31.3329
-34.7822
-34.2468
-36.6397
-34.5074
-69.9778
-60.7373
-67.5854
-53.3039
-45.3552
-45.6932
-47.0332
-43.8036
-32.9256
-31.6939
-29.8738
-31.8563
-37.3327
-37.3755
-38.5155
-36.7094
-36.0882
-36.0822
-37.0697
-35.544
-34.5302
-35.1303
-35.3284
-33.2797
-35.9954
-35.9925
-34.9401
-35.3429
-51.8954
-51.795
-49.6591
-58.629
10.3371
10.4221
5.37046
11.7811
-64.3901
-64.4372
-69.466
-59.2539
-32.7661
-32.9616
-34.1753
-32.9923
-38.5979
-38.4655
-39.0828
-38.4607
-36.8862
-38.0117
-36.8405
-35.5195
-53.5939
-53.202
-50.9011
-59.9795
-71.3156
-63.0784
-63.8129
-57.0574
-70.0912
-62.448
-62.4479
-55.5766
-59.328
-54.9503
-54.7676
-51.3596
-37.7684
-33.7579
-33.6532
-28.4344
200.191
202.622
200.672
200.013
-36.4857
-37.5715
-37.3679
-38.677
-38.8163
-39.7848
-39.3915
-40.7086
-32.9076
-32.9616
-33.0002
-32.9758
-99.5532
-84.403
-101.135
-99.924
-41.8627
-40.9783
-42.4615
-40.7903
-40.7393
-39.9201
-41.3782
-39.5251
-35.5713
-35.098
-35.0151
-34.7954
-36.6743
-38.6152
-38.6231
-40.3857
-22.6837
-23.7742
-22.3098
-24.2222
54.676
56.5407
-27.1324
79.1442
-156.655
-138.18
-118.376
0.806728
-109.715
-72.3136
-103.114
-80.5855
-33.0994
-32.2722
-34.2226
-31.2685
-34.017
-33.0544
-35.1862
-31.7662
-38.4616
-36.6027
-43.6454
-36.4863
48.6976
46.8169
47.6741
89.3958
35.1109
28.7861
5.31143
73.1235
-26.3232
-65.8267
-66.495
-49.5282
-31.378
-31.3506
-33.6091
-30.2322
-28.6739
-27.4535
-28.8754
-27.6009
-36.9497
-41.6152
-40.642
-36.6048
-151.16
-138.949
-118.79
-9.61319
34.0334
40.1603
-28.2838
71.1994
-117.297
-73.1443
-101.011
-79.9827
-37.7451
-34.4739
-36.4844
-33.3187
-35.9157
-34.8859
-38.6936
-32.7058
-38.7045
-36.1448
-40.5755
-36.5206
32.5424
30.3664
4.06771
73.8797
40.4734
33.3175
30.1042
84.5309
-30.6199
-65.4816
-74.6026
-48.696
-29.6857
-28.4942
-29.4604
-28.9622
-32.6021
-32.8992
-35.0449
-31.0526
-37.7231
-42.066
-41.9439
-36.8525
-39.0367
-43.4536
-45.2486
-42.5631
-32.785
-32.564
-33.1102
-32.771
-38.2799
-38.4441
-39.6018
-36.9088
-35.3641
-35.6138
-36.7547
-34.8034
-36.7123
-33.8438
-36.2827
-34.4829
-33.0778
-31.9772
-29.8187
-32.6403
-39.8182
-37.9702
-37.553
-35.7401
-35.022
-35.8276
-34.5824
-35.0043
-40.2415
-49.4409
-44.5638
-35.417
-39.1098
-37.8754
-38.6304
-38.968
-48.7683
-51.0969
-47.6747
-63.55
-7.32091
5.40036
-5.0098
2.23974
-44.5176
-45.0423
-42.2902
-46.5929
-40.8628
-37.1267
-40.0248
-37.0611
-48.8374
-50.6573
-47.6434
-53.5391
-61.6126
-63.4811
-67.0493
-59.0941
-39.0233
-42.0426
-40.2843
-42.1108
-35.5503
-35.7969
-36.8721
-35.009
-33.5641
-33.2693
-34.1945
-33.2182
-39.5286
-40.5684
-39.7339
-39.5872
-37.5793
-33.7761
-39.1392
-35.5957
-34.9689
-35.8142
-34.7187
-34.8802
-38.3028
-33.4403
-35.4129
-34.4431
-37.1434
-39.879
-35.0976
-38.1568
-38.5494
-45.0158
-41.6248
-34.3006
-6.72807
5.79926
-5.33155
2.25237
-39.5911
-38.8591
-38.8917
-39.8622
-49.5562
-52.7305
-48.4865
-64.2469
-45.0135
-44.8375
-42.1716
-46.7136
-61.9051
-63.7131
-67.3335
-59.2597
-42.4558
-39.2924
-41.8601
-38.9162
-49.9851
-51.7979
-48.9816
-54.5307
-161.947
-97.2649
-117.656
-124.501
174.898
192.673
188.44
188.938
-88.9667
-71.0558
-78.9262
-78.9029
117.51
202.002
165.005
163.891
-61.0567
-62.1543
-69.5792
-55.2633
-53.4866
-54.131
-58.2351
-50.5198
-42.6321
-44.0791
-46.4211
-46.467
-29.0936
-25.6076
-28.1236
-27.3567
-37.117
-35.581
-36.0791
-35.9554
-27.7146
-25.8713
-26.6371
-27.6908
-38.4412
-39.5886
-37.9851
-39.6312
-34.6713
-34.9992
-34.7299
-35.3213
-43.6774
-33.0906
-30.786
-30.1299
150.309
193.81
172.741
171.96
-66.7937
-64.6326
-58.3815
-74.0549
-40.6323
-34.8356
-40.4361
-33.5364
-31.1259
-33.9355
-32.8369
-32.8851
-22.0967
-22.6096
-23.1643
-22.0285
-46.8758
-44.0407
-45.7754
-43.6006
-39.9786
-38.8654
-41.0457
-37.4173
-151.412
-95.4628
-113.747
-119.894
172.609
192.381
186.685
188.546
-59.6197
-61.0968
-67.9242
-54.0048
-53.3408
-54.1179
-58.1638
-50.4485
-45.5274
-42.9938
-45.3011
-44.1978
-30.2857
-28.2173
-29.8155
-29.4006
-37.8265
-38.6529
-37.2169
-38.5649
-34.5456
-34.8704
-34.6493
-34.927
-64.166
-62.397
-71.5614
-56.024
-39.2374
-34.3238
-32.8025
-39.6664
-46.1064
-43.1245
-41.7637
-43.8982
-40.0602
-38.9345
-37.5497
-41.0912
-31.0152
-34.0267
-34.5179
-34.3707
-32.4583
-32.697
-32.5504
-32.657
-44.874
-49.4242
-46.3113
-47.4417
-36.9835
-37.6321
-36.8166
-38.0536
-41.3621
-45.6887
-43.5785
-43.583
-34.1189
-33.306
-33.583
-33.6288
-35.4212
-36.5569
-34.6765
-37.2869
-40.3816
-40.3508
-40.8987
-41.6967
-33.9698
-33.3314
-33.6371
-33.5686
-35.2616
-34.0847
-34.2467
-34.215
-45.6998
-41.4644
-43.4009
-43.115
-88.9107
-95.113
-72.4843
-92.2352
-7.57764
-18.6855
-13.5687
-13.5074
-6.6475
-40.1676
-20.6523
-20.6343
-82.1467
-92.8965
-87.5444
-87.6282
-51.116
-45.0414
-47.8875
-48.0123
-38.2615
-37.1742
-38.3034
-33.8492
-32.9111
-32.9107
-32.776
-33.0536
-41.7567
-46.2683
-43.3613
-42.5029
-38.87
-39.6218
-38.683
-39.8651
-37.1681
-38.6103
-39.1498
-36.8869
-42.4542
-39.4467
-40.933
-40.5994
-46.7353
-43.26
-44.7237
-44.9597
-86.9606
-95.0618
-91.7115
-74.2442
-147.026
-112.87
-116.001
-94.761
-44.7699
-43.2808
-46.6894
-45.3893
-46.2122
-42.3742
-50.6176
-47.9805
-129.741
-131.844
-131.425
-103.499
-150.239
-110.614
-112.962
-91.6752
-127.475
-120.74
-119.464
-99.1782
-42.8396
-40.6
-46.6277
-43.1395
-39.9573
-38.78
-45.0453
-41.1438
-89.1228
-78.8062
-78.3442
-69.9377
-89.0976
-78.6475
-78.3595
-69.8935
-42.9235
-40.8868
-45.1185
-43.2371
-42.9652
-40.842
-45.0808
-43.2904
-38.4932
-47.5694
-43.0648
-44.6122
-23.6241
-15.5405
-24.629
-16.9147
-23.0571
-15.2217
-24.166
-16.6844
-38.6337
-46.7188
-42.5617
-43.9827
133.212
102.216
184.037
165.187
145.268
136.503
176.792
165.904
134.521
145.101
165.773
175.881
101.115
134.457
164.643
180.088
-35.6408
-35.7085
-36.3422
-35.9804
-28.7633
-28.8873
-33.8567
-31.9491
-41.5971
-44.3774
-40.2652
-42.6029
-40.8946
-43.4107
-40.0041
-42.5815
-36.9534
-37.4185
-37.9875
-37.8334
-42.2065
-44.782
-41.6667
-44.0589
-43.057
-45.5956
-41.8763
-44.1294
-35.4659
-32.103
-36.6398
-35.2245
-33.0553
-33.7689
-32.9696
-33.317
-33.86
-33.3425
-33.507
-33.2056
-33.9743
-33.707
-33.6244
-33.395
-33.2781
-33.6974
-33.0142
-33.3837
-34.8309
-10.7562
-36.7318
-20.8913
-69.162
-75.0567
-83.0514
-84.3488
-75.5486
-70.9635
-84.6471
-83.6315
-10.8185
-33.5261
-20.7308
-36.7486
-36.9311
-43.5312
-37.0321
-38.7649
-43.8399
-46.4491
-45.9782
-42.6649
-40.4841
-44.1729
-46.5976
-48.3294
-39.4563
-35.182
-40.6914
-39.5005
-41.1196
-46.6561
-36.6216
-41.8512
-40.5747
-37.9338
-39.5399
-40.7785
-43.7702
-45.7267
-46.5314
-46.3589
-45.3294
-43.1619
-43.4506
-41.1365
-34.0158
-35.5129
-34.0077
-34.2064
-34.3356
-35.4954
-34.0632
-34.1836
-37.799
-36.0295
-36.286
-36.2122
-37.4196
-35.7052
-36.8016
-35.6368
-48.674
-50.8683
-45.2615
-47.7692
-31.5547
-33.6052
-33.0704
-34.5768
-31.878
-33.8797
-33.2044
-34.7344
-48.754
-50.8896
-45.3277
-47.8189
-30.3722
-30.0362
-28.7301
-28.1856
-31.6985
-31.3935
-30.1678
-30.3049
-28.96
-29.9626
-26.164
-29.0254
-28.4583
-26.8367
-26.8372
-23.9224
-26.881
78.8349
-136.928
34.7998
-128.028
-112.195
-36.0388
-33.2681
-34.3285
-34.999
-41.5965
-36.6153
36.8304
85.736
16.2845
73.4147
4.85338
-5.91613
-33.4253
-30.0371
-30.1343
-29.3319
-35.3489
-33.1862
-136.877
16.9368
-46.1287
73.5202
-131.838
-113.179
-37.9426
-40.8318
-41.2667
-35.0731
-46.4257
-38.2576
18.0535
70.9141
27.6921
82.1954
1.25367
-6.66154
-30.9827
-30.2097
-34.5326
-30.9278
-36.2587
-33.8153
-35.0269
-37.1412
-33.1571
-33.3511
-37.5373
-34.2753
-35.8284
-34.2508
-44.6121
-36.146
-34.3349
-34.0263
-37.6473
-43.7148
-34.6466
-35.6407
-40.1158
-33.1911
-39.6525
-40.6504
-43.9292
-50.9041
-20.9133
-19.2813
-42.8129
-47.9518
-43.554
-41.6113
-46.0517
-51.7973
-55.305
-54.3296
-34.7878
-37.1465
-35.9399
-34.5506
-34.7349
-33.8254
-32.9648
-35.6934
-41.2455
-34.6761
-34.6329
-35.1466
-34.4943
-34.4093
-34.4943
-36.8556
-39.3014
-32.9979
-20.404
-19.7304
-39.6718
-41.4438
-44.612
-50.3343
-43.5738
-48.2947
-55.9014
-54.3485
-44.8784
-42.6002
-47.4387
-52.8591
6.07733
72.076
52.7158
79.2413
-127.312
-101.355
113.333
124.314
-114.628
3.18658
-114.782
0.651903
-100.947
-100.923
-41.7026
-39.4059
-72.7584
-62.2776
-47.7997
-46.0362
-68.0161
-53.7097
-57.2375
-49.5672
-33.8325
-30.6124
-33.5851
-30.2821
-36.0225
-35.5499
-29.9246
-29.8288
-34.2604
-30.5029
-35.1415
-31.67
-36.5764
-36.2526
-29.2598
-30.1679
-39.1163
-35.1425
-34.56
-34.03
-36.9643
-38.4301
-34.6042
-34.4336
-5.63741
72.035
-8.06203
71.1694
-43.3495
-43.1074
124.647
121.068
-90.6889
-59.3583
-57.7794
-46.018
-61.2163
-79.7334
-48.6643
-42.2977
-29.0062
-25.5382
-29.3261
-26.885
-30.1544
-30.2203
-24.1277
-23.1044
-45.7763
-39.9928
-45.883
-47.4333
-49.7068
-46.2369
-43.4659
-39.6531
10.7308
63.7755
31.4753
73.5477
-107.61
-80.5147
118.996
108.297
-72.9383
-62.0836
-47.7406
-45.5109
-66.0318
-53.0616
-57.1496
-49.3218
-36.507
-31.6603
-35.3855
-31.1711
-40.3629
-42.455
-30.7281
-30.5472
-36.6768
-34.9129
-35.3746
-33.8365
-35.8931
-37.3925
-34.4476
-34.495
-86.0355
-57.1364
-53.9389
-43.2101
-74.7192
-59.1619
-40.5202
-46.7448
-45.9898
-40.2914
-44.7962
-47.0532
-44.9263
-47.6812
-39.7204
-43.3227
-33.7204
-32.4985
-30.9785
-31.9809
-32.2909
-34.3506
-32.2916
-32.1924
-38.7622
-36.4391
-38.3457
-37.3859
-41.6115
-40.4766
-36.3804
-37.2295
-36.8884
-35.3303
-36.8317
-35.3957
-38.9082
-38.895
-34.6898
-34.7103
-33.2543
-35.8747
-37.3115
-32.5496
-33.5354
-36.6088
-37.5356
-32.2756
-34.8382
-35.4544
-34.9305
-35.3425
-34.4225
-34.3672
-35.318
-35.2329
-49.4257
-59.5979
-48.9013
-56.5809
-47.4679
-47.3365
-74.1234
-67.0132
3.25894
10.012
3.35127
10.0285
-1.6907
-1.63788
5.49138
5.56704
-68.9585
-59.1132
-69.0811
-59.1978
-75.759
-75.781
-54.7073
-54.771
-34.097
-32.9255
-33.8106
-33.2656
-37.6049
-31.4214
-32.8458
-32.9927
-39.1142
-38.952
-38.8512
-38.8424
-40.2364
-41.0401
-38.319
-39.0252
-32.9243
-39.6001
-39.0806
-34.4654
-38.1383
-35.1118
-40.4047
-37.1712
-50.4553
-61.1033
-50.2532
-57.7079
-48.6581
-48.7592
-68.1618
-76.1724
-81.4606
-82.5353
-70.6382
-56.2644
-57.6275
-72.476
-51.716
-52.2673
-79.5083
-82.1101
-69.1124
-55.0176
-71.282
-55.7653
-50.4573
-50.0963
-64.4397
-64.4122
-58.9259
-51.0296
-58.8881
-51.0021
-48.1704
-48.1923
-40.8473
-40.7095
-37.8698
-29.5069
-29.2438
-37.5707
-24.0674
-23.9698
198.259
197.379
203.22
203.085
202.699
202.52
197.099
198.136
-35.826
-35.4761