# vtk DataFile Version 2.0
tet_velo
ASCII
DATASET UNSTRUCTURED_GRID
POINTS 29498 float
-0.765444 0.255 -2.385
-0.655 0.285 2.53167
-0.755 0.82849 -2.335
-0.725 1.00882 2.385
0.765444 0.255 -2.385
0.655 0.285 2.53167
0.755 0.82849 -2.335
0.725 1.00879 2.385
-0.764417 0.229212 -0.74611
-0.750657 0.216158 0.89278
-0.81279 0.95639 -0.761667
-0.79332 1.00703 0.811667
0.764417 0.229212 -0.74611
0.750657 0.216158 0.89278
0.812783 0.956373 -0.761667
0.793339 1.00703 0.811667
-1.55012 -0.133856 -3.65762
-1.54645 -0.10096 -2.37276
-1.54057 -0.122713 -0.732175
-1.51092 -0.144881 0.921604
-1.44485 -0.105571 2.5633
-1.42616 -0.0711177 3.8536
-1.42989 -0.0428738 5.13382
-1.54868 0.196911 -3.65618
-1.54833 0.246621 -2.37849
-1.54837 0.24315 -0.75066
-1.51083 0.228346 0.88307
-1.4209 0.26803 2.51216
-1.40791 0.301585 3.80153
-1.41899 0.329057 5.08389
-1.54515 0.827707 -3.63492
-1.54977 0.875278 -2.35451
-1.58157 0.963807 -0.771377
-1.54802 0.99881 0.807117
-1.46918 1.01064 2.39151
-1.43383 1.04148 3.6836
-1.42944 1.07108 4.97653
-1.54135 1.86581 -3.65232
-1.54582 1.92611 -2.38173
-1.55929 2.02726 -0.819845
-1.55669 2.1047 0.727909
-1.52931 2.14256 2.29048
-1.5006 2.16461 3.5625
-1.4786 2.18822 4.84827
-0.777406 -0.129481 -3.66185
-0.770686 -0.0938529 -2.37893
-0.768299 -0.128963 -0.731347
-0.761358 -0.153834 0.929891
-0.71471 -0.0986835 2.57779
-0.695221 -0.0661092 3.86343
-0.69498 -0.0406772 5.13951
-0.775571 0.195713 -3.65749
-0.671089 0.307588 3.80964
-0.682591 0.331488 5.08818
-0.770345 0.808104 -3.62681
-0.691083 1.04267 3.68229
-0.687911 1.0722 4.97625
-0.762611 1.85206 -3.6443
-0.763252 1.91297 -2.3729
-0.778457 2.02372 -0.814522
-0.787682 2.10793 0.72727
-0.773731 2.14503 2.28592
-0.749475 2.16581 3.55794
-0.728694 2.189 4.84496
0.761392 -0.129484 -3.66184
0.765001 -0.0938541 -2.37893
0.761562 -0.128964 -0.731347
0.732653 -0.153835 0.929892
0.67428 -0.0986856 2.57779
0.717427 -0.0661155 3.86343
0.750905 -0.0406852 5.13951
0.760428 0.195711 -3.65749
0.728759 0.307579 3.80964
0.760351 0.331478 5.08818
0.763089 0.808102 -3.62681
0.752688 1.04265 3.68229
0.771451 1.07219 4.97625
0.790187 1.85205 -3.6443
0.797083 1.91296 -2.3729
0.790532 2.02371 -0.814522
0.764735 2.10792 0.72727
0.746125 2.14501 2.28592
0.752844 2.1658 3.55794
0.767268 2.18899 4.84496
1.53359 -0.133862 -3.65762
1.53816 -0.100965 -2.37276
1.53358 -0.122718 -0.732175
1.49382 -0.144887 0.921604
1.42693 -0.105581 2.5633
1.44641 -0.0711317 3.8536
1.48064 -0.0428903 5.13382
1.53447 0.196905 -3.65618
1.5434 0.246615 -2.37849
1.54683 0.243143 -0.75066
1.51107 0.22834 0.88307
1.42706 0.268015 2.51216
1.45194 0.301567 3.80153
1.48763 0.329038 5.08389
1.53993 0.8277 -3.63492
1.54998 0.875268 -2.35451
1.5829 0.963789 -0.771377
1.55008 0.998798 0.807117
1.47794 1.0106 2.39151
1.48247 1.04145 3.6836
1.50403 1.07106 4.97653
1.565 1.86579 -3.65231
1.57299 1.9261 -2.38173
1.56947 2.02724 -0.819845
1.54087 2.10468 0.727908
1.5117 2.14254 2.29048
1.50857 2.16459 3.5625
1.51764 2.1882 4.84827
-0.802168 0.541745 -2.40195
0 0.248438 -2.39156
-0.770671 0.236365 -1.56556
-0.73961 0.64691 2.50794
0 0.291504 2.52517
-0.738565 0.214842 1.71223
0 0.911536 -2.41805
-0.814534 0.923079 -1.54833
0 1.06386 2.44005
-0.788359 1.03712 1.59833
0.802174 0.541745 -2.40195
0.770694 0.236343 -1.56556
0.739491 0.646895 2.50783
0.738565 0.214842 1.71223
0.814498 0.923038 -1.54833
0.788343 1.03708 1.59833
-0.757367 0.222855 0.0733351
-0.851772 0.592801 -0.753888
-6.98057e-08 0.228417 -0.74611
-0.863729 0.611594 0.852224
3.68785e-08 0.212723 0.89278
-0.799765 0.97842 0.025
-3.35858e-06 1.37073 -0.761667
9.19328e-06 1.49282 0.811667
0.757367 0.222855 0.0733351
0.851771 0.592793 -0.753888
0.864065 0.611593 0.852224
0.799775 0.978415 0.025
-0.89401 0.567273 -1.55694
-0.854561 0.602198 0.0491675
-0.892367 0.629252 1.65528
-3.49029e-08 0.237912 -1.56556
-1.64636e-08 0.220273 0.0733351
1.84392e-08 0.212428 1.71223
0 0.541745 -2.6251
0 0.646903 2.63319
-1.67929e-06 1.05466 -1.54833
2.91735e-06 1.527 0.025
4.59664e-06 1.28785 1.59833
0.894015 0.567269 -1.55694
0.854559 0.602193 0.0491675
0.892316 0.629244 1.65528
-1.15689 0.250811 -2.38174
-0.768065 0.0805736 -2.38196
-0.770507 0.225356 -3.02124
-1.03795 0.276515 2.52191
-0.684855 0.0931582 2.55473
-0.663044 0.296294 3.17065
-1.15239 0.851884 -2.34476
-0.762673 0.818297 -2.98091
-0.759126 1.37073 -2.35395
-1.09709 1.00973 2.38826
-0.708042 1.02574 3.03365
-0.749366 1.57692 2.33546
0.765222 0.080573 -2.38196
0.762936 0.225355 -3.02124
1.15442 0.250808 -2.38174
0.66464 0.0931572 2.55473
0.691879 0.296289 3.17065
1.04103 0.276508 2.52191
0.759044 0.818296 -2.98091
0.776041 1.37073 -2.35395
1.15249 0.851879 -2.34476
0.738844 1.02572 3.03365
0.735563 1.5769 2.33546
1.10147 1.0097 2.38826
-1.1564 0.236181 -0.748385
-0.766358 0.0501244 -0.738729
-1.13074 0.222252 0.887925
-0.756007 0.0311622 0.911336
-1.19718 0.960099 -0.766522
-0.795624 1.49005 -0.788094
-1.17067 1.00292 0.809392
-0.790501 1.55748 0.769468
0.76299 0.050124 -0.738729
1.15562 0.236178 -0.748385
0.741655 0.0311616 0.911336
1.13086 0.222249 0.887925
0.801658 1.49004 -0.788094
1.19784 0.960081 -0.766522
0.779037 1.55747 0.769468
1.17171 1.00291 0.809392
-1.54829 -0.117408 -3.01519
-1.5494 0.0315274 -3.6569
-1.16376 -0.131669 -3.65973
-1.54351 -0.111836 -1.55247
-1.54739 0.0728309 -2.37562
-1.15857 -0.0974063 -2.37584
-1.52574 -0.133797 0.0947145
-1.54447 0.0602183 -0.741417
-1.15443 -0.125838 -0.731761
-1.47788 -0.125226 1.74245
-1.51087 0.0417326 0.902337
-1.13614 -0.149357 0.925748
-1.4355 -0.0883442 3.20845
-1.43287 0.0812295 2.53773
-1.07978 -0.102127 2.57054
-1.42803 -0.0569958 4.49371
-1.41704 0.115234 3.82756
-1.06069 -0.0686135 3.85851
-1.42444 0.143092 5.10886
-1.06244 -0.0417755 5.13667
-1.54851 0.221766 -3.01734
-1.54692 0.512309 -3.64555
-1.16213 0.196312 -3.65684
-1.54835 0.244886 -1.56457
-1.54905 0.56095 -2.3665
-1.5296 0.235748 0.0662051
-1.56497 0.603478 -0.761018
-1.46586 0.248188 1.69761
-1.52942 0.613578 0.845094
-1.41441 0.284807 3.15684
-1.44504 0.639333 2.45183
-1.41345 0.315321 4.44271
-1.42087 0.671533 3.74256
-1.0395 0.304586 3.80558
-1.42422 0.700071 5.03021
-1.05079 0.330273 5.08604
-1.54746 0.851493 -2.99472
-1.54325 1.34676 -3.64362
-1.15775 0.817906 -3.63087
-1.56567 0.919543 -1.56295
-1.5478 1.40069 -2.36812
-1.56479 0.981309 0.01787
-1.57043 1.49553 -0.795611
-1.5086 1.00472 1.59931
-1.55236 1.55176 0.767513
-1.45151 1.02606 3.03755
-1.49924 1.5766 2.34099
-1.43164 1.05628 4.33006
-1.46722 1.60305 3.62305
-1.06246 1.04207 3.68294
-1.45402 1.62965 4.9124
-1.05868 1.07164 4.97639
-1.54359 1.89596 -3.01702
-1.15198 1.85893 -3.64831
-1.55256 1.97668 -1.60079
-1.15454 1.91954 -2.37731
-1.55799 2.06598 -0.0459681
-1.16888 2.02549 -0.817183
-1.543 2.12363 1.50919
-1.17219 2.10632 0.727589
-1.51495 2.15359 2.92649
-1.15152 2.14379 2.2882
-1.4896 2.17642 4.20538
-1.12504 2.16521 3.56022
-1.10365 2.18861 4.84661
-0.774046 -0.111667 -3.02039
-0.776488 0.0331156 -3.65967
-0.00800715 -0.129482 -3.66185
-0.769492 -0.111408 -1.55514
-0.00284264 -0.0938535 -2.37893
-0.764828 -0.141398 0.0992721
-0.00336833 -0.128964 -0.731347
-0.738034 -0.126259 1.75384
-0.0143524 -0.153834 0.929891
-0.704966 -0.0823964 3.22061
-0.020215 -0.0986846 2.57779
-0.695101 -0.0533932 4.50147
-0.683155 0.120739 3.83653
0.0111028 -0.0661123 3.86343
-0.688786 0.145405 5.11385
0.0279624 -0.0406812 5.13951
-0.772958 0.501908 -3.64215
-0.00757159 0.195712 -3.65749
-0.67684 0.319538 4.44891
-0.681086 0.675127 3.74596
0.0288349 0.307583 3.80964
-0.685251 0.701844 5.03222
0.0388797 0.331483 5.08818
-0.766478 1.33008 -3.63556
-0.00362809 0.808103 -3.62681
-0.689497 1.05743 4.32927
-0.720279 1.60424 3.62012
0.0308024 1.04266 3.68229
-0.708303 1.6306 4.9106
0.0417696 1.07219 4.97625
-0.762932 1.88251 -3.0086
0.013788 1.85206 -3.6443
-0.770855 1.96834 -1.59371
0.0169151 1.91297 -2.3729
-0.78307 2.06582 -0.0436258
0.00603739 2.02372 -0.814522
-0.780707 2.12648 1.50659
-0.0114736 2.10792 0.72727
-0.761603 2.15542 2.92193
-0.0138028 2.14502 2.28592
-0.739084 2.17741 4.20145
0.0016845 2.16581 3.55794
0.0192871 2.189 4.84496
0.763196 -0.111669 -3.02039
0.76091 0.0331135 -3.65967
1.14749 -0.131673 -3.65973
0.763281 -0.111409 -1.55514
1.15158 -0.0974096 -2.37584
0.747108 -0.141399 0.0992721
1.14757 -0.125841 -0.731761
0.703467 -0.12626 1.75384
1.11323 -0.149361 0.925748
0.695854 -0.0824005 3.22061
1.0506 -0.102133 2.57054
0.734166 -0.0534003 4.50147
0.723093 0.120732 3.83653
1.08192 -0.0686236 3.85851
0.755628 0.145396 5.11385
1.11577 -0.0417877 5.13667
0.761758 0.501906 -3.64215
1.14745 0.196308 -3.65683
0.744555 0.319529 4.44891
0.740723 0.675114 3.74596
1.09035 0.304573 3.80558
0.765901 0.701833 5.03222
1.12399 0.330258 5.08604
0.776638 1.33008 -3.63556
1.15151 0.817901 -3.63087
0.762069 1.05742 4.32927
0.752766 1.60422 3.62012
1.11758 1.04205 3.68294
0.769359 1.63059 4.9106
1.13774 1.07162 4.97639
0.793635 1.88251 -3.0086
1.1776 1.85892 -3.64831
0.793807 1.96834 -1.59371
1.18504 1.91953 -2.37731
0.777634 2.06582 -0.0436259
1.18 2.02548 -0.817183
0.75543 2.12647 1.50659
1.1528 2.1063 0.727589
0.749485 2.15541 2.92193
1.12891 2.14377 2.2882
0.760056 2.1774 4.20145
1.13071 2.16519 3.56022
1.14245 2.1886 4.84661
1.53587 -0.117413 -3.01519
1.53403 0.0315214 -3.6569
1.53587 -0.111842 -1.55247
1.54078 0.072825 -2.37562
1.5137 -0.133803 0.0947145
1.5402 0.0602124 -0.741417
1.46037 -0.125234 1.74245
1.50244 0.0417264 0.902337
1.43667 -0.0883562 3.20845
1.42699 0.0812172 2.53773
1.46353 -0.057011 4.49371
1.44917 0.115218 3.82756
1.48414 0.143074 5.10886
1.53894 0.22176 -3.01734
1.5372 0.512302 -3.64555
1.54512 0.244879 -1.56457
1.54669 0.560942 -2.3665
1.52895 0.235741 0.066205
1.56486 0.603466 -0.761018
1.46906 0.248177 1.69761
1.53057 0.613569 0.845093
1.4395 0.284791 3.15684
1.4525 0.63931 2.45183
1.46979 0.315303 4.44271
1.4672 0.67151 3.74256
1.49583 0.70005 5.03021
1.54496 0.851484 -2.99472
1.55247 1.34675 -3.64362
1.56644 0.919529 -1.56295
1.56149 1.40068 -2.36812
1.56649 0.981294 0.0178699
1.57619 1.49551 -0.795611
[...]
POINT_DATA 29498
VECTORS point_vectors float
-1.77551 -2.9787 4.62181
-0.171938 0.449327 1.35759
-2.89405 2.20571 4.89047
0.0299569 -0.0960761 0.431913
1.77777 -2.97653 4.62292
0.194232 0.384736 1.24947
2.88879 2.20238 4.88356
-0.0391617 -0.0797208 0.416254
-0.00476502 0.00369542 0.409588
0.00651192 -0.00568278 0.142041
0.00605559 0.0177703 0.085602
0.0174485 0.0574733 0.150206
0.00455352 0.00365235 0.409306
-0.00666326 -0.00568111 0.141231
-0.00605653 0.0176567 0.0853788
-0.0176102 0.05792 0.150749
-0.552133 -0.252343 19.8733
-1.20297 -0.692506 20.6341
-0.354241 -0.28417 21.3872
0.0129006 0.00521876 21.5538
0.567944 0.412104 21.464
0.734988 0.465306 20.9215
1.09143 0.45939 20.5105
-0.632165 -0.168867 19.7932
-1.70477 -0.61001 20.6135
-0.448188 -0.380727 21.4608
-0.00426006 -0.0701074 21.6283
0.898007 0.321091 21.441
1.21186 0.257941 20.7843
0.812605 0.262032 21.3699
-0.68619 0.0727953 19.7205
-1.89995 0.168864 20.4897
-0.986543 -0.289301 21.4806
-0.110647 -0.169878 21.7143
0.795751 -0.263769 21.5607
1.05464 -0.393301 20.886
0.890606 -0.226082 19.9578
-0.425983 0.290975 19.9415
-0.86399 0.592989 20.3952
-0.824823 0.406657 21.2456
-0.209211 0.00130314 21.5808
0.267089 -0.312175 21.4246
0.320219 -0.414953 21.2066
0.384137 -0.369607 20.971
-0.530345 -0.558521 19.3516
-1.6719 -3.02309 21.1867
-0.358459 -0.257032 21.618
-0.130519 -0.0317552 20.9742
0.177066 1.07124 19.7625
0.42939 1.35681 18.3612
-0.133121 1.327 20.3794
-0.6706 -0.424125 19.0659
0.799669 1.4996 10.1375
1.37296 0.914493 11.6057
-0.771211 0.195634 18.851
1.2943 -0.292208 8.90909
0.972917 -0.605235 14.4648
-0.367237 0.57809 19.6363
-0.906018 1.48163 20.1548
-1.17502 1.45294 21.3293
-0.245935 0.15209 22.0097
0.238065 -0.581573 21.5489
0.317837 -0.742876 21.0869
0.227249 -0.532237 20.5614
0.526079 -0.560584 19.353
1.6622 -3.04105 21.1944
0.35639 -0.261513 21.6086
0.125028 -0.0429491 20.8366
-0.138961 0.965948 19.5729
-0.444437 1.19153 18.1927
-0.433271 1.07235 19.5779
0.667239 -0.429176 19.0402
-0.807114 1.40368 10.7526
-1.18487 0.777673 13.0304
0.767326 0.198968 18.8463
-1.66141 -0.0910516 10.4377
-0.652955 -0.432349 15.6365
0.374246 0.571773 19.6461
0.920797 1.45003 20.1615
1.17484 1.42576 21.3292
0.236286 0.16314 22.0201
-0.246327 -0.573908 21.5519
-0.366231 -0.753397 21.0485
-0.434357 -0.654178 20.6023
0.550175 -0.255049 19.853
1.20122 -0.691826 20.6472
0.363066 -0.29181 21.3858
-0.00845472 -0.00420859 21.5387
-0.542985 0.40608 21.4383
-0.685264 0.383235 21.166
-1.0908 0.319852 20.3901
0.628976 -0.167361 19.771
1.71086 -0.608689 20.5985
0.447845 -0.378202 21.4546
0.00253404 -0.072164 21.615
-0.848753 0.295533 21.4206
-1.03275 0.278923 20.9892
-1.14189 0.118161 20.4079
0.688953 0.071429 19.7049
1.89727 0.165652 20.4873
0.984988 -0.289357 21.4778
0.106062 -0.16781 21.708
-0.762849 -0.239743 21.5385
-1.04797 -0.322822 21.1124
-1.22478 -0.43628 21.0146
0.423538 0.286409 19.9501
0.845587 0.571959 20.3991
0.817573 0.401118 21.2398
0.208828 -0.00199619 21.58
-0.257685 -0.309311 21.4223
-0.415517 -0.389673 21.145
-0.406178 -0.455054 20.7764
-0.814465 -0.0427307 0.909209
-7.66309e-05 -0.0433529 0.338802
-0.00341577 -0.00226337 0.571826
0.0171669 -0.04148 0.0712503
-0.00781276 0.00305008 0.0309715
-0.010798 0.0116622 0.214703
-1.27114e-05 0.167435 0.392002
-0.265124 -0.20054 0.882082
-0.0197773 0.0151833 -0.0477814
0.0146801 0.0350026 0.162827
0.814634 -0.042957 0.90916
0.00341749 -0.00226507 0.572589
-0.0131305 -0.0215434 0.0562222
0.0100191 0.0114024 0.213629
0.265906 -0.200974 0.883137
-0.0150314 0.0359895 0.162439
-0.00663587 -0.0054472 0.365802
7.21255e-05 0.0032711 0.0411197
-1.21189e-06 -9.78483e-06 0.00214274
0 0 0
-1.90213e-05 -0.000266434 0.00940836
0.0128072 0.0384244 0.108383
-2.34514e-05 0.0501596 0.125357
-6.17962e-05 -0.00386936 0.0432435
0.00634258 -0.00550962 0.365618
-7.23166e-05 0.00327123 0.0412368
0 0 0
-0.0127437 0.0384007 0.108174
-0.00383604 -0.00370449 0.131713
-7.68709e-06 0.000330871 0.00182117
-0.00201871 0.0248714 0.207717
1.87078e-20 8.09874e-20 -3.70771e-17
-2.96511e-05 -0.00108712 0.0311735
-0.00014447 0.000328492 0.0193929
-0.00025715 -0.041138 0.0724004
-0.0618021 0.262396 -0.110761
-7.30684e-06 0.00130167 0.010314
-1.20399e-05 0.00117293 0.0269816
4.57571e-07 5.35597e-08 -2.29103e-07
0.00383789 -0.00371437 0.131795
7.2406e-06 0.000312249 0.00171828
0.00200223 0.0245748 0.203144
-3.20806 -1.64523 20.7363
-2.63638 -4.76337 21.6152
-2.03015 -1.57306 17.939
1.20782 1.09844 17.2907
-0.0135776 1.16617 12.89
0.133742 1.10347 6.98874
-3.83603 0.835957 20.4697
-2.51197 1.04805 17.2866
-2.12522 2.67389 19.9888
1.27912 -0.00653651 18.825
0.527448 -0.0396347 5.37952
0.892358 -0.68554 19.1579
2.62409 -4.78155 21.621
2.03221 -1.59685 17.8991
3.22143 -1.66155 20.7304
0.0447668 1.02185 12.3382
-0.0548993 1.06051 7.09445
-1.13684 1.04309 17.288
2.50796 1.05542 17.27
2.13204 2.61492 20.0003
3.84032 0.838684 20.4704
-0.68152 0.194564 6.1242
-0.921667 -0.661722 19.0231
-1.24754 0.0215759 18.8342
-0.207771 -0.477731 20.9124
-0.193772 -0.0232082 16.8329
-0.125149 0.106623 19.6639
0.0354526 -0.0768132 15.8292
-1.44002 -0.911745 21.6017
-3.34219 1.70206 21.7422
-0.000704924 -0.184716 20.3436
-0.0943822 0.238531 19.733
0.19032 -0.0260991 16.7787
0.20541 -0.478529 20.8974
-0.0548535 -0.0773053 15.5808
0.123304 0.101142 19.651
3.3024 1.66642 21.7518
1.43924 -0.911325 21.5987
0.0469685 0.276031 19.4711
-0.00538438 -0.174581 20.3255
-0.947526 -0.492043 20.0339
-0.603524 -0.228837 19.8282
-0.606473 -0.411217 19.6225
-0.719099 -0.48971 21.2402
-1.43785 -0.675335 20.6316
-1.65801 -1.50631 20.7638
-0.149413 -0.128648 21.4673
-0.418782 -0.344301 21.4117
-0.27357 -0.322955 21.5124
0.267635 0.198364 21.603
-0.00743367 -0.0376226 21.5784
-0.0411031 0.00253178 21.6248
0.687932 0.463245 21.3091
0.72644 0.403216 21.4861
0.592562 0.837298 21.1946
0.603266 0.280423 20.39
1.09525 0.380798 20.6907
0.829698 0.973661 21.3171
1.00125 0.382182 20.8632
0.737922 1.11283 20.9436
-1.23508 -0.377507 19.8773
-0.683462 -0.067323 19.7316
-0.720822 -0.310934 19.4524
-0.968625 -0.522534 21.3534
-1.8922 -0.247221 20.574
-0.186853 -0.221704 21.5226
-0.674036 -0.42615 21.4813
0.388486 0.117029 21.734
-0.0240594 -0.114843 21.72
1.02166 0.341802 21.375
0.973308 0.000346654 21.4743
1.05245 0.262119 21.6089
1.30137 -0.0814559 21.2731
1.43609 0.912708 17.2108
0.872575 -0.12786 20.8205
0.85612 0.689549 20.413
-1.35144 0.150655 19.7943
-0.571961 0.241855 19.8107
-0.800317 0.142016 19.3289
-1.4175 -0.127413 21.2037
-1.35242 0.574961 20.3838
-0.505137 -0.271987 21.6597
-1.1078 0.175899 21.3748
0.341346 -0.155293 21.7363
-0.218593 -0.0903814 21.6964
1.02829 -0.322676 21.3244
0.478763 -0.372073 21.4959
1.07117 -0.312446 20.9086
0.667008 -0.418391 21.0043
1.63353 -0.312164 19.4768
0.524083 -0.470591 21.1172
1.05587 -0.307124 19.1289
-0.660884 0.473721 20.071
-0.443867 0.414003 19.7947
-0.91575 0.551951 20.8102
-0.96493 0.963566 20.2737
-0.551878 0.204115 21.518
-1.07027 0.777384 21.3093
0.0832321 -0.177799 21.5195
-0.245081 0.0612036 21.8022
0.374844 -0.360911 21.275
0.273635 -0.42746 21.4929
0.493201 -0.40613 20.7781
0.386635 -0.594881 20.93
0.433293 -0.479132 21.2403
-1.25511 -1.62919 19.1187
-0.589185 -0.500003 19.2328
-0.00694108 -0.753383 19.0104
-0.635109 -0.829153 21.9942
-0.0100434 -4.0384 21.808
-0.252157 -0.106563 21.1776
-0.00664935 -0.490012 20.964
0.0151856 0.443027 20.3227
-0.0116168 -0.190228 19.4598
0.29798 1.18129 19.6792
-0.0832591 0.575454 17.2481
0.219852 1.11003 19.1203
0.614947 1.52631 15.433
-0.191942 0.933488 16.3727
0.482276 1.19802 16.5068
0.0389602 0.565477 13.7936
-0.779042 -0.138114 18.8635
-0.00824102 -0.603418 18.599
1.68145 1.02551 10.6396
1.41085 0.875585 5.84739
0.275326 -0.368811 0.778995
1.5078 0.376976 10.654
-0.000583296 0.0160939 9.52835
-0.566523 0.565331 19.2531
-0.00436315 0.296251 18.2892
1.71222 -0.367406 13.1582
0.899307 -1.04083 19.4209
0.253468 -1.57918 1.71953
0.882954 -0.982572 19.1277
0.121173 -1.56433 4.29732
-0.643672 1.06366 19.716
0.00783069 0.691136 19.4672
-1.05497 1.50275 20.6891
0.0308853 2.05746 19.9968
-0.79828 0.836012 21.9695
0.0151954 2.5535 21.2792
0.108205 -0.318425 21.7862
-0.00938074 0.252814 22.2941
0.276793 -0.717023 21.3331
-0.0057225 -0.72139 21.6816
0.308147 -0.885041 21.0592
0.0391875 -0.807349 21.3696
-0.0855957 -0.536146 21.3879
1.24834 -1.64689 19.1123
0.585639 -0.501173 19.2236
0.607866 -0.425533 19.6135
0.634645 -0.832386 21.9913
1.66411 -1.5343 20.7678
0.247931 -0.118429 21.1316
0.270448 -0.324824 21.5113
-0.0166876 0.409078 20.0655
0.0417171 -0.000121022 21.6014
-0.253058 1.07751 19.5794
-0.558255 0.823282 21.0662
-0.593914 0.884126 17.7782
-0.665494 1.38479 15.0801
-0.736384 0.980809 21.3097
-0.789615 0.999189 15.8537
-0.685965 1.12491 21.225
0.774766 -0.140534 18.8435
0.72012 -0.314819 19.4381
-1.19754 1.01679 11.0347
-1.40008 0.969678 7.64588
-1.35816 0.77728 17.9883
-1.15219 0.297807 12.0213
-1.17876 0.577004 21.1003
0.571368 0.562183 19.255
0.799435 0.14244 19.3285
-1.57337 -0.302494 14.0684
-0.87107 -0.958381 19.8826
-1.51585 -0.334648 20.1463
-0.912092 -0.821218 19.4796
-0.758716 -0.373995 19.5552
0.654336 1.04726 19.7278
0.451245 0.406781 19.8069
1.06489 1.4708 20.6967
0.963172 0.93218 20.284
0.793217 0.845072 21.9701
1.06395 0.762389 21.306
-0.118406 -0.315313 21.7852
0.244169 0.0689903 21.8068
-0.284462 -0.678478 21.3923
-0.279125 -0.425357 21.5009
-0.18336 -0.607847 21.4195
-0.454195 -0.566151 21.0606
-0.399417 -0.522055 21.2036
0.954064 -0.49692 20.0168
0.600338 -0.227375 19.8064
0.73296 -0.50041 21.2354
1.44275 -0.672855 20.6428
0.139407 -0.136801 21.4653
0.418782 -0.351348 21.4063
-0.266064 0.190264 21.6011
0.00898549 -0.0471566 21.5549
-0.656362 0.436772 21.2347
-0.700638 0.383751 21.462
-0.71188 0.327857 20.6459
-0.915548 0.360356 21.0553
-1.15883 0.245236 20.4184
1.24524 -0.377411 19.8477
0.678695 -0.0658239 19.707
0.969244 -0.526511 21.3462
1.89896 -0.24574 20.569
0.183122 -0.225225 21.518
0.673457 -0.426744 21.478
-0.380361 0.110636 21.7095
0.0233441 -0.114535 21.7094
-0.949514 0.345581 21.2528
-0.920298 0.00076255 21.4645
-1.03961 0.409695 20.9223
-1.20064 -0.0246634 21.1622
-1.20314 -0.159534 20.6374
1.35381 0.148897 19.7793
0.566631 0.240833 19.8132
1.41353 -0.126174 21.2082
1.33244 0.566228 20.3861
0.505034 -0.271687 21.6556
1.09848 0.173502 21.3703
-0.335372 -0.150075 21.7151
0.217217 -0.0881521 21.7031
-0.955737 -0.275624 21.2987
-0.463285 -0.361704 21.4986
-0.913687 -0.343628 21.2332
-0.692624 -0.451442 21.0859
-0.581686 -0.302277 20.8347
0.652127 0.452014 20.0836
0.900849 0.537422 20.8126
0.554346 0.204691 21.5175
-0.0851031 -0.174404 21.5557
-0.365959 -0.349621 21.297
-0.360013 -0.387185 20.9144
-1.09683 -0.454647 19.9585
-1.65722 -1.74612 18.5624
-1.21656 -0.962581 19.6672
-1.73069 -0.820626 19.2093
-0.655149 -0.378254 19.5479
-2.34637 -1.75073 20.7756
-0.854581 -0.518626 21.2872
-0.513501 -0.352998 18.8417
-0.704772 -0.748528 21.5617
-0.974496 -0.980503 21.9553
-0.227696 -0.375556 21.4939
-0.173757 -0.184342 21.4881
-0.162309 0.00305125 16.0369
-0.129407 -0.129123 21.5274
-0.0270363 -0.0920702 20.0629
-0.0466907 0.0152461 21.1292
0.320327 0.166589 21.6548
0.00163073 0.408331 14.3813
0.242276 0.387939 21.6495
0.390051 0.580497 18.6387
0.867558 1.02009 20.1231
0.853856 0.456024 21.3039
0.124583 1.40633 14.1304
0.743156 0.948581 20.9898
1.38496 1.09112 18.2043
1.11673 0.968232 19.6488
0.806145 0.290762 21.0118
0.808878 1.06019 15.4128
0.810103 0.80016 22.1307
1.3906 0.659609 16.8297
0.786934 0.951766 20.7983
-1.37344 -0.141462 19.7805
-2.62229 -0.440065 17.0984
-2.02123 0.452555 18.9836
-0.818117 -0.101459 19.3191
-4.22953 -0.529931 20.612
-1.2183 -0.397159 21.3426
-2.147 -0.455537 21.675
-0.481531 -0.841207 20.5193
-0.301007 -0.283265 21.6103
-0.600287 -0.712048 20.969
0.039957 0.267769 18.8063
0.418897 -0.02624 21.7498
0.648998 0.137964 19.6727
1.39564 0.458032 16.4387
1.1536 -0.00839051 21.2879
0.418412 0.577825 2.96846
1.47609 -0.198255 18.9528
1.89914 0.366133 16.2217
1.28368 -0.121346 21.1554
2.09714 0.604887 9.44087
1.72836 -0.275483 19.5021
1.02201 0.151264 19.0525
-1.01339 0.442844 19.9143
-1.30662 1.5048 18.9525
-0.722007 0.727079 19.9203
-0.617191 0.397746 19.531
-1.88451 1.29765 20.2217
-1.32897 0.373613 20.9666
-2.34154 1.88378 20.7169
-1.08549 0.943719 20.7886
-1.8722 0.433016 21.5738
-0.674457 -0.00167369 21.6441
-1.79909 0.364452 21.5099
-0.712051 0.420612 21.7136
-0.328668 -0.0720321 22.0077
0.177921 -0.211234 21.6394
0.78686 -0.239326 19.1883
0.094979 -0.232704 21.6902
0.58855 -0.598973 21.5692
0.59091 -0.428123 21.3078
0.870064 -0.923151 19.5739
0.365282 -0.520304 21.344
0.856713 -0.819743 21.5229
0.602962 -0.525883 21.1533
0.890763 -1.17088 19.1711
0.480104 -0.548664 21.2909
0.787439 -0.584368 20.405
1.65517 -1.77446 18.5214
-0.0150824 -2.59726 18.4238
-0.0162775 -2.86064 15.9833
-0.011543 -0.737823 18.8004
-0.00157682 -5.34012 23.3491
0.514889 -0.35164 18.7867
-0.00645626 -1.093 22.0905
-0.00345249 -0.160017 12.5273
0.154587 -0.007513 15.9021
-0.00790794 -0.33665 19.9702
-0.00895443 -0.102651 11.913
-0.0199247 0.374684 14.0045
-0.0209369 0.191172 18.3595
-0.179444 0.414152 8.68177
-0.110613 1.24429 13.9876
-0.122223 0.634974 16.951
-0.29397 -0.145252 -1.14964
-0.0440141 0.685765 8.85606
-0.887447 0.976481 14.1846
-0.318035 1.00852 15.0855
0.00973703 1.04576 7.24584
-0.0302919 0.356096 11.5096
2.62415 -0.43886 17.0603
-0.00828552 2.0831 14.8491
-0.0026459 -0.201244 18.2493
-0.227207 0.893708 3.23957
-0.188776 -0.0179321 0.669896
0.463794 -2.45235 -2.93766
-1.65124 0.532525 9.73265
-0.467748 -2.41305 1.86321
0.10629 -0.601764 5.4665
1.31339 1.48536 18.9652
0.0178554 1.43901 19.4635
0.0012644 0.75321 18.9057
0.0304229 4.16361 19.6881
2.34229 1.84558 20.7272
0.0236636 2.17378 20.5044
0.0141336 5.34823 20.5495
1.79993 0.366467 21.4859
-0.00604851 1.53809 22.3262
-0.00236147 -0.250092 14.7996
-0.821195 -0.226398 19.0475
-0.00488613 -0.442559 22.0108
-0.018245 -1.04118 12.839
-0.876362 -0.848835 19.6134
-0.00285043 -0.839336 21.5059
-0.126619 -1.59743 16.224
-0.885906 -1.14925 19.4786
-0.025888 -0.946577 21.3571
-0.0356155 -0.966409 16.4531
1.11534 -0.457902 19.9256
1.22146 -0.981314 19.6547
1.74402 -0.832058 19.1845
0.656651 -0.39025 19.5335
2.35929 -1.77307 20.7765
0.861022 -0.528417 21.2853
0.700278 -0.756319 21.5643
0.972608 -0.983722 21.9492
0.225893 -0.374504 21.4758
0.165438 -0.188357 21.4892
0.126467 -0.126169 21.5157
0.0254818 -0.0950596 20.0497
0.0477444 0.0128796 21.0345
-0.321393 0.162034 21.6517
-0.231785 0.391941 21.5969
-0.387805 0.562689 18.6475
-0.818534 0.992491 19.8886
-0.80772 0.469399 21.1682
-0.676855 0.883709 20.9687
-1.251 0.981127 18.7561
-1.00669 0.917617 20.2641
-1.02878 0.412508 20.5999
-0.607502 0.853584 21.9325
-1.3195 0.719919 19.6926
-0.842829 0.978511 21.2371
1.37904 -0.140932 19.7677
2.02519 0.454606 18.9796
0.817667 -0.102895 19.3063
4.2415 -0.530106 20.6101
1.22238 -0.396311 21.3418
2.14528 -0.455124 21.6749
0.480145 -0.843229 20.5187
0.298198 -0.284501 21.6084
0.596495 -0.70407 20.9592
-0.0416688 0.264009 18.8234
-0.408899 -0.0249302 21.7357
-0.64545 0.139026 19.7014
-1.32717 0.462162 16.4091
-1.0835 0.0137453 21.2234
-1.36685 -0.170777 19.276
-1.73926 0.272354 17.9711
-1.10213 -0.0726001 21.0358
-1.62317 -0.338592 19.2134
-1.18967 0.038218 20.216
0.997997 0.437306 19.9193
0.722002 0.708695 19.9395
0.614544 0.394308 19.5413
1.85342 1.25405 20.2224
1.3131 0.371716 20.9662
1.08054 0.919882 20.7893
1.85382 0.423023 21.5683
0.673991 -0.000223374 21.6416
0.71156 0.425314 21.7136
0.327456 -0.0674467 22.01
-0.188093 -0.214514 21.6437
-0.101415 -0.233984 21.6851
-0.59315 -0.583734 21.5518
-0.611943 -0.419522 21.322
-0.353572 -0.483164 21.3009
-0.77104 -0.77578 21.3335
-0.667251 -0.470885 20.9313
-0.399004 -0.615141 21.3032
-0.605738 -0.365412 20.6126
-1.4875 -0.952454 19.4469
-0.788821 -0.842063 21.7411
-0.0726404 -0.107815 21.2338
0.336363 0.484467 20.8712
0.94817 1.11506 19.9687
1.06693 0.766483 20.5645
-2.0792 -0.238481 18.9298
-1.49712 -0.863135 22.0259
-0.0431244 -0.318753 19.4241
0.566296 0.546934 18.1179
1.65668 0.39311 17.2866
1.75679 0.236112 16.3513
-1.24994 0.866897 19.5095
-1.91757 0.825433 20.9748
-1.09584 0.0878063 21.9936
0.270055 -0.315917 21.8519
0.701997 -0.728945 21.2883
0.599326 -0.788927 20.5941
-0.02234 -3.02487 17.3176
-0.00309454 -0.358804 14.4212
-0.00617077 -0.16756 11.8741
-0.0296303 0.14892 10.6987
-0.362922 0.481103 8.92064
-0.246083 1.06376 11.3318
-0.0171485 -0.589786 14.4776
0.538525 -0.628153 -2.18971
-0.152959 -0.558436 1.63032
0.0148077 2.29162 18.2146
0.0215481 3.44262 20.1714
-0.00466319 1.61397 17.2028
0.000492423 -0.85088 12.8866
-0.0508894 -1.21249 14.8206
0.0622413 -1.40127 16.9299
1.49346 -0.971477 19.4217
0.787837 -0.84841 21.7421
0.0710705 -0.104621 21.1837
-0.331821 0.478197 20.755
-0.919148 0.996628 19.9778
-0.945279 0.864962 21.3981
2.08542 -0.23992 18.9132
1.49519 -0.86617 22.0208
0.0426246 -0.32142 19.4326
-0.56093 0.539804 18.1626
-1.51393 0.375407 17.8633
-1.56147 0.18485 19.1164
1.24264 0.855079 19.5273
1.90125 0.804167 20.9775
1.09434 0.0909414 21.9935
-0.280089 -0.310585 21.8457
-0.708648 -0.675734 21.2926
-0.813736 -0.792522 20.8545
-1.37524 -0.439353 1.70113
-0.0247147 -0.104553 0.568485
-0.0211691 -0.0015428 0.387814
-0.027909 -0.00477783 -0.00583636
-0.0269018 0.0153773 0.0742456
-0.010532 0.0115159 0.114587
-0.619219 0.191863 0.731836
-0.0629347 0.355934 0.875078
-0.257358 -0.0611633 0.933462
0.00551445 -0.0147203 0.0632332
-0.056711 0.0147978 -0.0185517
0.0872496 0.0147124 0.410573
0.0250466 -0.10457 0.568074
1.36789 -0.438374 1.69287
0.0213405 -0.00155286 0.390436
0.0170982 0.00772011 0.0596095
0.0412388 -0.00212293 -0.0137716
0.00977348 0.0115064 0.116369
0.0625147 0.35606 0.876376
0.44786 0.138465 0.528656
0.257842 -0.060916 0.936457
0.013388 0.0356131 -0.048034
-0.00174033 -0.00607593 0.0540988
-0.0913194 0.0189791 0.401232
-0.00556085 -0.00276537 0.446765
-0.00738068 0.00368759 0.391159
0.000109034 0.00329094 0.0393382
7.05314e-05 -2.02238e-05 0.00375333
-0.00895926 0.00713795 0.191449
0.00662359 -0.00463035 0.418067
-0.00229647 0.00204871 0.0123445
0.000336575 -0.000381827 0.0132219
-0.0485396 -0.0523214 0.186704
0.000409885 0.00278541 0.0130252
0.0138015 0.0468862 0.136981
-0.0819297 0.0808374 0.250685
0.0148838 0.0344859 0.134549
0.00475972 0.0236622 0.0881815
0.00566191 0.0142472 0.0428181
0.0809016 0.015666 0.221464
0.00542607 -0.00276184 0.446527
-7.35833e-05 -2.01841e-05 0.00375574
0.0071419 0.003629 0.390944
-0.000111821 0.00329323 0.039523
0.00846728 0.00703043 0.190878
-0.000378203 -0.000380185 0.0131579
-0.00714695 -0.00473373 0.417973
0.00221121 0.00197235 0.0119029
0.0484626 -0.0524454 0.186588
0.0808865 0.0804624 0.248344
-0.000433081 0.00294201 0.0137935
-0.0141161 0.0464805 0.138535
-0.0153396 0.036255 0.137908
-0.0816351 0.0159644 0.221897
-0.00484369 0.0238744 0.0882028
-0.00564058 0.0142862 0.0425647
0 0 0
-0.133179 -0.0619504 0.0601075
0 0 0
-0.000106954 -0.145505 0.0322116
-2.38328e-05 3.47474e-05 0.000711906
1.32959e-07 -4.03761e-08 5.54171e-06
0.00747873 0.00332036 0.0836714
-0.0739231 0.0517849 -0.0250344
-4.89654e-06 1.43772e-05 0.000161826
-0.00435379 -0.00274288 -0.00132599
0.0108628 0.0115526 0.319716
-0.000588277 0.000581949 0.0282261
0.0213502 0.364436 0.126194
-1.24235e-06 0.00155735 0.0092081
0.00966436 -0.0657749 0.238256
-0.010396 0.0018499 0.0231579
-0.00062983 0.00196098 -0.000345353
0 0 0
0 0 0
-0.00053867 -0.00156428 0.00544401
0.129597 -0.0604842 0.0585085
0 0 0
-1.16967e-07 -3.49584e-08 4.80063e-06
6.19733e-05 8.98418e-05 0.00185377
0.0636483 0.0954323 -0.0465609
-0.00681493 0.00334464 0.0764629
0.000295657 0.000575412 0.0280059
-0.010855 0.0120599 0.319326
0.0101851 0.00181771 0.0227447
-0.00959271 -0.0661769 0.239277
0.000386926 -0.00146388 0.00515978
0 0 0
0 0 0
0.00026816 -0.000607099 0.0208968
8.88654e-05 -0.000119976 0.00263113
-7.9417e-06 0.00427365 0.0299012
-8.26036e-06 -0.00034921 0.0167928
3.0414e-08 9.92102e-08 -3.98516e-05
-2.07804e-05 0.000596933 0.00301506
5.37253e-05 0.00240289 0.0210439
9.86222e-08 1.65672e-07 -6.95062e-05