# vtk DataFile Version 2.0
tri_press
ASCII
DATASET UNSTRUCTURED_GRID
POINTS 3682 float
-0.765444 0.255 -2.385
-0.655 0.285 2.53167
-0.755 0.82849 -2.335
-0.725 1.00882 2.385
0.765444 0.255 -2.385
0.655 0.285 2.53167
0.755 0.82849 -2.335
0.725 1.00879 2.385
-0.764417 0.229212 -0.74611
-0.750657 0.216158 0.89278
-0.81279 0.95639 -0.761667
-0.79332 1.00703 0.811667
0.764417 0.229212 -0.74611
0.750657 0.216158 0.89278
0.812783 0.956373 -0.761667
0.793339 1.00703 0.811667
-1.55012 -0.133856 -3.65762
-1.54645 -0.10096 -2.37276
-1.54057 -0.122713 -0.732175
-1.51092 -0.144881 0.921604
-1.44485 -0.105571 2.5633
-1.42616 -0.0711177 3.8536
-1.42989 -0.0428738 5.13382
-1.54868 0.196911 -3.65618
-1.54833 0.246621 -2.37849
-1.54837 0.24315 -0.75066
-1.51083 0.228346 0.88307
-1.4209 0.26803 2.51216
-1.40791 0.301585 3.80153
-1.41899 0.329057 5.08389
-1.54515 0.827707 -3.63492
-1.54977 0.875278 -2.35451
-1.58157 0.963807 -0.771377
-1.54802 0.99881 0.807117
-1.46918 1.01064 2.39151
-1.43383 1.04148 3.6836
-1.42944 1.07108 4.97653
-1.54135 1.86581 -3.65232
-1.54582 1.92611 -2.38173
-1.55929 2.02726 -0.819845
-1.55669 2.1047 0.727909
-1.52931 2.14256 2.29048
-1.5006 2.16461 3.5625
-1.4786 2.18822 4.84827
-0.777406 -0.129481 -3.66185
-0.770686 -0.0938529 -2.37893
-0.768299 -0.128963 -0.731347
-0.761358 -0.153834 0.929891
-0.71471 -0.0986835 2.57779
-0.695221 -0.0661092 3.86343
-0.69498 -0.0406772 5.13951
-0.775571 0.195713 -3.65749
-0.671089 0.307588 3.80964
-0.682591 0.331488 5.08818
-0.770345 0.808104 -3.62681
-0.691083 1.04267 3.68229
-0.687911 1.0722 4.97625
-0.762611 1.85206 -3.6443
-0.763252 1.91297 -2.3729
-0.778457 2.02372 -0.814522
-0.787682 2.10793 0.72727
-0.773731 2.14503 2.28592
-0.749475 2.16581 3.55794
-0.728694 2.189 4.84496
0.761392 -0.129484 -3.66184
0.765001 -0.0938541 -2.37893
0.761562 -0.128964 -0.731347
0.732653 -0.153835 0.929892
0.67428 -0.0986856 2.57779
0.717427 -0.0661155 3.86343
0.750905 -0.0406852 5.13951
0.760428 0.195711 -3.65749
0.728759 0.307579 3.80964
0.760351 0.331478 5.08818
0.763089 0.808102 -3.62681
0.752688 1.04265 3.68229
0.771451 1.07219 4.97625
0.790187 1.85205 -3.6443
0.797083 1.91296 -2.3729
0.790532 2.02371 -0.814522
0.764735 2.10792 0.72727
0.746125 2.14501 2.28592
0.752844 2.1658 3.55794
0.767268 2.18899 4.84496
1.53359 -0.133862 -3.65762
1.53816 -0.100965 -2.37276
1.53358 -0.122718 -0.732175
1.49382 -0.144887 0.921604
1.42693 -0.105581 2.5633
1.44641 -0.0711317 3.8536
1.48064 -0.0428903 5.13382
1.53447 0.196905 -3.65618
1.5434 0.246615 -2.37849
1.54683 0.243143 -0.75066
1.51107 0.22834 0.88307
1.42706 0.268015 2.51216
1.45194 0.301567 3.80153
1.48763 0.329038 5.08389
1.53993 0.8277 -3.63492
1.54998 0.875268 -2.35451
1.5829 0.963789 -0.771377
1.55008 0.998798 0.807117
1.47794 1.0106 2.39151
1.48247 1.04145 3.6836
1.50403 1.07106 4.97653
1.565 1.86579 -3.65231
1.57299 1.9261 -2.38173
1.56947 2.02724 -0.819845
1.54087 2.10468 0.727908
1.5117 2.14254 2.29048
1.50857 2.16459 3.5625
1.51764 2.1882 4.84827
-0.802168 0.541745 -2.40195
0 0.248438 -2.39156
-0.770671 0.236365 -1.56556
-0.73961 0.64691 2.50794
0 0.291504 2.52517
-0.738565 0.214842 1.71223
0 0.911536 -2.41805
-0.814534 0.923079 -1.54833
0 1.06386 2.44005
-0.788359 1.03712 1.59833
0.802174 0.541745 -2.40195
0.770694 0.236343 -1.56556
0.739491 0.646895 2.50783
0.738565 0.214842 1.71223
0.814498 0.923038 -1.54833
0.788343 1.03708 1.59833
-0.757367 0.222855 0.0733351
-0.851772 0.592801 -0.753888
-6.98057e-08 0.228417 -0.74611
-0.863729 0.611594 0.852224
3.68785e-08 0.212723 0.89278
-0.799765 0.97842 0.025
-3.35858e-06 1.37073 -0.761667
9.19328e-06 1.49282 0.811667
0.757367 0.222855 0.0733351
0.851771 0.592793 -0.753888
0.864065 0.611593 0.852224
0.799775 0.978415 0.025
-0.89401 0.567273 -1.55694
0.894015 0.567269 -1.55694
-3.49029e-08 0.237912 -1.56556
-1.67929e-06 1.05466 -1.54833
0 0.541745 -2.6251
-0.854561 0.602198 0.0491675
0.854559 0.602193 0.0491675
-1.64636e-08 0.220273 0.0733351
2.91735e-06 1.527 0.025
-0.892367 0.629252 1.65528
0.892316 0.629244 1.65528
1.84392e-08 0.212428 1.71223
4.59664e-06 1.28785 1.59833
0 0.646903 2.63319
-0.791659 0.398373 -2.40133
-0.382722 0.248518 -2.39148
-0.775615 0.238125 -1.97528
-0.705111 0.465955 2.52761
-0.3275 0.293754 2.52292
-0.697777 0.248927 2.12195
-0.791303 0.685118 -2.38119
-0.3775 0.894249 -2.40076
-0.797787 0.888804 -1.94167
-0.719831 0.827865 2.434
-0.3625 1.05603 2.43222
-0.779994 1.04629 1.99167
0.382722 0.248516 -2.39148
0.791686 0.398373 -2.40135
0.775636 0.238104 -1.97528
0.3275 0.293819 2.52285
0.705109 0.465948 2.52761
0.69777 0.248933 2.12195
0.3775 0.894279 -2.40079
0.790692 0.685118 -2.38058
0.797799 0.888814 -1.94167
0.3625 1.05603 2.43223
0.719849 0.827843 2.43402
0.779884 1.04615 1.99167
-0.769403 0.23093 -1.15583
-0.758479 0.228447 -0.336388
-0.843473 0.393317 -0.749999
-0.382412 0.228408 -0.74611
-0.744038 0.216073 1.3025
-0.751566 0.221953 0.483058
-0.87711 0.378918 0.872502
-0.375091 0.214915 0.89278
-0.817649 0.943721 -1.155
-0.845177 0.781044 -0.757778
-0.806676 0.967803 -0.368333
-0.490991 1.33275 -0.761667
-0.788961 1.0202 1.205
-0.8448 0.81745 0.831945
-0.796701 0.992883 0.418333
-0.501395 1.4594 0.811667
0.769403 0.23093 -1.15583
0.382412 0.228408 -0.74611
0.758479 0.228447 -0.336388
0.843477 0.393311 -0.749999
0.744038 0.216073 1.3025
0.375091 0.214914 0.89278
0.751566 0.221953 0.483058
0.877108 0.379002 0.872502
0.817645 0.94371 -1.155
0.490959 1.33269 -0.761667
0.845195 0.781042 -0.757778
0.806645 0.96776 -0.368333
0.78896 1.02018 1.205
0.501436 1.45945 0.811667
0.844804 0.817362 0.831945
0.796707 0.992872 0.418333
-0.879057 0.554509 -1.97944
-0.401084 0.541745 -2.58489
-1.74514e-08 0.241642 -1.97856
0 0.395091 -2.58731
-0.87679 0.401819 -1.56125
-0.385336 0.237924 -1.56556
-0.853095 0.638081 2.08161
-0.369805 0.646906 2.61354
9.21962e-09 0.244851 2.1187
0 0.469203 2.57974
-0.892847 0.422047 1.68375
-0.369282 0.212419 1.71223
-8.39644e-07 1.01012 -1.98319
0 0.726641 -2.56977
-0.88234 0.745176 -1.55264
-0.407268 1.04175 -1.54833
2.29832e-06 1.13145 2.01919
0 0.85538 2.51278
-0.839542 0.833188 1.62681
-0.394177 1.27682 1.59833
0.879047 0.554507 -1.97945
0.401087 0.541745 -2.58489
0.876828 0.401806 -1.56125
0.385347 0.237924 -1.56556
0.853011 0.63807 2.08155
0.369746 0.646899 2.61308
0.89286 0.422043 1.68375
0.369283 0.212419 1.71223
0.882257 0.745153 -1.55264
0.407248 1.04175 -1.54833
0.83955 0.833164 1.62681
0.394174 1.27687 1.59833
-0.84136 0.394829 0.0612513
-0.378868 0.221195 0.0733351
-0.850411 0.580037 -1.15542
-0.852976 0.597499 -0.35236
-5.23543e-08 0.229973 -1.15583
-4.31347e-08 0.22758 -0.336388
-0.858219 0.606896 0.450696
-0.888146 0.620423 1.25375
1.02074e-08 0.21986 0.483058
2.76589e-08 0.213054 1.3025
-0.840049 0.796752 0.0370837
-0.51616 1.48527 0.025
-2.51893e-06 1.17683 -1.155
-2.20612e-07 1.48911 -0.368333
6.05532e-06 1.52079 0.418333
6.89496e-06 1.42233 1.205
0.841362 0.394824 0.0612513
0.378868 0.221195 0.0733351
0.850408 0.580031 -1.15542
0.852975 0.597493 -0.35236
0.85822 0.606893 0.450696
0.888146 0.620419 1.25375
0.84006 0.79675 0.0370837
0.51617 1.48527 0.025
-0.862159 0.400096 -1.97736
-0.845475 0.406413 -1.15562
-0.848928 0.759886 -1.15521
-0.883202 0.715147 -1.96056
0.862147 0.400089 -1.97736
0.883202 0.715135 -1.96056
0.848924 0.759868 -1.15521
0.845476 0.406404 -1.15562
-0.384029 0.241674 -1.97692
0.384034 0.241674 -1.97692
0.383778 0.22997 -1.15583
-0.383772 0.22997 -1.15583
-0.392384 0.997144 -1.96243
-0.406832 1.15157 -1.155
0.406819 1.15157 -1.155
0.392374 0.997142 -1.96243
-0.391903 0.396732 -2.54375
-0.389292 0.705879 -2.53663
0.389293 0.705879 -2.53647
0.391904 0.396732 -2.54381
-0.841362 0.3946 -0.344374
-0.843824 0.394578 0.466877
-0.843091 0.807434 0.434514
-0.842342 0.788762 -0.360347
0.841366 0.394595 -0.344374
0.842331 0.788748 -0.360347
0.8431 0.807391 0.434514
0.843809 0.394626 0.466877
-0.379445 0.227192 -0.336388
0.379445 0.227192 -0.336388
0.375724 0.220566 0.483058
-0.375724 0.220566 0.483058
-0.521257 1.44437 -0.368333
-0.515201 1.48518 0.418333
0.515212 1.48518 0.418333
0.521254 1.44436 -0.368333
-0.883435 0.417962 1.27813
-0.841259 0.444001 2.10178
-0.832246 0.830526 2.03664
-0.857168 0.82125 1.22938
0.883443 0.417959 1.27813
0.857237 0.821237 1.22938
0.832204 0.830503 2.03661
0.841273 0.443995 2.10175
-0.372305 0.21305 1.3025
0.372305 0.21305 1.3025
0.348391 0.245775 2.12032
-0.348391 0.245774 2.12032
-0.395416 1.40045 1.205
-0.378338 1.12292 2.00543
0.378337 1.12292 2.00543
0.395424 1.40044 1.205
-0.348652 0.467579 2.60603
0.348623 0.467575 2.60597
0.366123 0.841611 2.49734
-0.366152 0.841622 2.49732
-0.783386 0.326686 -2.398
-0.574083 0.248403 -2.3916
-0.778059 0.239033 -2.18014
-0.666248 0.375478 2.51583
-0.49125 0.317701 2.49897
-0.670465 0.272887 2.32681
-0.775735 0.756804 -2.36068
-0.56625 0.856709 -2.36322
-0.784693 0.866947 -2.13833
-0.733049 0.918343 2.42013
-0.54375 1.04935 2.42553
-0.763182 1.03824 2.18833
0.574083 0.248501 -2.3915
0.783368 0.326686 -2.39798
0.778069 0.239023 -2.18014
0.49125 0.315041 2.50163
0.666252 0.375474 2.51584
0.67048 0.272872 2.32681
0.56625 0.856691 -2.3632
0.77576 0.756804 -2.3607
0.784692 0.866944 -2.13833
0.54375 1.04925 2.42546
0.732959 0.918316 2.42004
0.763189 1.03822 2.18833
-0.766645 0.230336 -0.950971
-0.761448 0.228829 -0.541249
-0.833147 0.296664 -0.748055
-0.573503 0.228633 -0.74611
-0.746783 0.21668 1.09764
-0.748583 0.221584 0.687919
-0.880414 0.264273 0.882641
-0.562939 0.215406 0.89278
-0.815732 0.950568 -0.958334
-0.832537 0.870493 -0.759722
-0.809744 0.962108 -0.565
-0.692468 1.22572 -0.761667
-0.782084 1.00456 1.00833
-0.819518 0.912469 0.821806
-0.794992 0.999938 0.615
-0.662147 1.2628 0.811667
0.766645 0.230336 -0.950971
0.573439 0.228761 -0.74611
0.761448 0.228829 -0.541249
0.833143 0.296664 -0.748055
0.746783 0.21668 1.09764
0.562939 0.215405 0.89278
0.748583 0.221584 0.687919
0.88043 0.264306 0.882641
0.815679 0.950506 -0.958334
0.692476 1.22574 -0.761667
0.832548 0.870487 -0.759722
0.809733 0.962086 -0.565
0.780686 1.00314 1.00833
[...]
POINT_DATA 3682
SCALARS point_scalars float 1
LOOKUP_TABLE default
-118.929
-40.2693
-87.3937
-40.667
-118.877
-37.8263
-87.4768
-39.299
-35.3453
-36.3823
-52.8852
-44.1791
-35.3049
-36.2367
-52.8056
-44.14
16.2444
-95.3352
-35.0146
-38.6263
-43.9695
-38.9735
-34.9757
16.2444
-119.325
-35.6226
-37.1448
-43.6105
-37.9406
-34.5072
67.7556
-87.0191
-46.1753
-40.6622
-45.1321
-36.7547
-34.9293
-76.0988
-72.5665
-91.8375
-54.5652
-42.2072
-41.0118
-37.4433
83.1077
-134.444
-34.6896
-37.889
-41.9758
-35.0893
-33.1691
83.1077
-33.8194
-33.4596
165.566
-33.9787
-33.3175
14.6776
-54.2431
-76.0835
-60.8747
-39.3652
-35.8235
-34.5813
82.5574
-134.389
-34.6352
-37.463
-39.1027
-33.0161
-29.9817
82.5574
-31.4549
-30.2589
166.228
-32.1588
-31.2888
13.5368
-55.3285
-77.924
-60.8126
-38.7541
-34.5749
-33.5314
15.6874
-95.1398
-34.9646
-38.3871
-41.7851
-36.6664
-32.969
15.6874
-119.171
-35.5677
-36.9347
-41.6923
-35.8758
-33.502
69.9861
-87.0839
-46.113
-40.5293
-43.7387
-34.9725
-33.2207
-76.2012
-72.4835
-91.6625
-54.4724
-41.2384
-39.5999
-36.0311
-72.961
-124.264
-46.7552
-37.5418
-34.3088
-45.9855
-62.2402
-47.2262
-34.4242
-45.9629
-72.8491
-46.7349
-35.7164
-45.3803
-47.2475
-45.6049
-31.9138
-38.482
-35.4579
-35.3987
-36.4427
-46.4422
-28.7745
-63.287
-31.8505
-38.4243
-35.1975
-46.4045
-51.961
-51.9235
-49.6144
-5.59455
202.664
-36.7651
-36.6795
-33.14
-82.8332
-47.6336
-46.9903
-43.0868
-44.5557
-29.592
-66.9759
-132.762
-66.5032
-37.2317
-37.1343
-43.4802
-91.9597
-79.0529
-56.9104
-38.1923
-35.1084
-46.1619
-132.756
-66.9524
-66.467
-34.7871
-35.2258
-42.2349
-78.8322
-92.6863
-56.9116
-34.317
-36.5492
-45.5868
-36.3246
-32.7898
-36.1271
-35.2759
-40.0171
-32.5617
-32.5874
-36.1634
-50.7986
-44.0365
-49.6408
-43.9973
-45.8407
-40.3806
-44.9661
-61.0203
-36.3086
-35.2567
-32.7388
-36.0714
-39.7238
-36.0791
-32.4671
-32.3887
-50.6166
-43.9172
-43.9734
-49.595
-45.6229
-60.9653
-40.2363
-44.9226
-74.5532
185.614
-72.0038
167.814
-49.7807
-49.0874
-45.5398
-33.2264
-40.59
-28.3615
-50.1536
-43.7514
-35.6094
161.981
-53.8681
-12.7696
-38.6714
-32.4008
-45.0453
-45.8861
-74.5108
185.744
-49.7459
-49.0739
-44.3312
-31.1838
-49.4597
-43.3833
-53.7552
-12.7344
-44.518
-45.7701
-33.9156
-32.9596
-39.4285
-38.0536
-39.4671
-33.3789
-35.9231
-43.0291
-34.5264
-39.5656
-40.8614
-68.957
20.1865
-86.0995
-71.9083
-53.808
-33.8273
-32.9263
-39.382
-37.9857
-35.7969
-42.6499
-40.7923
-68.8815
-71.4849
-37.9229
-42.6601
-75.5682
-71.4352
-75.5126
-42.6117
-37.8776
-71.1871
-71.1689
-39.1424
-39.155
-37.5195
12.0483
12.0786
-37.5099
157.213
141.499
141.721
157.122
-35.391
-33.212
-39.8771
-42.9546
-35.3234
-42.8949
-39.7737
-33.0794
-33.2614
-33.2347
-34.188
-34.237
-80.2798
-63.2216
-63.1714
-80.2218
-41.7784
-45.7375
-45.084
-44.7804
-41.4053
-44.412
-44.0823
-44.4312
-39.7397
-39.6277
-40.7506
-41.5917
-54.4523
-39.6393
-39.3921
-54.3838
-32.4142
-29.2239
-32.2613
-33.6292
-89.6357
-137.285
-93.0707
-38.0447
-38.4937
-41.7159
-83.9633
-77.4256
-70.2452
-40.0978
-36.3263
-42.5634
-137.188
-90.2174
-93.0157
-36.1057
-35.7922
-40.0066
-76.8761
-83.8786
-70.2383
-35.1646
-38.5011
-41.7603
-34.7975
-33.5716
-35.4393
-34.9495
-40.0894
-32.5132
-31.4899
-36.1433
-53.8612
-47.8746
-51.3211
-80.6564
-47.1751
-41.4709
-44.6139
-51.3013
-34.7599
-34.9219
-33.5263
-35.3866
-39.8829
-36.023
-32.3966
-30.7668
-53.7787
-80.5899
-47.8028
-51.2455
-46.3964
-51.2104
-41.3792
-44.561
-64.322
-72.4668
-101.83
141.698
-126.841
-126.811
-91.1641
100.546
-54.5763
-42.0784
-48.1023
-48.0631
-37.7558
-37.6821
-44.4458
-34.1769
-35.5158
-34.0283
-37.4763
-29.4381
-46.1337
-41.2943
-52.764
-44.4664
-68.5641
-68.5053
-51.0103
90.5746
-53.904
-43.7956
-51.116
-23.4658
-34.6803
-34.3248
-36.7255
-33.2379
-45.7163
-45.9878
-44.699
-49.0611
-64.265
-72.2346
-101.809
141.696
-54.5467
-42.0521
-48.0721
-48.0468
-35.7274
-36.0896
-42.7814
-32.5351
-45.2785
-40.89
-51.9748
-43.9698
-53.7706
-43.7343
-51.13
-23.396
-45.2972
-45.7024
-44.24
-48.9203
-32.0966
-32.5555
-32.6295
-32.634
-36.9954
-40.6513
-38.388
-38.4412
-35.429
-35.4193
-37.2502
-34.2145
-33.5907
-37.7777
-35.4712
-42.142
-36.4118
-36.3682
-35.0066
-38.197
-48.1177
-45.4311
-43.6831
-56.4121
-31.0345
-31.054
4.16395
-66.974
-62.5928
-62.5519
-66.5896
-58.9533
-32.0396
-32.4787
-32.5463
-32.5868
-36.9384
-40.593
-38.3362
-38.3803
-33.3777
-37.5858
-35.312
-41.8245
-47.9791
-45.4009
-43.6384
-56.2961
-58.8857
-50.9762
-53.1019
-46.6998
-58.8504
-50.9391
-53.0558
-46.6566
-58.8041
-49.5443
-49.5362
-43.3131
-22.3669
-7.22326
-7.20966
8.73832
201.148
186.394
188.704
201.211
-35.0204
-37.4732
-36.3674
-38.5217
-34.9318
-37.3944
-36.2661
-38.4401
-33.1009
-32.7939
-34.1304
-33.0838
-80.2119
-85.3381
-77.58
-80.1756
-45.9334
-48.2939
-46.8892
-44.35
-45.0551
-47.6478
-46.2931
-43.8655
-43.4236
-43.3145
-43.1157
-41.1034
-41.194
-44.819
-44.7645
-48.7624
-31.2544
-28.5703
-32.4471
-29.4539
-108.072
115.149
-92.3923
58.0735
-69.2448
-69.2538
-43.723
-34.3869
-39.1977
-33.9032
-44.7104
-42.0383
-81.1902
102.027
-53.617
64.63
-65.8685
-40.9303
-45.4758
-34.5389
-37.3636
-34.0025
-44.6322
-41.3855
-92.3755
57.9026
-108.066
115.242
-69.1982
-69.2245
-37.856
-31.0865
-41.9533
-32.1505
-43.4408
-40.9677
-53.5484
65.3084
-81.3466
102.519
-65.8494
-40.9284
-36.9686
-32.9003
-44.0329
-32.9848
-43.8195
-41.0624
-37.4662
-38.4093
-34.4148
-33.0683
-36.5154
-35.8275
-37.0619
-34.0716
-40.2347
-39.8842
-32.1877
-33.7385
-31.4068
-44.2057
-34.7628
-38.2864
-46.2179
-7.59657
-43.1794
-43.6805
-45.8076
-63.4718
-6.94701
-73.196
-45.0351
-54.6008
-39.7538
-42.5882
-42.2997
-52.5119
-60.8419
-58.4857
-37.424
-38.3927
-37.0465
-34.0484
-34.3491
-33.027
-36.4631
-35.7665
-39.8741
-39.6554
-34.6994
-38.1714
-32.0599
-33.6672
-31.242
-43.8934
-46.1658
-7.24931
-6.88403
-73.1882
-43.1209
-43.6205
-45.8406
-63.368
-44.6972
-54.486
-60.7825
-58.4233
-39.628
-42.2957
-42.226
-52.4405
-73.1185
-74.8592
169.03
161.099
-71.897
-71.8854
162.903
162.999
-56.604
-48.0687
-58.0703
-42.9143
-45.5481
-45.3323
-32.0958
-33.8345
-40.5144
-40.9821
-30.5109
-27.8427
-42.8194
-46.1364
-41.4109
-44.1302
-36.0704
-36.0584
159.775
159.953
-45.6297
-60.0891
-26.5632
0.668448
-38.9089
-38.7749
-32.0698
-32.8885
-44.2344
-46.5177
-49.9554
-42.3826
-73.0724
-74.83
161.203
169.087
-56.5645
-48.0177
-58.0533
-42.9018
-44.2125
-44.2907
-28.9143
-32.5862
-42.3681
-45.1901
-41.118
-43.5716
-60.051
-45.5947
0.705504
-26.5465
-46.0647
-43.5237
-42.2191
-49.8598
-34.6668
-33.945
-32.6817
-33.8528
-38.7371
-40.8191
-36.2359
-40.1752
-39.4108
-39.418
-33.3346
-33.3217
-34.198
-37.5677
-42.4465
-43.3605
-34.4443
-34.4693
-39.6835
-39.5971
-40.2327
-41.9784
-73.838
-65.6653
18.1052
18.3097
-84.2118
-84.1619
-70.0978
-70.0656
-53.8924
-53.8572
-34.5899
-33.8408
-32.652
-33.8138
-40.7724
-38.6905
-36.1684
-40.1091
-37.4492
-34.0653
-42.0665
-42.9826
-41.8907
-40.1514
-65.5562
-73.7219
-100.99
-55.2528
-57.7814
-106.64
-36.0414
-37.1395
-47.3677
-48.6815
-47.7418
-45.6367
-46.0072
-40.2902
-74.7219
-92.5993
-59.2347
-58.3293
-100.962
-106.63
-57.7427
-55.2166
-74.8134
-58.2575
-59.2058
-92.6414
-47.6734
-40.2364
-45.9668
-45.5838
-35.9779
-48.6306
-47.3182
-37.0879
-93.4262
-91.605
-58.699
-56.5755
-93.4212
-56.5481
-58.6886
-91.5905
-36.4911
-37.2425
-43.248
-42.1241
-36.5139
-42.1409
-43.2554
-37.2503
-58.6188
-34.4059
-23.365
-51.8165
-66.477
1.23811
6.53301
-15.0272
-66.4005
-14.9729
6.54894
1.31376
-58.5922
-51.7963
-23.3549
-34.4667
79.6658
122.66
181.139
101.085
46.014
87.7425
182.88
125.983
46.6292
126.027
182.971
87.7903
79.202
100.338
181.207
122.702
-34.941
-33.752
-35.6595
-36.6685
-30.0981
-33.0365
-34.7337
-32.7219
-42.1392
-42.7257
-37.9815
-37.3205
-47.0996
-40.6069
-39.5059
-44.8573
-34.8825
-36.6066
-35.5813
-33.6762
-47.0348
-44.7146
-39.427
-40.5471
-42.0465
-37.1707
-37.8874
-42.6708
-29.9441
-32.6193
-34.6294
-32.8685
-33.8391
-34.194
-32.7752
-32.4175
-33.8034
-32.374
-32.7599
-34.1824
-34.169
-34.9149
-34.0555
-33.3844
-34.26
-33.4403
-34.0755
-34.9477
-70.2091
-59.2919
-82.6422
-65.4029
-51.5379
-65.5898
-75.8803
-54.0969
-51.4755
-54.0055
-75.8411
-65.5526
-70.1179
-65.409
-82.6236
-59.1754
-45.1613
-41.327
-43.6091
-43.0883
-43.4498
-44.0496
-46.4723
-45.6064
-44.6473
-44.0994
-44.7471
-45.3971
-44.8657
-41.2178
-45.8789
-45.3517
-44.8752
-42.7844
-43.1177
-40.8601
-44.7984
-44.9745
-45.3972
-40.929
-43.4356
-43.6062
-43.9536
-43.5044
-41.6794
-44.6916
-45.5276
-42.3379
-38.2173
-38.2039
-41.2181
-41.6009
-38.0538
-41.2722
-41.0413
-38.1454
-39.2486
-37.3698
-43.3645
-44.0624
-40.9547
-44.7861
-43.6718
-38.1342
-51.6955
-52.9763
-49.0293
-58.8436
-38.5623
-36.9191
-41.5047
-45.017
-38.0338
-44.8064
-41.4195
-36.7181
-51.5664
-58.81
-48.9889
-52.8647
-35.8544
-31.6652
-30.4983
-34.0735
-33.5826
-31.9522
-28.0728
-29.2691
-33.3388
-32.9551
-32.2288
-33.38
-34.7746
-34.6455
-33.0368
-33.5224
-101.337
-147.643
-122.247
-39.5597
-38.539
-41.5006
-91.9598
-76.0428
-87.7443
-40.7834
-37.7608
-42.4822
-147.563
-101.414
-122.114
-36.1774
-37.1904
-39.315
-76.1413
-91.9847
-87.7208
-36.4473
-39.2643
-41.3946
-35.3711
-33.9421
-35.1358
-34.7971
-38.7785
-32.8464
-35.4818
-36.2015
-53.5657
-50.2179
-52.013
-63.031
-48.9055
-41.7398
-44.5307
-48.3545
-35.3308
-34.7637
-33.9012
-35.0873
-38.5975
-36.0662
-32.718
-35.3989
-53.4851
-62.9546
-50.1408
-51.9327
-49.1607
-48.2551
-41.6783
-44.4738
-68.6011
-71.9982
-98.7262
67.8143
-124.275
-124.262
-105.881
-97.8062
-49.3871
-44.5282
-46.9521
-47.3561
-37.8392
-37.7622
-41.989
-35.0632
-34.8202
-34.0298
-35.9543
-32.0163
-46.9659
-43.4171
-52.497
-45.1449
-63.0494
-63.0597
-55.5179
-18.3984
-50.9432
-44.6281
-50.4965
-34.9573
-34.5518
-34.3832
-35.5607
-33.6734
-45.3638
-46.0644
-44.9437
-49.6968
-68.5209
-71.819
-98.8339
67.8453
-49.3679
-44.5078
-46.9277
-47.3379
-35.9353
-36.0784
-40.1898
-33.3717
-46.2316
-42.9262
-51.753
-44.5968
-50.9565
-44.5866
-50.4378
-34.9115
-44.9701
-45.7461
-44.522
-49.4986
-30.942
-32.6473
-32.0277
-32.3896
-37.582
-39.479
-38.4105
-38.5182
-35.4594
-35.4545
-36.2369
-34.8009
-34.8602
-36.1823
-35.4225
-38.538
-36.3784
-36.3563
-35.0852
-37.6004
-47.346
-45.731
-45.0672
-51.5002
-29.2954
-29.3255
-11.323
-47.1589
-63.1131
-63.0952
-64.7636
-61.0648
-30.8832
-32.577
-31.9519
-32.3356
-37.5247
-39.4212
-38.3551
-38.459
-34.6363
-35.997
-35.2282
-38.3306
-47.3058
-45.7
-45.0354
-51.4067
-53.9795
-51.5391
-52.3598
-52.8703
-53.9447
-51.5017
-52.3199
-52.8326
-53.7888
-49.6069
-49.6028
-46.1532
-13.5062
-5.9678
-5.96186
1.4528
205.395
199.643
200.408
205.425
-35.8638
-37.0964
-36.5628
-37.5791
-35.7758
-37.0153
-36.4709
-37.4956
-33.1449
-32.3352
-33.9327
-33.1363
-82.3819
-85.3161
-79.5149
-82.364
-47.6742
-47.6554
-47.1238
-44.73
-46.8905
-46.9862
-46.4973
-44.1847
-43.8874
-43.1351
-43.0338
-41.9881
-42.7792
-44.6311
-44.6023
-46.5107
-30.3877
-28.1411
-33.0559
-29.3998
-76.6142
-65.3407
-113.416
53.011
-131.291
-128.377
-109.635
-82.9814
-77.7626
-58.6139
-68.9204
-67.8627
-37.2481
-37.3811
-42.5961
-35.0605
-37.5333
-36.3381
-38.1287
-35.669
-42.9202
-44.4764
-44.1942
-42.0456
-74.2236
-78.5751
-91.8363
43.0747
-75.1954
-76.8907
-59.7067
-4.71501
-64.5398
-55.6169
-60.5173
-45.3116
-38.9781
-37.2289
-44.3282
-35.189
-35.653
-34.836
-36.1623
-34.4415
-43.8839
-45.457
-44.3904
-43.514
-131.235
-128.292
-109.614
-83.2563
-76.6512
-65.3168
-113.446
52.9105
-77.732
-58.5752
-68.8891
-67.8244
-35.0928
-34.3334
-36.3675
-33.0961
-35.1082
-35.2751
-40.4695
-33.0052
-41.4064
-43.4568
-42.9479
-40.9233
-74.9709
-76.7992
-59.6356
-5.40891
-73.7896
-78.5151
-91.8605
43.1096
-64.4691
-55.2689
-60.4843
-45.3022
-34.6394
-34.2688
-35.5989
-33.4348
-37.364
-35.6538
-42.709
-33.5878
-43.2419
-45.0521
-43.6644
-43.1552
-35.8331
-38.7821
-36.7453
-37.7214
-33.2169
-32.8468
-33.6485
-32.9797
-35.724
-36.584
-36.2905
-35.9984
-35.1402
-35.3824
-36.0276
-34.6373
-39.6925
-40.095
-39.7998
-39.8815
-32.6916
-32.6472
-31.708
-33.3449
-31.8306
-32.7244
-28.8518
-43.3788
-36.047
-36.2853
-34.9739
-37.4788
-54.2803
-45.0596
-48.8594
-34.6528
-45.7036
-42.2483
-43.8179
-43.94
-50.5135
-49.5067
-47.2594
-56.1755
-61.7262
-33.9079
-25.6872
-61.5211
-44.4466
-45.9994
-45.2443
-49.5593
-41.1406
-39.0093
-39.9964
-41.4785
-44.7516
-45.1224
-43.5136
-48.904
-54.3543
-61.9051
-61.0756
-60.5872
-35.8075
-38.7753
-36.691
-37.7
-35.116
-35.3681
-36.0099
-34.6163
-33.1687
-32.7924
-33.5878
-32.9347
-35.6695
-36.528
-36.2367
-35.9401
-39.4435
-39.754
-39.4651
-39.6231
-35.9442
-36.2203
-34.9011
-37.381
-32.5863
-32.5611
-31.5939
-33.2631
-31.6401
-32.5227
-28.6836
-43.0993
-54.2218
-45.0788
-48.796
-34.5288
-61.5938
-33.8632
-25.6486
-61.6374
-45.6378
-42.1882
-43.7557
-43.8778
-50.4484
-49.2431
-47.3488
-56.0633
-44.1352
-45.7475
-44.9497
-49.4176
-54.2667
-61.8529
-61.0077
-60.5279
-41.0223
-38.8342
-39.8595
-41.3063
-44.7034
-45.0854
-43.4591
-48.8387
-93.0103
-64.9929
-73.2895
-74.5155
167.221
196.373
180.513
176.926
-80.3486
-65.4956
-71.9528
-71.9476
167.031
170.649
164.347
164.386
-49.2694
-50.6727
-52.0913
-50.0643
-48.6426
-49.3947
-53.1956
-45.7304
-45.7897
-45.3372
-45.6551
-45.415
-33.9253
-32.0548
-32.4376
-33.9546
-39.0934
-42.0838
-40.5155
-40.7573
-28.3692
-28.2779
-29.3243
-27.8012
-51.5811
-49.0137
-44.4497
-49.4057
-44.0493
-43.4837
-42.4313
-44.6327
-43.5954
-29.5466
-35.7061
-35.6983
135.689
180.039
161.88
161.9
-52.9093
-54.1615
-49.3687
-56.2243
-17.8048
-9.31692
-19.6247
-6.04042
-37.69
-39.9231
-38.7484
-38.6845
-32.7733
-32.2329
-32.2273
-32.6329
-44.5496
-46.0496
-44.1211
-45.9851
-47.1413
-45.1665
-47.8474
-44.0816
-92.9606
-64.9555
-73.2455
-74.4779
167.282
196.455
177.07
180.595
-49.2351
-50.637
-52.051
-50.0346
-48.6277
-49.3834
-53.1806
-45.7177
-44.3282
-44.3268
-44.2481
-44.4163
-32.0993
-29.7806
-29.5782
-32.85
-50.7513
-48.3976
-43.8336
-48.5146
-43.6127
-43.1961
-42.1381
-44.176
-52.9418
-54.0991
-56.2613
-49.2873
-17.753
-9.29368
-6.0034
-19.5958
-44.0491
-45.4856
-45.4933
-43.5071
-47.0131
-45.0861
-43.9536
-47.757
-33.3432
-34.4257
-34.1731
-33.9994
-32.8442
-33.0429
-32.2897
-33.6659
-38.6105
-41.9123
-39.1497
-40.0144
-38.2762
-37.798
-37.0933
-39.023
-38.4695
-40.7623
-39.4452
-39.449
-33.7701
-33.0348
-33.3789
-33.3722
-35.6941
-36.1484
-35.0602
-36.6899
-42.8597
-43.6387
-42.7746
-43.3143
-34.7405
-34.3352
-34.5028
-34.5152
-38.9125
-40.3096
-39.5926
-39.5492
-42.2354
-39.6595
-40.4663
-41.4374
-61.7819
-76.1639
-71.0817
-67.2903
15.4319
16.326
19.446
19.3684
-83.8175
-86.3656
-85.2509
-85.2336
-68.8027
-75.2458
-71.4945
-71.4767
-56.4049
-51.3467
-53.8601
-53.8427
-33.2557
-34.3372
-34.0915
-33.9016
-32.8044
-33.0173
-32.2578
-33.6307
-38.5618
-41.8644
-39.9681
-39.103
-38.2125
-37.7242
-37.0261
-38.9552
-35.5526
-36.0353
-36.5673
-34.931
-42.5075
-43.2115
-42.3942
-42.9353
-42.1776
-39.5825
-41.3656
-40.3951
-61.6853
-76.1168
-67.2339
-70.9601
-87.4512
-70.4162
-72.2328
-62.3425
-37.5947
-36.8516
-42.3656
-38.3257
-44.2563
-43.0396
-43.6814
-41.6281
-83.2989
-73.0731
-75.5294
-65.4023
-87.3774
-70.367
-72.1857
-62.3031
-83.158
-72.9835
-75.4898
-65.3794
-44.2069
-42.9855
-43.642
-41.5812
-37.551
-36.8035
-42.315
-38.2792
-80.1947
-70.2882
-71.6692
-64.604
-80.1777
-70.2683
-71.6527
-64.5858
-38.8154
-38.1948
-40.3638
-39.3101
-38.8299
-38.1991
-40.3769
-39.3203
-45.2653
-39.5446
-36.9311
-32.9981
5.18831
6.93257
7.60864
15.3419
5.24885
6.95442
7.6722
15.349
-45.258
-39.5384
-36.919
-32.984
141.663
139.289
154.994
159.262
117.597
116.529
156.383
156.562
117.073
117.647
156.689
156.446
139.156
141.761
159.551
155.037
-34.8652
-35.6448
-35.0708
-35.9069
-32.5641
-32.8281
-33.8362
-33.6875
-39.8378
-41.1234
-38.6528
-39.9834
-43.3514
-44.3817
-41.5843
-42.6603
-34.7983
-35.5809
-34.9986
-35.8388
-43.2967
-44.34
-41.5221
-42.5766
-39.7237
-41.0324
-38.5405
-39.8909
-32.4325
-32.6786
-33.7202
-33.5529
-33.1672
-33.6242
-32.9437
-33.3327
-33.599
-33.1373
-33.3128
-32.9155
-34.4239
-33.9711
-34.3453
-33.9968
-34.0313
-34.4794
-34.0405
-34.3825
-75.7879
-77.6071
-75.3155
-81.3357
-56.4084
-61.8224
-65.9304
-68.1766
-61.7615
-56.3277
-68.1306
-65.8643
-77.5625
-75.6901
-81.2884
-75.2743
-41.2656
-41.5887
-42.0688
-42.1594
-45.1176
-45.1121
-45.5711
-45.4965
-45.1667
-44.8849
-45.1574
-44.5828
-45.0951
-43.7371
-46.3159
-43.5403
-40.8966
-41.2584
-41.6485
-41.7819
-44.7442
-43.3515
-45.9689
-43.1691
-43.9791
-43.9721
-44.0951
-43.7451
-43.5975
-43.8234
-44.2938
-44.4254
-39.7918
-38.9992
-40.4898
-39.6816
-39.5945
-38.8627
-40.293
-39.5559
-39.333
-40.9411
-40.5924
-42.1966
-40.3793
-41.9179
-41.2652
-42.8843
-55.9361
-56.5699
-52.2706
-53.9973
-38.3984
-40.3155
-39.1667
-40.8847
-38.0898
-40.0216
-38.9764
-40.6821
-55.8557
-56.5055
-52.1994
-53.9441
-33.9896
-32.8661
-32.1419
-31.0219
-29.9467
-31.2412
-28.0016
-28.9305
-32.5541
-32.4619
-32.1635
-32.2528
-33.9882
-33.7773
-33.6403
-33.296
-119.096
21.2499
-112.414
-84.8954
-94.7057
-92.9696
-44.0901
-36.7318
-40.6276
-37.077
-42.5794
-40.5346
-96.8435
20.2112
-74.1272
-25.9351
-75.5912
-60.0619
-44.3687
-35.7788
-37.3165
-35.3699
-43.8768
-40.0735
-112.377
-85.0331
-119.292
20.9159
-94.5874
-92.9641
-38.2383
-34.7858
-41.8925
-34.5291
-40.8473
-38.9121
-74.0702
-25.5536
-96.8889
20.5996
-75.5885
-59.9949
-36.5438
-33.9766
-42.9088
-34.2631
-42.8071
-39.4539
-35.2389
-36.1772
-34.1788
-33.7037
-35.7484
-35.0498
-35.5729
-34.3704
-43.2265
-38.453
-30.4586
-33.7479
-24.6337
-40.9085
-34.5605
-37.6297
-50.5429
-67.1917
-47.8395
-47.5277
-49.1661
-59.2384
-76.2637
-78.2967
-47.2973
-47.6889
-41.9871
-42.9421
-43.2289
-48.2776
-51.3269
-51.2125
-35.173
-36.1474
-35.5436
-34.345
-34.1259
-33.6634
-35.6966
-34.995
-42.999
-38.2682
-34.4569
-37.4891
-30.3198
-33.6448
-24.4739
-40.6609
-50.4671
-67.1136
-76.2402
-78.217
-47.7681
-47.4572
-49.0964
-59.1494
-46.1534
-47.4253
-51.2561
-51.097
-41.8872
-43.0526
-43.1574
-48.211
-106.088
68.8145
-92.2609
65.7204
-105.368
-98.4381
134.747
136.373
-107.09
-96.7774
-107.07
-97.0314
-91.1191
-91.1138
52.1422
52.2326
-54.4476
-55.3879
-47.2086
-41.7802
-50.393
-47.5501
-51.9254
-44.8803
-41.8735
-34.8574
-42.5868
-35.1522
-44.2466
-44.9188
-34.0978
-34.5312
-36.7393
-33.6101
-35.696
-31.6821
-37.3608
-37.7634
-30.4985
-29.1924
-47.3158
-45.1966
-39.3795
-41.5994
-45.1429
-49.9829
-42.8378
-45.385
-56.065
-21.0239
-56.0427
-20.6783
-50.8091
-50.8096
95.6066
95.4834
-56.7189
-41.923
-46.4202
-30.1721
-48.9136
-56.3518
-28.8619
-18.9837
-35.7338
-33.917
-35.4692
-33.4355
-36.8122
-36.713
-33.0832
-33.3737
-44.1685
-47.9264
-45.3459
-50.0172
-44.3958
-45.104
-51.592
-47.4867
-106.166
68.7816
-92.2574
65.7877
-105.352
-98.4509
136.392
134.77
-54.4172
-55.3493
-47.1636
-41.7605
-50.357
-47.5237
-51.907
-44.8644
-39.9208
-32.939
-40.904
-33.7573
-43.0993
-42.5678
-32.1052
-33.197
-45.9237
-44.4131
-38.9279
-41.2337
-44.498
-49.1257
-42.4371
-44.7779
-56.7251
-42.1882
-46.3815
-30.1381
-56.2994
-48.8922
-18.9228
-28.7984
-43.6285
-47.6718
-45.0097
-49.843
-44.6844
-43.8766
-47.3926
-51.5757
-33.162
-32.2548
-32.193
-33.154
-32.1294
-32.8186
-31.9086
-33.3132
-37.0699
-36.8844
-40.4957
-40.6851
-37.7587
-39.2303
-37.4889
-39.4436
-36.2031
-34.7644
-36.1942
-34.7539
-37.2596
-37.2635
-34.2122
-34.2063
-31.6783
-41.4574
-37.4549
-38.4024
-34.3016
-36.4017
-42.809
-41.5539
-35.0498
-37.6031
-35.012
-37.5523
-34.9658
-34.9823
-38.2094
-38.1791
-46.3566
-53.5561
-44.0068
-49.9686
-43.0142
-43.8224
-57.7118
-55.0644
-12.448
-48.0177
-12.4459
-47.928
2.5233
2.60048
-66.0856
-66.066
-63.9518
-60.7715
-63.9135
-60.7295
-66.3682
-66.3504
-58.955
-58.9393
-33.0892
-32.2061
-32.0993
-33.0887
-32.0484
-32.7242
-31.8588
-33.264
-37.0158
-36.8252
-40.4391
-40.6256
-39.1777
-37.7078
-37.4274
-39.3833
-31.5157
-41.1924
-37.2879
-38.1657
-36.2465
-34.1376
-42.5027
-41.2406
-46.1606
-53.4405
-43.9701
-49.8937
-43.7735
-42.9659
-54.9636
-57.5921
-58.3994
-59.0603
-53.1726
-51.7395
-50.8292
-54.5447
-47.2862
-46.545
-58.3619
-59.0274
-53.1357
-51.7053
-54.5224
-50.7849
-46.5028
-47.2404
-58.8951
-58.8901
-53.5543
-46.0897
-53.5452
-46.0822
-43.3247
-43.3286
-22.404
-22.393
-14.9745
-0.331081
-0.316101
-14.9628
8.10921
8.08509
197.752