# vtk DataFile Version 2.0
tet_velo
ASCII
DATASET UNSTRUCTURED_GRID
POINTS 29498 float
-0.740479 0.235 -1.905
-0.755 0.385 1.96571
-0.695 0.785 -1.903
-0.635 1.145 1.93764
0.740402 0.235 -1.905
0.755 0.385 1.96574
0.695 0.785 -1.90292
0.635 1.145 1.93769
-0.808879 0.221441 -0.614763
-0.817162 0.267997 0.675474
-0.795719 1.02572 -0.622787
-0.757822 1.12782 0.657427
0.808676 0.221592 -0.614753
0.81718 0.267954 0.675493
0.795881 1.02588 -0.622717
0.757828 1.12783 0.657487
-1.52297 -0.227442 -2.92851
-1.52661 -0.150032 -1.90034
-1.57157 -0.146153 -0.609842
-1.5709 -0.122045 0.682674
-1.52308 -0.0344883 1.97334
-1.51279 0.0337248 3.00235
-1.52109 0.0954549 4.02981
-1.51765 0.116847 -2.9311
-1.51963 0.221845 -1.90403
-1.58008 0.248266 -0.615482
-1.56421 0.2802 0.673967
-1.48808 0.362934 1.96271
-1.49189 0.429709 2.99157
-1.51186 0.491247 4.01936
-1.49884 0.75784 -2.93348
-1.48918 0.860769 -1.906
-1.56174 1.03327 -0.62429
-1.51719 1.11611 0.656713
-1.40962 1.15265 1.93862
-1.45053 1.21646 2.9679
-1.49672 1.28279 3.99732
-1.49903 1.86234 -2.94457
-1.49994 1.98384 -1.91859
-1.524 2.17061 -0.640132
-1.52654 2.30984 0.636164
-1.50579 2.3837 1.91473
-1.50463 2.43328 2.94094
-1.51906 2.48908 3.96926
-0.761671 -0.221549 -2.92914
-0.746556 -0.140419 -1.90127
-0.787453 -0.159203 -0.6097
-0.8029 -0.131684 0.683959
-0.775252 -0.0248967 1.97558
-0.772183 0.0398523 3.00387
-0.780128 0.0975212 4.0307
-0.764137 0.114295 -2.93128
-0.765766 0.436425 2.99283
-0.778413 0.493129 4.02004
-0.748829 0.726191 -2.93221
-0.733313 1.21502 2.96772
-0.771403 1.28208 3.99729
-0.738053 1.84114 -2.94332
-0.73261 1.96409 -1.91721
-0.757294 2.16632 -0.639293
-0.775353 2.3145 0.63609
-0.771212 2.38549 1.91405
-0.773302 2.43289 2.94027
-0.785112 2.48836 3.96877
0.746182 -0.221509 -2.92912
0.774377 -0.140375 -1.90126
0.809353 -0.159099 -0.609685
0.801878 -0.131688 0.683982
0.756736 -0.0249014 1.97561
0.723239 0.0398542 3.0039
0.707591 0.0975286 4.03074
0.723342 0.114323 -2.93125
0.700374 0.436426 2.99287
0.692652 0.493135 4.02008
0.710799 0.726219 -2.93216
0.658878 1.21502 2.96777
0.672818 1.28208 3.99733
0.768489 1.8412 -2.94327
0.782177 1.96416 -1.91716
0.77458 2.1664 -0.639239
0.733011 2.31454 0.636141
0.692676 2.38551 1.9141
0.681447 2.43291 2.94031
0.679087 2.48838 3.96882
1.50996 -0.227343 -2.92846
1.53934 -0.149912 -1.9003
1.58777 -0.145985 -0.609797
1.58205 -0.122015 0.682729
1.52339 -0.034491 1.9734
1.4814 0.0337327 3.00242
1.4612 0.0954728 4.02989
1.48709 0.116933 -2.93104
1.51392 0.221949 -1.90398
1.58269 0.248465 -0.615429
1.57686 0.280216 0.674027
1.49956 0.362924 1.96277
1.45481 0.429713 2.99164
1.44231 0.491263 4.01944
1.47085 0.757927 -2.93338
1.48492 0.860875 -1.90589
1.56315 1.03348 -0.624188
1.52525 1.11616 0.656806
1.41491 1.15265 1.9387
1.40295 1.21646 2.96799
1.41415 1.28281 3.9974
1.52382 1.86246 -2.94447
1.53807 1.98397 -1.91848
1.53805 2.17075 -0.640029
1.49536 2.30993 0.636262
1.44278 2.38375 1.91482
1.42417 2.43332 2.94103
1.42123 2.48912 3.96934
-0.794705 0.51 -1.98097
-3.85046e-05 0.227639 -1.91236
-0.783676 0.219223 -1.25988
-0.727181 0.765 1.98386
0 0.367023 1.9837
-0.801932 0.310647 1.32059
0 0.838407 -1.95637
-0.772317 0.932317 -1.26289
0 1.16599 1.95865
-0.704619 1.14462 1.29753
0.794579 0.51 -1.98084
0.783725 0.219109 -1.25988
0.727131 0.765 1.98385
0.800845 0.311722 1.32062
0.772308 0.932308 -1.26282
0.704659 1.14466 1.29759
-0.811751 0.245989 0.030355
-0.887407 0.62358 -0.618775
-0.000101226 0.215056 -0.614758
-0.88639 0.69791 0.66645
8.90764e-06 0.235559 0.675483
-0.77957 1.07957 0.01732
8.06058e-05 1.27811 -0.622752
3.18209e-06 1.54663 0.657457
0.811708 0.245993 0.03037
0.887361 0.623736 -0.618735
0.886404 0.697891 0.66649
0.779557 1.07956 0.017385
-0.883348 0.56679 -1.26139
-0.891208 0.660745 0.0238375
-0.885493 0.731455 1.30906
-6.98652e-05 0.216282 -1.25988
-4.61591e-05 0.232169 0.0303625
4.45382e-06 0.27873 1.3206
-1.92523e-05 0.51 -2.15579
0 0.765 2.05518
4.03029e-05 1.00082 -1.26286
4.1894e-05 1.52905 0.0173525
1.59104e-06 1.44506 1.29756
0.883342 0.566868 -1.26135
0.891188 0.660814 0.0238775
0.885492 0.731445 1.3091
-1.13005 0.228422 -1.90451
-0.743518 0.0472904 -1.90313
-0.752308 0.174647 -2.41814
-1.12154 0.373967 1.96421
-0.765126 0.180052 1.97064
-0.760383 0.410713 2.47927
-1.09209 0.822884 -1.9045
-0.721914 0.755595 -2.41761
-0.713805 1.37455 -1.91011
-1.02231 1.14883 1.93813
-0.684157 1.18001 2.45268
-0.703106 1.76524 1.92585
0.75739 0.0473125 -1.90313
0.731872 0.174661 -2.41813
1.12716 0.228474 -1.90449
0.755868 0.180049 1.97067
0.727687 0.410713 2.4793
1.12728 0.373962 1.96426
0.702899 0.75561 -2.41754
0.738588 1.37458 -1.91004
1.08996 0.822938 -1.90441
0.646939 1.18001 2.45273
0.663838 1.76526 1.9259
1.02496 1.14883 1.9382
-1.19448 0.234853 -0.615122
-0.798166 0.0311188 -0.612231
-1.19069 0.274099 0.67472
-0.810031 0.0681568 0.679716
-1.17873 1.02949 -0.623538
-0.776507 1.59602 -0.63104
-1.1375 1.12197 0.65707
-0.766588 1.72116 0.646759
0.809015 0.0312463 -0.612219
1.19568 0.235028 -0.615091
0.809529 0.0681327 0.679738
1.19702 0.274085 0.67476
0.78523 1.59614 -0.630978
1.17951 1.02968 -0.623453
0.74542 1.72119 0.646814
1.14154 1.12199 0.657147
-1.52479 -0.188737 -2.41443
-1.52031 -0.0552975 -2.92981
-1.14232 -0.224496 -2.92883
-1.54909 -0.148093 -1.25509
-1.52312 0.0359063 -1.90218
-1.13658 -0.145226 -1.9008
-1.57124 -0.134099 0.0364159
-1.57582 0.0510563 -0.612662
-1.17951 -0.152678 -0.609771
-1.54699 -0.0782669 1.32801
-1.56756 0.0790772 0.678321
-1.1869 -0.126865 0.683317
-1.51794 -0.000381768 2.48784
-1.50558 0.164223 1.96802
-1.14917 -0.0296925 1.97446
-1.51694 0.0645898 3.51608
-1.50234 0.231717 2.99696
-1.14249 0.0367886 3.00311
-1.51647 0.293351 4.02459
-1.15061 0.096488 4.03026
-1.51864 0.169346 -2.41757
-1.50825 0.437343 -2.93229
-1.1409 0.115571 -2.93119
-1.54985 0.235055 -1.25975
-1.5044 0.541307 -1.90501
-1.57215 0.264233 0.0292428
-1.57091 0.640766 -0.619886
-1.52615 0.321567 1.31834
-1.5407 0.698155 0.66534
-1.48999 0.396321 2.47714
-1.44885 0.757793 1.95066
-1.50187 0.460478 3.50547
-1.47121 0.823082 2.97974
-1.12883 0.433067 2.9922
-1.50429 0.887019 4.00834
-1.14514 0.492188 4.0197
-1.49401 0.809304 -2.41974
-1.49893 1.31009 -2.93902
-1.12383 0.742015 -2.93285
-1.52546 0.947018 -1.26515
-1.49456 1.4223 -1.91229
-1.53946 1.07469 0.0162114
-1.54287 1.60194 -0.632211
-1.4634 1.13438 1.29767
-1.52186 1.71297 0.646439
-1.43007 1.18455 2.45326
-1.45771 1.76818 1.92667
-1.47362 1.24962 3.48261
-1.47758 1.82487 2.95442
-1.09192 1.21574 2.96781
-1.50789 1.88594 3.98329
-1.13406 1.28243 3.9973
-1.49949 1.92309 -2.43158
-1.11854 1.85174 -2.94394
-1.51197 2.07722 -1.27936
-1.11628 1.97396 -1.9179
-1.52527 2.24022 -0.0019837
-1.14065 2.16847 -0.639712
-1.51617 2.34677 1.27545
-1.15095 2.31217 0.636127
-1.50521 2.40849 2.42784
-1.1385 2.3846 1.91439
-1.51184 2.46118 3.4551
-1.13896 2.43309 2.9406
-1.15208 2.48872 3.96902
-0.754113 -0.180984 -2.41521
-0.762904 -0.0536272 -2.93021
-0.00774434 -0.221529 -2.92913
-0.767004 -0.149811 -1.25548
0.0139106 -0.140397 -1.90126
-0.795176 -0.145443 0.0371298
0.0109502 -0.159151 -0.609692
-0.789076 -0.0782901 1.32977
-0.000510648 -0.131686 0.683971
-0.773717 0.00747781 2.48972
-0.00925793 -0.024899 1.97559
-0.776156 0.0686868 3.51729
-0.768974 0.238139 2.99835
-0.0244718 0.0398532 3.00389
-0.779271 0.295325 4.02537
-0.0362686 0.0975249 4.03072
-0.756483 0.420243 -2.93175
-0.0203974 0.114309 -2.93127
-0.772089 0.464777 3.50644
-0.74954 0.82572 2.98028
-0.0326957 0.436426 2.99285
-0.774908 0.887603 4.00867
-0.0428805 0.493132 4.02006
-0.743441 1.28367 -2.93777
-0.019015 0.726205 -2.93219
-0.752358 1.24855 3.48251
-0.753308 1.82395 2.954
-0.0372178 1.21502 2.96775
-0.778257 1.88522 3.98303
-0.0492924 1.28208 3.99731
-0.735332 1.90262 -2.43026
0.0152181 1.84117 -2.94329
-0.744952 2.06521 -1.27825
0.0247832 1.96413 -1.91718
-0.766324 2.24041 -0.00160111
0.00864277 2.16636 -0.639266
-0.773282 2.34999 1.27507
-0.0211709 2.31452 0.636116
-0.772257 2.40919 2.42716
-0.0392677 2.3855 1.91408
-0.779207 2.46063 3.45452
-0.0459274 2.4329 2.94029
-0.0530122 2.48837 3.9688
0.76028 -0.180942 -2.41519
0.734762 -0.053593 -2.93019
1.12807 -0.224426 -2.92879
0.791865 -0.149737 -1.25547
1.15686 -0.145143 -1.90078
0.805616 -0.145394 0.0371485
1.19856 -0.152542 -0.609741
0.779307 -0.0782949 1.32979
1.19197 -0.126851 0.683355
0.739988 0.00747641 2.48975
1.14007 -0.0296962 1.9745
0.715415 0.0686914 3.51732
0.711807 0.23814 2.99839
1.10232 0.0367934 3.00316
0.700122 0.295332 4.02541
1.08439 0.0965007 4.03031
0.71707 0.420271 -2.93171
1.10522 0.115628 -2.93115
0.696513 0.46478 3.50647
0.679626 0.825722 2.98032
1.07759 0.43307 2.99225
0.682735 0.887609 4.00871
1.06748 0.492199 4.01976
0.739644 1.28371 -2.93771
1.09082 0.742073 -2.93277
0.665848 1.24855 3.48255
0.670162 1.82396 2.95404
1.03091 1.21574 2.96788
0.675953 1.88523 3.98308
1.04349 1.28245 3.99736
0.775333 1.90268 -2.43021
1.14616 1.85183 -2.94387
0.778378 2.06528 -1.2782
1.16013 1.97407 -1.91782
0.753796 2.24047 -0.0015487
1.15632 2.16857 -0.639634
0.712844 2.35003 1.27512
1.11419 2.31224 0.636202
0.687062 2.40921 2.42721
1.06773 2.38463 1.91446
0.680267 2.46065 3.45456
1.05281 2.43312 2.94067
1.05016 2.48875 3.96908
1.52465 -0.188628 -2.41438
1.49853 -0.0552051 -2.92975
1.56355 -0.147948 -1.25505
1.52663 0.0360186 -1.90214
1.58491 -0.134 0.0364658
1.58523 0.0512401 -0.612613
1.55272 -0.0782528 1.32807
1.57945 0.0791005 0.678378
1.5024 -0.00037917 2.48791
1.51148 0.164216 1.96809
1.4713 0.0646027 3.51615
1.46811 0.231723 2.99703
1.45176 0.293368 4.02466
1.5005 0.169441 -2.41751
1.47897 0.43743 -2.93221
1.5483 0.235207 -1.2597
1.49942 0.541412 -1.90494
1.57977 0.26434 0.0292987
1.57292 0.640972 -0.619809
1.53821 0.32157 1.3184
1.55105 0.698187 0.665417
1.47719 0.396319 2.47721
1.45724 0.757788 1.95074
1.44856 0.460488 3.50554
1.42888 0.823089 2.97981
1.42823 0.887036 4.00842
1.47788 0.809401 -2.41964
1.49734 1.3102 -2.93893
1.52403 0.947177 -1.26504
1.5115 1.42242 -1.91219
1.5442 1.07482 0.0163089
1.5506 1.60211 -0.632109
[...]
POINT_DATA 29498
VECTORS point_vectors float
-3.99562 -4.59448 8.84855
0.17813 0.171107 0.529582
-1.68549 1.35683 3.4474
-0.21171 -0.200392 0.183174
3.99367 -4.61839 8.90867
-0.179569 0.170263 0.533309
1.71557 1.38332 3.50703
0.215963 -0.190336 0.168802
0.0298623 0.0623212 1.01245
0.0163946 -0.00326865 0.597177
-0.00932759 -0.00640047 0.146661
0.00624794 0.012858 0.0352799
-0.0228998 0.0665396 1.02996
-0.0167829 -0.00369331 0.600695
0.011026 -0.0081704 0.178607
-0.00620341 0.0127613 0.0352096
-0.635559 -0.388103 19.932
-1.15132 -0.769637 20.6305
-0.367809 -0.471318 21.472
0.189344 -0.174551 21.6269
0.772831 0.080488 21.545
1.0992 0.179035 21.3452
1.17201 0.0884801 20.4115
-0.832439 -0.313838 19.77
-1.69963 -0.721527 20.5795
-0.571632 -0.63995 21.5721
0.165173 -0.386628 21.7235
0.948643 -0.232317 21.6554
1.34341 -0.186225 21.1743
1.26002 0.0533819 21.0643
-0.9205 0.0276663 19.6275
-2.0995 0.0989438 20.3211
-1.43949 -0.365293 21.498
-0.380716 -0.533573 21.8434
0.395091 -0.821981 21.7561
0.715839 -0.805761 21.4379
0.556907 -0.656149 20.9531
-0.538687 0.344147 19.9165
-0.899893 0.601056 20.2866
-0.913268 0.51018 21.0599
-0.417729 0.0168632 21.4781
-0.0817429 -0.23165 21.4064
0.0567116 -0.341852 21.0665
0.117198 -0.351745 20.8135
-0.67529 -0.86236 19.3729
-1.65183 -3.03734 21.0548
-0.209572 -0.358798 22.0299
0.294137 0.2609 21.6637
1.03144 1.28681 20.3807
1.49538 1.65648 20.0299
1.18868 1.24891 19.1248
-0.91914 -0.723365 18.8681
2.10289 1.07277 11.628
2.33861 1.07682 15.0517
-1.05421 0.143414 18.452
0.161752 -1.25373 7.94538
1.00072 -1.70948 14.4398
-0.453781 0.676654 19.557
-0.876975 1.42814 19.9435
-1.09169 1.60304 21.0642
-0.516354 0.43127 21.8118
-0.178447 -0.171043 21.5652
-0.0321925 -0.436055 21.4342
0.156528 -0.653877 20.1485
0.657065 -0.866298 19.3537
1.6742 -2.92744 21.0302
0.197633 -0.360542 22.0169
-0.294743 0.263283 21.6678
-1.00928 1.30321 20.3564
-1.44197 1.76749 19.5941
-1.08022 1.46648 19.0015
0.884388 -0.755164 18.8131
-1.9323 1.18742 10.1854
-2.45977 1.51479 13.6466
1.02464 0.145791 18.3855
0.307703 -1.26954 4.92767
-1.0086 -1.70501 11.3376
0.46138 0.667204 19.5655
0.905869 1.37177 19.9702
1.10223 1.56917 21.0666
0.507052 0.451501 21.8315
0.178025 -0.15938 21.5866
0.0254403 -0.42057 21.3344
-0.105952 -0.615695 20.0971
0.643588 -0.398888 19.911
1.14801 -0.756212 20.637
0.373603 -0.480468 21.4573
-0.17864 -0.184214 21.6186
-0.766096 0.0795118 21.5537
-1.1266 0.206874 21.3352
-1.33077 0.164443 20.4116
0.844128 -0.325623 19.7413
1.71583 -0.736287 20.5832
0.570194 -0.638673 21.5716
-0.156616 -0.387472 21.7224
-0.926741 -0.237926 21.6532
-1.38996 -0.181713 21.1825
-1.39768 0.041804 20.9468
0.934201 0.0311546 19.6004
2.11135 0.10338 20.3196
1.43659 -0.364811 21.5008
0.375098 -0.525696 21.8404
-0.390241 -0.810782 21.675
-0.701314 -0.869708 21.4838
-0.70117 -0.760374 20.8779
0.535258 0.329084 19.9335
0.880557 0.56241 20.3028
0.906654 0.499493 21.0605
0.431532 0.0320835 21.4917
0.0904638 -0.240746 21.4106
-0.0473003 -0.358151 21.0605
-0.0835592 -0.354943 21.063
-2.08861 -0.19552 3.11401
0.000548677 -0.0545202 0.223293
0.0231151 -0.010218 0.426779
0.0263597 -0.0825699 0.133579
-5.44573e-05 0.00522209 0.0249224
0.10365 0.0117024 1.10886
0.00853327 0.3056 0.756826
-0.877767 -0.142981 1.67703
-0.00453966 0.100325 -0.270372
0 0 0
2.07579 -0.198161 3.08765
-0.0241091 -0.0113509 0.431368
-0.0255959 -0.0844691 0.132516
-0.0966702 0.0137897 1.02663
0.879158 -0.14251 1.68014
0 0 0
0.0764959 0.0477612 2.15658
0 0 0
-4.68478e-20 4.72181e-19 3.70176e-17
0 0 0
4.95814e-06 0.000371567 0.0305588
0.00704694 0.0210361 0.0572437
0.00106968 0.0283344 0.0445804
0 0 0
-0.0653298 0.0463806 2.18776
0 0 0
0 0 0
-0.00698727 0.0208944 0.0571708
-0.00250155 -0.00625547 0.0699828
0 0 0
0.00101504 0.00354048 0.0445866
0 0 0
-8.01862e-06 3.24798e-05 0.00119403
0 0 0
-0.00021382 -0.0897352 0.0249576
-0.000375688 -0.0069846 0.00493436
-7.29847e-06 0.00297139 0.0160047
9.82231e-06 0.00435018 0.0447936
0 0 0
0.00236811 -0.00592558 0.0662484
0 0 0
-0.00100917 0.00347381 0.0445973
-3.15472 -1.7391 20.6912
-2.75078 -4.79313 21.5631
-2.38031 -2.21657 17.8232
1.5989 0.0509867 19.6301
1.28454 1.40404 14.1481
1.40242 0.676057 7.70022
-4.14844 0.730311 20.0298
-2.9974 1.07862 16.5634
-2.0601 2.56474 19.484
0.53592 -0.796486 17.7387
-0.47483 -0.673056 3.51514
-0.381859 -0.430908 20.2229
2.80748 -4.67849 21.5045
2.37496 -2.31668 17.7317
3.16869 -1.76321 20.6932
-1.25531 1.40644 13.9787
-1.2816 0.662051 6.71074
-1.58991 0.0282911 19.7472
2.98689 1.13239 16.4344
2.07631 2.48325 19.509
4.16993 0.740363 20.0283
0.635202 -0.665434 1.95722
0.344799 -0.380901 19.583
-0.529583 -0.804495 17.8977
-0.232201 -0.98794 21.8639
0.21795 0.0195298 18.9895
0.488576 -0.449003 21.1045
0.627121 0.265689 16.9734
-2.62516 -0.92801 21.9602
-3.33758 2.61576 20.9894
-0.510148 -0.887119 21.1189
-1.11633 0.229715 22.2432
-0.219129 0.00149053 19.0811
0.237835 -0.9888 21.8618
-0.626081 0.266922 16.993
-0.478089 -0.455014 21.1662
3.32447 2.56496 21.0023
2.61631 -0.919348 21.9448
1.12278 0.268867 22.2483
0.518627 -0.884821 21.1567
-0.960145 -0.623703 20.1417
-0.74075 -0.372747 19.8627
-0.695779 -0.584891 19.6984
-0.8013 -0.665168 21.2673
-1.4225 -0.781993 20.6194
-1.58523 -1.56269 20.7377
-0.0607742 -0.320769 21.5947
-0.482852 -0.553292 21.5058
-0.231833 -0.554021 21.7552
0.461214 -0.0466064 21.6589
0.185677 -0.277386 21.6472
0.344723 -0.0701157 21.8378
0.954248 0.155768 21.4296
0.886573 -0.0493163 21.6098
1.11833 0.477944 21.5851
1.00201 0.157418 21.2034
1.22009 -0.000394914 21.2703
1.50597 0.673749 21.1742
1.21703 0.0720711 20.7376
1.30579 0.380004 21.1942
-1.36258 -0.519888 19.9542
-0.896237 -0.192537 19.6628
-0.910024 -0.520362 19.3963
-1.19642 -0.739671 21.354
-2.01356 -0.359696 20.4591
-0.168571 -0.520377 21.6629
-1.01985 -0.66164 21.576
0.514272 -0.297325 21.774
-0.0613843 -0.535117 21.8263
1.15042 -0.202827 21.4624
0.803468 -0.612842 21.6685
1.30999 -0.337752 21.2575
1.12751 -0.619338 21.3517
2.04059 0.0888611 19.9942
0.819161 -0.446754 21.0974
1.91197 -0.0997221 19.7451
-1.59809 0.0848679 19.7281
-0.741778 0.287907 19.7338
-1.06391 0.0712085 19.1455
-1.85746 -0.155036 21.0653
-1.46762 0.592907 20.2286
-0.911678 -0.499195 21.8076
-1.41252 0.277268 21.2511
0.0500693 -0.628621 21.8287
-0.586283 -0.17297 21.7229
0.578894 -0.852925 21.5902
-0.0403013 -0.473757 21.523
0.852711 -0.846147 21.3512
0.256093 -0.634651 21.4432
0.806418 -1.21403 20.3436
0.408572 -0.884155 20.3027
0.978952 -1.31041 20.968
-0.737677 0.508859 20.0448
-0.542423 0.493287 19.7423
-0.975478 0.599554 20.6732
-0.975586 0.954808 20.1327
-0.697607 0.263662 21.4021
-1.14483 0.96847 21.0945
-0.226524 -0.152225 21.5221
-0.520604 0.204729 21.6591
0.0137802 -0.300166 21.419
-0.118175 -0.242056 21.4951
0.105424 -0.341664 21.1567
0.00218046 -0.409445 21.4453
0.200401 -0.604377 20.6544
-1.26839 -1.91773 19.3758
-0.776916 -0.840079 19.1377
-0.0134947 -1.19487 19.0023
-0.707295 -1.26137 22.1725
0.0300528 -4.28586 21.6176
0.0853621 0.0122312 21.717
0.00751276 -0.57037 21.9064
0.677397 0.728706 20.7571
-0.00292583 0.141511 20.2369
1.27101 1.51329 20.1955
0.00288788 1.16488 17.6373
1.7396 1.74406 19.5756
2.07896 1.76939 16.3193
0.0183154 1.82227 17.277
1.95314 1.32494 16.0545
0.114772 2.64067 16.598
-1.0425 -0.378221 18.5153
-0.0396217 -1.07333 18.1444
2.5065 1.24346 14.6631
1.29812 -0.733802 7.12824
0.0509731 0.810687 3.63495
2.30223 -0.383491 12.1695
0.236077 2.62277 8.45995
-0.762833 0.707161 19.0227
-0.0317085 0.27075 17.5526
1.0753 -1.30572 11.2705
-0.111486 -0.855007 21.258
-0.179201 1.61941 -5.44617
-0.0495218 -0.773914 19.7642
-0.28213 2.12081 -2.54354
-0.679726 1.08344 19.6441
0.0137227 0.839205 19.3574
-1.05849 1.59945 20.3887
0.0483763 1.91961 19.7327
-0.913804 1.08667 21.7215
0.0164122 2.47605 20.9561
-0.290904 0.0194489 21.7045
-0.0190513 0.772838 21.9996
-0.112496 -0.282792 21.395
-0.0196055 -0.00425212 21.5805
-0.0478851 -0.38933 21.1192
-0.0218575 -0.279224 21.2392
0.0125047 -0.592786 20.0371
1.26677 -1.89851 19.384
0.764869 -0.856981 19.111
0.695593 -0.594863 19.6831
0.708794 -1.24025 22.141
1.57999 -1.52346 20.718
-0.0901765 0.00305098 21.7338
0.23867 -0.552604 21.7354
-0.672352 0.741296 20.7447
-0.341734 -0.0734182 21.8302
-1.21157 1.556 19.9075
-1.12042 0.491818 21.5722
-1.72064 1.87774 19.3942
-1.89476 1.79731 15.5448
-1.51908 0.722147 21.2103
-1.99542 1.67142 15.1538
-1.37492 0.383468 21.1354
1.02537 -0.3893 18.4447
0.932155 -0.537198 19.3459
-2.50549 1.52842 13.3001
-1.06893 -0.728642 4.6685
-2.11553 0.194707 19.2463
-2.30438 -0.335003 9.19098
-2.06518 -0.111968 19.2915
0.759096 0.707815 19.0177
1.07897 0.0772203 19.0948
-0.892944 -1.16559 8.76402
0.164167 -0.73756 20.5642
-0.837171 -1.18661 18.8924
0.0719903 -0.785909 19.9211
-0.962997 -1.42948 19.7062
0.697187 1.0602 19.6598
0.54937 0.479299 19.7584
1.08497 1.5538 20.4041
0.977643 0.915296 20.1494
0.90369 1.1086 21.7225
1.1388 0.944981 21.0921
0.286275 0.0362039 21.7285
0.527428 0.227661 21.6747
0.106355 -0.258937 21.4164
0.137232 -0.222338 21.4897
0.0796238 -0.306136 21.4193
0.0162914 -0.418015 21.4967
-0.21523 -0.655563 20.5768
0.960166 -0.620259 20.1582
0.745825 -0.380889 19.8508
0.810063 -0.665842 21.2552
1.4189 -0.783753 20.6266
0.0645635 -0.330353 21.5914
0.48465 -0.553974 21.4909
-0.454621 -0.0548687 21.6572
-0.174403 -0.279577 21.6342
-0.964768 0.173455 21.4468
-0.872574 -0.0602143 21.6096
-1.05303 0.145595 21.2262
-1.26091 0.0119498 21.2689
-1.37644 0.148759 20.7431
1.39474 -0.544398 19.9366
0.908208 -0.206241 19.6391
1.19911 -0.743528 21.3579
2.03845 -0.366402 20.4622
0.170775 -0.520122 21.6632
1.0166 -0.663956 21.5782
-0.503906 -0.296666 21.7738
0.0634784 -0.532415 21.8237
-1.16357 -0.210336 21.4766
-0.7911 -0.611602 21.6693
-1.36865 -0.297668 21.2323
-1.18094 -0.660816 21.3462
-0.970855 -0.482636 21.0542
1.6259 0.0959348 19.7083
0.740885 0.288417 19.7355
1.85943 -0.151914 21.073
1.43789 0.56714 20.2374
0.908047 -0.496089 21.8006
1.40234 0.269621 21.2513
-0.04072 -0.618999 21.8156
0.590379 -0.172847 21.739
-0.565561 -0.873776 21.6026
0.0495046 -0.482159 21.5306
-0.845993 -0.892437 21.4359
-0.241513 -0.672479 21.4854
-0.477635 -0.823654 19.9014
0.725181 0.485512 20.0627
0.966694 0.582638 20.6766
0.700168 0.27286 21.4018
0.227668 -0.139553 21.5156
-0.0104852 -0.305123 21.4307
-0.0843152 -0.363618 21.0938
-1.15302 -0.605885 20.0664
-1.77369 -2.22809 18.776
-1.24853 -1.11997 19.8616
-1.97801 -1.08906 19.2916
-0.810368 -0.562215 19.5655
-2.26068 -1.78431 20.7602
-0.996438 -0.718447 21.297
-0.352942 -0.964768 20.6052
-0.847595 -1.05399 21.6429
-1.39461 -1.3581 22.0481
-0.204816 -0.699662 21.8898
-0.113163 -0.41911 21.6215
0.483423 0.205355 17.4465
0.0918514 -0.286276 21.7747
0.210058 -0.710559 21.3903
0.479239 -0.221906 21.6772
0.494808 -0.162521 21.7116
1.03197 0.682425 15.1246
0.694438 0.175669 21.8083
0.884495 -0.208085 20.2601
1.46342 0.347068 21.017
1.10021 -0.000839 21.4407
1.60908 1.53384 15.146
1.3433 0.610348 21.3573
1.89522 0.0168906 19.8381
1.86054 0.43529 20.6134
1.16013 -0.0823283 21.2243
2.17569 1.68577 15.9395
1.54444 0.762082 21.3278
2.15939 0.0801097 19.698
1.65714 0.164984 20.3998
-1.51717 -0.277411 19.8246
-3.09626 -0.857819 16.6503
-2.3822 0.366533 18.8196
-1.07154 -0.250966 19.1799
-4.22647 -0.731556 20.3369
-1.61398 -0.561507 21.269
-3.15398 -0.232856 21.364
-1.15159 -1.46459 21.4685
-0.509611 -0.63129 21.7606
-1.46353 -1.0981 21.8633
0.138237 -0.661515 19.9322
0.360877 -0.534187 21.8564
0.240597 -0.604875 19.2971
1.26583 -0.372986 16.7974
0.984295 -0.64832 21.5919
0.218339 -1.08902 3.26712
0.546591 -1.06748 19.1058
1.69248 -0.71343 19.3244
1.26749 -0.64899 21.1521
2.17352 -0.575855 9.28252
1.10274 -1.31197 20.2314
1.82919 -1.1417 19.819
-1.13627 0.474774 19.8589
-1.42591 1.60452 18.8287
-0.777903 0.745855 19.8697
-0.807327 0.442875 19.428
-1.94216 1.32802 19.9217
-1.52647 0.479208 20.7639
-2.42655 2.3027 20.1231
-1.10924 1.03627 20.5552
-2.26361 0.81939 21.3317
-1.04911 0.0362463 21.6337
-2.50998 1.38676 22.7625
-0.870357 0.617535 21.538
-0.833857 -0.0773119 22.0285
-0.237673 -0.352536 21.6766
-0.513992 -0.330738 21.2914
-0.283794 -0.0783245 21.6246
-0.204838 -0.574803 21.6605
0.113045 -0.530913 21.416
-0.301423 -0.601463 20.9658
-0.0347828 -0.331145 21.2698
0.132505 -0.851915 21.2569
0.273645 -0.573126 21.1344
0.0728077 -1.01233 20.3126
0.0728447 -0.459234 20.9491
0.255701 -0.575034 21.4825
1.76635 -2.24205 18.7601
0.00503163 -2.93415 18.8588
-0.0432277 -3.95851 15.8759
-0.0159136 -1.19451 18.6278
0.0173211 -6.36352 23.2089
0.35961 -0.991149 20.7923
0.0143488 -1.6302 22.6852
0.00235737 -0.106167 13.8914
-0.478185 0.1993 17.6023
-0.00103214 -0.134386 20.7014
-0.00196001 0.150833 11.5646
-1.02875 0.689783 15.0249
-0.00182619 0.653392 18.5746
-0.00256909 0.883315 8.41843
-1.50997 1.56157 14.6851
0.0129192 1.42597 17.3676
-0.016443 -0.0253762 2.19012
0.0218208 1.23838 9.7207
-2.15814 1.8583 15.4452
0.0307697 2.35371 17.2172
0.044135 2.30624 4.69766
0.1298 2.616 12.532
3.1181 -0.904369 16.4497
-0.0491132 2.2574 13.7019
-0.0305633 -0.495497 17.6032
-0.0501366 -1.10752 2.38093
-0.0279562 0.128479 -3.8551
-0.00346835 0.332118 -1.50914
-1.98886 -0.44872 6.14102
-0.00275481 1.54863 -3.73027
0.525009 3.6049 -0.091724
1.43805 1.58825 18.8407
0.0287826 1.45869 19.4107
-0.00430443 1.012 18.5486
0.0425487 3.88281 19.0155
2.43606 2.23401 20.1538
0.020437 2.21087 20.1363
0.0254572 5.78496 19.9585
2.51977 1.41473 22.7673
-0.0117725 1.82916 21.9288
-0.0229026 1.10578 21.6399
0.511904 -0.312709 21.1944
-0.0174583 0.212124 21.8128
-0.0341617 0.150918 15.8269
0.272343 -0.521842 20.0282
-0.0153808 -0.178966 21.5509
-0.0361484 -0.163716 16.3105
-0.0502459 -0.9751 20.2543
0.00280386 -0.511055 21.065
-0.0763653 -0.35813 17.2762
1.1585 -0.617159 20.0781
1.24772 -1.11756 19.8558
2.02518 -1.13231 19.2297
0.821193 -0.59087 19.5296
2.23944 -1.75151 20.7472
0.999631 -0.719595 21.2844
0.849811 -1.03864 21.6142
1.39454 -1.36048 22.0522
0.218651 -0.703084 21.8706
0.115972 -0.417998 21.6221
-0.0834462 -0.290396 21.763
-0.198243 -0.712228 21.4185
-0.471009 -0.226832 21.6917
-0.488668 -0.166534 21.7095
-0.693943 0.17536 21.8035
-0.880951 -0.221483 20.3719
-1.46017 0.344177 20.9875
-1.11095 0.000128607 21.4436
-1.35742 0.65007 21.3376
-1.89393 0.05978 19.4105
-1.97355 0.480872 20.3426
-1.21901 -0.0737475 21.2423
-1.63079 0.845993 21.3386
-2.33468 0.159759 19.2241
-1.76492 0.136303 20.1171
1.55504 -0.284161 19.7994
2.42965 0.392217 18.7497
1.08915 -0.257598 19.1257
4.26033 -0.736675 20.3409
1.61791 -0.562105 21.276
3.15589 -0.233572 21.3618
1.15327 -1.46274 21.4787
0.507551 -0.631651 21.7597
1.46394 -1.09155 21.8816
-0.130968 -0.682798 20.076
-0.34714 -0.529127 21.8509
-0.228784 -0.623726 19.4214
-1.25797 -0.39276 16.9209
-0.991073 -0.671468 21.6107
-0.526617 -1.027 18.4632
-1.69895 -0.702855 18.0328
-1.3346 -0.661492 21.254
-1.15565 -1.35652 18.8402
-1.99104 -1.03575 18.7663
1.12807 0.466317 19.8678
0.78261 0.708691 19.8935
0.807025 0.445731 19.4216
1.92562 1.27057 19.9435
1.50429 0.463818 20.769
1.10508 0.996584 20.5638
2.23523 0.806565 21.3273
1.05067 0.037106 21.6327
0.872941 0.628787 21.5409
0.845468 -0.0634871 22.0465
0.245921 -0.34647 21.6646
0.290966 -0.0674332 21.638
0.231869 -0.571196 21.6726
-0.103669 -0.563777 21.4409
0.0593095 -0.319661 21.2931
-0.0801154 -0.874565 21.2855
-0.24423 -0.59313 21.1092
-0.0628723 -0.483292 20.9011
-0.0819701 -0.714828 22.3535
-1.59661 -1.16426 19.6008
-1.0498 -1.2152 21.8149
0.204199 -0.439822 21.7655
0.90988 0.00850136 21.475
1.70482 0.443409 20.753
1.89601 0.403471 20.5055
-2.38893 -0.449912 18.8974
-2.377 -1.26943 22.0555
-0.36288 -1.12742 20.56
0.575616 -0.271548 18.5339
1.44721 -0.708752 18.3163
1.78057 -0.851846 19.8548
-1.39519 0.904467 19.4274
-2.14961 1.12144 20.5832
-1.65223 0.373952 22.0021
-0.379919 -0.379466 21.8455
-0.0457533 -0.689789 21.5691
0.196376 -0.924724 21.3245
-0.00715551 -3.703 17.7796
0.00661606 -0.890148 16.4815
-0.00591496 0.106299 11.9815
-0.000224539 0.526304 9.6536
-0.0011118 0.963252 8.95043
0.0372102 2.38287 11.0409
-0.0444366 -1.36042 13.3282
0.0109627 -0.318108 0.0173109
0.350611 3.4021 -1.56873
0.0117187 2.50076 18.097
0.0394448 3.812 19.3792
-0.0138613 3.54459 23.0975
-0.0245473 0.223759 19.0015
-0.045039 0.0279294 16.0508
-0.0683372 -0.720778 16.6379
1.60417 -1.18654 19.5818
1.0576 -1.20647 21.7952
-0.190078 -0.445877 21.7772
-0.904867 0.00273434 21.4754
-1.7421 0.48276 20.5601
-1.97741 0.511604 20.279
2.45136 -0.461221 18.8118
2.37671 -1.27365 22.0604
0.370313 -1.12663 20.6242
-0.572875 -0.298272 18.6885
-1.43013 -0.662078 17.4426
-1.95909 -0.893604 18.3526
1.3878 0.887298 19.4389
2.12926 1.08792 20.5922
1.66019 0.380722 22.006
0.391054 -0.374595 21.8538
0.0918115 -0.697153 21.546
-0.162949 -0.976509 21.5234
-1.37199 -0.370733 2.29964
-0.0141341 -0.156938 0.588717
0.031019 -0.0457737 0.664097
0.138817 -0.0660377 0.418472
-0.000330138 0.0111908 0.0341772
0.0875249 0.0753882 1.7549
-1.53087 0.189765 2.20896
-0.056823 0.384274 0.757123
-0.213362 0.0198825 0.622794
0.00319799 -0.0364288 0.0368276
-0.135197 0.0893624 -0.247998
-0.00236814 -0.00354341 0.0145653
0.0157088 -0.169497 0.641961
1.39422 -0.377881 2.33866
-0.0304521 -0.0458507 0.663216
8.67571e-05 0.0111449 0.0340797
-0.138911 -0.0682503 0.418136
-0.0905594 0.0831115 1.75206
0.0555389 0.387377 0.760782
1.51043 0.189053 2.18077
0.21329 0.0198721 0.622764
0.126977 0.0987892 -0.270432
-0.00252896 -0.0367359 0.0358359
0.00180759 -0.00268313 0.0108281
0.00815834 -0.0074789 0.16076
0.0801873 -0.00806901 1.80186
0.000137191 -0.000141926 0.00123884
0.00127394 0.000231982 0.0183315
0.162953 -0.0238788 1.0245
0.0118185 0.0400279 1.94788
-0.000936041 0.0106887 0.116105
-1.49842e-05 -2.64239e-06 -0.000232843
-0.292108 -0.0829293 0.359733
-0.00477512 -0.00167451 0.175252
0.00171883 0.00490155 0.017357
-0.0478957 0.0460294 0.093394
0 0 0
0.0121614 0.0241695 0.120423
0.00770586 0.02069 0.0598288
0.0114684 0.000313885 0.128086
-0.0117188 -0.00854802 0.195687
-0.00128343 0.000185462 0.0157852
-0.0765113 -0.0041044 1.80143
-0.000117982 -0.000118203 0.00108391
-0.16042 -0.0291361 1.02807
1.09705e-05 -1.94104e-06 -0.000170977
-0.0120564 0.040015 1.95124
0.00093772 0.0107281 0.116898
0.292051 -0.0829158 0.3603
0.0480509 0.0462159 0.0938265
0.00473844 -0.00153868 0.174534
-0.00164599 0.00475947 0.01695
0 0 0
-0.0117462 0.000379345 0.12881
-0.0121296 0.0241187 0.120008
-0.00762024 0.0204529 0.0594342
-0.0503806 -0.0486598 0.439938
0 0 0
1.0721e-07 8.28273e-07 -4.33614e-05
5.59187e-21 -1.00028e-16 1.06374e-16
-0.00611899 -0.0206909 0.210597
0 0 0
0 0 0
-0.00024163 -0.000241636 0.000111389
0 0 0
-0.000259154 -0.00930244 -0.00232407
0.00208865 0.0135925 0.218597
0 0 0
0 0 0
-9.45119e-06 0.00792642 0.0366035
-0.077011 -0.103408 0.420474
-0.021178 0.00939941 0.0562009
0 0 0
-0.000136396 0.00191165 -0.00356421
0.0025882 0.00230364 0.0330197
0 0 0
0 0 0
0.0509322 -0.0489888 0.442202
0 0 0
0.00608852 -0.0207222 0.209465
0.000221328 -0.000260466 0.000121819
0 0 0
0 0 0
-0.00194343 0.0124705 0.207091
0.0210995 0.0093851 0.0560845
0.0762802 -0.102585 0.417052
0 0 0
-0.00264522 0.00236943 0.0338478
-0.00545788 0.0337264 0.342979
0.000225931 8.58526e-05 0.00282643
-0.00188498 -0.0123897 0.127832
0 0 0
0 0 0
-6.02429e-20 1.777e-18 4.93866e-17
0 0 0
0 0 0
-1.16847e-06 3.42836e-05 0.00337709
-1.57567e-05 0.00858893 0.100622
0.0189847 0.0654378 0.270125
-0.0174159 0.0189083 0.208746
0 0 0
-0.000108573 0.415567 0.944956
-2.37672e-05 0.000977536 0.02828
0 0 0
-0.000459637 0.000115639 0.0056925
0.00555417 0.0338959 0.342575
0.00193469 -0.0122687 0.127351
0 0 0
0 0 0
0 0 0
0.0175225 0.0190381 0.210576
-0.0189439 0.0654296 0.270586
-0.0505052 -0.0235161 0.323916
-0.0430087 -0.0151649 0.149928
0 0 0
-0.00356701 -0.0144882 0.0546305
-0.00149124 0.0110988 0.173153
0.00372034 0.0152435 0.091865
-0.00506974 0.0341909 0.341462
0.00676155 0.0162549 0.0661054
0 0 0
0.00176921 0.00446978 0.0260715
0.00253634 0.00136082 0.0336266
0.000673277 -0.000932835 0.00797591
0 0 0
0 0 0
0.00080925 -0.000120834 0.0108113
-0.00199008 -0.00012792 0.0335419
8.62066e-18 3.42604e-18 1.03647e-16
0 0 0