# vtk DataFile Version 2.0
tri_press
ASCII
DATASET UNSTRUCTURED_GRID
POINTS 3682 float
-0.740479 0.235 -1.905
-0.755 0.385 1.96571
-0.695 0.785 -1.903
-0.635 1.145 1.93764
0.740402 0.235 -1.905
0.755 0.385 1.96574
0.695 0.785 -1.90292
0.635 1.145 1.93769
-0.808879 0.221441 -0.614763
-0.817162 0.267997 0.675474
-0.795719 1.02572 -0.622787
-0.757822 1.12782 0.657427
0.808676 0.221592 -0.614753
0.81718 0.267954 0.675493
0.795881 1.02588 -0.622717
0.757828 1.12783 0.657487
-1.52297 -0.227442 -2.92851
-1.52661 -0.150032 -1.90034
-1.57157 -0.146153 -0.609842
-1.5709 -0.122045 0.682674
-1.52308 -0.0344883 1.97334
-1.51279 0.0337248 3.00235
-1.52109 0.0954549 4.02981
-1.51765 0.116847 -2.9311
-1.51963 0.221845 -1.90403
-1.58008 0.248266 -0.615482
-1.56421 0.2802 0.673967
-1.48808 0.362934 1.96271
-1.49189 0.429709 2.99157
-1.51186 0.491247 4.01936
-1.49884 0.75784 -2.93348
-1.48918 0.860769 -1.906
-1.56174 1.03327 -0.62429
-1.51719 1.11611 0.656713
-1.40962 1.15265 1.93862
-1.45053 1.21646 2.9679
-1.49672 1.28279 3.99732
-1.49903 1.86234 -2.94457
-1.49994 1.98384 -1.91859
-1.524 2.17061 -0.640132
-1.52654 2.30984 0.636164
-1.50579 2.3837 1.91473
-1.50463 2.43328 2.94094
-1.51906 2.48908 3.96926
-0.761671 -0.221549 -2.92914
-0.746556 -0.140419 -1.90127
-0.787453 -0.159203 -0.6097
-0.8029 -0.131684 0.683959
-0.775252 -0.0248967 1.97558
-0.772183 0.0398523 3.00387
-0.780128 0.0975212 4.0307
-0.764137 0.114295 -2.93128
-0.765766 0.436425 2.99283
-0.778413 0.493129 4.02004
-0.748829 0.726191 -2.93221
-0.733313 1.21502 2.96772
-0.771403 1.28208 3.99729
-0.738053 1.84114 -2.94332
-0.73261 1.96409 -1.91721
-0.757294 2.16632 -0.639293
-0.775353 2.3145 0.63609
-0.771212 2.38549 1.91405
-0.773302 2.43289 2.94027
-0.785112 2.48836 3.96877
0.746182 -0.221509 -2.92912
0.774377 -0.140375 -1.90126
0.809353 -0.159099 -0.609685
0.801878 -0.131688 0.683982
0.756736 -0.0249014 1.97561
0.723239 0.0398542 3.0039
0.707591 0.0975286 4.03074
0.723342 0.114323 -2.93125
0.700374 0.436426 2.99287
0.692652 0.493135 4.02008
0.710799 0.726219 -2.93216
0.658878 1.21502 2.96777
0.672818 1.28208 3.99733
0.768489 1.8412 -2.94327
0.782177 1.96416 -1.91716
0.77458 2.1664 -0.639239
0.733011 2.31454 0.636141
0.692676 2.38551 1.9141
0.681447 2.43291 2.94031
0.679087 2.48838 3.96882
1.50996 -0.227343 -2.92846
1.53934 -0.149912 -1.9003
1.58777 -0.145985 -0.609797
1.58205 -0.122015 0.682729
1.52339 -0.034491 1.9734
1.4814 0.0337327 3.00242
1.4612 0.0954728 4.02989
1.48709 0.116933 -2.93104
1.51392 0.221949 -1.90398
1.58269 0.248465 -0.615429
1.57686 0.280216 0.674027
1.49956 0.362924 1.96277
1.45481 0.429713 2.99164
1.44231 0.491263 4.01944
1.47085 0.757927 -2.93338
1.48492 0.860875 -1.90589
1.56315 1.03348 -0.624188
1.52525 1.11616 0.656806
1.41491 1.15265 1.9387
1.40295 1.21646 2.96799
1.41415 1.28281 3.9974
1.52382 1.86246 -2.94447
1.53807 1.98397 -1.91848
1.53805 2.17075 -0.640029
1.49536 2.30993 0.636262
1.44278 2.38375 1.91482
1.42417 2.43332 2.94103
1.42123 2.48912 3.96934
-0.794705 0.51 -1.98097
-3.85046e-05 0.227639 -1.91236
-0.783676 0.219223 -1.25988
-0.727181 0.765 1.98386
0 0.367023 1.9837
-0.801932 0.310647 1.32059
0 0.838407 -1.95637
-0.772317 0.932317 -1.26289
0 1.16599 1.95865
-0.704619 1.14462 1.29753
0.794579 0.51 -1.98084
0.783725 0.219109 -1.25988
0.727131 0.765 1.98385
0.800845 0.311722 1.32062
0.772308 0.932308 -1.26282
0.704659 1.14466 1.29759
-0.811751 0.245989 0.030355
-0.887407 0.62358 -0.618775
-0.000101226 0.215056 -0.614758
-0.88639 0.69791 0.66645
8.90764e-06 0.235559 0.675483
-0.77957 1.07957 0.01732
8.06058e-05 1.27811 -0.622752
3.18209e-06 1.54663 0.657457
0.811708 0.245993 0.03037
0.887361 0.623736 -0.618735
0.886404 0.697891 0.66649
0.779557 1.07956 0.017385
-0.883348 0.56679 -1.26139
0.883342 0.566868 -1.26135
-6.98652e-05 0.216282 -1.25988
4.03029e-05 1.00082 -1.26286
-1.92523e-05 0.51 -2.15579
-0.891208 0.660745 0.0238375
0.891188 0.660814 0.0238775
-4.61591e-05 0.232169 0.0303625
4.1894e-05 1.52905 0.0173525
-0.885493 0.731455 1.30906
0.885492 0.731445 1.3091
4.45382e-06 0.27873 1.3206
1.59104e-06 1.44506 1.29756
0 0.765 2.05518
-0.775866 0.3725 -1.95126
-0.370259 0.227897 -1.9121
-0.76425 0.224939 -1.58244
-0.794593 0.575 2.02829
-0.3775 0.370116 1.9806
-0.808384 0.317906 1.64315
-0.733745 0.6475 -1.93088
-0.3475 0.829837 -1.94782
-0.747415 0.872415 -1.58295
-0.704986 0.955 1.98464
-0.3175 1.1645 1.95715
-0.668905 1.14391 1.61759
0.370182 0.227891 -1.91211
0.776051 0.3725 -1.95148
0.764153 0.224965 -1.58244
0.3775 0.370106 1.98063
0.79462 0.575 2.02835
0.808233 0.318051 1.64318
0.3475 0.829812 -1.94775
0.733619 0.6475 -1.93071
0.747388 0.872388 -1.58287
0.3175 1.1645 1.95717
0.704942 0.955 1.98464
0.668692 1.14369 1.61764
-0.801952 0.214657 -0.937323
-0.811431 0.232598 -0.292204
-0.863234 0.414965 -0.616769
-0.406797 0.213635 -0.614761
-0.814701 0.284169 0.998033
-0.816308 0.255141 0.352914
-0.870557 0.473563 0.670962
-0.416131 0.23667 0.675478
-0.786554 0.981554 -0.94284
-0.872793 0.840265 -0.620781
-0.784197 1.0492 -0.302733
-0.443759 1.24379 -0.622769
-0.736518 1.14152 0.97748
-0.857429 0.930527 0.661938
-0.770958 1.10596 0.337373
-0.471425 1.52226 0.657442
0.801857 0.214694 -0.937315
0.405975 0.214949 -0.614756
0.811181 0.232804 -0.292192
0.863219 0.415064 -0.616744
0.814895 0.283956 0.998055
0.416137 0.236671 0.675488
0.816286 0.255132 0.352932
0.870581 0.473528 0.670992
0.786526 0.981526 -0.942768
0.443887 1.24381 -0.622734
0.872705 0.840351 -0.620726
0.784175 1.04917 -0.302666
0.736525 1.14152 0.977538
0.47143 1.52226 0.657472
0.857451 0.930527 0.661988
0.770954 1.10595 0.337436
-0.866179 0.538395 -1.62118
-0.397362 0.51 -2.12073
-5.41849e-05 0.221405 -1.58612
-2.88785e-05 0.36882 -2.07915
-0.884602 0.393007 -1.26063
-0.391873 0.216758 -1.25988
-0.839489 0.748227 1.64646
-0.363591 0.765 2.03939
2.22691e-06 0.304441 1.65215
0 0.566011 2.1567
-0.873342 0.521051 1.31483
-0.400964 0.278729 1.3206
2.01515e-05 0.933597 -1.60961
-9.62615e-06 0.674204 -2.05931
-0.87758 0.749553 -1.26214
-0.386138 0.99022 -1.26287
7.95522e-07 1.24981 1.62811
0 0.965493 2.00158
-0.8319 0.938037 1.3033
-0.352309 1.43165 1.29755
0.866242 0.538434 -1.62109
0.39728 0.51 -2.12073
0.884584 0.392989 -1.26061
0.391828 0.216747 -1.25988
0.839589 0.748223 1.64647
0.363566 0.765 2.03938
0.873335 0.521584 1.31486
0.400425 0.278732 1.32061
0.877497 0.749588 -1.26208
0.386174 0.990207 -1.26284
0.831936 0.938052 1.30335
0.35233 1.43176 1.29757
-0.871229 0.443492 0.0270963
-0.410314 0.230247 0.0303588
-0.888453 0.595185 -0.940081
-0.889598 0.642162 -0.297469
-8.55455e-05 0.212862 -0.937319
-7.36925e-05 0.225284 -0.292198
-0.888895 0.679327 0.345144
-0.880327 0.714682 0.987756
-1.86257e-05 0.234166 0.352923
6.68073e-06 0.239783 0.998044
-0.873948 0.889437 0.0205787
-0.487564 1.49991 0.0173362
6.04544e-05 1.059 -0.942804
6.12499e-05 1.48347 -0.3027
2.2538e-05 1.54808 0.337405
2.38657e-06 1.52139 0.977509
0.871224 0.443515 0.0271237
0.410234 0.230275 0.0303663
0.888456 0.595302 -0.940041
0.889569 0.642275 -0.297429
0.888898 0.679352 0.345184
0.880316 0.714668 0.987796
0.873925 0.889462 0.0206313
0.487601 1.4999 0.0173687
-0.865615 0.382753 -1.60181
-0.88268 0.407758 -0.938702
-0.873729 0.787102 -0.941461
-0.83351 0.698527 -1.60206
0.865614 0.382744 -1.60177
0.833497 0.698544 -1.60198
0.873635 0.787198 -0.941404
0.8826 0.407826 -0.938678
-0.381066 0.221573 -1.58428
0.381005 0.221569 -1.58428
0.398058 0.207593 -0.937317
-0.398181 0.207567 -0.937321
-0.366819 0.926066 -1.59628
-0.391979 1.03132 -0.942822
0.392077 1.0313 -0.942786
0.366837 0.926052 -1.59624
-0.38381 0.37066 -2.03924
-0.372431 0.660852 -2.03712
0.37239 0.660852 -2.03958
0.383731 0.37066 -2.03939
-0.867358 0.429165 -0.294837
-0.872313 0.457817 0.349029
-0.861738 0.908007 0.341259
-0.875331 0.865831 -0.300101
0.86735 0.429225 -0.29481
0.875284 0.86589 -0.300047
0.861735 0.908018 0.34131
0.872189 0.457878 0.349058
-0.407417 0.224217 -0.292201
0.407302 0.224217 -0.292195
0.413764 0.232316 0.352927
-0.413794 0.232316 0.352919
-0.496914 1.43436 -0.302717
-0.485242 1.52258 0.337389
0.485258 1.52257 0.33742
0.497018 1.4344 -0.302683
-0.874553 0.502002 0.992894
-0.859982 0.548026 1.64481
-0.79676 0.946518 1.63202
-0.8503 0.925451 0.982618
0.874551 0.502253 0.992926
0.850329 0.925456 0.982667
0.801781 0.946526 1.63206
0.859941 0.548292 1.64483
-0.40477 0.241682 0.998038
0.40451 0.243531 0.998049
0.388962 0.304077 1.64767
-0.389232 0.304074 1.64765
-0.365609 1.51334 0.977494
-0.334904 1.24482 1.62285
0.334915 1.24482 1.62287
0.365623 1.51334 0.977523
-0.370545 0.570506 2.13636
0.370533 0.570506 2.13635
0.340533 0.960247 2.03514
-0.340545 0.960247 2.03524
-0.748609 0.30375 -1.91856
-0.555369 0.222889 -1.91711
-0.756133 0.226201 -1.74372
-0.785785 0.48 2.00799
-0.56625 0.372089 1.97862
-0.792764 0.340381 1.80443
-0.718063 0.71625 -1.92063
-0.52125 0.816045 -1.93403
-0.728231 0.835731 -1.74297
-0.661515 1.05 1.95266
-0.47625 1.1604 1.95305
-0.656345 1.14885 1.77761
0.555292 0.222885 -1.91712
0.74861 0.30375 -1.91862
0.755984 0.226276 -1.74372
0.56625 0.372095 1.97864
0.785778 0.48 2.00801
0.792899 0.340242 1.80446
0.52125 0.816039 -1.93397
0.718286 0.71625 -1.92079
0.728192 0.835692 -1.74289
0.47625 1.16038 1.95306
0.66147 1.05 1.95267
0.65633 1.14883 1.77766
-0.807784 0.21568 -0.776043
-0.810328 0.226846 -0.453484
-0.830698 0.320882 -0.615766
-0.610514 0.212184 -0.614762
-0.816926 0.275088 0.836753
-0.8164 0.261905 0.514194
-0.833582 0.375919 0.673218
-0.624262 0.237103 0.675476
-0.795351 1.00785 -0.782813
-0.829785 0.930757 -0.621784
-0.784675 1.03218 -0.46276
-0.648882 1.19304 -0.622778
-0.748231 1.13573 0.817453
-0.807693 1.02921 0.659683
-0.767011 1.11951 0.4974
-0.640056 1.37591 0.657434
0.806376 0.217034 -0.776034
0.608741 0.21544 -0.614755
0.81023 0.226896 -0.453473
0.830664 0.32097 -0.615749
0.816947 0.275046 0.836774
0.624263 0.237103 0.675491
0.816388 0.261888 0.514213
0.833604 0.375879 0.673243
0.795314 1.00781 -0.782742
0.648977 1.19303 -0.622726
0.829724 0.930831 -0.621721
[...]
POINT_DATA 3682
SCALARS point_scalars float 1
LOOKUP_TABLE default
-123.696
-50.7391
-56.6968
-38.8417
-124.057
-50.5775
-56.8761
-38.518
-45.8465
-41.7651
-87.5459
-54.9218
-45.458
-41.7609
-87.7059
-54.8453
-0.0325301
-76.3126
-65.5585
-41.5888
-54.9524
-48.8579
-42.964
22.9875
-82.4256
-64.9675
-42.8548
-50.4931
-46.5803
-42.0785
-19.0957
-72.9843
-60.6626
-50.5156
-43.627
-41.1924
-41.668
-42.2405
-41.5629
-124.48
-65.0661
-37.6934
-38.8838
-38.8838
87.4538
-169.779
-47.4378
-42.7406
-51.6863
-42.1853
-40.9537
88.0512
-40.929
-40.6652
137.799
-38.1596
-40.0207
-31.7217
-36.0843
-89.9514
-65.6218
-41.2036
-36.8537
-35.6238
87.3876
-164.868
-45.7227
-42.7782
-51.0767
-42.0731
-40.9023
87.3876
-40.6206
-40.6116
137.768
-37.0729
-39.0985
-31.2543
-37.7356
-92.3189
-65.5382
-42.6346
-35.8491
-35.1689
2.06554
-76.3279
-65.0353
-41.5857
-54.3029
-48.7084
-41.6918
22.9698
-82.3509
-64.4948
-42.8252
-50.2648
-46.4136
-41.9362
4.6108
-73.0716
-60.5062
-50.4731
-43.4533
-40.8846
-41.502
-42.8225
-41.119
-125.212
-65.0909
-37.4969
-38.5809
-38.4141
-48.3813
-155.663
-58.431
-42.7488
-45.7588
-43.8015
-61.5385
-37.519
-34.6908
-46.5292
-48.1788
-58.4403
-42.5204
-43.6592
-37.2699
-46.4155
-41.3487
-51.5187
-49.9964
-46.177
-45.4121
-65.7615
26.3203
-67.7954
-41.1619
-51.4205
-46.1378
-65.6884
-60.7288
-60.7463
-66.0747
5.38296
210.306
-48.1832
-48.1514
-42.5993
-100.196
-47.0774
-46.9609
-47.9585
-41.7281
-37.9955
-73.4071
-180.155
-78.5115
-47.3222
-46.0775
-50.8966
-53.5616
-57.3647
-41.931
-41.2498
-35.1653
-40.3496
-180.737
-73.482
-78.5378
-46.0125
-47.1418
-50.9193
-57.1156
-53.8093
-41.9713
-34.9168
-40.9408
-40.2329
-51.2952
-41.865
-47.8108
-49.3849
-53.6107
-40.512
-42.7854
-44.914
-41.4926
-60.8227
-73.4404
15.4279
-50.3116
-50.4369
-59.0299
-64.571
-52.4727
-49.0801
-41.8002
-47.6465
-53.7522
-44.9679
-40.5225
-42.7553
-41.4554
15.4023
-60.714
-73.3314
-50.262
-64.5257
-50.3932
-58.9531
-69.6118
190.328
-89.0992
71.8216
-59.7339
-64.3024
-49.7463
-38.5733
-48.563
-41.074
-45.9561
-47.2721
-18.9965
171.494
-59.3213
-1.87119
-35.654
-36.7761
-47.3595
-43.3604
-69.4747
190.388
-59.7722
-64.44
-49.6548
-38.4035
-45.885
-47.2566
-59.3121
-1.84868
-47.1408
-43.3038
-43.3908
-42.0886
-52.6967
-49.521
-56.166
-45.2252
-46.6865
-45.3447
-42.7602
-51.251
-56.6493
-93.8377
31.1087
-111.396
-81.0052
-54.7717
-43.3552
-41.876
-52.5932
-49.4563
-46.6426
-45.2886
-56.6173
-93.8013
-66.2373
-50.474
-54.1391
-59.0701
-66.1945
-59.0428
-54.0982
-50.3334
-87.3809
-87.3183
-55.462
-55.2298
-22.9311
19.1998
19.2105
-22.9239
80.2327
160.043
159.733
80.1078
-44.1246
-43.0855
-52.3368
-59.7578
-44.0704
-59.6873
-52.2088
-43.0587
-44.4146
-44.3928
-42.3339
-42.2722
-86.7561
-75.7238
-75.6713
-86.921
-46.2712
-49.9588
-45.7337
-47.789
-46.1915
-47.724
-45.8202
-49.8452
-50.8366
-50.6865
-49.0157
-49.0394
-54.5354
-36.5993
-36.4817
-54.4818
-40.7148
-40.6684
-35.8771
-36.2105
-68.2706
-174.906
-100.189
-48.904
-47.4384
-54.3686
-41.6727
-44.5245
-53.4274
-39.6784
-36.1291
-38.3713
-175.687
-68.45
-100.069
-47.3352
-48.7562
-54.1838
-44.4502
-41.6186
-53.4091
-35.8675
-39.3497
-38.2114
-56.0603
-43.0668
-46.1374
-48.5997
-39.8843
-41.1469
-41.8619
-43.9902
-69.4933
-70.7978
-78.1187
-38.3953
-52.6328
-53.1022
-57.0066
-60.1739
-54.4872
-47.9231
-42.8374
-45.9252
-39.8487
-44.0497
-41.1441
-41.8382
-69.4668
-38.7083
-71.0255
-77.7666
-52.576
-60.0704
-53.0339
-56.9373
-64.6607
-56.8501
-80.5581
151.855
-156.244
-156.78
-111.087
49.7312
-65.7109
-53.7331
-59.9212
-61.6025
-44.4194
-42.4891
-46.4508
-39.1087
-45.6947
-45.6627
-48.3303
-41.8151
-44.3836
-44.2286
-44.9102
-45.4686
-62.9578
-62.8882
-34.0212
102.055
-39.7478
-39.1814
-50.8738
-12.9902
-34.6246
-34.4894
-35.8742
-32.6421
-43.0133
-49.5561
-46.4447
-45.3553
-64.8216
-56.6826
-80.7459
151.954
-65.9836
-54.1125
-59.9801
-61.7982
-44.1987
-42.2169
-46.2164
-38.902
-44.3789
-44.1894
-44.914
-45.4376
-39.7286
-39.1376
-50.8565
-12.9961
-42.8962
-49.4537
-46.3053
-45.2713
-40.9194
-40.1484
-41.7948
-41.1673
-49.6468
-54.9778
-52.3705
-50.8439
-49.8953
-49.8037
-52.8816
-47.1944
-44.1988
-47.9316
-46.2331
-45.8111
-45.2417
-45.2683
-43.7779
-47.4143
-69.3143
-62.1358
-61.979
-79.4111
24.0759
24.0556
42.4468
-15.8097
-67.2305
-67.2085
-74.5052
-62.2622
-41.1514
-40.1694
-41.7529
-40.9099
-49.5276
-54.8887
-52.3279
-50.7557
-44.1648
-47.8888
-46.1976
-45.7616
-69.2401
-62.0587
-61.933
-79.3427
-66.5013
-59.6037
-62.4907
-55.2815
-66.4797
-59.6195
-62.5093
-55.2785
-75.335
-65.7365
-65.8157
-60.1969
-6.81906
3.57658
3.59038
18.1951
203.588
167.219
180.814
203.671
-45.5739
-48.7644
-47.4825
-51.3573
-45.5411
-48.7204
-47.4531
-51.3273
-42.6285
-43.9645
-42.2205
-42.3937
-99.2687
-118.484
-88.2795
-99.2346
-49.8335
-46.6113
-47.8144
-45.09
-49.722
-46.5176
-47.6367
-45.0039
-48.0314
-47.8303
-47.8203
-48.2445
-37.7205
-42.1506
-42.1201
-48.4587
-38.1898
-39.3111
-36.8671
-38.0978
-81.0548
56.524
-112.03
50.8664
-66.5777
-83.3507
-49.1651
-40.725
-49.4253
-41.8957
-51.0161
-49.0929
-78.4635
125.779
-38.6859
110.306
-55.2958
-29.0496
-44.1144
-37.7465
-36.305
-33.985
-43.5404
-37.9182
-111.842
50.6202
-81.0378
56.4082
-66.5147
-83.4021
-49.3818
-41.8588
-48.9518
-40.6345
-50.9553
-49.0586
-38.7235
109.676
-78.474
125.985
-55.3026
-29.0233
-36.1865
-33.5015
-43.8511
-37.4118
-43.4134
-37.7944
-49.5832
-53.4088
-42.3251
-43.3424
-58.8799
-44.9642
-52.3152
-46.517
-47.8342
-52.9837
-41.9625
-41.4664
-43.0897
-42.3794
-43.2705
-47.367
-53.6038
0.106931
-57.4916
-61.135
-67.4866
-112.881
28.7182
-24.9226
-49.14
-53.7847
-51.7259
-48.8645
-56.614
-66.9049
-70.8097
-60.8331
-49.5744
-54.5134
-51.9822
-46.3187
-42.2814
-43.3312
-58.764
-44.8637
-47.9469
-52.8257
-43.3146
-47.4584
-41.9521
-41.5355
-43.0641
-42.3376
-53.5556
0.0410215
28.7678
-24.9808
-57.447
-60.9929
-67.3869
-112.374
-49.0758
-53.719
-70.7616
-60.9453
-51.7193
-48.8193
-56.5636
-66.8215
-69.5431
-64.9968
166.402
165.25
-88.6297
-88.498
77.1191
76.9005
-64.0106
-53.9649
-73.4232
-58.7572
-50.3273
-47.4724
-39.1468
-37.9338
-48.6635
-48.6773
-40.8442
-40.8241
-45.343
-47.7749
-47.5661
-47.7538
-19.7941
-19.7819
168.581
168.152
-55.0131
-58.5485
-11.949
8.44206
-35.9045
-35.8272
-36.4272
-36.5274
-47.218
-47.4487
-49.7171
-38.7918
-69.5966
-65.0401
165.412
166.712
-64.044
-54.0037
-73.4807
-58.9477
-47.5855
-50.2206
-39.0288
-37.7151
-45.3418
-47.7221
-47.5427
-47.7368
-58.5834
-54.9872
8.51415
-11.9617
-47.341
-47.0355
-38.7113
-49.6649
-43.5857
-43.1655
-43.1504
-41.6673
-51.1632
-54.3164
-46.5453
-53.4695
-56.0865
-56.0733
-45.0343
-45.0343
-44.6641
-48.592
-45.6252
-46.2079
-42.6529
-42.6244
-51.1322
-51.0969
-54.9068
-58.1867
-114.893
-81.9522
28.1509
28.1933
-105.955
-105.898
-79.4418
-79.4153
-54.9126
-54.8837
-43.5461
-43.1555
-43.2704
-41.6996
-54.262
-51.0081
-46.4844
-53.4037
-48.4136
-44.6318
-45.5226
-46.1442
-58.1393
-54.8836
-81.8872
-114.782
-84.517
-64.9366
-64.9118
-79.1841
-65.3813
-55.2152
-54.5989
-53.5932
-62.6311
-50.527
-56.3032
-54.1317
-70.679
-84.2726
-66.9464
-51.4758
-84.4656
-79.1572
-64.926
-65.017
-70.6332
-51.4925
-66.8896
-84.3545
-62.6181
-54.0682
-56.2834
-50.4956
-64.8623
-53.7612
-54.6272
-55.1255
-109.195
-110.957
-74.8773
-69.6076
-108.817
-69.7493
-74.8901
-110.852
-51.1689
-52.6442
-59.9262
-56.8463
-52.0971
-56.4695
-59.8504
-52.7098
-45.0537
-20.1423
-8.05121
-34.8495
2.68447
38.5974
15.7834
-5.66095
2.72156
-5.69853
15.8016
38.9836
-45.1189
-34.8394
-8.04411
-20.1462
59.7995
138.937
168.706
52.5763
73.2473
119.979
176.348
116.441
73.344
116.573
176.526
120.713
59.7337
52.8851
168.714
138.956
-43.0566
-41.8573
-45.9648
-47.6242
-42.1811
-44.2687
-45.0747
-41.8432
-54.6621
-59.2146
-50.3281
-48.3404
-69.3298
-54.6766
-52.3374
-64.8596
-42.95
-47.5327
-45.9211
-41.8219
-68.9096
-64.8027
-52.2892
-54.5791
-54.6177
-48.3418
-50.3203
-59.1579
-42.1652
-41.8469
-45.0488
-44.2369
-45.4004
-47.0559
-43.6831
-42.163
-45.0477
-42.3733
-43.8307
-46.9942
-42.671
-43.7558
-42.1086
-40.8869
-42.6223
-40.8518
-42.0749
-43.7299
-102.143
-91.2081
-118.744
-17.9895
-63.8195
-73.8677
-86.5952
-71.7955
-63.7297
-71.7071
-86.5712
-73.8433
-103.068
-18.0559
-118.671
-91.1573
-39.8763
-45.0218
-45.4689
-43.8243
-51.298
-47.4706
-48.2452
-46.5812
-42.4721
-45.115
-49.3363
-45.5821
-51.4791
-46.9998
-46.3789
-48.3213
-39.8303
-43.7817
-45.446
-44.9844
-51.4341
-48.246
-46.2702
-46.9498
-42.2452
-45.2995
-49.1608
-45.017
-51.0624
-46.5826
-48.1533
-47.0226
-47.2609
-47.4147
-48.0957
-45.5621
-47.3863
-45.4745
-48.0755
-47.4382
-51.6443
-48.6059
-47.9761
-46.6431
-51.711
-46.6831
-47.986
-48.6281
-55.9046
-50.3113
-48.8231
-62.0414
-36.7264
-36.0206
-37.9946
-40.4758
-36.5871
-40.3812
-37.95
-35.9475
-55.8597
-62.0162
-48.7996
-50.2306
-42.0901
-41.8283
-39.2719
-39.3543
-41.9815
-39.1975
-39.2294
-41.7943
-36.0999
-32.5475
-36.8354
-38.5421
-36.536
-38.7813
-36.9284
-32.8084
-92.3877
-149.703
-134.385
-49.8166
-48.9016
-52.2025
-46.8748
-37.8927
-64.5033
-40.1232
-36.8861
-38.2227
-151.331
-92.8079
-134.046
-48.7852
-49.6803
-52.1288
-38.5508
-47.4724
-64.5487
-36.5854
-39.7658
-38.0088
-49.825
-43.9352
-45.3209
-47.9098
-42.0478
-41.3521
-41.6296
-42.5224
-90.3719
-78.1393
-82.9016
-101.139
-53.7622
-54.3801
-56.1795
-57.6172
-49.1226
-47.195
-43.7425
-45.1248
-42.0378
-42.5597
-41.3504
-41.6094
-90.369
-101.496
-78.5415
-82.4647
-53.6977
-57.5213
-54.2906
-56.1066
-57.3547
-43.7748
-106.475
95.0801
-155.358
-155.73
-129.369
-37.0255
-61.5059
-54.9542
-59.9576
-59.6499
-41.9081
-42.6923
-45.6511
-40.0688
-45.5824
-45.5646
-46.841
-43.1916
-44.5326
-44.523
-43.1558
-44.714
-62.8658
-62.9966
-42.1599
12.927
-38.6065
-36.4456
-46.5187
-20.9278
-34.5556
-34.5561
-36.5551
-31.676
-44.7673
-48.3134
-46.2836
-45.9778
-57.4731
-43.0416
-106.985
95.258
-61.6015
-55.1219
-60.0345
-59.8152
-41.6961
-42.4446
-45.3962
-39.876
-44.2764
-44.827
-43.4178
-44.6404
-38.6314
-36.4653
-46.6624
-20.9501
-44.6508
-48.2027
-46.184
-45.8737
-41.112
-39.7789
-40.9468
-40.5589
-50.5775
-52.98
-52.5386
-51.2043
-50.0024
-49.9648
-51.1888
-48.5774
-45.1954
-46.8379
-46.2473
-45.9899
-45.3443
-45.3573
-44.4135
-46.4374
-67.5487
-63.8751
-63.6452
-72.6027
25.8517
25.8783
38.5753
10.2618
-67.6441
-67.6328
-70.8502
-65.1119
-41.1502
-39.7739
-40.876
-40.2219
-50.4755
-52.8847
-52.4453
-51.113
-45.1653
-46.7967
-46.2115
-45.9412
-67.4777
-63.8006
-63.5861
-72.5205
-63.6677
-60.0578
-61.4113
-57.745
-63.6959
-60.0603
-61.4348
-57.7586
-70.2711
-65.9091
-65.9527
-62.8742
-0.260589
4.90967
4.91658
12.144
199.896
199.516
195.611
199.929
-46.7001
-48.4322
-47.8523
-49.6745
-46.6667
-48.3958
-47.8229
-49.6427
-42.7325
-43.4155
-42.2145
-42.5208
-99.9899
-109.415
-93.5312
-99.9769
-48.4511
-46.8065
-47.4157
-46.0461
-48.3209
-46.7062
-47.27
-45.9456
-47.8491
-47.9324
-47.9265
-48.013
-39.3254
-41.8119
-41.7986
-45.8074
-38.0538
-37.7888
-37.4659
-38.0098
-69.0537
-72.5532
-100.848
25.3309
-184.356
-161.951
-135.781
-13.9718
-88.1621
-73.0789
-74.9522
-80.3595
-48.0908
-46.4147
-48.046
-41.7927
-46.5599
-45.9147
-47.669
-43.6399
-54.3581
-45.2478
-51.4776
-49.2205
-48.1849
-52.6836
-96.1382
74.0064
-57.3102
-62.9667
-50.0842
31.8584
-46.8661
-38.8899
-51.3636
-33.3986
-40.2723
-42.0269
-43.7087
-38.7787
-35.5385
-34.7945
-36.5641
-33.7527
-38.6447
-41.3867
-42.0734
-38.8873
-185.044
-162.438
-135.093
-14.3439
-69.1757
-72.6734
-100.862
25.2972
-88.1489
-73.1005
-74.9634
-80.4214
-46.4786
-45.8669
-47.6151
-43.5668
-47.9215
-46.2223
-47.8583
-41.6603
-53.983
-45.2962
-51.6239
-49.156
-55.5832
-63.1734
-50.1291
31.705
-48.3605
-52.7824
-96.2017
74.1476
-46.8694
-38.8963
-51.4062
-33.3844
-35.2854
-34.5443
-36.4784
-33.2555
-39.9445
-41.734
-43.3905
-38.4828
-38.5266
-41.2358
-41.9584
-38.7688
-54.6522
-52.2747
-48.3819
-52.6478
-42.5084
-41.998
-41.527
-42.8634
-46.9058
-48.4517
-53.8173
-45.9282
-49.06
-49.6791
-50.575
-47.8873
-49.6431
-48.0898
-49.1727
-53.8602
-41.056
-40.4649
-41.3782
-40.7771
-42.1965
-43.5435
-42.8898
-42.7141
-44.5352
-45.1017
-44.0044
-46.0345
-48.7927
-39.4585
-55.1459
-14.8484
-65.0864
-57.4927
-59.314
-60.9263
-75.4886
-71.3107
-70.5207
-87.6973
1.30544
21.1748
25.3779
-4.94337
-51.4936
-49.9073
-49.7167
-52.4455
-51.8164
-49.0123
-51.0309
-49.6813
-57.7551
-60.5098
-57.8206
-63.2719
-63.3285
-66.3838
-67.4972
-63.0679
-54.6401
-53.0683
-48.633
-53.8358
-48.5825
-49.5083
-50.2909
-47.6166
-42.4206
-42.0373
-41.4856
-42.7949
-46.7105
-48.3131
-53.6141
-45.7965
-49.6148
-48.1382
-49.1374
-53.8297
-44.5969
-45.1426
-44.0521
-46.1002
-41.0576
-40.4882
-41.3762
-40.8172
-42.1684
-43.5098
-42.8642
-42.6783
-48.7074
-39.4151
-55.1034
-14.8431
1.34653
21.2703
25.436
-5.03426
-65.0215
-57.4046
-59.2478
-60.7695
-75.3522
-71.2085
-70.4129
-87.4345
-51.4386
-49.8389
-49.6591
-52.3702
-63.2494
-66.3526
-67.4481
-63.1139
-51.7756
-48.9689
-51
-49.6355
-57.68
-60.4325
-57.7535
-63.1812
-70.9831
-69.3844
-70.1713
-67.6615
178.932
194.827
186.353
180.549
-98.6343
-81.2633
-89.1049
-89.0135
98.2305
121.103
72.3364
72.4301
-60.1591
-59.3727
-61.0359
-56.4511
-63.4942
-65.0047
-68.5154
-61.098
-47.7331
-51.47
-50.8223
-48.4561
-38.8765
-38.4341
-38.2856
-38.5386
-48.9429
-48.3575
-48.5874
-48.5946
-41.0851
-40.9022
-41.0402
-41.0318
-45.3266
-46.3647
-45.4915
-47.2968
-46.5764
-47.6337
-47.2833
-47.3174
-25.7753
-12.7041
-19.1996
-19.1937
147.403
183.537
169.995
170.089
-55.1224
-62.9815
-57.3639
-59.2694
-6.80768
1.67239
-7.21856
2.37461
-35.4525
-36.5958
-35.7276
-35.6867
-35.4583
-36.4475
-36.7409
-36.7952
-46.9022
-47.8191
-47.4574
-47.462
-43.9661
-42.5665
-46.8661
-40.3233
-70.7849
-69.4265
-70.2124
-67.6836
178.964
194.914
180.648
186.483
-60.2088
-59.4013
-61.0681
-56.4949
-63.6622
-65.1103
-68.6218
-61.2646
-47.5481
-51.3798
-48.4519
-50.6979
-38.6834
-38.2996
-38.1063
-38.3603
-45.2849
-46.2757
-45.4221
-47.2359
-46.5553
-47.6215
-47.2677
-47.3013
-55.1156
-62.9716
-59.2917
-57.3418
-6.7941
1.69349
2.40728
-7.19241
-46.7215
-47.6072
-47.3158
-47.0219
-43.8897
-42.5176
-40.2663
-46.8107
-42.4955
-44.3968
-43.4677
-43.2961
-41.6591
-42.4484
-42.7207
-41.6437
-52.4887
-53.3758
-51.8696
-53.5677
-50.1503
-49.1115
-48.0883
-51.3438
-54.6031
-58.0842
-56.4058
-56.4002
-46.3236
-44.3673
-45.1753
-45.1789
-46.5375
-47.0752
-45.3606
-47.5888
-45.5149
-44.6342
-45.3793
-45.6811
-43.2113
-42.4438
-42.7382
-42.7225
-48.7979
-50.0243
-51.235
-51.2216
-59.4421
-53.6935
-55.8894
-57.2425
-87.5775
-97.4451
-104.683
-86.6787
39.7536
24.3398
30.1554
30.1111
-49.839
-132.174
-109.913
-109.937
-78.459
-84.1738
-80.5365
-80.5247
-58.7088
-51.0319
-54.8493
-54.8313
-42.4555
-44.3646
-43.4275
-43.2652
-41.4398
-42.2056
-42.5693
-41.6583
-52.4092
-53.3402
-53.4946
-51.6921
-50.0721
-49.0599
-48.0236
-51.2837
-46.4984
-47.0413
-47.5305
-45.3254
-45.4659
-44.5689
-45.3246
-45.6226
-59.4053
-53.6639
-57.2046
-55.8633
-87.5521
-97.3971
-86.6221
-104.688
-68.1824
-65.6408
-68.5213
-69.6622
-50.4904
-52.8107
-52.3599
-50.7252
-53.5104
-55.879
-54.0001
-54.5512
-66.6482
-57.3187
-61.1951
-58.1784
-68.2047
-65.5784
-68.5577
-69.7028
-66.5702
-57.2995
-61.2032
-58.2718
-53.4652
-55.8367
-53.9662
-54.5059
-50.3975
-52.6899
-52.3673
-50.5203
-97.5486
-85.8944
-88.2928
-79.2814
-97.7389
-85.9044
-88.1914
-79.2727
-55.0403
-54.0258
-56.8146
-55.8637
-54.3367
-54.217
-56.6071
-55.8234
-29.863
-25.7626
-21.1366
-17.4826
11.0772
24.6793
14.6596
24.6233
10.9297
24.7474
14.7287
24.7082
-29.866
-25.7465
-21.1188
-17.4827
67.422
92.8642
120.872
75.9249
150.165
141.8
168.2
160.794
140.786
149.883
160.751
168.281
92.6005
67.434
75.5481
121.605
-43.0255
-44.4038
-43.7792
-45.1832
-42.4571
-43.2017
-43.0726
-43.9086
-51.7763
-54.8232
-50.3402
-54.4019
-60.4663
-63.0959
-56.1555
-58.9918
-42.9774
-44.3294
-43.7364
-45.1254
-60.3687
-63.0189
-56.0891
-58.9314
-51.7653
-54.7641
-50.1536
-54.3383
-42.4377
-43.1659
-43.072
-43.8764
-43.9115
-45.5532
-43.5317
-44.8015
-45.4282
-43.8895
-44.7988
-43.5986
-42.86
-41.9725
-42.5177
-41.886
-41.9018
-42.8184
-41.8164
-42.4782
-105.264
-55.2386
-115.065
-100.915
-74.0298
-73.4814
-78.0143
-77.8738
-73.4277
-73.9598
-77.8338
-77.9581
-55.2351
-105.089
-100.908
-114.985
-47.0126
-44.5758
-45.5342
-45.8106
-50.0957
-50.5839
-49.7047
-48.8252
-44.8453
-44.9342
-46.5138
-46.5919
-48.566
-48.2777
-47.6304
-46.9766
-47.019
-44.5287
-45.5351
-45.6878
-48.511
-48.2251
-47.5459
-46.9079
-44.9841
-44.8003
-46.7083
-46.4526
-49.911
-50.4405
-49.6079
-48.7529
-51.0403
-49.1226
-49.5522
-50.816
-50.8851
-49.3385
-49.3224
-50.7184
-49.9292
-49.4228
-48.8049
-48.3838
-49.9659
-49.4504
-48.8241
-48.4036
-54.6466
-57.9222
-51.874
-54.6712
-36.1898
-37.1011
-36.1861
-37.4663
-36.0597
-36.972
-36.083
-37.4016
-54.5959
-57.8394
-51.8263
-54.6296
-40.6511
-40.9325
-40.694
-40.7973
-40.8787
-40.585
-40.7657
-40.6529
-34.5152
-36.5344
-35.4453
-36.9529
-36.902
-34.9294
-37.223
-35.6437
-107.175
42.0484
-138.179
-10.271
-88.4397
-105.175
-49.8281
-43.5543
-48.8919
-44.5672
-53.1246
-53.5555
-88.8872
55.2008
-54.9947
20.4064
-64.7821
-47.8215
-41.7509
-37.7129
-36.4592
-36.2551
-41.1708
-37.0396
-137.668
-10.5083
-107.11
41.6381
-88.3098
-104.725
-48.8089
-44.3087
-49.6637
-43.4184
-52.814
-53.4785
-55.6827
20.2791
-89.045
55.5514
-64.7536
-47.8421
-36.3172
-35.8227
-41.4401
-37.3584
-40.9594
-36.9023
-62.9759
-52.4017
-42.4893
-44.5377
-52.7617
-43.9955
-49.7964
-46.9538
-39.5938
-47.4666
-41.7982
-41.9571
-42.126
-41.3913
-43.3497
-45.4301
-71.9985
-25.4101
-68.3554
-70.2662
-74.3284
-107.259
-6.16796
-61.4378
-52.5131
-54.4264
-53.7431
-52.1395
-55.8548
-60.7021
-62.0753
-57.8263
-62.1709
-51.1603
-49.0409
-46.4836
-42.3714
-44.1359
-52.5289
-43.8427
-39.5539
-47.547
-43.402
-45.5094
-41.7847
-41.9904
-42.1171
-41.3561
-71.9999
-25.3117
-6.21703
-62.7889
-68.3489
-69.9826
-73.7332
-106.774
-52.4626
-54.3422
-61.9826
-57.7291
-53.7318
-52.0647
-55.799
-60.6049
-101.877
85.1796
-92.3403
60.0885
-79.3773
-82.6759
153.145
143.887
-130.455
-38.11
-129.787
-38.6428
-111.18
-110.962
92.5021
92.3875
-65.5159
-67.1335
-53.6207
-55.1535
-60.9443
-55.9909
-65.4744
-59.0094
-45.7248
-40.2
-45.0776
-39.665
-46.6504
-46.0725
-38.8467
-39.1092
-47.0608
-43.2751
-47.0358
-43.2359
-48.5933
-48.6049
-41.8225
-41.805
-45.5289
-45.454
-44.5341
-43.9652
-45.3914
-46.1779
-45.0985
-45.5642
-43.3548
25.1793
-43.2506
27.7596
-34.1573
-34.147
113.083
113.017
-49.1504
-26.1565
-49.3529
-17.2087
-50.2998
-51.3015
-16.055
-8.95837
-36.5817
-32.1068
-36.5318
-31.8273
-35.9182
-35.8812
-32.5704
-32.7022
-44.3585
-41.8847
-48.881
-50.1786
-45.9365
-47.3995
-48.8563
-42.477
-101.976
85.0581
-92.5232
60.0874
-79.3937
-83.0544
143.913
153.217
-65.6642
-67.3087
-53.8453
-55.6232
-60.9852
-56.1106
-65.6468
-59.2749
-45.4801
-40.0166
-44.7876
-39.4314
-45.8116
-46.4078
-38.6274
-38.8983
-45.4961
-45.4242
-44.4497
-43.8918
-45.3163
-46.2067
-45.0585
-45.529
-49.1298
-26.1575
-49.3193
-17.2248
-51.3632
-50.2971
-8.96127
-16.0584
-44.2374
-41.7781
-48.8112
-50.0852
-47.282
-45.7826
-42.3901
-48.7711
-41.0845
-41.5094
-41.0912
-40.203
-41.7284
-41.7919
-41.7833
-40.669
-53.8055
-48.4183
-54.644
-54.8751
-52.7822
-53.0352
-49.3231
-52.6197
-50.9466
-48.4684
-50.8625
-48.3856
-52.8434
-52.8702
-47.1895
-47.1634
-44.2112
-43.9108
-47.8653
-47.4029
-44.9956
-47.0522
-45.1129
-46.3024
-44.3827
-46.2475
-44.3895
-46.2737
-43.7738
-43.7597
-47.4399
-47.4477
-66.6848
-79.3424
-60.6473
-67.1835
-60.6855
-63.35
-84.7112
-75.1228
36.7838
8.78297
36.8148
8.80006
41.3639
41.0792
-16.1733
-16.148
-70.3203
-64.7252
-70.2988
-64.7014
-74.3711
-74.36
-62.2409
-62.228
-41.0878
-41.8103
-41.1044
-40.2438
-41.6627
-41.7783
-41.6345
-40.6929
-53.6832
-48.3141
-54.5622
-54.7763
-52.9765
-52.7417
-49.2343
-52.5298
-44.1766
-43.8689
-47.8305
-47.3562
-47.0207
-44.9612
-45.0615
-46.2523
-66.6232
-79.2311
-60.5772
-67.1
-63.3013
-60.6375
-75.0436
-84.6502
-65.6609
-67.6065
-61.8556
-57.1091
-58.6435
-65.6224
-54.9735
-55.5644
-65.6634
-67.5222
-61.8702
-57.142
-65.6256
-58.6417
-55.5518
-54.9906
-75.2334
-75.2355
-69.7519
-62.3189
-69.8109
-62.4007
-60.156
-60.1185
-6.96832
-6.96368
-1.76816
9.77367
9.78913
-1.75675
17.3925
17.401