# vtk DataFile Version 2.0
tet_velo
ASCII
DATASET UNSTRUCTURED_GRID
POINTS 29498 float
-0.757643 0.135 -1.575
-0.895 0.135 1.47171
-0.815 0.570852 -1.315
-0.823108 0.665 1.465
0.757643 0.135 -1.575
0.895 0.135 1.47171
0.815 0.570852 -1.315
0.823108 0.665 1.465
-0.769686 0.168743 -0.55943
-0.842249 0.141965 0.45614
-0.76183 0.546362 -0.388333
-0.809601 0.622813 0.538333
0.769686 0.168743 -0.55943
0.842278 0.141936 0.45614
0.761828 0.54636 -0.388333
0.809442 0.622654 0.538333
-1.53126 -0.0816874 -2.43135
-1.53566 -0.0710734 -1.6545
-1.56114 -0.055389 -0.636629
-1.63483 -0.0795605 0.399132
-1.6914 -0.095098 1.41851
-1.70198 -0.0849037 2.20274
-1.69902 -0.0665099 2.97331
-1.53392 0.12941 -2.33331
-1.53585 0.133982 -1.56617
-1.55739 0.159245 -0.5656
-1.64553 0.154795 0.442972
-1.70603 0.150823 1.44525
-1.71362 0.161956 2.22822
-1.70723 0.178438 3.00169
-1.55828 0.554009 -2.11228
-1.57043 0.555289 -1.34146
-1.55585 0.561742 -0.401501
-1.62013 0.623854 0.532163
-1.66005 0.659383 1.47383
-1.68987 0.667492 2.26048
-1.69954 0.674594 3.04829
-1.58288 1.184 -1.84758
-1.58881 1.19022 -1.09008
-1.58787 1.21895 -0.17894
-1.6034 1.2869 0.713037
-1.62995 1.34858 1.6251
-1.65167 1.37524 2.38455
-1.66957 1.38868 3.16264
-0.751638 -0.0794279 -2.43708
-0.759209 -0.067855 -1.66286
-0.768932 -0.0492552 -0.635507
-0.815321 -0.0882777 0.410371
-0.855504 -0.107663 1.43816
-0.867415 -0.0931772 2.21607
-0.868135 -0.0712218 2.98102
-0.750968 0.132225 -2.33507
-0.884388 0.155339 2.23921
-0.877868 0.174988 3.00751
-0.772103 0.560073 -2.10128
-0.865562 0.668927 2.25871
-0.874768 0.675157 3.04791
-0.797167 1.18398 -1.83671
-0.804463 1.18806 -1.0781
-0.796552 1.21396 -0.171721
-0.798705 1.28726 0.712171
-0.815735 1.35331 1.61892
-0.834302 1.37978 2.37837
-0.851313 1.39196 3.15815
0.79289 -0.0794345 -2.43708
0.771107 -0.0678589 -1.66286
0.790361 -0.0492645 -0.635507
0.84882 -0.0883043 0.410371
0.880372 -0.107676 1.43816
0.842492 -0.0931932 2.21607
0.813577 -0.0712442 2.98102
0.797583 0.132221 -2.33507
0.831103 0.155328 2.23921
0.804466 0.174967 3.00751
0.809073 0.560068 -2.10129
0.805879 0.668911 2.25872
0.791752 0.675132 3.04791
0.778273 1.18396 -1.83671
0.770182 1.18804 -1.0781
0.780634 1.21392 -0.171721
0.803539 1.28719 0.712171
0.809704 1.35325 1.61892
0.801447 1.37973 2.37837
0.788636 1.39193 3.15815
1.56803 -0.0817053 -2.43135
1.54816 -0.071089 -1.6545
1.57415 -0.0554248 -0.636629
1.65512 -0.0796249 0.399132
1.70451 -0.09514 1.41851
1.68139 -0.0849451 2.20274
1.64991 -0.0665592 2.97331
1.56944 0.129395 -2.33331
1.54005 0.133973 -1.56617
1.55592 0.159207 -0.5656
1.64582 0.15471 0.442972
1.70338 0.150788 1.44525
1.67449 0.161919 2.22822
1.6425 0.178389 3.00169
1.58254 0.553993 -2.11228
1.56811 0.555278 -1.34146
1.54956 0.56169 -0.401501
1.61638 0.623687 0.532163
1.65292 0.659323 1.47383
1.64307 0.667444 2.26048
1.62481 0.674538 3.04829
1.566 1.18396 -1.84758
1.55953 1.19017 -1.09008
1.57107 1.21887 -0.17894
1.60199 1.28678 0.713037
1.61919 1.34847 1.6251
1.61715 1.37515 2.38455
1.60742 1.3886 3.16264
-0.798411 0.352926 -1.45709
0 0.131281 -1.57872
-0.782159 0.133377 -1.06722
-0.896265 0.4 1.50557
0 0.150741 1.45597
-0.872463 0.134644 0.963925
0 0.646605 -1.39075
-0.817758 0.58795 -0.851667
0 0.794676 1.59468
-0.84897 0.676522 1.00167
0.798424 0.352926 -1.4571
0.78216 0.133376 -1.06722
0.896266 0.4 1.50557
0.872464 0.134643 0.963925
0.81765 0.587842 -0.851667
0.848934 0.676486 1.00167
-0.746375 0.214947 -0.051645
-0.762025 0.357552 -0.473882
0 0.130935 -0.55943
-0.759196 0.382389 0.497237
1.46549e-05 0.131049 0.45614
-0.749435 0.548306 0.075
-7.42838e-07 0.945945 -0.388333
-7.97616e-05 0.922176 0.538333
0.746333 0.214989 -0.051645
0.762017 0.357551 -0.473882
0.759196 0.382295 0.497237
0.749434 0.548306 0.075
-0.823029 0.355239 -0.959441
-0.736238 0.369971 0.0116775
-0.897377 0.391195 0.982796
0 0.130765 -1.06722
7.32746e-06 0.13113 -0.051645
7.32746e-06 0.130864 0.963925
0 0.352926 -1.73159
0 0.4 1.8006
-3.71419e-07 0.770414 -0.851667
-4.02522e-05 1.01736 0.075
-3.98808e-05 0.900327 1.00167
0.823028 0.355239 -0.959441
0.736198 0.369923 0.0116775
0.897376 0.391147 0.982796
-1.14675 0.134491 -1.57059
-0.758426 0.0335725 -1.61893
-0.754306 0.133613 -1.95504
-1.30052 0.142911 1.45848
-0.875252 0.0136685 1.45493
-0.889694 0.14517 1.85546
-1.19271 0.56307 -1.32823
-0.793552 0.565463 -1.70814
-0.809731 0.879457 -1.19655
-1.24158 0.662191 1.46941
-0.844335 0.666964 1.86186
-0.819422 1.00915 1.54196
0.764375 0.0335705 -1.61893
0.777613 0.13361 -1.95504
1.14885 0.134486 -1.57059
0.887686 0.0136621 1.45493
0.863051 0.145164 1.85546
1.29919 0.142894 1.45848
0.812036 0.56546 -1.70814
0.792591 0.879446 -1.19655
1.19155 0.563065 -1.32823
0.814493 0.666956 1.86186
0.816406 1.00913 1.54196
1.23802 0.662161 1.46941
-1.16354 0.163994 -0.562515
-0.769309 0.0597438 -0.597468
-1.24389 0.14838 0.449556
-0.828785 0.0268438 0.433255
-1.15884 0.554052 -0.394917
-0.779191 0.880161 -0.280027
-1.21487 0.623334 0.535248
-0.804153 0.955035 0.625252
0.780024 0.0597391 -0.597468
1.1628 0.163975 -0.562515
0.845549 0.0268158 0.433255
1.24405 0.148323 0.449556
0.771231 0.88014 -0.280027
1.15569 0.554025 -0.394917
0.80649 0.954924 0.625252
1.21291 0.62317 0.535248
-1.53346 -0.0763804 -2.04292
-1.53259 0.0238611 -2.38233
-1.14145 -0.0805577 -2.43421
-1.5484 -0.0632312 -1.14556
-1.53575 0.0314543 -1.61033
-1.14743 -0.0694642 -1.65868
-1.59799 -0.0674747 -0.118749
-1.55927 0.0519278 -0.601115
-1.16504 -0.0523221 -0.636068
-1.66311 -0.0873292 0.908819
-1.64018 0.0376175 0.421052
-1.22507 -0.0839191 0.404751
-1.69669 -0.0900008 1.81062
-1.69872 0.0278625 1.43188
-1.27345 -0.10138 1.42833
-1.7005 -0.0757068 2.58802
-1.7078 0.0385261 2.21548
-1.2847 -0.0890404 2.2094
-1.70312 0.0559639 2.9875
-1.28358 -0.0688658 2.97716
-1.53488 0.131696 -1.94974
-1.5461 0.341709 -2.22279
-1.14244 0.130817 -2.33419
-1.54662 0.146613 -1.06589
-1.55314 0.344635 -1.45382
-1.60146 0.15702 -0.0613142
-1.55662 0.360493 -0.483551
-1.67578 0.152809 0.944109
-1.63283 0.389325 0.487568
-1.70983 0.156389 1.83673
-1.68304 0.405103 1.45954
-1.71042 0.170197 2.61495
-1.70175 0.414724 2.24435
-1.299 0.158648 2.23372
-1.70339 0.426516 3.02499
-1.29255 0.176713 3.0046
-1.56436 0.554649 -1.72687
-1.57058 0.869004 -1.97993
-1.16519 0.557041 -2.10678
-1.56314 0.558515 -0.871483
-1.57962 0.872753 -1.21577
-1.58799 0.592798 0.0653308
-1.57186 0.890347 -0.290221
-1.64009 0.641619 1.003
-1.61176 0.955375 0.6226
-1.67496 0.663438 1.86716
-1.645 1.00398 1.54947
-1.69471 0.671043 2.65438
-1.67077 1.02136 2.32251
-1.27772 0.66821 2.2596
-1.68456 1.03164 3.10546
-1.28716 0.674875 3.0481
-1.58584 1.18711 -1.46883
-1.19002 1.18399 -1.84214
-1.58834 1.20458 -0.634509
-1.19663 1.18914 -1.08409
-1.59563 1.25292 0.267048
-1.19221 1.21646 -0.17533
-1.61667 1.31774 1.16907
-1.20105 1.28708 0.712604
-1.64081 1.36191 2.00483
-1.22284 1.35094 1.62201
-1.66062 1.38196 2.77359
-1.24298 1.37751 2.38146
-1.26044 1.39032 3.16039
-0.755423 -0.0736415 -2.04997
-0.751303 0.0263987 -2.38608
0.0206264 -0.0794312 -2.43708
-0.76407 -0.0585551 -1.14919
0.00594913 -0.067857 -1.66286
-0.792126 -0.0687664 -0.112568
0.0107145 -0.0492598 -0.635507
-0.835412 -0.0979703 0.924263
0.0167494 -0.088291 0.410371
-0.86146 -0.10042 1.82711
0.0124339 -0.107669 1.43816
-0.867775 -0.0821995 2.59855
-0.875902 0.0310811 2.22764
-0.0124617 -0.0931852 2.21607
-0.873002 0.0518831 2.99427
-0.0272791 -0.071233 2.98102
-0.761536 0.346149 -2.21818
0.0233076 0.132223 -2.33507
-0.881128 0.165164 2.62336
-0.874975 0.412133 2.24896
-0.0266425 0.155334 2.23921
-0.876318 0.425072 3.02771
-0.0367013 0.174977 3.00751
-0.784635 0.872027 -1.969
0.0184847 0.560071 -2.10128
-0.870165 0.672042 2.65331
-0.849932 1.02435 2.31854
-0.0298414 0.668919 2.25871
-0.86304 1.03356 3.10303
-0.0415081 0.675144 3.04791
-0.800815 1.18602 -1.4574
-0.0094469 1.18397 -1.83671
-0.800508 1.20101 -0.624912
-0.0171403 1.18805 -1.0781
-0.797629 1.25061 0.270225
-0.00795916 1.21394 -0.171721
-0.80722 1.32028 1.16554
0.00241687 1.28723 0.712171
-0.825019 1.36654 1.99864
-0.00301583 1.35328 1.61892
-0.842807 1.38587 2.76826
-0.0164273 1.37975 2.37837
-0.0313382 1.39195 3.15815
0.781999 -0.0736467 -2.04997
0.795237 0.0263931 -2.38608
1.18046 -0.0805699 -2.43421
0.780734 -0.0585617 -1.14919
1.15963 -0.069474 -1.65868
0.81959 -0.0687844 -0.112568
1.18226 -0.0523446 -0.636068
0.864596 -0.09799 0.924264
1.25197 -0.0839646 0.404751
0.861432 -0.100434 1.82711
1.29244 -0.101408 1.42833
0.828034 -0.0822187 2.59855
0.836797 0.0310672 2.22764
1.26194 -0.0890691 2.2094
0.809021 0.0518612 2.99427
1.23174 -0.0689017 2.97716
0.803328 0.346144 -2.21818
1.18351 0.130808 -2.33419
0.817784 0.165147 2.62336
0.818491 0.412119 2.24896
1.2528 0.158623 2.23372
0.798109 0.425049 3.02771
1.22348 0.176678 3.0046
0.793673 0.872015 -1.969
1.19581 0.557031 -2.10678
0.798815 0.672021 2.65331
0.803663 1.02432 2.31854
1.22447 0.668178 2.2596
0.790194 1.03353 3.10303
1.20828 0.674835 3.0481
0.774228 1.186 -1.4574
1.17214 1.18396 -1.84214
0.775408 1.20098 -0.624912
1.16486 1.18911 -1.08409
0.792086 1.25056 0.270225
1.17585 1.2164 -0.175331
0.806621 1.32022 1.16554
1.20276 1.28699 0.712604
0.805575 1.36649 1.99864
1.21445 1.35086 1.62201
0.795042 1.38583 2.76826
1.2093 1.37744 2.38146
1.19803 1.39027 3.16039
1.5581 -0.0763972 -2.04292
1.56874 0.023845 -2.38233
1.56116 -0.0632569 -1.14556
1.54411 0.0314417 -1.61033
1.61464 -0.0675249 -0.118749
1.56504 0.0518913 -0.601115
1.67981 -0.0873825 0.908819
1.65047 0.0375427 0.421052
1.69295 -0.0900425 1.81062
1.70395 0.027824 1.43188
1.66565 -0.0757521 2.58802
1.67794 0.0384869 2.21548
1.6462 0.0559151 2.9875
1.55475 0.131684 -1.94974
1.57599 0.341694 -2.22279
1.54799 0.14659 -1.06589
1.55408 0.344625 -1.45382
1.60087 0.156959 -0.0613143
1.55274 0.360449 -0.483551
1.6746 0.152749 0.944109
1.6311 0.389199 0.487567
1.68894 0.156353 1.83673
1.67815 0.405055 1.45954
1.6585 0.170154 2.61496
1.65878 0.414682 2.24435
1.63366 0.426464 3.02499
1.57533 0.554635 -1.72687
1.57427 0.868977 -1.97993
[...]
POINT_DATA 29498
VECTORS point_vectors float
-3.81671 -5.80706 11.3437
0.195899 0.159349 1.79039
-3.11681 0.874487 6.79791
0.0436155 -0.107041 0.46667
3.80703 -5.80649 11.3385
-0.19708 0.159877 1.79337
3.12 0.875359 6.80705
-0.0417859 -0.107969 0.46577
-0.0104907 0.235048 1.11614
-0.783586 -0.238069 10.4902
0.00100892 0.00465349 0.0394606
-0.196633 1.1064 1.88638
0.00960593 0.234065 1.11442
0.787867 -0.20871 10.4728
-0.00104871 0.00473871 0.0398398
0.193586 1.08521 1.83194
-0.670193 -0.23759 19.8678
-1.07827 -0.468467 20.3427
-0.554716 -0.358259 20.9922
-0.193568 -0.200857 21.0333
0.172484 -0.0218474 21.203
0.458208 0.0947319 21.022
0.551572 0.14056 20.7878
-0.828055 -0.186681 19.8324
-1.307 -0.386942 20.3812
-0.613418 -0.341088 21.0446
-0.239533 -0.192458 21.0609
0.171262 -0.0331363 21.2159
0.502424 0.0175089 20.9728
0.618555 0.0610072 20.5649
-1.05027 0.0465063 19.8432
-1.39037 -0.0462933 20.5781
-0.773425 -0.245738 21.0764
-0.372555 -0.145162 21.1298
0.174636 -0.123657 21.2676
0.522102 -0.160362 21.0164
0.644254 -0.183913 20.5272
-0.894999 0.415415 20.0651
-1.04503 0.36631 20.6137
-0.731125 0.157784 21.0092
-0.289274 0.0307357 21.1591
0.11535 -0.165164 21.099
0.303402 -0.299921 20.9273
0.326453 -0.317639 20.842
-0.802491 -0.727893 19.0748
-2.33873 -3.80317 20.1355
-0.442861 0.141142 18.4324
-0.0983372 -0.0687624 19.1305
0.346939 0.406873 19.9013
0.639003 1.12814 19.6523
0.868883 1.11578 19.6017
-1.17723 -0.618367 18.6113
1.05274 1.21798 12.6729
1.34022 1.19247 14.8019
-2.11469 0.608585 17.7886
1.17414 -0.0344069 9.88842
1.74167 -0.412376 14.3355
-1.3131 1.54625 19.3719
-1.94921 1.93119 20.5935
-1.71542 1.18636 21.6663
-0.431028 0.3589 21.7908
0.1285 -0.414932 21.489
0.32094 -0.718316 21.1191
0.401088 -0.790249 20.8403
0.810919 -0.698462 19.1175
2.37068 -3.71668 20.1214
0.39183 0.113606 18.9395
0.0788918 -0.0675204 19.3768
-0.354989 0.393014 20.2111
-0.593592 1.159 19.3305
-0.827666 1.31496 18.89
1.19269 -0.589604 18.6773
-0.785092 1.27124 10.8848
-1.20945 1.41463 13.1778
2.11694 0.557297 17.9163
-0.956452 -0.13539 7.72127
-1.63283 -0.358685 11.1465
1.30471 1.58362 19.3484
1.93757 2.06568 20.5715
1.73131 1.24771 21.6891
0.432453 0.354743 21.7835
-0.125919 -0.417561 21.4958
-0.304602 -0.734894 21.14
-0.375035 -0.837303 20.8566
0.651728 -0.227525 19.875
1.06427 -0.459792 20.3426
0.554576 -0.359926 20.9804
0.189081 -0.194883 21.0425
-0.166558 -0.021729 21.1901
-0.472035 0.105859 21.0224
-0.575888 0.151176 20.7673
0.795393 -0.180681 19.839
1.29641 -0.38188 20.3816
0.616716 -0.345998 21.0439
0.236329 -0.196645 21.0604
-0.177814 -0.031998 21.2151
-0.536073 0.0329205 21.0163
-0.663414 0.0545515 20.6716
1.03356 0.0430666 19.8617
1.39919 -0.0441933 20.5719
0.781152 -0.244112 21.0805
0.373905 -0.147634 21.1328
-0.180223 -0.121222 21.2692
-0.582595 -0.18571 21.0763
-0.709525 -0.198477 20.6437
0.906002 0.42615 20.059
1.07314 0.385869 20.6115
0.746697 0.161534 21.0159
0.28946 0.0292404 21.1605
-0.12943 -0.177577 21.1212
-0.303583 -0.311131 20.9467
-0.3596 -0.335604 20.8306
-2.04486 -0.16309 2.61094
1.75391e-05 -0.016122 0.217701
-0.0667598 0.0361152 1.21244
0.143889 -0.0203453 0.554771
-3.64072e-05 0.00354171 0.0483716
-0.181097 -0.413234 3.1509
5.26489e-05 0.0400255 0.120671
-0.0684255 -0.0931312 1.06671
-5.0372e-05 0.000187874 0.000441014
0.129341 0.273719 0.778788
2.04961 -0.16376 2.61799
0.0669204 0.0362974 1.21271
-0.145681 -0.0198554 0.560768
0.178547 -0.408159 3.14417
0.0677217 -0.0920683 1.05228
-0.128039 0.271231 0.765925
-0.00589462 0.0174566 0.0944324
2.89555e-05 4.9863e-05 0.000325413
1.88974e-06 -9.88646e-07 -0.000270705
-0.000100559 0.016692 0.039199
-1.34233e-06 8.29968e-09 0.000363186
-0.000283665 0.019795 0.0353053
-9.89347e-06 0.0212601 0.063617
0 0 0
0.00591171 0.0172862 0.0934727
-1.91307e-05 3.14894e-05 0.00021358
0.00322558 0.0230113 0.0790948
0.000281454 0.0195413 0.0349699
-0.000109852 0.000212118 0.00566459
0 0 0
-0.0141848 0.0184998 0.188354
-5.73754e-07 3.19617e-07 4.48179e-05
0 0 0
-3.00436e-06 7.90905e-07 0.000125962
0 0 0
-0.00126551 0.00119679 -0.0240511
0 0 0
2.91462e-05 0.00125094 0.0363147
-2.93184e-06 -0.00339039 0.0177614
0.000111979 0.000214604 0.00576322
0 0 0
0.0138038 0.0185522 0.185346
-2.61434 -1.24358 20.3461
-3.48851 -5.69336 20.2695
-2.81633 -1.95586 17.5283
0.344066 -0.0505363 21.5808
0.298012 0.497932 16.5028
0.814695 1.03096 10.2475
-2.86237 0.0329734 20.8595
-5.1235 2.44129 17.1013
-3.61689 2.56495 20.824
0.37695 -0.202481 21.5258
0.538879 -0.0474251 5.87344
0.896604 -0.275256 18.1805
3.48796 -5.5782 20.2685
2.79336 -1.86629 17.6907
2.6001 -1.23628 20.3476
-0.318645 0.493534 16.9543
-0.605527 0.973403 8.80084
-0.34467 -0.0458392 21.5703
5.05202 2.24304 17.3025
3.60874 2.71407 20.7939
2.87507 0.0343676 20.8633
-0.224933 -0.143922 4.38434
-0.898993 -0.272275 18.1034
-0.383342 -0.197095 21.4926
-0.412571 -0.708954 21.471
-0.676373 0.805073 10.4742
-0.236704 -0.404564 21.0916
-0.0645471 -0.119647 15.2849
-1.00612 -0.825472 21.5428
-2.68184 0.132023 16.4444
-0.647731 -0.29035 21.1324
0.417488 0.900471 16.1627
0.588983 0.832482 10.9206
0.413187 -0.708704 21.4488
0.1039 -0.0634093 15.8972
0.232868 -0.397701 21.0745
2.59991 0.168908 15.9207
1.00235 -0.838438 21.4836
-0.39814 0.888879 16.2302
0.6398 -0.286768 21.0848
-0.924098 -0.360753 20.0018
-0.761074 -0.227974 19.8568
-0.795917 -0.41485 19.5529
-0.909867 -0.46586 20.8055
-1.18343 -0.441604 20.3538
-1.80324 -1.26894 20.2369
-0.312837 -0.260283 21.0079
-0.587259 -0.345885 21.0111
-0.40271 -0.538777 21.3442
-0.0669046 -0.131657 21.1389
-0.214348 -0.195836 21.0455
-0.116602 -0.29487 21.0849
0.32969 0.0458477 21.1084
0.167413 -0.0239431 21.2148
0.301322 0.0427843 21.4488
0.524456 0.119936 20.8627
0.470255 0.0605331 21.0145
0.733938 0.366186 21.1097
0.594369 0.0995651 20.7645
0.822864 0.431185 20.7554
-1.1506 -0.294436 19.9935
-0.955391 -0.0741999 19.8159
-1.08226 -0.391459 19.3633
-1.04316 -0.402515 20.8833
-1.40283 -0.230229 20.4827
-0.361747 -0.257234 21.03
-0.690771 -0.305797 21.0782
-0.0856061 -0.123412 21.1591
-0.323709 -0.176018 21.105
0.37562 0.00514654 21.1015
0.19226 -0.0909446 21.2657
0.598243 0.0415642 20.8452
0.541637 -0.0672922 21.0285
0.940084 0.188735 21.1321
0.711459 -0.0930822 20.772
1.05174 0.212397 21.0441
-1.33396 0.0222003 20.1305
-1.02146 0.256256 19.9451
-1.60961 0.18599 19.2102
-1.1212 -0.175151 20.9521
-1.30164 0.226083 20.5829
-0.520627 -0.214736 21.0937
-0.836101 -0.0306726 21.0445
-0.149623 -0.111065 21.2344
-0.375281 -0.037958 21.1736
0.40114 -0.147111 21.1409
0.142793 -0.166842 21.2054
0.603409 -0.17149 20.8071
0.419861 -0.269243 20.9501
0.928273 -0.333656 21.1061
0.553115 -0.311048 20.7367
1.09023 -0.353917 20.4399
-1.04178 0.429514 20.3159
-1.1965 0.820262 19.814
-0.913803 0.25496 20.8452
-1.55779 0.86087 20.645
-0.51814 0.0924247 21.1034
-1.14841 0.383444 21.2488
-0.0650643 -0.0678562 21.1654
-0.410488 0.145734 21.3981
0.238706 -0.233238 21.0089
0.148166 -0.269084 21.2683
0.338432 -0.318554 20.783
0.378701 -0.489826 21.0511
0.416989 -0.52612 20.572
-1.57107 -1.71026 18.7769
-1.00386 -0.728645 18.8383
0.0283398 -1.14713 18.4176
-0.745141 -1.10502 20.9192
-0.000599919 -4.5528 21.9858
-0.258584 0.241635 18.6342
0.0113125 -0.16626 15.5974
0.178044 -0.404112 19.4137
0.00370599 -0.104383 15.608
0.548646 0.961102 19.673
-0.000832797 0.360518 16.2735
0.83946 1.13931 19.5103
0.865324 1.23174 16.3897
-0.0153981 0.522181 15.7153
1.11099 1.28172 17.5331
-0.00327202 1.07417 15.4672
-1.67554 -0.218882 18.0042
0.0442067 -1.18171 17.3076
1.21433 1.26565 14.1713
0.771976 0.401439 6.72244
-0.158401 -0.54411 1.53417
1.60559 0.619448 11.9546
-0.0703517 -0.247638 2.33917
-1.80596 1.48793 18.574
0.0665275 1.64408 15.0147
1.61773 -0.213267 12.2503
0.945991 -0.730192 19.0353
0.00747998 0.295409 -2.4256
0.895107 -0.915261 19.5946
0.20151 -1.08021 0.532994
-1.71298 1.98661 19.9401
-0.0220561 2.65258 18.7713
-2.03953 1.60746 21.1061
-0.0619565 3.73527 20.1769
-0.985655 0.718949 21.7881
-0.0311098 3.53649 22.1288
-0.0779432 -0.0696367 21.7584
0.00509149 0.28053 21.1382
0.224385 -0.59678 21.2954
-0.000372899 -0.550178 20.7796
0.404837 -0.796095 20.9035
0.00583373 -0.86661 20.7225
0.0248706 -1.03372 20.2527
1.57879 -1.64528 18.8237
1.0196 -0.699936 18.9007
0.789039 -0.400247 19.5912
0.761098 -1.15007 21.1327
1.77257 -1.22896 20.2402
0.200147 0.244311 19.2641
0.421419 -0.538959 21.3247
-0.152444 -0.417809 19.6658
0.124764 -0.289086 21.0882
-0.54597 0.961754 19.6752
-0.291873 0.0365595 21.4296
-0.77767 1.24197 18.9532
-0.781195 1.31752 15.7827
-0.746299 0.390612 21.1159
-1.04879 1.49694 16.6396
-0.86179 0.480008 20.7361
1.66122 -0.22297 18.1935
1.04235 -0.357408 19.4341
-1.00824 1.40089 12.2963
-0.557211 0.43521 4.76719
-0.996239 0.238262 21.1138
-1.45894 0.714273 8.84615
-1.10272 0.283437 21.0138
1.80778 1.4598 18.5964
1.55287 0.166792 19.2958
-1.48241 -0.301644 9.76924
-1.01046 -0.721759 18.4998
-1.01961 -0.300295 20.9603
-0.960661 -0.960421 18.9191
-1.26229 -0.325859 19.9029
1.69926 2.07933 19.9151
1.20558 0.848813 19.8004
2.07428 1.7112 21.0991
1.59695 0.919735 20.6431
0.988495 0.727583 21.7945
1.17037 0.404193 21.2597
0.0792655 -0.0699657 21.7589
0.411808 0.143512 21.397
-0.214374 -0.602498 21.3021
-0.147762 -0.273141 21.2714
-0.394787 -0.827792 20.895
-0.380882 -0.508879 21.0466
-0.425137 -0.553015 20.5598
0.910235 -0.349148 20.0008
0.727381 -0.220622 19.8616
0.904276 -0.459485 20.8046
1.16349 -0.435214 20.3609
0.311569 -0.257497 20.9929
0.587308 -0.347035 21.0031
0.0716834 -0.137153 21.1206
0.209878 -0.196212 21.0487
-0.334099 0.0440724 21.108
-0.16841 -0.023247 21.2068
-0.559164 0.141745 20.8446
-0.484643 0.070471 21.0211
-0.622024 0.112286 20.7471
1.11616 -0.283139 19.9917
0.930742 -0.0663886 19.8274
1.04496 -0.403531 20.8825
1.40286 -0.227057 20.4745
0.362362 -0.259335 21.0281
0.69338 -0.307862 21.0825
0.0847489 -0.123847 21.1585
0.322825 -0.181705 21.1055
-0.38217 0.0119272 21.1202
-0.197846 -0.0903768 21.2685
-0.645731 0.0482208 20.8387
-0.581797 -0.0745484 21.0302
-0.766127 -0.100441 20.7133
1.31601 0.0212145 20.1424
1.01456 0.255568 19.9449
1.13027 -0.17621 20.955
1.32961 0.229744 20.5832
0.527745 -0.213032 21.1002
0.841315 -0.0323685 21.0507
0.151689 -0.110518 21.2373
0.375762 -0.0402464 21.1758
-0.41712 -0.152192 21.1429
-0.141549 -0.163418 21.2005
-0.640943 -0.177212 20.7922
-0.445879 -0.289888 20.9617
-0.595438 -0.331306 20.7327
1.06162 0.444888 20.314
0.937102 0.265309 20.8515
0.524084 0.0940831 21.1088
0.0644078 -0.0700475 21.168
-0.252721 -0.248486 21.0148
-0.357544 -0.340878 20.7828
-1.03558 -0.342432 19.9971
-2.11732 -1.94393 18.2237
-1.33069 -0.825549 19.6018
-1.88681 -0.762875 19.4099
-0.929847 -0.42433 19.4589
-2.2113 -1.33313 20.2823
-0.979692 -0.43824 20.8366
-0.581071 -0.172412 13.7699
-1.16524 -1.04074 21.2993
-1.41827 -1.05477 21.5392
-0.396272 -0.61108 21.4202
-0.335684 -0.254899 21.0154
-0.278663 0.602441 12.109
-0.137258 -0.318786 21.1696
-0.140302 -0.505716 21.2322
-0.160471 -0.361013 21.0821
-0.0808719 -0.128522 21.1439
0.46658 -1.06192 16.2433
-0.0940334 -0.292416 21.2877
-0.317449 -0.339301 21.4172
0.311429 -0.0102868 21.5293
0.352655 0.0254971 21.105
0.588534 1.21938 15.9907
0.594508 0.250168 21.3055
0.746749 0.0904034 21.3642
0.841016 0.298857 21.1549
0.556802 0.0771284 20.8464
1.0269 1.29993 17.3185
0.862699 0.365351 20.9469
1.07003 0.192947 21.1536
0.917272 0.36893 20.8015
-1.30458 -0.16458 20.0266
-4.80286 -0.276798 16.133
-2.63097 0.3176 19.6046
-1.3922 -0.128821 19.2146
-3.10993 -0.593402 20.6509
-1.1007 -0.292191 20.9417
-1.76464 -0.524561 21.5224
-0.614778 -0.839411 21.4783
-0.446225 -0.252029 21.0663
-0.670835 -0.642231 21.2409
-0.417604 -0.394235 20.836
-0.125865 -0.116122 21.2126
-0.42339 -0.0264783 21.4307
0.379287 -0.131335 21.646
0.410269 -0.0872505 21.1349
0.0343359 -0.0271273 3.48306
0.761592 -0.318852 21.2597
1.02322 -0.0648839 21.113
0.656029 -0.0892045 20.8306
1.46735 0.553774 9.69814
1.05743 -0.411227 21.2917
1.30787 0.00872199 19.8391
-1.26934 0.287054 20.2354
-2.92376 2.66103 19.1971
-1.48531 0.961814 20.2052
-1.51215 0.687621 19.4867
-2.20981 0.677249 20.7273
-1.08944 0.0750834 20.9132
-3.77297 1.06311 21.0137
-1.43774 0.593969 21.0158
-1.48234 -0.117294 21.3459
-0.601056 -0.0362563 21.1081
-0.250846 0.691087 14.1034
-0.765941 0.273295 21.3464
-0.646929 0.0367595 21.4203
-0.120295 -0.0719052 21.234
0.831672 0.578282 17.546
-0.0924599 -0.0574612 21.3893
0.265177 -0.316621 21.4577
0.325071 -0.231468 21.0744
0.899474 -0.513826 18.5936
0.282313 -0.3963 21.1446
0.628986 -0.540248 21.1283
0.477887 -0.288804 20.8046
1.03755 -0.86103 19.2891
0.462673 -0.516396 20.7749
0.687501 -0.593657 20.8809
2.10236 -1.8285 18.3533
0.0384477 -3.38231 17.731
0.0890254 -5.69409 13.3968
0.0395936 -1.25188 17.9128
-0.010825 -3.07063 18.4652
0.575403 -0.187566 14.145
-0.00210127 -0.735163 18.8178
0.0112681 0.0271399 7.18071
0.244193 0.643088 12.7541
0.0127834 -0.11623 15.2812
0.0002484 -0.0111633 8.4755
-0.363231 -1.02554 16.6662
-0.00606222 0.012529 15.8376
0.00068602 0.339639 9.59929
-0.527206 1.23881 15.5093
-0.00124027 0.475272 15.8082
-0.0883502 -0.386484 1.6847
-0.113707 0.103556 9.13995
-0.948512 1.43186 16.595
-0.00199672 0.892724 15.1233
-0.0773038 0.264601 1.98863
-0.0650276 0.745565 9.5708
4.6912 -0.274037 16.4516
0.136515 10.7879 13.4855
0.0739501 -0.336782 15.7469
0.264963 -0.0768852 2.136
-0.0896157 1.64377 -0.728462
0.0436474 -0.486106 -4.45819
-1.27797 0.627655 7.23946
0.19187 -0.406547 -1.5576
0.0910632 -1.25585 -2.65339
2.9207 2.6831 19.1891
-0.0426197 3.50891 19.5292
0.018561 3.11804 17.2079
-0.0382961 5.36619 20.0203
3.83176 1.15637 20.9371
-0.0572182 4.21527 20.827
-0.000178245 0.213957 0.933375
0.209225 0.706131 13.9392
-0.00324244 1.39888 21.412
-0.00491435 -0.307648 3.02769
-0.835912 0.563694 17.5138
-0.000617185 -0.302695 20.6853
-0.00168227 -0.619749 7.72702
-0.941648 -0.494464 18.1882
0.000910964 -0.667805 20.5758
0.00996377 -0.744311 9.54838
-1.07837 -0.888506 18.7477
0.00969967 -1.05525 20.4092
0.0589239 -1.32361 12.4112
1.0002 -0.331551 19.9941
1.30091 -0.781647 19.6452
1.84328 -0.734262 19.4627
0.899421 -0.381997 19.5143
2.18371 -1.30452 20.284
0.971813 -0.43601 20.8384
1.16317 -1.01463 21.2699
1.41897 -1.05373 21.536
0.411086 -0.620417 21.4312
0.334211 -0.25633 21.005
0.160135 -0.31676 21.1562
0.13979 -0.500477 21.2007
0.163361 -0.345717 21.0771
0.0818462 -0.129659 21.1375
0.0788641 -0.265647 21.2845
0.31302 -0.333783 21.3998
-0.306486 -0.00683668 21.5114
-0.35803 0.0280829 21.114
-0.598474 0.249378 21.3034
-0.778107 0.10634 21.3576
-0.883489 0.33214 21.1473
-0.597667 0.101888 20.8285
-0.893461 0.431853 20.8681
-1.11696 0.290253 21.0467
-0.962453 0.428279 20.777
1.275 -0.155014 20.0309
2.57079 0.303663 19.6476
1.35864 -0.117888 19.2932
3.10642 -0.593027 20.6539
1.10488 -0.293388 20.9394
1.77024 -0.527697 21.527
0.610683 -0.838149 21.459
0.450019 -0.252514 21.0726
0.668576 -0.656373 21.178
0.413657 -0.388386 20.7927
0.126888 -0.117724 21.2134
0.415573 -0.0199901 21.3895
-0.381648 -0.124846 21.6229
-0.423323 -0.0895347 21.1542
-0.803374 -0.295098 21.0486
-1.08712 -0.0112303 20.9854
-0.708523 -0.099793 20.7944
-1.19148 -0.329259 20.2467
-1.47377 0.0362678 19.3426
1.27844 0.289551 20.2299
1.50647 1.00941 20.1889
1.50459 0.676565 19.4982
2.2584 0.718288 20.7307
1.10856 0.0732417 20.9213
1.47045 0.617779 21.0263
1.50901 -0.119687 21.3541
0.603012 -0.0383977 21.1125
0.770636 0.278905 21.353
0.648135 0.0363783 21.4228
0.117311 -0.0737505 21.2409
0.0925275 -0.0591032 21.3924
-0.269913 -0.320846 21.4601
-0.329517 -0.244934 21.0882
-0.281338 -0.401118 21.1518
-0.631971 -0.576192 21.0867
-0.519561 -0.312441 20.8414
-0.453875 -0.536543 20.7962
-0.704131 -0.660839 20.9331
-1.59849 -0.821754 19.4869
-1.26763 -1.07465 21.4451
-0.105834 -0.412169 21.2085
-0.195427 -0.333604 21.3369
0.674872 0.17293 21.355
0.973727 0.309632 20.9739
-2.44689 -0.300974 19.3718
-1.63883 -0.806527 21.6414
-0.317868 -0.654847 21.1951
-0.490699 -0.195013 21.448
0.821502 -0.108772 21.4044
1.18903 -0.0674861 21.3518
-2.07077 0.873873 19.9537
-1.86249 0.172595 21.1873
-1.02024 -0.106953 21.3892
-0.195736 -0.0314682 21.5699
0.487314 -0.453419 21.2473
0.727143 -0.553334 20.9203
0.064648 -4.53057 16.4147
0.0125113 -0.030033 9.7684
0.00747738 0.00549147 7.28787
-0.00401718 0.0447976 9.06269
-0.0232698 0.302282 9.13771
-0.0656781 0.765634 9.74698
0.118222 1.00352 7.43268
-0.0962473 -0.210473 -1.71693
0.0888194 -0.413294 -4.23545
-0.00837638 5.47616 18.4313
-0.0371167 3.96011 14.6559
0 0 0
-6.0787e-05 -0.493201 6.38553
-0.000670531 -0.4003 8.00876
0.0229786 -1.18041 10.9398
1.57101 -0.781048 19.5268
1.27197 -1.05786 21.4238
0.118164 -0.406782 21.1808
0.186764 -0.312534 21.3353
-0.692057 0.18705 21.3533
-1.01545 0.395348 20.8838
2.36098 -0.278395 19.4265
1.64102 -0.809644 21.645
0.31651 -0.655164 21.1195
0.485334 -0.187173 21.4091
-0.865294 -0.0747487 21.2072
-1.31185 0.00380306 20.5042
2.08236 0.885479 19.951
1.89989 0.181941 21.1972
1.03271 -0.109455 21.3959
0.194408 -0.0331594 21.5691
-0.496736 -0.472502 21.241
-0.747353 -0.621203 20.8867
-1.23956 -0.359424 1.84327
-0.00514983 -0.0236149 0.266556
-0.0337133 -0.00213808 0.449784
0.159724 -0.00900623 0.642554
-0.00861219 0.00992899 0.0989737
-0.0620369 0.0328663 1.29673
-2.02902 -0.498596 3.90604
-0.0126763 0.0411286 0.115807
-0.209055 -0.0901291 1.15404
0.0782564 -0.00579825 0.329464
-0.0426608 -0.0281052 0.0463185
0.0850305 0.169192 1.10226
0.00517935 -0.0235952 0.266405
1.2422 -0.360309 1.84828
0.0339043 -0.00196038 0.449736
0.00858445 0.00990192 0.0987499
-0.161414 -0.00765316 0.646392
0.0621042 0.0328509 1.29891
0.0126479 0.0409822 0.115388
2.03317 -0.498648 3.91468
0.208819 -0.0901077 1.15498
0.0424447 -0.0274106 0.0449928
-0.076571 -0.00655042 0.321802
-0.0858345 0.170213 1.09917
-0.101872 0.0890991 1.47965
-0.00113369 0.00633918 0.0330226
0 0 0
0 0 0
-0.00291996 -0.206357 0.670947
0.0196163 0.111324 0.887049
-4.16751e-05 0.000111874 0.000819118
0 0 0
0 0 0
0 0 0
0.000936767 0.00957189 0.0325946
-0.10308 0.0781351 0.394728
-0.00325491 0.297112 0.311378
0 0 0
0.000302776 0.00847913 0.0095192
0 0 0
0.101791 0.0889774 1.47917
0 0 0
0.00118669 0.0068693 0.0366683
0 0 0
0.00311345 -0.199133 0.666877
0 0 0
-0.0181443 0.114559 0.884512
2.84616e-05 8.30138e-05 0.000580803
0 0 0
0.1034 0.078463 0.395987
0 0 0
-0.000916764 0.00934593 0.0319348
0.0023261 0.297128 0.308493
0 0 0
0 0 0
-0.000291493 0.00828911 0.009282
-0.000356425 -1.19082e-05 0.00831241
0 0 0
3.04107e-08 5.53373e-09 -1.90346e-06
0 0 0
0 0 0
-1.67709e-05 1.4794e-06 0.000215399
-3.39702e-06 0.000259537 0.00288873
-0.422464 -0.0433253 -0.076921
-9.79112e-07 -8.04269e-07 -2.3382e-05
0.0170081 -0.333592 -0.0940951
-0.0377353 0.0223603 0.430702
0.000101405 1.64376e-06 0.00174803
0.00551197 2.48461 1.49785
0.000796058 0.0135662 0.0662923
-0.000105602 -2.17153e-05 0.00678397
0 0 0
-0.000824255 0.0772993 0.00163864
-1.33982e-05 -0.00068231 0.0054576
-0.0557493 0.077769 0.480334
0.183736 0.0115269 0.54556
0 0 0
0.000359988 -1.29684e-05 0.00839055
1.73114e-05 1.52271e-06 0.000222256
0 0 0
0.430182 -0.0435237 -0.0788179
2.77241e-06 0.000248371 0.00277875
-9.77975e-05 1.61857e-06 0.00168796
0.0377753 0.0229408 0.432217
0 0 0
0.000104922 -2.32028e-05 0.00671343
-0.184115 0.0100373 0.551127
0.052856 0.07685 0.465235
0 0 0
0 0 0
0.0091719 0.00300533 0.138732
0 0 0
-1.15979e-07 6.52862e-08 1.23431e-05
1.36176e-06 2.85376e-08 1.29075e-05
0 0 0
1.82943e-17 -3.02972e-17 -6.45745e-17
-3.92515e-08 7.52873e-09 2.62578e-05
1.25957e-07 7.72822e-09 -2.87277e-05
0 0 0
0.0441412 0.020853 0.349374
-3.44317e-05 0.0350712 0.0940883
6.41433e-08 0.0101633 0.0753021
0 0 0
-2.38259e-07 -0.000124048 0.000931018
0 0 0
-2.6402e-18 1.41664e-17 4.32354e-17
-0.00920204 0.00291671 0.138584
1.11686e-18 -8.91831e-18 -2.48749e-17
0 0 0
0 0 0
-0.0425729 0.0252709 0.368831
0 0 0
-4.28996e-05 -1.22984e-05 0.00108567
-0.000288962 -0.000109647 0.00737355
0.00196393 0.00171768 0.0281397
-4.81219e-18 2.80403e-18 -2.98531e-17
0 0 0
0 0 0
-1.57433e-18 -1.69125e-17 -4.46965e-17
0 0 0
0 0 0
-0.00432509 0.0139419 0.0160076
-7.53529e-06 0.00017257 0.00205906