# vtk DataFile Version 2.0
tri_press
ASCII
DATASET UNSTRUCTURED_GRID
POINTS 3682 float
-0.72164 0.255 -2.025
-0.715 0.345 2.09963
-0.751014 0.765 -1.895
-0.505 1.165 2.10034
0.721629 0.255 -2.025
0.715 0.345 2.09962
0.751014 0.765 -1.895
0.505 1.165 2.10034
-0.774175 0.230252 -0.650123
-0.801042 0.231172 0.724754
-0.762445 0.991769 -0.56322
-0.712839 1.1575 0.76856
0.774167 0.230252 -0.650127
0.806349 0.225861 0.724747
0.762485 0.991809 -0.56322
0.712833 1.15749 0.76856
-1.46364 -0.19513 -3.14816
-1.47442 -0.122728 -2.06552
-1.50515 -0.140826 -0.689528
-1.49875 -0.16313 0.695136
-1.4314 -0.0957607 2.07186
-1.41939 -0.0292922 3.15808
-1.43575 0.0332789 4.23767
-1.46847 0.137306 -3.09865
-1.47842 0.237279 -2.02072
-1.51397 0.254503 -0.653114
-1.48993 0.257779 0.718371
-1.37722 0.325621 2.0868
-1.38785 0.390888 3.17241
-1.42292 0.45206 4.25341
-1.48193 0.746159 -2.98754
-1.49518 0.840645 -1.90783
-1.50243 1.01609 -0.569602
-1.42037 1.1408 0.765571
-1.24433 1.17243 2.10462
-1.31906 1.23154 3.19202
-1.40047 1.29313 4.27997
-1.4891 1.82235 -2.85328
-1.49467 1.94433 -1.78002
-1.49037 2.15886 -0.455766
-1.4597 2.35165 0.859198
-1.41777 2.45521 2.1839
-1.41739 2.50784 3.2581
-1.44537 2.55929 4.34135
-0.719624 -0.185542 -3.15094
-0.722281 -0.107801 -2.06958
-0.753017 -0.151898 -0.688985
-0.773244 -0.183053 0.700583
-0.738398 -0.0911693 2.08138
-0.737751 -0.0264964 3.16454
-0.753024 0.0328347 4.24141
-0.723482 0.137446 -3.09951
-0.731317 0.395606 3.17774
-0.752933 0.452234 4.25623
-0.73559 0.71439 -2.98221
-0.676742 1.23039 3.19116
-0.743949 1.29245 4.27978
-0.746391 1.79709 -2.84801
-0.752781 1.91875 -1.77421
-0.758952 2.14927 -0.452267
-0.756824 2.35803 0.858778
-0.744265 2.46103 2.1809
-0.749707 2.51041 3.25511
-0.773377 2.56043 4.33917
0.756361 -0.185707 -3.15094
0.752631 -0.107916 -2.06958
0.781096 -0.152561 -0.688988
0.785238 -0.186642 0.700577
0.717136 -0.0925528 2.08137
0.654979 -0.0275745 3.16453
0.624123 0.031669 4.24141
0.7488 0.13735 -3.09951
0.61405 0.394889 3.17773
0.596671 0.451208 4.25623
0.752233 0.714315 -2.98221
0.540231 1.22985 3.19116
0.55964 1.29157 4.27978
0.741495 1.79686 -2.84801
0.735754 1.91852 -1.77422
0.713169 2.14895 -0.452268
0.656134 2.35753 0.858777
0.591491 2.46036 2.1809
0.570705 2.50962 3.25511
0.56326 2.55954 4.33917
1.49964 -0.195571 -3.14816
1.49901 -0.123155 -2.06552
1.53071 -0.142381 -0.689533
1.52728 -0.168162 0.695127
1.43919 -0.0992359 2.07185
1.36661 -0.0318591 3.15807
1.32857 0.0308256 4.23766
1.49115 0.137009 -3.09865
1.4824 0.237094 -2.02072
1.52106 0.253613 -0.653118
1.51579 0.252549 0.718363
1.39798 0.322646 2.08679
1.3202 0.38875 3.1724
1.29478 0.449826 4.25341
1.49367 0.745919 -2.98754
1.49269 0.840528 -1.90783
1.50143 1.01579 -0.569604
1.43249 1.13893 0.765567
1.251 1.1705 2.10462
1.22853 1.22984 3.19201
1.24346 1.29119 4.27996
1.48329 1.82182 -2.85328
1.47671 1.94379 -1.78002
1.44846 2.15811 -0.455769
1.37602 2.35049 0.859196
1.28899 2.45372 2.1839
1.25605 2.50616 3.2581
1.24803 2.55745 4.34134
-0.760676 0.51 -1.98435
-5.48363e-06 0.256125 -2.02387
-0.756314 0.23422 -1.33756
-0.590148 0.755 2.08013
0 0.336719 2.10791
-0.778343 0.267763 1.41219
0 0.852193 -1.98219
-0.792362 0.914017 -1.22911
0 1.20944 2.14478
-0.65111 1.20344 1.43445
0.760708 0.51 -1.98439
0.756324 0.2342 -1.33756
0.589757 0.755 2.07974
0.77324 0.272864 1.41218
0.792361 0.914016 -1.22911
0.6511 1.20343 1.43445
-0.787535 0.230785 0.037315
-0.87708 0.61101 -0.606672
-3.798e-06 0.22235 -0.650125
-0.881915 0.694337 0.746657
0.00265371 0.229868 0.72475
-0.740157 1.07715 0.10267
2.01515e-05 1.31354 -0.56322
-3.18209e-06 1.46651 0.76856
0.787787 0.230528 0.03731
0.877074 0.611031 -0.606673
0.881969 0.691678 0.746653
0.740151 1.07714 0.10267
-0.877523 0.560505 -1.28334
0.877524 0.560515 -1.28334
-4.64081e-06 0.232505 -1.33756
1.00757e-05 0.990083 -1.22911
-2.74181e-06 0.51 -2.30156
-0.881301 0.652673 0.0699925
0.881315 0.651354 0.06999
0.00132496 0.229247 0.0373125
8.48469e-06 1.47647 0.10267
-0.885747 0.724668 1.42332
0.885759 0.723339 1.42332
0.00132686 0.256598 1.41219
-1.59104e-06 1.30563 1.43445
0 0.755 2.16653
-0.746773 0.3825 -2.01029
-0.360823 0.25603 -2.02397
-0.738434 0.245153 -1.68128
-0.693914 0.55 2.13122
-0.3575 0.338953 2.10567
-0.758338 0.294715 1.75591
-0.766015 0.6375 -1.94984
-0.375507 0.837006 -1.96701
-0.793721 0.861542 -1.56206
-0.543501 0.96 2.08616
-0.2525 1.20166 2.137
-0.506548 1.11271 1.76739
0.360812 0.256015 -2.02399
0.748217 0.3825 -2.01174
0.738487 0.24509 -1.68128
0.3575 0.338961 2.10566
0.693881 0.55 2.13118
0.758395 0.294658 1.7559
0.375507 0.837026 -1.96703
0.766012 0.6375 -1.94984
0.793699 0.86152 -1.56206
0.2525 1.20102 2.13636
0.543508 0.96 2.08617
0.506602 1.11277 1.76739
-0.771779 0.225701 -0.993843
-0.780846 0.230528 -0.306404
-0.8771 0.394895 -0.628398
-0.388346 0.223788 -0.650124
-0.826286 0.212874 1.06847
-0.794225 0.231041 0.381034
-0.882717 0.442135 0.735705
-0.399455 0.229997 0.724752
-0.776147 0.951636 -0.896165
-0.862095 0.822556 -0.584946
-0.747926 1.03108 -0.230275
-0.445198 1.28063 -0.56322
-0.686478 1.18497 1.10151
-0.843544 0.949002 0.757608
-0.728593 1.11942 0.435615
-0.430234 1.45963 0.76856
0.771794 0.225678 -0.993845
0.388339 0.223787 -0.650126
0.780835 0.230532 -0.306408
0.877057 0.394923 -0.6284
0.824487 0.21467 1.06847
0.403089 0.23069 0.724749
0.794282 0.23098 0.381028
0.883122 0.439288 0.7357
0.776146 0.951636 -0.896165
0.445206 1.28058 -0.56322
0.862072 0.822566 -0.584947
0.747925 1.03108 -0.230275
0.686448 1.18494 1.10151
0.430229 1.45963 0.76856
0.844074 0.947923 0.757607
0.72859 1.11942 0.435615
-0.876471 0.535253 -1.63384
-0.380339 0.51 -2.23456
-5.06222e-06 0.243214 -1.68072
-4.11272e-06 0.383063 -2.29429
-0.878427 0.397362 -1.31045
-0.378159 0.231133 -1.33756
-0.85118 0.739834 1.75173
-0.295074 0.755 2.14723
0.000663428 0.290368 1.76005
0 0.545859 2.28753
-0.870684 0.496216 1.41776
-0.388508 0.259072 1.41219
5.03787e-06 0.975217 -1.60565
-1.37091e-06 0.681096 -2.2668
-0.875552 0.737261 -1.25622
-0.396176 0.976407 -1.22911
-7.95522e-07 1.14724 1.78961
0 0.982219 2.15884
-0.836272 0.964055 1.42889
-0.325556 1.28971 1.43445
0.87647 0.535258 -1.63386
0.380353 0.51 -2.23461
0.882054 0.397358 -1.31045
0.37816 0.229988 -1.33756
0.851227 0.739169 1.75153
0.294879 0.755 2.14724
0.870672 0.498102 1.41775
0.387284 0.259077 1.41219
0.875553 0.737266 -1.25622
0.396186 0.976408 -1.22911
0.836621 0.963385 1.42888
0.325549 1.28971 1.43445
-0.879532 0.419172 0.0536537
-0.393478 0.22927 0.0373138
-0.876956 0.585758 -0.945004
-0.879178 0.631842 -0.26834
-4.2194e-06 0.222305 -0.993844
0.00066058 0.228937 -0.306406
-0.882141 0.673505 0.408325
-0.88332 0.709502 1.08499
0.00198934 0.229558 0.381031
0.00199029 0.232748 1.06847
-0.865468 0.892281 0.0863312
-0.464504 1.46567 0.10267
1.51136e-05 1.15087 -0.896165
1.43181e-05 1.42773 -0.230275
2.6513e-06 1.48431 0.435615
-2.38657e-06 1.41237 1.10151
0.879663 0.418385 0.05365
0.394979 0.22904 0.0373113
0.876955 0.585773 -0.945005
0.87919 0.631192 -0.268342
0.882162 0.671516 0.408322
0.883429 0.707508 1.08499
0.866153 0.891959 0.08633
0.464501 1.46565 0.10267
-0.874515 0.389931 -1.65756
-0.880603 0.408997 -0.969423
-0.863781 0.769325 -0.920584
-0.872042 0.687381 -1.59795
0.874322 0.389929 -1.65757
0.872001 0.687383 -1.59796
0.863777 0.769343 -0.920585
0.87966 0.409 -0.969425
-0.369491 0.242875 -1.681
0.369486 0.242866 -1.681
0.382621 0.221642 -0.993845
-0.382624 0.221655 -0.993843
-0.385842 0.931686 -1.58385
-0.388694 1.11916 -0.896165
0.388719 1.11915 -0.896165
0.385846 0.931717 -1.58385
-0.370581 0.382781 -2.22639
-0.377923 0.659298 -2.20171
0.37793 0.659298 -2.2018
0.370582 0.382781 -2.22638
-0.878354 0.407015 -0.287372
-0.881001 0.430715 0.394679
-0.855174 0.920976 0.42197
-0.862043 0.856549 -0.249307
0.878398 0.406635 -0.287375
0.862108 0.85626 -0.249308
0.855523 0.920146 0.421968
0.881309 0.428878 0.394675
-0.390066 0.228222 -0.306405
0.390754 0.228225 -0.306407
0.399035 0.229863 0.38103
-0.396467 0.229634 0.381033
-0.473062 1.40957 -0.230275
-0.453653 1.47522 0.435615
0.453654 1.47522 0.435615
0.47308 1.40957 -0.230275
-0.877494 0.479485 1.07673
-0.852157 0.523108 1.75382
-0.817442 0.962027 1.75956
-0.845636 0.944987 1.09325
0.877505 0.478435 1.07673
0.846085 0.943986 1.09325
0.817523 0.961693 1.75946
0.852201 0.524051 1.75371
-0.393851 0.233454 1.06847
0.395892 0.233388 1.06847
0.372392 0.292568 1.75797
-0.373004 0.292574 1.75798
-0.340989 1.40705 1.10151
-0.289028 1.13655 1.7785
0.289025 1.13657 1.7785
0.340982 1.40706 1.10151
-0.326287 0.54793 2.27433
0.326189 0.54793 2.27435
0.273689 0.97111 2.14368
-0.273787 0.97111 2.14367
-0.734363 0.31875 -2.0178
-0.541231 0.251588 -2.02841
-0.732957 0.247157 -1.85314
-0.716163 0.4475 2.12713
-0.53625 0.343515 2.10111
-0.746501 0.310025 1.92777
-0.757759 0.70125 -1.92167
-0.56326 0.820731 -1.95073
-0.779359 0.820262 -1.72853
-0.519541 1.0625 2.08854
-0.37875 1.18892 2.12426
-0.469767 1.10285 1.93387
0.54122 0.251577 -2.02842
0.733963 0.31875 -2.01741
0.732974 0.247129 -1.85314
0.53625 0.343315 2.10131
0.716158 0.4475 2.12712
0.746506 0.31002 1.92776
0.56326 0.820724 -1.95072
0.757696 0.70125 -1.9216
0.779682 0.820585 -1.72853
0.37875 1.18541 2.12075
0.519508 1.0625 2.08851
0.469701 1.10278 1.93387
-0.77089 0.230063 -0.821983
-0.779357 0.228543 -0.478264
-0.859996 0.295394 -0.639261
-0.582192 0.225156 -0.650124
-0.822833 0.212853 0.896613
-0.79764 0.2311 0.552894
-0.852523 0.331332 0.730229
-0.600184 0.230712 0.724753
-0.76816 0.970566 -0.729693
-0.828283 0.915169 -0.574083
-0.751883 1.00812 -0.396748
-0.645502 1.21956 -0.56322
-0.700517 1.1721 0.935033
-0.758417 1.04336 0.763084
-0.721148 1.13889 0.602088
-0.613322 1.39214 0.76856
0.770882 0.230063 -0.821986
0.582185 0.225156 -0.650126
0.779349 0.228544 -0.478268
0.859991 0.295398 -0.639263
0.823663 0.21202 0.896606
0.60334 0.231032 0.724748
0.797662 0.231074 0.552888
0.851573 0.329155 0.730223
0.768197 0.970603 -0.729693
0.645513 1.21953 -0.56322
0.828277 0.915187 -0.574083
0.751877 1.00812 -0.396748
[...]
POINT_DATA 3682
SCALARS point_scalars float 1
LOOKUP_TABLE default
-92.5935
-39.7283
-47.8451
-35.4792
-92.0542
-39.7822
-47.7075
-35.3997
-40.0428
-35.7482
-65.309
-54.4977
-40.0099
-36.4231
-65.2595
-54.5122
5.92739
-92.0862
-42.0242
-45.9582
-42.939
-39.1918
-34.0947
25.1854
-75.8965
-41.2703
-38.1302
-42.813
-35.8852
-32.5672
42.6478
-77.3184
-50.5313
-48.0425
-42.2265
-37.6373
-33.2214
-21.0641
-56.7291
-101.914
-63.5948
-35.9835
-35.2811
-35.2811
-63.9648
-152.536
-40.0162
-36.7152
-39.1171
-32.9116
-29.9624
-63.9648
-32.2803
-31.2252
142.726
-35.164
-32.0459
2.11
-43.4767
-79.5881
-66.7386
-35.8073
-34.4725
-34.4725
-65.7586
-121.053
-40.2795
-36.979
-39.2268
-32.8277
-29.8558
-65.7586
-31.3015
-28.7378
142.609
-34.4742
-30.7287
4.47319
-43.2469
-79.4028
-66.6504
-35.5914
-34.4454
-34.4455
-37.1415
-91.9936
-41.9839
-46.1797
-43.0804
-39.2046
-33.3442
23.7531
-76.4034
-41.209
-38.5654
-42.8352
-35.8215
-32.4971
42.4653
-77.2915
-50.5324
-47.9106
-42.1716
-35.2645
-33.2699
-20.963
-56.6801
-102.949
-64.5558
-35.7875
-35.2645
-35.2645
-37.3477
-95.5184
-49.6606
-33.7657
-30.2737
-47.6006
-3.30712
-35.7128
-34.7304
-50.8521
-37.5536
-50.1553
-33.7036
-45.5515
-35.4407
-50.828
-36.0102
-43.4668
-40.8806
-43.2181
-38.8563
-57.1858
-23.796
-70.0189
-36.0062
-43.4552
-43.2063
-57.1868
-55.6787
-55.9357
-49.9802
8.07577
205.914
-42.6879
-42.694
-36.5896
-91.2222
-46.332
-46.3137
-43.024
-45.9576
-28.9865
-16.2585
-106.789
-70.0327
-34.9434
-33.657
-41.0192
-33.7013
-24.5529
-56.3736
-33.8869
-34.5556
-40.7211
-106.189
-16.1818
-69.7908
-33.5811
-34.8765
-41.3258
-24.5136
-33.7903
-56.3272
-34.5368
-33.8312
-40.7067
-42.9294
-37.0879
-40.1435
-40.6718
-45.1402
-36.0312
-39.9601
-38.6143
-54.5129
-49.8745
-61.2129
-24.5864
-53.1101
-49.297
-57.1618
-67.9985
-42.9224
-40.6593
-37.0758
-40.1165
-45.5214
-38.7656
-35.6986
-39.9908
-54.541
-24.579
-49.8759
-61.2212
-53.1163
-67.9937
-49.2437
-57.1862
-90.1753
170.483
-64.5527
168.2
-55.2624
-50.1347
-48.4971
-31.8451
-38.0064
-20.7128
-45.1946
-43.6612
-32.3655
143.951
-54.7884
-0.742025
-39.796
-31.8751
-47.706
-46.2988
-89.9874
170.801
-55.8449
-50.3159
-48.3998
-31.7922
-45.7374
-43.268
-54.9412
-0.738492
-47.6392
-46.3494
-39.0452
-36.3691
-46.1209
-42.7936
-44.9825
-38.5659
-43.0148
-44.0241
-37.0679
-47.8237
-50.054
-84.227
20.3801
-88.4498
-81.3345
-56.7848
-39.0499
-36.432
-46.1328
-42.7837
-43.014
-43.8893
-50.1061
-84.2194
-89.7617
-45.5211
-47.3039
-76.649
-89.3467
-76.6039
-47.3229
-45.4516
-66.4712
-66.3199
-45.0017
-44.9991
-28.9489
12.3079
12.3429
-29.0096
139.076
108.959
109.095
140.01
-39.0507
-39.0563
-50.2959
-49.9689
-39.0334
-49.9538
-50.2766
-39.1424
-38.1567
-38.1568
-36.9464
-36.8472
-82.3476
-75.7394
-75.7453
-82.3029
-44.9768
-47.3669
-46.9605
-48.2495
-44.7803
-48.0989
-46.9055
-47.2755
-47.9743
-47.8549
-38.9319
-39.0223
-57.4909
-40.0243
-40.0168
-57.4851
-29.5122
-29.3822
-32.7966
-32.8448
-34.4526
-129.788
-96.3258
-36.2149
-36.5383
-41.0387
-31.7858
-27.9359
-57.7611
-34.4381
-34.7549
-38.2286
-128.812
-34.2795
-96.2204
-36.5101
-36.165
-41.2171
-28.1175
-31.8375
-58.0335
-34.7543
-34.3888
-38.2261
-41.1595
-38.1985
-40.1599
-40.1501
-44.9011
-36.372
-36.8889
-38.1328
-60.606
-56.6808
-62.5092
-63.93
-53.5892
-52.0344
-55.1207
-62.2386
-41.1371
-40.1279
-38.1797
-40.1151
-47.7492
-38.7314
-37.2342
-37.0549
-60.6364
-63.9015
-56.695
-62.49
-53.6061
-62.2328
-52.0436
-55.1419
-40.0496
-37.863
-79.7354
115.596
-96.86
-96.8341
-77.3186
70.6201
-57.8892
-45.8881
-54.6303
-50.0136
-34.5012
-33.69
-42.3604
-33.086
-31.2495
-31.1725
-34.5998
-21.099
-40.0325
-44.8507
-45.0114
-45.154
-14.9864
-14.8571
-31.9327
23.704
-45.9317
-45.7344
-52.5253
-15.1423
-34.601
-34.5902
-38.838
-33.0473
-45.3279
-53.4713
-49.5255
-47.4999
-39.9894
-38.1401
-79.6704
115.572
-57.6728
-46.0529
-55.8296
-50.345
-34.4319
-33.6346
-42.2933
-33.0099
-39.5836
-43.7107
-45.2418
-43.9735
-45.9309
-45.7716
-52.5786
-15.165
-45.3088
-53.5487
-49.4998
-47.4878
-36.2069
-35.918
-37.825
-36.124
-41.6145
-45.8829
-43.5767
-42.9915
-40.812
-40.8078
-42.6066
-39.8362
-41.8889
-45.0506
-43.0385
-43.6055
-38.8039
-38.8922
-37.8541
-43.4355
-59.2248
-56.8647
-55.3437
-69.0194
-22.8257
-22.8173
3.42333
-63.808
-69.5163
-69.5146
-75.7045
-63.6984
-36.1949
-35.8866
-37.8273
-36.1944
-41.5992
-45.8787
-43.5699
-42.9833
-41.8908
-45.0263
-43.0476
-43.535
-59.231
-56.8773
-55.3415
-69.0129
-68.0234
-55.794
-55.2777
-49.2628
-67.9047
-56.2022
-55.635
-49.3667
-56.135
-49.9249
-50.0028
-47.2174
-8.0672
6.20857
6.18346
20.1557
197.168
196.609
189.134
197.271
-40.7664
-42.6954
-42.871
-45.3632
-40.766
-42.6959
-42.8945
-45.3854
-36.5294
-36.9731
-36.6056
-36.5552
-90.0421
-90.3792
-86.8616
-90.0474
-49.032
-45.6554
-46.5797
-44.7074
-48.9154
-45.9067
-46.5048
-44.5934
-39.8942
-43.1871
-43.0546
-44.0947
-42.2723
-46.0709
-46.0681
-51.0603
-29.795
-25.8392
-29.6916
-29.7344
-80.4699
99.1061
-82.3812
54.0968
-88.4525
-68.4189
-42.014
-32.6112
-36.4078
-30.0175
-45.7167
-39.8591
-77.5896
71.2149
-36.9114
42.3144
-66.6264
-40.6261
-42.2275
-33.3739
-38.6745
-33.2896
-44.2239
-40.2041
-82.1205
54.569
-79.9149
98.6109
-87.7596
-68.2092
-36.3577
-29.9006
-41.9615
-32.5427
-45.9589
-39.8455
-36.9729
42.5179
-77.5794
71.2619
-66.5761
-40.6924
-38.6744
-33.256
-42.1722
-33.3223
-44.1948
-40.1923
-44.0619
-44.3447
-38.0285
-37.6716
-43.8125
-39.3849
-42.4576
-39.4572
-43.6543
-47.9755
-37.8606
-36.5339
-39.2855
-42.9888
-37.5372
-43.2222
-50.1084
-11.9666
-48.0084
-50.3865
-56.6652
-83.9663
-1.22028
-58.5689
-50.13
-58.2827
-49.6961
-48.729
-55.0437
-67.2997
-71.7558
-62.9843
-43.8573
-44.343
-42.4477
-39.4455
-38
-37.6625
-43.8261
-39.3641
-43.9296
-47.4501
-37.7509
-43.3346
-38.045
-36.7153
-39.3608
-43.1794
-50.1317
-11.8914
-1.19252
-59.1927
-48.016
-50.3859
-56.6345
-83.9314
-50.1219
-58.2749
-71.7502
-62.9774
-49.6898
-48.6399
-55.0582
-67.316
-90.6082
-86.6587
160.815
155.487
-64.892
-64.8325
161.007
161.018
-66.9266
-48.2606
-56.215
-47.3012
-47.982
-48.6027
-31.0677
-31.9946
-38.252
-38.3009
-24.4908
-24.3632
-44.7092
-46.4232
-44.5881
-40.6213
-28.8536
-29.0033
126.035
126.139
-49.5871
-66.1816
-14.2854
11.5571
-39.9
-39.894
-32.1802
-32.2112
-47.7018
-47.8356
-51.3941
-42.4998
-90.3295
-86.5273
155.408
160.999
-66.8346
-48.6496
-55.727
-47.3142
-48.5292
-47.8787
-31.1077
-31.9199
-43.8704
-46.0805
-44.2883
-40.4091
-65.9723
-49.6396
11.5719
-14.2996
-47.7784
-47.6862
-42.4924
-51.3894
-39.0392
-39.0307
-36.7383
-36.4088
-46.2493
-46.1693
-40.7744
-45.893
-45.0909
-45.0894
-38.4774
-38.4802
-40.8822
-45.802
-44.1122
-45.6131
-37.049
-36.9974
-47.8871
-47.8308
-50.3072
-49.0464
-85.7972
-80.0945
18.1785
18.1957
-87.517
-87.4417
-80.1463
-80.1516
-57.0623
-57.057
-39.0393
-39.1035
-36.7549
-36.4808
-46.1861
-46.2484
-40.7653
-45.8835
-45.7862
-40.8926
-43.9308
-45.4672
-48.9967
-50.2952
-80.1126
-85.7897
-85.0354
-64.9527
-67.8946
-81.6337
-44.6884
-42.9616
-48.9969
-47.6823
-54.2212
-50.5825
-49.4008
-45.3578
-74.3163
-77.4073
-66.9983
-58.5567
-84.9893
-81.3693
-67.6692
-64.3328
-74.3596
-58.5825
-66.836
-77.4069
-54.2336
-45.3613
-49.4589
-50.6227
-44.654
-47.9461
-49.1686
-42.9378
-88.2772
-78.2907
-56.1617
-56.7382
-87.9733
-56.5602
-56.118
-78.2109
-42.1819
-42.5532
-47.1685
-47.0403
-42.2017
-47.0282
-47.1579
-42.5566
-45.2201
-23.959
-9.35554
-35.2294
-43.1488
3.89019
18.5075
-7.30791
-43.136
-7.35804
18.4611
3.7452
-45.2742
-35.2021
-9.34197
-23.9453
40.9682
97.0228
185.06
73.5831
48.8236
24.5683
177.761
107.404
49.1635
107.518
177.879
24.8594
39.1006
73.5037
185.08
96.8677
-38.3538
-37.8556
-40.7148
-40.9247
-37.9073
-41.2064
-40.6585
-37.9268
-53.2226
-54.9446
-45.6963
-45.4182
-56.6934
-46.1868
-45.4824
-55.5824
-38.3321
-40.9093
-40.7307
-37.8544
-56.6911
-55.5734
-45.4784
-46.1806
-53.2621
-45.4161
-45.6996
-54.9531
-38.0046
-38.0333
-40.7535
-41.253
-38.9475
-39.7479
-36.9073
-36.4031
-38.9281
-36.4018
-36.9184
-39.7457
-37.4839
-37.8406
-36.5812
-36.2581
-37.1669
-36.1631
-36.5425
-37.777
-90.3873
-73.8877
-89.2173
-61.1813
-62.239
-74.9242
-85.5294
-65.2712
-62.1876
-65.253
-85.537
-74.9231
-90.4817
-61.1822
-89.1987
-73.8784
-47.4554
-44.6778
-44.3096
-43.266
-43.0888
-42.1345
-48.0665
-44.7312
-40.839
-47.211
-48.7952
-42.2375
-51.0859
-44.7966
-45.525
-50.5996
-47.9351
-43.2481
-43.8577
-43.8948
-51.0884
-50.5748
-45.4688
-44.733
-40.8132
-42.176
-48.8354
-47.2007
-43.099
-43.8697
-47.8535
-42.0701
-42.1528
-43.4413
-44.2069
-45.2786
-43.3526
-44.429
-44.1022
-43.4426
-38.1579
-35.2819
-40.0649
-40.4972
-38.1356
-40.7297
-40.1628
-35.3012
-60.3641
-52.6828
-51.0148
-63.5925
-38.4505
-38.8789
-42.3509
-43.2442
-38.4513
-43.2286
-42.3467
-38.877
-60.3496
-63.5888
-50.9433
-52.6704
-33.1386
-24.791
-27.4253
-33.43
-33.0659
-33.3603
-27.3231
-24.6819
-33.4446
-33.0598
-30.216
-32.9874
-33.4737
-33.0749
-30.2722
-33.0748
-63.7707
-147.08
-120.71
-38.423
-37.8769
-39.5511
-38.7349
-25.7091
-63.6009
-34.9932
-35.5259
-36.2532
-146.625
-63.5141
-120.586
-37.9253
-38.4208
-39.6507
-25.9342
-38.7005
-63.4648
-35.2544
-34.9429
-36.1203
-41.1327
-38.0399
-40.6136
-39.7489
-34.1963
-36.2807
-35.7744
-37.5248
-64.1113
-60.7437
-64.0515
-84.7097
-54.2382
-52.7006
-54.6851
-57.4816
-41.093
-39.7259
-38.0223
-40.5637
-35.5395
-38.5132
-35.7134
-35.7954
-64.1112
-84.7029
-60.7931
-64.0386
-54.2524
-57.4713
-52.7144
-54.7053
-34.1525
-38.5532
-63.4828
54.0773
-95.8015
-95.7913
-86.143
-66.5882
-52.886
-47.9251
-52.695
-49.7171
-34.0532
-33.6896
-38.1142
-33.3928
-30.5248
-30.4817
-32.5547
-24.5219
-42.3315
-53.9537
-45.5406
-46.966
-6.67509
-6.55027
12.624
-10.3032
-37.7213
-45.0703
-51.0887
-20.2015
-34.6786
-34.6693
-36.9894
-33.669
-48.1859
-52.4051
-50.2285
-49.2807
-34.2976
-38.816
-63.6376
53.8539
-52.9464
-48.2357
-54.1657
-50.1037
-33.9951
-33.6286
-38.0564
-33.3345
-41.4088
-50.5258
-44.5408
-44.7756
-37.6773
-45.1364
-51.352
-20.1174
-48.1643
-52.4045
-50.2063
-49.258
-35.9279
-35.878
-36.764
-36.0398
-42.5249
-44.5281
-43.5669
-43.2494
-40.8625
-40.8608
-41.5755
-40.311
-42.7018
-43.8952
-43.0788
-43.4549
-38.8333
-38.8679
-38.3448
-38.4844
-57.9594
-56.0186
-56.2951
-62.3881
-23.4912
-23.3947
-9.15027
-43.4268
-69.8941
-69.8943
-73.0387
-66.9272
-35.882
-35.7227
-36.7637
-36.0691
-42.5091
-44.5224
-43.5588
-43.2417
-42.7035
-43.875
-43.0817
-43.4333
-57.9678
-56.019
-56.3051
-62.377
-60.9838
-55.8083
-55.4134
-51.9448
-61.147
-56.1244
-55.7274
-52.1046
-52.0872
-50.0569
-50.091
-48.7735
0.712668
7.59583
7.57423
14.6452
204.272
201.385
199.897
204.325
-41.7021
-42.6816
-42.7535
-43.8741
-41.7007
-42.6837
-42.7744
-43.891
-36.5766
-36.6958
-36.5466
-36.5859
-90.9723
-91.8054
-89.0505
-90.9688
-47.6114
-45.9172
-46.4976
-44.9592
-47.4876
-45.9968
-46.4323
-45.0267
-41.467
-43.1184
-43.0532
-43.4913
-43.9598
-45.988
-45.9868
-48.1249
-29.1611
-29.5193
-28.9552
-29.1272
-12.9966
-21.6851
-71.605
65.1437
-116.422
-101.142
-93.7003
-52.7637
-80.5941
-63.2473
-85.8641
-68.7703
-35.4454
-34.6198
-39.0326
-33.0454
-35.1702
-32.2624
-35.0529
-30.9553
-40.6643
-39.3647
-43.8214
-40.1902
-29.4331
-36.4532
-74.5218
30.4785
-28.4956
-20.9315
-34.7172
-11.0485
-57.2128
-52.1686
-63.5096
-45.496
-34.0882
-33.7834
-38.2715
-33.5358
-34.7427
-34.5583
-36.2732
-33.6982
-39.4602
-42.8074
-42.9632
-40.381
-114.704
-100.997
-93.3192
-53.8048
-12.471
-21.1328
-72.7086
64.1307
-80.3236
-63.0505
-84.8229
-68.58
-35.1128
-32.22
-35.0005
-30.8377
-35.3853
-34.5481
-38.9827
-32.9852
-40.8924
-39.4701
-44.2586
-40.2985
-29.0225
-20.8582
-34.7053
-10.7033
-29.4391
-36.565
-74.457
30.1275
-57.9386
-52.129
-63.4334
-45.4934
-34.7311
-34.5437
-36.2717
-33.6657
-34.0345
-33.7264
-38.1957
-33.4839
-39.4435
-42.7957
-42.9453
-40.3674
-43.6409
-44.2163
-41.9201
-43.8705
-37.7516
-36.3784
-37.2298
-37.4891
-39.7299
-40.8761
-40.6936
-39.8034
-40.5404
-40.7429
-41.6168
-39.9019
-47.8924
-43.7727
-44.2863
-45.6835
-36.0882
-35.9156
-36.8644
-36.3663
-38.1166
-41.0599
-39.4583
-41.4596
-38.3574
-38.76
-38.029
-38.4131
-58.8048
-51.6019
-52.2894
-38.1353
-52.8165
-47.5842
-49.0248
-50.1817
-61.6754
-60.3631
-59.0344
-69.6788
-34.7538
-21.9723
-12.2187
-41.2068
-53.6168
-51.7286
-50.9095
-57.4187
-51.4652
-46.8753
-49.333
-48.7749
-55.65
-58.4834
-55.7277
-61.7796
-66.4752
-68.8604
-69.9628
-65.9169
-43.6156
-44.2605
-41.7784
-43.8738
-40.5231
-40.7353
-41.6055
-39.8885
-37.7378
-36.3721
-37.2036
-37.4812
-39.6926
-40.8584
-40.6656
-39.7825
-48.122
-44.6781
-44.986
-45.0214
-38.6817
-38.8767
-38.3232
-38.484
-36.8129
-36.2711
-36.8483
-36.4999
-38.2319
-41.1358
-39.6832
-41.5975
-58.8507
-51.6865
-52.3164
-38.0439
-34.7306
-21.9315
-12.1924
-41.1094
-52.818
-47.5837
-49.0304
-50.178
-61.6943
-60.3665
-59.022
-69.6847
-53.6033
-51.7287
-50.864
-57.4253
-66.4727
-68.8575
-69.958
-65.9111
-51.4462
-46.8406
-49.3014
-48.7323
-55.6747
-58.506
-55.7566
-61.7862
-90.8889
-79.5632
-90.2419
-88.6162
144.595
184.551
166.032
165.029
-69.9912
-60.148
-64.5036
-64.4755
119.409
182.554
168.094
168.084
-55.0531
-55.5113
-60.0483
-51.4708
-50.2001
-50.131
-52.4966
-48.7705
-45.414
-49.7278
-48.2974
-48.5898
-32.5148
-30.9052
-32.2457
-31.767
-36.4899
-39.0906
-38.0592
-38.0824
-20.4681
-22.4797
-21.71
-21.6279
-44.7888
-45.5515
-45.2137
-45.9057
-44.1715
-43.389
-44.042
-41.9832
-60.0195
-17.77
-32.4532
-32.6397
79.4275
176.46
135.778
135.808
-53.9222
-55.3457
-51.7787
-59.4827
-6.71646
3.56813
-7.37518
5.75792
-38.9043
-40.8462
-39.8349
-39.8302
-32.5273
-30.8451
-31.9521
-31.9689
-49.1161
-46.7405
-47.407
-47.7178
-46.7326
-46.1655
-48.6953
-44.3091
-90.7247
-79.4045
-90.0134
-88.4566
144.727
184.672
165.105
166.273
-55.8464
-56.0608
-59.3444
-52.5128
-50.4256
-50.2575
-52.3224
-48.9882
-45.3417
-49.6207
-48.5121
-48.1984
-32.4466
-30.8325
-32.1759
-31.7265
-45.3132
-45.9632
-45.6415
-45.4697
-43.5305
-43.1521
-43.7056
-41.6886
-54.0204
-55.6346
-59.6046
-51.8384
-6.74608
3.54757
5.74484
-7.38877
-49.0919
-46.6671
-47.6544
-47.3665
-46.7689
-46.1619
-44.3029
-48.6897
-38.3862
-39.9371
-39.1112
-39.0726
-36.2481
-36.4643
-36.4926
-36.3348
-44.6554
-47.2659
-46.3111
-46.0798
-42.886
-42.7405
-41.76
-44.2089
-43.8946
-45.7978
-45.0043
-45.0033
-39.7744
-37.3802
-38.4895
-38.4946
-42.9633
-43.0327
-42.0421
-44.1462
-43.8081
-44.3845
-43.8593
-44.4295
-37.4042
-36.8047
-37.0683
-37.0431
-49.6114
-45.1533
-48.0322
-47.9634
-52.493
-47.3957
-50.2651
-49.5904
-77.666
-88.2398
-84.9374
-81.801
13.9395
22.8703
19.2617
19.2717
-83.3585
-89.5804
-88.1473
-88.1323
-78.4207
-84.2798
-81.0144
-81.0166
-60.3979
-53.7659
-56.938
-56.9402
-38.3946
-39.9456
-39.1092
-39.1074
-36.3263
-36.5084
-36.51
-36.415
-44.6535
-47.3143
-46.0934
-46.3213
-42.8737
-42.7353
-41.7517
-44.2005
-42.968
-43.0397
-44.145
-42.0145
-43.7072
-44.2367
-43.7171
-44.2883
-52.528
-47.4299
-49.5856
-50.3431
-77.6373
-88.2526
-81.8226
-84.9362
-92.9368
-90.2913
-90.1895
-77.4119
-45.0045
-46.1093
-46.1262
-46.0198
-48.491
-47.3367
-48.0699
-46.5554
-76.5128
-70.782
-82.2012
-72.0199
-92.9028
-89.9969
-89.8332
-76.9998
-76.4911
-70.7714
-82.1108
-71.9493
-48.5122
-47.3501
-48.0971
-46.5723
-44.8656
-45.944
-46.1663
-45.9914
-73.0784
-67.3529
-65.5284
-61.4816
-72.8845
-67.1561
-65.4292
-61.3483
-44.8358
-43.6111
-46.3083
-45.0798
-44.8348
-43.6161
-46.3011
-45.0776
-33.9404
-33.0669
-27.9116
-22.5309
5.28327
6.56215
13.7403
15.9757
5.32141
6.57925
13.7554
15.9781
-34.0269
-33.1341
-27.9853
-22.5616
109.041
107.613
150.129
150.451
87.7764
81.6761
134.495
115.394
81.6132
87.4696
115.34
134.174
108.252
110.187
150.516
150.722
-38.5563
-39.2824
-39.1086
-39.9715
-38.1385
-39.1838
-39.0729
-40.0055
-49.9759
-53.4422
-47.5908
-50.3667
-50.2421
-53.2555
-47.6606
-49.8118
-38.5401
-39.2549
-39.0916
-39.9588
-50.2355
-53.2297
-47.6451
-49.7898
-49.9634
-53.45
-47.5804
-50.3679
-38.3431
-39.2448
-39.1497
-40.048
-37.8948
-39.157
-37.1307
-38.3241
-39.1536
-37.8844
-38.3292
-37.1401
-37.2624
-36.8421
-37.0113
-36.6936
-36.6961
-37.176
-36.5832
-36.9374
-81.5072
-75.3699
-84.1679
-85.9257
-71.8684
-73.4118
-78.1764
-78.6113
-73.4117
-71.8316
-78.6172
-78.1837
-75.4163
-81.5194
-85.5801
-84.0887
-45.1038
-45.5073
-44.2006
-44.5628
-44.9327
-46.8788
-47.6648
-46.8013
-45.0029
-45.8432
-47.9799
-47.892
-49.6647
-48.8161
-47.6435
-47.0839
-44.8459
-45.2291
-43.8166
-44.3671
-49.6732
-48.6874
-47.5777
-46.9035
-44.9507
-45.7929
-47.919
-47.8708
-44.8721
-46.8917
-47.5551
-46.6223
-48.0786
-49.3787
-45.5161
-47.9806
-47.8958
-49.4132
-45.2265
-47.8685
-37.6418
-39.3678
-38.563
-39.6973
-37.6977
-39.4458
-38.6379
-39.8443
-57.7367
-59.8943
-54.4315
-57.1586
-39.0012
-40.0616
-39.9644
-41.2088
-38.9956
-40.0516
-39.9573
-41.2019
-57.7298
-59.8833
-54.4262
-57.1394
-31.9265
-29.3599
-29.6672
-26.8066
-29.2414
-31.8299
-26.6648
-29.5387
-33.0238
-33.0995
-32.4821
-32.3594
-33.1503
-33.0647
-32.419
-32.5231
-86.2993
56.1778
-105.567
-22.9563
-95.267
-90.8407
-40.7761
-33.9209
-37.1729
-34.4303
-43.132
-39.1188
-71.9174
29.5711
-42.1383
10.7555
-66.1679
-49.1549
-37.945
-33.73
-35.7365
-34.2978
-39.0379
-38.3726
-105.08
-26.3983
-86.378
53.6559
-95.4336
-90.627
-37.1864
-34.261
-40.7735
-33.8625
-43.2362
-39.2261
-42.1878
10.7132
-71.9081
29.5787
-66.2579
-49.2497
-35.7847
-34.2119
-37.9048
-33.6071
-39.0347
-38.3731
-43.3314
-42.0409
-37.93
-38.6007
-41.1269
-38.6125
-40.9938
-39.3955
-47.2871
-43.4902
-36.9296
-36.8637
-37.8164
-34.4053
-37.592
-38.247
-57.6915
-66.1764
-55.9585
-56.251
-60.9428
-75.098
-52.2372
-73.5316
-51.8709
-55.5019
-52.4433
-51.6307
-53.504
-58.6586
-63.3325
-60.9185
-43.2939
-42.018
-40.9725
-39.3737
-37.9072
-38.5834
-41.0639
-38.5847
-47.5642
-47.57
-38.0221
-39.1204
-37.0666
-37.2512
-37.9039
-34.8112
-57.7146
-66.2279
-52.2343
-73.4786
-55.9628
-56.2767
-60.928
-75.1354
-51.8959
-55.509
-63.299
-60.9183
-52.4638
-51.63
-53.5205
-58.6705
-63.1191
54.1649
-66.7636
49.3914
-81.15
-78.5324
108.68
116.899
-87.3554
-57.1286
-87.2821
-57.3015
-77.5116
-77.4779
63.9892
63.9532
-63.3829
-56.8112
-46.9946
-46.6132
-59.0504
-50.8413
-52.6852
-48.6795
-38.1612
-33.4786
-37.9927
-33.3328
-42.267
-42.0574
-33.2886
-32.9914
-33.4978
-26.463
-33.4274
-26.3832
-34.9256
-34.8425
-21.983
-21.913
-43.8221
-40.2452
-43.4395
-45.4619
-48.6778
-43.9552
-45.5582
-42.6198
-18.5304
-6.71225
-18.311
-6.69762
-40.3033
-40.0884
25.5772
25.4142
-53.3075
-35.4922
-51.2995
-25.4468
-50.7643
-54.8306
-18.6091
-9.50133
-36.8584
-33.6198
-36.858
-33.604
-38.8768
-38.8803
-33.024
-33.0218
-46.9141
-43.9152
-51.7266
-54.3392
-48.713
-50.527
-50.0483
-45.1705
-63.5203
53.8782
-66.7699
49.2878
-80.9815
-78.5091
116.942
108.639
-62.7047
-56.651
-47.2289
-46.6606
-58.0912
-51.7388
-52.3674
-49.0871
-38.0991
-33.4209
-37.9394
-33.2726
-41.9965
-42.1959
-33.2204
-32.8937
-42.0346
-40.0351
-44.4251
-44.7189
-48.837
-43.1655
-44.4003
-42.0872
-53.3212
-35.4991
-51.3463
-25.3603
-54.9064
-50.8158
-9.47025
-18.6559
-46.9028
-43.901
-51.7095
-54.3115
-50.4857
-48.6908
-45.178
-50.0366
-36.8951
-36.2413
-36.8851
-36.0553
-37.9659
-38.1942
-36.199
-36.1043
-42.095
-41.1924
-45.623
-46.0526
-42.9437
-44.4396
-42.0523
-44.3622
-41.5854
-40.1884
-41.5814
-40.1848
-42.6079
-42.6092
-39.8208
-39.8189
-41.414
-43.2403
-45.237
-44.9774
-42.1774
-44.0494
-43.094
-44.1587
-38.2756
-38.4335
-38.3083
-38.5004
-37.8477
-37.8315
-43.4348
-43.4354
-58.274
-65.2687
-55.4628
-60.3886
-54.9927
-55.8042
-71.2156
-67.0719
-8.4155
-42.9048
-8.36075
-43.0286
3.84281
3.93506
-63.1727
-63.1252
-72.4012
-66.6003
-72.3987
-66.5984
-75.5362
-75.5357
-63.6564
-63.6533
-36.8838
-36.2404
-36.9553
-36.1738
-37.9637
-38.1543
-36.2159
-36.1835
-42.083
-41.1805
-45.6205
-46.0486
-44.4382
-42.9298
-42.0444
-44.3534
-41.4126
-43.1721
-45.2241
-44.9341
-44.0515
-42.1944
-43.0391
-44.0943
-58.2724
-65.2684
-55.4753
-60.3791
-55.8027
-55
-67.0575
-71.2035
-68.1052
-67.4046
-60.7724
-51.8443
-51.6605
-60.2001
-49.1411
-49.192
-67.9394
-67.2876
-60.7563
-52.235
-60.3708
-51.731
-49.2704
-49.2835
-56.1236
-56.1046
-52.0925
-48.7528
-52.0407
-48.8403
-47.2499
-47.2446
-8.83881
-8.75516
-1.64755
12.565
12.47
-1.65731
19.6836
19.5926
192.64
194.897
194.771
194.786
186.752