# vtk DataFile Version 2.0
tet_velo
ASCII
DATASET UNSTRUCTURED_GRID
POINTS 29498 float
-0.735 0.215 -2.008
-0.756669 0.265 2.075
-0.785 0.755 -1.88176
-0.685 0.835 2.0059
0.735 0.215 -2.00679
0.755 0.265 2.07576
0.7796 0.745 -1.895
0.675 0.835 2.01351
-0.792245 0.181645 -0.647
-0.807828 0.189951 0.714
-0.821659 0.851659 -0.585873
-0.79596 0.88596 0.710013
0.791684 0.181649 -0.64594
0.806711 0.189955 0.71491
0.823033 0.8533 -0.592163
0.7947 0.889833 0.710673
-1.52422 -0.132985 -3.09627
-1.53044 -0.111385 -2.03169
-1.56862 -0.132238 -0.669695
-1.57371 -0.130063 0.704191
-1.53558 -0.0802716 2.06717
-1.52872 -0.0558388 3.13655
-1.53822 -0.0438118 4.19677
-1.5271 0.171367 -3.05814
-1.53379 0.207772 -2.00002
-1.58056 0.196373 -0.650479
-1.57434 0.194889 0.703937
-1.51054 0.233442 2.05462
-1.51419 0.256067 3.12343
-1.53294 0.269102 4.18587
-1.5498 0.755882 -2.96295
-1.57001 0.792634 -1.90032
-1.60369 0.855293 -0.594745
-1.56684 0.871142 0.705078
-1.47063 0.844498 2.01168
-1.4958 0.866086 3.08397
-1.53068 0.889498 4.15711
-1.56959 1.70112 -2.87005
-1.58101 1.74624 -1.81841
-1.59306 1.81591 -0.531053
-1.58675 1.8514 0.741728
-1.56546 1.84481 2.02915
-1.55943 1.84294 3.08093
-1.56695 1.85355 4.14636
-0.746152 -0.130402 -3.10149
-0.743274 -0.106484 -2.0382
-0.778874 -0.140094 -0.669083
-0.796509 -0.133113 0.712593
-0.775001 -0.0627891 2.08192
-0.77268 -0.0440432 3.14702
-0.780947 -0.037985 4.20325
-0.746714 0.169276 -3.06143
-0.767422 0.267388 3.1327
-0.780506 0.27397 4.19124
-0.765268 0.738424 -2.95804
-0.753116 0.864853 3.08449
-0.782494 0.889482 4.15832
-0.78144 1.69034 -2.86442
-0.7894 1.73687 -1.81172
-0.802907 1.81562 -0.526922
-0.810627 1.85568 0.74126
-0.805775 1.84469 2.02575
-0.803749 1.84082 3.07773
-0.810107 1.85177 4.1443
0.78043 -0.131238 -3.10286
0.770802 -0.106473 -2.03774
0.797153 -0.139887 -0.668301
0.796612 -0.13293 0.713517
0.760392 -0.0626567 2.08304
0.741552 -0.0437927 3.14895
0.733299 -0.0375917 4.2054
0.77484 0.167507 -3.06392
0.724964 0.267584 3.1352
0.72206 0.274358 4.19375
0.785693 0.733808 -2.96499
0.694546 0.865178 3.08895
0.704965 0.889977 4.16146
0.792844 1.68843 -2.86931
0.793907 1.73544 -1.81663
0.78519 1.81606 -0.529903
0.751536 1.85717 0.741174
0.713427 1.84594 2.02781
0.702655 1.84177 3.08026
0.700317 1.85257 4.14664
1.55305 -0.134481 -3.09959
1.54735 -0.111595 -2.03292
1.58103 -0.131385 -0.669364
1.5821 -0.129108 0.706179
1.53552 -0.0796955 2.07044
1.50878 -0.0551608 3.14057
1.49805 -0.0429387 4.2009
1.54669 0.168524 -3.06338
1.53298 0.206732 -2.00299
1.58103 0.19757 -0.651096
1.58231 0.196315 0.706316
1.51714 0.233903 2.05917
1.48919 0.256695 3.12848
1.48399 0.269983 4.19065
1.56133 0.74976 -2.9738
1.56324 0.786154 -1.91313
1.60118 0.857097 -0.601235
1.56879 0.875153 0.707027
1.46506 0.845729 2.02006
1.45392 0.867043 3.09127
1.4627 0.890593 4.16282
1.5777 1.69803 -2.87882
1.58092 1.74413 -1.82694
1.5744 1.81681 -0.536214
1.53623 1.85405 0.741538
1.48641 1.84717 2.03269
1.46744 1.84481 3.08543
1.46293 1.85516 4.15068
-0.787801 0.485 -1.97268
0 0.213974 -2.00842
-0.78589 0.176055 -1.3275
-0.749549 0.55 2.06916
-0.000834495 0.262479 2.0779
-0.797602 0.212122 1.3945
-0.0027 0.805109 -1.94349
-0.835513 0.835513 -1.23382
-0.005 0.902009 2.07671
-0.784047 0.904047 1.35796
0.762931 0.48 -1.95653
0.785609 0.176058 -1.32637
0.744694 0.55 2.07433
0.79734 0.210993 1.39533
0.835708 0.833542 -1.24358
0.780443 0.908009 1.36209
-0.798078 0.187757 0.0335001
-0.857865 0.516652 -0.616437
-0.00028057 0.181581 -0.64647
-0.876758 0.537955 0.712007
-0.000558308 0.189572 0.714455
-0.805356 0.865356 0.06207
0.000687341 1.13047 -0.589018
-0.000629915 1.29847 0.710343
0.797238 0.187762 0.034485
0.859082 0.517475 -0.619052
0.87802 0.539894 0.712792
0.805412 0.868112 0.059255
-0.88474 0.500826 -1.28066
-0.863979 0.527304 0.047785
-0.884866 0.543978 1.37623
-0.000140285 0.174731 -1.32693
-0.000419439 0.188602 0.0339925
-0.000696402 0.202466 1.39492
-0.00135 0.4825 -2.26977
-0.00291725 0.55 2.1762
-0.00100633 0.936468 -1.2387
2.87131e-05 1.29631 0.0606625
-0.00281495 1.20598 1.36002
0.88479 0.498737 -1.28497
0.865219 0.528684 0.04687
0.886041 0.544947 1.37871
-1.1344 0.211386 -2.00401
-0.739137 0.0542578 -2.0231
-0.740857 0.192138 -2.53472
-1.1336 0.249221 2.06481
-0.765835 0.101105 2.07846
-0.762046 0.266194 2.60385
-1.17751 0.773817 -1.89104
-0.775134 0.746712 -2.4199
-0.7872 1.24594 -1.84674
-1.07781 0.839749 2.00879
-0.719058 0.849927 2.5452
-0.745387 1.33985 2.01583
0.752901 0.0542634 -2.02226
0.75492 0.191253 -2.53536
1.13399 0.210866 -2.00489
0.757696 0.101172 2.0794
0.739982 0.266292 2.60548
1.13607 0.249451 2.06746
0.782647 0.739404 -2.42999
0.786754 1.24022 -1.85582
1.17142 0.765577 -1.90406
0.684773 0.850089 2.55123
0.694214 1.34047 2.02066
1.07003 0.840365 2.01678
-1.1864 0.189009 -0.64874
-0.78556 0.0207753 -0.658041
-1.19108 0.19242 0.708969
-0.802168 0.0284191 0.713297
-1.21267 0.853476 -0.590309
-0.812283 1.33364 -0.556398
-1.1814 0.878551 0.707546
-0.803293 1.37082 0.725637
0.794419 0.020881 -0.657121
1.18636 0.18961 -0.648518
0.801662 0.0285125 0.714214
1.19451 0.193135 0.710613
0.804112 1.33468 -0.561033
1.2121 0.855199 -0.596699
0.773118 1.3735 0.725924
1.18174 0.882493 0.70885
-1.52733 -0.122185 -2.56398
-1.52566 0.0191911 -3.0772
-1.13519 -0.131693 -3.09888
-1.54953 -0.121812 -1.35069
-1.53212 0.0481932 -2.01586
-1.13686 -0.108935 -2.03495
-1.57117 -0.13115 0.0172481
-1.57459 0.0320676 -0.660087
-1.17375 -0.136166 -0.669389
-1.55465 -0.105167 1.38568
-1.57403 0.032413 0.704064
-1.18511 -0.131588 0.708392
-1.53215 -0.0680552 2.60186
-1.52306 0.076585 2.06089
-1.15529 -0.0715304 2.07454
-1.53347 -0.0498253 3.66666
-1.52145 0.100114 3.12999
-1.1507 -0.049941 3.14179
-1.53558 0.112645 4.19132
-1.15959 -0.0408984 4.20001
-1.53045 0.189569 -2.52908
-1.53845 0.463625 -3.01054
-1.13691 0.170322 -3.05978
-1.55718 0.202072 -1.32525
-1.5519 0.500203 -1.95017
-1.57745 0.195631 0.0267288
-1.59212 0.525833 -0.622612
-1.54244 0.214165 1.37928
-1.57059 0.533015 0.704507
-1.51236 0.244754 2.58902
-1.49058 0.53897 2.03315
-1.52356 0.262584 3.65465
-1.50499 0.561076 3.1037
-1.1408 0.261728 3.12806
-1.53181 0.5793 4.17149
-1.15672 0.271536 4.18855
-1.55991 0.774258 -2.43163
-1.5597 1.2285 -2.9165
-1.15753 0.747153 -2.9605
-1.58685 0.823963 -1.24753
-1.57551 1.26944 -1.85936
-1.58527 0.863218 0.0551666
-1.59838 1.3356 -0.562899
-1.51873 0.85782 1.35838
-1.5768 1.36127 0.723403
-1.48321 0.855292 2.54782
-1.51804 1.34466 2.02041
-1.51324 0.877792 3.62054
-1.52761 1.35451 3.08245
-1.12446 0.86547 3.08423
-1.54882 1.37152 4.15174
-1.15659 0.88949 4.15771
-1.5753 1.72368 -2.34423
-1.17552 1.69573 -2.86724
-1.58704 1.78107 -1.17473
-1.1852 1.74156 -1.81507
-1.58991 1.83366 0.105338
-1.19799 1.81576 -0.528987
-1.5761 1.84811 1.38544
-1.19869 1.85354 0.741494
-1.56244 1.84388 2.55504
-1.18562 1.84475 2.02745
-1.56319 1.84824 3.61365
-1.18159 1.84188 3.07933
-1.18853 1.85266 4.14533
-0.744713 -0.118443 -2.56984
-0.746433 0.0194373 -3.08146
0.017139 -0.13082 -3.10217
-0.761074 -0.123289 -1.35364
0.0137637 -0.106479 -2.03797
-0.787691 -0.136604 0.0217553
0.00913965 -0.139991 -0.668692
-0.785755 -0.0979511 1.39725
5.15972e-05 -0.133022 0.713055
-0.77384 -0.0534162 2.61447
-0.00730463 -0.0627229 2.08248
-0.776813 -0.0410141 3.67514
-0.770051 0.111673 3.13986
-0.0155639 -0.043918 3.14799
-0.780726 0.117993 4.19724
-0.0238239 -0.0377884 4.20432
-0.755991 0.45385 -3.00974
0.0140628 0.168392 -3.06268
-0.773964 0.270679 3.66197
-0.760269 0.566121 3.1086
-0.0212291 0.267486 3.13395
-0.7815 0.581726 4.17478
-0.0292232 0.274164 4.1925
-0.773354 1.21438 -2.91123
0.0102127 0.736116 -2.96151
-0.767805 0.877168 3.62141
-0.778432 1.35284 3.08111
-0.0292849 0.865015 3.08672
-0.7963 1.37062 4.15131
-0.0387643 0.88973 4.15989
-0.78542 1.71361 -2.33807
0.00570245 1.68939 -2.86687
-0.796153 1.77624 -1.16932
0.00225383 1.73615 -1.81418
-0.806767 1.83565 0.107169
-0.00885826 1.81584 -0.528412
-0.808201 1.85019 1.38351
-0.0295458 1.85643 0.741217
-0.804762 1.84276 2.55174
-0.0461737 1.84532 2.02678
-0.806928 1.84629 3.61102
-0.0505474 1.84129 3.07899
-0.0548947 1.85217 4.14547
0.775616 -0.118856 -2.5703
0.777635 0.0181344 -3.08339
1.16674 -0.13286 -3.10122
0.783978 -0.12318 -1.35302
1.15907 -0.109034 -2.03533
0.796883 -0.136409 0.022608
1.18909 -0.135636 -0.668833
0.778502 -0.0977935 1.39828
1.18936 -0.131019 0.709848
0.750972 -0.0532247 2.616
1.14796 -0.0711761 2.07674
0.737425 -0.0406922 3.67717
0.733258 0.111896 3.14207
1.12517 -0.0494768 3.14476
0.727679 0.118383 4.19958
1.11567 -0.0402652 4.20315
0.780267 0.450658 -3.01445
1.16076 0.168015 -3.06365
0.723512 0.270971 3.66448
0.709755 0.566381 3.11207
1.10708 0.26214 3.13184
0.713513 0.582167 4.1776
1.10303 0.272171 4.1922
0.789269 1.21112 -2.91715
1.17351 0.741784 -2.96939
0.699756 0.877577 3.6252
0.6986 1.35347 3.0846
1.07423 0.86611 3.09011
0.702641 1.37127 4.15405
1.08383 0.890285 4.16214
0.793376 1.71193 -2.34297
1.18527 1.69323 -2.87407
0.789549 1.77575 -1.17327
1.18741 1.73978 -1.82179
0.768363 1.83662 0.105636
1.1798 1.81643 -0.533058
0.732482 1.85156 1.38449
1.14388 1.85561 0.741356
0.708041 1.84385 2.55403
1.09992 1.84655 2.03025
0.701486 1.84717 3.61345
1.08505 1.84329 3.08285
1.08163 1.85386 4.14866
1.5502 -0.123038 -2.56625
1.54987 0.0170216 -3.08148
1.56419 -0.12149 -1.35114
1.54016 0.0475689 -2.01796
1.58157 -0.130246 0.0184075
1.58103 0.0330928 -0.66023
1.55881 -0.104401 1.38831
1.5822 0.0336038 0.706248
1.52215 -0.0674282 2.6055
1.52633 0.0771036 2.0648
1.50341 -0.0490498 3.67073
1.49899 0.100767 3.13452
1.49102 0.113522 4.19578
1.53984 0.187628 -2.53319
1.55401 0.459142 -3.01859
1.55701 0.202151 -1.32704
1.54811 0.496443 -1.95806
1.58167 0.196943 0.0276105
1.5911 0.527334 -0.626165
1.54972 0.215109 1.38274
1.57555 0.535734 0.706672
1.50317 0.245299 2.59382
1.4911 0.539816 2.03961
1.48659 0.263339 3.65957
1.47156 0.561869 3.10988
1.47335 0.580288 4.17674
1.56229 0.767957 -2.44346
1.56951 1.2239 -2.92631
1.58221 0.821626 -1.25718
1.57208 1.26514 -1.87003
[...]
POINT_DATA 29498
VECTORS point_vectors float
-0.327449 -1.26787 2.77423
0.123167 0.200742 0.718415
-1.82159 1.64921 4.25232
-0.0608925 -0.0955173 0.0628464
0.384498 -1.41144 3.04381
-0.132607 0.20681 0.744235
1.90044 1.8471 4.07965
0.0577681 -0.0907721 0.0648242
0.00274849 0.00153923 0.162938
0.0125106 -0.00465248 0.28492
-0.00144997 -0.00130708 0.0121621
0 0 0
-0.00309054 0.00146508 0.171272
-0.0121593 -0.00523387 0.28455
0.0105264 -0.00862421 0.0797147
0 0 0
-0.631461 -0.259247 19.8387
-1.25272 -0.682136 20.4886
-0.431271 -0.36629 21.2901
0.0392481 -0.120461 21.4239
0.602383 0.153565 21.3695
0.877313 0.26423 21.1016
0.788853 0.141452 20.2884
-0.744727 -0.18065 19.7472
-1.71003 -0.526106 20.4786
-0.568274 -0.395754 21.3482
-0.00354866 -0.202385 21.4934
0.74665 0.0139209 21.4996
1.0467 0.0689348 21.0269
0.93628 0.0299485 20.4816
-0.864521 0.113508 19.7063
-1.78562 0.196515 20.504
-0.928165 -0.22337 21.3164
-0.202308 -0.253669 21.5701
0.649723 -0.408851 21.4932
0.990315 -0.431279 21.1014
0.643219 -0.331308 20.9024
-0.557322 0.383496 19.9936
-0.859356 0.587758 20.4574
-0.765497 0.334306 21.0992
-0.294405 -0.00797875 21.3928
0.103519 -0.294634 21.2867
0.348604 -0.420446 21.1093
0.380885 -0.585969 20.7394
-0.647945 -0.661176 19.2221
-1.66508 -3.42424 20.7381
-0.282509 -0.323809 21.5022
0.0592598 0.0820753 20.3857
0.545787 1.08852 18.9528
0.918567 1.47777 19.0554
0.658812 0.963729 19.7157
-0.844655 -0.508592 18.8285
1.65001 1.60499 11.5116
1.57922 0.855568 14.3334
-1.12082 0.391053 18.4859
1.13411 -0.721363 8.64927
1.54584 -0.525097 13.2885
-0.50989 0.807509 19.6051
-0.952419 1.50798 20.268
-1.12791 1.32473 21.1997
-0.429714 0.244937 21.8226
-0.0104247 -0.419105 21.4386
0.167133 -0.713722 21.2232
0.112573 -0.658552 20.5323
0.658542 -0.634544 19.2686
1.74758 -3.32916 20.6872
0.270741 -0.315843 21.4362
-0.0513071 0.0849049 20.3921
-0.512087 1.12086 18.8667
-0.845256 1.51144 18.8954
-0.60119 1.0786 19.4619
0.857788 -0.48722 18.8704
-1.51437 1.61539 10.8093
-1.60664 1.01971 13.476
1.11445 0.371288 18.5368
-1.03803 -0.720375 6.88717
-1.49196 -0.573292 11.5097
0.512707 0.798431 19.6093
0.956322 1.50271 20.2647
1.12918 1.35494 21.1967
0.423616 0.268969 21.8567
0.0326906 -0.433253 21.4628
-0.138639 -0.748063 21.199
-0.140899 -0.673778 20.7354
0.624204 -0.252325 19.8451
1.24167 -0.6676 20.4932
0.438444 -0.371439 21.2851
-0.0310369 -0.125287 21.4257
-0.609092 0.166433 21.3754
-0.895533 0.274511 21.0859
-0.794692 0.177571 20.3885
0.729294 -0.17502 19.7644
1.71889 -0.533125 20.4751
0.576166 -0.399228 21.3495
0.00803996 -0.203192 21.4969
-0.751211 0.0106927 21.5072
-1.08417 0.0753435 21.0558
-0.940451 0.0780233 20.6122
0.840578 0.104004 19.7244
1.80541 0.195906 20.491
0.939583 -0.219157 21.3214
0.203567 -0.252273 21.5796
-0.675489 -0.418327 21.5006
-1.05795 -0.483463 21.1116
-0.766897 -0.430111 20.7083
0.55316 0.380143 19.9953
0.860318 0.588443 20.452
0.779885 0.344078 21.1039
0.309534 -0.00684538 21.4065
-0.101018 -0.318932 21.3035
-0.32788 -0.466913 21.0918
-0.344524 -0.572957 20.7858
-2.33051 -0.0636077 2.38346
0 0 0
-0.020615 0.00449668 0.540538
0.0138126 -0.028724 0.052002
0.00238961 0.0156634 0.0581061
0.0132255 0.0136481 0.349717
-0.000225728 0.0348827 0.116795
-0.112127 -0.0698242 0.496386
0.00212036 0.00483327 -0.00813961
0 0 0
0 0 0
0.0224992 0.00505111 0.507981
-0.00879711 -0.0197727 0.0337264
-0.0142262 0.0162942 0.402214
0.103177 -0.0643407 0.462912
0 0 0
0.000500218 8.00122e-05 0.024709
0 0 0
1.40831e-06 8.21133e-06 0.00143018
-4.92347e-05 0.000178102 0.0018086
1.78985e-06 1.86363e-06 0.00069865
0 0 0
0.000342521 0.0541901 0.134283
3.07686e-06 -9.83549e-05 0.00208005
-0.00060872 0.000117178 0.0350057
0 0 0
6.38492e-06 2.27904e-05 0.000227828
-1.20343e-17 1.9477e-17 8.18551e-17
0 0 0
-0.00022272 0.00135626 0.0142575
0 0 0
2.43105e-08 2.28586e-07 -2.13675e-05
2.42345e-08 2.94121e-08 1.10634e-05
0 0 0
0.000328279 0.0380501 0.0514345
0 0 0
3.17728e-06 9.376e-05 0.000789026
2.60885e-06 0.00200534 0.0173775
0.000241933 -0.000906418 0.00324417
0 0 0
0.000216166 0.00130405 0.0137188
0 0 0
-3.51697 -1.77525 20.3177
-2.53209 -5.60037 20.9231
-2.34368 -1.82618 17.5884
1.22137 0.419265 18.9545
0.536608 1.2014 12.7237
0.970543 0.981366 7.95879
-3.51041 0.838145 20.5596
-3.27672 1.67022 17.0779
-2.08633 2.53556 20.2506
1.21077 -0.331938 17.7137
-0.192002 -0.767928 4.27275
0.362514 -0.484807 16.748
2.58347 -5.43495 20.8242
2.33736 -1.77061 17.6609
3.5203 -1.77856 20.2996
-0.507763 1.22613 12.6321
-0.893157 1.00433 7.65425
-1.23856 0.432628 18.9993
3.22756 1.56944 17.1223
2.10501 2.56529 20.2294
3.58731 0.855642 20.5085
0.337526 -0.777436 3.36782
-0.404474 -0.506153 15.5162
-1.24808 -0.344595 17.3968
-0.392887 -0.693261 21.3091
-0.0964157 0.056148 16.4756
0.0977755 -0.21126 20.1879
0.17381 0.122894 15.0743
-1.40052 -0.722139 21.5818
-2.84461 1.62168 21.3106
-0.155749 -0.518989 20.485
-0.685462 0.0572738 20.8377
0.111896 0.0603029 16.5865
0.402089 -0.701424 21.2915
-0.153286 0.125758 15.0615
-0.0923143 -0.216254 20.2453
2.83101 1.68368 21.2915
1.42723 -0.715232 21.5619
0.541134 0.144142 19.9858
0.164783 -0.514836 20.5007
-0.994687 -0.494027 19.9943
-0.699258 -0.239697 19.7925
-0.69869 -0.455646 19.5498
-0.881996 -0.547692 21.1361
-1.47822 -0.640591 20.4855
-1.79992 -1.64651 20.5036
-0.170197 -0.231241 21.3712
-0.518347 -0.393014 21.3114
-0.303017 -0.463775 21.5179
0.29282 0.0121979 21.4716
0.0172297 -0.164257 21.428
0.123253 -0.0929635 21.5555
0.757359 0.229446 21.2662
0.675119 0.0925051 21.413
0.824985 0.531993 21.3263
0.788361 0.203454 21.2231
0.969652 0.17591 21.0888
1.16127 0.719851 20.789
0.891259 0.0791954 20.3849
0.766609 0.497265 21.191
-1.28665 -0.345966 19.875
-0.841705 -0.066875 19.6751
-0.862287 -0.346714 19.3796
-1.13714 -0.51338 21.2593
-1.82358 -0.171229 20.498
-0.262579 -0.306505 21.4024
-0.748433 -0.359208 21.3378
0.311036 -0.0949914 21.5935
-0.0972756 -0.255088 21.5579
0.953598 0.0697427 21.2863
0.775193 -0.191118 21.4474
0.992386 -0.0494796 21.3596
1.15466 -0.176149 20.9957
1.63326 0.498866 19.2259
0.939389 -0.0978956 20.6733
1.15822 0.246676 20.779
-1.44745 0.188542 19.8707
-0.726931 0.339131 19.8192
-1.05861 0.212597 19.221
-1.36767 -0.0417774 21.1428
-1.289 0.559342 20.4516
-0.582048 -0.271915 21.4776
-0.993525 0.121795 21.2087
0.194006 -0.289047 21.6237
-0.310974 -0.144306 21.5174
0.86401 -0.429577 21.2686
0.299104 -0.433385 21.3821
1.02985 -0.498078 20.9898
0.578847 -0.494089 21.0928
1.36185 -0.680734 19.6826
0.441382 -0.524735 20.925
1.34089 -0.856632 19.7344
-0.72446 0.532951 20.1697
-0.59905 0.594896 19.8055
-0.858361 0.484916 20.8049
-1.00425 0.980172 20.3819
-0.563703 0.1743 21.3065
-0.994506 0.692062 21.1695
-0.0636397 -0.168427 21.3737
-0.380437 0.0871698 21.5855
0.201589 -0.386678 21.1842
0.0720882 -0.381441 21.3422
0.291363 -0.379493 20.9308
0.269349 -0.590805 20.9633
0.183113 -0.457086 20.9322
-1.3717 -1.76606 18.955
-0.722084 -0.607877 19.0571
0.0103903 -0.924805 18.8081
-0.705896 -1.22465 22.1421
0.0311972 -4.17633 21.4899
-0.0831087 -0.083341 20.772
0.00704272 -0.445129 20.7651
0.269853 0.475593 19.6316
0.00231296 -0.0324691 18.7307
0.703483 1.28507 19.1519
0.0268328 0.766476 16.1997
0.956519 1.3839 19.2862
1.25694 1.66057 15.9662
0.0475733 1.21232 16.6907
0.96955 1.02503 17.4523
0.0258259 1.76049 17.5699
-1.07772 -0.166006 18.5071
0.0239629 -0.754296 18.1683
1.79691 1.10662 12.7348
1.88285 0.171494 6.95044
-0.00329695 0.275843 3.27679
2.03781 0.384524 13.4081
0.0784237 1.48227 9.66057
-0.81885 0.858435 19.0775
0.0241475 0.658529 17.4463
1.58762 -0.786962 11.0177
0.647196 -1.09358 18.2914
0.0486241 0.703727 -5.38944
0.59689 -1.03674 19.8542
0.0489561 -0.282001 -0.754414
-0.774926 1.27219 19.8025
0.00437012 1.05857 19.3843
-1.05413 1.40643 20.7319
0.00277582 2.17614 20.1407
-0.89267 0.875178 21.7199
-0.0150913 2.39403 21.153
-0.133723 -0.184349 21.6529
-0.0239054 0.549903 22.1399
0.0578102 -0.549227 21.3408
-0.00254566 -0.295259 21.5781
0.242032 -0.798004 20.6005
-0.000283589 -0.767843 21.0933
0.0391953 -0.612876 19.8088
1.38791 -1.69762 19.0008
0.734667 -0.586169 19.1
0.700148 -0.441368 19.5744
0.702131 -1.20263 22.1242
1.76185 -1.55392 20.4844
0.0822903 -0.0831022 20.8039
0.314257 -0.4662 21.5057
-0.253418 0.48061 19.5466
-0.11934 -0.0950914 21.5575
-0.663647 1.33687 19.0913
-0.834446 0.56219 21.2947
-0.900216 1.44181 19.0666
-1.17103 1.68723 15.8149
-1.17801 0.761513 20.7689
-0.902171 1.15431 17.2369
-0.759745 0.56462 21.2261
1.0791 -0.159695 18.5721
0.859657 -0.345791 19.4089
-1.79717 1.19864 12.1228
-1.78912 0.206393 5.93616
-1.71618 0.565764 18.8118
-2.14702 0.575599 11.7931
-1.22975 0.275188 20.3794
0.821387 0.838174 19.0914
1.04733 0.202645 19.2451
-1.5326 -0.817913 9.21809
-0.597239 -1.11877 18.2047
-1.44709 -0.641769 19.0896
-0.57856 -1.09346 19.7471
-1.47314 -0.864325 19.4308
0.778411 1.26146 19.8011
0.599355 0.582446 19.8088
1.05434 1.41562 20.7283
1.00601 0.979011 20.3782
0.886917 0.922177 21.7397
1.0057 0.717837 21.1706
0.135792 -0.1933 21.6581
0.390282 0.101366 21.6255
-0.0366253 -0.571664 21.3647
-0.0620652 -0.407415 21.3652
-0.198713 -0.840721 20.5971
-0.293884 -0.676354 20.9543
-0.155182 -0.489114 20.8515
0.979594 -0.480425 20.0263
0.693758 -0.236423 19.8024
0.889435 -0.550207 21.1256
1.46581 -0.638438 20.4847
0.173753 -0.237905 21.3755
0.524299 -0.396215 21.3051
-0.292525 0.0144485 21.4822
-0.00982032 -0.167667 21.4279
-0.769178 0.249445 21.2754
-0.677138 0.100738 21.4217
-0.803154 0.228481 21.178
-1.00105 0.18289 21.1108
-0.900698 0.121025 20.5035
1.26374 -0.34093 19.8819
0.814559 -0.0628471 19.6969
1.14761 -0.518479 21.258
1.83703 -0.175395 20.4951
0.267003 -0.309018 21.4076
0.756562 -0.36295 21.3468
-0.31404 -0.0930745 21.5999
0.0980977 -0.255417 21.5685
-0.978736 0.071746 21.2786
-0.793084 -0.189372 21.4599
-1.10289 -0.0187636 21.1219
-1.21601 -0.19205 21.0144
-1.055 -0.183334 20.5003
1.42602 0.179085 19.8702
0.720332 0.326345 19.828
1.38069 -0.0366213 21.1481
1.29806 0.560196 20.4428
0.588983 -0.268755 21.4847
1.00957 0.125147 21.2121
-0.202432 -0.291759 21.6351
0.318941 -0.151663 21.533
-0.913927 -0.457343 21.2508
-0.309279 -0.467436 21.4062
-1.1062 -0.501159 20.8939
-0.578113 -0.584167 21.1293
-0.57148 -0.622897 20.7203
0.721062 0.527356 20.1673
0.863692 0.492654 20.8036
0.583904 0.183101 21.3251
0.074756 -0.176653 21.4
-0.203361 -0.42306 21.1913
-0.333571 -0.407258 20.8619
-1.1466 -0.449368 19.933
-1.80656 -1.95935 18.3452
-1.31304 -0.99896 19.5489
-1.91003 -0.852171 19.1463
-0.789253 -0.424911 19.4664
-2.52423 -1.85268 20.4419
-1.01681 -0.551158 21.1796
-0.648808 -0.59087 17.8522
-0.919091 -0.997446 21.5491
-1.36977 -1.18293 21.9221
-0.299143 -0.571876 21.6045
-0.220049 -0.278675 21.3814
0.0885607 0.0822071 15.3789
-0.0593815 -0.261215 21.4987
-0.0978369 -0.424421 20.569
0.152359 -0.164461 21.2754
0.289998 -0.0383064 21.5116
0.325409 0.461367 13.4951
0.419036 0.172062 21.5645
0.498994 0.0575758 19.594
1.05058 0.543829 20.4997
0.856614 0.155878 21.2824
0.827399 1.33613 14.5736
1.01243 0.683235 20.9908
1.42001 0.47265 19.0603
1.29345 0.617081 20.9086
0.888341 0.0969008 21.2592
1.34057 1.27734 16.2352
1.19515 0.816905 20.616
1.6924 0.437259 19.1164
0.866495 0.436985 21.2919
-1.42838 -0.10769 19.8481
-3.37677 -0.341635 16.5156
-2.27691 0.544201 19.1176
-1.04358 -0.092736 19.211
-4.2841 -0.298819 20.41
-1.3212 -0.293671 21.2307
-1.97235 -0.138275 21.6298
-0.712205 -0.732317 20.9079
-0.397077 -0.339209 21.4487
-0.759139 -0.804542 21.1186
0.0088714 -0.295341 19.7584
0.267642 -0.197566 21.6403
0.464711 -0.165653 19.3395
1.27001 0.0489444 17.0773
0.990482 -0.204906 21.2417
0.419665 -0.48658 3.50425
1.27253 -0.624338 18.7337
1.87119 -0.0910886 18.4593
1.05868 -0.308612 21.6405
2.12612 0.479084 10.6439
1.36509 -0.68018 20.1368
1.6003 -0.219381 19.8294
-1.08241 0.506316 20.0142
-1.55207 1.87005 19.1052
-0.840746 0.858289 19.9859
-0.830247 0.529239 19.5183
-1.85424 1.21201 20.3837
-1.20161 0.338018 20.9247
-2.16711 1.70342 20.8593
-1.05591 0.859842 20.8003
-1.62884 0.388478 21.3372
-0.697918 -0.0252251 21.4335
-2.20101 0.675885 21.9681
-0.753944 0.411281 21.4784
-0.529595 -0.130565 21.8321
0.0176681 -0.290377 21.4998
0.230457 -0.300761 18.7762
-0.0933148 -0.193742 21.5146
0.240891 -0.686617 21.4302
0.446026 -0.505679 21.2595
0.343432 -0.684558 17.5516
0.178058 -0.48409 21.2194
0.536457 -0.867831 21.3472
0.611792 -0.482876 20.8257
0.670804 -1.16522 18.7662
0.411923 -0.564245 20.882
0.669563 -0.821554 20.3421
1.80135 -1.86893 18.4367
0.0306591 -2.96395 18.3153
0.0434424 -3.79688 15.045
0.0127461 -0.900153 18.5211
0.0280515 -5.03566 22.3001
0.667287 -0.58596 18.1891
0.014574 -1.40903 22.1623
-0.000978993 -0.0437148 12.5632
-0.0715889 0.085952 15.4224
0.00266883 -0.186868 19.4588
0.00215819 0.0304252 11.1058
-0.307123 0.460347 13.4338
0.00847606 0.315381 17.2625
0.0491299 0.619048 8.37242
-0.753493 1.39002 14.2297
0.0382229 0.933314 16.6269
0.0579509 -0.395712 1.75924
0.0234241 1.11031 10.9229
-1.2944 1.34769 16.0005
0.0535998 1.69491 17.4456
0.0238108 0.965178 6.37446
0.119713 1.72947 14.9025
3.36704 -0.369882 16.5538
0.0295748 4.6058 13.6293
0.0224251 -0.225428 17.5528
-0.381418 -0.432217 2.9557
-0.0636853 0.614143 -4.4458
0.0234155 -0.119861 -4.20014
-2.18629 0.596083 9.42299
0.115989 0.410459 -3.16565
0.0198828 0.847548 1.19902
1.55752 1.84328 19.0972
0.00404381 1.78005 19.5884
0.0197494 1.26217 18.5553
-0.00660511 4.00255 19.9882
2.16 1.72431 20.8623
-0.00710557 2.21717 20.5678
-0.0141544 4.57309 20.4772
2.26105 0.738993 21.8671
-0.0268532 1.72249 22.0564
0.00146865 0.228682 16.5355
-0.383887 -0.258034 17.5781
-0.0076122 -0.0966436 21.7615
0.0436656 -0.00469318 7.38106
-0.346653 -0.749573 17.0671
0.00613568 -0.405993 21.5806
0.0431501 -0.0583427 8.19865
-0.614107 -1.21006 18.5919
0.0199762 -0.772453 20.3159
0.0185487 -0.670651 11.2147
1.1113 -0.437291 19.958
1.29457 -0.95468 19.5783
1.88206 -0.836428 19.1798
0.78669 -0.412251 19.4956
2.49103 -1.78998 20.4299
1.02461 -0.555129 21.164
0.92427 -0.984749 21.5251
1.38095 -1.19106 21.9212
0.314586 -0.577978 21.5955
0.223356 -0.279879 21.3885
0.0658547 -0.267842 21.4966
0.107484 -0.431576 20.5705
-0.144567 -0.167238 21.2765
-0.289802 -0.0370043 21.5153
-0.416737 0.178209 21.5634
-0.495294 0.0598023 19.6364
-1.06193 0.570645 20.4718
-0.878995 0.176766 21.2734
-1.02234 0.731279 20.9311
-1.46315 0.526581 18.8182
-1.33319 0.668157 20.7387
-0.984544 0.12424 21.0471
-1.23556 0.883508 20.5355
-1.73881 0.549243 18.803
-0.889632 0.493445 21.005
1.41232 -0.110539 19.8516
2.24997 0.517475 19.118
1.02948 -0.0954599 19.244
4.39938 -0.330106 20.3686
1.33631 -0.295744 21.2363
1.99166 -0.127426 21.6429
0.726871 -0.732173 20.8854
0.400593 -0.340815 21.4619
0.779684 -0.797787 21.1303
-0.00390414 -0.300788 19.8312
-0.272663 -0.195991 21.6591
-0.475319 -0.153646 19.2762
-1.30008 0.0599446 16.975
-1.03662 -0.210163 21.2343
-1.31639 -0.601089 18.1228
-2.0054 -0.0469212 17.7905
-1.14015 -0.313104 21.4817
-1.48194 -0.664662 19.441
-1.69894 -0.212002 19.4748
1.07733 0.498216 20.0122
0.840187 0.847758 19.9832
0.826078 0.516458 19.5266
1.87082 1.22221 20.3668
1.21607 0.34411 20.9246
1.0597 0.869614 20.7983
1.65387 0.404765 21.3336
0.713645 -0.0257085 21.4479
0.776513 0.441575 21.501
0.549202 -0.13441 21.8603
-0.0201327 -0.304855 21.5283
0.0941001 -0.202604 21.5443
-0.234613 -0.735596 21.3274
-0.451493 -0.558619 21.3161
-0.163033 -0.519145 21.2398
-0.585574 -0.945501 21.2982
-0.622138 -0.55758 20.9306
-0.404093 -0.688261 21.0862
-0.651484 -0.853018 20.2763
-1.57722 -0.97884 19.3959
-1.07127 -1.10038 21.7504
-0.0326102 -0.349476 21.3892
0.504674 0.13313 20.9236
1.28239 0.644502 20.5579
1.4521 0.700637 20.2621
-2.36027 -0.197933 18.9384
-1.85164 -0.558492 21.9582
-0.282934 -0.581631 20.1893
0.421485 -0.0446598 18.743
1.48646 -0.0964841 17.8217
1.78572 0.0748804 18.1401
-1.44304 0.987925 19.6625
-1.71656 0.714698 20.9946
-1.17061 0.0847223 21.7458
-0.0307671 -0.404826 21.7309
0.365713 -0.768458 21.3607
0.617784 -0.869711 21.1423
0.0502078 -3.57172 17.0595
0.0027816 -0.568677 14.3565
-0.00110334 0.00762884 11.3979
0.0134223 0.274597 9.71167
0.0604366 0.458847 9.26033
0.0637199 1.42081 12.1674
0.0444567 -0.490664 12.2531
-0.0550564 -0.492481 -3.28998
0.0562909 0.419543 -1.54167
0.0107032 3.09463 18.4363
-0.0057226 3.32586 20.3955
-0.0186006 2.57545 19.9544
0.0262415 -0.46722 12.346
0.0621489 -0.015282 8.10919
0.000516547 -0.697778 10.5049
1.55936 -0.945441 19.4233
1.09395 -1.09351 21.7254
0.0430318 -0.356197 21.3905
-0.501157 0.137815 20.9151
-1.30399 0.690431 20.4987
-1.49881 0.795391 20.0602
2.33305 -0.210189 18.9567
1.88012 -0.553159 21.9893
0.295959 -0.585301 20.2154
-0.421941 -0.0419083 18.7732
-1.5441 -0.0569835 17.322
-1.88936 0.147815 17.6574
1.44032 0.967305 19.6562
1.72771 0.729465 20.9918
1.21239 0.095567 21.7689
0.032077 -0.426235 21.7007
-0.361309 -0.83968 21.2598
-0.736818 -0.970029 20.8891
-7.2949 -0.552175 5.46752
0 0 0
-0.0579998 -0.00784805 0.610956
0.0261309 -0.0514113 0.0751108
-0.00455781 0.0215843 0.0865035
0.0161938 0.0100638 0.365984
-0.657579 0.0434293 1.18429
-0.000892036 0.008909 0.0285455
-0.287749 -0.142858 1.31003
0.00946145 -0.0733842 0.0525413
-0.0244854 0.00245358 -0.00846454
-0.00402391 -0.0182033 0.130722
0 0 0
6.98023 -0.358815 4.8794
0.0606033 -0.00881197 0.602129
0.0121522 0.0428188 0.1453
-0.0175621 -0.0523269 0.0530984
-0.019737 0.0198011 0.54153
2.00249e-05 0.000157324 0.000501729
0.331653 0.0958259 0.504077
0.31105 -0.161548 1.4326
0.0442954 0.00327193 -0.0101894
-0.00621487 -0.0516449 0.0389827
0.0189693 -0.0279351 0.134085
0.0136272 -0.00821336 0.352095
0.00402965 3.46224e-05 0.13408
0.00706985 0.00178685 0.152566
0 0 0
0.014429 0.0438565 0.877513
0.0045116 0.000194852 0.280742
-0.000195228 0.000584514 0.0144787
0 0 0
-0.284963 -0.235987 0.893958
-1.25284e-18 2.77964e-20 -7.42134e-17
0 0 0
-0.0309339 0.0288964 0.0814617
0 0 0
0.007648 0.0487356 0.191315
0 0 0
0.0735461 -0.00833378 0.432899
-0.0118523 -0.0075528 0.358963
0 0 0
-0.00357001 0.000101447 0.1303
-0.00577844 0.00173441 0.178621
-0.013357 0.0417842 0.831826
0 0 0
-0.00493174 0.00072455 0.317877
0.000143601 0.000430819 0.00971501
0.256507 -0.219966 0.828456
0.0322409 0.0305668 0.0826202
0 0 0
0 0 0
0 0 0
-0.0697495 -0.00859883 0.424463
-0.00669104 0.0445475 0.173942
0 0 0
0 0 0
-0.197611 -0.0251795 0.139624
-5.73822e-05 -0.00260767 0.0487107
0 0 0
-0.00273854 -0.00218328 0.127841
1.7224e-06 1.46691e-06 -0.000111815
0 0 0
-0.0773782 -0.0218634 0.00525845
1.24198e-05 9.2837e-05 0.00159533
0.00504418 -0.0568744 -0.0145859
0.000668299 0.00189429 0.0362427
0 0 0
-0.0016554 0.482033 0.488862
-0.000341699 0.0090662 0.0509319
0 0 0
0 0 0
0.0117467 0.0319193 -0.0231557
9.50675e-06 0.00102377 -0.00274423
0.000962267 0.00302517 0.0372204
0.000375092 -0.00518858 0.0195781
0.100586 -0.0156561 0.0726109
0.00575759 -0.00471426 0.0582912
-2.03022e-06 1.61334e-06 -0.00012369
8.65459e-05 -7.9405e-05 0.00424427
0.0643192 -0.0157611 0.0038436
-3.51802e-18 5.03333e-18 5.95873e-17
0 0 0
-0.00041367 0.00126971 0.0238503
0 0 0
6.96876e-05 -0.000565001 0.00365892
0.0001579 -0.00529642 0.0196759
-0.00048596 0.00488706 0.0576731
-0.00074635 0.00768502 0.164455
1.09919e-05 7.81851e-07 0.000307388
5.72357e-05 -0.0015076 0.019233
-3.42565e-05 0.000542978 0.0104178
1.9954e-08 -6.07661e-09 -2.52352e-05
3.09978e-08 7.95838e-08 1.34571e-05
-4.35359e-05 0.000196951 0.00179544
0 0 0
2.22992e-08 2.02557e-08 9.72371e-06
2.07813e-05 3.30783e-05 0.00667262
0.000181163 0.00735108 0.0355076
-0.0384175 0.0590141 0.445799
0 0 0
-2.47412e-05 0.0294621 0.118443
5.26236e-06 0.000136022 0.00696905
0.000212587 -0.00183971 0.0188827
-1.09908e-05 8.44578e-07 0.000327329
0.000836063 0.00974597 0.202497
-1.83408e-06 -4.65368e-05 0.000575165
4.01252e-05 0.00054333 0.0110084
0 0 0
0 0 0
0.0441168 0.06513 0.497219
-0.000189323 0.00928928 0.0449181
-0.042744 -0.0341171 0.461152
0 0 0
-0.000665772 0.000301824 0.0954033
0.000991609 -0.0216263 0.115943
0.00267034 0.00791323 0.251515
1.53009e-05 0.000168269 0.00119173
-0.00118579 0.00618488 0.124656
0.000151856 0.0261857 0.107103
-0.010632 -3.8104e-05 0.275925