# vtk DataFile Version 2.0
tri_press
ASCII
DATASET UNSTRUCTURED_GRID
POINTS 3682 float
-0.735 0.215 -2.008
-0.756669 0.265 2.075
-0.785 0.755 -1.88176
-0.685 0.835 2.0059
0.735 0.215 -2.00679
0.755 0.265 2.07576
0.7796 0.745 -1.895
0.675 0.835 2.01351
-0.792245 0.181645 -0.647
-0.807828 0.189951 0.714
-0.821659 0.851659 -0.585873
-0.79596 0.88596 0.710013
0.791684 0.181649 -0.64594
0.806711 0.189955 0.71491
0.823033 0.8533 -0.592163
0.7947 0.889833 0.710673
-1.52422 -0.132985 -3.09627
-1.53044 -0.111385 -2.03169
-1.56862 -0.132238 -0.669695
-1.57371 -0.130063 0.704191
-1.53558 -0.0802716 2.06717
-1.52872 -0.0558388 3.13655
-1.53822 -0.0438118 4.19677
-1.5271 0.171367 -3.05814
-1.53379 0.207772 -2.00002
-1.58056 0.196373 -0.650479
-1.57434 0.194889 0.703937
-1.51054 0.233442 2.05462
-1.51419 0.256067 3.12343
-1.53294 0.269102 4.18587
-1.5498 0.755882 -2.96295
-1.57001 0.792634 -1.90032
-1.60369 0.855293 -0.594745
-1.56684 0.871142 0.705078
-1.47063 0.844498 2.01168
-1.4958 0.866086 3.08397
-1.53068 0.889498 4.15711
-1.56959 1.70112 -2.87005
-1.58101 1.74624 -1.81841
-1.59306 1.81591 -0.531053
-1.58675 1.8514 0.741728
-1.56546 1.84481 2.02915
-1.55943 1.84294 3.08093
-1.56695 1.85355 4.14636
-0.746152 -0.130402 -3.10149
-0.743274 -0.106484 -2.0382
-0.778874 -0.140094 -0.669083
-0.796509 -0.133113 0.712593
-0.775001 -0.0627891 2.08192
-0.77268 -0.0440432 3.14702
-0.780947 -0.037985 4.20325
-0.746714 0.169276 -3.06143
-0.767422 0.267388 3.1327
-0.780506 0.27397 4.19124
-0.765268 0.738424 -2.95804
-0.753116 0.864853 3.08449
-0.782494 0.889482 4.15832
-0.78144 1.69034 -2.86442
-0.7894 1.73687 -1.81172
-0.802907 1.81562 -0.526922
-0.810627 1.85568 0.74126
-0.805775 1.84469 2.02575
-0.803749 1.84082 3.07773
-0.810107 1.85177 4.1443
0.78043 -0.131238 -3.10286
0.770802 -0.106473 -2.03774
0.797153 -0.139887 -0.668301
0.796612 -0.13293 0.713517
0.760392 -0.0626567 2.08304
0.741552 -0.0437927 3.14895
0.733299 -0.0375917 4.2054
0.77484 0.167507 -3.06392
0.724964 0.267584 3.1352
0.72206 0.274358 4.19375
0.785693 0.733808 -2.96499
0.694546 0.865178 3.08895
0.704965 0.889977 4.16146
0.792844 1.68843 -2.86931
0.793907 1.73544 -1.81663
0.78519 1.81606 -0.529903
0.751536 1.85717 0.741174
0.713427 1.84594 2.02781
0.702655 1.84177 3.08026
0.700317 1.85257 4.14664
1.55305 -0.134481 -3.09959
1.54735 -0.111595 -2.03292
1.58103 -0.131385 -0.669364
1.5821 -0.129108 0.706179
1.53552 -0.0796955 2.07044
1.50878 -0.0551608 3.14057
1.49805 -0.0429387 4.2009
1.54669 0.168524 -3.06338
1.53298 0.206732 -2.00299
1.58103 0.19757 -0.651096
1.58231 0.196315 0.706316
1.51714 0.233903 2.05917
1.48919 0.256695 3.12848
1.48399 0.269983 4.19065
1.56133 0.74976 -2.9738
1.56324 0.786154 -1.91313
1.60118 0.857097 -0.601235
1.56879 0.875153 0.707027
1.46506 0.845729 2.02006
1.45392 0.867043 3.09127
1.4627 0.890593 4.16282
1.5777 1.69803 -2.87882
1.58092 1.74413 -1.82694
1.5744 1.81681 -0.536214
1.53623 1.85405 0.741538
1.48641 1.84717 2.03269
1.46744 1.84481 3.08543
1.46293 1.85516 4.15068
-0.787801 0.485 -1.97268
0 0.213974 -2.00842
-0.78589 0.176055 -1.3275
-0.749549 0.55 2.06916
-0.000834495 0.262479 2.0779
-0.797602 0.212122 1.3945
-0.0027 0.805109 -1.94349
-0.835513 0.835513 -1.23382
-0.005 0.902009 2.07671
-0.784047 0.904047 1.35796
0.762931 0.48 -1.95653
0.785609 0.176058 -1.32637
0.744694 0.55 2.07433
0.79734 0.210993 1.39533
0.835708 0.833542 -1.24358
0.780443 0.908009 1.36209
-0.798078 0.187757 0.0335001
-0.857865 0.516652 -0.616437
-0.00028057 0.181581 -0.64647
-0.876758 0.537955 0.712007
-0.000558308 0.189572 0.714455
-0.805356 0.865356 0.06207
0.000687341 1.13047 -0.589018
-0.000629915 1.29847 0.710343
0.797238 0.187762 0.034485
0.859082 0.517475 -0.619052
0.87802 0.539894 0.712792
0.805412 0.868112 0.059255
-0.88474 0.500826 -1.28066
0.88479 0.498737 -1.28497
-0.000140285 0.174731 -1.32693
-0.00100633 0.936468 -1.2387
-0.00135 0.4825 -2.26977
-0.863979 0.527304 0.047785
0.865219 0.528684 0.04687
-0.000419439 0.188602 0.0339925
2.87131e-05 1.29631 0.0606625
-0.884866 0.543978 1.37623
0.886041 0.544947 1.37871
-0.000696402 0.202466 1.39492
-0.00281495 1.20598 1.36002
-0.00291725 0.55 2.1762
-0.762106 0.35 -1.99105
-0.3675 0.214595 -2.0081
-0.780991 0.174981 -1.66775
-0.76932 0.4075 2.08829
-0.378752 0.266308 2.07388
-0.795969 0.219727 1.73475
-0.801815 0.62 -1.94264
-0.39385 0.785487 -1.91806
-0.831454 0.816454 -1.55779
-0.737223 0.6925 2.05748
-0.345 0.897099 2.0699
-0.765134 0.900134 1.68193
0.3675 0.214536 -2.00756
0.758268 0.3475 -1.99096
0.780864 0.174969 -1.66658
0.377083 0.266357 2.07421
0.76653 0.4075 2.09173
0.794523 0.219644 1.73555
0.38845 0.783558 -1.92775
0.796341 0.6125 -1.95084
0.831637 0.813254 -1.56929
0.335 0.896979 2.07359
0.730792 0.6925 2.06486
0.758014 0.901798 1.6878
-0.790774 0.177143 -0.98725
-0.793202 0.18666 -0.30675
-0.867578 0.327887 -0.631718
-0.395501 0.183137 -0.646735
-0.812853 0.190898 1.05425
-0.802953 0.188854 0.37375
-0.869638 0.350281 0.713004
-0.404004 0.19014 0.714228
-0.830914 0.845914 -0.909845
-0.863874 0.696211 -0.601155
-0.811875 0.856875 -0.261902
-0.458579 1.08725 -0.587446
-0.794598 0.899598 1.03399
-0.879085 0.733321 0.71101
-0.80062 0.87562 0.386042
-0.493506 1.28264 0.710178
0.790353 0.177147 -0.986153
0.39494 0.183138 -0.646205
0.792501 0.186666 -0.305728
0.869388 0.327559 -0.632496
0.811602 0.190898 1.05512
0.402887 0.190142 0.714683
0.801975 0.188859 0.374698
0.871067 0.350574 0.713851
0.830613 0.844663 -0.917873
0.458524 1.08521 -0.590591
0.865388 0.697553 -0.605608
0.812694 0.859177 -0.266454
0.792073 0.903423 1.03638
0.491341 1.28276 0.710508
0.879955 0.736661 0.711733
0.800063 0.87898 0.384964
-0.88259 0.492913 -1.62667
-0.394576 0.48375 -2.22447
-7.01425e-05 0.174499 -1.66768
-0.000675 0.348237 -2.19656
-0.88846 0.33844 -1.30408
-0.393015 0.174715 -1.32722
-0.871314 0.546989 1.7227
-0.376233 0.55 2.20454
-0.000765448 0.219385 1.73641
-0.00187587 0.40624 2.26805
-0.878465 0.37805 1.38536
-0.399149 0.202278 1.39471
-0.00185317 0.891085 -1.59109
-0.002025 0.643805 -2.24261
-0.885994 0.668169 -1.25724
-0.41826 0.90584 -1.23626
-0.00390748 1.07518 1.71837
-0.00395862 0.726005 2.22431
-0.89398 0.724012 1.36709
-0.393431 1.19523 1.35899
0.882711 0.489369 -1.62075
0.380791 0.48125 -2.22735
0.888486 0.337398 -1.30567
0.392734 0.174715 -1.32665
0.87262 0.547474 1.72652
0.370888 0.55 2.20495
0.878495 0.37797 1.38702
0.398322 0.202434 1.39513
0.886155 0.66614 -1.26428
0.417351 0.907684 -1.24114
0.895448 0.726478 1.3704
0.388814 1.19475 1.36106
-0.860235 0.342927 0.0406425
-0.398971 0.188735 0.0337463
-0.887341 0.508739 -0.948548
-0.860229 0.521978 -0.284326
-0.000210427 0.174965 -0.986701
-0.000350004 0.188118 -0.306239
-0.870801 0.532629 0.379896
-0.887316 0.540967 1.04412
-0.000488874 0.189087 0.374224
-0.000627355 0.190141 1.05469
-0.864683 0.711338 0.0549275
-0.499819 1.27514 0.0613662
-0.000159495 0.968575 -0.913859
0.000358027 1.24162 -0.264178
-0.000300601 1.31085 0.385503
-0.00172243 1.27007 1.03518
0.862585 0.342545 0.0406775
0.398132 0.188738 0.0342388
0.887401 0.508106 -0.952013
0.861457 0.52308 -0.286091
0.871849 0.534289 0.379831
0.887446 0.542421 1.04575
0.866049 0.713765 0.0530625
0.499053 1.27488 0.0599587
-0.887946 0.34422 -1.64721
-0.888345 0.343794 -0.967899
-0.887466 0.676162 -0.929196
-0.877834 0.644085 -1.59223
0.888116 0.342449 -1.64366
0.88329 0.63932 -1.59502
0.886244 0.675763 -0.934943
0.888375 0.34348 -0.969083
-0.380258 0.174493 -1.66771
0.380117 0.174481 -1.66713
0.394218 0.174947 -0.986427
-0.394639 0.174947 -0.986976
-0.406055 0.863939 -1.57444
-0.414373 0.934561 -0.911852
0.414606 0.931873 -0.915866
0.402901 0.865052 -1.58019
-0.381038 0.349118 -2.16067
-0.394213 0.631902 -2.20548
0.38462 0.628152 -2.20879
0.374145 0.347868 -2.15586
-0.861938 0.336391 -0.295538
-0.865835 0.346155 0.376823
-0.873405 0.723089 0.382969
-0.863396 0.703333 -0.273114
0.864251 0.33592 -0.295909
0.864637 0.705118 -0.276273
0.875331 0.726378 0.382398
0.866985 0.34648 0.377264
-0.396188 0.188032 -0.306494
0.395487 0.188035 -0.305983
0.400509 0.18944 0.374461
-0.401487 0.189438 0.373987
-0.491762 1.20632 -0.26304
-0.503929 1.29342 0.385772
0.502504 1.29344 0.385234
0.491291 1.20505 -0.265316
-0.887778 0.371002 1.04918
-0.866174 0.392775 1.72872
-0.875669 0.708256 1.70231
-0.889326 0.717985 1.03905
0.887752 0.371447 1.05044
0.890591 0.720671 1.04107
0.875005 0.709489 1.70716
0.866184 0.392735 1.73103
-0.401671 0.190139 1.05447
0.400699 0.19014 1.0549
0.387702 0.219358 1.73598
-0.38895 0.219342 1.73558
-0.395863 1.26083 1.03458
-0.369215 1.06989 1.70015
0.361907 1.0691 1.70309
0.392924 1.26076 1.03578
-0.377492 0.40687 2.2467
0.373986 0.40687 2.24693
0.352944 0.709252 2.20584
-0.360617 0.709252 2.20549
-0.752463 0.2825 -2.00343
-0.55125 0.211125 -2.01172
-0.770211 0.182775 -1.83787
-0.770135 0.33625 2.08879
-0.56771 0.269628 2.07047
-0.783826 0.234856 1.90488
-0.796443 0.6875 -1.91523
-0.589425 0.778815 -1.90848
-0.822003 0.799503 -1.71977
-0.71215 0.76375 2.03273
-0.515 0.883726 2.05558
-0.739508 0.882008 1.84391
0.55125 0.210999 -2.01094
0.751361 0.28125 -2.0036
0.770202 0.182714 -1.83668
0.566041 0.268091 2.07257
0.768016 0.33625 2.09099
0.781842 0.235241 1.90565
0.584025 0.77461 -1.92171
0.791431 0.67875 -1.92638
0.819748 0.793256 -1.73215
0.505 0.881691 2.05925
0.704125 0.76375 2.04042
0.731621 0.883513 1.85066
-0.789562 0.181342 -0.817125
-0.786887 0.189989 -0.476875
-0.865223 0.23711 -0.639359
-0.592909 0.184319 -0.646868
-0.81036 0.190406 0.884125
-0.805391 0.189402 0.543875
-0.868285 0.25534 0.713502
-0.605748 0.190381 0.714114
-0.827238 0.849738 -0.747859
-0.860639 0.782871 -0.593514
-0.816382 0.853882 -0.423888
-0.670884 1.03099 -0.58666
-0.794698 0.892198 0.871999
-0.85253 0.817144 0.710512
-0.797257 0.879756 0.548028
-0.659824 1.11448 0.710096
0.789069 0.181348 -0.816046
0.592349 0.18432 -0.646073
0.78618 0.19007 -0.475834
0.864531 0.237607 -0.639218
0.809165 0.190418 0.885016
0.604632 0.190382 0.714796
0.804343 0.189407 0.544804
0.866889 0.256265 0.714381
[...]
POINT_DATA 3682
SCALARS point_scalars float 1
LOOKUP_TABLE default
-73.2233
-44.1547
-42.0329
-35.5559
-73.1324
-44.8292
-38.5816
-35.894
-37.6738
-34.9025
-50.142
-45.1599
-37.6097
-34.911
-49.2228
-45.6676
7.96189
-91.726
-39.7748
-34.6496
-48.7436
-41.0871
-36.231
7.96189
-91.726
-38.5722
-34.649
-47.3427
-37.92
-35.6615
54.4671
-100.85
-42.8143
-38.9124
-46.0531
-35.1107
-34.7554
-22.3237
-67.3607
-68.7799
-56.2273
-40.2853
-35.8567
-33.9975
17.5835
-111.846
-37.9801
-35.4629
-43.6311
-35.1574
-35.1939
42.8982
-34.9601
-34.7929
132.527
-34.0658
-33.8075
29.6618
-56.0325
-57.7543
-54.6986
-36.0469
-32.3706
-33.1482
21.35
-110.126
-37.8061
-35.4584
-44.2359
-35.6605
-35.6671
21.35
-35.5456
-35.0663
131.402
-34.5249
-34.1462
30.2963
-68.3181
-56.703
-55.4116
-36.0734
-32.7099
-33.092
-15.2961
-93.7028
-39.6424
-34.7415
-49.2616
-39.9762
-36.4089
5.40467
-93.7028
-37.87
-34.7418
-47.789
-38.1837
-36.4089
47.6874
-96.3773
-42.6768
-39.3613
-46.6238
-35.6586
-35.1881
-32.0817
-65.7741
-67.8218
-56.5116
-40.3952
-34.954
-34.5526
-18.1258
-95.1668
-52.6945
-38.0171
-38.787
-40.2958
-34.7146
-45.2891
-29.0197
-44.7011
-32.082
-52.752
-38.2403
-40.6604
-45.9553
-45.3365
-33.0118
-37.1176
-39.6138
-36.0537
-36.6831
-47.1793
-6.80717
-63.3572
-33.0871
-37.0137
-36.3358
-47.4428
-54.2623
-54.7682
-57.3512
-18.8309
203.207
-35.1523
-35.3661
-34.2131
-79.0857
-42.771
-43.0014
-41.8499
-41.7265
-27.364
11.3203
-100.107
-78.4259
-39.3765
-39.6537
-43.0955
-39.1827
-33.0726
-61.5877
-36.8487
-30.5669
-41.3737
-99.2784
9.80601
-78.5423
-40.2706
-39.6405
-44.2693
-32.5232
-31.0565
-62.0951
-31.2293
-37.1606
-41.4907
-42.3003
-33.5173
-36.5799
-39.0267
-42.4153
-33.5274
-35.3799
-36.4159
-37.9041
-40.2933
-49.5067
-9.34282
-45.7064
-38.7568
-46.3413
-58.4506
-42.3449
-39.015
-33.5923
-36.3166
-42.4758
-36.4677
-33.5993
-35.6024
-37.8006
-8.75379
-40.2915
-49.7668
-45.9864
-58.6952
-39.0909
-46.5601
-88.4309
173.379
-74.3902
197.332
-55.236
-56.4825
-46.3251
-32.8838
-42.5027
-31.6222
-41.6644
-41.5727
-37.2913
94.6877
-51.7921
-24.9042
-32.2216
-25.0852
-43.3046
-42.8946
-89.0987
174.392
-55.6365
-56.4379
-46.8937
-33.5896
-41.9132
-41.7456
-52.262
-25.233
-42.9408
-43.0122
-33.6939
-33.8856
-44.5236
-35.7972
-46.6051
-35.3552
-35.5447
-38.128
-34.837
-39.7321
-39.0309
-73.7957
5.617
-60.5404
-74.261
-52.594
-33.8825
-33.9085
-44.4983
-35.9628
-35.6772
-39.2375
-39.3475
-74.0107
-94.4179
-43.9115
-44.5465
-78.1493
-95.3428
-81.3304
-44.5341
-44.2886
-75.8857
-75.737
-45.9933
-46.0072
-41.5648
-3.72172
-4.59145
-42.6097
165.877
100.274
110.447
170.166
-34.4075
-34.3876
-39.3794
-40.1713
-34.523
-40.3867
-39.622
-34.5174
-34.9014
-34.9047
-34.5774
-34.5518
-54.1843
-66.8502
-67.2771
-53.3872
-39.5325
-45.3512
-47.9517
-38.6183
-39.7631
-39.074
-48.5838
-46.1889
-39.5243
-39.6391
-43.5375
-43.0805
-52.0617
-33.7297
-33.968
-52.2463
-34.3919
-34.9402
-33.0453
-32.1757
1.6146
-107.924
-100.831
-41.0129
-40.6541
-46.4361
-31.0829
-29.2439
-79.5517
-36.009
-32.2642
-39.0139
-102.45
-1.98189
-100.357
-41.4356
-41.4202
-46.2225
-26.7007
-30.4557
-80.5938
-32.8724
-36.2399
-39.1037
-40.2494
-34.1324
-36.2102
-38.1185
-38.8906
-34.354
-35.2653
-36.2506
-43.5138
-44.839
-50.2513
-39.9492
-45.2925
-42.2132
-46.0808
-51.5251
-40.1302
-38.1014
-34.1473
-35.963
-38.9338
-36.328
-34.3601
-35.4022
-42.673
-38.1803
-44.4224
-50.4423
-45.61
-51.8624
-42.6184
-46.3667
-13.1755
-34.8432
-119.75
92.7369
-95.3671
-95.048
-79.4326
70.9544
-62.3731
-46.5862
-55.1541
-55.1127
-38.1195
-37.7003
-45.7545
-34.3982
-39.0051
-39.3191
-42.0368
-34.188
-40.0755
-38.168
-41.053
-40.9992
-34.3104
-33.2772
-39.0387
-8.19886
-52.0827
-39.5755
-49.4793
-33.4032
-29.3517
-29.831
-29.6158
-26.4094
-43.3289
-45.8893
-43.3244
-44.4323
-12.7412
-24.2748
-119.873
99.867
-62.4829
-46.6173
-55.4032
-55.0792
-38.4551
-37.9551
-46.0637
-34.8267
-40.9585
-38.1431
-41.1886
-41.154
-53.0175
-39.886
-50.0512
-33.5585
-43.7604
-46.365
-43.8596
-44.6687
-33.0374
-33.1997
-33.0834
-33.4371
-36.7495
-37.9377
-42.2905
-35.9583
-39.4663
-39.4541
-43.0333
-37.8396
-35.6461
-36.8855
-35.9487
-36.4752
-36.6202
-36.6454
-35.6182
-38.0174
-48.4076
-46.6688
-42.7767
-58.8187
-7.42561
-7.11079
10.1701
-35.552
-62.5916
-62.6663
-68.9156
-57.7292
-33.1213
-33.3176
-33.2331
-33.4875
-36.5557
-37.9232
-41.8781
-36.069
-35.9132
-37.2182
-36.19
-36.9343
-48.7251
-46.8832
-43.0921
-59.2735
-66.7293
-55.1482
-53.245
-47.2877
-67.1399
-55.5708
-53.6628
-47.6022
-64.8013
-57.008
-56.9584
-50.9771
-29.2271
-20.269
-20.4809
-8.36411
200.062
185.371
190.522
200.335
-34.3217
-35.5041
-35.2177
-36.6912
-34.5187
-35.7218
-35.3696
-36.9868
-34.1396
-34.4867
-34.3537
-34.1434
-77.0446
-74.3243
-78.7667
-77.083
-44.1147
-42.2954
-43.1516
-42.6577
-45.1867
-42.557
-43.3322
-41.973
-42.2015
-41.7665
-41.865
-42.0369
-36.0867
-41.999
-42.0652
-47.5692
-28.9647
-27.7013
-28.0142
-30.0221
-118.819
102.826
-82.947
65.7814
-91.1054
-76.7507
-46.8804
-35.1385
-43.0619
-36.2901
-44.9702
-43.6644
-105.662
76.8008
-45.2263
0.8316
-71.2801
-49.3416
-43.6166
-34.1077
-30.9392
-31.3834
-47.5819
-36.7428
-82.6049
93.8983
-115.155
102.464
-92.9135
-76.5536
-44.0282
-36.8021
-47.2727
-35.6025
-45.6747
-44.181
-43.7156
7.93
-102.445
86.6276
-73.6977
-49.1266
-31.3264
-32.2763
-43.8432
-34.6353
-47.7883
-36.8617
-41.6736
-44.9494
-33.6201
-34.2037
-42.8456
-34.7199
-42.4426
-37.1165
-41.1961
-40.1283
-33.9332
-34.1149
-34.8717
-35.948
-35.3427
-37.8583
-42.2753
-18.9192
-43.0556
-40.2357
-44.3147
-71.3985
2.51321
-34.2874
-40.7417
-49.7896
-39.1365
-38.4418
-43.0651
-54.2222
-62.6235
-55.9253
-41.8785
-44.9357
-42.4381
-37.1174
-33.7269
-34.2234
-42.6093
-34.8382
-41.1997
-40.3013
-35.3745
-37.9377
-34.0704
-34.1533
-35.0501
-36.3364
-42.1464
-19.5062
2.30388
-33.4216
-42.4625
-40.3812
-44.5787
-71.1265
-41.2569
-50.4459
-62.8605
-55.9832
-39.4563
-38.6322
-43.4265
-54.6928
-92.1462
-82.9955
158.882
168.25
-74.9888
-74.8375
187.892
187.815
-68.2668
-47.6677
-64.7424
-50.4255
-45.8295
-47.1708
-33.3697
-32.081
-42.8479
-42.6157
-32.7693
-33.3072
-40.991
-43.0744
-41.8648
-42.1826
-37.6205
-38.7438
109.024
111.478
-45.5973
-62.6567
-34.5366
-15.6742
-32.58
-32.7332
-28.6644
-27.3731
-44.6132
-41.9522
-47.5813
-37.5779
-92.3863
-84.6486
170.888
160.344
-68.6301
-47.9199
-64.6801
-50.3958
-47.7256
-46.4921
-33.9912
-32.8225
-40.9963
-43.8659
-42.0404
-42.4684
-63.2304
-45.858
-16.2175
-34.9221
-42.4271
-46.0595
-37.7198
-47.749
-34.0436
-33.8611
-34.1172
-34.0653
-44.4883
-44.7787
-34.9416
-37.4479
-46.4803
-46.5663
-35.2525
-35.249
-34.7393
-36.9966
-38.6434
-38.6004
-34.7768
-34.7661
-39.6603
-39.7205
-38.7548
-39.7562
-69.5094
-71.4992
3.93129
3.36822
-59.1208
-58.7165
-72.5447
-72.6482
-52.5673
-52.6434
-34.2067
-34.0307
-34.131
-34.0833
-44.7961
-44.5045
-35.0974
-37.6072
-37.226
-34.9105
-39.2159
-39.5691
-40.0735
-38.9516
-71.562
-69.6941
-97.822
-67.5167
-67.9213
-127.608
-42.8234
-42.9395
-47.7937
-46.964
-43.5638
-43.7168
-46.6412
-42.2593
-94.6516
-111.613
-64.9194
-58.3877
-93.1623
-126.222
-68.3555
-67.796
-92.3103
-59.6175
-65.3615
-110.425
-42.7373
-41.6515
-46.9164
-43.9916
-42.6795
-47.1239
-48.0098
-42.737
-88.6047
-80.1147
-65.1025
-63.8148
-87.9756
-63.7803
-65.047
-79.8694
-41.5976
-42.8768
-50.9359
-49.0645
-41.6044
-49.0885
-50.9724
-42.8851
-58.4636
-38.7446
-30.336
-39.7283
-17.9477
8.25449
-9.92792
-25.7576
-17.4769
-26.5407
-10.3992
8.13861
-56.0058
-39.2721
-30.8149
-41.8307
66.2714
95.722
178.914
74.7074
21.6043
-3.82483
190.443
113.487
24.1758
118.407
191.173
-2.72326
79.8751
73.0474
180.06
96.9004
-33.73
-33.4696
-34.6366
-35.2725
-34.3637
-35.299
-34.2362
-33.561
-42.77
-42.38
-36.6805
-37.1169
-44.7153
-37.474
-37.1823
-43.661
-33.8999
-35.3835
-34.8213
-33.6659
-44.9231
-43.9783
-37.45
-37.5913
-43.1263
-37.335
-36.8406
-42.7101
-34.5193
-33.739
-34.4661
-35.5172
-36.233
-37.701
-34.3906
-33.6047
-36.2391
-33.6407
-34.3932
-37.6979
-34.9565
-35.5626
-34.2816
-33.6838
-34.9598
-33.6171
-34.2797
-35.555
-63.6159
-62.7482
-73.0629
-32.5507
-52.8885
-67.9939
-78.0374
-55.7498
-53.2308
-55.8597
-78.1193
-68.0796
-61.8258
-32.0617
-72.9726
-63.7483
-36.4891
-39.7443
-42.1287
-35.8843
-47.4706
-46.6316
-43.6006
-41.7568
-42.7433
-45.0774
-44.4651
-44.973
-41.6948
-37.2555
-42.1748
-43.0148
-36.7783
-36.3253
-41.7823
-39.8143
-42.1422
-43.1602
-41.5196
-37.7397
-43.049
-45.2247
-45.6467
-46.2196
-47.85
-43.1042
-44.6365
-46.691
-37.6884
-37.9584
-42.054
-40.8529
-37.8062
-41.1039
-42.1358
-37.9977
-45.5929
-42.3023
-42.3385
-42.1982
-44.7972
-41.757
-42.1852
-42.0155
-49.839
-47.3011
-47.6138
-57.3458
-33.5306
-29.8761
-36.4986
-40.4172
-33.8802
-40.4778
-36.5717
-30.1312
-49.9186
-57.4251
-47.6963
-47.8246
-39.8584
-34.727
-29.7876
-34.2396
-40.7718
-34.6598
-30.7581
-35.0905
-33.9621
-28.7588
-30.3476
-34.8153
-33.3272
-34.3571
-29.4528
-27.8006
-35.7848
-116.413
-109.363
-43.0519
-41.555
-43.8031
-31.1498
-18.9963
-76.1916
-36.1828
-33.4078
-37.2768
-110.986
-38.756
-107.75
-42.4039
-43.5796
-44.3398
-15.8508
-28.2889
-74.6919
-33.9565
-36.4893
-37.5566
-38.5652
-36.2521
-36.6377
-37.6906
-36.9172
-34.6935
-34.6461
-36.0962
-49.2217
-47.5976
-50.6383
-58.2752
-45.1445
-43.8496
-45.4036
-48.2261
-38.4757
-37.665
-36.259
-36.441
-37.0399
-36.169
-34.7619
-34.7004
-48.3465
-55.2967
-46.9836
-51.0155
-45.5453
-48.5739
-44.225
-45.7136
-4.29546
-25.3462
-101.674
68.9409
-95.2178
-95.0906
-85.6996
-60.1783
-56.9812
-49.3124
-53.8515
-54.0347
-38.1043
-37.9066
-41.7326
-35.0586
-38.7789
-38.9458
-40.3199
-35.8059
-40.3405
-38.9621
-40.293
-40.9043
-33.6926
-33.4388
-35.7541
-26.3711
-48.6215
-42.1455
-48.6285
-39.3924
-29.03
-29.2739
-28.9792
-28.2593
-43.716
-45.167
-43.9257
-44.5787
-6.51445
-21.3742
-99.9183
67.8786
-57.048
-49.3508
-54.03
-54.0157
-38.416
-38.1429
-42.011
-35.4749
-40.4576
-39.0257
-40.4541
-40.9667
-49.6553
-42.5518
-49.2035
-39.4654
-44.01
-45.8755
-45.0853
-45.1568
-32.9155
-32.9899
-32.705
-33.2127
-36.9091
-37.444
-38.4813
-36.373
-39.5725
-39.5647
-40.9347
-38.5993
-35.8557
-36.4237
-35.964
-36.133
-36.6649
-36.6773
-36.1131
-37.3158
-47.7117
-46.8754
-45.4843
-52.1262
-7.24903
-7.09112
3.6986
-20.2085
-63.1357
-63.1758
-66.2951
-60.253
-33.0076
-33.0947
-32.8282
-33.2791
-36.7337
-37.4006
-38.1559
-36.4514
-36.1397
-36.7286
-36.2298
-36.5002
-48.0164
-47.1264
-45.751
-52.7205
-59.821
-54.8668
-53.7831
-50.173
-60.3233
-55.3509
-54.2255
-50.5951
-60.696
-57.0592
-57.0299
-53.9187
-24.1044
-19.187
-19.2885
-13.4243
202.515
195.422
205.218
202.315
-34.6664
-35.3917
-35.1014
-35.8334
-34.8639
-35.5817
-35.3097
-36.0707
-34.1752
-34.2876
-34.2368
-34.1766
-78.6664
-77.9735
-79.1872
-78.6297
-43.6793
-42.5324
-42.9758
-42.343
-43.7624
-42.7657
-43.1881
-42.4918
-42.2547
-41.8059
-41.8556
-42.2364
-38.868
-41.7462
-41.7753
-44.5728
-27.7171
-27.4366
-27.4738
-28.3314
10.9009
12.2348
-100.371
88.8358
-101.709
-97.2203
-89.2238
-5.81186
-90.0195
-69.4157
-86.4982
-76.815
-40.2
-38.565
-43.1902
-35.7342
-39.7031
-39.3093
-41.0294
-37.4209
-46.6199
-40.9559
-44.127
-43.745
-38.2534
-38.1456
-83.3523
49.9109
-30.9248
-35.1944
-40.9112
-22.1957
-69.9293
-57.1758
-67.5582
-55.6277
-36.3364
-37.393
-40.2511
-34.6782
-31.1877
-29.8717
-30.3507
-31.0018
-40.0475
-42.5973
-45.7637
-38.9567
-100.818
-96.6638
-88.6588
-24.1961
6.56939
15.7881
-98.2477
80.6835
-90.2144
-69.6656
-87.7658
-76.6972
-40.8614
-39.728
-41.6547
-37.985
-40.5069
-39.025
-43.512
-36.2229
-46.8296
-42.1525
-44.658
-44.2682
-31.5546
-33.0971
-39.8417
-13.9081
-30.9437
-27.2862
-79.5679
51.723
-68.9296
-58.1057
-69.4515
-54.7008
-31.8623
-30.386
-30.8507
-31.7297
-36.6584
-37.6673
-40.4405
-35.177
-40.2313
-42.741
-45.6129
-39.1111
-42.1889
-44.1876
-40.0817
-44.0641
-33.3528
-33.2749
-33.1829
-33.8816
-36.6407
-36.5761
-39.206
-35.418
-38.6639
-39.2543
-40.4075
-37.8928
-39.0596
-41.3283
-41.7005
-41.3609
-33.8779
-33.1934
-33.4015
-33.7889
-35.3112
-35.5411
-35.1203
-35.8349
-36.3087
-36.5442
-35.8664
-37.0836
-39.904
-38.138
-41.5427
-27.5414
-42.3706
-38.8532
-41.7149
-40.1253
-49.8754
-49.032
-47.1276
-57.0686
-18.478
-7.83725
-1.48716
-21.1703
-45.1102
-45.8581
-43.6757
-47.4645
-40.2904
-37.6
-38.933
-38.4744
-46.2853
-46.501
-45.1369
-50.1103
-56.0942
-61.0565
-60.7156
-57.8847
-42.1536
-44.2133
-39.9762
-44.0421
-38.6513
-39.2415
-40.3945
-37.8876
-33.402
-33.3366
-33.2763
-33.9156
-36.3605
-36.3159
-38.6845
-35.4613
-39.7181
-41.4114
-41.6225
-41.5405
-36.3729
-36.583
-35.9065
-37.1486
-33.9025
-33.2817
-33.5028
-33.8616
-35.5022
-35.7923
-35.3205
-36.1368
-39.1693
-38.1095
-41.3218
-26.4265
-17.6427
-7.28907
-1.10773
-20.4521
-42.3022
-38.833
-41.2319
-40.2918
-50.1285
-49.3191
-47.4278
-57.8487
-45.4467
-46.2008
-44.0938
-48.144
-56.4733
-61.2015
-60.9665
-58.0051
-40.6521
-37.9436
-39.1989
-38.7888
-46.5323
-46.705
-45.379
-50.3309
-104.255
-76.0444
-90.1658
-85.8532
133.777
191.67
168.349
177.092
-76.3816
-70.4989
-74.3027
-74.1988
185.66
191.991
196.797
194.867
-55.1354
-55.2639
-61.0284
-50.9221
-55.9074
-56.8367
-60.3051
-53.1163
-47.738
-45.1972
-46.0636
-46.5942
-34.2826
-30.4603
-33.0407
-32.4829
-42.6441
-42.3047
-42.5931
-42.4803
-33.077
-29.4747
-31.7806
-32.1692
-41.4208
-42.0195
-41.2543
-42.8259
-41.344
-41.6962
-41.9637
-42.1554
-38.5886
-34.0112
-37.4544
-37.7986
35.1848
163.07
100.23
101.502
-50.8599
-52.3609
-48.1014
-56.3809
-27.8785
-22.215
-29.8245
-19.2624
-30.6932
-34.0182
-32.3512
-32.4145
-25.3368
-26.322
-26.3187
-25.4549
-43.1945
-43.1641
-44.2436
-42.5663
-43.7527
-42.2781
-45.388
-40.2698
-104.239
-76.5384
-90.8008
-86.8879
147.65
193.676
180.23
166.69
-55.3059
-55.6918
-61.4346
-51.1946
-55.8696
-56.7844
-60.2501
-53.0816
-48.4019
-46.2426
-47.1543
-46.6935
-34.7458
-31.4514
-33.7311
-33.2528
-41.6199
-42.281
-41.3514
-42.9644
-41.5361
-41.8351
-42.1396
-42.4011
-51.5155
-52.833
-57.0092
-48.4754
-28.3955
-22.5042
-19.6335
-30.2475
-42.8718
-43.1505
-42.3583
-44.2841
-43.8424
-42.3715
-40.3528
-45.5523
-33.5031
-34.0679
-33.822
-33.6875
-33.689
-34.0241
-33.9507
-33.9318
-45.1875
-45.2658
-44.5548
-44.5161
-35.8191
-35.6654
-35.2645
-36.5156
-45.0579
-48.7165
-46.5858
-46.5929
-36.5378
-34.8409
-35.2625
-35.2557
-35.7123
-35.4325
-35.1377
-36.1686
-37.1387
-41.2426
-38.3588
-38.4335
-35.1899
-34.5585
-34.8529
-34.8169
-38.8138
-40.6896
-39.7013
-39.7312
-40.7765
-37.7025
-39.016
-39.4529
-69.6859
-75.6144
-71.8211
-71.7754
10.5011
-1.13139
5.37159
4.9076
-49.0887
-67.4651
-60.8178
-60.6022
-71.6675
-76.8722
-73.8071
-73.8543
-55.1153
-49.7679
-52.623
-52.663
-33.6407
-34.2745
-33.9817
-33.8748
-33.7237
-34.0355
-33.9694
-33.9576
-45.0088
-45.442
-44.5625
-44.525
-35.9558
-35.8562
-35.4223
-36.684
-35.9626
-35.6023
-36.3961
-35.3218
-37.8135
-40.7576
-39.1321
-39.5472
-41.0793
-37.9874
-39.7149
-39.4291
-70.208
-75.6442
-71.5342
-72.0562
-109.193
-93.9512
-94.0442
-79.0769
-43.2488
-44.4468
-45.2619
-44.3325
-43.1726
-44.0683
-44.1204
-44.8746
-92.6727
-75.0165
-80.4699
-68.7052
-107.753
-95.2553
-94.4268
-79.5811
-94.7601
-78.0742
-82.8905
-70.5601
-43.0713
-43.831
-44.3538
-44.7981
-43.6657
-44.5846
-45.4936
-44.4236
-78.9144
-76.0203
-75.263
-71.2246
-78.67
-75.8276
-75.0909
-70.5703
-45.559
-44.5382
-48.0569
-46.2988
-45.5702
-44.5453
-48.0781
-46.3167
-43.8739
-45.3509
-38.3545
-38.8086
-10.0997
1.17439
-9.22359
0.86961
-11.4835
0.609711
-9.84649
0.122892
-44.8184
-45.4902
-40.7766
-39.3825
130.587
159.856
165.117
177.507
99.3654
40.873
146.684
105.849
44.6097
106.509
116.472
151.066
177.777
137.852
178.138
159.869
-34.165
-34.4681
-34.2813
-34.6847
-34.1526
-34.684
-34.1345
-34.6164
-39.3141
-41.1537
-37.9409
-38.8355
-40.2085
-42.0657
-38.6316
-39.9098
-34.2637
-34.5969
-34.4273
-34.8269
-40.3906
-42.3066
-38.8101
-40.1603
-39.636
-41.5122
-38.1084
-38.8132
-34.2653
-34.8357
-34.3024
-34.7666
-34.5898
-35.9397
-34.4223
-35.0955
-35.9402
-34.5999
-35.0923
-34.4313
-34.9415
-34.4053
-34.695
-34.2881
-34.3754
-34.915
-34.2609
-34.6769
-62.5367
-44.2263
-62.6666
-55.6098
-61.0919
-64.911
-69.4706
-70.8065
-65.2596
-61.359
-70.9955
-69.9206
-43.421
-61.2617
-55.0896
-62.4005
-39.669
-35.7218
-42.0069
-39.2048
-47.5612
-45.0284
-45.643
-44.058
-47.2058
-47.9872
-47.6927
-46.6171
-38.8238
-38.4911
-39.8628
-38.8228
-39.819
-36.1894
-41.9126
-39.6475
-39.404
-39.1309
-40.0634
-39.5164
-47.4728
-48.4612
-48.1964
-48.0774
-48.0369
-46.0715
-46.3027
-45.0587
-39.4814
-38.6462
-40.43
-39.5972
-39.6209
-38.7418
-40.5667
-39.6853
-44.4286
-43.8312
-43.1499
-42.8967
-43.8366
-43.3151
-42.802
-42.5453
-51.5596
-53.855
-50.1082
-52.3017
-32.063
-34.7537
-32.9861
-35.4241
-32.3671
-34.9784
-33.1787
-35.5279
-51.8216
-54.0329
-50.3108
-52.4199
-34.9042
-34.9537
-33.9198
-33.8445
-35.4869
-35.351
-34.3922
-34.4473
-32.721
-34.1426
-31.2729
-33.0137
-33.4264
-31.7024
-32.4598
-29.9158
-102.871
85.3482
-96.9736
-15.0759
-90.2012
-94.3466
-44.7985
-37.8932
-42.2613
-39.2204
-47.8625
-45.4738
-85.0181
23.0991
-56.9721
5.90641
-88.9249
-66.7927
-39.2936
-33.962
-32.3803
-32.9737
-41.7575
-35.3785
-95.6732
-25.2816
-95.5421
69.5121
-88.987
-93.7135
-42.3673
-37.5414
-44.7786
-38.134
-48.3518
-45.7691
-55.1706
12.3144
-78.512
28.2967
-86.8725
-68.737
-32.8982
-33.6054
-39.4609
-34.4867
-42.0465
-35.6693
-40.4964
-41.1896
-33.249
-35.4633
-39.1479
-35.0125
-39.3483
-37.026
-37.9415
-37.8076
-34.0836
-34.6932
-34.7748
-35.853
-35.5389
-36.9481
-43.7436
-34.7417
-44.9977
-44.6942
-47.5982
-62.2164
-25.2695
-54.7863
-43.6278
-47.5005
-42.4376
-42.0464
-44.7787
-49.2695
-52.0668
-50.5392
-40.3553
-41.147
-39.3249
-37.0202
-33.3771
-35.4647
-38.8048
-35.0284
-38.1334
-37.9243
-35.5975
-37.048
-34.2015
-34.6468
-34.9477
-36.0894
-42.9163
-33.1505
-23.8394
-53.1129
-43.9006
-44.9239
-47.8288
-62.4148
-44.3109
-47.8893
-52.4207
-50.8626
-42.8112
-42.4139
-45.0755
-49.709
-109.035
75.8397
-94.0777
66.6129
-123.962
-114.934
100.887
111.315
-85.9456
-22.1645
-85.6224
-27.9539
-79.5375
-79.4131
104.853
105.23
-64.8203
-63.0401
-46.2989
-47.9986
-60.3122
-50.2525
-59.0571
-51.7232
-42.3009
-34.912
-41.0069
-34.8424
-46.2636
-45.4599
-34.2767
-34.4218
-40.4746
-36.5316
-40.7694
-36.8314
-42.0146
-41.8704
-34.3323
-34.5367
-40.9488
-40.9494
-39.3625
-39.3619
-40.0184
-41.9517
-41.2339
-41.5799
-36.9766
-19.4525
-36.0337
-19.1318
-39.1308
-39.2463
-10.7188
-8.4115
-56.9481
-44.8664
-42.927
-32.5986
-45.8921
-53.7227
-35.0354
-29.4515
-29.3123
-28.9218
-29.6565
-29.5802
-29.6595
-29.7883
-27.1873
-26.5406
-45.2155
-42.1193
-44.4783
-46.3532
-44.2204
-42.5665
-45.9964
-42.4425
-102.867
77.9476
-93.4129
67.9729
-124.909
-115.852
116.885
105.633
-65.0655
-63.0412
-46.4266
-47.9794
-60.5675
-50.4181
-59.0188
-51.6996
-42.6173
-35.3563
-41.1964
-35.2979
-45.7479
-46.4062
-34.7092
-34.8558
-42.86
-41.5665
-39.4347
-39.6841
-40.3077
-42.0969
-41.419
-41.9132
-57.7466
-47.5425
-43.2643
-33.0181
-54.6641
-46.483
-29.6202
-38.4559
-45.4615
-42.2936
-44.6775
-46.8348
-43.0986
-44.6438
-42.7242
-46.4092
-32.899
-33.3427
-33.1349
-33.3655
-33.2865
-33.2253
-33.4765
-33.4942
-39.3369
-35.7965
-39.1269
-37.6139
-42.6971
-42.3232
-35.5696
-36.566
-40.807
-38.4465
-40.7914
-38.439
-42.9396
-42.947
-37.8279
-37.8258
-35.471
-35.8004
-36.8689
-37.0017
-35.6258
-36.4678
-36.1241
-36.9273
-36.0446
-37.2524
-36.0663
-37.2845
-35.5983
-35.6018
-38.0809
-38.0159
-46.4444
-54.0192
-45.1241
-50.5255
-42.5873
-43.191
-61.1171
-57.089
3.51856
-19.4821
3.65615
-18.9999
9.89186
9.82254
-34.4386
-34.1868
-65.4015
-59.6508
-65.4883
-59.7314
-68.76
-68.8
-57.6393
-57.6796
-33.0655
-33.3936
-33.313
-33.4643
-33.526
-33.3836
-33.5197
-33.5517
-38.9928
-35.8932
-38.7624
-37.6808
-41.6243
-42.4902
-35.6752
-36.6765
-35.711
-36.101
-37.1762
-37.3686
-36.7073
-35.8532
-36.5808
-37.4044
-46.7949
-54.6744
-45.3501
-51.0044
-43.5432
-42.8879
-57.2979
-62.257
-67.4916
-65.9493
-60.9583
-50.8214
-49.3687
-58.4082
-47.6495
-47.0267
-67.9579
-66.3412
-61.3974
-51.1565
-58.8321
-49.7148
-47.3144
-47.9013
-64.8323
-64.7894
-60.6278
-53.6973
-60.6469
-53.6582
-51.0875
-51.1084
-29.3329
-29.5049
-25.4255
-15.347
-15.534
-25.6379
-9.2775
-8.97989
190.369
201.378
183.112
184.166