# vtk DataFile Version 2.0
tet_velo
ASCII
DATASET UNSTRUCTURED_GRID
POINTS 29498 float
-0.760565 0.315 -1.445
-0.83301 0.405 1.485
-0.715 1.11366 -1.045
-0.565 1.7647 1.275
0.760564 0.315 -1.445
0.799419 0.375 1.495
0.715 1.11366 -1.045
0.575 1.75978 1.275
-0.788392 0.341322 -0.468333
-0.822598 0.361264 0.508333
-0.730822 1.3965 -0.271667
-0.678151 1.61084 0.501667
0.793041 0.315475 -0.465
0.817533 0.323935 0.515
0.732096 1.3928 -0.271667
0.680505 1.60325 0.501667
-1.50307 -0.320852 -2.22972
-1.50889 -0.210928 -1.52938
-1.52637 -0.189644 -0.547224
-1.54025 -0.210979 0.475774
-1.5423 -0.18514 1.46138
-1.54997 -0.108034 2.17861
-1.56174 -0.00712397 2.86469
-1.50323 0.163775 -2.10337
-1.50594 0.301845 -1.42527
-1.52378 0.36849 -0.483104
-1.52374 0.400079 0.47713
-1.50625 0.452353 1.42319
-1.52946 0.531867 2.13743
-1.55205 0.628229 2.8302
-1.48392 1.07191 -1.79322
-1.46811 1.20046 -1.10639
-1.46952 1.43326 -0.302895
-1.40698 1.62662 0.48589
-1.32511 1.76598 1.29305
-1.42641 1.84183 2.01415
-1.5054 1.91764 2.73886
-1.46785 2.62825 -1.48257
-1.4594 2.78984 -0.826591
-1.44957 3.07361 -0.0891877
-1.42424 3.36568 0.603896
-1.40671 3.58379 1.34292
-1.43245 3.69978 2.0023
-1.47894 3.78658 2.70462
-0.75598 -0.314071 -2.24241
-0.753303 -0.200028 -1.54785
-0.768998 -0.206055 -0.543409
-0.793859 -0.247775 0.503546
-0.81106 -0.227982 1.50891
-0.829047 -0.14036 2.21138
-0.842553 -0.0306691 2.88436
-0.762549 0.160456 -2.10705
-0.836029 0.505256 2.16432
-0.845665 0.608563 2.84529
-0.749094 1.03351 -1.76755
-0.750326 1.83554 2.01119
-0.815313 1.90895 2.7393
-0.7345 2.59423 -1.45707
-0.727856 2.75429 -0.798525
-0.727002 3.05307 -0.0719844
-0.718695 3.36322 0.60264
-0.714227 3.58861 1.3296
-0.740754 3.70297 1.9891
-0.782077 3.7862 2.69542
0.751622 -0.319923 -2.24166
0.774352 -0.207258 -1.54692
0.79722 -0.228821 -0.540266
0.808583 -0.279718 0.509371
0.7804 -0.257032 1.51673
0.685393 -0.164469 2.21751
0.629757 -0.0518554 2.8891
0.73533 0.156983 -2.10663
0.646045 0.48289 2.17026
0.603865 0.588522 2.84979
0.717154 1.03088 -1.76727
0.578588 1.82153 2.01399
0.577865 1.89228 2.74262
0.730466 2.58776 -1.45635
0.730954 2.74768 -0.797856
0.717243 3.04462 -0.0711751
0.685204 3.35264 0.603703
0.65002 3.57673 1.33103
0.627501 3.6897 1.99101
0.607807 3.77154 2.69777
1.50681 -0.335226 -2.22789
1.52886 -0.229156 -1.52705
1.5549 -0.228086 -0.541882
1.56418 -0.264042 0.485083
1.5263 -0.236848 1.47332
1.43997 -0.153836 2.18925
1.37616 -0.0487035 2.87363
1.49006 0.153274 -2.1021
1.51054 0.290506 -1.42395
1.53719 0.333534 -0.478604
1.54045 0.348706 0.485712
1.4951 0.40373 1.43476
1.39992 0.489088 2.14752
1.34614 0.58863 2.83869
1.46451 1.0636 -1.79231
1.46847 1.19384 -1.1058
1.47637 1.41563 -0.301265
1.42418 1.59858 0.489045
1.33346 1.73803 1.29747
1.30798 1.81043 2.02019
1.30137 1.88369 2.74544
1.46585 2.61411 -1.48098
1.46313 2.77514 -0.825027
1.44496 3.05523 -0.0872812
1.40208 3.34307 0.60639
1.35437 3.55853 1.34617
1.33024 3.67224 2.00636
1.31558 3.7568 2.7094
-0.765421 0.71433 -1.27264
-4.76837e-07 0.292458 -1.46754
-0.784294 0.318345 -0.956667
-0.741582 1.08485 1.42258
-0.0167955 0.381798 1.4982
-0.823756 0.38718 0.996667
0 1.19593 -1.12727
-0.753532 1.2857 -0.658333
0.005 1.79685 1.30961
-0.647927 1.71412 0.888333
0.766754 0.71433 -1.27397
0.779997 0.312043 -0.955
0.726647 1.06739 1.42444
0.797074 0.360869 1.005
0.754239 1.28392 -0.658333
0.652403 1.70616 0.888333
-0.812265 0.344523 0.02
-0.824114 0.868908 -0.37
0.00232443 0.205214 -0.466667
-0.828115 0.986051 0.505
-0.0025326 0.202895 0.511667
-0.708423 1.5076 0.115
0.000637083 1.75627 -0.271667
0.00117708 1.84905 0.501667
0.80566 0.319332 0.025
0.823556 0.854136 -0.368333
0.827917 0.96359 0.508333
0.710084 1.5018 0.115
-0.818326 0.791619 -0.8075
-0.826125 0.92748 0.0675
-0.828412 1.03545 0.9425
0.00116198 0.247584 -0.955833
-0.000104086 0.213081 0.0225
-0.00966406 0.308213 1.00083
-2.38419e-07 0.71433 -1.49058
-0.00589776 1.07612 1.44307
0.000318542 1.52287 -0.658333
0.000907081 1.84642 0.115
0.00308854 1.83044 0.888333
0.818528 0.784233 -0.806667
0.825738 0.908863 0.07
0.831133 1.01549 0.946667
-1.13325 0.308423 -1.43514
-0.756934 0.0574859 -1.49643
-0.761557 0.237728 -1.77602
-1.16963 0.428676 1.4541
-0.822035 0.0885089 1.49696
-0.83452 0.455128 1.82466
-1.09156 1.15706 -1.07569
-0.732047 1.07358 -1.40628
-0.721428 1.93397 -0.921762
-0.945056 1.76534 1.28403
-0.657663 1.80012 1.64309
-0.639614 2.67666 1.3023
0.767458 0.0538709 -1.49596
0.747947 0.235992 -1.77581
1.13555 0.302753 -1.43447
0.78991 0.0589841 1.50586
0.722732 0.428945 1.83263
1.14726 0.389365 1.46488
0.716077 1.07227 -1.40614
0.722977 1.93067 -0.921428
1.09173 1.15375 -1.0754
0.576794 1.79066 1.64449
0.61251 2.66826 1.30301
0.954231 1.7489 1.28624
-1.15609 0.354906 -0.475719
-0.778695 0.0676331 -0.505871
-1.17317 0.380671 0.492732
-0.808228 0.0567446 0.50594
-1.10017 1.41488 -0.287281
-0.728912 2.22478 -0.171826
-1.04257 1.61873 0.493778
-0.698423 2.48703 0.552153
0.79513 0.0433268 -0.502633
1.16512 0.324505 -0.471802
0.813058 0.0221086 0.512186
1.17899 0.336321 0.500356
0.72467 2.21871 -0.171421
1.10423 1.40421 -0.286466
0.682855 2.47794 0.552685
1.05234 1.60091 0.495356
-1.50598 -0.26589 -1.87955
-1.50315 -0.078538 -2.16654
-1.12953 -0.317461 -2.23606
-1.51763 -0.200286 -1.0383
-1.50741 0.0454589 -1.47733
-1.13109 -0.205478 -1.53862
-1.53331 -0.200312 -0.0357248
-1.52508 0.089423 -0.515164
-1.14769 -0.19785 -0.545316
-1.54128 -0.19806 0.968579
-1.532 0.0945497 0.476452
-1.16706 -0.229377 0.48966
-1.54614 -0.146587 1.82
-1.52427 0.133607 1.44229
-1.17668 -0.206561 1.48515
-1.55585 -0.0575789 2.52165
-1.53972 0.211916 2.15802
-1.18951 -0.124197 2.19499
-1.55689 0.310553 2.84745
-1.20214 -0.0188965 2.87453
-1.50459 0.23281 -1.76432
-1.49358 0.617844 -1.94829
-1.13289 0.162116 -2.10521
-1.51486 0.335168 -0.954189
-1.48703 0.751151 -1.26583
-1.52376 0.384284 -0.00298685
-1.49665 0.900874 -0.393
-1.51499 0.426216 0.95016
-1.46536 1.01335 0.48151
-1.51786 0.49211 1.78031
-1.41568 1.10917 1.35812
-1.54076 0.580048 2.48382
-1.47794 1.18685 2.07579
-1.18274 0.518561 2.15087
-1.52873 1.27293 2.78453
-1.19886 0.618396 2.83775
-1.47602 1.13618 -1.4498
-1.47589 1.85008 -1.63789
-1.11651 1.05271 -1.78039
-1.46881 1.31686 -0.704641
-1.46376 1.99515 -0.966488
-1.43825 1.52994 0.0914972
-1.45954 2.25343 -0.196041
-1.36605 1.6963 0.889472
-1.41561 2.49615 0.544893
-1.37576 1.80391 1.6536
-1.36591 2.67489 1.31799
-1.46591 1.87973 2.3765
-1.42943 2.77081 2.00822
-1.08837 1.83868 2.01267
-1.49217 2.85211 2.72174
-1.16036 1.9133 2.73908
-1.46363 2.70904 -1.15458
-1.10118 2.61124 -1.46982
-1.45449 2.93172 -0.457889
-1.09363 2.77206 -0.812558
-1.43691 3.21965 0.257354
-1.08829 3.06334 -0.080586
-1.41547 3.47474 0.97341
-1.07147 3.36445 0.603268
-1.41958 3.64178 1.67261
-1.06047 3.5862 1.33626
-1.45569 3.74318 2.35346
-1.0866 3.70137 1.9957
-1.13051 3.78639 2.70002
-0.754641 -0.25705 -1.89513
-0.759265 -0.0768076 -2.17473
-0.00217897 -0.316997 -2.24203
-0.76115 -0.203042 -1.04563
0.0105245 -0.203643 -1.54738
-0.781429 -0.226915 -0.0199314
0.014111 -0.217438 -0.541838
-0.802459 -0.237878 1.00623
0.00736173 -0.263746 0.506459
-0.820053 -0.184171 1.86015
-0.0153297 -0.242507 1.51282
-0.8358 -0.0855144 2.54787
-0.832538 0.182448 2.18785
-0.0718269 -0.152414 2.21444
-0.844109 0.288947 2.86483
-0.106398 -0.0412622 2.88673
-0.755822 0.596982 -1.9373
-0.0136096 0.15872 -2.10684
-0.840847 0.556909 2.5048
-0.793178 1.1704 2.08775
-0.0949924 0.494073 2.16729
-0.830489 1.25876 2.79229
-0.1209 0.598542 2.84754
-0.741797 1.81387 -1.61231
-0.0159698 1.03219 -1.76741
-0.78282 1.87224 2.37524
-0.74554 2.76925 2.00014
-0.0858691 1.82853 2.01259
-0.798695 2.84758 2.71736
-0.118724 1.90061 2.74096
-0.731178 2.67426 -1.1278
-0.00201723 2.591 -1.45671
-0.727429 2.90368 -0.435255
0.00154911 2.75098 -0.79819
-0.722849 3.20814 0.265328
-0.00487933 3.04884 -0.0715797
-0.716461 3.47592 0.966119
-0.0167454 3.35793 0.603172
-0.727491 3.64579 1.65935
-0.0321038 3.58267 1.33031
-0.761416 3.74458 2.34226
-0.0566265 3.69633 1.99006
-0.0871353 3.77887 2.69659
0.762987 -0.263591 -1.89429
0.743476 -0.0814699 -2.17414
1.12921 -0.327574 -2.23478
0.785786 -0.21804 -1.04359
1.15161 -0.218207 -1.53698
0.802902 -0.25427 -0.0154474
1.17606 -0.228454 -0.541074
0.794491 -0.268375 1.01305
1.18638 -0.27188 0.497227
0.732897 -0.21075 1.86712
1.15335 -0.24694 1.49503
0.657575 -0.108162 2.5533
0.665719 0.159211 2.19388
1.06268 -0.159152 2.20338
0.616811 0.268333 2.86944
1.00296 -0.0502794 2.88137
0.726242 0.593929 -1.93695
1.11269 0.155128 -2.10436
0.624955 0.535706 2.51002
0.612316 1.15221 2.09212
1.02298 0.485989 2.15889
0.590865 1.2404 2.7962
0.975005 0.588576 2.84424
0.72381 1.80932 -1.61181
1.09083 1.04724 -1.77979
0.578226 1.8569 2.3783
0.603044 2.75561 2.0025
0.943284 1.81598 2.01709
0.592836 2.83191 2.72019
0.939618 1.88798 2.74403
0.73071 2.66772 -1.1271
1.09816 2.60094 -1.46867
0.724099 2.89615 -0.434515
1.09704 2.76141 -0.811441
0.701224 3.19863 0.266264
1.0811 3.04992 -0.0792282
0.667612 3.46469 0.967367
1.04364 3.34786 0.605047
0.63876 3.63322 1.66102
1.0022 3.56763 1.3386
0.617654 3.73062 2.34439
0.978871 3.68097 1.99869
0.961692 3.76417 2.70358
1.51783 -0.282191 -1.87747
1.49843 -0.090976 -2.16499
1.54188 -0.228621 -1.03447
1.5197 0.030675 -1.4755
1.55954 -0.246064 -0.0283995
1.54605 0.0527237 -0.510243
1.54524 -0.250445 0.979202
1.55231 0.0423321 0.485397
1.48314 -0.195342 1.83129
1.5107 0.0834406 1.45404
1.40806 -0.10127 2.53144
1.41995 0.167626 2.16838
1.36115 0.269963 2.85616
1.5003 0.22189 -1.76302
1.47728 0.608435 -1.9472
1.52386 0.31202 -0.951275
1.4895 0.742172 -1.26487
1.53882 0.34112 0.00355388
1.50678 0.874583 -0.389934
1.51777 0.376218 0.960237
1.48231 0.973645 0.487378
1.44751 0.446409 1.79114
1.41428 1.07088 1.36612
1.37303 0.538859 2.49311
1.35395 1.14976 2.08385
1.32376 1.23616 2.79206
1.46649 1.12872 -1.44905
1.46518 1.83886 -1.63664
1.47242 1.30473 -0.703532
1.4658 1.98449 -0.965413
1.45027 1.50711 0.09389
1.46066 2.23543 -0.194273
1.37882 1.66831 0.893257
[...]
POINT_DATA 29498
VECTORS point_vectors float
-7.20047 -7.7801 11.1215
0.566431 0.377227 2.93796
-1.69249 0.2136 2.22584
0.0248735 -0.119284 0.909716
7.18625 -7.80596 11.1721
-0.29408 0.428157 2.23674
1.70618 0.213387 2.24648
-0.0505049 -0.14262 1.03001
0.00892133 0.00592787 0.130553
-0.0239022 -0.0245405 0.458232
-0.000573149 0.00667917 0.0357925
0.00292582 0.00900269 0.0213159
-0.0162014 0.045088 0.447319
0.00471598 0.00100634 0.151116
0.000610722 0.00778273 0.0412017
-0.00246619 0.00758652 0.0178945
-0.773107 -0.642298 20.0961
-1.22018 -0.966032 20.725
-0.584684 -0.63515 21.737
0.123948 -0.24565 21.9079
0.636283 0.00993228 21.9269
0.918808 0.143581 21.7839
1.18216 0.204152 21.5611
-1.29451 -0.665884 19.8997
-2.07309 -1.04739 20.8017
-0.920288 -0.929573 22.0101
-0.0443658 -0.720607 22.1168
0.638662 -0.600352 22.1454
1.05192 -0.48966 21.9986
1.39082 -0.43329 21.6983
-2.08184 0.163376 19.7376
-2.84709 0.0921165 20.917
-2.0535 -0.175257 21.9988
-1.10756 -0.285841 22.2574
-0.502439 -0.446469 22.1952
-0.097596 -0.603647 22.0375
0.300055 -0.782849 21.7275
-0.817677 0.58001 20.3955
-0.874991 0.565385 20.8798
-0.648334 0.334691 21.2164
-0.405406 0.0588932 21.8181
-0.151111 -0.0339531 21.5951
0.0243417 -0.0521473 21.2183
0.110734 -0.0405067 20.7952
-0.757997 -1.26499 19.5602
-1.78125 -2.94466 20.4834
-0.780122 -0.995297 22.6427
0.16007 0.134202 22.4949
0.759241 0.879461 22.2968
1.22711 1.27972 21.906
1.70546 1.52565 21.3373
-1.66453 -1.70821 18.3378
1.21859 0.0486878 9.23438
2.1884 0.575501 11.8114
-3.85427 1.66238 16.3823
-0.0206621 -0.256975 13.778
0.176507 -1.12377 18.2495
-0.711664 1.24761 20.1201
-0.807647 1.38013 20.7893
-0.565913 0.735066 21.3405
-0.3545 0.134855 21.9552
-0.152116 -0.0569532 21.4831
-0.0287894 -0.0619226 21.1093
0.0737179 -0.0202917 20.7693
0.747591 -1.24973 19.593
1.7518 -2.81275 20.5544
0.726003 -0.936854 22.4843
-0.174983 0.0883304 22.4499
-0.705711 0.89911 22.3028
-0.984625 1.51679 21.8959
-1.41952 2.12661 21.1938
1.64782 -1.75419 18.2752
-0.574148 0.361538 4.65982
-1.73327 1.31252 6.34696
3.82464 1.74911 16.134
0.297363 -0.0676004 7.49766
-0.035843 -1.03578 12.022
0.714989 1.26063 20.1139
0.817038 1.38763 20.7877
0.561752 0.749852 21.3442
0.332459 0.146272 21.948
0.144261 -0.0721466 21.6427
-0.00135815 -0.0680559 21.2689
-0.0789489 -0.0211894 20.8206
0.758586 -0.632706 20.1018
1.17082 -0.916752 20.7404
0.570915 -0.632105 21.6618
-0.107397 -0.249094 21.8741
-0.645026 0.0415294 21.9115
-0.9624 0.247344 21.8106
-1.32719 0.37116 21.6342
1.29361 -0.679969 19.8741
2.03186 -1.04544 20.7937
0.885371 -0.900241 21.9687
0.0234063 -0.668755 22.0881
-0.684889 -0.561112 22.1519
-1.28151 -0.54698 22.0884
-1.76255 -0.461645 21.8289
2.1486 0.16375 19.6845
2.84129 0.0782918 20.9183
2.03002 -0.20424 21.9985
1.09412 -0.306464 22.2423
0.48338 -0.455496 22.1921
0.159639 -0.696118 22.3418
-0.282456 -0.975678 21.977
0.823044 0.592348 20.3901
0.879908 0.57011 20.8788
0.657345 0.348128 21.213
0.417605 0.0809151 21.8025
0.163179 -0.0183999 21.557
0.00513955 -0.0552689 21.2065
-0.128069 -0.0475088 20.9045
0 0 0
-0.00741257 -13.0424 6.69152
-0.0476099 0.0674194 0.879701
-0.121177 -0.178513 -0.0218191
0.000454842 -0.0332129 -0.00478464
0 0 0
0.00115248 0.0643374 0.0769681
-0.51147 -0.230273 1.27772
0.00773636 0.161914 -0.0435419
0.0234457 0.0401707 0.255157
0 0 0
0.023546 0.0367067 0.791241
0.0376011 -0.0708201 -0.0127573
-0.0419747 -0.0240374 0.21762
0.482535 -0.225657 1.20027
-0.0241806 0.0425432 0.265332
-0.00541244 0.0159904 0.466332
-0.000143059 0.00172084 0.00597293
-0.00386824 0.000462235 0.0151264
0.00012166 0.00839867 0.0253112
7.27362e-05 0.000368642 0.00734621
0.00494557 0.0207922 0.0491494
0.000719371 0.315835 0.751837
-1.51698e-06 -9.70697e-06 0.00145121
0.0153521 0.0384956 0.94955
0 0 0
-1.66865e-05 0.00134156 0.00396318
-0.00530244 0.0220711 0.0508968
0 0 0
-3.81521e-05 0.00490803 0.0132335
0 0 0
0 0 0
0 0 0
0 0 0
-5.93296e-05 0.0430892 0.0239914
0 0 0
6.87191e-05 0.0592072 0.0925449
0.000233679 0.0137015 0.0983711
2.60576e-06 -0.000126395 0.00278744
0 0 0
0 0 0
-0.000595395 0.00676999 0.0352701
-3.7412 -2.26797 20.8515
-3.42894 -4.88114 20.5493
-3.43515 -3.41145 17.3548
1.34058 -0.599617 21.5639
1.8599 1.0145 20.0697
0.827616 -0.149874 6.37451
-5.29197 0.503866 21.1263
-7.44396 3.91802 16.3139
-2.81278 3.28096 20.0382
-0.464732 -0.312417 20.0546
-0.26305 0.114399 7.27197
-0.364158 0.218243 22.0638
3.39125 -4.72097 20.6063
3.43215 -3.52446 17.2876
3.68871 -2.26696 20.8636
-1.69504 1.12324 20.1572
-0.337382 -0.224344 3.2886
-1.44269 -0.503428 21.6523
7.50628 4.13748 16.0979
2.82935 3.28354 20.0329
5.29844 0.476397 21.1301
0.568553 0.20083 4.48978
0.354243 0.234382 22.0668
0.467701 -0.31366 20.0968
-0.186508 -1.38836 22.6913
-0.401011 -0.53018 20.5849
0.577349 -0.927484 21.9895
0.9805 -0.0677317 19.5846
-3.24547 -0.450805 22.8557
-1.99649 2.31053 22.0599
-1.54161 -0.414829 22.5714
-0.828868 0.791608 22.2463
0.648838 -0.547207 21.7776
0.226375 -1.28222 22.6079
-0.836007 -0.0313408 20.8193
-0.542635 -0.839193 22.101
2.01174 2.34544 22.0726
3.21189 -0.482044 22.8479
0.826167 0.817068 22.2676
1.51734 -0.42218 22.4494
-1.02912 -0.819072 20.3633
-1.02037 -0.678111 20.0233
-0.834457 -0.918334 19.8673
-1.02668 -0.886216 21.419
-1.62101 -1.05518 20.7728
-1.54846 -1.69681 20.6839
-0.176908 -0.399103 21.9162
-0.728462 -0.793554 21.876
-0.635429 -0.791718 22.1634
0.401177 -0.104568 21.9873
0.0900086 -0.481767 22.0205
0.244822 -0.138628 22.2002
0.793898 0.0974009 21.9081
0.691542 -0.253964 22.0184
0.837339 0.318102 22.0879
1.04862 0.268641 21.5564
1.08834 -0.117054 21.8911
1.2417 0.547604 21.9118
1.42161 -0.00233802 21.7247
1.51366 0.609052 21.5906
-1.79718 -0.905463 20.158
-1.88269 -0.410007 19.7116
-1.64094 -1.13819 19.2864
-1.60834 -1.04871 21.6744
-2.84298 -0.661537 20.9173
-0.391307 -0.817092 22.0819
-1.64739 -0.860798 22.1099
0.301089 -0.673508 22.146
-0.732876 -0.806422 22.2749
0.860555 -0.547943 22.1199
-0.0426304 -0.839027 22.2772
1.22053 -0.437162 21.9297
0.422491 -0.861367 22.12
1.65711 -0.470857 21.2769
0.860644 -0.872961 21.9889
2.10948 -0.324084 21.1354
-2.6359 0.190281 20.2168
-1.4855 0.688998 20.029
-3.10215 0.586791 18.6465
-2.57196 -0.0710086 21.6166
-1.81028 0.815293 20.7915
-1.53497 -0.256541 22.2017
-1.30979 0.549583 21.5712
-0.748536 -0.349612 22.2245
-0.749839 0.241074 21.8706
-0.299736 -0.521365 22.1043
-0.417953 -0.0707472 21.8293
0.105162 -0.699552 22.0835
-0.204869 -0.214142 21.6704
-0.259967 -0.672179 22.0164
-0.0875963 -0.330795 21.5242
0.194432 -1.02906 22.0321
-0.838241 0.598243 20.5814
-0.833135 0.921057 20.2591
-0.766586 0.466259 21.0543
-0.924948 0.9334 20.8536
-0.53704 0.218226 21.5077
-0.760097 0.558647 21.3757
-0.287623 -0.00468875 21.8786
-0.406306 0.129337 21.8821
-0.0899247 -0.0575582 21.483
-0.152219 -0.0365205 21.4787
0.132645 -0.0487214 20.9574
-0.0989733 -0.044984 20.8065
0.0996229 -0.0344319 20.7877
-1.21724 -2.0227 19.7364
-1.15009 -1.56717 19.0799
0.00352028 -1.68817 19.2072
-1.45918 -2.12743 22.231
0.0428559 -4.66271 20.1778
-0.228122 -0.271492 22.4973
0.0326018 -1.74283 23.226
0.50837 0.598345 22.409
-0.00890641 -0.0221101 22.8418
1.01417 1.07073 22.1192
0.00466095 1.01167 22.147
1.47349 1.45857 21.7683
2.28419 1.29004 19.4371
0.0521166 1.57407 20.6934
2.73341 1.57974 19.3183
0.214321 2.36966 19.1274
-3.20151 -0.812712 16.3942
-0.0337252 -2.53131 17.0554
1.68784 0.413336 10.7067
-0.280606 -0.85274 3.49276
0.0181263 -0.136755 2.59889
0.853544 -1.13897 7.48323
0.50412 2.04614 2.7798
-1.82778 2.11333 18.9538
-0.126139 3.38285 12.7659
0.108698 -0.766815 16.3077
-0.137684 -0.0752973 21.7407
-0.105625 0.748431 0.542816
-0.140235 -0.279696 21.9676
-0.0311098 -0.540437 4.6833
-0.811807 1.41025 20.4256
-0.00277319 1.72342 19.8975
-0.671569 1.07673 21.0557
0.00104673 1.78825 20.7755
-0.480433 0.408417 21.6546
-0.00859597 1.06761 21.4599
-0.239119 0.0021109 21.8103
-0.0076193 0.258139 22.016
-0.0973175 -0.0998713 21.5002
-0.00869329 -0.0175513 21.5471
0.0825429 -0.0253687 20.9083
-0.0123375 -0.0358254 20.8744
0.0238074 -0.020306 20.7945
1.19747 -1.98827 19.7906
1.12728 -1.58626 19.0721
0.822194 -0.919163 19.8972
1.38592 -1.94785 22.1946
1.48909 -1.63419 20.7187
0.209047 -0.318004 22.4277
0.604317 -0.794761 22.0648
-0.49042 0.574547 22.4053
-0.209734 -0.160744 22.1606
-0.868505 1.18675 22.0651
-0.803679 0.354787 22.0868
-1.17304 1.83332 21.3956
-2.0074 1.88195 17.9676
-1.22604 0.760398 21.9297
-2.25724 2.44992 16.3279
-1.65714 1.09659 21.5153
3.16296 -0.833818 16.173
1.65746 -1.17304 19.2491
-1.13264 0.855199 5.80007
0.771633 -0.877494 -2.83904
-1.86154 0.05404 18.1835
0.203127 -0.751133 -1.3891
-2.40705 0.269774 16.3497
1.8238 2.16341 18.8939
3.17009 0.618283 18.5319
0.0417822 -0.686405 9.69943
0.202922 -0.0917534 21.8309
0.210947 -0.549238 19.8087
0.146118 -0.289624 21.8346
-0.264838 -1.131 20.6336
0.817106 1.42273 20.4225
0.843374 0.92963 20.2553
0.673042 1.08653 21.0655
0.931233 0.942827 20.854
0.464014 0.426092 21.6394
0.767916 0.570421 21.3753
0.233835 -0.00897041 21.9368
0.412759 0.145627 21.8729
0.0978822 -0.106921 21.5319
0.158844 -0.0376847 21.5277
-0.0866382 -0.0273786 20.977
0.111314 -0.0530057 20.8337
-0.0983456 -0.0314228 20.8589
1.00386 -0.801257 20.3518
1.00994 -0.679715 20.0156
0.968798 -0.843674 21.4117
1.54498 -1.02154 20.789
0.199865 -0.389181 21.8807
0.702233 -0.771061 21.8084
-0.40582 -0.0775387 21.9867
-0.0790971 -0.441299 21.9741
-0.829102 0.165409 21.9119
-0.701957 -0.205766 22.0107
-1.11298 0.38356 21.6254
-1.24055 -0.0272547 21.8991
-1.7598 0.179181 21.8086
1.77242 -0.914063 20.1447
1.91278 -0.428956 19.6745
1.55415 -1.03546 21.6383
2.80394 -0.686275 20.9149
0.376625 -0.77221 22.0391
1.58949 -0.867029 22.0966
-0.318375 -0.630454 22.1402
0.693862 -0.821208 22.2469
-1.00144 -0.542861 22.151
0.00952697 -0.850836 22.2698
-1.58627 -0.480395 21.9939
-0.466369 -1.03689 22.3412
-1.06533 -1.07519 22.3208
2.67495 0.19116 20.2107
1.50931 0.695151 20.0187
2.5504 -0.0992372 21.6175
1.83374 0.808919 20.7962
1.51519 -0.28302 22.1902
1.33686 0.546327 21.5771
0.736102 -0.370966 22.2302
0.774596 0.245161 21.8867
0.322536 -0.548434 22.1477
0.389879 -0.0698209 21.8425
-0.0691432 -0.7903 22.2849
0.19149 -0.246561 21.7395
0.131915 -0.322564 21.6397
0.844362 0.605231 20.5806
0.776967 0.474032 21.0632
0.545778 0.235209 21.4957
0.298328 0.00736847 21.8643
0.108415 -0.0632122 21.5088
-0.125869 -0.0539847 21.0252
-1.36154 -0.898831 20.2691
-2.01453 -2.78939 18.9999
-1.25169 -1.32753 20.0862
-2.72006 -1.70754 19.4238
-1.23297 -1.10996 19.5898
-2.41307 -2.10711 20.7912
-1.30184 -0.998151 21.5275
-2.1478 -1.77237 23.0763
-1.24496 -1.39345 21.7476
-1.68362 -1.89564 22.7652
-0.495353 -0.833204 22.4606
-0.252161 -0.614674 21.9957
0.505201 -0.0243091 19.2876
-0.12187 -0.39005 22.1853
0.391676 -1.09966 22.2844
0.503969 -0.360589 22.3441
0.409337 -0.373694 22.0566
1.68206 0.768317 19.3169
0.571106 0.109662 22.1861
0.860598 -0.894801 21.8579
1.33138 0.0192977 22.2393
0.924671 -0.192377 21.9779
2.07472 1.13356 19.817
1.05035 0.431007 22.0047
1.53075 -0.542363 21.3213
1.72662 0.179578 21.9916
1.21965 -0.15847 21.7072
2.53644 1.48727 19.4442
1.41026 0.631875 21.7189
1.92607 -0.366326 20.8323
2.13056 0.391894 21.4734
-2.47719 -0.511465 20.1454
-7.89694 0.280771 13.2532
-4.58382 0.908329 19.3834
-2.66953 -0.629064 18.6537
-5.69251 -1.27135 21.2781
-2.35114 -0.827447 21.7922
-4.34756 -0.169291 22.356
-2.3413 -1.58346 22.7698
-1.11942 -0.865247 22.2251
-2.35248 -0.477443 22.9919
-0.705416 -0.747315 20.2522
-0.386009 -0.779628 22.312
-0.934504 -0.361056 21.8271
0.23089 -0.256313 17.1243
0.1704 -0.856991 22.2097
-1.07079 -1.57782 1.31718
-0.571864 -0.51097 21.9123
0.467629 -0.820356 20.2177
0.644155 -0.849122 21.9647
0.291953 -0.687341 5.24169
0.00715585 -0.827424 22.0868
1.11623 -1.08968 20.1824
-1.72261 0.812231 20.3692
-2.35635 2.75655 19.3362
-0.895537 1.00362 20.5296
-1.7985 1.29817 19.5947
-2.39033 1.63321 20.6116
-1.58487 0.706058 21.229
-2.6039 2.97139 21.1638
-0.844715 0.802656 20.9615
-1.7192 1.14123 21.7629
-1.02228 0.388815 21.7364
-1.30997 1.39662 22.369
-0.610815 0.386039 21.6108
-0.803796 0.478129 22.0995
-0.517389 0.0876293 21.8408
-0.53005 0.462273 22.1278
-0.292585 0.0685236 21.261
-0.400682 0.0640055 21.9477
-0.293915 -0.167938 21.6582
-0.247887 0.0870898 21.9045
-0.0988261 -0.0776087 21.4734
-0.260398 -0.205158 21.8772
-0.0937458 -0.307382 21.6319
-0.0826022 -0.228747 21.7375
0.111854 -0.0395537 20.935
-0.148048 -0.337141 21.7239
1.99935 -2.78733 19.0193
0.0116605 -3.00846 19.2339
-0.0345106 -5.59577 14.7242
-0.0143694 -2.20012 18.3791
0.0400368 -8.46819 19.6989
1.97351 -1.71255 23.1767
0.0626919 -3.51695 22.7202
-0.0647081 -0.720125 13.7862
-0.247409 -0.0775728 20.8561
-0.00417138 -0.68208 22.8985
-0.0549303 0.168563 13.0051
-1.55151 0.842138 20.0986
-0.00262821 0.583744 22.6346
0.0237637 0.854024 11.3822
-1.86945 1.46958 18.6632
0.0294954 1.29398 21.2664
0.00798047 -0.922309 1.44062
0.175603 1.23945 10.1291
-2.14175 2.16452 17.0663
0.090829 2.02108 19.7682
0.191264 0.982423 2.81114
0.420059 2.40678 10.4446
7.87073 0.296345 12.8922
-0.0932672 9.10318 10.9597
-0.0863398 -1.23161 13.0835
1.30691 -1.54496 -0.991006
-0.116833 1.09946 0.415863
-0.0891178 0.360087 -2.48126
0.542707 -0.990297 -2.78251
-0.0233577 0.068212 2.5359
-0.374123 2.01467 -4.14549
2.36176 2.79319 19.3133
-0.00106233 1.88216 20.3043
-0.0265409 3.29831 17.9933
0.00229376 5.37821 19.0671
2.62159 2.9922 21.1606
-0.00364871 1.58259 20.978
-0.00885677 3.55124 22.0784
1.32021 1.43777 22.3919
-0.00554133 0.680581 21.7087
-0.0154792 1.19873 22.5952
0.519559 0.482245 22.1474
-0.00971692 0.184332 21.4516
-0.01419 0.366925 22.094
0.246016 0.11484 21.9263
-0.0115027 -0.103523 21.5286
-0.0534652 0.0180084 22.023
0.0813144 -0.208544 21.6355
0.0193722 -0.0239713 20.9273
-0.0332755 -0.333792 21.9518
1.3243 -0.890196 20.2656
1.21968 -1.31452 20.1182
2.72484 -1.73759 19.413
1.22848 -1.12915 19.5831
2.33055 -2.05065 20.8018
1.24621 -0.978212 21.4962
1.1798 -1.333 21.7223
1.59845 -1.84687 22.7147
0.512265 -0.8261 22.3445
0.25097 -0.587763 21.9386
0.146846 -0.410275 22.1316
-0.323281 -0.990705 22.2753
-0.414008 -0.343465 22.3008
-0.407872 -0.334139 22.0364
-0.530013 0.115954 22.1776
-0.917553 -0.813578 21.8852
-1.28467 0.0987498 22.2152
-0.988139 -0.114945 21.9917
-1.02008 0.541573 22.0093
-1.6523 -0.215733 19.625
-2.00764 0.597293 21.7929
-1.50486 -0.00110744 21.8564
-1.50207 0.918648 21.7324
-2.16845 0.116824 17.333
-2.52385 1.01669 20.8341
2.49667 -0.532776 20.1283
4.68189 0.943324 19.3322
2.73535 -0.66 18.549
5.64471 -1.30444 21.2969
2.30934 -0.854991 21.7859
4.32999 -0.201997 22.3612
2.27174 -1.6586 22.7691
1.06459 -0.855667 22.2026
2.31333 -0.497572 22.9809
0.727101 -0.793915 20.3089
0.362488 -0.7933 22.3092
0.936512 -0.377028 21.8685
-0.262713 -0.160837 16.3873
-0.215129 -0.932932 22.315
0.406141 -0.313541 19.8332
-0.401735 -0.585927 13.5656
-0.773315 -1.03167 22.2799
-0.0719647 -0.866114 20.5277
-1.16514 -0.998153 13.4457
1.74482 0.818201 20.367
0.900542 1.01533 20.5311
1.82232 1.32257 19.5639
2.41628 1.63307 20.6077
1.60539 0.700679 21.2327
0.852481 0.81761 20.974
1.74309 1.15122 21.7703
1.03458 0.379134 21.7575
0.617687 0.401743 21.5985
0.82623 0.486527 22.1106
0.507055 0.0912417 21.8853
0.293965 0.0724306 21.3046
0.386396 0.0806322 21.9506
0.287874 -0.170537 21.7168
0.103148 -0.0850664 21.5204
0.21897 -0.153717 21.8691
0.0494805 -0.333246 21.8261
-0.0979199 -0.0378475 20.9804
0.0894545 -0.33742 21.8422
-1.83279 -1.61817 19.8262
-1.52906 -1.51258 22.2004
0.130267 -0.496201 22.3498
0.987603 -0.2047 22.3254
1.54949 0.110752 22.1633
1.96501 0.234959 21.9323
-4.62922 -0.697712 19.033
-3.897 -1.79031 22.988
-1.2666 -1.1641 21.2541
-0.233439 -0.337795 18.9323
0.215039 -0.643564 18.6874
0.835502 -0.976671 20.7343
-2.17773 1.53707 20.0137
-2.22996 1.5002 21.2913
-1.26325 0.77629 22.0574
-0.520053 0.281762 21.9535
-0.296727 -0.0615998 21.8435
-0.0772959 -0.310713 21.8156
-0.00414594 -4.35815 17.835
0.0982188 -3.23432 19.6371
-0.0924815 -0.143386 12.1761
0.00241697 0.656908 11.4014
0.0560963 0.91136 10.3182
0.278603 1.74676 10.1212
-0.0915831 -0.176317 5.38192
0.0093044 -1.61551 -0.750468
-0.222874 1.61257 -3.60251
-0.021265 4.46703 18.2716
-0.00546772 5.00422 20.7889
-0.0150774 2.15239 22.5329
-0.01432 0.724139 22.1689
-0.0369058 0.218691 22.1077
-0.0324381 -0.166343 21.5466
1.81161 -1.61614 19.848
1.44627 -1.46756 22.1376
-0.0441717 -0.491523 22.2882
-0.91831 -0.149802 22.3156
-1.66272 0.34675 22.0685
-2.3451 0.762361 21.6714
4.72628 -0.728568 18.9826
3.7972 -1.8683 22.9851
1.30083 -1.24309 21.4919
0.246389 -0.29163 18.655
-0.292075 -0.243016 14.7525
-0.715111 -0.769284 13.3025
2.20874 1.55949 19.9963
2.25642 1.50611 21.293
1.28786 0.792401 22.068
0.518674 0.299094 21.9915
0.266998 -0.0296165 21.8514
0.0645706 -0.284057 21.7403
-5.84067 -0.164254 3.95933
-0.98255 -5.65938 4.17775
-0.016226 0.00209018 0.624243
-0.10762 -0.112269 0.00959452
-0.0139458 0.00398686 0.033317
0.0128749 -0.000184122 0.396201
-0.878853 -0.0497899 1.47518
-0.18187 0.315348 0.413215
-0.76054 -0.287755 1.4535
-0.05812 -0.0166425 -0.0244472
-0.0890755 0.0145312 0.238619
0.0251084 0.0130499 0.360226
1.20941 -6.00624 4.39227
5.88573 -0.200317 4.01679
0.0102996 -0.00374621 0.567712
0.011488 -0.0245306 0.00341137
0.0791491 -0.0822904 0.00730051
-0.0342645 -0.00783391 0.361885
0.183977 0.318414 0.418005
0.910625 -0.0364489 1.55163
0.79511 -0.307828 1.53422
0.091095 0.0105154 0.244781
0.0540827 -0.0153167 -0.0224006
-0.0342079 0.0148752 0.426746
-0.994891 0.273026 6.70601
-0.00258291 0.0420954 0.712036
-0.000110423 0.00205185 0.00295838
0 0 0
0.0838801 -0.0921362 0.367075
-0.0050916 -0.0124869 0.903868
0 0 0
0 0 0
0.000119402 0.00373151 0.0891735
0.00452638 0.0204132 0.0749063
0.000237475 0.002698 0.0115459
-0.0123658 0.0310323 0.0656846
0.00452563 0.0154001 0.0470455
0 0 0
0.00355464 0.0126421 0.0364129
0.00111628 0.000325212 0.0175339
0.0310374 0.0342404 0.15338
-7.42384e-18 1.78748e-18 2.38724e-17
0.00418202 0.0915532 1.16255
0.000667027 0.00903984 0.0117515
-0.0119027 -0.00887766 0.0262908
0 0 0
0.00385628 -0.0033834 0.200384
0 0 0
1.82011e-05 0.00128233 0.0344283
0.00812522 0.0207028 0.0447418
-0.00362819 0.0207376 0.0776923
-0.000312205 0.00350028 0.0148198
-0.00404194 0.0142804 0.0434139
-0.000657137 8.04816e-05 0.0112963
-0.00610604 0.0198435 0.0588743
-0.00325627 0.0115784 0.0324166
-0.237472 -0.113136 0.681475
-0.552875 0.511559 0.245726
0 0 0
0.00102268 -1.07976 0.229312
0 0 0
0 0 0
0.00138397 0.000593416 0.0179919
-0.00108924 -0.0436096 -0.00221125
0 0 0
8.38174e-20 -2.61539e-18 -2.86443e-19
-0.00491714 0.0476808 0.249065
0 0 0
0.000153899 0.129896 0.0997773
-0.000114705 0.0492738 0.0727643
-0.00107967 0.000193555 0.020355
-0.0674053 0.110616 0.195792
-0.000420277 -0.000827622 -0.00101034
3.96177e-06 -0.000191234 0.00282381
-0.00522788 0.0345887 0.190934
0.000164792 -0.000143157 0.00330891
0.311763 0.288296 0.138566
0.232764 -0.131758 0.832937
0 0 0
0 0 0
0.00023025 -0.0303026 -0.00145063
-0.00187697 0.000225526 0.0245929
0 0 0
0.0172895 0.0351077 0.255841
0.0634934 0.105691 0.185011
0.00226438 0.000314255 0.040893
-0.000158893 -0.000150643 0.00331248
-0.000225712 0.0432477 0.231496
-0.000700686 0.00698218 0.0114698
0 0 0
0 0 0
-1.35368e-05 0.000536797 0.00180258
-0.0109611 -0.00909292 0.0751325
-7.81572e-07 1.61638e-08 1.13695e-05
-3.49306e-06 0.00115601 0.00300217
-7.76811e-05 0.00432749 0.0155993
7.61522e-05 0.00152811 0.0373863
0 0 0
0.0293202 0.139657 0.404265
-0.00784775 0.0163891 0.174393
-0.000146698 0.0577526 0.0993402
0.00010488 0.0188558 0.0790911
2.00926e-05 0.000599856 0.0134763
-5.84012e-08 -2.93027e-07 9.38236e-06
0 0 0
0.000530312 0.00538066 0.00878897
1.67299e-05 9.77509e-05 0.000398193
0 0 0
0 0 0
1.94926e-05 0.00136607 0.00483109
0.00783095 0.014238 0.148437
-0.0296685 0.130019 0.372354
0 0 0
-0.0138108 -0.00778532 0.0664422
0.0370714 0.0947023 0.24125
0.000412849 0.00428146 0.0207261
-0.000717167 0.00741949 0.00928824
0.0246364 0.0905827 0.318619
-0.000273472 0.0027404 0.00542523
0.0215611 0.0564717 0.148408
0 0 0
0 0 0