# vtk DataFile Version 2.0
tet_velo
ASCII
DATASET UNSTRUCTURED_GRID
POINTS 29498 float
-0.760185 0.135 -1.975
-0.699534 0.235 2.175
-0.709869 0.915 -1.935
-0.645 1.385 1.88288
0.751779 0.145 -1.985
0.70707 0.245 2.175
0.705 0.915 -1.93617
0.645 1.385 1.87938
-0.755237 0.153064 -0.591667
-0.77477 0.146648 0.791667
-0.758759 1.14218 -0.662373
-0.721216 1.28293 0.610253
0.75792 0.15729 -0.598333
0.784193 0.149447 0.788333
0.752356 1.13902 -0.66432
0.716982 1.28032 0.60753
-1.50978 -0.439968 -2.99351
-1.50605 -0.353837 -1.93095
-1.5 -0.343307 -0.544442
-1.49331 -0.369339 0.864398
-1.44814 -0.316453 2.2528
-1.43379 -0.24071 3.32462
-1.43728 -0.158877 4.37945
-1.50833 0.0130462 -3.01208
-1.50559 0.122382 -1.96191
-1.50297 0.168459 -0.597415
-1.48988 0.171962 0.776942
-1.42082 0.24084 2.14361
-1.41679 0.31689 3.21391
-1.4297 0.39542 4.2725
-1.48887 0.874894 -3.01902
-1.4756 0.980295 -1.96541
-1.49597 1.16004 -0.676642
-1.45344 1.28074 0.604281
-1.38016 1.37673 1.89531
-1.39677 1.44523 2.96982
-1.4231 1.51211 4.04619
-1.47923 2.31253 -3.11286
-1.47421 2.43933 -2.07535
-1.47958 2.65045 -0.823129
-1.47087 2.8519 0.405138
-1.44987 2.99869 1.65877
-1.44378 3.0828 2.69923
-1.44831 3.1522 3.76327
-0.765799 -0.430816 -3.00344
-0.757168 -0.340102 -1.94419
-0.749111 -0.347631 -0.54533
-0.759143 -0.388082 0.87688
-0.730028 -0.325137 2.27627
-0.720251 -0.245731 3.34008
-0.723068 -0.161982 4.38774
-0.768503 0.0130429 -3.01662
-0.71085 0.314591 3.22628
-0.720084 0.3941 4.27836
-0.751506 0.846955 -3.00698
-0.69665 1.44901 2.96597
-0.718169 1.5146 4.04413
-0.739231 2.29044 -3.10096
-0.732604 2.41676 -2.06199
-0.743024 2.64079 -0.815713
-0.747531 2.85548 0.402371
-0.738167 3.00668 1.6493
-0.734318 3.08986 2.68977
-0.737007 3.15753 3.75595
0.731421 -0.425157 -3.01039
0.751701 -0.332889 -1.95242
0.764563 -0.343511 -0.551541
0.767292 -0.384788 0.873322
0.715276 -0.318363 2.27482
0.70501 -0.240482 3.33811
0.704395 -0.158235 4.38518
0.721278 0.0186897 -3.02336
0.691643 0.319921 3.22447
0.695536 0.397675 4.27582
0.709437 0.849423 -3.011
0.667868 1.45122 2.96318
0.682686 1.51701 4.0413
0.733844 2.29142 -3.10457
0.741032 2.41699 -2.06523
0.73074 2.64027 -0.81886
0.702124 2.85492 0.399153
0.680352 3.00676 1.64603
0.678155 3.0906 2.68653
0.681914 3.15875 3.75273
1.48158 -0.430463 -3.00623
1.50151 -0.343362 -1.9447
1.51447 -0.336565 -0.555645
1.51065 -0.36372 0.856957
1.45451 -0.307235 2.2481
1.43056 -0.232187 3.31985
1.42622 -0.152041 4.37401
1.47228 0.0222282 -3.02433
1.49624 0.132985 -1.97562
1.50829 0.174071 -0.608376
1.50672 0.17614 0.769707
1.43793 0.250022 2.13925
1.41299 0.325131 3.20928
1.41395 0.401901 4.26711
1.45666 0.879936 -3.02783
1.46798 0.983568 -1.97306
1.49233 1.15951 -0.683816
1.45618 1.27981 0.597681
1.38698 1.37894 1.8891
1.38247 1.44948 2.96409
1.39606 1.51669 4.04037
1.47108 2.3147 -3.12034
1.4769 2.44024 -2.08226
1.4675 2.65006 -0.82977
1.43429 2.85139 0.398526
1.40261 2.99923 1.65218
1.39504 3.08445 2.69271
1.39825 3.15471 3.7568
-0.796516 0.525 -2.01649
-0.00420299 0.11163 -2.00837
-0.793763 0.10798 -1.28333
-0.728555 0.81 2.08523
0.003768 0.194352 2.22065
-0.776231 0.151745 1.48333
-0.00243452 0.959803 -1.98039
-0.719717 1.01399 -1.29869
0 1.40889 1.90502
-0.698837 1.34969 1.24657
0.786702 0.53 -2.0189
0.781605 0.124389 -1.29167
0.731972 0.815 2.08313
0.783503 0.159352 1.48167
0.715619 1.01395 -1.30025
0.695573 1.34724 1.24346
-0.753898 0.160962 0.1
-0.867027 0.647622 -0.62702
0.00134101 0.14814 -0.595
-0.873621 0.714787 0.70096
0.00471134 0.140949 0.79
-0.739347 1.21191 -0.02606
-0.00320131 1.40729 -0.663347
-0.00211707 1.59091 0.608892
0.761696 0.162728 0.095
0.860066 0.648156 -0.631327
0.868914 0.714881 0.697932
0.734109 1.20911 -0.028395
-0.864547 0.586311 -1.29101
-0.871789 0.681204 0.03697
-0.88228 0.762394 1.36495
-0.00143099 0.110427 -1.2875
0.00302618 0.157481 0.0975
0.00423967 0.149965 1.4825
-0.00331876 0.5275 -2.22167
0.001884 0.8125 2.11234
-0.00281792 1.05413 -1.29947
-0.00265919 1.55965 -0.0272275
-0.00105854 1.58271 1.24501
0.87375 0.589078 -1.29596
0.865921 0.681519 0.0333025
0.887837 0.764941 1.36256
-1.13289 0.128691 -1.96846
-0.758677 -0.102551 -1.9596
-0.764344 0.0740214 -2.49581
-1.06018 0.23792 2.1593
-0.714781 -0.0450687 2.22564
-0.705192 0.274796 2.70064
-1.09274 0.947648 -1.95021
-0.730687 0.880977 -2.47099
-0.721237 1.66588 -1.99849
-1.01258 1.38086 1.88909
-0.670825 1.41701 2.42443
-0.691584 2.19584 1.76609
0.75174 -0.0939446 -1.96871
0.736529 0.0818449 -2.50418
1.12401 0.138993 -1.98031
0.711173 -0.0366817 2.22491
0.699356 0.282461 2.69973
1.0725 0.247511 2.15713
0.707218 0.882212 -2.47358
0.723016 1.66599 -2.0007
1.08649 0.949284 -1.95462
0.656434 1.41811 2.42128
0.662676 2.19588 1.76271
1.01599 1.38197 1.88424
-1.1291 0.160761 -0.594541
-0.752174 -0.0972838 -0.568499
-1.13232 0.159305 0.784304
-0.766956 -0.120717 0.834273
-1.12736 1.15111 -0.669508
-0.750891 1.89149 -0.739043
-1.08733 1.28183 0.607267
-0.734374 2.0692 0.506312
0.761241 -0.0931107 -0.574937
1.13311 0.16568 -0.603355
0.775742 -0.11767 0.830828
1.14546 0.162793 0.77902
0.741548 1.88964 -0.74159
1.12234 1.14927 -0.674068
0.709553 2.06762 0.503342
1.08658 1.28006 0.602606
-1.50791 -0.396903 -2.46223
-1.50906 -0.213461 -3.00279
-1.13779 -0.435392 -2.99847
-1.50302 -0.348572 -1.2377
-1.50582 -0.115728 -1.94643
-1.13161 -0.34697 -1.93757
-1.49666 -0.356323 0.159978
-1.50149 -0.0874242 -0.570929
-1.12456 -0.345469 -0.544886
-1.47073 -0.342896 1.5586
-1.49159 -0.0986883 0.82067
-1.12623 -0.37871 0.870639
-1.44097 -0.278581 2.78871
-1.43448 -0.0378062 2.1982
-1.08909 -0.320795 2.26454
-1.43553 -0.199793 3.85203
-1.42529 0.0380903 3.26927
-1.07702 -0.24322 3.33235
-1.43349 0.118271 4.32597
-1.08017 -0.160429 4.38359
-1.50696 0.0677141 -2.48699
-1.4986 0.44397 -3.01555
-1.13842 0.0130446 -3.01435
-1.50428 0.14542 -1.27966
-1.4906 0.551339 -1.96366
-1.49642 0.17021 0.0897635
-1.49947 0.664252 -0.637028
-1.45535 0.206401 1.46028
-1.47166 0.726352 0.690612
-1.41881 0.278865 2.67876
-1.40049 0.808783 2.01946
-1.42324 0.356155 3.7432
-1.40678 0.88106 3.09186
-1.06382 0.315741 3.2201
-1.4264 0.953767 4.15934
-1.07489 0.39476 4.27543
-1.48224 0.927595 -2.49222
-1.48405 1.59371 -3.06594
-1.12019 0.860924 -3.013
-1.48579 1.07017 -1.32103
-1.47491 1.70981 -2.02038
-1.4747 1.22039 -0.0361803
-1.48777 1.90525 -0.749885
-1.4168 1.32873 1.2498
-1.46216 2.06632 0.50471
-1.38846 1.41098 2.43256
-1.41502 2.18771 1.77704
-1.40993 1.47867 3.508
-1.42027 2.26401 2.83452
-1.04671 1.44712 2.96789
-1.43571 2.33216 3.90473
-1.07064 1.51336 4.04516
-1.47672 2.37593 -2.5941
-1.10923 2.30148 -3.10691
-1.47689 2.54489 -1.44924
-1.10341 2.42804 -2.06867
-1.47523 2.75118 -0.208995
-1.1113 2.64562 -0.819421
-1.46037 2.9253 1.03195
-1.1092 2.85369 0.403755
-1.44683 3.04074 2.179
-1.09402 3.00269 1.65403
-1.44605 3.1175 3.23125
-1.08905 3.08633 2.6945
-1.09266 3.15486 3.75961
-0.761484 -0.385459 -2.47381
-0.767151 -0.208887 -3.01003
-0.0171889 -0.427986 -3.00691
-0.75314 -0.343867 -1.24476
-0.00273357 -0.336495 -1.9483
-0.754127 -0.367857 0.165775
0.00772564 -0.345571 -0.548436
-0.744585 -0.35661 1.57658
0.00407463 -0.386435 0.875101
-0.725139 -0.285434 2.80818
-0.00737587 -0.32175 2.27555
-0.721659 -0.203856 3.86391
-0.715551 0.0344302 3.28318
-0.00762058 -0.243106 3.3391
-0.721576 0.116059 4.33305
-0.00933625 -0.160109 4.38646
-0.760004 0.429999 -3.0118
-0.0236122 0.0158663 -3.01999
-0.715467 0.354346 3.75232
-0.70375 0.881803 3.09612
-0.00960391 0.317256 3.22537
-0.719127 0.954351 4.16125
-0.0122744 0.395888 4.27709
-0.745368 1.56869 -3.05397
-0.0210344 0.848189 -3.00899
-0.70741 1.48181 3.50505
-0.715484 2.26944 2.82787
-0.014391 1.45012 2.96458
-0.727588 2.33606 3.90004
-0.0177415 1.51581 4.04272
-0.735918 2.3536 -2.58147
-0.0026937 2.29093 -3.10276
-0.737814 2.52877 -1.43885
0.0042141 2.41687 -2.06361
-0.745277 2.74813 -0.206671
-0.00614152 2.64053 -0.817286
-0.742849 2.93108 1.02583
-0.0227033 2.8552 0.400762
-0.736243 3.04827 2.16953
-0.0289079 3.00672 1.64766
-0.735663 3.12369 3.22286
-0.0280816 3.09023 2.68815
-0.0275466 3.15814 3.75434
0.741561 -0.379023 -2.4814
0.72635 -0.203233 -3.01688
1.1065 -0.42781 -3.00831
0.758132 -0.3382 -1.25198
1.12661 -0.338126 -1.94856
0.765927 -0.364149 0.160891
1.13952 -0.340038 -0.553593
0.741284 -0.351576 1.57407
1.13897 -0.374254 0.86514
0.710143 -0.279423 2.80647
1.0849 -0.312799 2.26146
0.704702 -0.199359 3.86165
0.698326 0.0397195 3.28129
1.06779 -0.236335 3.32898
0.699965 0.11972 4.3305
1.06531 -0.155138 4.37959
0.715357 0.434056 -3.01718
1.09678 0.0204589 -3.02385
0.693589 0.358798 3.75015
0.679755 0.885572 3.09383
1.05232 0.322526 3.21688
0.689111 0.957344 4.15856
1.05474 0.399788 4.27147
0.72164 1.57042 -3.05778
1.08305 0.86468 -3.01941
0.675277 1.48412 3.50224
0.673012 2.27091 2.82486
1.02517 1.45035 2.96363
0.6823 2.33788 3.89702
1.03937 1.51685 4.04083
0.737438 2.3542 -2.5849
1.10246 2.30306 -3.11246
0.735886 2.52863 -1.44205
1.10896 2.42861 -2.07374
0.716432 2.74759 -0.209853
1.09912 2.64516 -0.824315
0.691238 2.93084 1.02259
1.06821 2.85316 0.39884
0.679253 3.04868 2.16628
1.04148 3.00299 1.64911
0.680034 3.12468 3.21963
1.0366 3.08752 2.68962
1.04008 3.15673 3.75476
1.49155 -0.386913 -2.47547
1.47693 -0.204117 -3.01528
1.50799 -0.339964 -1.25017
1.49888 -0.105189 -1.96016
1.51256 -0.350143 0.150656
1.51138 -0.0812475 -0.58201
1.48258 -0.335478 1.55253
1.50868 -0.0937902 0.813332
1.44254 -0.269711 2.78397
1.44622 -0.0286065 2.19368
1.42839 -0.192114 3.84693
1.42178 0.0464722 3.26457
1.42009 0.12493 4.32056
1.48426 0.0776067 -2.49998
1.46447 0.451082 -3.02608
1.50227 0.153528 -1.292
1.48211 0.558276 -1.97434
1.5075 0.175105 0.0806656
1.50031 0.666791 -0.646096
1.47232 0.213081 1.45448
1.48145 0.727976 0.683694
1.42546 0.287577 2.67427
1.41246 0.814483 2.01418
1.41347 0.363516 3.7382
1.39773 0.887304 3.08669
1.405 0.959297 4.15374
1.46232 0.931752 -2.50045
1.46387 1.59732 -3.07408
1.48016 1.07154 -1.32844
1.47244 1.7119 -2.02766
1.47425 1.21966 -0.0430674
1.47991 1.90478 -0.756793
1.42158 1.32938 1.24339
[...]
POINT_DATA 29498
VECTORS point_vectors float
-0.572542 -0.65098 1.49749
-0.0147378 0.201644 0.666107
-1.57872 1.49245 3.28745
0.135813 -0.0567847 0.404748
1.29875 -2.18055 5.79774
0.000182645 0.097048 0.357267
2.09254 1.8835 4.18747
-0.145895 -0.0514263 0.405219
0.0188118 0.00249145 0.216646
-0.114904 -0.0525479 1.22659
-0.146192 -0.100287 0.600448
0.000942078 0.00278408 0.0125837
-0.0170738 0.003735 0.245841
0.0740208 -0.0842698 1.02621
0.165788 -0.117633 0.531249
-0.000580405 0.00180984 0.008216
-0.721624 -0.47869 19.971
-1.13705 -0.849867 20.8868
-0.310248 -0.367152 21.6115
0.0650086 -0.0641864 21.7465
0.459699 0.285889 21.7275
0.770756 0.548972 21.372
0.947052 0.369252 20.8932
-0.965358 -0.396039 19.7673
-1.90454 -0.827123 20.8373
-0.555626 -0.605276 21.7379
-7.6581e-05 -0.28098 21.8835
0.761869 0.0732394 21.8488
1.20633 0.142018 21.6357
1.36888 0.22515 21.2928
-1.08218 0.164602 19.5639
-2.34964 0.402431 20.5321
-1.58779 -0.17547 21.6821
-0.573262 -0.2797 22.0516
0.22834 -0.457645 22.0448
0.748496 -0.618028 21.7505
0.843632 -0.925462 21.2429
-0.408961 0.366968 20.0379
-0.622655 0.557136 20.4233
-0.604815 0.463275 21.1027
-0.366922 0.163877 21.546
-0.0864817 -0.0927961 21.5299
0.0231234 -0.192876 21.5466
0.189107 -0.199693 21.2282
-0.693516 -0.973848 19.462
-1.37643 -2.63937 21.3838
-0.214887 -0.248103 21.9686
-0.0519938 0.0375511 21.9108
0.115033 0.713964 21.5989
0.364018 0.935131 21.6503
0.854496 1.2284 19.8294
-1.05377 -0.914186 18.7856
0.103717 2.13957 9.15403
2.52671 1.3345 11.6568
-1.28992 0.470508 18.2274
1.07393 -0.394149 11.0231
1.41345 -1.55903 16.2782
-0.340948 0.626329 19.8595
-0.545904 1.05746 20.2731
-0.571732 1.01877 21.1476
-0.278738 0.378939 21.6903
-0.0766425 -0.0377656 21.758
0.0360488 -0.254101 21.6655
0.165812 -0.267535 21.291
0.661787 -1.00062 19.4184
1.4017 -2.69384 21.3429
0.205801 -0.235306 21.9623
0.0229442 0.0266552 21.91
-0.0972859 0.714295 21.5958
-0.306849 0.955948 21.7037
-0.832322 1.28855 19.5637
1.00082 -0.927038 18.6867
0.100721 2.02745 8.4327
-2.59838 1.34975 10.8303
1.2265 0.506297 18.1487
-1.06105 -0.307956 10.2862
-1.44077 -1.58386 15.8556
0.338654 0.624303 19.8561
0.54786 1.04889 20.2744
0.564647 1.02973 21.1395
0.268933 0.387779 21.6943
0.0656792 -0.0390939 21.7223
-0.0476763 -0.253643 21.5912
-0.153106 -0.260287 21.2214
0.72069 -0.498871 19.9454
1.16076 -0.865345 20.887
0.321489 -0.366826 21.6154
-0.0701226 -0.0815157 21.7412
-0.458206 0.277323 21.7315
-0.79807 0.513102 21.3698
-0.94495 0.3905 20.901
0.989211 -0.390604 19.711
1.9793 -0.846108 20.8108
0.559112 -0.604264 21.7357
0.0304085 -0.292556 21.8644
-0.749364 0.0559009 21.8206
-1.2011 0.137876 21.6408
-1.39417 0.250295 21.2809
1.08803 0.176284 19.5391
2.36888 0.430455 20.5182
1.5836 -0.172287 21.6823
0.582892 -0.264605 22.0354
-0.217691 -0.447488 22.0299
-0.736121 -0.620883 21.776
-0.914725 -0.933596 21.2976
0.407058 0.368257 20.0333
0.618087 0.553069 20.4219
0.606599 0.468969 21.0967
0.37152 0.1701 21.5485
0.104156 -0.0876301 21.5772
-0.0197032 -0.173762 21.5941
-0.189697 -0.197898 21.2283
-1.5542 -0.107735 2.10485
0.00656057 -0.23585 1.22353
0.0227362 0.0184674 0.84448
-0.053266 0.0753305 -0.01206
-0.00815659 -0.107988 -0.0439209
-0.0903139 0.0804845 1.4933
-0.00119398 0.038268 0.114172
-0.396989 -0.0754873 0.639183
0 0 0
0.00253425 0.00440197 0.0400826
3.29074 -0.31285 4.92819
-0.0167141 0.0194569 0.350279
0.0312452 0.0541953 -0.00289952
0.0440673 0.0296555 0.77738
0.378586 -0.0767651 0.634354
-0.00208993 0.00366404 0.0355019
0.00440211 0.00217714 0.276097
0 0 0
0 0 0
0 0 0
-0.00026406 -0.0306699 0.229563
0.00698342 0.0264876 0.0656089
0.000533038 0.120171 0.161503
6.87902e-05 0.000643255 0.0211431
-0.00927628 0.00366615 0.427047
0 0 0
0 0 0
-0.00680625 0.0282957 0.074552
-6.49546e-05 -0.000567212 0.0030903
0 0 0
0.00120501 0.00408403 0.0385206
0 0 0
0 0 0
4.02528e-07 7.49993e-06 0.000798902
0.00280748 0.2333 0.183786
0 0 0
0.000152681 0.00157036 0.00692584
-0.000108649 0.0138973 0.187583
2.02545e-05 -0.000112944 0.0051965
0.000925169 -0.00586768 0.0324178
0 0 0
-0.00425684 0.00810832 0.0873803
-3.42825 -2.00863 21.1178
-2.43609 -4.30919 21.8437
-2.70368 -2.67226 17.7821
1.01591 0.840949 17.362
-0.0208733 1.12512 16.3542
-0.544814 1.54204 5.97039
-4.24903 1.38421 20.5224
-3.45658 2.0466 16.5474
-1.50524 2.27033 19.9385
0.402829 -0.367643 19.0755
0.523479 0.212092 6.02945
-0.117702 -0.196666 22.0767
2.48719 -4.53875 21.84
2.68389 -2.74241 17.6044
3.61691 -2.09364 21.0069
0.0682505 1.1262 15.9248
0.663466 1.57938 5.55992
-1.026 0.798262 17.5453
3.40233 2.12094 16.4123
1.50513 2.26057 19.9382
4.28723 1.46744 20.4605
-0.507444 0.251237 5.52008
0.115 -0.183105 22.0805
-0.382278 -0.394674 19.4372
-0.0784356 -0.8992 20.8591
0.142017 0.135898 18.6889
0.116658 -0.194687 19.8587
0.11661 0.134421 19.0652
-2.81847 -0.545807 22.0254
-1.88482 2.23383 21.3163
-0.869 -0.455054 20.7895
-0.721855 0.663521 22.24
-0.121052 0.162883 18.8545
0.0467712 -0.866099 20.8271
-0.11932 0.111894 19.1917
-0.0686471 -0.264371 20.0955
1.88761 2.25001 21.31
2.78573 -0.566312 21.9994
0.709546 0.694758 22.251
0.893965 -0.459452 20.9754
-1.03707 -0.725117 20.2908
-0.828442 -0.441845 19.8803
-0.767173 -0.696389 19.7492
-0.702083 -0.6044 21.4938
-1.49239 -0.891898 20.854
-1.42999 -1.55715 21.0542
-0.0940288 -0.218788 21.6897
-0.397653 -0.486755 21.6611
-0.178835 -0.381942 21.7304
0.265541 0.126283 21.8051
0.05625 -0.151596 21.7795
0.0768022 0.0071632 21.8809
0.5648 0.417396 21.7471
0.620662 0.223285 21.8298
0.441466 0.570361 21.8015
0.858199 0.433933 21.317
1.0229 0.312879 21.6547
0.711148 0.737577 21.5151
1.19952 0.331143 21.215
0.936623 1.04657 21.3795
-1.59079 -0.642763 20.0207
-1.10569 -0.174197 19.5708
-1.0797 -0.618299 19.3413
-1.17457 -0.74901 21.6563
-2.43409 -0.278901 20.715
-0.233858 -0.440894 21.7903
-1.09851 -0.607091 21.8066
0.343231 -0.104057 22.0069
-0.25812 -0.366303 22.0378
0.971366 0.18062 21.7306
0.682547 -0.332614 21.7837
1.58131 0.206407 21.4368
1.22971 -0.287916 21.6996
1.37531 0.964646 17.8342
1.32592 -0.515881 21.0047
1.97685 0.887956 18.8988
-1.87571 0.327415 19.7505
-0.708251 0.421719 19.8186
-1.25061 0.305512 19.046
-1.97371 0.122763 21.2625
-1.28355 0.788713 20.365
-1.06381 -0.297408 21.9762
-1.26249 0.587465 21.3287
-0.17218 -0.343446 22.0952
-0.574332 0.149492 21.7959
0.506254 -0.541691 21.8693
-0.0327097 -0.21128 21.7988
0.964239 -0.679505 21.7921
0.247584 -0.392108 21.6392
0.874307 -0.792545 20.2594
0.371728 -0.503415 21.2842
1.16066 -1.23452 21.2868
-0.538512 0.471097 20.2085
-0.400453 0.4916 19.9541
-0.645 0.544948 20.7692
-0.613037 0.821814 20.3626
-0.518549 0.345976 21.3152
-0.651273 0.762247 21.1363
-0.230535 0.022228 21.5572
-0.403621 0.287776 21.6559
-0.0518448 -0.146298 21.6047
-0.138588 -0.0390081 21.8705
0.110461 -0.222711 21.4479
0.00736776 -0.238218 21.9705
0.18588 -0.290732 21.5637
-1.20893 -2.01273 19.7255
-0.877685 -1.04985 19.1431
-0.0241996 -1.36815 19.0918
-0.581848 -0.964052 22.2002
-0.00834253 -3.54637 21.871
-0.0893359 -0.0772278 21.8707
0.00459864 -0.371414 22.089
0.035251 0.352504 21.8126
0.0100747 -0.107794 21.791
0.137698 0.757681 21.5159
-0.0125957 0.317338 20.6886
0.915614 1.89243 20.138
0.212663 1.81669 15.8361
-0.0200968 0.668222 21.0463
1.44443 1.44002 15.4727
-0.0020816 1.8016 14.1201
-1.34688 -0.358842 18.1741
-0.0667847 -1.37485 18.0152
1.64857 1.38269 10.1313
0.603365 1.41446 4.7524
-0.0388594 -2.31708 -5.98329
2.34183 -0.399691 9.89696
0.0767897 0.31479 1.85647
-0.653725 0.859235 19.2468
-0.0656891 0.734414 17.222
1.30488 -1.16342 15.15
0.145791 -0.653113 21.8902
0.0223555 -0.1037 2.54408
0.185025 -0.961089 20.5941
0.0562409 -1.29365 6.83616
-0.460874 0.870896 20.0181
-0.00016781 0.735155 19.7216
-0.585282 1.11675 20.718
0.0056827 1.35336 20.1686
-0.436369 0.721713 21.4759
-0.00292048 1.34551 21.1401
-0.174356 0.112435 21.7752
-0.0171788 0.546336 21.8221
-0.0585964 -0.177027 21.8101
-0.00609634 0.0290326 21.9684
0.0643403 -0.257871 21.63
0.00179657 -0.28608 22.1032
0.000880592 -0.380994 21.5806
1.19136 -2.03791 19.6879
0.855283 -1.05984 19.0865
0.72909 -0.711793 19.7337
0.583672 -0.968765 22.2176
1.45462 -1.60629 21.0226
0.0759973 -0.0737595 21.866
0.181064 -0.394103 21.7157
-0.033748 0.364231 21.8229
-0.0895206 -0.0118751 21.8711
-0.1077 0.728178 21.4421
-0.447838 0.574073 21.7927
-0.858064 1.87266 19.9357
-0.0897564 1.8156 15.515
-0.706041 0.757524 21.543
-1.393 1.50194 15.1624
-0.927903 1.07448 21.4189
1.31022 -0.361086 18.0663
1.08936 -0.646861 19.2818
-1.6307 1.36923 9.43702
-0.518049 1.35959 4.27406
-1.35341 1.01206 17.5246
-2.30322 -0.444445 8.94848
-2.01606 0.922045 18.568
0.640279 0.868766 19.2317
1.23425 0.31233 18.9955
-1.2949 -1.16587 14.771
-0.142806 -0.643675 21.8625
-0.873848 -0.760101 19.9821
-0.179033 -0.959233 20.647
-1.16237 -1.25421 21.3226
0.460695 0.867466 20.0175
0.397344 0.491323 19.9525
0.580968 1.12076 20.713
0.610637 0.816197 20.3597
0.420478 0.747223 21.4735
0.644592 0.764585 21.1336
0.157453 0.116528 21.7322
0.387884 0.305333 21.6661
0.0494351 -0.177659 21.7586
0.133955 -0.0319226 21.8911
-0.0428135 -0.255804 21.5808
-0.00996873 -0.240562 22.0317
-0.186207 -0.292109 21.5516
1.05667 -0.737027 20.2837
0.836313 -0.453426 19.8456
0.718207 -0.611645 21.4991
1.53276 -0.916914 20.8519
0.0973689 -0.228925 21.6885
0.414848 -0.494555 21.6505
-0.270551 0.112323 21.7957
-0.0469927 -0.163329 21.7767
-0.586532 0.396992 21.7803
-0.616973 0.226168 21.7981
-0.86564 0.43274 21.338
-1.02342 0.325211 21.657
-1.20766 0.351944 21.2363
1.63541 -0.656168 19.97
1.11199 -0.185748 19.5304
1.21835 -0.763792 21.6708
2.50509 -0.258167 20.6876
0.243218 -0.440506 21.7682
1.09241 -0.602408 21.8049
-0.3283 -0.1249 22.0128
0.296271 -0.357451 22.0246
-0.961043 0.168826 21.7348
-0.657869 -0.338565 21.8117
-1.6139 0.218707 21.414
-1.224 -0.296424 21.6906
-1.3663 -0.501594 20.891
1.89271 0.348495 19.716
0.702649 0.431437 19.8116
1.98684 0.145211 21.2809
1.27513 0.791183 20.3608
1.06523 -0.290415 21.9622
1.26706 0.595318 21.3198
0.180895 -0.322211 22.0872
0.580211 0.160583 21.7999
-0.499397 -0.532896 21.8846
0.0404468 -0.199815 21.804
-0.970999 -0.712445 21.8089
-0.233613 -0.394932 21.6402
-0.32913 -0.51222 21.4539
0.532449 0.47121 20.2051
0.644241 0.548133 20.7666
0.520947 0.351982 21.309
0.233895 0.016783 21.5702
0.050073 -0.145646 21.6644
-0.123477 -0.20901 21.4726
-1.28939 -0.734713 20.1574
-1.83113 -2.54838 19.0183
-1.2333 -1.26015 20.0765
-2.28394 -1.33554 19.3332
-0.906711 -0.691174 19.5721
-2.20685 -1.93836 21.1142
-0.902489 -0.694582 21.5633
-0.496674 -0.703974 21.3747
-0.660234 -0.829126 21.8128
-1.11361 -1.3475 22.3521
-0.0543778 -0.522558 21.8631
-0.142802 -0.318086 21.7219
0.211987 0.142431 18.478
-0.0294812 -0.161269 21.7856
0.0909241 -0.516049 19.9904
0.179001 -0.0857283 21.7007
0.309908 0.0300907 21.8634
0.0659493 0.519495 17.9636
0.26051 0.265805 21.9051
0.451603 0.319545 18.9019
0.746408 0.761722 20.8739
0.80352 0.357009 21.6856
-0.0269456 1.27988 15.9202
0.510954 0.679258 21.7272
1.164 0.899243 18.1633
1.32655 1.07632 21.3373
1.33921 0.375743 21.073
0.70168 1.81691 16.0212
1.00084 1.07405 21.3603
2.13402 1.10104 18.7725
1.31595 1.06132 20.5774
-1.92167 -0.228435 19.8026
-4.05445 -0.670584 15.8282
-2.71809 0.891141 18.8073
-1.32899 -0.222477 19.0113
-5.06326 -0.562788 20.8987
-1.75101 -0.495495 21.6061
-3.05235 0.0470156 21.5976
-1.05402 -1.22289 20.258
-0.623531 -0.496744 21.9563
-1.68167 -0.697371 21.7869
-0.057457 -0.100516 17.5385
0.169067 -0.322239 22.0242
-0.229187 -0.331147 19.9893
0.997004 0.218583 14.6789
0.924308 -0.330539 21.7378
-0.395591 2.00661 1.86133
0.608939 -0.594107 19.8813
1.52296 -0.0408559 17.5419
1.60461 -0.399037 21.2407
1.89808 0.140132 7.40759
1.19209 -1.22927 21.142
2.37376 -0.401193 19.0189
-1.01004 0.622681 20.0132
-1.11912 1.63651 19.2969
-0.523664 0.692617 20.1102
-0.761506 0.647197 19.547
-1.5456 1.40397 20.1774
-1.35512 0.727886 20.8613
-1.68424 2.161 20.5143
-0.680063 0.841218 20.7642
-1.64504 1.14994 21.3783
-0.95497 0.372314 21.6819
-1.34689 1.44502 22.2329
-0.514352 0.513899 21.3819
-0.693462 0.333672 22.0332
-0.275159 -0.0398737 21.8423
-0.351347 0.181266 22.167
-0.257985 0.0645485 21.8766
-0.0772259 -0.231899 21.953
0.137484 -0.333738 21.7354
0.0147741 -0.43703 21.9594
-0.0726525 -0.170185 22.0363
0.212555 -0.518616 21.7129
0.358778 -0.437676 21.4514
0.199311 -0.634314 21.3332
0.127932 -0.266587 21.8675
0.297976 -0.660184 21.6805
1.80532 -2.61097 18.9324
-0.0172642 -2.96535 19.3653
-0.0671123 -4.81702 15.6641
-0.0313217 -1.44417 18.6021
-0.0235838 -5.4998 23.4398
0.449198 -0.641553 20.9386
0.00293794 -1.19051 22.5699
0.0117249 -0.00906306 15.5452
-0.194836 0.144805 18.5672
0.00143773 -0.180577 21.8242
-0.00500239 -0.0734875 15.4742
-0.0439135 0.527854 17.8426
-0.00501694 0.126734 21.2631
-0.0212934 0.196245 11.8218
0.111232 1.25069 15.4003
-0.0175586 0.225258 20.2857
-0.0443344 -1.58037 -5.05874
-0.0728825 0.0808639 6.18204
-0.663191 1.85554 15.6644
-0.0217612 1.30265 18.3416
0.0719776 -1.66202 -4.3066
0.0645555 1.96606 9.20549
4.01365 -0.666718 15.6169
-0.0652185 3.91955 13.567
-0.0512795 -0.460018 17.0524
0.403589 2.09239 1.69784
-0.00176246 0.667944 0.977264
0.0948915 -1.43957 -5.12525
-1.82092 0.132449 6.49901
0.0454044 -1.1588 4.68151
0.105244 -1.34727 -5.08637
1.10492 1.64308 19.2905
0.00176914 1.10454 19.8647
-0.01098 1.15995 18.9247
0.00784664 3.22477 19.6307
1.68042 2.15723 20.5175
-0.000429003 1.43889 20.6662
-0.00837554 3.65506 21.1171
1.34892 1.48848 22.2416
-0.0112826 0.932778 21.5365
-0.0137011 1.11783 22.4461
0.345283 0.198167 22.1757
-0.0131888 0.194545 22.0986
-0.00904967 -0.0806254 22.1689
-0.0121784 -0.422833 21.9521
-0.00938027 -0.215209 22.2657
0.00172004 -0.645055 21.6723
-0.187706 -0.643531 21.3748
0.00475695 -0.363836 22.089
0.00670972 -0.783917 21.4772
1.30811 -0.755055 20.1482
1.22414 -1.27265 20.0314
2.27723 -1.36394 19.2599
0.895388 -0.699854 19.5354
2.294 -2.01972 21.0605
0.940915 -0.710239 21.5675
0.674177 -0.84896 21.8131
1.16911 -1.40298 22.4082
0.0620098 -0.510875 21.8634
0.157798 -0.3306 21.7043
0.022156 -0.170198 21.7713
-0.0844882 -0.521604 20.049
-0.157452 -0.125184 21.73
-0.301279 0.0222923 21.8648
-0.260337 0.265901 21.9133
-0.470475 0.305115 19.0561
-0.748027 0.756599 20.8653
-0.798288 0.336543 21.6581
-0.517283 0.681892 21.7246
-1.15453 0.901679 18.0517
-1.33387 1.1024 21.2277
-1.36038 0.371988 21.0553
-1.00389 1.09921 21.364
-2.13209 1.16244 18.6316
-1.3335 1.08507 20.244
1.96588 -0.217257 19.7486
2.71208 0.923247 18.7269
1.31655 -0.214393 18.9485
5.22935 -0.485701 20.7373
1.79669 -0.483598 21.6282
3.06431 0.108156 21.6399
1.02502 -1.25234 20.2314
0.63725 -0.500031 21.9318
1.66762 -0.669106 21.7652
0.140799 -0.115129 17.6957
-0.143599 -0.319808 22.0487
0.225243 -0.285071 19.9572
-0.987703 0.162319 15.0369
-0.900251 -0.335532 21.7659
-0.603645 -0.58403 19.8738
-1.5089 -0.016074 17.1791
-1.61343 -0.396431 21.0981
-1.23072 -1.16804 20.6996
-2.39226 -0.376005 18.7219
1.00217 0.630731 20.011
0.52212 0.688683 20.1074
0.757745 0.653099 19.5341
1.53611 1.40079 20.174
1.34751 0.735552 20.8598
0.680135 0.838508 20.7625
1.64789 1.15888 21.3717
0.962308 0.379731 21.6811
0.506721 0.529939 21.3831
0.70078 0.352949 22.0363
0.284813 -0.0291848 21.8534
0.24798 0.0846625 21.9227
0.0801318 -0.224823 21.9618
-0.126705 -0.329675 21.7557
0.0635496 -0.175551 22.1076
-0.199976 -0.527759 21.7331
-0.341844 -0.452237 21.4334
-0.12353 -0.267398 21.8694
-0.295037 -0.672831 21.6651
-1.69748 -1.40098 19.7844
-0.78529 -1.03222 22.0665
0.111243 -0.289938 21.6884
0.438151 0.304599 21.5454
0.875691 0.912732 20.9774
1.56077 1.3008 21.0222
-3.02232 -0.380324 18.6995
-2.30466 -1.04923 22.1784
-0.378572 -0.714065 18.51
0.375743 0.221326 16.6126
1.08148 0.105219 15.9715
2.19009 -0.144064 18.4032
-1.20178 1.09436 19.6627
-1.66356 1.28934 20.7745
-1.19612 0.733735 21.9198
-0.337003 0.0328788 22.0276
0.0917031 -0.399647 21.8359
0.290471 -0.628543 21.3768
-0.0398684 -4.16912 18.1919
0.00753894 -0.783405 19.1361
0.000361075 0.0132819 15.024
-0.00505998 0.133491 13.9906
-0.0804776 -0.402787 8.16605
0.0489441 1.09869 5.95687
-0.0844548 -0.893003 11.5795
-0.014212 -0.621492 -3.0782
0.136044 -1.29743 -7.28963
-0.00694553 2.30905 18.8187
0.00163042 3.21664 20.1135
-0.0101952 2.30969 22.4249
-0.00964943 0.403017 22.2848
-0.008098 -0.328659 22.0094
0.00183264 -0.845267 21.7655
1.7234 -1.42375 19.697
0.814765 -1.06212 22.0956
-0.0964663 -0.304789 21.6945
-0.437524 0.290474 21.5658
-0.863688 0.927604 20.9425
-1.56694 1.35612 20.9078
3.03349 -0.359824 18.589
2.36696 -1.03201 22.1584
0.409695 -0.770032 18.5964
-0.366977 0.163419 16.9353
-1.06147 0.0892438 15.8443
-2.20447 -0.109498 18.0345
1.19018 1.09731 19.6563
1.65443 1.29225 20.7736
1.20391 0.75466 21.9176
0.340607 0.0463373 22.0321
-0.0845156 -0.396605 21.8478
-0.288109 -0.631663 21.3619
-0.737127 -0.150581 1.04734
-0.067986 -0.497007 1.72027
-0.00300556 -0.034072 0.847219
0.01931 0.013814 0.0681495
-0.13932 0.0570168 0.179024
-0.0368379 0.157592 0.736888
-0.936495 0.190871 1.07016
-0.0209892 0.147952 0.38527
-0.271843 -0.0267334 0.58825
0.0760958 0.00858276 0.267052
-1.71157e-05 7.5932e-05 -5.18325e-05
0.00578428 0.00662225 0.0736231
0.103101 -0.644748 2.36517
1.5539 -0.392479 2.38047
0.00540614 -0.00618145 0.417717
0.137404 0.0263482 0.0697986
-0.0092638 0.0142368 0.0398963
0.0177385 0.116232 0.503768
0.0204822 0.141865 0.372433
2.68292 0.710033 2.93188
0.229111 -0.0196011 0.564194
0 0 0
-0.0651534 0.0134545 0.23947
-0.002751 0.00405913 0.0467178
0.0794732 0.0447456 0.925446
0.00762386 0.000275775 0.189414
-4.44345e-05 0.00256238 0.0340139
0.00438271 4.42592e-05 0.0330822
-0.0402757 0.0263148 0.82665
-5.03752e-05 0.000795239 0.139167
-0.026327 0.0232004 0.157679
0.00103494 -0.0211989 0.177351
-0.331836 -0.115934 0.203297
-0.00106768 0.00630513 0.104025
0.000467981 0.00584025 0.0271385
-0.134101 0.170426 0.302587
0.00567478 0.0112057 0.0790824
0.0116322 0.0512819 0.20605
0 0 0
-5.60359e-06 -3.42183e-06 -8.9935e-05
-0.0539043 0.0387592 0.834593
-0.00516908 5.14053e-05 0.0400111
-0.00682407 -0.000575599 0.160648
0.000939529 0.00313089 0.0441488
0.0329467 0.0174425 0.628399
-0.00195638 -0.023273 0.191025
-0.0017098 0.000173932 0.148412
0.110847 0.0655633 0.409826
0.488144 -0.176859 0.314623
0.111459 0.139545 0.250322
0.0244979 0.0234419 0.578459
-0.00331056 0.0134617 0.0253892
-0.00455666 0.00951046 0.0666041
4.74487e-18 -2.98917e-18 -7.49128e-17
-0.012712 0.058863 0.228961
0 0 0
-0.00414503 -0.0036532 0.0481078
-0.45775 0.209643 0.26803
0 0 0
-0.0110547 -0.294345 0.125563
-0.000101618 -0.00107882 0.0121121
0.000417922 0.000115025 0.0120791
0.00295235 0.00114875 0.0278827
0 0 0
0 0 0
-0.0129967 0.114423 -0.0391673
8.19372e-05 0.00143614 0.0165599
-6.40797e-05 1.12337e-05 0.0013802
0.0760899 2.63486 1.18613
-0.00282773 0.0126715 0.0836504
-0.00481482 -0.0100457 0.0332087
-0.00270239 3.24213e-05 0.00157096
-0.000153284 0.0540926 -0.0143853
-0.000775077 -0.00188848 0.0678707
0 0 0
4.20562e-06 -7.93853e-07 6.4715e-05
0.522078 0.354007 0.303411
0.0224523 -0.0226837 0.219586
-0.000203853 7.00371e-05 0.00689746
0.00325622 -0.00573956 0.0765662
0 0 0
0 0 0
0 0 0
0 0 0
0.00204039 2.99777e-05 0.00126268
0.00350995 -0.00711141 0.0243351
0 0 0
0 0 0
-0.00409679 0.012739 0.119235
0.00463313 0.000677878 0.0924283
-0.000578912 -0.00676261 0.0352698
0 0 0
0.00072144 0.0219698 0.174404
0 0 0
0 0 0
0.00302296 0.0404195 0.341967
0 0 0
-1.04444e-07 1.6419e-06 0.000169948
0.00244343 0.00708271 0.0258714
0 0 0
0.000564114 -0.0163622 -0.015014
-0.00125094 0.0417451 0.228574
0.000287712 0.00585698 0.0957157
0.000207549 -0.000165802 0.0173389
-0.00596092 0.000837319 0.0995808
0.00402875 0.0129978 0.119123
0 0 0
0 0 0
0 0 0
-0.000436004 0.0190783 0.176773
-4.27199e-06 -1.35659e-05 -0.000209533
-0.00195577 0.00615158 0.0231955
-0.00306013 -0.00578925 0.0603291
-0.0924662 -0.0797796 0.490988
0 0 0
-0.0021722 -0.0108833 0.0485677
-0.00251247 0.00893865 0.0923725
0.0141149 0.0675221 0.226965
-0.0036298 0.00928332 0.0790878
0.0275541 0.0899211 0.313059
0.000508917 0.00131989 0.0164026
0.00496951 0.0123297 0.0847681