# vtk DataFile Version 2.0
tri_press
ASCII
DATASET UNSTRUCTURED_GRID
POINTS 3682 float
-0.760185 0.135 -1.975
-0.699534 0.235 2.175
-0.709869 0.915 -1.935
-0.645 1.385 1.88288
0.751779 0.145 -1.985
0.70707 0.245 2.175
0.705 0.915 -1.93617
0.645 1.385 1.87938
-0.755237 0.153064 -0.591667
-0.77477 0.146648 0.791667
-0.758759 1.14218 -0.662373
-0.721216 1.28293 0.610253
0.75792 0.15729 -0.598333
0.784193 0.149447 0.788333
0.752356 1.13902 -0.66432
0.716982 1.28032 0.60753
-1.50978 -0.439968 -2.99351
-1.50605 -0.353837 -1.93095
-1.5 -0.343307 -0.544442
-1.49331 -0.369339 0.864398
-1.44814 -0.316453 2.2528
-1.43379 -0.24071 3.32462
-1.43728 -0.158877 4.37945
-1.50833 0.0130462 -3.01208
-1.50559 0.122382 -1.96191
-1.50297 0.168459 -0.597415
-1.48988 0.171962 0.776942
-1.42082 0.24084 2.14361
-1.41679 0.31689 3.21391
-1.4297 0.39542 4.2725
-1.48887 0.874894 -3.01902
-1.4756 0.980295 -1.96541
-1.49597 1.16004 -0.676642
-1.45344 1.28074 0.604281
-1.38016 1.37673 1.89531
-1.39677 1.44523 2.96982
-1.4231 1.51211 4.04619
-1.47923 2.31253 -3.11286
-1.47421 2.43933 -2.07535
-1.47958 2.65045 -0.823129
-1.47087 2.8519 0.405138
-1.44987 2.99869 1.65877
-1.44378 3.0828 2.69923
-1.44831 3.1522 3.76327
-0.765799 -0.430816 -3.00344
-0.757168 -0.340102 -1.94419
-0.749111 -0.347631 -0.54533
-0.759143 -0.388082 0.87688
-0.730028 -0.325137 2.27627
-0.720251 -0.245731 3.34008
-0.723068 -0.161982 4.38774
-0.768503 0.0130429 -3.01662
-0.71085 0.314591 3.22628
-0.720084 0.3941 4.27836
-0.751506 0.846955 -3.00698
-0.69665 1.44901 2.96597
-0.718169 1.5146 4.04413
-0.739231 2.29044 -3.10096
-0.732604 2.41676 -2.06199
-0.743024 2.64079 -0.815713
-0.747531 2.85548 0.402371
-0.738167 3.00668 1.6493
-0.734318 3.08986 2.68977
-0.737007 3.15753 3.75595
0.731421 -0.425157 -3.01039
0.751701 -0.332889 -1.95242
0.764563 -0.343511 -0.551541
0.767292 -0.384788 0.873322
0.715276 -0.318363 2.27482
0.70501 -0.240482 3.33811
0.704395 -0.158235 4.38518
0.721278 0.0186897 -3.02336
0.691643 0.319921 3.22447
0.695536 0.397675 4.27582
0.709437 0.849423 -3.011
0.667868 1.45122 2.96318
0.682686 1.51701 4.0413
0.733844 2.29142 -3.10457
0.741032 2.41699 -2.06523
0.73074 2.64027 -0.81886
0.702124 2.85492 0.399153
0.680352 3.00676 1.64603
0.678155 3.0906 2.68653
0.681914 3.15875 3.75273
1.48158 -0.430463 -3.00623
1.50151 -0.343362 -1.9447
1.51447 -0.336565 -0.555645
1.51065 -0.36372 0.856957
1.45451 -0.307235 2.2481
1.43056 -0.232187 3.31985
1.42622 -0.152041 4.37401
1.47228 0.0222282 -3.02433
1.49624 0.132985 -1.97562
1.50829 0.174071 -0.608376
1.50672 0.17614 0.769707
1.43793 0.250022 2.13925
1.41299 0.325131 3.20928
1.41395 0.401901 4.26711
1.45666 0.879936 -3.02783
1.46798 0.983568 -1.97306
1.49233 1.15951 -0.683816
1.45618 1.27981 0.597681
1.38698 1.37894 1.8891
1.38247 1.44948 2.96409
1.39606 1.51669 4.04037
1.47108 2.3147 -3.12034
1.4769 2.44024 -2.08226
1.4675 2.65006 -0.82977
1.43429 2.85139 0.398526
1.40261 2.99923 1.65218
1.39504 3.08445 2.69271
1.39825 3.15471 3.7568
-0.796516 0.525 -2.01649
-0.00420299 0.11163 -2.00837
-0.793763 0.10798 -1.28333
-0.728555 0.81 2.08523
0.003768 0.194352 2.22065
-0.776231 0.151745 1.48333
-0.00243452 0.959803 -1.98039
-0.719717 1.01399 -1.29869
0 1.40889 1.90502
-0.698837 1.34969 1.24657
0.786702 0.53 -2.0189
0.781605 0.124389 -1.29167
0.731972 0.815 2.08313
0.783503 0.159352 1.48167
0.715619 1.01395 -1.30025
0.695573 1.34724 1.24346
-0.753898 0.160962 0.1
-0.867027 0.647622 -0.62702
0.00134101 0.14814 -0.595
-0.873621 0.714787 0.70096
0.00471134 0.140949 0.79
-0.739347 1.21191 -0.02606
-0.00320131 1.40729 -0.663347
-0.00211707 1.59091 0.608892
0.761696 0.162728 0.095
0.860066 0.648156 -0.631327
0.868914 0.714881 0.697932
0.734109 1.20911 -0.028395
-0.864547 0.586311 -1.29101
0.87375 0.589078 -1.29596
-0.00143099 0.110427 -1.2875
-0.00281792 1.05413 -1.29947
-0.00331876 0.5275 -2.22167
-0.871789 0.681204 0.03697
0.865921 0.681519 0.0333025
0.00302618 0.157481 0.0975
-0.00265919 1.55965 -0.0272275
-0.88228 0.762394 1.36495
0.887837 0.764941 1.36256
0.00423967 0.149965 1.4825
-0.00105854 1.58271 1.24501
0.001884 0.8125 2.11234
-0.796181 0.33 -2.01358
-0.382194 0.115247 -1.99975
-0.790757 0.107708 -1.62917
-0.747991 0.5225 2.16406
-0.347883 0.196942 2.21556
-0.742391 0.188864 1.82917
-0.760445 0.72 -1.983
-0.356152 0.941337 -1.96163
-0.723994 0.973698 -1.61684
-0.729678 1.0975 2.02695
-0.3225 1.40327 1.90028
-0.682994 1.37842 1.56472
0.373788 0.115012 -2.00999
0.786241 0.3375 -2.01895
0.779924 0.121463 -1.63833
0.355419 0.200338 2.21716
0.743961 0.53 2.1535
0.752411 0.195051 1.82833
0.351283 0.941231 -1.96211
0.751513 0.7225 -1.9832
0.719455 0.973622 -1.61821
0.3225 1.40385 1.89911
0.729312 1.1 2.02208
0.680227 1.37606 1.56142
-0.779851 0.125171 -0.9375
-0.755782 0.155798 -0.245833
-0.841004 0.385407 -0.609343
-0.379264 0.145971 -0.593334
-0.772959 0.151738 1.1375
-0.754576 0.163563 0.445833
-0.88476 0.400435 0.746313
-0.386076 0.141705 0.790833
-0.704246 1.04309 -0.98053
-0.84005 0.908479 -0.644697
-0.745944 1.17394 -0.344217
-0.4313 1.37537 -0.66286
-0.717981 1.32426 0.92841
-0.830474 1.01538 0.655607
-0.731098 1.24824 0.292097
-0.425623 1.56483 0.609573
0.784344 0.126257 -0.945
0.382977 0.146022 -0.596667
0.761614 0.158203 -0.251667
0.835964 0.389237 -0.61483
0.781721 0.156526 1.135
0.396142 0.141817 0.789167
0.764515 0.164517 0.441667
0.892912 0.398985 0.743133
0.700417 1.04292 -0.982283
0.42545 1.3749 -0.663833
0.841844 0.911406 -0.647823
0.740069 1.1709 -0.346358
0.714324 1.32182 0.925493
0.421463 1.56368 0.608211
0.826132 1.01419 0.652731
0.726386 1.24555 0.289568
-0.857025 0.555655 -1.65375
-0.399917 0.52625 -2.17723
-0.00281699 0.107239 -1.64794
-0.00376087 0.319565 -2.24163
-0.867236 0.347146 -1.28717
-0.397597 0.113605 -1.28542
-0.844355 0.786197 1.72509
-0.363336 0.81125 2.10121
0.00400383 0.165348 1.85157
0.002826 0.503426 2.23412
-0.885499 0.457069 1.42414
-0.385995 0.147434 1.48292
-0.00262622 1.01955 -1.63993
-0.00287664 0.743652 -2.16167
-0.850723 0.800152 -1.29485
-0.361267 1.0403 -1.29908
-0.000529269 1.57277 1.57502
0.000941999 1.1107 2.07783
-0.801716 1.05604 1.30576
-0.349948 1.56734 1.24579
0.866216 0.559539 -1.65743
0.391691 0.52875 -2.17659
0.87673 0.356734 -1.29381
0.390087 0.11358 -1.28958
0.840164 0.78997 1.72284
0.366928 0.81375 2.10492
0.88079 0.462146 1.42211
0.393871 0.147531 1.48208
0.852202 0.801515 -1.2981
0.3564 1.04038 -1.29986
0.797635 1.05609 1.30301
0.347257 1.56369 1.24423
-0.849795 0.402607 0.068485
-0.378211 0.153671 0.09875
-0.864087 0.616966 -0.959015
-0.868598 0.664413 -0.295025
-4.49869e-05 0.113514 -0.94125
0.0021836 0.150204 -0.24875
-0.873174 0.697996 0.368965
-0.892525 0.73859 1.03296
0.00386876 0.1595 0.44375
0.0044755 0.146922 1.13625
-0.835832 0.961691 0.005455
-0.445234 1.53424 -0.0266437
-0.00300961 1.14504 -0.981406
-0.00293025 1.53533 -0.345287
-0.00238813 1.58264 0.290832
-0.00158781 1.59231 0.926951
0.845789 0.406134 0.0641512
0.385557 0.153714 0.09625
0.867237 0.618617 -0.963641
0.861702 0.664838 -0.299012
0.867379 0.6982 0.365617
0.892555 0.739911 1.03025
0.829673 0.960143 0.00245374
0.440825 1.53458 -0.0278112
-0.858454 0.338573 -1.64146
-0.866542 0.373744 -0.948258
-0.846809 0.847526 -0.969773
-0.846513 0.760076 -1.6353
0.867957 0.347117 -1.64788
0.847043 0.762008 -1.63782
0.838978 0.847552 -0.972962
0.876014 0.379728 -0.954321
-0.389895 0.11144 -1.63855
0.381938 0.111424 -1.64313
0.384859 0.115646 -0.943125
-0.387273 0.115655 -0.939375
-0.35871 1.00176 -1.62839
-0.371124 1.11474 -0.980968
0.365489 1.11481 -0.981844
0.353842 1.00178 -1.62907
-0.391056 0.324783 -2.1896
-0.378035 0.731826 -2.06444
0.371487 0.733076 -2.06444
0.38274 0.328533 -2.19069
-0.845505 0.393955 -0.270429
-0.853655 0.408333 0.407399
-0.833898 0.98891 0.330531
-0.83808 0.935155 -0.319621
0.841 0.397624 -0.275339
0.830907 0.933349 -0.322685
0.82832 0.987376 0.327592
0.849868 0.4123 0.403642
-0.379711 0.147873 -0.247292
0.385236 0.14793 -0.250208
0.386928 0.155608 0.442708
-0.378236 0.155503 0.444792
-0.464493 1.50726 -0.344752
-0.437354 1.55339 0.291464
0.43312 1.55308 0.2902
0.459043 1.50655 -0.345822
-0.885948 0.443893 1.08523
-0.849382 0.489785 1.77713
-0.781089 1.07677 1.64491
-0.825823 1.02745 0.980683
0.894182 0.447155 1.08262
0.821722 1.02684 0.977869
0.777345 1.07804 1.64213
0.84788 0.496073 1.77559
-0.385512 0.145367 1.13688
0.394162 0.145453 1.13563
0.374645 0.159125 1.83995
-0.366939 0.159035 1.84037
-0.355807 1.57276 0.927681
-0.336224 1.5619 1.56987
0.334879 1.55976 1.56822
0.352345 1.5713 0.926222
-0.355609 0.512963 2.2251
0.361174 0.516713 2.22123
0.344714 1.10535 2.07062
-0.342918 1.1041 2.07162
-0.787482 0.2325 -2.00359
-0.57119 0.119237 -1.99326
-0.790902 0.105923 -1.80208
-0.745775 0.37875 2.19154
-0.523708 0.210952 2.2003
-0.727608 0.205287 2.00208
-0.742755 0.8175 -1.9666
-0.53301 0.927367 -1.94751
-0.721594 0.949011 -1.77592
-0.69534 1.24125 1.96292
-0.48375 1.3985 1.89594
-0.674922 1.39264 1.7238
0.562784 0.119612 -2.00789
0.777809 0.24125 -2.01077
0.79333 0.105753 -1.81167
0.531244 0.214961 2.20379
0.747049 0.3875 2.18579
0.738419 0.211347 2.00167
0.528141 0.927307 -1.94833
0.734495 0.81875 -1.96592
0.716917 0.949 -1.77719
0.48375 1.3984 1.89321
0.694457 1.2425 1.95803
0.672353 1.39027 1.7204
-0.760505 0.146157 -0.764583
-0.754982 0.154959 -0.41875
-0.830655 0.252968 -0.600505
-0.566162 0.151694 -0.5925
-0.77233 0.150727 0.964583
-0.755642 0.164136 0.61875
-0.881934 0.247457 0.76899
-0.579913 0.145196 0.79125
-0.746833 1.10797 -0.821452
-0.793238 1.02225 -0.653535
-0.749059 1.15477 -0.503295
-0.622574 1.31386 -0.662617
-0.716091 1.30009 0.769332
-0.76443 1.14345 0.63293
-0.726334 1.26576 0.451175
-0.622653 1.52235 0.609913
0.763483 0.149422 -0.771667
0.570469 0.151615 -0.5975
0.759616 0.157897 -0.425
0.825293 0.259088 -0.606582
0.780629 0.155314 0.961667
0.590362 0.145243 0.78875
0.765918 0.165418 0.615
0.894 0.246492 0.765733
0.740204 1.10479 -0.823301
0.616767 1.31269 -0.664077
0.795855 1.02459 -0.656072
0.74301 1.15176 -0.505339
0.712059 1.29748 0.766511
[...]
POINT_DATA 3682
SCALARS point_scalars float 1
LOOKUP_TABLE default
-158.957
-46.9741
-103.718
-54.1582
-143.132
-46.6146
-102.073
-54.6952
-42.0904
-41.9708
-95.3962
-54.3463
-41.7173
-42.0577
-94.8599
-54.1168
-92.1663
-101.091
-40.7946
-45.725
-47.7117
-46.9839
-46.5455
36.8307
-94.4284
-40.4468
-48.4998
-47.6501
-44.5966
-44.3766
-20.1524
-123.821
-67.4457
-51.1238
-52.99
-47.4521
-47.4521
-104.715
-100.197
-119.391
-58.8258
-55.9444
-58.3836
-52.5033
-65.6347
-117.69
-41.678
-43.3915
-46.6928
-44.5971
-40.5925
113.028
-41.0603
-39.8646
152.167
-46.4387
-45.8387
-50.6468
-85.9305
-106.609
-63.1574
-56.1011
-56.2141
-53.3443
-71.8945
-117.857
-41.0605
-43.4647
-46.5658
-44.0538
-40.142
117.583
-40.7941
-39.2445
154.567
-46.4192
-45.9324
-52.0706
-86.3801
-109.711
-62.9085
-56.2411
-54.3544
-53.5307
-118.258
-120.8
-40.2244
-54.3581
-47.4319
-46.585
-44.491
30.9769
-103.205
-40.356
-47.8945
-47.3553
-43.5985
-42.6953
-21.8706
-118.345
-64.1749
-50.7027
-52.9265
-50.6645
-47.4689
-103.55
-100.34
-116.108
-57.7405
-55.4198
-59.2667
-52.9575
-113.811
-161.772
-63.9635
-44.8369
-35.7392
-49.8896
-84.9557
-35.5209
-47.4296
-53.5579
-101.153
-63.4724
-44.8447
-49.3493
-36.7614
-53.695
-37.8743
-50.8354
-45.2714
-46.4809
-39.0543
-63.6202
0.64084
-65.2991
-37.5039
-50.1562
-44.9314
-63.2789
-63.1186
-65.2581
-67.1329
-0.443069
197.225
-47.3137
-46.4044
-38.2584
-84.9704
-52.4604
-53.8739
-44.0742
-57.5429
-40.7211
-121.011
-179.893
-87.0272
-44.5404
-41.4345
-48.8821
-100.334
-107.963
-53.2476
-50.0991
-47.8163
-53.4555
-191.497
-105.74
-86.8486
-41.0975
-44.2524
-49.0801
-104.744
-92.9808
-54.1959
-47.8889
-50.1976
-53.4566
-55.2584
-39.2542
-44.9573
-44.479
-44.0928
-37.3923
-45.3972
-39.1655
-34.8414
-63.1151
-75.0594
1.52077
-55.3146
-50.8646
-59.0033
-62.5615
-57.3152
-44.4881
-38.528
-44.7321
-44.9194
-39.0509
-36.9765
-43.4733
-35.9383
1.12036
-63.2622
-74.2964
-55.3201
-62.3513
-50.5868
-58.6586
-93.5429
176.725
-94.7905
143.399
-64.0162
-66.1917
-52.2356
-43.297
-42.093
-36.7216
-51.4495
-44.9952
-33.7548
150.461
-58.0677
-8.35135
-54.3906
-46.4913
-52.7186
-56.9026
-98.3874
176.986
-65.2829
-66.6264
-51.895
-43.28
-51.5545
-45.0719
-60.3447
-8.41669
-53.3759
-56.6071
-42.101
-38.1879
-52.637
-48.973
-56.9223
-40.6288
-46.0908
-49.6214
-37.4386
-42.964
-55.6645
-81.1089
29.4628
-115.048
-72.9423
-62.1138
-41.0968
-37.9963
-55.2522
-48.1451
-45.0684
-50.3033
-54.8283
-81.1538
-91.9215
-53.5897
-55.9096
-80.4585
-98.0222
-83.3397
-57.3629
-55.5739
-93.8673
-95.1459
-56.324
-56.1488
-38.9614
15.1547
15.2519
-38.8708
116.977
147.24
148.632
121.478
-43.0843
-40.7074
-52.3667
-59.5561
-42.0458
-58.802
-51.7295
-39.4999
-40.3229
-40.2075
-37.3316
-37.4742
-107.783
-68.549
-69.1057
-107.097
-48.7314
-51.5053
-52.1335
-51.8913
-49.4125
-52.1471
-52.13
-51.4047
-43.2618
-43.3287
-44.0221
-44.0835
-60.6393
-55.4835
-55.1912
-60.9646
-41.2872
-41.2669
-46.8822
-46.7307
-124.566
-181.057
-105.733
-45.1751
-44.601
-47.1732
-85.4495
-103.858
-81.5895
-51.4341
-48.805
-55.1349
-193.532
-110.929
-119.013
-44.0565
-45.1993
-46.7639
-101.916
-81.7764
-81.2887
-48.9134
-51.7618
-54.6036
-44.7421
-40.0615
-42.6599
-43.4526
-44.4784
-37.2449
-48.4486
-39.489
-74.6508
-76.4856
-83.0195
-44.0948
-52.9642
-52.4568
-55.6998
-58.7377
-45.4111
-43.4307
-39.5823
-42.8538
-44.7598
-39.3799
-36.9517
-47.359
-73.4324
-47.2762
-76.592
-82.6263
-52.8935
-58.6276
-52.2831
-55.406
-127.317
-106.143
-110.196
131.118
-160.237
-161.66
-122.534
43.5514
-70.4388
-56.9061
-64.1387
-64.7713
-44.0072
-47.6239
-50.7462
-43.6734
-37.5843
-37.3528
-40.1773
-28.612
-53.0272
-45.694
-50.8806
-46.4959
-112.116
-111.683
-56.4658
96.7635
-44.1812
-32.6383
-53.2224
-17.1813
-47.4386
-47.4712
-52.3021
-46.9714
-53.2024
-54.4063
-52.7727
-56.0756
-110.291
-100.023
-104.038
130.645
-76.0004
-56.6341
-63.8306
-65.1607
-43.8953
-47.9073
-50.2281
-43.5549
-52.5287
-46.5146
-51.0824
-46.6824
-44.7198
-34.2648
-55.6544
-17.5253
-53.3079
-54.5242
-53.1209
-55.8483
-39.2654
-37.557
-41.0189
-37.9823
-48.0099
-54.7309
-50.9728
-49.9038
-45.0811
-45.0923
-49.5855
-42.3411
-46.1694
-47.6841
-46.0462
-46.8604
-38.9458
-39.0212
-37.3096
-42.1897
-68.7783
-61.1842
-59.5862
-74.202
3.28889
3.68227
49.3399
-111.678
-64.6208
-64.4137
-68.5533
-63.8635
-38.8455
-37.0075
-40.0287
-37.6671
-47.3605
-54.6658
-51.3795
-49.056
-44.9157
-46.949
-44.9354
-47.5238
-68.1715
-60.5386
-58.9208
-73.4856
-71.9008
-63.7708
-62.1916
-57.3664
-76.2294
-65.6891
-64.1878
-59.6847
-77.2695
-66.8255
-67.0533
-60.7608
-17.05
-2.4695
-2.49229
13.241
190.808
199.191
191.464
190.22
-44.5037
-48.0328
-46.0411
-49.926
-43.4193
-47.0329
-45.1651
-49.132
-38.3093
-39.7542
-37.6969
-38.1674
-84.5119
-100.507
-76.7681
-84.6621
-53.4866
-51.4553
-52.5306
-50.375
-54.2468
-52.4864
-53.6091
-51.9502
-44.3221
-44.0901
-44.1991
-43.5514
-55.794
-57.3946
-57.2157
-59.6066
-41.8726
-38.9392
-43.5343
-41.6992
-103.928
93.1275
-124.662
44.0623
-92.0782
-92.2614
-49.194
-42.5143
-43.0841
-36.9797
-50.0858
-46.0457
-109.837
108.52
-63.2837
101.234
-72.6106
-43.0517
-51.8219
-46.2306
-55.871
-46.7271
-52.5157
-55.8012
-127.213
57.8164
-101.052
102.298
-97.7051
-93.9885
-42.9101
-36.6133
-48.9157
-42.3386
-50.0575
-46.0304
-62.7245
100.362
-105.981
108.525
-70.9507
-43.141
-55.8189
-46.7189
-51.6997
-46.2237
-52.6123
-55.7421
-53.772
-55.9194
-41.9859
-39.8346
-50.2868
-43.6878
-48.5597
-41.8593
-46.9434
-43.6061
-39.8172
-37.4071
-40.2561
-46.4213
-37.4208
-42.3862
-58.4756
-2.16524
-59.1097
-61.5929
-67.1712
-103.054
32.0545
-100.296
-52.7805
-58.9903
-51.4114
-51.4001
-55.9024
-62.9838
-65.1808
-61.5833
-55.2265
-56.6298
-48.7214
-41.782
-40.9139
-39.5996
-51.3819
-42.7863
-47.7199
-43.8467
-37.3138
-42.4243
-38.7986
-37.1704
-38.4317
-48.8228
-59.117
-2.39176
32.3887
-100.409
-58.8493
-60.8679
-66.6824
-102.885
-52.771
-59.0297
-65.0333
-61.7043
-50.9767
-51.4537
-55.4474
-62.9258
-92.162
-90.9818
179.971
165.315
-94.2196
-94.6931
148.415
143.79
-70.9688
-57.5397
-76.2421
-60.04
-52.1003
-52.3479
-42.1974
-44.9061
-42.4651
-42.5491
-38.418
-38.3261
-48.8492
-55.0847
-44.1269
-45.8296
-35.3474
-35.2238
150.165
150.465
-54.8226
-66.4259
-21.3764
2.8462
-54.8051
-54.5429
-47.0871
-46.6565
-52.3027
-52.6664
-58.5732
-55.842
-97.9915
-94.137
165.932
181.007
-75.7656
-59.536
-76.9079
-60.3089
-51.9762
-52.0641
-42.0008
-44.9777
-52.1591
-54.2758
-44.2383
-45.873
-70.0172
-57.0098
2.67406
-21.4026
-53.2522
-52.5987
-55.4903
-58.5385
-42.5048
-41.2962
-39.5478
-37.6828
-53.0776
-54.1335
-45.6226
-52.7907
-56.9533
-56.8581
-40.5437
-40.5012
-43.5018
-48.2644
-48.7809
-50.4734
-37.3976
-37.435
-42.991
-43.0378
-54.3969
-57.1191
-95.9925
-72.9377
25.2999
25.227
-112.95
-112.375
-71.7497
-72.2503
-61.6792
-61.9429
-41.4966
-40.2547
-39.4093
-37.5187
-56.9251
-55.1864
-44.5937
-51.9736
-47.485
-42.257
-49.7457
-51.02
-56.3375
-53.6748
-73.0116
-95.9176
-98.2052
-69.739
-71.5858
-107.115
-48.6667
-50.3066
-57.5397
-56.79
-72.2244
-52.4111
-57.4485
-53.8299
-105.157
-113.575
-70.8381
-60.3917
-95.2254
-103.429
-76.2013
-74.8666
-99.9328
-62.3542
-74.9764
-107.644
-71.336
-53.6589
-59.492
-54.4533
-50.265
-58.1717
-59.6573
-51.4788
-120.852
-122.221
-76.762
-74.4204
-123.011
-75.7081
-77.0691
-123.265
-47.3444
-49.3928
-60.8279
-59.1709
-47.2302
-58.8447
-60.6978
-49.3232
-68.1841
-29.0561
-17.6283
-58.978
-2.93313
42.7913
10.7385
-8.24815
-3.5134
-8.6516
10.5371
42.7908
-67.7905
-58.9426
-17.6258
-29.3193
77.3885
136.234
195.24
46.2148
51.0691
117.756
169.33
119.034
49.5633
119.865
170.082
118.878
79.3408
50.6982
194.834
138.264
-42.2219
-41.1566
-44.9056
-46.4788
-38.2281
-43.8736
-43.1147
-40.2862
-53.517
-57.3307
-49.5297
-47.8961
-71.2686
-53.9765
-51.1426
-63.1314
-41.4708
-45.596
-43.8715
-40.3107
-70.8515
-62.4367
-50.2064
-53.3738
-53.1264
-47.024
-48.7886
-56.91
-36.9236
-38.9321
-42.1757
-41.9475
-41.1041
-42.2132
-39.7441
-39.3568
-40.9255
-39.1411
-39.6632
-42.1947
-37.0096
-37.2512
-37.6299
-37.2634
-37.295
-37.5671
-37.6791
-37.2688
-111.723
-83.9453
-98.4949
-109.875
-59.5655
-67.7342
-75.9102
-67.2276
-59.313
-67.1592
-75.9781
-67.618
-112.223
-111.709
-98.4434
-83.4776
-44.6817
-47.521
-49.4503
-47.1167
-48.1135
-50.4294
-54.0529
-56.7371
-52.502
-52.5539
-52.5001
-51.5183
-51.7699
-49.6575
-51.4179
-53.5691
-46.702
-48.5452
-51.775
-49.996
-51.6919
-53.9003
-52.4077
-49.7553
-52.4417
-51.0534
-53.219
-52.7742
-47.8892
-55.8366
-53.9353
-49.9208
-42.5878
-42.243
-43.6408
-44.6759
-42.5568
-44.8633
-43.6998
-42.2591
-44.9905
-41.0608
-44.8297
-48.0534
-45.1169
-47.9297
-44.9656
-41.0352
-56.5099
-57.6564
-59.301
-63.1235
-59.2415
-52.9626
-55.9708
-55.2756
-59.3017
-55.0388
-55.6337
-53.1003
-56.4288
-63.3386
-59.2413
-57.3875
-40.4253
-31.3429
-40.3143
-43.037
-40.1114
-42.8021
-40.0245
-31.1377
-46.6885
-46.9156
-43.1856
-44.8207
-46.6391
-44.8845
-43.9346
-46.934
-129.021
-169.921
-133.353
-46.8697
-45.7939
-47.7686
-84.8905
-98.6256
-108.88
-52.5921
-50.2798
-55.4174
-175.571
-120.599
-112.346
-45.2804
-46.3813
-47.5405
-96.8615
-79.2646
-107.28
-50.4975
-52.9581
-55.3991
-43.8986
-40.9908
-40.5553
-42.7976
-44.0762
-36.4864
-47.2735
-39.7007
-95.2492
-85.201
-90.3871
-100.026
-53.8052
-53.3787
-54.9801
-55.8431
-44.0781
-42.5874
-40.1728
-40.5789
-45.186
-39.5677
-35.4416
-47.3312
-93.8201
-100.259
-85.2006
-89.4032
-53.6237
-55.6537
-53.1392
-54.7028
-125.291
-107.778
-137.26
47.1007
-159.246
-159.761
-144.41
-100.308
-65.8562
-63.6644
-65.6268
-64.0922
-44.2528
-45.9406
-50.684
-43.5253
-36.3858
-36.2341
-38.6476
-30.3405
-51.8081
-47.0143
-51.3633
-47.5302
-97.3952
-96.8812
-74.8118
12.5024
-39.5093
-32.7115
-46.8861
-23.5902
-47.4313
-47.4506
-53.414
-47.0406
-53.2896
-53.7538
-53.1631
-55.2878
-113.139
-99.1572
-123.493
48.2658
-72.43
-58.6851
-63.2481
-63.7614
-44.061
-46.1168
-50.287
-43.3751
-52.7809
-47.4743
-51.4724
-47.9893
-40.3217
-34.4393
-48.2483
-24.1771
-53.4165
-53.9107
-53.401
-55.1384
-38.5984
-37.7526
-38.6658
-37.9153
-49.4389
-52.5757
-51.2503
-50.4278
-45.2346
-45.2432
-47.3522
-43.5486
-46.6814
-46.9392
-46.4078
-46.5244
-39.3326
-39.2617
-36.6839
-42.0795
-66.0248
-61.0219
-61.1185
-67.9834
1.32676
1.45054
33.1486
-70.5001
-65.1794
-65.0961
-66.7135
-64.2915
-38.1542
-37.1204
-38.2332
-37.5272
-48.6133
-52.0902
-50.5947
-49.6809
-45.2919
-45.832
-45.1535
-45.0725
-65.4519
-60.5282
-60.6213
-67.7559
-66.7251
-63.4796
-62.6036
-59.9418
-69.3878
-65.4484
-64.7987
-62.3334
-71.8002
-67.0688
-67.1647
-63.6094
-7.8528
-0.902541
-0.934501
6.1852
194.249
203.418
188.132
194.519
-45.7679
-47.5926
-47.0639
-48.4974
-44.8258
-46.6573
-46.1884
-47.7532
-38.2775
-39.0129
-37.9286
-38.2281
-84.9567
-91.5022
-80.2459
-85.0006
-53.5872
-51.662
-52.8386
-51.422
-54.434
-53.0808
-53.855
-52.9342
-44.4998
-44.097
-44.115
-43.815
-56.6704
-57.5484
-57.3606
-58.507
-41.1678
-39.7207
-42.2318
-41.0615
-115.962
-126.25
-124.232
40.7387
-186.655
-166.9
-146.51
-55.8536
-100.164
-77.6807
-93.2985
-90.1566
-44.6691
-44.11
-47.9577
-42.7384
-43.1107
-39.385
-42.9459
-37.9715
-47.2351
-51.5094
-49.7684
-47.2365
-95.3637
-104.34
-133.639
45.0934
-99.4849
-109.428
-81.334
0.595211
-64.4055
-49.6258
-65.43
-47.3915
-50.9184
-48.999
-52.4628
-46.3055
-48.2125
-47.4908
-54.0779
-46.9458
-53.8321
-53.1526
-52.9708
-54.9316
-197.94
-173.975
-149.789
-59.8516
-100.475
-107.775
-114.886
43.4801
-109.525
-75.836
-96.6378
-91.6822
-42.715
-39.1129
-42.8653
-37.5133
-44.1635
-43.9051
-47.7799
-42.5658
-47.2677
-50.8748
-49.9176
-47.3662
-96.1143
-108.331
-80.4123
-12.2969
-81.324
-95.1931
-128.528
42.9651
-64.4899
-49.3231
-63.4641
-47.6586
-48.2449
-47.5412
-54.3122
-46.9748
-51.1315
-49.2598
-52.1336
-46.3555
-53.7688
-53.2204
-53.027
-54.9335
-50.2852
-53.7003
-54.5204
-56.45
-39.6006
-38.9865
-40.0099
-39.5277
-44.0921
-46.5852
-46.329
-44.1129
-43.9459
-44.9096
-46.1839
-42.9436
-43.7294
-44.0961
-46.1142
-43.6124
-37.4766
-37.604
-38.0749
-37.359
-46.7461
-45.759
-40.1579
-47.7279
-39.2422
-39.1458
-37.047
-42.0843
-48.0532
-34.1436
-53.5849
-17.5162
-68.91
-58.1089
-61.4891
-62.6765
-78.6443
-71.7392
-70.2946
-87.0624
-11.0844
3.80173
26.9747
-53.0722
-53.6678
-55.2183
-53.8782
-54.5118
-52.3258
-48.9438
-51.0717
-51.1135
-56.6874
-61.6229
-57.5212
-60.7643
-61.5668
-63.8
-63.7662
-61.9062
-51.5063
-55.4655
-55.2639
-57.5075
-43.9552
-44.9392
-46.2649
-42.9125
-39.004
-38.5877
-39.2136
-39.1632
-43.9612
-46.0363
-46.6422
-43.4654
-44.1221
-45.2097
-47.1152
-43.9475
-39.0858
-39.0621
-36.9275
-42.1927
-37.0215
-36.8177
-37.2156
-37.1201
-43.9044
-44.1745
-36.4845
-49.5107
-49.9921
-36.0408
-54.316
-18.8802
-11.1779
4.03209
26.8007
-49.8255
-69.2553
-58.659
-60.261
-62.9616
-77.991
-71.0241
-70.0564
-87.0135
-53.44
-55.2492
-53.7654
-54.7103
-61.3766
-63.5271
-63.529
-61.8012
-52.1865
-48.5065
-50.5826
-51.0085
-56.3347
-61.1587
-57.129
-60.6705
-103.477
-80.7354
-92.7856
-92.4999
160.069
186.342
182.78
169.224
-107.865
-84.5138
-94.6001
-94.7956
97.9075
181.647
147.632
148.125
-63.9046
-63.9486
-66.8425
-60.5579
-65.5363
-66.4431
-70.5622
-62.7783
-51.2722
-53.4439
-52.3716
-52.3234
-43.6812
-42.669
-42.5625
-44.101
-41.3705
-43.1717
-42.1956
-42.2193
-31.3632
-39.5845
-37.3322
-37.0665
-51.1283
-51.1937
-49.9629
-54.0889
-45.6435
-44.572
-44.5671
-45.4013
-44.2057
-24.7055
-34.0625
-34.0093
132.853
178.923
141.113
141.232
-55.6731
-60.8861
-55.7915
-62.0921
-12.4302
-4.98037
-14.6591
-2.29456
-53.8225
-55.0783
-54.5452
-54.3883
-46.9623
-44.9813
-46.6041
-46.5158
-52.432
-52.4387
-52.6533
-52.9172
-56.5073
-57.1968
-57.7025
-56.2986
-107.875
-85.6337
-98.4916
-96.8417
160.548
185.701
169.365
183.104
-64.7007
-65.7259
-68.6049
-62.298
-65.9824
-66.8505
-71.0377
-63.1275
-50.793
-53.6882
-51.9249
-52.2126
-43.6189
-42.5392
-42.4701
-44.1591
-51.2289
-51.8518
-52.2551
-53.4714
-45.7372
-44.5493
-44.6425
-45.483
-58.4313
-62.7146
-64.9076
-57.9023
-12.5888
-5.02293
-2.34466
-14.7043
-52.9055
-53.3006
-53.52
-53.0013
-56.2297
-56.9799
-55.9397
-57.5055
-41.7861
-43.2734
-42.2753
-41.9624
-38.0823
-38.2483
-38.8498
-37.8964
-51.1382
-54.963
-52.8667
-53.0964
-49.4935
-48.4603
-47.2919
-50.4694
-53.2547
-58.5334
-57.1304
-57.0952
-41.3807
-40.0662
-40.6328
-40.6116
-45.9285
-45.9751
-44.8326
-46.8833
-47.2707
-50.4428
-49.093
-50.0721
-37.3725
-37.5413
-37.4316
-37.4429
-42.6141
-43.2448
-43.0282
-42.9798
-57.8974
-51.7954
-55.442
-56.0872
-78.2456
-83.105
-87.1189
-76.4281
44.0128
19.6082
27.9766
27.9286
-117.772
-107.49
-115.103
-114.8
-70.8805
-74.503
-72.5105
-72.8356
-63.3126
-60.8512
-61.9261
-62.1841
-40.7672
-42.3449
-41.2979
-40.9529
-37.8352
-38.1007
-38.6687
-37.7257
-53.0643
-57.5881
-56.2883
-54.9084
-48.64
-47.5242
-46.3834
-49.6478
-44.8478
-45.0505
-45.9925
-43.7509
-49.2177
-50.856
-50.0762
-50.8809
-57.0029
-50.8831
-55.3579
-54.5514
-77.7137
-83.2987
-76.4595
-87.1906
-102.588
-92.0581
-91.9048
-79.6555
-53.6417
-54.1624
-55.1799
-53.3996
-56.9706
-57.5708
-54.9939
-55.0604
-90.8987
-75.5734
-87.014
-72.0223
-107.569
-98.1174
-97.8657
-84.8532
-90.6816
-77.2253
-89.6193
-75.4032
-57.9791
-57.8772
-57.0731
-57.112
-55.5932
-56.5471
-57.0185
-55.4768
-107.68
-93.319
-94.1194
-83.619
-109.264
-94.89
-95.0988
-84.9058
-56.489
-52.4883
-57.9567
-56.8379
-56.1662
-52.3095
-57.723
-56.7273
-48.3007
-40.4914
-37.4883
-29.72
8.08506
26.4021
7.77059
21.1086
8.23421
26.2677
6.78787
21.0341
-48.1165
-40.399
-37.2288
-29.6709
119.745
82.8191
162.989
131.403
142.7
139.102
156.46
155.274
148.263
141.572
156.533
156.802
87.4083
121.821
131.875
166.106
-42.7028
-43.3434
-42.7939
-44.3012
-40.3321
-40.5461
-40.7481
-42.045
-51.7352
-54.6989
-49.9431
-53.1675
-60.6171
-63.8369
-55.8777
-58.2267
-41.6174
-42.3349
-41.749
-43.3772
-59.9042
-63.4898
-55.2659
-57.5754
-51.202
-54.0351
-49.5017
-52.5035
-39.1889
-39.191
-39.6626
-40.8965
-40.11
-41.0068
-39.833
-40.4862
-40.9046
-39.9491
-40.411
-39.6993
-37.3139
-37.2446
-37.3816
-37.4108
-37.4509
-37.4447
-37.5616
-37.4675
-106.05
-113.551
-102.878
-109.706
-65.7124
-66.939
-70.236
-70.4029
-67.0022
-65.9296
-71.0128
-70.7887
-114.072
-105.655
-108.994
-102.255
-48.1735
-48.0815
-48.0428
-48.7956
-50.2717
-50.8019
-51.933
-53.2766
-51.9121
-52.1561
-52.2096
-52.1733
-52.1447
-51.6599
-52.5703
-51.1031
-48.4855
-48.9564
-50.4341
-49.6802
-52.1626
-51.7133
-53.0793
-51.43
-51.8578
-52.2705
-52.0102
-52.3141
-49.7905
-50.52
-51.8072
-53.1772
-43.4903
-42.8483
-43.6611
-43.1312
-43.5866
-42.9195
-43.7519
-43.1685
-43.5205
-45.0575
-43.1082
-44.9775
-43.6498
-45.1549
-43.1667
-45.0506
-60.1917
-61.35
-59.549
-61.2417
-55.7891
-55.66
-55.1625
-55.5373
-55.5908
-55.5103
-54.8352
-55.2018
-60.4858
-61.6994
-59.6849
-61.4596
-42.6003
-38.0362
-42.6905
-39.9865
-37.8781
-42.2213
-39.8201
-42.4573
-46.7555
-46.5375
-47.1206
-46.2657
-46.5652
-46.8207
-45.9163
-46.7455
-128.773
35.3471
-149.174
-16.7762
-96.6912
-120.031
-47.2803
-41.4476
-45.3501
-41.3438
-48.1718
-45.9864
-129.773
14.7461
-91.8537
-32.061
-96.832
-72.3751
-53.7473
-47.4597
-55.1678
-47.3118
-53.2437
-60.095
-151.39
-4.25428
-118.119
37.4877
-95.7345
-123.542
-45.3468
-40.8059
-46.7327
-41.1412
-47.6857
-45.8902
-92.103
-33.0448
-129.267
16.3338
-96.194
-71.9026
-55.301
-47.3855
-53.4921
-47.5421
-53.1113
-59.7325
-45.5398
-46.3884
-40.3157
-40.5585
-43.6065
-42.3195
-45.3882
-42.0681
-45.9601
-43.2437
-38.4282
-37.0914
-37.2859
-49.2679
-36.7472
-42.767
-79.5577
-37.4562
-75.4025
-74.3071
-75.5795
-112.875
-13.1863
-85.3352
-52.3188
-54.5823
-52.8802
-52.0375
-54.5912
-57.4015
-58.5732
-58.3887
-47.3005
-46.4086
-45.5227
-41.9413
-39.6993
-40.2509
-44.5295
-41.9965
-46.3654
-43.4296
-36.5487
-42.889
-37.4192
-36.5847
-34.1546
-51.6966
-80.3195
-39.1411
-13.2648
-86.1594
-74.1201
-75.2333
-75.6729
-110.755
-52.2875
-54.3772
-57.5854
-58.3844
-52.5823
-51.9039
-54.2302
-57.161
-127.953
47.9543
-140.849
36.1573
-108.985
-112.458
138.382
121.088
-145.012
-87.1956
-146.495
-79.1399
-122.281
-122.739
46.7852
49.9143
-69.2347
-72.5002
-56.2351
-57.7186
-66.2931
-60.0794
-68.966
-61.4755
-50.0891
-43.1144
-51.6858
-44.7167
-50.5253
-51.1062
-43.1654
-44.2851
-40.1616
-32.9012
-40.2673
-32.6176
-40.4141
-40.4003
-29.3636
-29.2484
-55.0287
-49.7086
-47.0447
-44.9395
-48.6672
-52.2888
-45.4902
-47.9819
-78.779
10.7654
-78.2371
7.76978
-57.3767
-57.1922
110.78
114.63
-55.631
-34.8385
-45.1154
-17.2117
-51.5316
-56.4652
-22.3408
-12.7462
-53.1978
-47.0184
-53.2912
-47.0312
-52.4736
-52.5717
-46.961
-46.968
-52.9447
-54.2117
-54.0455
-56.3681
-52.664
-53.0261
-57.0382
-55.409
-113.43
54.1925
-122.943
38.8642
-103.322
-106.806
120.612
138.963
-75.733
-74.8813
-57.5976
-58.0581
-67.5073
-61.1078
-69.8838
-61.7034
-49.6567
-42.8654
-51.4251
-44.7009
-50.5715
-50.0181
-42.9863
-44.1991
-53.9938
-49.8629
-49.1897
-45.2005
-49.971
-53.2044
-45.6335
-48.0021
-55.7967
-35.1735
-48.0271
-18.1309
-58.8654
-54.4901
-13.1413
-22.6496
-53.0685
-54.2232
-54.2859
-56.1879
-53.3734
-52.9507
-55.2726
-56.925
-39.4015
-39.2633
-38.2806
-37.5367
-40.5726
-40.7537
-38.6719
-37.7247
-49.2271
-47.087
-54.148
-54.5114
-49.9889
-52.3132
-48.1632
-51.6112
-47.1815
-43.3845
-47.1919
-43.3881
-49.5292
-49.5074
-42.3182
-42.3115
-44.7986
-46.8363
-47.8846
-48.2622
-45.054
-46.6593
-47.0167
-47.7396
-36.4737
-41.9284
-36.4752
-42.0032
-37.2852
-37.3049
-42.2293
-42.246
-65.4187
-75.3307
-58.9938
-63.9846
-57.4802
-61.2623
-77.8519
-70.667
32.8254
-68.6217
33.4877
-68.6026
47.1801
47.2403
-111.871
-111.74
-66.0016
-63.7592
-65.7947
-63.557
-68.42
-68.2828
-63.6296
-63.7098
-38.7968
-38.9659
-37.087
-37.0728
-40.0742
-39.6442
-38.4028
-37.4183
-48.7188
-46.273
-53.9445
-54.2711
-52.0716
-51.2503
-47.3277
-50.7793
-41.7002
-48.1212
-47.0326
-47.8923
-45.7212
-43.6602
-48.0496
-47.8004
-64.9024
-75.2439
-58.5076
-63.8156
-60.6293
-56.6561
-70.2508
-77.0549
-71.8331
-71.4757
-66.9711
-60.43
-59.1707
-65.6503
-57.4303
-57.3474
-76.3299
-75.5814
-69.3145
-62.736
-68.2065
-61.5426
-59.5752
-59.5793
-77.2476
-77.414
-71.4371
-63.396
-71.6778
-63.5629
-60.9128
-60.8468
-16.7671
-16.8047
-10.2414
4.06552
4.05152
-10.2271
12.3086
12.4046
198.776
180.922
199.749
200.232
182.884