# vtk DataFile Version 2.0
tet_velo
ASCII
DATASET UNSTRUCTURED_GRID
POINTS 29498 float
-0.866118 0.145 -1.615
-0.765 0.235 1.79928
-0.733928 0.695 -1.615
-0.585 1.365 1.52099
0.866118 0.145 -1.615
0.765 0.235 1.79928
0.733928 0.695 -1.615
0.585 1.365 1.52099
-0.821384 0.186028 -0.476907
-0.833561 0.170145 0.661187
-0.744542 0.97859 -0.56967
-0.691907 1.19893 0.47566
0.821383 0.186029 -0.476907
0.833839 0.169867 0.661187
0.744549 0.978597 -0.56967
0.691895 1.19892 0.47566
-1.64415 -0.370631 -2.43563
-1.64077 -0.252241 -1.56231
-1.60175 -0.228841 -0.421813
-1.57051 -0.277741 0.737348
-1.5191 -0.248822 1.87941
-1.50804 -0.161953 2.76044
-1.51677 -0.0534811 3.6272
-1.64115 -0.0153583 -2.46898
-1.63548 0.129623 -1.60579
-1.5905 0.203125 -0.483345
-1.55106 0.209113 0.647447
-1.47487 0.269846 1.77167
-1.48164 0.358424 2.65138
-1.50405 0.461114 3.52117
-1.58468 0.638627 -2.50964
-1.54035 0.77468 -1.64261
-1.51517 1.01176 -0.58341
-1.43939 1.2046 0.469222
-1.34375 1.35216 1.5302
-1.41047 1.43146 2.41375
-1.47278 1.50981 3.29851
-1.53369 1.81093 -2.64038
-1.50963 1.97844 -1.78725
-1.48869 2.26915 -0.758118
-1.45942 2.57098 0.251016
-1.43482 2.79936 1.28111
-1.44583 2.92071 2.13627
-1.47485 3.01085 3.01089
-0.852502 -0.360597 -2.44161
-0.849016 -0.235472 -1.57104
-0.816234 -0.233141 -0.420642
-0.811741 -0.308304 0.749075
-0.782177 -0.280341 1.89991
-0.78161 -0.183345 2.77435
-0.791273 -0.0669042 3.63525
-0.859999 -0.0164676 -2.47082
-0.7771 0.342239 2.66285
-0.789966 0.451319 3.52725
-0.815711 0.603586 -2.49817
-0.722904 1.43433 2.41191
-0.772739 1.51019 3.29811
-0.77017 1.78069 -2.62904
-0.750656 1.94674 -1.77475
-0.743914 2.25287 -0.750586
-0.736843 2.57462 0.250112
-0.729199 2.81189 1.27466
-0.742108 2.93203 2.12982
-0.766069 3.01876 3.00621
0.786719 -0.360606 -2.44161
0.831386 -0.235478 -1.57104
0.819356 -0.233176 -0.420642
0.814063 -0.308492 0.749075
0.761172 -0.280414 1.89991
0.703943 -0.183402 2.77435
0.674649 -0.066966 3.63526
0.772823 -0.0164725 -2.47082
0.670797 0.342201 2.66285
0.652799 0.451264 3.52725
0.733888 0.603582 -2.49817
0.61016 1.4343 2.41191
0.626253 1.51014 3.29811
0.755243 1.78068 -2.62904
0.759571 1.94673 -1.77475
0.741508 2.25286 -0.750586
0.70099 2.57459 0.250112
0.663975 2.81185 1.27466
0.650988 2.93199 2.12982
0.646122 3.01871 3.00621
1.59661 -0.370654 -2.43563
1.63613 -0.252263 -1.5623
1.61566 -0.228923 -0.421813
1.58801 -0.278006 0.737348
1.5194 -0.249005 1.87941
1.45545 -0.162089 2.76044
1.41966 -0.0536117 3.6272
1.5851 -0.0153733 -2.46897
1.63864 0.129614 -1.60579
1.60312 0.203078 -0.483345
1.56936 0.208835 0.647447
1.48701 0.269689 1.77167
1.41777 0.35831 2.65138
1.39236 0.460995 3.52117
1.53406 0.638615 -2.50964
1.54646 0.774675 -1.64261
1.52679 1.01175 -0.58341
1.45334 1.20449 0.469222
1.35126 1.35206 1.5302
1.33895 1.43137 2.41375
1.35153 1.50971 3.29851
1.52258 1.8109 -2.64038
1.51982 1.97841 -1.78725
1.49219 2.26911 -0.758119
1.43691 2.57092 0.251016
1.38473 2.79928 1.28111
1.36747 2.92062 2.13627
1.36569 3.01075 3.01089
-0.827569 0.42 -1.64255
0 0.138261 -1.62174
-0.851941 0.157324 -1.04595
-0.767993 0.8 1.75313
0 0.226241 1.80804
-0.78984 0.212013 1.23023
0 0.778738 -1.69874
-0.756312 0.853872 -1.09234
0 1.40093 1.55692
-0.656497 1.30001 0.998325
0.82763 0.42 -1.64261
0.852182 0.157083 -1.04595
0.768019 0.8 1.75315
0.789582 0.212271 1.23023
0.756278 0.853838 -1.09234
0.656506 1.30002 0.998325
-0.822848 0.182711 0.09214
-0.812181 0.582309 -0.523288
-3.53309e-07 0.111165 -0.476907
-0.828035 0.684538 0.568423
0.000139052 0.125302 0.661187
-0.721307 1.09184 -0.047005
3.11096e-06 1.23397 -0.56967
-6.18505e-06 1.45601 0.47566
0.822794 0.182765 0.09214
0.81215 0.582313 -0.523288
0.828084 0.684393 0.568423
0.721309 1.09184 -0.047005
-0.895221 0.501155 -1.06914
-0.81721 0.633424 0.0225675
-0.884091 0.742269 1.11428
-1.76655e-07 0.102168 -1.04595
6.93492e-05 0.113374 0.09214
6.95258e-05 0.206443 1.23023
0 0.42 -1.91898
0 0.8 1.81953
1.55548e-06 0.925091 -1.09234
-1.53704e-06 1.43042 -0.047005
-3.09253e-06 1.45197 0.998325
0.895135 0.501156 -1.06914
0.817206 0.633353 0.0225675
0.8841 0.742196 1.11428
-1.2508 0.137311 -1.61039
-0.857567 -0.0452361 -1.59302
-0.863059 0.0642662 -2.04291
-1.11993 0.252423 1.78547
-0.773588 -0.0226704 1.8496
-0.77105 0.288619 2.23107
-1.13714 0.73484 -1.62881
-0.77482 0.649293 -2.05658
-0.742292 1.32087 -1.69487
-0.964375 1.35858 1.5256
-0.653952 1.39967 1.96645
-0.6571 2.08844 1.39782
0.848752 -0.045239 -1.59302
0.81947 0.0642638 -2.04291
1.25238 0.137307 -1.61039
0.763086 -0.0227068 1.8496
0.717899 0.2886 2.23107
1.12601 0.252345 1.78547
0.733908 0.649291 -2.05658
0.74675 1.32087 -1.69488
1.14019 0.734838 -1.62881
0.59758 1.39965 1.96645
0.624488 2.08843 1.39782
0.968128 1.35853 1.5256
-1.20594 0.194576 -0.480126
-0.818809 -0.0235568 -0.448774
-1.19231 0.189629 0.654317
-0.822651 -0.0690793 0.705131
-1.12986 0.995177 -0.57654
-0.744228 1.61573 -0.660128
-1.06565 1.20177 0.472441
-0.714375 1.88677 0.362886
0.82037 -0.0235736 -0.448774
1.21225 0.194553 -0.480126
0.823951 -0.0693125 0.705131
1.2016 0.189351 0.654317
0.743028 1.61573 -0.660128
1.13567 0.995173 -0.57654
0.696442 1.88675 0.362886
1.07262 1.20171 0.472441
-1.64246 -0.311436 -1.99897
-1.64265 -0.192995 -2.4523
-1.24833 -0.365614 -2.43862
-1.62126 -0.240541 -0.992059
-1.63812 -0.0613093 -1.58405
-1.24489 -0.243857 -1.56667
-1.58613 -0.253291 0.157767
-1.59613 -0.012858 -0.452579
-1.20899 -0.230991 -0.421228
-1.5448 -0.263281 1.30838
-1.56078 -0.0343138 0.692397
-1.19112 -0.293022 0.743211
-1.51357 -0.205387 2.31992
-1.49698 0.0105122 1.82554
-1.15064 -0.264581 1.88966
-1.51241 -0.107717 3.19382
-1.49484 0.0982354 2.70591
-1.14483 -0.172649 2.76739
-1.51041 0.203817 3.57419
-1.15402 -0.0601926 3.63123
-1.63831 0.0571323 -2.03738
-1.61291 0.311634 -2.48931
-1.25057 -0.015913 -2.4699
-1.61299 0.166374 -1.04457
-1.58791 0.452151 -1.6242
-1.57078 0.206119 0.0820511
-1.55284 0.607444 -0.533377
-1.51296 0.23948 1.20956
-1.49523 0.706857 0.558334
-1.47825 0.314135 2.21152
-1.40931 0.811004 1.65093
-1.49285 0.409769 3.08628
-1.44605 0.894942 2.53257
-1.12937 0.350331 2.65712
-1.48842 0.985463 3.40984
-1.14701 0.456217 3.52421
-1.56251 0.706653 -2.07613
-1.55919 1.22478 -2.57501
-1.2002 0.621106 -2.5039
-1.52776 0.893222 -1.11301
-1.52499 1.37656 -1.71493
-1.47728 1.10818 -0.057094
-1.50193 1.64046 -0.670764
-1.39157 1.27838 0.999713
-1.44941 1.88779 0.360119
-1.37711 1.39181 1.97198
-1.38928 2.07576 1.40566
-1.44162 1.47064 2.85613
-1.42815 2.17609 2.27501
-1.06668 1.4329 2.41283
-1.47381 2.26033 3.1547
-1.12276 1.51 3.29831
-1.52166 1.89468 -2.21381
-1.15193 1.79581 -2.63471
-1.49916 2.1238 -1.27268
-1.13014 1.96259 -1.781
-1.47406 2.42007 -0.253551
-1.1163 2.26101 -0.754352
-1.44712 2.68517 0.766064
-1.09813 2.5728 0.250564
-1.44032 2.86004 1.70869
-1.08201 2.80562 1.27789
-1.46034 2.96578 2.57358
-1.09397 2.92637 2.13305
-1.12046 3.0148 3.00855
-0.850759 -0.298035 -2.00632
-0.856251 -0.188532 -2.45622
-0.0328915 -0.360601 -2.44161
-0.832625 -0.234307 -0.995839
-0.00881516 -0.235475 -1.57104
-0.813988 -0.270723 0.164216
0.00156081 -0.233159 -0.420642
-0.796959 -0.294322 1.32449
0.0011607 -0.308398 0.749075
-0.781893 -0.231843 2.33713
-0.0105025 -0.280377 1.89991
-0.786442 -0.125125 3.2048
-0.779355 0.0794468 2.7186
-0.0388337 -0.183374 2.77435
-0.79062 0.192207 3.58125
-0.0583119 -0.0669351 3.63526
-0.837855 0.293559 -2.48449
-0.0435884 -0.01647 -2.47082
-0.783533 0.396779 3.09505
-0.750002 0.888285 2.53738
-0.0531516 0.34222 2.66285
-0.781353 0.980754 3.41268
-0.0685835 0.451292 3.52725
-0.792941 1.19214 -2.5636
-0.0409116 0.603584 -2.49817
-0.747822 1.47226 2.85501
-0.732506 2.18318 2.27087
-0.0563721 1.43432 2.41191
-0.769404 2.26448 3.15216
-0.0732434 1.51017 3.29811
-0.760413 1.86372 -2.20189
-0.00746333 1.78068 -2.62904
-0.747285 2.09981 -1.26267
0.00445742 1.94674 -1.77475
-0.740379 2.41374 -0.250237
-0.00120321 2.25286 -0.750586
-0.733021 2.69325 0.762385
-0.0179266 2.5746 0.250112
-0.735654 2.87196 1.70224
-0.0326118 2.81187 1.27466
-0.754089 2.9754 2.56802
-0.0455603 2.93201 2.12982
-0.0599738 3.01874 3.00621
0.809052 -0.298042 -2.00632
0.779771 -0.188539 -2.45622
1.19166 -0.36563 -2.43862
0.825371 -0.234327 -0.995839
1.23376 -0.243871 -1.56667
0.816709 -0.270834 0.164216
1.21751 -0.231049 -0.421228
0.787617 -0.294453 1.32449
1.20104 -0.293249 0.743211
0.732557 -0.231908 2.33713
1.14029 -0.26471 1.88966
0.689296 -0.125184 3.2048
0.68737 0.0793992 2.7186
1.0797 -0.172746 2.76739
0.663724 0.192149 3.58125
1.04716 -0.0602889 3.63123
0.753355 0.293555 -2.48449
1.17896 -0.0159229 -2.4699
0.661798 0.396732 3.09505
0.640478 0.888251 2.53738
1.04428 0.350255 2.65712
0.639526 0.980703 3.41268
1.02258 0.45613 3.52421
0.744566 1.19213 -2.5636
1.13398 0.621099 -2.5039
0.618206 1.47222 2.85501
0.630574 2.18314 2.27087
0.974554 1.43284 2.41283
0.636187 2.26443 3.15216
0.988891 1.50992 3.29831
0.757407 1.86371 -2.20189
1.13891 1.79579 -2.63471
0.750539 2.09979 -1.26267
1.1397 1.96257 -1.781
0.721249 2.41372 -0.250237
1.11685 2.26098 -0.754352
0.682483 2.69322 0.762385
1.06895 2.57275 0.250564
0.657482 2.87192 1.70224
1.02435 2.80556 1.27789
0.648555 2.97535 2.56801
1.00923 2.9263 2.13305
1.00591 3.01473 3.00855
1.61637 -0.311459 -1.99897
1.59085 -0.193014 -2.4523
1.6259 -0.240593 -0.992059
1.63739 -0.0613245 -1.58405
1.60184 -0.253464 0.157767
1.60939 -0.0129223 -0.452579
1.55371 -0.263506 1.30838
1.57869 -0.0345855 0.692397
1.48743 -0.205547 2.31992
1.50321 0.0103419 1.82554
1.43755 -0.10785 3.19382
1.43661 0.0981107 2.70591
1.40601 0.203692 3.57419
1.61187 0.0571205 -2.03738
1.55958 0.311621 -2.48931
1.62088 0.166346 -1.04457
1.59255 0.452145 -1.6242
1.58624 0.205957 0.082051
1.56496 0.607413 -0.533377
1.52818 0.239262 1.20956
1.51135 0.706664 0.558334
1.45239 0.314 2.21152
1.41913 0.810873 1.65093
1.40506 0.409653 3.08628
1.37836 0.89484 2.53257
1.37194 0.985351 3.40984
1.54026 0.706645 -2.07613
1.52832 1.22476 -2.57501
1.53662 0.893212 -1.11301
1.53314 1.37654 -1.71493
1.49006 1.10812 -0.057094
[...]
POINT_DATA 29498
VECTORS point_vectors float
-5.35559 -6.37636 17.8021
0.0573858 0.318783 1.42293
-1.3629 1.46009 2.44755
0.111046 -0.101883 0.822442
5.38637 -6.37609 17.8068
-0.0870817 0.264462 1.26602
1.35944 1.45798 2.44382
-0.122525 -0.0470563 0.672554
0.0147844 0.0689797 1.3289
0.13285 -0.350599 1.38709
0 0 0
0.00380891 0.013018 0.0308415
-0.0225175 0.0627133 1.32238
-0.152471 -0.362149 1.38825
0 0 0
-0.00382856 0.0130058 0.0296515
-0.724398 -0.461126 20.1524
-0.993449 -0.707306 20.8683
-0.301683 -0.402649 21.4963
0.173952 -0.173455 21.6652
0.696649 0.124225 21.6502
0.972869 0.280013 21.4215
1.10294 0.139201 21.1886
-0.928929 -0.400415 19.9565
-1.48762 -0.679617 20.8062
-0.519994 -0.614245 21.5764
0.018935 -0.474095 21.7125
0.849209 -0.303946 21.8741
1.2714 -0.199979 21.5608
1.4073 -0.419761 21.4564
-1.097 -0.034119 19.7222
-2.18204 0.0249172 20.4885
-1.5833 -0.352858 21.5142
-0.920935 -0.406616 21.8644
-0.215792 -0.566467 21.9345
0.214456 -0.735081 21.6382
0.527973 -0.705429 21.4766
-0.596035 0.368221 19.9472
-0.864521 0.617458 20.2817
-0.806753 0.614418 20.8851
-0.479661 0.288029 21.242
-0.286209 -0.0380749 21.4379
-0.137687 -0.176842 21.3377
-0.040184 -0.243741 21.1818
-0.908098 -1.2705 19.5189
-1.36874 -2.49128 21.5867
-0.232534 -0.234785 22.0332
0.230987 0.119061 22.0112
0.609109 0.94967 21.9054
1.15548 1.51218 21.0111
1.54517 1.75344 20.195
-1.34073 -1.17634 18.8545
1.72602 1.11451 10.0051
2.67289 1.23411 14.1323
-1.69137 0.108579 18.0159
0.0197591 -0.781849 13.3091
0.61778 -1.32648 17.5848
-0.542818 0.809751 19.5447
-0.907559 1.44032 19.8857
-0.911767 1.44767 20.8627
-0.476999 0.671724 21.4688
-0.182198 0.0979742 21.5454
-0.126904 -0.103532 21.5414
-0.0765494 -0.177957 21.5192
0.869684 -1.3262 19.4817
1.34247 -2.5295 21.6079
0.202227 -0.241798 22.0176
-0.286989 0.091203 21.9776
-0.666441 0.826761 21.8558
-1.0949 1.43229 20.4439
-1.58783 2.06738 19.5931
1.33033 -1.36731 18.6753
-1.4478 0.469286 5.93704
-2.58266 1.46251 10.179
1.65939 0.161482 17.6837
-0.210066 -0.145585 7.93083
-0.264448 -1.0461 12.7709
0.524088 0.818636 19.5311
0.899506 1.43233 19.8834
0.886486 1.45692 20.8507
0.426731 0.700064 21.4582
0.125724 0.124927 21.5671
0.0554193 -0.0785026 21.5027
0.00922585 -0.145952 21.5108
0.745869 -0.494861 20.13
0.991228 -0.721372 20.8548
0.302297 -0.422419 21.4674
-0.168223 -0.210714 21.6291
-0.67984 0.0391014 21.6152
-0.979218 0.228429 21.4517
-1.21139 0.312279 21.2772
0.969688 -0.439885 19.9206
1.47281 -0.676368 20.7903
0.516393 -0.609897 21.5443
-0.00844471 -0.494711 21.6581
-0.738214 -0.405632 21.7935
-1.25368 -0.319207 21.645
-1.59698 -0.470053 21.0619
1.15427 -0.0243614 19.6521
2.15713 0.0216535 20.4796
1.54534 -0.335707 21.4803
0.912361 -0.3942 21.7941
0.326182 -0.487933 21.8083
-0.0215144 -0.651192 21.6787
-0.369445 -0.700529 21.5645
0.589068 0.373063 19.939
0.850276 0.609809 20.2742
0.792364 0.616306 20.8686
0.465177 0.310052 21.2244
0.265333 -0.00454133 21.4088
0.124364 -0.138696 21.3787
0.0213913 -0.182278 21.2651
-0.783664 -0.0310811 0.788256
-0.000206248 -0.0168975 0.140829
-0.0287334 0.0143504 0.979052
-0.00489701 -0.0906829 0.0556235
-0.0442318 0.0619129 0.438998
0.0421824 0.0198129 0.500109
0 0 0
-0.333937 -0.0701234 0.515489
-0.0982001 0.0464112 -0.0162733
0.00638403 0.0126132 0.0689288
0.787929 -0.0323023 0.792001
0.0263988 0.0127989 0.988682
0.030007 -0.140044 0.0359366
-0.0539538 0.019908 0.520006
0.337013 -0.0701629 0.520669
-0.00711678 0.0135628 0.0623887
0.0828738 -0.0131862 1.89274
0.000153321 0.00412567 0.00743519
-0.000259266 0.000169163 0.0640144
0 0 0
0 0 0
0.00207432 0.00915486 0.0214771
-8.74771e-05 0.0181968 0.0305874
-0.000204183 0.000675617 0.0209864
-0.0964335 -0.024134 1.87638
-0.000148704 0.00389699 0.00711307
0 0 0
-0.00210235 0.00926885 0.0215631
0 0 0
-0.000106229 0.017849 0.0487271
0.00374078 0.0322308 0.201964
-0.000194315 -0.000829731 0.0948618
-3.06215e-06 4.90671e-07 0.000177895
0 0 0
-0.000775801 -0.802172 0.458866
0 0 0
0 0 0
-8.11557e-05 0.00471406 0.0327897
0 0 0
0 0 0
0.000100794 0.0177278 0.0489233
-0.00266589 0.0282199 0.191457
-2.73836 -1.60267 21.0686
-2.21829 -3.81947 22.1474
-2.98129 -2.88305 18.4574
1.41504 0.0797512 19.5942
1.02346 1.26245 18.4443
0.96901 0.848943 6.81146
-4.68305 0.689604 20.333
-4.35694 1.35435 15.9966
-2.20945 2.58927 19.3743
-0.193028 -0.385248 19.3054
-0.131015 -0.401682 7.71994
-0.407303 0.106343 21.8685
2.18969 -3.88554 22.1741
3.04276 -3.22128 18.2374
2.72193 -1.59887 21.0535
-1.10257 1.05342 18.167
-0.836011 -0.0256111 4.8304
-1.29547 -0.147031 19.5283
4.35555 1.51541 15.5805
2.19675 2.57673 19.3744
4.63677 0.677843 20.3226
0.265892 0.419775 4.97798
0.319126 0.218622 21.8168
0.319447 -0.219482 18.9486
-0.0727235 -0.915156 21.925
-0.116452 0.328217 17.6449
0.177499 -0.615571 21.0993
0.5315 0.0890716 19.3677
-2.93125 -0.993843 21.9674
-2.68112 2.67059 20.8811
-1.5041 -0.565981 21.7576
-1.11744 1.04659 22.1574
0.0764186 0.316342 17.6442
0.086565 -0.93353 21.9607
-0.603851 0.0597779 19.3483
-0.183879 -0.676394 21.1796
2.65368 2.6837 20.8626
2.89266 -0.978526 21.9178
1.0652 1.10139 22.1349
1.5046 -0.555022 21.8172
-0.947745 -0.629243 20.4206
-0.826078 -0.45545 20.0316
-0.897588 -0.769822 19.8893
-0.663519 -0.572393 21.3461
-1.29171 -0.75368 20.8734
-1.38794 -1.37757 21.0862
-0.0390409 -0.269535 21.5912
-0.433529 -0.537576 21.5286
-0.174198 -0.419386 21.7318
0.421633 -0.0236016 21.7271
0.0958962 -0.339521 21.6587
0.272129 -0.117128 21.8066
0.874417 0.180596 21.5973
0.757331 -0.0594629 21.6938
0.870633 0.448489 21.7994
1.13282 0.222553 21.269
1.20571 0.0927545 21.4586
1.30982 0.803171 21.3289
1.29391 -0.123621 21.3003
1.63298 0.925931 21.0636
-1.32677 -0.592082 20.2367
-1.05114 -0.234293 19.8247
-1.2195 -0.703085 19.5665
-1.06264 -0.67479 21.4156
-1.95219 -0.4036 20.7007
-0.207627 -0.542939 21.6152
-0.99868 -0.67937 21.6024
0.365332 -0.406019 21.8955
-0.407765 -0.646395 21.8313
1.10833 -0.267831 21.7199
0.378438 -0.772596 21.9568
1.42655 -0.281967 21.3627
0.911098 -0.78294 21.5822
1.9748 0.107958 19.3646
1.25606 -0.837457 21.2068
2.27872 -0.00110154 19.5106
-1.74434 0.0250962 19.929
-0.896601 0.293214 19.774
-1.51695 0.0329054 19.0791
-1.95425 -0.159351 21.1892
-1.49008 0.616602 20.2496
-1.27947 -0.412877 21.7422
-1.43796 0.477879 21.1192
-0.575854 -0.428148 21.9464
-0.854195 0.199623 21.6111
0.0239417 -0.675337 21.8017
-0.298848 -0.135926 21.6263
0.410565 -0.80547 21.5245
-0.0294669 -0.356264 21.4925
0.1325 -0.894752 21.0081
0.182433 -0.504851 21.2524
0.52981 -1.17364 21.5347
-0.738626 0.526353 20.0705
-0.627741 0.565082 19.7429
-0.884329 0.629306 20.6106
-0.942519 0.940437 20.1351
-0.66739 0.461755 21.1417
-0.924413 0.970001 20.8746
-0.370394 0.123758 21.309
-0.506819 0.486219 21.3384
-0.178434 -0.0892224 21.3209
-0.263072 0.0146162 21.4967
-0.0776144 -0.180806 21.2037
-0.14478 -0.157001 21.6486
-0.0342545 -0.200962 21.5466
-1.37638 -2.14622 19.9786
-1.11702 -1.279 19.2364
-0.0586679 -1.87881 19.1032
-0.613553 -0.944775 22.2479
-0.0279898 -3.2335 22.1283
-0.0131386 -0.112714 21.9451
-0.0182337 -0.544602 21.8861
0.452429 0.530425 21.9952
-0.0333767 0.224992 21.8524
0.871348 1.24096 21.61
-0.0915652 0.989509 21.5108
1.35857 1.57696 20.8208
1.57307 1.72059 17.6165
-0.0684049 1.66081 19.9613
2.22156 1.67116 15.917
-0.00298287 2.42943 18.8159
-1.67653 -0.701416 18.2078
-0.109933 -2.14582 17.6643
2.33718 1.31549 11.9637
0.181232 -0.625462 4.06227
-0.38827 0.540122 3.20793
1.7009 -1.0625 10.275
0.231025 2.04051 3.11843
-1.04071 0.8832 18.8684
-0.153131 0.390115 16.1654
0.313433 -1.17213 16.1876
-0.231076 -0.307643 21.6926
-1.34018 -0.259604 0.507757
-0.0294343 -0.564081 21.0381
-0.641049 -0.84793 5.66778
-0.694787 1.10964 19.6453
-0.00933544 1.01291 19.2652
-0.946963 1.52926 20.3348
0.000617752 1.89582 19.6492
-0.718528 1.08637 21.2962
-0.0143983 2.00143 20.7687
-0.308394 0.352892 21.5291
-0.0339402 0.935961 21.5169
-0.142069 -0.0141468 21.3879
-0.0514539 0.131959 21.6545
-0.0908502 -0.202347 21.4638
-0.0677625 -0.0921218 21.7856
-0.0983479 -0.165763 21.8467
1.35239 -2.25396 19.9448
1.06773 -1.37858 19.1212
0.884675 -0.813012 19.8436
0.591067 -0.950035 22.2467
1.38433 -1.40588 21.0773
-0.0282793 -0.128138 21.9224
0.162991 -0.437098 21.703
-0.506793 0.474954 21.94
-0.290101 -0.159646 21.7598
-0.887036 1.10971 21.3942
-0.870504 0.332898 21.7542
-1.23502 1.61322 20.1066
-1.43434 1.58854 15.542
-1.29938 0.76153 21.3441
-2.12757 1.84285 14.7579
-1.82188 1.07165 21.0514
1.65389 -0.785831 17.862
1.24798 -0.771534 19.4319
-2.09593 1.06549 7.80445
0.748949 -1.63208 -2.77939
-1.86838 0.057138 17.9365
-0.487667 -0.666698 1.10544
-2.49766 0.208087 18.0327
1.00443 0.925698 18.7805
1.53112 0.027955 18.9313
0.177253 -0.495092 10.6271
0.131329 -0.101868 21.6883
0.0291261 -0.459248 19.0694
-0.0122015 -0.38644 21.1877
-0.352672 -1.11303 20.3445
0.682065 1.11258 19.6389
0.617163 0.570304 19.7265
0.932555 1.52851 20.3281
0.932055 0.934888 20.131
0.677174 1.09701 21.2851
0.906012 0.974855 20.8606
0.249577 0.391164 21.5291
0.47977 0.521404 21.3296
0.0763269 0.0285562 21.3308
0.207679 0.0599923 21.4885
0.0090857 -0.145133 21.2989
0.0963894 -0.0978698 21.6687
-0.0116512 -0.152803 21.7212
0.967508 -0.655074 20.3991
0.849857 -0.489004 20.0042
0.657582 -0.580886 21.3238
1.28345 -0.756113 20.8624
0.0322635 -0.294201 21.5555
0.425173 -0.542373 21.5017
-0.412679 -0.0833185 21.6797
-0.0879827 -0.371224 21.6156
-0.85745 0.107554 21.5695
-0.701985 -0.156766 21.6595
-1.19469 0.215406 21.3042
-1.23659 -0.0243582 21.5247
-1.51406 -0.0923094 21.1779
1.35116 -0.614866 20.2132
1.11135 -0.2601 19.7583
1.04815 -0.670559 21.388
1.93476 -0.400546 20.6867
0.204497 -0.548345 21.5795
0.985133 -0.673125 21.5657
-0.325439 -0.452169 21.8199
0.42089 -0.633346 21.7529
-0.989191 -0.397555 21.6833
-0.212448 -0.785958 21.8298
-1.45166 -0.355809 21.3305
-0.66576 -0.897164 21.5793
-1.06259 -0.798801 21.5772
1.76687 0.0292621 19.8927
0.89626 0.301045 19.7496
1.92153 -0.157746 21.1627
1.47004 0.608256 20.2424
1.25165 -0.399487 21.6907
1.41359 0.471995 21.0973
0.603031 -0.396228 21.8468
0.845333 0.224775 21.5769
0.164388 -0.575989 21.7335
0.308397 -0.0660468 21.581
-0.225356 -0.811917 21.6513
0.053708 -0.261496 21.4962
-0.138026 -0.414415 21.1216
0.73146 0.52757 20.0591
0.870357 0.627733 20.5973
0.655569 0.477264 21.1221
0.356327 0.149359 21.2863
0.162633 -0.0664824 21.3274
0.0566651 -0.155991 21.2529
-1.1654 -0.637902 20.311
-2.05258 -2.70849 19.4687
-1.24411 -1.15235 20.2922
-2.11747 -1.19856 19.7458
-1.05004 -0.780047 19.7396
-1.92399 -1.55742 21.1227
-0.869482 -0.67266 21.4007
-0.655738 -0.624814 20.8692
-0.676284 -0.836663 21.7197
-1.14424 -1.24365 22.2625
-0.0669335 -0.565088 21.846
-0.140538 -0.437113 21.5958
0.153045 0.132177 18.2222
0.0447589 -0.265686 21.6985
0.161964 -0.67665 21.2717
0.353566 -0.324024 21.8006
0.381332 -0.210524 21.8033
0.899598 0.666385 18.3676
0.56076 0.15264 21.8692
0.702993 -0.375186 20.2879
1.23622 0.382044 21.5748
0.992959 -0.0162141 21.6555
1.24749 1.59147 18.0449
1.05449 0.644129 21.6583
1.75628 0.0918902 19.7406
1.72447 0.616478 21.2752
1.30196 0.043238 21.3051
2.04256 1.98302 17.2887
1.44821 0.699283 21.1429
2.16747 -0.0312277 19.7819
2.03571 0.513456 20.5525
-1.64759 -0.322332 20.0625
-4.62221 -1.46223 16.1862
-2.91789 0.292208 18.9484
-1.49895 -0.435406 19.1983
-4.29429 -0.924886 20.8352
-1.51003 -0.573119 21.4299
-3.42072 -0.432449 21.8287
-0.76875 -1.70544 21.272
-0.662057 -0.699372 21.7047
-2.27155 -0.858007 22.1764
-0.263533 -0.685311 18.912
-0.0743448 -0.660465 21.973
-0.891225 -0.390746 21.0963
0.791201 -0.0936629 16.4149
0.659961 -0.817598 21.8214
-0.600727 -1.12451 2.06074
-0.094544 -0.742288 20.7423
1.14647 -0.805342 18.737
1.03885 -0.927163 21.6822
0.888737 -0.7141 6.96224
0.359308 -1.09881 21.64
1.48065 -1.02044 19.8106
-1.20052 0.478938 19.9255
-1.64088 1.77518 18.79
-0.789914 0.788054 19.8833
-1.04618 0.542106 19.3616
-2.02887 1.33541 19.9207
-1.53767 0.58312 20.7221
-2.47025 2.52983 20.0909
-1.0173 1.0289 20.4949
-2.14306 1.12237 21.1446
-1.20098 0.350328 21.4459
-2.04472 2.03726 22.0568
-0.724571 0.720233 21.2511
-1.05175 0.511557 21.8581
-0.548123 0.0238195 21.6463
-0.644503 0.475074 22.0288
-0.361805 0.22862 21.4524
-0.387377 -0.0495297 21.7536
-0.148702 -0.266459 21.5727
-0.311487 -0.1287 21.7561
-0.201937 -0.0519988 21.4299
-0.122331 -0.358626 21.5791
0.0300808 -0.403021 21.3383
-0.127722 -0.496221 21.6387
-0.111752 -0.21212 21.5379
0.090215 -0.520287 21.2069
2.01195 -2.89363 19.3766
-0.0474893 -3.56874 19.8507
-0.124176 -7.63678 16.4546
-0.0869173 -2.11237 18.4474
-0.00953728 -3.9766 22.8942
0.633219 -0.617503 20.7237
-0.0167195 -1.33079 22.6137
-0.0209885 -0.152279 12.9316
-0.206208 0.113867 18.2201
-0.0267844 -0.237832 21.9389
-0.0504589 0.311451 14.699
-0.993726 0.607231 18.1921
-0.0541721 0.65035 21.6649
-0.210436 0.926888 13.8642
-1.16263 1.25633 16.8238
-0.0888168 1.31044 20.8837
-0.661643 -0.144604 2.18433
-0.236852 1.41192 12.2427
-1.88176 1.87712 15.99
0.0216561 1.8043 18.875
0.24038 1.1555 3.63825
0.151508 2.42146 11.7234
4.76245 -1.52932 15.6423
-0.163057 4.00718 10.9765
-0.162343 -1.2199 16.1704
1.02894 -1.50165 -1.33401
-1.19622 0.825774 0.198585
0.745609 0.511792 -2.34375
0.727768 -0.523185 -1.18686
-1.33866 -0.233484 2.72714
1.76517 2.67086 -3.71358
1.61237 1.83145 18.7328
-0.00744249 1.44777 19.4036
-0.0411364 1.34846 18.1467
-0.00164504 3.95949 18.7074
2.45709 2.53317 20.0819
-0.00828177 2.05968 20.1769
-0.0208415 4.91849 20.3429
2.00487 2.08996 22.0412
-0.0301629 1.53101 21.3718
-0.0544214 1.72159 22.3845
0.572716 0.543851 21.9887
-0.0424044 0.474895 21.6038
-0.0895975 0.356299 21.8933
0.213255 0.0506483 21.7263
-0.05148 0.0660637 21.436
-0.123885 -0.070925 21.6936
0.0498065 -0.285379 21.6423
-0.0435757 -0.16951 21.7291
-0.0682495 -0.419181 21.5469
1.1847 -0.660192 20.2964
1.26005 -1.23064 20.2522
2.22057 -1.32763 19.6493
1.08232 -0.843066 19.6482
1.92822 -1.58068 21.112
0.856932 -0.673913 21.3817
0.66145 -0.842116 21.6998
1.14 -1.24265 22.2273
0.0670239 -0.58843 21.8188
0.132333 -0.449561 21.5655
-0.0623318 -0.29085 21.6674
-0.156777 -0.717237 21.3477
-0.363915 -0.377109 21.7646
-0.3566 -0.277184 21.7354
-0.583833 0.0812136 21.8148
-0.684426 -0.48638 20.3025
-1.19688 0.211844 21.4596
-0.94504 -0.118752 21.6342
-1.0578 0.544007 21.6734
-1.55453 -0.0588283 18.5147
-1.78107 0.60215 20.5534
-1.3673 -0.0699437 21.4477
-1.46898 0.667221 21.1482
-2.31096 0.0219627 18.4594
-2.24067 0.739079 19.9037
1.69205 -0.341732 20.03
3.02152 0.360945 18.8157
1.53068 -0.470337 19.0584
4.25907 -0.920461 20.8253
1.487 -0.568927 21.4017
3.38175 -0.416469 21.7931
0.791137 -1.69224 21.3646
0.660994 -0.687832 21.6522
2.23114 -0.829643 22.1027
0.291418 -0.757853 19.0763
0.134659 -0.666458 21.8671
0.917174 -0.334219 20.9519
-0.534297 -0.219627 16.0749
-0.424985 -0.898217 21.7387
0.283225 -0.319446 19.2139
-0.626984 -0.711303 14.9982
-0.910293 -1.0017 21.2767
-0.117069 -0.688477 19.7242
-1.44755 -1.34284 15.9727
1.19994 0.48836 19.9043
0.778237 0.790344 19.8782
1.04022 0.578544 19.3036
2.00776 1.32047 19.917
1.51213 0.575876 20.7079
1.00117 1.02657 20.4859
2.11784 1.12169 21.1244
1.18571 0.360942 21.4164
0.705194 0.744709 21.2344
1.03063 0.55368 21.8258
0.544697 0.0683596 21.606
0.318852 0.267114 21.4378
0.364502 0.0512411 21.6955
0.176314 -0.17955 21.5573
0.153358 0.00547357 21.3994
0.12624 -0.204435 21.5895
0.00904162 -0.305622 21.31
0.0590196 -0.141201 21.6345
-0.0965423 -0.429963 21.0609
-1.65815 -1.23796 20.0586
-0.828015 -0.986988 21.9459
0.163863 -0.400696 21.6945
0.79598 -0.0307584 21.7583
1.51709 0.541035 21.303
1.73306 0.439052 21.1608
-2.8297 -0.665082 19.1829
-2.12859 -1.27473 22.6247
-0.342185 -1.50918 20.0807
0.0451263 -0.204142 18.3205
0.904839 -0.591391 17.2709
1.47825 -0.944696 19.6733
-1.55446 1.00709 19.4667
-2.17146 1.23661 20.5876
-1.65288 0.848087 21.685
-0.640403 0.193485 21.8403
-0.243128 -0.228695 21.6656
-0.0371905 -0.452914 21.4207
-0.0779101 -5.23887 19.0851
-0.0122033 -0.711044 15.9922
-0.0310857 -0.0662107 13.0839
-0.0977676 0.676293 13.3446
-0.265378 1.10317 12.8986
-0.149053 1.89842 12.0057
-0.188563 -2.65814 9.38553
-0.245469 -0.729461 -0.802298
1.02715 1.31314 -3.32911
-0.0419341 2.88815 17.9339
-0.00853347 4.16829 19.2419
-0.0396584 3.48822 22.2642
-0.0697184 0.821038 22.1405
-0.113533 0.155595 21.8519
-0.147243 -0.300836 21.552
1.69698 -1.34223 20.013
0.81907 -0.99622 21.9249
-0.166912 -0.433916 21.6707
-0.800134 -0.12438 21.6785
-1.48549 0.385677 21.1329
-1.95086 0.573537 20.0178
2.98256 -0.702027 19.0443
2.12166 -1.26195 22.5895
0.369397 -1.5096 20.1984
0.0207837 -0.310374 18.3461
-0.424296 -0.50532 14.873
-1.04202 -0.898285 15.7661
1.55296 1.0394 19.4341
2.15178 1.22953 20.5745
1.63449 0.872961 21.6571
0.616093 0.258186 21.7942
0.233056 -0.0887782 21.6196
0.0381119 -0.323405 21.4867
-1.21962 -0.446141 1.43911
-0.00238262 -0.0127783 0.0957685
-0.0673371 0.0279575 0.513665
-0.00209458 -0.0281678 0.0350037
-0.0347546 0.103696 0.53334
0.0173493 0.0289154 0.800694
-0.698967 0.215532 0.810893
-0.079483 0.735078 1.13939
-0.260866 0.0186012 0.558302
-0.00596471 -0.0137987 0.0178856
-0.0951193 -0.0437064 0.186251
0.011297 0.00957935 0.230806
0.00336683 -0.0189652 0.139978
1.20808 -0.442608 1.42524
0.064044 0.0293441 0.495147
-0.0491872 0.176183 0.548528
-0.00180001 -0.0537048 0.036652
-0.0258397 0.0253763 0.793665
0.0771103 0.725678 1.128
0.693807 0.214982 0.804088
0.260115 0.0189691 0.558527
-0.00783547 -0.00833994 0.12892
0.0100816 -0.00935576 0.00841971
-0.0153299 0.0159309 0.210593
0.047318 0.187863 0.990977
0.0373414 0.0318762 1.5721
0.000152401 0.00117015 0.00491304
0 0 0
0.0734198 0.0513668 0.515232
0.153856 -0.0904112 1.80356
-0.00906736 0.00261919 0.0434447
0.0110719 -0.00408273 0.0803452
-0.663431 -0.226128 0.823821
0.0015377 0.0159404 0.0357713
0.00382523 0.0199753 0.0503719
-0.0752727 0.0883439 0.164551
0.00280983 0.00600147 0.0219619
0 0 0
0.00391859 0.0123293 0.0217046
0 0 0
-0.049422 0.182839 0.974686
0 0 0
-0.0445646 0.0251281 1.56287
-0.000151589 0.00111044 0.00482939
-0.0950547 0.0522187 0.570788
-0.00853155 -0.0027046 0.0584791
-0.167042 -0.0996624 1.79136
0.00907995 0.0021413 0.0435477
0.650161 -0.221568 0.807599
0.0734838 0.0867901 0.161384
-0.00148974 0.0155857 0.0352614
-0.00378711 0.0197331 0.0497156
-0.00290036 0.00621165 0.0208539
0 0 0
0 0 0
-0.0040272 0.0126316 0.0216799
-0.00245741 -0.00377441 0.0578235
-0.119418 0.0305311 0.0545547
0 0 0
0 0 0
0 0 0
-0.00238257 -0.000817668 0.0344894
0.0279452 0.0243228 0.393448
-0.0569317 -0.0524742 0.0037365
0 0 0
-0.0107541 -0.0194742 0.0110691
0 0 0
0 0 0
0.13606 1.60595 0.576768
-7.68152e-06 0.00833238 0.03395
-0.00618118 -0.060038 0.298503
-0.0156946 0.00285713 0.0187867
-0.00967037 -0.000816726 -0.000713289
0 0 0
0.00130446 0.0642878 0.292116
0.00217727 -0.000595384 0.0556062
0.118813 0.0301489 0.0542945
0.0024738 -0.00391739 0.0584989
0.00269346 -0.000963291 0.039741
0 0 0
-0.0215205 -0.126729 0.00752293
-0.0216898 0.0105816 0.364212
-0.023086 0.00543218 0.197243
0 0 0
0.0150765 0.00287465 0.0191221
0.00622783 -0.0605259 0.298772
-0.00592009 -0.000395783 0.0548307
-0.00223776 0.0617692 0.267834
2.20136e-05 0.000772053 0.00353103
0 0 0
0.00471047 0.00083155 0.0169145
0.000172218 0.0101198 0.0218931
0 0 0
-3.80932e-06 9.20254e-08 0.000349425
2.20453e-05 0.00178028 0.00403351
-0.00418241 0.0850805 0.377539
-1.3287e-06 2.23895e-07 6.88303e-05
0 0 0
0.0208514 0.0606129 0.135258
-0.00696033 0.0109563 0.107005
0 0 0
-0.000154375 0.0349984 0.104867
0 0 0
0 0 0
0 0 0
-6.09182e-05 0.00219707 0.0103964
-0.00471149 0.000694193 0.0169996
-0.000166776 0.00991319 0.0216063
-2.07994e-05 0.00174075 0.00396322
0.00442686 0.0804147 0.366399
0.00588036 0.010486 0.102095
-0.0204271 0.0592831 0.133344
0.000244474 0.0218191 0.132472
-0.000267183 -0.000507995 0.00388895
0.0124116 0.00458079 0.0323031
0 0 0
0.000174464 0.00196409 0.00838387
0.0381157 0.242423 0.448159
0 0 0
0 0 0
0 0 0
0 0 0
0.00171438 0.00434248 0.0910463
0.00123296 0.0010939 0.0141327
0 0 0
0.000720824 -0.000346871 0.0117087
0 0 0
0 0 0
3.22914e-18 6.181e-19 3.44855e-17
0 0 0
0 0 0
0 0 0