# vtk DataFile Version 2.0
tri_press
ASCII
DATASET UNSTRUCTURED_GRID
POINTS 3682 float
-0.771861 0.055 -1.405
-0.811918 0.165 1.785
-0.785 0.413541 -1.515
-0.725 0.640752 1.615
0.771861 0.055 -1.405
0.811918 0.165 1.785
0.785 0.413541 -1.515
0.725 0.640752 1.615
-0.729041 0.147839 -0.341667
-0.746498 0.180401 0.721667
-0.851702 0.57598 -0.471667
-0.79699 0.617005 0.571667
0.729084 0.147796 -0.341667
0.746436 0.180463 0.721667
0.851709 0.575987 -0.471667
0.796966 0.616981 0.571667
-1.5595 -0.214785 -2.1813
-1.55198 -0.133371 -1.33864
-1.51726 -0.0537891 -0.274788
-1.50451 -0.0288677 0.793087
-1.53038 -0.0345541 1.85728
-1.54613 -0.0225607 2.70159
-1.55359 0.00478154 3.54284
-1.56269 -0.0244226 -2.24349
-1.56327 0.0642007 -1.40301
-1.52926 0.156979 -0.343055
-1.5112 0.188008 0.718704
-1.5374 0.184929 1.77905
-1.55447 0.197699 2.62308
-1.56165 0.225091 3.46498
-1.57183 0.359357 -2.36225
-1.59211 0.447195 -1.52095
-1.61316 0.579579 -0.474629
-1.5533 0.626434 0.570279
-1.50476 0.64643 1.61699
-1.54102 0.658335 2.46185
-1.56601 0.680563 3.30697
-1.56894 1.00741 -2.55544
-1.58084 1.09674 -1.71714
-1.59628 1.21188 -0.677296
-1.58849 1.28644 0.358233
-1.57175 1.32647 1.39828
-1.57241 1.34922 2.23702
-1.58266 1.372 3.07996
-0.7802 -0.221243 -2.18259
-0.778004 -0.139028 -1.34052
-0.7459 -0.058123 -0.274536
-0.738813 -0.0353033 0.795616
-0.767668 -0.0488458 1.8617
-0.783961 -0.0342558 2.70459
-0.789918 -0.00370815 3.54457
-0.777302 -0.0342812 -2.24388
-0.801702 0.186283 2.62555
-0.801247 0.21682 3.46629
-0.779467 0.341393 -2.35978
-0.788154 0.651823 2.46145
-0.808161 0.674565 3.30688
-0.773801 0.996698 -2.55299
-0.781805 1.08762 -1.71444
-0.802827 1.20917 -0.675673
-0.810181 1.28536 0.358038
-0.804977 1.32471 1.39689
-0.808667 1.34692 2.23563
-0.818838 1.3694 3.07895
0.772729 -0.221247 -2.18259
0.756322 -0.139037 -1.34052
0.741824 -0.0581445 -0.274536
0.767962 -0.0352687 0.795616
0.805773 -0.0488318 1.8617
0.77133 -0.0342466 2.70459
0.749772 -0.0036994 3.54457
0.781051 -0.0342834 -2.24388
0.752024 0.186289 2.62555
0.734968 0.216828 3.46629
0.79485 0.341392 -2.35978
0.719099 0.651826 2.46145
0.715007 0.674571 3.30688
0.815709 0.996696 -2.55299
0.818012 1.08761 -1.71444
0.799674 1.20916 -0.675673
0.761459 1.28536 0.358038
0.731864 1.32471 1.39689
0.718757 1.34692 2.23563
0.709948 1.3694 3.07895
1.55362 -0.214795 -2.1813
1.53986 -0.133387 -1.33864
1.51812 -0.0538135 -0.274788
1.5287 -0.0288303 0.793087
1.55833 -0.0345219 1.85728
1.54119 -0.0225394 2.70159
1.52092 0.00479915 3.54284
1.56437 -0.0244288 -2.24349
1.56031 0.0641912 -1.40301
1.53048 0.156946 -0.343055
1.52015 0.188048 0.718704
1.54438 0.184959 1.77905
1.52481 0.197716 2.62308
1.50678 0.225107 3.46498
1.58566 0.359354 -2.36225
1.596 0.447194 -1.52095
1.61429 0.579568 -0.474629
1.55382 0.626426 0.570279
1.49876 0.646443 1.61699
1.48919 0.658346 2.46185
1.48412 0.680575 3.30697
1.60618 1.0074 -2.55544
1.60982 1.09674 -1.71714
1.59261 1.21187 -0.677297
1.54746 1.28643 0.358233
1.50663 1.32647 1.39828
1.48845 1.34922 2.23702
1.47862 1.372 3.07996
-0.793541 0.23427 -1.47511
0 0.0529276 -1.40707
-0.766323 0.0855473 -0.873333
-0.770996 0.402876 1.70254
0 0.165442 1.78456
-0.813056 0.138853 1.25333
0 0.528809 -1.63027
-0.885109 0.561519 -0.993333
0 0.68275 1.657
-0.792128 0.660012 1.09333
0.793584 0.23427 -1.47515
0.766048 0.0858227 -0.873333
0.770979 0.402876 1.70252
0.813253 0.138656 1.25333
0.885115 0.561524 -0.993333
0.792127 0.660011 1.09333
-0.742286 0.159604 0.19
-0.864409 0.361909 -0.406667
2.1213e-05 0.119245 -0.341667
-0.806568 0.398703 0.646667
-3.07593e-05 0.126807 0.721667
-0.823459 0.595605 0.05
3.53507e-06 0.83567 -0.471667
-1.1701e-05 0.968655 0.571667
0.741999 0.159891 0.19
0.864372 0.361892 -0.406667
0.806569 0.398722 0.646667
0.823468 0.595614 0.05
-0.895685 0.29809 -0.933333
0.895685 0.298081 -0.933333
1.06065e-05 0.0797001 -0.873333
1.76753e-06 0.733693 -0.993333
0 0.23427 -1.78114
-0.849335 0.380306 0.12
0.849335 0.380307 0.12
-4.77313e-06 0.123739 0.19
-4.08298e-06 0.953682 0.05
-0.885247 0.400789 1.17333
0.885245 0.400799 1.17333
-1.53796e-05 0.133046 1.25333
-5.85051e-06 0.879099 1.09333
0 0.402876 1.80575
-0.772214 0.144635 -1.42957
-0.385931 0.0530095 -1.40699
-0.758754 0.0806121 -1.13917
-0.773058 0.283938 1.72537
-0.405959 0.17578 1.77422
-0.823674 0.14074 1.51917
-0.793916 0.323906 -1.4997
-0.3925 0.495274 -1.59673
-0.851626 0.504101 -1.25417
-0.747712 0.521814 1.65848
-0.3625 0.673446 1.64769
-0.788358 0.680175 1.35417
0.385931 0.053005 -1.40699
0.772616 0.144635 -1.42997
0.758697 0.0806688 -1.13917
0.405959 0.175966 1.77403
0.773069 0.283938 1.72538
0.824024 0.14039 1.51917
0.3925 0.495209 -1.59667
0.793955 0.323906 -1.49974
0.851662 0.504137 -1.25417
0.3625 0.673448 1.6477
0.747953 0.521814 1.65872
0.788357 0.680175 1.35417
-0.750268 0.114107 -0.6075
-0.739153 0.150232 -0.0758334
-0.837644 0.234414 -0.374167
-0.367695 0.127171 -0.341667
-0.755956 0.183447 0.9875
-0.743991 0.170403 0.455833
-0.818554 0.268542 0.684167
-0.373137 0.153858 0.721667
-0.867064 0.567407 -0.7325
-0.876727 0.47828 -0.439167
-0.834127 0.582339 -0.210833
-0.47964 0.813406 -0.471667
-0.799903 0.643853 0.8325
-0.844677 0.529303 0.609167
-0.81555 0.611631 0.310833
-0.475698 0.947225 0.571667
0.750257 0.114119 -0.6075
0.367825 0.126975 -0.341667
0.739188 0.150197 -0.0758334
0.837635 0.23439 -0.374167
0.755999 0.183405 0.9875
0.373745 0.152551 0.721667
0.743979 0.170415 0.455833
0.81858 0.268554 0.684167
0.867069 0.567413 -0.7325
0.479652 0.813421 -0.471667
0.876727 0.478282 -0.439167
0.834368 0.58258 -0.210833
0.799896 0.643845 0.8325
0.475717 0.947297 0.571667
0.844667 0.529301 0.609167
0.815549 0.61163 0.310833
-0.88601 0.26618 -1.20422
-0.396771 0.23427 -1.59993
5.30326e-06 0.0850199 -1.1402
0 0.143599 -1.75025
-0.895239 0.191819 -0.903333
-0.383156 0.0815054 -0.873333
-0.895094 0.401833 1.43793
-0.385498 0.402876 1.78741
-7.68982e-06 0.136447 1.51895
0 0.284159 1.7866
-0.886244 0.269821 1.21333
-0.406536 0.133184 1.25333
8.83767e-07 0.653499 -1.3118
0 0.38154 -1.80975
-0.894685 0.429804 -0.963333
-0.442554 0.718798 -0.993333
-2.92525e-06 0.79659 1.37517
0 0.542813 1.74964
-0.846416 0.530401 1.13333
-0.396067 0.868921 1.09333
0.88601 0.266176 -1.20424
0.396792 0.23427 -1.60007
0.895237 0.191952 -0.903333
0.383029 0.0799245 -0.873333
0.895094 0.401838 1.43793
0.385489 0.402876 1.78741
0.886244 0.269727 1.21333
0.406619 0.133064 1.25333
0.894685 0.429803 -0.963333
0.442558 0.718794 -0.993333
0.846428 0.530405 1.13333
0.396061 0.868929 1.09333
-0.828902 0.253409 0.155
-0.370939 0.142083 0.19
-0.886283 0.33 -0.67
-0.857119 0.371108 -0.143333
1.59098e-05 0.116245 -0.6075
8.21995e-06 0.121312 -0.0758334
-0.842242 0.389505 0.383333
-0.768308 0.399746 0.91
-1.77662e-05 0.125361 0.455833
-2.30695e-05 0.129412 0.9875
-0.860232 0.499873 0.085
-0.487672 0.926525 0.05
2.6513e-06 0.759704 -0.7325
-2.73955e-07 0.904123 -0.210833
-7.892e-06 0.977125 0.310833
-8.77576e-06 0.936221 0.8325
0.828927 0.253469 0.155
0.371794 0.140222 0.19
0.886283 0.329986 -0.67
0.857117 0.371099 -0.143333
0.842244 0.389514 0.383333
0.76831 0.39976 0.91
0.860232 0.499876 0.085
0.487654 0.926492 0.05
-0.886716 0.168227 -1.17169
-0.842104 0.223346 -0.63875
-0.886446 0.449375 -0.70125
-0.885646 0.376855 -1.22919
0.886713 0.168294 -1.17171
0.885642 0.376854 -1.22921
0.886446 0.449371 -0.70125
0.842127 0.223398 -0.63875
-0.384543 0.0852946 -1.13968
0.38448 0.0859095 -1.13968
0.373791 0.118227 -0.6075
-0.373833 0.122181 -0.6075
-0.417527 0.63676 -1.28298
-0.434202 0.761023 -0.7325
0.434207 0.761021 -0.7325
0.417529 0.636788 -1.28298
-0.391351 0.144117 -1.67784
-0.394635 0.352723 -1.68347
0.394646 0.352723 -1.68378
0.391361 0.144117 -1.67784
-0.833274 0.243911 -0.109583
-0.823703 0.260988 0.419583
-0.852409 0.514565 0.347083
-0.868281 0.488978 -0.177083
0.833282 0.243929 -0.109583
0.868282 0.48898 -0.177083
0.852412 0.51457 0.347083
0.82372 0.261028 0.419583
-0.368936 0.135389 -0.0758334
0.369906 0.133404 -0.0758334
0.371817 0.14829 0.455833
-0.371174 0.149699 0.455833
-0.487902 0.878458 -0.210833
-0.488002 0.949509 0.310833
0.487998 0.949521 0.310833
0.487919 0.878488 -0.210833
-0.81806 0.279687 0.94875
-0.892169 0.276879 1.47855
-0.894915 0.526107 1.39605
-0.835294 0.519127 0.87125
0.818059 0.27966 0.94875
0.835294 0.519128 0.87125
0.894992 0.526109 1.39605
0.89223 0.276833 1.47855
-0.3899 0.155652 0.9875
0.389911 0.154834 0.9875
0.406289 0.135874 1.51906
-0.406247 0.135347 1.51906
-0.397284 0.926324 0.8325
-0.379284 0.788817 1.36467
0.37928 0.788819 1.36467
0.397269 0.926324 0.8325
-0.395728 0.284048 1.76872
0.395724 0.284048 1.76851
0.373995 0.532313 1.73296
-0.373999 0.532313 1.73291
-0.77648 0.0998176 -1.42173
-0.578896 0.0529528 -1.40705
-0.754802 0.0783111 -1.27208
-0.75386 0.224469 1.71656
-0.608939 0.164289 1.78571
-0.828853 0.141813 1.65208
-0.791898 0.368723 -1.50979
-0.58875 0.467245 -1.5687
-0.819989 0.460497 -1.38458
-0.736148 0.581283 1.63653
-0.54375 0.662814 1.63706
-0.765636 0.66942 1.48458
0.578896 0.0523143 -1.40769
0.776988 0.0998176 -1.42223
0.75452 0.0785934 -1.27208
0.608939 0.164303 1.7857
0.753788 0.224469 1.71649
0.828664 0.142002 1.65208
0.58875 0.467246 -1.56871
0.791907 0.368723 -1.5098
0.819992 0.4605 -1.38458
0.54375 0.662806 1.63705
0.736149 0.581283 1.63653
0.765614 0.669399 1.48458
-0.744749 0.125878 -0.474583
-0.738656 0.144476 -0.20875
-0.813654 0.175971 -0.357917
-0.552293 0.129655 -0.341667
-0.754199 0.178953 0.854583
-0.749355 0.171292 0.58875
-0.814917 0.208276 0.702917
-0.563286 0.160192 0.721667
-0.860422 0.572733 -0.602083
-0.881479 0.535762 -0.455417
-0.842648 0.578893 -0.34125
-0.702146 0.767644 -0.471667
-0.803808 0.63579 0.702083
-0.850298 0.587886 0.590417
-0.806376 0.614424 0.44125
-0.662836 0.835098 0.571667
0.744758 0.125869 -0.474583
0.552327 0.129641 -0.341667
0.738522 0.144611 -0.20875
0.813683 0.175932 -0.357917
0.754259 0.178892 0.854583
0.563318 0.160053 0.721667
0.749255 0.171391 0.58875
0.814917 0.208304 0.702917
0.860422 0.572733 -0.602083
[...]
POINT_DATA 3682
SCALARS point_scalars float 1
LOOKUP_TABLE default
-73.9041
-39.2575
-14.4971
-37.994
-86.6261
-39.1728
-12.4893
-37.8847
-34.1297
-20.8406
-51.4372
-36.9644
-34.1033
-20.8327
-51.4338
-36.8619
-26.2299
-104.997
-34.7684
-20.0012
-48.7785
-46.1322
-38.0332
-29.5167
-106.31
-37.2004
-23.7257
-51.1049
-46.1322
-38.0332
-42.8798
-70.7113
-47.4063
-31.2519
-51.6887
-42.4849
-35.7111
43.4818
-40.9466
-53.8591
-47.2309
-48.5036
-40.3313
-34.8236
75.471
-119.564
-32.2295
-19.8452
-38.0332
-38.0332
-38.0332
72.8034
-38.0332
-35.6092
117.003
-32.9076
-32.6047
113.124
-7.24141
-38.3548
-55.5514
-41.5727
-34.395
-32.5906
77.8648
-156.427
-32.2185
-19.4984
-37.9421
-37.9421
-35.3145
71.6959
-37.9421
-35.3145
117.414
-32.7028
-32.1281
117.414
-9.26021
-38.1125
-55.5968
-40.9289
-32.7015
-30.9808
-24.9484
-104.595
-34.7417
-19.9882
-48.8096
-46.0671
-37.9421
-29.3863
-106.366
-37.1688
-23.7158
-50.981
-46.0671
-37.9421
-40.242
-69.5034
-47.419
-31.1915
-51.6064
-42.3971
-34.8975
-33.0436
-41.716
-53.8391
-48.2256
-48.4348
-40.2206
-34.7405
-40.3204
-103.947
-58.9862
-36.1668
-31.4209
-35.2305
21.2306
-80.8921
-29.1448
-39.1986
-40.434
-59.1114
-36.0859
-35.2084
-80.9314
-39.1628
-26.7702
-40.4089
-35.2488
-26.1751
-24.6946
-42.0857
-24.8253
-64.0901
-26.9563
-40.3551
-26.182
-42.4259
-70.4772
-70.6048
-56.1136
-39.3486
168.987
-32.2718
-32.3041
-27.2887
-64.593
-30.538
-30.4918
-31.5068
-42.1618
-21.9153
-30.745
-119.75
-81.5281
-36.1909
-35.5873
-39.5229
-35.764
25.0178
-49.5733
-36.1471
-30.4214
-44.597
-120.167
-26.2224
-81.3946
-35.4698
-36.1206
-39.6106
25.1276
-34.4552
-50.0728
-30.3473
-36.0604
-44.5294
-45.3752
-28.7251
-36.2005
-35.2542
-11.1537
-24.4926
-23.4693
-23.5355
-55.7397
-44.5459
-45.782
-29.9947
-37.019
-29.317
-41.5301
-57.3604
-44.9646
-35.1821
-28.7014
-36.155
-11.1904
-23.5786
-24.5009
-23.4532
-55.7332
-29.9852
-44.5022
-45.7714
-36.9628
-57.3586
-29.3275
-41.3253
-94.9801
147.865
-67.7788
80.5265
-67.733
-57.3681
-48.8503
-31.0551
-35.1096
-27.7511
-35.476
-32.5739
-22.6169
200.768
-73.0581
-40.8085
-33.5904
-23.5388
-31.2673
-42.9176
-94.9682
147.735
-67.9948
-57.3939
-48.8028
-30.9235
-35.4415
-32.5614
-73.1282
-40.8181
-31.3287
-42.8931
-29.4849
-26.9849
-53.7783
-35.386
-44.3993
-30.4668
-31.1334
-19.7318
-24.8756
-26.4701
-35.8624
-60.2369
-25.4578
-45.8991
-73.7277
-52.6993
-29.5315
-27.0512
-53.5964
-35.4006
-31.1512
-19.7321
-35.8837
-60.2141
-94.7659
-51.9498
-54.8239
-86.6369
-94.5869
-86.3996
-54.7106
-51.4064
-71.316
-70.4259
-45.2133
-45.4941
-24.8194
-34.5556
-34.5758
-24.865
71.9222
160.373
159.609
71.2936
-31.5871
-27.8135
-33.3345
-39.105
-31.5879
-39.1012
-33.3495
-27.8287
-30.5714
-30.6059
-24.9024
-24.8398
-48.8802
-63.2593
-63.2558
-48.8887
-13.8668
-47.6428
-48.703
-24.1124
-13.7835
-24.1071
-48.5845
-47.6442
-21.7208
-21.8117
-36.0378
-36.1195
-51.5458
-35.4572
-35.4098
-51.5296
-32.8511
-32.7449
-30.2121
-30.3907
-33.6978
-147.05
-115.452
-37.5614
-37.2707
-48.6362
-19.8619
10.8564
-31.8196
-37.4653
-32.7897
-45.4135
-148.164
-25.6854
-114.551
-37.1844
-37.4857
-48.4199
12.3931
-17.6999
-32.6869
-32.696
-37.363
-45.3121
-40.4758
-31.8594
-34.8476
-35.4379
-18.3717
-23.0332
-20.9901
-22.6104
-53.6702
-47.5008
-47.7409
-45.6348
-37.5712
-34.5416
-40.7899
-46.0465
-40.4083
-35.416
-31.8167
-34.775
-18.3613
-22.6224
-23.0196
-20.9671
-53.5939
-45.6606
-47.5053
-47.7121
-37.5858
-46.0461
-34.5124
-40.7596
-44.8098
-43.2498
-63.7316
115.444
-104.656
-104.561
-81.7283
-38.8096
-65.8527
-56.5611
-65.1384
-58.4671
-35.717
-36.0795
-48.2259
-32.8988
-32.9091
-32.4466
-36.0539
-28.1727
-36.7504
-32.4395
-35.4375
-33.5966
20.1209
20.1812
-4.95616
100.521
-76.3471
-65.9971
-77.924
-46.7582
-29.3996
-29.3524
-30.3366
-25.1312
-40.5772
-37.2597
-32.2812
-44.9085
-44.3389
-43.2945
-64.216
115.855
-65.9798
-56.5609
-65.4688
-58.5012
-35.6437
-35.9972
-48.1358
-32.8276
-36.6492
-32.332
-35.4091
-33.5651
-76.4043
-66.18
-77.9254
-46.8108
-40.5457
-37.2404
-32.2282
-44.8598
-28.1322
-25.2894
-27.4755
-26.8154
-38.4204
-42.3735
-44.8463
-37.4494
-35.0781
-35.0687
-39.0253
-32.5139
-26.2092
-27.0923
-29.5632
-22.7679
-24.4551
-24.4607
-24.559
-25.0877
-43.5713
-41.6909
-38.8229
-57.356
-24.6072
-24.5688
-18.5
-35.497
-62.8701
-62.8657
-69.6636
-58.7983
-28.1328
-25.3148
-27.4544
-27.0424
-38.3707
-42.3215
-44.7066
-37.4422
-26.2077
-27.1117
-29.5656
-22.7544
-43.5813
-41.8988
-38.8353
-57.3251
-83.1052
-69.3181
-71.3081
-59.6492
-83.1945
-69.4962
-71.3957
-59.6899
-61.2044
-56.2313
-56.3081
-53.3017
-34.1777
-40.0848
-40.0873
-36.5707
149.382
137.013
202.501
149.875
-30.9339
-33.7076
-31.2604
-34.0439
-30.9736
-33.7328
-31.2875
-34.0677
-27.182
-28.7138
-25.6632
-27.5488
-63.3046
-55.9401
-71.3865
-63.3045
-40.9956
-34.1983
-26.9736
-19.0661
-40.9577
-34.1532
-27.0156
-19.025
-33.1915
-31.8741
-31.8521
-30.2147
-37.4113
-42.367
-42.3569
-47.5063
-26.0125
-25.0424
-21.8571
-25.7977
-74.1814
-32.1734
-86.8925
-84.4575
-93.4757
-74.1603
-48.6371
-33.2867
-38.0546
-33.0444
-45.9187
-37.2617
-58.7503
136.728
-5.33434
108.773
-77.6335
-27.7547
-52.534
-32.5
-32.3801
-30.1431
-47.5099
-39.1781
-85.8949
-87.3555
-74.3015
-33.2537
-93.316
-74.3696
-37.9154
-32.9348
-48.6299
-33.1844
-45.9806
-37.218
-5.28811
108.606
-59.5229
135.226
-77.8891
-27.8944
-32.3175
-30.0232
-52.4208
-32.4238
-47.4089
-39.1041
-47.9211
-45.7435
-29.9091
-30.0107
-41.5032
-33.5705
-39.3908
-33.0958
-10.3597
-19.297
-25.6708
-24.7953
-26.1077
-20.6282
-24.1211
-23.1677
-54.838
-41.531
-48.7549
-41.5435
-42.194
-54.355
-23.993
-40.093
-28.5543
-47.0652
-31.4181
-27.0064
-36.7192
-50.9646
-60.4261
-55.0371
-47.0259
-45.6564
-39.4282
-33.1093
-29.8391
-30.0161
-41.3234
-33.5495
-10.2206
-19.3546
-24.0614
-23.1941
-25.6681
-24.8009
-26.1102
-20.6097
-54.7835
-41.5559
-23.923
-40.0734
-48.6759
-41.5281
-42.1972
-54.3715
-28.5452
-47.0462
-60.4164
-55.0217
-31.418
-26.9978
-36.7255
-50.922
-96.6968
-87.8574
153.701
152.565
-68.4053
-68.2334
107.153
116.526
-78.0037
-56.6727
-61.8556
-53.9371
-48.1798
-48.5535
-32.8454
-30.2905
-35.4738
-35.5288
-29.5822
-29.456
-17.5711
-43.1612
-31.6798
-34.199
-23.4954
-23.9822
197.413
197.898
-62.2812
-84.9564
-36.0007
-40.7597
-34.0714
-34.046
-26.2665
-26.4374
-35.2642
-26.3049
-47.1519
-38.9249
-96.5904
-88.0183
152.152
153.624
-78.109
-57.1094
-63.0982
-54.09
-48.4909
-48.1542
-32.7894
-30.1423
-17.4965
-43.1489
-31.632
-34.1726
-85.0502
-62.3018
-40.7389
-36.0241
-26.2659
-35.2227
-38.896
-47.1296
-30.5571
-28.6821
-28.4641
-25.8465
-52.9246
-54.1498
-33.5754
-37.2035
-44.713
-44.7379
-30.6959
-30.6147
-29.8118
-31.8015
-16.7177
-19.8159
-24.8031
-24.7994
-24.5977
-24.5986
-34.5897
-37.2663
-55.1922
-63.9341
-27.0379
-27.044
-45.3133
-45.3091
-72.3283
-72.328
-52.4484
-52.4404
-30.5929
-28.7177
-28.5446
-25.9224
-54.03
-52.5181
-33.5986
-37.2077
-31.8188
-29.8297
-16.6953
-19.7941
-37.2799
-34.5998
-63.9262
-55.1868
-97.5332
-73.8425
-81.0126
-64.3331
-41.8535
-43.4183
-58.0697
-55.8157
-51.9576
-64.5177
-61.0279
-46.5962
-52.0089
-63.2134
-84.3449
-87.7075
-96.702
-65.1267
-81.1051
-73.9562
-52.7331
-87.7377
-84.4369
-63.7241
-51.8828
-46.485
-61.0481
-64.5673
-41.7675
-58.3084
-58.1651
-43.2304
-93.2432
-82.0008
-61.3441
-64.3126
-92.2403
-64.8549
-61.4011
-81.7982
-39.9518
-39.011
-53.4989
-55.0626
-39.9744
-55.157
-53.5007
-39.0148
-10.084
-39.7009
-34.7752
-5.9959
-41.6783
-19.2677
-37.6704
-46.5272
-41.6495
-46.5303
-37.6448
-19.2725
-10.1763
-5.94771
-34.8045
-39.7719
-99.8084
86.4697
115.691
-1.73716
115.652
111.89
183.859
133.984
109.767
134.364
183.688
111.851
-98.7317
-5.46587
117.096
86.6556
-32.2528
-28.8918
-32.2185
-35.4822
-23.8427
-28.4675
-30.0701
-26.165
-36.3416
-37.4906
-32.8074
-30.0455
-44.6148
-39.3506
-35.4147
-40.4965
-32.1928
-35.4783
-32.2541
-28.8385
-44.6005
-40.5046
-35.433
-39.3392
-36.343
-30.0495
-32.8286
-37.4847
-23.8248
-26.1163
-30.1004
-28.4802
-32.5058
-32.6993
-28.8613
-28.348
-32.4379
-28.3299
-28.7607
-32.6779
-23.825
-24.3535
-25.7208
-25.75
-23.8089
-25.6956
-25.7264
-24.3568
-53.3583
-59.2983
-55.0558
-35.2212
-48.0872
-68.0409
-70.0055
-53.9216
-48.0882
-53.9063
-70.0037
-68.039
-53.306
-35.2235
-55.05
-59.3052
-19.1594
-17.0824
-16.7895
-22.3951
-50.8292
-47.5579
-41.1955
-42.4626
-50.3199
-35.356
-38.3646
-49.6222
-32.1388
-24.0516
-21.2731
-29.4539
-19.1376
-22.3772
-16.7645
-16.9572
-32.1325
-29.4352
-21.2366
-24.0334
-50.2185
-49.5446
-38.335
-35.334
-50.7757
-42.4421
-41.1695
-47.5032
-21.3922
-24.4503
-30.7393
-33.0714
-21.4147
-33.0239
-30.7227
-24.4567
-39.5766
-37.5079
-33.4924
-35.1708
-39.6905
-35.2018
-33.5255
-37.5929
-43.9081
-45.354
-47.1197
-58.0771
-35.7148
-30.8747
-37.7889
-41.8873
-35.632
-41.8439
-37.7693
-30.8344
-43.8838
-58.0721
-47.126
-45.3183
-33.3004
-30.0868
-28.0001
-33.1295
-33.228
-33.0561
-27.8342
-29.999
-32.5744
-26.8793
-25.3016
-32.6223
-32.6699
-32.6932
-25.5168
-27.0124
-59.9243
-125.301
-154.906
-38.5857
-37.9691
-46.4915
-8.51377
22.1852
-49.5279
-37.9821
-34.8733
-40.5115
-125.537
-61.6261
-153.513
-37.8829
-38.5004
-46.3854
24.805
-6.79037
-52.0678
-34.7685
-37.8751
-40.4092
-37.887
-32.2463
-34.2778
-35.329
-19.3515
-22.404
-20.5196
-21.9797
-54.0232
-49.0509
-49.7285
-56.7881
-35.482
-35.8072
-39.2492
-40.8004
-37.852
-35.3311
-32.2323
-34.2206
-19.333
-21.9907
-22.3854
-20.5021
-53.9887
-56.7794
-49.0714
-49.701
-35.5583
-40.7824
-35.7383
-39.3279
-43.6636
-45.5065
-68.7183
44.4567
-103.637
-103.563
-94.2529
-171.947
-61.8642
-56.4123
-63.9498
-58.6578
-35.846
-36.1438
-46.4868
-33.6272
-32.4429
-32.391
-32.7654
-30.0521
-36.2743
-35.1942
-35.3068
-34.3151
20.109
20.1321
7.37845
20.2683
-82.6744
-76.4929
-80.6854
-61.6518
-29.221
-29.1979
-29.2197
-27.2976
-40.0363
-38.1466
-34.811
-40.4825
-43.523
-45.518
-69.7957
45.5763
-61.9913
-56.5569
-64.3205
-58.7275
-35.7694
-36.0631
-46.4039
-33.5549
-36.1697
-35.1027
-35.2814
-34.2867
-82.6453
-76.4618
-80.6727
-61.7075
-39.9949
-38.1307
-34.7662
-40.4869
-27.7449
-25.7746
-26.9018
-26.4103
-39.3654
-41.4033
-42.2987
-38.7319
-34.994
-34.9889
-36.9661
-33.7421
-26.4606
-26.2404
-27.9618
-24.662
-24.6737
-24.676
-24.5746
-24.8386
-42.7023
-41.5963
-40.5581
-48.6841
-24.5649
-24.5317
-20.2533
-30.3767
-63.777
-63.7741
-66.7165
-61.5665
-27.9226
-25.784
-27.0826
-26.8907
-39.3152
-41.3506
-42.2038
-38.7044
-26.4627
-26.2554
-27.9683
-24.6516
-42.7229
-42.0777
-40.5689
-48.671
-75.5955
-69.988
-70.8139
-65.7172
-75.7053
-70.1383
-70.9163
-65.832
-58.4857
-55.9712
-55.9938
-54.1929
-37.5753
-39.5671
-39.5844
-38.2266
167.002
153.936
188.797
166.794
-31.6258
-32.9684
-31.7763
-33.1968
-31.6619
-32.9988
-31.8079
-33.2236
-27.4794
-27.9186
-26.2665
-27.5793
-64.2686
-59.8527
-67.8603
-64.2685
-35.9819
-32.3896
-28.0776
-20.942
-35.9655
-32.337
-28.0971
-20.8827
-32.3185
-31.551
-31.5393
-31.0269
-39.7075
-42.2154
-42.2096
-44.7074
-23.2119
-22.6548
-21.4766
-23.0903
-12.3268
-46.8102
-52.9537
-43.6559
-131.277
-110.246
-103.419
-157.988
-91.7092
-72.4965
-92.1574
-77.567
-36.3955
-35.8094
-45.7811
-33.9129
-35.9707
-34.3697
-36.9113
-34.3523
-41.5345
-37.7494
-43.8031
-38.1176
-29.639
-39.3694
-71.499
88.0102
23.4471
22.9755
11.907
29.234
-40.2942
-58.3995
-64.3878
-31.6291
-36.6303
-36.1248
-44.958
-33.7219
-31.419
-29.7905
-31.1709
-30.3226
-47.4239
-41.3523
-46.3738
-41.2761
-132.67
-110.199
-103.274
-157.863
-10.947
-45.0136
-55.336
-41.7947
-91.2001
-72.5614
-91.9869
-77.6428
-35.8684
-33.8832
-36.8282
-34.238
-36.3263
-35.7383
-45.6782
-33.8355
-42.2113
-37.6136
-43.857
-38.156
23.791
23.0897
12.0824
29.7526
-27.3114
-39.176
-72.7281
89.4702
-40.8846
-58.7055
-64.8825
-32.0077
-31.3417
-29.7057
-31.0896
-30.2668
-36.5328
-36.0417
-44.8324
-33.6398
-47.3319
-41.3103
-46.3088
-41.2002
-42.4501
-53.4969
-45.9515
-45.6665
-30.3022
-28.4276
-28.7848
-29.7513
-35.5339
-37.3688
-38.58
-34.7851
-35.553
-35.117
-37.0883
-34.2655
-15.796
-16.1449
-8.47425
-16.4422
-23.5524
-25.2978
-24.8749
-24.5233
-22.6801
-24.6233
-25.1818
-22.3574
-23.027
-24.0822
-23.8074
-23.289
-54.5957
-59.3324
-55.6748
-49.3809
-45.9029
-43.4207
-46.267
-42.8405
-46.8243
-44.5862
-44.004
-54.0422
-35.6782
-25.6937
-25.4007
-34.6833
-37.0452
-36.3608
-31.1768
-40.2059
-30.1378
-28.3006
-30.2029
-28.2444
-41.2773
-41.6755
-39.5815
-45.0017
-52.4668
-61.069
-58.8852
-56.3911
-42.3257
-53.1909
-45.8773
-45.5279
-35.5789
-35.0943
-37.1493
-34.1506
-30.2275
-28.4131
-28.7675
-29.7556
-35.4608
-37.3206
-38.482
-34.7449
-15.7712
-16.1064
-8.3229
-16.4464
-23.0453
-24.1062
-23.8383
-23.3386
-23.5708
-25.3211
-24.8728
-24.5294
-22.6598
-24.6159
-25.1791
-22.3432
-54.5078
-59.3586
-55.6502
-49.3995
-35.6821
-25.6579
-25.3887
-34.6786
-45.8846
-43.3681
-46.2138
-42.8058
-46.7964
-44.5846
-44.0131
-54.0715
-37.0339
-36.3452
-31.1496
-40.1296
-52.4585
-61.0667
-58.8718
-56.3844
-30.1123
-28.3029
-30.1847
-28.2262
-41.131
-41.5041
-39.5327
-44.9908
-83.6349
-90.6577
-95.4885
-91.5316
153.048
138.119
151.449
142.468
-74.0588
-63.7948
-68.0595
-67.9944
25.5163
117.493
78.7977
82.5941
-66.3568
-68.4979
-71.4719
-62.1124
-57.7012
-56.3921
-58.6153
-55.141
-48.4149
-45.8072
-48.4082
-48.6859
-32.2731
-28.6624
-31.5856
-30.5031
-36.6846
-34.1041
-35.1973
-35.2263
-27.0295
-27.2469
-28.6517
-28.5672
-35.2839
-35.1292
-25.8701
-38.6423
-33.0882
-32.2223
-32.3715
-33.3763
-14.2639
-29.3367
-23.4413
-23.1918
153.866
208.793
197.443
196.674
-74.9563
-72.0117
-68.6723
-79.6747
-43.822
-40.3423
-38.9674
-40.6809
-31.8271
-35.4005
-33.7125
-33.703
-22.8919
-22.624
-24.403
-24.5211
-31.6542
-28.3673
-31.3917
-27.6331
-43.8619
-42.487
-45.0792
-40.9126
-84.0014
-90.7062
-95.4237
-91.628
152.993
138.332
142.366
151.405
-66.6451
-68.7146
-71.6412
-62.4788
-57.6578
-56.5977
-60.0218
-55.2685
-48.352
-45.763
-48.6304
-48.3693
-32.1772
-28.4629
-31.4616
-30.3532
-35.2532
-35.0939
-25.8207
-38.6233
-33.0594
-32.1973
-32.3223
-33.3747
-75.0002
-72.0884
-79.7463
-68.7239
-43.8392
-40.3444
-40.6777
-38.9794
-31.6342
-28.4268
-27.6626
-31.3254
-43.8395
-42.4735
-40.8839
-45.0566
-28.1465
-30.2386
-30.1476
-29.0674
-26.983
-27.0498
-27.6538
-26.3961
-49.4116
-55.6123
-53.3031
-54.1706
-36.3309
-34.4608
-34.5353
-36.2734
-41.4929
-49.1998
-44.4353
-44.444
-31.4579
-29.5417
-30.5243
-30.4728
-30.8774
-30.9349
-30.5668
-31.3769
-21.084
-17.3566
-17.6229
-19.5247
-24.6654
-25.1935
-24.831
-24.8327
-25.6075
-28.2301
-25.249
-25.248
-37.0676
-34.8799
-35.1689
-36.4565
-58.8226
-61.0693
-57.8449
-61.9938
-19.8377
-32.4915
-26.363
-26.3662
-40.8024
-51.4858
-45.6278
-45.6267
-71.7918
-74.4232
-73.3957
-73.396
-55.765
-50.1685
-52.664
-52.6604
-28.2051
-30.2841
-30.1984
-29.1059
-27.0336
-27.1591
-27.7324
-26.4499
-49.212
-55.533
-54.0095
-53.0498
-36.3356
-34.4814
-34.5556
-36.2828
-30.8877
-30.9579
-31.3948
-30.5848
-21.0735
-17.3252
-17.6124
-19.4998
-37.0864
-34.9023
-36.4753
-35.1832
-58.8019
-61.0682
-61.9626
-57.8484
-101.531
-94.0305
-95.8084
-86.1729
-50.3728
-45.1731
-57.6575
-53.8746
-54.754
-52.5123
-56.3765
-54.68
-70.5698
-81.0923
-86.796
-90.7651
-101.296
-93.8631
-95.6907
-86.1961
-70.8339
-81.0955
-86.7844
-90.7791
-54.6711
-52.4111
-56.3458
-54.5681
-49.8153
-44.6342
-57.0416
-53.3316
-78.1837
-72.8291
-69.611
-66.6909
-77.3817
-72.2225
-69.242
-66.1788
-45.3869
-42.1774
-49.9672
-44.8694
-45.648
-42.1825
-49.9219
-44.96
-14.0784
-26.7954
-25.0445
-30.2803
-36.8638
-27.9908
-39.7552
-30.0207
-36.934
-27.995
-39.7853
-30.0271
-14.0855
-26.8673
-24.8284
-30.3266
65.0067
38.309
119.96
130.485
158.767
153.653
157.858
169.967
153.148
158.065
170.778
157.619
37.1856
64.9679
136.391
119.531
-30.7416
-32.6049
-31.2255
-32.6274
-26.5276
-27.1799
-28.2856
-28.703
-32.3994
-34.2447
-32.4951
-33.9499
-40.1695
-40.3748
-38.1328
-38.1061
-30.7178
-32.5999
-31.2587
-32.6446
-40.1708
-40.3678
-38.1323
-38.1028
-32.4206
-34.2589
-32.5112
-33.9649
-26.5391
-27.1879
-28.3137
-28.7193
-30.3307
-31.5851
-29.4888
-30.9553
-31.6166
-30.3822
-30.9231
-29.5351
-24.4065
-24.8558
-24.8952
-25.4048
-24.8314
-24.4216
-25.3214
-24.8762
-51.4138
-45.1847
-52.241
-46.0163
-56.5768
-61.7557
-64.1938
-69.0528
-61.7504
-56.5697
-69.0483
-64.1971
-45.1712
-51.4363
-46.0157
-52.2479
-12.3627
-18.054
-12.4525
-15.3212
-47.0452
-47.0062
-47.9794
-46.3886
-51.8
-49.0918
-48.6055
-42.9269
-26.6511
-25.5223
-24.2255
-22.0802
-12.2367
-18.0168
-12.3583
-15.275
-26.6406
-25.517
-24.1931
-22.0732
-51.7364
-48.9547
-48.5153
-42.8575
-47.0423
-47.0284
-47.9666
-46.3756
-20.6615
-23.3394
-25.8695
-23.0164
-20.7708
-23.3801
-25.9258
-23.0333
-37.4989
-36.5176
-35.698
-35.058
-37.6592
-36.5898
-35.7828
-35.0963
-50.2673
-53.351
-49.5068
-52.1364
-33.7416
-36.6815
-34.5839
-37.1169
-33.6853
-36.6049
-34.5462
-37.0754
-50.249
-53.3394
-49.4878
-52.1241
-32.8444
-32.757
-32.5587
-31.2528
-32.6446
-32.7536
-31.1201
-32.4364
-29.9762
-31.5349
-28.52
-30.2232
-31.6063
-30.107
-30.4014
-28.6678
-93.3212
-64.0714
-122.706
-112.136
-101.447
-104.29
-47.2958
-34.3616
-38.2602
-35.2533
-50.8221
-41.784
-71.8825
91.3712
-1.42334
90.4099
-41.0189
-14.234
-43.9402
-34.131
-33.8906
-32.6526
-49.172
-39.7002
-122.538
-111.674
-100.472
-64.0425
-100.622
-104.135
-38.1729
-35.1683
-47.2145
-34.2718
-50.6938
-41.7141
-2.63256
79.639
-74.0555
92.2214
-41.9064
-15.1817
-33.8054
-32.5563
-43.8164
-34.1366
-49.0858
-39.7768
-41.4305
-40.0776
-31.7772
-31.6871
-37.9313
-33.2432
-37.6178
-33.9035
-18.4652
-19.8248
-23.1099
-23.5625
-22.8764
-19.9708
-23.3155
-22.1507
-53.4121
-49.7461
-49.6244
-46.0284
-46.2649
-57.7831
-40.8427
-49.9645
-34.2478
-40.1609
-35.9446
-32.9541
-39.2091
-42.7737
-47.2463
-45.3027
-41.3465
-40.0249
-37.6
-33.7406
-31.7449
-31.6199
-37.831
-33.1849
-18.4505
-19.8362
-23.3199
-22.1731
-23.0913
-23.568
-22.8548
-19.9416
-53.3313
-49.7282
-40.8244
-49.9629
-49.5999
-45.9956
-46.236
-57.7682
-34.1928
-40.1445
-47.2786
-45.2807
-35.998
-32.824
-39.2048
-42.7619
-62.8439
23.1492
-72.5378
66.4066
-62.9251
-63.7192
97.2342
131.667
-94.4419
-97.7788
-94.2982
-106.312
-81.579
-81.4909
-27.0141
-22.9265
-72.2045
-65.4058
-56.1451
-56.1698
-67.7306
-59.9296
-61.2661
-56.263
-46.4047
-33.7025
-44.1203
-33.5204
-47.7412
-48.8332
-32.9448
-32.8374
-35.3727
-31.7499
-35.2845
-31.1753
-36.8767
-36.9282
-28.662
-28.5517
-40.9084
-35.885
-19.1144
-33.1995
-30.2003
-38.2636
-33.5031
-34.3934
6.32093
37.0952
6.37405
37.2956
-5.6884
-5.43098
99.8524
99.7985
-86.5859
-48.6977
-65.6137
-56.8851
-71.6916
-85.7932
-44.1645
-48.4894
-29.6928
-28.2816
-29.6465
-28.1944
-30.4807
-30.4593
-25.2427
-25.3273
-37.6448
-41.1119
-32.4339
-40.298
-34.0134
-30.5175
-44.6898
-43.445
-64.7021
24.5944
-73.3229
67.1865
-63.3794
-64.2156
132.061
97.5031
-72.3218
-65.5731
-58.9821
-56.0708
-67.9212
-60.7808
-61.3487
-56.2934
-46.3259
-33.6331
-44.019
-33.444
-48.7496
-47.6604
-32.8742
-32.7664
-40.8703
-35.8564
-18.9485
-33.165
-30.1028
-38.2477
-33.4682
-34.3621
-86.5992
-48.8435
-65.6317
-56.887
-85.8135
-71.7515
-48.5186
-44.2142
-37.6334
-41.0553
-32.4077
-40.2868
-30.516
-33.8833
-43.4043
-44.6563
-27.9232
-28.4346
-25.0203
-25.6834
-28.4864
-26.7779
-27.4429
-26.2786
-40.4917
-36.7877
-44.1774
-40.6408
-44.0984
-45.7244
-36.4696
-38.3875
-36.6946
-33.8832
-36.6921
-33.8674
-38.9229
-38.9275
-32.614
-32.5979
-27.3758
-24.6381
-28.4759
-25.5179
-29.1167
-29.7219
-22.6372
-22.9807
-24.3221
-24.4575
-24.32
-24.4684
-24.4833
-24.4852
-24.8389
-24.841
-42.1838
-51.2946
-39.836
-46.6751
-38.126
-39.5379
-59.4725
-55.7679
-19.8816
-29.9446
-19.8581
-29.9492
-18.837
-18.8516
-35.3941
-35.3968
-65.2154
-60.5932
-65.2123
-60.5889
-69.3009
-69.2997
-58.6178
-58.6164
-27.9892
-28.139
-25.136
-25.7043
-28.403
-26.7631
-27.5731
-26.3301
-40.391
-36.7667
-44.0955
-40.6105
-45.5985
-43.9328
-36.466
-38.3781
-27.3798
-24.6316
-28.4872
-25.5025
-29.7237
-29.125
-22.6199
-22.966
-42.1976
-51.2872
-39.8351
-46.657
-39.5568
-38.1306
-55.7603
-59.4258
-82.2188
-83.9678
-73.9192
-63.5502
-67.1438
-77.2495
-58.4318
-60.0234
-82.3096
-84.0573
-74.0537
-63.7446
-77.3413
-67.2083
-60.0534
-58.5005
-61.1272
-61.1366
-58.5994
-54.3287
-58.6969
-54.3686
-53.3413
-53.3411
-34.4386
-34.4446
-37.9553
-38.8364
-38.8307
-37.9507