# vtk DataFile Version 2.0
tet_velo
ASCII
DATASET UNSTRUCTURED_GRID
POINTS 29498 float
-0.714387 0.155 -2.235
-0.551393 0.225 2.385
-0.675 0.650652 -2.225
-0.665 0.905 2.20908
0.715 0.155 -2.2348
0.551785 0.225 2.385
0.675 0.650829 -2.225
0.665 0.905 2.20908
-0.693672 0.144717 -0.695
-0.655907 0.151484 0.845
-0.755525 0.819293 -0.746973
-0.729564 0.881448 0.731054
0.69421 0.144718 -0.694867
0.656372 0.151484 0.845067
0.755467 0.819353 -0.746973
0.729531 0.881474 0.731054
-1.43739 -0.222141 -3.41197
-1.42938 -0.169946 -2.2048
-1.40524 -0.174822 -0.6632
-1.35012 -0.181647 0.890872
-1.27092 -0.133378 2.43352
-1.25009 -0.0886729 3.64583
-1.25381 -0.0470724 4.84862
-1.4344 0.0751653 -3.42928
-1.43124 0.146812 -2.22887
-1.41385 0.161686 -0.699326
-1.34893 0.16348 0.835804
-1.24723 0.213427 2.36654
-1.23112 0.257446 3.57798
-1.24179 0.298157 4.78278
-1.41892 0.636436 -3.44649
-1.4169 0.70597 -2.24349
-1.4552 0.825803 -0.756186
-1.40981 0.875988 0.72673
-1.32621 0.906617 2.21522
-1.27339 0.94796 3.42921
-1.25872 0.989188 4.64401
-1.40399 1.58564 -3.5189
-1.40578 1.66862 -2.3252
-1.42212 1.79899 -0.857977
-1.41992 1.89853 0.595887
-1.38721 1.95545 2.06375
-1.34965 1.99136 3.25878
-1.31786 2.02775 4.46682
-0.729043 -0.218175 -3.41592
-0.718842 -0.163065 -2.21058
-0.703044 -0.182509 -0.662381
-0.677842 -0.19101 0.898727
-0.621583 -0.12983 2.44723
-0.598285 -0.0862106 3.65514
-0.596545 -0.0464859 4.85402
-0.726879 0.0727288 -3.43048
-0.569344 0.260982 3.58565
-0.581315 0.299102 4.78685
-0.710884 0.612977 -3.4388
-0.602005 0.948453 3.42799
-0.590012 0.989563 4.64376
-0.690833 1.56969 -3.5113
-0.687781 1.65364 -2.31683
-0.706829 1.79509 -0.852929
-0.718866 1.90147 0.595298
-0.701285 1.95777 2.05945
-0.669077 1.99251 3.25449
-0.639335 2.02842 4.4637
0.689779 -0.218146 -3.41579
0.701686 -0.163058 -2.21042
0.685499 -0.182505 -0.662261
0.639139 -0.191007 0.898793
0.576731 -0.129828 2.44725
0.638989 -0.086207 3.65516
0.685792 -0.0464796 4.85404
0.688531 0.0727717 -3.43035
0.657387 0.260985 3.58566
0.700386 0.299108 4.78687
0.68603 0.613073 -3.43874
0.69603 0.948457 3.42801
0.718345 0.98957 4.64378
0.728649 1.56976 -3.51125
0.740022 1.65371 -2.31679
0.732318 1.79514 -0.852899
0.701546 1.9015 0.595322
0.683226 1.95778 2.05947
0.693982 1.99252 3.25451
0.713717 2.02843 4.46373
1.40024 -0.222078 -3.41174
1.412 -0.169909 -2.20454
1.39134 -0.174799 -0.662997
1.3256 -0.181634 0.890995
1.2502 -0.13337 2.43358
1.28488 -0.0886629 3.64589
1.33414 -0.0470584 4.84868
1.40239 0.0752518 -3.42906
1.42458 0.146868 -2.22862
1.4127 0.161716 -0.699134
1.34789 0.163494 0.835915
1.25384 0.213432 2.36659
1.2965 0.257455 3.57802
1.34633 0.298171 4.78284
1.40252 0.636589 -3.44635
1.41896 0.706141 -2.24338
1.45935 0.825888 -0.756101
1.41207 0.876025 0.726784
1.33679 0.906628 2.21525
1.34602 0.947972 3.42925
1.37294 0.989203 4.64406
1.43707 1.58577 -3.5188
1.44908 1.66874 -2.32511
1.44506 1.79908 -0.857909
1.4108 1.89859 0.595942
1.37993 1.95548 2.06379
1.37898 1.99139 3.25883
1.39184 2.02778 4.46687
-0.699613 0.402826 -2.23492
0.000306487 0.141427 -2.24847
-0.709865 0.144023 -1.465
-0.645883 0.565 2.33473
0.00019601 0.212032 2.39797
-0.625097 0.166795 1.615
0 0.739458 -2.31372
-0.749266 0.768976 -1.48599
0 0.99952 2.3036
-0.724484 0.920426 1.47007
0.700038 0.402915 -2.23494
0.71044 0.144025 -1.46483
0.645993 0.565 2.33464
0.625516 0.166805 1.61503
0.749157 0.769015 -1.48599
0.724476 0.920447 1.47007
-0.672186 0.150704 0.075
-0.811218 0.482005 -0.720987
0.000269131 0.142156 -0.694933
-0.814 0.516466 0.788027
0.000232656 0.149662 0.845033
-0.748542 0.856368 -0.00795996
-2.86388e-05 1.06738 -0.746973
-1.65822e-05 1.22457 0.731054
0.672688 0.150704 0.0750999
0.811237 0.482036 -0.72092
0.814003 0.516479 0.78806
0.748497 0.856412 -0.00795996
-0.870826 0.442415 -1.47549
-0.811285 0.499236 0.03352
-0.88759 0.540733 1.54253
0.000287809 0.142017 -1.46492
0.000250894 0.14952 0.07505
0.000214333 0.162115 1.61502
0.000153244 0.40287 -2.47634
9.80049e-05 0.565 2.48836
-1.43194e-05 0.881918 -1.48599
-2.26105e-05 1.21879 -0.00795996
-8.29108e-06 1.18308 1.47007
0.870824 0.442475 -1.47541
0.811274 0.499258 0.03357
0.887592 0.54074 1.54255
-1.07281 0.150906 -2.23194
-0.716614 -0.00403264 -2.22279
-0.720633 0.113864 -2.83274
-0.899314 0.219214 2.37577
-0.586488 0.0475851 2.41611
-0.560369 0.242991 2.98532
-1.04595 0.678311 -2.23425
-0.692942 0.631814 -2.8319
-0.681391 1.15215 -2.27092
-0.995605 0.905808 2.21215
-0.633503 0.926727 2.81854
-0.683142 1.43138 2.13426
0.708343 -0.0040288 -2.22261
0.701765 0.113886 -2.83258
1.06979 0.150934 -2.23171
0.564258 0.0475861 2.41612
0.604586 0.242992 2.98533
0.902814 0.219216 2.37579
0.680515 0.631951 -2.83187
0.707511 1.15227 -2.2709
1.04698 0.678485 -2.23419
0.680515 0.926729 2.81854
0.674113 1.43139 2.13427
1.00089 0.905814 2.21217
-1.05376 0.153201 -0.697163
-0.698358 -0.0188961 -0.67869
-1.00242 0.157482 0.840402
-0.666874 -0.0197629 0.871863
-1.10536 0.822548 -0.75158
-0.731177 1.30719 -0.799951
-1.06969 0.878718 0.728892
-0.724215 1.39146 0.663176
0.689854 -0.0188934 -0.678564
1.05345 0.153217 -0.697
0.647756 -0.0197613 0.87193
1.00213 0.157489 0.840491
0.743893 1.30725 -0.799936
1.10741 0.822621 -0.751537
0.715539 1.39149 0.663188
1.0708 0.87875 0.728919
-1.43339 -0.196044 -2.80838
-1.4359 -0.073488 -3.42062
-1.08322 -0.220158 -3.41394
-1.41731 -0.172384 -1.434
-1.43031 -0.0115674 -2.21684
-1.07411 -0.166506 -2.20769
-1.37768 -0.178234 0.113836
-1.40954 -0.00656816 -0.681263
-1.05414 -0.178666 -0.66279
-1.31052 -0.157512 1.6622
-1.34952 -0.00908338 0.863338
-1.01398 -0.186328 0.894799
-1.26051 -0.111025 3.03968
-1.25908 0.0400248 2.40003
-0.946254 -0.131604 2.44037
-1.25195 -0.0678727 4.24723
-1.24061 0.0843867 3.61191
-0.924188 -0.0874418 3.65049
-1.2478 0.125542 4.8157
-0.925178 -0.0467791 4.85132
-1.43282 0.110988 -2.82908
-1.42666 0.355801 -3.43788
-1.08064 0.0739471 -3.42988
-1.42255 0.154249 -1.4641
-1.42407 0.426391 -2.23618
-1.38139 0.162583 0.068239
-1.43452 0.493744 -0.727756
-1.29808 0.188454 1.60117
-1.37937 0.519734 0.781267
-1.23918 0.235437 2.97226
-1.28672 0.560022 2.29088
-1.23645 0.277802 4.18038
-1.25226 0.602703 3.5036
-0.900234 0.259214 3.58181
-1.25025 0.643672 4.7134
-0.91155 0.29863 4.78482
-1.41791 0.671203 -2.84499
-1.41146 1.11104 -3.48269
-1.0649 0.624706 -3.44264
-1.43605 0.765886 -1.49984
-1.41134 1.1873 -2.28434
-1.4325 0.850895 -0.0147277
-1.43866 1.3124 -0.807081
-1.36801 0.891302 1.47097
-1.41486 1.38726 0.661308
-1.2998 0.927288 2.82222
-1.35671 1.43103 2.13948
-1.26606 0.968574 4.03661
-1.31152 1.46966 3.344
-0.937699 0.948207 3.4286
-1.28829 1.50847 4.55541
-0.924366 0.989375 4.64388
-1.40489 1.62713 -2.92205
-1.04741 1.57767 -3.5151
-1.41395 1.73381 -1.59159
-1.04678 1.66113 -2.32101
-1.42102 1.84876 -0.131045
-1.06448 1.79704 -0.855453
-1.40356 1.92699 1.32982
-1.06939 1.9 0.595592
-1.36843 1.9734 2.66126
-1.04425 1.95661 2.0616
-1.33376 2.00956 3.8628
-1.00936 1.99193 3.25664
-0.9786 2.02809 4.46526
-0.723942 -0.19062 -2.81325
-0.727961 -0.0727232 -3.4232
-0.019632 -0.218161 -3.41585
-0.710943 -0.172787 -1.43648
-0.00857795 -0.163061 -2.2105
-0.690443 -0.18676 0.118173
-0.0087724 -0.182507 -0.662321
-0.649713 -0.16042 1.67298
-0.0193513 -0.191008 0.89876
-0.609934 -0.10802 3.05118
-0.022426 -0.129829 2.44724
-0.597415 -0.0663482 4.25458
-0.583815 0.0873858 3.62039
0.0203519 -0.0862088 3.65515
-0.58893 0.126308 4.82043
0.0446236 -0.0464827 4.85403
-0.718882 0.342853 -3.43464
-0.0191744 0.0727502 -3.43041
-0.575329 0.280042 4.18625
-0.585675 0.604718 3.50682
0.0440213 0.260983 3.58566
-0.585663 0.644332 4.7153
0.0595356 0.299105 4.78686
-0.700859 1.09133 -3.47505
-0.0124269 0.613025 -3.43877
-0.596008 0.969008 4.03588
-0.635541 1.47048 3.34124
0.0470122 0.948455 3.428
-0.614673 1.50899 4.55373
0.0641667 0.989566 4.64377
-0.689307 1.61167 -2.91407
0.0189077 1.56973 -3.51128
-0.697305 1.72437 -1.58488
0.0261204 1.65368 -2.31681
-0.712847 1.84828 -0.128815
0.0127445 1.79512 -0.852914
-0.710075 1.92962 1.32737
-0.00865985 1.90149 0.59531
-0.685181 1.97514 2.65697
-0.00902927 1.95778 2.05946
-0.654206 2.01046 3.8591
0.0124526 1.99251 3.2545
0.0371912 2.02842 4.46371
0.695732 -0.190602 -2.81311
0.689155 -0.0726872 -3.42307
1.04501 -0.220112 -3.41376
0.693592 -0.172781 -1.43634
1.05684 -0.166483 -2.20748
0.662319 -0.186756 0.118266
1.03842 -0.178652 -0.662629
0.607935 -0.160417 1.67302
0.982368 -0.18632 0.894894
0.60786 -0.108017 3.0512
0.913464 -0.131599 2.44042
0.662391 -0.0663433 4.2546
0.648188 0.0873888 3.62041
0.961934 -0.087435 3.65052
0.693089 0.126314 4.82046
1.00997 -0.046769 4.85136
0.68728 0.342923 -3.43455
1.04546 0.0740117 -3.42971
0.678886 0.280046 4.18627
0.676708 0.604721 3.50683
0.976943 0.25922 3.58184
0.709365 0.644339 4.71533
1.02336 0.298639 4.78485
0.707339 1.09142 -3.475
1.04428 0.624831 -3.44255
0.707187 0.969013 4.03589
0.695006 1.47049 3.34126
1.02103 0.948215 3.42863
0.716031 1.509 4.55375
1.04564 0.989386 4.64392
0.734335 1.61174 -2.91402
1.08286 1.57776 -3.51503
0.73617 1.72443 -1.58485
1.09455 1.66123 -2.32095
0.716932 1.84832 -0.128789
1.08869 1.79711 -0.855404
0.692386 1.92964 1.3274
1.05617 1.90004 0.595632
0.688604 1.97515 2.65699
1.03158 1.95663 2.06163
0.70385 2.01048 3.85912
1.03648 1.99195 3.25667
1.05278 2.02811 4.4653
1.40612 -0.195993 -2.80814
1.40132 -0.0734129 -3.4204
1.40167 -0.172354 -1.43377
1.41829 -0.0115204 -2.21658
1.35847 -0.178217 0.113999
1.40202 -0.00654171 -0.681065
1.2879 -0.157502 1.66229
1.33674 -0.00906975 0.863455
1.26754 -0.111016 3.03974
1.25202 0.0400313 2.40008
1.30951 -0.0678607 4.24729
1.29069 0.0843959 3.61195
1.34024 0.125556 4.81576
1.41348 0.11106 -2.82884
1.40246 0.35592 -3.43771
1.41864 0.154292 -1.46388
1.42177 0.426504 -2.236
1.3803 0.162605 0.0683909
1.43603 0.493802 -0.727618
1.30087 0.188463 1.60125
1.37998 0.51976 0.78135
1.27517 0.235444 2.9723
1.29531 0.56003 2.29092
1.32142 0.277813 4.18043
1.32126 0.602713 3.50363
1.35964 0.643687 4.71345
1.41074 0.671365 -2.84487
1.41979 1.11118 -3.48257
1.43916 0.766014 -1.49974
[...]
POINT_DATA 29498
VECTORS point_vectors float
-3.96386 -7.5762 11.4187
-0.0183973 0.213114 1.13178
-5.14997 3.8711 7.41484
0.0837932 -0.134153 0.465496
3.94091 -7.45829 11.2915
-0.138173 0.28963 1.53823
5.0547 3.74771 7.26495
-0.0685553 -0.13076 0.427947
0.000100597 2.07569e-05 0.00565636
0 0 0
0 0 0
0 0 0
-0.000104256 2.05208e-05 0.00554238
0 0 0
0 0 0
0 0 0
-0.561445 -0.270721 19.7952
-1.3318 -0.831598 20.5398
-0.31768 -0.369683 21.3095
0.0768818 -0.121039 21.4332
0.797253 0.467651 21.2898
0.944524 0.605232 20.8253
0.886468 0.355822 20.7866
-0.658444 -0.162785 19.7027
-1.86323 -0.674004 20.4179
-0.488034 -0.481089 21.3767
0.0152223 -0.281346 21.4322
1.1757 0.237578 20.9459
1.46364 0.14793 20.1096
1.15165 0.191027 19.8427
-0.662472 0.10839 19.6373
-2.11402 0.357171 20.2219
-1.08443 -0.23179 21.3204
-0.309845 -0.236316 21.5377
0.689286 -0.554912 21.3375
0.990126 -0.698367 20.8509
0.742917 -0.623694 20.4435
-0.38696 0.311324 19.8797
-0.800007 0.665198 20.2366
-0.780557 0.497418 20.9905
-0.31485 0.0914706 21.3374
0.0796295 -0.27476 21.2932
0.22244 -0.427484 20.9955
0.220497 -0.338478 20.6538
-0.511513 -0.542928 19.323
-1.64378 -3.29433 21.0908
-0.159012 -0.152231 21.1973
0.0631996 0.123464 20.191
0.294128 1.21643 18.9036
0.558565 1.53712 18.0941
0.158995 1.13996 18.377
-0.629389 -0.386069 19.0731
1.21342 1.55004 9.0163
1.50751 0.896452 11.6516
-0.673371 0.178936 18.9296
0.853647 -1.06115 7.18458
1.20764 -0.239099 14.0638
-0.306732 0.510494 19.6166
-0.785734 1.5097 20.0283
-0.917867 1.34523 20.9919
-0.351508 0.33981 21.6199
0.0133255 -0.343924 21.386
0.108537 -0.588592 21.0923
0.0308773 -0.625607 20.4871
0.489757 -0.54413 19.3225
1.60328 -3.3362 21.1376
0.157652 -0.149109 21.0739
-0.0699611 0.119189 19.8376
-0.275617 1.11804 18.4967
-0.697409 1.45292 17.8216
-0.790448 0.874011 17.3127
0.601455 -0.396946 19.0356
-1.37125 1.42363 10.553
-1.463 1.05187 11.2446
0.663421 0.181024 18.9051
-0.975277 -0.919465 9.72452
-1.08576 -0.308863 14.9325
0.319893 0.499182 19.6267
0.831725 1.46413 20.0347
0.917901 1.3015 20.997
0.343282 0.349547 21.6212
-0.0225598 -0.320148 21.3768
-0.101843 -0.536383 21.124
-0.114375 -0.554401 20.4636
0.563999 -0.283616 19.7834
1.34349 -0.858204 20.546
0.309793 -0.379898 21.3184
-0.0969217 -0.132306 21.44
-0.795403 0.452366 21.2779
-0.975687 0.459029 20.7879
-0.812045 0.342806 20.7017
0.656782 -0.178939 19.6622
1.87177 -0.685134 20.4061
0.488956 -0.482118 21.3704
-0.0164236 -0.285552 21.4214
-1.12285 0.182893 20.972
-1.33351 0.0927923 20.8223
-0.702634 5.71222e-05 19.9399
0.669415 0.114384 19.6161
2.10678 0.354678 20.2215
1.07737 -0.225953 21.3131
0.307209 -0.23432 21.5267
-0.636559 -0.534674 21.3672
-0.892061 -0.613788 20.9758
-0.729433 -0.588553 20.2165
0.385771 0.304423 19.891
0.785759 0.636118 20.2489
0.766547 0.483102 20.9844
0.314294 0.0964872 21.3404
-0.0770151 -0.260073 21.2792
-0.233829 -0.385287 21.0253
-0.158507 -0.284731 20.7293
-0.269082 -0.00460824 0.328952
-8.69752e-05 -0.027438 0.235991
-0.0123073 0.00401365 0.12486
-0.015397 -0.0196233 -0.0115922
-0.078599 0.113542 0.716346
-0.0012131 0.00431415 0.159005
4.05832e-05 0.0540208 0.24988
-0.275239 -0.091048 0.62057
-0.0052982 0.0135138 -0.0112454
0.00296723 0.00183688 0.0381044
0.267176 -0.00543896 0.324251
0.0128361 0.00426203 0.13403
0.0175775 -0.027419 -0.0140085
0.000274495 0.00421678 0.160269
0.273905 -0.0901833 0.618588
-0.00302831 0.00193719 0.0378417
2.01282e-06 9.07357e-07 0.000465728
0 0 0
-7.06606e-07 1.16355e-06 0.000500365
0.000459974 0.00573579 0.0384401
-2.01907e-06 5.85875e-07 0.000893075
0 0 0
-6.80217e-05 0.0586039 0.140564
-6.07277e-05 -0.000700995 0.0263505
-2.00722e-06 6.93179e-07 0.000358142
3.72406e-21 -1.0036e-18 -1.47855e-17
-0.000458078 0.00570386 0.038421
0 0 0
0 0 0
0 0 0
0 0 0
-1.84278e-08 -4.66271e-08 -5.40473e-06
-2.63828e-08 1.48095e-08 1.84182e-05
-7.9839e-05 0.000437099 0.0166077
-4.01983e-05 -0.114232 0.0664918
0 0 0
-4.0606e-05 0.00158873 0.0221033
-8.6569e-07 1.02238e-05 0.000466286
0 0 0
0 0 0
0 0 0
0 0 0
-3.62997 -1.89615 20.1373
-2.51914 -5.51302 21.2554
-1.89698 -1.42285 17.9489
1.16935 1.16404 11.6968
-0.00421373 1.12093 11.6175
0.454094 0.833728 6.00727
-4.24775 1.32 19.6439
-2.22975 0.789862 17.2434
-1.91042 2.83151 19.7611
0.959672 -0.568749 16.9772
-0.165385 -0.67682 4.3992
0.169128 -0.703027 19.9378
2.47603 -5.561 21.3573
1.90298 -1.48148 17.8479
3.65233 -1.92724 20.1361
-0.0444714 1.04332 11.3036
-0.65991 0.786817 6.93912
-1.16664 1.04985 11.6981
2.23839 0.818184 17.1697
1.93374 2.7385 19.7785
4.23533 1.30743 19.6534
0.0789811 -0.521519 5.71814
-0.187848 -0.638619 19.7616
-0.906912 -0.540247 17.1047
-0.120138 -0.439649 18.4529
-0.057304 0.0590402 15.1835
0.0649131 0.107412 15.2267
0.166781 0.106403 13.8716
-1.69218 -0.710796 20.9668
-2.47366 1.85877 21.0555
-0.288813 -0.210385 18.8278
-0.562996 0.235513 20.8698
0.0404711 0.0590488 15.1021
0.121546 -0.445762 18.4656
-0.1878 0.0995755 13.674
-0.0709335 0.094148 15.2231
2.44951 1.79102 21.0736
1.69337 -0.712197 20.9328
0.5428 0.249509 20.7942
0.291028 -0.215287 18.8739
-0.990416 -0.534305 19.9232
-0.609831 -0.224812 19.7645
-0.581672 -0.385346 19.5905
-0.758924 -0.603091 21.2456
-1.60059 -0.777993 20.4837
-1.78197 -1.77026 20.6241
-0.0909459 -0.23401 21.3468
-0.394267 -0.430731 21.3373
-0.144311 -0.374179 21.417
0.419081 0.120099 21.5628
0.0678763 -0.199621 21.4665
0.157145 -0.00978678 21.2131
0.956784 0.481705 21.0961
1.02248 0.37985 21.163
0.768872 1.00658 20.6469
0.997232 0.442244 20.638
1.20407 0.479589 20.5723
1.05152 1.0878 20.6972
0.960718 0.281817 20.9401
0.782763 0.695906 20.3894
-1.25734 -0.359223 19.7173
-0.672656 -0.0785843 19.6427
-0.695377 -0.277485 19.4241
-1.10283 -0.61241 21.3544
-2.19396 -0.219102 20.3026
-0.189289 -0.38315 21.4584
-0.790167 -0.459043 21.3907
0.447675 -0.081268 21.5012
-0.141386 -0.311639 21.3414
1.33915 0.254076 20.6238
1.11777 -0.321506 21.0759
1.15963 0.255194 20.5723
1.46182 -0.229805 19.8276
1.70374 0.988155 15.925
1.09859 -0.311553 18.6712
1.60179 0.522282 15.0009
-1.32111 0.213529 19.6273
-0.549324 0.268412 19.7357
-0.730998 0.112796 19.3151
-1.57512 0.0279196 21.1932
-1.37124 0.742707 20.2077
-0.677234 -0.272902 21.481
-1.11735 0.273965 21.1522
0.100978 -0.303081 21.6449
-0.374518 -0.0454634 21.4949
0.875262 -0.650967 21.1149
0.259501 -0.437012 21.3966
0.988761 -0.635181 20.3804
0.500939 -0.628675 21.0002
1.25579 -0.921679 16.8625
0.368315 -0.471972 20.6121
0.911503 -0.716519 18.3113
-0.616981 0.517359 19.9745
-0.394268 0.413725 19.7429
-0.848039 0.628121 20.682
-0.890421 1.07016 20.1417
-0.592708 0.305514 21.2496
-0.919597 0.836531 21.0137
-0.0956616 -0.0972162 21.35
-0.357732 0.19562 21.4899
0.171645 -0.393059 21.1654
0.0587986 -0.325501 21.3506
0.226708 -0.390481 20.8227
0.203807 -0.542348 21.0173
0.232924 -0.518056 20.7482
-1.24764 -1.6222 19.0126
-0.577988 -0.478189 19.1972
-0.0122753 -0.73989 19.0351
-0.424521 -0.725619 22.0873
-0.0181101 -4.13861 22.0374
-0.0550714 0.0120709 20.5238
-0.00739656 -0.287762 19.7524
0.194339 0.557775 19.3885
-0.00961269 -0.0002698 18.4862
0.424522 1.35957 18.1612
-0.049058 0.826742 16.6943
0.58658 1.40115 17.743
0.871688 1.66281 14.9717
-0.0919231 1.36626 16.6262
0.737493 1.0725 15.3944
-0.165523 1.14715 15.1258
-0.682657 -0.148138 18.9136
-0.0222743 -0.55369 18.6167
1.78001 1.22605 11.25
1.85984 0.220087 4.98313
-0.164221 0.295734 2.68407
1.92557 0.34555 8.9643
-0.073831 0.986304 9.12311
-0.490317 0.491086 19.2486
-0.0137761 0.209163 18.3865
0.922902 -1.53168 9.26511
0.330022 -1.05052 20.262
0.0643715 0.708815 -3.49811
0.125234 -1.01539 20.7606
-0.138106 -0.581647 2.9533
-0.563212 1.02146 19.5886
0.00921607 0.643209 19.4366
-0.836867 1.44256 20.6099
0.0339741 2.02224 19.9072
-0.711377 0.905514 21.5278
0.0192011 2.05548 20.9283
-0.120477 -0.0472637 21.5509
-0.0124467 0.557802 21.7724
0.0695749 -0.50795 21.2463
-0.0181638 -0.291378 21.5138
0.190509 -0.584131 20.963
-0.0131825 -0.608809 21.104
0.000815027 -0.523119 20.7971
1.2251 -1.68447 18.9794
0.558286 -0.483263 19.1701
0.579152 -0.407581 19.5759
0.433334 -0.716795 22.0517
1.79925 -1.8435 20.644
0.0489117 0.00172563 20.2552
0.131979 -0.371672 21.4213
-0.192078 0.54254 19.2841
-0.164268 0.000820383 21.1925
-0.459799 1.28577 18.0835
-0.755134 1.01111 20.5237
-0.677947 1.18689 18.7114
-1.04542 1.57689 15.2918
-1.10132 0.918851 20.4957
-1.12814 0.963938 14.2672
-0.828843 0.667205 21.1782
0.665513 -0.139655 18.8649
0.703324 -0.283084 19.3778
-1.76404 1.19501 11.9897
-1.77785 0.202959 6.72645
-1.65661 0.618189 17.7915
-1.3836 0.442088 10.5968
-1.29679 0.187825 19.1931
0.489167 0.489302 19.2524
0.743498 0.120528 19.2945
-1.09885 -1.17965 11.5773
-0.377399 -0.946264 20.1398
-1.20873 -0.854568 19.1282
-0.338908 -0.837525 20.389
-1.15714 -1.06648 19.2646
0.587282 0.992298 19.6128
0.400873 0.392156 19.752
0.863629 1.39142 20.6179
0.8937 1.02047 20.15
0.709891 0.902784 21.5234
0.915464 0.803903 21.012
0.110107 -0.0364911 21.5449
0.354501 0.204053 21.4906
-0.0889937 -0.46736 21.2481
-0.0613396 -0.305643 21.3368
-0.12718 -0.572755 20.9586
-0.214409 -0.516861 20.9935
-0.205337 -0.473371 20.8483
1.00452 -0.564384 19.9058
0.606813 -0.240811 19.7326
0.753016 -0.624046 21.2646
1.62029 -0.802515 20.4847
0.0898682 -0.246328 21.3449
0.387485 -0.437477 21.3391
-0.431582 0.110704 21.5526
-0.0772719 -0.208051 21.4644
-0.943965 0.440343 21.119
-1.00525 0.35359 21.0865
-0.817857 0.465465 20.7503
-1.15789 0.417413 20.763
-0.790173 0.145347 20.0575
1.27471 -0.376552 19.6837
0.684164 -0.0829913 19.6073
1.10305 -0.616666 21.3511
2.20332 -0.219168 20.2986
0.191084 -0.386324 21.4458
0.792051 -0.460308 21.3853
-0.435762 -0.0985743 21.4802
0.143364 -0.314436 21.3311
-1.25033 0.164185 20.9512
-1.04674 -0.327543 21.0567
-1.36429 0.187131 20.3701
-1.28192 -0.260826 20.1174
-0.740982 -0.386389 20.3523
1.32995 0.219952 19.613
0.545405 0.267548 19.7349
1.56635 0.0290694 21.1849
1.34828 0.715516 20.2177
0.671988 -0.269862 21.4745
1.09821 0.265335 21.1451
-0.094157 -0.295425 21.6236
0.373077 -0.0425516 21.4891
-0.799746 -0.590879 21.14
-0.241193 -0.415675 21.3619
-0.88138 -0.602405 20.6585
-0.475131 -0.569077 21.0736
-0.381638 -0.374672 20.5519
0.602712 0.490902 19.9959
0.838397 0.600076 20.6833
0.587526 0.302527 21.2429
0.095405 -0.0887611 21.3496
-0.163264 -0.374146 21.1552
-0.255336 -0.393406 20.8454
-1.1316 -0.48725 19.8357
-1.58843 -1.64179 18.5324
-1.22437 -0.962929 19.5734
-1.67228 -0.758233 19.1041
-0.645343 -0.344574 19.4894
-2.59038 -2.03135 20.4647
-0.921914 -0.62392 21.3033
-0.399432 -0.0828746 17.1938
-0.617729 -0.846721 21.6062
-0.983604 -1.17364 21.4909
-0.0899462 -0.43934 20.8566
-0.120188 -0.305336 21.4018
0.0297318 0.0916037 14.2081
0.0287273 -0.15785 21.283
0.038178 -0.0425484 16.4943
0.164491 -0.000864762 19.5331
0.461644 0.0252612 21.6174
0.179506 0.447318 12.7857
0.440723 0.419927 21.1509
0.156615 0.451189 12.0754
0.988561 1.23517 17.6013
1.19238 0.418328 20.8341
0.402361 1.44934 13.3212
0.980659 1.06419 20.5357
1.49186 1.06954 14.5213
1.38543 1.23143 17.7504
1.10531 0.407706 20.69
1.0245 1.29986 14.9216
1.0149 0.870604 20.4712
1.62866 0.526933 17.1581
1.26131 0.633859 17.7031
-1.34581 -0.154678 19.6263
-2.33063 -0.453869 17.1728
-1.87596 0.378157 18.8375
-0.738968 -0.112244 19.3252
-4.90693 -0.43041 19.653
-1.42489 -0.374182 21.3429
-2.33245 0.0239475 21.7456
-0.533227 -0.845636 18.0448
-0.412434 -0.411802 21.4657
-0.933846 -0.675505 19.9195
0.0666027 0.124499 14.9557
0.291436 -0.257062 21.4283
0.265425 0.087104 17.9991
1.35486 -0.0824979 11.0227
1.31924 -0.323171 20.7373
0.52954 -0.104797 2.39916
1.07413 -0.745782 17.0405
1.9252 -0.160851 14.3413
1.17802 -0.308569 20.2724
2.34801 0.687489 8.15642
1.32955 -0.965661 17.2322
1.54765 0.0203806 13.8146
-0.964901 0.504656 19.7832
-1.18806 1.39908 18.8185
-0.6524 0.750981 19.7915
-0.561706 0.371418 19.5108
-1.86762 1.50578 19.9883
-1.3023 0.54462 20.8531
-1.75824 1.86452 20.8298
-0.948595 0.999109 20.6678
-1.70234 0.632746 21.2341
-0.771079 0.0879215 21.4095
-1.69001 0.842499 21.9395
-0.696172 0.542847 21.3879
-0.530245 0.0319804 21.6945
-0.0353841 -0.205835 21.5236
-0.0386785 -0.207836 20.3968
-0.113984 -0.0838147 21.4696
0.208375 -0.613538 21.4871
0.409001 -0.560777 21.216
0.194143 -0.893864 20.0764
0.140085 -0.476912 21.1743
0.481416 -0.901595 20.8874
0.439987 -0.652847 20.9689
0.367255 -1.02744 20.5453
0.182189 -0.514654 20.8012
0.246775 -0.743683 20.6863
1.57217 -1.69032 18.4615
-0.035439 -2.63492 18.3006
-0.034289 -2.67904 16.0872
-0.0193915 -0.681754 18.7886
-0.00740082 -5.32624 23.3958
0.391631 -0.0772447 17.0192
-0.00692141 -0.861916 21.5891
-0.0073047 -0.0264188 11.4579
-0.0501029 0.0860588 14.0628
-0.00949842 -0.137988 18.7822
-0.00880947 0.0204987 10.8314
-0.204712 0.421761 12.4902
-0.0184365 0.370885 17.4768
-0.103697 0.608945 8.85743
-0.501714 1.34542 13.3667
-0.0859759 0.993767 16.0608
-0.173279 -0.0631206 1.99561
-0.144903 1.15985 10.7347
-0.940822 1.31633 16.2818
-0.187551 1.52105 14.9156
-0.14964 1.21587 6.40962
-0.263104 1.14575 12.2066
2.34597 -0.464219 17.0567
-0.0232736 1.61046 15.1332
-0.0202656 -0.202666 18.3618
-0.474388 -0.171205 2.79746
-0.0610942 0.677439 -3.25397
0.495512 -0.00474168 -3.25004
-2.23192 0.498096 10.114
-0.260876 -0.928026 -0.937282
-0.0065779 0.647379 5.12231
1.19335 1.36353 18.8368
0.0200307 1.32048 19.3817
0.00166879 0.634618 18.929
0.045956 4.34576 19.5704
1.76895 1.81473 20.8407
0.0287909 1.93293 20.5148
0.0229756 3.94178 20.3702
1.6803 0.841245 21.938
-0.00112779 1.49366 21.7211
-0.0103887 0.557007 19.1596
0.00901822 -0.187594 20.2552
-0.0138708 0.0401434 21.6799
-0.0614504 -0.454439 16.3215
-0.219774 -0.781475 20.0724
-0.0233169 -0.481177 21.2909
-0.123084 -0.862613 17.1939
-0.41657 -0.973101 20.5187
0.0170082 -0.68873 20.737
-0.139193 -1.00821 19.5193
1.14939 -0.511228 19.8134
1.22822 -1.00537 19.5317
1.69373 -0.775905 19.0484
0.643748 -0.360485 19.4683
2.61097 -2.09305 20.4723
0.919472 -0.639859 21.3138
0.602446 -0.856814 21.6249
0.988586 -1.17001 21.4801
0.0827465 -0.432244 20.8004
0.117242 -0.31279 21.3964
-0.0377479 -0.147712 21.2641
-0.0400848 -0.0530346 16.5091
-0.164484 0.0125047 19.2392
-0.464893 0.0126167 21.5978
-0.433278 0.434239 20.9601
-0.179431 0.408892 12.1261
-0.955229 1.18689 17.2744
-1.13923 0.346504 20.9948
-0.988066 0.978762 20.4984
-1.46425 0.877073 15.4346
-1.42241 0.947619 18.7107
-1.1077 0.377593 20.544
-0.888277 0.859585 20.9644
-1.3834 0.416808 18.5829
-1.06194 0.479876 20.2254
1.36277 -0.161376 19.6059
1.88759 0.38495 18.8106
0.747535 -0.118071 19.2874
4.92933 -0.435092 19.6535
1.42686 -0.376422 21.339
2.33104 0.0189954 21.7372
0.538172 -0.848342 18.1148
0.412714 -0.412776 21.4632
0.932302 -0.672653 19.9552
-0.0655621 0.116954 14.9735
-0.275826 -0.261931 21.4081
-0.252382 0.0711379 18.1221
-1.27733 -0.129167 11.0273
-1.18102 -0.331464 20.8672
-0.988172 -0.712748 18.3633
-1.83767 -0.237539 16.7493
-1.08963 -0.297749 20.3833
-1.03913 -0.982708 18.978
-1.22305 -0.436769 18.5449
0.954793 0.492791 19.7943
0.660138 0.721762 19.8085
0.556845 0.366662 19.5168
1.8224 1.43185 20.0108
1.28249 0.521978 20.8464
0.944989 0.960485 20.6697
1.66861 0.615857 21.228
0.763621 0.086937 21.4018
0.692798 0.539832 21.3818
0.527294 0.038095 21.6914
0.0398562 -0.195718 21.507
0.109116 -0.0731587 21.4656
-0.193226 -0.576334 21.4508
-0.376023 -0.516576 21.19
-0.140228 -0.443595 21.1737
-0.438348 -0.819674 21.0761
-0.517054 -0.542888 20.9798
-0.182081 -0.46987 20.915
-0.360273 -0.606099 20.4704
-1.46642 -0.929677 19.3191
-0.712554 -1.04011 21.8498
0.0723616 -0.135699 20.0203
0.475686 0.421888 18.5072
1.20418 1.25807 17.872
1.46956 0.755078 17.6184
-1.94184 -0.223018 18.8116
-1.72291 -0.781729 21.4517
-0.0962379 -0.402166 16.2123
0.248173 0.378445 14.0628
1.56802 -0.155622 13.0066
1.70679 -0.00410518 17.2746
-1.17782 0.866373 19.3769
-1.6785 1.03628 20.9151
-1.13809 0.258562 21.6828
-0.10871 -0.235756 21.6853
0.337869 -0.785366 21.2335
0.566321 -0.885474 20.3318
-0.0288932 -2.86959 17.2654
-0.0079138 -0.157689 13.2202
-0.00728975 -0.00908705 10.7951
-0.022752 0.254012 9.92917
-0.140635 0.622427 9.36258
-0.222072 1.5581 11.9891
-0.0351213 -0.734208 14.7975
0.173442 0.0217812 -3.41244
-0.155676 0.259708 -1.04199
0.0150523 2.101 18.0895
0.0327101 2.91623 20.6046
-0.000567296 2.08328 21.2309
-0.0172538 -0.0951007 17.8224
-0.0918084 -0.500282 16.7549
0.0144421 -0.759557 18.148
1.48546 -0.966565 19.2769
0.699612 -1.05212 21.8567
-0.0753085 -0.12644 19.9372
-0.480356 0.410932 18.1892
-1.22013 1.11899 17.9646
-1.14534 0.823739 19.4404
1.96185 -0.228275 18.7641
1.72357 -0.786061 21.4516
0.0977216 -0.407393 16.2547
-0.242533 0.356343 14.132
-1.44276 -0.225525 14.1257
-1.53137 -0.379718 18.0169
1.17119 0.845981 19.3954
1.65584 1.00461 20.911
1.12704 0.256538 21.6752
0.105 -0.224018 21.6696
-0.32301 -0.704546 21.2374
-0.488797 -0.814913 20.8598
-0.369592 -0.121139 0.387435
-0.00825361 -0.0974188 0.414767
-0.0533143 0.0129653 0.262311
-0.0014962 -0.00966815 -0.00178777
0 0 0
-0.031722 0.0433146 0.272435
0 0 0
-0.0661897 0.343694 0.42035
-0.0417028 0.03763 0.241794
-0.00582007 -0.0243304 0.018596
-0.0089939 0.00232005 -0.00339333
-0.00484961 -0.0388597 0.297278
0.0081495 -0.0965416 0.411323
0.395442 -0.127733 0.413169
0.0541144 0.0133768 0.270256
0 0 0
0.00187213 -0.0121493 -0.00265324
0.0258259 0.0417975 0.267656
0.0645006 0.338281 0.414111
0 0 0
0.0395499 0.0353189 0.228655
0.00644089 0.00449101 -0.0048275
0.0111292 -0.0290783 0.0140073
0.00432158 -0.0371418 0.288716
0.000449744 0.000498507 0.069083
1.51401e-05 7.11542e-06 0.00125624
0.00113789 0.00418664 0.157069
0 0 0
0.00385337 0.00502154 0.181666
-3.80468e-06 -2.07223e-07 -0.00017116
0 0 0
0 0 0
-0.372307 -0.32407 0.952723
-0.00016699 -0.000428227 0.0111008
0 0 0
-0.0112634 0.0158919 0.0412894
0 0 0
0.0054726 0.0261022 0.1078
0 0 0
0.00117302 -0.000423709 0.0145948
-0.000487461 0.000467058 0.0652775
0 0 0
-8.91094e-06 3.75436e-06 0.000673267
-0.00118019 0.00403728 0.158744
-0.00468542 0.00496213 0.182686
0 0 0
4.2699e-06 -2.09146e-07 -0.000175339
0 0 0
0.374222 -0.324921 0.958718
0.0114551 0.0161817 0.0420559
0.000165023 -0.000441839 0.0110977
0 0 0
0 0 0
-0.00116757 -0.000401127 0.0139562
-0.00550023 0.0262111 0.107605
-1.22646e-17 1.51801e-17 9.64225e-17
-0.0202332 -0.015157 0.356247
-0.0753706 -0.0257222 0.0336974
6.51506e-08 -2.8991e-08 8.46762e-06
-4.36732e-06 -0.0215774 0.00690421
0 0 0
-4.27011e-07 -1.41257e-07 -3.9754e-05
0 0 0
-0.00314478 -0.00111286 -0.000297835
-8.38944e-06 0.000247219 0.00214117
0 0 0
0 0 0
-2.36952e-05 0.000470655 0.0175905
0.000549175 -0.000191582 6.25317e-05
0.000391527 0.00858665 0.0608322
0.0171994 -0.058523 0.276232
-0.0109344 0.00223144 0.0482319
0 0 0
-6.00856e-06 -1.18753e-05 0.000218624
0.00182499 -0.000318107 0.0679668
0.000139059 -0.000131811 0.00326827
0.0765786 -0.0261153 0.0342187
0.020118 -0.0148559 0.361018
4.77308e-07 -1.29398e-07 -3.68091e-05
9.55624e-19 -1.04328e-19 -6.463e-17
0.0041652 -0.00234773 -0.000435289
0 0 0
-0.000129212 0.000468239 0.0175411
0 0 0
0.0122106 0.00252309 0.0538118
-0.017805 -0.0579382 0.283024
-0.000162864 -0.000117388 0.00301578
-0.00195328 -0.000189626 0.0707407
-0.00102459 0.00263283 0.0336438
0 0 0
1.46189e-05 -0.000147813 0.000848
0.000129659 0.00376525 0.048151
3.46524e-10 4.86631e-09 1.15105e-06
-1.26153e-08 3.08514e-08 1.04348e-05
0 0 0
-0.158498 0.0689454 0.568022
-1.81752e-08 5.44145e-09 1.05575e-05
-0.000106101 0.000469275 0.0342898
-5.308e-06 0.000211292 0.00152568
-1.23049e-05 0.000449742 0.011269
-3.7901e-21 -1.13356e-19 -3.77359e-19
-2.87092e-05 0.0161132 0.0836175
0 0 0
-6.95039e-07 6.06615e-06 -0.000136433
0 0 0
0.00105091 0.0027153 0.0354425
-2.00306e-05 -0.000163461 0.000872347
-0.000110418 0.00372735 0.0480115
0 0 0
0.157461 0.0680873 0.561675
5.09186e-07 0.000394039 0.00982651
6.83586e-06 0.000278001 0.00200997
-0.0096444 -0.0107663 0.128916
-0.0518234 -0.0317494 0.24095
0.00177606 -0.0010523 0.0744034
-0.00315583 -0.0169152 0.04376
-0.00183948 0.00721788 0.147742
5.48915e-06 0.000919888 0.00834042
0 0 0
0.000726047 0.00341466 0.0187462
-0.00655442 0.00198714 0.07223
0 0 0
0 0 0