# vtk DataFile Version 2.0
tet_velo
ASCII
DATASET UNSTRUCTURED_GRID
POINTS 29498 float
-0.655 0.335 -1.90425
-0.701791 0.315 1.835
-0.6591 0.815 -1.735
-0.795 0.825 1.74839
0.655 0.335 -1.90425
0.701796 0.315 1.835
0.659101 0.815 -1.735
0.795 0.825 1.74839
-0.77456 0.22437 -0.657833
-0.783554 0.224307 0.588583
-0.78426 0.898193 -0.57387
-0.827347 0.899313 0.58726
0.774562 0.22437 -0.657833
0.783557 0.224307 0.588583
0.784232 0.898164 -0.57387
0.827336 0.899302 0.58726
-1.42575 0.018286 -2.9034
-1.42939 0.00505196 -1.94043
-1.52378 -0.0752083 -0.691805
-1.56346 -0.0875654 0.573981
-1.52393 -0.0282467 1.82405
-1.50584 -0.0079259 2.7941
-1.50294 -0.00911698 3.75105
-1.41563 0.311494 -2.84944
-1.41622 0.319409 -1.89578
-1.53709 0.245897 -0.663753
-1.57317 0.224949 0.575951
-1.51229 0.269153 1.80961
-1.49521 0.286942 2.77846
-1.49601 0.286986 3.7382
-1.41705 0.856403 -2.71757
-1.42028 0.864593 -1.76039
-1.54741 0.896672 -0.586502
-1.60783 0.879229 0.581341
-1.57257 0.834188 1.75686
-1.52678 0.851332 2.72924
-1.5071 0.866107 3.70272
-1.45325 1.75234 -2.5839
-1.46619 1.77297 -1.63949
-1.5204 1.8161 -0.493254
-1.56983 1.82191 0.634597
-1.57644 1.78889 1.78172
-1.55647 1.77244 2.728
-1.53325 1.77146 3.69217
-0.69773 0.0256618 -2.9089
-0.675263 0.0145678 -1.94845
-0.752962 -0.0867764 -0.690729
-0.787632 -0.0877755 0.584763
-0.754605 -0.00111557 1.8429
-0.734879 0.0111265 2.80689
-0.730728 0.00134913 3.75846
-0.694583 0.313736 -2.85113
-0.713825 0.30522 2.78901
-0.71977 0.296189 3.74378
-0.695282 0.838078 -2.70703
-0.738695 0.852429 2.72754
-0.724686 0.868396 3.70236
-0.708161 1.74113 -2.57347
-0.707908 1.76302 -1.628
-0.743775 1.81673 -0.486329
-0.783513 1.82692 0.633766
-0.790375 1.78861 1.77579
-0.771724 1.77024 2.72207
-0.750409 1.76992 3.68786
0.702166 0.025658 -2.9089
0.720171 0.0145657 -1.94845
0.7765 -0.086778 -0.690729
0.763876 -0.0877765 0.584763
0.716738 -0.00111627 1.8429
0.762434 0.0111251 2.80689
0.793582 0.00134705 3.75846
0.678169 0.313732 -2.85113
0.780305 0.305219 2.78901
0.807348 0.296187 3.74378
0.680881 0.838074 -2.70703
0.812693 0.852428 2.72754
0.823109 0.868393 3.70236
0.757156 1.74112 -2.57347
0.77887 1.763 -1.628
0.799844 1.81671 -0.486329
0.800377 1.82691 0.633766
0.795587 1.78861 1.77579
0.8036 1.77023 2.72207
0.815421 1.76991 3.68786
1.42094 0.0182759 -2.9034
1.44235 0.00504259 -1.94043
1.52775 -0.0752168 -0.691805
1.54436 -0.0875705 0.573981
1.50295 -0.0282497 1.82405
1.52687 -0.00792943 2.7941
1.55751 -0.00912205 3.75105
1.39471 0.311483 -2.84944
1.40342 0.319397 -1.89578
1.52785 0.245884 -0.663753
1.56652 0.224943 0.575951
1.5132 0.269151 1.80961
1.54128 0.286939 2.77846
1.57064 0.286982 3.7382
1.39885 0.85639 -2.71757
1.40911 0.864576 -1.76039
1.54069 0.89664 -0.586502
1.60519 0.879212 0.581341
1.57863 0.834183 1.75686
1.58166 0.851327 2.72924
1.59282 0.866102 3.70272
1.49228 1.75232 -2.5839
1.52046 1.77295 -1.63949
1.56398 1.81607 -0.493255
1.58554 1.82189 0.634597
1.58602 1.78888 1.78172
1.58932 1.77243 2.728
1.5963 1.77145 3.69217
-0.704194 0.575 -1.86677
0 0.260795 -1.97846
-0.741335 0.253131 -1.28104
-0.794145 0.57 1.83744
2.5034e-06 0.309082 1.84092
-0.720983 0.291343 1.21179
5.06639e-07 0.858588 -1.77859
-0.754409 0.889326 -1.15444
0 0.948387 1.87178
-0.830139 0.881123 1.16783
0.704223 0.575 -1.8668
0.74144 0.253026 -1.28104
0.794393 0.57 1.83769
0.721647 0.290683 1.21179
0.754397 0.889313 -1.15444
0.830105 0.881088 1.16783
-0.779312 0.224084 -0.034625
-0.878489 0.561282 -0.615852
8.34465e-07 0.192635 -0.657833
-0.869032 0.56181 0.587922
1.66893e-06 0.192647 0.588583
-0.806595 0.899545 0.00669497
-1.41581e-05 1.26758 -0.57387
-5.4867e-06 1.45453 0.58726
0.779314 0.224084 -0.034625
0.878493 0.561267 -0.615852
0.869032 0.561804 0.587922
0.806586 0.899535 0.00669497
-0.854757 0.568141 -1.21774
-0.877976 0.561546 -0.013965
-0.88927 0.565905 1.18981
4.17232e-07 0.216467 -1.28104
1.2517e-06 0.192609 -0.034625
2.08616e-06 0.240111 1.21179
2.5332e-07 0.575 -2.04655
1.2517e-06 0.57 2.02973
-6.82574e-06 0.995093 -1.15444
-9.82241e-06 1.43816 0.00669497
-2.74335e-06 1.42374 1.16783
0.854749 0.568134 -1.21774
0.877897 0.561536 -0.013965
0.88927 0.565902 1.18981
-1.03561 0.327204 -1.90001
-0.665131 0.174784 -1.92635
-0.674792 0.324368 -2.37769
-1.10704 0.292077 1.82231
-0.728198 0.156942 1.83895
-0.707808 0.31011 2.31201
-1.03969 0.839797 -1.74769
-0.677191 0.826539 -2.22101
-0.683504 1.28901 -1.6815
-1.18379 0.829594 1.75263
-0.766848 0.838715 2.23797
-0.792687 1.30681 1.76209
0.687586 0.174783 -1.92635
0.666585 0.324366 -2.37769
1.02921 0.327199 -1.90001
0.709267 0.156942 1.83895
0.741051 0.31011 2.31201
1.1075 0.292076 1.82231
0.669991 0.826537 -2.22101
0.718986 1.289 -1.6815
1.03411 0.839788 -1.74769
0.803847 0.838714 2.23797
0.795294 1.3068 1.76209
1.18682 0.829592 1.75263
-1.15582 0.235133 -0.660793
-0.763761 0.0687969 -0.674281
-1.17836 0.224628 0.582267
-0.785593 0.0682655 0.586673
-1.16584 0.897433 -0.580186
-0.764017 1.35746 -0.5301
-1.21759 0.889271 0.5843
-0.80543 1.36312 0.610513
0.775531 0.0687961 -0.674281
1.15121 0.235127 -0.660793
0.773716 0.068265 0.586673
1.17504 0.224625 0.582267
0.792038 1.35744 -0.5301
1.16246 0.897402 -0.580186
0.813856 1.3631 0.610513
1.21626 0.889257 0.5843
-1.42757 0.011669 -2.42192
-1.42069 0.16489 -2.87642
-1.06174 0.0219739 -2.90615
-1.47659 -0.0350782 -1.31612
-1.42281 0.16223 -1.9181
-1.05233 0.00980987 -1.94444
-1.54362 -0.0813869 -0.0589122
-1.53044 0.0853441 -0.677779
-1.13837 -0.0809923 -0.691267
-1.54369 -0.057906 1.19901
-1.56831 0.0686919 0.574966
-1.17555 -0.0876705 0.579372
-1.51488 -0.0180863 2.30908
-1.51811 0.120453 1.81683
-1.13927 -0.0146811 1.83347
-1.50439 -0.00852144 3.27258
-1.50052 0.139508 2.78628
-1.12036 0.00160028 2.8005
-1.49948 0.138935 3.74462
-1.11683 -0.00388393 3.75476
-1.41592 0.315451 -2.37261
-1.41634 0.583948 -2.78351
-1.0551 0.312615 -2.85029
-1.47666 0.282653 -1.27977
-1.41825 0.592001 -1.82808
-1.55513 0.235423 -0.0439008
-1.54225 0.571284 -0.625128
-1.54273 0.247051 1.19278
-1.5905 0.552089 0.578646
-1.50375 0.278048 2.29404
-1.54243 0.551671 1.78324
-1.49561 0.286964 3.25833
-1.511 0.569137 2.75385
-1.10452 0.296081 2.78374
-1.50156 0.576547 3.72046
-1.10789 0.291588 3.74099
-1.41867 0.860498 -2.23898
-1.43515 1.30437 -2.65074
-1.05617 0.84724 -2.7123
-1.48385 0.880633 -1.17345
-1.44324 1.31878 -1.69994
-1.57762 0.88795 -0.00258082
-1.53391 1.35639 -0.539878
-1.5902 0.856708 1.1691
-1.58883 1.35057 0.607969
-1.54968 0.84276 2.24305
-1.57451 1.31154 1.76929
-1.51694 0.85872 3.21598
-1.54162 1.31189 2.72862
-1.13274 0.85188 2.72839
-1.52018 1.31878 3.69744
-1.11589 0.867252 3.70254
-1.45972 1.76265 -2.11169
-1.08071 1.74673 -2.57869
-1.4933 1.79454 -1.06637
-1.08705 1.76799 -1.63374
-1.54512 1.81901 0.0706713
-1.13209 1.81641 -0.489792
-1.57314 1.8054 1.20816
-1.17667 1.82442 0.634182
-1.56645 1.78067 2.25486
-1.18341 1.78875 1.77875
-1.54486 1.77195 3.21008
-1.1641 1.77134 2.72503
-1.14183 1.77069 3.69001
-0.686496 0.0201148 -2.42868
-0.696157 0.169699 -2.88002
0.00221797 0.0256599 -2.9089
-0.714112 -0.0361043 -1.31959
0.0224541 0.0145667 -1.94845
-0.770297 -0.0872759 -0.0529829
0.011769 -0.0867772 -0.690729
-0.771119 -0.0444455 1.21383
-0.0118785 -0.087776 0.584763
-0.744742 0.00500544 2.3249
-0.0189334 -0.00111592 1.8429
-0.732803 0.00623779 3.28267
-0.724352 0.158173 2.79795
0.0137774 0.0111258 2.80689
-0.725249 0.148769 3.75112
0.0314271 0.00134809 3.75846
-0.694933 0.575907 -2.77908
-0.00820696 0.313734 -2.85113
-0.716797 0.300705 3.26639
-0.72626 0.578825 2.75828
0.0332402 0.30522 2.78901
-0.722228 0.582292 3.72307
0.0437888 0.296188 3.74378
-0.701721 1.2896 -2.64025
-0.00720054 0.838076 -2.70703
-0.731691 0.860412 3.21495
-0.75521 1.31133 2.72481
0.036999 0.852428 2.72754
-0.737548 1.31916 3.69511
0.0492111 0.868394 3.70236
-0.708034 1.75207 -2.10074
0.0244976 1.74113 -2.57347
-0.725841 1.78987 -1.05716
0.0354811 1.76301 -1.628
-0.763644 1.82182 0.0737185
0.0280346 1.81672 -0.486329
-0.786944 1.80777 1.20478
0.00843228 1.82691 0.633766
-0.781049 1.77943 2.24893
0.00260621 1.78861 1.77579
-0.761067 1.77008 3.20496
0.015938 1.77023 2.72207
0.0325062 1.76991 3.68786
0.711169 0.0201119 -2.42868
0.690168 0.169695 -2.88002
1.06155 0.0219669 -2.90615
0.748335 -0.0361061 -1.31959
1.08126 0.00980416 -1.94444
0.770188 -0.0872772 -0.0529829
1.15212 -0.0809974 -0.691267
0.740307 -0.0444464 1.21383
1.15412 -0.0876735 0.579372
0.739586 0.00500442 2.3249
1.10985 -0.014683 1.83347
0.778008 0.00623608 3.28267
0.771369 0.158172 2.79795
1.14465 0.00159784 2.8005
0.800465 0.148767 3.75112
1.17555 -0.0038875 3.75476
0.679525 0.575903 -2.77908
1.03644 0.312608 -2.85029
0.793826 0.300703 3.26639
0.796499 0.578823 2.75828
1.16079 0.296079 2.78374
0.815228 0.58229 3.72307
1.18899 0.291584 3.74099
0.719018 1.2896 -2.64025
1.03987 0.847232 -2.7123
0.817901 0.86041 3.21495
0.808146 1.31133 2.72481
1.19717 0.851878 2.72839
0.819265 1.31915 3.69511
1.20796 0.867247 3.70254
0.768013 1.75206 -2.10074
1.12472 1.74672 -2.57869
0.789357 1.78986 -1.05716
1.14966 1.76798 -1.63374
0.80011 1.82181 0.0737184
1.18191 1.81639 -0.489792
0.797982 1.80776 1.20478
1.19296 1.8244 0.634181
0.799594 1.77942 2.24893
1.19081 1.78874 1.77875
0.809511 1.77007 3.20496
1.19646 1.77133 2.72503
1.20586 1.77068 3.69001
1.43164 0.0116592 -2.42191
1.40782 0.16488 -2.87642
1.48505 -0.0350871 -1.31612
1.42289 0.16222 -1.9181
1.53605 -0.0813936 -0.0589122
1.5278 0.0853337 -0.677779
1.52366 -0.0579101 1.19901
1.55544 0.0686865 0.574966
1.51491 -0.0180896 2.30908
1.50808 0.120451 1.81683
1.54219 -0.00852574 3.27258
1.53408 0.139505 2.78628
1.56408 0.13893 3.74462
1.39907 0.31544 -2.37261
1.39678 0.583937 -2.78351
1.46564 0.282641 -1.27977
1.40627 0.591987 -1.82808
1.54718 0.235414 -0.0439009
1.53427 0.571262 -0.625128
1.53986 0.247047 1.19278
1.58585 0.552078 0.578646
1.52724 0.278045 2.29404
1.54592 0.551667 1.78324
1.55596 0.28696 3.25833
1.56147 0.569133 2.75385
1.58173 0.576542 3.72046
1.40398 0.860483 -2.23898
1.44557 1.30435 -2.65074
1.4749 0.880608 -1.17345
[...]
POINT_DATA 29498
VECTORS point_vectors float
-1.486 -1.32771 2.70241
0.0633516 0.24263 1.1442
-1.35143 1.25124 3.49768
-0.0517021 -0.279864 0.482827
1.48783 -1.32917 2.70093
-0.0645629 0.241091 1.14238
1.35235 1.25242 3.50228
0.0528771 -0.28264 0.484433
-0.0165905 0.0024925 0.396187
0.0295319 -0.00453971 0.401065
0 0 0
0.00834186 0.01713 0.0982156
0.0228173 0.000924624 0.555813
-0.0295355 -0.00454626 0.399743
0 0 0
-0.00836343 0.0171292 0.0979729
-0.698145 -0.329102 19.7586
-1.35721 -0.802789 20.3466
-0.635168 -0.542568 21.3116
0.0166769 -0.21058 21.5124
0.607824 0.0401657 21.4365
0.935821 0.201615 21.1801
0.914667 0.177057 20.8716
-0.815 -0.247028 19.6514
-1.8822 -0.663242 20.2625
-0.826087 -0.571233 21.4243
-0.0194975 -0.311683 21.5882
0.749792 -0.142817 21.5707
1.10792 -0.0267792 21.2834
1.1911 -0.142754 20.8134
-0.988886 0.120716 19.592
-2.1303 0.179252 20.2884
-1.26137 -0.300674 21.4092
-0.317422 -0.371187 21.6269
0.459459 -0.461183 21.5974
0.876253 -0.517665 21.303
1.02334 -0.568847 20.9273
-0.639339 0.417316 19.9243
-1.05422 0.648188 20.3612
-1.03404 0.3932 21.1477
-0.4619 -0.0230109 21.4732
-0.0347236 -0.314418 21.4006
0.220118 -0.487705 21.2291
0.356072 -0.58504 21.0875
-0.672931 -0.676332 19.0977
-2.09228 -3.81001 20.2841
-0.348018 -0.915701 21.7641
0.225245 0.0325844 21.2216
0.86701 1.15041 19.528
1.25656 1.5101 19.8559
1.16932 1.42299 20.3977
-0.889203 -0.507786 18.6726
1.82997 1.31283 11.6781
1.99995 1.27541 14.0789
-1.191 0.457978 18.2959
0.467283 -0.78306 5.41792
1.49746 -0.331759 9.02519
-0.590164 0.926677 19.4685
-1.13813 1.77124 20.003
-1.65422 1.83704 21.3107
-0.764358 0.393521 21.9953
-0.278224 -0.346259 21.6649
-0.0198217 -0.750068 21.348
0.265856 -0.894787 18.6598
0.675873 -0.670897 19.1057
2.16089 -3.53113 20.2322
0.362213 -0.923584 21.8056
-0.21752 0.0491044 21.0683
-0.803873 1.16716 19.2071
-1.31837 1.45429 19.9643
-1.21097 1.29381 20.6041
0.881732 -0.515595 18.644
-1.93022 1.19588 13.4691
-1.95664 0.996574 15.6362
1.1765 0.458424 18.265
-0.758532 -0.807429 8.63316
-1.71271 -0.37168 12.6213
0.620982 0.888474 19.5063
1.18127 1.63588 20.044
1.654 1.7004 21.3003
0.765155 0.381596 21.9809
0.284828 -0.331751 21.657
-0.00280824 -0.737451 21.4079
-0.275358 -0.9022 19.2985
0.695359 -0.330292 19.7615
1.33893 -0.783504 20.3495
0.639088 -0.541163 21.3081
-0.0197661 -0.205496 21.5068
-0.616895 0.0500027 21.4582
-0.915004 0.198641 21.1876
-0.863078 0.138037 20.9007
0.823759 -0.255191 19.6315
1.91113 -0.686061 20.2617
0.828149 -0.578457 21.4333
0.0180401 -0.314311 21.5887
-0.745146 -0.151055 21.5686
-1.02719 -0.0417664 21.2603
-1.04055 -0.192377 20.9134
0.996111 0.123285 19.5736
2.16791 0.183633 20.2813
1.26777 -0.303969 21.4171
0.314988 -0.37179 21.6259
-0.453115 -0.459734 21.5918
-0.809339 -0.491318 21.291
-1.00079 -0.581794 20.8012
0.628812 0.391493 19.9409
1.03021 0.598766 20.3799
0.993439 0.366616 21.1323
0.455867 -0.0240627 21.4659
0.0354227 -0.31382 21.3957
-0.212593 -0.470918 21.2075
-0.343713 -0.510765 21.1539
-1.1903 0.00745442 1.27892
7.32918e-05 -0.0618295 0.237468
-0.046262 -0.0264884 1.00251
0.112659 -0.119969 0.339492
-0.000391856 0.00288511 0.0164001
0.0121438 0.00632268 0.101366
-4.19324e-05 0.0751158 0.223164
-0.116132 -0.0481847 0.273043
-0.00183049 0.000545016 -0.0114857
0.0406386 0.0234781 0.22
1.1857 0.00493118 1.28118
0.0468245 -0.0281672 1.01491
-0.119572 -0.129689 0.361096
-0.0139836 0.00705905 0.116006
0.116401 -0.048597 0.271833
-0.0395706 0.0222976 0.213283
0.0118329 -0.00317011 0.844179
-0.00436465 -0.0125999 0.393631
1.339e-05 -0.00295796 0.0550824
0 0 0
2.43079e-05 0.000181525 0.0115275
0 0 0
0.000267524 0.0292787 0.0659538
0 0 0
-0.0114961 -0.00312865 0.839676
0.00440451 -0.0112285 0.394896
0 0 0
0 0 0
0 0 0
-3.41368e-05 0.00806535 0.190862
0.00131516 -0.000513289 0.0360095
0 0 0
-2.44293e-07 1.58915e-07 -0.000295378
-3.10644e-06 0.000147978 0.00362496
3.57314e-06 -0.000357187 -0.000359033
0 0 0
-0.000147794 0.00907794 0.0615836
-3.24991e-05 0.0129348 0.0855721
-0.000396469 -0.00349633 0.0439739
0 0 0
-6.25928e-07 0.00813599 0.187814
-0.00127462 -0.000529875 0.0349093
-3.65026 -1.70831 19.9182
-3.6943 -6.33286 20.4214
-2.5054 -1.6044 17.1799
1.37004 0.144398 19.6973
0.819497 1.19672 13.2691
1.21407 0.806096 8.23812
-4.19047 0.899277 20.0186
-3.286 1.95851 16.6857
-2.3801 2.89226 19.6658
0.807102 -0.755945 20.4614
-0.310645 -1.08759 4.07271
0.309055 -0.178344 13.5085
3.77253 -5.78707 20.1438
2.50096 -1.62717 17.1232
3.70309 -1.75676 19.9125
-0.762615 1.1768 12.8705
-1.32293 0.840184 9.08888
-1.36673 0.142214 19.6679
3.28344 1.99222 16.6339
2.41431 2.71877 19.7061
4.22091 0.900193 20.0143
0.0938625 -1.1316 5.39053
-0.295818 -0.16152 13.4647
-0.797403 -0.762689 20.5384
-0.875124 -0.989804 21.8317
-0.220675 -0.685147 18.2842
0.144699 -0.388358 21.3194
0.386259 0.0617214 16.2422
-1.99726 -0.814538 21.8317
-4.39896 2.01367 21.6263
-0.360846 -0.701931 21.4931
-0.597584 0.0447748 17.7281
0.238705 -0.710431 18.5768
0.874148 -0.993268 21.8345
-0.389431 0.0724393 15.9555
-0.145911 -0.384102 21.2858
4.19473 1.78061 21.7246
1.99984 -0.829753 21.843
0.64924 0.0222953 17.8882
0.352542 -0.700879 21.4795
-1.08769 -0.57976 19.9002
-0.76902 -0.284347 19.6928
-0.749733 -0.503084 19.4892
-1.05975 -0.762347 21.0234
-1.61112 -0.758752 20.3152
-1.91479 -1.71192 20.2249
-0.274986 -0.361368 21.4641
-0.742172 -0.56722 21.3564
-0.578333 -0.81846 21.5945
0.311071 -0.0748331 21.5755
-0.000384153 -0.261502 21.5309
0.145097 -0.207042 21.7559
0.788205 0.149063 21.3132
0.679556 -0.0435084 21.5027
0.965404 0.388543 21.5455
0.938747 0.194222 21.178
1.03176 0.100756 21.2336
1.29188 0.672198 21.0549
1.07956 0.0317557 20.8176
1.34997 0.693577 21.0581
-1.37275 -0.441359 19.7371
-0.928431 -0.0665835 19.5916
-0.951696 -0.355744 19.2302
-1.45573 -0.734241 21.1245
-2.15407 -0.271565 20.2685
-0.376248 -0.428729 21.5364
-1.06121 -0.487948 21.4322
0.347363 -0.220519 21.6445
-0.158014 -0.385127 21.6108
0.953492 -0.0721755 21.4073
0.628947 -0.33703 21.6029
1.14277 0.0556066 21.0206
1.06299 -0.315584 21.3144
1.79634 0.371017 20.104
1.11313 -0.366977 21.186
1.88093 0.302481 19.8242
-1.61657 0.189035 19.7148
-0.82653 0.349852 19.7392
-1.18125 0.249296 19.0677
-1.83877 -0.12097 21.0372
-1.57742 0.607229 20.2989
-0.746615 -0.3626 21.5885
-1.31953 0.10343 21.278
0.0757087 -0.400344 21.6605
-0.468392 -0.220392 21.5909
0.669839 -0.491692 21.4473
0.162025 -0.487256 21.4923
0.999508 -0.463564 21.2777
0.462568 -0.647934 21.2896
1.38007 -0.868785 19.8203
0.592316 -0.551328 21.2432
1.4357 -0.719113 19.6225
-0.877694 0.567913 20.0734
-0.688616 0.666944 19.7061
-1.12718 0.582063 20.7595
-1.2297 1.13327 20.2087
-0.776315 0.172978 21.3935
-1.40125 0.914608 21.2473
-0.21984 -0.191645 21.4725
-0.625246 0.093349 21.7031
0.0955876 -0.400749 21.3379
-0.113623 -0.375755 21.4952
0.330121 -0.557321 20.9165
0.146499 -0.645509 21.3455
0.574106 -0.813541 20.586
-1.42449 -1.78688 18.7069
-0.784567 -0.616489 18.8823
0.00469162 -0.962699 18.6435
-0.754758 -1.7529 21.9133
0.083982 -5.37917 21.1622
-0.0726135 -0.343766 21.4175
0.00553591 -0.968064 20.8984
0.587885 0.666194 20.0238
0.0054788 0.118068 18.9361
1.04494 1.38765 19.765
0.0152378 1.0727 16.2041
1.39068 1.46374 18.837
1.53868 1.59286 16.3903
-0.026783 1.69024 17.5784
1.58463 1.3492 17.2383
-0.0835508 2.25533 18.9506
-1.11802 -0.0834923 18.3109
-0.0100875 -0.708906 17.9495
2.06941 1.65712 13.8818
1.52605 -0.0115386 6.45539
-0.0291821 1.01529 6.30895
2.3391 0.830787 12.2405
-0.152329 1.90265 10.0744
-0.908175 0.938769 18.9106
-0.0174506 0.77158 17.2731
1.58345 -0.847527 7.23738
0.391553 -0.797786 13.6373
-0.0174885 0.970418 -3.10399
0.834083 -1.20479 15.4358
-0.376699 2.48928 -0.629437
-0.860496 1.40988 19.6227
0.0203421 1.21301 19.2267
-1.44302 1.91833 20.5197
0.0770985 2.50083 19.7421
-1.31468 1.12369 21.976
0.0827956 3.51394 21.223
-0.430491 -0.0785746 21.8724
0.0105557 1.05129 22.427
-0.199436 -0.503369 21.6072
-0.0138226 0.0846514 21.0617
0.036039 -0.880157 21.5595
0.00608615 -0.327014 19.3495
-0.0114058 -0.752044 16.7982
1.44299 -1.72787 18.7639
0.785284 -0.619234 18.8763
0.74941 -0.507095 19.4877
0.802924 -1.76407 21.9007
1.88648 -1.61402 20.2271
0.0743896 -0.341453 21.4172
0.584628 -0.807575 21.5833
-0.552213 0.688972 19.9764
-0.155233 -0.201067 21.7634
-1.03754 1.38607 19.7227
-0.975753 0.438789 21.4938
-1.44806 1.39186 18.9604
-1.66425 1.45663 16.7273
-1.27166 0.627763 21.0735
-1.63213 1.19234 17.4771
-1.37018 0.592351 20.852
1.10575 -0.0853158 18.2794
0.956143 -0.362595 19.2052
-2.1527 1.46331 15.9643
-1.72391 -0.116322 8.91315
-1.66905 0.243822 20.4833
-2.27249 0.520343 14.0007
-1.94418 0.273014 19.8969
0.917274 0.926855 18.9361
1.18561 0.257859 19.0346
-1.85388 -0.859669 10.7044
-0.424275 -0.802797 15.0853
-1.26803 -0.856271 20.8768
-0.835321 -1.23286 16.2656
-1.29506 -0.710129 20.6606
0.899349 1.33089 19.6703
0.691677 0.638502 19.7334
1.46071 1.77407 20.5611
1.22294 1.04286 20.2401
1.3129 1.06081 21.9463
1.34758 0.825747 21.2391
0.426861 -0.0811983 21.8599
0.620653 0.0901652 21.6898
0.188159 -0.502332 21.5923
0.114561 -0.370531 21.4911
-0.0669807 -0.859523 21.7572
-0.15488 -0.627849 21.3264
-0.607493 -0.692689 20.3095
1.08269 -0.577306 19.9073
0.772678 -0.287697 19.6821
1.05786 -0.750368 21.0141
1.61064 -0.759896 20.3164
0.271727 -0.36049 21.4695
0.743619 -0.57093 21.3588
-0.315152 -0.0735815 21.5741
-0.000268362 -0.266109 21.5308
-0.780233 0.149211 21.3163
-0.688597 -0.0421115 21.513
-0.910564 0.162852 21.2018
-0.980022 0.079101 21.2322
-0.950829 -0.0183658 20.9022
1.39499 -0.457857 19.7166
0.941518 -0.0691086 19.5706
1.46974 -0.752576 21.1338
2.20245 -0.283229 20.2635
0.375902 -0.433056 21.5403
1.0717 -0.49451 21.4382
-0.349852 -0.221259 21.6445
0.156521 -0.387727 21.6089
-0.911933 -0.0771248 21.3813
-0.622852 -0.340097 21.5999
-1.07447 0.0518968 20.9435
-0.990089 -0.287713 21.2943
-1.07743 -0.380311 21.0694
1.63878 0.194476 19.6933
0.821931 0.345836 19.7467
1.86207 -0.122392 21.043
1.54187 0.580933 20.3043
0.743382 -0.364375 21.5905
1.28947 0.098906 21.2735
-0.0756771 -0.400597 21.6558
0.465623 -0.219474 21.5854
-0.645324 -0.483264 21.4367
-0.158014 -0.482678 21.4884
-0.90638 -0.422783 21.1589
-0.446531 -0.599655 21.2823
-0.605942 -0.551844 21.1445
0.862464 0.537317 20.0958
1.09543 0.531107 20.768
0.756219 0.16731 21.3754
0.216047 -0.189746 21.4677
-0.0964989 -0.394226 21.3346
-0.342747 -0.54849 20.8956
-1.27243 -0.519054 19.7995
-1.91756 -1.87693 18.0365
-1.34592 -1.01814 19.4844
-2.01608 -0.827048 18.9738
-0.859593 -0.434457 19.3405
-2.69241 -1.89146 20.0939
-1.25175 -0.763944 21.0716
-0.426059 -1.30665 18.1722
-1.16901 -1.34804 21.3799
-1.91367 -1.5313 21.7032
-0.704258 -0.920243 21.7286
-0.33794 -0.403646 21.4973
0.00176936 -0.104588 16.4801
-0.182831 -0.457898 21.6941
-0.245529 -0.614952 21.5396
0.173662 -0.299598 21.7059
0.328567 -0.146635 21.609
0.741922 0.772078 13.2172
0.572458 0.0681323 21.7554
0.713786 -0.213792 20.4204
1.19951 0.316861 21.0698
0.88295 0.0484784 21.3564
1.18828 1.37723 14.9348
1.16678 0.587863 21.3418
1.63219 0.259486 19.8743
1.60443 0.565566 20.7148
1.05253 0.145375 21.1203
1.7443 1.67987 17.4275
1.33869 0.657545 21.1469
1.71375 0.485982 19.5744
1.63587 0.565359 20.6471
-1.58217 -0.133407 19.6878
-3.31077 0.00798043 16.2326
-2.48315 0.613701 18.8424
-1.12478 -0.0987086 19.0906
-4.57118 -0.487513 19.8838
-1.70463 -0.460814 21.1238
-3.07294 -0.210178 21.4668
-1.25715 -0.977104 21.8255
-0.539322 -0.450418 21.5722
-1.00331 -0.863386 21.5307
0.0041439 -0.539334 20.9589
0.231186 -0.349675 21.6672
0.190154 -0.600381 20.9693
1.24342 -0.361659 19.641
0.881395 -0.317779 21.4135
0.566919 -0.886095 3.49248
1.00584 -0.867352 19.9606
1.81315 -0.326165 19.3141
1.20864 -0.326945 21.123
2.34537 0.231154 9.69826
1.4557 -0.683233 19.3907
1.92555 -0.100152 19.5539
-1.24463 0.517472 19.9039
-1.69438 1.99913 18.7956
-0.975807 0.960342 19.8703
-0.964303 0.610096 19.3727
-2.20551 1.38297 20.0488
-1.58325 0.388248 20.8478
-3.08313 2.46444 20.2965
-1.41205 1.12213 20.7001
-2.22165 0.416237 21.5311
-0.894416 -0.0927842 21.5336
-2.24354 0.117706 20.0072
-1.06566 0.476245 21.6444
-0.743432 -0.258747 21.9303
-0.123059 -0.353933 21.5785
0.259375 0.0566978 15.1583
-0.307228 -0.181928 21.6266
0.0578289 -0.709995 21.5615
0.323836 -0.562724 21.4052
0.180216 -0.395192 13.0926
0.0051761 -0.497307 21.4556
0.466414 -0.964914 21.1035
0.569595 -0.683797 21.123
0.814849 -1.27076 15.2701
0.25757 -0.759085 20.919
0.724081 -1.02268 20.7889
1.92714 -1.85783 18.0649
0.0418253 -2.88533 17.8088
-0.0221531 -2.83432 14.7752
-0.00413795 -0.864162 18.239
0.0144194 -7.52606 22.2954
0.46464 -1.41354 18.7088
0.0192614 -1.83484 21.8351
-0.0012253 -0.463483 12.4208
0.00258278 -0.103439 16.4777
0.000830097 -0.375167 19.5688
0.00744049 0.185236 11.1516
-0.693097 0.768595 12.8876
0.00260444 0.573783 17.1544
0.00926939 0.879863 7.87465
-1.22937 1.35624 15.1145
-0.00117664 1.36773 17.1865
-0.0253114 0.198719 3.47636
-0.0461813 1.44054 11.9373
-1.82564 1.56948 17.5905
-0.0366692 1.99703 18.5241
-0.0545358 2.15835 9.5637
-0.133208 2.0477 14.7991
3.32369 0.00504311 16.1559
-0.0268318 4.161 13.8574
-0.0216176 -0.0756067 17.3388
-0.754165 -0.888572 4.55323
0.0360784 -0.091366 -2.15384
-0.0502814 0.428948 -0.451191
-2.4054 0.00621628 12.0401
-0.30122 1.6058 -2.91902
-0.389046 1.97705 4.26989
1.70118 1.92347 18.8688
0.0466496 1.95314 19.3573
0.01096 1.41543 18.3673
0.0628127 4.3654 19.2627
3.06713 2.31178 20.3525
0.0714001 3.0322 20.1546
0.0952156 6.54241 19.3782
2.38341 0.0884474 20.8333
0.0450077 2.46838 22.4961
-0.00555901 -0.0117735 4.36296
-0.231947 0.0525415 15.2234
0.000686523 0.275085 21.6716
-0.036759 0.909062 -0.622267
-0.150341 -0.420552 13.9769
0.00401449 -0.0129837 20.0334
0.0823794 0.800083 -3.65875
-0.837904 -1.21732 16.0975
0.00381323 -0.772465 19.245
0.24145 0.237618 2.16706
1.27987 -0.525154 19.7926
1.33736 -0.997139 19.4997
2.04263 -0.839792 18.9348
0.865399 -0.43974 19.3291
2.66178 -1.84477 20.0998
1.25428 -0.766701 21.0721
1.17616 -1.30854 21.354
1.92017 -1.54849 21.7205
0.706961 -0.913231 21.7197
0.336667 -0.407129 21.5056
0.182578 -0.456959 21.6969
0.241951 -0.608923 21.5174
-0.180188 -0.293964 21.6707
-0.33143 -0.151307 21.6093
-0.592089 0.099664 21.7059
-0.712184 -0.211551 20.4005
-1.2137 0.344333 20.9302
-0.858884 0.0401526 21.3492
-1.16597 0.584103 21.3422
-1.57221 0.206346 20.147
-1.53048 0.474492 20.9669
-0.99727 0.138659 21.0521
-1.28882 0.55409 21.0927
-1.60616 0.272529 20.2428
-1.69456 0.517506 20.6331
1.61823 -0.139267 19.6597
2.5138 0.636388 18.8072
1.13188 -0.0960636 19.058
4.6141 -0.489906 19.8781
1.7308 -0.469041 21.1311
3.10325 -0.217744 21.4696
1.24845 -0.982907 21.8044
0.538095 -0.454493 21.5744
0.987712 -0.869001 21.5228
-0.00797402 -0.533142 20.9218
-0.232049 -0.35028 21.6653
-0.18998 -0.600319 20.9895
-1.23582 -0.368512 19.6878
-0.853149 -0.308129 21.3962
-0.963793 -0.880266 20.5789
-1.67963 -0.380668 20.1927
-1.12204 -0.292582 21.018
-1.33031 -0.669153 20.8562
-1.72183 -0.119469 20.1513
1.22819 0.504626 19.9154
0.971747 0.903334 19.9034
0.961961 0.601954 19.3864
2.16587 1.29057 20.0762
1.55541 0.364453 20.8473
1.37593 1.02947 20.7166
2.14099 0.401581 21.5156
0.881647 -0.0913693 21.524
1.03638 0.434986 21.6192
0.738753 -0.263959 21.9219
0.121163 -0.352071 21.5723
0.30627 -0.181129 21.6201
-0.0520093 -0.706573 21.5609
-0.319625 -0.551444 21.3917
-0.00825513 -0.488418 21.4455
-0.464465 -0.945483 21.2743
-0.537643 -0.656176 21.0364
-0.240307 -0.699089 20.9266
-0.616221 -0.869287 21.2942
-1.69686 -0.998282 19.1892
-1.48818 -1.49222 21.5343
-0.196278 -0.541252 21.7317
0.697797 -0.0385218 21.5347
1.45556 0.462642 20.827
1.46757 0.612417 20.7194
-2.48103 -0.195757 18.7319
-2.60898 -1.04152 21.7646
-0.456786 -0.751739 21.253
0.454568 -0.430934 20.3988
1.52102 -0.391445 19.0737
1.96099 -0.154167 19.5532
-1.61917 1.08097 19.4667
-2.41827 0.960625 20.8136
-1.45673 -0.0252266 21.9398
-0.256901 -0.488107 21.8457
0.222804 -0.819855 21.3951
0.685943 -1.00331 21.0514
0.0196052 -3.19425 16.4412
0.0025716 -0.64165 11.9211
0.00042929 -0.0794178 11.0493
-0.00251894 0.384938 8.75393
-0.0181662 0.971524 9.88886
-0.0464493 2.28494 14.4275
-0.026177 0.287998 12.5472
0.00199652 -0.727316 -0.168941
-0.296047 1.1602 0.784391
0.0328302 3.17635 18.1834
0.0791089 4.60539 19.3388
0.015658 1.20302 8.53257
-0.00558046 -0.11248 1.80647
0.0409044 0.84006 -3.01071
0.025762 0.0633636 -1.8646
1.69852 -0.996972 19.1915
1.49521 -1.47597 21.5184
0.194954 -0.537391 21.7228
-0.711863 -0.0232168 21.4781
-1.43313 0.426435 20.9274
-1.37956 0.439238 21.2545
2.51356 -0.192556 18.6864
2.62608 -1.05826 21.7818
0.444106 -0.744909 21.1963
-0.453084 -0.430209 20.3978
-1.46737 -0.424328 19.6687
-1.68693 -0.223954 20.4506
1.60617 1.03598 19.4952
2.34568 0.891332 20.8243
1.42437 -0.0266745 21.9152
0.256614 -0.488851 21.841
-0.227311 -0.809306 21.4545
-0.643414 -0.939047 21.4344
-0.973029 -0.333839 1.082
-0.00717982 -0.501133 1.14802
-0.345324 -0.98583 4.36366
0.0146406 -0.00904277 0.0149256
0.00378198 0.00957108 0.0651774
0.00847976 0.00425538 0.140536
-0.615476 0.292235 0.793997
-0.0420401 0.188311 0.499026
-0.556185 0.188432 1.55708
0.0419005 -0.0599844 0.144466
-0.0422939 -0.00869052 -0.00531841
0.00251788 -0.00722041 0.142258
0.00788204 -0.498527 1.14209
0.786895 -0.27079 0.885471
0.309222 -0.901629 4.03915
-0.00390295 0.00948039 0.0643598
-0.0143309 -0.00899023 0.0146795
-0.00863558 0.00421101 0.140743
0.0429349 0.188271 0.498999
0.617103 0.29257 0.795272
0.55729 0.190373 1.56269
0.0414727 -0.00818702 -0.00575727
-0.0416966 -0.0605044 0.144189
-0.00236747 -0.00731276 0.140919
0.0137827 -0.0213789 0.599935
-0.00801083 0.000812316 0.841499
0 0 0
-0.0110802 -0.0340002 0.205143
0.0448222 0.102082 1.02856
0.0206956 -0.0026651 0.578016
0 0 0
0 0 0
-0.0133941 -0.00771561 0.0350817
-0.00298966 -0.00243592 0.151581
0 0 0
-0.0836519 0.0871732 0.213417
0 0 0
0 0 0
0.00137283 0.00293782 0.0175778
0.0713181 0.0510968 0.636866
-0.0140417 -0.0223784 0.610845
0.0106077 -0.033075 0.202261
0.00870801 0.000921488 0.84005
0 0 0
-0.0431856 0.102061 1.07102
0 0 0
-0.0206947 -0.00265362 0.577746
0 0 0
0.0169803 -0.0101065 0.0422641
0.0844387 0.0883318 0.216184
0.00237978 0.000146117 0.152264
0 0 0
0 0 0
-0.0721469 0.051596 0.634031
9.57456e-19 -6.2278e-18 -4.38125e-17
-0.00143746 0.00303947 0.0181029
-0.223283 -0.101508 0.695168
-0.783149 0.889856 0.430451
1.23833e-07 -8.00466e-05 0.0011766
0 0 0
-0.00372215 -0.00317323 0.0727653
0.00464172 -0.0122702 0.202028
0.0024959 0.00147182 0.0509531
-0.0221057 -0.0357153 0.00613326
-4.08266e-07 -4.16982e-06 -0.000212328
-0.000362298 -0.0180118 -0.00082208
0.0106039 0.000876995 0.25295
-0.00214124 0.00201353 0.107823
0 0 0
-2.48812e-05 0.00775404 0.0349716
-0.116141 -0.140548 1.16961
-0.0586499 0.0146258 0.138494
0 0 0
-0.000410133 -0.00375535 0.0246754
-0.00102038 0.0127857 0.190143
0.0128139 -0.00810246 0.139788
0.784461 0.892142 0.4319
0.234477 -0.107055 0.729122
-0.00498633 -0.0120598 0.19908
0.00363528 -0.00310347 0.0708767
0.0207413 -0.034928 0.00607199
-0.00250513 0.00142108 0.0511498
0.00209796 0.00206766 0.109462
-0.0104819 0.000562146 0.252119
0.0572119 0.0146445 0.136386
0.117391 -0.142501 1.17034
-0.0136027 -0.00838559 0.141748
0.00103716 0.0125339 0.189649
-1.94532e-05 0.000524433 0.0146835
6.164e-05 -8.44203e-06 0.00185895
-0.105082 0.0421134 0.959107
-0.00124308 0.00692318 0.387976
0 0 0
-1.17367e-08 -6.00932e-08 1.70524e-05
-0.00402741 0.0145177 0.148615
0 0 0
-3.42051e-08 -9.36352e-09 -8.6756e-06
0 0 0
0.00164921 0.0151983 0.112054
-0.0874305 0.0593887 0.791913
-0.000242703 0.0827013 0.201074
-3.81141e-05 0.233692 0.676387
-1.69609e-05 0.00217339 0.0406319
-7.46251e-05 -0.00151587 0.0502149
-6.40211e-05 -8.7237e-06 0.00192609
2.05019e-05 0.000550321 0.0152826
0.104248 0.0416681 0.951394
0.00132332 0.00803755 0.387724
0.00327521 0.0139973 0.14894
0 0 0
0.0870757 0.0598933 0.79115
-0.00186381 0.0158091 0.116173
-0.40835 -0.262567 1.44864
-0.0904988 0.00242661 0.279461
0 0 0
9.51533e-05 -0.00647432 0.0417995
0 0 0
0.000122451 0.013075 0.151993
-0.000770378 0.00305919 0.11916