# vtk DataFile Version 2.0
tet_velo
ASCII
DATASET UNSTRUCTURED_GRID
POINTS 29498 float
-0.735 0.205 -2.04356
-0.695 0.245 2.08611
-0.665 0.737701 -1.935
-0.645 1.005 2.03138
0.735 0.205 -2.04382
0.695 0.245 2.08652
0.655 0.717807 -1.965
0.631696 1.015 2.035
-0.7568 0.1832 -0.667003
-0.761733 0.178267 0.709554
-0.781529 0.949996 -0.612873
-0.763295 1.02753 0.709253
0.756801 0.183199 -0.66704
0.761734 0.178266 0.70974
0.781166 0.950805 -0.631667
0.759454 1.03593 0.701667
-1.49595 -0.223047 -3.14114
-1.49009 -0.159256 -2.05865
-1.50344 -0.17531 -0.681756
-1.49001 -0.201091 0.704117
-1.43793 -0.166257 2.08173
-1.427 -0.131305 3.16779
-1.43525 -0.0979044 4.24684
-1.49043 0.105996 -3.11048
-1.48519 0.196388 -2.0327
-1.51269 0.207398 -0.666104
-1.49017 0.193727 0.703757
-1.41052 0.226231 2.07119
-1.41069 0.260402 3.15684
-1.42886 0.293531 4.23776
-1.46333 0.723151 -3.03174
-1.44605 0.812418 -1.9476
-1.52131 0.962319 -0.6173
-1.49093 1.0164 0.707115
-1.38517 1.01202 2.03777
-1.40031 1.04402 3.1256
-1.42965 1.08059 4.21478
-1.45411 1.79871 -2.95752
-1.45183 1.90473 -1.88425
-1.48114 2.0718 -0.566794
-1.4957 2.18892 0.737679
-1.47871 2.23274 2.05403
-1.46801 2.25374 3.125
-1.46881 2.27983 4.20734
-0.758852 -0.220181 -3.14877
-0.739647 -0.151378 -2.06664
-0.749835 -0.186543 -0.683571
-0.754461 -0.213249 0.709223
-0.722907 -0.160129 2.09234
-0.716368 -0.12721 3.17487
-0.722759 -0.0966992 4.25056
-0.761178 0.0989682 -3.11764
-0.707785 0.266089 3.16288
-0.720799 0.29509 4.24054
-0.738007 0.686584 -3.03326
-0.70051 1.04405 3.12434
-0.724899 1.08098 4.21403
-0.715039 1.77444 -2.95777
-0.704636 1.88265 -1.88349
-0.732212 2.06682 -0.567516
-0.76118 2.19524 0.734144
-0.761546 2.23722 2.04887
-0.75509 2.25585 3.12024
-0.754749 2.2812 4.20358
0.712566 -0.222027 -3.15489
0.744875 -0.151457 -2.06866
0.760062 -0.18614 -0.684632
0.750179 -0.212669 0.708766
0.705393 -0.159267 2.09236
0.697197 -0.124802 3.17482
0.697722 -0.0934811 4.24995
0.692372 0.0952697 -3.12597
0.682603 0.269173 3.16337
0.688018 0.298809 4.24021
0.673387 0.677148 -3.0509
0.656949 1.05032 3.12543
0.67297 1.08589 4.21371
0.746552 1.77025 -2.97224
0.767212 1.87931 -1.89835
0.764841 2.0675 -0.5794
0.721166 2.19949 0.726963
0.677276 2.24286 2.04535
0.668615 2.2613 3.1179
0.671509 2.28608 4.20138
1.45602 -0.226478 -3.15496
1.48829 -0.160152 -2.06787
1.51253 -0.173723 -0.687799
1.49673 -0.197935 0.701299
1.43866 -0.162184 2.08111
1.41844 -0.125712 3.16702
1.41691 -0.0913754 4.2451
1.43768 0.0997899 -3.12821
1.47711 0.193554 -2.04563
1.51542 0.209246 -0.67466
1.49922 0.198313 0.700601
1.4199 0.23177 2.07182
1.39987 0.267311 3.15695
1.40411 0.300952 4.23649
1.41693 0.710239 -3.06138
1.4387 0.798297 -1.98157
1.52468 0.963943 -0.641072
1.49307 1.02716 0.697166
1.37973 1.02501 2.03849
1.37136 1.05507 3.12594
1.38637 1.08997 4.21333
1.47999 1.79189 -2.98449
1.50123 1.89974 -1.91141
1.50812 2.07347 -0.588746
1.46644 2.1967 0.723823
1.41146 2.24308 2.04655
1.39329 2.26396 3.11976
1.39294 2.28919 4.20253
-0.730787 0.47135 -2.02007
0 0.21147 -2.03722
-0.757001 0.182999 -1.35528
-0.72034 0.625 2.10909
0 0.226591 2.10472
-0.719387 0.220613 1.39783
-0.00500003 0.816649 -2.03889
-0.762374 0.882958 -1.27394
-0.006652 1.05421 2.0774
-0.73868 1.0508 1.37032
0.717719 0.461403 -2.02713
0.757001 0.182999 -1.35543
0.715294 0.63 2.11271
0.719399 0.220601 1.39813
0.76283 0.879053 -1.29833
0.73178 1.06167 1.36833
-0.75663 0.18337 0.021275
-0.889115 0.566598 -0.639938
5.66348e-07 0.184605 -0.667022
-0.874849 0.602898 0.709403
2.81857e-07 0.178691 0.709647
-0.777194 0.993545 0.04819
-0.000181622 1.21798 -0.62227
-0.00192022 1.40544 0.70546
0.756631 0.183369 0.02135
0.889377 0.567002 -0.649353
0.875567 0.607096 0.705703
0.775454 0.998509 0.035
-0.889548 0.518974 -1.31461
-0.89245 0.584748 0.0347325
-0.893655 0.613949 1.38407
2.83174e-07 0.185176 -1.35536
4.24103e-07 0.184729 0.0213125
1.40929e-07 0.165804 1.39798
-0.00250001 0.466377 -2.31877
-0.003326 0.6275 2.27269
-0.00259082 0.958566 -1.28614
-0.00105092 1.39094 0.041595
-0.00428611 1.2574 1.36933
0.889468 0.514203 -1.32688
0.892755 0.587049 0.028175
0.893859 0.618548 1.38323
-1.11009 0.200694 -2.03813
-0.737323 0.026811 -2.0551
-0.748089 0.151984 -2.5806
-1.05276 0.235616 2.07865
-0.708954 0.0424357 2.08922
-0.701392 0.255545 2.6245
-1.05553 0.77506 -1.9413
-0.701504 0.712142 -2.48413
-0.684818 1.31018 -1.90925
-1.01508 1.00851 2.03457
-0.672755 1.02453 2.57786
-0.703273 1.62111 2.04012
0.739938 0.0267716 -2.05624
0.713686 0.150135 -2.5849
1.10606 0.199277 -2.04473
0.700196 0.0428667 2.08944
0.688802 0.257086 2.62494
1.05745 0.238385 2.07917
0.664194 0.697478 -2.50795
0.711106 1.29856 -1.93168
1.04685 0.758052 -1.97329
0.644322 1.03266 2.58022
0.654486 1.62893 2.04018
1.00571 1.02001 2.03675
-1.13475 0.195299 -0.666554
-0.753317 -0.00167136 -0.675287
-1.12595 0.185997 0.706655
-0.758097 -0.0174911 0.709388
-1.15142 0.956158 -0.615087
-0.75687 1.50841 -0.590195
-1.12711 1.02197 0.708184
-0.762237 1.61138 0.721699
0.758431 -0.00147044 -0.675836
1.13611 0.196223 -0.67085
0.755957 -0.0172014 0.709253
1.13048 0.18829 0.70517
0.773003 1.50915 -0.605534
1.15292 0.957374 -0.636369
0.74031 1.61771 0.714315
1.12626 1.03154 0.699416
-1.49302 -0.191151 -2.5999
-1.49319 -0.0585256 -3.12581
-1.1274 -0.221614 -3.14496
-1.49677 -0.167283 -1.3702
-1.48764 0.0185664 -2.04568
-1.11487 -0.155317 -2.06265
-1.49673 -0.188201 0.0111806
-1.50807 0.016044 -0.67393
-1.12664 -0.180927 -0.682664
-1.46397 -0.183674 1.39292
-1.49009 -0.0036821 0.703937
-1.12224 -0.20717 0.70667
-1.43246 -0.148781 2.62476
-1.42422 0.0299873 2.07646
-1.08042 -0.163193 2.08703
-1.43112 -0.114605 3.70731
-1.41884 0.0645486 3.16231
-1.07168 -0.129258 3.17133
-1.43206 0.0978134 4.2423
-1.079 -0.0973018 4.2487
-1.48781 0.151192 -2.57159
-1.47688 0.414573 -3.07111
-1.1258 0.102482 -3.11406
-1.49894 0.201893 -1.3494
-1.46562 0.504403 -1.99015
-1.50143 0.200563 0.0188264
-1.517 0.584859 -0.641702
-1.45034 0.209979 1.38747
-1.49055 0.605065 0.705436
-1.4106 0.243317 2.61401
-1.39784 0.619127 2.05448
-1.41977 0.276967 3.6973
-1.4055 0.652211 3.14122
-1.05923 0.263246 3.15986
-1.42926 0.687062 4.22627
-1.07483 0.294311 4.23915
-1.45469 0.767785 -2.48967
-1.45872 1.26093 -2.99463
-1.10067 0.704868 -3.0325
-1.48368 0.887369 -1.28245
-1.44894 1.35857 -1.91592
-1.50612 0.989361 0.0449075
-1.50122 1.51706 -0.592047
-1.43805 1.01421 1.37244
-1.49331 1.60266 0.722397
-1.39274 1.02802 2.58168
-1.43194 1.62238 2.0459
-1.41498 1.06231 3.67019
-1.43416 1.64888 3.1253
-1.05041 1.04404 3.12497
-1.44923 1.68021 4.21106
-1.07727 1.08079 4.21441
-1.45297 1.85172 -2.42088
-1.08457 1.78657 -2.95764
-1.46648 1.98826 -1.22552
-1.07823 1.89369 -1.88387
-1.48842 2.13036 0.0854426
-1.10667 2.06931 -0.567155
-1.48721 2.21083 1.39585
-1.12844 2.19208 0.735911
-1.47336 2.24324 2.58951
-1.12013 2.23498 2.05145
-1.46841 2.26679 3.66617
-1.11155 2.2548 3.12262
-1.11178 2.28052 4.20546
-0.749249 -0.185779 -2.60771
-0.760015 -0.0606064 -3.13321
-0.0231428 -0.221104 -3.15183
-0.744741 -0.16896 -1.37511
0.00261422 -0.151417 -2.06765
-0.752148 -0.199896 0.0128257
0.00511338 -0.186341 -0.684102
-0.738684 -0.186689 1.40078
-0.00214109 -0.212959 0.708994
-0.719638 -0.143669 2.63361
-0.00875709 -0.159698 2.09235
-0.719563 -0.111955 3.71272
-0.712076 0.0694395 3.16888
-0.00958533 -0.126006 3.17484
-0.721779 0.0991957 4.24555
-0.0125182 -0.0950901 4.25025
-0.749593 0.392776 -3.07545
-0.0344029 0.097119 -3.1218
-0.714292 0.28059 3.70171
-0.704148 0.655071 3.14361
-0.0125906 0.267631 3.16313
-0.722849 0.688035 4.22729
-0.0163904 0.29695 4.24037
-0.726523 1.23051 -2.99552
-0.03231 0.681866 -3.04208
-0.712705 1.06252 3.66919
-0.7278 1.64995 3.12229
-0.0217808 1.04719 3.12489
-0.739824 1.68109 4.20881
-0.0259644 1.08344 4.21387
-0.709837 1.82854 -2.42063
0.0157566 1.77234 -2.965
-0.718424 1.97474 -1.2255
0.0312881 1.88098 -1.89092
-0.746696 2.13103 0.0833142
0.0163148 2.06716 -0.573458
-0.761363 2.21623 1.39151
-0.0200071 2.19736 0.730554
-0.758318 2.24654 2.58455
-0.042135 2.24004 2.04711
-0.754919 2.26853 3.66191
-0.0432374 2.25858 3.11907
-0.04162 2.28364 4.20248
0.728721 -0.186742 -2.61177
0.702469 -0.0633786 -3.14043
1.08429 -0.224253 -3.15492
0.752468 -0.168798 -1.37664
1.11658 -0.155805 -2.06826
0.755121 -0.199404 0.0120668
1.1363 -0.179932 -0.686215
0.727786 -0.185968 1.40056
1.12345 -0.205302 0.705033
0.701295 -0.142034 2.63359
1.07203 -0.160726 2.08673
0.69746 -0.109141 3.71238
0.6899 0.0721855 3.16909
1.05782 -0.125257 3.17092
0.69287 0.102664 4.24508
1.05732 -0.0924282 4.24753
0.68288 0.386209 -3.08844
1.06503 0.0975298 -3.12709
0.685311 0.283991 3.70179
0.669776 0.659747 3.1444
1.04124 0.268242 3.16016
0.680494 0.692352 4.22696
1.04606 0.299881 4.23835
0.70997 1.2237 -3.01157
1.04516 0.693694 -3.05614
0.66496 1.06811 3.66957
0.662782 1.65581 3.12167
1.01415 1.0527 3.12569
0.67224 1.68599 4.20754
1.02967 1.08793 4.21352
0.756882 1.82478 -2.43529
1.11327 1.78107 -2.97836
0.766027 1.9734 -1.23888
1.13422 1.88952 -1.90488
0.743003 2.13349 0.0737815
1.13648 2.07048 -0.584073
0.699221 2.22118 1.38616
1.0938 2.19809 0.725393
0.672946 2.25208 2.58163
1.04437 2.24297 2.04595
0.670062 2.27369 3.65964
1.03095 2.26263 3.11883
1.03223 2.28763 4.20196
1.47215 -0.193315 -2.61141
1.44685 -0.0633441 -3.14158
1.50041 -0.166938 -1.37783
1.4827 0.0167009 -2.05675
1.50463 -0.185829 0.00675044
1.51398 0.0177614 -0.681229
1.46769 -0.18006 1.3912
1.49797 0.000188922 0.70095
1.42855 -0.143948 2.62406
1.42928 0.0347926 2.07646
1.41768 -0.108544 3.70606
1.40916 0.0707995 3.16198
1.41051 0.104788 4.2408
1.4574 0.146672 -2.58692
1.4273 0.405014 -3.09479
1.49627 0.2014 -1.36015
1.45791 0.495925 -2.0136
1.50732 0.20378 0.0129702
1.52005 0.586595 -0.657866
1.45956 0.215041 1.38621
1.49615 0.612736 0.698883
1.40989 0.24954 2.61439
1.39981 0.628391 2.05516
1.40199 0.284132 3.69672
1.38561 0.661191 3.14145
1.39524 0.69546 4.22491
1.42782 0.754268 -2.52148
1.44846 1.25107 -3.02293
1.48169 0.88112 -1.31132
1.46997 1.34902 -1.94649
1.50888 0.995551 0.028047
[...]
POINT_DATA 29498
VECTORS point_vectors float
-3.34272 -6.43826 10.1417
0.0645587 0.364479 1.12874
-2.01833 2.28494 3.66732
-0.00495247 -0.0680105 0.162836
3.40037 -6.43331 10.19
-0.0621614 0.368225 1.13657
1.77747 2.03415 4.02164
0.00139799 -0.0439386 0.103418
-0.000550282 0.000113111 0.01893
0.00258794 7.50355e-05 0.0816373
0 0 0
0 0 0
0.000519604 0.000109823 0.018403
-0.00286456 6.68927e-05 0.0824372
0 0 0
0 0 0
-0.584779 -0.295535 19.8627
-1.20827 -0.797355 20.4989
-0.434136 -0.433618 21.3832
0.062294 -0.04553 21.5314
0.556943 0.333957 21.4385
0.783086 0.40432 21.0116
0.710823 0.330404 20.5893
-0.721636 -0.240418 19.7492
-1.80478 -0.712883 20.4372
-0.657317 -0.533445 21.4861
0.0452395 -0.175676 21.6536
0.875943 0.233156 21.4693
1.12585 0.254474 21.1566
0.94547 0.192315 20.867
-0.886721 0.0787266 19.6012
-2.25478 0.250992 20.3423
-1.2718 -0.225611 21.4858
-0.25994 -0.278625 21.7782
0.750324 -0.475406 21.5672
1.07594 -0.523331 21.23
0.830591 -0.414615 20.6376
-0.545455 0.420609 19.9304
-0.895338 0.707167 20.3971
-0.775374 0.502042 21.1279
-0.245265 0.0532252 21.5098
0.14611 -0.263003 21.3614
0.305589 -0.38903 21.1218
0.307179 -0.396073 20.7301
-0.595938 -0.69916 19.3759
-1.43205 -3.04195 20.7172
-0.24928 -0.490096 21.7104
-0.0929171 0.0620678 21.3813
0.146703 0.97581 20.3246
0.261878 1.21926 19.6121
0.270433 1.08217 19.7841
-0.765913 -0.571865 19.0119
0.639782 1.74344 10.3778
1.62566 1.05456 12.3814
-1.05899 0.184369 18.4801
1.24593 -0.347553 9.19535
1.66117 -0.635349 14.4822
-0.456373 0.776598 19.5818
-0.851566 1.54049 20.1463
-0.893107 1.42597 21.2683
-0.295815 0.234724 21.8765
0.0617585 -0.423147 21.525
0.19948 -0.54777 21.0946
0.128326 -0.416089 20.802
0.5605 -0.715824 19.3388
1.44912 -3.03226 20.7057
0.254658 -0.491814 21.7076
0.0986903 0.0604442 21.3575
-0.121537 0.965231 20.1816
-0.186654 1.20908 19.4482
-0.218556 1.12955 19.5669
0.717919 -0.626742 18.9372
-0.503034 1.66035 9.73139
-1.56549 1.12667 12.059
0.952518 0.157821 18.4148
-1.12627 -0.340056 8.03267
-1.73144 -0.640437 13.2647
0.462927 0.757762 19.5962
0.88495 1.47797 20.1501
0.916001 1.3811 21.2571
0.293974 0.267704 21.8871
-0.0423502 -0.425316 21.543
-0.166775 -0.572476 21.067
-0.113045 -0.442397 20.9162
0.579153 -0.302723 19.8449
1.20973 -0.805365 20.4979
0.454731 -0.438336 21.3788
-0.0536235 -0.0488702 21.5271
-0.554642 0.334065 21.4384
-0.789564 0.413707 21.0102
-0.709359 0.354628 20.6342
0.729904 -0.25709 19.7024
1.81543 -0.723712 20.4172
0.666144 -0.534677 21.4858
-0.0419402 -0.17814 21.6423
-0.869667 0.217548 21.4746
-1.1362 0.264204 21.1529
-0.949138 0.21314 20.9314
0.873931 0.0814205 19.5721
2.28449 0.250242 20.2811
1.28616 -0.211133 21.4774
0.270648 -0.27257 21.7823
-0.745235 -0.481328 21.5703
-1.11364 -0.555169 21.2163
-0.902836 -0.427141 20.5201
0.530517 0.396418 19.937
0.870104 0.657701 20.3941
0.764853 0.486722 21.1137
0.250714 0.059723 21.5222
-0.140976 -0.28317 21.378
-0.299457 -0.408329 21.0625
-0.241533 -0.396505 20.8199
-1.51587 -0.0955835 1.66162
1.96012e-05 -0.00200261 0.0177261
-0.0172322 0.00273981 0.324756
-0.00247776 0.00995443 0.0171362
8.86973e-06 0.000310502 0.00178442
-0.00113228 0.00547783 0.163395
-0.00165581 0.0677846 0.196204
0 0 0
4.15941e-05 0.00279917 -0.0101098
0.0138246 0.0109196 0.070629
1.46479 -0.0893437 1.63041
0.0156441 0.00253366 0.318452
0.00193286 0.00754526 0.0124395
-0.000270493 0.00603264 0.176013
0.0475076 -0.00650957 0.107802
-0.00703177 0.00546879 0.0325692
-0.00191275 0.000133494 0.0506611
-0.00016278 -0.000131086 0.0412068
8.23228e-07 -3.33662e-05 0.0113602
6.54237e-05 0.000678141 0.00289259
6.96105e-07 5.36228e-06 0.0024495
0 0 0
0.00128221 0.0444464 0.105688
0.00031981 -0.00177508 0.0278487
0.00195217 0.00013662 0.0509682
0.000116235 -2.31302e-05 0.028566
-3.05803e-19 2.85358e-18 1.15012e-17
0 0 0
0 0 0
2.30447e-05 0.00369891 0.0264935
0 0 0
5.61523e-08 2.41665e-08 -1.00549e-05
7.35594e-09 -6.84394e-10 -4.31562e-06
5.52354e-08 3.0884e-07 5.21188e-05
0.00875348 0.23448 0.173248
0 0 0
-0.00219349 0.00988558 0.0862482
-4.82472e-05 0.000955919 0.00952816
-9.24739e-05 0.00250662 -0.00367953
0 0 0
-4.32133e-05 0.00354508 0.0254465
0 0 0
-3.35657 -1.93801 20.2147
-2.2939 -4.98733 20.837
-2.10119 -1.79961 18.0133
1.13712 1.16545 17.4254
-0.033956 1.19515 14.5239
-0.0831224 1.14008 7.25222
-4.66719 1.25374 19.9004
-3.2602 1.29792 16.5802
-1.98773 2.84656 19.792
1.30844 -0.1319 17.0359
0.531055 0.113494 5.0581
0.247376 -0.865238 21.1701
2.34085 -4.98976 20.8169
2.08757 -1.91623 17.8929
3.37129 -1.95873 20.1847
0.04877 1.17847 14.3622
0.179156 1.08771 6.89232
-1.13993 1.13737 17.5431
3.13444 1.24341 16.3479
2.03958 2.76909 19.7537
4.69354 1.21888 19.7163
-0.402593 0.139587 4.30067
-0.220715 -0.867324 20.9955
-1.29834 -0.138394 16.874
-0.419317 -0.787028 20.8058
-0.183573 -0.137343 17.7331
0.131001 0.156038 19.1829
-0.185053 0.19865 16.7063
-2.17238 -0.704293 21.5866
-2.7374 2.29429 21.4505
-0.288788 -0.351051 20.4543
-0.590946 0.144825 22.2112
0.182017 -0.141101 17.7848
0.425626 -0.789351 20.8124
0.185748 0.195205 16.63
-0.128813 0.14351 19.255
2.68388 2.19608 21.4283
2.18904 -0.662302 21.6752
0.601509 0.185208 22.2065
0.320563 -0.362625 20.5562
-0.931052 -0.5548 20.0144
-0.664099 -0.283216 19.8083
-0.623665 -0.494543 19.6326
-0.861427 -0.674835 21.1796
-1.51257 -0.807578 20.4595
-1.56712 -1.62758 20.5168
-0.156723 -0.219743 21.48
-0.567667 -0.513103 21.4224
-0.304141 -0.551774 21.5669
0.297599 0.150587 21.5834
0.0444392 -0.121557 21.5627
0.070242 0.0114516 21.6443
0.682126 0.414147 21.3579
0.711798 0.322512 21.4763
0.562975 0.704813 21.4612
0.761623 0.366215 21.1548
0.978073 0.358311 21.1873
0.854544 0.885195 20.9207
0.844321 0.293631 20.7804
0.663327 0.744002 21.3902
-1.27405 -0.445861 19.8276
-0.829169 -0.134754 19.6327
-0.812043 -0.437414 19.4311
-1.26273 -0.71299 21.3275
-2.22142 -0.315657 20.387
-0.271883 -0.355545 21.5716
-0.987047 -0.485535 21.5104
0.401214 0.0153672 21.7214
-0.0666466 -0.289484 21.7737
1.04443 0.283406 21.2579
0.986999 -0.139738 21.4433
1.25038 0.186414 20.8881
1.28126 -0.182097 21.1232
1.47582 1.09124 18.5321
1.1218 -0.236149 20.5424
1.26694 0.697593 19.7075
-1.64377 0.200098 19.673
-0.757382 0.344638 19.7328
-1.02704 0.108457 19.1681
-1.81508 -0.0407393 21.1875
-1.50017 0.740733 20.3289
-0.759442 -0.294854 21.7292
-1.2181 0.338239 21.3133
0.267984 -0.314828 21.8058
-0.342253 -0.0609792 21.686
0.922209 -0.514548 21.3464
0.33498 -0.433425 21.4666
1.09004 -0.472516 20.9528
0.519448 -0.507202 21.0358
1.41485 -0.629203 19.1781
0.438921 -0.522322 20.9267
1.42733 -0.593569 19.7523
-0.74982 0.600142 20.0914
-0.548269 0.577475 19.7593
-0.912364 0.653865 20.7855
-0.951041 1.07196 20.2947
-0.546042 0.272399 21.4193
-0.930568 0.886983 21.212
-0.0050734 -0.136149 21.4345
-0.29283 0.126272 21.6718
0.234305 -0.358336 21.2092
0.138642 -0.363808 21.4074
0.253776 -0.333775 20.9919
0.263828 -0.521271 21.0081
0.188157 -0.442435 20.9379
-1.13596 -1.65168 19.2648
-0.682237 -0.643358 19.181
-0.0152877 -0.95279 19.0476
-0.564458 -1.26608 21.9972
-0.000294666 -3.48393 21.3824
-0.157257 -0.175901 21.2941
-0.000110062 -0.547223 21.6365
0.00767803 0.467019 20.8984
-0.000955594 -0.165655 20.9661
0.210348 1.11731 20.0788
-0.0027385 0.597812 19.1705
0.662748 1.41401 19.1731
0.465622 1.6409 16.4512
0.00132416 0.762491 17.8002
0.65861 1.1323 16.7303
-0.00516793 1.44758 15.9254
-0.996887 -0.278569 18.6431
-0.0392943 -0.872451 18.4363
1.22242 1.39917 11.3474
1.42087 0.695349 6.00939
-0.0433782 -0.573133 -1.44308
2.06292 0.561527 11.5089
0.0698241 0.0686342 6.46704
-0.794439 0.809056 18.9965
-0.0753578 0.317092 17.6063
1.62638 -0.745154 12.0413
0.439104 -1.09627 20.7077
0.0594903 -0.233008 -0.792331
0.480328 -0.928935 19.9357
0.0245678 -2.13702 2.63557
-0.679364 1.22467 19.7522
0.0141481 0.944719 19.3854
-0.948614 1.59705 20.6348
0.0482109 1.99794 19.9835
-0.637971 0.871255 21.7501
0.0170589 2.10111 21.2451
-0.0497648 -0.192869 21.6898
-0.00638422 0.428137 22.0349
0.135008 -0.541478 21.4106
0.00572923 -0.441281 21.5298
0.19756 -0.720646 20.6239
0.0154171 -0.702644 21.1149
-0.00637719 -0.833455 20.858
1.11867 -1.67654 19.2335
0.647332 -0.686466 19.1128
0.616864 -0.499533 19.6149
0.577079 -1.26982 21.992
1.5747 -1.62138 20.5
0.162005 -0.17751 21.2768
0.315277 -0.554843 21.5604
0.00643397 0.466024 20.8758
-0.0687676 0.0111831 21.6418
-0.172929 1.12022 19.9608
-0.559244 0.721898 21.4364
-0.612241 1.42034 18.9562
-0.395743 1.61031 16.22
-0.852644 0.898546 20.9391
-0.584146 1.18304 16.4884
-0.658606 0.756684 21.4267
0.899657 -0.280414 18.5372
0.801493 -0.448187 19.3594
-1.18748 1.42843 10.9998
-1.26517 0.58421 5.06061
-1.47565 1.14017 18.2119
-2.11599 0.596605 10.3185
-1.30416 0.723226 19.2638
0.773487 0.800405 18.9736
0.993355 0.096318 19.1182
-1.60842 -0.757404 10.7776
-0.453797 -1.09372 20.1817
-1.45204 -0.661814 18.8668
-0.496986 -0.953816 19.7573
-1.42155 -0.625437 19.6739
0.696148 1.18183 19.7647
0.549291 0.546676 19.7689
0.977003 1.51886 20.6402
0.948463 0.993196 20.2978
0.637462 0.880822 21.7463
0.926145 0.854672 21.1969
0.072398 -0.184937 21.6927
0.30169 0.142654 21.6926
-0.114661 -0.545662 21.376
-0.129916 -0.37072 21.3956
-0.182601 -0.720796 20.7552
-0.2531 -0.540854 21.0204
-0.170644 -0.44156 20.9127
0.923277 -0.5545 20.0107
0.658506 -0.285027 19.7823
0.874812 -0.67663 21.1757
1.50917 -0.820545 20.4524
0.170052 -0.229677 21.4822
0.575872 -0.520096 21.419
-0.293999 0.141363 21.5762
-0.0414198 -0.128242 21.5465
-0.683126 0.411053 21.3642
-0.706963 0.31576 21.4756
-0.770147 0.358841 21.1347
-0.987532 0.371919 21.1953
-0.853701 0.318767 20.8436
1.29175 -0.471397 19.7845
0.83294 -0.156278 19.5958
1.27679 -0.718083 21.3197
2.26456 -0.333103 20.3382
0.273318 -0.354348 21.5691
1.00079 -0.484855 21.5102
-0.399081 0.010535 21.7189
0.0740439 -0.289998 21.7708
-1.04645 0.272542 21.2573
-0.976369 -0.152209 21.4528
-1.29087 0.196156 20.8204
-1.30162 -0.207551 21.1111
-1.17967 -0.254454 20.4663
1.60977 0.183401 19.6137
0.7411 0.334461 19.7286
1.84789 -0.024937 21.1739
1.46868 0.701512 20.3074
0.774898 -0.290452 21.7264
1.20724 0.337257 21.2947
-0.256561 -0.316189 21.8087
0.351071 -0.0542683 21.7018
-0.923749 -0.540408 21.3371
-0.329949 -0.454054 21.4712
-1.11773 -0.496009 20.8396
-0.528155 -0.55607 21.0334
-0.423616 -0.515009 21.0103
0.726657 0.559065 20.0967
0.892635 0.616897 20.7768
0.556142 0.275107 21.412
0.00635854 -0.135171 21.4607
-0.21962 -0.359576 21.1997
-0.233452 -0.371492 21.024
-1.09696 -0.530053 19.9328
-1.5964 -1.89196 18.7266
-1.15935 -1.03766 19.6807
-1.7972 -0.952241 19.2117
-0.74127 -0.47064 19.5017
-2.30772 -1.96405 20.407
-1.07455 -0.72056 21.2421
-0.50412 -0.826556 19.7729
-0.820141 -1.09155 21.5266
-1.40566 -1.52801 21.9874
-0.297997 -0.69389 21.6201
-0.220627 -0.312841 21.5203
-0.183034 0.0407407 16.8342
-0.0864326 -0.245383 21.59
-0.0730694 -0.263355 19.7991
0.138882 0.0274669 21.2734
0.338721 0.0833702 21.6422
-0.124315 0.599605 15.03
0.295141 0.330052 21.668
0.422689 0.534308 18.1238
0.825605 0.95573 20.4734
0.874384 0.398262 21.2801
0.0117404 1.26992 14.8636
0.697327 0.844637 21.0911
1.28351 1.09006 18.2553
1.11642 0.968348 20.6132
1.08729 0.288568 20.7473
0.766478 1.43595 16.3753
0.923541 1.03571 20.897
1.5932 0.863281 19.0385
0.855335 0.717228 20.8535
-1.53626 -0.230841 19.7093
-3.14667 -0.729632 16.6853
-2.40524 0.473116 18.7739
-0.982588 -0.178264 19.2221
-4.98401 -0.635081 19.8853
-1.65899 -0.43962 21.3325
-2.98975 -0.225051 21.6646
-0.924898 -1.01071 20.5974
-0.488413 -0.413202 21.6944
-1.15875 -0.656175 20.9898
0.182858 0.0611416 17.9194
0.405737 -0.184215 21.7689
0.61274 0.0724181 18.8483
1.4373 0.558667 14.5276
1.18582 -0.159265 21.3038
0.0557623 0.81416 2.57398
1.33515 -0.389992 18.5887
1.92503 0.314484 17.3793
1.27714 -0.231366 21.2591
1.97671 0.675514 8.79205
1.6104 -0.624482 19.855
1.67499 0.210852 19.1137
-1.18198 0.60512 19.8783
-1.4829 1.8719 18.8635
-0.78505 0.880423 19.9209
-0.809366 0.513489 19.428
-1.97385 1.54672 20.09
-1.45438 0.561848 20.8941
-2.20599 2.33118 20.5317
-1.01781 1.04468 20.7337
-1.8876 0.803949 21.4762
-0.803196 0.125706 21.62
-1.80203 1.07674 22.536
-0.663145 0.535385 21.6043
-0.479076 -0.0095622 22.0014
0.0636482 -0.262135 21.6491
0.0688062 -0.548382 21.635
-0.0292326 -0.169234 21.5568
0.343456 -0.644876 21.6203
0.461032 -0.491222 21.3241
0.344027 -0.966222 20.9483
0.20485 -0.449417 21.2249
0.538138 -0.823538 21.3721
0.621017 -0.454149 20.8335
0.484602 -1.11284 20.0041
0.241129 -0.499644 21.0827
0.425763 -0.707272 20.7032
1.56783 -1.91402 18.6602
-0.0206446 -2.57782 18.8121
-0.0811992 -3.9557 15.9733
-0.0232251 -0.95547 18.6894
0.000410234 -4.30699 22.4634
0.511203 -0.838805 19.8132
0.00116182 -1.29971 22.2302
0.0032168 -0.207498 15.9274
0.184147 0.0399328 16.8034
-0.000696822 -0.294627 20.9556
0.000417508 -0.109681 14.1345
0.139819 0.59402 14.8978
-0.000337193 0.176097 20.0285
-0.00132835 0.490547 10.496
0.0411917 1.24097 14.4409
-0.00514093 0.531035 18.8132
-0.0474445 -1.18148 -1.81021
-0.0410095 0.734377 10.3576
-0.735119 1.45801 16.0804
0.00926183 1.04697 17.3351
-0.0301284 -0.41663 1.77146
0.0598445 1.48343 12.8443
3.07624 -0.824881 16.4541
-0.152776 3.12537 13.1562
-0.0490335 -0.414093 17.8229
0.0900501 0.837851 2.12519
-0.000814031 0.484931 -0.451073
0.0823218 -1.23261 -4.96809
-1.93545 0.714313 7.76285
0.0547644 -1.26621 0.450683
0.0873337 -1.82415 -0.23525
1.4733 1.83312 18.8348
0.0312935 1.61038 19.5492
-0.0139027 1.11314 18.5207
0.0371995 3.95607 19.5363
2.21043 2.25976 20.5547
0.048616 2.14351 20.5041
0.0307332 4.66048 21.0569
1.81253 1.11231 22.5314
-0.0020251 1.36911 21.9725
-0.0168697 0.620395 22.1859
-0.0474304 -0.556511 21.6541
-0.00241849 -0.157112 21.7516
-0.00266753 -0.668622 17.3624
-0.279773 -0.986716 20.9603
0.0115319 -0.598307 21.4058
0.00696214 -1.01737 18.36
-0.454849 -1.16628 19.7022
0.0118095 -0.609203 20.9118
0.0322185 -0.942107 18.0343
1.09751 -0.547688 19.9116
1.15887 -1.06392 19.6584
1.80938 -0.994984 19.1193
0.736775 -0.499389 19.4566
2.31297 -1.96219 20.3832
1.08159 -0.729914 21.2377
0.837647 -1.08878 21.5136
1.42391 -1.5269 21.9915
0.314997 -0.698844 21.624
0.22536 -0.320708 21.5213
0.0916113 -0.248527 21.587
0.0739422 -0.275833 19.8828
-0.133456 0.0240528 21.2721
-0.333713 0.0740875 21.6311
-0.293185 0.334068 21.6641
-0.435165 0.520014 18.2356
-0.824809 0.964507 20.4351
-0.877516 0.401078 21.2822
-0.696622 0.851775 21.0676
-1.28527 1.11128 18.1163
-1.11131 1.01998 20.2867
-1.11657 0.28961 20.7054
-0.928334 1.0553 20.87
-1.58967 0.910884 18.947
-0.887726 0.727835 20.404
1.5523 -0.236522 19.6564
2.4213 0.45509 18.6352
0.965227 -0.185567 19.1575
5.04997 -0.676011 19.7562
1.68305 -0.446203 21.3237
3.08352 -0.184723 21.7425
0.94929 -1.01848 20.6547
0.499435 -0.414035 21.695
1.20579 -0.651881 21.0871
-0.182922 0.0374858 18.0632
-0.399825 -0.187972 21.7776
-0.609665 0.0629568 18.8894
-1.43099 0.563517 14.4643
-1.1886 -0.174759 21.2838
-1.34639 -0.373016 18.2543
-1.98152 0.345324 16.7277
-1.30957 -0.257293 21.173
-1.6271 -0.677936 19.5063
-1.70098 0.228596 18.5327
1.16273 0.587465 19.8675
0.792448 0.822537 19.9273
0.795877 0.506165 19.409
1.96796 1.47479 20.0576
1.4346 0.548287 20.8754
1.01345 0.999478 20.7257
1.85505 0.774653 21.4481
0.814342 0.135206 21.6131
0.666993 0.543011 21.599
0.495613 0.00288293 22.0131
-0.0570075 -0.265501 21.6726
0.0344977 -0.170724 21.5714
-0.334853 -0.667333 21.6424
-0.45721 -0.51886 21.3101
-0.200865 -0.47402 21.2298
-0.515261 -0.849623 21.4216
-0.64089 -0.490596 20.7737
-0.232202 -0.523954 21.082
-0.413614 -0.744303 20.6031
-1.45049 -1.05628 19.4642
-0.994072 -1.30497 21.7594
-0.0421013 -0.293758 21.3944
0.41033 0.431449 20.8247
0.982162 0.97237 20.5795
1.20933 1.03427 20.5434
-2.33907 -0.355142 18.8016
-2.22074 -1.0308 22.0714
-0.232856 -0.507919 18.9736
0.530995 0.536546 16.7121
1.57967 0.418989 15.9176
1.87965 0.239623 17.4577
-1.43752 1.05873 19.4731
-1.98616 1.17151 20.8527
-1.24162 0.366223 21.9674
0.0658327 -0.365196 21.8648
0.469293 -0.739809 21.3882
0.68107 -0.80847 21.1183
-0.0297443 -3.38408 17.8384
0.0054752 -0.756797 18.4025
0.000883738 -0.107259 14.6533
0.00285028 0.133824 12.626
-0.0231812 -0.0689013 9.51389
-0.0146797 0.902169 10.0178
-0.118158 -1.25184 12.8324
-0.021595 -0.560204 -3.57391
0.160649 -1.5422 -2.48565
0.00805247 2.86774 18.269
0.0380841 3.62082 19.9695
-0.00659951 2.73062 22.836
-0.0114637 -0.408293 20.1558
-0.00210423 -0.793696 17.9033
0.00949805 -1.41639 18.0944
1.46819 -1.10296 19.4122
1.01271 -1.30471 21.7464
0.0497094 -0.299659 21.4045
-0.410999 0.433343 20.7963
-0.965168 0.999237 20.3849
-1.21386 1.07822 20.4455
2.33772 -0.386887 18.6908
2.28096 -1.05361 22.1129
0.242321 -0.542738 19.1468
-0.534199 0.536557 16.7483
-1.56195 0.441578 15.3991
-1.90893 0.259177 16.8388
1.41503 1.01353 19.4551
1.96736 1.13554 20.8434
1.26285 0.387609 21.9603
-0.054617 -0.372139 21.8842
-0.462509 -0.760188 21.3844
-0.625996 -0.846649 21.2775
0 0 0
-0.00060657 -0.00254704 0.0210943
-0.0509242 0.00170521 0.504515
0.0042694 -0.0026459 0.0065018
-0.0227393 0.0166981 0.0550512
-0.0308941 0.020089 0.401668
-0.595569 0.221213 0.761981
-0.0138937 0.137808 0.358546
0 0 0
-0.00084001 0.00286856 0.0110937
0.00155065 0.00118271 -0.0152755
0.00096088 -0.00419548 0.0209792
0.000768291 -0.00242981 0.0202185
0 0 0
0.0512759 0.00211229 0.493615
0 0 0
-0.00304761 -0.00189782 0.00456112
0.0308613 0.0204972 0.407827
0.0232411 0.211045 0.475835
0.783963 0.276323 0.92057
0 0 0
-0.00183706 0.00161004 -0.0189335
-2.57172e-18 -1.26205e-18 1.71041e-19
-2.07381e-05 -0.000126945 0.00101875
0.00666293 -0.00115518 0.289181
-0.00122582 0.000137749 0.054592
6.70577e-06 0.000176042 0.00361625
0 0 0
-0.00683597 0.0222301 0.187356
-0.00737087 -0.00444227 0.142684
0 0 0
-0.000293913 -1.28566e-05 0.00647324
-0.346546 -0.142496 0.539946
-0.0112065 0.0366614 0.353645
0 0 0
-0.0114028 0.0146913 0.0386191
0.00197966 0.00287924 0.0101272
0.00647945 0.0280529 0.108333
0 0 0
0.0278623 -0.00389498 0.163774
-0.00734644 -0.00132006 0.285272
0 0 0
0.00123495 0.000137361 0.0542791
-9.02173e-06 0.000188847 0.00415251
0.00780155 0.023178 0.186754
0.000494027 -1.47024e-05 0.0100124
0.00738339 -0.00444948 0.142839
0 0 0
0.2417 -0.0928195 0.374901
0.00830589 0.0106523 0.0280369
0.00896514 0.00887973 0.414166
0 0 0
0 0 0
-0.0210836 -0.00310547 0.127043
-0.0117968 0.0513114 0.196591
0 0 0
-0.00286693 -0.00192039 0.0176096
-0.716291 -0.0587753 0.524277
0 0 0
0 0 0
1.35005e-18 -3.8578e-18 -5.00132e-17
0 0 0
0.00186702 -0.00030559 0.00602912
-0.188272 0.0950392 -0.0654313
1.27202e-05 0.000694294 0.0145814
0 0 0
0.000183749 0.00359439 0.0300304
-0.000804841 -7.83459e-05 0.106064
0.00181017 0.445858 0.233853
-3.98119e-06 0.0195764 0.0886942
-0.00107233 -0.00407777 0.0418821
-0.00551645 0.00289192 0.0222408
-0.0047452 0.0520971 -0.0101516
0 0 0
-4.81755e-18 -5.01149e-18 -4.94793e-17
-5.09758e-05 -0.00464976 0.0140468
1.0823 -0.441969 0.804205
0.026635 -0.0211431 0.174889
0 0 0
0 0 0
0.168867 0.0836348 -0.0621081
0 0 0
0.000890503 -0.000189017 0.117423
-7.79867e-05 0.00187741 0.0153899
0.0206809 0.0105409 0.0838934
0.00213646 -0.00719751 0.0749786
5.14496e-05 -0.00395206 0.0119357
0 0 0
-0.001132 0.00910822 0.0990675
-8.10528e-05 -1.22445e-05 0.00694539
0.000320357 -0.00140554 0.0336409
0.00101079 0.0057669 0.0490459
1.31826e-07 2.20521e-07 0.000282367
2.4787e-08 1.19017e-08 1.89514e-05
0.00160604 0.0089714 0.0591412
0 0 0
4.62794e-06 -0.00441227 0.103972
1.47406e-09 -5.54741e-08 1.46383e-05
0.00125122 0.0137609 0.0585644
-0.00137324 0.0024976 0.0344334
-0.000118574 0.0106892 0.0243479
-0.000979784 0.0594195 0.204427
0.000168482 0.00138035 0.0485866
-2.98148e-05 -0.0110855 0.0926995
7.68978e-05 -1.15257e-05 0.00614881
0.00124933 0.01091 0.112365
0 0 0
2.99301e-08 6.61799e-06 5.38785e-05
-0.00145544 0.00826001 0.0535907
7.51546e-06 2.31046e-05 0.000162597
0.00372975 0.0065383 0.0923442
0 0 0
-2.2442e-17 -2.05478e-17 2.94669e-16
-0.164939 -0.0729956 0.61603
-0.000735758 0.00305039 0.0662615
0 0 0
-0.000234109 0.0024319 0.0290009
0.0126268 0.0424321 0.345842
0.00136326 0.0158669 0.112923
0.0106374 0.0345332 0.142578
0 0 0