# vtk DataFile Version 2.0
tri_press
ASCII
DATASET UNSTRUCTURED_GRID
POINTS 3682 float
-0.725 0.125 -2.04608
-0.725 0.295 2.03509
-0.715 0.725 -1.89007
-0.605 0.975 2.04485
0.725 0.125 -2.04608
0.725 0.295 2.03509
0.715 0.725 -1.89007
0.605 0.975 2.04485
-0.751922 0.154744 -0.68569
-0.781874 0.18146 0.6747
-0.83276 0.962761 -0.57843
-0.777087 1.02709 0.73321
0.751935 0.154732 -0.68569
0.781806 0.181528 0.6747
0.832775 0.962775 -0.57843
0.777082 1.02708 0.73321
-1.50098 -0.333135 -3.16518
-1.49933 -0.249087 -2.09639
-1.51508 -0.215708 -0.734742
-1.51046 -0.193925 0.63672
-1.46328 -0.115372 1.9992
-1.45539 -0.065816 3.07203
-1.46744 -0.0274799 4.13737
-1.49971 0.0166769 -3.1047
-1.50245 0.12325 -2.04124
-1.53085 0.178081 -0.689074
-1.51165 0.193999 0.667479
-1.4291 0.257999 2.02058
-1.43562 0.305439 3.09272
-1.4602 0.345325 4.15966
-1.49828 0.689392 -2.97006
-1.50987 0.795057 -1.90458
-1.58084 0.967822 -0.585651
-1.51127 1.01232 0.729827
-1.36513 0.991375 2.04969
-1.40434 1.03695 3.12385
-1.45457 1.08972 4.19865
-1.5016 1.82952 -2.80475
-1.51297 1.9463 -1.74658
-1.54295 2.1086 -0.44345
-1.53982 2.19626 0.849168
-1.50486 2.21043 2.1528
-1.49338 2.22561 3.21204
-1.50246 2.25987 4.28151
-0.747477 -0.334238 -3.16832
-0.73535 -0.247578 -2.10098
-0.747621 -0.227962 -0.734126
-0.764839 -0.202202 0.642883
-0.742063 -0.0965944 2.00997
-0.740052 -0.0540796 3.07934
-0.749684 -0.0230811 4.1416
-0.746671 0.00827776 -3.10567
-0.734767 0.316695 3.09875
-0.749687 0.348444 4.16285
-0.741849 0.657832 -2.96403
-0.708382 1.03206 3.12289
-0.750099 1.08664 4.19844
-0.735176 1.81056 -2.79879
-0.738838 1.92987 -1.74001
-0.772383 2.10705 -0.439492
-0.793097 2.20047 0.848693
-0.782846 2.20808 2.14941
-0.777333 2.2205 3.20866
-0.784758 2.25529 4.27905
0.738907 -0.334236 -3.16832
0.743893 -0.247578 -2.10098
0.763815 -0.227962 -0.734126
0.772141 -0.202158 0.642883
0.730407 -0.0965771 2.00997
0.700487 -0.0540663 3.07934
0.688309 -0.0230667 4.14161
0.729032 0.00827936 -3.10567
0.675647 0.316704 3.09875
0.671646 0.348457 4.16285
0.733178 0.657835 -2.96403
0.632348 1.03207 3.12289
0.648287 1.08665 4.19844
0.786342 1.81056 -2.79879
0.797301 1.92987 -1.74001
0.779658 2.10705 -0.439492
0.719101 2.20047 0.848693
0.662682 2.20809 2.14941
0.648519 2.22051 3.20866
0.646811 2.2553 4.27905
1.49335 -0.33313 -3.16518
1.5018 -0.249084 -2.09639
1.52762 -0.215697 -0.734742
1.52781 -0.193865 0.63672
1.47126 -0.115329 1.9992
1.43385 -0.0657844 3.07203
1.41848 -0.0274501 4.13737
1.48485 0.0166822 -3.1047
1.49611 0.123254 -2.04124
1.53265 0.178084 -0.689074
1.52664 0.194061 0.667479
1.44473 0.258036 2.02058
1.40541 0.305465 3.09272
1.39805 0.345353 4.15966
1.49252 0.689399 -2.97006
1.50858 0.795065 -1.90458
1.58135 0.967835 -0.585651
1.51801 1.01234 0.729827
1.36926 0.991399 2.04969
1.35459 1.03697 3.12385
1.36837 1.08974 4.19865
1.54504 1.82953 -2.80475
1.55799 1.94631 -1.74658
1.54704 2.10861 -0.44345
1.48105 2.19628 0.849168
1.40561 2.21045 2.1528
1.37885 2.22563 3.21204
1.37388 2.25989 4.28151
-0.770255 0.425 -2.01833
0 0.121365 -2.04971
-0.7408 0.137534 -1.36589
-0.718272 0.635 2.09324
0 0.261315 2.06878
-0.783401 0.208265 1.3549
0 0.792357 -1.95743
-0.782693 0.852693 -1.23425
0 0.997912 2.06776
-0.710485 1.02049 1.38903
0.77026 0.425 -2.01834
0.740818 0.137515 -1.36589
0.718238 0.635 2.09321
0.783395 0.208272 1.3549
0.782689 0.852689 -1.23425
0.710565 1.02056 1.38903
-0.769263 0.165737 -0.00549507
-0.886795 0.558753 -0.63206
6.32861e-06 0.164715 -0.68569
-0.868962 0.604273 0.703955
-3.40468e-05 0.196251 0.6747
-0.802817 0.992817 0.0773901
7.42311e-06 1.15685 -0.57843
-2.47613e-06 1.3635 0.73321
0.769253 0.165747 -0.00549507
0.886795 0.558754 -0.63206
0.868965 0.604305 0.703955
0.802817 0.992817 0.0773901
-0.865665 0.491876 -1.30007
0.865654 0.491877 -1.30007
3.16431e-06 0.142343 -1.36589
3.71156e-06 0.945624 -1.23425
0 0.425 -2.23424
-0.889615 0.581513 0.0359475
0.889614 0.581529 0.0359475
-1.38591e-05 0.180842 -0.00549507
2.47349e-06 1.37084 0.0773901
-0.8732 0.619637 1.37196
0.873141 0.619652 1.37196
-1.70234e-05 0.22175 1.3549
-1.23806e-06 1.14441 1.38903
0 0.635 2.23547
-0.725707 0.275 -2.01028
-0.3625 0.121376 -2.0497
-0.731411 0.132756 -1.70598
-0.730778 0.465 2.07331
-0.3625 0.262889 2.0672
-0.771238 0.234595 1.69499
-0.731159 0.575 -1.94273
-0.3575 0.773302 -1.93837
-0.765755 0.805755 -1.56216
-0.662464 0.805 2.06987
-0.3025 0.995884 2.06573
-0.660836 1.00084 1.71694
0.3625 0.121373 -2.04971
0.725709 0.275 -2.01029
0.731405 0.132762 -1.70598
0.3625 0.262899 2.06719
0.730746 0.465 2.07328
0.771238 0.234595 1.69499
0.3575 0.773303 -1.93837
0.731159 0.575 -1.94273
0.765752 0.805752 -1.56216
0.3025 0.995884 2.06573
0.66245 0.805 2.06986
0.660786 1.00079 1.71694
-0.749788 0.142712 -1.02579
-0.762477 0.158357 -0.345593
-0.83954 0.346658 -0.658875
-0.373244 0.165158 -0.68569
-0.777385 0.200115 1.0148
-0.780189 0.168978 0.334603
-0.885013 0.363069 0.689328
-0.392827 0.185109 0.6747
-0.79829 0.89829 -0.90634
-0.880666 0.7712 -0.605245
-0.812346 0.972346 -0.25052
-0.447002 1.12106 -0.57843
-0.760956 1.04096 1.06112
-0.888044 0.84819 0.718583
-0.804145 1.02414 0.4053
-0.463736 1.34568 0.73321
0.749812 0.142688 -1.02579
0.373253 0.165158 -0.68569
0.76252 0.158314 -0.345593
0.83953 0.34666 -0.658875
0.777386 0.200114 1.0148
0.392774 0.185113 0.6747
0.780214 0.168952 0.334603
0.885013 0.363102 0.689328
0.798286 0.898286 -0.90634
0.447005 1.12104 -0.57843
0.880666 0.771205 -0.605245
0.812352 0.972352 -0.25052
0.761022 1.04102 1.06112
0.463733 1.34568 0.73321
0.888044 0.848204 0.718583
0.804145 1.02415 0.4053
-0.855666 0.458438 -1.6592
-0.385127 0.425 -2.20708
1.58215e-06 0.134857 -1.7078
0 0.273183 -2.07428
-0.86607 0.314705 -1.33298
-0.370398 0.140193 -1.36589
-0.837736 0.627318 1.7326
-0.359136 0.635 2.21547
-8.51169e-06 0.236587 1.71184
0 0.448157 2.158
-0.876805 0.413951 1.36343
-0.391709 0.210677 1.3549
1.85578e-06 0.882962 -1.59584
0 0.608679 -2.12343
-0.856459 0.672284 -1.26716
-0.391344 0.933048 -1.23425
-6.19032e-07 1.0256 1.7284
0 0.816456 2.12762
-0.881733 0.820061 1.3805
-0.355243 1.12621 1.38903
0.855506 0.458438 -1.6592
0.38513 0.425 -2.20707
0.866069 0.314696 -1.33298
0.370411 0.140193 -1.36589
0.837817 0.627326 1.73259
0.359119 0.635 2.21538
0.876831 0.413962 1.36343
0.391689 0.210675 1.3549
0.856447 0.672283 -1.26716
0.391346 0.932915 -1.23425
0.881742 0.820108 1.3805
0.355282 1.12622 1.38903
-0.844051 0.366319 0.0152262
-0.382703 0.17716 -0.00549507
-0.871843 0.525314 -0.966064
-0.887963 0.570133 -0.298056
4.74646e-06 0.149976 -1.02579
-3.76523e-06 0.170937 -0.345593
-0.888982 0.592893 0.369951
-0.887519 0.611955 1.03796
-2.39529e-05 0.186426 0.334603
-2.55351e-05 0.21499 1.0148
-0.887013 0.807563 0.0566688
-0.486862 1.35274 0.0773901
5.56734e-06 0.981079 -0.90634
4.9483e-06 1.30085 -0.25052
-1.31709e-09 1.38292 0.4053
-1.8571e-06 1.28409 1.06112
0.844056 0.366327 0.0152262
0.382723 0.177088 -0.00549507
0.871843 0.525315 -0.966064
0.887963 0.570141 -0.298056
0.888983 0.592917 0.369951
0.887518 0.611979 1.03796
0.887012 0.807571 0.0566688
0.486858 1.35272 0.0773901
-0.857706 0.294852 -1.68259
-0.86591 0.335727 -0.995926
-0.871388 0.71652 -0.936202
-0.844028 0.623642 -1.61068
0.857705 0.294848 -1.68259
0.844046 0.623641 -1.61068
0.871455 0.716524 -0.936202
0.86591 0.335719 -0.995926
-0.366449 0.131897 -1.70689
0.366455 0.131898 -1.70689
0.373191 0.149173 -1.02579
-0.373178 0.149174 -1.02579
-0.374422 0.866003 -1.579
-0.40386 0.942951 -0.90634
0.403869 0.942945 -0.90634
0.374423 0.866021 -1.579
-0.373814 0.274091 -2.08429
-0.371314 0.591839 -2.10303
0.371315 0.591839 -2.10307
0.373815 0.274091 -2.08427
-0.841688 0.356542 -0.321824
-0.860021 0.36695 0.352277
-0.891203 0.829714 0.387626
-0.883087 0.789006 -0.274288
0.841689 0.356546 -0.321824
0.883083 0.78901 -0.274288
0.891204 0.829726 0.387626
0.860103 0.36693 0.352277
-0.377372 0.172362 -0.345593
0.377377 0.172345 -0.345593
0.389055 0.178487 0.334603
-0.389081 0.178503 0.334603
-0.481593 1.26622 -0.25052
-0.484722 1.36805 0.4053
0.484721 1.36805 0.4053
0.481596 1.26621 -0.25052
-0.87586 0.403409 1.02638
-0.836668 0.439475 1.7138
-0.833629 0.81253 1.72477
-0.883592 0.817871 1.04954
0.875861 0.403439 1.02638
0.883602 0.817901 1.04954
0.833617 0.812554 1.72476
0.83667 0.439481 1.71379
-0.391332 0.203735 1.0148
0.391287 0.203737 1.0148
0.377094 0.229374 1.70341
-0.377105 0.229327 1.70341
-0.371894 1.26455 1.06112
-0.328872 1.02306 1.72267
0.328891 1.02305 1.72267
0.371911 1.26447 1.06112
-0.360818 0.456579 2.12073
0.360809 0.456579 2.12067
0.330809 0.810728 2.12694
-0.330818 0.810728 2.12695
-0.723339 0.2 -2.02617
-0.54375 0.121388 -2.04969
-0.726838 0.130245 -1.87603
-0.730791 0.38 2.0571
-0.54375 0.266173 2.06392
-0.76197 0.250947 1.86504
-0.715493 0.65 -1.90881
-0.53625 0.746758 -1.91183
-0.742464 0.767464 -1.72611
-0.633643 0.89 2.05727
-0.45375 0.989212 2.05906
-0.634592 0.989592 1.8809
0.54375 0.121386 -2.04969
0.723345 0.2 -2.02617
0.726784 0.130299 -1.87603
0.54375 0.266491 2.0636
0.730792 0.38 2.0571
0.761637 0.25128 1.86504
0.53625 0.746749 -1.91182
0.71551 0.65 -1.90883
0.742543 0.767543 -1.72611
0.45375 0.989212 2.05906
0.633551 0.89 2.05718
0.634592 0.989592 1.8809
-0.746883 0.1527 -0.855739
-0.757033 0.156717 -0.515641
-0.800545 0.248294 -0.672283
-0.560489 0.164138 -0.68569
-0.7724 0.198017 0.844749
-0.780472 0.175778 0.504651
-0.880098 0.248937 0.682014
-0.586344 0.185298 0.6747
-0.821354 0.936354 -0.742385
-0.8682 0.872724 -0.591838
-0.817155 0.962155 -0.414475
-0.660477 1.0831 -0.57843
-0.7691 1.0341 0.897165
-0.834684 0.938698 0.725896
-0.78518 1.02018 0.569255
-0.656622 1.2588 0.73321
0.746915 0.152669 -0.855739
0.561013 0.163107 -0.68569
0.75704 0.15671 -0.515641
0.800541 0.248292 -0.672283
0.772403 0.198014 0.844749
0.58602 0.18586 0.6747
0.780234 0.176016 0.504651
0.880097 0.248971 0.682014
0.821377 0.936377 -0.742385
0.660473 1.08307 -0.57843
0.868217 0.872738 -0.591838
0.817155 0.962155 -0.414475
0.76909 1.03409 0.897165
0.65659 1.25874 0.73321
0.834689 0.938706 0.725896
[...]
POINT_DATA 3682
SCALARS point_scalars float 1
LOOKUP_TABLE default
-110.641
-48.0782
-55.667
-37.5626
-110.654
-48.0371
-55.5659
-37.4527
-40.3405
-42.0506
-77.9675
-51.243
-40.3379
-42.0004
-77.9115
-51.2569
-117.349
-102.282
-56.439
-34.2339
-47.5343
-47.5081
-40.0807
31.4644
-102.282
-56.439
-43.2587
-47.6327
-42.2298
-39.4518
5.29773
-63.9086
-63.0789
-46.642
-44.1885
-40.2374
-39.0235
-66.5869
-48.6369
-86.1994
-61.6167
-38.8435
-37.317
-37.317
-43.7517
-117.349
-40.8771
-40.5351
-48.4561
-41.216
-39.8107
-11.6381
-39.2274
-39.1617
140.374
-38.1745
-38.3941
-13.2316
-42.6133
-72.6554
-62.3652
-36.669
-35.9162
-35.6218
-50.516
-117.362
-40.8729
-40.4607
-48.3448
-41.1668
-39.7459
-25.2006
-39.1736
-38.7236
140.58
-37.7676
-37.8541
-6.91986
-43.8042
-72.5706
-62.6967
-35.3681
-35.5031
-34.5057
-117.362
-102.412
-56.4255
-34.2107
-47.4864
-47.4718
-39.8826
36.4938
-102.412
-56.4255
-43.2597
-47.4978
-41.4742
-39.3178
6.23787
-63.9333
-63.1164
-46.6021
-43.9764
-40.149
-38.3766
-66.2592
-48.7111
-86.0639
-61.7059
-38.8141
-37.2072
-37.2072
-48.7185
-159.394
-59.197
-40.7372
-44.2185
-46.1939
-56.0032
-37.3511
-34.9896
-42.0504
-49.5931
-59.2006
-40.6406
-46.209
-37.266
-42.0364
-35.718
-47.5677
-42.2623
-40.8698
-40.2006
-59.17
4.79705
-62.4253
-35.7741
-47.5646
-40.8599
-59.1598
-60.5699
-60.5611
-63.2776
-16.5949
202.551
-42.9216
-42.9191
-37.2904
-94.1923
-48.9553
-48.9196
-42.0863
-37.7151
-34.5268
-94.1105
-174.012
-84.427
-43.6834
-45.2896
-46.6887
-50.6215
-40.528
-50.5077
-38.8173
-34.6886
-37.9358
-174.29
-94.1879
-84.4183
-45.2601
-43.5946
-46.6887
-40.8766
-51.4629
-50.4429
-34.6244
-38.7224
-37.9015
-47.7279
-37.2361
-42.4193
-41.734
-41.3942
-37.847
-38.8324
-40.2339
-29.103
-56.2131
-64.9874
-1.15047
-50.4779
-46.5719
-57.3312
-62.3859
-47.729
-41.7426
-37.2394
-42.4155
-41.4102
-40.2221
-37.9624
-38.8533
-29.7343
-1.13805
-56.2106
-64.9545
-50.4444
-62.3667
-46.5579
-57.3253
-81.7234
183.55
-91.6887
185.319
-62.2399
-62.4906
-47.2449
-37.4438
-43.3455
-37.1899
-50.6543
-42.7225
-30.1612
120.796
-58.0831
-19.3114
-35.6756
-32.8315
-47.435
-38.4417
-81.728
183.64
-62.2299
-62.5004
-47.1684
-37.3798
-50.6413
-42.7678
-58.1052
-19.2868
-47.4039
-38.432
-37.9961
-36.8567
-48.2795
-44.8912
-50.3268
-38.9395
-42.709
-44.1542
-38.1356
-39.7596
-49.2278
-89.4603
10.1271
-62.0641
-79.8495
-45.3965
-37.9899
-36.8492
-48.2629
-44.8856
-42.7065
-44.1244
-49.2314
-89.4775
-77.5477
-48.4248
-48.201
-66.8202
-77.57
-66.8532
-48.1415
-48.4136
-90.8728
-90.9046
-49.8212
-49.8212
-38.3878
3.58036
3.57588
-38.3821
163.706
100.268
100.353
163.27
-40.1401
-38.2414
-48.4686
-52.5037
-40.137
-52.4946
-48.479
-38.2342
-38.399
-38.4083
-38.028
-38.0291
-58.4234
-75.7647
-75.7475
-58.4002
-42.9485
-47.511
-45.5327
-44.7135
-42.9258
-44.6897
-45.454
-47.4407
-39.8421
-39.8696
-44.2374
-44.2509
-46.153
-36.1486
-36.1278
-46.1564
-38.8223
-38.7949
-35.7831
-35.929
-58.4422
-181.315
-114.038
-44.9184
-46.7938
-47.5909
-54.3838
-38.6414
-43.5356
-38.3951
-35.2545
-37.2454
-181.343
-58.4778
-114.001
-46.7423
-44.8394
-47.7993
-38.7613
-54.3157
-43.9027
-35.1697
-38.2815
-37.1883
-44.3572
-37.8514
-40.8151
-40.6484
-40.6918
-36.8076
-37.6446
-40.3372
-41.6331
-65.1362
-71.6625
-22.5674
-48.6868
-49.7498
-53.3765
-59.7214
-44.3422
-40.645
-37.861
-40.8125
-40.7352
-40.089
-36.8681
-37.644
-41.6899
-22.523
-65.1433
-71.6411
-48.6779
-59.7455
-49.747
-53.4012
-96.4191
-55.6335
-75.0738
126.888
-161.14
-161.193
-116.53
160.256
-70.6009
-51.9555
-63.1311
-60.834
-42.4745
-39.3067
-45.1358
-38.1696
-44.4216
-44.413
-43.6435
-39.3862
-45.9575
-43.241
-51.2227
-44.3307
-59.8509
-59.7878
-39.1255
69.5379
-47.6326
-32.3246
-51.6479
-24.4574
-34.7649
-34.7352
-35.3861
-30.532
-39.0317
-45.5026
-44.8153
-39.5033
-96.505
-55.6125
-75.0266
126.866
-70.6183
-51.9515
-63.1267
-60.8486
-42.3816
-39.2114
-45.0299
-38.1047
-45.8391
-43.2399
-51.1994
-44.4077
-47.5385
-32.3179
-51.618
-24.4546
-39.015
-45.4787
-44.7068
-39.4949
-36.9168
-35.6969
-37.5899
-36.3827
-44.8259
-50.8892
-48.2845
-46.0507
-42.159
-42.1625
-45.9339
-40.1643
-40.1125
-43.0528
-42.0402
-44.1714
-40.198
-40.1973
-39.466
-39.5622
-62.345
-56.3077
-54.637
-74.7217
3.60875
3.64765
17.1382
-29.3773
-62.3697
-62.3533
-72.2212
-53.2149
-36.9206
-35.654
-37.5838
-36.3786
-44.8224
-50.885
-48.2805
-46.0499
-40.1029
-43.038
-42.0363
-44.1542
-62.307
-56.2883
-54.634
-74.6982
-74.6994
-61.5268
-59.5162
-52.0917
-74.686
-61.5174
-59.5239
-52.082
-74.6273
-63.1648
-63.1712
-55.3043
-27.4024
-16.8017
-16.8074
-2.04985
200.196
179.274
172.372
199.96
-40.6163
-43.8145
-42.4466
-45.649
-40.6115
-43.8111
-42.4444
-45.6479
-37.1266
-37.624
-37.4678
-37.1217
-94.4624
-83.4492
-89.8142
-94.4597
-47.7905
-50.1989
-47.8191
-49.9066
-47.7445
-50.2361
-47.8066
-49.8321
-42.5341
-42.2101
-42.2182
-40.7079
-35.762
-37.9716
-37.9694
-40.3161
-35.8122
-37.7999
-33.2127
-35.7061
-70.3403
109.384
-116.725
89.4127
-84.4752
-88.2813
-46.8366
-39.2418
-44.4984
-40.0924
-47.7583
-44.8157
-61.0828
62.2439
-37.8639
48.982
-56.71
-43.3981
-44.1411
-37.3193
-35.1754
-34.4956
-42.6793
-36.5233
-116.79
89.7178
-70.3789
109.381
-84.4297
-88.3085
-44.45
-40.0559
-46.7272
-39.1039
-47.701
-44.8147
-37.8364
49.4136
-61.3434
62.1986
-56.7545
-43.4664
-35.1404
-34.3078
-44.0014
-37.1994
-42.6366
-36.5018
-47.9279
-49.0455
-39.1523
-37.8561
-49.5897
-40.8156
-45.4593
-39.6189
-41.913
-39.9719
-37.0258
-37.4071
-36.0936
-44.8149
-39.2804
-39.7548
-48.6173
-5.70509
-54.5679
-54.5474
-58.4908
-84.9767
10.5807
-27.0287
-47.9144
-47.5478
-47.8082
-45.1225
-53.6298
-67.0937
-70.4173
-53.7751
-47.9199
-49.0424
-45.4569
-39.6293
-39.149
-37.8665
-49.5798
-40.8142
-41.8986
-40.0177
-39.2566
-39.7831
-36.9522
-37.462
-36.0783
-44.7974
-48.5774
-5.68851
10.5995
-26.998
-54.5555
-54.5416
-58.4718
-84.8481
-47.8992
-47.543
-70.3918
-53.7667
-47.8133
-45.1102
-53.651
-67.0657
-82.0873
-75.9092
176.976
162.074
-91.5944
-91.6108
183.761
183.771
-79.893
-54.6593
-73.7689
-54.6071
-47.3976
-46.7042
-39.0926
-36.6158
-43.5711
-43.6027
-38.1189
-38.0695
-50.3771
-47.4404
-40.9925
-43.3509
-33.4906
-33.4784
116.095
116.105
-51.1314
-75.0724
-29.256
-7.17828
-35.791
-35.7791
-33.9256
-34.0523
-47.4201
-46.0504
-41.3391
-36.8938
-82.1394
-75.8831
161.57
177.018
-79.8809
-54.6491
-73.784
-54.6117
-46.6283
-47.3217
-39.0529
-36.4896
-50.339
-47.392
-41.015
-43.1913
-75.0073
-51.1677
-7.16899
-29.2897
-46.0257
-47.3735
-36.8761
-41.336
-39.253
-38.1733
-37.211
-37.1645
-48.7229
-47.6295
-42.2782
-47.9336
-50.2379
-50.2359
-38.8507
-38.854
-40.5725
-45.0419
-43.9129
-44.3553
-38.0272
-38.0275
-39.7507
-39.761
-47.7988
-50.7115
-78.6801
-85.5719
8.25073
8.75652
-57.4835
-57.4668
-79.286
-79.2735
-45.6837
-45.6859
-39.2522
-38.1671
-37.2143
-37.163
-47.5675
-48.7115
-42.2752
-47.9285
-45.044
-40.5676
-43.8855
-44.3269
-50.7052
-47.8078
-85.5478
-78.6381
-80.8995
-81.4198
-76.9747
-72.1668
-48.133
-48.3985
-53.7088
-56.0684
-59.0343
-47.7013
-51.2304
-50.1813
-57.2766
-70.1578
-75.2055
-65.2084
-81.038
-72.1349
-76.9676
-81.4112
-57.4307
-65.1167
-75.1892
-70.3473
-59.0016
-50.1785
-51.1978
-47.6826
-48.1219
-56.0627
-53.6873
-48.3904
-114.999
-116.71
-74.5597
-71.8719
-115.046
-71.892
-74.5706
-116.736
-44.7969
-45.8303
-55.4045
-53.4243
-44.8157
-53.4181
-55.4017
-45.8288
-40.1838
-33.4368
-28.435
-36.692
-1.86261
15.4643
-2.93205
-14.6985
-1.85219
-14.6963
-2.92974
15.4858
-40.0697
-36.6968
-28.4089
-33.4474
72.1519
121.55
176.685
151.314
48.9645
65.2249
173.397
117.03
49.1234
116.912
173.418
66.2938
72.2169
151.559
176.617
121.511
-39.8414
-38.2274
-41.312
-43.2095
-33.3341
-39.1774
-40.4868
-37.5822
-51.7326
-52.9845
-44.4839
-44.7825
-62.0116
-49.4859
-46.7685
-56.6895
-39.8407
-43.2072
-41.309
-38.2271
-62.0125
-56.663
-46.7645
-49.4822
-51.7569
-44.7837
-44.4863
-53.009
-33.3215
-37.4656
-40.4813
-39.1745
-38.8433
-40.0621
-37.508
-36.5816
-38.8879
-36.5894
-37.5083
-40.0668
-39.5282
-39.4558
-37.42
-36.6404
-39.5344
-36.738
-37.4182
-39.4602
-68.4725
-87.504
-81.2862
-27.3581
-59.8145
-72.1089
-89.3432
-67.9821
-59.7531
-67.9535
-89.3311
-72.0934
-68.5087
-27.019
-81.2834
-87.5545
-44.1334
-50.1314
-50.1126
-43.9385
-47.4185
-45.9902
-47.5951
-47.6067
-42.4961
-43.5134
-48.0694
-44.4638
-47.3332
-44.4346
-48.8185
-46.7651
-44.1538
-43.9226
-50.0646
-50.1027
-47.3382
-46.7503
-48.7695
-44.4168
-42.3638
-44.3575
-48.0139
-43.4752
-47.2792
-47.6024
-47.5592
-45.881
-39.405
-39.7146
-40.7877
-41.5436
-39.6239
-41.5554
-40.7976
-39.7183
-45.268
-43.9989
-42.6725
-43.9861
-45.2577
-44.2247
-42.6735
-44.0721
-55.1741
-42.6254
-40.5597
-53.4924
-35.3965
-35.2761
-36.0655
-37.6959
-35.3478
-37.684
-36.0541
-35.2607
-55.1307
-53.4915
-40.5598
-42.6197
-40.6166
-39.7194
-38.5133
-39.0183
-40.5549
-38.9788
-38.4707
-39.7658
-36.8691
-31.9193
-34.4162
-37.3881
-36.97
-37.4874
-34.5362
-32.0584
-75.7342
-173.878
-152.804
-46.5851
-47.9219
-49.9006
-51.7224
-30.8882
-62.2232
-38.6368
-35.7605
-37.1328
-173.822
-75.7859
-152.875
-47.8463
-46.5362
-49.3127
-30.8068
-51.8856
-62.003
-35.6973
-38.5239
-37.0656
-41.6585
-38.008
-40.919
-40.1644
-42.0714
-36.9365
-37.6159
-41.467
-69.5772
-73.9196
-81.1239
-54.5701
-50.2219
-50.7627
-52.2801
-54.3693
-41.6412
-40.1705
-38.0201
-40.913
-42.065
-41.4092
-36.8987
-37.5779
-69.5277
-54.4795
-73.8873
-81.133
-50.2212
-54.3774
-50.7724
-52.3024
-66.5536
-50.9991
-92.5134
55.0333
-159.383
-159.41
-134.038
29.0862
-64.1312
-55.201
-62.0315
-59.5647
-41.8815
-39.6015
-43.1905
-38.8721
-44.3135
-44.3053
-44.301
-41.3786
-45.3097
-44.2508
-50.9557
-44.8952
-57.8188
-57.7552
-49.7236
-26.9911
-41.6765
-34.524
-44.3543
-29.4365
-34.9
-34.889
-35.383
-30.7483
-40.2524
-43.7128
-43.2559
-40.7133
-66.3178
-48.9407
-92.5678
54.9495
-64.1396
-55.2037
-62.0289
-59.5771
-41.7893
-39.5128
-43.078
-38.8078
-45.1881
-44.2464
-50.3458
-44.9493
-41.6082
-34.5036
-44.3782
-29.4238
-40.2371
-43.7038
-43.2172
-40.7
-35.2925
-36.8084
-37.0016
-36.2174
-46.068
-49.0886
-48.6022
-46.7483
-42.2765
-42.2782
-43.6607
-41.1699
-40.9115
-41.2213
-41.4504
-41.8069
-40.3173
-40.3196
-39.726
-39.9112
-60.6754
-57.8009
-57.116
-66.1231
5.0643
5.0479
12.8961
-8.88784
-62.4505
-62.4495
-67.6861
-57.7084
-35.3216
-36.9738
-37.1613
-36.2377
-46.0652
-49.0851
-48.5996
-46.7459
-40.9014
-41.2114
-41.4447
-41.7942
-60.6482
-57.7739
-57.1112
-66.102
-66.7233
-61.0447
-60.1894
-56.229
-66.7195
-61.0362
-60.1799
-56.2217
-68.4079
-63.1667
-63.1703
-58.9702
-24.4913
-16.893
-16.8958
-8.60216
205.515
191.733
198.291
205.495
-41.8548
-43.2853
-42.6389
-44.0212
-41.8516
-43.2827
-42.6366
-44.0192
-37.2572
-37.3996
-37.3242
-37.2557
-94.3566
-92.11
-92.5723
-94.3548
-48.1152
-49.7257
-48.3814
-50.6351
-48.0559
-49.7238
-48.3683
-50.6597
-42.2738
-42.113
-42.1157
-41.2993
-36.4652
-37.7943
-37.7922
-38.925
-34.8554
-36.3064
-32.9576
-34.7932
-81.0349
-99.3361
-98.998
55.0886
-170.887
-168.531
-138.348
-14.3904
-94.8113
-77.725
-85.8965
-85.9663
-44.2204
-43.0509
-45.8399
-40.0858
-45.8636
-44.7992
-45.0459
-42.2205
-45.782
-46.5712
-47.5721
-44.8778
-52.9275
-58.1996
-78.9043
12.5013
-35.3333
-53.625
-43.5541
-23.4458
-50.2182
-50.8024
-53.7583
-46.1928
-38.4146
-39.1527
-42.5813
-37.6788
-34.8024
-34.6051
-34.9888
-33.6161
-37.5461
-38.2087
-40.8293
-36.8727
-171.032
-168.69
-138.404
-12.8969
-81.0832
-99.4358
-99.0603
54.9328
-94.7545
-77.7362
-85.8594
-85.974
-45.8174
-44.7786
-45.0003
-41.9932
-44.1369
-42.9589
-45.7234
-40.0182
-45.8645
-46.5597
-47.5396
-44.8661
-35.2868
-53.7242
-43.5981
-23.7179
-52.6971
-58.301
-78.6403
12.4709
-51.8309
-50.7059
-53.6334
-46.2775
-34.724
-34.5573
-34.9464
-33.4505
-38.3177
-39.0441
-42.4903
-37.5926
-37.4975
-38.1881
-40.7777
-36.8509
-47.4634
-49.2831
-47.8118
-48.2195
-37.442
-36.9711
-38.1822
-37.7118
-41.5474
-43.6137
-44.2323
-41.4028
-41.3068
-42.0056
-43.1886
-40.6252
-40.2237
-41.7804
-42.6595
-40.3487
-36.4699
-35.2753
-36.5248
-37.0537
-37.3115
-39.3792
-33.4658
-45.2505
-40.1904
-40.4249
-39.714
-39.9143
-27.8317
-30.4509
-42.2753
-14.5281
-60.2305
-53.1714
-55.7442
-55.5918
-66.6054
-63.5367
-62.0003
-78.5304
-7.26495
2.01079
7.53769
-12.2866
-50.2977
-48.0845
-49.5131
-49.552
-48.2874
-44.6284
-47.0826
-45.7028
-56.2925
-54.7918
-56.1819
-61.922
-62.1819
-62.2623
-66.4377
-58.6727
-47.4631
-49.2797
-47.807
-48.2161
-41.3352
-42.0111
-43.1912
-40.637
-37.4446
-36.9623
-38.1786
-37.7195
-41.5439
-43.6098
-44.2264
-41.4006
-40.2585
-41.7863
-42.6503
-40.3764
-40.1234
-40.4219
-39.6852
-39.9248
-36.5976
-35.3003
-36.5538
-37.0781
-37.3487
-39.3721
-33.496
-45.2301
-27.8206
-30.4391
-42.3699
-14.5169
-7.30646
2.01659
7.55684
-12.2578
-60.2314
-53.1668
-55.7391
-55.5865
-66.5886
-63.5124
-61.9707
-78.4771
-50.2922
-48.0706
-49.4902
-49.5376
-62.1652
-62.244
-66.4199
-58.6551
-48.6879
-44.6097
-47.0751
-45.6957
-56.3018
-54.7598
-56.1802
-61.8907
-69.9702
-82.2774
-80.1082
-79.6977
160.775
199.667
184.619
178.091
-102.948
-82.3739
-91.5383
-91.5465
184.774
184.054
184.577
184.615
-62.7745
-61.9906
-69.1162
-57.7113
-61.8154
-62.89
-67.5521
-58.2129
-46.3521
-47.5662
-47.2834
-47.0098
-37.8045
-36.6096
-38.4096
-36.5075
-43.5735
-42.9021
-43.3814
-43.3808
-37.8907
-38.2275
-37.5704
-37.5395
-51.2938
-50.2995
-50.8456
-48.7673
-43.1579
-42.3894
-41.7328
-43.0354
-33.1295
-28.0895
-31.0887
-31.087
115.7
131.83
117.776
117.791
-57.6191
-58.758
-53.1532
-66.1009
-21.7343
-17.8699
-23.2143
-13.9146
-35.4979
-35.7283
-35.7093
-35.7031
-32.1285
-33.0926
-33.1034
-33.1759
-46.6516
-47.3846
-47.7249
-46.3257
-38.8605
-38.1884
-39.7062
-37.4284
-70.0687
-82.2406
-80.2
-79.6733
160.861
199.606
178.221
184.65
-62.7676
-61.9795
-69.1046
-57.7038
-61.8273
-62.8988
-67.564
-58.2203
-46.2564
-47.5015
-46.9347
-47.2052
-37.7193
-36.4402
-38.3447
-36.3907
-51.2749
-50.3367
-50.7972
-48.7483
-43.277
-42.4043
-41.7619
-43.0651
-57.6211
-58.7828
-66.0998
-53.1354
-21.7201
-17.8672
-13.8984
-23.2401
-46.6181
-47.3595
-46.3017
-47.6945
-38.8521
-38.1841
-37.4097
-39.6837
-37.6779
-39.3054
-38.7254
-38.0032
-36.6404
-36.9227
-36.9767
-37.021
-47.4463
-49.6089
-48.9597
-47.703
-45.4567
-44.3614
-43.5256
-46.3208
-48.286
-52.7682
-50.3342
-50.3329
-39.4068
-38.1855
-38.9027
-38.9044
-42.8764
-42.4868
-41.6393
-43.809
-44.3595
-46.5073
-44.0283
-44.2161
-38.7765
-37.7055
-38.0459
-38.0487
-39.6838
-40.1932
-39.7656
-39.7704
-51.7181
-47.8257
-47.4169
-49.8234
-86.239
-92.0473
-86.2806
-87.3912
15.5572
4.19958
9.54842
9.4654
-44.1525
-74.8297
-61.4418
-61.3451
-75.7024
-84.8183
-79.7336
-79.7283
-48.9984
-42.5668
-45.4838
-45.4858
-37.6723
-39.299
-38.7242
-37.9954
-36.6324
-36.9196
-36.9705
-37.013
-47.4358
-49.5826
-47.6835
-48.9436
-45.453
-44.3577
-43.5227
-46.3145
-42.8738
-42.4846
-43.8085
-41.6351
-44.3354
-46.4637
-43.9993
-44.1866
-51.7218
-47.8254
-49.8219
-47.426
-86.243
-92.0475
-87.3661
-86.2995
-49.7374
-81.6922
-81.6021
-94.8949
-48.7847
-53.5515
-50.4999
-48.538
-48.798
-50.0818
-48.6915
-47.6977
-52.4849
-60.4512
-72.4785
-78.3328
-49.8035
-81.6843
-81.6346
-94.8551
-52.5338
-60.511
-72.4671
-78.3265
-48.7567
-50.0786
-48.6472
-47.6174
-48.7741
-53.5391
-50.4885
-48.5268
-102.286
-90.0384
-91.3071
-81.5427
-102.336
-90.0739
-91.3312
-81.5623
-49.4683
-47.8816
-51.9661
-50.0905
-49.4699
-47.8847
-51.9635
-50.0889
-40.0808
-39.8736
-36.8446
-33.9602
0.151287
8.69311
-1.10406
6.42861
0.151989
8.75192
-1.09901
6.43481
-40.1131
-39.9071
-36.7881
-33.9517
147.222
161.7
164.46
173.481
87.1054
95.3472
120.046
116.407
95.5006
86.816
116.434
118.074
161.34
147.338
173.304
164.336
-39.4441
-40.4906
-39.636
-41.2149
-36.891
-37.7234
-38.0662
-39.7724
-48.3921
-51.2006
-46.3086
-48.0328
-53.4664
-55.2463
-49.8227
-51.5035
-39.4413
-40.4882
-39.6333
-41.212
-53.4612
-55.2374
-49.8177
-51.495
-48.4048
-51.2152
-46.3134
-48.0414
-36.8781
-37.7237
-38.0475
-39.7705
-37.9733
-38.9437
-37.6743
-38.6889
-38.955
-37.9753
-38.6944
-37.6794
-38.5081
-37.747
-38.0232
-37.3911
-37.7414
-38.5156
-37.3892
-38.0268
-65.7632
-44.6621
-69.6933
-57.251
-72.5226
-72.877
-80.3909
-78.1743
-72.8433
-72.5166
-78.1577
-80.3765
-44.4383
-65.7056
-57.1626
-69.6654
-42.3158
-44.3313
-45.7498
-43.6057
-47.7438
-47.6091
-47.477
-47.3381
-45.3711
-44.3552
-46.2836
-46.4975
-45.4631
-45.196
-45.7574
-44.3475
-42.2964
-44.3134
-45.7126
-43.5806
-45.4448
-45.176
-45.7306
-44.3211
-45.3045
-44.2904
-46.2032
-46.4353
-47.6501
-47.5445
-47.403
-47.2847
-39.9559
-39.8977
-40.3446
-39.753
-39.9819
-39.9306
-40.3668
-39.7706
-44.4384
-44.5224
-44.0232
-43.7098
-44.4558
-44.5289
-44.0077
-43.8317
-46.635
-49.501
-43.4063
-45.8938
-35.621
-36.3288
-35.9412
-36.5847
-35.5934
-36.3072
-35.9238
-36.569
-46.635
-49.4994
-43.4283
-45.9023
-38.7592
-38.8062
-39.1617
-38.5509
-38.7567
-38.7357
-38.5026
-39.1198
-35.3525
-36.7366
-34.8725
-36.1403
-36.859
-35.5139
-36.2748
-35.0194
-106.083
73.6531
-144.184
-1.59343
-107.656
-113.296
-47.3489
-41.6884
-46.3008
-42.9446
-48.7525
-46.0008
-76.2263
23.6374
-42.304
10.273
-54.9177
-42.486
-41.3033
-37.6447
-35.0768
-36.261
-39.6978
-35.9179
-144.245
-1.46618
-106.122
73.6294
-107.747
-113.316
-46.2754
-43.0308
-47.2372
-41.623
-48.683
-45.9538
-42.1098
10.992
-76.2586
23.3748
-55.1184
-42.286
-35.014
-36.1266
-41.1022
-37.4869
-39.6766
-35.8625
-45.7849
-44.5471
-38.4104
-38.3436
-43.2068
-39.984
-42.1741
-39.5198
-43.3656
-39.2078
-34.6551
-38.6158
-28.8452
-43.7574
-40.0019
-40.072
-54.1336
-17.4318
-66.9458
-63.7102
-66.979
-93.658
-10.0131
-40.2228
-47.98
-51.9983
-50.6761
-48.7168
-52.9524
-56.8335
-58.984
-56.9193
-45.7875
-44.5299
-42.1133
-39.5813
-38.4154
-38.3674
-43.1994
-39.9842
-43.4023
-39.3089
-39.8733
-39.9219
-34.672
-38.6423
-28.8467
-43.7445
-54.1084
-17.444
-10.105
-40.2009
-66.9037
-63.7178
-66.9671
-93.6746
-47.9847
-51.9264
-59.0273
-56.8845
-50.6894
-48.7225
-52.9777
-56.8232
-95.2994
52.0567
-80.8142
52.3453
-74.4081
-70.7625
126.778
125.447
-135.259
38.49
-135.302
38.6714
-116.562
-116.573
160.055
160.296
-81.0816
-70.3683
-56.6811
-52.3838
-70.0858
-58.2973
-65.7332
-56.8529
-44.4711
-39.6209
-42.8205
-37.8699
-45.5407
-44.6923
-38.8898
-37.3193
-44.5437
-41.6453
-44.4434
-41.6171
-43.7029
-43.7406
-39.5402
-39.5151
-47.8622
-45.0579
-48.209
-41.9986
-50.8713
-48.8634
-42.4995
-44.449
-46.131
-7.28532
-46.1998
-8.45589
-38.6967
-38.6935
75.3799
75.6223
-57.9242
-37.4773
-40.5258
-21.8295
-48.5446
-57.0678
-28.8251
-19.4233
-35.2114
-31.833
-35.1929
-31.712
-35.3674
-35.3601
-30.9251
-31.0089
-41.384
-38.1157
-46.1756
-44.1869
-44.145
-46.4179
-40.8192
-38.4576
-95.3386
51.8957
-80.8772
52.3487
-74.4296
-70.7663
125.373
126.673
-81.0728
-70.39
-56.6756
-52.3865
-70.0814
-58.2932
-65.7486
-56.8632
-44.3571
-39.5622
-42.7196
-37.7877
-44.5875
-45.4316
-38.8449
-37.2265
-47.8311
-44.8722
-48.181
-42.0041
-50.874
-48.7816
-42.5274
-44.3663
-57.8278
-37.4686
-40.5212
-21.8278
-56.9974
-48.521
-19.4177
-28.8238
-41.3496
-38.0957
-46.1644
-44.175
-46.2971
-44.1114
-38.4475
-40.8127
-37.7681
-36.3442
-36.7826
-36.7565
-38.0288
-37.6085
-36.398
-36.5105
-46.2476
-43.9037
-51.1509
-50.2024
-47.9056
-49.1867
-44.5389
-47.6456
-43.5741
-41.0582
-43.5764
-41.0626
-45.9288
-45.9278
-40.1787
-40.1809
-36.6911
-43.9418
-44.1754
-43.3077
-40.5217
-43.6798
-43.8968
-44.3048
-39.7222
-39.9033
-39.7197
-39.9042
-39.4388
-39.4412
-39.6171
-39.6187
-59.6384
-71.3501
-54.854
-62.0557
-53.7785
-55.6061
-80.7488
-71.1706
12.1989
-8.2938
12.1953
-8.15856
16.7354
16.7343
-28.9036
-28.8259
-67.6707
-58.0086
-67.6548
-57.9938
-72.1713
-72.1648
-53.315
-53.3153
-37.7688
-36.3575
-36.8597
-36.5503
-38.0299
-37.6526
-36.3976
-36.5095
-46.245
-43.9014
-51.1473
-50.1982
-49.1848
-47.8971
-44.5364
-47.6443
-36.6882
-43.9284
-44.1689
-43.2941
-43.6767
-40.518
-43.8814
-44.2864
-59.6031
-71.3469
-54.886
-62.0239
-55.5829
-53.7819
-71.1333
-80.8297
-75.3257
-74.3605
-67.934
-57.0719
-55.322
-66.173
-52.7684
-51.6164
-75.3183
-74.3436
-67.9264
-57.0628
-66.1699
-55.2749
-51.5929
-52.7611
-74.6192
-74.6252
-68.3025
-58.8678
-68.3108
-58.8726
-55.2824
-55.2804
-27.2608
-27.2484
-23.9389
-9.77735
-9.77807
-23.9107
-2.33138
-2.3315
187.006
197.665
178.764
178.742