# vtk DataFile Version 2.0
tet_velo
ASCII
DATASET UNSTRUCTURED_GRID
POINTS 29498 float
-0.755 0.245 -2.30138
-0.835663 0.375 2.145
-0.755 0.905 -2.08983
-0.715 1.295 2.15484
0.755 0.245 -2.30138
0.785 0.365 2.17782
0.755 0.905 -2.08983
0.715 1.295 2.15484
-0.827039 0.243182 -0.819253
-0.836024 0.304418 0.662873
-0.830526 1.12386 -0.67494
-0.816789 1.25346 0.73995
0.814547 0.235453 -0.808313
0.828023 0.271977 0.684753
0.832892 1.12623 -0.67494
0.816784 1.25345 0.73995
-1.56631 -0.262945 -3.52881
-1.57297 -0.186056 -2.3686
-1.62353 -0.17217 -0.883957
-1.63644 -0.141242 0.613939
-1.62948 -0.0799355 2.09973
-1.63553 -0.0213847 3.26555
-1.64703 0.0416232 4.4214
-1.56166 0.131593 -3.44902
-1.56686 0.232417 -2.29624
-1.63147 0.26935 -0.826081
-1.63142 0.319721 0.64935
-1.60387 0.379524 2.12078
-1.61854 0.438246 3.28527
-1.63728 0.501077 4.44349
-1.55988 0.87534 -3.2693
-1.56633 0.972285 -2.11266
-1.63092 1.13921 -0.688546
-1.61053 1.25254 0.729819
-1.53124 1.30642 2.15449
-1.57278 1.36412 3.31666
-1.61405 1.42618 4.48294
-1.56487 2.12732 -3.05585
-1.57335 2.24495 -1.9106
-1.59712 2.4355 -0.508812
-1.60431 2.59968 0.876858
-1.59284 2.70012 2.2777
-1.596 2.75916 3.42099
-1.61237 2.81615 4.57933
-0.774989 -0.257611 -3.53173
-0.766829 -0.177578 -2.37273
-0.812417 -0.187788 -0.879013
-0.830567 -0.158387 0.629223
-0.840355 -0.0880299 2.12308
-0.850018 -0.0289905 3.28312
-0.85993 0.0339424 4.43385
-0.773762 0.129596 -3.44916
-0.843918 0.43216 3.29931
-0.855238 0.494191 4.45373
-0.772203 0.8467 -3.25928
-0.800887 1.35814 3.31888
-0.836478 1.42052 4.48692
-0.767162 2.10572 -3.04552
-0.769518 2.22384 -1.89932
-0.790387 2.42743 -0.501081
-0.8066 2.60131 0.878581
-0.806928 2.7007 2.27572
-0.812693 2.75746 3.41937
-0.827747 2.81322 4.57942
0.781555 -0.259537 -3.52929
0.788874 -0.17994 -2.36966
0.816549 -0.197027 -0.868698
0.817656 -0.182214 0.648341
0.780873 -0.102675 2.14874
0.744034 -0.040496 3.30323
0.724965 0.0233409 4.44942
0.768405 0.128576 -3.44778
0.732118 0.422652 3.31881
0.718953 0.484551 4.46848
0.770491 0.846129 -3.25835
0.718667 1.35264 3.32806
0.718382 1.4128 4.49783
0.818489 2.10408 -3.04318
0.826586 2.22244 -1.89713
0.824677 2.4255 -0.498425
0.79725 2.59791 0.882072
0.764194 2.69595 2.28042
0.74982 2.75161 3.42566
0.739993 2.80639 4.58713
1.57058 -0.26774 -3.52281
1.58037 -0.192058 -2.36094
1.62213 -0.188726 -0.866425
1.62915 -0.176453 0.64449
1.58726 -0.10915 2.13892
1.54835 -0.0448674 3.30047
1.52527 0.0203283 4.45073
1.55683 0.128511 -3.44485
1.56144 0.22961 -2.29188
1.62198 0.25697 -0.811311
1.63117 0.284561 0.677514
1.57622 0.353308 2.15876
1.53513 0.417509 3.31838
1.51706 0.481369 4.47135
1.55989 0.873443 -3.2663
1.56574 0.97184 -2.11074
1.63228 1.13675 -0.683195
1.619 1.23985 0.740175
1.53239 1.29251 2.16899
1.5127 1.34966 3.33649
1.50994 1.40987 4.50452
1.61248 2.12345 -3.05062
1.6228 2.24133 -1.90547
1.62854 2.43051 -0.502554
1.6027 2.5916 0.885044
1.56158 2.68942 2.28834
1.54137 2.74668 3.43431
1.53069 2.80211 4.59502
-0.790218 0.575 -2.23082
0 0.268124 -2.27826
-0.805656 0.229454 -1.56032
-0.8368 0.835 2.21139
-0.0253315 0.373138 2.15827
-0.823522 0.35203 1.40394
0 0.960692 -2.14552
-0.828733 1.0504 -1.38239
0 1.32 2.17984
-0.801287 1.30962 1.4474
0.790272 0.575 -2.23088
0.795451 0.229549 -1.55485
0.817891 0.83 2.23422
0.776975 0.348025 1.43129
0.828733 1.0504 -1.38239
0.801364 1.3097 1.4474
-0.830807 0.274525 -0.07819
-0.842988 0.683521 -0.747097
-0.00624568 0.213581 -0.813783
-0.83991 0.778937 0.701412
-0.00400054 0.233113 0.673813
-0.82291 1.18791 0.032505
0.00118299 1.45995 -0.67494
-2.47086e-06 1.70053 0.73995
0.824723 0.250277 -0.06178
0.843019 0.680839 -0.741627
0.840261 0.762714 0.712352
0.823253 1.18825 0.032505
-0.896625 0.62926 -1.47135
-0.841104 0.731229 -0.0228425
-0.878433 0.806968 1.42567
-0.00312284 0.21876 -1.55758
-0.00512311 0.213641 -0.069985
-0.014666 0.272309 1.41761
0 0.575 -2.41228
-0.0126657 0.8325 2.37401
0.000591494 1.13729 -1.38239
0.000590259 1.69882 0.032505
-1.23543e-06 1.52823 1.4474
0.896638 0.627919 -1.46862
0.841309 0.721776 -0.0146375
0.883932 0.796357 1.43934
-1.16093 0.238709 -2.29881
-0.760915 0.0337111 -2.33705
-0.764381 0.187298 -2.87527
-1.21977 0.377262 2.13289
-0.838009 0.143485 2.13404
-0.83979 0.40358 2.72216
-1.16067 0.938643 -2.10125
-0.763602 0.87585 -2.67455
-0.762259 1.56442 -1.99458
-1.12312 1.30071 2.15467
-0.757944 1.32657 2.73686
-0.760964 1.99785 2.21528
0.771937 0.0325298 -2.33552
0.761702 0.186788 -2.87458
1.15822 0.237305 -2.29663
0.782936 0.131162 2.16328
0.758559 0.393826 2.74832
1.18061 0.359154 2.16829
0.762746 0.875565 -2.67409
0.790793 1.56372 -1.99348
1.16037 0.93842 -2.10028
0.716834 1.32382 2.74145
0.739597 1.99548 2.21763
1.12369 1.29376 2.16191
-1.22925 0.256266 -0.822667
-0.819728 0.0276973 -0.849133
-1.23372 0.31207 0.656112
-0.833295 0.0730153 0.646048
-1.23072 1.13153 -0.681743
-0.810456 1.77564 -0.588011
-1.21366 1.253 0.734885
-0.811694 1.92738 0.809265
0.815548 0.0192129 -0.838506
1.21826 0.246211 -0.809812
0.82284 0.0448814 0.666547
1.2296 0.278269 0.681134
0.828784 1.77586 -0.586683
1.23259 1.13149 -0.679068
0.807017 1.92568 0.811011
1.21789 1.24665 0.740062
-1.56964 -0.224501 -2.9487
-1.56399 -0.0656762 -3.48891
-1.17065 -0.260278 -3.53027
-1.59825 -0.179113 -1.62628
-1.56991 0.0231804 -2.33242
-1.1699 -0.181817 -2.37066
-1.62998 -0.156706 -0.135009
-1.6275 0.0485899 -0.855019
-1.21797 -0.179979 -0.881485
-1.63296 -0.110589 1.35684
-1.63393 0.0892397 0.631645
-1.2335 -0.149815 0.621581
-1.6325 -0.0506601 2.68264
-1.61668 0.149794 2.11026
-1.23492 -0.0839827 2.11141
-1.64128 0.0101192 3.84347
-1.62703 0.208431 3.27541
-1.24277 -0.0251876 3.27434
-1.64216 0.27135 4.43244
-1.25348 0.0377828 4.42763
-1.56426 0.182005 -2.87263
-1.56077 0.503466 -3.35916
-1.16771 0.130594 -3.44909
-1.59916 0.250884 -1.56116
-1.5666 0.602351 -2.20445
-1.63144 0.294536 -0.0883652
-1.63119 0.70428 -0.757314
-1.61765 0.349622 1.38506
-1.62097 0.786131 0.689585
-1.6112 0.408885 2.70302
-1.56756 0.842972 2.13764
-1.62791 0.469661 3.86438
-1.59566 0.901185 3.30096
-1.23123 0.435203 3.29229
-1.62567 0.963627 4.46322
-1.24626 0.497634 4.44861
-1.56311 0.923813 -2.69098
-1.56237 1.50133 -3.16257
-1.16604 0.86102 -3.26429
-1.59863 1.05575 -1.4006
-1.56984 1.60862 -2.01163
-1.62072 1.19587 0.0206362
-1.61402 1.78735 -0.598679
-1.57088 1.27948 1.44216
-1.60742 1.92611 0.803338
-1.55201 1.33527 2.73558
-1.56204 2.00327 2.2161
-1.59341 1.39515 3.8998
-1.58439 2.06164 3.36883
-1.18683 1.36113 3.31777
-1.61321 2.12116 4.53114
-1.22526 1.42335 4.48493
-1.56911 2.18614 -2.48322
-1.16601 2.11652 -3.05068
-1.58523 2.34023 -1.2097
-1.17143 2.2344 -1.90496
-1.60071 2.51759 0.184023
-1.19375 2.43146 -0.504947
-1.59858 2.6499 1.57728
-1.20546 2.60049 0.877719
-1.59442 2.72964 2.84935
-1.19988 2.70041 2.27671
-1.60419 2.78765 4.00016
-1.20435 2.75831 3.42018
-1.22006 2.81469 4.57938
-0.770909 -0.217594 -2.95223
-0.774376 -0.0640074 -3.49045
0.003283 -0.258574 -3.53051
-0.789623 -0.182683 -1.62587
0.0110227 -0.178759 -2.3712
-0.821492 -0.173087 -0.124895
0.00206583 -0.192407 -0.873856
-0.835461 -0.123209 1.37615
-0.00645534 -0.170301 0.638782
-0.845186 -0.0585102 2.7031
-0.029741 -0.0953526 2.13591
-0.854974 0.00247594 3.85849
-0.846968 0.201585 3.29122
-0.052992 -0.0347433 3.29317
-0.857584 0.264067 4.44379
-0.0674826 0.0286417 4.44164
-0.772983 0.488148 -3.35422
-0.00267889 0.129086 -3.44847
-0.849578 0.463176 3.87652
-0.822402 0.89515 3.3091
-0.0559 0.427406 3.30906
-0.845858 0.957358 4.47033
-0.0681427 0.489371 4.4611
-0.769683 1.47621 -3.1524
-0.000855923 0.846414 -3.25881
-0.818683 1.38933 3.9029
-0.80679 2.0578 3.36913
-0.04111 1.35539 3.32347
-0.832112 2.11687 4.53317
-0.0590477 1.41666 4.49238
-0.76834 2.16478 -2.47242
0.0256638 2.1049 -3.04435
-0.779953 2.32563 -1.2002
0.0285341 2.22314 -1.89822
-0.798494 2.51437 0.18875
0.017145 2.42646 -0.499753
-0.806764 2.65101 1.57715
-0.00467523 2.59961 0.880326
-0.80981 2.72908 2.84755
-0.0213671 2.69832 2.27807
-0.82022 2.78534 3.9994
-0.0314365 2.75454 3.42252
-0.043877 2.80981 4.58328
0.785215 -0.219739 -2.94948
0.77498 -0.0654808 -3.48854
1.17607 -0.263639 -3.52605
0.802712 -0.188484 -1.61918
1.18462 -0.185999 -2.3653
0.817102 -0.18962 -0.110179
1.21934 -0.192876 -0.867562
0.799264 -0.142445 1.39854
1.2234 -0.179334 0.646416
0.762454 -0.0715856 2.72598
1.18407 -0.105913 2.14383
0.7345 -0.00857753 3.87632
0.738076 0.191078 3.31102
1.14619 -0.0426817 3.30185
0.721959 0.253946 4.45895
1.12512 0.0218346 4.45007
0.769448 0.487352 -3.35306
1.16262 0.128544 -3.44631
0.725535 0.453601 3.89365
0.725392 0.887647 3.32344
1.13363 0.42008 3.3186
0.718668 0.948673 4.48315
1.11801 0.48296 4.46992
0.79449 1.4751 -3.15077
1.16519 0.859786 -3.26233
0.718525 1.38272 3.91294
0.734243 2.05213 3.37686
1.11568 1.35115 3.33228
0.729188 2.10959 4.54248
1.11416 1.41133 4.50118
0.822538 2.16326 -2.47015
1.21549 2.11376 -3.0469
0.825632 2.32397 -1.19778
1.22469 2.23189 -1.9013
0.810963 2.5117 0.191824
1.22661 2.428 -0.50049
0.780722 2.64693 1.58124
1.19998 2.59475 0.883558
0.757007 2.72378 2.85304
1.16288 2.69269 2.28438
0.744906 2.779 4.00639
1.1456 2.74915 3.42998
1.13534 2.80425 4.59107
1.57548 -0.229899 -2.94188
1.5637 -0.0696143 -3.48383
1.60125 -0.190392 -1.61368
1.57091 0.018776 -2.32641
1.62564 -0.182589 -0.110967
1.62206 0.0341221 -0.838868
1.6082 -0.142802 1.3917
1.63016 0.0540539 0.661002
1.56781 -0.0770087 2.71969
1.58174 0.122079 2.14884
1.53681 -0.0122696 3.8756
1.54174 0.186321 3.30943
1.52117 0.250849 4.46104
1.55914 0.179061 -2.86836
1.55836 0.500977 -3.35558
1.59171 0.24329 -1.5516
1.56359 0.600725 -2.20131
1.62657 0.270766 -0.0668984
1.62713 0.696861 -0.747253
1.60369 0.318935 1.41814
1.62508 0.762208 0.708845
1.55568 0.385409 2.73857
1.5543 0.822911 2.16387
1.5261 0.449439 3.89487
1.52392 0.883585 3.32744
1.5135 0.945619 4.48794
1.56282 0.922642 -2.68852
1.58619 1.49845 -3.15846
1.59901 1.0543 -1.39697
1.59427 1.60659 -2.0081
1.62564 1.1883 0.0284896
1.63041 1.78363 -0.592875
1.57569 1.26618 1.45458
1.61085 1.91573 0.812609
[...]
POINT_DATA 29498
VECTORS point_vectors float
-6.17738 -9.69051 13.7458
0.259754 0.140697 2.57494
-1.12126 0.69883 2.21542
-0.204716 -0.261435 0.285179
6.24139 -9.73251 13.8576
-0.245667 0.251801 1.39289
1.12282 0.700555 2.21715
0.201282 -0.253954 0.275305
0.0603361 0.0219789 1.54927
0.0592114 -0.0512841 1.03851
-0.00605569 -0.00258536 0.120609
0.000173202 0.000532381 0.00168458
-0.0472809 0.0454675 1.64183
-0.17823 -0.0837908 1.51716
0.0188689 -0.00283854 0.325249
-0.000582599 0.00175589 0.00553289
-0.517229 -0.310726 19.9504
-1.14405 -0.803449 20.5603
-0.356696 -0.46906 21.5842
0.145559 -0.258803 21.7677
0.705758 -0.0183612 21.7918
1.057 0.178646 21.4925
1.01328 0.0640819 21.057
-0.699527 -0.283011 19.7898
-1.85096 -0.799778 20.5331
-0.478011 -0.615841 21.6594
0.0878305 -0.47582 21.8228
0.78269 -0.347672 21.9071
1.32027 -0.230179 21.3905
1.26249 -0.223494 21.6316
-0.948998 0.0630418 19.6543
-2.1061 0.128752 20.5811
-1.21667 -0.492796 21.5855
-0.471749 -0.544447 21.9248
0.192718 -0.719746 21.9024
0.707514 -0.839462 21.5519
0.730784 -0.500871 21.9726
-0.578688 0.384299 20.027
-0.878796 0.576689 20.539
-0.839503 0.378085 21.3459
-0.390678 0.0535322 21.6453
-0.0722687 -0.225783 21.5767
0.0878116 -0.342168 21.4471
0.158152 -0.246436 20.5606
-0.467125 -0.645073 19.4925
-1.60844 -2.98032 20.409
-0.321215 -0.265311 22.0637
0.279719 0.208282 21.9339
1.10865 1.06767 21.3786
1.61431 1.41397 20.2945
1.60467 1.07229 19.812
-0.71354 -0.586858 19.0167
2.42604 0.91591 14.9239
2.48156 1.1367 16.1726
-1.11386 0.259855 18.4687
1.07644 -0.641095 7.83166
0.951997 -1.1385 11.6339
-0.484038 0.782857 19.6807
-0.916953 1.40231 20.278
-1.03651 1.31484 21.3965
-0.383098 0.272481 21.944
-0.116132 -0.173748 21.8333
0.0958337 -0.445164 21.306
-0.0619284 -0.360516 21.634
0.468385 -0.641999 19.5317
1.61828 -2.86202 20.4455
0.313271 -0.285492 22.0604
-0.261634 0.222947 21.9872
-0.998807 1.13327 21.3892
-1.47325 1.63477 19.6725
-1.54286 1.27019 18.696
0.715753 -0.584877 19.0138
-2.28858 1.3396 12.3934
-2.64244 1.50914 14.9351
1.11493 0.263685 18.4645
-0.965481 -0.554304 4.97189
-0.899983 -1.22392 9.64979
0.507643 0.756633 19.705
0.941847 1.31358 20.3192
1.03901 1.27033 21.4125
0.38155 0.273845 21.9587
0.12524 -0.164861 21.8699
-0.080855 -0.412893 21.4423
0.0799069 -0.346201 21.7835
0.513816 -0.303433 19.9467
1.12523 -0.796702 20.572
0.34562 -0.460434 21.5822
-0.169609 -0.224945 21.7784
-0.740699 0.0171004 21.789
-1.09119 0.214273 21.5526
-1.09374 0.0518093 21.0107
0.704885 -0.292295 19.7846
1.85476 -0.803702 20.5438
0.461526 -0.617363 21.6681
-0.127098 -0.456701 21.8357
-0.842426 -0.318016 21.9183
-1.40804 -0.208073 21.445
-1.43491 -0.204303 21.7577
0.949756 0.0611521 19.6457
2.10806 0.12682 20.5944
1.20607 -0.494594 21.5909
0.448237 -0.54627 21.9213
-0.190404 -0.718712 21.8912
-0.726123 -0.90545 21.636
-0.812128 -0.5697 22.0224
0.575909 0.369348 20.0471
0.864696 0.543957 20.558
0.79384 0.362968 21.3477
0.382286 0.0569968 21.6233
0.0617537 -0.224782 21.603
-0.081121 -0.335631 21.413
-0.169839 -0.243243 20.4279
-1.48847 -0.0840616 1.8971
-0.000242782 -0.0366801 0.306361
-0.0149066 0.0137006 0.399105
0.102238 -0.146066 0.580751
0 0 0
0.0605807 -0.00250519 0.494832
9.56167e-05 0.41593 0.911854
-0.423008 -0.318146 1.18829
-0.00396921 0.0429257 -0.155614
0.00182974 0.00249404 0.0145802
1.50039 -0.0861045 1.91286
-0.00205209 0.00158353 0.155294
-0.0564273 -0.129365 0.197395
-0.0669992 0.000131687 0.466182
0.422692 -0.317685 1.18828
-0.00183892 0.00230295 0.0142509
0.0298426 0.00931336 1.425
0 0 0
-6.59475e-08 2.29884e-08 3.36027e-05
6.40791e-05 0.00185057 0.0079114
0 0 0
0.00504248 0.0161139 0.0538947
-2.45711e-05 0.0455891 0.0941277
-1.24006e-06 -0.00134371 0.0143205
-0.0388978 -0.000112482 1.06202
0 0 0
0.0017503 0.0165679 0.0857407
-0.00578003 0.018358 0.0617644
-1.6119e-06 -3.79862e-05 0.000488838
0 0 0
-0.00700583 0.00989241 0.161537
3.49625e-11 1.00314e-09 -1.68033e-07
7.10221e-08 7.45271e-08 0.000138272
3.0888e-05 0.000694923 0.00691852
-4.26305e-05 -0.00118041 0.00967257
0 0 0
-1.14149e-05 0.00146547 0.00899754
2.20403e-06 0.0122238 0.0901132
-6.78798e-05 0.00527236 -0.0129801
-2.82895e-07 -4.06246e-05 0.000597776
0 0 0
0.00156083 0.00693663 0.143396
-3.51196 -1.97547 20.3082
-2.78466 -4.90807 20.38
-1.88225 -1.69705 17.9519
1.38273 -0.297997 21.0482
1.61655 1.03858 17.5051
1.84229 0.591509 10.587
-4.22757 0.769246 20.647
-3.29231 1.51201 16.5862
-2.12226 2.54768 19.9948
0.160118 -0.607161 18.6273
-1.05802 -0.896663 3.64519
-0.310878 -0.310511 21.6446
2.80025 -4.76743 20.4025
1.88371 -1.70265 17.942
3.51115 -1.99289 20.3087
-1.57115 1.21125 17.3087
-1.74716 0.837967 8.69835
-1.49261 -0.210875 20.4635
3.29531 1.51627 16.5759
2.15327 2.46742 20.0189
4.22794 0.76606 20.6512
1.30033 -0.795403 1.97484
0.301568 -0.297532 21.4854
-0.16284 -0.616109 18.5097
-0.172494 -0.929635 21.8654
-0.00909325 0.244579 19.4892
0.349237 -0.599794 21.0689
0.688332 0.2365 17.6127
-2.08723 -1.23954 21.9365
-3.12077 2.08469 21.5105
-0.818755 -0.877222 21.4013
-0.842172 0.296975 22.4805
0.025688 0.209754 19.6371
0.138806 -0.900334 21.7211
-0.666839 0.299115 18.4627
-0.397113 -0.561298 21.1283
3.09512 1.9764 21.5294
2.07985 -1.23339 21.9304
0.842826 0.298973 22.4862
0.796376 -0.887214 21.4057
-0.851463 -0.561937 20.0782
-0.605917 -0.320228 19.8831
-0.550522 -0.467095 19.7356
-0.799476 -0.680944 21.3281
-1.43738 -0.824903 20.5701
-1.55305 -1.59351 20.4788
-0.0612484 -0.34429 21.6945
-0.428954 -0.545971 21.6109
-0.22126 -0.49152 21.7884
0.411272 -0.165475 21.8428
0.13034 -0.343049 21.7639
0.32794 -0.154885 21.9205
0.918101 0.089163 21.6254
0.777227 -0.150026 21.8424
1.03503 0.289298 21.9376
1.04425 0.206131 20.9898
1.20253 0.133786 21.3304
1.41996 0.488118 21.326
1.21625 -0.111544 21.3441
1.30099 0.375855 21.4573
-1.27948 -0.513953 19.8722
-0.841216 -0.166077 19.6907
-0.785321 -0.417396 19.4817
-1.15015 -0.742376 21.4964
-2.10839 -0.372068 20.6082
-0.151635 -0.546205 21.7294
-0.814363 -0.720387 21.6615
0.38574 -0.419781 21.9626
-0.155313 -0.618635 21.8968
1.08704 -0.293719 21.7192
0.595114 -0.643594 21.9806
1.30925 -0.111685 21.4819
1.12106 -0.627847 21.5851
1.78824 -0.051863 21.0262
1.07679 -0.444838 21.679
1.93359 0.109885 19.6978
-1.6483 0.155104 19.8269
-0.808061 0.351866 19.801
-1.11476 0.149977 19.1319
-1.66637 -0.241609 21.3042
-1.4857 0.585841 20.4982
-0.849689 -0.568456 21.823
-1.32528 0.155456 21.4458
-0.115787 -0.583032 21.9564
-0.547508 -0.144948 21.8202
0.425791 -0.775033 21.7885
-0.0348236 -0.411699 21.7464
0.715738 -0.761864 21.5084
0.264046 -0.564455 21.6466
0.78821 -1.18379 20.8591
0.35586 -0.420865 21.12
1.05699 -0.863726 18.0452
-0.76161 0.513655 20.2307
-0.578719 0.574691 19.8492
-0.904791 0.507731 20.9426
-0.975359 0.9432 20.4238
-0.630583 0.234772 21.5546
-0.992896 0.732172 21.341
-0.215803 -0.0926028 21.6355
-0.36932 0.110843 21.7904
0.00477712 -0.263431 21.55
-0.087782 -0.221355 21.7139
0.14133 -0.341434 21.456
0.027237 -0.374805 21.6969
0.0792819 -0.346805 20.8505
-0.965679 -1.45927 19.3492
-0.545972 -0.637123 19.3058
0.00761193 -0.757641 19.297
-0.845674 -1.21934 22.2269
0.0234969 -4.24377 20.4392
-0.0114778 0.00399763 21.9166
-0.00436917 -0.760684 22.0652
0.696275 0.609345 21.7682
0.000449358 0.0184701 20.511
1.41908 1.42362 21.1941
0.0175492 1.18641 19.0936
1.565 1.4168 21.0621
2.27506 1.78984 18.0342
0.0571448 2.16626 18.9566
2.08104 1.27058 17.83
0.265674 2.68426 18.658
-0.922228 -0.288554 18.6878
-0.00663411 -0.776132 18.5575
2.44072 0.97063 15.8011
1.8559 -0.731013 7.63987
0.0676679 1.72707 5.88
2.12814 -0.535008 14.5688
0.385055 2.54825 11.8839
-0.808309 0.839416 19.0667
-0.00125192 0.45986 17.6518
0.728484 -1.73135 10.7689
0.106069 -0.971916 20.9448
-0.0467342 -0.425537 -6.98414
0.0988064 -0.740942 20.8723
0.0616613 0.400536 3.82479
-0.713539 1.15868 19.8917
0.0176983 0.997011 19.4819
-1.04091 1.43599 20.7807
0.0369532 1.88609 20.106
-0.731087 0.790688 21.8815
0.0325443 2.13213 21.449
-0.21886 -0.0216982 21.8007
-0.00438247 0.492422 22.0928
-0.0459844 -0.233357 21.7939
-0.0115507 -0.0908314 21.7535
0.102357 -0.487652 21.1114
0.012039 -0.454605 21.1462
-0.0221457 -0.384444 21.5457
0.969087 -1.43556 19.3863
0.549452 -0.634032 19.3122
0.551315 -0.475466 19.7572
0.831202 -1.19834 22.1981
1.52889 -1.56074 20.4944
0.0164318 -0.0252446 21.9458
0.226761 -0.490175 21.7845
-0.634385 0.660762 21.7958
-0.333401 -0.126627 21.9318
-1.28749 1.55719 21.17
-1.05707 0.374746 21.9173
-1.3856 1.77519 20.9435
-2.20889 2.07038 17.464
-1.56996 0.779978 21.4754
-2.19069 1.56709 16.6742
-1.46837 0.609988 21.5212
0.92279 -0.289434 18.6806
0.791261 -0.422154 19.4708
-2.46498 1.68989 13.8365
-1.52028 -0.55151 3.73113
-2.18077 0.057518 19.5873
-2.08917 -0.0386932 12.7056
-2.069 0.501697 18.5652
0.821197 0.82361 19.0859
1.11681 0.149418 19.1345
-0.646979 -1.97227 7.53769
-0.156748 -0.945475 20.6198
-0.848709 -1.07373 18.167
-0.0866657 -0.729996 18.9382
-1.02478 -0.946998 16.1703
0.743719 1.11152 19.9206
0.58399 0.553359 19.873
1.0625 1.3688 20.7901
0.982068 0.89548 20.4326
0.727595 0.774726 21.8882
0.982449 0.697201 21.3529
0.220109 -0.023784 21.8057
0.368158 0.103914 21.7964
0.0344153 -0.228109 21.7387
0.0975134 -0.213233 21.6866
-0.086385 -0.469081 21.167
-0.0217142 -0.395575 21.6897
-0.0418985 -0.348495 21.0115
0.838448 -0.563403 20.0904
0.598383 -0.3219 19.8675
0.781689 -0.677503 21.3179
1.42369 -0.819302 20.599
0.0531641 -0.32475 21.6964
0.418956 -0.551203 21.6121
-0.447343 -0.125612 21.8589
-0.149451 -0.333104 21.7771
-0.965697 0.144476 21.631
-0.823222 -0.119968 21.8461
-1.15721 0.187933 20.8557
-1.25127 0.144785 21.398
-1.29539 -0.10911 21.3152
1.28811 -0.522839 19.8711
0.847083 -0.16666 19.664
1.13963 -0.749332 21.5077
2.11832 -0.377799 20.6139
0.135223 -0.535106 21.7357
0.804327 -0.720744 21.6668
-0.426998 -0.408236 21.9557
0.120758 -0.615409 21.8988
-1.16747 -0.259453 21.7656
-0.645515 -0.648703 21.9895
-1.45922 -0.0599582 21.4677
-1.25381 -0.628839 21.7506
-1.14548 -0.499682 21.7964
1.64842 0.153244 19.8342
0.800369 0.347574 19.814
1.66003 -0.244717 21.317
1.46678 0.565858 20.5077
0.830427 -0.570448 21.828
1.29438 0.154089 21.4441
0.100064 -0.585707 21.9498
0.544132 -0.153605 21.8224
-0.457167 -0.813993 21.7438
0.0472748 -0.409474 21.7182
-0.750039 -0.811512 21.5918
-0.246412 -0.541724 21.6621
-0.353952 -0.456156 21.1531
0.753677 0.489607 20.2478
0.909287 0.509869 20.9523
0.617615 0.231279 21.5417
0.199283 -0.0932042 21.6208
-0.0118978 -0.261628 21.5131
-0.166308 -0.332605 21.4826
-1.05237 -0.573024 19.9949
-1.34791 -1.73888 18.8094
-1.03474 -0.934939 19.762
-1.71848 -0.955989 19.2182
-0.643463 -0.456176 19.6049
-2.3089 -1.93444 20.4454
-0.978188 -0.718008 21.3926
-0.715575 -0.601578 21.7559
-0.868554 -1.07065 21.7463
-1.27244 -1.43358 22.3711
-0.119146 -0.640374 21.895
-0.10398 -0.424394 21.6964
0.339617 0.258201 18.3028
0.0862143 -0.283256 21.8261
0.139618 -0.72151 21.3067
0.445712 -0.370582 21.7825
0.4176 -0.249557 21.8923
1.33197 0.53296 16.8731
0.654764 0.0154695 21.9807
0.655209 -0.559104 20.8946
1.31845 0.0710692 21.6544
1.02348 -0.0814618 21.7484
1.95278 1.43908 17.8033
1.29803 0.46241 21.6665
1.81037 -0.180952 20.8379
1.63048 0.304113 21.5142
1.28037 -0.0986253 20.9986
1.94015 1.26353 17.2466
1.65799 0.531021 21.1579
2.13471 0.0244468 20.8954
1.5213 0.254 21.3445
-1.54113 -0.262693 19.7959
-2.95704 -0.62256 16.5877
-2.59267 0.544181 18.8595
-0.958479 -0.228066 19.2203
-4.79243 -0.588586 20.4836
-1.47424 -0.585942 21.5105
-2.56209 -0.696746 21.7863
-0.674085 -1.30302 21.7372
-0.448523 -0.691123 21.8052
-1.42331 -1.2007 21.8726
0.0627478 -0.872977 20.7585
0.157225 -0.587789 22.0066
-0.26444 -0.5711 20.3516
0.933381 -0.718396 19.8075
0.859827 -0.647483 21.8443
0.251238 -1.45185 4.39528
0.288105 -0.887317 19.7379
1.51687 -0.684743 20.5111
1.11182 -0.651555 21.3836
2.16548 0.223533 10.619
1.01853 -1.20755 21.2406
1.76971 -1.00857 18.9694
-1.21249 0.541747 20.033
-1.53564 1.90009 19.0512
-0.814492 0.824583 20.0782
-0.897661 0.576061 19.4637
-1.98562 1.28686 20.31
-1.48408 0.368675 21.0125
-2.52329 2.08927 20.5342
-1.06369 0.893557 20.8818
-2.0591 0.603632 21.5437
-0.971294 -0.00397226 21.734
-2.21283 1.15546 22.6114
-0.699537 0.433479 21.6987
-0.745387 -0.00531801 22.1005
-0.235462 -0.286072 21.8107
-0.346039 -0.194652 21.9121
-0.222068 -0.0973309 21.7384
-0.179214 -0.420569 21.826
0.133985 -0.518997 21.6504
-0.235762 -0.574583 21.6924
-0.0267812 -0.337612 21.31
0.217333 -0.805221 21.6599
0.329293 -0.81679 20.4979
0.141335 -0.807992 22.5658
0.153543 -0.425972 21.0594
0.232042 -0.636162 22.239
1.35742 -1.73026 18.823
0.0182017 -2.11533 18.9
-0.00536144 -2.78696 16.3739
-0.00250331 -0.813709 18.9581
0.0128275 -6.93647 21.0183
0.708923 -0.606654 21.7998
0.00570936 -1.91798 22.6058
-0.00667785 -0.318665 15.2139
-0.309922 0.203902 18.7683
-0.00709603 -0.339139 21.1434
0.0197949 0.148598 11.7043
-1.25763 0.679509 16.7712
0.00864873 0.597757 19.8927
0.0403757 1.02715 10.5036
-1.83245 1.6697 17.4639
0.0358539 1.6484 18.9579
-0.0111179 0.333396 3.33627
0.0709537 2.44271 13.6425
-1.79083 1.76601 16.3659
0.154661 2.77476 18.6743
0.231013 3.00697 8.15546
0.381585 2.63536 15.861
2.96202 -0.626741 16.5717
-0.00105816 3.14523 13.7315
-0.00200247 -0.45063 17.6666
-0.000702905 -1.35423 2.7587
-0.0404236 1.06201 -5.03603
0.271245 2.37849 -0.804743
-2.17428 0.287888 6.81533
-0.245277 1.86236 -4.2525
0.391203 4.66847 1.11866
1.55316 1.84684 19.0916
0.0262442 1.53501 19.6907
0.0164899 1.22878 18.5942
0.0463305 3.90548 19.5536
2.55923 1.99398 20.5754
0.0364045 2.12803 20.5952
0.0480637 5.20535 20.9299
2.20113 1.13167 22.6074
0.0106378 1.32156 22.0669
-0.0040155 0.797168 22.617
0.341781 -0.192968 21.8603
-0.00637752 0.0889551 21.9471
-0.0141864 0.16516 18.7233
0.228853 -0.533075 21.4048
-0.0190593 -0.307113 21.7969
-0.00963914 -0.725364 19.6476
-0.0400825 -0.861145 22.6436
-0.0071979 -0.474621 20.7382
-0.0291191 -0.562153 19.7152
1.0486 -0.578459 19.9863
1.02472 -0.936265 19.7937
1.73015 -0.967329 19.1993
0.644513 -0.460374 19.6101
2.27888 -1.89983 20.4672
0.967498 -0.730455 21.3978
0.855404 -1.05443 21.7365
1.22589 -1.44874 22.3738
0.119623 -0.628171 21.8806
0.0947583 -0.420659 21.7
-0.0699056 -0.288597 21.8103
-0.148017 -0.68533 21.3215
-0.469014 -0.315357 21.79
-0.445223 -0.227605 21.8845
-0.669237 0.0770429 21.9662
-0.737107 -0.514127 20.5689
-1.38952 0.19142 21.486
-1.10116 -0.0239483 21.7419
-1.33612 0.62316 21.6043
-1.95363 -0.0847652 20.4128
-1.7776 0.684669 20.8674
-1.38281 -0.0734325 20.8718
-1.58655 0.73398 21.3804
-2.43144 0.104592 19.5511
-1.70241 0.600386 20.3109
1.54513 -0.268166 19.7959
2.59648 0.543255 18.8621
0.96598 -0.228995 19.2227
4.80085 -0.60124 20.4939
1.47273 -0.594472 21.5212
2.55816 -0.69946 21.783
0.651246 -1.30423 21.7011
0.42817 -0.683892 21.8079
1.40014 -1.19427 21.8697
-0.0867022 -0.858627 20.773
-0.198915 -0.584342 22.0117
0.24975 -0.584286 20.3632
-0.967214 -0.683273 19.3936
-0.953329 -0.653532 21.8883
-0.270188 -0.822412 18.6085
-1.67535 -0.733152 18.1281
-1.09598 -0.636509 21.6537
-0.927826 -1.42623 19.3744
-1.91366 -1.2355 17.6948
1.19671 0.527595 20.0493
0.816447 0.786162 20.1032
0.897361 0.553102 19.4891
1.95852 1.21354 20.3319
1.45754 0.352798 21.0175
1.04736 0.842503 20.9178
2.02189 0.570343 21.5455
0.960754 -0.0106721 21.7346
0.69917 0.417698 21.6952
0.743178 -0.0135154 22.1003
0.236806 -0.294759 21.82
0.218639 -0.091874 21.7427
0.180624 -0.426066 21.8288
-0.119622 -0.512866 21.6759
0.0287107 -0.332357 21.4475
-0.184637 -0.875811 22.0524
-0.276801 -0.929254 20.2376
-0.172528 -0.534651 20.7263
-0.19539 -0.732865 22.5522
-1.34083 -0.986287 19.5281
-1.00258 -1.21085 21.9972
0.209323 -0.47258 21.7968
0.811085 -0.248143 21.6925
1.64696 0.265838 21.5628
2.15872 0.368569 20.8632
-2.40662 -0.397213 18.7492
-1.87551 -1.07358 22.5674
-0.201355 -1.13562 21.0802
0.269884 -0.607358 20.3925
1.25043 -0.878188 20.1617
1.88565 -0.754777 20.7716
-1.50292 1.06787 19.6307
-2.10831 0.896638 20.9341
-1.45722 0.287557 22.0428
-0.332417 -0.249087 21.954
-0.0120418 -0.576109 21.7155
0.251876 -0.645871 21.91
0.00100438 -2.58387 17.9632
-0.00074995 -1.37386 19.4494
-0.0040609 -0.0838384 12.6791
0.0222504 0.589305 10.5297
0.0600183 1.49103 11.7726
0.201781 2.63536 13.9412
-0.0027309 -0.971185 13.7445
0.017332 -0.0614682 0.239653
0.610998 4.0611 0.053152
0.0354111 2.87347 18.4224
0.0486323 3.91478 19.7094
0.0120494 3.15017 23.0783
-0.00666388 0.219164 20.8664
-0.0343161 0.0787199 19.8804
-0.00906402 -0.748238 20.425
1.33776 -0.985198 19.5434
0.981375 -1.19227 21.9828
-0.193181 -0.444095 21.7982
-0.872374 -0.163805 21.5438
-1.76987 0.428394 21.2962
-2.06379 0.428898 20.6
2.4168 -0.403793 18.7476
1.8624 -1.08448 22.5987
0.183094 -1.1142 21.0933
-0.292224 -0.576953 20.2194
-1.27821 -0.819754 18.9707
-2.25845 -0.963895 18.647
1.49148 1.02031 19.6627
2.0705 0.843243 20.9487
1.44211 0.268392 22.0376
0.330904 -0.253706 21.9584
0.0319225 -0.591985 21.7733
-0.217883 -0.623183 22.5929
-1.56642 -0.331412 1.52837
-0.00993227 -0.287456 0.667301
-0.0322757 0.00367009 0.402183
0.0895122 -0.0401936 0.30295
0.0070277 0.0328655 0.176548
0.0654517 0.00763802 0.750584
-1.90602 0.261 2.17426
-0.102062 0.894593 1.2526
-0.533748 -0.159103 1.19912
-0.00205152 -0.013734 0.00390235
-0.117278 0.0434161 -0.157854
-0.0330966 -0.0724868 0.343794
0.0119364 -0.292804 0.68425
1.55056 -0.333963 1.51962
0.0436295 0.00622723 0.555632
-0.00356336 0.0141057 0.0806475
-0.0372018 -0.0235075 0.130701
-0.0333792 0.0039484 0.320649
0.100715 0.891092 1.25061
1.89444 0.257784 2.15951
0.538691 -0.159221 1.20785
0.106545 0.049202 -0.174079
0.0224754 -0.108976 0.0201472
0.0304981 -0.0707894 0.344978
-0.011997 0.0925072 1.01639
0.00332369 0.00334456 0.176647
0 0 0
0 0 0
0.0806441 -0.0321722 0.371378
0.017932 0.00251648 1.10362
4.23053e-05 0.000286353 0.00422079
0.00356267 0.00127195 0.0328574
-0.0672035 -0.0550269 0.165444
0 0 0
0.00256746 0.0128102 0.0788902
-0.0469136 0.0401123 0.104913
0 0 0
0 0 0
0.00491173 0.0120673 0.0417594
0.109726 -0.016217 0.651108
0.00647268 0.0354293 0.457935
0 0 0
-0.0730913 0.000492592 2.02524
0 0 0
0 0 0
-7.47594e-18 2.36881e-18 8.854e-17
-0.0050287 0.000159853 0.200685
-0.000540742 0.00206931 0.0440445
0.0666726 -0.0546429 0.164696
0.0695088 0.0491902 0.138611
0 0 0
-0.00329379 0.0158675 0.0973417
0 0 0
-0.109974 -0.0162655 0.652629
0 0 0
-0.00661313 0.0164918 0.0573586
-0.00380545 -0.00878032 0.065336
0 0 0
5.36751e-09 -1.5337e-06 4.67364e-05
-0.000821683 -0.636181 0.13658
5.80076e-07 1.71048e-05 0.000766634
9.05803e-07 -7.37643e-08 1.08145e-05
0 0 0
0 0 0
6.73256e-05 0.00143174 0.013342
-0.00059436 -0.0194675 0.000732179
-1.10238e-06 3.94895e-06 0.00131602
0 0 0
0.00954494 0.269165 0.190361
0 0 0
0 0 0
-0.0184201 0.00472591 0.030079
0 0 0
0 0 0
0 0 0
-0.00556492 -0.000441493 0.00151337
0 0 0
0.00371283 -0.00863359 0.0640295
2.6855e-07 2.19137e-08 -3.22795e-06
-7.07773e-07 1.69187e-05 0.000839086
0 0 0
-6.15041e-18 -2.16918e-17 1.88577e-16
-0.000299421 0.000197134 0.0018346
-2.55303e-06 -2.37884e-05 0.002628
0.0164544 0.00420896 0.0269467
0 0 0
0.00566916 -0.000631782 0.00163986
0 0 0
0.00136281 0.00572564 0.0763059
0 0 0
0 0 0
5.99887e-07 8.28402e-06 4.64963e-05
5.21129e-20 3.97239e-19 -6.05462e-17
-3.39173e-08 2.08867e-08 2.46081e-05
6.47536e-06 0.000322977 0.00158798
0 0 0
-4.25478e-08 -1.737e-08 -1.37639e-05
7.79748e-06 0.00147891 0.0481826
0 0 0
-0.0824464 0.0829221 0.675877
1.68686e-05 0.0216779 0.0365086
0.000561214 0.0231447 0.0642438
-1.926e-07 1.68386e-06 9.7425e-05
-3.76639e-06 -0.000179034 0.00135681
0 0 0
-0.00010822 0.000794821 0.012209
0 0 0
-7.99706e-09 1.29411e-07 7.93031e-07
8.24179e-05 0.0189718 0.107886
0 0 0
0.0863078 0.0858629 0.704641
0 0 0
-0.000467235 -0.000943525 0.00867392
0 0 0
0.0034598 -0.00142652 0.0257387
-3.47055e-05 -0.000775615 0.00450794
0.000232327 0.00144381 0.0281956
0 0 0
0 0 0
0 0 0
-0.0603877 0.0261786 0.252467
0 0 0
0.0198225 0.00256548 0.22078
0 0 0
1.04894e-06 1.96987e-06 -5.61307e-05
7.34802e-07 -1.37361e-06 3.90264e-05
0.00158409 4.63119e-05 0.0161589
-0.000684752 5.35333e-06 0.00711298
0 0 0
0 0 0
0 0 0
0 0 0