# vtk DataFile Version 2.0
tet_velo
ASCII
DATASET UNSTRUCTURED_GRID
POINTS 29498 float
-0.895 0.485 -2.4929
-0.895 0.535 2.41911
-0.830768 0.835 -2.425
-0.829371 0.885 2.305
0.895 0.485 -2.4929
0.895 0.535 2.41911
0.830768 0.835 -2.425
0.829371 0.885 2.305
-0.855032 0.541635 -0.855563
-0.857087 0.556246 0.781774
-0.833766 0.855131 -0.848333
-0.833715 0.872211 0.728334
0.855026 0.541641 -0.855563
0.857088 0.556246 0.781774
0.833766 0.85513 -0.848333
0.833715 0.872212 0.728334
-1.746 0.306743 -3.77796
-1.74086 0.332958 -2.49239
-1.71247 0.379142 -0.85348
-1.70474 0.395955 0.797635
-1.72334 0.384592 2.43757
-1.73126 0.383186 3.72818
-1.73212 0.389976 5.00946
-1.74374 0.469444 -3.76582
-1.73821 0.491584 -2.48687
-1.7062 0.538687 -0.859774
-1.70169 0.557797 0.772787
-1.72668 0.548108 2.40105
-1.73541 0.547321 3.6908
-1.73539 0.554213 4.97406
-1.7165 0.807471 -3.72451
-1.69469 0.829458 -2.44306
-1.68383 0.85703 -0.85732
-1.67955 0.877519 0.724123
-1.68539 0.886601 2.31103
-1.71346 0.88584 3.60329
-1.72735 0.889526 4.89633
-1.69329 1.31036 -3.70817
-1.68247 1.32939 -2.4358
-1.67733 1.34907 -0.869734
-1.67807 1.36608 0.683259
-1.68462 1.37983 2.24996
-1.69683 1.38702 3.52365
-1.70989 1.39281 4.81007
-0.889481 0.302933 -3.78187
-0.887611 0.328698 -2.4981
-0.860577 0.38063 -0.852714
-0.851364 0.394841 0.805305
-0.867654 0.376318 2.45098
-0.877549 0.376731 3.73727
-0.879598 0.385734 5.01473
-0.891568 0.466312 -3.76702
-0.888772 0.540844 3.6983
-0.885727 0.550078 4.97804
-0.869371 0.808121 -3.71701
-0.87146 0.883002 3.60208
-0.882106 0.886881 4.89607
-0.846677 1.31087 -3.70075
-0.837151 1.32996 -2.42763
-0.834188 1.34849 -0.864808
-0.836258 1.36484 0.682668
-0.842364 1.37893 2.24574
-0.853631 1.38616 3.51944
-0.865342 1.39183 4.80701
0.851348 0.302934 -3.78187
0.869358 0.328699 -2.4981
0.855397 0.380634 -0.852715
0.865375 0.394842 0.805305
0.886685 0.376318 2.45098
0.857495 0.376731 3.73727
0.838404 0.385734 5.01473
0.848069 0.466312 -3.76702
0.845205 0.540844 3.6983
0.829315 0.550078 4.97803
0.831221 0.808122 -3.71701
0.822535 0.883002 3.60208
0.818574 0.886882 4.89607
0.845008 1.31087 -3.70075
0.848568 1.32996 -2.42763
0.847631 1.34849 -0.864808
0.843474 1.36484 0.682668
0.838086 1.37893 2.24574
0.831633 1.38616 3.51944
0.825288 1.39183 4.80701
1.71676 0.306745 -3.77796
1.73183 0.33296 -2.49239
1.71386 0.379148 -0.85348
1.71665 0.395957 0.797635
1.7353 0.384592 2.43757
1.71702 0.383187 3.72818
1.6972 0.389976 5.00946
1.71466 0.469445 -3.76582
1.73874 0.491586 -2.48687
1.71022 0.538693 -0.859774
1.70601 0.557798 0.772787
1.7278 0.548108 2.40105
1.70664 0.547321 3.6908
1.68831 0.554214 4.97406
1.69333 0.807472 -3.72451
1.69864 0.829458 -2.44306
1.68923 0.857032 -0.85732
1.68234 0.877521 0.724123
1.68306 0.886601 2.31103
1.67875 0.885841 3.60329
1.67326 0.889526 4.89633
1.69347 1.31036 -3.70817
1.69443 1.32939 -2.4358
1.69149 1.34907 -0.869735
1.68635 1.36608 0.683259
1.68139 1.37983 2.24996
1.67704 1.38702 3.52365
1.67287 1.39281 4.81007
-0.825232 0.66 -2.4213
0 0.4429 -2.535
-0.852545 0.535788 -1.67423
-0.839076 0.71 2.33895
0 0.468844 2.48527
-0.859693 0.561973 1.60044
0 0.90909 -2.49909
-0.833915 0.846713 -1.63667
0 0.948301 2.3683
-0.833649 0.880712 1.51667
0.82519 0.66 -2.42126
0.852542 0.535791 -1.67423
0.839201 0.71 2.33907
0.8597 0.561967 1.60044
0.833914 0.846712 -1.63667
0.833649 0.880712 1.51667
-0.856063 0.548937 -0.0368949
-0.849161 0.698383 -0.851948
-3.0056e-06 0.285403 -0.855563
-0.847478 0.714229 0.755054
2.83174e-07 0.285472 0.781774
-0.833646 0.863577 -0.0599999
-1.48502e-07 1.13601 -0.848333
3.0754e-07 1.41323 0.728334
0.856063 0.548937 -0.0368949
0.84916 0.698385 -0.851948
0.847478 0.714229 0.755054
0.833646 0.863576 -0.0599999
-0.844544 0.679191 -1.65545
-0.848319 0.706306 -0.0484474
-0.847373 0.712114 1.55855
-1.5028e-06 0.270631 -1.67423
-1.36121e-06 0.285436 -0.0368949
1.41587e-07 0.271123 1.60044
0 0.66 -2.49827
0 0.71 2.42287
-7.42509e-08 0.991676 -1.63667
7.95192e-08 1.41321 -0.0599999
1.5377e-07 1.23885 1.51667
0.844545 0.679193 -1.65545
0.848319 0.706307 -0.0484474
0.84764 0.712114 1.55855
-1.3166 0.488292 -2.48989
-0.891305 0.406849 -2.4955
-0.893284 0.475656 -3.12996
-1.31084 0.541554 2.41008
-0.881327 0.455659 2.43504
-0.891886 0.537922 3.05871
-1.26273 0.832229 -2.43403
-0.850069 0.821561 -3.071
-0.83396 1.08248 -2.42632
-1.25738 0.885801 2.30801
-0.850416 0.884001 2.95354
-0.835867 1.13197 2.27537
0.882179 0.40685 -2.4955
0.871535 0.475656 -3.12996
1.31687 0.488293 -2.48989
0.890842 0.455659 2.43504
0.870103 0.537922 3.05871
1.3114 0.541554 2.41008
0.830994 0.821561 -3.071
0.839668 1.08248 -2.42632
1.2647 0.832229 -2.43403
0.825953 0.884001 2.95354
0.833729 1.13197 2.27537
1.25622 0.885801 2.30801
-1.28062 0.540161 -0.857669
-0.857805 0.461132 -0.854139
-1.27939 0.557022 0.77728
-0.854225 0.475544 0.793539
-1.2588 0.85608 -0.852827
-0.833977 1.10181 -0.856571
-1.25663 0.874865 0.726228
-0.834986 1.11853 0.705501
0.855212 0.461137 -0.854139
1.28262 0.540167 -0.857669
0.861231 0.475544 0.793539
1.28155 0.557022 0.77728
0.840698 1.10181 -0.856571
1.2615 0.856081 -0.852827
0.838595 1.11853 0.705501
1.25803 0.874866 0.726228
-1.74343 0.31985 -3.13517
-1.74487 0.388093 -3.77189
-1.31774 0.304838 -3.77991
-1.72667 0.35605 -1.67293
-1.73953 0.412271 -2.48963
-1.31424 0.330828 -2.49524
-1.7086 0.387549 -0.0279226
-1.70934 0.458915 -0.856627
-1.28652 0.379886 -0.853097
-1.71404 0.390273 1.6176
-1.70321 0.476876 0.785211
-1.27805 0.395398 0.80147
-1.7273 0.383889 3.08287
-1.72501 0.46635 2.41931
-1.2955 0.380455 2.44427
-1.73169 0.386581 4.36882
-1.73333 0.465253 3.70949
-1.30441 0.379958 3.73272
-1.73376 0.472094 4.99176
-1.30586 0.387855 5.01209
-1.74097 0.480514 -3.12635
-1.73012 0.638457 -3.74516
-1.31765 0.467878 -3.76642
-1.7222 0.515136 -1.67332
-1.71645 0.660521 -2.46497
-1.70395 0.548242 -0.0434934
-1.69502 0.697858 -0.858547
-1.71419 0.552952 1.58692
-1.69062 0.717658 0.748455
-1.73104 0.547714 3.04593
-1.70604 0.717355 2.35604
-1.7354 0.550767 4.33243
-1.72443 0.71658 3.64704
-1.31209 0.544082 3.69455
-1.73137 0.721869 4.9352
-1.31056 0.552145 4.97605
-1.7056 0.818464 -3.08379
-1.7049 1.05892 -3.71634
-1.29294 0.807796 -3.72076
-1.68926 0.843244 -1.65019
-1.68858 1.07942 -2.43943
-1.68169 0.867275 -0.0665984
-1.68058 1.10305 -0.863527
-1.68247 0.88206 1.51757
-1.67881 1.1218 0.703691
-1.69943 0.886221 2.95716
-1.68501 1.13322 2.28049
-1.7204 0.887683 4.24981
-1.70515 1.13643 3.56347
-1.29246 0.884421 3.60268
-1.71862 1.14117 4.8532
-1.30473 0.888203 4.8962
-1.68788 1.31987 -3.07199
-1.26998 1.31061 -3.70446
-1.6799 1.33923 -1.65277
-1.25981 1.32967 -2.43172
-1.6777 1.35758 -0.0932373
-1.25576 1.34878 -0.867271
-1.68135 1.37296 1.46661
-1.25717 1.36546 0.682964
-1.69073 1.38342 2.88681
-1.26349 1.37938 2.24785
-1.70336 1.38992 4.16686
-1.27523 1.38659 3.52155
-1.28761 1.39232 4.80854
-0.888546 0.315815 -3.13998
-0.890525 0.384622 -3.77445
-0.0190667 0.302934 -3.78187
-0.874094 0.354664 -1.67541
-0.00912627 0.328698 -2.4981
-0.85597 0.387735 -0.0237048
-0.00258982 0.380632 -0.852714
-0.859509 0.38558 1.62814
0.00700558 0.394841 0.805305
-0.872601 0.376524 3.09413
0.00951537 0.376318 2.45098
-0.878573 0.381232 4.376
-0.88316 0.458787 3.71779
-0.010027 0.376731 3.73727
-0.882663 0.467906 4.99638
-0.0205973 0.385734 5.01473
-0.88047 0.637216 -3.74202
-0.0217495 0.466312 -3.76702
-0.88725 0.545461 4.33817
-0.880116 0.711923 3.65019
-0.0217833 0.540844 3.6983
-0.883916 0.718479 4.93705
-0.0282058 0.550078 4.97804
-0.858024 1.05949 -3.70888
-0.0190751 0.808122 -3.71701
-0.876783 0.884941 4.24908
-0.862546 1.13458 3.56076
-0.0244626 0.883002 3.60208
-0.873724 1.13935 4.85154
-0.031766 0.886881 4.89607
-0.841914 1.32041 -3.06419
-0.000834663 1.31087 -3.70075
-0.83567 1.33923 -1.64622
0.00570842 1.32996 -2.42763
-0.835223 1.35667 -0.0910696
0.00672127 1.34849 -0.864808
-0.839311 1.37189 1.46421
0.00360834 1.36484 0.682668
-0.847997 1.38254 2.88259
-0.00213861 1.37893 2.24574
-0.859486 1.38899 4.16322
-0.0109988 1.38616 3.51944
-0.0200268 1.39183 4.80701
0.860353 0.315817 -3.13998
0.849709 0.384623 -3.77445
1.28405 0.30484 -3.77991
0.862378 0.354666 -1.67541
1.30059 0.33083 -2.49524
0.860386 0.387738 -0.0237048
1.28463 0.379891 -0.853097
0.87603 0.38558 1.62814
1.29101 0.395399 0.80147
0.87209 0.376525 3.09413
1.31099 0.380455 2.44427
0.847949 0.381233 4.376
0.85135 0.458788 3.71779
1.28726 0.379959 3.73272
0.83386 0.467906 4.99638
1.2678 0.387855 5.01209
0.839645 0.637217 -3.74202
1.28136 0.467878 -3.76642
0.83726 0.545461 4.33817
0.83387 0.711923 3.65019
1.27592 0.544083 3.69455
0.823945 0.71848 4.93705
1.25881 0.552146 4.97605
0.838114 1.05949 -3.70888
1.26227 0.807797 -3.72076
0.820554 0.884942 4.24908
0.827084 1.13458 3.56076
1.25064 0.884421 3.60268
0.821931 1.13935 4.85154
1.24592 0.888204 4.8962
0.846788 1.32041 -3.06419
1.26924 1.31061 -3.70446
0.8481 1.33923 -1.64622
1.2715 1.32967 -2.43172
0.845553 1.35667 -0.0910697
1.26956 1.34878 -0.867271
0.84078 1.37189 1.46421
1.26491 1.36546 0.682964
0.83486 1.38254 2.88259
1.25974 1.37938 2.24785
0.828461 1.38899 4.16322
1.25434 1.38659 3.52155
1.24908 1.39232 4.80854
1.72429 0.319853 -3.13517
1.71571 0.388095 -3.77189
1.72284 0.356054 -1.67293
1.73529 0.412273 -2.48963
1.71525 0.387552 -0.0279227
1.71204 0.45892 -0.856627
1.72597 0.390274 1.6176
1.71133 0.476877 0.785211
1.72616 0.383889 3.08287
1.73155 0.46635 2.41931
1.70711 0.386582 4.36882
1.71183 0.465254 3.70949
1.69275 0.472095 4.99176
1.7267 0.480515 -3.12635
1.70399 0.638458 -3.74516
1.72448 0.515139 -1.67332
1.71869 0.660522 -2.46497
1.70812 0.548245 -0.0434935
1.69972 0.697862 -0.858547
1.7169 0.552953 1.58692
1.69418 0.717659 0.748455
1.71722 0.547715 3.04593
1.70543 0.717355 2.35604
1.69747 0.550767 4.33243
1.69269 0.716581 3.64704
1.68078 0.72187 4.9352
1.69598 0.818465 -3.08379
1.6934 1.05892 -3.71634
1.69393 0.843245 -1.65019
1.69653 1.07942 -2.43943
1.68578 0.867276 -0.0665985
1.69036 1.10305 -0.863527
1.6827 0.882061 1.51757
1.68435 1.1218 0.703691
1.6809 0.886221 2.95716
[...]
POINT_DATA 29498
VECTORS point_vectors float
-2.69406 -1.47257 8.02902
0.627688 0.0786216 5.73122
-1.87753 1.30418 3.22964
0.101827 0.00166112 0.669513
2.59975 -1.37229 7.93933
-0.626518 0.0723801 5.74292
1.87374 1.30394 3.22463
-0.0989805 0.00239552 0.6639
6.20703e-18 -1.05779e-17 1.92095e-16
0 0 0
-0.0288823 -0.0876551 0.43699
0.0346997 0.136569 0.52802
0 0 0
0 0 0
0.0293055 -0.0894344 0.438041
-0.0347781 0.136749 0.527915
-0.516498 -0.0746574 19.8493
-1.20465 -0.279268 20.4326
-0.497447 -0.264322 21.2206
0.0652227 -0.0943794 21.4601
0.607092 0.0652302 21.3325
0.87073 0.0964805 21.3585
0.696925 0.000441756 21.1758
-0.530551 -0.0518047 19.8445
-1.32132 -0.210364 20.4341
-0.567885 -0.279781 21.2192
0.0426587 -0.142771 21.4761
0.605947 -0.0035354 21.3354
0.847141 0.0328274 21.3628
0.715656 -0.0581778 21.2276
-0.541194 0.0554581 19.8321
-1.4143 0.0898502 20.4265
-0.77444 -0.231371 21.2002
-0.0768522 -0.211025 21.4975
0.553221 -0.167795 21.3571
0.858171 -0.131926 21.035
0.740573 -0.147468 20.7826
-0.486778 0.198192 19.8839
-1.11605 0.428173 20.3803
-0.877591 0.0839116 21.124
-0.209517 -0.101275 21.4893
0.403163 -0.2582 21.3189
0.577908 -0.322786 20.9403
0.498234 -0.221153 20.8834
-0.538932 -0.22312 19.3277
-5.52005 -3.71921 20.3017
0.260868 -0.489625 4.90189
-0.262619 0.143919 1.88653
1.27176 0.253213 11.1738
1.66349 0.872947 16.5642
1.04013 0.609526 16.3205
-0.585998 -0.133908 19.2664
1.76821 0.678624 13.7936
1.04074 0.444655 15.7373
-0.623599 0.116271 19.1788
1.4784 0.0895649 11.5509
1.09349 0.0756324 14.5699
-0.507688 0.440664 19.3702
-2.12041 2.63662 20.1373
-2.82097 1.23576 20.7201
-0.266314 0.336766 17.0853
0.956695 -0.260963 17.2534
1.17356 -0.704238 17.739
0.614422 -0.729666 19.1517
0.534937 -0.228868 19.2948
5.81279 -4.1152 20.1918
-0.235029 -0.441122 4.24491
0.44721 0.215802 3.88875
-1.29987 0.210035 12.3397
-1.63541 0.870583 16.2903
-1.19176 0.570211 15.9357
0.570521 -0.133862 19.2401
-1.60154 0.802902 12.9315
-1.29858 0.331974 15.1848
0.617207 0.122819 19.1246
-1.38185 0.0788804 9.68013
-0.771787 0.274154 13.8935
0.506069 0.441917 19.3686
2.12707 2.57538 20.1399
2.7915 1.18691 20.7312
0.292241 0.325494 17.1617
-0.967386 -0.24714 17.1381
-1.14722 -0.723482 17.5985
-0.58841 -0.691271 19.0653
0.503461 -0.0865836 19.8549
1.21574 -0.288814 20.4335
0.496755 -0.269092 21.2211
-0.0644314 -0.0920456 21.4614
-0.596835 0.0614184 21.3021
-0.830097 0.166912 20.7404
-0.84491 0.022043 20.6262
0.522313 -0.0502339 19.8406
1.32089 -0.21186 20.4324
0.567014 -0.280678 21.2191
-0.0399704 -0.142167 21.4737
-0.601601 -0.00297621 21.303
-0.842525 0.110002 20.7907
-0.77914 -0.0107634 20.669
0.560567 0.052141 19.8178
1.40538 0.0964971 20.4368
0.769766 -0.228713 21.2022
0.0776303 -0.21116 21.4958
-0.551349 -0.165606 21.3536
-0.869791 -0.151579 20.7795
-0.727229 -0.0940215 20.788
0.483557 0.19425 19.8819
1.09967 0.41791 20.3825
0.857659 0.088455 21.121
0.205842 -0.100202 21.4867
-0.402789 -0.264571 21.2964
-0.547398 -0.308608 20.9518
-0.404227 -0.207027 20.8227
0 0 0
0 0 0
0.00932785 0.00258742 0.164139
0.0342489 -0.0716326 0.701423
0 0 0
0.00427961 0.0191904 0.405087
0.00306105 3.20473 3.98704
-0.0452367 -0.0912673 0.46498
-0.00974633 0.0937714 -0.0763228
0.0396886 0.161981 0.584203
0 0 0
-0.00971622 0.00234155 0.165502
-0.0354161 -0.0771694 0.705586
-0.00446352 0.0182118 0.407276
0.0452074 -0.0907209 0.461586
-0.0397431 0.161895 0.584093
-0.000162258 0.00780342 0.0652701
-4.10441e-05 -0.000408373 0.00450427
-1.65387e-09 -2.33918e-08 -1.77646e-05
4.25704e-05 0.00027397 0.00155588
0 0 0
0.143422 0.263934 0.770614
0 0 0
0 0 0
0.000161163 0.00794135 0.0656633
4.11652e-05 -0.000405154 0.00453895
-4.25365e-05 0.000274427 0.00155566
-0.144519 0.265685 0.76842
0 0 0
0.000105799 0.000619744 0.00360681
0.000434065 0.00405319 0.0222553
-2.20294e-07 3.2701e-06 -0.000148712
1.55092e-09 -3.91479e-09 5.31654e-06
0.000551667 0.0131937 0.0599172
0.0279948 0.137262 0.00672296
0 0 0
-6.45649e-09 -2.02134e-06 -2.79181e-05
7.46842e-07 7.5756e-07 0.000136605
-3.10486e-07 4.83694e-06 -3.60781e-06
0 0 0
-0.000106527 0.000627758 0.00359943
-0.000779072 0.00726518 0.0401556
-2.56011 -0.587788 20.4141
-7.06865 -4.13323 21.1932
-1.76682 -0.525382 18.2422
0.990979 0.0966025 21.0079
0.906322 0.105599 8.65929
1.19676 0.403765 11.0156
-3.06788 0.395369 20.4287
-1.95863 0.550466 17.8783
-4.12931 4.24164 19.9853
0.913483 -0.196819 20.3792
0.826512 0.145384 8.08735
1.3207 0.515685 10.9245
7.2883 -4.13156 20.7194
1.76095 -0.544068 18.1383
2.56124 -0.583006 20.42
-0.943115 0.0596827 9.47672
-1.06765 0.422339 10.0197
-0.988551 0.0919677 20.9879
1.94507 0.56495 17.7931
4.1211 4.1628 20.0082
3.0532 0.386993 20.4287
-0.648549 0.112357 6.9369
-1.3258 0.528909 10.8311
-0.904913 -0.196433 20.3429
-0.540123 -0.726788 21.4161
0.0862443 -0.156493 1.95121
0.25723 -0.166541 20.9048
-0.0358811 0.0839544 0.71892
-1.18071 -0.672226 21.0279
-4.04386 -0.962109 11.7555
0.0282103 -0.395706 20.4557
0.461354 1.07353 8.11573
-0.0763746 -0.136807 1.6637
0.531286 -0.725751 21.4132
0.0625395 0.163835 1.45554
-0.262208 -0.166533 20.9157
3.98953 -0.952946 11.9937
1.1847 -0.670752 21.0597
-0.467263 1.06757 8.33223
-0.0283048 -0.398883 20.4662
-0.887368 -0.183434 19.9793
-0.523784 -0.0631049 19.8467
-0.569547 -0.151242 19.6458
-0.849887 -0.275561 21.0355
-1.27521 -0.2499 20.4335
-2.22245 -0.835104 20.4467
-0.199253 -0.205009 21.3828
-0.532666 -0.272052 21.2199
-0.315026 -0.497626 21.4536
0.339898 0.00837871 21.4314
0.0539407 -0.118575 21.4681
0.284897 -0.0108522 21.3753
0.73311 0.0959366 21.1449
0.608255 0.0308332 21.3352
0.995905 0.276641 21.2389
0.796586 0.0434077 21.2335
0.843775 0.0758842 21.3846
1.37348 0.300527 20.6551
0.70629 -0.028868 21.2017
0.758396 0.194403 21.2578
-0.958688 -0.123321 19.9273
-0.528501 -0.00813135 19.8404
-0.595396 -0.0806593 19.6162
-0.905425 -0.237429 21.0288
-1.37239 -0.105248 20.4389
-0.251942 -0.248583 21.4028
-0.646114 -0.293205 21.218
0.337703 -0.0504678 21.4484
0.0149196 -0.18947 21.5072
0.793862 0.0198536 21.3237
0.611776 -0.0796288 21.3523
0.74509 0.0175399 21.083
0.867099 -0.0474139 21.3239
1.37269 0.16126 20.9488
0.738833 -0.118214 21.237
0.765082 0.0102969 20.7382
-1.00968 0.0803835 19.9222
-0.531887 0.126925 19.8376
-0.656362 0.0865698 19.5395
-1.05996 -0.107983 20.9919
-1.33139 0.285786 20.3852
-0.435614 -0.261399 21.4289
-0.85557 -0.0984156 21.1715
0.279421 -0.168183 21.4707
-0.145184 -0.176849 21.5056
0.712357 -0.161312 21.151
0.489746 -0.22666 21.3534
0.732537 -0.282068 20.8881
0.803975 -0.246126 20.9116
1.24972 -0.284738 20.2259
0.615476 -0.186914 20.7532
0.776096 -0.216498 19.743
-0.834105 0.34567 19.9953
-0.549724 0.302023 19.6428
-1.01391 0.244996 20.858
-1.70141 1.02617 20.2956
-0.58526 -0.0302314 21.4082
-1.54221 0.241383 21.1804
0.158145 -0.18107 21.4317
-0.404289 -0.120634 21.7702
0.520974 -0.313443 21.132
0.524954 -0.420681 21.4143
0.543483 -0.448544 20.8022
0.748948 -0.606914 21.15
0.557722 -0.333889 19.9901
-1.52928 -0.871923 18.5515
-0.573429 -0.184498 19.2897
-0.0135422 -0.324442 18.8708
0.317212 -0.477125 9.62772
-0.0291097 -9.27938 16.0172
0.0190523 0.0691578 3.85455
0 0 0
0.347847 -0.0779919 6.77163
0 0 0
1.45071 0.789854 14.3104
-0.0315689 0.000746409 0.265023
1.40756 0.756868 14.702
1.7349 0.763264 15.1658
0.138787 -0.110526 2.21028
1.04043 0.52709 16.0289
0.113799 0.204228 10.6995
-0.614132 -0.0299765 19.2048
-0.0129525 -0.219894 18.6944
1.51903 0.72453 14.8084
1.64812 0.35809 11.5196
0.230332 -1.29702 -3.71222
1.0714 0.279709 14.6691
0.163869 0.0324304 8.41432
-0.582164 0.296223 19.2552
-0.0147067 0.202002 18.6344
1.89669 0.0844361 14.5274
1.46406 -0.404025 15.2372
0.202414 -1.22779 -0.864484
0.841231 -0.49321 17.9002
0.180491 -0.662205 4.13801
-1.17973 1.23206 18.9914
-0.000623189 0.621342 19.0288
-1.88271 1.2994 21.0332
0.0192777 4.56508 20.1182
-1.91369 -0.00846286 20.3461
0.0266295 3.16721 13.4256
0.859979 0.241269 16.512
0 0 0
0.963706 -0.521413 17.9597
-0.015416 -0.524943 5.78386
1.04384 -0.785274 19.438
-0.0508685 -1.37581 10.8461
-0.00454253 -1.11717 14.1501
1.52246 -0.92344 18.4491
0.559222 -0.183958 19.2633
0.578203 -0.155027 19.6099
-0.356635 -0.576775 8.23065
2.27244 -0.852243 20.4674
-0.0267689 0.0726391 4.39575
0.30203 -0.489342 21.4489
-0.403947 -0.0436506 8.14844
-0.281584 -0.012729 21.383
-1.44985 0.764711 14.323
-0.976147 0.263006 21.2366
-1.26366 0.855969 14.8533
-1.61847 0.836743 14.6109
-1.27093 0.366185 20.7699
-1.31147 0.402279 15.6565
-0.998935 0.0795856 20.5624
0.604779 -0.0328849 19.1671
0.606891 -0.0830176 19.5771
-1.5277 0.759736 13.5529
-1.53736 0.461795 9.81188
-1.34342 0.165227 20.685
-0.972825 0.404867 13.871
-0.996044 -0.073448 20.3668
0.57612 0.300577 19.233
0.656128 0.101741 19.5123
-1.48905 0.132841 12.5966
-1.41749 -0.426855 13.9388
-1.30518 -0.260389 20.1098
-0.752248 -0.41609 17.1887
-0.649003 -0.183575 19.5365
1.17911 1.2244 19.0001
0.550637 0.30014 19.6434
1.88203 1.26108 21.0384
1.68694 1.00121 20.2986
1.90421 -0.00283077 20.3934
1.51744 0.227209 21.1815
-0.857593 0.238841 16.5285
0.397623 -0.126815 21.7657
-0.97828 -0.48791 17.6915
-0.524765 -0.421705 21.4133
-0.97938 -0.8484 19.1935
-0.755239 -0.626252 21.1618
-0.437822 -0.32073 19.9357
0.882859 -0.192887 19.9594
0.514098 -0.0675744 19.8471
0.84956 -0.277478 21.0376
1.28042 -0.255588 20.4315
0.19969 -0.204211 21.3774
0.531884 -0.274885 21.2201
-0.336005 0.00528162 21.4256
-0.0522009 -0.117106 21.4675
-0.727377 0.0925094 21.1204
-0.6007 0.0290685 21.3039
-0.795407 0.0947019 20.7026
-0.837562 0.141558 20.7866
-0.812025 0.0056398 20.6476
0.970057 -0.119901 19.9365
0.546414 -0.0156319 19.8217
0.907328 -0.23632 21.0275
1.37445 -0.0997343 20.442
0.252943 -0.247729 21.4011
0.643594 -0.290959 21.2187
-0.33852 -0.0531481 21.4477
-0.00979025 -0.190082 21.5016
-0.798436 0.0274126 21.1517
-0.60849 -0.0767586 21.3236
-0.798811 -0.0108301 20.5869
-0.851918 0.0192046 20.7801
-0.730918 -0.0328675 20.7393
1.02422 0.0893838 19.9155
0.539336 0.128076 19.8316
1.06345 -0.104971 20.9916
1.31867 0.282058 20.3887
0.432129 -0.259867 21.4234
0.841186 -0.0942505 21.1702
-0.277459 -0.16925 21.4658
0.141016 -0.177028 21.5018
-0.716436 -0.179202 21.1606
-0.490364 -0.233461 21.3369
-0.835314 -0.270335 20.8615
-0.794284 -0.286864 20.7622
-0.64859 -0.197369 20.7535
0.827838 0.341411 19.9963
1.00192 0.243871 20.8534
0.574262 -0.0288122 21.4001
-0.155649 -0.183975 21.4293
-0.532375 -0.315884 21.2006
-0.55978 -0.407713 20.9972
-0.928259 -0.152884 19.9494
-1.67096 -0.737822 18.3658
-1.26754 -0.434727 19.5066
-1.41472 -0.248971 19.4041
-0.582944 -0.115537 19.6306
-2.41951 -0.727759 20.4224
-0.877131 -0.258143 21.0339
0.400651 -0.259153 5.61634
-0.903263 -0.458245 21.4297
-1.04904 -0.588025 21.5162
-0.416135 -0.627333 21.4452
-0.220195 -0.232269 21.3963
-0.0226538 0.121732 1.53041
0.041331 -0.273699 21.4811
-0.0775863 -0.472983 21.1426
0.271272 -0.0900628 21.1755
0.339213 -0.0198547 21.4418
0.148208 0.00755139 3.96494
0.621853 0.153925 21.3258
0.620474 0.0112428 20.9199
0.998191 0.182255 21.0898
0.785033 0.0585798 21.2878
1.30602 0.605502 12.4787
1.16295 0.339288 20.9264
1.22568 0.157232 20.7332
1.37308 0.230894 20.802
0.754234 0.0427728 21.1844
1.45251 0.780294 14.7901
1.0604 0.258889 21.7053
1.16012 0.231733 21.0169
0.761739 0.10235 20.998
-0.989117 -0.0519931 19.9253
-1.97531 -0.0350521 17.8367
-1.54377 0.217701 19.3019
-0.638963 -0.010676 19.5673
-3.06805 -0.248117 20.4901
-0.967827 -0.199574 21.0231
-1.54816 -0.291015 21.4553
-0.859408 -0.763251 21.1237
-0.322726 -0.269222 21.4208
-0.52369 -0.640332 20.79
0.174034 -0.306607 20.4478
0.330167 -0.11305 21.4731
0.500613 -0.207645 20.3782
0.981763 -0.0725156 20.6224
0.728494 -0.0633588 21.15
0.706407 0.0684042 7.45028
1.1279 -0.330231 20.6506
1.30842 -0.0503073 20.5677
0.795117 -0.0922542 20.778
1.72888 0.401261 14.49
1.34299 -0.281124 19.9328
0.777273 -0.172152 20.1792
-0.969233 0.237122 19.9127
-1.6132 1.13316 18.4306
-1.10499 0.659187 19.6234
-0.608426 0.201587 19.5779
-2.37884 0.932341 20.3319
-1.06233 0.0641016 20.9388
-2.31166 0.413734 17.0458
-1.47249 0.51738 20.9664
-1.58398 -0.298296 21.2993
-0.527372 -0.171168 21.4331
-0.116367 0.549608 9.14436
-1.07728 0.00734552 21.7446
-0.29536 -0.344566 21.3196
0.221951 -0.183262 21.4666
1.20091 1.34141 8.92143
0.177015 -0.25821 21.6554
0.708553 -0.380018 20.9794
0.654846 -0.245933 21.1078
1.24864 -0.0244149 13.1012
0.691533 -0.523344 21.1923
1.01212 -0.56858 20.6493
0.589301 -0.350717 20.6784
1.60232 -0.532813 17.2079
0.936969 -0.506133 20.1848
0.65089 -0.255947 19.7168
1.65944 -0.766074 18.2571
-0.0371902 -1.64916 16.9966
-0.0280537 -1.10092 16.2257
-0.0132521 -0.270669 18.7825
0.00796851 -3.16316 4.955
-0.370468 -0.257094 5.00784
0 0 0
0 0 0
0.0245553 0.135934 1.78905
0 0 0
0 0 0
-0.180803 0.000184728 4.76399
0 0 0
-0.00244694 -0.00613358 -0.0113412
-1.24197 0.604823 12.0103
-0.0325722 -0.236643 0.568675
0.0708012 -0.709914 -4.09196
0.182709 -0.841188 -1.45482
-1.43411 0.825345 14.1242
0.142541 0.87754 6.77049
0.168156 0.173605 1.56918
0.138834 0.118329 9.5569
1.96582 -0.0390175 17.7464
-0.0253976 1.11596 15.8828
-0.0139201 -0.0586655 18.659
-0.514271 0.051245 6.19425
-0.0176454 -0.0689082 -1.58443
0.288491 -1.25151 -2.8211
-1.50219 0.521433 12.8945
-0.00773311 -1.65516 1.70599
0.197033 -0.131329 6.03995
1.61215 1.14417 18.4103
0.00506722 2.05782 18.1381
-0.00773342 0.458955 18.7155
0.0208854 7.95123 20.5883
2.31184 0.397592 17.193
0.0208984 2.60734 20.5778
-0.0459709 0.0301621 0.618566
0.153433 0.483033 9.46522
0 0 0
0 0 0
-1.20343 1.34535 8.95623
-0.00476381 -0.239185 1.95683
-0.0755757 0.100331 -0.541014
-1.18929 -0.0075945 12.4286
-0.0242023 -0.793226 9.07802
-0.0352287 -1.16577 3.62104
-1.37976 -0.566189 15.3904
0.0260924 -1.58563 12.7185
0.0247353 -1.39863 7.03144
0.923346 -0.154988 19.9462
1.2867 -0.447656 19.4575
1.43827 -0.257723 19.3695
0.592995 -0.118651 19.5931
2.44665 -0.736086 20.4352
0.877582 -0.258613 21.0344
0.888046 -0.449826 21.4397
1.03855 -0.585633 21.518
0.405407 -0.62385 21.4405
0.221951 -0.2319 21.3943
-0.0438121 -0.268722 21.4739
0.0718263 -0.471407 21.148
-0.273151 -0.0911986 21.1817
-0.338033 -0.0224889 21.438
-0.61958 0.146821 21.3421
-0.625402 0.00787998 20.9234
-0.987344 0.172389 21.0745
-0.783342 0.0637662 21.1352
-1.15587 0.326885 20.9842
-1.27205 0.130954 20.8339
-1.30613 0.264949 20.734
-0.797109 0.0419359 20.6448
-1.24464 0.467488 20.4399
-1.25156 0.338232 20.6752
-1.01203 -0.0149139 20.4578
1.00919 -0.0444392 19.9227
1.55938 0.230723 19.2721
0.645335 -0.0114409 19.5315
3.06545 -0.246978 20.4931
0.975961 -0.197058 21.0201
1.54606 -0.297487 21.4522
0.861604 -0.770801 21.1753
0.319183 -0.267537 21.4151
0.524292 -0.638995 20.8188
-0.174636 -0.312519 20.4785
-0.327449 -0.114278 21.4738
-0.501496 -0.211932 20.3686
-0.973199 -0.0770862 20.5853
-0.749705 -0.0704458 21.1989
-1.14798 -0.291457 20.3774
-1.36906 -0.0292835 20.4572
-0.863441 -0.0991323 20.4527
-1.21895 -0.110923 19.9827
-0.880987 -0.154548 19.9786
0.97316 0.240659 19.9131
1.10271 0.65008 19.6303
0.612783 0.203209 19.562
2.35534 0.90921 20.3317
1.05293 0.0638275 20.9379
1.45937 0.503042 20.9644
1.56105 -0.289789 21.2985
0.522239 -0.171666 21.4279
1.05964 -0.00286025 21.732
0.290372 -0.345001 21.3577
-0.221116 -0.18585 21.4586
-0.17773 -0.260975 21.6536
-0.700777 -0.37912 20.9535
-0.66295 -0.26056 21.1551
-0.689343 -0.530716 21.1911
-1.05507 -0.518292 20.4056
-0.676806 -0.310811 21.2038
-0.849572 -0.517695 19.9875
-0.534665 -0.264699 19.3465
-1.3429 -0.340742 19.4481
-0.955979 -0.521498 21.4783
-0.00616653 -0.385317 21.3514
0.624881 0.0815035 21.1217
1.21061 0.247352 20.8018
1.09875 0.2879 21.4039
-1.51564 -0.0297357 19.3206
-1.31939 -0.568563 21.6456
-0.265256 -0.587806 20.6763
0.577467 -0.128243 20.5201
1.20784 -0.0938116 20.3893
1.35709 -0.0822344 20.0279
-1.36916 0.50596 19.4289
-1.61292 0.107846 21.1599
-0.96667 -0.40891 21.5941
0.28786 -0.302996 21.1483
0.93155 -0.481123 20.7251
1.22207 -0.342925 19.6534
-0.0325738 -1.36711 16.5857
0 0 0
0 0 0
0 0 0
0.000436092 -0.500351 -2.07817
0.1661 0.544415 3.44741
-0.029453 -0.0469766 15.6729
0.102806 -0.409083 -3.23444
0.0814098 -0.717836 1.76074
-0.00817338 2.02024 17.0028
0.00981919 1.00032 9.81078
0 0 0
0 0 0
-0.0856177 -0.140736 1.87006
-0.157869 -2.40588 4.51541
1.36473 -0.352428 19.4032
0.942645 -0.515881 21.4844
0.00147172 -0.382105 21.3459
-0.626738 0.0764061 21.1294
-1.23631 0.230474 20.8971
-1.2532 0.404516 20.5904
1.5371 -0.0304541 19.2849
1.31227 -0.574041 21.6512
0.265405 -0.591147 20.7196
-0.580915 -0.134111 20.5246
-1.23442 -0.0734752 20.2991
-1.23306 0.162069 20.6938
1.37581 0.512041 19.4222
1.59996 0.107058 21.1552
0.953792 -0.404843 21.6167
-0.289667 -0.305635 21.1573
-0.935865 -0.480416 20.614
-1.12043 -0.339383 18.973
-0.634668 -0.370651 2.06411
0 0 0
0.00211411 0.0121273 0.275517
0.0677904 0.0733775 0.704937
0 0 0
0.0144945 -0.00684554 0.408073
-1.2078 0.204079 1.14881
-0.90345 4.22091 4.1137
-0.0247277 -0.0510423 0.538932
0.303693 0.0663113 1.4836
-0.084507 0.0290378 -0.0489908
0.0351648 0.13405 0.547876
0 0 0
0.321475 -0.0850086 0.495477
-0.00319717 0.010118 0.273959
0 0 0
-0.0747732 0.0794622 0.770089
-0.0157103 -0.00909968 0.409704
0.903182 4.24146 4.1816
1.20068 0.201981 1.14152
0.024655 -0.0504812 0.536217
0.0741488 0.0420615 -0.0608813
-0.297979 0.0625827 1.47047
-0.0351906 0.133759 0.546504
0.0018713 -0.00910489 0.310897
1.38923e-05 0.00192101 0.0353753
-0.000439514 -0.00573421 0.0854805
0.00304209 3.60109e-05 0.0267282
0.00245167 0.0179038 0.302306
-7.82647e-05 0.00907968 0.0634071
0.00052555 0.00532641 0.0314272
0 0 0
-0.0739864 -0.143988 0.489798
-2.55221e-06 -1.7007e-05 0.000121165
0.0776427 0.152103 0.705505
0 0 0
0.0336121 0.241653 1.0673
5.16055e-06 4.04248e-05 0.000168961
0.104181 0.201485 0.626443
0.145884 0.111708 0.714505
-0.0022955 -0.00962508 0.313593
-0.00305912 3.38646e-05 0.0266463
-1.59747e-05 0.0020197 0.0356165
0.000427232 -0.00558597 0.0861971
-0.00251517 0.0175563 0.303687
0 0 0
7.43055e-05 0.00912738 0.0636497
-0.000528395 0.00535729 0.031596
0.0744224 -0.144351 0.486826
0 0 0
2.54464e-06 -1.68739e-05 0.000119194
-0.0807642 0.158403 0.701204
-0.033511 0.241635 1.06707
-0.146383 0.111835 0.712045
-5.11991e-06 4.01395e-05 0.000167537
-0.103845 0.202623 0.630412
6.26047e-06 -7.17339e-05 -5.32678e-05
-0.18645 -0.0136681 0.0581807
5.87271e-07 -0.000650738 0.00424583
0 0 0
0 0 0
8.04608e-05 -0.000185313 0.00926999
1.4538e-05 9.36031e-05 0.000968479
-0.0405041 0.00270116 -0.0075964
2.12753e-06 9.86882e-06 9.0829e-05
-0.00580656 -0.00698605 -0.0161688
9.14869e-05 0.00204679 0.0220045
0.00870815 0.0184459 0.195755
0 0 0
-7.74977e-05 0.00489024 0.0675283
0 0 0
-0.00649165 0.000433899 0.0179044
-0.000434902 0.00336952 -0.000940217
-5.74951e-07 1.17204e-05 -2.68832e-05
0 0 0
3.01264e-05 -0.000107217 0.000272718
0.160832 -0.00815649 0.0535205
4.89064e-06 5.69507e-05 3.9305e-05
-7.76205e-05 -0.000181316 0.00924612
-9.68444e-19 8.60157e-18 6.3388e-17
0.0417117 0.00380715 -0.00875944
-1.5269e-05 9.71006e-05 0.00102146
-0.00842965 0.0199355 0.206583
-8.53921e-05 0.00188085 0.0206492
0.00707335 0.000532999 0.0198139
0 0 0
-3.58524e-05 -8.97275e-05 0.000241482
0 0 0
0.000165139 0.00183956 0.0121928
0.0012902 -9.36873e-05 0.0274446
-0.000139067 -0.000544386 0.00489246
2.33115e-05 0.000109461 0.00133641
-6.96684e-07 9.112e-07 -0.000121154
-1.40452e-09 2.96379e-09 -7.10824e-06
0.000121375 0.000855529 0.00350299
0.000146141 0.00096958 0.00714303
4.06041e-09 -8.66465e-09 1.00981e-05
-3.81798e-07 1.31644e-07 -8.94506e-05
0 0 0
0.148391 0.126028 1.40458
1.06581e-08 3.49994e-09 -4.13411e-07
-0.00040471 0.433633 0.982936
-5.53193e-07 -6.81332e-08 -3.83688e-05
-8.55304e-06 -0.00121524 0.00906672
-0.00127699 -9.1709e-05 0.0273464
-0.000166274 0.0018594 0.0121471
0.000117446 -0.000441212 0.00410194
-2.58278e-05 0.000123773 0.00143818
-0.0001214 0.000857197 0.00349776
-0.000150128 0.000992695 0.00733765
-0.149976 0.127296 1.40131
0 0 0
0 0 0
0 0 0
-9.96285e-05 -0.000311743 0.00964991
-1.89413e-06 -1.23323e-05 4.55688e-05
0.000323079 0.00397352 0.0543915
0 0 0
0.000542057 0.00526638 0.0311024
0 0 0
0 0 0
0 0 0