# vtk DataFile Version 2.0
tri_press
ASCII
DATASET UNSTRUCTURED_GRID
POINTS 3682 float
-0.895 0.485 -2.4929
-0.895 0.535 2.41911
-0.830768 0.835 -2.425
-0.829371 0.885 2.305
0.895 0.485 -2.4929
0.895 0.535 2.41911
0.830768 0.835 -2.425
0.829371 0.885 2.305
-0.855032 0.541635 -0.855563
-0.857087 0.556246 0.781774
-0.833766 0.855131 -0.848333
-0.833715 0.872211 0.728334
0.855026 0.541641 -0.855563
0.857088 0.556246 0.781774
0.833766 0.85513 -0.848333
0.833715 0.872212 0.728334
-1.746 0.306743 -3.77796
-1.74086 0.332958 -2.49239
-1.71247 0.379142 -0.85348
-1.70474 0.395955 0.797635
-1.72334 0.384592 2.43757
-1.73126 0.383186 3.72818
-1.73212 0.389976 5.00946
-1.74374 0.469444 -3.76582
-1.73821 0.491584 -2.48687
-1.7062 0.538687 -0.859774
-1.70169 0.557797 0.772787
-1.72668 0.548108 2.40105
-1.73541 0.547321 3.6908
-1.73539 0.554213 4.97406
-1.7165 0.807471 -3.72451
-1.69469 0.829458 -2.44306
-1.68383 0.85703 -0.85732
-1.67955 0.877519 0.724123
-1.68539 0.886601 2.31103
-1.71346 0.88584 3.60329
-1.72735 0.889526 4.89633
-1.69329 1.31036 -3.70817
-1.68247 1.32939 -2.4358
-1.67733 1.34907 -0.869734
-1.67807 1.36608 0.683259
-1.68462 1.37983 2.24996
-1.69683 1.38702 3.52365
-1.70989 1.39281 4.81007
-0.889481 0.302933 -3.78187
-0.887611 0.328698 -2.4981
-0.860577 0.38063 -0.852714
-0.851364 0.394841 0.805305
-0.867654 0.376318 2.45098
-0.877549 0.376731 3.73727
-0.879598 0.385734 5.01473
-0.891568 0.466312 -3.76702
-0.888772 0.540844 3.6983
-0.885727 0.550078 4.97804
-0.869371 0.808121 -3.71701
-0.87146 0.883002 3.60208
-0.882106 0.886881 4.89607
-0.846677 1.31087 -3.70075
-0.837151 1.32996 -2.42763
-0.834188 1.34849 -0.864808
-0.836258 1.36484 0.682668
-0.842364 1.37893 2.24574
-0.853631 1.38616 3.51944
-0.865342 1.39183 4.80701
0.851348 0.302934 -3.78187
0.869358 0.328699 -2.4981
0.855397 0.380634 -0.852715
0.865375 0.394842 0.805305
0.886685 0.376318 2.45098
0.857495 0.376731 3.73727
0.838404 0.385734 5.01473
0.848069 0.466312 -3.76702
0.845205 0.540844 3.6983
0.829315 0.550078 4.97803
0.831221 0.808122 -3.71701
0.822535 0.883002 3.60208
0.818574 0.886882 4.89607
0.845008 1.31087 -3.70075
0.848568 1.32996 -2.42763
0.847631 1.34849 -0.864808
0.843474 1.36484 0.682668
0.838086 1.37893 2.24574
0.831633 1.38616 3.51944
0.825288 1.39183 4.80701
1.71676 0.306745 -3.77796
1.73183 0.33296 -2.49239
1.71386 0.379148 -0.85348
1.71665 0.395957 0.797635
1.7353 0.384592 2.43757
1.71702 0.383187 3.72818
1.6972 0.389976 5.00946
1.71466 0.469445 -3.76582
1.73874 0.491586 -2.48687
1.71022 0.538693 -0.859774
1.70601 0.557798 0.772787
1.7278 0.548108 2.40105
1.70664 0.547321 3.6908
1.68831 0.554214 4.97406
1.69333 0.807472 -3.72451
1.69864 0.829458 -2.44306
1.68923 0.857032 -0.85732
1.68234 0.877521 0.724123
1.68306 0.886601 2.31103
1.67875 0.885841 3.60329
1.67326 0.889526 4.89633
1.69347 1.31036 -3.70817
1.69443 1.32939 -2.4358
1.69149 1.34907 -0.869735
1.68635 1.36608 0.683259
1.68139 1.37983 2.24996
1.67704 1.38702 3.52365
1.67287 1.39281 4.81007
-0.825232 0.66 -2.4213
0 0.4429 -2.535
-0.852545 0.535788 -1.67423
-0.839076 0.71 2.33895
0 0.468844 2.48527
-0.859693 0.561973 1.60044
0 0.90909 -2.49909
-0.833915 0.846713 -1.63667
0 0.948301 2.3683
-0.833649 0.880712 1.51667
0.82519 0.66 -2.42126
0.852542 0.535791 -1.67423
0.839201 0.71 2.33907
0.8597 0.561967 1.60044
0.833914 0.846712 -1.63667
0.833649 0.880712 1.51667
-0.856063 0.548937 -0.0368949
-0.849161 0.698383 -0.851948
-3.0056e-06 0.285403 -0.855563
-0.847478 0.714229 0.755054
2.83174e-07 0.285472 0.781774
-0.833646 0.863577 -0.0599999
-1.48502e-07 1.13601 -0.848333
3.0754e-07 1.41323 0.728334
0.856063 0.548937 -0.0368949
0.84916 0.698385 -0.851948
0.847478 0.714229 0.755054
0.833646 0.863576 -0.0599999
-0.844544 0.679191 -1.65545
0.844545 0.679193 -1.65545
-1.5028e-06 0.270631 -1.67423
-7.42509e-08 0.991676 -1.63667
0 0.66 -2.49827
-0.848319 0.706306 -0.0484474
0.848319 0.706307 -0.0484474
-1.36121e-06 0.285436 -0.0368949
7.95192e-08 1.41321 -0.0599999
-0.847373 0.712114 1.55855
0.84764 0.712114 1.55855
1.41587e-07 0.271123 1.60044
1.5377e-07 1.23885 1.51667
0 0.71 2.42287
-0.889794 0.5725 -2.48678
-0.4475 0.447297 -2.5306
-0.853379 0.530787 -2.08357
-0.856179 0.6225 2.36817
-0.4475 0.4755 2.47861
-0.853859 0.571975 2.00978
-0.82803 0.7475 -2.42318
-0.415384 0.903309 -2.49331
-0.833963 0.842478 -2.03083
-0.838862 0.7975 2.32661
-0.414685 0.940918 2.36092
-0.833629 0.884975 1.91083
0.4475 0.447376 -2.53052
0.895993 0.5725 -2.49298
0.853375 0.530792 -2.08357
0.4475 0.475494 2.47862
0.856175 0.6225 2.36816
0.853862 0.571971 2.00978
0.415384 0.903521 -2.49352
0.828056 0.7475 -2.4232
0.833962 0.842477 -2.03083
0.414685 0.94093 2.36093
0.838841 0.7975 2.32659
0.833613 0.884959 1.91083
-0.860193 0.532307 -1.2649
-0.855551 0.545283 -0.446229
-0.858168 0.616973 -0.853756
-0.492118 0.284317 -0.855563
-0.860456 0.557044 1.19111
-0.856575 0.552591 0.372439
-0.856468 0.633145 0.768414
-0.495971 0.286005 0.781774
-0.833895 0.850976 -1.2425
-0.840756 0.776403 -0.850141
-0.833706 0.859354 -0.454167
-0.466627 1.09506 -0.848333
-0.842837 0.885616 1.1225
-0.839039 0.792441 0.741694
-0.833586 0.8678 0.334167
-0.5451 1.39921 0.728334
0.86019 0.53231 -1.2649
0.492114 0.284317 -0.855563
0.855544 0.545289 -0.446229
0.858183 0.616968 -0.853756
0.860461 0.557039 1.19111
0.495971 0.286004 0.781774
0.856575 0.552591 0.372439
0.856468 0.633145 0.768414
0.833895 0.850976 -1.2425
0.466636 1.09508 -0.848333
0.840755 0.776404 -0.850141
0.833706 0.859353 -0.454167
0.842837 0.885616 1.1225
0.5451 1.39921 0.728334
0.839039 0.792442 0.741694
0.833586 0.8678 0.334167
-0.852109 0.669596 -2.03837
-0.412616 0.66 -2.49557
-7.51399e-07 0.292436 -2.10462
0 0.55145 -2.60267
-0.853982 0.60749 -1.66484
-0.426273 0.270646 -1.67423
-0.850311 0.711057 1.94875
-0.419538 0.71 2.42079
7.07935e-08 0.348096 2.04285
0 0.589422 2.59919
-0.8534 0.637044 1.5795
-0.429847 0.27717 1.60044
-3.71254e-08 0.972338 -2.06788
0 0.784545 -2.51838
-0.839146 0.762952 -1.64606
-0.416958 0.997419 -1.63667
7.68851e-08 1.05141 1.94248
0 0.82915 2.41751
-0.838587 0.796413 1.53761
-0.416825 1.21785 1.51667
0.852109 0.669596 -2.03835
0.412595 0.66 -2.49739
0.853994 0.607492 -1.66484
0.42627 0.270646 -1.67423
0.850311 0.711057 1.94881
0.419601 0.71 2.42077
0.853373 0.637041 1.5795
0.42985 0.27717 1.60044
0.839147 0.762952 -1.64606
0.416957 0.997424 -1.63667
0.838587 0.796413 1.53761
0.416825 1.21785 1.51667
-0.857322 0.625056 -0.0426712
-0.494169 0.284913 -0.0368949
-0.850096 0.688787 -1.2537
-0.84874 0.702344 -0.450198
-2.2542e-06 0.270622 -1.2649
-2.1834e-06 0.285419 -0.446229
-0.847898 0.710267 0.353303
-0.847128 0.713172 1.1568
-5.39019e-07 0.285452 0.372439
2.12381e-07 0.271116 1.19111
-0.839899 0.7844 -0.0542237
-0.547219 1.39919 -0.0599999
-1.11376e-07 0.997787 -1.2425
-3.44913e-08 1.41101 -0.454167
1.9353e-07 1.41323 0.334167
2.30655e-07 1.37792 1.1225
0.857322 0.625057 -0.0426712
0.494167 0.284913 -0.0368949
0.850093 0.688789 -1.2537
0.84874 0.702346 -0.450198
0.847898 0.710268 0.353303
0.847137 0.713172 1.1568
0.839899 0.7844 -0.0542237
0.547219 1.39919 -0.0599999
-0.854872 0.589995 -2.06097
-0.854839 0.613749 -1.2593
-0.841445 0.769854 -1.2481
-0.84302 0.755226 -2.0346
0.854876 0.589996 -2.06096
0.84302 0.755226 -2.03459
0.841445 0.769855 -1.2481
0.85484 0.613753 -1.2593
-0.436887 0.290808 -2.09409
0.436885 0.290808 -2.09409
0.426891 0.270688 -1.2649
-0.426896 0.270688 -1.2649
-0.416171 0.974799 -2.04936
-0.41692 1.00843 -1.2425
0.41692 1.00843 -1.2425
0.41617 0.974832 -2.04936
-0.430058 0.561975 -2.58352
-0.414 0.766022 -2.51619
0.413989 0.766022 -2.52339
0.430047 0.561975 -2.58353
-0.857743 0.621015 -0.448214
-0.856862 0.629117 0.362871
-0.839469 0.788421 0.343735
-0.840328 0.780401 -0.452182
0.857744 0.621017 -0.448214
0.840327 0.780402 -0.452182
0.839469 0.788421 0.343735
0.856849 0.629124 0.362871
-0.493144 0.284615 -0.446229
0.493141 0.284615 -0.446229
0.495193 0.285212 0.372439
-0.495194 0.285211 0.372439
-0.554927 1.34313 -0.454167
-0.546138 1.39915 0.334167
0.546138 1.39915 0.334167
0.55492 1.34312 -0.454167
-0.854551 0.636141 1.17396
-0.85843 0.629772 1.97926
-0.840902 0.796957 1.92979
-0.838915 0.794817 1.13965
0.854548 0.636139 1.17396
0.838915 0.794817 1.13965
0.840902 0.796957 1.92982
0.858196 0.62977 1.97929
-0.429195 0.274551 1.19111
0.429197 0.274551 1.19111
0.438675 0.347542 2.02631
-0.438673 0.322074 2.02631
-0.416841 1.36832 1.1225
-0.415755 1.04823 1.92666
0.415755 1.04855 1.92666
0.416841 1.36833 1.1225
-0.433519 0.605961 2.59274
0.43355 0.605961 2.59269
0.417143 0.813325 2.41761
-0.417112 0.813325 2.41763
-0.892321 0.52875 -2.48976
-0.67125 0.477841 -2.50006
-0.852178 0.529905 -2.28823
-0.884933 0.57875 2.40298
-0.67125 0.492864 2.46125
-0.851867 0.57605 2.21444
-0.82926 0.79125 -2.42395
-0.623076 0.836693 -2.42669
-0.83388 0.840254 -2.22792
-0.835662 0.84125 2.31735
-0.622028 0.902764 2.32276
-0.833516 0.887003 2.10792
0.67125 0.477802 -2.5001
0.897873 0.52875 -2.49531
0.852173 0.52991 -2.28823
0.67125 0.492897 2.46121
0.884892 0.57875 2.40294
0.851869 0.576048 2.21444
0.623076 0.836653 -2.42665
0.829357 0.79125 -2.42405
0.833871 0.840244 -2.22792
0.622028 0.902611 2.32261
0.835643 0.84125 2.31733
0.833511 0.886999 2.10792
-0.857107 0.537477 -1.06023
-0.855292 0.543458 -0.650896
-0.856829 0.579189 -0.85466
-0.733408 0.293311 -0.855563
-0.859891 0.555526 0.986441
-0.856831 0.554419 0.577106
-0.856873 0.594648 0.775094
-0.740233 0.293718 0.781774
-0.833877 0.8531 -1.04542
-0.836572 0.815422 -0.849237
-0.833736 0.857242 -0.65125
-0.67033 1.01536 -0.848333
-0.833693 0.874331 0.925417
-0.834785 0.83153 0.735014
-0.833556 0.869911 0.53125
-0.687835 1.13256 0.728334
0.857104 0.537479 -1.06023
0.733404 0.293312 -0.855563
0.855284 0.543466 -0.650896
0.856841 0.579186 -0.85466
0.859893 0.555523 0.986441
0.740233 0.293717 0.781774
0.856831 0.554419 0.577106
0.85688 0.594644 0.775094
0.833877 0.8531 -1.04542
0.669751 1.0142 -0.848333
0.836572 0.815423 -0.849237
0.833736 0.857242 -0.65125
0.833693 0.874331 0.925417
[...]
POINT_DATA 3682
SCALARS point_scalars float 1
LOOKUP_TABLE default
-123.55
-43.9578
-50.7617
-39.9579
-129.879
-43.5374
-50.5457
-39.4712
-32.9119
-34.5613
-34.9287
-39.1521
-32.9047
-34.5241
-35.0071
-39.1108
39.0293
-128.391
-33.4651
-35.2221
-43.6554
-40.8162
-35.9798
39.0293
-128.391
-33.2207
-34.8882
-43.6554
-40.8162
-35.9798
138.693
-95.9307
-33.3735
-37.5166
-39.8418
-45.619
-35.9798
-48.3611
-187.956
-34.5569
-39.9546
-36.8291
-39.8249
-34.4619
150.666
-138.38
-32.7982
-27.993
-44.3936
-32.0003
-27.6314
150.666
-32.2678
-27.6314
148.775
-32.1593
-28.9503
-13.8697
-174.288
-33.8261
-45.2472
-36.4495
-32.1593
-29.3611
151.959
-137.296
-32.8134
-27.9106
-44.7968
-31.595
-26.5737
151.959
-31.5967
-26.5737
172.19
-31.8055
-28.0238
172.19
-174.434
-32.5141
-45.2412
-36.085
-31.8055
-28.5213
33.6646
-136.606
-33.4527
-35.2122
-43.2309
-40.4375
-35.6016
105.148
-136.606
-33.2078
-34.8521
-43.2309
-40.4375
-35.6016
140.225
-98.5629
-33.412
-37.4782
-39.418
-45.2294
-35.6016
-48.1315
-187.703
-34.609
-39.9145
-36.4645
-39.3384
-34.0672
-84.4158
-17.9566
-38.6425
-41.1018
-29.698
-34.9223
-54.2974
-36.3544
-31.2687
-38.0377
-83.2689
-38.527
-40.6828
-34.9049
-36.3425
-37.9744
-34.9099
-32.8716
-37.5911
-36.8633
-32.3832
-42.5373
29.5804
-57.0723
-34.8929
-32.9031
-36.832
-42.5395
-38.0899
-38.043
-62.4727
-23.274
199.236
-38.0211
-38.0264
-32.2409
-76.105
-35.2658
-35.214
-45.6147
-41.4379
-27.8077
-103.442
7.46723
-64.1302
-40.3451
-33.0545
-34.8173
-52.6283
-21.6674
-64.5095
-40.9642
-31.6563
-37.4138
6.26994
-98.0804
-63.9861
-32.6811
-39.9394
-34.6459
-17.946
-52.1345
-64.5337
-31.3532
-40.4879
-37.2473
-29.2138
-34.5211
-32.4959
-36.1707
-35.751
-34.2905
-36.184
-31.949
-27.3776
-33.6326
-43.4201
9.93825
-39.4358
-37.5965
-40.2423
-49.0906
-29.14
-36.1682
-34.5408
-32.5054
-35.7459
-31.986
-34.2541
-36.1537
-27.3171
11.0093
-33.6812
-43.5777
-39.3926
-49.1399
-37.5608
-40.1632
-67.5386
178.033
-82.281
206.523
-38.4658
-59.4821
-34.574
-31.0844
-36.4541
-23.5827
-34.5274
-44.8192
-58.6394
165.276
-37.79
-26.4912
-34.5922
-28.0261
-36.2218
-42.0787
-67.5471
177.353
-38.3705
-59.4254
-34.3923
-30.5536
-34.4766
-45.4004
-37.7606
-26.4767
-36.16
-42.0289
-36.4256
-32.0109
-29.1966
-37.5646
-47.669
-33.6221
-36.9513
-36.9517
-32.1465
-39.0332
-39.6465
-67.4008
-0.150925
-109.751
-60.1519
-53.7037
-36.4249
-32.0239
-29.1468
-37.6457
-36.9189
-36.9193
-39.65
-67.4667
-66.9631
-29.3932
-28.933
-66.7409
-66.847
-66.7827
-28.8931
-29.35
-81.6154
-80.8462
-45.7918
-45.8012
-59.3941
-6.0004
-5.99569
-59.3769
180.03
153.381
151.952
180.385
-35.9166
-35.6771
-38.0725
-39.7371
-35.9704
-39.8426
-38.0313
-35.647
-33.0227
-33.0354
-31.9162
-31.9016
-72.332
-52.8542
-52.8622
-72.4728
-36.1068
-34.2637
-35.0883
-38.0036
-36.082
-37.965
-34.9118
-34.0665
-38.4293
-38.5425
-37.6531
-36.9842
-55.0562
-35.542
-35.4461
-55.009
-31.4616
-30.965
-30.304
-30.8845
-122.393
26.6545
-90.0885
-43.9142
-36.1821
-34.7783
-46.8666
4.15935
-98.4279
-40.87
-33.2714
-36.3002
11.9714
-123.249
-89.6358
-35.8432
-43.415
-34.4419
4.21896
-46.583
-98.3294
-32.9114
-40.3808
-36.0351
-30.0501
-33.3916
-32.6018
-34.019
-38.7839
-34.0687
-35.6168
-29.3616
-29.4019
-34.2247
-40.6783
-21.9872
-39.2588
-37.9803
-39.4677
-43.3738
-29.9837
-34.0469
-33.4089
-32.601
-38.7836
-29.4184
-34.0315
-35.5845
-29.3433
-21.581
-34.2848
-40.9586
-39.2193
-43.3494
-37.9411
-39.4272
-33.1286
-71.7445
-98.7433
145.589
-11.2312
-11.275
-115.576
137.26
-49.1383
-30.2967
-38.3038
-54.7046
-40.2915
-40.8183
-35.5352
-32.6357
-30.8364
-30.3843
-33.9142
-26.0477
-34.8518
-35.0293
-34.6087
-44.2262
-48.3534
-47.4448
-91.8315
98.46
-47.2297
-29.9808
-37.2904
-31.3336
-31.1115
-30.9997
-32.8556
-29.6983
-36.6856
-39.8125
-36.7471
-44.6207
-32.97
-70.6811
-98.5598
145.502
-48.989
-30.1764
-38.1786
-54.7068
-39.9164
-40.3597
-35.2502
-32.2043
-34.809
-35.0178
-34.5681
-44.713
-47.2484
-29.9495
-37.2733
-31.3158
-36.5819
-39.7683
-36.6826
-44.5591
-34.9481
-34.5809
-35.6543
-31.9097
-32.6029
-33.2021
-30.2362
-35.7297
-37.309
-37.2119
-42.4289
-35.0805
-36.4667
-37.2281
-36.6224
-37.2457
-32.2321
-32.2553
-32.3836
-37.3747
-43.7473
-41.288
-40.6717
-51.9677
27.7677
28.1399
9.99366
23.2679
-55.9614
-55.9499
-57.2868
-57.9026
-34.9494
-34.5505
-35.6456
-31.9234
-32.6235
-33.2426
-30.2033
-35.8278
-36.4358
-37.1947
-36.5902
-37.225
-43.789
-41.3059
-40.673
-51.9876
-49.6476
-38.1323
-37.945
-31.2309
-49.6135
-38.063
-37.9119
-31.1805
-77.4233
-61.8263
-61.8399
-53.3785
-38.3931
-23.982
-23.9993
-10.7993
195.741
197.082
193.588
196.132
-37.219
-38.1943
-37.4717
-38.8387
-37.2238
-38.2311
-37.4544
-38.8435
-32.1616
-32.7164
-32.0753
-32.1692
-74.3705
-95.0038
-65.967
-74.3979
-34.8689
-34.755
-35.8103
-36.5173
-34.7714
-34.6982
-35.753
-36.4788
-40.0071
-45.4896
-45.7752
-41.1924
-37.2797
-41.7679
-41.7536
-47.8341
-28.9956
-28.6626
-27.4437
-28.4502
-97.4445
183.606
-106.599
131.93
-65.3434
-84.0045
-35.3585
-32.5143
-38.2308
-31.7509
-34.3386
-38.3783
-99.1973
116.828
-88.7532
99.8895
-65.7161
-64.4037
-35.6156
-32.7261
-33.4462
-31.1423
-35.6203
-37.562
-106.622
131.903
-97.6127
182.11
-65.1916
-84.0568
-35.9144
-31.32
-35.0553
-32.1798
-34.1415
-38.6077
-88.6182
92.5548
-99.0132
116.963
-65.7495
-64.3904
-33.2984
-30.6353
-35.3336
-32.2455
-35.4469
-37.4385
-29.4261
-43.1799
-35.2294
-32.5354
-30.4239
-34.4066
-40.7884
-34.1224
-35.8199
-37.4994
-35.0004
-31.6274
-35.4782
-37.3844
-32.0133
-37.4337
-28.5792
-14.7923
-30.1957
-37.4476
-41.1429
-64.8234
0.699851
8.33563
-38.3333
-55.1618
-37.5439
-37.7635
-38.7811
-45.4602
-50.4748
-58.3156
-29.3732
-43.1655
-40.7572
-34.1256
-35.2654
-32.5606
-30.379
-34.4607
-35.8021
-37.6267
-32.0357
-37.5293
-34.9671
-31.6401
-35.4462
-37.3679
-28.5384
-14.6545
0.94294
8.69493
-30.1654
-37.5924
-41.2636
-64.675
-38.2898
-55.0763
-50.4755
-58.2686
-37.5074
-37.7338
-38.7319
-45.4309
-67.9516
-67.3383
172.606
177.025
-82.4389
-82.4849
200.172
200.016
-49.7483
-31.0094
-74.1585
-50.697
-34.4575
-34.8202
-31.3206
-31.0182
-36.8644
-36.6853
-26.5656
-25.6459
-36.0158
-34.5287
-40.5553
-39.3895
-57.9334
-57.9239
171.989
171.692
-31.1352
-49.0101
-40.1804
-15.5587
-34.8245
-34.7885
-28.3585
-28.9031
-35.4699
-37.4608
-47.9771
-38.2376
-67.9307
-67.3937
178.127
172.3
-49.6352
-30.9037
-75.2999
-50.6773
-34.6409
-34.2678
-30.8583
-30.4658
-35.9872
-34.4532
-40.7899
-40.3734
-48.9989
-31.1052
-15.5995
-40.2053
-37.4185
-35.3635
-38.1792
-47.9676
-36.4908
-36.0064
-32.2791
-31.8128
-29.3225
-29.0418
-36.7434
-38.6959
-47.2393
-47.2432
-33.4221
-33.4286
-36.2737
-37.509
-36.5299
-37.5629
-32.0792
-32.0678
-38.8988
-38.9715
-38.7816
-40.2452
-91.0379
-57.6208
-1.36173
-1.47207
-100.869
-101.069
-58.472
-58.4752
-53.9798
-53.9588
-36.5161
-35.9861
-32.2945
-31.8253
-28.9995
-29.2758
-36.8131
-38.7903
-37.4726
-36.244
-36.501
-37.5278
-40.2829
-38.7628
-57.648
-91.1163
-90.9253
-49.4489
-49.843
-99.5924
-30.3264
-30.3418
-31.1063
-30.3285
-30.2819
-30.8429
-31.1675
-30.1205
-98.7602
-99.9742
-49.4183
-48.2752
-90.6501
-99.6438
-49.7755
-49.2966
-98.6154
-48.2934
-49.434
-99.7829
-30.2443
-30.0897
-31.1296
-30.8167
-30.2679
-30.1832
-31.0329
-30.3036
-96.9966
-114.741
-76.669
-67.7302
-97.2367
-68.1107
-76.8035
-114.714
-41.7683
-42.0307
-52.756
-46.526
-41.8142
-46.5286
-52.7525
-42.0362
-114.744
-44.2135
-38.5205
-88.7926
-13.8472
8.8074
-11.798
-22.0534
-13.5725
-22.0134
-11.8449
8.47664
-114.748
-88.7198
-38.5215
-44.2137
140.141
138.73
193.73
121.92
46.7762
120.058
191.911
145.537
46.7673
145.699
192.176
116.291
137.163
122.707
194.219
138.485
-33.8924
-35.7044
-37.3584
-35.0087
-34.8067
-35.9901
-36.7248
-35.32
-38.0974
-39.5923
-38.1278
-37.0806
-38.7869
-36.5834
-39.2551
-41.5084
-33.9266
-35.0849
-37.3921
-35.717
-38.9792
-41.545
-39.293
-36.7249
-38.0574
-37.0462
-38.1103
-39.5762
-34.7719
-35.2953
-36.7079
-35.9583
-33.2465
-34.8675
-32.5984
-32.1222
-33.2663
-32.1433
-32.6059
-34.8714
-31.4226
-32.3054
-32.0101
-31.7275
-31.3996
-31.7161
-32.0023
-32.2911
-64.4786
-57.5512
-93.9749
22.3604
-43.925
-55.8357
-64.125
-47.9464
-43.9096
-47.9444
-64.1362
-55.833
-65.757
22.4921
-94.0474
-57.5516
-37.6416
-35.663
-36.2704
-37.2041
-35.2736
-35.6221
-34.6737
-34.4156
-35.4685
-35.8891
-35.1449
-35.6408
-38.0412
-37.4968
-36.992
-38.1825
-37.6295
-37.1843
-36.2373
-35.6405
-38.0073
-38.1376
-36.9516
-37.472
-35.192
-35.3567
-35.0399
-35.7831
-34.9545
-34.3562
-34.585
-35.3296
-41.5099
-37.3349
-40.9969
-39.0472
-41.5765
-39.2659
-41.1335
-37.3802
-39.5013
-34.2351
-40.2465
-40.3585
-40.9783
-39.6905
-39.9523
-35.0267
-43.6958
-50.9754
-47.9933
-58.032
-34.8728
-32.9616
-37.5055
-40.7508
-34.6633
-40.6681
-37.4777
-32.8946
-43.6575
-58.014
-47.9723
-50.9122
-33.5241
-27.6421
-29.6232
-32.5615
-33.2033
-32.1438
-29.1864
-26.9607
-32.5938
-29.6377
-28.1241
-32.2064
-33.0953
-32.6553
-28.6937
-29.977
-125.528
-55.6033
-120.283
-44.1817
-40.951
-31.5931
-47.7904
43.5507
-153.057
-40.4094
-35.9585
-36.6553
-58.2727
-133.418
-119.449
-41.0245
-43.7547
-31.1904
43.6833
-47.54
-152.85
-35.4589
-39.9219
-36.3147
-32.7283
-32.6266
-32.792
-32.6588
-37.5655
-34.0723
-35.0265
-28.1003
-32.2754
-34.5225
-37.9752
-38.3621
-39.3712
-38.4881
-39.1613
-41.5
-32.7032
-32.6959
-32.6283
-32.7879
-37.5501
-28.092
-34.035
-34.9913
-32.2598
-38.3082
-34.5886
-38.1861
-39.3304
-41.4564
-38.4472
-39.1205
-93.5297
-75.2915
-130.598
125.242
-16.7989
-17.0421
-65.6478
62.0142
-44.2435
-33.8899
-38.5072
-49.4416
-41.0137
-41.0025
-38.5019
-33.6548
-30.0528
-29.7835
-32.7439
-29.0006
-34.8622
-34.8741
-34.6529
-41.3016
-51.2782
-51.0558
-129.574
20.2538
-41.2492
-32.7641
-36.9226
-34.3324
-31.2024
-31.1567
-32.0161
-30.4095
-37.3458
-38.7936
-37.3998
-41.3415
-92.3104
-74.1751
-129.943
125.26
-44.1072
-33.7732
-38.3835
-49.471
-40.6466
-40.5585
-38.1521
-33.2063
-34.817
-34.863
-34.6212
-41.5838
-41.2543
-32.7415
-36.9104
-34.3225
-37.2681
-38.7409
-37.3359
-41.2806
-34.9773
-34.7572
-35.2547
-32.3384
-32.7396
-33.0075
-31.5134
-34.372
-37.5962
-37.4955
-39.3593
-36.2163
-36.5654
-37.0747
-36.5933
-37.2051
-32.3402
-32.353
-32.5275
-34.8365
-43.1758
-41.8526
-41.4867
-47.5255
28.9644
29.1739
19.8623
36.7071
-56.817
-56.8112
-56.8279
-58.3816
-34.9689
-34.7328
-35.2415
-32.3287
-32.7658
-33.044
-31.5027
-34.4417
-36.5342
-37.0425
-36.5604
-37.1736
-43.1928
-41.8504
-41.4881
-47.5163
-43.2441
-38.2045
-38.048
-34.1652
-43.1998
-38.1485
-38.0117
-34.1124
-69.4794
-62.3293
-62.3393
-57.4073
-30.6245
-23.4347
-23.4457
-16.7715
198.515
197.957
199.775
198.824
-37.5441
-38.3236
-37.7262
-38.4687
-37.5497
-38.3442
-37.7214
-38.4734
-32.2193
-32.4239
-32.1311
-32.2231
-75.629
-84.0824
-70.3647
-75.6426
-34.9551
-35.0277
-35.5444
-35.8581
-34.8815
-34.9726
-35.4926
-35.8074
-42.7852
-45.5575
-45.691
-42.6325
-38.99
-41.5008
-41.469
-44.0441
-28.1828
-28.0593
-27.6008
-27.8434
-112.96
-97.6187
-133.563
152.925
30.0152
2.51376
-50.7984
71.9372
-75.6369
-55.0596
-64.5922
-78.9887
-41.7484
-39.802
-36.1262
-34.3216
-34.077
-31.9433
-37.3382
-32.0736
-34.8021
-34.2492
-34.6032
-37.8458
-45.9427
-63.8368
-136.556
128.247
-25.712
-39.3853
-118.67
61.945
-78.0003
-54.9665
-65.0614
-65.8854
-40.7812
-40.9917
-37.2255
-33.8596
-32.3584
-31.1871
-32.3964
-31.2684
-36.1667
-36.8807
-36.5944
-40.0086
31.0655
2.35057
-47.8869
71.7177
-110.674
-91.8563
-134.707
162.842
-75.4576
-54.8692
-64.4186
-79.2514
-33.8058
-31.4451
-36.101
-31.6862
-41.2144
-39.6052
-35.8387
-33.9362
-34.5346
-34.1262
-34.4179
-37.9893
-23.7459
-37.5855
-118.353
61.4929
-45.626
-63.0332
-136.257
128.487
-77.9868
-54.9929
-65.0915
-65.8691
-31.9479
-30.964
-32.1775
-30.8517
-40.2935
-40.5257
-36.8691
-33.3795
-35.959
-36.7467
-36.4251
-39.8728
-30.0087
-29.3586
-29.4732
-38.8148
-34.0863
-34.8082
-34.8517
-32.4887
-32.419
-32.5494
-31.6504
-33.3866
-35.4302
-36.7706
-37.6563
-35.0647
-36.2899
-34.8614
-35.7855
-36.3414
-34.1787
-34.4303
-34.6083
-32.0149
-36.0255
-36.3279
-35.5181
-37.208
-31.5165
-32.0866
-32.1171
-34.8474
-27.8912
-28.3035
-28.2513
-21.3756
-33.9149
-33.4118
-31.7898
-35.6642
-42.3431
-43.6401
-42.1227
-52.0558
-3.79135
22.6825
4.03832
14.0258
-38.5632
-40.8457
-38.6401
-41.5466
-37.7772
-37.4099
-37.4819
-37.7386
-39.9542
-40.8777
-39.4636
-43.3792
-45.0334
-54.4055
-49.9134
-56.1939
-29.9412
-29.2716
-29.4081
-38.8412
-35.4237
-36.7708
-37.6283
-35.0639
-34.1097
-34.8197
-34.8784
-32.5003
-32.4212
-32.5644
-31.6325
-33.4245
-36.2813
-34.8498
-35.774
-36.4531
-31.5739
-32.1155
-32.1465
-34.8602
-34.142
-34.3958
-34.5731
-31.9982
-35.9954
-36.2974
-35.4858
-37.1775
-27.8408
-28.2583
-28.2069
-21.2532
-3.83935
23.5238
4.05993
14.8527
-33.9688
-33.4566
-31.7877
-35.7738
-42.5857
-43.7251
-42.26
-52.1961
-38.5218
-40.8048
-38.5958
-41.4959
-45.0272
-54.3909
-49.9352
-56.1612
-37.7398
-37.3756
-37.4455
-37.7045
-39.9115
-40.8383
-39.4037
-43.2463
-79.9327
-57.608
-67.9042
-67.1107
166.936
188.481
174.303
181.235
-95.0902
-81.3341
-82.3638
-82.4041
185.153
206.692
208.715
203.6
-38.3014
-38.258
-43.592
-34.0364
-57.5184
-60.8994
-66.4064
-54.5042
-34.7198
-34.6019
-34.4826
-34.6579
-31.8835
-30.0575
-31.1988
-31.0676
-34.7721
-37.9976
-36.6054
-36.5194
-23.9543
-25.7477
-25.27
-24.5807
-34.5063
-34.6316
-35.4243
-34.6437
-44.8025
-45.2335
-42.126
-42.1379
-70.124
-47.1425
-58.109
-58.0997
140.141
183.166
174.178
173.413
-37.6052
-37.8527
-33.9358
-42.7063
-28.8735
-24.866
-32.9653
-20.7747
-33.5447
-35.842
-34.6749
-34.6595
-28.8624
-27.734
-27.9733
-28.2939
-36.4187
-36.0272
-35.7587
-36.8405
-42.8693
-41.8135
-44.6388
-39.997
-79.9193
-57.6059
-67.9078
-67.4375
166.804
189.419
181.693
173.955
-38.187
-38.1758
-43.4877
-33.9372
-57.4717
-60.8906
-66.2454
-54.4713
-34.4877
-34.4667
-34.4777
-34.2972
-31.4383
-29.4706
-30.6967
-30.5176
-34.4593
-34.5774
-35.3844
-34.5687
-45.387
-45.6738
-42.468
-42.8998
-37.5813
-37.821
-42.6907
-33.9069
-28.8614
-24.8812
-20.7873
-32.9477
-36.3553
-35.967
-36.7891
-35.6775
-42.814
-41.779
-39.9463
-44.5887
-35.9872
-36.8331
-36.5283
-36.2725
-31.953
-32.0915
-32.045
-31.9287
-29.4731
-29.6839
-29.2591
-29.1333
-36.9813
-38.2025
-37.1379
-38.2543
-45.8331
-50.2422
-47.5679
-47.5698
-34.2525
-33.1335
-33.5645
-33.5677
-36.6281
-37.103
-36.6178
-37.2371
-37.0773
-36.9324
-36.6542
-37.2891
-32.2502
-32.083
-32.1305
-32.1255
-38.1294
-40.034
-38.9987
-39.0368
-40.1592
-39.201
-39.1829
-39.9783
-59.3574
-72.3834
-77.1629
-61.7408
4.77599
-5.18118
-0.407035
-0.488518
-35.4083
-113.716
-107.801
-107.877
-58.3791
-62.6591
-59.7205
-59.7218
-55.7908
-51.6683
-53.764
-53.7524
-35.9824
-36.8355
-36.5399
-36.2625
-31.9693
-32.1021
-32.0596
-31.9409
-29.4292
-29.6384
-29.0882
-29.206
-37.0812
-38.2625
-37.2132
-38.344
-36.5951
-37.0764
-37.2025
-36.587
-37.0508
-36.9009
-36.6235
-37.2555
-40.1615
-39.2056
-39.9955
-39.1769
-59.4003
-72.4195
-61.7812
-77.2078
-79.3043
-66.1477
-67.6947
-57.7156
-29.3927
-29.4741
-29.8214
-29.3542
-28.8165
-29.1055
-29.4587
-28.9817
-79.6935
-66.3838
-67.0934
-56.9436
-79.3588
-66.0141
-67.6274
-57.6063
-79.6795
-66.4205
-67.1433
-56.9711
-28.7774
-29.0636
-29.4248
-28.9619
-29.348
-29.411
-29.7513
-29.3107
-94.3269
-82.5341
-81.42
-78.3599
-94.365
-81.8729
-81.3017
-79.8912
-44.665
-44.3832
-47.9357
-46.6634
-44.6757
-44.3768
-47.9498
-46.6701
-70.5238
-61.7237
-58.1931
-48.8625
-10.3189
-2.08161
-10.5441
-2.80271
-10.2257
-2.0292
-10.573
-2.88619
-70.4545
-61.7147
-58.1846
-48.8702
176.44
166.077
179.583
198.001
137.658
131.107
170.938
169.548
126.413
136.702
169.553
172.096
166.042
176.632
198.274
180.593
-35.513
-35.3108
-36.296
-36.3588
-35.3482
-35.5235
-35.8904
-35.9822
-37.7909
-38.4148
-37.7841
-38.4548
-38.9264
-40.44
-39.1351
-40.0962
-35.5572
-35.3716
-36.3353
-36.4224
-38.9526
-40.5532
-39.2337
-40.3774
-37.7523
-38.3695
-37.7457
-38.4194
-35.3173
-35.4917
-35.8647
-35.9524
-32.7613
-33.4218
-32.6403
-33.2639
-33.4303
-32.7829
-33.2739
-32.6555
-31.9951
-31.8214
-32.0047
-31.7965
-31.804
-31.9776
-31.7834
-31.992
-101.769
-16.0159
-92.0541
-78.4326
-48.9378
-51.958
-55.1642
-56.4781
-51.9904
-48.9467
-56.4833
-55.1936
-16.1333
-101.883
-78.7351
-92.1871
-35.9145
-36.4537
-36.091
-36.2928
-34.6789
-34.3152
-34.31
-34.3322
-35.0695
-35.2096
-34.9682
-35.2996
-38.2309
-37.6846
-37.9646
-37.7964
-35.8921
-36.4337
-36.0655
-36.2658
-38.1903
-37.6521
-37.9275
-37.7596
-34.8449
-35.0344
-34.7901
-35.1622
-34.4351
-34.1167
-34.1158
-34.2246
-37.7036
-37.7436
-39.4926
-38.6976
-37.8209
-37.8661
-39.6581
-38.7982
-36.4212
-38.0606
-37.2238
-38.9073
-36.1703
-37.7178
-36.9993
-37.6425
-57.3326
-57.6007
-51.8162
-54.3394
-34.4206
-36.2629
-35.0767
-36.7843
-34.2943
-36.1507
-35.0132
-36.7179
-57.2694
-57.5546
-51.7629
-54.3095
-31.6782
-31.4919
-31.3885
-28.6964
-31.0091
-31.2796
-27.7446
-30.8998
-30.4719
-31.4018
-29.1481
-30.3463
-31.8991
-31.0237
-30.9228
-29.7672
-119.026
147.024
-51.2889
96.0565
-90.4098
-106.889
-32.3414
-36.555
-39.8125
-34.4171
-35.1244
-40.8886
-134.811
73.7546
-131.141
16.5271
-98.2256
-111.97
-36.6561
-34.9443
-34.3156
-33.2091
-35.9282
-36.5161
-51.9942
93.3887
-119.075
147.154
-90.0409
-107.235
-39.2979
-34.091
-31.9637
-36.1751
-34.7965
-40.233
-131.033
16.4856
-134.521
73.8268
-98.1117
-111.933
-33.9892
-32.6936
-36.3028
-34.4063
-35.6578
-36.2818
-30.2901
-32.6168
-33.6364
-32.5874
-32.2222
-33.0079
-36.7742
-33.7637
-38.2588
-47.603
-34.3898
-31.6073
-34.881
-37.3408
-30.9938
-35.1967
-30.1542
-25.0266
-32.0483
-36.5729
-39.5999
-51.2045
-14.3362
-36.6392
-38.5267
-41.4598
-37.9113
-38.0579
-38.7084
-42.1697
-43.4975
-43.5927
-30.2271
-32.6265
-36.7449
-33.7827
-33.6617
-32.6062
-32.1971
-33.0278
-38.253
-47.6205
-31.0284
-35.2451
-34.3531
-31.5943
-34.8468
-37.3207
-30.1099
-24.8856
-14.2894
-35.5741
-32.0406
-36.7135
-39.8275
-52.078
-38.4901
-41.4078
-43.4784
-43.5622
-37.8717
-38.0211
-38.6675
-42.1356
-128.869
119.388
-136.554
131.106
-99.7715
-100.095
142.8
150.016
-67.2396
37.7238
-67.1357
38.0581
-116.421
-116.43
147.403
147.826
-49.2661
-61.0635
-30.2868
-41.8023
-43.9434
-33.9031
-61.6017
-49.9336
-38.4098
-33.7615
-37.9188
-33.6445
-35.5344
-35.588
-32.6287
-32.6457
-34.1081
-29.8245
-33.5586
-29.3909
-33.8974
-34.2671
-26.6792
-26.1982
-34.2944
-38.5358
-35.3502
-36.418
-35.1698
-34.7263
-40.7823
-41.9474
-125.681
48.9115
-125.556
47.0147
-89.9979
-89.9495
109.586
107.232
-47.7631
-46.4453
-30.5672
-26.6487
-33.4952
-42.1382
-37.1066
-26.4895
-31.9717
-30.4913
-31.9134
-30.2131
-32.8891
-32.8577
-29.5127
-29.6983
-36.2891
-39.5131
-38.9875
-44.3274
-36.1531
-37.4047
-47.3681
-43.0572
-129.218
119.026
-136.014
131.495
-99.7631
-99.9126
150.161
142.696
-49.0993
-61.1923
-30.1533
-41.8223
-43.8154
-33.7897
-61.6182
-49.932
-38.1122
-33.3147
-37.5598
-33.1851
-35.3039
-35.2456
-32.2037
-32.2059
-34.2526
-38.8698
-35.333
-36.5624
-35.1393
-34.6529
-41.0926
-42.5735
-47.783
-46.5838
-30.54
-26.6082
-42.138
-33.4728
-26.4692
-37.0938
-36.1842
-39.4168
-38.9428
-44.2836
-37.3515
-36.0713
-42.9877
-47.31
-35.2927
-32.4442
-34.9245
-32.1977
-35.7275
-35.4836
-31.973
-31.7697
-31.5104
-33.8251
-31.6078
-34.9903
-30.2972
-30.1739
-35.3363
-36.1939
-38.9517
-35.8992
-38.9496
-35.9014
-42.3284
-42.3306
-35.0416
-35.0437
-36.0742
-37.1611
-37.0605
-37.4521
-36.2456
-36.8603
-37.1805
-37.3672
-32.401
-34.758
-32.4184
-34.7904
-32.3673
-32.3596
-37.3614
-37.3845
-42.4766
-50.4939
-40.3439
-44.9431
-40.0785
-41.1133
-54.6357
-49.771
15.7645
34.0541
16.3966
34.3144
10.1881
9.6592
23.7583
23.5789
-55.5049
-57.9581
-55.4981
-57.9425
-56.9291
-56.9272
-57.9604
-57.9515
-35.299
-32.4447
-34.8968
-32.1807
-35.7289
-35.466
-31.9906
-31.7821
-31.4985
-33.8791
-31.6048
-34.9866
-30.1433
-30.2622
-35.4222
-36.3053
-36.0427
-37.1244
-37.0265
-37.4206
-36.8272
-36.2136
-37.1614
-37.3454
-42.5147
-50.4986
-40.3403
-44.9949
-41.1282
-40.0721
-49.7835
-54.6527
-49.7508
-49.7619
-43.4465
-34.3092
-34.0381
-42.9823
-31.1067
-31.2518
-49.6978
-49.772
-43.375
-34.2434
-42.9585
-33.9995
-31.2079
-31.0457
-77.4738
-77.5206
-68.811
-56.7694
-68.8601
-56.7718
-53.2168
-53.2164
-38.3071
-38.3059
-31.0321
-17.6543
-17.682
-31.0401
-11.0077
-11.037
194.873
194.705
196.265