# vtk DataFile Version 2.0
tri_press
ASCII
DATASET UNSTRUCTURED_GRID
POINTS 3682 float
-0.749614 0.085 -1.865
-0.805 0.395 2.04186
-0.825 0.705 -1.62791
-0.801416 0.965 1.915
0.749619 0.085 -1.865
0.805 0.395 2.04186
0.825 0.705 -1.62791
0.801421 0.965 1.915
-0.862707 0.0937019 -0.562713
-0.890555 0.18765 0.739574
-0.848576 0.823104 -0.44694
-0.76275 0.831806 0.73403
0.862738 0.0936751 -0.562713
0.899323 0.178883 0.739574
0.848573 0.8231 -0.44694
0.762736 0.831789 0.73403
-1.57662 -0.32498 -2.90787
-1.59105 -0.273642 -1.91463
-1.66773 -0.242787 -0.609207
-1.70632 -0.144821 0.720633
-1.67882 0.0381112 2.02811
-1.66261 0.159624 3.03143
-1.661 0.255033 4.0161
-1.57905 0.0124689 -2.83294
-1.59111 0.0757747 -1.85295
-1.6755 0.101413 -0.571133
-1.69815 0.177913 0.721604
-1.65756 0.357514 2.00575
-1.64688 0.477654 3.00735
-1.65125 0.573121 3.99597
-1.6111 0.662813 -2.64903
-1.63572 0.728686 -1.66402
-1.66345 0.80347 -0.464909
-1.61641 0.827698 0.72561
-1.6268 0.956561 1.92705
-1.62874 1.0792 2.93367
-1.63716 1.18551 3.94186
-1.64754 1.65018 -2.46438
-1.65945 1.71545 -1.49754
-1.66295 1.78251 -0.337759
-1.63984 1.82655 0.795873
-1.62395 1.90727 1.95692
-1.62669 2.00197 2.92641
-1.63362 2.10393 3.92135
-0.761238 -0.319993 -2.9157
-0.759465 -0.268347 -1.92605
-0.831039 -0.247304 -0.607675
-0.873475 -0.13958 0.735969
-0.848452 0.0634066 2.05492
-0.8353 0.17953 3.04962
-0.835511 0.268225 4.02662
-0.762388 0.0152972 -2.83535
-0.820133 0.497537 3.02235
-0.827344 0.586047 4.00391
-0.790654 0.656281 -2.63403
-0.808889 1.08892 2.93126
-0.816479 1.19378 3.94134
-0.82562 1.64957 -2.44954
-0.836215 1.71672 -1.4812
-0.843719 1.78766 -0.327908
-0.824704 1.82706 0.794691
-0.806747 1.90618 1.94848
-0.808467 2.00234 2.91798
-0.814036 2.10539 3.91522
0.823918 -0.320277 -2.9157
0.814484 -0.268548 -1.92605
0.868214 -0.24842 -0.607675
0.870981 -0.145509 0.735969
0.809239 0.0611212 2.05492
0.810627 0.177747 3.04962
0.812957 0.266296 4.02663
0.813154 0.0151299 -2.83535
0.812055 0.496352 3.02235
0.814923 0.584348 4.00391
0.826955 0.656146 -2.63403
0.812529 1.08802 2.93126
0.817795 1.19232 3.94134
0.815067 1.64916 -2.44954
0.810601 1.71632 -1.4812
0.79868 1.78711 -0.327908
0.795262 1.82621 0.794691
0.811523 1.90507 1.94848
0.817799 2.00103 2.91798
0.819355 2.10391 3.91522
1.62789 -0.32574 -2.90787
1.62355 -0.274382 -1.91463
1.68919 -0.245397 -0.609207
1.70977 -0.153144 0.720632
1.65996 0.0323678 2.02811
1.64305 0.155378 3.03143
1.6405 0.250972 4.01609
1.61416 0.0119488 -2.83294
1.59093 0.0754344 -1.85295
1.67524 0.0998921 -0.571133
1.70626 0.169265 0.721604
1.65848 0.352599 2.00575
1.64038 0.474118 3.00735
1.63976 0.569423 3.99597
1.62915 0.662382 -2.64903
1.62532 0.728449 -1.66402
1.65366 0.802903 -0.464909
1.61751 0.824595 0.72561
1.63283 0.953371 1.92705
1.63379 1.07639 2.93367
1.63819 1.18229 3.94186
1.63283 1.64926 -2.46437
1.63044 1.71451 -1.49754
1.62075 1.78122 -0.33776
1.61234 1.82459 0.795873
1.62408 1.90477 1.95692
1.63247 1.99918 2.92641
1.63667 2.10087 3.92135
-0.808466 0.395 -1.76761
2.5034e-06 0.0842106 -1.86579
-0.815199 0.080313 -1.21386
-0.839343 0.68 2.01456
0 0.372206 2.06465
-0.847125 0.291978 1.39072
0 0.75522 -1.67813
-0.877515 0.804779 -1.03743
2.5034e-06 0.862832 1.81283
-0.784592 0.900912 1.32452
0.8084 0.395 -1.76755
0.8152 0.0803154 -1.21386
0.839364 0.68 2.01458
0.847155 0.291948 1.39072
0.877523 0.804786 -1.03743
0.784581 0.900897 1.32452
-0.890554 0.126753 0.08843
-0.821686 0.458403 -0.504827
1.51032e-05 0.138835 -0.562713
-0.859273 0.509728 0.736802
0.00438419 0.16252 0.739574
-0.810632 0.832424 0.143545
-1.35717e-06 1.19174 -0.44694
-6.5339e-06 1.14594 0.73403
0.899322 0.117987 0.08843
0.822443 0.458387 -0.504827
0.85945 0.505336 0.736802
0.810641 0.83243 0.143545
-0.882868 0.426702 -1.12564
0.883065 0.426694 -1.12564
8.80332e-06 0.144124 -1.21386
-6.78586e-07 0.900588 -1.03743
1.2517e-06 0.395 -1.89888
-0.764189 0.484065 0.115988
0.766269 0.481862 0.115988
0.00219965 0.143582 0.08843
-3.94554e-06 1.25111 0.143545
-0.880664 0.594864 1.35762
0.880615 0.592668 1.35762
0.0021921 0.244396 1.39072
-2.01525e-06 0.976688 1.32452
1.2517e-06 0.68 2.08881
-0.779912 0.24 -1.81718
-0.374806 0.0857269 -1.86427
-0.785048 0.0800145 -1.53943
-0.827702 0.5375 2.03374
-0.4025 0.378029 2.05883
-0.837804 0.331747 1.71629
-0.82899 0.55 -1.71002
-0.4125 0.742276 -1.66519
-0.875548 0.77918 -1.33267
-0.835136 0.8225 1.97954
-0.400707 0.943027 1.89303
-0.802998 0.94295 1.61976
0.374811 0.0842554 -1.86574
0.779953 0.24 -1.81722
0.785052 0.0800155 -1.53943
0.4025 0.378113 2.05875
0.827678 0.5375 2.03372
0.837776 0.331776 1.71629
0.4125 0.74226 -1.66517
0.829124 0.55 -1.71015
0.875548 0.77918 -1.33267
0.400712 0.94314 1.89314
0.835388 0.8225 1.97979
0.802995 0.942942 1.61976
-0.843771 0.0821896 -0.888285
-0.890553 0.0963052 -0.237142
-0.875935 0.259183 -0.53377
-0.412749 0.153462 -0.562713
-0.895774 0.21288 1.06515
-0.890554 0.157202 0.414002
-0.858125 0.357083 0.738188
-0.443435 0.174385 0.739574
-0.868074 0.81897 -0.742183
-0.817392 0.631884 -0.475883
-0.834998 0.833158 -0.151698
-0.479485 1.11782 -0.44694
-0.737631 0.830319 1.02927
-0.860112 0.695317 0.735416
-0.78619 0.831614 0.438788
-0.435537 1.09719 0.73403
0.843914 0.0820504 -0.888285
0.410474 0.15806 -0.562713
0.893086 0.0937752 -0.237142
0.876025 0.259314 -0.53377
0.895198 0.213457 1.06515
0.447689 0.179031 0.739574
0.899323 0.148435 0.414002
0.858129 0.352738 0.738188
0.86808 0.818974 -0.742183
0.479505 1.11786 -0.44694
0.818052 0.632015 -0.475883
0.835008 0.833166 -0.151698
0.737632 0.830317 1.02927
0.43553 1.09719 0.73403
0.860158 0.693095 0.735416
0.786193 0.831615 0.438788
-0.873982 0.410851 -1.44663
-0.404233 0.395 -2.04222
5.65336e-06 0.140639 -1.53982
1.87755e-06 0.239605 -2.11835
-0.870839 0.253507 -1.16975
-0.407595 0.143015 -1.21386
-0.867059 0.637432 1.68609
-0.419671 0.68 2.09749
0.00109605 0.261794 1.72769
6.25849e-07 0.526103 2.10413
-0.866094 0.443421 1.37417
-0.422466 0.267954 1.39072
-3.39293e-07 0.837168 -1.35778
6.25849e-07 0.57511 -2.06716
-0.878512 0.61574 -1.08153
-0.438758 0.867691 -1.03743
2.44071e-07 0.931328 1.56867
1.87755e-06 0.771416 2.06786
-0.886092 0.747888 1.34107
-0.392297 0.992668 1.32452
0.874407 0.410847 -1.44659
0.404201 0.395 -2.04222
0.870837 0.253505 -1.16975
0.407605 0.143948 -1.21386
0.867049 0.636334 1.6861
0.419683 0.68 2.0975
0.866052 0.442308 1.37417
0.424674 0.268304 1.39072
0.878551 0.61574 -1.08153
0.438761 0.86757 -1.03743
0.885835 0.746783 1.34107
0.39229 0.992692 1.32452
-0.872208 0.282991 0.102209
-0.429561 0.164401 0.08843
-0.891476 0.442552 -0.815234
-0.803307 0.471234 -0.19442
1.19533e-05 0.14776 -0.888285
0.00110738 0.141207 -0.237142
-0.719084 0.496897 0.426395
-0.872251 0.552296 1.04721
0.00329192 0.145956 0.414002
0.00328814 0.175086 1.06515
-0.757576 0.643328 0.129766
-0.461777 1.15468 0.143545
-1.01788e-06 1.07493 -0.742183
-2.65135e-06 1.25605 -0.151698
-5.23972e-06 1.22056 0.438788
-4.27458e-06 1.07093 1.02927
0.871033 0.280806 0.102209
0.431542 0.169222 0.08843
0.891476 0.442541 -0.815234
0.804151 0.470125 -0.19442
0.722164 0.493599 0.426395
0.872777 0.549002 1.04721
0.759765 0.642801 0.129766
0.461775 1.15468 0.143545
-0.862914 0.246754 -1.49303
-0.885017 0.26478 -0.851759
-0.88504 0.628247 -0.778708
-0.873355 0.58287 -1.38965
0.86291 0.246752 -1.49301
0.873378 0.58287 -1.38963
0.884885 0.628242 -0.778708
0.885037 0.264768 -0.851759
-0.3912 0.138469 -1.53963
0.391208 0.138121 -1.53963
0.41949 0.149755 -0.888285
-0.419471 0.147711 -0.888285
-0.425629 0.727902 -1.34522
-0.431523 1.0007 -0.742183
0.431524 1.00068 -0.742183
0.425631 0.727904 -1.34522
-0.389519 0.239803 -2.05687
-0.408366 0.562555 -2.01441
0.40835 0.562555 -2.01441
0.389506 0.239803 -2.05701
-0.874989 0.270629 -0.215781
-0.868764 0.318238 0.420198
-0.859499 0.69465 0.432591
-0.802121 0.644924 -0.173059
0.874361 0.269644 -0.215781
0.802988 0.644448 -0.173059
0.808562 0.667248 0.432591
0.868269 0.314928 0.420198
-0.421033 0.159175 -0.237142
0.420372 0.164913 -0.237142
0.440024 0.173309 0.414002
-0.436286 0.169817 0.414002
-0.481106 1.1572 -0.151698
-0.449229 1.12708 0.438788
0.449225 1.12708 0.438788
0.481069 1.15713 -0.151698
-0.888425 0.396055 1.05618
-0.859378 0.49046 1.70119
-0.881085 0.785194 1.65292
-0.835698 0.709327 1.03824
0.889089 0.392209 1.05618
0.837008 0.707673 1.03824
0.881077 0.784641 1.65293
0.859667 0.489904 1.70119
-0.432776 0.180855 1.06515
0.438264 0.188063 1.06515
0.413587 0.310851 1.72199
-0.412483 0.310586 1.72199
-0.386838 1.05842 1.02927
-0.396502 0.930618 1.59422
0.396501 0.930624 1.59422
0.386827 1.05842 1.02927
-0.411085 0.531802 2.09918
0.411091 0.531802 2.0992
0.410197 0.796958 2.06558
-0.410189 0.796958 2.06559
-0.765876 0.1625 -1.8422
-0.56221 0.0828236 -1.86718
-0.769941 0.0798979 -1.70221
-0.817288 0.46625 2.03874
-0.60375 0.382159 2.0547
-0.834094 0.350682 1.87907
-0.830812 0.6275 -1.67278
-0.61875 0.749113 -1.67202
-0.867173 0.758989 -1.48029
-0.816383 0.89375 1.94538
-0.601061 0.987514 1.93751
-0.793662 0.94543 1.76738
0.562215 0.082819 -1.86718
0.765879 0.1625 -1.8422
0.769945 0.0798987 -1.70221
0.60375 0.376193 2.06067
0.817236 0.46625 2.03869
0.834112 0.350663 1.87907
0.61875 0.749107 -1.67202
0.831222 0.6275 -1.67319
0.86566 0.757475 -1.48029
0.601066 0.98674 1.93674
0.8164 0.89375 1.94539
0.793609 0.945372 1.76738
-0.84852 0.0926649 -0.725499
-0.877888 0.0937456 -0.399928
-0.890552 0.165827 -0.548242
-0.622138 0.154763 -0.562713
-0.890569 0.20286 0.902359
-0.890555 0.172426 0.576788
-0.856932 0.281071 0.738881
-0.664481 0.186045 0.739574
-0.858243 0.820955 -0.594561
-0.813224 0.717614 -0.461412
-0.842758 0.829102 -0.299319
-0.638441 0.91928 -0.44694
-0.750477 0.831349 0.881651
-0.815533 0.765612 0.734723
-0.774876 0.832116 0.586409
-0.596572 0.959356 0.73403
0.848093 0.093095 -0.725499
0.622278 0.154524 -0.562713
0.877917 0.0937196 -0.399928
0.899321 0.161524 -0.548242
0.899331 0.194099 0.902359
0.670148 0.185674 0.739574
0.899323 0.163659 0.576788
0.85557 0.277389 0.738881
0.858249 0.82096 -0.594561
[...]
POINT_DATA 3682
SCALARS point_scalars float 1
LOOKUP_TABLE default
-96.3295
-38.4596
-50.1801
-49.0949
-96.0737
-38.38
-50.6829
-49.1828
-38.8658
-33.267
-55.251
-38.7927
-39.1254
-33.2704
-55.2517
-38.8213
-65.161
-123.224
-42.7385
-39.2235
-38.8421
-39.1435
-38.7953
-65.161
-119.73
-42.5499
-33.1501
-38.2981
-38.1852
-38.1852
15.2178
-122.609
-51.7873
-38.1322
-44.5835
-39.8953
-36.6148
-45.5886
-82.883
-61.8207
-41.2709
-52.0446
-45.5746
-48.0301
-55.0022
-191.649
-39.1445
-31.7356
-38.3197
-33.9103
-31.3012
-10.3037
-31.1382
-30.8792
142.407
-31.9317
-31.0198
24.1288
-64.1923
-89.74
-46.9661
-40.5117
-42.6609
-37.0906
-36.7906
-112.567
-39.8877
-32.4967
-38.6084
-32.7437
-31.2301
49.3561
-31.1105
-30.8609
147.717
-31.9445
-31.0267
22.4101
-59.6383
-89.546
-46.9841
-40.5072
-42.7869
-36.1004
-64.907
-117.756
-43.101
-34.8933
-38.7888
-39.0588
-38.7466
-64.907
-115.273
-42.2305
-33.6804
-38.2486
-38.1204
-38.1204
14.0583
-122.527
-51.7795
-38.421
-44.5607
-39.8884
-36.5877
-41.4565
-83.0096
-62.6302
-41.2325
-52.1454
-45.6426
-48.0025
-57.4926
-144.313
-53.9695
-38.9647
-28.1093
-37.0998
-21.0775
-60.8568
-31.4114
-28.974
-56.7462
-54.0035
-38.9342
-36.9123
-60.8296
-28.976
-33.6228
-45.6874
-36.8189
-35.7894
-43.0283
-48.0406
-71.1512
-47.4297
-33.4992
-45.6545
-35.9307
-48.0506
-61.0569
-60.9533
-54.3176
11.2618
200.106
-33.8886
-34.1553
-36.6882
-78.1428
-38.446
-38.3934
-36.4073
-35.796
-26.8441
-68.6529
-149.66
-81.8387
-38.0558
-31.0925
-36.5707
-69.589
-29.1915
-80.9352
-39.9875
-32.2523
-41.2016
-152.418
-64.7448
-80.6888
-31.0012
-38.0554
-36.5107
-29.1851
-69.2511
-81.1401
-32.2449
-39.956
-41.2375
-44.6568
-37.1079
-44.7582
-38.2766
-47.2358
-32.2921
-34.4918
-40.145
-62.1259
-46.6269
-52.9333
-86.0932
-29.9678
-37.5607
-44.0845
-46.8208
-44.4196
-38.3856
-36.5651
-45.1342
-45.6494
-40.4553
-33.3301
-34.6612
-61.9821
-86.0971
-46.5766
-53.0634
-29.9751
-46.8453
-37.6185
-44.0413
-90.2373
150.432
-79.5277
176.536
-60.0815
-54.8097
-39.3449
-29.6418
-33.0679
-23.8242
-38.1874
-37.1717
-18.2416
49.3445
-60.288
-18.3798
-33.5665
-28.892
-40.2015
-36.7839
-90.5348
154.609
-59.996
-54.8833
-39.2587
-29.6209
-38.1134
-37.047
-60.2015
-18.3302
-40.1484
-36.7828
-32.9993
-36.2183
-56.7524
-39.4074
-43.2539
-36.8156
-27.0326
-31.9178
-38.6473
-42.2322
-34.5159
-65.8444
-15.0489
-100.674
-60.2442
-40.1391
-33.4904
-36.2822
-56.5947
-39.614
-27.2791
-31.8958
-34.7024
-65.886
-94.078
-54.0301
-59.0707
-84.2077
-94.2759
-83.8629
-58.9172
-53.531
-81.2395
-81.9457
-44.2616
-44.0195
-23.2131
-30.1799
-30.1664
-23.2705
128.113
60.2598
68.4816
129.481
-38.5587
-27.7997
-31.0282
-41.4861
-38.7941
-41.7067
-27.2812
-28.8339
-36.7338
-36.6309
-37.4525
-37.4419
-82.2869
-54.8078
-54.663
-82.2919
-42.6755
-38.5997
-41.1697
-25.2682
-42.1325
-25.2372
-41.1383
-38.4957
-46.5022
-45.7115
-34.5549
-34.151
-40.922
-34.5606
-34.5602
-40.9267
-28.8015
-28.7321
-30.6508
-30.6687
-57.8048
-175.748
-117.543
-38.463
-33.0325
-37.9067
-57.2909
-18.4318
-94.2479
-45.8428
-38.0414
-38.2857
-169.482
-57.7202
-117.36
-32.9906
-38.4067
-37.8149
-18.5305
-57.7945
-93.541
-38.2567
-45.8945
-38.2297
-43.9006
-37.6803
-43.1471
-38.3085
-42.5265
-31.1015
-34.1717
-35.8463
-53.9999
-46.7556
-54.2313
-74.3792
-34.8592
-38.5
-41.7772
-42.8975
-42.734
-38.4267
-37.55
-43.469
-44.4148
-35.9225
-31.4169
-34.4512
-53.9614
-74.4173
-46.7215
-54.3356
-34.8793
-42.8968
-38.5435
-41.8215
-30.7656
-81.3628
-130.151
84.3698
-144.922
-143.925
-102.054
38.3769
-64.8322
-47.9594
-58.9593
-54.594
-38.6782
-39.7574
-40.3715
-31.3107
-29.0916
-29.092
-31.9563
-24.4477
-36.1615
-42.8974
-37.7909
-36.833
-26.185
-26.173
-25.7547
1.65232
-65.6329
-61.4668
-60.7961
-40.7189
-31.6503
-31.6491
-32.4737
-30.5426
-38.8829
-26.29
-32.0444
-37.4774
-30.534
-79.9961
-130.482
85.4907
-65.0409
-47.7658
-58.9171
-54.8512
-38.7249
-39.7188
-40.337
-31.2927
-36.0534
-42.7766
-37.7155
-36.7407
-65.6614
-61.4159
-60.7319
-40.6605
-38.8432
-26.2994
-32.0511
-37.4651
-34.6161
-33.5898
-33.2091
-35.8086
-46.1695
-46.477
-55.7888
-41.9596
-37.1482
-37.1657
-39.3953
-37.5776
-35.3152
-36.1976
-24.9074
-33.0649
-42.1162
-43.0186
-40.8349
-40.1888
-51.406
-46.3733
-42.6829
-57.0493
-72.3964
-72.3895
-42.535
-93.5172
-47.1206
-47.1228
-52.8683
-43.3681
-35.1514
-33.6112
-33.4011
-35.9495
-46.1611
-46.4698
-55.58
-42.0891
-35.5599
-36.29
-24.6142
-33.198
-51.5269
-46.4569
-42.8353
-57.0214
-71.6677
-60.7882
-60.6828
-56.8412
-71.626
-60.6857
-60.5772
-56.6666
-64.2138
-54.5713
-54.6671
-47.7692
-4.34848
4.42626
4.41792
12.1773
196.552
199.858
205.804
199.191
-33.9365
-36.9633
-30.2985
-34.4506
-34.2153
-37.1794
-30.5874
-34.7115
-36.581
-36.5247
-37.3458
-36.5613
-75.6502
-90.2948
-68.1315
-75.6646
-39.2045
-38.3759
-38.4237
-39.0355
-39.1444
-38.2509
-38.3967
-38.8695
-34.4301
-36.7454
-36.627
-41.3777
-34.4841
-36.0205
-36.0202
-37.6784
-27.419
-24.7848
-27.748
-27.3969
-130.489
120.691
-105.481
24.8948
-93.3528
-82.1876
-38.3474
-31.2539
-32.8253
-28.0901
-37.5561
-33.9374
-119.477
55.7474
-43.3262
7.78483
-82.3534
-42.4874
-42.9755
-32.0508
-32.8506
-31.4043
-41.0914
-36.9078
-108.544
29.5612
-129.762
121.293
-94.6267
-82.6733
-32.7837
-28.0343
-38.1573
-31.2281
-37.4819
-33.9902
-43.3146
7.98702
-119.552
56.3951
-82.2052
-42.3918
-32.8495
-31.3855
-42.9083
-32.0428
-41.0333
-36.9138
-51.4009
-44.4421
-37.5885
-36.6135
-51.1217
-40.9964
-40.6613
-37.5827
-46.6121
-44.0492
-30.6712
-36.3419
-27.1619
-34.1253
-39.286
-42.1864
-62.6033
-64.411
-53.5929
-44.0271
-41.5825
-66.74
-54.2817
-88.5578
-27.3273
-37.971
-37.4663
-33.1908
-43.9372
-49.2228
-50.9867
-43.7305
-50.4271
-44.5487
-40.8027
-37.564
-37.8858
-36.6851
-50.6598
-41.3297
-45.9598
-43.3435
-39.2112
-41.9226
-31.1286
-36.5536
-27.351
-34.5115
-62.4532
-64.5871
-54.266
-88.8693
-53.4814
-44.2228
-41.7971
-66.806
-27.2937
-37.9645
-50.9972
-43.7355
-37.8265
-33.1506
-43.4227
-49.4308
-92.2411
-87.0967
169.856
161.282
-80.2031
-80.5173
167.833
167.212
-72.6382
-53.2704
-64.9327
-48.1945
-38.8641
-40.1623
-29.0353
-30.2323
-33.8994
-33.4428
-26.2846
-26.2469
-39.8951
-37.7932
-40.347
-35.3151
-16.6418
-16.6564
70.8474
68.6647
-58.9855
-68.8274
-19.4172
-16.3947
-33.5609
-33.5579
-29.5855
-29.5953
-40.4115
-26.2169
-38.5427
-35.7967
-92.3117
-87.936
148.712
160.586
-72.616
-53.0731
-65.306
-48.2671
-40.1067
-38.7555
-29.003
-30.2153
-39.8328
-37.7266
-40.212
-35.1645
-68.737
-58.9109
-16.3777
-19.3455
-25.1578
-40.364
-35.7959
-38.5332
-36.6402
-30.8937
-36.2323
-36.5465
-55.345
-57.6865
-39.3874
-40.4041
-43.7168
-43.4474
-36.8354
-36.7372
-27.1814
-27.1972
-37.99
-27.1623
-38.3587
-38.4825
-43.7545
-43.4178
-30.2671
-37.5353
-72.898
-60.0528
-14.6353
-14.648
-99.6039
-99.6097
-59.2816
-59.2804
-40.1688
-40.1703
-37.1149
-31.1215
-36.2175
-36.4739
-57.5433
-55.1138
-39.5897
-40.698
-27.4511
-27.3622
-37.666
-27.2432
-37.6717
-30.5966
-60.0538
-72.8671
-125.129
-71.7724
-72.9558
-130.617
-48.3903
-54.9258
-55.4747
-50.7006
-52.5521
-60.6588
-57.8817
-54.2586
-116.645
-124.334
-70.1997
-67.7017
-122.701
-130.65
-72.8767
-71.7641
-116.265
-67.6509
-70.1507
-124.838
-52.4839
-54.1242
-57.7548
-60.5859
-45.9809
-50.5556
-55.259
-54.6229
-110.564
-103.384
-64.5357
-64.8975
-111.723
-65.1995
-64.7276
-105.554
-41.4332
-39.7996
-47.9246
-48.6992
-41.3016
-48.5308
-47.9269
-39.6894
-45.2571
-39.0152
-7.63448
-32.9716
-73.7052
-42.591
6.42116
-50.343
-73.5386
-50.3502
6.4261
-42.6696
-45.1954
-32.941
-7.62066
-38.9856
46.3128
82.9107
196.24
11.8671
27.9639
3.14808
198.499
112.83
28.2427
114.637
200.302
3.24262
46.8737
12.0468
199.178
88.9508
-39.811
-36.1509
-36.9077
-42.2358
-30.3887
-24.9048
-30.4527
-31.0313
-42.2158
-41.3143
-30.5392
-28.7204
-44.2302
-43.1302
-37.7742
-43.0968
-39.8715
-42.3737
-37.0824
-36.5207
-44.6899
-43.0981
-37.964
-43.1943
-42.5713
-28.0938
-30.8139
-41.182
-30.7261
-31.3781
-30.7639
-25.3883
-37.56
-37.5738
-36.4491
-36.0438
-37.5897
-36.0488
-36.4588
-37.5458
-36.868
-40.1385
-37.1856
-36.0068
-37.0391
-35.872
-37.1513
-40.6422
-71.0445
-61.7039
-87.6673
-92.4413
-46.229
-52.6139
-66.0207
-52.8888
-46.1205
-52.9962
-66.022
-52.619
-71.1145
-92.434
-87.6771
-61.763
-35.5856
-40.6761
-39.4796
-33.4364
-37.9221
-39.2871
-38.6822
-37.0714
-43.8437
-41.083
-39.8831
-41.5198
-34.0231
-32.5769
-36.8974
-14.8292
-36.1284
-33.6478
-39.4092
-40.5345
-34.0295
-14.5355
-36.6285
-32.6571
-43.8075
-41.4854
-39.8435
-41.0561
-37.8736
-36.981
-38.58
-39.1645
-50.4714
-40.8133
-41.1783
-41.6153
-49.4791
-41.5076
-41.0165
-40.6658
-35.0025
-32.2828
-34.4395
-34.6608
-34.9828
-34.6866
-34.7524
-32.2836
-39.8869
-37.1689
-37.8537
-43.1852
-35.164
-32.4483
-34.6155
-37.5592
-35.1956
-37.5542
-34.6154
-32.4479
-39.8871
-43.1866
-37.8541
-37.1559
-31.6185
-26.6128
-25.9783
-31.106
-31.5717
-31.0851
-25.945
-26.554
-33.3537
-30.9612
-28.5183
-31.5969
-33.3588
-31.5985
-28.5348
-30.9675
-82.8213
-174.678
-135.667
-38.7156
-34.3961
-38.2568
-53.1044
-13.7499
-82.0353
-49.5758
-44.0563
-36.1505
-173.949
-82.6696
-135.477
-34.4353
-38.6635
-38.1892
-14.0759
-53.6361
-82.888
-43.9906
-49.597
-36.1362
-39.7597
-38.5654
-41.6256
-38.2395
-39.1301
-31.9538
-33.6061
-30.4912
-55.0991
-51.4591
-54.4458
-64.5444
-36.9991
-38.4534
-40.3701
-41.3928
-40.0349
-38.3053
-38.5103
-41.5395
-39.0584
-30.4516
-32.6733
-34.0644
-55.1433
-64.5687
-51.4393
-54.5141
-37.0199
-41.385
-38.4896
-40.4097
-48.5037
-69.8643
-152.84
50.4069
-141.808
-142.347
-117.555
-80.1986
-59.0117
-50.2856
-57.848
-53.6054
-38.7117
-39.5288
-39.7335
-32.3454
-28.2678
-28.2536
-32.053
-26.3634
-37.0633
-39.0443
-37.4081
-36.192
-22.601
-22.5926
-27.2178
-5.04009
-61.7485
-61.3012
-62.3511
-55.1844
-31.4874
-31.4865
-32.0836
-30.7277
-33.8244
-26.9634
-26.025
-35.4359
-48.2122
-69.0104
-152.435
50.3265
-59.1327
-50.2547
-57.7991
-53.7614
-38.6845
-39.5019
-39.7032
-32.328
-36.932
-38.9201
-37.3172
-36.0832
-61.7356
-61.2649
-62.3022
-55.1498
-33.7986
-26.9662
-26.0068
-35.4113
-34.4973
-34.2032
-33.593
-34.0158
-45.7683
-45.7246
-49.3223
-43.7731
-36.9494
-36.9609
-36.7592
-38.0641
-35.5745
-36.0323
-33.3267
-34.3853
-42.6836
-43.5256
-42.6859
-40.8994
-49.3404
-47.2311
-46.4541
-54.3974
-71.9014
-71.9198
-59.6172
-82.2977
-47.3
-47.2997
-49.8184
-45.0475
-34.7428
-33.8375
-33.4494
-34.6527
-45.7651
-45.6879
-49.437
-43.8509
-35.7588
-36.1431
-33.5718
-34.4836
-49.4857
-47.2346
-46.5386
-54.4727
-65.5793
-61.0297
-60.9615
-58.3202
-65.5143
-60.9214
-60.8578
-58.1782
-58.7464
-54.3205
-54.3624
-50.7815
3.03901
9.88202
9.8641
15.5783
198.635
199.996
200.137
199.548
-33.7168
-35.4459
-31.994
-34.1136
-34.0123
-35.7383
-32.3374
-34.3587
-36.6468
-36.5418
-36.9537
-36.6492
-77.561
-84.1249
-72.8883
-77.5664
-38.7149
-38.4704
-38.4411
-38.5338
-38.7309
-38.3188
-38.3927
-38.3825
-35.2626
-36.4942
-36.4354
-37.7473
-35.1428
-35.8427
-35.8428
-36.6565
-26.9934
-25.745
-27.3466
-26.9886
-52.9656
-46.6297
-140.307
66.1587
-152.663
-142.995
-123.181
-71.3916
-99.0186
-72.0032
-90.9685
-81.3446
-38.1872
-37.9938
-38.5367
-32.3102
-32.1771
-29.9065
-32.0224
-29.7242
-36.3276
-36.3309
-37.2835
-34.0652
-63.0422
-76.1857
-130.378
20.2945
-29.172
-33.3978
-56.0386
-6.5173
-87.9882
-71.5435
-83.1206
-65.7019
-42.2739
-40.1589
-43.3681
-33.4119
-35.7487
-31.6648
-31.8887
-31.9076
-39.7726
-40.7731
-42.9176
-38.9191
-157.794
-145.784
-121.957
-62.8548
-53.0128
-46.6267
-139.966
66.5583
-101.092
-72.029
-92.3958
-81.7859
-31.9503
-29.8903
-31.9429
-29.6972
-38.1233
-38.0155
-38.6379
-32.2802
-36.2385
-36.2417
-37.2084
-33.9969
-29.2094
-33.3947
-56.0685
-6.49437
-63.5673
-74.8884
-130.752
20.4597
-87.2956
-71.6551
-83.1862
-65.436
-35.7623
-31.6627
-31.8932
-31.9007
-42.3704
-40.145
-43.3303
-33.3815
-39.793
-40.7686
-43.3527
-38.9235
-46.9614
-45.5254
-44.7646
-45.216
-36.9906
-36.8187
-37.1588
-36.3323
-43.9108
-45.6626
-47.751
-42.7071
-38.5054
-37.56
-38.8722
-38.1037
-42.2977
-49.6585
-46.6404
-44.8169
-31.7552
-32.1084
-30.9954
-33.6933
-34.287
-34.9725
-30.5074
-34.817
-39.2097
-40.6984
-39.3173
-41.0698
-58.5715
-62.0943
-63.0932
-63.9333
-46.6813
-46.6634
-48.8967
-45.1597
-53.9048
-52.117
-47.2836
-61.9014
-90.0475
-76.2387
-70.5125
-90.9154
-32.5317
-26.9254
-28.3738
-35.3698
-38.7518
-36.3651
-38.981
-35.1817
-42.9626
-45.442
-44.0112
-47.7815
-44.5559
-47.2778
-48.5607
-45.238
-46.0884
-45.3667
-43.7543
-45.5195
-38.5864
-37.5764
-39.131
-38.1782
-36.8845
-36.3799
-36.9506
-36.327
-44.4959
-45.7222
-48.315
-42.7925
-43.2361
-48.2851
-45.435
-44.1785
-39.4781
-41.0006
-39.3665
-41.2228
-32.3538
-33.6082
-32.0265
-34.358
-34.5355
-35.1709
-31.0217
-35.0426
-58.4216
-62.0599
-62.9541
-63.8984
-90.0841
-76.2099
-70.4884
-90.9938
-46.5789
-46.6594
-48.8232
-45.1052
-54.0032
-52.2562
-47.4091
-61.9784
-32.5149
-26.9847
-28.4817
-35.3562
-44.5634
-47.2926
-48.5856
-45.254
-38.8012
-36.5216
-39.2898
-35.1636
-42.9807
-45.2915
-43.8737
-47.801
-106.018
-80.7292
-91.1806
-88.6198
116.36
195.722
154.008
150.916
-91.6257
-70.9366
-79.5903
-79.7747
135.771
195.241
172.98
172.736
-59.6495
-60.4867
-65.4756
-56.1571
-54.7729
-54.7324
-59.2144
-51.1922
-40.1081
-39.4076
-39.0763
-39.6754
-30.552
-28.6152
-29.2713
-29.9809
-32.5175
-33.6844
-33.1929
-33.1103
-24.0041
-24.0562
-24.1747
-24.153
-38.0162
-38.2948
-38.7944
-38.0987
-37.1908
-37.0672
-38.5904
-36.0722
-22.0116
-12.3827
-18.0051
-18.0061
2.04569
166.126
66.4129
65.2756
-60.3467
-60.4466
-58.2886
-63.3986
-25.1824
-5.28086
-16.6634
-17.1677
-32.7276
-34.1246
-33.5359
-33.5338
-29.7501
-28.2616
-29.1075
-29.1123
-37.6511
-38.552
-39.5014
-35.3414
-37.3587
-36.3365
-37.5766
-36.3903
-106.226
-80.3054
-91.1692
-89.6372
120.315
196.398
154.721
150.13
-59.579
-60.3912
-65.4362
-56.0233
-55.0504
-54.8698
-59.4764
-51.5347
-40.0408
-39.359
-39.5967
-38.9939
-30.5372
-28.5875
-29.2408
-29.9629
-37.9335
-38.2454
-38.7119
-38.0554
-37.0811
-36.9169
-38.452
-35.9354
-60.272
-60.3506
-63.3115
-58.1683
-25.1934
-5.25993
-17.111
-16.638
-37.7287
-38.4847
-35.3815
-39.4339
-37.3538
-36.3367
-36.39
-37.5752
-32.9515
-34.2123
-34.2459
-32.0083
-35.9301
-36.5017
-36.1689
-36.3438
-56.1835
-56.9198
-56.0456
-57.175
-40.6884
-38.1822
-39.2926
-39.7014
-41.6982
-45.1907
-43.4472
-43.2648
-37.1399
-36.6125
-36.8165
-36.7774
-24.473
-28.7283
-27.0636
-27.2458
-32.2381
-36.7522
-34.7591
-28.9507
-39.6248
-37.9137
-38.47
-38.5577
-41.0867
-45.5738
-42.3995
-42.2218
-35.6133
-34.5617
-32.0868
-36.2074
-59.7757
-71.8103
-69.0351
-62.7566
-33.6976
2.96598
-15.0172
-15.056
-101.126
-96.6878
-100.681
-100.672
-56.5981
-63.6292
-60.0817
-60.0825
-41.6088
-38.8582
-40.1286
-40.1293
-33.638
-34.3686
-34.8951
-32.0551
-36.0145
-36.3701
-36.3478
-36.2891
-55.8581
-56.7171
-57.0521
-55.8856
-40.8316
-38.3834
-39.4677
-39.8122
-24.6743
-29.0021
-27.4561
-27.2879
-32.3008
-36.687
-34.8501
-29.0927
-36.3852
-34.8104
-36.4362
-32.24
-59.8511
-71.8337
-62.7865
-69.0826
-113.495
-94.1429
-93.6652
-81.4101
-53.5167
-53.4446
-52.5515
-54.4546
-60.6481
-60.216
-59.6865
-58.3137
-96.2885
-83.1453
-85.8828
-75.2342
-113.96
-94.6708
-93.8228
-81.4465
-96.2079
-82.9263
-85.8034
-75.0001
-60.4983
-60.0437
-59.594
-58.1518
-52.8016
-52.3914
-52.2001
-54.1294
-92.554
-81.9495
-80.6203
-72.0321
-93.8487
-82.5222
-81.1431
-72.4925
-44.3904
-42.639
-46.1227
-43.9647
-44.3393
-42.5989
-45.8536
-43.8235
-29.8033
-26.6487
-16.9891
-18.2891
-47.2883
-42.2387
-21.3383
-18.4559
-47.2768
-42.2084
-21.314
-18.4656
-29.9162
-26.5684
-17.8838
-18.2489
126.373
106.808
156.523
153.503
60.7647
13.4731
126.278
59.4147
14.4397
62.8869
59.2054
124.115
107.994
128.075
152.554
155.769
-37.7825
-39.6532
-37.6103
-39.2851
-29.1114
-27.7866
-29.8304
-27.2414
-34.6894
-39.241
-27.0147
-28.5754
-43.0149
-41.9803
-41.016
-39.7901
-38.0388
-39.95
-37.6551
-39.3861
-43.1487
-42.1426
-41.2786
-39.9691
-30.7637
-37.5286
-27.162
-28.8725
-29.8064
-29.0449
-30.0178
-27.4727
-36.6086
-37.1322
-36.4476
-36.7116
-37.0429
-36.6042
-36.6251
-36.2243
-38.0951
-36.8241
-37.9158
-36.8618
-36.719
-38.1741
-36.9582
-38.0112
-71.8949
-87.2531
-77.6686
-93.7062
-51.4573
-52.7936
-57.6327
-57.4965
-52.7465
-51.3844
-57.4926
-57.3918
-87.2194
-71.9597
-93.7197
-77.6247
-44.983
-34.5674
-43.3226
-40.6817
-38.4
-38.1535
-38.7041
-38.04
-42.6892
-41.7756
-40.7327
-40.9136
-25.8731
-30.527
-19.4875
-25.5716
-44.5885
-34.8994
-42.8469
-40.2154
-25.8879
-30.5363
-19.5796
-25.7143
-42.6467
-41.7223
-40.7081
-40.8769
-38.2826
-38.0688
-38.5885
-37.9164
-46.2351
-43.7093
-44.1272
-45.9693
-45.4785
-43.1886
-43.7727
-45.5635
-33.7756
-34.5263
-35.1389
-34.9287
-33.6118
-34.4126
-34.0639
-34.6963
-40.2204
-42.2573
-39.643
-40.2047
-33.858
-35.4333
-34.0756
-35.5119
-33.852
-35.4352
-34.0754
-35.5112
-40.2185
-42.2621
-39.7958
-40.2128
-30.2811
-28.2504
-29.0494
-27.8709
-28.1425
-30.2415
-27.8232
-29.0108
-31.0901
-31.3128
-30.0619
-30.4278
-31.3439
-31.1091
-30.4453
-30.0746
-110.757
49.4365
-129.865
-38.3385
-121.103
-112.297
-38.3162
-32.5607
-35.9815
-32.0829
-37.8041
-36.8575
-122.364
20.6296
-37.095
19.1225
-106.77
-51.7696
-47.1144
-35.7858
-33.6557
-36.3407
-41.556
-36.6303
-129.834
-36.1405
-110.343
49.6886
-118.862
-112.869
-35.7558
-32.0631
-38.3041
-32.5371
-37.7407
-36.7776
-37.1688
19.4987
-122.606
20.7918
-106.285
-51.0396
-33.7766
-36.3465
-47.1651
-35.7659
-41.492
-36.653
-46.0162
-41.7274
-39.2598
-37.3105
-44.6277
-41.4217
-39.1413
-38.2239
-36.2878
-52.0853
-30.1893
-33.3723
-31.898
-35.0197
-36.9387
-35.4563
-51.8896
-63.2423
-49.4029
-45.2539
-50.1847
-64.3346
-75.5511
-73.219
-34.235
-37.5556
-40.6792
-36.2571
-41.4934
-44.6621
-44.3526
-41.2363
-44.2818
-41.7743
-39.3396
-38.2144
-38.9572
-37.3275
-45.0207
-41.6695
-36.9335
-51.4424
-36.827
-35.7355
-30.4316
-33.0807
-32.1674
-35.3077
-51.8352
-63.1989
-75.5772
-73.2491
-49.3955
-45.0566
-50.3239
-64.4244
-34.2506
-37.5523
-44.3492
-41.2356
-40.8658
-36.2769
-41.6218
-44.6463
-170.326
54.2981
-132.122
21.6995
-130.202
-127.166
80.1124
98.7022
-118.952
-80.4506
-117.365
-79.0051
-101.485
-103.844
62.8647
63.4029
-68.8475
-64.4165
-49.1597
-47.887
-64.5388
-54.1392
-59.2276
-51.257
-39.2529
-32.2246
-40.9186
-32.6764
-39.8674
-41.0751
-31.2456
-31.4019
-32.0671
-27.3224
-32.0285
-27.1824
-32.0288
-32.0161
-24.8954
-24.8863
-36.6611
-34.1817
-41.3134
-42.0474
-38.886
-37.4024
-38.6175
-35.3843
-36.1283
-5.0691
-36.0767
-5.01821
-26.7012
-26.6912
1.9975
1.99082
-67.8695
-54.5154
-62.3099
-60.1644
-60.7825
-62.9067
-37.6447
-44.6268
-32.1352
-31.3602
-32.1356
-31.3576
-32.4577
-32.4571
-30.5113
-30.5134
-40.1369
-39.0987
-19.6767
-32.1793
-39.875
-20.7036
-38.1089
-37.0997
-170.107
54.4939
-132.066
22.6051
-130.406
-127.846
100.132
90.6039
-68.9403
-64.6838
-49.007
-47.7724
-64.5403
-54.0314
-59.3985
-51.4233
-39.2321
-32.1958
-40.8653
-32.6683
-41.0567
-39.8103
-31.2275
-31.3858
-36.5615
-34.1169
-41.2195
-41.8644
-38.7836
-37.3226
-38.4864
-35.3406
-67.8649
-54.4787
-62.2441
-60.1376
-62.8419
-60.7207
-44.6219
-37.6243
-40.1908
-39.0845
-19.561
-32.1964
-20.8338
-39.7778
-37.095
-38.0888
-35.0285
-34.9293
-31.9679
-33.9638
-34.3548
-32.1764
-36.0581
-35.7933
-50.3964
-43.7403
-49.0893
-45.5577
-55.4229
-54.8408
-41.9203
-42.4144
-37.1512
-38.2767
-37.3766
-38.1127
-39.519
-39.4532
-37.5568
-37.5398
-31.1566
-34.4672
-36.0287
-34.3961
-24.525
-26.5393
-33.2744
-32.7887
-41.9872
-41.0059
-40.7583
-42.3116
-40.489
-40.8552
-40.3875
-40.2054
-49.0661
-58.1275
-45.3551
-50.747
-39.3224
-43.8718
-59.1703
-54.7404
-56.1222
-82.0748
-56.105
-82.1782
-41.369
-41.3517
-92.8477
-92.8628
-49.6862
-45.1222
-49.6885
-45.1193
-52.7981
-52.8053
-43.1994
-43.225
-35.3418
-35.2764
-32.3718
-34.227
-34.9048
-32.4598
-36.0099
-35.9722
-50.387
-43.8193
-48.9682
-45.5877
-54.9262
-55.1475
-42.0504
-42.5041
-31.7205
-34.6532
-35.8729
-34.4589
-26.2052
-24.8056
-33.4922
-32.8948
-49.2449
-58.2157
-45.4552
-50.7827
-44.1488
-41.5594
-54.8713
-59.2549
-72.3674
-70.9924
-65.9341
-57.4219
-58.4805
-64.7167
-56.3031
-57.3308
-72.2692
-70.9778
-65.8509
-57.2708
-64.639
-58.3503
-57.1781
-56.105
-64.0851
-64.1578
-58.9279
-50.9517
-59.0931
-51.0233
-47.6889
-47.6841
-5.17532
-5.17181
-2.21176
8.34637
8.3216