# vtk DataFile Version 2.0
tri_press
ASCII
DATASET UNSTRUCTURED_GRID
POINTS 3682 float
-0.882073 0.335 -1.955
-0.792411 0.485 2.085
-0.804718 0.975 -2.055
-0.705 1.475 1.79792
0.882073 0.335 -1.955
0.792415 0.485 2.085
0.804722 0.975 -2.055
0.705 1.475 1.79792
-0.790581 0.446605 -0.608333
-0.82955 0.427748 0.738333
-0.771852 1.14204 -0.770694
-0.739655 1.30975 0.513613
0.790583 0.446604 -0.608333
0.829525 0.427776 0.738333
0.772153 1.14234 -0.770694
0.739654 1.30975 0.513613
-1.67361 -0.122474 -2.92193
-1.66588 -0.0183349 -1.86958
-1.60108 0.0568792 -0.521297
-1.59268 0.0337241 0.839533
-1.57724 0.0628356 2.18887
-1.57119 0.140441 3.2464
-1.57389 0.235617 4.29436
-1.67463 0.223173 -2.99435
-1.66801 0.333664 -1.94881
-1.58834 0.443415 -0.612661
-1.58419 0.458639 0.729097
-1.55714 0.516793 2.06644
-1.55886 0.596325 3.12309
-1.56772 0.686763 4.17308
-1.6422 0.898651 -3.12169
-1.61661 1.00243 -2.07356
-1.56018 1.16668 -0.77993
-1.51875 1.31923 0.509285
-1.48896 1.46044 1.80411
-1.52165 1.53341 2.86335
-1.55034 1.60322 3.92339
-1.60156 2.00041 -3.35958
-1.58467 2.11889 -2.32079
-1.55892 2.31256 -1.04738
-1.53386 2.53174 0.212597
-1.52169 2.72159 1.48666
-1.52942 2.83083 2.52681
-1.54498 2.91355 3.58004
-0.861608 -0.119493 -2.92596
-0.866692 -0.0116117 -1.87544
-0.805092 0.0620348 -0.520509
-0.809851 0.0107191 0.847416
-0.801352 0.0358363 2.20265
-0.800114 0.122647 3.25575
-0.803762 0.225089 4.29977
-0.86511 0.221076 -2.99559
-0.798066 0.582819 3.1308
-0.803071 0.679306 4.17716
-0.838597 0.884615 -3.11398
-0.770106 1.53737 2.86211
-0.792929 1.60456 3.92312
-0.807358 1.98595 -3.35195
-0.796683 2.1028 -2.31239
-0.782724 2.30158 -1.04231
-0.769308 2.53244 0.211989
-0.763568 2.73075 1.48232
-0.771534 2.84005 2.52248
-0.784389 2.92025 3.57689
0.814248 -0.119457 -2.92596
0.828859 -0.0115924 -1.87544
0.79917 0.0620501 -0.52051
0.817517 0.0107431 0.847416
0.789252 0.0358467 2.20265
0.760394 0.122659 3.25575
0.745276 0.225106 4.29977
0.818697 0.221107 -2.99559
0.744854 0.582827 3.1308
0.734992 0.679321 4.17716
0.798202 0.884656 -3.11398
0.715795 1.53737 2.86211
0.722873 1.60457 3.92312
0.78789 1.98604 -3.35195
0.784263 2.10291 -2.31239
0.77028 2.3017 -1.04231
0.753514 2.5325 0.211989
0.741404 2.73079 1.48232
0.736477 2.84007 2.52248
0.734096 2.92028 3.57689
1.64012 -0.122379 -2.92193
1.65082 -0.0182469 -1.86958
1.6054 0.0569543 -0.521297
1.60452 0.0337744 0.839532
1.57629 0.0628669 2.18887
1.54392 0.140472 3.2464
1.52519 0.235656 4.29436
1.64685 0.223269 -2.99435
1.67291 0.333773 -1.94881
1.59699 0.443523 -0.612662
1.59315 0.458684 0.729097
1.56203 0.516816 2.06644
1.5263 0.59635 3.12309
1.5123 0.686799 4.17308
1.6207 0.898772 -3.12169
1.62497 1.00259 -2.07356
1.56849 1.16698 -0.77993
1.52531 1.31929 0.509285
1.49271 1.46046 1.80411
1.48749 1.53344 2.86335
1.4927 1.60325 3.92339
1.58714 2.00058 -3.35958
1.57792 2.11909 -2.32079
1.5528 2.31277 -1.04738
1.52437 2.53187 0.212596
1.50506 2.72166 1.48666
1.49951 2.83089 2.52681
1.49952 2.91361 3.58004
-0.820653 0.655 -1.98226
0 0.332533 -1.95747
-0.828847 0.398282 -1.28167
-0.803735 0.98 1.99649
1.99676e-06 0.484048 2.08595
-0.818475 0.44888 1.41167
1.99676e-06 0.976069 -2.05607
-0.786024 1.05626 -1.41285
0 1.47462 1.79754
-0.723392 1.39344 1.15577
0.820656 0.655 -1.98226
0.828823 0.398307 -1.28167
0.803737 0.98 1.99649
0.818448 0.44891 1.41167
0.786022 1.05625 -1.41285
0.72339 1.39344 1.15577
-0.790906 0.456336 0.065
-0.824791 0.794323 -0.689513
1.23193e-06 0.333088 -0.608333
-0.818132 0.868748 0.625973
-1.27403e-05 0.278688 0.738333
-0.755939 1.22608 -0.12854
0.000150375 1.2845 -0.770694
-5.1181e-07 1.50353 0.513613
0.790912 0.456332 0.065
0.824778 0.794471 -0.689513
0.818131 0.868761 0.625973
0.755944 1.22608 -0.12854
-0.897001 0.724661 -1.34726
0.897 0.724736 -1.34726
6.15967e-07 0.32024 -1.28167
7.61858e-05 1.06396 -1.41285
9.98378e-07 0.655 -2.10384
-0.82146 0.831535 -0.03177
0.821453 0.831616 -0.03177
-5.75417e-06 0.328901 0.065
7.49315e-05 1.50353 -0.12854
-0.816725 0.924374 1.28372
0.816677 0.924381 1.28372
-5.37176e-06 0.398373 1.41167
-2.55905e-07 1.50361 1.15577
9.98378e-07 0.98 2.02324
-0.839546 0.495 -1.95681
-0.441036 0.331068 -1.95893
-0.869553 0.352548 -1.61833
-0.782872 0.7325 2.02554
-0.396205 0.484025 2.08598
-0.791739 0.480644 1.74833
-0.817194 0.815 -2.02314
-0.402358 0.976075 -2.05607
-0.796152 1.01641 -1.73392
-0.755651 1.2275 1.89849
-0.3525 1.47482 1.79774
-0.715291 1.43531 1.47684
0.441036 0.331066 -1.95893
0.839547 0.495 -1.95681
0.869533 0.352568 -1.61833
0.396209 0.484072 2.08593
0.782884 0.7325 2.02555
0.791689 0.480697 1.74833
0.402362 0.976063 -2.05606
0.817196 0.815 -2.02314
0.796108 1.01636 -1.73392
0.3525 1.47483 1.79775
0.755638 1.2275 1.89847
0.715284 1.43531 1.47684
-0.82735 0.404807 -0.945
-0.790725 0.451489 -0.271667
-0.819289 0.614662 -0.648923
-0.417684 0.345058 -0.608333
-0.824334 0.437993 1.075
-0.791063 0.461207 0.401667
-0.896002 0.612168 0.682153
-0.4433 0.296182 0.738333
-0.77011 1.09032 -1.09177
-0.805313 0.971677 -0.730104
-0.764014 1.18418 -0.449617
-0.421474 1.28451 -0.770694
-0.731522 1.35159 0.83469
-0.781194 1.0904 0.569793
-0.747801 1.26792 0.192537
-0.418285 1.50355 0.513613
0.827348 0.40481 -0.945
0.415405 0.349621 -0.608333
0.790733 0.451483 -0.271667
0.8193 0.614728 -0.648923
0.824326 0.438003 1.075
0.414395 0.353955 0.738333
0.791074 0.461199 0.401667
0.895998 0.612184 0.682153
0.770088 1.0903 -1.09177
0.421687 1.28449 -0.770694
0.8053 0.971822 -0.730104
0.764028 1.18419 -0.449617
0.731522 1.35159 0.83469
0.418284 1.50355 0.513613
0.781192 1.0904 0.569793
0.747803 1.26792 0.192537
-0.897222 0.689831 -1.66476
-0.410326 0.655 -2.10384
3.07983e-07 0.324396 -1.61957
4.99189e-07 0.493766 -2.05536
-0.898508 0.561472 -1.31446
-0.414423 0.325659 -1.28167
-0.808995 0.952187 1.6401
-0.401867 0.98 2.02324
-1.6875e-06 0.430276 1.74881
1.49757e-06 0.732024 2.02559
-0.89724 0.686627 1.34769
-0.40924 0.389588 1.41167
3.90913e-05 1.03529 -1.73446
1.49757e-06 0.815534 -2.07863
-0.895449 0.89046 -1.38005
-0.392974 1.06396 -1.41285
-1.27953e-07 1.50361 1.47665
4.99189e-07 1.22731 1.94185
-0.768807 1.15891 1.21974
-0.361696 1.50361 1.15577
0.897222 0.689868 -1.66476
0.410328 0.655 -2.10384
0.898507 0.561521 -1.31446
0.414412 0.329838 -1.28167
0.808995 0.95219 1.6401
0.401869 0.98 2.02324
0.89724 0.686645 1.34769
0.409221 0.394886 1.41167
0.895449 0.890495 -1.38005
0.393049 1.06396 -1.41285
0.768807 1.15891 1.21974
0.361695 1.50361 1.15577
-0.81409 0.639982 0.016615
-0.418762 0.346007 0.065
-0.849378 0.759492 -1.01839
-0.823125 0.812929 -0.360642
9.2395e-07 0.31714 -0.945
-2.26112e-06 0.330891 -0.271667
-0.819845 0.850142 0.297102
-0.899943 0.896561 0.954845
-9.24723e-06 0.326516 0.401667
-9.05602e-06 0.283135 1.075
-0.793698 1.03131 -0.080155
-0.447304 1.50355 -0.12854
0.00011328 1.09248 -1.09177
0.000112653 1.5023 -0.449617
3.72098e-05 1.50353 0.192537
-3.83858e-07 1.50361 0.83469
0.814095 0.640018 0.016615
0.415177 0.353169 0.065
0.849133 0.759603 -1.01839
0.823115 0.813044 -0.360642
0.819841 0.850189 0.297102
0.899943 0.896571 0.954845
0.793682 1.03134 -0.080155
0.447381 1.50355 -0.12854
-0.895418 0.528236 -1.64155
-0.836321 0.590968 -0.981693
-0.811822 0.929321 -1.05508
-0.895702 0.85273 -1.69934
0.89541 0.528261 -1.64155
0.895702 0.852747 -1.69934
0.811813 0.92945 -1.05508
0.836065 0.591029 -0.981693
-0.42773 0.329231 -1.61895
0.427724 0.333416 -1.61895
0.404852 0.332038 -0.945
-0.404856 0.325393 -0.945
-0.397666 1.03531 -1.73419
-0.389412 1.09248 -1.09177
0.3896 1.09248 -1.09177
0.397706 1.03531 -1.73419
-0.425681 0.494383 -2.05565
-0.406342 0.815267 -2.07863
0.406345 0.815267 -2.07863
0.425682 0.494383 -2.05565
-0.813651 0.628842 -0.316154
-0.815048 0.646074 0.349384
-0.787816 1.06104 0.244819
-0.799561 1.00152 -0.405129
0.813643 0.6289 -0.316154
0.799546 1.00161 -0.405129
0.787813 1.06106 0.244819
0.815052 0.646098 0.349384
-0.417983 0.346012 -0.271667
0.41473 0.352517 -0.271667
0.414647 0.35384 0.401667
-0.418578 0.345999 0.401667
-0.488526 1.50231 -0.449617
-0.432795 1.50355 0.192537
0.432833 1.50355 0.192537
0.488678 1.50231 -0.449617
-0.897533 0.667438 1.01492
-0.828222 0.709564 1.69422
-0.762308 1.1932 1.55847
-0.775289 1.12408 0.894768
0.897532 0.667457 1.01492
0.775285 1.12408 0.894768
0.762307 1.1932 1.55847
0.828222 0.709573 1.69422
-0.412011 0.371484 1.075
0.411989 0.355709 1.075
0.402715 0.434758 1.74857
-0.402722 0.431559 1.74857
-0.365762 1.50361 0.83469
-0.357098 1.50361 1.47675
0.357097 1.50361 1.47675
0.365761 1.50361 0.83469
-0.399036 0.732262 2.02559
0.399039 0.732262 2.02559
0.377185 1.2274 1.9418
-0.377183 1.2274 1.94179
-0.832278 0.415 -1.92737
-0.661555 0.33106 -1.95894
-0.873484 0.346103 -1.78667
-0.809274 0.60875 2.0769
-0.594308 0.484013 2.08599
-0.791948 0.482949 1.91667
-0.811502 0.895 -2.03961
-0.603538 0.976078 -2.05608
-0.800281 0.995551 -1.89446
-0.731502 1.35125 1.84938
-0.52875 1.47482 1.79774
-0.711008 1.45602 1.63738
0.661555 0.331049 -1.95895
0.832278 0.415 -1.92737
0.873399 0.346188 -1.78667
0.594312 0.484084 2.08592
0.809275 0.60875 2.0769
0.791981 0.48292 1.91667
0.603542 0.97606 -2.05606
0.811531 0.895 -2.03964
0.800262 0.995528 -1.89446
0.52875 1.47483 1.79775
0.731597 1.35125 1.84948
0.711008 1.45602 1.63738
-0.790369 0.444302 -0.776667
-0.790658 0.449042 -0.44
-0.809878 0.528162 -0.628628
-0.625351 0.353395 -0.608333
-0.826077 0.433735 0.906667
-0.79114 0.463644 0.57
-0.888705 0.506994 0.710243
-0.634197 0.366421 0.738333
-0.775531 1.12073 -0.931232
-0.788244 1.05669 -0.750399
-0.768123 1.1633 -0.610155
-0.632211 1.28437 -0.770694
-0.735594 1.33068 0.674152
-0.760912 1.20032 0.541703
-0.743686 1.28879 0.353075
-0.627414 1.50354 0.513613
0.790369 0.444304 -0.776667
0.625354 0.353393 -0.608333
0.790665 0.449036 -0.44
0.809884 0.528195 -0.628628
0.82605 0.433765 0.906667
0.646958 0.340868 0.738333
0.791154 0.463633 0.57
0.88871 0.507006 0.710243
0.77574 1.12094 -0.931232
0.632383 1.28434 -0.770694
0.788216 1.05683 -0.750399
0.768124 1.1633 -0.610155
0.735593 1.33067 0.674152
[...]
POINT_DATA 3682
SCALARS point_scalars float 1
LOOKUP_TABLE default
-107.503
-49.5053
-80.979
-51.1461
-121.497
-47.582
-78.3492
-46.6584
-37.998
-50.3784
-77.6121
-44.055
-37.8783
-48.0011
-77.3344
-43.5744
-59.3191
-125.414
-36.154
-48.143
-49.2049
-49.2154
-49.2337
21.5573
-156.409
-38.4516
-46.8954
-44.3166
-49.2337
-46.4464
-6.53519
-98.9305
-59.9886
-41.8574
-45.7709
-47.2048
-46.0721
-56.5722
-170.952
-129.929
-55.3229
-41.7416
-51.1327
-51.1327
-8.59402
-125.414
-37.6047
-58.3313
-49.6155
-49.0706
-44.1742
91.4771
-46.0802
-46.0802
114.767
-40.6747
-40.1373
-56.5722
-131.155
-79.8116
-56.2784
-42.6385
-52.0165
-52.0165
-18.8398
-133.055
-37.5461
-50.1932
-47.8116
-44.508
-42.3525
89.9506
-42.3525
-42.3525
114.934
-36.8765
-36.1071
-19.3612
-131.18
-79.819
-55.9802
-40.732
-47.211
-47.211
-66.5993
-79.181
-36.0422
-47.0712
-47.3142
-47.2815
-47.1643
17.9805
-154.205
-38.3096
-45.9013
-42.4479
-47.1738
-44.3952
-6.02957
-97.8325
-59.6881
-41.4409
-41.9737
-43.5086
-38.4418
-51.4817
-171.773
-129.083
-54.9823
-39.2528
-46.6645
-46.6645
-42.7635
-236.571
-63.1911
-46.1064
-42.684
-47.8887
-85.3104
-45.7998
-38.7279
-41.8892
-42.933
-63.4251
-42.8573
-47.1224
-45.5992
-40.7579
-32.5101
-44.4431
-46.9743
-33.0679
-44.5074
-55.8979
35.7513
-53.9702
-32.3883
-44.3028
-32.2485
-55.5094
-61.4409
-61.3554
-75.0324
-14.8177
202.794
-39.1231
-38.9172
-37.7638
-86.774
-46.1484
-45.4485
-49.1189
-43.7273
-37.1725
-78.9308
-223.074
-87.0483
-45.9614
-44.418
-43.8558
-90.3805
-81.0231
-68.0268
-45.9343
-43.1594
-42.4904
-223.718
-79.8016
-87.3995
-43.3148
-43.8813
-42.6651
-72.2483
-90.6391
-67.8434
-39.2129
-41.642
-40.578
-52.2189
-34.3573
-39.7924
-45.1177
-46.5969
-29.4777
-26.5093
-49.0606
-41.7903
-55.8824
-66.8838
36.752
-43.0696
-39.9755
-48.0715
-52.022
-52.3212
-45.3731
-34.2803
-39.6534
-46.4936
-46.6359
-29.3453
-25.625
-41.552
36.7075
-55.6529
-66.5443
-42.3982
-51.771
-39.5679
-47.6441
-92.9504
200.594
-103.222
103.264
-62.3745
-72.1087
-44.5285
-39.3303
-44.4126
-40.2133
-47.6251
-49.4986
-51.4496
187.739
-53.3956
-18.7677
-41.5433
-32.7085
-43.7342
-43.5288
-92.5435
200.665
-62.3113
-72.7665
-42.3369
-36.3636
-46.1552
-47.4583
-53.1439
-18.7071
-42.3574
-42.867
-34.5845
-36.5757
-52.1713
-42.2318
-58.0741
-40.6733
-35.5727
-48.7752
-36.8494
-50.4798
-47.2917
-81.5233
9.28743
-144.898
-65.003
-47.5554
-34.3609
-37.0244
-52.0279
-42.0823
-35.1839
-47.5612
-47.0739
-81.3572
-91.5427
-52.1838
-56.2582
-92.2605
-91.0139
-91.9519
-56.1965
-52.1957
-99.0507
-99.9923
-56.8432
-56.777
-54.1988
4.71947
4.7936
-54.147
103.918
185.975
186.016
104.587
-36.9663
-30.7983
-42.3321
-52.9313
-36.8163
-52.6843
-42.0739
-30.386
-39.2857
-39.6268
-36.4167
-35.1453
-137.148
-61.6183
-61.4271
-137.005
-45.8338
-48.3753
-43.6506
-42.2744
-45.0522
-41.5165
-41.3036
-46.7331
-51.214
-51.1456
-44.8119
-45.0791
-46.7719
-42.5285
-41.0795
-46.4147
-41.0154
-39.6809
-32.5877
-37.5872
-114.666
-184.337
-111.045
-46.4722
-46.4051
-42.0761
-100.749
-47.0947
-96.696
-46.7744
-46.7901
-42.5451
-177.668
-126.019
-117.881
-44.6539
-44.4078
-40.8293
-48.236
-100.883
-96.5529
-42.168
-42.4286
-39.8212
-40.619
-35.6253
-38.5872
-42.4256
-46.6653
-23.7647
-36.3608
-52.5936
-72.627
-64.7897
-72.3418
15.1367
-44.0095
-42.1235
-45.5272
-49.0839
-40.551
-42.2551
-35.5338
-38.4497
-46.4747
-50.256
-24.5838
-35.1088
-72.2944
15.0292
-64.5532
-72.0393
-43.4466
-48.7093
-41.6998
-45.0834
-42.8875
-79.9105
-140.933
176.431
-231.229
-234.672
-133.205
62.0438
-70.4358
-53.7779
-62.893
-68.2532
-46.5348
-45.9711
-43.8984
-40.69
-43.1546
-42.7517
-43.2318
-40.1992
-53.2099
-47.2398
-47.3746
-47.5416
-90.7783
-87.6095
-90.4238
168.765
-53.9604
-40.5038
-52.2771
-24.6823
-40.502
-38.1853
-40.6863
-34.4672
-41.0521
-42.1452
-42.7647
-42.9421
-42.8842
-80.2595
-140.158
176.402
-71.0219
-54.0672
-62.9879
-68.5507
-44.0934
-42.0852
-41.3723
-37.6295
-52.0113
-46.7829
-46.1654
-46.5655
-53.7567
-40.3294
-52.045
-24.5834
-39.5767
-41.291
-41.5011
-42.0592
-33.775
-31.3343
-33.3527
-35.2414
-41.666
-48.9623
-46.32
-43.3873
-46.6697
-46.4989
-51.7176
-43.2772
-26.649
-36.9355
-33.9646
-32.4334
-40.0783
-48.1765
-35.8274
-49.0189
-61.0091
-51.7066
-51.5297
-70.6151
36.4847
36.5454
20.2817
-11.5761
-53.5417
-53.4125
-58.6897
-50.3564
-33.6786
-31.1863
-33.1524
-35.2996
-41.5392
-48.7874
-46.2232
-43.2384
-25.8861
-36.4032
-33.4212
-31.7775
-60.6419
-51.2926
-51.1748
-70.3237
-73.4434
-62.0761
-61.7496
-58.0886
-73.2135
-61.9865
-61.6599
-58.3594
-86.5034
-74.2193
-74.4356
-65.7235
-29.1872
-15.7768
-15.7453
-1.39898
203.645
180.259
199.684
203.713
-36.4674
-40.7756
-37.3953
-43.0108
-36.2485
-40.611
-37.1193
-42.8483
-37.5372
-38.9005
-37.0852
-37.5327
-85.8351
-107.791
-73.8463
-85.7538
-46.3934
-47.534
-45.1623
-47.8308
-43.6777
-47.6144
-43.8027
-46.8213
-46.1852
-49.0203
-48.8571
-57.172
-42.4969
-43.7841
-43.4301
-45.3825
-38.0955
-39.1971
-32.6938
-36.4733
-135.346
108.775
-128.926
63.7326
-88.827
-92.3296
-43.2537
-41.5699
-44.2264
-40.9635
-46.2989
-46.3335
-97.4091
165.995
-91.0809
167.372
-70.5337
-57.2313
-43.8655
-39.3648
-43.0768
-38.3138
-43.1365
-42.7177
-127.647
64.8306
-133.622
107.178
-88.6492
-92.4387
-43.7035
-39.6598
-41.475
-39.8352
-44.7985
-45.4937
-91.039
167.396
-96.4462
166.11
-70.3363
-57.1374
-40.7447
-34.3893
-40.8955
-35.0835
-40.9213
-40.9064
-51.6671
-55.2302
-35.4953
-37.4452
-43.2391
-38.0551
-49.9583
-41.7497
-45.2364
-49.8207
-29.6627
-34.518
-27.0669
-45.6791
-32.3174
-50.6049
-55.5854
-4.69118
-54.3873
-54.9491
-59.5325
-123.2
17.1353
-7.71063
-42.3192
-45.6932
-40.8292
-40.5312
-45.2474
-55.9249
-56.0535
-49.0937
-51.7364
-55.4293
-50.192
-41.9762
-35.3572
-37.4551
-43.1414
-37.9057
-44.5676
-50.4787
-37.8984
-48.1594
-29.3233
-34.4499
-26.443
-44.9427
-55.4254
-4.56842
17.2766
-8.02654
-54.2114
-54.6999
-59.1974
-122.748
-41.6297
-45.1888
-55.839
-48.8003
-40.4992
-40.0386
-44.9017
-55.6103
-93.5529
-94.1428
178.832
195.618
-102.112
-102.244
106.175
103.885
-72.9611
-56.5045
-82.7081
-63.4608
-47.353
-44.2102
-40.4015
-37.3578
-44.6464
-44.4823
-40.5812
-39.8959
-46.1998
-48.9707
-51.146
-47.2221
-52.1201
-52.095
185.003
185.081
-57.1141
-71.3145
-32.897
-5.92879
-42.0323
-41.2284
-31.6015
-35.0514
-43.6746
-43.3938
-44.859
-42.7391
-91.9272
-93.902
195.753
178.754
-72.7312
-56.5015
-83.9095
-63.9095
-41.8042
-45.4672
-38.5637
-31.9184
-45.255
-47.2774
-51.023
-46.9555
-71.0052
-57.0844
-5.86044
-32.8394
-42.3487
-41.8123
-41.7836
-44.3826
-35.8744
-33.0126
-37.6627
-35.8788
-53.3796
-54.3519
-38.8986
-47.0292
-57.485
-57.5851
-40.4374
-40.3299
-32.9728
-39.0137
-46.5237
-44.2872
-36.7755
-36.4213
-53.9413
-49.8671
-44.5669
-50.1984
-101.565
-69.5573
8.34955
8.38633
-142.785
-142.785
-64.2711
-64.1751
-47.4135
-47.2277
-35.6975
-32.7171
-38.0387
-36.4924
-54.1773
-53.0403
-38.7518
-46.8672
-38.7232
-32.556
-45.6914
-43.2937
-49.9607
-44.3495
-69.3815
-101.4
-118.029
-73.0458
-72.9134
-143.835
-42.2837
-44.8109
-56.2663
-55.9649
-65.3202
-50.8378
-57.5857
-49.1402
-91.0229
-125
-71.7812
-59.3694
-112.586
-142.887
-73.0509
-73.0759
-90.7551
-59.1189
-71.5645
-123.516
-65.1462
-49.0031
-57.9131
-50.657
-42.191
-56.0648
-56.1972
-44.7315
-119.361
-132.557
-85.4514
-77.6224
-118.383
-78.0949
-85.9391
-130.004
-46.4462
-51.3362
-65.2675
-60.4339
-46.5367
-60.2758
-65.0953
-51.3621
-97.0166
-38.3598
-30.1126
-90.3455
6.4891
19.683
-2.39306
-13.639
6.62965
-13.5344
-2.35871
19.8531
-96.9216
-90.3293
-30.0835
-38.2659
9.43419
163.951
179.977
85.4642
129.772
167.118
197.349
170.939
129.816
171.019
197.591
167.187
4.68791
85.3719
179.992
163.585
-36.6807
-34.4669
-37.7694
-40.032
-24.5706
-30.2688
-34.8306
-31.9391
-43.2276
-48.0406
-40.8985
-37.5643
-62.9085
-48.2907
-45.1522
-55.4626
-36.5434
-39.8906
-37.5977
-34.3081
-62.5938
-55.119
-44.9999
-48.1158
-42.8572
-37.161
-40.6898
-47.6933
-23.9839
-31.682
-34.531
-29.6668
-39.4459
-43.0259
-38.6554
-36.1451
-39.3795
-36.1932
-38.5465
-42.8957
-32.1106
-36.0137
-36.9119
-34.7946
-32.7658
-34.7366
-36.8706
-36.1038
-54.1341
-84.4425
-106.655
-10.6008
-51.6744
-58.0924
-72.8958
-62.1021
-51.3469
-61.8077
-72.8086
-57.9833
-55.1576
-10.4489
-106.579
-84.1769
-46.4708
-45.672
-46.7061
-41.4365
-41.9049
-43.6265
-49.3479
-54.0098
-43.8943
-42.8855
-44.6882
-43.8057
-42.0043
-38.492
-45.2253
-42.5841
-45.8249
-40.862
-45.8213
-44.7924
-41.4858
-41.6452
-44.0996
-38.2156
-40.9576
-40.9262
-42.5735
-41.1913
-40.2881
-52.5748
-47.1673
-41.6023
-46.0889
-51.848
-53.57
-49.8302
-46.0794
-50.8507
-53.0148
-47.4216
-44.3499
-43.3973
-46.5162
-46.7552
-45.3897
-47.719
-46.1513
-43.4515
-45.3907
-43.9286
-45.3257
-50.0829
-44.3531
-41.6651
-42.7125
-42.4797
-41.5434
-41.242
-42.1912
-40.341
-44.9349
-49.9309
-45.0743
-43.2782
-41.4175
-40.5554
-39.728
-41.0908
-39.6645
-38.873
-38.7686
-39.9002
-35.9932
-33.6927
-31.3636
-34.9506
-40.0704
-39.5481
-34.7967
-36.2294
-118.735
-141.452
-125.253
-48.9994
-48.4354
-42.9765
-81.1191
-39.188
-138.371
-50.0758
-50.2088
-43.389
-135.757
-130.336
-81.0657
-46.483
-46.9496
-41.5744
-39.4102
-80.7757
-138.619
-45.4504
-45.607
-40.1708
-39.1687
-36.3153
-38.0862
-38.897
-48.461
-35.8026
-46.8108
-54.8513
-84.8217
-70.7881
-74.6866
-62.9039
-43.7255
-43.2316
-44.6286
-47.7713
-39.063
-38.7466
-36.2111
-37.9535
-47.6662
-51.8219
-34.6936
-44.9199
-84.5094
-63.1345
-70.5726
-74.457
-43.2097
-47.3317
-42.7762
-44.173
-42.7689
-54.9773
-132.626
67.6553
-236.143
-235.923
-166.371
-2.43092
-72.4429
-56.2524
-62.8521
-64.6845
-46.1854
-46.9137
-44.6003
-42.0904
-42.7666
-42.6605
-42.7807
-41.816
-49.0865
-48.032
-47.2371
-48.013
-81.0959
-86.1805
-128.769
91.0797
-49.0672
-42.4787
-52.8753
-30.581
-39.4903
-38.2893
-41.0507
-35.7195
-41.5019
-41.91
-42.3519
-42.3534
-42.8003
-55.1872
-132.148
67.3811
-73.201
-56.587
-63.0947
-65.0149
-43.3472
-43.2607
-41.7644
-39.1671
-48.1832
-47.4457
-46.2073
-47.3423
-48.8382
-42.2913
-52.6386
-30.4484
-40.207
-40.931
-41.1482
-41.3437
-33.0244
-32.2591
-32.9467
-33.248
-42.823
-46.3584
-45.1
-43.8073
-46.8456
-46.8074
-49.2227
-44.9451
-30.3505
-35.2277
-33.273
-33.2563
-38.7434
-47.0613
-39.0327
-47.8214
-58.3547
-53.6969
-53.6195
-62.186
36.0305
35.8659
30.0468
27.0003
-53.8948
-53.8297
-55.963
-52.0611
-32.9164
-32.1022
-32.7726
-33.3184
-42.6919
-46.2069
-44.9762
-43.661
-29.4974
-34.5681
-32.6154
-31.4088
-57.9694
-53.2947
-53.2405
-61.839
-66.023
-62.0536
-61.3325
-58.7282
-65.8748
-61.9634
-61.2518
-58.6976
-80.4278
-74.7744
-74.9211
-70.1874
-21.9115
-15.1408
-15.126
-7.62615
204.149
194.533
201.72
204.187
-37.7845
-39.9658
-38.251
-40.8323
-37.5685
-39.7842
-38.0134
-40.6466
-37.6891
-38.2939
-37.3332
-37.7468
-86.5956
-95.8064
-79.693
-86.554
-45.2988
-45.5051
-45.9904
-50.9863
-42.9686
-46.4529
-44.7933
-50.0976
-47.0707
-48.9606
-49.0008
-52.5423
-43.0771
-43.7986
-43.6176
-44.4933
-37.6285
-39.1021
-35.2558
-36.8219
-100.328
-49.9952
-142.758
31.7508
-209.78
-229.607
-164.211
-18.5806
-96.9887
-78.5462
-88.0975
-87.8856
-45.5852
-46.3128
-46.7845
-42.2772
-45.2363
-43.7008
-44.1566
-42.7171
-41.6476
-49.3246
-44.4228
-45.9858
-103.231
-88.4048
-121.743
94.5528
-53.1322
-83.8902
-130.086
99.2018
-77.7142
-58.1412
-71.2919
-60.2032
-45.491
-46.3173
-44.1615
-40.5443
-44.7908
-41.7289
-44.188
-39.7655
-41.3003
-41.4336
-42.8437
-42.5266
-207.639
-230.562
-162.824
-16.3453
-101.888
-49.6808
-142.114
29.0268
-98.66
-78.646
-88.2717
-88.3534
-43.8182
-42.9594
-43.2059
-41.6652
-43.4595
-44.1274
-44.7001
-40.4006
-40.48
-48.0816
-42.9991
-45.028
-58.5818
-87.4539
-130.045
99.2474
-103.429
-88.7662
-122.289
94.5878
-77.5366
-57.9566
-71.0916
-60.0741
-40.3852
-38.4709
-41.0645
-35.7547
-41.2535
-42.2168
-40.7123
-36.6275
-39.0906
-39.7174
-40.6907
-40.6039
-45.5959
-54.094
-51.8197
-53.642
-35.3316
-33.9897
-34.9867
-35.1072
-39.1409
-40.527
-40.9615
-38.9596
-43.9218
-46.0251
-47.2793
-43.3318
-46.4114
-46.9435
-45.4925
-47.3069
-28.101
-30.6074
-29.4276
-32.4531
-32.4276
-25.2496
-23.9278
-46.3086
-52.4664
-46.2551
-39.4912
-47.9868
-48.3361
-39.9052
-58.2643
-15.1808
-59.9983
-52.3864
-55.4213
-55.5748
-69.6765
-63.9777
-62.6283
-86.8714
33.3342
36.8056
28.4343
29.8039
-43.3399
-41.9416
-42.4409
-46.3593
-40.9775
-38.541
-40.3134
-40.0578
-46.7057
-49.7327
-46.708
-51.5009
-50.7938
-52.9152
-53.8874
-50.4812
-45.5682
-54.3511
-51.898
-53.7434
-43.8049
-46.1474
-47.5264
-43.615
-35.2476
-33.9081
-34.8701
-35.1632
-38.999
-40.3966
-40.8315
-38.8167
-46.4226
-46.5878
-45.0013
-47.5305
-46.1088
-48.144
-43.4578
-47.3466
-27.978
-30.4514
-29.1645
-32.9169
-31.3885
-24.3889
-23.1993
-45.5119
-48.0558
-39.7183
-58.0533
-15.0193
33.5343
36.8916
28.8263
29.8984
-59.7537
-52.1821
-55.2336
-55.3365
-69.36
-63.6192
-62.2955
-86.4787
-42.7333
-41.2144
-41.7637
-45.7382
-50.4879
-52.7244
-53.6566
-50.2112
-40.5762
-38.0954
-39.9472
-39.6134
-46.2739
-49.323
-46.2379
-51.1023
-109.048
-81.915
-92.9986
-93.5441
193.408
202.172
195.283
197.382
-115.74
-93.7397
-102.859
-103.032
110.275
135.403
103.859
105.79
-62.7835
-62.0607
-67.4124
-58.6916
-70.4471
-73.354
-77.0224
-67.5932
-44.0454
-45.9852
-44.8643
-44.4436
-40.0131
-38.6561
-40.3768
-38.4284
-43.8111
-45.3209
-44.5037
-44.3798
-39.8266
-39.2407
-40.3912
-40.0479
-47.4443
-47.8117
-46.7038
-48.3687
-48.2291
-49.5813
-51.95
-46.6855
-65.3966
-37.9284
-51.4764
-51.4663
172.583
199.528
187.906
187.679
-50.7501
-60.9052
-55.6193
-59.5452
-20.8512
-17.1692
-25.6499
-12.0017
-41.117
-41.9959
-41.7784
-41.3628
-33.5373
-31.8546
-31.9359
-33.7668
-43.187
-44.3191
-43.7052
-43.6362
-43.2538
-43.7007
-44.1223
-43.0712
-108.528
-81.5788
-92.5409
-93.209
193.426
202.265
197.502
195.284
-62.7795
-61.8137
-67.3061
-58.6568
-70.9038
-73.8622
-78.3114
-68.2057
-41.7393
-43.7619
-42.1108
-42.8961
-36.8041
-36.285
-38.4296
-34.3656
-46.0979
-46.0165
-45.5638
-46.6446
-46.5268
-48.6594
-48.5995
-46.4606
-50.5361
-60.7578
-59.3225
-55.5691
-20.7733
-17.1221
-11.9366
-25.5905
-41.8641
-42.908
-42.4418
-42.0935
-42.4681
-43.1837
-42.2815
-43.563
-34.0038
-35.3112
-35.2289
-33.8339
-35.8987
-37.1345
-37.0896
-36.1187
-48.6775
-55.2323
-52.0723
-52.8525
-42.8683
-41.5401
-40.5388
-44.342
-54.7356
-61.6244
-57.8104
-57.7842
-41.866
-39.6727
-40.6393
-40.5724
-34.7806
-36.4724
-34.2776
-37.2814
-36.5945
-47.3108
-47.9639
-45.9511
-36.8227
-36.9138
-36.8036
-36.6874
-50.3799
-52.3077
-52.424
-49.7956
-49.6134
-45.0705
-45.8934
-48.7021
-77.7638
-84.1529
-89.8983
-74.9241
12.7614
3.83567
9.02406
9.04322
-86.3655
-125.448
-144.215
-144.227
-61.5951
-69.0541
-64.8586
-64.81
-48.8771
-46.3884
-47.5566
-47.4624
-33.7804
-35.0916
-35.0321
-33.5779
-36.1223
-37.4812
-37.4621
-36.6931
-48.583
-55.0729
-52.6365
-51.9056
-42.7192
-41.3856
-40.3907
-44.1905
-34.3263
-36.1443
-36.9399
-33.8698
-36.8682
-46.2757
-46.9769
-44.8236
-49.3135
-44.8992
-48.4844
-45.6743
-77.5506
-84.0306
-74.7539
-89.7323
-107.042
-90.3233
-92.0382
-80.9529
-51.6081
-46.9875
-57.4051
-54.5649
-54.9369
-53.9376
-55.8846
-57.3558
-116.447
-82.064
-94.0068
-81.6666
-105.984
-89.9465
-91.4981
-80.6096
-115.913
-81.7663
-93.6955
-81.2665
-54.741
-53.7807
-55.5929
-57.0664
-51.6718
-46.9545
-57.4795
-54.7545
-111.409
-96.3172
-101.036
-89.8471
-111.733
-96.5714
-101.368
-90.9369
-56.4149
-53.4074
-60.1679
-57.2581
-56.0467
-53.1782
-59.8208
-57.2043
-68.1473
-55.0675
-53.1043
-41.4462
1.04694
8.3433
-0.80051
6.945
1.14325
8.42499
-0.728557
7.00178
-68.0995
-54.9987
-53.0668
-41.3921
120.284
103.519
142.199
103.547
181.085
167.825
196.421
183.968
168.361
181.219
184.104
196.485
103.261
118.809
103.459
143.228
-36.221
-37.5746
-36.4869
-37.7689
-30.2674
-29.1765
-32.0274
-31.633
-41.4541
-43.8435
-40.664
-43.3927
-54.1052
-56.1191
-49.9466
-51.6149
-36.0678
-37.4246
-36.325
-37.622
-53.8452
-55.8375
-49.7493
-51.378
-41.1625
-43.5454
-40.4104
-43.1502
-29.869
-28.6745
-31.6814
-31.2192
-38.4069
-40.4319
-38.351
-39.9261
-40.6726
-38.5316
-40.2076
-38.7533
-36.6347
-35.2604
-36.8337
-36.3919
-34.826
-34.4697
-35.5953
-35.9403
-132.441
-80.4045
-120.277
-140.773
-59.4044
-58.583
-65.231
-63.1794
-58.3817
-59.1633
-63.0361
-64.9794
-80.3716
-132.112
-140.694
-120.115
-45.6428
-45.7245
-45.9144
-46.0521
-43.6497
-47.6098
-49.4174
-55.7088
-43.7081
-43.3931
-43.9495
-43.6767
-42.1314
-41.3475
-42.9565
-42.7041
-44.9025
-44.9888
-45.0825
-45.256
-41.4233
-40.7407
-42.0518
-41.8653
-41.0848
-41.1048
-41.5536
-41.5687
-42.0125
-46.0074
-47.7289
-53.9708
-50.3047
-56.7369
-48.8679
-53.7165
-51.5858
-50.2129
-51.7721
-50.036
-44.3049
-45.1956
-44.7295
-46.4948
-44.6378
-45.8175
-44.6732
-46.7983
-46.2616
-47.8799
-45.7274
-47.1573
-42.6604
-42.668
-42.2981
-42.563
-40.8453
-41.0003
-41.1419
-41.3926
-45.8272
-47.5573
-45.3171
-46.8829
-41.2609
-40.7443
-40.4015
-40.7869
-39.2784
-39.6839
-39.7659
-38.6422
-33.4599
-33.8069
-31.7585
-31.5022
-38.5787
-37.903
-37.189
-36.3199
-132.158
-42.4368
-150.269
-69.2426
-120.19
-116.798
-44.7228
-42.4574
-45.6607
-43.5092
-41.5639
-45.697
-147.266
108.604
-120.52
77.6868
-92.8683
-98.5217
-44.7133
-41.358
-47.3309
-42.2726
-43.7649
-44.4082
-149.907
-74.4935
-123.819
-56.4536
-119.616
-115.624
-44.3259
-41.8639
-42.8087
-40.5883
-40.0297
-44.5531
-120.43
77.674
-147.297
108.759
-92.6655
-98.3454
-43.5829
-37.8498
-41.2164
-37.2503
-40.8946
-41.5767
-41.7718
-41.9477
-36.1811
-36.6005
-40.0691
-37.4846
-44.1605
-40.8043
-46.8916
-45.2254
-24.4306
-31.7568
-20.5138
-48.8505
-50.1997
-46.6244
-72.9899
-17.1023
-65.2028
-64.1223
-67.0289
-113.454
17.2981
-8.62873
-42.8078
-46.2969
-42.5291
-41.9727
-44.5175
-48.0428
-50.7028
-46.7367
-41.6854
-41.9269
-44.0099
-40.722
-36.0588
-36.5933
-39.9458
-37.345
-46.3879
-45.8253
-40.9794
-46.208
-23.8791
-34.3172
-19.5817
-47.9395
-72.7603
-17.3416
17.4391
-8.43239
-65.0123
-63.855
-66.7005
-113.51
-42.2708
-45.7024
-50.3563
-46.3485
-42.1364
-41.5111
-44.1015
-47.7028
-141.008
62.4866
-100.482
67.5526
-144.856
-146.22
172.823
173.953
-166.937
-7.46391
-165.939
-7.77193
-133.246
-132.115
80.4596
80.302
-71.9617
-74.7414
-55.1516
-56.8662
-68.2391
-58.4407
-72.6272
-63.9904
-45.218
-41.8522
-44.0325
-41.0747
-43.8106
-43.8096
-41.2519
-40.1878
-42.9856
-42.1194
-42.7858
-41.673
-43.2727
-43.2926
-40.371
-40.0479
-58.6092
-48.7008
-45.6637
-48.6638
-46.4634
-49.5064
-49.5602
-47.1702
-130.188
96.4496
-130.191
96.4731
-88.6019
-88.6019
163.649
163.713
-60.7477
-42.1443
-51.2812
-20.5034
-49.6518
-56.1726
-31.2912
-18.5368
-42.3452
-37.4939
-40.5229
-35.0144
-41.1024
-40.4231
-33.918
-35.3193
-42.4934
-42.0629
-42.3938
-42.7861
-42.813
-42.6954
-43.3687
-42.6585
-142.205
61.8114
-101.404
67.4593
-144.038
-144.979
174.005
172.659
-72.13
-75.5423
-55.1156
-57.0946
-68.3527
-58.5088
-73.005
-64.2033
-42.9144
-39.6097
-40.772
-37.3808
-41.0837
-41.5515
-38.9644
-36.3885
-57.0475
-47.7718
-44.9366
-48.4173
-45.421
-48.1562
-48.5078
-46.2372
-60.4924
-42.0216
-51.0823
-20.3783
-55.9314
-49.4378
-18.4366
-31.1955
-40.8834
-40.7004
-41.4628
-42.0273
-41.6069
-41.3458
-41.6181
-42.6138
-34.0048
-34.052
-31.6154
-32.6323
-33.9472
-32.7007
-35.6044
-34.9488
-42.8136
-40.7579
-48.8545
-48.6955
-45.4317
-47.441
-41.6189
-45.4594
-48.7784
-44.5963
-48.722
-44.5616
-51.6346
-51.6454
-43.2243
-43.1875
-28.7581
-30.9692
-37.1231
-37.3176
-32.1847
-35.8626
-31.405
-36.4404
-40.1722
-44.4796
-40.8694
-48.0418
-35.5139
-37.3598
-50.9658
-47.6847
-57.9625
-70.745
-49.8034
-55.9125
-49.7023
-53.4544
-75.2689
-66.3608
29.6421
28.0828
30.4504
28.1241
20.2291
20.2582
-11.6056
-11.099
-55.7373
-51.7129
-55.6214
-51.5734
-58.561
-58.5061
-50.3165
-50.2396
-33.8703
-34.1345
-31.3987
-32.7052
-33.7704
-32.4735
-35.6726
-35.0215
-42.704
-40.6206
-48.6998
-48.5169
-47.3281
-45.3492
-41.4757
-45.3015
-28.0439
-30.171
-36.6483
-36.869
-35.3863
-31.6007
-30.6799
-37.3434
-57.6085
-70.4024
-49.402
-55.5617
-53.1068
-49.3603
-66.0745
-74.9815
-73.2892
-72.8094
-66.7431
-58.6634
-60.0968
-65.1356
-56.0527
-59.6105
-72.9572
-72.5915
-66.589
-58.6081
-64.973
-60.0496
-59.7721
-55.9335
-86.1425
-86.4082
-79.471
-69.4725
-79.8421
-69.6803
-65.5999
-65.5065
-29.3989
-29.3851
-22.8708
-8.71275
-8.67909
-22.8407
-1.65887
-1.64118
196.609