# vtk DataFile Version 2.0
tet_velo
ASCII
DATASET UNSTRUCTURED_GRID
POINTS 29498 float
-0.675 0.275 -2.23246
-0.705 0.295 2.32074
-0.705 0.675 -2.1539
-0.675 0.805152 2.195
0.675 0.275 -2.23246
0.705 0.295 2.32074
0.705 0.675 -2.1539
0.675 0.805152 2.195
-0.733459 0.233208 -0.714727
-0.749952 0.233381 0.803007
-0.799064 0.822448 -0.704267
-0.802402 0.87917 0.745367
0.733459 0.233208 -0.714727
0.750022 0.233311 0.803007
0.799061 0.822445 -0.704267
0.802397 0.879165 0.745367
-1.42988 -0.0370023 -3.41997
-1.43152 -0.00579765 -2.23306
-1.47535 -0.0343567 -0.713561
-1.48604 -0.0480789 0.819639
-1.4504 -0.0142371 2.34029
-1.44305 0.00278821 3.53285
-1.45022 0.0113581 4.71495
-1.42779 0.214061 -3.40517
-1.43154 0.265834 -2.2257
-1.49177 0.255 -0.719453
-1.49455 0.244309 0.79292
-1.4314 0.266355 2.30047
-1.43147 0.281575 3.49207
-1.44615 0.291102 4.67639
-1.4422 0.682191 -3.35646
-1.46133 0.732348 -2.17417
-1.54139 0.831696 -0.714353
-1.53444 0.863016 0.74064
-1.42871 0.818843 2.20176
-1.43247 0.831618 3.39618
-1.45278 0.850257 4.59149
-1.46588 1.49525 -3.3346
-1.48215 1.5602 -2.16251
-1.51864 1.66923 -0.724771
-1.53712 1.73428 0.69829
-1.52019 1.73101 2.13674
-1.50367 1.72261 3.31032
-1.49794 1.72653 4.49818
-0.701181 -0.0333808 -3.42436
-0.690072 0.000606465 -2.23946
-0.725956 -0.0456318 -0.712701
-0.744886 -0.0555776 0.828248
-0.725667 -0.000141028 2.35534
-0.720095 0.0115248 3.54306
-0.7247 0.0145016 4.72086
-0.698379 0.211434 -3.40652
-0.712332 0.290055 3.50049
-0.722641 0.293347 4.68085
-0.707556 0.657786 -3.34804
-0.711082 0.827698 3.39483
-0.729072 0.847988 4.5912
-0.71853 1.47873 -3.32627
-0.725888 1.54476 -2.15334
-0.756283 1.66616 -0.719242
-0.784042 1.73901 0.697626
-0.782865 1.73108 2.132
-0.770973 1.71991 3.30558
-0.765631 1.72385 4.49474
0.716452 -0.0333835 -3.42436
0.712085 0.000604641 -2.23946
0.741518 -0.0456409 -0.712701
0.743434 -0.0556254 0.828248
0.71396 -0.000159584 2.35534
0.71491 0.0115101 3.54306
0.719702 0.0144857 4.72086
0.707972 0.211432 -3.40652
0.707244 0.290045 3.50049
0.714887 0.293333 4.68085
0.720917 0.657784 -3.34804
0.694926 0.827691 3.39483
0.706121 0.847975 4.5912
0.764364 1.47872 -3.32627
0.774678 1.54476 -2.15334
0.773885 1.66616 -0.719242
0.741075 1.739 0.697626
0.702209 1.73107 2.132
0.695172 1.7199 3.30558
0.697648 1.72383 4.49474
1.43908 -0.0370097 -3.41997
1.43897 -0.00580472 -2.23306
1.48175 -0.0343789 -0.713561
1.4902 -0.048147 0.819638
1.45246 -0.0142841 2.34029
1.44441 0.00275328 3.53285
1.44829 0.0113242 4.71495
1.43016 0.214056 -3.40517
1.42447 0.26583 -2.2257
1.48794 0.254987 -0.719453
1.50015 0.244237 0.79292
1.44144 0.266315 2.30047
1.43429 0.281546 3.49207
1.44172 0.291071 4.67639
1.44845 0.682186 -3.35646
1.45649 0.732344 -2.17417
1.53751 0.831688 -0.714353
1.53594 0.862986 0.74064
1.43148 0.818816 2.20176
1.42275 0.831594 3.39618
1.43316 0.850229 4.59149
1.50406 1.49524 -3.3346
1.51891 1.56019 -2.16251
1.52949 1.66921 -0.724772
1.50172 1.73426 0.698289
1.45422 1.73098 2.13674
1.4369 1.72258 3.31032
1.43458 1.72651 4.49818
-0.730721 0.475 -2.2339
0 0.259491 -2.24797
-0.725275 0.233059 -1.47359
-0.741572 0.550076 2.30944
0 0.284398 2.33134
-0.758682 0.232985 1.56187
0 0.778204 -2.2571
-0.789286 0.785978 -1.42908
0 0.849969 2.23982
-0.782088 0.885548 1.47018
0.730768 0.475 -2.23395
0.725275 0.233059 -1.47359
0.74217 0.550076 2.31004
0.758682 0.232985 1.56187
0.789299 0.785991 -1.42908
0.782318 0.885778 1.47018
-0.741809 0.233191 0.04414
-0.865144 0.527828 -0.709497
0 0.230719 -0.714727
-0.890822 0.556276 0.774187
3.52137e-05 0.230683 0.803007
-0.804368 0.854444 0.02055
-1.41192e-06 1.09651 -0.704267
-2.47613e-06 1.33572 0.745367
0.74181 0.23319 0.04414
0.865125 0.527827 -0.709497
0.890824 0.556238 0.774187
0.804356 0.854432 0.02055
-0.831216 0.501414 -1.45134
-0.873658 0.542052 0.032345
-0.886742 0.553176 1.51603
0 0.230664 -1.47359
1.76068e-05 0.230707 0.04414
1.76068e-05 0.230582 1.56187
0 0.475 -2.4121
0 0.550076 2.39198
-7.0596e-07 0.885887 -1.42908
-1.94402e-06 1.34375 0.02055
-1.23806e-06 1.06071 1.47018
0.831221 0.501413 -1.45134
0.873681 0.542032 0.032345
0.886743 0.553157 1.51603
-1.05327 0.270417 -2.22908
-0.682536 0.137803 -2.23596
-0.686689 0.243217 -2.81949
-1.0682 0.280678 2.3106
-0.715333 0.147429 2.33804
-0.708666 0.292528 2.91062
-1.08316 0.703674 -2.16404
-0.706278 0.666393 -2.75097
-0.715444 1.10988 -2.15362
-1.05185 0.811998 2.19838
-0.693041 0.816425 2.79492
-0.728933 1.26811 2.1635
0.693542 0.137802 -2.23596
0.691486 0.243216 -2.81949
1.04973 0.270415 -2.22908
0.70948 0.14742 2.33804
0.706122 0.292523 2.91062
1.07322 0.280658 2.3106
0.712959 0.666392 -2.75097
0.739839 1.10988 -2.15362
1.08074 0.703672 -2.16404
0.684963 0.816421 2.79492
0.688605 1.26811 2.1635
1.05324 0.811984 2.19838
-1.11261 0.244104 -0.71709
-0.729707 0.0937881 -0.713714
-1.12225 0.238845 0.797963
-0.747419 0.0889019 0.815627
-1.17023 0.827072 -0.70931
-0.777674 1.24431 -0.711754
-1.16842 0.871093 0.743004
-0.793222 1.30909 0.721496
0.737488 0.0937836 -0.713714
1.1107 0.244097 -0.71709
0.746728 0.0888428 0.815627
1.12508 0.238774 0.797963
0.786473 1.2443 -0.711754
1.16828 0.827066 -0.70931
0.771736 1.30908 0.721496
1.16917 0.871075 0.743003
-1.4307 -0.0214 -2.82651
-1.42884 0.0885295 -3.41257
-1.06553 -0.0351916 -3.42216
-1.45344 -0.0200772 -1.47331
-1.43153 0.130018 -2.22938
-1.0608 -0.00259559 -2.23626
-1.4807 -0.0412178 0.0530387
-1.48356 0.110322 -0.716507
-1.10065 -0.0399942 -0.713131
-1.46822 -0.031158 1.57996
-1.4903 0.0981149 0.806279
-1.11547 -0.0518282 0.823943
-1.44672 -0.00572442 2.93657
-1.4409 0.126059 2.32038
-1.08803 -0.00718904 2.34781
-1.44663 0.00707318 4.1239
-1.43726 0.142182 3.51246
-1.08157 0.00715649 3.53796
-1.44818 0.15123 4.69567
-1.08746 0.0129299 4.71791
-1.42967 0.239948 -2.81543
-1.43499 0.448126 -3.38081
-1.06309 0.212748 -3.40585
-1.46166 0.260417 -1.47257
-1.44644 0.499091 -2.19993
-1.49316 0.249655 0.0367334
-1.51658 0.543348 -0.716903
-1.46297 0.255332 1.54669
-1.51449 0.553662 0.76678
-1.43144 0.273965 2.89627
-1.43005 0.542599 2.25112
-1.43881 0.286338 4.08423
-1.43197 0.556597 3.44413
-1.0719 0.285815 3.49628
-1.44946 0.570679 4.63394
-1.08439 0.292224 4.67862
-1.45176 0.70727 -2.76532
-1.45404 1.08872 -3.34553
-1.07488 0.669988 -3.35225
-1.50136 0.782022 -1.44426
-1.47174 1.14628 -2.16834
-1.53791 0.847356 0.0131435
-1.53002 1.25046 -0.719562
-1.48157 0.84093 1.4712
-1.53578 1.29865 0.719465
-1.43059 0.825231 2.79897
-1.47445 1.27492 2.16925
-1.44262 0.840937 3.99384
-1.46807 1.27711 3.35325
-1.07178 0.829658 3.39551
-1.47536 1.28839 4.54483
-1.09092 0.849122 4.59134
-1.47401 1.52773 -2.74856
-1.0922 1.48699 -3.33044
-1.50039 1.61472 -1.44364
-1.10402 1.55248 -2.15792
-1.52788 1.70176 -0.0132408
-1.13746 1.6677 -0.722006
-1.52865 1.73264 1.41751
-1.16058 1.73665 0.697958
-1.51193 1.72681 2.72353
-1.15153 1.73104 2.13437
-1.5008 1.72457 3.90425
-1.13732 1.72126 3.30795
-1.13179 1.72519 4.49646
-0.695626 -0.0163872 -2.83191
-0.69978 0.0890265 -3.41544
0.00763577 -0.0333821 -3.42436
-0.708014 -0.0225126 -1.47608
0.0110066 0.000605553 -2.23946
-0.735421 -0.0506047 0.0577732
0.007781 -0.0456363 -0.712701
-0.735277 -0.0278593 1.59179
-0.000726261 -0.0556015 0.828248
-0.722881 0.00569187 2.9492
-0.00585347 -0.000150306 2.35534
-0.722398 0.0130132 4.13196
-0.716214 0.15079 3.52178
-0.00259288 0.0115174 3.54306
-0.723671 0.153924 4.70086
-0.00249925 0.0144936 4.72086
-0.702967 0.43461 -3.37728
0.00479682 0.211433 -3.40652
-0.717486 0.291701 4.09067
-0.711707 0.558877 3.44766
-0.00254391 0.29005 3.50049
-0.725857 0.570667 4.63603
-0.00387678 0.29334 4.68085
-0.713043 1.06826 -3.33716
0.00668054 0.657785 -3.34804
-0.720077 0.837843 3.99301
-0.741028 1.2738 3.35021
-0.00807827 0.827694 3.39483
-0.747352 1.28592 4.54297
-0.0114757 0.847982 4.5912
-0.722209 1.51175 -2.7398
0.0229171 1.47873 -3.32627
-0.741085 1.60546 -1.43629
0.0243952 1.54476 -2.15334
-0.770163 1.70259 -0.0108077
0.00880081 1.66616 -0.719242
-0.783453 1.73504 1.41481
-0.0214833 1.73901 0.697626
-0.776919 1.72549 2.71879
-0.0403281 1.73107 2.132
-0.768302 1.72188 3.90016
-0.0379007 1.7199 3.30558
-0.0339915 1.72384 4.49474
0.714269 -0.0163894 -2.83191
0.712212 0.0890243 -3.41544
1.07777 -0.0351966 -3.42216
0.726801 -0.0225181 -1.47608
1.07553 -0.00260004 -2.23626
0.742476 -0.0506331 0.0577732
1.11164 -0.0400099 -0.713131
0.728697 -0.0278925 1.59179
1.11682 -0.0518862 0.823943
0.714435 0.00567525 2.9492
1.08321 -0.00722182 2.34781
0.717306 0.0129979 4.13196
0.711077 0.150778 3.52178
1.07966 0.00713168 3.53796
0.717295 0.153909 4.70086
1.084 0.012905 4.71791
0.714445 0.434608 -3.37728
1.06907 0.212744 -3.40585
0.711066 0.291689 4.09067
0.701085 0.558868 3.44766
1.07077 0.285796 3.49628
0.710504 0.570654 4.63603
1.0783 0.292202 4.67862
0.742641 1.06825 -3.33716
1.08469 0.669985 -3.35225
0.700523 0.837833 3.99301
0.695049 1.27379 3.35021
1.05884 0.829643 3.39551
0.701885 1.2859 4.54297
1.06964 0.849102 4.59134
0.769521 1.51174 -2.7398
1.13421 1.48698 -3.33044
0.774281 1.60546 -1.43629
1.14679 1.55248 -2.15792
0.75748 1.70258 -0.0108078
1.15169 1.66769 -0.722007
0.721642 1.73503 1.41481
1.1214 1.73663 0.697958
0.69869 1.72548 2.71879
1.07822 1.73102 2.13437
0.69641 1.72186 3.90016
1.06604 1.72124 3.30795
1.06611 1.72517 4.49646
1.43903 -0.0214072 -2.82651
1.43462 0.0885231 -3.41257
1.46036 -0.0200918 -1.47331
1.43172 0.130013 -2.22938
1.48598 -0.041263 0.0530387
1.48485 0.110304 -0.716507
1.47133 -0.0312156 1.57996
1.49517 0.0980451 0.806279
1.44844 -0.00576539 2.93657
1.44695 0.126016 2.32038
1.44635 0.00703876 4.1239
1.43935 0.14215 3.51246
1.44501 0.151198 4.69567
1.42731 0.239943 -2.81543
1.43931 0.448121 -3.38081
1.4562 0.260408 -1.47257
1.44048 0.499087 -2.19993
1.49404 0.249612 0.0367333
1.51272 0.543337 -0.716903
1.47079 0.255276 1.54669
1.51804 0.553612 0.76678
1.43786 0.273931 2.89627
1.43646 0.542566 2.25112
1.438 0.286308 4.08423
1.42852 0.55657 3.44413
1.43744 0.57065 4.63394
1.45247 0.707265 -2.76532
1.47626 1.08871 -3.34553
1.497 0.782016 -1.44426
[...]
POINT_DATA 29498
VECTORS point_vectors float
-1.68615 -2.57845 5.55161
0.230542 0.256929 1.22114
-2.00679 1.61955 3.60725
-0.0423254 -0.123213 0.148129
1.68605 -2.57392 5.52886
-0.230773 0.254646 1.2229
2.00367 1.61821 3.60332
0.0423906 -0.122184 0.146508
0.00059527 1.28121e-05 0.0269278
0.00845277 -0.00648065 0.150581
-0.000595042 -0.000494383 0.0102044
0.00689618 0.0160433 0.0643026
-0.000595028 1.33878e-05 0.0269723
-0.00860202 -0.00654022 0.154581
0.000572665 -0.000475762 0.00989168
-0.00687062 0.0160496 0.0640392
-0.501698 -0.215968 19.8046
-1.22983 -0.668073 20.3505
-0.513283 -0.470582 21.1854
-0.0344737 -0.147468 21.4049
0.659776 0.273444 21.3793
0.867535 0.33595 21.3089
0.841834 0.0888533 20.8644
-0.569645 -0.15066 19.7197
-1.59475 -0.526758 20.2887
-0.678262 -0.535907 21.2354
-0.0651733 -0.206748 21.4982
0.891169 0.111916 21.4448
1.13372 0.0828947 21.3975
1.02711 -0.0549711 21.1261
-0.61763 0.0529043 19.6804
-1.71815 0.0635573 20.2395
-1.16078 -0.299173 21.1891
-0.260656 -0.23201 21.5703
0.709345 -0.427712 21.4299
1.15481 -0.404916 21.0972
0.931965 -0.381842 20.8137
-0.451657 0.266732 19.8492
-0.916913 0.559295 20.1966
-0.996482 0.410653 20.9806
-0.3724 0.0101858 21.4311
0.132455 -0.311427 21.2983
0.391514 -0.526246 20.8659
0.339551 -0.286944 20.832
-0.463256 -0.407739 19.3488
-2.02756 -3.50049 20.5361
-0.128224 -0.432916 20.5853
0.0747054 -0.0375495 19.547
0.401461 1.20638 18.1115
0.879112 1.53223 18.9293
1.07422 0.858745 17.3776
-0.569276 -0.314211 19.1409
1.8275 1.6819 12.5847
1.66402 0.999038 13.6569
-0.651612 0.0824803 18.9691
2.14619 -0.574589 7.89434
1.467 -0.0151932 14.0125
-0.403024 0.517391 19.4691
-1.06788 1.61835 19.9103
-1.58738 1.8016 20.8977
-0.510046 0.30212 21.9129
-0.0208534 -0.451531 21.5353
0.225751 -0.815981 21.0938
0.226725 -0.873437 19.7998
0.467512 -0.404375 19.3546
2.08021 -3.36608 20.5172
0.131887 -0.439401 20.6357
-0.0722289 -0.03605 19.5388
-0.373159 1.19525 17.9343
-0.876034 1.53189 18.9031
-1.06969 0.857522 17.3008
0.577437 -0.311317 19.1397
-1.80848 1.67182 12.5011
-1.6457 1.00542 13.5339
0.655072 0.0840215 18.9969
-2.1024 -0.546459 7.46605
-1.46364 0.030459 13.7287
0.416594 0.497763 19.4823
1.10935 1.54482 19.9258
1.58791 1.74615 20.9044
0.507034 0.339028 21.9637
0.0614694 -0.441303 21.5532
-0.168192 -0.830474 20.9502
-0.212235 -0.929862 19.644
0.497819 -0.214443 19.8024
1.215 -0.655375 20.3613
0.514162 -0.47503 21.1848
0.03207 -0.150383 21.3988
-0.661152 0.271326 21.3884
-0.867337 0.331038 21.3043
-0.841536 0.0896388 20.8718
0.570023 -0.146752 19.7139
1.61008 -0.533917 20.2818
0.681371 -0.539596 21.239
0.0654636 -0.206072 21.4922
-0.875331 0.0971732 21.4525
-1.12272 0.0821054 21.4085
-1.03021 -0.0469697 21.1414
0.614293 0.0514679 19.6813
1.7255 0.0647508 20.2395
1.16394 -0.301835 21.1931
0.256808 -0.236545 21.5811
-0.702117 -0.42535 21.4272
-1.17129 -0.411665 21.106
-0.947215 -0.40642 20.7442
0.441579 0.260164 19.8705
0.894945 0.530207 20.2072
0.989018 0.398478 20.9826
0.376168 0.0213034 21.4618
-0.120584 -0.327859 21.3113
-0.367921 -0.536751 20.851
-0.28938 -0.247023 20.8977
-2.78819 -0.321794 3.03947
-1.61288e-06 -0.0208361 0.0964962
0.0221863 -0.00560202 0.430409
0.106764 -0.208126 0.340543
-7.60651e-05 0.00268944 0.0223154
-0.0314117 0.0195094 0.513946
0.0381353 2.4449 2.46138
-0.0711836 -0.0311101 0.22477
-0.00219361 0.119357 -0.166296
0.034366 0.0178075 0.287368
2.80975 -0.3247 3.0635
-0.0218614 -0.00555078 0.430327
-0.111643 -0.215336 0.354788
0.0313103 0.019474 0.513494
0.0714268 -0.0311884 0.225326
-0.0356677 0.0186917 0.297681
-0.000679632 0.000262618 0.149514
-0.0096902 -0.0216382 0.491229
-7.88625e-09 3.1486e-08 5.55333e-05
-0.00133736 0.0154691 0.109521
2.87326e-08 1.70857e-07 -0.000251571
0.00253234 0.00702387 0.023022
-0.00533486 0.0515 0.0950145
1.40789e-06 -0.000197101 0.00455501
0.000728098 0.00027477 0.149165
0.00970215 -0.0215151 0.490664
0.00153386 0.0143816 0.101163
-0.00246253 0.00683548 0.0225263
0 0 0
-0.000527446 0.00470404 0.0316035
0.00100999 0.00300584 0.0488349
-5.19917e-09 -1.05452e-07 4.15088e-05
-6.0892e-09 -4.69229e-08 8.04164e-05
-3.13593e-08 3.22824e-07 0.000124878
-0.000970597 0.366 0.338201
-0.00141721 -0.00225257 -0.0177307
-2.59686e-06 0.000505604 0.00614062
-2.63737e-07 0.000293333 0.0102418
-5.82051e-05 0.00974056 -0.0085957
0 0 0
0.000542839 0.00481976 0.0324127
-0.000979196 0.00289699 0.0472798
-3.03707 -1.4493 20.1859
-3.15409 -5.32079 20.6851
-1.65758 -1.16088 17.9845
1.3678 0.699053 18.5231
0.283827 1.19045 11.5141
1.28733 1.12484 9.1687
-3.42137 0.437121 20.0831
-2.21536 0.603333 17.2994
-2.3921 2.78294 19.7125
1.09583 -0.372294 16.8197
0.110011 -0.57377 3.92929
0.420015 -0.336421 13.1583
3.19923 -5.19799 20.6358
1.66239 -1.15268 17.9986
3.05573 -1.46601 20.185
-0.265859 1.17016 11.3832
-1.27148 1.10619 9.10492
-1.35835 0.675718 18.6267
2.2162 0.594827 17.3452
2.41376 2.66654 19.735
3.4518 0.444311 20.0859
-0.0779259 -0.525895 3.69086
-0.365931 -0.347985 11.7774
-1.0892 -0.367444 16.922
-0.518764 -0.922496 21.0749
0.21851 -0.157424 14.8065
-0.089627 -0.179122 19.9308
0.169977 -0.0414129 13.5306
-1.92763 -0.837882 21.1201
-3.8532 2.07541 20.6248
-0.271754 -0.39621 20.427
-0.129428 0.394734 16.9288
-0.217234 -0.165856 14.943
0.517707 -0.919424 21.0106
-0.167459 -0.0386435 13.5211
0.0862467 -0.184196 19.9963
3.80209 2.00582 20.6973
1.93324 -0.84721 21.1077
-0.00652538 0.477775 16.0697
0.268586 -0.389607 20.4164
-0.903033 -0.443614 19.8689
-0.544946 -0.181963 19.7541
-0.524929 -0.323709 19.5978
-0.877971 -0.611439 20.9679
-1.43018 -0.620343 20.3181
-1.82487 -1.51418 20.3211
-0.248323 -0.313513 21.3187
-0.589465 -0.506263 21.21
-0.352716 -0.63686 21.3575
0.289869 0.0611961 21.5113
-0.0489148 -0.181288 21.4533
0.0120919 -0.167974 21.4493
0.858029 0.335595 21.1997
0.794135 0.189749 21.4022
0.870769 0.731342 21.0627
0.836704 0.360101 20.4419
1.03793 0.19109 21.2926
1.15355 1.02534 20.9743
0.934611 0.0129858 20.9937
0.971451 0.649728 21.3927
-1.09289 -0.322657 19.7324
-0.59795 -0.0683399 19.6886
-0.62754 -0.225409 19.4595
-1.14046 -0.583795 20.9926
-1.71119 -0.240437 20.2808
-0.343845 -0.383371 21.3814
-0.938882 -0.473235 21.2095
0.375378 -0.0411491 21.5911
-0.150964 -0.255529 21.5581
1.11113 0.131504 21.2245
0.893359 -0.192686 21.4171
0.941975 0.212538 20.6089
1.21559 -0.206933 21.5035
1.68069 0.629619 19.3776
1.10458 -0.341373 20.687
1.30483 0.487238 18.3487
-1.20411 0.0885054 19.6982
-0.571514 0.189336 19.7514
-0.680817 0.0665343 19.3637
-1.47379 -0.147361 20.8549
-1.34754 0.468086 20.1945
-0.717729 -0.288895 21.4531
-1.26211 0.117746 21.0744
0.225349 -0.282156 21.6288
-0.36684 -0.145121 21.5387
0.97093 -0.460693 21.3032
0.335153 -0.450374 21.415
0.886091 -0.294441 20.9225
0.595253 -0.661999 21.2631
1.72355 -0.584375 17.5247
0.646807 -0.314612 20.7347
1.18476 -0.5789 18.4943
-0.695992 0.429185 19.9474
-0.480053 0.38989 19.684
-1.01998 0.519911 20.5985
-1.11725 1.00383 20.0749
-0.739543 0.221951 21.3082
-1.36088 0.884343 21.0007
-0.0661828 -0.163063 21.4109
-0.467164 0.123517 21.6427
0.278534 -0.405524 21.2291
0.0897642 -0.404089 21.4105
0.49792 -0.5729 20.7578
0.337667 -0.70485 21.1234
0.267992 -0.507593 20.5594
-1.14213 -1.36346 18.8781
-0.521557 -0.362717 19.2379
0.0011014 -0.551441 19.0538
-0.594507 -1.05466 21.2516
0.0111307 -4.54574 21.2755
0.000905932 -0.177891 19.8386
0.000993658 -0.44935 19.0529
0.137643 0.407302 18.6868
-0.00169977 -0.0959372 17.2415
0.662478 1.4862 18.5626
-0.00646233 0.68282 15.1008
0.524326 1.28811 19.6548
1.36971 1.71333 16.0718
-0.00284131 1.88667 16.6765
1.36912 0.928892 15.5173
0.00674795 1.25949 16.6145
-0.60333 -0.140372 19.0502
0.00436136 -0.431343 18.7747
1.91889 1.20696 13.3282
2.24847 0.575712 9.47254
0.00650689 0.814153 4.84347
1.82651 0.697203 11.3387
0.0226332 1.17699 11.7482
-0.552501 0.404019 19.1681
0.00824922 0.143799 18.4479
1.86427 -0.267177 10.6546
0.86533 -1.31682 16.5743
0.0783203 0.271426 -4.52353
0.703639 -1.07694 18.8075
0.0521468 0.209107 2.37767
-0.759884 1.12328 19.4416
0.0179692 0.726663 19.2783
-1.22678 1.599 20.3713
0.0425375 2.33137 19.7326
-1.23183 1.14754 21.9141
0.0284684 3.38282 20.4746
-0.146106 -0.204802 21.6712
-0.0232916 0.664981 22.3637
0.112342 -0.672225 21.4003
-0.0151891 -0.226293 21.0365
0.283351 -0.883102 20.1505
-0.000319991 -0.886017 20.5521
0.0165109 -0.968118 19.756
1.15933 -1.32749 18.911
0.526113 -0.357395 19.242
0.530212 -0.316365 19.6106
0.628957 -1.07957 21.4516
1.80746 -1.46503 20.3169
0.00115788 -0.179619 19.8795
0.363024 -0.635907 21.3505
-0.131064 0.402573 18.5812
-0.0103033 -0.168744 21.453
-0.651385 1.47498 18.4042
-0.866247 0.735689 21.0439
-0.518293 1.29317 19.6304
-1.3611 1.71537 16.0294
-1.15712 1.02298 20.981
-1.35769 0.931472 15.4173
-0.967921 0.653928 21.4122
0.60801 -0.138502 19.0671
0.625884 -0.225347 19.4594
-1.91829 1.22993 13.2716
-2.23635 0.589371 9.16655
-1.68269 0.631312 19.3618
-1.82071 0.726289 11.1055
-1.30307 0.49812 18.2695
0.558967 0.380587 19.2003
0.679375 0.0641968 19.3749
-1.8531 -0.274956 10.1127
-0.813919 -1.31457 15.5746
-1.75597 -0.587464 17.2026
-0.72001 -0.990975 18.2779
-1.21045 -0.548039 18.217
0.785497 1.06549 19.4785
0.482053 0.368796 19.6995
1.24569 1.54106 20.386
1.10779 0.941956 20.0983
1.23243 1.18691 21.9272
1.34973 0.861974 21.0035
0.160446 -0.201066 21.709
0.470592 0.134327 21.6701
-0.0593918 -0.668839 21.3568
-0.0807794 -0.418677 21.4232
-0.276997 -0.939021 19.9905
-0.30409 -0.710177 21.1927
-0.253644 -0.566274 20.4243
0.896038 -0.436811 19.8692
0.544109 -0.178864 19.7479
0.874279 -0.607903 20.9621
1.42853 -0.617522 20.3219
0.250283 -0.313149 21.318
0.592862 -0.508474 21.2112
-0.29051 0.058159 21.509
0.0495621 -0.182732 21.4438
-0.857594 0.329151 21.1928
-0.787254 0.184276 21.4062
-0.843763 0.357077 20.4372
-1.02896 0.188918 21.3014
-0.936081 0.0156874 21.0043
1.09697 -0.319853 19.7221
0.598759 -0.0666404 19.6854
1.1452 -0.590231 20.9954
1.72661 -0.243743 20.2793
0.345505 -0.383922 21.38
0.941919 -0.484791 21.2199
-0.369761 -0.0423368 21.5822
0.147602 -0.260803 21.5601
-1.09659 0.13276 21.2334
-0.880163 -0.197274 21.4325
-0.94035 0.215192 20.6023
-1.22451 -0.206386 21.5076
-1.12038 -0.321173 20.5369
1.20254 0.0850745 19.7012
0.568787 0.182213 19.7673
1.47942 -0.147023 20.8575
1.32461 0.447911 20.2032
0.71641 -0.28937 21.4525
1.25746 0.112975 21.075
-0.226126 -0.282588 21.6286
0.37257 -0.146311 21.5604
-0.963124 -0.471516 21.2761
-0.33532 -0.463865 21.4378
-0.900853 -0.312286 20.8741
-0.612912 -0.679423 21.304
-0.671585 -0.369107 20.5777
0.676848 0.410126 19.973
1.00592 0.497954 20.6036
0.747329 0.233063 21.3169
0.0718956 -0.174747 21.4269
-0.264608 -0.454637 21.2037
-0.516596 -0.569152 20.6872
-1.00437 -0.374099 19.7904
-1.41568 -1.34656 18.457
-1.14225 -0.818692 19.4823
-1.52209 -0.614571 19.127
-0.574235 -0.287444 19.5328
-2.39876 -1.59324 20.2475
-1.00377 -0.610326 20.9884
-0.0106705 -0.534082 15.6404
-0.892044 -1.01292 21.2859
-1.32669 -1.18136 21.4588
-0.407369 -0.772216 21.3601
-0.289727 -0.351327 21.3505
0.107231 -0.0374102 13.9085
-0.126766 -0.378489 21.3615
-0.178185 -0.517917 20.3728
-0.00743 -0.219922 21.0504
0.335583 0.018003 21.5662
-0.0433455 0.302776 12.1608
0.355252 0.25365 21.4572
0.450483 0.337555 19.1409
1.1204 0.779291 20.0848
1.01458 0.219599 21.249
0.863188 1.52485 14.2454
1.12486 0.823699 21.0787
1.66617 0.721332 19.29
1.39503 0.835876 20.4199
0.886078 0.29253 20.5351
1.17654 1.26404 16.6423
0.791719 0.572627 21.7611
1.37273 0.330797 20.9252
1.12111 0.573082 20.2474
-1.17173 -0.143441 19.7046
-2.06325 -0.481571 17.4611
-1.74564 0.192644 19.0205
-0.659738 -0.0820446 19.3821
-3.62405 -0.550501 20.1122
-1.33599 -0.399138 20.9437
-2.3184 -0.314839 21.1044
-1.04572 -1.04721 20.9796
-0.52333 -0.3937 21.4383
-1.01253 -0.754728 21.0265
-0.0708208 -0.111679 19.5944
0.335817 -0.186567 21.6129
0.536191 -0.0586125 18.82
1.45378 0.05984 16.8245
1.1426 -0.188116 21.1972
1.23256 -0.0747103 5.21442
1.41377 -0.596851 18.0995
2.09326 0.116511 18.5985
1.1328 -0.050743 20.5294
2.39434 0.783062 11.7732
1.57589 -0.542092 19.1967
1.46555 0.177915 16.0129
-0.973534 0.354277 19.8223
-1.34549 1.33365 18.6872
-0.817039 0.729094 19.7279
-0.63628 0.308971 19.4859
-2.02002 1.15923 19.9955
-1.36636 0.295013 20.687
-2.3902 1.82083 20.4385
-1.26651 0.980201 20.5174
-2.12145 0.424211 21.1648
-0.870073 -0.0482781 21.4299
-2.1668 0.316224 19.8252
-1.0121 0.529231 21.5483
-0.580454 -0.118044 21.8418
0.0311012 -0.286999 21.5079
0.66772 0.00368171 14.9041
-0.0935701 -0.195626 21.5472
0.274137 -0.672882 21.2355
0.525391 -0.602606 21.292
0.462759 -0.714206 14.7498
0.220683 -0.562765 21.2952
0.756762 -0.974131 20.1552
0.564875 -0.528101 21.0868
0.906436 -1.26757 17.6402
0.495219 -0.6441 20.7757
0.736771 -0.743852 19.6624
1.42106 -1.31656 18.4866
0.0121931 -2.15656 18.1441
0.00368428 -2.02695 16.4055
0.00462953 -0.496217 18.8978
-0.0246126 -5.4607 21.9919
0.0246188 -0.546202 15.9294
-0.000158471 -1.13498 20.9959
-0.00129756 -0.100972 10.949
-0.1028 -0.0392049 13.9633
-0.00106972 -0.242442 17.788
-0.000691336 -0.0231134 9.81168
0.0425271 0.297335 12.0952
-0.0017894 0.168851 15.9191
-0.0104939 0.487285 7.40381
-0.849378 1.52251 14.1355
-0.0118006 0.92743 15.9335
-0.00454016 -0.205267 1.70409
0.000892536 1.43318 10.7244
-1.17213 1.27757 16.6029
0.0166783 1.91347 17.3452
0.0255621 1.42277 7.35191
0.0146906 1.21824 14.1813
2.06488 -0.477579 17.4903
0.0149861 1.3106 15.2849
0.00710808 -0.200509 18.4527
-1.18529 -0.0629386 5.04872
0.0155082 0.650579 -5.4099
0.0578052 -0.327767 -4.09206
-2.42503 0.825142 11.4161
0.0659254 -0.0616358 -1.71165
0.0459216 1.04405 7.26938
1.35379 1.27748 18.7379
0.0401247 1.57054 19.1401
0.011709 0.644457 18.758
0.0503777 4.58061 19.5441
2.39593 1.76061 20.45
0.0336548 2.37187 20.1413
0.0257114 5.28973 17.3971
2.16023 0.317319 19.6526
-0.0165902 2.40488 22.5393
0.0130507 -0.0858666 7.28341
-0.762088 0.0381995 13.7537
-0.0169482 -0.0504496 21.6426
-0.0731615 0.343775 0.948408
-0.329218 -0.718968 13.5644
-0.0154574 -0.493457 20.8404
0.0228275 -1.27018 6.01996
-0.871657 -1.26902 16.3906
0.00879744 -1.07111 19.9822
0.0104756 -0.833527 9.07309
1.00261 -0.370781 19.7807
1.13867 -0.800157 19.5016
1.52033 -0.613763 19.1242
0.576604 -0.285255 19.5399
2.3834 -1.57286 20.2414
1.00538 -0.609385 20.9866
0.896566 -0.99666 21.2711
1.32091 -1.18462 21.4428
0.417336 -0.769376 21.3649
0.289925 -0.350874 21.3497
0.133101 -0.38153 21.3709
0.180132 -0.519024 20.379
0.0101456 -0.219744 21.0515
-0.334533 0.0158449 21.5587
-0.354371 0.253255 21.4489
-0.453663 0.325568 19.2526
-1.11624 0.774255 20.0867
-1.00106 0.22371 21.2224
-1.12004 0.82571 21.0891
-1.65575 0.710717 19.2993
-1.3966 0.836633 20.4046
-0.889255 0.292238 20.5294
-0.787669 0.577277 21.7752
-1.38291 0.328187 20.9211
-1.12016 0.58017 20.1948
1.17129 -0.14531 19.7048
1.74061 0.190896 19.0307
0.657858 -0.0797772 19.3894
3.66735 -0.552443 20.1168
1.34354 -0.407852 20.951
2.32414 -0.316589 21.1053
1.04297 -1.05184 20.9432
0.520834 -0.395996 21.4424
1.01147 -0.755086 21.0051
0.0705417 -0.11836 19.6376
-0.334536 -0.189201 21.6142
-0.532224 -0.0635294 18.8529
-1.44899 0.0519751 16.9172
-1.13475 -0.190299 21.1826
-1.40302 -0.588951 17.9944
-2.12367 0.117169 18.4474
-1.14088 -0.045156 20.5128
-1.60325 -0.537516 18.8543
-1.47054 0.202558 15.8212
0.962912 0.342966 19.8371
0.81297 0.687834 19.7526
0.630639 0.297044 19.5044
1.99243 1.09374 20.0098
1.35256 0.285409 20.6877
1.25186 0.93256 20.5281
2.10333 0.415524 21.1636
0.875643 -0.0460953 21.4379
1.01886 0.542097 21.5566
0.592514 -0.120047 21.8531
-0.0337462 -0.291451 21.5237
0.0989671 -0.192871 21.5587
-0.259692 -0.680487 21.1388
-0.51766 -0.619693 21.2931
-0.20806 -0.591544 21.3176
-0.781346 -1.01379 19.823
-0.584609 -0.573844 21.1454
-0.406129 -0.705785 21.0142
-0.736243 -0.785803 19.5663
-1.32622 -0.735537 19.3223
-1.06211 -1.10372 21.3868
-0.137762 -0.46227 21.1882
0.417461 0.280888 20.6596
1.38221 0.880196 19.829
1.03052 0.466774 21.46
-1.7032 -0.219311 18.9993
-1.88337 -0.922909 21.3802
-0.400009 -0.641935 20.0915
0.570303 0.230541 18.4638
1.82658 0.056327 17.8202
1.84118 0.0104401 20.267
-1.31768 0.73498 19.3684
-1.95802 0.724329 20.6527
-1.42048 0.0704666 21.8275
-0.0128515 -0.404769 21.6239
0.521807 -0.844574 20.9445
0.817586 -0.858521 20.3171
0.0107444 -2.22875 17.3529
0.00188425 -0.330589 12.0176
-0.00108939 -0.0646894 10.085
-0.00139272 0.0771105 8.7173
-0.0150058 0.777166 9.01434
0.0205061 1.68865 12.6054
0.00777372 -0.581888 15.4358
0.026457 -0.324316 -4.57437
0.0531016 0.88126 -0.350221
0.0348767 2.172 17.7931
0.0258087 3.09777 19.9339
2.89058e-05 0.545831 7.39759
-0.0169402 -0.0391453 3.43191
-0.0661214 0.328792 2.38917
-0.0119605 -0.874937 7.47029
1.32439 -0.728942 19.3342
1.06337 -1.09463 21.3602
0.142451 -0.463066 21.217
-0.416363 0.27632 20.6671
-1.36813 0.883756 19.8291
-1.0353 0.468286 21.4597
1.70013 -0.219186 19.0032
1.88573 -0.92832 21.3786
0.399808 -0.642414 20.0905
-0.56945 0.220508 18.5437
-1.82392 0.0587917 17.7906
-1.86704 0.0048773 20.2309
1.30577 0.709279 19.3939
1.94035 0.701374 20.6547
1.43325 0.0723151 21.8366
0.0124578 -0.410111 21.5288
-0.514846 -0.855712 20.8515
-0.850042 -0.912479 19.9666
-0.997387 -0.495285 1.45591
-0.00258046 -0.0548511 0.200506
0.0168464 -0.0278607 0.788311
0.049061 -0.00510974 0.136449
-0.0042664 0.00647456 0.0496018
-0.0127698 0.0626077 0.620116
-0.310153 0.0679467 0.365035
0 0 0
-0.345831 -0.0537351 1.32194
0.0308885 -0.131673 0.153507
-0.0889193 0.0425702 -0.0446346
-0.039846 -0.0717841 0.31953
0.00297787 -0.0531848 0.194796
1.00563 -0.499589 1.46814
-0.0162084 -0.0277102 0.787585
0.00424028 0.00655414 0.0500262
-0.0491447 -0.00522976 0.136659
0.0123467 0.0623864 0.619016
0 0 0
0.35467 0.0774494 0.417863
0.345029 -0.0538241 1.32009
0.0896539 0.0454522 -0.0478116
-0.0301256 -0.128432 0.149367
0.0390922 -0.0708316 0.31654
0.0101973 -0.00110432 0.225706
0.000883553 -0.000662121 0.0960115
-0.000232339 -0.00139724 0.0342653
0 0 0
-0.025009 0.0197964 0.363052
0.00103539 -0.000766007 0.163326
0 0 0
0 0 0
-0.180925 -0.138752 0.531971
-0.000478196 -0.000317002 0.0285729
0 0 0
-0.0342858 0.0198929 0.0426873
0.00587004 0.0113101 0.0622314
0.00225308 0.0199038 0.094248
0.00167895 0.00400861 0.0142861
0.0444454 0.0192885 0.251365
-0.0102518 -0.00112233 0.225597
0 0 0
-0.000857029 -0.000658737 0.0959158
0.000244036 -0.00141961 0.0350406
0.0249741 0.0197799 0.362908
0 0 0
-0.00101016 -0.000790582 0.167429
0 0 0
0.180785 -0.138624 0.531848
0.0340159 0.0196363 0.0423787
0.000470979 -0.000311896 0.0281295
0 0 0
-0.0059562 0.011684 0.0624067
-0.0446181 0.0193605 0.251833
-0.00231638 0.0202393 0.0953184
-0.0017045 0.00408251 0.0146084
-0.043383 -0.0318182 0.414966
-0.0578675 0.0245258 0.0288082
2.55561e-08 -1.49531e-05 0.000775624
-4.86169e-05 -0.991932 0.474214
0 0 0
-1.89718e-06 3.2327e-07 -4.6274e-05
0.0146575 -0.0054191 0.0950875
-0.0839778 -0.0243148 0.0106014
-1.43415e-05 0.0014972 0.0205002
-0.000938044 -0.0603096 -0.00664554
0.00418043 0.00337744 0.104347
-3.28759e-09 1.083e-08 3.07607e-06
-0.00132264 0.648254 0.312807
5.0832e-05 0.0457661 0.342382
0 0 0
-0.0122913 0.00400244 0.0407886
0 0 0
-5.08808e-07 2.18359e-07 -4.67105e-05
0.0103028 0.00780909 0.122525
-0.0152098 0.00900427 -0.0101146
0.053267 0.0227074 0.0265456
0.0423317 -0.0309171 0.403731
3.00172e-06 5.06328e-07 -7.23582e-05
0 0 0
0.0861107 -0.0245292 0.0110099
-0.0146327 -0.00545263 0.0950997
6.61036e-09 3.38583e-08 9.60647e-06
-0.00416209 0.00338352 0.104658
0.0121037 0.00393435 0.0401517
0 0 0
0.0152761 0.0091223 -0.0102359
-0.0103748 0.0078828 0.124302
-0.000938644 0.00191396 0.0266918
0 0 0
-0.00582021 -0.0152231 0.199922
-0.00677002 0.0243713 0.322086
-9.31271e-08 8.20091e-07 0.000593851
-3.8946e-09 -1.38583e-08 3.95903e-05
-0.000981512 0.0152877 0.0778033
0.00448202 0.00968758 0.130648
-7.63526e-09 -6.77155e-08 0.000106727
-1.98445e-08 9.72909e-08 0.000113906
0 0 0
-0.011822 0.0852358 1.15875
5.97484e-06 0.00163199 -0.00177894
0.00190425 0.191254 0.526612
1.33676e-06 1.40693e-06 0.000200164
-8.58881e-06 -0.00224992 0.0151994
0 0 0
0.000935265 0.00190662 0.026561
0.0064987 -0.0157595 0.200403