# vtk DataFile Version 2.0
tet_velo
ASCII
DATASET UNSTRUCTURED_GRID
POINTS 29498 float
-0.695053 0.275 -1.835
-0.825 0.275 1.83816
-0.749474 0.985 -1.645
-0.825 0.985 1.77596
0.695214 0.275 -1.835
0.825 0.275 1.838
0.749644 0.985 -1.645
0.825 0.985864 1.775
-0.740434 0.272935 -0.610613
-0.783634 0.273051 0.613773
-0.819574 1.02992 -0.50468
-0.816182 1.00136 0.63564
0.740542 0.272934 -0.610667
0.783689 0.273049 0.613667
0.819604 1.03013 -0.505
0.806289 0.991984 0.635
-1.4706 -0.0987249 -2.8278
-1.47118 -0.0899136 -1.88205
-1.51191 -0.0895444 -0.655467
-1.56225 -0.0900675 0.588097
-1.60144 -0.0887143 1.81611
-1.60897 -0.0911438 2.76887
-1.60611 -0.0948817 3.70866
-1.46993 0.263873 -2.76309
-1.47305 0.277586 -1.82654
-1.52428 0.279389 -0.616306
-1.57631 0.272704 0.601538
-1.61882 0.270977 1.81338
-1.62134 0.268432 2.76491
-1.61444 0.265274 3.70743
-1.49525 0.98729 -2.61
-1.52041 1.00195 -1.66994
-1.58359 1.02575 -0.517027
-1.60779 1.00299 0.629976
-1.6284 0.988069 1.78449
-1.62875 0.986014 2.73937
-1.62213 0.985304 3.69538
-1.52963 2.09697 -2.44362
-1.54826 2.11059 -1.51616
-1.58291 2.12112 -0.390617
-1.60763 2.10671 0.716811
-1.61765 2.08795 1.84321
-1.62023 2.07975 2.77245
-1.62004 2.07619 3.71932
-0.717438 -0.101088 -2.83331
-0.710209 -0.0922737 -1.89006
-0.738109 -0.0931758 -0.654518
-0.771367 -0.0899206 0.59858
-0.799685 -0.0861967 1.83453
-0.805094 -0.0897521 2.78128
-0.80308 -0.0945757 3.71575
-0.71355 0.260128 -2.76483
-0.815604 0.269567 2.77507
-0.809657 0.265294 3.71271
-0.731456 0.97936 -2.59966
-0.82015 0.98475 2.7374
-0.815846 0.984174 3.69475
-0.753832 2.09336 -2.43344
-0.764786 2.10814 -1.50495
-0.791214 2.12124 -0.383956
-0.809907 2.10503 0.715765
-0.814635 2.08518 1.83709
-0.816304 2.07723 2.76634
-0.817207 2.07412 3.71482
0.745639 -0.101382 -2.83339
0.728827 -0.0924443 -1.89012
0.75777 -0.0934858 -0.654612
0.793987 -0.0902949 0.598431
0.820906 -0.0864465 1.83432
0.815497 -0.0901697 2.78095
0.808944 -0.0952944 3.71537
0.742845 0.259923 -2.76489
0.815079 0.269345 2.77467
0.80743 0.264633 3.71228
0.762027 0.979129 -2.59973
0.812943 0.984473 2.73676
0.803546 0.983341 3.69423
0.787886 2.09252 -2.43363
0.793403 2.1071 -1.50518
0.794794 2.11918 -0.384292
0.792153 2.10168 0.715291
0.796193 2.08251 1.83653
0.795265 2.07528 2.76578
0.79102 2.07246 3.7143
1.49079 -0.0995178 -2.82801
1.47869 -0.0905865 -1.88225
1.51956 -0.0910484 -0.655767
1.574 -0.0920851 0.587649
1.61371 -0.0897886 1.81553
1.61705 -0.0923605 2.76816
1.61071 -0.0965385 3.70788
1.48656 0.263242 -2.76328
1.46768 0.277203 -1.82671
1.51831 0.27762 -0.616638
1.57322 0.269566 0.600995
1.618 0.270306 1.81267
1.61985 0.267451 2.76409
1.61122 0.263676 3.70658
1.51265 0.986583 -2.61021
1.51531 1.00151 -1.67018
1.57434 1.02311 -0.517587
1.59413 0.994009 0.628999
1.62117 0.986055 1.7832
1.61879 0.984548 2.73823
1.60831 0.983323 3.69437
1.55637 2.09514 -2.44403
1.56686 2.10832 -1.51664
1.58033 2.11705 -0.391281
1.58781 2.10063 0.715907
1.59607 2.08285 1.84215
1.59658 2.07583 2.77139
1.59211 2.07282 3.71832
-0.778575 0.63 -1.79631
8.04961e-05 0.271448 -1.83855
-0.718882 0.272829 -1.22281
-0.853423 0.63 1.83548
0 0.271118 1.84196
-0.805304 0.273039 1.22597
8.49962e-05 1.03419 -1.69419
-0.813794 1.03673 -1.07484
0 1.15918 1.94922
-0.839251 1.01184 1.2058
0.778739 0.63 -1.79631
0.719016 0.272829 -1.22283
0.853539 0.630432 1.83504
0.805333 0.273036 1.22583
0.813893 1.03683 -1.075
0.838597 1.01188 1.205
-0.762033 0.272993 0.00158
-0.895389 0.65143 -0.557647
5.4152e-05 0.270502 -0.61064
-0.894501 0.637204 0.624707
2.74649e-05 0.270498 0.61372
-0.825354 1.02312 0.06548
1.47702e-05 1.39078 -0.50484
-0.00494655 1.50773 0.63532
0.762114 0.272993 0.00150001
0.895551 0.651531 -0.557833
0.894086 0.632517 0.624333
0.82529 1.0234 0.065
-0.89566 0.640715 -1.14882
-0.89507 0.644317 0.03353
-0.894996 0.633602 1.21588
6.7324e-05 0.270473 -1.22282
4.08084e-05 0.2705 0.00154001
1.37324e-05 0.270452 1.2259
8.27461e-05 0.63 -2.02908
0 0.630216 2.05287
4.98832e-05 1.11281 -1.07492
-0.00246589 1.50773 0.06524
-0.00247328 1.50773 1.2054
0.895644 0.640766 -1.14892
0.894972 0.642024 0.03325
0.895021 0.631474 1.21542
-1.08405 0.276293 -1.83077
-0.702631 0.0913632 -1.86253
-0.704302 0.267564 -2.29992
-1.22191 0.272989 1.82577
-0.812343 0.0944017 1.83635
-0.820302 0.272284 2.30661
-1.13494 0.993476 -1.65747
-0.740465 0.98218 -2.12233
-0.75713 1.54657 -1.57498
-1.2267 0.986534 1.78022
-0.822575 0.984875 2.25668
-0.819818 1.53509 1.80653
0.71202 0.0912778 -1.86256
0.719029 0.267462 -2.29995
1.08145 0.276102 -1.83086
0.822953 0.0942768 1.83616
0.820039 0.272172 2.30634
1.2215 0.272653 1.82534
0.755836 0.982064 -2.12237
0.771523 1.54605 -1.57509
1.13248 0.993253 -1.65759
0.818971 0.985169 2.25588
0.810596 1.53419 1.80576
1.22308 0.98596 1.7791
-1.13236 0.276162 -0.61346
-0.739272 0.0898795 -0.632566
-1.17997 0.272877 0.607656
-0.7775 0.091565 0.606177
-1.20158 1.02784 -0.510853
-0.805394 1.57558 -0.444318
-1.21199 1.00217 0.632808
-0.813045 1.5532 0.675703
0.749156 0.089724 -0.632639
1.12943 0.275277 -0.613652
0.788838 0.0913772 0.606049
1.17845 0.271308 0.607331
0.807199 1.57466 -0.444646
1.19697 1.02662 -0.511294
0.799221 1.54683 0.675146
1.20021 0.992996 0.631999
-1.47089 -0.0943192 -2.35493
-1.47026 0.0825743 -2.79544
-1.09402 -0.0999062 -2.83055
-1.49155 -0.089729 -1.26876
-1.47212 0.0938361 -1.8543
-1.0907 -0.0910936 -1.88606
-1.53708 -0.089806 -0.0336851
-1.51809 0.0949222 -0.635887
-1.12501 -0.0913601 -0.654993
-1.58185 -0.0893909 1.20211
-1.56928 0.0913183 0.594817
-1.16681 -0.0899941 0.593338
-1.6052 -0.0899291 2.29249
-1.61013 0.0911316 1.81475
-1.20056 -0.0874555 1.82532
-1.60754 -0.0930128 3.23877
-1.61515 0.0886439 2.76689
-1.20703 -0.0904479 2.77507
-1.61027 0.085196 3.70805
-1.20459 -0.0947287 3.71221
-1.47149 0.27073 -2.29481
-1.48259 0.625582 -2.68654
-1.09174 0.262001 -2.76396
-1.49866 0.278487 -1.22142
-1.49673 0.639769 -1.74824
-1.5503 0.276046 -0.00738425
-1.55393 0.652571 -0.566667
-1.59757 0.271841 1.20746
-1.59205 0.637846 0.615757
-1.62008 0.269705 2.28915
-1.62361 0.629523 1.79893
-1.61789 0.266853 3.23617
-1.62504 0.627223 2.75214
-1.21847 0.269 2.76999
-1.61828 0.625289 3.70141
-1.21205 0.265284 3.71007
-1.50783 0.994621 -2.13997
-1.51244 1.54213 -2.52681
-1.11335 0.983325 -2.60483
-1.552 1.01385 -1.09348
-1.53433 1.55627 -1.59305
-1.59569 1.01437 0.0564745
-1.58325 1.57344 -0.453822
-1.6181 0.995529 1.20723
-1.60771 1.55485 0.673393
-1.62857 0.987041 2.26193
-1.62302 1.53801 1.81385
-1.62544 0.985659 3.21738
-1.62449 1.53288 2.75591
-1.22445 0.985382 2.73839
-1.62108 1.53075 3.70735
-1.21899 0.984739 3.69507
-1.53894 2.10378 -1.97989
-1.14173 2.09517 -2.43853
-1.56558 2.11585 -0.953389
-1.15652 2.10937 -1.51056
-1.59527 2.11391 0.163097
-1.18706 2.12118 -0.387286
-1.61264 2.09733 1.28001
-1.20877 2.10587 0.716288
-1.61894 2.08385 2.30783
-1.21614 2.08657 1.84015
-1.62013 2.07797 3.24589
-1.21826 2.07849 2.76939
-1.21862 2.07515 3.71707
-0.713823 -0.0966806 -2.36168
-0.715494 0.0795204 -2.79907
0.0141003 -0.101235 -2.83335
-0.724159 -0.0927247 -1.27229
0.00930897 -0.092359 -1.89009
-0.754738 -0.0915482 -0.0279692
0.00983051 -0.0933308 -0.654565
-0.785526 -0.0880587 1.21655
0.01131 -0.0901078 0.598505
-0.80239 -0.0879744 2.30791
0.0106104 -0.0863216 1.83443
-0.804087 -0.0921639 3.24852
-0.810349 0.0899077 2.77817
0.00520141 -0.0899609 2.78112
-0.806369 0.0853589 3.71423
0.00293209 -0.094935 3.71556
-0.722503 0.619744 -2.68224
0.0146472 0.260026 -2.76486
-0.812631 0.26743 3.24389
-0.817877 0.627158 2.75623
-0.000262784 0.269456 2.77487
-0.812752 0.624734 3.70373
-0.00111364 0.264963 3.71249
-0.742644 1.53636 -2.51655
0.0152854 0.979244 -2.5997
-0.817998 0.984462 3.21608
-0.818227 1.53099 2.75187
-0.00360356 0.984611 2.73708
-0.816526 1.52914 3.70479
-0.00614983 0.983757 3.69449
-0.759309 2.10075 -1.9692
0.017027 2.09294 -2.43354
-0.778 2.11469 -0.944455
0.0143085 2.10762 -1.50507
-0.800561 2.11314 0.165905
0.00179005 2.12021 -0.384124
-0.812271 2.09511 1.27643
-0.00887694 2.10336 0.715528
-0.81547 2.0812 2.30172
-0.00922125 2.08385 1.83681
-0.816755 2.07567 3.24058
-0.0105196 2.07625 2.76606
-0.0130935 2.07329 3.71456
0.737233 -0.096913 -2.36175
0.744242 0.0792707 -2.79914
1.11822 -0.10045 -2.8307
0.743298 -0.0929651 -1.27236
1.10376 -0.0915154 -1.88618
0.775879 -0.0918904 -0.0280905
1.13866 -0.0922671 -0.65519
0.807447 -0.0883707 1.21638
1.18399 -0.09119 0.59304
0.818202 -0.0883081 2.30764
1.21731 -0.0881176 1.82493
0.812221 -0.0927321 3.24816
0.815288 0.0895875 2.77781
1.21628 -0.0912651 2.77455
0.808187 0.0846694 3.71382
1.20983 -0.0959164 3.71162
0.752436 0.619526 -2.68231
1.1147 0.261583 -2.76408
0.811254 0.266989 3.24348
0.814011 0.626909 2.75572
1.21746 0.268398 2.76938
0.805488 0.623987 3.70325
1.20932 0.264154 3.70943
0.774957 1.53582 -2.51668
1.13734 0.982856 -2.60497
0.808244 0.983907 3.2155
0.804104 1.52988 2.75127
1.21587 0.984511 2.73749
0.797283 1.5279 3.70426
1.20593 0.983332 3.6943
0.790644 2.09981 -1.96941
1.17213 2.09383 -2.43883
0.794099 2.11314 -0.944737
1.18013 2.10771 -1.51091
0.793474 2.11043 0.165499
1.18756 2.11811 -0.387787
0.794173 2.0921 1.27591
1.18998 2.10116 0.715599
0.795729 2.0789 2.30116
1.19613 2.08268 1.83934
0.793142 2.07387 3.24004
1.19592 2.07556 2.76859
1.19157 2.07264 3.71631
1.48474 -0.0950522 -2.35513
1.48868 0.0818623 -2.79565
1.49912 -0.0908175 -1.26901
1.47319 0.0933084 -1.85448
1.54678 -0.0915668 -0.0340591
1.51894 0.0932858 -0.636202
1.59385 -0.0909368 1.20159
1.57361 0.0887405 0.594322
1.61538 -0.0910746 2.29185
1.61585 0.0902588 1.8141
1.61388 -0.0944495 3.23802
1.61845 0.0875451 2.76613
1.61096 0.0835686 3.70723
1.47712 0.270223 -2.295
1.49961 0.624913 -2.68674
1.493 0.277412 -1.22168
1.4915 0.639355 -1.74845
1.54577 0.273593 -0.00782104
1.54633 0.650366 -0.567112
1.59561 0.269936 1.20683
1.58367 0.631787 0.614997
1.61892 0.268878 2.28838
1.61958 0.628181 1.79794
1.61553 0.265563 3.23534
1.61932 0.625999 2.75116
1.60976 0.6235 3.70048
1.51398 0.994044 -2.1402
1.53451 1.54086 -2.52712
1.54482 1.01231 -1.09388
[...]
POINT_DATA 29498
VECTORS point_vectors float
-1.90783 -5.19114 8.65316
0.249549 0.578785 2.96466
-1.13297 1.33942 3.54648
0.0133019 -0.212618 0.433506
1.91699 -5.20344 8.68023
-0.261713 0.557042 2.92524
1.13457 1.34051 3.55532
0.0132 -0.242877 0.487646
-1.98559e-06 4.52243e-07 0.000231611
-0.000611449 0.000428905 0.0516347
0 0 0
0 0 0
1.50035e-06 3.24189e-07 0.000170854
0.000494333 0.000378089 0.0454571
0 0 0
0 0 0
-0.772236 -0.453559 19.8604
-1.30642 -0.938184 20.5914
-0.54139 -0.513527 21.466
-0.0646291 -0.199924 21.5679
0.404188 0.061242 21.6602
0.754319 0.264059 21.4318
0.784822 0.265588 21.3228
-1.02994 -0.36463 19.6628
-2.05658 -0.879056 20.5716
-0.721524 -0.557273 21.5895
-0.115235 -0.287278 21.6647
0.516378 -0.0619175 21.7847
0.931631 0.0896581 21.5232
1.0823 0.0531408 21.2899
-1.24255 0.207876 19.634
-2.11104 0.260832 20.6645
-1.1573 -0.260467 21.54
-0.357952 -0.316364 21.7176
0.3048 -0.390369 21.7562
0.7818 -0.467579 21.5476
1.26241 -0.552079 20.9171
-0.626361 0.483957 20.1327
-0.885256 0.616051 20.5921
-0.808819 0.388595 21.2406
-0.403797 0.0472354 21.5292
-0.0416709 -0.238849 21.529
0.207245 -0.41428 21.4186
0.314933 -0.470646 21.0465
-0.764185 -0.997995 19.1694
-1.45595 -3.28343 20.9274
-0.196209 -0.568626 21.8886
0.0106999 -0.0631122 21.2339
0.307328 0.700529 21.269
0.742943 1.27209 20.998
1.01726 1.58784 20.6841
-1.18698 -0.927607 18.3856
1.38997 1.368 13.0372
1.80012 1.37281 14.9647
-1.72106 0.916061 17.8759
0.433876 -1.07578 7.09627
1.99239 -0.493329 11.5136
-0.556499 0.986541 19.8018
-0.897588 1.47414 20.4393
-1.08841 1.36055 21.4751
-0.52933 0.349993 21.9102
-0.198268 -0.21897 21.6955
-0.0141597 -0.613681 21.6632
0.1806 -0.864642 21.8419
0.773248 -0.957223 19.1948
1.48576 -3.22462 20.9155
0.19462 -0.572158 21.8447
-0.0240652 -0.0725192 21.3058
-0.339045 0.66675 21.2936
-0.771003 1.2317 21.022
-1.03403 1.57519 20.7011
1.21443 -0.909562 18.4551
-1.37922 1.2783 12.8759
-1.79144 1.35232 14.8252
1.72833 0.888954 17.9653
-0.244129 -1.17464 6.22259
-1.88611 -0.464176 10.6697
0.571474 0.966893 19.8134
0.915966 1.44101 20.4454
1.09087 1.35956 21.4721
0.521305 0.368569 21.9114
0.193765 -0.183829 21.6788
0.0179171 -0.567833 21.6701
-0.17868 -0.828836 21.8828
0.765366 -0.441333 19.8677
1.29587 -0.923336 20.5944
0.549013 -0.5139 21.454
0.0673016 -0.211582 21.5616
-0.395423 0.0350327 21.6617
-0.74609 0.24642 21.4148
-0.78767 0.244616 21.3256
1.02196 -0.355662 19.6768
2.06726 -0.893998 20.5736
0.722223 -0.565792 21.5939
0.115892 -0.294522 21.6618
-0.50091 -0.0772596 21.7731
-0.916344 0.0679806 21.5381
-1.0876 0.0348224 21.3172
1.22204 0.204239 19.6675
2.12809 0.268483 20.6752
1.16512 -0.260096 21.5409
0.356256 -0.324825 21.7293
-0.281105 -0.39476 21.7617
-0.764239 -0.461487 21.5378
-1.24106 -0.573716 20.9665
0.623281 0.468301 20.1383
0.878053 0.605397 20.5962
0.811386 0.392443 21.2336
0.411597 0.053869 21.5391
0.0602854 -0.231997 21.513
-0.196379 -0.428973 21.4319
-0.302768 -0.510706 20.9879
-0.335311 -0.0402112 0.446326
5.91657e-05 -0.0503865 0.370658
-0.0265897 0.00574301 0.23072
0.0567844 -0.0223145 0.201271
-0.000677768 0.00572416 0.151883
-0.00160927 -0.000229119 0.281524
0.00132738 0.105568 0.398982
-0.227933 -0.0948675 0.610168
-0.0260839 0.0415438 -0.0530818
0.00763698 0.0127719 0.121915
0.337341 -0.0411213 0.449225
0.0256378 0.00540684 0.23114
-0.055233 -0.0264748 0.195937
0.000757618 -0.000447856 0.280026
0.228359 -0.0946428 0.612172
-0.00737958 0.012251 0.116758
-3.94108e-05 8.58152e-06 0.00488102
0.000138881 -0.00172488 0.0430371
2.03604e-08 -7.22044e-09 -2.94568e-06
-8.85791e-05 0.000798296 0.00732886
6.29355e-08 -1.10832e-08 -1.50759e-05
0 0 0
-1.18551e-07 0.00199881 0.00354174
-6.84573e-07 2.93629e-07 0.000166754
2.27795e-05 1.09144e-05 0.00505252
-0.000154503 -0.00192416 0.0430033
0.000273855 0.00251449 0.0233498
0 0 0
-5.36798e-06 -0.000139467 0.000895309
-7.83233e-05 0.00247086 0.0259778
0 0 0
6.48946e-08 8.93844e-08 -1.12017e-05
3.73646e-08 -1.13449e-08 -8.35653e-06
1.04557e-07 -4.34278e-08 -2.415e-05
0 0 0
-0.000117102 -0.0116656 -0.00234817
-2.89371e-05 0.00308919 0.0196771
8.11217e-08 -8.5546e-07 -9.02095e-05
0 0 0
6.14985e-06 -0.000144809 0.000966837
4.82407e-05 0.00157229 0.016691
0 0 0
-3.84706 -2.4406 20.493
-2.17446 -5.36536 21.3231
-2.97776 -2.87448 17.1756
0.886395 0.177682 21.0443
0.246505 0.895944 16.774
0.850833 1.02116 9.77155
-4.0763 1.1316 20.842
-4.29943 3.23047 16.8354
-1.9559 2.50185 20.3575
0.581258 -0.643133 20.7298
-0.367549 -1.39129 4.68866
0.109638 -0.346519 17.1868
2.2355 -5.28017 21.2887
2.97726 -2.79055 17.2721
3.85956 -2.46374 20.5002
-0.290221 0.871071 16.8925
-0.855722 0.926524 9.63053
-0.865657 0.147944 21.0053
4.27604 3.08952 16.9717
1.96745 2.4675 20.3629
4.09692 1.13847 20.84
0.516684 -1.3752 4.23795
-0.116021 -0.276076 16.7588
-0.548378 -0.64059 20.6107
-0.486519 -0.822913 20.8238
-0.157572 -0.162718 17.2387
-0.000778283 -0.280324 20.3692
-0.0190546 0.0688424 15.7183
-1.68934 -0.830775 21.5997
-3.27566 1.89258 21.7622
-0.275373 -0.612895 20.6281
-0.799342 0.205251 19.641
0.14736 -0.181285 17.2959
0.490089 -0.830427 20.7995
0.00635474 0.0641521 15.8706
0.00227635 -0.286949 20.349
3.272 1.88174 21.7614
1.69301 -0.8498 21.5685
0.70047 0.250745 18.8682
0.249563 -0.623782 20.4009
-1.10701 -0.716183 20.0751
-0.920624 -0.429302 19.7523
-0.847417 -0.705137 19.5416
-0.971256 -0.771294 21.2846
-1.67321 -0.936464 20.5805
-1.69652 -1.92185 20.6531
-0.261264 -0.32538 21.539
-0.643391 -0.548118 21.5304
-0.384989 -0.671461 21.7242
0.13574 -0.0825553 21.6804
-0.0868535 -0.244462 21.5933
0.017633 -0.216402 21.7215
0.603602 0.186356 21.5797
0.441585 0.0192311 21.6811
0.54201 0.305133 21.8897
0.867675 0.330536 21.3584
0.827619 0.194626 21.4876
0.97005 0.666161 21.4435
0.914997 0.231883 21.2419
1.16155 0.869811 21.1031
-1.63944 -0.631519 19.8615
-1.21519 -0.103541 19.588
-1.21979 -0.58843 19.1572
-1.37676 -0.757968 21.4776
-2.3517 -0.283471 20.6643
-0.367159 -0.405152 21.601
-0.94648 -0.454411 21.5822
0.141805 -0.177702 21.7619
-0.217812 -0.32363 21.715
0.756577 0.0155971 21.6884
0.465028 -0.247466 21.8191
1.06842 0.174716 21.1332
0.95949 -0.200674 21.6018
1.46801 0.440069 20.8441
1.23131 -0.222217 21.3444
1.96109 0.549013 20.173
-1.86049 0.311195 19.9503
-0.913479 0.476642 19.8968
-1.58446 0.493222 18.9678
-1.6497 -0.0397599 21.2947
-1.42303 0.643822 20.6024
-0.724971 -0.323488 21.6772
-1.16471 0.19281 21.3878
-0.0437961 -0.327081 21.7742
-0.483663 -0.125671 21.6671
0.546519 -0.436448 21.6823
0.0635249 -0.362664 21.6422
0.970217 -0.490878 21.302
0.420569 -0.543918 21.4814
1.23158 -0.804142 20.763
0.674602 -0.603242 21.4738
1.70077 -0.805171 20.0191
-0.773089 0.590187 20.3128
-0.662134 0.716818 19.9594
-0.893262 0.543539 20.9536
-0.969151 1.01048 20.5442
-0.626206 0.216717 21.4558
-1.01458 0.744835 21.3666
-0.212291 -0.105265 21.5479
-0.486502 0.14843 21.723
0.0839693 -0.341875 21.4633
-0.11357 -0.262448 21.6257
0.31609 -0.458758 21.4504
0.115736 -0.507337 21.5059
0.239348 -0.611302 21.8763
-1.38215 -2.16274 19.2029
-0.96328 -1.03734 18.7981
0.0122659 -1.37814 18.7201
-0.551193 -1.47398 22.2395
0.0183233 -4.12882 21.5974
-0.0628338 -0.24006 21.455
0.00583351 -0.608373 21.4326
0.109959 0.145065 21.1557
-0.0053234 -0.119757 19.8965
0.507509 1.05405 20.8574
-0.0159786 0.507389 19.6711
0.958201 1.34703 20.3291
0.983165 1.48819 18.2515
-0.0270802 1.24297 19.5786
1.32286 1.53311 18.4657
-0.0194668 1.8498 20.0542
-1.6647 -0.185172 17.6824
0.0430183 -1.43022 17.3911
1.79907 1.92738 15.2084
1.35487 -0.358937 7.00816
-0.0760974 0.472188 5.96284
2.60403 0.997017 12.334
0.00931858 1.63157 9.8237
-1.02313 1.35435 19.1045
0.0460114 1.65741 16.4065
1.71102 -1.02135 10.1355
0.266207 -0.911008 17.6631
0.159729 1.36354 -4.46038
0.61428 -1.62994 18.2124
0.292079 3.08886 -5.5097
-0.738443 1.31351 20.062
0.0114606 1.2741 19.6252
-1.05085 1.50887 20.8689
0.0151145 2.0144 20.273
-0.823846 0.830878 21.8653
0.000986925 2.36098 21.5955
-0.327807 0.0224558 21.82
-0.0141803 0.731195 22.1159
-0.128414 -0.38315 21.6928
-0.0249027 0.117129 21.8116
0.100175 -0.763358 21.3339
-0.0348075 -0.227644 22.0974
-0.0502086 -0.641721 21.759
1.39036 -2.11413 19.2315
0.97296 -0.987971 18.8545
0.846362 -0.687043 19.5477
0.564383 -1.46851 22.2128
1.69067 -1.87959 20.6451
0.0531268 -0.248665 21.5068
0.392942 -0.67476 21.7112
-0.132847 0.136065 21.2248
-0.0160521 -0.226985 21.7144
-0.535693 1.0011 20.9337
-0.54451 0.271668 21.8602
-0.959861 1.30575 20.3771
-0.997483 1.42898 18.2954
-0.9578 0.616983 21.4557
-1.34428 1.50719 18.4403
-1.15104 0.846794 21.1058
1.66959 -0.185657 17.7886
1.21073 -0.574393 19.1926
-1.81574 1.86903 15.0546
-1.26294 -0.476567 6.71817
-1.44264 0.402867 20.8245
-2.56513 0.980396 12.012
-1.95421 0.540305 20.1686
1.03893 1.31212 19.1452
1.56779 0.465859 19.0146
-1.58094 -1.07616 9.26822
-0.225646 -0.837854 17.1733
-1.15157 -0.80025 20.5358
-0.548676 -1.60109 17.6433
-1.71557 -0.817427 19.8378
0.752894 1.28302 20.0717
0.662415 0.699728 19.9722
1.06086 1.48698 20.8703
0.966316 0.984998 20.5486
0.820453 0.844752 21.8701
1.01649 0.745307 21.3657
0.32194 0.0434745 21.8148
0.492903 0.160641 21.7251
0.127323 -0.34314 21.6878
0.122055 -0.241594 21.6175
-0.0849256 -0.740586 21.3916
-0.0982104 -0.483019 21.5206
-0.226401 -0.63025 21.959
1.09296 -0.697333 20.0947
0.909806 -0.415226 19.7729
0.97378 -0.76415 21.2701
1.66964 -0.935328 20.5862
0.259728 -0.330786 21.5385
0.646722 -0.55292 21.5233
-0.132897 -0.097957 21.6643
0.0894047 -0.251864 21.5852
-0.590599 0.161145 21.5715
-0.431005 0.00578093 21.6813
-0.876854 0.30796 21.3701
-0.809132 0.189425 21.4908
-0.922696 0.213618 21.2484
1.63078 -0.624397 19.868
1.20206 -0.110444 19.6185
1.37945 -0.76843 21.4776
2.37198 -0.287407 20.6663
0.36581 -0.41198 21.6003
0.952658 -0.458511 21.5872
-0.138093 -0.184756 21.7531
0.21755 -0.328429 21.7171
-0.73517 -0.00599547 21.684
-0.448825 -0.263536 21.8134
-1.04772 0.16427 21.1292
-0.93904 -0.212049 21.6057
-1.22851 -0.242022 21.4063
1.83997 0.308076 19.9681
0.899952 0.458282 19.9172
1.66301 -0.0388325 21.3081
1.41933 0.634934 20.6077
0.727492 -0.328365 21.6828
1.16985 0.195461 21.3833
0.0435281 -0.332363 21.7644
0.488919 -0.125775 21.6743
-0.517363 -0.438552 21.6811
-0.0517606 -0.357727 21.6223
-0.985157 -0.515965 21.3435
-0.366361 -0.492689 21.3771
-0.656672 -0.651366 21.5216
0.769096 0.576308 20.3166
0.892162 0.538585 20.9513
0.628608 0.215825 21.4475
0.22173 -0.103509 21.5399
-0.0666287 -0.330259 21.4517
-0.294106 -0.468339 21.4331
-1.39763 -0.704255 19.9537
-1.98485 -2.67937 18.4515
-1.39065 -1.31575 19.7108
-2.41526 -1.33229 19.0274
-1.02991 -0.704138 19.3732
-2.53331 -2.26983 20.6047
-1.16981 -0.789409 21.3831
-0.399023 -1.04982 20.4259
-0.944255 -1.28341 21.7157
-1.62703 -1.61828 22.3047
-0.412166 -0.794031 21.8512
-0.321227 -0.379341 21.5669
-0.058782 -0.00608519 16.0037
-0.139441 -0.395729 21.6946
-0.174206 -0.500668 20.5088
0.0429382 -0.260189 21.4056
0.140024 -0.122657 21.7097
0.0712989 0.178337 15.8332
0.202517 -0.0252848 21.8259
0.232237 -0.105233 20.6334
0.725448 0.299654 21.6153
0.663315 0.116872 21.6103
0.58264 1.26657 17.43
0.786667 0.517402 21.7223
1.23661 0.349414 20.8421
1.2633 0.623413 21.2773
0.924144 0.277142 21.2826
1.34859 1.73864 17.8741
1.11552 0.686756 21.2247
1.61409 0.523924 20.7089
1.55631 0.799532 20.8757
-1.93832 -0.172485 19.8361
-5.11736 -0.239196 15.1405
-3.04042 1.02749 19.0931
-1.58514 -0.157218 18.8509
-5.23755 -0.490566 20.637
-1.61491 -0.395646 21.4649
-2.45073 -0.186944 21.9073
-0.936328 -0.845363 21.0516
-0.525684 -0.40369 21.6566
-0.862473 -0.827581 21.3553
-0.0950781 -0.330173 19.6276
0.0876888 -0.271668 21.8226
0.0681343 -0.524835 20.7837
0.88632 -0.255771 20.0886
0.763769 -0.232554 21.7145
0.451269 -1.11158 3.88927
0.885625 -0.784568 20.4767
1.59377 -0.221502 20.2796
1.17097 -0.154638 21.2435
2.63693 0.0109224 10.1454
1.48929 -0.669044 20.6993
1.92649 0.0427957 19.8197
-1.24776 0.647364 20.1558
-1.6138 2.26367 19.4401
-0.834791 0.92447 20.2083
-1.09387 0.850416 19.5342
-1.91197 1.35764 20.5316
-1.3728 0.431734 21.0641
-2.40863 2.03208 20.7948
-1.06248 0.936008 20.9389
-1.85286 0.52034 21.6109
-0.820075 0.00869447 21.608
-1.89987 0.605551 22.0285
-0.773189 0.440033 21.6293
-0.735576 -0.105528 21.9482
-0.194584 -0.239729 21.6765
-0.200195 -0.00017807 18.2849
-0.267829 -0.0817634 21.6915
-0.0511397 -0.514102 21.8048
0.239243 -0.457423 21.5683
0.0651996 -0.554521 17.3219
0.00620437 -0.387448 21.6046
0.330138 -0.816701 21.5813
0.595573 -0.589957 21.2891
0.659783 -1.35653 17.9508
0.255644 -0.538727 21.1383
0.926607 -0.974393 21.1547
2.00192 -2.58503 18.5125
0.0224006 -3.36175 18.7087
0.0497599 -5.73189 14.3562
0.0337676 -1.45698 18.146
0.0152014 -5.77894 23.2082
0.391105 -1.08212 20.5388
0.012875 -1.58497 22.4108
-0.00560765 -0.125733 12.7976
0.0543307 -0.00932678 16.1545
0.000220861 -0.276844 20.4619
-0.0101131 -0.00234107 11.7772
-0.092818 0.171503 15.9816
-0.0111067 0.0583394 19.5959
-0.02689 0.415533 12.5355
-0.616657 1.2096 17.5091
-0.0270177 0.879023 19.1966
-0.0778223 0.0286579 3.53646
-0.0460104 1.05564 14.1244
-1.36249 1.68815 17.832
-0.018419 1.58233 20.0326
-0.044418 1.62886 8.68061
-0.0136513 2.02411 16.251
5.11284 -0.243945 15.3264
0.0574224 7.39672 14.3086
0.0533809 -0.212996 16.0263
-0.390401 -1.26129 3.79447
-0.0186126 -0.0662885 -2.933
0.098131 0.210422 -1.23569
-2.60957 -0.0686237 9.76241
0.222245 2.48324 -5.05753
0.108474 1.2106 1.32762
1.63809 2.21426 19.4561
0.0143272 1.72179 19.9018
0.0317407 1.93146 18.618
0.0169857 3.69469 20.0384
2.40518 2.01118 20.7994
0.011054 2.27789 20.6912
0.000784289 5.96355 21.4358
1.90127 0.610185 21.964
-0.00812216 1.47425 22.1762
-0.0135803 0.40717 13.6065
0.153415 0.0519359 17.7352
-0.0176033 0.304581 21.9434
-0.167353 0.24485 4.18377
-0.053875 -0.447926 16.7737
-0.0328795 0.0205565 21.9665
-0.241982 0.472275 0.286727
-0.581482 -1.35379 17.4182
-0.0392741 -0.492496 22.0582
-0.0577861 -0.442259 1.30855
1.37538 -0.68741 19.9848
1.37744 -1.28283 19.7323
2.39125 -1.30738 19.0566
1.02225 -0.687075 19.3981
2.51492 -2.24136 20.6077
1.1747 -0.791944 21.3723
0.955179 -1.26725 21.6866
1.63293 -1.63139 22.306
0.419793 -0.800579 21.8465
0.31919 -0.383177 21.5657
0.146722 -0.400352 21.6814
0.173097 -0.50512 20.4849
-0.0396618 -0.273067 21.4418
-0.13417 -0.136109 21.6876
-0.206358 -0.0412026 21.8119
-0.225932 -0.118457 20.6045
-0.708568 0.254593 21.6451
-0.642249 0.0985706 21.6037
-0.777581 0.470759 21.715
-1.20318 0.305696 20.8123
-1.2408 0.577873 21.3035
-0.912603 0.25347 21.2781
-1.11023 0.660655 21.227
-1.59825 0.511849 20.6937
-1.55743 0.777737 20.8835
1.9204 -0.176496 19.8479
2.99545 0.97849 19.1258
1.57014 -0.157999 18.9179
5.25965 -0.501952 20.6369
1.62409 -0.404105 21.4726
2.46155 -0.191418 21.9132
0.921724 -0.846754 20.9517
0.523494 -0.408405 21.6602
0.847958 -0.853939 21.2036
0.089954 -0.320816 19.4557
-0.0821325 -0.275686 21.8152
-0.0731674 -0.514482 20.6116
-0.855705 -0.272232 19.9886
-0.73733 -0.248922 21.7109
-0.813863 -0.774929 20.3528
-1.55068 -0.254477 20.2001
-1.16685 -0.165945 21.265
-1.43674 -0.647522 20.4652
-1.94769 0.0505918 19.727
1.24327 0.637057 20.1642
0.835444 0.90115 20.2222
1.09249 0.823042 19.5553
1.89931 1.32978 20.5309
1.37659 0.426548 21.065
1.06119 0.920654 20.9403
1.85833 0.521619 21.6071
0.827776 0.00942957 21.6083
0.777324 0.449898 21.6365
0.752274 -0.10417 21.9535
0.203702 -0.231891 21.6725
0.273898 -0.0636106 21.6845
0.0868136 -0.496204 21.7764
-0.243322 -0.461029 21.5615
-6.19917e-05 -0.368773 21.5987
-0.35445 -0.837026 21.613
-0.583213 -0.621689 21.34
-0.247279 -0.536948 21.1056
-0.922389 -0.994449 21.1613
-1.82743 -1.40791 19.4452
-1.19204 -1.46258 21.988
-0.121537 -0.472467 21.5615
0.248682 -0.068773 21.4936
1.04355 0.507549 21.4178
1.29309 0.608064 21.3886
-3.29962 -0.262574 18.6841
-2.18746 -0.75843 22.4089
-0.379692 -0.611111 20.028
0.20275 -0.224661 19.9881
1.28662 -0.29939 20.0705
1.86065 0.0187721 20.4038
-1.58623 1.28271 19.8549
-1.95837 0.916736 21.0889
-1.26696 0.1343 21.9537
-0.354559 -0.293019 21.9142
0.0941247 -0.67723 21.7476
0.622532 -0.909636 21.4634
0.0331854 -4.59816 17.3618
0.00172272 -0.753519 15.8752
-0.00745702 -0.0325356 11.9698
-0.0147207 0.0564624 11.8568
-0.0399652 0.719086 13.0301
-0.030942 1.859 15.8863
0.0692653 -0.0602928 8.24622
-0.0522984 -1.37672 -0.154558
0.154909 1.10484 -1.12476
0.0232933 3.36802 19.0322
0.0160874 3.94759 19.8764
-0.0123306 1.70814 19.1093
-0.0312529 0.0409847 10.4999
-0.202725 0.470111 2.15192
-0.093939 -0.0114303 0.304782
1.80485 -1.37315 19.4813
1.20062 -1.45246 21.9607
0.126213 -0.478837 21.5769
-0.247129 -0.0917175 21.5417
-1.01709 0.456674 21.4314
-1.27962 0.59287 21.3928
3.26341 -0.264871 18.7423
2.19095 -0.763301 22.4134
0.36782 -0.60931 19.901
-0.197692 -0.222507 19.881
-1.23335 -0.327335 19.9426
-1.84814 0.0058964 20.2806
1.57187 1.24065 19.8694
1.94998 0.908665 21.0855
1.28075 0.135026 21.9577
0.3705 -0.287097 21.9007
-0.0817344 -0.653866 21.7539
-0.574965 -0.858864 21.5182
-1.35985e-16 -5.52469e-17 1.71635e-16
-0.0289775 -0.0948852 0.580217
-0.0196336 0.000579423 0.163545
0.116907 -0.0263317 0.260517
-0.00264714 0.00650516 0.155909
-0.00915257 0.00281397 0.578999
-0.787939 0.235243 1.39587
-0.0238371 0.152872 0.546768
-0.348426 -0.153359 0.873787
0.0136819 -0.0662382 0.0798043
-0.124374 -0.0335829 -0.0243052
0.0100998 0.012172 0.161628
0.0326582 -0.0946567 0.580265
0 0 0
0.0202689 0.00104391 0.165708
0.00144865 0.00646072 0.155562
-0.115684 -0.0303553 0.25711
0.00691816 0.00218795 0.574702
0.0238293 0.153565 0.548879
0.775252 0.24352 1.39913
0.348001 -0.152115 0.873761
0.105234 -0.0148551 -0.0318914
-0.0178724 -0.0676394 0.0889759
-0.00959692 0.0114088 0.153358
0.000306981 -0.00557413 0.155304
-6.61688e-06 1.45529e-05 0.00330106
0.00204895 0.00346388 0.117008
0 0 0
-0.0026265 0.00706279 0.245303
-0.000113876 -3.06332e-05 0.0119106
9.27553e-06 0.0153471 0.181774
0 0 0
-0.0719011 -0.0650874 0.25025
-0.000527657 -0.00277778 0.0471705
0 0 0
-0.149188 0.107329 0.297278
0.0111702 0.0187866 0.122644
0.000929033 0.00478417 0.0310156
0.000216697 0.000281489 0.00141726
0.0527895 0.0151215 0.429053
-0.00127943 -0.00579444 0.153924
0 0 0
5.88222e-06 1.12644e-05 0.00282671
-0.00255669 0.00286087 0.111314
0.00226865 0.00768358 0.241283
0 0 0
6.75416e-05 -3.72235e-05 0.0120468
0.000165465 0.014466 0.186637
0.0728227 -0.0658899 0.254029
0.149564 0.107913 0.298646
0.000523353 -0.00278179 0.0464581
0 0 0
-0.00950629 0.0155434 0.101315
-0.0614785 0.0250828 0.434502
-0.000440807 0.0022751 0.0146233
-0.000164988 0.000215163 0.00108603
0 0 0
0 0 0
-3.82327e-08 -1.64227e-06 8.34242e-05
0 0 0
0 0 0
-7.75761e-07 -1.73086e-07 4.40454e-05
0 0 0
-0.00405216 -0.00851394 -0.000347014
-1.57798e-07 1.51215e-07 3.62843e-05
-2.91647e-05 -0.00037039 -4.32514e-05
2.38725e-05 0.000759124 0.0144972
-2.25017e-07 -3.37482e-08 -1.48482e-05
-0.000234565 0.43864 0.352761
2.86907e-06 2.0701e-05 0.000140345
0 0 0
-0.0101196 0.00195398 0.0171183
0 0 0
-0.000153082 0.000353138 -0.000117842
0 0 0
1.02004e-05 -1.68838e-06 0.000494701
0 0 0
0 0 0
6.53685e-07 -1.64199e-07 4.20081e-05
0 0 0
0.00348614 -0.0103004 -0.000156167
0 0 0
9.90727e-08 -1.16899e-08 -5.22823e-06
-1.89271e-05 0.000579342 0.0119417
0.0100118 0.00194225 0.0170011
0 0 0
-1.50592e-05 -1.43356e-06 0.000481847
0 0 0
0.00120771 0.0123533 0.171703
0 0 0
-0.000190233 -0.00585175 0.0394898
-3.1077e-05 0.00166653 0.0408821
-1.88522e-07 -1.18734e-08 2.27198e-05
3.01225e-08 -1.1963e-08 -5.5247e-06
-3.49274e-05 0.00101614 0.00922484
-2.51666e-05 0.000187704 0.00209912
4.80045e-08 -1.04018e-08 -1.15774e-05
3.17178e-08 -6.70978e-09 -7.62897e-06
0.00153066 0.00817686 0.0562572
0.00956128 0.00839662 0.805736
-1.0411e-05 -7.23744e-05 -0.000146268
1.5338e-08 -1.99272e-06 -6.60803e-05
-1.23062e-07 2.10913e-07 5.61301e-05
-1.33147e-06 9.74757e-08 0.000226366
0 0 0
-0.00131311 0.0120535 0.17086
0.000202121 -0.00538611 0.0382252
2.27426e-05 0.0014414 0.0369531
7.26487e-05 0.000702095 0.00766582
0 0 0
-0.0111046 0.00962346 0.860958
-0.00147253 0.00792471 0.0545597
0 0 0
-0.00522623 -0.00575272 0.108568
0 0 0
-0.00139444 -0.00717751 0.0421034