# vtk DataFile Version 2.0
tri_press
ASCII
DATASET UNSTRUCTURED_GRID
POINTS 3682 float
-0.695053 0.275 -1.835
-0.825 0.275 1.83816
-0.749474 0.985 -1.645
-0.825 0.985 1.77596
0.695214 0.275 -1.835
0.825 0.275 1.838
0.749644 0.985 -1.645
0.825 0.985864 1.775
-0.740434 0.272935 -0.610613
-0.783634 0.273051 0.613773
-0.819574 1.02992 -0.50468
-0.816182 1.00136 0.63564
0.740542 0.272934 -0.610667
0.783689 0.273049 0.613667
0.819604 1.03013 -0.505
0.806289 0.991984 0.635
-1.4706 -0.0987249 -2.8278
-1.47118 -0.0899136 -1.88205
-1.51191 -0.0895444 -0.655467
-1.56225 -0.0900675 0.588097
-1.60144 -0.0887143 1.81611
-1.60897 -0.0911438 2.76887
-1.60611 -0.0948817 3.70866
-1.46993 0.263873 -2.76309
-1.47305 0.277586 -1.82654
-1.52428 0.279389 -0.616306
-1.57631 0.272704 0.601538
-1.61882 0.270977 1.81338
-1.62134 0.268432 2.76491
-1.61444 0.265274 3.70743
-1.49525 0.98729 -2.61
-1.52041 1.00195 -1.66994
-1.58359 1.02575 -0.517027
-1.60779 1.00299 0.629976
-1.6284 0.988069 1.78449
-1.62875 0.986014 2.73937
-1.62213 0.985304 3.69538
-1.52963 2.09697 -2.44362
-1.54826 2.11059 -1.51616
-1.58291 2.12112 -0.390617
-1.60763 2.10671 0.716811
-1.61765 2.08795 1.84321
-1.62023 2.07975 2.77245
-1.62004 2.07619 3.71932
-0.717438 -0.101088 -2.83331
-0.710209 -0.0922737 -1.89006
-0.738109 -0.0931758 -0.654518
-0.771367 -0.0899206 0.59858
-0.799685 -0.0861967 1.83453
-0.805094 -0.0897521 2.78128
-0.80308 -0.0945757 3.71575
-0.71355 0.260128 -2.76483
-0.815604 0.269567 2.77507
-0.809657 0.265294 3.71271
-0.731456 0.97936 -2.59966
-0.82015 0.98475 2.7374
-0.815846 0.984174 3.69475
-0.753832 2.09336 -2.43344
-0.764786 2.10814 -1.50495
-0.791214 2.12124 -0.383956
-0.809907 2.10503 0.715765
-0.814635 2.08518 1.83709
-0.816304 2.07723 2.76634
-0.817207 2.07412 3.71482
0.745639 -0.101382 -2.83339
0.728827 -0.0924443 -1.89012
0.75777 -0.0934858 -0.654612
0.793987 -0.0902949 0.598431
0.820906 -0.0864465 1.83432
0.815497 -0.0901697 2.78095
0.808944 -0.0952944 3.71537
0.742845 0.259923 -2.76489
0.815079 0.269345 2.77467
0.80743 0.264633 3.71228
0.762027 0.979129 -2.59973
0.812943 0.984473 2.73676
0.803546 0.983341 3.69423
0.787886 2.09252 -2.43363
0.793403 2.1071 -1.50518
0.794794 2.11918 -0.384292
0.792153 2.10168 0.715291
0.796193 2.08251 1.83653
0.795265 2.07528 2.76578
0.79102 2.07246 3.7143
1.49079 -0.0995178 -2.82801
1.47869 -0.0905865 -1.88225
1.51956 -0.0910484 -0.655767
1.574 -0.0920851 0.587649
1.61371 -0.0897886 1.81553
1.61705 -0.0923605 2.76816
1.61071 -0.0965385 3.70788
1.48656 0.263242 -2.76328
1.46768 0.277203 -1.82671
1.51831 0.27762 -0.616638
1.57322 0.269566 0.600995
1.618 0.270306 1.81267
1.61985 0.267451 2.76409
1.61122 0.263676 3.70658
1.51265 0.986583 -2.61021
1.51531 1.00151 -1.67018
1.57434 1.02311 -0.517587
1.59413 0.994009 0.628999
1.62117 0.986055 1.7832
1.61879 0.984548 2.73823
1.60831 0.983323 3.69437
1.55637 2.09514 -2.44403
1.56686 2.10832 -1.51664
1.58033 2.11705 -0.391281
1.58781 2.10063 0.715907
1.59607 2.08285 1.84215
1.59658 2.07583 2.77139
1.59211 2.07282 3.71832
-0.778575 0.63 -1.79631
8.04961e-05 0.271448 -1.83855
-0.718882 0.272829 -1.22281
-0.853423 0.63 1.83548
0 0.271118 1.84196
-0.805304 0.273039 1.22597
8.49962e-05 1.03419 -1.69419
-0.813794 1.03673 -1.07484
0 1.15918 1.94922
-0.839251 1.01184 1.2058
0.778739 0.63 -1.79631
0.719016 0.272829 -1.22283
0.853539 0.630432 1.83504
0.805333 0.273036 1.22583
0.813893 1.03683 -1.075
0.838597 1.01188 1.205
-0.762033 0.272993 0.00158
-0.895389 0.65143 -0.557647
5.4152e-05 0.270502 -0.61064
-0.894501 0.637204 0.624707
2.74649e-05 0.270498 0.61372
-0.825354 1.02312 0.06548
1.47702e-05 1.39078 -0.50484
-0.00494655 1.50773 0.63532
0.762114 0.272993 0.00150001
0.895551 0.651531 -0.557833
0.894086 0.632517 0.624333
0.82529 1.0234 0.065
-0.89566 0.640715 -1.14882
0.895644 0.640766 -1.14892
6.7324e-05 0.270473 -1.22282
4.98832e-05 1.11281 -1.07492
8.27461e-05 0.63 -2.02908
-0.89507 0.644317 0.03353
0.894972 0.642024 0.03325
4.08084e-05 0.2705 0.00154001
-0.00246589 1.50773 0.06524
-0.894996 0.633602 1.21588
0.895021 0.631474 1.21542
1.37324e-05 0.270452 1.2259
-0.00247328 1.50773 1.2054
0 0.630216 2.05287
-0.738614 0.4525 -1.81746
-0.347486 0.271452 -1.83855
-0.708082 0.2728 -1.5289
-0.838609 0.4525 1.83622
-0.4125 0.271122 1.842
-0.816107 0.273064 1.53206
-0.795037 0.8075 -1.75167
-0.374694 1.02977 -1.68977
-0.798532 1.02776 -1.35992
-0.851502 0.8075 1.81801
-0.4125 1.12916 1.91967
-0.841839 1.00813 1.49088
0.347647 0.271446 -1.83855
0.738804 0.4525 -1.81748
0.708229 0.2728 -1.52892
0.4125 0.271121 1.84192
0.838682 0.452716 1.83593
0.816123 0.273062 1.53192
0.374864 1.02976 -1.68976
0.795179 0.8075 -1.75164
0.798636 1.02778 -1.36
0.4125 1.12708 1.91667
0.85139 0.808148 1.81714
0.841148 1.00822 1.49
-0.729681 0.272859 -0.91671
-0.751233 0.272964 -0.304517
-0.875567 0.433355 -0.58413
-0.370181 0.271736 -0.610627
-0.794502 0.273011 0.91987
-0.772834 0.273022 0.307677
-0.875572 0.436875 0.61924
-0.391792 0.271796 0.613747
-0.816642 1.03329 -0.78976
-0.888754 0.856313 -0.531163
-0.82251 1.02657 -0.2196
-0.478524 1.34784 -0.50476
-0.835861 1.01474 0.92072
-0.891836 0.837528 0.630173
-0.828267 1.01974 0.35056
-0.537131 1.50768 0.63548
0.729802 0.272859 -0.91675
0.370289 0.271735 -0.610653
0.751329 0.272963 -0.304583
0.875639 0.433436 -0.58425
0.794544 0.273009 0.91975
0.391847 0.271795 0.613693
0.772901 0.273022 0.307583
0.8757 0.434377 0.619
0.816749 1.03348 -0.79
0.478487 1.34781 -0.50492
0.888891 0.856487 -0.531417
0.822484 1.0268 -0.22
0.835171 1.01466 0.92
0.529581 1.50768 0.63516
0.892567 0.83344 0.629667
0.828143 1.02005 0.35
-0.89544 0.635357 -1.47257
-0.389246 0.63 -2.00123
7.391e-05 0.270476 -1.53069
8.16211e-05 0.450724 -2.02636
-0.883345 0.456772 -1.18582
-0.359407 0.270478 -1.22281
-0.895463 0.631801 1.52568
-0.426711 0.630108 2.072
6.86622e-06 0.270452 1.53393
0 0.450667 2.07877
-0.895744 0.45332 1.22093
-0.402645 0.270459 1.22593
6.74397e-05 1.07467 -1.38455
8.38712e-05 0.832094 -2.05039
-0.887743 0.838724 -1.11183
-0.406872 1.10894 -1.07488
-0.00123664 1.42875 1.57731
0 0.894696 2.02603
-0.886751 0.822721 1.21084
-0.420862 1.50773 1.2056
0.895433 0.635383 -1.47261
0.389411 0.63 -2.00124
0.878483 0.456797 -1.18588
0.359542 0.270478 -1.22283
0.895488 0.630953 1.52523
0.426769 0.630324 2.07197
0.895703 0.452255 1.22063
0.402673 0.270458 1.22587
0.887609 0.838799 -1.11196
0.406971 1.10893 -1.07496
0.886888 0.821676 1.21021
0.418062 1.50773 1.2052
-0.875569 0.435147 0.017555
-0.380987 0.271766 0.00156
-0.896964 0.646072 -0.853235
-0.895253 0.647873 -0.262058
6.0738e-05 0.270472 -0.91673
4.74802e-05 0.270501 -0.30455
-0.894763 0.640761 0.329118
-0.895619 0.635403 0.920295
3.41366e-05 0.270499 0.30763
2.05987e-05 0.270453 0.91981
-0.890137 0.84868 0.049505
-0.535035 1.50767 0.06536
3.23267e-05 1.22144 -0.78988
-0.00122556 1.50772 -0.2198
-0.00370622 1.50773 0.35028
-0.00370991 1.50772 0.92036
0.875683 0.433938 0.017375
0.381068 0.271766 0.00152001
0.896947 0.646149 -0.853375
0.89532 0.646778 -0.262292
0.894536 0.63727 0.328792
0.895673 0.631996 0.919875
0.890411 0.847852 0.049125
0.532466 1.50767 0.06512
-0.881895 0.454636 -1.50074
-0.884148 0.459477 -0.884973
-0.891058 0.839701 -0.821498
-0.893427 0.823112 -1.41624
0.873491 0.454649 -1.50077
0.889449 0.82315 -1.41631
0.89121 0.839815 -0.821688
0.881684 0.459515 -0.885063
-0.353447 0.27048 -1.52979
0.353594 0.27048 -1.5298
0.36492 0.270477 -0.91674
-0.364799 0.270477 -0.91672
-0.390783 1.07315 -1.37224
-0.408326 1.19737 -0.78982
0.40839 1.19728 -0.78994
0.390918 1.07315 -1.37228
-0.368366 0.451612 -2.0038
-0.38197 0.819797 -2.03719
0.382138 0.819797 -2.03715
0.368529 0.451612 -2.00377
-0.875568 0.434251 -0.283288
-0.875571 0.436011 0.318398
-0.890934 0.843078 0.339839
-0.889424 0.852486 -0.240829
0.875672 0.433682 -0.283438
0.889635 0.852161 -0.241146
0.891444 0.840623 0.339396
0.875685 0.434161 0.318188
-0.375584 0.271751 -0.304533
0.375679 0.271751 -0.304567
0.386458 0.271781 0.307607
-0.386389 0.271781 0.307653
-0.540378 1.49496 -0.2197
-0.536083 1.50768 0.35042
0.531024 1.50768 0.35014
0.539295 1.49538 -0.2199
-0.896041 0.454224 0.920083
-0.895868 0.45291 1.52887
-0.894085 0.81511 1.50828
-0.893932 0.821001 0.920508
0.895953 0.452519 0.919813
0.894166 0.816963 0.919938
0.893868 0.814912 1.50761
0.895829 0.452486 1.52857
-0.397224 0.270459 0.91984
0.397266 0.270459 0.91978
0.407587 0.270458 1.53292
-0.407572 0.270458 1.533
-0.415713 1.50772 0.92054
-0.416681 1.4272 1.5341
0.415281 1.42802 1.53366
0.409367 1.50772 0.92018
-0.419606 0.451584 2.05655
0.419635 0.451692 2.05646
0.419635 0.851422 2.01468
-0.419606 0.851098 2.0148
-0.720218 0.36375 -1.82961
-0.52127 0.271471 -1.83853
-0.702456 0.273011 -1.68195
-0.830952 0.36375 1.83634
-0.61875 0.271142 1.842
-0.82151 0.273075 1.68511
-0.763004 0.89625 -1.68908
-0.562084 1.0153 -1.6753
-0.783325 1.0157 -1.50246
-0.831951 0.89625 1.79069
-0.61875 1.06617 1.8569
-0.843133 1.00628 1.63342
0.521431 0.271465 -1.83854
0.720349 0.36375 -1.82958
0.702608 0.273014 -1.68196
0.61875 0.271145 1.84188
0.830971 0.363858 1.8361
0.821518 0.273074 1.68496
0.562254 1.0153 -1.6753
0.763169 0.89625 -1.68908
0.783471 1.01572 -1.5025
0.61875 1.06216 1.85153
0.832097 0.897006 1.78997
0.842423 1.00639 1.6325
-0.73508 0.272874 -0.763662
-0.745835 0.272949 -0.457565
-0.875376 0.319457 -0.597372
-0.555312 0.272326 -0.61062
-0.789029 0.27307 0.766822
-0.778232 0.273038 0.460725
-0.875537 0.331996 0.616507
-0.587717 0.272416 0.61376
-0.818105 1.0316 -0.64722
-0.868077 0.950076 -0.517922
-0.821089 1.02829 -0.36214
-0.674967 1.24072 -0.50472
-0.834021 1.01605 0.77818
-0.873765 0.929321 0.632907
-0.82972 1.01804 0.4931
-0.684669 1.27054 0.63556
0.735193 0.272875 -0.763708
0.55542 0.272326 -0.61066
0.745935 0.272949 -0.457625
0.875543 0.319459 -0.597458
0.789077 0.273069 0.766708
0.587772 0.272415 0.61368
0.778294 0.273036 0.460625
0.875705 0.330707 0.616333
0.818145 1.03177 -0.6475
0.674978 1.24084 -0.50496
0.868183 0.950276 -0.518208
0.821075 1.0285 -0.3625
0.836286 1.01888 0.7775
[...]
POINT_DATA 3682
SCALARS point_scalars float 1
LOOKUP_TABLE default
-137.955
-61.2025
-51.6377
-51.9095
-138.069
-60.2941
-51.1233
-49.8989
-43.0281
-38.2986
-58.4449
-47.0774
-43.0444
-38.18
-58.3472
-46.8891
-66.118
-107.385
-47.2278
-38.5147
-58.9344
-59.2522
-50.1173
2.4401
-116.529
-42.5498
-38.254
-60.002
-60.2185
-45.9082
20.9243
-109.924
-49.4498
-42.7881
-55.0192
-46.4041
-45.0021
-31.3602
-72.3881
-108.716
-55.6555
-51.6194
-45.8714
-42.1652
-41.0654
-161.813
-43.8407
-38.1927
-60.5024
-49.8955
-49.1401
67.0355
-48.2328
-45.8572
126.34
-44.7895
-44.8614
-38.2733
-50.7249
-112.429
-53.4301
-51.8912
-38.0696
-37.6009
-44.7361
-162
-43.9415
-38.1962
-60.2747
-49.9559
-48.5349
64.7868
-47.5359
-45.4479
104.291
-43.9191
-44.0083
-30.113
-50.7292
-113.222
-53.3184
-50.3077
-36.6325
-35.2383
-66.3992
-107.038
-47.9422
-38.4846
-58.1773
-58.2997
-49.3245
-13.596
-116.162
-42.5826
-38.7918
-58.843
-59.2164
-45.1985
20.6346
-111.407
-49.3647
-42.4148
-54.3632
-45.3294
-44.1751
-31.1615
-72.3101
-108.611
-55.8081
-50.4394
-47.171
-40.6876
-31.7152
-133.106
-61.3948
-54.2872
-53.3737
-42.6851
-58.8501
-51.7017
-31.6463
-45.3022
-32.1018
-61.2199
-53.2082
-42.4086
-51.591
-44.6564
-38.094
-45.0148
-44.5168
-39.9354
-39.0323
-54.4997
-9.92387
-57.1673
-37.875
-45.0958
-39.6227
-54.3442
-64.5871
-64.2248
-63.163
1.105
199.837
-41.9467
-41.7716
-38.648
-85.6968
-44.3866
-43.9243
-43.3209
-47.4469
-45.081
-30.3325
-133.779
-89.6287
-55.288
-54.805
-48.1841
-26.7851
-57.3143
-64.7352
-51.6959
-38.5501
-47.2108
-133.904
-31.0964
-89.3643
-54.3558
-54.3404
-47.7438
-57.3529
-26.7674
-64.9706
-36.709
-50.3287
-46.2698
-47.9034
-39.6307
-43.4389
-43.9957
-39.7205
-37.8087
-38.2798
-38.6008
-50.6198
-48.2532
-58.6468
-14.8887
-44.765
-42.2746
-49.9402
-52.7258
-47.8295
-43.9756
-39.5907
-43.5272
-39.4985
-38.5424
-37.6851
-38.0585
-50.5259
-14.7658
-48.2165
-58.5367
-44.4599
-52.036
-41.9408
-49.743
-110.824
160.742
-83.3984
190.695
-67.1425
-62.2254
-49.532
-45.7938
-46.9892
-45.4903
-44.4507
-43.2852
-25.4844
55.42
-59.799
-10.6658
-38.0962
-37.0228
-43.8537
-48.5987
-110.483
160.848
-66.6856
-62.1534
-48.8526
-45.3585
-43.9935
-43.1495
-59.6011
-10.6222
-43.5715
-48.1038
-40.2206
-38.3865
-50.692
-43.1688
-51.6424
-40.4963
-40.7876
-42.4425
-38.2943
-40.7298
-45.9266
-78.4758
24.5496
-134.346
-67.0889
-51.2856
-40.0785
-38.3474
-50.6501
-43.0724
-40.5675
-42.0961
-45.7537
-78.5334
-119.512
-51.558
-49.4808
-100.783
-112.82
-100.196
-49.4319
-50.0659
-83.3763
-83.279
-50.7476
-50.7887
-32.0634
7.65616
7.72579
-32.0375
161.518
61.916
61.9331
161.676
-41.2514
-39.6202
-43.6994
-47.8323
-41.1838
-47.7252
-43.4721
-39.4188
-40.1032
-40.0815
-38.0043
-38.0548
-113.673
-61.0209
-60.9575
-114.787
-42.8102
-50.7129
-47.3563
-42.9747
-42.4618
-42.5118
-46.6156
-50.0287
-40.524
-40.4391
-47.0345
-47.2641
-50.5416
-43.0521
-42.081
-50.2966
-45.9409
-45.5065
-40.1903
-41.7043
-37.9248
-144.334
-120.966
-58.0259
-57.0281
-54.8277
-22.0831
-55.3648
-78.5992
-52.8464
-40.9155
-49.4357
-143.919
-38.3674
-120.817
-56.313
-57.0612
-54.1743
-55.3144
-22.5541
-78.5376
-39.469
-51.4347
-48.1662
-45.2153
-40.9585
-42.0045
-43.3579
-39.5597
-38.0334
-38.1744
-38.432
-54.6193
-51.9032
-59.377
-72.2207
-44.5095
-43.6432
-48.0334
-49.7751
-45.2541
-43.3418
-40.9499
-42.0787
-39.5966
-38.3488
-37.9227
-38.3923
-54.4869
-71.9852
-51.8282
-59.2611
-44.027
-49.5559
-43.2242
-47.9393
-33.705
-30.501
-94.6752
109.737
-132.443
-132.479
-102.135
42.8169
-72.4543
-53.6772
-66.2621
-61.513
-54.7589
-53.8598
-55.6823
-45.3374
-53.7457
-53.5336
-49.429
-47.5381
-44.8654
-40.8471
-43.9854
-43.07
-58.5162
-58.2796
-42.2109
29.7355
-57.1929
-49.202
-56.9325
-26.5986
-34.0728
-32.5341
-34.2475
-33.4177
-46.1247
-45.1753
-44.3311
-48.1228
-34.3839
-30.6466
-94.9077
109.689
-72.2454
-53.5279
-65.1892
-61.3956
-53.7546
-52.6734
-54.6711
-44.6658
-44.5269
-40.6099
-43.5598
-42.868
-56.9679
-49.0821
-56.7714
-26.502
-45.3227
-44.6973
-43.7318
-47.4356
-38.6169
-37.6289
-39.1577
-38.1596
-43.9767
-46.2017
-47.3674
-43.8854
-44.3706
-44.3589
-47.6146
-42.1745
-38.7056
-41.0706
-40.2917
-40.3044
-38.979
-38.9503
-38.5402
-39.756
-56.8104
-52.1333
-49.2005
-63.8417
-8.61714
-8.58588
18.7524
-79.9272
-56.3666
-56.2885
-61.4309
-53.8802
-38.6361
-37.4962
-38.986
-38.0968
-44.1666
-46.2169
-47.5305
-43.8582
-38.4252
-40.7607
-40.0339
-39.8587
-56.6869
-51.9512
-49.0451
-63.7489
-80.5987
-66.2258
-62.3611
-55.611
-79.9477
-65.7511
-62.1114
-55.3406
-71.6474
-62.9423
-62.909
-56.7278
-11.7807
-1.55567
-1.53637
12.4262
194.316
197.435
185.092
194.409
-40.7003
-42.5545
-41.3543
-43.5652
-40.5479
-42.4179
-41.1461
-43.3942
-38.5899
-39.3548
-38.3221
-38.572
-84.3328
-101.951
-75.2548
-84.3104
-46.4407
-44.5126
-44.0036
-43.5361
-45.7842
-44.0401
-43.7009
-43.0649
-45.003
-43.3233
-43.2546
-41.9075
-45.6011
-47.8259
-47.5533
-49.2033
-44.9575
-44.2015
-42.3778
-44.8685
-86.756
104.87
-103.959
61.9844
-113.777
-84.5494
-60.2416
-46.0907
-50.0267
-47.4219
-50.3037
-47.5529
-95.955
41.1284
-47.6465
38.4299
-94.5629
-42.8999
-52.5449
-43.0141
-37.74
-40.3182
-47.2555
-47.6032
-103.854
62.176
-92.5113
104.781
-110.293
-84.382
-49.7171
-46.8956
-59.2982
-45.3931
-49.6737
-47.2187
-47.6603
38.438
-96.3073
41.1172
-94.0447
-42.8374
-36.6235
-38.3666
-51.3488
-41.8068
-46.3426
-46.4217
-50.868
-49.8856
-39.9993
-39.756
-48.4517
-42.0491
-46.9704
-41.6712
-42.5178
-40.3975
-39.7771
-37.8663
-39.1405
-35.9065
-38.2673
-39.5944
-49.9502
-23.3562
-48.2633
-48.3126
-52.0294
-79.6145
3.74413
-48.9146
-43.481
-48.3107
-42.8786
-42.2775
-46.1971
-54.7649
-56.3311
-52.5153
-49.2172
-49.829
-46.9425
-41.6522
-39.9372
-39.7349
-49.9949
-42.0194
-42.1406
-40.2742
-38.2138
-39.5274
-39.5645
-37.7874
-38.9561
-35.5947
-49.8735
-23.2401
3.85425
-48.704
-48.2439
-48.239
-51.9124
-79.6436
-43.061
-48.046
-56.2633
-52.4203
-42.616
-41.9721
-45.9927
-54.5911
-115.544
-103.301
164.387
165.384
-83.1823
-83.1503
189.476
189.555
-83.1996
-57.253
-70.994
-55.7534
-50.2958
-48.1707
-45.8039
-45.391
-46.9713
-47.0866
-45.8431
-45.6186
-43.3867
-46.7276
-41.7601
-45.0713
-26.5115
-26.5
65.0873
65.0903
-52.7092
-73.0632
-20.3965
-2.80142
-40.5386
-39.937
-38.348
-39.3217
-45.4575
-43.9578
-48.9882
-50.9788
-114.461
-102.935
165.506
164.496
-82.275
-56.5333
-70.8317
-55.6961
-47.5795
-49.5879
-45.4144
-44.7355
-42.9958
-46.1708
-41.666
-44.895
-72.7806
-52.5869
-2.72031
-20.3581
-43.2965
-44.7122
-50.1246
-48.6501
-40.6596
-39.7835
-39.043
-38.081
-51.4231
-49.8026
-41.8193
-45.0071
-51.3951
-51.4144
-40.4022
-40.3904
-39.8395
-42.004
-42.7155
-42.6827
-38.2206
-38.2442
-40.7069
-40.6655
-44.7837
-46.9811
-99.839
-67.7272
21.561
21.9017
-133.521
-133.548
-65.7761
-65.75
-51.1261
-51.0043
-40.5585
-39.6355
-39.0139
-38.0344
-49.7624
-51.325
-41.7424
-44.9102
-41.7736
-39.6346
-42.4435
-42.2483
-46.8364
-44.5784
-67.8456
-99.8487
-82.8187
-81.7517
-82.3391
-95.2231
-47.2017
-48.248
-56.7081
-56.7062
-50.9313
-51.6091
-54.0176
-47.4354
-89.5939
-103.502
-76.8656
-68.3873
-85.8716
-96.1942
-81.815
-81.8005
-90.1136
-68.1231
-76.169
-103.711
-50.8554
-47.4863
-53.8479
-51.4951
-48.0237
-56.2951
-56.2673
-48.6871
-109.468
-102.09
-71.858
-70.8168
-109.168
-70.861
-71.3237
-102.072
-46.2593
-47.433
-56.4267
-54.702
-46.2853
-54.7925
-56.4515
-47.4477
-58.2179
-32.4176
-13.6537
-42.8674
-45.9977
17.3084
9.7321
-22.2489
-45.8456
-22.1748
9.75929
17.4834
-58.2081
-42.8705
-13.6572
-32.3384
23.8669
118.866
193.374
61.187
27.7158
34.8854
186.298
92.3999
27.6632
92.4063
186.456
34.9972
23.7314
61.0523
193.453
118.787
-41.2284
-39.5056
-41.2166
-42.6077
-39.1259
-39.3631
-40.248
-38.5721
-45.0341
-47.614
-42.7718
-41.3797
-52.4512
-45.5462
-44.3368
-50.8048
-41.231
-42.5911
-41.1019
-39.4665
-52.3573
-50.6687
-44.198
-45.4989
-44.8135
-41.1078
-42.5709
-47.4359
-38.5305
-38.1372
-40.068
-39.1462
-41.2363
-42.0537
-39.2816
-38.7741
-41.2198
-38.7374
-39.2672
-42.0432
-37.9738
-38.4598
-38.2486
-37.7939
-38.0519
-37.8746
-38.2702
-38.4855
-87.8874
-70.6082
-100.966
-70.0763
-51.8413
-60.3419
-73.4441
-58.6622
-51.6407
-58.5337
-73.5617
-60.2936
-87.79
-69.9966
-100.957
-70.5818
-34.8353
-42.8346
-43.5408
-37.3734
-63.5356
-58.6307
-46.6507
-46.4382
-50.7481
-45.4163
-46.0246
-54.0573
-43.4365
-41.4388
-43.8035
-43.8467
-34.8399
-36.9989
-43.1135
-42.4787
-43.057
-43.3418
-43.1456
-41.1241
-49.4627
-52.8744
-45.273
-44.6533
-62.6131
-45.9219
-46.0541
-57.6756
-38.9873
-39.7164
-41.9122
-41.5466
-38.8968
-41.3858
-41.8576
-39.6824
-50.3846
-49.4511
-45.0322
-44.7273
-50.8423
-44.9818
-45.1245
-49.6047
-48.6142
-47.8899
-49.2384
-53.4645
-42.2215
-35.4929
-46.65
-51.2157
-40.9469
-50.2704
-46.2004
-34.7748
-48.2395
-53.3828
-49.0576
-47.4953
-48.0334
-47.8525
-45.1252
-45.6613
-47.2585
-45.0042
-44.9322
-47.5952
-41.2806
-34.8595
-43.573
-44.6102
-42.6551
-45.3385
-43.9479
-36.2261
-69.9375
-159.003
-153.311
-60.7479
-58.7812
-55.6234
-26.8607
-55.3069
-75.3479
-52.7726
-43.6337
-50.6677
-159.155
-70.2721
-153.308
-57.9791
-59.7633
-54.896
-55.234
-26.0417
-75.2405
-41.9172
-51.163
-48.7037
-44.4547
-41.8895
-41.081
-43.0807
-38.4375
-38.1331
-38.7444
-38.3975
-56.8378
-54.3148
-59.2146
-70.4312
-43.5704
-45.0488
-48.981
-47.4237
-44.5042
-43.0576
-41.882
-41.1171
-38.2456
-38.3025
-38.0498
-38.7284
-56.7164
-70.3432
-54.2339
-59.1042
-42.3267
-46.9505
-44.6572
-49.1441
-32.4694
-31.4827
-78.3087
39.7867
-133.302
-133.321
-116.74
-114.092
-66.3724
-57.2787
-64.2489
-61.1454
-54.5618
-54.1267
-57.3554
-46.8252
-53.4801
-53.3754
-50.9857
-49.5503
-43.6289
-41.6774
-42.9836
-42.9153
-58.5416
-58.5523
-53.8997
-43.0858
-54.8678
-49.9547
-56.2534
-38.6773
-32.5715
-31.9212
-33.7409
-31.9604
-45.7303
-45.1998
-44.7873
-46.1179
-32.9978
-31.7699
-78.9323
45.5955
-66.1968
-57.104
-63.9499
-61.0124
-53.5252
-52.9987
-56.2315
-45.934
-43.3243
-41.4236
-42.6324
-42.6809
-54.6749
-49.8498
-56.1105
-38.556
-45.0062
-44.632
-44.1578
-45.4018
-38.3569
-37.7066
-38.3083
-38.0916
-44.4707
-45.5966
-45.908
-44.3895
-44.454
-44.4471
-45.9635
-43.2587
-39.3248
-40.5107
-40.0862
-39.9609
-39.0045
-38.9897
-38.7557
-39.3705
-55.7008
-53.3095
-51.4185
-58.3468
-9.28677
-9.46131
8.71912
-30.4184
-56.974
-56.9375
-59.1491
-55.4255
-38.2696
-37.5476
-38.0604
-37.9879
-44.6009
-45.6431
-46.0505
-44.4092
-39.0444
-40.2019
-39.8109
-39.6177
-55.5568
-53.1421
-51.2702
-58.2041
-71.6308
-65.5763
-63.6797
-59.4679
-71.2174
-65.1615
-63.3777
-59.1389
-67.1104
-62.6496
-62.6351
-59.753
-5.31697
0.504373
0.517019
6.8433
199.187
200.288
203.951
199.235
-41.3084
-42.2425
-41.6336
-42.6876
-41.1436
-42.0897
-41.4454
-42.515
-38.6397
-38.9542
-38.4465
-38.6307
-85.3592
-92.8926
-79.7919
-85.3392
-45.3351
-44.4733
-44.2185
-43.8602
-44.7489
-44.0027
-43.7978
-43.441
-44.1273
-43.3268
-43.2926
-42.5773
-46.3731
-47.5816
-47.4447
-48.3026
-44.6427
-44.168
-44.9432
-44.5596
-29.5652
-32.4974
-70.1933
39.406
-136.732
-131.625
-121.084
-113.29
-103.933
-79.9854
-102.854
-85.7972
-56.0706
-54.8493
-59.9101
-48.327
-55.6425
-54.1474
-51.8306
-49.3678
-50.485
-46.2703
-49.1843
-47.7586
-26.3326
-27.7121
-63.8698
14.8079
-57.2062
-58.0366
-57.6772
-27.5437
-73.3584
-59.4411
-84.237
-51.3577
-51.9025
-53.0359
-56.9281
-44.4592
-39.9644
-36.3898
-37.6898
-39.2502
-47.9771
-46.6012
-47.1314
-47.4362
-136.068
-131.657
-121.02
-113.247
-30.2115
-33.2938
-72.1363
39.0501
-103.688
-79.729
-101.041
-85.6275
-55.0701
-53.8202
-51.4644
-48.806
-55.1346
-53.8887
-58.9132
-47.5101
-49.9657
-45.8849
-48.6329
-47.3781
-57.2082
-58.0593
-57.702
-27.4705
-28.5357
-27.7255
-62.9568
14.649
-73.2415
-59.2844
-83.9571
-51.3141
-38.4132
-34.5795
-36.3594
-37.2001
-50.5085
-51.7276
-55.4412
-43.2353
-46.9809
-45.73
-46.1936
-46.4289
-46.4992
-50.5426
-49.28
-49.2231
-40.1474
-39.0552
-39.2939
-39.5783
-42.9692
-43.7819
-45.6788
-42.5837
-43.7759
-44.1435
-45.464
-42.6794
-39.6426
-40.0106
-41.0289
-40.2217
-37.9245
-37.7765
-37.9883
-37.7835
-38.0378
-38.5144
-38.7452
-37.5633
-38.4013
-38.8452
-38.4423
-39.0076
-52.9601
-50.0476
-50.4527
-41.2236
-49.8737
-47.0369
-48.2081
-48.3606
-59.1651
-57.8348
-54.5593
-65.9115
-39.1566
-7.86854
-4.22694
-31.0061
-45.2607
-45.0892
-43.9216
-46.3245
-42.8528
-41.6531
-42.5593
-42.153
-48.9036
-51.0037
-47.8719
-52.0401
-50.2637
-55.3558
-54.3208
-54.135
-46.4963
-50.4278
-48.5403
-49.1673
-43.7546
-44.1266
-45.4408
-42.6605
-40.2053
-38.9576
-39.3098
-39.5787
-43.1293
-43.9635
-46.5635
-42.5872
-39.6344
-39.7873
-40.7325
-40.0855
-38.3297
-38.801
-38.3867
-38.9452
-37.8139
-37.6356
-37.6823
-37.6846
-38.0227
-38.2805
-38.6013
-37.3107
-52.8488
-49.9312
-50.3716
-41.1207
-38.9533
-7.69387
-4.10979
-30.9248
-49.8176
-47.0257
-48.1845
-48.3064
-59.0573
-57.7027
-54.4461
-65.8313
-45.4576
-44.6217
-43.5611
-46.0587
-50.2556
-55.216
-54.1054
-53.9194
-42.4655
-41.328
-42.255
-41.8134
-48.7076
-50.8089
-47.6978
-51.8528
-122.871
-92.1487
-113.252
-106.768
136.234
181.756
165.722
170.791
-91.5141
-76.9859
-83.3277
-83.3132
143.248
193.838
190.654
190.692
-67.0092
-66.7136
-74.222
-61.6979
-61.9113
-62.5482
-66.2165
-58.7939
-52.1496
-47.7291
-49.9599
-48.8716
-45.476
-45.8253
-45.7742
-45.6912
-48.138
-45.9571
-46.9695
-47.0271
-45.8737
-44.9879
-45.5878
-45.4728
-44.3257
-44.5148
-43.8084
-45.4592
-43.1507
-43.2954
-42.4683
-44.0792
-33.7406
-18.1486
-25.4858
-25.4818
43.3991
139.74
59.7754
59.7876
-58.1641
-61.0416
-55.5837
-65.6807
-18.0564
-5.25649
-16.0422
-6.30707
-35.3864
-43.5295
-38.9635
-38.641
-35.5923
-38.6877
-37.4549
-38.0096
-44.0154
-43.8173
-44.6775
-44.1733
-48.5309
-48.1751
-48.6541
-48.9087
-122.576
-91.4887
-112.674
-106.452
136.28
181.871
170.872
165.828
-66.3965
-66.1688
-73.6897
-61.0806
-61.813
-62.5
-66.2251
-58.7289
-51.3081
-47.0473
-48.2979
-49.2523
-44.9268
-45.5037
-45.3665
-45.1851
-43.8828
-44.0448
-43.3915
-44.9526
-42.9826
-43.1928
-42.3472
-43.9251
-57.9865
-60.8227
-65.4914
-55.4032
-17.9913
-5.2282
-6.26493
-15.9987
-43.5505
-43.6494
-43.7469
-43.9827
-47.887
-47.7868
-48.2942
-48.2459
-39.688
-40.5242
-40.4569
-40.0378
-38.2738
-38.4963
-38.6698
-38.1963
-49.1677
-52.6465
-51.1569
-50.2369
-43.5309
-42.8738
-42.4605
-44.0049
-49.501
-54.0443
-51.5481
-51.5579
-41.2524
-39.8661
-40.3915
-40.3855
-40.526
-41.0632
-40.2971
-41.3534
-41.4287
-43.0542
-42.4836
-42.6046
-38.3781
-38.2731
-38.2786
-38.2905
-40.216
-41.2918
-40.7389
-40.717
-47.4551
-44.6294
-45.3449
-46.4237
-71.4321
-82.5499
-87.0474
-72.2518
23.8076
20.0465
23.7567
23.552
-131.1
-113.485
-135.764
-134.214
-64.0327
-70.6401
-66.7641
-66.7548
-52.5199
-50.2048
-51.2616
-51.2046
-39.5357
-40.3901
-40.3286
-39.8688
-38.2224
-38.468
-38.6358
-38.1529
-49.2572
-52.4713
-50.1911
-51.0963
-43.4646
-42.7556
-42.3731
-43.9109
-40.2901
-40.8489
-41.1246
-40.08
-41.0962
-42.6184
-42.2072
-42.1858
-47.289
-44.4576
-46.2584
-45.1549
-71.4741
-82.5238
-72.3963
-87.0944
-126.82
-119.894
-117.309
-97.6491
-51.4653
-49.8714
-53.861
-51.5381
-49.3305
-48.7573
-50.7761
-49.5601
-114.712
-101.286
-101.648
-83.9338
-127.424
-112.852
-114.406
-94.9813
-116.37
-100.361
-101.48
-82.4686
-49.2687
-48.7312
-50.6909
-49.5205
-49.5097
-49.6418
-53.0378
-51.1345
-92.1351
-83.8339
-83.1281
-76.5411
-92.0287
-83.6839
-83.073
-75.975
-50.3738
-48.7185
-53.2414
-51.0857
-50.426
-48.7526
-53.2885
-51.116
-39.1672
-37.2208
-28.55
-25.5866
-7.41165
7.42798
2.23764
16.9462
-7.37639
7.67811
2.44193
17.0053
-39.1516
-37.1588
-28.5347
-25.5504
136.869
140.606
162.443
179.06
60.329
52.4801
138.334
67.0416
52.5114
60.3305
67.0258
138.399
140.687
136.972
179.151
162.546
-40.7506
-41.4963
-40.9323
-41.5787
-39.2802
-39.329
-39.7645
-39.7734
-43.2761
-44.8209
-42.7719
-44.2173
-48.1539
-49.721
-46.2583
-47.388
-40.6898
-41.4469
-40.8475
-41.5143
-48.0637
-49.6083
-46.1564
-47.2714
-43.0293
-44.5995
-42.5386
-43.997
-39.0219
-39.1187
-39.5919
-39.5928
-39.9291
-40.8209
-39.5212
-40.2507
-40.8013
-39.9052
-40.2335
-39.4963
-38.0795
-37.886
-38.1183
-37.986
-37.9505
-38.1312
-38.0349
-38.1551
-111.885
-69.3448
-115.817
-132.619
-57.8916
-58.423
-64.0195
-64.0182
-58.4409
-57.7513
-64.0157
-64.1383
-69.3606
-112.255
-132.82
-116.474
-42.8038
-38.8541
-43.035
-42.8666
-54.1865
-50.741
-50.5582
-48.3948
-49.5833
-47.2806
-47.3995
-45.9848
-43.1929
-42.5831
-43.3462
-42.7942
-42.4474
-38.4763
-42.6699
-42.5241
-42.7369
-42.2139
-42.8145
-42.3297
-48.812
-46.464
-46.8478
-45.1237
-53.3981
-50.0714
-49.8576
-47.7803
-40.4419
-40.0421
-41.1382
-40.6497
-40.3397
-39.9665
-41.0429
-40.5858
-48.3869
-47.0985
-46.9926
-45.9025
-48.5585
-47.388
-47.1656
-46.1023
-51.1058
-51.6058
-49.626
-50.869
-39.5177
-44.8874
-41.9423
-49.2258
-38.4861
-43.8066
-41.092
-48.2463
-50.7082
-51.3617
-49.3483
-50.6927
-45.8049
-46.2552
-45.8713
-45.9637
-45.7746
-45.2482
-45.6399
-45.4681
-39.9557
-41.1637
-39.3656
-42.3162
-42.5695
-41.5676
-43.4218
-40.6922
-70.4741
2.90369
-132.775
-65.5426
-100.626
-112.825
-61.8551
-49.8113
-53.182
-50.3862
-61.5333
-51.5061
-59.6338
10.4806
-64.7931
-17.6184
-87.5093
-64.7238
-56.5463
-44.6873
-40.9219
-41.57
-49.8554
-46.8792
-132.368
-63.3669
-71.915
2.58776
-100.485
-112.692
-52.6252
-49.6026
-60.8641
-48.9567
-60.6792
-50.981
-64.8053
-17.7811
-59.0893
10.3028
-87.704
-64.6729
-39.5376
-39.9708
-55.7081
-43.377
-48.4638
-45.7984
-44.319
-45.9086
-40.7611
-41.0596
-45.269
-42.0655
-44.6038
-42.1382
-38.5124
-38.6902
-38.1752
-37.9955
-38.2185
-36.9346
-38.2409
-38.8011
-52.8091
-61.5666
-51.3281
-52.3602
-55.1134
-68.7826
-57.3662
-85.807
-44.2658
-47.006
-44.5932
-43.1954
-46.4231
-49.776
-50.6763
-49.1557
-44.482
-45.9023
-44.5855
-42.1576
-40.6793
-41.0492
-45.6727
-42.0706
-38.4703
-38.5902
-38.1498
-38.715
-37.9468
-37.9125
-38.5326
-36.6549
-52.708
-61.4011
-57.1204
-85.5783
-51.2554
-52.2769
-55.0182
-68.6507
-43.8824
-46.8049
-50.4639
-48.8602
-44.416
-42.6863
-46.2554
-49.519
-75.8531
44.4345
-76.9044
30.9744
-95.2838
-98.3787
118.27
103.406
-116.943
-103.943
-116.947
-104.057
-102.069
-102.062
63.3964
63.3853
-79.4835
-71.0627
-55.4069
-54.1635
-72.4473
-61.2527
-65.7519
-57.918
-58.3762
-47.5264
-57.0524
-46.4077
-56.6344
-54.8782
-45.4384
-45.3021
-51.2136
-49.833
-51.0348
-49.5744
-49.3804
-49.4565
-47.6796
-47.5556
-45.2572
-44.9799
-41.586
-41.3222
-43.148
-45.1775
-42.2568
-44.0327
-54.4503
-39.1139
-54.465
-38.4565
-42.4495
-42.454
31.3779
31.3513
-66.7588
-42.5909
-51.3366
-37.6903
-53.695
-61.7657
-29.0523
-24.0234
-35.1061
-34.6159
-34.2124
-33.0728
-34.652
-34.2769
-33.7485
-34.4831
-45.6981
-47.3321
-44.3708
-46.2469
-44.8141
-44.0331
-47.9629
-48.9304
-77.4156
44.2202
-77.0067
26.099
-95.7673
-98.5837
103.417
118.233
-79.4704
-70.9103
-55.183
-54.0597
-72.5833
-60.7423
-65.755
-57.8134
-57.3776
-46.7002
-55.8042
-45.4664
-53.7774
-55.6701
-44.8008
-44.5962
-44.8229
-44.6875
-41.2957
-41.131
-42.7651
-44.712
-42.0763
-43.8069
-66.4996
-42.4473
-51.2205
-37.5844
-61.5642
-53.5581
-23.9369
-28.9586
-44.919
-46.4226
-43.8625
-45.8817
-43.5112
-44.1257
-48.1668
-47.4142
-38.4845
-38.6404
-37.3246
-37.7524
-39.4676
-38.7906
-38.4285
-37.9807
-45.2485
-43.1823
-46.7119
-45.884
-47.697
-47.3523
-43.2087
-44.6575
-45.8016
-43.1245
-45.789
-43.1136
-47.5654
-47.5729
-42.1384
-42.1329
-39.0689
-38.3273
-41.2208
-41.1333
-39.7974
-40.8214
-39.0883
-40.968
-38.7003
-39.3246
-38.6733
-39.2937
-38.5116
-38.5402
-39.749
-39.7316
-53.2195
-62.1176
-49.5667
-54.9022
-48.387
-49.988
-66.9602
-61.0839
8.76958
-27.6683
8.82652
-27.6232
18.494
18.6216
-78.3206
-78.2481
-58.198
-54.832
-58.1336
-54.7563
-61.1631
-61.1443
-53.7832
-53.7408
-38.6983
-38.6177
-37.0524
-37.6417
-39.3389
-38.65
-38.3658
-37.904
-45.6101
-43.2293
-46.752
-45.868
-47.4536
-48.0037
-43.1877
-44.6212
-38.8457
-38.0108
-40.9349
-40.8036
-40.5528
-39.5607
-38.6217
-40.6263
-53.0888
-61.999
-49.3996
-54.7373
-49.8393
-48.2196
-60.971
-66.902
-81.5684
-78.8037
-73.4978
-60.8621
-57.5253
-68.5983
-56.2696
-55.0157
-80.9559
-78.1754
-73.1014
-60.3822
-68.3646
-57.2959
-54.8064
-55.9189
-71.5525
-71.6452
-66.8045
-59.4758
-66.7733
-59.4483
-56.631
-56.6434
-12.1614
-12.1644
-7.94725
4.12123
4.14458
-7.7516
11.6818
11.6945
195.004
200.856