# vtk DataFile Version 2.0
tet_velo
ASCII
DATASET UNSTRUCTURED_GRID
POINTS 29498 float
-0.859459 0.255 -1.815
-0.792721 0.255 1.805
-0.835 0.96049 -1.905
-0.672687 1.485 1.725
0.859459 0.255 -1.815
0.792721 0.255 1.805
0.835 0.96049 -1.905
0.672691 1.485 1.725
-0.811021 0.281192 -0.608334
-0.805118 0.264849 0.598333
-0.801663 1.15609 -0.695
-0.73929 1.32266 0.515
0.811014 0.281199 -0.608334
0.805126 0.264841 0.598333
0.801674 1.1561 -0.695
0.739291 1.32266 0.515
-1.65838 -0.269423 -2.73856
-1.6582 -0.187126 -1.77189
-1.6125 -0.17559 -0.565313
-1.57314 -0.226433 0.640597
-1.55072 -0.246459 1.84712
-1.551 -0.197536 2.81351
-1.55922 -0.119801 3.78042
-1.66352 0.14213 -2.78236
-1.66521 0.242906 -1.81533
-1.60884 0.292418 -0.608102
-1.56049 0.294173 0.598827
-1.52917 0.308055 1.80599
-1.53935 0.359549 2.77243
-1.55452 0.431685 3.73923
-1.65373 0.922995 -2.8709
-1.64852 1.01633 -1.90401
-1.59461 1.18303 -0.694506
-1.51006 1.33661 0.515231
-1.44937 1.46919 1.72467
-1.49732 1.51325 2.69097
-1.53898 1.55714 3.65723
-1.62635 2.2363 -3.0012
-1.61811 2.35421 -2.03381
-1.59022 2.56873 -0.823228
-1.54876 2.80934 0.388073
-1.52164 3.0038 1.59862
-1.52746 3.10103 2.56594
-1.54739 3.16312 3.53256
-0.839788 -0.261219 -2.73835
-0.848166 -0.173756 -1.77158
-0.814457 -0.177271 -0.565355
-0.796312 -0.25071 0.640175
-0.78738 -0.286521 1.84638
-0.793232 -0.225053 2.81301
-0.801087 -0.136178 3.78013
-0.843476 0.142145 -2.7823
-0.796334 0.336726 2.77202
-0.803608 0.419022 3.73901
-0.835703 0.898297 -2.87131
-0.763457 1.51543 2.69104
-0.796268 1.55667 3.65724
-0.820466 2.21344 -3.00161
-0.818557 2.32964 -2.03426
-0.80657 2.55432 -0.823499
-0.785535 2.81062 0.388105
-0.772135 3.01514 1.59885
-0.78016 3.11225 2.56617
-0.797316 3.17106 3.53273
0.829733 -0.261217 -2.73835
0.831196 -0.173754 -1.77158
0.808398 -0.177267 -0.565355
0.802928 -0.250715 0.640175
0.788686 -0.286523 1.84638
0.748022 -0.225054 2.81301
0.725933 -0.136179 3.78013
0.835363 0.142146 -2.7823
0.724714 0.336725 2.77202
0.709889 0.419021 3.73901
0.827703 0.898299 -2.87131
0.683242 1.51543 2.69104
0.690084 1.55667 3.65724
0.801915 2.21344 -3.00161
0.792956 2.32964 -2.03426
0.769682 2.55432 -0.823499
0.738686 2.81062 0.388105
0.714372 3.01514 1.59885
0.704338 3.11225 2.56617
0.698713 3.17106 3.53273
1.65598 -0.269418 -2.73856
1.6559 -0.18712 -1.77189
1.61774 -0.175584 -0.565313
1.5879 -0.226438 0.640596
1.55895 -0.246464 1.84712
1.5208 -0.197539 2.81351
1.4963 -0.119803 3.78042
1.66358 0.142134 -2.78236
1.67146 0.242912 -1.81533
1.61737 0.292426 -0.608102
1.57312 0.294167 0.598827
1.53697 0.308051 1.80599
1.49568 0.359547 2.77243
1.47736 0.431683 3.73923
1.65329 0.923 -2.8709
1.65435 1.01633 -1.90401
1.60046 1.18305 -0.694506
1.51765 1.33661 0.515231
1.45119 1.46919 1.72467
1.44351 1.51325 2.69097
1.44903 1.55713 3.65723
1.61172 2.2363 -3.0012
1.59822 2.35422 -2.03381
1.56144 2.56874 -0.823229
1.51146 2.80934 0.388072
1.47239 3.0038 1.59862
1.45874 3.10103 2.56594
1.45504 3.16312 3.53256
-0.858741 0.607745 -1.87151
0 0.259724 -1.81028
-0.873012 0.230324 -1.21167
-0.848146 0.87 1.88044
0 0.252737 1.80726
-0.807351 0.251493 1.20167
0 0.97795 -1.92246
-0.79181 1.03177 -1.3
1.99676e-06 1.49315 1.73315
-0.708102 1.40594 1.12
0.858746 0.607745 -1.87152
0.872281 0.231055 -1.21167
0.848145 0.87 1.88044
0.807826 0.251018 1.20167
0.791785 1.03174 -1.3
0.708108 1.40595 1.12
-0.808059 0.273031 -0.00500005
-0.872993 0.718643 -0.651667
-3.18209e-06 0.239038 -0.608334
-0.872901 0.793756 0.556667
4.10109e-06 0.241592 0.598333
-0.770495 1.2394 -0.09
5.82792e-06 1.27335 -0.695
6.59455e-07 1.49775 0.515
0.808059 0.273031 -0.00500005
0.872997 0.718651 -0.651667
0.872906 0.793751 0.556667
0.770496 1.2394 -0.09
-0.896443 0.663194 -1.25583
-0.872988 0.756199 -0.0475
-0.873547 0.831878 1.16083
-1.59104e-06 0.230242 -1.21167
4.59499e-07 0.239 -0.00500005
2.05054e-06 0.232151 1.20167
0 0.607745 -1.97711
9.98378e-07 0.87 1.97254
2.91396e-06 1.0475 -1.3
3.24369e-06 1.49774 -0.09
1.32811e-06 1.49774 1.12
0.896443 0.663198 -1.25583
0.872992 0.756201 -0.0475
0.873555 0.831875 1.16083
-1.26234 0.248953 -1.81517
-0.853813 0.0406219 -1.79329
-0.851467 0.198572 -2.29865
-1.16094 0.281527 1.8055
-0.79005 -0.0157604 1.82569
-0.794527 0.295863 2.28851
-1.24176 0.988409 -1.9045
-0.835351 0.929394 -2.38816
-0.826778 1.64506 -1.96963
-1.06103 1.4771 1.72483
-0.718072 1.50022 2.20802
-0.722411 2.25007 1.66193
0.845327 0.0406228 -1.79329
0.847411 0.198573 -2.29865
1.26546 0.248956 -1.81517
0.790704 -0.0157614 1.82569
0.758717 0.295862 2.28851
1.16485 0.281525 1.8055
0.831352 0.929394 -2.38816
0.813978 1.64507 -1.96963
1.24468 0.988412 -1.9045
0.677967 1.50022 2.20802
0.693532 2.25007 1.66193
1.06194 1.4771 1.72483
-1.20993 0.286805 -0.608218
-0.812739 0.0519606 -0.586844
-1.1828 0.279511 0.59858
-0.800715 0.00706956 0.619254
-1.19814 1.16956 -0.694753
-0.804117 1.85521 -0.75925
-1.12467 1.32964 0.515116
-0.762413 2.06664 0.451553
0.809706 0.0519656 -0.586844
1.21419 0.286812 -0.608218
0.804027 0.00706319 0.619254
1.18912 0.279504 0.59858
0.785678 1.85521 -0.75925
1.20107 1.16957 -0.694753
0.738989 2.06664 0.451553
1.12847 1.32964 0.515116
-1.65829 -0.228274 -2.25523
-1.66095 -0.0636464 -2.76046
-1.24908 -0.265321 -2.73845
-1.63535 -0.181358 -1.1686
-1.6617 0.0278904 -1.79361
-1.25318 -0.180441 -1.77174
-1.59282 -0.201011 0.0376417
-1.61067 0.0584142 -0.586708
-1.21348 -0.17643 -0.565334
-1.56193 -0.236446 1.24386
-1.56681 0.0338699 0.619712
-1.18472 -0.238571 0.640386
-1.55086 -0.221998 2.33032
-1.53994 0.0307978 1.82656
-1.16905 -0.26649 1.84675
-1.55511 -0.158669 3.29696
-1.54518 0.0810064 2.79297
-1.17212 -0.211294 2.81326
-1.55687 0.155942 3.75982
-1.18015 -0.127989 3.78027
-1.66437 0.192518 -2.29885
-1.65863 0.532563 -2.82663
-1.2535 0.142137 -2.78233
-1.63703 0.267662 -1.21172
-1.65687 0.629618 -1.85967
-1.58467 0.293295 -0.00463747
-1.60173 0.737726 -0.651304
-1.54483 0.301114 1.20241
-1.53527 0.815392 0.557029
-1.53426 0.333802 2.28921
-1.48927 0.888624 1.76533
-1.54694 0.395617 3.25583
-1.51834 0.936401 2.7317
-1.16784 0.348138 2.77222
-1.54675 0.994411 3.69823
-1.17907 0.425354 3.73912
-1.65112 0.969662 -2.38746
-1.64004 1.57965 -2.93605
-1.24472 0.910646 -2.87111
-1.62156 1.09968 -1.29926
-1.63331 1.68527 -1.96891
-1.55233 1.25982 -0.0896374
-1.59241 1.87588 -0.758867
-1.47971 1.4029 1.11995
-1.52941 2.07298 0.451652
-1.47335 1.49122 2.20782
-1.4855 2.2365 1.66164
-1.51815 1.53519 3.1741
-1.51239 2.30714 2.62846
-1.13039 1.51434 2.691
-1.54318 2.36013 3.59489
-1.16762 1.5569 3.65723
-1.62223 2.29526 -2.51751
-1.22341 2.22487 -3.00141
-1.60416 2.46147 -1.42852
-1.21833 2.34193 -2.03404
-1.56949 2.68904 -0.217578
-1.19839 2.56153 -0.823364
-1.5352 2.90657 0.993346
-1.16715 2.80998 0.388089
-1.52455 3.05241 2.08228
-1.14689 3.00947 1.59874
-1.53742 3.13208 3.04925
-1.15381 3.10664 2.56606
-1.17235 3.16709 3.53265
-0.843977 -0.217487 -2.25496
-0.841632 -0.059537 -2.76032
-0.00502748 -0.261218 -2.73835
-0.831312 -0.175514 -1.16847
-0.00848518 -0.173755 -1.77158
-0.805385 -0.21399 0.03741
-0.00302964 -0.177269 -0.565355
-0.791846 -0.268615 1.24328
0.00330804 -0.250712 0.640175
-0.790306 -0.255787 2.3297
0.000653194 -0.286522 1.84638
-0.79716 -0.180615 3.29657
-0.794783 0.0558366 2.79252
-0.0226053 -0.225053 2.81301
-0.802348 0.141422 3.75957
-0.0375771 -0.136178 3.78013
-0.839589 0.520221 -2.82681
-0.00405635 0.142145 -2.7823
-0.799971 0.377874 3.25551
-0.779895 0.92608 2.73153
-0.0358098 0.336725 2.77202
-0.799938 0.987845 3.69812
-0.0468597 0.419022 3.73901
-0.828085 1.55587 -2.93646
-0.00399986 0.898298 -2.87131
-0.779862 1.53605 3.17414
-0.771808 2.31384 2.6286
-0.0401073 1.51543 2.69104
-0.796792 2.36387 3.59499
-0.0530921 1.55667 3.65724
-0.819512 2.27154 -2.51794
-0.00927562 2.21344 -3.00161
-0.812564 2.44198 -1.42888
-0.0128005 2.32964 -2.03426
-0.796053 2.68247 -0.217697
-0.0184443 2.55432 -0.823499
-0.778835 2.91288 0.993478
-0.0234247 2.81062 0.388105
-0.776147 3.0637 2.08251
-0.0288813 3.01514 1.59885
-0.788738 3.14166 3.04945
-0.037911 3.11225 2.56617
-0.0493016 3.17106 3.53273
0.830465 -0.217486 -2.25496
0.832548 -0.0595354 -2.76032
1.24285 -0.265318 -2.73845
0.819797 -0.175511 -1.16847
1.24355 -0.180437 -1.77174
0.805663 -0.213991 0.03741
1.21307 -0.176426 -0.565334
0.795807 -0.268619 1.24328
1.19541 -0.238576 0.640386
0.768354 -0.255788 2.3297
1.17382 -0.266493 1.84675
0.736978 -0.180616 3.29657
0.736368 0.0558355 2.79252
1.13441 -0.211296 2.81326
0.717911 0.141421 3.75957
1.11111 -0.127991 3.78027
0.831533 0.520222 -2.82681
1.24947 0.14214 -2.78233
0.717301 0.377873 3.25551
0.703978 0.926079 2.73153
1.1102 0.348136 2.77222
0.699986 0.987844 3.69812
1.09363 0.425352 3.73912
0.814809 1.55587 -2.93646
1.2405 0.910649 -2.87111
0.686663 1.53605 3.17414
0.69379 2.31384 2.6286
1.06338 1.51434 2.691
0.694398 2.36386 3.59499
1.06956 1.5569 3.65723
0.797436 2.27154 -2.51794
1.20682 2.22487 -3.00141
0.781319 2.44198 -1.42888
1.19559 2.34193 -2.03404
0.754184 2.68247 -0.217697
1.16556 2.56153 -0.823364
0.726529 2.91288 0.993478
1.12508 2.80998 0.388089
0.709355 3.0637 2.08251
1.09338 3.00947 1.59874
0.701525 3.14166 3.04945
1.08154 3.10664 2.56606
1.07687 3.16709 3.53265
1.65594 -0.228269 -2.25523
1.65978 -0.063642 -2.76046
1.63682 -0.181352 -1.1686
1.66368 0.0278957 -1.79361
1.60282 -0.201011 0.0376417
1.61755 0.0584212 -0.586708
1.57342 -0.236451 1.24386
1.58051 0.0338645 0.619712
1.53987 -0.222001 2.33032
1.54796 0.0307935 1.82656
1.50855 -0.158671 3.29696
1.50824 0.0810039 2.79297
1.48683 0.15594 3.75982
1.66752 0.192523 -2.29885
1.65843 0.532567 -2.82663
1.64441 0.267669 -1.21172
1.66291 0.629623 -1.85967
1.59524 0.293296 -0.00463755
1.60891 0.737736 -0.651304
1.55504 0.301109 1.20241
1.54538 0.815388 0.557029
1.51633 0.333799 2.28921
1.49408 0.888621 1.76533
1.48652 0.395615 3.25583
1.4696 0.936399 2.7317
1.46319 0.994409 3.69823
1.65382 0.969667 -2.38746
1.6325 1.57965 -2.93605
1.62741 1.09969 -1.29926
1.62629 1.68528 -1.96891
1.55906 1.25983 -0.0896375
1.58095 1.87589 -0.758867
[...]
POINT_DATA 29498
VECTORS point_vectors float
-7.60184 -5.78681 17.2657
0.276351 0.272083 2.62787
-1.91945 1.38426 4.61066
0.251444 -0.225656 2.47392
7.61753 -5.80876 17.3156
-0.269238 0.277119 2.67442
1.92593 1.40472 4.62502
-0.256509 -0.239711 2.52109
0.0662704 -0.0451183 0.624234
0.151982 -0.0734854 1.84174
-0.0542247 -0.0574841 0.268276
1.3682e-05 3.6945e-05 0.000136259
-0.0661404 -0.0449228 0.626895
-0.133186 -0.0630181 1.82456
0.0540059 -0.0572024 0.271504
-1.17456e-05 3.16397e-05 0.000119137
-0.744551 -0.449083 20.0474
-1.15088 -0.684188 20.8581
-0.438282 -0.312899 21.5249
-0.0196306 -0.0635483 21.6673
0.427459 0.187196 21.7295
0.730888 0.397699 21.526
0.857851 0.344805 21.2165
-0.938766 -0.333834 19.9032
-1.69791 -0.588229 20.7945
-0.592728 -0.394203 21.637
-0.0746541 -0.244377 21.7352
0.59989 -0.0723094 21.9423
1.09819 0.049627 21.6981
1.3331 -0.0189406 21.4168
-0.953044 0.131221 19.7565
-1.81306 0.285485 20.5
-1.23729 -0.164932 21.5337
-0.496237 -0.342888 21.8144
-0.000911817 -0.512426 21.8224
0.456605 -0.722936 21.6786
0.738522 -0.773911 21.8145
-0.425865 0.321993 20.0731
-0.61863 0.489207 20.4144
-0.590538 0.419054 20.988
-0.361372 0.130195 21.4076
-0.11178 -0.0757155 21.36
-0.0766426 -0.161519 21.306
0.0724523 -0.147242 21.0287
-0.85125 -1.06508 19.395
-1.85512 -2.6225 21.2373
-0.617606 -0.282154 22.0764
-0.197161 -0.0244365 21.8838
0.187732 0.601058 21.9963
0.582824 1.0645 21.736
1.03307 1.61269 20.8311
-1.16452 -0.928188 18.7145
1.75803 0.926375 11.3187
2.30424 1.10226 14.1715
-1.21033 0.363785 18.3709
0.176689 -0.78838 12.7678
0.468286 -1.72348 16.6863
-0.371561 0.591859 19.8205
-0.617024 1.05618 20.2167
-0.630381 1.0203 21.0025
-0.298822 0.373748 21.5495
-0.120729 0.00740759 21.5711
-0.0543338 -0.190301 21.5542
0.0745306 -0.276153 21.2836
0.832159 -1.06888 19.3851
1.84651 -2.69984 21.2521
0.624989 -0.286132 22.0848
0.196427 -0.0362659 21.8801
-0.194036 0.615741 22.0015
-0.530422 1.09225 21.6479
-0.963741 1.73853 20.44
1.16471 -0.932177 18.703
-1.58766 0.956804 9.35079
-2.26844 1.36844 12.2909
1.20752 0.369815 18.3556
0.174418 -0.872532 10.545
-0.299642 -1.74211 14.8274
0.366676 0.599594 19.8131
0.610295 1.07262 20.2105
0.594365 1.04488 20.9975
0.293229 0.382961 21.5574
0.115918 0.00219965 21.5379
0.0358139 -0.191057 21.4659
-0.0779551 -0.284329 21.1775
0.753498 -0.453106 20.0604
1.15288 -0.693376 20.8482
0.446305 -0.325193 21.5164
0.0307601 -0.0743096 21.6653
-0.438915 0.181404 21.7315
-0.747568 0.40563 21.5313
-0.88127 0.40856 21.1902
0.94151 -0.339502 19.9078
1.67983 -0.580891 20.7933
0.593015 -0.391736 21.6329
0.08249 -0.242959 21.7389
-0.595678 -0.0798902 21.9442
-1.1723 0.0648024 21.7004
-1.54491 0.077808 21.2501
0.949528 0.134869 19.7689
1.79838 0.28279 20.5062
1.2285 -0.162459 21.5321
0.489648 -0.33948 21.8099
-0.0113487 -0.515867 21.8393
-0.446309 -0.761897 21.6984
-0.86154 -0.76099 21.5851
0.427025 0.325046 20.0675
0.624651 0.494698 20.4074
0.59782 0.432696 20.9816
0.367497 0.136963 21.4136
0.138128 -0.07924 21.3594
0.0843331 -0.152504 21.3868
-0.0650024 -0.152122 21.1169
-3.64685 -0.317413 4.00587
0.00466214 -2.99408 3.762
-0.0579948 -0.0644138 2.49762
0.051198 -0.0370553 0.145582
0.00207218 0.0698289 0.154994
0.066445 -0.0129432 1.01672
-0.000122129 0.749209 1.14321
-0.264841 -0.0583935 0.349161
0.00237026 -0.021998 0.253004
0.00664264 0.011995 0.127314
3.64717 -0.314083 4.01438
0.062937 -0.0550625 2.4429
-0.0515534 -0.0356748 0.146421
-0.0792841 -0.0138681 0.85222
0.264271 -0.0582904 0.349048
-0.00641064 0.011666 0.127589
0.0617234 -0.0304734 0.935588
3.2554e-06 -3.5494e-05 0.000355401
1.82877e-19 -1.06977e-18 -3.20825e-17
1.89085e-06 5.25003e-05 0.000396552
0 0 0
3.36088e-05 9.40167e-05 0.000216253
2.48889e-05 0.00132099 0.00216524
0 0 0
-0.0609112 -0.0297614 0.935888
-3.42826e-06 -3.77642e-05 0.000376098
-2.83209e-06 8.1464e-05 0.000603398
-1.39764e-05 3.91408e-05 9.16591e-05
-6.00162e-06 -0.000480242 0.00111385
7.94406e-06 0.000142092 0.000928
0 0 0
0 0 0
-1.16838e-07 1.0699e-07 3.92968e-05
0 0 0
0 0 0
0 0 0
3.19621e-07 2.6045e-05 -3.55302e-05
4.05994e-08 5.94287e-06 0.000210584
-1.0124e-07 -5.81697e-08 -4.98354e-05
5.36873e-06 -0.000472985 0.00110105
-7.73885e-06 0.00013934 0.000905733
0 0 0
-3.00748 -1.40144 21.0197
-3.08287 -4.09313 21.6984
-2.8601 -2.53375 17.8641
1.06575 0.158181 20.0029
0.639407 0.868254 19.784
1.15919 0.728211 8.29322
-3.51652 1.01838 20.5044
-3.04057 1.48083 16.9592
-1.60081 2.09994 19.9118
-0.169994 -0.605417 20.5986
-0.0982673 -0.275468 8.99445
-0.274242 -0.0176064 21.8106
3.07708 -4.14397 21.7215
2.86478 -2.55245 17.8396
2.98774 -1.38773 21.0138
-0.645906 0.888197 19.7702
-0.960906 0.683608 7.21408
-1.0664 0.155814 20.1001
3.0405 1.49171 16.936
1.58914 2.13124 19.9023
3.49699 1.00321 20.5012
0.239113 -0.303958 7.6599
0.280636 -0.0128294 21.8152
0.163516 -0.617536 20.6885
-0.330159 -0.624772 21.7165
-0.133675 0.261283 18.7861
0.0999405 -0.295265 20.1937
0.280196 0.0411048 18.8687
-2.14725 -0.756151 21.8971
-1.92699 2.0134 21.0907
-0.853766 -0.720634 21.5914
-0.754754 0.592248 22.0217
0.143792 0.248341 18.7662
0.347751 -0.626054 21.7421
-0.253941 0.0184217 18.8889
-0.0767602 -0.292666 20.2987
1.92792 2.06864 21.0776
2.13341 -0.740961 21.8961
0.749785 0.615043 22.0374
0.850866 -0.696796 21.5483
-1.04563 -0.618193 20.3439
-0.878429 -0.403355 19.9568
-0.86308 -0.699671 19.7948
-0.8192 -0.511147 21.3653
-1.40208 -0.656637 20.8315
-1.59583 -1.33032 21.0037
-0.191977 -0.169213 21.6211
-0.521263 -0.348391 21.5712
-0.421236 -0.327616 21.7937
0.178246 0.0364355 21.7672
-0.043988 -0.153902 21.6513
-0.029759 -0.0455267 21.7775
0.612537 0.298405 21.6601
0.491801 0.0815723 21.7653
0.432501 0.402929 21.9101
0.883959 0.423891 21.3309
0.960836 0.261344 21.6097
0.85013 0.778632 21.6367
1.10968 0.177126 21.1824
1.17688 0.90088 21.3094
-1.41844 -0.507977 20.1217
-1.0081 -0.119708 19.7669
-1.16542 -0.576981 19.42
-1.16178 -0.500425 21.4946
-1.93458 -0.215362 20.6588
-0.275048 -0.314195 21.668
-0.882292 -0.396159 21.6555
0.166868 -0.165455 21.9015
-0.204078 -0.29371 21.8452
0.878204 -0.00484981 21.8144
0.480906 -0.43869 21.9433
1.3113 0.0762901 21.3236
1.00641 -0.529161 21.7207
1.72978 0.324841 20.0277
1.32594 -0.606181 21.2019
2.32958 0.334626 19.5645
-1.44975 0.230151 19.9438
-0.681073 0.342455 19.9033
-1.19869 0.225445 19.2324
-1.59041 0.10584 21.2273
-1.161 0.6059 20.3953
-0.856276 -0.316062 21.7659
-1.10543 0.416919 21.2078
-0.231314 -0.392522 21.833
-0.555231 0.0702256 21.5928
0.226214 -0.603328 21.7589
-0.142759 -0.212235 21.616
0.667052 -0.708248 21.5498
0.0847476 -0.362236 21.5032
0.320968 -0.95576 21.2763
0.220723 -0.392602 21.2513
0.932759 -1.28256 20.8437
-0.54178 0.426066 20.2133
-0.420668 0.449831 19.926
-0.651958 0.493473 20.7574
-0.675529 0.749703 20.3221
-0.507253 0.301435 21.2118
-0.650387 0.665194 20.9982
-0.238226 0.0179926 21.3819
-0.413181 0.230376 21.5081
-0.111472 -0.125409 21.3846
-0.166756 -0.019054 21.6358
0.00851275 -0.234694 21.2855
-0.0898898 -0.191142 21.7288
0.0503564 -0.24882 21.3574
-1.4692 -2.06942 19.6753
-1.01345 -1.0748 19.0787
-0.0110749 -1.5894 18.9446
-1.12229 -1.14601 22.2425
-0.0218674 -4.49694 21.4596
-0.351469 -0.103518 21.8833
-0.00535373 -1.02144 22.18
-0.0191049 0.183995 22.028
-0.00205766 -0.433876 21.6311
0.401512 0.912771 21.9087
0.00466933 0.358835 21.4875
0.796258 1.20611 21.2754
1.24163 1.4819 19.2264
0.0146436 1.09877 20.6164
1.5851 1.47282 17.2276
0.0557861 1.60662 19.0589
-1.33565 -0.349928 18.2577
-0.00607937 -1.43652 17.7954
2.3118 1.26965 13.5873
0.248483 -1.20773 4.12362
0.0126938 0.327922 3.5143
1.91159 -0.519872 10.1049
0.179374 1.4552 3.38004
-0.701979 0.805111 19.2558
-0.00837441 0.570205 17.3195
0.473253 -1.49641 15.4404
-0.11027 -0.38136 21.668
-0.138803 0.136335 0.353323
0.0169072 -0.618616 20.7121
-0.13305 -0.790723 2.33633
-0.514773 0.857005 19.9547
-0.00446004 0.73079 19.6598
-0.665402 1.11164 20.6414
-0.0126895 1.45185 20.0698
-0.482885 0.720711 21.378
-0.0103242 1.40228 20.9993
-0.21425 0.140417 21.5969
-0.015194 0.531651 21.6759
-0.137932 -0.0968239 21.7216
-0.00552983 0.12429 21.7161
-0.0378372 -0.166233 21.6819
0.00517696 -0.182311 21.9218
0.00675175 -0.256002 21.4306
1.46147 -2.08626 19.6659
1.0051 -1.08273 19.0619
0.871059 -0.711295 19.763
1.12794 -1.16154 22.2613
1.61076 -1.36164 20.9972
0.353347 -0.106318 21.8815
0.425443 -0.328063 21.7873
0.0230375 0.192855 22.039
0.0375913 -0.0514001 21.7691
-0.384695 0.92864 21.9056
-0.425247 0.416394 21.9065
-0.694035 1.29064 20.914
-1.10059 1.53305 18.3202
-0.835923 0.821253 21.6067
-1.52971 1.61485 16.7871
-1.13003 1.04768 21.3811
1.33307 -0.351009 18.2429
1.17095 -0.583026 19.42
-2.19845 1.38655 11.3644
0.0768255 -1.22023 1.31162
-1.85606 0.454576 19.4074
-1.52328 -0.304543 6.29591
-2.47029 0.445128 18.8077
0.697173 0.810115 19.2457
1.19766 0.225647 19.2212
-0.153939 -1.47208 12.7908
0.122231 -0.369379 21.7068
-0.337533 -1.01698 21.0411
0.0405965 -0.555297 21.0291
-0.930327 -1.53901 20.7213
0.510297 0.868606 19.9507
0.420123 0.455147 19.9207
0.655345 1.13179 20.6364
0.675751 0.769111 20.3171
0.475776 0.745363 21.3892
0.652442 0.698477 20.9985
0.201226 0.139844 21.5587
0.405974 0.252545 21.5259
0.129719 -0.0983961 21.6638
0.183916 -0.0169466 21.6894
0.0726945 -0.16294 21.6115
0.0904814 -0.199676 21.8212
-0.0385771 -0.270897 21.4118
1.0486 -0.632002 20.3264
0.880635 -0.405407 19.9686
0.816814 -0.517703 21.3617
1.39747 -0.658626 20.8275
0.193992 -0.17858 21.622
0.527983 -0.355549 21.5611
-0.171755 0.0410026 21.7693
0.055294 -0.158424 21.6447
-0.630889 0.288827 21.6382
-0.49775 0.0799261 21.7759
-0.91891 0.455114 21.2964
-1.00942 0.294847 21.5993
-1.2916 0.248396 21.0442
1.40894 -0.503826 20.1318
1.00835 -0.118506 19.7756
1.15226 -0.496731 21.4874
1.92369 -0.212784 20.6663
0.280245 -0.312921 21.6689
0.878197 -0.391834 21.6518
-0.168393 -0.162165 21.9087
0.20442 -0.291159 21.8461
-0.904417 0.000539852 21.7981
-0.488624 -0.435044 21.9542
-1.36541 0.106071 21.3646
-1.10042 -0.615847 21.6793
-1.46478 -0.611611 21.2641
1.44615 0.230412 19.9526
0.683651 0.346015 19.8997
1.57917 0.108874 21.2278
1.16809 0.610275 20.3924
0.851967 -0.313028 21.7627
1.12089 0.42437 21.2084
0.230499 -0.389247 21.8334
0.558422 0.0825125 21.6015
-0.228029 -0.627249 21.7955
0.148647 -0.207558 21.6269
-0.655945 -0.780416 21.5724
-0.0710826 -0.376454 21.5096
-0.176952 -0.485095 21.4328
0.545296 0.429715 20.2052
0.662771 0.508208 20.7535
0.514437 0.308511 21.2151
0.242523 0.0153728 21.3878
0.110971 -0.126562 21.4475
-0.0263469 -0.204286 21.332
-1.24755 -0.588293 20.2402
-2.04768 -2.45958 18.9741
-1.36372 -1.16372 20.0911
-2.15962 -1.07788 19.5648
-1.04559 -0.678966 19.5815
-2.25526 -1.49069 21.0208
-0.994235 -0.525691 21.4073
-1.28294 -0.846988 21.8835
-0.972731 -0.791362 21.7478
-1.44089 -0.900937 22.2626
-0.330205 -0.380284 21.9221
-0.241712 -0.239415 21.6321
0.151674 0.149164 18.6769
-0.187864 -0.148231 21.7368
0.0046004 -0.420581 20.827
0.0733042 -0.108695 21.6837
0.168089 -0.0627643 21.8128
0.461502 0.176613 19.2847
0.149789 0.112005 21.8984
0.292646 -0.179512 20.0892
0.749971 0.442438 21.8275
0.741409 0.172603 21.716
0.873751 1.25359 19.7328
0.640693 0.61452 21.8014
1.46282 0.252637 19.8508
1.34559 0.768034 21.3151
1.07524 0.328624 21.3834
1.67885 1.69831 17.7395
1.09159 0.879064 21.2417
1.87769 0.334271 19.5447
1.85269 0.836956 20.8762
-1.5657 -0.161812 19.9844
-3.83179 -0.79913 16.2347
-2.34467 0.601218 19.1032
-1.32024 -0.208456 19.1988
-4.18474 -0.337642 20.8347
-1.47946 -0.272072 21.4798
-2.30248 0.0789483 21.693
-0.800187 -0.776261 20.9881
-0.474885 -0.365993 21.7804
-1.44712 -0.855871 21.8974
0.12875 -0.535031 19.1359
0.0684974 -0.314501 21.9399
-0.464771 -0.524957 20.897
0.830184 -0.57353 18.6515
0.745609 -0.493717 21.797
-0.564492 -1.61324 1.74002
0.0252959 -0.800146 21.1662
1.46353 -0.879204 19.7589
1.21928 -0.550614 21.5546
1.49365 -1.07445 7.22142
0.635288 -1.05144 21.2753
1.97956 -0.918069 19.8035
-0.935637 0.500938 20.0375
-1.17259 1.50127 19.2655
-0.574515 0.6317 20.0877
-0.76299 0.537135 19.623
-1.49277 1.16446 20.2184
-1.19414 0.550182 20.8456
-1.72234 1.89747 20.5832
-0.707197 0.758364 20.7139
-1.53789 0.892513 21.259
-0.847016 0.237466 21.4933
-1.4149 1.37261 22.0685
-0.550245 0.468891 21.313
-0.707886 0.246096 21.8148
-0.313504 -0.0891652 21.6464
-0.445448 0.213319 21.8817
-0.296153 0.0547321 21.6253
-0.233876 -0.153173 21.7278
-0.000685278 -0.290829 21.587
-0.196784 -0.200405 21.7923
-0.148453 -0.103442 21.802
-0.0129429 -0.391924 21.5708
0.207225 -0.473204 21.3737
-0.0673062 -0.500161 21.3389
0.0215304 -0.177859 21.7275
0.118775 -0.656541 21.5291
2.04417 -2.49082 18.9507
-0.0175545 -3.36004 19.1068
-0.00528843 -4.62177 15.6792
-0.00713705 -1.61057 18.3997
-0.00767755 -7.21736 22.2353
1.30333 -0.867458 21.9046
-0.00960942 -2.22472 22.8195
-0.00910628 -0.37099 12.9985
-0.14453 0.14853 18.6944
-0.00359572 -0.605022 21.5049
-0.0231419 -0.242017 12.8909
-0.4616 0.184814 19.3187
0.00873137 -0.109621 21.6246
0.0277015 0.408932 14.2844
-0.818223 1.2896 19.2298
0.0113406 0.703371 21.2312
0.0367846 -0.354891 2.29521
0.0615066 0.961333 12.8027
-1.56491 1.78565 17.315
0.0298063 1.37618 20.0029
0.0203929 1.37125 3.93884
0.174709 1.75769 12.42
3.84418 -0.807229 16.1873
-0.00807518 2.79514 14.0734
-0.00517341 -0.528252 17.0023
0.772248 -1.64942 0.958284
-0.0253921 0.670086 1.36691
-0.0954185 1.41046 -2.89666
-1.22792 -0.741225 4.37389
-0.0455424 0.297333 0.235917
0.307508 2.97492 -4.47494
1.1623 1.51973 19.2529
-0.00775889 1.1327 19.7555
-0.00628345 1.13225 18.8394
-0.016286 3.32219 19.4806
1.7104 1.94111 20.5719
-0.0174572 1.48925 20.5624
-0.0098794 3.62124 20.7376
1.41168 1.42719 22.0867
-0.012527 0.990617 21.4709
-0.0113671 1.08613 22.204
0.444518 0.227785 21.8885
-0.0132562 0.244441 21.8496
-0.00604375 0.195164 21.8387
0.199606 -0.181681 21.7564
-0.00228666 -0.122462 22.12
-0.0107544 -0.171771 21.7663
0.0704498 -0.491053 21.3354
0.0137774 -0.157651 21.915
0.0252618 -0.508647 21.2416
1.24255 -0.59416 20.2389
1.37576 -1.18784 20.0553
2.16366 -1.08107 19.5575
1.05105 -0.692687 19.5763
2.26335 -1.50617 21.0237
0.98863 -0.528078 21.4002
0.977862 -0.798204 21.7432
1.44489 -0.897742 22.238
0.338128 -0.384605 21.9172
0.244768 -0.241976 21.6362
0.192964 -0.150278 21.7282
0.0131651 -0.421988 20.8911
-0.0554884 -0.114505 21.6898
-0.162501 -0.0658782 21.8025
-0.144836 0.111273 21.9026
-0.288769 -0.17554 20.187
-0.752389 0.437756 21.8338
-0.753773 0.186088 21.7222
-0.640856 0.636043 21.8015
-1.50454 0.29881 19.3895
-1.37059 0.880926 21.2912
-1.12118 0.360191 21.4145
-1.05407 0.925981 21.3369
-2.04634 0.510616 18.5229
-1.79089 0.891467 20.7192
1.56598 -0.160183 19.9938
2.34599 0.600297 19.0983
1.32654 -0.212434 19.1858
4.1539 -0.338982 20.8303
1.47213 -0.272867 21.473
2.30023 0.0811202 21.6827
0.8138 -0.758394 21.0748
0.477358 -0.363458 21.7735
1.4462 -0.841573 21.9257
-0.119124 -0.546952 19.3089
-0.0602843 -0.310342 21.9455
0.468185 -0.530052 20.9526
-0.839386 -0.573997 18.7502
-0.783985 -0.516707 21.7913
-0.0236617 -0.783997 20.8824
-1.42651 -0.879163 18.0317
-1.32231 -0.54654 21.6821
-0.665224 -1.16344 21.041
-2.28466 -1.13863 18.8021
0.940326 0.503175 20.036
0.574394 0.642891 20.0799
0.763642 0.542446 19.614
1.50028 1.18204 20.2128
1.20172 0.555712 20.846
0.706308 0.776419 20.7101
1.56133 0.926521 21.2568
0.861683 0.240298 21.5018
0.545256 0.504206 21.3229
0.71387 0.258534 21.8258
0.319459 -0.0824186 21.6477
0.28749 0.0725057 21.6689
0.241026 -0.15163 21.7472
0.0143397 -0.300573 21.6004
0.147396 -0.102468 21.8798
0.0215673 -0.402724 21.5861
-0.192844 -0.477038 21.2759
-0.00898514 -0.164393 21.7912
-0.0963582 -0.699676 21.4883
-1.77253 -1.19473 19.8528
-1.17468 -0.859456 21.9908
-0.0477032 -0.187347 21.7609
0.296698 0.0456955 21.8254
1.07377 0.660689 21.5558
1.39482 0.781402 21.4774
-2.68715 -0.325795 19.0627
-2.12314 -0.44108 22.49
-0.152076 -0.845018 19.9314
0.289243 -0.320012 18.8647
1.13807 -0.791966 19.1645
1.63678 -0.622399 19.8509
-1.15368 0.906358 19.7499
-1.56511 1.04125 20.7942
-1.18596 0.600576 21.7455
-0.418105 0.0212421 21.771
-0.108944 -0.28676 21.6834
0.103159 -0.521226 21.3379
-0.0107396 -4.15204 17.8832
0.0270213 -1.84711 19.0767
-0.00913462 -0.238602 12.5148
0.00436605 -0.0470016 13.6086
0.0372252 0.628265 13.5112
0.0290111 1.71017 12.8301
-0.00880931 -1.47683 12.2394
-0.0331594 -1.03963 -1.24524
0.194746 2.54955 -3.79429
-0.0110205 2.23847 18.7091
-0.0239878 3.16228 20.229
-0.0274707 2.45214 22.3004
-0.0078892 0.526792 22.0002
-0.0111687 0.00690585 21.7481
0.00405901 -0.332999 21.8766
1.77892 -1.21108 19.8514
1.17782 -0.863618 21.9876
0.0583693 -0.192648 21.7579
-0.288921 0.0430825 21.8474
-1.08342 0.704513 21.5301
-1.4679 0.972642 21.3336
2.68944 -0.328528 19.0625
2.1186 -0.440885 22.4859
0.167265 -0.831685 20.0397
-0.291741 -0.330818 18.9982
-1.10903 -0.766798 18.1164
-1.83648 -0.718603 18.5502
1.15834 0.918081 19.7411
1.57891 1.06015 20.7914
1.19693 0.627551 21.7539
0.422267 0.0261626 21.7853
0.12954 -0.285915 21.7
-0.097229 -0.544059 21.4437
-3.29671 -0.651904 5.47541
-0.28189 -1.58775 2.60694
-0.101043 0.000984 1.68716
0.0327702 -0.0137684 0.0917257
-0.0127001 0.070883 0.297682
0.0224446 -0.0106414 0.82043
-4.65632 0.574469 4.10435
-0.221783 1.58178 1.71265
-0.324808 -0.119491 0.695129
-0.0156902 -0.130275 0.296193
-0.0414721 -0.0443069 0.352518
0.00850814 0.0388916 0.65496
0.281577 -1.58974 2.60548
2.94206 -0.556016 4.93304
0.0757933 0.00813775 1.7604
0.0156104 0.0760703 0.326403
-0.0327041 -0.0131474 0.0915928
-0.0251613 0.0175279 0.585771
0.221873 1.5884 1.70916
4.64674 0.574766 4.09802
0.323582 -0.118259 0.694317
0.045518 -0.045246 0.356776
0.013522 -0.130153 0.299514
-0.00711872 0.0375212 0.658377
0.226489 0.118626 0.956543
0.0802722 -0.0427417 0.88588
0.000473452 -0.00856512 0.0668586
0.000154384 5.32754e-06 0.000405276
0.103938 -0.0543683 1.07726
0.107384 -0.0414354 1.58213
-2.86322e-05 0.00053817 0.0052944
0.000599159 -1.70071e-05 0.004059
-0.288469 -0.0416267 0.125217
-3.9099e-05 0.000553883 0.0134755
1.74375e-05 8.53808e-05 0.00052287
-0.000725512 0.00138174 0.00227064
0.00593031 0.0121688 0.0596297
0 0 0
-1.22574e-05 -3.55423e-05 -0.000115382
-1.61933e-05 -4.24394e-07 -0.000123897
-0.225864 0.120374 0.983569
0 0 0
-0.080659 -0.0431496 0.888097
-0.000469328 -0.008565 0.0671098
-0.0769014 -0.0507407 0.957605
0 0 0
-0.103549 -0.0386127 1.58114
3.05495e-05 0.000579505 0.00528255
0.251959 -0.0371247 0.109903
0.00115918 0.00221166 0.00364382
4.10946e-05 0.000546408 0.0135847
-1.50961e-05 8.35158e-05 0.000536591
-0.00577092 0.0118483 0.0595438
1.64612e-05 -4.33972e-07 -0.000126925
0 0 0
1.06203e-05 -3.06893e-05 -0.000101437
-0.00786771 -0.0157395 0.0895409
0 0 0
1.89824e-07 -4.04303e-06 5.39455e-05
0.000965826 -1.04408 0.839724
2.68852e-05 -0.000816267 0.0102488
0 0 0
1.10255e-05 -6.74785e-05 0.000589041
0 0 0
0 0 0
-8.23017e-08 7.92807e-06 -2.03534e-07
-5.61118e-07 -1.05128e-06 0.000219911
8.55896e-05 1.35916e-06 0.0010128
6.39344e-07 -0.000372904 -9.45039e-05
3.63059e-06 -9.16465e-06 -0.000104377
0 0 0
-0.000388711 3.24932e-05 0.000159513
2.86363e-06 3.04829e-05 -2.21745e-05
7.32727e-08 1.18615e-08 2.15361e-05
0.000624123 0.00155515 0.0127808
-4.47395e-06 -3.27417e-08 -5.91823e-05
0 0 0
0.00785567 -0.0157695 0.0895123
0 0 0
-2.01087e-05 -0.000706738 0.00869082
0 0 0
-1.00717e-05 -6.94003e-05 0.000632409
0 0 0
2.63847e-07 -8.35707e-07 0.000105793
0.000387406 3.24029e-05 0.000159779
0 0 0
4.64538e-06 -3.31898e-08 -6.4017e-05
-0.000607281 0.00151306 0.0124052
-0.000579827 0.00487643 0.0919354
0.00155443 1.89163e-05 0.00793125
0 0 0
3.19471e-06 3.43429e-05 0.000301145
-6.65808e-05 0.00757348 0.0840505
4.07108e-08 -7.73235e-08 -1.36884e-05
1.40451e-05 0.000272064 0.00190467
0 0 0
-1.59136e-06 3.22066e-07 0.0001089
0 0 0
0.0447271 0.139592 0.449387
-1.26252e-05 6.47756e-05 0.00271658
0 0 0
-0.00011935 0.484987 0.824675
0 0 0
-1.34898e-07 -2.54607e-07 -0.000118048
0 0 0
0.000586479 0.00500543 0.0918868
0 0 0
-3.40649e-06 3.6654e-05 0.000322434
-1.43202e-05 0.000281817 0.00194544
3.43848e-19 -1.66404e-17 -1.04509e-16
1.3554e-05 6.49225e-05 0.00272568