# vtk DataFile Version 2.0
tet_velo
ASCII
DATASET UNSTRUCTURED_GRID
POINTS 29498 float
-0.585 0.085 -1.94141
-0.695 0.175 1.77782
-0.647814 0.635 -1.725
-0.575 0.835 1.80336
0.585 0.085 -1.94141
0.695 0.175 1.77782
0.647814 0.635 -1.725
0.575 0.835 1.80336
-0.636566 0.1001 -0.701667
-0.702146 0.101188 0.538077
-0.699381 0.777505 -0.54888
-0.671123 0.840185 0.62724
0.636567 0.1001 -0.701667
0.70215 0.101183 0.538077
0.699364 0.777488 -0.54888
0.671095 0.840157 0.62724
-1.23964 -0.294038 -2.97979
-1.24471 -0.242137 -2.01347
-1.28784 -0.229124 -0.772085
-1.33601 -0.232094 0.482108
-1.34056 -0.185893 1.72457
-1.34167 -0.147594 2.69617
-1.34782 -0.114363 3.65799
-1.24204 0.0155445 -2.89445
-1.24897 0.0813663 -1.93509
-1.30004 0.112254 -0.706082
-1.34317 0.113844 0.528653
-1.32721 0.157396 1.75888
-1.33579 0.194746 2.72958
-1.34804 0.227827 3.69347
-1.27084 0.613445 -2.70593
-1.29879 0.677371 -1.74394
-1.34411 0.785457 -0.558304
-1.32472 0.831862 0.622824
-1.2572 0.840541 1.80968
-1.30094 0.875465 2.78301
-1.33966 0.912284 3.75716
-1.30053 1.59602 -2.47099
-1.31793 1.67 -1.51852
-1.33963 1.78268 -0.353516
-1.34169 1.86464 0.797779
-1.33088 1.902 1.96345
-1.33639 1.92566 2.91731
-1.35381 1.95444 3.88451
-0.599698 -0.292548 -2.98389
-0.596926 -0.238367 -2.01946
-0.627974 -0.234812 -0.771281
-0.673646 -0.240864 0.490151
-0.683302 -0.178662 1.73864
-0.688951 -0.142856 2.70571
-0.695864 -0.112793 3.66351
-0.598127 0.0121128 -2.89572
-0.695454 0.20009 2.73745
-0.701602 0.229291 3.69764
-0.619905 0.594624 -2.69807
-0.666886 0.874486 2.78174
-0.699856 0.911729 3.75689
-0.643012 1.58325 -2.46321
-0.655439 1.65804 -1.50995
-0.675925 1.77967 -0.348349
-0.686584 1.86752 0.797159
-0.685939 1.90304 1.95902
-0.693497 1.92515 2.91288
-0.709408 1.95371 3.8813
0.641574 -0.292551 -2.98389
0.622446 -0.238369 -2.01946
0.657791 -0.234814 -0.771282
0.699008 -0.240868 0.490151
0.689491 -0.178665 1.73864
0.647256 -0.142859 2.70571
0.62153 -0.112797 3.66351
0.638267 0.0121102 -2.89572
0.624668 0.200087 2.73745
0.605449 0.229286 3.69764
0.656887 0.594621 -2.69807
0.581764 0.874483 2.78174
0.582739 0.911724 3.75689
0.667398 1.58324 -2.46321
0.667535 1.65803 -1.50995
0.658826 1.77965 -0.348349
0.631555 1.86751 0.797159
0.601286 1.90302 1.95902
0.587629 1.92514 2.91288
0.578174 1.9537 3.8813
1.27497 -0.294047 -2.97979
1.26119 -0.242145 -2.01347
1.30669 -0.229134 -0.772085
1.35983 -0.232106 0.482108
1.35264 -0.185901 1.72457
1.31402 -0.147602 2.69617
1.28452 -0.114373 3.65799
1.26994 0.0155366 -2.89445
1.24721 0.0813584 -1.93509
1.2992 0.112241 -0.706082
1.35302 0.113829 0.528653
1.33518 0.157389 1.75888
1.29173 0.194739 2.72958
1.26699 0.227817 3.69347
1.29413 0.613436 -2.70593
1.29415 0.67736 -1.74394
1.33763 0.785431 -0.558304
1.3259 0.831829 0.622824
1.25515 0.84053 1.80968
1.23989 0.875456 2.78301
1.23703 0.912273 3.75716
1.31962 1.59601 -2.47099
1.32323 1.66998 -1.51852
1.32033 1.78265 -0.353516
1.29297 1.86462 0.797779
1.2556 1.90198 1.96345
1.23765 1.92565 2.91731
1.22815 1.95442 3.88451
-0.588749 0.36 -1.80555
0 0.0804529 -1.94596
-0.619968 0.083365 -1.32154
-0.668713 0.505 1.8243
0 0.241148 1.71167
-0.711567 0.1251 1.15795
0 0.668748 -1.75875
-0.714929 0.747584 -1.13694
0 0.89724 1.8656
-0.654885 0.869416 1.2153
0.588743 0.36 -1.80554
0.619932 0.0834015 -1.32154
0.668696 0.505 1.82429
0.711763 0.124904 1.15795
0.714911 0.747566 -1.13694
0.654884 0.869415 1.2153
-0.669286 0.100714 -0.081795
-0.80165 0.438802 -0.625273
2.12051e-07 0.0940396 -0.701667
-0.839301 0.470686 0.582658
2.29832e-06 0.0976487 0.538077
-0.686251 0.809844 0.03918
-8.48732e-06 1.02237 -0.54888
-1.41403e-05 1.1843 0.62724
0.669289 0.100711 -0.081795
0.801658 0.438794 -0.625273
0.839442 0.47067 0.582658
0.686251 0.809844 0.03918
-0.863436 0.399401 -1.22924
-0.808453 0.454744 -0.0213075
-0.893361 0.487843 1.18662
1.06026e-07 0.0763201 -1.32154
1.25519e-06 0.0958453 -0.081795
1.14916e-06 0.194342 1.15795
0 0.36 -1.89136
0 0.505 2.03913
-4.24366e-06 0.824363 -1.13694
-1.13138e-05 1.21784 0.03918
-7.07013e-06 1.0709 1.2153
0.863452 0.399397 -1.22924
0.808455 0.454732 -0.0213075
0.893362 0.487835 1.18662
-0.916987 0.0831831 -1.93825
-0.590963 -0.0766836 -1.98044
-0.591564 0.0485564 -2.41856
-1.01111 0.166198 1.76835
-0.689151 -0.00183121 1.75823
-0.695227 0.187545 2.25763
-0.9733 0.656185 -1.73447
-0.63386 0.614812 -2.21153
-0.651627 1.14652 -1.61748
-0.916101 0.837771 1.80652
-0.620943 0.854743 2.29255
-0.630469 1.36902 1.88119
0.603723 -0.0766845 -1.98044
0.611634 0.0485551 -2.41856
0.916107 0.0831792 -1.93825
0.692246 -0.00183237 1.75823
0.659834 0.187544 2.25763
1.01509 0.166195 1.76835
0.65235 0.614811 -2.21153
0.657675 1.14652 -1.61748
0.970984 0.65618 -1.73447
0.578382 0.854741 2.29255
0.588143 1.36901 1.88119
0.915073 0.837765 1.80652
-0.968303 0.106177 -0.703875
-0.63227 -0.0673556 -0.736474
-1.02266 0.107516 0.533365
-0.687896 -0.069838 0.514114
-1.02175 0.781481 -0.553592
-0.687653 1.27858 -0.448615
-0.997922 0.836024 0.625032
-0.678853 1.35385 0.7122
0.647179 -0.0673571 -0.736474
0.967884 0.10617 -0.703875
0.700579 -0.0698426 0.514114
1.02759 0.107506 0.533365
0.679095 1.27857 -0.448615
1.0185 0.78146 -0.553592
0.651325 1.35383 0.7122
0.998496 0.835993 0.625032
-1.24218 -0.268088 -2.49663
-1.24084 -0.139247 -2.93712
-0.91967 -0.293293 -2.98184
-1.26628 -0.235631 -1.39278
-1.24684 -0.0803855 -1.97428
-0.92082 -0.240252 -2.01647
-1.31192 -0.230609 -0.144988
-1.29394 -0.0584351 -0.739084
-0.957906 -0.231968 -0.771683
-1.33829 -0.208993 1.10334
-1.33959 -0.0591248 0.505381
-1.00483 -0.236479 0.48613
-1.34111 -0.166744 2.21037
-1.33389 -0.0142487 1.74173
-1.01193 -0.182278 1.73161
-1.34474 -0.130979 3.17708
-1.33873 0.0235759 2.71287
-1.01531 -0.145225 2.70094
-1.34793 0.0567318 3.67573
-1.02184 -0.113578 3.66075
-1.24551 0.0484554 -2.41477
-1.25644 0.314495 -2.80019
-0.920083 0.0138286 -2.89509
-1.27451 0.09681 -1.32059
-1.27388 0.379369 -1.83952
-1.32161 0.113049 -0.0887146
-1.32208 0.448855 -0.632193
-1.33519 0.13562 1.14377
-1.33395 0.472853 0.575739
-1.3315 0.176071 2.24423
-1.29221 0.498968 1.78428
-1.34191 0.211286 3.21152
-1.31836 0.535106 2.75629
-1.01562 0.197418 2.73351
-1.34385 0.570055 3.72531
-1.02482 0.228559 3.69555
-1.28482 0.645408 -2.22494
-1.28569 1.10473 -2.58846
-0.945375 0.604035 -2.702
-1.32145 0.731414 -1.15112
-1.30836 1.17369 -1.63123
-1.33442 0.80866 0.0322603
-1.34187 1.28407 -0.45591
-1.29096 0.836201 1.21625
-1.3332 1.34825 0.710302
-1.27907 0.858003 2.29634
-1.29404 1.37127 1.88657
-1.3203 0.893875 3.27008
-1.31867 1.40056 2.85016
-0.983914 0.874976 2.78237
-1.34673 1.43336 3.82083
-1.01976 0.912007 3.75702
-1.30923 1.63301 -1.99476
-0.971772 1.58963 -2.4671
-1.32878 1.72634 -0.936019
-0.986684 1.66402 -1.51424
-1.34066 1.82366 0.222132
-1.00778 1.78117 -0.350932
-1.33629 1.88332 1.38061
-1.01414 1.86608 0.797469
-1.33364 1.91383 2.44038
-1.00841 1.90252 1.96124
-1.3451 1.94005 3.40091
-1.01494 1.92541 2.9151
-1.03161 1.95407 3.8829
-0.598312 -0.265458 -2.50168
-0.598913 -0.140218 -2.9398
0.0209377 -0.292549 -2.98389
-0.61245 -0.236589 -1.39537
0.0127598 -0.238368 -2.01946
-0.65081 -0.237838 -0.140565
0.0149084 -0.234813 -0.771282
-0.678474 -0.209763 1.11439
0.0126808 -0.240866 0.490151
-0.686126 -0.160759 2.22217
0.00309458 -0.178664 1.73864
-0.692407 -0.127825 3.18461
-0.692203 0.0286166 2.72158
-0.0208471 -0.142858 2.70571
-0.698733 0.0582489 3.68057
-0.0371669 -0.112795 3.66351
-0.609016 0.303369 -2.79689
0.02007 0.0121115 -2.89572
-0.698528 0.21469 3.21754
-0.68117 0.537288 2.75959
-0.0353934 0.200088 2.73745
-0.700729 0.57051 3.72726
-0.0480766 0.229288 3.69764
-0.631459 1.08894 -2.58064
0.0184909 0.594623 -2.69807
-0.683371 0.893108 3.26932
-0.680192 1.39982 2.84731
-0.042561 0.874484 2.78174
-0.704632 1.43272 3.81909
-0.0585582 0.911727 3.75689
-0.649226 1.62064 -1.98658
0.0121929 1.58324 -2.46321
-0.665682 1.71885 -0.929151
0.00604822 1.65804 -1.50995
-0.681254 1.82359 0.224405
-0.00854951 1.77966 -0.348349
-0.686261 1.88528 1.37809
-0.0275143 1.86752 0.797159
-0.689718 1.91409 2.43595
-0.0423263 1.90303 1.95902
-0.701452 1.93943 3.39709
-0.0529341 1.92515 2.91288
-0.0656168 1.9537 3.8813
0.63201 -0.26546 -2.50168
0.63992 -0.14022 -2.9398
0.958273 -0.293299 -2.98184
0.640119 -0.236592 -1.39537
0.941818 -0.240257 -2.01647
0.6784 -0.237841 -0.140565
0.982241 -0.231974 -0.771683
0.69425 -0.209767 1.11439
1.02942 -0.236487 0.48613
0.668374 -0.160762 2.22217
1.02107 -0.182283 1.73161
0.634393 -0.127828 3.18461
0.635962 0.0286139 2.72158
0.980637 -0.145231 2.70094
0.613489 0.0582445 3.68057
0.953024 -0.113585 3.66075
0.647577 0.303366 -2.79689
0.954102 0.0138234 -2.89509
0.615058 0.214687 3.21754
0.603216 0.537285 2.75959
0.958198 0.197413 2.73351
0.594094 0.570505 3.72726
0.936217 0.228552 3.69555
0.662142 1.08893 -2.58064
0.975507 0.604028 -2.702
0.582252 0.893104 3.26932
0.584697 1.39981 2.84731
0.910828 0.874969 2.78238
0.580457 1.43271 3.81909
0.909884 0.911999 3.75702
0.667467 1.62064 -1.98658
0.993509 1.58962 -2.4671
0.663181 1.71884 -0.929151
0.995385 1.66401 -1.51424
0.645191 1.82358 0.224405
0.989576 1.78115 -0.350933
0.616421 1.88527 1.37809
0.962261 1.86606 0.797469
0.594458 1.91408 2.43595
0.928445 1.9025 1.96124
0.582901 1.93942 3.39709
0.912638 1.92539 2.91509
0.903162 1.95406 3.8829
1.26808 -0.268096 -2.49663
1.27245 -0.139255 -2.93712
1.28394 -0.23564 -1.39278
1.2542 -0.0803934 -1.97428
1.33326 -0.23062 -0.144988
1.30295 -0.0584467 -0.739084
1.35624 -0.209004 1.10334
1.35643 -0.0591388 0.505381
1.33333 -0.166752 2.21037
1.34391 -0.0142558 1.74173
1.29927 -0.130988 3.17708
1.30287 0.0235683 2.71287
1.27575 0.056722 3.67573
1.25858 0.0484475 -2.41477
1.28203 0.314486 -2.80019
1.27321 0.0967997 -1.32059
1.27068 0.379359 -1.83952
1.32611 0.113035 -0.0887147
1.31842 0.448836 -0.632193
1.3441 0.135609 1.14377
1.33946 0.472829 0.575739
1.31345 0.176064 2.24423
1.29516 0.49896 1.78428
1.27936 0.211278 3.21152
1.26581 0.535098 2.75629
1.25201 0.570045 3.72532
1.29414 0.645398 -2.22494
1.30687 1.10472 -2.58846
[...]
POINT_DATA 29498
VECTORS point_vectors float
-4.8464 -9.8325 12.8862
0.0819811 0.42996 1.7542
-0.64513 0.620326 1.38156
-0.0776434 -0.0458911 0.0312476
4.86209 -9.82547 12.9112
-0.0806067 0.423155 1.75181
0.646495 0.621868 1.38588
0.0780079 -0.0434408 0.0279079
0 0 0
0 0 0
0 0 0
4.11104e-17 5.91693e-17 2.15753e-16
0 0 0
0 0 0
0 0 0
0 0 0
-0.566849 -0.332349 19.7212
-1.3879 -1.08228 20.1575
-0.509337 -0.634342 21.4437
0.103639 -0.261317 21.4759
0.70153 0.168037 21.3569
0.927433 0.268077 21.0902
0.910922 0.249049 20.7279
-0.74339 -0.265959 19.5627
-2.35047 -1.0385 19.9502
-0.759907 -0.694665 21.585
-0.0485066 -0.468745 21.5987
0.91244 -0.0883695 21.362
1.14279 -0.0435221 20.983
1.18305 -0.166741 20.2445
-1.05775 0.136744 19.4111
-2.62064 0.499151 20.2404
-1.26287 -0.24388 21.4727
-0.411501 -0.272365 21.636
0.639229 -0.616133 21.3879
0.821369 -0.618906 21.0584
0.737801 -0.466951 20.6455
-0.6397 0.57817 19.8995
-0.923717 0.774606 20.4633
-0.744175 0.474064 21.118
-0.242312 0.0241211 21.3398
0.0946996 -0.305974 21.1396
0.217352 -0.410688 20.8822
0.213752 -0.351096 20.7122
-0.445266 -0.588771 19.3054
-1.40611 -3.36266 19.9512
-0.0164727 -0.265615 21.8147
0.331481 0.261916 21.336
0.66877 1.24944 19.9679
0.858486 1.439 19.667
0.967768 1.31666 18.751
-0.643537 -0.566605 18.8206
1.01378 1.32653 9.83126
1.4687 0.993509 12.6081
-1.08722 0.352429 18.1468
0.650659 -0.616669 7.95221
0.853834 -0.812212 13.1406
-0.538097 1.03097 19.5498
-0.867481 1.6791 20.3003
-0.949251 1.34407 21.3039
-0.252107 0.161528 21.6373
0.0444064 -0.404085 21.2292
0.120171 -0.521551 20.9395
0.121295 -0.505225 20.5729
0.465755 -0.574652 19.3365
1.44605 -3.29089 19.9453
-0.0297153 -0.326401 21.9794
-0.352382 0.226865 21.3552
-0.678758 1.2386 19.9768
-0.797271 1.5058 19.6261
-0.884259 1.47151 18.3634
0.669014 -0.539648 18.8807
-0.742936 1.39002 9.00752
-1.40365 1.22697 12.1089
1.11558 0.342463 18.2214
-0.518568 -0.47343 5.33654
-0.752952 -0.819794 10.3815
0.5484 1.01668 19.5624
0.878971 1.66195 20.304
0.942973 1.37422 21.3093
0.238706 0.176609 21.6641
-0.0307687 -0.409436 21.2273
-0.100219 -0.53014 20.9527
-0.173065 -0.501566 20.7705
0.564174 -0.320803 19.7359
1.36097 -1.03573 20.1669
0.514761 -0.623122 21.4294
-0.101307 -0.248924 21.4605
-0.6858 0.155509 21.3487
-0.955167 0.270415 21.1046
-0.99922 0.311522 20.5067
0.745426 -0.256478 19.5878
2.35198 -1.04739 19.9466
0.759268 -0.699496 21.5835
0.0478083 -0.461015 21.5893
-0.894073 -0.0940694 21.3601
-1.20225 -0.00976094 20.8354
-1.31159 -0.109313 19.9154
1.03442 0.132852 19.4478
2.64335 0.502837 20.2386
1.27411 -0.247762 21.4853
0.411063 -0.273002 21.6309
-0.636077 -0.616238 21.3751
-0.859455 -0.684552 21.0214
-0.731751 -0.537947 20.6937
0.637475 0.566622 19.9129
0.920846 0.768556 20.4651
0.75294 0.488072 21.1204
0.247048 0.0275798 21.351
-0.0890528 -0.317718 21.1409
-0.200134 -0.437534 20.8525
-0.15345 -0.336484 20.5782
-4.04051 -0.279016 2.1823
-0.0429055 -8.11757 13.3428
-0.0275945 0.00627126 0.104098
-0.0315201 -0.0296978 -0.0241968
0.00141862 0.0188871 0.137359
0.0166197 0.010197 0.292807
0 0 0
-0.456976 -0.108238 0.904257
-0.00472537 0.14449 -0.122575
0 0 0
3.99836 -0.273125 2.1484
0.0275503 0.00625534 0.104528
0.030726 -0.0296901 -0.023425
-0.0176572 0.0104776 0.308392
0.456866 -0.108415 0.900323
0 0 0
2.05317e-18 6.80522e-19 9.80346e-17
0.000733018 -0.00261286 0.0163826
0 0 0
-0.0147478 0.0127299 0.0897044
-1.22952e-05 0.000140879 0.0319073
0 0 0
0.00175278 0.0424883 0.089341
-3.69517e-06 -0.000514024 0.00662311
0 0 0
-0.000732474 -0.00247857 0.0162541
0.0154321 0.0136837 0.0943998
0 0 0
-0.00352334 -0.00224021 0.0657211
0.000574672 0.00701629 0.0502901
0.000122635 0.000999703 0.0151356
1.07686e-07 -3.53269e-07 2.07723e-05
-4.25711e-07 7.89593e-07 0.000749315
0 0 0
0 0 0
-0.00432112 -0.0478021 -0.0155336
-1.23392e-05 0.00106515 0.00840518
-0.000541422 0.0325916 0.349371
-7.86788e-06 -1.39402e-05 0.000151263
0.00346844 -0.00227417 0.0657408
-0.000583313 0.00717511 0.0499917
-0.000125963 0.00103209 0.0156835
-4.04883 -2.8379 18.8948
-2.29605 -5.47209 19.5635
-1.69982 -1.70612 17.6296
1.27567 0.5008 15.2715
0.596084 1.28755 13.5647
0.537527 0.978251 6.69196
-5.11359 2.00763 19.6402
-3.27649 1.79013 16.1824
-1.96621 2.93859 20.1638
0.95559 -0.564479 14.9043
-0.2516 -0.280763 3.88476
0.216984 -0.70381 19.9351
2.33628 -5.31803 19.5582
1.72264 -1.63751 17.6984
3.9216 -2.85546 18.8141
-0.609944 1.28195 13.5786
-0.374098 0.91843 6.36021
-1.27689 0.472118 15.533
3.28507 1.73091 16.3306
1.97238 2.91784 20.1663
5.14672 2.03017 19.6296
0.384164 -0.132546 2.92236
-0.232116 -0.69845 19.262
-0.95365 -0.571338 14.8789
-0.31109 0.185127 14.1151
-0.146368 0.182748 15.2453
0.1224 -0.414843 15.9578
0.396188 0.242063 14.9088
-1.87328 -1.03006 20.5177
-2.83643 2.00437 21.4784
-0.391851 -0.0619137 18.4944
-0.477739 0.138406 21.8169
0.154699 0.158265 15.3646
0.315682 0.193113 14.121
-0.395639 0.234961 15.0242
-0.119192 -0.413555 16.1623
2.85328 2.07778 21.4748
1.87897 -1.02387 20.5954
0.42163 0.164025 21.4664
0.391968 -0.0705417 18.541
-0.950698 -0.64893 19.7442
-0.637698 -0.305817 19.6517
-0.543835 -0.486901 19.492
-1.15275 -1.09245 21.1618
-1.8028 -1.13153 20.063
-1.64054 -2.06271 19.9586
-0.160547 -0.409467 21.4038
-0.607462 -0.679614 21.5068
-0.176687 -0.740994 21.7695
0.406084 -0.0752184 21.4954
0.0659797 -0.377437 21.5363
0.340351 -0.176469 21.4757
0.851187 0.240662 21.1689
0.852566 0.0609939 21.4209
0.960875 0.629111 20.9677
0.968276 0.248666 20.7232
1.06154 0.139127 20.9621
1.1504 0.711224 20.3696
1.0622 0.0992255 20.3867
1.19956 0.657879 19.8931
-1.40553 -0.559488 19.4978
-0.916496 -0.11406 19.4389
-0.773991 -0.438986 19.1933
-1.86387 -1.06464 21.4835
-2.92967 -0.315414 20.0131
-0.323142 -0.554514 21.5733
-1.03742 -0.525667 21.617
0.396098 -0.31357 21.6154
-0.308293 -0.415606 21.6173
1.06106 -0.0362296 21.1736
0.897117 -0.399086 21.3036
1.10225 -0.100349 21.0016
1.14561 -0.420854 20.9626
1.53351 0.508596 17.0856
0.966606 -0.350612 20.4549
1.32824 0.218759 18.5241
-1.86876 0.330358 19.44
-0.925498 0.505438 19.6164
-1.18556 0.252051 18.8576
-1.9677 0.1514 21.3402
-1.59966 0.913263 20.3914
-0.807257 -0.333386 21.5839
-1.18565 0.31579 21.2678
0.124442 -0.375102 21.7163
-0.356045 -0.0630096 21.5516
0.746529 -0.64088 21.1838
0.237429 -0.466595 21.2562
0.826926 -0.554295 21.1533
0.426508 -0.603252 21.0146
1.07347 -0.828906 18.8411
0.413611 -0.501373 20.7563
0.79305 -0.748006 18.9711
-0.829938 0.738307 20.1421
-0.651159 0.802854 19.7394
-0.886985 0.657106 20.8221
-1.00739 1.18874 20.4004
-0.506353 0.250945 21.3061
-0.892136 0.822256 21.212
-0.0397147 -0.170054 21.2612
-0.258575 0.0927063 21.4798
0.168113 -0.368222 21.0373
0.0785407 -0.371609 21.1977
0.17845 -0.400934 20.7441
0.176827 -0.500741 20.8745
0.163306 -0.44004 20.5172
-0.906494 -1.47245 18.9719
-0.530338 -0.598655 19.0815
0.0240522 -0.753335 19.0745
-0.399585 -1.54736 22.4008
0.037812 -4.4578 20.0962
0.12688 0.0344151 21.3657
0.0215564 -0.743689 21.1079
0.560565 0.759443 20.5178
-0.00560992 0.121375 19.7482
0.739658 1.38348 19.6302
-0.00696809 1.04381 17.5082
0.882956 1.41488 19.1404
0.918323 1.53817 15.0717
0.0123921 1.35158 17.8881
1.11363 1.23388 16.7134
0.0439402 1.54538 17.5734
-0.90474 -0.242145 18.345
0.0300661 -0.735803 18.409
1.39839 1.47914 12.1001
1.02405 0.27123 4.49113
-0.0489597 0.477406 4.892
1.62452 0.285021 10.0161
0.122651 1.29417 8.56555
-0.877856 1.12348 18.7803
0.043224 0.561299 17.2864
1.2406 -0.972719 11.5409
0.314832 -0.940857 20.5217
0.0742033 -0.327636 -1.98729
0.29958 -0.765643 20.4304
0.125555 -0.301604 2.09805
-0.733807 1.50632 19.8263
0.0107436 1.30463 19.3645
-0.976284 1.58282 20.7644
0.00840407 2.19705 20.1981
-0.575927 0.737808 21.6633
-0.0224433 2.12438 21.3681
-0.0546056 -0.208928 21.457
-0.015164 0.282689 21.8214
0.0991258 -0.490415 21.0758
-0.00444321 -0.410571 21.255
0.173533 -0.539501 20.7078
0.00440211 -0.557215 21.0896
-0.0120914 -0.656458 20.543
0.931065 -1.42828 19.0209
0.555249 -0.57916 19.1182
0.54742 -0.459588 19.5295
0.374043 -1.55851 22.3063
1.63728 -1.97911 19.9803
-0.144683 -0.00800292 21.4334
0.205903 -0.741797 21.7364
-0.578747 0.741916 20.5824
-0.323279 -0.194938 21.5437
-0.713466 1.39637 19.6392
-0.958127 0.604054 20.9912
-0.73212 1.51673 19.1479
-0.787692 1.58197 14.7588
-1.1697 0.819798 20.3138
-1.03352 1.4239 16.2716
-1.18815 0.753598 19.8269
0.931325 -0.23043 18.4105
0.782404 -0.422791 19.236
-1.18953 1.53359 11.1978
-0.936579 0.471967 2.72628
-1.53801 0.664408 15.9473
-1.7647 0.583953 7.22926
-1.41552 0.43689 16.4652
0.89965 1.08869 18.8265
1.18338 0.229277 18.9169
-1.04638 -0.836664 8.50845
-0.292679 -0.944465 19.7817
-1.13493 -0.809125 17.3187
-0.249421 -0.767619 20.3392
-0.82455 -0.81108 17.2597
0.747097 1.48486 19.8353
0.654745 0.787741 19.7452
0.974434 1.58702 20.7631
1.00958 1.17941 20.4024
0.563224 0.773392 21.6867
0.902868 0.848159 21.2183
0.0523741 -0.211645 21.4747
0.258991 0.108075 21.5041
-0.0828611 -0.497606 21.0816
-0.0736998 -0.375129 21.2047
-0.168412 -0.571224 20.7404
-0.165691 -0.503301 20.8793
-0.0930464 -0.47748 20.4506
0.934166 -0.62282 19.7736
0.638101 -0.295261 19.679
1.13756 -1.04553 21.1352
1.78231 -1.10824 20.0683
0.16932 -0.400687 21.3931
0.60825 -0.678792 21.4998
-0.401171 -0.0775035 21.4875
-0.0612281 -0.367081 21.5202
-0.852908 0.246431 21.1649
-0.835545 0.052531 21.4101
-1.02093 0.282933 20.6576
-1.09616 0.158793 20.9651
-1.1609 0.184721 20.1318
1.38994 -0.542002 19.5281
0.900116 -0.113303 19.4746
1.86372 -1.07364 21.4848
2.94721 -0.320073 20.0042
0.323472 -0.552076 21.5619
1.03788 -0.529096 21.6227
-0.388463 -0.312359 21.6119
0.301607 -0.413574 21.613
-1.08467 -0.0313839 21.0842
-0.887394 -0.39703 21.2941
-1.16968 -0.0549825 20.9391
-1.21745 -0.450403 20.8222
-1.08612 -0.300182 19.5384
1.84464 0.321499 19.4607
0.91438 0.49084 19.6344
1.9818 0.152549 21.3472
1.60008 0.912108 20.3926
0.810105 -0.337985 21.5859
1.20315 0.324398 21.2752
-0.124321 -0.374233 21.7084
0.364552 -0.0575752 21.5673
-0.755963 -0.679886 21.1396
-0.235642 -0.480985 21.2613
-0.84866 -0.61999 21.1449
-0.425312 -0.640513 21.0225
-0.418855 -0.555586 20.7469
0.825405 0.727635 20.1484
0.892561 0.664322 20.8221
0.51534 0.263463 21.3183
0.0492732 -0.172184 21.2912
-0.161576 -0.382557 21.0401
-0.210999 -0.422793 20.7837
-1.14495 -0.639061 19.6211
-1.23245 -1.68705 18.4499
-1.03725 -1.03962 19.3906
-1.71626 -0.983954 18.735
-0.652359 -0.454408 19.3572
-2.46867 -2.58677 19.6284
-1.46229 -1.14274 21.333
-0.14907 -0.64475 18.9314
-0.898688 -1.76846 21.684
-1.36287 -1.85935 18.5448
-0.158757 -0.742637 20.7412
-0.205399 -0.487487 21.4871
0.057986 0.133258 14.5575
0.0931652 -0.398468 21.4954
-0.0716257 -0.0604132 14.8236
0.329124 -0.264923 19.6306
0.439703 -0.196648 21.5871
0.637641 0.657391 13.7315
0.669042 0.210953 21.2617
0.653835 -0.189007 15.4956
1.22141 0.635393 19.0371
0.994011 0.135852 21.1947
0.718601 1.39997 14.4161
1.06769 0.748281 20.6195
1.41557 0.463349 16.3677
1.41151 0.692451 19.0784
1.05772 0.0712921 20.8466
1.13965 1.50814 16.0816
1.16996 0.664435 20.3578
1.48383 0.505685 17.1908
1.31468 0.505143 19.4622
-1.72241 -0.195386 19.3927
-2.9222 -0.644464 15.9278
-2.70409 0.830702 18.3337
-1.00568 -0.16908 18.9373
-6.68498 -0.543088 18.3498
-2.19247 -0.443271 21.5644
-2.83969 0.175293 21.8893
-0.240461 -0.768245 15.3844
-0.57918 -0.499668 21.6098
-1.12062 -0.854811 19.3526
-0.304656 -0.152005 15.1586
0.212012 -0.393296 21.6599
0.577522 0.210782 17.2184
1.11038 0.000876052 10.5684
1.05508 -0.415207 21.1178
-0.111665 -0.0755899 1.58335
0.947195 -0.685756 17.4964
1.50957 -0.306743 15.6922
1.03473 -0.360368 21.0832
1.46992 0.181319 8.69574
1.10631 -0.845006 18.3982
1.33846 -0.331625 17.1476
-1.3688 0.765245 19.8429
-1.60579 2.38842 18.9262
-0.875022 1.08664 19.9845
-0.983949 0.756164 19.2843
-2.02293 1.74769 20.3013
-1.44453 0.609361 20.9618
-2.17394 2.11343 20.7393
-1.01738 1.06443 20.8197
-1.8064 0.691867 21.4261
-0.797978 0.107501 21.4815
-1.74615 0.95396 22.1666
-0.583613 0.455925 21.4615
-0.468406 0.00374856 21.8305
0.0141835 -0.28236 21.4812
0.119449 -0.480749 20.8307
-0.0349658 -0.189221 21.3625
0.195809 -0.631188 21.4168
0.353666 -0.541807 21.1229
0.214221 -0.806423 20.5698
0.136665 -0.459021 21.0486
0.376726 -0.779763 20.9857
0.390248 -0.549063 20.5761
0.329282 -0.948432 20.6517
0.233369 -0.466576 20.7995
0.402512 -0.683526 20.5037
1.26543 -1.64634 18.5102
0.0310455 -2.0017 18.5831
0.0376478 -2.55858 16.3511
0.0225204 -0.757265 18.8059
0.0176753 -7.28463 20.1601
0.126611 -0.724873 19.1526
0.0460336 -2.1698 22.6363
-0.00514676 -0.182577 10.6686
-0.0452682 0.126022 14.7465
0.00363044 -0.30687 19.9001
-0.0150646 0.140888 10.8788
-0.643667 0.652219 13.7779
-0.00779326 0.771409 18.3654
-0.00931729 0.839299 9.76181
-0.656598 1.39802 14.2332
-0.000931192 1.14462 17.7517
-0.0930807 -0.125038 3.20777
-0.0390506 1.11366 12.3161
-0.97207 1.63566 16.1251
0.0345093 1.37682 17.3911
0.0669635 1.26576 7.11973
0.111362 1.69963 14.1756
2.9637 -0.605757 16.0765
0.0607963 3.74693 13.0095
0.0458601 -0.336062 17.6929
0.321474 0.0273171 1.04568
-0.0122186 0.57568 -2.09288
0.140761 -0.545822 -3.76628
-1.3676 0.458617 5.40776
0.174418 -0.222715 -1.10959
0.108613 1.13738 0.101689
1.6243 2.31696 18.9575
0.0116547 1.91576 19.6549
0.019055 1.5248 18.2941
0.0089819 4.18307 19.9394
2.17538 2.122 20.7349
-0.00327427 2.24183 20.609
-0.0252594 4.93546 20.9746
1.76714 1.01024 22.1304
-0.0249206 1.16411 21.9399
-0.0166455 0.276504 20.4517
-0.177544 -0.474336 20.3086
-0.00910405 -0.196793 21.5276
-0.00584964 -0.580185 16.4146
-0.238559 -0.781522 19.5473
-0.00261627 -0.524601 21.0978
0.0277194 -0.867649 16.7565
-0.232857 -0.981814 20.2902
0.0263429 -0.518042 20.98
0.0417426 -0.631595 18.2811
1.13265 -0.622075 19.6445
1.03765 -1.00357 19.4332
1.70616 -0.967936 18.7819
0.653944 -0.443671 19.4021
2.38019 -2.47559 19.6545
1.45041 -1.11822 21.3138
0.944844 -1.72878 21.6449
1.34854 -1.84436 18.5242
0.173773 -0.758086 20.8636
0.21338 -0.48356 21.4761
-0.0752836 -0.4091 21.4706
0.0720496 -0.0594276 15.0327
-0.325692 -0.284879 19.9023
-0.428374 -0.196105 21.5727
-0.661995 0.183296 21.3188
-0.655166 -0.195452 15.7586
-1.22201 0.610146 19.1658
-1.00905 0.140439 21.1922
-1.06769 0.773982 20.5626
-1.36191 0.551173 15.3744
-1.40465 0.824913 18.308
-1.11678 0.116087 20.7707
-1.16279 0.741742 20.4011
-1.55089 0.719545 15.8514
-1.36002 0.693857 17.9834
1.70189 -0.199833 19.4242
2.66813 0.79333 18.3947
1.014 -0.161364 18.9872
6.72162 -0.554862 18.3433
2.19873 -0.449377 21.5686
2.84914 0.165415 21.8674
0.229607 -0.759359 15.2619
0.577515 -0.501914 21.6086
1.11732 -0.86224 19.4746
0.299882 -0.163031 15.3217
-0.21228 -0.390508 21.6513
-0.586161 0.208096 17.2197
-1.11033 0.00889277 10.6759
-1.07921 -0.431598 21.0691
-0.902114 -0.64315 16.2742
-1.4483 -0.23029 13.3231
-1.13177 -0.388272 20.8128
-1.24957 -0.921863 16.708
-1.39172 -0.272832 15.2613
1.35517 0.751442 19.8533
0.876772 1.07077 19.988
0.987119 0.72835 19.3077
2.02116 1.73736 20.3029
1.4558 0.614779 20.966
1.01886 1.07162 20.8189
1.84284 0.714117 21.4348
0.817918 0.114821 21.4965
0.588715 0.483798 21.4802
0.481645 0.0176166 21.8577
-0.0138489 -0.290123 21.4938
0.0403162 -0.187001 21.3831
-0.185427 -0.647418 21.4148
-0.356387 -0.562619 21.1312
-0.133998 -0.465594 21.0671
-0.329171 -0.830324 20.9837
-0.388234 -0.613093 20.6222
-0.221531 -0.486799 20.7788
-0.413614 -0.71832 20.3949
-1.35071 -1.09657 19.1113
-1.16362 -2.3859 22.4117
0.0313807 -0.341764 19.7308
0.798872 0.104366 19.1778
1.34926 0.6932 19.0023
1.43314 0.630209 19.2431
-2.50625 -0.334362 18.1998
-2.59198 -0.768231 20.2773
-0.0815397 -0.565671 15.0664
0.17085 -0.00612712 14.2188
1.23875 -0.224305 13.5819
1.71007 -0.426641 16.7485
-1.63785 1.39846 19.4462
-1.92287 1.1203 20.9978
-1.18761 0.311971 21.81
0.00820767 -0.366347 21.6822
0.290547 -0.728701 21.197
0.40835 -0.782583 20.7608
0.0341347 -2.38434 17.7239
0.0104272 -1.17784 15.5501
-0.0124617 -0.0791092 10.1191
-0.0109488 0.712536 9.7866
-0.0170314 0.818092 11.0446
0.0481234 1.53377 13.1984
0.0532977 -0.882049 13.016
-0.012418 -0.563597 -3.26318
0.181607 0.118972 -2.64482
0.0231556 3.51507 18.3655
-0.00569787 3.61995 20.1419
-0.0295795 2.3633 22.5347
-0.00603713 -0.462408 17.9475
0.000697929 -0.582099 16.3528
0.0353927 -1.06092 18.0854
1.33566 -1.05635 19.1552
1.22092 -2.34807 22.4053
-0.0358001 -0.361673 19.9629
-0.792963 0.0818084 19.3647
-1.3239 0.745147 18.6531
-1.4565 0.793552 18.2281
2.46897 -0.337927 18.2752
2.55592 -0.774025 20.089
0.0782578 -0.564943 15.1229
-0.172509 -0.0130573 14.368
-1.12454 -0.208652 11.9236
-1.75465 -0.355689 15.1706
1.63866 1.3669 19.4691
1.93324 1.131 20.9959
1.21774 0.339847 21.8339
0.00405291 -0.372711 21.7289
-0.267928 -0.757956 21.2014
-0.416208 -0.868809 20.757
-3.9924 -1.48815 3.45294
-0.152066 -0.460507 1.89777
-0.0120014 0.000251338 0.120062
-0.00397766 -0.0114152 -0.0100756
-0.00110378 0.000795699 0.00321578
0.0198652 0.0519492 0.263535
4.04133e-16 -1.66956e-16 -2.37452e-16
-0.0186321 0.128557 0.35733
-0.153028 0.0742537 0.700208
-0.0144789 -0.0129864 -0.00537059
-0.0549842 0.0288945 -0.0483265
-0.00494649 -0.0112211 0.0558584
0.129792 -0.734404 1.81733
3.98035 -1.49515 3.44279
0.0116141 0.000239254 0.120093
0.000788068 0.000581139 0.00234761
0.00401984 -0.0115146 -0.0102288
-0.0271643 0.0625808 0.331301
0.0180303 0.1292 0.358549
0 0 0
0.152783 0.0739894 0.69829
0.0500205 0.0322672 -0.0520322
0.0145699 -0.0133112 -0.00545658
0.00489727 -0.0111093 0.0555333
-0.00428071 0.000496903 0.0606954
0 0 0
0 0 0
0.000522383 5.96827e-05 0.00531416
0.0309052 0.0214483 0.372223
0 0 0
0 0 0
-1.42626e-18 -1.0743e-19 -1.73192e-17
-0.051595 -0.0259007 0.0944729
-0.00156439 -0.00858466 0.0739429
0 0 0
-0.0193183 0.0212687 0.0526526
0 0 0
0.000445556 0.0012811 0.00299723
0 0 0
0.019435 -0.00663702 0.10693
0.00377741 0.000478769 0.0545656
-0.0005355 5.97267e-05 0.00531931
0 0 0
-1.84123e-18 1.58422e-18 2.52555e-17
-0.00919085 0.00847324 0.168347
0 0 0
0 0 0
0 0 0
0.053387 -0.0268587 0.0964997
0.0196542 0.0216491 0.0536003
0.00131308 -0.0078211 0.0738527
0 0 0
0 0 0
-0.0195324 -0.00658074 0.106561
-0.00045229 0.00130125 0.00304481
-1.68882e-17 2.30287e-17 6.8861e-17
-0.73287 -0.0813651 1.78437
-1.16986 0.302068 -0.0239076
2.95572e-19 2.66142e-18 2.83915e-17
-0.000691528 -0.414496 0.147764
0 0 0
0.00114353 -0.000120683 0.0228977
0.041703 -0.000623903 0.16407
-0.171777 -0.028067 -0.0248372
-0.0012785 0.0448481 0.384152
-0.00461223 -0.123208 -0.0471499
0 0 0
0.053148 0.0804492 0.589404
0.000321905 0.0887315 0.0341649
0.000328757 0.0981871 0.330242
-0.00728297 -0.0142906 0.150621
-0.0101512 0.00252568 0.0303166
0 0 0
0 0 0
0.109427 0.0631735 1.22065
-0.000144464 -0.00182347 0.00651337
1.11985 0.27126 0.0784937
0.730116 -0.0808452 1.78085
-0.00117048 -0.000116769 0.0224073
0 0 0
0.175498 -0.0296753 -0.0269235
-0.0424017 -0.000828165 0.167015
-0.0539943 0.080442 0.588854
0 0 0
0.010093 0.00251386 0.0301672
0.00580648 -0.0106722 0.109136
7.71307e-05 -0.00176383 0.00633467
-0.1095 0.0623001 1.20096
0 0 0
0.00167873 0.000141744 0.0203775
0.0062406 -0.0015943 0.100042
2.10747e-05 0.00059457 0.00884483
2.27825e-07 -6.04439e-08 2.4737e-05
3.62185e-09 -1.0665e-08 -4.58502e-06
0.000524955 0.00573135 0.0321482
-0.00336306 -0.00278412 0.0612268
6.42828e-09 -5.87093e-08 -1.3112e-05
0 0 0
0.00234135 0.0129797 0.0689693
-0.00574836 0.0177842 0.211387
0 0 0
-4.84631e-06 0.00484086 0.018893
1.39557e-05 -0.000242932 0.0218068
-2.07067e-05 -0.00249735 0.0168413
-0.00207759 0.000173206 0.0250019
0 0 0
-0.00503223 -0.000813296 0.0836991
-1.6458e-05 0.00060674 0.00863009
-0.00053372 0.00579266 0.0319847
0.00350783 -0.00286118 0.064454
0.00574275 0.0177906 0.211388
-0.0022837 0.0126995 0.0677689
-2.54054 -0.359552 3.60185
-0.931921 -0.140293 2.32755
0 0 0
-0.0215004 -0.0993207 0.240507
0 0 0
0.00110822 0.00789463 0.0500553
0 0 0
0.00418549 0.0259323 0.0944424
0 0 0
0 0 0
0.0246122 0.0341374 0.33654
0 0 0
0.00469133 0.000625533 0.0255969
-0.00491529 0.000697929 0.0240347
0.000420109 6.12823e-05 0.00897684
-0.000431186 6.30558e-05 0.00893094
0.00252598 0.000137498 0.0287318