# vtk DataFile Version 2.0
tet_velo
ASCII
DATASET UNSTRUCTURED_GRID
POINTS 29498 float
-0.745 0.175 -1.87161
-0.874997 0.125 1.805
-0.825 0.645 -1.62484
-0.80493 0.895 1.915
0.745 0.175 -1.87161
0.875 0.115 1.79809
0.825 0.645 -1.62484
0.80493 0.895 1.915
-0.79895 0.147715 -0.646074
-0.827661 0.145671 0.579463
-0.84926 0.759284 -0.444893
-0.765833 0.76588 0.735053
0.796041 0.147292 -0.648377
0.823018 0.143649 0.574857
0.849264 0.759287 -0.444893
0.765835 0.765881 0.735053
-1.54946 -0.150665 -2.93104
-1.55729 -0.12288 -1.96917
-1.59259 -0.14557 -0.742622
-1.62424 -0.173553 0.493164
-1.66332 -0.187459 1.72049
-1.67375 -0.165677 2.68613
-1.67365 -0.128882 3.6447
-1.55396 0.124693 -2.82366
-1.56395 0.167635 -1.86676
-1.60126 0.158677 -0.648782
-1.62263 0.151156 0.573461
-1.67252 0.161289 1.79231
-1.68165 0.184893 2.7574
-1.67902 0.218016 3.71741
-1.58901 0.646466 -2.59638
-1.62196 0.687529 -1.63782
-1.63607 0.758616 -0.450878
-1.58609 0.784498 0.73304
-1.62194 0.879427 1.92101
-1.65544 0.902655 2.88905
-1.66921 0.919139 3.857
-1.61585 1.51018 -2.28856
-1.63165 1.5607 -1.33655
-1.6366 1.64525 -0.164279
-1.61701 1.72979 0.998507
-1.61181 1.82184 2.1716
-1.62788 1.87671 3.12533
-1.64664 1.90938 4.08843
-0.752592 -0.146352 -2.93428
-0.754996 -0.116307 -1.97393
-0.788603 -0.149056 -0.742908
-0.812687 -0.181853 0.497499
-0.840407 -0.213024 1.72877
-0.85225 -0.182908 2.69139
-0.85462 -0.138394 3.64726
-0.751141 0.123802 -2.82482
-0.866712 0.17072 2.76183
-0.862345 0.211047 3.71917
-0.778929 0.62892 -2.5911
-0.846357 0.906688 2.8874
-0.857301 0.920411 3.85591
-0.805447 1.49785 -2.28343
-0.81986 1.54889 -1.33087
-0.829554 1.64008 -0.161055
-0.813947 1.72812 0.997562
-0.80506 1.82645 2.16786
-0.819706 1.88301 3.12152
-0.837543 1.91424 4.08539
0.805074 -0.146519 -2.93479
0.780579 -0.11647 -1.97457
0.805177 -0.149651 -0.74508
0.831341 -0.184125 0.493474
0.86123 -0.219542 1.72337
0.825938 -0.18796 2.68716
0.799755 -0.141924 3.64398
0.806624 0.123706 -2.82511
0.814435 0.165488 2.75772
0.79077 0.20761 3.71606
0.828367 0.62885 -2.5913
0.790495 0.904438 2.88546
0.779455 0.918007 3.85361
0.816567 1.49764 -2.28392
0.809998 1.54869 -1.33134
0.794691 1.63984 -0.161615
0.787157 1.72775 0.996827
0.796239 1.8258 2.16687
0.791072 1.88198 3.1202
0.77992 1.91288 4.08377
1.59311 -0.151099 -2.9323
1.57357 -0.123352 -1.97078
1.60176 -0.146786 -0.746313
1.63648 -0.177353 0.486732
1.6725 -0.196016 1.71224
1.65132 -0.173726 2.67878
1.6239 -0.135243 3.63852
1.59329 0.124397 -2.82454
1.564 0.16739 -1.86768
1.59806 0.157834 -0.651892
1.622 0.148039 0.567531
1.6684 0.152496 1.78432
1.64279 0.176926 2.75043
1.61568 0.211851 3.71155
1.62082 0.646239 -2.59701
1.61782 0.687401 -1.63822
1.62897 0.758302 -0.452005
1.58312 0.783553 0.730859
1.61548 0.876844 1.91796
1.61186 0.898316 2.88487
1.59899 0.914605 3.85246
1.62328 1.50972 -2.28966
1.61896 1.56024 -1.33763
1.60431 1.64466 -0.165597
1.59064 1.72888 0.996783
1.59645 1.82036 2.16936
1.59567 1.87456 3.12253
1.58837 1.90668 4.08513
-0.804348 0.41 -1.76757
0 0.1647 -1.88191
-0.76772 0.165613 -1.25884
-0.859072 0.51 1.87911
1.49012e-06 0.189906 1.73164
-0.899538 0.087126 1.19223
0 0.693878 -1.67372
-0.876683 0.741694 -1.03487
0 0.798359 1.81836
-0.791037 0.836096 1.32503
0.804357 0.41 -1.76758
0.766099 0.165568 -1.25999
0.860023 0.505 1.8766
0.899439 0.0788941 1.18647
0.876682 0.741694 -1.03487
0.791034 0.836092 1.32503
-0.814932 0.145066 -0.033305
-0.825852 0.453499 -0.545483
-0.00145459 0.163492 -0.647225
-0.857143 0.455775 0.657258
-0.00232143 0.170731 0.57716
-0.812385 0.76742 0.14508
1.8729e-06 1.1294 -0.444893
7.77083e-07 1.08251 0.735053
0.810591 0.144409 -0.03676
0.825903 0.45329 -0.546635
0.85711 0.454765 0.654955
0.812375 0.76741 0.14508
-0.878924 0.43175 -1.14685
-0.779688 0.454637 0.0558875
-0.875384 0.482888 1.25863
-0.000727294 0.163706 -1.25942
-0.00188801 0.163506 -0.0350325
-0.00115997 0.0913306 1.18935
0 0.41 -1.9409
7.45058e-07 0.5075 2.10473
9.3645e-07 0.838636 -1.03487
1.32499e-06 1.18804 0.14508
3.88541e-07 0.913485 1.32503
0.878916 0.431645 -1.14743
0.776909 0.454027 0.05416
0.875567 0.479883 1.25575
-1.15448 0.171318 -1.86918
-0.749998 0.0293466 -1.92277
-0.74807 0.149401 -2.34822
-1.27376 0.143144 1.79866
-0.857702 -0.0440119 1.76689
-0.870855 0.14786 2.28341
-1.22348 0.666265 -1.63133
-0.801964 0.63696 -2.10797
-0.82243 1.09694 -1.47786
-1.21344 0.887214 1.918
-0.825643 0.900844 2.4012
-0.804995 1.36072 2.04143
0.762789 0.0292648 -1.92309
0.775812 0.149353 -2.34836
1.1545 0.171195 -1.86964
0.868115 -0.0522708 1.76073
0.844717 0.140244 2.27791
1.2717 0.133748 1.7912
0.826684 0.636925 -2.10807
0.817499 1.09685 -1.47809
1.22141 0.6662 -1.63153
0.797712 0.899719 2.40023
0.800584 1.3604 2.04094
1.2102 0.885922 1.91648
-1.2001 0.153196 -0.647428
-0.793777 -0.000670277 -0.694491
-1.22515 0.148413 0.576462
-0.820174 -0.0180911 0.538481
-1.24267 0.75895 -0.447886
-0.839407 1.19968 -0.302974
-1.17596 0.775189 0.734047
-0.78989 1.247 0.866308
0.800609 -0.00117914 -0.696728
1.19705 0.152563 -0.650135
0.827179 -0.0202382 0.534165
1.22251 0.145844 0.571194
0.821977 1.19956 -0.303254
1.23912 0.758795 -0.448449
0.776496 1.24681 0.86594
1.17448 0.774717 0.732956
-1.55337 -0.136772 -2.45011
-1.55171 -0.0129863 -2.87735
-1.15102 -0.148509 -2.93266
-1.57494 -0.134225 -1.3559
-1.56062 0.0223779 -1.91797
-1.15614 -0.119593 -1.97155
-1.60842 -0.159562 -0.124729
-1.59692 0.00655348 -0.695702
-1.1906 -0.147313 -0.742765
-1.64378 -0.180506 1.10682
-1.62344 -0.0111985 0.533313
-1.21846 -0.177703 0.495332
-1.66854 -0.176568 2.20331
-1.66792 -0.013085 1.7564
-1.25186 -0.200241 1.72463
-1.6737 -0.147279 3.16542
-1.6777 0.00960798 2.72177
-1.263 -0.174293 2.68876
-1.67633 0.0445671 3.68105
-1.26413 -0.133638 3.64598
-1.55896 0.146164 -2.34521
-1.57149 0.38558 -2.71002
-1.15255 0.124247 -2.82424
-1.58261 0.163156 -1.25777
-1.59296 0.427582 -1.75229
-1.61195 0.154917 -0.0376607
-1.61866 0.458647 -0.54983
-1.64758 0.156222 1.18289
-1.60436 0.467827 0.65325
-1.67708 0.173091 2.27486
-1.64723 0.520358 1.85666
-1.68033 0.201454 3.2374
-1.66854 0.543774 2.82322
-1.27418 0.177807 2.75961
-1.67411 0.568577 3.78721
-1.27068 0.214531 3.71829
-1.60548 0.666998 -2.1171
-1.60243 1.07832 -2.44247
-1.18397 0.637693 -2.59374
-1.62902 0.723072 -1.04435
-1.62681 1.12411 -1.48718
-1.61108 0.771557 0.141081
-1.63633 1.20193 -0.307579
-1.60402 0.831963 1.32702
-1.60155 1.25714 0.865774
-1.63869 0.891041 2.40503
-1.61687 1.35063 2.0463
-1.66232 0.910897 3.37302
-1.64166 1.38968 3.00719
-1.2509 0.904671 2.88822
-1.65792 1.41426 3.97271
-1.26325 0.919775 3.85645
-1.62375 1.53544 -1.81256
-1.21065 1.50401 -2.286
-1.63412 1.60297 -0.750414
-1.22576 1.55479 -1.33371
-1.6268 1.68752 0.417114
-1.23308 1.64267 -0.162667
-1.61441 1.77581 1.58505
-1.21548 1.72895 0.998035
-1.61984 1.84928 2.64847
-1.20843 1.82414 2.16973
-1.63726 1.89305 3.60688
-1.22379 1.87986 3.12342
-1.24209 1.91181 4.08691
-0.753794 -0.131329 -2.4541
-0.751867 -0.0112751 -2.87955
0.0262406 -0.146436 -2.93454
-0.7718 -0.132681 -1.35842
0.0127911 -0.116389 -1.97425
-0.800645 -0.165454 -0.122704
0.00828691 -0.149353 -0.743994
-0.826547 -0.197438 1.11314
0.00932681 -0.182989 0.495487
-0.846329 -0.197966 2.21008
0.0104116 -0.216283 1.72607
-0.853435 -0.160651 3.16933
-0.859481 -0.00609395 2.72661
-0.0131562 -0.185434 2.68928
-0.858483 0.0363261 3.68321
-0.0274325 -0.140159 3.64562
-0.765035 0.376361 -2.70796
0.0277418 0.123754 -2.82497
-0.864529 0.190884 3.2405
-0.856534 0.538704 2.82461
-0.0261388 0.168104 2.75978
-0.859823 0.565729 3.78754
-0.0357878 0.209328 3.71761
-0.792188 1.06338 -2.43727
0.0247193 0.628885 -2.5912
-0.851829 0.91355 3.37165
-0.833031 1.39485 3.00446
-0.0279308 0.905563 2.88643
-0.847422 1.41732 3.97065
-0.0389229 0.919209 3.85476
-0.812653 1.52337 -1.80715
0.0055601 1.49774 -2.28368
-0.824707 1.59448 -0.745965
-0.00493108 1.54879 -1.33111
-0.821751 1.6841 0.418254
-0.0174317 1.63996 -0.161335
-0.809503 1.77728 1.58271
-0.0133948 1.72793 0.997195
-0.812383 1.85473 2.64469
-0.00441052 1.82612 2.16737
-0.828624 1.89862 3.60346
-0.0143171 1.8825 3.12086
-0.0288116 1.91356 4.08458
0.792826 -0.131495 -2.45468
0.805849 -0.0114067 -2.87995
1.19909 -0.148809 -2.93355
0.792878 -0.13306 -1.35983
1.17707 -0.119911 -1.97268
0.818259 -0.166888 -0.125803
1.20347 -0.148218 -0.745696
0.846285 -0.201833 1.10842
1.23391 -0.180739 0.490103
0.843584 -0.203751 2.20527
1.26687 -0.207779 1.7178
0.812847 -0.164942 3.16557
0.820186 -0.0112357 2.72244
1.23863 -0.180843 2.68297
0.795263 0.0328429 3.68002
1.21183 -0.138583 3.64125
0.817496 0.376278 -2.70821
1.19996 0.124052 -2.82483
0.802602 0.186549 3.23689
0.802465 0.534963 2.82159
1.22861 0.171207 2.75407
0.785112 0.562809 3.78484
1.20323 0.20973 3.7138
0.822467 1.06325 -2.43761
1.22459 0.637545 -2.59416
0.784975 0.911222 3.36954
0.790783 1.39321 3.00283
1.20118 0.901377 2.88517
0.779687 1.41545 3.96869
1.18922 0.916306 3.85303
0.813282 1.52317 -1.80763
1.21992 1.50368 -2.28679
0.802344 1.59427 -0.746476
1.21448 1.55447 -1.33448
0.790924 1.68379 0.417606
1.1995 1.64225 -0.163606
0.791698 1.77677 1.58185
1.1889 1.72832 0.996805
0.793655 1.85389 2.64353
1.19634 1.82308 2.16812
0.785496 1.89743 3.60198
1.19337 1.87827 3.12136
1.18415 1.90978 4.08445
1.58334 -0.137225 -2.45154
1.5932 -0.0133511 -2.87842
1.58766 -0.135069 -1.35855
1.56878 0.0220192 -1.91923
1.61912 -0.16207 -0.129791
1.59991 0.00552426 -0.699103
1.65449 -0.186685 1.09948
1.62924 -0.0146572 0.527132
1.66191 -0.184871 2.19551
1.67045 -0.0217604 1.74828
1.63761 -0.154484 3.15865
1.64705 0.00160015 2.7146
1.61979 0.038304 3.67503
1.57865 0.145894 -2.34611
1.60705 0.385318 -2.71078
1.58103 0.162612 -1.25978
1.59091 0.427395 -1.75295
1.61003 0.152937 -0.0421805
1.61352 0.458068 -0.551949
1.6452 0.150267 1.17592
1.60256 0.465796 0.649195
1.65559 0.164711 2.26737
1.64194 0.51467 1.85114
1.62923 0.194389 3.23099
1.62732 0.537621 2.81765
1.60734 0.563228 3.782
1.61932 0.66682 -2.11762
1.62205 1.07798 -2.44334
1.62339 0.722851 -1.04511
1.61839 1.12382 -1.48793
[...]
POINT_DATA 29498
VECTORS point_vectors float
-5.4554 -9.24361 12.3894
0.739778 0.429624 3.54458
-1.90392 0.599968 2.82711
0.274714 -0.264529 2.60815
5.48729 -9.38083 12.3888
-0.828993 0.371832 3.36997
1.90096 0.593757 2.82149
-0.3088 -0.287575 2.56875
-0.0420974 0.00363444 0.32933
-0.00697186 -0.0648291 0.865186
0.0040998 0.00791793 0.110831
0.00701004 0.00597133 0.0206835
0.0357036 -0.00476545 0.341123
0.00683628 -0.0824289 0.918968
-0.00415839 0.00797056 0.111911
-0.0070955 0.00605012 0.020855
-0.552606 -0.23561 19.8535
-1.10744 -0.555006 20.3156
-0.517534 -0.352541 21.1608
-0.092761 -0.100252 21.1978
0.266625 0.0644379 21.3357
0.580439 0.181679 21.0209
0.678499 0.11764 21.086
-0.73626 -0.184447 19.7747
-1.49209 -0.469771 20.369
-0.5841 -0.330184 21.2362
-0.103037 -0.124423 21.2226
0.35844 0.0119844 21.3195
0.689791 0.0459776 21.1875
0.751962 0.0455731 21.3359
-0.946076 0.0666937 19.7684
-1.55878 0.0244111 20.5865
-0.763416 -0.220474 21.2889
-0.132937 -0.156674 21.3315
0.359463 -0.267423 21.3055
0.633266 -0.343529 21.1137
0.624993 -0.359754 20.8223
-0.703851 0.442423 20.0718
-0.906976 0.497423 20.6138
-0.594332 0.206964 21.1494
-0.145923 -0.042414 21.2266
0.13488 -0.241532 21.0848
0.286675 -0.32623 20.9813
0.308999 -0.401817 20.8266
-0.578448 -0.568916 19.2676
-1.74006 -3.23199 20.1628
-0.336316 -0.495818 21.4695
-0.172639 -0.111043 20.6637
0.235616 0.521763 21.1898
0.63307 1.09377 20.6193
0.862874 1.13888 19.8887
-0.836734 -0.498124 18.865
1.18019 1.16371 11.9883
1.38834 0.949889 14.2172
-1.43715 0.383307 18.2126
1.42954 -0.507717 13.6859
1.16614 -0.779236 15.4995
-0.820126 1.19867 19.5531
-1.31923 1.71529 20.4678
-1.02257 0.955938 21.6432
-0.195329 0.0418645 21.5233
0.0782207 -0.374433 21.2389
0.187915 -0.575172 20.9434
0.186741 -0.468635 20.5652
0.595709 -0.542485 19.3104
1.80066 -3.07149 20.1415
0.336287 -0.501974 21.5048
0.166517 -0.109329 20.8237
-0.234567 0.500807 21.2703
-0.532118 1.06057 20.6252
-0.747962 1.15375 19.4013
0.853404 -0.466121 18.9316
-0.920631 1.18447 10.5396
-1.34151 1.03778 12.5541
1.44908 0.363361 18.344
-1.27644 -0.430246 11.5738
-1.12256 -0.775407 13.8579
0.821279 1.18658 19.5603
1.31124 1.73597 20.4618
1.01895 1.01127 21.6703
0.187562 0.0483777 21.5316
-0.0807909 -0.371242 21.237
-0.1957 -0.579766 20.9648
-0.195805 -0.478383 20.6277
0.541812 -0.222229 19.8756
1.09793 -0.547458 20.3088
0.519553 -0.356099 21.1538
0.0971937 -0.106373 21.1916
-0.249339 0.051458 21.3208
-0.585802 0.18338 21.0096
-0.674911 0.147187 21.1007
0.709208 -0.175937 19.8093
1.49128 -0.472328 20.368
0.588039 -0.334196 21.2367
0.107649 -0.123573 21.2167
-0.348407 0.0117271 21.3256
-0.71463 0.0676935 21.1721
-0.791808 0.0452515 21.3697
0.920027 0.0598418 19.7967
1.56721 0.0262746 20.5833
0.766119 -0.221795 21.2909
0.133469 -0.153825 21.3289
-0.353452 -0.262957 21.3063
-0.664453 -0.35917 21.121
-0.621106 -0.345733 20.8465
0.700884 0.437965 20.0742
0.914428 0.506234 20.6124
0.608779 0.215504 21.1564
0.151083 -0.0365826 21.2349
-0.13046 -0.239468 21.0984
-0.292475 -0.31536 21.0088
-0.325044 -0.411769 20.8701
-0.335601 -0.0324309 0.453421
7.96827e-05 -0.0277486 0.392782
-0.0276917 0.0038756 0.368516
0.0531319 -0.00131438 0.562882
0 0 0
-0.962095 -0.55539 7.76809
-1.38586e-06 0.0769912 0.200102
-0.1777 -0.121789 0.944492
-4.69304e-06 -7.89671e-06 2.51054e-05
0.115936 0.170882 0.401781
0.331393 -0.032071 0.446271
0.0267178 0.00477084 0.343904
-0.059165 -0.00304132 0.644405
0.965295 -0.361993 8.30397
0.177711 -0.121817 0.944606
-0.117269 0.172105 0.403529
-0.030749 0.00676337 0.551641
0 0 0
0 0 0
-0.0553027 0.0771947 0.343901
0 0 0
0.0331941 0.0333752 0.0870535
-1.88786e-05 0.0214213 0.0680034
-2.05575e-06 -8.79742e-05 0.000424299
0.0280523 0.00769418 0.466477
0 0 0
0.0602661 0.084836 0.373847
-0.0332606 0.0340002 0.0876025
-5.36926e-06 7.63846e-07 0.000138403
0.00298841 0.0074295 0.0283645
0 0 0
0 0 0
4.21746e-20 -3.44735e-20 -6.41728e-17
-0.00616556 -0.00892488 1.43798
0 0 0
0 0 0
0 0 0
-2.72671e-05 -0.00310295 0.0768589
-4.70684e-05 -0.00070226 0.00291143
1.00944e-05 1.45297e-06 0.000259482
0 0 0
3.77475e-18 -1.3056e-18 -1.00163e-16
-3.05195 -1.50373 20.167
-2.78106 -5.36626 20.0552
-2.24032 -1.64379 17.7313
0.664236 0.131648 21.485
0.378048 0.743076 16.9739
0.933065 0.955127 9.44771
-3.22218 0.297948 20.6873
-3.96756 1.88203 16.9701
-2.68096 2.64786 20.3811
0.615977 -0.488708 21.0305
0.948492 -0.262218 10.094
0.128723 -0.524873 21.0211
2.89406 -5.22775 19.9992
2.25486 -1.55127 17.8519
3.0528 -1.50384 20.1632
-0.425612 0.762283 17.0784
-0.730975 0.954183 8.57048
-0.650033 0.136515 21.4628
3.909 1.66437 17.1705
2.67532 2.67172 20.3759
3.23614 0.301685 20.6875
-0.785372 -0.195316 8.55217
-0.132605 -0.512351 21.0009
-0.60745 -0.472803 20.9906
-0.449085 -0.56236 21.6473
-0.428913 -0.122241 17.1407
-0.0728823 -0.09998 20.9586
-0.224944 -0.0219795 15.686
-1.02901 -0.677421 21.7333
-2.38065 0.924682 22.1462
0.0828286 -0.189586 20.3157
-0.355122 0.00278437 20.9975
0.433621 -0.124579 17.2757
0.44994 -0.563927 21.643
0.229088 -0.0153061 15.9159
0.074196 -0.0969777 20.9422
2.42977 0.98677 22.1159
1.03028 -0.688945 21.7374
0.311522 0.0251544 20.7885
-0.084127 -0.185 20.2929
-0.842769 -0.38933 19.9746
-0.669702 -0.219364 19.8122
-0.608967 -0.36101 19.6203
-0.929819 -0.53414 20.9153
-1.27511 -0.54212 20.343
-1.6611 -1.37957 20.2081
-0.237286 -0.187482 21.1951
-0.565173 -0.356202 21.1843
-0.456146 -0.510289 21.4196
0.0387174 -0.0428927 21.2743
-0.111076 -0.123326 21.2029
-0.095725 -0.1142 21.2623
0.455128 0.154588 21.2414
0.308774 0.0361969 21.3289
0.341262 0.221947 21.4937
0.64519 0.274908 20.9213
0.629054 0.116898 21.0962
0.78061 0.509408 21.2079
0.702954 0.153018 21.1102
0.908785 0.58807 20.5701
-1.16217 -0.315722 19.8998
-0.86163 -0.0644601 19.7473
-0.866647 -0.33952 19.4015
-1.12843 -0.477795 21.0561
-1.59963 -0.194396 20.4714
-0.259391 -0.204531 21.2267
-0.660662 -0.305787 21.2823
0.0605252 -0.0671286 21.3202
-0.123614 -0.152147 21.2843
0.566771 0.0468171 21.2859
0.42198 -0.133125 21.3401
0.719271 0.111858 20.4885
0.724946 -0.158769 21.1352
1.19089 0.297257 21.0096
0.829358 -0.174939 21.3111
1.37698 0.136804 20.1285
-1.41042 0.0890341 20.0344
-0.894296 0.327671 19.8863
-1.28889 0.185785 19.2204
-1.21347 -0.120713 21.0978
-1.31812 0.385113 20.5885
-0.39082 -0.218862 21.3308
-0.78038 0.0397586 21.2356
0.0661354 -0.173828 21.3621
-0.174709 -0.117782 21.3162
0.549697 -0.325785 21.2351
0.233475 -0.3022 21.2248
0.696036 -0.380567 20.6352
0.393332 -0.375743 20.9988
1.0166 -0.64631 20.9268
0.385043 -0.464773 20.8237
0.982295 -0.553571 20.4908
-0.865077 0.526419 20.3121
-0.863234 0.757653 19.8414
-0.817714 0.369916 20.9466
-1.21774 0.947057 20.5948
-0.339266 0.0618343 21.2131
-0.818534 0.441928 21.3519
0.00511604 -0.147416 21.2172
-0.194789 -0.00788022 21.364
0.196413 -0.325357 21.0116
0.120012 -0.31235 21.1893
0.247439 -0.326469 20.7417
0.237705 -0.4744 20.8367
0.228428 -0.433105 20.5709
-1.19679 -1.47311 18.9814
-0.721058 -0.578816 19.0755
0.0235574 -0.798127 18.8938
-0.67284 -1.45392 22.0568
0.0202806 -4.63593 20.9636
-0.259844 -0.143871 20.9036
0.00410311 -0.530938 20.4321
-0.0558475 -0.197035 20.8753
-0.00248961 -0.198234 19.0012
0.443197 0.969439 20.7421
-0.0345505 0.499154 19.8235
0.793408 1.05797 20.6586
0.905257 1.25153 16.7433
-0.0557059 0.767086 18.865
1.021 1.16671 17.6244
-0.00844001 1.11289 16.7302
-1.16723 -0.198511 18.4034
0.0451674 -0.73401 18.1277
1.41523 1.42592 13.6589
1.1006 0.400369 8.39696
-0.176699 -0.155574 3.17499
1.76647 0.239216 13.3251
0.0104899 0.480276 5.40504
-1.23482 1.20467 18.8504
0.0570833 0.849162 16.7609
1.66766 -0.743393 14.5621
0.343737 -0.895069 20.9045
0.0547931 -0.802769 2.98604
0.426158 -0.794149 20.2437
0.203196 -1.28864 5.71779
-1.12136 1.63617 19.9262
0.0091069 1.68343 19.2142
-1.3996 1.5234 21.1192
-0.00891372 2.75939 20.1395
-0.500396 0.382972 21.6597
-0.0363645 2.13314 22.142
-0.0208911 -0.185883 21.3819
-0.00658473 0.0807316 21.7107
0.138327 -0.501212 21.1249
-0.00386936 -0.410827 21.3329
0.211595 -0.603007 20.9003
0.00163361 -0.760389 21.0336
0.018506 -0.791795 19.8958
1.20827 -1.39319 19.0457
0.735724 -0.555408 19.1215
0.613025 -0.345961 19.6489
0.68642 -1.42904 21.9873
1.63296 -1.32592 20.2194
0.251364 -0.139871 21.0119
0.459987 -0.505311 21.4055
0.0643308 -0.245753 20.8799
0.0968647 -0.11662 21.2543
-0.386521 0.949181 20.8253
-0.327363 0.197119 21.4822
-0.670433 1.13878 20.09
-0.705824 1.28909 16.2019
-0.766854 0.535919 21.1288
-0.910861 1.22193 17.0038
-0.962377 0.680593 20.3799
1.17857 -0.186503 18.5403
0.84253 -0.306087 19.4595
-1.30195 1.59637 12.2059
-0.834449 0.51965 5.67547
-1.21911 0.365247 20.8701
-1.7572 0.37548 11.0716
-1.40634 0.316971 19.7109
1.24657 1.15267 18.8948
1.23697 0.163944 19.3006
-1.71987 -0.719765 13.1126
-0.339393 -0.901582 20.8614
-1.09852 -0.659893 20.663
-0.435645 -0.803283 20.3672
-1.0608 -0.646545 20.4741
1.11994 1.63445 19.9258
0.86175 0.74808 19.8469
1.40626 1.5742 21.1173
1.22482 0.96711 20.5929
0.492406 0.403424 21.6794
0.83777 0.470221 21.3687
0.0194362 -0.182313 21.3801
0.192388 -0.00310314 21.3763
-0.139353 -0.498406 21.1291
-0.11725 -0.32148 21.1806
-0.207553 -0.622597 20.8914
-0.218148 -0.482841 20.8302
-0.212673 -0.433771 20.5175
0.827456 -0.376884 19.979
0.638339 -0.20486 19.8437
0.930298 -0.531772 20.9029
1.2626 -0.536653 20.3423
0.240566 -0.19119 21.1903
0.566506 -0.358285 21.1813
-0.0317835 -0.0502915 21.273
0.117219 -0.124508 21.1942
-0.448469 0.142239 21.242
-0.294921 0.0274081 21.3254
-0.662203 0.264384 20.9461
-0.6399 0.136834 21.0786
-0.731047 0.162456 21.1907
1.13064 -0.310141 19.9166
0.842043 -0.0581505 19.7749
1.13181 -0.480763 21.0551
1.60492 -0.198057 20.4683
0.260194 -0.206084 21.225
0.664032 -0.310427 21.2812
-0.0498214 -0.0698959 21.3135
0.127074 -0.152368 21.2785
-0.56836 0.0494525 21.2776
-0.411337 -0.13207 21.3434
-0.774029 0.109997 20.6383
-0.75906 -0.161007 21.1317
-0.87785 -0.182179 21.3729
1.38411 0.0828075 20.0432
0.872118 0.316234 19.8989
1.22067 -0.121796 21.1003
1.3266 0.392733 20.5864
0.391055 -0.219276 21.3294
0.796769 0.0380659 21.2439
-0.0632188 -0.169482 21.3592
0.179424 -0.11962 21.3178
-0.550326 -0.321975 21.2183
-0.230483 -0.300544 21.2308
-0.753895 -0.396123 20.7499
-0.43809 -0.367341 21.0333
-0.390286 -0.466233 20.8214
0.865488 0.528119 20.3101
0.837021 0.383771 20.9507
0.349129 0.0666043 21.2267
-0.00641297 -0.146308 21.2107
-0.197873 -0.306682 21.0272
-0.248105 -0.327853 20.7681
-1.00321 -0.384735 19.9459
-1.66438 -1.67558 18.4795
-1.12374 -0.77196 19.6068
-1.75691 -0.747992 19.2744
-0.741066 -0.362942 19.5122
-2.26878 -1.5099 20.1781
-1.02768 -0.525527 20.9757
-0.583502 -0.74024 18.7555
-1.06243 -1.09035 21.3187
-1.49647 -1.18323 21.7603
-0.463607 -0.537279 21.5672
-0.260992 -0.205036 21.2057
-0.430261 0.110287 16.0742
-0.187434 -0.193334 21.3293
-0.0500105 -0.193938 21.1648
-0.080417 -0.105074 21.1767
0.0411513 -0.0609484 21.2886
-0.129989 -0.480333 16.9659
-0.0211013 -0.0742079 21.3881
-0.0352267 -0.042461 21.3099
0.519755 0.21984 21.5389
0.509698 0.104121 21.2536
0.679279 1.20576 16.473
0.622433 0.43347 21.3129
1.00393 0.243656 21.2429
0.979307 0.409806 21.0787
0.685515 0.202524 20.6967
1.08693 1.29613 17.0761
0.868352 0.535273 20.7534
1.23532 0.192526 21.2124
1.13193 0.476302 20.3047
-1.32269 -0.117172 19.9265
-3.71804 -0.422988 16.4738
-2.42078 0.403173 19.3049
-1.12108 -0.12776 19.2348
-3.59739 -0.555166 20.4494
-1.20175 -0.29707 21.1016
-1.94432 -0.354798 21.6172
-0.55432 -0.663869 21.7721
-0.306892 -0.240488 21.2835
-0.353297 -0.608443 21.0739
-0.0383948 -0.0423956 20.4564
0.0795949 -0.11895 21.3728
0.065202 -0.195857 20.7822
0.798713 -0.118821 21.0572
0.645761 -0.143859 21.2341
0.330966 0.219046 4.61066
0.86529 -0.60964 20.9811
1.38289 -0.210445 20.9481
0.784469 -0.144781 20.7158
1.98007 0.247596 12.382
1.00578 -0.588994 21.1496
1.32055 -0.222498 19.8587
-1.20257 0.424838 20.141
-2.06291 2.29322 19.1262
-1.09515 0.952349 20.1663
-1.15876 0.636871 19.4941
-2.06897 0.962467 20.6041
-1.12325 0.20909 21.01
-2.98692 1.76849 21.2576
-1.13146 0.733577 21.0489
-1.32609 0.124732 21.5449
-0.447248 -0.0560412 21.3176
-1.19962 0.288495 21.87
-0.458092 0.182592 21.4192
-0.30104 -0.155794 21.5268
0.0400104 -0.199961 21.2685
-0.0113802 -0.166355 21.0273
-0.00867173 -0.176553 21.2954
0.205974 -0.444912 21.3554
0.333327 -0.369722 21.0774
0.243108 -0.73402 20.9868
0.191393 -0.419571 21.0264
0.426804 -0.638995 21.0967
0.40245 -0.399422 20.7582
0.420276 -0.946625 20.8135
0.27687 -0.421858 20.9162
0.434913 -0.6475 20.5963
1.65489 -1.57339 18.5963
0.0409308 -2.4672 18.2391
0.0696107 -3.57893 15.1091
0.0334712 -0.850377 18.514
0.000729572 -5.48448 21.9365
0.565722 -0.772131 19.0787
0.0104637 -1.46146 22.1785
-0.00122405 -0.0871657 11.9989
0.442684 0.127698 16.2513
0.000519056 -0.279902 19.2822
-0.00451342 -0.0284585 11.4342
0.186971 -0.555732 17.1628
-0.00676739 -0.215931 19.3916
-0.0831885 0.567649 12.46
-0.595236 1.2011 16.1536
-0.0514319 0.6519 19.0499
-0.227295 -0.256373 2.82932
-0.136693 0.57015 12.5486
-0.935873 1.41797 16.2659
-0.054338 0.964082 17.8823
-0.082264 0.757037 4.46161
-0.0254456 1.26087 12.6181
3.57625 -0.408078 16.7662
0.0749275 6.69429 14.1368
0.0664399 -0.280677 17.1908
-0.00895224 0.267166 3.28648
-0.110543 0.320246 1.64271
0.110671 -1.34232 -4.12604
-1.93357 0.369738 10.5852
0.0903045 -0.943799 3.18965
0.317581 -0.899005 -2.89596
2.07523 2.25126 19.1443
0.000265799 2.33596 19.6249
0.0281127 2.00689 18.0943
-0.0105738 4.36365 19.6418
3.0122 1.83598 21.2522
-0.0283886 3.10665 20.981
-0.0476766 4.44654 20.8301
1.1763 0.315038 21.6953
-0.0156517 0.699734 22.0423
0.00459694 -0.304839 13.542
0.00158629 -0.162171 21.0062
-0.00390968 -0.222869 21.4301
-0.00957505 -0.587961 14.9725
-0.250665 -0.711637 20.9259
-0.00266311 -0.572419 21.2279
0.0197163 -0.946099 17.3898
-0.393504 -0.968152 20.7876
-0.00643104 -0.628591 20.7471
0.0459718 -0.468024 18.354
0.973523 -0.369285 19.9586
1.10748 -0.743131 19.6413
1.69653 -0.711405 19.3433
0.727276 -0.335071 19.5659
2.24082 -1.47365 20.18
1.0265 -0.523268 20.9679
1.06152 -1.06694 21.294
1.50034 -1.18956 21.7638
0.471294 -0.538248 21.5608
0.262147 -0.206728 21.2029
0.187316 -0.193847 21.3177
0.0458365 -0.192102 21.1577
0.0827528 -0.107571 21.1862
-0.0321682 -0.0655679 21.2851
0.0302285 -0.0787427 21.3831
0.0552134 -0.0372259 21.3092
-0.497466 0.207124 21.5319
-0.506457 0.101621 21.2472
-0.602223 0.424854 21.3107
-1.01327 0.28264 21.0387
-0.955454 0.477955 20.9259
-0.719943 0.208169 20.8016
-0.892232 0.592999 20.6758
-1.28724 0.28591 21.105
-1.17226 0.611043 20.1018
1.29813 -0.113164 19.9369
2.35787 0.37859 19.3552
1.08897 -0.122668 19.3009
3.60751 -0.555408 20.4481
1.20981 -0.300827 21.1002
1.95182 -0.361086 21.6269
0.548894 -0.668561 21.755
0.308594 -0.24289 21.2809
0.350411 -0.612813 21.0466
0.0391683 -0.0381013 20.4219
-0.0743243 -0.117522 21.3699
-0.0700721 -0.1795 20.7218
-0.783321 -0.107243 21.0071
-0.649348 -0.144955 21.2304
-0.894919 -0.593188 20.7712
-1.40776 -0.12993 20.08
-0.86778 -0.147801 20.9605
-1.05089 -0.644208 21.0282
-1.45737 -0.122514 19.1282
1.1943 0.423179 20.1429
1.09415 0.954178 20.1647
1.14515 0.611976 19.5312
2.08 0.97744 20.5993
1.13834 0.213201 21.0141
1.14456 0.767875 21.0524
1.37002 0.137292 21.5645
0.456614 -0.0587286 21.3244
0.468027 0.197407 21.4326
0.303707 -0.155388 21.5335
-0.0361333 -0.199219 21.2723
0.00958704 -0.173533 21.2949
-0.20613 -0.441946 21.3689
-0.347994 -0.370965 21.1004
-0.183603 -0.4153 21.0525
-0.438695 -0.666523 21.0714
-0.447551 -0.417881 20.7901
-0.286341 -0.432176 20.9218
-0.426872 -0.655457 20.4475
-1.40554 -0.7772 19.442
-1.24012 -1.15003 21.5013
-0.124659 -0.187276 21.3376
-0.0262547 -0.0696007 21.4077
0.847546 0.393112 21.3561
1.06205 0.393604 20.9037
-2.35 -0.287905 19.119
-1.83336 -0.732718 21.8868
-0.00451535 -0.379461 20.8121
0.0914949 0.00603433 20.7652
1.17234 -0.177733 20.9485
1.27 -0.256338 21.2311
-1.76699 1.00815 19.8283
-1.83125 0.488571 21.2132
-0.737688 -0.0674213 21.6285
-0.0392063 -0.232784 21.4754
0.34529 -0.56796 21.2431
0.429463 -0.677382 20.8202
0.0541684 -3.14289 17.0883
0.00964815 -0.396373 13.8527
-0.00261523 -0.0528622 11.5272
-0.00672031 -0.569006 12.8494
-0.116452 0.499722 12.3233
-0.125154 0.94858 12.6007
0.0919954 -0.118261 10.4292
0.00776395 0.118307 -2.37246
0.198131 -1.16653 -4.74886
0.0178156 3.85368 18.5068
-0.0386025 5.51804 19.5228
-3.2713e-06 0.350255 14.875
0.00294148 -0.469626 13.896
-0.00343246 -0.736201 16.6058
0.0413373 -1.21198 17.8808
1.37411 -0.725419 19.496
1.24609 -1.136 21.4842
0.128044 -0.188175 21.3379
0.0438662 -0.0738115 21.4182
-0.82798 0.400111 21.3196
-1.09795 0.479273 20.7967
2.28201 -0.27605 19.1802
1.83926 -0.737387 21.8946
-0.000665305 -0.37931 20.7749
-0.0866499 0.0159377 20.7328
-1.16276 -0.126083 20.5887
-1.43741 -0.160597 20.1332
1.75435 0.990361 19.8354
1.8618 0.5066 21.218
0.753398 -0.0642876 21.647
0.0433515 -0.22875 21.4807
-0.348725 -0.574156 21.2246
-0.426627 -0.720175 20.8736
-9.13276 -1.34343 4.95536
0.00240656 -0.0249572 0.234548
-0.130514 0.0597081 0.597695
0.0834045 -0.022695 0.381134
-7.15189e-18 7.98672e-18 4.17261e-17
0.0422435 0.0981043 4.84796
-0.520447 -0.041359 0.843255
-0.000104384 0.0043188 0.0107908
-0.359695 -0.262927 2.64299
0.0989015 0.0210944 0.530966
-0.0155183 0.00183149 0.107589
0.0372655 0.0301729 0.351338
-0.00339703 -0.0254855 0.238608
8.99446 -1.23453 4.66856
0.124216 0.0575509 0.589784
0 0 0
-0.104362 -0.0278376 0.446069
-0.06948 0.0558776 5.31879
9.33731e-05 0.00399459 0.00998192
0.521375 -0.0406773 0.8464
0.360919 -0.263529 2.64611
0.0131431 0.000446125 0.104111
-0.106027 0.0244007 0.562178
-0.038122 0.0308803 0.351735
-0.00174878 -0.0050738 0.123328
-0.0169127 -0.000638583 0.220484
0 0 0
0 0 0
0.0315504 -0.0336989 1.01422
-0.00239044 0.00517137 0.20798
0 0 0
3.17629e-18 9.12453e-19 7.98861e-17
-0.14421 -0.181599 1.32405
9.05101e-05 0.000102818 0.00122169
0.0121257 0.011646 0.0619831
-0.260225 0.107214 0.890939
0.0262615 0.0263232 0.0342585
0.0259816 0.17305 0.409561
0.0169017 0.0164398 0.047855
0.143548 0.0110116 0.197872
0.00123976 -0.00343239 0.0872926
0 0 0
0.0111526 0.00299339 0.121621
0 0 0
-0.0553641 -0.214553 1.67591
0 0 0
-4.31181e-05 0.000513713 0.0304459
0 0 0
0.143733 -0.180308 1.31785
0.261857 0.107741 0.895341
-0.000104823 0.000119607 0.00141609
-0.0121989 0.0117171 0.0625204
-0.0261108 0.0261451 0.0340429
-0.144314 0.0111678 0.19765
-0.028168 0.18505 0.435627
-0.0169282 0.0164836 0.0477941
-0.0047545 -0.00292889 0.079996
0 0 0
0 0 0
0 0 0
-0.00331677 0.00872327 0.0967681
7.94484e-06 4.01311e-07 0.000550307
1.09654e-18 4.72811e-19 3.69502e-17
-0.00235873 7.37752e-05 -0.000264037
0 0 0
-0.0118222 -0.076876 -0.0438776
0 0 0
0.251885 -0.146012 3.32292
-0.000435038 0.835833 1.19294
-5.55874e-06 0.00996516 0.0472259
0 0 0
-0.23797 0.053887 0.384383
-4.66874e-05 0.000511041 -0.000117105
-0.00117467 -0.00699047 0.0271522
0 0 0
0.0173781 -0.00359589 0.0445499
0 0 0
0.0047867 -0.00301882 0.0805759
-1.36751e-05 2.15119e-06 0.00103036
0.00333298 0.00875428 0.0972816
0 0 0
0 0 0
0 0 0
0 0 0
0.224939 0.0568604 0.372693
0 0 0
-0.0177449 -0.00358325 0.0447011
0 0 0
0 0 0
3.71002e-20 -4.26255e-20 3.74138e-17
0 0 0
0 0 0
0 0 0
0 0 0
0.00102317 0.0083383 0.00962952
0 0 0
0 0 0
0 0 0
0 0 0
0.143449 0.099948 0.493637
-1.17726e-05 0.26885 0.522772
-5.06453e-05 0.0228542 0.312892
-3.31379e-05 -0.00499812 0.04355
-2.43945e-05 -0.000812148 0.00331826
0 0 0
0 0 0
0 0 0
0 0 0
-0.00103957 0.00850853 0.00978616
0 0 0
-0.143901 0.100364 0.495134
0 0 0
-0.0066294 -0.00692088 0.104184
-0.00132028 0.000109822 0.0252216
-0.0325688 0.0383478 0.40641
0.00193677 -0.00169923 0.0696181
0 0 0
5.98893e-19 6.13076e-18 3.27199e-17
-2.47376e-18 -6.55975e-18 -1.69135e-17
-0.285485 0.409957 0.707355
-6.42502e-05 0.000347029 0.00285002
0.0550107 0.082332 0.220846
0 0 0
0 0 0
-0.000456396 -0.000850891 0.0420815
0.000466261 -0.000480593 0.0276649
5.3481e-06 4.14434e-07 0.000259668
-2.56112e-06 1.90537e-07 0.000114999
0 0 0
0 0 0
0 0 0
0 0 0
8.50738e-06 -3.56773e-07 0.000219608
-1.46252e-05 -1.44932e-07 0.000248467
0 0 0
0 0 0