# vtk DataFile Version 2.0
tri_press
ASCII
DATASET UNSTRUCTURED_GRID
POINTS 3682 float
-0.745 0.175 -1.87161
-0.874997 0.125 1.805
-0.825 0.645 -1.62484
-0.80493 0.895 1.915
0.745 0.175 -1.87161
0.875 0.115 1.79809
0.825 0.645 -1.62484
0.80493 0.895 1.915
-0.79895 0.147715 -0.646074
-0.827661 0.145671 0.579463
-0.84926 0.759284 -0.444893
-0.765833 0.76588 0.735053
0.796041 0.147292 -0.648377
0.823018 0.143649 0.574857
0.849264 0.759287 -0.444893
0.765835 0.765881 0.735053
-1.54946 -0.150665 -2.93104
-1.55729 -0.12288 -1.96917
-1.59259 -0.14557 -0.742622
-1.62424 -0.173553 0.493164
-1.66332 -0.187459 1.72049
-1.67375 -0.165677 2.68613
-1.67365 -0.128882 3.6447
-1.55396 0.124693 -2.82366
-1.56395 0.167635 -1.86676
-1.60126 0.158677 -0.648782
-1.62263 0.151156 0.573461
-1.67252 0.161289 1.79231
-1.68165 0.184893 2.7574
-1.67902 0.218016 3.71741
-1.58901 0.646466 -2.59638
-1.62196 0.687529 -1.63782
-1.63607 0.758616 -0.450878
-1.58609 0.784498 0.73304
-1.62194 0.879427 1.92101
-1.65544 0.902655 2.88905
-1.66921 0.919139 3.857
-1.61585 1.51018 -2.28856
-1.63165 1.5607 -1.33655
-1.6366 1.64525 -0.164279
-1.61701 1.72979 0.998507
-1.61181 1.82184 2.1716
-1.62788 1.87671 3.12533
-1.64664 1.90938 4.08843
-0.752592 -0.146352 -2.93428
-0.754996 -0.116307 -1.97393
-0.788603 -0.149056 -0.742908
-0.812687 -0.181853 0.497499
-0.840407 -0.213024 1.72877
-0.85225 -0.182908 2.69139
-0.85462 -0.138394 3.64726
-0.751141 0.123802 -2.82482
-0.866712 0.17072 2.76183
-0.862345 0.211047 3.71917
-0.778929 0.62892 -2.5911
-0.846357 0.906688 2.8874
-0.857301 0.920411 3.85591
-0.805447 1.49785 -2.28343
-0.81986 1.54889 -1.33087
-0.829554 1.64008 -0.161055
-0.813947 1.72812 0.997562
-0.80506 1.82645 2.16786
-0.819706 1.88301 3.12152
-0.837543 1.91424 4.08539
0.805074 -0.146519 -2.93479
0.780579 -0.11647 -1.97457
0.805177 -0.149651 -0.74508
0.831341 -0.184125 0.493474
0.86123 -0.219542 1.72337
0.825938 -0.18796 2.68716
0.799755 -0.141924 3.64398
0.806624 0.123706 -2.82511
0.814435 0.165488 2.75772
0.79077 0.20761 3.71606
0.828367 0.62885 -2.5913
0.790495 0.904438 2.88546
0.779455 0.918007 3.85361
0.816567 1.49764 -2.28392
0.809998 1.54869 -1.33134
0.794691 1.63984 -0.161615
0.787157 1.72775 0.996827
0.796239 1.8258 2.16687
0.791072 1.88198 3.1202
0.77992 1.91288 4.08377
1.59311 -0.151099 -2.9323
1.57357 -0.123352 -1.97078
1.60176 -0.146786 -0.746313
1.63648 -0.177353 0.486732
1.6725 -0.196016 1.71224
1.65132 -0.173726 2.67878
1.6239 -0.135243 3.63852
1.59329 0.124397 -2.82454
1.564 0.16739 -1.86768
1.59806 0.157834 -0.651892
1.622 0.148039 0.567531
1.6684 0.152496 1.78432
1.64279 0.176926 2.75043
1.61568 0.211851 3.71155
1.62082 0.646239 -2.59701
1.61782 0.687401 -1.63822
1.62897 0.758302 -0.452005
1.58312 0.783553 0.730859
1.61548 0.876844 1.91796
1.61186 0.898316 2.88487
1.59899 0.914605 3.85246
1.62328 1.50972 -2.28966
1.61896 1.56024 -1.33763
1.60431 1.64466 -0.165597
1.59064 1.72888 0.996783
1.59645 1.82036 2.16936
1.59567 1.87456 3.12253
1.58837 1.90668 4.08513
-0.804348 0.41 -1.76757
0 0.1647 -1.88191
-0.76772 0.165613 -1.25884
-0.859072 0.51 1.87911
1.49012e-06 0.189906 1.73164
-0.899538 0.087126 1.19223
0 0.693878 -1.67372
-0.876683 0.741694 -1.03487
0 0.798359 1.81836
-0.791037 0.836096 1.32503
0.804357 0.41 -1.76758
0.766099 0.165568 -1.25999
0.860023 0.505 1.8766
0.899439 0.0788941 1.18647
0.876682 0.741694 -1.03487
0.791034 0.836092 1.32503
-0.814932 0.145066 -0.033305
-0.825852 0.453499 -0.545483
-0.00145459 0.163492 -0.647225
-0.857143 0.455775 0.657258
-0.00232143 0.170731 0.57716
-0.812385 0.76742 0.14508
1.8729e-06 1.1294 -0.444893
7.77083e-07 1.08251 0.735053
0.810591 0.144409 -0.03676
0.825903 0.45329 -0.546635
0.85711 0.454765 0.654955
0.812375 0.76741 0.14508
-0.878924 0.43175 -1.14685
0.878916 0.431645 -1.14743
-0.000727294 0.163706 -1.25942
9.3645e-07 0.838636 -1.03487
0 0.41 -1.9409
-0.779688 0.454637 0.0558875
0.776909 0.454027 0.05416
-0.00188801 0.163506 -0.0350325
1.32499e-06 1.18804 0.14508
-0.875384 0.482888 1.25863
0.875567 0.479883 1.25575
-0.00115997 0.0913306 1.18935
3.88541e-07 0.913485 1.32503
7.45058e-07 0.5075 2.10473
-0.773982 0.2925 -1.8189
-0.3725 0.168279 -1.87833
-0.761396 0.165271 -1.56523
-0.873919 0.3175 1.84894
-0.437498 0.237258 1.68851
-0.899153 0.0941781 1.49862
-0.822824 0.5275 -1.70436
-0.4125 0.680867 -1.66071
-0.87554 0.718045 -1.32985
-0.853308 0.7025 1.91836
-0.402465 0.882094 1.90209
-0.809623 0.877187 1.62001
0.3725 0.168238 -1.87837
0.773839 0.2925 -1.81876
0.760619 0.165214 -1.5658
0.437501 0.236111 1.68121
0.874296 0.31 1.84413
0.899613 0.0845535 1.49228
0.4125 0.680854 -1.66069
0.822816 0.5275 -1.70435
0.87554 0.718045 -1.32985
0.402465 0.88212 1.90212
0.853544 0.7 1.91687
0.809613 0.877177 1.62001
-0.777302 0.162698 -0.952458
-0.80618 0.147152 -0.339689
-0.822827 0.295395 -0.595778
-0.39593 0.164149 -0.646649
-0.837967 0.14203 0.885848
-0.810887 0.155777 0.273079
-0.847534 0.298157 0.618361
-0.409036 0.170111 0.578312
-0.868209 0.755727 -0.73988
-0.817342 0.596284 -0.495188
-0.836039 0.768568 -0.149907
-0.480141 1.05537 -0.444893
-0.740772 0.763324 1.03004
-0.860315 0.635241 0.696156
-0.788404 0.765945 0.440067
-0.437299 1.03296 0.735053
0.774277 0.163223 -0.954185
0.392916 0.164147 -0.647801
0.80249 0.146676 -0.342568
0.822895 0.29433 -0.597506
0.834758 0.137742 0.880665
0.403895 0.170095 0.576008
0.806147 0.154687 0.269048
0.846929 0.295774 0.614906
0.868202 0.75572 -0.73988
0.480144 1.05537 -0.444893
0.817383 0.596188 -0.495764
0.836045 0.768574 -0.149907
0.740761 0.763313 1.03004
0.437306 1.03297 0.735053
0.860326 0.63475 0.695004
0.788394 0.765935 0.440067
-0.872879 0.420875 -1.45721
-0.402174 0.41 -1.99392
-0.000363647 0.164047 -1.57066
0 0.28735 -1.89906
-0.878168 0.298681 -1.20285
-0.384224 0.162527 -1.25913
-0.868328 0.496444 1.56887
-0.429535 0.50875 2.09818
-0.00057924 0.167639 1.4605
1.11759e-06 0.348703 2.09496
-0.895464 0.285007 1.22543
-0.450349 0.0971697 1.19079
4.68225e-07 0.774698 -1.35429
0 0.551939 -2.02285
-0.880483 0.586722 -1.09086
-0.438341 0.805909 -1.03487
1.94271e-07 0.866333 1.57169
3.72529e-07 0.652929 2.08057
-0.887221 0.659492 1.29183
-0.395518 0.92877 1.32503
0.872871 0.420822 -1.45751
0.402178 0.41 -1.99399
0.878152 0.298607 -1.20371
0.382686 0.162531 -1.25971
0.867245 0.492441 1.56618
0.430012 0.50625 2.09821
0.895538 0.279388 1.22111
0.44914 0.16665 1.18791
0.880481 0.586669 -1.09115
0.438341 0.80591 -1.03487
0.887238 0.657987 1.29039
0.395517 0.92877 1.32503
-0.769051 0.313982 0.0112912
-0.403388 0.164331 -0.0341688
-0.890726 0.442625 -0.846169
-0.809963 0.454068 -0.244798
-0.00109094 0.163551 -0.953321
-0.0016713 0.163497 -0.341129
-0.730823 0.455206 0.356573
-0.863066 0.469331 0.957944
-0.00210472 0.165333 0.271064
-0.0017407 0.170773 0.883256
-0.764187 0.595104 0.100484
-0.462349 1.09005 0.14508
1.40468e-06 1.01323 -0.73988
1.59895e-06 1.19298 -0.149907
1.05104e-06 1.15744 0.440067
5.82812e-07 1.00765 1.03004
0.768966 0.311611 0.00869997
0.399169 0.164322 -0.0358963
0.891188 0.442467 -0.847033
0.810025 0.453659 -0.246238
0.731215 0.454396 0.354558
0.863126 0.467324 0.955353
0.764251 0.595523 0.09962
0.462359 1.09007 0.14508
-0.869125 0.295591 -1.51122
-0.898521 0.299644 -0.899313
-0.885077 0.596557 -0.793024
-0.87364 0.557111 -1.39353
0.869116 0.295553 -1.51165
0.873635 0.557085 -1.39368
0.885117 0.596479 -0.793456
0.898531 0.299449 -0.900609
-0.378362 0.162807 -1.56794
0.377593 0.162848 -1.56823
0.389989 0.162457 -0.953753
-0.392213 0.162445 -0.95289
-0.42542 0.666463 -1.34207
-0.431485 0.938916 -0.73988
0.431487 0.938707 -0.73988
0.425421 0.666464 -1.34207
-0.387337 0.289925 -2.03879
-0.407337 0.539719 -1.96693
0.407339 0.539719 -1.96693
0.387339 0.289925 -2.03883
-0.796614 0.30435 -0.292244
-0.727027 0.346702 0.314826
-0.848304 0.633199 0.39832
-0.802596 0.60161 -0.197352
0.796583 0.302644 -0.294403
0.802628 0.601761 -0.198072
0.847808 0.632896 0.397312
0.727384 0.343974 0.311803
-0.399658 0.164242 -0.340409
0.396042 0.164235 -0.341849
0.401218 0.167837 0.270056
-0.405887 0.16787 0.272071
-0.481634 1.09348 -0.149907
-0.45057 1.06299 0.440067
0.450606 1.06307 0.440067
0.481622 1.09346 -0.149907
-0.863515 0.292865 0.921896
-0.886982 0.301253 1.53374
-0.876114 0.680996 1.59444
-0.847893 0.63516 0.993992
0.8634 0.289298 0.918009
0.848798 0.634155 0.992696
0.876174 0.678994 1.59309
0.888554 0.294694 1.52923
-0.43267 0.169737 0.884552
0.429744 0.169732 0.881961
0.44332 0.207232 1.47639
-0.443923 0.207609 1.47956
-0.389217 0.994537 1.03004
-0.398992 0.86723 1.59585
0.398991 0.867229 1.59585
0.389217 0.994532 1.03004
-0.433517 0.333102 2.11754
0.433756 0.329352 2.11153
0.416238 0.676465 2.08297
-0.416 0.677715 2.08264
-0.766153 0.23375 -1.85192
-0.55875 0.169288 -1.87732
-0.758196 0.165138 -1.71842
-0.875198 0.22125 1.82771
-0.656247 0.132251 1.79564
-0.890696 0.105968 1.65181
-0.826019 0.58625 -1.66671
-0.61875 0.687954 -1.66779
-0.866854 0.698107 -1.47735
-0.84772 0.79875 1.93528
-0.603697 0.924596 1.9446
-0.800758 0.879575 1.76751
0.55875 0.169264 -1.87735
0.766207 0.23375 -1.85197
0.757649 0.165267 -1.71871
0.65625 0.116241 1.79896
0.875255 0.2125 1.82172
0.891088 0.0959952 1.64519
0.61875 0.687942 -1.66778
0.825847 0.58625 -1.66653
0.866681 0.697934 -1.47735
0.603697 0.924246 1.94425
0.848043 0.7975 1.93474
0.800756 0.879573 1.76751
-0.788915 0.154417 -0.799266
-0.801787 0.148212 -0.492881
-0.872398 0.1908 -0.620926
-0.603551 0.143711 -0.646361
-0.833757 0.142907 0.732655
-0.824058 0.14594 0.426271
-0.855594 0.212915 0.598912
-0.62805 0.138487 0.578888
-0.858621 0.757391 -0.592387
-0.813239 0.667753 -0.470041
-0.843707 0.764983 -0.2974
-0.63895 0.855823 -0.444893
-0.753545 0.764845 0.882547
-0.817037 0.702542 0.715605
-0.777105 0.765899 0.58756
-0.600048 0.896383 0.735053
0.786211 0.154206 -0.801281
0.600229 0.144219 -0.648089
0.798475 0.147775 -0.495473
0.87145 0.18982 -0.622941
0.829424 0.14016 0.727761
0.622764 0.138257 0.575433
0.809748 0.154002 0.421953
0.854525 0.209936 0.594881
0.858612 0.757383 -0.592387
[...]
POINT_DATA 3682
SCALARS point_scalars float 1
LOOKUP_TABLE default
-95.7942
-55.087
-42.7032
-48.4396
-95.2153
-57.7429
-42.6417
-49.3076
-35.1313
-22.8857
-49.9877
-37.5848
-34.8768
-22.5934
-49.9964
-37.5275
-92.9965
-113.668
-48.5653
-21.9139
-48.1489
-35.9762
-35.9762
59.6582
-112.866
-49.6255
-23.8527
-50.4431
-35.9762
-35.9762
47.0305
-113.129
-45.6885
-36.204
-45.5654
-48.5283
-34.1433
-61.0192
-64.8399
-53.8906
-25.0278
-49.1452
-47.1171
-45.673
122.904
-92.9965
-36.2842
-23.7303
-56.1974
-35.9762
-34.2405
83.2115
-34.6176
-34.2405
129.286
-33.5881
-32.6166
26.2597
-46.7179
-81.8817
-43.7101
-43.9995
-40.1059
-34.939
69.403
-92.587
-36.5415
-22.1219
-52.5237
-34.1324
-32.1937
69.403
-33.8029
-32.1937
129.694
-32.5269
-31.8392
26.2995
-46.455
-81.9145
-43.6708
-43.5123
-39.4857
-34.0305
-92.587
-113.454
-45.6974
-23.9332
-48.6237
-35.9728
-35.1391
58.3995
-112.617
-49.0171
-24.3281
-50.5996
-35.1391
-33.8029
46.9193
-110.213
-45.685
-36.1493
-45.13
-47.7674
-33.8004
-60.9437
-65.0561
-54.8606
-24.871
-50.3988
-47.261
-45.101
-39.0311
-114.908
-49.2628
-47.1878
-39.5094
-20.8966
-13.0435
-54.2664
-32.7897
-30.8361
-39.5685
-49.1744
-46.5157
-32.9882
-54.2553
-30.7795
-29.4309
-41.853
-34.627
-28.8363
-28.9446
-45.0752
-69.1309
-47.3612
-29.3889
-41.9519
-28.3671
-44.9468
-52.9175
-52.9232
-51.5505
16.6941
197.069
-30.7906
-30.6395
-29.9637
-76.5643
-38.2709
-38.348
-49.8003
-36.7068
-26.7475
-1.06547
-114.888
-75.2066
-49.9968
-43.0279
-45.1342
-39.1777
-21.7158
-73.5413
-49.5373
-34.2201
-43.2632
-114.583
-8.17504
-75.5803
-41.5671
-49.506
-46.0926
-21.7087
-39.3096
-73.5716
-33.9904
-48.993
-43.062
-36.1823
-30.5748
-44.4521
-34.5699
-25.0131
-24.7585
-21.8586
-28.2724
-55.5053
-42.0253
-50.2691
-83.3817
-29.9895
-36.1837
-41.7933
-46.6236
-36.0329
-34.5149
-31.5429
-44.4461
-20.1997
-28.2508
-25.4105
-21.4839
-55.4214
-83.3133
-42.0279
-50.2066
-29.9524
-46.6244
-36.1363
-41.7626
-79.6619
184.273
-71.1311
198.455
-52.5493
-50.799
-42.5046
-30.9925
-42.7535
-28.0421
-40.699
-49.4618
-12.1953
43.5976
-53.2815
-13.3143
-34.6227
-29.7907
-39.4217
-37.9167
-79.6907
182.454
-52.5753
-50.7879
-42.171
-29.9826
-40.8197
-44.5154
-53.308
-13.172
-39.0179
-37.8956
-31.1192
-29.9049
-52.8911
-35.4226
-40.4707
-31.5174
-23.1659
-26.6094
-28.8752
-28.4964
-30.1954
-63.7825
-13.1339
-98.4738
-59.5355
-40.6103
-30.993
-29.8907
-52.835
-35.596
-23.0548
-26.5669
-30.2971
-63.7474
-83.9102
-47.7251
-54.8486
-75.1815
-84.0056
-75.2298
-54.8323
-47.5849
-70.214
-70.5574
-39.8973
-39.9728
-16.1622
-26.8622
-26.7745
-16.1304
165.197
45.9088
45.6486
165.123
-35.73
-23.9557
-25.262
-36.448
-35.7326
-36.4723
-25.0558
-23.8657
-31.4396
-31.437
-28.1355
-28.1295
-79.4932
-53.6571
-53.5552
-79.3434
-25.0455
-43.8285
-43.2882
-27.8844
-24.4671
-27.8989
-42.9607
-43.6326
-28.769
-29.0439
-43.7816
-44.2858
-41.5452
-36.1178
-36.0476
-41.5441
-32.8892
-32.0142
-31.475
-32.047
9.22524
-138.062
-110.62
-50.8786
-48.2454
-46.8311
-37.972
-10.3296
-82.8095
-49.1035
-40.1352
-40.2174
-134.796
13.9309
-111.14
-47.6539
-51.6898
-47.6978
-10.289
-38.3164
-82.7485
-39.5329
-48.5368
-39.8778
-38.3966
-34.0363
-37.5468
-34.4829
-26.9337
-24.7538
-25.1537
-27.3637
-51.5994
-41.9484
-50.2776
-70.534
-34.1407
-38.1501
-40.1406
-42.1196
-38.2302
-34.3704
-33.6148
-37.1217
-28.6102
-27.2163
-24.3853
-25.1353
-51.5854
-70.5344
-41.9347
-50.1991
-34.0952
-42.0854
-38.1023
-40.0883
-18.3835
-37.7389
-117.03
120.808
-121.572
-121.658
-86.5977
117.893
-58.8423
-41.9838
-51.5247
-50.1567
-47.156
-46.8247
-44.3479
-32.7715
-40.3198
-39.6987
-40.7739
-31.2442
-43.5771
-25.2391
-37.0389
-35.3393
-19.3727
-19.4363
-18.7573
16.6013
-58.3651
-56.3976
-54.4144
-35.3831
-33.1315
-33.036
-33.6625
-31.1999
-41.1385
-27.2371
-30.4949
-38.9042
-18.5613
-37.8024
-117.042
120.973
-58.741
-42.0066
-51.5509
-49.8442
-46.7583
-46.2552
-43.7878
-32.1288
-42.4422
-20.181
-43.4535
-33.3274
-58.385
-56.3829
-54.4472
-35.4645
-40.9769
-27.2174
-29.9776
-38.8627
-30.3273
-29.0543
-30.1993
-29.7738
-43.1683
-42.4831
-52.6956
-37.8326
-34.5675
-34.5514
-37.1523
-32.8184
-23.5803
-33.7236
-18.0585
-29.5062
-28.7955
-28.8115
-28.9338
-28.4555
-47.5205
-43.5475
-37.0164
-54.5112
-70.2214
-70.1111
-40.6151
-91.837
-47.0233
-47.0186
-52.549
-43.578
-30.1747
-27.9873
-29.7757
-29.6504
-43.0971
-42.4839
-52.7009
-37.7381
-22.9513
-33.555
-18.0274
-29.2889
-47.4287
-43.5604
-36.5621
-54.4626
-63.022
-53.0322
-52.9962
-49.4948
-63.0566
-53.0438
-53.0046
-49.4932
-60.1306
-51.386
-51.3881
-45.1711
1.38239
9.87895
9.86516
15.78
195.621
198.235
157.421
195.672
-30.6627
-33.951
-26.792
-31.1221
-30.5289
-33.8902
-26.6595
-30.9988
-29.9289
-30.5935
-29.3935
-29.9254
-74.0115
-89.5323
-67.0152
-73.9812
-40.377
-39.7589
-38.2219
-35.1553
-40.0788
-38.9351
-38.0696
-35.2747
-48.0991
-49.2804
-48.2938
-27.6359
-35.5293
-36.993
-36.9833
-38.3835
-28.3914
-26.4698
-28.6432
-27.459
-115.008
97.3094
-87.04
110.203
-85.7091
-69.9582
-45.4547
-34.3822
-44.1213
-37.6699
-45.1537
-43.4254
-111.648
56.0456
-35.6975
18.4243
-75.1444
-36.2545
-44.647
-33.4619
-34.2753
-33.2707
-43.9465
-38.8628
-87.1765
110.312
-114.884
96.9424
-85.8423
-71.5031
-43.3332
-36.6597
-45.0831
-33.6077
-45.1297
-45.035
-35.6604
18.3887
-111.451
56.1738
-75.1661
-36.2046
-34.1641
-32.7149
-44.108
-32.9234
-43.7175
-38.7178
-42.1284
-39.2347
-33.3315
-31.3683
-51.0737
-37.9941
-36.8955
-32.6741
-25.1206
-27.6966
-24.2314
-26.5993
-19.975
-27.4437
-28.0897
-28.3495
-57.2137
-60.5837
-50.0145
-38.8902
-42.214
-63.3868
-51.5044
-85.3237
-28.1326
-38.3396
-31.3973
-33.1045
-41.59
-47.6784
-50.2096
-44.0086
-41.8891
-38.9894
-36.8265
-32.657
-33.8066
-31.4425
-50.9703
-38.0725
-22.0265
-27.0687
-28.0598
-28.3548
-24.1814
-26.9665
-19.8829
-26.7005
-57.1562
-60.5912
-51.532
-85.5014
-50.0268
-38.9443
-42.1819
-63.3467
-28.0847
-38.3174
-50.1957
-44.0073
-31.3891
-32.9247
-41.5815
-47.7283
-81.9128
-77.0101
171.56
136.864
-71.1255
-71.183
196.247
196.227
-64.0792
-46.602
-59.1838
-44.5171
-42.8202
-42.734
-31.4317
-31.2272
-42.214
-42.9743
-29.8206
-29.1474
-28.6933
-41.9837
-29.1208
-47.0639
-10.135
-10.1349
38.5398
38.6029
-53.0599
-60.6143
-13.525
-12.2716
-34.945
-34.9184
-30.2348
-30.6402
-40.4909
-21.2669
-39.4093
-37.2987
-81.9612
-77.0367
136.579
170.696
-64.1244
-46.5648
-59.3071
-44.4836
-42.315
-42.5168
-30.584
-30.446
-28.4812
-41.6378
-30.9195
-46.4685
-60.6886
-53.033
-12.4042
-13.4996
-21.4075
-40.173
-37.2548
-39.387
-33.4024
-27.6128
-30.4666
-29.1246
-51.3609
-53.888
-35.2652
-36.4398
-40.3206
-40.3469
-31.4741
-31.4672
-23.3135
-22.9507
-25.6939
-26.9636
-28.6947
-28.6953
-28.8185
-28.9608
-25.9114
-34.7657
-70.3294
-58.4605
-12.4718
-12.4657
-97.0227
-96.9725
-58.4749
-58.4583
-40.6478
-40.6429
-33.3392
-27.5133
-30.4642
-29.1202
-53.8675
-51.3053
-35.3054
-36.6549
-22.8299
-23.2046
-25.5143
-26.9303
-34.7028
-25.7367
-58.4193
-70.2097
-114.355
-63.1195
-63.8163
-115.466
-47.0341
-53.3442
-48.0354
-43.2944
-48.4339
-55.7534
-50.5564
-52.1883
-103.318
-111.521
-61.6649
-59.9529
-114.045
-115.478
-63.8533
-63.2149
-103.007
-59.9818
-61.6999
-111.558
-48.4182
-52.1829
-50.5422
-55.7392
-47.1457
-43.2998
-48.0224
-53.2639
-94.5589
-87.243
-60.0069
-59.1293
-95.5043
-58.6933
-60.0449
-87.2605
-36.3447
-37.0413
-45.3914
-43.5906
-36.4299
-43.5265
-45.0049
-37.0667
-37.5846
-33.4146
-1.91036
-25.7712
-69.8669
-40.6105
10.1907
-46.0848
-69.7854
-45.982
10.1762
-40.6713
-37.5898
-25.7213
-1.90799
-33.4523
84.6458
105.87
196.089
142.626
37.1278
16.8912
174.442
97.9152
36.6451
98.0265
174.335
16.8999
84.9697
142.705
196.07
106.065
-35.6959
-32.0589
-33.1949
-37.5371
-23.1072
-19.0564
-27.0708
-28.3907
-41.4425
-41.0385
-26.6253
-20.253
-42.5425
-39.2316
-35.315
-41.3835
-36.6703
-37.5732
-33.1101
-31.8933
-42.5229
-41.2955
-35.268
-39.0611
-41.4098
-20.2134
-26.476
-41.0865
-22.75
-28.2674
-26.956
-19.0217
-32.9124
-32.7535
-30.5516
-30.1901
-32.9008
-30.2473
-30.548
-32.7553
-26.0779
-28.7351
-29.3071
-29.1586
-26.0539
-29.4414
-29.3117
-28.7386
-67.3865
-58.7878
-85.6138
-90.7132
-44.8423
-52.2451
-64.7343
-50.6984
-44.6936
-50.7077
-64.7321
-52.2316
-67.3151
-90.7443
-85.5999
-58.7289
-26.2251
-24.5639
-33.6603
-28.416
-46.7248
-44.7417
-40.9334
-43.3591
-44.8495
-41.4071
-40.2074
-44.3502
-33.9225
-30.4828
-30.706
-17.1125
-29.5434
-28.0233
-35.0336
-23.3566
-33.8871
-17.1597
-30.5002
-30.3654
-44.4473
-43.8304
-39.8629
-40.8869
-46.6599
-42.6893
-40.6592
-44.0459
-28.4517
-28.4659
-29.0955
-26.8912
-28.0578
-25.5139
-29.1356
-28.5176
-45.6057
-41.2811
-45.9775
-43.7949
-41.1551
-45.4963
-47.1829
-41.9587
-39.6873
-38.3213
-38.602
-43.4123
-36.9499
-33.6758
-35.704
-39.4518
-36.7277
-39.381
-35.687
-33.6214
-39.6556
-43.4073
-38.5955
-38.2949
-37.2388
-32.5875
-27.8877
-32.9164
-36.505
-32.1976
-26.8425
-32.0758
-34.08
-31.5585
-28.7058
-32.4078
-34.6871
-32.961
-29.3595
-31.7885
-56.4604
-113.572
-146.066
-52.8371
-52.4055
-55.6367
-38.0133
-4.71162
-72.4731
-52.7396
-46.0363
-38.3921
-114.959
-60.2538
-146.98
-51.661
-54.074
-54.0812
-4.67191
-38.1901
-72.3406
-45.1924
-50.8561
-38.0756
-37.2359
-35.1208
-35.0906
-34.8739
-26.3006
-23.3621
-23.3331
-25.051
-50.9241
-45.6646
-49.5642
-60.3748
-36.1322
-37.6068
-38.8996
-40.2699
-37.0158
-34.6879
-34.6144
-34.8524
-26.9648
-25.009
-22.0854
-23.3227
-50.9107
-60.4638
-45.6523
-49.5324
-36.0751
-40.2186
-37.5559
-38.8431
-38.9748
-38.1486
-111.16
54.2522
-117.212
-117.199
-98.6395
91.6759
-53.5052
-45.6076
-51.1135
-49.6452
-47.2314
-47.1403
-44.6219
-35.4816
-39.7908
-39.5541
-40.4207
-33.3029
-48.5909
-11.4164
-28.088
-29.9126
-14.8489
-14.8597
-19.8247
0.460877
-55.165
-55.7906
-56.0954
-49.61
-32.8965
-32.8409
-33.226
-31.7473
-35.9192
-28.202
-26.6988
-36.912
-39.4416
-38.4585
-111.249
55.529
-53.6783
-45.5784
-51.1283
-49.5705
-46.7073
-46.5142
-43.8508
-34.8792
-44.1944
-11.795
-38.2184
-31.2308
-55.1726
-55.7607
-56.0884
-49.6164
-35.8298
-28.175
-26.4624
-36.8643
-29.8451
-30.5062
-29.6489
-29.7511
-42.3005
-42.1667
-46.2257
-39.725
-34.6375
-34.6348
-35.7632
-33.6608
-26.0914
-31.8767
-18.5007
-31.2814
-28.8703
-28.8712
-29.3558
-28.3675
-46.143
-44.4248
-42.1932
-51.6452
-69.7968
-69.745
-57.8729
-80.3941
-47.3831
-47.3789
-49.633
-45.1373
-29.7384
-30.7112
-29.4172
-29.7794
-42.3536
-42.1992
-46.3259
-39.7534
-25.5408
-31.5296
-17.9246
-31.0641
-46.0059
-44.4534
-41.7771
-51.6025
-57.0358
-53.0324
-52.8692
-50.2948
-57.0608
-53.0438
-52.8768
-50.2895
-55.5531
-51.5707
-51.5714
-48.2212
8.75118
15.2991
15.2939
20.5467
196.621
197.994
201.25
196.615
-30.6775
-32.7438
-28.864
-31.0388
-30.581
-32.7154
-28.6764
-30.895
-29.9548
-30.2266
-29.7937
-29.9531
-75.99
-82.2935
-71.447
-75.9816
-39.1775
-38.9139
-38.1626
-41.2016
-38.9579
-38.509
-38.0522
-41.5631
-54.6162
-50.0394
-49.6423
-23.9149
-36.1052
-36.7647
-36.7575
-37.4849
-27.3446
-26.4909
-27.6497
-26.8146
38.4982
12.3331
-120.763
93.5532
-117.502
-122.838
-100.741
-15.2177
-90.4614
-65.555
-85.3225
-71.9215
-50.6279
-48.207
-46.5095
-36.0683
-43.8106
-42.2728
-43.9285
-40.1575
-46.2253
-43.608
-45.7936
-43.4227
-38.5423
-37.7056
-111.446
39.232
-21.5958
-29.3581
-50.5088
1.13234
-80.2528
-64.2416
-75.7249
-59.2499
-46.9594
-46.6305
-45.5994
-36.2891
-37.9191
-33.2281
-33.347
-34.092
-41.8397
-42.7665
-45.2674
-41.0854
-116.743
-122.714
-100.704
-14.978
21.6709
11.5915
-121.384
93.8128
-90.8183
-65.6517
-85.497
-72.6994
-41.9924
-41.2245
-42.8308
-38.5496
-50.4036
-48.0489
-46.4747
-35.4774
-47.2843
-44.5144
-45.9645
-46.3626
-21.5707
-29.4678
-50.469
0.617884
-38.8744
-37.666
-111.334
39.1644
-80.1643
-64.2717
-75.7631
-59.1712
-37.3842
-33.1488
-33.229
-33.5288
-46.2466
-45.905
-45.0312
-35.6654
-41.5469
-42.5236
-44.7609
-40.9089
-37.1935
-38.8245
-38.5165
-38.1382
-31.4617
-30.8274
-30.6588
-31.2654
-41.9606
-43.7779
-51.0762
-40.4545
-34.7133
-34.5114
-35.7256
-33.5379
-25.9441
-24.6895
-24.6058
-26.483
-24.3271
-26.2148
-24.3264
-25.738
-24.1433
-21.3208
-16.9723
-26.8839
-28.3414
-28.6556
-28.334
-28.1619
-52.4129
-56.4088
-56.5726
-59.328
-42.3789
-42.1358
-44.8824
-40.0593
-50.2299
-49.1466
-47.0139
-58.69
-86.243
-73.881
-67.6508
-87.8119
-32.137
-27.6107
-28.4797
-35.4992
-38.5881
-34.6608
-37.0085
-34.548
-40.9988
-42.5753
-41.7476
-45.7654
-44.0136
-47.2172
-48.1499
-45.3063
-36.807
-38.9344
-38.0926
-38.0003
-34.6526
-34.4881
-35.6716
-33.5002
-32.405
-30.7819
-32.6465
-31.4603
-41.7423
-43.652
-51.2028
-40.6076
-21.2964
-23.7774
-19.3118
-24.997
-28.2125
-28.6423
-28.311
-28.1232
-24.9963
-25.9042
-24.6199
-27.349
-24.2926
-20.8219
-16.8682
-26.4468
-52.3976
-56.3802
-56.4978
-59.2778
-86.2361
-73.6143
-67.4843
-87.8008
-42.3743
-42.1439
-44.8813
-40.0561
-50.1711
-49.0735
-46.9517
-58.6471
-32.0757
-27.5966
-28.5616
-35.464
-43.9857
-47.214
-48.1542
-45.3062
-38.4967
-34.5978
-36.9008
-34.4346
-40.9571
-42.5804
-41.7323
-45.7193
-95.4204
-70.2656
-80.372
-78.126
150.19
195.963
167.607
169.465
-77.9006
-65.2153
-71.1952
-71.2152
198.444
198.466
197.46
197.446
-52.2203
-52.8738
-57.3513
-48.7594
-50.5624
-51.1442
-54.7255
-47.5672
-43.3417
-41.8884
-42.6841
-42.5402
-31.9402
-29.8291
-31.0929
-30.9476
-41.5726
-44.5783
-42.4853
-42.8137
-30.0092
-26.7025
-28.705
-28.4263
-41.0131
-40.0391
-39.4257
-41.3904
-40.1183
-52.4153
-25.0635
-53.82
-15.9153
-6.4669
-11.9578
-11.9615
19.0382
79.4709
39.5991
39.5598
-53.4202
-53.1818
-52.8439
-56.2123
-19.7898
0.477317
-11.0769
-12.2103
-34.0897
-34.9861
-34.631
-34.6019
-30.3176
-29.3951
-29.8096
-30.0108
-36.4092
-39.3371
-39.519
-33.1825
-38.6407
-37.3308
-38.6027
-37.7251
-95.4467
-70.2942
-80.4076
-78.1514
148.663
195.04
169.158
169.672
-52.25
-52.8886
-57.3855
-48.7631
-50.5621
-51.1485
-54.7278
-47.5207
-43.054
-41.5684
-42.1324
-42.3792
-31.1937
-28.729
-30.0099
-30.0234
-42.4251
-39.8837
-40.2906
-41.0267
-41.1102
-47.4086
-34.8232
-47.9941
-53.4601
-53.1959
-56.2541
-52.8161
-20.0421
0.467021
-12.4655
-10.8926
-36.0849
-39.0691
-33.0926
-39.0494
-38.6119
-37.319
-37.6989
-38.5859
-30.6911
-30.8417
-32.46
-29.5345
-29.902
-29.9057
-30.0583
-29.8513
-52.6262
-50.5543
-52.5207
-53.5216
-36.2706
-34.6143
-35.2954
-35.8817
-38.6503
-42.6254
-40.4849
-40.4918
-32.1435
-31.0147
-31.5083
-31.5063
-21.1753
-24.9673
-23.2004
-23.2231
-28.1156
-24.8341
-26.1674
-26.7897
-28.8746
-28.9885
-28.838
-28.8355
-28.5024
-28.2832
-28.5885
-28.6152
-29.4924
-30.746
-27.8195
-32.4692
-57.4303
-69.9253
-66.9861
-60.8283
-31.9051
5.39728
-12.8617
-12.8744
-99.3083
-95.1658
-98.2408
-98.2239
-56.0796
-62.6193
-59.3591
-59.3504
-41.955
-39.4451
-40.6023
-40.5996
-30.337
-30.7317
-32.3426
-29.4486
-29.8753
-29.8975
-30.0559
-29.8342
-52.6705
-50.4381
-53.4973
-52.403
-36.2644
-34.5702
-35.3441
-36.2167
-21.0655
-24.8356
-23.1054
-23.0671
-27.9621
-24.8574
-26.0689
-26.7783
-29.7925
-30.7213
-32.5014
-27.632
-57.3983
-69.8751
-60.7978
-66.947
-103.893
-84.6815
-82.6166
-71.7852
-45.618
-52.4757
-45.2705
-49.9843
-56.2192
-57.1815
-54.1586
-54.2324
-86.706
-74.5358
-75.9929
-67.4268
-103.928
-84.7742
-82.6748
-71.8416
-86.8009
-74.5542
-76.0419
-67.4659
-56.1909
-57.2067
-54.1282
-54.2128
-45.5001
-52.5353
-45.2201
-49.8743
-77.2684
-69.9505
-70.7315
-64.2769
-77.5728
-70.4173
-70.8597
-64.4741
-39.6711
-38.1749
-41.9824
-40.172
-39.8126
-38.2523
-42.0198
-40.2072
-22.7738
-20.1836
-9.85513
-11.4571
-43.8854
-39.4386
-17.6507
-15.867
-43.7951
-39.3395
-17.6868
-15.8505
-22.7438
-20.1394
-9.82169
-11.4264
128.863
172.624
182.167
196.05
51.6244
23.3324
76.9207
39.0066
23.3745
51.9118
39.0396
76.6717
172.479
129.485
196.009
181.884
-35.1912
-36.8113
-34.6254
-35.3765
-24.6203
-21.9302
-25.7614
-23.5656
-24.202
-36.0757
-22.6312
-24.2127
-37.8106
-35.939
-36.6459
-35.9248
-35.0433
-36.9563
-34.6366
-35.4227
-37.8379
-35.963
-36.7571
-35.8783
-24.1402
-36.0146
-22.5036
-24.0556
-24.578
-21.8509
-25.6632
-23.4873
-31.4802
-32.005
-30.9651
-31.4431
-31.9993
-31.4873
-31.4375
-30.9612
-28.0803
-27.6307
-28.4693
-28.3632
-27.5649
-28.0874
-28.3566
-28.4655
-68.7121
-84.2012
-74.9014
-90.9009
-49.8595
-51.9091
-56.2851
-56.7743
-51.8248
-49.6597
-56.7479
-56.2243
-84.1315
-68.6744
-90.9014
-74.7325
-25.0627
-26.4072
-22.4717
-25.3244
-44.5151
-44.3982
-42.9269
-43.1337
-43.2491
-43.463
-43.0835
-42.3944
-27.8589
-31.1
-21.9979
-27.427
-24.1958
-25.5278
-22.2052
-24.9893
-27.8925
-31.042
-22.0634
-27.3991
-42.9144
-43.26
-42.6664
-42.0735
-44.4178
-44.2806
-42.7613
-42.7311
-28.5714
-28.5069
-29.0174
-28.9882
-28.5122
-28.5895
-29.7749
-29.2884
-43.4508
-44.871
-43.3364
-45.0898
-43.9728
-44.7561
-43.9691
-45.582
-40.8046
-42.7886
-40.439
-40.727
-35.2887
-37.2205
-35.4814
-37.0996
-35.2674
-37.2319
-35.4203
-37.0383
-40.7919
-42.7867
-40.6024
-40.7254
-34.0807
-34.9501
-32.0782
-31.3298
-34.1796
-32.7405
-30.6757
-36.2212
-31.9487
-32.0567
-30.8631
-30.9709
-32.5923
-32.4783
-31.6373
-31.3876
-116.111
57.7739
-117.328
-28.069
-112.835
-99.9863
-48.1116
-39.7078
-51.8525
-42.1113
-47.6052
-40.5241
-106.256
28.6233
-30.5876
26.458
-92.5217
-44.1495
-46.0996
-37.243
-35.2136
-37.3685
-43.0296
-38.6587
-115.616
-27.6394
-116.159
57.8436
-112.692
-100.835
-51.1297
-43.7361
-48.5514
-39.292
-47.6683
-47.96
-30.5997
26.4868
-105.848
28.3316
-92.5128
-44.0925
-34.9274
-36.6637
-45.5674
-36.5969
-42.6897
-38.3927
-41.5904
-36.8953
-35.9106
-33.1605
-44.1825
-38.8428
-34.928
-33.8216
-26.1533
-28.329
-23.3241
-25.4662
-22.4232
-26.5604
-27.0405
-28.023
-49.7318
-58.8218
-44.7449
-39.6127
-46.2763
-60.4185
-71.7356
-69.4717
-33.8168
-37.0796
-40.2866
-36.2028
-40.2482
-43.0708
-43.2444
-40.6426
-41.7562
-36.741
-34.7658
-33.6632
-34.4132
-33.1768
-43.8282
-38.1425
-30.2663
-27.8939
-26.6828
-27.7968
-22.2577
-24.9191
-22.1763
-26.9439
-49.7482
-58.7763
-71.7596
-69.3894
-44.7305
-39.6154
-46.2266
-60.205
-33.7763
-37.0467
-43.257
-40.6139
-40.2525
-36.1347
-40.2064
-43.009
-109.396
84.5826
-110.566
48.9868
-117.539
-115.443
107.478
111.91
-100.026
51.9524
-100.082
51.6377
-87.2121
-87.2079
113.248
113.182
-62.7757
-58.9326
-42.8023
-42.7491
-56.5365
-47.3481
-54.2411
-46.7363
-45.1449
-35.5773
-44.9935
-35.7455
-44.5358
-44.1754
-32.9189
-32.7801
-42.1082
-34.2979
-41.5405
-33.582
-40.9475
-41.1744
-31.4863
-31.2213
-43.3204
-44.6542
-24.4708
-24.5602
-27.9497
-45.5706
-24.8423
-45.4191
-29.0869
0.209882
-29.0624
0.242492
-19.853
-19.8414
16.8253
16.8452
-60.6986
-48.576
-57.0413
-55.3407
-55.5817
-55.5444
-34.0608
-40.3004
-33.3768
-32.3507
-33.3073
-32.2021
-33.6684
-33.6321
-31.2707
-31.3697
-40.1575
-41.183
-21.8154
-32.871
-37.5963
-21.3039
-39.5577
-38.7228
-109.63
86.4593
-110.64
48.9091
-117.551
-115.587
112.112
107.66
-62.7129
-58.5915
-42.841
-42.7915
-56.5692
-47.4065
-53.3948
-46.7864
-44.8814
-35.1948
-44.4532
-34.8593
-43.631
-43.9223
-32.2359
-32.2123
-42.5748
-42.1177
-20.9521
-22.8052
-34.4164
-42.5878
-22.3224
-42.1037
-60.7316
-48.5973
-57.0272
-55.306
-55.5788
-55.5575
-40.2602
-33.7112
-39.7075
-41.0693
-21.8313
-32.9207
-21.4643
-37.2885
-38.6726
-39.5139
-31.0466
-30.1463
-29.3704
-29.3322
-31.2102
-31.1801
-29.9061
-29.8045
-48.922
-39.421
-45.8849
-40.3529
-53.6423
-51.4371
-37.6386
-38.8742
-35.6946
-33.6104
-35.6717
-33.5948
-37.1242
-37.1343
-32.8134
-32.816
-15.648
-29.4499
-27.7658
-32.3635
-18.4574
-18.3358
-28.9402
-30.053
-29.101
-28.3352
-29.1218
-28.3569
-28.8932
-28.887
-28.4548
-28.4814
-44.5836
-55.0632
-43.3768
-48.0154
-41.3276
-38.801
-56.4424
-52.3857
-54.3371
-79.7462
-54.243
-79.7611
-39.6266
-39.6582
-91.0634
-91.0762
-49.4368
-45.2665
-49.4324
-45.2601
-52.4678
-52.4693
-43.4222
-43.441
-30.9583
-30.1786
-28.7053
-27.9457
-30.9359
-30.4869
-29.8666
-29.6128
-48.7539
-39.5163
-45.9187
-40.3632
-51.4622
-53.6337
-37.6274
-38.6908
-15.4259
-29.1351
-27.5238
-32.2781
-18.2965
-18.4289
-28.6616
-29.8926
-44.4827
-55.0154
-43.3938
-47.9788
-38.7188
-41.1546
-52.393
-56.4289
-63.4544
-62.3003
-57.6091
-49.707
-51.4641
-56.4747
-48.7049
-50.0476
-63.4809
-62.336
-57.6379
-49.7095
-56.4937
-51.456
-50.038
-48.7066
-60.2001
-60.2112
-55.4172
-48.0384
-55.4303
-48.0308
-45.1591
-45.1627
0.545961
0.545546
3.36375
12.9236
12.9056
3.35739
14.4516
14.2825
195.948
183.523