# vtk DataFile Version 2.0
tet_velo
ASCII
DATASET UNSTRUCTURED_GRID
POINTS 29498 float
-0.695 0.275 -2.01004
-0.65485 0.365 2.125
-0.745 0.656751 -1.925
-0.515 0.975 2.17122
0.695 0.275 -2.01004
0.645 0.365 2.13059
0.745 0.655 -1.92681
0.515 0.975 2.17122
-0.745434 0.241182 -0.631694
-0.768082 0.235151 0.746653
-0.78633 0.880831 -0.559593
-0.702304 0.979554 0.805814
0.742136 0.241197 -0.62983
0.761537 0.23513 0.75038
0.787231 0.880564 -0.5608
0.702533 0.979199 0.80521
-1.43164 -0.0945755 -3.14251
-1.44071 -0.0313973 -2.04461
-1.46678 -0.056431 -0.66585
-1.45173 -0.0775001 0.715356
-1.37024 0.00237689 2.09432
-1.35264 0.0668539 3.19325
-1.36819 0.119376 4.29033
-1.43669 0.169556 -3.10521
-1.44832 0.261036 -2.00867
-1.47963 0.26569 -0.632648
-1.44175 0.255047 0.744313
-1.31378 0.332003 2.12056
-1.31674 0.394692 3.21926
-1.35062 0.446422 4.31679
-1.45887 0.64677 -3.02662
-1.48602 0.735058 -1.9291
-1.50484 0.893707 -0.561892
-1.39662 0.963182 0.804119
-1.22382 0.981097 2.1714
-1.26864 1.03938 3.26973
-1.33289 1.09701 4.36883
-1.46678 1.51574 -2.91961
-1.47943 1.62523 -1.82442
-1.48093 1.8045 -0.46123
-1.44261 1.94051 0.898815
-1.38795 2.00478 2.26175
-1.37385 2.04401 3.35641
-1.38738 2.08905 4.45395
-0.700394 -0.0875901 -3.14336
-0.701787 -0.0198382 -2.04564
-0.731518 -0.067809 -0.665162
-0.751355 -0.0918345 0.718011
-0.703681 0.0168044 2.09851
-0.694485 0.0769934 3.19636
-0.707232 0.123805 4.29247
-0.701182 0.167226 -3.10564
-0.675806 0.406138 3.22174
-0.699096 0.450909 4.31853
-0.718442 0.613581 -3.02524
-0.63639 1.04028 3.27
-0.689636 1.09823 4.36941
-0.728901 1.49257 -2.9181
-0.740438 1.60318 -1.82272
-0.754426 1.7988 -0.460139
-0.748092 1.94621 0.898863
-0.723739 2.00818 2.26117
-0.716633 2.04494 3.35592
-0.727424 2.08943 4.45377
0.73887 -0.0878373 -3.14333
0.725576 -0.0198895 -2.04524
0.746798 -0.0678256 -0.663477
0.734704 -0.091869 0.721218
0.652656 0.0167828 2.10284
0.622595 0.0769565 3.19972
0.612727 0.123746 4.29501
0.736606 0.166835 -3.10592
0.597726 0.406111 3.22501
0.597514 0.450853 4.32093
0.750745 0.612669 -3.02616
0.554771 1.04024 3.27149
0.577687 1.09816 4.37113
0.749498 1.49197 -2.91862
0.744566 1.60261 -1.82329
0.716072 1.79843 -0.460477
0.65378 1.94597 0.89892
0.59668 2.00802 2.26163
0.583728 2.04481 3.35672
0.583453 2.08931 4.45484
1.46595 -0.0951043 -3.14235
1.45726 -0.0316721 -2.04388
1.47862 -0.0565762 -0.663275
1.45422 -0.077631 0.720308
1.35271 0.00229238 2.10084
1.3035 0.066754 3.19901
1.28838 0.119241 4.29505
1.464 0.168805 -3.10559
1.44926 0.260605 -2.00872
1.48102 0.26551 -0.630704
1.45352 0.254882 0.748815
1.32231 0.331939 2.12692
1.27141 0.394605 3.22473
1.26687 0.446291 4.32128
1.48197 0.645387 -3.02794
1.48489 0.733551 -1.93087
1.50418 0.893164 -0.562534
1.40648 0.962768 0.805068
1.23208 0.980963 2.17363
1.21682 1.03926 3.27288
1.23786 1.09685 4.3722
1.48416 1.51465 -2.92043
1.4797 1.62422 -1.82528
1.44674 1.8038 -0.461633
1.36623 1.94004 0.899175
1.28291 2.00444 2.26288
1.25561 2.04374 3.35813
1.25275 2.0888 4.45611
-0.758141 0.465875 -2.00566
0 0.244051 -2.04099
-0.734928 0.243381 -1.32087
-0.617755 0.67 2.18094
-0.00492501 0.30183 2.19096
-0.758991 0.25255 1.43583
0 0.745404 -2.01543
-0.82047 0.823595 -1.2423
0 1.01215 2.20837
-0.644869 1.01349 1.48852
0.757714 0.465 -2.00614
0.735134 0.241533 -1.31994
0.611236 0.67 2.18214
0.75091 0.252423 1.44049
0.821301 0.822968 -1.24381
0.645036 1.01337 1.48822
-0.754399 0.240526 0.05748
-0.841542 0.561007 -0.595643
-0.00164895 0.239049 -0.630762
-0.850884 0.607353 0.776233
-0.00327273 0.232105 0.748517
-0.743594 0.929469 0.12311
0.000450076 0.914281 -0.560197
0.000114202 1.27433 0.805512
0.749489 0.240511 0.060275
0.841592 0.56088 -0.595315
0.851 0.607164 0.777795
0.744074 0.929074 0.122205
-0.880042 0.513441 -1.28158
-0.851019 0.58418 0.090295
-0.884263 0.638676 1.46217
-0.000824477 0.239087 -1.3204
-0.00246084 0.238851 0.0588775
-0.00409887 0.247029 1.43816
0 0.465438 -2.35235
-0.00246251 0.67 2.32644
0.000225038 0.869426 -1.24305
0.000282139 1.18514 0.122658
5.71011e-05 1.16678 1.48837
0.880042 0.51294 -1.28187
0.851182 0.584022 0.09124
0.886658 0.638582 1.46435
-1.07166 0.268018 -2.00935
-0.698393 0.127581 -2.02784
-0.698091 0.221113 -2.55784
-0.984316 0.348502 2.12278
-0.679265 0.190902 2.11175
-0.665328 0.385569 2.67337
-1.11551 0.695905 -1.92705
-0.731721 0.635166 -2.47512
-0.742719 1.12997 -1.87386
-0.869409 0.978049 2.17131
-0.575695 1.00764 2.72061
-0.619369 1.49159 2.21619
0.710288 0.127555 -2.02764
0.715803 0.220917 -2.55798
1.07213 0.267802 -2.00938
0.648828 0.190891 2.11672
0.621363 0.385555 2.6778
0.983657 0.34847 2.12876
0.747873 0.633834 -2.47648
0.744783 1.1288 -1.87505
1.11495 0.694276 -1.92884
0.534885 1.00762 2.72136
0.55584 1.49151 2.21642
0.87354 0.977981 2.17243
-1.11253 0.253436 -0.632171
-0.738476 0.0866868 -0.648428
-1.10492 0.245099 0.745483
-0.759719 0.0716582 0.732332
-1.14559 0.887269 -0.560743
-0.770378 1.33982 -0.509866
-1.04946 0.971368 0.804966
-0.725198 1.46288 0.852338
0.744467 0.0866857 -0.646654
1.11158 0.253353 -0.630267
0.74812 0.0716303 0.735799
1.10753 0.245006 0.749597
0.751651 1.3395 -0.510639
1.1457 0.886864 -0.561667
0.678156 1.46258 0.852065
1.0545 0.970983 0.805139
-1.43617 -0.0629864 -2.59356
-1.43417 0.0374903 -3.12386
-1.06602 -0.0910828 -3.14294
-1.45374 -0.0439142 -1.35523
-1.44451 0.114819 -2.02664
-1.07125 -0.0256177 -2.04512
-1.45925 -0.0669656 0.0247527
-1.4732 0.104629 -0.649249
-1.09915 -0.06212 -0.665506
-1.41099 -0.0375616 1.40484
-1.44674 0.0887735 0.729834
-1.10154 -0.0846673 0.716683
-1.36144 0.0346154 2.64379
-1.34201 0.16719 2.10744
-1.03696 0.00959067 2.09641
-1.36041 0.0931151 3.74179
-1.33469 0.230773 3.20625
-1.02356 0.0719236 3.19481
-1.35941 0.282899 4.30356
-1.03771 0.121591 4.2914
-1.4425 0.215296 -2.55694
-1.44778 0.408163 -3.06592
-1.06894 0.168391 -3.10543
-1.46397 0.263363 -1.32066
-1.46717 0.498047 -1.96888
-1.46069 0.260369 0.0558326
-1.49223 0.579698 -0.59727
-1.37777 0.293525 1.43244
-1.41919 0.609115 0.774216
-1.31526 0.363348 2.66991
-1.2688 0.65655 2.14598
-1.33368 0.420557 3.76802
-1.29269 0.717036 3.24449
-0.996271 0.400415 3.2205
-1.34176 0.771715 4.34281
-1.02486 0.448666 4.31766
-1.47245 0.690914 -2.47786
-1.46283 1.08125 -2.97312
-1.08866 0.630175 -3.02593
-1.49543 0.814383 -1.2455
-1.48272 1.18015 -1.87676
-1.45073 0.928444 0.121113
-1.49288 1.3491 -0.511561
-1.31022 0.97214 1.48776
-1.41962 1.45185 0.851467
-1.24623 1.01024 2.72057
-1.30589 1.49294 2.21658
-1.30077 1.06819 3.81928
-1.32124 1.5417 3.31307
-0.952517 1.03983 3.26987
-1.36014 1.59303 4.41139
-1.01126 1.09762 4.36912
-1.4731 1.57049 -2.37201
-1.09784 1.50415 -2.91886
-1.48018 1.71487 -1.14282
-1.10993 1.61421 -1.82357
-1.46177 1.87251 0.218792
-1.11768 1.80165 -0.460685
-1.41528 1.97264 1.58028
-1.09535 1.94336 0.898839
-1.3809 2.02439 2.80908
-1.05585 2.00648 2.26146
-1.38062 2.06653 3.90518
-1.04524 2.04447 3.35617
-1.0574 2.08924 4.45386
-0.70109 -0.0537141 -2.5945
-0.700788 0.039818 -3.1245
0.0192378 -0.0877137 -3.14334
-0.716652 -0.0438236 -1.3554
0.0118948 -0.0198638 -2.04544
-0.741437 -0.0798218 0.0264246
0.00763999 -0.0678173 -0.664319
-0.727518 -0.037515 1.40826
-0.00832555 -0.0918518 0.719614
-0.699083 0.0468989 2.64743
-0.0255122 0.0167936 2.10068
-0.700858 0.100399 3.74442
-0.685146 0.241566 3.20905
-0.035945 0.076975 3.19804
-0.703164 0.287357 4.3055
-0.0472524 0.123775 4.29374
-0.709812 0.390403 -3.06544
0.0177122 0.16703 -3.10578
-0.687451 0.428524 3.77014
-0.656098 0.723209 3.24587
-0.0390403 0.406125 3.22338
-0.694366 0.774569 4.34397
-0.0507913 0.450881 4.31973
-0.723671 1.05308 -2.97167
0.0161515 0.613125 -3.0257
-0.663013 1.06925 3.81971
-0.676512 1.54261 3.31296
-0.0408098 1.04026 3.27075
-0.70853 1.59383 4.41159
-0.0559747 1.0982 4.37027
-0.73467 1.54788 -2.37041
0.0102986 1.49227 -2.91836
-0.747432 1.70099 -1.14143
0.00206359 1.6029 -1.823
-0.751259 1.87251 0.219362
-0.0191769 1.79862 -0.460308
-0.735915 1.9772 1.58001
-0.0471561 1.94609 0.898891
-0.720186 2.02656 2.80854
-0.0635293 2.0081 2.2614
-0.722028 2.06718 3.90484
-0.0664526 2.04487 3.35632
-0.0719857 2.08937 4.45431
0.732223 -0.0538634 -2.59428
0.737738 0.0394987 -3.12462
1.10241 -0.0914708 -3.14284
0.736187 -0.0438575 -1.35436
1.09142 -0.0257808 -2.04456
0.740751 -0.0798473 0.0288703
1.11271 -0.0622009 -0.663376
0.69368 -0.0375431 1.41203
1.09446 -0.08475 0.720763
0.637626 0.0468697 2.65128
1.00268 0.00953758 2.10184
0.617661 0.100351 3.74736
0.61016 0.241534 3.21236
0.963049 0.0718553 3.19936
0.60512 0.287299 4.30797
0.950552 0.121493 4.29503
0.743676 0.389752 -3.06604
1.1003 0.16782 -3.10575
0.59762 0.428482 3.77297
0.576248 0.723176 3.24825
0.934566 0.400358 3.22487
0.5876 0.774507 4.34603
0.93219 0.448572 4.32111
0.750121 1.05232 -2.97239
1.11636 0.629028 -3.02705
0.566229 1.0692 3.82131
0.569249 1.54252 3.31411
0.885795 1.03975 3.27219
0.58057 1.59373 4.41299
0.907772 1.09751 4.37166
0.747032 1.54729 -2.37095
1.11683 1.50331 -2.91952
0.730319 1.70052 -1.14188
1.11213 1.61341 -1.82429
0.684926 1.8722 0.219221
1.0814 1.80112 -0.461055
0.62523 1.97699 1.58027
1.01001 1.943 0.899047
0.590204 2.02641 2.80918
0.939795 2.00623 2.26225
0.58359 2.06706 3.90578
0.919668 2.04427 3.35743
0.918101 2.08905 4.45548
1.4616 -0.0633882 -2.59311
1.46497 0.0368503 -3.12397
1.46794 -0.0441241 -1.35358
1.45326 0.114466 -2.0263
1.46642 -0.0671036 0.0285165
1.47982 0.104467 -0.646989
1.40346 -0.0376693 1.41058
1.45387 0.0886254 0.734561
1.32811 0.0345232 2.64993
1.33751 0.167116 2.11388
1.29594 0.0929976 3.74703
1.28745 0.230679 3.21187
1.27762 0.282766 4.30817
1.45663 0.214705 -2.55716
1.47298 0.407096 -3.06677
1.46514 0.263057 -1.31971
1.46708 0.497078 -1.96979
1.46727 0.260196 0.0590556
1.4926 0.579337 -0.596619
1.38792 0.29341 1.43787
1.43 0.608825 0.776941
1.29686 0.363272 2.67583
1.2772 0.656451 2.15028
1.26914 0.420448 3.773
1.24411 0.716932 3.24881
1.25236 0.771572 4.34674
1.48343 0.689469 -2.4794
1.48307 1.08002 -2.97418
1.49453 0.813358 -1.2467
1.4823 1.17889 -1.87807
1.45533 0.927966 0.121267
[...]
POINT_DATA 29498
VECTORS point_vectors float
-2.76892 -3.50121 5.45739
0.00432134 0.0123292 0.0296446
-1.7899 1.3569 2.82915
-0.111756 -0.0818122 0.161655
1.99663 -2.69067 4.2
-0.0152582 0.0179136 0.0492208
1.8425 1.39381 2.92021
0.111025 -0.0837144 0.16496
0 0 0
0.0231769 -0.0136336 0.648786
-0.0676193 -0.0321019 0.213305
0 0 0
0 0 0
-0.0204804 -0.00926043 0.494722
0.0666341 -0.0316468 0.209846
0 0 0
-0.531 -0.232995 19.8044
-1.25116 -0.721491 20.3518
-0.45232 -0.410228 21.1448
0.0116871 -0.176053 21.3222
0.730309 0.271333 21.3585
1.02433 0.292758 20.9672
0.789533 0.138172 20.9304
-0.614507 -0.17508 19.7257
-1.69947 -0.557076 20.3303
-0.561979 -0.45534 21.1893
-0.00517053 -0.29671 21.4311
1.10317 0.0672319 21.2953
1.29203 -0.0174508 20.9877
1.14238 -0.078175 20.791
-0.712181 0.0524023 19.6605
-1.78018 0.115955 20.3351
-1.00495 -0.240968 21.0956
-0.457086 -0.406943 21.5834
0.817696 -0.77869 20.692
0.907239 -0.705056 20.961
0.820603 -0.592824 20.1559
-0.519818 0.346014 19.8792
-0.842033 0.576483 20.3383
-0.759183 0.377542 20.9116
-0.358362 0.0627356 21.3222
0.0785344 -0.324258 21.1685
0.155445 -0.374781 20.9351
0.112268 -0.251794 20.6252
-0.502226 -0.52565 19.2857
-1.75832 -3.65468 20.5411
-0.228476 -0.485145 20.8013
0.0276639 -0.0593686 20.2062
0.455309 1.19015 17.3146
0.925793 1.53231 17.3116
0.869022 0.913908 16.8597
-0.625742 -0.42479 19.0496
1.43106 1.09581 9.00562
1.77088 0.789773 12.5742
-0.829534 0.111308 18.7341
0.945472 -0.884593 9.36414
0.900546 -0.576457 15.9848
-0.484025 0.708517 19.4743
-0.918088 1.54835 20.1796
-0.912545 1.17966 20.8618
-0.414387 0.384533 21.627
0.0156548 -0.396098 21.2659
0.087813 -0.512248 20.9602
0.0186396 -0.441456 20.2911
0.519273 -0.499037 19.3199
1.84493 -3.48747 20.4845
0.239369 -0.46956 20.812
-0.0235795 -0.0536357 20.1224
-0.356618 1.1796 16.8472
-0.777153 1.55737 17.1864
-0.773746 1.0913 16.4068
0.64658 -0.403255 19.0846
-1.25606 1.15989 6.97198
-1.88228 1.04555 10.1409
0.844091 0.104389 18.7944
-0.641396 -0.879019 6.38979
-0.838468 -0.559229 13.4922
0.489772 0.699816 19.4827
0.922879 1.54381 20.1796
0.907177 1.24746 20.8482
0.409147 0.435838 21.6783
0.00747493 -0.378502 21.2827
-0.0777718 -0.588959 20.9284
-0.0232757 -0.465763 20.3064
0.520376 -0.21799 19.8256
1.22373 -0.695962 20.3612
0.4535 -0.408105 21.1364
-0.00824352 -0.177733 21.3194
-0.74596 0.292469 21.3739
-1.06136 0.362795 20.9198
-0.77446 0.191769 21.2226
0.603116 -0.162926 19.7483
1.6996 -0.557748 20.3324
0.561623 -0.454045 21.1912
0.00774976 -0.294029 21.4265
-1.09854 0.0723509 21.3062
-1.37108 -0.00642497 20.8935
-1.30552 -0.0606449 20.7371
0.70017 0.0445126 19.6836
1.78134 0.116201 20.3357
1.0051 -0.240749 21.0987
0.448542 -0.399994 21.5777
-0.826029 -0.781407 20.7462
-0.928525 -0.748772 20.598
-0.894337 -0.726389 19.8471
0.512263 0.339635 19.8908
0.84226 0.575375 20.3387
0.773789 0.404348 20.9125
0.376955 0.0770442 21.3472
-0.0594167 -0.352426 21.1866
-0.150896 -0.418695 20.9171
-0.112838 -0.304952 20.6986
-0.908518 -0.0852164 1.25379
-0.00115488 -0.0034616 0.0706204
-0.00132976 3.34624e-05 0.233932
-0.00530389 -0.00468029 -0.00276391
0.00911721 0.100803 0.573014
0.0137741 0.0099214 0.467423
-0.000126392 0.158941 0.436953
-0.190001 -0.0215461 0.732193
0.00272971 0.038364 -0.0912255
0 0 0
0.900971 -0.0847479 1.24095
0.00300039 2.3381e-05 0.264357
0.00841097 -0.00495601 -0.00475191
-0.0103141 0.0127315 0.538853
0.181393 -0.0222454 0.701423
0 0 0
0.0054339 -0.000906281 0.300465
0.00154515 -0.000511914 0.0508127
0 0 0
0 0 0
1.43507e-07 1.32354e-08 0.000144733
0 0 0
0 0 0
-1.57452e-05 -0.000184656 0.040737
-0.0065273 -0.000993736 0.337699
-0.00158954 -0.000540824 0.0509219
-4.54973e-19 -4.619e-18 -2.63851e-17
0 0 0
-4.05802e-06 -5.35277e-06 0.000168211
0.000301703 0.00216714 0.0459431
0 0 0
8.37161e-07 5.44709e-07 0.000275228
2.7135e-08 2.27901e-08 2.33543e-05
0 0 0
0.016345 -1.18332 2.13716
0.0018599 -0.0234029 -0.00759482
-7.52662e-05 0.00530009 0.0502863
3.82595e-05 0.0255875 0.0719211
-5.3677e-05 -0.000767911 0.0041028
2.38336e-06 -3.11862e-06 9.89258e-05
-0.000349983 0.00265546 0.0560921
0 0 0
-3.45736 -1.66143 20.0964
-2.84385 -5.98212 20.6557
-1.90071 -1.4344 17.8232
1.48292 0.803124 14.6291
0.169871 1.1898 8.57011
0.662808 0.694271 4.71041
-3.69903 0.604506 20.125
-2.6551 0.759992 17.0818
-2.08807 2.87528 20.0176
1.00494 -0.541053 11.1084
-0.318421 -0.645043 4.33288
-0.00126959 -0.699952 20.1422
2.93061 -5.81788 20.5503
1.89218 -1.39497 17.9115
3.45483 -1.66478 20.0966
-0.0511549 1.09968 8.03074
-0.469945 0.595196 3.83132
-1.48793 0.832299 14.5611
2.64582 0.722525 17.1854
2.09357 2.87005 20.0156
3.70839 0.608182 20.1163
0.521353 -0.636118 3.42771
0.057906 -0.693687 20.3968
-1.03913 -0.558947 11.4353
-0.284283 -0.550085 20.1757
-0.116043 -0.14736 14.7331
0.135914 -0.212873 18.9189
0.126624 -0.0108929 14.5592
-1.63621 -0.726409 20.9241
-1.97331 1.46565 20.7861
-0.538924 -0.341529 17.9396
-1.02008 0.49163 22.2028
0.108433 -0.144965 14.8936
0.282479 -0.549792 20.1596
-0.136161 -0.0106918 14.461
-0.133085 -0.217591 18.9718
1.96785 1.5342 20.7696
1.63664 -0.727634 20.9238
0.994206 0.550216 22.0426
0.558197 -0.36477 18.1176
-0.895776 -0.456085 19.897
-0.576678 -0.211987 19.7627
-0.573394 -0.38297 19.5617
-0.870406 -0.597964 21.0165
-1.45732 -0.644085 20.35
-1.84774 -1.69324 20.3339
-0.199133 -0.299332 21.223
-0.504566 -0.429328 21.1717
-0.342775 -0.50828 21.3539
0.319148 0.0128089 21.4601
0.00638313 -0.235488 21.3842
0.070445 -0.137873 21.2753
0.930782 0.345893 21.0875
0.921155 0.193832 21.3712
0.906142 0.771532 20.7475
1.16431 0.215395 20.3784
1.16769 0.178417 21.0686
1.21716 0.87523 20.0679
0.86058 0.0584448 21.1059
0.864936 0.48765 20.1986
-1.13921 -0.339134 19.7528
-0.672955 -0.101272 19.6723
-0.673462 -0.285779 19.4365
-1.11921 -0.539976 21.1217
-1.7993 -0.22628 20.3408
-0.277683 -0.409698 21.2954
-0.780367 -0.422978 21.1573
0.425827 -0.138595 21.5842
-0.172623 -0.448449 21.5441
1.28877 0.114219 20.7615
1.2275 -0.418846 20.9396
1.35544 -0.0672132 20.2722
1.34067 -0.451009 21.023
1.83328 0.692332 17.2967
1.03306 -0.624334 20.3054
1.50268 0.244822 17.8497
-1.30559 0.0974151 19.7487
-0.662973 0.258781 19.7491
-0.83027 0.0617254 19.2941
-1.36675 -0.0757214 20.9882
-1.32099 0.539608 20.3126
-0.839979 -0.395862 21.3495
-1.0223 0.168214 20.9851
0.173406 -0.535724 21.6285
-0.487609 -0.0799768 21.4673
0.844532 -0.802427 20.8707
0.222711 -0.535738 21.2891
0.747039 -0.550531 20.8681
0.340315 -0.632075 20.8665
1.20615 -1.02005 18.1216
0.210216 -0.374457 20.7029
0.901498 -0.962715 19.3182
-0.71495 0.505358 20.0336
-0.558115 0.511414 19.6999
-0.815775 0.49829 20.667
-0.999534 1.02411 20.2724
-0.615241 0.257376 21.1592
-0.908149 0.700839 20.912
-0.0819798 -0.168121 21.2505
-0.400923 0.179462 21.4504
0.171861 -0.399469 21.0328
0.0527832 -0.378639 21.2302
0.181379 -0.381481 20.7568
0.194272 -0.507701 20.975
0.11115 -0.376424 20.8033
-1.18276 -1.52814 18.9225
-0.546715 -0.491083 19.1941
0.0110595 -0.695717 18.9949
-0.573785 -1.24422 21.8329
-0.00527188 -3.84662 21.7441
-0.0909365 -0.229225 20.1552
-0.00916213 -0.337065 20.3936
0.244181 0.387831 18.7265
-0.00394473 -0.0398752 19.7394
0.551761 1.34596 16.8839
0.00234817 0.915271 16.0066
1.02643 1.22445 16.9445
1.21857 1.67199 12.8854
-0.0249809 1.40097 15.5068
1.34561 0.923417 13.85
0.174668 1.51953 16.2735
-0.744172 -0.187782 18.8517
0.0182383 -0.565981 18.5669
1.91643 1.07513 11.0201
2.0121 -0.220092 6.18984
-0.0578518 0.472584 1.40046
1.47131 -0.024304 12.0115
0.158639 1.12639 6.40705
-0.707432 0.599448 19.0477
0.0340266 0.19968 18.0522
0.968226 -0.886048 12.1261
0.195605 -0.939781 20.3185
0.0754537 0.459237 -3.27237
0.0389212 -0.788844 20.2261
-0.0237739 -0.597826 2.98936
-0.75858 1.26797 19.6345
0.0131147 0.957311 19.2451
-0.872472 1.28618 20.6266
0.00365186 2.09483 20.1077
-0.83293 1.00155 21.3686
-0.0324137 1.86809 20.7262
-0.107319 -0.142947 21.4919
-0.0465278 0.659006 21.8563
0.075419 -0.469555 21.0726
-0.00660066 -0.345862 21.3528
0.0955186 -0.458504 20.9055
0.0134157 -0.528196 21.0367
0.00154771 -0.296872 20.9277
1.19928 -1.45239 18.9628
0.56527 -0.467366 19.2268
0.574163 -0.372468 19.5789
0.612843 -1.23604 21.8977
1.80393 -1.60758 20.3286
0.0952116 -0.22163 20.1964
0.347956 -0.504537 21.3423
-0.222997 0.391583 18.4264
-0.0706278 -0.134042 21.279
-0.431878 1.36106 16.2111
-0.898532 0.863365 20.4533
-0.948328 1.36991 16.5517
-0.963259 1.64188 11.8455
-1.24982 1.08015 19.2689
-1.24798 1.11069 13.4353
-0.930612 0.608467 19.114
0.774276 -0.186636 18.8993
0.674922 -0.283166 19.4646
-2.02695 1.30582 8.87769
-1.92998 -0.0985799 4.22743
-1.87359 0.906751 16.4895
-1.41825 -0.00795245 9.66751
-1.57238 0.369641 16.6702
0.720494 0.586348 19.0744
0.827872 0.0566861 19.3289
-0.902999 -1.02607 9.09094
-0.0829944 -0.923337 20.6147
-1.32116 -1.0065 16.8558
-0.00326698 -0.829065 20.2074
-0.896617 -0.930202 18.9007
0.766403 1.25791 19.64
0.557142 0.494764 19.7093
0.863332 1.30998 20.6235
0.998812 1.02023 20.2725
0.806637 1.07972 21.3751
0.921457 0.740385 20.9096
0.119218 -0.125255 21.5107
0.41857 0.231351 21.4968
-0.0503657 -0.461257 21.0219
-0.0338654 -0.38802 21.2472
-0.151031 -0.466384 21.1697
-0.155409 -0.507421 20.9813
-0.0847566 -0.393686 20.6451
0.868662 -0.433597 19.9272
0.566301 -0.19875 19.7859
0.864169 -0.585006 21.0019
1.44242 -0.632247 20.3574
0.203804 -0.298362 21.223
0.50688 -0.42706 21.1686
-0.322623 0.0139264 21.4598
-0.00197084 -0.235232 21.3795
-0.955485 0.38444 21.0807
-0.935747 0.208557 21.3548
-1.22242 0.321766 20.3138
-1.21844 0.237104 21.053
-0.905212 0.101114 21.2872
1.12462 -0.328078 19.7733
0.662633 -0.0909904 19.6948
1.11815 -0.53934 21.123
1.80182 -0.230467 20.3433
0.279848 -0.407948 21.2929
0.780976 -0.42513 21.1617
-0.422866 -0.139201 21.5877
0.176373 -0.441218 21.5488
-1.33379 0.139217 20.6696
-1.22075 -0.423772 21.054
-1.4769 0.0306897 19.7241
-1.45871 -0.394107 20.6122
-1.16796 -0.693973 19.8122
1.28465 0.0902303 19.7673
0.655581 0.247501 19.7699
1.36803 -0.0736991 20.9901
1.32223 0.539065 20.3129
0.833205 -0.390534 21.3475
1.04136 0.182214 20.9887
-0.18027 -0.532839 21.6469
0.50739 -0.0713294 21.4953
-0.873171 -0.817496 20.6884
-0.217856 -0.57405 21.3083
-0.834459 -0.663257 20.5879
-0.330817 -0.696155 20.9355
-0.180968 -0.447482 20.6138
0.710119 0.497074 20.0375
0.822679 0.508575 20.6672
0.645186 0.292518 21.1784
0.0971322 -0.174014 21.3025
-0.14829 -0.419969 21.0225
-0.0936524 -0.34034 20.7231
-1.03461 -0.413442 19.8055
-1.51256 -1.60706 18.4094
-1.16029 -0.886302 19.4932
-1.6476 -0.719989 19.1011
-0.623395 -0.368016 19.5126
-2.54307 -1.80848 20.2263
-0.998786 -0.590007 21.0678
-0.417681 -0.555003 15.964
-0.877949 -0.992891 21.3898
-1.258 -1.06994 21.6186
-0.336526 -0.54675 21.2845
-0.228545 -0.349092 21.2565
0.00956294 -0.049252 14.2146
-0.107842 -0.31654 21.249
-0.0266755 -0.413255 19.4071
0.119005 -0.174608 20.8233
0.380738 -0.0422481 21.5356
0.280896 0.322687 11.6963
0.403558 0.208581 21.1215
0.538313 0.132741 17.3765
1.25129 0.883466 18.3738
1.13212 0.255543 21.0898
0.602421 1.29887 10.974
1.10114 0.870011 20.4274
1.64442 0.665716 15.4923
1.51991 0.91152 18.2154
1.38533 0.0878838 20.1891
1.49366 1.17597 13.0136
1.16856 0.754722 20.473
1.77325 0.403368 18.2494
1.13493 0.383238 18.6304
-1.27514 -0.166494 19.7314
-2.45847 -0.558856 17.1218
-1.96786 0.262102 18.992
-0.773354 -0.118171 19.3282
-4.07896 -0.536564 20.0322
-1.29726 -0.328105 21.0831
-2.12333 -0.2043 21.4783
-0.559427 -0.868403 19.7282
-0.509443 -0.506242 21.3727
-1.476 -0.954349 19.5351
0.0243955 -0.228921 16.9842
0.425789 -0.373526 21.4911
0.844562 0.338037 14.6634
1.28579 0.0714656 9.38018
1.31706 -0.420892 20.5715
0.162489 -0.296532 2.1949
1.03482 -0.7725 15.5435
2.1108 -0.345549 14.8671
1.02944 -0.417942 20.6972
1.73942 -0.00944821 9.14776
1.11657 -1.07102 19.2212
1.33423 -0.381328 16.8467
-1.04392 0.444878 19.8812
-1.51969 1.69156 18.763
-0.82603 0.836585 19.8492
-0.736628 0.396921 19.4564
-1.90768 1.27128 20.2075
-1.17448 0.344622 20.784
-1.80157 1.66631 20.8482
-0.96238 0.841528 20.6586
-1.54598 0.503335 20.9805
-0.878446 0.0686828 21.2663
-2.27205 1.52833 21.6595
-0.76734 0.534275 21.2545
-0.753557 0.0708014 21.7936
-0.0500038 -0.319629 21.4754
-0.1904 -0.421962 21.4451
-0.106478 -0.166055 21.3826
0.0970546 -0.72242 21.3384
0.357792 -0.652868 21.1181
0.0351093 -0.827278 20.6665
0.121006 -0.462118 21.0885
0.365502 -0.834736 21.1542
0.461809 -0.530984 20.746
0.0879887 -0.871091 20.3892
0.0894836 -0.39198 20.7583
0.123636 -0.579296 20.4679
1.50574 -1.5236 18.4945
0.0309555 -2.48775 18.2743
0.0484689 -2.85462 15.8243
0.0191033 -0.666426 18.8361
-0.0657947 -3.67336 22.0111
0.417642 -0.555776 16.384
-0.0247207 -0.902336 21.7375
0.00476784 -0.0546987 13.1654
-0.0167892 -0.043665 14.2584
-0.00578207 -0.164973 19.765
0.00467516 -0.0019239 12.6585
-0.26471 0.329198 11.4109
0.00352081 0.34258 17.7391
0.0144327 0.629746 7.29747
-0.379989 1.1958 9.91578
-0.00689261 0.93001 15.5013
-0.0563648 -0.595296 0.518627
-0.0268877 1.05054 7.7659
-1.41608 1.34283 12.6485
0.039628 1.43705 14.7645
0.00659726 0.779382 2.34625
0.170636 1.36035 11.9695
2.43256 -0.539179 17.2423
0.0637924 2.5588 13.8369
0.0273451 -0.262359 18.2206
-0.138849 -0.186882 1.68385
-0.0750846 1.14673 -4.43058
0.253839 0.147205 -3.98626
-1.69362 0.160638 7.54489
-0.0135104 -0.472469 0.0614536
0.168775 0.0684703 3.35007
1.52781 1.65784 18.783
0.00746653 1.72332 19.4273
0.0164894 0.894269 18.5393
0.00370596 3.9566 19.9791
1.79552 1.69551 20.8494
-0.0105579 1.80446 20.5258
-0.0302098 2.90585 20.061
2.33772 1.70462 21.6057
-0.0569546 1.77079 21.4998
-0.0388147 1.10933 22.0611
0.128021 -0.40828 20.892
-0.0181352 -0.081663 21.5821
-0.00700089 -0.429107 18.4199
0.0171726 -0.812252 20.4849
0.0011926 -0.435849 21.0494
0.0135364 -0.816137 19.1024
-0.0588262 -0.904082 20.3704
-0.0099735 -0.477977 20.7279
0.00969146 -0.696206 19.7489
1.01224 -0.395033 19.8335
1.14861 -0.853479 19.5153
1.62151 -0.702419 19.1384
0.622118 -0.353708 19.532
2.49985 -1.75903 20.2313
0.997085 -0.582229 21.0637
0.885812 -0.969495 21.3613
1.2566 -1.06786 21.6138
0.343331 -0.548666 21.3207
0.230324 -0.348874 21.2564
0.108619 -0.314829 21.2536
0.027758 -0.414384 19.4257
-0.118147 -0.174379 20.795
-0.381217 -0.0423556 21.5398
-0.405116 0.232142 21.0868
-0.53954 0.131504 17.4298
-1.24944 0.960096 17.952
-1.16601 0.289632 21.0582
-1.08357 1.00368 19.9176
-1.65897 0.764673 14.6197
-1.54491 1.12485 17.4032
-1.51976 0.151132 19.9229
-1.18655 0.904486 19.031
-1.80608 0.564591 16.5819
-1.20052 0.506973 17.4833
1.25693 -0.168244 19.7565
1.94872 0.25014 19.0336
0.772657 -0.115425 19.3622
4.07955 -0.542568 20.0304
1.29912 -0.329906 21.0869
2.12395 -0.205411 21.4827
0.558379 -0.869328 19.7222
0.508321 -0.50137 21.3709
1.47516 -0.95277 19.6121
-0.0178175 -0.252337 17.1799
-0.42349 -0.368773 21.5257
-0.833006 0.307817 14.9223
-1.29347 0.0581871 9.42138
-1.36526 -0.41541 20.4545
-1.03184 -0.753182 14.587
-2.30447 -0.354113 13.4326
-1.13857 -0.35137 20.2102
-1.09876 -0.958719 17.8424
-1.41221 -0.254646 15.6477
1.03388 0.433634 19.8914
0.824595 0.822488 19.8552
0.728223 0.375757 19.4796
1.90938 1.26828 20.2022
1.18483 0.350889 20.7872
0.963812 0.858252 20.6582
1.58081 0.540474 20.973
0.906798 0.0811417 21.2775
0.79269 0.597624 21.2811
0.7924 0.091671 21.8494
0.0539596 -0.332578 21.5041
0.122301 -0.162345 21.4103
-0.0681012 -0.752155 21.3419
-0.344254 -0.687791 21.1283
-0.101709 -0.473033 21.0885
-0.334536 -0.894705 20.6996
-0.44907 -0.568546 20.7339
-0.0667354 -0.434952 20.6982
-0.0895641 -0.661053 20.3813
-1.3609 -0.848032 19.3418
-1.05258 -1.05396 21.5928
-0.0732971 -0.361034 20.947
0.526206 0.19855 19.7173
1.44346 0.892674 18.6284
1.43785 0.563462 19.2451
-1.91804 -0.255696 18.9491
-1.7264 -0.779879 21.813
-0.204132 -0.795866 18.2152
0.433829 0.466434 14.6001
1.59619 -0.0628118 13.1739
1.49963 -0.280371 15.5373
-1.4084 0.891185 19.4544
-1.60809 0.765399 20.8661
-1.45397 0.385326 21.4649
-0.134835 -0.391682 21.7057
0.218545 -0.798871 21.1013
0.262462 -0.822062 20.8389
0.0447647 -2.83704 17.2765
0.000275865 -0.210563 14.1975
0.00362951 -0.0181617 12.5814
0.00926985 0.248882 9.9712
0.00161782 0.2662 7.11586
0.0290266 0.974575 8.26892
0.0612971 -0.856638 14.2827
0.00488277 0.0252431 -3.84504
0.232877 0.667803 1.02146
0.0187249 2.82012 18.0321
-0.008802 2.6995 20.7176
-0.0652546 3.8935 21.3824
-0.0108912 -0.279907 20.4173
-0.02181 -0.447011 18.6084
0.0125835 -0.665678 18.9484
1.34267 -0.823384 19.3912
1.05698 -1.0399 21.5683
0.075474 -0.362034 20.9725
-0.531105 0.212164 19.6029
-1.43101 1.00727 18.1822
-1.46648 0.722119 17.5959
1.89343 -0.2555 18.9956
1.72506 -0.781265 21.8177
0.210157 -0.798201 18.2987
-0.443029 0.455257 14.8002
-1.59015 -0.0287974 12.0715
-1.62468 -0.263221 14.0428
1.40009 0.863365 19.4691
1.61672 0.782949 20.8649
1.51929 0.437628 21.4779
0.152123 -0.403468 21.6958
-0.178838 -0.839744 21.1839
-0.187953 -0.83417 20.6253
-0.410222 -0.166049 0.537059
-0.0132776 -0.0176743 0.150077
-0.0834563 0.0115646 0.718145
-0.00178198 -0.0162834 0.00183742
0 0 0
0.00174457 0.103545 0.547073
-0.244054 0.0288782 0.348721
0.0115428 0.202237 0.365609
-0.28452 0.144128 1.23501
-0.0567411 -0.00298773 -0.0371743
-0.0491358 0.00998431 -0.0280926
-0.00412231 -0.00336953 0.0133465
0.0135407 -0.0343975 0.206748
0.438289 -0.175431 0.568431
0.0827028 0.0106457 0.712679
0.00654048 0.00441112 0.0142091
0.000468329 -0.00730113 0.00180873
-0.0014822 0.111713 0.632625
-0.00868745 0.140193 0.253348
0.250721 0.0297973 0.357479
0.258564 0.147254 1.1493
0.0512063 0.00861619 -0.025922
0.0139066 -0.00112875 -0.00949637
0.00489686 -0.0037246 0.014052
0.00799886 -0.00438735 0.208677
0.00254635 0.000395622 0.184376
0.0131689 -0.0114832 0.262605
0 0 0
0.0112017 0.00309748 0.320318
-0.00288853 -0.00204844 0.302454
-0.00487367 -0.000626451 0.221388
0 0 0
-0.190464 -0.0408896 0.644759
-0.00616715 -0.100382 0.768615
0 0 0
0 0 0
0 0 0
0.0137912 0.105935 0.428843
0 0 0
0.00346635 -0.00132149 0.0415706
-0.00905862 -0.0041328 0.222531
0 0 0
-0.00243931 0.00048563 0.152012
-0.011863 -0.0117153 0.246916
-0.0150978 0.00639871 0.454069
0 0 0
0.00257812 -0.00153381 0.314249
0.00517791 -0.000599824 0.213772
0.203981 -0.0433096 0.689992
0 0 0
0.00838907 -0.10482 0.838181
0 0 0
0 0 0
-0.00354476 -0.00132527 0.0406739
-0.0142389 0.108616 0.435838
0 0 0
-0.000253656 -0.000907715 0.00805099
0 0 0
4.04309e-07 -3.12822e-06 0.000433072
0.0225529 -1.64567 0.790821
-0.00252049 -0.00138677 0.0816162
-9.3756e-06 -5.31758e-07 0.00013164
0.00954476 -0.00221534 0.0348355
0 0 0
-1.93934e-05 0.00109487 0.00905711
0.00143361 -0.0459702 -0.00961665
0 0 0
0 0 0
0 0 0
8.63224e-05 0.00472037 0.0286487
0 0 0
0 0 0
0 0 0
0 0 0
0.00308287 0.00270426 0.0311172
0.000453105 -0.000613953 0.00242203
0 0 0
0.000298261 -0.00106871 0.00951567
0.00042642 -4.8777e-06 0.00455164
0.00330451 -0.00182198 0.106996
0 0 0
0 0 0
0 0 0
0 0 0
0 0 0
0 0 0
-0.000338879 -0.000630252 0.00240451
-0.00361522 0.00307254 0.0368921
0.000957177 0.00325721 0.210135
-2.27517e-07 -5.4728e-08 0.000138971
0.0244113 -0.00205593 0.459485
0.000249163 -0.000324942 0.0217619
1.17515e-06 1.54723e-06 0.00047555
1.36508e-07 1.82294e-07 0.000107045
0 0 0
-0.00572983 0.0118874 0.151944
0 0 0
1.86181e-07 2.89409e-06 0.000154846
8.04738e-06 0.00741283 0.0846744
-0.0106794 0.0140084 0.0468924
2.29588e-05 9.60274e-05 0.00106346
0.00034152 0.0456297 0.121719
-0.000185138 0.0138685 0.107099
7.06824e-05 -0.00402934 0.0294655
0 0 0
-0.00116591 0.0037978 0.243623
-0.0242181 -0.00204033 0.456729
-0.000277934 -0.000377692 0.02486
0 0 0
0.00244684 0.00466823 0.05658
0.0135657 0.0178163 0.0595106
-1.43966e-05 0.0075915 0.0865536
-0.0109234 -0.0152419 0.353599
0 0 0
0.000108654 2.2914e-05 0.0273299
-1.00797e-17 1.781e-17 -1.41653e-16
0.00455405 -0.0110106 0.40534
9.5902e-06 -0.0110571 0.176026
-0.00112523 0.01451 0.389221
0.00489029 0.0289359 0.170638
-0.00401017 0.000758852 0.104129
0.000447784 0.00815903 0.0342097
0.0242163 0.010636 0.122865
0 0 0
1.11546e-05 1.94612e-06 -0.000109683
0.00186277 1.18775e-05 0.00943784
-6.06692e-06 5.62025e-08 0.00019457
0.000243489 -2.42021e-05 0.00539163