# vtk DataFile Version 2.0
tri_press
ASCII
DATASET UNSTRUCTURED_GRID
POINTS 3682 float
-0.731101 0.195 -1.995
-0.675 0.225 1.98883
-0.805 0.635 -1.86912
-0.620322 0.905 1.895
0.731096 0.195 -1.995
0.675 0.225 1.98883
0.805 0.635 -1.86912
0.620318 0.905 1.895
-0.765444 0.151957 -0.667057
-0.757666 0.151034 0.660887
-0.834499 0.816058 -0.614413
-0.760661 0.893779 0.640293
0.765445 0.151952 -0.667057
0.757666 0.151032 0.660887
0.834504 0.816065 -0.614413
0.760448 0.893569 0.640293
-1.50633 -0.172512 -3.04936
-1.51298 -0.127078 -2.01634
-1.52449 -0.158547 -0.6865
-1.49095 -0.180496 0.658076
-1.42193 -0.136402 1.98915
-1.40893 -0.0939039 3.02826
-1.42126 -0.0548726 4.05611
-1.51344 0.111733 -3.01275
-1.52476 0.18157 -1.98773
-1.54041 0.173827 -0.67214
-1.48633 0.165751 0.650039
-1.38508 0.211441 1.96703
-1.38549 0.253049 3.0051
-1.4103 0.290934 4.03533
-1.54667 0.634616 -2.91897
-1.58246 0.701549 -1.89092
-1.59255 0.826424 -0.625261
-1.4943 0.884994 0.635211
-1.35811 0.907557 1.90227
-1.37329 0.945519 2.94337
-1.41019 0.983609 3.98542
-1.5609 1.54968 -2.83337
-1.57702 1.63546 -1.81629
-1.57831 1.7815 -0.574373
-1.54315 1.89801 0.651757
-1.4931 1.9585 1.89444
-1.47187 1.99121 2.91312
-1.47125 2.02337 3.94717
-0.735235 -0.165693 -3.05408
-0.738728 -0.116454 -2.02323
-0.758333 -0.168523 -0.685576
-0.756068 -0.192033 0.667334
-0.714677 -0.132478 2.00534
-0.705605 -0.0912248 3.03924
-0.714046 -0.0543583 4.06246
-0.734423 0.110727 -3.0142
-0.690459 0.257033 3.01416
-0.707938 0.291904 4.04013
-0.759621 0.607001 -2.90992
-0.679641 0.94594 2.94192
-0.710035 0.984035 3.98511
-0.777792 1.52998 -2.82442
-0.792908 1.61647 -1.80642
-0.805311 1.77595 -0.568426
-0.797299 1.90216 0.651043
-0.772593 1.9621 1.88934
-0.758047 1.99312 2.90803
-0.756687 2.02451 3.94347
0.780262 -0.1657 -3.05408
0.756033 -0.116459 -2.02323
0.765351 -0.168533 -0.685576
0.743405 -0.192043 0.667334
0.687367 -0.132486 2.00534
0.684652 -0.0912384 3.03924
0.690175 -0.0543796 4.06246
0.785507 0.110722 -3.0142
0.671845 0.257023 3.01415
0.682359 0.291883 4.04013
0.807872 0.606996 -2.90992
0.651533 0.945923 2.94192
0.670482 0.984008 3.98511
0.793861 1.52996 -2.82442
0.787042 1.61645 -1.80642
0.761032 1.7759 -0.568426
0.710162 1.90208 0.651043
0.667448 1.96204 1.88934
0.661187 1.99307 2.90803
0.665309 2.02447 3.94347
1.54429 -0.172532 -3.04936
1.52496 -0.127095 -2.01634
1.53042 -0.158586 -0.6865
1.49319 -0.180547 0.658076
1.41797 -0.136433 1.98915
1.39947 -0.0939406 3.02826
1.4035 -0.0549204 4.05611
1.55029 0.111718 -3.01275
1.52555 0.18156 -1.98773
1.54177 0.173783 -0.67214
1.49743 0.165674 0.650039
1.39803 0.211416 1.96703
1.38094 0.253015 3.0051
1.39148 0.290886 4.03534
1.5796 0.6346 -2.91897
1.58084 0.701539 -1.89092
1.58976 0.826364 -0.625261
1.49933 0.884787 0.63521
1.36434 0.907491 1.90227
1.35742 0.945468 2.94337
1.37695 0.98355 3.98542
1.57332 1.54964 -2.83337
1.56796 1.63541 -1.81629
1.53749 1.7814 -0.574374
1.46994 1.89787 0.651757
1.4045 1.95837 1.89444
1.38501 1.99111 2.91312
1.38519 2.02328 3.94717
-0.792906 0.415 -1.95692
-2.47359e-06 0.159165 -2.03084
-0.776915 0.144836 -1.33103
-0.697988 0.565 1.99224
0 0.227714 1.98612
-0.758225 0.146125 1.32486
0 0.725805 -1.95992
-0.854232 0.760012 -1.24177
-1.99676e-06 0.976015 1.96601
-0.721821 0.930719 1.26765
0.792908 0.415 -1.95692
0.776911 0.144835 -1.33103
0.697988 0.565 1.99224
0.758281 0.146069 1.32486
0.854249 0.760029 -1.24177
0.721285 0.930187 1.26765
-0.762132 0.150919 -0.00308502
-0.880012 0.484008 -0.640735
5.42574e-07 0.13124 -0.667057
-0.877531 0.522407 0.65059
2.36745e-08 0.136809 0.660887
-0.803975 0.861314 0.01294
2.5165e-06 1.07158 -0.614413
-0.000106335 1.27038 0.640293
0.762131 0.150917 -0.00308502
0.880011 0.484008 -0.640735
0.877553 0.522301 0.65059
0.80397 0.861311 0.01294
-0.897715 0.449504 -1.2864
0.897714 0.449504 -1.2864
-9.65509e-07 0.133824 -1.33103
1.25825e-06 0.884609 -1.24177
-1.2368e-06 0.415 -2.21216
-0.880842 0.503207 0.00492749
0.88084 0.503155 0.00492749
2.83124e-07 0.134077 -0.00308502
-5.19091e-05 1.28825 0.01294
-0.88709 0.543703 1.29625
0.88709 0.54365 1.29625
1.18372e-08 0.136241 1.32486
-5.41658e-05 1.13105 1.26765
-9.98378e-07 0.565 2.18696
-0.765983 0.305 -1.97994
-0.365552 0.159481 -2.03052
-0.779225 0.144701 -1.66301
-0.690996 0.395 1.99504
-0.3375 0.234017 1.97981
-0.745561 0.156614 1.65684
-0.807896 0.525 -1.92196
-0.4025 0.711743 -1.94586
-0.858607 0.726497 -1.55544
-0.666276 0.735 1.95074
-0.310162 0.961279 1.95128
-0.675911 0.922699 1.58132
0.365547 0.159469 -2.03053
0.766008 0.305 -1.97997
0.779221 0.144701 -1.66301
0.3375 0.235837 1.97799
0.690988 0.395 1.99503
0.745551 0.156624 1.65684
0.4025 0.71166 -1.94578
0.807907 0.525 -1.92197
0.85862 0.72651 -1.55544
0.310158 0.960663 1.95066
0.666234 0.735 1.9507
0.675778 0.922569 1.58132
-0.782257 0.137318 -0.999043
-0.764605 0.15062 -0.335071
-0.848223 0.305235 -0.653896
-0.379247 0.148548 -0.667057
-0.761952 0.144573 0.992873
-0.759852 0.151023 0.328901
-0.857482 0.316779 0.655738
-0.37614 0.149308 0.660887
-0.845188 0.788857 -0.92809
-0.871827 0.657318 -0.627574
-0.819841 0.83929 -0.300737
-0.460286 1.02989 -0.614413
-0.74505 0.916059 0.95397
-0.858537 0.727814 0.645442
-0.787214 0.882442 0.326617
-0.461241 1.24379 0.640293
0.789186 0.130386 -0.999043
0.378606 0.14983 -0.667057
0.764602 0.150621 -0.335071
0.848224 0.305232 -0.653896
0.761694 0.14483 0.992873
0.374722 0.152143 0.660887
0.759852 0.151021 0.328901
0.8575 0.316721 0.655738
0.84519 0.78886 -0.92809
0.460287 1.02989 -0.614413
0.871844 0.65733 -0.627574
0.819841 0.839292 -0.300737
0.74554 0.916552 0.95397
0.461088 1.24381 0.640293
0.858535 0.727702 0.645442
0.787213 0.882444 0.326617
-0.896275 0.432252 -1.62166
-0.396453 0.415 -2.14633
-1.71955e-06 0.143322 -1.68093
-1.85519e-06 0.287082 -2.13086
-0.897389 0.29717 -1.30871
-0.388458 0.142608 -1.33103
-0.865141 0.554352 1.64425
-0.348995 0.565 2.14551
5.91862e-09 0.16306 1.65549
-4.99189e-07 0.396357 2.14428
-0.874471 0.344914 1.31056
-0.379113 0.142032 1.32486
6.29125e-07 0.833202 -1.60085
-6.18398e-07 0.570402 -2.09713
-0.895482 0.604758 -1.26408
-0.427115 0.874301 -1.24177
-2.80813e-05 1.02678 1.61683
-1.49757e-06 0.770507 2.10631
-0.867868 0.737211 1.28195
-0.360937 1.10895 1.26765
0.896274 0.432252 -1.62166
0.396454 0.415 -2.14643
0.897389 0.29717 -1.30871
0.388455 0.143437 -1.33103
0.865119 0.554325 1.64425
0.348994 0.565 2.1455
0.874467 0.34486 1.31056
0.37914 0.143535 1.32486
0.895482 0.604767 -1.26408
0.427125 0.874307 -1.24177
0.868045 0.736919 1.28195
0.360616 1.10898 1.26765
-0.845028 0.315292 0.000921234
-0.377539 0.149551 -0.00308502
-0.887857 0.466756 -0.963566
-0.881194 0.493607 -0.317904
-2.11468e-07 0.104019 -0.999043
4.12849e-07 0.131941 -0.335071
-0.88056 0.512807 0.327759
-0.886294 0.533055 0.973421
1.53399e-07 0.135513 0.328901
1.77559e-08 0.129933 0.992873
-0.867549 0.694831 0.00893374
-0.493868 1.25849 0.01294
1.88738e-06 0.897504 -0.92809
-2.46963e-05 1.21604 -0.300737
-7.9122e-05 1.29635 0.326617
-8.02503e-05 1.20815 0.95397
0.845017 0.31527 0.000921234
0.376253 0.152123 -0.00308502
0.887784 0.466756 -0.963566
0.881193 0.493582 -0.317904
0.880559 0.512728 0.327759
0.886291 0.532976 0.973421
0.86755 0.694805 0.00893374
0.49381 1.25848 0.01294
-0.897028 0.301085 -1.64234
-0.888496 0.307576 -0.981304
-0.878557 0.627395 -0.945828
-0.895623 0.564879 -1.58855
0.897027 0.301085 -1.64234
0.895623 0.564883 -1.58855
0.878549 0.627402 -0.945828
0.888491 0.307575 -0.981304
-0.377005 0.14271 -1.67197
0.377001 0.14343 -1.67197
0.385589 0.117809 -0.999043
-0.38559 0.116924 -0.999043
-0.414808 0.822587 -1.57814
-0.422182 0.911216 -0.92809
0.422189 0.868293 -0.92809
0.414812 0.82256 -1.57814
-0.381003 0.296041 -2.06775
-0.399477 0.547701 -2.09487
0.399477 0.547701 -2.09488
0.381 0.296041 -2.06783
-0.848218 0.309467 -0.326487
-0.841972 0.320677 0.32833
-0.865668 0.712635 0.327188
-0.869831 0.676146 -0.30932
0.848207 0.309458 -0.326487
0.869809 0.676123 -0.30932
0.865663 0.712564 0.327188
0.841967 0.320641 0.32833
-0.37873 0.148375 -0.335071
0.378082 0.149671 -0.335071
0.375474 0.15216 0.328901
-0.376825 0.149459 0.328901
-0.494244 1.17853 -0.300737
-0.487544 1.27112 0.326617
0.487443 1.27113 0.326617
0.494297 1.17868 -0.300737
-0.879589 0.340817 0.983147
-0.863324 0.369957 1.65055
-0.812639 0.736106 1.61279
-0.85611 0.722652 0.963696
0.879581 0.340763 0.983147
0.856167 0.722427 0.963696
0.812629 0.735959 1.61279
0.863271 0.36993 1.65055
-0.378973 0.135709 0.992873
0.378987 0.137972 0.992873
0.35832 0.174602 1.65617
-0.358306 0.174472 1.65617
-0.37066 1.18799 0.95397
-0.33555 1.01317 1.59908
0.335387 1.01318 1.59908
0.370393 1.18801 0.95397
-0.343247 0.395679 2.16649
0.343247 0.395679 2.16677
0.329576 0.752754 2.07028
-0.329578 0.752754 2.07064
-0.747847 0.25 -1.98677
-0.548326 0.15532 -2.03468
-0.780294 0.14472 -1.82901
-0.688004 0.31 1.99694
-0.50625 0.238189 1.97564
-0.719792 0.181295 1.82284
-0.810479 0.58 -1.89957
-0.60375 0.681764 -1.91588
-0.838468 0.687413 -1.71228
-0.642878 0.82 1.92245
-0.465242 0.940578 1.93058
-0.651379 0.917112 1.73816
0.548321 0.155205 -2.03479
0.747778 0.25 -1.98671
0.780289 0.14472 -1.82901
0.50625 0.230128 1.9837
0.687994 0.31 1.99693
0.720026 0.181062 1.82284
0.60375 0.681682 -1.9158
0.810635 0.58 -1.89973
0.838477 0.687422 -1.71228
0.465238 0.940479 1.93048
0.642802 0.82 1.92238
0.651424 0.917161 1.73816
-0.766118 0.15237 -0.83305
-0.765787 0.150526 -0.501064
-0.855333 0.204346 -0.660476
-0.571706 0.151532 -0.667057
-0.756489 0.151124 0.82688
-0.758758 0.151029 0.494894
-0.849648 0.212869 0.658313
-0.56564 0.152697 0.660887
-0.840121 0.802736 -0.771252
-0.856948 0.738581 -0.620994
-0.827119 0.827623 -0.457575
-0.69232 1.01283 -0.614413
-0.751362 0.903425 0.797132
-0.830234 0.821114 0.642868
-0.778831 0.893004 0.483455
-0.640347 1.12758 0.640293
0.766113 0.152372 -0.83305
0.571702 0.151538 -0.667057
0.765783 0.150527 -0.501064
0.855325 0.204347 -0.660476
0.756483 0.151129 0.82688
0.56564 0.152696 0.660887
0.758759 0.151027 0.494894
0.849657 0.21284 0.658313
[...]
POINT_DATA 3682
SCALARS point_scalars float 1
LOOKUP_TABLE default
-73.681
-38.2453
-57.2418
-35.3568
-73.2787
-39.6708
-56.9573
-36.417
-36.29
-32.012
-55.1751
-50.3053
-36.1997
-32.1105
-55.2808
-50.4482
-41.7779
-99.1498
-37.0263
-30.796
-47.8326
-34.3422
-31.833
-19.5517
-98.2658
-35.8001
-30.6129
-49.2695
-32.5306
-31.7899
-12.8604
-108.164
-49.5208
-43.302
-43.2317
-32.3399
-31.86
-44.4889
-70.5235
-90.0229
-65.1496
-43.1527
-34.5385
-32.6791
-11.3584
-125.605
-36.6862
-32.498
-40.3809
-31.5177
-31.1266
108.959
-31.1867
-30.3789
164.153
-31.1322
-30.0175
21.3165
-56.0813
-68.9638
-63.1424
-37.456
-31.6707
-30.9761
-10.978
-121.535
-36.649
-32.608
-41.6642
-32.5447
-32.5447
108.82
-32.6289
-30.8898
158.809
-32.1005
-31.1864
8.88633
-56.3452
-69.1484
-65.7501
-30.9308
-45.5693
-45.5693
-59.0526
-99.2935
-36.9265
-30.4664
-49.0304
-35.4495
-33.0882
-15.1044
-98.1972
-35.841
-30.6898
-50.4657
-33.7332
-32.9483
-12.8491
-108.13
-49.6196
-43.4708
-31.3845
-44.3854
-44.9728
-44.2676
-70.5457
-87.7098
-65.3079
-30.9308
-45.5693
-45.5693
-13.2704
-130.1
-52.9324
-34.2551
-33.3635
-41.919
-41.1693
-54.5853
-32.3494
-47.8658
-13.4071
-48.9078
-35.5114
-42.076
-54.6617
-48.2255
-32.51
-38.522
-39.6479
-36.5894
-33.8209
-54.6989
10.171
-67.8732
-32.5085
-38.6411
-36.7595
-54.8015
-59.3226
-59.4968
-53.9433
-20.1174
208.887
-38.578
-38.6661
-33.226
-100.155
-44.4334
-44.9638
-41.846
-43.4611
-22.7291
2.0025
-149.263
-84.7951
-34.7287
-34.7401
-47.2265
-33.4663
-22.0028
-71.2259
-34.1195
-32.3164
-41.2317
-149.694
1.6157
-84.2637
-35.9123
-35.9661
-48.039
-22.7011
-30.3181
-71.25
-32.8235
-35.4377
-41.6523
-50.4841
-33.6721
-36.261
-38.5612
-39.1889
-31.8577
-32.1676
-33.3988
-45.0816
-44.2284
-55.7758
2.82695
-47.5166
-42.4755
-51.9792
-64.4563
-52.6644
-38.8596
-33.6276
-36.3777
-40.0835
-33.3911
-31.8976
-32.3316
-45.2626
2.69905
-44.3373
-55.8868
-47.881
-64.5569
-42.6546
-52.0775
-93.612
181.212
-76.679
178.75
-59.2188
-51.4809
-50.657
-29.6317
-42.121
-26.1318
-43.4403
-41.7788
-41.5791
143.746
-58.8129
-26.9087
-36.9099
-27.468
-48.2495
-43.9501
-93.5239
181.231
-59.3765
-51.8662
-51.7515
-31.4061
-43.9674
-42.0058
-58.9616
-26.9365
-48.7289
-44.0281
-34.8875
-32.9229
-45.8571
-39.2189
-52.2021
-35.5267
-38.3206
-39.6479
-33.0566
-38.8477
-44.9033
-89.7956
3.96953
-55.502
-85.4469
-53.1885
-34.9487
-32.9095
-46.1342
-39.2807
-38.4377
-40.0296
-45.0352
-89.8751
-97.2927
-47.8847
-45.4556
-89.4728
-97.0717
-89.4708
-45.6401
-48.3598
-78.1349
-78.0801
-52.4318
-52.1655
-44.3866
-3.5167
-4.01471
-44.4026
165.193
116.88
116.698
165.388
-35.539
-33.5992
-42.9794
-45.7956
-35.5537
-45.8877
-43.415
-33.7139
-34.7273
-34.911
-32.7858
-32.7744
-52.0745
-78.1065
-78.1962
-52.2474
-40.9679
-52.8403
-46.5741
-41.7815
-41.2839
-42.0595
-47.45
-53.9723
-39.1256
-39.1273
-43.7874
-43.3715
-52.85
-37.5366
-37.7469
-52.9302
-28.8957
-30.7654
-31.4847
-30.1403
-18.7399
-146.631
-113.694
-35.8646
-35.8162
-43.4409
-38.4715
-19.2521
-70.4127
-34.8355
-32.9262
-38.3053
-148.307
-18.7058
-113.381
-37.454
-37.1477
-44.6359
-19.3119
-38.4964
-70.5063
-33.7201
-36.1512
-38.9796
-39.3775
-34.7166
-35.7089
-37.5642
-33.4962
-31.6529
-30.506
-32.974
-49.189
-48.8197
-57.2664
-38.3381
-48.2731
-47.203
-52.0726
-57.1107
-39.7131
-37.6526
-34.6477
-35.6976
-33.7927
-33.0728
-31.7195
-30.5958
-49.3127
-39.3824
-48.9307
-57.3768
-48.5338
-57.2304
-47.3561
-52.2031
-7.49859
-23.3851
-114.835
147.348
-139.565
-140.381
-96.6904
46.3751
-64.3851
-52.6672
-58.1264
-50.674
-34.3174
-34.0109
-41.2473
-31.3389
-33.5098
-34.2343
-38.9286
-26.1588
-45.6481
-40.1309
-42.6102
-42.0322
-39.0527
-39.0904
-49.6312
83.428
-66.8638
-47.1294
-59.4529
-34.6433
-32.205
-32.4585
-34.8365
-28.7477
-45.5867
-48.2855
-47.4789
-45.6147
-7.62354
-23.3708
-114.777
147.327
-63.3167
-56.0443
-58.0483
-50.4256
-35.5596
-35.2706
-42.4763
-32.3855
-46.2772
-40.6246
-43.1064
-42.2254
-67.0074
-47.189
-59.5794
-34.5861
-45.612
-48.5714
-47.8808
-45.7705
-32.9162
-32.2651
-33.8831
-32.6646
-36.8463
-40.7053
-40.2966
-39.4155
-39.1352
-39.2752
-45.5149
-36.831
-34.6766
-39.425
-37.1866
-37.7548
-33.7853
-33.7706
-33.4205
-34.7543
-55.2337
-53.2799
-49.4419
-68.9675
9.28071
9.37084
15.718
-17.1198
-67.17
-67.2163
-76.3307
-60.0519
-32.8944
-32.2846
-33.9221
-32.6643
-36.9676
-40.8165
-40.4679
-39.4866
-34.8506
-39.5919
-37.2998
-37.9343
-55.3471
-53.4053
-49.5831
-69.0471
-71.6645
-59.4046
-58.8583
-50.9965
-71.6748
-59.5837
-59.0222
-51.282
-63.3057
-52.7719
-53.1339
-51.6795
-32.32
-22.3134
-22.3831
-7.62839
202.889
182.584
156.734
202.832
-36.5115
-38.9
-38.2635
-41.2362
-36.5821
-38.9701
-38.3711
-41.3449
-33.1352
-33.5668
-33.0072
-33.1149
-98.4728
-93.3596
-93.4065
-98.5188
-48.1853
-44.0298
-45.5613
-43.3271
-48.9729
-44.5684
-46.0555
-43.7369
-43.531
-41.6456
-41.789
-41.0528
-39.8751
-43.553
-43.6142
-47.8617
-25.006
-21.9863
-26.5647
-27.5341
-98.1048
148.335
-97.097
102.716
-98.7947
-78.6437
-42.049
-31.3913
-39.9262
-30.1841
-52.8282
-44.5128
-110.493
101.244
-49.4991
56.8425
-88.5413
-53.3126
-40.7637
-31.3271
-34.9194
-30.6173
-45.246
-38.5529
-97.3613
102.546
-98.0066
148.614
-98.4615
-78.2783
-40.804
-31.7534
-43.2854
-32.4997
-53.84
-45.2011
-49.5129
56.8324
-110.491
102.061
-88.5583
-53.3326
-35.2446
-31.6093
-41.861
-32.3979
-45.9227
-38.8735
-50.8704
-51.8979
-34.6308
-34.1392
-40.7774
-35.864
-43.639
-36.0206
-40.7493
-39.1029
-32.3781
-32.4498
-32.562
-36.102
-33.0208
-33.5258
-46.8851
-13.2682
-42.9931
-45.6338
-50.1627
-84.9165
6.71569
-20.7262
-45.0315
-53.5227
-43.11
-41.9544
-48.9318
-61.447
-70.4229
-58.878
-51.5357
-53.1523
-44.1445
-36.1674
-34.6031
-34.1744
-40.9826
-35.8912
-40.9707
-39.1354
-33.042
-33.6305
-32.5076
-32.4743
-32.5847
-36.4014
-47.0695
-14.3056
6.56648
-20.6025
-43.1366
-45.7299
-50.266
-85.0283
-45.3686
-53.6348
-70.4913
-58.9617
-43.0522
-42.1879
-49.2481
-61.5231
-95.4565
-90.9496
165.866
164.069
-77.6636
-77.904
164.692
165.109
-71.5938
-51.5957
-63.375
-54.7265
-52.0768
-48.5981
-29.2998
-30.0849
-42.4872
-42.3057
-27.1454
-28.7586
-42.8309
-46.9357
-41.4805
-44.5885
-41.5908
-41.6056
144.101
144.386
-49.7395
-70.2145
-36.1603
-15.1369
-37.151
-37.2542
-29.4373
-28.0555
-50.8508
-44.1587
-48.0825
-40.3745
-95.3081
-90.9085
163.968
165.934
-71.4244
-52.0978
-63.4073
-53.9153
-49.5885
-53.2365
-31.3032
-31.4616
-43.2337
-47.6912
-41.7771
-44.9581
-70.2875
-49.9251
-15.1858
-36.1698
-44.516
-51.5052
-40.5289
-48.1685
-35.1275
-34.4247
-33.4614
-32.7198
-46.5835
-45.5164
-37.1911
-42.0156
-52.161
-51.9716
-35.2013
-35.4055
-36.4233
-40.8235
-40.4869
-39.2605
-32.9923
-32.9633
-38.958
-39.0795
-44.0968
-45.577
-90.9283
-84.8603
2.20667
2.35782
-54.3873
-54.4396
-83.7991
-83.8374
-53.0756
-53.1193
-35.1451
-34.4953
-33.4632
-32.7189
-45.7469
-46.9241
-37.2338
-42.095
-40.964
-36.5298
-40.8249
-39.5831
-45.6804
-44.2614
-84.8218
-91.0553
-90.3987
-69.8374
-71.8742
-109.173
-39.9895
-40.4994
-51.3545
-52.0896
-46.7995
-49.7422
-50.186
-41.1032
-93.7829
-119.036
-70.7234
-70.7879
-90.2109
-109.061
-71.8176
-69.4217
-93.8394
-70.8788
-70.7741
-118.987
-46.9014
-41.1929
-50.411
-49.8984
-39.9387
-53.13
-51.7204
-40.7038
-101.802
-96.6558
-63.2911
-63.3896
-101.565
-62.9785
-63.9612
-96.3386
-42.4084
-45.275
-52.9654
-54.584
-41.9362
-54.6476
-53.8912
-45.0493
-56.7657
-42.7182
-32.8675
-49.0006
-16.2788
12.4678
-9.7795
-26.4323
-17.5058
-26.1761
-9.92249
12.5946
-56.7614
-49.0061
-32.8985
-42.7202
114.214
142.383
180.726
65.6424
58.5484
80.8828
164.44
139.331
58.531
139.367
166.084
81.1062
113.991
69.8665
180.587
142.457
-34.9834
-34.2481
-36.8637
-37.4712
-31.7812
-34.9767
-36.2361
-33.7783
-48.4466
-48.7991
-40.6941
-39.9019
-50.0779
-41.9925
-41.4907
-50.1301
-34.9473
-37.5281
-36.916
-34.2325
-50.1929
-50.2381
-41.5793
-42.0784
-48.5586
-40.0088
-40.8263
-48.9709
-31.7959
-33.8319
-36.3259
-35.0656
-35.2857
-36.755
-33.6995
-33.1267
-35.3548
-33.1347
-33.6684
-36.724
-32.6778
-33.2883
-32.9049
-32.4565
-32.6295
-32.4479
-32.9308
-33.3332
-73.7929
-75.1318
-92.9556
-17.0651
-59.4467
-75.2636
-91.4885
-64.3436
-59.5369
-64.3989
-91.4786
-75.3056
-73.9375
-17.0625
-93.0541
-75.2391
-32.7302
-42.0172
-43.0155
-36.5616
-42.8726
-41.7484
-47.3827
-46.7982
-40.7673
-47.2846
-50.6814
-41.2175
-46.3089
-39.558
-43.1855
-46.2059
-32.6188
-36.8142
-43.429
-42.3687
-46.5712
-46.5445
-43.583
-39.7695
-41.7645
-42.3843
-51.4377
-47.8424
-44.133
-47.54
-48.144
-42.9892
-32.9509
-34.1702
-41.1788
-41.1733
-33.1915
-41.4595
-41.503
-34.1006
-41.2311
-39.8118
-43.9467
-45.8524
-40.1799
-45.3203
-43.7855
-39.2368
-54.0892
-49.3639
-47.7535
-59.7626
-35.7273
-34.8738
-39.9239
-41.935
-36.211
-42.1479
-39.9983
-35.0299
-54.2336
-59.8045
-47.7927
-49.4867
-32.7959
-27.3036
-24.1716
-31.3463
-35.1913
-32.3865
-26.9233
-28.8071
-32.6003
-29.9975
-29.2935
-32.3886
-31.5375
-31.4213
-27.7273
-28.9753
-26.3503
-120.452
-109.139
-36.9142
-36.6894
-40.5479
-44.669
-12.0781
-76.1909
-35.3864
-33.6369
-36.6207
-120.436
-26.0329
-108.944
-38.4169
-38.24
-41.8219
-11.8992
-44.6349
-76.4762
-34.5513
-36.6103
-37.4339
-37.836
-35.0161
-35.9412
-36.8089
-32.7901
-31.9245
-30.7788
-32.7766
-54.0276
-52.4588
-56.9134
-67.7333
-48.9039
-50.2307
-52.0089
-52.4734
-37.7895
-36.8226
-34.9566
-35.8476
-32.9381
-32.8903
-32.007
-30.8467
-54.0097
-67.0516
-52.5687
-57.0256
-49.1352
-52.6821
-50.3544
-52.0769
-10.2671
-18.1009
-91.9057
92.2958
-132.862
-133.18
-110.508
-76.25
-58.1263
-52.6804
-56.6475
-50.4303
-34.2441
-34.1779
-37.2041
-32.0467
-33.2959
-33.6699
-36.0156
-28.8819
-43.0535
-41.2376
-41.8792
-42.3326
-41.2672
-41.2883
-48.0566
-32.4506
-61.1665
-50.1143
-58.2001
-44.8775
-32.2813
-32.4006
-33.5953
-31.0555
-46.6721
-48.1258
-47.3782
-47.388
-10.387
-18.1781
-91.8894
92.251
-56.3068
-52.2096
-55.593
-49.6255
-35.4934
-35.4341
-38.4372
-33.1682
-43.5787
-41.2435
-42.3268
-42.1529
-61.172
-50.2206
-58.3062
-44.898
-46.9167
-48.4532
-47.7783
-47.6096
-32.6337
-32.3982
-32.9506
-32.5651
-37.6484
-39.4944
-38.3939
-39.1747
-39.2086
-39.1818
-42.2167
-37.9209
-35.6425
-37.9456
-36.565
-37.3089
-33.8502
-33.8287
-33.6348
-34.3885
-55.0045
-54.0065
-51.5355
-60.7109
9.70202
9.77052
16.0242
-3.00695
-67.7018
-67.7245
-72.194
-63.7846
-32.6233
-32.4062
-32.9588
-32.5668
-37.7716
-39.6089
-38.5554
-39.2606
-35.8156
-38.1105
-36.7022
-37.5022
-55.1146
-54.1199
-51.6627
-60.7993
-64.8282
-59.3152
-58.99
-55.4345
-64.915
-59.495
-59.1593
-55.6828
-58.0035
-53.7535
-53.78
-52.5317
-27.0674
-20.6839
-20.7455
-13.8211
208.329
198.9
191.534
208.138
-37.5181
-38.728
-38.4409
-39.7673
-37.5973
-38.8064
-38.5388
-39.8655
-33.1977
-33.4906
-33.093
-33.1946
-99.5339
-103.62
-96.818
-99.5417
-45.9454
-44.2701
-44.8159
-44.6703
-46.5784
-44.807
-45.3341
-45.1386
-42.604
-41.6224
-41.7156
-41.5741
-41.5387
-43.4638
-43.4936
-45.5303
-23.303
-21.7315
-25.3132
-25.0211
-3.99121
-1.19589
-81.498
93.8904
-154.078
-145.354
-117.565
18.9277
-108.146
-72.5914
-98.8427
-80.4498
-35.1128
-34.4497
-37.8549
-32.1067
-35.3013
-34.0346
-37.0715
-31.6211
-46.1964
-47.1537
-52.6029
-44.6477
-31.2115
-28.2811
-92.8944
66.036
-19.3453
-34.2856
-49.5891
13.8663
-71.382
-71.8148
-82.5283
-58.696
-34.2045
-33.9339
-37.8584
-32.0399
-32.4361
-32.2025
-33.5623
-31.1362
-39.513
-43.1116
-43.4844
-39.8633
-154.577
-145.873
-117.869
18.7624
-4.4096
-1.47932
-81.2098
93.7678
-107.673
-71.8699
-98.4367
-80.0227
-36.6588
-35.0066
-38.3237
-32.8982
-36.3621
-35.6928
-39.0882
-33.2582
-47.1747
-47.8706
-53.5277
-45.3773
-18.537
-34.351
-49.6538
14.2081
-30.936
-27.7047
-93.0331
66.1733
-71.4223
-72.002
-82.5759
-58.7106
-33.1078
-32.6054
-33.976
-31.8782
-35.5258
-35.2343
-38.8557
-33.2315
-40.0341
-43.3397
-43.9955
-40.2486
-44.6547
-50.6824
-50.3797
-51.8979
-34.0819
-33.1387
-33.9394
-33.8489
-36.3149
-36.1302
-37.7288
-35.845
-38.2808
-38.762
-40.7575
-37.0294
-36.6219
-39.1264
-41.9901
-38.9618
-31.7804
-31.9851
-31.7945
-32.2337
-31.1636
-33.539
-31.7124
-32.3982
-33.0948
-33.6452
-33.2077
-33.6772
-46.228
-45.8908
-47.3184
-25.5722
-46.3518
-42.4078
-42.8729
-45.1715
-56.1191
-55.4965
-52.7196
-65.0462
-5.59015
6.79896
7.91314
-5.79457
-47.6289
-48.0915
-46.8789
-50.9645
-44.5398
-40.8719
-42.198
-42.3508
-51.8725
-52.4558
-50.1819
-56.1125
-62.4283
-66.0732
-67.6359
-62.0837
-45.5989
-54.0815
-51.5257
-53.1844
-38.457
-39.0339
-41.141
-37.2147
-34.0284
-33.1064
-33.8865
-33.8487
-36.394
-36.2536
-37.8554
-35.9018
-36.4631
-39.334
-42.2069
-39.1503
-33.1589
-33.6491
-33.2327
-33.6907
-31.8298
-32.0157
-31.8465
-32.267
-31.296
-33.7237
-31.8453
-32.5847
-46.7094
-46.0672
-47.4753
-26.0708
-6.15298
6.85393
7.7988
-5.90899
-46.4616
-42.5172
-42.9883
-45.2737
-56.2315
-55.6163
-52.8247
-65.1647
-47.8466
-48.4843
-47.2352
-51.1118
-62.5372
-66.1389
-67.721
-62.1364
-44.7522
-41.0434
-42.3436
-42.5545
-51.985
-52.5915
-50.3041
-56.1787
-112.723
-80.4264
-94.632
-92.2316
162.104
193.467
175.224
174.818
-85.7181
-69.5372
-76.6652
-76.9066
195.233
175.839
174.42
174.791
-59.0742
-59.475
-64.5985
-56.0402
-50.9824
-51.6989
-57.5407
-52.5478
-45.6237
-51.4538
-51.4946
-50.2376
-30.7414
-27.4075
-29.3984
-29.8458
-40.1718
-44.1435
-42.3454
-42.1983
-25.2176
-23.5574
-26.2691
-27.2724
-43.278
-43.7654
-43.5812
-45.1181
-41.8811
-41.6632
-41.766
-42.7702
-45.1998
-37.2083
-41.4677
-41.4776
129.152
147.184
146.443
146.375
-58.5501
-58.9483
-53.874
-63.6109
-29.9769
-24.5051
-31.3166
-21.1526
-35.8041
-38.3112
-36.9668
-37.0213
-28.4074
-26.4021
-28.1836
-27.3594
-48.3292
-46.5467
-50.7652
-45.8107
-44.4087
-43.773
-45.7882
-42.0666
-112.609
-80.3808
-94.5146
-92.1702
162.129
193.508
174.788
175.273
-59.2676
-59.6494
-64.5341
-56.4447
-50.8042
-52.8852
-57.6504
-52.2447
-46.8111
-52.4005
-51.2646
-52.6315
-32.0361
-29.887
-31.2913
-31.459
-43.805
-44.2997
-44.0405
-45.7475
-42.1333
-41.7693
-41.9834
-43.0304
-58.6846
-59.1082
-63.7231
-54.0362
-29.92
-24.5808
-21.1795
-31.2946
-48.6817
-47.0469
-46.2013
-51.3299
-44.5401
-43.8587
-42.1937
-45.8916
-34.9692
-35.6484
-35.0391
-34.6934
-32.8025
-33.0528
-33.1365
-32.7992
-43.7067
-47.2444
-46.2158
-45.5213
-39.2898
-39.0821
-38.1402
-40.4911
-50.5022
-49.1972
-52.541
-52.4329
-36.0283
-34.2847
-35.4806
-35.5356
-37.9464
-38.1708
-37.4484
-39.4156
-38.4713
-40.1724
-40.1184
-38.995
-33.2563
-33.0042
-33.0518
-32.8666
-36.8011
-39.9229
-38.943
-39.0185
-47.1646
-43.0339
-44.5747
-45.3534
-80.9263
-95.1453
-93.1069
-87.1686
10.3017
-1.96333
3.45963
3.52534
-38.0483
-75.4092
-55.2775
-55.3211
-80.3302
-89.7125
-84.4946
-84.5119
-56.2751
-50.3332
-53.1278
-53.1511
-35.0405
-35.7094
-35.0957
-34.7482
-32.7948
-33.0302
-33.1208
-32.7919
-43.955
-47.5393
-45.7749
-46.5225
-39.354
-39.1466
-38.1922
-40.5618
-38.0573
-38.2861
-39.5447
-37.561
-38.7984
-40.5131
-40.4792
-39.4011
-47.3004
-43.1539
-45.4709
-44.7208
-80.9484
-95.2527
-87.1603
-93.2405
-115.927
-98.894
-96.7847
-81.3883
-48.5362
-44.5724
-48.1395
-47.1881
-45.9618
-44.1842
-47.0543
-45.5191
-103.715
-89.0988
-90.054
-78.1874
-115.723
-98.6251
-96.6015
-81.1871
-103.684
-89.1134
-90.0326
-78.2165
-46.1416
-44.3453
-47.2553
-45.7242
-49.0887
-44.9451
-48.678
-47.5871
-87.0649
-78.234
-78.0024
-70.0299
-86.6456
-78.0572
-78.1698
-70.0461
-53.2855
-49.1129
-52.3113
-52.917
-52.2949
-48.3685
-53.0105
-52.3642
-48.3872
-48.2326
-42.1061
-40.6497
-11.5698
0.392012
-7.92093
0.928961
-8.60371
1.73743
-7.93768
0.0253553
-48.4175
-48.2748
-42.119
-40.6609
157.726
170.699
159.293
166.956
109.536
88.8429
139.608
142.722
88.6202
109.441
142.588
139.425
170.779
157.681
167.772
159.474
-35.4268
-35.7724
-35.2747
-36.3538
-33.382
-33.0944
-34.071
-35.1
-43.722
-44.7025
-42.2278
-43.5762
-45.8092
-47.9036
-43.8063
-45.7387
-35.4325
-35.7888
-35.289
-36.385
-45.9035
-48.0027
-43.8934
-45.8356
-43.8091
-45.1923
-42.3921
-43.7914
-33.5643
-33.1224
-34.1596
-35.1949
-34.4345
-35.2607
-34.0025
-34.9959
-35.4243
-34.5032
-35.213
-34.1187
-32.8756
-32.6392
-32.9073
-32.7249
-32.6245
-32.8624
-32.7166
-32.9042
-70.3269
-36.8354
-72.1578
-53.0512
-70.4324
-74.4481
-81.2291
-81.8843
-74.5123
-70.5477
-81.9465
-81.2767
-36.7705
-70.4636
-53.1091
-72.3193
-40.7105
-40.5637
-40.3321
-40.8117
-48.0008
-53.1625
-51.9042
-50.802
-43.9327
-46.0835
-47.4476
-49.0433
-43.2825
-41.7454
-42.2957
-40.2225
-40.9953
-40.8805
-40.6758
-41.1498
-43.5746
-42.0078
-42.5986
-40.5025
-44.9205
-46.8832
-48.3839
-49.7977
-49.2865
-54.245
-53.0393
-51.7368
-39.2903
-36.0928
-40.1078
-39.1327
-39.2205
-36.1573
-40.2428
-39.1907
-41.2474
-44.6906
-42.8096
-46.1353
-40.8403
-44.0074
-42.6717
-45.9412
-53.2964
-55.774
-50.3392
-52.872
-36.2373
-37.8722
-37.3486
-38.8649
-36.4937
-38.1361
-37.4988
-39.0448
-53.3913
-55.8557
-50.3446
-52.9337
-30.651
-29.0655
-29.1829
-27.4654
-30.8562
-32.0742
-29.3269
-31.1573
-31.4636
-32.0204
-30.5846
-31.4739
-30.8924
-30.2909
-30.0465
-29.0973
-63.4366
72.2392
-125.312
-23.1486
-99.1787
-112.178
-38.594
-33.006
-37.948
-33.6094
-45.0661
-41.255
-91.1278
38.5846
-49.5966
30.2809
-81.8243
-65.9773
-38.105
-32.552
-34.2716
-31.8448
-39.9988
-36.5946
-125.4
-23.2256
-59.6814
71.7273
-99.0206
-111.808
-38.8446
-35.0405
-39.8371
-34.362
-46.3634
-42.2884
-49.3804
30.3289
-91.2445
38.4642
-81.9011
-66.1519
-34.9004
-32.8293
-39.2546
-33.8166
-40.9159
-37.1561
-38.0205
-41.1949
-34.7801
-34.9487
-38.0079
-35.6805
-39.3567
-36.2036
-32.9879
-32.9458
-31.1305
-32.3478
-31.2675
-30.9496
-32.7992
-33.2336
-48.6248
-46.0127
-47.5699
-49.8782
-53.6402
-72.3567
-20.2143
-62.1125
-48.3245
-50.2167
-47.6208
-46.4889
-50.5822
-55.3818
-57.9355
-55.0383
-38.2422
-41.6979
-39.694
-36.3013
-34.7036
-34.9603
-37.9237
-35.6322
-33.6159
-33.1484
-32.8672
-33.3858
-31.203
-32.4083
-31.375
-30.7269
-48.6819
-47.5286
-22.8312
-62.2086
-47.6807
-49.9839
-53.7668
-72.4391
-48.5914
-50.4984
-58.0977
-55.2162
-47.9109
-46.7371
-50.8522
-55.3667
-87.8517
99.9284
-89.5518
77.0748
-112.896
-117.202
148.03
144.92
-113.05
-93.2163
-113.393
-81.9071
-96.6892
-96.4358
119.484
115.279
-68.3001
-63.6936
-52.3522
-53.9339
-62.6482
-56.2663
-57.2777
-52.1353
-37.4811
-32.0347
-37.287
-31.9041
-41.4912
-41.3954
-31.3413
-31.3247
-36.2303
-28.9908
-36.8641
-30.121
-39.41
-39.1116
-26.5521
-27.5201
-46.0594
-45.6044
-41.0566
-40.4105
-43.0956
-44.7507
-41.8443
-43.0327
-45.8747
-15.2765
-45.8611
-14.8102
-49.0948
-48.9077
78.3219
76.6123
-71.5343
-51.8597
-49.3509
-37.0041
-53.8263
-64.2431
-38.2992
-30.4489
-33.5535
-31.0021
-33.7473
-31.4912
-34.8583
-34.9413
-29.2409
-28.6203
-46.1021
-43.7582
-47.3179
-49.9385
-47.8431
-46.7913
-47.6775
-43.7242
-87.7919
99.8144
-89.4807
79.5374
-112.811
-117.154
144.917
148.034
-67.6523
-62.9509
-54.5117
-54.9623
-62.1754
-57.3273
-56.8662
-52.0772
-38.7169
-33.1343
-38.5471
-33.0053
-42.6226
-42.7293
-32.3876
-32.3527
-46.7592
-46.2053
-41.3551
-41.0625
-43.5106
-45.3562
-41.923
-43.4768
-71.6223
-51.8778
-49.4875
-37.0396
-64.3403
-53.9561
-30.3127
-38.3052
-46.6373
-43.9706
-47.6304
-50.1227
-47.1475
-48.2445
-43.9006
-47.8108
-33.2811
-32.9889
-32.6864
-32.316
-34.0338
-33.7898
-32.8468
-32.5499
-37.6278
-37.2005
-39.8517
-41.6514
-40.3719
-40.601
-38.3714
-40.5251
-41.5504
-37.999
-41.6999
-37.8208
-45.5803
-45.4028
-36.7762
-36.8139
-34.3174
-35.3601
-39.1626
-39.7163
-35.7458
-38.6229
-37.1336
-38.7255
-33.5292
-34.187
-33.5144
-34.0993
-33.3673
-33.5264
-34.505
-34.5183
-52.099
-62.6813
-50.6391
-58.0455
-49.1002
-49.7284
-72.0037
-66.3777
13.8369
-2.10646
13.9791
-1.90988
14.7566
14.5257
-18.1488
-18.0692
-71.2822
-63.4549
-71.3279
-63.4973
-76.0211
-76.0429
-59.9314
-59.9668
-33.2568
-32.9863
-32.7165
-32.3309
-34.0444
-33.8265
-32.8474
-32.5529
-37.7845
-37.28
-39.9984
-41.7474
-40.8011
-40.557
-38.4348
-40.6037
-34.4202
-35.5555
-39.2968
-39.9121
-38.7381
-35.8222
-37.3582
-38.8934
-52.2063
-62.7813
-50.8047
-58.139
-49.8546
-49.2483
-66.4534
-72.0935
-71.7647
-71.0707
-64.9441
-55.746
-54.5482
-64.0835
-51.0943
-50.589
-71.7451
-71.1034
-64.9894
-56.0551
-64.1911
-54.7475
-50.8433
-51.4179
-63.1363
-63.5315
-57.8881
-52.9074
-58.475
-52.2232
-52.0803
-52.3661
-32.3668
-32.3855
-27.7516
-15.6878
-15.7842
-27.7917
-7.92838
-8.38419
197.864