# vtk DataFile Version 2.0
tri_press
ASCII
DATASET UNSTRUCTURED_GRID
POINTS 3682 float
-0.795 0.245 -2.21904
-0.629376 0.305 2.235
-0.7921 0.845 -2.185
-0.545 0.885 2.2367
0.79764 0.245 -2.215
0.620181 0.305 2.235
0.782905 0.845 -2.185
0.535 0.885 2.23684
-0.80626 0.198532 -0.73436
-0.780215 0.189369 0.75032
-0.79829 0.94689 -0.7111
-0.739114 0.983414 0.7628
0.804569 0.198918 -0.731667
0.774946 0.189388 0.751667
0.788862 0.946925 -0.711053
0.729479 0.983511 0.762894
-1.5698 -0.135305 -3.41327
-1.57602 -0.119988 -2.23001
-1.56794 -0.154006 -0.74515
-1.50414 -0.161355 0.741904
-1.38486 -0.0901341 2.22694
-1.35914 -0.0604694 3.41109
-1.37541 -0.0539865 4.59355
-1.57613 0.204766 -3.40079
-1.58331 0.236419 -2.21858
-1.57555 0.214778 -0.735635
-1.48938 0.197754 0.748359
-1.32117 0.250048 2.23149
-1.31778 0.276811 3.41543
-1.35447 0.285106 4.59816
-1.57768 0.856838 -3.3723
-1.58106 0.887894 -2.18908
-1.56717 0.952055 -0.713378
-1.45755 0.958658 0.761586
-1.26658 0.89997 2.2374
-1.28967 0.925189 3.42173
-1.3453 0.951574 4.6061
-1.56638 1.91133 -3.33777
-1.5647 1.95313 -2.15642
-1.54884 2.02162 -0.684025
-1.50418 2.04669 0.786052
-1.44363 2.01578 2.25838
-1.41858 2.00019 3.4396
-1.42074 2.00553 4.62293
-0.78466 -0.131619 -3.41301
-0.788338 -0.114203 -2.23005
-0.794061 -0.162996 -0.744258
-0.779014 -0.165484 0.743694
-0.703504 -0.0591866 2.22953
-0.685652 -0.0392081 3.41293
-0.697241 -0.0431 4.59476
-0.790583 0.203863 -3.40024
-0.657627 0.297211 3.41699
-0.684639 0.294339 4.59913
-0.793545 0.839368 -3.3705
-0.635575 0.924039 3.42179
-0.681075 0.952255 4.60635
-0.790687 1.90036 -3.33602
-0.791881 1.94327 -2.15459
-0.791651 2.02177 -0.68281
-0.781286 2.05226 0.786282
-0.75448 2.01467 2.25797
-0.737463 1.99622 3.43919
-0.737116 2.00231 4.62274
0.796433 -0.131554 -3.41039
0.801498 -0.11411 -2.2268
0.795605 -0.162727 -0.741826
0.744301 -0.165411 0.745045
0.639706 -0.0591661 2.23
0.63511 -0.0391799 3.4134
0.644399 -0.0430591 4.59535
0.791904 0.203901 -3.39772
0.616171 0.29723 3.41731
0.633446 0.294374 4.59965
0.782652 0.839395 -3.36925
0.58589 0.924059 3.42211
0.617978 0.952292 4.60683
0.76712 1.90042 -3.33504
0.762177 1.94333 -2.15381
0.736195 2.02184 -0.682173
0.676523 2.05234 0.786835
0.61851 2.01473 2.25848
0.61123 1.99628 3.43973
0.619666 2.00236 4.62333
1.58416 -0.135151 -3.4086
1.58959 -0.119773 -2.22482
1.57568 -0.153609 -0.741017
1.49713 -0.161164 0.744447
1.36246 -0.090061 2.22828
1.3282 -0.0603955 3.41226
1.33353 -0.0538957 4.59483
1.58161 0.204879 -3.39635
1.58867 0.236558 -2.21346
1.5811 0.215194 -0.7317
1.50066 0.197928 0.750667
1.33142 0.250094 2.23253
1.29909 0.276869 3.41638
1.31517 0.285188 4.59931
1.57091 0.856923 -3.36949
1.57488 0.887965 -2.18684
1.56298 0.952256 -0.711595
1.46071 0.958843 0.76281
1.27022 0.900027 2.23824
1.26112 0.92525 3.4226
1.29363 0.951656 4.60718
1.54389 1.91146 -3.3357
1.53613 1.95326 -2.15468
1.49961 2.02178 -0.682567
1.41821 2.04685 0.787306
1.33229 2.01592 2.25952
1.30818 2.0003 3.44077
1.3124 2.00564 4.62419
-0.80486 0.545 -2.21333
0.00132 0.238862 -2.22316
-0.807994 0.214402 -1.4767
-0.62742 0.595 2.27608
-0.00459749 0.304626 2.23537
-0.715099 0.236881 1.49266
-0.00459751 0.957596 -2.2976
-0.811433 0.912183 -1.44805
-0.005 0.91061 2.26238
-0.692687 0.984837 1.49975
0.797611 0.545 -2.20734
0.80847 0.214593 -1.47333
0.617969 0.595 2.2763
0.708662 0.236096 1.49333
0.802214 0.912294 -1.44803
0.683307 0.985323 1.49987
-0.791596 0.195592 0.00797999
-0.881002 0.572711 -0.72273
-0.000845851 0.19615 -0.733013
-0.873483 0.586391 0.75656
-0.00263454 0.188511 0.750993
-0.760787 0.957237 0.0258501
-0.004714 1.21087 -0.711077
-0.00481704 1.42962 0.762847
0.787506 0.196405 0.00999999
0.871817 0.572922 -0.72136
0.864305 0.58645 0.75728
0.750936 0.956983 0.02592
-0.865332 0.558855 -1.46238
0.874642 0.558961 -1.46068
0.000237077 0.201052 -1.47502
-0.00465576 1.01783 -1.44804
-0.00163876 0.545 -2.30686
-0.891813 0.579551 0.016915
0.882599 0.579686 0.01796
-0.00174019 0.19592 0.00898999
-0.00476552 1.43234 0.025885
-0.844861 0.590696 1.49621
0.853633 0.590725 1.4966
-0.00361601 0.224443 1.493
-0.00490852 1.20183 1.49981
-0.00479874 0.595 2.36998
-0.796567 0.395 -2.21282
-0.39684 0.239009 -2.22402
-0.802025 0.229173 -1.84787
-0.640985 0.45 2.26813
-0.316987 0.30458 2.23542
-0.68931 0.253868 1.86383
-0.808178 0.695 -2.20886
-0.398349 0.893591 -2.23359
-0.810719 0.887544 -1.81652
-0.587614 0.74 2.2578
-0.275 0.902575 2.25431
-0.630453 0.946528 1.86823
0.39948 0.238928 -2.22208
0.799486 0.395 -2.21303
0.80396 0.228892 -1.84417
0.307792 0.304671 2.23533
0.631641 0.45 2.26822
0.681064 0.253905 1.86417
0.389154 0.894082 -2.23408
0.799945 0.695 -2.20586
0.801589 0.887676 -1.81651
0.265 0.902529 2.25433
0.578047 0.74 2.25813
0.620905 0.946913 1.86835
-0.819505 0.194089 -1.10553
-0.798713 0.197278 -0.36319
-0.870471 0.372201 -0.728545
-0.404732 0.194983 -0.733687
-0.732052 0.22873 1.12149
-0.782915 0.195471 0.37915
-0.868741 0.366934 0.75344
-0.391615 0.188559 0.750657
-0.80865 0.933325 -1.07958
-0.876904 0.778429 -0.716915
-0.780269 0.952794 -0.342625
-0.452674 1.18122 -0.711088
-0.724972 0.993197 1.13128
-0.865493 0.814499 0.75968
-0.753613 0.973988 0.394325
-0.465809 1.3942 0.762824
0.814564 0.198712 -1.1025
0.40312 0.195018 -0.73234
0.795288 0.198411 -0.360833
0.86229 0.373871 -0.726513
0.727029 0.227517 1.1225
0.386345 0.188571 0.75133
0.778614 0.195509 0.380833
0.859921 0.367771 0.754473
0.799381 0.933453 -1.07954
0.443228 1.18121 -0.711065
0.867713 0.77861 -0.716207
0.770791 0.952846 -0.342567
0.715575 0.993599 1.13138
0.456204 1.39431 0.76287
0.856333 0.814701 0.760087
0.741327 0.971367 0.394407
-0.86816 0.551928 -1.83785
-0.403249 0.545 -2.30024
0.000778541 0.21939 -1.84909
-0.000159375 0.391931 -2.4054
-0.859912 0.386629 -1.46954
-0.403879 0.201087 -1.47586
-0.785765 0.592848 1.88614
-0.316109 0.595 2.35406
-0.00410675 0.254044 1.86419
-0.00469811 0.449813 2.40195
-0.833511 0.413788 1.49443
-0.359357 0.224435 1.49283
-0.00462664 0.978277 -1.87282
-0.00311814 0.751298 -2.30605
-0.844156 0.735519 -1.45521
-0.408044 0.988578 -1.44804
-0.00495426 1.0095 1.88109
-0.00489937 0.752805 2.28511
-0.821664 0.787766 1.49798
-0.348798 1.16721 1.49978
0.877656 0.55198 -1.83401
0.397986 0.545 -2.29964
0.867648 0.386777 -1.46701
0.404354 0.201016 -1.47418
0.776498 0.592862 1.88645
0.306585 0.595 2.35409
0.842381 0.41341 1.49497
0.352523 0.224451 1.49317
0.852962 0.735627 -1.45435
0.398779 0.988546 -1.44803
0.827857 0.788024 1.49823
0.339199 1.16713 1.49984
-0.886598 0.365125 0.0124475
-0.397236 0.194621 0.00848499
-0.870805 0.565783 -1.09255
-0.896334 0.576131 -0.352908
-0.000304387 0.189854 -1.10402
-0.00129302 0.196024 -0.362012
-0.882832 0.582971 0.386738
-0.857334 0.588543 1.12638
-0.00218736 0.19586 0.379992
-0.00312527 0.199426 1.122
-0.88557 0.798029 0.0213825
-0.487546 1.40433 0.0258676
-0.00468488 1.05 -1.07956
-0.00473976 1.38156 -0.342596
-0.00479128 1.43891 0.394366
-0.00486278 1.39691 1.13133
0.878121 0.366511 0.01398
0.393639 0.194651 0.00949499
0.861645 0.565941 -1.09102
0.879344 0.576304 -0.3517
0.873577 0.583068 0.38762
0.865938 0.588587 1.12694
0.876259 0.79808 0.02194
0.477949 1.40439 0.0259025
-0.859878 0.390814 -1.84286
-0.861172 0.386125 -1.09904
-0.867947 0.74766 -1.08606
-0.875688 0.71526 -1.82719
0.8658 0.390889 -1.83909
0.885326 0.715314 -1.82526
0.858761 0.747775 -1.08528
0.852331 0.386349 -1.09676
-0.400359 0.21937 -1.84848
0.401917 0.219291 -1.84663
0.403108 0.18986 -1.10326
-0.403716 0.189848 -1.10477
-0.403197 0.952373 -1.84467
-0.404773 1.02112 -1.07957
0.395427 1.02113 -1.07955
0.393967 0.952377 -1.84467
-0.400045 0.393466 -2.3828
-0.400799 0.723149 -2.28597
0.39357 0.723149 -2.28269
0.398733 0.393466 -2.38165
-0.881567 0.367147 -0.358049
-0.878057 0.365836 0.382944
-0.875605 0.806301 0.390531
-0.898383 0.796802 -0.347766
0.873271 0.368658 -0.356267
0.874446 0.789575 -0.347133
0.866442 0.806464 0.391013
0.8694 0.366952 0.384227
-0.40099 0.194789 -0.362601
0.398385 0.194822 -0.361423
0.388531 0.194532 0.380413
-0.392969 0.194504 0.379571
-0.501046 1.35465 -0.34261
-0.480986 1.40788 0.394346
0.471374 1.40795 0.394386
0.491531 1.35468 -0.342581
-0.838195 0.400834 1.12394
-0.781666 0.431894 1.87499
-0.781541 0.763883 1.87718
-0.846181 0.786334 1.12883
0.847081 0.400664 1.12472
0.852954 0.786502 1.12916
0.772244 0.764012 1.8774
0.772394 0.431705 1.87531
-0.375391 0.199413 1.12174
0.369339 0.199438 1.12225
0.330157 0.254044 1.86418
-0.338172 0.254026 1.86401
-0.360382 1.3728 1.1313
-0.311899 0.99505 1.87466
0.3021 0.995073 1.87472
0.350765 1.37285 1.13135
-0.316548 0.449906 2.38874
0.307189 0.449906 2.38871
0.285793 0.746402 2.29551
-0.295555 0.746402 2.29525
-0.7941 0.32 -2.21425
-0.59592 0.239572 -2.22396
-0.805083 0.230516 -2.03345
-0.641628 0.3775 2.25801
-0.473181 0.304558 2.23544
-0.661688 0.277089 2.04941
-0.807334 0.77 -2.20413
-0.595224 0.858897 -2.1989
-0.809332 0.874195 -2.00076
-0.57414 0.8125 2.25508
-0.41 0.892685 2.2444
-0.590838 0.918875 2.05246
0.59856 0.239485 -2.22102
0.797038 0.32 -2.21249
0.808896 0.22885 -2.02958
0.463986 0.304694 2.23531
0.632399 0.3775 2.2581
0.652963 0.277112 2.04958
0.586029 0.858863 -2.19886
0.798487 0.77 -2.20249
0.800097 0.874188 -2.00076
0.4 0.892654 2.24448
0.56444 0.8125 2.2554
0.5813 0.919304 2.0526
-0.810373 0.19882 -0.919945
-0.801993 0.198398 -0.548775
-0.860269 0.274415 -0.731453
-0.606094 0.195562 -0.734023
-0.739707 0.225476 0.935905
-0.778571 0.195414 0.564735
-0.851853 0.264464 0.75188
-0.58588 0.189035 0.750488
-0.805057 0.941694 -0.895338
-0.856112 0.871917 -0.714008
-0.790334 0.950897 -0.526863
-0.661098 1.13529 -0.711094
-0.730268 0.98653 0.947038
-0.823419 0.909514 0.76124
-0.747631 0.979969 0.578563
-0.632094 1.24807 0.762812
0.809032 0.199349 -0.917083
0.604527 0.195602 -0.732003
0.799768 0.198825 -0.54625
0.851394 0.277412 -0.72909
0.734822 0.224618 0.937083
0.580609 0.189052 0.751498
0.773779 0.19545 0.56625
0.842744 0.265924 0.75307
0.795738 0.941806 -0.895297
0.651675 1.13533 -0.711059
0.846772 0.87201 -0.71363
[...]
POINT_DATA 3682
SCALARS point_scalars float 1
LOOKUP_TABLE default
-99.8343
-43.0092
-137.506
-35.3569
-84.9749
-42.8502
-133.387
-35.1294
-38.2854
-44.3234
-49.2326
-46.9077
-37.7616
-41.5852
-49.2683
-46.5756
-78.469
-106.4
-36.3637
-46.2391
-43.529
-39.6537
-38.2991
75.5033
-104.787
-37.3645
-45.3381
-43.3488
-37.774
-37.2723
-99.8152
-127.198
-42.6787
-43.9076
-39.3234
-36.9201
-36.9357
-129.429
-101.404
-74.483
-54.3789
-35.3766
-35.8394
-35.4161
70.4101
-148.059
-38.9942
-43.8162
-42.7333
-38.6187
-37.8747
120.635
-36.9264
-37.0886
169.557
-35.8811
-36.4473
-74.7324
-95.5789
-74.483
-53.9216
-33.23
-34.3558
-34.4725
49.8439
-136.77
-39.5394
-42.85
-42.3645
-38.543
-38.3504
129.774
-36.9373
-37.0817
176.214
-36.126
-36.4196
-80.5572
-96.5865
-54.968
-53.6444
-33.0532
-34.6237
-34.6237
-33.5888
-106.234
-35.3529
-48.8739
-42.8527
-39.6588
-38.4958
21.4689
-106.609
-36.4758
-46.7941
-42.7148
-38.1588
-37.3326
-103.554
-100.58
-42.2131
-42.9781
-39.2537
-37.0117
-36.6814
-132.985
-112.126
-79.4522
-52.5835
-35.2456
-34.5864
-34.6237
-116.64
-132.903
-46.9272
-37.319
-40.8965
-41.9142
-157.913
-38.2179
-30.0806
-39.841
-111.646
-48.1907
-37.2243
-42.5752
-39.7785
-40.1372
-38.8272
-38.9451
-43.4104
-43.5907
-42.9158
-52.8514
15.8124
-56.7443
-38.058
-38.0646
-40.7659
-52.6855
-48.5264
-50.8872
-58.2085
-19.5768
201.168
-43.7195
-43.7673
-39.2462
-83.7576
-43.4625
-45.9242
-44.6839
-33.8612
-33.7602
-79.4538
-137.275
-67.8824
-39.0201
-41.2499
-44.4965
-119.687
-160.907
-61.8128
-36.6618
-32.0637
-35.3664
-143.798
-59.5004
-69.6394
-41.2224
-38.9346
-44.5007
-155.626
-100.792
-62.3722
-32.1018
-36.5506
-35.1418
-44.5253
-37.7968
-37.9308
-42.3886
-40.9022
-39.673
-45.1379
-42.7266
-34.5153
-41.3055
-54.9658
6.59671
-43.6418
-43.8586
-50.2588
-54.3911
-41.5509
-42.256
-36.9743
-36.9496
-41.7087
-42.7196
-38.7826
-40.9085
-35.2171
7.1469
-40.6714
-54.5385
-43.8409
-54.4235
-42.9492
-49.657
-78.8682
182.958
-81.3005
128.938
-49.5042
-55.5183
-42.3251
-35.1355
-43.9865
-36.5208
-42.7626
-44.2635
-53.0605
181.023
-45.6244
-25.6781
-31.8461
-31.7709
-42.5947
-34.7924
-82.9398
182.69
-51.315
-55.7811
-41.6948
-35.1541
-44.8546
-44.4266
-48.2419
-25.8639
-44.5147
-34.7876
-41.8492
-39.0576
-38.4794
-42.514
-51.4562
-40.1559
-43.6073
-40.6969
-39.7273
-46.137
-46.2842
-75.3729
4.43008
-65.5778
-67.2365
-46.0786
-41.2913
-38.8586
-38.1895
-40.7469
-42.2532
-42.3083
-46.8323
-75.1201
-77.4406
-38.2972
-37.6338
-73.3059
-80.3273
-77.6503
-37.8156
-37.6467
-77.7146
-78.1088
-50.0587
-50.0733
-56.5775
-3.98581
-3.80474
-56.6077
150.284
149.732
149.82
145.281
-40.0927
-42.2585
-45.8377
-46.6686
-39.002
-43.0255
-44.8341
-40.8548
-39.6809
-39.5131
-39.4296
-39.6303
-73.8514
-62.0248
-61.9477
-73.9684
-39.9983
-43.3374
-40.486
-41.5858
-41.5558
-42.6123
-40.0503
-43.2669
-45.5481
-45.7715
-44.1084
-44.058
-46.8097
-32.4935
-32.5225
-46.7095
-36.9284
-36.8973
-33.5502
-33.5903
-80.5545
-163.578
-98.9024
-41.0753
-41.7978
-43.37
-113.176
-186.789
-87.2103
-36.1404
-33.1873
-34.7423
-156.654
-59.7458
-103.685
-41.6939
-40.8995
-43.1413
-188.583
-105.232
-91.0281
-33.2067
-36.1084
-34.6669
-40.277
-38.6715
-37.0669
-41.0447
-46.0938
-39.2345
-46.2824
-43.1478
-39.8944
-44.3116
-53.6263
-46.4492
-45.12
-45.8194
-48.562
-50.1852
-40.2632
-40.8193
-38.6666
-36.1771
-48.0511
-43.118
-38.0188
-39.4949
-40.7913
-45.2386
-44.0243
-53.047
-44.9768
-49.8834
-45.4006
-48.0403
-89.48
-128.56
-110.665
146.385
-133.435
-135.458
-108.744
-17.3335
-55.6735
-40.8354
-50.0024
-52.0436
-38.0702
-36.7651
-41.3115
-35.8899
-40.9847
-40.978
-42.5408
-37.9581
-45.3935
-41.3185
-42.2181
-43.6929
-169.374
-169.092
-83.7645
143.459
-47.1007
-33.3439
-43.3257
-31.836
-30.5781
-30.4448
-32.1488
-29.9769
-36.8723
-42.4833
-40.5592
-35.9454
-84.7634
-106.411
-113.517
149.131
-56.5065
-44.4194
-51.0759
-52.4561
-37.9897
-36.6868
-40.6035
-35.9362
-46.2797
-41.7766
-44.1319
-43.924
-49.4308
-33.9484
-45.4325
-32.3289
-37.0667
-42.9391
-41.3692
-35.9886
-38.3265
-39.2486
-40.8027
-38.8227
-38.447
-39.7423
-38.1373
-40.2562
-43.1628
-43.1034
-46.3671
-41.3917
-44.0872
-43.3133
-43.3649
-41.4619
-42.8696
-42.8629
-40.0736
-46.4544
-54.8224
-52.4505
-49.6759
-60.4912
14.2565
14.4062
17.6962
-10.0455
-55.9653
-55.9328
-61.6441
-51.4059
-38.0284
-38.4914
-40.1212
-38.4924
-37.4789
-38.9829
-37.4064
-39.3812
-40.6595
-41.6608
-41.6122
-41.6444
-54.1097
-52.1102
-48.6879
-60.3333
-60.4637
-49.1819
-47.2014
-40.415
-63.1263
-51.3935
-49.7169
-42.2469
-66.8594
-57.502
-57.6045
-54.6713
-35.4573
-22.1391
-22.0556
-7.97508
197.282
200.414
197.087
198.764
-42.9036
-42.6287
-44.0263
-44.8261
-43.2469
-41.885
-43.0034
-44.3528
-39.2133
-39.4833
-39.3469
-39.1196
-82.3935
-92.2221
-74.4867
-82.3208
-42.8606
-43.1476
-44.4687
-41.8025
-44.8671
-45.1456
-46.9205
-42.7482
-44.6065
-44.5679
-44.644
-45.2644
-31.84
-34.0328
-34.0233
-38.8217
-34.211
-34.8356
-32.5766
-34.2368
-113.933
123.068
-104.737
10.2156
-74.779
-73.7282
-42.6301
-37.0484
-42.6964
-38.5772
-44.0507
-44.1668
-100.342
141.822
-84.6476
82.5777
-66.5432
-60.3797
-39.9765
-35.1698
-32.4223
-32.3262
-36.977
-33.067
-105.377
-4.63468
-115.289
120.411
-76.9545
-74.1629
-42.6897
-38.5931
-41.9001
-37.026
-44.5831
-44.2412
-83.5744
81.9077
-98.9688
142.312
-65.9025
-61.009
-32.4652
-32.2987
-39.7642
-35.2226
-37.038
-33.1064
-38.2575
-48.3332
-39.1101
-39.0402
-37.8473
-38.7839
-45.031
-40.7076
-39.4193
-44.2014
-41.8014
-39.4798
-42.7468
-42.1416
-40.0433
-46.2264
-36.6707
-15.7345
-38.91
-42.2639
-50.5376
-70.5729
6.19943
-15.6448
-43.4648
-48.8387
-44.9611
-43.3408
-49.0054
-54.2784
-58.2596
-50.5429
-37.5305
-48.1292
-44.9318
-40.5562
-38.3154
-38.7668
-36.7936
-37.84
-40.6459
-44.5037
-39.8962
-46.4183
-40.3595
-39.0764
-40.601
-44.1061
-37.2148
-15.7857
6.30008
-14.7158
-38.5757
-42.8761
-48.0038
-70.696
-43.8994
-47.678
-58.1226
-50.3542
-43.9074
-42.0058
-47.953
-54.0044
-78.8501
-77.7382
189.119
173.601
-80.387
-80.5403
135.903
137.902
-59.5701
-41.3992
-63.7482
-52.6102
-42.9995
-41.3344
-35.8527
-34.4397
-44.0313
-44.0053
-36.4994
-36.5648
-40.9142
-44.0847
-44.6431
-44.4921
-54.2287
-54.3456
175.357
179.313
-39.0746
-58.4168
-39.2313
-14.7733
-32.0403
-32.0564
-32.4263
-32.3885
-40.1685
-43.0807
-39.9594
-33.0702
-82.3822
-83.739
173.563
188.096
-62.1012
-44.7788
-64.0338
-52.7661
-40.918
-42.3682
-35.9123
-34.5077
-41.683
-45.9036
-44.8415
-44.6244
-61.6045
-40.2398
-14.8174
-39.4559
-44.2527
-41.0888
-33.0663
-39.9377
-40.6257
-42.3878
-39.1846
-39.2247
-38.8602
-38.0293
-41.2511
-44.1136
-51.0936
-51.0989
-40.0654
-39.9795
-43.0058
-44.4491
-40.2717
-40.7264
-39.6301
-39.7129
-45.9876
-46.0901
-46.9019
-46.0111
-85.1723
-67.9051
1.44573
1.58786
-67.4466
-67.4896
-66.173
-66.0938
-46.0921
-46.0962
-39.7339
-41.3222
-38.9994
-39.0171
-37.959
-38.3589
-39.9136
-41.9607
-43.241
-41.6149
-41.9818
-42.3151
-46.3832
-45.7995
-67.6538
-85.3356
-107.75
-58.1435
-60.435
-113.375
-37.5811
-37.9347
-40.7859
-43.0356
-40.8426
-37.9121
-39.8549
-38.341
-95.2154
-105.794
-59.673
-53.3497
-109.199
-116.551
-63.1916
-60.7836
-93.9054
-57.4601
-62.9253
-107.176
-40.8578
-37.8418
-41.1779
-38.4281
-36.63
-47.089
-43.2535
-37.1244
-101.62
-107.964
-66.0694
-59.9509
-101.971
-60.3356
-66.169
-108.14
-43.0096
-45.9931
-54.1694
-49.922
-43.2673
-49.5636
-54.1149
-46.0303
-87.3724
-42.3636
-36.2256
-83.2416
-21.0644
14.411
-9.63621
-22.1483
-20.4558
-22.4363
-9.55578
15.0888
-88.2564
-83.7634
-36.1422
-43.2336
52.5572
153.781
198.817
-13.8366
112.027
128.061
192.855
147.885
101.477
149.1
196.033
127.222
52.4593
-14.1097
198.49
150.855
-38.11
-39.566
-41.7505
-39.5793
-42.3517
-43.1262
-43.271
-41.5878
-47.43
-50.4498
-45.0702
-43.8286
-46.9599
-41.2949
-44.0954
-49.8534
-37.3054
-38.5884
-39.8933
-38.8669
-46.9449
-50.5001
-44.1562
-40.5327
-46.7868
-42.3907
-44.1634
-50.197
-39.8849
-40.6898
-42.1886
-41.1618
-39.7552
-41.2449
-39.4265
-38.7828
-39.5087
-38.4793
-39.3329
-41.1719
-39.4818
-39.9775
-39.2374
-38.7052
-39.8709
-39.0671
-39.3321
-40.0407
-75.9719
-64.9062
-91.1474
-9.35298
-51.701
-61.0144
-73.2736
-57.9002
-51.3259
-57.706
-73.1994
-60.9044
-74.5986
-9.24101
-90.9465
-65.0768
-43.6784
-40.3942
-41.339
-41.636
-43.4097
-41.8609
-43.7676
-44.7103
-36.6157
-38.0558
-41.3242
-40.5441
-45.3495
-42.1046
-42.3111
-42.934
-46.8891
-42.8777
-42.1426
-40.8611
-45.3294
-43.5794
-43.1929
-40.9521
-36.6405
-40.104
-42.7456
-38.3668
-42.7471
-46.4098
-45.8156
-41.2005
-46.1632
-46.3795
-45.1053
-43.4497
-46.4478
-43.8341
-45.1947
-46.4567
-42.8137
-42.5878
-44.6139
-44.7628
-42.8622
-44.5237
-44.5664
-42.5843
-46.8948
-42.6753
-38.7988
-51.328
-32.7752
-32.2237
-32.1608
-33.9723
-32.7939
-34.0409
-32.1457
-32.2497
-47.0469
-51.2968
-38.9005
-42.2406
-38.7321
-38.2164
-35.2244
-36.3536
-38.7511
-36.3529
-35.2648
-38.5671
-34.2242
-31.1328
-33.1891
-35.5302
-34.2825
-35.5796
-33.2318
-31.0642
-99.8336
-148.364
-104.384
-42.3407
-42.7107
-42.4976
-114.829
-138.561
-119.673
-35.7546
-33.9465
-34.8207
-116.639
-79.2676
-115.856
-42.4264
-42.281
-42.6015
-144.524
-113.032
-121.456
-33.9478
-35.7764
-34.7724
-38.9478
-39.1755
-37.2641
-40.2145
-51.0535
-40.5691
-46.0265
-43.7994
-46.6032
-46.4782
-52.0671
-58.5671
-45.9828
-46.893
-47.6862
-47.9198
-38.0194
-39.9294
-38.643
-34.9557
-56.1097
-43.5879
-38.9343
-37.1774
-46.2256
-59.2091
-46.4857
-51.7023
-45.6505
-47.6458
-46.6207
-47.0659
-102.368
-123.961
-137.235
74.5633
-132.678
-133.746
-141.019
-29.5579
-49.6368
-43.403
-49.6571
-49.7651
-37.8757
-36.9539
-39.7613
-36.3829
-40.9143
-40.9093
-41.8631
-39.5931
-42.2654
-40.8939
-41.6384
-42.975
-176.034
-185.148
-125.88
38.2788
-41.6241
-34.6606
-41.5544
-34.1295
-30.0108
-29.9861
-32.1375
-28.5884
-37.9351
-40.9743
-39.9435
-38.0648
-97.549
-108.727
-119.71
78.1919
-51.0246
-44.2603
-50.1007
-50.4539
-37.7025
-36.8681
-39.4736
-36.3874
-43.1656
-41.5078
-42.7287
-43.2585
-43.3341
-35.7751
-43.7858
-34.8353
-38.2662
-41.3844
-40.2404
-38.204
-38.2663
-39.6187
-39.6375
-38.7833
-38.6796
-39.2712
-38.4626
-39.5129
-43.3345
-43.3031
-44.7718
-42.2587
-43.9063
-43.2739
-43.4127
-42.8753
-42.9245
-42.9261
-41.4518
-45.1251
-54.3257
-52.4937
-51.691
-55.2232
15.402
15.4585
19.9736
6.5205
-56.617
-56.5519
-59.064
-54.0685
-37.4703
-39.0353
-39.5923
-38.3793
-37.7531
-38.4607
-37.6419
-38.5754
-40.4908
-41.2216
-41.3154
-40.7885
-53.8802
-52.4718
-51.2609
-54.8721
-53.8189
-48.862
-48.1678
-43.6933
-56.0919
-51.1323
-50.5681
-46.3334
-61.4746
-57.9886
-58.0362
-55.8097
-26.9562
-20.2126
-20.1865
-13.7807
201.762
201.87
200.204
201.189
-43.2951
-43.0766
-44.094
-44.1889
-44.196
-43.5439
-43.2442
-43.7877
-39.2456
-39.317
-39.2633
-39.1989
-83.5391
-90.1054
-78.6092
-83.5144
-44.5358
-43.342
-43.8196
-42.4083
-46.5693
-45.3457
-46.3666
-43.9373
-44.6074
-44.6456
-44.6849
-45.0199
-32.6117
-33.9048
-33.8993
-35.5451
-33.8748
-34.3984
-32.622
-33.8924
-75.2835
-83.803
-129.043
71.2887
-138.306
-139.816
-134.504
-35.1921
-82.3106
-60.4001
-72.366
-70.2256
-39.7668
-38.4108
-41.2546
-37.586
-41.465
-41.0887
-42.0969
-39.4487
-44.1137
-44.6637
-44.0927
-44.2573
-114.544
-126.744
-141.423
100.258
-195.634
-184.024
-113.335
-47.8881
-72.4187
-54.5747
-65.7622
-60.4732
-36.5851
-36.5944
-38.8383
-35.9105
-32.6919
-31.3987
-32.6932
-31.8563
-34.7901
-35.4533
-35.9042
-33.5659
-152.244
-145.356
-136.315
-38.7419
-53.019
-69.172
-127.227
69.0021
-84.2774
-61.5272
-74.2908
-71.3479
-41.3973
-41.0732
-42.0795
-39.4067
-39.5391
-38.2203
-40.5683
-37.5681
-43.6879
-45.2529
-44.7849
-44.3232
-199.238
-157.162
-114.094
-46.5547
-103.504
-100.619
-131.677
97.4763
-72.7478
-54.377
-64.5565
-60.8729
-32.7112
-30.9786
-32.7178
-31.8708
-36.5165
-36.5799
-38.6897
-35.8592
-34.839
-35.6798
-35.9114
-33.6393
-41.8662
-40.0187
-39.7316
-47.4181
-39.0188
-38.7537
-38.3746
-38.711
-37.6105
-38.1925
-37.8611
-38.1592
-41.7891
-42.8629
-43.5211
-41.4476
-41.1098
-41.2523
-39.8299
-42.7484
-39.9937
-38.8012
-41.1743
-39.4458
-45.9307
-44.4799
-43.5072
-45.3301
-42.7601
-42.822
-41.4062
-45.038
-37.2357
-34.0151
-36.2871
-23.8995
-42.5124
-40.4125
-39.9858
-42.2831
-55.1453
-55.2127
-52.8124
-59.1595
-4.87978
11.6729
9.46223
-2.05387
-44.0943
-43.1993
-43.5539
-45.4702
-44.7806
-43.4959
-44.3708
-43.5416
-49.3556
-51.1777
-50.0627
-51.9383
-54.2003
-55.3214
-56.6626
-52.5651
-39.7272
-42.1207
-37.379
-46.5011
-41.6113
-42.7683
-43.4057
-41.3041
-38.5988
-38.4908
-38.1988
-38.3544
-36.6595
-37.2062
-36.8228
-37.19
-42.1492
-41.9333
-40.6619
-43.1365
-42.7593
-42.827
-41.3047
-45.0985
-38.9641
-38.0437
-39.6811
-38.8847
-40.9626
-40.764
-40.6774
-44.7366
-37.4599
-35.0204
-36.945
-23.7355
-4.05694
11.9242
9.95668
-1.87874
-42.029
-39.7096
-39.5479
-41.8383
-54.5824
-54.8566
-51.4033
-58.6736
-44.1517
-43.5198
-43.7835
-45.4637
-53.4127
-55.2653
-56.5609
-52.5397
-44.1335
-42.1639
-43.4126
-42.7655
-48.8073
-50.7278
-49.124
-51.4716
-95.1373
-68.1227
-78.852
-78.3069
170.877
191.861
181.828
180.862
-91.3223
-73.4139
-81.0622
-81.134
27.5935
181.02
118.104
118.334
-49.6497
-49.3934
-54.2762
-45.116
-54.0469
-56.6799
-58.5273
-53.252
-41.8968
-42.0369
-42.692
-41.8604
-35.5634
-34.6673
-35.635
-34.5243
-43.381
-44.3618
-44.009
-43.996
-37.1146
-35.5375
-36.4565
-36.5317
-42.5274
-42.9676
-41.3227
-44.5424
-44.0283
-44.4434
-44.4807
-44.3291
-66.0734
-43.1537
-53.7023
-53.617
165.343
191.334
184.68
181.448
-44.9147
-46.372
-40.7639
-51.7285
-28.2545
-24.0111
-32.1744
-19.969
-31.897
-31.8157
-31.8972
-31.9021
-31.1339
-32.1336
-31.9331
-31.9052
-41.2092
-43.9734
-40.7361
-43.4435
-35.1861
-34.3353
-36.3583
-33.6747
-102.335
-71.8461
-83.8231
-82.9384
170.913
190.967
180.727
181.605
-51.263
-51.4426
-55.8938
-47.588
-54.3634
-56.8587
-58.822
-53.4738
-41.3152
-42.694
-41.3433
-42.0046
-35.5673
-34.6996
-35.7047
-34.5475
-44.826
-44.9394
-42.6582
-46.7379
-44.2446
-44.5606
-44.6802
-44.4769
-47.0821
-49.0386
-54.005
-43.5815
-28.5066
-23.6653
-20.1298
-32.2599
-42.847
-45.8827
-45.1724
-42.4484
-35.189
-34.3212
-33.6694
-36.4179
-41.4157
-42.4511
-41.0185
-42.3685
-38.9378
-39.1517
-39.0739
-39.1154
-38.013
-39.1561
-38.6566
-38.2313
-40.531
-43.2153
-41.8853
-43.302
-48.8018
-53.3532
-51.3624
-51.3656
-40.6883
-39.7586
-40.1278
-40.0642
-43.4243
-43.8407
-43.2812
-43.9464
-40.9528
-40.9705
-40.4925
-40.815
-39.9888
-39.5084
-39.6912
-39.7322
-46.4234
-45.587
-46.1428
-46.1817
-47.4136
-45.5274
-46.6193
-45.8008
-69.7848
-79.3343
-81.3451
-71.4148
10.2315
-2.30746
3.59276
3.6764
-35.6349
-87.7027
-65.9146
-65.9096
-64.3778
-70.6246
-66.9897
-66.9654
-48.9055
-42.9776
-46.1636
-46.1895
-40.7852
-42.2586
-40.4633
-41.5865
-38.6772
-39.0076
-38.8825
-38.9105
-37.4506
-39.6027
-38.0683
-38.2768
-40.2213
-41.2073
-40.2909
-41.253
-41.93
-42.6588
-42.6651
-41.897
-42.249
-42.3312
-42.0754
-42.3993
-48.0074
-45.7425
-46.6529
-45.7251
-69.3691
-79.2612
-71.2059
-80.7493
-93.4392
-76.6236
-78.2353
-66.7039
-38.0286
-37.9761
-39.3558
-38.5302
-37.5762
-38.2476
-37.9371
-37.7881
-81.3662
-68.6508
-77.2036
-66.0123
-96.9336
-79.3172
-81.175
-69.245
-80.7704
-67.3469
-82.0807
-70.3386
-38.0018
-38.1424
-38.5674
-37.8031
-37.6301
-36.9062
-40.5613
-37.9523
-87.6157
-76.0445
-79.2731
-70.0721
-88.0582
-76.3777
-79.5343
-70.4266
-49.2179
-47.3198
-51.7946
-50.6711
-49.2487
-47.3842
-51.7314
-50.68
-69.7783
-59.5451
-54.6052
-47.0749
-9.01905
0.209688
-9.25284
-0.696245
-8.91314
0.540453
-9.10689
-0.598245
-69.8039
-59.6606
-54.8161
-47.0194
128.944
95.5178
180.081
138.685
142.02
126.886
161.728
165.552
129.476
142.735
164.207
162.245
87.5905
134.627
138.212
175.331
-39.6741
-39.5054
-40.298
-40.6664
-42.0018
-42.3901
-42.2717
-42.6756
-45.3027
-46.9601
-45.0961
-46.4315
-44.347
-48.6124
-45.0701
-47.7555
-38.6148
-38.4886
-39.2612
-39.4495
-43.5929
-44.5637
-42.6954
-46.2245
-44.2846
-46.2522
-43.9561
-45.4343
-40.6496
-40.6646
-41.0276
-41.2413
-39.4196
-40.1125
-39.3797
-39.8972
-39.9526
-39.1998
-39.7726
-39.2022
-39.7233
-39.2757
-39.5478
-39.192
-39.5669
-39.9031
-39.3986
-39.6837
-90.6095
-42.9562
-84.6674
-70.5893
-58.5855
-60.1626
-64.7644
-64.4124
-59.9539
-58.7494
-64.3274
-64.6673
-42.2328
-86.222
-70.6809
-84.8873
-39.7015
-39.9862
-40.1905
-40.0882
-43.4059
-43.5587
-43.1404
-43.4194
-40.1352
-39.2485
-40.7748
-40.7117
-42.6354
-42.4365
-41.354
-40.3851
-41.1905
-41.2864
-41.4012
-41.7886
-43.0672
-42.2395
-42.6972
-42.0425
-40.0131
-39.0842
-40.6123
-40.613
-42.4767
-43.8525
-42.7788
-44.7056
-45.1058
-45.9838
-44.9123
-45.8683
-45.3904
-46.1953
-45.1209
-46.0006
-43.5174
-44.1707
-44.0597
-44.4413
-43.5147
-44.1071
-44.0109
-44.3528
-47.8123
-48.8739
-44.2592
-46.3113
-32.3113
-32.7729
-32.2384
-32.7524
-32.3502
-32.8128
-32.252
-32.7531
-47.4644
-48.8136
-44.2475
-46.2843
-36.9687
-37.5242
-36.2636
-36.7673
-37.5129
-37.0022
-36.7182
-36.2839
-32.8872
-34.6425
-32.7476
-34.1642
-34.6022
-32.8953
-34.1577
-32.7344
-116.021
76.4755
-135.538
44.6222
-103.047
-97.018
-42.679
-39.3634
-42.3689
-40.0077
-43.5251
-42.8611
-126.997
68.6422
-116.749
18.1471
-94.9462
-87.5608
-36.5404
-35.2814
-32.9975
-33.6511
-35.4342
-33.2053
-134.13
49.8439
-117.992
47.91
-107.121
-100.03
-42.2926
-40.033
-42.2456
-39.3376
-42.8314
-42.7608
-115.481
25.0364
-128.785
75.2551
-93.2329
-87.9556
-33.0893
-33.6503
-36.4735
-35.2973
-35.3047
-33.2889
-38.2402
-41.915
-37.6514
-39.1553
-37.2848
-37.6793
-42.1043
-40.2928
-46.1151
-46.6712
-41.0114
-39.7108
-43.7543
-48.1079
-41.4339
-45.841
-40.4817
-36.4732
-42.6209
-46.1413
-50.0789
-59.7555
-25.1459
-66.1355
-45.9272
-45.4815
-46.5484
-45.3441
-48.271
-49.7104
-50.6952
-47.9115
-37.9148
-41.6062
-41.8793
-40.0534
-36.9571
-38.8497
-36.3505
-36.7228
-49.1688
-47.4723
-41.1372
-46.0616
-39.3622
-39.0323
-40.0371
-51.5735
-41.067
-35.6947
-25.1896
-71.7017
-42.4543
-45.8557
-49.8976
-59.0555
-45.8093
-45.4372
-50.3793
-47.9203
-45.9201
-45.0316
-47.7801
-49.2659
-137.33
71.721
-132.705
90.2859
-111.759
-108.132
142.762
149.504
-141.098
-25.784
-141.171
-26.1825
-108.727
-108.766
-16.572
-16.3822
-56.8264
-57.4491
-43.4173
-46.1244
-52.5841
-45.7507
-55.1251
-49.5245
-40.3571
-36.8785
-39.4965
-36.1464
-41.5444
-40.9534
-36.2146
-35.5387
-41.9207
-39.2905
-41.9186
-39.3007
-42.5541
-42.5533
-38.0207
-38.0286
-45.5572
-44.7551
-39.8862
-42.1952
-41.0094
-44.8546
-43.7419
-44.109
-112.567
29.1322
-110.962
23.9681
-83.1522
-83.1492
127.818
134.203
-51.5543
-44.4212
-37.0415
-25.4672
-39.3374
-47.9076
-36.3017
-26.8528
-32.3763
-29.9399
-32.3427
-29.9139
-32.1611
-32.1797
-30.2861
-30.2581
-37.1927
-34.7413
-42.5592
-42.9394
-39.5716
-41.5309
-38.4422
-34.7144
-125.409
80.5578
-122.79
88.107
-114.99
-110.467
151.797
144.484
-59.1993
-58.1292
-48.2392
-47.0585
-54.6634
-48.0914
-55.5427
-49.923
-40.0134
-36.8673
-38.9711
-36.0892
-40.361
-40.8884
-36.2653
-35.5444
-47.4073
-45.0722
-40.8336
-42.7706
-41.8184
-46.7703
-44.0072
-44.3936
-54.1001
-45.6415
-38.4896
-26.3006
-50.674
-41.5666
-27.1325
-36.6702
-37.3245
-34.7837
-43.0497
-43.281
-42.6181
-39.8315
-34.7099
-38.3659
-38.6057
-38.6168
-40.506
-39.0658
-39.9053
-41.3969
-38.7608
-38.9303
-38.119
-38.894
-38.9711
-40.4364
-38.034
-38.2481
-39.8807
-40.6975
-44.4885
-42.0612
-44.4383
-41.9819
-46.2761
-46.2823
-41.359
-41.3178
-43.5543
-43.4303
-43.6337
-43.2863
-43.2353
-43.5096
-41.3733
-41.593
-41.4239
-45.0875
-41.3744
-45.1075
-40.0512
-40.0776
-46.4852
-46.5184
-51.9387
-57.6729
-51.8865
-54.8928
-48.2696
-49.1559
-62.5156
-59.7531
18.1509
6.35027
18.227
6.27717
16.4018
16.5412
-9.79667
-9.47659
-58.3349
-53.8104
-58.2533
-53.7728
-61.5331
-61.4888
-51.4137
-51.4108
-38.3162
-38.2207
-39.8763
-38.6149
-39.1609
-40.5094
-38.4449
-38.5865
-37.2134
-37.8589
-38.2942
-39.7999
-37.5955
-37.2471
-38.9597
-39.899
-41.0111
-42.4349
-42.0305
-41.0803
-41.9308
-41.361
-42.3492
-41.0217
-52.3948
-57.3195
-51.7996
-54.2665
-49.8176
-47.2656
-59.3579
-62.4976
-60.4566
-60.1116
-54.3146
-44.5639
-42.6383
-52.7294
-40.5406
-40.2036
-63.4313
-62.9986
-56.3447
-46.9516
-55.6089
-45.0494
-41.9669
-42.6019
-66.6255
-66.6718
-60.7122
-55.1351
-60.8231
-55.219
-54.5035
-54.4775
-35.4371
-35.4326
-28.9172
-15.8175
-15.5289