# vtk DataFile Version 2.0
tri_press
ASCII
DATASET UNSTRUCTURED_GRID
POINTS 3682 float
-0.7832 0.135 -2.125
-0.775 0.135 2.18728
-0.695 1.11569 -1.935
-0.585 1.79771 2.275
0.782645 0.135 -2.125
0.775 0.135 2.18625
0.695 1.125 -1.92538
0.585 1.79625 2.275
-0.8618 0.0536672 -0.687573
-0.858958 0.0537754 0.749853
-0.777384 1.46208 -0.531667
-0.735219 1.68392 0.871667
0.861429 0.0536672 -0.687917
0.858772 0.0537761 0.749167
0.775754 1.46617 -0.525253
0.734213 1.68505 0.874874
-1.57693 -0.662101 -3.33891
-1.58418 -0.568055 -2.20353
-1.63303 -0.630358 -0.764932
-1.62057 -0.689785 0.681096
-1.55353 -0.648606 2.12033
-1.53936 -0.567065 3.25881
-1.55003 -0.471283 4.39165
-1.57037 -0.0387677 -3.25471
-1.57228 0.101429 -2.12344
-1.63561 0.0923477 -0.691528
-1.60402 0.0890832 0.743941
-1.50255 0.153176 2.17657
-1.50898 0.235022 3.31451
-1.53598 0.325614 4.44845
-1.53232 1.10943 -3.07758
-1.50348 1.23971 -1.94629
-1.56196 1.49352 -0.537874
-1.50267 1.67857 0.868761
-1.37021 1.79113 2.2781
-1.43782 1.86312 3.41779
-1.50668 1.93514 4.55757
-1.51883 3.0973 -2.83631
-1.50891 3.27296 -1.7092
-1.52049 3.59652 -0.313225
-1.513 3.90923 1.07586
-1.48837 4.11522 2.47281
-1.49506 4.2172 3.60197
-1.52261 4.29391 4.73828
-0.796221 -0.643072 -3.33975
-0.781431 -0.540796 -2.20579
-0.82898 -0.645986 -0.763715
-0.839587 -0.718897 0.685916
-0.799711 -0.669704 2.12823
-0.797154 -0.581662 3.26425
-0.808481 -0.481214 4.39495
-0.802832 -0.0348786 -3.25341
-0.789758 0.224886 3.31904
-0.806345 0.318604 4.45101
-0.774406 1.06047 -3.07071
-0.734984 1.86483 3.41741
-0.791118 1.93547 4.55777
-0.753196 3.05802 -2.82988
-0.739889 3.23277 -1.70244
-0.755893 3.58037 -0.30869
-0.76846 3.91694 1.07668
-0.764114 4.12851 2.47111
-0.773899 4.22781 3.60013
-0.796663 4.30123 4.73707
0.768541 -0.64147 -3.33783
0.816347 -0.54036 -2.20525
0.855061 -0.645784 -0.763655
0.835975 -0.718799 0.685579
0.773696 -0.6697 2.12761
0.716328 -0.581756 3.26398
0.687499 -0.481248 4.39509
0.736978 -0.0325478 -3.25076
0.681089 0.224627 3.31871
0.66442 0.318471 4.45113
0.707562 1.06565 -3.06502
0.616333 1.8642 3.41752
0.63488 1.93525 4.55814
0.762654 3.06187 -2.82511
0.775764 3.23661 -1.69749
0.765937 3.58309 -0.304573
0.719131 3.91829 1.07943
0.670282 4.12894 2.47275
0.654622 4.22799 3.60134
0.649555 4.30142 4.73813
1.55683 -0.658549 -3.33451
1.60352 -0.565877 -2.20069
1.65607 -0.629114 -0.7633
1.63578 -0.689311 0.681473
1.5527 -0.648639 2.1199
1.48515 -0.567172 3.25873
1.44905 -0.471249 4.39215
1.52499 -0.0339945 -3.24903
1.5688 0.104659 -2.11933
1.64239 0.09412 -0.688956
1.6222 0.0895303 0.744626
1.51722 0.152766 2.17594
1.44468 0.234629 3.31435
1.42002 0.325484 4.44894
1.48508 1.11777 -3.06797
1.49883 1.24916 -1.93522
1.56516 1.49878 -0.529787
1.51514 1.68008 0.872765
1.37793 1.79015 2.27892
1.36184 1.86237 3.41839
1.37611 1.93491 4.55852
1.52535 3.10435 -2.82738
1.5362 3.27985 -1.70012
1.52982 3.60153 -0.30562
1.47772 3.91188 1.0811
1.41373 4.11625 2.47612
1.39085 4.21774 3.60447
1.38721 4.29442 4.74049
-0.805378 0.625345 -2.09628
-0.000277519 0.116902 -2.1431
-0.82663 0.0902029 -1.40629
-0.714625 0.966355 2.26576
0 0.151666 2.1701
-0.826423 0.0849435 1.46857
0 1.16845 -1.9783
-0.79944 1.35213 -1.23333
0 1.82386 2.30188
-0.690479 1.77119 1.57333
0.806171 0.63 -2.09254
0.826214 0.0901567 -1.40646
0.71521 0.965625 2.26583
0.826819 0.0844549 1.46771
0.797943 1.35815 -1.22532
0.690041 1.77108 1.57494
-0.860382 0.0537183 0.03114
-0.889522 0.757874 -0.60962
-0.000185013 0.0861774 -0.687745
-0.889162 0.868849 0.81076
-9.28594e-05 0.102168 0.74951
-0.770008 1.58671 0.17
-0.000814941 1.83196 -0.52846
-0.000502754 1.8679 0.87327
0.860104 0.0537187 0.030625
0.889074 0.759919 -0.606585
0.888622 0.869411 0.81202
0.768601 1.58923 0.17481
-0.888799 0.691609 -1.31981
0.888812 0.694959 -1.31589
-0.000231266 0.120332 -1.40637
-0.00040747 1.50353 -1.22933
-0.00013876 0.627673 -2.31999
-0.893719 0.813361 0.10057
0.893036 0.814665 0.102718
-0.000138936 0.0869818 0.0308825
-0.000658847 1.85967 0.172405
-0.877771 0.917602 1.52095
0.87721 0.917518 1.52132
-4.64297e-05 0.120571 1.46814
-0.000251377 1.86563 1.57414
0 0.96599 2.30733
-0.790807 0.380173 -2.10716
-0.391739 0.115563 -2.14444
-0.820998 0.0965186 -1.76564
-0.771592 0.550677 2.2533
-0.3875 0.153567 2.16846
-0.799721 0.110962 1.82792
-0.746326 0.870517 -2.01178
-0.3475 1.1603 -1.97488
-0.74866 1.23535 -1.58417
-0.618428 1.38203 2.239
-0.2925 1.82431 2.30196
-0.653966 1.80067 1.92417
0.391184 0.115556 -2.14444
0.789868 0.3825 -2.10423
0.820741 0.0962671 -1.76573
0.3875 0.154029 2.16748
0.772003 0.550313 2.25294
0.798914 0.111723 1.82698
0.3475 1.16285 -1.96797
0.748229 0.8775 -2.0066
0.743821 1.23892 -1.57535
0.2925 1.82425 2.30263
0.618528 1.38094 2.23884
0.653967 1.80011 1.92497
-0.862499 0.0536507 -1.04693
-0.861091 0.0536927 -0.328217
-0.876681 0.405261 -0.648597
-0.410376 0.111154 -0.687659
-0.830898 0.0811524 1.10921
-0.859673 0.0537439 0.390497
-0.887064 0.45481 0.780307
-0.413467 0.110089 0.749682
-0.787758 1.40645 -0.8825
-0.880128 1.13331 -0.570643
-0.782751 1.53345 -0.180833
-0.475709 1.82024 -0.530063
-0.715233 1.72994 1.2225
-0.854639 1.29761 0.841214
-0.753686 1.63639 0.520833
-0.410311 1.86081 0.872469
0.862074 0.0536599 -1.04719
0.409949 0.111268 -0.687831
0.860767 0.0536929 -0.328646
0.876173 0.406333 -0.647251
0.830052 0.0818593 1.10844
0.413027 0.110597 0.749338
0.859441 0.0537444 0.389896
0.878021 0.459432 0.780593
0.786057 1.41137 -0.875285
0.473474 1.82107 -0.526857
0.879315 1.1365 -0.565919
0.782321 1.53784 -0.175222
0.714439 1.73038 1.22491
0.409042 1.86085 0.874072
0.853825 1.29843 0.843447
0.752452 1.63818 0.524842
-0.875481 0.658477 -1.70804
-0.402759 0.626509 -2.29035
-0.000254393 0.125318 -1.77474
-0.000208139 0.372287 -2.30438
-0.874815 0.390906 -1.36305
-0.413431 0.12147 -1.40633
-0.866492 0.941978 1.89336
-0.357312 0.966172 2.30302
-2.32148e-05 0.132413 1.81912
0 0.558828 2.31868
-0.873274 0.501273 1.49476
-0.413235 0.127487 1.46835
-0.000203735 1.2424 -1.60381
-6.93798e-05 0.898063 -2.22974
-0.880298 1.02187 -1.27657
-0.399924 1.48813 -1.23133
-0.000125688 1.85897 1.93801
0 1.39492 2.26671
-0.837179 1.34439 1.54714
-0.345365 1.86113 1.57373
0.876708 0.66248 -1.70421
0.403016 0.628836 -2.28896
0.87053 0.392558 -1.36117
0.412991 0.121844 -1.40642
0.865948 0.941572 1.89358
0.357605 0.965807 2.30332
0.873222 0.500987 1.49452
0.413386 0.127669 1.46792
0.879582 1.02656 -1.2706
0.398768 1.49081 -1.22732
0.836646 1.3443 1.54813
0.344895 1.86112 1.57454
-0.882108 0.431011 0.065855
-0.409311 0.112249 0.0310112
-0.883291 0.724742 -0.964715
-0.891843 0.785618 -0.254525
-0.000208139 0.0990094 -1.04706
-0.000161974 0.0865645 -0.328431
-0.892799 0.841105 0.455665
-0.884893 0.893225 1.16586
-0.000115898 0.0873841 0.390196
-6.96445e-05 0.119912 1.10882
-0.868187 1.2182 0.135285
-0.449035 1.85059 0.171203
-0.000611206 1.72212 -0.878893
-0.000736894 1.84759 -0.178028
-0.000580801 1.86584 0.522838
-0.000377065 1.86682 1.2237
0.881623 0.431665 0.0666713
0.410085 0.110146 0.0307537
0.882909 0.727439 -0.961236
0.891351 0.787292 -0.251934
0.892264 0.842038 0.457369
0.885447 0.893465 1.16667
0.866588 1.21983 0.138764
0.4471 1.8507 0.173608
-0.869365 0.385539 -1.73684
-0.879077 0.398338 -1.00582
-0.88229 1.06592 -0.923608
-0.870419 0.946195 -1.64611
0.862448 0.387529 -1.73497
0.870042 0.952028 -1.63978
0.881538 1.0698 -0.918261
0.876671 0.399676 -1.00421
-0.402585 0.127686 -1.77019
0.402088 0.12743 -1.77023
0.421807 0.107816 -1.04712
-0.422212 0.10811 -1.04699
-0.373712 1.23517 -1.59399
-0.394512 1.70864 -0.880696
0.393119 1.71069 -0.877089
0.373134 1.23628 -1.58958
-0.397249 0.37623 -2.28681
-0.375129 0.88429 -2.16845
0.375258 0.887781 -2.17624
0.3971 0.377394 -2.28632
-0.879737 0.417964 -0.291371
-0.881781 0.444313 0.423081
-0.861741 1.25807 0.488249
-0.87713 1.17724 -0.217679
0.879259 0.418818 -0.29029
0.876399 1.17989 -0.213578
0.861034 1.25955 0.491105
0.881278 0.44482 0.423632
-0.410071 0.111247 -0.328324
0.409731 0.111279 -0.328539
0.411506 0.110472 0.390046
-0.412382 0.109182 0.390346
-0.463491 1.83765 -0.17943
-0.430603 1.85756 0.521836
0.429026 1.85769 0.52384
0.461254 1.83782 -0.176625
-0.877182 0.481292 1.13753
-0.859532 0.525975 1.86064
-0.825248 1.36321 1.90876
-0.849116 1.31039 1.19418
0.878861 0.48129 1.13755
0.848463 1.31076 1.19579
0.824806 1.36262 1.90927
0.858991 0.52565 1.86028
-0.42138 0.127091 1.10902
0.421363 0.127519 1.10863
0.400443 0.137828 1.82305
-0.400367 0.137256 1.82352
-0.356613 1.86221 1.2231
-0.318933 1.85554 1.93109
0.318697 1.85502 1.93149
0.355875 1.86222 1.2243
-0.372406 0.554753 2.31315
0.372552 0.55457 2.31313
0.325052 1.38793 2.26301
-0.324906 1.38848 2.26291
-0.784181 0.257586 -2.11326
-0.587469 0.111403 -2.1486
-0.81949 0.0983684 -1.94532
-0.799654 0.342839 2.24665
-0.58125 0.150689 2.17146
-0.792089 0.118253 2.0076
-0.728304 0.993104 -1.98103
-0.52125 1.14689 -1.96384
-0.733137 1.18683 -1.75958
-0.552636 1.58987 2.20792
-0.43875 1.82597 2.30345
-0.626421 1.80613 2.09958
0.586914 0.111397 -2.1486
0.791428 0.25875 -2.11979
0.818986 0.0983403 -1.94536
0.58125 0.156311 2.16507
0.799991 0.342656 2.24609
0.791677 0.118642 2.00661
0.52125 1.15159 -1.95433
0.729532 1.00125 -1.97391
0.728699 1.19125 -1.75036
0.43875 1.82581 2.30438
0.552694 1.58859 2.20785
0.626787 1.80548 2.09998
-0.862151 0.0536578 -0.867252
-0.861445 0.05368 -0.507895
-0.860135 0.234017 -0.668085
-0.633799 0.0869881 -0.687616
-0.836435 0.075957 0.929532
-0.859318 0.0537567 0.570175
-0.874411 0.253593 0.76508
-0.632349 0.0896584 0.749768
-0.782471 1.43417 -0.707083
-0.817848 1.29224 -0.551155
-0.772025 1.48972 -0.35625
-0.681663 1.75139 -0.530865
-0.725453 1.70716 1.04708
-0.802732 1.49467 0.85644
-0.744741 1.66044 0.69625
-0.608191 1.84322 0.872068
0.861757 0.0536578 -0.867552
0.633432 0.0869825 -0.687874
0.861098 0.05368 -0.508281
0.859607 0.234597 -0.667584
0.833621 0.0786083 0.928802
0.632162 0.089663 0.749253
0.85911 0.0537573 0.569531
0.874139 0.253733 0.76488
0.780914 1.43878 -0.700269
0.679695 1.75378 -0.526055
[...]
POINT_DATA 3682
SCALARS point_scalars float 1
LOOKUP_TABLE default
-163.634
-74.7949
-49.7824
-52.4725
-164.951
-74.6884
-50.8666
-52.0182
-54.6415
-54.7449
-84.656
-59.6618
-54.5855
-55.1057
-84.4736
-59.3861
-102.406
-182.716
-56.2983
-54.379
-66.5602
-76.0315
-62.829
-113.403
-209.231
-55.639
-54.9356
-69.6278
-65.6157
-60.9524
17.6472
-110.223
-70.2051
-58.9815
-55.3223
-52.2594
-52.2594
-52.8362
-110.455
-88.7551
-58.2848
-52.6615
-54.0357
-50.9199
-45.1337
-240.357
-55.1718
-54.428
-66.7446
-66.5682
-60.7314
-8.8842
-60.9427
-60.0941
134.095
-52.2594
-52.2594
-41.598
-98.6887
-91.5581
-58.1821
-51.2913
-50.6037
-50.6037
-45.3451
-238.966
-55.1461
-54.4866
-66.8154
-60.8372
-60.8293
-8.0353
-60.818
-59.4631
130.732
-49.5163
-49.5163
-40.8379
-115.322
-91.5797
-58.246
-50.8756
-49.8026
-49.6034
-108.101
-182.856
-56.0674
-54.4394
-66.5612
-75.9889
-62.8304
-112.689
-205.293
-55.4596
-54.5556
-69.5504
-65.626
-60.9194
32.8265
-109.173
-70.4503
-58.829
-54.8563
-51.9295
-51.9295
-56.4515
-110.069
-88.1142
-58.0328
-52.3094
-53.6904
-50.1773
-80.6437
-171.432
-68.1838
-57.5396
-68.1626
-57.6446
-32.1593
-126.997
-43.2823
-56.9154
-84.4171
-68.0902
-57.4779
-57.9497
-126.641
-56.7912
-52.2877
-63.1231
-57.6178
-56.5686
-58.7867
-68.3093
-130.829
-62.3188
-52.2565
-63.0736
-56.3997
-68.2208
-85.7196
-85.8494
-73.7671
13.5724
197.172
-57.5986
-57.5056
-55.549
-78.2652
-58.5445
-58.5203
-59.7242
-55.3694
-60.3052
-68.9404
-175.366
-100.576
-62.6802
-68.3938
-65.5227
-69.9455
-32.948
-44.3563
-50.4142
-46.8202
-56.2193
-175.154
-79.4121
-100.111
-68.4215
-62.6942
-65.4822
-32.9404
-71.9561
-41.9702
-46.2946
-50.0968
-56.0296
-67.1644
-52.7889
-58.7608
-57.4227
-54.6777
-52.8877
-55.1969
-57.8157
-100.453
-70.3073
-74.1733
-124.072
-57.6704
-58.2205
-62.6588
-61.5841
-67.104
-57.4521
-52.7643
-58.746
-54.6571
-57.5277
-52.8504
-54.8462
-100.296
-123.916
-70.3843
-74.1951
-57.5509
-61.1707
-58.1074
-62.6689
-118.134
167.402
-103.657
183.763
-80.4208
-72.0656
-61.6613
-58.7624
-63.9921
-59.5765
-59.2081
-59.5326
16.092
142.339
-95.1695
7.86489
-51.6176
-45.2488
-57.5609
-55.5594
-118.5
166.504
-80.3298
-72.0695
-61.5552
-58.7474
-59.2261
-59.6247
-95.5011
7.52585
-57.4027
-55.5001
-54.9097
-54.5573
-70.4412
-59.1057
-63.4379
-56.3506
-56.963
-57.3056
-56.5697
-57.0241
-62.3384
-75.4108
-72.1381
-96.7333
-67.6492
-58.3534
-54.8619
-55.0042
-70.4017
-59.0706
-56.8514
-57.2827
-62.3098
-75.3702
-114.176
-66.8907
-78.7009
-121.773
-113.965
-121.256
-78.9578
-66.8292
-102.544
-102.57
-63.1257
-62.78
7.72449
-65.4241
-66.6969
8.0562
163.678
133.947
122.444
164.775
-55.8753
-54.7215
-59.7997
-65.4487
-55.8505
-65.4461
-59.749
-54.6981
-55.4562
-55.3566
-55.7076
-55.488
-90.7887
-66.1589
-66.2967
-90.6318
-56.7174
-62.4205
-58.4968
-57.4402
-56.8358
-57.3081
-58.1977
-62.4778
-56.7177
-56.7302
-64.1642
-64.1623
-58.2429
-52.4028
-52.2479
-58.1641
-59.2476
-59.2214
-46.7522
-46.9975
-87.1599
-207.989
-147.975
-66.19
-70.3602
-63.5482
-48.7251
-38.6865
-54.9855
-48.445
-49.8014
-55.3225
-207.496
-82.8173
-147.225
-70.1097
-66.2173
-63.66
-38.2653
-47.6965
-52.6065
-49.2892
-47.9773
-54.9544
-58.2634
-53.8822
-57.3173
-55.8763
-56.0634
-53.3526
-54.1443
-59.6733
-92.539
-77.6183
-77.9219
-108.261
-58.6641
-59.0756
-60.8784
-61.3055
-58.3519
-55.9107
-53.8514
-57.2467
-54.3177
-59.5346
-53.3436
-54.0914
-92.1181
-107.937
-77.6482
-77.7319
-58.3318
-58.5572
-58.9616
-60.9088
-88.0895
-82.794
-159.597
105.479
-171.727
-171.705
-130.405
130.425
-81.1993
-52.8811
-76.734
-69.485
-60.4328
-54.4614
-62.9954
-57.8567
-68.3436
-68.3636
-64.3499
-59.2158
-61.2699
-55.8502
-58.9941
-58.9179
-30.5155
-30.1206
-9.36688
86.5794
-68.0066
-115.209
-118.534
-17.26
-44.4738
-44.1329
-48.6191
-38.3056
-53.5876
-57.2149
-57.0686
-56.7834
-94.3126
-84.6669
-159.056
104.145
-81.0997
-53.001
-76.7909
-69.5009
-60.383
-54.3261
-62.8448
-57.8295
-61.7929
-55.6651
-59.3565
-59.0271
-66.562
-114.751
-119.125
-14.847
-53.6807
-57.1325
-56.9018
-56.7105
-52.4315
-52.4156
-53.7522
-54.0408
-60.9296
-65.9258
-65.9496
-60.8114
-57.4418
-57.4417
-59.6271
-57.4734
-55.6086
-57.2695
-56.6494
-56.7265
-59.1901
-59.1463
-57.9416
-57.5368
-72.4119
-65.2877
-66.0129
-71.7065
-129.316
-129.221
-140.149
-112.441
-62.1713
-62.0695
-64.8989
-60.245
-52.3941
-52.3964
-53.7048
-54.1217
-60.9117
-65.8386
-65.9166
-60.7689
-55.2763
-57.1506
-56.5028
-56.5565
-72.2827
-65.252
-65.9997
-71.6818
-99.0253
-82.4671
-90.1388
-78.4364
-99.1758
-82.6973
-90.1432
-78.3817
-85.4153
-73.3474
-73.3536
-65.8326
31.8109
12.4167
12.115
-22.2629
192.557
198.688
183.333
192.318
-56.2544
-58.1142
-57.2962
-59.2595
-56.1853
-58.0661
-57.1865
-59.2145
-55.3614
-55.7348
-55.8323
-55.4091
-77.5434
-86.0945
-71.9421
-77.555
-60.0353
-59.0209
-58.069
-57.7545
-60.0297
-58.9825
-57.976
-57.766
-62.6129
-59.673
-59.7045
-57.7234
-53.7648
-55.4137
-55.3805
-56.8086
-59.6632
-59.3619
-56.2985
-59.6523
-165.958
98.9964
-132.033
123.54
-110.121
-101.264
-65.5035
-59.1025
-64.6411
-58.8867
-62.4672
-65.3818
-136.141
75.8289
-16.4807
64.0998
-113.337
-8.53316
-57.2591
-48.2598
-50.176
-42.2968
-56.3428
-52.8648
-132.072
124.091
-164.412
99.8638
-109.425
-101.234
-64.8011
-58.8535
-65.479
-59.0687
-62.5758
-64.1697
-15.9515
65.0685
-136.264
76.6613
-112.749
-6.44526
-49.9201
-41.5961
-56.9132
-47.9447
-56.0107
-52.6667
-67.5983
-63.9917
-54.4813
-54.6046
-61.5166
-57.1364
-59.8785
-56.423
-56.3264
-57.35
-53.7387
-54.9803
-54.3147
-56.6558
-56.8973
-56.9382
-89.4569
-86.0073
-74.6103
-66.5299
-70.7798
-81.7221
-129.177
-104.846
-57.7004
-58.1471
-58.8399
-57.6247
-61.6634
-64.4524
-63.4213
-59.7332
-67.6103
-64.0268
-59.9082
-56.5157
-54.4295
-54.6056
-61.4143
-57.1057
-56.4168
-57.3444
-56.5953
-56.9732
-53.7121
-54.9565
-54.3999
-56.1179
-89.5415
-88.0882
-129.529
-104.798
-74.3033
-66.4722
-71.0335
-81.5464
-57.56
-58.3059
-63.5112
-59.4554
-58.7696
-57.4816
-61.6639
-64.7374
-115.256
-123.722
175.079
157.051
-103.429
-103.443
181.435
181.55
-94.4087
-72.5676
-83.6748
-64.5175
-61.8997
-61.2133
-59.6696
-56.3425
-64.106
-64.0736
-59.5146
-59.5034
-58.7727
-61.0295
-57.5323
-62.6215
14.5027
14.8438
133.423
131.153
-85.8986
-105.108
22.2646
-24.911
-51.9084
-51.8206
-45.8681
-46.006
-57.7877
-57.4093
-56.9114
-54.0903
-114.734
-122.949
157.061
174.58
-94.2507
-72.5634
-83.6835
-64.3978
-61.0363
-61.839
-59.6522
-56.3414
-58.9805
-61.2929
-57.5715
-62.7148
-105.06
-86.4024
-26.097
22.7451
-57.2981
-57.602
-54.0085
-56.8725
-55.2684
-54.8028
-55.0304
-55.136
-68.4622
-73.988
-57.5791
-61.0249
-63.38
-63.2821
-56.1358
-56.1358
-55.8979
-58.0708
-57.1824
-57.3316
-56.3416
-56.3648
-56.8829
-56.8895
-61.2542
-64.2542
-82.4892
-69.9819
-68.6244
-69.6983
-95.3582
-95.2251
-67.2374
-67.2503
-58.3384
-58.2884
-55.2335
-54.7432
-54.835
-54.9493
-74.0593
-68.4979
-57.5496
-61.0768
-57.9502
-55.8084
-57.2002
-57.2648
-64.2293
-61.1077
-70.0267
-82.4057
-167.549
-91.1166
-96.2614
-159.12
-59.7878
-63.5698
-75.1179
-69.6831
-82.845
-99.4617
-80.8706
-69.4341
-106.575
-153.45
-101.998
-110.487
-163.569
-156.559
-96.1012
-90.9773
-106.032
-111.882
-102.094
-153.063
-82.4489
-69.3273
-80.8681
-99.8283
-59.7303
-69.8719
-75.1081
-63.4668
-135.551
-130.715
-84.9908
-81.314
-135.627
-81.322
-85.0003
-130.728
-59.5526
-59.6156
-65.432
-60.8004
-59.5276
-60.7266
-65.4172
-59.604
-26.959
4.51786
29.8442
-10.8273
-117.855
-139.332
-21.5544
-47.0895
-116.805
-49.5895
-22.2269
-139.615
-25.9332
-10.4836
29.9329
5.15155
103.293
94.4682
194.659
137.05
35.8446
87.4629
180.322
83.1847
31.3831
81.4896
178.88
86.8509
104.132
136.71
194.717
94.7292
-55.7043
-54.2852
-56.6876
-59.0546
-53.1718
-55.7437
-56.0993
-53.8197
-60.1848
-63.6375
-58.727
-57.4943
-72.4553
-63.0802
-59.7662
-69.0781
-55.6692
-59.0335
-56.6545
-54.2298
-72.3857
-69.0757
-59.4359
-63.0694
-60.1409
-57.3709
-58.6568
-63.6217
-53.2181
-53.7768
-55.9912
-55.5745
-55.5911
-57.2345
-55.535
-54.1323
-55.594
-54.1494
-55.5492
-57.2448
-55.9879
-57.4945
-55.634
-54.2993
-56.1097
-54.2777
-55.6251
-57.5796
-92.9112
-76.8934
-85.1506
-111.047
-60.394
-64.4438
-71.455
-67.865
-63.2605
-67.7233
-71.4625
-64.4126
-92.5955
-111.017
-85.0738
-76.8507
-56.2112
-58.637
-58.4895
-56.6621
-66.2467
-64.3131
-60.5129
-61.5676
-55.2386
-56.7507
-59.0382
-60.9465
-58.2507
-56.6056
-57.4663
-57.3639
-55.3927
-56.5533
-58.4832
-58.5178
-58.0946
-57.2346
-57.3904
-56.5192
-54.7493
-60.7366
-58.9112
-56.5297
-66.1296
-61.9212
-60.8098
-64.2139
-53.8679
-57.2429
-57.6593
-56.9698
-53.8116
-57.0396
-57.6791
-57.289
-65.3714
-64.4159
-62.6698
-63.0593
-63.9411
-62.7195
-62.6335
-64.3721
-58.2766
-57.1986
-56.8312
-60.1179
-51.6948
-49.1274
-53.8812
-53.5922
-51.4063
-53.5285
-53.8306
-48.9767
-57.1951
-60.0243
-56.8
-57.2311
-58.9945
-59.1322
-59.4923
-59.3681
-58.9548
-59.3415
-59.4904
-59.1172
-45.185
-39.0289
-56.6526
-55.1699
-45.8356
-55.2394
-56.6469
-39.4476
-99.8195
-183.427
-175.509
-70.5018
-71.936
-67.6144
-38.8873
-29.13
-56.4462
-47.4909
-50.8602
-52.7284
-183.941
-106.069
-174.973
-71.6295
-70.5671
-67.4992
-31.9328
-38.6823
-56.8934
-50.336
-47.0031
-52.365
-55.7466
-54.4714
-56.5516
-55.3865
-60.4158
-53.9294
-53.4635
-58.0888
-88.6634
-80.6678
-81.1798
-93.0655
-58.9833
-59.3528
-60.104
-60.2732
-55.7053
-55.4129
-54.4271
-56.4471
-60.1912
-57.982
-53.9741
-54.0975
-88.09
-92.8326
-80.5859
-80.9276
-58.5951
-59.2129
-59.1882
-59.9593
-97.7951
-80.5244
-176.614
37.4362
-170.988
-171.002
-149.118
-63.0321
-73.7614
-61.6826
-73.1012
-67.9852
-59.3445
-55.4118
-63.4675
-57.4183
-67.3867
-67.3975
-65.5075
-60.9501
-59.6703
-56.4109
-58.7098
-58.6435
-30.7995
-30.5756
-23.1942
-26.5779
-96.7054
-132.41
-135.386
-69.4664
-44.1025
-43.913
-46.9466
-38.9255
-55.5535
-56.5923
-56.8597
-60.114
-105.501
-83.5843
-175.878
35.5826
-73.8128
-61.4692
-72.9668
-67.9959
-59.3099
-55.281
-63.3378
-57.3733
-59.9952
-56.8354
-59.2093
-58.8275
-97.6468
-133.687
-134.066
-69.2176
-55.3127
-56.528
-56.7145
-60.1096
-52.2652
-52.3537
-53.2797
-53.8078
-61.9895
-64.4169
-64.4483
-61.888
-57.6539
-57.6585
-57.5603
-58.1431
-56.1467
-57.0584
-56.5113
-56.5217
-59.1041
-59.0889
-59.4024
-58.1829
-70.0717
-66.7275
-67.2829
-69.8081
-130.521
-130.485
-138.832
-121.926
-62.2802
-62.2361
-63.4994
-61.2461
-52.2449
-52.3765
-53.2379
-53.6613
-61.9587
-64.3457
-64.3979
-61.8428
-55.9512
-56.9144
-56.3491
-56.3558
-69.968
-66.6718
-67.2292
-69.7377
-91.4616
-84.1387
-87.9069
-82.5357
-91.4623
-84.2795
-87.9268
-82.548
-78.962
-73.6576
-73.6621
-69.7146
26.4048
13.4173
13.225
-0.256845
196.107
205.023
183.408
195.932
-56.9107
-57.8265
-57.4353
-58.4069
-56.8225
-57.754
-57.3386
-58.3122
-55.5066
-55.6213
-55.6321
-55.5234
-78.0476
-82.0219
-74.7397
-78.0473
-59.4889
-58.9561
-57.8614
-57.962
-59.4998
-58.8893
-57.8021
-58.0105
-61.0016
-59.7073
-59.7224
-58.618
-54.615
-55.3673
-55.3534
-56.0852
-60.0876
-59.984
-58.4355
-60.0815
-68.9243
-75.6553
-215.98
79.6952
-190.257
-173.641
-154.7
-11.0908
-117.799
-89.7408
-105.462
-100.467
-64.1326
-61.4502
-68.6426
-59.5944
-68.3132
-67.725
-65.911
-60.6197
-63.2959
-66.0733
-62.7601
-64.3895
-58.956
-85.5486
-116.499
8.39446
-36.9851
-30.5859
-29.841
-17.232
-49.048
-41.0249
-87.2824
-19.5863
-48.9939
-52.2567
-54.0454
-49.1389
-48.3095
-45.52
-48.8449
-42.9289
-55.8441
-54.0003
-55.8525
-52.5888
-190.297
-173.621
-154.791
-10.8779
-78.5446
-85.7669
-214.941
79.5867
-117.18
-89.4406
-104.628
-100.359
-68.2989
-67.773
-66.1014
-60.6516
-64.1504
-61.4242
-68.5047
-59.5549
-63.1801
-66.3951
-62.7313
-64.0674
-36.6555
-30.4329
-28.6784
-20.31
-60.6881
-86.2956
-116.717
5.83976
-47.3626
-39.2226
-87.869
-17.9288
-47.7646
-45.0605
-48.5002
-42.2425
-48.5841
-52.0417
-53.6544
-48.8075
-55.4711
-53.8816
-55.5564
-52.4245
-61.1996
-56.4299
-69.0892
-64.8801
-53.2735
-52.5857
-54.0037
-54.1809
-57.9959
-59.8431
-59.9665
-57.9445
-57.4144
-57.0804
-58.6071
-56.8704
-55.423
-54.761
-55.6175
-56.2725
-52.9272
-52.5032
-53.5519
-54.4785
-54.8128
-55.8656
-53.6861
-57.1973
-57.6121
-58.7056
-57.5738
-57.6964
-97.029
-105.904
-94.1641
-120.894
-74.7236
-67.3805
-72.209
-68.3124
-74.6456
-74.5424
-72.8162
-77.0005
-115.514
-127.145
-130.467
-113.755
-57.8359
-57.1874
-57.7275
-56.9063
-58.7126
-57.763
-58.4388
-57.9056
-61.7287
-63.8104
-62.3033
-63.0458
-61.4391
-61.9258
-62.5097
-60.6102
-61.2232
-56.6627
-69.0023
-64.8926
-57.4046
-57.0743
-58.6127
-56.6997
-53.2471
-52.5834
-53.9473
-54.1871
-57.9609
-59.8312
-59.955
-57.8638
-55.1249
-54.5709
-55.5362
-56.2557
-57.4624
-58.6599
-56.9347
-57.6917
-52.8974
-52.4749
-53.5126
-54.4489
-54.3107
-55.0007
-54.3526
-55.8045
-96.4533
-105.779
-94.0368
-119.474
-115.751
-127.055
-130.381
-113.52
-74.8645
-67.2622
-72.0809
-68.6635
-74.5665
-74.5171
-72.9986
-77.006
-57.6131
-57.1203
-57.5924
-57.0834
-60.4682
-61.7307
-62.3143
-60.2096
-58.5935
-57.6513
-58.3551
-57.7642
-61.7719
-63.7754
-62.3197
-63.1518
-133.701
-107.519
-116.641
-121.839
142.051
182.944
175.131
156.034
-115.851
-93.5848
-103.504
-103.511
165.907
194.376
183.693
183.745
-78.7718
-81.6198
-86.7908
-75.4378
-71.1331
-72.8061
-77.1654
-68.0282
-62.1563
-60.7957
-61.6994
-61.7784
-58.382
-59.1434
-59.7121
-57.3873
-64.2555
-63.6731
-64.0718
-64.0539
-59.2625
-59.5652
-59.5261
-59.5224
-59.2379
-59.1134
-58.905
-60.592
-59.5192
-59.6044
-58.3668
-60.7552
4.32297
26.2081
15.8597
16.0317
114.22
182.712
136.269
138.153
-101.314
-91.93
-90.9873
-99.5232
1.61521
10.7627
19.8448
-5.25895
-50.2364
-52.7766
-51.7179
-51.6698
-40.2146
-50.6925
-45.4481
-45.5178
-57.2853
-58.0613
-57.6068
-57.4816
-55.7555
-55.4842
-56.2584
-54.8506
-133.518
-107.435
-115.724
-120.418
142.046
182.584
155.419
174.639
-78.9941
-81.5444
-86.6816
-76.0001
-71.135
-72.8069
-77.1868
-68.0084
-62.0208
-60.7259
-61.6479
-61.613
-58.366
-59.1317
-59.707
-57.4015
-59.3692
-58.9317
-59.0682
-60.7726
-59.6078
-59.6541
-58.4622
-60.802
-102.178
-91.8509
-99.1861
-91.4361
1.25556
10.2993
-6.24873
19.804
-57.113
-57.9154
-57.2959
-57.4312
-55.6784
-55.4358
-54.781
-56.2107
-54.288
-55.591
-55.0176
-54.8709
-54.5926
-55.022
-54.9865
-54.7413
-67.9244
-73.916
-69.26
-72.0227
-59.8789
-58.5075
-58.3462
-59.9174
-61.4221
-63.6304
-63.4011
-63.3834
-56.8291
-55.981
-56.3091
-56.311
-56.7641
-57.096
-56.4211
-57.6212
-56.902
-57.5726
-57.1902
-57.4894
-57.148
-56.1129
-56.5084
-56.5218
-57.1004
-57.0648
-56.9316
-56.9332
-64.4381
-60.1995
-61.772
-63.472
-74.3011
-76.7152
-78.7552
-72.4217
-113.524
-40.1255
-71.3564
-71.79
-103.839
-91.1394
-96.3784
-96.3034
-66.1032
-69.5579
-67.5255
-67.5267
-59.2442
-57.5745
-58.3317
-58.309
-54.2384
-55.5381
-54.9752
-54.8155
-54.7449
-55.1707
-55.0041
-55.028
-67.8868
-73.9063
-72.014
-69.1749
-59.8438
-58.4607
-58.313
-59.8854
-56.6337
-56.9871
-57.504
-56.3153
-56.7608
-57.5781
-57.2584
-57.3742
-64.3552
-60.2359
-63.564
-61.7122
-74.1817
-76.7276
-72.4187
-78.6819
-132.394
-112.909
-114.688
-103.048
-66.8613
-63.9254
-69.7233
-67.7551
-83.395
-76.1291
-81.9089
-75.7562
-133.776
-120.268
-123.591
-112.246
-131.575
-112.54
-114.361
-102.802
-133.288
-120.047
-122.695
-112.021
-83.8273
-75.995
-82.1136
-75.9196
-66.8377
-63.8157
-69.7321
-67.8033
-116.058
-101.872
-103.135
-91.8913
-116.085
-101.882
-103.148
-91.9057
-63.3284
-61.2423
-63.4585
-63.2188
-63.2394
-61.2096
-63.4075
-63.1351
-4.0388
1.61153
11.7568
18.1355
-67.542
-109.106
-40.5049
-66.3423
-68.5783
-110.726
-41.6545
-67.2461
-3.40146
2.36197
12.2475
19.2746
116.692
145.827
173.3
176.837
113.371
122.895
147.725
129.972
116.23
107.613
125.444
145.597
146.549
117.434
176.978
172.076
-55.1715
-56.3972
-55.5511
-56.7929
-54.1331
-54.562
-54.7722
-55.3446
-59.241
-60.8577
-58.8316
-60.5442
-65.7805
-68.6485
-62.8097
-64.688
-55.0609
-56.4551
-55.5179
-56.7715
-65.8361
-68.7203
-63.1576
-64.4687
-59.1868
-60.8251
-58.7446
-60.4077
-54.1108
-54.5507
-54.726
-55.2849
-55.2189
-55.8699
-54.9942
-55.7696
-55.9948
-55.2021
-55.7613
-54.9754
-56.2413
-55.6019
-56.0364
-55.207
-55.5677
-56.1705
-55.0667
-56.0409
-86.5012
-97.221
-86.2941
-93.6008
-65.6861
-64.7471
-67.8598
-66.7806
-64.9129
-65.9767
-66.8389
-67.9547
-97.121
-86.4149
-93.4138
-86.1723
-56.6145
-56.2997
-57.3525
-57.0327
-63.7599
-62.4625
-62.1818
-61.5427
-58.0537
-57.438
-60.041
-58.1683
-57.6139
-57.4868
-57.421
-57.2352
-56.8654
-56.0992
-57.5723
-57.1429
-57.474
-57.3528
-57.2896
-57.1312
-57.747
-57.0911
-59.7903
-57.9145
-63.6975
-62.5635
-62.2019
-61.7383
-56.9813
-56.7949
-56.8121
-56.8698
-57.0114
-56.8365
-56.795
-56.8774
-64.5075
-64.1466
-64.1959
-63.9531
-64.5004
-64.3902
-64.164
-63.8487
-58.1717
-58.9675
-57.5438
-58.3206
-51.4429
-52.79
-52.166
-53.206
-51.2249
-52.61
-52.0419
-53.1263
-58.1457
-58.8125
-57.497
-58.2488
-59.1197
-59.0241
-59.5149
-59.4122
-58.995
-59.0886
-59.4148
-59.4914
-42.7877
-47.2717
-46.259
-51.4776
-47.5657
-43.2984
-51.6243
-46.4495
-204.916
87.271
-172.461
19.9495
-156.25
-138.263
-69.0833
-60.3416
-66.3095
-60.9852
-65.5918
-64.4398
-92.1879
-0.594718
-37.0915
-3.09428
-79.3521
-36.5572
-52.2083
-46.9136
-50.8233
-46.1183
-55.8835
-52.6673
-172.617
19.1139
-200.568
91.5414
-153.343
-138.212
-67.4392
-60.8899
-68.9741
-60.3102
-65.4235
-65.1834
-36.5915
-9.55484
-92.8036
-4.47777
-77.3282
-35.0845
-50.4213
-45.4788
-51.7306
-46.3442
-55.3653
-52.3763
-59.2132
-59.2883
-55.2121
-55.1292
-58.3196
-56.454
-55.5006
-56.2324
-56.4191
-54.0966
-53.2431
-55.6201
-51.6768
-56.4477
-56.9922
-58.0472
-87.0258
-105.129
-79.9034
-75.161
-75.4339
-83.4026
-113.875
-100.452
-58.4151
-59.4363
-59.5232
-58.6867
-60.586
-60.2499
-58.2666
-60.6331
-59.3014
-59.3265
-55.599
-56.2199
-55.1566
-55.1301
-58.2248
-56.4094
-54.8203
-53.9503
-56.8542
-57.9838
-53.289
-55.5499
-51.6833
-55.5006
-86.7
-104.774
-113.676
-100.375
-79.8276
-75.1733
-75.1786
-83.257
-58.2073
-58.9337
-59.985
-57.9987
-59.4559
-58.5331
-60.5652
-61.0041
-199.146
63.4143
-134.294
10.8684
-156.711
-160.527
110.669
92.4377
-150.037
-69.7181
-150.039
-67.0575
-130.337
-130.34
140.072
140.334
-87.542
-79.9181
-65.8282
-58.4021
-83.3914
-72.295
-74.4837
-65.3982
-67.4041
-59.3648
-58.5357
-54.6869
-63.4671
-62.4688
-59.1639
-56.2486
-65.5964
-60.8316
-65.654
-60.8545
-64.2583
-64.2363
-59.1967
-59.1896
-61.0659
-62.991
-58.0924
-56.5027
-58.7659
-60.8793
-57.7477
-60.2943
-24.5657
-25.226
-23.9875
-25.2764
-9.66492
-9.50422
83.8887
91.7973
-97.789
-19.9647
-104.802
-102.899
-108.784
-113.991
-3.71953
-35.8192
-47.3601
-40.0366
-47.1711
-39.6155
-48.7947
-48.7154
-38.4246
-38.6438
-56.1799
-52.0085
-57.3147
-57.6589
-56.9007
-57.2317
-57.0409
-54.8522
-198.584
64.294
-133.267
8.43224
-155.103
-160.656
90.8373
109.787
-87.2874
-79.9238
-65.9569
-58.5643
-83.3588
-72.4115
-74.5162
-65.4276
-67.331
-59.324
-58.3643
-54.5887
-62.3
-63.3525
-59.1451
-56.177
-62.0965
-63.2411
-57.2997
-56.5946
-59.3337
-60.9787
-57.9032
-60.4292
-98.7364
-19.1711
-105.722
-106.04
-116.305
-110.242
-37.3849
-3.11063
-55.9854
-51.8944
-57.2087
-57.6891
-57.0878
-56.7095
-54.6063
-57.0335
-53.6754
-53.7507
-53.4544
-53.8214
-54.286
-53.7401
-54.0238
-54.1005
-62.0597
-59.9274
-67.7301
-64.5539
-64.5707
-67.6022
-59.927
-61.7728
-57.4775
-57.9433
-57.4801
-57.9444
-59.6176
-59.6112
-57.4104
-57.4131
-55.7644
-55.7542
-57.2526
-57.6284
-56.1782
-57.2256
-56.5743
-56.7971
-58.2955
-59.0511
-58.2225
-59.0439
-57.8158
-57.8483
-57.3714
-57.347
-70.8592
-74.7983
-64.5508
-66.4492
-64.7853
-67.2748
-74.4174
-69.9453
-137.142
-120.106
-137.165
-120.047
-139.896
-139.991
-112.126
-112.102
-63.3104
-61.0762
-63.2381
-60.9671
-64.673
-64.6556
-60.2911
-60.2424
-53.5915
-53.769
-53.4171
-53.8282
-54.246
-53.6927
-54.0709
-54.1506
-62.045
-59.9044
-67.6255
-64.4588
-67.5471
-64.542
-59.8919
-61.7294
-55.518
-55.6212
-57.1264
-57.5379
-57.0914
-56.0187
-56.3529
-56.6454
-70.7927
-74.6492
-64.5339
-66.4438
-67.2445
-64.7576
-69.973
-74.4263
-97.3224
-100.446
-89.6186
-78.4628
-86.1679
-94.2368
-76.5561
-79.7178
-97.3266
-100.475
-89.405
-78.96
-94.1895
-86.1772
-79.7662
-76.5655
-85.2684
-85.2736
-78.4885
-69.2564
-78.4991
-69.2657
-65.7544
-65.7459
31.2646
31.3067
24.8585
-1.02008
-1.3746
24.7977
-21.9959
-22.2912
200.134