# vtk DataFile Version 2.0
tri_press
ASCII
DATASET UNSTRUCTURED_GRID
POINTS 3682 float
-0.634403 0.105 -1.785
-0.753131 0.185 1.665
-0.735 0.605 -1.56756
-0.745 0.695 1.70463
0.650114 0.105 -1.785
0.745 0.185 1.67338
0.755 0.600387 -1.565
0.745 0.697669 1.705
-0.696422 0.109223 -0.635
-0.743154 0.128734 0.515
-0.824348 0.721015 -0.47683
-0.813013 0.736346 0.6139
0.704964 0.108445 -0.632207
0.74534 0.126364 0.520587
0.837169 0.718316 -0.475
0.818835 0.735744 0.615
-1.38758 -0.218745 -2.75723
-1.3927 -0.18223 -1.8608
-1.44366 -0.171669 -0.708998
-1.48683 -0.155751 0.454789
-1.49921 -0.114574 1.60761
-1.50494 -0.0937911 2.50903
-1.51174 -0.0804853 3.40135
-1.38878 0.0561495 -2.66988
-1.39924 0.104926 -1.78005
-1.4639 0.123468 -0.640157
-1.50212 0.132007 0.504975
-1.5003 0.162317 1.64601
-1.50612 0.181974 2.54649
-1.51415 0.196714 3.44079
-1.43323 0.592487 -2.47847
-1.48294 0.642117 -1.58628
-1.56177 0.721092 -0.486912
-1.56246 0.728341 0.608147
-1.51422 0.705322 1.70853
-1.5155 0.725145 2.61027
-1.52413 0.749031 3.51352
-1.47551 1.46014 -2.23702
-1.50764 1.51385 -1.35381
-1.55111 1.58428 -0.274122
-1.57128 1.61025 0.792482
-1.56455 1.60065 1.87253
-1.55568 1.60012 2.75651
-1.55255 1.61258 3.65318
-0.660452 -0.22029 -2.7603
-0.657295 -0.182608 -1.86551
-0.696766 -0.179725 -0.706925
-0.734767 -0.158141 0.464249
-0.749689 -0.102011 1.6231
-0.753874 -0.0857844 2.52004
-0.758876 -0.0771025 3.4084
-0.653271 0.0507739 -2.67019
-0.754509 0.189478 2.5555
-0.760465 0.19922 3.44638
-0.684809 0.575006 -2.46996
-0.75833 0.722533 2.61022
-0.767651 0.747485 3.51458
-0.715115 1.45008 -2.22859
-0.737776 1.50549 -1.34462
-0.774269 1.58392 -0.26818
-0.798197 1.61202 0.792921
-0.799195 1.59839 1.86939
-0.793432 1.59652 2.75344
-0.79195 1.60949 3.65133
0.731461 -0.221338 -2.75911
0.694343 -0.18309 -1.86455
0.723148 -0.180662 -0.704173
0.748839 -0.159869 0.469222
0.747376 -0.102546 1.62973
0.746162 -0.0858976 2.52536
0.744598 -0.0772082 3.41266
0.735183 0.0494523 -2.6691
0.745101 0.189777 2.56067
0.74374 0.199334 3.45044
0.772535 0.572285 -2.46818
0.744604 0.723659 2.6129
0.741018 0.747897 3.51773
0.798303 1.44784 -2.22663
0.799195 1.50322 -1.34264
0.792228 1.5822 -0.26626
0.767173 1.6112 0.79475
0.74258 1.59836 1.87128
0.734451 1.59666 2.75562
0.729811 1.60952 3.65383
1.44529 -0.221139 -2.75441
1.41572 -0.184063 -1.85796
1.45659 -0.173814 -0.703858
1.49599 -0.158338 0.46306
1.49875 -0.115663 1.61798
1.49829 -0.0941916 2.51843
1.49719 -0.0808368 3.40947
1.44775 0.0532765 -2.66721
1.40836 0.102766 -1.77774
1.46532 0.121216 -0.635478
1.50562 0.129481 0.51274
1.49831 0.162019 1.65606
1.49806 0.182211 2.55544
1.49696 0.196729 3.44855
1.49751 0.587881 -2.47504
1.49681 0.636923 -1.58274
1.56495 0.717434 -0.483143
1.56421 0.726935 0.6123
1.51103 0.706897 1.71304
1.50075 0.726427 2.61606
1.49654 0.749521 3.51981
1.54947 1.45594 -2.23312
1.55742 1.50968 -1.34986
1.56276 1.58105 -0.270204
1.54357 1.60855 0.796367
1.51428 1.6003 1.87661
1.49972 1.60014 2.76107
1.49122 1.61247 3.65826
-0.720009 0.355 -1.71159
0.0078555 0.101635 -1.78836
-0.669662 0.102862 -1.21
-0.753563 0.44 1.68931
-0.00406548 0.134646 1.71954
-0.76504 0.13997 1.09
0.00999999 0.625164 -1.58875
-0.82294 0.706274 -1.0222
0 0.829937 1.83842
-0.830602 0.767269 1.15927
0.737006 0.352693 -1.70945
0.681339 0.102922 -1.2086
0.750425 0.441335 1.69461
0.762659 0.138194 1.09698
0.83463 0.697897 -1.02
0.831927 0.766715 1.16
-0.719954 0.118813 -0.06
-0.834616 0.415119 -0.555915
0.00427103 0.101124 -0.633603
-0.872888 0.43254 0.56445
0.00109318 0.101258 0.517793
-0.815518 0.725518 0.068535
0.00641033 0.805616 -0.475915
0.00291122 1.12344 0.61445
0.725572 0.116985 -0.05581
0.84555 0.413381 -0.553603
0.877343 0.431054 0.567793
0.824595 0.723623 0.07
-0.85966 0.38506 -1.1161
0.84552 0.383037 -1.1143
0.00606327 0.100689 -1.2093
0.00820516 0.782282 -1.0211
0.00892775 0.353847 -1.89204
-0.859115 0.42383 0.00426751
0.86687 0.422217 0.00709501
0.00268211 0.101166 -0.057905
0.00466078 1.07446 0.0692675
-0.896479 0.43627 1.12463
0.896581 0.436194 1.12849
-0.00148615 0.107736 1.09349
0.00145561 1.00805 1.15963
-0.00203274 0.440667 1.92442
-0.633262 0.23 -1.70435
-0.313274 0.101644 -1.78836
-0.653234 0.102729 -1.4975
-0.701784 0.3125 1.62559
-0.378598 0.154528 1.69757
-0.77054 0.15103 1.3775
-0.725419 0.48 -1.63749
-0.3625 0.597396 -1.56047
-0.811432 0.688099 -1.29488
-0.766743 0.5675 1.71443
-0.3725 0.803129 1.81218
-0.807032 0.750366 1.43195
0.328985 0.101605 -1.7884
0.653011 0.228847 -1.70668
0.666697 0.102991 -1.4968
0.370467 0.155255 1.70103
0.693469 0.313167 1.62975
0.766683 0.148743 1.38518
0.3825 0.594501 -1.5586
0.744077 0.47654 -1.6353
0.827253 0.68158 -1.2925
0.3725 0.80432 1.81223
0.765268 0.569502 1.71736
0.806977 0.750706 1.4325
-0.68613 0.102955 -0.9225
-0.707652 0.114554 -0.3475
-0.804366 0.242748 -0.595458
-0.347459 0.102406 -0.634302
-0.763668 0.124781 0.8025
-0.732172 0.123156 0.2275
-0.84089 0.264203 0.539725
-0.377186 0.102685 0.516397
-0.823393 0.713393 -0.749513
-0.861788 0.58422 -0.516373
-0.809624 0.712957 -0.204148
-0.416744 0.778865 -0.476373
-0.823982 0.753982 0.886583
-0.866667 0.596301 0.589175
-0.814164 0.730831 0.341218
-0.496396 1.11258 0.614175
0.69434 0.104495 -0.920405
0.355811 0.102398 -0.632905
0.717548 0.110435 -0.344008
0.815338 0.240873 -0.592905
0.76178 0.124498 0.808785
0.378785 0.102675 0.51919
0.735738 0.121392 0.232388
0.844735 0.262013 0.54419
0.838621 0.710828 -0.7475
0.409102 0.736592 -0.475458
0.873099 0.581718 -0.514302
0.822646 0.712734 -0.2025
0.826813 0.752662 0.8875
0.49146 1.09077 0.614725
0.870981 0.594845 0.591397
0.821571 0.729539 0.3425
-0.853647 0.37003 -1.41384
-0.355541 0.354423 -1.87734
0.00695939 0.100713 -1.49883
0.00839163 0.227741 -1.93182
-0.819679 0.243961 -1.16305
-0.331799 0.100675 -1.20965
-0.893605 0.438135 1.40697
-0.377798 0.440334 1.8471
-0.00277582 0.110294 1.40652
-0.00304911 0.287657 1.89195
-0.861509 0.28812 1.10732
-0.383263 0.10795 1.09175
0.00910258 0.729534 -1.30492
0.00946387 0.489505 -1.79757
-0.867178 0.545667 -1.06915
-0.407368 0.702221 -1.02165
0.000727805 0.897944 1.49903
-0.00101637 0.635302 1.86746
-0.895665 0.60177 1.14195
-0.414573 0.982289 1.15945
0.838319 0.367865 -1.41188
0.372967 0.35327 -1.87602
0.802973 0.24298 -1.16145
0.343701 0.100689 -1.20895
0.890121 0.438764 1.41155
0.374196 0.441001 1.84954
0.861122 0.287194 1.11274
0.380586 0.107963 1.09524
0.849586 0.540467 -1.06715
0.421417 0.702531 -1.02055
0.89578 0.601455 1.14425
0.416691 0.982719 1.15982
-0.823047 0.254565 -0.0278662
-0.362352 0.102557 -0.0589525
-0.870511 0.400089 -0.836006
-0.847171 0.419474 -0.275824
0.00516715 0.100704 -0.921453
0.00347657 0.101152 -0.345754
-0.868144 0.428185 0.284359
-0.887573 0.434405 0.844541
0.00188765 0.101223 0.229944
-0.000196483 0.101365 0.805643
-0.860194 0.586113 0.0364013
-0.47231 1.03375 0.0689013
0.00730775 0.785166 -0.748506
0.00553556 0.908839 -0.203324
0.003786 1.13289 0.341859
0.00218342 1.08436 0.887041
0.830272 0.252576 -0.0243575
0.367391 0.102547 -0.0568575
0.85261 0.398209 -0.833953
0.856478 0.417799 -0.273254
0.874141 0.426636 0.287444
0.887612 0.433624 0.848143
0.867821 0.583965 0.0385475
0.481142 1.03207 0.0696338
-0.810042 0.23698 -1.45567
-0.83657 0.253066 -0.879253
-0.871595 0.556867 -0.792759
-0.857323 0.512833 -1.35436
0.797028 0.235913 -1.45434
0.839694 0.508504 -1.35219
0.85816 0.553158 -0.790726
0.816613 0.251946 -0.877179
-0.322537 0.100653 -1.49817
0.336343 0.100758 -1.49782
0.349159 0.100705 -0.920929
-0.338938 0.100692 -0.921976
-0.384934 0.668013 -1.2999
-0.408168 0.728167 -0.749009
0.421603 0.728361 -0.748003
0.401959 0.667547 -1.29871
-0.334407 0.228871 -1.80917
-0.35902 0.484753 -1.77788
0.377733 0.483023 -1.77731
0.350976 0.228294 -1.8059
-0.809687 0.250666 -0.311662
-0.832997 0.25887 0.255929
-0.863425 0.591205 0.312788
-0.855827 0.582584 -0.239986
0.81871 0.248772 -0.308631
0.865194 0.580208 -0.237877
0.869563 0.589486 0.314972
0.838664 0.256714 0.259916
-0.354908 0.102477 -0.346627
0.361603 0.102468 -0.344881
0.373088 0.102611 0.231166
-0.36977 0.10262 0.228722
-0.426026 0.869306 -0.203736
-0.503988 1.11244 0.341538
0.506093 1.101 0.342179
0.436838 0.867762 -0.202912
-0.861399 0.284379 0.823521
-0.86233 0.30031 1.39224
-0.88712 0.584635 1.41946
-0.88715 0.593106 0.865562
0.859755 0.282952 0.828464
0.886107 0.592427 0.867821
0.88673 0.585478 1.42203
0.865874 0.300181 1.39837
-0.377147 0.101372 0.804071
0.376902 0.101354 0.807214
0.375527 0.112402 1.39585
-0.380931 0.112386 1.39201
-0.409812 1.08855 0.886812
-0.393537 0.880742 1.46549
0.394596 0.881066 1.46576
0.413782 1.06003 0.887271
-0.378198 0.300078 1.82352
0.372332 0.300412 1.82737
0.373348 0.602402 1.86114
-0.375149 0.601401 1.85966
-0.604816 0.1675 -1.71566
-0.473838 0.101661 -1.78834
-0.644658 0.103026 -1.64125
-0.752892 0.24875 1.67073
-0.565865 0.143534 1.70751
-0.760933 0.168918 1.52125
-0.733135 0.5425 -1.60545
-0.54875 0.614847 -1.57766
-0.787326 0.660659 -1.43122
-0.760572 0.63125 1.71423
-0.55875 0.72663 1.73597
-0.782831 0.729498 1.56829
0.489549 0.101606 -1.78839
0.623883 0.166923 -1.71816
0.659382 0.103019 -1.6409
0.557734 0.143679 1.71365
0.749095 0.249084 1.68143
0.753834 0.16888 1.52928
0.56875 0.61386 -1.57822
0.751514 0.538464 -1.60213
0.802741 0.652598 -1.42875
0.55875 0.727391 1.73501
0.759544 0.633585 1.71559
0.782132 0.730331 1.56875
-0.693072 0.104293 -0.77875
-0.697471 0.116455 -0.49125
-0.764567 0.168899 -0.615229
-0.523342 0.103012 -0.634651
-0.748114 0.132055 0.65875
-0.738054 0.125554 0.37125
-0.800754 0.192102 0.527363
-0.566361 0.103329 0.515698
-0.824483 0.717816 -0.613171
-0.854302 0.658234 -0.496601
-0.823883 0.723883 -0.340489
-0.619851 0.74855 -0.476601
-0.813162 0.739829 0.750241
-0.848095 0.670451 0.601538
-0.813581 0.733581 0.477559
-0.674712 0.964479 0.614038
0.700817 0.105305 -0.776306
0.5316 0.102997 -0.632556
0.704824 0.115872 -0.488108
0.774999 0.167235 -0.612556
0.749158 0.129833 0.664686
0.567666 0.103314 0.519888
0.740526 0.123892 0.376488
0.803776 0.189819 0.532388
[...]
POINT_DATA 3682
SCALARS point_scalars float 1
LOOKUP_TABLE default
25.188
-44.9256
-6.39941
-38.9058
60.1393
-47.2147
-24.3929
-41.3983
-36.6631
-31.5189
-30.2961
-48.8929
-35.6716
-32.635
-30.954
-49.5846
25.188
-74.3102
-53.8901
-28.1476
-52.6464
-44.9256
-45.8687
72.4158
-104.03
-46.2525
-31.3878
-53.8772
-43.6448
-39.2909
35.6929
-124.237
-33.8542
-40.1707
-49.0211
-39.1159
-39.1159
-33.0228
-62.9198
-34.3248
-58.5688
-42.003
-39.6119
-39.6119
91.7466
-85.7933
-40.892
-32.9564
-46.4194
-41.0552
-38.6101
143.138
-38.1238
-38.5254
166.802
-35.0486
-34.8388
20.1334
-74.0041
-39.6748
-63.3891
-35.1231
-32.6211
-30.482
118.332
-56.2107
-38.8288
-33.5861
-49.2059
-42.6276
-39.8193
150.559
-39.4662
-39.1528
159.024
-37.3598
-37.3598
-9.54663
-64.4638
-40.1508
-64.536
-37.3762
-35.1159
-33.2198
60.1393
-94.0077
-47.2008
-29.3173
-54.1596
-44.9079
-44.9079
20.3743
-110.154
-42.7
-33.3675
-56.9745
-44.9079
-41.736
32.4282
-120.272
-35.3322
-41.5471
-51.405
-41.4627
-41.4639
-48.0369
-64.0979
-35.8222
-58.6986
-44.3183
-42.2642
-42.2642
51.9454
-131.939
-58.7579
-40.6883
-47.426
-44.6861
-14.8181
-47.6772
-33.1363
-48.0504
39.2688
-57.9936
-42.323
-44.69
-43.7915
-49.0604
-31.0182
-36.1046
-37.5177
-34.7806
-36.2461
-50.2358
3.76121
-75.8971
-32.1841
-38.0778
-36.668
-51.8465
-54.3024
-52.2308
-53.3194
-38.0106
181.132
-32.7923
-34.9364
-33.6635
-44.8748
-45.8982
-46.6322
-41.3609
-41.5978
-36.6261
90.5844
-166.764
-97.0051
-40.8263
-45.2047
-45.4295
32.6147
-30.1679
-75.9457
-39.5483
-33.0068
-43.5095
-161.91
85.7917
-96.8891
-46.3126
-42.3173
-46.9524
-28.8317
17.9961
-73.6211
-35.3697
-41.6611
-45.4713
-44.98
-30.8557
-35.1149
-37.6419
-44.0831
-31.8252
-29.7551
-35.5177
-34.5378
-34.1756
-35.9491
-4.75482
-46.2153
-39.9676
-51.5134
-73.1174
-43.8568
-37.471
-31.6432
-34.0595
-44.768
-35.7922
-32.7821
-31.8448
-34.7299
-4.97041
-35.8647
-37.5533
-46.6577
-71.4387
-41.4063
-52.5602
-103.495
176.275
-77.2583
182.726
-56.0616
-55.1352
-52.3773
-37.5578
-44.7014
-37.7567
-47.4427
-41.8081
-68.3133
86.2893
-52.791
-39.5718
-34.2811
-33.6148
-46.2219
-42.1574
-87.1798
176.219
-55.4469
-55.0382
-55.2634
-38.7229
-47.5857
-42.1388
-48.4681
-38.9997
-47.1794
-43.4487
-30.5088
-33.0877
-47.4234
-30.2271
-43.2132
-34.6632
-35.2292
-39.7973
-34.2794
-39.3938
-38.2891
-26.3518
-15.3878
21.6561
-102.202
-54.4532
-32.503
-33.404
-42.2488
-32.5318
-36.964
-41.1867
-40.0715
-31.0472
-108.627
-49.1526
-43.9014
-94.3262
-92.6992
-80.3289
-36.7216
-45.6227
-84.8313
-84.5837
-43.5063
-43.8365
-55.5655
-19.7424
-19.1438
-55.8625
114.37
74.3
76.315
113.791
-29.2737
-32.2477
-40.8427
-31.6974
-30.9629
-34.0305
-42.7799
-33.7082
-34.0946
-34.2548
-33.9925
-33.6648
14.1702
-97.0184
-97.2651
12.9209
-46.4288
-51.5651
-50.6754
-39.2139
-46.2807
-40.014
-52.736
-54.8148
-39.4043
-39.6147
-48.0793
-47.3659
-55.1917
-35.4362
-36.7058
-54.9888
-37.8307
-38.9756
-37.5542
-35.416
127.722
-74.0141
-157.753
-43.1142
-46.4382
-49.2963
21.4645
-16.8489
-64.2762
-39.2322
-35.2748
-41.6356
-68.1239
86.9969
-164.541
-47.7699
-44.5778
-50.7194
-12.5649
7.68155
-70.9674
-37.8256
-41.5435
-43.933
-45.0739
-33.1282
-36.071
-37.4829
-31.0978
-32.0814
-29.9487
-34.7393
-31.6951
-33.8371
-32.4762
-13.7348
-47.245
-43.7957
-50.5532
-60.9481
-42.3974
-37.1024
-33.3321
-34.2613
-31.2732
-35.1757
-32.8395
-31.1856
-32.31
-13.1514
-34.8411
-35.0545
-48.069
-60.8851
-44.8018
-51.3304
57.4974
39.4412
-93.0478
149.565
-135.949
-137.086
-100.83
68.0579
-74.1543
-49.8358
-55.4272
-56.7458
-41.2681
-40.0786
-49.7673
-37.4619
-46.36
-47.3658
-47.4132
-40.751
-45.2723
-45.876
-48.7571
-42.1747
-19.7954
-19.2714
-46.3237
15.0025
-56.2789
-41.6933
-52.2977
-40.8895
-32.8214
-33.8321
-32.8333
-29.1445
-46.1572
-47.8808
-47.1261
-44.6702
46.1136
25.3357
-126.591
144.521
-72.677
-49.0633
-56.6399
-56.4592
-42.8218
-42.0132
-51.5082
-38.7642
-47.3884
-44.559
-48.7373
-42.4511
-57.4057
-36.1579
-47.1495
-39.4348
-47.6591
-48.4346
-48.0786
-45.967
-30.8897
-31.538
-30.391
-32.4085
-34.8301
-36.4177
-42.5933
-26.748
-37.4563
-37.4948
-40.0384
-35.783
-32.1663
-37.0745
-35.1733
-35.1503
-36.0822
-36.1918
-35.1014
-37.6315
-44.6741
-51.4776
-43.3247
-65.0471
2.18639
0.931095
-4.89465
12.1382
-77.1651
-74.9494
-88.0856
-64.5352
-32.3231
-32.5215
-31.9515
-32.9556
-35.1312
-38.6992
-39.7082
-28.7098
-34.3434
-38.919
-36.8601
-36.6616
-46.1848
-53.0561
-44.7738
-66.2334
-69.3456
-55.0144
-54.0532
-48.77
-63.9331
-54.1611
-50.31
-45.1553
-62.4568
-53.9956
-53.8236
-47.6125
-33.9261
-39.1053
-39.776
-27.7388
178.708
203.968
141.37
178.853
-31.3214
-31.137
-34.4882
-35.1146
-33.5056
-33.4597
-36.4295
-37.0823
-33.4918
-33.8829
-33.7757
-33.635
-34.2383
10.4762
-102.616
-42.2003
-47.5972
-46.2024
-45.941
-44.6061
-49.2604
-46.3946
-46.8417
-42.5758
-42.9355
-41.5011
-41.6798
-41.6908
-37.2476
-41.5432
-42.3066
-47.1401
-36.9356
-37.6209
-32.2572
-38.079
-89.9996
59.8468
-115.585
78.4273
-85.8684
-93.4012
-51.8459
-38.9815
-45.0398
-39.8796
-47.626
-44.7271
-116.715
93.3777
-49.7923
6.16262
-93.5326
-64.5888
-47.0393
-36.4308
-33.5657
-33.48
-49.1268
-37.5503
-114.551
72.9133
-115.265
52.7883
-79.6161
-95.0026
-46.1439
-41.2266
-54.0612
-40.4642
-49.2782
-45.8421
-50.0647
6.73032
-125.293
92.947
-80.8879
-61.6753
-35.1622
-36.5544
-49.2336
-38.2481
-51.1908
-39.1131
-47.8467
-44.4674
-29.5671
-33.3054
-48.4312
-30.8935
-40.4922
-35.4436
-45.4159
-40.0437
-31.8129
-32.9676
-31.9188
-26.6698
-34.4487
-37.4103
-40.2406
-24.8232
-36.6126
-32.1503
-33.9797
-15.3711
-11.9831
5.01996
-39.6529
-54.0676
-40.6249
-37.5423
-45.6466
-70.7207
-82.5964
-63.7794
-47.103
-43.8538
-40.1776
-35.4462
-30.9612
-33.6638
-42.4988
-32.3532
-46.2712
-40.2114
-34.7561
-37.6299
-33.0792
-33.4878
-33.4116
-32.3474
-37.6998
-24.6181
-14.7376
3.91024
-37.7842
-34.1516
-36.0874
-18.2511
-39.793
-54.4362
-81.3586
-62.9173
-42.3867
-38.9222
-46.7955
-72.2597
-103.4
-97.0964
172.624
146.646
-79.0618
-79.0465
183.592
179.683
-75.0645
-51.1418
-66.018
-48.3892
-52.9818
-51.1595
-37.8755
-36.7656
-45.9557
-45.4723
-37.6316
-38.4614
-45.5933
-46.6422
-41.8377
-43.479
-61.1598
-61.4038
74.3403
75.2718
-46.9712
-64.8483
-48.7396
-29.4102
-34.4744
-35.1309
-35.2301
-33.2147
-48.3739
-44.4334
-46.9384
-38.0524
-89.1729
-83.5343
140.308
169.594
-69.196
-47.9875
-65.9922
-48.1377
-53.1666
-57.6454
-38.9278
-38.2809
-44.0059
-47.5487
-42.0494
-43.9444
-61.7286
-42.6098
-29.0349
-48.1739
-43.2095
-49.9345
-39.2389
-48.4708
-29.4999
-31.7979
-33.3435
-33.1871
-47.8735
-45.8193
-29.6256
-30.9696
-43.2256
-43.3193
-34.4822
-34.5535
-33.3508
-37.6293
-41.6906
-39.8446
-34.2063
-34.0926
-39.3577
-39.4811
-40.187
-35.1607
7.89789
-91.4096
-16.1621
-16.3361
20.9089
20.4562
-104.379
-101.607
-54.414
-55.025
-31.5283
-33.436
-33.609
-33.517
-39.9746
-43.6766
-31.7067
-33.302
-39.3435
-35.0951
-42.8316
-40.6429
-37.1538
-41.9987
-100.619
5.14334
-109.255
-77.5486
-70.4927
-97.2526
-51.0976
-47.9123
-50.0042
-51.3208
-35.6926
-46.4041
-48.1412
-39.057
-89.8388
-99.6499
-66.9371
-63.6566
-121.74
-122
-65.7401
-69.9684
-106.959
-60.3729
-62.7432
-131.098
-36.174
-37.9298
-44.1102
-40.1109
-46.8026
-47.8718
-46.4641
-41.6437
-138.726
-103.942
-63.5995
-69.7212
-142.239
-69.8578
-63.3966
-103.972
-40.3654
-40.0607
-47.5616
-48.7371
-41.0476
-49.1751
-47.7065
-40.177
-56.3362
-48.9088
-37.7393
-47.1337
-19.6974
-6.27612
-28.7313
-32.2077
-20.9709
-31.0683
-27.987
-7.1056
-54.6929
-47.9034
-37.5007
-50.088
43.2086
128.112
204.892
83.2292
44.4704
13.1577
130.674
142.966
45.0626
137.035
130.918
12.4081
19.6071
73.5662
200.23
126.684
-31.5448
-29.5539
-30.2135
-29.0095
-31.6363
-33.1501
-32.8324
-31.3216
-44.8133
-45.1796
-36.8886
-37.5451
-34.7346
-28.4244
-32.7734
-39.324
-32.4301
-31.1143
-32.381
-31.2967
-36.6514
-40.957
-34.9532
-29.9051
-46.1341
-39.4355
-38.7902
-46.5008
-32.7834
-32.7476
-34.7521
-34.9295
-34.8328
-35.7321
-33.7476
-32.6007
-34.855
-33.1225
-33.86
-35.7787
-34.1316
-35.0905
-33.7658
-33.0703
-33.6444
-32.54
-33.5964
-34.9358
-10.6968
-34.5984
13.0381
11.0501
-63.9966
-89.2471
-89.8192
-83.8055
-64.4383
-87.4383
-105.924
-86.8705
-11.6279
10.5164
10.7549
-36.0442
-21.2168
-46.6217
-44.8897
-34.1197
-54.5439
-50.6201
-47.245
-48.3899
-45.2134
-48.7679
-47.8174
-48.7604
-41.0914
-35.969
-44.4693
-44.7617
-20.9773
-35.3185
-42.6303
-43.006
-42.1492
-44.8362
-42.9015
-37.4852
-47.4545
-51.063
-49.4769
-50.1893
-54.3331
-49.9234
-48.2571
-52.0177
-36.7239
-37.5392
-41.6848
-42.3879
-37.025
-42.5018
-41.819
-37.656
-46.5308
-46.8553
-43.3848
-43.926
-45.3133
-43.2291
-43.1265
-46.4925
-56.1222
-49.2668
-46.6531
-65.0485
-35.5344
-32.7356
-37.4323
-40.6279
-37.5557
-42.1362
-37.9587
-33.5713
-56.4726
-63.8002
-47.6683
-50.2092
-38.1823
-40.0063
-37.6758
-38.8112
-39.7548
-40.202
-38.5384
-40.7745
-38.1744
-32.7191
-35.3058
-38.684
-35.8963
-37.1857
-33.4607
-29.9355
60.7086
8.49039
-48.9015
-44.3668
-46.8092
-46.9131
11.6206
5.56312
-44.6777
-39.5187
-35.8614
-39.7387
-21.8784
63.784
-50.9018
-48.3949
-45.4053
-48.5641
9.4264
-4.10334
-55.6388
-38.3528
-41.9789
-41.9806
-41.3296
-35.093
-36.4382
-37.2969
-31.3771
-32.0141
-30.5015
-33.439
-31.0875
-32.613
-30.4044
-22.7321
-47.8847
-46.5472
-49.7913
-53.5193
-39.1419
-36.7083
-34.9521
-34.8666
-32.4723
-34.0943
-32.6052
-31.6633
-31.7018
-22.4756
-33.3103
-30.6117
-48.6556
-54.2699
-47.3383
-50.473
55.5687
46.3983
-33.2405
118.383
-132.1
-131.576
-117.053
-45.6085
-65.3812
-53.8044
-58.7424
-57.3928
-41.0123
-40.29
-45.5177
-38.1884
-46.7974
-47.5366
-48.3913
-42.922
-45.0913
-45.5706
-50.204
-43.448
-17.1238
-17.2291
-23.636
-7.38437
-52.788
-45.2578
-51.2257
-44.675
-33.6267
-33.993
-33.9924
-27.9053
-47.3795
-48.1654
-47.8455
-46.4041
45.495
32.0025
-75.8976
107.077
-64.3301
-53.107
-58.8104
-57.0976
-42.5716
-42.1197
-47.3852
-39.7585
-46.4947
-44.7732
-48.1327
-43.5936
-50.124
-39.2284
-45.8819
-42.0038
-48.6423
-49.0683
-48.7639
-47.6673
-31.0342
-31.3377
-30.4409
-31.769
-35.3116
-36.92
-37.3323
-30.7387
-37.5269
-37.5093
-38.6492
-36.4657
-33.5079
-35.8988
-34.9978
-34.735
-36.1746
-36.2443
-35.6178
-36.8438
-48.5247
-51.0507
-46.3669
-63.4628
3.55472
3.04985
-0.47469
8.04929
-76.991
-75.5154
-82.1489
-70.043
-32.0998
-32.4685
-31.9742
-32.5596
-36.5052
-38.7922
-37.4017
-31.9014
-35.5144
-37.8185
-36.7339
-36.8707
-50.3748
-52.6897
-48.2932
-65.2983
-60.3148
-54.8169
-54.2639
-52.026
-57.789
-53.0265
-51.1715
-47.7903
-57.3226
-53.453
-53.527
-50.2481
-33.6246
-37.9075
-38.3973
-36.3186
179.821
199.046
162.738
179.52
-31.8685
-31.9379
-33.6589
-33.8626
-34.109
-34.1694
-35.7013
-35.9393
-33.6154
-33.7598
-33.7527
-33.6985
-39.9297
-7.43751
-78.6389
-44.3834
-46.6156
-45.9155
-45.8907
-45.3412
-47.7528
-46.4782
-46.7098
-45.4512
-42.1907
-41.4966
-41.583
-41.7813
-39.2159
-41.507
-41.8609
-43.864
-36.589
-37.2292
-34.2476
-37.3137
111.261
86.3248
-46.8555
97.8339
-161.639
-154.79
-152.053
-68.4567
-118.681
-84.7968
-76.7058
-96.4488
-41.6784
-39.4378
-48.6629
-39.095
-45.1944
-45.3808
-45.9323
-41.6108
-48.7464
-44.0947
-46.1247
-44.6527
29.7252
32.5686
-40.0492
75.5497
-32.2733
-22.0187
-41.3379
-24.6019
-77.674
-61.9874
-83.1618
-74.4036
-39.363
-39.6586
-42.9961
-36.9398
-34.2158
-32.2642
-33.3775
-32.4076
-42.9969
-44.3785
-47.1513
-38.8317
-164.127
-152.728
-148.9
-37.9135
108.458
66.7043
-98.5061
89.6775
-123.845
-83.0019
-90.971
-98.1327
-46.6733
-46.3009
-46.7954
-42.9451
-44.1241
-41.1132
-50.6668
-40.6671
-51.4064
-45.8609
-48.0512
-45.8796
-32.4741
-21.4178
-40.7396
-22.4406
15.0095
18.931
-112.406
69.8867
-76.8395
-63.1789
-80.9237
-67.38
-36.9458
-34.1302
-34.7892
-35.9914
-41.5673
-41.9342
-45.2605
-38.8354
-45.0417
-46.2262
-49.1427
-40.6431
-44.8942
-47.2654
-45.054
-44.7639
-31.2441
-31.0124
-30.2675
-32.4703
-35.5955
-34.8766
-40.3888
-32.9579
-37.6405
-37.5679
-39.0868
-36.3388
-37.891
-44.7102
-45.9004
-41.5583
-32.0735
-31.8339
-31.7962
-32.3969
-29.5255
-31.0444
-31.1464
-27.1212
-35.1097
-35.8827
-34.9605
-36.2754
-32.6333
-37.833
-38.8686
-29.3901
-33.9044
-34.9626
-34.9926
-34.0834
-35.1526
-38.8917
-35.7376
-33.1476
-9.5912
-0.797725
-7.7601
0.494554
-45.831
-47.5103
-42.3304
-50.1293
-41.8556
-38.4157
-40.324
-39.2302
-51.1065
-51.6241
-48.1523
-58.5353
-69.109
-76.4626
-77.7814
-68.7587
-42.8481
-46.449
-45.5002
-43.9118
-37.3869
-37.4658
-38.8318
-36.2316
-31.5559
-32.1953
-31.2995
-33.0517
-34.0188
-34.3604
-37.5925
-33.9196
-39.2892
-43.6821
-46.5069
-41.4763
-35.4554
-36.085
-35.2469
-36.5187
-32.9594
-32.7227
-32.9514
-33.0542
-31.143
-33.1859
-32.8233
-29.6664
-33.1112
-35.1203
-37.4689
-28.9276
-8.74934
-1.99421
-11.4832
-0.753232
-35.5301
-36.6893
-36.5568
-36.1953
-36.6779
-41.0893
-37.2637
-34.4794
-46.1895
-47.712
-42.4818
-50.7514
-68.8283
-73.5678
-76.2212
-67.321
-43.0405
-40.1428
-41.942
-40.5546
-51.9816
-52.9356
-49.8297
-59.8203
-121.206
-82.6219
-105.826
-100.065
155.312
180.037
175.168
158.57
-86.9761
-68.5308
-77.6744
-77.6122
156.084
203.76
183.711
187.164
-55.4997
-55.2813
-63.6418
-53.1987
-56.0758
-54.5145
-59.8603
-51.58
-52.4857
-49.4359
-52.9219
-51.8324
-37.4542
-37.2671
-37.7241
-37.2666
-45.6771
-43.8152
-44.8548
-44.6927
-38.2573
-37.7973
-37.3218
-37.8581
-47.2952
-46.7914
-46.6356
-47.4716
-42.0326
-41.7977
-42.0733
-42.5141
-67.3346
-45.8041
-65.4843
-64.0918
47.4686
117.799
80.2343
79.7592
-52.7177
-53.3141
-49.673
-57.1557
-39.8675
-39.7765
-43.8741
-34.1852
-33.2952
-35.6644
-34.311
-34.6243
-31.4085
-33.3081
-34.2191
-33.0867
-46.4322
-46.0566
-47.1324
-45.5382
-43.098
-41.7228
-44.3755
-39.9019
-102.751
-72.8717
-88.8745
-85.0391
158.361
179.33
156.854
180.193
-55.8141
-54.9713
-60.6623
-51.7172
-55.7509
-54.3691
-59.7837
-51.3795
-54.3259
-52.1507
-54.0473
-56.8864
-38.732
-38.4959
-38.8177
-38.5867
-48.2912
-46.7756
-45.3005
-47.2789
-42.3513
-42.041
-42.3466
-43.007
-47.8308
-49.3348
-54.133
-44.8716
-38.8925
-39.8447
-33.7536
-43.6989
-47.4087
-46.9941
-46.3355
-48.3907
-44.4746
-42.7603
-41.1214
-45.7725
-30.3174
-30.8777
-29.9202
-31.1764
-32.7683
-33.3242
-33.1618
-33.1449
-47.1446
-47.2047
-47.5284
-46.9778
-30.4382
-30.4511
-29.8912
-30.5566
-41.5492
-45.2021
-43.1251
-43.2817
-34.9977
-34.1423
-34.5475
-34.6121
-35.3012
-35.0529
-34.2081
-36.3338
-38.4474
-42.0691
-40.363
-39.6374
-34.6769
-34.0617
-34.2917
-34.2141
-38.4529
-40.2587
-39.3798
-39.4444
-40.3939
-36.4932
-39.4589
-36.9136
-41.2256
-28.5972
-5.78274
-63.9641
-9.96019
-20.8269
-15.4579
-15.5196
18.9519
20.6189
21.3143
20.8728
-95.4217
-105.486
-104.019
-101.628
-58.8325
-50.2667
-54.2369
-54.7839
-32.2056
-32.845
-31.9115
-33.0126
-33.1989
-33.5578
-33.4705
-33.4793
-41.3031
-43.874
-41.522
-42.7512
-32.6033
-32.8331
-32.0727
-32.9038
-36.8892
-36.8645
-37.9397
-35.9833
-39.1656
-40.7916
-41.7901
-41.0068
-42.0932
-38.3486
-38.7696
-41.2091
-44.2441
-35.1751
-72.3647
-9.07019
-98.9997
-97.3684
-104.928
-92.0791
-49.5213
-49.3899
-48.8765
-48.2647
-42.2965
-39.8514
-45.3953
-45.0393
-118.78
-94.5137
-94.859
-75.9766
-103.836
-89.4182
-89.4871
-80.1658
-98.9273
-80.5676
-81.6535
-69.0824
-36.3393
-37.4671
-39.8291
-38.1861
-46.9557
-43.7774
-46.5456
-44.8291
-97.6513
-88.4313
-81.839
-73.7355
-97.1189
-88.5005
-81.6845
-73.6154
-43.7082
-41.8285
-45.8174
-43.3661
-44.2643
-42.1384
-46.1336
-43.5839
-54.7335
-57.0783
-56.0056
-52.9076
-21.7915
-15.3773
-24.4211
-17.9714
-21.4247
-14.7103
-24.0259
-17.9251
-55.5623
-57.0891
-57.2849
-52.8411
143.278
101.899
148.211
151.048
92.0554
38.7118
109.221
68.6432
42.2582
90.9889
70.2582
111.823
93.4558
140.316
149.177
148.93
-29.1873
-29.3673
-29.2906
-29.4305
-31.9359
-32.2264
-32.1299
-32.697
-40.8433
-42.8709
-39.0817
-40.6216
-29.5484
-32.409
-31.3618
-33.5269
-30.7976
-30.6253
-31.2246
-31.367
-30.9898
-34.6116
-33.6289
-35.5944
-42.6728
-44.6463
-41.0542
-42.5129
-33.4186
-33.6754
-33.6625
-34.3703
-33.766
-34.5983
-33.6029
-34.3291
-34.684
-33.997
-34.4411
-33.8385
-34.3544
-33.7704
-34.1519
-33.7735
-33.3515
-34.0453
-33.4451
-33.9096
2.86179
9.99357
14.1184
19.3451
-87.1847
-90.0552
-98.0867
-101.578
-89.61
-87.4185
-101.382
-103.292
9.10225
0.626946
18.8007
11.8954
-46.9296
-45.8611
-43.9263
-44.366
-52.2078
-49.0375
-52.8187
-47.4012
-50.0041
-50.2278
-51.0895
-49.7097
-39.1663
-37.4626
-41.9976
-39.4711
-47.074
-41.7869
-43.8026
-44.7908
-39.3527
-38.836
-40.2482
-40.5765
-52.1845
-52.2687
-53.1542
-51.5784
-56.9344
-52.4436
-57.1451
-49.5044
-39.5272
-38.3516
-40.3566
-39.3617
-39.7518
-38.5771
-40.5626
-39.5392
-47.1601
-47.648
-47.8405
-45.3732
-46.3826
-46.8222
-47.2217
-44.7913
-55.8294
-59.9232
-50.8503
-54.9294
-34.3256
-36.5554
-34.8692
-36.6182
-35.7934
-38.1258
-35.8229
-37.791
-55.369
-58.7879
-51.6327
-54.8993
-37.9924
-38.2485
-37.9696
-37.7744
-39.4028
-39.3947
-38.8182
-39.0396
-37.0466
-38.297
-36.0916
-37.9872
-36.4708
-34.4103
-36.1817
-33.812
-61.1797
93.028
-151.723
-4.80308
-121.982
-167.076
-44.2703
-38.9443
-47.081
-40.2924
-52.9666
-45.8798
-43.3493
50.8245
-40.1272
5.84398
-76.5358
-58.1052
-42.2762
-36.4257
-35.0076
-35.6214
-43.7454
-37.5921
-114.453
-24.1024
-73.9835
70.7357
-140.336
-146.092
-48.4707
-42.025
-46.2265
-40.431
-52.9211
-47.1765
-39.8024
9.00419
-85.8801
50.8215
-93.8262
-54.1687
-37.364
-38.0446
-44.5871
-38.8052
-45.9496
-39.8804
-47.7745
-41.6559
-31.962
-34.1752
-41.6557
-33.2673
-39.1296
-35.9129
-24.4795
-35.9722
-31.6413
-32.8564
-30.867
-27.4964
-34.1004
-35.6322
-34.1307
-25.722
-34.4714
-34.5306
-34.6316
-22.6623
-16.5224
-12.0031
-43.7586
-52.5901
-44.3649
-42.7828
-47.803
-55.7991
-62.1572
-58.5093
-44.4885
-40.6204
-38.581
-35.7643
-32.4397
-34.2242
-40.4517
-32.9504
-24.9206
-36.3393
-34.5577
-36.012
-32.5599
-33.4841
-32.2354
-28.6568
-34.384
-26.2304
-19.123
-10.8418
-35.1738
-35.4974
-36.7548
-25.3901
-44.8177
-53.0463
-62.5869
-58.7057
-45.5282
-43.814
-48.8996
-56.9218
-37.9782
99.5647
-40.0475
96.8694
-94.1296
-93.477
149.817
141.907
-120.595
-47.1803
-120.954
-51.9584
-101.532
-101.429
74.3071
83.9077
-81.0044
-71.4612
-51.7273
-49.3633
-63.9474
-50.9718
-62.708
-52.644
-45.6398
-39.5715
-44.3842
-37.513
-50.1127
-49.3196
-37.9777
-37.2477
-48.0579
-42.168
-48.0001
-44.195
-47.3092
-47.1511
-40.2144
-40.6802
-47.8952
-43.5764
-47.3424
-43.1196
-48.8182
-50.8606
-42.5921
-42.6178
-31.0041
-13.4962
-30.564
-12.1353
-47.4543
-48.6071
16.3791
16.8992
-61.7187
-47.8663
-46.435
-34.7491
-49.0022
-55.8412
-46.7052
-37.1871
-33.7291
-27.9193
-34.2925
-31.0511
-32.6587
-33.0716
-30.3075
-28.6573
-48.3971
-42.2729
-45.5652
-48.0716
-48.1886
-45.9741
-47.2965
-42.778
-77.9279
99.8228
-95.1599
89.3332
-124.154
-125.928
135.491
137.638
-77.5651
-71.3828
-48.9647
-48.8428
-61.8584
-52.6558
-62.1819
-52.3094
-47.1985
-41.0676
-46.4647
-39.1837
-51.5787
-51.7267
-39.5169
-38.7202
-50.0418
-44.5493
-43.4205
-42.9332
-46.555
-52.5306
-42.7993
-43.17
-59.0041
-53.5289
-38.7929
-32.0242
-52.5669
-43.0586
-36.5975
-45.228
-49.834
-43.6778
-45.9658
-48.8897
-46.7082
-49.3894
-44.1977
-48.4706
-30.2088
-31.8918
-31.3422
-32.048
-30.1416
-31.0393
-32.4413
-32.4881
-39.1327
-31.7854
-35.921
-31.3096
-44.8188
-41.3826
-28.5745
-27.4693
-38.7955
-36.4663
-38.6732
-36.4227
-40.0153
-40.0699
-35.7605
-35.77
-32.8097
-31.8486
-37.3243
-36.6117
-34.1204
-36.2817
-34.6604
-35.5717
-35.4384
-36.669
-35.5698
-36.7786
-35.0991
-35.021
-37.5907
-37.65
-42.1024
-49.1754
-47.9401
-61.5019
-44.2695
-41.5933
-49.0414
-78.6956
-1.32321
6.15267
-2.96048
5.585
-5.10435
-5.48618
11.9898
11.7017
-83.1043
-71.2428
-80.8004
-69.5327
-89.1831
-87.5702
-64.7785
-63.8411
-31.5974
-32.6774
-32.6678
-32.7293
-31.6447
-32.6346
-32.9971
-33.0464
-37.545
-32.7632
-37.655
-32.7179
-38.4222
-40.6229
-29.908
-29.0607
-34.7243
-34.1571
-39.1562
-38.482
-38.124
-35.825
-36.2353
-36.9123
-43.7968
-49.3687
-49.8627
-62.9665
-43.217
-45.8128
-81.3077
-49.9705
-70.4128
-68.128
-61.7951
-51.7151
-51.1308
-58.5699
-49.4843
-48.3805
-64.6339
-63.0985
-59.1979
-49.5573
-56.0197
-46.3263
-44.6648
-45.7546
-62.6178
-62.7661
-58.135
-50.7008
-58.0118
-50.5776
-47.2432
-47.4063
-35.0242
-34.7377
-35.8842
-37.2716
-36.7348
-36.099
-28.086
-27.6816
197.918
154.666
205.066
208.179
134.172
134.395
154.536