# vtk DataFile Version 2.0
tri_press
ASCII
DATASET UNSTRUCTURED_GRID
POINTS 3682 float
-0.650571 0.235 -1.825
-0.775 0.305 1.81772
-0.725 0.725 -1.70443
-0.743276 0.995 1.735
0.633733 0.245 -1.845
0.775 0.315 1.82666
0.755 0.749506 -1.635
0.745 1.005 1.73258
-0.7467 0.203681 -0.61076
-0.802352 0.212838 0.60348
-0.835298 0.919206 -0.557953
-0.81655 0.984366 0.588523
0.735495 0.213661 -0.621113
0.804613 0.214965 0.602773
0.834854 0.917858 -0.512473
0.81858 0.990082 0.610053
-1.42396 -0.159748 -2.80587
-1.43362 -0.111176 -1.86679
-1.5094 -0.131461 -0.647792
-1.5648 -0.139551 0.588808
-1.56087 -0.0779704 1.8094
-1.55698 -0.027106 2.75616
-1.56052 0.0167131 3.68994
-1.41718 0.147732 -2.75721
-1.43107 0.219758 -1.82897
-1.5269 0.222062 -0.625162
-1.5768 0.221702 0.5876
-1.55185 0.281345 1.79329
-1.55152 0.331273 2.73869
-1.55924 0.374621 3.67501
-1.44427 0.719529 -2.64857
-1.49081 0.7886 -1.72982
-1.59196 0.921398 -0.574634
-1.59541 0.971581 0.579761
-1.53988 0.994989 1.73822
-1.54684 1.04205 2.68636
-1.56125 1.0886 3.63503
-1.48399 1.70153 -2.53032
-1.51783 1.78836 -1.61445
-1.57063 1.93182 -0.492632
-1.59554 2.0392 0.616982
-1.58942 2.09431 1.74402
-1.58309 2.12949 2.67075
-1.58323 2.16767 3.61293
-0.684885 -0.149179 -2.80466
-0.678835 -0.0981596 -1.87025
-0.736526 -0.138056 -0.643122
-0.7843 -0.146208 0.602123
-0.784376 -0.0654049 1.83002
-0.781688 -0.0170669 2.77102
-0.784984 0.0231509 3.69993
-0.672506 0.151612 -2.74756
-0.778673 0.342335 2.75075
-0.784771 0.381279 3.68307
-0.686715 0.698789 -2.62259
-0.773518 1.04686 2.68705
-0.787335 1.09344 3.63747
-0.712605 1.6876 -2.507
-0.736306 1.77459 -1.59063
-0.781546 1.9306 -0.475204
-0.809159 2.04646 0.623778
-0.80979 2.10045 1.74333
-0.805704 2.13414 2.66926
-0.806293 2.17189 3.6128
0.722709 -0.139241 -2.80265
0.694375 -0.0888957 -1.88094
0.753557 -0.129683 -0.649661
0.795476 -0.141895 0.60244
0.777164 -0.0577017 1.83589
0.770036 -0.00914066 2.77642
0.765855 0.0306401 3.70519
0.723685 0.163146 -2.74033
0.764673 0.350918 2.75589
0.762512 0.389016 3.68811
0.772725 0.714193 -2.5874
0.75351 1.05552 2.68984
0.755686 1.10124 3.64232
0.814692 1.69754 -2.47655
0.814627 1.78334 -1.55801
0.803224 1.9364 -0.447898
0.777567 2.05216 0.641805
0.755432 2.10718 1.75401
0.749489 2.14122 2.67745
0.747148 2.17898 3.62048
1.44769 -0.140924 -2.79463
1.42756 -0.0940245 -1.86849
1.50568 -0.116857 -0.648114
1.57109 -0.128835 0.593641
1.56164 -0.0641738 1.81851
1.54978 -0.0122103 2.76628
1.54343 0.0313106 3.70069
1.4453 0.168635 -2.73641
1.4076 0.237774 -1.82276
1.50591 0.236089 -0.619179
1.57883 0.231789 0.594437
1.55741 0.296185 1.80163
1.54413 0.346969 2.74815
1.53961 0.389596 3.68545
1.50176 0.74453 -2.59198
1.49876 0.812848 -1.66045
1.57921 0.929861 -0.523386
1.59386 0.982785 0.606099
1.5414 1.01042 1.74506
1.53199 1.05795 2.69444
1.53197 1.10368 3.64567
1.57259 1.72027 -2.47424
1.5799 1.8049 -1.55579
1.5845 1.94385 -0.442976
1.56766 2.05085 0.651119
1.54215 2.10753 1.7657
1.53095 2.14339 2.68786
1.52598 2.18167 3.62882
-0.704172 0.48 -1.7811
-0.00841901 0.247842 -1.82716
-0.70287 0.215106 -1.21788
-0.794059 0.65 1.81128
0 0.29953 1.83266
-0.760383 0.287212 1.2106
0.015 0.844495 -1.77696
-0.820565 0.862519 -1.13119
0.000862002 1.04869 1.78248
-0.788772 0.998542 1.16176
0.716792 0.497253 -1.76243
0.696469 0.217475 -1.23306
0.797367 0.66 1.81699
0.766282 0.288507 1.21472
0.826907 0.865662 -1.07374
0.789776 1.00553 1.17132
-0.778991 0.203794 -0.00364
-0.858864 0.561444 -0.584357
-0.00560249 0.208283 -0.615937
-0.840589 0.598602 0.596002
0.00113045 0.223012 0.603127
-0.827399 0.953261 0.015285
-0.000222403 1.24292 -0.535213
0.00101485 1.44432 0.599288
0.770652 0.213715 -0.00917
0.852079 0.565759 -0.566793
0.842467 0.602523 0.606413
0.829156 0.956409 0.04879
-0.883024 0.520722 -1.17454
0.883807 0.531506 -1.1534
-0.00701075 0.225281 -1.22547
0.00738879 1.00692 -1.10246
0.00329049 0.488627 -2.02309
-0.852191 0.580023 0.00582251
0.849521 0.584141 0.01981
-0.00223602 0.208378 -0.006405
0.000396224 1.43905 0.0320375
-0.886188 0.624301 1.18618
0.884226 0.631262 1.19302
0.000565223 0.255968 1.21266
0.000938427 1.40801 1.16654
0.000431001 0.655 1.99388
-0.68136 0.3575 -1.80704
-0.329495 0.238862 -1.82864
-0.686167 0.215606 -1.52144
-0.798104 0.4775 1.82808
-0.3875 0.307314 1.82014
-0.768319 0.295479 1.51416
-0.714235 0.6025 -1.74241
-0.355 0.825488 -1.78143
-0.787043 0.80802 -1.41781
-0.778341 0.8225 1.78281
-0.371207 1.02983 1.76673
-0.768859 0.999606 1.44838
0.312657 0.242423 -1.84008
0.678942 0.371127 -1.80739
0.676349 0.21999 -1.53903
0.3875 0.307067 1.82986
0.80145 0.4875 1.83709
0.775112 0.297282 1.52069
0.385 0.841366 -1.75034
0.737445 0.623379 -1.70026
0.801018 0.817648 -1.35437
0.372931 1.046 1.77668
0.782035 0.8325 1.78564
0.769725 1.0076 1.45195
-0.71903 0.215148 -0.91432
-0.762856 0.203727 -0.3072
-0.827817 0.370045 -0.597558
-0.377024 0.204236 -0.613348
-0.800547 0.230846 0.90704
-0.795006 0.203982 0.29992
-0.803653 0.414629 0.599741
-0.407087 0.204972 0.603303
-0.833413 0.896344 -0.844573
-0.867228 0.750398 -0.571155
-0.831651 0.936536 -0.271334
-0.471678 1.1889 -0.546583
-0.802736 0.991529 0.875143
-0.857162 0.805781 0.592263
-0.822097 0.968936 0.301904
-0.493765 1.38634 0.593906
0.716451 0.215099 -0.927085
0.364574 0.211717 -0.618525
0.753243 0.213518 -0.315142
0.821272 0.375967 -0.593953
0.79941 0.237774 0.908745
0.406117 0.212497 0.60295
0.78815 0.213822 0.296802
0.806032 0.417498 0.604593
0.836946 0.897826 -0.793105
0.479914 1.20559 -0.523843
0.859632 0.749891 -0.539633
0.832455 0.937583 -0.231842
0.804142 0.997768 0.890685
0.495024 1.38766 0.604671
0.857554 0.809818 0.608233
0.824559 0.973937 0.329422
-0.871489 0.500361 -1.47782
-0.350441 0.484313 -2.01248
-0.00771488 0.228414 -1.52631
-0.00256426 0.368234 -1.97684
-0.867462 0.367914 -1.19621
-0.35494 0.212834 -1.22167
-0.885719 0.637151 1.49873
-0.396814 0.6525 1.98442
0.000282612 0.274479 1.52266
0.000215501 0.477265 2.04004
-0.875621 0.455757 1.19839
-0.379909 0.261477 1.21163
0.0111944 0.948542 -1.43971
0.00914524 0.666561 -1.96708
-0.885618 0.69162 -1.15286
-0.406588 0.983299 -1.11683
0.000900214 1.35292 1.47451
0.000646502 0.851846 1.92191
-0.846955 0.811421 1.17397
-0.393917 1.37285 1.16415
0.881138 0.51438 -1.45791
0.360041 0.49294 -2.00203
0.872696 0.374491 -1.19323
0.344729 0.215404 -1.22926
0.876557 0.645631 1.505
0.398899 0.6575 1.98062
0.875001 0.459884 1.20387
0.383424 0.240066 1.21369
0.885478 0.698584 -1.11357
0.417148 0.989565 -1.0881
0.851079 0.818394 1.18217
0.395357 1.37352 1.16893
-0.82622 0.386594 0.00109126
-0.390893 0.205527 -0.0050225
-0.87655 0.541083 -0.879446
-0.854838 0.570733 -0.289267
-0.00630662 0.221388 -0.920703
-0.00391926 0.207114 -0.311171
-0.849153 0.589313 0.300912
-0.834426 0.611452 0.891091
-0.000552788 0.208376 0.298361
0.000847835 0.238474 0.907893
-0.863958 0.778724 0.0105538
-0.511515 1.39218 0.0236613
0.00358319 1.10592 -0.818839
8.69108e-05 1.37453 -0.251588
0.000705537 1.44671 0.315663
0.000976639 1.42942 0.882914
0.82338 0.392281 0.00532
0.383546 0.21237 -0.0077875
0.885231 0.548633 -0.860095
0.849744 0.57495 -0.273492
0.848401 0.593332 0.313112
0.839917 0.616893 0.899715
0.861473 0.781342 0.0343
0.514613 1.3974 0.0404137
-0.857262 0.362707 -1.49963
-0.873048 0.375238 -0.896883
-0.862896 0.715973 -0.862009
-0.87013 0.64706 -1.44781
0.864574 0.372809 -1.49847
0.885217 0.660982 -1.40614
0.859573 0.720196 -0.8266
0.878559 0.3821 -0.89359
-0.342218 0.217418 -1.52388
0.328693 0.221525 -1.53267
0.354838 0.211121 -0.923894
-0.365546 0.209142 -0.917511
-0.380794 0.929609 -1.42876
-0.412174 1.05923 -0.831706
0.417232 1.0718 -0.805972
0.401074 0.938224 -1.39704
-0.339968 0.362867 -2.00769
-0.35272 0.63453 -1.97224
0.372521 0.64497 -1.96755
0.336349 0.36968 -2.00966
-0.829596 0.377031 -0.298234
-0.817568 0.399296 0.300416
-0.861912 0.792928 0.301408
-0.865346 0.764437 -0.280301
0.824768 0.382903 -0.294317
0.860344 0.765512 -0.252667
0.860981 0.796314 0.321267
0.816406 0.404039 0.304957
-0.384003 0.204792 -0.309185
0.374347 0.211469 -0.313156
0.394831 0.212434 0.297581
-0.399278 0.204674 0.29914
-0.505884 1.31911 -0.261461
-0.506268 1.39652 0.308784
0.508055 1.399 0.322542
0.512105 1.33118 -0.241715
-0.862041 0.430739 0.899066
-0.87753 0.466628 1.50645
-0.831237 0.816961 1.47356
-0.850647 0.801453 0.883117
0.861704 0.434314 0.90423
0.851726 0.807349 0.8952
0.833864 0.825447 1.47847
0.867948 0.473692 1.51285
-0.39026 0.207482 0.907466
0.393148 0.207336 0.908319
0.385462 0.278018 1.52167
-0.383704 0.281404 1.51841
-0.400842 1.39338 0.879028
-0.382562 1.30079 1.46145
0.384144 1.3029 1.46323
0.402577 1.39621 0.886799
-0.392157 0.477383 2.01323
0.393199 0.482383 2.01298
0.385915 0.842173 1.97006
-0.38401 0.837173 1.97249
-0.671806 0.29625 -1.82186
-0.490033 0.237773 -1.82598
-0.667874 0.225798 -1.67322
-0.789371 0.39125 1.82572
-0.58125 0.301048 1.82404
-0.774942 0.296957 1.66594
-0.704922 0.66375 -1.70873
-0.54 0.780857 -1.74855
-0.763235 0.773723 -1.56112
-0.76748 0.90875 1.76558
-0.557241 1.03704 1.77549
-0.758275 0.99951 1.59169
0.473195 0.243488 -1.84276
0.660029 0.308063 -1.82989
0.65677 0.230766 -1.69201
0.58125 0.30297 1.83632
0.792089 0.40125 1.83574
0.781552 0.299645 1.67367
0.57 0.806255 -1.70349
0.741623 0.686443 -1.66303
0.776498 0.782066 -1.49468
0.558966 1.04381 1.77294
0.771008 0.91875 1.7666
0.759436 1.00837 1.59226
-0.732667 0.209612 -0.76254
-0.75476 0.203722 -0.45898
-0.853505 0.25374 -0.604159
-0.561442 0.204799 -0.612054
-0.799412 0.223879 0.75526
-0.802926 0.204164 0.4517
-0.844281 0.293094 0.601611
-0.605599 0.207146 0.603392
-0.837728 0.911147 -0.701263
-0.866918 0.84263 -0.564554
-0.833907 0.928303 -0.414644
-0.68727 1.12162 -0.552268
-0.810517 0.988822 0.731833
-0.861319 0.907305 0.590393
-0.818462 0.97579 0.445214
-0.651005 1.17705 0.591215
0.731897 0.208455 -0.774099
0.550026 0.212704 -0.619819
0.744433 0.213525 -0.468128
0.851963 0.258024 -0.607533
0.802769 0.225612 0.755759
0.605615 0.213231 0.602862
0.796835 0.21394 0.449788
0.847466 0.295159 0.603683
[...]
POINT_DATA 3682
SCALARS point_scalars float 1
LOOKUP_TABLE default
-101.424
-50.9588
-9.75822
-41.6454
-88.9559
-50.7876
-49.2045
-42.6536
-45.5923
-40.1786
-64.0535
-49.4242
-44.8772
-40.5138
-60.9831
-49.6466
-57.7768
-85.1373
-57.4546
-40.5228
-51.1247
-51.696
-43.1901
-8.19733
-85.1373
-58.879
-40.7169
-54.9781
-42.0575
-40.8974
58.7668
-89.5555
-57.6372
-44.1404
-52.5262
-38.7235
-38.2199
-18.9237
-49.8912
-96.7779
-56.0814
-40.2287
-41.8314
-37.5853
-45.1769
-128.888
-46.1819
-41.7462
-50.0328
-42.822
-38.919
59.1516
-38.7532
-38.1499
145.506
-37.3323
-37.6046
33.4492
-37.7874
-81.2579
-58.5021
-39.8105
-34.0668
-34.2143
39.2472
-140.363
-46.0401
-40.722
-49.0568
-42.5016
-38.9854
39.2472
-38.8401
-37.9255
126.956
-37.0421
-36.5421
10.4631
-39.7595
-87.6411
-60.6129
-39.7626
-33.6783
-33.6846
-74.2674
-87.2142
-61.3324
-40.3621
-52.8275
-50.6928
-42.2483
-0.05651
-100.443
-58.6874
-40.4413
-53.7907
-45.3198
-40.6737
55.336
-101.624
-56.6301
-45.2258
-45.6103
-38.4446
-38.051
-41.2489
-51.1762
-92.298
-55.5917
-40.3604
-42.2165
-37.0679
20.8361
-131.286
-59.2495
-44.8774
-44.5097
-40.8797
-19.1559
-54.3458
-28.8517
-45.3717
11.6148
-60.2482
-44.6981
-40.8416
-55.4926
-45.136
-39.532
-47.8003
-45.5995
-38.4254
-45.3614
-57.2898
-4.82434
-65.4832
-39.165
-46.3709
-38.9883
-55.7756
-71.6266
-70.94
-61.5824
-2.09603
204.208
-43.2161
-42.5344
-42.0958
-102.155
-45.9548
-45.8913
-45.1691
-45.6335
-35.1688
12.9465
-114.793
-83.1846
-46.388
-45.8596
-42.6281
8.82844
-18.1075
-52.1856
-43.2918
-31.9838
-42.013
-119.742
18.6557
-85.2018
-45.4828
-45.9891
-42.6179
-19.2272
-12.1193
-56.389
-31.9462
-42.8314
-41.7158
-45.4351
-40.5757
-45.5064
-45.0762
-53.8135
-39.4069
-37.8458
-44.1812
-57.7747
-53.3326
-60.3039
-8.5922
-47.3389
-42.0326
-53.7816
-60.1331
-46.0318
-45.3645
-40.2568
-45.0069
-53.1627
-42.6717
-38.884
-38.1345
-61.463
-14.0368
-51.4011
-58.345
-47.086
-59.9675
-42.0006
-53.0051
-114.972
179.824
-81.0742
141.265
-68.2174
-59.3362
-51.4442
-37.1808
-44.3996
-37.115
-44.8986
-43.374
-23.5826
158.777
-74.2454
-11.2597
-34.9587
-30.2815
-44.9322
-45.6696
-128.81
178.817
-68.9567
-60.191
-50.6837
-36.9615
-44.8876
-44.6745
-73.4837
-10.3554
-44.9929
-45.5393
-41.4645
-41.2274
-58.4002
-44.8054
-50.3975
-43.3372
-41.9249
-34.4393
-43.5683
-46.0105
-47.3441
-92.0192
17.0754
-66.568
-80.3944
-54.3692
-40.7279
-40.8083
-59.58
-43.6007
-41.5952
-35.41
-46.5391
-92.126
-113.554
-54.9915
-58.6854
-72.2722
-118.668
-93.6587
-57.8891
-56.1603
-78.2814
-79.3593
-49.2388
-49.0382
-28.9583
6.83366
6.81456
-28.3767
163.367
130.497
122.851
167.097
-41.2094
-40.1575
-45.1483
-50.028
-41.2199
-48.4667
-45.1601
-40.1821
-42.4108
-42.0364
-41.2961
-41.8332
-74.0052
-73.4513
-72.5353
-76.8737
-30.1787
-50.0825
-48.8972
-41.5523
-31.425
-41.9201
-48.0302
-49.0096
-50.7561
-49.6352
-44.1724
-44.0476
-52.6619
-37.5845
-37.5476
-52.5799
-37.967
-37.8641
-33.8343
-34.331
-11.682
-126.223
-102.474
-49.5716
-48.2609
-47.2289
15.7182
-6.01709
-57.5341
-43.4873
-34.2545
-40.6429
-129.301
-0.0110227
-103.251
-47.5881
-48.8412
-47.5637
-18.9643
-29.3419
-57.987
-34.0103
-43.2321
-40.2586
-43.8638
-41.7457
-43.7434
-44.6137
-41.9351
-40.317
-40.0268
-43.0114
-63.894
-57.7787
-62.2991
-78.107
-50.4599
-44.6777
-50.9962
-54.3082
-48.663
-44.5727
-41.5149
-43.348
-42.9877
-42.2256
-38.9992
-39.6101
-61.8022
-84.8253
-55.5426
-59.7084
-50.0745
-54.4517
-45.0539
-50.9833
23.2848
14.6599
-53.173
119.631
-127.87
-130.427
-98.3612
80.0596
-69.9818
-51.4421
-65.419
-58.5269
-45.6511
-43.6573
-49.8259
-38.0959
-44.7674
-44.652
-44.3076
-40.2058
-41.6139
-43.0126
-43.662
-41.3977
-16.7783
-20.4657
-27.1311
58.9335
-58.4885
-52.4921
-70.8223
-25.0403
-30.0799
-29.6943
-30.7314
-29.3073
-43.8741
-46.0114
-45.546
-44.9105
22.59
-2.82921
-45.9425
112.425
-71.7895
-52.2997
-66.8669
-59.6589
-45.3874
-43.6682
-48.6959
-37.9476
-42.3349
-43.1367
-43.5275
-41.9724
-63.7148
-56.9129
-71.9966
-24.9241
-43.5312
-45.7262
-45.4611
-44.7909
-40.0473
-39.3526
-40.7305
-40.3612
-45.9879
-50.1875
-52.1735
-46.3037
-45.4562
-45.6505
-47.7637
-44.5691
-37.7131
-39.906
-41.1036
-36.3722
-44.9424
-44.6831
-44.2375
-45.5481
-58.7664
-55.7336
-50.9705
-69.4789
-4.74592
-5.79733
10.4594
-32.3475
-64.6436
-64.2925
-71.7486
-59.4963
-39.5964
-39.0562
-39.6289
-39.8557
-45.1597
-48.559
-51.7773
-44.9468
-38.0658
-40.1038
-40.6318
-37.143
-56.6479
-54.8465
-49.7337
-67.7301
-93.3657
-70.0092
-72.8197
-63.3257
-89.4951
-70.6357
-71.3976
-62.9829
-69.9644
-60.7484
-61.2286
-55.1238
-15.1958
-4.80377
-3.31307
13.3862
202.954
172.541
190.643
201.841
-41.9347
-44.0144
-42.6393
-45.034
-41.2857
-42.9636
-42.1751
-44.3098
-41.8818
-42.712
-42.3602
-41.702
-100.876
-96.9251
-91.1711
-101.126
-47.3971
-45.5111
-45.3914
-40.3141
-47.4298
-45.304
-45.542
-39.3889
-44.7463
-45.1135
-45.37
-45.7597
-40.2032
-45.6805
-45.6452
-49.7353
-36.1912
-35.5521
-33.7498
-35.9289
-55.7953
118.954
-92.6493
96.0893
-110.771
-77.3677
-53.4725
-38.3028
-43.8654
-41.5908
-48.1302
-42.7934
-67.1484
86.2234
-30.4373
68.7251
-57.6166
-39.2678
-46.0549
-36.6495
-32.936
-32.2958
-45.5991
-39.7256
-93.7835
93.9655
-48.5791
116.061
-110.072
-79.6604
-44.193
-41.3067
-52.8236
-38.1268
-47.4691
-42.917
-32.191
53.8545
-47.6863
77.8883
-66.3893
-39.2887
-32.963
-32.1476
-45.5501
-36.3864
-45.1687
-39.7628
-51.3761
-47.5442
-41.2335
-41.5267
-56.2041
-42.3459
-46.4868
-43.5583
-32.6496
-54.2926
-39.7393
-40.7661
-39.8419
-32.935
-42.5593
-45.9142
-60.951
-12.6064
-54.4209
-51.4283
-53.7589
-80.9178
3.61225
-42.0045
-44.0663
-49.6878
-43.7671
-41.2476
-48.5016
-60.5755
-65.0027
-57.2111
-52.7088
-48.1183
-48.2471
-43.2136
-40.2338
-41.0795
-55.8211
-41.9645
-34.3855
-55.3583
-42.0496
-46.0068
-39.5071
-40.1944
-39.6392
-33.8542
-60.7623
-15.7374
1.92804
-51.5547
-53.4796
-49.6811
-51.8759
-76.436
-44.0691
-49.327
-64.6529
-56.5283
-43.8819
-41.8049
-48.027
-59.9096
-116.589
-98.0375
172.98
164.723
-80.3904
-80.6678
156.256
161.074
-86.3001
-59.5183
-67.634
-53.5797
-50.6177
-52.0827
-37.5693
-37.1064
-44.6397
-44.7155
-37.5812
-37.3649
-43.4664
-45.9864
-45.3651
-44.3099
-24.2704
-23.8853
166.191
162.003
-65.1106
-97.1796
-21.7525
-0.251767
-35.2868
-35.3064
-31.2512
-31.5281
-47.9892
-42.2693
-49.0358
-41.5222
-123.373
-116.342
156.105
174.838
-87.774
-59.9773
-68.6781
-54.0953
-51.2477
-49.5979
-37.4035
-36.805
-42.5275
-45.9126
-46.7023
-44.4747
-90.5703
-63.7344
1.7467
-20.6907
-42.3803
-47.5529
-41.5471
-48.95
-42.1695
-40.8067
-41.695
-41.2314
-57.3854
-58.7289
-42.8606
-47.0573
-50.2058
-50.0675
-43.0846
-42.9522
-40.8012
-43.4049
-31.1076
-38.8357
-42.4263
-42.5879
-46.6115
-46.6062
-46.4494
-48.6714
-95.2994
-83.9683
15.2648
14.9407
-64.0078
-68.0136
-79.465
-78.8514
-53.7893
-53.779
-41.0914
-40.9136
-41.3765
-40.855
-59.4046
-58.6609
-41.9735
-45.7867
-43.1919
-40.5123
-32.9096
-39.2683
-47.4779
-45.999
-81.8404
-93.7704
-60.2266
-83.6279
-87.6285
-56.7422
-54.2927
-53.8022
-62.0523
-56.7529
-59.9773
-65.6226
-64.1873
-52.2095
-65.1249
-60.2221
-95.6167
-81.1946
-51.9023
-47.2351
-89.1605
-86.1106
-62.3303
-81.0597
-89.1862
-41.0427
-58.1331
-51.4549
-63.7689
-65.229
-55.4337
-57.2032
-62.0991
-52.979
-93.4844
-96.9846
-69.0961
-67.3765
-93.9779
-68.8377
-69.714
-97.8237
-48.4659
-47.8503
-54.8458
-53.165
-45.3614
-52.041
-54.5997
-47.3789
-45.4386
-33.2504
-17.0669
-27.5151
-49.4292
9.8563
9.606
-17.9469
-60.0119
-17.036
10.6774
8.84904
-48.6539
-28.0768
-16.042
-33.3419
69.2064
116.438
172.685
32.6131
63.1404
85.4354
188.425
112.115
51.7274
100.776
185.804
75.0647
69.2826
49.5125
173.515
109.91
-40.7825
-40.4162
-42.572
-44.2095
-39.8642
-40.1292
-41.4824
-39.6887
-46.4623
-49.7856
-44.2917
-42.221
-55.7727
-48.3872
-46.0701
-52.1666
-39.6364
-43.1253
-41.6408
-39.5507
-53.5389
-50.7254
-44.9983
-46.8542
-46.0606
-42.307
-43.859
-49.0176
-39.6728
-39.7226
-41.1858
-39.7981
-42.7669
-44.1435
-42.5389
-40.7732
-42.3766
-40.4094
-42.246
-44.24
-40.883
-43.5272
-41.8299
-39.8406
-41.5906
-40.3502
-42.0795
-43.706
-90.3169
-74.7013
-93.7637
-32.2639
-56.626
-70.7609
-90.5025
-65.3971
-56.6002
-64.3049
-89.8235
-70.3064
-83.1254
-33.6694
-94.144
-71.7601
-32.928
-44.848
-43.1654
-34.1485
-54.6078
-52.6182
-46.9498
-44.2783
-44.67
-46.0779
-47.8921
-47.6317
-45.2276
-38.811
-39.4053
-43.9154
-35.9325
-35.1188
-41.7209
-43.9803
-45.298
-44.3327
-39.6939
-39.6007
-44.1765
-46.7926
-47.8736
-45.5509
-53.4526
-44.3073
-46.658
-52.1886
-46.0794
-45.8395
-45.897
-43.7356
-44.5977
-44.4841
-46.0924
-45.9655
-44.3316
-44.1722
-44.9599
-42.6307
-44.1683
-42.1451
-44.7891
-44.2287
-52.5375
-47.057
-49.7493
-58.9596
-36.2319
-31.3257
-40.7538
-42.2008
-36.3183
-42.1298
-40.7254
-31.264
-52.111
-58.7178
-49.6816
-46.8509
-40.8988
-40.5721
-36.4271
-38.341
-40.6291
-38.2144
-36.2026
-40.4631
-35.7126
-30.3215
-35.0442
-37.3453
-36.0617
-37.5414
-35.3891
-30.7916
-52.1647
-133.065
-127.776
-51.6762
-49.5226
-47.9593
12.8567
14.3541
-68.9481
-43.7624
-36.7865
-40.8312
-145.973
-45.9734
-132.088
-49.4392
-50.2657
-49.3707
-20.7242
-44.0975
-75.5064
-37.0777
-43.3197
-40.3456
-45.7614
-42.8446
-44.8792
-44.6839
-41.2363
-40.6624
-40.2575
-41.9359
-64.9909
-60.769
-63.1083
-75.5714
-50.0274
-46.9782
-49.7887
-51.7995
-48.2777
-44.3879
-42.6859
-43.1781
-41.9125
-41.9382
-39.285
-39.802
-60.4071
-70.9455
-58.133
-59.9933
-49.824
-52.0516
-47.5573
-50.1184
22.3858
17.5018
-52.4889
80.0402
-129.244
-131.703
-113.986
-82.914
-64.3712
-54.9411
-63.6689
-58.6455
-45.1948
-44.3224
-46.2594
-39.4646
-44.6584
-44.5824
-44.1577
-41.7652
-41.3203
-40.9796
-42.9263
-40.899
-18.1762
-19.2798
-26.1361
-30.0589
-61.2239
-52.1391
-65.3563
-36.8635
-29.2889
-29.0953
-29.8149
-28.9423
-44.6887
-45.4444
-45.5534
-44.4804
18.281
3.37787
-43.1012
67.9031
-65.2486
-55.8484
-65.0277
-59.7636
-45.065
-44.1311
-45.7375
-39.2458
-40.9698
-41.0098
-42.5357
-41.2611
-58.8555
-54.188
-68.9733
-37.2848
-44.5526
-45.3259
-45.4575
-44.3137
-39.6166
-39.1525
-39.651
-39.9731
-46.7875
-48.9557
-49.0147
-46.9857
-45.5958
-45.5646
-46.2892
-45.3475
-38.1004
-38.8253
-39.64
-37.3985
-45.306
-45.2917
-44.7637
-45.5829
-58.3679
-56.407
-53.2592
-62.6044
-4.57355
-5.18757
4.3834
-15.3868
-65.308
-65.1425
-68.439
-62.4921
-39.2157
-38.7553
-38.5813
-39.4777
-45.4953
-47.4576
-48.0931
-45.5695
-38.5629
-39.6067
-39.9005
-37.8885
-56.0173
-55.2822
-51.8953
-61.2534
-79.4548
-70.7662
-72.3556
-66.7697
-78.1823
-70.8144
-71.4674
-66.3233
-65.4006
-61.3074
-61.5603
-58.116
-7.89481
-2.01649
-2.33457
6.41116
204.412
191.357
203.102
201.721
-42.5251
-43.5896
-42.9474
-44.0325
-41.8256
-42.7409
-42.4193
-43.3699
-41.9964
-42.399
-42.1546
-41.9587
-102.627
-102.885
-96.7337
-102.561
-46.3385
-45.6114
-45.9627
-44.8229
-46.5961
-45.4952
-45.9494
-43.5162
-45.08
-45.0967
-45.2042
-45.3168
-43.0831
-45.6985
-45.6703
-47.8817
-35.4192
-35.2399
-35.6717
-35.2502
0.709821
22.1214
-54.6572
80.8102
-113.19
-123.138
-103.925
49.3499
-89.6842
-77.4587
-110.528
-78.318
-47.6421
-45.9605
-50.7092
-40.0345
-48.3698
-45.3411
-44.5002
-43.3096
-43.6232
-41.4753
-46.138
-42.3585
15.8134
11.1362
-48.8037
54.1274
-7.09993
-17.6727
-25.5942
9.46108
-55.0871
-52.7024
-57.1768
-46.1309
-43.1533
-43.4146
-43.9162
-37.9317
-32.5635
-31.0744
-32.0973
-32.1589
-41.4912
-42.6744
-43.9926
-40.4655
-115.306
-126.292
-106.171
40.6936
8.52621
24.4563
-45.0497
86.7266
-91.2735
-79.5719
-114.582
-80.757
-46.9392
-44.9577
-44.5886
-43.8792
-46.9446
-45.6344
-48.8322
-39.8272
-43.95
-42.0913
-45.7921
-42.4595
-9.00398
-21.1085
-31.0137
7.41322
-20.925
-5.53377
-55.8215
44.0478
-55.5174
-60.0905
-63.4098
-46.3227
-32.5879
-30.7222
-32.1138
-32.066
-42.6789
-42.9536
-43.4987
-37.6778
-40.9209
-42.7474
-43.6887
-40.371
-44.5
-48.3295
-46.573
-46.3721
-40.9007
-40.2839
-41.1006
-41.1444
-45.0314
-45.4231
-50.4689
-43.2894
-44.8827
-45.1851
-45.7467
-44.3109
-44.6446
-49.6964
-43.693
-55.0786
-39.5217
-39.444
-39.701
-40.2649
-38.0811
-37.5672
-39.1751
-35.7125
-43.7132
-44.4918
-43.0061
-45.2018
-61.8221
-56.1555
-61.3142
-38.0927
-55.2897
-51.6685
-54.1704
-52.2473
-61.3895
-59.6308
-56.5777
-67.7576
-30.5132
-6.2038
-2.07803
-25.2234
-48.565
-46.6655
-45.545
-47.8859
-43.1934
-41.0718
-42.6188
-41.4514
-52.2679
-54.7625
-50.9031
-57.1949
-56.2638
-62.9637
-62.4677
-59.5966
-46.2273
-49.0964
-45.3233
-47.505
-45.0786
-45.4689
-47.607
-44.0041
-40.6701
-39.8433
-40.2144
-40.651
-45.2458
-44.8717
-50.1002
-42.9608
-45.6786
-50.1588
-41.8261
-55.5254
-41.9876
-43.8593
-42.5158
-43.9684
-38.7786
-39.0549
-39.1784
-39.6539
-38.4712
-37.7623
-38.9764
-36.2263
-62.5406
-60.5508
-62.2737
-50.8624
-43.8893
-8.26696
-3.89901
-31.1584
-53.114
-49.9138
-52.3017
-50.3471
-59.2305
-57.3843
-55.4659
-65.139
-48.6727
-46.3352
-45.4524
-47.6841
-56.188
-62.4537
-62.2966
-58.6046
-43.167
-40.8138
-42.352
-41.9945
-51.8084
-54.0327
-50.3055
-56.71
-75.9094
-108.312
-115.589
-107.394
148.579
198.691
177.174
174.044
-87.9426
-75.2655
-80.8978
-81.0545
131.027
150.512
153.515
158.963
-66.938
-69.158
-75.255
-63.1509
-58.8096
-60.0283
-63.0191
-56.2825
-54.0516
-48.8266
-51.0911
-52.1298
-37.6835
-36.8231
-37.3785
-37.6717
-44.3953
-44.3416
-44.3698
-44.3629
-38.5031
-35.8813
-37.192
-37.0526
-44.3851
-45.2147
-45.0237
-44.9168
-42.001
-44.9123
-44.2738
-43.4965
-26.8857
-20.5351
-23.7497
-23.4735
123.232
180.509
165.79
163.206
-72.7843
-73.3988
-69.067
-83.124
-17.5675
-8.32426
-17.003
-4.76101
-31.9858
-37.8985
-35.3564
-35.4684
-29.8052
-30.5814
-30.5258
-30.7372
-45.4817
-45.0896
-47.0175
-43.3603
-45.4254
-45.4844
-47.4279
-43.802
-80.8569
-111.437
-127.601
-128.872
147.636
197.31
174.431
177.555
-68.1303
-69.8476
-76.2119
-63.7394
-59.6713
-60.6975
-63.9433
-57.0052
-52.4473
-49.2892
-51.2617
-49.9077
-37.5158
-36.5689
-37.1628
-37.5092
-44.4304
-45.2108
-43.9727
-45.1495
-42.7194
-45.5813
-44.759
-44.9244
-73.7258
-72.2591
-79.694
-68.5554
-15.6608
-6.78382
-3.89227
-15.7162
-45.3826
-45.1251
-43.5538
-46.4573
-45.3523
-45.5159
-43.6932
-47.3854
-41.6653
-41.5282
-41.9529
-40.8655
-40.7958
-41.5698
-41.4047
-41.1839
-55.9043
-61.0504
-57.9023
-58.9009
-45.3749
-44.3417
-43.8452
-45.8151
-48.9824
-52.6129
-50.3665
-50.3487
-43.8694
-42.9471
-43.2491
-43.2271
-41.4424
-42.3654
-41.2868
-42.6109
-35.7728
-34.7694
-32.7685
-36.4321
-44.1309
-42.7433
-42.9444
-43.1042
-45.7259
-46.1092
-46.0871
-46.1038
-48.8634
-46.1116
-46.9113
-48.0221
-83.2889
-97.7546
-93.8875
-88.3822
15.2196
16.8651
16.7065
16.5579
-46.3575
-84.9719
-66.0723
-67.2331
-75.7077
-85.6742
-80.3196
-80.0016
-56.847
-52.0672
-54.268
-54.204
-40.774
-40.8819
-40.7919
-40.6732
-40.3562
-41.2773
-41.0628
-40.7861
-56.461
-60.3095
-59.9404
-58.9558
-44.0862
-43.2361
-42.7219
-44.5765
-41.1801
-42.0067
-42.3497
-41.0015
-36.5389
-36.4814
-34.3216
-37.3437
-47.9688
-45.3413
-47.0101
-46.3159
-80.9364
-97.1816
-86.7409
-93.699
-82.8462
-111.816
-115.837
-102.199
-53.8744
-54.863
-56.8735
-56.2742
-59.5197
-55.406
-61.6704
-58.5919
-52.473
-59.3444
-85.6772
-103.214
-77.5641
-114.001
-121.359
-105.762
-61.0101
-76.3476
-108.817
-103.566
-58.9987
-55.3456
-61.0396
-58.1074
-55.2707
-55.9546
-57.138
-57.6409
-84.2486
-77.0664
-79.505
-72.9099
-85.0986
-79.2255
-80.1674
-73.9221
-48.6576
-48.1693
-51.4538
-49.8826
-48.3461
-47.4428
-51.0855
-49.6437
-31.7446
-32.8378
-26.2887
-25.4093
-0.051193
6.18847
4.70756
12.5764
-0.793195
5.23252
4.96432
12.167
-32.4857
-32.5453
-25.514
-24.9712
129.741
144.652
167.714
149.842
101.871
108.93
144.347
158.435
99.9071
90.79
151.916
142.507
148.869
126.138
159.993
171.662
-40.64
-41.4475
-41.864
-42.1705
-40.1246
-39.9801
-40.5051
-40.5403
-44.7098
-46.3618
-44.3059
-45.9234
-50.6975
-51.8064
-48.4486
-49.3034
-41.0178
-41.4337
-41.1985
-41.355
-49.0871
-50.114
-47.0468
-47.9734
-44.6954
-46.5237
-44.1523
-45.4835
-40.4845
-39.8114
-40.625
-40.2008
-41.9588
-42.9252
-42.0086
-42.7884
-42.5593
-41.5577
-42.5077
-41.5957
-41.6304
-40.7524
-41.8485
-41.0188
-41.302
-42.3395
-41.3094
-42.2363
-90.1082
-57.9967
-80.9598
-64.7339
-66.3629
-68.4038
-78.6168
-77.0159
-68.3908
-65.6101
-76.2108
-77.2828
-62.1443
-91.6545
-67.6241
-86.1232
-30.6964
-29.1417
-40.9488
-30.7941
-51.6806
-49.5136
-50.4104
-47.3727
-48.1383
-47.1937
-50.6126
-48.4052
-42.5698
-41.3996
-41.6629
-40.3243
-32.6429
-30.7277
-41.9513
-33.2373
-42.9172
-41.9141
-41.9248
-40.7317
-47.1906
-46.6774
-48.7932
-47.885
-50.7637
-48.5244
-49.264
-47.926
-51.7212
-47.3756
-48.9335
-47.789
-51.9114
-47.1958
-48.6221
-47.6881
-44.0931
-43.885
-44.4481
-44.385
-44.0714
-43.6306
-44.5391
-43.907
-51.8536
-54.9132
-50.6498
-53.5306
-34.8424
-38.3608
-35.9603
-39.976
-34.87
-38.3962
-36.1901
-39.9653
-51.5853
-54.6934
-50.5441
-53.3627
-38.111
-39.1923
-37.6167
-37.8246
-39.1461
-37.9784
-37.6405
-37.4593
-32.2527
-35.874
-31.7692
-35.5011
-36.2459
-32.643
-35.8588
-32.1307
-75.416
63.9422
-109.709
-3.41278
-81.3342
-95.1537
-53.4703
-42.4022
-45.7655
-43.8366
-53.252
-44.8043
-72.8612
51.4984
-22.3371
29.6926
-62.3459
-53.0888
-43.4951
-37.784
-35.1231
-34.9155
-43.0482
-38.1271
-108.418
23.031
-62.9342
78.1989
-76.0004
-97.3731
-45.8168
-43.9526
-51.2423
-42.0803
-52.6274
-44.6312
-28.7505
16.6199
-72.212
29.3094
-61.4416
-58.3963
-35.0736
-34.562
-43.1993
-37.4964
-42.6212
-38.0265
-45.0239
-45.1008
-40.3876
-42.4427
-53.3349
-41.0224
-44.6299
-43.5811
-36.6372
-45.1996
-40.5469
-41.0852
-40.5098
-37.6139
-42.3058
-44.3705
-62.9986
-72.6967
-59.3431
-56.7459
-59.2307
-71.8744
-63.1098
-93.0883
-47.9467
-51.7507
-44.943
-45.1474
-48.3184
-54.0891
-54.9524
-53.8795
-50.8284
-48.7214
-46.7001
-43.32
-39.4624
-41.9928
-55.9544
-40.8014
-40.1579
-43.7113
-41.4654
-43.5187
-39.6848
-40.3354
-40.2426
-36.9895
-60.5555
-72.3834
-74.6426
-91.2124
-56.6389
-54.3911
-56.2646
-68.55
-48.0457
-51.4448
-55.3124
-53.485
-45.3025
-45.2108
-48.2746
-53.9365
-55.458
83.5348
-49.1391
73.0741
-54.4209
-55.9484
111.614
119.459
-112.589
-131.606
-114.487
-122.507
-98.2464
-98.3821
42.0143
43.5863
-80.7183
-68.0229
-54.9812
-51.6087
-72.4747
-60.3609
-62.3662
-55.1821
-48.9428
-39.9564
-44.956
-38.7121
-51.5681
-48.9773
-38.3645
-37.8843
-44.2087
-42.1484
-44.0972
-42.03
-44.3256
-44.3719
-40.3765
-40.3281
-43.1278
-41.4389
-46.8819
-43.1918
-43.7514
-43.7515
-42.0896
-41.7569
-25.2114
-24.6519
-26.4181
-22.812
-27.0379
-27.3656
74.0499
69.8214
-69.8985
-43.8689
-63.1648
-30.4164
-67.9655
-77.39
-29.5391
-20.8127
-30.5534
-30.3745
-30.4046
-29.8367
-30.9454
-30.8813
-29.5112
-29.954
-45.0937
-42.4562
-44.6973
-45.7688
-46.5602
-44.7347
-46.0156
-43.7296
-44.3946
75.5268
-48.6246
56.5898
-48.3441
-42.4341
112.247
111.049
-83.355
-69.6381
-55.4639
-52.6156
-74.49
-61.4877
-63.8093
-56.1637
-48.1745
-39.8393
-44.4639
-38.4046
-47.8509
-50.1833
-38.24
-37.6783
-43.1035
-42.0899
-45.6403
-43.8114
-42.8411
-43.6942
-42.6367
-42.3477
-75.0304
-44.7162
-65.9298
-32.7434
-75.2345
-68.7169
-21.0169
-29.0898
-44.7178
-42.4405
-44.6351
-45.6336
-44.6832
-46.1976
-43.6332
-45.8206
-39.6691
-40.4039
-41.0185
-39.9219
-40.7557
-39.5772
-40.543
-40.3194
-48.6237
-44.9037
-51.2885
-49.2117
-52.7893
-51.6544
-45.3057
-47.2335
-46.2014
-44.8361
-46.5249
-45.1031
-47.8226
-47.6517
-44.4083
-44.5071
-39.0853
-36.088
-40.5923
-39.3023
-40.5319
-41.8918
-35.3313
-37.5187
-44.1664
-45.8425
-44.0071
-45.9909
-44.3235
-44.241
-45.6178
-45.6235
-54.4792
-65.2667
-52.159
-60.0927
-50.1173
-51.5358
-72.0525
-67.1707
4.48589
-14.7491
3.28047
-17.4737
10.708
10.1371
-32.1692
-33.0153
-67.5259
-61.8211
-67.1573
-61.4694
-71.6049
-71.3631
-59.4027
-59.2861
-39.4796
-39.9584
-40.774
-39.41
-39.601
-39.3911
-40.1155
-39.8172
-48.1398
-43.8177
-49.7264
-47.5831
-51.2199
-52.3005
-44.041
-45.8302
-39.1121
-36.6006
-41.0866
-39.7783
-41.2525
-40.1849
-36.1417
-38.2874
-52.86
-63.2513
-51.4283
-59.4814
-50.2042
-49.3663
-65.929
-69.8078
-89.7704
-94.0779
-77.0058
-65.1235
-67.5474
-81.1036
-62.8326
-63.7414
-89.0603
-89.0314
-76.7732
-65.6478
-78.1917
-66.8892
-63.3623
-62.5363
-69.7206
-69.9857
-64.5039
-57.4927
-65.0604
-57.803
-55.0838
-54.9858
-15.3503
-15.2121
-10.3988
2.59504
3.66777
-9.59021
11.7149
12.3352
190.801
201.077
171.603
170.56