# vtk DataFile Version 2.0
tri_press
ASCII
DATASET UNSTRUCTURED_GRID
POINTS 3682 float
-0.876159 0.055 -1.815
-0.689711 0.115 1.995
-0.715 0.753379 -1.865
-0.575 1.415 1.80979
0.80439 0.055 -1.895
0.685 0.115 1.99766
0.725 0.755 -1.86126
0.575 1.415 1.80637
-0.801364 0.0876459 -0.545
-0.737177 0.109683 0.725
-0.727538 1.03312 -0.64007
-0.683752 1.25655 0.58486
0.745463 0.0941304 -0.597447
0.713556 0.106241 0.700107
0.72958 1.02958 -0.638717
0.685209 1.25521 0.583827
-1.64019 -0.530179 -2.76485
-1.63167 -0.415801 -1.76392
-1.55747 -0.389429 -0.490568
-1.45827 -0.416422 0.791574
-1.38935 -0.41897 2.06577
-1.37965 -0.35516 3.0707
-1.3874 -0.258748 4.06933
-1.62263 -0.102069 -2.79258
-1.61611 0.0387877 -1.79919
-1.53958 0.109614 -0.538428
-1.43253 0.142274 0.724998
-1.35122 0.169817 1.98708
-1.35533 0.235963 2.99247
-1.37278 0.327139 3.99412
-1.53611 0.698819 -2.84537
-1.49783 0.831848 -1.86177
-1.46746 1.06498 -0.633979
-1.37846 1.26735 0.59034
-1.2734 1.40601 1.82085
-1.31002 1.46368 2.82876
-1.34925 1.52674 3.8394
-1.43856 2.08828 -2.95681
-1.41744 2.25273 -1.97472
-1.40061 2.54083 -0.765797
-1.37585 2.84208 0.433253
-1.34724 3.06525 1.6462
-1.34251 3.1765 2.63666
-1.3516 3.25434 3.63974
-0.878613 -0.520244 -2.78616
-0.875122 -0.399212 -1.78698
-0.817484 -0.395971 -0.504339
-0.750178 -0.444007 0.789561
-0.706502 -0.461183 2.07248
-0.70409 -0.385215 3.07374
-0.710383 -0.277708 4.06844
-0.867346 -0.102821 -2.80768
-0.695561 0.210436 2.99414
-0.704021 0.311699 3.99235
-0.78868 0.664655 -2.84788
-0.660003 1.462 2.82273
-0.689003 1.5233 3.83386
-0.698963 2.0581 -2.95886
-0.682175 2.2208 -1.97514
-0.681271 2.52367 -0.768075
-0.68266 2.8445 0.42669
-0.6753 3.07657 1.63666
-0.674479 3.18652 2.62709
-0.680363 3.26082 3.63093
0.703441 -0.519684 -2.83711
0.742099 -0.398025 -1.85074
0.717658 -0.392216 -0.551549
0.700086 -0.445529 0.764433
0.682221 -0.461958 2.0653
0.655305 -0.38578 3.06607
0.64542 -0.278299 4.05804
0.714794 -0.102422 -2.85647
0.636577 0.210038 2.98919
0.635236 0.311142 3.98324
0.720046 0.665206 -2.87043
0.603561 1.46164 2.817
0.625527 1.52276 3.82512
0.778841 2.05787 -2.97627
0.782464 2.22024 -1.98851
0.757595 2.52261 -0.779044
0.706139 2.84352 0.416828
0.662644 3.07581 1.6272
0.654395 3.18586 2.61706
0.659057 3.26019 3.61986
1.48278 -0.529098 -2.85521
1.51647 -0.413771 -1.86499
1.47604 -0.385304 -0.570301
1.42025 -0.417808 0.744003
1.3738 -0.420808 2.04241
1.34395 -0.356485 3.05053
1.33299 -0.259974 4.04646
1.49754 -0.101341 -2.87804
1.54789 0.0396221 -1.89871
1.49342 0.11393 -0.614155
1.41776 0.140181 0.681914
1.35251 0.16804 1.96949
1.3216 0.234763 2.97623
1.319 0.325943 3.97355
1.49235 0.699288 -2.89716
1.50769 0.831672 -1.90182
1.47865 1.06331 -0.666013
1.39039 1.26552 0.567989
1.2825 1.40454 1.80512
1.28123 1.46256 2.81307
1.3027 1.52556 3.81988
1.51858 2.08779 -2.99415
1.51552 2.25169 -2.00548
1.48032 2.53905 -0.791565
1.41288 2.84031 0.410625
1.35225 3.06375 1.62515
1.33624 3.17515 2.61511
1.3406 3.25307 3.61659
-0.846357 0.404189 -1.89078
-0.0358845 0.158596 -1.7514
-0.838912 0.0711722 -1.18
-0.722781 0.765 1.99282
-0.00235549 0.195809 1.91552
-0.716772 0.109014 1.36
0.00500003 0.84443 -1.95337
-0.737394 0.909376 -1.25254
0 1.44675 1.83983
-0.645473 1.35187 1.19733
0.81197 0.405 -1.9254
0.771501 0.077991 -1.24622
0.722064 0.765 1.99408
0.703343 0.106555 1.34888
0.745206 0.910206 -1.24999
0.645898 1.3509 1.1951
-0.748582 0.119353 0.09
-0.859298 0.560385 -0.592535
-0.0279504 0.161152 -0.571223
-0.856022 0.683114 0.65493
-0.0118106 0.169132 0.712553
-0.712331 1.15152 -0.027605
0.00102097 1.26769 -0.639393
0.000728415 1.47039 0.584343
0.672106 0.157589 0.05133
0.860494 0.561855 -0.618082
0.857222 0.680725 0.641967
0.714095 1.1491 -0.027445
-0.885487 0.482287 -1.21627
0.875837 0.483428 -1.24811
-0.0319175 0.0867893 -1.21311
0.0030105 0.967872 -1.25126
-0.0154422 0.404595 -2.1631
-0.854824 0.62175 0.0311975
0.856194 0.62129 0.0119425
-0.0198805 0.161585 0.070665
0.000874692 1.44471 -0.027525
-0.895246 0.724057 1.27866
0.895273 0.722862 1.27199
-0.00708303 0.17554 1.35444
0.000364207 1.47078 1.19621
-0.00117774 0.765 2.07019
-0.860771 0.229595 -1.8524
-0.456022 0.0719502 -1.81805
-0.845008 0.0756139 -1.4975
-0.746999 0.44 2.03466
-0.346033 0.196525 1.91414
-0.707189 0.108059 1.6775
-0.778358 0.578784 -1.87557
-0.355 0.835607 -1.94589
-0.742991 0.848171 -1.55877
-0.698811 1.09 1.95123
-0.2875 1.44334 1.83728
-0.627264 1.40046 1.50356
0.384253 0.151847 -1.77815
0.817413 0.23 -1.91944
0.785424 0.0690165 -1.57061
0.341322 0.196561 1.91543
0.744376 0.44 2.03671
0.696277 0.108672 1.67327
0.365 0.835949 -1.94355
0.773788 0.58 -1.89864
0.751764 0.849264 -1.55562
0.2875 1.4434 1.83562
0.697228 1.09 1.94892
0.626763 1.39926 1.50073
-0.770197 0.12935 -0.8625
-0.757054 0.121418 -0.2275
-0.847711 0.315325 -0.568768
-0.394479 0.164755 -0.558112
-0.728619 0.107704 1.0425
-0.730119 0.127279 0.4075
-0.857417 0.36599 0.689965
-0.359253 0.16989 0.718777
-0.72781 0.966594 -0.946303
-0.829037 0.814564 -0.616303
-0.720722 1.09311 -0.333838
-0.409384 1.24266 -0.639732
-0.663275 1.30287 0.891093
-0.790229 0.980001 0.619895
-0.699789 1.20578 0.278628
-0.391655 1.46375 0.584602
0.741005 0.103537 -0.921835
0.341289 0.162576 -0.584335
0.706276 0.128368 -0.273058
0.846085 0.306439 -0.607764
0.711987 0.10286 1.0245
0.334865 0.169701 0.70633
0.692816 0.131929 0.375718
0.853615 0.35937 0.671037
0.735029 0.967529 -0.944353
0.413205 1.24444 -0.639055
0.829952 0.813175 -0.628399
0.722618 1.09012 -0.333081
0.664408 1.30191 0.889463
0.393387 1.46364 0.584085
0.791702 0.97821 0.612897
0.701326 1.20383 0.278191
-0.879071 0.443238 -1.55352
-0.430899 0.404392 -2.10689
-0.033901 0.140838 -1.48226
-0.0256634 0.281595 -2.10941
-0.868704 0.27673 -1.19813
-0.435415 0.126738 -1.19656
-0.863848 0.744529 1.63574
-0.361979 0.765 2.07815
-0.00471926 0.197992 1.63498
-0.00176661 0.480404 2.15974
-0.89744 0.416536 1.31933
-0.361927 0.169057 1.35722
0.00400526 0.919197 -1.60232
-0.00522111 0.624513 -2.10484
-0.876739 0.695832 -1.2344
-0.367192 0.951103 -1.2519
0.000182104 1.46803 1.51802
-0.000588872 1.10588 2.03045
-0.767062 1.03796 1.23799
-0.322554 1.46663 1.19677
0.86882 0.444214 -1.58676
0.398264 0.404797 -2.11338
0.856459 0.280709 -1.24716
0.369792 0.0882601 -1.22967
0.862479 0.743931 1.63303
0.360443 0.765 2.07701
0.897473 0.414709 1.31044
0.34813 0.177319 1.35166
0.879959 0.696817 -1.24905
0.374108 0.948616 -1.25063
0.767267 1.03688 1.23354
0.323131 1.46662 1.19566
-0.850749 0.346028 0.0605987
-0.371556 0.165819 0.0803325
-0.859986 0.521336 -0.904401
-0.856597 0.591067 -0.280669
-0.0299339 0.161131 -0.892168
-0.0239155 0.168065 -0.250279
-0.854887 0.652432 0.343064
-0.891603 0.703586 0.966796
-0.0158455 0.168167 0.391609
-0.00944681 0.162503 1.0335
-0.816304 0.902998 0.00179625
-0.425094 1.43685 -0.027565
0.00201573 1.06139 -0.945328
0.00094783 1.40331 -0.333459
0.000801553 1.46031 0.278409
0.000546311 1.47356 0.890278
0.85209 0.34547 0.0316363
0.324402 0.163009 0.0609975
0.861524 0.522641 -0.933094
0.857954 0.591573 -0.30307
0.856105 0.651008 0.326955
0.890516 0.701794 0.956979
0.817316 0.901278 -0.00775126
0.427455 1.43684 -0.027485
-0.870045 0.253162 -1.52551
-0.846218 0.300373 -0.883451
-0.83825 0.746293 -0.925352
-0.885792 0.637308 -1.55614
0.855408 0.255355 -1.57868
0.876296 0.638408 -1.57119
0.84489 0.746267 -0.938723
0.855641 0.304351 -0.927464
-0.445718 0.0918875 -1.48988
0.377022 0.143578 -1.52643
0.364274 0.161188 -0.907001
-0.425036 0.16258 -0.877334
-0.361096 0.919045 -1.58054
-0.365225 1.04321 -0.945815
0.369704 1.04492 -0.94484
0.369554 0.91919 -1.57897
-0.443461 0.255595 -2.09395
-0.39295 0.601648 -2.08096
0.381632 0.602256 -2.08184
0.391258 0.255798 -2.0645
-0.848928 0.330828 -0.254084
-0.851109 0.357496 0.375282
-0.805835 0.942784 0.310846
-0.825164 0.860028 -0.307253
0.849528 0.325734 -0.288064
0.82596 0.85839 -0.318075
0.807177 0.941078 0.302573
0.851849 0.352922 0.351337
-0.380795 0.169732 -0.23889
0.330375 0.167733 -0.261669
0.329519 0.166584 0.383664
-0.36486 0.168943 0.399555
-0.441548 1.38837 -0.333648
-0.409921 1.45339 0.278518
0.41202 1.45344 0.2783
0.444161 1.3883 -0.33327
-0.892726 0.406467 1.00465
-0.883137 0.428268 1.65662
-0.760786 1.06398 1.56965
-0.786944 1.0039 0.928944
0.896873 0.404096 0.990737
0.788348 1.00242 0.923221
0.759748 1.06344 1.56688
0.883301 0.427354 1.65315
-0.368211 0.157981 1.038
0.349501 0.164879 1.029
0.344726 0.214614 1.65413
-0.35398 0.215325 1.65624
-0.332033 1.46908 0.890685
-0.305027 1.46427 1.51079
0.305316 1.46426 1.50938
0.33305 1.46906 0.88987
-0.354006 0.460202 2.14082
0.350883 0.460202 2.14183
0.323972 1.09794 2.02044
-0.32474 1.09794 2.02138
-0.876509 0.142297 -1.84175
-0.66609 0.0641523 -1.81585
-0.848008 0.0778826 -1.65625
-0.739077 0.2775 2.03555
-0.517872 0.197881 1.91245
-0.685351 0.124628 1.83625
-0.746197 0.666082 -1.8698
-0.535 0.803598 -1.91455
-0.741388 0.813168 -1.71188
-0.637356 1.2525 1.88096
-0.43125 1.42892 1.82328
-0.614933 1.42153 1.65667
0.594321 0.090036 -1.84996
0.820398 0.1425 -1.91671
0.791127 0.065788 -1.73281
0.513161 0.19793 1.9144
0.735614 0.2775 2.03811
0.685445 0.117029 1.83547
0.545 0.804522 -1.91145
0.750556 0.6675 -1.88111
0.750705 0.814455 -1.70844
0.43125 1.43152 1.82332
0.636607 1.2525 1.87814
0.614554 1.4208 1.65355
-0.772251 0.122028 -0.70375
-0.766657 0.117084 -0.38625
-0.811103 0.208203 -0.556884
-0.59785 0.126343 -0.551556
-0.733351 0.108241 0.88375
-0.72215 0.129979 0.56625
-0.824563 0.224204 0.707483
-0.546403 0.143411 0.721888
-0.731389 1.00357 -0.793186
-0.758742 0.914072 -0.628186
-0.724566 1.06355 -0.486954
-0.605088 1.21114 -0.639901
-0.674636 1.28083 0.737976
-0.735553 1.11755 0.602378
-0.69344 1.23283 0.431744
-0.580772 1.44629 0.584731
0.733818 0.10825 -0.759641
0.546719 0.121667 -0.590891
0.71791 0.119209 -0.435253
0.81005 0.193147 -0.602606
0.712711 0.104611 0.862301
0.512094 0.162203 0.703218
0.689558 0.132714 0.537913
0.820477 0.21436 0.685572
0.734236 1.00049 -0.791535
0.609767 1.21376 -0.638886
0.760093 0.911541 -0.633558
[...]
POINT_DATA 3682
SCALARS point_scalars float 1
LOOKUP_TABLE default
-162.044
-60.792
-68.2102
-51.3072
-179.025
-59.3161
-74.2223
-48.7447
-41.8193
-32.1326
-77.0034
-52.0389
-43.2802
-33.2412
-76.327
-51.7186
-55.6912
-155.24
-41.872
-55.9333
-56.9859
-62.3307
-49.6112
-55.6912
-167.393
-41.5343
-50.7506
-55.8148
-51.458
-48.1656
34.1208
-132.496
-53.379
-46.6126
-52.0546
-45.4708
-43.6575
-64.4618
-66.6511
-92.7267
-60.9953
-49.6366
-52.0868
-52.0868
-87.2619
-172.991
-41.872
-46.1687
-61.2561
-49.8928
-48.6284
21.7814
-47.6076
-47.9758
143.846
-41.6348
-40.9635
-78.45
-45.4849
-82.7312
-61.1305
-48.9868
-46.223
-46.223
-46.7131
-178.399
-43.1972
-44.121
-59.6741
-48.9966
-48.6289
71.5865
-47.0693
-47.1347
159.789
-37.5891
-37.6965
-77.3423
-54.7338
-83.392
-61.1697
-47.4112
-44.3175
-44.3175
-108.566
-136.405
-40.2307
-51.1665
-56.9131
-61.0422
-47.9074
1.69813
-145.109
-42.46
-41.2365
-54.347
-50.4681
-47.2387
61.0183
-123.092
-52.6838
-46.2376
-48.646
-42.9667
-41.0726
-65.0133
-70.683
-90.8895
-59.8507
-47.1762
-49.2958
-49.2958
-105.03
-104.648
-63.2296
-46.6884
-52.6551
-48.7488
-74.1563
-50.1418
-41.7457
-48.4579
-74.2663
-62.0148
-44.7174
-48.4444
-48.4509
-47.7438
-35.9027
-45.1765
-48.21
-40.4301
-40.9039
-60.8
-4.39144
-61.9975
-34.2736
-45.5297
-39.8529
-60.3016
-63.6666
-62.8741
-89.8806
2.93599
192.738
-42.3125
-42.0891
-40.5379
-86.8404
-51.6618
-50.8552
-50.4433
-50.5441
-43.6394
-139.541
-124.496
-73.545
-49.6968
-53.2084
-55.565
-33.0249
-81.0556
-69.0145
-45.6291
-44.6579
-47.7284
-104.511
-96.3714
-77.8558
-52.7722
-48.5499
-53.2927
-81.6027
-34.6032
-69.4987
-42.6962
-43.0255
-46.6592
-45.5474
-38.9836
-41.5314
-46.1743
-47.9409
-35.0636
-30.9703
-38.8408
-54.548
-53.9243
-67.7189
-5.78438
-49.8311
-47.266
-54.9845
-59.7201
-50.3368
-47.6674
-37.9672
-42.2839
-49.4796
-39.4402
-36.0115
-30.1482
-57.2014
-6.13154
-53.5892
-66.9632
-49.4331
-59.5583
-46.8893
-54.6781
-94.2771
183.854
-81.6708
-14.7973
-62.9679
-71.8716
-52.8261
-44.8569
-50.8971
-48.3545
-52.1803
-51.2683
-27.5991
186.534
-64.2059
-4.27982
-46.7442
-33.8858
-48.3426
-50.2712
-93.7606
182.337
-62.3494
-77.9265
-51.6457
-43.5123
-51.1995
-50.4578
-63.4951
-4.08442
-47.5415
-49.8839
-37.2313
-39.1626
-48.9971
-43.8057
-60.7482
-42.6302
-40.7642
-46.4659
-39.9788
-48.5083
-51.8451
-82.5537
31.0757
-100.848
-71.0375
-55.9088
-37.2276
-39.7206
-50.5441
-43.8289
-40.4108
-45.5243
-51.1669
-82.2311
-86.6796
-48.0397
-52.9739
-103.529
-89.12
-101.726
-53.7469
-51.7421
-80.8137
-89.6577
-60.0464
-56.3722
-31.6226
19.9947
20.8351
-31.3911
146.898
149.708
154.519
-14.3538
-39.4178
-35.6724
-48.7837
-53.3444
-39.4992
-53.3414
-48.5298
-35.2507
-41.1838
-42.067
-39.0528
-38.7113
-89.4773
-67.6278
-67.536
-89.3202
-49.3592
-60.2144
-49.3461
-47.3661
-49.1139
-46.9254
-47.704
-60.0498
-48.2132
-48.4377
-50.1026
-50.0928
-54.9859
-47.6298
-46.8326
-54.7635
-47.7905
-47.5959
-35.0393
-38.321
-120.693
-135.624
-95.7355
-52.4081
-53.017
-52.0864
-36.6472
-55.0452
-85.1073
-45.8031
-47.2075
-50.3669
-120.507
-77.784
-107.48
-52.585
-51.1095
-53.0577
-50.079
-41.1026
-83.4216
-44.2763
-43.1742
-47.9461
-38.6034
-38.1072
-40.6601
-43.3711
-50.9731
-33.1017
-21.45
-36.3001
-76.433
-63.0564
-71.4209
-47.7751
-50.9461
-49.4305
-53.5477
-55.8375
-44.4435
-46.2372
-39.9127
-41.0735
-49.7658
-38.2493
-33.244
-18.5776
-76.2009
-52.6647
-62.571
-70.0994
-50.6452
-55.5343
-49.072
-53.2439
-142.062
-44.9652
-134.732
107.62
-112.618
-105.531
-96.5439
-119.589
-64.8079
-61.2211
-62.385
-67.1836
-48.2652
-46.5239
-56.1034
-45.3339
-52.9534
-52.7185
-49.3356
-48.1869
-55.5613
-47.8816
-51.7271
-51.6273
-92.5562
-90.7606
-46.4443
132.046
-59.7128
-47.467
-58.158
-16.7931
-42.7743
-41.7241
-44.7133
-36.0637
-47.5051
-48.6737
-48.2322
-49.8403
-95.3117
-47.412
-143.199
137.918
-67.6356
-64.1778
-61.0108
-70.0254
-46.9011
-44.2524
-54.1728
-43.463
-54.7136
-47.2559
-50.9953
-50.8742
-58.5319
-47.4224
-56.5618
-15.9638
-46.5515
-48.2228
-47.4718
-49.3115
-33.2039
-33.0401
-35.3268
-37.6297
-42.9607
-48.8965
-46.3071
-44.3892
-47.6273
-48.2012
-53.045
-44.9736
-36.5394
-43.4743
-40.3773
-41.0292
-40.4392
-40.8378
-40.6839
-49.4843
-64.3107
-57.7608
-55.2283
-74.2358
-4.50503
-4.83405
30.8332
-54.7012
-61.4501
-61.3748
-66.07
-58.6903
-37.4903
-33.8503
-34.7766
-38.6872
-43.6328
-48.794
-46.975
-44.6137
-36.2126
-43.0926
-39.9437
-40.0185
-63.753
-57.3513
-54.8977
-73.3735
-75.6269
-63.4415
-63.8784
-56.753
-74.5807
-62.7053
-63.244
-56.5052
-63.7891
-83.9786
-89.9543
-76.925
-12.642
0.997867
1.11241
16.3001
187.611
125.394
200.201
189.763
-39.4997
-43.1526
-41.4274
-46.816
-39.4393
-43.1064
-41.1437
-45.866
-40.24
-40.5024
-40.5964
-40.3937
-85.8556
-97.5336
-79.0049
-85.7459
-54.2005
-51.9665
-50.066
-49.8641
-53.2756
-51.2906
-49.229
-49.1758
-51.1294
-50.9078
-50.382
-49.4578
-48.5446
-50.5146
-50.3137
-52.8396
-44.055
-45.3757
-41.1206
-43.3728
-118.739
104.585
-92.9144
81.2844
-82.6509
-75.9673
-55.1526
-47.3445
-50.9114
-48.2721
-61.8631
-51.5586
-137.026
97.592
-50.0051
134.032
-88.8355
-40.9109
-50.9198
-41.456
-46.4121
-39.2792
-48.5595
-48.3265
-105.19
-129.36
-132.744
129.175
-85.1353
-83.4654
-50.9155
-47.7262
-53.951
-46.8358
-61.4187
-50.8801
-49.6243
139.661
-130.504
111.105
-86.46
-40.1796
-45.3056
-37.0747
-48.5429
-38.3458
-47.0166
-47.1558
-47.5442
-50.2591
-39.3305
-38.696
-43.1691
-40.4015
-50.1726
-43.3131
-49.8132
-49.0791
-34.4621
-37.3666
-33.8585
-46.1931
-39.2921
-50.0055
-54.9024
2.73006
-53.4345
-54.5202
-59.7358
-94.1972
21.705
-48.6738
-48.4133
-53.1873
-47.7332
-47.3834
-51.4664
-61.3874
-63.4264
-57.0794
-51.8248
-55.8802
-52.5486
-44.3788
-38.2175
-41.0362
-45.4623
-40.6145
-49.9011
-50.3545
-39.5482
-49.8169
-34.4089
-38.1579
-33.3753
-43.7222
-56.4121
3.18934
21.6256
-49.6901
-52.9721
-54.2849
-59.3502
-91.7564
-48.0122
-52.8268
-63.3052
-56.9065
-47.4648
-46.9819
-51.2007
-60.9537
-90.42
-96.1787
172.944
185.327
-84.7651
-84.7349
-22.6291
-3.08895
-72.1682
-57.4739
-74.8162
-66.2061
-56.127
-51.3815
-45.9222
-42.192
-50.7052
-50.8256
-48.2901
-48.2876
-50.1408
-55.5441
-49.7329
-52.8692
-28.4248
-28.2592
162.382
164.767
-56.6231
-77.6961
-19.4325
6.51804
-47.0985
-46.6865
-33.4792
-35.5151
-48.7273
-48.1372
-52.1912
-48.7469
-92.0495
-95.5477
188.07
138.989
-72.6061
-56.726
-76.7341
-74.0705
-49.8832
-55.4439
-44.9249
-39.7916
-49.8759
-55.1537
-49.4863
-51.3028
-74.2784
-56.005
7.00732
-19.1574
-47.6292
-47.7091
-48.2019
-51.9103
-38.1911
-36.417
-39.2994
-39.1456
-48.6805
-50.3886
-41.1744
-47.4274
-61.032
-59.3159
-42.2994
-42.5834
-37.9909
-43.9809
-48.4722
-46.062
-39.7585
-39.6475
-48.2891
-48.4653
-49.9187
-52.4308
-91.7118
-74.4269
27.1693
27.6693
-95.3901
-95.1834
-70.2467
-70.1928
-55.6967
-55.5867
-38.5336
-36.1956
-39.9725
-39.5841
-51.3657
-50.761
-41.3125
-47.332
-43.6321
-37.6294
-48.0519
-45.5342
-52.6113
-49.5467
-74.3164
-91.1376
-110.602
-69.6158
-73.8519
-124.373
-41.0807
-44.707
-57.0021
-58.4457
-59.6859
-52.415
-56.4878
-49.0185
-85.193
-144.727
-75.9525
-70.8763
-125.042
-136.725
-73.9995
-69.8847
-90.4536
-67.8555
-74.8713
-146.435
-59.0438
-48.9986
-56.163
-51.8182
-45.3845
-56.5963
-56.6888
-46.0122
-92.3635
-99.7703
-69.5217
-69.4661
-105.273
-73.0005
-66.0486
-97.5819
-49.2458
-53.0716
-77.7272
-69.9782
-45.0011
-62.5667
-71.9223
-52.4652
-55.8602
-30.276
-14.8315
-48.106
-14.5714
28.6375
13.8211
-7.61645
-17.1568
-7.18389
14.2045
29.0709
-56.1632
-47.7579
-14.6454
-29.5183
43.7849
114.724
117.464
-129.458
60.6076
157.709
198.428
95.7157
62.523
134.471
200.959
154.566
84.3984
-109.223
119.522
138.84
-39.2617
-35.8336
-40.3303
-42.0066
-31.496
-37.1956
-38.7317
-34.235
-50.1114
-53.4673
-44.661
-43.5391
-61.7019
-48.2948
-46.6226
-57.92
-38.699
-42.2494
-40.4011
-37.8155
-61.3267
-57.5655
-46.7616
-48.3342
-49.778
-43.1028
-44.3827
-53.0344
-30.5317
-32.6846
-38.485
-36.7634
-40.8199
-44.5704
-40.2314
-37.8325
-43.0065
-39.4597
-40.3992
-44.9333
-38.5273
-40.5217
-40.4222
-38.4787
-37.3156
-37.0802
-40.2797
-40.3873
-90.4867
-84.8105
-96.0288
-51.5868
-60.7575
-65.4047
-78.2495
-65.2291
-60.0049
-65.0136
-78.194
-65.3506
-89.9888
-52.5725
-95.8104
-83.7565
-52.0804
-49.8245
-50.1321
-41.6586
-55.4075
-55.8124
-55.0236
-56.442
-49.965
-48.2266
-50.6426
-55.8046
-48.9537
-44.8522
-48.6651
-48.035
-51.5216
-39.3417
-49.5581
-49.4213
-48.5937
-47.5167
-47.9775
-44.2788
-47.5744
-53.5339
-49.6136
-46.6162
-54.246
-56.2185
-54.3612
-54.3376
-48.4915
-49.8668
-49.6681
-49.869
-46.4342
-49.987
-49.3874
-49.4326
-51.8561
-49.0654
-51.0682
-52.4124
-51.8335
-54.3079
-51.3294
-49.1392
-52.9122
-51.4204
-52.6946
-58.3242
-47.8964
-45.3505
-48.6908
-48.6414
-46.5893
-47.8842
-48.406
-44.7267
-53.0418
-58.2352
-52.5493
-51.0265
-47.9451
-48.0873
-45.8126
-45.9117
-47.1648
-44.6491
-45.3648
-48.0557
-38.8739
-35.9821
-40.4217
-40.9338
-41.2944
-43.7799
-41.7373
-37.3779
-143.701
-149.967
-136.456
-56.9316
-59.5962
-49.6959
-55.5918
-41.7632
-80.7893
-48.5318
-48.6793
-51.8697
-148.292
-90.7261
-145.734
-57.9182
-55.4938
-50.3984
-46.2215
-62.6478
-81.4278
-45.8494
-45.4173
-49.577
-33.9379
-42.5745
-40.0607
-43.467
-50.536
-29.7285
-19.1509
-36.4326
-80.6713
-67.6208
-73.4163
-89.8177
-51.33
-50.8808
-52.7943
-53.1863
-40.6944
-45.1793
-43.9718
-41.854
-44.7607
-38.2971
-30.4165
-22.6758
-80.6595
-95.3322
-67.4857
-72.1043
-51.0281
-52.9099
-50.5698
-52.4923
-129.797
-69.2466
-172.371
48.4281
-104.025
-105.3
-101.692
-102.28
-62.7585
-66.7517
-62.4732
-65.3963
-47.3769
-46.6826
-53.9897
-45.3454
-52.7909
-52.6863
-50.903
-49.8855
-50.929
-48.7778
-49.8357
-50.1043
-88.1662
-81.7092
-59.8386
21.296
-52.5482
-46.0103
-57.9347
-29.116
-42.1309
-41.6045
-43.4321
-37.6329
-47.7201
-48.332
-48.2856
-49.3013
-87.9254
-46.9201
-157.723
77.0646
-64.4618
-61.4312
-60.7933
-65.2184
-45.7046
-44.5873
-51.9222
-43.3796
-49.7894
-47.4108
-49.2997
-49.8553
-52.3599
-45.3204
-56.8634
-28.726
-46.8968
-47.77
-47.5449
-48.6251
-32.2341
-38.0525
-35.082
-36.836
-43.9301
-46.8208
-45.6886
-44.8394
-48.0462
-48.1859
-50.3951
-46.4168
-39.0305
-41.8299
-40.3152
-40.415
-40.7868
-40.8586
-41.2223
-43.9899
-62.6313
-59.176
-57.8942
-66.2607
-4.46521
-4.54332
19.1802
-27.295
-61.8659
-61.8292
-63.8974
-60.2792
-38.7057
-34.0764
-32.3792
-36.0562
-44.4387
-46.9515
-46.1508
-45.1338
-38.3304
-41.3324
-39.7934
-39.8523
-62.0839
-58.7221
-57.4828
-65.5764
-68.9947
-63.7381
-63.6403
-60.1596
-68.2707
-62.8525
-62.9145
-59.1946
-75.7464
-89.5639
-92.0168
-86.4118
-4.22823
2.57665
2.69437
9.6479
194.308
169.848
205.72
194.519
-40.8657
-42.7707
-41.8811
-44.0001
-40.7455
-42.6346
-41.6438
-43.7011
-40.4556
-40.3812
-40.416
-40.5263
-86.6199
-91.0573
-83.2502
-86.5675
-53.3772
-51.8175
-51.3706
-50.6332
-52.6093
-51.0815
-50.6012
-49.9115
-50.7412
-50.557
-50.3934
-49.972
-49.5189
-50.5443
-50.4429
-51.6193
-43.729
-44.895
-43.7562
-43.5289
-133.069
-144.828
-153.459
16.2327
-126.529
-113.896
-107.325
-89.7405
-80.9555
-68.1246
-78.901
-74.3313
-50.4633
-49.0351
-54.8419
-47.4987
-53.3908
-53.0659
-51.1403
-50.2441
-55.4607
-51.8764
-62.9184
-52.1761
-31.2511
-46.2653
-93.485
40.3564
-78.56
-89.3988
-65.7802
35.7805
-74.4544
-65.6113
-75.6373
-52.3251
-45.5341
-46.44
-51.6973
-42.5782
-45.7724
-43.7068
-45.9525
-40.454
-49.0359
-46.7383
-48.4361
-48.9685
-124.187
-98.5638
-111.095
-99.3268
-87.7028
-100.198
-156.098
67.0337
-88.3325
-72.2718
-82.448
-80.0557
-52.8444
-52.7562
-50.921
-49.5187
-49.3079
-47.8423
-53.5154
-46.6522
-53.7171
-52.6861
-62.5289
-52.421
-73.7591
-87.719
-65.9013
44.2271
-34.0157
-36.8045
-99.6728
49.8384
-76.8537
-61.7374
-76.8179
-51.4901
-43.6671
-42.0796
-44.2615
-38.413
-42.8857
-43.9308
-48.9337
-39.9765
-47.0062
-45.6813
-46.8791
-47.6224
-41.1559
-52.0783
-46.2872
-47.8641
-39.0315
-39.1095
-39.948
-38.4655
-40.6891
-42.1419
-41.9931
-40.9422
-44.8926
-46.9772
-47.9679
-44.5713
-48.5029
-47.0677
-49.2797
-48.4433
-34.3802
-32.3872
-33.6362
-36.1471
-25.8129
-34.3538
-32.3529
-38.0958
-36.7924
-39.7414
-39.4666
-44.6478
-69.2796
-47.9773
-62.2813
-18.9392
-58.375
-51.5671
-53.3362
-54.1033
-69.6097
-66.1066
-62.9132
-80.2492
-12.0374
-3.94813
11.5464
-26.9613
-50.6344
-48.99
-49.021
-50.2366
-48.2675
-45.5348
-47.69
-47.3193
-54.1069
-56.2915
-53.2709
-58.1045
-58.3169
-60.7615
-61.3756
-58.3579
-47.4497
-57.4348
-50.8498
-53.3659
-47.309
-48.0078
-49.846
-45.8327
-39.7851
-37.526
-37.9809
-39.7474
-41.8125
-42.918
-43.7757
-41.1047
-50.066
-48.1417
-50.3273
-49.7852
-37.4983
-40.406
-39.8541
-43.7182
-34.8073
-32.6834
-34.3325
-37.3603
-25.9495
-33.8662
-31.8488
-34.7495
-73.2692
-48.5804
-63.9609
-18.7938
-14.2285
-5.30553
11.5096
-27.8431
-57.8952
-51.224
-53.2297
-53.7668
-68.6381
-65.5252
-62.4206
-79.4093
-50.2806
-48.5903
-48.6404
-49.592
-58.1131
-60.6458
-61.2506
-58.187
-47.9208
-45.1241
-47.3816
-46.9453
-53.7736
-55.9707
-52.9574
-57.7224
-111.337
-82.8629
-92.5262
-95.0965
159.676
187.649
176.939
185.761
-90.5741
-74.3666
-83.3375
-82.3708
-84.9518
45.6618
11.559
5.18337
-62.6378
-63.2213
-67.02
-60.0918
-68.7562
-78.0658
-77.5857
-70.6082
-53.547
-53.5786
-54.1094
-52.0684
-45.2894
-44.2728
-45.9411
-43.9786
-49.1373
-51.156
-50.7475
-50.8649
-47.8865
-46.9012
-48.4511
-48.4189
-52.0692
-52.2521
-50.7369
-53.5549
-51.4324
-51.6483
-50.4425
-51.5832
-36.6039
-20.408
-27.7632
-27.6527
165.967
191.298
170.932
175.009
-61.9382
-64.1205
-60.6156
-69.131
-9.1077
-0.955096
-11.3683
0.972282
-45.8927
-47.6169
-46.8914
-46.6813
-34.5501
-35.248
-33.4911
-34.5707
-48.1896
-48.7933
-48.6613
-48.3454
-50.0779
-50.4333
-51.1546
-49.4677
-111.826
-82.5418
-92.5516
-94.0593
167.582
183.077
190.874
169.093
-61.8467
-62.5257
-66.915
-59.1272
-74.6175
-86.5254
-73.3093
-78.0421
-51.9981
-52.7578
-50.7106
-53.1937
-43.6225
-43.2258
-44.9725
-42.3872
-50.8585
-51.406
-50.322
-52.988
-50.5045
-50.414
-49.9645
-50.9066
-60.5898
-63.2924
-67.6881
-59.6811
-8.72724
-0.776953
1.27687
-11.1791
-47.3728
-47.9231
-47.765
-47.6722
-49.611
-50.1378
-49.0092
-50.8287
-36.3597
-38.456
-37.6464
-36.8395
-38.5854
-39.7546
-39.0306
-38.9876
-47.3658
-52.5865
-48.805
-49.5881
-44.1178
-43.5085
-42.3206
-45.3861
-56.478
-65.5053
-60.9119
-60.0975
-43.9044
-41.4026
-42.5387
-42.6465
-40.5028
-41.0482
-39.3734
-42.0538
-42.6309
-48.7691
-48.1376
-46.2812
-40.1727
-40.2855
-39.9206
-39.9201
-48.9955
-48.9602
-48.5271
-48.4966
-54.1241
-49.6073
-50.4256
-52.7068
-80.1858
-84.4852
-87.7592
-78.464
35.667
22.9568
29.1386
29.6005
-81.8232
-99.2778
-101.16
-101.023
-68.2286
-74.7856
-70.7975
-70.7749
-57.1999
-54.3915
-55.8536
-55.799
-36.3544
-38.4218
-37.9532
-36.7053
-39.2332
-40.1444
-39.7173
-39.5137
-48.092
-53.6509
-50.8288
-50.4312
-44.2841
-43.4802
-42.3958
-45.3672
-40.0967
-40.7364
-41.7036
-38.9792
-41.4399
-47.9892
-47.6831
-45.6673
-53.9839
-48.6153
-52.2373
-50.0778
-80.23
-84.2844
-78.2225
-87.3368
-98.4626
-85.0355
-88.4796
-78.7035
-47.8124
-45.1365
-52.7814
-48.458
-53.5548
-52.8149
-53.9014
-51.6171
-125.018
-101.651
-98.2788
-86.9529
-104.217
-87.5888
-90.3288
-79.7657
-121.093
-96.4933
-98.3304
-84.405
-53.8917
-53.0226
-54.3413
-52.6318
-52.2025
-48.0055
-54.7093
-51.0029
-82.9271
-77.789
-83.8364
-76.8711
-97.7107
-88.7317
-88.17
-81.3784
-58.9518
-55.8844
-64.4101
-60.6653
-53.8031
-52.9386
-60.4619
-57.9125
-40.0561
-35.6622
-29.6904
-25.5378
13.6003
25.3768
12.4326
24.6248
14.3639
25.6775
12.8339
25.2901
-39.8375
-35.2742
-29.5645
-25.315
140.191
125.46
159.389
0.143319
130.779
135.367
175.833
156.751
137.862
138.901
158.828
174.85
-94.7127
133.519
-66.45
92.7821
-38.9726
-39.9967
-38.8313
-40.2244
-34.8797
-34.9207
-36.0681
-36.8364
-48.4227
-50.1352
-45.9468
-49.5461
-53.8936
-57.4224
-49.8894
-52.7155
-38.8655
-40.0733
-38.9778
-40.3893
-53.8691
-57.2914
-49.8704
-52.5103
-48.1555
-49.8943
-45.6407
-49.2535
-34.6034
-34.4925
-35.7135
-36.5145
-40.5876
-42.2595
-40.0558
-41.7834
-43.2928
-41.8308
-42.4337
-40.8739
-39.3374
-38.6109
-39.5057
-39.2239
-38.2528
-38.963
-38.9767
-39.2307
-86.1279
-74.4079
-95.5624
-94.3928
-65.1716
-65.274
-70.8656
-69.2276
-65.1579
-65.0159
-69.1614
-70.7947
-75.4729
-86.8031
-93.979
-94.8448
-50.3294
-48.9446
-49.3755
-48.7609
-56.8318
-60.9673
-58.0081
-58.9728
-49.8283
-48.8425
-50.3021
-48.9725
-47.877
-47.2758
-48.3256
-46.1495
-50.1751
-48.0101
-49.3806
-48.4988
-47.4822
-46.9283
-47.7877
-45.7386
-47.8795
-47.29
-48.6979
-47.4977
-55.844
-60.9837
-57.7176
-59.012
-48.8126
-48.2266
-49.0969
-47.8782
-49.6607
-49.0658
-48.987
-48.3509
-48.7367
-50.1318
-50.8209
-51.8654
-48.7507
-50.2187
-50.9266
-52.9652
-54.5113
-55.9224
-53.617
-55.4314
-47.1581
-47.9732
-47.3475
-48.1303
-46.2254
-46.9726
-46.7402
-47.4711
-54.231
-55.7268
-53.3685
-55.2652
-47.5858
-47.5893
-46.9049
-47.9216
-47.2675
-47.3244
-47.8086
-46.3236
-35.7411
-36.5544
-33.8997
-35.7345
-39.9959
-38.4073
-39.0325
-36.7419
-153.018
-7.02661
-113.607
-83.2241
-105.187
-93.6728
-57.0116
-48.7964
-51.556
-50.1889
-56.8397
-52.0598
-72.5512
22.3432
-68.4573
-1.40745
-92.0879
-65.8132
-51.5453
-42.2639
-48.4533
-42.1598
-50.4444
-49.6422
-116.506
-32.5645
-138.695
37.9016
-121.315
-103.021
-51.4993
-49.3051
-55.866
-47.7936
-56.7691
-52.3153
-68.0461
0.41327
-81.8303
31.7322
-95.6988
-65.2368
-46.6468
-39.8211
-48.5813
-39.7946
-48.0607
-47.9615
-38.5731
-42.1762
-38.1265
-39.7191
-40.5901
-40.0496
-44.9689
-41.5506
-61.7202
-48.1587
-30.7137
-35.3956
-28.5333
-35.535
-37.5078
-42.8677
-67.5369
-62.3771
-62.3524
-62.3693
-66.0247
-92.6401
-28.2558
-66.2089
-50.0225
-51.8194
-49.6413
-49.1819
-51.9573
-56.1608
-57.7591
-54.4897
-45.3318
-46.625
-48.1348
-44.2741
-37.7025
-41.4007
-42.118
-39.511
-57.2065
-44.7682
-38.95
-44.7256
-30.5882
-36.8421
-27.5431
-21.9695
-66.1148
-66.7142
-30.5319
-67.5495
-61.976
-61.7189
-65.2751
-90.3136
-49.6951
-51.6297
-58.3057
-53.6155
-49.3193
-48.8266
-51.6158
-55.7758
-160.872
35.3232
-156.948
37.2106
-127.397
-139.147
112.639
104.921
-106.624
-100.091
-107.379
-98.7751
-99.1291
-96.1088
-114.548
-105.904
-67.147
-67.3167
-58.6061
-61.0853
-65.4098
-60.6503
-67.6937
-68.7651
-54.5097
-46.57
-54.3092
-44.7411
-55.7522
-56.5776
-45.7346
-44.9181
-51.2568
-50.0179
-51.1059
-49.8549
-48.9881
-49.0582
-48.2089
-48.107
-54.9275
-54.5635
-48.0602
-48.7422
-50.5373
-53.579
-50.9057
-53.7489
-62.8346
78.6373
-61.9429
78.5217
-47.1479
-46.66
147.616
143.586
-65.9638
-41.1566
-55.7757
-22.5117
-54.7125
-65.0558
-23.7549
-11.6592
-44.4011
-38.6755
-43.5944
-37.488
-44.96
-44.6347
-35.8798
-36.6242
-47.8356
-48.1415
-48.3343
-50.6001
-48.257
-48.0436
-50.5681
-49.1783
-164.018
78.9756
-144.739
82.1957
-139.321
-144.802
132
143.511
-67.3461
-69.6385
-57.1793
-68.6099
-65.116
-58.3364
-70.8254
-69.5802
-52.9553
-45.5107
-51.8414
-42.3884
-54.4498
-54.1007
-44.2083
-42.7272
-54.9986
-53.6934
-47.652
-48.6395
-49.8848
-53.0723
-50.7449
-51.7007
-65.043
-40.2457
-54.9566
-22.3925
-62.4653
-53.5988
-10.8217
-23.0511
-45.7818
-47.2897
-47.8542
-50.1952
-47.4196
-47.8785
-48.5526
-50.1377
-33.8735
-35.3886
-31.2375
-35.3998
-35.8728
-34.7825
-38.0817
-38.8037
-43.7046
-42.408
-48.8684
-48.6461
-45.3847
-47.5823
-43.0377
-46.0959
-49.8
-45.8655
-50.4179
-46.3963
-53.1208
-53.0504
-44.855
-44.9859
-36.9594
-37.0702
-43.4
-44.1759
-38.7992
-41.7157
-39.8775
-43.0326
-40.8276
-43.8293
-40.9156
-43.4852
-40.6386
-40.5905
-49.5041
-49.4546
-60.3922
-72.0801
-55.5991
-60.9504
-54.1758
-56.3387
-78.5502
-70.4307
18.1446
-24.9484
18.148
-26.0435
30.4076
30.6381
-53.9846
-54.2851
-63.2867
-59.8167
-63.2207
-59.7341
-65.9117
-65.8842
-58.6135
-58.5702
-38.9529
-37.9418
-30.9346
-35.7721
-36.216
-34.2384
-39.2341
-38.5469
-44.678
-42.9108
-48.8447
-48.6956
-47.9324
-46.3439
-43.269
-46.2123
-36.4593
-36.4196
-42.9812
-43.5518
-41.2751
-38.3741
-38.2671
-42.3275
-59.9551
-71.3992
-55.2151
-60.6377
-56.0548
-53.625
-68.4704
-77.6251
-74.7354
-75.6161
-68.2359
-59.8074
-60.4804
-69.2622
-56.8614
-56.5549
-74.4811
-74.4908
-67.6975
-59.1941
-68.444
-59.4892
-56.1253
-56.6416
-65.6175
-64.0251
-75.8357
-80.4471
-75.8185
-85.4428
-77.9019
-74.7149
-13.2461
-13.1833
-6.04151
7.32357
7.63828
-5.91549
15.4526
15.9217
154.634
202.589