# vtk DataFile Version 2.0
tri_press
ASCII
DATASET UNSTRUCTURED_GRID
POINTS 3682 float
-0.739492 0.145 -2.085
-0.695 0.255 2.15102
-0.725 0.735 -2.04314
-0.675 1.03362 2.155
0.739492 0.145 -2.085
0.695 0.255 2.15102
0.725 0.735 -2.04314
0.675 1.03362 2.155
-0.744778 0.16155 -0.672993
-0.767658 0.160506 0.739013
-0.830828 0.957034 -0.64376
-0.809576 1.05199 0.75562
0.744787 0.161541 -0.672993
0.767659 0.160505 0.739013
0.83083 0.957037 -0.64376
0.80956 1.05197 0.75562
-1.52209 -0.310917 -3.22331
-1.51661 -0.233603 -2.09876
-1.52045 -0.21916 -0.686424
-1.51407 -0.230025 0.72845
-1.46247 -0.174068 2.141
-1.44981 -0.125279 3.26659
-1.45752 -0.0814578 4.39025
-1.51947 0.0395755 -3.20692
-1.51868 0.139282 -2.08375
-1.53363 0.181995 -0.67387
-1.51982 0.180226 0.737143
-1.43592 0.232123 2.14726
-1.43254 0.27958 3.27268
-1.44984 0.323205 4.39675
-1.51569 0.706761 -3.17059
-1.52405 0.803417 -2.0469
-1.59041 0.970325 -0.64563
-1.55571 1.04003 0.754744
-1.43642 1.04327 2.15625
-1.43491 1.08686 3.28219
-1.45583 1.13519 4.4083
-1.51741 1.84702 -3.1256
-1.52742 1.96006 -2.0038
-1.55855 2.1348 -0.606621
-1.56725 2.2605 0.787832
-1.53992 2.31213 2.18514
-1.51772 2.34111 3.30721
-1.50846 2.37741 4.43194
-0.76173 -0.308755 -3.22412
-0.749689 -0.227819 -2.09995
-0.749368 -0.228809 -0.686265
-0.761816 -0.243924 0.730046
-0.731395 -0.165627 2.14379
-0.72064 -0.120172 3.26849
-0.724909 -0.0805363 4.39135
-0.759178 0.0338481 -3.20717
-0.706736 0.285583 3.27424
-0.719508 0.323981 4.39757
-0.752033 0.676234 -3.16903
-0.706906 1.08417 3.28194
-0.724984 1.13333 4.40824
-0.743222 1.82616 -3.12405
-0.745374 1.94048 -2.00209
-0.775829 2.12961 -0.605596
-0.800436 2.26492 0.787709
-0.792468 2.31369 2.18426
-0.775786 2.34012 3.30634
-0.766743 2.37599 4.4313
0.742365 -0.308756 -3.22412
0.746109 -0.227821 -2.09995
0.754879 -0.228815 -0.686265
0.755284 -0.243927 0.730047
0.708093 -0.165628 2.14379
0.717024 -0.120173 3.26849
0.729054 -0.0805385 4.39135
0.737024 0.0338472 -3.20717
0.710886 0.285581 3.27424
0.725749 0.323979 4.39757
0.741631 0.676234 -3.16903
0.702399 1.08417 3.28194
0.719435 1.13332 4.40824
0.794177 1.82616 -3.12405
0.806512 1.94047 -2.00209
0.798037 2.12961 -0.605596
0.753875 2.26491 0.787709
0.712029 2.31368 2.18426
0.707421 2.34012 3.30634
0.71401 2.37598 4.4313
1.50322 -0.310921 -3.22331
1.50947 -0.233608 -2.09876
1.5226 -0.219171 -0.686424
1.51605 -0.230033 0.72845
1.4598 -0.174072 2.141
1.45366 -0.125283 3.26659
1.4647 -0.081463 4.39025
1.49958 0.0395729 -3.20691
1.51112 0.139279 -2.08375
1.53244 0.181984 -0.67387
1.52696 0.180217 0.737143
1.44761 0.23212 2.14726
1.4433 0.279577 3.27268
1.4587 0.323201 4.39675
1.50857 0.706759 -3.17059
1.52373 0.803417 -2.0469
1.59106 0.97032 -0.64563
1.55916 1.04001 0.754744
1.4423 1.04326 2.15625
1.43584 1.08685 3.28219
1.45293 1.13518 4.4083
1.56125 1.84702 -3.1256
1.57608 1.96005 -2.0038
1.57583 2.13479 -0.606621
1.53165 2.26049 0.787832
1.47651 2.31212 2.18514
1.45972 2.3411 3.30721
1.46099 2.3774 4.43194
-0.764412 0.44 -2.09624
0 0.141298 -2.0887
-0.749138 0.146272 -1.379
-0.746927 0.64431 2.21494
0 0.253146 2.15287
-0.761474 0.177608 1.44502
0 0.820577 -2.12872
-0.814364 0.882467 -1.34345
0 1.06609 2.18747
-0.776977 1.07749 1.45531
0.764442 0.44 -2.09627
0.749157 0.146253 -1.379
0.746927 0.64431 2.21494
0.761475 0.177607 1.44502
0.814362 0.882465 -1.34345
0.776941 1.07746 1.45531
-0.754172 0.163074 0.03301
-0.885099 0.559292 -0.658377
4.48996e-06 0.164007 -0.672993
-0.888017 0.606248 0.747317
4.95225e-07 0.158415 0.739013
-0.821259 1.00557 0.05593
1.41192e-06 1.18667 -0.64376
-8.13434e-06 1.36199 0.75562
0.754167 0.163079 0.03301
0.885067 0.559289 -0.658377
0.888017 0.606239 0.747317
0.821258 1.00557 0.05593
-0.867421 0.499646 -1.36122
0.86742 0.499645 -1.36122
2.24498e-06 0.14396 -1.379
7.0596e-07 0.980835 -1.34345
0 0.44 -2.39272
-0.886317 0.58277 0.04447
0.886317 0.582764 0.04447
2.49259e-06 0.164654 0.03301
-3.36121e-06 1.37091 0.05593
-0.887257 0.625279 1.45016
0.887258 0.625275 1.45016
2.47613e-07 0.181702 1.44502
-4.06717e-06 1.23535 1.45531
0 0.64431 2.38517
-0.757209 0.2925 -2.09587
-0.369746 0.141311 -2.08869
-0.744922 0.145029 -1.732
-0.735058 0.449655 2.19707
-0.3475 0.253354 2.15267
-0.742592 0.201949 1.79802
-0.757902 0.5875 -2.08288
-0.3625 0.809197 -2.11734
-0.789533 0.828585 -1.69329
-0.721337 0.838965 2.19534
-0.3375 1.06374 2.18512
-0.730259 1.05983 1.80516
0.369746 0.141305 -2.08869
0.757235 0.2925 -2.0959
0.744859 0.145092 -1.732
0.3475 0.253387 2.15263
0.735058 0.449655 2.19707
0.742592 0.201949 1.79802
0.3625 0.809186 -2.11733
0.757919 0.5875 -2.0829
0.789527 0.828578 -1.69329
0.3375 1.06375 2.18513
0.721334 0.838965 2.19534
0.73025 1.05982 1.80516
-0.753313 0.147556 -1.026
-0.749464 0.162323 -0.319992
-0.871391 0.332195 -0.665685
-0.372989 0.161573 -0.672993
-0.764368 0.169255 1.09202
-0.758876 0.163829 0.386012
-0.873312 0.360639 0.743165
-0.383944 0.159231 0.739013
-0.832246 0.929401 -0.993605
-0.884031 0.771197 -0.651068
-0.826156 0.981414 -0.293915
-0.468388 1.1778 -0.64376
-0.807513 1.07898 1.10547
-0.889063 0.849252 0.751468
-0.816626 1.02999 0.405775
-0.480017 1.35744 0.75562
0.753349 0.14752 -1.026
0.372996 0.161573 -0.672993
0.749467 0.16232 -0.319992
0.871388 0.332185 -0.665685
0.764368 0.169255 1.09202
0.383944 0.159231 0.739013
0.758873 0.163832 0.386012
0.873311 0.360635 0.743165
0.832248 0.929403 -0.993605
0.468387 1.1778 -0.64376
0.88403 0.771204 -0.651068
0.826154 0.981412 -0.293915
0.807514 1.07898 1.10547
0.480006 1.35744 0.75562
0.889277 0.849351 0.751468
0.816625 1.02999 0.405775
-0.857393 0.469823 -1.72873
-0.382206 0.44 -2.25764
1.12249e-06 0.143351 -1.73385
0 0.290649 -2.16688
-0.862149 0.322959 -1.37011
-0.374568 0.143932 -1.379
-0.843577 0.634794 1.83255
-0.373464 0.64431 2.35984
1.23806e-07 0.203406 1.79895
0 0.448728 2.37375
-0.879399 0.401444 1.44759
-0.380737 0.176832 1.44502
3.5298e-07 0.904768 -1.73608
0 0.630288 -2.34046
-0.866583 0.691057 -1.35234
-0.407181 0.972866 -1.34345
-2.03359e-06 1.12476 1.82139
0 0.8552 2.27217
-0.877724 0.851386 1.45274
-0.38849 1.23186 1.45531
0.85739 0.469822 -1.72874
0.382221 0.44 -2.25736
0.862149 0.322949 -1.37011
0.37458 0.143932 -1.379
0.843576 0.634792 1.83255
0.373464 0.64431 2.35983
0.8794 0.401441 1.44759
0.380738 0.176798 1.44502
0.866603 0.691055 -1.35234
0.407181 0.972866 -1.34345
0.877725 0.851366 1.45274
0.388468 1.23188 1.45531
-0.872906 0.346591 0.03874
-0.377716 0.162602 0.03301
-0.877683 0.529469 -1.0098
-0.885643 0.571031 -0.306953
3.36747e-06 0.14457 -1.026
3.49127e-06 0.16433 -0.319992
-0.88682 0.594509 0.395893
-0.894474 0.615763 1.09874
1.49391e-06 0.164978 0.386012
3.71419e-07 0.166956 1.09202
-0.885296 0.809923 0.0502
-0.501246 1.36947 0.05593
1.05894e-06 1.0713 -0.993605
-9.74646e-07 1.31112 -0.293915
-5.74778e-06 1.38327 0.405775
-6.10076e-06 1.31754 1.10547
0.872904 0.346591 0.03874
0.377717 0.162602 0.03301
0.877594 0.529467 -1.0098
0.885643 0.571027 -0.306953
0.88682 0.594502 0.395893
0.894484 0.615757 1.09874
0.885293 0.809919 0.0502
0.501242 1.36947 0.05593
-0.85341 0.307729 -1.73036
-0.878151 0.34169 -1.0179
-0.882607 0.72461 -1.0017
-0.855142 0.639278 -1.71101
0.853408 0.307724 -1.73037
0.854916 0.639277 -1.71102
0.882636 0.724609 -1.0017
0.878151 0.341682 -1.0179
-0.372157 0.14331 -1.73292
0.372163 0.143311 -1.73292
0.373488 0.144557 -1.026
-0.373477 0.144557 -1.026
-0.384841 0.905733 -1.71469
-0.411297 1.04871 -0.993605
0.411299 1.04871 -0.993605
0.384841 0.90573 -1.71469
-0.375976 0.291574 -2.16544
-0.372353 0.608894 -2.30177
0.37236 0.608894 -2.30133
0.375983 0.291574 -2.1655
-0.872148 0.339394 -0.313473
-0.873625 0.353358 0.390953
-0.8858 0.828898 0.400834
-0.884573 0.790515 -0.300434
0.872146 0.339387 -0.313473
0.884571 0.790516 -0.300434
0.885795 0.82889 0.400834
0.873623 0.353355 0.390953
-0.375352 0.162088 -0.319992
0.375356 0.162088 -0.319992
0.379732 0.163115 0.386012
-0.379731 0.163115 0.386012
-0.502003 1.30801 -0.293915
-0.498923 1.38004 0.405775
0.498915 1.38004 0.405775
0.502002 1.30801 -0.293915
-0.887402 0.39241 1.09538
-0.846516 0.425549 1.81528
-0.837299 0.845176 1.81885
-0.885035 0.840252 1.1021
0.887403 0.392406 1.09538
0.885036 0.840236 1.1021
0.8373 0.845166 1.81885
0.846514 0.425548 1.81528
-0.382283 0.166707 1.09202
0.382284 0.166707 1.09202
0.364119 0.200486 1.79848
-0.364118 0.200486 1.79848
-0.396641 1.31205 1.10547
-0.362995 1.12428 1.81327
0.362984 1.12429 1.81327
0.396622 1.31205 1.10547
-0.360482 0.449191 2.34843
0.360482 0.449191 2.34843
0.355482 0.847082 2.25759
-0.355482 0.847082 2.25711
-0.749102 0.21875 -2.09119
-0.554619 0.141334 -2.08867
-0.742529 0.144692 -1.9085
-0.718388 0.352327 2.17741
-0.52125 0.254784 2.15124
-0.720303 0.226968 1.97452
-0.747601 0.66125 -2.06916
-0.54375 0.789008 -2.09715
-0.758821 0.783347 -1.86822
-0.712922 0.936292 2.18992
-0.50625 1.06081 2.18219
-0.703602 1.0477 1.98008
0.554619 0.141328 -2.08867
0.749113 0.21875 -2.0912
0.742589 0.144632 -1.9085
0.52125 0.254842 2.15118
0.718307 0.352327 2.17732
0.720295 0.226976 1.97452
0.54375 0.789022 -2.09716
0.747681 0.66125 -2.06924
0.758536 0.783062 -1.86822
0.50625 1.06082 2.1822
0.712781 0.936292 2.18978
0.7036 1.04769 1.98008
-0.744717 0.158881 -0.849494
-0.74712 0.161937 -0.496493
-0.8596 0.221115 -0.669339
-0.558684 0.161961 -0.672993
-0.762508 0.168385 0.915514
-0.761217 0.164217 0.562513
-0.861771 0.23993 0.741089
-0.575715 0.160039 0.739013
-0.833033 0.944713 -0.818683
-0.868139 0.869471 -0.647414
-0.828495 0.969228 -0.468838
-0.693427 1.15506 -0.64376
-0.808518 1.06546 0.930543
-0.861887 0.956905 0.753544
-0.813915 1.0418 0.580698
-0.686289 1.2877 0.75562
0.744742 0.158856 -0.849494
0.55869 0.161961 -0.672993
0.747123 0.161934 -0.496493
0.859602 0.221106 -0.669339
0.762509 0.168385 0.915514
0.575716 0.16004 0.739013
0.761214 0.16422 0.562513
0.86177 0.239928 0.741089
0.832821 0.944502 -0.818683
0.693406 1.15501 -0.64376
0.868139 0.869475 -0.647414
0.828495 0.969228 -0.468838
0.808511 1.06545 0.930543
0.686288 1.28772 0.75562
[...]
POINT_DATA 3682
SCALARS point_scalars float 1
LOOKUP_TABLE default
-126.186
-41.5558
-50.4274
-37.7032
-126.354
-41.5534
-50.4115
-37.6921
-37.9497
-38.4977
-57.3767
-51.5583
-37.9379
-38.4807
-57.3918
-51.575
-39.9731
-95.2766
-34.4738
-45.0137
-43.7992
-37.4268
-34.145
32.4813
-96.991
-39.9385
-43.2279
-42.6434
-34.7689
-33.5218
47.5024
-73.4482
-50.2015
-47.2175
-42.3083
-37.5589
-33.7493
-10.7849
-51.2636
-69.4717
-62.5945
-40.8227
-37.0994
-35.0715
-32.5871
-138.906
-38.4696
-39.0437
-40.5784
-34.8129
-34.1327
-32.5871
-33.122
-32.3487
135.916
-33.5207
-32.6508
14.5021
-37.0683
-63.6042
-66.6445
-37.841
-34.4078
-33.3336
-34.6897
-140.149
-38.5595
-38.9897
-41.046
-34.8211
-34.1333
-34.6897
-33.1422
-32.3629
136.5
-33.5168
-32.6504
10.7709
-38.4031
-64.6102
-66.5474
-37.8138
-34.4105
-33.3238
-39.7407
-95.1775
-34.4415
-45.1245
-43.7875
-37.4321
-34.125
30.8339
-96.7256
-39.9267
-43.2718
-42.6324
-34.8105
-33.5306
47.2321
-73.4293
-50.2013
-47.2485
-42.326
-37.5526
-33.757
-13.0415
-51.1454
-69.4957
-62.5809
-40.7027
-37.0897
-35.068
-66.2779
-127.041
-52.8612
-37.1634
-34.1355
-42.7495
-55.0395
-43.5403
-33.6123
-50.6369
-66.3424
-52.8609
-37.1561
-42.5925
-43.4001
-50.6356
-35.6954
-44.1164
-38.5618
-41.6713
-38.5221
-53.3332
-16.0277
-69.2936
-35.6969
-44.1149
-41.6743
-53.3499
-54.4034
-54.4059
-56.069
-13.2145
197.86
-41.6607
-41.662
-35.5261
-88.6438
-48.8368
-48.8233
-42.2322
-46.6447
-24.2025
-68.0813
-132.992
-76.9054
-37.9754
-36.2661
-44.7354
-59.3025
-50.8365
-55.3983
-36.9964
-33.8747
-43.1294
-132.999
-69.4069
-76.8896
-36.2826
-37.9695
-44.7103
-50.8833
-65.434
-55.4624
-33.8757
-36.9754
-43.131
-45.0118
-35.8453
-41.0447
-38.1374
-40.8063
-36.4892
-38.1827
-38.5905
-45.6195
-48.3804
-54.8328
-19.6148
-52.6442
-45.6086
-52.2156
-66.1894
-45.0112
-38.1348
-35.8558
-41.0406
-40.8691
-38.6008
-36.4879
-38.1898
-45.7752
-19.587
-48.3788
-54.8349
-52.7471
-66.1848
-45.6365
-52.2083
-86.23
185.565
-78.025
185.192
-53.9039
-55.2772
-45.8572
-32.509
-40.6459
-23.8818
-46.5123
-42.3155
-30.5212
145.17
-54.3237
-19.118
-38.7756
-27.1747
-48.6103
-47.2092
-86.1959
186.025
-53.9062
-55.2792
-45.8448
-32.5091
-46.4848
-42.1794
-54.317
-19.1403
-48.6084
-47.2107
-38.9339
-35.4766
-46.4653
-42.3286
-47.1327
-35.9091
-41.4814
-45.6286
-36.2685
-41.6611
-45.7259
-81.4926
-3.89339
-68.2967
-81.316
-57.1402
-38.9352
-35.4763
-46.4176
-42.3306
-41.4766
-45.6241
-45.7445
-81.49
-86.4311
-46.5852
-48.6859
-81.5123
-86.4165
-81.4743
-48.6866
-46.5602
-77.8164
-77.8267
-46.6215
-46.6198
-32.8917
-4.69269
-4.68153
-32.8988
168.132
125.757
123.375
168.499
-39.3243
-38.9972
-45.0358
-46.7742
-39.3303
-46.7793
-45.0329
-38.9955
-35.7741
-35.7734
-36.2606
-36.2601
-63.106
-75.0929
-75.0882
-63.046
-43.9766
-46.8128
-45.9981
-47.3912
-43.9717
-47.3913
-45.9925
-46.8034
-41.3781
-41.4109
-42.2555
-42.2495
-57.0532
-39.3988
-39.4
-57.0538
-31.9203
-31.9314
-31.3632
-31.3578
-70.3216
-142.413
-102.28
-39.0326
-38.259
-42.6336
-53.8572
-31.5456
-49.7223
-37.6812
-34.9634
-39.7666
-142.635
-67.8017
-102.305
-38.2757
-39.0318
-42.6276
-31.9094
-54.0685
-49.5543
-34.9634
-37.6747
-39.7583
-39.5276
-36.4132
-38.9443
-37.8499
-42.7988
-36.7472
-36.0619
-38.9163
-55.7599
-52.0047
-55.9201
-57.8348
-50.9556
-49.2824
-51.9905
-60.569
-39.5117
-37.8457
-36.4103
-38.9327
-42.8641
-38.9309
-36.7443
-36.056
-55.7309
-57.7632
-52.0118
-55.9316
-50.9725
-60.5591
-49.3057
-52.0013
-64.7268
-64.6022
-91.6502
108.119
-130.033
-130.051
-96.5092
115.202
-61.7953
-47.3789
-53.366
-54.3836
-37.2931
-36.7241
-41.8038
-33.5774
-34.7518
-34.7593
-38.5831
-26.2651
-47.2221
-42.2279
-45.6058
-42.5543
-57.6937
-57.7458
-44.8314
38.2546
-48.3241
-45.2754
-53.9962
-24.7668
-33.6476
-33.6527
-36.1481
-30.3037
-47.5911
-52.4221
-48.5984
-48.9719
-64.7379
-64.5454
-91.6966
104.027
-61.7965
-47.377
-53.3698
-54.3859
-37.2854
-36.719
-41.7862
-33.5377
-47.2576
-42.2772
-45.5908
-42.2684
-48.3156
-45.1869
-54.0078
-24.7793
-47.5678
-52.4504
-48.5975
-48.9706
-35.6408
-36.0713
-37.9167
-35.4868
-42.589
-45.846
-45.9107
-43.0267
-38.4489
-38.4481
-41.259
-36.791
-39.859
-43.1577
-41.4686
-42.3665
-38.4963
-38.5013
-36.9082
-40.5867
-53.8705
-52.6165
-48.9065
-64.6384
-16.4996
-16.4892
-7.31849
-36.04
-68.6918
-68.692
-74.9674
-63.0694
-35.646
-36.0689
-37.9229
-35.4865
-42.5865
-45.8443
-45.9106
-43.0271
-39.8629
-43.1655
-41.4681
-42.3677
-53.8746
-52.554
-48.9437
-64.6277
-64.272
-54.328
-54.2228
-49.0501
-64.2756
-54.3298
-54.2228
-49.0587
-64.9616
-55.9039
-55.9074
-50.2464
-21.8315
-14.7538
-14.7644
-5.37069
193.68
185.017
200.353
193.888
-40.2638
-41.8996
-41.5338
-43.3858
-40.2653
-41.9028
-41.5302
-43.39
-35.5013
-35.5416
-35.7989
-35.5013
-87.3626
-87.0831
-86.582
-87.3643
-49.7493
-48.076
-49.0781
-46.9456
-49.7712
-48.0476
-49.0736
-46.9385
-41.8156
-42.193
-42.1592
-41.986
-42.2026
-46.8158
-46.8135
-51.7315
-27.9559
-22.4116
-27.775
-27.9614
-95.352
93.7914
-97.587
56.7519
-87.9142
-77.4054
-42.355
-33.2871
-39.4884
-32.0472
-47.096
-42.9235
-74.6187
91.1678
-45.511
53.5323
-71.3524
-37.0038
-42.1468
-33.5036
-36.4356
-32.7227
-45.7302
-40.2987
-97.6074
56.9074
-95.3496
93.357
-87.9001
-77.4227
-39.5009
-32.0622
-42.3427
-33.2948
-47.096
-42.9498
-45.5215
53.431
-74.6332
90.9363
-71.3544
-37.0004
-36.4367
-32.7252
-42.1307
-33.5081
-45.7287
-40.3017
-47.0927
-46.3459
-38.1712
-35.6964
-42.9837
-39.9361
-40.6866
-36.5696
-42.7491
-41.0676
-38.2685
-36.2762
-38.8891
-42.1697
-36.9755
-40.5648
-49.4044
-13.0342
-49.1265
-47.5757
-50.5095
-74.0368
-6.43092
-36.641
-49.732
-57.6022
-45.0732
-46.4982
-48.7294
-61.6193
-70.1702
-61.9179
-47.0847
-46.3437
-40.6836
-36.5679
-38.1895
-35.6889
-42.9782
-39.9381
-42.749
-41.1193
-36.979
-40.5859
-38.2679
-36.2764
-38.8891
-42.1805
-49.4207
-13.0079
-6.40198
-36.6404
-49.1204
-47.5788
-50.5152
-74.0032
-49.7289
-57.6133
-70.1646
-61.9201
-45.0699
-46.4978
-48.7488
-61.6059
-85.8262
-85.0597
165.468
186.82
-78.1406
-78.1491
179.264
179.432
-63.6551
-48.2596
-64.2671
-49.5112
-46.4302
-45.7959
-32.113
-31.7566
-41.2709
-41.2662
-27.2618
-27.2781
-45.1712
-50.2076
-41.7542
-43.2018
-31.0504
-31.0576
143.896
143.977
-48.8335
-64.1615
-26.3299
-11.3613
-38.9506
-38.9513
-28.8455
-28.843
-49.6988
-48.2911
-52.3383
-42.9418
-85.8007
-85.0302
187.193
165.67
-63.6566
-48.2603
-64.2717
-49.5115
-45.789
-46.4083
-32.1246
-31.7629
-45.1483
-50.2218
-41.8619
-43.2254
-64.197
-48.8265
-11.3384
-26.3331
-48.2951
-49.7013
-42.9418
-52.3404
-39.0602
-38.9312
-35.4578
-35.7714
-46.2895
-47.2661
-40.8239
-44.2154
-46.9094
-46.9073
-35.8656
-35.8652
-40.1399
-43.0745
-44.9576
-46.39
-36.2614
-36.2611
-41.596
-41.6068
-45.4984
-46.084
-81.8355
-79.626
-3.85475
-3.85897
-66.3099
-66.3219
-79.9811
-79.9807
-57.1202
-57.121
-39.0643
-38.9305
-35.4575
-35.7713
-47.2448
-46.236
-40.8269
-44.2184
-43.067
-40.1369
-44.9518
-46.3884
-46.0929
-45.4625
-79.6244
-81.8394
-86.607
-62.9615
-64.2298
-98.0667
-41.2804
-44.689
-48.8568
-47.4013
-51.8327
-49.3785
-48.8538
-47.0829
-62.2056
-83.861
-64.0186
-61.1591
-86.6174
-98.0975
-64.2341
-62.964
-62.1424
-61.2181
-64.0264
-83.8652
-51.8271
-47.0783
-48.8543
-49.3448
-41.2563
-47.4015
-48.873
-44.6971
-99.0625
-97.2584
-64.8403
-63.5048
-99.1051
-63.2532
-64.8461
-97.2383
-40.0724
-40.9954
-50.063
-48.7004
-40.0767
-48.7006
-50.0614
-40.9962
-46.6449
-32.1276
-22.7261
-44.3795
-34.5157
-6.94848
-6.95859
-19.2007
-34.5343
-19.2165
-6.92764
-6.93623
-46.6261
-44.3836
-22.7267
-32.1389
13.3961
126.32
178.759
80.0714
54.693
43.622
198.396
103.257
54.604
102.528
198.437
43.6729
13.258
80.1868
178.84
123.397
-38.6413
-37.9404
-40.38
-41.487
-38.1919
-40.18
-40.1773
-38.1318
-48.8759
-50.1443
-43.2461
-42.9853
-51.3072
-44.925
-43.7027
-49.7718
-38.6465
-41.488
-40.3828
-37.9494
-51.3122
-49.7805
-43.7078
-44.9279
-48.8871
-42.9837
-43.2368
-50.0202
-38.1896
-38.1341
-40.1756
-40.18
-36.3539
-36.7516
-35.5081
-35.4395
-36.3522
-35.4359
-35.5079
-36.751
-36.9882
-36.9186
-35.765
-35.8025
-36.9847
-35.803
-35.7651
-36.9168
-68.5332
-68.9012
-86.1169
-35.7413
-60.4693
-73.9182
-85.1226
-63.5619
-60.4579
-63.5477
-85.1232
-73.9174
-68.6411
-35.727
-86.1182
-68.9204
-44.6347
-44.2551
-46.2819
-41.6318
-42.7903
-42.0642
-49.6739
-50.2841
-41.6696
-49.5649
-49.706
-42.0632
-48.3287
-44.4394
-47.4753
-50.1848
-44.6716
-41.6343
-46.2684
-44.2037
-48.3337
-50.2046
-47.4741
-44.4418
-41.6578
-42.0443
-49.7109
-49.5697
-42.7823
-50.3004
-49.728
-42.049
-40.6813
-40.5645
-41.8498
-41.9306
-40.7133
-42.1509
-41.8621
-40.5739
-40.7466
-38.7886
-42.1743
-44.807
-40.7253
-44.7734
-42.1688
-38.7841
-58.6635
-53.4659
-51.9045
-62.8719
-37.3131
-36.222
-42.3979
-44.3978
-37.3065
-44.3993
-42.4012
-36.2219
-58.6605
-62.8725
-51.8987
-53.4672
-34.2488
-28.2925
-26.5748
-33.2945
-34.2558
-33.3022
-26.6839
-28.3049
-33.5293
-31.2145
-29.6645
-33.5491
-33.5209
-33.5406
-29.6396
-31.2175
-93.3189
-156.925
-138.501
-40.6206
-39.7603
-41.67
-51.9576
-23.4229
-61.2605
-38.0696
-36.0245
-38.2903
-157.188
-93.1213
-138.451
-39.7834
-40.6209
-41.7177
-23.4702
-51.9921
-61.4947
-36.0199
-38.0592
-38.2842
-39.2409
-36.8536
-35.7174
-37.793
-42.5777
-36.7099
-36.2006
-39.0607
-57.9647
-54.2093
-56.5814
-68.8486
-50.8115
-50.3971
-51.9942
-55.0188
-39.2289
-37.7867
-36.8489
-35.6856
-42.6309
-39.0751
-36.7057
-36.085
-57.9219
-68.8167
-54.2261
-56.5941
-50.8254
-55.0066
-50.4189
-52.0085
-66.5353
-66.6637
-81.4609
44.0127
-127.807
-127.813
-109.991
-51.2362
-56.7736
-49.6539
-53.2355
-53.6105
-37.4188
-36.7581
-40.3302
-34.2803
-34.3218
-34.325
-36.5756
-28.3522
-44.0593
-42.4182
-44.5306
-42.6223
-55.9496
-55.7157
-62.4096
7.5263
-44.3611
-43.5448
-52.1342
-31.4953
-33.6215
-33.6184
-34.8977
-32.5959
-49.9568
-51.0829
-49.0192
-50.4605
-66.5616
-66.7163
-81.5283
43.88
-56.7737
-49.6521
-53.2377
-53.6136
-37.4119
-36.7536
-40.3159
-34.2765
-44.0822
-42.0597
-44.5104
-42.3742
-44.3326
-43.6183
-52.1781
-31.5181
-49.9564
-51.0995
-49.0233
-50.4412
-35.6581
-35.8637
-36.1801
-35.5502
-43.2901
-44.9049
-44.8857
-43.4826
-38.5344
-38.5341
-39.8045
-37.4967
-40.8547
-42.3976
-41.4373
-42.4219
-38.477
-38.4794
-37.0324
-40.0081
-53.6066
-53.1104
-51.6951
-58.3163
-16.0728
-16.0701
-10.1402
-24.9832
-69.1489
-69.1486
-72.1089
-65.7483
-35.6583
-35.8609
-36.1918
-35.5501
-43.2875
-44.903
-44.8869
-43.4786
-40.8579
-42.4021
-41.4384
-42.4235
-53.6136
-53.1034
-51.7206
-58.3087
-59.0208
-54.4007
-54.3524
-50.9103
-59.0249
-54.4026
-54.3539
-50.9151
-59.9943
-55.9756
-55.9784
-52.8355
-17.6646
-13.6065
-13.6078
-9.73656
197.074
189.528
200.724
197.103
-40.885
-41.7341
-41.6051
-42.4408
-40.8867
-41.7374
-41.603
-42.4427
-35.52
-35.4979
-35.6292
-35.5201
-88.324
-88.3278
-88.7635
-88.3245
-49.6754
-48.4859
-49.0985
-48.4061
-49.6641
-48.4634
-49.0913
-48.4029
-41.9962
-42.2221
-42.2141
-42.4617
-44.1541
-46.5467
-46.5322
-48.8238
-25.9064
-22.4837
-27.8017
-25.6714
-72.6741
-62.2828
-87.7755
13.1615
-134.597
-132.459
-113.241
-33.4936
-89.1596
-68.2369
-84.7066
-76.8686
-38.396
-37.6484
-40.8942
-34.3675
-37.1723
-35.3702
-37.8512
-32.7466
-43.7635
-46.4472
-47.6286
-43.4506
-55.9619
-67.9812
-79.9626
31.8131
-40.7733
-57.1517
-58.4917
16.6347
-50.4206
-52.6459
-65.6922
-41.4796
-37.0654
-36.7058
-40.1917
-34.2591
-34.2337
-33.6817
-35.126
-33.1516
-41.3323
-45.0862
-44.6201
-41.627
-134.709
-132.468
-113.267
-33.1411
-70.3203
-62.3269
-87.8197
14.0359
-89.1817
-68.2238
-84.6958
-76.8812
-37.1889
-35.3827
-37.8518
-32.7631
-38.3916
-37.6414
-40.882
-34.3712
-43.7665
-46.4757
-47.6079
-43.4804
-41.0625
-57.1603
-58.486
16.571
-56.4386
-66.7355
-79.8968
31.8935
-50.3048
-52.5673
-65.7588
-41.489
-34.2351
-33.6819
-35.1265
-33.1547
-37.0576
-36.7023
-40.1746
-34.2605
-41.3288
-45.0931
-44.6183
-41.6286
-42.3293
-45.7174
-45.7551
-46.1069
-36.0933
-35.683
-36.7006
-35.7031
-40.2957
-41.7526
-41.8775
-40.376
-37.9115
-38.3519
-39.1946
-37.2348
-39.8289
-41.299
-41.4115
-40.9388
-36.6295
-36.1783
-37.9497
-36.3201
-36.9565
-39.0585
-38.8182
-41.6434
-38.6855
-38.4535
-37.2607
-39.9835
-53.4609
-45.0034
-49.7539
-29.6939
-50.0043
-47.0282
-48.7118
-47.9997
-55.3138
-54.4238
-52.6081
-61.8821
-28.578
-17.3562
-12.5177
-27.5612
-51.1327
-53.5099
-51.2606
-55.149
-47.7439
-44.0303
-45.0538
-46.188
-52.0153
-52.3354
-50.5622
-56.3578
-64.7081
-67.5358
-68.3836
-63.8753
-42.3284
-45.7156
-45.7514
-46.104
-37.9082
-38.3504
-39.1914
-37.2325
-36.1013
-35.6895
-36.7379
-35.7061
-40.2898
-41.7495
-41.8719
-40.3746
-39.8689
-41.6046
-41.4419
-40.997
-38.6983
-38.461
-37.2661
-39.9996
-36.6266
-36.1772
-37.9498
-36.3195
-36.9653
-39.0639
-38.8193
-41.6557
-53.6214
-44.8934
-49.7699
-29.6203
-28.5499
-17.3492
-12.4971
-27.5676
-50.0042
-47.0271
-48.7077
-48.0034
-55.3132
-54.426
-52.6122
-61.8834
-51.1329
-53.5609
-51.2639
-55.148
-64.7
-67.5662
-68.3804
-63.8762
-47.7788
-44.0392
-45.0418
-46.2142
-52.0178
-52.299
-50.569
-56.335
-96.898
-71.9715
-85.8556
-85.3886
167.679
183.645
173.1
190.847
-86.5505
-70.9373
-78.1088
-78.1142
185.793
185.478
183.948
184.05
-53.5784
-54.1711
-58.5796
-50.3025
-54.893
-55.5692
-59.25
-52.0358
-43.8208
-48.1644
-46.1124
-45.781
-33.2537
-30.5929
-32.2316
-32.4851
-39.6654
-41.3858
-40.858
-40.8417
-24.5936
-22.7261
-25.0256
-25.0467
-45.553
-47.6885
-46.7529
-48.115
-42.3913
-42.2128
-42.1884
-42.5392
-35.7014
-25.8091
-30.5817
-30.5808
79.109
180.713
141.378
142.732
-54.5744
-54.1579
-50.4434
-58.5003
-21.6824
-16.549
-22.4669
-15.0576
-37.6474
-40.4133
-38.8286
-38.8286
-27.6999
-27.7443
-27.606
-27.6071
-48.5331
-48.8158
-49.2557
-48.4369
-47.8793
-46.8364
-49.6193
-44.9689
-96.8636
-71.9673
-85.8235
-85.3678
164.807
183.991
190.755
173.244
-53.581
-54.1729
-58.5831
-50.305
-54.895
-55.5714
-59.2532
-52.0367
-43.8096
-48.1752
-45.7741
-46.094
-33.2634
-30.6005
-32.2403
-32.4827
-45.5274
-47.6598
-46.726
-48.0926
-42.1205
-42.1362
-42.0375
-42.544
-54.57
-54.1554
-58.4881
-50.435
-21.6893
-16.6437
-15.0407
-22.4752
-48.5303
-48.8133
-48.4383
-49.2561
-47.8823
-46.8348
-44.9702
-49.6199
-38.4047
-39.6205
-38.9367
-38.958
-35.4718
-35.4871
-35.4352
-35.59
-46.1651
-47.6992
-46.3305
-46.8849
-42.6151
-42.0903
-41.4947
-43.1938
-44.1306
-48.211
-47.0504
-47.0491
-36.2934
-35.6685
-35.914
-35.9144
-41.4399
-41.5153
-40.7592
-42.2339
-44.179
-46.1524
-45.3059
-45.9604
-36.5853
-36.0084
-36.2749
-36.2747
-41.5776
-41.5081
-41.5842
-41.5884
-47.313
-44.3972
-45.6596
-45.7084
-74.7757
-85.3332
-81.9309
-81.4303
-5.19031
-3.19316
-3.82088
-3.81589
-50.2936
-78.8036
-67.992
-67.9941
-78.4167
-83.4721
-80.9924
-80.9921
-60.0959
-54.6322
-57.1407
-57.1413
-38.4063
-39.6215
-38.9393
-38.958
-35.4713
-35.487
-35.4347
-35.5898
-46.1413
-47.7024
-46.8576
-46.2925
-42.6165
-42.0936
-41.497
-43.1952
-41.4375
-41.5103
-42.228
-40.7553
-44.1769
-46.1414
-45.3005
-45.9574
-47.3409
-44.4052
-45.7195
-45.6662
-74.7596
-85.3355
-81.4298
-81.9324
-98.7102
-86.7148
-86.0207
-71.1005
-47.1845
-45.3345
-46.2792
-46.1631
-48.9298
-49.1696
-48.4324
-47.942
-80.4461
-76.5446
-84.0231
-71.921
-98.6914
-86.7004
-86.0059
-71.0974
-80.4201
-76.4884
-83.9839
-71.9691
-48.9361
-49.1702
-48.4183
-47.9332
-47.1686
-45.331
-46.2599
-46.1335
-86.7915
-77.7027
-77.973
-70.4509
-86.8071
-77.7178
-77.9812
-70.4575
-46.5008
-43.6192
-47.582
-46.7442
-46.5009
-43.6197
-47.5818
-46.7415
-37.2543
-34.4877
-31.7677
-29.5072
-6.39686
-4.54463
-7.04774
-4.11555
-6.37572
-4.52688
-7.04019
-4.12359
-37.2495
-34.5022
-31.7827
-29.5008
154.823
168.088
167.257
175.72
116.559
86.6414
169.385
141.666
86.7652
116.826
141.278
169.082
168.509
155.36
175.969
167.582
-38.7393
-39.63
-39.1365
-40.0464
-38.5515
-38.92
-38.9645
-39.5277
-44.9728
-46.4514
-43.9475
-45.2469
-47.1589
-48.676
-45.3718
-46.4777
-38.7476
-39.6351
-39.1418
-40.0507
-47.1622
-48.6828
-45.3761
-46.4841
-44.9694
-46.4718
-43.9385
-45.2243
-38.5499
-38.9191
-38.9631
-39.5256
-35.7336
-36.1198
-35.5594
-35.8329
-36.1187
-35.7333
-35.8323
-35.559
-36.612
-36.2777
-36.2714
-35.9888
-36.2772
-36.6103
-35.9889
-36.2707
-67.2798
-49.6868
-73.1848
-64.2511
-69.9481
-72.9304
-76.6124
-78.1269
-72.9238
-69.9427
-78.1251
-76.6085
-49.6435
-67.288
-64.2439
-73.1804
-43.5189
-42.7206
-44.4411
-44.4983
-44.4316
-46.8897
-46.6561
-48.844
-43.973
-45.9746
-45.843
-48.3181
-48.3384
-47.0009
-47.7892
-46.8866
-43.5161
-42.7238
-44.4271
-44.4927
-48.3394
-47.0022
-47.7897
-46.886
-43.9602
-45.9724
-45.8351
-48.3155
-44.4208
-46.8797
-46.6379
-48.8533
-41.1733
-41.3483
-41.3136
-41.4913
-41.2187
-41.3755
-41.3576
-41.5115
-40.9749
-42.5006
-41.8483
-43.1066
-40.9579
-42.4788
-41.8474
-43.0925
-57.3954
-59.5439
-54.737
-57.05
-37.9133
-39.7306
-39.1783
-41.0126
-37.9142
-39.7328
-39.1793
-41.0147
-57.3973
-59.5461
-54.7353
-57.0509
-32.7304
-31.9391
-32.0069
-29.958
-31.95
-32.7376
-29.9725
-32.0189
-31.9962
-32.632
-30.3255
-31.5893
-32.6233
-31.9901
-31.5887
-30.3271
-104.832
-22.3249
-121.337
-116.277
-90.0198
-100.116
-41.6693
-35.9092
-39.4063
-35.2646
-43.2472
-41.3195
-72.123
17.8898
-53.7553
17.4974
-55.7662
-45.3139
-40.169
-34.767
-35.915
-34.0432
-40.7129
-38.264
-121.39
-110.588
-105.106
-21.4978
-90.069
-100.17
-39.4937
-35.2696
-41.6632
-35.9132
-43.2357
-41.341
-53.8098
17.5854
-72.1774
17.8095
-55.5987
-45.2963
-35.9162
-34.0503
-40.1533
-34.7668
-40.7153
-38.2636
-38.9921
-39.6901
-38.7488
-36.2938
-40.1011
-39.1396
-38.9681
-36.9355
-47.5127
-40.8063
-38.1125
-36.9156
-36.9866
-43.2088
-37.3076
-40.7476
-54.5531
-54.7207
-51.7481
-51.7183
-53.2001
-63.9592
-44.1243
-65.9061
-49.3779
-54.2183
-49.1443
-48.9521
-50.4819
-55.5645
-59.4331
-58.8078
-38.9556
-39.6848
-38.9634
-36.9325
-38.7432
-36.2926
-40.0869
-39.139
-47.6188
-40.8441
-37.3145
-40.7727
-38.1074
-36.9172
-36.9838
-43.2863
-54.5055
-54.7355
-44.0187
-65.9021
-51.7543
-51.728
-53.207
-63.9775
-49.3889
-54.2269
-59.4168
-58.7886
-49.1601
-48.9583
-50.4974
-55.5529
-81.5035
39.6811
-83.028
43.2027
-95.2461
-87.7928
111.723
104.913
-111.133
-15.715
-111.149
-15.5448
-96.8456
-97.5076
153.912
153.766
-62.7756
-62.6983
-47.3929
-47.9837
-58.0985
-49.4949
-58.3904
-51.144
-40.3777
-34.1534
-40.3363
-34.1692
-41.9668
-41.9243
-33.4189
-33.5529
-36.9107
-30.0385
-36.9191
-30.0458
-38.5926
-38.5978
-26.6053
-26.6165
-50.1961
-45.789
-42.9847
-42.0201
-45.6504
-47.0933
-42.2644
-43.2661
-61.9407
10.0555
-62.3175
10.1267
-44.8431
-44.8421
42.3814
41.8686
-55.7314
-38.282
-49.8166
-28.3095
-51.3363
-56.5423
-28.1282
-22.3122
-34.9235
-32.9832
-34.9232
-33.0074
-36.1835
-36.1834
-30.7106
-30.7157
-49.2361
-46.6659
-51.3666
-53.6972
-48.5486
-49.0528
-51.3301
-46.8402
-81.578
39.9779
-83.0878
42.8617
-95.2911
-87.8159
103.722
108.37
-62.7757
-62.7047
-47.3927
-47.984
-58.1025
-49.498
-58.3936
-51.145
-40.3636
-34.1534
-40.3135
-34.1806
-41.9047
-41.9501
-33.4293
-33.5658
-50.236
-45.8244
-42.9024
-42.1154
-45.6107
-47.09
-42.0631
-43.2823
-55.7217
-38.2897
-49.7214
-28.3572
-56.5393
-51.3204
-22.3277
-28.1411
-49.249
-46.6694
-51.4034
-53.689
-49.0667
-48.5396
-46.8399
-51.3277
-34.865
-35.49
-38.5068
-35.8763
-37.959
-38.0576
-35.4375
-35.6172
-43.5092
-41.998
-46.4124
-45.3439
-45.2938
-46.5023
-42.1691
-43.8974
-39.669
-37.3874
-39.6682
-37.3865
-41.2457
-41.2459
-36.7917
-36.7915
-40.3623
-41.1762
-42.9742
-43.5556
-40.7914
-42.1808
-41.7931
-43.1481
-37.0668
-39.9583
-37.0692
-39.966
-36.9036
-36.9027
-40.5726
-40.5771
-51.9488
-59.84
-51.3883
-57.153
-49.9228
-48.906
-66.4361
-63.7221
-10.6669
-25.3204
-10.6512
-25.2922
-7.2155
-7.21011
-35.9847
-35.9822
-71.2525
-65.3425
-71.2513
-65.3473
-74.7151
-74.7146
-63.0341
-63.0343
-34.8989
-35.4919
-38.5061
-35.8753
-37.9609
-38.0577
-35.4377
-35.6168
-43.5066
-41.9967
-46.4096
-45.3434
-46.5007
-45.2933
-42.1697
-43.9
-40.3646
-41.1805
-42.9759
-43.5597
-42.1799
-40.7912
-41.7943
-43.1501
-51.955
-59.8375
-51.2091
-57.1301
-48.9192
-50.1248
-63.7106
-66.4273
-64.3109
-64.1745
-58.9623
-50.8552
-50.6621
-58.6853
-48.9975
-49.0135
-64.315
-64.1805
-58.9677
-50.8576
-58.6874
-50.6609
-49.0194
-49.0076
-64.8322
-64.8363
-59.8471
-52.6413
-59.8516
-52.6593
-50.4985
-50.4972
-21.9885
-21.9888
-18.7909
-10.9353
-10.9407
-18.8002
-5.85152