# vtk DataFile Version 2.0
tri_press
ASCII
DATASET UNSTRUCTURED_GRID
POINTS 3682 float
-0.695725 0.275 -2.155
-0.825 0.275 2.15856
-0.750072 0.985 -1.965
-0.825 0.985 2.09945
0.69573 0.275 -2.155
0.825 0.275 2.15857
0.750078 0.985 -1.965
0.825 0.985 2.09945
-0.740995 0.272822 -0.717147
-0.783972 0.272937 0.720707
-0.819873 1.02983 -0.610183
-0.831389 1.01637 0.744634
0.740999 0.272821 -0.717143
0.783975 0.272935 0.720714
0.819896 1.02984 -0.610183
0.831392 1.01637 0.744634
-1.47469 -0.102048 -3.31986
-1.47469 -0.0923866 -2.20283
-1.5171 -0.0924591 -0.76283
-1.56818 -0.0939266 0.693883
-1.60519 -0.0940286 2.13529
-1.61335 -0.0992528 3.25921
-1.61194 -0.105968 4.37037
-1.47324 0.261822 -3.25471
-1.4755 0.276479 -2.14675
-1.52927 0.279088 -0.72291
-1.58337 0.273185 0.708407
-1.62135 0.268211 2.13384
-1.62493 0.262543 3.25659
-1.61985 0.256563 4.37046
-1.49813 0.986547 -3.10111
-1.5226 1.00166 -1.98972
-1.5894 1.02819 -0.622484
-1.62382 1.01471 0.738869
-1.63399 0.989982 2.1077
-1.63379 0.984563 3.23388
-1.62831 0.982151 4.36113
-1.53223 2.10185 -2.93314
-1.55072 2.11757 -1.83419
-1.58637 2.1354 -0.493876
-1.61538 2.12893 0.828539
-1.62763 2.10745 2.16972
-1.62923 2.09447 3.27048
-1.62804 2.08762 4.38867
-0.719727 -0.103714 -3.32521
-0.711803 -0.0938183 -2.21064
-0.740272 -0.0959969 -0.76178
-0.773605 -0.0941126 0.704382
-0.801007 -0.0901246 2.15365
-0.807138 -0.0971196 3.27166
-0.806287 -0.105389 4.37758
-0.715234 0.258673 -3.25636
-0.816878 0.264227 3.26686
-0.812425 0.256656 4.37589
-0.732777 0.978769 -3.09084
-0.822211 0.982414 3.23223
-0.819036 0.980613 4.36078
-0.753936 2.09795 -2.92299
-0.764214 2.11465 -1.823
-0.789363 2.13591 -0.487133
-0.811075 2.12937 0.827731
-0.819776 2.10576 2.16394
-0.821152 2.09225 3.26471
-0.821263 2.08573 4.38448
0.745751 -0.103712 -3.32521
0.729102 -0.0938173 -2.21064
0.757924 -0.095997 -0.761777
0.794051 -0.0941134 0.704388
0.8211 -0.0901248 2.15365
0.816182 -0.0971195 3.27167
0.81003 -0.105388 4.37758
0.743186 0.258675 -3.25636
0.815909 0.264227 3.26686
0.808853 0.256656 4.3759
0.762813 0.978772 -3.09084
0.814281 0.982414 3.23223
0.805636 0.980614 4.36078
0.792535 2.09795 -2.92299
0.799572 2.11465 -1.823
0.80657 2.13592 -0.487132
0.806517 2.12937 0.827732
0.804047 2.10576 2.16394
0.800421 2.09225 3.26472
0.795651 2.08573 4.38448
1.49237 -0.102043 -3.31985
1.48032 -0.0923818 -2.20283
1.5228 -0.092456 -0.762824
1.57839 -0.0939266 0.693892
1.61629 -0.0940288 2.1353
1.62004 -0.0992522 3.25922
1.61444 -0.105967 4.37038
1.48825 0.261828 -3.25471
1.46921 0.276486 -2.14675
1.52294 0.279093 -0.722906
1.58132 0.273184 0.708415
1.62054 0.268211 2.13385
1.62302 0.262543 3.2566
1.61537 0.256564 4.37047
1.51508 0.986555 -3.10111
1.51737 1.00167 -1.98972
1.58212 1.02821 -0.622482
1.61836 1.01471 0.738872
1.62845 0.989983 2.1077
1.62383 0.984564 3.23388
1.61387 0.982152 4.36114
1.56391 2.10186 -2.93314
1.57641 2.11758 -1.83419
1.59653 2.13542 -0.493875
1.6084 2.12893 0.828541
1.61091 2.10746 2.16972
1.60756 2.09447 3.27049
1.60165 2.08762 4.38868
-0.779113 0.63 -2.11621
2.47359e-06 0.271422 -2.15858
-0.719525 0.272745 -1.43607
-0.852747 0.63 2.15675
0 0.27109 2.16247
-0.805534 0.27292 1.43963
3.01003e-06 1.03435 -2.01435
-0.814153 1.03659 -1.28759
0 1.16028 2.27473
-0.839317 1.01181 1.42204
0.779129 0.63 -2.11622
0.71953 0.272745 -1.43607
0.852735 0.63 2.15674
0.805537 0.272918 1.43964
0.814165 1.0366 -1.28759
0.83906 1.01155 1.42204
-0.762483 0.27288 0.00178003
-0.895645 0.651324 -0.663665
2.17228e-06 0.270402 -0.717145
-0.895597 0.644651 0.73267
1.54934e-06 0.270398 0.72071
-0.830011 1.02747 0.067225
1.14476e-05 1.50662 -0.610183
1.42745e-06 1.50665 0.744634
0.762486 0.272879 0.00178504
0.895651 0.651333 -0.663663
0.895607 0.644651 0.732674
0.830009 1.02747 0.067225
-0.895161 0.640662 -1.36183
0.895681 0.640666 -1.36183
2.32293e-06 0.270392 -1.43607
7.22881e-06 1.11612 -1.28759
2.74181e-06 0.63 -2.34954
-0.895768 0.647987 0.0345025
0.895775 0.647992 0.034505
1.86081e-06 0.2704 0.00178254
6.43752e-06 1.50665 0.067225
-0.895838 0.637326 1.43084
0.894537 0.637325 1.43084
7.74671e-07 0.270351 1.43964
7.13724e-07 1.50662 1.42204
0 0.63 2.37641
-0.739221 0.4525 -2.13741
-0.347861 0.271425 -2.15858
-0.708773 0.272725 -1.79554
-0.838206 0.4525 2.15699
-0.4125 0.271094 2.16247
-0.816282 0.272945 1.7991
-0.795547 0.8075 -2.07156
-0.375034 1.02993 -2.00993
-0.803326 1.03201 -1.6263
-0.851908 0.8075 2.14114
-0.4125 1.13064 2.24509
-0.841882 1.00813 1.76075
0.347866 0.271419 -2.15858
0.739249 0.4525 -2.13743
0.708777 0.272725 -1.79554
0.4125 0.27109 2.16248
0.838227 0.4525 2.15702
0.816284 0.272944 1.79911
0.375041 1.02992 -2.00992
0.795546 0.8075 -2.07156
0.803335 1.03201 -1.6263
0.4125 1.12786 2.24231
0.851806 0.8075 2.14104
0.841629 1.00787 1.76075
-0.730318 0.272725 -1.07661
-0.751739 0.272851 -0.357683
-0.875733 0.433366 -0.690406
-0.370498 0.271608 -0.717146
-0.794712 0.27297 1.08017
-0.773227 0.272908 0.361243
-0.875738 0.440817 0.726689
-0.391984 0.271669 0.720709
-0.816975 1.03317 -0.948888
-0.889046 0.856218 -0.636924
-0.82279 1.0265 -0.271479
-0.508451 1.46526 -0.610183
-0.835877 1.01461 1.08334
-0.891214 0.844369 0.738652
-0.828507 1.01973 0.405929
-0.538231 1.50658 0.744634
0.730323 0.272725 -1.07661
0.370502 0.271608 -0.717144
0.751743 0.27285 -0.357679
0.875738 0.43337 -0.690403
0.794715 0.272967 1.08018
0.391987 0.271669 0.720712
0.77323 0.272908 0.361249
0.875743 0.440817 0.726694
0.817036 1.03323 -0.948888
0.508466 1.46526 -0.610183
0.889047 0.856225 -0.636923
0.822799 1.0265 -0.271479
0.831956 1.01069 1.08334
0.538234 1.50658 0.744634
0.891218 0.844368 0.738654
0.828502 1.01972 0.405929
-0.895152 0.635331 -1.73902
-0.389555 0.63 -2.32164
2.39826e-06 0.2704 -1.79733
2.6077e-06 0.450711 -2.34682
-0.877127 0.456704 -1.39895
-0.359762 0.270396 -1.43607
-0.895884 0.633663 1.79379
-0.426373 0.63 2.39248
3.87335e-07 0.27035 1.80106
0 0.450545 2.39924
-0.895744 0.455123 1.43524
-0.402766 0.270356 1.43964
5.11942e-06 1.08138 -1.65097
2.87592e-06 0.832177 -2.37083
-0.891318 0.838627 -1.32471
-0.407073 1.11628 -1.28759
3.56862e-07 1.46549 1.84839
0 0.895139 2.34939
-0.88615 0.824565 1.42644
-0.419658 1.50662 1.42204
0.895563 0.635333 -1.73903
0.389566 0.63 -2.32164
0.876957 0.456706 -1.39895
0.359766 0.270396 -1.43607
0.894762 0.633663 1.79379
0.426367 0.63 2.3925
0.895725 0.455122 1.43524
0.402769 0.270355 1.43964
0.891491 0.838633 -1.32471
0.407086 1.11629 -1.28759
0.886105 0.824436 1.42644
0.41953 1.50662 1.42204
-0.875735 0.437129 0.0181413
-0.381241 0.271639 0.00178128
-0.895075 0.645993 -1.01275
-0.895711 0.649656 -0.314581
2.2476e-06 0.270359 -1.07661
2.01654e-06 0.270401 -0.357681
-0.895745 0.646319 0.383586
-0.895156 0.640988 1.08175
1.70507e-06 0.270399 0.361246
1.16201e-06 0.270397 1.08017
-0.890156 0.851364 0.0508638
-0.534761 1.50658 0.067225
9.3382e-06 1.31729 -0.948888
8.94255e-06 1.50664 -0.271479
3.93248e-06 1.50665 0.405929
1.07059e-06 1.50662 1.08334
0.87574 0.437131 0.018145
0.381244 0.271639 0.00178379
0.89508 0.645999 -1.01275
0.895714 0.649662 -0.314579
0.895752 0.646321 0.383589
0.895189 0.640988 1.08176
0.890158 0.851364 0.050865
0.534768 1.50658 0.067225
-0.874006 0.454602 -1.76728
-0.894799 0.459388 -1.04468
-0.891246 0.839601 -0.980818
-0.893728 0.823064 -1.68266
0.874007 0.454603 -1.76728
0.89373 0.823066 -1.68266
0.891248 0.839611 -0.980818
0.895419 0.459391 -1.04468
-0.353811 0.270404 -1.79643
0.353816 0.270403 -1.79643
0.365133 0.270363 -1.07661
-0.365129 0.270363 -1.07661
-0.391054 1.07979 -1.63863
-0.408502 1.29325 -0.948888
0.40852 1.29319 -0.948888
0.391063 1.07979 -1.63863
-0.368708 0.451605 -2.32419
-0.382295 0.819838 -2.35763
0.382303 0.819838 -2.35758
0.368716 0.451605 -2.32416
-0.875734 0.435248 -0.336132
-0.875737 0.438973 0.372415
-0.890734 0.847891 0.394758
-0.889665 0.853823 -0.29303
0.875739 0.43525 -0.336129
0.889666 0.853826 -0.293029
0.890737 0.84789 0.394759
0.875742 0.438974 0.372419
-0.37587 0.271623 -0.357682
0.375873 0.271623 -0.35768
0.386616 0.271654 0.361248
-0.386613 0.271654 0.361245
-0.531934 1.50658 -0.271479
-0.536496 1.50658 0.405929
0.536501 1.50658 0.405929
0.531946 1.50658 -0.271479
-0.876011 0.456958 1.08096
-0.895715 0.453812 1.79645
-0.887082 0.816033 1.77727
-0.893509 0.827537 1.08255
0.876016 0.456957 1.08097
0.893525 0.827472 1.08255
0.887053 0.815968 1.77727
0.895716 0.453811 1.79645
-0.397376 0.270402 1.08017
0.397378 0.270402 1.08018
0.407634 0.270355 1.80008
-0.407633 0.270355 1.80008
-0.417676 1.50662 1.08334
-0.416079 1.46519 1.80457
0.416015 1.46525 1.80457
0.417614 1.50662 1.08334
-0.419437 0.451523 2.37689
0.419434 0.451523 2.37682
0.419434 0.85132 2.33893
-0.419437 0.85132 2.33857
-0.72082 0.36375 -2.14955
-0.521793 0.271442 -2.15856
-0.703259 0.272853 -1.97527
-0.830716 0.36375 2.15689
-0.61875 0.271111 2.16245
-0.821657 0.272957 1.97883
-0.763556 0.89625 -2.00903
-0.562553 1.01543 -1.99543
-0.787559 1.01937 -1.79565
-0.832002 0.89625 2.11384
-0.61875 1.067 2.18145
-0.843167 1.00629 1.9301
0.521798 0.271436 -2.15856
0.720798 0.36375 -2.14952
0.703263 0.272853 -1.97527
0.61875 0.271112 2.16246
0.830708 0.36375 2.15689
0.821659 0.272955 1.97884
0.562559 1.01544 -1.99544
0.763566 0.89625 -2.00903
0.787593 1.01939 -1.79565
0.61875 1.06238 2.17683
0.831921 0.89625 2.11376
0.842913 1.00603 1.9301
-0.73562 0.27281 -0.896878
-0.746368 0.272836 -0.537415
-0.875733 0.31941 -0.703776
-0.55575 0.272208 -0.717146
-0.789339 0.272956 0.900438
-0.778599 0.272923 0.540975
-0.875737 0.333936 0.723698
-0.587979 0.2723 0.720708
-0.818422 1.0315 -0.779536
-0.868317 0.94995 -0.623554
-0.821385 1.02821 -0.440831
-0.680757 1.28073 -0.610183
-0.837721 1.01957 0.913986
-0.872327 0.93588 0.741643
-0.82995 1.01805 0.575281
-0.686862 1.26558 0.744634
0.735623 0.27281 -0.896876
0.555754 0.272208 -0.717144
0.74637 0.272836 -0.537411
0.875738 0.319411 -0.703773
0.789341 0.272956 0.900446
0.587982 0.272299 0.720713
0.778601 0.272923 0.540981
0.875742 0.333935 0.723704
0.818438 1.03151 -0.779536
0.680772 1.28073 -0.610183
[...]
POINT_DATA 3682
SCALARS point_scalars float 1
LOOKUP_TABLE default
-137.053
-62.7346
-50.6693
-54.5812
-136.953
-59.5114
-50.4605
-46.1092
-39.5744
-37.1302
-58.482
-42.277
-39.3812
-36.5328
-57.9547
-40.8284
-57.6408
-109.358
-37.9791
-37.3367
-62.1982
-61.5283
-52.1299
13.9003
-126.169
-39.1265
-37.6829
-62.1982
-54.3213
-47.6868
32.1448
-119.192
-48.9367
-40.1478
-59.337
-48.9786
-47.1338
-31.9638
-70.74
-110.57
-48.9685
-53.0447
-47.9312
-44.4683
-59.7871
-162.377
-40.0853
-37.1102
-62.0108
-51.771
-50.882
17.4928
-48.6202
-47.4721
123.725
-46.938
-47.518
-25.2946
-50.1304
-125.872
-46.896
-54.3799
-41.6284
-41.7675
-58.103
-162.31
-39.8637
-36.5147
-59.4685
-49.4239
-49.4033
55.4559
-46.7747
-46.6993
123.894
-45.5305
-46.6666
-32.7599
-49.969
-125.566
-45.7632
-47.1811
-30.6346
-31.1054
-64.4707
-109.259
-37.6606
-36.5447
-59.0443
-58.2887
-49.6026
14.0214
-125.915
-38.7648
-36.7355
-59.0443
-51.3384
-45.6604
35.485
-119.073
-48.518
-38.7789
-52.7132
-44.9388
-45.1407
-31.7381
-70.3794
-110.043
-47.5278
-45.5016
-40.4625
-37.1726
-35.9319
-132.514
-54.6684
-56.6297
-53.9182
-42.2269
-58.888
-48.3223
-33.2681
-44.1357
-35.9111
-54.518
-52.4114
-41.1678
-47.939
-40.6637
-36.2817
-43.0262
-40.3772
-38.5312
-37.6309
-49.9576
-128.644
-47.7332
-35.9631
-42.6117
-37.3268
-49.1137
-56.59
-56.3513
-57.757
9.50921
199.925
-39.8949
-39.2255
-36.3685
-64.0188
-43.7861
-41.2396
-42.5548
-43.6286
-45.5818
-33.0182
-133.112
-81.6554
-57.5229
-55.8526
-48.0324
-26.6797
-57.6393
-60.6792
-54.4319
-41.8975
-47.9506
-133.08
-32.7855
-81.5305
-54.5188
-54.1846
-46.4736
-57.6063
-26.453
-60.4637
-31.6191
-48.2901
-42.3594
-44.0063
-37.1313
-41.1311
-40.0641
-37.7107
-36.5314
-37.8032
-37.3378
-53.7073
-47.5859
-53.8909
-75.783
-42.548
-39.8633
-44.5629
-45.3851
-43.8456
-39.9708
-36.8932
-40.7477
-36.9382
-37.0837
-36.1089
-36.7438
-53.2908
-75.2714
-47.1231
-53.2528
-40.0296
-44.4471
-38.5048
-43.537
-96.6952
160.624
-78.1313
190.877
-57.5257
-56.7014
-49.7739
-47.5239
-46.7338
-46.1726
-43.9485
-42.5994
-20.2737
55.7207
-53.2592
-4.69595
-39.6839
-39.4612
-43.5712
-45.2168
-96.4827
160.813
-57.2281
-56.637
-46.049
-46.8299
-41.7849
-42.1684
-52.925
-4.54153
-40.6563
-42.7863
-38.6152
-36.2847
-46.9885
-41.3749
-46.5676
-37.3973
-38.8891
-39.482
-36.5507
-39.5971
-42.6669
-58.6804
16.2841
-85.8395
-53.4216
-44.7883
-38.0008
-36.1345
-46.656
-40.8553
-38.002
-37.7706
-41.9439
-58.1748
-98.5316
-49.595
-47.597
-86.822
-98.3044
-86.5338
-47.2162
-49.262
-77.0423
-76.9875
-45.8323
-45.908
-27.2767
5.86248
6.19958
-27.1803
161.67
61.6118
61.6938
161.811
-39.517
-38.1305
-40.6568
-45.343
-39.0436
-44.769
-39.674
-37.3266
-37.2293
-37.1126
-36.2732
-36.4691
-78.7926
-50.0952
-49.4225
-78.3653
-35.8415
-50.4429
-47.6979
-40.9069
-34.4451
-38.914
-43.4711
-47.4887
-39.5045
-39.1664
-46.4707
-47.2892
-44.9372
-48.0742
-41.3108
-43.6987
-47.5896
-46.5782
-41.1269
-45.1266
-39.9834
-142.19
-112.842
-60.1555
-58.4496
-55.0596
-20.9443
-56.2663
-78.1851
-55.5539
-43.8099
-51.3581
-142.143
-39.7776
-112.745
-56.1407
-56.7731
-52.8129
-56.1768
-20.5263
-77.9626
-35.7541
-48.5673
-44.3382
-41.0663
-38.1545
-38.8534
-39.7223
-38.7819
-36.7599
-37.8094
-37.2391
-58.7021
-51.7435
-56.6599
-84.1864
-42.3641
-40.7593
-43.2661
-44.252
-40.8887
-39.581
-37.9451
-38.4999
-38.3042
-36.8434
-36.2633
-36.8385
-58.2232
-83.5465
-51.2514
-56.0824
-40.6497
-42.7802
-39.3433
-42.0509
-35.189
-32.0594
-112.403
109.522
-131.85
-131.802
-97.193
45.4523
-64.8399
-48.0922
-56.0377
-55.6514
-57.0085
-56.2834
-55.8564
-47.2478
-54.4947
-53.9052
-49.4899
-48.3992
-44.5502
-40.1894
-43.6825
-42.4689
-58.8942
-58.8536
-38.9159
28.5257
-53.9335
-49.5051
-51.8282
-23.1327
-37.8046
-29.9775
-33.5748
-36.7092
-45.6704
-42.9691
-43.4541
-45.4739
-34.8479
-31.7346
-112.02
109.723
-64.7013
-47.9591
-55.699
-55.5521
-53.3689
-51.404
-52.0161
-45.4495
-43.2853
-39.2885
-41.7069
-41.747
-53.5799
-49.0754
-51.4738
-22.9196
-41.263
-40.2696
-40.2672
-41.8085
-36.5286
-36.1423
-37.8244
-36.2224
-41.6654
-44.7505
-44.3419
-42.1767
-40.2488
-40.204
-42.965
-38.577
-37.9511
-39.1282
-38.6272
-38.6649
-37.6235
-37.5003
-36.9817
-38.4986
-50.7
-45.196
-44.9331
-52.7857
-124.185
-124.042
-22.6808
-107.22
-47.486
-47.0243
-50.1378
-45.9859
-36.2536
-35.781
-37.2485
-35.9909
-41.276
-44.3125
-43.9708
-41.7138
-36.8502
-37.8409
-37.5974
-37.2432
-49.9421
-44.0584
-44.2113
-51.9961
-70.6799
-57.6243
-54.9491
-50.5574
-70.4313
-57.3894
-54.6169
-50.1472
-66.2115
-57.4623
-57.4302
-51.3975
-5.23432
6.62495
6.70271
24.5049
194.455
197.612
184.976
194.546
-38.9186
-40.5735
-39.3128
-41.0432
-38.2916
-39.9861
-38.5436
-40.3417
-36.3672
-36.6987
-36.3417
-36.2946
-62.879
-72.7903
-57.8925
-62.6604
-46.0698
-43.9519
-43.5663
-42.2122
-43.065
-41.6004
-40.8349
-40.1431
-44.4647
-42.6288
-42.4059
-40.9507
-43.3019
-44.4168
-43.0946
-44.0569
-45.7188
-44.7481
-43.3013
-45.5454
-111.107
103.337
-98.4925
62.4969
-96.5701
-77.5525
-61.2811
-48.0127
-50.4275
-49.1004
-50.0852
-47.52
-110.697
43.6286
-44.3487
37.9501
-80.519
-39.1793
-53.3897
-45.4616
-39.8291
-44.0706
-47.7581
-52.4096
-98.4437
62.5449
-110.88
103.459
-96.3608
-77.4672
-49.4775
-47.7666
-57.6114
-45.894
-47.4354
-46.425
-44.2832
37.8065
-110.621
43.7848
-80.2624
-39.0207
-32.3997
-37.4806
-48.0555
-41.2589
-42.8949
-44.6953
-51.6054
-45.2008
-38.2603
-37.1391
-42.9118
-40.2282
-42.5332
-38.3076
-33.9439
-39.2506
-37.6968
-36.4008
-37.9407
-37.6985
-36.8623
-38.4145
-49.8583
-34.5574
-47.497
-46.7238
-48.8264
-63.7925
-23.5301
-110.386
-41.4217
-44.1661
-40.1017
-40.096
-42.0762
-46.9338
-47.4556
-45.8343
-51.2727
-45.0858
-42.4496
-38.2037
-37.8494
-36.9332
-42.5615
-39.8043
-32.7053
-38.7273
-36.6386
-38.1433
-36.9434
-36.1007
-37.0168
-36.4673
-49.459
-34.1008
-23.0012
-110.026
-47.0806
-46.2094
-48.2225
-63.1557
-39.202
-42.1281
-46.6499
-44.7907
-38.9532
-38.4711
-41.0583
-45.9067
-99.6478
-91.0298
164.518
166.866
-78.1273
-78.098
189.881
189.945
-71.9015
-49.437
-65.2396
-50.5028
-50.1912
-48.5636
-47.4448
-47.5454
-46.5803
-46.9383
-47.0923
-46.5992
-42.6842
-46.2711
-40.9038
-44.6577
-21.593
-21.5453
65.2213
65.2501
-49.0323
-64.4858
-15.5126
7.12364
-43.9083
-40.0026
-39.9633
-42.6294
-45.2326
-42.4308
-44.5659
-47.7054
-99.4233
-90.7802
167.052
164.671
-71.6613
-49.1887
-65.18
-50.4339
-44.6748
-46.9335
-46.6884
-46.7656
-40.8202
-43.7512
-40.5018
-44.0787
-64.2005
-48.6822
7.358
-15.3861
-39.9725
-41.7096
-43.631
-42.8761
-39.0574
-38.344
-36.5844
-36.2654
-48.1141
-46.9083
-40.0674
-42.9833
-46.3585
-46.396
-37.3698
-37.3118
-38.2423
-39.6495
-37.1023
-40.3716
-36.4604
-36.5549
-39.6207
-39.4552
-41.4656
-43.9837
-66.1565
-53.6835
15.2196
15.3966
-84.511
-84.3382
-52.7271
-52.4267
-45.0157
-44.3524
-38.5221
-37.6389
-36.4524
-36.0942
-46.5505
-47.8012
-39.5815
-42.4361
-38.7116
-37.4176
-35.5942
-38.5207
-43.3419
-40.6158
-53.1056
-65.6988
-110.412
-70.3422
-72.0362
-106.543
-42.1723
-43.4574
-50.9827
-46.6288
-52.0303
-49.2041
-49.5991
-45.4692
-104.892
-116.695
-67.616
-60.4466
-110.198
-106.295
-71.7862
-70.1179
-104.642
-60.1608
-67.3558
-116.474
-51.5819
-45.0756
-49.2507
-48.8207
-41.871
-46.4998
-50.6008
-43.1064
-102.352
-97.1525
-65.7289
-64.6389
-102.277
-64.5457
-65.6994
-97.1215
-41.9338
-42.8212
-51.1315
-49.4382
-42.0625
-49.5421
-51.166
-42.8624
-54.4216
-28.5975
-7.50982
-39.7214
-78.6076
-20.1514
21.7724
-24.1028
-78.0215
-23.4726
22.1247
-20.1544
-54.2954
-39.6872
-7.34934
-28.3915
39.1069
118.023
193.436
60.2217
26.7785
34.6522
186.125
92.8851
26.8489
93.1252
186.229
34.7694
39.6978
60.2593
193.518
118.188
-39.1119
-37.7722
-39.442
-40.7773
-38.0093
-38.0543
-38.5241
-37.5594
-41.26
-43.2195
-40.2203
-39.2758
-50.6245
-43.9735
-41.9748
-46.6787
-38.7363
-40.3445
-38.8922
-37.288
-50.0803
-46.0056
-41.3589
-43.485
-40.0649
-38.1821
-39.4099
-42.2733
-37.1667
-36.9034
-37.805
-37.1029
-38.1104
-38.5223
-36.6877
-36.5041
-37.953
-36.3022
-36.6228
-38.4716
-36.4202
-36.8757
-36.2618
-35.9375
-36.7625
-36.2009
-36.3445
-36.9819
-73.1859
-57.399
-71.4446
-106.286
-45.1839
-49.5864
-56.9734
-49.4075
-43.971
-48.5031
-56.7205
-49.2926
-72.5761
-106.135
-71.2513
-56.9448
-38.3786
-42.4931
-42.6001
-37.8974
-62.406
-58.7658
-46.2464
-45.9916
-52.2707
-45.1783
-45.6925
-54.2352
-41.064
-39.3995
-42.4551
-42.4475
-37.3733
-36.6064
-40.5902
-40.7969
-39.3709
-39.8695
-40.1336
-37.868
-46.1729
-49.7745
-42.4322
-41.2584
-58.9451
-43.6952
-43.4945
-55.0399
-37.867
-38.5089
-41.0285
-40.6365
-37.4195
-40.0534
-40.8276
-38.3669
-49.8784
-49.3751
-44.2226
-43.7941
-51.3399
-44.667
-44.5158
-49.8318
-44.1183
-44.4068
-44.4395
-46.0068
-45.2122
-36.6424
-45.0285
-48.2597
-36.7078
-43.0644
-42.7775
-31.9617
-42.3153
-45.4708
-43.5256
-41.7586
-50.0092
-49.1183
-46.1922
-47.5428
-47.6115
-45.6484
-45.803
-48.5681
-39.6351
-36.3962
-44.6221
-45.5889
-45.3769
-47.3651
-45.3108
-40.6694
-70.3408
-157.847
-145.608
-62.7708
-60.4942
-57.6994
-25.2628
-56.9541
-77.19
-55.2843
-46.6548
-53.5285
-157.794
-70.1689
-145.531
-57.7907
-59.2773
-54.9757
-56.8599
-24.958
-76.9795
-38.3338
-47.7747
-44.9482
-40.7146
-38.8295
-37.7583
-39.5173
-37.4247
-36.9057
-37.8703
-37.2245
-58.796
-54.4393
-57.79
-67.2254
-41.6584
-41.4218
-42.7519
-43.1193
-40.5449
-39.3506
-38.6346
-37.4708
-36.6264
-36.7467
-36.3618
-37.0273
-58.2897
-66.6577
-53.9321
-57.2396
-40.0879
-41.6494
-39.9884
-41.425
-34.7787
-34.798
-83.211
43.4229
-132.658
-132.649
-113.032
-111.827
-59.1541
-51.0246
-54.1838
-55.1185
-56.8798
-56.4998
-59.2635
-48.989
-54.1101
-53.8251
-51.2414
-50.3745
-43.2359
-41.1543
-42.5289
-42.3525
-58.7314
-58.7365
-51.6733
-43.6563
-50.9829
-49.3312
-51.4478
-37.3725
-35.4636
-31.4302
-33.261
-35.0174
-44.8718
-43.5842
-43.7731
-44.3664
-34.4976
-34.228
-82.9203
49.206
-59.0081
-50.8855
-53.8791
-55.0001
-52.9607
-51.9621
-55.1549
-45.9458
-42.0766
-40.1777
-40.9336
-41.5009
-50.6525
-48.907
-51.0864
-37.0109
-40.9487
-40.4659
-40.4419
-40.7037
-36.3688
-36.1302
-36.7248
-36.2261
-42.3092
-43.8237
-43.5959
-42.6107
-40.4435
-40.4227
-41.5676
-39.3851
-38.2257
-38.8392
-38.5473
-38.5693
-37.6433
-37.5822
-37.2739
-38.0376
-49.2987
-47.8239
-46.9756
-50.4369
-128.184
-128.129
-73.2498
-127.078
-47.7276
-47.4965
-48.8302
-46.7825
-36.0745
-35.7912
-36.2477
-35.951
-41.9073
-43.398
-43.2036
-42.173
-37.0722
-37.5924
-37.4351
-37.2619
-48.6057
-46.6985
-46.2787
-49.6218
-62.5675
-57.2397
-56.0076
-52.7918
-62.2935
-57.0129
-55.6638
-52.4357
-61.6603
-57.6583
-57.6423
-54.3383
2.39008
8.71905
8.75819
17.5621
199.223
200.487
204.049
199.268
-39.4012
-40.2155
-39.5726
-40.4326
-38.7523
-39.589
-38.8557
-39.7464
-36.3781
-36.4965
-36.3246
-36.3421
-63.761
-68.0098
-60.6894
-63.6525
-44.686
-43.8843
-43.665
-43.1943
-41.9328
-41.4373
-41.0135
-40.8311
-43.4655
-42.6023
-42.4858
-41.7158
-43.4494
-43.995
-43.3266
-43.8083
-45.2489
-44.7648
-45.1224
-45.0696
-32.402
-34.3106
-77.4629
37.3179
-134.772
-131.117
-116.874
-110.726
-95.396
-72.0472
-94.0832
-79.0176
-58.323
-57.1122
-61.0429
-50.3738
-56.865
-55.0351
-52.4694
-50.9761
-50.5353
-46.0225
-48.902
-47.7098
-25.7716
-28.1782
-65.9842
12.3345
-57.8731
-58.2415
-56.2562
-27.8185
-68.107
-56.5251
-77.0065
-47.3798
-54.2176
-55.6054
-59.4416
-47.1455
-42.9016
-40.3319
-39.9868
-43.0454
-49.1912
-46.8293
-47.8096
-48.7114
-134.721
-131.063
-116.835
-110.817
-32.1937
-34.0466
-77.2474
37.4964
-95.2795
-71.9151
-93.8964
-78.9158
-55.1041
-54.0985
-51.3651
-49.5082
-55.0317
-53.6792
-57.3866
-47.7273
-48.7663
-44.6278
-46.681
-46.4399
-57.8278
-58.2157
-56.2172
-27.5402
-25.4324
-27.9041
-65.2251
12.4719
-67.912
-56.1909
-76.7401
-47.1822
-33.9053
-30.0311
-31.1166
-33.9574
-47.5202
-50.1696
-53.0994
-42.2004
-42.8693
-41.8655
-42.5988
-42.1419
-42.5239
-45.9914
-49.6439
-44.6996
-37.5781
-36.8721
-37.2196
-37.091
-40.5882
-41.4428
-41.8925
-40.478
-39.961
-40.1566
-41.2881
-39.0456
-37.1655
-39.0321
-33.2641
-38.8799
-36.5716
-36.3036
-36.7311
-36.3867
-37.6291
-37.9214
-37.8624
-37.615
-37.173
-37.5443
-37.1105
-37.8229
-58.1747
-51.1577
-51.4619
-57.6749
-49.4701
-45.9736
-47.57
-47.1387
-55.3199
-52.3572
-50.9265
-57.8537
-92.3493
-110.324
-44.1588
-110.912
-42.7688
-42.7584
-41.9215
-43.1978
-40.2736
-39.4676
-39.9253
-39.9206
-43.8419
-45.4705
-43.1478
-45.492
-44.0858
-47.0321
-46.3029
-46.918
-42.3513
-45.8422
-49.3399
-44.5638
-39.8442
-40.0871
-41.2001
-38.9472
-37.3545
-36.612
-36.8852
-36.896
-40.2159
-41.055
-41.5252
-40.0792
-36.3781
-38.2112
-32.057
-38.2518
-36.8502
-37.3566
-36.8719
-37.5525
-36.113
-35.9167
-36.1435
-36.0304
-36.6234
-36.8368
-36.8724
-36.48
-57.6985
-50.7282
-51.0606
-57.2721
-91.6704
-110.06
-43.8782
-110.541
-48.9935
-45.5237
-47.1314
-46.6509
-54.712
-51.6852
-50.3083
-57.1926
-41.2914
-39.6573
-39.5968
-40.9219
-42.7377
-46.3459
-45.4212
-45.9571
-38.8867
-38.1431
-38.6777
-38.4397
-42.7269
-44.5444
-42.1246
-44.4509
-116.812
-81.2684
-98.3688
-93.4795
135.849
181.977
165.559
171.431
-86.4612
-71.591
-77.348
-77.3338
142.135
193.994
190.773
190.803
-57.5825
-57.6587
-64.1437
-53.067
-56.3148
-57.1099
-60.9739
-53.376
-52.7415
-47.7283
-49.9973
-49.1742
-47.329
-47.3226
-47.4715
-47.5925
-48.0383
-45.5509
-46.733
-46.9241
-46.6862
-45.5325
-46.473
-46.2153
-43.8559
-43.9776
-43.2742
-44.8871
-42.5414
-42.629
-41.7059
-43.6182
-29.8243
-12.6837
-20.4962
-20.4729
43.3592
139.589
60.0469
60.0777
-52.4015
-53.9975
-50.8307
-57.6208
-13.2831
2.60426
-9.44829
0.0248197
-35.1679
-43.6727
-41.567
-39.5514
-38.6126
-40.9146
-39.3515
-40.8221
-43.2385
-43.5943
-44.0929
-43.54
-45.349
-44.8343
-44.7727
-46.1666
-116.43
-81.0412
-98.1735
-93.2585
136.017
182.111
171.567
165.72
-57.2505
-57.3903
-63.8896
-52.7905
-56.2333
-57.0618
-60.912
-53.3093
-48.5777
-44.4347
-45.3873
-46.5192
-46.2668
-46.7822
-46.7713
-46.9022
-41.7893
-41.7141
-41.2682
-42.5557
-41.9334
-42.2754
-41.3252
-43.0931
-52.0378
-53.6207
-57.3965
-50.4554
-13.1275
2.71791
0.159866
-9.31428
-40.2204
-40.7876
-40.8586
-40.8828
-42.29
-42.9155
-43.0637
-42.7622
-38.1929
-38.8211
-38.7997
-38.4509
-36.2479
-36.329
-36.4002
-36.2461
-45.3845
-48.8443
-47.4848
-46.9003
-41.7502
-40.9788
-40.7229
-42.1142
-44.6405
-48.8132
-46.5013
-46.5201
-37.9115
-36.9937
-37.3779
-37.3503
-38.7332
-39.0966
-38.5619
-39.2608
-38.9027
-40.9638
-38.3222
-40.0071
-36.7406
-36.4168
-36.5022
-36.5511
-39.0239
-40.2425
-39.6234
-39.541
-43.7234
-41.7777
-42.0466
-43.2372
-55.7543
-61.3533
-61.9221
-55.8936
-0.136828
23.3769
15.9715
15.9828
-94.9081
-78.6224
-85.5157
-85.4297
-51.6646
-55.4835
-53.2839
-53.1347
-45.3373
-44.3958
-44.9274
-44.6336
-37.6042
-38.1991
-38.2254
-37.7963
-36.0582
-36.2178
-36.2594
-36.0858
-45.0338
-48.5102
-46.5553
-47.1642
-41.2604
-40.4265
-40.2198
-41.5809
-37.7781
-38.2708
-38.3476
-37.7057
-37.351
-39.1355
-36.7128
-38.227
-42.9965
-41.0638
-42.5585
-41.2625
-55.0622
-61.0188
-55.3569
-61.4469
-121.434
-98.5392
-101.198
-82.4048
-50.8208
-45.8693
-49.7086
-48.2938
-48.3413
-47.4975
-48.0651
-47.1292
-110.7
-84.0004
-88.9376
-73.6542
-121.192
-98.315
-100.963
-82.1774
-110.606
-83.7468
-88.6534
-73.3849
-47.9505
-47.1015
-47.6918
-46.759
-50.4979
-45.5744
-49.3541
-47.9736
-86.5721
-77.7308
-77.7794
-70.4754
-86.5205
-77.661
-77.7385
-70.4176
-45.5129
-44.01
-47.9541
-46.1185
-45.6083
-44.0895
-48.0263
-46.1749
-35.3685
-32.314
-23.8072
-20.8148
-8.01074
-5.77701
9.78421
12.5889
-7.57118
-5.50771
10.0868
12.8839
-35.2862
-32.1873
-23.7362
-20.707
138.243
138.702
162.827
182.032
60.4628
52.1904
138.804
66.9769
52.2874
60.573
67.0286
138.963
138.805
138.396
182.13
162.97
-39.1475
-39.9003
-39.3085
-39.87
-37.9038
-38.0558
-38.2014
-38.2235
-40.3143
-41.2695
-40.1176
-41.0515
-46.1256
-46.9667
-44.0444
-44.695
-38.695
-39.4544
-38.802
-39.3883
-45.5824
-46.3781
-43.484
-44.088
-39.2533
-40.2686
-39.1565
-40.1378
-37.1234
-37.1921
-37.4508
-37.4064
-37.1623
-37.7067
-36.8557
-37.2913
-37.5969
-37.0111
-37.2046
-36.7316
-36.4351
-36.1628
-36.3663
-36.1585
-36.4118
-36.6446
-36.3417
-36.511
-72.0963
-89.5068
-71.533
-82.8479
-48.5253
-48.6726
-51.7384
-51.7703
-47.936
-47.6027
-51.3147
-51.1159
-89.0819
-71.5227
-82.5826
-71.0951
-35.1716
-37.2907
-39.0693
-36.6074
-54.1012
-50.4213
-50.3753
-48.0847
-49.8939
-47.636
-47.9719
-46.5969
-41.1389
-40.4146
-41.6172
-40.6529
-33.8449
-35.9561
-37.4363
-35.1537
-39.0378
-38.6153
-39.4032
-38.7311
-45.1942
-43.138
-43.9263
-42.7262
-50.8755
-47.5907
-47.2719
-45.3561
-39.4039
-38.9352
-40.168
-39.5808
-38.9755
-38.6327
-39.8016
-39.33
-47.8622
-46.4435
-46.5174
-45.2182
-48.6878
-47.3567
-47.0582
-45.8637
-45.2366
-45.5161
-44.6165
-44.9779
-42.2964
-49.7952
-45.9961
-50.8188
-35.3052
-42.3927
-40.3748
-45.1909
-43.6111
-44.3767
-43.1681
-44.03
-47.543
-47.9327
-47.5009
-47.492
-46.7477
-46.0663
-46.7847
-46.6364
-40.3275
-41.2483
-40.8191
-44.1508
-45.2993
-44.9988
-46.3173
-44.2549
-73.8779
0.434306
-127.899
-92.5308
-114.497
-105.262
-62.7717
-51.8971
-53.9656
-52.3815
-61.9003
-52.0088
-57.114
11.3476
-64.1783
-17.5889
-100.673
-63.0905
-58.9335
-47.5829
-43.7292
-44.5112
-51.492
-49.7784
-127.833
-92.5239
-73.6573
0.556412
-114.367
-105.175
-52.2053
-49.9096
-59.1492
-49.1238
-58.7667
-50.2924
-64.0951
-17.5593
-56.8755
11.4698
-100.496
-62.934
-35.0809
-37.3839
-51.5477
-41.8826
-44.8631
-41.4604
-40.1567
-41.8392
-38.3527
-38.025
-41.6665
-39.8822
-40.6856
-38.7785
-39.1361
-37.6407
-36.9976
-36.728
-37.4856
-37.4103
-36.9816
-37.6391
-54.9449
-71.1773
-51.8965
-51.46
-53.1202
-62.6167
-87.7188
-80.2369
-41.743
-43.2751
-40.9668
-40.7706
-42.1368
-44.0623
-44.6095
-44.1505
-39.9389
-41.6895
-40.5505
-38.6568
-38.0536
-37.8864
-41.3324
-39.5267
-38.5858
-37.1274
-36.6068
-37.2207
-36.3014
-36.3114
-36.5708
-36.4442
-54.4796
-70.6654
-87.1124
-79.6168
-51.4274
-50.9427
-52.5612
-62.0172
-40.0334
-41.4449
-43.2773
-42.5213
-39.6674
-39.225
-40.9303
-42.8333
-85.543
44.9856
-80.7719
27.9778
-108.623
-115.273
117.68
103.237
-113.185
-100.245
-113.145
-100.146
-97.1578
-97.1431
60.672
60.6723
-68.7337
-64.3946
-45.2813
-48.8991
-62.3213
-52.0693
-59.7713
-52.3611
-60.4505
-49.6041
-59.6851
-48.6551
-57.2714
-54.9913
-47.3203
-47.2545
-51.6545
-51.0215
-51.1371
-50.4399
-49.4054
-49.6306
-48.6847
-48.4212
-44.8911
-44.6352
-41.1809
-40.4531
-42.7676
-44.4496
-41.5205
-43.5042
-52.4305
-40.9873
-52.4063
-39.667
-39.0327
-39.0164
30.5599
30.1707
-59.7079
-39.7165
-49.4617
-42.4092
-50.0456
-55.2175
-25.7046
-21.8971
-36.6364
-39.3048
-30.6362
-33.35
-35.0093
-32.557
-36.1745
-38.5056
-45.4085
-46.3722
-42.596
-43.8892
-44.3474
-42.9776
-44.8203
-46.5775
-85.2106
45.5593
-80.415
27.3545
-108.351
-114.929
103.45
117.863
-68.5308
-64.2827
-45.2332
-48.7778
-62.0811
-51.798
-59.6747
-52.2597
-56.5954
-46.8858
-54.4893
-45.4433
-50.8374
-53.5067
-45.579
-45.3865
-43.0251
-43.6146
-39.8463
-39.7298
-40.9864
-42.3801
-40.8574
-42.7115
-59.3865
-39.4447
-49.0639
-41.6166
-54.9021
-49.6739
-21.7631
-25.4919
-41.2504
-41.4442
-39.9783
-41.0293
-40.0859
-40.8073
-42.2539
-41.7291
-36.783
-36.4933
-36.2533
-36.1948
-37.9044
-37.4099
-36.3319
-36.1842
-42.4139
-41.1787
-45.0955
-44.3777
-43.8964
-44.8428
-41.4588
-42.9847
-41.4753
-39.3462
-41.4319
-39.2992
-42.9218
-42.9424
-38.5468
-38.5215
-37.9852
-38.0014
-39.1743
-39.2208
-38.3342
-38.9443
-38.2906
-39.0516
-37.2679
-38.0416
-37.1527
-37.913
-36.9449
-36.9984
-38.4828
-38.4125
-48.3505
-53.7288
-44.1055
-47.4227
-44.0182
-45.7985
-54.9339
-50.9719
-65.5457
-126.714
-65.3276
-126.572
-22.146
-21.6048
-106.929
-106.854
-48.4621
-46.6862
-48.0871
-46.1897
-50.0175
-49.8384
-46.0559
-45.787
-36.3787
-36.2379
-35.7229
-35.8806
-37.3863
-36.8164
-36.1158
-35.9373
-42.0432
-40.7689
-44.6806
-43.9155
-44.4605
-43.5364
-41.0105
-42.5093
-36.9625
-36.8077
-37.9899
-37.8198
-37.8816
-37.3436
-36.9354
-37.5746
-47.6295
-53.0251
-43.0122
-46.5341
-45.1018
-43.2359
-50.1421
-54.2046
-71.5293
-69.2864
-63.7461
-53.3411
-51.8159
-60.0553
-50.846
-50.0888
-71.2828
-69.0364
-63.4738
-53.3139
-59.924
-51.2844
-49.6791
-50.443
-66.2933
-66.2792
-61.2252
-54.0824
-61.194
-53.8867
-51.3114
-51.3287
-5.8178
-5.86082
-0.191125
14.9442
15.0333
-0.124136