# vtk DataFile Version 2.0
tet_velo
ASCII
DATASET UNSTRUCTURED_GRID
POINTS 29498 float
-0.561049 0.275 -2.065
-0.676907 0.395 2.085
-0.675 0.867061 -1.885
-0.675 1.03681 2.005
0.561666 0.275 -2.065
0.676896 0.395 2.085
0.675 0.867061 -1.885
0.675 1.03681 2.005
-0.627994 0.286675 -0.681667
-0.70695 0.286338 0.701667
-0.78089 1.02953 -0.588333
-0.779201 1.08443 0.708334
0.627544 0.287532 -0.681667
0.710347 0.283139 0.701667
0.780906 1.02955 -0.588333
0.779191 1.08442 0.708334
-1.25704 -0.13406 -3.17772
-1.25865 -0.0790359 -2.10577
-1.31901 -0.0676489 -0.720194
-1.38447 -0.0663652 0.682822
-1.3821 0.00305422 2.06986
-1.37792 0.046467 3.14902
-1.3821 0.0757985 4.21485
-1.25848 0.200474 -3.11888
-1.26579 0.271971 -2.05639
-1.34292 0.302065 -0.687682
-1.40705 0.299308 0.68883
-1.37683 0.357192 2.0592
-1.37498 0.398669 3.13713
-1.3834 0.429027 4.20579
-1.31054 0.847016 -2.97687
-1.36246 0.917219 -1.9108
-1.45873 1.03611 -0.60117
-1.4731 1.06895 0.702319
-1.39597 1.0488 2.01361
-1.38915 1.08829 3.09512
-1.39776 1.13045 4.17775
-1.36606 1.91293 -2.82902
-1.40017 1.993 -1.77593
-1.45176 2.10942 -0.494396
-1.47928 2.17604 0.768454
-1.46864 2.18605 2.05089
-1.45203 2.19705 3.10587
-1.44271 2.22313 4.17904
-0.595851 -0.133417 -3.18332
-0.587334 -0.0760032 -2.11392
-0.628125 -0.0756727 -0.7191
-0.686655 -0.0748718 0.693778
-0.689695 0.0225353 2.08902
-0.684567 0.0594908 3.16201
-0.686818 0.081592 4.22237
-0.588461 0.19559 -3.1206
-0.680529 0.411615 3.14785
-0.687385 0.433889 4.21146
-0.625837 0.824713 -2.96615
-0.68894 1.08629 3.0934
-0.698724 1.12965 4.17739
-0.665161 1.89892 -2.81842
-0.687259 1.98049 -1.76425
-0.728267 2.10787 -0.487359
-0.75898 2.18001 0.767609
-0.758627 2.18512 2.04486
-0.745924 2.19379 3.09985
-0.738353 2.22021 4.17467
0.652778 -0.133392 -3.18332
0.614384 -0.0758765 -2.11392
0.658077 -0.0754936 -0.7191
0.705517 -0.076912 0.693779
0.685004 0.0217285 2.08902
0.69201 0.0588793 3.16201
0.697891 0.0809454 4.22237
0.654315 0.195602 -3.1206
0.689796 0.411207 3.14785
0.696129 0.433317 4.21146
0.693685 0.824709 -2.96615
0.68607 1.08599 3.0934
0.689836 1.12916 4.17739
0.725731 1.89886 -2.81842
0.732047 1.98043 -1.76425
0.73119 2.10776 -0.487359
0.705262 2.17978 0.767609
0.67589 2.18477 2.04486
0.670282 2.19337 3.09985
0.670616 2.21974 4.17467
1.29896 -0.134035 -3.17772
1.26952 -0.0788617 -2.10577
1.33007 -0.0677766 -0.720194
1.39807 -0.069072 0.682822
1.38794 0.00105999 2.06986
1.38801 0.0450211 3.14902
1.39298 0.0744452 4.21485
1.29862 0.200499 -3.11888
1.25777 0.272123 -2.05639
1.33404 0.302368 -0.687682
1.41159 0.296417 0.68883
1.38512 0.355451 2.0592
1.38535 0.397454 3.13713
1.39115 0.427788 4.20579
1.35215 0.847003 -2.97687
1.35497 0.917241 -1.9108
1.44657 1.03622 -0.60117
1.46845 1.06799 0.702318
1.39523 1.04768 2.01361
1.38505 1.08733 3.09512
1.38737 1.12938 4.17775
1.41538 1.91279 -2.82902
1.43028 1.99285 -1.77593
1.44583 2.10915 -0.494397
1.42997 2.1755 0.768453
1.39607 2.18527 2.05089
1.38165 2.19616 3.10587
1.37666 2.22216 4.17904
-0.646753 0.571031 -2.00373
0.000308514 0.278076 -2.06192
-0.638988 0.236371 -1.37333
-0.685977 0.715905 2.05502
-5.51343e-06 0.354319 2.12568
-0.751 0.281597 1.39333
0 0.981137 -1.99908
-0.76557 0.985923 -1.23667
0 1.10851 2.0767
-0.762104 1.09562 1.35667
0.647428 0.571031 -2.0041
0.64291 0.232961 -1.37333
0.685954 0.715905 2.05501
0.74907 0.283621 1.39333
0.765577 0.985929 -1.23667
0.762073 1.09559 1.35667
-0.668965 0.285013 0.00999999
-0.864397 0.658104 -0.635
-0.000224633 0.259144 -0.681667
-0.869268 0.685383 0.705
0.00169864 0.255333 0.701667
-0.784138 1.06107 0.0600001
7.78136e-06 1.38661 -0.588333
-4.59401e-06 1.57083 0.708334
0.669194 0.285087 0.00999999
0.864387 0.658541 -0.635
0.869285 0.683779 0.705
0.784113 1.06105 0.0600001
-0.855709 0.614567 -1.305
-0.875278 0.671744 0.035
-0.894402 0.700644 1.375
4.19401e-05 0.215517 -1.37333
0.000737002 0.264805 0.00999999
0.000846562 0.262296 1.39333
0.000154257 0.571031 -2.16596
-2.75671e-06 0.715905 2.18472
3.89068e-06 1.10912 -1.23667
1.59368e-06 1.56096 0.0600001
-2.297e-06 1.52882 1.35667
0.855727 0.614786 -1.305
0.875263 0.67116 0.035
0.894412 0.699842 1.375
-0.913418 0.273485 -2.0607
-0.574191 0.0994984 -2.08946
-0.574755 0.235295 -2.5928
-1.02687 0.376096 2.0721
-0.683301 0.208768 2.08701
-0.678718 0.403307 2.61642
-1.01873 0.89214 -1.8979
-0.650418 0.845887 -2.42558
-0.681129 1.42378 -1.82463
-1.03548 1.04281 2.0093
-0.68197 1.06155 2.5492
-0.716813 1.61097 2.02493
0.588025 0.0995617 -2.08946
0.60799 0.235301 -2.5928
0.909718 0.273561 -2.0607
0.68095 0.208364 2.08701
0.683346 0.403103 2.61642
1.03101 0.375226 2.0721
0.684342 0.845885 -2.42558
0.703523 1.42375 -1.82463
1.01499 0.892151 -1.8979
0.680535 1.0614 2.5492
0.675445 1.61079 2.02493
1.03511 1.04225 2.0093
-0.985456 0.29437 -0.684674
-0.628059 0.105501 -0.700383
-1.057 0.292823 0.695248
-0.696802 0.105733 0.697723
-1.11981 1.03282 -0.594752
-0.754578 1.5687 -0.537846
-1.12615 1.07669 0.705326
-0.76909 1.63222 0.737971
0.642811 0.106019 -0.700383
0.980795 0.29495 -0.684674
0.707932 0.103113 0.697723
1.06097 0.289778 0.695248
0.756048 1.56866 -0.537846
1.11374 1.03289 -0.594752
0.742227 1.6321 0.737971
1.12382 1.0762 0.705326
-1.25784 -0.106548 -2.64175
-1.25776 0.0332074 -3.1483
-0.926444 -0.133738 -3.18052
-1.28883 -0.0733424 -1.41298
-1.26222 0.0964673 -2.08108
-0.922993 -0.0775196 -2.10985
-1.35174 -0.0670071 -0.0186859
-1.33097 0.117208 -0.703938
-0.97357 -0.0716608 -0.719647
-1.38329 -0.0316555 1.37634
-1.39576 0.116471 0.685826
-1.03556 -0.0706185 0.6883
-1.38001 0.0247606 2.60944
-1.37947 0.180123 2.06453
-1.0359 0.0127948 2.07944
-1.38001 0.0611328 3.68193
-1.37645 0.222568 3.14307
-1.03124 0.0529789 3.15551
-1.38275 0.252413 4.21032
-1.03446 0.0786953 4.21861
-1.26214 0.236222 -2.58764
-1.28451 0.523745 -3.04788
-0.923472 0.198032 -3.11974
-1.30435 0.287018 -1.37204
-1.31412 0.594595 -1.9836
-1.37498 0.300686 0.000574121
-1.40082 0.669086 -0.644426
-1.39194 0.32825 1.37402
-1.44008 0.684129 0.695574
-1.37591 0.377931 2.59817
-1.3864 0.702997 2.0364
-1.37919 0.413848 3.67146
-1.38207 0.743479 3.11612
-1.02775 0.405142 3.14249
-1.39058 0.779739 4.19177
-1.03539 0.431458 4.20862
-1.3365 0.882118 -2.44383
-1.3383 1.37997 -2.90294
-0.96819 0.835865 -2.97151
-1.4106 0.976663 -1.25598
-1.38131 1.45511 -1.84336
-1.46592 1.05253 0.0505742
-1.45524 1.57276 -0.547783
-1.43453 1.05888 1.35796
-1.47619 1.62249 0.735386
-1.39256 1.06855 2.55436
-1.4323 1.61743 2.03225
-1.39345 1.10937 3.63644
-1.42059 1.64267 3.1005
-1.03905 1.08729 3.09426
-1.42024 1.67679 4.1784
-1.04824 1.13005 4.17757
-1.38311 1.95296 -2.30247
-1.01561 1.90592 -2.82372
-1.42596 2.05121 -1.13516
-1.04371 1.98675 -1.77009
-1.46552 2.14273 0.137029
-1.09001 2.10865 -0.490877
-1.47396 2.18104 1.40967
-1.11913 2.17803 0.768031
-1.46033 2.19155 2.57838
-1.11363 2.18559 2.04787
-1.44737 2.21009 3.64246
-1.09898 2.19542 3.10286
-1.09053 2.22167 4.17685
-0.591592 -0.10471 -2.64862
-0.592156 0.0310867 -3.15196
0.0284636 -0.133404 -3.18332
-0.607729 -0.075838 -1.41651
0.0135252 -0.0759399 -2.11392
-0.65739 -0.0752723 -0.0126607
0.0149759 -0.0755832 -0.7191
-0.688175 -0.0261682 1.3914
0.00943127 -0.0758919 0.693779
-0.687131 0.0410131 2.62552
-0.00234538 0.0221319 2.08902
-0.685692 0.0705414 3.69219
-0.682548 0.235553 3.15493
0.00372193 0.0591851 3.16201
-0.687101 0.257741 4.21692
0.00553666 0.0812687 4.22237
-0.607149 0.510152 -3.04338
0.0329269 0.195596 -3.1206
-0.683957 0.422752 3.67965
-0.684734 0.748954 3.12062
0.00463364 0.411411 3.14785
-0.693055 0.78177 4.19442
0.00437198 0.433603 4.21146
-0.645499 1.36182 -2.89229
0.033924 0.824711 -2.96615
-0.693832 1.10797 3.63539
-0.717432 1.64004 3.09662
-0.00143479 1.08614 3.0934
-0.718539 1.67493 4.17603
-0.00444399 1.12941 4.17739
-0.67621 1.9397 -2.29134
0.0302851 1.89889 -2.81842
-0.707763 2.04418 -1.1258
0.022394 1.98046 -1.76425
-0.743623 2.14394 0.140125
0.00146158 2.10782 -0.487359
-0.758803 2.18257 1.40623
-0.0268589 2.1799 0.767609
-0.752275 2.18946 2.57235
-0.0413684 2.18495 2.04486
-0.742139 2.207 3.63726
-0.0378212 2.19358 3.09985
-0.0338687 2.21997 4.17467
0.633581 -0.104634 -2.64862
0.653547 0.0311049 -3.15196
0.975871 -0.133713 -3.18052
0.63623 -0.0756851 -1.41651
0.941952 -0.0773691 -2.10985
0.681797 -0.0762028 -0.0126607
0.994072 -0.0716351 -0.719647
0.695261 -0.0275918 1.3914
1.05179 -0.072992 0.6883
0.688507 0.0403039 2.62552
1.03647 0.0113942 2.07944
0.694951 0.0699124 3.69219
0.690903 0.235043 3.15493
1.04001 0.0519502 3.15551
0.69701 0.257131 4.21692
1.04544 0.0776953 4.21861
0.674 0.510155 -3.04338
0.976466 0.19805 -3.11974
0.692963 0.422262 3.67965
0.687933 0.748596 3.12062
1.03757 0.40433 3.14249
0.692983 0.78124 4.19442
1.04364 0.430553 4.20863
0.709708 1.36178 -2.89229
1.02291 0.835856 -2.97151
0.687953 1.10757 3.63539
0.678176 1.63968 3.09662
1.03556 1.08666 3.09426
0.680226 1.67445 4.17603
1.03861 1.12927 4.17757
0.728889 1.93965 -2.29134
1.07055 1.90583 -2.82372
0.731618 2.0441 -1.1258
1.08116 1.98664 -1.77009
0.718226 2.14377 0.140125
1.08851 2.10846 -0.490878
0.690576 2.18228 1.40623
1.06762 2.17764 0.768031
0.673086 2.18907 2.57235
1.03598 2.18502 2.04787
0.670449 2.20655 3.63726
1.02597 2.19476 3.10286
1.02364 2.22095 4.17685
1.28424 -0.106448 -2.64175
1.29879 0.0332321 -3.1483
1.29979 -0.0733191 -1.41298
1.26364 0.0966304 -2.08108
1.36407 -0.0684243 -0.018686
1.33206 0.117296 -0.703938
1.393 -0.034006 1.37634
1.40483 0.113673 0.685826
1.38797 0.0230405 2.60944
1.38653 0.178256 2.06453
1.3905 0.0597331 3.68193
1.38668 0.221237 3.14307
1.39207 0.251117 4.21032
1.27819 0.236311 -2.58764
1.32538 0.523751 -3.04788
1.29591 0.287245 -1.37204
1.30637 0.594682 -1.9836
1.37282 0.299393 0.000574035
1.39031 0.669295 -0.644426
1.39835 0.325934 1.37402
1.44002 0.682203 0.695574
1.38523 0.376452 2.59817
1.39017 0.701566 2.0364
1.38825 0.412621 3.67146
1.3852 0.742393 3.11612
1.38926 0.778583 4.19177
1.35356 0.882122 -2.44383
1.38376 1.3799 -2.90294
1.40077 0.976731 -1.25598
1.39262 1.45505 -1.84336
1.45751 1.05211 0.0505741
[...]
POINT_DATA 29498
VECTORS point_vectors float
-0.43856 -4.37674 6.31518
0.0490937 0.100986 0.305941
-0.235505 0.232062 0.594236
-0.0344439 -0.124171 0.0743683
0.612131 -4.35755 6.61296
-0.187633 0.150926 0.579778
0.231178 0.236482 0.601095
0.0640411 -0.141996 0.0493485
0.00336359 0.00187569 0.0224885
0 0 0
0 0 0
0 0 0
-0.00232526 0.00122379 0.0145724
0 0 0
0 0 0
0 0 0
-0.634432 -0.414939 19.7135
-1.50813 -1.24893 20.3794
-0.422523 -0.659047 21.588
0.076186 -0.22613 21.6898
0.805027 0.253944 21.6812
1.14392 0.381864 21.2597
1.00423 0.251675 20.8807
-0.808943 -0.378809 19.5699
-2.44868 -1.20773 20.1929
-0.719794 -0.848881 21.6817
-0.000796189 -0.378713 21.8237
1.01763 -0.0321182 21.7053
1.42344 0.0558035 21.2226
1.22395 0.15309 20.8974
-1.05575 0.0912581 19.4416
-2.57979 0.342335 20.3401
-1.41228 -0.323568 21.576
-0.354481 -0.374006 21.8564
0.636163 -0.629136 21.711
1.08715 -0.812138 21.3517
1.04916 -0.611834 20.571
-0.626725 0.486596 19.8917
-0.989058 0.733582 20.4298
-0.919801 0.484797 21.2268
-0.371774 0.0029296 21.5812
0.0460125 -0.31281 21.4924
0.277353 -0.509159 21.2914
0.293238 -0.638638 20.7655
-0.492616 -0.763325 19.2197
-1.35227 -3.61953 20.4234
-0.0350184 -0.322009 21.7062
0.107146 0.00188938 20.8158
0.58469 1.3743 19.01
1.10099 1.76287 19.221
0.912092 1.37516 19.214
-0.657896 -0.713272 18.7711
1.86321 1.35873 9.66232
2.09481 1.522 13.7391
-1.09381 0.288001 18.1529
0.286391 -0.86036 6.13518
1.988 -1.60836 11.3158
-0.514151 0.888443 19.5484
-0.925885 1.62754 20.1855
-1.18243 1.57469 21.3455
-0.480924 0.28905 21.9515
-0.127407 -0.381307 21.6374
0.00473435 -0.638319 21.2649
-0.0225528 -0.505747 22.0045
0.517844 -0.734926 19.253
1.4093 -3.50417 20.4
-0.00529232 -0.366696 21.7502
-0.137106 -0.0219676 20.8011
-0.656248 1.27127 18.8698
-1.18535 1.63789 19.1008
-0.970025 1.30714 19.1642
0.712645 -0.666563 18.8657
-1.88867 1.06662 9.53699
-2.13934 1.40005 13.4929
1.15767 0.27648 18.2792
0.266131 -0.517761 3.95856
-1.6633 -1.16818 9.33715
0.541558 0.849576 19.5669
0.960151 1.56844 20.1967
1.17204 1.57323 21.3376
0.442879 0.346703 21.9561
0.102554 -0.251778 21.6147
0.00139834 -0.465149 21.4189
0.000505943 -0.491072 22.5027
0.61969 -0.394121 19.7584
1.49694 -1.2256 20.3772
0.426447 -0.65972 21.5723
-0.0752825 -0.240587 21.6593
-0.775121 0.187819 21.6555
-1.11037 0.308471 21.291
-1.03405 0.212822 20.8633
0.802856 -0.358518 19.5966
2.47788 -1.22738 20.1781
0.712567 -0.861136 21.6786
0.00106949 -0.393572 21.7964
-0.947107 -0.107449 21.6698
-1.34082 -0.0201181 21.2582
-1.20991 0.129812 20.9683
1.03412 0.07761 19.4777
2.61808 0.338454 20.3282
1.42812 -0.337888 21.5734
0.362091 -0.377131 21.8285
-0.517075 -0.62945 21.6368
-0.969366 -0.80045 21.3659
-1.01592 -0.675708 20.4674
0.62243 0.468779 19.9108
0.974266 0.702466 20.4313
0.91812 0.493131 21.2166
0.387488 0.0481964 21.5829
0.00978206 -0.274934 21.5003
-0.236312 -0.458717 21.2215
-0.165598 -0.58738 21.1256
-0.575409 -0.0498651 0.529685
0.00077443 -0.0254355 0.179049
-0.0578262 -0.0290433 0.469033
-0.00751364 -0.00706081 -0.00187142
-0.00563793 0.0407008 0.132652
0.0051572 0.00386081 0.63989
0.000744084 0.178414 0.49265
-0.250219 -0.138622 0.530988
-0.00654093 -0.000868816 -0.00204283
0 0 0
0.645675 -0.0612984 0.594602
0.0287221 -0.0207006 0.367145
0.00718106 -0.0108788 1.585e-05
-0.01139 0.000188805 0.480567
0.249836 -0.138047 0.531452
0 0 0
-0.000232182 0.000174359 0.026412
-0.000611146 -0.000641097 0.0268943
0 0 0
0 0 0
-0.000101341 -0.00118922 0.0160856
0 0 0
-1.06588e-05 0.0341457 0.0790915
-9.69792e-05 -0.000152683 0.0113305
0.000112568 0.000101599 0.020311
0.000579281 -0.000649207 0.0254905
0 0 0
5.5374e-18 -1.71707e-17 -1.28556e-16
2.45856e-18 8.87981e-18 -1.03511e-16
6.51271e-05 0.000361701 0.00280328
0.00560934 0.0121634 0.166832
-0.00130536 -0.00158396 0.0943963
-9.01215e-06 1.26032e-05 0.00130368
-9.55228e-06 1.5711e-05 0.00118792
0 0 0
0 0 0
-9.19271e-05 0.00792717 0.0813875
-4.06936e-05 0.00242346 0.0243561
-0.000315474 -0.000577435 0.00609991
0 0 0
-4.51014e-05 0.00024551 0.00194636
-0.0052637 0.00932259 0.156938
-4.46894 -3.40821 19.4211
-1.92553 -5.82022 20.5022
-1.96493 -2.20796 17.3376
1.50355 0.603467 16.217
0.505909 1.33842 10.6469
1.13409 0.674568 6.14462
-4.86899 1.33633 20.041
-3.60153 1.64561 16.1683
-2.10683 2.85502 19.9977
0.969062 -0.601454 17.1586
-0.471777 -1.23261 3.06201
0.245948 -0.659717 16.5092
2.02954 -5.69695 20.4367
2.00514 -2.06351 17.5079
4.46009 -3.4228 19.4078
-0.639365 1.20652 10.3629
-1.22511 0.253861 5.94267
-1.44435 0.408514 16.2018
3.59732 1.56906 16.4642
2.13201 2.76432 19.9995
4.8998 1.36752 20.0278
0.841788 -1.53069 0.92989
-0.234791 -0.356764 14.9699
-0.760294 -0.617441 16.8833
0.0497979 -0.881872 15.8572
0.128202 0.337735 13.7477
0.0298243 -0.022723 17.4713
-0.0118184 0.00461974 14.3384
-2.12881 -0.86459 21.5961
-3.59767 2.20143 21.5619
-0.331833 -0.502216 20.2021
-0.624299 0.0636712 20.1561
-0.153542 0.297407 13.7873
-0.0834767 -0.890953 15.5431
-0.0265974 -0.0263186 14.5541
-0.0486892 -0.0834089 17.6983
3.57356 2.19551 21.5512
2.13632 -0.884017 21.5161
0.452383 0.132346 19.1421
0.341483 -0.498423 20.1338
-1.08006 -0.783239 19.8077
-0.718693 -0.401033 19.6442
-0.61944 -0.573675 19.514
-1.05757 -1.0642 21.3988
-1.97655 -1.31046 20.2866
-1.76816 -2.27441 20.2947
-0.123182 -0.419581 21.6097
-0.533383 -0.768608 21.6406
-0.150701 -0.674147 21.8517
0.388901 -0.00439139 21.7951
0.0493478 -0.304164 21.7505
0.170564 -0.150544 21.6599
1.01895 0.347108 21.4371
0.935851 0.122954 21.7066
1.01449 0.767314 21.4376
1.23741 0.387708 21.024
1.28431 0.240402 21.3208
1.37914 0.935627 21.0494
1.06338 0.222975 21.1093
1.07409 0.651712 20.9757
-1.50271 -0.705893 19.5411
-0.987029 -0.164616 19.4446
-0.79781 -0.487543 19.2042
-1.61195 -1.10546 21.5922
-2.94721 -0.419401 20.2246
-0.303802 -0.611165 21.7578
-1.13655 -0.688331 21.671
0.432574 -0.211725 21.9123
-0.171407 -0.426122 21.8931
1.25955 0.0138925 21.5084
0.947092 -0.405694 21.6317
1.64033 0.0245625 20.667
1.39792 -0.428375 21.2969
2.01614 0.67479 18.1801
1.35266 -0.464872 20.4608
1.76292 0.330286 18.8291
-1.90145 0.257723 19.4879
-0.895371 0.412481 19.622
-1.17541 0.190665 18.8583
-2.01536 -0.073617 21.2731
-1.64674 0.78617 20.3554
-0.841478 -0.397197 21.8105
-1.39251 0.281806 21.4001
0.138213 -0.443106 21.907
-0.460397 -0.148037 21.7724
0.856335 -0.70781 21.5265
0.20983 -0.511326 21.6053
1.26434 -0.740607 20.9651
0.484373 -0.650892 21.2028
1.39688 -0.790783 19.16
0.389335 -0.621376 21.0926
1.96194 -1.22262 18.8072
-0.840227 0.660615 20.1119
-0.606962 0.679306 19.7286
-1.01349 0.661335 20.832
-1.05164 1.12075 20.3337
-0.678779 0.255829 21.504
-1.1466 0.914844 21.3005
-0.127732 -0.191278 21.5789
-0.456005 0.115201 21.7615
0.160518 -0.439997 21.3433
-0.042026 -0.38549 21.5525
0.230974 -0.394218 21.3545
0.179528 -0.575628 21.1083
0.0627958 -0.47578 21.8077
-1.02803 -1.87731 18.9722
-0.5666 -0.765698 19.0358
0.0147109 -0.901556 19.0324
-0.486243 -1.73162 22.3546
0.0256607 -4.31234 20.9125
0.0889499 -0.07872 20.7973
-0.004674 -0.321946 21.2875
0.235067 0.448547 19.7629
-0.022457 -0.0306917 19.4334
0.773621 1.57688 18.815
-0.0683737 1.13406 16.9502
1.26176 1.6835 18.8854
1.48903 1.95019 15.0875
-0.06622 1.86361 17.6614
1.56334 1.54579 16.0044
-0.0786987 2.40998 18.2848
-0.942918 -0.326985 18.3118
0.0360111 -0.842561 18.4195
2.11582 1.48616 12.4023
1.57084 -0.492762 6.15396
-0.00200018 0.849754 4.8794
2.38183 0.194734 12.3374
-0.0561338 2.30397 10.1277
-0.856551 0.957006 18.8439
0.105218 0.44903 17.2537
1.29876 -1.03407 8.16879
0.236762 -1.27981 17.6959
0.51115 1.78181 -3.82264
0.283784 -1.51092 17.3193
0.675889 2.7275 -2.89019
-0.752943 1.35828 19.7687
0.031603 1.11746 19.3566
-1.08709 1.68378 20.6636
0.0423724 2.11624 20.034
-0.871679 0.954444 21.897
-0.00562056 2.5828 21.3242
-0.228298 -0.141975 21.7921
-0.0474777 0.629791 22.1674
-0.0699309 -0.518985 21.5582
-0.0906852 -0.146829 21.6316
0.0930059 -0.836343 20.8298
-0.0733461 -0.445991 21.8959
-0.18741 -0.614045 21.6782
1.06344 -1.78762 19.0445
0.593429 -0.711527 19.1017
0.615624 -0.551629 19.5337
0.476499 -1.74796 22.2682
1.75094 -2.17006 20.2906
-0.123229 -0.118297 21.0501
0.164854 -0.685739 21.8242
-0.297101 0.415632 19.7864
-0.178452 -0.177362 21.6422
-0.853648 1.41703 18.6846
-1.01265 0.662234 21.3994
-1.35582 1.60499 18.8065
-1.62028 1.75574 14.8915
-1.35023 0.818777 21.1657
-1.61551 1.44361 15.7817
-1.0803 0.532822 21.0861
1.01133 -0.303481 18.431
0.793196 -0.454383 19.2829
-2.06819 1.34558 12.1849
-1.27124 -0.621023 5.54967
-1.93019 0.46669 18.1092
-2.24975 0.246825 11.5876
-1.79858 0.279597 18.67
0.888055 0.900949 18.9288
1.18577 0.143921 18.9877
-0.877275 -0.828126 5.95778
-0.00788662 -0.883676 15.3401
-1.11879 -0.888736 18.8163
-0.277345 -1.39209 15.2255
-1.82625 -1.43013 18.5029
0.78975 1.30722 19.7806
0.620491 0.645555 19.7609
1.0992 1.64685 20.6697
1.05164 1.0595 20.3342
0.844909 0.998939 21.8988
1.13961 0.920891 21.2918
0.190759 -0.0818094 21.7696
0.454276 0.148475 21.7616
0.056158 -0.350237 21.607
0.0482185 -0.312615 21.5065
-0.148859 -0.701762 20.7169
-0.183902 -0.506858 21.0882
-0.099803 -0.468571 22.1721
1.06132 -0.750931 19.8287
0.706479 -0.379736 19.688
1.06247 -1.05275 21.3818
1.96427 -1.30176 20.2858
0.130216 -0.424372 21.5859
0.530695 -0.76788 21.6306
-0.378478 -0.0492475 21.7521
-0.0484457 -0.32166 21.722
-0.975082 0.266709 21.4457
-0.887066 0.0422337 21.6726
-1.22425 0.317786 21.0646
-1.23184 0.163099 21.352
-1.07789 0.183676 21.1298
1.49011 -0.689338 19.5568
0.963886 -0.160195 19.4755
1.62809 -1.11424 21.5997
2.98144 -0.423935 20.2151
0.297997 -0.61894 21.7436
1.14245 -0.69725 21.6773
-0.412196 -0.246093 21.8722
0.176501 -0.43655 21.8642
-1.17003 -0.0726141 21.5201
-0.834844 -0.454058 21.5745
-1.58081 -0.0657066 20.8315
-1.28326 -0.46842 21.3263
-1.29983 -0.523199 20.4466
1.89283 0.200959 19.5524
0.873144 0.401116 19.6372
2.04146 -0.0776163 21.272
1.6498 0.77716 20.3557
0.849098 -0.40611 21.7955
1.39634 0.28931 21.3883
-0.0968923 -0.444836 21.8399
0.468144 -0.134108 21.7617
-0.699381 -0.710223 21.4968
-0.136163 -0.474585 21.5879
-1.18493 -0.766075 20.9445
-0.414298 -0.659059 21.252
-0.430542 -0.56039 21.4131
0.837599 0.62716 20.122
1.00437 0.650498 20.8234
0.680946 0.286309 21.4969
0.152142 -0.153571 21.5593
-0.104469 -0.365231 21.324
-0.194646 -0.427285 21.5401
-1.27789 -0.780708 19.6677
-1.36585 -2.0887 18.4232
-1.17193 -1.23282 19.4598
-1.95888 -1.24098 18.6854
-0.698663 -0.549191 19.3735
-2.73903 -2.96852 20.044
-1.31685 -1.12313 21.5243
-0.573646 -1.15031 18.576
-0.92005 -1.54345 21.852
-1.12188 -1.53402 19.6345
0.0659362 -0.731874 20.9753
-0.186414 -0.522285 21.6675
0.145094 0.145529 13.9941
0.0876442 -0.367391 21.6686
0.00107567 -0.390533 16.5632
0.189955 -0.171358 20.4961
0.422137 -0.100976 21.8567
0.112131 0.296756 12.6801
0.482591 0.228763 21.6268
0.467588 0.25624 17.102
1.31872 0.81637 19.3865
1.19256 0.21457 21.4486
0.951514 1.51958 13.1374
1.24806 0.888167 21.1833
1.74388 0.54605 17.3507
1.77714 0.885253 19.5302
1.4934 0.192184 20.8978
1.71485 1.62776 14.9597
1.45308 0.985239 21.0346
2.13236 0.489733 18.8643
1.39599 0.515009 19.7998
-1.90562 -0.270833 19.3993
-3.30186 -0.785325 15.8127
-2.77712 0.670743 18.4549
-1.07193 -0.231733 18.9172
-6.50992 -0.67075 19.2418
-1.99755 -0.629115 21.5228
-3.01591 -0.151361 21.767
-0.923295 -1.15913 18.3929
-0.605418 -0.567873 21.8542
-1.11438 -0.88019 21.0042
-0.00489392 -0.173508 17.249
0.317736 -0.363639 21.9038
0.360196 -0.303227 19.0086
1.34163 -0.0995947 14.3909
1.21778 -0.43212 21.4263
0.301288 -1.06372 2.65818
1.05671 -0.813956 18.322
1.86706 -0.277114 17.3577
1.35492 -0.379325 21.3185
2.30069 0.553339 8.73973
1.6919 -1.14509 18.9582
2.1168 -0.556445 18.4656
-1.37922 0.694603 19.8349
-1.62828 2.15596 18.8612
-0.876932 0.974076 19.9443
-0.974738 0.673651 19.2595
-2.10449 1.59538 20.1877
-1.61797 0.5453 20.9509
-2.49584 2.27323 20.4375
-1.16357 1.10176 20.7755
-2.21171 0.673505 21.5837
-0.93184 0.0375062 21.7079
-2.33775 0.684376 22.0131
-0.843531 0.524087 21.6898
-0.671362 -0.146907 22.0743
-0.0703478 -0.332586 21.7467
0.185139 -0.346793 18.1352
-0.192848 -0.182568 21.6778
0.128303 -0.738867 21.6465
0.376106 -0.612182 21.4836
0.186093 -0.847158 17.6651
0.0677772 -0.493856 21.3816
0.505286 -0.984576 21.4574
0.700143 -0.562296 21.0003
0.543736 -1.37755 16.8761
0.21192 -0.719906 21.6422
0.318159 -0.935731 21.7769
1.40067 -1.97865 18.5039
0.0306601 -2.46372 18.5912
0.052024 -3.40993 15.8266
0.0324993 -0.944156 18.7954
0.0258929 -6.20533 22.2218
0.506668 -1.27775 18.714
0.00730517 -1.78055 22.4008
-0.00954516 0.214795 11.0026
-0.17591 0.125968 14.1937
-0.0120552 -0.0640217 19.6299
-0.0302694 -0.0475048 11.3904
-0.18753 0.282052 12.6307
-0.0369219 0.348761 17.8031
-0.102571 0.788823 7.62921
-1.08932 1.26922 12.8798
-0.0892871 1.37465 17.0955
-0.24586 -0.00341116 2.32544
-0.165349 1.40964 10.5693
-1.72756 1.51287 14.72
-0.0548539 2.17015 17.5699
-0.00614087 1.80275 5.84395
-0.0657905 2.36197 14.4475
3.3069 -0.722896 16.1416
0.129264 3.70531 12.7606
0.0715139 -0.407404 17.6331
-0.207747 -1.50935 2.3313
0.226688 0.398619 -2.79587
0.598003 0.0769407 -1.53779
-2.12428 0.401453 7.77169
0.741248 2.68016 -4.39176
0.436717 2.98406 0.997723
1.66737 2.01995 18.9075
0.0412145 1.77577 19.589
0.0629931 1.32177 18.3245
0.0370412 4.01536 19.7743
2.49391 2.22648 20.4537
0.0194444 2.38476 20.4715
-0.00533146 5.5016 20.7492
2.28809 0.732242 21.6613
-0.033626 1.66219 22.1617
-0.0474357 0.504712 16.988
-0.320778 -0.236271 16.847
-0.0579639 0.0353733 21.8771
-0.553935 0.213184 6.36487
-0.131174 -0.479959 16.4734
-0.0897162 -0.257083 21.7736
-0.384379 -0.0378183 6.8082
-0.45832 -1.11586 14.8326
-0.100852 -0.642807 21.3024
-0.138952 -0.159161 8.31966
1.26137 -0.762648 19.6942
1.1663 -1.18536 19.4859
1.92967 -1.19712 18.7633
0.713888 -0.542584 19.4116
2.72221 -2.90392 20.048
1.31732 -1.11864 21.5142
0.946413 -1.53203 21.8138
1.16727 -1.45984 19.5097
-0.0337128 -0.761571 21.144
0.186426 -0.526668 21.6451
-0.0842527 -0.383699 21.6451
-0.0193077 -0.417518 16.601
-0.19861 -0.214272 20.6248
-0.410326 -0.13394 21.8208
-0.502119 0.178564 21.6115
-0.48855 0.16312 17.1939
-1.30177 0.667037 19.3304
-1.12537 0.118764 21.4445
-1.231 0.757724 21.2143
-1.62685 0.32532 17.3355
-1.73928 0.724281 19.5767
-1.45099 0.118873 21.0064
-1.50322 0.890554 21.0616
-2.10428 0.389834 18.7595
-1.41118 0.435163 19.7783
1.85835 -0.270344 19.4413
2.70168 0.604634 18.5629
1.05926 -0.221597 19.0158
6.54566 -0.688406 19.2119
2.00423 -0.639446 21.5283
3.02902 -0.148685 21.7687
0.895876 -1.1657 18.1483
0.605125 -0.578213 21.8396
1.1145 -0.885238 20.9453
0.00941143 -0.196838 17.2503
-0.283319 -0.387388 21.8505
-0.312034 -0.298867 18.8548
-1.18488 -0.258154 14.1667
-1.07246 -0.490917 21.4178
-0.754199 -0.825321 17.9044
-1.70181 -0.42622 17.0788
-1.32043 -0.386785 21.3755
-1.59081 -1.21733 18.3386
-2.05678 -0.699891 18.2807
1.34389 0.66224 19.8416
0.863907 0.922732 19.9692
0.961854 0.619149 19.3257
2.07942 1.5531 20.1982
1.60373 0.54234 20.9401
1.15876 1.08022 20.7752
2.20994 0.687037 21.5711
0.938762 0.0425703 21.6974
0.839363 0.558315 21.6892
0.686317 -0.123779 22.0635
0.0930657 -0.309293 21.704
0.188392 -0.136551 21.6701
-0.014487 -0.626677 21.5297
-0.276018 -0.563071 21.4882
-0.044334 -0.410143 21.3216
-0.345041 -0.844209 21.5052
-0.654902 -0.646066 20.9506
-0.173471 -0.659529 21.7475
-0.227591 -0.999676 21.6568
-1.48931 -1.30005 19.1188
-1.12337 -1.79977 22.2375
0.187578 -0.45149 20.6021
0.534804 0.252254 20.1249
1.56915 0.886821 19.519
1.79228 0.736389 19.9483
-2.75152 -0.424442 18.1818
-2.35593 -1.18278 21.0926
-0.327293 -0.627017 17.6448
0.412704 0.10976 16.5138
1.57865 -0.327875 16.0945
2.06848 -0.175235 18.1199
-1.63661 1.27623 19.4095
-2.19297 1.1202 20.873
-1.45357 0.167652 22.0814
-0.145522 -0.456819 21.9244
0.270053 -0.860045 21.4308
0.790118 -1.25198 21.056
0.0569891 -2.91115 17.6915
-0.025812 -0.998868 15.9231
-0.0209835 0.102707 10.9636
-0.0431061 0.209502 9.83885
-0.160632 0.883161 8.71227
-0.0279314 1.94297 11.7648
0.133949 -1.09768 12.5441
0.121003 -0.115193 0.0682449
0.438873 2.32556 -0.00766803
0.0651278 3.27623 18.2563
0.0156958 3.89618 19.6867
-0.0343317 2.59832 20.4722
-0.0998407 -0.251497 12.9495
-0.759273 -0.0379484 6.77211
-0.167761 -1.08168 8.06084
1.47088 -1.23671 19.171
1.19084 -1.81791 22.2468
-0.182025 -0.479534 20.685
-0.554505 0.180174 20.164
-1.52184 0.701937 19.4848
-1.80271 0.638927 19.9103
2.67695 -0.403135 18.3087
2.32818 -1.19517 20.9956
0.319163 -0.625105 17.5125
-0.382584 0.0485451 16.4492
-1.34357 -0.492214 15.8166
-2.01269 -0.266818 17.8255
1.62879 1.19481 19.4634
2.17173 1.11063 20.8687
1.47797 0.187456 22.0808
0.175132 -0.414695 21.8644
-0.111123 -0.711802 21.3651
-0.599392 -1.16671 21.4683
-3.62115 -1.81668 3.46722
-0.0134357 -0.0704768 0.415149
-0.0516839 -0.015383 0.291701
0.0120218 -0.0257127 0.0220209
0.00414515 0.0281001 0.0574866
0.0401841 0.0492795 0.303795
-0.365184 0.0819869 0.456546
-0.0219917 0.124224 0.318292
-0.347362 -0.0204057 1.07374
-0.00439534 -0.0186105 0.000273815
-0.0241055 -0.00589104 0.000150932
0 0 0
0.0142447 -0.0721799 0.429385
3.76362 -2.03122 3.65885
0 0 0
-0.0138631 0.0256662 0.0548036
-0.0158802 -0.0383373 0.0233829
-0.0456283 0.046425 0.291172
0.021671 0.12492 0.318554
0.352893 0.0773132 0.441532
0.349364 -0.0190159 1.08422
0.0162329 -0.00153951 -0.00633819
0.00635742 -0.0276028 -0.000600567
0 0 0
0.00626114 -0.00270857 0.0841625
0.00188494 0.000500331 0.0710166
-0.00100935 -0.00549864 0.0878625
0 0 0
-0.00519504 0.00648419 0.151647
-0.00106303 -0.000178505 0.0283931
4.09543e-05 0.000163044 0.00327982
0.000554928 -0.00145056 0.046305
0 0 0
-0.000681116 -0.000626371 0.0185933
0 0 0
-0.00852771 0.00876794 0.0240811
0 0 0
0.000737004 0.00444792 0.0261124
0 0 0
0.0187727 0.00108143 0.312124
-0.00596291 -0.00259945 0.0871551
0 0 0
-0.00199149 0.000477923 0.0719784
0.000755561 -0.00511512 0.0769509
0.00286615 0.0045401 0.111296
-0.00340749 -0.00492757 0.0789521
0.000910511 -0.000191787 0.0287691
-0.000116192 0.000515276 0.0129798
0 0 0
0.00826497 0.00856428 0.0235073
0.000640656 -0.00060413 0.0174159
0 0 0
0 0 0
-0.0217101 0.00196045 0.311394
-0.000670892 0.00406186 0.0241057
0 0 0
0 0 0
-0.957091 -0.137976 0.361996
-0.000682276 -0.103265 0.520399
-0.00602014 -0.945606 -0.335953
-0.00039118 -0.000174622 0.0237972
0 0 0
0.00123518 -0.000154854 0.00949912
0 0 0
-0.000396995 0.00334316 0.0233378
-7.76504e-05 -0.000409343 -2.96083e-06
0.00148764 0.00647107 0.0921876
0.000243237 0.00020698 0.0180869
0 0 0
-0.000116122 0.0219556 0.142185
-0.0157284 -0.031997 0.146925
-0.00786524 0.00154659 0.0149795
-0.0344601 -0.153964 0.00233661
-0.0152381 -0.0064959 0.0364556
0 0 0
0.000528792 -0.00303694 0.0309914
1.0053 -0.133994 0.360965
0 0 0
0 0 0
0.000512413 -0.000565178 0.0320466
0 0 0
-0.00112078 -0.000435328 0.00895574
-0.000393604 0.000178489 0.0161405
-0.00162011 0.00490064 0.0869637
0.00745716 0.00147712 0.0142762
0.015808 -0.0322504 0.148351
-0.00244091 -0.00271563 0.0292992
0 0 0
-0.000216106 0.00696542 0.11578
0.000668702 0.000188083 0.0255265
0 0 0
-0.000254795 0.000874966 0.011821
-3.20131e-07 2.69383e-05 0.00322173
-3.02427e-06 4.24643e-06 0.000290538
0.000149229 0.00220008 0.015726
0 0 0
-1.04855e-05 8.64843e-06 0.00148307
-1.16979e-05 1.48731e-05 0.00161536
0.003027 0.00989996 0.0757829
-0.0213993 0.022464 0.309297
0.00303543 0.0394329 0.0789131
-0.000140834 0.041507 0.158422
-7.69511e-06 3.22525e-05 0.00168627
-0.00051907 -0.00151855 0.0310968
-0.000979281 0.000269348 0.030744
0.000131066 0.00648109 0.117463
0 0 0
0.000258471 0.000864217 0.012027
-0.000135348 0.00196496 0.0143615
0 0 0
0.0202313 0.0226039 0.308803
-1.82757e-05 6.20253e-05 0.000473407
-0.00807106 -0.00603258 0.0679683
-0.221097 -0.0293285 0.730586
0 0 0
-0.00314034 -0.00580269 0.0421519
-0.00976794 0.00322562 0.267237
-0.00011927 0.00337128 0.0357601
-0.000139231 0.00549092 0.0736633
0.00122274 0.00667398 0.0424288
0 0 0
0 0 0
0.0120906 0.00497322 0.102651
0.00542511 -0.00264557 0.0443563
-0.0310924 -0.0817561 0.355866
0.0306583 -0.0830526 0.36046
0 0 0
0 0 0
0.0015891 4.8138e-05 0.0328761