# vtk DataFile Version 2.0
tri_press
ASCII
DATASET UNSTRUCTURED_GRID
POINTS 3682 float
-0.612443 0.245 -2.255
-0.69487 0.315 2.205
-0.720611 0.765 -2.055
-0.605 1.005 2.23362
0.613014 0.245 -2.255
0.69486 0.315 2.205
0.720596 0.765 -2.055
0.605 1.005 2.23359
-0.7202 0.188052 -0.768334
-0.758616 0.200445 0.718333
-0.781341 0.944267 -0.62546
-0.744481 1.02594 0.80408
0.720558 0.188071 -0.768334
0.758795 0.20045 0.718333
0.781333 0.944269 -0.62547
0.744476 1.02594 0.80406
-1.33551 -0.165159 -3.48899
-1.34792 -0.124 -2.32254
-1.42493 -0.161605 -0.834398
-1.45662 -0.167113 0.665246
-1.41704 -0.0912755 2.15436
-1.40735 -0.0388388 3.32555
-1.41693 0.000482406 4.48797
-1.33951 0.16212 -3.40953
-1.35316 0.22907 -2.24932
-1.44507 0.212274 -0.772294
-1.46118 0.212831 0.709878
-1.38708 0.281408 2.188
-1.38938 0.331905 3.35839
-1.41011 0.371159 4.52267
-1.38729 0.767495 -3.23458
-1.431 0.832253 -2.072
-1.49446 0.953062 -0.633919
-1.45556 1.00841 0.80012
-1.33727 1.01276 2.2393
-1.36534 1.06011 3.41204
-1.40607 1.10734 4.58553
-1.434 1.80196 -3.0151
-1.45937 1.88589 -1.86108
-1.48528 2.02729 -0.44152
-1.48047 2.13155 0.965727
-1.45213 2.17333 2.38588
-1.44257 2.19946 3.54114
-1.45028 2.23369 4.70839
-0.633335 -0.15728 -3.49268
-0.630289 -0.112435 -2.32792
-0.698425 -0.173471 -0.83368
-0.739812 -0.17614 0.672464
-0.718134 -0.0746255 2.16698
-0.713375 -0.0273202 3.33411
-0.721624 0.00595743 4.49292
-0.631514 0.162326 -3.41067
-0.705707 0.343925 3.36545
-0.720081 0.376247 4.5264
-0.66952 0.740386 -3.22751
-0.685545 1.06035 3.4109
-0.720527 1.10835 4.58528
-0.709184 1.78313 -3.00811
-0.728185 1.86796 -1.85339
-0.75317 2.02347 -0.436886
-0.763142 2.13714 0.965163
-0.753219 2.17571 2.3819
-0.748353 2.19944 3.53717
-0.755053 2.23343 4.7055
0.708114 -0.157277 -3.49268
0.681709 -0.112431 -2.32792
0.733316 -0.173458 -0.833681
0.744512 -0.176134 0.672462
0.699851 -0.0746236 2.16698
0.678503 -0.0273183 3.33411
0.669187 0.00596001 4.49291
0.702138 0.162328 -3.41067
0.66076 0.343926 3.36544
0.65743 0.376249 4.52639
0.730815 0.740387 -3.22752
0.628137 1.06035 3.41088
0.639374 1.10836 4.58526
0.735801 1.78313 -3.00812
0.734404 1.86796 -1.85339
0.722973 2.02347 -0.436896
0.685331 2.13714 0.965149
0.644559 2.17571 2.38188
0.633663 2.19944 3.53715
0.630891 2.23344 4.70548
1.39653 -0.165151 -3.489
1.37783 -0.123989 -2.32255
1.44456 -0.161586 -0.834405
1.46895 -0.167101 0.665236
1.41765 -0.0912701 2.15435
1.38612 -0.0388339 3.32554
1.3731 0.000487655 4.48795
1.38805 0.162126 -3.40954
1.35129 0.229077 -2.24933
1.44254 0.212294 -0.772302
1.47141 0.212841 0.709865
1.39847 0.281412 2.18799
1.36507 0.331909 3.35837
1.35815 0.371164 4.52264
1.42451 0.767499 -3.23458
1.42223 0.832256 -2.07201
1.48479 0.953071 -0.633936
1.45783 1.00842 0.800091
1.3399 1.01277 2.23926
1.32614 1.06012 3.41201
1.33494 1.10735 4.5855
1.4534 1.80197 -3.01511
1.45725 1.8859 -1.86109
1.45261 2.0273 -0.44154
1.41222 2.13156 0.965699
1.358 2.17333 2.38585
1.33721 2.19946 3.54111
1.33165 2.2337 4.70836
-0.706302 0.505 -2.19477
0.000285506 0.204017 -2.29598
-0.696715 0.186132 -1.51167
-0.70001 0.66 2.26939
-5.00679e-06 0.313578 2.20642
-0.735768 0.248697 1.46167
-7.48038e-06 0.868358 -2.15836
-0.783727 0.887385 -1.34023
0 1.04555 2.27416
-0.704446 1.04518 1.51885
0.706699 0.505 -2.19489
0.696874 0.186448 -1.51167
0.69932 0.66 2.26868
0.735753 0.248799 1.46167
0.783705 0.887375 -1.34024
0.704443 1.04518 1.51882
-0.743571 0.190086 -0.0250001
-0.888907 0.56616 -0.696897
0.000179122 0.144378 -0.768334
-0.896592 0.613195 0.761207
8.93548e-05 0.175214 0.718333
-0.76748 0.989675 0.0893099
-4.28096e-06 1.27679 -0.625465
-2.49346e-06 1.40007 0.80407
0.743836 0.190101 -0.0250001
0.888901 0.56617 -0.696902
0.896576 0.613197 0.761197
0.767483 0.989685 0.0892949
-0.879741 0.53558 -1.42595
0.879739 0.535585 -1.42595
0.000232314 0.179784 -1.51167
-5.88067e-06 0.97735 -1.34023
0.000139013 0.505 -2.45371
-0.89768 0.589677 0.0321549
0.897672 0.589683 0.0321474
0.000134239 0.156692 -0.0250001
-3.38721e-06 1.41111 0.0893024
-0.884059 0.636597 1.49026
0.884083 0.636599 1.49025
4.2174e-05 0.232524 1.46167
-1.24673e-06 1.2278 1.51884
-2.5034e-06 0.66 2.45255
-0.65677 0.375 -2.22229
-0.306079 0.207326 -2.29267
-0.68711 0.183035 -1.88333
-0.704084 0.4875 2.24384
-0.347438 0.313618 2.20638
-0.732239 0.264928 1.83333
-0.725397 0.635 -2.13683
-0.360309 0.853504 -2.1435
-0.772989 0.847013 -1.69762
-0.663784 0.8325 2.26278
-0.3025 1.03671 2.26533
-0.652183 1.02255 1.87623
0.30665 0.207343 -2.29266
0.657268 0.375 -2.22236
0.687624 0.183044 -1.88333
0.347427 0.313618 2.20638
0.704058 0.4875 2.24381
0.733056 0.26415 1.83333
0.360294 0.853502 -2.1435
0.725416 0.635 -2.13672
0.772989 0.847026 -1.69762
0.3025 1.03672 2.26532
0.663784 0.8325 2.26276
0.652187 1.02255 1.87621
-0.711921 0.183628 -1.14
-0.730978 0.189977 -0.396667
-0.868147 0.345309 -0.732615
-0.359273 0.167689 -0.768334
-0.782579 0.189185 1.09
-0.7489 0.197459 0.346667
-0.852321 0.394461 0.73977
-0.39084 0.164675 0.718333
-0.78661 0.919902 -0.982845
-0.865976 0.77064 -0.661179
-0.775565 0.968125 -0.268075
-0.459519 1.24822 -0.625463
-0.732137 1.04323 1.16147
-0.856165 0.837384 0.782643
-0.756822 1.00865 0.446695
-0.452956 1.37443 0.804075
0.712204 0.183771 -1.14
0.359632 0.167698 -0.768334
0.73129 0.189993 -0.396667
0.868063 0.345454 -0.732618
0.782735 0.189163 1.09
0.391012 0.164692 0.718333
0.749122 0.197469 0.346667
0.852318 0.394507 0.739765
0.786695 0.919998 -0.982853
0.459507 1.24822 -0.625468
0.865979 0.77065 -0.661186
0.775577 0.968146 -0.268088
0.732129 1.04323 1.16144
0.45295 1.37443 0.804065
0.856181 0.837398 0.782628
0.756821 1.00866 0.446677
-0.864882 0.52029 -1.81036
-0.353081 0.505 -2.40417
0.00025891 0.185741 -1.90383
0.00021226 0.354508 -2.4599
-0.871924 0.360856 -1.46881
-0.348241 0.183703 -1.51167
-0.821768 0.648299 1.87982
-0.350006 0.66 2.42086
1.85836e-05 0.268712 1.83404
-3.75509e-06 0.486789 2.44176
-0.870637 0.442647 1.47596
-0.367863 0.187991 1.46167
-6.68053e-06 0.935399 -1.7493
6.57663e-05 0.686679 -2.41352
-0.890785 0.711482 -1.38309
-0.391866 0.971299 -1.34023
-6.23365e-07 1.08331 1.8965
-1.2517e-06 0.852776 2.35524
-0.831818 0.840887 1.50455
-0.352224 1.19827 1.51884
0.864868 0.520292 -1.81042
0.353419 0.505 -2.40432
0.871872 0.361016 -1.46881
0.348553 0.183693 -1.51167
0.821841 0.648299 1.87947
0.349659 0.66 2.42087
0.870637 0.442699 1.47596
0.367898 0.187991 1.46167
0.890787 0.71148 -1.38309
0.391849 0.971284 -1.34023
0.831807 0.840888 1.50454
0.352221 1.1983 1.51883
-0.855147 0.372621 0.00357741
-0.376333 0.164159 -0.0250001
-0.885595 0.55087 -1.06142
-0.893589 0.577918 -0.332371
0.000205718 0.141684 -1.14
0.00015668 0.144483 -0.396667
-0.898228 0.601436 0.396681
-0.895488 0.624896 1.12573
0.000111797 0.166379 0.346667
6.57644e-05 0.200264 1.09
-0.871652 0.809212 0.0607324
-0.479587 1.39208 0.0893062
-5.08082e-06 1.09758 -0.982849
-3.83409e-06 1.38171 -0.268081
-2.94034e-06 1.41656 0.446686
-1.8701e-06 1.34317 1.16145
0.855115 0.372711 0.00357366
0.376585 0.164196 -0.0250001
0.885595 0.550877 -1.06143
0.893574 0.577927 -0.332377
0.898216 0.60144 0.396672
0.89549 0.624898 1.12572
0.871637 0.809214 0.0607212
0.479583 1.39208 0.0892987
-0.855282 0.367928 -1.84685
-0.88702 0.368981 -1.10071
-0.865092 0.733348 -1.02213
-0.877306 0.673241 -1.75399
0.855627 0.368008 -1.84688
0.877319 0.67324 -1.75402
0.865088 0.733349 -1.02214
0.887019 0.369068 -1.10071
-0.32716 0.187284 -1.89358
0.327601 0.187275 -1.89358
0.354461 0.169262 -1.14
-0.354126 0.169265 -1.14
-0.376088 0.926972 -1.72346
-0.39127 1.07435 -0.982847
0.391257 1.0743 -0.982851
0.376072 0.926968 -1.72346
-0.32958 0.364754 -2.40221
-0.356695 0.66084 -2.33877
0.356857 0.66084 -2.33948
0.330034 0.364754 -2.40517
-0.860411 0.359583 -0.364519
-0.852379 0.384219 0.371674
-0.864482 0.823585 0.421688
-0.869263 0.79015 -0.300223
0.860343 0.359706 -0.364522
0.86926 0.790158 -0.300232
0.864483 0.823593 0.421675
0.852361 0.384287 0.371669
-0.366288 0.168954 -0.396667
0.366597 0.16897 -0.396667
0.388368 0.155305 0.346667
-0.388145 0.155301 0.346667
-0.488034 1.35711 -0.268078
-0.471183 1.39308 0.446691
0.471179 1.39308 0.446682
0.48802 1.3571 -0.268085
-0.876698 0.424734 1.10787
-0.816245 0.465074 1.85658
-0.792775 0.836694 1.87803
-0.851209 0.830228 1.1436
0.876692 0.424761 1.10786
0.851366 0.830229 1.14358
0.792709 0.836694 1.87784
0.816309 0.465099 1.8564
-0.373563 0.17308 1.09
0.37367 0.173088 1.09
0.357663 0.272516 1.83369
-0.35765 0.272519 1.83369
-0.362233 1.3227 1.16146
-0.327362 1.0756 1.88637
0.32736 1.07563 1.88635
0.362229 1.32272 1.16145
-0.348722 0.487144 2.41264
0.348543 0.487144 2.41269
0.326079 0.842638 2.38185
-0.326253 0.842638 2.38184
-0.628496 0.31 -2.23253
-0.459261 0.21989 -2.28011
-0.669317 0.194477 -2.06917
-0.713977 0.40125 2.23892
-0.521154 0.305371 2.21463
-0.712578 0.290941 2.01917
-0.727285 0.7 -2.10019
-0.54046 0.817094 -2.10709
-0.760286 0.819492 -1.87631
-0.640382 0.91875 2.25419
-0.45375 1.02595 2.25456
-0.630889 1.01607 2.05493
0.459832 0.219519 -2.28048
0.628161 0.31 -2.2317
0.669892 0.194449 -2.06917
0.521144 0.305539 2.21446
0.713962 0.40125 2.23891
0.712494 0.291039 2.01917
0.540445 0.817066 -2.10707
0.727332 0.7 -2.10018
0.760349 0.819569 -1.87631
0.45375 1.02596 2.25456
0.64031 0.91875 2.25409
0.630887 1.01607 2.0549
-0.714515 0.187386 -0.954167
-0.725099 0.189504 -0.5825
-0.860429 0.233552 -0.750474
-0.539543 0.178258 -0.768334
-0.776543 0.188869 0.904167
-0.753003 0.199707 0.5325
-0.86494 0.267718 0.729052
-0.570798 0.190421 0.718333
-0.784124 0.932233 -0.804153
-0.842515 0.866881 -0.643319
-0.77865 0.956393 -0.446768
-0.663665 1.18271 -0.625461
-0.738811 1.03509 0.982773
-0.824822 0.943913 0.793362
-0.751297 1.01794 0.625388
-0.637156 1.27706 0.804078
0.714889 0.187413 -0.954167
0.539901 0.178273 -0.768334
0.725421 0.189535 -0.5825
0.860492 0.233672 -0.750476
0.776172 0.1894 0.904167
0.570974 0.19043 0.718333
0.753183 0.199735 0.5325
0.864938 0.267788 0.729049
0.784136 0.932255 -0.804161
0.663666 1.18273 -0.625469
[...]
POINT_DATA 3682
SCALARS point_scalars float 1
LOOKUP_TABLE default
-42.2545
-39.7535
-46.5544
-33.936
-34.6957
-37.1711
-46.9562
-31.7317
-40.4094
-38.0029
-58.8279
-49.2655
-40.3386
-37.8073
-58.6791
-49.0056
31.7034
-103.107
-40.5157
-38.8604
-40.9225
-35.3227
-32.3644
94.8225
-85.855
-40.664
-38.1375
-40.3118
-31.8642
-30.8688
57.4962
-75.2458
-48.8083
-45.0517
-38.7134
-32.6473
-30.6311
-24.5443
-49.1295
-87.0478
-55.6708
-35.4572
-33.6288
-31.5819
60.4052
-146.221
-41.005
-38.3318
-38.1153
-31.5286
-30.1964
60.4052
-30.5851
-29.8694
150.34
-30.2598
-29.81
-61.2571
-34.7794
-83.501
-60.7586
-33.2149
-30.5805
-29.8611
59.337
-155.472
-40.9874
-38.1183
-36.0988
-29.0303
-26.3546
59.337
-27.9765
-26.0107
149.956
-27.5255
-25.2013
-63.2283
-35.2616
-83.0734
-60.2497
-30.3232
-28.5944
-27.7993
-30.4579
-84.5476
-40.4304
-38.6158
-38.974
-32.584
-29.7774
94.5674
-85.6296
-40.5555
-37.8574
-38.2153
-29.4958
-28.6431
55.6844
-74.8586
-48.7887
-44.7444
-36.536
-29.6272
-28.1172
-24.367
-49.0599
-86.6234
-55.4654
-33.1653
-31.176
-28.9646
11.4576
-93.8606
-52.0266
-34.0012
-33.2056
-43.8486
-58.7602
-39.9662
-30.2185
-45.5429
11.3765
-51.8084
-31.3547
-43.1519
-39.8721
-45.0034
-37.9127
-42.3409
-41.6222
-41.5388
-42.1329
-53.6987
-30.6064
-63.2051
-37.7773
-42.2249
-41.2118
-53.5004
-54.4305
-54.3475
-52.0374
-0.458634
201.827
-42.0223
-41.8536
-41.1489
-80.9015
-44.9808
-44.0645
-42.6378
-40.8165
-24.5932
40.5101
-142.287
-84.5527
-35.699
-35.4822
-42.7872
-6.53384
-57.5791
-49.9494
-33.5878
-30.5873
-37.6619
-142.392
39.6664
-84.5529
-33.4387
-33.0437
-41.6683
-57.6336
-5.22062
-49.8789
-29.5276
-30.9663
-36.8863
-43.9505
-37.9459
-40.7091
-40.8913
-42.5823
-37.7914
-38.5815
-40.8058
-49.7322
-47.5043
-56.4783
-32.2519
-49.0117
-44.7696
-50.7922
-61.4776
-43.852
-40.8436
-37.8616
-40.6034
-42.3013
-40.683
-37.647
-38.2705
-49.6603
-32.2313
-47.3799
-56.2597
-48.6558
-61.3495
-44.4647
-50.5772
-90.1049
174.135
-78.0671
128.292
-53.9015
-51.3932
-42.5285
-29.8475
-38.9471
-26.9152
-43.061
-43.973
-27.4573
160.984
-53.2434
-7.2151
-34.8216
-25.1222
-47.0745
-41.4739
-89.6615
174.464
-53.9101
-51.1703
-40.8247
-25.7967
-42.1811
-43.5897
-53.1521
-7.22568
-46.2363
-41.3127
-39.4328
-37.6312
-46.2238
-42.1487
-46.2797
-39.0405
-41.3906
-42.3554
-39.5508
-43.008
-47.252
-73.8153
21.8427
-86.7655
-71.0817
-51.9108
-39.2747
-37.5161
-46.1488
-42.0125
-41.1692
-41.8701
-47.0805
-73.696
-96.3881
-46.3115
-45.1372
-78.0368
-96.122
-77.7815
-45.0413
-46.027
-75.7456
-75.6827
-44.604
-44.4768
-29.7937
15.3423
15.312
-29.7723
144.535
143.407
141.995
145.131
-39.825
-39.2036
-45.5682
-47.4341
-39.6945
-47.2854
-45.3563
-38.991
-38.1205
-38.0564
-39.9716
-40.0554
-82.1525
-65.8663
-65.755
-81.9717
-42.7108
-44.7182
-40.9544
-44.4135
-42.2222
-43.958
-39.4587
-42.9989
-42.4604
-42.2965
-39.2904
-40.0271
-52.2301
-35.3149
-35.0033
-52.1058
-30.4241
-27.509
-25.779
-29.5558
40.4371
-117.454
-109.405
-37.9092
-36.5882
-39.4416
-13.57
-53.4787
-60.6181
-34.1783
-31.5209
-35.2091
-108.863
34.8607
-109.636
-34.2607
-35.1587
-37.6588
-53.357
-14.6401
-60.5727
-29.8788
-31.6616
-33.9953
-43.352
-39.0367
-40.4818
-40.4214
-44.8168
-38.0249
-38.0583
-39.5998
-59.3414
-52.3983
-57.8726
-77.9516
-49.2115
-47.2864
-49.6031
-55.7305
-43.234
-40.3493
-38.9759
-40.3839
-44.3143
-39.4346
-37.8558
-37.7608
-59.1982
-77.8452
-52.2647
-57.7388
-48.9178
-55.5136
-47.0257
-49.3773
22.1309
3.98051
-84.0713
121.632
-167.197
-167.171
-106.284
-85.2711
-64.0825
-46.3929
-52.8636
-51.5837
-34.7119
-33.9123
-39.2633
-30.623
-33.9639
-32.8901
-36.1369
-28.3365
-40.536
-40.5694
-41.6386
-43.6652
-59.4008
-59.4686
-42.3527
65.8286
-43.8669
-36.9278
-52.6587
-18.7162
-30.2985
-29.9286
-32.5018
-27.3454
-41.4261
-47.8331
-45.7316
-43.0531
22.1799
5.69283
-84.1402
121.493
-64.0498
-46.3937
-52.9724
-51.4059
-32.0931
-31.2319
-36.9727
-28.3183
-39.6023
-40.0371
-40.8316
-43.09
-43.8081
-36.8312
-52.5379
-18.6694
-40.8706
-47.3995
-45.0599
-42.8342
-37.5551
-37.7551
-38.0089
-37.6751
-41.3434
-44.4001
-42.998
-42.0972
-41.3135
-41.3385
-43.6241
-39.939
-39.7135
-43.2419
-41.3113
-43.4225
-42.015
-41.9852
-40.3658
-42.0823
-54.4614
-52.2477
-51.3632
-61.5558
-30.9771
-30.963
5.55255
-73.9194
-62.7692
-62.6997
-67.3816
-58.0299
-37.4622
-37.6536
-37.8425
-37.6117
-41.2329
-44.2809
-42.8841
-41.9726
-39.3944
-42.9171
-41.0455
-42.9986
-54.2907
-52.0349
-51.1514
-61.3764
-66.238
-54.4147
-53.5681
-48.2652
-66.1699
-54.3242
-53.479
-48.1796
-62.8971
-52.1054
-52.1504
-51.1613
-13.4803
-2.34666
-2.28845
12.3187
193.749
200.167
186.579
192.877
-40.276
-42.0056
-41.7161
-44.3808
-40.113
-41.8516
-41.5253
-44.2063
-40.2879
-39.7826
-38.8456
-40.2677
-79.7821
-87.5461
-75.1177
-79.7313
-48.3129
-43.9504
-47.0845
-43.3976
-46.9397
-43.0355
-46.1943
-42.7135
-41.2699
-43.1373
-42.9808
-43.2488
-37.2234
-41.0057
-40.9311
-45.6192
-27.7764
-24.5662
-25.3673
-23.3964
-81.2439
100.626
-98.667
91.0013
-94.1022
-78.2556
-40.1261
-31.3197
-37.1473
-31.5878
-45.4806
-40.8211
-79.3544
61.7284
-43.7331
53.1802
-62.5137
-37.2908
-38.8194
-30.5949
-32.9146
-29.8377
-39.7693
-35.9598
-99.1524
89.9253
-81.2376
101.404
-93.9025
-78.1019
-36.0252
-28.904
-37.8878
-29.0248
-43.8894
-39.7786
-43.7405
53.8133
-78.7067
61.5393
-62.3835
-37.2705
-32.3805
-27.5134
-36.6952
-28.1662
-38.5356
-35.4691
-42.72
-44.6968
-38.8666
-37.7972
-44.7604
-40.2273
-44.4203
-39.1866
-41.7618
-43.3417
-37.4134
-38.543
-39.0969
-46.226
-39.8927
-41.7438
-49.0562
-1.87913
-46.3892
-47.6052
-51.7238
-70.2256
-0.831798
-71.6574
-47.0551
-53.3891
-44.9628
-44.9697
-48.7028
-56.4839
-63.6921
-57.4137
-42.451
-44.5946
-44.1295
-39.1554
-38.7483
-37.7155
-44.6549
-40.1095
-41.3057
-43.031
-39.8015
-41.5614
-37.2249
-38.4212
-38.8435
-45.8018
-48.9702
-1.85313
-0.808229
-71.4994
-46.2705
-47.4685
-51.555
-70.0428
-46.664
-53.2021
-63.5728
-57.2882
-44.7122
-44.5865
-48.5143
-56.2939
-92.8381
-85.6628
162.07
168.594
-76.3991
-76.4141
143.773
144.626
-67.2756
-46.1318
-61.365
-48.1517
-43.6126
-41.5641
-30.048
-29.6225
-39.1676
-39.6418
-28.9943
-26.162
-41.9976
-45.6846
-43.2805
-43.0292
-27.5933
-27.5731
161.413
168.463
-48.1295
-64.7306
-17.9741
4.02435
-35.0036
-34.8716
-24.1395
-27.3938
-44.2194
-46.2403
-46.4854
-37.8615
-92.5712
-85.3456
168.975
163.292
-67.1838
-46.216
-61.2868
-48.5887
-39.927
-41.9008
-26.276
-25.5149
-41.3452
-44.4041
-43.0177
-42.4689
-64.6515
-48.0306
3.97499
-17.96
-45.6599
-43.097
-37.6509
-46.3483
-39.6293
-39.3108
-37.592
-38.4118
-46.9688
-44.4343
-40.6147
-44.3725
-45.1336
-45.0288
-38.6691
-38.6517
-39.8827
-43.5521
-42.9152
-42.7292
-39.7355
-39.766
-42.126
-42.3364
-46.5042
-46.9621
-79.2086
-69.0625
20.0758
20.129
-86.1595
-86.0884
-70.0023
-69.9446
-52.1417
-52.0781
-39.4894
-39.1311
-37.5517
-38.4198
-44.3535
-46.8817
-40.4828
-44.2301
-43.3322
-39.6651
-42.3937
-42.2609
-46.7906
-46.3118
-68.9554
-79.1038
-88.0816
-67.7799
-66.6666
-86.3755
-45.8889
-43.5655
-47.9789
-44.4724
-52.6981
-47.2162
-48.7924
-43.8875
-71.8375
-78.8196
-65.4237
-61.2595
-89.0296
-85.7875
-66.6052
-67.5949
-71.6872
-61.1926
-65.3448
-78.4169
-52.5811
-43.7719
-48.7021
-47.1283
-45.7894
-44.4984
-47.9447
-43.4465
-102.819
-101.728
-62.1009
-61.97
-103.293
-61.8764
-62.0945
-101.796
-43.4753
-43.8941
-50.0133
-48.0829
-43.6109
-48.0716
-50.1926
-44.079
-49.1403
-26.7236
-14.2214
-42.3634
-58.2585
5.17927
10.6018
-8.70147
-58.176
-8.62761
10.5756
5.16587
-49.1621
-42.3601
-14.2181
-26.6862
75.4048
116.756
197.018
55.861
18.0497
91.0065
179.315
102.398
17.5585
102.028
178.886
91.0928
78.3861
56.1641
196.897
116.717
-39.6177
-38.8781
-40.4612
-40.857
-37.9916
-39.7514
-40.0701
-37.6991
-47.7892
-49.8269
-44.0882
-43.1978
-52.2191
-44.3919
-44.1158
-50.3451
-39.5217
-40.7385
-40.3166
-38.7334
-52.0701
-50.1659
-43.957
-44.2627
-47.5947
-42.9361
-43.8957
-49.6482
-37.7644
-37.4944
-39.8852
-39.49
-38.8301
-39.7544
-38.5671
-37.3626
-38.7837
-37.2988
-38.5493
-39.7145
-39.2006
-40.3161
-39.1832
-37.7902
-39.333
-37.8803
-39.1898
-40.3586
-78.5187
-64.8381
-86.2394
-73.4072
-55.3513
-66.6572
-74.0424
-58.7285
-55.1516
-58.5431
-73.9889
-66.5966
-78.2278
-73.3079
-86.1919
-64.68
-52.0016
-41.0351
-42.5636
-44.0263
-40.4232
-39.6795
-47.0533
-43.7571
-37.9214
-43.2372
-46.1503
-38.9993
-47.8582
-43.3685
-44.2014
-47.2514
-51.5121
-43.6153
-41.8897
-40.4338
-47.6782
-46.7579
-43.5614
-42.9698
-36.0291
-36.763
-44.8829
-42.315
-38.3525
-42.5657
-45.7055
-37.4357
-42.1246
-41.9824
-43.3446
-43.847
-41.8247
-43.3972
-43.2028
-41.8357
-36.9122
-35.8631
-41.5477
-41.2947
-38.4472
-42.0586
-41.7939
-36.5257
-55.418
-47.9742
-45.736
-57.9375
-33.5297
-32.673
-37.4781
-39.0207
-32.6858
-38.682
-37.3898
-32.4409
-55.1768
-57.8754
-45.6686
-47.7632
-32.6453
-29.835
-28.0665
-30.776
-30.0129
-28.5215
-23.3664
-27.6163
-28.4681
-26.9773
-24.2627
-28.2141
-30.8039
-30.6417
-27.7098
-28.776
25.8288
-74.5857
-124.1
-39.3944
-37.9378
-38.3164
-26.1296
-42.1948
-61.9603
-34.4731
-32.4602
-34.132
-77.2763
20.1539
-124.667
-35.4893
-36.6519
-36.2996
-42.3734
-27.008
-61.8082
-30.5614
-31.9621
-32.5817
-41.4872
-39.7441
-39.3491
-40.3241
-37.9759
-37.8468
-38.0366
-38.9195
-59.2791
-55.3742
-58.453
-69.8879
-49.0933
-49.1394
-49.3374
-51.4695
-41.4038
-40.2528
-39.6918
-39.2421
-37.8184
-38.744
-37.6611
-37.7808
-59.1361
-69.7351
-55.2329
-58.3033
-48.8166
-51.2223
-48.8783
-49.0971
16.2897
5.42985
-55.92
72.4998
-167.864
-167.669
-133.22
-87.8136
-57.1824
-48.8996
-52.446
-51.4274
-34.2254
-33.9699
-37.8797
-31.4521
-33.5532
-32.9946
-34.7229
-29.9268
-39.8833
-48.1828
-41.8233
-44.4245
-59.3104
-59.3221
-51.2344
-98.4763
-41.4015
-37.5768
-47.4155
-27.8675
-30.2836
-30.1042
-31.3079
-28.8713
-43.8276
-47.0044
-45.4846
-44.7239
15.9555
8.48658
-56.9575
72.3931
-56.9269
-48.8329
-52.4815
-51.2694
-31.6087
-31.3058
-35.266
-29.0927
-39.1351
-47.5205
-41.0833
-43.7691
-41.326
-37.4948
-47.3033
-27.8088
-43.3142
-46.5526
-44.9327
-44.3836
-37.3882
-38.6483
-38.1031
-37.7989
-41.8503
-43.1568
-42.4757
-42.2036
-41.6035
-41.5985
-42.7307
-40.7439
-40.4561
-42.6137
-41.3078
-42.1864
-42.0314
-42.0063
-41.0814
-42.2044
-54.4774
-52.8249
-53.1486
-57.2669
-30.8386
-30.8025
-10.759
-54.2244
-63.1423
-63.1068
-65.3224
-60.8335
-37.2879
-38.5783
-37.9778
-37.7087
-41.737
-43.0395
-42.3625
-42.0844
-40.1315
-42.2858
-41.0145
-41.8188
-54.2823
-52.6341
-53.0699
-57.0815
-58.622
-54.4843
-54.143
-50.9986
-58.5448
-54.3979
-54.0568
-50.9162
-57.3726
-52.513
-52.5328
-50.0086
-7.26049
-0.637572
-0.636784
6.21545
198.269
206.329
191.378
197.731
-40.9994
-41.8972
-41.8847
-43.156
-40.8336
-41.7374
-41.7045
-42.9831
-41.0358
-40.2476
-39.9481
-41.025
-80.6483
-84.1744
-77.6967
-80.6245
-46.6276
-44.3573
-45.4771
-44.0909
-45.5012
-43.4386
-44.5981
-43.3047
-42.0042
-42.7542
-42.6608
-42.9665
-38.8852
-40.8719
-40.8307
-43.0461
-26.3337
-24.0586
-25.405
-23.44
46.3543
33.5408
-47.0531
95.8465
-132.084
-152.339
-114.896
-133.083
-98.4364
-73.5874
-89.8835
-80.4403
-36.5098
-35.0538
-39.0305
-32.5467
-37.0682
-34.4228
-36.1545
-32.7034
-40.7973
-42.4388
-44.819
-41.3399
-8.89483
-1.12796
-66.2037
37.5358
-57.5219
-59.3834
-52.304
-47.9519
-58.1966
-45.9172
-54.3718
-43.0771
-33.5261
-33.7957
-38.4566
-31.4037
-30.8954
-30.368
-31.6901
-29.9341
-36.2235
-39.2568
-38.9821
-36.6013
-131.519
-152.246
-114.922
-133.157
42.7094
33.253
-47.7144
95.3768
-98.3099
-73.726
-89.6032
-80.3833
-34.6731
-32.9099
-34.6871
-30.2606
-33.7913
-32.3965
-36.4905
-30.0922
-39.2878
-41.2599
-43.3411
-40.1619
-57.4439
-59.4911
-52.3053
-49.5531
-9.06169
0.692133
-66.4238
37.499
-58.1657
-45.8606
-54.9607
-43.0417
-29.5957
-29.7064
-30.9671
-28.4253
-30.8661
-31.1266
-35.888
-28.996
-35.2664
-38.6233
-37.9892
-36.024
-45.3965
-44.3371
-41.0636
-44.5134
-38.2932
-37.6005
-38.4033
-37.7905
-40.4687
-41.0726
-41.1437
-40.5877
-40.6917
-40.9325
-41.9404
-40.2357
-46.0743
-40.8903
-41.711
-44.6351
-38.0469
-37.2176
-37.6178
-38.1249
-38.1675
-38.893
-39.0533
-36.716
-40.2936
-41.2632
-40.289
-41.6014
-62.0265
-40.3821
-50.1152
-26.4026
-49.6745
-45.756
-46.9705
-47.5287
-57.1895
-55.2791
-54.4309
-61.8052
-47.5596
-31.0352
-14.5601
-53.0656
-49.0111
-48.1264
-48.5491
-52.0772
-45.8484
-43.8658
-44.7753
-44.8236
-50.067
-51.5647
-50.31
-53.1943
-60.8301
-62.2004
-62.7499
-59.9595
-45.26
-44.3178
-40.9445
-44.4179
-40.6239
-40.9151
-41.8952
-40.2128
-38.213
-37.5106
-38.3062
-37.7142
-40.3649
-40.9645
-41.0388
-40.4777
-45.6215
-40.4197
-41.4065
-44.3076
-40.1541
-41.1798
-40.1907
-41.4402
-37.8947
-37.0669
-37.4447
-37.9964
-37.8592
-38.5795
-38.7719
-36.383
-61.9153
-40.3191
-50.0424
-26.3222
-47.6321
-31.0161
-14.5567
-53.4987
-49.5464
-45.6346
-46.851
-47.3989
-57.0049
-55.0185
-54.2368
-61.615
-48.6878
-47.7361
-48.1545
-51.8466
-60.6532
-62.103
-62.6252
-59.8366
-45.565
-43.5469
-44.491
-44.4839
-49.8495
-51.3593
-50.0764
-52.9819
-96.195
-76.0013
-91.1925
-87.5372
155.328
181.262
173.412
166.684
-89.7774
-69.5056
-77.4243
-77.4316
33.4772
178.742
135.794
136.051
-53.522
-54.2456
-58.8784
-49.6537
-51.6224
-51.5267
-56.1058
-49.382
-40.477
-45.9416
-43.1465
-42.0588
-30.2872
-29.0915
-29.9753
-29.7503
-37.4603
-40.3388
-39.0051
-39.2576
-27.1474
-25.8176
-28.0077
-26.1842
-42.39
-43.6312
-42.3495
-44.322
-43.8081
-43.5743
-43.7441
-43.6449
-34.0546
-20.3973
-27.2924
-27.2778
132.402
173.037
167.002
169.474
-53.7887
-53.3613
-50.6264
-57.9463
-11.8822
-4.70796
-12.47
-1.7466
-33.7876
-35.8704
-34.8937
-34.8298
-25.3747
-25.3587
-24.3387
-26.1707
-45.9711
-48.5614
-45.6892
-47.0077
-42.0244
-41.2183
-43.8123
-39.5072
-95.7166
-75.8944
-90.8858
-87.1218
154.646
182.887
167.415
173.81
-53.6014
-54.1779
-58.912
-49.4074
-51.4397
-51.7299
-56.0141
-49.131
-38.53
-44.383
-40.3819
-41.431
-27.3329
-24.3447
-25.8515
-25.7649
-41.5379
-42.7281
-41.5974
-43.2648
-43.3051
-43.3222
-43.4337
-43.1833
-53.6684
-53.2729
-57.8482
-50.5176
-11.8566
-4.69743
-1.74606
-12.4367
-45.1856
-47.6674
-46.2975
-44.7255
-41.815
-41.1002
-39.3505
-43.6667
-38.7976
-39.7814
-39.6001
-39.4619
-37.4945
-38.4328
-37.2308
-37.6649
-44.3281
-46.4171
-47.0132
-44.8765
-42.0565
-42.078
-41.2847
-43.1427
-44.9938
-48.4223
-45.7265
-45.7133
-39.3496
-39.1741
-38.9477
-38.9368
-41.2417
-41.5482
-40.5146
-42.5604
-42.0281
-43.6993
-42.933
-42.0756
-40.2049
-38.6144
-39.4573
-39.4745
-42.8436
-43.1942
-42.5406
-42.5899
-48.6807
-45.7578
-47.0364
-46.808
-68.7472
-78.0047
-76.5937
-71.6217
15.5053
19.2077
21.9335
21.897
-83.4452
-88.9228
-86.6427
-86.6177
-69.2392
-73.0261
-70.8422
-70.8128
-55.2137
-48.6393
-52.0599
-52.025
-38.6469
-39.6219
-39.4542
-39.2929
-37.484
-38.391
-37.1818
-37.6353
-44.2205
-46.3242
-44.8046
-46.9209
-41.9272
-41.9342
-41.151
-43.0022
-40.999
-41.3436
-42.3384
-40.2952
-41.5861
-43.0986
-42.4164
-41.6216
-48.5125
-45.584
-46.6412
-46.8523
-68.5934
-77.9268
-71.5095
-76.4811
-100.694
-98.6538
-94.1485
-77.807
-46.1948
-50.2029
-43.3376
-46.8035
-46.724
-45.4609
-45.8923
-44.4747
-79.474
-69.4263
-81.5356
-75.0361
-100.006
-98.3765
-93.8976
-77.6769
-79.0766
-69.2441
-81.2732
-74.8916
-46.6272
-45.353
-45.7962
-44.384
-45.8777
-50.1104
-43.2834
-46.651
-86.2265
-76.5163
-75.6881
-67.7186
-86.4174
-76.3211
-75.7087
-67.6379
-43.9648
-45.2091
-46.8556
-43.9612
-44.0309
-45.5073
-46.9101
-43.7151
-36.7902
-32.9804
-28.293
-24.7065
9.02923
10.4074
11.7964
18.1255
9.04971
10.4096
11.7777
18.0801
-36.7806
-32.9553
-28.2743
-24.6914
119.928
135.357
150.352
148.271
94.9264
97.5479
175.944
146.262
96.4975
93.1187
148.71
176.187
131.715
119.466
150.641
152.432
-39.2038
-40.0765
-39.8627
-40.1194
-38.5821
-39.1919
-39.2928
-39.3843
-45.2357
-46.8513
-44.5112
-45.9835
-47.5392
-49.3079
-45.9021
-47.3304
-39.0776
-39.9538
-39.7245
-39.9895
-47.3958
-49.155
-45.756
-47.1701
-45.007
-46.6487
-44.2935
-45.7811
-38.3759
-38.96
-39.0983
-39.1706
-37.9136
-38.2918
-37.9528
-38.3046
-38.2339
-37.8107
-38.2715
-37.9074
-40.0873
-38.7557
-40.2886
-38.9381
-38.877
-40.1701
-39.0197
-40.3409
-82.6226
-81.402
-80.97
-84.2582
-62.1744
-64.7757
-67.2841
-68.4659
-64.6599
-62.0365
-68.3796
-67.1768
-81.1342
-82.4386
-84.1488
-80.8535
-42.8713
-45.9793
-42.2278
-42.7395
-41.1727
-45.2203
-44.2416
-48.5041
-39.3776
-40.4689
-41.3289
-42.5554
-45.2461
-44.7535
-45.7337
-43.7927
-42.4028
-45.5156
-41.6555
-42.2194
-44.827
-44.346
-45.2339
-43.3156
-37.6045
-39.0775
-39.7522
-41.2567
-39.2996
-43.5453
-42.519
-46.9078
-42.799
-42.096
-43.1852
-42.0926
-42.5581
-41.9515
-42.9516
-42.0461
-37.1
-39.4739
-39.2196
-42.8494
-37.9665
-40.2858
-39.8839
-43.5498
-52.7399
-55.0017
-49.3811
-52.1289
-34.1286
-35.5059
-35.1279
-36.4788
-33.7331
-35.1037
-34.9175
-36.286
-52.5899
-54.8756
-49.2504
-52.0355
-30.7983
-30.8753
-30.2631
-29.8902
-28.0768
-28.3602
-26.6582
-26.9742
-26.8529
-27.302
-24.3165
-25.4748
-30.2011
-29.7752
-29.3871
-28.1157
-73.581
80.3376
-115.823
12.3041
-95.5387
-107.857
-40.2083
-34.1555
-37.086
-33.9587
-40.5322
-38.697
-67.1174
12.1874
-55.6141
-28.8056
-66.944
-54.4279
-37.4316
-31.7368
-32.3896
-31.0747
-36.362
-34.218
-117.133
13.9299
-72.6227
80.9143
-96.6915
-108.209
-35.2575
-31.3626
-37.7068
-31.5105
-38.5542
-37.1112
-55.6837
-29.7759
-66.3502
12.221
-66.8695
-54.4356
-31.2351
-28.91
-35.0561
-29.2543
-34.8323
-33.2043
-43.2321
-43.5931
-39.3435
-38.8251
-40.5728
-40.0671
-41.3415
-39.7699
-51.3796
-41.5776
-38.175
-38.7072
-37.963
-34.1927
-38.9687
-39.9553
-55.6186
-73.1344
-52.3603
-52.3161
-55.3149
-64.9517
-69.4628
-87.1322
-48.9417
-51.2812
-47.4689
-47.7463
-49.6104
-52.0076
-54.8229
-55.3762
-43.1435
-43.4576
-41.2609
-39.729
-39.2981
-38.7672
-40.4801
-39.9968
-50.8448
-41.2162
-38.8253
-39.7896
-37.9694
-38.557
-37.7075
-33.8539
-55.4863
-72.9355
-69.2757
-86.8949
-52.2335
-52.1762
-55.167
-64.7689
-48.5928
-51.0038
-54.6161
-55.1346
-47.2548
-47.4768
-49.3502
-51.784
-48.3847
86.355
-62.6329
61.9658
-83.6012
-80.2716
123.607
118.108
-121.56
32.2495
-121.529
50.7492
-104.849
-104.881
-76.556
-76.8153
-66.9343
-62.6017
-44.4595
-47.5492
-59.2999
-48.3534
-56.3165
-49.2884
-38.2639
-31.9478
-38.0567
-31.457
-39.479
-39.1284
-30.6724
-30.7009
-35.2754
-31.0158
-34.437
-29.4696
-35.9785
-36.3175
-28.9341
-27.6589
-41.7494
-41.1149
-39.6263
-43.4494
-41.9153
-42.7646
-43.8873
-42.3841
-50.8665
-73.1752
-50.8854
-74.8351
-41.9797
-41.9271
98.3412
102.807
-53.746
-33.4943
-44.8091
-20.4832
-48.2935
-58.0078
-22.4476
-14.4758
-31.4726
-29.2858
-31.1619
-28.4647
-32.588
-32.4754
-27.1157
-28.1647
-42.4474
-40.5028
-47.4417
-49.4431
-44.6826
-46.607
-45.3996
-40.8924
-48.9911
85.9687
-66.0479
62.069
-83.5531
-80.0805
117.884
123.546
-66.7614
-62.5045
-44.4226
-47.5491
-59.3135
-48.2702
-56.2316
-49.1516
-35.6696
-29.536
-35.4343
-29.009
-36.8568
-37.2061
-28.3311
-28.3684
-40.6736
-40.2959
-39.0328
-43.0014
-41.2214
-41.7755
-43.3936
-41.6925
-53.6874
-33.4389
-44.7166
-20.4296
-57.9341
-48.1874
-14.4168
-22.405
-41.7321
-40.054
-46.9636
-49.1415
-46.0072
-43.903
-40.5896
-45.1743
-38.477
-37.3721
-37.7175
-37.9331
-38.7691
-38.6693
-37.2122
-38.5307
-41.8119
-41.0969
-44.1162
-44.4664
-43.0425
-43.1737
-41.4236
-43.1952
-42.3553
-40.7242
-42.3418
-40.6854
-43.4443
-43.5134
-39.9177
-39.9004
-39.7151
-39.7681
-43.1999
-43.4268
-40.3746
-42.3983
-43.6615
-43.3588
-41.045
-42.2345
-40.9991
-42.194
-40.3894
-40.4111
-42.0639
-41.9835
-53.5321
-59.0954
-51.5153
-55.0733
-50.719
-50.481
-63.215
-59.9026
-10.6996
-52.2777
-10.9925
-52.2296
5.58419
5.57648
-74.2784
-74.1791
-64.7373
-60.3932
-64.6738
-60.3272
-67.2076
-67.1759
-58.0162
-57.985
-38.3907
-37.2947
-37.7199
-37.8292
-38.596
-38.4672
-37.1537
-38.4348
-41.705
-40.983
-44.0005
-44.3418
-43.0576
-42.9327
-41.302
-43.0681
-39.4269
-39.4143
-42.9081
-43.0671
-42.1336
-40.1102
-43.2484
-42.9379
-53.3362
-58.922
-51.3329
-54.8751
-50.3194
-50.5655
-59.7099
-63.0697
-66.2959
-66.0446
-58.8574
-50.5099
-51.182
-58.2948
-48.0202
-48.6321
-66.2276
-65.9701
-58.8052
-50.4464
-58.2002
-51.088
-48.5345
-47.9566
-62.6235
-62.6232
-56.8049
-50.6215
-56.8136
-50.4673
-50.5523
-50.5759
-13.6006
-13.5951
-8.14887
4.54415
4.62867
-8.15418
11.7598
11.7428
200.692
187.812