# vtk DataFile Version 2.0
tet_velo
ASCII
DATASET UNSTRUCTURED_GRID
POINTS 29498 float
-0.560891 0.105 -1.635
-0.822139 0.165 1.615
-0.535 0.405288 -1.645
-0.805 0.507262 1.635
0.560895 0.105 -1.635
0.822139 0.165 1.615
0.535 0.405288 -1.645
0.805 0.507262 1.635
-0.699239 0.0737343 -0.551667
-0.796636 0.0834201 0.531667
-0.723872 0.538151 -0.551667
-0.82853 0.5868 0.541667
0.699242 0.0737344 -0.551667
0.796625 0.0834328 0.531667
0.723844 0.538124 -0.551667
0.828505 0.586775 0.541667
-1.27788 -0.144263 -2.50635
-1.27693 -0.113623 -1.63568
-1.40847 -0.131534 -0.552606
-1.54261 -0.129451 0.528457
-1.59351 -0.0775217 1.61136
-1.59629 -0.0539761 2.4812
-1.58884 -0.0436278 3.35258
-1.26033 0.0489431 -2.50776
-1.25408 0.0974538 -1.63599
-1.42122 0.0931198 -0.550973
-1.56974 0.0915067 0.533148
-1.6099 0.127904 1.61798
-1.608 0.149281 2.48796
-1.59739 0.161175 3.35901
-1.2501 0.406943 -2.51337
-1.24212 0.454647 -1.64202
-1.43695 0.544311 -0.550186
-1.59168 0.568432 0.542361
-1.60836 0.522227 1.63401
-1.60823 0.541962 2.50358
-1.60054 0.566688 3.37302
-1.30303 1.03552 -2.51428
-1.31933 1.09488 -1.64143
-1.41066 1.18856 -0.546352
-1.51474 1.23636 0.550884
-1.56736 1.22292 1.64586
-1.57845 1.21401 2.51849
-1.57895 1.22166 3.38902
-0.623905 -0.14157 -2.50571
-0.588976 -0.108753 -1.63474
-0.678054 -0.142003 -0.552732
-0.767401 -0.134352 0.527192
-0.801237 -0.0574837 1.60915
-0.80375 -0.0409791 2.4797
-0.799963 -0.0378754 3.35171
-0.619247 0.0464488 -2.50756
-0.813475 0.161548 2.48672
-0.806582 0.165611 3.35836
-0.609343 0.386064 -2.51461
-0.812579 0.538399 2.50377
-0.809771 0.564985 3.37306
-0.621516 1.02208 -2.5155
-0.616828 1.08268 -1.64278
-0.672956 1.18729 -0.547164
-0.748015 1.241 0.550981
-0.787513 1.2218 1.64655
-0.795627 1.21017 2.51918
-0.797048 1.21824 3.38953
0.61143 -0.141574 -2.50571
0.640533 -0.108755 -1.63474
0.728939 -0.142003 -0.552732
0.796523 -0.134345 0.527192
0.814755 -0.0574816 1.60915
0.802085 -0.0409787 2.4797
0.789485 -0.0378761 3.35171
0.573965 0.0464455 -2.50756
0.801067 0.161548 2.48672
0.78806 0.16561 3.35836
0.5706 0.38606 -2.51461
0.794212 0.538398 2.50377
0.783468 0.564983 3.37306
0.699606 1.02207 -2.5155
0.735449 1.08267 -1.64278
0.777591 1.18728 -0.547164
0.793899 1.24098 0.550981
0.788123 1.22179 1.64655
0.781728 1.21017 2.51918
0.775039 1.21823 3.38952
1.25842 -0.144273 -2.50635
1.29166 -0.113632 -1.63568
1.4285 -0.13154 -0.552606
1.55625 -0.129447 0.528456
1.60106 -0.0775183 1.61136
1.59445 -0.0539757 2.4812
1.57885 -0.0436299 3.35258
1.21632 0.0489332 -2.50776
1.2355 0.0974431 -1.63599
1.40915 0.0931075 -0.550973
1.5646 0.0915088 0.533148
1.60848 0.127907 1.61798
1.59795 0.149281 2.48796
1.58015 0.161172 3.35901
1.21339 0.40693 -2.51337
1.22777 0.45463 -1.64202
1.42694 0.544278 -0.550186
1.58523 0.568407 0.542361
1.60318 0.522223 1.63401
1.59165 0.541959 2.50358
1.57571 0.566683 3.37302
1.36705 1.0355 -2.51428
1.41254 1.09486 -1.64143
1.49329 1.18853 -0.546352
1.55283 1.23633 0.550883
1.56897 1.2229 1.64586
1.56589 1.21399 2.51849
1.55795 1.22165 3.38902
-0.446268 0.255144 -1.53832
2.02656e-06 0.0910296 -1.64897
-0.634708 0.0847239 -1.09333
-0.826694 0.336131 1.63812
0 0.131893 1.64811
-0.859366 0.0742318 1.07333
0 0.410575 -1.65029
-0.732861 0.575145 -1.09833
0 0.571648 1.69939
-0.875488 0.605754 1.08833
0.446251 0.255144 -1.5383
0.63459 0.0848457 -1.09333
0.826685 0.336131 1.63811
0.859395 0.0742029 1.07333
0.73287 0.575154 -1.09833
0.875521 0.605787 1.08833
-0.752717 0.0737977 -0.00999999
-0.801943 0.305943 -0.551667
1.31416e-06 0.0712078 -0.551667
-0.758773 0.33511 0.536667
-5.65441e-06 0.071011 0.531667
-0.77896 0.565235 -0.005
-1.37873e-05 0.833515 -0.551667
-1.23754e-05 0.776838 0.541667
0.752719 0.0737978 -0.00999999
0.801944 0.305929 -0.551667
0.758775 0.335104 0.536667
0.778958 0.565233 -0.005
-0.81835 0.280543 -1.09583
-0.779146 0.320526 -0.00749999
-0.882319 0.335621 1.08083
1.67036e-06 0.0790019 -1.09333
-2.17013e-06 0.0711416 -0.00999999
-2.82721e-06 0.070917 1.07333
1.01328e-06 0.255144 -1.75489
0 0.336131 1.67219
-6.89364e-06 0.585762 -1.09833
-1.30813e-05 0.864482 -0.005
-6.18768e-06 0.661136 1.08833
0.818349 0.280537 -1.09583
0.779146 0.320517 -0.00749999
0.882319 0.335618 1.08083
-0.907488 0.101227 -1.6355
-0.574934 -0.00187661 -1.63487
-0.590069 0.0757244 -2.07128
-1.21602 0.146452 1.61649
-0.811688 0.0537581 1.61208
-0.817807 0.163274 2.05086
-0.888562 0.429967 -1.64351
-0.572171 0.395676 -2.07981
-0.575914 0.743985 -1.64389
-1.20668 0.514745 1.6345
-0.80879 0.52283 2.06939
-0.796257 0.86453 1.64078
0.600714 -0.00187758 -1.63487
0.56743 0.0757228 -2.07128
0.898196 0.101222 -1.6355
0.818447 0.0537592 1.61208
0.811603 0.163274 2.05086
1.21531 0.146454 1.61649
0.5528 0.395674 -2.07981
0.635225 0.743979 -1.64389
0.881385 0.429959 -1.64351
0.799606 0.52283 2.06939
0.796561 0.864525 1.64078
1.20409 0.514743 1.6345
-1.06023 0.0834271 -0.55132
-0.688647 -0.0341341 -0.552199
-1.18319 0.0874634 0.532407
-0.782019 -0.0254658 0.52943
-1.08041 0.541231 -0.550926
-0.698414 0.862722 -0.549415
-1.21011 0.577616 0.542014
-0.788272 0.913898 0.546324
0.71409 -0.0341343 -0.552199
1.0542 0.0834209 -0.55132
0.796574 -0.0254559 0.52943
1.18061 0.0874708 0.532407
0.750718 0.862701 -0.549415
1.07539 0.541201 -0.550926
0.811202 0.913879 0.546324
1.20687 0.577591 0.542014
-1.27741 -0.128943 -2.07102
-1.26911 -0.04766 -2.50706
-0.950893 -0.142916 -2.50603
-1.3427 -0.122579 -1.09414
-1.26551 -0.0080848 -1.63584
-0.932955 -0.111188 -1.63521
-1.47554 -0.130492 -0.0120747
-1.41485 -0.0192069 -0.551789
-1.04326 -0.136768 -0.552669
-1.56806 -0.103486 1.06991
-1.55618 -0.0189719 0.530802
-1.15501 -0.131901 0.527824
-1.5949 -0.0657489 2.04628
-1.60171 0.0251909 1.61467
-1.19737 -0.0675027 1.61026
-1.59256 -0.0488019 2.91689
-1.60214 0.0476524 2.48458
-1.20002 -0.0474776 2.48045
-1.59311 0.0587735 3.3558
-1.1944 -0.0407516 3.35215
-1.25721 0.0731984 -2.07188
-1.25521 0.227943 -2.51057
-0.939789 0.0476959 -2.50766
-1.33765 0.0952868 -1.09348
-1.2481 0.27605 -1.63901
-1.49548 0.0923132 -0.00891235
-1.42909 0.318716 -0.550579
-1.58982 0.109705 1.07556
-1.58071 0.329969 0.537754
-1.60895 0.138592 2.05297
-1.60913 0.325065 1.62599
-1.60269 0.155228 2.92349
-1.60812 0.345621 2.49577
-1.21074 0.155414 2.48734
-1.59896 0.363931 3.36601
-1.20198 0.163393 3.35868
-1.24611 0.430795 -2.0777
-1.27656 0.721231 -2.51383
-0.929719 0.396503 -2.51399
-1.33954 0.499479 -1.0961
-1.28073 0.774763 -1.64173
-1.51432 0.556372 -0.00391236
-1.42381 0.866435 -0.548269
-1.60002 0.54533 1.08818
-1.55321 0.902394 0.546622
-1.6083 0.532095 2.06879
-1.58786 0.872571 1.63993
-1.60439 0.554325 2.9383
-1.59334 0.877984 2.51103
-1.21041 0.54018 2.50368
-1.58974 0.894173 3.38102
-1.20516 0.565837 3.37304
-1.31118 1.0652 -2.07786
-0.962275 1.0288 -2.51489
-1.365 1.14172 -1.09389
-0.968081 1.08878 -1.64211
-1.4627 1.21246 0.00226604
-1.04181 1.18793 -0.546758
-1.54105 1.22964 1.09837
-1.13138 1.23868 0.550932
-1.5729 1.21846 2.08217
-1.17743 1.22236 1.64621
-1.5787 1.21783 2.95375
-1.18704 1.21209 2.51884
-1.188 1.21995 3.38927
-0.606441 -0.125162 -2.07022
-0.621576 -0.0475606 -2.50663
-0.00623726 -0.141572 -2.50571
-0.633515 -0.125378 -1.09374
0.0257783 -0.108754 -1.63474
-0.722728 -0.138177 -0.0127699
0.0254423 -0.142003 -0.552732
-0.784319 -0.0959177 1.06817
0.014561 -0.134348 0.527192
-0.802494 -0.0492314 2.04443
0.00675908 -0.0574827 1.60915
-0.801857 -0.0394273 2.91571
-0.808612 0.0602843 2.48321
-0.00083233 -0.0409789 2.4797
-0.803273 0.0638679 3.35503
-0.00523937 -0.0378758 3.35171
-0.614295 0.216256 -2.51108
-0.0226412 0.0464471 -2.50756
-0.810028 0.163579 2.92254
-0.813027 0.349973 2.49525
-0.00620392 0.161548 2.48672
-0.808176 0.365298 3.36571
-0.00926097 0.165611 3.35836
-0.615429 0.704074 -2.51506
-0.0193712 0.386062 -2.51461
-0.811175 0.551692 2.93842
-0.804103 0.874285 2.51148
-0.00918347 0.538398 2.50377
-0.80341 0.891613 3.38129
-0.0131514 0.564984 3.37306
-0.619172 1.05238 -2.07914
0.0390451 1.02208 -2.5155
-0.644892 1.13499 -1.09497
0.0593105 1.08268 -1.64278
-0.710485 1.21414 0.00190868
0.0523177 1.18729 -0.547164
-0.767764 1.2314 1.09877
0.0229421 1.24099 0.550981
-0.79157 1.21598 2.08287
0.000304846 1.22179 1.64655
-0.796338 1.21421 2.95435
-0.00694964 1.21017 2.51918
-0.0110047 1.21824 3.38953
0.625982 -0.125164 -2.07022
0.592698 -0.047564 -2.50663
0.934924 -0.142923 -2.50603
0.684736 -0.125379 -1.09374
0.966097 -0.111194 -1.63521
0.762731 -0.138174 -0.0127699
1.07872 -0.136772 -0.552669
0.805639 -0.0959131 1.06817
1.17639 -0.131896 0.527824
0.80842 -0.0492301 2.04443
1.20791 -0.0674999 1.61026
0.795785 -0.0394274 2.91571
0.801576 0.0602845 2.48321
1.19827 -0.0474772 2.48045
0.788772 0.0638671 3.35504
1.18417 -0.040753 3.35215
0.572282 0.216253 -2.51108
0.895141 0.0476894 -2.50766
0.794563 0.163579 2.92254
0.79764 0.349973 2.49525
1.19951 0.155414 2.48734
0.785764 0.365297 3.36571
1.1841 0.163391 3.35868
0.635103 0.704067 -2.51506
0.891994 0.396495 -2.51399
0.78884 0.55169 2.93842
0.78797 0.874282 2.51148
1.19293 0.540178 2.50368
0.779254 0.891609 3.38129
1.17959 0.565833 3.37304
0.717528 1.05237 -2.07914
1.03333 1.02879 -2.51489
0.75652 1.13497 -1.09497
1.07399 1.08876 -1.64211
0.785745 1.21413 0.00190861
1.13544 1.1879 -0.546758
0.791011 1.23139 1.09877
1.17337 1.23866 0.550932
0.784925 1.21598 2.08287
1.17855 1.22234 1.64621
0.778383 1.2142 2.95435
1.17381 1.21208 2.51884
1.1665 1.21994 3.38927
1.27504 -0.128953 -2.07102
1.23737 -0.0476698 -2.50705
1.36008 -0.122586 -1.09414
1.26358 -0.00809464 -1.63584
1.49238 -0.130493 -0.0120747
1.41882 -0.0192164 -0.551789
1.57866 -0.103482 1.06991
1.56043 -0.0189689 0.530802
1.59776 -0.065747 2.04628
1.60477 0.0251944 1.61467
1.58665 -0.0488028 2.91689
1.5962 0.0476525 2.48458
1.5795 0.0587712 3.3558
1.22591 0.0731881 -2.07188
1.21485 0.227932 -2.51057
1.32232 0.0952753 -1.09348
1.23163 0.276037 -1.63901
1.48688 0.0923081 -0.00891242
1.41805 0.318693 -0.550579
1.58654 0.109708 1.07556
1.57491 0.329958 0.537754
1.60321 0.138594 2.05297
1.60583 0.325065 1.62599
[...]
POINT_DATA 29498
VECTORS point_vectors float
-6.99113 -9.23544 13.5639
0.108654 0.423958 2.18106
-1.03093 0.644902 1.62461
0.079748 -0.122898 0.415971
6.98313 -9.04763 13.5343
-0.103461 0.416348 2.14931
1.03373 0.645005 1.63063
-0.0816566 -0.125537 0.421198
-0.0178227 -0.0114084 0.278639
0.227152 -0.393047 1.66787
0 0 0
0.0374904 0.107777 0.461757
0.0180043 -0.013124 0.310878
-0.225497 -0.389571 1.6667
0 0 0
-0.0374526 0.107938 0.460755
-0.627852 -0.230591 19.6881
-1.48219 -0.755862 20.0744
-0.668266 -0.355242 21.044
-0.198571 -0.0802764 21.0359
0.270552 0.103969 21.0864
0.550692 0.178608 20.7256
0.535921 0.143492 20.5693
-0.703277 -0.147401 19.5929
-1.98575 -0.59228 19.8747
-0.803365 -0.281529 21.0905
-0.245638 -0.077422 21.05
0.308909 0.0681558 21.0863
0.612846 0.113256 20.7733
0.583297 0.100107 20.384
-0.736281 0.0592201 19.5298
-2.18269 0.201495 19.7586
-0.985257 -0.0309168 21.0962
-0.301101 0.0025348 21.0842
0.340565 -0.0181763 21.1155
0.631181 -0.061646 20.727
0.604166 -0.0580852 20.772
-0.532626 0.330617 19.7333
-1.11158 0.691053 20.0492
-0.852883 0.43063 20.9238
-0.213064 0.106293 21.0783
0.252534 -0.158561 20.9952
0.423569 -0.267188 20.7611
0.38439 -0.293717 20.5533
-0.566165 -0.51536 19.0832
-2.14332 -4.66431 19.5716
-0.428538 -0.48219 19.2037
-0.0527205 -0.217648 17.7472
0.302521 1.04847 15.1914
0.675597 1.38545 16.1823
0.767484 0.976297 16.6787
-0.646538 -0.3599 18.8764
0.93183 1.15882 10.432
1.15889 1.06466 12.3943
-0.668309 0.0900068 18.7479
1.3256 -0.226839 8.9934
1.35176 -0.148653 14.8702
-0.465469 0.607052 19.261
-1.32749 2.18204 19.3429
-1.53256 1.79983 21.4221
-0.105446 0.238074 21.646
0.379694 -0.604399 21.2854
0.564664 -0.871427 20.7566
0.506985 -0.706936 20.4081
0.554251 -0.517651 19.0733
2.33387 -4.15634 19.479
0.462731 -0.544322 19.9025
0.067284 -0.255921 18.1082
-0.343666 1.05379 15.4675
-0.672066 1.38962 16.1803
-0.767409 0.986159 16.5498
0.623946 -0.370861 18.8255
-0.892813 1.15958 10.1091
-1.15346 1.0795 12.2136
0.643472 0.0899601 18.707
-1.2951 -0.281476 8.17293
-1.37395 -0.170043 14.3065
0.4965 0.569044 19.3145
1.40211 1.83713 19.5115
1.48305 1.4168 21.3256
0.126305 0.2455 21.588
-0.377305 -0.606456 21.2859
-0.556318 -0.886216 20.7605
-0.505625 -0.733289 20.3687
0.63128 -0.234592 19.6791
1.46618 -0.724977 20.0906
0.663159 -0.339679 21.0347
0.200959 -0.0747128 21.0415
-0.270523 0.104879 21.0831
-0.557362 0.192754 20.7321
-0.540762 0.145632 20.5656
0.699019 -0.165303 19.5502
2.04996 -0.622186 19.8465
0.80472 -0.286439 21.1021
0.249268 -0.07525 21.0534
-0.310117 0.0710882 21.0913
-0.617971 0.115078 20.7812
-0.601054 0.0992706 20.4144
0.741063 0.0661042 19.4983
2.24141 0.209458 19.7345
0.996425 -0.0365959 21.1079
0.302223 -0.000884986 21.092
-0.348397 -0.0192163 21.1185
-0.664593 -0.0523312 20.6745
-0.62132 -0.0596335 20.8497
0.524652 0.308728 19.7687
1.01911 0.580835 20.1027
0.790909 0.365093 20.8799
0.210411 0.100816 21.0603
-0.257911 -0.161092 20.9889
-0.432478 -0.261805 20.7817
-0.395625 -0.305092 20.5325
-0.00473149 -0.000254893 0.00490684
-0.00421109 -6.55761 6.93523
-0.0145901 0.00240612 0.0629976
0.0132912 0.0230202 0.0792642
0.00448738 0.0124715 0.0700992
0.0940938 0.421983 2.31934
9.08347e-06 0.133481 0.204673
-0.644292 0.214091 2.3642
5.62481e-05 0.0179029 -0.0145715
0.0933459 0.152386 1.1963
0.00387018 -0.000250017 0.00406361
0.0135309 0.00226314 0.0614365
-0.0185812 0.0242377 0.0804962
-0.0924589 0.424579 2.3305
0.644099 0.215501 2.36161
-0.0926029 0.150426 1.19865
-0.0189828 0.0392137 0.598071
0 0 0
7.90269e-05 -0.000690179 0.0365142
0 0 0
3.93524e-06 -1.58557e-07 0.000905237
0.0093618 0.0322323 0.269823
-3.41333e-05 0.0958061 0.385813
-0.000141622 -0.000546453 0.00217907
0.018204 0.038985 0.600361
0 0 0
0 0 0
-0.00948614 0.0326035 0.269794
-0.000414812 -0.000508273 0.00571207
0 0 0
0 0 0
2.51784e-06 8.53727e-06 -0.00040109
1.15406e-08 -7.61079e-09 1.77946e-06
3.34851e-06 9.6653e-06 0.00238356
-9.91108e-05 -0.104471 0.110077
0 0 0
0 0 0
2.87477e-08 -4.42907e-06 0.00129273
1.98381e-07 -7.79526e-06 4.48767e-05
0.000415861 -0.000510144 0.00571812
0 0 0
0 0 0
-3.77178 -1.88852 18.7814
-3.36943 -7.08778 18.2685
-1.65004 -1.23813 17.6596
0.64778 0.178674 21.0701
0.181467 1.09973 9.42677
0.341348 0.966224 7.66046
-4.428 0.954079 18.1787
-1.8024 0.391564 17.0475
-2.51652 3.61566 18.1604
0.763386 0.0350295 20.9494
0.453188 -0.201499 5.33034
1.33974 -0.579152 17.8595
3.47428 -6.51709 18.354
1.61519 -1.26672 17.5571
3.83383 -1.95148 18.7393
-0.196885 1.11727 9.70586
-0.314583 0.963503 7.45188
-0.654614 0.18379 21.0525
1.76831 0.406445 16.9529
2.67068 3.26068 18.3026
4.50935 1.02373 18.1025
-0.40447 -0.237681 4.94339
-1.33312 -0.581726 17.8657
-0.776421 0.0311489 20.9361
-0.756395 -0.499948 21.1127
-0.554533 -0.254707 12.5626
-0.383555 -0.229418 20.9849
0.459731 -0.55389 11.5374
-1.30765 -0.366902 21.4718
-3.24745 1.25798 21.0165
-0.490556 0.0424483 21.2215
0.273474 0.654339 19.4605
0.620931 -0.240604 13.2892
0.741157 -0.497526 21.0646
-0.388208 -0.556816 12.0606
0.378839 -0.226185 20.927
2.9725 1.01771 21.2997
1.29529 -0.386981 21.4122
-0.139145 0.59602 19.9026
0.491793 0.0411353 21.2015
-1.03537 -0.420492 19.7143
-0.663451 -0.197126 19.6419
-0.65366 -0.356845 19.404
-1.17131 -0.628245 20.8624
-1.69616 -0.660689 20.0279
-2.21563 -1.8979 19.7212
-0.370781 -0.172834 21.0259
-0.725615 -0.319402 21.0619
-0.666472 -0.576606 21.3863
0.00223225 0.00157671 21.1199
-0.230591 -0.09339 21.043
-0.251806 -0.243729 21.1399
0.449805 0.159772 20.9429
0.287573 0.0889529 21.0864
0.52716 0.29189 21.1955
0.499435 0.202015 20.6386
0.582263 0.157521 20.7366
0.863972 0.479326 20.7536
0.546742 0.134679 20.4125
0.795684 0.473092 20.0652
-1.19955 -0.295751 19.5624
-0.722617 -0.0604662 19.5475
-0.739424 -0.228324 19.2391
-1.51226 -0.505502 20.9273
-2.10436 -0.195944 19.8416
-0.435935 -0.148957 21.0459
-0.89837 -0.191632 21.1241
-0.0164765 -0.0141673 21.1443
-0.290069 -0.0365404 21.074
0.499523 0.106137 20.941
0.342451 0.0246328 21.1048
0.613505 0.121494 20.6488
0.640037 0.00926891 20.7827
1.06617 0.313116 20.5825
0.592516 0.0534103 20.652
0.922431 0.261705 20.4694
-1.29687 0.0936768 19.4564
-0.682034 0.242492 19.6235
-0.763551 0.0602521 19.1675
-1.78158 0.0744986 20.8759
-1.58451 0.629851 19.9366
-0.553769 -0.0270072 21.0838
-1.02164 0.236991 21.0204
-0.0244183 0.00752386 21.1656
-0.269481 0.0800893 21.1075
0.550095 -0.0440437 20.9652
0.32709 -0.10001 21.0607
0.652317 -0.0713105 20.6634
0.564695 -0.193885 20.735
1.15703 -0.121384 20.666
0.516994 -0.248876 20.5306
0.882004 -0.127097 19.9337
-0.826421 0.498957 19.7938
-0.557981 0.46944 19.5115
-1.12826 0.643724 20.5807
-1.37204 1.27395 19.7769
-0.510344 0.237146 21.0596
-1.22608 0.81346 21.1424
0.0339373 -0.0292725 21.0781
-0.220605 0.208623 21.3145
0.383023 -0.221794 20.8816
0.376757 -0.302641 21.141
0.45862 -0.257163 20.6075
0.573303 -0.512185 20.7625
0.540093 -0.466903 20.3002
-1.25401 -1.52676 18.5026
-0.601598 -0.457711 18.9989
-0.00849041 -0.685517 18.7372
-0.499082 -1.6581 21.5516
0.0710755 -6.27055 20.7016
-0.330638 -0.116414 18.4028
0.0188649 -0.622339 16.6319
0.22524 0.257384 16.331
0.00136665 -0.140987 13.3386
0.449416 1.21645 15.2439
0.00848133 0.379939 9.05889
0.731401 1.25483 16.8121
0.806146 1.35006 13.7308
0.00262388 0.596648 9.2776
0.963188 1.02048 14.5365
-0.00734472 0.70591 10.056
-0.665577 -0.163331 18.7702
-0.0383744 -0.474122 18.412
1.07283 1.02843 11.9224
1.0757 0.605258 7.26633
0.00100249 0.143046 -0.383338
1.2789 0.682091 12.0459
0.0217782 0.171151 2.27945
-0.595445 0.452746 18.9282
-0.0321148 0.111488 18.2692
1.53101 -0.289787 10.9186
1.27306 -0.953725 18.2776
0.000194684 -0.225789 -1.25256
1.2013 -0.843737 18.3858
0.0404807 -1.25928 4.33757
-0.835819 1.2714 19.0501
0.0420412 0.760371 19.0146
-1.697 2.3718 20.4658
0.1333 2.94369 18.9911
-0.768959 0.909157 21.7875
0.177322 3.38393 21.8134
0.234 -0.200862 21.5043
0.00913571 0.0951974 22.0376
0.492083 -0.785259 21.0027
0.000810376 -0.782091 21.0025
0.547104 -0.855126 20.5171
0.00551469 -1.1335 20.2775
0.00614182 -1.00619 20.206
1.28363 -1.47732 18.536
0.582472 -0.451848 18.9718
0.6533 -0.370312 19.3917
0.660966 -1.70415 21.3529
2.16324 -1.74919 19.7659
0.345434 -0.125968 18.9403
0.678035 -0.543291 21.3409
-0.266547 0.252981 16.7076
0.251012 -0.232604 21.1462
-0.458601 1.21119 15.3299
-0.515293 0.283806 21.226
-0.732392 1.27326 16.7181
-0.78372 1.3489 13.5484
-0.869132 0.487099 20.7357
-0.960434 1.03283 14.3817
-0.799079 0.487172 20.0375
0.639949 -0.168017 18.7158
0.734962 -0.24323 19.1921
-1.04963 1.045 11.6044
-1.07669 0.572588 6.84214
-1.08242 0.330289 20.5231
-1.30935 0.663443 11.5986
-0.93535 0.288565 20.3913
0.609421 0.446358 18.943
0.765068 0.0585173 19.116
-1.51428 -0.337308 10.373
-1.26798 -0.983071 18.0564
-1.19705 -0.111783 20.4234
-1.19703 -0.873987 18.3449
-0.932503 -0.116373 19.6013
0.90739 1.14082 19.1674
0.567231 0.429733 19.5727
1.7177 1.99425 20.535
1.33359 1.08453 19.8637
0.774857 0.782459 21.6468
1.11602 0.695269 21.0765
-0.221221 -0.183222 21.5034
0.227158 0.200513 21.2851
-0.487017 -0.793646 21.0015
-0.374566 -0.304495 21.1407
-0.544539 -0.870672 20.5363
-0.572807 -0.526162 20.7642
-0.537273 -0.47793 20.3127
1.04258 -0.425107 19.7206
0.661716 -0.204711 19.6205
1.15839 -0.604952 20.8531
1.70225 -0.664557 20.0275
0.37202 -0.16119 21.0209
0.724949 -0.317659 21.0607
-0.00556771 0.00157267 21.1213
0.233595 -0.0902571 21.0448
-0.450621 0.165697 20.939
-0.286775 0.0928631 21.0863
-0.504436 0.207873 20.6378
-0.587943 0.167022 20.7474
-0.560749 0.133026 20.4331
1.24369 -0.32703 19.5146
0.725117 -0.0654004 19.5124
1.55198 -0.525136 20.9489
2.18017 -0.204917 19.8078
0.435098 -0.152767 21.0484
0.904766 -0.200097 21.1357
0.0141764 -0.012363 21.1492
0.290884 -0.0385737 21.0755
-0.501024 0.109176 20.9523
-0.347455 0.0226914 21.1124
-0.625455 0.127948 20.6539
-0.64535 0.00783064 20.776
-0.614259 0.0510834 20.6906
1.33975 0.10544 19.4125
0.674052 0.239221 19.6366
1.82474 0.0788766 20.8893
1.51859 0.576421 19.9686
0.558401 -0.0296522 21.0928
0.978207 0.220673 20.9937
0.0226313 0.00471461 21.1725
0.265282 0.075315 21.1012
-0.559877 -0.0434632 20.9532
-0.330861 -0.100418 21.0571
-0.671573 -0.0761732 20.659
-0.55524 -0.202505 20.7649
-0.529204 -0.25339 20.5834
0.78448 0.448073 19.8456
1.03106 0.550356 20.56
0.486968 0.206034 21.0271
-0.0410627 -0.0269637 21.0784
-0.383434 -0.229233 20.8849
-0.468802 -0.264383 20.6086
-1.15004 -0.367885 19.6234
-1.46924 -1.4105 18.0248
-1.2719 -0.845959 19.2431
-1.57479 -0.623501 18.8354
-0.686678 -0.322884 19.3446
-2.94468 -2.0089 19.314
-1.34943 -0.582434 20.8995
-0.666054 -0.544636 14.037
-1.44994 -1.43801 21.4035
-2.41939 -1.6229 22.035
-0.727463 -0.556818 21.3908
-0.404724 -0.170272 21.0323
-0.353536 0.0863814 11.8472
-0.347492 -0.265379 21.1672
-0.362642 -0.254228 21.0094
-0.314714 -0.250365 21.0604
-0.00809196 -0.0158858 21.1317
0.0453832 0.607981 10.7167
0.031903 -0.0894477 21.3827
-0.0973763 -0.156308 21.3413
0.601515 0.239787 21.1373
0.469497 0.141104 20.9387
0.508032 1.2405 11.8743
0.73438 0.446938 20.9483
0.916608 0.28348 20.7241
0.986684 0.405997 20.5251
0.535451 0.168584 20.6215
0.92013 1.21341 14.5493
0.815687 0.433122 20.5873
0.93947 0.326056 20.6313
0.860463 0.385127 20.2054
-1.25987 -0.121152 19.4824
-1.92017 -0.535501 16.8176
-1.74872 0.194435 18.5889
-0.757785 -0.09384 19.1693
-5.51248 -0.653876 17.728
-1.70202 -0.264327 20.9404
-3.3839 0.244587 21.6808
-0.977314 -0.453306 21.3582
-0.4919 -0.103708 21.0787
-0.729843 -0.229883 21.3106
-0.469747 -0.107708 20.8701
-0.035412 -0.00223753 21.169
-0.198775 0.143201 21.5124
0.710803 0.103638 20.9914
0.548127 0.0297225 20.9644
0.207623 0.410351 4.14757
1.02369 -0.0715319 20.6333
1.15472 0.125758 20.3582
0.690826 0.00391724 20.6783
1.32177 0.619604 9.62551
1.18945 -0.124594 19.6383
0.969915 0.00787703 19.952
-1.10121 0.42912 19.6306
-1.28879 1.29062 18.1866
-0.939636 0.81741 19.4715
-0.695325 0.328126 19.2897
-2.44883 1.56558 19.2677
-1.53011 0.487644 20.7134
-3.24393 3.1881 20.7582
-1.54784 1.2705 20.5974
-1.64392 0.371356 21.3749
-0.589572 0.113757 21.0944
-1.17947 0.801343 19.8013
-0.687189 0.451187 21.3192
-0.351017 0.206513 21.3455
0.0208982 0.0153469 21.1492
1.08337 0.339597 19.1827
0.115841 -0.0340714 21.282
0.612899 -0.270548 21.2842
0.485692 -0.167829 20.9154
1.25857 -0.809027 17.9936
0.500337 -0.448743 20.9634
0.850768 -0.466414 20.878
0.583099 -0.201411 20.6543
1.20993 -0.988213 18.836
0.563973 -0.510446 20.6106
0.714139 -0.374481 20.8321
1.46932 -1.40649 18.0111
0.0219345 -2.30254 17.7047
-0.0409583 -1.89335 16.2056
-0.0217807 -0.604136 18.6001
0.0228374 -9.46587 20.5035
0.683035 -0.717157 14.7189
0.0198606 -1.56821 19.4984
0.0101977 -0.19476 8.43224
0.34703 0.0977291 12.1794
0.00758327 -0.294408 14.4512
-0.0010915 -0.0299317 6.7168
-0.0965594 0.613791 11.0373
-0.00416507 0.0460733 11.0807
0.00675327 0.237587 3.01958
-0.506984 1.2436 11.89
0.007078 0.0653584 8.55556
-0.00415428 -0.510511 -0.717643
0.00287735 0.349645 3.88771
-0.907183 1.22291 14.3278
0.000508658 0.784667 9.70619
0.00847246 -0.334232 0.26342
0.0172052 0.489654 6.05736
1.88511 -0.545115 16.6987
-0.0366667 0.738136 15.3987
-0.033815 -0.232721 18.2631
-0.166675 0.387338 3.89669
-0.00827842 0.434939 -1.6034
0.0167522 -0.0878435 -3.35892
-1.32351 0.611083 9.12614
0.0103471 -0.561893 1.14624
0.0285564 -0.571834 0.598279
1.32385 1.21632 18.2793
0.0711521 1.70386 18.6565
0.0138875 0.60118 18.5388
0.132358 5.01034 17.6386
3.24151 2.80403 20.8652
0.188713 3.75981 20.0831
0.102647 4.66139 19.0013
1.336 0.646575 20.7382
0.0576202 1.42405 22.4182
-0.0182153 -0.517387 10.1848
-1.00765 0.327536 19.4474
0.000347777 -0.471009 21.4883
0.00138642 -0.653532 8.7057
-1.25425 -0.824407 17.8623
0.00262913 -0.962722 20.5199
0.0104337 -1.1422 11.5155
-1.21762 -1.02629 18.6393
0.00999258 -1.23216 20.1576
0.0398273 -1.53917 14.7188
1.16111 -0.383807 19.6007
1.26891 -0.826694 19.2529
1.61785 -0.671609 18.7489
0.683334 -0.330936 19.3143
2.8988 -1.94633 19.3522
1.34936 -0.577724 20.9027
1.45137 -1.3235 21.2997
2.4107 -1.65959 22.0143
0.730387 -0.544243 21.393
0.403708 -0.170253 21.0268
0.357093 -0.264934 21.1751
0.358377 -0.249944 20.9594
0.313126 -0.242739 21.0576
0.0054743 -0.0116442 21.135
-0.0300165 -0.0823555 21.3846
0.092056 -0.152304 21.3163
-0.598786 0.238229 21.1476
-0.468738 0.146656 20.9385
-0.732582 0.44303 20.9651
-0.928869 0.29193 20.682
-0.997005 0.418988 20.4935
-0.540363 0.177066 20.6228
-0.818732 0.437857 20.5776
-0.948358 0.338515 20.6107
-0.868041 0.404625 20.1659
1.30603 -0.12843 19.4252
1.78153 0.220661 18.5029
0.761281 -0.103194 19.1135
5.65259 -0.673406 17.5919
1.74234 -0.276763 20.9647
3.43693 0.233316 21.714
0.961119 -0.456288 21.2818
0.49801 -0.110856 21.083
0.733427 -0.237916 21.2776
0.463347 -0.110488 20.7891
0.0340474 -0.00649708 21.1743
0.19111 0.135808 21.5118
-0.721254 0.106355 20.9692
-0.554513 0.0299348 20.9681
-1.04499 -0.0722178 20.5472
-1.19233 0.128545 20.165
-0.706135 0.00891283 20.6821
-1.23319 -0.126942 19.5249
-1.01719 0.0187745 19.6716
1.06751 0.418125 19.6575
0.943341 0.741447 19.5431
0.69607 0.318101 19.3047
2.33822 1.38219 19.3882
1.45546 0.449069 20.6896
1.44783 1.04627 20.6082
1.53996 0.345029 21.3254
0.568034 0.109043 21.0784
0.665195 0.407505 21.267
0.350166 0.197408 21.3361
-0.0235344 0.0129521 21.1515
-0.10782 -0.0319179 21.2724
-0.615174 -0.276283 21.2848
-0.489506 -0.175603 20.9112
-0.500668 -0.455065 20.967
-0.858717 -0.490259 20.8838
-0.598217 -0.21369 20.6677
-0.570968 -0.525192 20.6295
-0.71752 -0.391466 20.8697
-1.45047 -0.764731 19.0239
-1.82388 -1.5888 21.6755
-0.348981 -0.254142 21.1054
-0.0163023 -0.139299 21.3379
0.853205 0.384354 20.6969
0.874196 0.384909 20.594
-1.80428 -0.255797 18.5758
-3.12024 -0.632133 22.1087
-0.465484 -0.299576 21.0239
-0.276873 -0.0601905 21.3598
0.993864 0.132729 20.5752
1.21702 0.0984809 19.7778
-1.35547 0.751704 19.0248
-2.49802 1.20912 20.901
-0.911433 0.19956 21.4137
0.0944296 0.0999635 21.4727
0.785731 -0.422854 21.0467
0.740939 -0.47036 20.9645
-0.00491246 -2.23756 16.9207
0.007326 -0.493895 9.96682
0.00288096 -0.0727839 7.14094
0.000276586 0.0325428 5.25897
0.00211372 -0.269312 3.31178
0.00782519 0.194212 4.41705
-0.0423385 -0.708206 15.3398
-0.00068163 -0.0575051 -3.2644
0.0327739 -0.0747393 -1.49693
0.0524311 1.88404 17.3758
0.177535 5.65015 19.1472
-0.022262 0.380717 11.1551
-0.00858219 -0.65788 9.04352
0.00610357 -0.718091 10.0982
0.0250899 -1.47054 13.2963
1.46819 -0.782583 18.9879
1.82256 -1.51399 21.6084
0.35519 -0.269145 21.1886
0.0187356 -0.132905 21.3551
-0.858664 0.388506 20.6879
-0.880014 0.393531 20.5789
1.83114 -0.271183 18.4749
3.15217 -0.652373 22.1193
0.452897 -0.299459 20.8677
0.26631 -0.0577123 21.3247
-1.01209 0.13908 20.5087
-1.25518 0.0994886 19.6793
1.33439 0.700958 19.0967
2.35515 1.04661 20.8882
0.867762 0.18686 21.3656
-0.0924299 0.090331 21.4652
-0.794608 -0.439726 21.0501
-0.740848 -0.490611 20.9771
0 0 0
-0.484582 -4.88514 4.47554
-0.014283 -0.0033041 0.159329
0.0380412 0.0735743 0.236724
-0.163819 0.0425532 0.127036
-0.00189 0.00528814 0.0306178
-0.0292408 0.00477794 0.0171201
0 0 0
-0.257203 0.255121 0.855949
0.078152 0.0215934 0.306082
-0.0170278 0.00407391 -0.00245301
0.170433 0.0298582 1.19341
0.539094 -4.8278 4.50421
0 0 0
0.0136445 -0.00291793 0.154961
0.165272 0.0454099 0.132351
-0.0294017 0.0476245 0.147368
0.00169547 0.00477822 0.0284516
0 0 0
0.026966 0.00474214 0.0155544
0.263927 0.261797 0.878116
0.0169775 0.00409153 -0.00246582
-0.0799137 0.0196529 0.308253
-0.170658 0.0293273 1.19218
-0.00743155 -6.21488e-05 0.0775362
0 0 0
0 0 0
0.000449525 -0.000446566 0.0234927
0.0361802 -0.0382802 0.700809
0.0626562 -0.0413562 2.83774
-0.0520856 0.285202 0.755552
0 0 0
-0.0621051 -0.0796119 0.343676
0.0045646 -0.00488319 0.127004
0.00306799 0.00516857 0.0259089
-0.0407203 0.0513557 0.226987
0.0739406 0.511018 1.00135
3.18553e-06 0.000159047 0.000557676
0.0567379 0.168225 0.685272
0 0 0
0.00651797 -0.000102246 0.0728999
-0.000430135 -0.000493535 0.0246612
0 0 0
0 0 0
-0.036251 -0.0382603 0.707133
0 0 0
-0.062999 -0.0434555 2.84672
0.0526759 0.279546 0.735419
0.0618983 -0.0796387 0.343797
0.0407952 0.0514065 0.227117
-0.00431213 -0.00461266 0.124636
-0.00297564 0.00501068 0.0250124
-0.0717958 0.509457 0.990967
0 0 0
-3.59466e-06 0.000197265 0.00068448
-0.057224 0.167055 0.683289
-0.234647 -0.0525597 0.526648
-0.00487153 -0.0124475 0.0142155
-5.77715e-06 -8.93638e-05 0.00374728
0 0 0
0 0 0
0 0 0
0.00256437 0.00632307 0.0414509
0 0 0
0 0 0
0 0 0
0 0 0
-1.33902e-05 1.01212e-05 0.0022793
-0.000133436 0.136345 0.158267
0.000234747 0.00745775 0.0260594
-0.00329993 -0.00252201 0.0216827
-0.0560769 0.0284957 0.139837
0 0 0
0 0 0
-0.0045948 0.00384131 0.0479474
0 0 0
0.00473463 -0.0123471 0.0141763
0.224952 -0.0506073 0.50378
-1.3858e-05 7.45225e-06 -0.000424557
0 0 0
0 0 0
-0.0025789 0.00613604 0.0416117
1.29077e-05 9.99076e-06 0.00225134
0 0 0
0.0550033 0.0279524 0.137119
0.00331432 -0.00253314 0.0217812
0 0 0
0.00410386 0.0035224 0.0484513
0.000573734 0.00155708 0.0375957
0 0 0
-5.72122e-05 0.00015647 0.00532973
1.0534e-05 9.9322e-06 0.000268846
5.82447e-05 -0.000598563 0.0219983
1.41329e-07 -6.81203e-09 1.13869e-06
0 0 0
0 0 0
-3.18965e-08 3.88791e-09 -4.47653e-06
-4.49499e-09 -1.00764e-09 -8.93814e-07
0 0 0
0.126518 0.0209224 0.735438
4.63293e-05 0.0968304 0.212392
-5.8478e-09 0.000899637 0.022533
1.38208e-06 -0.00142907 0.0290581
0 0 0
0 0 0
-0.000567274 0.00149575 0.0375934
5.71916e-05 0.000151726 0.00533044
-3.68333e-05 3.49232e-05 0.000913439
0 0 0
0 0 0
-0.12649 0.0209652 0.735492
0 0 0
-0.027269 -0.0109222 0.116985
-0.0799485 -0.000339052 0.19007
0 0 0
-4.37652e-05 0.000256907 0.00817996
0.00226046 0.00584659 0.0942289
0 0 0
0 0 0
0 0 0
-0.0949957 -0.0566686 0.430662
0 0 0
-0.000490017 0.155931 1.13273
0 0 0
-0.000460334 0.000805177 0.00957545
0.000778846 0.000806702 0.00879913
-3.84179e-05 -0.000329648 0.0179598
0.000138614 -0.000354154 0.0194735
0 0 0
0 0 0
0 0 0
0 0 0
1.39611e-06 5.4501e-08 3.56094e-05
-1.41206e-06 5.67934e-08 3.55436e-05
-6.42685e-06 2.05064e-06 0.000237186
6.19899e-06 2.36174e-06 0.000225225