# vtk DataFile Version 2.0
tet_velo
ASCII
DATASET UNSTRUCTURED_GRID
POINTS 29498 float
-0.785 0.195 -2.15203
-0.675 0.315 2.20525
-0.735 0.695 -2.04726
-0.645 1.00703 2.165
0.785 0.195 -2.15203
0.675 0.315 2.20525
0.735 0.695 -2.04734
0.649436 1.005 2.165
-0.812694 0.170639 -0.699603
-0.798816 0.187851 0.752823
-0.800121 0.894131 -0.643174
-0.747866 0.975886 0.760913
0.812652 0.170681 -0.699603
0.798818 0.187848 0.752823
0.800977 0.892832 -0.643227
0.749785 0.973494 0.760887
-1.57642 -0.21457 -3.31952
-1.57721 -0.154922 -2.17693
-1.5874 -0.167377 -0.723257
-1.55398 -0.164319 0.740141
-1.46781 -0.075711 2.19463
-1.44427 -0.0054213 3.34123
-1.45093 0.0539429 4.48041
-1.5732 0.0982769 -3.28452
-1.57392 0.182287 -2.14721
-1.59164 0.19188 -0.702945
-1.54179 0.201606 0.745672
-1.42258 0.289382 2.19087
-1.41323 0.358228 3.33678
-1.43341 0.416689 4.47753
-1.55189 0.679135 -3.20096
-1.54048 0.761012 -2.06164
-1.57359 0.900886 -0.650323
-1.50538 0.964825 0.757564
-1.39404 1.00937 2.16981
-1.39633 1.0748 3.31772
-1.42328 1.13734 4.46626
-1.53718 1.67332 -3.11197
-1.53303 1.77207 -1.9799
-1.53871 1.9276 -0.584239
-1.52146 2.04804 0.800994
-1.48463 2.12023 2.19715
-1.46604 2.171 3.33027
-1.46231 2.2251 4.47353
-0.795363 -0.208111 -3.32265
-0.785668 -0.144919 -2.18149
-0.800818 -0.177273 -0.722654
-0.798713 -0.174638 0.746246
-0.739856 -0.0640068 2.20531
-0.721225 0.00300697 3.34848
-0.725341 0.0579091 4.4846
-0.797601 0.0971166 -3.2855
-0.695801 0.367662 3.34276
-0.712219 0.420775 4.48069
-0.780198 0.652051 -3.195
-0.682995 1.07648 3.31676
-0.704953 1.13896 4.46605
-0.762458 1.65476 -3.10608
-0.755903 1.75453 -1.9734
-0.768426 1.92325 -0.58033
-0.770941 2.05175 0.800513
-0.75266 2.12249 2.19378
-0.73847 2.17177 3.3269
-0.733196 2.22554 4.47108
0.769775 -0.208361 -3.32267
0.794751 -0.145049 -2.18149
0.805398 -0.177399 -0.722658
0.770016 -0.174806 0.746244
0.688742 -0.0642207 2.20531
0.698054 0.00243974 3.34847
0.712549 0.0571217 4.48459
0.756411 0.0969165 -3.28552
0.693004 0.366978 3.34275
0.711329 0.419894 4.48069
0.743501 0.651798 -3.19505
0.686223 1.07512 3.31675
0.710251 1.13781 4.46605
0.779541 1.6541 -3.10612
0.788251 1.75373 -1.97344
0.775513 1.92209 -0.580365
0.736642 2.05026 0.800489
0.707317 2.12096 2.19376
0.708171 2.17036 3.32689
0.71822 2.22426 4.47107
1.55461 -0.215236 -3.31956
1.57934 -0.155506 -2.17696
1.59187 -0.168109 -0.723275
1.54444 -0.165227 0.74013
1.44805 -0.0767057 2.19463
1.43191 -0.00677269 3.34122
1.44322 0.0523119 4.48039
1.5428 0.097653 -3.28457
1.57032 0.18169 -2.14725
1.59512 0.190949 -0.70297
1.55044 0.200355 0.745659
1.43343 0.288139 2.19086
1.41924 0.356639 3.33678
1.43696 0.414889 4.47752
1.52646 0.678372 -3.20104
1.53975 0.760122 -2.06173
1.57838 0.89884 -0.650391
1.5158 0.961745 0.757528
1.40965 1.00647 2.16979
1.40819 1.07229 3.31771
1.43277 1.13508 4.46625
1.55135 1.67194 -3.11204
1.55876 1.77044 -1.97997
1.54653 1.92537 -0.584305
1.49921 2.04525 0.800948
1.45369 2.11734 2.19712
1.44472 2.16829 3.33025
1.45219 2.22261 4.47351
-0.789849 0.445 -2.12949
0 0.189614 -2.15742
-0.80357 0.178097 -1.42582
-0.652508 0.661015 2.17763
0 0.355379 2.16487
-0.723404 0.26493 1.47904
0 0.762524 -2.11482
-0.804606 0.831611 -1.34522
0.00221801 1.02977 2.18876
-0.723528 1.01855 1.46296
0.789907 0.445 -2.12959
0.803517 0.17815 -1.42582
0.654661 0.66 2.17757
0.72267 0.265663 1.47904
0.805183 0.83111 -1.34528
0.725168 1.0148 1.46294
-0.795352 0.189648 0.02661
-0.874592 0.532385 -0.671388
-2.09654e-05 0.139901 -0.699603
-0.866547 0.581868 0.756868
1.05894e-06 0.170705 0.752823
-0.772678 0.933693 0.05887
0.000427855 1.13985 -0.6432
0.000959304 1.39724 0.7609
0.795279 0.189721 0.02661
0.874568 0.531756 -0.671415
0.867096 0.580671 0.756855
0.77426 0.932042 0.05883
-0.869696 0.488693 -1.38552
-0.874109 0.557127 0.04274
-0.866121 0.621442 1.471
-1.04827e-05 0.119077 -1.42582
-9.95324e-06 0.1726 0.02661
5.2947e-07 0.196366 1.47904
0 0.445 -2.31778
0.001109 0.660508 2.25597
0.000213927 0.915009 -1.34525
0.00069358 1.38168 0.05885
0.00158866 1.22122 1.46295
0.869696 0.488378 -1.38555
0.873977 0.556214 0.04272
0.866181 0.620336 1.47099
-1.17946 0.188644 -2.14962
-0.785334 0.0250403 -2.16676
-0.7913 0.146058 -2.71877
-1.04879 0.302191 2.19806
-0.707428 0.125497 2.20528
-0.6854 0.341331 2.774
-1.13774 0.728006 -2.05445
-0.757599 0.673525 -2.62113
-0.745452 1.22477 -2.01033
-1.01952 1.0082 2.1674
-0.663997 1.04176 2.74088
-0.69883 1.56476 2.17939
0.789876 0.0249754 -2.16676
0.770705 0.145958 -2.71878
1.17766 0.188345 -2.14964
0.681871 0.12539 2.20528
0.684002 0.340989 2.774
1.05422 0.30157 2.19806
0.739251 0.673399 -2.6212
0.761626 1.22437 -2.01039
1.13737 0.727561 -2.05454
0.667829 1.04006 2.74088
0.678377 1.56298 2.17938
1.02954 1.00573 2.1674
-1.20217 0.18126 -0.701274
-0.806756 -0.00331694 -0.711129
-1.1703 0.194728 0.749248
-0.798765 0.00660623 0.749535
-1.18686 0.897509 -0.646748
-0.784274 1.40869 -0.611752
-1.12662 0.970355 0.759239
-0.759404 1.51382 0.780713
0.809025 -0.00335911 -0.711131
1.20389 0.180815 -0.701287
0.784417 0.00652112 0.749534
1.17463 0.194102 0.749241
0.788245 1.40746 -0.611796
1.18968 0.895836 -0.646809
0.743213 1.51188 0.780688
1.13279 0.967619 0.759208
-1.57681 -0.184746 -2.74823
-1.57481 -0.0581467 -3.30202
-1.18589 -0.21134 -3.32108
-1.58231 -0.161149 -1.45009
-1.57556 0.0136827 -2.16207
-1.18144 -0.149921 -2.17921
-1.57069 -0.165848 0.00844192
-1.58952 0.0122517 -0.713101
-1.19411 -0.172325 -0.722956
-1.51089 -0.120015 1.46739
-1.54789 0.0186431 0.742906
-1.17635 -0.169479 0.743193
-1.45604 -0.0405661 2.76793
-1.4452 0.106836 2.19275
-1.10383 -0.0698589 2.19997
-1.4476 0.0242608 3.91082
-1.42875 0.176403 3.33901
-1.08275 -0.00120716 3.34485
-1.44217 0.235316 4.47897
-1.08814 0.055926 4.4825
-1.57356 0.140282 -2.71587
-1.56255 0.388706 -3.24274
-1.1854 0.0976967 -3.28501
-1.58278 0.187084 -1.42508
-1.5572 0.47165 -2.10443
-1.56672 0.196743 0.0213635
-1.58262 0.546383 -0.676634
-1.48219 0.245494 1.46827
-1.52359 0.583215 0.751618
-1.4179 0.323805 2.76382
-1.40831 0.649379 2.18034
-1.42332 0.387459 3.90716
-1.40478 0.716512 3.32725
-1.05451 0.362945 3.33977
-1.42835 0.777013 4.4719
-1.07282 0.418732 4.47911
-1.54618 0.720074 -2.6313
-1.54454 1.17623 -3.15646
-1.16604 0.665593 -3.19798
-1.55704 0.830949 -1.35598
-1.53675 1.26654 -2.02077
-1.53949 0.932855 0.0536208
-1.55615 1.41424 -0.617281
-1.44971 0.9871 1.46368
-1.51342 1.50643 0.779279
-1.39519 1.04209 2.74376
-1.43933 1.5648 2.18348
-1.40981 1.10607 3.89199
-1.43119 1.6229 3.32399
-1.03966 1.07564 3.31724
-1.4428 1.68122 4.4699
-1.06412 1.13815 4.46616
-1.5351 1.7227 -2.54593
-1.14982 1.66404 -3.10902
-1.53587 1.84984 -1.28207
-1.14446 1.7633 -1.97665
-1.53008 1.98782 0.108377
-1.15357 1.92542 -0.582285
-1.50304 2.08413 1.49907
-1.1462 2.04989 0.800753
-1.47533 2.14562 2.76371
-1.11864 2.12136 2.19546
-1.46418 2.19805 3.9019
-1.10225 2.17139 3.32859
-1.09775 2.22532 4.47231
-0.790516 -0.176515 -2.75207
-0.796482 -0.055497 -3.30408
-0.0127944 -0.208236 -3.32266
-0.793243 -0.161096 -1.45207
0.00454181 -0.144984 -2.18149
-0.799766 -0.175955 0.0117958
0.00229008 -0.177336 -0.722656
-0.769285 -0.119322 1.47578
-0.0143486 -0.174722 0.746245
-0.730541 -0.0304999 2.77689
-0.025557 -0.0641138 2.20531
-0.723283 0.030458 3.91654
-0.708513 0.185335 3.34562
-0.0115853 0.00272335 3.34847
-0.71878 0.239342 4.48264
-0.00639603 0.0575154 4.48459
-0.788899 0.374584 -3.24025
-0.020595 0.0970165 -3.28551
-0.70401 0.394219 3.91173
-0.689398 0.722072 3.32976
-0.00139843 0.36732 3.34276
-0.708586 0.779868 4.47337
-0.000445455 0.420335 4.48069
-0.771328 1.15341 -3.15054
-0.0183481 0.651924 -3.19503
-0.693974 1.10772 3.8914
-0.710732 1.62413 3.32183
0.00161417 1.0758 3.31675
-0.719074 1.68225 4.46857
0.00264922 1.13839 4.46605
-0.75918 1.70465 -2.53974
0.00854178 1.65443 -3.1061
-0.762165 1.83889 -1.27687
0.0161741 1.75413 -1.97342
-0.769684 1.9875 0.110092
0.00354365 1.92267 -0.580347
-0.7618 2.08712 1.49715
-0.0171495 2.05101 0.800501
-0.745565 2.14713 2.76034
-0.022671 2.12172 2.19377
-0.735833 2.19866 3.89899
-0.0151497 2.17107 3.3269
-0.00748766 2.2249 4.47108
0.782263 -0.176705 -2.75208
0.763093 -0.0557221 -3.30409
1.16219 -0.211798 -3.32111
0.800075 -0.161224 -1.45208
1.18704 -0.150277 -2.17923
0.787707 -0.176103 0.0117931
1.19864 -0.172754 -0.722966
0.729379 -0.119513 1.47578
1.15723 -0.170017 0.743187
0.693398 -0.0308905 2.77689
1.0684 -0.0704632 2.19997
0.705302 0.0297807 3.91653
0.695529 0.184709 3.34561
1.06498 -0.00216648 3.34485
0.711939 0.238508 4.48264
1.07789 0.0547168 4.48249
0.749956 0.374357 -3.24029
1.14961 0.0972848 -3.28505
0.702166 0.393436 3.91172
0.689613 0.721051 3.32975
1.05612 0.361809 3.33977
0.71079 0.778852 4.47337
1.07414 0.417391 4.47911
0.761521 1.15295 -3.15059
1.13498 0.665085 -3.19805
0.698237 1.10647 3.8914
0.697197 1.62274 3.32182
1.04721 1.07371 3.31723
0.714236 1.68104 4.46856
1.07151 1.13645 4.46615
0.783896 1.70391 -2.53978
1.16545 1.66302 -3.10908
0.781882 1.83791 -1.2769
1.17351 1.76208 -1.97671
0.756078 1.98618 0.110062
1.16102 1.92373 -0.582335
0.72198 2.08561 1.49713
1.11792 2.04776 0.800718
0.707744 2.14566 2.76033
1.0805 2.11915 2.19544
0.713195 2.19731 3.89898
1.07644 2.16933 3.32857
1.08521 2.22344 4.47229
1.56697 -0.185371 -2.74826
1.54871 -0.0587914 -3.30206
1.58561 -0.161807 -1.45012
1.57483 0.0130923 -2.1621
1.56816 -0.166668 0.00842726
1.5935 0.01142 -0.713123
1.49624 -0.120966 1.46738
1.54744 0.0175641 0.742894
1.43998 -0.0417392 2.76793
1.44074 0.105717 2.19274
1.43757 0.0227696 3.91081
1.42558 0.174933 3.339
1.44009 0.2336 4.47896
1.55656 0.139672 -2.71591
1.53463 0.388012 -3.24281
1.58272 0.18632 -1.42511
1.55504 0.470906 -2.10449
1.57278 0.195652 0.0213443
1.58675 0.544894 -0.676681
1.49194 0.244247 1.46826
1.53312 0.58105 0.751593
1.42634 0.322389 2.76382
1.42154 0.647303 2.18033
1.4281 0.385764 3.90715
1.41372 0.714466 3.32724
1.43486 0.774986 4.47189
1.53311 0.719247 -2.63139
1.53891 1.17516 -3.15654
1.55907 0.829481 -1.35606
1.54926 1.26528 -2.02085
1.54709 0.930292 0.0535684
[...]
POINT_DATA 29498
VECTORS point_vectors float
-9.74963 -9.32925 17.3137
0.271229 0.49036 2.07307
-3.84127 2.52723 6.34779
-0.304346 -0.445218 0.484526
9.7573 -9.26833 17.359
-0.283104 0.49798 2.12165
3.87107 2.54652 6.37967
0.27737 -0.384682 0.465825
0.00463742 0.00180739 0.0565901
-0.000873272 0.00158795 0.135667
0 0 0
0 0 0
-0.00444804 0.00180203 0.0551376
0.000939139 0.00159332 0.136581
0 0 0
0 0 0
-0.499968 -0.245349 19.8888
-1.13537 -0.653357 20.4577
-0.408389 -0.462963 21.3712
0.225807 -0.13664 21.5612
0.849956 0.142562 21.4081
1.05148 0.132782 21.1835
0.921702 -0.106733 20.933
-0.625231 -0.19484 19.8014
-1.5237 -0.53414 20.4196
-0.608049 -0.549175 21.4283
0.223014 -0.330992 21.6615
1.07937 -0.184147 21.4651
1.29196 -0.218623 21.2048
1.17751 -0.337829 21.209
-0.727847 0.0354507 19.6981
-1.85031 0.103643 20.372
-1.20702 -0.334666 21.3826
-0.259349 -0.521226 21.7183
0.53361 -0.801325 21.5539
0.810411 -0.804242 21.2827
0.811377 -0.610496 20.677
-0.504503 0.328973 19.924
-0.915251 0.592801 20.3379
-0.886909 0.410965 21.0718
-0.370975 -0.00503086 21.4633
0.0236715 -0.303072 21.3273
0.166829 -0.378258 21.1519
0.127729 -0.30838 20.8712
-0.513101 -0.524076 19.4104
-1.90946 -3.06751 20.4807
-0.15504 -0.332616 21.7783
0.320899 0.359471 21.1857
0.981037 1.35863 19.6441
1.49064 1.51477 18.1553
1.39674 1.00298 17.6543
-0.641421 -0.382149 19.1306
2.20826 1.34098 11.7873
2.11144 1.20231 13.8825
-0.886933 0.0988128 18.7694
0.655855 -1.03315 8.64087
1.0071 -0.799139 15.6401
-0.445754 0.667136 19.5464
-0.941662 1.5064 20.0665
-1.19822 1.52457 21.1203
-0.41271 0.29091 21.7782
-0.0943971 -0.298052 21.4195
0.0169556 -0.481816 21.0062
-0.0307303 -0.400908 20.605
0.50304 -0.520443 19.3944
1.91386 -3.01231 20.4806
0.1579 -0.32939 21.7825
-0.293633 0.368532 21.0717
-0.904416 1.40563 19.381
-1.44135 1.57916 18.1981
-1.39413 1.01408 17.5385
0.629894 -0.406558 19.0762
-2.20605 1.36642 11.7266
-2.10357 1.19683 13.8907
0.860321 0.0973937 18.6954
-0.679724 -1.03852 8.77631
-1.00778 -0.818309 15.7145
0.452859 0.658979 19.5572
0.962232 1.44877 20.0831
1.20348 1.51098 21.123
0.412692 0.306397 21.7928
0.103904 -0.283745 21.4376
-0.0130378 -0.485839 21.0079
0.0226033 -0.404749 20.4889
0.510956 -0.251961 19.8641
1.13755 -0.642044 20.4834
0.412163 -0.46387 21.3648
-0.231959 -0.132702 21.5614
-0.859664 0.161488 21.4254
-1.06354 0.140013 21.1572
-0.917808 -0.0942883 20.9335
0.636506 -0.197592 19.7867
1.53533 -0.529553 20.4162
0.604718 -0.545493 21.4253
-0.217055 -0.327853 21.6527
-1.06669 -0.185111 21.4681
-1.27635 -0.207088 21.1832
-1.16937 -0.319012 21.2162
0.73111 0.0438849 19.6798
1.84339 0.105227 20.3784
1.19702 -0.33638 21.3861
0.255417 -0.506546 21.7166
-0.539151 -0.777662 21.4846
-0.808248 -0.792665 21.2553
-0.787623 -0.585376 20.7174
0.501127 0.327375 19.9318
0.900744 0.568939 20.347
0.881341 0.402325 21.0734
0.373665 -0.0045625 21.4532
-0.0101885 -0.307553 21.3294
-0.152273 -0.381384 21.125
-0.107425 -0.307124 20.9087
-3.97051 0.118685 4.07766
0.000570776 -0.0852199 0.335259
0.00101363 -0.0341348 0.685425
0 0 0
7.11107e-05 0.00934765 0.023726
0.023593 0.00392849 0.228818
-0.000163238 0.255437 0.414524
-0.656983 -0.325055 1.83093
0.00441649 0.211671 -0.28439
0.0279223 0.0171822 0.240049
3.99758 0.112924 4.10431
-0.00723993 -0.0504546 0.627727
0 0 0
-0.0245894 0.00435078 0.254577
0.645018 -0.323558 1.80491
-0.0229824 0.0148735 0.222029
0.000617252 0.000179229 0.0176177
0 0 0
0 0 0
0 0 0
0 0 0
0 0 0
4.16958e-05 0.0226718 0.0459675
-1.57846e-06 8.07086e-06 0.00051626
-0.000630798 0.000183051 0.0178905
0 0 0
0 0 0
0 0 0
0 0 0
0 0 0
0.00338975 0.00357147 0.0351808
2.47514e-06 -0.000103712 0.00101802
-3.00553e-05 0.000594507 0.0140421
0 0 0
0 0 0
0 0 0
2.13615e-06 0.000306777 0.00224762
-3.5739e-06 0.000392414 0.00571919
2.51154e-06 0.000898947 -0.00177281
0 0 0
0 0 0
-0.0033851 0.00340143 0.0359135
-2.92325 -1.3693 20.286
-3.22022 -4.78548 20.468
-1.76584 -1.29942 18.1697
1.6982 0.266662 17.5079
1.17053 1.38067 13.5547
1.55192 0.949961 7.87858
-3.70996 0.643035 20.1686
-2.51557 0.90142 17.1884
-2.1597 2.6705 19.8316
0.59051 -0.823845 17.2092
-0.282747 -0.717961 4.07635
-0.174065 -0.546227 19.9433
3.21312 -4.69677 20.4728
1.76545 -1.35136 18.0864
2.93475 -1.37939 20.2782
-1.11824 1.37731 13.2079
-1.55046 0.965838 7.86342
-1.69726 0.251744 17.6864
2.51321 0.924215 17.0931
2.18694 2.59233 19.8402
3.71567 0.645184 20.1669
0.275593 -0.719609 4.16467
0.16114 -0.527925 19.5442
-0.599271 -0.84487 17.5861
-0.487704 -0.970084 21.7165
0.494884 -0.0534763 17.8285
0.536117 -0.287235 20.3956
0.506554 0.436899 16.7899
-2.12687 -0.923348 21.5566
-3.16377 2.12289 21.0953
-0.375082 -0.809983 19.9389
-0.866109 0.139745 21.4245
-0.475252 -0.0492042 17.8535
0.49321 -0.969181 21.736
-0.493229 0.444985 16.6158
-0.531965 -0.295768 20.4678
3.15877 2.09142 21.1005
2.11098 -0.921629 21.56
0.827431 0.15993 21.0868
0.379216 -0.826125 20.0735
-0.869715 -0.448177 20.0039
-0.583921 -0.230578 19.8508
-0.550121 -0.360247 19.6631
-0.860444 -0.605122 21.0965
-1.31569 -0.631876 20.4609
-1.65577 -1.40662 20.4444
-0.07368 -0.298446 21.5114
-0.509129 -0.516329 21.4004
-0.255454 -0.588883 21.6278
0.545479 0.00257613 21.5421
0.216926 -0.237078 21.5756
0.389099 -0.0207216 21.7298
1.01923 0.196592 21.2561
0.996851 0.000778976 21.4956
1.20721 0.627685 21.1105
1.20478 0.131351 20.5062
1.19134 0.0110167 21.1874
1.55222 0.789253 20.9513
1.05569 -0.223634 21.0783
1.30152 0.429098 21.3362
-1.08114 -0.3568 19.9034
-0.698837 -0.0818239 19.7211
-0.703848 -0.312929 19.5045
-1.14828 -0.60136 21.1564
-1.75433 -0.243632 20.392
-0.192603 -0.458026 21.5662
-0.893047 -0.538122 21.4208
0.647353 -0.254352 21.6618
0.0280825 -0.497398 21.7487
1.25057 -0.151257 21.2881
0.965159 -0.621576 21.4228
1.453 -0.0432754 20.5757
1.16812 -0.593637 21.4332
1.96401 0.305608 18.4344
1.11984 -0.722176 20.6348
1.6508 0.39402 17.6293
-1.32355 0.0950901 19.802
-0.664335 0.248366 19.7823
-0.89187 0.0681551 19.2814
-1.55423 -0.133398 21.0494
-1.35483 0.523553 20.3052
-0.743939 -0.437661 21.6603
-1.23641 0.168203 21.2174
0.188964 -0.636948 21.6729
-0.453483 -0.205118 21.5996
0.691673 -0.849174 21.2955
0.119599 -0.528677 21.3994
0.593 -0.626104 21.333
0.277709 -0.565062 21.1004
0.971655 -1.1083 18.7583
0.21214 -0.274689 21.4011
0.947156 -1.31033 18.6565
-0.720977 0.473427 20.063
-0.544375 0.501272 19.7297
-0.96146 0.534822 20.7251
-1.02547 0.994322 20.2205
-0.661294 0.20221 21.3805
-1.11842 0.811623 21.1461
-0.129847 -0.179815 21.3215
-0.444807 0.10048 21.5909
0.109857 -0.385526 21.1943
-0.0437071 -0.328436 21.3668
0.193689 -0.53921 20.7949
0.128795 -0.505698 21.0401
-0.00102207 -0.350294 21.4237
-1.12897 -1.37126 19.1471
-0.576609 -0.45155 19.2714
-0.0121772 -0.70228 19.1006
-0.864766 -1.24543 22.0271
0.00885376 -4.62464 20.9395
0.149251 0.0146586 21.2285
-0.0052696 -0.424256 21.0698
0.663126 0.870373 20.4147
0.00406193 0.133284 19.2461
1.25278 1.54161 19.4906
0.0224984 1.22995 16.5368
1.18552 1.39413 19.4129
1.944 1.7276 15.8832
0.0148419 1.93403 16.9438
1.82728 1.18796 15.6775
0.030705 1.96312 16.9433
-0.804167 -0.161669 18.8758
-0.0237314 -0.645019 18.6292
2.20154 1.06048 12.737
2.14128 -0.427411 7.14793
0.0023948 1.71237 5.45664
1.87792 0.249469 13.9589
0.005764 1.91907 11.7059
-0.70997 0.599522 19.1054
-0.0228158 0.166954 18.0802
0.823908 -0.913376 10.5255
0.0664145 -0.874624 19.6
-0.00423009 1.65893 -5.87143
-0.0379898 -0.944604 17.7378
-0.00849194 1.42431 -0.288782
-0.732032 1.16506 19.6492
0.00459814 0.862504 19.3122
-1.09997 1.52873 20.5211
0.028642 2.10601 19.9022
-0.863794 0.9569 21.7499
0.00908412 2.5863 20.9892
-0.173786 -0.11558 21.5967
-0.0126125 0.613884 21.9283
-0.0330229 -0.420267 21.3775
-0.00119419 -0.145027 21.495
0.0223547 -0.472565 20.9636
0.00864264 -0.441014 21.093
0.000552499 -0.0808786 21.83
1.12374 -1.3858 19.1456
0.566744 -0.462036 19.2361
0.549399 -0.369366 19.6439
0.858182 -1.23121 22.0203
1.65107 -1.39569 20.4409
-0.141209 0.0229127 21.1639
0.260238 -0.59032 21.6211
-0.594484 0.884484 20.2181
-0.39644 -0.00356192 21.7391
-1.18068 1.57687 19.2649
-1.21003 0.716409 21.023
-1.16136 1.4549 19.3805
-1.91681 1.76722 15.9061
-1.58164 0.834369 20.9399
-1.82154 1.18904 15.6281
-1.32261 0.452672 21.3448
0.788061 -0.161762 18.7954
0.717249 -0.337951 19.4748
-2.21119 1.08315 12.7172
-2.14932 -0.415873 7.1609
-1.9539 0.309341 18.4524
-1.8769 0.235374 14.0041
-1.64383 0.395177 17.6492
0.705712 0.605033 19.0904
0.889087 0.0703672 19.2476
-0.840159 -0.902579 10.7086
-0.0468676 -0.87704 19.4851
-0.975136 -1.10341 18.8445
0.0403242 -0.952101 17.7131
-0.955503 -1.30061 18.7071
0.748107 1.13736 19.6614
0.545182 0.491314 19.7385
1.10983 1.50504 20.5273
1.02626 0.959978 20.233
0.865568 0.978876 21.7593
1.11741 0.801793 21.1467
0.177754 -0.101855 21.5944
0.452498 0.114278 21.5972
0.0406491 -0.408014 21.3764
0.0526858 -0.330384 21.3746
-0.0309548 -0.470961 21.0233
-0.13587 -0.518365 21.0376
-0.00280359 -0.355538 21.4339
0.871124 -0.45135 20.015
0.591216 -0.231787 19.8396
0.852772 -0.602436 21.103
1.31826 -0.616337 20.4562
0.079813 -0.300832 21.5158
0.509825 -0.514905 21.3959
-0.556214 0.00851034 21.5575
-0.220906 -0.236434 21.5701
-1.03083 0.216868 21.2517
-1.00124 0.00394309 21.4978
-1.22012 0.142356 20.5037
-1.18699 0.0153458 21.1798
-1.05392 -0.212049 21.07
1.12133 -0.368436 19.8756
0.70416 -0.0854531 19.7048
1.1473 -0.598573 21.1631
1.77076 -0.245409 20.4111
0.194339 -0.451668 21.5634
0.889551 -0.532504 21.4199
-0.637325 -0.251097 21.658
-0.0164671 -0.485419 21.7387
-1.24144 -0.147971 21.291
-0.946677 -0.604942 21.4189
-1.44126 -0.0516993 20.5878
-1.16949 -0.594424 21.4262
-1.10686 -0.699719 20.6677
1.32996 0.100338 19.7904
0.666916 0.247097 19.7774
1.55218 -0.137153 21.0535
1.34242 0.515449 20.3147
0.739331 -0.437642 21.6557
1.22808 0.166129 21.2191
-0.194196 -0.626555 21.6718
0.45585 -0.205513 21.6127
-0.686115 -0.833678 21.3004
-0.124181 -0.534433 21.4022
-0.569912 -0.612265 21.2827
-0.285117 -0.581586 21.13
-0.200731 -0.279769 21.377
0.716395 0.464014 20.0711
0.952677 0.522759 20.7293
0.669533 0.204027 21.3867
0.127742 -0.182439 21.3777
-0.100012 -0.383606 21.1914
-0.152393 -0.57317 20.8338
-0.989542 -0.432402 19.9612
-1.46324 -1.45919 18.7178
-1.0914 -0.814099 19.6711
-1.54354 -0.711956 19.3203
-0.634565 -0.340041 19.5817
-2.22552 -1.49748 20.3717
-0.999058 -0.626734 21.1251
-0.608171 -0.758606 19.5293
-0.905781 -0.995822 21.4509
-1.39814 -1.17342 21.717
-0.307897 -0.776636 21.7066
-0.132564 -0.391715 21.5336
0.541162 0.141845 16.5921
0.0933022 -0.315914 21.6543
0.049156 -0.642269 20.8908
0.520292 -0.133583 21.4822
0.598445 -0.113267 21.5897
0.782558 0.844169 14.0975
0.807966 0.304767 21.6065
1.04193 -0.0234189 18.5106
1.55384 0.552093 19.9305
1.18548 0.0398036 21.2651
1.53151 1.56435 14.6693
1.40541 0.743937 20.8513
1.96339 0.251996 18.4596
1.69259 0.703368 19.4997
1.42091 -0.0204913 20.3971
1.70119 1.23625 15.3569
1.38306 0.553589 21.0555
1.95312 -0.158278 19.4347
1.4639 0.43881 19.4447
-1.27698 -0.142927 19.8125
-2.38153 -0.481313 17.2775
-2.00985 0.335335 18.9943
-0.841995 -0.119213 19.3316
-3.89079 -0.502063 20.2166
-1.40144 -0.416319 21.1487
-2.51822 -0.286197 21.3999
-1.03049 -1.10764 21.2692
-0.428463 -0.542362 21.641
-1.1795 -1.09136 20.8698
0.330307 -0.557422 19.277
0.496134 -0.52755 21.6746
0.282645 -0.625352 18.7272
1.3738 -0.38278 15.4185
1.12112 -0.639834 21.2777
0.476897 -0.5869 3.4116
0.697874 -1.01967 18.3094
1.79775 -0.687855 16.1898
0.975875 -0.461736 21.2343
1.85766 0.194465 9.5105
1.1329 -1.29391 18.809
1.47594 -0.632871 17.6835
-1.05568 0.43439 19.9099
-1.44908 1.57213 18.8167
-0.813499 0.805367 19.8674
-0.754056 0.409129 19.4509
-1.91071 1.24867 20.1204
-1.37612 0.357303 20.8219
-2.27481 1.98032 20.4872
-1.11818 0.958512 20.6621
-2.0158 0.602057 21.3064
-0.873223 -0.0313615 21.5526
-2.28613 0.907863 22.3879
-0.824067 0.49011 21.5494
-0.696991 -0.132609 21.9168
-0.0998326 -0.378362 21.5412
-0.196528 -0.410143 20.5398
-0.187469 -0.165042 21.4833
-0.0623251 -0.636732 21.5604
0.230333 -0.615995 21.3009
-0.112146 -0.739164 20.5953
0.0295589 -0.416202 21.2396
0.196799 -0.880654 21.4004
0.472555 -0.640857 20.4226
0.045507 -0.965963 19.228
-0.0536321 -0.35906 21.5817
0.073937 -0.564997 19.8129
1.46459 -1.49679 18.6918
-0.00915201 -2.24256 18.4298
-0.037148 -2.3958 16.3978
-0.0147924 -0.744921 18.8144
0.00898935 -6.95913 22.3076
0.59433 -0.77065 19.5594
0.00802356 -1.80984 22.4026
-0.0124901 0.0751402 12.3133
-0.534009 0.150466 16.5066
-0.00308921 -0.056917 19.5703
0.0202675 0.122053 11.4848
-0.746648 0.8419 13.8635
0.0211511 0.692347 17.6609
-0.00198059 0.906412 7.63675
-1.48062 1.61865 14.5346
0.0178168 1.47827 16.548
-0.000139009 0.337639 3.05491
0.0118657 2.23946 11.3713
-1.69007 1.27462 15.3548
0.0331753 2.28103 16.8225
0.000443222 2.18972 7.39077
0.0184367 1.92043 14.4296
2.38111 -0.497248 17.1641
-0.0498927 1.94169 14.5615
-0.0223627 -0.216598 18.211
-0.48205 -0.582363 3.43168
0.000115698 1.3337 -5.55934
-0.00902944 1.15355 -1.45935
-1.84644 0.21796 9.55253
0.00441711 1.55451 -4.47517
-0.00851007 2.02035 2.15315
1.45119 1.56667 18.8201
0.0166973 1.60477 19.3821
-0.00427071 0.861742 18.6358
0.0281686 4.12534 19.5263
2.28301 1.94935 20.4956
0.0195705 2.25314 20.3029
0.0119987 5.27627 19.8399
2.31244 0.887133 22.3809
-0.0142058 1.69843 22.0262
-0.00747289 0.683359 19.2742
0.137702 -0.389155 20.0579
-0.00652233 0.0468942 21.5769
-0.00890233 0.0146517 13.2184
0.114307 -0.734364 20.315
-0.004132 -0.30494 21.4055
-0.00426872 -0.525297 15.1203
-0.0432493 -0.974645 19.1522
-0.00687753 -0.425455 21.0661
0.00259138 -0.909102 17.5942
1.00346 -0.447245 19.9525
1.09306 -0.827987 19.6582
1.56456 -0.739144 19.2832
0.645131 -0.360691 19.5541
2.22301 -1.49485 20.3673
0.991743 -0.612553 21.1347
0.903843 -0.991493 21.4439
1.40395 -1.17564 21.7154
0.317387 -0.776476 21.7022
0.135237 -0.393578 21.5345
-0.0968897 -0.313273 21.6545
-0.0433452 -0.645175 20.935
-0.525123 -0.127035 21.4517
-0.601547 -0.109148 21.5959
-0.812217 0.354204 21.5445
-1.0431 -0.031295 18.6367
-1.56245 0.598777 19.7112
-1.18926 0.0438425 21.2633
-1.43181 0.806709 20.7971
-1.96037 0.244346 18.5591
-1.70075 0.736185 19.3987
-1.43493 -0.0115913 20.397
-1.3875 0.582385 21.0892
-1.95032 -0.158239 19.4304
-1.47193 0.452849 19.413
1.28262 -0.154619 19.7821
2.04559 0.356844 18.9481
0.852025 -0.120414 19.2961
3.90486 -0.505331 20.2147
1.40776 -0.41675 21.1418
2.51001 -0.288527 21.4035
1.02852 -1.10514 21.2997
0.429966 -0.540942 21.6388
1.17025 -1.08587 20.9385
-0.326201 -0.573063 19.4159
-0.487251 -0.516047 21.678
-0.270887 -0.655006 18.9157
-1.37984 -0.399769 15.7297
-1.10997 -0.63288 21.2881
-0.707513 -1.03299 18.5147
-1.79661 -0.684956 16.33
-0.961453 -0.443802 21.2211
-1.14171 -1.30022 18.9188
-1.47565 -0.634646 17.735
1.05431 0.429957 19.9238
0.815467 0.784586 19.8802
0.754334 0.413686 19.4456
1.89974 1.21232 20.1312
1.36641 0.357177 20.8274
1.11468 0.933359 20.6687
2.00435 0.588977 21.305
0.873381 -0.0324153 21.5514
0.829599 0.500804 21.5564
0.704366 -0.131579 21.9277
0.0993128 -0.384262 21.5552
0.190089 -0.164762 21.481
0.0739269 -0.640939 21.5759
-0.240112 -0.62208 21.2567
-0.0151169 -0.423536 21.2696
-0.19982 -0.884305 21.4268
-0.512122 -0.647703 20.4349
0.0479219 -0.371228 21.5818
-0.0695093 -0.569176 19.7777
-1.31471 -0.78861 19.5029
-1.09012 -1.09786 21.5619
0.133003 -0.473947 21.5542
1.02949 0.209417 20.6335
1.77735 0.58318 19.8915
1.65593 0.224952 20.1767
-1.92989 -0.257129 19.0459
-2.00118 -0.94778 21.8112
-0.228922 -0.88639 20.1392
0.789816 -0.300515 17.7807
1.56133 -0.641459 16.9105
1.53621 -0.492888 17.5275
-1.37555 0.878682 19.4615
-1.95756 0.866897 20.7756
-1.42239 0.18758 21.8999
-0.231943 -0.438832 21.7536
0.0976977 -0.777906 21.3712
0.24292 -0.888501 21.3925
-0.0188682 -2.54042 17.5851
0.0175132 -1.15024 15.8352
-0.00183177 0.145893 11.2025
0.0240952 0.573599 9.0244
0.0137826 1.04919 9.21867
0.0190763 1.94231 11.2373
-0.0462576 -0.846876 14.7171
-0.00218139 0.389776 -1.62295
-0.00895352 1.86108 2.90187
0.00286036 2.56545 18.0079
0.0185662 3.38483 19.938
-0.00986094 2.87646 21.746
-0.00779067 -0.0618928 15.6224
-0.00308606 -0.0513228 14.2155
-0.00214903 -0.612655 15.0283
1.3305 -0.811555 19.4769
1.0986 -1.10011 21.5566
-0.130243 -0.475979 21.5447
-1.03744 0.232502 20.523
-1.78465 0.607302 19.7863
-1.65246 0.231462 20.172
1.96425 -0.258598 18.9992
1.99945 -0.947649 21.8103
0.238975 -0.890645 20.2288
-0.794455 -0.330566 17.9986
-1.5642 -0.644681 17.1173
-1.52705 -0.487251 17.615
1.3774 0.874886 19.463
1.94069 0.848558 20.7802
1.42934 0.18841 21.9033
0.237183 -0.442643 21.7688
-0.0994404 -0.786013 21.3752
-0.226908 -0.881368 21.4395
-1.6378 -0.43606 1.31186
-0.0500394 -0.184327 0.926076
-0.0740482 -0.00162865 1.41562
0.0130725 -0.021371 0.0101732
-0.000459112 0.0117637 0.0339822
0.0338228 0.0330237 0.354664
7.19541e-16 -1.78552e-16 -6.9833e-16
0 0 0
-0.448398 0.0638822 1.30476
-0.037339 -0.0323967 -0.0143419
-0.165048 0.046487 -0.098893
-0.0337653 -0.0403624 0.150357
0.0546641 -0.17438 0.918388
1.68121 -0.450796 1.35425
0.0821948 0.00432111 1.4334
4.46177e-05 0.0124837 0.0360016
-0.016167 -0.0254493 0.0123529
-0.0311537 0.0300777 0.311867
0 0 0
0 0 0
0.458512 0.0675282 1.3374
0.176248 0.0507968 -0.111473
0.035844 -0.0305829 -0.0139951
0.0236027 -0.0265676 0.100107
0.083416 -0.250155 2.11662
0.00417005 0.00564245 0.125301
0 0 0
0 0 0
-2.01937e-06 -1.15589e-06 -2.08632e-05
0.00378348 0.00110199 0.127076
0 0 0
-0.000157899 4.45515e-05 0.0079976
-0.178624 -0.0854346 0.399826
0 0 0
0 0 0
-0.0553351 0.0420457 0.100214
0 0 0
0.00213551 0.00632285 0.0405136
0 0 0
0.0211174 0.00300759 0.198292
-0.0927659 -0.205665 2.01968
0 0 0
-0.00318652 0.00455913 0.0979589
0 0 0
0 0 0
0.000150092 4.87652e-05 0.0098813
-0.00389937 0.00114525 0.125192
0 0 0
0.246838 -0.140652 0.604185
0.0521626 0.0398986 0.0946569
0 0 0
0 0 0
9.77957e-19 -1.47121e-18 -8.36855e-18
-0.0190899 0.00194829 0.179315
-0.000535136 0.00263445 0.0184389
0 0 0
-0.0172478 -0.0174881 0.195475
-0.422391 -0.0178018 0.336012
0 0 0
-1.73374e-06 -0.0119017 0.00409361
-0.0058991 -0.00586207 0.146858
0 0 0
0 0 0
0 0 0
-0.00115666 0.0184567 0.0576792
0.000122993 -0.00395387 -0.000827017
0 0 0
0 0 0
0.000133915 0.228626 0.0640537
-3.68968e-06 0.00353863 0.0180078
-0.0325968 -0.0698321 0.554154
-0.0821532 0.0312867 0.302756
0 0 0
-5.63105e-20 -1.55405e-18 1.20698e-17
0.00315816 0.000173778 0.0380905
-0.00230335 0.000713161 -0.0023176
0.419041 -0.0168465 0.332578
0.0174326 -0.0173357 0.195031
-0.00113436 -0.00369921 0.0761861
0.00564074 -0.00627258 0.165657
0 0 0
0 0 0
0 0 0
0 0 0
0.0804162 0.0297219 0.291243
0.0325996 -0.0704374 0.561635
0.00225212 0.000693096 -0.00225884
-0.00245694 6.89696e-05 0.0295978
0 0 0
0 0 0
0 0 0
0 0 0
-0.000387052 0.0164463 0.430921
0 0 0
0 0 0
8.74601e-06 3.12014e-05 0.00141149
0.00083546 0.000564054 0.0653122
0.00110605 0.00667228 0.16238
0.00153342 0.00877476 0.0427375
-0.0588543 0.054998 0.703623
0 0 0
-0.000466347 0.343883 0.74156
-7.6765e-06 0.0004452 0.015974
4.34509e-05 -0.0107404 0.0755891
0 0 0
0 0 0
0 0 0
1.81072e-19 -1.45493e-18 -1.33452e-17
-3.35615e-18 1.27472e-17 1.0181e-16
-1.20626e-05 4.68623e-05 0.00214088
0.0672118 0.0625347 0.802563
-0.00121952 0.00723 0.0349881
-0.00701731 -0.00977772 0.158195
-0.120451 -0.0788926 0.486389
0 0 0
5.44742e-05 -0.00336253 0.0206068
0 0 0
0.000376509 0.00280323 0.0199479
0 0 0
0.000827369 0.00439824 0.0239379
3.47843e-05 -1.01127e-05 0.000808299
0.000222206 0.00053407 0.00354891
0.00852141 -5.16222e-05 0.0569419
0.00375319 -0.00619397 0.0430805
0 0 0
0 0 0
0.00924144 -0.00128714 0.120591
-0.00653674 -0.00111591 0.0788409
0 0 0
0 0 0
0 0 0
0 0 0
-3.21403e-05 0.000506682 0.00685212
-0.00192786 0.00176528 0.0333751
0.0123135 0.022496 0.078039
-0.00432816 0.00400347 0.0331361
0 0 0
0 0 0
0 0 0
0 0 0
0 0 0
0 0 0
-0.00983203 -0.0057491 -0.000423641
0.0188827 -0.0108834 -0.00080297
-0.00675272 0.00552662 0.03502
-4.98264e-05 -5.36073e-05 -0.000279724
-0.146017 0.00430248 0.0888733
0.147167 0.00556573 0.0873255
-0.247619 0.289895 0.801708
0.262957 0.304384 0.843453
0.0148836 0.0211937 0.34185
-0.0210276 0.0297442 0.480832