# vtk DataFile Version 2.0
tet_velo
ASCII
DATASET UNSTRUCTURED_GRID
POINTS 29498 float
-0.750109 0.115 -1.965
-0.775 0.155 1.85997
-0.735 0.715 -1.82349
-0.662764 0.985 1.905
0.750099 0.115 -1.965
0.775 0.155 1.85997
0.735 0.715 -1.82349
0.662759 0.985 1.905
-0.759703 0.127036 -0.69001
-0.776631 0.131739 0.58498
-0.841527 0.935605 -0.58066
-0.810573 1.01873 0.66217
0.759925 0.126808 -0.69001
0.776471 0.131895 0.58498
0.841527 0.935608 -0.58066
0.810575 1.01874 0.66217
-1.54103 -0.337774 -3.0246
-1.5371 -0.265494 -2.01749
-1.54163 -0.252781 -0.741665
-1.53309 -0.268662 0.540629
-1.51439 -0.262373 1.817
-1.51701 -0.245893 2.82678
-1.52768 -0.22256 3.83162
-1.53943 0.0164078 -2.9654
-1.54003 0.111172 -1.96181
-1.556 0.150659 -0.692242
-1.53776 0.149006 0.580217
-1.49713 0.152533 1.8504
-1.50916 0.168446 2.85972
-1.52725 0.191734 3.86561
-1.53575 0.694009 -2.83799
-1.5445 0.785887 -1.83306
-1.60955 0.949457 -0.585424
-1.56244 1.01338 0.659938
-1.44616 0.996801 1.90819
-1.4854 1.00916 2.91885
-1.52666 1.03225 3.92993
-1.53666 1.85744 -2.67105
-1.54677 1.9655 -1.67094
-1.57682 2.13486 -0.433728
-1.58301 2.25244 0.796553
-1.56059 2.28958 2.0341
-1.55401 2.30006 3.03492
-1.56316 2.31475 4.04248
-0.77042 -0.337323 -3.02667
-0.759255 -0.261684 -2.02051
-0.761082 -0.2642 -0.741259
-0.765713 -0.281768 0.544695
-0.763979 -0.265872 1.8241
-0.770554 -0.250151 2.8316
-0.779064 -0.227586 3.83441
-0.769054 0.00896535 -2.96604
-0.775741 0.164827 2.8637
-0.784429 0.18668 3.86772
-0.762148 0.661643 -2.83401
-0.754426 1.00252 2.91821
-0.788534 1.02685 3.92979
-0.752913 1.83527 -2.66712
-0.75549 1.94471 -1.66661
-0.786334 2.12866 -0.431116
-0.810523 2.25574 0.79624
-0.808008 2.2904 2.03186
-0.806354 2.29833 3.03268
-0.814518 2.31235 4.04085
0.755468 -0.337351 -3.02667
0.759432 -0.261733 -2.02051
0.76968 -0.264335 -0.741259
0.781385 -0.281694 0.544695
0.775683 -0.265838 1.8241
0.742183 -0.250129 2.8316
0.725202 -0.227566 3.83441
0.74839 0.00894995 -2.96604
0.718273 0.164842 2.8637
0.708366 0.186698 3.86772
0.751986 0.661635 -2.83402
0.676966 1.00253 2.91821
0.684962 1.02686 3.92979
0.804009 1.83526 -2.66712
0.815243 1.94469 -1.66661
0.803412 2.12865 -0.431117
0.753124 2.25574 0.79624
0.70232 2.2904 2.03186
0.686815 2.29834 3.03268
0.681897 2.31236 4.04085
1.52792 -0.337838 -3.0246
1.53447 -0.265596 -2.01749
1.54948 -0.25295 -0.741665
1.55311 -0.268599 0.540629
1.53262 -0.262296 1.817
1.50289 -0.245843 2.82678
1.48465 -0.22252 3.83162
1.52237 0.0163628 -2.9654
1.53383 0.111108 -1.96181
1.55711 0.150462 -0.692242
1.55026 0.149092 0.580217
1.51014 0.152607 1.8504
1.47832 0.16849 2.85972
1.46597 0.191773 3.86561
1.52972 0.693982 -2.83799
1.54456 0.785866 -1.83306
1.6109 0.949391 -0.585424
1.56714 1.01339 0.659938
1.44598 0.996848 1.90819
1.43185 1.00919 2.91885
1.43785 1.03228 3.92993
1.58095 1.85741 -2.67105
1.59426 1.96547 -1.67094
1.58962 2.13483 -0.433728
1.53735 2.25244 0.796553
1.47248 2.2896 2.0341
1.44682 2.30007 3.03492
1.43899 2.31477 4.04248
-0.730648 0.415 -1.88234
-5.00679e-06 0.111319 -1.96868
-0.758555 0.117369 -1.32751
-0.755316 0.57 1.91892
0 0.151799 1.86317
-0.773982 0.145203 1.22248
0 0.811727 -1.92022
-0.834386 0.871425 -1.20208
-2.5034e-06 1.07592 1.99592
-0.761992 1.02719 1.28359
0.730654 0.415 -1.88235
0.759552 0.116364 -1.32751
0.755316 0.57 1.91892
0.773974 0.145209 1.22248
0.834165 0.871205 -1.20208
0.761994 1.02719 1.28359
-0.768417 0.129138 -0.052515
-0.891748 0.531321 -0.635335
0.000110825 0.129061 -0.69001
-0.887107 0.575234 0.623575
-7.99103e-05 0.131014 0.58498
-0.828346 0.979464 0.040755
2.24475e-07 1.24761 -0.58066
8.07197e-07 1.43301 0.66217
0.768616 0.128933 -0.052515
0.891745 0.531208 -0.635335
0.887113 0.575315 0.623575
0.828341 0.979461 0.040755
-0.870615 0.47316 -1.26479
-0.892895 0.553278 -0.00588003
-0.87284 0.572617 1.25303
5.29089e-05 0.117856 -1.32751
1.54571e-05 0.130489 -0.052515
-3.99551e-05 0.145683 1.22248
-2.5034e-06 0.415 -2.04969
-1.2517e-06 0.57 2.15927
1.12237e-07 1.01661 -1.20208
5.15836e-07 1.4158 0.040755
-8.48099e-07 1.38975 1.28359
0.870604 0.473104 -1.26479
0.892894 0.553261 -0.00588003
0.872839 0.572658 1.25303
-1.14507 0.113086 -1.9634
-0.754682 -0.0733422 -1.99276
-0.759582 0.0619827 -2.46552
-1.13606 0.153766 1.85518
-0.769489 -0.055436 1.84204
-0.775371 0.159913 2.36184
-1.13975 0.750443 -1.82828
-0.748574 0.688321 -2.32875
-0.745245 1.32985 -1.74505
-1.05446 0.9909 1.9066
-0.708595 0.993761 2.41161
-0.735386 1.6377 1.96843
0.754765 -0.0733665 -1.99276
0.749244 0.061975 -2.46552
1.14197 0.113054 -1.9634
0.775342 -0.0554191 1.84204
0.746637 0.159921 2.36184
1.14257 0.153804 1.85518
0.743493 0.688317 -2.32875
0.775122 1.32985 -1.74505
1.13978 0.750433 -1.82828
0.669862 0.993767 2.41161
0.68254 1.6377 1.96843
1.05437 0.990924 1.9066
-1.15785 0.138847 -0.691126
-0.760393 -0.0685821 -0.715634
-1.15719 0.140372 0.582598
-0.771172 -0.0750147 0.564837
-1.22554 0.942531 -0.583042
-0.81393 1.53213 -0.505888
-1.18651 1.01605 0.661054
-0.810548 1.63723 0.729205
0.764803 -0.0687635 -0.715634
1.15852 0.138635 -0.691126
0.778928 -0.0748996 0.564837
1.16336 0.140494 0.582598
0.82247 1.53213 -0.505888
1.22621 0.942499 -0.583042
0.781849 1.63724 0.729205
1.18886 1.01606 0.661054
-1.53906 -0.301634 -2.52104
-1.54023 -0.160683 -2.995
-1.15572 -0.337548 -3.02564
-1.53936 -0.259138 -1.37958
-1.53856 -0.077161 -1.98965
-1.14818 -0.263589 -2.019
-1.53736 -0.260721 -0.100518
-1.54881 -0.0510611 -0.716953
-1.15135 -0.258491 -0.741462
-1.52374 -0.265517 1.17881
-1.53542 -0.0598281 0.560423
-1.1494 -0.275215 0.542662
-1.5157 -0.254133 2.32189
-1.50576 -0.0549199 1.8337
-1.13918 -0.264122 1.82055
-1.52235 -0.234227 3.3292
-1.51309 -0.0387236 2.84325
-1.14378 -0.248022 2.82919
-1.52746 -0.0154129 3.84861
-1.15337 -0.225073 3.83301
-1.53973 0.0637901 -2.46361
-1.53759 0.355208 -2.9017
-1.15424 0.0126866 -2.96572
-1.54802 0.130915 -1.32702
-1.54227 0.44853 -1.89743
-1.54688 0.149832 -0.0560127
-1.58278 0.550058 -0.638833
-1.51744 0.150769 1.21531
-1.5501 0.581191 0.620077
-1.50314 0.160489 2.35506
-1.47164 0.574667 1.8793
-1.5182 0.18009 3.36267
-1.49728 0.588801 2.88929
-1.14245 0.166636 2.86171
-1.52695 0.61199 3.89777
-1.15584 0.189207 3.86666
-1.54013 0.739948 -2.33553
-1.53621 1.27573 -2.75452
-1.14895 0.677826 -2.836
-1.57703 0.867672 -1.20924
-1.54563 1.37569 -1.752
-1.586 0.981416 0.0372573
-1.59319 1.54216 -0.509576
-1.5043 1.00509 1.28407
-1.57272 1.63291 0.728246
-1.46578 1.00298 2.41352
-1.50337 1.64319 1.97115
-1.50603 1.0207 3.42439
-1.5197 1.65461 2.97688
-1.11991 1.00584 2.91853
-1.54491 1.6735 3.9862
-1.1576 1.02955 3.92986
-1.54171 1.91147 -2.171
-1.14479 1.84636 -2.66909
-1.56179 2.05018 -1.05233
-1.15113 1.9551 -1.66877
-1.57992 2.19365 0.181413
-1.18158 2.13176 -0.432422
-1.5718 2.27101 1.41533
-1.19676 2.25409 0.796397
-1.5573 2.29482 2.53451
-1.1843 2.28999 2.03298
-1.55858 2.3074 3.5387
-1.18018 2.29919 3.0338
-1.18884 2.31355 4.04167
-0.764837 -0.299504 -2.52359
-0.769737 -0.164179 -2.99636
-0.00747575 -0.337337 -3.02667
-0.760169 -0.262942 -1.38089
8.8184e-05 -0.261709 -2.02051
-0.763397 -0.272984 -0.0982819
0.00429913 -0.264268 -0.741259
-0.764846 -0.27382 1.1844
0.00783621 -0.281731 0.544695
-0.767266 -0.258011 2.32785
0.00585235 -0.265855 1.8241
-0.774809 -0.238868 3.333
-0.773148 -0.0426619 2.84765
-0.0141854 -0.25014 2.8316
-0.781747 -0.0204531 3.85106
-0.026931 -0.227576 3.83441
-0.765601 0.335304 -2.90003
-0.0103322 0.00895765 -2.96604
-0.780085 0.175753 3.36571
-0.765084 0.583675 2.89096
-0.0287342 0.164834 2.8637
-0.786482 0.606764 3.89875
-0.0380318 0.186689 3.86772
-0.757531 1.24846 -2.75057
-0.00508076 0.661639 -2.83401
-0.77148 1.01468 3.424
-0.78039 1.65043 2.97545
-0.0387301 1.00253 2.91821
-0.801526 1.6696 3.98532
-0.0517861 1.02686 3.92979
-0.754202 1.88999 -2.16686
0.025548 1.83526 -2.66712
-0.770912 2.03668 -1.04886
0.0298768 1.9447 -1.66661
-0.798428 2.1922 0.182562
0.00853918 2.12865 -0.431117
-0.809265 2.27307 1.41405
-0.0286995 2.25574 0.79624
-0.807181 2.29436 2.53227
-0.0528441 2.2904 2.03186
-0.810436 2.30534 3.53677
-0.0597697 2.29833 3.03268
-0.0663107 2.31235 4.04085
0.75745 -0.299542 -2.52359
0.751929 -0.1642 -2.99636
1.1417 -0.337594 -3.02564
0.764556 -0.263034 -1.38089
1.14695 -0.263665 -2.019
0.775533 -0.273015 -0.0982819
1.15958 -0.258642 -0.741462
0.778534 -0.273766 1.1844
1.16725 -0.275147 0.542662
0.758933 -0.257983 2.32785
1.15415 -0.264067 1.82055
0.733693 -0.238847 3.333
0.730228 -0.0426435 2.84765
1.12253 -0.247986 2.82919
0.716784 -0.0204339 3.85106
1.10493 -0.225043 3.83301
0.750188 0.335292 -2.90003
1.13538 0.0126564 -2.96572
0.713319 0.17577 3.36571
0.697619 0.583687 2.89096
1.0983 0.166666 2.86171
0.696664 0.60678 3.89875
1.08717 0.189235 3.86667
0.777998 1.24845 -2.75057
1.14085 0.677808 -2.836
0.680964 1.0147 3.424
0.68189 1.65044 2.97545
1.05441 1.00586 2.91853
0.683429 1.66961 3.98532
1.06141 1.02957 3.92986
0.809626 1.88997 -2.16686
1.19248 1.84633 -2.66909
0.809328 2.03667 -1.04886
1.20475 1.95508 -1.66877
0.778268 2.19219 0.182562
1.19651 2.13174 -0.432422
0.727722 2.27307 1.41405
1.14524 2.25409 0.796397
0.694567 2.29437 2.53227
1.0874 2.29 2.03298
0.684356 2.30535 3.53677
1.06682 2.29921 3.0338
1.06045 2.31356 4.04167
1.53119 -0.301717 -2.52104
1.52515 -0.160737 -2.995
1.54197 -0.259273 -1.37958
1.53415 -0.0772441 -1.98965
1.55129 -0.260774 -0.100518
1.5533 -0.0512438 -0.716953
1.54287 -0.265448 1.17881
1.55168 -0.0597537 0.560423
1.51776 -0.25407 2.32189
1.52138 -0.0548445 1.8337
1.49377 -0.234182 3.3292
1.4906 -0.0386765 2.84325
1.47531 -0.0153738 3.84861
1.5281 0.0637355 -2.46361
1.52605 0.355172 -2.9017
1.54547 0.130785 -1.32702
1.5392 0.448487 -1.89743
1.55368 0.149777 -0.0560128
1.584 0.549926 -0.638833
1.5302 0.15085 1.21531
1.5587 0.581241 0.620077
1.49423 0.160549 2.35506
1.47806 0.574728 1.8793
1.47215 0.180131 3.36267
1.45509 0.58884 2.88929
1.45191 0.612025 3.89777
1.53714 0.739924 -2.33553
1.55533 1.2757 -2.75452
1.57773 0.867628 -1.20924
1.56941 1.37567 -1.752
1.58902 0.98139 0.0372572
[...]
POINT_DATA 29498
VECTORS point_vectors float
-5.14233 -8.18168 14.7902
-0.0701343 0.484016 2.25763
-1.09913 0.408509 1.75988
0.021241 0.0207921 0.0423954
5.15241 -8.17322 14.7537
0.0630191 0.479804 2.24934
1.09748 0.407692 1.7566
-0.0241053 0.0265549 0.0406708
0 0 0
-0.000680604 -0.000270447 0.0561128
0.000520059 0.00481868 0.0723791
0 0 0
0 0 0
0.000800957 -0.000153111 0.0573697
-0.000515603 0.0047331 0.070948
0 0 0
-0.64393 -0.335314 19.9041
-1.20487 -0.801396 20.5676
-0.461385 -0.472142 21.5229
0.0598949 -0.0870418 21.619
0.429772 0.210737 21.5998
0.637552 0.4026 21.4611
0.766608 0.300427 21.0375
-0.866646 -0.305473 19.7894
-1.77461 -0.700327 20.5432
-0.747617 -0.598369 21.6304
-0.0133187 -0.249243 21.7433
0.603189 0.083516 21.7307
0.929576 0.226015 21.489
1.05119 0.165576 21.2299
-1.08959 0.0865393 19.6302
-2.18799 0.139696 20.5113
-1.26917 -0.22984 21.6078
-0.302997 -0.305303 21.8943
0.645048 -0.389913 21.7597
1.0114 -0.415602 21.448
0.880403 -0.508203 21.1104
-0.657811 0.466116 20.0306
-0.93986 0.675597 20.5308
-0.789066 0.463956 21.2761
-0.263283 0.0331149 21.6288
0.0936724 -0.241651 21.4755
0.297071 -0.39682 21.308
0.34653 -0.437532 20.7679
-0.652695 -0.790028 19.3654
-1.6337 -2.97741 20.7909
-0.200951 -0.391215 22.128
0.0339308 0.137248 21.7938
0.17833 0.696359 21.6085
0.353213 0.990808 21.3978
0.975069 1.41442 20.7525
-0.952274 -0.762671 18.8539
0.387072 1.399 11.5291
1.04038 1.42257 13.7105
-1.36606 0.282186 18.161
1.49575 0.468723 8.88516
1.95856 -0.636904 13.7696
-0.584211 0.97524 19.6278
-0.974413 1.63965 20.2694
-0.980519 1.38914 21.4632
-0.356388 0.231553 21.9872
-0.0130899 -0.375196 21.7117
0.159192 -0.565637 21.3136
0.235437 -0.606141 20.9172
0.636748 -0.798458 19.3597
1.64536 -2.98351 20.7919
0.210665 -0.39032 22.1266
-0.0410128 0.138406 21.7864
-0.193881 0.688483 21.6108
-0.321862 0.935843 21.2761
-0.800909 1.43729 20.3123
0.93816 -0.775189 18.82
-0.138614 1.32977 10.0635
-0.829333 1.61761 12.9464
1.36103 0.285422 18.1406
-1.38497 0.558587 6.50337
-2.07319 -0.700202 11.0813
0.605586 0.946537 19.6472
1.0134 1.56289 20.2973
0.982502 1.35918 21.4584
0.353052 0.256902 22.0171
0.023814 -0.373092 21.7316
-0.131335 -0.583916 21.3382
-0.209142 -0.610252 20.9675
0.655846 -0.359086 19.9079
1.20884 -0.812323 20.5744
0.477781 -0.480457 21.5133
-0.0389254 -0.10705 21.6181
-0.43697 0.200753 21.5953
-0.644276 0.376643 21.4826
-0.770017 0.338673 21.0748
0.874055 -0.310616 19.7649
1.78254 -0.710926 20.5466
0.743434 -0.599532 21.6288
0.0140455 -0.249009 21.7304
-0.587088 0.0691937 21.7276
-0.954093 0.23168 21.4682
-1.19441 0.196334 20.8924
1.09329 0.0900396 19.6264
2.18446 0.140023 20.517
1.26783 -0.23016 21.6079
0.301595 -0.30332 21.8959
-0.637175 -0.385074 21.7541
-1.03584 -0.459385 21.4926
-0.976477 -0.550101 21.149
0.654011 0.455295 20.0448
0.906961 0.629262 20.5509
0.784462 0.457809 21.2731
0.268681 0.0281379 21.6333
-0.0963442 -0.263674 21.5032
-0.286694 -0.428504 21.2739
-0.290829 -0.423498 20.9533
0 0 0
0.000254081 -0.11625 0.519799
-0.00374142 0.00390401 0.264075
-0.0374426 0.00710613 -0.0244149
-0.00051045 0.0064854 0.072606
-0.00564933 0.00883354 0.363852
0.000307066 0.442619 0.955894
-0.889688 -0.335665 1.74852
-0.000371038 0.00547073 -0.00872286
0 0 0
2.00489e-16 6.43012e-18 2.19075e-16
0.00333199 0.00384932 0.257027
0.0378035 0.00757632 -0.0246488
0.00549221 0.0088021 0.363239
0.863807 -0.32621 1.70226
0 0 0
-0.000906127 0.000507847 0.0313396
0 0 0
-6.83036e-05 3.12737e-05 0.00440076
1.9572e-05 0.000121849 0.00067639
1.44135e-05 0.000235957 0.014262
0 0 0
-1.54032e-07 0.00344209 0.00903923
0 0 0
0.000999807 0.000581976 0.035147
0 0 0
-2.13063e-05 0.000131372 0.000734817
0 0 0
0 0 0
-3.19857e-05 0.00145527 0.0129323
-1.65178e-18 1.06485e-17 4.60207e-17
-2.26552e-06 1.58721e-06 6.51614e-05
0 0 0
6.86055e-08 8.02215e-07 8.84309e-05
-0.00219654 -0.158774 0.0485686
-4.34809e-05 0.00104458 -7.67663e-05
0 0 0
0 0 0
1.00108e-07 3.82715e-06 -5.3102e-05
0 0 0
3.13164e-05 0.00142087 0.0126051
0 0 0
-3.25889 -1.93164 20.4697
-2.64269 -4.9083 21.1212
-2.40038 -2.15192 17.8007
0.883546 0.699159 19.6152
0.0453253 0.960606 17.1336
0.0796737 0.980864 8.24602
-4.26398 0.721827 20.3766
-3.99391 1.62421 16.3115
-2.41406 2.86172 19.8321
1.30521 0.0443771 17.736
0.807736 0.763968 4.51673
0.190929 -0.839027 20.5643
2.65181 -4.90879 21.1208
2.40729 -2.18658 17.7473
3.27403 -1.95398 20.4627
-0.0588189 0.955218 17.1831
0.0666697 0.868428 7.31937
-0.87445 0.654833 19.7565
4.00102 1.6446 16.2727
2.43805 2.74988 19.8626
4.26205 0.719681 20.3789
-0.655681 0.898227 3.24328
-0.175116 -0.84157 20.3567
-1.29399 0.0559676 17.7224
-0.45079 -1.12333 21.6635
0.109942 0.0467012 17.9376
0.194895 -0.119335 20.1401
0.0422089 0.300576 17.3074
-1.99031 -0.67425 22.1401
-2.97345 2.14517 21.7423
-0.285372 -0.547824 21.3946
-0.839728 0.115098 22.4786
-0.10952 0.0443565 17.9893
0.450013 -1.12514 21.6881
-0.0409614 0.308233 17.3996
-0.19811 -0.144126 20.3176
2.95299 2.09238 21.7435
1.98879 -0.67207 22.1362
0.847403 0.147782 22.4219
0.288649 -0.548068 21.4189
-0.956071 -0.588954 20.0937
-0.734292 -0.332224 19.8474
-0.689855 -0.540963 19.6875
-0.879352 -0.702934 21.2526
-1.47237 -0.766052 20.5349
-1.59398 -1.59971 20.5854
-0.149539 -0.256595 21.6136
-0.623798 -0.576104 21.5634
-0.263141 -0.610399 21.7591
0.237098 0.0756193 21.692
0.0108052 -0.184848 21.6512
0.138592 -0.0555407 21.7516
0.576383 0.318224 21.5235
0.492034 0.153403 21.6224
0.463305 0.444464 21.7165
0.715471 0.478542 21.1722
0.783978 0.327073 21.4514
0.673525 0.725087 21.549
0.91206 0.282243 21.0827
0.88198 0.780486 21.0633
-1.3882 -0.505945 19.9483
-1.01177 -0.165617 19.6605
-0.9602 -0.490018 19.4028
-1.34278 -0.73067 21.3941
-2.07926 -0.342326 20.5381
-0.332326 -0.42761 21.6956
-1.03559 -0.502514 21.6417
0.258242 -0.0770224 21.8158
-0.141179 -0.312808 21.8642
0.793282 0.163365 21.5753
0.720067 -0.132757 21.7653
1.01059 0.221058 21.2616
1.09119 -0.111666 21.4384
1.23262 0.803277 19.9161
1.11911 -0.124481 21.2623
1.50638 0.641996 20.0491
-1.77064 0.153183 19.8186
-0.908889 0.427479 19.7783
-1.36645 0.16564 19.0353
-1.81329 -0.0837985 21.2686
-1.53902 0.658917 20.4669
-0.797114 -0.304191 21.8378
-1.2353 0.288483 21.451
0.1614 -0.325878 21.9119
-0.401145 -0.101442 21.8003
0.821085 -0.419317 21.6259
0.26589 -0.409422 21.6333
1.1617 -0.465262 21.2707
0.540699 -0.501608 21.329
1.43728 -0.450636 20.0267
0.583283 -0.655282 20.9459
1.56779 -0.626956 20.5717
-0.815742 0.615013 20.2332
-0.696545 0.721395 19.8308
-0.933325 0.608478 20.9595
-1.07612 1.08164 20.4329
-0.554137 0.246013 21.5414
-0.964988 0.840187 21.376
-0.0475985 -0.164569 21.5902
-0.337719 0.109025 21.7858
0.20952 -0.355734 21.3991
0.0876889 -0.342355 21.5852
0.280002 -0.350938 21.1303
0.246263 -0.524254 21.2082
0.216248 -0.482511 21.2354
-1.20853 -1.73219 19.3192
-0.779241 -0.808997 19.1211
-0.00714018 -1.08928 18.9873
-0.659457 -1.30903 22.2087
-0.00113693 -4.5286 21.259
-0.0419347 -0.0685219 21.8912
-0.00253262 -0.638945 22.1173
0.10239 0.349521 21.7018
0.00290965 -0.113108 20.6075
0.294629 0.962586 21.5045
-0.00846947 0.345821 19.7155
0.496459 1.08657 21.6685
0.38443 1.40499 17.9375
-0.0340694 0.523361 19.1388
0.587868 1.51407 18.6826
-0.0354371 0.914986 19.4012
-1.22101 -0.404256 18.3087
-0.0269113 -1.15212 18.1061
0.855881 2.10463 13.4273
0.502411 1.32055 4.84953
-0.157091 -1.15031 -0.592232
2.10208 0.91497 11.4063
-0.039697 0.211326 2.05561
-1.026 1.0842 18.8667
-0.0104977 0.522356 16.869
2.0507 -0.297031 12.1708
0.416119 -1.12245 20.81
0.00683905 -0.83333 -1.01168
0.578538 -1.14436 19.7216
0.2974 -1.61872 -1.323
-0.794023 1.37597 19.8483
0.0232026 1.26483 19.3841
-1.03659 1.65817 20.8572
0.0562636 2.21764 20.0859
-0.67846 0.813467 21.9017
0.0115723 2.14894 21.5236
-0.139313 -0.142417 21.8415
-0.0175848 0.489211 22.1357
0.0781717 -0.514737 21.6045
-0.00303367 -0.325117 21.7205
0.177038 -0.657815 20.8048
0.0136571 -0.62003 21.5013
0.0342016 -0.840072 21.05
1.20566 -1.74642 19.316
0.769574 -0.81901 19.1044
0.680445 -0.548286 19.6767
0.672645 -1.30993 22.2047
1.59888 -1.61088 20.5878
0.0401753 -0.0678624 21.8853
0.278531 -0.616101 21.7552
-0.109334 0.349567 21.6974
-0.129842 -0.0694869 21.7464
-0.283507 0.93012 21.4597
-0.462727 0.424618 21.7118
-0.384823 1.1176 21.4391
-0.324872 1.38046 17.7088
-0.660807 0.720173 21.5303
-0.418963 1.66975 18.0739
-0.88988 0.834494 21.0413
1.21371 -0.407374 18.2706
0.966299 -0.50985 19.3753
-0.656526 2.14124 12.6683
-0.0962769 1.53255 2.39346
-1.21137 0.932076 19.1654
-2.21252 0.985224 8.45068
-1.47748 0.84773 19.7596
1.03588 1.05533 18.9054
1.37101 0.167567 19.0214
-2.01114 -0.265828 9.45845
-0.374338 -1.13311 20.6563
-1.53631 -0.350817 19.3179
-0.611711 -1.18206 19.07
-1.82546 -0.603654 20.035
0.825613 1.32492 19.8698
0.698346 0.687726 19.8661
1.04978 1.59101 20.8684
1.06834 1.02294 20.4502
0.670592 0.840685 21.91
0.959515 0.818173 21.374
0.146402 -0.135003 21.8642
0.341354 0.130709 21.8043
-0.0595361 -0.509946 21.5885
-0.0762382 -0.350549 21.5717
-0.154958 -0.657066 20.9783
-0.229637 -0.553521 21.2741
-0.254572 -0.581633 21.2205
0.96498 -0.578827 20.0864
0.740644 -0.344454 19.8414
0.894575 -0.708782 21.2525
1.46846 -0.780625 20.5406
0.17507 -0.265574 21.608
0.622694 -0.580516 21.5619
-0.230641 0.0645547 21.679
-0.00318791 -0.196219 21.6429
-0.579835 0.293969 21.5111
-0.490335 0.137589 21.6258
-0.742845 0.468189 21.1303
-0.787642 0.348613 21.4702
-0.964265 0.302048 20.9752
1.4029 -0.517226 19.9333
1.01976 -0.1649 19.6473
1.33971 -0.736216 21.4016
2.08804 -0.344752 20.5438
0.328184 -0.424952 21.6914
1.03374 -0.500497 21.6433
-0.256127 -0.0764381 21.8006
0.140755 -0.313718 21.8588
-0.789501 0.161776 21.5575
-0.703847 -0.132423 21.7633
-1.05441 0.224222 21.3432
-1.12524 -0.118354 21.4185
-1.32686 -0.187339 21.0052
1.7755 0.154964 19.8211
0.902666 0.417764 19.7947
1.81133 -0.0839426 21.2702
1.50169 0.634828 20.476
0.794991 -0.303912 21.8366
1.22823 0.285136 21.4488
-0.159005 -0.325844 21.9062
0.408796 -0.101282 21.8074
-0.831888 -0.43579 21.6543
-0.263084 -0.428433 21.6604
-1.16083 -0.521353 21.3768
-0.549203 -0.545501 21.3449
-0.641367 -0.667441 20.864
0.796579 0.581201 20.2576
0.916985 0.58918 20.9626
0.560778 0.249488 21.5488
0.0516515 -0.169628 21.62
-0.201506 -0.363731 21.4011
-0.282572 -0.407166 21.1611
-1.15155 -0.568811 20.018
-1.6942 -2.09016 18.7374
-1.17942 -1.06243 19.7895
-1.97152 -1.06463 19.2784
-0.810885 -0.530744 19.5452
-2.3091 -1.9202 20.5701
-1.13105 -0.732948 21.3152
-0.281058 -0.784242 20.4065
-0.870956 -1.17109 21.6602
-1.56818 -1.71275 22.2326
-0.252325 -0.828288 21.8821
-0.244157 -0.374959 21.6415
0.0940374 0.18038 17.3679
-0.000740157 -0.297914 21.7331
-0.0438234 -0.583315 20.6626
0.222521 -0.114651 21.5111
0.226948 -0.0125591 21.7323
0.0363789 0.465624 16.8691
0.275035 0.165112 21.7594
0.347873 0.268639 19.6201
0.668145 0.570677 21.2971
0.665041 0.250431 21.5333
0.167574 1.24033 17.2503
0.594892 0.629896 21.5808
1.08823 0.753977 19.8208
0.954312 0.841694 20.8842
0.907557 0.319476 21.4683
0.67617 1.5956 17.5479
0.781255 0.70123 21.114
1.29114 0.799405 20.2552
1.16315 0.818649 20.8134
-1.6478 -0.253842 19.8606
-3.92676 -0.906339 15.9986
-2.77778 0.537787 18.8937
-1.2251 -0.249296 19.1097
-4.78905 -0.743206 20.4124
-1.69193 -0.467131 21.3977
-2.93039 -0.258038 21.7285
-1.18282 -0.996704 21.7046
-0.547232 -0.441787 21.7885
-1.14174 -0.765974 21.9861
0.0595727 -0.227119 19.7838
0.254484 -0.195256 21.9194
0.56131 -0.131056 19.6848
1.10305 0.612633 16.441
0.93225 -0.114901 21.6007
-0.516423 0.877309 1.41203
1.33161 -0.207587 19.1449
1.53124 0.302962 18.4617
1.20299 -0.0971234 21.7141
1.96814 1.1446 9.51863
1.59749 -0.593195 20.5705
1.92949 0.291728 19.9069
-1.29149 0.618631 19.9963
-1.77647 2.1169 18.966
-0.912178 0.949671 20.0744
-1.0727 0.700517 19.3874
-2.16034 1.41774 20.2562
-1.47922 0.504457 21.0315
-2.74756 2.52111 20.6612
-1.08914 1.03645 20.9424
-1.94348 0.738359 21.6531
-0.838446 0.0799977 21.7294
-2.05897 1.04805 22.6062
-0.672735 0.483095 21.7041
-0.575752 -0.0484967 22.1308
-0.0254732 -0.267158 21.7703
-0.150473 -0.503642 21.6987
-0.0989339 -0.166242 21.7388
0.261457 -0.651215 21.7793
0.417683 -0.489692 21.5136
0.303343 -0.959289 20.6662
0.16558 -0.418314 21.3976
0.521825 -0.859618 21.6545
0.58796 -0.526253 21.1341
0.50127 -1.21923 20.6256
0.269499 -0.56175 21.2719
0.696008 -0.86698 20.8007
1.68852 -2.11994 18.7177
-0.00617062 -2.68069 18.7161
-0.0278891 -3.95268 15.5381
-0.0126278 -1.12903 18.6099
-0.00306503 -7.21216 23.1684
0.285776 -0.792554 20.4388
-0.00174243 -1.81156 22.8788
-0.00158448 -0.110828 11.4321
-0.0929392 0.182666 17.4408
0.000814344 -0.294926 21.1016
-0.00548671 0.015728 11.2276
-0.0374415 0.472096 16.9495
0.000279435 0.102559 20.0758
-0.0150916 0.303953 11.1558
-0.135339 1.20986 17.0912
-0.0160063 0.47312 19.485
-0.173002 -0.579332 0.414187
-0.118732 0.0950339 10.5423
-0.498034 1.63121 17.0121
0.00145676 0.88226 20.2636
-0.204211 0.217415 0.478956
-0.0350676 1.36405 10.8815
3.92586 -0.909758 15.9134
-0.0201683 3.81484 12.4749
-0.0139054 -0.567776 17.1765
0.762225 0.939833 0.59708
-0.0209147 0.697827 -0.0171577
-0.0245159 -1.90021 -3.71565
-1.81732 1.28429 7.12498
0.171542 -0.832182 -2.50998
0.48821 -2.68094 -3.45851
1.79086 2.05125 19.0055
0.035773 1.8389 19.622
0.0197685 1.60631 18.2427
0.0567023 4.38912 19.3424
2.74777 2.43499 20.6888
0.0380186 2.36018 20.7456
0.0170592 4.87762 21.403
2.07668 1.08396 22.6113
-0.0127003 1.36132 22.1161
-0.0269997 0.90742 22.2658
0.0978951 -0.486972 21.1439
-0.0102521 -0.0419304 21.917
-0.016547 -0.383567 16.8582
-0.281568 -0.959099 20.3057
0.00392937 -0.510885 21.6742
0.0174658 -0.86743 16.7289
-0.451579 -1.29999 19.8446
0.0165047 -0.765645 21.2432
-0.00858442 -0.995768 16.678
1.15514 -0.574816 20.0121
1.1806 -1.07567 19.7847
1.98616 -1.08681 19.2502
0.810548 -0.541985 19.5352
2.3231 -1.93393 20.5674
1.12823 -0.740336 21.321
0.874456 -1.18076 21.6569
1.56236 -1.71181 22.2288
0.264625 -0.825203 21.8743
0.249437 -0.382975 21.6374
0.0128242 -0.305055 21.7258
0.0453409 -0.596392 20.776
-0.214537 -0.128593 21.5553
-0.219236 -0.0192754 21.714
-0.278149 0.14568 21.7535
-0.361089 0.244767 19.7944
-0.662279 0.536825 21.3249
-0.653001 0.246294 21.5232
-0.58923 0.612735 21.5745
-1.07263 0.802229 19.2759
-0.934228 0.908996 20.7468
-0.919869 0.316337 21.4189
-0.744103 0.732037 21.1701
-1.23266 1.01765 19.1252
-1.15458 1.02408 20.9238
1.66205 -0.255262 19.8604
2.7911 0.54441 18.8818
1.23602 -0.260101 19.0783
4.80463 -0.751451 20.4069
1.69148 -0.465924 21.4025
2.92845 -0.257934 21.7273
1.18368 -1.00061 21.706
0.544183 -0.440346 21.7886
1.13958 -0.763238 21.9915
-0.0573228 -0.249254 19.9236
-0.25343 -0.191931 21.9167
-0.553964 -0.137173 19.7143
-1.08508 0.605224 16.5451
-0.934596 -0.120209 21.6161
-1.3774 -0.0858606 18.5105
-1.47668 0.451833 16.8007
-1.2706 -0.112079 21.8562
-1.81125 -0.518109 19.861
-2.03136 0.518876 18.5654
1.26942 0.599664 20.0157
0.909275 0.899275 20.0963
1.0699 0.684857 19.4098
2.10805 1.33699 20.2782
1.4529 0.495735 21.03
1.08313 0.993475 20.9428
1.92206 0.721224 21.6479
0.843518 0.0803034 21.7324
0.677556 0.502249 21.7093
0.591814 -0.0421151 22.1518
0.0206085 -0.272495 21.793
0.0985402 -0.158048 21.7478
-0.247308 -0.68228 21.8121
-0.409782 -0.548168 21.5023
-0.162457 -0.460699 21.3944
-0.530557 -0.922971 21.6873
-0.581771 -0.563324 21.1121
-0.251731 -0.616869 21.2593
-0.644623 -0.96941 20.983
-1.54766 -1.11145 19.5542
-1.06719 -1.40468 21.9096
0.0544146 -0.441575 21.662
0.369447 0.173177 21.3584
0.856476 0.733745 21.053
1.17254 0.888936 20.9128
-2.71332 -0.442558 18.8691
-2.53509 -1.00452 22.3491
-0.459896 -0.710021 20.7092
0.424338 0.329897 18.2039
1.26242 0.389635 17.6863
1.81308 0.312487 19.0152
-1.67402 1.17565 19.5934
-2.20728 1.10203 21.0222
-1.27869 0.291587 22.0775
-0.0619651 -0.390528 22.0206
0.419005 -0.75956 21.6123
0.643711 -0.923458 21.158
-0.0174692 -3.50852 17.6431
-0.000873905 -0.801453 15.1818
-0.00353934 -0.0440466 10.986
-0.007332 0.141221 11.0185
-0.0487212 0.175943 10.8584
-0.0298303 0.756776 10.5633
-0.0277071 -1.38738 11.78
-0.0513631 0.112374 -1.92685
0.238191 -3.08837 -5.25367
0.0348563 3.36956 18.1807
0.0434911 4.4898 20.0222
-0.0166997 2.90513 22.899
-0.0177209 -0.0658734 20.3489
-0.0187616 -0.51978 16.4021
-0.00656974 -1.21448 16.5058
1.56209 -1.13685 19.5337
1.07582 -1.401 21.9016
-0.0418634 -0.447217 21.6776
-0.368003 0.156247 21.4026
-0.834154 0.74451 20.9756
-1.21543 1.04287 20.7979
2.75211 -0.450925 18.8286
2.53667 -1.01253 22.35
0.463787 -0.715837 20.7646
-0.429599 0.301408 18.348
-1.18445 0.487794 16.5716
-1.95609 0.494158 17.3449
1.65706 1.1295 19.6275
2.1777 1.06823 21.0237
1.29177 0.297233 22.0875
0.0715439 -0.403219 22.0431
-0.397351 -0.798722 21.6121
-0.625117 -1.01149 21.3582
-4.2553 -1.50578 3.93625
-0.020502 -0.127759 0.591806
0.00213464 0.00544536 0.402136
-0.051275 -0.0244339 -0.0421913
-0.0180661 0.0145937 0.144144
-0.0262917 0.0111679 0.512091
-2.29771 0.453275 2.8639
-0.188332 0.993181 1.64485
-0.28734 0.019272 0.751859
0.00953461 0.0131568 0.0186834
0.0074957 0.0200455 -0.0282403
0.0130533 0.00527854 0.0654126
0.0198754 -0.128766 0.593873
3.84239 -1.31873 3.70974
-0.00223173 0.00573226 0.408095
0.0168929 0.0144343 0.142939
0.0519131 -0.024132 -0.0429458
0.0253757 0.0109689 0.510924
0.187098 0.990607 1.64062
2.23693 0.457806 2.79496
0.287266 0.0192886 0.751716
-0.0101426 0.0207813 -0.0285899
-0.00992062 0.0149126 0.0180315
-0.0130188 0.00556282 0.0640664
0.00763672 0.0009686 0.181322
-6.43082e-05 0.000206986 0.025784
0 0 0
0.000252545 2.32861e-05 0.00237577
-0.0127205 0.0175801 0.381547
-0.00410617 0.00212827 0.126224
0 0 0
9.54104e-05 4.08518e-05 0.00376114
-0.0552458 -0.035464 0.294829
-4.24356e-05 0.000222494 0.00577998
0.000240661 0.000777765 0.00723083
-0.0061645 0.00746591 0.0207572
0 0 0
0.00680042 0.0287881 0.128101
0 0 0
0.0109796 -0.000911492 0.137371
-0.00714792 0.0010125 0.167723
-0.000251511 2.32864e-05 0.00236979
5.06752e-05 0.000193573 0.0233614
0 0 0
0.0129136 0.0176916 0.380807
-0.00010111 4.25375e-05 0.00391883
0.00404355 0.00216026 0.125345
0 0 0
0.0560868 -0.0360295 0.29792
0.00581099 0.00702535 0.0195431
4.72998e-05 0.000245434 0.00636053
-0.000254875 0.000825955 0.00768428
0 0 0
-0.0110474 -0.000930042 0.137363
-0.00683821 0.0289683 0.129405
0 0 0
-0.00639498 -0.00650203 0.0528298
0 0 0
-8.30378e-07 1.22987e-06 5.33749e-06
0 0 0
0 0 0
1.36409e-05 1.2256e-06 7.30325e-05
0.000482791 0.00315726 0.0206154
-0.0403898 0.0277903 -0.0129619
0 0 0
0 0 0
0 0 0
3.4492e-06 2.59764e-06 0.000210552
-7.531e-05 0.231491 0.158015
3.36008e-08 0.000370938 0.00133299
0 0 0
2.87717e-17 -1.86944e-17 -8.38235e-17
-0.000266202 0.00507743 -0.00012725
0 0 0
0 0 0
3.49627e-05 -3.91802e-05 0.00050676
0 0 0
0.00669021 -0.0066821 0.055164
-1.47187e-05 1.33522e-06 7.91433e-05
1.21895e-18 -1.54368e-19 5.47334e-17
0.0403881 0.0302512 -0.0135746
-0.000431546 0.00332975 0.0207371
-3.37419e-06 2.28263e-06 0.000184814
0 0 0
0 0 0
-2.02839e-18 1.57868e-17 -1.14496e-16
-3.46637e-05 -3.7259e-05 0.000481909
-1.07293e-17 2.69489e-17 1.15206e-16
0 0 0
-1.96449e-06 -2.06885e-07 -3.77915e-05
0 0 0
-4.44833e-06 0.000124033 0.00155273
9.83441e-07 -6.53182e-07 -4.85421e-05
-8.2947e-08 2.66697e-08 6.96876e-06
-4.07147e-05 0.00200817 0.0145705
0 0 0
-1.92341e-08 -7.14474e-09 -3.31744e-06
4.74295e-08 1.44866e-07 2.12711e-05
0.000123538 0.00281022 0.0185153
-0.0136271 0.0257483 0.247601
-4.43985e-09 -4.98074e-05 -0.000140732
-1.66466e-07 0.000274228 0.00101123
-2.07689e-20 1.95587e-18 5.80301e-17
0 0 0
1.61238e-06 -1.71125e-07 -3.10731e-05
0 0 0
0 0 0
3.61908e-06 0.000100334 0.00125026
4.09123e-05 0.00198885 0.0144067
0 0 0
0.0116841 0.0218019 0.212028
-0.000125159 0.00284307 0.0187494
-0.0114065 -0.0109646 0.143056
-0.0396934 -0.0426043 0.245167
-0.000737982 0.000491695 0.0231749
-0.00185949 -0.00256154 0.0368913
0 0 0
5.2711e-06 0.00114252 0.0103485
0 0 0
0.00024162 0.00608719 0.0329793
-0.00453005 0.0112607 0.0683859
3.55569e-18 1.5193e-17 5.47662e-17
5.09563e-06 4.72665e-05 0.000368162
0 0 0
1.72131e-05 5.66654e-06 8.74988e-05
-1.93618e-05 6.40059e-06 9.86065e-05