# vtk DataFile Version 2.0
tet_velo
ASCII
DATASET UNSTRUCTURED_GRID
POINTS 29498 float
-0.734092 0.505 -2.155
-0.764947 0.535 2.185
-0.715 0.995 -2.17982
-0.645 1.49727 1.985
0.734087 0.505 -2.155
0.76495 0.535 2.185
0.715 0.995 -2.17982
0.645 1.49727 1.985
-0.775841 0.483536 -0.708333
-0.796026 0.483636 0.738333
-0.766908 1.23766 -0.791547
-0.717214 1.37873 0.596727
0.77584 0.483534 -0.708333
0.796026 0.483636 0.738333
0.762892 1.23365 -0.791547
0.71721 1.37872 0.596727
-1.48782 0.055851 -3.24337
-1.49228 0.133862 -2.10942
-1.51919 0.115944 -0.661243
-1.52711 0.0790681 0.798686
-1.5064 0.106462 2.24785
-1.50209 0.170027 3.38665
-1.50776 0.247295 4.51647
-1.48678 0.381519 -3.27677
-1.49045 0.488192 -2.1492
-1.52381 0.50669 -0.712386
-1.52041 0.508239 0.729684
-1.48294 0.557299 2.16762
-1.48892 0.621807 3.30559
-1.50252 0.694929 4.43731
-1.47977 0.974426 -3.32718
-1.4774 1.07549 -2.1972
-1.50942 1.25739 -0.800196
-1.46194 1.38249 0.592674
-1.4003 1.48796 1.9908
-1.44523 1.54609 3.13118
-1.48566 1.60263 4.27233
-1.48182 2.0341 -3.44671
-1.48284 2.16193 -2.32548
-1.49081 2.38544 -0.947402
-1.47999 2.60327 0.418086
-1.46396 2.76308 1.79677
-1.47115 2.84883 2.91928
-1.49057 2.91303 4.05405
-0.741624 0.0656183 -3.24713
-0.735651 0.149078 -2.11491
-0.760101 0.107297 -0.660505
-0.777804 0.0584206 0.806068
-0.767759 0.0859838 2.26076
-0.769686 0.156145 3.3954
-0.776246 0.238553 4.52153
-0.744356 0.381051 -3.27793
-0.770289 0.611552 3.31281
-0.777834 0.688732 4.44113
-0.738983 0.94059 -3.31996
-0.736405 1.54857 3.13002
-0.769461 1.60332 4.27208
-0.737427 2.00705 -3.43957
-0.736319 2.13441 -2.31761
-0.748531 2.37323 -0.942661
-0.749941 2.60629 0.417517
-0.744003 2.77196 1.79271
-0.752627 2.85686 2.91522
-0.769394 2.9187 4.0511
0.743133 0.0651391 -3.24713
0.756361 0.148823 -2.11491
0.780361 0.107126 -0.660505
0.786554 0.0583493 0.806068
0.760935 0.0859398 2.26076
0.72078 0.156057 3.3954
0.698366 0.238398 4.52154
0.729796 0.38064 -3.27793
0.698615 0.611491 3.31281
0.683277 0.688593 4.44113
0.722669 0.940048 -3.31996
0.657343 1.5485 3.13002
0.663799 1.60316 4.27208
0.744431 2.00589 -3.43957
0.748277 2.13301 -2.31761
0.73705 2.37171 -0.942661
0.709472 2.60544 0.417517
0.68574 2.77156 1.79271
0.675803 2.85654 2.91522
0.66981 2.91838 4.0511
1.49096 0.0545985 -3.24337
1.50532 0.132696 -2.10942
1.53567 0.115023 -0.661243
1.54273 0.0787342 0.798686
1.51043 0.106279 2.24785
1.46877 0.169784 3.38665
1.44207 0.246939 4.51647
1.47727 0.380237 -3.27677
1.48886 0.486733 -2.1492
1.52709 0.505278 -0.712386
1.53167 0.507986 0.729684
1.49047 0.557193 2.16762
1.44478 0.621613 3.30559
1.42413 0.6946 4.43731
1.46737 0.972808 -3.32718
1.47342 1.07324 -2.1972
1.50644 1.25344 -0.800196
1.46751 1.3818 0.592674
1.40248 1.4878 1.9908
1.39213 1.54585 3.13118
1.3957 1.60226 4.27233
1.48591 2.03177 -3.44671
1.48939 2.15922 -2.32548
1.47996 2.38269 -0.947403
1.44736 2.60161 0.418086
1.41427 2.76221 1.79677
1.40138 2.84814 2.91928
1.397 2.91236 4.05405
-0.743448 0.75 -2.18631
-2.5034e-06 0.488129 -2.17187
-0.76662 0.482615 -1.43167
-0.767274 1.01614 2.1473
1.49012e-06 0.547011 2.17299
-0.792152 0.497653 1.46167
0 1.07903 -2.26385
-0.758318 1.1337 -1.48568
0 1.52899 2.01672
-0.691826 1.44872 1.29086
0.743476 0.75 -2.18634
0.766621 0.48261 -1.43167
0.767275 1.01614 2.1473
0.791987 0.497819 1.46167
0.758316 1.13369 -1.48568
0.691823 1.44871 1.29086
-0.785964 0.483556 0.015
-0.864862 0.8606 -0.74994
-5.71632e-07 0.480046 -0.708333
-0.874695 0.931182 0.66753
1.58946e-07 0.482282 0.738333
-0.742556 1.30869 -0.09741
-0.00200783 1.52596 -0.791547
-1.66217e-06 1.79899 0.596727
0.785963 0.483556 0.015
0.864946 0.858592 -0.74994
0.87469 0.93118 0.66753
0.742561 1.3087 -0.09741
-0.87064 0.8053 -1.45868
-0.86283 0.895891 -0.041205
-0.876507 0.973658 1.37627
-1.53751e-06 0.473434 -1.43167
-2.06343e-07 0.481237 0.015
8.24531e-07 0.497819 1.46167
-1.2517e-06 0.75 -2.33235
7.45058e-07 1.01614 2.24
-0.00100392 1.2302 -1.48568
-0.00100475 1.74594 -0.09741
-8.31083e-07 1.79903 1.29086
0.87063 0.804296 -1.45868
0.862764 0.894886 -0.041205
0.876508 0.973657 1.37627
-1.11227 0.496596 -2.1521
-0.734871 0.327039 -2.13496
-0.739224 0.443025 -2.71646
-1.12394 0.54615 2.17631
-0.766353 0.310492 2.22288
-0.767618 0.573276 2.7489
-1.0962 1.03525 -2.18851
-0.726992 0.967795 -2.74989
-0.72566 1.56471 -2.24872
-1.02265 1.49261 1.9879
-0.690703 1.52292 2.55751
-0.694501 2.13461 1.88885
0.745224 0.326911 -2.13496
0.731942 0.44282 -2.71646
1.11147 0.495867 -2.1521
0.762943 0.31047 2.22288
0.731783 0.573245 2.7489
1.12771 0.546096 2.17631
0.718835 0.967524 -2.74989
0.731638 1.564 -2.24872
1.09421 1.03412 -2.18851
0.651172 1.52288 2.55751
0.66537 2.13441 1.88885
1.02374 1.49254 1.9879
-1.14983 0.495113 -0.71036
-0.767971 0.295416 -0.684419
-1.15822 0.495937 0.734009
-0.786915 0.271028 0.772201
-1.13816 1.24753 -0.795871
-0.757719 1.80544 -0.867104
-1.08958 1.38061 0.5947
-0.733577 1.99251 0.507122
0.778101 0.29533 -0.684419
1.15146 0.494406 -0.71036
0.79129 0.270993 0.772201
1.16385 0.495811 0.734009
0.749971 1.80268 -0.867104
1.13467 1.24354 -0.795871
0.713341 1.99208 0.507122
1.09236 1.38026 0.5947
-1.49005 0.0948566 -2.67639
-1.4873 0.218685 -3.26007
-1.11472 0.0607346 -3.24525
-1.50573 0.124903 -1.38533
-1.49136 0.311027 -2.12931
-1.11396 0.14147 -2.11217
-1.52315 0.0975059 0.0687216
-1.5215 0.311317 -0.686814
-1.13964 0.11162 -0.660874
-1.51676 0.0927651 1.52327
-1.52376 0.293653 0.764185
-1.15246 0.0687444 0.802377
-1.50425 0.138244 2.81725
-1.49467 0.331881 2.20773
-1.13708 0.0962229 2.2543
-1.50493 0.208661 3.95156
-1.49551 0.395917 3.34612
-1.13589 0.163086 3.39102
-1.50514 0.471112 4.47689
-1.142 0.242924 4.519
-1.48861 0.434855 -2.71298
-1.48328 0.677972 -3.30198
-1.11557 0.381285 -3.27735
-1.50713 0.497441 -1.43079
-1.48392 0.781842 -2.1732
-1.52211 0.507464 0.00864916
-1.51662 0.882042 -0.756291
-1.50167 0.532769 1.44865
-1.49117 0.945364 0.661179
-1.48593 0.589553 2.7366
-1.44162 1.02263 2.07921
-1.49572 0.658368 3.87145
-1.46708 1.08395 3.21839
-1.12961 0.61668 3.3092
-1.49409 1.14878 4.35482
-1.14018 0.69183 4.43922
-1.47859 1.02496 -2.76219
-1.4808 1.50426 -3.38695
-1.10938 0.957508 -3.32357
-1.49341 1.16644 -1.4987
-1.48012 1.61871 -2.26134
-1.48568 1.31994 -0.103761
-1.50011 1.82142 -0.873799
-1.43112 1.43522 1.29174
-1.47096 1.99288 0.50538
-1.42277 1.51702 2.56099
-1.43213 2.12552 1.89379
-1.46544 1.57436 3.70175
-1.45819 2.19746 3.02523
-1.09082 1.54733 3.1306
-1.48811 2.25783 4.16319
-1.12756 1.60297 4.2722
-1.48233 2.09801 -2.8861
-1.10962 2.02058 -3.44314
-1.48682 2.27368 -1.63644
-1.10958 2.14817 -2.32154
-1.4854 2.49435 -0.264658
-1.11967 2.37933 -0.945032
-1.47198 2.68318 1.10743
-1.11496 2.60478 0.417802
-1.46756 2.80596 2.35803
-1.10398 2.76752 1.79474
-1.48086 2.88093 3.48666
-1.11189 2.85285 2.91725
-1.12998 2.91586 4.05257
-0.738638 0.107348 -2.68102
-0.74299 0.223335 -3.26253
0.000754183 0.0653787 -3.24713
-0.747876 0.128188 -1.38771
0.0103553 0.148951 -2.11491
-0.768952 0.0828588 0.0727812
0.0101303 0.107211 -0.660505
-0.772781 0.0722022 1.53341
0.00437502 0.058385 0.806068
-0.768723 0.121064 2.82808
-0.00341191 0.0859618 2.26076
-0.772966 0.197349 3.95847
-0.769988 0.383848 3.35411
-0.0244531 0.156101 3.3954
-0.77704 0.463642 4.48133
-0.0389398 0.238475 4.52153
-0.74167 0.66082 -3.29895
-0.00727984 0.380845 -3.27793
-0.774061 0.650142 3.87697
-0.753347 1.08006 3.22142
-0.035837 0.611521 3.31281
-0.773647 1.14603 4.35661
-0.0472785 0.688663 4.44113
-0.738205 1.47382 -3.37977
-0.00815714 0.940319 -3.31996
-0.752933 1.57595 3.70105
-0.744516 2.20272 3.02262
-0.039531 1.54854 3.13002
-0.769428 2.26101 4.16159
-0.052831 1.60324 4.27208
-0.736873 2.07073 -2.87859
0.00350187 2.00647 -3.43957
-0.742425 2.25382 -1.63014
0.00597876 2.13371 -2.31761
-0.749236 2.48976 -0.262572
-0.00574023 2.37247 -0.942661
-0.746972 2.68912 1.10511
-0.0202345 2.60587 0.417517
-0.748315 2.81441 2.35397
-0.0291315 2.77176 1.79271
-0.761011 2.88778 3.48316
-0.0384119 2.8567 2.91522
-0.0497919 2.91854 4.0511
0.749747 0.106981 -2.68102
0.736464 0.222889 -3.26253
1.11705 0.0598688 -3.24525
0.768361 0.127974 -1.38771
1.13084 0.140759 -2.11217
0.783457 0.0827376 0.0727812
1.15801 0.111074 -0.660874
0.773744 0.0721446 1.53341
1.16464 0.0685417 0.802377
0.740858 0.120998 2.82808
1.13568 0.0961094 2.2543
0.709573 0.197227 3.95847
0.709698 0.383774 3.35411
1.09477 0.16292 3.39102
0.690821 0.463496 4.48134
1.07022 0.242668 4.519
0.726233 0.660344 -3.29895
1.10353 0.380438 -3.27735
0.690946 0.650042 3.87697
0.677979 1.07999 3.22142
1.0717 0.616552 3.3092
0.673538 1.14588 4.35661
1.0537 0.691597 4.43922
0.73355 1.47297 -3.37977
1.09502 0.956428 -3.32357
0.660571 1.57583 3.70105
0.666573 2.20252 3.02262
1.02474 1.54717 3.1306
0.666805 2.26077 4.16159
1.02975 1.60271 4.2722
0.746354 2.06945 -2.87859
1.11517 2.01883 -3.44314
0.742664 2.25236 -1.63014
1.11884 2.14611 -2.32154
0.723261 2.48858 -0.262572
1.10851 2.3772 -0.945032
0.697606 2.6885 1.10511
1.07842 2.60353 0.417801
0.680771 2.81405 2.35397
1.05 2.76688 1.79474
0.672807 2.88746 3.48316
1.03859 2.85234 2.91725
1.0334 2.91537 4.05257
1.49814 0.0936473 -2.67639
1.48412 0.217418 -3.26007
1.52049 0.123859 -1.38533
1.49709 0.309715 -2.12931
1.5392 0.0968784 0.0687215
1.53138 0.31015 -0.686814
1.52658 0.0925066 1.52327
1.5372 0.29336 0.764185
1.4896 0.138031 2.81725
1.50045 0.331736 2.20773
1.45542 0.208361 3.95156
1.45677 0.395698 3.34612
1.4331 0.470769 4.47689
1.48307 0.433485 -2.71298
1.47232 0.676522 -3.30198
1.50797 0.496005 -1.43079
1.48114 0.779987 -2.1732
1.52938 0.506632 0.00864907
1.51676 0.879357 -0.756291
1.51107 0.532589 1.44865
1.49959 0.944895 0.661179
1.46762 0.589403 2.7366
1.44647 1.0225 2.07921
1.43446 0.658107 3.87145
1.41846 1.08373 3.21839
1.40992 1.14843 4.35482
1.4704 1.02302 -2.76219
1.47664 1.50229 -3.38695
1.48993 1.16334 -1.4987
1.48141 1.61623 -2.26134
1.48698 1.31762 -0.103761
1.4932 1.81806 -0.873799
1.435 1.4348 1.29174
1.45744 1.99171 0.50538
1.39731 1.51683 2.56099
1.40837 2.12501 1.89379
1.39392 1.57406 3.70176
[...]
POINT_DATA 29498
VECTORS point_vectors float
-2.98968 -4.36484 10.1762
0.331394 0.442583 2.37011
-4.5725 3.73278 6.77205
-0.0631097 -0.106285 0.123686
2.98976 -4.36332 10.1927
-0.33246 0.443604 2.37286
4.56456 3.72605 6.76137
0.0636777 -0.107701 0.123646
0.00296824 -2.95015e-05 0.041649
0.019062 -0.00155563 0.219033
-0.0114007 -0.0107102 0.0804841
-2.29009e-06 -6.33394e-06 -2.92243e-05
-0.00294745 -3.81844e-05 0.041059
-0.0177271 -0.00139472 0.220621
0 0 0
1.07418e-05 -2.96281e-05 -0.000138345
-0.608525 -0.385763 19.8929
-1.21764 -0.849161 20.619
-0.396783 -0.516291 21.4169
0.0912705 -0.221269 21.5795
0.699972 0.14794 21.6157
1.01697 0.400775 21.1657
1.00446 0.144158 21.0301
-0.695278 -0.315852 19.7455
-1.69598 -0.739543 20.5117
-0.633123 -0.658376 21.4638
-0.00734728 -0.400625 21.677
0.890599 -0.167572 21.7553
1.40922 -0.0523099 21.3861
1.1855 -0.160039 21.0399
-0.766098 -0.0251791 19.6474
-2.00007 0.112472 20.2385
-1.46718 -0.436122 21.4246
-0.564983 -0.460258 21.7807
0.121471 -0.687478 21.7953
0.727564 -0.799469 21.4514
0.688983 -0.662825 21.1785
-0.419264 0.243726 19.8746
-0.82982 0.529217 20.1925
-0.928003 0.473719 20.9615
-0.538306 0.143672 21.5174
-0.201768 -0.138417 21.429
-0.0168554 -0.261358 21.2562
0.0283541 -0.256348 21.5152
-0.566521 -0.739466 19.3397
-1.74101 -3.1787 21.1505
-0.172514 -0.41903 21.7802
0.164169 0.0131538 21.661
0.720704 1.0869 21.5811
1.31695 1.78257 20.6737
1.51563 1.26684 18.8115
-0.710111 -0.586911 18.9666
2.74435 0.96828 12.906
2.15968 0.750739 17.2691
-0.758633 -0.010558 18.8043
0.0597627 -1.29249 8.77833
0.918076 -1.46897 13.6544
-0.358715 0.443833 19.5705
-0.841089 1.29263 19.8224
-1.10427 1.43579 20.8716
-0.561463 0.522416 21.7221
-0.17424 0.00372471 21.5412
-0.0401789 -0.221717 21.4718
0.147685 -0.424888 21.091
0.567162 -0.735638 19.3401
1.76128 -3.07258 21.1153
0.169093 -0.420311 21.7655
-0.16526 0.015947 21.6717
-0.708808 1.09121 21.578
-1.3069 1.86087 20.6362
-1.5103 1.34481 18.3033
0.695011 -0.598216 18.9409
-2.53292 1.25851 11.8286
-2.24058 0.918436 16.7042
0.752114 -0.00187624 18.7752
0.178297 -0.90755 5.35933
-1.06293 -1.48522 9.87092
0.362818 0.4432 19.5723
0.854054 1.27987 19.8262
1.09883 1.45381 20.8685
0.541885 0.556837 21.7514
0.172328 0.0149658 21.5483
0.0874343 -0.234938 21.5024
-0.177221 -0.427918 21.0756
0.613359 -0.382864 19.8909
1.20478 -0.830255 20.6191
0.404304 -0.514896 21.4054
-0.0833614 -0.223178 21.5657
-0.690415 0.146647 21.6202
-1.0413 0.415167 21.1601
-0.981489 0.187335 21.2151
0.699548 -0.323283 19.743
1.70274 -0.745287 20.5178
0.633027 -0.656718 21.4715
0.0105011 -0.39521 21.6789
-0.872919 -0.171336 21.7556
-1.48868 -0.0507385 21.4197
-1.41933 -0.239931 20.7135
0.769701 -0.0276176 19.6371
2.01314 0.110623 20.2473
1.47263 -0.443211 21.4232
0.559649 -0.457042 21.7741
-0.118675 -0.688259 21.8017
-0.74305 -0.904861 21.5611
-0.701797 -0.858765 21.5477
0.4213 0.241937 19.8761
0.831361 0.525368 20.1953
0.937818 0.484534 20.9614
0.538068 0.155166 21.5266
0.210815 -0.141191 21.428
-0.00154481 -0.256871 21.2066
-0.0599847 -0.286677 21.4175
-3.88439 -0.102928 4.06935
-4.71101e-05 -0.0502543 0.19347
0.096875 -0.0573595 1.30594
0.0417984 -0.150374 0.0904032
-1.20111e-05 0.0118183 0.0691684
0.0459872 0.0256527 1.37629
-0.00231026 4.54817 3.10377
-0.0291137 -0.0128307 0.0581118
-1.13373e-05 0.0196561 -0.0233482
0 0 0
3.8981 -0.0980436 4.09666
-0.0977648 -0.0591647 1.30364
-0.042084 -0.150478 0.0904215
-0.0462629 0.0254575 1.37101
0.0298142 -0.013102 0.0595064
0 0 0
0.00657818 6.22199e-05 0.425573
4.40969e-06 -9.52863e-06 0.000453472
7.90549e-09 2.68509e-06 0.000645585
0.000316631 0.00911549 0.0502667
4.28988e-06 1.31602e-05 0.00182944
0.000204951 0.000615805 0.00188664
7.65429e-06 0.0542657 0.0966124
3.66406e-07 1.29061e-05 0.00128007
-0.00655596 5.39231e-05 0.426494
-2.12892e-05 -4.86283e-05 0.00223749
-0.000319699 0.00911104 0.0501801
-0.000191475 0.000574811 0.0017797
0 0 0
0 0 0
0 0 0
-1.301e-09 -2.53082e-08 -4.70216e-05
5.18671e-10 3.40111e-09 2.3886e-06
3.57237e-08 1.19783e-07 7.25647e-06
-0.00240857 -0.255706 0.349246
-1.96138e-05 -0.0109708 0.000422923
0.00230136 0.00130058 0.0365711
7.25509e-06 0.00687195 0.0625194
3.97362e-07 3.06431e-06 0.00260961
0 0 0
0 0 0
0 0 0
-3.30455 -1.8406 20.5428
-2.90067 -4.83779 21.4876
-2.0258 -1.84467 17.9421
1.45712 0.191341 19.5303
1.0002 1.32296 17.6156
1.67671 0.955386 9.30609
-4.12896 0.739615 19.8919
-2.42897 0.440522 16.9997
-2.04377 2.47734 19.388
0.0577533 -0.720336 18.6675
-1.01094 -1.21284 4.9272
-0.455525 -0.188087 21.8184
2.90973 -4.74248 21.4439
2.02305 -1.86568 17.9172
3.30462 -1.85226 20.5478
-0.99409 1.32293 17.5866
-1.55581 0.868935 8.29553
-1.45354 0.18294 19.6318
2.42133 0.447573 16.9394
2.04994 2.45264 19.3934
4.14858 0.743774 19.8841
1.27932 -1.24371 3.46347
0.461241 -0.171896 21.7461
-0.0576558 -0.724295 18.73
-0.357027 -0.999134 21.3594
0.330775 -0.16741 17.9119
0.137482 -0.449979 20.1984
0.432384 0.0192148 17.9163
-2.55543 -1.00019 21.5281
-3.06657 2.29963 20.7372
-0.77052 -0.730225 20.3889
-1.26815 0.518116 22.1277
-0.316871 -0.191239 18.1742
0.358315 -0.997306 21.3729
-0.429137 0.0275245 17.9757
-0.138896 -0.454676 20.2917
3.09136 2.35337 20.7143
2.5525 -1.024 21.4955
1.28846 0.559561 22.1234
0.774617 -0.724225 20.4101
-0.986293 -0.648494 20.0643
-0.642934 -0.362898 19.7996
-0.660031 -0.594883 19.6658
-0.786109 -0.706232 21.2336
-1.48693 -0.842756 20.5687
-1.63266 -1.66794 20.769
-0.124142 -0.359889 21.5138
-0.475499 -0.590718 21.4682
-0.222749 -0.591789 21.5989
0.353932 -0.0601568 21.6688
0.0739555 -0.310754 21.6409
0.190854 -0.171031 21.7271
0.956061 0.288594 21.4561
0.824233 0.0365502 21.6995
0.898429 0.536975 21.8062
1.13936 0.298521 20.6581
1.23299 0.159508 21.2493
1.25219 0.862477 21.3059
1.1282 0.0785731 21.2444
1.18357 0.585995 20.7838
-1.25499 -0.546596 19.8618
-0.744534 -0.175596 19.6557
-0.810812 -0.452427 19.3852
-1.17248 -0.740353 21.2695
-2.0797 -0.373669 20.3553
-0.260947 -0.520719 21.5754
-1.02539 -0.667952 21.5044
0.338634 -0.294699 21.7954
-0.238635 -0.523873 21.7458
1.21761 -0.120096 21.6036
0.673276 -0.628451 21.7374
1.24227 -0.0461939 21.2814
1.16111 -0.678277 21.6182
2.10588 0.544488 20.388
1.04365 -0.413838 21.2848
1.82297 0.0580128 19.2429
-1.38649 0.0487347 19.6573
-0.610498 0.182114 19.7325
-0.858838 0.0240694 19.2698
-1.78287 -0.165924 21.0213
-1.35787 0.545485 20.1444
-0.999633 -0.489966 21.7038
-1.43959 0.282807 21.1427
-0.219829 -0.520318 21.8334
-0.692575 -0.0667839 21.6494
0.401658 -0.790069 21.6836
-0.160411 -0.322967 21.598
0.856503 -0.757005 21.7551
0.202048 -0.528534 21.5149
0.794025 -1.13483 20.5823
0.284359 -0.659506 20.6774
0.75535 -1.40492 20.9749
-0.639911 0.386013 19.9719
-0.439916 0.355311 19.745
-0.91911 0.561923 20.5539
-0.924246 0.88133 20.015
-0.791645 0.353079 21.3078
-1.10353 0.881559 20.938
-0.351714 -0.0144594 21.5422
-0.55504 0.287501 21.6598
-0.104244 -0.241428 21.4739
-0.213832 -0.1029 21.4669
0.087883 -0.314356 21.1698
-0.0287903 -0.278494 21.4683
0.14524 -0.386544 21.0215
-1.2333 -1.88956 19.2236
-0.634822 -0.719692 19.1645
0.00110836 -1.03922 19.0601
-0.648373 -1.12546 22.0777
0.033642 -4.59794 21.6662
0.00688933 -0.17282 21.6008
0.00855249 -0.588905 20.9539
0.391552 0.41548 21.5805
0.00119788 -0.0777781 20.4133
1.05081 1.48978 20.9529
0.00313872 1.07529 20.0811
1.16226 1.48832 18.9494
1.89417 1.67535 17.8539
0.0201143 2.06366 19.3677
1.89175 1.36879 17.4809
0.161852 1.94869 18.5447
-0.768733 -0.354679 18.799
-0.00678966 -0.833461 18.439
2.54326 1.73843 14.585
1.6877 -0.749917 7.54187
0.178272 1.85831 5.72504
1.91457 -0.520708 13.424
0.200989 2.96569 10.5414
-0.567237 0.395952 19.1563
-0.0121905 0.098711 18.116
0.715448 -1.64603 12.0036
-0.103897 -0.659466 21.6741
-0.045361 1.64727 -8.2747
0.0220345 -0.758447 22.323
0.115582 3.49311 -0.1505
-0.578156 0.859825 19.544
0.0031506 0.56782 19.4182
-1.01245 1.42584 20.3165
0.00684124 1.73215 19.647
-0.917726 1.11043 21.5491
-0.0104221 2.26153 20.6974
-0.332766 0.188992 21.7099
-0.0201942 0.859598 21.9398
-0.14063 -0.163985 21.6045
-0.0148583 0.0816496 21.5237
0.0527283 -0.378025 21.1929
-0.023895 -0.199621 21.7735
-0.0320561 -0.361484 20.471
1.24355 -1.86099 19.2448
0.636452 -0.724968 19.1625
0.664052 -0.59547 19.662
0.657395 -1.12698 22.0837
1.61811 -1.61842 20.7501
-0.0102004 -0.17286 21.6059
0.235203 -0.593978 21.5909
-0.389272 0.414039 21.5858
-0.186461 -0.172171 21.7257
-1.01636 1.52224 20.9183
-0.89182 0.53729 21.8061
-1.05038 1.61799 18.9623
-1.77406 1.92598 17.1428
-1.26467 0.982525 21.2253
-1.96722 1.51811 17.0011
-1.25089 0.731008 20.3861
0.762585 -0.365307 18.7793
0.81151 -0.456137 19.3785
-2.49777 2.01489 13.845
-1.5266 -0.29603 5.88744
-2.27174 0.598952 19.0782
-2.12126 -0.28359 10.7364
-1.90131 0.222586 18.7767
0.56533 0.397114 19.1511
0.865723 0.0269996 19.2468
-0.570357 -1.68913 9.24299
0.2106 -0.580995 21.4564
-0.856149 -1.22299 20.0684
0.266185 -0.917737 21.7999
-0.767812 -1.41228 19.3261
0.582894 0.855794 19.5479
0.442445 0.35438 19.7463
1.01537 1.42731 20.3162
0.929923 0.875253 20.0178
0.903488 1.14002 21.5501
1.112 0.897612 20.9348
0.311401 0.220111 21.71
0.560776 0.320503 21.6695
0.136774 -0.156082 21.5857
0.209029 -0.083152 21.4824
-0.0501905 -0.353295 21.2343
0.0385066 -0.261472 21.529
-0.197465 -0.461925 20.6649
0.976606 -0.637996 20.0739
0.650077 -0.368037 19.8017
0.787983 -0.696075 21.2194
1.47383 -0.835061 20.5728
0.129703 -0.362217 21.5174
0.481775 -0.583204 21.4691
-0.347389 -0.0637507 21.6599
-0.0683293 -0.308236 21.6367
-0.963436 0.298504 21.4573
-0.811006 0.034888 21.698
-1.21894 0.356895 20.7097
-1.25986 0.182995 21.2507
-1.25704 0.172688 20.9781
1.25927 -0.554376 19.8627
0.746395 -0.177318 19.6508
1.17471 -0.740235 21.279
2.08682 -0.381559 20.357
0.260857 -0.521745 21.581
1.02513 -0.665096 21.5047
-0.333072 -0.295098 21.7963
0.236695 -0.515427 21.7503
-1.24515 -0.130716 21.604
-0.662851 -0.621583 21.7343
-1.37718 -0.00782561 21.3506
-1.18595 -0.678739 21.6899
-1.29838 -0.513554 20.9301
1.40128 0.0484581 19.646
0.606978 0.183254 19.7271
1.78893 -0.168877 21.0285
1.35776 0.542612 20.1493
0.996005 -0.492421 21.703
1.45143 0.288263 21.144
0.220988 -0.514578 21.8133
0.701939 -0.0628511 21.6579
-0.395007 -0.81665 21.7003
0.162543 -0.330962 21.6447
-0.944262 -0.761547 21.5175
-0.182823 -0.554169 21.4425
-0.248293 -0.673957 21.2251
0.642654 0.382708 19.9729
0.924206 0.563577 20.5535
0.804028 0.368174 21.3162
0.35056 -0.0172302 21.5181
0.121989 -0.23528 21.5197
-0.0567211 -0.326323 21.2914
-1.13367 -0.61473 19.9556
-1.65042 -2.02651 18.6277
-1.22299 -1.15895 19.7566
-1.78055 -0.954471 19.208
-0.692945 -0.539635 19.5198
-2.34339 -1.87665 20.7064
-0.962173 -0.743352 21.2747
-0.289561 -0.727426 19.6649
-0.745637 -1.01094 21.5532
-1.29037 -1.38503 21.9114
-0.230808 -0.757258 21.6577
-0.16851 -0.443442 21.547
0.313302 -0.0184989 17.6187
0.0138023 -0.346056 21.6286
0.0238131 -0.645659 20.6094
0.227063 -0.321825 21.5191
0.381014 -0.176154 21.7513
0.588748 0.422967 17.4071
0.489783 0.122288 21.8669
0.56838 -0.195945 19.8099
1.23973 0.476078 21.3107
1.10631 0.136156 21.5624
1.4417 1.65342 17.1692
1.17228 0.777373 21.5026
1.93479 0.246407 19.9834
1.83001 0.769939 20.3116
1.20401 0.204626 21.1695
1.8474 1.70096 17.1393
1.40695 0.591516 20.9678
2.05767 0.442379 19.9353
1.56301 0.685933 19.4413
-1.42664 -0.271735 19.7019
-2.47306 -0.87813 17.0728
-1.98239 0.202876 18.858
-0.854103 -0.262764 19.2811
-4.53091 -0.77432 20.1418
-1.57404 -0.562308 21.2208
-2.79573 -0.314134 21.3657
-0.977939 -1.38972 20.7963
-0.563899 -0.610433 21.6793
-1.53609 -1.04096 21.3116
-0.0375767 -0.463665 18.6194
0.12236 -0.529355 21.843
-0.302438 -0.505438 19.4707
1.09376 -0.531787 17.0844
1.00646 -0.684131 21.6436
0.380434 -1.66528 4.09961
0.185259 -0.987908 19.9818
1.67656 -0.852964 19.1948
1.23441 -0.532657 21.2683
1.86406 -0.169126 9.48724
1.1259 -1.22541 19.9237
1.92705 -0.820529 19.4065
-1.00846 0.397272 19.7937
-1.19784 1.23136 18.7526
-0.676012 0.606158 19.7682
-0.654746 0.292244 19.4779
-1.88659 1.23047 19.8137
-1.48894 0.451624 20.6886
-2.22222 2.01022 20.2819
-1.04571 0.944096 20.461
-2.17585 0.778536 21.163
-1.11733 0.0944565 21.5329
-2.48291 1.38555 22.3696
-0.88668 0.639808 21.4381
-0.947931 0.0947113 21.8892
-0.381948 -0.198252 21.6769
-0.684969 0.123622 21.8582
-0.364704 0.0696023 21.6337
-0.30041 -0.32694 21.7474
-0.000484815 -0.441977 21.5608
-0.383012 -0.320257 21.6319
-0.150333 -0.221249 21.6301
0.0872052 -0.697184 21.7399
0.323258 -0.558747 21.1328
0.217386 -0.879931 21.0214
0.0484999 -0.398552 21.4109
0.260409 -0.728433 21.761
1.65543 -2.02248 18.6377
0.0149213 -2.83351 18.6047
-0.0114311 -3.04183 16.2277
-0.00219514 -0.952089 18.8048
0.0209801 -7.17047 23.1159
0.298313 -0.743848 19.8263
0.0155206 -1.53876 22.4336
-0.00565837 -0.109855 11.4535
-0.310097 -0.0242328 17.783
0.00184447 -0.306654 20.1982
0.00154664 0.0191845 12.4274
-0.587574 0.421312 17.4248
-0.000510114 0.330884 19.9782
0.000945122 0.975793 12.7346
-1.34818 1.69663 16.7823
0.0098018 1.53791 19.2157
0.0110977 0.325768 3.84729
0.0279935 2.10909 13.3979
-1.81851 1.93797 16.49
0.0513881 2.39331 18.5794
0.371481 2.00585 8.11166
0.18069 1.98504 15.5712
2.46367 -0.89577 17.021
-0.0226956 1.03137 14.8277
-0.00983901 -0.475303 18.2036
-0.146045 -1.61183 3.16292
-0.0776414 1.46811 -6.14766
0.0797349 1.59774 -2.6592
-2.02049 0.00321171 6.64898
-0.233114 2.35729 -6.49742
0.105093 3.34066 2.37571
1.19883 1.23105 18.7501
0.00403061 1.15776 19.3161
-0.00215503 0.633428 18.7739
0.009892 3.97697 18.8619
2.22567 2.01265 20.2823
0.000743593 1.97401 20.118
-0.0204142 5.05237 19.7632
2.51628 1.44276 22.396
-0.0256707 1.80279 21.7014
-0.0236995 1.47524 21.9509
0.686061 0.146261 21.8093
-0.0168286 0.368333 21.823
-0.0180269 0.279048 20.22
0.415231 -0.279034 21.6044
-0.0211959 -0.109806 21.7345
-0.0787643 -0.263205 19.9775
-0.184199 -0.90833 20.4628
0.0347842 -0.396583 21.2621
-0.0297103 -0.71079 17.6435
1.13051 -0.61447 19.9585
1.22127 -1.14081 19.7698
1.79415 -0.971177 19.1969
0.698316 -0.541312 19.515
2.31951 -1.8419 20.7027
0.962492 -0.733651 21.2695
0.75936 -1.00561 21.5348
1.28913 -1.38352 21.911
0.243321 -0.753505 21.6563
0.17587 -0.442949 21.5486
-0.00580187 -0.349439 21.6273
-0.0198017 -0.648964 20.6649
-0.22431 -0.322314 21.5622
-0.371692 -0.17687 21.7433
-0.482782 0.117933 21.8648
-0.568967 -0.2018 19.9332
-1.23497 0.473786 21.3169
-1.11637 0.148912 21.5654
-1.18284 0.81213 21.4821
-1.98051 0.297149 19.7105
-1.84432 0.915092 20.2187
-1.29141 0.256478 21.206
-1.42584 0.649209 20.9216
-2.21604 0.712492 18.694
-1.62843 0.838059 18.9968
1.43527 -0.280505 19.6932
1.99355 0.206367 18.8322
0.853511 -0.266347 19.2645
4.54284 -0.781911 20.1314
1.57438 -0.564631 21.2254
2.79832 -0.324651 21.3652
0.973834 -1.38805 20.7834
0.560741 -0.607234 21.6753
1.52791 -1.02946 21.231
0.0412581 -0.486579 18.7563
-0.115696 -0.523643 21.8364
0.303642 -0.520252 19.5845
-1.0954 -0.535535 17.1761
-1.03214 -0.712397 21.6412
-0.155734 -0.973706 19.5348
-1.8148 -0.906478 17.8757
-1.3749 -0.577341 21.1883
-1.11385 -1.49111 20.0173
-1.95643 -0.841398 17.8861
1.00781 0.403098 19.7904
0.677718 0.601843 19.7717
0.654234 0.29295 19.4734
1.88391 1.22113 19.8166
1.49395 0.453801 20.6909
1.04873 0.945865 20.4597
2.20222 0.794087 21.1602
1.13035 0.0989304 21.5441
0.895166 0.666011 21.4481
0.961401 0.105827 21.8995
0.389018 -0.195909 21.6751
0.353356 0.0826606 21.6407
0.314954 -0.322652 21.7577
-0.000634358 -0.445656 21.5702
0.152257 -0.20919 21.6361
-0.0549391 -0.714484 21.7665
-0.28395 -0.55415 21.1361
-0.0731731 -0.392533 21.2836
-0.247364 -0.754223 21.7858
-1.51336 -1.10703 19.4825
-0.937432 -1.18138 21.7173
0.0604068 -0.475416 21.5104
0.613562 -0.00925262 21.4116
1.60923 0.651644 21.1595
1.97179 0.669836 19.9233
-2.05636 -0.457469 18.8777
-2.12827 -1.08744 21.5467
-0.280046 -1.0443 19.5459
0.289298 -0.213071 17.8212
1.41184 -0.847551 18.2722
2.20294 -0.977835 19.4762
-1.22965 0.727406 19.3776
-1.99544 1.00328 20.5696
-1.66416 0.417184 21.836
-0.546187 -0.128379 21.842
-0.150204 -0.483797 21.6954
0.202222 -0.861755 21.9219
0.00527748 -3.25947 17.5445
0.00291997 -0.647113 13.2022
-0.00318695 -0.0699646 11.6942
-0.0020047 0.274225 12.2949
0.0131844 1.2818 12.687
0.0614838 2.24562 13.4529
-0.0167995 -1.22636 14.6712
-0.019198 0.352918 -1.05883
0.442647 2.86055 -0.429809
0.00113995 1.94447 18.0257
-0.000637354 3.35891 19.6996
-0.0306038 3.52465 22.6196
-0.0167085 0.639891 21.4867
-0.0429509 0.355926 20.1496
0.0170603 -0.905953 17.7452
1.51292 -1.10312 19.489
0.946939 -1.17202 21.7009
-0.0499113 -0.479671 21.5432
-0.606648 -0.0145234 21.4416
-1.63025 0.705673 21.032
-2.06852 0.778607 19.6495
2.06713 -0.463565 18.8561
2.12945 -1.09113 21.5559
0.285127 -1.04704 19.5965
-0.289416 -0.228133 17.928
-1.40929 -0.84288 17.3482
-2.20403 -1.02502 17.6609
1.22967 0.726175 19.3758
2.0015 1.00391 20.5701
1.69166 0.429598 21.8522
0.55892 -0.117639 21.8506
0.191719 -0.470398 21.7026
-0.166436 -0.973234 22.2923
-2.96227 -1.01334 3.56052
-0.0165966 -0.3906 1.18731
0.00920731 -0.00312084 0.465403
0.098364 -0.222736 0.352852
0.000367585 0.0185682 0.0993355
0.0541321 0.0568755 1.13916
-2.53452 0.248894 2.18297
-2.25492 8.6268 3.95801
-0.0834813 0.00808685 0.211851
-0.0384615 -0.298706 0.387716
-0.0771666 0.00459444 -0.0134659
4.21224e-05 9.76994e-05 0.00719269
0.0146549 -0.386402 1.17844
2.94892 -1.0057 3.54709
-0.00853079 -0.00327352 0.468103
-0.00018615 0.0183194 0.0975453
-0.098354 -0.222681 0.352178
-0.0648936 0.0690449 1.33938
2.25782 8.64173 3.97589
2.55271 0.250225 2.19963
0.0838141 0.00819107 0.212297
0.0768 0.00462981 -0.0134667
0.0382721 -0.298888 0.38779
-4.10762e-05 9.2197e-05 0.0070043
0.0391344 -0.00811573 0.627645
0.0156124 0.000511119 0.535687
-0.000532301 0.00649283 0.0947893
0 0 0
0.00872179 0.00741468 0.352603
0.0154639 -0.00119082 0.3631
0 0 0
0 0 0
-0.298525 -0.152089 0.406316
-0.00887745 -0.0176955 0.259822
5.56128e-05 0.000146861 0.000535538
-0.31074 0.241446 0.547083
0 0 0
0.000138517 0.000254111 0.00122232
0 0 0
0.00117287 0.00063738 0.0195792
-0.0386161 -0.00789202 0.624126
0 0 0
-0.0156337 0.000491854 0.536664
0.000491971 0.00614199 0.0898711
-0.00991918 0.00673004 0.362678
0 0 0
-0.0155486 -0.00119395 0.363927
0 0 0
0.309779 -0.15801 0.422598
0.297247 0.239154 0.537864
0.00790638 -0.015858 0.226466
-5.3345e-05 0.000141156 0.000521903
0 0 0
-0.00127381 0.000647117 0.0201296
-0.000126113 0.000232457 0.00111537
0 0 0
-0.038558 -0.035262 0.355643
-1.08337 -0.806934 0.338468
-7.60115e-10 5.66721e-08 -7.90942e-06
0 0 0
-0.00158467 -0.00563294 0.0633024
1.49098e-05 1.13943e-07 0.000105942
0.000340717 -0.000421616 0.00680056
0 0 0
0 0 0
-0.000223987 -0.13749 0.0392293
0 0 0
4.02913e-05 1.13804e-05 0.000698467
-0.00213361 0.529195 0.0704937
0 0 0
0 0 0
0 0 0
0 0 0
1.78111e-07 -0.00274846 0.111309
0 0 0
0.00380015 0.000708689 0.11341
1.08568 -0.806351 0.337993
0.0397513 -0.0362278 0.365948
-2.53626e-05 1.95842e-07 0.000180195
0.00155547 -0.00543656 0.0616389
0 0 0
-0.000331283 -0.000407196 0.00659741
-3.96043e-07 1.1496e-07 6.91226e-06
0 0 0
0 0 0
0 0 0
-0.00378507 0.000711862 0.11337
0 0 0
-0.000100448 0.00235494 0.0390056
0 0 0
0 0 0
0 0 0
2.91573e-10 2.6732e-08 8.58529e-06
0 0 0
-0.000413975 0.0047705 0.0292313
0 0 0
-6.57485e-09 -1.46119e-08 -1.04651e-05
-9.28377e-08 3.4746e-07 3.98345e-05
0.0241647 0.0499909 0.209929
-0.00740066 0.00512916 0.0657329
2.04061e-06 -0.000270993 0.0018099
-3.30421e-06 0.0249471 0.0986709
-6.64477e-06 0.000284589 0.00462503
2.04611e-07 7.69995e-06 0.00240833
0 0 0
0.000117948 0.00246534 0.040893
0 0 0
0 0 0
0.000400888 0.00467844 0.028605
1.16231e-18 6.63095e-18 5.21189e-17
0.00763836 0.00528806 0.0678545
-0.0339334 0.0672724 0.286895
0 0 0
-0.0249258 -0.0140105 0.120372
0.000135563 -0.00194821 0.0461126
-0.00131383 -0.00478586 0.0184117
-0.000119921 0.00182921 0.0568038
0.0143819 0.0306253 0.152731
-0.000526412 0.00346874 0.0479331
0.0107388 0.0316743 0.122771
-0.000129929 3.18847e-05 0.0141878
0.00101261 0.00181213 0.01323
0.00320695 0.00165147 0.0423284
-0.000282847 -0.000916687 0.0184331
2.92295e-06 -5.73158e-07 7.19273e-05