# vtk DataFile Version 2.0
tri_press
ASCII
DATASET UNSTRUCTURED_GRID
POINTS 3682 float
-0.734092 0.505 -2.155
-0.764947 0.535 2.185
-0.715 0.995 -2.17982
-0.645 1.49727 1.985
0.734087 0.505 -2.155
0.76495 0.535 2.185
0.715 0.995 -2.17982
0.645 1.49727 1.985
-0.775841 0.483536 -0.708333
-0.796026 0.483636 0.738333
-0.766908 1.23766 -0.791547
-0.717214 1.37873 0.596727
0.77584 0.483534 -0.708333
0.796026 0.483636 0.738333
0.762892 1.23365 -0.791547
0.71721 1.37872 0.596727
-1.48782 0.055851 -3.24337
-1.49228 0.133862 -2.10942
-1.51919 0.115944 -0.661243
-1.52711 0.0790681 0.798686
-1.5064 0.106462 2.24785
-1.50209 0.170027 3.38665
-1.50776 0.247295 4.51647
-1.48678 0.381519 -3.27677
-1.49045 0.488192 -2.1492
-1.52381 0.50669 -0.712386
-1.52041 0.508239 0.729684
-1.48294 0.557299 2.16762
-1.48892 0.621807 3.30559
-1.50252 0.694929 4.43731
-1.47977 0.974426 -3.32718
-1.4774 1.07549 -2.1972
-1.50942 1.25739 -0.800196
-1.46194 1.38249 0.592674
-1.4003 1.48796 1.9908
-1.44523 1.54609 3.13118
-1.48566 1.60263 4.27233
-1.48182 2.0341 -3.44671
-1.48284 2.16193 -2.32548
-1.49081 2.38544 -0.947402
-1.47999 2.60327 0.418086
-1.46396 2.76308 1.79677
-1.47115 2.84883 2.91928
-1.49057 2.91303 4.05405
-0.741624 0.0656183 -3.24713
-0.735651 0.149078 -2.11491
-0.760101 0.107297 -0.660505
-0.777804 0.0584206 0.806068
-0.767759 0.0859838 2.26076
-0.769686 0.156145 3.3954
-0.776246 0.238553 4.52153
-0.744356 0.381051 -3.27793
-0.770289 0.611552 3.31281
-0.777834 0.688732 4.44113
-0.738983 0.94059 -3.31996
-0.736405 1.54857 3.13002
-0.769461 1.60332 4.27208
-0.737427 2.00705 -3.43957
-0.736319 2.13441 -2.31761
-0.748531 2.37323 -0.942661
-0.749941 2.60629 0.417517
-0.744003 2.77196 1.79271
-0.752627 2.85686 2.91522
-0.769394 2.9187 4.0511
0.743133 0.0651391 -3.24713
0.756361 0.148823 -2.11491
0.780361 0.107126 -0.660505
0.786554 0.0583493 0.806068
0.760935 0.0859398 2.26076
0.72078 0.156057 3.3954
0.698366 0.238398 4.52154
0.729796 0.38064 -3.27793
0.698615 0.611491 3.31281
0.683277 0.688593 4.44113
0.722669 0.940048 -3.31996
0.657343 1.5485 3.13002
0.663799 1.60316 4.27208
0.744431 2.00589 -3.43957
0.748277 2.13301 -2.31761
0.73705 2.37171 -0.942661
0.709472 2.60544 0.417517
0.68574 2.77156 1.79271
0.675803 2.85654 2.91522
0.66981 2.91838 4.0511
1.49096 0.0545985 -3.24337
1.50532 0.132696 -2.10942
1.53567 0.115023 -0.661243
1.54273 0.0787342 0.798686
1.51043 0.106279 2.24785
1.46877 0.169784 3.38665
1.44207 0.246939 4.51647
1.47727 0.380237 -3.27677
1.48886 0.486733 -2.1492
1.52709 0.505278 -0.712386
1.53167 0.507986 0.729684
1.49047 0.557193 2.16762
1.44478 0.621613 3.30559
1.42413 0.6946 4.43731
1.46737 0.972808 -3.32718
1.47342 1.07324 -2.1972
1.50644 1.25344 -0.800196
1.46751 1.3818 0.592674
1.40248 1.4878 1.9908
1.39213 1.54585 3.13118
1.3957 1.60226 4.27233
1.48591 2.03177 -3.44671
1.48939 2.15922 -2.32548
1.47996 2.38269 -0.947403
1.44736 2.60161 0.418086
1.41427 2.76221 1.79677
1.40138 2.84814 2.91928
1.397 2.91236 4.05405
-0.743448 0.75 -2.18631
-2.5034e-06 0.488129 -2.17187
-0.76662 0.482615 -1.43167
-0.767274 1.01614 2.1473
1.49012e-06 0.547011 2.17299
-0.792152 0.497653 1.46167
0 1.07903 -2.26385
-0.758318 1.1337 -1.48568
0 1.52899 2.01672
-0.691826 1.44872 1.29086
0.743476 0.75 -2.18634
0.766621 0.48261 -1.43167
0.767275 1.01614 2.1473
0.791987 0.497819 1.46167
0.758316 1.13369 -1.48568
0.691823 1.44871 1.29086
-0.785964 0.483556 0.015
-0.864862 0.8606 -0.74994
-5.71632e-07 0.480046 -0.708333
-0.874695 0.931182 0.66753
1.58946e-07 0.482282 0.738333
-0.742556 1.30869 -0.09741
-0.00200783 1.52596 -0.791547
-1.66217e-06 1.79899 0.596727
0.785963 0.483556 0.015
0.864946 0.858592 -0.74994
0.87469 0.93118 0.66753
0.742561 1.3087 -0.09741
-0.87064 0.8053 -1.45868
0.87063 0.804296 -1.45868
-1.53751e-06 0.473434 -1.43167
-0.00100392 1.2302 -1.48568
-1.2517e-06 0.75 -2.33235
-0.86283 0.895891 -0.041205
0.862764 0.894886 -0.041205
-2.06343e-07 0.481237 0.015
-0.00100475 1.74594 -0.09741
-0.876507 0.973658 1.37627
0.876508 0.973657 1.37627
8.24531e-07 0.497819 1.46167
-8.31083e-07 1.79903 1.29086
7.45058e-07 1.01614 2.24
-0.741726 0.6275 -2.17361
-0.367047 0.491876 -2.16812
-0.742223 0.50194 -1.79333
-0.799443 0.775568 2.19948
-0.382473 0.545718 2.17428
-0.787087 0.507789 1.82333
-0.728142 0.8725 -2.18198
-0.3575 1.06974 -2.25456
-0.75625 1.08394 -1.83275
-0.735342 1.2567 2.09536
-0.3225 1.52363 2.01136
-0.679153 1.48373 1.63793
0.367042 0.491854 -2.16815
0.741725 0.6275 -2.17362
0.74222 0.501939 -1.79333
0.382476 0.545852 2.17415
0.799445 0.775568 2.19948
0.786662 0.508216 1.82333
0.3575 1.06979 -2.25461
0.728161 0.8725 -2.182
0.756269 1.08396 -1.83275
0.3225 1.52364 2.01137
0.735341 1.2567 2.09535
0.679144 1.48373 1.63793
-0.775951 0.478355 -1.07
-0.780933 0.483515 -0.346667
-0.850913 0.656787 -0.729137
-0.388393 0.480848 -0.708333
-0.795233 0.4895 1.1
-0.790995 0.483596 0.376667
-0.857088 0.696545 0.702932
-0.397471 0.484044 0.738333
-0.758478 1.18155 -1.13862
-0.848929 1.06565 -0.770744
-0.755219 1.27366 -0.444478
-0.442027 1.49695 -0.791547
-0.704513 1.41372 0.943795
-0.815103 1.16453 0.632128
-0.72989 1.34371 0.249658
-0.448203 1.76805 0.596727
0.775948 0.478355 -1.07
0.388391 0.480848 -0.708333
0.780931 0.483515 -0.346667
0.850666 0.655926 -0.729137
0.795177 0.489558 1.1
0.397471 0.484044 0.738333
0.790995 0.483596 0.376667
0.857081 0.696547 0.702932
0.758485 1.18155 -1.13862
0.439275 1.49747 -0.791547
0.849203 1.06376 -0.770744
0.75523 1.27368 -0.444478
0.70451 1.41371 0.943795
0.448205 1.76806 0.596727
0.815104 1.16453 0.632128
0.72989 1.34371 0.249658
-0.85809 0.77765 -1.82249
-0.371724 0.75 -2.31323
-2.02045e-06 0.472778 -1.80177
-1.87755e-06 0.619064 -2.24945
-0.855793 0.643957 -1.44517
-0.383311 0.47343 -1.43167
-0.861317 0.994897 1.76178
-0.383637 1.01614 2.23248
1.15732e-06 0.510876 1.81733
1.11759e-06 0.781573 2.32959
-0.882415 0.735656 1.41897
-0.396075 0.497817 1.46167
-0.000501958 1.1843 -1.87477
-6.25849e-07 0.914517 -2.28203
-0.857787 0.969498 -1.47218
-0.379661 1.21307 -1.48568
-4.15542e-07 1.79904 1.65379
3.72529e-07 1.27256 2.16082
-0.792922 1.21119 1.33356
-0.345913 1.78608 1.29086
0.85812 0.777148 -1.82251
0.371737 0.75 -2.31323
0.855658 0.643453 -1.44517
0.38331 0.47343 -1.43167
0.861275 0.994896 1.76178
0.383638 1.01614 2.23261
0.882415 0.735738 1.41897
0.395994 0.497817 1.46167
0.85782 0.968995 -1.47218
0.378656 1.21312 -1.48568
0.792914 1.21119 1.33356
0.345911 1.78607 1.29086
-0.852347 0.675748 -0.0131025
-0.392919 0.482522 0.015
-0.867704 0.83295 -1.10431
-0.862289 0.878245 -0.395573
-1.05457e-06 0.474089 -1.07
-3.88988e-07 0.480714 -0.346667
-0.868628 0.913536 0.313163
-0.87573 0.95242 1.0219
-2.36987e-08 0.481759 0.376667
4.91738e-07 0.489389 1.1
-0.835977 1.11893 -0.0693075
-0.471375 1.72651 -0.09741
-0.00150587 1.29508 -1.13862
-0.00150629 1.7027 -0.444478
-0.000503204 1.78622 0.249658
-1.24662e-06 1.79903 0.943795
0.852483 0.675161 -0.0131025
0.392918 0.482522 0.015
0.867723 0.831444 -1.10431
0.862264 0.876739 -0.395573
0.868593 0.913033 0.313163
0.875957 0.952419 1.0219
0.837728 1.11932 -0.0693075
0.470426 1.72662 -0.09741
-0.839147 0.635729 -1.80791
-0.867283 0.658013 -1.08715
-0.855396 1.00932 -1.12146
-0.849133 0.920999 -1.82762
0.838909 0.635476 -1.80792
0.84927 0.920747 -1.82763
0.855654 1.00756 -1.12146
0.867289 0.657258 -1.08715
-0.375179 0.472779 -1.79755
0.375176 0.472779 -1.79755
0.385615 0.474087 -1.07
-0.385616 0.474087 -1.07
-0.36858 1.17533 -1.85376
-0.382059 1.25986 -1.13862
0.379549 1.26031 -1.13862
0.368078 1.17536 -1.85376
-0.369386 0.623282 -2.29591
-0.364612 0.893508 -2.22735
0.364619 0.893508 -2.22736
0.36939 0.623282 -2.29595
-0.851685 0.66624 -0.37112
-0.853255 0.686878 0.344915
-0.828043 1.14298 0.28141
-0.841932 1.09203 -0.420026
0.851562 0.66555 -0.37112
0.842474 1.09105 -0.420026
0.828174 1.14281 0.28141
0.853143 0.686673 0.344915
-0.390618 0.481761 -0.346667
0.390617 0.481761 -0.346667
0.395195 0.483283 0.376667
-0.395195 0.483283 0.376667
-0.489316 1.67696 -0.444478
-0.465855 1.75941 0.249658
0.4654 1.7595 0.249658
0.487443 1.67723 -0.444478
-0.889584 0.721532 1.06095
-0.872557 0.755612 1.79256
-0.780089 1.23395 1.69986
-0.809895 1.18307 0.982846
0.889584 0.721573 1.06095
0.809901 1.18307 0.982846
0.780099 1.23394 1.69986
0.872557 0.755653 1.79256
-0.397044 0.489389 1.1
0.397004 0.489389 1.1
0.389235 0.511155 1.82033
-0.389274 0.511155 1.82033
-0.352261 1.78465 0.943795
-0.334207 1.78933 1.64586
0.334206 1.78918 1.64586
0.352258 1.78466 0.943795
-0.383055 0.77857 2.3232
0.383057 0.77857 2.32305
0.353069 1.26463 2.15771
-0.353068 1.26463 2.1577
-0.740451 0.56625 -2.16685
-0.55057 0.499008 -2.16099
-0.738445 0.503182 -1.97417
-0.795273 0.655284 2.20532
-0.57371 0.538355 2.18164
-0.779165 0.518246 2.00417
-0.721697 0.93375 -2.18103
-0.53625 1.03515 -2.21997
-0.745843 1.04969 -2.00629
-0.687925 1.37699 2.03793
-0.48375 1.51606 2.00379
-0.672715 1.50114 1.81147
0.550565 0.499017 -2.16098
0.740533 0.56625 -2.16693
0.738395 0.503228 -1.97417
0.573713 0.538561 2.18144
0.795287 0.655284 2.20533
0.779284 0.51813 2.00417
0.53625 1.03515 -2.21997
0.721786 0.93375 -2.18112
0.745845 1.04969 -2.00629
0.48375 1.51608 2.00381
0.688136 1.37699 2.03814
0.67279 1.50122 1.81147
-0.773383 0.483458 -0.889167
-0.778417 0.483495 -0.5275
-0.82133 0.566185 -0.718735
-0.580898 0.484629 -0.708333
-0.796406 0.485791 0.919167
-0.793511 0.483616 0.5575
-0.830463 0.588138 0.720633
-0.595602 0.486133 0.738333
-0.7708 1.21771 -0.965081
-0.804752 1.15008 -0.781145
-0.761152 1.25575 -0.618013
-0.629583 1.41754 -0.791547
-0.710861 1.39622 0.770261
-0.757566 1.26733 0.614428
-0.723545 1.36121 0.423193
-0.619758 1.64749 0.596727
0.773381 0.483458 -0.889167
0.580925 0.484573 -0.708333
0.778415 0.483495 -0.5275
0.821044 0.565835 -0.718735
0.793406 0.488793 0.919167
0.595595 0.486147 0.738333
0.793511 0.483616 0.5575
0.830463 0.588137 0.720633
0.770776 1.21769 -0.965081
0.627915 1.41922 -0.791547
0.805617 1.14849 -0.781145
0.761088 1.25569 -0.618013
0.710864 1.39622 0.770261
0.619758 1.64749 0.596727
[...]
POINT_DATA 3682
SCALARS point_scalars float 1
LOOKUP_TABLE default
-120.646
-59.0534
-38.0203
-41.9633
-120.998
-59.0839
-38.1165
-42.0056
-39.6459
-38.4755
-71.0119
-46.7186
-39.6285
-38.8942
-69.6623
-46.7348
-106.799
-99.4388
-37.1144
-43.5336
-57.9616
-58.8492
-48.2144
2.14007
-97.5564
-37.6301
-34.9413
-55.886
-54.8398
-48.0177
2.42693
-94.2447
-52.4697
-42.7511
-48.2105
-47.4785
-46.0824
-59.8713
-68.7543
-109.413
-56.5604
-48.8591
-40.9141
-41.925
14.8842
-167.144
-39.3115
-42.2229
-56.9794
-50.5908
-47.7001
138.785
-47.4427
-47.3916
173.059
-44.3932
-45.2242
-59.9384
-56.6816
-62.1807
-57.2137
-49.3588
-39.5558
-37.2801
14.8025
-167.208
-39.3597
-42.8848
-57.0705
-50.7412
-47.7908
136.292
-47.4369
-47.2955
173.255
-44.0157
-44.8573
-58.6325
-56.8043
-62.5079
-56.4687
-49.3366
-39.551
-36.892
-107.32
-99.3261
-37.104
-43.4887
-58.0207
-58.837
-48.1999
1.66804
-97.445
-37.5109
-38.1212
-55.8891
-50.9383
-48.0063
3.94715
-94.4864
-52.3431
-42.7894
-48.1947
-47.4587
-46.0736
-59.9722
-69.3109
-109.423
-59.7969
-48.8431
-40.9151
-42.3183
-17.6347
-183.414
-51.8257
-50.0413
-53.8721
-45.4647
10.7677
-33.8265
-29.1615
-44.6872
-16.9312
-51.8121
-50.0429
-45.5218
-33.8323
-44.724
-36.8424
-44.5118
-41.7295
-39.4844
-41.3698
-56.5049
22.657
-59.2911
-36.8632
-44.4326
-39.5266
-56.4952
-51.6868
-51.6851
-60.9003
0.118973
202.976
-41.6165
-41.6334
-37.6986
-74.5963
-46.2093
-46.2291
-47.2179
-45.9503
-45.6661
-38.9842
-168.629
-71.8194
-52.15
-54.9834
-51.3049
-18.7935
54.6743
-52.1111
-46.52
-34.0936
-45.0335
-169.429
-43.8428
-71.8258
-54.9837
-52.1426
-51.2244
54.8744
-19.1825
-52.1402
-34.1102
-46.4876
-45.0252
-46.5604
-37.6877
-40.0714
-41.02
-43.1481
-36.5964
-35.7973
-40.853
-33.6569
-53.476
-64.9693
10.3714
-45.0588
-44.0066
-50.3511
-54.8871
-46.5642
-41.0193
-37.7022
-40.0304
-43.2347
-40.9448
-36.6476
-35.5234
-33.6001
10.7634
-53.1737
-64.9691
-45.1198
-54.9353
-44.0688
-50.3362
-83.3791
192.036
-86.0349
131.268
-51.0848
-58.7571
-51.818
-46.1897
-52.904
-47.0578
-46.1373
-46.7735
-34.3792
194.529
-49.451
-5.6323
-43.0062
-35.7596
-45.015
-45.617
-83.4187
192.227
-51.0343
-58.7605
-51.7988
-46.1667
-46.1165
-46.7696
-49.4505
-5.6195
-45.0276
-45.6265
-38.6927
-37.3106
-46.2601
-43.6894
-49.3018
-38.3527
-39.7206
-42.5842
-38.7858
-43.8117
-49.8912
-72.1899
29.1777
-97.5411
-69.769
-50.8871
-38.7117
-37.3237
-46.265
-43.6505
-39.7519
-42.604
-50.0344
-72.2506
-79.1654
-47.671
-46.5416
-72.9608
-79.1516
-73.0407
-46.4905
-47.9496
-83.9095
-83.9036
-48.0529
-48.0524
-36.0371
16.6043
16.8074
-36.0607
133.931
185.941
186.151
133.807
-39.8104
-37.0288
-45.8799
-53.456
-39.8096
-53.3593
-45.9074
-37.0452
-37.9255
-37.9289
-38.3376
-38.3008
-96.2168
-65.1648
-65.3022
-96.4617
-45.4044
-52.811
-47.1404
-44.1463
-45.2587
-44.2002
-47.1174
-52.7765
-43.5335
-43.5189
-53.0365
-53.031
-49.6333
-45.1239
-45.1133
-49.6551
-46.7749
-46.7635
-39.4333
-39.4544
-68.3439
-190.687
-103.101
-55.7745
-56.4771
-53.7728
-18.7
6.31985
-67.9667
-43.9807
-36.876
-44.8297
-190.742
-68.4873
-103.021
-56.4906
-55.7716
-53.8372
7.24779
-18.854
-68.0068
-36.8728
-43.9425
-44.798
-40.8006
-39.2001
-38.6138
-40.1019
-46.5284
-37.2972
-33.676
-40.5464
-58.8132
-60.853
-69.5853
-36.5537
-45.6845
-45.2191
-48.2588
-50.6992
-40.7891
-40.0995
-39.2057
-38.5532
-45.3028
-40.6759
-37.4145
-33.3311
-58.8624
-35.7373
-60.2938
-69.7391
-45.7314
-50.6616
-45.2737
-48.2553
-34.9831
-24.4874
-101.921
153.476
-177.35
-176.906
-112.311
70.0977
-58.7263
-45.3911
-50.3303
-55.9898
-50.4502
-49.3158
-53.7666
-46.1694
-54.1724
-54.0518
-52.9819
-48.3302
-48.1888
-45.1285
-45.7048
-46.1465
21.329
21.4558
-56.712
154.819
-43.7346
-29.7984
-47.0567
-15.5904
-30.9329
-30.9562
-35.9802
-31.0146
-44.8522
-44.7179
-44.6701
-45.26
-35.3384
-25.6149
-101.819
153.503
-58.6884
-45.4558
-50.2566
-56.0117
-50.4557
-49.2962
-53.7352
-46.1521
-48.2229
-45.2029
-45.6977
-46.1763
-43.7614
-29.8008
-47.0736
-15.5979
-44.8687
-44.77
-44.6927
-45.2827
-36.8337
-36.2874
-38.0445
-36.911
-42.2406
-47.7385
-44.9288
-44.3676
-41.5471
-41.5473
-45.1234
-39.6291
-37.8532
-41.0824
-39.3426
-40.3955
-41.2725
-41.342
-39.9347
-43.0109
-60.3751
-53.1369
-53.0735
-66.5779
22.7906
22.8992
43.8107
-23.8208
-57.7311
-57.7067
-63.4287
-54.5804
-36.8507
-36.3176
-38.0754
-36.9297
-42.1875
-47.6138
-44.8594
-44.2961
-37.9021
-41.1201
-39.3683
-40.4154
-60.3577
-53.1182
-53.0995
-66.6001
-60.167
-51.6752
-51.1404
-47.7003
-60.1552
-51.6623
-51.1496
-47.6929
-71.019
-60.3595
-60.3613
-53.9352
-15.7638
-0.782883
-0.764749
14.8882
201.549
158.43
200.674
201.698
-39.9139
-42.6801
-40.2374
-44.868
-39.9321
-42.6623
-40.2589
-44.9138
-37.5945
-37.7461
-38.0233
-37.6015
-73.9846
-90.4885
-71.2566
-74.0194
-48.8318
-46.1701
-45.8838
-45.5116
-48.8124
-46.1534
-45.8685
-45.4758
-49.9492
-47.1147
-47.1251
-46.1453
-44.2458
-45.8602
-45.8656
-48.0828
-45.8324
-45.974
-42.6313
-45.8164
-100.566
97.7692
-107.925
24.8614
-75.1571
-79.6398
-54.9751
-46.2511
-53.2519
-48.0972
-52.5051
-52.5101
-94.5617
153.686
-56.1964
149.971
-66.9054
-38.5511
-47.9633
-41.4577
-38.1008
-36.1388
-45.646
-45.2027
-107.923
25.7251
-100.51
98.3437
-75.1227
-79.6104
-53.258
-48.0984
-54.9568
-46.242
-52.4079
-52.4641
-56.2295
149.861
-94.5657
153.746
-66.9025
-38.5182
-38.1176
-36.1276
-47.9435
-41.4408
-45.6315
-45.1579
-47.6668
-47.0069
-39.1
-37.51
-43.2262
-40.2947
-44.333
-39.057
-45.1362
-43.3152
-36.422
-37.6917
-36.7138
-37.5714
-39.4028
-43.034
-47.1312
-2.81329
-50.5086
-54.3686
-58.9702
-94.5547
29.9323
-20.2302
-44.4339
-49.3521
-44.8844
-43.9297
-48.1847
-56.3758
-59.1147
-52.847
-47.8966
-47.0065
-44.3319
-39.0584
-39.0974
-37.5162
-43.0502
-40.2632
-44.9514
-43.284
-39.4598
-42.6583
-36.4437
-37.7429
-36.7123
-37.9788
-47.1531
-2.82195
30.2841
-19.9896
-50.3451
-54.1924
-58.9412
-94.775
-44.4979
-49.406
-58.3545
-52.8785
-44.9384
-44.0069
-48.1975
-56.4485
-81.6653
-81.2839
171.621
186.943
-85.918
-85.9222
131.31
131.427
-59.4172
-45.731
-68.439
-52.4492
-53.1388
-49.386
-46.3627
-44.6197
-52.978
-52.9734
-47.0415
-47.0382
-46.5238
-49.5482
-45.892
-49.7998
-34.3375
-34.3463
194.309
194.422
-46.7005
-58.5302
-20.92
5.92429
-43.7263
-43.7186
-36.9418
-36.9783
-45.8971
-44.5688
-47.3018
-44.5797
-81.7058
-81.3073
186.783
171.715
-59.4068
-45.5824
-68.4385
-52.4519
-49.3655
-53.1179
-46.3527
-44.5894
-46.4827
-49.5331
-45.9108
-49.807
-58.5352
-46.6801
6.00089
-20.9261
-44.6018
-45.8908
-44.587
-47.3204
-39.107
-37.5407
-37.3469
-37.6065
-46.9234
-45.9498
-41.5365
-47.1467
-48.9799
-48.979
-38.2381
-38.2401
-38.141
-42.2183
-43.9823
-43.1332
-38.6703
-38.6513
-43.7434
-43.7573
-47.1319
-50.6457
-88.1669
-67.3755
26.0951
26.189
-98.6293
-98.6565
-68.8988
-68.8914
-50.5286
-50.5348
-39.1068
-37.5933
-37.3542
-37.6289
-45.9404
-46.9719
-41.5188
-47.0956
-42.2531
-38.162
-43.9106
-43.1335
-50.5854
-47.1296
-67.4699
-88.2636
-98.4137
-58.942
-59.9363
-100.849
-42.9706
-43.7594
-47.235
-42.3528
-56.3165
-44.1765
-47.2518
-46.6604
-86.3564
-96.7044
-60.1964
-55.8551
-98.2801
-100.841
-59.9188
-58.9289
-86.3802
-55.8821
-60.2162
-96.5815
-56.1756
-46.5535
-47.236
-44.1785
-42.8727
-42.1371
-47.2133
-43.6887
-106.459
-110.905
-70.349
-65.0946
-106.405
-65.0839
-70.3509
-110.926
-43.4383
-44.9191
-53.6771
-50.1212
-43.442
-50.1071
-53.6756
-44.9188
-59.802
-27.2296
-16.7775
-57.3308
-8.05275
41.8316
12.7171
-6.47181
-7.90886
-6.44386
12.7724
41.8851
-59.8945
-57.3439
-16.7746
-27.3182
87.1998
125.407
161.878
68.3647
131.375
158.67
195.181
151.718
130.658
151.843
195.3
157.591
85.5476
68.4334
162.035
125.479
-39.6137
-38.5451
-40.6712
-42.053
-36.4682
-37.8218
-38.7415
-36.7934
-46.4713
-50.4849
-43.0395
-41.5191
-61.2231
-47.9054
-45.445
-55.6799
-39.5742
-42.0103
-40.6634
-38.5641
-61.1208
-55.6473
-45.4233
-47.806
-46.5053
-41.5589
-43.0736
-50.4783
-36.4608
-36.8278
-38.7881
-37.8406
-38.4774
-39.4733
-37.641
-36.9747
-38.483
-36.9859
-37.6449
-39.4742
-38.8596
-39.7812
-37.9331
-37.1253
-38.7743
-37.0952
-37.9214
-39.7489
-97.3845
-77.0183
-90.1305
-17.7952
-53.1
-63.1488
-70.3751
-60.5425
-52.7706
-60.5816
-70.4032
-63.1113
-96.5268
-17.5836
-90.1664
-77.1309
-44.8579
-45.5617
-46.6179
-38.0601
-54.5311
-54.6978
-49.3822
-49.1832
-45.7981
-45.1423
-47.253
-51.6201
-44.4955
-41.6423
-44.5801
-44.5286
-44.6816
-38.0723
-46.5818
-45.5313
-44.5631
-44.5707
-44.5736
-41.7155
-45.7747
-51.5865
-47.2265
-45.1446
-54.5213
-49.2088
-49.3588
-54.6814
-42.8017
-43.0586
-46.0855
-45.4476
-42.318
-45.468
-46.1014
-42.7853
-53.689
-53.0789
-49.9278
-49.0876
-53.653
-49.0841
-49.9207
-53.0785
-47.3782
-46.2987
-47.8734
-54.5455
-42.1884
-36.2038
-44.3663
-44.375
-42.1804
-44.3768
-44.3729
-36.2096
-47.3709
-54.5464
-47.8804
-46.3272
-47.961
-48.3327
-46.2257
-46.4355
-47.9605
-46.4222
-46.2139
-48.3278
-38.9975
-32.6963
-43.2807
-45.2103
-39.0074
-45.2246
-43.302
-32.7047
-107.634
-157.287
-129.515
-58.5616
-57.6702
-56.4471
-17.1357
-17.3002
-82.2492
-42.9241
-38.536
-43.3163
-158.044
-108.058
-129.365
-57.6761
-58.5688
-56.496
-17.2047
-17.3448
-82.2851
-38.5178
-42.8903
-43.294
-39.5534
-39.4376
-34.0214
-39.7014
-43.313
-37.5428
-30.8775
-40.2022
-74.0465
-65.6816
-72.2642
-80.5888
-46.1217
-45.9511
-47.4159
-48.3837
-39.5308
-39.6968
-39.4375
-33.9251
-43.8669
-40.411
-37.7558
-31.2231
-74.2722
-80.3485
-64.6768
-71.2721
-46.1561
-48.3678
-45.9831
-47.4203
-23.5714
-20.8616
-98.9125
98.6936
-180.362
-181.198
-134.823
-27.384
-57.1292
-48.622
-50.4583
-54.1701
-50.4245
-49.8118
-53.3325
-46.7367
-53.618
-53.6188
-53.0474
-50.2792
-46.5042
-45.0674
-45.1478
-45.8642
20.6373
20.7592
-88.65
106.203
-37.8779
-30.626
-42.2933
-24.8735
-29.6906
-29.5885
-31.2298
-28.8467
-44.7457
-44.6822
-44.671
-44.3599
-23.7126
-20.1819
-98.7664
98.5804
-57.1517
-48.6236
-50.3316
-54.2224
-50.3829
-49.7952
-53.3264
-46.7203
-46.5584
-45.1235
-45.1622
-45.907
-37.8719
-30.6336
-42.3242
-24.8565
-44.7736
-44.7283
-44.6991
-44.3923
-36.8686
-36.1678
-39.5124
-36.7619
-43.3635
-45.9612
-44.606
-44.5284
-41.7179
-41.7181
-43.1525
-40.5821
-38.535
-40.3831
-39.3263
-39.8149
-41.3389
-41.3832
-40.5645
-42.2011
-58.3771
-54.7702
-54.481
-61.3338
23.2525
23.2152
36.2864
1.35101
-58.9218
-58.9098
-61.2394
-56.7707
-36.886
-36.1917
-39.5388
-36.7837
-43.2988
-45.8707
-44.5242
-44.4534
-38.5813
-40.4203
-39.3574
-39.8606
-58.3644
-54.7564
-54.4846
-61.3282
-55.0501
-51.7119
-51.6552
-49.0354
-55.0483
-51.7058
-51.661
-49.0303
-65.6868
-60.7886
-60.7896
-57.222
-7.56846
0.235739
0.225233
7.8703
202.752
191.398
201.437
202.815
-40.6721
-42.092
-40.7674
-42.9733
-40.6923
-42.1002
-40.7889
-43.0001
-37.6791
-37.6711
-37.8149
-37.6825
-74.5406
-81.7622
-68.4482
-74.5539
-47.1451
-46.3122
-46.056
-45.9225
-47.1211
-46.3122
-46.0439
-45.9092
-48.4605
-47.2726
-47.2783
-46.5634
-45.049
-45.959
-45.9618
-46.938
-45.6599
-45.9359
-44.7456
-45.6509
-49.6607
-40.7778
-115.697
86.1853
-171.599
-170.808
-128.687
-90.3957
-84.0163
-60.8041
-72.6264
-75.4095
-54.4594
-50.5901
-55.0061
-47.4424
-55.0175
-53.9768
-53.5797
-51.3467
-51.9171
-50.2224
-52.0834
-51.9017
-10.9606
-22.9849
-99.1486
101.806
0.810913
31.0771
-90.6459
141.136
-54.8249
-50.6443
-62.2153
-39.3682
-44.8513
-48.0122
-47.624
-42.5365
-35.6402
-32.383
-34.8926
-34.6951
-44.9303
-44.935
-45.2228
-44.5123
-171.603
-172.409
-128.674
-90.1188
-50.5381
-42.5524
-115.706
86.0191
-84.0217
-60.79
-72.6223
-75.3648
-55.0209
-53.968
-53.5943
-51.2478
-54.4512
-50.5825
-54.9998
-47.4249
-51.9049
-50.2449
-51.9034
-51.8055
1.31489
31.041
-90.8588
140.826
-10.6964
-23.1125
-99.1422
101.84
-54.814
-50.7742
-62.2269
-39.2508
-35.6403
-32.4226
-34.9835
-34.6915
-44.8268
-47.9841
-47.5869
-42.5193
-44.9105
-44.9383
-45.2121
-44.4703
-44.9778
-46.4759
-47.609
-46.5734
-37.5965
-37.0781
-38.821
-37.3883
-39.2396
-41.1307
-40.6388
-40.2473
-40.6507
-41.3429
-42.3577
-39.9396
-42.9399
-43.7928
-44.4269
-43.3749
-36.8124
-36.3164
-35.9926
-37.2729
-34.3772
-37.1424
-36.5762
-35.975
-40.6076
-41.14
-40.1109
-41.8908
-38.5584
-30.74
-43.4821
-16.7287
-57.1564
-50.1371
-51.645
-54.055
-67.2074
-62.5254
-61.9016
-77.1939
-3.50455
20.6035
25.7008
-3.21864
-45.3402
-44.8506
-44.6591
-45.231
-44.8385
-42.3906
-44.4752
-43.7821
-49.2493
-51.6846
-49.1521
-53.1601
-53.9078
-55.8277
-56.8794
-54.0383
-44.9763
-46.5564
-47.633
-46.5732
-40.6498
-41.3428
-42.3563
-39.9401
-37.6089
-37.0929
-39.0834
-37.398
-39.2056
-41.0856
-40.5889
-40.2167
-42.0067
-43.9009
-44.3873
-43.3764
-40.7135
-41.2219
-40.1812
-42.1089
-36.8851
-36.3528
-36.0277
-37.3279
-33.845
-37.2029
-36.5356
-36.4436
-38.3253
-30.7187
-43.4346
-16.739
-3.04632
20.7086
26.1315
-3.03966
-56.8325
-49.9509
-51.5187
-53.7717
-67.2252
-62.5149
-61.8866
-77.1019
-45.3964
-44.9096
-44.722
-45.5241
-54.1796
-55.7936
-56.6498
-54.0738
-44.903
-42.4354
-44.5323
-43.8551
-49.2371
-51.6689
-49.1489
-53.1447
-96.736
-69.4198
-82.4182
-82.8551
177.043
198.116
185.545
189.363
-98.0652
-77.9495
-86.5822
-86.5854
142.72
115.891
131.009
130.757
-50.8776
-51.3351
-54.6107
-48.0047
-57.5737
-59.7109
-63.0749
-55.2898
-53.8939
-50.2114
-52.7721
-50.1823
-46.2784
-46.0344
-46.2966
-45.8268
-52.9336
-52.0178
-52.9623
-52.9597
-48.187
-45.8087
-46.8041
-46.8082
-45.9992
-46.1502
-46.2141
-47.4382
-46.4906
-47.0683
-46.1691
-48.0893
-45.5313
-24.6482
-34.2154
-34.2147
180.111
199.082
192.11
192.15
-48.8041
-50.0514
-47.994
-52.6079
-9.60344
-2.78417
-12.6755
0.398746
-40.4088
-43.4726
-43.0849
-43.0812
-33.1675
-38.8678
-36.1062
-36.1216
-44.7782
-45.432
-45.2849
-44.8556
-45.441
-45.8021
-46.3624
-44.9298
-96.8523
-69.4325
-82.4708
-82.9027
177.241
198.344
189.578
185.694
-50.8137
-51.2974
-54.5758
-47.9296
-57.5811
-59.7132
-63.0771
-55.293
-53.8669
-50.2003
-50.1654
-52.7478
-46.2608
-46.0145
-46.2812
-45.8016
-45.9852
-46.1289
-46.186
-47.42
-46.5192
-47.0815
-46.1918
-48.0999
-48.8153
-50.059
-52.6208
-48.0117
-9.60005
-2.76204
0.437307
-12.6744
-44.7972
-45.4298
-44.8789
-45.2838
-45.4561
-45.8097
-44.9361
-46.3791
-38.219
-38.9967
-38.9007
-38.2796
-37.1092
-37.4672
-37.2838
-37.407
-45.3787
-47.0839
-46.4636
-46.2468
-44.1309
-43.1645
-42.5222
-45.2087
-47.2421
-51.409
-49.0576
-49.057
-38.9007
-37.957
-38.3294
-38.3304
-39.409
-39.9406
-38.8212
-40.9423
-41.4051
-44.1368
-42.2002
-42.8325
-39.2694
-38.3473
-38.7468
-38.737
-43.3032
-45.0687
-43.821
-43.8327
-51.4255
-47.4489
-48.2107
-50.4714
-70.6406
-72.9611
-79.7107
-66.6762
39.9165
21.0508
28.1638
28.2004
-78.9458
-97.2539
-98.2044
-98.1846
-66.5324
-73.2004
-69.6279
-69.6224
-52.6017
-49.3822
-50.8688
-50.8716
-38.2531
-39.0207
-38.8776
-38.3208
-37.1243
-37.4774
-37.294
-37.4245
-45.3422
-47.0995
-46.2458
-46.499
-44.0732
-43.1374
-42.4944
-45.1543
-39.4355
-39.9714
-40.9741
-38.8478
-41.4987
-44.1172
-42.2588
-42.8455
-51.5678
-47.524
-50.356
-48.3901
-69.7701
-72.9988
-66.7303
-79.7319
-92.2853
-76.8655
-81.2616
-67.2144
-47.2965
-46.6312
-46.0344
-47.5674
-47.5677
-48.4265
-46.1894
-46.0609
-80.6172
-69.7688
-77.577
-66.012
-92.3328
-76.8411
-81.2855
-67.1979
-80.6511
-69.7884
-77.6182
-66.0379
-47.5472
-48.3128
-46.1268
-46.0342
-47.6935
-46.5627
-46.2519
-47.69
-95.6358
-82.3811
-85.1793
-75.8163
-95.6281
-82.3667
-85.1802
-75.8126
-47.527
-46.4975
-50.0586
-48.5205
-47.5263
-46.4974
-50.057
-48.5196
-45.5888
-37.6051
-34.9989
-27.6727
9.03125
24.874
12.2101
22.2375
9.12095
25.0952
12.321
22.365
-45.6199
-37.635
-35.0169
-27.6922
111.964
107.424
154.862
131.694
172.789
169.849
184.911
192.375
170.01
173.17
192.565
184.615
107.407
112.432
131.877
154.894
-39.2412
-40.0976
-39.4333
-40.6278
-36.5168
-36.7568
-37.0966
-37.7276
-45.5073
-47.5868
-43.8619
-46.3481
-54.1881
-56.2672
-49.7297
-52.6885
-39.2457
-40.0762
-39.4421
-40.6184
-54.0683
-56.2358
-49.66
-52.6409
-45.5458
-47.6113
-43.8958
-46.3629
-36.5363
-36.7665
-37.1443
-37.7521
-37.7131
-38.4089
-37.5563
-38.0979
-38.4112
-37.7163
-38.1009
-37.5615
-38.8371
-38.0684
-38.5289
-37.9394
-38.0234
-38.7914
-37.9103
-38.5009
-99.5325
-66.4539
-95.7226
-98.6174
-61.4088
-62.0092
-68.5616
-67.4982
-62.1844
-61.6569
-67.5145
-68.6661
-66.2137
-98.7677
-98.6101
-95.8479
-45.423
-43.3179
-45.7234
-45.049
-53.2498
-52.535
-53.0541
-51.6727
-47.9006
-46.1245
-48.4419
-46.391
-44.2725
-44.0914
-44.3072
-43.7918
-45.2333
-43.068
-45.6572
-44.9216
-44.3385
-44.1606
-44.3498
-43.8124
-47.8707
-46.1085
-48.4161
-46.3759
-53.2168
-52.4774
-53.0341
-51.6536
-43.3594
-43.1638
-44.8473
-43.6742
-43.3337
-42.7625
-44.8522
-43.6676
-53.1527
-52.8715
-53.0673
-52.1105
-53.147
-52.8776
-53.0618
-52.1065
-49.2798
-50.8043
-48.4022
-50.1448
-44.3944
-45.5765
-44.2621
-44.3747
-44.3931
-45.5592
-44.2555
-44.3886
-49.314
-50.829
-48.4213
-50.1567
-46.339
-47.5885
-46.0674
-46.6558
-47.5795
-46.349
-46.6593
-46.0549
-37.7485
-40.5967
-38.1403
-41.6857
-40.6176
-37.7686
-41.6917
-38.1374
-122.621
58.4565
-126.221
-38.718
-101.186
-104.29
-56.9764
-49.1285
-54.4325
-51.3237
-54.0735
-53.9668
-95.6518
91.2723
-66.4808
91.6918
-78.9933
-63.3138
-46.0223
-40.3365
-37.4437
-37.9645
-44.9484
-45.5801
-126.064
-39.1648
-122.518
57.6169
-101.036
-104.337
-54.4795
-51.3141
-57.0039
-49.1125
-54.0744
-54.0249
-66.8598
91.4856
-95.6031
91.4072
-79.0044
-63.3652
-37.4406
-37.9404
-45.9686
-40.3156
-44.9433
-45.5544
-39.8061
-43.0093
-37.1309
-38.3353
-38.593
-39.6751
-41.1345
-39.2456
-52.9262
-43.0429
-36.2249
-38.2463
-35.6816
-35.7868
-39.5571
-41.8895
-61.8815
-29.6318
-59.0862
-61.3208
-65.1836
-96.5805
-16.2829
-55.6371
-44.9955
-46.7106
-45.6981
-44.8299
-47.3457
-50.4913
-51.5994
-48.9313
-39.7985
-43.0028
-41.1299
-39.2467
-37.1526
-38.341
-38.5496
-39.6093
-52.0002
-42.3466
-39.664
-42.1008
-36.2858
-38.3515
-35.6117
-36.5754
-61.8273
-29.7096
-15.7527
-54.8143
-58.7657
-61.046
-65.2084
-96.7061
-45.0506
-46.7506
-51.4001
-48.8726
-45.7438
-44.8925
-47.3571
-50.4358
-102.728
91.1225
-100.662
96.0019
-100.61
-98.3433
146.356
155.257
-132.475
-45.8206
-132.515
-44.993
-112.095
-112.11
60.3009
60.7193
-58.4727
-63.432
-41.3239
-47.8798
-54.0918
-46.6411
-60.1459
-52.7567
-54.5457
-47.0214
-51.3185
-45.6247
-53.9305
-53.3569
-46.3169
-45.999
-53.1781
-50.408
-53.1766
-50.3819
-53.0072
-53.0067
-48.3503
-48.3483
-48.9954
-48.7135
-45.0246
-45.1858
-45.4941
-46.8723
-45.6933
-47.393
-87.9929
125.48
-87.9947
125.618
-55.8708
-55.8959
161.024
160.786
-50.0565
-34.9411
-38.5547
-18.1872
-45.0406
-50.3925
-21.7242
-9.68754
-32.5644
-30.7811
-32.5545
-30.7773
-36.2912
-36.2889
-31.5387
-31.5432
-44.9524
-44.4181
-44.5657
-44.853
-44.8848
-44.5372
-46.0709
-44.902
-102.618
91.1736
-100.708
95.9013
-100.555
-98.2889
155.123
146.454
-58.3779
-63.3777
-41.3258
-47.9207
-54.0389
-46.572
-60.1742
-52.7674
-54.499
-47.007
-51.2773
-45.662
-53.3107
-53.9147
-46.3013
-45.9838
-49.0451
-48.7162
-45.0524
-45.2299
-45.4785
-46.8747
-45.7247
-47.4068
-50.0518
-35.1334
-38.6214
-18.1629
-50.4094
-45.0893
-9.67924
-21.7493
-44.9617
-44.4282
-44.6124
-44.8909
-44.5714
-44.895
-44.9162
-46.0978
-38.6937
-36.8733
-36.0937
-36.7835
-38.3403
-37.149
-36.9067
-36.947
-42.7745
-42.2
-47.253
-48.0429
-44.2602
-45.748
-43.1413
-45.8918
-42.9378
-40.419
-42.9378
-40.4196
-45.0799
-45.0797
-39.5988
-39.5993
-37.806
-38.0539
-41.2165
-40.8608
-38.4614
-40.5004
-39.1299
-41.1462
-40.448
-42.1459
-40.4929
-42.362
-39.8606
-39.8436
-43.0636
-42.8722
-57.8769
-67.821
-51.598
-56.6056
-51.8143
-54.4771
-71.3039
-63.0447
35.2291
2.95781
35.3215
2.87657
43.2881
43.3026
-21.3424
-21.2864
-60.4856
-56.3353
-60.4852
-56.3279
-63.8508
-63.8366
-54.5056
-54.5051
-39.0776
-36.8884
-36.1252
-36.8162
-38.3602
-37.1882
-36.9218
-36.971
-42.7145
-42.1529
-47.1108
-47.9306
-45.6591
-44.1855
-43.0884
-45.8113
-37.8245
-38.1537
-41.2553
-40.8352
-40.5321
-38.4846
-39.0513
-41.2289
-57.8528
-67.8402
-51.589
-56.599
-54.4627
-51.8229
-63.0811
-71.3506
-60.0854
-60.1624
-55.2076
-48.6472
-48.9964
-53.7926
-47.5314
-47.6125
-60.0678
-60.16
-55.1919
-48.6457
-53.8023
-49.0118
-47.5989
-47.5229
-70.886
-70.8873
-65.0882
-56.7236
-65.0899
-56.7254
-54.0076
-54.0068
-16.1827
-16.1838
-8.50436
5.59796
5.64922
-8.49651
14.4349
14.4494
191.429
197.638
156.477
156.548
197.103