# vtk DataFile Version 2.0
tet_velo
ASCII
DATASET UNSTRUCTURED_GRID
POINTS 29498 float
-0.700575 0.215 -1.985
-0.598904 0.395 2.035
-0.725 0.955 -1.74979
-0.489562 1.555 1.685
0.700558 0.215 -1.985
0.59888 0.395 2.035
0.725 0.955 -1.74982
0.48955 1.555 1.685
-0.709426 0.232258 -0.645
-0.720493 0.247302 0.695
-0.729245 1.23772 -0.60486
-0.666109 1.45307 0.54007
0.709441 0.232224 -0.645
0.720481 0.247292 0.695
0.729234 1.23772 -0.60488
0.666101 1.45307 0.54006
-1.40003 -0.398568 -2.98566
-1.40547 -0.287467 -1.99178
-1.40151 -0.271843 -0.646742
-1.36974 -0.282142 0.737558
-1.28075 -0.186426 2.08591
-1.26046 -0.0794362 3.09598
-1.27439 0.0290274 4.07607
-1.40588 0.0557191 -2.93819
-1.41364 0.196004 -1.96562
-1.4088 0.254176 -0.658533
-1.35982 0.279708 0.66611
-1.22649 0.388584 1.97693
-1.22591 0.495139 2.98425
-1.25761 0.600204 3.97071
-1.41738 0.902827 -2.78849
-1.43229 1.03616 -1.80785
-1.41935 1.26499 -0.633749
-1.32145 1.44216 0.526534
-1.15585 1.55271 1.70438
-1.18939 1.65151 2.71976
-1.24544 1.74875 3.73767
-1.41266 2.35297 -2.71062
-1.41702 2.51663 -1.7592
-1.40564 2.79269 -0.648336
-1.36523 3.05929 0.420482
-1.31306 3.24367 1.53338
-1.2963 3.3506 2.48906
-1.30461 3.44518 3.48566
-0.694466 -0.387366 -2.99825
-0.699345 -0.270056 -2.01015
-0.702294 -0.280143 -0.644282
-0.707499 -0.306324 0.762216
-0.652753 -0.191286 2.12902
-0.640208 -0.082323 3.12523
-0.651049 0.0260562 4.093
-0.696638 0.0562511 -2.94207
-0.620432 0.495654 3.00837
-0.642753 0.599038 3.98347
-0.70566 0.868659 -2.76438
-0.591525 1.65399 2.71588
-0.637609 1.75029 3.73684
-0.708405 2.3251 -2.68677
-0.714959 2.48804 -1.73293
-0.717641 2.78073 -0.632501
-0.707725 3.06539 0.418577
-0.684823 3.25291 1.51981
-0.67479 3.35742 2.4755
-0.680508 3.44985 3.47581
0.716086 -0.387372 -2.99825
0.707534 -0.270064 -2.01015
0.711325 -0.280167 -0.644283
0.69401 -0.306335 0.762215
0.610652 -0.191289 2.12902
0.591758 -0.0823267 3.12522
0.589433 0.0260517 4.093
0.717906 0.0562473 -2.94208
0.569656 0.495652 3.00837
0.575824 0.599034 3.98347
0.723944 0.868656 -2.7644
0.531443 1.65399 2.71588
0.556868 1.75029 3.73684
0.706969 2.32509 -2.68679
0.699747 2.48803 -1.73294
0.673268 2.78072 -0.632514
0.618071 3.06538 0.418568
0.565086 3.25291 1.5198
0.555454 3.35741 2.4755
0.558945 3.44985 3.47581
1.42178 -0.398583 -2.98567
1.41547 -0.287487 -1.99179
1.41253 -0.271879 -0.646749
1.37591 -0.282165 0.737554
1.27228 -0.186437 2.0859
1.23187 -0.0794454 3.09597
1.22506 0.0290171 4.07607
1.42458 0.055708 -2.9382
1.41721 0.19599 -1.96563
1.41458 0.254138 -0.658543
1.37587 0.279687 0.666105
1.24302 0.388576 1.97693
1.20205 0.495132 2.98425
1.20521 0.600195 3.9707
1.43192 0.902819 -2.78852
1.4333 1.03615 -1.80789
1.42065 1.26497 -0.633775
1.33133 1.44215 0.52652
1.16576 1.5527 1.70437
1.15438 1.65151 2.71976
1.17873 1.74874 3.73766
1.41097 2.35295 -2.71065
1.40223 2.51661 -1.75923
1.36684 2.79267 -0.648361
1.2923 3.05928 0.420464
1.21482 3.24366 1.53337
1.19122 3.35059 2.48905
1.19185 3.44517 3.48566
-0.759833 0.585 -1.91444
-8.49366e-06 0.330929 -1.86907
-0.725643 0.202987 -1.315
-0.64505 0.975 1.96082
-1.20103e-05 0.424246 2.00575
-0.700213 0.280637 1.365
0 1.02961 -1.82442
-0.722049 1.09129 -1.17733
-6.00517e-06 1.58956 1.71956
-0.601705 1.5279 1.11254
0.759872 0.585 -1.9145
0.725539 0.203072 -1.315
0.645123 0.975 1.96091
0.70015 0.280676 1.365
0.722031 1.09127 -1.17735
0.601659 1.52787 1.11253
-0.710946 0.243794 0.025
-0.806843 0.734991 -0.62493
7.26924e-06 0.221125 -0.645
-0.816174 0.850185 0.617535
-5.88586e-06 0.220557 0.695
-0.703031 1.35075 -0.032395
-5.53679e-06 1.42005 -0.60487
-4.35643e-06 1.65792 0.540065
0.710516 0.244203 0.025
0.806865 0.734971 -0.62494
0.816161 0.85018 0.61753
0.703023 1.35075 -0.03241
-0.895241 0.659996 -1.24616
-0.809978 0.792588 -0.00369748
-0.849632 0.912592 1.23877
-6.12209e-07 0.289651 -1.315
6.91694e-07 0.221148 0.025
-8.9481e-06 0.332367 1.365
-4.24683e-06 0.585 -2.14022
-9.00775e-06 0.975 2.03091
-2.76839e-06 1.14908 -1.17734
-4.94661e-06 1.63003 -0.0324025
-5.1808e-06 1.65023 1.11253
0.895237 0.659985 -1.24618
0.810002 0.792575 -0.00370499
0.849633 0.91259 1.23877
-1.05711 0.205502 -1.97531
-0.69996 -0.027528 -1.99757
-0.698607 0.135626 -2.46353
-0.912699 0.391792 2.00597
-0.625829 0.101857 2.08201
-0.609668 0.445327 2.52169
-1.07865 0.99558 -1.77882
-0.71533 0.91183 -2.25708
-0.71998 1.72152 -1.74136
-0.822704 1.55385 1.69469
-0.540544 1.60449 2.20044
-0.587192 2.40396 1.6024
0.704046 -0.0275322 -1.99757
0.709232 0.135624 -2.46354
1.05888 0.205495 -1.97532
0.604766 0.101855 2.08201
0.584268 0.445326 2.52169
0.920948 0.391788 2.00597
0.724472 0.911828 -2.25711
0.712374 1.72151 -1.74138
1.07915 0.995575 -1.77885
0.510497 1.60449 2.20044
0.527318 2.40396 1.6024
0.827657 1.55385 1.69469
-1.05911 0.243217 -0.651767
-0.70586 -0.0239421 -0.644641
-1.04016 0.263505 0.680555
-0.713996 -0.029511 0.728608
-1.0743 1.25136 -0.619305
-0.723443 2.00923 -0.618681
-0.993781 1.44761 0.533302
-0.686917 2.25923 0.479324
0.710383 -0.0239713 -0.644642
1.06201 0.243181 -0.651772
0.707246 -0.0295218 0.728608
1.04818 0.26349 0.680553
0.701251 2.00922 -0.618697
1.07494 1.25135 -0.619328
0.642086 2.25922 0.479314
0.998716 1.44761 0.53329
-1.40275 -0.343017 -2.48872
-1.40296 -0.171424 -2.96192
-1.04725 -0.392967 -2.99195
-1.40349 -0.279655 -1.31926
-1.40956 -0.0457313 -1.9787
-1.05241 -0.278761 -2.00097
-1.38562 -0.276993 0.0454079
-1.40516 -0.0088335 -0.652638
-1.0519 -0.275993 -0.645512
-1.32524 -0.234284 1.41173
-1.36478 -0.00121717 0.701834
-1.03862 -0.294233 0.749887
-1.2706 -0.132931 2.59094
-1.25362 0.101079 2.03142
-0.966752 -0.188856 2.10746
-1.26742 -0.0252044 3.58602
-1.24319 0.207851 3.04011
-0.950333 -0.0808796 3.1106
-1.266 0.314616 4.02339
-0.962717 0.0275418 4.08454
-1.40976 0.125862 -2.4519
-1.41163 0.479273 -2.86334
-1.05126 0.0559851 -2.94013
-1.41122 0.22509 -1.31208
-1.42296 0.616082 -1.88674
-1.38431 0.266942 0.00378826
-1.41407 0.759585 -0.646141
-1.29316 0.334146 1.32152
-1.34064 0.860933 0.596322
-1.2262 0.441862 2.48059
-1.19117 0.970646 1.84066
-1.24176 0.547672 3.47748
-1.20765 1.07333 2.852
-0.923172 0.495397 2.99631
-1.25152 1.17448 3.85419
-0.950181 0.599621 3.97709
-1.42483 0.969493 -2.29817
-1.41502 1.6279 -2.74955
-1.06152 0.885743 -2.77643
-1.42582 1.15058 -1.2208
-1.42466 1.77639 -1.78353
-1.3704 1.35358 -0.0536078
-1.4125 2.02884 -0.641043
-1.23865 1.49743 1.11545
-1.34334 2.25072 0.473508
-1.17262 1.60211 2.21207
-1.23446 2.39819 1.61888
-1.21742 1.70013 3.22871
-1.24285 2.50106 2.60441
-0.89046 1.65275 2.71782
-1.27502 2.59696 3.61167
-0.941524 1.74952 3.73725
-1.41484 2.4348 -2.23491
-1.06053 2.33903 -2.6987
-1.41133 2.65466 -1.20377
-1.06599 2.50233 -1.74606
-1.38544 2.92599 -0.113927
-1.06164 2.78671 -0.640419
-1.33915 3.15148 0.976931
-1.03648 3.06234 0.41953
-1.30468 3.29713 2.01122
-0.998944 3.24829 1.52659
-1.30045 3.39789 2.98736
-0.985544 3.35401 2.48228
-0.992559 3.44751 3.48074
-0.696906 -0.328711 -2.5042
-0.695552 -0.165558 -2.97016
0.0108101 -0.387369 -2.99825
-0.700819 -0.275099 -1.32721
0.00409437 -0.27006 -2.01015
-0.704896 -0.293233 0.058967
0.00451561 -0.280155 -0.644283
-0.680126 -0.248805 1.44562
-0.0067445 -0.30633 0.762216
-0.646481 -0.136804 2.62712
-0.0210505 -0.191288 2.12902
-0.645629 -0.0281334 3.60911
-0.63032 0.206666 3.0668
-0.0242249 -0.0823248 3.12522
-0.646901 0.312547 4.03824
-0.0308082 0.026054 4.093
-0.701149 0.462455 -2.85322
0.010634 0.0562492 -2.94207
-0.631593 0.547346 3.49592
-0.605979 1.07482 2.86213
-0.0253881 0.495653 3.00837
-0.640181 1.17467 3.86016
-0.0334647 0.599036 3.98347
-0.707033 1.59688 -2.72558
0.00914206 0.868658 -2.76439
-0.614567 1.70214 3.22636
-0.633158 2.5057 2.59569
-0.0300411 1.65399 2.71588
-0.659059 2.60007 3.60632
-0.0403704 1.75029 3.73684
-0.711682 2.40657 -2.20985
-0.000718289 2.3251 -2.68678
-0.7163 2.63438 -1.18271
-0.00760617 2.48803 -1.73294
-0.712683 2.92306 -0.106962
-0.0221867 2.78072 -0.632508
-0.696274 3.15915 0.969192
-0.0448272 3.06538 0.418573
-0.679806 3.30517 1.99765
-0.0598682 3.25291 1.5198
-0.677649 3.40363 2.97566
-0.0596681 3.35742 2.4755
-0.0607815 3.44985 3.47581
0.71181 -0.328718 -2.5042
0.716996 -0.165562 -2.97017
1.06893 -0.392977 -2.99196
0.709429 -0.275116 -1.32722
1.0615 -0.278776 -2.00097
0.702668 -0.293251 0.058966
1.06193 -0.276023 -0.645516
0.652331 -0.248812 1.44562
1.03496 -0.29425 0.749884
0.601205 -0.136808 2.62712
0.941464 -0.188863 2.10746
0.590596 -0.0281375 3.60911
0.580707 0.206662 3.0668
0.911812 -0.080886 3.1106
0.582629 0.312543 4.03824
0.907245 0.0275344 4.08453
0.720925 0.462452 -2.85324
1.07124 0.0559777 -2.94014
0.57274 0.547343 3.49592
0.550549 1.07482 2.86212
0.885855 0.495392 2.99631
0.566346 1.17466 3.86015
0.890516 0.599614 3.97709
0.715457 1.59687 -2.72559
1.07793 0.885738 -2.77646
0.544156 1.70214 3.22636
0.543448 2.5057 2.59569
0.842914 1.65275 2.71782
0.557907 2.60007 3.60632
0.8678 1.74951 3.73725
0.703358 2.40656 -2.20987
1.05897 2.33902 -2.69872
0.686507 2.63438 -1.18273
1.05099 2.50232 -1.74609
0.645669 2.92305 -0.106973
1.02005 2.7867 -0.640438
0.591579 3.15914 0.969185
0.955186 3.06233 0.419516
0.56027 3.30516 1.99765
0.889955 3.24828 1.52659
0.5572 3.40363 2.97565
0.873339 3.354 2.48227
0.875397 3.44751 3.48073
1.41863 -0.343035 -2.48873
1.42318 -0.171437 -2.96194
1.414 -0.279683 -1.31927
1.41634 -0.0457482 -1.97871
1.39422 -0.277022 0.0454024
1.41355 -0.00887067 -0.652646
1.32409 -0.234301 1.41173
1.37589 -0.00123911 0.701829
1.25207 -0.132941 2.59094
1.25765 0.10107 2.03142
1.22846 -0.0252141 3.58602
1.21696 0.207843 3.04011
1.21513 0.314606 4.02338
1.4209 0.125849 -2.45192
1.42825 0.479263 -2.86336
1.41589 0.225064 -1.31209
1.42525 0.616071 -1.88676
1.39522 0.266913 0.00378099
1.41761 0.759556 -0.646159
1.30944 0.334132 1.32152
1.3536 0.860917 0.596313
1.22253 0.441854 2.48059
1.20439 0.970639 1.84065
1.20363 0.547663 3.47748
1.17822 1.07332 2.852
1.19197 1.17447 3.85418
1.43261 0.969485 -2.29821
1.42144 1.62789 -2.74958
1.42697 1.15056 -1.22083
1.41777 1.77638 -1.78356
1.37599 1.35356 -0.0536275
[...]
POINT_DATA 29498
VECTORS point_vectors float
-3.79437 -8.714 17.5449
0.0950785 0.076891 0.420165
-1.58159 1.41106 4.21405
0.0102449 -0.0659195 0.335735
3.79697 -8.7143 17.5372
-0.107364 0.0763225 0.426514
1.5804 1.41167 4.21245
-0.010914 -0.0613044 0.326554
0.135916 -0.0175279 1.53301
0.437352 -0.711278 1.14948
-0.0748153 -0.0712545 0.513372
0.0104665 0.0181092 0.0879623
-0.140948 -0.0198327 1.52367
-0.443687 -0.715165 1.15411
0.0752145 -0.0712433 0.512984
-0.0105671 0.0183379 0.0881387
-0.552649 -0.429221 19.9443
-1.09728 -0.940739 20.5827
-0.391663 -0.362352 21.5692
0.166202 -0.0494329 21.7543
0.82064 0.441084 21.6548
1.26828 0.611815 21.1997
1.10086 0.385112 20.9498
-0.831118 -0.431452 19.6979
-2.04655 -1.00267 20.4414
-0.407413 -0.574988 21.7496
0.0804531 -0.466529 21.8409
1.49645 -0.0815544 21.2712
1.91268 -0.100123 21.0326
1.7195 -0.0671304 20.7664
-1.1639 0.098416 19.4979
-2.4144 0.39337 20.514
-1.60199 -0.328022 21.5729
-0.843489 -0.369054 22.0033
-0.0743719 -0.750225 21.8195
0.228279 -0.904027 21.3892
0.698644 -0.70337 20.1081
-0.466122 0.401062 20.0562
-0.652629 0.54509 20.4465
-0.615288 0.403424 21.0339
-0.378126 0.17862 21.2804
-0.150039 -0.0351009 21.5428
0.0340976 -0.1341 21.5077
0.017465 -0.0751355 20.9989
-0.469664 -0.757434 19.5812
-1.12147 -2.40334 20.3897
-0.663762 -0.579795 21.9897
0.0211591 0.122778 22.0734
0.45352 1.21846 21.5027
0.854778 1.64567 20.6819
0.585409 1.57879 20.4892
-0.73631 -0.853607 18.9724
2.03554 1.22951 7.95772
2.67583 1.78146 12.4653
-1.38526 0.393384 17.9364
-0.360507 -0.791871 11.5558
0.253127 -1.10584 14.61
-0.395256 0.726065 19.843
-0.591418 1.06407 20.309
-0.505708 0.861788 21.0632
-0.322228 0.325404 21.3649
-0.124441 -0.0360229 21.5726
0.00773213 -0.121261 21.3371
0.045346 -0.0949287 21.1743
0.464746 -0.75038 19.5877
1.13011 -2.38173 20.3893
0.662639 -0.566216 21.9872
-0.0203455 0.11646 22.0689
-0.415972 1.21221 21.5008
-0.75671 1.67176 20.542
-0.471498 1.73912 20.3869
0.751762 -0.836486 18.9982
-1.96464 1.26305 6.5026
-2.7707 1.98253 11.4047
1.38694 0.379341 17.9944
0.545996 -0.674036 9.6475
-0.134691 -1.111 14.4394
0.394974 0.72647 19.8418
0.582215 1.07184 20.3051
0.491328 0.900603 21.061
0.280805 0.324433 21.3646
0.0907139 -0.0376697 21.4894
-0.0360823 -0.108976 21.1943
-0.0326108 -0.0963773 21.1385
0.554693 -0.429606 19.9111
1.09788 -0.929583 20.5786
0.397634 -0.363401 21.5549
-0.163811 -0.0516883 21.7411
-0.822433 0.441689 21.6465
-1.26825 0.649573 21.2389
-1.10927 0.433504 21.0894
0.826793 -0.418663 19.7191
2.03832 -0.995824 20.4468
0.411466 -0.573842 21.7409
-0.0689609 -0.465831 21.8403
-1.45063 -0.113531 21.4198
-1.92047 -0.0826213 20.8629
-1.81071 -0.0789984 20.5723
1.15626 0.0946198 19.5168
2.40906 0.392549 20.5169
1.59707 -0.327519 21.5661
0.836485 -0.36445 21.9835
0.0822478 -0.734843 21.8246
-0.204066 -0.916451 21.2929
-0.67662 -0.862396 20.2884
0.46509 0.402384 20.0547
0.656474 0.556639 20.4401
0.626134 0.41952 21.0366
0.394124 0.212369 21.2974
0.161307 -0.0169739 21.6266
-0.0297138 -0.131952 21.4913
-0.0252274 -0.0751693 21.0311
-0.370314 -0.0100933 0.449535
0.00165484 -0.22485 0.733204
-0.0750178 -0.0178591 0.843071
-0.0834476 -0.215442 -0.0189303
-0.000302308 0.0180037 0.0534905
0.0996881 0.0501813 1.47783
-4.27178e-08 0.0848247 0.27122
-0.973935 -0.268415 1.43188
-0.00271223 -0.0118266 0.0810506
0.0199821 0.00810248 0.136748
0.38205 -0.0103942 0.463803
0.0741994 -0.0219473 0.857956
0.0845772 -0.229522 -0.0180677
-0.107037 0.0503481 1.47505
0.973633 -0.267769 1.43346
-0.0200367 0.00838657 0.134405
0.254843 -0.128036 1.36902
0.000367945 4.81349e-05 0.0122309
0 0 0
0.000955719 0.0109953 0.0316293
-9.36843e-06 0.000203189 0.0131119
0.00125679 0.0081895 0.040244
0.00251657 0.0602787 0.113282
-4.2879e-08 -2.22352e-06 -0.0001168
-0.247627 -0.122964 1.3077
-0.000367017 1.87124e-05 0.0121112
-0.000972333 0.0109598 0.0310743
-0.00128693 0.00834553 0.0408735
-0.00015545 -0.00175281 0.0222704
6.83604e-05 0.00409537 0.0129248
0 0 0
1.95562e-06 -0.00136375 0.016735
0 0 0
-4.63676e-08 -5.87482e-07 -6.37693e-06
0 0 0
0 0 0
-0.000113006 0.0281225 0.209764
-7.29363e-05 0.0344723 0.21614
-1.78158e-05 -0.000167818 0.00714789
0.000153494 -0.00175201 0.0222366
-7.00375e-05 0.00411943 0.0129981
0 0 0
-3.60599 -2.52674 19.9167
-1.81356 -3.9256 20.0806
-1.65761 -2.13947 18.2092
1.7042 0.700137 11.7243
1.06805 1.55019 16.4908
1.20624 0.539113 4.95224
-4.38122 1.32166 20.5089
-4.03323 2.21139 16.0348
-1.55775 2.19401 19.9717
0.308175 -0.276905 14.9147
-0.589965 -0.401107 6.63623
-0.22879 -0.0439605 21.7378
1.82684 -3.90783 20.0834
1.67449 -2.1055 18.2391
3.59951 -2.50123 19.9229
-1.02018 1.51733 16.172
-1.16997 0.469826 4.4857
-1.70067 0.645523 11.9963
4.03439 2.17523 16.1212
1.54609 2.21327 19.9639
4.38089 1.32279 20.5065
0.660964 -0.311858 5.63564
0.208897 -0.0190042 21.7477
-0.288101 -0.269127 15.073
0.453179 0.00175172 19.0531
-1.15114 -0.182907 20.9707
0.201579 -0.460898 18.3569
0.516041 0.138909 19.6445
-2.97798 -0.760139 21.91
-1.7448 2.05697 21.1165
-1.25894 -0.497113 21.3164
-0.726783 0.73979 22.0406
1.1451 -0.154621 20.9948
-0.443422 -0.01707 19.1726
-0.530886 0.137645 19.5454
-0.199874 -0.469384 18.5498
1.73228 2.12745 21.1024
2.9811 -0.758297 21.9043
0.7027 0.788942 22.0603
1.26546 -0.498743 21.39
-0.85261 -0.715889 20.1073
-0.664416 -0.444361 19.8535
-0.541849 -0.612125 19.7624
-0.837634 -0.744637 21.3455
-1.52893 -1.05457 20.5074
-1.28191 -1.63025 20.4592
-0.0863522 -0.177689 21.6375
-0.380524 -0.426073 21.6813
-0.448493 -0.350827 21.7916
0.477867 0.156501 21.8103
0.187004 -0.242009 21.8053
0.16283 0.0524301 21.8595
1.03968 0.53168 21.468
1.21852 0.322676 21.7122
0.837654 0.9427 21.7168
1.25621 0.751009 21.3531
1.59388 0.446778 21.2758
1.23867 1.06065 21.4629
1.48135 0.312903 20.8801
1.07559 0.778002 21.0329
-1.46064 -0.725994 19.781
-1.06224 -0.25221 19.5297
-0.867444 -0.637326 19.3858
-1.35905 -0.86221 21.725
-2.66383 -0.330326 20.4653
-0.0151671 -0.493199 21.7324
-0.920314 -0.813471 21.7706
0.601857 -0.361882 22.0471
-0.307443 -0.685392 21.8742
1.70461 -0.077807 21.0995
0.91309 -0.895778 20.7307
1.87837 -0.04048 20.7004
1.137 -1.00555 20.8736
2.33475 0.502935 15.9039
1.26735 -0.87598 21.4273
2.24316 0.435816 17.2081
-1.93059 0.281445 19.6673
-0.810191 0.451527 19.793
-1.38895 0.218068 18.8931
-1.97994 0.0028172 21.2994
-1.31069 0.784629 20.3711
-1.31188 -0.41909 21.848
-1.21962 0.544583 21.2066
-0.429581 -0.505593 22.1057
-0.642858 0.191819 21.6644
0.0603793 -0.83563 21.715
-0.176545 -0.191235 21.6134
0.382462 -0.889765 21.2036
-0.00353122 -0.331047 21.3556
0.133845 -0.932246 19.9434
0.0581655 -0.389287 21.1664
0.43347 -1.1814 19.736
-0.567836 0.507706 20.21
-0.45473 0.56652 19.9461
-0.644264 0.50216 20.6946
-0.631529 0.800541 20.4016
-0.505287 0.280101 21.1392
-0.625443 0.641621 21.0462
-0.248912 0.0103795 21.5488
-0.453694 0.324554 21.3622
-0.0789367 -0.100715 21.596
-0.16292 -0.0254334 21.6602
0.0651349 -0.103914 21.2927
0.0116263 -0.1311 21.4545
0.0314055 -0.0850321 21.0866
-0.786559 -1.45011 19.6485
-0.589693 -0.8518 19.312
0.0161015 -0.972988 19.3887
-0.948392 -1.57643 21.8286
0.00342285 -3.0253 20.3476
-0.337404 -0.176314 21.9345
0.0023637 -1.1452 22.1809
0.27615 0.698968 21.8686
-0.00227057 0.0470025 22.2657
0.66045 1.52872 21.1012
0.0030646 1.06676 21.2463
1.3572 1.96255 20.3505
1.78049 2.08643 16.574
0.0120917 1.68088 20.148
2.06002 1.88224 15.3137
0.137563 2.78631 18.6064
-1.1393 -0.533534 18.2467
0.0202794 -1.15536 18.5402
2.6626 1.48698 11.8669
0.0415947 -0.68622 1.91815
0.0583855 0.674115 3.07468
1.46399 -1.01919 6.56519
0.368183 2.16714 6.56681
-0.798765 1.06842 19.0894
0.0291784 0.60829 16.7648
-0.0166903 -1.19248 13.8763
-0.0640514 -0.257432 21.3528
-0.194151 0.439143 0.831041
-0.145574 -0.30667 21.9299
-0.12401 -1.03878 7.96681
-0.492465 0.917903 20.0121
-0.000466554 0.868751 19.7225
-0.567497 1.03733 20.6693
-0.00891716 1.32032 20.2365
-0.401834 0.575511 21.2622
-0.0208597 1.15021 21.0496
-0.197715 0.0586645 21.6252
-0.0225473 0.50422 21.4249
-0.0895261 -0.109802 21.5591
-0.00962698 0.0723075 21.6626
0.0543611 -0.108809 21.3019
0.00978447 -0.129062 21.4801
0.00557907 -0.0924862 21.1906
0.792045 -1.43559 19.6457
0.596751 -0.834365 19.3266
0.540724 -0.58809 19.7846
0.950524 -1.5612 21.8221
1.27937 -1.60556 20.4602
0.333064 -0.178218 21.9373
0.438116 -0.350157 21.7804
-0.262511 0.694398 21.8643
-0.165222 0.0501276 21.856
-0.625038 1.51132 20.9661
-0.8218 0.974081 21.7226
-1.34723 2.06786 20.1776
-1.68351 2.15742 15.8902
-1.21626 1.14486 21.4001
-1.96839 2.04106 15.1509
-0.997581 0.929834 20.9267
1.15671 -0.518956 18.2958
0.858127 -0.629175 19.4029
-2.64353 1.71422 10.6459
0.255199 -0.247373 0.148056
-2.33044 0.598013 14.7199
-1.14855 -0.74532 4.75042
-2.29271 0.64705 16.135
0.804098 1.05903 19.099
1.38358 0.214825 18.9212
0.0588273 -1.09602 12.4388
0.0632039 -0.217323 21.3671
-0.0591252 -0.863211 18.5256
0.171579 -0.257733 22.1926
-0.371292 -1.13191 17.8999
0.48962 0.921529 20.0094
0.454955 0.567201 19.9446
0.547452 1.06567 20.6618
0.629781 0.812995 20.397
0.36939 0.593038 21.2441
0.61165 0.669872 21.043
0.163671 0.0644278 21.5512
0.42496 0.333445 21.3657
0.0770185 -0.10879 21.4612
0.157655 -0.0275922 21.6692
-0.011254 -0.108141 21.231
-0.00788245 -0.128698 21.4348
-0.0389833 -0.086017 21.1218
0.849608 -0.706545 20.1108
0.664161 -0.435083 19.8439
0.838474 -0.736789 21.331
1.51746 -1.04382 20.5126
0.0849592 -0.180631 21.6312
0.383185 -0.429642 21.6737
-0.478466 0.15409 21.8145
-0.177441 -0.24887 21.7891
-1.04761 0.55722 21.4552
-1.20662 0.301139 21.7167
-1.32228 0.798001 21.3766
-1.62821 0.468648 21.2342
-1.57941 0.2949 20.7062
1.44678 -0.713179 19.8033
1.04911 -0.249406 19.5522
1.35652 -0.857707 21.7174
2.65289 -0.329446 20.4616
0.0226741 -0.492964 21.7233
0.920866 -0.809927 21.7632
-0.573403 -0.3704 22.0471
0.310144 -0.674634 21.8704
-1.70059 -0.0917924 21.0628
-0.880952 -0.910856 20.9619
-1.96294 -0.00685095 20.5205
-1.12542 -1.00002 20.4201
-1.46491 -1.04519 20.8163
1.90941 0.273311 19.6869
0.805384 0.448514 19.8021
1.97419 0.00260242 21.2957
1.31326 0.793733 20.3682
1.30408 -0.415053 21.8365
1.2376 0.563892 21.2074
0.42535 -0.492893 22.0893
0.65676 0.209697 21.6786
-0.0328362 -0.82602 21.6549
0.186057 -0.179273 21.6038
-0.353096 -0.905501 21.1528
0.0150661 -0.327279 21.3193
-0.0432658 -0.402437 21.128
0.568589 0.513357 20.2071
0.653501 0.519959 20.6923
0.514874 0.302865 21.1685
0.257961 0.0274968 21.6287
0.0953254 -0.0943759 21.609
-0.0460383 -0.111954 21.2573
-1.07515 -0.740751 19.9826
-1.13059 -1.85976 19.096
-0.90886 -1.07894 19.8661
-1.72483 -1.26913 19.16
-0.678797 -0.64284 19.6014
-2.06953 -2.152 20.336
-1.08533 -0.830372 21.531
-1.63011 -1.65095 22.493
-0.946536 -1.08694 21.6064
-1.36431 -1.30307 21.932
-0.24861 -0.0998095 21.9422
-0.0278742 -0.267492 21.6814
-0.345696 0.0639826 19.4433
-0.133865 -0.0820339 21.7632
0.548146 -0.015597 18.5554
0.382527 -0.0363381 21.6477
0.661759 -0.0197558 21.968
1.11902 0.849418 18.3287
0.518774 0.481238 21.9913
0.737293 -0.251685 15.2182
1.59594 1.1675 20.166
1.43769 0.38341 21.4601
1.29229 1.78648 16.2216
1.07877 1.12991 21.5021
1.98337 0.503042 14.2456
2.09972 1.15665 19.5148
1.69047 0.291773 20.884
2.09311 2.08461 15.8273
1.52787 1.33321 21.3436
2.64872 0.225913 16.9052
1.78405 0.611472 19.1679
-1.87691 -0.326194 19.6217
-3.38128 -1.22297 15.9305
-2.92568 0.803155 18.697
-1.23221 -0.35794 18.9512
-5.72345 -0.54603 20.0587
-1.80638 -0.574026 21.7361
-3.15783 -0.156396 21.8249
-0.253498 -1.63832 18.3657
-0.539074 -0.846631 21.8294
-2.22486 -0.783817 21.8827
0.00689633 0.0165725 16.3185
0.111949 -0.688403 21.9181
-0.226631 -0.139153 18.4135
0.775567 -0.754764 8.46848
0.990075 -1.00252 20.6802
-0.59447 -1.53706 0.486584
-0.0160565 -0.621129 17.4302
1.0794 -1.11751 13.2575
1.24761 -0.937999 21.1351
1.08361 -0.429736 4.52967
0.350748 -1.2234 21.0917
1.54871 -1.23032 15.5903
-1.10247 0.671286 19.9875
-1.23733 1.82468 19.3028
-0.555307 0.725096 20.1347
-0.91446 0.741693 19.4753
-1.5605 1.33698 20.2121
-1.33745 0.695365 20.7999
-1.67099 2.04982 20.4617
-0.656141 0.778445 20.7129
-1.55686 1.06709 21.2092
-0.991611 0.3854 21.5025
-1.27855 1.47407 21.8799
-0.533239 0.447278 21.2923
-0.756079 0.407002 21.8487
-0.394054 -0.00671889 21.6986
-0.398415 0.231053 21.9448
-0.27512 0.0573967 21.7187
-0.227877 -0.139752 21.6646
-0.0625363 -0.279145 21.5152
-0.156758 -0.172489 21.5954
-0.137102 -0.0943919 21.474
-0.0488377 -0.352809 21.2902
0.064892 -0.462317 21.2914
0.0169841 -0.465786 21.146
0.0171594 -0.118527 21.2043
-0.00672664 -0.430349 21.1966
1.1365 -1.83173 19.1103
0.00826974 -1.92927 19.3721
0.0175465 -3.49732 17.0847
0.00678565 -1.0539 19.0374
0.00344457 -4.84906 20.6042
1.62268 -1.62753 22.4906
0.00276888 -2.15234 21.8618
0.00191342 -1.239 21.1137
0.340806 0.0601656 19.4199
-0.00597947 -0.513227 22.1418
-0.00153464 0.144568 18.415
-1.13038 0.839866 18.1597
0.000723276 0.617367 22.1587
0.000848651 1.05652 13.1938
-1.19761 1.71004 15.6351
0.0101984 1.36525 20.5521
-0.0124305 0.16992 2.39132
0.0517283 1.47861 11.9843
-2.07313 2.18218 15.5987
0.0431871 1.97109 19.418
0.162951 2.35931 3.12733
0.083162 2.50286 11.9165
3.40253 -1.20793 16.0046
0.0397105 4.66519 12.2326
0.0158452 -0.735768 17.3042
0.586972 -1.41551 -0.0269316
-0.141115 0.735282 -0.00120465
-0.084767 1.58873 -2.33151
-0.808015 -0.13113 1.99432
-0.0451157 -0.32814 5.50723
-0.0417021 2.32891 -1.23563
1.23671 1.82464 19.3024
-0.00332117 1.11818 19.922
0.00483085 1.4172 18.7177
-0.0112832 3.10078 19.6695
1.6617 2.08604 20.4487
-0.011933 1.32839 20.6194
-0.0280766 3.28827 20.9294
1.25713 1.55019 21.8898
-0.0310714 0.801586 21.3833
-0.0329609 1.1409 22.1702
0.379996 0.265549 21.9589
-0.0127724 0.156177 21.8618
-0.019673 0.0669261 21.7522
0.137885 -0.143882 21.5654
-0.00805222 -0.12848 21.6632
-0.0260305 -0.18662 21.51
-0.0269096 -0.436609 21.0516
0.00722313 -0.12101 21.2003
-0.0322957 -0.647372 20.9431
1.06832 -0.731245 19.9913
0.902693 -1.04264 19.8851
1.72278 -1.2526 19.1823
0.673692 -0.620229 19.6213
2.07113 -2.13267 20.3311
1.08625 -0.827139 21.5172
0.9383 -1.0733 21.5923
1.37267 -1.31064 21.964
0.250409 -0.115427 21.9334
0.0326575 -0.272954 21.6752
0.12655 -0.0816377 21.757
-0.539111 -0.04168 18.6702
-0.381734 -0.046929 21.6467
-0.646351 -0.0321964 21.9653
-0.522372 0.488109 21.98
-0.748362 -0.306463 15.6988
-1.60498 1.18169 20.0642
-1.45306 0.396078 21.446
-1.06968 1.20125 21.5039
-1.93246 0.49535 13.4801
-2.10068 1.32619 19.0427
-1.75799 0.355608 20.8064
-1.51454 1.40726 21.1998
-2.6381 0.390436 16.0157
-1.87946 0.857595 18.2505
1.85115 -0.321048 19.6428
2.90207 0.790921 18.7331
1.22474 -0.348731 18.9887
5.70876 -0.545461 20.0646
1.80034 -0.571638 21.7279
3.15066 -0.162021 21.8047
0.263 -1.63343 18.4432
0.541112 -0.836463 21.8174
2.21333 -0.780496 21.9009
0.00476473 -0.0549316 16.6203
-0.0965022 -0.681672 22.0092
0.257201 -0.161331 18.7256
-0.787184 -0.764151 8.89169
-0.966884 -1.00053 20.5188
0.0151528 -0.545829 16.4825
-0.939135 -1.21976 11.2836
-1.32606 -1.00018 20.6151
-0.340577 -1.27373 21.0249
-1.52291 -1.29535 13.9251
1.1007 0.670889 19.9894
0.554181 0.729709 20.1308
0.914883 0.735577 19.4799
1.56112 1.34894 20.2068
1.34807 0.711556 20.798
0.647371 0.793682 20.7095
1.56819 1.11047 21.2048
1.0092 0.407451 21.5159
0.517064 0.488329 21.3007
0.768047 0.449544 21.874
0.400514 0.00246485 21.7169
0.260089 0.0525327 21.78
0.230305 -0.117338 21.67
0.071299 -0.269565 21.4819
0.111275 -0.0996959 21.5649
0.0505129 -0.316774 21.3041
-0.0546836 -0.476685 21.3836
-0.0283864 -0.115809 21.2259
0.0440305 -0.379331 21.4269
-1.24097 -1.23002 19.5909
-1.16415 -1.2057 22.1087
0.112846 0.0673293 21.5928
1.04633 0.458262 21.2593
1.83987 1.18627 20.1079
2.16092 1.08897 19.3289
-2.84962 -0.637455 18.4459
-1.95743 -1.13321 21.8102
-0.0937125 -1.1903 17.4061
0.229257 0.981601 13.7854
0.693906 -0.913555 11.0653
1.74692 -1.14124 15.6233
-1.31865 1.1678 19.6948
-1.62529 1.22323 20.7077
-1.21285 0.795846 21.6835
-0.424351 0.0746405 21.826
-0.127166 -0.246521 21.4766
0.0192938 -0.524205 21.4225
0.00933923 -2.55335 18.6517
0.00263477 -2.73866 22.446
-0.00231102 -0.487147 19.0605
0.00430133 0.734071 15.386
0.0170078 1.20607 12.5476
0.0361837 2.32338 11.3667
0.0389784 -2.29011 12.5726
0.00842236 -0.473647 -0.52803
0.0834478 2.27762 -4.21715
0.000259093 2.58909 18.8607
-0.0233356 3.09874 20.037
-0.0408348 2.3391 22.0053
-0.0230792 0.438209 22.0132
-0.0258178 -0.0811757 21.5839
-0.00308344 -0.348187 21.292
1.23856 -1.20994 19.6014
1.16949 -1.204 22.0909
-0.109155 0.0525762 21.5999
-1.05669 0.447967 21.2325
-1.86029 1.25694 19.9035
-2.16297 1.26402 18.5022
2.82287 -0.624308 18.4962
1.96705 -1.12985 21.8659
0.103573 -1.2041 17.5606
-0.245975 0.955555 14.2856
-0.552032 -1.04114 10.0752
-1.82397 -1.12125 13.7029
1.31694 1.16663 19.6947
1.62857 1.25338 20.6989
1.22872 0.845846 21.6959
0.421851 0.102805 21.8401
0.142022 -0.224937 21.5226
-0.0241052 -0.497587 21.3401
-0.619653 -0.460709 0.673224
0.0161559 -0.266937 0.788974
-0.374606 -0.23123 1.83953
-0.00964323 -0.0911663 0.0170222
0 0 0
-0.0230009 0.0309629 0.155592
-0.210457 0.0699112 0.292938
-0.0404587 0.131804 0.375802
-0.989657 -0.170142 2.053
-0.0511212 -0.0729706 0.0271061
-0.0270933 -0.00838715 0.0387238
0.0283897 -0.00562506 0.289497
-0.0164379 -0.271681 0.80198
0.614831 -0.457082 0.668299
0.374981 -0.236831 1.87074
0 0 0
0.00843978 -0.0956914 0.0182677
0.0302171 0.0369563 0.186722
0.0401985 0.132444 0.37692
0.193487 0.064409 0.269098
0.983328 -0.167971 2.04344
0.0225659 -0.00631721 0.0360796
0.053314 -0.0723238 0.0228243
-0.0292432 -0.00443512 0.286821
-0.186774 0.0805999 1.03661
0.234718 -0.104484 1.59777
0.00199511 -0.00110954 0.0158988
-1.29552e-18 1.52822e-18 4.3717e-17
0.0697661 0.0331871 0.477321
0.25331 -0.207725 1.27147
-0.00294749 0.00485695 0.013508
0 0 0
-0.598243 -0.270643 0.725837
-0.00106822 -0.00125429 0.0381418
0.00199157 0.0135037 0.0824531
-0.0274254 0.0369089 0.0775991
0.0299884 0.0329446 0.205415
0 0 0
0.00319111 0.0120401 0.0652736
0.000107702 0.000114145 0.00708771
0.212587 0.0870307 1.18353
0 0 0
-0.230517 -0.102898 1.55714
-0.00198083 -0.00123817 0.0158131
-0.0700247 0.0342379 0.470268
-1.72197e-17 -6.17809e-18 1.13521e-16
-0.262586 -0.216127 1.30609
0.00323037 0.0053185 0.0149487
0.59539 -0.269793 0.724701
0.0274924 0.0370649 0.0778852
0.00106092 -0.00126721 0.0381735
-0.00200197 0.0136465 0.0833893
-0.0301342 0.0329516 0.203316
-0.000134087 0.000128079 0.00790111
0 0 0
-0.00326566 0.0122445 0.0658446
-0.0165623 -0.0154765 0.205232
0 0 0
1.00264e-06 -0.000176643 0.00219337
0 0 0
0 0 0
-0.00225494 -0.001122 0.0140418
0 0 0
0 0 0
1.03205e-19 -4.77973e-18 -4.86083e-17
-6.88803e-05 -0.00485579 0.00257889
0 0 0
0.00372569 0.00243523 0.0319267
-0.00255458 1.91779 1.22855
0 0 0
0 0 0
-0.0107624 0.00194325 0.0154456
-0.00160324 0.00546643 -0.0129163
-6.97646e-05 -0.000776686 0.00895217
0 0 0
0.00058645 -0.00027746 0.0110792
0 0 0
0.0165568 -0.0154905 0.205482
0.00223341 -0.0011186 0.0139923
0 0 0
0 0 0
0 0 0
-0.0038464 0.00242549 0.0318829
-4.13141e-05 0.000396477 0.0106424
0.0108339 0.0019602 0.0155711
0 0 0
-0.000628398 -0.000264075 0.0107221
0 0 0
-0.000508938 0.00176408 0.0240847
0 0 0
0.0204737 -0.0293648 0.0839008
3.7515e-05 0.00358147 0.0147629
0 0 0
-8.97481e-09 -1.31843e-07 3.42079e-05
3.67871e-05 0.0111772 0.0273763
-0.00407202 0.0247037 0.0657991
-1.02015e-08 -6.35267e-09 1.61759e-05
-5.05785e-06 0.000268912 0.00231653
0.00156121 0.00753449 0.0207833
-0.00235864 0.00552824 0.0290854
-1.47669e-05 0.0100245 0.0203217
0.000106544 0.11266 0.301848
-1.42182e-06 4.07063e-05 0.000655188
-1.15455e-05 2.29081e-05 0.00846271
0 0 0
0.00048283 0.00169231 0.023311
-0.0204248 -0.0294784 0.0835129
-3.69547e-05 0.00352425 0.0147696
-5.64795e-05 0.0112481 0.0272306
0.00336522 0.0216832 0.0565291
0.00233052 0.00549204 0.0288888
-0.0015256 0.00733252 0.0203407
-0.0477979 -0.0278026 0.303053
-0.128268 -0.03859 0.439348
0 0 0
-0.000326865 -0.0110649 0.0323422
0.000111186 0.00180993 0.02514
0.000939015 0.00700162 0.0309854
-0.00394724 0.0103258 0.0888461
0 0 0
-0.0144384 0.00450939 0.239941
0 0 0
0 0 0
0 0 0
0 0 0