# vtk DataFile Version 2.0
tri_press
ASCII
DATASET UNSTRUCTURED_GRID
POINTS 3682 float
-0.785 0.415 -2.3371
-0.775 0.495 2.31098
-0.785 0.685 -2.33771
-0.765 0.785 2.33316
0.785 0.415 -2.33845
0.775 0.495 2.31078
0.785 0.685 -2.33586
0.765 0.785 2.3331
-0.83647 0.386864 -0.78774
-0.846682 0.399984 0.76162
-0.829416 0.769416 -0.780753
-0.849452 0.829452 0.776203
0.836482 0.386851 -0.788707
0.846448 0.400218 0.761037
0.82945 0.76945 -0.77954
0.84923 0.82923 0.77678
-1.6109 0.204606 -3.58405
-1.61425 0.22542 -2.34164
-1.65401 0.209261 -0.792387
-1.66428 0.218857 0.755438
-1.61945 0.283572 2.30457
-1.6056 0.319243 3.54641
-1.60916 0.340287 4.78935
-1.60772 0.372531 -3.58112
-1.60929 0.40576 -2.338
-1.65991 0.399169 -0.78734
-1.66605 0.406865 0.762704
-1.59606 0.459988 2.31324
-1.5897 0.493748 3.55519
-1.60101 0.515701 4.7979
-1.60756 0.683332 -3.57773
-1.60814 0.71557 -2.33538
-1.65571 0.775747 -0.779622
-1.66631 0.811532 0.776785
-1.59117 0.794594 2.33248
-1.58723 0.826701 3.57419
-1.60055 0.85943 4.81578
-1.61951 1.20654 -3.56666
-1.6239 1.24903 -2.32291
-1.6425 1.32084 -0.765021
-1.65627 1.37117 0.794588
-1.64684 1.37949 2.35257
-1.63483 1.38707 3.59653
-1.62957 1.40635 4.83895
-0.799259 0.209153 -3.58362
-0.791543 0.231773 -2.34107
-0.82467 0.202668 -0.792586
-0.84249 0.215049 0.754431
-0.811949 0.302837 2.30289
-0.800557 0.332508 3.54525
-0.802833 0.347031 4.78866
-0.799156 0.373637 -3.58085
-0.78646 0.506644 3.55423
-0.796322 0.521509 4.79737
-0.799317 0.671407 -3.57831
-0.784357 0.826125 3.5743
-0.796384 0.860053 4.81577
-0.803597 1.19807 -3.5673
-0.803462 1.24086 -2.32364
-0.816996 1.31977 -0.765415
-0.834623 1.37544 0.794768
-0.83496 1.37988 2.35311
-0.82557 1.38535 3.59705
-0.82001 1.40487 4.83931
0.80439 0.209155 -3.58413
0.812794 0.231774 -2.34205
0.838109 0.202682 -0.793389
0.82974 0.215197 0.753913
0.784104 0.30289 2.30262
0.792142 0.332542 3.54504
0.801316 0.347061 4.78848
0.793538 0.373638 -3.58118
0.790017 0.506665 3.55405
0.800968 0.521533 4.79722
0.792929 0.671408 -3.57764
0.786423 0.826132 3.57421
0.799044 0.860065 4.81568
0.819669 1.19806 -3.56671
0.826976 1.24085 -2.32295
0.831476 1.31975 -0.76484
0.816512 1.37538 0.795106
0.793494 1.37984 2.35325
0.791826 1.38534 3.59709
0.796927 1.40487 4.83931
1.61337 0.204611 -3.58477
1.62323 0.225425 -2.34283
1.66001 0.209289 -0.793459
1.65967 0.219026 0.754655
1.6094 0.283693 2.30404
1.60229 0.319319 3.54599
1.60939 0.340347 4.789
1.60157 0.372536 -3.58152
1.60561 0.405766 -2.33892
1.65814 0.399164 -0.788165
1.66876 0.407016 0.762057
1.60254 0.460094 2.31276
1.59644 0.493808 3.55483
1.6067 0.515751 4.7976
1.60058 0.683335 -3.57682
1.60403 0.71558 -2.334
1.65392 0.775723 -0.77867
1.6688 0.811399 0.777132
1.59675 0.794611 2.33234
1.59233 0.826724 3.574
1.60429 0.859455 4.81559
1.63225 1.20653 -3.56564
1.64152 1.24901 -2.32175
1.65282 1.32079 -0.764056
1.64261 1.37108 0.795164
1.61559 1.37943 2.35281
1.60737 1.38704 3.59661
1.60948 1.40634 4.83894
-0.786243 0.55 -2.33865
0 0.425952 -2.32682
-0.839894 0.371773 -1.56242
-0.773776 0.64 2.32585
0 0.491705 2.31418
-0.834472 0.423862 1.5363
0 0.718043 -2.36983
-0.837814 0.757814 -1.55923
0 0.814719 2.36285
-0.831407 0.831407 1.55468
0.786028 0.55 -2.33818
0.839894 0.371772 -1.56358
0.774207 0.64 2.32615
0.834219 0.424115 1.53591
0.837671 0.757671 -1.5577
0.831174 0.831174 1.55494
-0.841294 0.393706 -0.01306
-0.85676 0.57814 -0.784247
6.22456e-06 0.202996 -0.788223
-0.881775 0.614718 0.768912
-0.000117026 0.213292 0.761329
-0.837814 0.797814 -0.00227499
1.71116e-05 0.972073 -0.780147
-0.000111015 1.23325 0.776492
0.841295 0.393705 -0.013835
0.856759 0.57815 -0.784123
0.881432 0.614724 0.768909
0.83784 0.79784 -0.00137997
-0.86199 0.56407 -1.56083
0.86204 0.564075 -1.56064
3.11228e-06 0.190041 -1.563
8.55581e-06 0.847901 -1.55847
0 0.55 -2.35273
-0.868147 0.596429 -0.00766748
0.868159 0.596437 -0.00760746
-5.54007e-05 0.211189 -0.0134475
-4.69516e-05 1.25663 -0.00182748
-0.863443 0.627359 1.54549
0.863167 0.627362 1.54542
-5.8513e-05 0.331299 1.5361
-5.55074e-05 0.907612 1.55481
0 0.64 2.30753
-0.796247 0.4825 -2.3485
-0.3925 0.414996 -2.33744
-0.812418 0.393415 -1.94976
-0.79608 0.5675 2.34011
-0.3875 0.484541 2.32139
-0.806155 0.458011 1.92364
-0.78636 0.6175 -2.33892
-0.3925 0.685682 -2.33793
-0.817031 0.727031 -1.94847
-0.768939 0.7125 2.32905
-0.3825 0.801304 2.34945
-0.803143 0.813143 1.94392
0.3925 0.415263 -2.33785
0.79721 0.4825 -2.35001
0.812093 0.39374 -1.95101
0.3875 0.484543 2.32129
0.795518 0.5675 2.33938
0.80594 0.458227 1.92334
0.3925 0.6857 -2.33702
0.786867 0.6175 -2.33837
0.816924 0.726924 -1.94678
0.3825 0.80115 2.34927
0.769136 0.7125 2.32916
0.802896 0.812896 1.94402
-0.84784 0.36966 -1.17508
-0.837418 0.391749 -0.4004
-0.846325 0.482646 -0.785993
-0.454232 0.222929 -0.787982
-0.851046 0.401454 1.14896
-0.844793 0.39604 0.37428
-0.867679 0.505626 0.765266
-0.461229 0.230979 0.761474
-0.837281 0.767281 -1.16999
-0.844999 0.674733 -0.7825
-0.830589 0.780589 -0.391514
-0.449523 0.940392 -0.78045
-0.849076 0.839076 1.16544
-0.875729 0.727143 0.772558
-0.844983 0.814983 0.386964
-0.506296 1.19438 0.776348
0.847846 0.369654 -1.17614
0.454241 0.22293 -0.788465
0.837382 0.391785 -0.401271
0.846327 0.482647 -0.786415
0.851014 0.401486 1.14847
0.461056 0.230975 0.761183
0.844559 0.396274 0.373601
0.867323 0.50578 0.764973
0.83707 0.76707 -1.16862
0.449615 0.940524 -0.779843
0.844956 0.674726 -0.781832
0.830636 0.780636 -0.39046
0.848861 0.838861 1.16586
0.506101 1.19432 0.776636
0.875471 0.727047 0.772844
0.84474 0.81474 0.3877
-0.837578 0.557035 -1.94974
-0.393121 0.55 -2.24772
1.55614e-06 0.203355 -1.94491
0 0.487976 -2.3372
-0.858603 0.467921 -1.56162
-0.419945 0.208836 -1.56271
-0.835914 0.63368 1.93567
-0.386888 0.64 2.29555
-2.92565e-05 0.346685 1.92514
0 0.565852 2.3193
-0.850729 0.52561 1.5409
-0.417265 0.333451 1.5362
4.27791e-06 0.813597 -1.96415
0 0.634021 -2.36046
-0.859671 0.660942 -1.56003
-0.418903 0.825476 -1.55885
-2.77537e-05 0.867652 1.95883
0 0.727359 2.33048
-0.857136 0.729383 1.55009
-0.415731 0.902017 1.55475
0.837326 0.557038 -1.94941
0.393014 0.55 -2.2478
0.858593 0.467924 -1.56211
0.419949 0.208832 -1.56329
0.835626 0.633681 1.93579
0.387104 0.64 2.29579
0.850867 0.525738 1.54067
0.41708 0.333466 1.53601
0.859983 0.660873 -1.55917
0.41884 0.825554 -1.55808
0.856845 0.729268 1.55018
0.415559 0.902004 1.55488
-0.85738 0.493738 -0.0103637
-0.4614 0.220998 -0.0132537
-0.865799 0.571105 -1.17254
-0.860771 0.587284 -0.395957
4.66842e-06 0.189317 -1.17561
-2.45881e-05 0.206084 -0.400835
-0.876033 0.605573 0.380622
-0.884803 0.621039 1.1572
-8.62134e-05 0.211809 0.373941
-8.77695e-05 0.190919 1.14872
-0.861439 0.701351 -0.00497124
-0.517396 1.22415 -0.00205123
1.28337e-05 0.866736 -1.16931
-1.492e-05 1.23583 -0.390987
-7.89832e-05 1.25775 0.387332
-8.32611e-05 1.05378 1.16565
0.857379 0.493745 -0.0107212
0.461214 0.221259 -0.0136412
0.86582 0.571113 -1.17238
0.860783 0.587294 -0.395865
0.875758 0.605581 0.380651
0.88442 0.621043 1.15717
0.86145 0.701364 -0.00449371
0.517323 1.22409 -0.00160372
-0.827468 0.475211 -1.94975
-0.867266 0.475211 -1.17381
-0.860948 0.66736 -1.17126
-0.83441 0.639221 -1.9491
0.827102 0.475212 -1.95021
0.834229 0.639187 -1.9481
0.86066 0.667337 -1.1705
0.867282 0.475212 -1.17426
-0.406223 0.258304 -1.94734
0.406224 0.25815 -1.94796
0.419096 0.215912 -1.17588
-0.419089 0.215417 -1.17535
-0.405701 0.790573 -1.95631
-0.416801 0.851657 -1.16965
0.416787 0.85167 -1.16896
0.40567 0.790664 -1.95546
-0.392811 0.485238 -2.32332
-0.392811 0.625761 -2.24701
0.392757 0.625761 -2.24703
0.392757 0.485238 -2.32343
-0.851349 0.488444 -0.398179
-0.863364 0.499265 0.377451
-0.87003 0.71497 0.383793
-0.852754 0.687809 -0.393736
0.851349 0.488448 -0.398568
0.852753 0.68782 -0.393163
0.869782 0.714866 0.384175
0.863125 0.499375 0.377126
-0.457447 0.222702 -0.400618
0.457777 0.221995 -0.401053
0.463147 0.222093 0.373771
-0.463589 0.221439 0.37411
-0.53937 1.19409 -0.391251
-0.518185 1.22194 0.387148
0.518038 1.22186 0.387516
0.53934 1.19405 -0.390724
-0.876185 0.516481 1.15308
-0.826331 0.546555 1.92965
-0.828923 0.720942 1.93979
-0.878431 0.725734 1.16132
0.87619 0.516605 1.15282
0.878162 0.725622 1.16151
0.828638 0.720884 1.9399
0.826069 0.546619 1.92957
-0.420332 0.303577 1.14884
0.420123 0.303149 1.14859
0.40229 0.349574 1.92424
-0.402383 0.349574 1.92439
-0.420256 1.04443 1.16555
-0.399116 0.861136 1.95138
0.39903 0.860791 1.95142
0.420059 1.04575 1.16576
-0.387194 0.566676 2.3747
0.387302 0.566676 2.37467
0.384802 0.71993 2.3175
-0.384694 0.71993 2.31735
-0.792966 0.44875 -2.34514
-0.58875 0.421402 -2.33087
-0.795002 0.407914 -2.14343
-0.786233 0.53125 2.32624
-0.58125 0.487898 2.31806
-0.79087 0.476213 2.11731
-0.785611 0.65125 -2.33824
-0.58875 0.601877 -2.25436
-0.802333 0.707333 -2.14309
-0.76659 0.74875 2.33073
-0.57375 0.792383 2.34054
-0.787237 0.802237 2.13854
0.58875 0.42181 -2.33147
0.79439 0.44875 -2.34752
0.794684 0.408233 -2.14473
0.58125 0.487969 2.31784
0.786146 0.53125 2.32597
0.790671 0.476412 2.11706
0.58875 0.676025 -2.32712
0.786204 0.65125 -2.33739
0.802261 0.707261 -2.14132
0.57375 0.792427 2.34053
0.766791 0.74875 2.33085
0.787047 0.802047 2.13856
-0.840005 0.380412 -0.98141
-0.83625 0.39 -0.59407
-0.84102 0.434944 -0.786867
-0.683843 0.227912 -0.787861
-0.852058 0.397526 0.95529
-0.845672 0.398078 0.56795
-0.857978 0.452406 0.763443
-0.678578 0.266237 0.761547
-0.834295 0.769295 -0.975373
-0.836019 0.72148 -0.781627
-0.826614 0.771614 -0.586134
-0.647839 0.871643 -0.780602
-0.850756 0.835756 0.970823
-0.865437 0.779721 0.774381
-0.847251 0.822251 0.581584
-0.671655 0.999478 0.776276
0.839809 0.380607 -0.982425
0.683826 0.227962 -0.788586
0.836246 0.390004 -0.594989
0.841016 0.434944 -0.787561
0.852021 0.397562 0.954755
0.678437 0.266227 0.76111
0.84542 0.39833 0.567319
0.857725 0.452579 0.763005
0.834057 0.769057 -0.97408
0.648056 0.872035 -0.779692
0.83602 0.721497 -0.780686
0.826623 0.771623 -0.585
0.850538 0.835538 0.97132
[...]
POINT_DATA 3682
SCALARS point_scalars float 1
LOOKUP_TABLE default
-25.1785
-33.3715
59.4106
-31.9717
-30.0739
-33.2581
-33.7177
-32.0952
-32.5823
-33.1151
-35.5147
-40.9291
-32.5694
-33.0597
-35.7726
-40.775
0.999995
-118.751
-32.8602
-36.578
-30.3379
-32.0853
-31.3635
0.999995
-149.747
-33.6691
-36.578
-30.5671
-31.5881
-31.5881
0.999995
-138.005
-33.3446
-37.3288
-32.408
-31.5881
-31.5881
87.0331
-124.086
-35.1459
-41.5457
-30.3841
-30.7756
-30.749
106.008
-108.89
-35.014
-35.9705
-33.9488
-27.1869
-27.4588
106.008
-27.4588
-27.4588
106.008
-29.1589
-27.4588
87.0331
-143.573
-46.0083
-52.0435
-30.1478
-30.749
-29.1589
102.394
-116.966
-34.6106
-36.2426
-34.0303
-27.1507
-27.4757
102.394
-27.4757
-27.4757
102.394
-29.258
-27.4757
119.985
-133.703
-47.7579
-52.4566
-29.8022
-30.8789
-29.258
-8.36844
-117.298
-32.8064
-36.4827
-30.2647
-31.8948
-31.555
-8.36844
-154.776
-33.5369
-36.4827
-30.518
-31.555
-31.555
-8.36844
-138.952
-33.3497
-37.1718
-32.3153
-31.555
-31.555
-73.4372
-107.515
-35.46
-41.4184
-30.3264
-30.8789
-30.8789
90.3907
12.6011
-39.6315
-30.818
-21.9808
-33.8508
92.3819
-33.0737
-25.8113
-37.2348
70.1689
-39.6513
-31.0555
-33.888
-32.3727
-37.3664
-33.4132
-32.2873
-39.9937
-35.2847
-34.3616
-43.4265
38.9615
-55.84
-33.3989
-32.2627
-35.2118
-43.484
-36.9706
-36.8749
-65.9193
-18.5581
202.654
-35.7195
-35.6484
-35.8754
-77.3928
-34.9441
-34.9343
-29.5451
-36.6859
-22.0789
7.70594
74.7722
-44.9975
-32.0999
-26.1763
-31.9377
88.496
90.515
-48.7559
-31.9257
-25.522
-32.426
70.7439
0.225074
-44.9952
-26.1818
-32.0437
-31.7955
88.334
63.2525
-43.8578
-25.5346
-32.0424
-32.3837
-30.5627
-32.7957
-32.4383
-38.9981
-35.2813
-33.9398
-32.6261
-37.3394
-27.5807
-33.2805
-44.4006
14.9071
-43
-37.5942
-41.3803
-53.8137
-30.468
-39.0051
-32.766
-32.3989
-35.3
-37.3923
-34.0408
-32.6203
-27.6684
13.2806
-33.3252
-44.4578
-43.0611
-53.8016
-37.4385
-41.2738
-48.0845
186.65
-82.1717
205.563
-37.5295
-60.7344
-31.8574
-24.6128
-27.5809
-21.312
-34.5547
-29.6234
-45.7581
197.232
-35.7174
-22.7523
-30.753
-21.2009
-35.7544
-36.8534
-47.9504
191.811
-37.4682
-60.7353
-31.7949
-24.6302
-34.5987
-29.6389
-35.6426
-21.375
-35.7193
-36.8636
-34.0918
-35.2746
-33.24
-35.1026
-49.538
-36.4841
-35.4323
-37.6015
-37.0278
-37.6078
-38.3082
-65.0227
6.97456
-110.545
-63.9221
-41.2729
-34.0567
-35.284
-33.1786
-34.9991
-35.3823
-37.5365
-38.2301
-64.9616
-45.6664
-34.7197
-31.353
-47.8563
-45.6887
-47.3403
-31.3935
-34.5421
-61.2767
-62.2491
-47.7044
-47.7071
-56.1411
-3.13612
-2.63834
-51.9118
196.992
185.398
189.798
199.69
-33.4293
-34.3874
-37.5448
-38.2591
-33.3695
-38.1626
-37.4486
-34.3954
-35.6646
-35.8106
-36.9965
-36.7948
-98.2148
-56.4159
-56.3602
-96.6816
-36.6493
-31.7416
-32.1051
-39.2295
-36.5645
-39.2062
-32.0701
-31.6615
-35.8508
-35.2961
-28.8745
-28.8344
-42.4959
-30.9378
-30.9266
-42.5251
-24.5175
-24.5503
-24.1928
-24.1663
20.4164
70.877
-69.2904
-32.5501
-27.6016
-31.0942
87.0331
163.39
-84.5193
-31.8858
-26.9406
-31.362
64.4082
16.5023
-71.4707
-27.5773
-32.4751
-30.9981
85.6913
33.1665
-69.6507
-26.9996
-31.9902
-31.388
-39.7648
-32.2108
-32.2101
-37.7521
-36.6488
-33.9054
-31.8846
-41.4216
-29.9773
-34.624
-40.915
-23.6281
-42.3899
-38.7492
-40.9043
-47.1355
-39.7931
-37.751
-32.209
-32.1958
-36.4383
-41.1926
-33.9344
-31.8604
-30.2541
-22.8122
-34.8061
-41.0334
-42.415
-47.1037
-38.5823
-40.7327
38.8319
94.3641
-81.5564
178.793
82.9352
50.9345
-75.6678
147.197
-45.6564
-34.9671
-38.246
-45.1719
-31.5336
-31.2782
-31.2906
-25.8896
-23.3926
-23.4236
-26.5906
-20.9529
-32.6773
-35.5679
-34.4151
-30.2488
122.031
121.557
-70.3405
155.878
-36.5722
-29.9092
-34.7877
-27.9831
-25.045
-25.0555
-27.8506
-22.3017
-35.8683
-39.7559
-36.2164
-37.944
29.7708
77.4376
-82.1796
185.71
-45.7708
-34.9316
-38.2185
-45.3574
-31.5084
-31.7244
-31.2332
-25.916
-32.6304
-35.5385
-34.4755
-30.2415
-34.7481
-29.8303
-34.6559
-25.588
-35.7997
-39.8211
-36.262
-38.0245
-33.1475
-33.4508
-33.5755
-34.7162
-32.2731
-32.3595
-33.3806
-33.3797
-39.1926
-39.2747
-44.394
-40.4992
-34.2763
-36.3725
-35.1724
-36.9354
-35.3629
-35.7113
-36.3875
-37.2071
-44.5569
-42.7324
-39.9626
-51.7983
34.6717
33.2322
20.7038
24.5817
-55.573
-55.544
-59.9641
-48.3203
-33.1194
-33.4752
-33.5549
-34.7384
-32.2436
-32.3456
-33.3017
-33.3215
-34.1514
-36.2095
-34.9451
-36.8388
-44.552
-42.676
-39.8816
-51.9628
-40.2106
-37.2301
-36.5122
-33.6025
-39.9205
-37.1285
-36.4659
-33.5885
-86.6533
-66.281
-66.4351
-55.5052
-30.9254
-19.6146
-19.1578
-6.31064
197.147
207.259
201.746
198.026
-34.8128
-35.7554
-35.6345
-36.9639
-34.76
-35.6507
-35.5572
-36.8804
-35.6844
-35.8237
-36.5533
-35.7256
-75.1053
-91.3836
-68.7034
-74.9726
-33.36
-34.6516
-35.3943
-36.846
-33.3048
-34.6663
-35.3402
-36.906
-28.4568
-29.6611
-29.7313
-33.0182
-33.8303
-36.7294
-36.7323
-38.462
-23.2227
-21.1921
-21.6198
-23.2555
-75.205
186.402
-83.6964
175.057
-44.5573
-64.5123
-31.0005
-26.0798
-28.5665
-25.0009
-31.6386
-30.1279
-79.1768
148.992
-90.6442
176.899
-47.7445
-58.6807
-31.478
-25.8007
-28.2012
-24.5048
-32.084
-31.7511
-84.271
172.967
-76.9324
189.913
-44.5593
-65.1124
-28.5689
-25.012
-30.9286
-26.0872
-31.557
-30.1403
-83.82
190.224
-78.7193
184.48
-46.2648
-48.5709
-28.1986
-24.5281
-31.4548
-25.8236
-32.0719
-31.7465
-33.927
-37.753
-32.9576
-34.6053
-34.9677
-32.2278
-43.8216
-37.601
-36.1611
-34.2546
-34.0449
-34.7094
-34.0616
-37.4459
-37.5462
-36.1001
-30.453
-14.0036
-31.8962
-35.8878
-41.0439
-61.8595
6.00978
-2.63182
-39.6617
-45.3773
-37.3873
-38.3042
-39.2846
-46.9464
-55.7242
-51.256
-33.7036
-37.9345
-43.9322
-37.6745
-32.9143
-34.596
-34.8852
-32.2031
-36.0601
-34.0833
-37.6595
-36.4169
-34.093
-35.9741
-34.0479
-37.2674
-30.6385
-12.6478
5.82159
-4.11806
-31.955
-35.8448
-41.0177
-61.9474
-39.6833
-45.5112
-55.7011
-51.2814
-37.2269
-38.2124
-39.1797
-46.9737
-47.2494
-48.0629
185.638
186.944
-69.7735
-72.9105
205.136
206.526
-41.8694
-33.7029
-76.1501
-52.4645
-31.7857
-32.004
-24.6582
-24.4566
-27.9149
-27.8611
-21.9434
-21.96
-35.9592
-32.8429
-31.9029
-29.2163
-50.4219
-49.5117
194.524
195.067
-32.7943
-38.6354
-34.3768
-13.683
-30.7659
-30.7638
-22.4187
-22.3922
-34.1168
-37.6887
-39.0039
-33.796
-47.2671
-47.7903
191.359
190.986
-41.7769
-33.6863
-76.4487
-52.958
-31.959
-31.7143
-24.682
-24.4787
-35.9368
-32.7877
-31.7887
-29.2713
-38.1441
-32.8694
-12.6689
-32.2631
-37.7502
-34.0694
-33.7929
-39.0091
-33.9231
-34.1813
-35.241
-36.1894
-34.13
-32.2849
-34.1397
-36.4924
-49.398
-49.3031
-36.5551
-36.6026
-34.8817
-36.4972
-37.1952
-38.5022
-37.5111
-37.3942
-36.4573
-35.2707
-38.0425
-38.7659
-77.7883
-58.4982
4.33009
4.22388
-104.964
-105.93
-62.5582
-62.5233
-41.6151
-41.6198
-33.8683
-34.1751
-35.1791
-36.2294
-32.2844
-34.012
-34.0582
-36.371
-36.412
-34.8563
-37.1613
-38.4145
-38.6567
-37.8407
-58.498
-77.4933
-70.9487
-43.0453
-41.0258
-77.455
-37.1062
-34.0807
-33.6576
-33.9674
-31.8202
-32.3936
-33.3603
-32.6629
-78.5989
-81.5369
-39.4913
-37.7504
-72.6612
-78.7719
-40.821
-43.1137
-73.906
-37.1024
-39.1004
-82.0529
-32.0662
-32.6445
-33.3824
-32.5883
-37.0476
-33.9488
-33.641
-33.9732
-95.4889
-76.7852
-81.4691
-62.8617
-95.4782
-63.0548
-82.1183
-81.2055
-47.9183
-43.912
-54.4959
-46.5537
-48.1562
-46.5179
-54.2874
-43.8562
-157.226
-37.4285
-31.9078
-76.1087
-12.9275
17.3987
-8.34323
-20.086
-11.8234
-18.4855
-8.13718
16.9292
-89.4609
-77.2798
-31.2572
-33.255
168.29
177.341
195.384
183.583
118.407
196.836
196.394
172.857
180.942
184.359
197.134
197.581
162.822
169.891
196.393
184.97
-32.0448
-33.391
-34.7205
-32.6922
-33.7749
-34.4648
-34.8017
-33.5768
-38.6533
-39.9502
-36.7983
-36.2267
-38.2205
-34.3513
-37.1815
-41.0679
-32.0301
-32.652
-34.6433
-33.3521
-38.267
-41.0013
-37.0592
-34.2802
-38.4752
-36.0674
-36.6637
-39.4184
-33.77
-33.5905
-34.7676
-34.48
-35.5779
-39.6171
-35.6832
-34.2683
-35.6263
-34.2138
-35.7074
-39.6726
-37.4209
-37.0965
-36.6573
-34.4512
-37.6035
-34.7468
-36.575
-36.8725
-68.5149
-56.0256
-89.4338
22.6202
-46.2243
-59.098
-66.4438
-48.5325
-46.2956
-48.672
-66.3845
-59.0791
-65.9885
21.621
-89.1352
-56.2086
-37.0529
-35.453
-36.3529
-36.8185
-31.1506
-31.107
-33.0522
-32.7364
-31.4311
-34.4596
-33.7549
-31.4658
-39.4208
-37.4168
-37.1899
-38.1679
-36.8748
-36.6868
-36.3617
-35.4103
-39.342
-38.2165
-37.284
-37.3284
-31.4304
-31.4291
-33.7092
-34.3792
-31.0686
-32.6798
-32.9956
-31.0401
-32.848
-38.0143
-32.3818
-32.4705
-32.7193
-32.3522
-32.3504
-38.1875
-30.0989
-27.117
-28.7408
-30.5508
-30.1604
-30.5228
-28.665
-27.0885
-47.5984
-41.7188
-38.6507
-49.0331
-29.1456
-27.9338
-33.78
-34.6456
-29.1725
-34.6096
-33.7746
-27.9462
-47.776
-48.8946
-38.648
-41.7838
-26.4993
-22.2919
-22.4608
-25.9905
-26.5062
-26.0144
-22.4877
-22.232
-26.175
-23.4288
-22.8431
-25.8923
-26.1312
-25.8753
-22.8118
-23.4067
11.3778
73.3228
-113.391
-32.6886
-29.1477
-30.6739
77.1314
176.473
-122.871
-32.0116
-28.4301
-31.0242
66.9812
11.7324
-115.408
-29.0625
-32.6074
-30.5913
57.2232
-0.249926
-127.725
-28.5369
-32.1143
-31.0887
-34.159
-32.0304
-32.3599
-34.5356
-35.1559
-33.5399
-32.3467
-37.6549
-33.1341
-35.2915
-38.342
-36.0252
-41.5491
-39.5876
-41.0504
-44.2477
-34.0722
-34.5645
-32.0498
-32.3412
-34.9583
-37.5821
-33.5606
-32.2963
-33.4675
-35.8985
-35.5078
-38.5413
-41.432
-44.2299
-39.4174
-40.8953
51.0639
97.902
-130.792
182.818
29.8939
17.364
1.36959
135.638
-41.9353
-37.4141
-38.757
-45.2022
-30.1305
-31.0487
-31.9419
-26.4941
-22.2961
-22.2344
-26.7271
-20.9841
-33.3842
-35.2591
-34.1593
-30.696
69.8546
68.4285
-89.6599
132.281
-34.1147
-31.8281
-33.9973
-29.8682
-25.2024
-25.2051
-27.1106
-24.0469
-36.2939
-38.3792
-36.6004
-38.2031
40.1277
74.898
-136.32
185.72
-41.8213
-37.4881
-38.7591
-45.3209
-30.3403
-31.4057
-31.8533
-26.5223
-33.362
-35.279
-34.1958
-30.731
-32.7192
-31.5079
-33.6703
-27.9762
-36.4444
-38.4488
-36.6794
-38.4594
-33.2511
-33.3951
-33.4417
-33.7174
-32.3429
-32.299
-33.2083
-32.3694
-39.4765
-39.5421
-41.8542
-37.2209
-34.8115
-35.7669
-34.9032
-36.287
-35.7714
-36.4299
-34.9562
-34.0901
-43.6703
-43.0621
-41.537
-48.4643
38.2404
36.8576
27.4646
45.9938
-55.764
-55.7654
-58.0515
-53.1375
-33.2296
-33.3903
-33.4258
-33.7151
-32.3107
-32.2772
-33.1279
-32.3481
-34.784
-35.5976
-34.811
-36.0968
-43.6259
-42.9398
-41.4764
-48.6013
-38.2791
-37.1163
-36.7868
-35.5166
-38.1484
-37.0012
-36.716
-35.4405
-73.9763
-66.1777
-66.2998
-59.8718
-24.5485
-18.9557
-18.7333
-12.4424
197.847
205.042
203.522
198.435
-35.2104
-35.812
-35.5633
-36.3075
-35.1484
-35.7238
-35.5077
-36.2283
-35.7175
-36.0745
-35.9037
-35.7521
-76.809
-83.7179
-72.262
-76.7386
-34.1407
-34.7946
-35.1504
-36.0751
-34.072
-34.7922
-35.1152
-36.1595
-28.9128
-29.5326
-29.6179
-30.7445
-35.2996
-36.6961
-36.6988
-38.0208
-22.4967
-21.6757
-21.8489
-22.5172
32.4968
39.986
-132.785
184.122
78.7973
70.4931
-52.6764
134.299
-54.2906
-43.6369
-43.669
-60.8621
-32.42
-31.8067
-30.2446
-27.4594
-26.7972
-24.9311
-29.8703
-25.4443
-31.2013
-32.2237
-31.6568
-31.7858
85.4271
91.4824
-135.881
159.133
172.016
104.744
-108.975
178.049
-60.7758
-41.1604
-48.0615
-54.7443
-31.8127
-31.7389
-32.5857
-26.6599
-26.0693
-25.2083
-26.9438
-24.9648
-31.6007
-34.541
-32.2343
-32.6592
73.4754
65.3103
-50.0927
131.639
27.1298
42.0435
-137.933
181.94
-54.8961
-44.0369
-43.7475
-61.6761
-26.7979
-24.9444
-29.8603
-25.451
-32.3546
-31.7697
-30.1786
-27.4738
-31.0946
-32.1429
-31.5998
-31.7779
85.7519
101.452
-136.075
190.789
62.3224
70.2277
-138.343
187.38
-52.3208
-38.2244
-45.2104
-45.3042
-26.0969
-25.2148
-26.9472
-24.9832
-31.9203
-32.1542
-32.5679
-26.6755
-31.5494
-34.4454
-32.1823
-32.6971
-43.0034
-33.3445
-31.878
-27.8423
-32.5132
-32.9575
-32.8716
-33.5669
-32.2976
-32.3454
-33.9809
-31.5726
-39.0194
-38.6547
-41.3667
-37.0268
-34.7684
-35.1166
-35.7907
-33.5783
-33.9805
-33.5942
-33.9353
-34.3827
-32.5537
-33.4945
-33.8281
-35.9799
-39.2535
-35.167
-37.0518
-37.4245
-27.9952
-28.4167
-29.2411
-20.1927
-33.9855
-32.7044
-33.2366
-33.8352
-42.8547
-44.6456
-42.6052
-52.4572
-3.44772
28.0025
9.76814
14.9676
-41.5205
-41.5672
-40.2319
-44.4716
-38.1834
-36.9838
-37.3337
-37.8732
-41.2758
-41.8947
-39.939
-44.6013
-51.9142
-55.1191
-55.2342
-52.1701
-43.4178
-33.1946
-31.7782
-27.6396
-39.0026
-38.7292
-41.4757
-37.1413
-32.4983
-32.9263
-32.8349
-33.5481
-32.2742
-32.3127
-33.8642
-31.5832
-34.7627
-35.0762
-35.7528
-33.5217
-39.153
-35.3979
-37.1465
-37.5451
-34.0354
-33.6932
-34.0094
-34.9425
-32.535
-33.5095
-33.7761
-36.5291
-28.1503
-28.472
-29.4141
-19.3916
-3.52556
25.8744
9.02304
12.5981
-34.1097
-32.7149
-33.2973
-33.8331
-42.9138
-44.6758
-42.6295
-52.6745
-41.4695
-41.6249
-40.2538
-44.6095
-51.9212
-55.1003
-55.2116
-52.1799
-38.023
-36.8274
-37.1719
-37.7498
-41.114
-41.9023
-39.8278
-44.5881
-57.798
-42.699
-47.6885
-48.3522
181.69
193.632
186.043
187.232
-60.9224
-103.395
-76.0982
-77.2986
174.894
207.305
207.212
208.091
-37.8922
-37.3256
-39.3141
-36.1093
-46.641
-66.9718
-66.1577
-58.7916
-31.4064
-32.5199
-31.8114
-31.927
-25.2457
-23.9359
-24.6415
-24.5534
-27.1387
-28.0236
-27.6885
-27.646
-21.1976
-20.8849
-21.5894
-21.557
-34.5965
-34.5895
-36.0577
-33.4991
-29.867
-29.5863
-30.1347
-29.3121
-55.0536
-38.2881
-46.9771
-46.6728
178.84
199.488
198.986
199.515
-35.2096
-36.1171
-34.4381
-36.8367
-25.2111
-20.9318
-28.5035
-18.4837
-29.3019
-32.252
-30.7678
-30.7704
-21.6478
-21.1108
-21.7758
-21.7493
-35.9245
-35.5824
-34.9212
-36.7909
-37.0856
-36.7598
-38.2013
-35.3589
-57.7614
-42.5073
-47.6396
-48.1343
189.976
195.507
192.276
191.288
-37.8479
-37.2421
-39.1383
-36.0331
-46.8525
-67.1447
-66.3395
-58.8258
-31.3495
-32.4661
-31.8721
-31.7461
-25.2683
-23.9562
-24.6595
-24.575
-34.6608
-34.6165
-36.0986
-33.461
-29.8621
-29.6279
-30.0914
-29.3655
-35.1435
-36.0567
-36.6466
-34.4444
-23.0001
-20.1149
-17.2578
-26.6919
-35.9195
-35.5321
-36.8266
-34.8884
-37.1024
-36.7665
-35.3645
-38.2131
-33.8311
-34.4071
-34.058
-34.118
-34.9501
-35.5428
-35.1845
-35.5368
-33.716
-32.7426
-33.6337
-32.8145
-34.3859
-35.562
-34.5876
-35.7398
-47.514
-52.169
-49.704
-49.6102
-39.764
-36.077
-36.7737
-36.8092
-35.2133
-35.4139
-35.1915
-35.9599
-36.9987
-37.1696
-37.3849
-37.9616
-36.9444
-36.2421
-37.3506
-37.1824
-36.047
-38.1493
-37.8577
-35.6603
-39.068
-37.6645
-37.8732
-38.6672
-57.8574
-71.8371
-70.7878
-61.2369
14.0487
0.126805
6.33163
6.2314
-65.279
-103.645
-110.494
-110.824
-62.03
-66.1943
-63.6374
-63.6238
-43.7968
-39.2225
-41.3508
-41.3462
-33.8031
-34.3649
-34.0104
-34.094
-34.9598
-35.5723
-35.1486
-35.5456
-33.6392
-32.7401
-32.7898
-33.5433
-34.3006
-35.4526
-34.4943
-35.626
-35.1261
-35.3673
-35.888
-35.1469
-37.0109
-37.1364
-37.3382
-37.8726
-38.9918
-37.5847
-38.57
-37.9492
-57.9455
-71.6846
-61.2178
-70.6317
-54.9788
-45.346
-46.4629
-42.2537
-34.4317
-36.4347
-32.6409
-34.4318
-30.9347
-31.3876
-31.751
-31.8391
-58.0709
-47.719
-47.9133
-41.8169
-55.4763
-45.3341
-46.4919
-42.3429
-57.3168
-46.9441
-47.5369
-41.2279
-31.0653
-31.4419
-31.8422
-31.8574
-34.2271
-36.273
-32.6359
-34.2869
-73.1159
-62.578
-68.6841
-71.4598
-74.2896
-63.2148
-70.7556
-72.2127
-45.3149
-46.5603
-49.8259
-48.9788
-45.2082
-46.6338
-49.4253
-48.9356
-69.8308
-59.5939
-53.3046
-43.4081
-8.69327
1.74029
-8.80582
1.07692
-7.53773
1.93952
-8.0002
1.13573
-65.0931
-51.8691
-51.2359
-40.4811
192.165
187.384
189.101
201.213
151.937
184.855
186.171
188.523
189.865
188.452
189.867
190.577
187.553
196.385
203.064
193.476
-33.1725
-32.8692
-33.7386
-33.7567
-34.2103
-34.3554
-34.2928
-34.6114
-37.5234
-38.2478
-37.0104
-37.9275
-37.3453
-39.4563
-37.3354
-38.7577
-33.1209
-32.8234
-33.6775
-33.6871
-37.2951
-39.3741
-37.2195
-38.6564
-37.3716
-38.1519
-36.9158
-37.6927
-34.2383
-34.3311
-34.3345
-34.6025
-35.2618
-36.9455
-35.2613
-36.2298
-36.9477
-35.3097
-36.3027
-35.354
-37.7343
-36.5278
-37.3833
-35.8363
-35.7589
-37.6267
-35.6803
-37.2648
-93.4132
-39.8284
-93.0539
-98.9019
-50.105
-56.6726
-57.3332
-60.444
-56.6316
-50.0556
-60.3913
-57.3202
-39.8722
-92.2226
-97.7552
-92.3121
-36.3237
-35.9728
-35.9539
-36.949
-31.3491
-31.6942
-31.7817
-32.2995
-31.5959
-32.1229
-32.0854
-32.9532
-39.4643
-38.8257
-38.4126
-38.9501
-36.2157
-35.8683
-35.9381
-36.8974
-39.4717
-38.7813
-38.5204
-38.8824
-31.5649
-32.0759
-32.0461
-32.8759
-31.2816
-31.6129
-31.7032
-32.2204
-34.2548
-38.1806
-33.671
-36.3677
-33.8626
-36.8948
-33.4909
-35.0195
-28.472
-29.836
-28.2358
-28.9937
-28.452
-29.8022
-28.1853
-28.9458
-44.6317
-46.5283
-40.1876
-42.0006
-29.506
-31.2771
-30.7922
-32.3321
-29.5005
-31.2626
-30.7908
-32.3231
-44.7599
-46.4836
-40.1841
-42.0098
-25.311
-24.7539
-24.5034
-23.3277
-24.7757
-25.3218
-23.3664
-24.5372
-24.2318
-24.9489
-23.3561
-24.2362
-24.9261
-24.2053
-24.2165
-23.3246
-113.717
149.462
-32.4191
127.73
-69.361
-85.8938
-30.3659
-28.0559
-32.5674
-27.0026
-31.2193
-31.0991
-123.804
132.145
-108.804
143.516
-81.9731
-126.061
-32.1476
-27.3475
-28.081
-26.4784
-31.4091
-30.0978
-33.9757
122.087
-117.796
143.846
-71.1034
-87.2555
-32.516
-27.037
-30.2944
-28.0701
-31.1314
-30.8961
-122.734
184.23
-132.204
184.701
-71.8473
-82.6313
-28.1317
-26.5336
-32.1814
-27.4692
-31.4225
-30.1632
-37.6952
-42.167
-32.0996
-33.8569
-34.0508
-31.5334
-43.7386
-35.4458
-36.4917
-35.3235
-33.757
-35.998
-33.5178
-35.3078
-43.1781
-36.0997
-31.1962
-22.0354
-34.0956
-36.0216
-39.4572
-53.2954
-13.7617
-39.904
-40.0788
-44.8545
-38.7648
-39.2212
-39.4977
-43.8724
-45.6877
-48.1183
-37.7155
-41.9095
-43.7147
-35.5095
-32.0902
-33.8511
-33.9457
-31.5548
-36.3023
-35.1486
-43.0564
-35.9616
-33.7699
-36.0004
-33.4991
-35.059
-31.4779
-21.4594
-12.8202
-39.2546
-34.393
-36.138
-39.5438
-53.4674
-39.9952
-44.908
-45.8503
-48.1044
-38.5885
-39.0945
-39.3151
-43.8867
-129.873
181.344
-141.74
175.343
-79.7376
-82.3166
178.691
178.005
-41.0285
140.308
-23.4657
129.625
-77.3077
-78.9954
155.537
153.944
-44.1586
-54.5954
-34.2901
-40.3988
-40.1972
-36.4922
-53.5978
-46.4053
-30.7376
-26.8641
-32.6824
-26.4353
-31.1701
-31.3828
-25.9591
-25.8747
-27.2007
-22.6864
-27.2927
-22.6733
-26.7308
-26.7267
-21.1331
-21.2508
-32.7
-31.4799
-35.31
-33.852
-35.8011
-33.4928
-30.5508
-30.4174
-100.787
130.619
-103.932
130.127
-70.5943
-71.2109
200.64
201.009
-37.199
-37.5984
-31.899
-24.1927
-34.1066
-35.6923
-32.3937
-23.62
-26.9165
-24.1755
-26.9199
-24.1908
-27.9261
-27.9243
-22.5858
-22.5579
-35.1414
-35.6938
-38.7747
-41.6276
-35.245
-37.0954
-39.7976
-36.5294
-133.983
185.375
-143.491
185.787
-80.7293
-82.7072
185.16
185.758
-44.2717
-54.6762
-34.2603
-40.4195
-40.0425
-36.4906
-53.7987
-46.5003
-30.6514
-26.9265
-32.6132
-26.458
-31.3371
-31.1062
-25.9839
-25.8939
-32.6483
-31.5688
-35.2665
-33.7978
-35.8251
-33.4621
-30.4932
-30.4626
-36.0423
-33.5312
-32.1182
-23.2134
-35.3531
-34.2114
-21.798
-29.2312
-35.0928
-35.3544
-38.8272
-41.7584
-37.1386
-35.2624
-36.5351
-39.8674
-33.2628
-33.5796
-33.3785
-33.9897
-33.5474
-33.6867
-34.495
-34.757
-33.482
-31.9126
-32.9864
-32.8335
-33.7392
-33.0036
-33.0208
-33.8059
-41.2521
-37.3569
-41.3366
-37.4234
-44.2051
-44.21
-39.9069
-39.9373
-34.3741
-36.3318
-36.2195
-36.8069
-34.7668
-35.5833
-36.8409
-37.0927
-35.6305
-37.5531
-35.8642
-37.8626
-36.9049
-36.546
-37.4833
-37.736
-43.0135
-50.6543
-41.4488
-46.1824
-39.8438
-40.5782
-53.6873
-49.9914
24.404
42.2965
22.9026
40.7892
20.0804
19.6942
25.1206
24.9395
-57.5294
-53.7578
-57.5115
-53.7369
-59.7522
-59.7434
-48.5593
-48.457
-33.229
-33.5369
-33.3959
-33.8515
-33.5152
-33.6742
-34.3492
-34.7379
-33.3765
-31.9104
-32.955
-32.8036
-32.952
-33.6363
-32.9723
-33.7372
-34.2887
-36.1381
-36.0764
-36.6434
-35.4149
-34.6958
-36.7292
-37.0063
-42.9771
-50.8364
-41.0778
-46.2536
-40.4969
-39.9131
-50.1356
-53.8751
-40.5947
-39.8556
-38.8079
-35.8447
-35.1502
-37.5072
-33.6624
-33.535
-40.3439
-39.5203
-38.6305
-35.7233
-37.3598
-35.1062
-33.5332
-33.6374
-87.3285
-87.7269
-74.6087
-58.3279
-74.9155
-58.5122
-55.5354
-55.4288
-30.9392
-30.6166
-24.732
-14.5207
-14.1038
-24.1941
-6.83407
-6.76154
196.664
198.352
198.118
197.86
197.683
198.208
199.181
197.599
-34.8148
-34.7233
-35.1928
-36.4246
-35.1972
-36.1998