# vtk DataFile Version 2.0
tri_press
ASCII
DATASET UNSTRUCTURED_GRID
POINTS 3682 float
-0.725 0.195 -2.23204
-0.755 0.255 2.23216
-0.715 0.675 -2.15462
-0.655 0.935 2.25301
0.725 0.195 -2.2317
0.755 0.255 2.23216
0.715 0.674749 -2.155
0.655 0.935 2.25314
-0.787241 0.162759 -0.743973
-0.816575 0.163425 0.744094
-0.804802 0.871469 -0.68541
-0.759431 0.932764 0.7838
0.787203 0.162797 -0.743747
0.81657 0.16343 0.744207
0.804785 0.871284 -0.68562
0.75939 0.93264 0.78376
-1.50274 -0.195462 -3.44289
-1.50643 -0.143279 -2.25995
-1.54981 -0.165401 -0.771424
-1.56508 -0.180653 0.720873
-1.52719 -0.122978 2.20972
-1.51696 -0.075594 3.3942
-1.52373 -0.0356798 4.5758
-1.49993 0.107122 -3.41106
-1.50356 0.184197 -2.23016
-1.55968 0.18515 -0.745277
-1.56214 0.176976 0.741284
-1.49686 0.23311 2.22652
-1.49858 0.279244 3.41074
-1.5157 0.318525 4.59295
-1.49683 0.669759 -3.34204
-1.50033 0.744679 -2.16027
-1.5648 0.878361 -0.688221
-1.52194 0.922992 0.782463
-1.43041 0.939159 2.25485
-1.4639 0.982279 3.43986
-1.50329 1.0253 4.6251
-1.50647 1.64572 -3.25274
-1.51307 1.73713 -2.07384
-1.53638 1.88256 -0.607823
-1.53589 1.98506 0.854115
-1.51524 2.0326 2.3203
-1.51321 2.06262 3.49954
-1.5252 2.09689 4.68272
-0.745019 -0.190403 -3.44407
-0.733412 -0.134672 -2.26168
-0.770429 -0.175924 -0.771148
-0.798115 -0.191045 0.723278
-0.776055 -0.113686 2.21389
-0.771777 -0.0691823 3.39705
-0.778375 -0.0330893 4.57746
-0.745963 0.104235 -3.41144
-0.765132 0.286631 3.4131
-0.776517 0.321208 4.59421
-0.742692 0.64038 -3.33977
-0.73792 0.982685 3.43953
-0.770798 1.02588 4.62506
-0.742838 1.62611 -3.25048
-0.743437 1.7189 -2.07134
-0.76765 1.87846 -0.606317
-0.781072 1.98912 0.853938
-0.774609 2.03477 2.31901
-0.775481 2.06311 3.49826
-0.785409 2.09702 4.6818
0.747157 -0.190452 -3.44392
0.759874 -0.134682 -2.26142
0.794948 -0.175909 -0.770953
0.800807 -0.191045 0.723389
0.75688 -0.113689 2.21394
0.729555 -0.069192 3.3971
0.716801 -0.0331064 4.57753
0.73092 0.104165 -3.41133
0.710745 0.286623 3.41315
0.704512 0.321191 4.59428
0.729023 0.640229 -3.33989
0.676054 0.982672 3.43961
0.687732 1.02585 4.62513
0.772302 1.62598 -3.25056
0.781781 1.71877 -2.07145
0.772186 1.87834 -0.60639
0.73498 1.98903 0.853927
0.701731 2.03471 2.31905
0.692665 2.06306 3.49831
0.690527 2.09698 4.68186
1.50414 -0.195577 -3.44265
1.51955 -0.143348 -2.25962
1.56627 -0.165431 -0.771136
1.57658 -0.180679 0.721071
1.52605 -0.122997 2.20985
1.48976 -0.0756211 3.39433
1.47266 -0.0357192 4.57593
1.48752 0.106971 -3.41089
1.49872 0.18409 -2.22988
1.56104 0.185094 -0.745034
1.57291 0.176936 0.741466
1.50657 0.233096 2.22665
1.46764 0.279219 3.41087
1.45697 0.318486 4.59308
1.48525 0.669501 -3.34216
1.49578 0.744381 -2.16049
1.56336 0.87813 -0.688331
1.52749 0.922846 0.782509
1.43475 0.939116 2.25502
1.42398 0.982241 3.44001
1.43311 1.02525 4.62524
1.52998 1.64547 -3.25288
1.54097 1.73687 -2.074
1.53838 1.88233 -0.607931
1.49959 1.98489 0.85411
1.45508 2.03248 2.32037
1.43949 2.06253 3.49964
1.43673 2.09681 4.68283
-0.755186 0.435 -2.22852
0 0.191231 -2.23564
-0.762848 0.172152 -1.48801
-0.708931 0.595 2.24652
0 0.250385 2.23677
-0.785903 0.209097 1.48813
0 0.731095 -2.21103
-0.806899 0.820233 -1.42002
0 0.964686 2.28276
-0.737242 0.963909 1.51841
0.754981 0.434875 -2.22833
0.762628 0.172372 -1.48772
0.709122 0.595 2.24677
0.785885 0.209115 1.48818
0.806685 0.819809 -1.42031
0.737399 0.964024 1.51845
-0.804558 0.160442 6.00815e-05
-0.885623 0.517114 -0.714692
-1.89134e-05 0.144329 -0.74386
-0.885721 0.548094 0.763947
-2.82911e-06 0.14441 0.74415
-0.778679 0.898679 0.0491951
-8.8403e-06 1.13453 -0.685515
-2.01515e-05 1.38102 0.78378
0.804589 0.160411 0.000230074
0.885369 0.517041 -0.714683
0.885474 0.548035 0.763984
0.778575 0.898449 0.04907
-0.888295 0.476057 -1.45401
0.888304 0.475958 -1.45402
-9.4567e-06 0.150608 -1.48787
-4.42015e-06 0.897056 -1.42016
0 0.434937 -2.40588
-0.883104 0.532604 0.0246276
0.882846 0.532538 0.02465
-1.08713e-05 0.141184 0.000145078
-1.44959e-05 1.38062 0.0491325
-0.885959 0.571547 1.50327
0.885959 0.571518 1.50332
-1.41455e-06 0.203958 1.48816
-1.00757e-05 1.18145 1.51843
0 0.595 2.34673
-0.744555 0.315 -2.23474
-0.3625 0.19133 -2.23563
-0.743185 0.184315 -1.86002
-0.756493 0.425 2.26387
-0.3775 0.246706 2.24045
-0.767704 0.234796 1.86014
-0.725375 0.555 -2.18185
-0.3575 0.725156 -2.20493
-0.781605 0.768272 -1.78732
-0.679382 0.765 2.24718
-0.3275 0.962037 2.28008
-0.702622 0.955955 1.88571
0.3625 0.191319 -2.23547
0.744409 0.314937 -2.23443
0.744475 0.183025 -1.85971
0.3775 0.250912 2.23625
0.756439 0.425 2.26384
0.767647 0.234853 1.86017
0.3575 0.725077 -2.20517
0.725186 0.554812 -2.18186
0.781806 0.768243 -1.78766
0.3275 0.962003 2.28011
0.679592 0.765 2.24749
0.702725 0.956038 1.8858
-0.780202 0.162298 -1.11599
-0.79751 0.15999 -0.371957
-0.876109 0.320098 -0.729333
-0.39566 0.149484 -0.743917
-0.787975 0.199525 1.11611
-0.811684 0.160816 0.372077
-0.878954 0.341857 0.75402
-0.406821 0.156854 0.744122
-0.812243 0.852243 -1.05271
-0.871996 0.707683 -0.700051
-0.788774 0.882107 -0.318108
-0.455323 1.10884 -0.685463
-0.749042 0.949042 1.1511
-0.853296 0.755789 0.773874
-0.769353 0.916019 0.416498
-0.481583 1.3606 0.78379
0.780189 0.162311 -1.11574
0.3956 0.149548 -0.743803
0.797493 0.160007 -0.371758
0.87584 0.320142 -0.729215
0.78797 0.19953 1.1162
0.406805 0.156878 0.744179
0.811718 0.160782 0.372218
0.878689 0.341899 0.754095
0.812357 0.852169 -1.05297
0.455312 1.10875 -0.685568
0.871766 0.707507 -0.700152
0.788694 0.881881 -0.318275
0.748904 0.948841 1.15111
0.481576 1.36061 0.78377
0.853096 0.75567 0.773872
0.769302 0.915864 0.416415
-0.877148 0.455529 -1.84126
-0.377593 0.434969 -2.38524
-4.72835e-06 0.178785 -1.86175
0 0.313084 -2.24853
-0.88077 0.324104 -1.47101
-0.381429 0.150311 -1.48794
-0.837772 0.583274 1.87489
-0.354466 0.595 2.33157
-7.07277e-07 0.22958 1.86247
0 0.422693 2.39643
-0.876755 0.390322 1.4957
-0.392952 0.199531 1.48814
-2.21008e-06 0.833533 -1.8156
0 0.583016 -2.33558
-0.885456 0.648145 -1.43701
-0.403452 0.884429 -1.42009
-5.03787e-06 1.00879 1.90059
0 0.779843 2.30011
-0.83038 0.767728 1.51084
-0.368626 1.15357 1.51842
0.877135 0.455416 -1.84117
0.37749 0.434906 -2.38516
0.880803 0.324165 -1.47087
0.381309 0.15031 -1.48779
0.837785 0.583259 1.87504
0.354561 0.595 2.33155
0.876758 0.390316 1.49575
0.392942 0.199532 1.48817
0.885453 0.647883 -1.43716
0.40334 0.884436 -1.42024
0.830822 0.767771 1.51088
0.368694 1.1536 1.51844
-0.876052 0.330413 0.0123438
-0.405993 0.143395 0.00010258
-0.895645 0.496586 -1.08435
-0.884092 0.524859 -0.345032
-1.4185e-05 0.143279 -1.11586
-1.48923e-05 0.141176 -0.371857
-0.884029 0.540349 0.394287
-0.894771 0.559821 1.13361
-6.85018e-06 0.141191 0.372148
-2.12183e-06 0.141238 1.11615
-0.862275 0.731333 0.0369113
-0.501581 1.36412 0.0491638
-6.63023e-06 0.907862 -1.05284
-1.16681e-05 1.32162 -0.318191
-1.73237e-05 1.39154 0.416456
-1.51136e-05 1.33205 1.1511
0.875807 0.33043 0.0124401
0.405991 0.143394 0.000187576
0.895836 0.496499 -1.08435
0.88385 0.524789 -0.345017
0.883783 0.540286 0.394317
0.89477 0.559776 1.13365
0.86199 0.731133 0.03686
0.501571 1.36412 0.0491013
-0.868431 0.319552 -1.85064
-0.885502 0.332021 -1.10017
-0.886381 0.671218 -1.06853
-0.87436 0.601572 -1.81429
0.86832 0.319551 -1.85044
0.874364 0.601348 -1.81441
0.886586 0.671023 -1.06866
0.88569 0.332042 -1.10004
-0.371964 0.177734 -1.86089
0.371905 0.177726 -1.86073
0.387451 0.148548 -1.1158
-0.387529 0.1485 -1.11593
-0.380476 0.82786 -1.80146
-0.402929 0.887685 -1.05278
0.402864 0.887586 -1.0529
0.38042 0.827868 -1.80163
-0.370047 0.314042 -2.16875
-0.367547 0.569008 -2.30929
0.367495 0.568914 -2.30924
0.369995 0.314011 -2.16951
-0.875344 0.325624 -0.358494
-0.878654 0.335559 0.383182
-0.858392 0.743864 0.405392
-0.866459 0.71917 -0.33157
0.87508 0.325657 -0.358388
0.866225 0.718994 -0.331646
0.858183 0.743721 0.405366
0.87839 0.335593 0.383268
-0.402392 0.143309 -0.371907
0.402375 0.143312 -0.371808
0.409728 0.143476 0.372183
-0.409729 0.14348 0.372112
-0.505599 1.29077 -0.318149
-0.496095 1.37139 0.416477
0.496086 1.37139 0.416436
0.505606 1.29077 -0.318233
-0.887016 0.373041 1.12486
-0.854115 0.407661 1.86752
-0.797772 0.766364 1.8803
-0.848189 0.754079 1.14235
0.887017 0.373024 1.12492
0.847734 0.754054 1.14238
0.797947 0.766385 1.88042
0.854128 0.407658 1.86761
-0.400621 0.166589 1.11613
0.400613 0.16659 1.11617
0.385221 0.228796 1.86132
-0.385226 0.217491 1.8613
-0.374176 1.31057 1.1511
-0.348063 1.00448 1.89315
0.348097 1.00441 1.89319
0.37419 1.31183 1.1511
-0.365983 0.423846 2.37798
0.36603 0.423846 2.37797
0.34103 0.772422 2.31134
-0.340983 0.772422 2.31149
-0.73304 0.255 -2.23165
-0.54375 0.192066 -2.23493
-0.735399 0.188351 -2.04603
-0.75537 0.34 2.24764
-0.56625 0.245776 2.24138
-0.763454 0.242796 2.04615
-0.723749 0.615 -2.1718
-0.53625 0.698716 -2.17842
-0.758074 0.731408 -1.97097
-0.664005 0.85 2.24691
-0.49125 0.956903 2.27493
-0.680946 0.947613 2.06936
0.54375 0.192059 -2.23468
0.732843 0.254969 -2.23121
0.735412 0.188338 -2.04571
0.56625 0.249406 2.23775
0.755359 0.34 2.24764
0.763299 0.242951 2.04617
0.53625 0.698703 -2.17888
0.723533 0.61478 -2.17187
0.757932 0.731025 -1.97133
0.49125 0.956861 2.27498
0.663899 0.85 2.24692
0.680999 0.947655 2.06947
-0.783841 0.162409 -0.929982
-0.790923 0.162827 -0.557965
-0.870104 0.222214 -0.736653
-0.591526 0.155971 -0.743945
-0.786496 0.197254 0.930102
-0.813038 0.163212 0.558085
-0.877967 0.237539 0.749057
-0.612492 0.158552 0.744108
-0.807819 0.861152 -0.869061
-0.848255 0.794504 -0.692731
-0.794082 0.874082 -0.501759
-0.669144 1.06831 -0.685436
-0.753417 0.940084 0.967451
-0.818289 0.85024 0.778837
-0.764295 0.924295 0.600149
-0.643218 1.19211 0.783795
0.783807 0.162443 -0.929741
0.591482 0.156012 -0.743775
0.790915 0.162835 -0.557753
0.87027 0.222095 -0.736481
0.786453 0.197297 0.930201
0.612317 0.158894 0.744193
0.813034 0.163216 0.558213
0.878206 0.237376 0.749151
0.808573 0.861729 -0.869293
0.669188 1.0683 -0.685594
0.848075 0.794295 -0.692886
[...]
POINT_DATA 3682
SCALARS point_scalars float 1
LOOKUP_TABLE default
-102.411
-42.6096
-39.9078
-37.5312
-102.307
-42.791
-39.2589
-37.6606
-38.2487
-39.3603
-59.7554
-49.2675
-38.2283
-39.5848
-59.5556
-49.2089
-96.9711
-86.3515
-38.7533
-38.4525
-41.6328
-42.6886
-33.9804
-0.00810304
-85.3567
-39.7744
-39.1526
-43.5771
-37.4606
-33.3831
64.8556
-75.5737
-47.9336
-44.1451
-40.4468
-36.4169
-33.6431
-39.237
-45.1861
-94.5852
-59.8821
-38.748
-37.519
-35.6631
36.6829
-96.9711
-38.4898
-40.145
-39.5582
-35.1632
-32.4501
169.499
-32.9887
-32.169
176.095
-33.6804
-32.7577
15.966
-39.5739
-73.0347
-62.1554
-36.3093
-34.5326
-34.5326
36.1074
-96.8882
-38.6908
-40.1571
-38.9727
-35.7343
-32.0735
169.781
-33.1913
-32.3736
177.878
-33.7644
-32.0325
22.9922
-40.5718
-72.7114
-63.6353
-36.3667
-34.6138
-33.7856
-96.8882
-85.1852
-38.7776
-39.066
-41.679
-42.8777
-34.1798
1.94155
-85.064
-39.8459
-39.4633
-43.6737
-37.6602
-33.5245
64.9727
-75.9099
-47.8865
-44.115
-40.5681
-36.5824
-33.5404
-52.0601
-44.3013
-94.3391
-59.8659
-38.4863
-37.6594
-35.7718
-6.54631
-141.682
-47.2873
-35.8777
-30.6675
-37.4584
-57.16
-40.1747
-36.0752
-48.1368
-0.859182
-47.0505
-36.0332
-37.6749
-39.8245
-48.202
-37.0228
-41.3327
-39.5826
-40.5006
-39.6872
-54.926
16.7973
-66.8655
-37.0329
-41.3118
-40.5178
-54.9601
-49.8431
-49.8878
-55.2417
-8.98944
207.251
-41.441
-41.4146
-38.3242
-94.0816
-44.8453
-44.938
-40.3276
-43.3033
-27.3949
-5.75457
-156.502
-66.2427
-38.4859
-34.6372
-37.139
1.49284
-50.2226
-46.455
-36.046
-34.737
-41.2106
-155.955
-5.97033
-66.5721
-34.614
-38.679
-37.1679
-50.0616
-0.395822
-46.4588
-34.7782
-36.1886
-41.2426
-39.8934
-36.3748
-39.3381
-38.6699
-39.7044
-38.6067
-39.2509
-39.4137
-41.9702
-46.7971
-58.0189
4.3008
-47.87
-44.532
-51.8274
-64.3172
-39.9045
-38.6405
-36.385
-39.2425
-39.9086
-39.4314
-38.743
-39.2867
-42.3002
4.25746
-46.7412
-58.0577
-47.8439
-64.3246
-44.5197
-51.8022
-78.8935
196.048
-73.478
134.04
-49.2589
-53.7788
-43.4326
-31.9421
-33.9619
-22.0822
-42.0996
-38.9856
-30.9769
175.102
-50.8298
-14.3365
-38.4779
-28.5848
-46.2235
-44.0766
-79.4272
196.121
-49.1908
-53.6774
-43.5354
-32.1482
-42.1597
-39.4008
-50.8664
-14.3287
-46.3012
-44.0693
-38.3743
-38.1493
-44.3537
-41.7425
-45.4707
-37.7054
-41.2674
-42.266
-39.3773
-41.9724
-46.266
-84.2308
13.9175
-79.3775
-77.0321
-55.1683
-38.3788
-38.1625
-44.476
-41.6719
-41.3054
-42.3373
-46.2271
-84.2048
-76.0134
-43.6895
-45.6465
-68.8835
-77.0009
-69.1647
-45.8022
-43.7468
-71.3655
-71.0167
-44.113
-44.0791
-33.5423
6.01633
5.99996
-33.5113
142.298
156.481
156.416
143.556
-38.4819
-38.9915
-45.5281
-47.4993
-38.4521
-47.4342
-45.4935
-38.9831
-37.3603
-37.3713
-39.7951
-39.7717
-79.0582
-68.2522
-68.2213
-78.9661
-41.1214
-42.6559
-42.4341
-44.6089
-41.1943
-44.5517
-42.5335
-42.7482
-41.1537
-41.3695
-34.9317
-35.0057
-55.7034
-38.9261
-38.9376
-55.7346
-30.9522
-31.1951
-32.484
-32.3028
-29.1205
-189.465
-93.8078
-41.0921
-38.7014
-38.275
-9.59195
-45.3516
-54.5739
-36.3135
-34.7279
-38.6458
-189.845
-29.8797
-93.6664
-38.4046
-41.3145
-38.2229
-44.9595
-9.846
-54.8229
-34.801
-36.4065
-38.6957
-38.5369
-36.1231
-38.449
-38.1049
-42.1642
-39.2007
-39.5474
-39.8578
-53.4027
-51.8939
-59.0214
-61.0351
-48.445
-47.3007
-50.4563
-55.0969
-38.5321
-38.0813
-36.124
-38.4774
-42.2217
-39.8276
-39.0668
-40.008
-53.4244
-61.1372
-51.7733
-58.9183
-48.446
-55.0438
-47.2841
-50.4237
-5.24415
-1.7268
-87.1293
158.77
-152.466
-142.154
-96.3588
110.153
-53.5601
-42.8101
-48.5101
-51.99
-37.1982
-36.0682
-42.2235
-33.1764
-31.6647
-31.6868
-32.4278
-25.2909
-41.3018
-38.7578
-40.7808
-38.6261
-62.5725
-61.624
-43.0008
101.442
-43.282
-38.8826
-49.3137
-24.0223
-35.5524
-35.5603
-36.7616
-31.1657
-44.6666
-48.7385
-46.5396
-45.9457
-0.145986
-2.29544
-86.599
158.492
-53.6891
-42.8067
-48.4396
-51.3009
-37.3711
-36.2215
-42.3587
-33.3515
-41.4806
-38.987
-40.8858
-39.0306
-43.4196
-38.9474
-49.2514
-23.9419
-44.6911
-48.7285
-46.6163
-45.9721
-37.3073
-37.5689
-37.38
-37.8279
-40.0467
-43.5121
-42.5798
-41.5363
-39.2744
-39.2826
-41.8555
-38.0432
-39.5391
-42.0629
-40.865
-40.6299
-39.7611
-39.7858
-39.658
-40.5707
-56.5146
-53.3465
-50.532
-65.6835
14.5223
14.5343
26.8191
-19.8784
-66.4079
-66.3944
-71.3641
-61.7478
-37.3021
-37.6001
-37.3838
-37.8407
-40.0222
-43.4814
-42.6626
-41.5204
-39.5626
-42.0601
-40.8657
-40.4813
-56.5599
-53.2985
-50.5112
-65.671
-59.1035
-49.5517
-50.1163
-45.4813
-58.8558
-49.5604
-50.1338
-45.5089
-59.2632
-55.0674
-55.1009
-49.0849
-20.1083
-10.1851
-10.1888
1.98578
204.67
176.872
175.06
204.546
-39.5933
-41.6668
-41.276
-43.6446
-39.567
-41.6269
-41.239
-43.6103
-38.2895
-38.112
-38.7693
-38.303
-92.5554
-104.81
-83.9428
-92.567
-44.4165
-43.2217
-46.9482
-44.3112
-44.4777
-43.3448
-47.0213
-44.3836
-36.1556
-39.5766
-39.7554
-41.6891
-40.4584
-43.419
-43.4185
-48.205
-28.904
-21.2621
-27.8678
-29.0857
-84.5158
130.305
-96.1885
82.8827
-74.6024
-68.978
-42.7929
-33.0384
-34.3703
-31.6433
-41.9156
-35.9082
-79.067
123.099
-42.4501
70.9761
-56.3364
-36.6604
-41.0333
-33.2888
-36.7624
-32.7603
-41.9003
-39.6183
-95.7351
79.3084
-82.8085
128.925
-75.3096
-68.8839
-34.31
-31.9654
-42.9256
-33.2187
-41.9893
-35.7722
-42.6792
71.5996
-79.2788
124.264
-56.6766
-36.6718
-36.786
-32.8826
-41.1722
-33.4219
-41.9759
-39.6395
-42.9669
-42.6671
-37.6395
-36.7495
-41.2356
-38.6011
-40.8738
-36.9098
-39.9645
-41.5859
-38.2988
-39.7699
-39.0269
-39.8804
-40.1705
-41.6625
-46.313
-7.48103
-45.9696
-47.6401
-52.3407
-79.9698
16.8164
-33.5273
-46.1601
-57.0679
-44.7489
-44.2319
-48.7426
-58.7802
-65.3281
-61.1558
-42.9805
-42.6699
-40.8806
-36.881
-37.6171
-36.7609
-41.2839
-38.6295
-40.0599
-42.2218
-40.1859
-41.7358
-38.2932
-39.8728
-39.0304
-39.8926
-46.4846
-7.38322
16.7522
-33.546
-46.0585
-47.6151
-52.3949
-79.9488
-46.1044
-57.069
-65.2757
-61.1394
-44.7233
-44.2097
-48.7089
-58.7459
-76.8388
-77.2822
164.381
158.667
-73.1574
-72.7966
132.679
132.37
-56.8779
-43.8888
-58.8504
-47.3629
-43.0561
-42.968
-30.8455
-31.636
-34.2647
-34.232
-25.5169
-25.7956
-41.9323
-42.9142
-40.8972
-36.221
-31.3123
-31.2852
171.191
171.196
-45.537
-62.3075
-23.5771
-5.08838
-38.6277
-38.6294
-29.7269
-29.6078
-43.9777
-47.5908
-48.9653
-41.0132
-77.5215
-77.6406
158.938
164.886
-56.8421
-43.8765
-58.6593
-47.3487
-43.0727
-43.1531
-31.1218
-31.83
-42.024
-43.0015
-41.1586
-36.9446
-61.7749
-45.6122
-5.1016
-23.571
-47.6202
-44.064
-41.0184
-48.957
-38.5655
-38.6958
-37.9611
-38.709
-44.1017
-45.1194
-39.7818
-44.2462
-45.0643
-45.027
-37.6705
-37.6869
-39.829
-43.1191
-41.8683
-42.6973
-39.5199
-39.4995
-41.4899
-41.6049
-45.9632
-46.9989
-95.8872
-74.1196
11.9791
12.1104
-78.2314
-78.2442
-75.0002
-74.9862
-55.3139
-55.3155
-38.5395
-38.6933
-37.9691
-38.7294
-45.2673
-44.1837
-39.7433
-44.1793
-43.0876
-39.8219
-41.9554
-42.6809
-46.9231
-45.9933
-74.0934
-95.938
-85.6798
-55.7355
-58.0403
-87.2743
-41.1822
-41.8668
-44.5881
-42.4532
-49.9975
-45.4736
-45.7472
-44.0466
-68.8972
-83.3559
-60.2495
-54.8834
-85.4447
-85.9005
-57.8514
-55.7286
-69.2233
-54.9068
-59.8776
-83.3082
-50.153
-44.1313
-45.7813
-45.5797
-41.1708
-42.4651
-44.6022
-41.9587
-94.9446
-96.9323
-59.2788
-55.3916
-94.7697
-55.7768
-58.9241
-96.3124
-40.077
-41.5824
-48.5784
-45.3322
-40.0992
-45.1165
-48.5794
-41.5987
-46.3784
-30.2099
-20.7459
-42.74
-18.1128
24.9853
0.258474
-15.1391
-18.3724
-15.1605
0.235785
24.961
-46.4863
-42.6935
-20.7426
-30.2864
116.958
143.834
175.057
47.0057
71.3544
137.925
165.236
117.158
72.3578
118.5
165.621
138.612
117.903
112.815
175.507
144.347
-37.7336
-37.7628
-39.7451
-39.7372
-38.3207
-39.6727
-39.6932
-37.8412
-47.9557
-49.7613
-43.3013
-42.3897
-52.4774
-44.0392
-44.0669
-51.5144
-37.7214
-39.7165
-39.7103
-37.7461
-52.658
-51.5394
-43.9991
-44.0376
-47.9438
-42.3564
-43.2171
-49.7244
-38.3034
-37.8616
-39.6757
-39.6762
-35.712
-37.8148
-38.0685
-37.8226
-35.692
-37.8246
-38.0815
-37.7974
-40.1504
-39.8839
-38.7914
-38.4378
-40.1903
-38.4105
-38.7755
-39.8639
-89.2233
-71.9774
-101.999
-19.1384
-55.887
-70.1072
-81.6544
-61.8314
-55.8379
-61.736
-81.6457
-70.0928
-89.1173
-19.066
-101.919
-72.0124
-40.5971
-40.4969
-43.0558
-40.4759
-42.8988
-42.346
-43.5493
-42.5735
-40.2747
-44.0507
-44.1714
-41.6937
-46.6593
-42.1866
-46.1775
-47.7621
-40.638
-40.4408
-43.1423
-40.6127
-46.6395
-47.7657
-46.2436
-42.1217
-40.3882
-41.8311
-44.2595
-44.1167
-42.9826
-42.6567
-43.639
-42.4841
-40.6918
-41.6953
-41.1561
-39.9371
-40.6683
-40.143
-41.3274
-41.7612
-35.8929
-32.9636
-36.4942
-37.9826
-36.0773
-37.3352
-36.3278
-33.0106
-54.0277
-51.4615
-48.1928
-61.2974
-37.1988
-36.7517
-40.6184
-42.1833
-37.2371
-42.1926
-40.6095
-36.7602
-53.9973
-61.2784
-48.1925
-51.4656
-34.4649
-27.6115
-25.4263
-32.8364
-34.8599
-32.9908
-25.7265
-27.8684
-33.5574
-31.8141
-28.8965
-33.2295
-33.4284
-33.0857
-28.7475
-31.7117
-67.6768
-148.794
-120.64
-42.6215
-40.597
-39.6152
-18.3846
-46.693
-56.9505
-37.164
-35.3418
-37.7653
-149.597
-68.3856
-120.477
-40.7799
-42.8521
-39.4835
-46.0665
-18.2233
-57.5018
-35.4381
-37.3037
-37.845
-39.4057
-36.9281
-38.5327
-37.9047
-47.4382
-38.669
-38.1253
-40.6707
-59.0843
-55.932
-60.0043
-78.9761
-48.8703
-48.6159
-49.6551
-51.302
-39.3898
-37.8808
-36.8467
-38.5518
-47.4863
-40.6073
-38.6762
-39.4727
-59.0602
-78.9701
-55.8032
-59.8236
-48.858
-51.2783
-48.6025
-49.7148
-1.17573
1.10104
-62.3246
92.9518
-141.686
-140.403
-117.49
18.66
-49.4947
-45.4448
-47.9023
-49.4998
-36.4614
-36.0878
-41.6327
-33.7243
-30.9942
-30.828
-31.7842
-27.063
-37.9323
-38.1267
-39.9071
-37.9618
-62.0164
-61.6668
-46.9564
-38.8915
-42.0902
-37.3822
-46.3627
-29.8203
-35.8671
-35.8763
-35.9319
-33.9604
-45.8875
-49.2051
-47.0853
-48.4524
-5.88137
2.28557
-62.3781
95.4211
-49.4593
-45.3239
-47.8058
-48.9584
-36.6257
-36.2441
-41.7826
-33.8618
-38.1352
-38.3564
-40.0438
-38.2707
-42.1952
-37.1787
-46.2013
-29.7538
-45.9227
-49.2519
-47.2191
-48.4475
-37.1141
-37.3582
-37.0634
-37.4955
-40.5922
-42.2985
-41.1918
-41.4731
-39.5557
-39.5698
-40.7057
-38.643
-39.9896
-41.1125
-40.6876
-40.6173
-39.7118
-39.7283
-39.4429
-39.7728
-55.5052
-53.5607
-53.1642
-59.1866
16.3317
16.3189
25.3964
0.222676
-66.7517
-66.7446
-69.0932
-64.4428
-37.1174
-37.3816
-37.0746
-37.5077
-40.5702
-42.2748
-41.1841
-41.4515
-40.014
-41.1204
-40.6918
-40.723
-55.303
-53.6535
-53.2606
-59.1899
-54.2899
-49.811
-49.9461
-46.6675
-53.934
-49.8669
-49.9692
-46.6878
-57.5656
-55.1838
-55.2034
-52.1011
-14.7265
-9.28213
-9.28508
-3.94991
200.719
199.661
193.617
201.134
-40.3799
-41.6193
-41.1658
-42.4497
-40.3549
-41.5974
-41.1409
-42.4212
-38.3083
-38.1918
-38.52
-38.3164
-93.7541
-99.219
-88.6295
-93.7748
-45.2069
-44.0002
-46.0594
-44.2804
-45.2843
-44.0944
-46.164
-44.3575
-37.1615
-40.0561
-40.1333
-43.9504
-41.7183
-43.3292
-43.3437
-45.4123
-27.8018
-24.585
-27.0098
-27.902
-7.72627
-3.16182
-77.116
107.821
-170.614
-156.698
-118.783
37.1225
-75.913
-59.3849
-71.7152
-67.0786
-39.5029
-37.8699
-42.6418
-33.7948
-36.7516
-33.0901
-34.9844
-32.7211
-37.1023
-38.8077
-40.7455
-36.3173
-1.92624
3.03736
-69.7422
84.1617
-39.0186
-55.6081
-45.6043
1.23916
-46.8429
-43.0577
-52.3618
-39.769
-36.109
-36.0713
-41.1548
-33.7925
-34.6077
-35.1824
-35.5048
-33.4409
-40.2914
-42.514
-41.7662
-40.228
-170.727
-154.176
-118.266
35.2925
-8.02975
-2.86067
-77.0489
110.043
-75.6483
-59.7424
-71.9667
-67.1434
-36.3216
-33.06
-34.4326
-32.9275
-39.7083
-38.0505
-42.8058
-33.9676
-37.1124
-38.9217
-40.8105
-36.2815
-38.8378
-54.9993
-45.4442
1.95736
-2.63591
2.36875
-69.8742
85.2646
-46.7037
-43.2228
-52.4851
-39.834
-34.6605
-35.202
-35.5778
-33.5265
-36.3291
-36.2185
-41.3491
-33.9271
-40.3412
-42.5393
-41.8227
-40.2518
-39.3787
-40.6401
-42.6867
-41.5349
-35.1618
-37.2309
-37.0781
-35.4416
-39.1157
-39.5504
-39.8541
-38.7109
-38.4848
-38.9608
-39.8001
-37.6536
-38.445
-38.4379
-40.0434
-41.3424
-39.1787
-38.0275
-37.7307
-39.4397
-39.4432
-39.3234
-39.139
-38.4156
-39.33
-39.6837
-39.3221
-40.1791
-48.8963
-39.9476
-46.558
-23.8798
-49.0704
-45.0422
-45.7225
-47.4453
-58.932
-57.3799
-55.6437
-66.3271
-13.9078
11.6125
13.9025
-10.9586
-48.0465
-47.0642
-47.2694
-51.5555
-45.989
-43.4188
-44.7
-44.6196
-51.1212
-52.6984
-51.194
-55.2972
-59.7269
-65.7265
-65.3275
-63.2752
-39.3866
-40.6761
-42.6975
-41.5411
-38.4583
-38.9384
-39.7825
-37.627
-35.1805
-37.22
-37.0618
-35.4569
-39.1257
-39.5204
-40.0411
-38.6382
-38.5412
-38.6587
-40.1681
-41.7273
-39.3287
-39.7106
-39.3319
-40.2112
-39.1152
-38.1074
-37.7465
-39.8476
-39.4282
-39.3369
-39.0965
-38.4022
-48.9188
-40.1413
-46.7379
-23.2897
-13.9989
11.8106
13.9583
-11.2274
-48.9938
-45.0017
-45.676
-47.4599
-58.888
-57.4328
-55.4431
-66.269
-48.0176
-47.0052
-47.242
-51.5219
-59.9673
-65.708
-65.2899
-63.2698
-45.9732
-43.4118
-44.6818
-44.6085
-51.1067
-52.5659
-51.1763
-55.2769
-86.8075
-68.3121
-78.3451
-77.5914
177.771
197.078
184.56
179.918
-83.1507
-65.4138
-73.4151
-73.1872
136.204
142.054
135.753
136.582
-48.9454
-49.3742
-52.4399
-45.5945
-52.8103
-54.6047
-57.5124
-50.3615
-42.6128
-44.6442
-43.327
-43.17
-32.843
-30.4254
-31.4509
-31.7121
-33.2683
-34.865
-34.0881
-34.074
-23.0824
-21.3186
-23.0357
-23.2086
-41.4693
-42.6926
-41.7761
-42.652
-38.7589
-39.1436
-40.4324
-37.4914
-36.7566
-25.3818
-30.8964
-30.8824
168.7
177.364
167.031
171.254
-50.7898
-50.6317
-47.1665
-56.2727
-17.9838
-11.8062
-19.5537
-9.52268
-37.7796
-39.2754
-38.5618
-38.5615
-28.7675
-28.4241
-28.8872
-28.7993
-46.0709
-46.6968
-44.7898
-47.487
-44.6974
-43.6578
-46.1261
-42.326
-87.4295
-67.8473
-78.9827
-78.0025
177.299
196.746
179.871
184.345
-48.8749
-49.3451
-52.38
-45.5657
-52.5122
-54.5951
-57.4176
-50.3043
-42.736
-44.7527
-43.2736
-43.4226
-33.0107
-30.648
-31.699
-31.9174
-41.5558
-42.7309
-41.8628
-42.7607
-39.2286
-39.4327
-40.7519
-38.0193
-50.7945
-50.656
-56.0705
-47.1717
-17.9401
-11.809
-9.51528
-19.5485
-46.1602
-46.7715
-47.5334
-44.8922
-44.7022
-43.6583
-42.2975
-46.121
-37.9603
-38.8886
-38.481
-38.3274
-38.0241
-38.2339
-38.043
-38.3766
-44.5264
-44.8916
-43.9969
-44.7648
-41.673
-41.7642
-40.6223
-42.8694
-43.2982
-47.4347
-45.4715
-45.4383
-37.4992
-38.0825
-37.696
-37.7089
-41.1039
-41.4771
-40.4545
-42.0445
-41.0996
-43.3388
-42.1628
-42.1568
-39.8263
-39.0578
-39.4115
-39.3996
-41.3737
-41.8184
-41.5956
-41.6573
-48.2079
-44.899
-46.0559
-46.573
-73.9652
-90.2442
-89.5654
-79.2751
20.8565
7.26409
13.5606
13.7327
-49.8486
-98.7531
-79.3456
-79.6669
-73.9131
-80.0966
-76.6595
-76.6535
-58.3966
-51.4821
-55.191
-55.1907
-37.9674
-38.8593
-38.4604
-38.2404
-38.0363
-38.2484
-38.0532
-38.3929
-44.6983
-44.9636
-44.9028
-44.0978
-41.6355
-41.693
-40.5731
-42.783
-41.1027
-41.4412
-42.1445
-40.4516
-41.0711
-43.3975
-42.2515
-42.2042
-48.161
-44.854
-46.534
-45.9996
-73.9102
-90.2464
-79.2551
-89.5457
-84.2174
-75.8404
-75.9347
-65.4282
-43.3899
-42.6358
-45.0441
-44.229
-45.9958
-46.9599
-45.6185
-45.2876
-70.0991
-61.6127
-73.7855
-66.8574
-84.8231
-77.0592
-76.9436
-65.4409
-70.6137
-61.9667
-74.1587
-67.6148
-46.1648
-47.1604
-45.7497
-45.4363
-43.4273
-42.7512
-45.0484
-44.2964
-81.7132
-70.2482
-72.4272
-62.3376
-81.3222
-70.0366
-72.0117
-61.9922
-43.6919
-42.171
-45.9823
-44.462
-43.6909
-42.1536
-45.9629
-44.5113
-39.2146
-35.8001
-32.163
-28.3251
2.404
12.4679
-0.833902
9.58337
2.38421
12.4587
-0.867663
9.49363
-39.1715
-35.7721
-32.149
-28.3224
136.116
142.598
135.692
140.637
143.169
123.219
160.893
172.221
123.538
143.115
172.319
160.838
143.378
135.886
143.398
135.773
-38.0197
-38.4403
-38.557
-39.0236
-38.7658
-38.9972
-38.9849
-39.3626
-45.2061
-47.3138
-44.2335
-45.7907
-47.6491
-49.6745
-45.7688
-47.2725
-37.9957
-38.4097
-38.5266
-38.99
-47.5728
-49.6303
-45.7305
-47.1971
-45.176
-47.2872
-44.1727
-45.778
-38.7667
-38.9919
-38.9792
-39.3546
-37.1269
-36.537
-37.9772
-37.4873
-36.532
-37.139
-37.5031
-37.9834
-41.099
-39.8343
-39.6718
-39.2036
-39.8092
-41.0735
-39.1803
-39.648
-95.7683
-51.5366
-87.8171
-74.4254
-62.9209
-66.7191
-71.6164
-72.5195
-66.6757
-62.8243
-72.4946
-71.5775
-51.427
-95.6
-74.4578
-87.9093
-40.6307
-41.3567
-41.3519
-41.5784
-42.2256
-42.2425
-42.9474
-42.9181
-41.7933
-42.1834
-42.7129
-43.1904
-45.2834
-44.4627
-45.9111
-43.9433
-40.714
-41.4149
-41.4387
-41.6529
-45.2178
-44.4513
-45.8451
-43.8856
-41.8997
-42.2739
-42.8173
-43.2773
-42.3268
-42.3258
-43.0432
-43.0144
-40.8234
-41.5518
-40.931
-41.3409
-41.2069
-41.6837
-41.1805
-41.4948
-34.5937
-35.3827
-34.6059
-35.6225
-34.7829
-35.5011
-34.5831
-35.2067
-56.6076
-58.4063
-52.2767
-55.2204
-37.9665
-39.1822
-38.747
-39.9141
-37.9833
-39.1994
-38.7519
-39.9215
-56.606
-58.3416
-52.3028
-55.2399
-32.3463
-31.0646
-30.7393
-28.4255
-31.2819
-32.562
-28.7147
-31.0113
-32.6487
-32.994
-31.1184
-32.1637
-32.8457
-32.5026
-31.9842
-30.9359
-92.7116
100.911
-119.833
11.249
-90.5107
-93.0254
-44.8988
-35.8304
-37.1761
-36.1857
-41.5521
-36.8218
-74.5792
61.9375
-47.9435
10.5904
-62.6223
-48.2434
-41.167
-34.065
-35.7863
-33.7381
-39.7255
-37.8465
-119.679
11.6111
-92.6838
103.699
-90.3191
-92.8765
-36.5173
-36.6335
-45.0527
-36.0909
-41.574
-36.8046
-47.9707
11.5184
-74.8804
62.109
-62.9058
-48.3475
-35.8447
-33.8543
-41.4822
-34.2025
-39.8182
-37.8929
-36.3509
-39.6993
-36.9256
-35.8068
-41.0364
-38.031
-39.1105
-36.8985
-42.637
-41.1753
-37.5788
-39.9697
-38.1775
-42.0309
-39.1759
-40.6254
-52.3493
-46.1195
-50.4277
-52.3354
-56.014
-71.8828
-31.4069
-73.412
-47.9634
-50.4823
-47.7342
-47.0096
-49.8598
-53.0207
-55.341
-54.205
-36.4965
-39.681
-39.0819
-36.8753
-36.9456
-35.7916
-41.0643
-38.0072
-42.6807
-41.2048
-39.1857
-40.6052
-37.538
-39.8102
-37.9782
-42.1377
-52.3967
-46.1891
-31.5688
-73.7728
-50.0498
-52.3332
-55.5161
-71.6813
-47.954
-50.479
-55.2833
-54.1764
-47.7114
-47.0044
-50.1331
-52.9954
-70.1958
104.241
-63.5718
77.9395
-87.424
-85.4951
157.44
146.551
-118.528
-11.0991
-117.577
21.4078
-96.6753
-96.2472
75.7825
74.464
-55.1699
-54.5023
-40.8427
-44.4041
-51.2138
-44.9633
-53.9919
-48.369
-42.3012
-33.5599
-41.4154
-33.6528
-42.2289
-42.0318
-33.0062
-33.0737
-32.5751
-28.9731
-32.4605
-29.113
-32.6022
-32.5937
-26.0249
-26.127
-41.8236
-39.2016
-40.1473
-38.8994
-40.4144
-41.3188
-39.6737
-38.1722
-46.0539
-15.0983
-45.8395
-15.8922
-42.8903
-42.8399
107.805
110.097
-52.1468
-35.9576
-44.3666
-23.849
-46.6692
-52.9331
-26.7321
-19.9029
-35.7981
-33.8137
-35.8121
-33.8563
-36.7652
-36.7685
-31.3821
-31.3215
-44.2384
-43.7228
-47.9553
-52.8218
-45.3052
-47.4502
-48.5001
-43.8685
-70.1165
104.995
-63.5804
77.7286
-86.4894
-85.2142
145.403
157.989
-55.2108
-54.9096
-40.8479
-44.4496
-51.167
-44.9116
-54.2529
-47.9574
-42.4643
-33.7051
-41.57
-33.7951
-42.1696
-42.3619
-33.168
-33.2164
-41.9151
-39.4885
-40.2661
-39.1429
-40.5228
-41.4246
-39.9792
-38.7018
-52.1158
-36.0389
-44.4983
-23.7705
-52.7928
-46.7068
-19.7601
-26.7511
-44.2812
-43.7418
-47.933
-52.8487
-47.4719
-45.3996
-43.8628
-48.5026
-37.3823
-37.5962
-37.2344
-38.0235
-37.5856
-37.5237
-37.8129
-38.0343
-40.2523
-39.8854
-42.8597
-43.7865
-42.2009
-43.2496
-40.4889
-42.6093
-40.362
-38.4292
-40.3279
-38.4172
-41.6628
-41.6516
-37.9877
-37.9737
-39.6326
-39.026
-42.0845
-42.0761
-40.2123
-41.5138
-40.5927
-41.0613
-39.5729
-40.1681
-39.5877
-40.1985
-39.8104
-39.7962
-40.6891
-40.7171
-54.3333
-62.5751
-52.0982
-56.8534
-49.9283
-50.8538
-68.5405
-63.0824
23.7708
-1.80864
23.8077
-1.82059
26.6281
26.5724
-18.4887
-19.3408
-68.4472
-64.1698
-68.4325
-64.1561
-70.8768
-70.8685
-61.4852
-61.3622
-37.3696
-37.5958
-37.2622
-38.0409
-37.5753
-37.491
-37.8172
-38.053
-40.239
-39.8577
-42.8416
-43.7682
-43.3322
-42.2892
-40.4689
-42.6045
-39.646
-39.0478
-42.0739
-42.0515
-41.5253
-40.2148
-40.4403
-40.9287
-54.3828
-62.5907
-52.0914
-56.7888
-50.9462
-49.9518
-63.1008
-68.5314
-58.6778
-59.4133
-53.5323
-46.0851
-47.1668
-54.486
-45.2548
-45.573
-58.4768
-59.2919
-53.3222
-46.0942
-54.3193
-47.1718
-45.6005
-45.2726
-59.5179
-59.291
-57.565
-51.6948
-57.4904
-51.7176
-48.9727
-48.9733
-20.1907
-20.1881
-16.0074
-5.15684
-5.15471
-16.0086
1.58641
1.57532
197.776
191.981
170.1
171.895
171.537