# vtk DataFile Version 2.0
tet_velo
ASCII
DATASET UNSTRUCTURED_GRID
POINTS 29498 float
-0.710785 0.125 -1.945
-0.573028 0.225 2.115
-0.705 0.615 -1.90005
-0.645 0.755 1.97185
0.714221 0.125 -1.945
0.590774 0.225 2.115
0.705 0.61445 -1.905
0.655 0.755 1.97055
-0.699453 0.123746 -0.591667
-0.686622 0.123991 0.761667
-0.757768 0.734435 -0.609417
-0.759689 0.803023 0.681217
0.707717 0.123689 -0.591667
0.699595 0.123995 0.761667
0.762598 0.735565 -0.61315
0.76861 0.805093 0.6787
-1.44263 -0.213183 -2.988
-1.43622 -0.173283 -1.93011
-1.42427 -0.172198 -0.575278
-1.38934 -0.171362 0.791964
-1.30738 -0.107588 2.14784
-1.28447 -0.0685509 3.21083
-1.28915 -0.0431715 4.26432
-1.44232 0.0657589 -2.98888
-1.43958 0.119041 -1.93767
-1.43422 0.135789 -0.594989
-1.39366 0.135797 0.753151
-1.27896 0.188808 2.097
-1.26393 0.225913 3.15909
-1.27824 0.252096 4.21461
-1.44195 0.601115 -2.97254
-1.44604 0.652725 -1.91799
-1.47732 0.743344 -0.617931
-1.45194 0.78529 0.677425
-1.3361 0.765678 1.97853
-1.29675 0.800537 3.04292
-1.29523 0.837465 4.10831
-1.44098 1.48012 -2.99581
-1.44484 1.54233 -1.95112
-1.45876 1.64012 -0.670828
-1.45986 1.70596 0.595736
-1.42801 1.71893 1.87634
-1.39165 1.72848 2.92169
-1.36442 1.75071 3.98017
-0.723419 -0.210507 -2.99286
-0.715455 -0.168377 -1.93665
-0.705745 -0.178426 -0.575082
-0.69638 -0.178472 0.799367
-0.639666 -0.0888493 2.1612
-0.616325 -0.0558181 3.21973
-0.615995 -0.0371353 4.26925
-0.721964 0.0640384 -2.99125
-0.590408 0.238561 3.16629
-0.603949 0.257261 4.21818
-0.719208 0.584815 -2.96625
-0.615959 0.799265 3.04108
-0.615247 0.837428 4.10747
-0.713942 1.46906 -2.98946
-0.713499 1.53197 -1.94397
-0.727592 1.63862 -0.666892
-0.74234 1.71075 0.594202
-0.729275 1.71948 1.87125
-0.698939 1.72658 2.91666
-0.673125 1.74897 3.97636
0.708751 -0.210373 -2.99398
0.711334 -0.168287 -1.93703
0.707511 -0.178344 -0.575339
0.680855 -0.178371 0.799157
0.615334 -0.0887713 2.161
0.663758 -0.0556671 3.21922
0.702572 -0.0368905 4.2685
0.70878 0.0640884 -2.99271
0.672362 0.238677 3.16575
0.709924 0.257499 4.21739
0.711424 0.584751 -2.96928
0.691542 0.799453 3.04007
0.716313 0.837727 4.10646
0.736024 1.46943 -2.9922
0.744984 1.53247 -1.94685
0.742596 1.63946 -0.669491
0.712808 1.71175 0.592111
0.68212 1.72023 1.86959
0.687978 1.72716 2.91523
0.70564 1.74948 3.97504
1.4276 -0.212787 -2.9906
1.43127 -0.172873 -1.93192
1.42629 -0.171654 -0.576691
1.38714 -0.170817 0.790872
1.30964 -0.107249 2.1469
1.33101 -0.0681391 3.20957
1.37072 -0.0426233 4.26273
1.42957 0.0660614 -2.9921
1.43822 0.119435 -1.94006
1.4406 0.136532 -0.596902
1.40795 0.136579 0.751795
1.30546 0.189072 2.096
1.33294 0.226288 3.15774
1.37513 0.252641 4.21294
1.43585 0.601347 -2.97781
1.44708 0.653057 -1.92402
1.48378 0.745014 -0.622902
1.46328 0.787506 0.673943
1.35665 0.766362 1.97623
1.3602 0.801096 3.04087
1.38769 0.838135 4.10626
1.45926 1.48094 -3.001
1.4697 1.54339 -1.95648
1.47062 1.64173 -0.675701
1.43906 1.7078 0.591738
1.39629 1.7204 1.8731
1.38877 1.72965 2.91884
1.39912 1.75175 3.97753
-0.730789 0.37 -1.94542
0.00171801 0.142363 -1.92764
-0.706876 0.122616 -1.26833
-0.654467 0.49 2.08888
0.00887299 0.241635 2.09837
-0.654688 0.149633 1.43833
0 0.696811 -1.98461
-0.764159 0.707492 -1.25473
0.005 0.862021 2.07822
-0.730756 0.807422 1.32653
0.732779 0.369725 -1.94817
0.717624 0.117689 -1.26833
0.667962 0.49 2.08785
0.670226 0.149456 1.43833
0.766665 0.707873 -1.25908
0.741159 0.8094 1.32463
-0.686428 0.130479 0.085
-0.796764 0.42909 -0.600542
0.00413161 0.121119 -0.591667
-0.791511 0.463507 0.721442
0.00648612 0.121262 0.761667
-0.762945 0.772945 0.0359
0.00241478 0.989089 -0.611283
0.00446011 1.18953 0.679958
0.696902 0.130595 0.085
0.802616 0.429627 -0.602408
0.801882 0.464544 0.720183
0.768319 0.773044 0.032775
-0.895891 0.399545 -1.26153
-0.796083 0.446299 0.06045
-0.895086 0.476753 1.38243
0.00292481 0.113807 -1.26833
0.00530886 0.121774 0.085
0.00767955 0.141947 1.43833
0.000859007 0.369862 -2.13029
0.00693649 0.49 2.19585
0.00120739 0.823409 -1.2569
0.00343744 1.19832 0.0343375
0.00473005 1.01489 1.32558
0.895924 0.399676 -1.2637
0.801837 0.447085 0.0588875
0.886677 0.477272 1.38148
-1.07518 0.12202 -1.94133
-0.71312 -0.0216887 -1.94083
-0.716375 0.0945192 -2.46813
-0.925994 0.206904 2.106
-0.606347 0.0680753 2.1381
-0.581718 0.23178 2.64064
-1.07552 0.633862 -1.90902
-0.712104 0.599907 -2.43315
-0.709249 1.07348 -1.92201
-0.990548 0.760339 1.97519
-0.63048 0.777133 2.50647
-0.687137 1.23724 1.92155
0.712778 -0.0216434 -1.94102
0.711501 0.0945442 -2.46886
1.07622 0.122218 -1.94253
0.603054 0.0681143 2.138
0.631568 0.231838 2.64037
0.948118 0.207036 2.1055
0.708212 0.5996 -2.43714
0.724992 1.07346 -1.92592
1.07604 0.633753 -1.91451
0.673271 0.777227 2.50531
0.66856 1.23762 1.92007
1.00582 0.760681 1.97339
-1.06684 0.129767 -0.593328
-0.702599 -0.02734 -0.583375
-1.04014 0.129894 0.757409
-0.691501 -0.0272405 0.780517
-1.11754 0.738889 -0.613674
-0.74268 1.18653 -0.638154
-1.10581 0.794156 0.679321
-0.751015 1.25689 0.637709
0.707614 -0.0273279 -0.583503
1.07416 0.13011 -0.594284
0.690225 -0.0271879 0.780412
1.05377 0.130287 0.756731
0.752597 1.18751 -0.64132
1.12319 0.740289 -0.618026
0.740709 1.25842 0.635406
1.11594 0.7963 0.676322
-1.43942 -0.193233 -2.45906
-1.44248 -0.073712 -2.98844
-1.08302 -0.211845 -2.99043
-1.43024 -0.172741 -1.2527
-1.4379 -0.0271209 -1.93389
-1.07584 -0.17083 -1.93338
-1.4068 -0.17178 0.108343
-1.42925 -0.0182049 -0.585133
-1.06501 -0.175312 -0.57518
-1.34836 -0.139475 1.4699
-1.3915 -0.0177825 0.772557
-1.04286 -0.174917 0.795666
-1.29592 -0.0880695 2.67933
-1.29317 0.0406099 2.12242
-0.973522 -0.0982187 2.15452
-1.28681 -0.0558612 3.73757
-1.2742 0.0786811 3.18496
-0.950396 -0.0621845 3.21528
-1.28369 0.104462 4.23947
-0.952573 -0.0401534 4.26678
-1.44095 0.0923999 -2.46327
-1.44214 0.333437 -2.98071
-1.08214 0.0648986 -2.99007
-1.4369 0.127415 -1.26633
-1.44281 0.385883 -1.92783
-1.41394 0.135793 0.0790808
-1.45577 0.439566 -0.60646
-1.33631 0.162302 1.42507
-1.4228 0.460544 0.715288
-1.27145 0.20736 2.62804
-1.30753 0.477243 2.03776
-1.27109 0.239005 3.68685
-1.28034 0.513225 3.101
-0.927171 0.232237 3.16269
-1.28673 0.544781 4.16146
-0.941094 0.254678 4.2164
-1.44399 0.62692 -2.44526
-1.44147 1.04062 -2.98417
-1.08058 0.592965 -2.96939
-1.46168 0.698034 -1.26796
-1.44544 1.09753 -1.93455
-1.46463 0.764317 0.0297474
-1.46804 1.19173 -0.644379
-1.39402 0.775484 1.32798
-1.4559 1.24563 0.636581
-1.31642 0.783107 2.51072
-1.38205 1.24231 1.92744
-1.29599 0.819001 3.57562
-1.3442 1.26451 2.9823
-0.956354 0.799901 3.042
-1.32982 1.29409 4.04424
-0.955238 0.837446 4.10789
-1.44291 1.51122 -2.47346
-1.07746 1.47459 -2.99263
-1.4518 1.59123 -1.31097
-1.07917 1.53715 -1.94754
-1.45931 1.67304 -0.0375458
-1.09318 1.63937 -0.66886
-1.44393 1.71245 1.23604
-1.1011 1.70836 0.594969
-1.40983 1.72371 2.39902
-1.07864 1.71921 1.87379
-1.37803 1.7396 3.45093
-1.04529 1.72753 2.91918
-1.01877 1.74984 3.97826
-0.719437 -0.189442 -2.46476
-0.722691 -0.0732346 -2.99206
-0.00733368 -0.21044 -2.99342
-0.7106 -0.173402 -1.25587
-0.00206051 -0.168332 -1.93684
-0.701062 -0.178449 0.112142
0.000883045 -0.178385 -0.57521
-0.668023 -0.133661 1.48029
-0.0077624 -0.178421 0.799262
-0.627995 -0.0723337 2.69047
-0.012166 -0.0888103 2.1611
-0.61616 -0.0464767 3.74449
-0.603366 0.0913713 3.19301
0.0237169 -0.0557426 3.21947
-0.609972 0.110063 4.24371
0.0432884 -0.0370129 4.26887
-0.720586 0.324427 -2.97875
-0.0065919 0.0640634 -2.99198
-0.597179 0.247911 3.69223
-0.603184 0.518913 3.10369
0.0409769 0.238619 3.16602
-0.609598 0.547344 4.16282
0.0529872 0.25738 4.21779
-0.716575 1.02694 -2.97785
-0.00389242 0.584783 -2.96776
-0.615603 0.818346 3.57427
-0.657449 1.26292 2.97887
0.0377912 0.799359 3.04058
-0.644186 1.2932 4.04191
0.0505328 0.837577 4.10696
-0.713721 1.50051 -2.46671
0.0110409 1.46924 -2.99083
-0.720545 1.58529 -1.30543
0.0157425 1.53222 -1.94541
-0.734966 1.67468 -0.0363451
0.00750225 1.63904 -0.668191
-0.735807 1.71512 1.23272
-0.0147657 1.71125 0.593157
-0.714107 1.72303 2.39396
-0.0235771 1.71986 1.87042
-0.686032 1.73777 3.44651
-0.00548042 1.72687 2.91595
0.0162576 1.74922 3.9757
0.710043 -0.18933 -2.46551
0.708766 -0.0731423 -2.99335
1.06818 -0.21158 -2.99229
0.709422 -0.173316 -1.25618
1.0713 -0.17058 -1.93447
0.694183 -0.178358 0.111909
1.0669 -0.174999 -0.576015
0.648095 -0.133571 1.48008
1.034 -0.174594 0.795014
0.639546 -0.0722192 2.69011
0.962485 -0.0980101 2.15395
0.683165 -0.0462788 3.74386
0.66806 0.091505 3.19249
0.997386 -0.0619031 3.2144
0.706248 0.110304 4.24295
1.03665 -0.0397569 4.26561
0.710102 0.32442 -2.98099
1.06917 0.0650749 -2.9924
0.691143 0.248088 3.69157
0.681952 0.519065 3.10291
1.00265 0.232482 3.16175
0.713118 0.547613 4.16193
1.04253 0.25507 4.21516
0.723724 1.02709 -2.98074
1.07364 0.593049 -2.97354
0.703927 0.81859 3.57326
0.68976 1.26331 2.97765
1.02587 0.800275 3.04047
0.710977 1.2936 4.04075
1.052 0.837931 4.10636
0.740504 1.50095 -2.46952
1.09764 1.47518 -2.9966
0.74379 1.58597 -1.30817
1.10734 1.53793 -1.95167
0.727702 1.6756 -0.0386897
1.10661 1.64059 -0.672596
0.697464 1.71599 1.23085
1.07594 1.70977 0.591925
0.685049 1.7237 2.39241
1.0392 1.72032 1.87135
0.696809 1.73832 3.44513
1.03837 1.7284 2.91704
1.05238 1.75061 3.97628
1.42944 -0.19283 -2.46126
1.42859 -0.0733627 -2.99135
1.42878 -0.172264 -1.2543
1.43474 -0.026719 -1.93599
1.40671 -0.171235 0.10709
1.43344 -0.0175612 -0.586796
1.34839 -0.139033 1.46889
1.39754 -0.0171189 0.771333
1.32033 -0.0876939 2.67824
1.30755 0.0409116 2.12145
1.35087 -0.0553812 3.73615
1.33198 0.0790742 3.18366
1.37292 0.105009 4.23783
1.4339 0.0927484 -2.46608
1.43271 0.333704 -2.98495
1.43941 0.127983 -1.26848
1.44265 0.386246 -1.93204
1.42427 0.136555 0.0774465
1.46219 0.440773 -0.609902
1.35671 0.162825 1.42389
1.43561 0.462043 0.712869
1.3192 0.20768 2.62687
1.33106 0.477717 2.03611
1.35403 0.239465 3.68534
1.34657 0.513692 3.0993
1.38141 0.545388 4.1596
1.44146 0.627202 -2.45091
1.44755 1.04114 -2.9894
1.46543 0.699035 -1.27346
[...]
POINT_DATA 29498
VECTORS point_vectors float
-3.46048 -6.18268 9.9996
-0.12768 0.29876 0.984711
-1.38369 2.01047 3.96891
0.0139716 -0.0319697 0.109903
3.71564 -6.64724 10.2229
0.0809161 0.263399 0.910625
1.43491 2.13018 4.2215
-0.0144714 -0.0364929 0.126572
0.00165581 0.000176763 0.0389728
0.0133762 -0.00175452 0.179316
-0.00539061 -0.0057063 0.0510884
0.0558647 0.0780431 0.226212
-0.00108078 0.000298945 0.0586369
-0.00751839 -0.000611931 0.109114
0.005928 -0.00645742 0.0640593
-0.0526698 0.0717503 0.224274
-0.645465 -0.2739 19.7832
-1.36222 -0.784635 20.5338
-0.347344 -0.284748 21.304
0.0786995 -0.0640468 21.4012
0.765596 0.444882 21.2132
0.95809 0.430059 20.7169
0.675323 0.330821 20.7482
-0.769718 -0.178956 19.6721
-1.89994 -0.614071 20.4384
-0.456753 -0.36812 21.3402
0.0205927 -0.209062 21.4999
1.11873 0.250264 21.0483
1.19021 0.248513 20.8238
0.816644 0.248293 20.8062
-0.804849 0.137288 19.6101
-2.06556 0.298854 20.3276
-0.929127 -0.258559 21.2916
-0.240919 -0.218709 21.547
0.832977 -0.455346 21.327
1.06682 -0.576648 20.8415
0.757135 -0.437098 20.4827
-0.506472 0.378728 19.8681
-0.894967 0.679832 20.2905
-0.81938 0.4361 20.9976
-0.304362 0.0543507 21.374
0.170153 -0.316577 21.1859
0.340396 -0.434653 20.9285
0.314188 -0.422424 20.8933
-0.648445 -0.663204 19.1902
-1.79268 -3.42467 20.9098
-0.337069 -0.0833479 21.1366
0.104011 0.205532 20.2558
0.202643 1.25008 17.685
0.369721 1.37185 17.1166
0.501243 1.10161 17.5653
-0.792914 -0.464859 18.8509
0.849925 1.30904 8.96177
1.42832 1.00872 12.7119
-0.916911 0.249805 18.6195
0.936106 -0.249915 6.83703
1.66706 -0.308248 11.8447
-0.440753 0.694409 19.5058
-0.925867 1.66264 20.0584
-1.16507 1.47523 20.9977
-0.419612 0.327498 21.8395
0.11613 -0.526936 21.385
0.232365 -0.747687 21.0336
0.215543 -0.653824 20.7511
0.635668 -0.664415 19.1798
1.75095 -3.44099 20.936
0.332367 -0.0626642 21.1728
-0.0985376 0.230036 20.1845
-0.185925 1.17706 17.4926
-0.512163 1.30814 17.3714
-0.594447 0.893662 18.1839
0.7803 -0.475487 18.8248
-1.13198 1.41382 10.547
-1.5118 0.765001 13.3405
0.907096 0.254247 18.6051
-1.18849 -0.306707 8.73358
-1.61419 -0.216173 13.4031
0.442625 0.685662 19.5134
0.933705 1.61488 20.0642
1.16089 1.45791 20.9935
0.413686 0.354848 21.8674
-0.105244 -0.537525 21.3989
-0.233953 -0.743304 21.0398
-0.212046 -0.649913 20.7144
0.645884 -0.289037 19.7832
1.3761 -0.807686 20.5384
0.346879 -0.296715 21.3054
-0.0850087 -0.068572 21.4004
-0.755022 0.427482 21.2091
-0.905177 0.361821 20.7514
-0.666769 0.24025 20.6281
0.770799 -0.17943 19.6625
1.91435 -0.621314 20.4351
0.4621 -0.376607 21.3334
-0.0329407 -0.207009 21.4994
-1.05591 0.20184 21.1205
-1.12103 0.156987 20.8829
-0.805104 0.137573 20.6738
0.802453 0.138657 19.604
2.06554 0.302173 20.3217
0.938095 -0.254871 21.2912
0.23704 -0.219255 21.5449
-0.799152 -0.422201 21.3121
-1.00488 -0.488483 20.8712
-0.686627 -0.368383 20.3914
0.501553 0.372508 19.8723
0.879489 0.657356 20.2876
0.816739 0.432339 20.9902
0.309652 0.0639691 21.3876
-0.172608 -0.316157 21.2009
-0.341295 -0.429922 20.9304
-0.334304 -0.424801 20.9214
-1.10901 -0.0197655 1.3826
-6.56147e-05 -0.0525588 0.154772
-0.00691344 0.00146244 0.0576804
-0.0247896 -0.024075 0.0173924
-0.00274491 0.000870341 0.0246556
-0.0102052 0.00887392 0.213498
-3.80394e-05 0.0160871 0.0865357
-0.0190565 -0.0159544 0.0646175
-0.00415508 0.0483395 -0.0365554
0.00729055 0.00155705 0.0679833
0.39249 -0.0106533 0.478659
0.0322329 0.00836329 0.254001
-0.0133795 -0.0190942 0.0795567
0.00140481 0.00156516 0.0338781
0.0396138 -0.0341236 0.134838
-0.0214856 0.0112629 0.182605
0.000742064 1.53319e-05 0.0138681
9.2659e-06 -2.61454e-06 0.000345763
-9.47611e-08 -3.80677e-09 2.69885e-06
0 0 0
-1.39028e-05 -6.42016e-06 0.00130738
0 0 0
-0.00035821 0.0370048 0.0915454
3.96823e-05 -0.0027401 0.0298194
-0.000513323 1.17722e-05 0.00959757
-7.09514e-05 2.83901e-05 0.00321517
0 0 0
-0.00406413 0.00818625 0.0411223
0.00365842 -0.00304042 0.107618
1.85964e-07 0.000354799 0.00209222
0.00875881 0.0197883 0.148765
-1.58154e-06 3.73391e-07 3.36523e-05
1.05023e-07 6.33539e-09 -5.23548e-06
-0.000218806 0.00214424 0.0299215
-0.00210685 -0.103687 0.191932
-0.00621939 0.0230548 -0.0328524
-5.26383e-07 -4.04252e-06 -2.73578e-05
-6.76244e-05 0.0114844 0.0957048
3.50943e-05 0.00059583 -0.00160706
-0.0027085 -0.00198023 0.071513
4.26404e-07 0.000573145 0.00317717
-0.00257782 0.00327433 0.0291822
-3.77419 -2.00132 20.1184
-2.43838 -5.48184 21.2209
-2.20246 -1.71867 17.596
1.24294 1.17248 13.0492
-0.124056 1.13558 10.1932
0.0331453 0.916092 6.02333
-4.2965 1.24376 19.9025
-2.75534 1.15633 16.9106
-2.0752 2.96368 19.8412
1.31576 -0.274844 16.2892
0.132461 -0.120801 3.60303
0.73713 -0.669381 17.0561
2.28665 -5.66408 21.3997
2.20228 -1.75169 17.5386
3.80186 -2.01602 20.0943
0.0999008 1.07088 10.027
-0.248897 1.00299 6.83817
-1.28528 1.09638 13.8824
2.73493 1.17824 16.8735
2.08476 2.90163 19.8379
4.29228 1.25441 19.8741
-0.293858 -0.112878 4.59919
-0.80494 -0.648658 16.6367
-1.2855 -0.251773 16.788
0.0246819 -0.189957 18.9336
-0.168256 0.12019 14.8924
0.0849108 -0.126102 17.3824
0.427848 0.123528 14.1022
-1.34495 -0.931902 20.7478
-2.98976 1.65137 21.0128
-0.35348 -0.294608 20.0723
-0.467173 0.216626 20.2271
0.180183 0.144488 14.9934
-0.01336 -0.230141 19.0023
-0.385377 0.162419 14.112
-0.144245 -0.0759061 17.5967
2.98186 1.63288 21.0191
1.36263 -0.919241 20.7614
0.398496 0.277873 19.8254
0.35957 -0.328402 20.2449
-1.06105 -0.549313 19.952
-0.695515 -0.250358 19.7432
-0.680684 -0.428162 19.5512
-0.837238 -0.552368 21.2484
-1.61467 -0.720884 20.4844
-1.90541 -1.77215 20.5705
-0.114265 -0.170584 21.3112
-0.397449 -0.332423 21.3178
-0.25549 -0.246766 21.4775
0.449378 0.195563 21.4839
0.0748474 -0.126477 21.4366
0.141389 0.0232834 21.2592
0.884927 0.449605 21.0884
0.953885 0.390525 21.1849
0.803814 1.0344 20.2494
0.976624 0.393656 20.478
1.10617 0.33985 20.8387
1.02353 0.980021 20.381
0.748433 0.308491 20.8395
0.674353 0.678826 20.7042
-1.40467 -0.372732 19.7567
-0.806734 -0.0695248 19.6196
-0.828907 -0.325615 19.3379
-1.14522 -0.52728 21.3621
-2.15622 -0.217835 20.3723
-0.170267 -0.295048 21.3975
-0.665777 -0.414751 21.3322
0.558906 0.0243715 21.5725
-0.117345 -0.25914 21.5106
1.22049 0.286919 20.8338
1.10946 -0.191982 21.1574
1.31318 0.0802299 20.032
1.34945 -0.115995 20.6981
1.66734 1.06656 16.4438
1.17196 -0.0946047 20.5391
1.17107 0.430215 18.1118
-1.44359 0.227621 19.6906
-0.687243 0.316135 19.726
-0.938462 0.164661 19.198
-1.4894 -0.0173409 21.2231
-1.4285 0.685366 20.2932
-0.610061 -0.292883 21.429
-1.06809 0.160697 21.1524
0.294351 -0.274938 21.6381
-0.329214 -0.0900906 21.5013
0.984786 -0.522931 21.0701
0.402898 -0.439306 21.3042
1.02551 -0.490174 20.7952
0.604214 -0.581936 20.9521
1.42352 -0.486 17.6095
0.548971 -0.562878 20.8462
1.20783 -0.316881 18.9171
-0.723785 0.561606 20.0083
-0.514732 0.519904 19.7122
-0.896302 0.583004 20.7086
-1.00422 1.10092 20.1829
-0.620273 0.255648 21.2399
-1.07821 0.82227 21.029
-0.0184971 -0.151205 21.3471
-0.391733 0.165018 21.5678
0.2645 -0.382354 21.1043
0.18039 -0.416182 21.3052
0.346949 -0.450344 20.7106
0.333807 -0.600973 21.0044
0.339372 -0.565554 20.3019
-1.3943 -1.82721 18.908
-0.697302 -0.5857 19.0541
-0.0106814 -0.903676 18.8044
-0.679948 -0.847165 22.3499
-0.0207079 -5.38241 21.25
-0.116279 0.0670647 20.5417
-0.0014505 -0.64385 17.3731
0.232647 0.748052 18.9261
-4.34565e-05 -0.0986869 15.1431
0.274258 1.30629 17.4853
-0.035833 0.502362 11.8951
0.61336 1.41608 17.3957
0.637162 1.56523 14.6649
-0.0576783 0.827446 11.8542
0.731034 1.15183 15.5088
-0.0197083 1.48127 12.6609
-0.887103 -0.157589 18.6122
-0.0185264 -0.691642 18.2287
1.39065 1.2119 11.6367
1.3186 0.545035 4.76269
0.0514368 -0.1262 0.514993
2.52226 0.623455 9.49881
-0.139223 0.644182 6.81473
-0.679764 0.65617 19.0641
-0.0108854 0.342388 17.8648
1.61192 -0.500068 10.5394
0.717966 -0.999748 18.3017
0.0341359 -0.174558 -1.51937
0.61531 -0.873661 18.9098
-0.204017 -1.64581 4.09246
-0.706549 1.24326 19.585
0.0101732 0.898999 19.2843
-1.0471 1.54092 20.6038
0.0224955 2.1777 19.8887
-0.986155 1.08905 21.6635
0.00699299 2.48746 20.81
-0.0406691 -0.229431 21.6648
-0.0169707 0.630316 22.2216
0.170211 -0.651397 21.2345
-0.00443766 -0.548161 21.5009
0.210768 -0.770145 20.7556
-0.00353595 -0.838244 21.1177
-0.00331408 -0.726089 20.7771
1.38801 -1.86839 18.8805
0.689227 -0.599461 19.0311
0.685237 -0.433168 19.537
0.654429 -0.809754 22.3611
1.92108 -1.8139 20.5744
0.111894 0.0787381 20.5467
0.247093 -0.252678 21.4674
-0.22943 0.738804 18.9705
-0.154206 0.0508196 21.2162
-0.295085 1.28993 17.558
-0.78175 1.03287 20.1626
-0.676274 1.26703 17.8655
-0.831119 1.51083 15.0628
-1.04824 0.934268 20.4148
-0.816058 0.920169 16.1698
-0.698421 0.652801 21.0163
0.877207 -0.156597 18.5841
0.836456 -0.329017 19.3109
-1.4605 1.08783 12.2301
-1.47755 0.561208 6.46935
-1.5783 0.825898 17.5344
-2.20312 0.467257 12.0492
-1.08546 0.370987 19.4812
0.678363 0.652953 19.0722
0.933456 0.165744 19.1862
-1.64061 -0.712105 11.7846
-0.719952 -0.984124 18.6532
-1.34975 -0.487424 19.2092
-0.592962 -0.818581 20.0321
-1.03405 -0.400766 20.6699
0.717275 1.2231 19.5964
0.511499 0.506525 19.7192
1.05839 1.5158 20.6045
0.996147 1.06405 20.1812
0.984784 1.12007 21.6664
1.07475 0.812663 21.0235
0.0385965 -0.230255 21.6792
0.396579 0.181138 21.5881
-0.164665 -0.654483 21.2545
-0.179322 -0.433248 21.3052
-0.21721 -0.764749 20.7622
-0.335589 -0.600352 21.0029
-0.335707 -0.534862 20.3489
1.06771 -0.562957 19.9431
0.694458 -0.253844 19.7386
0.839151 -0.56787 21.2568
1.63002 -0.736565 20.4845
0.109469 -0.181517 21.3172
0.399105 -0.345127 21.3176
-0.447942 0.186164 21.4726
-0.0867658 -0.127196 21.4316
-0.852651 0.413027 21.1051
-0.918291 0.352252 21.2285
-0.916908 0.280545 20.5818
-1.04083 0.261143 20.8999
-0.744896 0.207366 20.7133
1.40566 -0.379868 19.7441
0.807641 -0.0712213 19.608
1.14479 -0.533752 21.3604
2.16872 -0.216539 20.3628
0.176274 -0.300093 21.3963
0.677438 -0.415374 21.3284
-0.537327 0.0125067 21.5546
0.102691 -0.260836 21.516
-1.14344 0.209707 20.946
-1.05464 -0.189307 21.2009
-1.16982 0.0512604 20.3293
-1.25721 -0.116558 20.7079
-1.03219 -0.136335 20.4044
1.44455 0.230748 19.6833
0.681694 0.312429 19.7298
1.49648 -0.0145488 21.2176
1.40402 0.671447 20.292
0.615242 -0.287942 21.4292
1.06939 0.162784 21.1458
-0.287232 -0.270522 21.6154
0.335266 -0.0882127 21.5077
-0.930036 -0.468237 21.0816
-0.402245 -0.433269 21.3047
-0.967915 -0.442375 20.8842
-0.600721 -0.541068 20.9753
-0.508473 -0.513313 20.7931
0.711333 0.544198 20.0111
0.882895 0.570324 20.7004
0.62633 0.263571 21.2404
0.020163 -0.149849 21.3521
-0.268065 -0.376408 21.114
-0.348243 -0.439325 20.6995
-1.20855 -0.49968 19.8723
-1.76906 -1.88658 18.3813
-1.33013 -1.01741 19.5741
-1.86234 -0.826882 19.0721
-0.750707 -0.387072 19.449
-2.69111 -2.05979 20.4343
-0.995333 -0.552512 21.314
-0.668669 -0.169357 17.2493
-0.829859 -0.830806 21.7168
-0.938177 -0.900411 21.2453
-0.133326 -0.212837 20.9707
-0.135554 -0.230338 21.3496
0.161537 0.0946231 14.1009
-0.033691 -0.0913678 21.2867
0.147536 -0.0395681 17.864
0.186046 -0.0384516 19.9663
0.514647 0.128248 21.5593
0.162448 0.613752 12.2458
0.515254 0.566724 21.041
0.612479 0.59403 15.1315
1.08762 1.21132 17.6627
1.08242 0.427955 20.8543
0.148925 1.35027 12.0261
0.941286 1.03407 20.3324
1.43286 1.08515 15.4538
1.34988 1.16915 17.8779
1.15184 0.336271 20.2335
0.930602 1.33952 14.803
1.00159 1.00429 20.3461
1.48456 0.736901 16.9669
0.928318 0.604328 18.5335
-1.47919 -0.116469 19.6918
-2.84079 -0.498376 16.7075
-2.17026 0.485277 18.8199
-0.918052 -0.0878589 19.2166
-5.02748 -0.392381 19.7598
-1.38018 -0.350375 21.3605
-2.18727 -0.184785 22.0465
-0.271382 -0.8269 18.6074
-0.358329 -0.376629 21.4513
-0.905024 -0.792645 20.4183
-0.0783451 0.0061794 16.8003
0.459362 -0.178212 21.6306
0.65652 0.0835323 18.5303
1.45417 0.268944 12.2978
1.26671 -0.201614 20.9563
0.436847 0.386912 2.61717
1.34575 -0.433492 16.8916
2.00993 0.135207 15.4607
1.32917 -0.0368328 19.7159
2.06428 0.804731 7.86637
1.46273 -0.47927 17.7675
1.55818 0.083755 18.7424
-1.09608 0.533326 19.8441
-1.43242 1.70866 18.7657
-0.783381 0.847555 19.814
-0.740302 0.466367 19.4512
-2.00723 1.51308 20.0821
-1.30787 0.442999 20.8895
-2.14854 1.94475 20.9357
-1.08712 1.02286 20.693
-1.7388 0.417189 21.24
-0.764301 0.00912638 21.3855
-2.41423 0.621292 21.6129
-0.842394 0.52904 21.4305
-0.516311 -0.0299618 21.8318
0.0917687 -0.254341 21.5129
0.617223 -0.333345 18.6042
-0.0290785 -0.182611 21.4957
0.454472 -0.70695 21.4166
0.543774 -0.523789 21.1223
0.647389 -0.793855 17.5004
0.26855 -0.534068 21.1369
0.686201 -0.862975 20.8526
0.590348 -0.584195 20.6582
0.646637 -1.08713 18.3286
0.360284 -0.624553 20.8318
0.62407 -0.754679 20.2692
1.7611 -1.92646 18.3399
-0.021744 -2.8917 18.1318
-0.0249146 -3.14043 15.6116
-0.0136583 -0.835185 18.589
-0.0259669 -7.9827 22.5054
0.695023 -0.14149 17.2952
-0.00729882 -1.82161 21.0492
-0.00442006 -0.17001 7.14284
-0.165985 0.100765 14.1462
-0.00363489 -0.330365 15.4761
0.000541753 -0.0329781 7.69341
-0.192545 0.58769 12.1931
-0.00725936 0.322363 13.3633
-0.0707244 0.244819 4.46192
-0.197498 1.34615 12.1301
-0.0572893 0.504017 12.2232
0.0225895 -0.601173 -0.725473
-0.0358256 0.710206 6.37409
-1.00236 1.20728 15.3538
-0.022806 1.14144 12.506
-0.0398061 0.295207 3.14319
-0.166283 1.39623 10.7693
2.83197 -0.493456 16.6421
-0.0229275 2.47924 13.8965
-0.0118982 -0.213617 17.8903
-0.474337 0.37912 3.29037
0.0446432 0.322655 -1.81602
0.0649543 -0.593114 -4.42029
-1.94752 0.663414 9.70432
-0.16439 -0.840291 0.911142
-0.049279 -1.08723 -0.973175
1.4325 1.68196 18.7851
0.018015 1.63939 19.3493
-0.000172251 0.958 18.6387
0.0143699 4.14489 19.7228
2.14978 1.91792 20.9317
0.0101688 2.21901 20.4189
0.00610607 4.43137 19.5045
2.44429 0.650673 21.562
-0.0169212 2.1247 22.0234
-0.00249687 0.141352 15.691
-0.700771 -0.321171 18.0711
-0.00878042 -0.228278 21.8183
0.00263192 -0.544905 9.82638
-0.659126 -0.778502 17.532
-0.00280785 -0.678817 21.3933
-0.0351893 -0.803406 12.0434
-0.672776 -1.08828 19.1087
-0.00347441 -0.814598 20.8127
-0.0460104 -1.11095 14.5046
1.21511 -0.518178 19.861
1.34718 -1.04635 19.5475
1.88028 -0.841359 19.0367
0.753595 -0.40393 19.4306
2.72259 -2.10272 20.4247
0.993626 -0.565987 21.322
0.819713 -0.827251 21.7251
0.919714 -0.906271 21.1972
0.123142 -0.228833 20.9577
0.135987 -0.241717 21.3528
0.0276743 -0.093151 21.2642
-0.128645 -0.072058 18.04
-0.212044 0.00394885 19.9189
-0.503656 0.114837 21.5388
-0.505343 0.575335 20.9109
-0.644392 0.571093 15.9444
-1.07256 1.1798 17.6561
-1.02165 0.368312 20.9416
-0.937245 0.980564 20.3282
-1.44067 0.932313 16.7762
-1.29017 0.967775 18.7641
-1.06992 0.225452 20.3314
-1.04131 0.911729 20.5109
-1.42478 0.584475 18.9831
-0.853007 0.537014 19.8042
1.48914 -0.116499 19.6749
2.1664 0.491985 18.8036
0.913958 -0.0899503 19.1938
5.0215 -0.383777 19.7355
1.38815 -0.350826 21.3553
2.20179 -0.172134 22.0327
0.315019 -0.8364 18.7559
0.366525 -0.374511 21.4492
0.916292 -0.775757 20.5009
0.0357888 -0.0767295 17.1356
-0.446732 -0.175817 21.6118
-0.609031 0.012037 18.834
-1.464 0.291491 13.3034
-1.18191 -0.184734 20.9555
-1.31859 -0.447102 18.2099
-2.01322 0.00428204 17.5548
-1.18434 -0.0986808 20.422
-1.34304 -0.365775 19.5108
-1.47039 0.0502023 20.0296
1.08124 0.523752 19.8496
0.779032 0.821329 19.822
0.733556 0.461099 19.4578
1.98881 1.47306 20.08
1.30109 0.439796 20.8796
1.07838 0.999405 20.6877
1.72639 0.418047 21.2314
0.771513 0.0117117 21.386
0.849249 0.544682 21.4334
0.529723 -0.0243219 21.8515
-0.0949175 -0.254091 21.5188
0.0248887 -0.185442 21.5136
-0.463067 -0.703542 21.3775
-0.537272 -0.505517 21.1203
-0.268155 -0.544136 21.126
-0.683062 -0.822891 20.99
-0.58928 -0.543567 20.6718
-0.363931 -0.61535 20.8354
-0.61658 -0.677762 20.3335
-1.59051 -0.971599 19.3137
-0.89687 -0.896435 21.9797
0.057014 -0.0528644 20.2759
0.677868 0.594727 18.9529
1.18832 1.20505 17.8866
1.27807 0.939557 18.0832
-2.23173 -0.236208 18.7716
-1.66365 -0.702727 21.7489
-0.0128348 -0.583549 17.4532
0.669895 0.503882 16.037
1.61558 0.232264 13.9709
1.84061 0.243611 15.8283
-1.37469 0.96615 19.4143
-1.83675 0.901129 21.0183
-1.28592 0.16219 21.6997
0.125209 -0.359843 21.7553
0.560166 -0.800683 21.0771
0.726875 -0.819201 20.8074
-0.0231309 -3.16406 17.0871
-0.00124935 -0.640088 10.0634
-0.00443006 -0.112245 7.03751
-0.0191891 0.251712 6.55509
-0.0449791 0.0441734 5.14664
-0.042378 0.824895 7.65241
-0.0237432 -1.06971 13.7117
0.113924 -0.541495 -3.98344
-0.163746 -0.576012 -3.39192
0.00641603 2.69645 18.027
0.0100208 3.28842 20.4417
-0.0120963 2.9384 19.1946
0.00427088 -0.555947 11.2739
-0.022646 -0.631198 11.3995
-0.0398007 -1.22778 13.376
1.61148 -1.00088 19.2839
0.882054 -0.894265 21.9708
-0.0589176 -0.0629504 20.2452
-0.664072 0.59266 18.9285
-1.17767 1.09161 18.329
-1.23205 0.805525 19.8583
2.24462 -0.236307 18.7383
1.69257 -0.71241 21.8423
0.0430313 -0.586752 17.6044
-0.687028 0.430773 16.3792
-1.61636 0.181088 15.837
-1.77403 0.170113 17.4794
1.36193 0.947192 19.423
1.82559 0.893438 21.0031
1.30019 0.170627 21.7033
-0.126122 -0.358056 21.7584
-0.558163 -0.780066 21.1118
-0.720095 -0.765736 20.8069
-0.858357 -0.463113 0.837577
0 0 0
-0.0141243 0.000428644 0.0718412
0.0195389 -0.00850654 0.0259243
-0.0321977 0.0153412 0.0585569
-0.0369641 0.0377915 0.264792
-1.04457 0.324855 1.50105
-0.0047035 0.0961043 0.291334
-0.0844679 0.0499258 0.401426
0.00327357 -0.0148897 0.0384792
-0.0348806 0.0315065 -0.0389647
0.00572715 -0.0241021 0.184551
0 0 0
0.909489 -0.514299 0.885084
0.0799358 -0.00148696 0.336143
0.0332282 0.0160474 0.0630963
-0.0117325 -0.0103153 0.00910991
0.0146579 0.0178097 0.14133
0.00848304 0.0997256 0.313299
0.93127 0.318619 1.30571
0.0882047 0.0514286 0.420554
0.0297281 0.0213222 -0.0261251
-0.00221102 -0.013742 0.0321825
-0.00581896 -0.0209073 0.163963
0 0 0
0.000686153 0.000117228 0.0123549
0 0 0
0 0 0
-0.00451446 0.00667639 0.128512
0.000407676 -2.59109e-06 0.00590957
-0.0323542 -0.023721 0.308991
0 0 0
-0.0431829 -0.0490174 0.142256
0.0001477 -0.00063096 0.0324775
0.000634547 0.00875126 0.0780382
-0.0198253 0.015995 0.0417847
0.00952871 0.0121489 0.0527725
0.00125265 0.0124864 0.025901
0.0320794 0.0564345 0.226034
0.0830512 -0.0220756 0.456122
0.00104229 0.001032 0.0370059
0 0 0
-0.000384942 6.75031e-05 0.00656535
0 0 0
0.00195714 0.00477833 0.105288
0 0 0
-0.000557224 4.86567e-06 0.00920598
0.0207902 -0.00830233 0.173551
0.0452777 -0.050877 0.146292
0.0207472 0.0178656 0.0458239
-4.7927e-05 -0.000988087 0.0194547
-0.00198799 0.013735 0.10198
-0.0172334 0.0227323 0.0879462
-0.0433994 -0.0116698 0.181556
-0.00151453 0.0159593 0.0342414
-0.0189766 0.036044 0.135374
0 0 0
-0.689955 -0.817691 1.03446
0 0 0
0 0 0
0.00397411 0.00424264 0.103505
0 0 0
0 0 0
-0.112237 0.00574858 -0.0187207
6.82819e-08 1.51836e-05 9.65136e-05
-0.00190113 -0.0126065 -0.00389167
0.00572757 0.0182821 0.132253
-0.00188005 0.00603724 0.0805041
0.00983261 0.0895912 0.0446305
0.00014185 0.00272089 0.0149113
0.00322623 -0.00503897 0.0695634
0 0 0
0 0 0
0 0 0
0.00423371 -0.0303153 0.0602667
-0.00151438 -0.00111698 0.00267121
0.708209 -0.913326 1.1527
0.0411206 -0.0136744 0.227061
0 0 0
-0.00364426 0.00434845 0.0874961
0.115278 0.00832442 -0.0209936
0 0 0
0.000811092 0.00489014 0.0664609
-0.00342523 0.0172355 0.101802
8.94144e-18 3.78764e-18 2.73485e-17
-0.00369766 -0.00552549 0.0717664
0.00153506 -0.00108792 0.00260926
-0.0108846 -0.0105451 0.09088
0 0 0
0 0 0
0 0 0
0 0 0
0 0 0
-4.54869e-07 -7.50387e-09 1.82284e-05
0 0 0
-0.00689144 0.0104575 0.123359
-4.19123e-07 -4.88484e-08 2.74642e-05
0 0 0
0.000543126 0.00771288 0.0366518
-0.0068885 0.016214 0.188768
-0.00232186 0.0222847 0.152091
-0.00017478 0.0923974 0.255872
-0.000114262 0.000201649 0.0287067
0.000175077 -0.00130855 0.00604175
0 0 0
0 0 0
0 0 0
0 0 0
0.000849542 0.00697108 0.0323412
0.0067468 0.0121658 0.13025
0.0254886 0.0438853 0.511108
-0.000691741 0.0109983 0.0464317
0 0 0
0 0 0
0 0 0
0 0 0
0 0 0
7.1127e-05 0.00115762 0.00803234
-0.00411811 0.0725553 1.43087
0.000901401 0.0123103 0.0393251
0.00143996 -0.00532359 0.194763
0 0 0