# vtk DataFile Version 2.0
tri_press
ASCII
DATASET UNSTRUCTURED_GRID
POINTS 3682 float
-0.706848 0.125 -2.205
-0.665 0.325 2.34914
-0.737575 0.645 -2.125
-0.706699 0.855 2.205
0.685073 0.125 -2.225
0.665 0.325 2.3491
0.737569 0.645 -2.125
0.70666 0.855 2.205
-0.738711 0.145855 -0.686953
-0.754183 0.183099 0.831093
-0.847498 0.835215 -0.681667
-0.829334 0.897343 0.761667
0.72402 0.146028 -0.7003
0.72563 0.204394 0.8244
0.847563 0.835297 -0.681667
0.829291 0.897328 0.761667
-1.49155 -0.268397 -3.38773
-1.48811 -0.198909 -2.20234
-1.51107 -0.169078 -0.681887
-1.5071 -0.131414 0.853431
-1.44413 -0.0298692 2.37516
-1.42524 0.0300641 3.56676
-1.4295 0.0724176 4.74711
-1.48604 0.03257 -3.37125
-1.48874 0.120583 -2.19463
-1.52574 0.16371 -0.689623
-1.51294 0.189767 0.82169
-1.41941 0.276806 2.32823
-1.40682 0.333897 3.5191
-1.41891 0.377479 4.70228
-1.49623 0.609917 -3.31984
-1.52415 0.698008 -2.14296
-1.60306 0.835781 -0.689417
-1.57545 0.876518 0.758692
-1.46018 0.866729 2.21414
-1.42919 0.922026 3.40849
-1.43014 0.980629 4.60425
-1.50388 1.56908 -3.2984
-1.52387 1.66546 -2.13145
-1.5623 1.79553 -0.702941
-1.57422 1.86454 0.709425
-1.54402 1.87723 2.13961
-1.51018 1.8974 3.31006
-1.48605 1.93775 4.49696
-0.74072 -0.267421 -3.39725
-0.728413 -0.196028 -2.21414
-0.746991 -0.177453 -0.684624
-0.761903 -0.132206 0.860832
-0.716086 -0.00328272 2.39072
-0.696836 0.0483038 3.57696
-0.697222 0.0821338 4.75235
-0.731006 0.0280449 -3.37645
-0.674873 0.351289 3.52739
-0.685695 0.385558 4.70599
-0.732537 0.587163 -3.31288
-0.690607 0.92096 3.40585
-0.692136 0.981279 4.60268
-0.728294 1.55636 -3.29135
-0.73857 1.65484 -2.12318
-0.773574 1.79675 -0.698448
-0.799132 1.87 0.707187
-0.787657 1.87628 2.13291
-0.760078 1.89415 3.30336
-0.73775 1.93543 4.49163
0.719467 -0.266707 -3.41017
0.70767 -0.195512 -2.23018
0.725715 -0.174668 -0.696646
0.711535 -0.117789 0.854163
0.677278 0.00227108 2.38843
0.715199 0.052637 3.57478
0.743881 0.0868252 4.74963
0.722818 0.0284658 -3.38889
0.723873 0.354169 3.52597
0.751919 0.389688 4.70366
0.753805 0.587505 -3.31903
0.739135 0.923143 3.40472
0.759628 0.984823 4.60061
0.812359 1.55738 -3.29606
0.823213 1.65584 -2.12686
0.816507 1.79811 -0.701368
0.776412 1.87207 0.704776
0.740355 1.87898 2.13075
0.742344 1.89732 3.30105
0.75588 1.93903 4.489
1.46304 -0.266497 -3.41073
1.45623 -0.197042 -2.22792
1.48099 -0.162628 -0.702218
1.46587 -0.111164 0.841018
1.41958 -0.0159103 2.36874
1.43971 0.0403852 3.56135
1.47022 0.0822926 4.74119
1.46741 0.033878 -3.39312
1.45896 0.121467 -2.21987
1.5033 0.167526 -0.708936
1.48951 0.21079 0.810522
1.41938 0.288746 2.32343
1.44388 0.342492 3.51483
1.4764 0.38647 4.69705
1.50734 0.611002 -3.33361
1.51973 0.698634 -2.15389
1.59975 0.837249 -0.697867
1.57262 0.884033 0.753286
1.46492 0.87447 2.21085
1.46774 0.928834 3.40496
1.49007 0.988448 4.59956
1.57834 1.57137 -3.30839
1.59432 1.66779 -2.13975
1.5985 1.7987 -0.709712
1.5602 1.86931 0.703826
1.51152 1.88329 2.13466
1.5 1.90419 3.30499
1.50615 1.94518 4.4914
-0.763965 0.385 -2.20675
-0.0108875 0.154011 -2.18599
-0.733882 0.124325 -1.44598
-0.717103 0.59 2.30832
0 0.26907 2.40505
-0.745343 0.218299 1.59012
-3.01003e-06 0.7677 -2.2477
-0.831334 0.778905 -1.40333
-1.95205e-05 0.966194 2.31619
-0.800025 0.90818 1.48333
0.755285 0.385 -2.21896
0.715822 0.124238 -1.46265
0.717215 0.59 2.30844
0.739254 0.220758 1.58675
0.831307 0.77889 -1.40333
0.80018 0.908369 1.48333
-0.755958 0.154966 0.07207
-0.87231 0.490535 -0.68431
-0.00734517 0.155418 -0.693627
-0.864371 0.540221 0.79638
-0.0142765 0.144443 0.827747
-0.844343 0.872206 0.04
3.21424e-05 1.13829 -0.681667
-2.14401e-05 1.36479 0.761667
0.7423 0.157737 0.0620501
0.872224 0.490662 -0.690983
0.864626 0.550861 0.793034
0.844308 0.872193 0.04
-0.889375 0.437767 -1.42466
0.889238 0.437831 -1.43299
-0.00911634 0.123585 -1.45431
1.45662e-05 0.902757 -1.40333
-0.00544526 0.385 -2.44892
-0.875466 0.515378 0.056035
0.875998 0.520762 0.051025
-0.0108109 0.150689 0.0670601
5.35112e-06 1.36434 0.04
-0.886365 0.565111 1.53673
0.886307 0.570431 1.53504
-0.00713827 0.15079 1.58843
-2.04803e-05 1.17299 1.48333
-9.76026e-06 0.59 2.40979
-0.738154 0.255 -2.20862
-0.358868 0.121449 -2.21355
-0.726401 0.118626 -1.82549
-0.704174 0.4575 2.34185
-0.3325 0.291327 2.3828
-0.740902 0.235919 1.96963
-0.76675 0.515 -2.18186
-0.368789 0.73339 -2.21339
-0.825781 0.753279 -1.76417
-0.721469 0.7225 2.26623
-0.353359 0.945051 2.29505
-0.768696 0.896924 1.84417
0.337093 0.121478 -2.22352
0.720635 0.255 -2.22244
0.706591 0.118476 -1.84382
0.3325 0.291599 2.38251
0.70412 0.4575 2.34178
0.73726 0.237746 1.96793
0.368783 0.733385 -2.21338
0.762158 0.515 -2.18771
0.825784 0.753291 -1.76417
0.35332 0.944286 2.29429
0.721329 0.7225 2.26611
0.768669 0.896933 1.84417
-0.733996 0.13739 -1.06647
-0.744011 0.153733 -0.307442
-0.870022 0.285939 -0.685632
-0.373219 0.150255 -0.69029
-0.744161 0.206301 1.21061
-0.761513 0.16259 0.451582
-0.869902 0.331348 0.813737
-0.386942 0.158346 0.82942
-0.843458 0.811102 -1.0425
-0.873026 0.669436 -0.682988
-0.846786 0.854576 -0.320833
-0.481929 1.10314 -0.681667
-0.816873 0.904955 1.1225
-0.866405 0.728558 0.779023
-0.837888 0.885824 0.400833
-0.516428 1.33457 0.761667
0.717566 0.137489 -1.08148
0.358865 0.149669 -0.696963
0.731209 0.153833 -0.319125
0.871179 0.281817 -0.695642
0.73506 0.209959 1.20558
0.365406 0.15496 0.826074
0.752124 0.162907 0.443225
0.867523 0.34143 0.808717
0.84342 0.811078 -1.0425
0.481918 1.10303 -0.681667
0.873005 0.669535 -0.686325
0.846774 0.854584 -0.320833
0.816894 0.905007 1.1225
0.516388 1.33456 0.761667
0.866273 0.733752 0.77735
0.837864 0.885825 0.400833
-0.88058 0.411384 -1.8157
-0.384705 0.385 -2.39863
-0.0100019 0.123699 -1.82015
-0.00816638 0.269505 -2.4013
-0.881153 0.281046 -1.43532
-0.371499 0.125773 -1.45015
-0.819976 0.577555 1.92252
-0.358556 0.59 2.39847
-0.00356913 0.212948 1.99674
-4.88013e-06 0.429535 2.45517
-0.883389 0.391705 1.56342
-0.37624 0.176842 1.58928
5.77807e-06 0.847761 -1.82552
-0.00272413 0.57635 -2.36265
-0.895718 0.608336 -1.41399
-0.41566 0.883587 -1.40333
-2.00004e-05 1.01086 1.89976
-1.46404e-05 0.778097 2.31891
-0.86589 0.736645 1.51003
-0.400023 1.14815 1.48333
0.880472 0.411416 -1.82598
0.37492 0.385 -2.40083
0.880888 0.281035 -1.44782
0.353353 0.124683 -1.45848
0.819958 0.580215 1.92174
0.358603 0.59 2.39576
0.883375 0.395594 1.5609
0.366058 0.166548 1.58759
0.89574 0.608361 -1.41816
0.415661 0.883579 -1.40333
0.864934 0.7394 1.50919
0.40008 1.14816 1.48333
-0.876076 0.30499 0.0640525
-0.381586 0.156424 0.069565
-0.871714 0.464151 -1.05448
-0.873948 0.502957 -0.314138
-0.00823075 0.149027 -1.07397
-0.00907801 0.152784 -0.313283
-0.870598 0.5278 0.426208
-0.887011 0.552666 1.16655
-0.0125437 0.151176 0.447403
-0.0107074 0.149126 1.20809
-0.876401 0.70204 0.0480175
-0.532481 1.3389 0.04
2.33543e-05 0.9481 -1.0425
1.87467e-05 1.30628 -0.320833
-8.04451e-06 1.37724 0.400833
-2.09602e-05 1.31217 1.1225
0.875817 0.305915 0.0565376
0.365344 0.155014 0.0645551
0.87173 0.464247 -1.06199
0.874162 0.505712 -0.319979
0.871551 0.535811 0.422029
0.886911 0.560646 1.16404
0.876259 0.704531 0.0455125
0.532463 1.33888 0.04
-0.876289 0.268023 -1.8206
-0.862698 0.29962 -1.06047
-0.873491 0.635606 -1.04849
-0.89141 0.561668 -1.78994
0.876455 0.268017 -1.8349
0.89135 0.56168 -1.79507
0.873536 0.63567 -1.05224
0.863013 0.29969 -1.07173
-0.365183 0.122468 -1.82282
0.345223 0.121713 -1.83199
0.355845 0.143751 -1.07772
-0.372264 0.144248 -1.07022
-0.392224 0.832916 -1.79484
-0.419696 0.918492 -1.0425
0.419729 0.921641 -1.0425
0.392222 0.832906 -1.79484
-0.371787 0.262253 -2.35131
-0.376747 0.545675 -2.34738
0.371851 0.545675 -2.34898
0.356006 0.262253 -2.35485
-0.872728 0.295625 -0.31079
-0.87229 0.318519 0.438895
-0.87287 0.716033 0.41352
-0.873899 0.685331 -0.317486
0.872989 0.294121 -0.319552
0.873922 0.686678 -0.320406
0.872719 0.719868 0.411431
0.87118 0.323917 0.432627
-0.376909 0.154327 -0.310363
0.361485 0.153581 -0.316204
0.364496 0.156745 0.445314
-0.383345 0.159223 0.449493
-0.526941 1.26049 -0.320833
-0.531748 1.35132 0.400833
0.531733 1.35134 0.400833
0.527065 1.2607 -0.320833
-0.885823 0.376682 1.18858
-0.810719 0.424602 1.94608
-0.815116 0.729573 1.88335
-0.875548 0.727714 1.14453
0.885918 0.386611 1.18481
0.874292 0.731747 1.14327
0.814989 0.73095 1.88295
0.810882 0.426547 1.94483
-0.380235 0.157756 1.20935
0.360867 0.155747 1.20683
0.349279 0.207946 1.98233
-0.35437 0.208153 1.98318
-0.40735 1.28795 1.1225
-0.376691 1.0081 1.87197
0.3767 1.00809 1.87197
0.407357 1.28765 1.1225
-0.345528 0.443518 2.43811
0.345551 0.443518 2.43808
0.355961 0.750298 2.36743
-0.355958 0.750298 2.36743
-0.728438 0.19 -2.21275
-0.532858 0.121426 -2.21107
-0.722556 0.115882 -2.01524
-0.684803 0.39125 2.34571
-0.49875 0.292129 2.38201
-0.715674 0.267737 2.15938
-0.755039 0.58 -2.1563
-0.553182 0.688117 -2.16812
-0.794199 0.711661 -1.94458
-0.715821 0.78875 2.23735
-0.530029 0.914262 2.26426
-0.748043 0.886308 2.02458
0.511083 0.121464 -2.22604
0.711163 0.19 -2.23203
0.701916 0.115654 -2.03441
0.49875 0.292427 2.38168
0.684749 0.39125 2.34563
0.715444 0.267059 2.15851
0.553176 0.688255 -2.16825
0.752673 0.58 -2.15917
0.794085 0.711554 -1.94458
0.52999 0.914261 2.26426
0.715784 0.78875 2.23734
0.747991 0.886293 2.02458
-0.737742 0.140234 -0.876709
-0.743268 0.147887 -0.497198
-0.856392 0.189884 -0.686293
-0.554213 0.151559 -0.688622
-0.744998 0.198875 1.02085
-0.767253 0.16344 0.641338
-0.861733 0.232378 0.822415
-0.574478 0.162893 0.830257
-0.846314 0.823994 -0.862083
-0.862603 0.753496 -0.682328
-0.847202 0.844955 -0.50125
-0.712002 1.06376 -0.681667
-0.824206 0.902252 0.942083
-0.855312 0.816672 0.770345
-0.833845 0.891818 0.58125
-0.690195 1.15058 0.761667
0.722231 0.14032 -0.890888
0.539562 0.15161 -0.698632
0.729532 0.148014 -0.509713
0.854615 0.185415 -0.697971
0.734609 0.202912 1.01499
0.552383 0.165947 0.825237
0.756969 0.165559 0.633813
0.863227 0.239587 0.816559
0.846289 0.823985 -0.862083
0.711794 1.06327 -0.681667
[...]
POINT_DATA 3682
SCALARS point_scalars float 1
LOOKUP_TABLE default
-109.408
-39.1607
-36.0003
-37.4457
-114.224
-39.0616
-35.5761
-37.3294
-36.857
-38.936
-55.4562
-47.2855
-36.976
-37.5732
-55.517
-47.354
47.9732
-83.6316
-37.1333
-46.5319
-42.7071
-38.2958
-35.6752
47.9732
-109.096
-36.8651
-40.395
-41.3764
-37.1851
-35.104
58.4814
-85.0813
-47.7973
-43.2949
-40.1576
-36.3735
-34.7217
-12.2612
-56.2556
-77.6173
-56.7313
-38.1942
-36.5562
-33.6515
13.6274
-137.647
-36.9977
-41.0666
-41.1748
-35.599
-35.048
127.486
-34.7483
-34.2015
160.529
-34.2131
-33.8165
11.8998
-48.6429
-62.2192
-64.4333
-35.9342
-32.6113
-32.1362
-4.92509
-171.813
-37.585
-38.8789
-40.8349
-35.4972
-35.4972
127.097
-34.6799
-34.408
159.79
-34.384
-34.1757
8.3962
-50.3996
-62.2155
-64.5036
-35.2343
-32.8131
-31.969
1.37337
-80.4966
-39.0755
-48.5162
-42.658
-38.2102
-35.5972
53.637
-103.287
-37.1317
-39.8799
-41.3604
-37.156
-35.0346
61.0866
-85.8371
-47.8148
-43.5731
-40.0228
-36.3747
-34.6555
-20.4662
-56.2114
-77.1403
-56.9364
-38.0209
-36.4389
-33.6533
-13.932
-118.286
-51.5355
-37.1964
-34.8904
-42.0413
-92.9975
-48.5187
-32.1318
-45.8769
-10.5671
-52.0808
-37.094
-41.7107
-48.4485
-45.8626
-35.3638
-39.7665
-36.4284
-38.0554
-38.709
-51.4049
8.58115
-65.6546
-34.9443
-39.7899
-38.3892
-51.3428
-54.4366
-54.5842
-54.9717
-9.34724
207.65
-41.1965
-41.2529
-34.7776
-91.9936
-46.526
-46.4645
-44.7202
-39.7908
-25.4528
-14.5392
-133.015
-77.3287
-37.486
-36.5031
-44.6885
-17.1266
-65.144
-58.7912
-37.1437
-32.3345
-40.2398
-137.611
5.7585
-78.3736
-36.4373
-37.4323
-44.8358
-64.9101
-14.7886
-58.7524
-32.2808
-37.0451
-40.1715
-39.2621
-34.0538
-37.1756
-36.5312
-39.9179
-36.714
-35.4501
-38.9522
-41.6902
-44.8386
-54.5548
-1.95212
-48.021
-42.2647
-49.4978
-62.0765
-39.0521
-36.6023
-34.2272
-37.2436
-39.6331
-38.734
-37.1042
-35.4429
-41.5892
-1.95241
-44.8503
-54.5314
-47.5894
-62.0634
-42.4513
-49.5219
-89.6154
183.921
-76.3636
179.403
-54.0723
-53.606
-43.1362
-32.9658
-39.9682
-29.4302
-45.4618
-43.7673
-33.3327
158.172
-54.0019
-15.7051
-34.824
-25.4228
-48.405
-40.7061
-91.5498
183.869
-54.0579
-53.8419
-43.0066
-32.8121
-45.4104
-44.5666
-54.1034
-15.7549
-48.414
-40.6935
-39.1473
-34.7703
-41.402
-40.5417
-42.3691
-34.4874
-40.8856
-43.0202
-35.397
-40.5709
-45.4274
-82.5149
14.6567
-73.7047
-76.8257
-51.3066
-38.6153
-34.7192
-41.5616
-40.6159
-41.0613
-42.9869
-45.5731
-82.5089
-90.1588
-41.6343
-41.82
-90.2424
-90.2219
-90.955
-41.819
-42.1628
-75.3456
-75.9383
-41.4343
-41.3387
-36.514
6.22388
6.13974
-36.4753
180.859
133.296
137.386
181.742
-37.4308
-38.8956
-44.2098
-46.2799
-37.4847
-46.333
-44.3554
-39.0389
-34.3017
-34.3418
-35.8714
-35.9822
-73.9877
-68.2455
-68.228
-74.0676
-41.7956
-43.6947
-41.9863
-43.7123
-41.784
-43.5518
-41.878
-43.6336
-40.7633
-40.4977
-40.5922
-40.5264
-51.7709
-35.5852
-35.5545
-51.742
-34.0093
-33.9241
-31.5426
-31.723
-57.196
-137.986
-99.9805
-38.4753
-37.5706
-42.7992
-25.2406
-47.2059
-54.0228
-37.416
-33.3534
-38.8258
-140.456
-37.1384
-101.402
-37.4195
-38.3905
-42.8359
-42.5095
-23.1106
-53.782
-33.3205
-37.3116
-38.7503
-36.9213
-34.6648
-37.7426
-36.45
-42.8277
-38.22
-33.6611
-40.7339
-51.1792
-49.0402
-55.3973
-53.4524
-47.0372
-44.8207
-48.0263
-53.583
-37.2316
-36.5573
-34.8881
-37.5819
-44.4116
-38.496
-38.1092
-33.1383
-51.102
-53.8149
-49.0816
-55.3337
-47.1668
-53.5649
-44.9844
-48.0662
-15.6727
-17.7201
-102.316
125.842
-127.453
-128.578
-94.0942
68.9049
-61.096
-46.8628
-53.332
-52.4003
-37.2828
-37.502
-40.7022
-34.1721
-35.5048
-35.4572
-38.4305
-31.808
-43.4319
-39.9119
-44.2207
-42.3615
-87.1785
-87.3384
-45.9596
136
-61.7617
-40.8202
-53.8855
-25.6144
-32.0213
-32.166
-32.9467
-26.7244
-43.1084
-46.4805
-46.6295
-43.1237
-1.94237
-14.6319
-99.2941
129.972
-62.1097
-47.0166
-53.8161
-52.7928
-37.1733
-37.4025
-40.6022
-34.1006
-43.2569
-39.9062
-43.985
-42.302
-61.7375
-40.7729
-53.9423
-25.5508
-43.0672
-46.5215
-46.5736
-43.1029
-34.3173
-36.518
-36.4851
-34.9209
-38.3006
-41.8616
-39.4503
-40.1278
-36.4417
-36.4595
-38.8462
-35.0915
-35.5869
-40.1901
-39.6867
-39.1421
-38.6476
-38.7439
-36.8342
-40.6164
-53.6374
-51.5032
-48.4165
-64.4917
7.9388
7.90217
22.5364
-19.6396
-64.8138
-64.7924
-72.0045
-58.3547
-34.4452
-36.202
-36.6116
-34.7591
-38.2939
-41.865
-39.4037
-40.1978
-35.8532
-40.4055
-39.8884
-39.2584
-53.6251
-51.5277
-48.4603
-64.4747
-66.7212
-54.384
-54.2193
-48.5841
-67.4487
-54.4024
-54.369
-48.5005
-63.1694
-54.6361
-54.6332
-50.8762
-22.6356
-10.9851
-11.0185
2.3518
197.344
176.314
185.711
197.876
-39.7642
-40.8028
-41.6477
-42.9919
-39.7111
-40.8773
-41.7841
-43.0737
-34.7729
-34.3689
-34.9942
-34.7402
-90.2027
-97.1209
-83.3567
-90.1898
-49.3262
-46.1722
-47.3979
-44.1511
-49.1525
-46.1181
-47.4092
-44.1388
-44.0848
-44.4869
-44.4567
-42.0815
-36.4372
-39.9734
-39.9876
-44.3648
-28.2553
-25.9773
-25.8197
-28.0502
-102.9
98.7312
-96.4907
19.3386
-88.2315
-75.0903
-40.9571
-34.8015
-41.2953
-34.3777
-45.3311
-42.3929
-84.5524
95.5057
-47.8204
93.0294
-83.3014
-42.8644
-40.3843
-33.8812
-33.3405
-32.1473
-41.3905
-36.6092
-97.459
5.17177
-101.686
107.801
-93.6371
-75.9854
-41.4674
-34.292
-40.8912
-34.7367
-45.2982
-42.1503
-47.7232
96.8386
-82.8694
93.3834
-82.8312
-42.8223
-33.2834
-31.9813
-40.2612
-33.8057
-41.2987
-36.5716
-40.8331
-40.2844
-35.3024
-34.1351
-37.9711
-37.0398
-38.3761
-34.7624
-40.8466
-39.8897
-37.9669
-36.3375
-37.6445
-40.9795
-37.2048
-40.0395
-43.7626
-7.49645
-43.1037
-45.9284
-49.8441
-79.0068
13.5125
-30.4451
-45.9288
-53.1729
-43.0588
-42.1626
-46.7461
-57.9105
-65.3157
-58.1032
-41.086
-40.5536
-38.4674
-34.8457
-35.5805
-34.2066
-38.0797
-37.0691
-40.8865
-39.8172
-37.0627
-40.4249
-38.4219
-36.2945
-37.7058
-41.2598
-43.7562
-7.51374
13.4809
-30.4036
-42.9159
-45.9541
-49.8675
-78.9884
-45.6588
-53.1504
-65.3234
-58.0921
-43.1752
-42.3346
-46.8285
-57.9011
-90.1056
-88.8116
164.882
166.147
-76.1008
-76.0508
182.947
181.308
-65.638
-48.1391
-61.9076
-49.2775
-43.4283
-42.6653
-33.4726
-32.4503
-40.3717
-40.3209
-31.3582
-31.2504
-42.5132
-49.9074
-42.0202
-43.4578
-34.0225
-33.9756
164.245
164.596
-45.5843
-66.5138
-26.6438
-4.84772
-35.0539
-35.0341
-28.2451
-28.4445
-45.2847
-46.1712
-45.3087
-37.5403
-90.6648
-90.4287
168.16
166.368
-66.471
-47.5883
-62.4031
-49.5418
-42.5664
-43.3482
-33.3402
-32.2846
-42.3953
-49.8219
-41.871
-42.9042
-66.9112
-45.6795
-4.67296
-26.6394
-46.1682
-45.1386
-37.5221
-45.3835
-37.9604
-39.2594
-34.3301
-35.2896
-41.6481
-41.3628
-38.6902
-42.834
-42.212
-42.149
-34.4424
-34.453
-39.6374
-42.3927
-42.5608
-43.4295
-35.5188
-35.607
-40.5826
-40.5486
-45.6403
-45.8972
-91.0085
-73.6497
12.2333
12.275
-71.7837
-72.2786
-75.1881
-75.1737
-51.4364
-51.4273
-37.9208
-39.4356
-34.3254
-35.1957
-41.3777
-41.8945
-38.7588
-42.9417
-42.5599
-39.7753
-42.3835
-43.285
-45.9606
-45.7756
-73.5978
-90.9617
-86.7385
-63.9504
-66.564
-106.354
-38.2167
-38.7007
-48.4337
-47.0326
-46.3435
-44.4363
-47.8672
-40.8122
-68.7556
-96.7888
-66.1558
-67.9472
-101.722
-103.982
-66.9929
-65.5739
-67.9668
-68.111
-66.6697
-93.6893
-46.2792
-40.6883
-47.9531
-44.4099
-37.5071
-46.7756
-48.3734
-38.7124
-96.9985
-95.1207
-62.8305
-61.0138
-98.0701
-61.6611
-62.9744
-95.2708
-38.0463
-38.7976
-50.6241
-48.5117
-37.8368
-48.367
-50.3125
-38.7274
-49.6122
-36.2328
-23.4266
-47.0099
-20.7565
20.5639
0.425145
-15.4762
-20.2908
-15.3938
0.550604
20.4717
-49.3681
-47.0073
-23.4338
-36.196
9.18593
96.6712
178.673
48.5702
45.1986
98.5368
180.275
127.017
38.2829
128.267
180.699
97.01
26.5055
48.6515
178.939
104.976
-35.3386
-35.8806
-39.0999
-38.3364
-37.532
-38.3303
-40.244
-38.8198
-45.5181
-48.4868
-43.3456
-41.2442
-49.8214
-42.4431
-43.0412
-49.3297
-35.0197
-38.3927
-39.1074
-35.7987
-49.828
-49.3055
-43.1356
-42.5058
-45.5799
-41.4118
-43.4637
-48.5711
-37.5161
-38.025
-40.3776
-38.4668
-34.5177
-35.001
-34.3688
-34.2658
-34.6531
-34.2829
-34.3643
-35.0418
-37.4458
-36.763
-35.0513
-35.5232
-37.8922
-35.6542
-35.1014
-36.775
-85.2646
-70.1386
-95.2747
-21.9508
-55.327
-71.0146
-81.6442
-60.9584
-55.311
-60.939
-81.633
-71.02
-85.5925
-21.784
-95.2566
-70.1639
-45.4391
-41.2067
-43.2736
-40.146
-41.8733
-40.7512
-49.938
-49.562
-40.0298
-43.8461
-47.9348
-40.6057
-43.9177
-39.7229
-44.8593
-46.8644
-45.9957
-40.1795
-43.3424
-41.0451
-44.3973
-46.8687
-44.8459
-40.1229
-39.919
-40.4761
-47.7508
-43.7821
-41.8426
-49.4976
-49.8249
-40.6712
-39.8157
-40.4766
-42.088
-41.6867
-41.2249
-41.282
-42.0921
-40.4501
-43.3985
-38.8947
-43.9109
-43.1039
-42.518
-43.234
-43.897
-38.8646
-52.648
-47.8222
-44.6409
-58.1941
-34.5441
-32.9937
-36.7447
-39.244
-34.4682
-39.2936
-36.7344
-32.9704
-52.6149
-58.1855
-44.6346
-47.7922
-35.2787
-32.7267
-29.362
-34.5496
-35.1908
-34.4888
-29.1878
-32.6464
-33.6351
-28.7509
-27.9259
-34.0585
-33.7111
-34.1356
-28.0674
-28.9161
-92.6629
-144.21
-123.505
-38.9258
-38.4689
-41.2673
-25.1948
-31.7832
-49.7021
-37.5797
-34.8701
-38.4032
-152.896
-71.83
-130.512
-38.3017
-38.8392
-41.2685
-29.132
-23.8417
-49.4858
-34.7438
-37.4688
-38.2922
-38.2699
-34.7737
-37.8347
-36.5184
-41.595
-39.8935
-29.3933
-41.4934
-53.905
-51.6326
-54.9368
-71.4721
-47.1119
-46.1406
-47.6384
-50.4837
-38.3413
-36.6423
-34.9978
-37.7369
-42.2037
-39.0633
-40.9279
-28.741
-54.0875
-71.8099
-51.6799
-54.8685
-47.2177
-50.5029
-46.259
-47.6917
-19.6104
-20.1114
-73.5279
67.4694
-124.812
-124.008
-102.903
-18.8773
-55.6769
-48.6084
-52.8912
-51.876
-37.1497
-37.3041
-39.9649
-34.7014
-35.1884
-35.1683
-36.8856
-33.0062
-42.6442
-40.7705
-43.1595
-42.2458
-90.5872
-90.448
-60.7151
31.7853
-56.058
-43.8505
-53.588
-34.7023
-32.0852
-32.1598
-33.0069
-28.9148
-44.3166
-45.8599
-45.8596
-45.0614
-12.5997
-15.9506
-67.8816
70.9785
-56.3858
-48.8684
-53.2183
-52.2393
-37.0568
-37.2086
-39.8681
-34.6281
-42.1217
-40.5946
-42.7197
-42.0813
-56.02
-43.7701
-53.5651
-34.636
-44.3037
-45.8854
-45.8406
-45.0337
-34.4334
-36.3201
-34.0571
-35.1175
-38.9406
-40.7064
-39.6291
-39.9364
-36.3884
-36.4322
-37.9235
-35.4293
-36.7778
-39.1884
-38.9277
-37.2278
-38.5622
-38.8297
-38.3089
-40.535
-53.04
-51.6498
-49.0047
-58.2392
8.7828
8.75974
17.7198
-4.70311
-65.6163
-65.6144
-68.7209
-61.7577
-34.759
-35.2383
-34.7575
-34.8214
-38.948
-40.7184
-39.662
-39.9812
-37.0895
-39.4784
-39.1906
-37.4809
-53.0389
-51.7092
-48.9929
-58.1885
-59.6141
-54.3975
-54.3032
-51.303
-60.0024
-54.4929
-54.3974
-51.3492
-58.4921
-54.8264
-54.8862
-52.2554
-15.577
-9.77568
-9.79399
-3.77327
201.04
193.767
205.569
202.454
-40.4221
-40.9839
-41.559
-42.0178
-40.4304
-41.0342
-41.6529
-42.108
-34.7614
-34.3766
-34.9543
-34.7544
-91.6933
-95.8349
-87.4211
-91.6855
-49.0171
-46.3457
-46.9029
-45.147
-48.9209
-46.2562
-46.8577
-45.126
-45.4702
-44.5454
-44.6256
-43.1345
-38.0149
-39.8291
-39.7986
-41.8271
-26.2679
-25.4412
-25.6671
-26.1325
-23.5519
-7.4396
-79.3057
72.1565
-134.993
-130.418
-111.592
-81.8676
-90.2875
-68.2216
-86.7716
-75.634
-37.638
-37.4888
-40.0629
-35.4616
-36.2938
-36.1105
-39.3571
-35.1162
-43.1872
-43.4648
-45.6168
-43.5395
-21.8302
-16.2709
-66.6335
56.7448
-58.034
-75.6818
-54.9401
15.6331
-60.6147
-64.9043
-70.5537
-50.276
-37.0032
-37.4451
-39.9042
-34.4841
-32.7357
-32.2918
-32.3744
-32.3189
-39.4186
-41.3132
-41.0406
-37.95
-140.782
-132.217
-113.263
-123.643
-13.8839
14.1867
-76.9451
80.2728
-89.4859
-69.4919
-90.6167
-76.4245
-36.1914
-36.0527
-39.306
-35.0253
-37.5507
-37.3809
-39.9923
-35.3876
-42.9849
-43.7136
-45.4905
-43.3217
-56.885
-75.6268
-54.7945
15.0498
-20.0034
-18.8272
-65.8173
60.7904
-60.4714
-64.8866
-70.3614
-50.1979
-32.5696
-32.2088
-32.3141
-32.2158
-36.9249
-37.3467
-39.7955
-34.4019
-39.3386
-41.2558
-40.9548
-37.9042
-37.7122
-42.9383
-41.1808
-39.8462
-34.5184
-34.1843
-34.4618
-34.0602
-36.7536
-37.8344
-37.4708
-36.9378
-36.4745
-36.533
-37.5077
-35.4151
-40.329
-39.9071
-40.6456
-40.2841
-36.6897
-36.4808
-37.3545
-36.5229
-35.8566
-35.0256
-36.5685
-38.2029
-39.1182
-38.7361
-38.2549
-40.372
-47.4121
-40.6603
-44.4959
-22.4172
-46.7826
-43.2137
-44.0031
-45.3962
-54.9282
-54.2304
-51.8106
-63.9296
-15.318
5.81953
9.09442
-14.48
-47.8709
-47.1838
-47.7096
-49.9976
-43.507
-41.1947
-42.5792
-42.008
-48.6756
-50.3241
-48.1741
-53.8333
-56.9939
-64.0152
-63.7906
-61.5095
-37.8382
-42.9021
-39.2672
-39.8993
-36.566
-36.5762
-37.6298
-35.4912
-34.723
-34.2394
-34.6392
-34.162
-36.8786
-37.8503
-37.5864
-36.9254
-40.53
-39.5676
-40.3942
-40.8147
-38.3127
-38.6161
-38.029
-40.686
-37.05
-37.0833
-37.8924
-36.578
-35.6312
-35.1907
-36.6261
-38.0363
-47.2887
-40.5741
-44.3451
-22.3866
-15.5614
5.7365
9.00824
-14.4552
-46.8035
-43.2135
-44.0115
-45.4231
-54.883
-54.2081
-51.8128
-63.9294
-47.4894
-47.2605
-47.0403
-49.9659
-56.9101
-63.9933
-63.7936
-61.4917
-43.6933
-41.3904
-42.7435
-42.2364
-48.7066
-50.3399
-48.2315
-53.8307
-102.717
-76.2699
-89.2932
-88.5328
162.586
192.95
174.299
181.295
-85.4901
-68.9694
-76.1077
-76.3778
174.987
176.185
171.333
178.345
-53.6322
-54.4595
-58.696
-51.1415
-53.0479
-54.0675
-57.1927
-50.916
-41.5031
-46.171
-43.3043
-42.9455
-33.7236
-30.7273
-33.1148
-32.8028
-38.7358
-42.1146
-40.1059
-40.0948
-30.6935
-27.9944
-29.94
-29.8714
-44.9725
-45.9133
-43.6519
-49.471
-43.9888
-44.5173
-43.0361
-43.3443
-38.8537
-28.0888
-33.2856
-33.2811
139.902
167.766
161.756
161.567
-53.977
-54.1867
-50.1346
-59.5468
-20.0158
-12.617
-21.7414
-10.1329
-33.7682
-35.3114
-34.9006
-34.8901
-25.5261
-25.763
-25.8982
-26.0622
-47.6742
-48.0934
-47.571
-47.7103
-41.5685
-40.2683
-42.8069
-38.9504
-104.82
-77.3617
-90.9239
-90.8694
164.584
193.579
182.367
176.051
-53.9083
-54.3951
-59.6044
-50.489
-53.4323
-54.2446
-57.4988
-51.1005
-41.4017
-46.0212
-42.8432
-43.1998
-33.5935
-30.5564
-32.9598
-32.6471
-44.8398
-45.9141
-43.5304
-49.206
-43.8566
-44.7796
-42.9829
-43.9305
-54.1137
-54.314
-59.7148
-50.211
-19.9996
-12.6732
-10.2919
-21.7466
-47.5879
-48.1498
-47.7308
-47.447
-41.5523
-40.2741
-38.9339
-42.7909
-38.0915
-39.5401
-38.2337
-39.054
-34.8238
-34.7353
-34.5145
-35.046
-39.7613
-44.5175
-41.5062
-41.3428
-40.3366
-40.6816
-39.571
-41.4822
-40.3144
-45.9153
-42.3463
-42.3364
-34.7228
-34.3803
-34.4783
-34.4795
-40.3058
-41.4278
-40.1669
-41.6309
-42.5019
-43.4617
-42.7218
-43.2704
-35.5081
-35.1243
-35.3636
-35.4767
-40.0806
-41.266
-40.5398
-40.582
-47.0564
-44.0508
-45.59
-46.0142
-73.2491
-87.0982
-85.1298
-77.4227
21.3686
8.44795
14.297
14.2783
-44.5067
-90.7356
-73.9106
-74.084
-74.621
-79.7905
-76.5045
-76.5007
-54.5701
-47.4202
-51.374
-51.3696
-37.7152
-39.2178
-38.1541
-39.1342
-34.7396
-34.7124
-34.4587
-34.9604
-39.6995
-44.7839
-41.3975
-41.6169
-40.4289
-40.7477
-39.6367
-41.5724
-40.4849
-41.5824
-41.8031
-40.325
-42.4742
-43.4538
-42.7002
-43.1851
-47.0916
-44.136
-46.1148
-45.7077
-73.2103
-87.0763
-77.415
-85.0894
-104.302
-88.8084
-90.4667
-75.0791
-41.139
-38.6699
-45.1974
-41.6812
-42.424
-42.1381
-42.4494
-41.5126
-95.5347
-88.0668
-88.836
-76.8293
-106.656
-90.7876
-90.0649
-76.8871
-95.8178
-88.0221
-89.8322
-77.4659
-42.4905
-41.9246
-42.4919
-41.4699
-41.9833
-38.5678
-45.874
-41.9814
-85.2582
-75.331
-75.5909
-67.8338
-86.013
-76.032
-76.0635
-68.4381
-41.2341
-39.6826
-45.3127
-41.7686
-40.8446
-39.6069
-45.1052
-41.7508
-40.9837
-39.5027
-35.0951
-32.5886
1.49845
11.2459
0.388783
9.58402
1.28756
11.1953
0.600153
9.76947
-40.922
-39.463
-35.0701
-32.5702
146.894
135.293
172.279
186.525
104.336
114.478
147.021
150.093
115.078
114.024
148.617
149.235
138.752
155.484
185.171
173.61
-36.479
-37.2136
-37.6444
-38.1916
-38.2382
-38.4144
-39.2616
-39.3499
-43.6161
-45.4187
-43.2119
-45.0044
-46.2185
-47.9475
-44.3961
-46.1928
-36.556
-37.3582
-37.64
-38.2519
-46.272
-47.9884
-44.4875
-46.2514
-43.7362
-45.5485
-43.365
-45.1494
-38.4643
-38.5715
-39.4788
-39.4575
-34.2239
-34.477
-34.2752
-34.3745
-34.5305
-34.272
-34.3973
-34.282
-36.1352
-36.0569
-35.698
-35.5019
-36.1516
-36.3251
-35.6516
-35.7774
-95.1601
-50.7693
-84.6064
-65.2898
-62.9722
-66.7842
-70.72
-72.8469
-66.7749
-62.9513
-72.8266
-70.6898
-50.8975
-95.0114
-65.3284
-84.6718
-41.3292
-41.7284
-41.9302
-42.289
-41.9925
-44.3993
-43.5642
-46.776
-41.1042
-41.692
-42.3706
-43.6736
-44.7545
-42.6831
-44.9873
-43.4162
-41.312
-41.9822
-41.8437
-42.1047
-44.5518
-42.6227
-44.9632
-43.2016
-40.9969
-41.5934
-42.2568
-43.5526
-41.9117
-44.3327
-43.4836
-46.7836
-39.9775
-39.0617
-42.6469
-40.7878
-39.5506
-39.2903
-41.6742
-40.5727
-40.3086
-40.9077
-40.6821
-41.7701
-40.0796
-40.6984
-40.6582
-41.8461
-52.6323
-54.8644
-48.4329
-51.5069
-34.5
-35.9745
-35.336
-36.4785
-34.457
-35.9422
-35.31
-36.4507
-52.6017
-54.8551
-48.4134
-51.4964
-34.4852
-34.1162
-33.8337
-32.8468
-34.0361
-34.4141
-32.7346
-33.7323
-31.4282
-33.4948
-29.4865
-31.7831
-33.5989
-31.6111
-31.9597
-29.6881
-96.2306
14.0801
-114.774
-78.0539
-93.7017
-97.7856
-40.5343
-36.1573
-40.3237
-36.3675
-42.531
-41.6887
-61.3504
33.7904
-53.793
-16.6358
-60.6995
-50.3435
-39.7626
-34.4613
-33.6923
-33.5636
-39.4942
-36.0799
-118.213
-85.5074
-96.5639
10.4981
-98.728
-99.0862
-40.5399
-36.2346
-40.49
-36.0642
-42.5468
-42.1406
-53.4427
-11.8914
-60.2799
34.5394
-60.3925
-50.0712
-33.5901
-33.5597
-39.6514
-34.3553
-39.3932
-35.9972
-35.0536
-37.6175
-34.3273
-34.4847
-37.8125
-34.8904
-37.3615
-35.2049
-48.1224
-40.1756
-38.2733
-38.2582
-35.4955
-42.9095
-39.3119
-39.8121
-49.3677
-46.7005
-48.1064
-49.5043
-52.088
-66.683
-29.7952
-76.0834
-45.1608
-49.9413
-45.068
-44.8401
-46.832
-51.7605
-54.2896
-53.0907
-35.4428
-37.7516
-37.5287
-35.3209
-34.1859
-34.6235
-38.452
-35.4889
-48.7236
-41.5054
-38.9087
-40.8051
-38.709
-37.586
-35.4119
-43.8767
-49.3255
-46.0676
-29.6742
-75.3919
-48.1343
-49.5184
-52.0702
-66.6121
-45.6774
-49.9024
-54.2739
-53.0651
-45.2087
-45.0556
-46.8954
-51.7683
-76.3625
51.7416
-72.8212
71.3036
-105.347
-100.28
112.3
133.407
-108.821
-181.023
-109.208
-190.184
-95.1226
-94.813
78.2185
28.8584
-63.2217
-60.7102
-46.3258
-47.4537
-57.46
-50.5845
-56.1153
-49.7195
-39.8076
-35.0849
-40.0888
-34.643
-40.7329
-40.6697
-34.3572
-34.147
-37.391
-33.6029
-37.3825
-33.5323
-38.5454
-38.5293
-32.0538
-31.9588
-48.2037
-43.0409
-40.4181
-40.7079
-42.3755
-48.2913
-41.1183
-43.0104
-57.5352
43.9529
-57.7513
42.9859
-46.8409
-46.8458
132.419
133.567
-67.8411
-45.9491
-43.8928
-28.38
-48.3136
-60.6442
-31.055
-20.8365
-32.6153
-30.0646
-32.5081
-30.1134
-33.018
-33.0117
-27.2383
-27.3177
-43.3051
-41.2107
-46.4192
-47.6738
-45.2996
-47.1388
-45.5456
-41.0714
-73.6382
55.3037
-71.538
77.4006
-102.743
-97.086
136.188
117.607
-64.2271
-61.5419
-46.938
-47.8526
-58.5443
-49.4747
-56.5267
-49.9736
-39.7148
-35.016
-39.9969
-34.5552
-40.5602
-40.644
-34.2921
-34.0706
-48.3201
-43.031
-40.1546
-40.4219
-42.2212
-48.2599
-40.966
-43.2991
-67.8717
-45.9131
-43.8493
-28.3147
-60.7617
-48.3252
-20.7382
-31.0031
-43.2488
-41.1681
-46.4574
-47.6545
-47.1001
-45.2428
-41.0452
-45.5251
-34.9829
-34.2644
-38.8774
-35.9857
-35.8714
-38.4834
-34.4947
-35.2675
-38.4234
-38.2843
-41.3562
-42.2036
-39.027
-39.9963
-39.1573
-41.1016
-37.8666
-35.3562
-37.9198
-35.3884
-38.8442
-38.8276
-35.0749
-35.1021
-37.3523
-36.463
-40.6524
-39.5189
-38.9043
-40.4519
-39.6191
-38.9056
-38.2669
-40.501
-38.0238
-40.6793
-36.8007
-36.7469
-40.8015
-40.5027
-51.2573
-60.9128
-49.917
-56.2265
-47.1214
-50.475
-66.9945
-62.4151
16.2088
-5.12744
16.1855
-4.98307
21.9145
21.8391
-18.7205
-18.7598
-68.0424
-61.7428
-68.0402
-61.7293
-71.8391
-71.8376
-58.2926
-58.2873
-34.2334
-34.3028
-35.4184
-35.8869
-36.7763
-37.7088
-34.4691
-35.0824
-38.4972
-38.3249
-41.3744
-42.2413
-39.8571
-39.0029
-39.2061
-41.179
-37.4504
-36.4599
-40.8449
-39.7217
-40.6426
-39.0833
-39.5567
-39.3722
-51.2424
-60.9083
-49.9721
-56.2723
-50.5681
-47.1271
-62.4265
-66.9709
-66.3976
-66.4723
-59.3479
-51.1288
-51.1299
-59.4095
-48.7009
-48.2598
-67.2575
-67.0806
-60.0055
-51.0429
-59.6882
-51.1744
-48.2308
-48.601
-63.0342
-63.1921
-58.1691
-51.9108
-58.1849
-51.9273
-50.9059
-51.0573
-22.8188
-22.8238
-17.0114
-5.58856
-5.72887
-17.0301
1.97379
1.85223
188.227
195.719
176.824
177.9
183.053
183.634
197.271