# vtk DataFile Version 2.0
tet_velo
ASCII
DATASET UNSTRUCTURED_GRID
POINTS 29498 float
-0.699755 0.065 -1.665
-0.767364 0.175 1.635
-0.675 0.585 -1.59291
-0.655 0.801428 1.655
0.699602 0.065 -1.665
0.777746 0.175 1.625
0.675 0.585 -1.59233
0.645 0.795363 1.665
-0.722658 0.1013 -0.565
-0.767166 0.115995 0.535
-0.730927 0.719736 -0.510273
-0.707197 0.774816 0.572363
0.725503 0.101814 -0.568333
0.765255 0.124777 0.528333
0.730237 0.720358 -0.506553
0.704582 0.774824 0.579223
-1.4193 -0.289657 -2.56692
-1.4195 -0.232112 -1.69347
-1.44021 -0.199632 -0.593561
-1.46978 -0.188347 0.509374
-1.47521 -0.146999 1.60951
-1.47651 -0.108686 2.48413
-1.47999 -0.0710167 3.35635
-1.41734 -0.00443497 -2.53572
-1.41725 0.0638264 -1.66403
-1.44373 0.110106 -0.56701
-1.4713 0.125582 0.531383
-1.46734 0.168801 1.62874
-1.47511 0.206336 2.50357
-1.48275 0.243244 3.37646
-1.40846 0.55203 -2.46968
-1.40362 0.619016 -1.59802
-1.44148 0.724091 -0.512721
-1.42781 0.772034 0.571287
-1.39466 0.803027 1.65736
-1.44041 0.837737 2.53603
-1.47406 0.874296 3.41343
-1.412 1.45558 -2.38105
-1.41341 1.52909 -1.51142
-1.42928 1.63398 -0.430464
-1.4365 1.71249 0.647329
-1.43787 1.76029 1.72936
-1.45198 1.79253 2.60121
-1.47282 1.82622 3.4765
-0.709773 -0.289454 -2.56762
-0.701949 -0.230208 -1.69482
-0.714205 -0.202999 -0.593571
-0.741896 -0.194155 0.510709
-0.747689 -0.145803 1.61209
-0.75449 -0.108318 2.48613
-0.760338 -0.0716601 3.35767
-0.711594 -0.00817568 -2.53562
-0.766098 0.206961 2.50627
-0.769013 0.242521 3.37795
-0.703757 0.536566 -2.46736
-0.741268 0.836078 2.53755
-0.768865 0.872927 3.41466
-0.700338 1.44563 -2.37853
-0.698178 1.52003 -1.50852
-0.713787 1.63184 -0.428024
-0.726731 1.71395 0.648755
-0.733356 1.76063 1.73002
-0.747677 1.79199 2.60178
-0.766192 1.82554 3.47711
0.702746 -0.289078 -2.56753
0.71476 -0.229883 -1.69533
0.737845 -0.201575 -0.596238
0.765847 -0.188279 0.505479
0.769989 -0.143859 1.60514
0.724327 -0.107663 2.48244
0.694879 -0.0711665 3.35622
0.690606 -0.00794016 -2.53531
0.699339 0.206534 2.50342
0.676438 0.242471 3.37723
0.683957 0.536772 -2.4666
0.648823 0.833597 2.541
0.649394 0.872045 3.4163
0.713876 1.4461 -2.37705
0.720534 1.52051 -1.50662
0.714901 1.63233 -0.425213
0.69233 1.71403 0.652624
0.669112 1.7599 1.73432
0.656378 1.79119 2.60542
0.647135 1.82509 3.47982
1.41543 -0.288689 -2.56656
1.42845 -0.231057 -1.69393
1.45904 -0.196627 -0.596537
1.49327 -0.180572 0.50326
1.49607 -0.142949 1.60167
1.45758 -0.106936 2.47918
1.4249 -0.0697718 3.35415
1.40279 -0.00371222 -2.53488
1.41533 0.0644851 -1.66347
1.44828 0.112201 -0.56863
1.47932 0.133416 0.527118
1.47724 0.170972 1.62266
1.43341 0.20651 2.50042
1.40526 0.243591 3.37554
1.39419 0.552666 -2.46789
1.40127 0.619591 -1.59556
1.4406 0.725285 -0.508287
1.42687 0.773808 0.578041
1.38395 0.799949 1.66564
1.3734 0.835082 2.541
1.37023 0.873243 3.41635
1.42214 1.4566 -2.37813
1.42906 1.53013 -1.50774
1.4282 1.63504 -0.425299
1.40673 1.71293 0.654164
1.38013 1.75949 1.73684
1.36693 1.7915 2.60771
1.35966 1.82565 3.48152
-0.738415 0.325 -1.67999
-7.65026e-05 0.0719219 -1.65808
-0.716196 0.0781609 -1.115
-0.750485 0.488214 1.6843
0.005191 0.144966 1.66003
-0.757781 0.154981 1.085
0 0.634109 -1.64173
-0.743935 0.693339 -1.05159
-0.005 0.8185 1.6801
-0.689641 0.796665 1.11368
0.738364 0.325 -1.67973
0.717586 0.0783729 -1.11667
0.762981 0.485182 1.69661
0.764482 0.156907 1.07667
0.743797 0.693857 -1.04944
0.686362 0.796664 1.12211
-0.743436 0.110124 -0.015
-0.80343 0.410518 -0.537637
0.0014225 0.0669262 -0.566667
-0.802532 0.445405 0.553682
-0.000955827 0.100102 0.531667
-0.718083 0.746297 0.031045
-0.000345082 1.02314 -0.508413
-0.00130772 1.22042 0.575793
0.747589 0.111085 -0.02
0.802694 0.411086 -0.537443
0.799721 0.4498 0.553778
0.716444 0.746626 0.036335
-0.875877 0.367759 -1.0833
-0.80579 0.427962 0.00802249
-0.863328 0.46681 1.09934
0.000672997 0.0698255 -1.11583
0.000233334 0.0893959 -0.0175
0.00211759 0.126812 1.08083
-3.82513e-05 0.325 -1.82351
9.55015e-05 0.486698 1.80319
-0.000172541 0.780812 -1.05052
-0.0008264 1.2136 0.03369
-0.00315386 1.19787 1.1179
0.876132 0.368043 -1.08305
0.803678 0.430443 0.00816751
0.868116 0.467491 1.09939
-1.0585 0.0644132 -1.66451
-0.700852 -0.0826039 -1.67991
-0.705675 0.0284122 -2.10031
-1.11735 0.171901 1.63187
-0.757527 0.0145983 1.62354
-0.766731 0.19098 2.07063
-1.03931 0.602008 -1.59546
-0.689378 0.560783 -2.03013
-0.686589 1.05252 -1.55072
-1.02483 0.802228 1.65618
-0.698134 0.818753 2.09628
-0.694178 1.28103 1.69251
0.707181 -0.0824414 -1.68016
0.695104 0.0285299 -2.10016
1.05746 0.0647426 -1.66423
0.773867 0.0155703 1.61507
0.738542 0.190767 2.06421
1.12749 0.172986 1.62383
0.679478 0.560886 -2.02946
0.697767 1.05276 -1.54947
1.03813 0.602296 -1.59394
0.646911 0.81448 2.103
0.657056 1.27763 1.69966
1.01447 0.797656 1.66532
-1.08319 0.105703 -0.566005
-0.718432 -0.0508493 -0.579286
-1.11923 0.120789 0.533192
-0.754531 -0.03908 0.522855
-1.0862 0.721913 -0.511497
-0.722357 1.17579 -0.469149
-1.06751 0.773425 0.571825
-0.716964 1.24438 0.610559
0.731674 -0.0498805 -0.582286
1.08689 0.107007 -0.568482
0.765551 -0.0317514 0.516906
1.12229 0.129096 0.527726
0.722569 1.17634 -0.465883
1.08542 0.722821 -0.50742
0.698456 1.24443 0.615924
1.06573 0.774316 0.578632
-1.4194 -0.260884 -2.1302
-1.41832 -0.147046 -2.55132
-1.06454 -0.289555 -2.56727
-1.42985 -0.215872 -1.14352
-1.41838 -0.0841426 -1.67875
-1.06073 -0.23116 -1.69414
-1.45499 -0.19399 -0.0420937
-1.44197 -0.0447629 -0.580286
-1.07721 -0.201315 -0.593566
-1.4725 -0.167673 1.05944
-1.47054 -0.0313823 0.520379
-1.10584 -0.191251 0.510041
-1.47586 -0.127843 2.04682
-1.47128 0.0109009 1.61913
-1.11145 -0.146401 1.6108
-1.47825 -0.0898514 2.92024
-1.47581 0.0488251 2.49385
-1.1155 -0.108502 2.48513
-1.48137 0.0861134 3.36641
-1.12017 -0.0713384 3.35701
-1.4173 0.0296957 -2.09987
-1.4129 0.273798 -2.5027
-1.06447 -0.00630532 -2.53567
-1.43049 0.0869663 -1.11552
-1.41044 0.341421 -1.63102
-1.45752 0.117844 -0.0178133
-1.44261 0.417099 -0.539865
-1.46932 0.147192 1.08006
-1.44956 0.448808 0.551335
-1.47123 0.187569 2.06616
-1.431 0.485914 1.64305
-1.47893 0.22479 2.94002
-1.45776 0.522037 2.5198
-1.1206 0.206649 2.50492
-1.4784 0.55877 3.39494
-1.12588 0.242882 3.3772
-1.40604 0.585523 -2.03385
-1.41023 1.00381 -2.42537
-1.05611 0.544298 -2.46852
-1.42255 0.671553 -1.05537
-1.40851 1.07405 -1.55472
-1.43465 0.748062 0.0292832
-1.43538 1.17904 -0.471592
-1.41123 0.78753 1.11432
-1.43215 1.24226 0.609308
-1.41753 0.820382 2.0967
-1.41626 1.28166 1.69336
-1.45724 0.856017 2.97473
-1.44619 1.31513 2.56862
-1.09084 0.836907 2.53679
-1.47344 1.35026 3.44496
-1.12146 0.873611 3.41405
-1.4127 1.49234 -1.94624
-1.05617 1.45061 -2.37979
-1.42134 1.58154 -0.970943
-1.05579 1.52456 -1.50997
-1.43289 1.67323 0.108433
-1.07153 1.63291 -0.429244
-1.43718 1.73639 1.18834
-1.08161 1.71322 0.648042
-1.44492 1.77641 2.16528
-1.08561 1.76046 1.72969
-1.4624 1.80938 3.03885
-1.09983 1.79226 2.60149
-1.11951 1.82588 3.4768
-0.705861 -0.259831 -2.13122
-0.710683 -0.148815 -2.55162
-0.00351317 -0.289266 -2.56757
-0.708077 -0.216603 -1.14419
0.00640562 -0.230045 -1.69507
-0.72805 -0.198577 -0.0414311
0.0118201 -0.202287 -0.594905
-0.744792 -0.169979 1.0614
0.0119756 -0.191217 0.508094
-0.75109 -0.127061 2.04911
0.0111498 -0.144831 1.60861
-0.757414 -0.089989 2.9219
-0.760294 0.0493215 2.4962
-0.0150815 -0.107991 2.48428
-0.764675 0.0854305 3.36781
-0.0327294 -0.0714133 3.35695
-0.707676 0.264195 -2.50149
-0.010494 -0.00805792 -2.53547
-0.767556 0.224741 2.94211
-0.753683 0.521519 2.52191
-0.0333797 0.206747 2.50484
-0.768939 0.557724 3.39631
-0.0462878 0.242496 3.37759
-0.702047 0.991097 -2.42294
-0.00990007 0.536669 -2.46698
-0.755067 0.854502 2.97611
-0.744473 1.31403 2.56966
-0.0462228 0.834837 2.53928
-0.767528 1.34923 3.44589
-0.0597352 0.872486 3.41548
-0.699258 1.48283 -1.94352
0.00676919 1.44587 -2.37779
-0.705982 1.57594 -0.968272
0.0111781 1.52027 -1.50757
-0.720259 1.6729 0.110366
0.000557217 1.63209 -0.426619
-0.730044 1.73729 1.18939
-0.0172005 1.71399 0.65069
-0.740516 1.77631 2.1659
-0.032122 1.76026 1.73217
-0.756934 1.80876 3.03944
-0.0456495 1.79159 2.6036
-0.0595283 1.82531 3.47847
0.708753 -0.25948 -2.13143
0.696676 -0.148509 -2.55142
1.05909 -0.288883 -2.56704
0.726303 -0.215729 -1.14578
1.07161 -0.23047 -1.69463
0.751846 -0.194927 -0.0453796
1.09844 -0.199101 -0.596388
0.767918 -0.166069 1.05531
1.12956 -0.184426 0.50437
0.747158 -0.125761 2.04379
1.13303 -0.143404 1.60341
0.709603 -0.0894149 2.91933
0.711833 0.0494351 2.49293
1.09095 -0.1073 2.48081
0.685658 0.0856522 3.36673
1.05989 -0.0704691 3.35519
0.687282 0.264416 -2.50096
1.0467 -0.00582619 -2.5351
0.687888 0.224502 2.94032
0.674081 0.520065 2.52221
1.06637 0.206522 2.50192
0.662916 0.557258 3.39676
1.04085 0.243031 3.37638
0.698916 0.991437 -2.42183
1.03907 0.544719 -2.46725
0.649109 0.852821 2.97865
0.6526 1.31239 2.57321
1.01111 0.834339 2.541
0.648265 1.34856 3.44806
1.00981 0.872644 3.41633
0.717205 1.48331 -1.94183
1.06801 1.45135 -2.37759
0.717718 1.57642 -0.965916
1.0748 1.52532 -1.50718
0.703616 1.67318 0.113705
1.07155 1.63368 -0.425256
0.680721 1.73696 1.19347
1.04953 1.71348 0.653394
0.662745 1.77555 2.16987
1.02462 1.7597 1.73558
0.651757 1.80814 3.04262
1.01165 1.79135 2.60657
1.0034 1.82537 3.48067
1.42194 -0.259873 -2.13025
1.40911 -0.1462 -2.55072
1.44374 -0.213842 -1.14524
1.42189 -0.0832859 -1.6787
1.47616 -0.188599 -0.0466383
1.45366 -0.0422133 -0.582584
1.49467 -0.16176 1.05247
1.4863 -0.023578 0.515189
1.47682 -0.124942 2.04042
1.48665 0.0140115 1.61217
1.44124 -0.0883537 2.91666
1.44549 0.049787 2.4898
1.41508 0.0869096 3.36484
1.40906 0.0303864 -2.09917
1.39849 0.274477 -2.50139
1.4318 0.0883428 -1.11605
1.4083 0.342038 -1.62951
1.4638 0.122808 -0.0207561
1.44444 0.418743 -0.538459
1.47828 0.152194 1.07489
1.4531 0.453612 0.552579
1.45532 0.188741 2.06154
1.4306 0.48546 1.64415
1.41934 0.22505 2.93798
1.4034 0.520796 2.52071
1.38775 0.558417 3.39595
1.39773 0.586129 -2.03172
1.40817 1.00463 -2.42301
[...]
POINT_DATA 29498
VECTORS point_vectors float
-0.724407 -1.41052 2.14099
0.390702 0.471042 2.47375
-2.43291 1.42283 3.9375
-0.225809 -0.271635 0.237775
0.737774 -1.44021 2.17901
-0.243498 0.340427 1.74604
2.43121 1.42244 3.92274
0.160122 -0.212363 0.228237
-0.00185361 0.00219369 0.0551734
0.0939308 -0.0232873 1.46177
0 0 0
0 0 0
0.00612766 0.00394876 0.124665
-0.0316472 -0.00346501 0.491765
0 0 0
0 0 0
-0.721823 -0.389663 19.8303
-1.34005 -0.844717 20.5237
-0.401415 -0.462782 21.3946
0.118922 -0.205734 21.3896
0.551058 -0.0163165 21.4229
0.866675 0.0876701 21.1778
1.00425 0.0746031 20.9127
-0.910893 -0.328377 19.6796
-1.89307 -0.756827 20.4626
-0.546939 -0.573449 21.4584
0.0509911 -0.391589 21.4381
0.603517 -0.252218 21.5003
0.972405 -0.196206 21.2077
1.08096 -0.172554 21.0664
-1.10403 0.0920921 19.5456
-2.27347 0.180322 20.385
-1.20602 -0.447714 21.4259
-0.437354 -0.493491 21.539
0.203701 -0.621693 21.5237
0.623436 -0.670154 21.3325
0.833047 -0.655976 20.9187
-0.718449 0.494198 19.8488
-1.0467 0.723286 20.347
-0.972894 0.454947 21.0638
-0.477224 0.0620347 21.3435
-0.110897 -0.214102 21.2617
0.103234 -0.384334 21.1078
0.171395 -0.408908 20.8799
-0.738319 -0.915407 19.189
-1.7581 -3.65865 20.9378
-0.344855 -0.0308839 21.4475
0.217162 0.290585 20.133
0.740921 0.876346 19.5454
1.20953 1.39761 19.4358
1.59927 1.28278 18.7451
-1.02247 -0.7788 18.6659
1.75387 0.91994 11.3522
2.48167 1.21212 14.4296
-1.33492 0.284232 18.04
0.273816 -0.839776 7.06734
1.3915 -1.24409 11.5127
-0.658636 0.986716 19.3709
-1.16716 1.86321 19.9949
-1.4947 1.76519 21.1942
-0.626336 0.484942 21.7199
-0.227085 -0.0919528 21.4411
-0.0285692 -0.448732 21.3023
0.0990068 -0.639033 20.8439
0.738801 -0.904096 19.2032
1.79326 -3.59233 20.9135
0.325609 -0.0231375 21.4272
-0.216777 0.304477 20.0857
-0.760572 0.950713 19.7397
-1.16218 1.57009 19.3383
-1.45238 1.55523 18.5005
1.0068 -0.804173 18.6215
-1.5813 1.27177 10.1037
-2.31013 1.54617 13.8193
1.30127 0.285229 17.992
-0.216331 -0.805545 4.77457
-1.37563 -1.24439 9.18462
0.668436 0.981058 19.3805
1.19774 1.82777 20.0148
1.50328 1.75192 21.2054
0.642351 0.500252 21.7586
0.256477 -0.144271 21.4872
0.0793277 -0.538203 21.3534
-0.030016 -0.71493 20.8015
0.725893 -0.391916 19.8377
1.33309 -0.84548 20.5299
0.405332 -0.450143 21.3924
-0.105354 -0.197699 21.3985
-0.558993 0.000632044 21.4361
-0.925348 0.146029 21.1806
-1.06588 0.16597 20.8365
0.931711 -0.338254 19.6671
1.89986 -0.764089 20.4683
0.549248 -0.566454 21.4679
-0.0487736 -0.380857 21.4436
-0.631513 -0.22553 21.526
-1.10712 -0.165076 21.2338
-1.1634 -0.196817 21.2249
1.12674 0.0926056 19.5253
2.29139 0.176038 20.3953
1.20203 -0.45429 21.4393
0.42528 -0.499452 21.5614
-0.290143 -0.651997 21.5818
-0.766904 -0.799807 21.4116
-0.967072 -0.746555 21.0317
0.716387 0.486648 19.8589
1.03868 0.703434 20.3629
0.975611 0.448641 21.076
0.483537 0.0554619 21.373
0.102146 -0.256836 21.2947
-0.114556 -0.437265 21.1224
-0.204776 -0.458152 20.8074
-0.907463 -0.0710765 0.957904
0.00137267 -0.0158434 0.128035
-0.0029024 0.00118672 0.0318471
-0.017169 -0.0409936 0.042721
0.0218365 0.0657434 0.235962
0.0461423 0.00251364 0.530059
-0.00295582 0.161021 0.340388
-0.197016 -0.116701 0.516082
0 0 0
0 0 0
0.909499 -0.0716461 0.959784
0.00356718 0.0014126 0.0388736
0.0159147 -0.0763458 0.0928196
-0.0294626 0.00473427 0.504386
0.21425 -0.14568 0.527891
0 0 0
0.0123537 0.00512222 0.513279
7.39625e-05 0.000271371 0.0022334
-0.00154485 0.000967255 0.0989267
0.00197232 0.0308918 0.127896
0.000111706 0.00115195 0.030722
0 0 0
1.48802e-06 0.000350992 0.000682645
1.8267e-06 -3.14652e-07 8.12119e-05
-0.0142543 0.0177617 0.813046
-0.000135511 0.000475394 0.00385935
-0.00278423 0.0370721 0.149564
0 0 0
0 0 0
0.00132754 0.0266219 0.0932788
-0.00108091 -0.000249706 0.0156325
-1.24479e-05 -0.000194164 0.0122446
9.93099e-05 0.00011661 0.00846016
0 0 0
0.00587864 -0.127372 0.0885747
0.0110512 -0.0263806 0.0055678
-0.000133548 9.08663e-05 0.00152736
-0.000223689 0.00383833 0.052703
0.000354985 -0.000802442 0.00633497
0 0 0
-0.00132057 0.025505 0.0900586
0.00547656 -0.000515579 0.0655559
-3.67665 -2.18044 20.304
-2.67529 -5.5332 21.2316
-2.47031 -2.29741 17.485
1.09664 -0.0771164 20.0557
0.798024 0.848316 14.1944
1.05675 0.669035 8.40543
-4.783 1.07966 19.9176
-3.53705 1.60392 16.0399
-2.5605 3.2064 19.6826
0.336726 -0.677966 18.3905
-0.744277 -0.699948 3.21138
-0.0521513 -0.066878 17.1663
2.70515 -5.5019 21.1982
2.47022 -2.35657 17.424
3.6956 -2.18521 20.3111
-0.891985 0.921414 14.7916
-0.974469 0.945932 7.73542
-1.13596 -0.0286922 20.291
3.54997 1.64095 15.9455
2.58058 3.1385 19.7058
4.7922 1.06735 19.9439
0.786116 -0.792429 2.66656
-0.0191109 -0.189711 16.1937
-0.500626 -0.697325 18.3087
0.105398 -0.691606 20.5808
-0.393408 0.483943 13.8376
0.417383 -0.378695 20.1737
0.463745 0.210726 14.0874
-1.97876 -1.21748 21.4012
-4.1113 2.04257 21.487
-0.627962 -0.828541 19.7672
-0.849105 0.330248 19.241
0.392995 0.508181 14.0725
-0.0893665 -0.676438 20.6163
-0.425604 0.255903 14.0417
-0.417265 -0.377512 20.1729
4.10836 2.01965 21.5139
1.98556 -1.23393 21.3595
0.787153 0.334139 18.7489
0.618546 -0.848904 19.8492
-1.06804 -0.622637 20.0168
-0.811676 -0.381178 19.7645
-0.771226 -0.614841 19.5372
-0.961369 -0.74215 21.2385
-1.59725 -0.83874 20.5035
-1.79957 -1.82393 20.5592
-0.0850375 -0.291927 21.3939
-0.460972 -0.519185 21.4353
-0.187446 -0.41854 21.7504
0.309806 -0.130756 21.4352
0.0867397 -0.297744 21.4124
0.30579 -0.10403 21.4815
0.728142 0.0420427 21.3286
0.575118 -0.133419 21.4676
0.840878 0.241372 21.4211
0.992318 0.118402 21.0837
0.917901 -0.0240422 21.1475
1.30848 0.5284 21.0119
1.0637 -0.0851967 21.0533
1.51819 0.614502 20.5786
-1.44193 -0.543467 19.8328
-1.03273 -0.161927 19.5865
-1.04341 -0.530051 19.2556
-1.33453 -0.738184 21.3873
-2.29838 -0.377724 20.4236
-0.171581 -0.471439 21.4318
-0.81633 -0.644055 21.4758
0.267086 -0.341966 21.5048
-0.139931 -0.546034 21.5221
0.82313 -0.203624 21.4035
0.495458 -0.515137 21.5612
1.17722 -0.170292 21.09
0.89891 -0.53566 21.2849
1.68836 0.0715819 19.9683
0.989425 -0.595727 21.3316
1.69416 0.161505 19.7261
-1.76094 0.163726 19.701
-0.964252 0.377124 19.6678
-1.33689 0.15137 18.9406
-1.81666 -0.152423 21.2466
-1.67925 0.659617 20.3253
-0.797838 -0.5213 21.5336
-1.32401 0.132711 21.2392
-0.153645 -0.505388 21.5732
-0.583046 -0.17227 21.4727
0.40861 -0.668796 21.406
-0.0665451 -0.40242 21.3985
0.76895 -0.733755 21.1901
0.253015 -0.558512 21.2266
0.764612 -0.959837 20.0367
0.397652 -0.59355 20.9046
0.986882 -0.997247 19.9881
-0.923266 0.650296 20.0416
-0.762304 0.722654 19.6457
-1.09936 0.634703 20.7323
-1.22697 1.21005 20.1975
-0.736952 0.246753 21.2689
-1.31437 0.929729 21.1396
-0.266892 -0.0893818 21.3219
-0.589736 0.223033 21.5043
-0.00645324 -0.302378 21.2068
-0.170768 -0.190391 21.3687
0.219317 -0.441765 21.0435
0.0557029 -0.453458 21.1638
0.228686 -0.610063 21.0065
-1.35762 -2.02511 19.0854
-0.86893 -0.87067 18.9185
0.00343644 -1.26439 18.7622
-0.769739 -1.31158 22.8097
0.0246028 -4.67506 21.134
-0.0600577 0.20491 20.4952
0.0225075 -0.563943 19.2337
0.530294 0.509042 19.697
0.0244548 0.0539549 16.5493
0.998644 1.17326 19.3651
0.0890762 0.598161 15.0253
1.51958 1.58946 19.1725
1.48961 1.37369 15.7804
0.154561 1.25109 15.1085
2.04076 1.28753 16.7373
0.118513 1.91313 15.4984
-1.25066 -0.376196 18.1266
-0.0229589 -1.15941 17.8937
2.25348 1.17168 13.1613
1.10152 -0.483714 6.43596
0.145597 0.266941 2.10815
2.26059 -0.109167 12.0394
0.188962 2.25317 6.37452
-1.02753 0.966453 18.6983
-0.0202099 0.507867 16.8311
0.812 -1.10647 9.48217
0.122317 -0.7025 19.3051
-0.498644 1.15697 -5.128
0.415705 -1.13858 19.8792
-0.0292017 0.894326 -4.48103
-0.940245 1.54038 19.5402
0.0129463 1.37602 19.0652
-1.38903 1.8906 20.5239
0.0374783 2.60702 19.7123
-1.07645 1.09051 21.7488
0.011932 3.34524 21.0955
-0.361593 0.121223 21.5741
-0.00642409 0.987691 22.0433
-0.137039 -0.262356 21.388
0.0186241 0.173961 21.5103
0.0890632 -0.612596 21.1799
0.0473634 -0.2961 21.6026
0.0847002 -0.585567 20.9289
1.37385 -2.01473 19.0817
0.861191 -0.870808 18.9026
0.773063 -0.607793 19.5439
0.783505 -1.30952 22.7549
1.80477 -1.78536 20.5504
0.0431988 0.219812 20.5852
0.203236 -0.425172 21.7416
-0.520441 0.487946 19.7733
-0.290831 -0.116094 21.5043
-0.971534 1.31804 19.4116
-0.841114 0.254809 21.5311
-1.37484 1.72778 18.9379
-1.3531 1.63278 14.8136
-1.34654 0.66569 20.9879
-1.89235 1.61715 16.516
-1.5616 0.726058 20.5573
1.23154 -0.38046 18.0899
1.05628 -0.545458 19.2229
-2.08382 1.50312 12.2078
-1.19815 -0.137443 5.20041
-1.90414 0.270596 19.4129
-2.45525 0.308836 10.3044
-1.90116 0.481556 18.6519
1.03068 0.969856 18.6951
1.35765 0.165292 18.9026
-0.897249 -1.11315 7.045
-0.0836685 -0.92138 17.7272
-0.996701 -0.971532 19.0389
-0.329433 -1.22914 18.779
-1.24236 -1.11097 17.9687
0.958497 1.52254 19.5558
0.767746 0.711788 19.6602
1.40823 1.85792 20.5416
1.22523 1.17705 20.2144
1.08947 1.10582 21.7749
1.31821 0.920659 21.1528
0.381036 0.098937 21.6238
0.603706 0.223103 21.5417
0.190386 -0.345075 21.4688
0.177789 -0.240989 21.403
-0.0465413 -0.70754 21.037
-0.0490206 -0.556389 21.1956
-0.204082 -0.681495 21.0474
1.06843 -0.622757 20.0367
0.821397 -0.394735 19.7647
0.959606 -0.721102 21.2332
1.59867 -0.846393 20.5082
0.0967883 -0.285049 21.3935
0.47199 -0.510338 21.4341
-0.309528 -0.113546 21.4424
-0.079878 -0.291295 21.4167
-0.764255 0.0837771 21.3342
-0.588622 -0.108306 21.4862
-1.04253 0.184666 21.0612
-1.01251 0.0412975 21.1645
-1.13618 -0.0457867 21.0771
1.46946 -0.558544 19.8264
1.04566 -0.162614 19.5744
1.33613 -0.732233 21.3928
2.31083 -0.373545 20.4324
0.176175 -0.462763 21.438
0.819622 -0.640859 21.4845
-0.262356 -0.327169 21.5219
0.139922 -0.542504 21.5443
-0.906224 -0.165452 21.4198
-0.563026 -0.497215 21.6033
-1.31413 -0.118332 21.0529
-1.09376 -0.561281 21.326
-1.08149 -0.565724 21.339
1.79615 0.164286 19.6859
0.972336 0.382317 19.6673
1.82066 -0.160472 21.2583
1.6677 0.64597 20.3387
0.790115 -0.527217 21.5492
1.32652 0.127004 21.251
0.121739 -0.515874 21.623
0.586273 -0.180192 21.5042
-0.537535 -0.738662 21.4375
0.0317658 -0.451988 21.4431
-0.87548 -0.831777 21.2491
-0.300083 -0.668378 21.2619
-0.46043 -0.62855 20.8147
0.92216 0.640543 20.0523
1.09501 0.623538 20.7439
0.744665 0.243067 21.2896
0.265705 -0.110312 21.3564
-0.0143481 -0.353996 21.2342
-0.199695 -0.488762 21.0013
-1.24231 -0.622342 19.9457
-1.84965 -2.28891 18.3949
-1.35279 -1.19913 19.6502
-2.10085 -1.17671 19.1273
-0.904695 -0.582643 19.3923
-2.59606 -2.1476 20.4969
-1.12129 -0.766469 21.311
-0.572409 -0.286693 17.3563
-0.970879 -1.20307 21.8003
-1.54473 -1.59617 22.4369
-0.000899262 -0.521038 21.6284
-0.12148 -0.383394 21.4125
0.149426 0.287066 13.6411
0.123277 -0.205655 21.539
0.299022 -0.449594 19.8875
0.413445 -0.230269 21.096
0.297243 -0.236121 21.4605
0.962712 0.314882 13.6587
0.522999 -0.00427906 21.4916
0.51351 -0.365013 19.9477
1.02053 0.120864 20.8669
0.796649 -0.0734518 21.361
1.11718 1.17972 14.6924
1.09346 0.413774 21.2386
1.41758 -0.00131566 19.9495
1.54116 0.344803 20.7397
1.12748 -0.0402608 21.0871
1.85029 1.50167 16.546
1.41996 0.572671 20.7391
1.88643 0.141634 19.9945
1.5851 0.391882 20.8329
-1.72108 -0.266552 19.7139
-3.49177 -0.82856 15.9037
-2.73932 0.504307 18.6456
-1.2383 -0.247183 19.0329
-5.11246 -0.720664 19.9582
-1.65839 -0.558579 21.4165
-3.01646 -0.42329 21.9671
-0.35006 -1.28534 19.8271
-0.405287 -0.617156 21.5013
-1.2709 -1.19463 20.645
0.192275 -0.66652 18.6049
0.104101 -0.51018 21.5737
-0.230871 -0.395272 19.0048
0.968108 -0.333469 17.9023
0.734688 -0.527102 21.3979
-0.020088 -1.13592 3.11434
0.409672 -0.840331 19.1431
1.51295 -0.604874 19.3141
1.04734 -0.512153 21.0243
1.93401 -0.195294 8.87224
1.00018 -0.915938 20.5495
1.70147 -0.453021 19.5045
-1.37723 0.571359 19.8589
-1.85291 2.20997 18.5534
-1.0152 1.01037 19.8297
-1.09751 0.663094 19.2855
-2.38995 1.55161 20.1032
-1.58724 0.415082 20.8948
-2.97027 2.32071 20.5509
-1.3599 1.15854 20.6771
-2.22613 0.473993 21.4264
-0.960013 -0.0519754 21.437
-2.48099 0.610308 21.7494
-0.964199 0.555894 21.4776
-0.915768 -0.0923746 21.7503
-0.291477 -0.275322 21.4503
-0.115154 0.158137 17.87
-0.333157 -0.0172751 21.4401
-0.291124 -0.461555 21.6075
0.0986261 -0.497047 21.3421
-0.118199 -0.312141 18.3716
-0.0531532 -0.315046 21.3009
0.140392 -0.747607 21.466
0.390046 -0.619178 21.0988
0.400023 -1.01153 19.479
0.176228 -0.595574 20.9696
0.451951 -0.881306 20.8301
1.85368 -2.29686 18.3838
0.003464 -3.15198 18.5039
-0.0219941 -4.19221 15.4284
-0.0100151 -1.22476 18.3546
0.0271099 -7.04607 22.7275
0.578489 -0.309648 17.341
0.0272129 -1.79994 21.9942
0.0137072 -0.103792 8.88735
-0.132221 0.336323 13.8301
0.0227868 -0.154629 17.3725
0.01085 0.138218 7.95545
-0.931821 0.239709 13.9239
0.0357637 0.305108 15.4463
0.215951 0.425578 7.633
-1.06269 1.37635 14.3854
0.150677 0.784672 14.6942
0.292807 -0.42011 1.72974
0.224606 0.864753 8.48863
-1.74568 1.81552 15.6269
0.109756 1.63484 15.329
0.0995673 0.637823 3.05397
0.220331 2.15173 11.1527
3.51069 -0.850917 15.7783
-0.0268229 3.09031 12.8208
-0.0202754 -0.561771 17.0127
-0.060725 -0.809623 2.61482
-0.0764463 0.270599 -4.03676
-0.348361 0.244853 -2.85814
-1.99116 0.0967559 7.41546
-0.477384 1.78201 -5.19597
-0.141726 1.13556 -1.7291
1.86471 2.20148 18.5683
0.0214201 2.11915 19.2317
-0.000288294 1.488 18.0313
0.0249082 4.88774 19.1779
2.98364 2.28107 20.5759
0.0216674 2.94137 20.168
0.0175674 6.92404 19.3534
2.50141 0.609038 21.7059
-0.00634381 2.11222 22.158
0.0242924 0.446639 12.2114
0.00523781 0.128101 17.0352
0.00491299 0.416362 21.7974
0.380607 0.395445 4.87146
0.119725 -0.503361 16.6496
0.0355962 -0.020506 21.6495
0.54897 -0.190781 6.95637
-0.346494 -1.19985 18.1887
-0.000761175 -0.607703 21.2293
0.15489 -0.932667 10.8753
1.25808 -0.611098 19.9384
1.37278 -1.18996 19.6572
2.12459 -1.20258 19.1049
0.910841 -0.582918 19.3842
2.58461 -2.11323 20.5031
1.12288 -0.748341 21.3064
0.987497 -1.18295 21.7783
1.55827 -1.58674 22.4409
0.0422741 -0.534917 21.7196
0.13174 -0.380055 21.4059
-0.104091 -0.216833 21.5501
-0.295792 -0.460763 20.0432
-0.402162 -0.233521 21.1711
-0.290348 -0.222214 21.474
-0.499318 -0.0221844 21.534
-0.480151 -0.359199 20.093
-1.03758 0.151769 21.0306
-0.849734 -0.0243351 21.3724
-1.13446 0.503169 21.2533
-1.56387 0.149012 19.6278
-1.65588 0.528589 20.6156
-1.22718 0.0239738 21.0693
-1.44859 0.713325 20.715
-2.06535 0.322182 19.3572
-1.74626 0.636453 20.0483
1.74033 -0.26731 19.7003
2.76935 0.521362 18.6167
1.26053 -0.261711 18.996
5.13741 -0.721111 19.98
1.65973 -0.553429 21.4242
3.01623 -0.437928 21.9812
0.349573 -1.2875 19.9086
0.408954 -0.613937 21.5123
1.26265 -1.20674 20.6658
-0.200707 -0.676592 18.7176
-0.119871 -0.499286 21.6103
0.192449 -0.384067 19.0297
-1.10078 -0.29158 18.2255
-0.869306 -0.53376 21.4097
-0.623518 -0.846056 18.3429
-1.8275 -0.521076 18.5505
-1.20847 -0.515621 20.9091
-1.24198 -0.968867 19.4244
-2.04272 -0.452168 18.2208
1.37925 0.571216 19.8691
1.01461 0.985401 19.846
1.10625 0.669693 19.284
2.37973 1.52295 20.1186
1.58347 0.407228 20.9037
1.35879 1.1355 20.6902
2.22526 0.466419 21.4404
0.965246 -0.0555681 21.4575
0.976325 0.561661 21.504
0.929702 -0.104824 21.7912
0.275253 -0.295865 21.4943
0.344871 -0.0394613 21.4837
0.256965 -0.556586 21.6845
-0.142198 -0.570412 21.3851
0.0632656 -0.398974 21.3299
-0.187252 -0.895746 21.4959
-0.421417 -0.700831 21.0806
-0.168216 -0.72955 21.0287
-0.478236 -1.07837 20.6788
-1.73144 -1.24511 19.3852
-1.1601 -1.40963 22.2016
0.256733 -0.308669 21.1634
0.600022 -0.172238 20.8974
1.31891 0.273433 20.7851
1.55661 0.386239 20.7785
-2.75342 -0.502736 18.6308
-2.23464 -1.17161 22.5611
0.00402868 -1.03914 18.9924
0.101594 -0.447592 18.6045
1.17377 -0.537406 18.5166
1.7036 -0.583282 19.6658
-1.77088 1.15658 19.3728
-2.37174 0.958245 20.9524
-1.55929 0.109356 21.7907
-0.517182 -0.264595 21.6728
-0.108214 -0.596016 21.5526
0.323939 -0.878049 21.2338
-0.00629601 -3.83776 17.3339
0.00967731 -0.732623 12.7047
0.0279347 0.0211737 7.82359
0.0182156 0.19469 7.35642
0.269948 0.349735 7.4376
0.193151 1.43688 9.35564
-0.023408 -1.35592 12.3297
0.00387706 -0.604016 -1.48337
-0.344355 0.787483 -2.81936
0.00988717 3.41651 17.7007
0.0246358 4.4597 19.473
0.004154 1.84321 15.2499
0.0840271 -0.07774 9.91748
0.454747 0.260455 6.15045
0.200269 0.113179 7.10633
1.74325 -1.25005 19.377
1.18647 -1.38031 22.1631
-0.239145 -0.331204 21.3228
-0.570443 -0.175966 21.0325
-1.3979 0.396619 20.7614
-1.69229 0.587644 20.3867
2.78839 -0.505969 18.5926
2.23188 -1.1709 22.574
-0.016845 -1.03997 19.0594
-0.0878248 -0.425583 18.7894
-1.42687 -0.409305 17.953
-2.04394 -0.519428 18.8537
1.7761 1.15168 19.3828
2.36435 0.941727 20.9638
1.57032 0.0990671 21.8203
0.517382 -0.301133 21.7364
0.0640959 -0.735169 21.622
-0.365328 -1.0299 21.2242
-0.134787 -0.0528467 0.134723
-0.000360813 -0.059568 0.210786
-0.0070664 0.00120613 0.0711791
0.0285904 -0.00156377 0.0476864
0.00107031 0.150792 1.17891
0.0204405 0.0274271 0.695348
0 0 0
-0.0436607 0.383621 0.554524
-0.118031 0.154168 0.609149
-0.00425926 -0.090838 0.0787853
0 0 0
0.00207699 -0.00320726 0.0373054
-0.000575799 -0.091932 0.328629
0.167977 -0.0657085 0.167342
0.00586521 0.000999806 0.0579261
0.0134102 0.0869914 0.303451
-0.0592359 0.00430158 0.18587
-0.0106853 0.016408 0.480587
0.0441594 0.378919 0.548781
0 0 0
0.112436 0.145849 0.577612
0 0 0
0.00590144 -0.0885256 0.0569599
-0.00223109 -0.00430325 0.0492022
-0.0419797 0.0520603 0.369861
0.00145882 -0.000962305 0.0889436
0.000882457 0.00474081 0.0206837
0 0 0
0.0442242 -0.0459385 0.407813
0.0452021 0.00211321 1.16855
0.000163643 0.00181647 0.0304668
0 0 0
-0.410189 -0.5133 1.06504
0.000312567 0.000598284 0.0173601
-1.54309e-18 -3.53925e-18 -1.26704e-17
-0.0710854 0.0524552 0.120841
0 0 0
0.00416477 0.0155273 0.0444789
0 0 0
0.073647 0.0295665 0.423482
0.0369968 0.0447524 0.313255
0 0 0
-0.00359209 -0.000390699 0.21194
-0.00106369 0.0047874 0.0213115
-0.284974 -0.176409 1.16131
0 0 0
-0.0488963 0.00792051 1.37664
-4.49166e-05 0.000435768 0.00551002
0.409115 -0.511998 1.05614
0.0709854 0.0517076 0.120014
-0.000255836 0.000420927 0.0137557
0 0 0
0 0 0
-0.0603111 0.0235971 0.380674
-0.00520738 0.0201824 0.0562961
0 0 0
0 0 0
-0.16344 -0.0527283 0.0987322
4.18806e-05 -0.00013784 0.00472686
0 0 0
-0.00576211 -0.00902916 0.23363
0 0 0
-8.24216e-18 -1.53437e-17 -2.10112e-16
-0.0102844 -0.0186677 0.00764138
2.44839e-05 4.72225e-05 0.00172267
6.94128e-05 -0.000166921 -0.000105122
-0.000196859 0.000351794 0.0330162
0 0 0
-1.43175e-19 -3.18781e-17 -1.28555e-17
1.6492e-06 0.000262677 0.00108867
0.00629711 -0.0285992 0.407873
3.31462e-05 -5.81059e-06 -5.85585e-05
0 0 0
0 0 0
0 0 0
0.00245349 -0.00274189 0.0402544
0.163312 -0.0516176 0.0986937
0 0 0
0 0 0
0.00594461 -0.00831085 0.212316
0.0366959 -0.0336311 0.013413
0 0 0
-0.00011727 2.36727e-05 0.00121797
0.000449338 0.000943912 0.0559093
0 0 0
-0.0071377 -0.0282051 0.421338
0.000517946 -0.00704202 0.0506965
0 0 0
-2.27719e-05 0.00330477 0.0241336
0 0 0
0 0 0
3.62361e-05 0.000710393 0.00275221
-0.00033595 -8.70234e-05 0.0549552
0.000721297 0.00145995 0.067121
0.00114194 0.0340818 0.130925
5.90658e-06 0.024471 0.0738603
0 0 0
0 0 0
0 0 0
-0.040871 0.0468641 1.0384
0 0 0
0.000240135 0.382714 0.912344
0 0 0
0.000726859 -0.000774593 0.0287198
0 0 0
-1.19769e-05 0.00420505 0.0298208
0 0 0
-0.000315192 0.00478677 0.0189885
-0.00157186 0.0371001 0.143534
0.000248227 0.0335715 0.0939485
0.0350387 0.0529592 1.08608
0 0 0
-0.120669 -0.0723772 0.470716
-0.122784 -0.0501454 0.772717
0.03684 -0.0144021 0.202556
-0.000916309 -0.00424726 0.0104851
0.00045198 0.00690771 0.0461128
0.000431584 0.00142312 0.006453
0.000249513 0.00553957 0.0480213
0.00111366 0.00382205 0.00988651
0 0 0
0.00777954 0.0232228 0.0524733
0 0 0
0 0 0
0 0 0
0 0 0
0.00232548 0.00396793 0.119309
-0.000455947 0.00126056 0.0441211
0 0 0
0 0 0
0 0 0
0 0 0
0 0 0
0 0 0
0 0 0
1.16631e-05 0.000648884 0.0404318
0 0 0
0 0 0
8.51742e-18 -1.36169e-17 -1.14082e-17
0 0 0
-0.000966914 -0.00223462 -0.000656062
0.0010737 -0.00115104 -0.000380269
-0.0196069 -0.0216795 0.000483827
0.0192771 -0.0117959 0.00104903