# vtk DataFile Version 2.0
tri_press
ASCII
DATASET UNSTRUCTURED_GRID
POINTS 3682 float
-0.699755 0.065 -1.665
-0.767364 0.175 1.635
-0.675 0.585 -1.59291
-0.655 0.801428 1.655
0.699602 0.065 -1.665
0.777746 0.175 1.625
0.675 0.585 -1.59233
0.645 0.795363 1.665
-0.722658 0.1013 -0.565
-0.767166 0.115995 0.535
-0.730927 0.719736 -0.510273
-0.707197 0.774816 0.572363
0.725503 0.101814 -0.568333
0.765255 0.124777 0.528333
0.730237 0.720358 -0.506553
0.704582 0.774824 0.579223
-1.4193 -0.289657 -2.56692
-1.4195 -0.232112 -1.69347
-1.44021 -0.199632 -0.593561
-1.46978 -0.188347 0.509374
-1.47521 -0.146999 1.60951
-1.47651 -0.108686 2.48413
-1.47999 -0.0710167 3.35635
-1.41734 -0.00443497 -2.53572
-1.41725 0.0638264 -1.66403
-1.44373 0.110106 -0.56701
-1.4713 0.125582 0.531383
-1.46734 0.168801 1.62874
-1.47511 0.206336 2.50357
-1.48275 0.243244 3.37646
-1.40846 0.55203 -2.46968
-1.40362 0.619016 -1.59802
-1.44148 0.724091 -0.512721
-1.42781 0.772034 0.571287
-1.39466 0.803027 1.65736
-1.44041 0.837737 2.53603
-1.47406 0.874296 3.41343
-1.412 1.45558 -2.38105
-1.41341 1.52909 -1.51142
-1.42928 1.63398 -0.430464
-1.4365 1.71249 0.647329
-1.43787 1.76029 1.72936
-1.45198 1.79253 2.60121
-1.47282 1.82622 3.4765
-0.709773 -0.289454 -2.56762
-0.701949 -0.230208 -1.69482
-0.714205 -0.202999 -0.593571
-0.741896 -0.194155 0.510709
-0.747689 -0.145803 1.61209
-0.75449 -0.108318 2.48613
-0.760338 -0.0716601 3.35767
-0.711594 -0.00817568 -2.53562
-0.766098 0.206961 2.50627
-0.769013 0.242521 3.37795
-0.703757 0.536566 -2.46736
-0.741268 0.836078 2.53755
-0.768865 0.872927 3.41466
-0.700338 1.44563 -2.37853
-0.698178 1.52003 -1.50852
-0.713787 1.63184 -0.428024
-0.726731 1.71395 0.648755
-0.733356 1.76063 1.73002
-0.747677 1.79199 2.60178
-0.766192 1.82554 3.47711
0.702746 -0.289078 -2.56753
0.71476 -0.229883 -1.69533
0.737845 -0.201575 -0.596238
0.765847 -0.188279 0.505479
0.769989 -0.143859 1.60514
0.724327 -0.107663 2.48244
0.694879 -0.0711665 3.35622
0.690606 -0.00794016 -2.53531
0.699339 0.206534 2.50342
0.676438 0.242471 3.37723
0.683957 0.536772 -2.4666
0.648823 0.833597 2.541
0.649394 0.872045 3.4163
0.713876 1.4461 -2.37705
0.720534 1.52051 -1.50662
0.714901 1.63233 -0.425213
0.69233 1.71403 0.652624
0.669112 1.7599 1.73432
0.656378 1.79119 2.60542
0.647135 1.82509 3.47982
1.41543 -0.288689 -2.56656
1.42845 -0.231057 -1.69393
1.45904 -0.196627 -0.596537
1.49327 -0.180572 0.50326
1.49607 -0.142949 1.60167
1.45758 -0.106936 2.47918
1.4249 -0.0697718 3.35415
1.40279 -0.00371222 -2.53488
1.41533 0.0644851 -1.66347
1.44828 0.112201 -0.56863
1.47932 0.133416 0.527118
1.47724 0.170972 1.62266
1.43341 0.20651 2.50042
1.40526 0.243591 3.37554
1.39419 0.552666 -2.46789
1.40127 0.619591 -1.59556
1.4406 0.725285 -0.508287
1.42687 0.773808 0.578041
1.38395 0.799949 1.66564
1.3734 0.835082 2.541
1.37023 0.873243 3.41635
1.42214 1.4566 -2.37813
1.42906 1.53013 -1.50774
1.4282 1.63504 -0.425299
1.40673 1.71293 0.654164
1.38013 1.75949 1.73684
1.36693 1.7915 2.60771
1.35966 1.82565 3.48152
-0.738415 0.325 -1.67999
-7.65026e-05 0.0719219 -1.65808
-0.716196 0.0781609 -1.115
-0.750485 0.488214 1.6843
0.005191 0.144966 1.66003
-0.757781 0.154981 1.085
0 0.634109 -1.64173
-0.743935 0.693339 -1.05159
-0.005 0.8185 1.6801
-0.689641 0.796665 1.11368
0.738364 0.325 -1.67973
0.717586 0.0783729 -1.11667
0.762981 0.485182 1.69661
0.764482 0.156907 1.07667
0.743797 0.693857 -1.04944
0.686362 0.796664 1.12211
-0.743436 0.110124 -0.015
-0.80343 0.410518 -0.537637
0.0014225 0.0669262 -0.566667
-0.802532 0.445405 0.553682
-0.000955827 0.100102 0.531667
-0.718083 0.746297 0.031045
-0.000345082 1.02314 -0.508413
-0.00130772 1.22042 0.575793
0.747589 0.111085 -0.02
0.802694 0.411086 -0.537443
0.799721 0.4498 0.553778
0.716444 0.746626 0.036335
-0.875877 0.367759 -1.0833
0.876132 0.368043 -1.08305
0.000672997 0.0698255 -1.11583
-0.000172541 0.780812 -1.05052
-3.82513e-05 0.325 -1.82351
-0.80579 0.427962 0.00802249
0.803678 0.430443 0.00816751
0.000233334 0.0893959 -0.0175
-0.0008264 1.2136 0.03369
-0.863328 0.46681 1.09934
0.868116 0.467491 1.09939
0.00211759 0.126812 1.08083
-0.00315386 1.19787 1.1179
9.55015e-05 0.486698 1.80319
-0.713447 0.195 -1.66686
-0.349916 0.0657944 -1.66421
-0.706234 0.0733214 -1.39
-0.786828 0.331607 1.68756
-0.381087 0.103294 1.70421
-0.761795 0.165768 1.36
-0.696729 0.455 -1.62647
-0.3375 0.625218 -1.63298
-0.731444 0.661146 -1.32225
-0.704468 0.644821 1.67138
-0.33 0.815961 1.67355
-0.690486 0.817212 1.38434
0.349763 0.0649212 -1.66508
0.713276 0.195 -1.66666
0.706254 0.0740263 -1.39083
0.391469 0.139994 1.66251
0.790815 0.330091 1.68126
0.768436 0.168632 1.35083
0.3375 0.625149 -1.63262
0.696877 0.455 -1.62622
0.73141 0.66144 -1.32089
0.32 0.812782 1.6784
0.698448 0.640272 1.67526
0.686192 0.816525 1.39356
-0.72741 0.0817473 -0.84
-0.730022 0.108736 -0.29
-0.789282 0.24279 -0.551318
-0.366303 0.0727435 -0.565833
-0.766442 0.13152 0.81
-0.756219 0.112141 0.26
-0.790089 0.27808 0.544341
-0.398546 0.0790782 0.533333
-0.74246 0.711567 -0.780933
-0.790505 0.57679 -0.523955
-0.724747 0.733259 -0.239614
-0.427376 0.994917 -0.509343
-0.69867 0.785991 0.843023
-0.775988 0.620673 0.563023
-0.713118 0.761035 0.301704
-0.452248 1.19361 0.574078
0.729055 0.082583 -0.8425
0.367473 0.0763492 -0.5675
0.733761 0.109235 -0.294167
0.788561 0.244218 -0.552888
0.765095 0.140615 0.8025
0.398414 0.0799102 0.53
0.761224 0.113129 0.254167
0.787749 0.284658 0.541056
0.741748 0.711838 -0.777998
0.426839 0.995535 -0.507483
0.789346 0.577162 -0.521998
0.723502 0.733653 -0.235109
0.695762 0.786035 0.850668
0.449584 1.19352 0.577508
0.772621 0.622547 0.566501
0.711161 0.761372 0.307779
-0.864265 0.34638 -1.38164
-0.369226 0.325 -1.81209
0.000298247 0.0706618 -1.38696
-5.73769e-05 0.198461 -1.77593
-0.892341 0.22296 -1.09915
-0.357761 0.0682321 -1.11542
-0.855607 0.477512 1.39182
-0.375195 0.487456 1.79509
0.00365429 0.135014 1.37043
0.00264325 0.315832 1.78487
-0.838497 0.310895 1.09217
-0.377832 0.114522 1.08292
-8.62705e-05 0.736312 -1.34612
-1.91256e-05 0.479554 -1.73947
-0.891728 0.530549 -1.06744
-0.372054 0.773994 -1.05105
-0.00407693 1.05003 1.399
-0.00245225 0.652599 1.76081
-0.763615 0.631737 1.10651
-0.346398 1.18613 1.11579
0.864393 0.346521 -1.38139
0.369163 0.325 -1.81166
0.892357 0.223208 -1.09986
0.35913 0.0729513 -1.11625
0.859044 0.476336 1.398
0.381538 0.48594 1.79997
0.842406 0.312199 1.08803
0.3833 0.120497 1.07875
0.891997 0.53095 -1.06625
0.371812 0.774026 -1.04998
0.765532 0.632078 1.11075
0.341604 1.1859 1.12
-0.79098 0.260859 -0.00348875
-0.383367 0.0762273 -0.01625
-0.816407 0.389139 -0.810466
-0.804157 0.41924 -0.264807
0.00104775 0.0689198 -0.84125
0.000827915 0.0825466 -0.292083
-0.804189 0.436683 0.280852
-0.799995 0.456107 0.826511
-0.000361247 0.0940398 0.257083
0.000580879 0.125591 0.80625
-0.783174 0.597748 0.0195337
-0.460995 1.18303 0.0323675
-0.000258811 0.848985 -0.779465
-0.000585741 1.18459 -0.237362
-0.00106706 1.22017 0.304742
-0.00223079 1.21727 0.846845
0.789272 0.263945 -0.00591624
0.382724 0.0826152 -0.01875
0.816713 0.389564 -0.810249
0.803401 0.420764 -0.264638
0.802034 0.440122 0.280973
0.797152 0.458646 0.826584
0.780904 0.598956 0.0222512
0.459296 1.18309 0.0350125
-0.875143 0.20898 -1.38582
-0.855979 0.239434 -0.825233
-0.79892 0.547838 -0.795699
-0.878372 0.492775 -1.35195
0.875062 0.209104 -1.38611
0.87916 0.492975 -1.35114
0.798273 0.548336 -0.794123
0.855239 0.239829 -0.826374
-0.353839 0.0683344 -1.38848
0.354446 0.0728972 -1.38889
0.361296 0.0754427 -0.841875
-0.35919 0.0681761 -0.840625
-0.354777 0.733757 -1.33419
-0.368845 0.828025 -0.780199
0.368379 0.828532 -0.778731
0.354656 0.733789 -1.3335
-0.359571 0.19673 -1.76549
-0.353363 0.467277 -1.74613
0.353331 0.467277 -1.74616
0.359463 0.19673 -1.76396
-0.789583 0.252099 -0.277404
-0.79148 0.268997 0.270426
-0.780035 0.609437 0.291278
-0.787849 0.587774 -0.252211
0.788526 0.254277 -0.279402
0.786283 0.588638 -0.249874
0.777192 0.610966 0.294376
0.789294 0.27391 0.26757
-0.373962 0.076231 -0.291042
0.373791 0.0820965 -0.293125
0.389449 0.0835028 0.255625
-0.390521 0.0785246 0.258542
-0.474809 1.15022 -0.238488
-0.458472 1.19202 0.303223
0.456325 1.19207 0.30626
0.473843 1.15086 -0.236235
-0.791986 0.295798 0.818256
-0.830221 0.321251 1.37591
-0.753003 0.638279 1.38808
-0.771052 0.620924 0.834767
0.789024 0.299744 0.814542
0.767566 0.622195 0.838626
0.752761 0.636175 1.39578
0.840282 0.321145 1.37442
-0.380946 0.105948 0.808125
0.382725 0.126417 0.804375
0.387384 0.120456 1.36063
-0.379459 0.119111 1.36522
-0.350325 1.2017 0.844934
-0.338199 1.04049 1.39167
0.330802 1.0376 1.39628
0.34662 1.20168 0.848756
-0.378141 0.323719 1.78724
0.386503 0.322961 1.78732
0.350769 0.646435 1.76799
-0.352597 0.64871 1.76747
-0.707552 0.13 -1.66688
-0.524835 0.0645221 -1.66548
-0.700782 0.0713738 -1.5275
-0.777105 0.253303 1.66129
-0.574225 0.144101 1.66465
-0.76624 0.168724 1.4975
-0.689661 0.52 -1.61349
-0.50625 0.61405 -1.62189
-0.71311 0.632962 -1.45758
-0.68467 0.723125 1.66812
-0.4925 0.811153 1.66673
-0.679115 0.815692 1.51967
0.524682 0.0632133 -1.66679
0.707321 0.13 -1.66671
0.700655 0.0717861 -1.52792
0.584607 0.149211 1.65204
0.782052 0.252545 1.6509
0.774011 0.170896 1.48792
0.50625 0.613936 -1.62134
0.689701 0.52 -1.61304
0.713248 0.633263 -1.45661
0.4825 0.806552 1.67418
0.677999 0.717818 1.67641
0.674712 0.81506 1.52928
-0.718485 0.0980723 -0.7025
-0.723565 0.107794 -0.4275
-0.771099 0.16448 -0.558159
-0.554117 0.067748 -0.565417
-0.766272 0.12429 0.6725
-0.76266 0.1131 0.3975
-0.779181 0.196761 0.539671
-0.594779 0.0736915 0.534167
-0.739092 0.71805 -0.645603
-0.76566 0.650735 -0.517114
-0.727354 0.726014 -0.374944
-0.614789 0.928602 -0.509808
-0.703077 0.780547 0.707693
-0.747355 0.700625 0.567693
-0.711516 0.769283 0.437034
-0.596126 1.01702 0.573221
0.721158 0.0983198 -0.705417
0.557149 0.0677593 -0.567917
0.726934 0.108222 -0.43125
0.771011 0.166027 -0.560611
0.76492 0.132951 0.665417
0.596445 0.0731224 0.529167
0.765938 0.116254 0.39125
[...]
POINT_DATA 3682
SCALARS point_scalars float 1
LOOKUP_TABLE default
-114.013
-52.9671
-27.5142
-36.2588
-114.608
-58.9107
-27.6161
-39.7949
-41.4706
-33.8149
-61.2178
-42.8298
-41.615
-34.0274
-61.4594
-43.5239
-120.425
-96.8892
-59.3374
-33.3057
-48.4532
-49.5047
-39.5358
-1.30323
-77.3577
-60.169
-32.5597
-47.6344
-44.9789
-39.5358
47.0312
-101.53
-46.6946
-37.5175
-50.8594
-41.332
-38.7306
-15.6729
-81.0598
-104.547
-49.2141
-39.3869
-36.6754
-36.6754
-24.8633
-120.425
-43.3864
-36.0985
-47.8082
-41.3562
-38.9336
-24.8633
-38.9118
-38.6283
161.181
-35.8332
-37.4075
32.9289
-51.608
-108.547
-50.7668
-41.223
-33.8923
-32.8287
-22.237
-121.089
-42.9169
-35.8717
-50.2878
-43.1386
-39.9966
-22.237
-40.0625
-39.8258
161.79
-38.7228
-39.5016
32.6976
-52.9424
-109.308
-50.2317
-42.5959
-36.8651
-36.79
-121.089
-90.2673
-59.8589
-33.8538
-51.5777
-50.4918
-41.3397
-1.93988
-78.8012
-61.9751
-32.9276
-52.6327
-47.1532
-41.3397
47.2401
-101.599
-47.001
-37.8645
-54.632
-44.652
-40.9576
-23.3428
-81.1952
-105.16
-49.8328
-41.8096
-40.5397
-40.5397
20.0367
-173.132
-65.4592
-39.6711
-45.3821
-38.0297
-28.9865
-66.1773
-30.0816
-40.133
19.8078
-65.7275
-43.2593
-39.0423
-66.469
-42.4692
-33.6792
-43.3597
-47.083
-34.1791
-40.3431
-51.1588
14.1637
-58.5361
-33.9832
-43.6679
-34.6091
-51.5562
-80.6798
-80.7997
-68.0002
-5.52414
203.091
-37.9079
-38.3784
-39.4804
-94.3961
-42.862
-44.8572
-38.5863
-42.7154
-34.2471
0.262621
-175.349
-90.0423
-47.276
-45.0535
-42.0896
-17.1263
-14.2612
-59.9851
-40.0744
-30.3057
-42.2215
-179.071
0.543609
-90.2518
-48.7096
-50.0808
-44.0331
-14.3007
-17.4247
-60.2428
-34.5142
-43.1885
-45.1476
-55.9618
-35.4223
-41.2639
-45.9266
-36.1917
-33.2594
-32.4512
-38.3207
-56.1119
-48.8339
-55.9624
-2.8779
-39.8815
-37.9113
-46.5065
-52.5569
-56.2835
-46.4042
-35.6366
-41.6097
-35.8609
-38.8743
-33.479
-32.7341
-56.0681
-3.40506
-49.1612
-56.5132
-40.9204
-53.1062
-38.3069
-46.968
-101.924
197.937
-90.8172
141.086
-79.0958
-66.7934
-47.9114
-35.1382
-40.3633
-38.614
-40.5319
-36.4697
-32.7803
163.451
-83.7257
-15.6009
-32.3779
-33.0448
-39.6156
-44.0831
-103.695
197.996
-79.2725
-66.965
-51.7361
-38.2944
-42.065
-37.4622
-83.7832
-15.865
-42.0518
-45.2646
-34.7136
-37.9925
-55.8989
-39.3312
-55.1834
-41.9632
-36.3062
-29.5538
-38.9358
-38.871
-44.3849
-82.2864
25.7566
-102.309
-70.3697
-50.7501
-35.2197
-38.1991
-56.2823
-39.8819
-36.8933
-29.7187
-44.8402
-82.7656
-107.137
-59.2066
-55.6356
-108.93
-107.755
-109.118
-55.9943
-59.6475
-88.9052
-88.8714
-54.794
-54.9605
-41.4134
10.9396
10.9391
-41.5923
145.791
150.324
150.357
145.325
-36.1888
-34.0939
-41.3579
-46.7484
-36.7901
-47.273
-41.9045
-34.6311
-40.2805
-40.7408
-37.736
-37.3877
-103.052
-61.9298
-62.2143
-103.999
-26.9824
-46.6739
-47.5952
-35.3512
-26.2595
-36.1349
-50.955
-49.624
-40.1876
-40.4624
-41.6566
-38.8743
-49.2314
-32.9744
-34.902
-49.846
-38.8751
-39.9242
-37.3856
-33.0566
-5.1168
-174.969
-122.871
-50.1055
-50.7104
-44.943
-14.7047
-16.55
-51.4925
-38.7206
-32.1287
-39.1024
-176.533
-5.34856
-123.823
-52.1253
-53.6484
-47.2202
-16.9815
-15.0353
-52.105
-36.0998
-41.9427
-42.1454
-45.8484
-37.7032
-40.8793
-44.3346
-34.3088
-33.1676
-32.6439
-36.6146
-64.3588
-53.8132
-58.1603
-78.7403
-41.1842
-40.5068
-44.6137
-47.6458
-46.7064
-44.4327
-38.1439
-41.2916
-35.036
-36.7832
-33.8689
-32.9681
-64.7374
-79.878
-54.1284
-58.595
-41.8844
-48.3189
-41.1809
-45.1253
9.27287
11.6496
-75.1572
157.268
-177.562
-180.305
-117.361
48.4883
-75.0607
-59.5108
-75.9796
-65.2787
-44.6603
-40.4142
-47.6139
-36.1837
-43.782
-45.5387
-41.6213
-40.1802
-39.2429
-39.1361
-39.1566
-36.5686
-30.1751
-30.2545
-36.8861
92.5919
-69.89
-58.2576
-83.4347
-32.534
-29.3848
-32.1896
-30.9645
-29.2591
-40.5063
-39.8198
-40.0997
-44.1915
8.71021
11.4585
-76.2286
157.198
-75.2231
-59.8163
-76.4886
-65.3873
-47.8466
-43.3317
-50.4819
-38.8413
-41.3132
-36.7146
-40.4542
-34.5146
-70.2471
-58.9433
-83.3653
-32.669
-43.2642
-41.2481
-42.3362
-45.8027
-34.1497
-33.424
-33.8944
-36.4145
-42.3371
-45.2414
-48.1269
-40.7859
-46.7486
-46.7057
-50.035
-44.6151
-32.9653
-36.1468
-35.3756
-32.373
-39.7119
-40.0577
-39.3852
-39.591
-54.03
-48.6955
-47.7275
-64.3839
11.0971
10.8038
32.9057
-17.4997
-57.292
-57.5077
-63.9844
-54.1493
-34.7657
-33.5349
-34.349
-36.4736
-42.6562
-45.5593
-48.4319
-41.2322
-33.3274
-36.5209
-35.9628
-32.5635
-54.2386
-49.0934
-48.1877
-64.7814
-94.0502
-81.6962
-82.7066
-68.0395
-93.4593
-81.9779
-82.6231
-68.4532
-77.3333
-67.8092
-67.7483
-60.7278
-21.9802
-8.07383
-8.16718
9.76578
201.338
191.047
190.757
200.668
-36.146
-38.5637
-37.1076
-40.6332
-36.6236
-39.103
-37.6711
-41.1389
-39.1398
-40.4709
-39.0156
-39.3182
-92.0009
-115.086
-80.0205
-92.0959
-47.0461
-42.3987
-36.1596
-25.0372
-48.7578
-44.5907
-33.0264
-24.0071
-40.4663
-38.1098
-38.2305
-37.9717
-37.4728
-42.9641
-43.5534
-47.1639
-34.1037
-38.0672
-33.7499
-36.5625
-72.5533
139.41
-115.457
43.1022
-113.756
-87.3231
-47.4021
-39.0155
-41.4003
-39.303
-45.828
-39.4078
-30.4147
115.22
-46.559
87.235
-59.8081
-49.0074
-43.9765
-35.0819
-31.1931
-30.1792
-45.0433
-36.339
-115.367
42.7562
-73.5372
139.102
-114.339
-87.4315
-44.1802
-41.9166
-51.0844
-40.4807
-48.0158
-45.0136
-46.6333
87.8282
-30.8044
114.915
-60.2271
-49.2587
-33.8716
-35.9783
-47.0807
-38.692
-48.0334
-38.3852
-60.6026
-54.6605
-35.4568
-38.4452
-47.2596
-37.9584
-47.5046
-43.0578
-28.5144
-40.1231
-33.4898
-35.8182
-33.5493
-30.8529
-37.9335
-40.3156
-58.1054
-14.6095
-50.8243
-47.6072
-51.1209
-81.3497
15.8638
-45.6652
-37.691
-45.0927
-40.7172
-36.9758
-43.8948
-53.5889
-57.4382
-51.5037
-61.1047
-54.8095
-48.0526
-42.909
-35.9824
-38.7616
-47.6028
-38.47
-27.7361
-40.6598
-37.8993
-41.4574
-34.0671
-35.9393
-34.0062
-30.9189
-58.3664
-15.2708
15.9314
-46.5965
-50.8892
-48.0751
-51.6596
-81.5475
-38.6737
-45.7258
-57.8745
-51.9793
-41.3766
-37.6262
-44.3687
-54.0535
-101.858
-120.934
173.783
173.376
-89.8462
-89.5547
158.624
158.66
-92.4242
-69.2349
-75.7824
-59.8765
-46.9726
-51.6173
-38.7973
-34.9527
-41.0934
-40.0926
-38.5216
-39.327
-30.3835
-44.0524
-36.9042
-41.6434
-34.9762
-35.105
153.847
153.288
-66.8662
-101.544
-29.3962
-2.07839
-32.2085
-33.3512
-35.2628
-32.0643
-47.3685
-34.5915
-46.6338
-39.3391
-103.211
-123.485
172.265
173.917
-91.4501
-69.869
-75.886
-60.0189
-55.0366
-50.7934
-39.8456
-38.3471
-29.4335
-45.1903
-36.5813
-38.9105
-101.676
-67.0623
-2.87395
-29.5862
-35.7975
-50.5473
-40.7806
-47.4406
-35.2743
-34.4604
-38.8928
-37.5747
-58.0239
-55.2276
-37.564
-42.2101
-54.8386
-55.1334
-41.5404
-41.7368
-35.0553
-38.497
-27.4391
-32.5564
-38.5958
-38.621
-39.6144
-40.0006
-42.8057
-45.7805
-103.216
-69.4662
22.3146
22.1853
-94.8779
-95.821
-68.2491
-68.3851
-50.3211
-50.6325
-35.8097
-34.971
-39.2103
-37.6483
-55.4991
-58.4815
-38.1337
-42.7296
-39.1032
-35.5978
-27.2764
-33.0863
-46.2693
-43.2765
-69.6737
-103.895
-72.056
-88.6806
-91.3151
-78.1326
-47.2611
-47.8266
-68.4167
-70.0072
-55.1256
-65.7141
-67.4592
-48.6122
-44.0142
-53.6671
-95.5446
-98.1875
-72.6433
-79.3731
-90.4531
-88.441
-44.3414
-98.3108
-95.1564
-54.4002
-55.3607
-48.8372
-67.7243
-65.9229
-47.715
-70.6555
-68.8199
-48.1475
-116.913
-114.956
-76.8537
-74.0084
-117.018
-74.0921
-76.8776
-114.675
-45.7104
-49.6721
-60.641
-58.9672
-45.3298
-58.8429
-60.5295
-49.5131
-52.2998
-40.9105
-23.9895
-39.9159
-44.1292
29.3983
7.04857
-22.2532
-46.3263
-21.8762
7.00133
29.2076
-52.5592
-40.0141
-24.0842
-41.1589
60.2067
146.165
178.629
71.8677
75.3703
96.4247
190.852
146.84
75.1789
146.849
190.898
97.0951
60.3565
70.9575
179.486
146.043
-37.4982
-34.4395
-36.7482
-39.2046
-33.2305
-34.2236
-35.6454
-33.6747
-42.5092
-45.6836
-39.5749
-37.4185
-52.4128
-43.286
-41.4982
-49.6286
-37.9227
-39.6892
-37.2604
-34.9136
-52.894
-50.0952
-42.0154
-43.7188
-43.2055
-38.1043
-40.1351
-46.1346
-33.7514
-34.1032
-36.161
-34.7226
-41.2463
-44.2747
-40.0556
-37.2667
-41.6118
-37.4244
-40.2632
-44.3443
-36.1577
-38.9104
-38.7051
-36.0064
-36.0303
-35.9433
-38.679
-39.072
-87.2013
-72.483
-118.576
-18.5493
-50.4531
-62.4825
-77.3229
-58.221
-50.9192
-58.5955
-77.4227
-62.6573
-88.2377
-20.032
-118.77
-73.099
-31.623
-32.9281
-27.9665
-31.1731
-47.6356
-47.5344
-45.7509
-42.3232
-41.5069
-44.5161
-46.2443
-44.2287
-39.3945
-34.3732
-30.6583
-37.6537
-31.7327
-31.284
-24.4133
-31.0864
-40.1164
-39.0176
-31.5563
-34.8653
-44.8193
-47.2043
-48.0274
-47.6663
-50.9343
-43.7483
-47.081
-51.0984
-39.478
-39.7189
-38.446
-37.4025
-40.8176
-35.7677
-37.4151
-39.923
-44.0939
-44.1071
-39.1109
-39.9656
-41.6207
-38.5113
-40.2521
-41.533
-45.4186
-44.7453
-47.0545
-53.3108
-32.631
-30.6393
-37.7661
-41.9942
-35.4729
-44.018
-38.5895
-32.3727
-46.2392
-53.5662
-47.4806
-45.8807
-41.4553
-40.1973
-38.0689
-38.3832
-42.9838
-39.8321
-39.1239
-40.939
-37.8599
-32.8197
-36.176
-39.1273
-33.2798
-36.3746
-33.299
-28.5509
-60.3701
-180.495
-172.128
-54.1823
-49.5784
-48.1125
-18.6407
-13.6496
-56.3369
-37.9943
-33.221
-37.0002
-180.263
-60.8602
-172.949
-53.3597
-58.0734
-49.013
-13.8164
-18.8691
-56.5717
-37.0208
-41.1338
-40.4808
-43.5624
-39.7806
-40.7681
-42.8944
-34.0937
-33.3402
-33.101
-36.3239
-63.6222
-56.9056
-59.466
-78.0208
-41.9756
-41.9275
-43.7701
-45.322
-43.8108
-42.4908
-40.1768
-41.1672
-34.5292
-36.1137
-34.0769
-33.336
-63.7234
-78.1435
-57.2505
-59.8893
-42.7464
-46.0605
-42.5601
-44.355
15.9267
23.8421
-53.5281
106.306
-176.213
-179.067
-146.839
-59.8692
-69.6826
-62.049
-73.8152
-64.7356
-42.3086
-40.2109
-44.3102
-36.7225
-43.8429
-44.3916
-42.5394
-42.2718
-38.3096
-38.2237
-38.2691
-37.3686
-29.7428
-27.4164
-29.3585
3.27645
-68.9685
-62.277
-74.7268
-48.4766
-29.4769
-30.9735
-30.3759
-29.3854
-41.1745
-40.4546
-40.4069
-40.2007
15.6027
23.6992
-53.6424
107.787
-69.8751
-62.4402
-74.1466
-64.9328
-45.784
-43.17
-46.945
-39.6161
-40.0645
-39.4428
-39.3255
-36.7222
-69.2961
-63.029
-74.7335
-48.6232
-42.9993
-42.3188
-42.5695
-41.4337
-33.8462
-33.52
-33.5419
-35.6053
-42.8349
-44.1964
-45.4099
-41.903
-46.9568
-46.973
-47.9513
-46.6544
-33.393
-35.1735
-34.7665
-33.3723
-40.2442
-40.6021
-39.6827
-40.244
-52.6804
-49.9238
-49.4129
-57.1466
13.8828
13.6682
25.2511
-2.59785
-58.1855
-58.293
-61.1609
-56.1955
-34.2753
-33.6402
-33.93
-35.7648
-43.1429
-44.5078
-45.6753
-42.2785
-33.7777
-35.5686
-35.2657
-33.6671
-52.8094
-50.3184
-49.8508
-57.4503
-88.4641
-82.1424
-81.2414
-73.1926
-86.3712
-82.4155
-81.1858
-73.4225
-72.2472
-67.8229
-67.7905
-64.1973
-14.2528
-5.93271
-5.98043
3.03621
200.913
196.73
205.286
198.78
-36.8561
-38.2272
-37.5055
-39.1955
-37.3263
-38.7479
-37.9984
-39.6715
-39.3837
-39.939
-39.1398
-39.4133
-93.7067
-104.951
-86.5765
-93.7528
-45.1687
-42.5961
-38.5359
-29.0339
-47.5251
-44.6922
-37.2006
-28.5249
-38.7338
-38.8193
-38.4822
-38.9653
-40.5702
-42.6707
-42.9794
-44.9621
-33.6824
-36.2217
-33.6777
-35.2419
-1.15119
3.91711
-56.5545
84.2163
-175.448
-175.915
-148.578
-79.1122
-102.116
-82.2142
-115.411
-87.0257
-48.6768
-46.1808
-48.7942
-40.2303
-48.8322
-43.7043
-40.7961
-41.4611
-42.2905
-40.8722
-43.8568
-40.5444
-13.2125
-1.40726
-45.4985
56.6279
-8.63092
-26.4722
-43.0878
19.8919
-57.8716
-69.0918
-58.8673
-54.5261
-39.4924
-40.2967
-41.9573
-36.6076
-31.1381
-29.6829
-30.8141
-29.6592
-40.2264
-41.9344
-43.1489
-39.2791
-178.217
-179.631
-150.158
-79.3769
-1.30907
3.80704
-56.7014
83.0151
-102.453
-82.3568
-116.044
-87.1711
-49.7393
-46.8556
-46.6513
-45.1074
-51.4154
-48.8999
-52.4808
-42.3012
-44.4055
-42.5765
-46.1391
-43.5623
-9.00804
-26.6123
-43.252
18.6773
-13.5397
-1.82503
-46.1577
56.5729
-58.1505
-69.653
-59.3336
-54.8125
-35.3777
-33.3764
-34.1389
-35.0277
-42.7796
-43.3428
-45.2065
-39.6878
-43.1023
-44.5652
-46.2157
-42.0191
-51.3329
-57.2917
-60.577
-54.9702
-36.3046
-34.7384
-35.2043
-36.7203
-40.9926
-41.8608
-43.8562
-39.4268
-45.3963
-46.3819
-46.8936
-44.6782
-35.218
-38.2875
-31.1147
-41.2389
-32.9337
-33.2239
-33.0809
-35.1276
-32.4799
-32.6555
-33.045
-31.795
-37.7378
-38.9501
-38.4016
-38.968
-61.3821
-55.4094
-59.7345
-38.4526
-51.1898
-46.6477
-49.6946
-48.2874
-57.0926
-54.9509
-53.6417
-65.4399
-31.1207
6.46568
10.7359
-16.5908
-40.479
-39.7789
-38.8682
-42.674
-38.8139
-37.2295
-39.5081
-37.8388
-45.4978
-47.5827
-45.3142
-50.0246
-49.4489
-55.9458
-55.4594
-52.5525
-51.847
-57.612
-61.0511
-55.1778
-45.7151
-46.6191
-47.248
-44.8652
-36.8054
-35.0214
-35.622
-37.2962
-41.3645
-42.2156
-44.1677
-39.8068
-35.5705
-33.8649
-30.7407
-40.4013
-38.2104
-39.9606
-37.976
-40.4277
-33.4692
-33.3908
-33.5235
-35.2996
-32.7946
-32.9934
-33.4272
-32.0058
-61.8314
-56.1963
-60.0073
-40.1849
-32.7647
6.07665
10.3347
-17.1853
-51.5492
-46.9951
-49.995
-48.6971
-57.57
-55.5896
-54.1513
-65.9424
-41.3785
-41.2308
-39.8454
-43.705
-49.9915
-56.2431
-55.9285
-52.8285
-39.3408
-37.66
-40.0806
-38.5031
-46.0194
-48.0134
-45.782
-50.4548
-92.2513
-99.7068
-102.111
-111.356
181.407
198.046
189.717
196.034
-101.474
-83.474
-90.3807
-90.1545
98.8251
168.676
147.922
151.581
-78.1338
-80.5513
-85.8675
-74.8359
-66.2106
-67.3667
-71.0784
-63.194
-48.6932
-47.4842
-47.3567
-49.4929
-35.496
-34.2229
-37.2328
-34.9222
-40.9345
-40.6491
-40.8149
-39.9801
-39.227
-38.4774
-38.4609
-38.9393
-40.1784
-41.3528
-41.3421
-42.0151
-36.7586
-37.0965
-37.412
-36.4922
-37.8967
-26.6777
-33.2168
-33.3177
158.747
159.93
158.037
157.306
-86.2269
-82.5457
-75.0962
-89.4756
-22.2692
-11.2265
-22.7836
-8.66376
-31.5173
-34.0633
-32.1972
-32.7979
-31.5374
-33.2595
-33.968
-32.1947
-39.9204
-36.6941
-43.3061
-35.8128
-44.6022
-43.4917
-45.1615
-42.2928
-93.5463
-100.843
-103.455
-113.802
181.359
198.232
196.002
189.872
-78.4982
-80.5292
-85.6128
-75.1702
-66.3193
-67.4537
-71.1816
-63.4769
-52.2208
-50.8731
-53.1688
-51.2128
-38.4714
-37.3492
-39.2593
-38.1757
-41.5292
-43.3016
-40.8105
-44.0977
-36.6291
-37.9004
-37.0176
-38.1393
-86.3515
-82.4353
-89.8811
-75.3097
-22.5192
-11.4119
-9.03039
-22.9994
-42.184
-39.3836
-37.6205
-46.0263
-46.005
-44.3678
-43.6313
-46.0805
-34.2626
-35.4312
-34.9535
-34.5241
-37.3626
-38.6069
-38.3896
-37.6901
-51.5082
-63.6704
-57.0361
-55.0181
-39.9735
-38.8869
-38.3243
-40.6587
-52.7269
-57.6997
-54.8842
-54.9201
-43.088
-41.1757
-41.8419
-41.9361
-35.8479
-36.7104
-35.5725
-37.2906
-31.0394
-28.357
-28.3954
-31.0612
-39.1816
-38.983
-38.8471
-38.9003
-39.5748
-37.7003
-39.2353
-39.2716
-45.7828
-42.2712
-43.4845
-44.8813
-72.311
-88.0545
-92.6319
-74.9043
31.2524
16.867
24.7969
24.9789
-56.7127
-127.265
-101.165
-101.291
-66.9187
-74.6647
-69.7651
-69.8239
-52.3161
-49.1254
-50.631
-50.788
-34.7383
-35.9057
-35.4698
-35.0468
-37.5535
-38.8031
-38.6784
-37.8614
-51.8279
-64.0633
-55.3883
-57.4011
-40.4662
-39.4406
-38.878
-41.2023
-36.4624
-37.2904
-37.8859
-36.1307
-31.2138
-28.1384
-28.4518
-31.3917
-46.2476
-42.7603
-45.3531
-44.0221
-72.5325
-88.2069
-74.9837
-91.0329
-84.5522
-108.758
-104.367
-98.8941
-60.6199
-52.1101
-64.3733
-58.7737
-56.3482
-52.8486
-60.0884
-55.3913
-49.8375
-96.7837
-112.021
-117.535
-85.8881
-109.343
-105.396
-97.7195
-49.4613
-98.0083
-113.24
-117.444
-56.613
-53.1072
-60.3357
-55.6895
-61.154
-52.5707
-64.8964
-59.2095
-99.7013
-87.7999
-89.7808
-81.919
-99.6357
-87.7769
-89.6556
-81.9386
-54.8023
-51.2215
-57.0974
-55.0533
-54.7367
-51.1966
-57.0921
-55.2212
-46.4613
-45.9625
-37.8133
-35.2203
-0.345492
16.42
3.64466
17.0356
1.57855
16.4257
2.45173
17.4041
-46.6152
-46.1922
-37.9566
-35.4032
145.131
139.848
155.277
158.548
141.662
129.578
146.901
146.318
129.661
140.605
146.133
147.273
140.409
145.644
159.008
155.629
-35.676
-36.9458
-35.6703
-36.8863
-33.7634
-33.7982
-34.3067
-34.5624
-40.6195
-42.554
-39.8731
-42.0391
-47.189
-48.7781
-44.1759
-46.133
-36.2682
-37.5086
-36.2554
-37.4635
-47.6723
-49.2684
-44.6854
-46.6061
-41.1764
-43.0854
-40.4765
-42.5716
-34.2909
-34.3298
-34.8488
-35.0876
-39.5185
-41.2997
-39.4937
-40.9427
-41.5371
-39.8484
-41.1872
-39.8186
-37.8378
-37.0837
-38.1701
-37.6226
-36.806
-37.3568
-37.655
-38.0287
-104.625
-63.4688
-107.924
-97.6138
-57.7535
-59.2146
-65.1905
-65.9332
-59.499
-57.9423
-66.1325
-65.4243
-64.6588
-107.142
-98.8928
-107.471
-27.1704
-29.3891
-24.2715
-26.9388
-47.0205
-46.0419
-47.0527
-45.6089
-45.6174
-46.3917
-53.9608
-49.1131
-36.5387
-36.3002
-34.6484
-34.2678
-25.9535
-29.2457
-23.4577
-26.4969
-37.4598
-36.9176
-35.6503
-34.9507
-48.8425
-49.5358
-56.2728
-52.9442
-50.5562
-48.9598
-50.4156
-47.1479
-39.907
-42.8649
-37.574
-40.3479
-40.3107
-43.7791
-37.1976
-40.0496
-42.8835
-42.4622
-41.6215
-40.1209
-39.7604
-38.2671
-37.9287
-41.0971
-48.6336
-50.543
-48.0975
-49.8835
-31.7604
-34.0001
-32.4493
-35.6062
-34.0524
-36.1677
-34.0187
-37.2448
-49.3229
-51.0928
-48.8156
-50.3326
-38.9522
-39.5777
-39.002
-38.7277
-40.5766
-40.1225
-39.6778
-39.8715
-36.7245
-38.2259
-36.1899
-37.9478
-34.1218
-31.6983
-34.2249
-32.3044
-89.6338
40.3138
-154.564
-33.5398
-102.339
-118.64
-51.8318
-43.6577
-43.1642
-46.3793
-46.7101
-42.0632
-49.6514
49.998
-47.0614
39.2032
-51.0912
-55.1106
-40.2509
-35.2411
-32.2143
-32.6561
-40.595
-35.3368
-155.903
-34.3946
-90.1849
41.2842
-103.079
-118.9
-47.1928
-46.8915
-54.0773
-45.601
-49.3496
-44.836
-47.5413
38.824
-49.9758
49.5035
-51.5922
-55.4101
-35.577
-37.2148
-43.5948
-38.9461
-43.8498
-38.3966
-46.9077
-44.1083
-37.2749
-39.5155
-43.5784
-38.9085
-44.9823
-43.1837
-32.4165
-37.7913
-32.9542
-35.3747
-33.0123
-32.2033
-36.226
-37.231
-59.2707
-69.6832
-54.5268
-53.0518
-55.31
-69.8447
-60.6466
-92.8825
-40.3667
-43.3513
-41.0522
-40.1823
-43.4992
-47.584
-48.9553
-46.4892
-47.5198
-44.9467
-45.1213
-43.469
-37.8284
-40.1566
-43.93
-39.3883
-32.7861
-38.6576
-36.2637
-37.4121
-33.7636
-35.5382
-33.3761
-32.4591
-59.5523
-70.4232
-63.2631
-94.1013
-54.809
-53.4657
-55.8077
-70.4297
-41.1056
-44.1422
-49.5364
-47.2454
-41.6286
-40.8789
-43.986
-48.1565
-54.6274
92.4621
-44.3254
97.0432
-78.774
-68.3346
152.259
158.476
-147.663
-65.2503
-148.368
-67.5655
-115.513
-115.496
65.2209
63.7805
-86.8922
-73.4614
-68.1722
-58.4941
-82.7559
-73.2262
-69.6145
-62.085
-47.5058
-39.2613
-42.5424
-37.6113
-47.8408
-46.8145
-37.3985
-36.4898
-40.689
-42.8688
-44.2681
-42.9762
-42.2611
-41.1716
-40.0924
-40.4951
-40.294
-38.0936
-35.0278
-37.2499
-39.2855
-40.1136
-39.1258
-37.836
-33.3161
30.1645
-33.5005
29.8786
-37.2196
-37.5524
90.9871
89.7603
-79.5977
-52.519
-64.6921
-38.5933
-72.5561
-93.6534
-37.505
-26.7354
-29.9223
-28.5207
-32.2175
-32.1722
-30.6679
-31.5838
-30.7314
-28.3164
-42.6633
-40.9309
-39.1184
-41.637
-42.0305
-38.8282
-44.4981
-43.5084
-54.7167
91.8785
-45.1906
96.5948
-79.9222
-69.4868
158.441
152.273
-86.6225
-73.5981
-69.0536
-58.7138
-82.1065
-73.7704
-69.7236
-62.2161
-50.92
-41.129
-45.406
-40.2679
-49.413
-51.0445
-39.3647
-39.0526
-42.5395
-39.9619
-31.9165
-36.197
-39.4949
-42.1952
-35.7436
-36.0688
-79.86
-52.7776
-64.8185
-39.1958
-93.9884
-72.8954
-26.8053
-37.7065
-45.5591
-43.8822
-40.6182
-42.9611
-40.6162
-44.9979
-45.4667
-45.7309
-34.0482
-36.0292
-33.2746
-35.1649
-34.0934
-33.7088
-36.7289
-35.9852
-44.7386
-40.5812
-46.6875
-44.1264
-48.0302
-48.2954
-39.9175
-41.924
-47.738
-46.0472
-47.8628
-45.9773
-50.1768
-50.0795
-44.4292
-44.4785
-33.5847
-32.2083
-36.8278
-35.2645
-34.6663
-36.3325
-31.6258
-33.3308
-39.7838
-39.5567
-39.0323
-40.3267
-39.1945
-39.4385
-39.4235
-39.5666
-51.7916
-61.6367
-47.1875
-53.2379
-46.704
-48.6936
-68.2647
-61.1178
22.5312
-2.63105
22.4108
-2.88959
31.6027
31.4691
-17.2133
-17.6912
-59.8415
-55.1499
-60.0234
-55.3875
-63.5621
-63.6464
-53.9034
-54.0267
-34.4935
-36.6862
-33.5438
-35.389
-34.553
-34.1469
-36.8432
-36.0351
-45.0179
-40.9594
-46.9839
-44.4959
-48.5663
-48.3387
-40.3745
-42.3571
-34.016
-32.4506
-37.3512
-35.7352
-36.9828
-35.1603
-31.7796
-33.6395
-52.1614
-61.8756
-47.6376
-53.5923
-49.1108
-47.1695
-61.4969
-68.723
-90.3947
-97.1687
-86.9394
-75.7043
-75.1313
-85.243
-68.462
-67.685
-90.1084
-96.4055
-87.0579
-75.9817
-85.2885
-75.2288
-67.992
-68.8286
-77.2123
-77.2565
-72.0094
-64.1474
-72.0754
-64.2132
-60.8319
-60.5962
-22.7316
-22.7813
-16.2516
0.187413
0.118512
-16.3464
9.22903
9.17751
192.762
203.128