# vtk DataFile Version 2.0
tet_velo
ASCII
DATASET UNSTRUCTURED_GRID
POINTS 29498 float
-0.9 0.175 -2.775
-0.901455 0.255 2.535
-0.9 0.725 -2.695
-0.895 1.07327 2.755
0.9 0.175 -2.775
0.901455 0.255 2.535
0.9 0.725 -2.695
0.895 1.07327 2.755
-0.899996 0.202156 -1.005
-0.899991 0.229313 0.765
-0.899961 0.842717 -0.878333
-0.828342 0.888855 0.938334
0.899996 0.202156 -1.005
0.899991 0.229313 0.765
0.899961 0.842717 -0.878333
0.828337 0.888851 0.938334
-1.79154 -0.19822 -4.2762
-1.79288 -0.14361 -2.84151
-1.78611 -0.118958 -1.07272
-1.78267 -0.109406 0.686686
-1.79136 -0.0796199 2.45469
-1.7917 -0.0207995 3.8855
-1.78938 0.0517163 5.32349
-1.79341 0.104916 -4.21942
-1.79569 0.169284 -2.77964
-1.78439 0.205882 -1.00176
-1.77385 0.234971 0.771912
-1.7926 0.290491 2.54889
-1.79209 0.35131 3.98037
-1.78851 0.419994 5.41683
-1.79364 0.689795 -4.11897
-1.79554 0.752201 -2.68111
-1.7779 0.842087 -0.871421
-1.72807 0.907185 0.941572
-1.77279 1.05301 2.75037
-1.78029 1.11204 4.17991
-1.77956 1.16259 5.60885
-1.78852 1.62094 -3.9332
-1.78669 1.69011 -2.48835
-1.77511 1.79388 -0.66353
-1.75024 1.91085 1.17135
-1.74328 2.04837 2.99568
-1.75157 2.14058 4.4395
-1.75926 2.20873 5.87354
-0.896156 -0.194063 -4.27319
-0.897771 -0.137576 -2.83712
-0.896371 -0.118383 -1.07331
-0.896508 -0.116633 0.680786
-0.899534 -0.102835 2.44437
-0.900398 -0.0354869 3.87851
-0.899535 0.0445972 5.31944
-0.897448 0.10529 -4.2185
-0.901579 0.339445 3.9746
-0.89925 0.415436 5.41378
-0.897893 0.678858 -4.12474
-0.893963 1.11865 4.18084
-0.892411 1.16619 5.60905
-0.897022 1.61271 -3.9389
-0.897526 1.68191 -2.49463
-0.894147 1.78938 -0.66732
-0.873199 1.90906 1.1718
-0.861347 2.054 2.99892
-0.867908 2.1484 4.44275
-0.874779 2.21516 5.8759
0.89877 -0.194063 -4.27319
0.899322 -0.137576 -2.83712
0.898586 -0.118383 -1.07331
0.89741 -0.116634 0.680786
0.896947 -0.102835 2.44437
0.89003 -0.0354871 3.87851
0.884522 0.0445969 5.31944
0.898963 0.10529 -4.2185
0.890144 0.339444 3.9746
0.884537 0.415435 5.41378
0.898 0.678858 -4.12474
0.889314 1.11865 4.18084
0.886177 1.16619 5.60905
0.888548 1.61271 -3.9389
0.884801 1.68191 -2.49463
0.871932 1.78937 -0.66732
0.871269 1.90905 1.1718
0.890228 2.054 2.99892
0.893989 2.1484 4.44275
0.892242 2.21516 5.8759
1.7948 -0.198221 -4.2762
1.79551 -0.143611 -2.84151
1.78942 -0.118959 -1.07272
1.78368 -0.109407 0.686685
1.78732 -0.0796206 2.45469
1.78161 -0.0208001 3.8855
1.77528 0.0517153 5.32349
1.79552 0.104915 -4.21942
1.7971 0.169283 -2.77964
1.787 0.205881 -1.00176
1.77439 0.234969 0.771912
1.78857 0.290491 2.54889
1.78166 0.351309 3.98037
1.77506 0.419993 5.41683
1.79382 0.689795 -4.11897
1.79561 0.752201 -2.68111
1.77799 0.842085 -0.871421
1.7283 0.907181 0.941572
1.77266 1.053 2.75037
1.77699 1.11203 4.17991
1.77417 1.16259 5.60885
1.7802 1.62093 -3.9332
1.77488 1.69011 -2.48835
1.75764 1.79388 -0.66353
1.74862 1.91085 1.17135
1.76489 2.04836 2.99568
1.77309 2.14057 4.4395
1.77469 2.20873 5.87354
-0.828186 0.45 -2.66319
0 0.171581 -2.77842
-0.902242 0.186334 -1.89
-0.898443 0.664135 2.64522
0 0.254405 2.53559
-0.895673 0.247206 1.65
0 0.750327 -2.72033
-0.898244 0.782122 -1.78667
0 1.06078 2.74251
-0.897493 1.01688 1.84667
0.828166 0.45 -2.66317
0.902242 0.186334 -1.89
0.898443 0.664135 2.64522
0.895647 0.247232 1.65
0.898244 0.782122 -1.78667
0.897493 1.01688 1.84667
-0.899993 0.215735 -0.12
-0.900007 0.522437 -0.941667
2.11969e-09 0.177644 -1.005
-0.844877 0.559084 0.851667
-7.03819e-09 0.177857 0.765
-0.899957 0.901592 0.0300001
-1.0619e-08 1.29578 -0.878333
-2.33388e-06 1.62677 0.938334
0.899993 0.215735 -0.12
0.900008 0.522437 -0.941667
0.844873 0.559082 0.851667
0.899957 0.901592 0.0300001
-0.900225 0.486218 -1.83833
-0.900006 0.54076 -0.045
-0.899913 0.611609 1.74833
1.05985e-09 0.17021 -1.89
-2.45925e-09 0.177724 -0.12
-3.5191e-09 0.183042 1.65
0 0.45 -2.74449
0 0.664135 2.77314
-5.30952e-09 1.20423 -1.78667
-1.17225e-06 1.59907 0.0300001
-1.16694e-06 1.36898 1.84667
0.900225 0.486218 -1.83833
0.900006 0.540759 -0.045
0.899913 0.611608 1.74833
-1.34784 0.172142 -2.77732
-0.898885 0.0187122 -2.80606
-0.898724 0.140145 -3.49675
-1.34703 0.272746 2.54195
-0.900495 0.0760825 2.48969
-0.901517 0.297222 3.2548
-1.34777 0.738601 -2.68805
-0.898947 0.701929 -3.40987
-0.898763 1.20346 -2.59482
-1.33389 1.06314 2.75268
-0.894481 1.09596 3.46792
-0.878173 1.56364 2.87696
0.899661 0.0187121 -2.80606
0.899481 0.140145 -3.49675
1.34855 0.172142 -2.77732
0.899201 0.0760824 2.48969
0.895799 0.297222 3.2548
1.34501 0.272745 2.54195
0.899 0.701929 -3.40987
0.8924 1.20346 -2.59482
1.3478 0.738601 -2.68805
0.892157 1.09596 3.46792
0.892614 1.56364 2.87696
1.33383 1.06314 2.75268
-1.34219 0.204019 -1.00338
-0.898183 0.0418866 -1.03915
-1.33692 0.232142 0.768456
-0.898249 0.0563398 0.722893
-1.33893 0.842402 -0.874877
-0.897054 1.31605 -0.772826
-1.2782 0.89802 0.939953
-0.850771 1.39896 1.05507
0.899291 0.0418865 -1.03915
1.3435 0.204019 -1.00338
0.8987 0.0563397 0.722893
1.33719 0.232141 0.768456
0.885946 1.31605 -0.772827
1.33897 0.842401 -0.874877
0.849803 1.39895 1.05507
1.27832 0.898016 0.939953
-1.79221 -0.170915 -3.55886
-1.79247 -0.0466523 -4.24781
-1.34385 -0.196141 -4.2747
-1.78949 -0.131284 -1.95711
-1.79428 0.0128366 -2.81057
-1.34532 -0.140593 -2.83931
-1.78439 -0.114182 -0.193015
-1.78525 0.0434622 -1.03724
-1.34124 -0.11867 -1.07301
-1.78702 -0.0945127 1.57069
-1.77826 0.0627827 0.729299
-1.33959 -0.113019 0.683736
-1.79153 -0.0502097 3.1701
-1.79198 0.105436 2.50179
-1.34545 -0.0912275 2.44953
-1.79054 0.0154584 4.6045
-1.7919 0.165255 3.93293
-1.34605 -0.0281432 3.882
-1.78894 0.235855 5.37016
-1.34446 0.0481568 5.32147
-1.79455 0.1371 -3.49953
-1.79353 0.397355 -4.1692
-1.34543 0.105103 -4.21896
-1.79004 0.187583 -1.8907
-1.79561 0.460742 -2.73037
-1.77912 0.220427 -0.114924
-1.78115 0.523984 -0.936591
-1.78322 0.262731 1.6604
-1.75096 0.571078 0.856742
-1.79234 0.3209 3.26463
-1.78269 0.671748 2.64963
-1.7903 0.385652 4.6986
-1.78619 0.731673 4.08014
-1.34684 0.345377 3.97748
-1.78403 0.791294 5.51284
-1.34388 0.417715 5.4153
-1.79459 0.720998 -3.40004
-1.79108 1.15537 -4.02608
-1.34577 0.684327 -4.12185
-1.78672 0.797144 -1.77626
-1.79112 1.22116 -2.58473
-1.75299 0.874636 0.0350756
-1.77651 1.31798 -0.767476
-1.75043 0.980095 1.84597
-1.73915 1.40902 1.05646
-1.77654 1.08252 3.46514
-1.75803 1.55069 2.87302
-1.77993 1.13731 4.89438
-1.76593 1.62631 4.30971
-1.33713 1.11534 4.18037
-1.76941 1.68566 5.7412
-1.33599 1.16439 5.60895
-1.78761 1.65552 -3.21077
-1.34277 1.61682 -3.93605
-1.7809 1.74199 -1.57594
-1.34211 1.68601 -2.49149
-1.76267 1.85237 0.253908
-1.33463 1.79163 -0.665425
-1.74676 1.97961 2.08351
-1.31172 1.90995 1.17157
-1.74743 2.09447 3.71759
-1.30231 2.05119 2.9973
-1.75542 2.17465 5.15652
-1.30974 2.14449 4.44113
-1.31702 2.21195 5.87472
-0.896963 -0.165819 -3.55515
-0.896802 -0.0443865 -4.24584
0.0013074 -0.194063 -4.27319
-0.897071 -0.127979 -1.95521
0.000775462 -0.137576 -2.83712
-0.896439 -0.117508 -0.19626
0.00110767 -0.118383 -1.07331
-0.898021 -0.109734 1.56258
0.00045106 -0.116633 0.680786
-0.899966 -0.069161 3.16144
-0.00129396 -0.102835 2.44437
-0.899967 0.00455517 4.59897
-0.900989 0.151979 3.92655
-0.00518411 -0.035487 3.87851
-0.899393 0.230016 5.36661
-0.00750673 0.044597 5.31944
-0.897671 0.392074 -4.17162
0.000757198 0.10529 -4.2185
-0.900415 0.37744 4.69419
-0.897771 0.729049 4.07772
-0.00571786 0.339445 3.9746
-0.89583 0.790811 5.51141
-0.00735656 0.415435 5.41378
-0.897458 1.14578 -4.03182
5.35492e-05 0.678858 -4.12474
-0.893187 1.14242 4.89494
-0.880935 1.63353 4.31179
-0.00232444 1.11865 4.18084
-0.883595 1.69067 5.74247
-0.003117 1.16619 5.60905
-0.897274 1.64731 -3.21677
-0.00423711 1.61271 -3.9389
-0.895836 1.73564 -1.58098
-0.00636243 1.68191 -2.49463
-0.883673 1.84922 0.252241
-0.0111074 1.78937 -0.66732
-0.867273 1.98153 2.08536
-0.00096495 1.90906 1.1718
-0.864627 2.1012 3.72083
0.0144407 2.054 2.99892
-0.871343 2.18178 5.15932
0.0130408 2.1484 4.44275
0.00873139 2.21516 5.8759
0.899046 -0.165819 -3.55515
0.898866 -0.0443866 -4.24584
1.34679 -0.196142 -4.2747
0.898954 -0.127979 -1.95521
1.34742 -0.140593 -2.83931
0.897998 -0.117508 -0.19626
1.344 -0.118671 -1.07301
0.897178 -0.109734 1.56258
1.34054 -0.11302 0.683736
0.893488 -0.0691612 3.16144
1.34213 -0.0912279 2.44953
0.887276 0.00455486 4.59897
0.890087 0.151979 3.92655
1.33582 -0.0281436 3.88201
0.884529 0.230016 5.36661
1.3299 0.0481561 5.32147
0.898482 0.392074 -4.17162
1.34724 0.105102 -4.21896
0.88734 0.37744 4.69419
0.889729 0.729049 4.07772
1.3359 0.345377 3.97748
0.885357 0.79081 5.51141
1.3298 0.417714 5.4153
0.893274 1.14578 -4.03182
1.34591 0.684326 -4.12185
0.887745 1.14242 4.89494
0.891652 1.63353 4.31179
1.33315 1.11534 4.18037
0.889209 1.69067 5.74247
1.33018 1.16439 5.60895
0.886674 1.64731 -3.21677
1.33438 1.61682 -3.93605
0.878367 1.73564 -1.58098
1.32984 1.68601 -2.49149
0.871601 1.84921 0.252241
1.31479 1.79163 -0.665425
0.880749 1.98153 2.08536
1.30994 1.90995 1.17157
0.892109 2.1012 3.72083
1.32756 2.05118 2.9973
0.893116 2.18178 5.15932
1.33354 2.14449 4.44113
1.33347 2.21194 5.87472
1.79516 -0.170916 -3.55885
1.79516 -0.0466527 -4.24781
1.79247 -0.131285 -1.95711
1.7963 0.0128363 -2.81057
1.78655 -0.114183 -0.193015
1.78821 0.0434614 -1.03724
1.7855 -0.0945137 1.57069
1.77903 0.0627813 0.729299
1.78446 -0.0502104 3.1701
1.78795 0.105435 2.50179
1.77844 0.0154576 4.6045
1.78163 0.165254 3.93294
1.77517 0.235854 5.37016
1.79631 0.137099 -3.49953
1.79467 0.397355 -4.1692
1.79205 0.187582 -1.8907
1.79635 0.460742 -2.73037
1.78069 0.220425 -0.114925
1.78249 0.523983 -0.936591
1.78148 0.26273 1.6604
1.75134 0.571075 0.856742
1.78512 0.3209 3.26463
1.78062 0.671747 2.64963
1.77836 0.385651 4.6986
1.77933 0.731672 4.08014
1.77462 0.791293 5.51284
1.79471 0.720998 -3.40004
1.78701 1.15536 -4.02608
1.7868 0.797143 -1.77626
1.78524 1.22115 -2.58473
1.75314 0.874633 0.0350755
1.76781 1.31798 -0.767476
1.75048 0.980092 1.84597
1.73846 1.40901 1.05646
1.77483 1.08252 3.46514
1.76877 1.55068 2.87302
[...]
POINT_DATA 29498
VECTORS point_vectors float
-9.13239 -8.37213 17.5534
0.408916 0.494164 3.03827
-7.23109 2.92676 8.46617
0.196022 0.171808 1.09401
9.13834 -8.35522 17.5575
-0.452822 0.54525 3.22612
7.24317 2.9557 8.46657
-0.190497 0.105545 1.1433
0.0283707 0.0313874 1.49101
-0.123789 0.103084 2.13929
0 0 0
0 0 0
-0.0278808 0.032159 1.49173
0.128661 0.107633 2.14385
0 0 0
0 0 0
-0.452736 -0.179677 19.9473
-1.22803 -0.595342 20.6097
-0.334033 -0.37015 21.6969
0.0718229 -0.165797 21.898
0.425514 0.0927449 21.8177
0.691979 0.231189 21.6091
0.882784 0.290514 20.9602
-0.541398 -0.141221 19.8881
-1.58204 -0.491571 20.6229
-0.433794 -0.423656 21.6973
0.0604633 -0.209132 21.9389
0.514518 0.0458992 21.8635
0.790657 0.146879 21.6484
0.793601 0.129725 21.2961
-0.626839 0.0105691 19.8284
-1.78358 -0.00441966 20.6409
-0.746633 -0.459688 21.7181
-0.0404481 -0.340129 22.0792
0.603263 -0.165813 21.8589
0.891883 -0.395892 21.1299
0.657283 -0.354003 21.2754
-0.594132 0.286568 19.949
-1.21801 0.545993 20.6571
-0.954463 0.120543 21.612
-0.146858 -0.14994 22.0703
0.417466 -0.370177 21.75
0.458097 -0.385188 21.0264
0.337951 -0.362344 20.6801
-0.432171 -0.353236 19.4947
-2.65219 -3.45808 20.1923
0.0716785 0.372622 21.3756
0.308607 0.385407 20.9292
0.533188 0.802689 20.906
0.784729 1.33346 19.9449
1.04677 1.22722 18.7109
-0.527017 -0.29367 19.3194
0.679257 1.72795 14.2542
1.08076 0.695429 14.0275
-0.683248 0.0583283 19.0682
2.54414 0.149841 14.8028
1.84931 -0.236085 16.5885
-0.562545 0.621502 19.4295
-1.98029 2.2722 20.2558
-2.24616 1.48026 21.514
-0.223287 -0.242538 22.5256
0.355179 -0.882937 22.0113
0.400412 -1.03995 21.6602
0.0871323 -0.569999 21.4388
0.436176 -0.350387 19.5111
2.65204 -3.44694 20.197
-0.0646656 0.372365 21.4074
-0.287805 0.3897 20.9408
-0.509862 0.886689 20.9928
-0.795614 1.50295 19.7431
-1.0755 1.41677 19.1734
0.530298 -0.295517 19.3156
-1.06776 1.66465 14.0532
-1.40855 0.61722 14.6151
0.683861 0.0587794 19.0714
-2.09783 -0.151188 12.1131
-1.66833 -0.123594 16.8435
0.56006 0.623182 19.4231
1.97773 2.30309 20.2496
2.26773 1.56956 21.4974
0.240396 -0.249971 22.5248
-0.349354 -0.872452 22.0263
-0.227296 -0.816796 22.2836
-0.0815125 -0.662129 21.3714
0.453885 -0.178698 19.9544
1.23573 -0.569569 20.5833
0.337491 -0.372701 21.7011
-0.0730907 -0.151204 21.9091
-0.450692 0.116685 21.8535
-0.760248 0.29572 21.4364
-0.919057 0.225734 20.8972
0.541973 -0.141014 19.8904
1.5801 -0.496331 20.6265
0.437675 -0.419429 21.7042
-0.0587858 -0.203307 21.9688
-0.555136 0.0437661 21.8901
-0.931705 0.159521 21.5199
-0.759136 -0.0210948 21.2401
0.626532 0.0104334 19.8333
1.77758 -0.0122291 20.6459
0.749691 -0.460707 21.7231
0.0352895 -0.342178 22.0913
-0.653957 -0.200497 21.8898
-1.04936 -0.268744 21.5378
-0.588614 -0.352631 21.1354
0.595994 0.287757 19.9457
1.23273 0.554453 20.6582
0.983039 0.123942 21.6191
0.147978 -0.1735 22.1047
-0.429617 -0.386936 21.7344
-0.525537 -0.471685 21.2626
-0.262703 -0.286116 20.7296
-3.27719 -0.565719 1.7292
0.0284781 -8.05175 3.94319
0.0173807 0.106908 1.192
0.0632078 0.044505 0.417362
0.0399876 0.0261916 0.141783
0.053218 0.0110525 0.99774
0.000351586 0.320735 0.293931
0.00151796 0.0171076 0.25946
0.0287617 0.0618464 -0.0676734
0.00290397 0.0409323 0.118388
3.26053 -0.565789 1.7264
-0.017282 0.107056 1.19152
-0.0740402 0.0268356 0.461896
-0.0472195 0.0155097 1.00272
-0.00153554 0.0172505 0.259523
-0.00278984 0.0392406 0.119831
-0.0370067 0.0880383 2.46131
2.4991e-07 -4.15783e-06 6.2182e-05
5.39405e-05 6.54791e-06 0.00561424
0 0 0
-1.59402e-07 -4.43502e-10 -1.123e-05
6.24937e-05 0.00256172 0.0159345
1.93305e-05 0.00160235 0.00983367
2.44132e-05 -0.00196811 0.0180211
0.0400738 0.0911672 2.46376
4.86988e-09 8.03542e-08 -1.21141e-06
-1.41918e-17 3.33966e-17 5.11289e-17
-6.25353e-05 0.00256375 0.0159787
-5.35647e-07 -3.31164e-05 7.04375e-05
1.10513e-07 3.02757e-06 3.68874e-05
1.73901e-06 5.96008e-05 0.000349876
1.19356e-08 1.56611e-07 -2.88481e-06
-8.48685e-08 -5.15509e-09 -4.04764e-06
2.90147e-05 0.000144059 0.00220576
0 0 0
0.00450898 0.00842929 0.000951768
1.54709e-06 0.000567642 0.00751993
4.68236e-05 0.0209975 0.108121
0 0 0
5.34092e-07 -3.31195e-05 7.06574e-05
-9.24759e-08 2.55258e-06 3.08861e-05
-1.75391e-06 5.89032e-05 0.000358988
-3.03833 -1.34095 20.4068
-4.17186 -4.95696 19.8165
-1.57674 -1.03291 18.3807
0.693602 0.171971 20.7673
0.593735 0.809091 16.7714
0.344937 0.877877 9.92395
-3.64923 0.281041 20.5608
-2.05981 0.351293 17.7022
-4.52004 3.44548 19.5484
0.958802 -0.0105044 21.15
1.17105 1.23977 7.98845
1.64521 -0.166168 15.5706
4.17588 -4.94303 19.8204
1.58119 -1.03289 18.3785
3.03709 -1.33737 20.4071
-0.5802 0.91701 16.9658
-0.648199 1.20456 10.6894
-0.777006 0.208244 20.8642
2.06209 0.351718 17.7014
4.53175 3.49953 19.5203
3.64885 0.278739 20.5624
-1.18242 0.783165 8.33581
-1.57104 -0.261792 16.0664
-1.0227 -0.0947856 21.2069
-0.312144 -0.795044 21.5791
0.883033 0.399051 17.0791
0.184056 -0.267568 20.6407
0.268389 0.357148 16.0028
-0.869639 -1.04704 21.9665
-2.93497 -1.06354 10.9164
0.182966 -0.382976 20.859
0.581753 0.812357 2.09326
-0.872445 0.400695 17.0981
0.315045 -0.791217 21.5828
-0.24546 0.366794 16.0148
-0.180482 -0.262438 20.6534
2.97879 -1.10515 10.2641
0.871553 -1.04878 21.9714
-0.561778 0.780327 2.0278
-0.183291 -0.385685 20.8737
-0.849346 -0.374847 20.069
-0.497417 -0.160223 19.9168
-0.493639 -0.263942 19.7424
-0.840822 -0.546224 21.4776
-1.40397 -0.54423 20.6205
-1.92802 -1.38489 20.5103
-0.094251 -0.280642 21.8107
-0.372721 -0.392838 21.7247
-0.0631487 -0.42822 21.8683
0.248364 -0.0292035 21.8717
0.0652555 -0.187636 21.9196
0.27053 -0.085523 21.8867
0.551187 0.190813 21.6705
0.472773 0.0746576 21.8351
0.590854 0.29635 21.7183
0.54993 0.209916 20.7313
0.827101 0.254878 21.5823
0.978765 0.42799 21.0539
0.805253 0.235275 21.1715
1.03169 0.67333 21.1518
-1.05243 -0.295591 19.9872
-0.594207 -0.0742898 19.8363
-0.584508 -0.211845 19.6292
-1.01786 -0.498527 21.5744
-1.77048 -0.279883 20.6498
-0.139253 -0.331884 21.8209
-0.567109 -0.48216 21.7261
0.269547 -0.0698147 21.9459
0.0213483 -0.288269 22.0063
0.683531 0.122749 21.7648
0.579254 -0.0398784 21.8948
1.17587 0.0931887 22.0227
0.855556 -0.0400548 20.8218
1.21977 0.321466 20.6759
0.711007 -0.0657231 21.3396
0.902916 0.445383 21.0563
-1.23346 0.0249102 19.924
-0.633054 0.179419 19.8627
-0.719671 0.0374401 19.4819
-1.23583 -0.301303 21.5383
-1.55151 0.368138 20.6687
-0.437139 -0.473674 21.9375
-0.969826 -0.191833 21.668
0.299148 -0.190499 22
-0.134363 -0.248888 22.1123
0.725675 -0.279944 21.6539
0.551989 -0.321475 21.8026
1.00634 -0.27341 21.5016
0.761678 -0.461394 21.8973
1.67505 -0.08495 20.0552
0.485876 -0.531682 21.146
1.23019 -0.269779 19.7522
-0.954348 0.460945 20.166
-0.636004 0.433706 19.6922
-1.12741 0.313835 21.2574
-1.68163 1.10942 20.5539
-0.640217 -0.0232797 21.9544
-1.53579 0.411577 21.6681
0.212015 -0.276957 21.9426
-0.207063 -0.168183 22.3565
0.50371 -0.391956 21.6771
0.442292 -0.550824 21.7984
0.512482 -0.379391 20.8186
0.594898 -0.674827 21.2017
0.309915 -0.675959 21.0613
-1.08809 -1.12726 19.1058
-0.486882 -0.331199 19.4081
0.000479798 -0.454192 19.2387
-1.08874 -0.444056 22.7922
0.00207854 -6.47138 19.6525
0.316748 0.35234 21.0244
0.00394262 -0.205039 13.8619
0.440466 0.595148 20.8767
0.0120547 -0.0605808 12.209
0.593109 0.985723 20.3265
0.118852 0.358287 12.5553
1.1289 1.28233 21.0757
0.558489 1.51276 15.8874
0.405098 0.794321 11.1738
1.06362 1.01651 15.7356
-0.00392081 0.89597 10.2905
-0.628013 -0.151778 19.1566
0.00026999 -0.402294 18.9462
1.20878 0.836278 10.4277
1.87885 1.3101 11.3612
-0.335266 -1.02682 -2.01083
1.51608 0.267418 13.0983
-0.150644 0.339822 6.41902
-0.658117 0.413551 19.1744
0.00152181 0.0599484 18.6378
1.82862 -0.375177 15.4402
1.46066 -1.21105 18.2986
-0.714777 -2.48142 -0.296098
0.671172 -1.02989 18.51
0.0543666 -1.65498 6.71217
-1.22347 1.39092 19.3762
-0.00236583 0.832795 19.0977
-1.92978 1.56597 21.4164
-0.0177321 4.0776 19.7539
-1.90598 1.07853 22.752
-0.0330544 3.6261 21.1228
0.226248 -0.715248 22.24
0.00698525 -0.0031982 20.7539
0.52166 -1.05203 21.322
0.039767 -0.857655 22.1489
0.704515 -0.724612 22.0073
-0.232938 -1.33475 21.4967
-0.0880555 -1.32317 21.0532
1.08736 -1.11971 19.1094
0.490635 -0.330787 19.4157
0.495671 -0.262165 19.7442
1.08603 -0.442582 22.7906
1.92465 -1.38847 20.5081
-0.302338 0.354991 21.0426
0.073782 -0.42684 21.8697
-0.408061 0.605946 20.884
-0.262902 -0.0780501 21.9015
-0.646731 1.2538 20.4789
-0.625379 0.353916 21.7899
-0.95554 1.38137 20.1009
-0.807472 1.7741 16.3385
-1.12609 0.498407 21.3135
-1.24355 1.14527 16.3161
-0.991472 0.78299 21.3548
0.629471 -0.152745 19.1522
0.584023 -0.211526 19.6328
-1.50589 1.3363 13.8306
-1.7381 1.13827 10.3738
-1.55559 0.403001 20.5213
-1.49986 0.267042 13.5871
-0.934725 0.285214 21.2236
0.65578 0.414069 19.1714
0.722012 0.0365799 19.4818
-1.49179 -0.379387 15.1926
-1.32284 -1.2078 18.8058
-1.55681 -0.317047 20.1216
-0.752505 -0.925734 18.5664
-1.05987 -0.227665 19.9996
1.21857 1.40471 19.3621
0.638236 0.43594 19.6888
1.92999 1.60766 21.4182
1.69915 1.13702 20.5494
1.92261 1.13022 22.7727
1.57672 0.439092 21.6714
-0.207557 -0.719027 22.2392
0.217234 -0.178696 22.3703
-0.475756 -0.995832 21.3315
-0.443824 -0.596878 21.8056
-0.676972 -0.875441 21.6572
-0.531845 -0.737535 21.7726
-0.262519 -0.700284 21.0132
0.849463 -0.371876 20.0694
0.498182 -0.15966 19.9216
0.840763 -0.544854 21.4817
1.40996 -0.527321 20.5981
0.0924758 -0.279311 21.8258
0.375668 -0.392081 21.7302
-0.249053 -0.024283 21.8924
-0.0653089 -0.17688 21.9403
-0.619639 0.228337 21.6922
-0.496944 0.0938973 21.8684
-0.79945 0.174251 21.0817
-0.820829 0.246227 21.5073
-0.809171 0.0912895 21.1741
1.05741 -0.292547 19.9935
0.59868 -0.0741529 19.8378
1.02173 -0.49619 21.5782
1.76387 -0.283603 20.6539
0.141088 -0.333394 21.8332
0.572011 -0.48167 21.7308
-0.287981 -0.0682413 21.9773
-0.0239071 -0.283389 22.0114
-0.785244 0.123875 21.7185
-0.637497 -0.0615773 21.9123
-0.803261 0.172772 21.599
-1.15993 -0.0593542 21.0389
-0.637001 -0.199702 21.082
1.24218 0.0238668 19.9245
0.635312 0.179063 19.8606
1.24401 -0.302402 21.5339
1.57049 0.371742 20.6683
0.43491 -0.477923 21.9506
0.98737 -0.185303 21.6682
-0.326892 -0.196524 22.0411
0.142551 -0.249523 22.1184
-0.892187 -0.229996 21.6795
-0.575742 -0.343152 21.8328
-1.04303 -0.290938 21.1293
-0.816684 -0.403042 21.1119
-0.422307 -0.432316 21.3515
0.963952 0.467302 20.1611
1.14415 0.31882 21.2646
0.664429 -0.0249557 21.9931
-0.201941 -0.289664 21.9822
-0.518835 -0.471662 21.5284
-0.626546 -0.44421 20.7037
-0.958462 -0.329636 20.0123
-1.31149 -1.10889 18.7598
-1.06215 -0.669582 19.6934
-1.45989 -0.574584 19.3981
-0.539604 -0.238552 19.6854
-2.45483 -1.487 20.4679
-0.929037 -0.534841 21.5481
0.00354916 0.553746 18.7135
-0.843403 -0.852993 21.9597
-1.26121 -1.07896 22.3508
-0.0987884 -0.633377 21.9604
-0.116386 -0.308911 21.8085
0.609912 0.271026 16.5099
0.157273 -0.274684 21.8587
-0.0325999 -0.568057 20.9699
0.268113 -0.204952 21.6092
0.261762 -0.0509101 21.8844
0.573012 0.612423 15.9386
0.422581 0.102416 21.8276
0.394028 -0.0497181 20.7115
0.676255 0.222744 21.3287
0.644567 0.154314 21.7188
0.739732 1.21581 16.4616
0.784086 0.438659 21.5706
1.00097 0.261424 20.8756
1.29652 0.344042 20.4489
0.89685 0.208483 21.5051
1.23687 1.09971 15.2349
0.941076 0.491026 21.5055
1.39819 0.435757 21.042
0.95118 0.620053 21.3703
-1.16298 -0.173849 19.9233
-2.00853 -0.518022 17.6778
-1.81301 0.174415 19.1578
-0.666832 -0.110628 19.526
-3.95333 -0.558742 20.4933
-1.1463 -0.396021 21.5775
-1.49437 -0.646553 22.1664
-0.493943 -0.73207 21.7794
-0.268372 -0.438544 21.9076
-0.436252 -0.896691 21.7004
0.194498 -0.30421 21.0276
0.279906 -0.140192 21.9707
0.516939 -0.0311397 21.1165
0.773436 0.150672 21.1324
0.665503 -0.0505316 21.6315
-0.290721 1.46316 4.37395
1.22389 -0.147699 21.2883
1.60206 0.259174 19.7296
1.20624 -0.0698735 21.8206
1.46405 0.403098 10.1611
1.31804 -0.197814 19.3605
1.11781 -0.00718608 19.6843
-1.16181 0.347087 19.9885
-1.8018 1.3783 18.4532
-1.20263 0.841916 19.8321
-0.707854 0.259947 19.5373
-2.6784 1.00179 20.5119
-1.27973 0.0656069 21.3801
-2.62961 0.0750028 17.3341
-1.57297 0.693826 21.3485
-1.75514 -0.432129 21.8229
-0.656756 -0.259578 21.9662
-0.0473283 0.609453 6.01738
-1.11518 0.157019 22.2514
-0.261814 -0.362623 22.1321
0.296689 -0.257266 21.9905
1.8708 1.10724 9.85023
0.281956 -0.423749 22.0836
0.796658 -0.534198 21.8336
0.588451 -0.449061 21.5377
1.49669 -0.796302 18.6808
0.558585 -0.673548 21.5706
0.963688 -0.733174 21.761
0.76625 -0.428356 21.605
1.37627 -0.861105 18.6403
0.668958 -0.63553 21.4928
0.498138 -0.804019 21.154
1.31356 -1.11074 18.7648
0.00627282 -1.73108 18.291
0.00176904 -1.65 16.9665
-0.000414151 -0.460241 19.0673
-0.000262601 -10.4113 19.0642
0.00273373 0.553727 18.7395
0.00379902 -1.547 20.5338
0.00453378 0.0301958 3.56661
-0.595754 0.275425 16.5209
0.00601579 -0.0891628 12.3479
0.0159081 -0.011518 5.28384
-0.535385 0.631412 15.9538
0.0319636 0.0974871 12.3212
0.254106 0.242426 5.5368
-0.875596 1.50834 16.914
0.331341 0.21305 11.8203
0.469251 -0.799511 -2.77601
0.189792 -0.0320431 3.60498
-1.23789 1.4766 16.5189
-0.113017 1.33501 10.6854
-0.19018 1.26147 2.59179
-0.0970371 0.72828 8.2822
2.01185 -0.51973 17.673
0.000821805 0.735305 15.6272
0.00281217 -0.177881 18.7086
-0.201459 1.142 5.85646
-0.0947435 -0.726014 0.435401
-0.966442 -2.14987 -5.12543
-1.56705 0.738948 12.1754
-0.042378 -2.15126 2.86145
-0.095066 -0.828504 3.69165
1.80029 1.38645 18.4424
-0.0062111 2.24199 18.676
-0.00218873 0.55656 18.7218
-0.0141096 7.54159 17.4744
2.48295 0.0989505 16.5422
-0.0262125 3.14344 21.4115
-0.00743537 1.36855 5.75081
0.0101183 0.622377 5.50383
-0.00787397 2.72683 21.7856
0 0 0
-1.80023 1.07166 10.1615
0.0117076 -0.537931 20.928
0.0662503 -0.183084 4.14262
-1.38381 -0.965713 18.667
0.0569703 -1.07447 22.1042
0.134739 -1.5423 12.9576
-1.3847 -0.73777 19.1714
0.0636502 -0.786415 21.3235
-0.124975 -1.41538 17.0215
0.956702 -0.336251 20.0239
1.06428 -0.66903 19.6984
1.45979 -0.573486 19.4006
0.540598 -0.237764 19.6882
2.45015 -1.47477 20.4723
0.930733 -0.531089 21.5499
0.848868 -0.85335 21.9588
1.26051 -1.07413 22.3462
0.105926 -0.63157 21.9613
0.117556 -0.306798 21.8214
-0.147732 -0.272279 21.8656
0.0366575 -0.565766 20.9812
-0.260973 -0.197506 21.6216
-0.268027 -0.0416831 21.9102
-0.4171 0.112394 21.8512
-0.397673 -0.0401961 20.7381
-0.731877 0.281165 21.4007
-0.706149 0.176252 21.7156
-0.865228 0.560019 21.625
-1.18698 0.332116 20.9357
-1.34677 0.48619 20.9883
-0.790743 0.168338 21.3948
-1.00325 0.711832 21.8687
-1.23915 0.470367 19.7976
-0.880847 0.648214 21.633
1.19301 -0.16691 19.9396
1.81036 0.179194 19.1562
0.668676 -0.110406 19.5253
3.94988 -0.558537 20.4977
1.15406 -0.396076 21.579
1.4933 -0.648572 22.1673
0.495455 -0.732307 21.7875
0.272677 -0.439404 21.9129
0.437602 -0.899385 21.7109
-0.194111 -0.301887 21.0455
-0.303284 -0.141721 21.9947
-0.524287 -0.0548403 21.1628
-0.878274 0.11095 21.2479
-0.864853 -0.0954561 21.9063
-1.33377 -0.226425 21.0794
-1.61718 -0.0263727 22.0734
-0.842625 0.0168218 21.3572
-1.42999 -0.722071 20.7321
-0.912454 -0.101903 19.7607
1.17353 0.351793 19.9836
1.21289 0.855022 19.8222
0.707934 0.262206 19.5348
2.70548 1.0163 20.5125
1.29425 0.0591997 21.3829
1.59257 0.714155 21.3524
1.77846 -0.44072 21.8318
0.667478 -0.265651 21.9879
1.13423 0.160361 22.2752
0.266211 -0.372498 22.14
-0.304506 -0.271383 22.0188
-0.265223 -0.43857 22.0956
-0.800393 -0.586314 21.8635
-0.753816 -0.428023 21.6075
-0.570902 -0.642683 21.6153
-1.23243 -0.825023 21.3205
-0.761804 -0.293691 20.9724
-0.736723 -0.778166 21.1042
-0.450901 -0.748242 21.3305
-1.23943 -0.662814 19.5534
-0.954621 -0.978688 22.0867
0.127411 -0.452511 21.7617
0.4512 0.00858036 21.4207
0.840825 0.40132 21.2056
1.21751 0.507193 22.125
-1.73756 -0.330667 19.2123
-1.45274 -0.591258 22.3844
-0.141716 -0.649086 21.3845
0.402599 -0.00769572 21.1017
1.14939 0.192803 21.0108
1.51793 -0.0137165 20.1876
-1.62144 0.675898 19.4383
-2.02219 0.0549714 21.6854
-1.22752 -0.556014 22.2292
0.475069 -0.348357 22.0525
0.975402 -0.708259 21.4502
0.944746 -0.632611 21.7719
0.00168143 -1.81028 17.6938
0.0038319 -0.10064 5.40112
0.00788433 0.000674201 4.51185
0.041782 0.128812 5.58059
0.888941 0.189161 3.9647
-0.15082 1.29809 6.62896
0.0016356 -0.751382 15.7907
-0.380413 -1.64043 -2.77933
-0.194282 -0.390158 -0.316978
-0.00728068 2.27851 16.9998
-0.0131429 2.74378 16.0333
0 0 0
0.00192628 -0.0389672 1.98383
0.156777 -0.865811 8.31109
0.0430969 -1.29203 13.9707
1.23965 -0.664023 19.5564
0.958581 -0.978234 22.0852
-0.120414 -0.451565 21.7663
-0.453791 0.0228221 21.4469
-1.00758 0.522223 21.1549
-1.42509 0.567227 19.9179
1.73581 -0.329675 19.214
1.45225 -0.591113 22.3846
0.142729 -0.648733 21.3955
-0.414027 -0.0135099 21.1467
-1.31461 0.0972495 21.0414
-1.50651 -0.0531474 19.8846
1.62669 0.680585 19.4294
2.04574 0.0547187 21.6944
1.24161 -0.565021 22.2379
-0.46136 -0.375968 22.0882
-0.990586 -0.772669 21.449
-0.889714 -0.545894 20.9905
-2.19047 -0.0141159 1.07127
-1.99195 -11.9835 6.58862
-0.120905 0.250763 2.1748
0.131114 0.045017 0.494236
-0.0335253 0.0537579 0.300133
0.0043987 0.0055112 0.196536
-11.8188 -1.07358 9.74978
-0.0185144 0.0625241 0.0545289
-0.00449127 -0.0389546 0.38009
0.141836 0.147132 0.813115
0.0562969 0.0778975 -0.0770945
0.119232 0.233207 0.58942
1.99328 -11.9837 6.58545
2.12853 -0.019866 1.04626
0.121105 0.250839 2.17301
0.0713813 0.0672121 0.352895
-0.162348 0.0355086 0.564973
-0.00322959 0.00637328 0.200012
0.0189805 0.0640531 0.055851
11.8028 -1.07705 9.75574
0.00443725 -0.0385585 0.380199
0.0154928 0.0396547 -0.0420409
-0.155202 0.097404 0.868473
-0.110341 0.21109 0.598253
0.0424141 0.0315675 1.14679
0.0169473 0.0434801 2.27542
0 0 0
0.0110473 -0.000395197 0.0201355
-0.0143137 0.0715926 1.80629
-0.0821804 0.126552 2.4588
-5.74345e-07 -2.81916e-05 -0.000182177
0.000211649 -2.15855e-07 0.00228439
-0.0070473 -0.0240438 0.262274
-2.31162e-07 1.34056e-06 -6.22261e-05
2.19882e-07 0.000161703 0.00183657
-0.0100187 0.00286033 0.0158649
0.0087749 0.0873421 0.234365
0 0 0
2.69158e-05 0.00200524 0.00977571
0.00432527 -0.00284651 0.0258065
-0.0421915 0.0318702 1.14676
-0.01092 -0.000391023 0.0199661
-0.0150222 0.0455656 2.27677
0 0 0
0.0189051 0.0765284 1.81425
-0.000195006 -1.24006e-07 0.00227332
0.0867651 0.131034 2.46252
5.59514e-07 -2.82814e-05 -0.000182834
0.00705026 -0.0240019 0.262452
0.00981792 0.00278669 0.0154662
1.33512e-07 7.60989e-07 -3.60704e-05
-2.69924e-07 0.000174814 0.00197989
-0.00867967 0.0861355 0.23588
-0.00424391 -0.00284942 0.0258321
0 0 0
-2.70574e-05 0.00199892 0.00980109
-9.5491e-06 -0.000117193 6.4131e-07
0 0 0
-3.73749e-10 2.25163e-08 2.84557e-08
0 0 0
-9.2147e-07 1.53565e-06 -1.04431e-06
1.14305e-06 2.13337e-08 -1.32366e-06
8.18963e-07 1.80775e-05 0.000129065
-0.00360959 0.00536628 0.000121003
0 0 0
0.00938388 -0.00391582 -0.00605543
9.98745e-07 3.80617e-05 0.000345399
-0.000247299 0.00437696 0.188404
0.00305484 0.0346766 0.00100636
1.3441e-05 0.0825786 0.164849
3.63402e-06 -3.9196e-05 0.000226911
-0.000973884 0.000427209 0.00674014
1.22659e-18 4.55333e-18 8.47961e-20
0 0 0
1.08879e-06 3.46589e-05 0.000144318
0.000456951 -0.000335221 0.00144435
0 0 0
8.67539e-06 -0.000106379 5.8014e-07
-1.19016e-06 2.18522e-08 -1.41137e-06
9.1716e-07 1.55768e-06 -9.60633e-07
0.00579064 0.00332203 0.000637163
-8.73167e-07 1.72635e-05 0.000138143
0.00268402 0.00317228 0.196512
-9.71324e-07 3.80493e-05 0.000343725
0.00097674 0.000427535 0.00674326
-3.65078e-06 -3.91687e-05 0.000227563
-0.00020492 -0.000280948 0.00123637
-1.07595e-06 3.31283e-05 0.000145813
1.79049e-07 -1.32898e-05 -0.000184832
0.000286603 -2.11956e-07 0.00172015
1.18728e-09 -2.21431e-07 1.08073e-06
-5.12669e-08 -2.88008e-07 -1.56902e-05
-2.09474e-08 -1.21922e-07 -5.22818e-07
-4.18026e-08 -3.08153e-09 -1.17242e-06
2.64003e-08 1.08835e-06 8.06501e-06
4.92904e-06 0.000212052 0.0014112
4.55142e-07 7.94975e-09 2.89721e-05
-9.15688e-08 -4.19373e-11 -6.86996e-06
4.39921e-08 4.4985e-06 3.52176e-05
-0.00558897 0.0141254 0.0745271
-1.77705e-07 -4.63255e-06 -3.86567e-05