# vtk DataFile Version 2.0
tri_press
ASCII
DATASET UNSTRUCTURED_GRID
POINTS 3682 float
-0.9 0.175 -2.775
-0.901455 0.255 2.535
-0.9 0.725 -2.695
-0.895 1.07327 2.755
0.9 0.175 -2.775
0.901455 0.255 2.535
0.9 0.725 -2.695
0.895 1.07327 2.755
-0.899996 0.202156 -1.005
-0.899991 0.229313 0.765
-0.899961 0.842717 -0.878333
-0.828342 0.888855 0.938334
0.899996 0.202156 -1.005
0.899991 0.229313 0.765
0.899961 0.842717 -0.878333
0.828337 0.888851 0.938334
-1.79154 -0.19822 -4.2762
-1.79288 -0.14361 -2.84151
-1.78611 -0.118958 -1.07272
-1.78267 -0.109406 0.686686
-1.79136 -0.0796199 2.45469
-1.7917 -0.0207995 3.8855
-1.78938 0.0517163 5.32349
-1.79341 0.104916 -4.21942
-1.79569 0.169284 -2.77964
-1.78439 0.205882 -1.00176
-1.77385 0.234971 0.771912
-1.7926 0.290491 2.54889
-1.79209 0.35131 3.98037
-1.78851 0.419994 5.41683
-1.79364 0.689795 -4.11897
-1.79554 0.752201 -2.68111
-1.7779 0.842087 -0.871421
-1.72807 0.907185 0.941572
-1.77279 1.05301 2.75037
-1.78029 1.11204 4.17991
-1.77956 1.16259 5.60885
-1.78852 1.62094 -3.9332
-1.78669 1.69011 -2.48835
-1.77511 1.79388 -0.66353
-1.75024 1.91085 1.17135
-1.74328 2.04837 2.99568
-1.75157 2.14058 4.4395
-1.75926 2.20873 5.87354
-0.896156 -0.194063 -4.27319
-0.897771 -0.137576 -2.83712
-0.896371 -0.118383 -1.07331
-0.896508 -0.116633 0.680786
-0.899534 -0.102835 2.44437
-0.900398 -0.0354869 3.87851
-0.899535 0.0445972 5.31944
-0.897448 0.10529 -4.2185
-0.901579 0.339445 3.9746
-0.89925 0.415436 5.41378
-0.897893 0.678858 -4.12474
-0.893963 1.11865 4.18084
-0.892411 1.16619 5.60905
-0.897022 1.61271 -3.9389
-0.897526 1.68191 -2.49463
-0.894147 1.78938 -0.66732
-0.873199 1.90906 1.1718
-0.861347 2.054 2.99892
-0.867908 2.1484 4.44275
-0.874779 2.21516 5.8759
0.89877 -0.194063 -4.27319
0.899322 -0.137576 -2.83712
0.898586 -0.118383 -1.07331
0.89741 -0.116634 0.680786
0.896947 -0.102835 2.44437
0.89003 -0.0354871 3.87851
0.884522 0.0445969 5.31944
0.898963 0.10529 -4.2185
0.890144 0.339444 3.9746
0.884537 0.415435 5.41378
0.898 0.678858 -4.12474
0.889314 1.11865 4.18084
0.886177 1.16619 5.60905
0.888548 1.61271 -3.9389
0.884801 1.68191 -2.49463
0.871932 1.78937 -0.66732
0.871269 1.90905 1.1718
0.890228 2.054 2.99892
0.893989 2.1484 4.44275
0.892242 2.21516 5.8759
1.7948 -0.198221 -4.2762
1.79551 -0.143611 -2.84151
1.78942 -0.118959 -1.07272
1.78368 -0.109407 0.686685
1.78732 -0.0796206 2.45469
1.78161 -0.0208001 3.8855
1.77528 0.0517153 5.32349
1.79552 0.104915 -4.21942
1.7971 0.169283 -2.77964
1.787 0.205881 -1.00176
1.77439 0.234969 0.771912
1.78857 0.290491 2.54889
1.78166 0.351309 3.98037
1.77506 0.419993 5.41683
1.79382 0.689795 -4.11897
1.79561 0.752201 -2.68111
1.77799 0.842085 -0.871421
1.7283 0.907181 0.941572
1.77266 1.053 2.75037
1.77699 1.11203 4.17991
1.77417 1.16259 5.60885
1.7802 1.62093 -3.9332
1.77488 1.69011 -2.48835
1.75764 1.79388 -0.66353
1.74862 1.91085 1.17135
1.76489 2.04836 2.99568
1.77309 2.14057 4.4395
1.77469 2.20873 5.87354
-0.828186 0.45 -2.66319
0 0.171581 -2.77842
-0.902242 0.186334 -1.89
-0.898443 0.664135 2.64522
0 0.254405 2.53559
-0.895673 0.247206 1.65
0 0.750327 -2.72033
-0.898244 0.782122 -1.78667
0 1.06078 2.74251
-0.897493 1.01688 1.84667
0.828166 0.45 -2.66317
0.902242 0.186334 -1.89
0.898443 0.664135 2.64522
0.895647 0.247232 1.65
0.898244 0.782122 -1.78667
0.897493 1.01688 1.84667
-0.899993 0.215735 -0.12
-0.900007 0.522437 -0.941667
2.11969e-09 0.177644 -1.005
-0.844877 0.559084 0.851667
-7.03819e-09 0.177857 0.765
-0.899957 0.901592 0.0300001
-1.0619e-08 1.29578 -0.878333
-2.33388e-06 1.62677 0.938334
0.899993 0.215735 -0.12
0.900008 0.522437 -0.941667
0.844873 0.559082 0.851667
0.899957 0.901592 0.0300001
-0.900225 0.486218 -1.83833
0.900225 0.486218 -1.83833
1.05985e-09 0.17021 -1.89
-5.30952e-09 1.20423 -1.78667
0 0.45 -2.74449
-0.900006 0.54076 -0.045
0.900006 0.540759 -0.045
-2.45925e-09 0.177724 -0.12
-1.17225e-06 1.59907 0.0300001
-0.899913 0.611609 1.74833
0.899913 0.611608 1.74833
-3.5191e-09 0.183042 1.65
-1.16694e-06 1.36898 1.84667
0 0.664135 2.77314
-0.813448 0.3125 -2.66845
-0.45 0.174948 -2.77505
-0.902109 0.179679 -2.3325
-0.90001 0.459567 2.59017
-0.450727 0.253824 2.53618
-0.895484 0.254183 2.0925
-0.880753 0.5875 -2.69575
-0.45 0.738316 -2.70832
-0.897693 0.752132 -2.24083
-0.899965 0.868702 2.70335
-0.4475 1.06698 2.74871
-0.896508 1.04534 2.30083
0.45 0.17495 -2.77505
0.813442 0.3125 -2.66844
0.902109 0.179679 -2.3325
0.450727 0.254131 2.53587
0.90001 0.459567 2.59017
0.895474 0.254193 2.0925
0.45 0.73833 -2.70833
0.880759 0.5875 -2.69576
0.897693 0.752132 -2.24083
0.4475 1.06699 2.74872
0.899965 0.868702 2.70335
0.896508 1.04534 2.30083
-0.902326 0.193037 -1.4475
-0.899994 0.208945 -0.5625
-0.899998 0.362298 -0.973334
-0.456229 0.177437 -1.005
-0.899994 0.236097 1.2075
-0.899991 0.222524 0.3225
-0.899998 0.380416 0.808334
-0.462879 0.177818 0.765
-0.898181 0.811499 -1.3325
-0.899984 0.682577 -0.91
-0.899957 0.872153 -0.424167
-0.56322 1.29573 -0.878333
-0.899982 0.989935 1.3925
-0.844029 0.727679 0.895
-0.899958 0.931032 0.484167
-0.598618 1.62671 0.938334
0.902326 0.193037 -1.4475
0.456229 0.177437 -1.005
0.899994 0.208945 -0.5625
0.899998 0.362298 -0.973334
0.899994 0.236097 1.2075
0.462879 0.177818 0.765
0.899991 0.222524 0.3225
0.899998 0.380414 0.808334
0.898181 0.811499 -1.3325
0.563195 1.29568 -0.878333
0.899984 0.682577 -0.91
0.899957 0.872153 -0.424167
0.899982 0.989935 1.3925
0.598614 1.62671 0.938334
0.844018 0.727672 0.895
0.899958 0.931032 0.484167
-0.899878 0.468109 -2.25076
-0.414093 0.45 -2.67103
5.29923e-10 0.170153 -2.33421
0 0.310791 -2.74547
-0.901224 0.336276 -1.86417
-0.451121 0.170211 -1.89
-0.89931 0.637872 2.19677
-0.449222 0.664135 2.77245
-1.75955e-09 0.218653 2.0928
0 0.45927 2.69807
-0.900931 0.429408 1.69917
-0.447836 0.189931 1.65
-2.65476e-09 1.07488 -2.2535
0 0.600164 -2.75991
-0.899249 0.63417 -1.8125
-0.449122 1.21387 -1.78667
-5.8347e-07 1.23318 2.29459
0 0.862457 2.7893
-0.898723 0.814247 1.7975
-0.448747 1.3808 1.84667
0.899878 0.468109 -2.25075
0.414083 0.45 -2.67102
0.901224 0.336276 -1.86417
0.451121 0.170211 -1.89
0.89931 0.637872 2.19677
0.449222 0.664135 2.77245
0.900931 0.42942 1.69917
0.447823 0.189956 1.65
0.899249 0.63417 -1.8125
0.449122 1.21387 -1.78667
0.898723 0.814246 1.7975
0.448746 1.3808 1.84667
-0.899998 0.378248 -0.0825
-0.459545 0.177632 -0.12
-0.900244 0.504327 -1.39
-0.900006 0.531598 -0.493333
1.58977e-09 0.170267 -1.4475
-1.69781e-10 0.177667 -0.5625
-0.900006 0.549922 0.403333
-0.90001 0.585347 1.3
-4.74872e-09 0.177782 0.3225
-5.27865e-09 0.177896 1.2075
-0.899981 0.721176 -0.00749993
-0.62433 1.59903 0.0300001
-7.96427e-09 1.20471 -1.3325
-5.91435e-07 1.47799 -0.424167
-1.75307e-06 1.65026 0.484167
-1.75041e-06 1.52589 1.3925
0.899998 0.378247 -0.0825
0.459545 0.177632 -0.12
0.900244 0.504327 -1.39
0.900006 0.531598 -0.493333
0.900006 0.54992 0.403333
0.900012 0.585345 1.3
0.899981 0.721175 -0.00749993
0.624329 1.59903 0.0300001
-0.90095 0.324388 -2.29163
-0.901274 0.349286 -1.41875
-0.899226 0.658374 -1.36125
-0.898785 0.610835 -2.2458
0.90095 0.324388 -2.29162
0.898785 0.610835 -2.24579
0.899226 0.658374 -1.36125
0.901274 0.349286 -1.41875
-0.45056 0.170154 -2.33335
0.45056 0.170154 -2.33335
0.450559 0.170268 -1.4475
-0.450559 0.170268 -1.4475
-0.449561 1.07994 -2.24717
-0.449551 1.21434 -1.3325
0.449551 1.21434 -1.3325
0.449561 1.07994 -2.24717
-0.432046 0.311645 -2.69062
-0.432046 0.593832 -2.73126
0.432041 0.593832 -2.73126
0.432041 0.311645 -2.69062
-0.899998 0.370273 -0.527917
-0.899998 0.379332 0.362917
-0.899982 0.738416 0.44375
-0.899982 0.701876 -0.45875
0.899998 0.370273 -0.527917
0.899982 0.701876 -0.45875
0.899982 0.738415 0.44375
0.899998 0.379331 0.362917
-0.457886 0.177537 -0.5625
0.457886 0.177537 -0.5625
0.461213 0.177723 0.3225
-0.461213 0.177723 0.3225
-0.609054 1.47794 -0.424167
-0.630156 1.65024 0.484167
0.630154 1.65023 0.484167
0.609053 1.47794 -0.424167
-0.900013 0.411803 1.25375
-0.900545 0.444488 2.14464
-0.897943 0.841475 2.2488
-0.899855 0.769108 1.34625
0.900013 0.411809 1.25375
0.899862 0.769106 1.34625
0.897943 0.841474 2.2488
0.900545 0.444494 2.14464
-0.448916 0.177896 1.2075
0.448909 0.177896 1.2075
0.449275 0.234353 2.09265
-0.449282 0.234404 2.09265
-0.431459 1.52589 1.3925
-0.448123 1.24255 2.29771
0.448123 1.24255 2.29771
0.431457 1.52589 1.3925
-0.449975 0.459419 2.69747
0.449975 0.459419 2.69742
0.448361 0.86558 2.78971
-0.448361 0.86558 2.78971
-0.83396 0.24375 -2.69896
-0.675 0.174931 -2.77507
-0.900001 0.178393 -2.55375
-0.90075 0.357284 2.5626
-0.676091 0.25372 2.53628
-0.89834 0.254721 2.31375
-0.895508 0.65625 -2.70051
-0.675 0.73154 -2.70154
-0.896894 0.736614 -2.46792
-0.899956 0.970986 2.73165
-0.67125 1.0696 2.75133
-0.899966 1.06352 2.52792
0.675 0.174931 -2.77507
0.833906 0.24375 -2.69891
0.9 0.178394 -2.55375
0.676091 0.254198 2.5358
0.90075 0.357284 2.5626
0.898339 0.254722 2.31375
0.675 0.731552 -2.70155
0.896055 0.65625 -2.70105
0.896894 0.736614 -2.46792
0.67125 1.06964 2.75137
0.899956 0.970986 2.73165
0.899966 1.06352 2.52792
-0.899998 0.198759 -1.22625
-0.899995 0.205551 -0.78375
-0.899998 0.282226 -0.989167
-0.683951 0.178119 -1.005
-0.899994 0.232703 0.98625
-0.89999 0.225919 0.54375
-0.899998 0.304863 0.786667
-0.693963 0.178509 0.765
-0.899985 0.828022 -1.10542
-0.899972 0.762647 -0.894167
-0.899959 0.857435 -0.65125
-0.81185 1.22974 -0.878333
-0.809183 0.884416 1.16542
-0.837677 0.809013 0.916667
-0.899959 0.945753 0.71125
-0.810312 1.45145 0.938334
0.899998 0.198759 -1.22625
0.683951 0.178119 -1.005
0.899995 0.205551 -0.78375
0.899998 0.282226 -0.989167
0.899994 0.232703 0.98625
0.693963 0.178509 0.765
0.89999 0.225919 0.54375
0.899998 0.304862 0.786667
0.899985 0.828022 -1.10542
0.81184 1.22972 -0.878333
0.899972 0.762647 -0.894167
0.899959 0.857435 -0.65125
0.809178 0.884411 1.16542
0.810313 1.45145 0.938334
0.837668 0.809007 0.916667
0.899959 0.945753 0.71125
-0.797629 0.38125 -2.64263
-0.863275 0.51875 -2.68828
-0.899467 0.459055 -2.45697
-0.621139 0.45 -2.67018
[...]
POINT_DATA 3682
SCALARS point_scalars float 1
LOOKUP_TABLE default
-21.0302
-57.2654
-140.274
-50.2801
-21.8166
-62.4904
-141.524
-52.7629
-40.9661
-40.8463
-45.7772
-48.2525
-41.0493
-41.1527
-45.896
-48.6135
-3.80626
-112.743
-41.719
-42.5395
-48.2003
-42.0865
-41.364
-3.80626
-112.743
-42.0505
-41.9321
-49.8417
-42.2794
-42.9624
-150.339
-151.91
-45.7641
-54.6032
-47.9509
-50.3484
-50.3484
-150.339
-99.6616
-50.3518
-55.6922
-50.2689
-50.2689
-49.6402
-3.80626
-174.946
-41.6279
-40.6499
-47.3071
-40.9286
-40.6699
-3.80626
-40.7471
-42.2032
122.745
-44.3494
-43.6618
30.9624
-94.3791
-42.3507
-73.9983
-48.2616
-48.7135
-45.2626
-4.7006
-174.343
-41.6898
-40.8637
-51.1317
-45.5054
-45.2225
-4.7006
-45.2225
-45.8759
122.459
-46.5879
-46.3225
38.3788
-93.8965
-41.6741
-70.1061
-49.9826
-52.0309
-47.5936
-4.7006
-112.78
-41.7974
-42.8425
-52.0665
-46.7111
-45.9252
-4.7006
-112.78
-42.1422
-42.2553
-54.1819
-46.493
-46.8376
-151.946
-153.454
-45.8834
-54.9586
-50.5859
-53.339
-53.339
-151.946
-101.596
-50.4905
-55.9204
-52.6689
-52.6689
-52.3677
-83.8815
-145.495
-62.3593
-50.5383
-41.3415
-42.2569
82.1449
-60.9198
-46.7742
-50.0797
-84.2662
-62.4215
-55.4621
-43.0742
-60.9865
-50.8585
-40.2305
-42.7691
-48.1097
-45.0006
-42.0631
-49.502
-11.488
-82.6531
-40.3788
-42.8834
-45.2782
-49.713
-62.3286
-62.3879
-77.3942
-81.8037
201.058
-44.052
-44.2442
-41.0509
-78.2798
-45.2033
-46.2871
-46.1403
-54.5356
-39.5657
-21.3178
-57.1097
-99.5342
-49.8681
-43.5981
-41.9685
-123.082
74.5858
-91.7799
-50.4492
-45.5899
-49.3106
-57.285
-21.9526
-99.584
-47.9423
-54.9793
-43.7733
74.629
-126.704
-91.8441
-46.2722
-54.2207
-50.5027
-47.8196
-39.6735
-42.6028
-46.6899
-42.8422
-41.3272
-44.14
-41.7615
-44.4606
-43.7523
-47.3877
-13.0749
-53.2043
-47.5317
-51.7214
-78.4142
-47.8869
-46.7195
-39.7812
-42.6981
-43.3882
-41.8848
-41.5471
-44.4469
-44.5434
-13.135
-43.8628
-47.5474
-53.7493
-78.5102
-47.89
-51.9998
-98.1791
188.908
-111.869
180.304
-63.8657
-75.5397
-45.3915
-37.9612
-43.9485
-36.2848
-44.0794
-45.6625
-49.9664
199.98
-60.0102
-82.3775
-49.4809
-45.0354
-47.0825
-54.7638
-98.2372
188.931
-63.9268
-75.5642
-47.4593
-43.9516
-45.1193
-46.0454
-60.0693
-82.4185
-48.0998
-54.7855
-42.6613
-40.5451
-47.2229
-42.7545
-58.4388
-42.9424
-45.8268
-45.0069
-41.003
-43.8384
-46.4888
-71.2092
-36.6027
-31.5385
-96.4732
-63.8206
-42.8398
-40.5933
-47.2968
-42.8932
-46.1169
-45.636
-46.6932
-71.3295
-104.895
-48.2446
-45.8481
-92.5666
-104.67
-92.6199
-45.9292
-48.3172
-111.01
-111.021
-56.7807
-56.7577
-49.333
-37.6277
-37.6633
-49.3341
189.794
194.201
194.208
189.798
-41.7972
-43.9386
-48.5633
-44.6922
-41.9255
-44.8423
-48.849
-44.2038
-42.1111
-42.1457
-40.7246
-40.6519
-32.336
-87.9694
-88.052
-32.4313
-43.9653
-44.4991
-46.3837
-47.4299
-44.5518
-48.0629
-48.2283
-46.5413
-43.9838
-44.2286
-44.3051
-43.1913
-64.3781
-49.6079
-49.7375
-64.3971
-37.6324
-43.352
-45.5176
-43.445
-16.9493
18.9896
-142.474
-53.272
-49.044
-43.7192
-120.418
73.3875
-118.2
-50.5272
-45.1071
-49.9937
18.377
-17.7474
-142.546
-54.3076
-58.5559
-46.4112
73.5004
-121.359
-118.278
-46.7725
-53.756
-51.5267
-44.5295
-41.4314
-42.3852
-44.1734
-43.8117
-41.8179
-43.8168
-41.3406
-45.0697
-44.6967
-46.2431
-40.8479
-43.788
-47.9883
-53.3066
-69.7532
-44.6015
-44.2276
-41.5253
-42.4782
-44.2188
-41.5343
-42.086
-44.1464
-45.1673
-40.9744
-44.8116
-46.3825
-44.1817
-69.9687
-48.3457
-53.6301
-23.7411
-93.6913
-139.422
165.596
-90.1387
-88.7586
-142.325
134.579
-76.2485
-53.2308
-63.9827
-71.7085
-49.8369
-50.2936
-46.1834
-39.5464
-41.2461
-43.6239
-42.6635
-38.5171
-41.651
-46.0388
-43.561
-44.2052
75.9629
76.0201
1.61177
168.651
-73.7746
-50.7009
-59.9809
-81.3268
-46.3522
-46.4287
-47.5932
-46.1534
-49.9139
-51.0474
-48.2328
-56.0722
-24.5286
-93.9367
-139.474
165.765
-76.3073
-53.2953
-64.043
-71.7492
-54.9229
-54.7255
-49.1593
-44.756
-42.8664
-46.678
-44.5548
-44.5449
-73.84
-50.7743
-60.0433
-81.384
-50.8794
-51.6855
-49.1671
-56.1159
-40.1668
-40.6672
-42.0579
-39.9348
-42.6702
-43.0792
-44.0443
-42.4826
-47.7801
-47.7922
-52.3981
-45.0102
-45.379
-46.6282
-47.0699
-43.9919
-41.9878
-42.0476
-41.4212
-42.8969
-48.4833
-50.5307
-47.9622
-62.4601
-11.4125
-11.4339
-24.4839
-11.5536
-81.9421
-81.9789
-91.515
-72.409
-40.2946
-40.8515
-42.2302
-40.0179
-42.768
-43.185
-44.1293
-42.6014
-45.5867
-46.9866
-47.5239
-44.4411
-48.663
-50.775
-48.1706
-62.6647
-75.693
-63.3147
-61.0363
-52.9093
-75.7509
-63.3742
-61.0947
-52.9744
-92.1321
-77.1849
-77.1948
-66.5976
-85.5674
-81.7422
-81.7646
-53.2648
195.271
194.237
203.307
195.259
-43.3004
-43.2527
-44.9361
-45.2578
-43.4852
-43.4141
-45.1662
-45.4571
-40.9341
-41.696
-40.861
-40.9559
-76.8708
-56.0894
-92.377
-76.9254
-45.1269
-44.5971
-46.0626
-45.3909
-46.6029
-45.6676
-47.1294
-46.2046
-45.0973
-46.0657
-46.2601
-45.4724
-51.6275
-54.6465
-54.6356
-57.9481
-37.9996
-36.5632
-42.9326
-42.0323
-151.463
168.73
-143.925
150.81
-105.738
-106.341
-45.9869
-40.121
-42.66
-39.6504
-43.8874
-42.8614
-127.072
170.177
4.92476
167.832
-90.8282
-52.318
-46.4004
-42.9342
-47.296
-44.8617
-47.0885
-50.8679
-143.9
150.809
-151.534
168.836
-105.791
-106.354
-44.8269
-44.5037
-49.0085
-45.0665
-45.8612
-44.4712
4.91918
167.849
-127.114
170.149
-90.882
-52.3299
-47.8205
-45.8338
-48.9673
-45.6276
-48.7175
-51.2284
-48.0693
-54.3157
-41.3389
-40.8798
-44.4639
-41.8918
-51.0974
-43.9479
-43.741
-43.9407
-43.2355
-40.2931
-44.604
-43.6357
-41.0892
-42.7349
-45.4151
-38.4672
-44.0142
-43.9191
-45.9586
-58.4177
-25.7327
-14.0623
-50.2842
-67.3871
-50.2176
-41.4328
-50.0602
-63.8149
-85.16
-71.2339
-48.1416
-54.3582
-51.1222
-43.9788
-41.4629
-40.9417
-44.5463
-42.0022
-44.3213
-44.3124
-41.182
-42.9006
-43.4885
-40.4136
-44.9342
-44.0815
-45.5021
-38.523
-25.788
-14.1401
-44.1002
-44.0484
-46.113
-58.6019
-50.8936
-67.424
-85.2642
-71.2827
-50.5354
-41.8651
-50.3418
-64.0369
-101.95
-95.7602
188.918
193.484
-112.356
-112.36
186.159
186.231
-78.7166
-54.0459
-90.9903
-65.0284
-44.9571
-45.8581
-36.7212
-40.9654
-44.2868
-43.666
-35.5356
-39.8225
-44.4211
-44.0048
-48.0899
-43.7754
-50.1373
-50.113
199.854
199.887
-51.1825
-72.4559
-83.5484
-54.1761
-49.5493
-49.475
-45.4009
-44.294
-46.6616
-47.5114
-58.5523
-51.9498
-102.008
-95.8173
193.258
188.922
-78.7749
-54.1116
-91.0073
-65.0546
-47.8456
-47.0309
-43.2891
-44.8808
-45.1908
-45.4426
-48.5301
-44.5052
-72.5107
-51.2495
-54.211
-83.5801
-48.3002
-48.0168
-51.9758
-58.5704
-42.129
-43.2649
-41.0466
-40.4528
-47.6813
-46.5085
-42.2265
-43.5679
-58.1587
-58.1495
-42.6719
-42.6876
-44.7964
-47.0018
-44.3867
-45.9828
-40.9395
-40.9055
-43.8697
-43.9902
-47.4176
-45.579
-52.9708
-83.8612
-36.8653
-36.8824
-31.2226
-31.1532
-94.8771
-94.8996
-63.9731
-63.9773
-42.2796
-43.4797
-41.0868
-40.5113
-46.5839
-47.7547
-42.3597
-43.7128
-47.2916
-45.0751
-44.9958
-46.6209
-45.6185
-47.6595
-83.9776
-53.0134
-155.244
-79.2023
-77.5236
-149.525
-44.3647
-44.2958
-53.6837
-54.0459
-44.428
-50.8068
-51.9952
-43.8914
-120.273
-133.502
-74.126
-72.3483
-155.32
-149.591
-77.5821
-79.2596
-120.305
-72.4063
-74.1821
-133.557
-44.5189
-43.9783
-52.0607
-50.8769
-44.4456
-54.1114
-53.7492
-44.3795
-144.769
-144.679
-92.2181
-86.6249
-144.773
-86.6541
-92.2209
-144.621
-48.8451
-52.0871
-66.3393
-61.4527
-48.7988
-61.4078
-66.3281
-52.0776
-10.8515
-79.7456
-85.0779
2.87571
-47.8096
-24.6226
-53.5331
-53.8961
-47.9184
-53.9469
-53.5514
-24.6414
-10.5846
2.78261
-85.1046
-79.7552
152.752
164.783
192.722
130.375
154.414
173.311
199.974
172.161
154.4
172.056
199.976
173.269
152.616
130.393
192.776
164.875
-41.404
-41.5049
-42.6186
-42.1486
-43.8664
-45.8818
-44.006
-42.5543
-51.7355
-48.8863
-46.0583
-48.5293
-45.0708
-43.1067
-44.3221
-46.9893
-41.5108
-42.2631
-42.7745
-41.659
-45.2056
-47.2193
-44.4899
-43.2308
-52.0599
-48.8402
-46.2962
-49.1312
-44.1716
-42.7619
-44.2296
-46.3867
-42.3382
-44.7879
-41.5378
-40.1877
-42.3938
-40.2579
-41.556
-44.8013
-40.8711
-41.3869
-40.7796
-40.1139
-40.7204
-40.0146
-40.7526
-41.3432
-52.0003
-61.0402
-55.2018
-11.4513
-65.1574
-90.3754
-90.6367
-63.1975
-65.3858
-63.4166
-90.7113
-90.4237
-52.1096
-11.4786
-55.2188
-61.2172
-43.5331
-44.2853
-44.7668
-43.8343
-45.6771
-46.0912
-44.5565
-43.3805
-46.611
-47.699
-45.81
-46.31
-43.5457
-41.8582
-46.3285
-48.9973
-43.9658
-44.2927
-45.5657
-45.0105
-43.9269
-49.7307
-47.1406
-42.2814
-48.847
-49.1291
-47.2474
-48.9184
-48.612
-44.7672
-46.0289
-49.1341
-42.5014
-42.8399
-45.6248
-51.5513
-42.7708
-52.3549
-45.8237
-42.9225
-46.0964
-43.5587
-45.2104
-43.5554
-43.4746
-42.5854
-44.8418
-42.4271
-56.3944
-60.0424
-58.118
-72.2946
-48.0601
-47.5855
-51.7326
-53.464
-49.0133
-53.5833
-51.6838
-47.5765
-56.6602
-72.3126
-58.116
-60.073
-42.3055
-38.002
-35.2463
-39.2972
-47.4928
-44.58
-40.0643
-41.143
-45.896
-45.9781
-44.0767
-45.2269
-43.9782
-41.2047
-41.6177
-45.6307
-40.4121
29.0711
-129.766
-55.3664
-53.1864
-46.0402
-118.449
35.4993
-145.207
-50.2892
-46.0877
-47.5376
28.663
-40.667
-129.831
-58.5364
-60.6712
-49.5323
38.9211
-119.345
-145.152
-48.2902
-53.2719
-49.2933
-42.27
-41.2461
-41.8258
-42.1242
-42.792
-42.598
-42.4237
-40.1812
-45.856
-45.2436
-45.8688
-43.1986
-45.0411
-48.3254
-55.3195
-54.9958
-42.3477
-42.1922
-41.3336
-41.9163
-43.1497
-40.4213
-42.8864
-42.749
-45.9648
-43.3259
-45.3605
-45.9978
-45.4055
-55.2882
-48.6864
-55.6821
-45.9846
-92.3206
-175.291
115.96
-134.253
-143.484
-191.507
84.6989
-68.5071
-57.3548
-63.4051
-67.233
-49.3837
-49.3465
-46.8284
-41.9201
-41.0523
-42.2803
-41.9107
-40.1586
-41.694
-43.6238
-42.9335
-42.9975
80.0122
80.0047
44.7962
115.309
-67.1224
-55.4101
-60.342
-78.8679
-46.6601
-46.6548
-46.9721
-46.3824
-49.84
-50.3601
-48.9004
-57.8314
-46.6204
-92.6759
-175.316
115.678
-68.5683
-57.4177
-63.4653
-67.2885
-54.2953
-53.9623
-50.4713
-46.2508
-42.6956
-44.3185
-43.8581
-43.5897
-67.1883
-55.4797
-60.4066
-78.935
-50.7097
-51.0609
-49.7762
-57.9188
-40.2067
-40.9282
-41.4474
-39.4931
-42.7069
-42.8773
-43.2439
-42.5625
-48.0218
-48.0275
-50.147
-46.4064
-45.7625
-45.4395
-49.3986
-42.5887
-42.0362
-42.0659
-41.7153
-42.4589
-48.9622
-50.0005
-48.6934
-56.3178
-11.4503
-11.4587
-18.5653
-8.13766
-82.4793
-82.4968
-87.4415
-77.2206
-40.3467
-41.0927
-41.6163
-39.6009
-42.8063
-42.98
-43.3354
-42.6723
-46.032
-45.7945
-49.3846
-43.0006
-49.158
-50.2269
-48.9037
-56.5236
-68.2953
-62.9161
-61.6954
-57.0825
-68.3535
-62.9763
-61.754
-57.1443
-84.9898
-77.0449
-77.0501
-71.8298
-95.8256
-81.5574
-81.5677
-65.2282
197.929
197.821
202.598
197.935
-43.6448
-43.6553
-44.4552
-44.5776
-43.8336
-43.8313
-44.6647
-44.7732
-41.0102
-41.3115
-40.9113
-41.0212
-78.2924
-68.5123
-86.4863
-78.3173
-45.1359
-44.8974
-45.6052
-45.2948
-46.3968
-45.9776
-46.6846
-46.2309
-45.6634
-46.1047
-46.1942
-46.4236
-52.9805
-54.5685
-54.5596
-55.9949
-38.5329
-37.7763
-41.3273
-40.8143
-22.7389
-6.42033
-191.605
131.44
-29.0087
-69.5265
-204.07
37.4655
-115.476
-86.5851
-103.35
-101.307
-51.858
-50.0916
-47.3208
-42.1066
-46.0235
-42.0861
-42.758
-42.1964
-42.4482
-41.7272
-43.2601
-42.8988
-129.506
-110.475
-171.764
128.368
76.3726
74.6937
40.8966
135.608
-105.592
-82.2179
-90.915
-91.9643
-51.0883
-50.6976
-47.0037
-44.0365
-45.2261
-45.9998
-46.1732
-45.2252
-48.0609
-49.3961
-47.69
-53.73
-28.7148
-69.147
-203.82
37.3567
-23.8442
-7.26249
-191.599
130.919
-115.519
-86.6404
-103.478
-101.347
-50.9873
-45.5357
-45.6244
-47.1753
-57.1587
-55.2519
-51.1296
-46.787
-44.6031
-43.1988
-45.1805
-44.6521
76.4276
74.7408
40.8919
135.64
-129.036
-109.905
-171.738
128.366
-105.646
-82.2836
-90.9729
-92.2522
-46.3601
-46.3294
-46.9885
-45.929
-54.6514
-54.8258
-50.0674
-47.0115
-49.4038
-50.4624
-49.1468
-54.107
-46.6144
-50.1755
-47.9323
-51.4784
-39.9498
-40.3164
-40.6922
-39.9194
-42.5425
-42.6426
-43.3067
-42.1735
-45.6091
-47.366
-48.5852
-45.2198
-42.361
-43.6413
-43.2827
-43.2784
-42.0334
-41.0775
-42.5934
-40.0603
-43.9569
-44.5555
-44.5235
-43.696
-41.5649
-41.8961
-41.3933
-42.2194
-44.5242
-46.9994
-45.1116
-37.083
-44.2109
-43.3885
-43.8512
-43.6962
-46.7714
-47.9041
-46.6849
-54.4178
-23.7176
-11.6211
-19.6681
-9.94868
-47.7803
-51.7955
-51.521
-69.0556
-47.8603
-47.2564
-53.0497
-43.6605
-52.4228
-51.1038
-50.7438
-58.3074
-76.197
-80.7222
-82.126
-74.2913
-46.683
-50.241
-48.0033
-51.5343
-45.6508
-47.3857
-48.6148
-45.2492
-40.0516
-40.4319
-40.8133
-39.9986
-42.6364
-42.7391
-43.3951
-42.2761
-42.8156
-44.218
-43.8595
-43.7087
-41.7232
-41.9866
-41.4997
-42.3626
-42.2801
-41.2804
-42.839
-40.218
-44.2757
-44.8354
-44.8274
-44.071
-44.612
-47.0777
-45.1945
-37.1607
-23.826
-11.6586
-19.7092
-10.0206
-44.3238
-43.4966
-43.9533
-43.8165
-46.9206
-48.0715
-46.842
-54.5956
-48.2379
-52.3779
-52.1047
-69.124
-76.3346
-80.7838
-82.2267
-74.3667
-48.217
-47.616
-53.4035
-44.0072
-52.7226
-51.365
-51.0228
-58.5579
-114.46
-85.4785
-100.308
-97.1145
182.487
192.218
187.54
190.116
-123.109
-101.66
-112.009
-112.012
163.938
188.615
184.076
184.137
-63.986
-63.6682
-70.4019
-58.3067
-73.9661
-76.4201
-82.7732
-70.1482
-45.72
-45.2047
-45.1835
-45.63
-38.5388
-37.7463
-36.9576
-39.3757
-43.3649
-44.4814
-44.1159
-43.7985
-37.4508
-35.8903
-35.439
-37.8389
-43.8005
-44.3293
-44.25
-43.9967
-45.0393
-46.0319
-46.4654
-44.9521
-27.4672
-69.7159
-50.3169
-50.3223
196.488
202.611
200.402
200.435
-59.7726
-60.3701
-55.169
-65.6413
-82.4026
-82.0653
-95.6376
-66.1497
-48.4718
-50.4824
-49.5319
-49.4428
-45.6819
-44.1491
-45.2702
-44.6975
-47.6282
-46.533
-46.8315
-47.293
-55.0365
-54.6678
-56.489
-53.2932
-114.517
-85.5368
-100.366
-97.1727
182.531
192.231
189.959
187.55
-64.0458
-63.7281
-70.461
-58.3696
-73.9996
-76.4375
-82.7955
-70.1758
-48.1872
-46.9465
-47.6657
-47.2604
-44.5001
-43.1027
-43.5339
-44.4117
-44.8171
-45.3864
-45.1408
-45.2173
-45.4114
-46.3314
-46.7309
-45.5592
-59.8329
-60.4283
-65.698
-55.2317
-82.452
-82.0984
-66.1866
-95.6907
-48.6087
-47.5789
-48.1855
-48.0012
-55.0827
-54.6632
-53.3272
-56.5049
-42.4201
-42.9752
-42.3726
-42.9589
-40.2484
-40.7696
-40.7395
-40.4564
-45.303
-49.5853
-47.4286
-46.7798
-42.6138
-43.0242
-42.4691
-43.1402
-55.1733
-62.5068
-58.3788
-58.3742
-43.8606
-42.229
-42.881
-42.8885
-46.3292
-45.3125
-45.2902
-46.4465
-44.5023
-45.3207
-44.671
-45.4314
-41.1787
-40.8951
-40.9886
-40.9717
-43.3639
-44.1771
-43.8516
-43.9118
-47.2038
-45.838
-46.9332
-46.001
-68.5096
-74.8779
-62.9472
-77.8887
-30.1498
-44.0829
-36.6791
-36.6876
-20.2428
-43.9466
-31.5288
-31.5439
-94.4828
-95.7329
-96.1668
-96.1709
-68.0163
-60.5458
-63.8717
-63.8733
-42.596
-43.157
-42.5362
-43.1543
-40.313
-40.8038
-40.7833
-40.5096
-45.382
-49.6544
-46.8544
-47.5023
-42.7432
-43.1743
-42.605
-43.2818
-46.6637
-45.5695
-46.7353
-45.5756
-45.0578
-46.0346
-45.2909
-46.0666
-47.4104
-46.0393
-46.1894
-47.1547
-68.768
-74.9626
-77.9616
-63.0261
-121.363
-104.822
-103.419
-89.7361
-48.044
-46.1006
-50.7584
-47.8922
-45.6428
-44.5362
-48.0807
-46.1306
-107.542
-91.1162
-94.2877
-81.1666
-121.415
-104.876
-103.475
-89.793
-107.596
-91.1682
-94.3428
-81.2204
-45.7319
-44.6121
-48.1535
-46.2079
-48.1166
-46.1781
-50.8271
-47.9654
-123.565
-109.147
-111.828
-100.481
-123.56
-109.155
-111.833
-100.493
-56.2567
-54.0356
-61.0107
-57.7918
-56.2248
-54.0146
-60.986
-57.7764
-28.3287
-49.2216
-49.8735
-67.3143
-38.1455
-31.376
-45.0424
-37.1865
-38.1909
-31.4165
-45.0771
-37.2126
-28.2927
-49.2254
-49.8513
-67.3089
185.487
174.641
190.533
189.089
184.7
189.674
194.696
197.007
189.682
184.707
197.017
194.707
174.648
185.458
189.039
190.536
-41.5493
-41.7465
-41.9124
-42.0006
-43.6353
-44.2999
-43.6042
-44.3532
-49.2828
-49.2892
-47.8086
-47.9122
-44.3132
-45.3287
-44.1089
-45.0641
-41.6747
-41.8653
-42.0514
-42.1314
-44.453
-45.4816
-44.2563
-45.2254
-49.586
-49.5711
-48.0957
-48.1733
-43.8953
-44.5987
-43.8416
-44.6253
-41.5597
-42.9216
-41.4949
-42.4851
-42.9541
-41.6075
-42.509
-41.532
-40.9219
-40.5581
-40.8564
-40.5834
-40.4625
-40.8402
-40.5184
-40.8041
-54.3113
-22.0727
-42.9235
-30.9305
-78.3655
-86.8757
-86.8183
-92.4845
-86.9835
-78.526
-92.5311
-86.8855
-22.0896
-54.5916
-31.1476
-43.0077
-43.7972
-43.7655
-44.2939
-44.1668
-45.0915
-44.1944
-44.7114
-44.1616
-46.3591
-46.715
-46.1197
-46.5089
-48.8345
-46.2886
-47.7174
-46.6212
-44.3755
-44.2851
-44.9624
-44.7649
-49.4579
-46.8545
-48.4215
-47.258
-48.531
-48.4648
-48.0426
-48.0878
-47.5584
-46.2021
-46.7741
-45.8679
-44.0293
-43.2965
-44.6371
-43.9308
-44.3148
-43.4988
-44.9406
-44.0762
-44.462
-44.3842
-44.4162
-44.4248
-42.8265
-42.9724
-43.4949
-43.5104
-65.0446
-68.0159
-61.2272
-64.1209
-48.4675
-49.9187
-49.5421
-50.6561
-48.7441
-50.1988
-49.5512
-50.7203
-65.0741
-68.0463
-61.2431
-64.1309
-38.983
-38.5943
-36.9158
-36.3941
-43.7323
-44.456
-41.7773
-43.1814
-45.7119
-45.5388
-45.4721
-45.2479
-43.065
-44.2828
-42.3407
-43.8755
-186.985
133.612
-207.673
57.1131
-147.413
-139.087
-47.718
-44.2312
-45.2935
-46.866
-45.2621
-43.9697
-155.5
126.133
12.5046
122.694
-119.204
-97.8688
-47.3634
-44.7749
-46.5376
-44.3471
-47.0737
-51.0559
-207.584
56.9843
-186.952
133.307
-147.483
-139.112
-48.9678
-52.5373
-51.4524
-49.2504
-48.1384
-46.6671
12.5358
122.712
-155.724
126.481
-119.237
-98.6712
-47.9234
-46.1702
-50.001
-47.1671
-49.081
-52.0543
-44.3587
-47.1659
-41.3187
-41.0035
-43.0806
-41.9081
-45.5236
-43.3744
-43.4813
-43.9536
-43.1564
-40.4538
-43.721
-43.6388
-40.9792
-41.9423
-44.8007
-44.0739
-44.652
-44.799
-45.6184
-49.9864
-43.1824
-47.9211
-43.9709
-59.7638
-53.8793
-44.0225
-52.4459
-59.4218
-65.4533
-65.1272
-44.4368
-47.2225
-45.5783
-43.4278
-41.4225
-41.0751
-43.167
-42.0076
-43.9059
-44.2948
-41.1491
-42.1689
-43.4509
-40.6475
-44.0336
-44.0109
-44.8975
-44.1722
-43.3
-48.0794
-44.7578
-44.9237
-45.7557
-50.1409
-44.3421
-60.1341
-65.6887
-65.3639
-54.2402
-44.3686
-52.7701
-59.6851
-189.878
127.922
-182.861
124.584
-142.553
-135.848
163.686
168.239
-207.267
29.8459
-207.631
29.9556
-144.91
-144.865
147.039
147.317
-77.6436
-81.7392
-53.7451
-57.5379
-70.75
-58.5032
-78.6086
-66.2757
-47.015
-41.5602
-46.8446
-42.8526
-46.1302
-46.2559
-39.2028
-40.3038
-41.7508
-39.8616
-43.3284
-42.7835
-43.0271
-42.461
-37.9751
-39.6983
-42.8908
-42.1665
-44.6838
-53.7262
-43.9186
-43.3927
-48.2504
-42.909
43.9414
128.925
43.9511
128.796
1.21732
0.964237
166.522
166.541
-72.8383
-97.1624
-50.8015
-53.8082
-54.9842
-65.6862
-94.9811
-65.3987
-46.7833
-46.0432
-46.923
-46.1514
-47.6223
-47.567
-46.109
-45.974
-48.3838
-55.6971
-49.8286
-62.0836
-47.9325
-48.5752
-57.7702
-55.0383
-189.87
127.575
-182.939
124.303
-142.607
-135.902
166.997
163.755
-77.7015
-81.7878
-53.8101
-57.596
-70.8088
-58.5657
-78.6448
-66.3189
-50.7918
-46.0544
-50.2411
-46.544
-49.1643
-49.1503
-44.6045
-44.9844
-44.2482
-43.22
-45.3672
-54.3348
-44.7697
-44.5653
-48.3993
-43.6847
-72.8993
-97.3223
-50.8731
-53.8748
-65.746
-55.05
-65.451
-95.0472
-49.5088
-55.8895
-50.5238
-62.1613
-49.4
-48.9971
-55.1
-57.7847
-41.006
-39.5123
-42.0164
-39.7004
-41.833
-42.4142
-40.0301
-39.9411
-43.2913
-42.3252
-43.3559
-43.0157
-44.1537
-43.9377
-42.3023
-42.7647
-49.7984
-46.1135
-49.8102
-46.1257
-52.3272
-52.3224
-44.9168
-44.9231
-46.1044
-43.0233
-50.7518
-44.4058
-46.5072
-47.767
-43.8969
-42.8531
-41.6287
-42.3883
-41.6797
-42.4582
-41.4144
-41.39
-42.8732
-42.9145
-47.7228
-55.7425
-49.7237
-57.1103
-48.4516
-47.4781
-61.8832
-62.832
-18.3939
-7.88738
-18.4119
-7.90922
-24.4977
-24.506
-11.4974
-11.5084
-86.4459
-76.7921
-86.4892
-76.8191
-91.2827
-91.3071
-72.3874
-72.3955
-41.148
-39.6037
-42.2187
-39.8302
-41.9912
-42.6039
-40.1054
-40.032
-43.3818
-42.431
-43.453
-43.1305
-44.0234
-44.2379
-42.4189
-42.8862
-46.3946
-43.4143
-51.0789
-44.7377
-48.099
-47.1734
-44.3499
-43.2985
-47.9221
-55.9136
-49.9679
-57.3386
-47.6706
-48.6768
-63.0478
-62.0737
-76.7639
-74.982
-69.6243
-58.3664
-56.0659
-66.8525
-53.3511
-52.4533
-76.8225
-75.039
-69.6836
-58.4289
-66.9093
-56.1274
-52.5184
-53.4164
-92.7254
-92.7264
-84.0684
-71.3686
-84.0753
-71.3799
-66.6828
-66.6767
-85.4735
-85.492
-96.8984
-65.473
-65.4932
-96.9249
-53.3341
-53.343
193.63
197.159
193.901
193.903
202.101
202.114