# vtk DataFile Version 2.0
tet_velo
ASCII
DATASET UNSTRUCTURED_GRID
POINTS 29498 float
-0.803924 0.315 -1.805
-0.810184 0.285 1.855
-0.775 0.927423 -1.745
-0.665 1.66199 1.675
0.803946 0.315 -1.805
0.721199 0.285 1.865
0.775 0.927482 -1.745
0.665 1.66197 1.675
-0.811234 0.299777 -0.585
-0.808134 0.294963 0.635
-0.802549 1.23649 -0.605
-0.747535 1.463 0.535
0.788167 0.293197 -0.581667
0.752215 0.291566 0.641667
0.802577 1.23656 -0.605
0.747529 1.463 0.535
-1.59358 -0.262178 -2.73384
-1.59905 -0.155307 -1.78944
-1.59785 -0.172211 -0.56714
-1.57901 -0.238156 0.671181
-1.56716 -0.259498 1.89485
-1.57452 -0.194832 2.84589
-1.58821 -0.092613 3.78476
-1.59046 0.149737 -2.73315
-1.59619 0.291939 -1.79752
-1.59261 0.327756 -0.591211
-1.55584 0.332863 0.622065
-1.52957 0.352626 1.8299
-1.54626 0.420397 2.77971
-1.56745 0.51561 3.72123
-1.57342 0.896311 -2.70894
-1.57392 1.0283 -1.76967
-1.57522 1.2727 -0.617961
-1.50233 1.47926 0.527783
-1.42999 1.64499 1.68081
-1.47704 1.70286 2.63236
-1.52258 1.76229 3.58594
-1.53786 2.24879 -2.73447
-1.5373 2.42029 -1.80758
-1.52941 2.73498 -0.68197
-1.49984 3.06972 0.425905
-1.47173 3.32501 1.55185
-1.4751 3.45004 2.47944
-1.49538 3.53071 3.4241
-0.803083 -0.248513 -2.73857
-0.806188 -0.134352 -1.7963
-0.814874 -0.182414 -0.564882
-0.818339 -0.270975 0.683362
-0.823891 -0.310957 1.91511
-0.834883 -0.230718 2.86017
-0.846405 -0.114605 3.79372
-0.801881 0.150112 -2.73438
-0.818893 0.390482 2.79135
-0.831488 0.498342 3.72825
-0.788308 0.853208 -2.69853
-0.753698 1.70405 2.63185
-0.79177 1.76044 3.5869
-0.755348 2.21154 -2.72404
-0.755624 2.38128 -1.79613
-0.756856 2.71456 -0.674782
-0.744831 3.07234 0.42585
-0.730757 3.33966 1.54711
-0.737118 3.46388 2.47481
-0.755659 3.54017 3.42112
0.788233 -0.249571 -2.73783
0.793873 -0.135932 -1.79537
0.774629 -0.187283 -0.561739
0.738231 -0.274205 0.689187
0.70503 -0.312048 1.92293
0.666877 -0.231705 2.8663
0.646869 -0.115785 3.79846
0.787816 0.14953 -2.73396
0.663807 0.389834 2.79729
0.649656 0.497321 3.73274
0.784397 0.852872 -2.69824
0.668179 1.70353 2.63465
0.667929 1.75955 3.59022
0.8135 2.21076 -2.72333
0.811679 2.38056 -1.79546
0.797615 2.71375 -0.673973
0.768753 3.07147 0.426914
0.74234 3.33879 1.54854
0.729375 3.46294 2.47673
0.718992 3.53911 3.42347
1.58222 -0.264688 -2.73201
1.58711 -0.1589 -1.78711
1.56384 -0.179432 -0.561798
1.51235 -0.243873 0.68049
1.46315 -0.262493 1.90678
1.42469 -0.197259 2.85653
1.40196 -0.0951568 3.79369
1.5841 0.14799 -2.73188
1.59502 0.289793 -1.7962
1.57618 0.320721 -0.586711
1.5164 0.327508 0.630646
1.45931 0.350316 1.84148
1.41926 0.418455 2.7898
1.40177 0.513339 3.72972
1.58072 0.895174 -2.70803
1.58389 1.02754 -1.76909
1.58444 1.27024 -0.61633
1.51191 1.47677 0.530938
1.4291 1.64341 1.68522
1.41343 1.70126 2.6384
1.4125 1.76027 3.59252
1.59903 2.24705 -2.73288
1.5953 2.41861 -1.80602
1.57587 2.73309 -0.680064
1.53353 3.06772 0.428399
1.49192 3.32305 1.55509
1.47337 3.44799 2.4835
1.46352 3.52849 3.42888
-0.842114 0.621211 -1.82765
1.09971e-05 0.313709 -1.80629
-0.803331 0.311636 -1.195
-0.813141 0.973495 1.84055
-0.0444925 0.33092 1.81408
-0.758902 0.340239 1.245
0 1.0186 -1.83614
-0.842943 1.13613 -1.175
0 1.71531 1.72833
-0.715339 1.57157 1.105
0.842169 0.621241 -1.8277
0.790572 0.309583 -1.19333
0.78639 0.973485 1.86329
0.684304 0.340686 1.25333
0.842948 1.13618 -1.175
0.71534 1.57156 1.105
-0.809904 0.29715 0.025
-0.878572 0.768136 -0.595
-0.0115334 0.299331 -0.583333
-0.879832 0.878983 0.585
-0.0279598 0.292462 0.638333
-0.777166 1.35187 -0.035
1.4214e-05 1.7179 -0.605
-2.96872e-06 1.89391 0.535
0.776416 0.286156 0.03
0.878433 0.764876 -0.593333
0.879818 0.877285 0.588333
0.777167 1.35189 -0.035
-0.896261 0.694674 -1.185
-0.879402 0.823559 -0.005
-0.879941 0.926239 1.175
-0.0057612 0.312664 -1.19417
-0.0197466 0.292651 0.0275
-0.0362261 0.329366 1.24917
5.49853e-06 0.621226 -2.01819
-0.0222463 0.97349 1.98597
7.10701e-06 1.38457 -1.175
5.62265e-06 1.87628 -0.035
-1.48436e-06 1.87484 1.105
0.896275 0.693059 -1.18417
0.879352 0.82108 -0.0025
0.87985 0.925385 1.17917
-1.20006 0.303469 -1.80126
-0.805056 0.0903242 -1.80065
-0.802903 0.232556 -2.26969
-1.16988 0.318813 1.84245
-0.817037 -0.0129786 1.88506
-0.814539 0.337741 2.32317
-1.17446 0.977863 -1.75734
-0.781654 0.890315 -2.22176
-0.765312 1.65435 -1.77056
-1.0475 1.65349 1.6779
-0.709349 1.68302 2.15343
-0.697878 2.50082 1.61105
0.798909 0.0895342 -1.80019
0.795881 0.232265 -2.26948
1.19948 0.302397 -1.8006
0.713114 -0.0135239 1.89397
0.692503 0.337417 2.33114
1.09025 0.317658 1.85324
0.779699 0.890177 -2.22162
0.79334 1.65402 -1.77023
1.17945 0.97751 -1.75704
0.666589 1.68275 2.15483
0.70367 2.50038 1.61177
1.04705 1.65269 1.68011
-1.20192 0.313767 -0.588105
-0.813054 0.0586817 -0.574941
-1.18199 0.313913 0.628532
-0.813237 0.011994 0.659181
-1.18888 1.2546 -0.61148
-0.779702 1.97553 -0.639891
-1.12493 1.47113 0.531391
-0.746183 2.26767 0.480425
0.781398 0.0529568 -0.571703
1.18217 0.306959 -0.584189
0.745223 0.00868085 0.665427
1.13431 0.309537 0.636156
0.800096 1.97515 -0.639486
1.19351 1.2534 -0.610665
0.758141 2.26724 0.480957
1.12972 1.46989 0.532969
-1.59632 -0.208743 -2.26164
-1.59202 -0.0562203 -2.7335
-1.19833 -0.255345 -2.73621
-1.59845 -0.163759 -1.17829
-1.59762 0.0683156 -1.79348
-1.20262 -0.14483 -1.79287
-1.58843 -0.205183 0.0520207
-1.59523 0.0777726 -0.579175
-1.20636 -0.177312 -0.566011
-1.57309 -0.248827 1.28301
-1.56742 0.0473533 0.646623
-1.19867 -0.254565 0.677271
-1.57084 -0.227165 2.37037
-1.54836 0.046564 1.86237
-1.19553 -0.285228 1.90498
-1.58136 -0.143723 3.31532
-1.56039 0.112782 2.8128
-1.2047 -0.212775 2.85303
-1.57783 0.211498 3.75299
-1.21731 -0.103609 3.78924
-1.59333 0.220838 -2.26534
-1.58194 0.523024 -2.72105
-1.19617 0.149925 -2.73377
-1.5944 0.309847 -1.19437
-1.58506 0.660121 -1.7836
-1.57422 0.330309 0.015427
-1.58391 0.800229 -0.604586
-1.5427 0.342744 1.22598
-1.52909 0.906063 0.574924
-1.53792 0.386511 2.30481
-1.47978 0.998808 1.75535
-1.55685 0.468003 3.25047
-1.51165 1.06163 2.70603
-1.18258 0.405439 2.78553
-1.54501 1.13895 3.65359
-1.19947 0.506976 3.72474
-1.57367 0.962307 -2.23931
-1.55564 1.57255 -2.7217
-1.18087 0.874759 -2.70373
-1.57457 1.1505 -1.19382
-1.55561 1.7243 -1.78863
-1.53878 1.37598 -0.0450891
-1.55232 2.00384 -0.649965
-1.46616 1.56213 1.10429
-1.50108 2.27449 0.476844
-1.45352 1.67392 2.15658
-1.45086 2.485 1.61633
-1.49981 1.73258 3.10915
-1.47607 2.57645 2.5559
-1.11537 1.70345 2.63211
-1.50898 2.6465 3.50502
-1.15717 1.76137 3.58642
-1.53758 2.33454 -2.27102
-1.1466 2.23016 -2.72926
-1.53336 2.57764 -1.24478
-1.14646 2.40079 -1.80186
-1.51463 2.90235 -0.128033
-1.14314 2.72477 -0.678376
-1.48578 3.19736 0.988878
-1.12233 3.07103 0.425877
-1.47342 3.38752 2.01565
-1.10124 3.33233 1.54948
-1.48524 3.49038 2.95177
-1.10611 3.45696 2.47713
-1.12552 3.53544 3.42261
-0.804636 -0.191432 -2.26744
-0.802482 -0.0492003 -2.73648
-0.00742518 -0.249042 -2.7382
-0.810531 -0.158383 -1.18059
-0.0061575 -0.135142 -1.79584
-0.816606 -0.226694 0.0592397
-0.0201224 -0.184848 -0.563311
-0.821115 -0.290966 1.29924
-0.0400542 -0.27259 0.686274
-0.829387 -0.270838 2.38764
-0.0594304 -0.311503 1.91902
-0.840644 -0.172662 3.32694
-0.826888 0.079882 2.82576
-0.084003 -0.231212 2.86323
-0.838947 0.191868 3.76098
-0.0997679 -0.115195 3.79609
-0.795094 0.50166 -2.71645
-0.00703271 0.149821 -2.73417
-0.825191 0.444412 3.2598
-0.786295 1.04727 2.7116
-0.0775431 0.390158 2.79432
-0.811629 1.12939 3.65758
-0.0909161 0.497832 3.7305
-0.771828 1.53237 -2.71129
-0.00195524 0.85304 -2.69839
-0.772734 1.73225 3.10938
-0.745408 2.58397 2.55333
-0.0427594 1.70379 2.63325
-0.773715 2.65031 3.50401
-0.0619205 1.76 3.58856
-0.755486 2.29641 -2.26009
0.0290758 2.21115 -2.72369
-0.75624 2.54792 -1.23546
0.0280278 2.38092 -1.7958
-0.750843 2.89345 -0.124466
0.0203797 2.71416 -0.674377
-0.737794 3.206 0.986478
0.0119613 3.0719 0.426382
-0.733937 3.40177 2.01096
0.00579177 3.33923 1.54782
-0.746388 3.50203 2.94797
-0.00387113 3.46341 2.47577
-0.0183337 3.53964 3.4223
0.791053 -0.192751 -2.2666
0.788024 -0.0500207 -2.73589
1.18523 -0.25713 -2.73492
0.784251 -0.161607 -1.17855
1.19049 -0.147416 -1.79124
0.75643 -0.230744 0.0637237
1.16923 -0.183358 -0.561769
0.72163 -0.293126 1.30606
1.12529 -0.259039 0.684838
0.685953 -0.271877 2.39461
1.08409 -0.28727 1.91486
0.656873 -0.173745 3.33238
0.665342 0.0790642 2.83179
1.04579 -0.214482 2.86141
0.648262 0.190768 3.7656
1.02441 -0.105471 3.79608
0.786107 0.501201 -2.7161
1.18596 0.14876 -2.73292
0.656731 0.443577 3.26501
0.665993 1.04668 2.71597
1.04153 0.404144 2.79354
0.658792 1.12843 3.66148
1.02572 0.50533 3.73123
0.798949 1.53181 -2.71079
1.18256 0.874023 -2.70314
0.668054 1.73154 3.11244
0.698777 2.58324 2.55569
1.04081 1.7024 2.63653
0.69346 2.64933 3.50685
1.04021 1.75991 3.59137
0.81259 2.29566 -2.2594
1.20627 2.2289 -2.7281
0.804647 2.54716 -1.23472
1.20349 2.39958 -1.80074
0.783184 2.89261 -0.123529
1.18674 2.72342 -0.677018
0.755547 3.20513 0.987726
1.15114 3.0696 0.427656
0.735858 3.40087 2.01263
1.11713 3.33092 1.55182
0.724184 3.50103 2.9501
1.10137 3.45547 2.48011
1.09126 3.5338 3.42618
1.58467 -0.211794 -2.25956
1.58316 -0.0583493 -2.73195
1.57547 -0.169166 -1.17446
1.59107 0.0654464 -1.79165
1.53809 -0.211653 0.0593459
1.57001 0.0706441 -0.574254
1.48775 -0.253183 1.29364
1.51437 0.0418175 0.655568
1.44392 -0.229876 2.38166
1.46123 0.0439116 1.87413
1.41333 -0.146208 3.32511
1.42197 0.110598 2.82316
1.40187 0.209091 3.76171
1.58956 0.218891 -2.26404
1.58241 0.521582 -2.71996
1.5856 0.305257 -1.19145
1.58946 0.658666 -1.78264
1.54629 0.324114 0.0219677
1.58031 0.795482 -0.601521
1.48786 0.338912 1.23606
1.51416 0.902141 0.580792
1.43928 0.384386 2.31564
1.44421 0.996865 1.76335
1.41052 0.465897 3.25976
1.41634 1.05986 2.7141
1.40714 1.13681 3.66112
1.5823 0.961356 -2.23856
1.58988 1.57111 -2.72045
1.58417 1.14889 -1.19271
1.5896 1.72307 -1.78755
1.54818 1.37351 -0.0426963
1.58015 2.00166 -0.648197
1.47051 1.56009 1.10808
1.52272 2.27225 0.479668
[...]
POINT_DATA 29498
VECTORS point_vectors float
-1.49285 -3.51408 9.18909
0.267314 0.8214 9.23444
-1.62132 0.29905 1.96801
0.0672458 -0.0089307 0.360193
1.48902 -3.52541 9.23206
-0.237585 0.196798 4.43211
1.65094 0.305475 2.00102
-0.0633436 0.00840724 0.303452
0.027617 -0.00153502 1.795
0.020985 0.0269581 1.64329
0 0 0
0.00134214 0.00463166 0.00961552
-0.0342362 0.0052795 0.938944
-0.0296526 -0.0109844 0.567383
0 0 0
-0.00131656 0.00454363 0.00921233
-0.727878 -0.586929 20.1148
-1.12849 -0.899673 20.9629
-0.36039 -0.455559 21.7005
0.0900783 -0.0845929 21.8868
0.47601 0.197223 21.9042
0.735785 0.404638 21.7297
0.930485 0.399221 21.356
-1.01341 -0.536972 19.9201
-1.81914 -0.960178 20.9299
-0.557757 -0.663684 21.8861
0.0698068 -0.370643 21.9939
0.684546 -0.104913 22.0886
1.15362 0.0551947 21.9325
1.52999 0.0178151 21.7911
-1.32664 -0.0585067 19.6336
-2.42859 -0.0970941 20.6677
-1.6092 -0.555868 21.9704
-0.69138 -0.516629 22.2055
-0.0122294 -0.607528 22.1957
0.478738 -0.714191 21.9827
0.916975 -0.693361 22.0147
-0.669007 0.42268 19.9796
-0.992744 0.656061 20.4305
-0.93605 0.505062 21.3535
-0.521416 0.137799 21.6102
-0.169311 -0.0886756 21.9052
0.187697 -0.132809 21.7834
0.0353046 -0.112909 21.0996
-0.794552 -1.20619 19.5667
-1.50502 -2.78707 21.5141
-0.322209 -0.452304 22.1494
0.0154372 0.0404444 22.1349
0.293938 0.585092 22.1435
0.583756 1.01795 21.9242
1.05864 1.55322 21.4967
-1.19953 -1.28429 18.7863
1.19781 1.43856 12.7816
2.25585 1.82678 15.6623
-1.73141 0.0564506 17.7263
0.430299 -0.291463 9.6322
1.12536 -1.3342 13.6721
-0.610059 0.843241 19.5335
-1.07547 1.59016 20.0062
-1.01389 1.41551 21.4368
-0.506847 0.43063 21.7768
-0.192194 -0.0614164 22.1453
0.0695477 -0.112935 21.786
0.0361438 -0.180514 21.2982
0.763702 -1.21465 19.5503
1.48939 -2.82516 21.5336
0.311315 -0.472836 22.1745
-0.034938 0.0390209 22.0984
-0.280405 0.524299 22.1505
-0.510167 1.01564 21.9535
-0.783899 1.83331 20.8131
1.19014 -1.30223 18.7597
-0.502568 0.798343 7.66022
-1.82687 2.12907 11.2699
1.72152 0.0580382 17.7085
-0.338559 0.229974 5.11354
-0.618304 -1.08016 9.55478
0.638052 0.800786 19.5755
1.07849 1.53667 20.0347
1.01091 1.34478 21.4357
0.487704 0.442556 21.7574
0.148375 -0.0473283 22.1397
-0.109647 -0.0957842 21.7816
-0.0860342 -0.171036 21.3265
0.729431 -0.597377 20.1165
1.13026 -0.91854 20.9588
0.35543 -0.463465 21.6919
-0.120605 -0.0779505 21.8623
-0.492328 0.177228 21.8845
-0.777688 0.409369 21.815
-1.02108 0.555257 21.2777
1.00999 -0.544047 19.9179
1.8124 -0.969075 20.9281
0.539904 -0.677399 21.8906
-0.105685 -0.399662 21.9956
-0.701217 -0.147368 22.0656
-1.22245 0.0550555 21.9977
-1.73512 0.107547 21.7635
1.31422 -0.0585117 19.6471
2.39477 -0.101267 20.6652
1.5794 -0.546652 21.9378
0.684791 -0.500291 22.1597
0.0911551 -0.553787 22.1093
-0.328945 -0.716382 22.0656
-0.821956 -0.870295 22.0168
0.655299 0.399161 20.0025
0.956951 0.601286 20.4505
0.907406 0.48071 21.3344
0.491853 0.123576 21.5583
0.141566 -0.0798246 21.8531
-0.17899 -0.114899 21.7603
-0.0660708 -0.0886483 21.1278
-1.91904 -0.320353 2.81179
-0.000260894 -0.0351266 0.243124
0.00867001 -0.00707636 0.821082
0.00264326 -0.00436131 0.0276454
-0.0131884 0.0419521 0.183592
0.0339976 0.0177353 0.365755
-0.000158983 0.250521 0.27004
-0.276584 -0.155766 0.785564
-0.00224429 0.00205699 -0.0014971
0.00112855 0.00350283 0.0101455
1.91312 -0.319395 2.81257
-0.0029062 0.00087417 0.617488
0.0146547 -0.026273 0.00415375
-0.0173221 -0.0139457 0.128398
0.277013 -0.155901 0.788572
-0.00123651 0.00362601 0.00970843
0.00783349 0.0288822 1.56021
2.53376e-05 0.000817294 0.00441318
-4.48801e-07 2.38402e-07 9.59805e-05
5.23576e-05 0.00223279 0.0128025
1.20239e-19 -3.74219e-20 -3.46236e-17
0.00316978 0.0117303 0.02083
-0.000178706 0.0428737 0.084791
-0.000300069 3.99084e-05 0.0353245
-0.040363 0.00634942 1.17091
-1.5656e-05 0.000382253 0.00240573
-4.97032e-05 0.00201713 0.0120503
-0.00311489 0.0115632 0.0207087
0.000128603 0.000457812 0.0191495
2.76919e-05 0.00155063 0.00771328
1.08775e-06 4.96021e-05 0.000300617
4.33921e-08 6.14211e-08 2.63524e-06
-2.79807e-08 3.14953e-09 1.02612e-05
-0.000111707 0.000360563 0.00431411
-0.00227309 -0.268341 0.141809
-0.00474932 -0.000519834 -0.000671788
-0.00111173 0.0448231 0.0740339
-0.000125847 0.00905256 0.067651
-0.000364089 -0.000625242 0.015532
-0.000136338 0.000439294 0.0212993
-3.62145e-05 0.00204377 0.0103323
7.79215e-07 -3.457e-05 -0.000216407
-3.20633 -2.10979 21.237
-2.42127 -4.25806 22.1482
-2.92224 -3.151 18.0269
1.04935 0.315977 21.0874
0.502941 0.881669 21.4103
0.764048 1.04418 10.9396
-4.88987 0.106752 20.6207
-4.74576 1.25159 15.5753
-2.91795 2.96975 19.046
0.0706626 -0.396139 19.435
-0.299211 0.123718 5.13709
-0.361365 -0.0797902 22.2533
2.40106 -4.28839 22.1733
2.92138 -3.1942 17.99
3.19356 -2.11892 21.2337
-0.459606 0.739172 20.7115
0.00145505 0.177667 6.4489
-0.990145 0.414802 19.7663
4.7422 1.26369 15.5504
2.92387 2.83697 19.1144
4.82327 0.0937901 20.6082
0.187388 0.874666 3.04684
0.29818 -0.0102001 22.207
0.00953464 -0.302265 19.2175
-0.209458 -0.899045 22.2182
-0.223867 -0.133876 20.9875
0.332419 -0.245341 21.1918
0.106355 0.168963 21.0729
-2.48118 -1.25137 22.7161
-3.63651 2.894 21.8467
-0.851613 -0.798395 21.5319
-1.09105 0.735486 22.6693
0.230751 -0.162308 20.7888
0.148319 -0.851934 21.9036
-0.139841 0.167573 20.4602
-0.369658 -0.16569 20.3588
3.56349 2.73931 21.8421
2.45345 -1.24073 22.6843
1.05945 0.731754 22.6255
0.855174 -0.774277 21.4926
-1.01804 -0.804125 20.4337
-0.915405 -0.585121 20.0148
-0.82114 -0.874579 19.8883
-0.734234 -0.703003 21.5335
-1.41841 -0.950013 20.9577
-1.43142 -1.58662 21.1188
-0.0969579 -0.257757 21.8358
-0.459148 -0.54894 21.7802
-0.294682 -0.508146 21.9384
0.281279 0.0317077 21.9341
0.0825337 -0.226405 21.8908
0.112266 -0.0497154 21.9955
0.635999 0.287763 21.8262
0.560357 0.0766554 21.9369
0.469984 0.380902 22.0134
0.887591 0.461457 21.5606
0.976299 0.297225 21.8073
0.842816 0.73804 21.9166
1.28462 0.274214 21.4138
1.18886 0.871767 21.4967
-1.53671 -0.78444 20.1838
-1.2364 -0.387081 19.7377
-1.21979 -0.876409 19.4564
-1.16475 -0.865657 21.7184
-2.30637 -0.650476 20.8372
-0.192729 -0.511177 21.9425
-0.989257 -0.79411 21.9966
0.323249 -0.247557 22.0944
-0.219276 -0.59866 22.1354
0.914275 -0.0117844 21.9934
0.499786 -0.575433 22.2024
1.43026 0.0476167 21.7203
1.0405 -0.577699 22.0073
1.67819 0.510219 21.3828
1.49126 -0.565358 21.8939
2.14637 0.640199 20.6034
-2.01689 -0.0248283 19.9034
-1.0302 0.339298 19.7494
-1.66752 -0.0289693 18.919
-2.13642 -0.365809 21.5251
-1.82707 0.612869 20.3716
-1.07993 -0.556444 22.1643
-1.62663 0.397665 21.5664
-0.330013 -0.515452 22.234
-0.769127 0.00961153 22.0003
0.221034 -0.655791 22.1179
-0.19584 -0.216011 21.9336
0.793248 -0.772951 21.7658
0.0586021 -0.346151 21.7539
0.510055 -0.768095 20.5361
0.232595 -0.497708 21.6733
1.13774 -1.15837 20.8125
-0.834158 0.57938 20.1383
-0.710109 0.636183 19.7537
-1.00639 0.643381 20.8499
-1.10202 1.05154 20.2693
-0.710625 0.307805 21.4743
-1.06386 0.879473 21.4542
-0.329509 -0.0422235 21.866
-0.634154 0.388111 21.6864
-0.0381362 -0.120657 21.8841
-0.209923 -0.0377586 22.1007
0.174543 -0.137494 21.5174
0.130506 -0.123946 21.8333
0.018192 -0.147189 21.1472
-1.31758 -2.1857 19.8945
-0.98505 -1.31831 19.2086
-0.0189656 -1.72058 19.1852
-0.710279 -1.18952 22.2695
-0.0196749 -3.94984 22.0528
-0.125211 -0.172957 22.1051
-0.0235792 -0.707838 22.3263
0.162898 0.29609 22.2
-0.0182184 -0.0509798 22.2549
0.456471 0.833633 22.0569
-0.0456553 0.552323 22.2476
0.819663 1.23847 21.8283
1.0347 1.52129 20.6588
-0.0467807 1.15527 21.8563
1.48703 1.82937 17.5074
0.0905716 1.82844 20.19
-1.67039 -0.869539 17.976
-0.0169852 -1.89441 17.8751
2.09826 1.74466 15.33
0.48161 0.270156 4.94725
-0.294645 0.113397 3.09829
2.21354 -0.32503 10.7214
0.28629 1.27305 3.17911
-1.14854 0.985757 18.703
-0.0102183 0.242125 16.0969
1.00511 -0.913613 12.5397
-0.084743 -0.353925 21.9191
-0.41877 0.0986275 -0.570371
0.0482148 -0.692464 21.7696
-0.0575276 -0.237905 3.12719
-0.838485 1.25505 19.6502
0.0170154 1.05901 19.2833
-1.11707 1.71905 20.6311
0.0438238 2.19816 19.7153
-0.71144 0.848662 21.7345
0.0183027 1.98899 21.5278
-0.310413 0.051447 22.1755
-0.0143271 0.719527 21.8238
-0.110635 -0.128338 22.0098
-0.0316402 0.039246 22.2038
0.0732126 -0.157932 21.4727
-0.0283132 -0.115782 21.8115
-0.029544 -0.184062 21.3324
1.29258 -2.2146 19.8823
0.966871 -1.33609 19.1865
0.82165 -0.882722 19.8631
0.689047 -1.20605 22.2869
1.42302 -1.61682 21.1127
0.115091 -0.182272 22.0837
0.279172 -0.506456 21.9391
-0.166769 0.280985 22.1917
-0.134151 -0.0351648 21.9747
-0.392031 0.756318 21.98
-0.465044 0.388062 22.0128
-0.642549 1.36835 21.4525
-0.806865 1.39443 18.8406
-0.782022 0.780372 21.8447
-1.21255 1.97143 16.2888
-1.16503 1.20498 21.8613
1.6682 -0.880825 17.9389
1.21948 -0.889833 19.4437
-1.42241 1.46211 9.45537
0.586186 -0.364767 -0.786072
-1.61298 0.762104 19.0683
-1.27724 -0.441962 3.01021
-2.5143 1.12268 19.1191
1.15272 0.950231 18.7426
1.66113 -0.0316169 18.9137
-0.588576 -0.589409 7.61446
0.0229251 -0.236444 21.8846
-0.353405 -0.544563 19.5309
-0.0986077 -0.615644 21.898
-1.15104 -1.1021 19.5498
0.864235 1.1882 19.6855
0.718074 0.610283 19.7769
1.11846 1.63595 20.6472
1.11061 0.981723 20.2911
0.708705 0.848105 21.7294
1.05477 0.832293 21.443
0.280651 0.0648713 22.1724
0.593618 0.380042 21.658
0.0568014 -0.111317 22.0029
0.170856 -0.0246312 22.0758
-0.116143 -0.138347 21.4893
-0.146656 -0.107261 21.8188
-0.0627106 -0.129168 21.1859
1.01615 -0.818043 20.4359
0.908598 -0.589176 20.0174
0.72848 -0.713296 21.538
1.42378 -0.965176 20.9601
0.0738502 -0.25324 21.844
0.449973 -0.574961 21.7736
-0.299359 0.0359262 21.9312
-0.11436 -0.247684 21.8737
-0.647709 0.27586 21.8191
-0.585209 0.0591842 21.9302
-0.929385 0.481875 21.4632
-1.06811 0.31601 21.8504
-1.55843 0.368282 21.3459
1.5372 -0.791426 20.1803
1.23502 -0.38897 19.7449
1.15654 -0.875185 21.7243
2.28617 -0.653405 20.8377
0.17243 -0.529371 21.9388
0.969582 -0.801113 21.9832
-0.366995 -0.293863 22.0889
0.208408 -0.6267 22.1203
-0.946613 -0.044462 21.9975
-0.44108 -0.61245 22.079
-1.4975 0.0830568 21.902
-0.949541 -0.691132 22.1089
-1.66663 -0.649551 21.6514
1.98619 -0.022468 19.9233
1.0174 0.329016 19.7722
2.09851 -0.365326 21.5126
1.76434 0.573045 20.3911
1.06755 -0.545855 22.1265
1.55746 0.376947 21.5438
0.350313 -0.495222 22.1619
0.742487 0.00590444 21.9437
-0.101527 -0.607804 22.1159
0.201029 -0.163681 21.8859
-0.592084 -0.845484 22.1337
-0.0692811 -0.31226 21.7268
-0.213159 -0.478486 21.745
0.815079 0.540948 20.1642
0.98235 0.610524 20.8446
0.68606 0.290516 21.4577
0.29988 -0.0445421 21.8226
0.00825407 -0.1093 21.8457
-0.18273 -0.115785 21.5227
-1.2698 -0.825379 20.3338
-1.93744 -2.81225 19.2519
-1.26835 -1.36899 20.2385
-2.27539 -1.53275 19.6072
-1.04268 -0.925938 19.6593
-2.17646 -1.99997 21.2268
-0.943518 -0.795249 21.585
-0.775308 -0.948211 22.136
-0.741242 -0.973314 21.8781
-1.18718 -1.43167 22.5879
-0.214913 -0.592666 22.1057
-0.145613 -0.376329 21.8781
-0.0384191 0.0305424 20.852
-0.0652593 -0.247041 21.9508
0.135574 -0.518168 21.5856
0.236268 -0.101058 22.0259
0.291219 -0.0745881 22.0074
0.341107 0.502261 20.9832
0.267578 0.156848 22.0426
0.571282 -0.0249837 20.7286
0.746839 0.423929 22.0726
0.762519 0.185097 21.8927
0.718 1.21349 21.0497
0.644597 0.556342 21.9243
1.39393 0.404063 21.1116
1.26783 0.762221 21.6863
1.10325 0.411353 21.5578
1.4579 1.99743 19.1857
1.07024 0.835318 21.4515
1.95107 0.563941 20.849
1.76925 0.77131 21.2605
-1.88315 -0.51857 20.04
-4.57128 -1.67107 15.7877
-3.35942 0.206383 18.822
-1.58465 -0.55982 19.0583
-4.71964 -1.23447 21.1177
-1.70775 -0.809249 21.7649
-3.62699 -0.948713 22.2712
-0.781296 -1.46166 22.0667
-0.539236 -0.688893 22.0885
-1.47555 -1.12776 22.272
0.064453 -0.36182 19.7641
0.0805151 -0.568067 22.2277
-0.352806 -0.435156 20.2434
0.877204 0.135934 18.0807
0.742474 -0.565229 22.0815
-0.55865 0.0542104 2.22593
0.168155 -0.636774 19.9325
1.47297 -0.313114 20.022
1.26743 -0.610213 21.879
1.47351 0.180304 8.08279
0.856068 -1.03757 21.1384
2.20772 -0.541563 19.9938
-1.46647 0.538964 19.9274
-1.9075 1.95433 18.5196
-0.897792 0.882569 19.9229
-1.21866 0.619511 19.2635
-2.56198 1.4139 19.9446
-1.91016 0.568923 21.0154
-3.50422 3.15506 20.2543
-1.15837 1.08961 20.7986
-2.48555 0.992621 21.7963
-1.17619 0.177028 21.9025
-2.15315 1.61802 22.8015
-0.816407 0.567917 21.6444
-0.990519 0.274458 22.3094
-0.433744 -0.118409 22.0359
-0.597108 0.214335 22.4563
-0.391019 0.0683454 22.1391
-0.258834 -0.178001 22.1344
-0.0712993 -0.288661 21.8178
-0.246317 -0.227347 22.113
-0.168313 -0.108486 21.7068
-0.00450823 -0.424505 21.8668
0.141677 -0.455494 21.526
0.0201984 -0.636253 21.8358
0.0872662 -0.16982 21.3646
0.143787 -0.591464 21.7793
1.92269 -2.84824 19.2374
-0.0211219 -3.38951 19.5372
-0.0194797 -6.04955 15.7873
-0.0145198 -1.90036 18.6128
-0.0133886 -5.68342 23.4477
0.771804 -0.961626 22.0613
-0.0205719 -1.61822 22.7809
-0.0164668 -0.307125 16.5407
0.0304821 0.00302024 20.4968
-0.0230335 -0.341263 22.2357
-0.0110963 0.00420643 17.7092
-0.345607 0.512168 20.1561
-0.0267798 0.271503 22.3352
-0.0922774 0.613267 18.1925
-0.574865 0.99121 19.5178
-0.0532618 0.804966 21.8674
-0.495887 -0.356631 2.62235
-0.245077 1.1187 15.7141
-1.22459 2.0323 18.6323
-0.0221837 1.54414 21.353
-0.16197 0.78083 2.95959
-0.0585395 2.00162 13.7171
4.56975 -1.68242 15.7186
-0.0133006 3.11883 11.1509
-0.0152425 -1.29128 16.3535
1.16228 -0.411985 -0.373897
-0.681178 1.19445 -0.545834
0.319138 -0.248542 -4.09782
-0.72585 -0.236265 1.59758
-0.210775 -0.05175 0.27144
1.06513 1.04827 -4.22272
1.93141 1.88528 18.5735
0.0278742 1.62824 19.366
0.0182574 1.43155 17.9974
0.0610558 4.84631 17.8744
3.49651 3.01946 20.3006
0.0406529 2.39884 20.5099
0.0363381 5.67885 21.4727
2.12062 1.5735 22.7604
0.00592969 1.26684 21.8839
-0.016313 1.35611 22.9422
0.549288 0.252688 22.4121
-0.0199771 0.21445 22.1521
-0.0591623 0.120086 22.3791
0.170648 -0.115405 22.0705
-0.0314878 -0.143602 21.6321
-0.0977566 -0.174824 22.1901
-0.0696558 -0.506446 21.9391
-0.0290433 -0.153605 21.298
-0.0558925 -0.783027 21.9735
1.26451 -0.836706 20.344
1.26611 -1.39687 20.2143
2.28622 -1.55084 19.5886
1.04317 -0.946625 19.644
2.17125 -2.02595 21.23
0.943704 -0.815159 21.5901
0.724288 -0.990462 21.8853
1.14838 -1.44502 22.5869
0.191386 -0.587537 22.1068
0.12325 -0.397704 21.881
0.0448253 -0.236304 21.9508
-0.183265 -0.454407 21.0758
-0.288961 -0.0713831 21.971
-0.334007 -0.105428 21.9833
-0.288509 0.177799 22.0379
-0.617786 0.0249793 19.4916
-0.718531 0.440486 21.9576
-0.813544 0.182226 21.9163
-0.619892 0.579458 21.9693
-1.227 0.546494 19.2106
-1.25004 0.91028 21.3805
-1.25018 0.396541 21.7602
-0.995369 0.973763 21.786
-2.14507 1.02272 18.9276
-1.81047 1.15233 20.9723
1.87587 -0.522573 20.047
3.34413 0.197092 18.8241
1.58384 -0.566394 19.047
4.68514 -1.23516 21.1083
1.68992 -0.811607 21.7562
3.58838 -0.94231 22.2429
0.750566 -1.46904 21.998
0.527603 -0.700927 22.0637
1.48236 -1.11655 22.2764
-0.0813433 -0.282445 19.2477
-0.0695499 -0.606812 22.1581
0.367813 -0.420468 20.2212
-0.751394 0.255873 16.2049
-0.640528 -0.620053 21.9843
-0.0583125 -0.287322 18.2672
-1.05111 -0.019302 15.7522
-1.25667 -0.69926 22.2395
-0.78732 -0.913431 19.7627
-2.32238 -0.537874 16.7306
1.438 0.505765 19.9611
0.902236 0.835201 19.9556
1.21098 0.589948 19.2981
2.51298 1.33006 19.9853
1.84086 0.540646 21.0087
1.15384 1.01284 20.8072
2.41918 0.944555 21.7661
1.14816 0.16914 21.8685
0.788708 0.537739 21.6089
0.962997 0.2829 22.2652
0.414702 -0.101168 21.9814
0.368547 0.0791461 22.1703
0.23422 -0.117769 22.0867
0.0754801 -0.234429 21.8044
0.128661 -0.0891308 21.7045
-0.00662898 -0.324252 21.8443
-0.154452 -0.41484 21.5047
-0.0965859 -0.1456 21.3412
-0.144781 -0.505251 21.7982
-1.74485 -1.53703 19.9562
-0.909627 -1.16045 22.1511
0.0524998 -0.299416 22.0156
0.47089 0.115468 22.0646
1.0147 0.625966 21.908
1.42997 0.752817 21.8283
-3.25683 -0.868459 18.9816
-2.07707 -1.58367 22.9771
-0.208818 -0.938348 20.9122
0.270891 0.0737891 18.8028
1.04427 -0.120796 18.7259
1.79381 -0.402654 20.1171
-1.91597 1.10028 19.3585
-2.7654 1.36849 20.8768
-1.67821 0.602416 22.2694
-0.566647 -0.012782 22.277
-0.113386 -0.311536 21.9507
0.133582 -0.662576 21.4975
-0.0231995 -4.68599 18.466
-0.0158873 -1.11069 18.7143
-0.0167871 -0.170549 17.0222
-0.0364058 0.356193 17.5163
-0.180044 0.754345 16.9057
-0.240134 1.89602 14.7725
-0.0230929 -2.59105 10.7801
-0.356579 -0.284342 -2.25248
0.603429 0.0477943 -4.55856
0.0386111 3.02621 17.4736
0.0627877 5.6897 19.1032
0.00964035 3.1403 23.0848
-0.0347487 0.563217 22.5563
-0.0758879 -0.0379622 22.1136
-0.110239 -0.517976 22.5881
1.74285 -1.5646 19.9443
0.880191 -1.16784 22.1666
-0.0825149 -0.290658 22.014
-0.527901 0.167977 21.9477
-0.957151 0.65313 21.8054
-1.46821 1.22655 20.723
3.25422 -0.8748 18.977
2.05959 -1.59023 22.9792
0.180698 -0.898013 20.6119
-0.244358 0.217505 17.7362
-0.685154 0.100388 15.516
-1.72087 -0.168555 16.4138
1.88702 1.03517 19.4116
2.68906 1.27709 20.8965
1.63084 0.584208 22.2206
0.540484 0.0178671 22.2321
0.101706 -0.221395 21.9164
-0.160033 -0.594108 21.4749
-1.84169 -0.630321 2.94398
-0.0241348 -0.0693879 0.337874
-0.034324 0.0106326 0.453556
0.0366165 -0.0250699 0.150923
-0.0145427 0.0376985 0.246485
0.00581886 0.0237012 0.654094
-2.54384 0.250821 2.54971
-0.0896631 0.22545 0.255695
-1.34923 -0.557716 2.73831
0.0405953 -0.0226245 0.148196
-0.00744477 0.00172945 -0.00247676
0.0090974 0.0132523 0.0679085
0.0226598 -0.0651856 0.314245
1.82336 -0.625939 2.92193
0.0324862 0.0133406 0.418755
-0.00166698 0.0303301 0.115325
-0.000906738 -0.0411572 0.0348954
-0.0145285 0.00310022 0.248931
0.0862102 0.218349 0.247081
2.53441 0.250429 2.53513
1.31442 -0.555643 2.67656
0.000816936 0.00525344 -0.00408251
-0.0698092 -0.0359337 0.282645
-0.00959993 0.0148162 0.0619556
-0.0226358 0.0652254 1.42337
0.000359174 0.0334227 1.69679
5.04426e-05 0.00301917 0.0279487
0 0 0
0.0819952 -0.0547736 1.76662
0.0167791 0.0146329 1.54397
-0.000383398 0.0100039 0.108518
0 0 0
0 0 0
0.0033958 0.0312481 0.0863159
0.00194121 0.00620947 0.0145852
-0.00379802 0.00418762 0.00887902
0.000916999 0.00307466 0.00903163
0.0123081 0.0369948 0.139316
0.00413069 0.0177431 0.0340941
0.00175682 0.000340938 0.0299487
0.000962198 0.00585715 0.439278
-0.000632103 3.64294e-05 0.00970801
-0.042891 -0.0279875 1.32204
0.000184067 0.00218167 0.0262723
0 0 0
0 0 0
-0.0481761 -0.002002 1.18729
-0.000104681 0.00886003 0.105675
0 0 0
0.00389885 0.00429279 0.00919986
-0.00320683 0.0295501 0.0842033
-0.00196592 0.00632157 0.0153646
-0.000933024 0.00312428 0.00876495
-0.00213464 0.000384922 0.030074
-0.0115353 0.034524 0.129235
-0.00405211 0.0173371 0.0332681
0 0 0
-0.331744 -0.203734 0.108379
4.10852e-07 -5.7163e-08 -2.56295e-05
0.0286112 -0.498466 0.0952412
0 0 0
9.29119e-07 1.1124e-08 3.57811e-06
-4.4795e-18 -5.47137e-18 -6.84389e-17
-0.00816453 0.000529333 -0.00115159
-0.00200519 -0.000540955 0.0679051
-0.104031 -0.196495 -0.0547154
0 0 0
2.62695e-05 5.28479e-05 0.000581045
0.0218338 0.355082 0.148981
0.0243881 0.236831 0.61776
0 0 0
-0.0187697 0.0210315 0.0365054
-0.0148621 0.0173473 -0.00663093
-0.000232773 -0.000314151 0.003192
0.0198778 0.0658406 0.376158
0.000672488 -0.000480169 0.0101494
0.354528 -0.220294 0.117033
0 0 0
-0.00342287 -1.611e-05 0.0119067
0 0 0
0.00718058 -0.00348598 -0.000994366
0 0 0
0 0 0
0 0 0
0.0189998 0.0212076 0.0369417
0 0 0
-0.00110132 -0.000430325 0.00991899
-0.0183818 0.0624455 0.355903
-0.000420857 0.0137047 0.114255
0 0 0
0 0 0
3.35305e-05 0.00166399 0.00807167
-1.45041e-06 4.30366e-07 0.000298113
-0.000117915 -0.000639436 0.0333365
4.56319e-05 0.00218255 0.0110369
4.66662e-05 0.00140855 0.00804399
-1.30453e-08 5.96878e-09 7.2245e-06
-8.39943e-06 2.56638e-05 0.00249023
0.0141834 0.072378 0.207776
-0.00457259 0.0144701 0.145623
-2.53851e-05 0.00937413 0.0168378
-5.75734e-05 0.00920744 0.0415749
-6.99266e-05 0.000371891 0.0135144
-0.000122103 -0.000192637 0.00817651
-0.00293205 2.15776e-05 0.0440074
0.000312015 0.00722301 0.0661389
-2.06316e-18 5.68645e-18 2.78907e-17