# vtk DataFile Version 2.0
tri_press
ASCII
DATASET UNSTRUCTURED_GRID
POINTS 3682 float
-0.803924 0.315 -1.805
-0.810184 0.285 1.855
-0.775 0.927423 -1.745
-0.665 1.66199 1.675
0.803946 0.315 -1.805
0.721199 0.285 1.865
0.775 0.927482 -1.745
0.665 1.66197 1.675
-0.811234 0.299777 -0.585
-0.808134 0.294963 0.635
-0.802549 1.23649 -0.605
-0.747535 1.463 0.535
0.788167 0.293197 -0.581667
0.752215 0.291566 0.641667
0.802577 1.23656 -0.605
0.747529 1.463 0.535
-1.59358 -0.262178 -2.73384
-1.59905 -0.155307 -1.78944
-1.59785 -0.172211 -0.56714
-1.57901 -0.238156 0.671181
-1.56716 -0.259498 1.89485
-1.57452 -0.194832 2.84589
-1.58821 -0.092613 3.78476
-1.59046 0.149737 -2.73315
-1.59619 0.291939 -1.79752
-1.59261 0.327756 -0.591211
-1.55584 0.332863 0.622065
-1.52957 0.352626 1.8299
-1.54626 0.420397 2.77971
-1.56745 0.51561 3.72123
-1.57342 0.896311 -2.70894
-1.57392 1.0283 -1.76967
-1.57522 1.2727 -0.617961
-1.50233 1.47926 0.527783
-1.42999 1.64499 1.68081
-1.47704 1.70286 2.63236
-1.52258 1.76229 3.58594
-1.53786 2.24879 -2.73447
-1.5373 2.42029 -1.80758
-1.52941 2.73498 -0.68197
-1.49984 3.06972 0.425905
-1.47173 3.32501 1.55185
-1.4751 3.45004 2.47944
-1.49538 3.53071 3.4241
-0.803083 -0.248513 -2.73857
-0.806188 -0.134352 -1.7963
-0.814874 -0.182414 -0.564882
-0.818339 -0.270975 0.683362
-0.823891 -0.310957 1.91511
-0.834883 -0.230718 2.86017
-0.846405 -0.114605 3.79372
-0.801881 0.150112 -2.73438
-0.818893 0.390482 2.79135
-0.831488 0.498342 3.72825
-0.788308 0.853208 -2.69853
-0.753698 1.70405 2.63185
-0.79177 1.76044 3.5869
-0.755348 2.21154 -2.72404
-0.755624 2.38128 -1.79613
-0.756856 2.71456 -0.674782
-0.744831 3.07234 0.42585
-0.730757 3.33966 1.54711
-0.737118 3.46388 2.47481
-0.755659 3.54017 3.42112
0.788233 -0.249571 -2.73783
0.793873 -0.135932 -1.79537
0.774629 -0.187283 -0.561739
0.738231 -0.274205 0.689187
0.70503 -0.312048 1.92293
0.666877 -0.231705 2.8663
0.646869 -0.115785 3.79846
0.787816 0.14953 -2.73396
0.663807 0.389834 2.79729
0.649656 0.497321 3.73274
0.784397 0.852872 -2.69824
0.668179 1.70353 2.63465
0.667929 1.75955 3.59022
0.8135 2.21076 -2.72333
0.811679 2.38056 -1.79546
0.797615 2.71375 -0.673973
0.768753 3.07147 0.426914
0.74234 3.33879 1.54854
0.729375 3.46294 2.47673
0.718992 3.53911 3.42347
1.58222 -0.264688 -2.73201
1.58711 -0.1589 -1.78711
1.56384 -0.179432 -0.561798
1.51235 -0.243873 0.68049
1.46315 -0.262493 1.90678
1.42469 -0.197259 2.85653
1.40196 -0.0951568 3.79369
1.5841 0.14799 -2.73188
1.59502 0.289793 -1.7962
1.57618 0.320721 -0.586711
1.5164 0.327508 0.630646
1.45931 0.350316 1.84148
1.41926 0.418455 2.7898
1.40177 0.513339 3.72972
1.58072 0.895174 -2.70803
1.58389 1.02754 -1.76909
1.58444 1.27024 -0.61633
1.51191 1.47677 0.530938
1.4291 1.64341 1.68522
1.41343 1.70126 2.6384
1.4125 1.76027 3.59252
1.59903 2.24705 -2.73288
1.5953 2.41861 -1.80602
1.57587 2.73309 -0.680064
1.53353 3.06772 0.428399
1.49192 3.32305 1.55509
1.47337 3.44799 2.4835
1.46352 3.52849 3.42888
-0.842114 0.621211 -1.82765
1.09971e-05 0.313709 -1.80629
-0.803331 0.311636 -1.195
-0.813141 0.973495 1.84055
-0.0444925 0.33092 1.81408
-0.758902 0.340239 1.245
0 1.0186 -1.83614
-0.842943 1.13613 -1.175
0 1.71531 1.72833
-0.715339 1.57157 1.105
0.842169 0.621241 -1.8277
0.790572 0.309583 -1.19333
0.78639 0.973485 1.86329
0.684304 0.340686 1.25333
0.842948 1.13618 -1.175
0.71534 1.57156 1.105
-0.809904 0.29715 0.025
-0.878572 0.768136 -0.595
-0.0115334 0.299331 -0.583333
-0.879832 0.878983 0.585
-0.0279598 0.292462 0.638333
-0.777166 1.35187 -0.035
1.4214e-05 1.7179 -0.605
-2.96872e-06 1.89391 0.535
0.776416 0.286156 0.03
0.878433 0.764876 -0.593333
0.879818 0.877285 0.588333
0.777167 1.35189 -0.035
-0.896261 0.694674 -1.185
0.896275 0.693059 -1.18417
-0.0057612 0.312664 -1.19417
7.10701e-06 1.38457 -1.175
5.49853e-06 0.621226 -2.01819
-0.879402 0.823559 -0.005
0.879352 0.82108 -0.0025
-0.0197466 0.292651 0.0275
5.62265e-06 1.87628 -0.035
-0.879941 0.926239 1.175
0.87985 0.925385 1.17917
-0.0362261 0.329366 1.24917
-1.48436e-06 1.87484 1.105
-0.0222463 0.97349 1.98597
-0.831684 0.468106 -1.82499
-0.401957 0.311197 -1.8088
-0.801191 0.315754 -1.5
-0.836093 0.629248 1.87221
-0.427338 0.332222 1.81028
-0.772629 0.324533 1.55
-0.836776 0.774317 -1.81455
-0.3875 0.999664 -1.81723
-0.836829 1.05963 -1.46
-0.781749 1.31774 1.80045
-0.3325 1.70411 1.71712
-0.700281 1.62689 1.39
0.401979 0.311337 -1.80866
0.83161 0.468121 -1.8249
0.793968 0.315582 -1.49917
0.338353 0.335652 1.81185
0.791219 0.629243 1.90157
0.683853 0.331741 1.55917
0.3875 0.999525 -1.81706
0.836815 0.774362 -1.81458
0.836677 1.05953 -1.46
0.3325 1.70403 1.71705
0.770319 1.31773 1.81377
0.700282 1.62688 1.39
-0.812288 0.300701 -0.89
-0.811417 0.297615 -0.28
-0.879941 0.516437 -0.59
-0.410549 0.301222 -0.584167
-0.807696 0.293423 0.94
-0.809169 0.295906 0.33
-0.884804 0.566562 0.61
-0.41688 0.296046 0.636667
-0.821716 1.18528 -0.89
-0.874508 1.01929 -0.6
-0.790702 1.29503 -0.32
-0.503763 1.68219 -0.605
-0.732309 1.51816 0.82
-0.850289 1.1893 0.56
-0.76723 1.41232 0.25
-0.469452 1.86982 0.535
0.796982 0.293777 -0.8875
0.388988 0.294922 -0.5825
0.783147 0.288821 -0.275833
0.878192 0.50659 -0.5875
0.734032 0.300354 0.9475
0.361493 0.293284 0.64
0.767184 0.285993 0.335833
0.883301 0.550783 0.615
0.821679 1.18528 -0.89
0.503775 1.68219 -0.605
0.87468 1.0178 -0.599167
0.790705 1.29506 -0.32
0.732313 1.51816 0.82
0.469447 1.86982 0.535
0.85049 1.18855 0.561667
0.767232 1.41233 0.25
-0.894213 0.657943 -1.50633
-0.421054 0.621219 -1.98747
-0.0028751 0.312753 -1.50023
8.24779e-06 0.467467 -1.99798
-0.885276 0.503155 -1.19
-0.404546 0.310692 -1.19458
-0.868599 0.949867 1.50777
-0.417694 0.973493 1.95668
-0.0403593 0.326206 1.53162
-0.0333694 0.652205 2.02352
-0.887171 0.633239 1.21
-0.397564 0.329439 1.24708
3.55351e-06 1.21777 -1.50557
2.74926e-06 0.819911 -1.98884
-0.876872 0.9154 -1.18
-0.421468 1.35513 -1.175
-7.4218e-07 1.84686 1.41666
-0.0111231 1.3444 1.94109
-0.840584 1.2489 1.14
-0.35767 1.859 1.105
0.894438 0.65715 -1.50593
0.421087 0.621234 -1.98805
0.885294 0.501321 -1.18875
0.392405 0.307092 -1.19375
0.867959 0.949435 1.52123
0.382072 0.973488 1.96138
0.887125 0.633035 1.21625
0.324039 0.332959 1.25125
0.876897 0.914618 -1.17958
0.421477 1.35513 -1.175
0.840696 1.24847 1.14208
0.357669 1.85897 1.105
-0.883112 0.541125 0.01
-0.414304 0.295943 0.02625
-0.877812 0.731405 -0.89
-0.879014 0.795847 -0.3
-0.0086473 0.299437 -0.88875
-0.01564 0.292746 -0.277917
-0.879757 0.851271 0.29
-0.880006 0.902611 0.88
-0.0238532 0.292557 0.332917
-0.032093 0.292295 0.94375
-0.865752 1.10645 -0.02
-0.505974 1.84887 -0.035
1.06605e-05 1.56172 -0.89
9.91834e-06 1.8353 -0.32
1.32697e-06 1.89158 0.25
-2.22654e-06 1.88794 0.82
0.880925 0.527098 0.01375
0.377782 0.29051 0.02875
0.877712 0.728967 -0.88875
0.878941 0.792978 -0.297917
0.879748 0.849183 0.292917
0.880006 0.901335 0.88375
0.865995 1.10535 -0.01875
0.505956 1.84883 -0.035
-0.883287 0.48563 -1.50316
-0.880667 0.518556 -0.89
-0.8787 0.958858 -0.89
-0.883351 0.844859 -1.48316
0.883563 0.484721 -1.50255
0.883475 0.84449 -1.48297
0.878721 0.957667 -0.889375
0.880073 0.515179 -0.888125
-0.403251 0.310659 -1.50011
0.397192 0.307877 -1.4997
0.390361 0.294354 -0.888125
-0.407965 0.296547 -0.889375
-0.404484 1.21261 -1.48279
-0.411368 1.53645 -0.89
0.411386 1.53648 -0.89
0.404489 1.21247 -1.48279
-0.411505 0.467787 -1.98149
-0.404277 0.797114 -1.95894
0.404294 0.797136 -1.95886
0.411533 0.467794 -1.98131
-0.881621 0.528734 -0.29
-0.884121 0.553762 0.31
-0.856488 1.14711 0.27
-0.870064 1.06284 -0.31
0.879566 0.516841 -0.286875
0.870286 1.06155 -0.308958
0.857122 1.14639 0.271458
0.882315 0.53884 0.314375
-0.413771 0.295895 -0.278958
0.385013 0.28946 -0.276875
0.370792 0.289587 0.334375
-0.415592 0.295995 0.331458
-0.523385 1.80256 -0.32
-0.490841 1.8656 0.25
0.490829 1.86558 0.25
0.523341 1.80246 -0.32
-0.887771 0.610106 0.91
-0.892032 0.631243 1.52889
-0.828826 1.28332 1.44889
-0.8488 1.20995 0.85
0.887662 0.60873 0.915625
0.848966 1.20931 0.851875
0.82869 1.2831 1.45561
0.891884 0.631139 1.5402
-0.407806 0.289632 0.941875
0.343083 0.289627 0.945625
0.331196 0.326769 1.54539
-0.412451 0.328315 1.54081
-0.36572 1.87253 0.82
-0.345085 1.83499 1.40333
0.345085 1.83509 1.40333
0.365716 1.87252 0.82
-0.422516 0.640726 1.99475
0.360213 0.640724 2.00188
0.357286 1.33106 1.92077
-0.375097 1.33107 1.92801
-0.822449 0.391553 -1.81964
-0.60294 0.313815 -1.80618
-0.799902 0.318033 -1.6525
-0.831356 0.457124 1.87182
-0.618761 0.341202 1.80005
-0.767777 0.328396 1.7025
-0.809814 0.85087 -1.7837
-0.58125 0.973356 -1.79093
-0.814404 1.00202 -1.6025
-0.733343 1.48987 1.7477
-0.49875 1.68812 1.70113
-0.69034 1.65214 1.5325
0.602962 0.313813 -1.80619
0.822339 0.39156 -1.81951
0.795914 0.318334 -1.65208
0.529776 0.326145 1.8226
0.774203 0.457121 1.90128
0.682912 0.327985 1.71208
0.58125 0.973592 -1.79112
0.810052 0.850922 -1.78393
0.814361 1.00203 -1.6025
0.49875 1.68813 1.70115
0.728108 1.48985 1.75483
0.690332 1.65211 1.5325
-0.812055 0.299944 -0.7375
-0.811606 0.298416 -0.4325
-0.848453 0.406674 -0.5875
-0.609363 0.303557 -0.584583
-0.808216 0.293892 0.7875
-0.808639 0.295447 0.4825
-0.858189 0.424903 0.6225
-0.610177 0.300165 0.635833
-0.827233 1.22599 -0.7475
-0.854196 1.13573 -0.6025
-0.79701 1.26615 -0.4625
-0.715027 1.58308 -0.605
-0.740083 1.49074 0.6775
-0.787764 1.32058 0.5475
-0.755079 1.43536 0.3925
-0.650305 1.75003 0.535
0.792304 0.293758 -0.734583
0.582897 0.305419 -0.582083
0.78439 0.292275 -0.42875
0.841813 0.395577 -0.584583
0.754009 0.285074 0.794583
0.554811 0.29651 0.640833
0.758941 0.289538 0.48875
0.847643 0.406232 0.628333
0.820854 1.21964 -0.7475
0.715031 1.58308 -0.605
0.854377 1.13505 -0.602083
0.796978 1.26614 -0.4625
0.740074 1.49074 0.6775
0.650303 1.75004 0.535
0.787858 1.3202 0.548333
0.755083 1.43537 0.3925
-0.838002 0.544659 -1.82742
-0.842859 0.697764 -1.82451
-0.885771 0.639577 -1.66699
-0.631584 0.621215 -1.95571
-0.200973 0.311192 -1.80881
0.200995 0.311189 -1.80881
-0.00143205 0.312805 -1.65326
[...]
POINT_DATA 3682
SCALARS point_scalars float 1
LOOKUP_TABLE default
-160.509
-65.8771
-57.4
-55.7561
-160.83
-64.864
-56.6935
-51.5543
-48.2785
-46.3659
-84.7015
-60.7352
-49.2181
-45.4147
-82.9951
-59.6207
-128.974
-140.753
-48.3637
-46.8507
-63.0901
-66.6232
-55.8643
-66.8496
-133.222
-51.5237
-46.9073
-61.3075
-59.4303
-51.878
-44.629
-137.172
-76.0996
-56.2047
-57.3775
-56.0436
-51.5719
-54.4647
-82.904
-129.954
-72.1101
-58.8735
-56.6155
-56.6155
-97.605
-178.84
-48.0918
-46.5439
-66.6232
-56.8325
-52.883
-97.605
-53.5696
-50.5114
134.128
-50.4272
-51.0775
28.1378
-26.9723
-113.49
-72.4751
-57.7333
-54.2584
-53.3401
-97.6788
-179.25
-49.3109
-48.1326
-58.6697
-50.0938
-49.2833
-97.6788
-49.5902
-47.5995
135.801
-44.7947
-44.1666
25.1795
-72.7285
-113.49
-71.2941
-55.4248
-50.6416
-49.5377
-129.149
-139.693
-48.8957
-46.269
-58.2614
-67.4261
-52.1264
-63.9567
-132.998
-51.1553
-46.3798
-58.5615
-52.5853
-49.4775
-45.2014
-136.783
-74.8894
-54.8289
-52.8899
-48.0456
-45.713
-54.0635
-83.3316
-129.143
-71.2941
-56.5066
-52.4089
-52.4089
-105.772
-147.443
-67.0326
-55.8029
-54.6417
-45.734
63.5782
-103.617
-46.8184
-56.6652
-105.856
-67.0257
-48.813
-43.7961
-103.302
-54.5818
-45.1984
-58.7856
-53.2374
-50.0721
-49.3893
-69.6609
-53.4326
-75.8865
-45.8916
-58.1245
-48.9799
-68.9463
-79.4583
-78.9801
-75.9601
28.692
199.974
-52.5427
-51.8206
-48.2852
-109.116
-52.7254
-50.3893
-49.4702
-62.0211
-44.1014
-112.78
-152.941
-92.4259
-58.3626
-58.0965
-51.5572
-82.981
53.1665
-108.664
-56.1378
-48.9489
-57.2578
-152.448
-112.995
-92.0401
-54.9666
-51.152
-46.9418
53.3448
-82.6216
-108.475
-45.9646
-49.7863
-54.2277
-60.8256
-46.0255
-52.3502
-52.7293
-49.6043
-45.1448
-47.2736
-48.1109
-91.2229
-69.8541
-75.8933
-57.4731
-57.989
-55.3166
-64.676
-72.2206
-59.255
-52.5437
-45.2127
-51.7408
-52.9343
-48.3558
-46.2302
-46.6113
-91.3565
-56.9743
-68.9142
-75.1604
-56.4907
-71.5383
-54.1305
-63.8257
-107.747
181.984
-99.2155
165.952
-73.705
-74.1779
-58.8686
-49.6783
-49.8624
-46.3232
-50.5119
-49.7985
10.5075
169.054
-88.6913
16.1219
-55.3102
-46.6758
-53.9219
-62.0085
-107.381
182.219
-73.4393
-74.1719
-55.2446
-45.2052
-48.1644
-48.2901
-88.311
15.8676
-51.6208
-60.967
-48.126
-47.6467
-65.5654
-55.0511
-61.249
-49.2344
-50.8684
-50.1643
-48.1459
-52.5083
-59.8332
-98.8726
-9.03351
-121.42
-88.8652
-68.1477
-47.2626
-47.8139
-65.0282
-54.3328
-50.0339
-48.5693
-59.1085
-98.3562
-106.191
-61.2803
-76.2574
-110.393
-105.991
-109.987
-75.6598
-61.06
-97.8792
-97.8469
-60.5591
-60.6045
-1.86444
-17.3157
-17.2795
-2.03543
157.58
149.442
149.519
157.668
-49.3859
-47.4763
-57.3352
-64.7614
-48.7333
-63.9724
-56.4481
-46.7108
-48.4401
-48.5547
-47.5931
-47.4694
-116.245
-82.9899
-82.3885
-115.6
-47.5723
-57.5218
-57.4246
-54.0021
-46.1033
-52.3497
-53.8461
-54.4305
-53.0761
-52.3773
-48.8034
-51.16
-67.1827
-56.783
-55.069
-66.4709
-49.5827
-46.2536
-44.2047
-50.9492
-113.866
-158.851
-121.466
-63.0473
-61.166
-53.4471
-71.5102
33.1682
-101.561
-55.4873
-50.707
-56.3719
-158.817
-113.903
-120.525
-56.2795
-54.1326
-47.9145
32.7935
-71.1165
-100.562
-46.8332
-50.2986
-52.7185
-52.4106
-47.1699
-50.2842
-51.1892
-46.5
-45.645
-46.976
-47.8188
-91.2187
-77.2643
-79.92
-126.557
-59.1455
-57.9206
-63.1519
-66.5012
-52.1705
-51.213
-47.7712
-49.7625
-51.9995
-47.9135
-46.154
-46.2811
-89.4631
-124.162
-75.9945
-79.0096
-57.8606
-65.4472
-56.8364
-62.155
-110.238
-100.833
-146.728
132.919
-149.017
-148.916
-117.722
96.5932
-77.7258
-58.8459
-70.8984
-71.4178
-56.9043
-56.6432
-59.8844
-50.7969
-55.7685
-54.2612
-51.4984
-45.9327
-49.5797
-54.225
-49.1792
-48.7775
60.1508
60.4243
15.3676
116.195
-105.265
-102.193
-94.5159
-3.87247
-47.8376
-46.1837
-51.3563
-46.2901
-57.0467
-57.3546
-54.6966
-61.7874
-110.453
-101.359
-145.757
132.752
-77.3903
-57.4931
-70.5493
-71.3317
-49.9674
-49.3074
-55.2055
-46.2565
-46.6677
-50.7163
-46.5471
-47.3061
-104.913
-102.081
-94.2854
-3.90565
-54.5528
-55.5846
-52.4962
-60.3307
-45.63
-44.9408
-46.4912
-46.7195
-55.4744
-63.4896
-61.2537
-56.7719
-53.1202
-53.0745
-56.6672
-50.6948
-48.6007
-52.3189
-50.4069
-49.9357
-49.2748
-49.2464
-48.5734
-50.6468
-72.8857
-66.639
-65.8546
-81.4026
-52.5506
-51.9077
-29.8521
-97.2907
-75.1877
-74.8504
-81.3934
-71.579
-45.6707
-45.0292
-45.9498
-46.9942
-54.9223
-62.7319
-60.6595
-56.0723
-47.699
-51.1411
-49.4725
-48.6218
-72.2061
-65.8665
-65.1205
-80.5766
-90.0053
-76.4154
-83.9591
-73.3825
-89.6058
-76.0432
-83.4986
-72.8732
-86.2742
-75.5452
-75.5215
-67.4704
31.2596
26.2188
26.3504
11.2953
196.717
186.175
200.442
196.904
-50.3101
-53.6977
-51.5506
-56.3132
-49.4441
-52.9674
-50.8013
-55.5151
-48.1485
-48.8556
-48.0664
-48.185
-107.062
-116.789
-98.3342
-106.834
-56.2842
-51.7485
-52.668
-50.9923
-53.3942
-49.4492
-50.412
-49.0977
-47.3453
-49.7176
-49.091
-52.9418
-58.8208
-62.1386
-61.5808
-65.0286
-46.7211
-44.7786
-45.2568
-43.7523
-136.6
113.376
-118.992
39.8689
-101.147
-95.5496
-60.1094
-50.7859
-53.464
-50.2084
-56.495
-50.7313
-135.855
104.253
10.7748
107.163
-119.984
-22.6541
-57.8098
-50.7986
-53.438
-49.0547
-56.9317
-57.8942
-118.984
39.9161
-135.885
113.464
-101.054
-95.5058
-50.6184
-47.0513
-57.0051
-48.153
-53.6864
-48.5359
10.5074
107.318
-135.362
104.855
-119.526
-22.4118
-51.2245
-44.8117
-53.2029
-44.8476
-53.5045
-55.599
-62.2697
-59.5376
-47.7382
-47.3397
-55.183
-50.6099
-56.0747
-49.8336
-46.0149
-53.8019
-46.2309
-46.6316
-47.3553
-47.4315
-47.8191
-50.7005
-82.4828
-56.2475
-72.7138
-66.9302
-71.3003
-96.8973
-37.0899
-100.081
-56.0355
-65.9536
-56.5665
-54.5307
-61.4277
-72.3776
-77.2265
-69.1864
-62.5043
-59.4959
-56.0016
-49.855
-47.0889
-47.4029
-54.7006
-49.9501
-43.2231
-52.8805
-48.1252
-50.5256
-45.586
-46.976
-46.5756
-46.4264
-82.0028
-55.6646
-36.7377
-100.084
-71.9197
-66.0432
-70.5171
-96.0685
-54.4931
-64.949
-76.601
-68.4938
-55.5354
-53.1426
-60.575
-71.4586
-106.413
-108.112
172.051
183.266
-98.817
-98.8154
165.62
165.894
-85.492
-67.5242
-84.4445
-65.8459
-58.5428
-58.1149
-49.3444
-50.4717
-49.3491
-50.5737
-47.502
-45.8418
-48.7712
-54.3244
-53.576
-47.5342
11.6889
6.57097
165.08
165.227
-81.3831
-97.0847
13.161
-0.180752
-56.017
-55.1291
-44.8692
-48.8593
-55.167
-53.8898
-64.4484
-59.6623
-106.093
-107.714
183.59
172.239
-85.1216
-66.6187
-84.3873
-65.8142
-54.4703
-55.23
-45.7212
-44.5981
-47.0683
-51.5465
-52.4008
-47.1042
-96.6657
-80.8949
-0.342227
15.7845
-51.9005
-52.3927
-58.3391
-63.5876
-48.6533
-47.7364
-48.2138
-47.416
-63.1575
-70.0695
-52.1258
-59.0692
-61.1399
-61.1871
-49.0373
-49.0698
-49.175
-53.4675
-48.5503
-52.0385
-48.0492
-47.9731
-52.7548
-52.4179
-58.2275
-62.5732
-106.203
-90.5314
-9.32187
-9.44693
-120.346
-120.257
-87.8648
-87.5747
-68.0234
-67.653
-47.8581
-46.9116
-48.2405
-47.6083
-69.4829
-62.6476
-51.4373
-58.2942
-52.5667
-48.2309
-47.0434
-50.349
-61.8137
-57.4714
-89.9518
-105.576
-134.462
-81.7445
-88.2006
-144.181
-52.926
-58.3789
-69.9135
-65.2937
-80.7511
-87.7626
-76.9687
-66.2062
-130.132
-140.933
-92.8364
-101.424
-134.006
-143.496
-87.8312
-81.3775
-129.73
-100.793
-92.4164
-140.473
-79.7667
-65.5317
-76.4498
-87.3707
-52.526
-63.4115
-69.3218
-57.8516
-119.041
-118.024
-85.8072
-81.5275
-118.895
-81.443
-85.7814
-117.951
-55.0648
-56.5194
-67.0563
-62.9853
-54.9486
-63.0833
-67.0869
-56.5849
-7.42799
-21.7505
23.2448
11.8794
-110.368
-29.2513
9.81476
-23.3102
-111.5
-23.7144
9.70798
-29.4101
-7.11767
10.9279
30.0266
-19.6025
19.9894
128.166
181.393
85.7486
69.6318
116.954
196.438
131.086
69.4967
130.504
196.561
116.986
20.1282
81.9007
181.585
128.372
-48.7714
-47.0044
-51.1737
-53.602
-46.5077
-48.7827
-49.587
-46.2283
-60.3175
-63.2431
-53.7962
-52.7273
-73.7495
-61.132
-57.402
-68.934
-48.0591
-52.9518
-50.2833
-46.4072
-72.7478
-68.2593
-56.6445
-60.3575
-59.3491
-51.7058
-53.2797
-62.5053
-45.6452
-45.6434
-48.8922
-47.9992
-48.7725
-50.4955
-48.7501
-47.3002
-48.6145
-47.4533
-48.7806
-50.5005
-47.3056
-48.4605
-47.9743
-46.8434
-47.0529
-46.618
-47.9139
-48.406
-111.258
-88.2764
-114.773
-96.9758
-69.2067
-80.5627
-97.1344
-76.0076
-68.212
-75.1462
-96.8575
-80.2546
-110.29
-96.7702
-114.542
-87.4502
-46.8119
-51.1706
-48.4967
-48.5116
-58.2986
-60.7805
-55.4996
-52.9334
-56.6175
-55.027
-56.2637
-58.9109
-56.8193
-51.8878
-53.4137
-55.2279
-47.5813
-47.3434
-46.6668
-50.592
-55.5189
-53.3846
-51.3193
-50.499
-52.4711
-54.2887
-53.2644
-52.4888
-55.658
-49.9563
-52.7196
-56.9051
-48.5433
-50.6947
-53.217
-53.3584
-49.0522
-52.096
-52.7226
-50.5305
-50.5293
-51.2991
-47.0705
-46.0744
-55.3884
-48.7964
-47.4767
-52.2511
-61.8282
-63.4028
-65.0357
-71.1663
-55.2244
-52.2803
-59.2659
-60.0152
-52.1715
-58.1749
-58.5773
-51.1249
-60.6399
-70.8023
-64.5914
-62.2126
-51.4773
-47.35
-46.9315
-50.5623
-48.2814
-46.7149
-44.4956
-45.7327
-45.3874
-45.0989
-44.025
-45.4237
-49.8603
-51.0521
-47.9923
-47.8797
-136.896
-172.136
-158.439
-66.6847
-62.5317
-51.7481
-65.066
4.92922
-88.6074
-55.0603
-52.1222
-56.3514
-172.194
-137.104
-158.682
-57.1556
-61.5437
-44.2323
5.4664
-64.2673
-88.4739
-47.8991
-50.2372
-52.2754
-50.243
-47.7884
-49.2965
-50.3591
-46.256
-46.315
-47.2027
-47.1386
-90.7274
-81.3501
-81.733
-100.647
-59.8727
-59.1597
-61.6402
-63.1356
-50.6264
-50.5239
-48.1247
-49.2852
-47.6443
-47.4736
-46.0707
-44.6071
-88.0658
-96.5556
-79.8894
-80.6387
-58.6787
-62.0073
-58.0676
-60.5973
-108.268
-101.843
-160.416
43.26
-147.097
-147.056
-131.101
-112.679
-71.8027
-63.0638
-69.1559
-69.5324
-55.9066
-56.2407
-58.9357
-51.3206
-54.9569
-54.4019
-52.7217
-48.4526
-45.0343
-49.7955
-47.4137
-46.9584
62.5793
62.371
33.9933
84.5909
-101.255
-104.948
-99.6311
-68.6184
-47.281
-46.4636
-49.6803
-46.2558
-55.8963
-56.9823
-55.6278
-60.4153
-108.329
-100.765
-159.528
44.432
-71.5896
-62.5908
-68.5806
-69.4067
-49.0187
-49.2098
-53.9202
-46.4751
-44.053
-45.5229
-44.7141
-46.1023
-100.859
-104.764
-99.3735
-69.1022
-53.7959
-55.0716
-53.5031
-58.6801
-45.6092
-44.9289
-45.793
-46.1579
-56.8214
-61.0742
-59.9104
-57.685
-53.2244
-53.2166
-54.8398
-51.8545
-49.203
-51.0466
-50.2264
-49.9699
-49.3588
-49.3419
-48.9212
-49.976
-71.2659
-68.0609
-67.4234
-75.6597
-53.2302
-52.9636
-41.2049
-69.4554
-75.7581
-75.588
-78.5028
-73.7485
-45.5181
-45.0515
-45.3449
-46.5675
-56.1889
-60.3598
-59.2788
-57.0126
-48.1503
-49.9081
-49.2252
-48.7844
-70.5719
-67.3138
-66.7188
-74.8538
-84.0854
-77.904
-81.3618
-76.1768
-83.6531
-77.4802
-80.8839
-75.6634
-80.8493
-75.8326
-75.8092
-71.4958
33.839
27.7196
27.8543
18.8414
198.82
197.283
204.431
198.926
-51.2248
-53.1362
-52.017
-53.9967
-50.4624
-52.4091
-51.2731
-53.2476
-48.2645
-48.5679
-48.1419
-48.2797
-108.708
-112.727
-103.17
-108.609
-55.0276
-51.7415
-53.2943
-51.9247
-52.3586
-49.4711
-50.8869
-49.8216
-48.4967
-49.647
-49.2892
-50.5033
-60.4046
-62.1246
-61.8435
-63.5047
-45.2157
-44.206
-44.3522
-43.6074
-113.97
-118.89
-159.774
25.644
-155.136
-151.043
-135.181
-96.8819
-104.117
-83.9712
-97.6696
-94.101
-60.3384
-57.5288
-63.156
-51.7469
-59.6569
-56.6249
-55.0384
-52.2278
-53.0906
-50.4323
-54.8279
-51.0371
-75.7963
-87.426
-151.785
45.1659
44.0868
56.1461
25.013
79.94
-111.889
-114.036
-121.982
-57.0111
-55.4878
-56.4152
-57.6665
-51.1563
-49.6311
-48.4293
-52.8482
-48.5047
-56.2599
-57.8298
-56.982
-58.3454
-154.988
-150.797
-134.899
-96.5322
-113.136
-120.138
-158.545
25.7294
-103.404
-83.6432
-97.3863
-93.9021
-55.6537
-54.4423
-52.3245
-48.5845
-52.0997
-50.6491
-59.6983
-48.3832
-47.0375
-46.8731
-50.5951
-47.9707
43.8097
56.2289
24.9081
80.4137
-75.6505
-89.1545
-151.309
45.731
-111.985
-113.249
-121.945
-56.6564
-46.1718
-46.0263
-50.0013
-45.2111
-50.1451
-49.3283
-52.6538
-45.6759
-52.9995
-55.0059
-53.7357
-55.7029
-54.3875
-59.9995
-62.4822
-58.9185
-46.4152
-45.8081
-46.9291
-46.8497
-51.1051
-54.0468
-53.5839
-51.3817
-52.2555
-52.8378
-54.5696
-51.0183
-47.6683
-58.6664
-44.6166
-53.7514
-45.2897
-45.0302
-45.8538
-46.1884
-46.958
-48.2477
-47.3178
-47.3116
-47.3705
-48.9504
-48.0154
-49.2255
-87.4558
-97.7528
-86.4757
-118.54
-73.1319
-66.569
-71.3568
-68.3322
-77.5591
-74.2546
-74.0708
-85.3889
-85.1519
-52.1308
-46.3622
-68.1159
-58.5245
-57.6495
-56.9806
-60.1233
-57.042
-53.5542
-55.7793
-54.8603
-64.5595
-65.3439
-62.7012
-68.6604
-71.1263
-74.1771
-74.8424
-70.7582
-54.8188
-57.6972
-62.891
-58.9756
-52.231
-52.8734
-54.1299
-50.9704
-45.7728
-45.8266
-46.1038
-46.7828
-50.529
-53.3487
-53.0487
-50.715
-52.3457
-57.0783
-44.0514
-52.9115
-47.7458
-48.9726
-48.359
-49.306
-47.1147
-45.4052
-45.068
-46.6044
-46.3704
-47.4015
-46.5192
-46.2488
-88.3651
-97.7342
-86.2264
-118.859
-84.4056
-51.7561
-45.8859
-67.2187
-72.0508
-65.711
-70.4662
-67.4142
-76.7762
-73.5558
-73.3015
-84.6891
-57.1362
-56.0207
-55.4614
-58.9067
-70.2106
-73.6695
-74.1937
-70.0745
-55.9056
-52.3697
-54.692
-53.5846
-63.6039
-64.5454
-61.9042
-67.7115
-120.656
-97.7726
-106.899
-107.797
171.046
189.964
180.445
186.351
-107.475
-92.3112
-98.9783
-98.9248
150.575
174.769
168.201
168.339
-72.3663
-75.0064
-78.9359
-70.3004
-73.0335
-75.0317
-79.0415
-69.8194
-59.6618
-57.688
-59.1475
-58.3819
-50.5103
-48.3648
-49.4551
-50.0471
-50.599
-47.7751
-49.3375
-50.2846
-46.4975
-44.9888
-47.2353
-46.3093
-50.2407
-51.3484
-50.7011
-51.9235
-49.7783
-49.7659
-50.8286
-48.8054
11.9289
19.4914
14.1656
8.396
143.481
189.705
171.118
171.175
-90.9254
-86.7879
-84.4754
-92.7574
7.04008
22.3098
18.0529
9.53823
-53.2112
-57.187
-55.6731
-55.2224
-46.6119
-46.3188
-45.6801
-47.7238
-54.0855
-53.176
-54.5129
-53.8957
-61.918
-62.0264
-63.1919
-60.8119
-120.408
-97.4371
-106.543
-107.452
171.046
189.746
186.68
180.574
-72.2089
-74.6597
-78.6607
-69.7364
-72.9195
-74.9965
-78.9846
-69.793
-55.5625
-54.4464
-54.7623
-55.6135
-45.784
-44.2974
-45.3391
-44.8892
-47.7373
-49.0698
-48.8234
-49.4902
-47.3242
-48.7571
-49.6778
-46.9233
-90.6687
-86.3789
-92.4044
-84.0008
6.65895
22.3104
9.35479
20.7543
-51.7271
-50.9526
-51.7501
-51.9916
-60.6688
-61.2152
-59.6452
-62.2556
-47.0953
-49.3252
-48.4265
-47.7934
-47.2119
-47.9253
-47.9084
-47.4992
-62.8612
-69.837
-64.3819
-67.4255
-55.8796
-54.365
-53.3913
-56.9349
-58.8256
-63.4458
-61.2186
-61.2517
-49.4308
-49.2961
-49.1972
-49.207
-50.58
-51.1538
-49.7968
-52.0045
-50.0086
-50.4438
-49.3912
-51.0274
-48.3065
-48.0589
-48.1212
-48.0921
-51.4529
-54.044
-52.5462
-52.3749
-63.2496
-58.7407
-58.4916
-61.3618
-90.8642
-103.447
-102.355
-94.5635
-18.6446
-0.248902
-9.34743
-9.2829
-124.871
-120.357
-121.169
-121.12
-85.0096
-93.2454
-88.6461
-88.4984
-69.8606
-66.4857
-68.1532
-67.9658
-46.4221
-48.3511
-47.5691
-47.0254
-47.4287
-47.9956
-47.894
-47.5148
-62.2992
-69.3032
-66.8283
-63.8674
-55.1697
-53.6429
-52.6493
-56.1977
-49.7028
-50.3725
-51.1332
-48.9595
-48.5574
-48.6777
-47.8232
-49.3609
-62.4748
-57.9085
-60.5808
-57.7511
-90.1511
-103.066
-94.0055
-101.813
-125.059
-104.788
-106.202
-93.9003
-61.0835
-57.3063
-65.2223
-61.4977
-79.2173
-74.1948
-78.6424
-72.8089
-120.32
-113.953
-108.818
-102.428
-124.747
-104.588
-105.884
-93.6069
-119.851
-113.519
-108.41
-102.014
-78.6717
-73.504
-78.1226
-72.1902
-61.0631
-56.9351
-64.6609
-61.1539
-107.068
-97.021
-98.4705
-90.6061
-107.037
-96.8803
-98.3759
-90.5495
-60.0331
-58.2005
-62.3334
-60.8922
-60.1498
-58.1724
-62.5047
-60.9962
1.91802
-9.37663
2.57895
4.6288
-31.6578
-29.0914
-8.56513
-10.8504
-31.5169
-28.9873
-8.72144
-10.8716
1.57151
-9.3138
2.42337
4.0405
137.059
142.83
162.208
160.155
138.948
129.409
169.227
156.912
130.999
138.362
157.043
169.446
143.034
137.172
160.272
162.379
-48.3872
-49.9445
-48.9863
-50.7699
-46.7549
-47.3559
-47.4831
-48.4391
-56.821
-60.0904
-55.4369
-58.0373
-65.7425
-67.5164
-61.7821
-63.7045
-47.7459
-49.2969
-48.2719
-50.3054
-64.8907
-66.7123
-60.9844
-62.935
-55.9096
-59.1958
-54.5354
-57.1415
-46.015
-46.5966
-46.7517
-47.5499
-47.9902
-48.6069
-48.6001
-48.7728
-48.6677
-48.0606
-48.7911
-48.8226
-47.9586
-47.3533
-47.915
-47.5823
-47.0677
-47.6038
-47.4092
-47.7411
-107.131
-112.582
-111.036
-119.108
-78.2352
-80.218
-86.6515
-86.358
-79.6069
-77.4253
-85.9261
-86.0618
-112.565
-105.687
-118.821
-110.4
-47.0989
-47.2634
-48.0341
-48.1254
-58.571
-56.856
-57.8471
-55.557
-57.7541
-57.0135
-57.817
-56.5108
-55.454
-54.2447
-53.8657
-52.8674
-45.9332
-46.0422
-46.4235
-46.6328
-53.8353
-52.7349
-52.0343
-51.2209
-53.6797
-53.5086
-54.1865
-53.322
-55.327
-53.9669
-54.6785
-52.5914
-53.2974
-51.75
-55.3013
-52.8591
-52.4503
-51.304
-54.3742
-52.3148
-50.2883
-48.1853
-49.2203
-48.2756
-52.1161
-51.1873
-50.8854
-48.4867
-66.2847
-68.3122
-65.7398
-67.657
-55.1671
-57.2637
-56.3631
-58.3034
-53.2179
-55.217
-55.0492
-56.8005
-65.4267
-67.604
-64.9576
-67.1124
-50.3825
-50.0216
-49.2835
-48.5798
-47.1804
-47.2638
-45.9268
-45.8726
-44.3916
-44.3201
-44.2661
-44.2706
-51.0499
-50.0491
-50.7119
-49.9089
-151.586
-12.7629
-137.896
-103.561
-133.87
-119.095
-63.0152
-53.1672
-58.9583
-54.4773
-56.6804
-54.4737
-128.42
24.978
9.73923
53.4643
-126.502
-36.7927
-57.0864
-50.7527
-54.6219
-49.7147
-56.2942
-56.4703
-137.742
-103.682
-150.878
-12.7524
-132.797
-118.886
-52.3709
-50.3341
-64.8933
-49.0607
-51.3578
-49.9126
10.6939
53.0934
-127.97
24.744
-126.1
-36.899
-50.9686
-45.7427
-52.4171
-46.171
-52.3693
-53.2037
-52.3596
-54.4653
-47.8847
-48.296
-51.4044
-49.4401
-52.7091
-49.9686
-47.1079
-47.5348
-46.2013
-46.6305
-46.6447
-46.7304
-47.2163
-48.2888
-86.7582
-100.884
-79.4339
-75.1116
-77.7207
-91.1767
-115.7
-123.473
-57.8962
-60.914
-58.5449
-57.2474
-61.4287
-66.0749
-66.8693
-64.2149
-51.6331
-54.3734
-52.9446
-49.7673
-47.0293
-47.8379
-50.9193
-48.8195
-53.7218
-48.8216
-47.5309
-48.8097
-45.3874
-46.8547
-45.7352
-47.1464
-85.1024
-101.144
-114.858
-122.224
-78.2452
-74.0066
-76.7545
-90.4904
-56.6139
-59.6351
-65.8541
-63.1154
-57.5331
-56.0417
-60.4602
-65.0393
-163.804
35.1015
-160.541
51.3585
-146.544
-144.523
132.502
133.295
-132.412
-115.108
-132.319
-115.792
-117.75
-117.717
65.1339
67.1501
-79.5364
-79.5192
-62.177
-61.1687
-75.7614
-67.3336
-76.1337
-67.0781
-61.0912
-51.3539
-58.565
-51.2641
-60.4813
-59.3776
-50.6692
-50.9717
-53.4111
-49.7359
-52.3966
-48.1075
-51.2426
-51.8414
-46.875
-45.7817
-51.5251
-49.5559
-52.7479
-53.2857
-52.5591
-50.5488
-49.9483
-48.4005
32.4377
84.8941
32.1279
84.8638
13.9108
13.163
113.168
112.744
-108.725
-60.808
-94.3294
-100.013
-90.6245
-97.3228
-10.0254
-15.3832
-50.8859
-47.3829
-49.4589
-45.44
-51.7712
-51.1849
-45.5935
-47.1127
-56.0533
-59.9492
-56.3013
-61.5627
-53.9243
-54.9181
-62.8279
-61.0572
-162.853
35.5542
-160.206
53.4418
-145.77
-143.975
132.976
132.522
-79.1534
-79.3929
-60.7226
-61.0574
-75.5589
-66.7936
-76.0516
-67.002
-56.6228
-47.2587
-52.9728
-45.86
-54.7488
-56.0971
-46.4865
-45.8777
-47.6279
-45.7371
-54.7648
-51.254
-49.8504
-47.6767
-48.8836
-46.4811
-108.154
-58.6929
-94.031
-100.395
-96.9278
-90.2329
-15.8772
-9.69749
-53.496
-57.778
-54.4936
-60.0843
-52.897
-51.5007
-59.4307
-61.5358
-46.2019
-46.7134
-45.3702
-46.0587
-46.728
-46.3845
-47.0834
-46.6512
-56.8767
-54.4759
-64.7254
-62.2198
-59.4096
-63.6047
-54.9257
-58.8411
-54.7447
-51.7095
-54.6896
-51.6791
-56.6335
-56.6635
-50.6367
-50.6423
-48.619
-48.4467
-52.526
-52.0274
-49.4427
-51.4425
-49.1078
-50.8237
-48.7568
-49.9265
-48.7838
-49.8368
-48.5507
-48.5309
-50.6804
-50.5954
-70.7664
-80.137
-63.9961
-71.7407
-65.2616
-67.5316
-84.6573
-78.5058
-41.6167
-67.6141
-40.8481
-67.6816
-28.7787
-28.898
-96.8242
-96.8109
-77.7485
-73.2646
-77.4252
-72.9134
-81.2175
-81.0631
-71.5195
-71.3352
-45.5222
-46.9928
-45.0176
-46.381
-46.1892
-45.8159
-47.2155
-46.8867
-56.3438
-53.9681
-64.0013
-61.4459
-62.955
-58.8811
-54.2073
-58.1168
-47.7515
-47.4505
-51.417
-50.7533
-50.4621
-48.5459
-47.8496
-49.4669
-70.1233
-79.3849
-63.2641
-70.8733
-66.8729
-64.4648
-77.6616
-83.8353
-88.8864
-91.2179
-81.6806
-73.3758
-80.8832
-87.733
-71.43
-75.3662
-88.4941
-90.8092
-81.3391
-72.9026
-87.3498
-80.3613
-74.8591
-70.8515
-86.14
-86.1199
-80.4131
-71.1046
-80.3915
-71.1006
-67.3589
-67.3803
27.4462
32.3146
30.8014
16.9376
16.5014
31.3968
11.0026
10.9148
195.465
200.783
183.685
183.767
197.513
197.633