# vtk DataFile Version 2.0
tet_velo
ASCII
DATASET UNSTRUCTURED_GRID
POINTS 29498 float
-0.808038 0.285 -2.645
-0.795 0.325 2.75384
-0.855 0.682114 -2.525
-0.795 0.724323 2.705
0.808018 0.285 -2.645
0.795 0.325 2.75384
0.855 0.682104 -2.525
0.795 0.724308 2.705
-0.817816 0.284209 -0.845387
-0.821939 0.289074 0.954227
-0.856433 0.717616 -0.781667
-0.844335 0.739588 0.961667
0.817807 0.284205 -0.845387
0.821957 0.289049 0.954227
0.85644 0.717612 -0.781667
0.844334 0.739574 0.961667
-1.63923 0.0581455 -4.09018
-1.64153 0.0702444 -2.67303
-1.6465 0.071557 -0.871961
-1.64195 0.0767286 0.940434
-1.62154 0.101288 2.74246
-1.61724 0.115451 4.16428
-1.62102 0.124517 5.57745
-1.6427 0.266823 -4.05041
-1.64719 0.282929 -2.63941
-1.65313 0.288118 -0.849293
-1.64419 0.292008 0.945891
-1.61205 0.312323 2.73709
-1.61096 0.325812 4.15811
-1.61824 0.335255 5.57312
-1.66345 0.677172 -3.95508
-1.68295 0.692937 -2.54175
-1.6847 0.719862 -0.790003
-1.66369 0.733515 0.957761
-1.61814 0.728062 2.71059
-1.61533 0.740984 4.13394
-1.62253 0.754446 5.55803
-1.67497 1.31331 -3.8544
-1.68407 1.33213 -2.4495
-1.68603 1.36103 -0.715999
-1.67768 1.3801 1.00537
-1.66234 1.38366 2.73947
-1.65218 1.3874 4.14559
-1.6479 1.39582 5.56353
-0.809391 0.0590678 -4.09381
-0.812461 0.0717578 -2.67833
-0.818442 0.0694322 -0.871251
-0.821807 0.0751041 0.947549
-0.809624 0.108177 2.7549
-0.805582 0.120146 4.17272
-0.807702 0.126827 5.58234
-0.807934 0.266542 -4.05153
-0.799811 0.330369 4.16507
-0.805403 0.337208 5.57681
-0.82381 0.672662 -3.94812
-0.802437 0.740564 4.13283
-0.808755 0.754473 5.55779
-0.836825 1.31027 -3.84752
-0.845383 1.3293 -2.44192
-0.849402 1.36073 -0.711429
-0.848233 1.38151 1.00483
-0.841038 1.38356 2.73555
-0.833354 1.38655 4.14168
-0.829436 1.39508 5.56069
0.835125 0.0590641 -4.09381
0.817742 0.0717554 -2.67833
0.820598 0.0694254 -0.871251
0.817941 0.0750859 0.947549
0.800666 0.108169 2.7549
0.806896 0.120137 4.17272
0.812925 0.126817 5.58234
0.840825 0.266538 -4.05153
0.805835 0.330361 4.16507
0.812485 0.337197 5.57681
0.85501 0.672656 -3.94812
0.804986 0.740552 4.13283
0.810777 0.754461 5.55779
0.842935 1.31027 -3.84752
0.838821 1.32929 -2.44192
0.832086 1.36073 -0.71143
0.818392 1.3815 1.00483
0.804524 1.38355 2.73555
0.803257 1.38653 4.14168
0.805559 1.39507 5.56069
1.66026 0.0581364 -4.09018
1.64533 0.0702364 -2.67303
1.64697 0.0715415 -0.871961
1.64141 0.0766981 0.940434
1.61994 0.101265 2.74246
1.62023 0.115429 4.16428
1.62632 0.124494 5.57745
1.66589 0.266814 -4.05041
1.64766 0.282922 -2.63941
1.65207 0.288105 -0.849293
1.64633 0.291975 0.945891
1.61608 0.3123 2.73709
1.61747 0.325791 4.15812
1.62489 0.335232 5.57312
1.68452 0.67716 -3.95508
1.68217 0.692924 -2.54175
1.68218 0.719849 -0.790003
1.66388 0.733487 0.95776
1.61977 0.728033 2.71059
1.61774 0.740958 4.13395
1.62398 0.754421 5.55803
1.67975 1.31329 -3.8544
1.67704 1.33212 -2.4495
1.66928 1.36102 -0.716
1.65147 1.38008 1.00537
1.63117 1.38364 2.73947
1.62492 1.38737 4.1456
1.62501 1.39579 5.56353
-0.796364 0.483557 -2.54985
-9.98378e-06 0.240305 -2.68969
-0.846225 0.251307 -1.74519
-0.799383 0.524661 2.7338
0 0.364134 2.71471
-0.825924 0.289583 1.85403
0 0.751116 -2.59401
-0.859931 0.70408 -1.65333
0 0.600321 2.58101
-0.834239 0.746527 1.83333
0.79623 0.483552 -2.54972
0.846206 0.251309 -1.74519
0.783121 0.524654 2.71754
0.825963 0.28954 1.85403
0.859916 0.704054 -1.65333
0.834236 0.74651 1.83333
-0.819084 0.287435 0.05442
-0.891621 0.500913 -0.813527
-4.46356e-06 0.200963 -0.845387
-0.893033 0.514331 0.957947
8.90388e-06 0.201129 0.954227
-0.850167 0.728386 0.0899999
3.50016e-06 1.08157 -0.781667
-2.81857e-07 1.19542 0.961667
0.819086 0.287423 0.05442
0.891614 0.500908 -0.813527
0.893041 0.514312 0.957947
0.850176 0.728382 0.0899999
-0.878544 0.492235 -1.69926
-0.893862 0.507622 0.07221
-0.894095 0.519496 1.84368
-7.22367e-06 0.206636 -1.74519
2.22016e-06 0.201043 0.05442
4.45194e-06 0.248274 1.85403
-4.99189e-06 0.483554 -2.63446
0 0.524658 2.57818
1.75008e-06 0.790251 -1.65333
1.60915e-06 1.21179 0.0899999
-1.40929e-07 0.837005 1.83333
0.878544 0.49223 -1.69926
0.893837 0.50761 0.07221
0.894101 0.519483 1.84368
-1.22761 0.283964 -2.64221
-0.81025 0.178379 -2.66166
-0.807986 0.275771 -3.34827
-1.20353 0.318661 2.74546
-0.802312 0.216589 2.75437
-0.797406 0.327685 3.45946
-1.26897 0.687525 -2.53338
-0.839405 0.677388 -3.23656
-0.850192 1.0057 -2.48346
-1.20657 0.726192 2.70779
-0.798719 0.732443 3.41891
-0.818019 1.05394 2.72027
0.81288 0.178378 -2.66166
0.824422 0.275769 -3.34827
1.22784 0.283961 -2.64221
0.797833 0.216585 2.75437
0.800418 0.32768 3.45946
1.20554 0.31865 2.74546
0.855005 0.67738 -3.23656
0.846911 1.0057 -2.48346
1.26858 0.687514 -2.53338
0.799993 0.73243 3.41891
0.799762 1.05393 2.72027
1.20738 0.72617 2.70779
-1.23547 0.286164 -0.84734
-0.818129 0.176821 -0.858319
-1.23307 0.290541 0.950059
-0.821873 0.182089 0.950888
-1.27056 0.718739 -0.785835
-0.852917 1.03918 -0.746548
-1.25401 0.736551 0.959714
-0.846284 1.06055 0.983246
0.819202 0.176815 -0.858319
1.23494 0.286155 -0.84734
0.819949 0.182068 0.950888
1.23414 0.290512 0.950059
0.844263 1.03917 -0.746548
1.26931 0.71873 -0.785835
0.831363 1.06053 0.983246
1.25411 0.736531 0.959714
-1.64038 0.064195 -3.3816
-1.64096 0.162484 -4.0703
-1.22431 0.0586067 -4.092
-1.64401 0.0709007 -1.7725
-1.64436 0.176587 -2.65622
-1.22699 0.0710011 -2.67568
-1.64422 0.0741428 0.0342365
-1.64982 0.179838 -0.860627
-1.23247 0.0704946 -0.871606
-1.63174 0.0890082 1.84145
-1.64307 0.184368 0.943162
-1.23188 0.0759163 0.943992
-1.61939 0.108369 3.45337
-1.6168 0.206805 2.73977
-1.21558 0.104732 2.74868
-1.61913 0.119984 4.87087
-1.6141 0.220632 4.1612
-1.21141 0.117798 4.1685
-1.61963 0.229886 5.57529
-1.21436 0.125672 5.57989
-1.64495 0.274876 -3.34491
-1.65308 0.471998 -4.00275
-1.22532 0.266682 -4.05097
-1.65016 0.285523 -1.74435
-1.66507 0.487933 -2.59058
-1.64866 0.290063 0.048299
-1.66891 0.50399 -0.819648
-1.62812 0.302166 1.84149
-1.65394 0.512761 0.951826
-1.61151 0.319068 3.4476
-1.6151 0.520192 2.72384
-1.6146 0.330534 4.86562
-1.61315 0.533398 4.14603
-1.20539 0.328091 4.16159
-1.62039 0.544851 5.56558
-1.21182 0.336231 5.57497
-1.6732 0.685055 -3.24842
-1.66921 0.995241 -3.90474
-1.24363 0.674917 -3.9516
-1.68382 0.7064 -1.66588
-1.68351 1.01253 -2.49563
-1.6742 0.726688 0.0838789
-1.68537 1.04045 -0.753001
-1.64092 0.730788 1.83418
-1.67069 1.05681 0.981567
-1.61674 0.734523 3.42227
-1.64024 1.05586 2.72503
-1.61893 0.747715 4.84599
-1.63376 1.06419 4.13977
-1.20888 0.740774 4.13339
-1.63522 1.07513 5.56078
-1.21564 0.75446 5.55791
-1.67952 1.32272 -3.15195
-1.2559 1.31179 -3.85096
-1.68505 1.34658 -1.58275
-1.26473 1.33071 -2.44571
-1.68186 1.37057 0.144687
-1.26772 1.36088 -0.713714
-1.67001 1.38188 1.87242
-1.26296 1.3808 1.0051
-1.65726 1.38553 3.44253
-1.25169 1.38361 2.73751
-1.65004 1.39161 4.85456
-1.24277 1.38697 4.14364
-1.23867 1.39545 5.56211
-0.810926 0.0654128 -3.38607
-0.808663 0.162805 -4.07267
0.0128667 0.059066 -4.09381
-0.815452 0.070595 -1.77479
0.00264041 0.0717566 -2.67833
-0.820125 0.0722681 0.0381492
0.00107781 0.0694288 -0.871251
-0.815716 0.0916406 1.85122
-0.0019329 0.075095 0.947549
-0.807603 0.114162 3.46381
-0.00447894 0.108173 2.7549
-0.806642 0.123487 4.87753
-0.802697 0.225258 4.1689
0.000656998 0.120142 4.17272
-0.806553 0.232018 5.57957
0.00261133 0.126822 5.58234
-0.815872 0.469602 -3.99983
0.0164456 0.26654 -4.05153
-0.802607 0.333788 4.87094
-0.801124 0.535466 4.14895
0.00301205 0.330365 4.16507
-0.807079 0.545841 5.5673
0.00354109 0.337202 5.57681
-0.830318 0.991468 -3.89782
0.0155995 0.672659 -3.94812
-0.805596 0.747518 4.84531
-0.817896 1.06355 4.13725
0.00127413 0.740558 4.13283
-0.819096 1.07478 5.55924
0.00101065 0.754467 5.55779
-0.841104 1.31978 -3.14472
0.00305498 1.31027 -3.84752
-0.847393 1.34501 -1.57668
-0.00328105 1.32929 -2.44192
-0.848818 1.37112 0.146698
-0.00865807 1.36073 -0.711429
-0.844635 1.38254 1.87019
-0.0149205 1.3815 1.00483
-0.837196 1.38505 3.43862
-0.0182566 1.38356 2.73555
-0.831395 1.39081 4.85119
-0.0150482 1.38654 4.14168
-0.0119386 1.39507 5.56069
0.826433 0.0654098 -3.38607
0.837975 0.162801 -4.07267
1.24769 0.0586003 -4.092
0.81917 0.0705904 -1.77479
1.23154 0.0709959 -2.67568
0.819269 0.0722556 0.0381492
1.23378 0.0704834 -0.871606
0.809304 0.0916275 1.85122
1.22968 0.075892 0.943991
0.803781 0.114153 3.46381
1.2103 0.104717 2.74868
0.80991 0.123477 4.87753
0.806366 0.225249 4.1689
1.21357 0.117783 4.1685
0.812705 0.232007 5.57957
1.21962 0.125655 5.5799
0.847917 0.469597 -3.99983
1.25336 0.266676 -4.05097
0.80916 0.333779 4.87094
0.805411 0.535456 4.14895
1.21165 0.328076 4.16159
0.811631 0.545829 5.5673
1.21869 0.336214 5.57497
0.848972 0.991461 -3.89782
1.26976 0.674908 -3.9516
0.807881 0.747506 4.84531
0.804122 1.06354 4.13725
1.21136 0.740755 4.13339
0.808168 1.07476 5.55924
1.21738 0.754441 5.55791
0.840878 1.31978 -3.14472
1.26134 1.31178 -3.85096
0.835454 1.34501 -1.57668
1.25793 1.3307 -2.44571
0.825239 1.37111 0.146698
1.25068 1.36087 -0.713715
0.811458 1.38252 1.87019
1.23493 1.38079 1.0051
0.803891 1.38504 3.43862
1.21785 1.38359 2.73751
0.804408 1.3908 4.85119
1.21409 1.38695 4.14364
1.21529 1.39543 5.56211
1.6528 0.0641864 -3.3816
1.66308 0.162475 -4.0703
1.64615 0.070889 -1.7725
1.6465 0.176579 -2.65622
1.64419 0.0741198 0.0342364
1.64952 0.179823 -0.860627
1.63068 0.0889813 1.84144
1.64387 0.184337 0.943162
1.62009 0.108347 3.45337
1.61801 0.206782 2.73977
1.62328 0.119962 4.87087
1.61885 0.22061 4.1612
1.6256 0.229863 5.57529
1.65677 0.274868 -3.34491
1.6752 0.471987 -4.00275
1.64986 0.285514 -1.74435
1.66491 0.487923 -2.59058
1.6492 0.29004 0.0482989
1.66712 0.503977 -0.819648
1.6312 0.302138 1.84149
1.6551 0.512731 0.951826
1.61677 0.319046 3.4476
1.61792 0.520166 2.72384
1.62118 0.330512 4.86562
1.61761 0.533375 4.14603
1.62444 0.544827 5.56558
1.68334 0.685042 -3.24842
1.68213 0.995227 -3.90474
1.68217 0.706387 -1.66588
1.67961 1.01252 -2.49563
1.67303 0.726668 0.0838788
1.67573 1.04043 -0.753001
[...]
POINT_DATA 29498
VECTORS point_vectors float
-1.97176 -1.69679 4.95582
0.0800807 0.631484 2.55235
-8.8688 5.18418 13.294
-0.155881 -0.268907 1.94183
1.97829 -1.70026 4.96759
-0.227945 0.660739 2.95313
8.79788 5.15305 13.1769
0.231784 -0.387742 2.59263
0.00721847 -0.00623889 0.204332
0.0464118 -0.0739366 0.236397
0 0 0
0 0 0
-0.00718366 -0.00626018 0.204286
-0.0460028 -0.0743048 0.236789
0 0 0
0 0 0
-0.371246 -0.0742987 19.866
-1.09517 -0.414626 20.3417
-0.421319 -0.300211 21.144
0.0992063 -0.0175036 21.3346
0.611176 0.205629 21.1578
0.726856 0.230652 20.5854
0.258371 0.000536439 20.9265
-0.387461 -0.0400785 19.8466
-1.30126 -0.289797 20.3426
-0.509524 -0.341609 21.1625
0.117144 -0.0720526 21.4016
0.72983 0.106988 21.1863
0.699945 0.0949588 20.443
0.21275 -0.0750174 21.1218
-0.439645 0.0414621 19.8206
-1.32467 0.0422452 20.3654
-0.76744 -0.270832 21.1728
0.0552006 -0.155481 21.4587
0.741442 -0.147658 21.2132
0.624316 -0.177206 20.4024
0.251692 -0.19889 21.0731
-0.382974 0.201714 19.9013
-0.924673 0.426982 20.3664
-0.788256 0.170405 21.1096
-0.0481483 -0.106299 21.3903
0.453667 -0.329143 21.0883
0.421001 -0.46523 20.9347
0.392751 -0.420929 20.4077
-0.298085 -0.171301 19.4993
-3.03291 -3.90474 19.9684
0.181644 -0.215172 15.805
0.33923 0.0378552 14.6608
0.678055 1.027 15.1489
0.978055 0.861358 16.0429
0.729102 0.508125 16.5479
-0.352043 -0.0984762 19.3904
1.38395 0.793724 12.5755
0.816506 0.344844 14.101
-0.445528 0.119971 19.3024
1.49186 0.167209 12.2452
0.971644 -0.0941563 14.4091
-0.382713 0.421679 19.5141
-1.47905 1.86842 20.2198
-2.25671 1.614 21.4541
-0.129106 -0.079791 21.2121
0.596305 -0.825583 20.1921
0.706114 -0.770655 20.32
0.378078 -0.496249 19.8996
0.305279 -0.173784 19.4952
3.03806 -3.84455 19.9701
-0.175906 -0.212257 15.8657
-0.343456 0.0381234 14.5329
-0.641624 1.04573 14.9433
-0.667601 1.08405 16.3672
-0.751594 0.510587 16.7069
0.362218 -0.099534 19.4113
-1.27592 0.939945 12.2033
-0.889475 0.255512 14.1404
0.454602 0.119268 19.3222
-1.38776 0.222496 11.5932
-0.918868 -0.177573 14.4715
0.382536 0.41862 19.516
1.47124 1.88253 20.2143
2.29014 1.68836 21.4591
0.109353 -0.0814386 21.0623
-0.594288 -0.8441 19.9789
-0.623708 -0.811464 20.2397
-0.352933 -0.424451 20.0838
0.3642 -0.0753774 19.874
1.09208 -0.40244 20.3404
0.4217 -0.304618 21.1428
-0.0971174 -0.020201 21.3279
-0.609102 0.206495 21.1569
-0.679585 0.175301 20.8793
-0.301601 -0.041701 20.7866
0.390286 -0.0373362 19.8543
1.30844 -0.297655 20.3349
0.513611 -0.345447 21.1616
-0.116725 -0.0716375 21.4042
-0.724021 0.102865 21.1827
-0.782444 0.000670842 20.7841
-0.29547 -0.14337 20.9267
0.42955 0.0478355 19.8408
1.32746 0.046335 20.3669
0.766693 -0.270303 21.1739
-0.0553371 -0.15518 21.4562
-0.742328 -0.146937 21.206
-0.782046 -0.237648 20.7731
-0.284015 -0.247646 20.9169
0.393651 0.199385 19.8992
0.932907 0.435214 20.3662
0.808661 0.174747 21.1153
0.0503588 -0.113409 21.3979
-0.454413 -0.339134 21.1096
-0.489328 -0.404087 21.0509
-0.27769 -0.389021 20.6024
-0.0193672 0.00159023 0.011986
-0.000217325 -1.82215 1.58251
0.0371446 -0.0377975 1.15755
-0.0884196 -0.0769616 0.357451
-0.00430226 -0.0661674 -0.0125757
0.00533853 0.122582 0.737533
-0.00273367 3.71107 3.71203
-0.262474 -0.281405 1.5849
-0.00251974 0.0267818 -0.0115575
0.189266 0.126943 0.592388
0.00568998 0.000600705 0.00338236
-0.0374722 -0.0378958 1.15255
0.303608 -0.133544 0.0906746
-0.00369855 0.124187 0.738954
0.262392 -0.281595 1.58224
-0.188808 0.126694 0.593861
-0.00377709 0.00581277 0.159502
0 0 0
-4.63381e-09 -6.226e-09 6.01695e-06
9.4223e-05 0.00697248 0.0278425
-1.29437e-06 2.08627e-06 0.000987796
0.000495695 0.00118947 0.00435943
-8.20031e-05 0.101411 0.168392
4.16596e-07 -0.000280125 0.00605821
0.00385024 0.00582704 0.159157
0 0 0
-9.54612e-05 0.00693634 0.0276837
-0.000582594 0.00139424 0.00512258
0 0 0
0 0 0
0.00224507 0.0104175 0.0949048
0 0 0
-1.2073e-09 6.40616e-09 -1.35134e-05
-6.04555e-07 1.43597e-05 0.000243442
0 0 0
0 0 0
2.45913e-05 0.000852767 0.0242909
0 0 0
-2.47837e-08 8.94247e-06 -8.56539e-05
0 0 0
0 0 0
-0.00226516 0.0104179 0.0957927
-2.61898 -0.934215 20.2114
-4.93992 -5.79119 19.9372
-1.18015 -0.554599 18.5233
1.15735 0.513145 19.8138
0.49647 1.00314 9.84253
1.0749 1.13503 10.3587
-2.76982 0.329274 20.3587
-1.56493 0.466057 18.2166
-2.87327 2.95562 20.3222
1.26694 -0.0610989 19.5407
1.60902 -0.0911182 8.46223
1.40194 -0.236293 14.0151
4.8926 -5.62988 19.925
1.18754 -0.539511 18.5506
2.62247 -0.934132 20.2091
-0.443919 1.05726 9.72116
-1.07737 1.14683 10.4993
-1.16517 0.509489 19.8253
1.5757 0.454397 18.2713
2.87275 2.97891 20.3215
2.77402 0.328854 20.358
-1.54745 -0.107815 8.64178
-1.40435 -0.229805 13.4826
-1.27086 -0.0728706 19.5469
-0.355824 -0.710464 21.0074
0.390061 -0.274294 8.47463
0.253113 0.0624088 20.3139
0.569142 -0.396428 7.91281
-1.26149 -0.68766 21.2215
-4.31443 0.0209767 17.1515
0.185521 -0.23494 20.2784
0.724573 0.916115 10.7731
-0.39091 -0.273659 8.52603
0.357458 -0.711198 20.9987
-0.574773 -0.389682 7.80733
-0.251339 0.0607593 20.3186
4.48435 -0.0305986 16.8835
1.26151 -0.696348 21.2067
-0.756283 0.960827 9.9356
-0.186494 -0.23699 20.2826
-0.718323 -0.21823 19.897
-0.38103 -0.0591826 19.8588
-0.370525 -0.136484 19.6782
-0.77955 -0.367048 20.9408
-1.19756 -0.363724 20.3419
-1.95439 -1.12631 20.2075
-0.132393 -0.164248 21.2793
-0.452501 -0.3233 21.1571
-0.266002 -0.418836 21.3176
0.355058 0.114412 21.3016
0.11084 -0.0423102 21.367
0.205137 0.0863372 21.2592
0.764234 0.168437 21.0113
0.687682 0.161479 21.1713
0.904076 0.583493 20.835
0.845844 0.0619544 20.5727
0.7134 0.162805 20.5142
0.918567 0.577495 21.0393
0.23556 -0.0372405 21.0242
0.486598 0.448473 20.7114
-0.809368 -0.140899 19.8345
-0.411074 0.00114886 19.8208
-0.441185 -0.0902089 19.6323
-0.878229 -0.338547 20.9708
-1.38425 -0.11461 20.3603
-0.166275 -0.222773 21.342
-0.640337 -0.319107 21.1713
0.439019 0.0442501 21.3603
0.0949014 -0.123641 21.4407
0.845319 0.119154 21.044
0.74817 -0.0213877 21.2167
0.925029 -0.00569001 21.0236
0.660779 -0.014527 20.3698
1.079 0.519676 20.3603
0.220418 -0.14103 21.2681
0.455158 0.220229 19.2166
-0.913567 0.0664423 19.8647
-0.449076 0.144551 19.8473
-0.5033 0.0796676 19.6034
-1.0155 -0.138756 20.8927
-1.18389 0.319351 20.3522
-0.342005 -0.239201 21.3956
-0.853653 -0.0460434 21.151
0.440929 -0.119122 21.3889
-0.0143636 -0.155456 21.4236
0.89341 -0.163369 21.0748
0.596888 -0.278871 21.1432
0.843674 -0.151124 20.791
0.508047 -0.384795 20.5209
1.18124 -0.141888 19.9511
0.322221 -0.30991 20.7404
0.610106 -0.221289 19.5203
-0.699036 0.355221 20.0123
-0.437335 0.288358 19.7318
-0.90196 0.301344 20.7681
-1.30024 0.879959 20.3158
-0.429836 0.028579 21.3525
-1.34991 0.443233 21.2539
0.260504 -0.232693 21.2817
-0.11976 -0.135101 21.6267
0.487831 -0.37458 20.7911
0.5636 -0.553751 21.1577
0.420816 -0.282978 20.5837
0.70787 -0.606136 20.43
0.479271 -0.498296 20.0546
-0.964654 -0.75262 18.883
-0.323275 -0.13181 19.4366
0.00285925 -0.240811 19.3117
-0.707515 -0.480743 18.7068
0.000316798 -6.89533 20.7168
0.159844 0.030157 14.9274
5.15384e-05 -0.0892103 10.2481
0.397621 0.546175 14.345
0.000512098 0.0394836 8.57985
0.763507 1.18736 15.813
-0.00734722 0.50687 8.90477
0.77735 0.854257 15.663
1.26265 0.805005 13.1373
-0.0507449 0.869538 10.9467
0.828458 0.494348 15.2274
-0.0415128 0.514711 12.5673
-0.41395 -0.0267717 19.3338
0.0127703 -0.16295 19.1765
1.1798 0.571762 12.6349
1.57775 0.71565 11.8402
-0.142627 -0.123306 3.93746
0.801899 0.0445342 12.7673
-0.0642577 0.263008 10.2849
-0.42708 0.273424 19.3712
0.013407 0.139877 19.003
1.23117 -0.0528278 11.8697
1.25799 -0.909802 16.875
-0.254742 -1.60172 2.32397
0.791435 -0.30724 17.9642
0.0106374 -0.480351 8.97803
-0.926197 1.14265 19.3407
0.00199277 0.548734 19.3002
-1.52557 1.34332 20.6239
-0.00680834 3.00759 20.1524
-1.03954 0.449844 21.8583
-0.0356183 5.06377 20.8925
0.464495 -0.610941 20.4001
0.0107891 -0.220789 14.7145
0.653342 -0.934557 19.8701
0.0125473 -0.918613 15.9559
0.427644 -0.656917 20.5061
0.0395563 -1.12383 16.3219
-0.0182522 -0.665193 17.1277
0.969663 -0.743405 18.8959
0.331586 -0.132081 19.4437
0.371424 -0.135422 19.6859
0.72115 -0.474301 18.7999
1.94046 -1.1121 20.2063
-0.157563 0.0309454 14.8875
0.267801 -0.420205 21.3136
-0.392236 0.541742 14.1909
-0.203898 0.0885584 21.2526
-0.778181 1.19762 16.008
-0.912426 0.597687 20.8115
-0.725998 0.816788 15.2033
-1.02947 1.04617 13.0947
-0.852636 0.693755 20.7176
-0.8655 0.459262 15.3594
-0.482834 0.481972 20.8146
0.424619 -0.0254792 19.355
0.447081 -0.0881766 19.6429
-1.07428 0.61001 13.1275
-1.67121 0.709999 10.7689
-1.32718 0.483882 19.4617
-0.9367 -0.111521 12.6442
-0.511207 0.178571 19.2454
0.432689 0.270804 19.38
0.49793 0.07926 19.6169
-0.877186 0.037592 12.5174
-1.15524 -0.921988 16.2322
-1.26319 -0.131095 19.8325
-0.684078 -0.296453 18.0356
-0.541177 -0.257333 19.5692
0.925272 1.14257 19.3386
0.437112 0.287076 19.7372
1.52708 1.3719 20.6159
1.30694 0.892611 20.3136
1.04854 0.476494 21.8768
1.37543 0.463813 21.2607
-0.480319 -0.636162 20.1591
0.12449 -0.133123 21.6478
-0.651855 -0.948119 19.7718
-0.557565 -0.573416 21.1694
-0.365846 -0.607335 20.5839
-0.665917 -0.627354 20.2289
-0.354279 -0.430578 20.3047
0.713859 -0.218329 19.899
0.379838 -0.0573519 19.8663
0.779495 -0.366623 20.9387
1.19724 -0.363643 20.3373
0.128936 -0.164473 21.2824
0.454673 -0.327598 21.1559
-0.35919 0.116542 21.3092
-0.109603 -0.0435001 21.366
-0.720935 0.245092 20.8885
-0.683544 0.15837 21.1666
-0.775518 0.115366 20.5449
-0.731014 0.0879857 20.8317
-0.298536 -0.0925354 20.8567
0.818372 -0.135612 19.8478
0.409578 0.000621794 19.8374
0.87953 -0.340113 20.9695
1.3949 -0.11969 20.3519
0.169038 -0.225114 21.3406
0.644536 -0.322895 21.172
-0.43634 0.0424779 21.3576
-0.0960472 -0.122866 21.4428
-0.812867 0.100799 20.944
-0.746591 -0.0236732 21.2109
-0.728473 0.0153343 20.8456
-0.823815 -0.160061 20.7177
-0.309253 -0.21344 21.0371
0.909751 0.0662474 19.8699
0.432325 0.127779 19.8641
1.01732 -0.138679 20.893
1.18571 0.326138 20.3557
0.339396 -0.239631 21.3987
0.864332 -0.0443471 21.1565
-0.444387 -0.119905 21.3888
0.0089328 -0.15784 21.4323
-0.834449 -0.15717 20.9287
-0.611331 -0.291259 21.1509
-0.675968 -0.0895111 20.8992
-0.615491 -0.34179 21.0872
-0.280853 -0.318333 20.7597
0.701188 0.358483 20.0118
0.914058 0.304826 20.7701
0.442676 0.0230144 21.363
-0.269506 -0.240226 21.2846
-0.492213 -0.368126 20.8558
-0.427672 -0.259213 20.5815
-0.767708 -0.18207 19.8644
-1.08383 -0.656192 18.6624
-0.910014 -0.42798 19.52
-1.09282 -0.292388 19.3632
-0.41098 -0.118599 19.6539
-2.25845 -1.0836 20.2189
-0.823441 -0.351373 20.9621
0.175648 -0.213185 9.88351
-0.838114 -0.602757 21.2531
-0.931208 -0.761667 21.374
-0.257715 -0.545126 21.2969
-0.141898 -0.191677 21.3059
0.0440317 0.0930169 8.13384
0.0338233 -0.131823 21.3472
0.0748874 -0.280009 20.5456
0.238068 0.0752094 20.9231
0.404264 0.0885571 21.3371
0.0933439 0.591503 7.47735
0.542473 0.358423 21.1346
0.682278 0.335652 20.2271
1.05144 0.559621 20.5526
0.812649 0.138179 20.9934
0.977058 1.26328 12.5769
1.08042 0.632833 20.2633
1.26651 0.472624 19.8025
0.952509 0.530639 20.8334
0.988 0.0380708 20.7863
1.1595 0.725263 12.9838
0.699637 0.594142 20.8217
0.869122 0.386884 19.7935
0.466973 0.369991 20.3454
-0.862622 -0.0318636 19.8359
-1.47501 -0.134217 18.1712
-1.33286 0.188134 19.2982
-0.454591 -0.0161998 19.6087
-3.06451 -0.371968 20.2866
-0.957817 -0.238146 20.9254
-1.55516 -0.290432 21.1862
-0.82454 -0.82132 20.9763
-0.252248 -0.254146 21.3921
-0.381149 -0.584022 20.7444
0.252586 -0.0764712 20.0293
0.444562 -0.0431616 21.3953
0.793305 0.00598151 19.8419
1.28421 0.276571 19.3668
0.909638 -0.0413766 21.1018
1.02515 0.482456 6.16078
1.44372 -0.185275 19.5284
1.27173 0.427042 19.5784
0.833459 -0.0831863 21.2664
1.20548 0.259467 12.2523
0.915042 -0.239932 19.0819
0.44047 -0.0814124 17.8843
-0.847705 0.260209 19.9201
-1.28334 1.05727 18.7513
-0.903325 0.649211 19.7586
-0.482332 0.187338 19.65
-1.96766 0.875406 20.332
-1.03642 0.100488 20.8291
-2.42005 0.982951 20.2218
-1.28558 0.595096 20.7691
-1.64008 -0.0685741 21.3709
-0.436581 -0.128876 21.3857
-0.12627 0.506973 11.4785
-0.708152 0.103984 21.6141
-0.0795552 -0.26685 21.5317
0.359157 -0.206238 21.3379
1.49414 0.320667 12.3507
0.343523 -0.383938 21.4371
0.869375 -0.553819 20.8912
0.709826 -0.345699 20.9466
1.4076 -0.615472 15.5159
0.6157 -0.621967 20.9688
1.02792 -0.530466 20.2142
0.622942 -0.215567 20.5522
0.770566 -0.467848 17.3903
0.464307 -0.426324 20.2438
0.71821 -0.355839 19.957
1.09221 -0.642729 18.6787
0.00754432 -1.21028 18.1347
0.0116124 -0.927159 17.3968
0.00988959 -0.201337 19.2449
-0.00330498 -9.55249 20.5309
-0.169323 -0.213055 9.96569
0.00273918 -0.49009 13.7427
8.70359e-05 -0.00526893 3.35496
-0.043309 0.0937291 8.10449
-0.000260853 -0.0331709 8.96662
0.000192828 0.0111934 2.92832
-0.0788648 0.58295 7.36425
0.00278424 0.318263 8.3805
-0.0198581 0.279316 3.42212
-0.920905 1.3302 12.6065
-0.0441093 0.665364 9.72892
-0.00373324 -0.0228826 0.812385
-0.0966858 0.373116 7.44206
-0.881831 0.801781 13.391
-0.00384739 0.694166 11.4435
0.130564 0.37228 8.18456
-0.0528853 0.38886 11.4261
1.48149 -0.135318 18.2069
0.0239641 0.870183 16.6344
0.0152837 -0.0688889 19.0019
-1.01614 0.495723 5.9756
0.0102563 -1.00403 -1.34752
-0.224236 -1.0652 -1.70222
-1.3337 0.246618 12.7306
0.153891 -0.354944 5.70523
-0.0706833 -0.0446254 8.53396
1.285 1.0409 18.7641
-0.000473408 1.76538 18.8276
0.00589335 0.404877 19.0246
-0.00551866 5.24803 20.5358
2.41831 1.00466 20.1701
-0.0117683 2.18612 20.3361
0.00294618 2.49667 4.41241
0.0202485 0.599976 10.7217
-0.0105039 0.681138 16.4439
0 0 0
-1.49526 0.313418 11.6757
0.00765943 -0.743156 15.1194
-0.0174916 0.0514653 1.59855
-1.39195 -0.625065 15.0634
0.0280606 -1.16994 16.2277
-0.292242 -2.2743 8.70735
-0.593903 -0.409106 17.291
-0.00333199 -0.922022 16.343
0.107162 -0.987646 10.8357
0.77202 -0.180444 19.873
0.914194 -0.416768 19.5345
1.08112 -0.288794 19.3973
0.412039 -0.114441 19.6635
2.25239 -1.07358 20.218
0.82483 -0.352034 20.96
0.83827 -0.604366 21.2478
0.932795 -0.761607 21.3737
0.259166 -0.546044 21.2937
0.142016 -0.193615 21.3066
-0.0324844 -0.132533 21.3435
-0.0722764 -0.280726 20.541
-0.237486 0.0756444 20.9131
-0.403549 0.0881259 21.3365
-0.542544 0.361857 21.1134
-0.680196 0.331683 20.235
-1.05976 0.568793 20.5264
-0.771916 0.165717 20.9279
-1.03247 0.665095 20.4025
-1.29337 0.48627 19.9147
-1.09429 0.594809 20.3253
-0.745477 0.0834497 20.745
-0.574466 0.47041 20.3279
-0.829525 0.277575 19.6375
-0.486888 0.382588 20.4686
0.8632 -0.0337633 19.8465
1.31439 0.18435 19.3238
0.456831 -0.0177614 19.6228
3.07237 -0.37185 20.2855
0.962433 -0.239315 20.9241
1.55396 -0.29337 21.189
0.82555 -0.823181 20.9512
0.254135 -0.254886 21.3928
0.380115 -0.587879 20.7353
-0.251686 -0.0799866 20.0397
-0.442984 -0.0449928 21.3931
-0.793276 0.00194763 19.8521
-1.29231 0.274664 19.2784
-0.875315 -0.00705739 20.8774
-1.43044 -0.197861 19.7026
-1.3803 0.252671 18.6637
-0.686124 -0.0800574 20.9306
-0.840376 -0.270939 19.1931
-0.561258 -0.190316 17.7487
0.842137 0.261348 19.9214
0.904123 0.647696 19.7571
0.479302 0.185202 19.6587
1.97603 0.884775 20.3327
1.03985 0.103714 20.8316
1.29422 0.610458 20.7691
1.67092 -0.0598241 21.3791
0.439313 -0.130869 21.3929
0.725391 0.115359 21.6316
0.0858109 -0.269733 21.4975
-0.36782 -0.209827 21.3437
-0.349139 -0.40345 21.4478
-0.894029 -0.557663 20.7808
-0.705119 -0.363509 20.926
-0.617685 -0.640072 20.9884
-0.880569 -0.567744 19.7271
-0.690125 -0.250947 20.6003
-0.341791 -0.391294 20.363
-0.557618 -0.32831 20.1596
-0.999597 -0.372342 19.4457
-0.829091 -0.652554 21.3251
0.0812142 -0.192245 21.1245
0.624887 0.349384 20.8031
1.18176 0.554916 20.1373
0.84335 0.538495 20.2263
-1.29622 -0.0928242 19.2734
-1.33638 -0.70246 21.4154
-0.117782 -0.492436 20.3727
0.740288 0.208262 19.7382
1.43454 0.190727 19.5304
0.89208 0.0734758 19.4377
-1.15757 0.516156 19.5097
-1.58347 0.232381 20.8903
-0.773798 -0.248839 21.6455
0.559947 -0.398878 21.2459
0.941512 -0.651228 20.7273
0.669717 -0.398466 20.0105
0.00901309 -1.06466 17.7272
0.00212567 -0.121783 4.73265
-3.37479e-05 -0.00312134 3.01623
0.0015756 0.166016 3.2732
-0.028758 0.228781 4.69315
0.120151 0.557298 8.92358
0.0255004 -0.195843 16.7207
0.190597 -0.798703 -3.32833
0.142227 0.00866639 6.94491
0.00864728 1.89081 17.7392
-0.0041595 1.79555 18.2096
0 0 0
-0.00215453 0.0551071 0.556537
0.0115249 -0.863799 5.33391
-0.0271485 -1.4497 9.34378
0.992734 -0.360853 19.468
0.830919 -0.652303 21.3205
-0.080167 -0.192267 21.1192
-0.625822 0.350004 20.7907
-1.17272 0.569939 20.3273
-0.656475 0.457699 19.914
1.28461 -0.0909547 19.306
1.33972 -0.705125 21.418
0.119521 -0.494001 20.3645
-0.739325 0.204699 19.7412
-1.44759 0.162074 19.5538
-0.890258 -0.00433053 19.4114
1.15139 0.50747 19.5191
1.59191 0.232909 20.8905
0.787449 -0.249484 21.6413
-0.57835 -0.396956 21.1439
-0.949047 -0.66007 20.6221
-0.525024 -0.442012 20.0346
-6.49798 -2.61629 7.52034
-0.314034 -3.17274 4.24402
-0.0680873 -0.0485558 1.72408
-0.138914 -0.109103 0.256293
-0.0554752 -0.0411331 -0.00625797
0.0736521 0.0275093 1.26486
-6.76081 0.493013 4.82618
-0.62302 3.27458 2.19691
-0.225114 -0.157749 1.80707
0.00273239 -0.0170269 0.223659
-0.00756804 0.00323004 -0.00188397
0.32951 0.195683 1.69074
0.290722 -3.12116 4.18334
6.47564 -2.60587 7.49763
0.0729763 -0.0352108 1.67679
0.0555799 -0.0439796 -0.0073635
0.087939 -0.0830707 0.24207
-0.0722412 0.0298363 1.27208
0.625457 3.28306 2.20452
6.76991 0.478707 4.82801
0.22501 -0.158141 1.80485
0.00758566 0.00385369 -0.00215926
0.216426 -0.0920138 0.22912
-0.323635 0.189948 1.69599
0.023372 -0.0166111 0.235536
-0.00140449 0.00323173 0.173798
-8.28527e-05 0.00020356 0.0395774
0 0 0
0.0137157 0.0472531 1.65371
-0.00514751 0.00926698 0.27875
0 0 0
0.000234714 4.1638e-05 0.0110467
-0.173958 -0.228771 0.629938
-0.000183812 0.00011857 0.0427338
0.00506981 0.013553 0.0503922
-0.0887012 0.0546658 0.121134
0.050741 0.0698289 0.215904
0.00054755 0.00500518 0.0199742
2.22927e-18 5.63264e-18 2.36601e-17
0.0480923 -0.00391096 0.342107
-0.0233447 -0.0166201 0.234845
0 0 0
0.00143374 0.00320373 0.173665
8.02915e-05 0.000197036 0.0390673
-0.0134879 0.0472149 1.64948
-0.00025955 4.9547e-05 0.0125428
0.00521197 0.00931114 0.279075
0 0 0
0.17381 -0.228694 0.629734
0.0912835 0.0564345 0.123723
0.000184887 0.000113576 0.0428928
-0.00219907 0.00735148 0.0245238
-0.0506436 0.0697205 0.21618
-0.0480115 -0.00390294 0.341358
-0.00055347 0.00504925 0.0201472
0 0 0
-0.000518056 0.00116672 0.00887972
-0.341248 0.399147 0.565752
1.87641e-06 -0.00150265 0.035879
4.45309e-05 -0.476941 0.144626
-2.4682e-05 -0.000281109 0.00633787
0.00181057 -0.00117761 0.0271496
0.00731181 0.0190725 0.175539
2.04707e-17 -7.57111e-18 5.82789e-18
0 0 0
0 0 0
-2.94514e-18 -4.27088e-19 -2.31182e-17
0 0 0
-0.00053909 1.25785 0.299423
1.68894e-06 8.97622e-06 0.000274431
-4.87334e-18 -2.23172e-17 8.99103e-17
-0.00224896 1.53652e-05 0.000416521
-0.00839428 0.089221 -0.0385027
-4.09968e-05 0.000853753 -0.00712954
0.002643 0.0102019 0.0599893
3.15296e-06 8.9262e-06 -0.000120467
0.341995 0.40347 0.571415
0.000558608 0.00123669 0.00957916
-0.0017672 -0.00115392 0.0267477
1.89189e-05 -0.00021242 0.00481711
0 0 0
-0.00753242 0.0193 0.180807
0 0 0
0 0 0
0.0022555 1.44277e-05 0.000388037
0 0 0
-2.98594e-06 9.21281e-06 -0.000124138
-0.00267575 0.0102993 0.0609386
-0.0020757 0.0072453 0.0608212
0 0 0
0 0 0
0 0 0
-1.34466e-08 -1.58124e-08 5.12565e-06
7.14549e-10 2.4376e-09 -3.99569e-06
-2.68994e-06 3.22758e-05 0.000207928
5.82035e-05 0.00066369 0.00388041
-4.45711e-07 -1.18618e-09 2.30605e-05
4.33413e-07 8.9984e-05 0.00178237
0.00194246 0.013609 0.0645754
0.034378 0.0200379 0.586599
3.14291e-05 -0.000509082 -0.0135522
2.311e-06 0.00129374 0.0214463
-5.58978e-07 -2.23421e-06 0.000287788
-2.12021e-05 0.00618336 -0.00500813
0 0 0
0.00206008 0.00719063 0.0600381
0 0 0
0 0 0
3.3468e-06 4.01002e-05 0.000257835
-5.65771e-05 0.000645503 0.00377785
-0.0343088 0.0200629 0.587366
-0.00195545 0.0137217 0.0648819
-0.000791801 0.00373147 0.0593374
-0.00044287 -0.000866767 0.0082997
0.00151783 -0.00671097 0.0580217