# vtk DataFile Version 2.0
tri_press
ASCII
DATASET UNSTRUCTURED_GRID
POINTS 3682 float
-0.808038 0.285 -2.645
-0.795 0.325 2.75384
-0.855 0.682114 -2.525
-0.795 0.724323 2.705
0.808018 0.285 -2.645
0.795 0.325 2.75384
0.855 0.682104 -2.525
0.795 0.724308 2.705
-0.817816 0.284209 -0.845387
-0.821939 0.289074 0.954227
-0.856433 0.717616 -0.781667
-0.844335 0.739588 0.961667
0.817807 0.284205 -0.845387
0.821957 0.289049 0.954227
0.85644 0.717612 -0.781667
0.844334 0.739574 0.961667
-1.63923 0.0581455 -4.09018
-1.64153 0.0702444 -2.67303
-1.6465 0.071557 -0.871961
-1.64195 0.0767286 0.940434
-1.62154 0.101288 2.74246
-1.61724 0.115451 4.16428
-1.62102 0.124517 5.57745
-1.6427 0.266823 -4.05041
-1.64719 0.282929 -2.63941
-1.65313 0.288118 -0.849293
-1.64419 0.292008 0.945891
-1.61205 0.312323 2.73709
-1.61096 0.325812 4.15811
-1.61824 0.335255 5.57312
-1.66345 0.677172 -3.95508
-1.68295 0.692937 -2.54175
-1.6847 0.719862 -0.790003
-1.66369 0.733515 0.957761
-1.61814 0.728062 2.71059
-1.61533 0.740984 4.13394
-1.62253 0.754446 5.55803
-1.67497 1.31331 -3.8544
-1.68407 1.33213 -2.4495
-1.68603 1.36103 -0.715999
-1.67768 1.3801 1.00537
-1.66234 1.38366 2.73947
-1.65218 1.3874 4.14559
-1.6479 1.39582 5.56353
-0.809391 0.0590678 -4.09381
-0.812461 0.0717578 -2.67833
-0.818442 0.0694322 -0.871251
-0.821807 0.0751041 0.947549
-0.809624 0.108177 2.7549
-0.805582 0.120146 4.17272
-0.807702 0.126827 5.58234
-0.807934 0.266542 -4.05153
-0.799811 0.330369 4.16507
-0.805403 0.337208 5.57681
-0.82381 0.672662 -3.94812
-0.802437 0.740564 4.13283
-0.808755 0.754473 5.55779
-0.836825 1.31027 -3.84752
-0.845383 1.3293 -2.44192
-0.849402 1.36073 -0.711429
-0.848233 1.38151 1.00483
-0.841038 1.38356 2.73555
-0.833354 1.38655 4.14168
-0.829436 1.39508 5.56069
0.835125 0.0590641 -4.09381
0.817742 0.0717554 -2.67833
0.820598 0.0694254 -0.871251
0.817941 0.0750859 0.947549
0.800666 0.108169 2.7549
0.806896 0.120137 4.17272
0.812925 0.126817 5.58234
0.840825 0.266538 -4.05153
0.805835 0.330361 4.16507
0.812485 0.337197 5.57681
0.85501 0.672656 -3.94812
0.804986 0.740552 4.13283
0.810777 0.754461 5.55779
0.842935 1.31027 -3.84752
0.838821 1.32929 -2.44192
0.832086 1.36073 -0.71143
0.818392 1.3815 1.00483
0.804524 1.38355 2.73555
0.803257 1.38653 4.14168
0.805559 1.39507 5.56069
1.66026 0.0581364 -4.09018
1.64533 0.0702364 -2.67303
1.64697 0.0715415 -0.871961
1.64141 0.0766981 0.940434
1.61994 0.101265 2.74246
1.62023 0.115429 4.16428
1.62632 0.124494 5.57745
1.66589 0.266814 -4.05041
1.64766 0.282922 -2.63941
1.65207 0.288105 -0.849293
1.64633 0.291975 0.945891
1.61608 0.3123 2.73709
1.61747 0.325791 4.15812
1.62489 0.335232 5.57312
1.68452 0.67716 -3.95508
1.68217 0.692924 -2.54175
1.68218 0.719849 -0.790003
1.66388 0.733487 0.95776
1.61977 0.728033 2.71059
1.61774 0.740958 4.13395
1.62398 0.754421 5.55803
1.67975 1.31329 -3.8544
1.67704 1.33212 -2.4495
1.66928 1.36102 -0.716
1.65147 1.38008 1.00537
1.63117 1.38364 2.73947
1.62492 1.38737 4.1456
1.62501 1.39579 5.56353
-0.796364 0.483557 -2.54985
-9.98378e-06 0.240305 -2.68969
-0.846225 0.251307 -1.74519
-0.799383 0.524661 2.7338
0 0.364134 2.71471
-0.825924 0.289583 1.85403
0 0.751116 -2.59401
-0.859931 0.70408 -1.65333
0 0.600321 2.58101
-0.834239 0.746527 1.83333
0.79623 0.483552 -2.54972
0.846206 0.251309 -1.74519
0.783121 0.524654 2.71754
0.825963 0.28954 1.85403
0.859916 0.704054 -1.65333
0.834236 0.74651 1.83333
-0.819084 0.287435 0.05442
-0.891621 0.500913 -0.813527
-4.46356e-06 0.200963 -0.845387
-0.893033 0.514331 0.957947
8.90388e-06 0.201129 0.954227
-0.850167 0.728386 0.0899999
3.50016e-06 1.08157 -0.781667
-2.81857e-07 1.19542 0.961667
0.819086 0.287423 0.05442
0.891614 0.500908 -0.813527
0.893041 0.514312 0.957947
0.850176 0.728382 0.0899999
-0.878544 0.492235 -1.69926
0.878544 0.49223 -1.69926
-7.22367e-06 0.206636 -1.74519
1.75008e-06 0.790251 -1.65333
-4.99189e-06 0.483554 -2.63446
-0.893862 0.507622 0.07221
0.893837 0.50761 0.07221
2.22016e-06 0.201043 0.05442
1.60915e-06 1.21179 0.0899999
-0.894095 0.519496 1.84368
0.894101 0.519483 1.84368
4.45194e-06 0.248274 1.85403
-1.40929e-07 0.837005 1.83333
0 0.524658 2.57818
-0.859206 0.384278 -2.65443
-0.404024 0.255518 -2.67448
-0.84424 0.251045 -2.1951
-0.798133 0.424831 2.74476
-0.3975 0.372798 2.70604
-0.822491 0.295262 2.30394
-0.822716 0.582836 -2.53446
-0.4275 0.692958 -2.53585
-0.860038 0.69567 -2.08917
-0.800571 0.624492 2.72278
-0.3975 0.588825 2.56951
-0.825567 0.746372 2.26917
0.404004 0.255555 -2.67444
0.859184 0.384276 -2.65442
0.844213 0.251053 -2.1951
0.3975 0.3728 2.70604
0.791731 0.424827 2.73836
0.822485 0.295266 2.30394
0.4275 0.692992 -2.53589
0.822717 0.582828 -2.53446
0.860043 0.695664 -2.08917
0.3975 0.588845 2.56953
0.781499 0.624481 2.70371
0.825554 0.746345 2.26917
-0.816568 0.283211 -1.29529
-0.818044 0.286228 -0.395483
-0.869895 0.384973 -0.829457
-0.428963 0.20248 -0.845387
-0.858345 0.254915 1.40413
-0.821145 0.287621 0.504323
-0.871832 0.394529 0.956087
-0.432147 0.202737 0.954227
-0.858713 0.711379 -1.2175
-0.887873 0.616188 -0.797597
-0.853777 0.723478 -0.345834
-0.491543 1.02625 -0.781667
-0.840357 0.744128 1.3975
-0.887484 0.63636 0.959807
-0.846967 0.733703 0.525833
-0.526899 1.17696 0.961667
0.816549 0.283215 -1.29529
0.428953 0.20248 -0.845387
0.818039 0.286221 -0.395483
0.869871 0.384977 -0.829457
0.858334 0.254921 1.40413
0.432159 0.202737 0.954227
0.821161 0.287596 0.504323
0.871824 0.394518 0.956087
0.858715 0.71137 -1.2175
0.491572 1.02629 -0.781667
0.88788 0.616186 -0.797597
0.854112 0.723801 -0.345834
0.84036 0.744117 1.3975
0.526904 1.17697 0.961667
0.887467 0.636333 0.959807
0.84697 0.733693 0.525833
-0.876915 0.487896 -2.12455
-0.398185 0.483556 -2.65242
-8.60372e-06 0.222551 -2.21744
-7.48783e-06 0.36193 -2.73807
-0.877666 0.371771 -1.72223
-0.423116 0.208126 -1.74519
-0.886919 0.522079 2.28874
-0.399692 0.52466 2.59068
2.22597e-06 0.274876 2.28437
0 0.444396 2.58439
-0.874015 0.40454 1.84886
-0.41296 0.250292 1.85403
8.75041e-07 0.772394 -2.12367
-2.49594e-06 0.617335 -2.63364
-0.877751 0.598158 -1.6763
-0.429965 0.77714 -1.65333
-7.04643e-08 0.796265 2.20717
0 0.562489 2.59196
-0.883541 0.633012 1.83851
-0.41712 0.827444 1.83333
0.876916 0.487891 -2.12449
0.398112 0.483553 -2.65252
0.877648 0.371769 -1.72223
0.4231 0.208126 -1.74519
0.887201 0.522068 2.28061
0.39156 0.524656 2.59105
0.873987 0.404511 1.84886
0.412984 0.250288 1.85403
0.877752 0.598142 -1.6763
0.429959 0.77714 -1.65333
0.883552 0.632997 1.83851
0.417118 0.827447 1.83333
-0.871603 0.389963 0.063315
-0.430358 0.202606 0.05442
-0.888139 0.496574 -1.2564
-0.893187 0.504267 -0.370658
-5.84361e-06 0.20092 -1.29529
-1.1217e-06 0.201003 -0.395483
-0.893315 0.510976 0.515078
-0.894826 0.516914 1.40082
5.56202e-06 0.201086 0.504323
6.67791e-06 0.221526 1.40413
-0.888181 0.626087 0.0811049
-0.536537 1.193 0.0899999
2.62512e-06 0.808409 -1.2175
2.55466e-06 1.20656 -0.345834
6.63648e-07 1.20663 0.525833
-2.11393e-07 1.04042 1.3975
0.871566 0.389964 0.063315
0.430358 0.202605 0.05442
0.888133 0.496569 -1.2564
0.893165 0.504259 -0.370658
0.893308 0.510961 0.515078
0.894825 0.516897 1.40082
0.888172 0.626078 0.0811049
0.536549 1.19301 0.0899999
-0.877752 0.378025 -2.15983
-0.867708 0.382166 -1.27584
-0.887345 0.603711 -1.23695
-0.876411 0.590497 -2.10686
0.877753 0.378023 -2.15979
0.876412 0.590485 -2.10683
0.887359 0.603701 -1.23695
0.86768 0.382163 -1.27584
-0.41357 0.224807 -2.20627
0.413552 0.224789 -2.20627
0.416 0.200933 -1.29529
-0.416013 0.200933 -1.29529
-0.428732 0.759899 -2.10642
-0.42909 0.794154 -1.2175
0.42909 0.794155 -1.2175
0.428729 0.759898 -2.10642
-0.401104 0.373104 -2.71446
-0.412842 0.600085 -2.54346
0.412806 0.600082 -2.54347
0.401058 0.373103 -2.71455
-0.87096 0.387363 -0.383071
-0.87152 0.392345 0.509701
-0.887931 0.631272 0.520456
-0.888307 0.621277 -0.358246
0.870927 0.387366 -0.383071
0.888314 0.621277 -0.358246
0.887918 0.631255 0.520456
0.871497 0.39234 0.509701
-0.42966 0.202543 -0.395483
0.429656 0.202542 -0.395483
0.431259 0.202671 0.504323
-0.431252 0.202671 0.504323
-0.55174 1.18502 -0.345834
-0.533139 1.18782 0.525833
0.533142 1.18782 0.525833
0.551746 1.18502 -0.345834
-0.893019 0.403121 1.40247
-0.872863 0.414685 2.29634
-0.87289 0.628752 2.27896
-0.886506 0.629986 1.39916
0.893031 0.403096 1.40247
0.886516 0.62997 1.39916
0.873027 0.628739 2.27489
0.872906 0.414669 2.29227
-0.411962 0.223014 1.40413
0.411983 0.223014 1.40413
0.405242 0.275194 2.29415
-0.40523 0.275195 2.29415
-0.419644 1.01037 1.3975
-0.40731 0.78054 2.23817
0.407309 0.780542 2.23817
0.419643 1.01041 1.3975
-0.398596 0.434613 2.71232
0.39453 0.434611 2.71259
0.39453 0.593485 2.56763
-0.398596 0.593491 2.56745
-0.831551 0.334639 -2.64764
-0.606031 0.27528 -2.65472
-0.817207 0.276954 -2.42005
-0.797063 0.374915 2.7498
-0.59625 0.382284 2.69656
-0.814051 0.304825 2.52889
-0.84032 0.632475 -2.53119
-0.64125 0.692057 -2.53494
-0.86002 0.691393 -2.30708
-0.800736 0.674408 2.71684
-0.59625 0.581417 2.5621
-0.818412 0.743477 2.48708
0.606011 0.275283 -2.65472
0.831406 0.334638 -2.64752
0.81718 0.276962 -2.42005
0.59625 0.38228 2.69656
0.783291 0.374913 2.73603
0.814055 0.304821 2.52889
0.64125 0.692064 -2.53496
0.840546 0.632466 -2.53142
0.860027 0.691389 -2.30708
0.59625 0.581434 2.56212
0.783434 0.674395 2.69954
0.818387 0.743437 2.48708
-0.817458 0.283444 -1.07034
-0.817954 0.285195 -0.620435
-0.846116 0.333461 -0.837422
-0.643439 0.203245 -0.845387
-0.859929 0.252207 1.17918
-0.82155 0.288339 0.729275
-0.849521 0.340484 0.955157
-0.648253 0.203485 0.954227
-0.857801 0.714726 -0.999584
-0.878149 0.6699 -0.789632
-0.85501 0.720452 -0.56375
-0.720937 0.965831 -0.781667
-0.842329 0.741841 1.17958
-0.873907 0.691973 0.960737
-0.84609 0.737085 0.74375
-0.707336 1.00171 0.961667
0.817452 0.283436 -1.07034
0.643429 0.203245 -0.845387
0.817947 0.285189 -0.620435
0.846106 0.333457 -0.837422
0.859946 0.252184 1.17918
0.648262 0.203485 0.954227
0.821567 0.288314 0.729275
0.849513 0.340472 0.955157
0.857807 0.71472 -0.999584
[...]
POINT_DATA 3682
SCALARS point_scalars float 1
LOOKUP_TABLE default
-54.1651
-37.6149
-80.2089
-32.1602
-54.3064
-36.2608
-79.7458
-34.3835
-29.9955
-22.1342
-45.1715
-39.4708
-29.9833
-22.1411
-45.1416
-39.4738
14.225
-123.669
-30.4482
-25.6599
-39.5211
-38.148
-36.3537
-4.38647
-133.005
-31.8843
-35.2671
-37.9577
-36.6974
-33.2449
-4.38647
-135.124
-37.7179
-35.9187
-37.1298
-31.7443
-31.7532
-79.3826
-122.447
-76.7769
-42.9522
-32.8195
-31.7006
-31.7006
186.611
-161.133
-29.417
-33.3462
-36.5542
-33.2449
-33.2449
186.611
-33.2449
-33.2449
179.238
-31.7446
-31.7532
-5.35453
-120.719
-89.7975
-47.284
-31.6012
-31.7006
-31.7006
178.304
-155.871
-29.3398
-33.3342
-35.1185
-32.5836
-32.5836
172.938
-32.5836
-32.5836
179.218
-30.6032
-30.6032
-5.39298
-118.864
-89.5536
-47.2758
-30.9602
-30.4734
-30.4734
7.79398
-123.666
-30.4391
-25.7144
-40.6869
-34.2314
-34.2314
-4.62808
-132.479
-31.8695
-35.302
-38.8703
-34.2314
-34.2314
-4.62808
-134.922
-37.7169
-35.9147
-38.6195
-34.2314
-34.2314
-78.8643
-121.564
-77.5247
-43.0949
-33.5067
-34.4188
-32.8048
-24.4875
-117.12
-35.1021
-31.9938
-27.8127
-32.5634
-124.917
-25.9794
-25.6157
-36.847
-25.7083
-35.1008
-30.8364
-32.6411
-25.9852
-36.7372
-30.7736
-33.493
-32.3083
-32.9248
-34.4929
-40.0732
26.1954
-50.3457
-30.7863
-33.4768
-32.9296
-40.0501
-31.0818
-31.0964
-42.7577
-13.504
182.274
-34.1799
-34.2023
-30.7076
-61.9804
-32.5416
-32.6099
-33.4188
-35.8382
-25.0404
-35.5958
-80.9937
-55.1344
-33.691
-29.699
-32.1318
-35.3774
-99.912
-47.5913
-31.7392
-27.3609
-34.2565
-77.8864
-35.7369
-55.5932
-29.5834
-33.0107
-32.339
-100.081
-35.102
-47.6223
-27.0924
-31.3865
-34.3143
-27.8665
-30.967
-31.1255
-31.9559
-34.1651
-30.398
-26.1216
-34.4083
-24.1987
-37.6986
-44.0541
12.5728
-41.6464
-35.9625
-37.317
-49.2266
-27.8639
-31.9522
-30.9688
-31.1155
-34.166
-34.4244
-30.3933
-26.133
-24.22
12.5642
-37.6783
-43.8261
-41.6326
-49.2268
-35.9602
-37.3273
-54.4127
149.782
-63.0912
177.826
-31.6865
-41.6317
-32.1944
-27.3461
-32.484
-25.4751
-32.832
-33.2877
-47.4764
166.255
-29.891
-17.73
-31.2884
-24.9926
-33.8531
-35.8835
-54.4897
149.848
-31.6848
-41.6542
-32.3908
-27.0442
-32.9218
-33.299
-29.9068
-17.7463
-33.8967
-35.8839
-32.2902
-30.5941
-27.812
-35.3237
-36.4906
-30.7533
-32.9515
-35.4716
-31.8236
-34.8472
-36.5732
-54.9736
13.9272
-86.5734
-52.2167
-40.2404
-32.308
-30.5953
-27.8203
-35.3075
-32.9569
-35.4788
-36.585
-54.9658
-55.0386
-27.4039
-27.7046
-52.9857
-55.0895
-53.0364
-27.7117
-27.4049
-62.5716
-62.6326
-36.0092
-36.0128
-50.3209
3.93966
3.91146
-50.3228
188.073
151.709
151.692
188.096
-32.7939
-31.3274
-34.8463
-38.9926
-32.7946
-38.8696
-34.8506
-31.3328
-30.6664
-30.6652
-31.5134
-31.511
-75.9109
-47.5633
-47.5586
-75.8968
-35.01
-31.8762
-32.2884
-36.6451
-35.0175
-36.6458
-32.4656
-32.0947
-34.6151
-34.6395
-32.9059
-32.9184
-41.2396
-30.8956
-30.8797
-41.231
-27.3564
-27.0411
-27.0995
-27.3812
-59.3317
-26.5574
-62.8873
-35.3843
-30.9092
-35.0698
-35.1033
-61.616
-77.6629
-31.7006
-28.4644
-33.5781
-26.4771
-59.2146
-62.4317
-30.7124
-33.5055
-35.7356
-61.4825
-34.493
-77.7671
-28.2947
-32.0057
-33.8624
-27.9001
-30.6663
-30.314
-31.1236
-39.2935
-29.4214
-21.5108
-35.7194
-34.3354
-41.0103
-45.6491
-66.3294
-40.4631
-38.0513
-38.7258
-44.6356
-27.7572
-31.1191
-30.6541
-30.3057
-39.2805
-35.7333
-29.4166
-21.5324
-34.3378
-72.7702
-40.9869
-45.5835
-40.4547
-44.6397
-38.0472
-38.7337
-8.65095
-37.4957
-89.855
151.658
-98.6173
-98.6296
-88.5222
104.598
-41.5992
-39.317
-32.7681
-39.7018
-32.2813
-31.6551
-36.5228
-28.3505
-28.6062
-28.4616
-31.8843
-25.9328
-30.4382
-34.9599
-32.972
-33.2136
-78.9138
-79.3835
-78.5763
90.7237
-34.0586
-21.9421
-28.4655
-20.5617
-26.3778
-26.1802
-29.4594
-25.1606
-36.235
-38.9717
-34.9351
-36.5925
-8.87085
-38.0099
-89.89
151.764
-41.5742
-39.2978
-32.7552
-39.7392
-31.0936
-30.302
-36.9306
-28.1304
-30.5381
-34.999
-33.0777
-33.2353
-34.0693
-21.9461
-28.4757
-20.5731
-35.8944
-38.9883
-34.9643
-36.5945
-30.8857
-30.6076
-31.4228
-30.4252
-32.1521
-35.2415
-30.3227
-35.1462
-32.2706
-32.2964
-33.988
-31.285
-30.2896
-34.6071
-32.5627
-36.0112
-34.4067
-34.4073
-32.909
-35.8014
-42.1549
-38.5131
-38.4275
-46.591
25.2192
25.2932
34.8007
-98.7264
-50.242
-50.2434
-51.048
-50.0697
-30.8912
-30.6028
-31.4378
-30.4291
-32.1392
-35.2233
-30.3206
-35.1177
-30.2963
-34.6085
-32.568
-36.0118
-42.2906
-38.5101
-38.42
-46.5838
-39.2039
-31.3225
-30.4738
-29.5728
-39.2306
-31.3334
-30.4895
-29.5704
-50.2706
-43.0022
-43.0137
-39.9016
-29.2214
-15.1071
-15.1157
0.369812
172.827
198.156
184.671
172.97
-33.1848
-34.9011
-33.4728
-35.4208
-33.2051
-34.9605
-33.4808
-35.4448
-30.6924
-30.5849
-31.1128
-30.6932
-60.5829
-70.7991
-55.6306
-60.5811
-31.6146
-32.6782
-33.0594
-34.7188
-31.728
-32.7603
-33.1148
-34.7492
-32.8299
-33.3684
-33.3768
-33.9804
-33.6259
-35.858
-35.8582
-37.4424
-26.0314
-25.3013
-24.9918
-25.8026
-74.8678
188.259
-95.5503
118.323
-54.5588
-59.3962
-36.4881
-28.9628
-32.9316
-28.3484
-31.7448
-33.2178
-89.729
156.559
-87.1078
105.969
-51.0493
-49.9284
-34.7654
-28.6471
-29.24
-27.3714
-32.6617
-31.9219
-95.6494
126.143
-74.5792
188.38
-54.9236
-59.5169
-32.8503
-28.0848
-37.0678
-28.7386
-31.9761
-33.3011
-87.1325
106.111
-89.8108
156.693
-51.0847
-49.9862
-29.2011
-27.0957
-34.9921
-28.4086
-32.8446
-31.9149
-27.1244
-34.9652
-31.6983
-30.5443
-28.9966
-32.4048
-33.5516
-31.0748
-34.4867
-34.3521
-30.7871
-30.9383
-30.3472
-36.9235
-32.5912
-35.0344
-27.6767
-5.10336
-32.4577
-39.497
-41.3934
-56.3377
10.0275
-90.2091
-38.7854
-44.3247
-35.0904
-37.0394
-36.3298
-40.5802
-48.5176
-52.3436
-27.1215
-34.9579
-33.5474
-31.0723
-31.7006
-30.5437
-28.9938
-32.3905
-34.4936
-34.4086
-32.5949
-35.0213
-30.7938
-30.9419
-30.3553
-36.9256
-27.6825
-5.1203
9.97878
-90.1062
-32.4573
-39.4476
-41.0102
-56.3414
-38.7792
-44.308
-48.5142
-52.3197
-35.0979
-37.0304
-36.3343
-40.5826
-54.723
-54.0168
200.457
159.632
-64.4539
-64.4823
165.308
165.237
-39.7509
-34.619
-49.3048
-38.3804
-32.0307
-32.4809
-27.4031
-27.2383
-32.587
-32.6032
-25.6575
-25.3425
-35.011
-30.3652
-33.8778
-32.7551
-48.0864
-48.0831
162.204
162.068
-27.2651
-37.8289
-31.4871
-5.82485
-31.033
-31.0294
-25.8658
-26.1122
-32.677
-35.5154
-38.1737
-33.3541
-54.8274
-54.0769
159.734
200.524
-39.7495
-34.6027
-49.3464
-38.3828
-32.6788
-32.2092
-27.1894
-26.9457
-35.0212
-30.4751
-33.8949
-32.7679
-37.8493
-27.265
-5.84468
-31.5012
-35.5418
-32.7865
-33.3522
-38.1711
-32.6602
-31.8309
-30.5205
-30.9082
-27.7019
-27.58
-33.9781
-37.085
-36.4607
-36.4604
-30.7684
-30.7683
-32.1105
-33.9679
-35.2315
-36.0082
-31.7855
-31.784
-34.766
-34.7744
-35.4947
-37.971
-61.3733
-49.581
10.9009
10.8761
-86.3536
-86.3384
-51.2737
-51.2727
-40.4506
-40.4518
-32.6885
-31.8395
-30.5208
-30.9101
-27.5852
-27.7112
-33.9733
-37.0311
-33.9736
-32.1154
-35.2398
-36.0142
-38.1164
-35.499
-49.5785
-61.3695
-63.7202
-40.0358
-39.6651
-84.9789
-28.5671
-29.6387
-31.5304
-37.93
-34.662
-25.7149
-28.1943
-31.0596
-83.2817
-93.4874
-38.767
-36.3342
-62.7172
-84.9436
-39.6882
-39.9989
-83.3688
-36.3495
-38.7915
-93.5446
-34.6617
-31.0579
-28.1892
-25.7196
-28.5629
-37.9117
-31.4934
-29.6356
-92.0279
-98.4629
-50.8325
-46.8077
-92.1082
-46.8191
-50.8509
-98.4922
-32.1824
-33.9604
-39.8178
-34.9808
-32.1862
-34.97
-39.815
-33.961
-85.8836
-32.7838
-29.7906
-79.5488
-5.08494
25.7689
-1.48989
-12.5226
-5.12343
-12.5299
-1.50201
25.7315
-85.9199
-79.491
-29.7982
-32.7717
115.502
182.091
200.181
56.0094
128.395
112.37
177.262
162.617
128.525
162.789
177.055
116.562
115.561
56.4864
200.135
182.685
-31.3497
-31.6571
-33.7286
-33.6442
-29.6737
-31.3616
-32.6153
-31.1656
-37.145
-37.1055
-34.5253
-33.8332
-42.4499
-37.0873
-36.4382
-40.24
-31.3392
-33.624
-33.7687
-31.6767
-42.3918
-40.5389
-36.5565
-37.0468
-37.1498
-33.8352
-34.5328
-37.1046
-29.6821
-31.1753
-32.6233
-31.3683
-30.8424
-31.2675
-30.5919
-30.4048
-30.8383
-30.4074
-30.5923
-31.267
-31.7791
-32.8355
-31.0747
-30.5964
-31.7742
-30.5912
-31.0735
-32.8339
-66.864
-49.7521
-69.3093
-93.8954
-43.8632
-50.4193
-54.3656
-43.0368
-43.8649
-43.0256
-54.3638
-50.417
-66.8227
-93.9088
-69.3068
-49.8264
-39.3753
-35.3515
-34.7924
-36.2434
-35.635
-36.8308
-30.8675
-29.9474
-33.76
-33.1095
-32.3215
-35.8118
-39.2116
-36.3548
-34.9864
-37.1612
-39.3753
-36.2458
-34.822
-35.3166
-39.2453
-37.1809
-35.0141
-36.3523
-34.0337
-36.2096
-32.4341
-33.1883
-36.4773
-30.0626
-30.9823
-37.333
-33.6996
-35.7071
-33.9241
-33.7642
-33.6767
-33.8034
-33.9316
-35.7119
-33.9063
-32.113
-32.8025
-32.6226
-33.9575
-32.5791
-32.8015
-32.1735
-46.5833
-39.3426
-37.6835
-50.6562
-30.3871
-29.2582
-33.391
-34.1431
-30.3926
-34.1436
-33.3918
-29.2541
-46.568
-50.6634
-37.682
-39.3385
-30.6093
-26.7853
-26.23
-28.1136
-30.3958
-27.9396
-26.0398
-26.5473
-28.5936
-26.006
-25.7259
-28.1863
-28.7914
-28.4229
-25.9578
-26.2212
-67.6705
-20.866
-103.536
-36.5297
-30.584
-35.9512
-65.5793
-45.811
-125.536
-32.0773
-28.5055
-30.2922
-20.5965
-68.0003
-103.266
-30.576
-33.8461
-39.1765
-45.8434
-64.7197
-125.43
-28.1293
-33.1278
-30.9602
-29.1726
-30.2912
-30.0427
-30.222
-25.4908
-27.9446
-18.9241
-34.0681
-42.7418
-43.0271
-45.8829
-61.9999
-39.9731
-38.9681
-38.8531
-41.6834
-29.1397
-30.0424
-30.2829
-30.0359
-25.4958
-34.0686
-27.921
-18.9535
-42.7214
-61.9567
-43.0005
-45.84
-39.9713
-41.6994
-38.9676
-38.8589
-35.8952
-31.8705
-120.053
129.317
-120.01
-119.989
-124.472
34.3009
-37.8221
-34.0083
-33.6244
-37.9628
-32.5094
-31.5781
-39.2157
-28.3101
-28.0116
-27.9097
-31.2787
-26.5958
-29.4912
-39.2586
-32.5793
-32.7078
-117.617
-117.653
-118.151
21.5136
-29.4524
-23.4965
-27.4435
-22.3281
-25.8047
-25.6712
-28.0687
-25.3931
-35.4355
-37.0935
-35.5583
-37.8154
-29.5339
-32.9853
-119.91
129.489
-37.8172
-34.0073
-33.6122
-37.9844
-30.7541
-31.0778
-40.7034
-28.0815
-29.5706
-39.3704
-32.6724
-32.7453
-29.4595
-23.4994
-27.4512
-22.3359
-35.4151
-37.2011
-35.599
-37.8224
-30.8074
-30.7169
-30.992
-30.3174
-32.8181
-34.316
-32.0028
-34.6026
-32.3162
-32.316
-33.0516
-31.7257
-31.6419
-33.7677
-32.4587
-35.1832
-34.469
-34.4697
-33.6184
-35.6924
-40.9973
-39.2324
-39.2547
-42.8356
26.2479
26.217
45.2397
-42.6743
-50.2701
-50.2718
-50.6589
-50.172
-30.812
-30.7282
-31.0045
-30.1744
-32.8034
-34.2984
-31.9936
-34.5808
-31.6475
-33.7706
-32.4629
-35.1836
-40.9374
-39.2216
-39.2393
-42.8262
-34.5433
-31.3232
-30.871
-30.4376
-34.56
-31.3364
-30.8859
-30.461
-46.3373
-42.8524
-42.8579
-41.4195
-21.41
-14.039
-14.0442
-6.43341
180.726
197.366
186.959
180.826
-33.6753
-34.5529
-33.7929
-34.781
-33.6967
-34.5949
-33.8056
-34.804
-30.6979
-30.61
-30.8753
-30.6985
-61.6536
-66.1165
-58.3784
-61.6527
-31.5587
-32.6798
-32.8318
-34.2552
-31.6347
-32.7552
-32.8937
-34.3061
-33.1372
-33.4042
-33.4065
-33.645
-34.7937
-35.856
-35.8562
-37.0615
-25.2112
-25.1294
-25.0173
-25.0909
-51.3751
-5.06586
-106.159
161.747
-46.975
-83.592
-127.974
49.9743
-56.0671
-47.8465
-54.1136
-57.0083
-34.4487
-32.7187
-39.6913
-29.3351
-30.3412
-29.0921
-33.0291
-28.977
-33.4004
-31.0059
-31.7001
-33.2241
-38.3995
-40.7246
-136.912
135.948
-101.315
-57.9512
-119.321
32.7322
-58.264
-39.9899
-48.8482
-48.8093
-31.7186
-31.732
-37.3949
-29.0681
-27.8852
-26.8582
-28.4174
-27.3665
-32.1504
-33.726
-33.7317
-33.2599
-49.785
-82.9818
-127.997
56.3439
-51.8007
-5.37705
-105.702
161.794
-57.1786
-47.7801
-55.0985
-57.2376
-30.174
-28.7909
-32.8797
-28.761
-33.3895
-31.756
-39.8207
-29.2837
-33.6591
-31.1423
-31.9223
-33.3842
-101.202
-58.1781
-119.896
32.7351
-38.0249
-40.7556
-136.946
136.147
-58.2967
-40.0094
-48.8755
-48.8492
-27.6957
-26.6389
-28.3282
-27.0948
-30.8733
-31.173
-38.2355
-28.7811
-32.2528
-33.7616
-33.8585
-33.2737
-27.6282
-33.8063
-27.3358
-32.0701
-30.8898
-30.9589
-31.2285
-30.32
-30.6888
-31.5562
-30.0972
-31.8826
-31.7041
-32.141
-32.7704
-31.407
-34.2107
-33.541
-34.2403
-34.3428
-30.0669
-30.4843
-30.5268
-30.2827
-23.9952
-28.4351
-29.0165
-34.3903
-35.0427
-34.3069
-33.3813
-35.0187
-27.8011
-21.1311
-26.6504
-12.9156
-39.1697
-36.3694
-35.4569
-38.9742
-45.0108
-43.4521
-42.7185
-49.3188
-7.38789
21.2223
18.0315
-28.7331
-40.7294
-39.9795
-40.4431
-45.9345
-36.9462
-35.2817
-35.3842
-36.7386
-38.0835
-37.9424
-36.8959
-38.5395
-46.8066
-50.1112
-48.9148
-50.8727
-27.6414
-33.7915
-27.3321
-32.0677
-31.699
-32.1391
-32.7666
-31.4039
-30.8833
-30.9685
-31.2315
-30.2626
-30.6795
-31.5449
-30.0907
-31.8693
-34.227
-33.5396
-34.2422
-34.3703
-35.0929
-34.3067
-33.3868
-34.9914
-30.067
-30.4716
-30.5316
-30.2873
-24.011
-28.4434
-29.0248
-34.392
-27.798
-21.1362
-26.6621
-12.9286
-7.61457
21.3991
17.9694
-28.9886
-39.1483
-36.3504
-35.4471
-38.9421
-44.8642
-44.5686
-42.4087
-49.3475
-40.6832
-39.9743
-40.447
-45.8556
-46.8053
-50.1118
-48.9181
-50.8779
-36.9424
-35.2811
-35.3874
-36.7324
-38.0941
-37.9482
-36.9032
-38.5646
-66.8494
-45.8266
-54.7851
-54.2151
155.848
167.457
188.513
157.767
-72.2187
-55.8694
-63.5764
-63.5878
150.575
195.158
179.069
178.865
-32.2252
-31.4027
-35.3027
-31.6153
-40.7642
-42.6794
-44.9925
-40.0371
-33.6272
-31.7013
-32.0605
-32.3133
-27.8165
-26.7319
-27.3927
-27.3006
-32.3957
-32.6928
-32.5128
-32.5219
-25.2362
-25.419
-25.5633
-25.498
-32.6017
-32.8177
-36.9563
-30.0106
-33.2712
-33.3258
-33.5365
-33.0214
-60.3021
-37.5579
-47.4887
-47.4883
139.674
179.374
172.14
172.078
-29.3646
-30.0933
-28.1659
-33.4034
-19.2698
-16.3656
-24.3061
-11.9593
-30.204
-32.4042
-31.1723
-31.1716
-25.0014
-24.9806
-25.2643
-25.3892
-34.3938
-33.4224
-33.1246
-34.7624
-36.0788
-35.8498
-37.1914
-34.5435
-66.995
-45.871
-54.8825
-54.2828
155.953
166.92
157.869
188.96
-32.2159
-31.4084
-35.3039
-31.6087
-40.7897
-42.6943
-45.0239
-40.0432
-33.8318
-31.8503
-32.4952
-32.2221
-27.581
-26.4575
-27.1205
-27.0077
-32.7025
-32.905
-37.0261
-30.1004
-33.286
-33.3346
-33.5447
-33.037
-29.3777
-30.1099
-33.4171
-28.1712
-19.2848
-16.3794
-11.9766
-24.3214
-34.4289
-33.4721
-34.7951
-33.1919
-36.0789
-35.8502
-34.5439
-37.1905
-31.8865
-32.6988
-32.5025
-32.0623
-30.5134
-30.6547
-30.5268
-30.7219
-28.7776
-28.1987
-27.8158
-27.7102
-35.3631
-35.1531
-34.6444
-36.1687
-35.1277
-38.0524
-36.5419
-36.5413
-30.9653
-30.6303
-30.766
-30.766
-32.7526
-33.1761
-32.5292
-33.4612
-35.8661
-35.0719
-35.3369
-35.7341
-32.3158
-31.4265
-31.8091
-31.8084
-35.1515
-34.5014
-34.8086
-34.8126
-37.4379
-35.9463
-36.0432
-37.2231
-51.1433
-58.5999
-59.0164
-51.7116
19.4609
7.1005
13.049
13.0387
-101.941
-77.4148
-86.9065
-86.9037
-51.439
-53.6085
-51.9898
-51.9907
-45.6056
-38.1026
-40.2706
-40.2711
-31.9036
-32.7174
-32.5277
-32.0745
-30.5153
-30.6559
-30.5275
-30.7237
-28.7788
-28.1929
-27.7173
-27.8253
-35.3318
-35.192
-34.6344
-36.1365
-32.7573
-33.1817
-33.4667
-32.5344
-35.8699
-35.0884
-35.3446
-35.7408
-37.4419
-35.9657
-37.2573
-36.0494
-51.1364
-58.5979
-51.7087
-59.0092
-65.7197
-54.931
-54.842
-45.8585
-27.2013
-27.9925
-30.0061
-27.6244
-27.9407
-29.6375
-26.8436
-27.5124
-65.7291
-52.1842
-53.6597
-44.4943
-66.1819
-55.0334
-54.9247
-45.8446
-65.7879
-52.2271
-53.715
-44.5272
-27.9475
-29.6423
-26.8484
-27.5185
-27.2
-27.9916
-30.0062
-27.6299
-73.515
-61.0782
-64.0638
-55.3117
-73.5936
-61.1634
-64.1085
-55.3654
-35.6644
-34.6742
-37.4327
-36.2783
-35.6706
-34.6786
-37.4356
-36.2792
-65.3003
-50.8252
-49.2126
-39.8366
-0.17091
7.27823
-0.63652
7.6542
-0.195753
7.24875
-0.660969
7.62764
-65.3182
-50.8629
-49.2148
-39.8334
175.349
168.032
198.582
165.113
152.381
137.19
157.62
151.7
137.276
152.467
151.562
157.719
167.943
175.428
160.994
198.545
-32.2495
-32.6647
-32.7387
-33.3235
-31.0558
-30.9437
-31.5951
-31.677
-34.9236
-35.5444
-34.3939
-35.0896
-39.3708
-40.1162
-37.9742
-38.5891
-32.2513
-32.6544
-32.7565
-33.3224
-39.2798
-39.8952
-37.8901
-38.5844
-34.9253
-35.5487
-34.3989
-35.0941
-31.0622
-30.9496
-31.6013
-31.6817
-30.5949
-30.8286
-30.5655
-30.7213
-30.8267
-30.5935
-30.7208
-30.5652
-31.9815
-31.2822
-31.667
-31.1665
-31.2793
-31.9786
-31.1643
-31.665
-65.6104
-86.3662
-66.6882
-82.5096
-42.9607
-48.5386
-48.1614
-49.9671
-48.5319
-42.949
-49.9648
-48.1591
-86.3495
-65.597
-82.4958
-66.6817
-34.7958
-35.7818
-34.7498
-35.126
-33.6797
-31.8112
-31.988
-30.906
-33.0134
-32.1961
-32.3919
-32.303
-37.5748
-36.9302
-36.1189
-36.3124
-34.8028
-35.7893
-34.7627
-35.1343
-37.5733
-36.925
-36.1303
-36.3159
-33.2269
-32.3572
-32.5737
-32.4404
-34.026
-32.0402
-32.202
-31.0688
-34.425
-34.784
-34.3835
-34.7042
-34.4846
-34.8155
-34.3979
-34.7195
-33.2088
-33.0837
-32.7304
-32.8404
-33.2501
-33.073
-32.7489
-32.8351
-41.9869
-46.2062
-39.0323
-40.7618
-30.0853
-31.1946
-30.8849
-32.1279
-30.0563
-31.1755
-30.8789
-32.1224
-41.9828
-46.2432
-39.0291
-40.7585
-28.1739
-27.7591
-27.173
-26.6938
-27.4744
-27.9428
-26.4076
-26.8038
-27.0976
-27.7248
-26.594
-26.985
-27.9599
-27.3763
-27.3251
-26.8316
-105.057
107.311
-125.786
47.496
-61.8857
-79.882
-39.4059
-31.1441
-34.9252
-30.7671
-34.9862
-34.708
-131.738
115.415
-125.694
20.6674
-79.9942
-82.0984
-34.9973
-29.6389
-30.0632
-28.6208
-33.5121
-30.8447
-125.913
47.4749
-104.632
107.462
-61.0424
-79.8319
-34.805
-30.5616
-40.7596
-31.0237
-35.8071
-34.7796
-125.907
20.7743
-131.639
115.531
-80.0995
-82.1758
-30.1406
-28.4539
-37.4545
-29.5764
-33.8653
-30.9457
-28.4045
-29.7071
-30.9238
-30.5057
-29.4926
-30.8819
-31.2816
-31.0865
-40.2113
-34.3816
-29.4267
-30.5106
-27.9564
-27.5882
-32.7607
-34.8215
-34.3559
-25.635
-38.433
-42.2768
-44.1838
-53.7121
-15.2692
-77.0851
-40.1632
-42.949
-37.3135
-38.6283
-37.9916
-41.0279
-44.2356
-45.2673
-28.3932
-29.7047
-31.2782
-31.081
-30.9144
-30.4586
-29.4862
-30.8711
-40.2031
-34.3681
-32.7667
-34.7873
-29.4337
-30.5193
-27.9667
-27.5988
-34.3566
-25.6908
-15.3659
-76.9039
-38.421
-42.2415
-44.1209
-53.6583
-40.184
-42.9536
-44.2584
-45.2326
-37.3132
-38.6227
-37.9973
-41.0529
-110.156
142.251
-132.094
136.451
-88.5731
-91.7063
151.58
157.397
-134.598
-17.3029
-134.158
-17.1551
-91.0214
-91.0327
101.161
101.177
-40.3387
-44.4877
-39.4868
-33.9286
-35.8414
-32.1469
-42.9238
-37.4735
-39.3218
-28.1302
-39.0205
-28.6233
-36.7499
-36.249
-28.3099
-28.3784
-31.7802
-27.6893
-31.6709
-27.4921
-31.9059
-31.9393
-26.149
-26.0138
-29.8431
-32.066
-35.2281
-34.1746
-39.7179
-29.1021
-33.6916
-32.7375
-117.287
22.577
-117.281
24.8645
-78.4239
-78.4117
105.608
106.588
-35.3933
-32.8741
-23.9429
-16.572
-26.7259
-32.2146
-26.2261
-15.661
-27.8784
-26.3032
-28.0407
-26.0971
-29.3271
-29.3273
-25.4649
-25.5941
-34.6143
-35.5626
-38.1959
-40.1904
-33.9973
-36.1767
-37.971
-35.3373
-109.63
142.395
-132.037
136.621
-88.5715
-91.754
157.562
151.037
-40.2911
-44.5018
-39.4599
-33.9458
-35.8258
-32.1382
-42.9914
-37.4849
-39.6891
-28.0354
-38.8663
-28.1991
-36.5745
-37.2438
-28.1508
-28.1525
-29.9537
-32.1338
-35.2046
-34.2319
-39.6876
-29.1857
-33.7072
-32.7752
-35.4057
-32.8753
-23.9481
-16.5765
-32.2258
-26.7316
-15.6715
-26.2348
-34.619
-35.5706
-38.2088
-40.194
-36.1961
-34.0451
-35.3399
-37.9714
-31.1793
-30.3032
-30.8351
-30.6691
-31.5662
-31.3276
-30.3849
-30.484
-30.9313
-33.0898
-33.3348
-36.5078
-29.9931
-30.6075
-34.3783
-36.0778
-33.0139
-31.6784
-33.0133
-31.6777
-33.9888
-33.9889
-31.2793
-31.2792
-30.7635
-34.9214
-33.9773
-35.781
-31.8862
-33.1811
-36.0745
-36.1744
-33.5965
-35.6424
-33.5978
-35.6435
-32.8744
-32.8737
-35.7811
-35.7837
-41.2745
-45.6811
-37.8283
-40.5714
-37.7259
-39.1895
-48.0695
-44.4463
37.1386
-28.9486
37.2172
-28.6912
31.8775
31.7991
-100.057
-100.044
-50.2731
-50.353
-50.2745
-50.3592
-50.9098
-50.9088
-50.1471
-50.1505
-31.1949
-30.1947
-30.8421
-30.8059
-31.5857
-31.3396
-30.3885
-30.4884
-30.9234
-33.0724
-33.3252
-36.4806
-30.6055
-29.9905
-34.3543
-36.0439
-30.7692
-34.9229
-33.9818
-35.7769
-33.1866
-31.8923
-36.0762
-36.1734
-41.437
-45.724
-37.8258
-40.5739
-39.1864
-37.7227
-44.4331
-48.0808
-39.5139
-38.9909
-35.0284
-31.4394
-29.1885
-34.002
-30.5193
-28.7896
-39.5405
-39.0174
-35.0415
-31.4716
-34.0178
-29.1917
-28.7836
-30.5223
-50.5803
-50.5918
-46.6317
-41.4842
-46.6492
-41.4898
-39.895
-39.8931
-29.2871
-29.2916
-22.2615
-8.21777
-8.22741
-22.2699
-0.161973
-0.168782
191.392