# vtk DataFile Version 2.0
tri_press
ASCII
DATASET UNSTRUCTURED_GRID
POINTS 3682 float
-0.659241 0.025 -1.795
-0.895 0.225 1.76431
-0.635 0.415 -1.72904
-0.875 0.615651 1.765
0.659241 0.025 -1.795
0.895 0.225 1.76431
0.635 0.415 -1.72904
0.875 0.615651 1.765
-0.806077 0.0234165 -0.608563
-0.814874 0.159873 0.577873
-0.720876 0.48776 -0.56436
-0.789091 0.542858 0.60032
0.806078 0.0234155 -0.608563
0.814884 0.159863 0.577873
0.720873 0.487757 -0.56436
0.789104 0.542871 0.60032
-1.4162 -0.242809 -2.75606
-1.42471 -0.207705 -1.81562
-1.54399 -0.173807 -0.628622
-1.62211 -0.059972 0.562756
-1.68728 0.0276996 1.75012
-1.70036 0.0830619 2.69237
-1.6909 0.137382 3.63126
-1.40326 -0.0286723 -2.7309
-1.40215 0.0142354 -1.79284
-1.54644 0.035815 -0.610073
-1.62911 0.145029 0.574651
-1.71523 0.22619 1.75783
-1.71998 0.281207 2.69977
-1.70178 0.336438 3.63938
-1.39091 0.380629 -2.67448
-1.37287 0.425724 -1.73552
-1.48757 0.478098 -0.567583
-1.6007 0.541943 0.59881
-1.69678 0.617692 1.76716
-1.70882 0.674727 2.71
-1.69491 0.732296 3.65311
-1.42815 0.997064 -2.6062
-1.43049 1.04468 -1.6705
-1.47677 1.1036 -0.509619
-1.54146 1.15824 0.646572
-1.59577 1.2192 1.80768
-1.62345 1.27418 2.74385
-1.63585 1.33162 3.68459
-0.695024 -0.238074 -2.75746
-0.673216 -0.203244 -1.81767
-0.770462 -0.180996 -0.628347
-0.807442 -0.0510148 0.565507
-0.848223 0.030249 1.75493
-0.861169 0.0844474 2.69563
-0.857028 0.13857 3.63315
-0.695628 -0.02437 -2.73133
-0.880137 0.281363 2.70246
-0.866368 0.337039 3.6408
-0.688931 0.379005 -2.67178
-0.872212 0.673795 2.70956
-0.861854 0.73202 3.65302
-0.701864 0.996962 -2.60354
-0.693518 1.04504 -1.66757
-0.715837 1.10565 -0.507852
-0.750919 1.15863 0.64636
-0.782744 1.21799 1.80617
-0.804237 1.27309 2.74234
-0.816462 1.33094 3.6835
0.700295 -0.238074 -2.75746
0.734658 -0.203245 -1.81767
0.805772 -0.180997 -0.628347
0.826406 -0.051021 0.565507
0.878214 0.0302468 1.75493
0.853435 0.0844461 2.69563
0.830094 0.138569 3.63315
0.665375 -0.0243702 -2.73133
0.85288 0.281362 2.70246
0.828557 0.337038 3.6408
0.652174 0.379005 -2.67178
0.846837 0.673795 2.70956
0.826949 0.73202 3.65302
0.723243 0.996962 -2.60354
0.74433 1.04504 -1.66757
0.779474 1.10565 -0.507852
0.817934 1.15863 0.64636
0.843236 1.21799 1.80617
0.840564 1.2731 2.74234
0.829403 1.33094 3.6835
1.41545 -0.242809 -2.75606
1.45071 -0.207706 -1.81562
1.55943 -0.173809 -0.628622
1.6287 -0.0599789 0.562756
1.69602 0.0276948 1.75012
1.68905 0.0830592 2.69237
1.66425 0.13738 3.63126
1.37573 -0.0286728 -2.7309
1.39271 0.0142345 -1.79284
1.53948 0.0358141 -0.610073
1.62202 0.145024 0.574651
1.70585 0.226186 1.75783
1.69459 0.281205 2.69977
1.66613 0.336437 3.63938
1.35649 0.380629 -2.67447
1.35965 0.425723 -1.73552
1.48061 0.478098 -0.567583
1.59588 0.541952 0.59881
1.68897 0.617693 1.76716
1.68583 0.674727 2.71
1.66233 0.732295 3.65311
1.44323 0.997064 -2.6062
1.46922 1.04468 -1.6705
1.52797 1.1036 -0.509619
1.59618 1.15825 0.646572
1.64454 1.21921 1.80768
1.6536 1.27419 2.74385
1.64651 1.33162 3.68459
-0.659928 0.22 -1.77483
0 0.0264193 -1.79358
-0.733852 0.0230158 -1.20178
-0.875598 0.420326 1.75525
0 0.129265 1.86005
-0.840982 0.206391 1.17109
0 0.476858 -1.7909
-0.855142 0.628584 -1.1467
0 0.654824 1.80417
-0.875778 0.622987 1.18266
0.659968 0.22 -1.77487
0.733853 0.0230148 -1.20178
0.875577 0.420326 1.75523
0.840855 0.206519 1.17109
0.855145 0.628587 -1.1467
0.875753 0.622963 1.18266
-0.878727 0.0233931 -0.015345
-0.77087 0.255588 -0.586462
4.95225e-07 0.0208225 -0.608563
-0.824944 0.351366 0.589097
4.85076e-06 0.0209352 0.577873
-0.725738 0.486064 0.01798
-1.21271e-06 0.73295 -0.56436
6.38525e-06 0.951043 0.60032
0.878767 0.0233532 -0.015345
0.77102 0.255586 -0.586462
0.824941 0.351367 0.589097
0.725733 0.486059 0.01798
-0.869895 0.237794 -1.17424
0.869895 0.237793 -1.17424
2.47613e-07 0.0207346 -1.20178
-6.06355e-07 0.600914 -1.1467
0 0.22 -1.87333
-0.743963 0.303477 0.0013175
0.743964 0.303477 0.0013175
2.67299e-06 0.0208557 -0.015345
2.58627e-06 0.944388 0.01798
-0.898484 0.385846 1.17688
0.898484 0.385846 1.17688
2.42538e-06 0.12685 1.17109
3.19262e-06 0.773041 1.18266
0 0.420326 1.92209
-0.655322 0.1225 -1.78065
-0.329621 0.026894 -1.79311
-0.697558 0.0229965 -1.49839
-0.886448 0.322663 1.76093
-0.4475 0.133299 1.85601
-0.864819 0.218868 1.4677
-0.645826 0.3175 -1.7503
-0.3175 0.464326 -1.77837
-0.715103 0.491823 -1.43787
-0.867006 0.517988 1.75183
-0.4375 0.646085 1.79543
-0.872655 0.616585 1.47383
0.329621 0.026892 -1.79311
0.655332 0.1225 -1.78066
0.697557 0.0229975 -1.49839
0.4475 0.133301 1.85601
0.886449 0.322663 1.76093
0.864851 0.218836 1.4677
0.3175 0.464303 -1.77834
0.645684 0.3175 -1.75015
0.715027 0.491748 -1.43787
0.4375 0.646077 1.79543
0.866972 0.517988 1.7518
0.872656 0.616586 1.47383
-0.769964 0.0232165 -0.905173
-0.842255 0.0235525 -0.311954
-0.883482 0.0919983 -0.597513
-0.402988 0.0222207 -0.608563
-0.816406 0.194654 0.874483
-0.891763 0.0466703 0.281264
-0.824043 0.253552 0.583485
-0.441364 0.0225454 0.577873
-0.827011 0.597174 -0.85553
-0.754037 0.375756 -0.575411
-0.72314 0.486745 -0.27319
-0.401881 0.69324 -0.56436
-0.843662 0.594151 0.89149
-0.818578 0.452892 0.594708
-0.728058 0.485104 0.30915
-0.474101 0.906067 0.60032
0.769966 0.0232148 -0.905173
0.402989 0.0222207 -0.608563
0.842256 0.0235514 -0.311954
0.883487 0.0920323 -0.597513
0.816405 0.194655 0.874483
0.441371 0.022545 0.577873
0.891743 0.0466906 0.281264
0.824042 0.25355 0.583485
0.827011 0.597173 -0.85553
0.401878 0.693236 -0.56436
0.753989 0.375693 -0.575411
0.72314 0.486744 -0.27319
0.843629 0.594118 0.89149
0.474111 0.906068 0.60032
0.81859 0.452903 0.594708
0.728053 0.4851 0.30915
-0.830811 0.228897 -1.47453
-0.329964 0.22 -1.87762
1.23806e-07 0.0208109 -1.49768
0 0.12321 -1.87357
-0.871343 0.130405 -1.18801
-0.366926 0.0207395 -1.20178
-0.897956 0.403086 1.46606
-0.437799 0.420326 1.89767
1.21269e-06 0.1068 1.51557
0 0.274795 1.96864
-0.899758 0.296119 1.17398
-0.42049 0.126848 1.17109
-3.03177e-07 0.552739 -1.4688
0 0.348429 -1.91312
-0.868177 0.433189 -1.16047
-0.427571 0.571884 -1.1467
1.59631e-06 0.626752 1.49342
0 0.537575 1.90738
-0.896798 0.504416 1.17977
-0.437887 0.737828 1.18266
0.830225 0.228897 -1.47455
0.329984 0.22 -1.87759
0.871356 0.130404 -1.18801
0.366926 0.0207395 -1.20178
0.897957 0.403086 1.46605
0.437789 0.420326 1.89774
0.899757 0.296182 1.17398
0.420429 0.126848 1.17109
0.868142 0.43319 -1.16047
0.427572 0.570462 -1.1467
0.896798 0.504404 1.17977
0.437878 0.738005 1.18266
-0.740226 0.198995 -0.00701374
-0.439222 0.0224043 -0.015345
-0.871479 0.246691 -0.880351
-0.744902 0.279532 -0.292572
3.71419e-07 0.0207746 -0.905173
1.58411e-06 0.0208458 -0.311954
-0.742751 0.327421 0.295207
-0.898322 0.368606 0.882986
3.76187e-06 0.020897 0.281264
3.63807e-06 0.0340378 0.874483
-0.739986 0.397338 0.00964874
-0.464916 0.919321 0.01798
-9.09532e-07 0.596364 -0.85553
6.8678e-07 0.886059 -0.27319
4.48576e-06 0.957865 0.30915
4.78894e-06 0.878713 0.89149
0.740225 0.198986 -0.00701374
0.439235 0.0224037 -0.015345
0.87148 0.24669 -0.880351
0.744902 0.279532 -0.292572
0.742754 0.327422 0.295207
0.898322 0.368607 0.882986
0.739978 0.397332 0.00964874
0.464898 0.919284 0.01798
-0.809083 0.126452 -1.48646
-0.875243 0.134954 -0.892762
-0.870143 0.402431 -0.867941
-0.834558 0.375344 -1.4562
0.809025 0.126452 -1.48647
0.834683 0.375345 -1.45621
0.870117 0.402431 -0.867941
0.875244 0.134952 -0.892762
-0.348273 0.0208173 -1.49804
0.348273 0.0208166 -1.49804
0.384983 0.020779 -0.905173
-0.384982 0.020779 -0.905173
-0.372536 0.533535 -1.45333
-0.394005 0.609132 -0.85553
0.394004 0.609131 -0.85553
0.372536 0.533475 -1.45333
-0.329792 0.122855 -1.87759
-0.323732 0.332965 -1.93022
0.323742 0.332965 -1.93027
0.329802 0.122855 -1.87746
-0.738494 0.182176 -0.302263
-0.745663 0.244509 0.288236
-0.74022 0.405584 0.302179
-0.739973 0.383028 -0.282881
0.738496 0.182189 -0.302263
0.739967 0.383004 -0.282881
0.740212 0.405582 0.302179
0.745661 0.244504 0.288236
-0.421105 0.0223124 -0.311954
0.421112 0.0223126 -0.311954
0.440305 0.0224712 0.281264
-0.440295 0.0224719 0.281264
-0.451306 0.842097 -0.27319
-0.47245 0.918578 0.30915
0.47247 0.918607 0.30915
0.451292 0.842069 -0.27319
-0.899765 0.275869 0.878734
-0.899343 0.309391 1.46688
-0.896348 0.511202 1.46995
-0.896659 0.475764 0.887238
0.899764 0.275899 0.878734
0.896659 0.475762 0.887238
0.896349 0.511196 1.46994
0.899343 0.309423 1.46688
-0.413962 0.0340376 0.874483
0.413936 0.0340377 0.874483
0.433964 0.106349 1.49163
-0.433995 0.106349 1.49163
-0.416215 0.859042 0.89149
-0.437694 0.66538 1.48362
0.437689 0.665377 1.48362
0.416217 0.859051 0.89149
-0.442649 0.298729 1.94162
0.442644 0.298729 1.94162
0.437644 0.527782 1.87602
-0.437649 0.527782 1.87598
-0.653003 0.07375 -1.78355
-0.494431 0.0282848 -1.79172
-0.679285 0.0231122 -1.6467
-0.885413 0.273831 1.75731
-0.67125 0.212077 1.77723
-0.879663 0.22218 1.61601
-0.640402 0.36625 -1.73966
-0.47625 0.440694 -1.75473
-0.67635 0.454711 -1.58346
-0.864234 0.56682 1.75165
-0.65625 0.61833 1.76768
-0.873812 0.616102 1.61941
0.494431 0.0282779 -1.79172
0.653012 0.07375 -1.78356
0.679285 0.0231125 -1.6467
0.67125 0.2125 1.77681
0.88542 0.273831 1.75732
0.879897 0.221947 1.61601
0.47625 0.440694 -1.75473
0.640454 0.36625 -1.73971
0.676332 0.454692 -1.58346
0.65625 0.617951 1.7673
0.864227 0.56682 1.75164
0.873814 0.616105 1.61941
-0.788013 0.0233242 -0.756868
-0.824166 0.0234844 -0.460259
-0.862211 0.0489919 -0.603038
-0.604497 0.0228898 -0.608563
-0.885694 0.10721 0.726178
-0.892052 0.0645387 0.429569
-0.819616 0.206634 0.580679
-0.662158 0.0231306 0.577873
-0.827212 0.595735 -0.709945
-0.733937 0.429998 -0.569886
-0.722013 0.487257 -0.418775
-0.594059 0.655861 -0.56436
-0.823419 0.575547 0.745905
-0.81241 0.502163 0.597514
-0.728832 0.484239 0.454735
-0.614826 0.690924 0.60032
0.788015 0.0233222 -0.756868
0.604498 0.0228898 -0.608563
0.824166 0.0234844 -0.460259
0.86221 0.0490103 -0.603038
0.88569 0.107214 0.726178
0.662165 0.02313 0.577873
0.892184 0.0644059 0.429569
[...]
POINT_DATA 3682
SCALARS point_scalars float 1
LOOKUP_TABLE default
-35.1919
-41.7229
-5.25501
-41.0574
-33.6497
-41.7073
-5.39288
-40.991
-40.5262
-17.6148
-46.4252
-32.8112
-42.1398
-17.4449
-46.1816
-33.1834
-22.9003
-75.9268
-42.4643
-26.7749
-39.3685
-40.7792
-33.9927
8.91791
-62.8094
-49.5684
-37.6687
-41.3607
-40.7792
-33.9516
51.3675
-44.2734
-55.7621
-27.1517
-43.3017
-40.143
-32.896
16.6417
-65.8214
-53.3085
-42.2623
-42.4172
-42.0664
-40.143
46.4614
-65.7029
-39.13
-23.0558
-39.2917
-32.9791
-32.5092
46.4614
-32.9002
-31.063
153.358
-31.438
-30.4677
96.9167
-9.52217
-51.9538
-52.5281
-38.7784
-31.9208
-30.332
46.7968
-54.3369
-41.4455
-24.0021
-40.3977
-32.8629
-31.7296
46.7968
-32.1232
-30.8883
152.651
-31.3841
-30.4119
91.4018
-1.4781
-53.4984
-52.1299
-43.9103
-31.8186
-30.2848
-22.831
-85.0369
-45.1709
-26.7007
-39.3731
-40.7601
-33.8861
9.6435
-61.4507
-49.9283
-37.5694
-41.3833
-40.7601
-33.8734
51.2105
-39.4261
-55.5456
-27.0716
-43.2595
-40.0896
-32.8334
16.6766
-74.0929
-53.1459
-42.3008
-42.3494
-44.5728
-40.0896
28.6594
-149.2
-56.5398
-40.271
-31.0307
-34.7567
-17.7847
-88.7253
-29.7034
-41.4945
28.5601
-56.6041
-40.2337
-34.6605
-88.7134
-41.4713
-25.057
-44.8725
-39.8838
-3.64101
-38.484
-32.8437
21.2166
-61.9481
-15.7142
-44.5303
-3.89458
-32.8987
-73.5115
-73.5889
-56.5286
-20.9625
174.484
-25.4747
-25.6016
-34.9962
-83.8309
-37.9299
-37.8542
-34.5457
-39.5141
-23.9227
25.1594
-150.013
-74.035
-42.9307
-33.8869
-40.6393
19.0399
-21.2742
9.33252
-40.4911
-31.2199
-37.8891
-150.247
25.2406
-74.0689
-33.8437
-42.9033
-40.6214
-21.3919
19.0667
9.5035
-31.1685
-40.4381
-37.8371
-44.024
-29.8371
-49.588
-38.874
-46.0237
-24.8069
-7.00208
-37.5371
-46.6582
-44.1389
-37.4221
4.19693
-45.2859
-6.6391
-27.7191
-54.2694
-44.1882
-38.8554
-29.6679
-49.9599
-46.0335
-37.5469
-24.8376
-6.9376
-46.6132
4.10981
-43.849
-37.2953
-45.3139
-54.1674
-7.14316
-27.885
-35.3626
184.608
-78.7989
177.777
-70.0736
-54.7439
-37.1393
-29.4426
-32.0679
-24.0943
-37.2256
-35.1218
-25.9069
185.914
-77.6026
-33.242
-34.4833
-26.2362
-38.3922
-41.1939
-35.4601
184.187
-70.1549
-54.6794
-37.0974
-29.3729
-37.153
-35.1051
-77.6454
-32.9241
-38.3199
-41.1876
-24.1031
-33.3487
-54.489
-32.7988
-45.2992
-36.4681
-19.572
-44.1479
-35.6963
-44.1342
-27.6908
-72.2003
-0.302807
-35.6709
-71.3063
-48.8462
-24.0744
-33.2704
-54.6206
-32.5811
-19.7738
-44.0544
-27.8209
-71.9799
-27.5029
-52.4639
-53.9981
-44.9548
-27.7232
-45.0277
-54.0062
-52.6534
-75.5048
-75.2256
-44.3211
-44.3333
-25.5612
-17.2575
-17.0417
-25.4078
167.21
152.017
151.148
166.772
-32.1748
-18.7909
-21.6892
-33.7821
-31.7875
-33.6418
-21.9073
-18.941
-34.9475
-34.8862
-34.3304
-34.3498
-42.6386
-56.5977
-56.6095
-42.9321
-45.9865
-37.3659
-36.3184
-42.9876
-45.9281
-42.9037
-36.2517
-37.3345
-44.0661
-44.1228
-36.5725
-36.576
-49.9265
-35.9146
-35.9018
-49.9039
-29.784
-29.7056
-29.6084
-29.6847
3.97231
-131.736
-94.325
-42.9775
-34.5195
-37.0715
15.7314
-27.5291
3.47546
-40.7915
-35.5991
-38.5141
-131.456
4.59191
-94.4574
-34.5173
-42.9544
-37.0735
-27.4219
15.6283
3.47471
-35.5052
-40.7334
-38.4696
-42.7266
-40.3696
-42.822
-38.0059
-44.7512
-26.51
-11.4472
-35.429
-43.0728
-44.2866
-41.2534
-38.4595
-49.173
-14.5619
-23.9017
-44.4778
-43.4191
-38.067
-39.0553
-47.3141
-44.716
-35.4333
-26.5168
-11.3019
-42.9554
-38.237
-44.0292
-41.0286
-49.3009
-44.5144
-14.9701
-24.1593
26.3824
33.1276
-9.39984
140.193
-163.087
-153.37
-99.1795
130.147
-65.3871
-49.1529
-67.6885
-54.078
-41.3925
-39.8074
-40.1552
-32.5947
-32.1819
-32.1396
-31.7499
-27.5491
-36.6817
-37.0173
-36.3925
-34.6642
-9.90925
-9.92163
-18.2932
73.3181
-24.4418
-69.8153
-88.0214
-65.8404
-30.0279
-29.9989
-32.2471
-27.6039
-40.2742
-43.276
-38.1751
-43.4567
26.3006
33.053
-9.40996
139.985
-65.4322
-49.2564
-67.7711
-54.1093
-41.3548
-39.7699
-40.1275
-32.5255
-36.6346
-36.9306
-36.3115
-34.6459
-24.5459
-69.793
-88.0505
-65.7621
-40.2538
-43.2631
-38.1138
-43.4318
-23.8145
-26.7111
-24.502
-31.0471
-48.142
-44.2223
-54.053
-39.338
-39.562
-39.659
-42.2766
-38.012
-4.26596
-4.35646
-13.4925
-32.6836
-38.3973
-38.3466
-36.8306
-40.8679
-34.8813
-30.523
-29.8426
-45.3639
17.4684
17.4231
13.0131
5.243
-60.8153
-60.7961
-65.0482
-57.6967
-23.9658
-26.8674
-24.4147
-30.7887
-47.839
-43.8894
-54.2134
-38.9665
-4.37443
-4.75456
-13.7345
-32.5394
-34.862
-30.6249
-29.9417
-45.321
-106.288
-72.0831
-75.5483
-60.4447
-106.422
-72.164
-75.6035
-60.5342
-65.3821
-55.986
-55.8906
-49.6711
-27.6434
-23.0932
-23.0286
-12.3344
174.411
178.258
192.027
171.455
-24.5981
-28.3128
-22.9803
-26.4012
-24.66
-28.326
-23.1612
-26.5406
-34.6472
-35.4999
-35.1865
-34.6314
-82.2544
-92.7939
-75.4949
-82.2624
-37.1039
-37.6896
-38.2279
-40.0302
-37.0483
-37.6163
-38.1528
-39.9385
-32.8237
-34.551
-34.5413
-39.0507
-36.4589
-39.706
-39.704
-43.4488
-25.885
-22.8214
-24.6317
-25.7612
-25.2238
113.196
-96.2693
32.6759
-43.2042
-71.3843
-39.47
-33.1578
-32.9867
-31.5872
-37.5986
-40.3248
20.7418
100.272
-21.221
66.1618
-18.1536
-8.36017
-40.8591
-32.804
-33.5275
-29.9429
-36.0593
-37.6462
-95.9157
34.2366
-25.1497
113.189
-43.2648
-71.3984
-32.9623
-31.5116
-39.4554
-33.0879
-37.5696
-40.3169
-21.2015
65.3032
20.9614
100.474
-18.6624
-8.35171
-33.497
-29.8916
-40.8222
-32.7441
-35.9946
-37.6146
-48.9979
-43.651
-32.5295
-32.9577
-54.4831
-39.5227
-41.3076
-36.6318
-49.3915
-40.8468
-18.8051
-33.0847
-13.9054
-34.4633
-35.6153
-40.9758
-51.8987
-36.2973
-52.4312
-39.3944
-35.0386
-55.2922
-5.27214
-7.17777
-40.8042
-48.6314
-15.3604
-29.6296
-24.3093
-41.0238
-54.5074
-55.9801
-49.1501
-43.7561
-41.3017
-36.5859
-32.0722
-32.8593
-55.4294
-38.9182
-49.3742
-40.8391
-35.6107
-40.9925
-18.9473
-33.1018
-14.0476
-34.3396
-51.8682
-36.384
-5.294
-6.95434
-52.3289
-39.1233
-34.9119
-55.113
-40.7832
-48.6135
-54.4154
-55.9867
-15.6723
-29.6511
-24.5098
-41.0432
-34.525
-44.1052
185.835
187.747
-78.5011
-78.2113
168.855
171.573
-103.556
-57.7643
-63.2925
-48.8165
-37.2831
-36.79
-29.4379
-29.7396
-32.584
-32.5975
-26.2477
-26.1236
-39.4143
-37.0197
-39.459
-35.4634
-27.9194
-27.8063
186.218
184.821
-61.806
-112.364
-24.3013
-28.6938
-34.9866
-34.9799
-26.8085
-26.9029
-37.0496
-40.1627
-45.0188
-38.0488
-34.3318
-44.3953
187.385
185.47
-103.631
-57.8721
-63.1856
-48.4638
-36.7398
-37.2468
-29.3591
-29.6747
-39.3269
-36.9715
-39.4737
-35.4592
-112.38
-61.8372
-28.5983
-24.7793
-40.075
-36.9956
-38.0364
-45.0097
-27.0961
-21.7186
-33.8325
-33.686
-53.8472
-54.6206
-32.4116
-33.1805
-44.9497
-45.0043
-36.1028
-36.0634
-18.9995
-20.3737
-44.4155
-43.3744
-35.3679
-35.3814
-44.3926
-44.4435
-25.2266
-30.0649
-75.8098
-59.6078
-4.90289
-4.88709
-30.9967
-30.9584
-68.7572
-68.845
-48.9345
-48.9311
-26.9968
-21.821
-33.7478
-33.6352
-54.6825
-54.0203
-32.1198
-33.0112
-20.5924
-19.1773
-44.336
-43.2815
-30.1049
-25.4046
-59.6129
-75.6662
-48.6644
-100.523
-104.753
-15.0373
-52.8117
-55.4329
-59.3828
-55.0439
-51.3232
-62.4126
-61.4311
-52.5872
30.6665
3.02944
-109.114
-117.637
-48.5639
-15.0041
-104.869
-100.578
30.4644
-117.46
-109.203
2.98982
-51.186
-52.5734
-61.4908
-62.4175
-53.4091
-55.1531
-59.4845
-55.8612
-85.3091
-100.991
-65.0966
-61.3539
-85.2884
-61.3402
-64.9539
-100.111
-40.7717
-41.9658
-49.2868
-47.9718
-40.6263
-47.9053
-49.5087
-42.0083
-18.7125
-11.1244
-26.5812
-18.5709
-26.2943
8.58875
-15.8928
-52.8834
-26.5817
-52.8755
-15.836
8.5711
-18.7159
-18.5321
-26.821
-11.1288
46.8314
134.931
176.721
42.2755
65.9141
51.9491
186.029
128.956
65.8068
129.064
189.029
52.706
45.4792
38.0137
172.854
134.995
-39.3762
-27.2872
-27.5513
-39.3265
-14.7038
-13.4099
-22.1971
-21.8185
-19.3986
-27.6334
-23.8582
-14.4309
-39.8089
-39.3425
-29.0473
-31.9507
-38.7872
-38.7808
-27.5182
-27.113
-39.5634
-31.9618
-29.0839
-39.0401
-19.6965
-14.7238
-24.0509
-27.7777
-14.8077
-21.9389
-22.345
-13.5882
-35.4185
-37.6557
-35.1697
-31.1147
-35.3469
-30.9966
-35.1311
-37.6147
-33.35
-36.5537
-34.7985
-31.8782
-33.3334
-31.932
-34.8573
-36.5645
-58.282
-49.2525
-88.3324
4.32922
-41.6624
-62.9317
-72.8967
-42.3255
-41.7079
-42.32
-72.922
-62.7781
-58.0638
4.30001
-88.3702
-49.165
-36.1236
-38.9076
-39.881
-33.8673
-38.3484
-39.7518
-37.0854
-36.9137
-39.992
-37.1325
-37.1651
-40.5494
-34.955
-31.0734
-40.1308
-40.1616
-36.0057
-33.7337
-39.7939
-38.8186
-35.3253
-40.0884
-40.0395
-30.9772
-39.9454
-40.5145
-37.1088
-37.0938
-38.3402
-36.8662
-37.0332
-39.7311
-44.0302
-40.9763
-39.2226
-35.6193
-44.0726
-35.6414
-39.2393
-41.0137
-34.406
-32.2562
-33.3315
-38.4354
-34.422
-38.4282
-33.3428
-32.2748
-47.7174
-46.0249
-43.686
-57.2082
-35.8439
-32.4316
-36.7691
-40.1157
-35.7943
-40.0942
-36.7539
-32.4169
-47.6453
-57.2615
-43.6733
-45.9957
-34.0851
-28.9295
-25.6766
-32.4242
-33.9881
-32.3651
-25.5433
-28.8494
-33.5966
-28.2331
-25.9342
-32.5063
-33.6705
-32.586
-26.0523
-28.2897
-13.5177
-122.189
-101.436
-42.4711
-37.947
-39.5499
5.61582
-16.286
3.45771
-41.6324
-36.8084
-42.6
-125.634
-12.9567
-101.464
-37.9056
-42.4541
-39.5554
-16.3068
5.45278
3.6258
-36.7386
-41.5655
-42.5354
-39.6746
-42.5825
-39.9811
-38.521
-20.3052
-25.3718
-14.1281
-21.6743
-54.8853
-44.7961
-44.0004
-56.1089
-43.4492
-24.3873
-22.9564
-45.3506
-40.7795
-38.7941
-43.1604
-45.0945
-20.0461
-21.5504
-25.3208
-13.9573
-54.6687
-56.0031
-44.5442
-43.7737
-43.8294
-45.4205
-24.7962
-23.3082
27.1528
31.7784
-16.4879
97.372
-151.46
-150.613
-109.3
67.2641
-60.9499
-52.1625
-67.2859
-54.4634
-40.9869
-40.0009
-44.876
-34.5641
-31.5215
-31.4993
-31.8919
-28.7765
-34.7411
-35.5093
-36.0372
-31.8035
-10.6037
-10.6379
-11.1826
-32.5617
-65.4179
-84.9112
-94.3439
-80.2022
-29.75
-29.7379
-30.7462
-28.363
-43.0367
-41.9959
-39.3569
-44.2373
27.0519
31.6833
-16.4876
97.4896
-60.9977
-52.2438
-67.3703
-54.5187
-40.9325
-39.9617
-44.8732
-34.5228
-34.6483
-35.4149
-35.952
-31.8154
-65.4214
-84.8912
-94.3526
-80.1596
-42.9933
-41.9766
-39.2973
-44.2082
-15.9651
-25.7275
-24.7394
-29.5998
-46.3751
-44.3276
-53.4791
-42.4657
-39.9142
-39.8902
-41.0707
-38.6413
-3.70527
-3.83561
-8.00174
-13.3466
-38.5647
-38.5655
-37.7115
-39.8369
-33.818
-31.7433
-31.2409
-38.5774
19.9045
19.9419
20.6248
14.586
-61.8082
-61.7811
-63.1324
-59.9108
-16.4371
-27.1248
-24.6743
-28.7412
-46.0023
-43.9908
-53.4526
-42.11
-3.89536
-4.15905
-8.29421
-13.43
-33.8445
-31.8154
-31.32
-38.548
-85.4231
-72.9204
-74.8489
-65.7175
-85.5015
-73.0009
-74.917
-65.7971
-59.6044
-56.1048
-55.991
-52.7096
-24.7958
-21.4699
-21.468
-17.06
174.731
178.86
194.017
173.521
-25.0303
-26.7604
-24.2784
-25.9021
-25.1314
-26.8427
-24.4367
-26.0412
-34.9798
-35.2025
-34.9963
-34.9648
-83.7485
-88.5753
-79.0086
-83.7538
-37.3658
-37.8281
-38.1091
-38.7789
-37.3003
-37.7536
-38.0331
-38.6932
-33.0356
-34.4903
-34.4838
-36.7097
-37.9005
-39.5535
-39.5531
-41.3463
-24.5163
-23.6481
-23.9403
-24.4555
16.0305
26.077
-24.8616
91.2283
-127.86
-164.34
-106.752
29.8214
-82.3723
-71.6165
-62.9605
-69.2252
-43.8352
-41.9242
-43.3889
-36.1624
-33.0236
-33.3295
-33.51
-32.9578
-37.933
-40.0852
-38.349
-41.9173
20.3172
25.8494
6.91454
75.9676
-24.9752
-17.183
-22.1414
-23.933
-2.13609
16.8362
-3.05556
2.0717
-40.143
-40.2947
-45.3791
-35.1205
-32.6331
-30.5189
-32.3622
-30.3673
-37.9479
-38.482
-36.4535
-38.2066
-128.04
-157.476
-106.504
26.8195
16.3776
26.0575
-24.8029
90.6876
-82.41
-71.6579
-63.0972
-69.2871
-32.9819
-33.2768
-33.4717
-32.8858
-43.8093
-41.889
-43.3757
-36.1194
-37.9079
-40.0624
-38.3246
-41.9354
-25.64
-17.0479
-22.1342
-23.8069
20.3447
25.8218
6.88941
76.0372
-2.23352
16.5137
-3.51181
2.04272
-32.5503
-30.4832
-32.3226
-30.3163
-40.0896
-40.2468
-45.346
-35.0654
-37.8911
-38.4663
-36.3862
-38.1696
-43.05
-45.9497
-46.0785
-43.8878
-32.5368
-29.2579
-33.0071
-30.771
-46.0695
-49.3764
-43.7953
-41.3553
-38.3877
-39.2742
-40.2886
-37.5548
-56.2384
-41.1408
-50.7831
-44.3701
-27.5973
-27.1679
-18.9198
-31.7308
-9.01009
-5.47725
-9.80887
-14.4064
-36.8075
-38.1217
-36.604
-39.2055
-42.9374
-57.1231
-49.872
-41.689
-44.1984
-44.4936
-54.7276
-42.5738
-39.1072
-36.045
-36.0058
-43.7567
-9.81307
12.8035
0.0871344
2.46749
-48.8836
-43.4337
-39.6581
-47.8914
-8.60265
-5.58481
-10.6118
-13.8953
-25.8563
-29.3074
-25.9029
-34.9035
-47.9547
-58.5163
-55.0026
-55.4267
-43.3574
-46.0798
-46.1756
-44.0566
-38.4112
-39.2417
-40.2755
-37.5245
-32.0698
-29.3447
-32.6184
-30.5716
-49.2718
-49.3939
-45.3208
-40.8492
-56.3502
-41.1053
-50.7877
-44.3893
-36.816
-38.135
-36.6003
-39.2159
-27.5397
-27.3362
-19.0691
-31.7966
-8.90316
-5.49682
-9.91078
-14.288
-42.8642
-57.0963
-49.8281
-41.682
-9.79115
12.7542
-0.0495662
2.47734
-43.9203
-44.177
-54.4932
-42.3108
-38.924
-35.9799
-35.8837
-43.5938
-48.8918
-43.4427
-39.6832
-47.8798
-47.9335
-58.4839
-54.8237
-55.4394
-9.06154
-6.02176
-10.9997
-14.1886
-26.0694
-29.4344
-26.0884
-34.9674
-8.14855
-104.471
-34.7262
-36.3729
184.835
176.46
186.864
195.987
-88.4148
-70.641
-78.9155
-78.6622
169.981
178.184
174.844
174.849
-68.9201
-71.2488
-81.8504
-62.6876
-54.2302
-55.5134
-58.1245
-51.4352
-37.9943
-36.9761
-37.2582
-36.9724
-30.6538
-27.8233
-29.3568
-29.6413
-31.9328
-32.2647
-32.1978
-32.2056
-25.5866
-22.8068
-24.2669
-24.1723
-36.8296
-37.5176
-37.8949
-36.8635
-33.8064
-34.7957
-37.6867
-34.6205
-25.7538
-27.7067
-27.0929
-27.0607
163.49
186.884
191.748
191.046
-79.8855
-76.359
-68.4041
-88.0621
-50.4892
-26.6334
-30.5928
-32.0177
-34.0028
-35.1066
-34.5949
-34.5927
-27.0869
-25.3228
-25.9008
-25.9587
-38.4305
-38.3248
-37.6542
-39.0913
-43.0511
-40.088
-42.9072
-39.5482
-8.35769
-104.242
-34.5348
-36.9267
184.224
173.689
195.576
186.511
-69.0017
-71.3299
-81.9239
-62.778
-54.1905
-55.3982
-58.019
-51.3671
-37.9582
-36.9287
-36.9271
-37.2192
-30.6057
-27.7131
-29.2798
-29.572
-36.7547
-37.4455
-37.8108
-36.8029
-34.4336
-34.7867
-37.6891
-34.6089
-79.9249
-76.4047
-88.1124
-68.4421
-49.2602
-26.2892
-31.6168
-30.8528
-38.3606
-38.2507
-39.0103
-37.5736
-43.0289
-40.0803
-39.5168
-42.9004
-24.251
-24.2973
-25.4754
-22.9918
-32.337
-34.1567
-33.5007
-33.4442
-53.3579
-56.8255
-54.332
-54.7244
-35.8889
-30.2616
-32.6045
-32.9809
-43.8724
-47.5224
-45.2594
-45.2961
-37.1051
-35.9404
-36.3952
-36.3804
-16.9427
-21.5039
-19.266
-19.8627
-43.1102
-41.643
-44.3585
-43.875
-36.2802
-35.3166
-35.7029
-35.6893
-42.8613
-41.6171
-44.0549
-44.074
-28.619
-26.9484
-26.5169
-28.8158
-56.5007
-78.6831
-73.6387
-63.7514
6.18074
-7.34108
-1.15306
-1.15087
-12.6778
-76.4876
-33.2829
-33.042
-67.8249
-73.7661
-70.7485
-70.8125
-53.1196
-46.1418
-48.8935
-48.8931
-24.1901
-24.3091
-25.3781
-23.0235
-32.219
-34.0996
-33.4184
-33.3802
-53.5146
-56.9319
-54.8181
-54.4866
-35.5697
-30.1785
-32.3498
-32.791
-17.1562
-21.6947
-20.0751
-19.4565
-42.987
-41.6132
-44.2715
-43.7751
-28.7328
-27.0882
-28.9083
-26.6747
-56.4372
-78.6797
-63.635
-73.5152
-22.3051
-29.3501
-30.8
-99.7401
-51.4684
-52.4709
-54.3945
-53.3751
-53.2274
-52.59
-57.1345
-54.4149
8.45084
-33.8181
-47.4966
-104.956
-22.5259
-29.4468
-30.7164
-99.6885
8.37696
-34.0982
-47.8269
-104.884
-53.2139
-52.5649
-57.1572
-54.4477
-51.6695
-52.8696
-54.5344
-53.5644
-85.0209
-73.68
-77.4976
-68.5121
-84.6269
-73.5973
-77.125
-68.3539
-44.0375
-43.0531
-46.4658
-44.8149
-43.9941
-43.0601
-46.4865
-44.831
-23.3772
-17.3596
-29.4843
-24.1412
-27.0755
-9.44992
-22.8882
-10.2521
-26.8214
-9.17197
-22.791
-10.2103
-23.3096
-17.3239
-29.1528
-24.0185
165.102
151.344
179.905
170.682
107.929
116.321
172.752
179.351
115.788
107.874
177.952
171.881
150.282
164.794
170.636
179.512
-32.219
-35.7228
-29.2096
-32.2717
-18.6985
-16.7206
-20.3221
-18.8977
-18.9888
-22.8531
-21.0148
-23.6836
-36.3326
-34.1941
-33.4169
-31.7144
-31.8282
-35.1714
-29.0563
-31.9137
-36.1053
-34.0631
-33.2664
-31.676
-19.2398
-23.0654
-21.2335
-23.878
-18.8357
-16.8677
-20.4602
-19.0615
-34.0594
-35.6867
-34.2897
-35.6506
-35.6445
-33.9925
-35.5975
-34.212
-35.0298
-33.6195
-34.9875
-33.9293
-33.625
-35.0413
-33.9597
-35.0047
-71.6189
-19.7934
-62.9796
-32.3004
-47.2756
-55.3846
-58.122
-64.2278
-55.3419
-47.2871
-64.2681
-58.1304
-19.6528
-71.3682
-32.2277
-62.9722
-46.8182
-45.7734
-41.7013
-45.1971
-37.7927
-37.4823
-37.308
-37.1256
-37.7228
-36.1863
-36.5483
-36.6263
-42.4116
-41.1629
-41.2965
-43.316
-46.773
-45.7112
-41.6207
-45.1287
-42.3405
-40.972
-41.2011
-43.2197
-37.6607
-36.1203
-36.49
-36.5836
-37.7711
-37.452
-37.2744
-37.0878
-41.2425
-42.9151
-42.1436
-44.6365
-41.2489
-42.9335
-42.1496
-44.684
-34.1035
-39.9512
-33.4504
-34.9113
-34.1256
-39.7593
-33.4678
-34.9172
-50.1977
-54.1312
-47.4305
-49.1908
-34.7431
-36.795
-35.7121
-36.914
-34.72
-36.769
-35.7095
-36.9038
-50.1885
-54.1256
-47.4096
-49.1701
-30.9549
-30.2951
-29.578
-28.1899
-30.2172
-30.8969
-28.0827
-29.4989
-29.731
-30.5687
-28.2925
-29.6489
-30.6403
-29.8004
-29.7265
-28.3834
-49.3476
49.8199
-96.9052
-13.1962
-66.6529
-86.2841
-41.9914
-36.9917
-34.3991
-34.1777
-37.8104
-35.7253
9.4345
67.7331
-26.963
20.7543
22.9879
-14.958
-45.3954
-37.2986
-35.76
-35.4976
-39.5787
-37.8352
-96.5572
-17.0763
-49.2142
47.2322
-66.5588
-86.4907
-34.383
-34.0691
-41.9894
-36.9366
-37.8043
-35.7199
-26.9842
20.4568
9.40385
67.9485
23.0921
-14.9569
-35.6994
-35.1209
-45.3525
-37.2241
-39.5309
-37.7767
-47.0245
-41.0637
-39.1511
-35.9648
-43.4225
-41.7621
-39.3165
-36.7754
-39.0341
-54.4049
-14.8954
-34.7404
-11.9419
-16.2057
-32.7346
-39.8694
-46.6527
-37.8793
-57.1676
-42.9171
-40.4074
-47.6607
-26.068
-51.8998
-41.7786
-46.4775
-16.152
-25.8512
-21.4333
-36.0553
-43.3021
-46.1044
-47.5993
-41.3582
-39.442
-36.7531
-38.6707
-35.678
-45.279
-41.3647
-38.9718
-54.5392
-32.7357
-39.8907
-15.0257
-34.6494
-11.9869
-15.9366
-46.526
-37.7625
-25.9475
-51.6856
-56.9508
-42.6779
-40.1722
-47.4397
-42.0452
-46.5094
-43.347
-46.0721
-16.4884
-26.4745
-21.7098
-36.1808
-19.3812
97.469
0.784774
93.5695
-12.2122
-2.83733
137.646
139.203
-113.324
16.788
-111.626
26.5521
-101.384
-100.985
48.8234
47.2662
-96.51
-61.0442
-53.7299
-48.1247
-79.0104
-60.3787
-57.2053
-50.5152
-43.69
-34.8978
-45.4727
-34.6049
-40.0343
-40.464
-32.6581
-32.552
-32.6737
-29.9597
-32.6489
-29.8907
-31.8644
-31.874
-27.9192
-27.8724
-36.8576
-33.2468
-38.6879
-34.2056
-37.2306
-36.2185
-34.7384
-35.8619
-4.35498
-0.906635
-4.35606
1.07077
-14.8224
-14.8197
72.7928
63.9093
-82.9763
-4.89412
-65.1959
-62.9847
-71.6254
-98.0492
-44.5507
-64.2568
-31.1016
-29.0079
-31.0721
-28.9701
-32.3187
-32.3119
-27.491
-27.5229
-38.204
-40.7245
-40.5689
-47.0422
-38.5158
-39.1473
-44.6385
-41.7549
-19.3933
97.3379
0.805282
93.5837
-12.1978
-2.85822
139.201
137.702
-96.5506
-61.0828
-53.8397
-48.2028
-79.0881
-60.4708
-57.231
-50.5463
-43.6909
-34.8581
-45.4512
-34.559
-40.4321
-40.0114
-32.5989
-32.4734
-36.8091
-33.1781
-38.6042
-34.1759
-37.1414
-36.1502
-34.7277
-35.8288
-83.0065
-4.91058
-65.1882
-62.9585
-98.1082
-71.6419
-64.1947
-44.509
-38.1751
-40.7028
-40.5121
-47.0069
-39.0811
-38.5963
-41.7299
-44.6227
-27.6033
-27.492
-22.0033
-30.5633
-25.7208
-23.2026
-30.8308
-31.3802
-50.4532
-41.5738
-54.2637
-42.5098
-55.0723
-52.8279
-39.2498
-39.3293
-40.8417
-38.4632
-40.8009
-38.3525
-42.1961
-42.2168
-37.9055
-37.8858
-8.52852
-13.5032
-8.60967
-13.2101
-13.3825
-13.9189
-33.2891
-32.1404
-37.4875
-39.6625
-37.497
-39.6962
-36.8322
-36.8317
-40.9933
-41.0023
-33.3033
-40.9851
-29.0134
-36.313
-28.8062
-30.8167
-47.2343
-43.6361
15.6723
13.3948
15.6381
13.2822
11.6585
11.6492
5.51578
5.41696
-61.3293
-59.1351
-61.2384
-59.1655
-64.5597
-64.4258
-57.7395
-57.7517
-27.4328
-27.317
-22.1469
-30.6148
-25.62
-23.2531
-30.5833
-31.2124
-50.6134
-41.0658
-54.082
-42.2195
-52.8812
-55.3429
-38.8062
-39.0047
-8.72861
-13.4863
-9.0104
-13.424
-14.1933
-13.5954
-33.1451
-32.0374
-33.2996
-40.9046
-29.1381
-36.3243
-30.8733
-28.9268
-43.6129
-47.1669
-105.636
-108.207
-83.9866
-64.4755
-67.2175
-87.0885
-60.0667
-61.2145
-105.771
-108.361
-84.0656
-64.5623
-87.141
-67.2734
-61.2896
-60.1638
-65.2751
-65.1798
-58.9684
-52.3784
-58.8252
-52.2843
-49.5872
-49.6312
-27.7999
-27.8503
-25.8618
-20.1501
-20.0736
-26.0493
-13.1741
-13.1575
175.609
188.935
177.83
177.181
190.308
190.868
196.419
170.723
-25.9225
-23.4533