# vtk DataFile Version 2.0
tet_velo
ASCII
DATASET UNSTRUCTURED_GRID
POINTS 29498 float
-0.695 0.665 -2.05153
-0.695588 0.795 2.105
-0.73323 1.155 -1.935
-0.535 1.935 1.88058
0.697507 0.665 -2.045
0.715772 0.795 2.105
0.73323 1.155 -1.935
0.535 1.935 1.88062
-0.790864 0.612665 -0.66602
-0.839702 0.607357 0.71949
-0.742706 1.49055 -0.66314
-0.678035 1.75196 0.60872
0.795236 0.616692 -0.661667
0.841348 0.620003 0.721667
0.742636 1.49048 -0.663127
0.678041 1.75196 0.608747
-1.43108 0.105072 -3.10792
-1.44643 0.215611 -2.04532
-1.51206 0.172161 -0.657022
-1.53677 0.123305 0.754196
-1.45498 0.239013 2.14441
-1.42788 0.380111 3.21645
-1.43625 0.522583 4.27095
-1.43486 0.476471 -3.0916
-1.44624 0.629659 -2.04121
-1.51787 0.641508 -0.674734
-1.52514 0.647407 0.702107
-1.39761 0.792479 2.07073
-1.39262 0.93324 3.14106
-1.42011 1.06898 4.19914
-1.45192 1.12078 -3.02624
-1.46256 1.26463 -1.97023
-1.47768 1.52295 -0.681058
-1.40802 1.73936 0.600107
-1.27496 1.91804 1.8913
-1.32983 2.04761 2.96621
-1.39572 2.16625 4.04245
-1.47289 2.32462 -3.01381
-1.47719 2.51251 -1.97523
-1.47236 2.85115 -0.722639
-1.44118 3.20072 0.505473
-1.40475 3.46443 1.75896
-1.4061 3.6163 2.79942
-1.43016 3.73998 3.86347
-0.696309 0.126682 -3.11372
-0.696362 0.246504 -2.05445
-0.75668 0.163684 -0.654384
-0.804038 0.0935777 0.769233
-0.746422 0.22918 2.16984
-0.731417 0.37568 3.23382
-0.741319 0.520331 4.28123
-0.701776 0.483037 -3.09264
-0.716495 0.934448 3.15543
-0.736507 1.07015 4.20697
-0.719072 1.07727 -3.01144
-0.671612 2.05801 2.96434
-0.725964 2.17384 4.04238
-0.742141 2.28812 -2.99923
-0.747317 2.47442 -1.95933
-0.75135 2.83499 -0.712891
-0.741846 3.20964 0.504867
-0.726118 3.48138 1.75156
-0.730865 3.63133 2.79203
-0.750257 3.75169 3.85825
0.74942 0.127667 -3.1095
0.752002 0.247703 -2.04921
0.802959 0.167985 -0.650461
0.805117 0.102695 0.771405
0.718964 0.2326 2.17058
0.675038 0.378428 3.23454
0.653954 0.523372 4.28212
0.733776 0.483595 -3.08858
0.642466 0.936268 3.1559
0.632434 1.07281 4.20774
0.733444 1.07765 -3.00943
0.57692 2.0594 2.96473
0.600352 2.17614 4.04308
0.718358 2.28908 -2.99769
0.713071 2.47534 -1.95812
0.694053 2.83613 -0.711926
0.653047 3.21117 0.505672
0.612354 3.48324 1.75228
0.601795 3.63347 2.7928
0.600334 3.75411 3.85912
1.48006 0.107507 -3.10041
1.4862 0.218676 -2.03696
1.54702 0.179685 -0.650383
1.55609 0.136815 0.758249
1.45947 0.247758 2.1465
1.3948 0.386701 3.21823
1.36519 0.529019 4.2729
1.46189 0.47816 -3.08445
1.45239 0.631364 -2.03296
1.52692 0.647599 -0.668423
1.54448 0.661089 0.705759
1.42493 0.799807 2.0723
1.35499 0.938678 3.14247
1.33679 1.07482 4.20086
1.45823 1.122 -3.02174
1.45518 1.26539 -1.96665
1.47318 1.52509 -0.678279
1.4164 1.74459 0.601906
1.2843 1.92283 1.89242
1.27171 2.05195 2.9674
1.2907 2.17135 4.04401
1.44748 2.32678 -3.01054
1.44161 2.51465 -1.97251
1.41905 2.85383 -0.720405
1.36548 3.20427 0.507333
1.30744 3.46861 1.76062
1.2893 3.6209 2.80111
1.28917 3.745 3.86532
-0.719528 0.91 -1.99868
0.00125352 0.647667 -2.0656
-0.750388 0.631377 -1.35877
-0.638709 1.365 2.0162
0.010092 0.783228 2.11677
-0.860994 0.60783 1.41225
0 1.24964 -2.02964
-0.710801 1.29561 -1.29907
0 1.95081 1.89641
-0.629025 1.86599 1.24465
0.694978 0.91 -1.96961
0.742023 0.645195 -1.35333
0.643067 1.365 2.01049
0.860849 0.625213 1.41333
0.710809 1.29562 -1.29906
0.629025 1.86599 1.24468
-0.800204 0.62509 0.0267351
-0.839414 1.05161 -0.66458
0.00218619 0.531643 -0.663843
-0.829847 1.17966 0.664105
0.000822883 0.528288 0.720578
-0.714405 1.62529 -0.02721
-3.53559e-05 1.68404 -0.663133
3.18209e-06 1.95629 0.608733
0.80625 0.630389 0.03
0.839441 1.05359 -0.662397
0.829482 1.18598 0.665207
0.714227 1.62511 -0.02719
-0.864484 0.980805 -1.32892
-0.845008 1.11563 -0.000237465
-0.795846 1.27233 1.32845
0.00171985 0.538243 -1.35605
0.00150453 0.539445 0.0283675
0.00545744 0.58151 1.41279
0.000626758 0.91 -2.13468
0.005046 1.365 2.05937
-1.7678e-05 1.35021 -1.29907
-1.60869e-05 1.90813 -0.0272
1.59104e-06 1.95915 1.24467
0.864552 0.981794 -1.3262
0.844597 1.11979 0.001405
0.795415 1.27549 1.32901
-1.07062 0.64733 -2.04637
-0.695681 0.455752 -2.05299
-0.698388 0.574018 -2.57209
-1.0466 0.79374 2.08786
-0.721005 0.51209 2.13742
-0.706041 0.864724 2.63021
-1.0979 1.20982 -1.95262
-0.726151 1.11613 -2.47322
-0.740274 1.81471 -1.94717
-0.904982 1.92652 1.88594
-0.603306 1.9965 2.42246
-0.630559 2.70819 1.81607
0.724755 0.456352 -2.04711
0.715642 0.574298 -2.56679
1.07495 0.648182 -2.03898
0.717368 0.5138 2.13779
0.679119 0.865634 2.63045
1.07035 0.797403 2.08865
0.733337 1.11632 -2.47222
0.72315 1.81517 -1.94656
1.09421 1.2102 -1.95083
0.55596 1.9972 2.42268
0.573677 2.70912 1.81645
0.909652 1.92891 1.88652
-1.15437 0.627086 -0.670377
-0.773772 0.388175 -0.660202
-1.18242 0.627382 0.710799
-0.82187 0.350467 0.744361
-1.11019 1.50675 -0.672099
-0.747028 2.16277 -0.688016
-1.04303 1.74566 0.604413
-0.70994 2.4808 0.556793
0.799098 0.392339 -0.656064
1.16108 0.632146 -0.665045
0.823232 0.361349 0.746536
1.19292 0.640546 0.713713
0.718344 2.16331 -0.687526
1.10791 1.50778 -0.670703
0.665544 2.48157 0.557209
1.04722 1.74828 0.605326
-1.43876 0.160341 -2.57662
-1.43297 0.290771 -3.09976
-1.0637 0.115877 -3.11082
-1.47924 0.193886 -1.35117
-1.44634 0.422635 -2.04326
-1.0714 0.231058 -2.04988
-1.52442 0.147733 0.0485868
-1.51496 0.406834 -0.665878
-1.13437 0.167922 -0.655703
-1.49588 0.181159 1.4493
-1.53096 0.385356 0.728151
-1.17041 0.108441 0.761714
-1.44143 0.309562 2.68043
-1.4263 0.515746 2.10757
-1.1007 0.234097 2.15713
-1.43206 0.451347 3.7437
-1.41025 0.656676 3.17875
-1.07965 0.377896 3.22514
-1.42818 0.795784 4.23504
-1.08878 0.521457 4.27609
-1.44055 0.553065 -2.56641
-1.44339 0.798627 -3.05892
-1.06832 0.479754 -3.09212
-1.48206 0.635583 -1.35797
-1.4544 0.947147 -2.00572
-1.52151 0.644457 0.0136867
-1.49777 1.08223 -0.677896
-1.46138 0.719943 1.38642
-1.46658 1.19338 0.651107
-1.39511 0.86286 2.60589
-1.33629 1.35526 1.98101
-1.40636 1.00111 3.6701
-1.36123 1.49043 3.05364
-1.05456 0.933844 3.14824
-1.40791 1.61762 4.12079
-1.07831 1.06956 4.20305
-1.45724 1.19271 -2.49824
-1.46241 1.7227 -3.02003
-1.0855 1.09903 -3.01884
-1.47012 1.39379 -1.32564
-1.46988 1.88857 -1.97273
-1.44285 1.63115 -0.0404758
-1.47502 2.18705 -0.701849
-1.34149 1.8287 1.2457
-1.4246 2.47004 0.55279
-1.3024 1.98282 2.42876
-1.33985 2.69123 1.82513
-1.36278 2.10693 3.50433
-1.36797 2.83196 2.88282
-1.00072 2.05281 2.96528
-1.41294 2.95312 3.95296
-1.06084 2.17005 4.04242
-1.47504 2.41856 -2.49452
-1.10752 2.30637 -3.00652
-1.47478 2.68183 -1.34894
-1.11226 2.49347 -1.96728
-1.45677 3.02594 -0.108583
-1.11185 2.84307 -0.717765
-1.42296 3.33257 1.13222
-1.09152 3.20518 0.50517
-1.40542 3.54036 2.27919
-1.06543 3.4729 1.75526
-1.41813 3.67814 3.33145
-1.06848 3.62382 2.79572
-1.09021 3.74584 3.86086
-0.696335 0.186593 -2.58408
-0.699043 0.30486 -3.10318
0.0265557 0.127175 -3.11161
-0.726521 0.205094 -1.35442
0.0278204 0.247104 -2.05183
-0.780359 0.128631 0.0574244
0.0231399 0.165835 -0.652422
-0.77523 0.161379 1.46954
0.000539363 0.0981365 0.770319
-0.738919 0.30243 2.70183
-0.013729 0.23089 2.17021
-0.736368 0.448006 3.75752
-0.723956 0.655064 3.19463
-0.0281897 0.377054 3.23418
-0.738913 0.795238 4.2441
-0.0436821 0.521852 4.28167
-0.710424 0.780153 -3.05204
0.0159997 0.483316 -3.09061
-0.726501 1.0023 3.6812
-0.694053 1.49623 3.05989
-0.0370145 0.935358 3.15566
-0.731236 1.62199 4.12468
-0.0520367 1.07148 4.20735
-0.730606 1.68269 -3.00534
0.0071861 1.07746 -3.01044
-0.698788 2.11592 3.50336
-0.701238 2.84467 2.87818
-0.0473458 2.05871 2.96454
-0.738111 2.96276 3.95032
-0.0628061 2.17499 4.04273
-0.744729 2.38127 -2.47928
-0.0118915 2.2886 -2.99846
-0.749333 2.65471 -1.33611
-0.0171232 2.47488 -1.95873
-0.746598 3.02231 -0.104012
-0.0286482 2.83556 -0.712408
-0.733982 3.34551 1.12821
-0.0443997 3.2104 0.505269
-0.728491 3.55636 2.27179
-0.056882 3.48231 1.75192
-0.740561 3.69151 3.32514
-0.064535 3.6324 2.79241
-0.0749614 3.7529 3.85869
0.750711 0.187685 -2.57936
0.741598 0.305631 -3.09904
1.11474 0.117587 -3.10495
0.777481 0.207844 -1.34984
1.1191 0.23319 -2.04309
0.804038 0.13534 0.0604719
1.17499 0.173835 -0.650422
0.76204 0.167648 1.47099
1.1806 0.119755 0.764827
0.697001 0.305514 2.70256
1.08922 0.240179 2.15854
0.664496 0.4509 3.75833
0.658752 0.657348 3.19522
1.03492 0.382565 3.22638
0.643194 0.798091 4.24493
1.00957 0.526195 4.27751
0.73361 0.780622 -3.04901
1.09783 0.480877 -3.08652
0.63745 1.00454 3.68182
0.609693 1.49783 3.06032
0.998726 0.937473 3.14918
0.616393 1.62447 4.12541
0.98461 1.07381 4.2043
0.725901 1.68336 -3.00356
1.09584 1.09982 -3.01559
0.588636 2.11777 3.5039
0.589357 2.84644 2.87877
0.924314 2.05568 2.96607
0.600343 2.96513 3.9511
0.945524 2.17374 4.04354
0.715714 2.38221 -2.47791
1.08292 2.30793 -3.00411
0.703562 2.65573 -1.33502
1.07734 2.49499 -1.96532
0.67355 3.02365 -0.103127
1.05655 2.84498 -0.716165
0.6327 3.34721 1.12898
1.00926 3.20772 0.506502
0.607074 3.55836 2.27254
0.959894 3.47592 1.75645
0.601064 3.69379 3.32596
0.945548 3.62719 2.79696
0.944752 3.74956 3.86222
1.48313 0.163092 -2.56868
1.47098 0.292834 -3.09243
1.51661 0.19918 -1.34367
1.4693 0.42502 -2.03496
1.55155 0.15825 0.0539331
1.53697 0.413642 -0.659403
1.50778 0.192286 1.45238
1.55029 0.398952 0.732004
1.42714 0.317229 2.68237
1.4422 0.523782 2.1094
1.38 0.45786 3.74556
1.37489 0.66269 3.18035
1.35099 0.801917 4.23688
1.45714 0.554762 -2.55871
1.46006 0.80008 -3.0531
1.48966 0.639482 -1.35069
1.45379 0.948377 -1.99981
1.5357 0.654344 0.0186677
1.50005 1.08634 -0.673351
1.48471 0.730448 1.38903
1.48044 1.20284 0.653832
1.38996 0.869242 2.60738
1.35462 1.36132 1.98236
1.34589 1.00675 3.67166
1.31335 1.49531 3.05493
1.31374 1.62308 4.12244
1.4567 1.1937 -2.4942
1.45286 1.72439 -3.01614
1.46418 1.39524 -1.32247
1.4484 1.89002 -1.96958
1.44479 1.63484 -0.0381866
1.44611 2.18946 -0.699342
1.35035 1.83371 1.24716
1.39094 2.47443 0.55462
1.27801 1.98739 2.42991
1.29587 2.69572 1.82652
1.2812 2.11165 3.50571
1.2805 2.83642 2.88426
1.28993 2.95817 3.95467
[...]
POINT_DATA 29498
VECTORS point_vectors float
-11.7119 -9.08342 12.1096
0.390995 -0.0773648 1.21063
-3.38793 1.76474 5.58142
0.0239119 -0.177003 0.915979
11.2695 -8.64254 12.9916
-0.521824 -0.0686546 1.74202
3.36506 1.77948 5.55704
-0.0237796 -0.182595 0.925866
-2.73798e-18 1.73742e-17 -1.63902e-16
0.00933059 -0.128437 0.62634
-0.433258 -0.282067 0.983519
0.000990917 0.00337114 0.0165131
1.74057e-18 1.59101e-17 -1.47821e-16
-0.0178905 -0.178322 0.42454
0.433977 -0.283496 0.983763
-0.000979933 0.00332534 0.0166322
-0.617477 -0.43674 19.8653
-1.36005 -0.983407 20.5241
-0.493472 -0.580204 21.5315
0.125027 -0.210237 21.6954
0.873112 0.220905 21.6321
1.13872 0.315168 21.1999
1.1834 0.310426 20.8768
-0.75867 -0.370326 19.6867
-2.015 -0.784835 20.3905
-0.796327 -0.72433 21.6162
0.0202806 -0.421149 21.8453
1.19662 -0.317267 21.7373
1.5575 -0.305144 21.3563
1.31913 -0.361434 20.8054
-0.91203 0.00450925 19.5681
-2.18859 0.164531 20.2999
-1.73442 -0.274167 21.5018
-0.714725 -0.426085 22.0107
-0.0250034 -0.723172 21.8705
0.303284 -0.84157 21.4312
0.285912 -0.778255 20.9926
-0.517184 0.293257 19.9323
-0.77537 0.498911 20.2907
-0.810473 0.42509 21.0261
-0.44804 0.111812 21.5061
-0.0833753 -0.0968852 21.707
0.125982 -0.0876071 21.1264
0.100289 -0.0185329 20.3968
-0.546395 -0.788711 19.3538
-2.22107 -3.75254 20.3083
-0.331251 -0.724373 22.0684
0.258355 0.0382076 21.9553
0.962679 1.41764 20.9356
1.57096 1.79683 18.8829
1.8902 1.46678 18.3944
-0.772221 -0.653156 18.8892
2.1166 0.302863 9.24114
2.53448 0.414999 13.2429
-1.01673 0.0885596 18.4468
-0.0784081 -0.67988 16.2769
-0.24169 -1.27721 19.1251
-0.46443 0.606937 19.6133
-0.762848 1.14769 20.0407
-0.784766 1.07109 21.0265
-0.431503 0.294298 21.6602
-0.0960691 -0.120543 21.6613
0.0580504 -0.0829679 21.0792
0.102694 -0.128758 20.237
0.580937 -0.762159 19.3752
2.27045 -3.38384 20.3553
0.318303 -0.720282 22.1249
-0.27242 0.0432733 21.9799
-0.911068 1.45202 20.8379
-1.38585 1.91322 17.985
-1.82076 1.70263 17.9105
0.803273 -0.636868 18.932
-1.95221 0.63928 7.33926
-2.75634 0.916108 10.7211
1.03096 0.0898873 18.4804
0.22215 -0.757067 14.0551
0.647487 -1.52592 17.2346
0.453616 0.610409 19.6009
0.749768 1.17091 20.0276
0.75028 1.13845 21.0252
0.378869 0.302157 21.6741
0.077214 -0.124824 21.8004
-0.0389468 -0.0794533 20.988
-0.0969806 -0.130345 20.1991
0.613867 -0.405742 19.8925
1.31529 -0.923705 20.5449
0.501507 -0.573859 21.5216
-0.120399 -0.212974 21.6976
-0.871624 0.21327 21.6385
-1.17009 0.322599 21.2083
-1.33476 0.367427 20.6344
0.746403 -0.36391 19.7099
2.00973 -0.782782 20.3965
0.817672 -0.714166 21.6231
-0.0138585 -0.416142 21.8526
-1.13903 -0.312379 21.749
-1.65655 -0.323217 21.2827
-1.51813 -0.419166 20.6531
0.912752 0.00207499 19.58
2.21609 0.181337 20.2921
1.74669 -0.266408 21.5096
0.704176 -0.422087 22.003
0.0104522 -0.717781 21.8738
-0.296449 -0.915639 21.4295
-0.304788 -0.87751 21.3107
0.515626 0.304472 19.9193
0.783516 0.527855 20.2774
0.829634 0.455401 21.03
0.470556 0.159141 21.5207
0.102804 -0.0987456 21.58
-0.103756 -0.090432 21.1378
-0.0888359 -0.0184798 20.4703
-1.81695 0.160839 1.49078
0.00668712 -1.83567 1.11695
0.0491773 -0.0385682 0.298588
-0.0944017 -0.127668 -0.0308643
0.000688712 -0.113105 0.00621672
0.0224856 0.0185716 0.602056
-0.00548844 0.568924 0.995999
-0.215031 -0.0593457 0.222946
0.00528897 -0.0310736 0.291731
0.011253 0.00580469 0.456694
0 0 0
0 0 0
0.0777735 -0.0960148 -0.026624
-0.0639186 0.078213 1.25363
0.215851 -0.059584 0.224826
-0.0105396 0.00508021 0.452133
0 0 0
-0.000234505 0.000892687 0.0312234
1.94958e-06 5.01849e-06 0.000262301
0.000312381 0.00197571 0.00772808
0.000632736 0.0101727 0.10999
0 0 0
0.00019634 0.118129 0.19011
-8.63031e-06 0.00218621 0.0591089
0 0 0
0.000218842 0.000510397 0.0323554
-0.000380318 0.00238904 0.00957316
0 0 0
-0.00468877 -0.0255286 0.19562
0.000207233 0.00481367 0.0173904
0 0 0
0 0 0
1.21885e-08 1.3081e-07 1.80909e-05
7.7996e-06 0.00021567 0.0034695
0.000900261 -0.139872 0.0983932
0.000176201 -0.00553699 0.000695829
-3.97158e-05 1.67237e-05 0.000106708
-1.23609e-05 0.000194038 0.0028103
7.46423e-05 -0.000506718 0.0259634
0.00513892 -0.027403 0.228394
-0.000107051 0.00180339 0.00680406
0 0 0
-4.03065 -1.96152 20.057
-4.48005 -6.02288 19.5747
-2.06602 -1.70875 17.5963
1.8356 -0.067084 17.3693
1.09767 1.54005 11.2217
1.35152 0.0162777 5.89846
-4.03632 0.85565 20.0632
-3.03271 0.948662 16.6109
-1.85763 2.16059 19.6718
-0.032936 -0.753083 19.1967
-0.063468 -0.404944 10.6774
-0.24688 -0.0478832 21.8101
4.33373 -5.47381 19.802
2.08638 -1.6796 17.6742
4.02582 -1.97584 20.033
-1.05558 1.53775 11.1602
-1.19986 0.0930838 4.90185
-1.77221 -0.104659 17.8964
3.02797 0.914485 16.6858
1.84226 2.22941 19.6611
4.06674 0.908193 20.0469
0.156725 -0.380512 9.50489
0.248143 -0.0439076 21.8115
0.031419 -0.773706 19.4411
-0.545285 -1.08875 21.8019
0.477558 -0.949556 17.8375
0.144809 -0.499763 21.1113
0.777274 -0.258446 18.341
-3.20749 -0.618471 21.877
-2.39623 2.4454 20.8873
-1.12528 -0.649715 21.9079
-0.885468 0.638085 22.1189
-0.316407 -0.861237 18.2114
0.584499 -1.11046 21.8096
-0.733841 -0.240921 17.863
-0.13776 -0.510405 21.1369
2.38208 2.59164 20.8656
3.22367 -0.619934 21.8759
0.859186 0.698305 22.148
1.1296 -0.656383 22.0393
-1.01121 -0.712055 19.9855
-0.685864 -0.414792 19.7805
-0.616788 -0.609422 19.6418
-0.95389 -0.819033 21.2716
-1.62238 -0.943141 20.477
-1.93176 -1.86307 20.4622
-0.145926 -0.389289 21.6421
-0.616623 -0.662755 21.577
-0.423439 -0.698918 21.79
0.473213 -0.00554483 21.7876
0.0917123 -0.320914 21.7786
0.219961 -0.143017 21.8877
1.04638 0.306193 21.4951
1.07865 0.0347173 21.7379
1.14216 0.693781 21.7295
1.25338 0.198724 21.1783
1.43526 0.0647922 21.3107
1.61191 0.861353 21.1142
1.28721 -0.133313 20.7656
1.75828 0.747803 19.7719
-1.36868 -0.573449 19.7377
-0.863271 -0.20875 19.599
-0.861344 -0.51373 19.3142
-1.43839 -0.82641 21.3618
-2.28847 -0.366724 20.3355
-0.322518 -0.569957 21.7444
-1.28936 -0.714271 21.6228
0.549038 -0.323765 22.0375
-0.271429 -0.607444 22.0039
1.36678 -0.352695 21.6371
0.645585 -0.936846 21.7745
1.52999 -0.337486 21.186
1.03488 -1.01849 21.3235
2.0686 -0.195039 18.7221
0.805787 -0.811024 20.9035
2.12606 -0.625764 20.191
-1.61172 0.100384 19.6576
-0.738348 0.264586 19.7083
-1.03063 0.0116573 19.129
-1.99339 -0.0453938 21.0247
-1.40573 0.591146 20.2389
-1.24851 -0.363834 21.9104
-1.39114 0.443397 21.1924
-0.311601 -0.560272 22.0107
-0.690965 0.0699822 21.789
0.162509 -0.759221 21.6766
-0.202309 -0.25821 21.5936
0.419183 -0.801338 21.4138
0.0040219 -0.321175 21.3618
0.175932 -0.958456 21.6631
0.00013477 -0.265567 21.5301
0.32536 -1.03029 21.5036
-0.680999 0.425775 20.0791
-0.49835 0.41685 19.789
-0.842035 0.497933 20.6764
-0.827265 0.799875 20.1948
-0.631593 0.261632 21.1973
-0.874011 0.717558 21.0125
-0.268925 -0.028276 21.699
-0.536979 0.281545 21.5931
0.0371818 -0.0998259 21.3876
-0.103859 -0.106264 21.6215
0.12824 -0.038698 20.5803
0.0946578 -0.0909086 21.1289
0.0498231 -0.0623956 20.6948
-1.1981 -1.79846 19.0714
-0.637189 -0.766784 19.1088
0.0237598 -0.98138 19.0752
-1.15188 -1.66094 22.2366
0.104063 -5.80404 20.2992
0.0216507 -0.21801 21.899
0.0209736 -0.833567 21.4948
0.606631 0.681096 21.7434
0.00610678 0.0478572 21.0153
1.23203 1.65342 19.986
0.0167499 1.1841 18.2396
1.63069 1.80603 18.4542
2.41498 1.61021 14.3872
0.0306471 1.7538 15.5516
2.20452 0.808528 17.4981
0.148163 1.85897 14.3043
-0.923262 -0.38743 18.5389
0.0158105 -0.872534 18.3839
2.38999 0.693916 11.3479
-0.411809 -0.970423 3.2607
0.193493 1.32749 1.43978
1.69567 -1.15336 10.8426
0.16888 3.53265 3.02583
-0.735187 0.650391 19.0385
0.018455 0.256429 17.6632
-0.0108576 -1.19508 17.5795
-0.0754222 -0.317157 21.5401
-0.0348327 -0.00748754 7.49949
0.0898456 -0.422244 21.254
-0.00499965 -0.572345 11.9132
-0.63945 0.940637 19.741
-0.00909118 0.727648 19.4308
-0.838719 1.21865 20.4502
-0.0280411 1.54373 19.8922
-0.599858 0.668537 21.3872
-0.0412009 1.52598 20.9717
-0.263506 -0.014492 21.9236
-0.0159601 0.52872 21.7164
-0.0363865 -0.0902732 21.2335
-0.00357012 -0.108787 21.7038
0.100413 -0.0731918 20.8932
0.00707472 -0.0896581 21.0239
0.0298202 -0.0991074 20.5031
1.24463 -1.68311 19.1234
0.676882 -0.745378 19.158
0.626163 -0.587177 19.6914
1.11045 -1.59129 22.0992
1.85104 -1.71699 20.4707
-0.0577318 -0.231907 21.8915
0.432424 -0.70987 21.7631
-0.60758 0.717284 21.6804
-0.222455 -0.150564 21.8945
-1.13247 1.73719 19.5522
-1.15145 0.715182 21.7314
-1.56503 2.04223 17.9825
-2.17792 1.75579 13.2388
-1.6333 0.957018 21.0933
-2.41365 1.27271 15.1506
-1.81023 0.882632 19.4629
0.948115 -0.381083 18.5629
0.854976 -0.502839 19.3529
-2.32912 1.08122 8.89489
0.8632 -0.529439 0.306297
-2.20013 -0.0457853 17.7924
-1.93409 -0.910068 6.70774
-2.17715 -0.58278 18.5753
0.734661 0.65619 19.0332
1.03064 0.0101025 19.1403
0.0818196 -1.16959 15.8477
0.107775 -0.304504 21.525
-0.129096 -1.01023 20.5405
-0.17426 -0.438891 21.3122
-0.35271 -1.02611 21.657
0.629017 0.952132 19.7333
0.496258 0.424596 19.7837
0.798409 1.24778 20.4412
0.821391 0.832537 20.1874
0.547955 0.691925 21.3742
0.861175 0.774769 21.0095
0.221129 -0.00441779 21.8648
0.523247 0.280473 21.6122
0.0173818 -0.0944797 21.3783
0.10029 -0.112862 21.6285
-0.0995104 -0.105863 20.5407
-0.0709019 -0.0852654 21.105
-0.0512177 -0.0940713 20.589
0.986703 -0.664328 20.0383
0.678024 -0.391143 19.8048
0.94935 -0.786302 21.2581
1.60102 -0.909162 20.4873
0.154139 -0.393667 21.6476
0.636852 -0.656899 21.5781
-0.474325 -0.0142603 21.7861
-0.0832037 -0.323827 21.7883
-1.05182 0.313019 21.512
-1.05071 0.0140074 21.7356
-1.31426 0.229942 21.1679
-1.51147 0.0661251 21.2874
-1.47471 -0.191233 20.6184
1.35171 -0.558051 19.7654
0.858452 -0.207514 19.6184
1.45154 -0.818036 21.358
2.30805 -0.361527 20.3371
0.336177 -0.563736 21.7479
1.29744 -0.695825 21.6312
-0.527794 -0.319318 22.0221
0.268507 -0.593715 21.9967
-1.36343 -0.352394 21.6433
-0.644013 -0.904261 21.8241
-1.67289 -0.361418 20.9048
-1.07374 -1.1178 21.3247
-0.912318 -1.05677 21.1724
1.61557 0.103121 19.6539
0.742069 0.272183 19.7011
2.00976 -0.034063 21.0272
1.42602 0.625896 20.2287
1.246 -0.361281 21.9098
1.42572 0.491217 21.1979
0.308528 -0.556165 22.0204
0.68642 0.0763012 21.7982
-0.169861 -0.775821 21.6805
0.203192 -0.272415 21.6223
-0.371631 -0.943116 21.4573
-0.0076783 -0.353081 21.3948
-0.0147313 -0.27607 21.401
0.685838 0.447782 20.0697
0.85269 0.525337 20.6706
0.652929 0.297455 21.2424
0.282161 -0.0104651 21.7916
-0.00186129 -0.096879 21.2566
-0.107324 -0.0429529 20.5986
-1.1625 -0.684219 19.8989
-1.60005 -1.9147 18.4216
-1.21511 -1.17902 19.6222
-1.86203 -1.00406 19.0682
-0.728673 -0.600372 19.4711
-2.83905 -2.07521 20.3172
-1.173 -0.853132 21.3251
-0.74667 -1.05926 18.8841
-1.07666 -1.17908 21.6229
-1.60018 -1.49136 22.082
-0.464468 -0.815688 21.9155
-0.211766 -0.488958 21.6936
0.656464 -0.297696 16.7833
-0.0368475 -0.378476 21.8038
-0.000511228 -0.755414 21.2609
0.23896 -0.333544 21.9294
0.541785 -0.137156 21.898
0.68799 0.542273 15.3371
0.651927 0.273131 22.0109
0.875125 -0.150109 20.2125
1.73557 0.527625 20.5438
1.29942 0.0259566 21.549
1.70086 1.52595 12.6044
1.38174 0.821763 21.3319
1.95278 -0.216095 18.011
2.12157 0.5801 19.8633
1.41594 -0.0572606 21.3847
2.6357 1.73471 15.3006
1.80889 0.793997 20.5415
2.4162 -0.610052 19.6426
1.95894 -0.0516277 19.9604
-1.60333 -0.277597 19.6567
-2.82506 -0.73578 16.5706
-2.3278 0.317925 18.7932
-0.965312 -0.265723 19.1746
-4.9093 -0.523457 19.9401
-1.85333 -0.542287 21.2739
-3.12639 -0.102113 21.2871
-1.40384 -1.58465 20.834
-0.740831 -0.699113 21.9055
-2.00942 -0.787892 22.4179
-0.0477864 -0.743241 19.0064
0.202986 -0.715613 22.0236
-0.462389 -0.617933 20.6376
0.765507 -0.663658 14.4836
0.777251 -0.94358 21.7306
-0.374094 -1.34451 0.747993
0.005087 -0.860813 20.3633
1.19962 -1.1373 19.3388
1.10559 -0.981936 21.3589
1.19265 -1.26888 8.13868
0.266625 -1.28061 21.7958
1.17548 -1.8094 21.8808
-1.12088 0.471253 19.8636
-1.34789 1.54655 18.9233
-0.697335 0.660478 19.9109
-0.790054 0.430871 19.4197
-1.75871 1.19916 19.9793
-1.45177 0.543549 20.6986
-2.02066 2.0288 20.0943
-0.914597 0.837319 20.5735
-1.95609 1.04358 21.1692
-1.06696 0.258496 21.6099
-1.6399 1.49984 22.1235
-0.753338 0.463959 21.3873
-0.800856 0.263435 21.9938
-0.366645 -0.114928 21.7401
-0.455989 0.2149 21.9736
-0.305327 0.0264645 21.5779
-0.230347 -0.175896 21.6871
-0.128213 -0.346927 21.6492
-0.17352 -0.253539 21.6968
-0.0217261 -0.0943327 21.1909
-0.0324512 -0.339381 21.5493
0.0739206 -0.414148 21.2786
0.0758674 -0.314987 21.1371
0.055714 -0.0949054 20.7929
0.0563651 -0.344718 21.2694
1.62768 -1.82623 18.5185
0.0520198 -2.59853 18.3721
0.037682 -2.6774 15.9431
0.0196265 -0.991731 18.7316
0.0846869 -10.5741 19.4202
0.821317 -1.12162 19.8481
0.0457384 -2.44073 22.8179
-0.00384372 -0.0366582 9.90937
-0.595106 -0.300229 16.7972
0.00749047 -0.316429 21.1235
0.00788394 0.117647 12.2224
-0.614671 0.573657 14.6053
0.015093 0.646894 19.5707
0.0148742 0.698185 6.58809
-1.55867 1.62743 11.6168
0.0248743 1.47516 16.949
0.0364758 -0.19052 1.02171
0.177255 1.52063 6.9921
-2.33076 1.91182 14.2246
0.0571522 2.29892 14.0526
0.370258 2.50807 0.31498
0.182457 3.08529 8.52108
2.87982 -0.757609 16.5798
0.0333842 1.9724 13.6879
0.0321075 -0.48282 17.8827
0.46362 -1.32175 -0.244003
0.023528 0.196081 3.98266
-0.112593 2.56377 -3.06965
-1.16633 -1.2452 5.13292
0.0350721 -0.906872 10.3968
0.0824715 4.50779 -1.25198
1.34146 1.57035 18.9032
-0.0176136 1.24928 19.5146
-0.00221518 0.90634 18.5972
-0.0280273 3.39198 19.2474
2.00339 2.10983 20.0568
-0.0274787 1.62563 20.3354
-0.0646083 4.48058 20.4625
1.63221 1.61544 22.1772
-0.0510964 1.0175 21.4776
-0.0417092 1.12647 22.4313
0.442518 0.250785 21.9932
-0.00365793 0.152623 21.6914
-0.0151677 0.0707403 21.8404
0.179435 -0.250377 21.7047
0.00580255 -0.0774331 21.1959
-0.0267628 -0.2314 21.6352
-0.0556427 -0.329727 21.2022
-0.0558153 -0.117051 20.6704
-0.0513983 -0.308887 20.6101
1.15085 -0.65466 19.9327
1.19058 -1.10932 19.6967
1.85151 -0.985694 19.1091
0.738206 -0.581438 19.5098
2.74644 -1.98246 20.3154
1.18522 -0.828354 21.309
1.07431 -1.16625 21.5717
1.65889 -1.51606 22.0514
0.487916 -0.836401 21.9019
0.226777 -0.492002 21.7033
0.0455533 -0.39548 21.801
0.0414148 -0.763831 21.2605
-0.240494 -0.340342 21.9246
-0.529896 -0.148872 21.8888
-0.665651 0.277577 22.0075
-0.880042 -0.19612 20.3574
-1.70964 0.505197 20.5183
-1.31309 0.0221059 21.5545
-1.40178 0.865411 21.291
-1.93914 -0.192429 17.4614
-2.23431 0.697116 18.9643
-1.4988 0.0117976 21.4033
-1.8573 0.843141 20.5292
-2.55562 -0.481311 18.6461
-2.01767 0.0960652 19.6392
1.59694 -0.275381 19.6674
2.31708 0.314777 18.8024
0.969233 -0.263832 19.197
5.0422 -0.505693 19.9218
1.87158 -0.525343 21.2815
3.12862 -0.0960395 21.2669
1.4187 -1.53976 20.9511
0.742144 -0.680812 21.9006
1.997 -0.779192 22.4186
0.0623714 -0.783137 19.296
-0.197038 -0.69097 22.0167
0.473813 -0.6281 20.717
-0.804035 -0.688903 15.2761
-0.792492 -0.952018 21.7374
-0.0201069 -0.866661 20.0541
-1.05957 -1.13626 16.5569
-1.17468 -1.00597 20.7586
-0.18054 -1.32397 21.7279
-1.24285 -1.67962 19.8918
1.13007 0.490126 19.8509
0.694885 0.684185 19.8908
0.789986 0.433084 19.4159
1.76386 1.24928 19.9622
1.48225 0.579536 20.6909
0.901585 0.872868 20.5664
2.00047 1.1237 21.1603
1.09738 0.295865 21.6233
0.758085 0.522079 21.3921
0.814123 0.293622 22.0175
0.362373 -0.120943 21.7405
0.303596 0.0188841 21.5939
0.228784 -0.163863 21.7012
0.131887 -0.357955 21.6914
0.0358197 -0.0926354 21.1792
0.0467611 -0.336312 21.587
-0.0646076 -0.441707 21.3482
-0.0608694 -0.0910516 20.8939
-0.0389473 -0.414426 21.1736
-1.54444 -1.14785 19.3238
-1.28123 -1.2737 21.8407
0.0159847 -0.517404 21.888
0.897734 0.0988708 21.8116
1.93144 0.517804 20.3763
2.05967 0.457868 19.8943
-2.3323 -0.43208 18.7156
-2.64701 -1.11925 21.9534
-0.524516 -1.39134 20.0422
0.498632 -0.420478 17.407
0.774284 -0.949371 16.8502
1.43508 -1.2174 18.5455
-1.32094 0.861485 19.48
-1.88089 1.10699 20.5164
-1.43954 0.658541 21.837
-0.432645 0.0276053 21.83
-0.157347 -0.32039 21.6778
0.0785425 -0.416755 21.2846
0.0527795 -2.82336 17.2594
-0.0103762 -0.798126 10.6471
-0.00177048 0.00927705 10.4665
0.0253124 0.528632 10.0202
0.0233864 0.560194 5.85436
0.25721 2.21622 7.93745
0.0397773 -1.04893 13.9828
-0.0587784 0.127022 -0.96043
-0.204958 3.86774 -4.35318
-0.0154204 2.43707 18.2764
-0.0468468 3.24653 19.4442
-0.0536504 2.56298 22.3218
-0.0197577 0.475127 22.0881
-0.0226623 -0.186439 21.7629
0.0298188 -0.39587 21.4798
1.52558 -1.1003 19.3751
1.31904 -1.28797 21.7885
0.00249805 -0.53908 21.8778
-0.907921 0.0912147 21.7585
-1.95292 0.576048 19.8186
-2.21243 0.667735 18.9916
2.32799 -0.431188 18.7419
2.68721 -1.04426 21.9793
0.539422 -1.39266 20.2621
-0.486734 -0.505521 17.834
-0.749651 -0.876219 15.6024
-1.41622 -1.26189 16.625
1.32244 0.878087 19.4661
1.90237 1.15729 20.4995
1.46925 0.728386 21.8476
0.42824 0.0416495 21.8528
0.157871 -0.313558 21.6806
-0.0763841 -0.37567 21.1799
-3.72391 -1.00296 2.20747
-0.429486 -1.73126 0.872374
-0.00106448 -0.009043 0.297657
-0.00987554 -0.0371958 0.00503923
0.016237 -0.0802306 -0.00269925
0 0 0
-2.7578 0.219086 2.27156
-0.21603 1.04483 1.50917
-0.760916 -0.202592 2.08002
-0.11049 0.0136228 -0.0414357
-0.0121399 -0.0246391 0.244538
0.00486289 -0.012621 0.611122
0.271392 -1.23983 0.671838
0.948886 -0.257324 0.676199
3.767e-05 -0.000275843 0.00763446
-0.00826772 -0.0738341 -0.00593793
0.0111558 -0.0637887 0.0213055
0 0 0
0.231758 1.09663 1.54037
2.71557 0.250573 2.18984
0.758472 -0.196292 2.08134
0.0184146 -0.0269767 0.245525
0.086813 0.00811697 -0.0312271
-0.00403311 -0.0134667 0.610265
-0.755761 -0.476105 7.14904
0 0 0
1.35097e-05 -4.52621e-05 0.00331464
-1.89788e-18 -2.90136e-19 -1.15678e-17
0.0342256 -0.0235268 1.61824
4.53509e-19 -5.97433e-18 -1.32713e-16
0 0 0
0 0 0
0 0 0
-0.0351492 -0.0336752 0.363858
0.000522805 0.00254444 0.00832666
-0.0342239 0.0404454 0.0667504
0.00521022 0.0107639 0.0965306
5.42069e-06 1.6719e-05 6.59058e-05
0.000178345 0.00081317 0.00401774
0.000459403 0.000815959 0.0231797
1.3361 -0.380518 5.59249
2.09431e-18 -3.71447e-19 -1.38245e-17
0 0 0
0 0 0
0.0045863 -0.00323873 0.338586
-0.00567265 -0.00117243 0.0597565
0.000201339 0.00101985 0.0192089
0 0 0
0 0 0
0.0340143 0.0398584 0.0659169
0.0375364 -0.0367475 0.3864
-0.000382746 0.00181906 0.00599341
-0.00511909 0.0106071 0.0969434
-0.000294227 0.000560758 0.015829
-7.12964e-06 2.38602e-05 0.000107704
-0.000171754 0.000786587 0.00391398
0 0 0
-0.209623 -0.0401682 0.0836375
-7.28793e-07 -8.9826e-05 0.00233349
0.000717492 -0.0119192 0.00419965
0 0 0
0 0 0
0.000759916 -0.00154452 0.0144815
0 0 0
1.68228e-05 0.000168325 0.00142287
9.5125e-05 -0.00611507 0.000572385
0.00286307 0.0036354 0.0607558
0.000187766 0.000243217 0.00391697
0 0 0
4.59536e-06 0.000515849 0.00357588
-0.00207864 -0.00955781 0.0185114
0 0 0
0.00014938 0.000162078 -0.000410266
0.000211342 -0.000613695 0.0430882
0.000801933 0.000631413 0.0201123
0 0 0
0.204614 -0.0394352 0.0814229
0 0 0
0 0 0
0.00133234 0.00178768 0.0532412
0 0 0
-0.00148752 -0.00249156 0.0259295
-8.70435e-05 0.000230126 0.00369385
-0.00852886 0.0139617 0.245729
0 0 0
0.00127644 -0.00596081 0.0117537
0 0 0
-0.000805142 0.000637579 0.0202583
0 0 0
0 0 0
0 0 0
-4.76862e-05 0.00238937 0.0127482
-0.00154029 -0.0773297 0.408073
1.03844e-07 4.84338e-07 3.94803e-05
0 0 0
0.00206835 0.00634742 0.0442612
-2.05187e-05 0.00061631 0.0191309
-1.81735e-05 0.000845634 0.0144135
1.20919e-17 3.13125e-17 9.53437e-17
-0.000679832 0.000139806 0.0074335
0.000658904 -0.0118119 0.000798573
0.00220827 0.159933 0.741885
0.000108729 0.0244565 0.273051
9.55431e-06 4.94825e-05 0.0322651
8.84176e-18 -1.11286e-18 -1.00313e-16
0 0 0
0.000157319 -0.00165217 0.00503204
-1.65314e-05 0.00113791 0.00540383
-6.13626e-05 0.000428061 0.00156703
-0.0021539 0.00620179 0.0438384
0.00105622 0.000304482 0.0109671
0 0 0
0 0 0
-6.04744e-17 -1.55485e-17 1.74115e-16
0 0 0
0 0 0
0 0 0
0 0 0
0 0 0
0.000178551 0.000610419 0.0018477
-9.35033e-06 0.000843506 0.0206371
-0.00121296 0.0183696 0.0951757
0.00122087 -0.00345192 0.0106257
6.0827e-06 -4.52552e-06 0.000146077