# vtk DataFile Version 2.0
tri_press
ASCII
DATASET UNSTRUCTURED_GRID
POINTS 3682 float
-0.695 0.665 -2.05153
-0.695588 0.795 2.105
-0.73323 1.155 -1.935
-0.535 1.935 1.88058
0.697507 0.665 -2.045
0.715772 0.795 2.105
0.73323 1.155 -1.935
0.535 1.935 1.88062
-0.790864 0.612665 -0.66602
-0.839702 0.607357 0.71949
-0.742706 1.49055 -0.66314
-0.678035 1.75196 0.60872
0.795236 0.616692 -0.661667
0.841348 0.620003 0.721667
0.742636 1.49048 -0.663127
0.678041 1.75196 0.608747
-1.43108 0.105072 -3.10792
-1.44643 0.215611 -2.04532
-1.51206 0.172161 -0.657022
-1.53677 0.123305 0.754196
-1.45498 0.239013 2.14441
-1.42788 0.380111 3.21645
-1.43625 0.522583 4.27095
-1.43486 0.476471 -3.0916
-1.44624 0.629659 -2.04121
-1.51787 0.641508 -0.674734
-1.52514 0.647407 0.702107
-1.39761 0.792479 2.07073
-1.39262 0.93324 3.14106
-1.42011 1.06898 4.19914
-1.45192 1.12078 -3.02624
-1.46256 1.26463 -1.97023
-1.47768 1.52295 -0.681058
-1.40802 1.73936 0.600107
-1.27496 1.91804 1.8913
-1.32983 2.04761 2.96621
-1.39572 2.16625 4.04245
-1.47289 2.32462 -3.01381
-1.47719 2.51251 -1.97523
-1.47236 2.85115 -0.722639
-1.44118 3.20072 0.505473
-1.40475 3.46443 1.75896
-1.4061 3.6163 2.79942
-1.43016 3.73998 3.86347
-0.696309 0.126682 -3.11372
-0.696362 0.246504 -2.05445
-0.75668 0.163684 -0.654384
-0.804038 0.0935777 0.769233
-0.746422 0.22918 2.16984
-0.731417 0.37568 3.23382
-0.741319 0.520331 4.28123
-0.701776 0.483037 -3.09264
-0.716495 0.934448 3.15543
-0.736507 1.07015 4.20697
-0.719072 1.07727 -3.01144
-0.671612 2.05801 2.96434
-0.725964 2.17384 4.04238
-0.742141 2.28812 -2.99923
-0.747317 2.47442 -1.95933
-0.75135 2.83499 -0.712891
-0.741846 3.20964 0.504867
-0.726118 3.48138 1.75156
-0.730865 3.63133 2.79203
-0.750257 3.75169 3.85825
0.74942 0.127667 -3.1095
0.752002 0.247703 -2.04921
0.802959 0.167985 -0.650461
0.805117 0.102695 0.771405
0.718964 0.2326 2.17058
0.675038 0.378428 3.23454
0.653954 0.523372 4.28212
0.733776 0.483595 -3.08858
0.642466 0.936268 3.1559
0.632434 1.07281 4.20774
0.733444 1.07765 -3.00943
0.57692 2.0594 2.96473
0.600352 2.17614 4.04308
0.718358 2.28908 -2.99769
0.713071 2.47534 -1.95812
0.694053 2.83613 -0.711926
0.653047 3.21117 0.505672
0.612354 3.48324 1.75228
0.601795 3.63347 2.7928
0.600334 3.75411 3.85912
1.48006 0.107507 -3.10041
1.4862 0.218676 -2.03696
1.54702 0.179685 -0.650383
1.55609 0.136815 0.758249
1.45947 0.247758 2.1465
1.3948 0.386701 3.21823
1.36519 0.529019 4.2729
1.46189 0.47816 -3.08445
1.45239 0.631364 -2.03296
1.52692 0.647599 -0.668423
1.54448 0.661089 0.705759
1.42493 0.799807 2.0723
1.35499 0.938678 3.14247
1.33679 1.07482 4.20086
1.45823 1.122 -3.02174
1.45518 1.26539 -1.96665
1.47318 1.52509 -0.678279
1.4164 1.74459 0.601906
1.2843 1.92283 1.89242
1.27171 2.05195 2.9674
1.2907 2.17135 4.04401
1.44748 2.32678 -3.01054
1.44161 2.51465 -1.97251
1.41905 2.85383 -0.720405
1.36548 3.20427 0.507333
1.30744 3.46861 1.76062
1.2893 3.6209 2.80111
1.28917 3.745 3.86532
-0.719528 0.91 -1.99868
0.00125352 0.647667 -2.0656
-0.750388 0.631377 -1.35877
-0.638709 1.365 2.0162
0.010092 0.783228 2.11677
-0.860994 0.60783 1.41225
0 1.24964 -2.02964
-0.710801 1.29561 -1.29907
0 1.95081 1.89641
-0.629025 1.86599 1.24465
0.694978 0.91 -1.96961
0.742023 0.645195 -1.35333
0.643067 1.365 2.01049
0.860849 0.625213 1.41333
0.710809 1.29562 -1.29906
0.629025 1.86599 1.24468
-0.800204 0.62509 0.0267351
-0.839414 1.05161 -0.66458
0.00218619 0.531643 -0.663843
-0.829847 1.17966 0.664105
0.000822883 0.528288 0.720578
-0.714405 1.62529 -0.02721
-3.53559e-05 1.68404 -0.663133
3.18209e-06 1.95629 0.608733
0.80625 0.630389 0.03
0.839441 1.05359 -0.662397
0.829482 1.18598 0.665207
0.714227 1.62511 -0.02719
-0.864484 0.980805 -1.32892
0.864552 0.981794 -1.3262
0.00171985 0.538243 -1.35605
-1.7678e-05 1.35021 -1.29907
0.000626758 0.91 -2.13468
-0.845008 1.11563 -0.000237465
0.844597 1.11979 0.001405
0.00150453 0.539445 0.0283675
-1.60869e-05 1.90813 -0.0272
-0.795846 1.27233 1.32845
0.795415 1.27549 1.32901
0.00545744 0.58151 1.41279
1.59104e-06 1.95915 1.24467
0.005046 1.365 2.05937
-0.69925 0.7875 -2.01709
-0.346873 0.664722 -2.05018
-0.733189 0.637693 -1.70515
-0.642143 1.08 2.0356
-0.342748 0.783565 2.11643
-0.703455 0.776251 1.75862
-0.715021 1.0325 -1.95548
-0.366615 1.24286 -2.02286
-0.755576 1.25887 -1.61703
-0.596047 1.65 1.95759
-0.2675 1.94572 1.89131
-0.587608 1.90609 1.56261
0.34938 0.665637 -2.046
0.685303 0.7875 -1.99637
0.728588 0.646275 -1.69917
0.362932 0.783627 2.11637
0.651066 1.08 2.02939
0.708537 0.789879 1.75917
0.366615 1.24238 -2.02238
0.715945 1.0325 -1.95415
0.755584 1.25887 -1.61703
0.2675 1.94579 1.8914
0.599565 1.65 1.95609
0.587606 1.90609 1.56265
-0.818621 0.574026 -1.0124
-0.797769 0.616643 -0.319642
-0.822272 0.828571 -0.6653
-0.413796 0.53324 -0.664932
-0.86468 0.593261 1.06587
-0.802059 0.634117 0.373113
-0.830498 0.895645 0.691798
-0.432414 0.541873 0.720034
-0.67634 1.34267 -0.981105
-0.816675 1.28389 -0.66386
-0.731069 1.56043 -0.345175
-0.402189 1.64893 -0.663137
-0.658585 1.81403 0.926685
-0.755671 1.46667 0.636413
-0.696533 1.68894 0.290755
-0.385772 1.94763 0.608727
0.821479 0.578094 -1.0075
0.419168 0.533254 -0.662755
0.80158 0.622704 -0.315833
0.823033 0.832292 -0.662032
0.864696 0.60901 1.0675
0.440428 0.53546 0.721123
0.808647 0.640348 0.375833
0.831615 0.904893 0.693437
0.675975 1.3423 -0.981095
0.402097 1.64885 -0.66313
0.816321 1.28468 -0.662762
0.730804 1.56017 -0.345158
0.658633 1.81408 0.926715
0.385623 1.94733 0.60874
0.754899 1.46954 0.636977
0.696541 1.68895 0.290778
-0.850946 0.945402 -1.6638
-0.359451 0.91 -2.10511
0.00148668 0.540563 -1.71083
0.000940137 0.778834 -2.10047
-0.843943 0.806091 -1.34385
-0.374334 0.537976 -1.35741
-0.768856 1.31866 1.67233
-0.316832 1.365 2.05153
0.00777471 0.626574 1.76478
0.00756899 1.07411 2.07994
-0.860304 0.940079 1.37035
-0.427768 0.581582 1.41252
-8.83898e-06 1.31418 -1.66436
0.000313379 1.07982 -2.10333
-0.815926 1.13821 -1.314
-0.355409 1.33912 -1.29907
7.95522e-07 1.95552 1.57054
0.002523 1.65791 1.99645
-0.728023 1.56916 1.28655
-0.314512 1.95294 1.24466
0.851339 0.945897 -1.6479
0.347802 0.91 -2.10689
0.84537 0.813494 -1.33977
0.371872 0.537952 -1.35469
0.769098 1.32025 1.66975
0.324057 1.365 2.04636
0.863135 0.950352 1.37117
0.433153 0.581621 1.41306
0.815398 1.13871 -1.31263
0.355396 1.33954 -1.29907
0.727461 1.57074 1.28685
0.314513 1.95295 1.24468
-0.831094 0.866118 0.0132488
-0.420584 0.539799 0.0275513
-0.831908 1.01621 -0.996751
-0.842209 1.08362 -0.332409
0.00195302 0.485408 -1.00995
0.00184536 0.537929 -0.317738
-0.838753 1.14765 0.331934
-0.820276 1.22599 0.996276
0.00116371 0.540962 0.374473
0.00314016 0.561044 1.06668
-0.783801 1.37251 -0.0137237
-0.42152 1.89533 -0.027205
-2.6517e-05 1.43553 -0.9811
-2.57214e-05 1.88817 -0.345167
-6.45242e-06 1.95167 0.290767
2.38657e-06 1.9607 0.9267
0.832055 0.871772 0.0157025
0.426428 0.539816 0.0291837
0.832068 1.01769 -0.994298
0.842017 1.08669 -0.330496
0.838473 1.15288 0.333306
0.819686 1.23074 0.997108
0.783234 1.37436 -0.0128925
0.421724 1.89586 -0.027195
-0.830574 0.796795 -1.68448
-0.817883 0.819114 -1.00457
-0.817435 1.20464 -0.988928
-0.810437 1.08535 -1.64042
0.831688 0.800497 -1.67354
0.813225 1.0856 -1.63247
0.81738 1.20537 -0.987696
0.818782 0.824317 -1.0009
-0.360604 0.540775 -1.70799
0.360626 0.540741 -1.705
0.385291 0.481735 -1.00872
-0.384337 0.48572 -1.01117
-0.361012 1.3066 -1.6407
-0.36339 1.40791 -0.981103
0.363348 1.40789 -0.981098
0.361005 1.30719 -1.64069
-0.353162 0.783167 -2.07503
-0.363033 1.05616 -2.0946
0.357209 1.05616 -2.09523
0.348591 0.783167 -2.07531
-0.826206 0.847583 -0.326026
-0.831441 0.880559 0.352523
-0.770571 1.42001 0.311344
-0.792558 1.32436 -0.338792
0.827392 0.852108 -0.323165
0.792305 1.32578 -0.337827
0.769915 1.42238 0.312042
0.832396 0.888052 0.35457
-0.416521 0.537857 -0.31869
0.422127 0.537878 -0.316786
0.43126 0.541975 0.375153
-0.425939 0.541956 0.373793
-0.45829 1.865 -0.345171
-0.411854 1.9379 0.290761
0.411044 1.93633 0.290773
0.458241 1.86502 -0.345163
-0.867699 0.916793 1.03107
-0.780957 1.01004 1.71547
-0.697697 1.60958 1.61747
-0.754087 1.51748 0.961481
0.867637 0.926673 1.0323
0.75243 1.51986 0.961911
0.697512 1.61037 1.6162
0.781291 1.01518 1.71446
-0.423604 0.561061 1.06628
0.427119 0.561125 1.06709
0.398043 0.626641 1.76197
-0.385258 0.627488 1.7617
-0.326764 1.95393 0.926693
-0.291006 1.95017 1.56658
0.291007 1.95007 1.5666
0.326768 1.95367 0.926708
-0.32979 1.07706 2.08235
0.343494 1.07706 2.06241
0.295778 1.65395 1.98697
-0.292166 1.65395 1.98582
-0.685122 0.72625 -2.02231
-0.520937 0.698795 -2.01692
-0.725677 0.639764 -1.87834
-0.623397 0.9375 2.02483
-0.519168 0.783708 2.11629
-0.704697 0.78045 1.93181
-0.724432 1.09375 -1.94555
-0.549922 1.21692 -1.99692
-0.761528 1.22406 -1.77602
-0.570922 1.7925 1.92448
-0.40125 1.94177 1.88735
-0.563557 1.9228 1.7216
0.523444 0.68741 -2.02341
0.673837 0.72625 -2.00311
0.72064 0.648044 -1.87208
0.539352 0.783838 2.11616
0.631519 0.9375 2.0153
0.72375 0.780844 1.93208
0.549922 1.21691 -1.99691
0.724863 1.09375 -1.94485
0.761578 1.22411 -1.77602
0.40125 1.9418 1.88742
0.57352 1.7925 1.92459
0.563551 1.92279 1.72164
-0.78779 0.610298 -0.839209
-0.796648 0.612323 -0.492831
-0.808596 0.719604 -0.66566
-0.644553 0.488507 -0.665476
-0.858961 0.593538 0.892679
-0.802889 0.638729 0.546301
-0.841424 0.748339 0.705644
-0.6747 0.497331 0.719762
-0.725436 1.43252 -0.822123
-0.754928 1.37484 -0.6635
-0.739218 1.52782 -0.504158
-0.593426 1.6117 -0.663138
-0.668714 1.7834 0.767703
-0.716934 1.60936 0.622566
-0.687284 1.72045 0.449738
-0.575341 1.93667 0.608723
0.78918 0.616571 -0.834584
0.650635 0.488108 -0.662211
0.801948 0.616158 -0.48875
0.809264 0.724428 -0.661849
0.858019 0.609509 0.894583
0.680965 0.497577 0.721395
0.80991 0.645263 0.54875
0.840479 0.760449 0.707552
0.725367 1.43245 -0.822111
0.593357 1.61165 -0.663128
0.756302 1.37599 -0.662944
0.739093 1.5277 -0.504143
0.668721 1.7834 0.767731
0.575345 1.93667 0.608743
0.716545 1.61079 0.622862
0.687292 1.72046 0.449763
[...]
POINT_DATA 3682
SCALARS point_scalars float 1
LOOKUP_TABLE default
-0.306573
-44.7371
-73.8569
-48.8478
15.487
-45.4154
-72.2909
-49.5167
-50.2537
-46.6146
-105.037
-56.7774
-49.5304
-49.3327
-105.163
-56.8863
-65.0425
-137.122
-63.9956
-49.7057
-66.6441
-44.7371
-44.3944
-65.0425
-138.441
-46.6985
-49.7057
-50.7388
-44.7371
-44.3944
-31.2802
-83.0778
-68.3458
-54.4898
-47.0036
-41.9252
-40.6319
-48.0259
-54.6812
-114.027
-62.7602
-47.0854
-48.9906
-48.9906
90.9115
-205.973
-56.6264
-49.6197
-48.7656
-44.3944
-44.3944
90.9115
-44.3944
-44.3944
164.414
-40.1811
-38.8387
-46.7286
-77.776
-102.495
-63.5627
-46.4721
-48.3012
-47.3049
22.0902
-184.96
-54.6018
-49.8578
-47.1729
-44.2085
-44.2085
22.0902
-44.3108
-42.9336
162.928
-41.1485
-38.8824
-32.9848
-72.4688
-102.587
-63.9732
-46.8466
-48.0483
-48.0226
22.0902
-149.667
-59.6685
-45.2442
-65.7474
-45.4154
-44.3108
22.0902
-178.354
-47.2346
-45.2442
-50.7023
-45.4154
-44.3108
12.1498
-83.6989
-68.7785
-54.6389
-47.55
-42.8974
-40.7521
-44.1096
-54.5874
-126.568
-62.7709
-47.8173
-49.6587
-49.6587
-27.03
29.6576
-56.9917
-41.8937
-43.5504
-62.7751
-67.0229
-22.2752
-44.5202
-51.8966
6.528
-55.1097
-42.3967
-61.4451
-22.2409
-52.1145
-42.753
-52.0409
-54.5947
-48.0056
-51.5423
-72.4408
41.1584
-66.8182
-43.1476
-52.7019
-48.296
-72.4489
-60.0329
-60.1652
-72.0619
14.8629
202.765
-52.0973
-52.2491
-44.5479
-84.8954
-54.0813
-54.197
-51.6701
-53.969
-40.3034
32.4903
68.9789
-96.2503
-43.6439
-43.5015
-52.5969
-41.587
-70.6819
-46.541
-41.3137
-45.4245
-48.2034
65.2181
60.4696
-96.0216
-43.6397
-44.1224
-51.9631
-67.9115
-37.4288
-45.9427
-45.918
-42.0224
-48.5349
-54.269
-44.994
-46.9227
-53.825
-52.129
-39.0729
-40.6479
-48.8692
-15.5185
-69.0269
-89.3214
35.6111
-54.4688
-52.8527
-61.9962
-64.5513
-41.6405
-53.7005
-45.1253
-47.5495
-52.1099
-49.7687
-39.2309
-41.5129
-14.8058
35.6231
-69.544
-89.4312
-54.582
-64.5849
-53.0738
-62.064
-105.637
185.552
-111.792
163.847
-58.6596
-68.6251
-49.9834
-37.9425
-49.4903
-42.9194
-59.8136
-52.4919
-19.9761
186.4
-54.1006
8.17608
-47.8711
-35.8486
-52.2727
-53.5058
-103.448
186.343
-58.5077
-68.055
-50.2013
-39.7272
-60.0917
-52.8658
-54.6331
8.09963
-52.4822
-53.6287
-45.8114
-43.8691
-49.8854
-52.8618
-62.0944
-47.3208
-49.2779
-52.501
-45.0366
-50.4873
-62.5341
-87.3416
42.8156
-139.166
-71.7838
-60.0092
-46.0732
-43.786
-49.483
-53.1627
-49.6098
-52.8071
-62.645
-87.0245
-98.2977
-50.8872
-56.2656
-70.456
-97.6474
-70.0156
-55.3945
-51.7119
-109.905
-109.095
-62.6579
-59.4224
-22.5599
30.9495
30.5586
-22.6656
155.315
170.105
172.469
154.838
-46.8312
-43.5218
-56.3042
-67.7133
-47.1875
-67.9183
-56.4855
-43.9456
-46.7212
-46.6089
-44.2752
-44.3856
-119.463
-67.2307
-66.8731
-122.226
-53.9132
-52.0525
-48.942
-52.389
-53.8752
-52.5702
-49.2919
-51.8344
-50.4498
-50.6101
-50.9171
-51.0995
-58.8411
-47.9305
-48.1345
-58.8651
-42.5317
-42.5655
-37.1499
-36.4153
37.5561
89.477
-142.619
-44.0147
-43.8065
-47.3412
-50.0977
-44.8006
-73.567
-42.9674
-46.4561
-47.2913
80.6814
66.0058
-158.739
-43.6832
-44.4013
-46.8518
-44.1078
-46.486
-73.3237
-47.0989
-43.6616
-47.716
-41.394
-46.8016
-46.4849
-55.6157
-48.216
-31.0766
-38.0907
-50.338
-57.7189
-83.5785
-101.803
-4.27414
-55.8409
-55.0147
-58.9234
-61.9385
-45.8112
-54.6551
-47.2221
-46.9256
-47.5009
-50.6088
-30.2133
-39.5516
-57.6947
-3.95802
-83.9059
-102.077
-55.9659
-61.9842
-55.1593
-59.0018
-13.69
-38.9176
-96.4482
145.394
45.6854
42.7579
-175.596
122.976
-71.0682
-43.5267
-57.0296
-63.5897
-43.2072
-41.1272
-48.9296
-38.5618
-43.4114
-43.5852
-47.5244
-43.1049
-66.8277
-54.1515
-60.2079
-51.7967
-67.217
-65.6159
-49.796
97.8548
-33.3782
-12.5632
-49.4285
-2.88239
-44.6473
-44.9092
-45.7093
-37.477
-50.4934
-53.2476
-51.7833
-52.7925
32.5867
-20.8667
-113.114
144.78
-65.8647
-42.0629
-56.3193
-62.1473
-43.4121
-41.8449
-49.1433
-39.824
-65.5675
-55.0575
-60.1987
-52.022
-33.4807
-12.4211
-49.9017
-3.00357
-50.8062
-53.3944
-52.0191
-52.9419
-43.8325
-41.9593
-44.2985
-43.6838
-48.6755
-58.4627
-50.8242
-52.8889
-54.3325
-54.3371
-61.8717
-50.5819
-45.0958
-51.1401
-48.2363
-48.9093
-51.4711
-51.8508
-43.9839
-50.7992
-80.4194
-66.1956
-67.2797
-83.0179
40.9262
41.1344
61.6315
-28.8334
-66.2597
-66.2578
-71.6792
-63.3492
-43.9664
-42.0295
-44.6214
-43.5968
-49.3322
-59.0148
-51.6663
-53.314
-45.4669
-51.5378
-48.6034
-49.1597
-80.4105
-66.2542
-67.3124
-83.144
-72.8302
-59.7218
-59.6205
-54.4582
-72.502
-59.7301
-60.1396
-53.9771
-86.9495
-71.351
-71.0867
-63.2953
-0.637708
13.359
13.261
26.268
198.527
186.049
200.802
198.648
-48.2663
-52.4436
-50.7788
-56.6119
-48.4739
-52.6651
-50.9932
-56.8777
-44.3732
-45.4916
-44.3525
-44.3327
-86.9534
-116.015
-69.8881
-86.9095
-51.9492
-57.3462
-52.8641
-54.8955
-52.0407
-57.3559
-53.0253
-54.5324
-52.2603
-51.9627
-52.008
-50.8187
-50.948
-53.8724
-53.9389
-56.78
-40.5924
-42.3697
-36.9645
-40.1003
-131.157
140.506
-177.994
126.924
-95.5974
-106.405
-50.7139
-42.413
-47.9848
-42.5536
-52.4296
-52.3505
-91.0224
120.702
-51.0695
117.299
-66.3986
-30.9491
-46.8924
-37.7922
-45.9562
-38.1683
-48.7789
-48.125
-176.896
125.468
-159.53
135.633
-95.5638
-104.536
-48.0541
-42.5477
-50.5765
-42.4925
-51.9205
-51.6401
-51.3027
115.024
-91.0761
121.258
-66.2932
-30.828
-46.2417
-38.7114
-47.3456
-38.5597
-49.1391
-48.3874
-55.7513
-44.4536
-45.3636
-46.9687
-46.6777
-47.0963
-61.9692
-49.92
-54.1706
-49.816
-41.6049
-43.4647
-42.0981
-47.3047
-43.8086
-50.5768
-56.8296
18.2642
-66.4611
-70.6148
-76.6977
-130.394
50.8213
-16.2131
-53.3438
-57.3924
-54.2306
-51.6316
-59.2571
-65.112
-69.7151
-61.46
-55.9599
-53.8399
-61.3839
-49.8509
-45.7059
-46.3805
-47.6531
-47.5486
-52.8455
-49.8672
-43.4833
-50.866
-42.0433
-43.3038
-42.7729
-46.9433
-56.5405
17.3906
50.6328
-16.1315
-66.7403
-70.5724
-76.8905
-130.595
-53.4466
-57.4567
-69.5964
-61.4989
-54.4617
-51.8754
-59.3456
-65.0527
-98.9241
-96.0803
173.096
184.363
-111.446
-111.171
161.439
161.203
-71.1177
-54.026
-84.093
-59.3252
-51.0232
-49.1853
-43.0194
-36.4474
-49.8041
-49.8177
-42.7998
-42.7963
-56.6702
-57.3909
-51.1215
-55.0043
-19.8973
-20.0139
182.021
181.755
-50.1101
-63.1445
-6.91681
19.1179
-47.8979
-48.0097
-36.2004
-35.7751
-50.7551
-53.5459
-56.1242
-50.6622
-98.9818
-90.9356
185.737
172.93
-71.1867
-53.4859
-83.5246
-58.9407
-49.4895
-51.022
-41.7102
-37.16
-56.319
-57.0992
-51.311
-54.8609
-63.3229
-52.3961
19.0587
-6.92814
-53.6965
-51.0174
-50.9895
-56.2127
-46.3174
-45.0381
-44.8549
-43.6795
-49.5316
-51.0072
-49.1072
-58.2671
-62.0721
-61.4802
-47.049
-47.1202
-46.3365
-53.0701
-51.7406
-52.3791
-44.7785
-44.8749
-50.4491
-50.5173
-59.3532
-65.5557
-116.756
-68.9493
39.3896
39.0049
-138.379
-139.866
-70.8803
-70.7018
-59.6781
-59.6819
-46.6019
-45.3101
-44.7598
-43.5936
-47.6435
-49.6435
-49.4768
-58.5533
-53.335
-46.693
-52.4439
-52.6109
-65.6845
-59.3716
-69.374
-116.362
-136.443
-70.0937
-72.2082
-115.758
-45.0387
-48.2974
-55.4193
-49.2234
-89.5159
-48.7439
-52.289
-55.9106
-88.4904
-88.016
-72.6345
-57.1462
-158.392
-143.795
-72.3172
-69.2603
-88.0731
-57.2585
-72.6228
-87.5506
-89.8925
-56.7891
-52.5981
-49.1808
-46.8278
-48.6207
-55.3669
-49.1326
-196.634
-175.325
-86.3904
-79.4543
-188.169
-78.532
-86.0953
-174.522
-63.7291
-61.8159
-62.2716
-49.7286
-59.8016
-52.5299
-62.4829
-61.8065
-57.182
-15.2935
-1.61815
-49.714
24.6449
58.6872
24.5223
6.73479
24.3686
6.51901
24.3835
58.5707
-57.0114
-49.9723
-1.62211
-15.4846
111.605
149.082
183.069
125.565
90.3866
121.621
199.01
132.831
92.4936
134.785
199.103
118.425
112.096
125.659
183.015
142.314
-45.9207
-44.7796
-48.6503
-49.1136
-39.951
-45.326
-47.5719
-43.5351
-56.7615
-62.7659
-55.1714
-51.5772
-81.3037
-59.0488
-57.8758
-72.0199
-46.3799
-49.5911
-48.9195
-45.12
-81.5167
-72.1256
-58.0884
-59.5138
-56.8708
-51.8109
-55.2781
-62.827
-40.4745
-43.86
-47.9051
-45.7462
-51.2595
-50.3902
-45.3112
-44.6806
-50.8569
-44.6171
-45.3121
-50.3818
-42.1051
-43.5563
-44.1779
-43.0916
-42.2653
-43.1543
-44.2142
-43.6626
-72.2638
-110.739
-116.61
-23.4985
-64.0709
-71.0131
-69.6118
-70.5599
-64.0655
-70.6857
-69.9309
-70.9395
-72.4262
-23.2568
-116.087
-110.739
-48.8983
-56.0254
-58.036
-46.2695
-48.0204
-50.114
-54.1754
-63.0484
-47.3712
-50.3147
-51.1248
-47.3345
-53.4317
-49.638
-53.943
-53.3068
-49.2265
-46.7066
-57.6957
-56.4103
-53.6122
-53.4698
-54.0357
-49.7209
-47.8424
-47.6682
-51.3188
-50.6016
-47.897
-61.97
-54.0257
-50.1484
-48.4648
-50.6903
-50.8851
-51.2161
-49.154
-51.3609
-50.9462
-50.7781
-48.2588
-47.6981
-52.7671
-66.7481
-48.7161
-63.2171
-52.8083
-47.6475
-59.0158
-55.3788
-56.7014
-62.7564
-46.3039
-45.7288
-50.8298
-50.3539
-46.6746
-50.5977
-50.9158
-45.8837
-59.0935
-62.7657
-56.7527
-55.4816
-42.8578
-43.0882
-41.2652
-42.7147
-42.8859
-41.692
-42.154
-43.0305
-39.7451
-37.938
-36.9405
-38.3548
-39.1922
-37.5465
-36.5899
-37.6021
119.28
108.596
-190.191
-43.9972
-44.5856
-44.8605
-60.7961
-28.0443
-88.4767
-45.8711
-46.9992
-46.4858
99.1593
64.8517
-162.377
-45.0736
-44.216
-44.734
-26.2331
-58.2721
-87.7497
-47.7498
-46.5462
-47.0384
-49.587
-46.817
-47.1159
-58.7944
-42.9451
-49.098
-40.0488
-49.8982
-92.3436
-96.2254
-109.716
-68.6571
-56.0421
-55.8771
-57.731
-59.446
-48.4397
-55.9211
-47.0612
-47.4924
-44.7685
-50.7957
-45.2442
-40.8384
-92.3529
-68.2772
-96.497
-110.162
-56.1599
-59.5083
-56.0042
-57.8148
-24.2946
-35.2641
-73.8176
103.992
34.2528
33.0626
-180.128
89.7235
-62.9531
-50.8287
-55.8984
-59.8537
-42.8157
-41.4552
-46.9159
-39.7125
-43.4869
-43.4578
-47.3506
-42.9176
-68.9932
-56.0128
-61.2529
-56.3813
-68.136
-67.4732
-69.0186
-4.27651
-28.6164
-17.9471
-42.8761
-10.4961
-44.5167
-44.6403
-44.1216
-39.5443
-50.8211
-52.1297
-51.8296
-52.2932
19.8684
-6.20888
-71.8198
94.8215
-63.0059
-48.6169
-55.2464
-57.6774
-42.8728
-42.1269
-47.5854
-40.7272
-67.5614
-56.8059
-61.1849
-56.1166
-28.6421
-17.8391
-43.1487
-10.5729
-51.0966
-52.3214
-52.0687
-52.401
-43.4049
-42.3914
-43.0491
-42.5706
-50.0946
-54.8152
-51.3346
-52.6169
-54.5332
-54.5323
-57.5828
-52.3011
-46.6048
-49.4556
-47.9897
-48.1525
-51.3571
-51.5615
-47.4795
-51.7508
-76.3152
-69.0725
-69.5806
-77.8119
40.5445
40.8732
58.0876
16.4212
-66.6606
-66.657
-69.15
-64.9933
-43.6591
-42.7344
-43.4588
-42.6191
-50.7924
-55.3891
-52.0697
-53.1366
-46.9358
-49.77
-48.3332
-48.3963
-76.4783
-69.107
-69.5822
-77.8287
-65.1883
-59.9955
-60.9579
-57.3892
-65.2098
-59.9986
-61.2787
-57.4627
-78.6748
-72.0018
-71.8787
-67.1003
7.52867
14.5288
14.4712
21.3071
200.476
195.456
204.654
201.147
-50.0865
-52.473
-51.5787
-54.0822
-50.2626
-52.6097
-51.7557
-54.2318
-44.5101
-44.9191
-44.3404
-44.4835
-85.0917
-98.0905
-76.5943
-85.0759
-53.1321
-55.3737
-53.235
-54.3908
-53.175
-55.368
-53.3653
-54.3115
-52.2417
-51.7465
-51.7568
-51.1933
-52.0351
-53.977
-54.0109
-55.5776
-40.2128
-41.5801
-38.6722
-40.2493
25.6725
-0.451342
-77.2145
137.396
74.0121
51.587
-177.158
100.341
-115.871
-82.1729
-94.7577
-103.51
-44.1949
-43.3345
-47.7347
-42.5532
-43.3891
-43.5394
-47.7009
-42.8652
-49.2557
-55.3666
-52.8516
-52.7816
-42.5394
-37.8819
-106.016
67.5033
-62.8955
-74.1902
-66.9732
31.6321
-61.3522
-41.9133
-57.8249
-35.8941
-41.6053
-40.8649
-46.141
-38.9147
-46.111
-44.929
-44.6921
-39.9641
-47.2458
-49.5524
-48.3988
-48.5994
72.3062
49.5594
-181.264
97.7136
66.9132
51.7274
-92.1924
119.378
-117.199
-83.0927
-94.7361
-101.539
-43.5764
-43.4604
-47.8872
-42.9483
-44.5565
-43.6994
-47.8736
-42.6976
-48.4566
-54.7302
-51.9311
-51.8655
-61.0749
-70.6571
-67.5852
26.2798
-37.6244
-31.6662
-102.293
71.8189
-61.2567
-41.6298
-57.378
-35.9728
-46.6287
-45.301
-45.055
-40.7971
-42.4073
-41.6127
-46.7678
-39.6435
-47.6106
-49.8654
-48.7548
-48.906
-55.1844
-32.219
-53.8374
-44.3393
-45.904
-44.5683
-44.8855
-45.8668
-46.513
-47.6295
-46.716
-47.107
-54.1442
-54.025
-56.9719
-51.5808
-50.4696
-53.8757
-53.3885
-51.492
-36.1592
-40.8496
-40.0885
-40.4394
-38.7839
-43.4168
-41.5789
-41.5237
-49.6502
-50.1089
-46.1704
-50.5777
-31.0873
-10.0312
-41.4288
4.40836
-75.3612
-63.3075
-66.9182
-70.9259
-95.3001
-84.77
-83.2054
-115.819
25.2125
39.4734
46.9521
13.1388
-54.464
-53.9279
-53.9035
-55.7397
-53.8785
-52.1555
-53.4938
-52.2417
-60.2404
-63.8527
-60.7525
-64.0986
-63.2508
-65.5827
-67.2346
-63.1074
-60.756
-29.0873
-53.3117
-32.4866
-53.7089
-54.0143
-56.7668
-51.4945
-46.4365
-44.1869
-45.1156
-45.3419
-47.1052
-48.2639
-47.4908
-47.6314
-49.48
-54.7613
-51.4557
-51.1341
-49.5267
-51.503
-45.8971
-51.5089
-36.2908
-40.9393
-40.5686
-40.8377
-40.177
-43.8623
-42.3579
-41.6728
-31.1587
-9.68519
-41.3501
3.68794
25.2241
39.4227
46.7483
13.3161
-75.7299
-63.8633
-67.3095
-71.2723
-95.4315
-84.7998
-83.3476
-115.926
-54.5977
-54.0622
-54.0276
-55.8307
-63.2997
-65.5991
-67.1808
-63.1445
-54.0448
-52.449
-53.7143
-52.4436
-60.3018
-63.9191
-60.8225
-64.0882
-116.965
-85.2207
-102.845
-102.643
168.237
192.948
180.271
187.103
-132.805
-97.6375
-111.899
-111.755
145.816
175.417
163.52
163.436
-58.0878
-59.7136
-63.983
-55.2317
-66.4696
-70.3218
-75.4764
-63.4224
-49.0273
-50.9537
-50.5319
-49.508
-37.9908
-38.7138
-41.5516
-37.5245
-48.5498
-50.9454
-49.5484
-49.5487
-43.0286
-42.7205
-42.889
-42.8664
-59.4955
-59.6221
-57.3165
-61.7621
-52.0699
-52.2859
-51.6548
-54.1805
-31.989
-10.8471
-19.6482
-19.7035
152.142
194.932
185.424
185.373
-53.9599
-56.1046
-50.3844
-58.8536
3.06564
11.2507
1.22347
14.2924
-46.9034
-49.5765
-47.8783
-47.935
-36.5985
-35.9215
-35.9978
-35.7628
-51.9811
-52.6234
-51.5935
-52.8899
-53.2059
-53.7479
-54.9248
-51.7567
-120.576
-84.5391
-101.914
-102.41
171.453
192.664
187.887
180.779
-57.7511
-59.3083
-63.7696
-55.195
-65.5655
-69.9299
-74.8926
-62.8786
-49.2603
-51.0618
-49.7506
-50.7058
-39.7064
-39.924
-40.8668
-38.3685
-59.1434
-59.7398
-56.708
-61.7144
-52.7951
-52.4194
-51.9329
-54.3702
-54.5063
-56.5755
-59.2312
-51.796
3.08056
11.1534
14.2353
1.14722
-52.2045
-52.8112
-53.083
-51.816
-53.3546
-53.8425
-51.903
-55.0366
-44.9767
-46.903
-46.0469
-45.5232
-43.8494
-44.1452
-44.2739
-43.6748
-49.9747
-51.2563
-49.3136
-50.2741
-52.9704
-52.6768
-50.7782
-55.3319
-69.2647
-58.9855
-62.9515
-62.4047
-48.8593
-46.1999
-47.3187
-47.3134
-48.6699
-49.9585
-47.8138
-50.8728
-50.5852
-54.475
-52.7115
-52.5033
-44.8281
-44.6034
-44.969
-44.9848
-50.2385
-50.6219
-50.463
-50.4979
-64.5691
-59.8401
-61.0037
-64.0022
-85.4467
-88.4772
-99.4595
-76.3942
54.8681
30.5795
42.0433
41.7567
-103.065
-133.323
-137.968
-139.304
-74.1925
-65.6441
-71.8273
-71.7452
-61.2361
-58.5842
-59.9791
-59.9758
-45.2328
-47.1591
-46.3282
-45.7924
-43.7465
-44.0934
-44.1834
-43.5946
-50.3148
-50.3455
-48.4681
-49.2133
-53.3209
-52.931
-51.0904
-55.617
-49.0114
-50.2608
-51.2236
-48.1585
-50.8895
-54.5425
-52.6717
-52.6728
-64.6395
-60.1611
-64.1361
-61.0111
-85.6791
-88.2813
-77.2536
-99.1884
-125.863
-97.6668
-98.7858
-81.8423
-53.0503
-47.3066
-54.6756
-49.9738
-59.6729
-60.8141
-53.0689
-52.1724
-80.388
-68.8258
-78.6049
-66.2476
-122.32
-96.987
-98.1137
-81.6906
-81.3341
-68.3715
-77.3467
-66.0589
-59.2526
-60.7988
-53.6913
-49.6852
-54.4867
-48.2957
-54.6686
-50.4076
-131.88
-108.005
-110.818
-95.071
-130.95
-104.809
-110.303
-94.4662
-63.0373
-69.7678
-54.4754
-62.3352
-55.5449
-69.7429
-54.7516
-61.2154
-35.2742
-26.426
-20.8304
-14.3032
25.3187
43.5545
22.1375
36.26
24.6702
43.2473
22.2676
35.3148
-35.3523
-26.3815
-20.9903
-14.3236
146.03
143.38
165.25
158.828
156.023
161.548
180.015
179.5
159.96
157.003
179.381
181.104
142.775
147.687
158.393
165.012
-46.0803
-47.0067
-46.6165
-47.7899
-42.3345
-42.7111
-44.2667
-44.8829
-55.1987
-57.8854
-54.8282
-57.5894
-70.0182
-71.3723
-62.2557
-66.5371
-46.4236
-47.3981
-46.8985
-48.1725
-70.1451
-71.6102
-62.5972
-66.7302
-55.3965
-58.0093
-55.1111
-57.7191
-42.7782
-43.2777
-44.5915
-45.283
-46.712
-48.2408
-45.648
-46.9054
-48.1387
-46.549
-46.8553
-45.5455
-44.0522
-44.0561
-44.6603
-43.8552
-44.2513
-44.2814
-43.9493
-44.7776
-108.752
-58.127
-136.202
-136.395
-63.4418
-71.9139
-61.8437
-69.4256
-71.4048
-63.3509
-69.1245
-62.2845
-58.1896
-108.826
-137.198
-136.164
-54.2316
-51.7003
-56.0639
-53.1972
-50.9476
-52.3039
-51.4319
-53.8955
-47.9314
-48.8944
-48.9893
-49.8974
-52.698
-50.9192
-53.8389
-51.6826
-53.6641
-51.8857
-55.6857
-53.8476
-52.8262
-51.2229
-53.8997
-51.896
-48.3388
-49.254
-49.3234
-50.2029
-50.9308
-51.996
-51.3285
-53.6115
-50.4791
-50.0098
-50.798
-50.4701
-50.6362
-50.2019
-50.9369
-50.5757
-49.3975
-51.4817
-50.2061
-53.1307
-49.479
-51.9906
-50.285
-53.3637
-58.168
-59.9409
-57.7112
-59.3477
-46.96
-48.02
-47.9217
-49.4387
-47.1899
-48.2505
-48.0759
-49.6167
-58.2126
-59.9811
-57.7496
-59.3564
-42.4239
-42.6869
-42.0648
-42.6668
-42.494
-42.469
-42.7037
-42.2712
-37.8862
-37.8382
-36.5719
-36.718
-37.0348
-37.2294
-36.0197
-35.964
-110.356
121.762
-191.577
99.9023
-149.524
-170.837
-46.9021
-43.066
-46.8643
-42.6657
-47.6414
-48.5821
-108.507
53.4937
-74.2958
39.5394
-82.4512
-65.306
-47.7933
-40.1011
-45.4573
-41.3281
-47.5658
-46.5957
-181.871
99.5631
-127.48
111.519
-163.709
-165.859
-47.1954
-42.7579
-46.9674
-43.2222
-47.3203
-48.7869
-73.8451
41.7228
-106.643
57.6961
-82.2915
-65.0843
-45.9403
-41.5942
-48.3487
-40.6885
-48.0135
-46.9894
-43.418
-31.6268
-46.0823
-49.3746
-45.9235
-46.2767
-62.9886
-53.2446
-48.0167
-49.3806
-37.1315
-35.6911
-36.8927
-45.6311
-46.0662
-49.0962
-82.0634
-11.6001
-89.6982
-80.1604
-90.6274
-126.924
15.9868
-27.6772
-54.3704
-57.9366
-55.783
-54.1517
-57.8344
-60.7046
-62.7083
-60.5749
-45.9387
-44.1736
-60.1186
-52.6971
-46.1038
-49.5552
-46.6874
-46.7864
-48.5465
-49.924
-46.2408
-49.4382
-40.4917
-35.8346
-37.6855
-46.2095
-82.2975
-11.7511
15.8822
-27.1566
-89.3231
-80.5655
-90.8607
-127.728
-54.5361
-58.0336
-62.7422
-60.639
-55.9161
-54.3115
-57.9318
-60.7457
-81.6148
131.351
-93.5413
82.0256
-101.202
-86.1798
148.725
138.243
-175.549
95.0157
-175.518
94.6633
-174.845
-174.157
122.407
122.228
-70.4038
-75.2067
-44.523
-47.5169
-62.7777
-52.499
-70.9541
-57.8855
-47.8336
-42.4967
-45.8081
-38.8185
-49.6128
-48.1453
-40.7587
-38.1929
-47.4732
-43.0643
-47.5524
-43.0532
-47.5688
-47.5528
-43.1473
-43.1159
-66.3092
-69.1941
-55.5038
-51.9478
-56.7183
-62.5062
-51.7143
-53.905
-69.5961
5.96667
-70.9295
0.460692
-49.37
-49.4477
105.857
103.533
-48.7346
-22.3118
-40.0331
-2.301
-47.7443
-54.5934
-8.91922
1.84404
-44.2135
-39.6507
-44.4117
-39.9596
-45.7545
-45.833
-37.6887
-37.5056
-50.3267
-50.8997
-53.3729
-54.6687
-51.0614
-52.4984
-54.323
-51.6545
-76.9577
107.95
-89.7983
80.9901
-130.011
-97.5646
139.153
143.927
-64.7457
-74.3684
-44.8002
-43.5979
-62.8059
-51.4664
-69.7419
-55.9784
-48.2259
-42.0033
-46.4834
-39.6239
-48.3914
-49.6271
-40.9114
-39.0106
-63.6731
-67.458
-56.0282
-51.9698
-57.0646
-62.2896
-51.9176
-57.0093
-48.8092
-22.6403
-40.2175
-2.29082
-54.708
-48.3799
1.71993
-9.0879
-50.6213
-51.2658
-53.5367
-54.7452
-52.7036
-51.3252
-51.8662
-54.4587
-43.8858
-43.5818
-42.5838
-41.476
-44.4926
-44.1434
-44.1106
-43.3331
-48.3109
-48.9529
-57.2094
-59.0303
-49.3831
-52.77
-50.7472
-55.6956
-57.3333
-52.0855
-57.3427
-52.0909
-61.993
-62.0209
-50.545
-50.529
-45.1159
-45.3774
-51.3645
-51.56
-46.8218
-49.7534
-47.9385
-49.5846
-46.5964
-51.8225
-47.2176
-51.8772
-43.8834
-43.865
-50.7866
-50.8418
-75.8324
-92.8972
-64.6243
-68.9691
-64.9441
-69.5885
-94.1438
-75.2013
55.3544
18.5032
55.352
18.6596
60.0355
59.926
-25.7377
-25.4758
-68.5987
-64.4938
-68.5773
-64.501
-71.3032
-71.2664
-63.0647
-63.0683
-44.1967
-43.6303
-42.7436
-41.6914
-44.818
-44.4289
-44.0006
-43.2615
-49.0497
-49.4973
-57.7978
-59.5525
-53.7058
-50.2055
-51.2562
-56.1015
-45.5346
-45.6776
-51.964
-51.5949
-50.1048
-47.1911
-48.2317
-49.9562
-75.888
-92.8488
-64.6836
-69
-69.6503
-64.9794
-75.3609
-94.2123
-72.4306
-73.1836
-65.0654
-56.9451
-55.592
-64.6552
-55.3077
-53.3458
-72.2594
-73.0298
-64.9883
-56.8713
-64.6908
-56.2902
-53.1523
-55.1585
-86.973
-86.8327
-78.0038
-66.3495
-77.7199
-66.1028
-63.028
-63.1517
-0.682035
-0.708232
6.23882
19.7261
19.5692
6.1472
25.8188
25.753
191.429
200.826
184.801
184.739
202.077
201.839
200.874
191.457
-48.3997
-48.0772
-50.3023
-54.8881