# vtk DataFile Version 2.0
tet_velo
ASCII
DATASET UNSTRUCTURED_GRID
POINTS 29498 float
-0.765 0.225 -2.25071
-0.764225 0.335 2.235
-0.800529 0.775 -2.215
-0.71922 1.015 2.285
0.765 0.225 -2.25071
0.764233 0.335 2.235
0.800534 0.775 -2.215
0.719246 1.015 2.285
-0.821508 0.2049 -0.755474
-0.827687 0.23513 0.739763
-0.837532 0.919106 -0.715
-0.814418 1.00309 0.785
0.821425 0.204986 -0.755474
0.8277 0.235122 0.739763
0.837557 0.919119 -0.715
0.814432 1.00309 0.785
-1.57796 -0.17267 -3.46937
-1.58437 -0.12745 -2.27127
-1.6215 -0.133825 -0.776157
-1.62152 -0.117209 0.717997
-1.57672 -0.0439755 2.21303
-1.56578 0.0105057 3.41073
-1.57239 0.0566173 4.60917
-1.57903 0.149947 -3.4498
-1.58557 0.213108 -2.25118
-1.63134 0.221579 -0.755143
-1.62 0.244204 0.740469
-1.55044 0.313389 2.23642
-1.54897 0.366603 3.43419
-1.56444 0.412493 4.63246
-1.59465 0.759817 -3.412
-1.61046 0.821242 -2.21358
-1.64424 0.926114 -0.714294
-1.61123 0.991075 0.785331
-1.52371 1.01974 2.28453
-1.53558 1.07057 3.4821
-1.56104 1.12109 4.67961
-1.61108 1.76267 -3.35172
-1.62069 1.83813 -2.15259
-1.63209 1.96001 -0.651758
-1.62554 2.05966 0.850101
-1.60295 2.11587 2.35088
-1.59265 2.15383 3.54991
-1.5942 2.19607 4.74794
-0.775539 -0.16663 -3.46906
-0.772443 -0.118738 -2.27082
-0.807904 -0.141879 -0.776218
-0.821579 -0.123897 0.717395
-0.793443 -0.033578 2.21198
-0.786055 0.0177435 3.41002
-0.791152 0.0600278 4.60875
-0.775515 0.150627 -3.44971
-0.775245 0.374311 3.4336
-0.786721 0.415748 4.63215
-0.788121 0.741319 -3.41259
-0.764335 1.07092 3.48219
-0.78586 1.12191 4.67963
-0.801344 1.74947 -3.35231
-0.807923 1.82539 -2.15323
-0.820618 1.95695 -0.652145
-0.826003 2.06361 0.850147
-0.817403 2.11799 2.35121
-0.810612 2.15428 3.55024
-0.811334 2.19624 4.74818
0.803231 -0.166617 -3.46906
0.798246 -0.118718 -2.27082
0.822949 -0.141821 -0.776218
0.813759 -0.12389 0.717395
0.771156 -0.0335773 2.21198
0.765738 0.0177459 3.41002
0.766691 0.060032 4.60875
0.797251 0.150635 -3.44971
0.756571 0.374312 3.4336
0.761211 0.415751 4.63215
0.806275 0.741325 -3.41259
0.740532 1.07093 3.48219
0.75276 1.12191 4.67963
0.814868 1.74948 -3.35231
0.815854 1.8254 -2.15323
0.808124 1.95696 -0.652145
0.781292 2.06361 0.850147
0.753427 2.11799 2.35121
0.748592 2.15428 3.55024
0.750518 2.19625 4.74818
1.60044 -0.172637 -3.46937
1.5986 -0.127403 -2.27127
1.63038 -0.133743 -0.776157
1.62312 -0.117183 0.717997
1.57154 -0.0439705 2.21303
1.55419 0.0105124 3.41073
1.55285 0.0566266 4.60917
1.5937 0.149971 -3.4498
1.58405 0.213138 -2.25118
1.63094 0.221665 -0.755143
1.62664 0.244223 0.740469
1.55862 0.31339 2.23642
1.5413 0.366607 3.43419
1.5445 0.412501 4.63246
1.60493 0.759834 -3.412
1.60636 0.821258 -2.21358
1.64119 0.926154 -0.714294
1.61475 0.991087 0.785331
1.52831 1.01974 2.28453
1.5218 1.07057 3.4821
1.53325 1.1211 4.67961
1.62111 1.76269 -3.35172
1.62395 1.83815 -2.15259
1.61875 1.96003 -0.651758
1.5883 2.05968 0.850101
1.55002 2.11588 2.35088
1.53765 2.15384 3.54991
1.53732 2.19608 4.74794
-0.832995 0.5 -2.28309
0 0.220005 -2.2557
-0.808874 0.199331 -1.50309
-0.760786 0.675 2.27906
3.99351e-06 0.329158 2.24084
-0.837996 0.243025 1.48738
2.5034e-06 0.803362 -2.24336
-0.841491 0.869514 -1.465
1.29938e-05 1.04255 2.31255
-0.796229 1.03846 1.535
0.833016 0.5 -2.2831
0.809384 0.198822 -1.50309
0.760794 0.675 2.27905
0.837919 0.243109 1.48738
0.841514 0.869528 -1.465
0.796248 1.03845 1.535
-0.824936 0.219677 -0.00785506
-0.878749 0.562003 -0.735237
-4.16586e-05 0.191078 -0.755474
-0.878795 0.619112 0.762382
6.41078e-06 0.196516 0.739763
-0.822582 0.957708 0.0350001
1.2151e-05 1.26343 -0.715
7.26849e-06 1.46793 0.785
0.825036 0.219581 -0.00785506
0.878744 0.562052 -0.735237
0.878791 0.619106 0.762382
0.822597 0.957707 0.0350001
-0.86596 0.531002 -1.48405
-0.878768 0.590558 0.0135725
-0.891711 0.647056 1.51119
-2.08293e-05 0.190576 -1.50309
-1.76239e-05 0.193479 -0.00785506
5.20214e-06 0.221901 1.48738
1.2517e-06 0.5 -2.3833
8.49366e-06 0.675 2.35281
7.3272e-06 0.957755 -1.465
9.70975e-06 1.47729 0.0350001
1.01312e-05 1.26086 1.535
0.865942 0.531026 -1.48405
0.878763 0.590579 0.0135725
0.891289 0.647053 1.51119
-1.17529 0.219054 -2.25095
-0.768721 0.0531309 -2.26077
-0.770258 0.187814 -2.85021
-1.15733 0.324194 2.23571
-0.778834 0.150711 2.22349
-0.769735 0.354656 2.8343
-1.20549 0.798121 -2.21429
-0.794325 0.75816 -2.8138
-0.804226 1.30019 -2.18412
-1.12146 1.01737 2.28476
-0.741777 1.04296 2.8836
-0.768312 1.56649 2.31811
0.781623 0.053141 -2.26077
0.781126 0.187818 -2.85021
1.17452 0.219069 -2.25095
0.767695 0.150711 2.22349
0.760402 0.354656 2.8343
1.16143 0.324195 2.23571
0.803404 0.758162 -2.8138
0.808194 1.3002 -2.18412
1.20345 0.798129 -2.21429
0.729889 1.04296 2.8836
0.736337 1.5665 2.31811
1.12378 1.01737 2.28476
-1.22643 0.213239 -0.755308
-0.814706 0.0315106 -0.765846
-1.22384 0.239667 0.740116
-0.824633 0.0556165 0.728579
-1.24089 0.92261 -0.714647
-0.829075 1.43803 -0.683572
-1.21283 0.997085 0.785166
-0.82021 1.53335 0.817574
0.822187 0.0315823 -0.765846
1.22618 0.213326 -0.755308
0.820729 0.0556163 0.728579
1.22717 0.239672 0.740116
0.82284 1.43804 -0.683573
1.23937 0.922636 -0.714647
0.797862 1.53335 0.817574
1.21459 0.997089 0.785165
-1.58116 -0.15006 -2.87032
-1.57849 -0.0113613 -3.45958
-1.17675 -0.16965 -3.46921
-1.60293 -0.130637 -1.52371
-1.58497 0.042829 -2.26123
-1.17841 -0.123094 -2.27105
-1.62151 -0.125517 -0.02908
-1.62642 0.043877 -0.76565
-1.2147 -0.137852 -0.776188
-1.59912 -0.080592 1.46551
-1.62076 0.063498 0.729233
-1.22155 -0.120553 0.717696
-1.57125 -0.0167349 2.81188
-1.56358 0.134707 2.22472
-1.18508 -0.0387767 2.2125
-1.56909 0.0335615 4.00995
-1.55738 0.188554 3.42246
-1.17592 0.0141246 3.41037
-1.56842 0.234555 4.62081
-1.18177 0.0583225 4.60896
-1.5823 0.181527 -2.85049
-1.58684 0.454882 -3.4309
-1.17727 0.150287 -3.44975
-1.60846 0.217343 -1.50316
-1.59802 0.517175 -2.23238
-1.62567 0.232892 -0.00733694
-1.63779 0.573846 -0.734719
-1.58522 0.278797 1.48844
-1.61561 0.61764 0.7629
-1.54971 0.339996 2.8353
-1.53707 0.666562 2.26047
-1.55671 0.389548 4.03333
-1.54228 0.718584 3.45814
-1.16211 0.370457 3.43389
-1.56274 0.766792 4.65604
-1.17558 0.41412 4.63231
-1.60256 0.790529 -2.81279
-1.60287 1.26124 -3.38186
-1.19139 0.750568 -3.4123
-1.62735 0.873678 -1.46394
-1.61558 1.32969 -2.18309
-1.62774 0.958595 0.0355182
-1.63817 1.44306 -0.683026
-1.56747 1.00541 1.53493
-1.61838 1.52537 0.817716
-1.52964 1.04515 2.88331
-1.56333 1.5678 2.31771
-1.54831 1.09583 4.08085
-1.56412 1.6122 3.51601
-1.14996 1.07074 3.48215
-1.57762 1.65858 4.71378
-1.17345 1.1215 4.67962
-1.61589 1.8004 -2.75216
-1.20621 1.75607 -3.35202
-1.62639 1.89907 -1.40217
-1.21431 1.83176 -2.15291
-1.62881 2.00984 0.0991715
-1.22636 1.95848 -0.651951
-1.61424 2.08777 1.60049
-1.22577 2.06164 0.850124
-1.5978 2.13485 2.9504
-1.21018 2.11693 2.35105
-1.59343 2.17495 4.14893
-1.20163 2.15405 3.55008
-1.20277 2.19616 4.74806
-0.773991 -0.142684 -2.86994
-0.775527 -0.00800168 -3.45938
0.0138461 -0.166624 -3.46906
-0.790173 -0.130309 -1.52352
0.0129013 -0.118728 -2.27082
-0.814741 -0.132888 -0.0294111
0.00752236 -0.14185 -0.776218
-0.807511 -0.0787374 1.46469
-0.0039101 -0.123893 0.717395
-0.789749 -0.00791723 2.811
-0.0111435 -0.0335777 2.21198
-0.788604 0.0388857 4.00938
-0.78065 0.196027 3.42181
-0.0101588 0.0177447 3.41002
-0.788937 0.237888 4.62045
-0.0122303 0.0600299 4.60875
-0.781818 0.445973 -3.43115
0.0108679 0.150631 -3.44971
-0.780983 0.395029 4.03288
-0.76979 0.722618 3.4579
-0.00933694 0.374312 3.4336
-0.786291 0.768829 4.65589
-0.0127551 0.415749 4.63215
-0.794732 1.2454 -3.38245
0.00907699 0.741322 -3.41259
-0.775098 1.09642 4.08091
-0.787474 1.6126 3.51622
-0.0119014 1.07092 3.48219
-0.798597 1.65908 4.71391
-0.0165502 1.12191 4.67963
-0.804633 1.78743 -2.75277
0.006762 1.74948 -3.35231
-0.814271 1.89117 -1.40269
0.00396521 1.82539 -2.15323
-0.82331 2.01028 0.0990012
-0.00624721 1.95696 -0.652145
-0.821703 2.0908 1.60068
-0.0223556 2.06361 0.850147
-0.814008 2.13613 2.95073
-0.0319879 2.11799 2.35121
-0.810973 2.17526 4.14921
-0.0310101 2.15428 3.55024
-0.0304078 2.19625 4.74818
0.800738 -0.142667 -2.86994
0.800241 -0.00799081 -3.45938
1.20184 -0.169627 -3.46921
0.810597 -0.13027 -1.52352
1.19843 -0.123061 -2.27105
0.818354 -0.132855 -0.0294112
1.22667 -0.137782 -0.776188
0.792458 -0.0787335 1.46469
1.21844 -0.120536 0.717696
0.768447 -0.00791572 2.811
1.17135 -0.0387739 2.2125
0.766215 0.0388889 4.00938
0.761154 0.196029 3.42181
1.15997 0.0141291 3.41037
0.763951 0.237891 4.62045
1.15977 0.0583293 4.60896
0.801763 0.44598 -3.43115
1.19547 0.150303 -3.44975
0.758891 0.395032 4.03288
0.748552 0.722619 3.4579
1.14894 0.37046 3.43389
0.756985 0.768832 4.65589
1.15286 0.414126 4.63231
0.810571 1.2454 -3.38245
1.2056 0.75058 -3.4123
0.746646 1.09642 4.08091
0.744562 1.6126 3.51622
1.13117 1.07075 3.48215
0.751639 1.65908 4.71391
1.143 1.12151 4.67962
0.815361 1.78744 -2.75277
1.21799 1.75609 -3.35202
0.811989 1.89118 -1.40269
1.2199 1.83178 -2.15291
0.794708 2.01029 0.0990011
1.21344 1.9585 -0.651952
0.767359 2.0908 1.60068
1.1848 2.06165 0.850124
0.75101 2.13614 2.95073
1.15173 2.11694 2.35105
0.749555 2.17527 4.14921
1.14312 2.15406 3.55008
1.14392 2.19616 4.74806
1.59952 -0.15002 -2.87032
1.59707 -0.0113332 -3.45958
1.61449 -0.130573 -1.52371
1.59133 0.0428674 -2.26123
1.62675 -0.125463 -0.02908
1.63066 0.0439611 -0.76565
1.59733 -0.0805768 1.46551
1.62488 0.0635198 0.729233
1.56287 -0.016729 2.81188
1.56508 0.13471 2.22472
1.55352 0.0335695 4.00995
1.54775 0.18856 3.42246
1.54867 0.234564 4.62082
1.58887 0.181555 -2.85049
1.59931 0.454903 -3.4309
1.60749 0.217402 -1.50316
1.5952 0.517198 -2.23238
1.62879 0.232944 -0.00733703
1.63606 0.57391 -0.734719
1.59263 0.278806 1.48844
1.6207 0.617655 0.7629
1.54996 0.339999 2.8353
1.54347 0.666563 2.26047
1.5429 0.389554 4.03333
1.53155 0.718589 3.45814
1.53888 0.7668 4.65604
1.60565 0.790546 -2.81279
1.61302 1.26126 -3.38186
1.62377 0.873706 -1.46394
1.61516 1.32971 -2.18309
1.62797 0.958621 0.0355181
[...]
POINT_DATA 29498
VECTORS point_vectors float
-3.36411 -3.66773 8.20847
0.197417 0.375605 1.16274
-4.98418 2.4717 9.00674
-0.103775 -0.241111 0.439438
3.36383 -3.66642 8.20572
-0.200297 0.367663 1.15123
5.01206 2.48928 9.04395
0.104186 -0.235121 0.425353
0.0719449 -0.0310079 0.894325
0.0127579 -0.087611 1.20054
0 0 0
0 0 0
-0.0627199 -0.0308143 0.880556
-0.00779348 -0.0833361 1.18317
0 0 0
0 0 0
-0.532947 -0.259876 19.8957
-1.18549 -0.644553 20.5761
-0.412884 -0.407637 21.4311
0.0851178 -0.15376 21.637
0.683331 0.127255 21.5685
0.93314 0.221269 21.3982
0.956982 -0.102081 21.0098
-0.635975 -0.187137 19.8036
-1.57918 -0.559411 20.5296
-0.519938 -0.499025 21.4905
0.0942816 -0.25361 21.6833
0.882045 -0.0840352 21.678
1.23979 -0.0810134 21.4169
1.28293 -0.32338 21.3754
-0.697245 0.0499211 19.7389
-1.75677 0.0715422 20.4155
-1.1371 -0.405055 21.4677
-0.184049 -0.419966 21.7731
0.576343 -0.607627 21.6204
1.08297 -0.749401 21.1148
0.793363 -0.370527 21.3303
-0.462386 0.290341 19.9457
-0.91126 0.53661 20.3663
-0.926774 0.364942 21.1875
-0.331147 -0.0569823 21.5892
0.0696743 -0.376286 21.4241
0.221923 -0.370201 21.2702
0.319188 -0.363186 20.8399
-0.514377 -0.560466 19.3861
-2.14726 -3.2239 20.6668
-0.34991 -0.249762 21.663
0.211988 0.113003 20.7407
0.948726 1.22294 19.5282
1.42499 1.57657 18.6021
1.51852 1.11467 18.2451
-0.672462 -0.419217 19.0474
2.20133 1.43773 13.5757
2.25749 1.243 14.0261
-0.792219 0.168628 18.8406
1.03884 -0.867259 8.94337
1.17004 -0.935236 15.4755
-0.422242 0.58394 19.5909
-1.03757 1.49735 20.0161
-1.48928 1.68617 21.2929
-0.461892 0.182601 21.9763
-0.0952598 -0.377402 21.5776
0.105706 -0.737298 21.3296
0.117676 -0.603305 21.2127
0.524523 -0.557949 19.4045
2.19052 -3.10338 20.6612
0.345307 -0.253986 21.6864
-0.210495 0.112577 20.7267
-0.927333 1.22127 19.4246
-1.40124 1.59798 18.4608
-1.52072 1.12556 17.9276
0.68425 -0.409355 19.0593
-2.18587 1.45186 13.0793
-2.27047 1.28624 13.6341
0.792279 0.167604 18.8642
-0.902835 -0.812153 7.84266
-1.15903 -0.828455 14.9569
0.425951 0.578676 19.5981
1.04246 1.48716 20.0211
1.48442 1.72323 21.2918
0.453702 0.21281 21.9929
0.115196 -0.359969 21.6069
-0.0867476 -0.725449 21.327
-0.12543 -0.627008 20.621
0.523327 -0.244019 19.9054
1.1686 -0.634974 20.5801
0.410202 -0.41349 21.4277
-0.0864118 -0.15725 21.6311
-0.684228 0.126032 21.5701
-0.946728 0.211307 21.4073
-0.959965 -0.100039 21.0288
0.629953 -0.181136 19.8079
1.58299 -0.557869 20.5229
0.521069 -0.500591 21.4913
-0.0917523 -0.25341 21.6784
-0.863602 -0.0928446 21.6743
-1.23409 -0.0835714 21.4358
-1.30144 -0.284105 21.4168
0.689931 0.0465062 19.7386
1.76348 0.0721033 20.4125
1.14227 -0.409084 21.4691
0.182804 -0.419655 21.7701
-0.568159 -0.589645 21.6168
-1.07144 -0.751205 21.1212
-0.787684 -0.397112 21.2537
0.460354 0.285834 19.9484
0.908722 0.535123 20.3655
0.935637 0.375579 21.1886
0.339381 -0.0533153 21.5859
-0.0631367 -0.357066 21.4288
-0.209358 -0.376726 21.276
-0.297961 -0.392684 20.9397
-5.06904 -0.296025 5.83126
-0.00011084 -0.794725 2.10732
0.109242 -0.101644 0.793697
0.0034955 -0.0384682 0.0218967
-0.000975174 0.00508224 0.0190216
0.0412048 -0.00805806 0.658698
-0.00135841 2.65028 3.65756
-0.242005 -0.268402 1.07691
-0.00523095 0.0611531 -0.114386
0.00724157 0.00956821 0.0610174
5.06169 -0.30274 5.84039
-0.11163 -0.109058 0.826649
-0.00235885 -0.040586 0.0203334
-0.0412389 -0.00830304 0.650688
0.242474 -0.268976 1.07944
-0.00741641 0.00982161 0.0615408
0.0524277 0.00284361 2.06464
0 0 0
-2.0028e-05 0.000236406 0.0142542
0 0 0
0 0 0
0 0 0
4.06916e-06 0.0989686 0.169747
-9.14148e-06 -0.000396651 0.00597039
-0.0600242 0.000260947 2.10448
0 0 0
0 0 0
0 0 0
-5.2746e-18 -1.39334e-17 1.24016e-16
0 0 0
0.00474442 0.00281519 0.0952035
1.82793e-06 -1.04391e-06 0.000121595
2.19536e-05 -4.52065e-06 0.00261818
1.16737e-08 -1.77402e-06 -1.64825e-05
0.000375574 0.15951 0.714942
0 0 0
1.50744e-05 0.000226158 0.00139968
-1.50501e-05 0.00388146 0.0552763
-4.48866e-05 0.000824106 -0.0018391
0 0 0
0 0 0
-0.00409643 0.00232293 0.0812864
-3.01319 -1.38739 20.6679
-3.62728 -5.05367 20.8573
-1.8951 -1.41195 17.8916
1.5189 0.183066 20.1733
0.992495 1.27795 13.1561
1.28157 0.937718 8.86129
-3.36086 0.432164 20.3917
-2.28646 0.836195 17.3907
-2.29694 2.50272 19.7394
0.880471 -0.652834 18.7161
-0.268705 -0.680337 4.30468
0.160102 -0.471997 17.7751
3.64631 -4.86919 20.854
1.90693 -1.39543 17.913
3.01892 -1.39222 20.6663
-0.956967 1.25838 12.8775
-1.21638 0.869818 8.51517
-1.49779 0.163645 20.1955
2.28461 0.821653 17.4415
2.29799 2.48377 19.741
3.37499 0.435931 20.3941
0.356284 -0.657385 3.86417
-0.166985 -0.434258 17.4565
-0.865206 -0.642963 18.7481
-0.305469 -0.752904 21.765
0.486917 -0.0668059 17.4233
0.238749 -0.287708 21.1824
0.558205 -0.0211082 15.9481
-1.85819 -1.15926 21.8576
-4.35409 2.25628 21.4488
-0.122869 -0.643249 20.7083
-0.317889 0.177058 18.8271
-0.467107 -0.0873958 17.5181
0.305001 -0.754835 21.7603
-0.557018 -0.0375641 15.9204
-0.23554 -0.291706 21.2214
4.39337 2.33529 21.4156
1.85905 -1.16466 21.8534
0.186933 0.23772 18.0531
0.126812 -0.64484 20.7401
-0.913012 -0.467233 20.0335
-0.59247 -0.234167 19.8549
-0.586405 -0.390178 19.6551
-0.814853 -0.547476 21.1875
-1.33836 -0.620811 20.5602
-1.73316 -1.39495 20.605
-0.124975 -0.268102 21.5518
-0.473075 -0.445127 21.4502
-0.30506 -0.442989 21.6237
0.372857 -0.016497 21.7046
0.081803 -0.192551 21.6406
0.176007 -0.074227 21.7338
0.857209 0.195529 21.4104
0.797286 0.0374686 21.6204
1.01139 0.509956 21.6212
1.07496 0.212141 20.5687
1.06931 0.141711 21.3105
1.39947 0.743683 21.3139
1.11978 -0.213688 21.1924
1.27168 0.520112 21.4809
-1.17849 -0.367392 19.8996
-0.675662 -0.0761468 19.7526
-0.710803 -0.310333 19.4815
-1.04121 -0.563395 21.2377
-1.70652 -0.270628 20.5144
-0.169481 -0.375368 21.6032
-0.777737 -0.547506 21.4867
0.444763 -0.174482 21.7896
7.84264e-05 -0.381362 21.7714
1.08889 -0.0590169 21.4683
0.844792 -0.409119 21.7349
1.19395 0.105398 20.9749
1.22917 -0.448993 21.4625
1.97114 0.28095 19.9068
1.11819 -0.369661 21.3875
1.73457 0.41413 18.5327
-1.29922 0.10404 19.8027
-0.610454 0.234462 19.8009
-0.791532 0.085739 19.3729
-1.47677 -0.19409 21.0668
-1.35619 0.459996 20.3447
-0.633443 -0.46018 21.7231
-1.2474 0.101609 21.3449
0.209867 -0.462153 21.7963
-0.356989 -0.2309 21.7182
0.784431 -0.634604 21.4465
0.204328 -0.503855 21.5284
0.693149 -0.607796 21.4328
0.50223 -0.568811 21.4646
1.42364 -1.00338 19.4724
0.471029 -0.371146 21.4609
1.13096 -0.996989 19.0834
-0.711773 0.454907 20.0914
-0.496573 0.428404 19.7635
-0.99692 0.497272 20.7678
-1.07471 0.925843 20.2104
-0.654488 0.158778 21.5073
-1.31054 0.830064 21.2738
-0.0959173 -0.222309 21.5191
-0.415683 0.0163521 21.7791
0.233639 -0.423592 21.4496
-0.00161346 -0.390574 21.5268
0.340591 -0.698323 20.4397
0.203865 -0.672568 21.6008
0.189361 -0.558274 21.5962
-1.18346 -1.48929 19.0534
-0.58186 -0.493346 19.2298
0.010205 -0.711474 19.0936
-1.04139 -1.04633 22.1867
0.033366 -5.19973 20.7248
-0.0135391 0.011964 21.0676
0.00459369 -0.6841 20.3943
0.632653 0.539803 20.3537
0.000437054 -0.151339 17.1937
1.16146 1.43592 19.7301
-0.00850038 0.828646 14.4452
1.03898 1.33274 19.59
1.85909 1.76541 15.7828
-0.026023 1.70835 15.2504
2.00167 1.28086 16.1346
0.0546498 1.82648 15.6478
-0.723967 -0.182223 18.9217
0.0113934 -0.550916 18.6147
2.19494 1.1643 14.3534
2.23441 -0.220146 8.47553
-0.00937448 1.12397 2.91348
2.01622 0.213854 14.1041
0.0821891 1.75761 10.9193
-0.597905 0.542859 19.1952
0.00963052 0.244512 18.3003
1.77064 -1.28193 11.786
0.430533 -1.16727 19.2329
0.131748 1.77344 -7.12753
0.34085 -1.13805 16.9799
0.0555408 0.953989 0.0996162
-0.726778 1.0674 19.6212
0.0046151 0.729933 19.3892
-1.28821 1.62937 20.5105
0.00606828 2.17157 19.7743
-1.00925 0.900602 22.0323
-0.0217732 3.15283 21.1989
-0.196323 -0.194385 21.7142
-0.0182145 0.50748 22.2098
0.0192473 -0.556886 21.489
-0.0105088 -0.136716 21.8184
-0.010442 -0.477532 22.12
0.00640154 -0.570248 21.8137
-0.0149862 -0.290873 21.7267
1.19528 -1.45582 19.0864
0.594036 -0.4864 19.2445
0.587495 -0.387399 19.6847
1.03207 -1.02877 22.1409
1.70727 -1.34499 20.6132
0.00848645 0.0189463 21.0778
0.309993 -0.444904 21.6192
-0.628078 0.54261 20.2093
-0.174779 -0.0738045 21.7336
-1.15086 1.43571 19.6007
-1.0198 0.51997 21.5859
-1.01159 1.38993 19.5158
-1.84381 1.77108 15.6179
-1.42427 0.773054 21.3342
-1.99949 1.29612 15.7815
-1.30389 0.557527 21.5253
0.732397 -0.180277 18.9353
0.714714 -0.30239 19.4968
-2.22593 1.24565 13.7718
-2.19016 -0.206676 7.83013
-1.96143 0.316757 19.7047
-2.01566 0.279054 13.6588
-1.76077 0.467288 18.2399
0.602881 0.537014 19.2025
0.795129 0.0816251 19.3907
-1.71152 -1.2269 10.7126
-0.407954 -1.11675 18.6505
-1.43121 -1.01123 19.3475
-0.33108 -1.17446 16.4937
-1.15533 -1.04658 18.8391
0.728616 1.05517 19.6284
0.499238 0.425139 19.7696
1.28624 1.63319 20.5103
1.0721 0.919224 20.2141
1.00778 0.945527 22.0547
1.32164 0.850666 21.2752
0.191882 -0.186868 21.7181
0.425069 0.0319761 21.7901
0.00637309 -0.55779 21.597
0.0150751 -0.38853 21.525
-0.0062483 -0.485204 22.2806
-0.196874 -0.724342 21.6682
-0.169899 -0.58331 21.6902
0.89795 -0.460123 20.0388
0.583075 -0.224475 19.857
0.81199 -0.552915 21.1757
1.32729 -0.611091 20.5777
0.125508 -0.272949 21.5489
0.471981 -0.449913 21.4489
-0.375834 -0.0176321 21.7129
-0.0795288 -0.196233 21.6337
-0.862243 0.199034 21.4194
-0.788474 0.0310814 21.6202
-1.10203 0.211351 20.5559
-1.069 0.130957 21.3246
-1.12916 -0.199272 21.221
1.16932 -0.364231 19.8933
0.671486 -0.0726164 19.755
1.04063 -0.565199 21.2353
1.71383 -0.273107 20.5175
0.169837 -0.376143 21.5991
0.776997 -0.553853 21.4916
-0.437313 -0.179266 21.7721
0.000187181 -0.383051 21.7635
-1.07716 -0.0638328 21.4728
-0.828907 -0.403935 21.7323
-1.20718 0.0909276 20.9544
-1.24329 -0.456218 21.4909
-1.12002 -0.381925 21.3349
1.29457 0.103146 19.8029
0.60541 0.231347 19.8092
1.48056 -0.197596 21.0691
1.35664 0.458884 20.3447
0.631286 -0.46021 21.7217
1.25974 0.104606 21.3463
-0.21023 -0.460934 21.7789
0.365588 -0.233017 21.727
-0.787296 -0.643331 21.4489
-0.206012 -0.509209 21.5057
-0.665604 -0.581807 21.4393
-0.493992 -0.599669 21.4981
-0.448763 -0.394499 21.5204
0.709567 0.451488 20.094
1.00085 0.500913 20.7665
0.67153 0.167843 21.5172
0.101334 -0.221147 21.5439
-0.218896 -0.430396 21.4676
-0.317075 -0.804994 20.3749
-1.03219 -0.440726 19.9846
-1.51266 -1.57654 18.5659
-1.16453 -0.886189 19.6822
-1.68301 -0.754836 19.2719
-0.640586 -0.348765 19.5826
-2.34274 -1.49224 20.6535
-0.917321 -0.561833 21.2127
-0.288059 -0.524088 18.9456
-0.905123 -0.836208 21.5466
-1.10935 -0.956047 21.7838
-0.283731 -0.553152 21.7137
-0.148187 -0.310323 21.5605
0.505107 0.0805569 16.4053
-0.0159635 -0.218401 21.6724
0.0889619 -0.479659 21.4616
0.244866 -0.177619 21.6564
0.401413 -0.0657604 21.7416
0.92867 0.350091 14.6006
0.530802 0.15991 21.8347
0.696658 -0.101509 20.964
1.33503 0.407592 21.2426
1.00552 0.0930944 21.4075
1.38134 1.42816 14.7742
1.20775 0.660436 21.262
1.74962 0.228743 20.3224
1.6118 0.604514 21.1393
1.15006 0.137357 20.7509
1.74198 1.32998 15.5127
1.31238 0.546261 21.107
1.89401 0.220508 20.2476
1.47753 0.450134 20.6519
-1.26904 -0.14808 19.8259
-2.31608 -0.398405 17.2497
-1.88143 0.32445 19.055
-0.772864 -0.10547 19.3858
-3.55086 -0.563006 20.5311
-1.28533 -0.466634 21.2233
-2.2745 -0.54863 21.3812
-0.802723 -1.11791 21.5858
-0.338418 -0.487737 21.666
-0.786979 -1.10114 21.4961
0.167883 -0.374929 20.4547
0.385283 -0.334707 21.8371
0.434167 -0.391592 19.8495
1.3962 -0.288036 18.6826
1.07839 -0.411117 21.5422
0.579339 -0.508678 4.79289
0.991427 -0.827078 19.3974
1.91564 -0.303429 20.0063
1.01389 -0.217408 21.2764
2.48269 0.447972 12.8189
1.80244 -1.15129 18.8226
1.49733 -0.610139 18.5797
-1.01915 0.39269 19.9276
-1.33669 1.37423 18.8868
-0.794829 0.735412 19.8717
-0.681086 0.360485 19.5308
-1.9282 1.05528 20.1377
-1.38277 0.291947 20.8716
-2.71858 1.95828 20.3978
-1.27408 0.934478 20.698
-2.25754 0.38037 21.532
-0.826318 -0.0861734 21.6709
-2.17324 0.319514 21.1881
-0.896083 0.402461 21.7419
-0.577393 -0.273321 22.0425
-0.0156963 -0.371697 21.6764
0.28579 -0.295299 17.7588
-0.153461 -0.232334 21.669
0.0618806 -0.691747 21.5895
0.381301 -0.589606 21.3851
0.201842 -0.787794 18.6985
0.131393 -0.473088 21.2692
0.529106 -1.05049 21.1862
0.446634 -0.81432 20.7768
0.26681 -1.39326 18.768
0.0381229 -0.462238 21.821
0.393669 -0.694134 20.0314
1.5291 -1.55129 18.606
0.0256485 -2.2398 18.3672
0.0107977 -2.25875 16.3859
0.00541384 -0.657596 18.8354
0.0250967 -8.26343 21.2646
0.330819 -0.554814 19.2664
0.0130453 -1.88309 22.6488
-0.0072507 -0.151411 10.5568
-0.522644 0.0849251 16.4481
0.00407494 -0.340581 18.3809
-0.0133367 -0.0404923 8.87135
-0.934223 0.360596 14.4432
-0.00163999 0.393712 15.5147
-0.0244932 0.568539 6.27847
-1.34346 1.40645 14.4864
-0.0157793 0.971521 14.7451
-0.0517341 -0.324393 1.49904
-0.0310276 1.75641 9.17659
-1.72488 1.37963 15.3831
0.00730774 2.32262 15.154
0.0448143 1.9564 5.39828
0.0684195 1.79205 13.2835
2.32489 -0.388866 17.2943
0.0112431 1.50589 15.3785
0.0149172 -0.263478 18.3286
-0.463621 -0.55911 4.36518
0.0293122 1.05348 -5.66621
0.142419 1.02192 -3.41286
-2.51129 0.53403 12.1819
0.0618737 1.41384 -6.15487
0.115208 1.66449 3.24226
1.34 1.3601 18.8986
0.00620516 1.47826 19.3599
0.00715426 0.730029 18.8352
0.00561369 4.26233 19.2085
2.71808 1.9634 20.3937
-8.28992e-05 2.53127 20.2168
-0.0226754 6.53494 19.883
2.14126 0.356341 20.8044
-0.0327918 1.80303 22.4467
-0.00352948 0.117776 14.6681
-0.340078 -0.265389 17.2591
-0.0135975 0.0159123 21.8161
-0.0561056 0.113104 8.34225
-0.205135 -0.712003 18.4204
-0.0150886 -0.361683 21.7695
-0.0593361 -0.815912 11.0786
-0.26334 -1.43547 18.1185
-0.0164416 -0.541221 22.2378
0.0126332 -1.17422 15.5881
1.01909 -0.434602 19.981
1.14539 -0.846964 19.7137
1.66454 -0.744605 19.2968
0.646731 -0.347662 19.598
2.3216 -1.46255 20.6549
0.920139 -0.566062 21.2078
0.903386 -0.825831 21.529
1.11057 -0.957741 21.7823
0.28888 -0.556047 21.7052
0.145554 -0.311576 21.5601
0.0112341 -0.218978 21.6751
-0.0888926 -0.481738 21.4742
-0.242462 -0.178275 21.6481
-0.399283 -0.071241 21.7331
-0.530707 0.163098 21.8295
-0.691681 -0.108794 21.0009
-1.33314 0.403066 21.2087
-1.00423 0.0846717 21.4093
-1.21507 0.677418 21.2418
-1.73308 0.219049 20.2606
-1.61724 0.639864 20.93
-1.17036 0.131846 20.7358
-1.31761 0.562157 21.1703
-1.93028 0.217443 20.1657
-1.51618 0.499449 20.3963
1.26125 -0.147547 19.8322
1.87168 0.318496 19.0807
0.778222 -0.107359 19.4017
3.56139 -0.566694 20.531
1.29005 -0.469913 21.2256
2.27865 -0.549199 21.3856
0.800902 -1.12154 21.5787
0.335099 -0.488875 21.6675
0.787368 -1.10221 21.4974
-0.165602 -0.385349 20.5136
-0.385227 -0.338598 21.8256
-0.427011 -0.393644 19.8814
-1.37486 -0.299492 18.7484
-1.072 -0.41639 21.534
-0.960066 -0.803244 19.2325
-1.93935 -0.308163 19.7342
-0.988346 -0.211798 21.291
-1.89406 -1.20281 18.6802
-1.52497 -0.543299 18.2427
1.01616 0.388376 19.9328
0.796234 0.729547 19.8776
0.682924 0.353891 19.5383
1.925 1.05058 20.1364
1.38924 0.291437 20.8723
1.27524 0.94021 20.697
2.28325 0.391863 21.5353
0.836196 -0.0853953 21.6743
0.910674 0.429326 21.7602
0.594935 -0.266351 22.0514
0.0184919 -0.378849 21.6704
0.159361 -0.224424 21.6727
-0.047153 -0.690667 21.5443
-0.378664 -0.599131 21.4334
-0.113119 -0.459901 21.2124
-0.541281 -1.09457 21.1719
-0.515587 -0.871356 20.7781
0.00274715 -0.430494 22.0731
-0.378532 -0.743387 19.6264
-1.40811 -0.863014 19.4684
-1.00716 -0.874862 21.6551
0.0566759 -0.316504 21.6903
0.673121 0.0374855 21.5775
1.5464 0.523105 20.9405
1.52754 0.437729 20.9427
-1.95441 -0.251185 19.0292
-1.69748 -1.00598 21.8532
-0.118496 -0.789166 21.024
0.595069 -0.176076 19.8778
1.62808 -0.417311 19.2825
1.95866 -0.523635 19.4257
-1.30173 0.770505 19.5264
-2.11696 0.723807 20.7865
-1.36588 -0.0626294 22.0946
-0.119823 -0.498969 21.8105
0.250488 -0.812921 21.6479
0.310378 -0.976197 21.5842
0.0187816 -2.43502 17.5224
0.00345321 -0.753254 13.1863
0.0155008 -0.0687752 9.2299
-0.00506096 0.423922 7.56605
-0.0513234 0.328202 7.08995
0.0251901 2.09953 10.1604
0.0155505 -0.585407 15.0697
0.0581554 -0.0290704 -2.22816
0.146109 1.82121 -1.92954
0.0133611 2.27103 18.0885
-0.00318714 3.82333 19.6383
-0.0173322 1.79694 16.7257
-0.0143711 -0.0610711 10.278
-0.0874592 -0.0798764 9.927
-0.0290608 -0.549841 10.0638
1.39649 -0.836443 19.5029
1.01192 -0.87377 21.6446
-0.0562727 -0.318459 21.6845
-0.673906 0.0351512 21.5517
-1.54626 0.522826 20.8356
-1.56899 0.433047 20.8912
1.93836 -0.253579 19.053
1.69752 -1.00994 21.8548
0.118947 -0.791353 21.0395
-0.59219 -0.187852 19.9329
-1.60047 -0.418937 19.1222
-2.00687 -0.536135 19.3575
1.29785 0.759578 19.5349
2.12175 0.728004 20.783
1.38536 -0.0553096 22.1088
0.126582 -0.502202 21.7859
-0.230563 -0.816087 21.5885
-0.29593 -1.00446 21.6949
-2.35637 -0.513034 3.15968
-0.0770699 -1.04997 2.33109
0.0634636 -0.101789 1.8346
0.125597 -0.00467984 0.335949
-0.0117876 0.0128053 0.0372167
0.154832 0.11041 1.16895
-6.41156 0.387741 8.11601
-0.488515 2.22312 2.68889
-0.0495437 -0.0169028 0.200485
0.0204832 -0.0427358 0.0424731
-0.0843904 0.0317056 -0.0465771
-0.0218512 -0.0230116 0.138667
0.0767645 -1.05218 2.33546
2.38393 -0.521481 3.19367
-0.0586331 -0.090326 1.69598
0.0105307 0.0122856 0.0362923
-0.124031 -0.0083723 0.331246
-0.157392 0.107895 1.18444
0.489039 2.22722 2.69572
6.42695 0.40077 8.13889
0.0495158 -0.0168925 0.200468
0.079722 0.0413795 -0.0591789
-0.0185834 -0.0444353 0.0400758
0.0206486 -0.022094 0.136404
0.0417403 0.0212495 0.579168
0.0790668 -0.0157402 1.98692
0.000107168 -0.000207342 0.0142361
0.00192177 0.000465504 0.0158078
0.0524672 0.000240767 0.884152
0.0466167 0.00312141 1.83542
0 0 0
0 0 0
-0.070698 -0.0960726 0.311019
4.10515e-05 0.00101135 0.0780872
0 0 0
-0.0365821 0.0502522 0.090602
0.00344699 0.00793208 0.0281494
0.0029748 0.0158772 0.0596739
0 0 0
0.043757 -0.0133799 0.212734
-0.0314511 0.0215162 0.406268
0 0 0
-0.0907168 -0.0152187 1.87116
-0.000108148 -0.000201758 0.0144581
-0.0531143 0.000375638 0.896455
0 0 0
-0.0539687 0.00418532 1.8509
3.81081e-18 1.05736e-17 5.14372e-17
0.0703396 -0.0954561 0.309552
0.0374116 0.0516855 0.0933448
-4.37124e-05 0.000988579 0.078244
0 0 0
-0.00403037 0.00932131 0.0327858
-0.0440229 -0.0133202 0.21217
-0.00296123 0.0158838 0.0594993
0 0 0
-1.58498e-18 -1.7585e-18 2.80267e-17
-0.424086 0.497415 0.582472
1.22834e-07 -1.21101e-06 4.86652e-05
0 0 0
-0.00163959 -0.008605 0.087159
1.2546e-05 -5.02238e-07 5.83524e-05
0 0 0
0 0 0
-1.37612e-05 0.000375456 0.0026598
0 0 0
0.000131287 0.000676811 0.0377138
-4.92765e-06 -6.86037e-06 -6.43526e-05
3.48841e-05 0.117751 0.0367967
6.52464e-06 0.000979856 0.00468406
-0.00257471 -0.01424 0.0751379
-0.00350203 0.00125207 0.00852445
-0.00018781 -0.00125626 -9.09918e-05
0 0 0
0.000826908 0.00283409 0.0745833
-0.00228796 0.000918146 -0.00262579
0.42126 0.494045 0.57862
0 0 0
-1.24535e-05 -4.91565e-07 5.78158e-05
0.00172332 -0.00877276 0.0906248
8.62246e-18 -5.72076e-18 1.11123e-19
0 0 0
4.85225e-06 -6.5692e-06 -6.16794e-05
-0.000132961 0.00063886 0.0369726
0.00355154 0.00127033 0.00864698
0.0027519 -0.0153365 0.0810531
0.0022141 0.000971004 -0.00273024
-0.000816475 0.00290229 0.074334
0 0 0
0.00066636 -4.53339e-05 0.00832465
0 0 0
0 0 0
0 0 0
-5.05791e-07 -9.17086e-09 -4.20587e-05
0 0 0
-7.27998e-05 0.000738186 0.0110819
2.52253e-06 5.60195e-07 0.000238346
6.85127e-07 -2.81704e-07 -9.90592e-05
0.00334183 0.0198594 0.0936115
-0.0176793 0.0598175 0.861829
0 0 0
-2.6484e-05 0.0638177 0.313071
-1.51277e-06 -7.59908e-06 0.00242995
-0.000109839 -0.0048855 0.0190783
-0.000763773 2.32463e-05 0.0108555
0 0 0
0 0 0
0 0 0
0 0 0
7.88352e-05 0.000772179 0.0115927
0.0174326 0.0600236 0.862856
-0.00333415 0.0197676 0.0932899
-0.00148657 -0.00795814 0.0702554
-0.011112 -0.0211191 0.130277
0 0 0
-0.0108485 -0.0464838 0.270293
4.5524e-07 3.09713e-05 0.00060441
0.00118269 0.00579875 0.0327058
1.55836e-19 -5.7731e-18 -7.70828e-17
0.00284191 0.0203322 0.0700056
0 0 0
0.00011657 0.00160841 0.00883256
0.00301847 0.000114021 0.0349165
0.00945864 -0.0060622 0.0953654
1.14438e-07 -5.60853e-08 2.15954e-06