# vtk DataFile Version 2.0
tri_press
ASCII
DATASET UNSTRUCTURED_GRID
POINTS 3682 float
-0.765 0.225 -2.25071
-0.764225 0.335 2.235
-0.800529 0.775 -2.215
-0.71922 1.015 2.285
0.765 0.225 -2.25071
0.764233 0.335 2.235
0.800534 0.775 -2.215
0.719246 1.015 2.285
-0.821508 0.2049 -0.755474
-0.827687 0.23513 0.739763
-0.837532 0.919106 -0.715
-0.814418 1.00309 0.785
0.821425 0.204986 -0.755474
0.8277 0.235122 0.739763
0.837557 0.919119 -0.715
0.814432 1.00309 0.785
-1.57796 -0.17267 -3.46937
-1.58437 -0.12745 -2.27127
-1.6215 -0.133825 -0.776157
-1.62152 -0.117209 0.717997
-1.57672 -0.0439755 2.21303
-1.56578 0.0105057 3.41073
-1.57239 0.0566173 4.60917
-1.57903 0.149947 -3.4498
-1.58557 0.213108 -2.25118
-1.63134 0.221579 -0.755143
-1.62 0.244204 0.740469
-1.55044 0.313389 2.23642
-1.54897 0.366603 3.43419
-1.56444 0.412493 4.63246
-1.59465 0.759817 -3.412
-1.61046 0.821242 -2.21358
-1.64424 0.926114 -0.714294
-1.61123 0.991075 0.785331
-1.52371 1.01974 2.28453
-1.53558 1.07057 3.4821
-1.56104 1.12109 4.67961
-1.61108 1.76267 -3.35172
-1.62069 1.83813 -2.15259
-1.63209 1.96001 -0.651758
-1.62554 2.05966 0.850101
-1.60295 2.11587 2.35088
-1.59265 2.15383 3.54991
-1.5942 2.19607 4.74794
-0.775539 -0.16663 -3.46906
-0.772443 -0.118738 -2.27082
-0.807904 -0.141879 -0.776218
-0.821579 -0.123897 0.717395
-0.793443 -0.033578 2.21198
-0.786055 0.0177435 3.41002
-0.791152 0.0600278 4.60875
-0.775515 0.150627 -3.44971
-0.775245 0.374311 3.4336
-0.786721 0.415748 4.63215
-0.788121 0.741319 -3.41259
-0.764335 1.07092 3.48219
-0.78586 1.12191 4.67963
-0.801344 1.74947 -3.35231
-0.807923 1.82539 -2.15323
-0.820618 1.95695 -0.652145
-0.826003 2.06361 0.850147
-0.817403 2.11799 2.35121
-0.810612 2.15428 3.55024
-0.811334 2.19624 4.74818
0.803231 -0.166617 -3.46906
0.798246 -0.118718 -2.27082
0.822949 -0.141821 -0.776218
0.813759 -0.12389 0.717395
0.771156 -0.0335773 2.21198
0.765738 0.0177459 3.41002
0.766691 0.060032 4.60875
0.797251 0.150635 -3.44971
0.756571 0.374312 3.4336
0.761211 0.415751 4.63215
0.806275 0.741325 -3.41259
0.740532 1.07093 3.48219
0.75276 1.12191 4.67963
0.814868 1.74948 -3.35231
0.815854 1.8254 -2.15323
0.808124 1.95696 -0.652145
0.781292 2.06361 0.850147
0.753427 2.11799 2.35121
0.748592 2.15428 3.55024
0.750518 2.19625 4.74818
1.60044 -0.172637 -3.46937
1.5986 -0.127403 -2.27127
1.63038 -0.133743 -0.776157
1.62312 -0.117183 0.717997
1.57154 -0.0439705 2.21303
1.55419 0.0105124 3.41073
1.55285 0.0566266 4.60917
1.5937 0.149971 -3.4498
1.58405 0.213138 -2.25118
1.63094 0.221665 -0.755143
1.62664 0.244223 0.740469
1.55862 0.31339 2.23642
1.5413 0.366607 3.43419
1.5445 0.412501 4.63246
1.60493 0.759834 -3.412
1.60636 0.821258 -2.21358
1.64119 0.926154 -0.714294
1.61475 0.991087 0.785331
1.52831 1.01974 2.28453
1.5218 1.07057 3.4821
1.53325 1.1211 4.67961
1.62111 1.76269 -3.35172
1.62395 1.83815 -2.15259
1.61875 1.96003 -0.651758
1.5883 2.05968 0.850101
1.55002 2.11588 2.35088
1.53765 2.15384 3.54991
1.53732 2.19608 4.74794
-0.832995 0.5 -2.28309
0 0.220005 -2.2557
-0.808874 0.199331 -1.50309
-0.760786 0.675 2.27906
3.99351e-06 0.329158 2.24084
-0.837996 0.243025 1.48738
2.5034e-06 0.803362 -2.24336
-0.841491 0.869514 -1.465
1.29938e-05 1.04255 2.31255
-0.796229 1.03846 1.535
0.833016 0.5 -2.2831
0.809384 0.198822 -1.50309
0.760794 0.675 2.27905
0.837919 0.243109 1.48738
0.841514 0.869528 -1.465
0.796248 1.03845 1.535
-0.824936 0.219677 -0.00785506
-0.878749 0.562003 -0.735237
-4.16586e-05 0.191078 -0.755474
-0.878795 0.619112 0.762382
6.41078e-06 0.196516 0.739763
-0.822582 0.957708 0.0350001
1.2151e-05 1.26343 -0.715
7.26849e-06 1.46793 0.785
0.825036 0.219581 -0.00785506
0.878744 0.562052 -0.735237
0.878791 0.619106 0.762382
0.822597 0.957707 0.0350001
-0.86596 0.531002 -1.48405
0.865942 0.531026 -1.48405
-2.08293e-05 0.190576 -1.50309
7.3272e-06 0.957755 -1.465
1.2517e-06 0.5 -2.3833
-0.878768 0.590558 0.0135725
0.878763 0.590579 0.0135725
-1.76239e-05 0.193479 -0.00785506
9.70975e-06 1.47729 0.0350001
-0.891711 0.647056 1.51119
0.891289 0.647053 1.51119
5.20214e-06 0.221901 1.48738
1.01312e-05 1.26086 1.535
8.49366e-06 0.675 2.35281
-0.81365 0.3625 -2.28155
-0.3825 0.220471 -2.25524
-0.802179 0.196923 -1.8769
-0.793464 0.505 2.28799
-0.382111 0.329159 2.24084
-0.817338 0.272785 1.86119
-0.815919 0.6375 -2.2482
-0.400263 0.790551 -2.23055
-0.826775 0.828022 -1.84
-0.748085 0.845 2.29011
-0.359603 1.03841 2.30841
-0.771297 1.0403 1.91
0.3825 0.220451 -2.25526
0.813773 0.3625 -2.28167
0.800989 0.198114 -1.8769
0.382118 0.329157 2.24084
0.793443 0.505 2.28796
0.8174 0.27273 1.86119
0.400268 0.790641 -2.23064
0.816094 0.6375 -2.24837
0.82679 0.82803 -1.84
0.359629 1.03838 2.30838
0.748105 0.845 2.29011
0.771328 1.04031 1.91
-0.817417 0.199889 -1.12928
-0.822941 0.212569 -0.381664
-0.868071 0.37448 -0.745355
-0.413628 0.192283 -0.755474
-0.836344 0.235574 1.11357
-0.826005 0.22771 0.365954
-0.868075 0.419704 0.751073
-0.420914 0.201676 0.739763
-0.847043 0.901841 -1.09
-0.878586 0.750777 -0.725118
-0.829786 0.938136 -0.34
-0.48916 1.23207 -0.715
-0.810649 1.0261 1.16
-0.874968 0.825284 0.773691
-0.817139 0.97904 0.41
-0.516195 1.45349 0.785
0.815083 0.202225 -1.12928
0.413293 0.19283 -0.755474
0.821968 0.213546 -0.381664
0.868082 0.37452 -0.745355
0.836548 0.235377 1.11357
0.419283 0.20496 0.739763
0.826008 0.227711 0.365954
0.868084 0.419695 0.751073
0.847056 0.901844 -1.09
0.489191 1.23209 -0.715
0.878593 0.750807 -0.725118
0.829806 0.938142 -0.34
0.810835 1.02627 1.16
0.516208 1.45349 0.785
0.874963 0.825274 0.773691
0.817157 0.979041 0.41
-0.850637 0.515501 -1.88357
-0.416497 0.5 -2.38081
-1.04147e-05 0.190565 -1.8794
6.25849e-07 0.360003 -2.3443
-0.865833 0.365166 -1.49357
-0.404447 0.190576 -1.50309
-0.858608 0.661028 1.89513
-0.380389 0.675 2.34749
4.59783e-06 0.272214 1.86411
6.24359e-06 0.502079 2.37568
-0.896287 0.445041 1.49929
-0.418995 0.221901 1.48738
4.9153e-06 0.896797 -1.85418
1.87755e-06 0.651681 -2.29743
-0.871742 0.700258 -1.47452
-0.420742 0.951831 -1.465
1.15625e-05 1.09803 1.92377
1.07437e-05 0.858774 2.32401
-0.874175 0.842757 1.5231
-0.39811 1.22947 1.535
0.850662 0.515513 -1.88358
0.416509 0.5 -2.38075
0.865653 0.364924 -1.49357
0.404681 0.190576 -1.50309
0.858625 0.661027 1.89512
0.380401 0.675 2.34753
0.896287 0.445081 1.49929
0.418962 0.221901 1.48738
0.871732 0.700277 -1.47452
0.420761 0.951831 -1.465
0.87418 0.842753 1.5231
0.398129 1.22946 1.535
-0.868003 0.397042 0.00285873
-0.417204 0.197124 -0.00785506
-0.877009 0.546502 -1.10964
-0.878766 0.57628 -0.360832
-3.1244e-05 0.190708 -1.12928
-2.96413e-05 0.194059 -0.381664
-0.878807 0.604835 0.387977
-0.895762 0.633084 1.13679
-5.60657e-06 0.194389 0.365954
5.80646e-06 0.190916 1.11357
-0.87801 0.7878 0.0242863
-0.53565 1.46623 0.0350001
9.7391e-06 1.0071 -1.09
1.09304e-05 1.43941 -0.34
8.48912e-06 1.48467 0.41
8.69982e-06 1.4179 1.16
0.86801 0.397025 0.00285873
0.417128 0.197292 -0.00785506
0.877031 0.546539 -1.10964
0.87876 0.576316 -0.360832
0.878802 0.604843 0.387977
0.895762 0.63308 1.13679
0.877998 0.787802 0.0242863
0.535667 1.46623 0.0350001
-0.850064 0.363833 -1.88023
-0.866842 0.374309 -1.11946
-0.881346 0.720406 -1.09982
-0.853134 0.668879 -1.86178
0.849955 0.363712 -1.88024
0.852792 0.668889 -1.86179
0.881447 0.720431 -1.09982
0.866835 0.374221 -1.11946
-0.393474 0.190564 -1.87815
0.393591 0.190564 -1.87815
0.407687 0.190727 -1.12928
-0.407611 0.190689 -1.12928
-0.410503 0.889239 -1.84709
-0.419751 1.00356 -1.09
0.419773 1.00356 -1.09
0.410514 0.889239 -1.84709
-0.399498 0.361251 -2.33834
-0.40838 0.64459 -2.28419
0.408389 0.64459 -2.28419
0.399504 0.361251 -2.33834
-0.868043 0.385758 -0.371248
-0.868027 0.408379 0.376966
-0.876719 0.806657 0.398989
-0.878501 0.76939 -0.350416
0.868054 0.385768 -0.371248
0.878502 0.769408 -0.350416
0.876723 0.806659 0.398989
0.868009 0.408379 0.376966
-0.414381 0.196773 -0.381664
0.415747 0.193987 -0.381664
0.417506 0.202525 0.365954
-0.41845 0.200618 0.365954
-0.545955 1.41625 -0.34
-0.53081 1.46964 0.41
0.530831 1.46964 0.41
0.545957 1.41621 -0.34
-0.891132 0.436081 1.12518
-0.874201 0.47502 1.87816
-0.854981 0.843879 1.90256
-0.875767 0.82693 1.14839
0.891153 0.436098 1.12518
0.87578 0.826926 1.14839
0.854993 0.843877 1.90256
0.87421 0.47504 1.87816
-0.416418 0.190932 1.11357
0.416408 0.190901 1.11357
0.40054 0.272169 1.86265
-0.400553 0.272157 1.86265
-0.402657 1.39709 1.16
-0.378857 1.0925 1.91689
0.378879 1.0925 1.91689
0.402674 1.3971 1.16
-0.38125 0.50354 2.37039
0.38126 0.50354 2.3703
0.370015 0.851887 2.34635
-0.369996 0.851887 2.34637
-0.790238 0.29375 -2.26704
-0.57375 0.22089 -2.25482
-0.791082 0.203469 -2.06381
-0.777445 0.42 2.2601
-0.573168 0.329156 2.24084
-0.794799 0.299875 2.0481
-0.813505 0.70625 -2.23688
-0.600396 0.761458 -2.20146
-0.815167 0.803026 -2.0275
-0.740058 0.93 2.29396
-0.539412 1.03288 2.30288
-0.753007 1.0354 2.0975
0.57375 0.22125 -2.25446
0.790517 0.29375 -2.26732
0.7915 0.203052 -2.06381
0.573176 0.329155 2.24084
0.777454 0.42 2.26009
0.794837 0.299844 2.0481
0.600401 0.761466 -2.20147
0.813106 0.70625 -2.23648
0.815133 0.802986 -2.0275
0.539438 1.03287 2.30287
0.739943 0.93 2.29382
0.753022 1.03539 2.0975
-0.818337 0.203521 -0.942378
-0.822586 0.208373 -0.568569
-0.853422 0.285374 -0.750414
-0.619108 0.195512 -0.755474
-0.832974 0.234393 0.926668
-0.8269 0.231366 0.552859
-0.85494 0.323887 0.745418
-0.627577 0.21185 0.739763
-0.846604 0.91479 -0.9025
-0.867911 0.839868 -0.720059
-0.833224 0.928186 -0.5275
-0.723124 1.19514 -0.715
-0.813432 1.0155 0.9725
-0.85719 0.920438 0.779346
-0.815515 0.990804 0.5975
-0.700928 1.29954 0.785
0.817455 0.204405 -0.942378
0.618693 0.196239 -0.755474
0.822587 0.208376 -0.568569
0.853438 0.285411 -0.750414
0.833127 0.234247 0.926668
0.627366 0.212291 0.739763
0.827063 0.231207 0.552859
0.854945 0.323882 0.745418
0.846624 0.914799 -0.9025
0.723143 1.19514 -0.715
0.867915 0.839883 -0.720059
0.833246 0.928195 -0.5275
0.813446 1.01549 0.9725
0.700936 1.29952 0.785
0.857168 0.920417 0.779346
0.81553 0.990801 0.5975
[...]
POINT_DATA 3682
SCALARS point_scalars float 1
LOOKUP_TABLE default
-110.738
-49.1205
-103.677
-40.8905
-110.753
-48.663
-103.419
-40.1184
-40.1478
-30.7233
-65.7903
-46.8461
-39.6734
-30.5604
-65.7402
-46.8112
-6.10633
-110.877
-41.9998
-35.7475
-50.6481
-45.4888
-40.3258
54.2874
-114.449
-41.0013
-36.1885
-49.3169
-43.1498
-40.4763
100.729
-122.931
-54.8132
-43.7729
-44.6095
-41.8248
-39.8331
-32.4615
-60.233
-104.224
-56.7265
-41.132
-40.0539
-40.0539
148.556
-165.539
-41.9097
-39.0262
-47.5466
-42.2765
-39.9547
153.581
-40.3258
-39.9547
164.631
-39.1043
-38.7148
12.782
-52.6413
-105.23
-56.941
-37.2596
-38.4689
-38.6366
120.456
-157.674
-41.8249
-38.646
-47.02
-42.797
-39.6325
153.92
-39.9451
-39.6325
139.167
-38.0823
-37.9105
13.3956
-52.6032
-105.314
-57.8495
-36.6883
-37.5169
-36.8921
-36.208
-109.975
-41.7631
-34.7937
-50.3234
-44.9837
-39.9451
52.7883
-114.422
-41.0029
-36.2361
-48.8487
-42.4911
-39.9807
99.4298
-123.096
-54.8072
-43.7001
-44.0261
-41.0879
-39.1036
-43.6646
-60.1393
-103.618
-57.1604
-40.5297
-39.2646
-39.2646
-99.9804
-187.996
-50.2385
-43.5096
-41.4563
-48.2386
-49.6194
-41.1938
-33.7845
-44.8439
-100.058
-50.0603
-42.8941
-48.1842
-41.1757
-44.6842
-37.4598
-44.5008
-43.8383
-39.6366
-41.5878
-54.0634
7.77458
-61.7438
-37.4059
-44.4976
-39.563
-54.0092
-45.6057
-45.579
-65.1474
-3.24441
202.199
-42.3296
-42.2801
-39.0399
-90.0043
-48.0813
-47.8791
-49.7767
-39.1946
-33.8766
-90.2557
-163.272
-71.4902
-46.2986
-43.1682
-50.0888
-116.355
-62.0354
-52.6177
-42.283
-35.6449
-40.4501
-162.852
-90.3647
-71.5176
-42.886
-45.7849
-49.8537
-62.3385
-113.752
-52.5994
-34.8216
-41.5926
-40.1598
-45.981
-38.1813
-41.4829
-43.2379
-45.2139
-36.9942
-35.0794
-40.1886
-43.4335
-50.8289
-60.5667
2.97113
-47.069
-43.4027
-49.5719
-60.1541
-45.6007
-42.8087
-38.5042
-41.4896
-45.2437
-39.2749
-37.0551
-35.0011
-43.366
2.90228
-50.8134
-60.5247
-47.008
-60.1155
-43.3286
-49.5228
-63.4258
194.221
-95.0754
96.1173
-46.0419
-62.3757
-49.2825
-38.2099
-45.9995
-38.5412
-48.1219
-50.1409
-31.3544
166.518
-44.8247
-10.5843
-35.8426
-31.3674
-44.8852
-39.9091
-63.4104
194.16
-45.9795
-62.3733
-48.9139
-37.6882
-47.9646
-50.1383
-44.7814
-10.5818
-44.6929
-39.9213
-39.5993
-38.5612
-43.0357
-44.0879
-51.1184
-39.9816
-40.4756
-44.0209
-39.6885
-48.0005
-46.6209
-81.2813
22.7336
-110.282
-74.2518
-48.8162
-39.5391
-38.8049
-43.0405
-44.0735
-40.4057
-43.9207
-46.5771
-81.2791
-63.3205
-44.6998
-44.3297
-60.4794
-63.3109
-60.4664
-44.3332
-44.723
-91.5284
-91.2304
-49.5174
-49.5254
-33.5861
13.2505
13.2365
-33.5912
109.516
152.37
152.481
109.528
-40.6921
-38.2599
-44.0427
-50.2361
-40.7095
-50.2072
-43.9886
-38.1571
-39.3315
-39.6862
-38.8429
-38.8165
-106.936
-66.5464
-66.506
-106.961
-44.0813
-49.4692
-47.7535
-44.4021
-44.0062
-44.3048
-47.3731
-49.1743
-47.5652
-47.6782
-46.7948
-46.8917
-49.9466
-36.7272
-36.576
-49.903
-39.9032
-39.657
-35.6847
-36.5464
-84.1884
-134.216
-98.119
-47.242
-45.2421
-49.7244
-110.146
-71.1325
-70.3169
-42.0535
-37.061
-40.1354
-134.528
-84.1751
-98.2775
-44.858
-46.7495
-49.4303
-67.7423
-109.45
-70.3437
-36.189
-41.313
-39.6426
-40.9201
-39.2343
-40.3708
-42.2676
-47.3234
-36.3504
-31.1854
-38.93
-59.3174
-56.9385
-63.5096
-74.774
-46.9429
-45.3463
-47.9406
-53.7863
-40.7669
-41.5565
-39.5685
-40.3782
-47.3663
-38.34
-35.8922
-31.1052
-59.2583
-74.8327
-56.9088
-63.475
-46.8816
-53.6964
-45.2932
-47.9143
-97.0859
-117.586
-96.8469
172.275
-185.225
-185.029
-128.618
55.8076
-59.5223
-46.8849
-46.1728
-58.4115
-44.6364
-42.6856
-48.2421
-39.1319
-41.9239
-41.7718
-43.6915
-38.8098
-52.0893
-45.3084
-47.6997
-50.4341
-69.0777
-68.2713
-53.9894
98.3453
-45.4134
-39.4365
-44.7197
-21.3017
-34.2013
-33.8415
-35.8684
-29.4631
-42.329
-46.3343
-44.2033
-41.4965
-97.1735
-117.573
-96.8526
172.309
-59.3831
-46.2848
-46.0633
-58.4186
-44.0498
-42.0523
-47.7358
-38.6289
-51.9442
-45.2868
-47.5497
-50.4038
-45.4058
-39.4165
-44.6908
-21.2962
-42.1501
-46.2259
-44.0331
-41.4096
-38.0096
-37.3668
-38.4768
-37.9106
-42.7785
-46.8381
-43.8181
-44.5798
-43.6865
-43.5829
-46.7931
-41.3189
-37.6644
-40.8921
-39.7606
-40.1623
-41.6528
-40.8464
-40.5165
-45.0383
-57.2524
-51.6548
-50.4049
-65.4537
7.54338
7.53422
36.8372
-53.753
-61.3692
-61.3464
-68.1863
-55.2452
-37.8947
-37.2268
-38.4052
-38.0529
-42.7819
-46.8282
-43.8134
-44.579
-37.591
-40.8203
-39.687
-40.089
-57.2013
-51.6088
-50.3598
-65.3988
-51.6754
-45.8705
-45.2175
-43.4313
-51.6428
-45.8364
-45.1709
-43.4277
-76.5104
-64.4424
-64.4422
-57.0956
-16.758
-4.87675
-4.87549
9.71077
201.035
187.547
190.723
201.019
-40.6469
-43.2688
-41.3912
-44.0064
-40.5932
-43.2353
-41.3295
-43.9599
-38.885
-39.262
-39.1758
-38.9925
-88.6269
-100.379
-82.0593
-88.6191
-49.0841
-48.2039
-46.185
-45.7411
-48.7992
-48.0785
-45.9749
-45.6186
-48.1155
-49.8639
-49.8723
-51.0157
-36.6075
-39.3526
-39.3216
-42.7117
-35.5485
-35.0848
-32.4567
-35.0124
-93.7642
113.593
-124.744
59.195
-65.2573
-85.134
-49.5703
-40.2191
-44.759
-40.4165
-48.8104
-48.271
-88.7379
139.648
-53.8068
88.464
-57.0244
-38.5941
-46.6552
-38.6919
-35.8171
-35.6845
-45.3795
-37.4591
-125.01
59.2362
-93.7459
113.663
-65.188
-85.1763
-44.5852
-40.0804
-49.1459
-39.8935
-48.5371
-48.121
-53.5479
88.2776
-88.7776
139.641
-57.0153
-38.5882
-35.5266
-34.6143
-46.1159
-37.9889
-45.0208
-37.2647
-46.1061
-47.4946
-39.3055
-38.6393
-41.8345
-41.186
-45.6809
-40.3882
-44.6393
-46.2305
-37.4612
-38.144
-37.167
-41.6295
-39.6704
-44.881
-44.8597
-4.23738
-47.9101
-51.1336
-55.1068
-85.173
25.8031
-47.7474
-45.4975
-52.27
-43.2279
-42.6139
-46.9162
-56.9608
-63.3136
-55.8362
-46.0286
-47.5566
-45.5855
-40.7941
-39.3469
-39.1249
-41.8147
-41.2338
-44.5924
-46.2448
-39.3097
-45.059
-37.3398
-38.1164
-37.0596
-41.554
-44.8549
-4.22354
26.2121
-47.6839
-47.8926
-51.108
-55.0727
-85.0804
-45.4067
-52.1932
-63.2825
-55.7942
-43.1744
-42.5459
-46.8745
-56.8842
-62.3929
-63.1881
177.113
175.23
-94.1807
-94.2039
98.7993
98.8125
-52.0114
-42.9685
-73.2076
-54.9599
-49.0983
-48.96
-38.5281
-37.8015
-46.1757
-46.2234
-39.0806
-38.9
-44.9908
-51.2452
-51.1696
-48.9162
-31.5697
-31.562
167.845
167.835
-42.4444
-50.6271
-21.7736
1.1699
-36.1456
-36.0374
-32.6197
-33.2968
-47.3048
-45.2773
-43.5799
-37.7412
-62.3795
-63.1588
175.188
176.902
-51.9699
-42.9614
-73.1891
-54.9716
-48.5801
-48.7585
-38.1192
-37.1206
-44.886
-50.9837
-51.229
-48.8631
-50.629
-42.4435
1.17152
-21.7441
-45.1379
-47.0323
-37.6258
-43.5309
-40.1985
-39.0122
-38.656
-38.842
-43.7219
-43.5732
-42.048
-46.4373
-50.6914
-50.7036
-39.781
-39.9234
-39.0427
-41.8251
-44.0135
-43.7896
-39.4459
-39.4395
-47.909
-48.0053
-45.3208
-48.8964
-93.516
-72.4549
20.7632
20.738
-106.792
-106.609
-72.9516
-72.936
-49.1274
-49.1043
-40.1658
-38.936
-38.875
-38.5811
-43.5779
-43.7286
-42.0482
-46.416
-41.7628
-38.956
-43.9282
-43.6928
-48.852
-45.2719
-72.4041
-93.4714
-92.5631
-53.1571
-51.7385
-94.1024
-40.7936
-42.8352
-43.8936
-40.768
-52.4997
-42.1129
-43.0834
-45.2931
-82.3841
-94.6269
-51.5696
-49.451
-92.5491
-94.0867
-51.6921
-53.0502
-82.4481
-49.4626
-51.5527
-94.6415
-52.4658
-45.284
-43.0821
-42.1033
-40.7333
-40.9204
-43.8908
-42.8282
-116.394
-127.609
-75.6744
-68.2529
-116.657
-68.2168
-75.6738
-127.686
-44.0416
-46.4678
-56.5481
-52.1747
-44.083
-52.0814
-56.5484
-46.513
-57.2665
-30.0853
-17.7828
-53.3468
-16.0342
34.1109
7.78667
-11.2302
-16.124
-11.2777
7.78354
34.0846
-57.2788
-53.3197
-17.7759
-30.043
54.8987
171.662
185.836
54.9162
59.0045
102.377
189.368
154.311
62.5957
154.357
189.281
102.449
59.0273
54.9644
185.796
167.61
-39.978
-38.9177
-41.4159
-42.5426
-36.3115
-38.2314
-39.9445
-38.0594
-45.806
-48.8733
-42.8441
-41.118
-56.8309
-47.0553
-45.2921
-53.0955
-40.0903
-42.5613
-41.3843
-38.8727
-56.7941
-53.0464
-45.2565
-47.043
-45.7655
-41.0528
-42.7882
-48.8255
-36.1619
-37.9751
-39.8751
-38.1459
-39.4742
-41.0737
-39.0892
-38.252
-40.1195
-38.3903
-39.2344
-41.1908
-38.0563
-40.1982
-39.045
-37.8917
-38.474
-38.4655
-39.021
-40.3694
-103.945
-72.9698
-99.1671
-49.573
-54.3164
-67.2649
-80.141
-61.3389
-54.2467
-61.2618
-80.129
-67.2458
-103.941
-49.8851
-99.1259
-72.9078
-41.0117
-44.4855
-45.5208
-40.4439
-49.8954
-48.0755
-49.475
-53.1275
-45.0009
-45.0404
-48.1992
-47.5142
-45.1404
-41.1854
-46.0176
-45.1074
-40.9569
-40.3642
-45.4059
-44.3991
-45.0757
-44.978
-45.888
-41.1296
-44.454
-46.991
-47.9164
-44.8011
-49.5134
-52.8513
-49.178
-47.6104
-44.9602
-44.9137
-51.1463
-47.7569
-45.0002
-47.774
-51.1974
-45.0665
-45.8337
-43.8899
-48.2778
-50.147
-46.0645
-50.2669
-48.3001
-43.9853
-52.936
-45.8198
-42.9204
-55.3908
-36.5443
-35.8308
-36.8896
-38.9103
-36.138
-38.7931
-36.8157
-35.6751
-52.8826
-55.3677
-42.8918
-45.7446
-41.4097
-39.3745
-36.5486
-39.2411
-40.9896
-38.8395
-36.1378
-39.1752
-37.3031
-31.1876
-33.7585
-38.4431
-38.2109
-39.0107
-34.3702
-32.0104
-96.1428
-100.227
-120.427
-48.5348
-46.766
-47.6592
-100.383
-16.3962
-102.513
-42.0444
-38.2499
-40.5423
-100.733
-96.0656
-120.167
-46.352
-48.0395
-47.298
-15.8974
-100.182
-102.649
-37.4316
-41.2802
-39.9025
-40.9922
-40.3822
-39.6272
-41.7036
-42.5835
-35.3739
-29.6275
-36.3867
-66.2184
-60.8913
-64.8669
-98.6388
-46.6624
-46.7779
-47.1439
-50.3613
-40.7006
-40.8751
-40.5316
-39.5686
-42.7386
-36.108
-35.1662
-29.5454
-66.1596
-98.5823
-60.8556
-64.8288
-46.6207
-50.3303
-46.7365
-47.1158
-100.955
-103.385
-132.799
98.5909
-181.332
-181.283
-155.948
7.34663
-53.6193
-48.7188
-46.4323
-55.378
-43.4554
-43.2118
-46.8976
-39.8871
-41.5979
-41.52
-42.4617
-39.7373
-51.2232
-45.8465
-47.2447
-49.0884
-62.4515
-65.4468
-82.9578
36.2246
-41.5802
-40.4717
-44.5585
-30.6491
-33.8348
-33.5254
-36.0807
-29.159
-42.8401
-45.4079
-44.2238
-43.7632
-100.977
-103.319
-132.771
97.6872
-53.2172
-48.5356
-46.1611
-55.3885
-42.8643
-42.5857
-46.3153
-39.3644
-51.2913
-45.8099
-47.1335
-49.0507
-41.6134
-40.4571
-44.5368
-30.6709
-42.7052
-45.2875
-44.0718
-43.6511
-37.6648
-37.5087
-37.6917
-37.5925
-43.5323
-45.5378
-44.2316
-44.6045
-43.8182
-43.7705
-45.1508
-42.4893
-39.2164
-40.1387
-39.6606
-38.5731
-41.6918
-41.2692
-41.0568
-43.1957
-55.5999
-52.7574
-53.0546
-59.2174
7.85717
7.87348
29.3998
-15.4148
-61.657
-61.6459
-65.0339
-58.3609
-37.6462
-37.3299
-37.6082
-37.5946
-43.533
-45.5341
-44.2256
-44.6046
-39.143
-40.0654
-39.5893
-38.4943
-55.5476
-52.7053
-53.0006
-59.1432
-48.0602
-45.7077
-45.4807
-43.9196
-48.0294
-45.6787
-45.4504
-43.9021
-70.2228
-64.9126
-64.9133
-60.7911
-10.9636
-3.6709
-3.67023
2.79266
202.048
205.067
187.866
202.034
-41.4557
-42.8103
-41.8403
-43.0766
-41.4039
-42.7688
-41.7844
-43.0287
-38.9778
-39.0818
-39.0805
-39.0307
-89.6969
-94.5777
-85.6613
-89.6892
-47.9
-48.1861
-47.4786
-46.86
-47.5835
-48.0516
-47.2692
-46.7455
-49.0799
-49.792
-49.7978
-50.5149
-37.8434
-39.1977
-39.1827
-40.7396
-34.9236
-33.8095
-33.442
-34.6218
-87.1129
-96.9232
-122.006
73.5461
-140.18
-175.072
-155.644
-6.03225
-80.1416
-63.5944
-66.4697
-79.9727
-46.5892
-45.4975
-49.4444
-41.2843
-44.0884
-42.4514
-43.7475
-41.4843
-48.8221
-51.0746
-48.6916
-49.2144
-128.106
-114.973
-134.248
111.156
-78.2811
-51.536
-70.1775
27.3067
-60.3121
-49.5562
-55.4347
-45.7814
-42.2917
-42.5723
-45.8021
-39.4672
-36.2192
-35.1103
-35.7967
-35.3469
-40.2655
-41.6484
-43.1594
-38.4422
-140.195
-174.731
-154.874
-5.94705
-87.0795
-96.9872
-122.032
73.4479
-80.8438
-63.3859
-66.5382
-79.9337
-43.7446
-42.2323
-43.5215
-41.1346
-46.0916
-44.9611
-48.9504
-40.866
-48.5946
-50.6432
-48.4438
-49.0394
-80.6793
-55.0172
-70.209
27.0827
-127.209
-114.913
-134.357
110.854
-60.0769
-49.5411
-55.4206
-45.7668
-35.3373
-34.383
-35.3971
-34.2093
-41.5822
-41.9099
-45.1611
-38.8255
-39.8834
-41.4226
-42.8417
-38.2116
-43.304
-49.4409
-48.6694
-46.3723
-39.3524
-38.1775
-38.4397
-38.3142
-40.9109
-42.1078
-41.7034
-41.3573
-42.8843
-43.438
-44.304
-41.7277
-44.9996
-45.4064
-44.1951
-46.3662
-36.8425
-37.3414
-37.023
-37.8031
-33.4362
-36.2082
-36.3038
-36.1542
-39.0782
-41.3332
-40.3575
-42.6216
-50.0815
-39.7962
-45.9384
-26.1847
-53.756
-48.4677
-49.6163
-51.2142
-62.1166
-58.9407
-58.4298
-70.2013
-9.7868
6.18672
23.865
-22.1517
-46.8287
-46.562
-46.521
-50.5595
-44.6683
-41.8476
-43.0793
-42.6938
-48.5586
-50.4587
-48.7039
-53.1052
-57.4533
-60.9169
-62.0197
-58.18
-42.7977
-51.2829
-48.2926
-46.2409
-42.2648
-43.2568
-44.1323
-41.6547
-39.7238
-38.1024
-38.5852
-39.0414
-40.918
-42.1138
-41.6892
-41.3895
-44.986
-45.4165
-44.1699
-46.3231
-38.3914
-40.3006
-39.3531
-42.3836
-36.419
-37.3072
-36.9423
-37.9998
-33.3541
-36.132
-36.211
-36.0875
-50.0108
-39.7945
-45.9288
-26.1385
-9.89696
6.05274
23.8534
-22.1747
-53.7361
-48.4542
-49.597
-51.1935
-62.0792
-58.8944
-58.3897
-70.1502
-46.7489
-46.4886
-46.441
-50.4738
-57.3715
-60.884
-61.9836
-58.1413
-44.5981
-41.7765
-43.0207
-42.6281
-48.4945
-50.4203
-48.6678
-53.0508
-76.2034
-56.0091
-62.6893
-63.5071
188.579
197.287
197.171
175.437
-109.508
-84.3448
-94.7895
-94.8015
90.0853
148.099
95.9626
95.9747
-46.1334
-45.949
-48.2312
-44.5334
-60.7277
-63.5943
-67.2292
-58.35
-48.9913
-49.5675
-49.3972
-49.2449
-38.7708
-37.3685
-37.9664
-38.2637
-44.8825
-47.1282
-46.041
-46.0658
-38.329
-37.5704
-38.6321
-38.5303
-47.9236
-48.1415
-46.1368
-50.8422
-50.554
-50.0082
-50.7105
-49.6438
-41.2073
-23.6817
-31.3266
-31.322
142.394
181.055
168.251
168.243
-44.6758
-45.1486
-43.3287
-47.3038
-15.7883
-7.02906
-17.1031
-4.98056
-35.7388
-35.9015
-35.9276
-35.8674
-30.8192
-31.9789
-31.6288
-32.0383
-44.4442
-45.2419
-45.4064
-45.0197
-40.4756
-39.6002
-41.4507
-38.6402
-76.1875
-55.9882
-62.6748
-63.4887
188.596
197.261
175.391
197.167
-46.0511
-45.9076
-48.1642
-44.5323
-60.7376
-63.5928
-67.218
-58.3575
-48.5522
-49.2562
-48.8702
-49.0367
-38.261
-36.7948
-37.3178
-37.6101
-47.7746
-48.0126
-46.0142
-50.6156
-50.5377
-50.016
-50.7337
-49.6161
-44.6402
-45.1097
-47.3202
-43.297
-15.7839
-7.02748
-4.98119
-17.096
-44.2619
-45.038
-44.8543
-45.184
-40.3998
-39.5525
-38.5627
-41.3965
-39.0301
-40.1255
-39.8831
-39.336
-38.1534
-38.765
-38.4309
-38.7422
-43.462
-43.3692
-43.0789
-43.2857
-44.4094
-43.7082
-43.0379
-45.1352
-48.7636
-53.8732
-50.9759
-50.9822
-40.5674
-39.5623
-39.9111
-39.9793
-40.1145
-40.9509
-39.8008
-40.9808
-42.4843
-44.883
-44.0565
-43.9146
-40.0577
-39.3939
-39.6201
-39.6153
-46.4405
-50.0729
-47.9594
-48.0124
-48.1846
-45.085
-46.0908
-47.8217
-72.7351
-86.2221
-86.2109
-76.3079
29.9467
16.1607
22.2517
22.2146
-91.112
-106.546
-109.766
-109.718
-71.2468
-78.2347
-74.0007
-73.9932
-52.4423
-45.3965
-48.9406
-48.9285
-38.9657
-40.069
-39.8363
-39.2672
-38.7014
-38.8693
-38.684
-38.6711
-43.4632
-43.3729
-43.2896
-43.0844
-44.4037
-43.6839
-43.0299
-45.1176
-40.0396
-40.8835
-41.0131
-39.7253
-42.415
-44.7764
-43.9646
-43.814
-48.1431
-45.0399
-47.7794
-46.0388
-72.6915
-86.2258
-76.2936
-86.1736
-75.153
-64.3411
-62.5078
-55.9266
-45.4338
-41.9681
-46.4287
-44.3632
-44.3093
-46.0178
-42.4815
-44.1762
-70.5528
-58.1574
-62.0697
-54.5521
-75.1681
-64.3047
-62.495
-55.8669
-70.5842
-58.1417
-62.0238
-54.5058
-44.3056
-46.0178
-42.4709
-44.184
-45.4449
-41.9589
-46.4667
-44.3758
-105.347
-88.6914
-92.7268
-81.2232
-105.651
-88.7116
-92.818
-81.2043
-48.6619
-47.382
-52.0321
-50.1998
-48.6329
-47.5933
-52.0231
-50.2138
-42.317
-35.9521
-32.349
-27.4583
6.50642
19.1853
7.32414
18.2034
6.49445
19.1943
7.31688
18.1935
-42.3133
-35.9715
-32.3422
-27.3526
111.76
91.6432
134.827
107.042
145.888
123.77
169.743
164.445
123.869
145.804
164.468
169.769
91.6458
111.771
107.056
134.942
-39.9894
-40.9476
-40.4619
-41.3926
-37.8457
-37.8061
-38.6426
-38.6211
-43.5817
-45.2421
-42.7299
-44.6611
-50.7872
-52.6828
-47.9994
-49.5158
-40.0217
-40.9898
-40.4501
-41.3991
-50.7619
-52.6516
-47.9744
-49.4802
-43.529
-45.1929
-42.6715
-44.6105
-37.733
-37.6934
-38.5553
-38.5256
-38.9855
-39.6685
-39.0179
-39.5911
-40.1083
-39.3945
-39.8005
-39.33
-39.1516
-38.4612
-39.109
-38.6172
-38.4535
-38.9083
-38.7953
-39.1681
-107.103
-85.8519
-98.782
-103.765
-61.1933
-64.7772
-69.2072
-70.7886
-64.74
-61.1351
-70.7658
-69.1529
-85.8632
-107.115
-102.846
-98.6568
-44.1796
-44.5462
-44.1943
-44.0034
-49.8392
-49.2076
-49.3265
-49.6225
-47.6046
-46.8598
-48.4697
-48.0079
-44.7635
-43.5633
-45.0655
-43.8908
-44.118
-44.4795
-44.1104
-43.922
-44.6671
-43.48
-44.9519
-43.7958
-47.1395
-46.4814
-48.0854
-47.6848
-49.4965
-48.9199
-49.0093
-49.3399
-46.7045
-46.1056
-49.822
-47.8167
-46.7794
-46.245
-49.9137
-47.9347
-45.6863
-47.3617
-46.4199
-47.9134
-45.813
-47.4843
-46.4917
-47.986
-50.7879
-53.5006
-46.4433
-49.3508
-36.1468
-37.0281
-36.4334
-37.0848
-35.924
-36.8525
-36.2997
-36.9588
-50.7419
-53.4589
-46.3981
-49.3067
-40.055
-39.8837
-39.6479
-39.5336
-39.5848
-39.7738
-39.3114
-39.3831
-35.1062
-37.3074
-33.9014
-36.4334
-38.0956
-36.0703
-37.2127
-34.7123
-122.007
45.0992
-150.46
-3.25095
-95.303
-107.766
-49.291
-42.7413
-45.2602
-43.4254
-50.0888
-46.8911
-127.819
90.5715
-82.925
11.5117
-80.2185
-65.8613
-45.1515
-39.3528
-36.4293
-37.8409
-43.1961
-37.5329
-150.065
-4.18113
-122.005
44.8254
-95.347
-107.987
-44.9508
-42.9837
-48.8365
-42.2914
-49.7439
-46.643
-83.121
6.94398
-127.755
90.5438
-80.2731
-65.7105
-35.8915
-36.815
-44.4893
-38.5756
-42.6608
-37.0876
-41.4151
-43.1322
-39.6767
-39.2696
-40.7895
-40.1328
-42.757
-40.741
-43.1404
-46.0258
-36.0323
-37.8157
-34.9886
-34.1111
-38.8279
-44.8946
-56.2321
-54.639
-55.4173
-57.1392
-60.4002
-78.531
-30.459
-100.874
-46.4215
-49.6361
-45.468
-44.6181
-47.4394
-51.1181
-53.3201
-52.8714
-41.2675
-43.3577
-42.547
-40.7208
-39.8805
-39.8255
-40.7364
-40.2126
-42.9973
-46.128
-38.2206
-45.0638
-35.8067
-37.0235
-34.8804
-34.1257
-56.183
-54.623
-30.5755
-100.547
-55.3811
-57.1066
-60.3655
-78.5044
-46.3583
-49.5924
-53.2528
-52.8073
-45.4222
-44.5665
-47.4055
-51.0805
-119.672
100.653
-132.98
95.5363
-94.7671
-95.6531
189.082
150.162
-155.261
12.7685
-155.185
12.835
-127.723
-127.743
67.6433
67.681
-54.7276
-64.2884
-41.5508
-50.3017
-48.7866
-44.5785
-62.7482
-54.9163
-47.5956
-40.0811
-46.4245
-39.6823
-48.3226
-47.874
-38.9602
-39.1175
-42.8174
-40.2677
-42.6992
-40.0728
-43.7124
-43.7598
-38.9725
-38.8654
-54.248
-51.2226
-43.79
-46.8806
-45.6882
-52.8037
-49.158
-50.6906
-83.0639
34.124
-83.0293
34.4366
-53.6735
-53.6607
100.701
100.574
-48.708
-38.0587
-41.9214
-25.6643
-42.9322
-46.7948
-25.4656
-15.6402
-35.9826
-31.3673
-35.7641
-30.5233
-35.8728
-35.7934
-29.9058
-30.3773
-43.6719
-40.1928
-45.6286
-47.5112
-44.1177
-44.6931
-43.3466
-39.9861
-119.627
101.178
-132.905
95.6589
-94.764
-95.6686
150.184
188.966
-54.5156
-64.1808
-41.636
-50.5727
-48.6272
-44.5715
-62.7197
-54.9736
-47.0486
-39.5862
-45.8129
-39.1156
-47.3614
-47.8218
-38.4363
-38.5972
-53.9713
-51.0346
-43.7307
-46.8785
-45.5811
-52.6411
-49.1508
-50.6429
-48.7137
-38.0744
-41.9024
-25.646
-46.7885
-42.9105
-15.6334
-25.4626
-43.4604
-40.0318
-45.5095
-47.42
-44.5438
-43.9187
-39.8822
-43.2674
-38.1178
-38.3867
-37.4539
-37.8223
-38.6399
-38.3067
-37.9147
-38.2054
-42.842
-42.6898
-46.1565
-47.1451
-43.2029
-44.5168
-43.4875
-45.5697
-44.9136
-42.2871
-44.8498
-42.2996
-46.6921
-46.7133
-41.2975
-41.2918
-37.7787
-37.2904
-40.9273
-40.8447
-39.0809
-40.4087
-40.4213
-40.5557
-41.0107
-43.2261
-40.623
-42.8715
-40.3849
-40.5421
-44.9875
-45.0613
-55.6545
-64.3389
-50.737
-56.3872
-49.68
-51.207
-68.9409
-63.436
29.1423
-14.9099
29.1649
-14.9353
35.7252
35.7209
-52.9581
-52.9674
-64.397
-58.2667
-64.3761
-58.2447
-67.9597
-67.95
-55.279
-55.2673
-38.0001
-38.1147
-37.3529
-37.5031
-38.5897
-38.2147
-38.3639
-37.7702
-42.8383
-42.7042
-46.2126
-47.1347
-44.5107
-43.1974
-43.4949
-45.5635
-37.701
-37.2313
-40.8599
-40.761
-40.3397
-39.0014
-40.3327
-40.4915
-55.6051
-64.2829
-50.6903
-56.3224
-51.1702
-49.6295
-63.3559
-68.883
-51.6401
-51.6457
-48.108
-44.5351
-43.8176
-47.8683
-43.8354
-43.3237
-51.5992
-51.6201
-48.0615
-44.5283
-47.8508
-43.788
-43.3218
-43.8312
-76.2092
-76.2108
-69.4774
-60.1718
-69.4763
-60.1725
-56.9334
-56.9337
-16.9994
-16.9957
-12.2708
1.0946
1.09376
-12.2661
9.21669
9.2147
204.006
185.869
184.564
184.563
190.688
190.654