# vtk DataFile Version 2.0
tet_velo
ASCII
DATASET UNSTRUCTURED_GRID
POINTS 29498 float
-0.665 0.085 -2.12328
-0.759125 0.205 2.155
-0.701151 0.775 -2.035
-0.645 1.12993 2.065
0.665 0.085 -2.12253
0.755 0.205 2.15851
0.700398 0.775 -2.035
0.645 1.12834 2.065
-0.72093 0.100445 -0.697187
-0.790438 0.102312 0.728907
-0.777006 0.987882 -0.668334
-0.739006 1.08691 0.698333
0.719536 0.100464 -0.695517
0.787996 0.102004 0.731497
0.776209 0.987057 -0.668334
0.738421 1.08552 0.698333
-1.39953 -0.422507 -3.25083
-1.40343 -0.345328 -2.13363
-1.44988 -0.332388 -0.705937
-1.49968 -0.341937 0.733695
-1.49323 -0.276359 2.1624
-1.48939 -0.211322 3.28453
-1.49492 -0.149411 4.39756
-1.39941 -0.0215894 -3.22837
-1.40473 0.0771344 -2.11765
-1.46109 0.117894 -0.701637
-1.50425 0.121985 0.719661
-1.47316 0.192061 2.13681
-1.47814 0.256357 3.25805
-1.49138 0.316764 4.37302
-1.41676 0.74345 -3.16655
-1.43665 0.838846 -2.05315
-1.49603 0.999889 -0.67765
-1.47191 1.08048 0.693542
-1.40109 1.1312 2.07009
-1.44075 1.19119 3.19322
-1.47918 1.25074 4.31746
-1.44088 2.02064 -3.11911
-1.45555 2.13262 -2.0148
-1.48154 2.30795 -0.658594
-1.48513 2.45118 0.684634
-1.47213 2.54009 2.04125
-1.47584 2.59562 3.14642
-1.49181 2.64987 4.26413
-0.684281 -0.418418 -3.25433
-0.677127 -0.337503 -2.13881
-0.710579 -0.339849 -0.704611
-0.761096 -0.356522 0.74201
-0.761918 -0.27377 2.17648
-0.763061 -0.209499 3.29428
-0.769363 -0.149604 4.40347
-0.683149 -0.0251856 -3.22928
-0.763549 0.259837 3.26605
-0.771413 0.317216 4.37758
-0.695642 0.715672 -3.15893
-0.733133 1.19173 3.19247
-0.765947 1.25096 4.31771
-0.710474 2.00092 -3.11154
-0.718936 2.11369 -2.00649
-0.743601 2.30182 -0.653466
-0.756549 2.45436 0.684366
-0.753815 2.54326 2.03746
-0.759525 2.5973 3.14268
-0.773782 2.65075 4.26156
0.710352 -0.418586 -3.25359
0.702297 -0.337593 -2.13788
0.740451 -0.339971 -0.703057
0.777422 -0.356839 0.744304
0.7512 -0.274 2.1793
0.714085 -0.209972 3.29651
0.692701 -0.150233 4.40524
0.701738 -0.0253177 -3.22867
0.694139 0.259286 3.26818
0.679083 0.31652 4.37924
0.713331 0.715508 -3.1586
0.656369 1.19067 3.19349
0.660477 1.25008 4.31895
0.741473 2.00049 -3.11111
0.746169 2.11317 -2.00612
0.737633 2.30108 -0.653073
0.707738 2.45338 0.684829
0.678817 2.54219 2.03805
0.667338 2.59628 3.14343
0.660203 2.64982 4.26248
1.42101 -0.422955 -3.24932
1.41769 -0.345723 -2.13185
1.46786 -0.332941 -0.7033
1.51701 -0.342818 0.737427
1.49434 -0.277263 2.16683
1.45524 -0.212437 3.28847
1.42928 -0.150708 4.40092
1.41106 -0.0220013 -3.2271
1.40082 0.0767448 -2.11624
1.45938 0.117261 -0.699333
1.5119 0.12088 0.723091
1.47784 0.190975 2.14105
1.43429 0.255073 3.26175
1.41352 0.315346 4.3762
1.42658 0.742954 -3.16571
1.4313 0.838277 -2.05254
1.49012 0.998598 -0.676761
1.47374 1.07846 0.694852
1.40122 1.12896 2.07176
1.38703 1.18925 3.19548
1.38743 1.24902 4.31994
1.4657 2.01974 -3.11818
1.47355 2.13156 -2.01394
1.47278 2.3065 -0.657671
1.44364 2.44934 0.685719
1.40695 2.53807 2.04258
1.39093 2.59367 3.14804
1.38377 2.64804 4.26602
-0.736896 0.43 -2.13296
0 0.081532 -2.12637
-0.69089 0.0947974 -1.41023
-0.755006 0.667465 2.16294
-0.0020625 0.168999 2.19276
-0.804144 0.124293 1.44195
-0.000376493 0.848767 -2.10877
-0.759914 0.902276 -1.35167
0 1.17234 2.10821
-0.712045 1.12846 1.38167
0.736214 0.43 -2.13228
0.690156 0.0948444 -1.40902
0.751977 0.66667 2.16373
0.80155 0.12345 1.445
0.759255 0.90198 -1.35167
0.711628 1.12685 1.38167
-0.753897 0.103166 0.01586
-0.881216 0.544164 -0.68276
-0.000696622 0.0950715 -0.696352
-0.871253 0.594611 0.71362
-0.00122103 0.10631 0.730202
-0.757508 1.0369 0.015
-0.000398425 1.29617 -0.668334
-0.000292375 1.40574 0.698333
0.752036 0.102964 0.01799
0.88021 0.54376 -0.681925
0.870095 0.59376 0.714915
0.756821 1.03579 0.015
-0.861239 0.487082 -1.38095
-0.875696 0.569387 0.01543
-0.865384 0.631038 1.41181
-0.000348311 0.0929458 -1.40963
-0.000958824 0.100688 0.016925
-0.00164176 0.132026 1.44348
-0.000188246 0.43 -2.31531
-0.00103125 0.667068 2.21405
-0.000387459 0.964905 -1.35167
-0.0003454 1.40532 0.015
-0.000146188 1.40609 1.38167
0.85867 0.48688 -1.38035
0.874459 0.56876 0.016495
0.864444 0.630215 1.41334
-1.03486 0.0810672 -2.12047
-0.671064 -0.126251 -2.13105
-0.674075 0.0299072 -2.67628
-1.11614 0.19853 2.14591
-0.760522 -0.0343851 2.16574
-0.761337 0.232419 2.71052
-1.0689 0.806923 -2.04408
-0.698397 0.745336 -2.59697
-0.710043 1.44434 -2.02075
-1.02304 1.13056 2.06754
-0.689066 1.16083 2.62873
-0.699408 1.8366 2.05123
0.683649 -0.126296 -2.13021
0.683369 0.0298412 -2.6756
1.03291 0.0808724 -2.11939
0.7531 -0.0345002 2.16891
0.724569 0.232143 2.71335
1.11642 0.197987 2.14978
0.706864 0.745254 -2.5968
0.723283 1.44409 -2.02056
1.06585 0.806638 -2.04377
0.650685 1.15951 2.62925
0.661908 1.83527 2.05152
1.02311 1.12865 2.06838
-1.09101 0.109169 -0.699412
-0.715754 -0.119702 -0.700899
-1.14734 0.112148 0.724284
-0.775767 -0.127105 0.735458
-1.13652 0.993885 -0.672992
-0.760303 1.64485 -0.6609
-1.10546 1.08369 0.695938
-0.747778 1.77063 0.69135
0.729994 -0.119754 -0.699287
1.08946 0.108862 -0.697425
0.782709 -0.127417 0.7379
1.14995 0.111442 0.727294
0.756921 1.64407 -0.660703
1.13316 0.992828 -0.672547
0.72308 1.76945 0.691581
1.10608 1.08199 0.696593
-1.40148 -0.383917 -2.69223
-1.39947 -0.222048 -3.2396
-1.0419 -0.420462 -3.25258
-1.42665 -0.338858 -1.41978
-1.40408 -0.134097 -2.12564
-1.04028 -0.341415 -2.13622
-1.47478 -0.337162 0.0138793
-1.45548 -0.107247 -0.703787
-1.08023 -0.336119 -0.705274
-1.49645 -0.309148 1.44805
-1.50196 -0.109976 0.726678
-1.13039 -0.349229 0.737852
-1.49131 -0.243841 2.72346
-1.48319 -0.0421492 2.1496
-1.12757 -0.275065 2.16944
-1.49215 -0.180367 3.84104
-1.48376 0.0225173 3.27129
-1.12622 -0.210411 3.2894
-1.49315 0.0836761 4.38529
-1.13214 -0.149508 4.40051
-1.40207 0.0277725 -2.67301
-1.40808 0.36093 -3.19746
-1.04128 -0.0233875 -3.22883
-1.43291 0.0975139 -1.40964
-1.42069 0.45799 -2.0854
-1.48267 0.119939 0.00901237
-1.47856 0.558891 -0.689643
-1.4887 0.157023 1.42824
-1.48808 0.60123 0.706602
-1.47565 0.224209 2.69743
-1.43712 0.661628 2.10345
-1.48476 0.28656 3.81553
-1.45945 0.723771 3.22564
-1.12085 0.258097 3.26205
-1.48528 0.783754 4.34524
-1.13139 0.31699 4.3753
-1.4267 0.791148 -2.60985
-1.42882 1.38205 -3.14283
-1.0562 0.729561 -3.16274
-1.46634 0.919367 -1.3654
-1.4461 1.48573 -2.03398
-1.48397 1.04018 0.00794606
-1.48878 1.65392 -0.668122
-1.4365 1.10584 1.38181
-1.47852 1.76583 0.689088
-1.42092 1.16119 2.63166
-1.43661 1.83564 2.05567
-1.45997 1.22096 3.75534
-1.45829 1.8934 3.16982
-1.08694 1.19146 3.19284
-1.48549 1.95031 4.2908
-1.12256 1.25085 4.31759
-1.44822 2.07663 -2.56696
-1.07568 2.01078 -3.11532
-1.46855 2.22028 -1.3367
-1.08724 2.12316 -2.01065
-1.48334 2.37957 0.0130202
-1.11257 2.30488 -0.65603
-1.47863 2.49564 1.36294
-1.12084 2.45277 0.6845
-1.47399 2.56786 2.59384
-1.11298 2.54168 2.03936
-1.48382 2.62275 3.70528
-1.11768 2.59646 3.14455
-1.1328 2.65031 4.26285
-0.680704 -0.37796 -2.69657
-0.683715 -0.221802 -3.24181
0.0130352 -0.418502 -3.25396
-0.693853 -0.338676 -1.42171
0.012585 -0.337548 -2.13835
-0.735837 -0.348185 0.0186996
0.0149364 -0.33991 -0.703834
-0.761507 -0.315146 1.45924
0.00816281 -0.35668 0.743157
-0.76249 -0.241635 2.73538
-0.00535929 -0.273885 2.17789
-0.766212 -0.179551 3.84887
-0.763305 0.0251691 3.28016
-0.024488 -0.209736 3.29539
-0.770388 0.0838063 4.39052
-0.038331 -0.149918 4.40435
-0.689396 0.345243 -3.19411
0.00929425 -0.0252516 -3.22898
-0.767481 0.288527 3.82181
-0.748341 0.725782 3.22926
-0.0347051 0.259562 3.26712
-0.76868 0.78409 4.34764
-0.0461651 0.316868 4.37841
-0.703058 1.3583 -3.13523
0.00884441 0.71559 -3.15877
-0.74954 1.22135 3.75509
-0.746329 1.89451 3.16757
-0.0383817 1.1912 3.19298
-0.769864 1.95086 4.28964
-0.052735 1.25052 4.31833
-0.714705 2.05731 -2.55902
0.0154997 2.00071 -3.11133
-0.731268 2.20775 -1.32998
0.0136165 2.11343 -2.00631
-0.750075 2.37809 0.0154497
-0.00298385 2.30145 -0.65327
-0.755182 2.49881 1.36091
-0.0244056 2.45387 0.684598
-0.75667 2.57028 2.59007
-0.0374993 2.54273 2.03776
-0.766653 2.62403 3.70212
-0.0460933 2.59679 3.14305
-0.0567895 2.65028 4.26202
0.706324 -0.378089 -2.69573
0.706045 -0.221952 -3.24113
1.06568 -0.42077 -3.25145
0.721374 -0.338782 -1.42047
1.05999 -0.341658 -2.13487
0.758937 -0.348405 0.0206233
1.10415 -0.336456 -0.703178
0.764311 -0.31542 1.4618
1.14722 -0.349828 0.740865
0.732643 -0.241986 2.73791
1.12277 -0.275632 2.17307
0.703393 -0.180103 3.85087
0.704112 0.0246571 3.28235
1.08466 -0.211204 3.29249
0.685892 0.0831436 4.39224
1.06099 -0.150471 4.40308
0.707534 0.345095 -3.19363
1.0564 -0.0236595 -3.22789
0.686611 0.287903 3.82371
0.675254 0.724981 3.23084
1.06422 0.25718 3.26497
0.66978 0.783299 4.3491
1.0463 0.315933 4.37772
0.727402 1.358 -3.13486
1.06996 0.729231 -3.16216
0.658423 1.22038 3.75622
0.661854 1.89348 3.16846
1.0217 1.18996 3.19448
0.66034 1.94995 4.29072
1.02395 1.24955 4.31945
0.743821 2.05683 -2.55862
1.10359 2.01012 -3.11464
0.741901 2.20712 -1.3296
1.10986 2.12237 -2.01003
0.722686 2.37723 0.0158782
1.10521 2.30379 -0.655372
0.693278 2.49779 1.36144
1.07569 2.45136 0.685274
0.673078 2.56924 2.59074
1.04288 2.54013 2.04031
0.663771 2.62305 3.70296
1.02913 2.59497 3.14573
1.02198 2.64893 4.26425
1.41935 -0.384339 -2.69059
1.41603 -0.222478 -3.23821
1.44277 -0.339332 -1.41758
1.40925 -0.134489 -2.12405
1.49243 -0.337879 0.0170634
1.46362 -0.10784 -0.701317
1.50568 -0.310041 1.45213
1.51446 -0.110969 0.730259
1.47479 -0.24485 2.72765
1.48609 -0.0431444 2.15394
1.44226 -0.181573 3.84469
1.44476 0.0213179 3.27511
1.4214 0.082319 4.38856
1.40594 0.0273718 -2.67167
1.41882 0.360476 -3.19641
1.4301 0.0970027 -1.40779
1.41606 0.457511 -2.08439
1.48564 0.11907 0.0118787
1.47475 0.557929 -0.688047
1.49487 0.155927 1.43207
1.49282 0.599669 0.708971
1.45607 0.223024 2.7014
1.43953 0.659969 2.1064
1.4239 0.28521 3.81897
1.41066 0.722163 3.22861
1.40047 0.782182 4.34807
1.42894 0.790615 -2.60912
1.44614 1.38135 -3.14194
1.46071 0.918438 -1.36465
1.45242 1.48492 -2.03324
[...]
POINT_DATA 29498
VECTORS point_vectors float
-4.8951 -8.82865 13.526
0.223779 0.153106 0.756653
-0.773632 0.58821 2.01434
-0.0255311 -0.162539 0.252451
4.53277 -8.87934 13.6974
-0.129832 0.0788553 0.436921
0.757756 0.595454 1.97734
0.0461163 -0.165858 0.2241
0.00185749 -0.000637692 0.0593655
0.0240216 0.000268272 0.326569
4.48421e-07 1.5483e-06 1.85192e-05
0.00363487 0.00778802 0.05056
-0.00217181 -0.0008089 0.0620883
-0.0463208 -0.0121737 0.538215
0 0 0
-0.00357615 0.00764241 0.0490894
-0.600327 -0.37094 19.8466
-1.24394 -0.937821 20.6514
-0.392452 -0.450867 21.5429
0.107686 -0.1086 21.6817
0.627853 0.177783 21.6388
0.994134 0.367278 21.2425
0.915967 0.105056 20.8396
-0.79157 -0.303243 19.6901
-2.02416 -0.923187 20.5833
-0.658462 -0.588382 21.6744
0.0379905 -0.275124 21.7499
0.832904 -0.0632721 21.7612
1.23697 0.0149166 21.4034
1.29125 -0.118124 21.2011
-0.945322 0.134014 19.5542
-2.29659 0.36492 20.4503
-1.32767 -0.19798 21.6272
-0.35966 -0.348518 21.8113
0.350803 -0.665808 21.7881
0.723348 -0.765258 21.5766
0.763145 -0.50276 21.1603
-0.455146 0.410944 19.9989
-0.728473 0.632194 20.4435
-0.650015 0.47892 21.1532
-0.276159 0.0851097 21.4602
-0.0557108 -0.142086 21.2922
0.0842782 -0.306647 21.1603
0.148929 -0.282111 20.8809
-0.519916 -0.736731 19.3991
-1.40885 -2.90073 20.9924
-0.16408 -0.406729 21.9835
0.167346 0.0971834 21.761
0.556506 0.941044 21.5611
0.99202 1.37189 20.9146
1.01179 0.923727 20.0358
-0.762783 -0.695595 18.8343
2.08712 1.28633 11.0894
2.27251 1.07073 14.441
-1.04297 0.321746 18.3226
0.281684 -1.34967 10.6591
1.25198 -1.71918 16.2982
-0.351607 0.697382 19.7502
-0.654083 1.27897 20.2639
-0.695508 1.10047 21.2263
-0.305507 0.276295 21.6835
-0.0749113 -0.119759 21.4356
0.00585465 -0.381182 21.3806
0.132702 -0.483035 20.7508
0.528826 -0.723692 19.411
1.43358 -2.8054 20.9651
0.154078 -0.414297 21.962
-0.187271 0.0799144 21.7557
-0.559811 0.923098 21.5512
-0.863953 1.39933 20.5594
-1.01863 1.00383 19.1915
0.77974 -0.678658 18.8716
-1.94548 1.08667 9.71656
-2.33422 1.36328 12.9265
1.06437 0.313982 18.3563
0.256444 -0.84738 6.82354
-1.10849 -1.63058 12.1995
0.361263 0.686044 19.7606
0.670769 1.25798 20.2673
0.687187 1.10678 21.2244
0.286 0.296208 21.682
0.0617474 -0.0937869 21.4427
-0.0360548 -0.344513 21.3177
-0.105918 -0.435762 20.6002
0.59087 -0.369716 19.8612
1.21821 -0.928821 20.6602
0.397726 -0.452822 21.5207
-0.110227 -0.128718 21.6529
-0.635944 0.152615 21.629
-1.02139 0.346279 21.2445
-0.931673 0.173147 20.847
0.795892 -0.300719 19.6981
2.03007 -0.932319 20.5842
0.656144 -0.590273 21.6728
-0.0334478 -0.281692 21.7249
-0.818207 -0.0863556 21.7434
-1.24843 -0.00143619 21.4919
-1.33212 -0.0333638 21.2718
0.934936 0.127719 19.5605
2.31371 0.367776 20.4462
1.33179 -0.203453 21.63
0.360785 -0.343144 21.798
-0.314941 -0.663159 21.7326
-0.669669 -0.780419 21.6909
-0.966963 -0.73571 20.7767
0.457158 0.397377 20.0052
0.724378 0.618784 20.4447
0.649934 0.483478 21.1509
0.279157 0.0882539 21.4754
0.055133 -0.137715 21.2795
-0.0732024 -0.296448 21.2311
-0.166894 -0.331497 20.835
-0.956857 -0.147436 1.40875
-0.000121868 -0.339697 1.27752
0.00407492 0.00239506 0.319475
0.0220526 -0.0369158 0.0518556
-0.00192501 0.0417636 0.146416
-0.00790431 0.0504789 1.45192
-0.00035307 0.0700912 0.176285
-0.569908 -0.0969486 0.95603
-0.0158511 0.0281972 -0.019048
0.00687908 0.00132674 0.127409
0.965773 -0.146602 1.41198
-0.00322668 0.00274959 0.322688
-0.0329945 -0.0687515 0.0798602
0.0120028 0.0509885 1.14194
0.566462 -0.0947093 0.939684
-0.00662652 0.00120978 0.124316
4.58517e-06 0.00123984 0.212032
0 0 0
-1.73773e-05 -0.000324121 0.0171847
0 0 0
-9.81938e-05 0.000616775 0.0308182
0.00163335 0.00354893 0.0160214
0.00900942 0.209807 0.382639
8.18527e-07 1.38545e-06 0.000437798
-0.000253979 0.00114422 0.220307
0 0 0
0 0 0
-0.00153183 0.00332596 0.0151571
-0.000949766 -0.00209078 0.0170231
0 0 0
0 0 0
2.72612e-08 -9.26266e-07 -8.16447e-05
-1.27115e-07 4.654e-07 6.53976e-05
1.05109e-07 1.63724e-06 0.00014001
0.0147535 -0.0536189 0.0132373
-0.0011639 -0.00992951 0.000202655
-0.000132016 0.000142174 0.00139137
4.00376e-06 2.92423e-05 0.0020684
-5.65698e-07 -1.53091e-09 5.38347e-05
0.00173056 -0.00386717 0.0325076
2.27034e-18 -1.0801e-17 -9.11587e-17
0 0 0
-3.72671 -2.42011 20.5918
-2.41504 -4.81514 21.3323
-2.17867 -2.14537 17.7203
1.27565 0.275447 19.2791
0.61038 1.20907 15.7926
1.29438 0.712936 8.03738
-4.48705 1.28204 20.3684
-3.16321 1.59052 16.5835
-1.71533 2.48093 20.0035
0.436525 -0.741837 18.4115
-0.598451 -1.22084 5.37091
-0.318547 -0.32463 21.7588
2.4594 -4.7834 21.3095
2.18923 -2.12771 17.7708
3.74151 -2.44285 20.5894
-0.615579 1.17873 15.6826
-1.17165 0.566395 7.04308
-1.27161 0.228684 19.1721
3.16258 1.55816 16.6495
1.73321 2.44744 20.0134
4.51014 1.29819 20.3639
1.02733 -1.29872 2.80127
0.319439 -0.244184 21.6906
-0.363809 -0.739674 18.3606
-0.421013 -0.883808 20.9342
0.159364 -0.122076 18.1952
0.144356 -0.255067 20.3883
0.303268 0.178642 18.4169
-2.13127 -0.692456 21.8675
-2.18982 2.06798 21.6118
-0.47489 -0.57131 20.5239
-0.693558 0.322462 22.0587
-0.161005 -0.140356 18.5588
0.415946 -0.887971 20.8951
-0.322314 0.146095 18.4437
-0.1244 -0.277745 20.3993
2.18939 2.08314 21.6089
2.12515 -0.700603 21.8402
0.675591 0.353307 22.0623
0.476658 -0.553287 20.4541
-0.991525 -0.669094 20.049
-0.689146 -0.356223 19.7682
-0.620101 -0.562919 19.6517
-0.816011 -0.715397 21.3294
-1.59622 -1.00091 20.6372
-1.5151 -1.7441 20.7522
-0.104533 -0.244963 21.635
-0.503903 -0.539386 21.6179
-0.239904 -0.545573 21.7247
0.351983 0.0510283 21.7139
0.0850541 -0.186577 21.6917
0.183873 -0.0678639 21.8005
0.838102 0.289573 21.53
0.727382 0.0943482 21.6866
0.75163 0.484708 21.7585
0.943345 0.265189 21.1485
1.10094 0.140349 21.5153
1.14833 0.758528 21.1928
1.11271 -0.0139923 21.0263
1.11915 0.632358 20.9262
-1.45036 -0.606594 19.8064
-0.935707 -0.129019 19.5469
-0.901883 -0.524469 19.3171
-1.29655 -0.805798 21.5126
-2.53551 -0.337451 20.5229
-0.249818 -0.40368 21.7138
-1.01196 -0.517833 21.7199
0.383253 -0.168314 21.8405
-0.113436 -0.376174 21.8578
1.09719 -0.0191299 21.5912
0.767869 -0.464681 21.7058
1.39776 -0.1213 21.1753
1.17847 -0.441542 21.5671
1.74114 0.37697 18.9959
1.16067 -0.54605 21.1649
1.68076 0.378625 18.9376
-1.74327 0.299669 19.6539
-0.720469 0.408529 19.7531
-1.08889 0.220682 19.03
-1.86942 0.0438719 21.2594
-1.37302 0.792145 20.3774
-0.769767 -0.305678 21.8053
-1.15721 0.411056 21.3639
0.00302243 -0.469354 21.857
-0.445634 -0.0427972 21.6726
0.554855 -0.774771 21.6336
-0.026795 -0.367011 21.5568
0.791356 -0.646739 21.5555
0.24798 -0.59192 21.3616
0.871211 -1.0009 19.6736
0.383724 -0.635267 20.9608
1.3377 -1.20946 19.3437
-0.621161 0.557445 20.1767
-0.44987 0.561342 19.8864
-0.74902 0.621734 20.8301
-0.763391 0.945212 20.3735
-0.482148 0.267398 21.3684
-0.734927 0.759181 21.228
-0.141597 -0.0464935 21.4545
-0.303518 0.16286 21.5809
0.0396471 -0.207491 21.4388
-0.0535078 -0.150082 21.3438
0.113203 -0.233307 21.1194
0.0119679 -0.341073 21.5757
0.199895 -0.499634 20.7733
-1.04214 -1.76713 19.4102
-0.635491 -0.804007 19.0996
0.0196758 -0.978538 19.1696
-0.554499 -1.09319 22.0488
0.0251426 -3.87509 21.4042
0.0110602 -0.0946038 21.8376
0.00642701 -0.572793 21.9337
0.299259 0.411537 21.7085
-0.00791553 0.0238814 20.8312
0.783265 1.21678 21.2356
-0.0171369 0.795319 19.8897
1.12006 1.68316 20.0988
1.54329 1.43227 16.268
0.0293556 1.44435 19.1992
1.68864 1.05633 17.0806
-0.0155491 2.17956 16.7575
-1.00364 -0.237804 18.3565
0.00544796 -0.964793 18.3272
2.00467 0.846609 12.6467
1.69979 -1.14886 7.60514
-0.07337 1.17838 3.47385
2.50626 -0.103419 14.062
0.278948 2.2457 10.5853
-0.689321 0.865645 19.1559
0.0124448 0.518695 17.5645
0.927388 -1.43868 12.8537
-0.0659426 -0.699621 21.9449
0.075831 1.32592 -5.49256
0.0763792 -0.815849 20.1747
0.265514 0.978234 0.871259
-0.508832 1.04394 19.9211
0.010338 0.82414 19.6209
-0.751484 1.30879 20.7472
0.0115797 1.61539 20.1665
-0.517987 0.664612 21.6021
-0.00516296 1.57845 21.2793
-0.184518 0.0333291 21.6079
-0.017002 0.417797 21.7659
-0.0101762 -0.230599 21.26
-0.0160697 -0.0657575 21.3509
0.0312409 -0.296548 21.5495
-0.0238165 -0.246779 21.6827
-0.00305244 -0.599982 20.6186
1.05678 -1.72685 19.4204
0.657115 -0.779257 19.138
0.606572 -0.556447 19.6651
0.558509 -1.08711 22.0344
1.49154 -1.69285 20.7586
-0.037477 -0.100679 21.8221
0.249961 -0.553264 21.7007
-0.320834 0.399704 21.719
-0.180095 -0.0947272 21.789
-0.759359 1.20607 21.0089
-0.761177 0.471667 21.7543
-1.05009 1.90039 19.6495
-1.41287 1.38957 15.6667
-1.12411 0.79427 21.2526
-1.65104 1.21427 16.1781
-1.09462 0.630645 20.9972
1.03104 -0.239762 18.3956
0.905991 -0.526006 19.3237
-1.96244 1.05329 11.3874
-1.32962 -0.998472 5.54865
-1.79811 0.465757 17.7876
-2.36746 -0.0508368 10.6361
-1.8171 0.543905 17.8121
0.699504 0.850665 19.1737
1.08954 0.216316 19.0447
-0.421038 -1.17649 8.92232
0.0987116 -0.569693 22.0899
-0.757459 -1.08462 18.529
-0.103964 -0.790078 20.3051
-1.28681 -1.39508 18.4987
0.521732 1.02486 19.93
0.449425 0.550007 19.8937
0.758303 1.29852 20.7494
0.762672 0.927281 20.377
0.497514 0.677279 21.6086
0.732985 0.76545 21.2254
0.166948 0.0540476 21.6143
0.298989 0.180354 21.6018
-0.01277 -0.194653 21.2471
0.050403 -0.129878 21.3464
-0.0328453 -0.19538 21.8797
-0.00663775 -0.350338 21.5963
-0.212515 -0.471839 20.7512
0.975343 -0.667275 20.0586
0.689961 -0.351955 19.7789
0.806394 -0.70197 21.3197
1.59606 -0.985815 20.6299
0.118105 -0.255574 21.619
0.506791 -0.533988 21.6145
-0.352535 0.0174681 21.6974
-0.0889735 -0.191856 21.6746
-0.844394 0.255409 21.5384
-0.71409 0.0745843 21.6729
-0.9697 0.304517 21.1528
-1.12716 0.152612 21.5142
-1.14243 0.0636669 21.0656
1.45611 -0.602701 19.7953
0.926004 -0.126144 19.5529
1.29305 -0.810468 21.5122
2.55045 -0.34012 20.5245
0.24931 -0.406438 21.6969
1.0056 -0.520469 21.7167
-0.369642 -0.185292 21.8296
0.122549 -0.373959 21.8333
-1.10729 -0.043018 21.5783
-0.732528 -0.485835 21.683
-1.61556 -0.037102 20.9627
-1.18898 -0.482053 21.6762
-1.37395 -0.74435 20.8354
1.73835 0.29616 19.6525
0.713572 0.398529 19.7686
1.87957 0.0432077 21.2636
1.36795 0.781633 20.3812
0.768796 -0.310216 21.8009
1.16067 0.41643 21.3664
0.00994543 -0.46257 21.8364
0.451632 -0.0364581 21.6771
-0.477656 -0.781868 21.6686
0.0475147 -0.353415 21.5537
-0.747935 -0.688313 21.7162
-0.183478 -0.589496 21.3455
-0.247964 -0.558793 21.4121
0.62014 0.541853 20.1863
0.745535 0.617564 20.8299
0.482314 0.278951 21.3744
0.15027 -0.0456722 21.4562
-0.0363169 -0.215515 21.3749
-0.126574 -0.312205 21.0736
-1.21346 -0.691937 19.9379
-1.52247 -2.13288 18.7014
-1.12045 -1.17094 19.7772
-2.0069 -1.24401 19.1113
-0.726475 -0.561233 19.4663
-2.29685 -2.17239 20.7113
-1.02949 -0.803225 21.4391
-0.310036 -0.735881 20.8355
-0.727884 -1.03245 21.6756
-1.32929 -1.54613 22.0198
-0.27477 -0.744026 21.8439
-0.166061 -0.32773 21.6589
0.199412 0.0887323 18.155
-0.0127733 -0.245566 21.7724
-0.0381564 -0.462546 20.2746
0.202699 -0.198701 21.6565
0.366576 -0.0591542 21.7651
0.328948 0.476595 17.0799
0.420099 0.164574 21.8463
0.561357 0.0314186 19.7462
1.05623 0.476434 21.1835
0.967777 0.157439 21.5571
1.02022 1.48881 16.3938
1.00453 0.652622 21.5259
1.63783 0.277814 19.633
1.53612 0.726247 20.9815
1.25694 0.128474 21.0699
1.44715 1.41308 17.3259
1.18143 0.801836 20.9481
2.08593 0.241739 19.5653
1.36705 0.54626 21.0729
-1.77889 -0.235447 19.62
-3.24734 -0.752583 16.2293
-2.61391 0.721103 18.6775
-1.07603 -0.174159 19.0387
-5.33293 -0.716763 20.4271
-1.73197 -0.481912 21.4855
-2.89216 0.00361429 21.6024
-0.883248 -0.926352 19.9386
-0.478381 -0.439766 21.8204
-1.07452 -0.744738 21.2542
0.0761065 -0.255597 18.2599
0.281235 -0.391289 21.8658
0.0192103 -0.525749 19.5306
1.11818 -0.367231 16.8502
1.04368 -0.516095 21.5952
0.343603 -1.28346 4.31004
0.5128 -0.974821 19.3476
1.62676 -0.620302 18.2303
1.17454 -0.512712 21.4775
2.28242 -0.0120683 10.2993
0.982727 -1.12747 19.8216
1.93638 -0.804222 18.5461
-1.11839 0.665064 19.9206
-1.26873 1.79532 19.1287
-0.636227 0.802245 20.0452
-0.757988 0.616145 19.4748
-1.69491 1.42626 20.2176
-1.35492 0.645208 20.9167
-1.9155 2.14864 20.5911
-0.806887 0.935571 20.7996
-1.67986 0.876112 21.5252
-0.788208 0.157893 21.6224
-1.28672 0.914547 22.2598
-0.500013 0.444452 21.4989
-0.580846 0.0553977 21.8427
-0.209619 -0.200179 21.6619
-0.438958 -0.0388213 21.896
-0.176562 -0.0264549 21.5349
-0.133753 -0.410186 21.6933
0.129589 -0.489858 21.4815
-0.23668 -0.50415 21.7751
-0.0227934 -0.266187 21.21
0.139853 -0.687115 21.1481
0.44232 -0.553289 20.9326
0.0693986 -0.834236 20.6845
0.111158 -0.444427 20.9665
0.10341 -0.426762 22.2199
1.52271 -2.07942 18.7683
0.0312247 -2.46661 18.9828
0.022838 -3.62829 16.1014
0.00849942 -1.01689 18.7844
0.0143756 -6.20657 22.6634
0.292053 -0.772804 21.0077
0.010511 -1.40006 22.5049
-0.00612555 -0.210007 13.9595
-0.208662 0.0789145 18.3607
0.00117889 -0.227467 21.137
-0.0165117 0.125911 13.4576
-0.357182 0.461816 17.0977
-0.00865949 0.292699 20.4054
-0.0228502 0.696883 11.2567
-0.954948 1.39247 15.6986
-0.00563339 1.12386 19.2934
-0.0854494 -0.0951086 2.32456
-0.0410469 1.4771 11.7083
-1.38994 1.62235 16.8309
-0.00156623 1.7314 18.7659
0.2417 1.44011 4.95475
0.237526 2.46663 13.7261
3.24602 -0.745766 16.2962
0.0293077 3.28166 13.6079
0.0153428 -0.405759 17.6596
-0.15859 -1.67381 2.90367
-0.0651885 1.02195 -4.97423
0.306268 1.23302 -2.14754
-2.02308 0.189612 8.0335
-0.0343166 0.576051 -2.85096
0.521459 2.39016 -1.13706
1.28724 1.75818 19.1425
0.00910482 1.28544 19.7775
0.0116589 1.13964 18.7843
0.0222381 3.54564 19.7424
1.91804 2.13381 20.5962
0.0048986 1.69973 20.6491
-0.00841516 4.05722 21.4879
1.28106 0.951003 22.2724
-0.0120127 0.993454 21.7263
-0.0258133 0.779678 22.2036
0.425698 -0.00152755 21.8882
-0.0193864 0.124984 21.6297
-0.0668467 0.119439 21.1844
0.265869 -0.366022 21.7456
-0.0288946 -0.161708 21.6592
-0.130914 -0.346026 21.0984
-0.0599724 -0.755276 20.5837
-0.0403193 -0.410658 21.2232
-0.0453698 -0.659507 21.3537
1.22018 -0.678524 19.9317
1.10793 -1.12379 19.7962
2.00406 -1.23967 19.1289
0.732196 -0.548289 19.4922
2.28922 -2.1298 20.7087
1.02752 -0.796642 21.4324
0.740056 -1.02221 21.6542
1.33348 -1.54692 22.0173
0.288 -0.739634 21.8361
0.174632 -0.335059 21.6409
0.01329 -0.256499 21.7617
0.039228 -0.472821 20.2964
-0.187969 -0.22464 21.6852
-0.361297 -0.0748987 21.7544
-0.425689 0.14168 21.8421
-0.547634 -0.00215308 19.7759
-1.05933 0.450182 21.1351
-0.976959 0.141074 21.5577
-1.00131 0.656266 21.5447
-1.63615 0.279766 18.9185
-1.62674 0.850489 20.7721
-1.38554 0.181188 20.9459
-1.17138 0.921201 20.9024
-2.01926 0.219065 19.2711
-1.49237 0.633556 20.4321
1.76602 -0.235198 19.6244
2.60072 0.709258 18.6949
1.07731 -0.171111 19.0581
5.36119 -0.724047 20.4378
1.7319 -0.487189 21.4869
2.89753 -0.00159216 21.5953
0.874675 -0.921784 19.8857
0.473118 -0.439475 21.8104
1.06627 -0.73697 21.1759
-0.0686266 -0.256454 18.3041
-0.26638 -0.392826 21.8498
-0.00756518 -0.519706 19.5012
-1.08555 -0.43016 16.7431
-1.02778 -0.566748 21.5731
-0.365473 -0.925668 18.3497
-1.63447 -0.807751 16.4984
-1.30905 -0.520719 21.4103
-0.942531 -1.2745 18.3255
-2.05983 -0.659977 17.3479
1.10752 0.650217 19.9346
0.634238 0.786985 20.0515
0.759231 0.605394 19.4931
1.68257 1.39934 20.2243
1.35457 0.642947 20.92
0.805582 0.928401 20.7986
1.68301 0.886716 21.5251
0.791761 0.163135 21.6251
0.494017 0.462779 21.5085
0.582291 0.0711432 21.8438
0.21929 -0.190432 21.6475
0.172566 -0.00261538 21.5215
0.156582 -0.375543 21.6776
-0.0826171 -0.466384 21.4781
0.0193657 -0.254643 21.1727
-0.0960093 -0.64077 21.3666
-0.474282 -0.492562 20.7022
-0.10693 -0.46151 20.9133
-0.0869183 -0.566791 21.7155
-1.4971 -1.26469 19.4555
-0.899937 -1.26077 21.9178
0.023096 -0.390863 21.6457
0.531687 0.102741 21.4209
1.37428 0.588349 20.9163
1.70766 0.705943 20.6333
-2.69142 -0.39198 18.503
-2.22744 -0.990097 21.5632
-0.223568 -0.565602 18.9443
0.481383 -0.208907 17.6598
1.37972 -0.632209 18.1579
1.8282 -0.418894 18.254
-1.30715 1.13155 19.5894
-1.79559 1.20609 20.8566
-1.06539 0.397473 21.8798
-0.307397 -0.190068 21.7774
-0.00261823 -0.55753 21.5556
0.417205 -0.756661 21.2938
0.0252797 -3.213 17.8912
0.00303798 -0.852864 17.7679
-0.0114092 -0.0524641 13.2162
-0.0191707 0.24484 12.1759
-0.0318149 0.917097 10.9729
0.172072 2.38646 12.605
0.0293644 -1.0736 13.0535
0.0571389 0.282252 -0.79902
0.488365 1.14717 0.0139433
0.0171643 2.62614 18.5664
0.00602227 3.37924 20.0702
-0.0168766 1.89768 22.6035
-0.0340184 0.340314 21.8609
-0.0994379 0.0702166 21.1004
-0.0822564 -0.741427 21.3522
1.49186 -1.23939 19.4916
0.918665 -1.25268 21.8978
-0.00937346 -0.403727 21.6673
-0.526571 0.0721712 21.434
-1.38629 0.616661 20.7175
-1.70643 0.781761 20.5751
2.67726 -0.388702 18.5364
2.21335 -0.999339 21.5211
0.218454 -0.562756 18.9273
-0.469445 -0.215545 17.6972
-1.27589 -0.706442 16.9147
-1.90863 -0.357031 16.5378
1.29876 1.10525 19.613
1.79001 1.19914 20.8581
1.06718 0.408601 21.884
0.31761 -0.168295 21.7664
0.0546742 -0.520617 21.5685
-0.220816 -0.819507 22.1179
-1.65241 -0.729152 1.82313
0.0127868 -0.249212 1.24668
-0.0150668 0.00523804 0.228031
0.0864721 -0.0369806 0.254887
-0.00307073 0.0226592 0.0674748
0.0868531 0.282322 3.33335
-2.76565 0.511974 2.32222
-0.0772268 0.36794 0.909763
-0.351614 -0.0337191 1.34218
-0.0131677 -0.134548 0.170111
-0.0332105 0.00735276 -0.00750402
0.00049025 -0.000979121 0.0184716
-0.0131847 -0.25183 1.25614
1.58061 -0.716531 1.73738
0.0151981 0.00577318 0.218115
0.000723074 0.0216333 0.0643837
-0.109185 -0.063233 0.318219
-0.0277494 0.198806 1.31787
0.0760319 0.368103 0.909512
2.69876 0.495876 2.27419
0.35054 -0.0297635 1.33087
0.0275983 0.0130108 -0.0123964
0.0314043 -0.17257 0.164078
-0.000403506 -0.00116052 0.0187465
0.0322331 -0.00575569 0.490878
0 0 0
-0.000385203 0.00165995 0.0319794
0 0 0
-0.0426634 0.11123 1.49063
0.0086919 -0.0047829 0.353526
-0.000342272 0.00177648 0.0234004
0 0 0
-0.364469 -0.154976 0.702085
0 0 0
0.000634594 0.00148089 0.0054356
-0.10696 0.142033 0.295502
0.00282589 0.00481945 0.0667334
0.00146052 0.012188 0.0786252
0.00129569 0.00269238 0.0117455
0.00242069 -2.69436e-05 0.0519451
-0.0272829 -0.00495944 0.487232
4.47134e-18 -4.81656e-19 -6.29896e-17
-9.30941e-05 6.83084e-05 0.0051101
0.000316716 0.00128838 0.0300996
0.0355946 0.0746413 1.31593
0 0 0
-0.00530973 -7.90713e-05 0.353927
0.000327743 0.0017966 0.0206757
0.343629 -0.151849 0.676579
0.104552 0.138182 0.287933
0 0 0
-0.00050658 0.00118442 0.00446634
-0.00330963 0.00566099 0.0746636
-0.00261604 0.000546763 0.0436817
-0.0013164 0.0102658 0.066073
-0.00242579 0.00499904 0.0229288
-0.0159066 -0.0223849 0.229889
-0.14444 0.0297229 0.0447181
0 0 0
-0.000735475 -0.0152581 0.00381761
-0.000946961 -0.00404828 0.0531755
0 0 0
0 0 0
-0.0194391 -0.0388062 0.00201681
-0.000158345 0.00311053 0.0782497
-0.0145911 -0.201643 0.0955021
0 0 0
2.30834e-06 1.0697e-06 8.44561e-05
-0.00356925 0.126644 0.0752667
5.49172e-06 0.00250898 0.0154141
-0.119768 -0.237215 1.02668
0 0 0
-0.00219269 -0.0110358 0.00257077
-3.2162e-06 -2.20021e-07 8.90038e-05
0 0 0
-0.000118404 -8.15537e-06 0.0142992
0.138201 0.0282362 0.042829
0.0069189 -0.0104029 0.0970573
0 0 0
0.00123869 -0.00550083 0.0665683
0.0120839 -0.0497424 0.00202268
0 0 0
2.91802e-07 -1.32428e-07 -1.04368e-05
0 0 0
0 0 0
0.113684 -0.211843 0.983585
-7.95885e-05 5.1308e-06 0.0144991
0 0 0
-0.000363767 0.00192771 0.0345011
0 0 0
0 0 0
-1.46488e-18 -9.22105e-18 -7.41975e-17
0 0 0
1.15788e-08 -4.26841e-08 -7.44713e-06
0 0 0
-0.0042739 -0.00408521 0.151293
-1.19436e-07 3.48443e-07 4.43327e-05
3.65806e-08 4.63948e-07 2.97727e-05
0.00253783 0.013556 0.0620393
0.00599846 0.00837506 0.198232
2.80172e-05 0.000241379 0.000453743
-0.000141291 0.0378088 0.227655
4.72253e-06 6.94157e-06 0.000845158
-1.52251e-06 4.9558e-07 0.000643031
0 0 0
0.000346321 0.002243 0.0403235
0 0 0
0 0 0
0 0 0
0 0 0
-0.0154766 0.00331046 0.168948
-0.00257332 0.0135038 0.0624213
-0.0271646 -0.0393868 0.319098
-0.117424 -0.0911002 0.736185
-0.0742541 0.00502075 0.448694
-0.000528463 -0.00186198 0.0154484
-0.000567165 0.00293661 0.0525954
0.000524933 0.00248321 0.0122288