# vtk DataFile Version 2.0
tet_velo
ASCII
DATASET UNSTRUCTURED_GRID
POINTS 29498 float
-0.755 0.275 -2.4738
-0.755 0.275 2.4901
-0.842854 0.805 -2.515
-0.845 0.853302 2.505
0.755 0.275 -2.47379
0.755 0.275 2.4901
0.842848 0.805 -2.515
0.845 0.853302 2.505
-0.755615 0.274385 -0.819167
-0.755545 0.274455 0.835467
-0.852218 0.82975 -0.841667
-0.852175 0.845092 0.831667
0.755608 0.274392 -0.81916
0.755543 0.274457 0.83547
0.852216 0.829752 -0.841667
0.852164 0.845082 0.831667
-1.55881 -0.0101773 -3.79502
-1.55823 -0.00184102 -2.46382
-1.55868 -0.00239772 -0.809673
-1.55786 -0.00638846 0.840713
-1.55646 -0.007178 2.49455
-1.55642 -0.00327429 3.82419
-1.55681 0.00278958 5.15671
-1.56347 0.262491 -3.8089
-1.56816 0.273575 -2.47566
-1.57027 0.276804 -0.81787
-1.56909 0.277074 0.838236
-1.56604 0.278199 2.49567
-1.56127 0.282222 3.82557
-1.5593 0.287928 5.15748
-1.60238 0.802573 -3.8419
-1.63902 0.813035 -2.50944
-1.64949 0.832173 -0.838899
-1.64875 0.845547 0.832964
-1.63876 0.85297 2.50314
-1.60199 0.856326 3.83228
-1.57987 0.860238 5.16117
-1.62704 1.63065 -3.87735
-1.64554 1.64383 -2.54208
-1.65715 1.66693 -0.865483
-1.65905 1.68895 0.815148
-1.64964 1.70335 2.49155
-1.6306 1.70999 3.82641
-1.6102 1.71458 5.15734
-0.762187 -0.00940331 -3.79381
-0.765902 -0.000522779 -2.46206
-0.766598 -0.00334241 -0.809907
-0.766385 -0.00855821 0.83835
-0.765324 -0.0098594 2.49041
-0.760299 -0.00521928 3.82138
-0.757869 0.00150135 5.15508
-0.756876 0.262251 -3.80852
-0.755083 0.2806 3.82326
-0.755443 0.286871 5.15626
-0.785459 0.799066 -3.84421
-0.785256 0.856108 3.83265
-0.767904 0.85993 5.16125
-0.809452 1.62785 -3.87964
-0.8252 1.64099 -2.5446
-0.834674 1.66565 -0.867001
-0.837182 1.68927 0.815331
-0.830407 1.70416 2.49285
-0.813667 1.71064 3.82771
-0.79612 1.71498 5.15829
0.800098 -0.0094023 -3.7938
0.764448 -0.000521257 -2.46205
0.760811 -0.00333786 -0.809902
0.760719 -0.0085561 0.838353
0.764531 -0.00985891 2.49041
0.801531 -0.00521909 3.82139
0.824792 0.00150153 5.15508
0.814674 0.262251 -3.80852
0.816485 0.2806 3.82326
0.835005 0.286871 5.15626
0.84437 0.799067 -3.84421
0.845842 0.856108 3.83265
0.8464 0.85993 5.16125
0.829954 1.62785 -3.87963
0.825521 1.64099 -2.5446
0.823007 1.66565 -0.866999
0.820511 1.68926 0.815332
0.820555 1.70416 2.49286
0.825944 1.71063 3.82771
0.832309 1.71498 5.15829
1.58668 -0.0101752 -3.79501
1.55521 -0.00183773 -2.46381
1.54951 -0.00239191 -0.809663
1.54914 -0.00638586 0.840719
1.55491 -0.0071771 2.49455
1.58769 -0.0032738 3.82419
1.61447 0.00278964 5.15671
1.60136 0.262493 -3.80889
1.56634 0.273577 -2.47565
1.5643 0.27681 -0.817861
1.56362 0.277075 0.838241
1.56557 0.2782 2.49567
1.60256 0.282222 3.82558
1.62604 0.287928 5.15748
1.64151 0.802574 -3.8419
1.63791 0.813036 -2.50943
1.64384 0.832174 -0.838894
1.64307 0.84554 0.832966
1.63777 0.852968 2.50314
1.64237 0.856325 3.83228
1.64557 0.860237 5.16117
1.64417 1.63065 -3.87735
1.64374 1.64383 -2.54208
1.64371 1.66693 -0.86548
1.64171 1.68895 0.815151
1.6397 1.70335 2.49156
1.64067 1.70999 3.82641
1.64276 1.71458 5.15735
-0.870624 0.54 -2.5661
0 0.275052 -2.47374
-0.761877 0.268123 -1.64648
-0.864548 0.564151 2.5621
0 0.275011 2.49009
-0.759314 0.270686 1.66278
-3.01003e-06 0.805582 -2.51558
-0.851999 0.821838 -1.67833
0 0.849143 2.50084
-0.853426 0.854035 1.66833
0.870659 0.54 -2.56613
0.761873 0.268127 -1.64648
0.864486 0.564151 2.56204
0.75931 0.27069 1.66279
0.851993 0.821837 -1.67833
0.853416 0.854027 1.66833
-0.755544 0.274456 0.00814998
-0.851542 0.552068 -0.830417
-3.34001e-06 0.191834 -0.819163
-0.852471 0.559774 0.833567
-1.14198e-06 0.212729 0.835468
-0.852209 0.837433 -0.005
-1.08736e-06 1.12997 -0.841667
-5.84727e-06 1.3523 0.831667
0.755537 0.274463 0.00815499
0.851537 0.552072 -0.830414
0.852465 0.55977 0.833569
0.852197 0.837424 -0.005
-0.886683 0.546034 -1.66241
-0.852476 0.555921 0.00157499
-0.876983 0.561962 1.66556
-1.67001e-06 0.132306 -1.64648
-2.241e-06 0.20288 0.00815248
-5.70989e-07 0.227571 1.66278
-1.50502e-06 0.54 -2.57747
0 0.564151 2.57747
-2.0487e-06 0.979655 -1.67833
-3.46732e-06 1.35647 -0.005
-2.92363e-06 0.930573 1.66833
0.886682 0.546036 -1.6624
0.85247 0.555921 0.0015775
0.876983 0.56196 1.66556
-1.16158 0.274287 -2.47473
-0.760451 0.137239 -2.46793
-0.755938 0.268625 -3.14116
-1.16052 0.2766 2.49288
-0.760162 0.13257 2.49026
-0.755041 0.2778 3.15668
-1.24094 0.809018 -2.51222
-0.814156 0.802033 -3.17961
-0.834027 1.22299 -2.5298
-1.24188 0.853136 2.50407
-0.815128 0.854705 3.16882
-0.837703 1.27873 2.49893
0.759724 0.137239 -2.46792
0.784837 0.268626 -3.14115
1.16067 0.274289 -2.47472
0.759766 0.132571 2.49026
0.785743 0.2778 3.15668
1.16029 0.2766 2.49288
0.843609 0.802033 -3.17961
0.834184 1.22299 -2.5298
1.24038 0.809018 -2.51222
0.845421 0.854705 3.16882
0.832777 1.27873 2.49893
1.24139 0.853135 2.50407
-1.16294 0.275595 -0.818518
-0.761106 0.135521 -0.814537
-1.16232 0.275765 0.836851
-0.760965 0.132948 0.836908
-1.25085 0.830961 -0.840283
-0.843446 1.2477 -0.854334
-1.25046 0.84532 0.832315
-0.844679 1.26718 0.823499
0.758209 0.135527 -0.814531
1.15995 0.275601 -0.81851
0.758131 0.132951 0.836912
1.15958 0.275766 0.836856
0.837612 1.2477 -0.854333
1.24803 0.830963 -0.840281
0.836338 1.26717 0.8235
1.24762 0.845311 0.832317
-1.55852 -0.00600914 -3.12942
-1.56114 0.126157 -3.80196
-1.1605 -0.00979028 -3.79441
-1.55845 -0.00211937 -1.63675
-1.5632 0.135867 -2.46974
-1.16207 -0.0011819 -2.46294
-1.55827 -0.00439309 0.0155199
-1.56447 0.137203 -0.813772
-1.16264 -0.00287006 -0.80979
-1.55716 -0.00678323 1.66763
-1.56348 0.135343 0.839474
-1.16212 -0.00747333 0.839532
-1.55644 -0.00522614 3.15937
-1.56125 0.135511 2.49511
-1.16089 -0.0085187 2.49248
-1.55661 -0.000242358 4.49045
-1.55884 0.139474 3.82488
-1.15836 -0.00424679 3.82279
-1.55806 0.145359 5.15709
-1.15734 0.00214546 5.15589
-1.56582 0.268033 -3.14228
-1.58292 0.532532 -3.8254
-1.16017 0.262371 -3.80871
-1.56922 0.275189 -1.64676
-1.60359 0.543305 -2.49255
-1.56968 0.276939 0.0101828
-1.60988 0.554489 -0.828384
-1.56756 0.277637 1.66695
-1.60892 0.561311 0.8356
-1.56366 0.280211 3.16062
-1.6024 0.565584 2.4994
-1.56029 0.285075 4.49153
-1.58163 0.569274 3.82892
-1.15818 0.281411 3.82442
-1.56959 0.574083 5.15932
-1.15737 0.2874 5.15687
-1.6207 0.807804 -3.17567
-1.61471 1.21661 -3.85963
-1.19392 0.80082 -3.84306
-1.64425 0.822604 -1.67417
-1.64228 1.22843 -2.52576
-1.64912 0.83886 -0.0029675
-1.65332 1.24955 -0.852191
-1.64376 0.849258 1.66805
-1.6539 1.26725 0.824056
-1.62037 0.854648 3.16771
-1.6442 1.27816 2.49735
-1.59093 0.858282 4.49672
-1.61629 1.28316 3.82934
-1.19362 0.856217 3.83246
-1.59503 1.28741 5.15926
-1.17389 0.860084 5.16121
-1.63629 1.63724 -3.20972
-1.21825 1.62925 -3.87849
-1.65135 1.65538 -1.70378
-1.23537 1.64241 -2.54334
-1.6581 1.67794 -0.0251673
-1.24591 1.66629 -0.866242
-1.65435 1.69615 1.65335
-1.24812 1.68911 0.81524
-1.64012 1.70667 3.15898
-1.24002 1.70376 2.4922
-1.6204 1.71229 4.49188
-1.22213 1.71031 3.82706
-1.20316 1.71478 5.15782
-0.764045 -0.00496304 -3.12794
-0.759532 0.126424 -3.80117
0.0189552 -0.0094028 -3.79381
-0.76625 -0.00193259 -1.63598
-0.000727167 -0.000522018 -2.46206
-0.766492 -0.00595031 0.0142213
-0.0028936 -0.00334013 -0.809904
-0.765855 -0.00920881 1.66438
-0.0028334 -0.00855716 0.838352
-0.762811 -0.00753934 3.1559
-0.00039629 -0.00985916 2.49041
-0.759084 -0.00185897 4.48823
-0.757691 0.13769 3.82232
0.0206158 -0.00521919 3.82139
-0.756656 0.144186 5.15567
0.0334613 0.00150144 5.15508
-0.771167 0.530658 -3.82637
0.0288993 0.262251 -3.80852
-0.755263 0.283736 4.48976
-0.77017 0.568354 3.82795
0.0307012 0.2806 3.82326
-0.761674 0.573401 5.15875
0.0397813 0.286871 5.15626
-0.797455 1.21346 -3.86192
0.0294555 0.799066 -3.84421
-0.77658 0.858019 4.49695
-0.799462 1.28337 3.83018
0.0302926 0.856108 3.83265
-0.782012 1.28745 5.15977
0.039248 0.85993 5.16125
-0.817326 1.63442 -3.21212
0.0102514 1.62785 -3.87963
-0.829937 1.65332 -1.7058
0.000160453 1.64099 -2.5446
-0.835928 1.67746 -0.0258348
-0.0058333 1.66565 -0.867
-0.833794 1.69671 1.65409
-0.00833525 1.68926 0.815332
-0.822037 1.7074 3.16028
-0.00492616 1.70416 2.49286
-0.804893 1.71281 4.493
0.00613851 1.71063 3.82771
0.0180942 1.71498 5.15829
0.782273 -0.00496178 -3.12793
0.807386 0.126424 -3.80116
1.19339 -0.00978873 -3.79441
0.762629 -0.00192956 -1.63598
1.15983 -0.00117949 -2.46293
0.760765 -0.00594698 0.0142259
1.15516 -0.00286488 -0.809782
0.762625 -0.00920751 1.66438
1.15493 -0.00747098 0.839536
0.783031 -0.007539 3.1559
1.15972 -0.00851801 2.49248
0.813161 -0.00185878 4.48824
0.809008 0.137691 3.82232
1.19461 -0.00424645 3.82279
0.829899 0.144186 5.15567
1.21963 0.00214559 5.1559
0.829522 0.530659 -3.82636
1.20802 0.262372 -3.8087
0.825745 0.283736 4.48976
0.831163 0.568354 3.82795
1.20952 0.281411 3.82442
0.840703 0.5734 5.15875
1.23052 0.2874 5.15687
0.837162 1.21346 -3.86192
1.24294 0.80082 -3.84305
0.846121 0.858019 4.49695
0.835893 1.28337 3.83018
1.24411 0.856216 3.83246
0.839354 1.28745 5.15977
1.24598 0.860083 5.16121
0.827738 1.63442 -3.21212
1.23706 1.62925 -3.87849
0.824264 1.65332 -1.7058
1.23463 1.64241 -2.54334
0.821759 1.67745 -0.0258335
1.23336 1.66629 -0.86624
0.820533 1.69671 1.65409
1.23111 1.6891 0.815242
0.823249 1.7074 3.16028
1.23013 1.70375 2.49221
0.829126 1.71281 4.493
1.23331 1.71031 3.82706
1.23754 1.71478 5.15782
1.57095 -0.00600644 -3.12941
1.59402 0.126159 -3.80195
1.55236 -0.00211482 -1.63674
1.56078 0.13587 -2.46973
1.54932 -0.00438889 0.015528
1.5569 0.137209 -0.813762
1.55202 -0.00678148 1.66763
1.55638 0.135345 0.83948
1.5713 -0.00522545 3.15937
1.56024 0.135511 2.49511
1.60108 -0.000242082 4.49045
1.59512 0.139474 3.82488
1.62025 0.145359 5.1571
1.58385 0.268035 -3.14227
1.62143 0.532533 -3.82539
1.56532 0.275193 -1.64675
1.60213 0.543307 -2.49254
1.56396 0.276943 0.0101903
1.60407 0.554492 -0.828377
1.56459 0.277637 1.66695
1.60335 0.561308 0.835604
1.58406 0.280211 3.16062
1.60167 0.565584 2.49941
1.6143 0.285075 4.49153
1.62246 0.569274 3.82893
1.6358 0.574082 5.15933
[...]
POINT_DATA 29498
VECTORS point_vectors float
-3.58779 -3.81315 8.01133
0.234421 0.13983 2.28192
-8.50379 6.23302 14.2391
0.537442 0.0601997 2.69468
3.56711 -3.77952 7.96219
-0.235379 0.144636 2.26741
8.5056 6.23285 14.2417
-0.536265 0.0730672 2.66915
0.0982348 -0.0747514 0.77595
0.136465 -0.10801 1.53167
0.000715569 0.00451788 0.104287
0.00525818 0.0577214 0.179561
-0.0983546 -0.0747487 0.774853
-0.135968 -0.107436 1.52778
-0.000710344 0.00449508 0.104337
-0.00526409 0.0576886 0.179419
-0.52013 -0.172831 19.8294
-1.291 -0.555635 20.5326
-0.409841 -0.200124 21.3048
-0.0255453 0.0520117 21.3883
0.445304 0.352336 21.363
0.651009 0.460694 20.8963
1.12221 0.265629 20.3307
-0.551683 -0.0669985 19.7803
-1.58919 -0.393741 20.5058
-0.42098 -0.264368 21.3448
0.0098487 0.0233554 21.4602
0.603628 0.281701 21.394
0.921595 0.267867 20.9543
0.830104 0.168654 21.0134
-0.521722 0.0937827 19.7656
-1.54486 0.180863 20.3932
-0.752353 -0.267301 21.3075
0.0222914 -0.0999949 21.5604
0.750695 -0.0388415 21.3888
1.11321 -0.0757629 21.1382
0.756992 -0.0987169 20.5157
-0.387248 0.243224 19.9281
-0.872748 0.522017 20.3349
-0.848725 0.250383 21.1363
-0.129899 -0.0702764 21.5359
0.432769 -0.307671 21.288
0.565661 -0.41314 20.8068
0.4477 -0.370402 20.7026
-0.456759 -0.343487 19.3357
-2.75079 -3.54313 20.7843
-0.344414 -0.0336017 19.8685
0.110599 -0.0560756 18.4507
0.364276 0.735533 18.5199
0.696859 1.21094 17.2867
-0.103914 1.18687 19.1605
-0.518943 -0.217917 19.1782
0.997083 1.42274 12.1537
1.05069 0.647399 13.2281
-0.511349 0.1605 19.1859
2.0964 0.0834399 9.89124
1.14872 -0.302174 14.3548
-0.31075 0.428632 19.6228
-1.08112 1.56889 20.0317
-1.73237 1.58063 21.1411
-0.324944 0.0183947 22.096
0.418051 -0.863051 21.4325
0.591484 -1.04944 20.8517
0.584983 -0.735952 20.2268
0.469699 -0.329055 19.3768
2.75609 -3.55398 20.7788
0.338146 -0.0405502 19.8125
-0.114552 -0.0575981 18.398
-0.36213 0.717204 18.4915
-0.747129 1.00588 17.5402
-0.243646 1.04686 19.1214
0.534573 -0.204995 19.2315
-1.18273 1.16668 13.684
-0.918491 0.671988 15.6392
0.521338 0.15599 19.2294
-1.98782 0.101548 11.9101
-0.938654 -0.201134 15.4258
0.315675 0.425987 19.6332
1.08068 1.5683 20.0317
1.72925 1.62098 21.131
0.326817 0.024969 22.113
-0.418206 -0.86444 21.4126
-0.591191 -0.977348 20.7292
-0.68039 -0.67911 20.241
0.521029 -0.163295 19.8329
1.29566 -0.536913 20.5269
0.409344 -0.206026 21.3048
0.0253452 0.0499584 21.3762
-0.4407 0.346082 21.3714
-0.594352 0.399716 20.9984
-1.02842 0.227613 20.3182
0.53322 -0.0880533 19.7834
1.59576 -0.397199 20.4952
0.417899 -0.261809 21.3427
-0.0119477 0.0247798 21.4574
-0.597182 0.276648 21.3896
-0.827102 0.344802 20.8888
-1.01999 0.0824312 20.5116
0.52521 0.0848565 19.7898
1.54671 0.186098 20.3986
0.755345 -0.269716 21.3102
-0.0214815 -0.0979767 21.5606
-0.740594 -0.0327718 21.3779
-0.950052 -0.0613069 20.9453
-1.04148 -0.0913346 20.5207
0.383262 0.240601 19.9356
0.871066 0.525439 20.3382
0.861847 0.25747 21.1408
0.133697 -0.0696878 21.5414
-0.435728 -0.305429 21.2753
-0.536977 -0.400362 20.9257
-0.424357 -0.328733 20.721
-11.0324 -1.80682 11.0571
-0.030271 -5.25732 4.21529
0.0100901 -0.00199847 0.107748
0.376009 0.0515314 1.90611
-0.022551 0.027602 0.292133
0 0 0
-7.96256e-05 3.29401 3.29465
-0.201395 -0.262754 1.2471
-0.0176267 0.157995 -0.223626
0.0591832 0.0768412 0.260864
11.0526 -1.80835 11.0915
-0.0100406 -0.00198827 0.107402
-0.365459 0.0484019 1.88186
0 0 0
0.201575 -0.263017 1.2481
-0.0597427 0.0775592 0.260743
0.06784 -0.029551 1.724
0.0022261 -0.00483409 0.171076
0 0 0
-0.0043767 0.0508595 0.189317
-7.48405e-06 0.000444024 0.0147575
0.00432595 0.0321088 0.124187
-1.24391e-07 0.000748667 0.00175313
3.32659e-06 -0.00375627 0.0227347
-0.0672022 -0.0288246 1.71773
-0.00222571 -0.00486716 0.171074
0.00437169 0.0508109 0.189225
-0.00431638 0.0320081 0.123978
4.10499e-05 -0.00130428 0.00883134
-0.000227951 0.0281389 0.219592
0.000134864 0.000575191 0.00583953
-0.000194823 -0.118697 1.05691
3.53625e-08 2.46126e-08 3.56448e-06
-6.37917e-06 5.50502e-05 0.00405153
0.0215115 0.0152282 0.419273
-0.014015 0.0990743 -0.0917623
-0.000836946 -0.0327334 0.249417
9.84363e-07 3.6447e-06 0.000465601
-6.6908e-09 -1.92668e-07 1.9088e-06
-4.19318e-05 -0.00134405 0.00909111
0.000224272 0.0280886 0.219546
-0.000136848 0.000582997 0.00583272
-3.16987 -1.22561 20.6826
-4.32765 -5.45945 21.1518
-1.64927 -1.05932 17.9122
0.812218 0.652179 20.2701
0.507392 0.628998 13.2252
0.46906 0.96279 9.08342
-3.0473 0.67084 20.3451
-1.62094 0.660717 17.9751
-2.29343 2.60193 19.8964
1.26074 0.0370839 20.7721
1.28576 0.210658 8.6436
1.52116 -0.516315 17.0146
4.33671 -5.48497 21.1612
1.66688 -1.03128 17.9963
3.17103 -1.23472 20.6811
-0.507122 0.610166 13.1706
-0.647947 0.937364 10.0933
-0.799869 0.643939 20.229
1.61497 0.618833 18.0936
2.29237 2.60037 19.8967
3.05212 0.674349 20.3437
-1.432 0.350174 9.59942
-1.53832 -0.50566 16.9101
-1.2506 0.0456611 20.7555
-0.134851 -0.308715 21.0853
0.612272 -0.117571 13.0238
0.01417 0.0906603 20.184
0.467211 -0.209152 12.64
-1.01996 -0.881347 21.3536
-4.31312 1.25537 20.1476
0.153502 -0.178936 20.9162
0.761028 0.91031 13.7028
-0.621381 -0.121284 12.9106
0.124238 -0.304566 20.9865
-0.47244 -0.206377 12.5499
-0.0153924 0.0928478 20.082
4.35166 1.30839 20.0722
1.01912 -0.898435 21.337
-0.815348 0.96453 13.2559
-0.156729 -0.176609 20.8768
-0.982333 -0.381422 19.9204
-0.537007 -0.121824 19.8045
-0.544277 -0.270893 19.5878
-0.823373 -0.360755 21.1696
-1.43671 -0.488585 20.5281
-2.05077 -1.34377 20.608
-0.157669 -0.0688856 21.3549
-0.408292 -0.23056 21.3285
-0.332954 -0.148144 21.4941
0.184156 0.202772 21.456
-0.00854752 0.0392412 21.4231
-0.0852261 0.0974238 21.317
0.585363 0.411693 21.1922
0.523354 0.325309 21.381
0.470872 0.639595 21.2762
0.420273 0.202377 20.4419
0.798854 0.364431 20.9463
0.797719 0.717886 21.059
0.996954 0.219973 20.6382
0.524758 0.973311 20.6574
-1.13437 -0.247688 19.8314
-0.548965 -0.0063598 19.762
-0.589804 -0.157126 19.4925
-0.929275 -0.323112 21.2263
-1.63062 -0.12076 20.4384
-0.139308 -0.133447 21.4044
-0.5516 -0.306007 21.3338
0.297804 0.186891 21.5408
0.032215 -0.0340072 21.5301
0.778204 0.319979 21.169
0.715141 0.153819 21.3998
0.857053 0.20172 21.1413
0.911366 0.218702 20.8466
1.26015 0.626797 18.7962
0.620028 0.0579659 21.4255
0.513792 0.698672 20.7737
-1.07823 0.154826 19.8227
-0.457924 0.197459 19.8383
-0.57303 0.133246 19.5064
-1.12243 -0.0913293 21.0558
-1.21838 0.448993 20.3383
-0.333822 -0.227645 21.4947
-0.950126 -0.00846076 21.2392
0.407788 -0.0235411 21.5521
-0.067346 -0.118574 21.5785
0.905916 -0.0635239 21.1886
0.63777 -0.258521 21.3186
0.907411 -0.0727746 21.2311
0.809813 -0.278104 21.023
1.75717 -0.132717 20.6525
0.703531 -0.329336 20.3729
0.892186 -0.186873 20.1949
-0.633642 0.403287 20.0167
-0.378718 0.310343 19.7849
-0.92135 0.408301 20.7862
-1.07882 0.932355 20.2087
-0.521925 0.0708722 21.4398
-1.29123 0.618732 21.2073
0.201702 -0.213161 21.4803
-0.213906 -0.0626413 21.7505
0.531957 -0.353201 21.1392
0.499818 -0.541685 21.3778
0.483945 -0.372608 20.7966
0.702362 -0.580167 21.0561
0.618754 -0.554614 20.7559
-1.27391 -1.36902 18.7446
-0.486814 -0.287292 19.2646
0.00678577 -0.539116 18.9946
-1.3955 -0.704633 21.7338
-0.00819118 -6.40915 20.42
0.0225781 0.0768172 18.9625
-0.00217551 -0.259573 12.5221
0.160229 0.229181 18.4911
0.000289303 -0.0828357 10.7655
0.511789 1.05339 19.0279
-0.0234448 0.32645 11.3441
0.218714 0.934987 19.1577
0.891025 1.3426 14.8876
-0.0573855 0.777741 11.9663
0.443189 0.957276 16.1994
-0.00866209 0.389311 10.7975
-0.520259 -0.0180857 19.1817
0.0190152 -0.29272 18.8452
1.49582 0.65888 12.1931
1.75398 0.767378 9.65646
0.18415 0.226001 0.931232
1.22953 0.212474 13.0995
-0.0520629 -0.142677 9.38627
-0.416621 0.375612 19.3984
0.0211567 0.227732 18.8612
1.78752 -0.0938931 13.3885
1.49466 -1.12295 18.4551
0.015203 -1.85182 1.30789
0.80694 -0.60146 19.5408
0.00516389 -1.33897 7.23355
-0.667518 0.954477 19.5498
0.00557438 0.550466 19.4732
-1.27749 1.39556 20.6812
0.000522851 2.45038 19.76
-1.13896 0.731528 22.0933
-0.0182504 3.39715 20.7088
0.181968 -0.580171 21.7876
-0.00688638 0.266972 21.5159
0.504865 -0.947718 21.3219
-1.05036e-05 -0.907058 20.0027
0.534923 -0.858796 20.3542
-0.078344 -1.30528 20.1016
0.043943 -0.708281 17.3146
1.28231 -1.33697 18.77
0.503826 -0.274006 19.3023
0.544187 -0.260387 19.6124
1.39085 -0.708488 21.6957
2.06301 -1.35454 20.6091
-0.0241037 0.0748347 18.9209
0.330483 -0.144485 21.4949
-0.16334 0.225326 18.4547
0.0853244 0.0978725 21.3092
-0.498438 1.01033 19.0606
-0.464039 0.629183 21.2681
-0.544077 0.799085 18.1863
-0.939087 1.13596 15.4478
-0.795764 0.683843 21.1563
-0.576311 0.876203 16.5433
-0.541278 0.879596 20.9592
0.549743 -0.019223 19.2085
0.586975 -0.150159 19.5266
-1.06866 0.717276 13.8169
-1.72702 0.71615 11.6773
-1.20232 0.636926 20.0332
-1.34406 0.263285 15.541
-0.744407 0.643047 21.0173
0.427112 0.374686 19.4192
0.577064 0.135068 19.5439
-1.77551 -0.275815 13.6536
-1.61657 -1.0263 18.643
-1.58605 -0.160739 21.0499
-0.716313 -0.467665 19.8512
-0.864834 -0.164644 20.2913
0.669346 0.942906 19.5585
0.380289 0.302544 19.7933
1.27374 1.40568 20.6789
1.07762 0.931919 20.2091
1.14105 0.755743 22.1126
1.30675 0.634522 21.2093
-0.179943 -0.585128 21.7633
0.21607 -0.0629131 21.7651
-0.521763 -0.932968 21.3311
-0.503054 -0.540559 21.3779
-0.609477 -0.800489 20.3373
-0.722183 -0.558406 20.8753
-0.572009 -0.546546 20.7774
0.969619 -0.376428 19.9277
0.529999 -0.130735 19.8115
0.832052 -0.363263 21.1665
1.44197 -0.478901 20.5223
0.147818 -0.0670327 21.3623
0.405132 -0.233044 21.3273
-0.190776 0.207135 21.4623
0.00795669 0.0375552 21.4161
-0.570148 0.392128 21.1923
-0.516637 0.319039 21.3829
-0.617515 0.272398 20.7133
-0.700711 0.383212 20.9491
-1.02382 0.159488 20.4181
1.08414 -0.236262 19.8397
0.544116 -0.00446676 19.7787
0.925379 -0.321293 21.226
1.6421 -0.123265 20.4305
0.137783 -0.133613 21.4004
0.557357 -0.311367 21.3327
-0.296431 0.187368 21.5344
-0.0304579 -0.033812 21.5269
-0.763929 0.299903 21.228
-0.713881 0.156459 21.4123
-0.731507 0.301315 20.9571
-0.876918 0.14364 20.8457
-0.993327 -0.0344991 20.584
1.06496 0.156816 19.8414
0.453689 0.188521 19.847
1.12886 -0.0889319 21.0587
1.21777 0.447866 20.3377
0.334404 -0.22821 21.4955
0.960009 -0.00949132 21.2423
-0.409682 -0.0225902 21.5495
0.0656824 -0.121812 21.5818
-0.879862 -0.0642681 21.2026
-0.631523 -0.252877 21.291
-0.860003 -0.0734097 20.7097
-0.756877 -0.304273 20.6806
-0.716381 -0.268673 20.6015
0.629545 0.403869 20.0238
0.926162 0.414673 20.787
0.531375 0.0747039 21.4444
-0.202486 -0.21096 21.4697
-0.530657 -0.359833 21.1226
-0.451835 -0.332158 20.7927
-1.04825 -0.320994 19.8741
-1.42994 -1.26379 18.3364
-1.23307 -0.769432 19.4687
-1.54876 -0.532195 19.1571
-0.573003 -0.237182 19.5447
-2.55825 -1.37348 20.6285
-0.881633 -0.330273 21.2056
-0.209035 -0.19982 14.6645
-0.967812 -0.521341 21.5678
-1.05337 -0.458227 21.8511
-0.255331 -0.172084 21.4676
-0.146425 -0.0973464 21.3772
0.543228 -0.0386144 12.9961
-0.11047 0.0388351 21.4059
0.118687 -0.0788381 20.5762
-0.0393594 0.1 20.9918
0.248406 0.201319 21.4929
0.0977703 0.189731 12.1694
0.149585 0.378423 21.449
0.389 0.44382 20.3845
0.641792 0.666965 20.9648
0.687377 0.401529 21.2004
0.586409 1.09053 14.7335
0.653227 0.759918 21.001
1.09591 0.803146 20.4159
1.013 0.6567 20.8939
0.638382 0.20209 20.791
0.875947 0.798265 15.6545
0.620415 0.691716 21.9518
1.10971 0.535774 19.3077
0.418312 0.91618 20.9295
-1.13507 -0.0569704 19.7998
-1.7569 -0.165082 17.7371
-1.46764 0.34059 19.2
-0.612571 -0.0126054 19.4677
-3.5275 -0.319865 20.4861
-1.02423 -0.22772 21.1599
-1.54643 -0.229249 21.4881
-0.334466 -0.72823 20.5645
-0.20089 -0.203035 21.4624
-0.262064 -0.667105 21.1713
0.149601 0.0543394 19.9056
0.374306 0.098304 21.5744
0.838618 0.0859547 20.8892
1.10828 0.452787 20.2159
0.891014 0.162062 21.1812
0.402998 0.571513 4.76694
1.53197 -0.0269109 20.573
1.59073 0.432739 19.6439
1.04831 0.096543 21.4033
1.90887 0.388105 9.60312
1.49204 -0.184127 20.4516
0.702989 0.255899 20.4843
-0.877266 0.357123 19.9006
-1.07006 1.10531 18.9566
-0.725708 0.644273 19.8015
-0.472212 0.275878 19.6292
-1.8394 1.08386 20.2193
-1.10988 0.206629 20.8989
-2.40462 1.28646 20.9503
-1.18391 0.770949 20.7595
-1.78247 0.00336323 21.4074
-0.516012 -0.112858 21.5009
-0.64462 0.248839 15.2645
-0.820995 0.237104 21.6835
-0.174511 -0.216928 21.7954
0.347291 -0.176453 21.5169
1.47531 0.0437594 15.0305
0.248124 -0.357092 21.6191
0.907335 -0.547882 21.3599
0.765068 -0.328187 21.1588
1.58394 -0.793784 17.8573
0.610307 -0.651319 21.0337
0.887382 -0.751766 20.6507
0.647851 -0.286063 20.8673
1.18065 -0.770828 19.9645
0.473853 -0.51906 20.7291
0.85468 -0.409283 20.0869
1.4446 -1.23463 18.375
0.00823756 -2.02171 17.8927
0.0343323 -1.57983 16.6312
0.0136091 -0.425723 18.9247
-0.00492019 -10.128 20.437
0.206015 -0.198595 14.569
-0.00595547 -1.81538 18.5611
0.00139854 0.0148198 3.88309
-0.542974 -0.0356809 12.892
-0.00117867 -0.134061 11.096
0.000923136 0.0457149 4.69577
-0.0996226 0.186553 12.1071
-0.00382859 0.0394533 11.0986
-0.0427897 0.250045 5.10539
-0.642094 1.05314 15.2173
-0.0407264 0.494896 11.9485
-0.0139062 0.0865915 -0.333449
0.0788634 0.659807 6.27923
-0.773626 0.796534 15.5538
-0.362182 0.843462 11.8113
-0.0777859 0.646644 6.79785
-0.0578822 0.156652 9.92321
1.7497 -0.152519 17.8659
0.0335201 1.09984 16.5442
0.0241039 -0.044452 18.6932
-0.578277 0.600584 6.02737
-0.0486013 -0.782793 0.35232
0.0265423 -2.64158 -3.2931
-1.61867 0.386183 12.3995
-0.181449 -1.52796 4.39211
-0.0234495 -0.740824 8.30991
1.07974 1.07755 18.9854
0.0043826 1.33264 19.2214
0.0102423 0.467602 19.1488
-0.000513858 4.82938 19.2022
2.40639 1.29705 20.9497
-0.005988 2.35707 20.5111
-0.012239 4.10759 14.2327
0.553156 0.316309 14.7596
-0.0187672 1.94697 22.6439
0.00132575 -0.181323 3.284
-1.49765 0.0561271 14.7827
-0.00150852 -0.465642 20.4458
0.00125452 -0.342819 3.41226
-1.57502 -0.741682 18.104
-0.00433948 -1.12954 19.8303
0.0271382 -1.19391 11.5655
-1.3463 -0.79301 19.5051
-0.0652583 -1.13343 20.167
0.0684495 -1.30518 11.0498
1.02825 -0.317364 19.875
1.23345 -0.753446 19.4846
1.50985 -0.504223 19.2084
0.567818 -0.22081 19.5725
2.55861 -1.37572 20.6212
0.884428 -0.331125 21.2036
0.96781 -0.521059 21.5666
1.04976 -0.459095 21.8338
0.248906 -0.170293 21.4386
0.140156 -0.0973186 21.3789
0.111073 0.0405321 21.4028
-0.124619 -0.0763089 20.4848
0.0384282 0.100445 20.9597
-0.251325 0.203932 21.4936
-0.148986 0.378233 21.4446
-0.386846 0.445226 20.3412
-0.635176 0.657599 20.9344
-0.674412 0.369054 21.1709
-0.647582 0.734086 21.0695
-1.07517 0.72376 20.546
-0.951361 0.691727 21.1808
-0.743001 0.323102 20.6713
-0.618631 0.712993 21.2952
-1.12655 0.655576 20.0702
-0.553201 0.799293 21.0464
1.13782 -0.0467467 19.8119
1.44662 0.335732 19.2534
0.599925 -0.00577551 19.5167
3.54039 -0.317885 20.4846
1.03395 -0.230214 21.1585
1.54631 -0.23042 21.4924
0.329572 -0.731085 20.5189
0.202945 -0.203739 21.4636
0.258623 -0.678223 21.1384
-0.14912 0.0581633 19.8443
-0.371819 0.0989309 21.5715
-0.841142 0.0921828 20.8656
-1.09109 0.455143 20.1899
-0.867316 0.153517 21.2247
-1.47606 -0.0365854 20.6068
-1.51981 0.302176 20.4237
-0.739228 0.151665 21.0912
-1.43257 -0.179894 20.4558
-1.1619 0.220424 20.7301
0.870658 0.35496 19.9055
0.72461 0.632079 19.8093
0.470093 0.261875 19.6547
1.84011 1.08437 20.219
1.11551 0.207583 20.8987
1.18706 0.777028 20.7599
1.81141 0.00673454 21.4092
0.519835 -0.117119 21.5032
0.833142 0.249222 21.6948
0.178862 -0.218427 21.7805
-0.354419 -0.17609 21.5199
-0.249608 -0.363756 21.6202
-0.914478 -0.542457 21.3293
-0.757506 -0.304787 21.1646
-0.612721 -0.645984 21.0475
-0.923848 -0.619343 20.9433
-0.606714 -0.243847 20.8756
-0.456018 -0.491165 20.7682
-0.607665 -0.340692 20.3779
-1.4047 -0.712489 19.3237
-1.01633 -0.490874 21.6978
-0.0103627 0.0157208 21.2117
0.257461 0.417441 21.0995
0.845171 0.840927 20.9674
0.840879 0.685983 22.1691
-1.60142 -0.0833891 19.0861
-1.22748 -0.524244 21.7135
0.106739 -0.407326 20.0326
0.646921 0.397958 20.1757
1.45344 0.454257 20.1544
1.51997 0.263322 16.7655
-1.07408 0.643991 19.4994
-1.66286 0.419524 20.9588
-0.934676 -0.237248 21.8117
0.552136 -0.380037 21.634
1.05992 -0.639665 21.1338
1.12007 -0.431297 20.3397
0.0212029 -1.86339 17.2695
-0.00097357 -0.539496 4.7652
0.000192107 0.00315475 4.17301
-0.0053147 0.0578159 5.39972
-0.0789946 0.365363 5.79949
-0.263875 0.755124 9.2766
0.0383706 -0.231504 16.1466
0.189383 -0.827982 -2.78237
0.0261817 -0.276359 2.55789
0.0170805 1.67037 18.2069
-0.0074255 3.23017 20.742
0.000969403 0.0483469 2.06644
0.00145216 0.0874542 1.84103
-0.0420956 -0.813645 6.82796
-0.220665 -1.82248 12.5578
1.38025 -0.671534 19.3498
1.01605 -0.493968 21.6986
0.00839019 0.0176512 21.182
-0.257294 0.417871 21.0807
-0.857596 0.763162 20.8763
-0.829281 0.74324 21.1627
1.58635 -0.0776606 19.1424
1.22811 -0.523084 21.7061
-0.111365 -0.408164 19.9673
-0.644641 0.403183 20.1372
-1.39866 0.406444 20.3368
-1.31247 0.302182 19.8995
1.06427 0.627251 19.523
1.66926 0.42079 20.9594
0.947947 -0.242479 21.819
-0.56235 -0.382107 21.6093
-1.04646 -0.612187 21.1405
-1.19424 -0.486413 19.9321
-3.64578 -1.2768 5.36884
-0.905336 -6.58818 4.28964
0.038679 -0.0316026 0.374783
0.0230132 0.0921249 0.638201
-0.159794 0.133774 0.495056
0.0411494 0.025987 1.15144
-11.3414 1.63755 8.44086
-0.340281 2.44536 3.13871
-0.246603 -0.278374 1.96818
-0.0566914 0.0718147 0.218361
-0.0652513 0.106601 -0.0590067
0.168056 0.171306 0.675809
0.919554 -6.73405 4.38524
3.65433 -1.27926 5.36798
-0.038651 -0.0316761 0.375506
0.142774 0.119628 0.4731
-0.0306859 0.116556 0.831652
-0.0421854 0.0246643 1.14637
0.339652 2.44513 3.13918
11.3306 1.62949 8.43433
0.245877 -0.278257 1.96579
0.0319083 0.139787 -0.0846905
0.0610564 0.072097 0.213284
-0.170882 0.174298 0.675877
0.128362 0.00443674 0.820791
0.116354 -0.0775165 1.57527
0 0 0
9.12581e-18 -8.41238e-19 4.8439e-17
0 0 0
0.0214903 0.00240791 1.67835
0 0 0
0 0 0
-0.29414 -0.384597 0.862998
9.61134e-06 4.65963e-05 0.00153505
0.0146362 0.0728073 0.246994
-0.000956737 0.000899832 0.00208439
0.0069879 0.0272463 0.0881408
-4.64668e-07 -2.74808e-05 -9.26445e-05
0.0101559 0.0850895 0.319833
0.300378 0.154072 1.17493
-0.129157 0.00378627 0.822165
0 0 0
-0.11543 -0.076564 1.56802
0 0 0
0 0 0
0 0 0
-0.0211855 0.00274444 1.67235
-2.60748e-18 -5.40553e-18 -4.67622e-17
0.294194 -0.384526 0.863351
0.00115613 0.00108838 0.00252016
-7.09647e-06 3.41477e-05 0.00113124
-0.0146297 0.07277 0.247235
-0.00706942 0.0275088 0.0887516
-0.301227 0.154508 1.17823
5.17006e-07 -3.06514e-05 -0.000103351
-0.0101543 0.0849682 0.319638
-0.0188176 0.0286802 0.366486
-0.452647 0.110173 0.441579
-0.000421415 -0.189128 0.560607
-0.000391996 -1.11276 0.815311
0.00160449 -0.0103435 0.079781
-0.000788402 -0.0508 0.356181
0.0145355 0.050029 0.444131
-0.147258 0.0307659 -0.0488656
-0.000418475 0.00535098 0.0972135
0 0 0
3.35394e-05 0.000835573 0.00981297
-0.000935183 0.000263887 0.0936942
-2.91696e-06 0.000127994 2.13983e-05
0.00262119 0.202264 0.651197
-0.00591975 -0.0241498 0.0828279
0 0 0
0 0 0
1.35203e-07 1.31202e-06 -1.47713e-05
0.00274776 0.00851163 0.0492404
-5.3861e-06 3.57718e-06 -4.32045e-05
0.501192 0.126346 0.449554
0.0187964 0.0281418 0.365421
0.000226275 -0.0508902 0.383011
-0.00159287 -0.010267 0.079328
0.145174 0.0384229 -0.0586285
-0.0146028 0.0504318 0.442903
0.000683779 0.000242122 0.0935435
-3.32159e-05 0.000829723 0.00975358
0 0 0
0.00594332 -0.0242352 0.08309
5.22493e-06 3.54448e-06 -4.30141e-05
-0.00281903 0.00880764 0.0503614
5.29167e-19 -2.20724e-18 -5.03918e-17
0 0 0
0.00779465 -0.0295955 0.0817316
0.000991824 0.0219276 0.249185
0 0 0
-6.90612e-07 -1.15163e-06 -0.000108983
-0.00188421 0.0448406 0.285365
-0.00485966 0.031197 0.251309
-5.1316e-07 0.000652181 0.035415
0 0 0
0 0 0
0.180937 0.120394 0.912233
-3.6533e-22 6.51879e-19 5.62224e-18
0 0 0
0 0 0
-6.75779e-09 -9.78176e-07 1.1234e-06
0 0 0
0 0 0
-0.00764662 -0.0296359 0.0820526
-0.00100119 0.0218411 0.249154
0.00187821 0.0447979 0.28525
0.004832 0.0312165 0.251232
-0.181028 0.120665 0.913219
0 0 0
0 0 0
0 0 0