# vtk DataFile Version 2.0
tri_press
ASCII
DATASET UNSTRUCTURED_GRID
POINTS 3682 float
-0.755 0.275 -2.4738
-0.755 0.275 2.4901
-0.842854 0.805 -2.515
-0.845 0.853302 2.505
0.755 0.275 -2.47379
0.755 0.275 2.4901
0.842848 0.805 -2.515
0.845 0.853302 2.505
-0.755615 0.274385 -0.819167
-0.755545 0.274455 0.835467
-0.852218 0.82975 -0.841667
-0.852175 0.845092 0.831667
0.755608 0.274392 -0.81916
0.755543 0.274457 0.83547
0.852216 0.829752 -0.841667
0.852164 0.845082 0.831667
-1.55881 -0.0101773 -3.79502
-1.55823 -0.00184102 -2.46382
-1.55868 -0.00239772 -0.809673
-1.55786 -0.00638846 0.840713
-1.55646 -0.007178 2.49455
-1.55642 -0.00327429 3.82419
-1.55681 0.00278958 5.15671
-1.56347 0.262491 -3.8089
-1.56816 0.273575 -2.47566
-1.57027 0.276804 -0.81787
-1.56909 0.277074 0.838236
-1.56604 0.278199 2.49567
-1.56127 0.282222 3.82557
-1.5593 0.287928 5.15748
-1.60238 0.802573 -3.8419
-1.63902 0.813035 -2.50944
-1.64949 0.832173 -0.838899
-1.64875 0.845547 0.832964
-1.63876 0.85297 2.50314
-1.60199 0.856326 3.83228
-1.57987 0.860238 5.16117
-1.62704 1.63065 -3.87735
-1.64554 1.64383 -2.54208
-1.65715 1.66693 -0.865483
-1.65905 1.68895 0.815148
-1.64964 1.70335 2.49155
-1.6306 1.70999 3.82641
-1.6102 1.71458 5.15734
-0.762187 -0.00940331 -3.79381
-0.765902 -0.000522779 -2.46206
-0.766598 -0.00334241 -0.809907
-0.766385 -0.00855821 0.83835
-0.765324 -0.0098594 2.49041
-0.760299 -0.00521928 3.82138
-0.757869 0.00150135 5.15508
-0.756876 0.262251 -3.80852
-0.755083 0.2806 3.82326
-0.755443 0.286871 5.15626
-0.785459 0.799066 -3.84421
-0.785256 0.856108 3.83265
-0.767904 0.85993 5.16125
-0.809452 1.62785 -3.87964
-0.8252 1.64099 -2.5446
-0.834674 1.66565 -0.867001
-0.837182 1.68927 0.815331
-0.830407 1.70416 2.49285
-0.813667 1.71064 3.82771
-0.79612 1.71498 5.15829
0.800098 -0.0094023 -3.7938
0.764448 -0.000521257 -2.46205
0.760811 -0.00333786 -0.809902
0.760719 -0.0085561 0.838353
0.764531 -0.00985891 2.49041
0.801531 -0.00521909 3.82139
0.824792 0.00150153 5.15508
0.814674 0.262251 -3.80852
0.816485 0.2806 3.82326
0.835005 0.286871 5.15626
0.84437 0.799067 -3.84421
0.845842 0.856108 3.83265
0.8464 0.85993 5.16125
0.829954 1.62785 -3.87963
0.825521 1.64099 -2.5446
0.823007 1.66565 -0.866999
0.820511 1.68926 0.815332
0.820555 1.70416 2.49286
0.825944 1.71063 3.82771
0.832309 1.71498 5.15829
1.58668 -0.0101752 -3.79501
1.55521 -0.00183773 -2.46381
1.54951 -0.00239191 -0.809663
1.54914 -0.00638586 0.840719
1.55491 -0.0071771 2.49455
1.58769 -0.0032738 3.82419
1.61447 0.00278964 5.15671
1.60136 0.262493 -3.80889
1.56634 0.273577 -2.47565
1.5643 0.27681 -0.817861
1.56362 0.277075 0.838241
1.56557 0.2782 2.49567
1.60256 0.282222 3.82558
1.62604 0.287928 5.15748
1.64151 0.802574 -3.8419
1.63791 0.813036 -2.50943
1.64384 0.832174 -0.838894
1.64307 0.84554 0.832966
1.63777 0.852968 2.50314
1.64237 0.856325 3.83228
1.64557 0.860237 5.16117
1.64417 1.63065 -3.87735
1.64374 1.64383 -2.54208
1.64371 1.66693 -0.86548
1.64171 1.68895 0.815151
1.6397 1.70335 2.49156
1.64067 1.70999 3.82641
1.64276 1.71458 5.15735
-0.870624 0.54 -2.5661
0 0.275052 -2.47374
-0.761877 0.268123 -1.64648
-0.864548 0.564151 2.5621
0 0.275011 2.49009
-0.759314 0.270686 1.66278
-3.01003e-06 0.805582 -2.51558
-0.851999 0.821838 -1.67833
0 0.849143 2.50084
-0.853426 0.854035 1.66833
0.870659 0.54 -2.56613
0.761873 0.268127 -1.64648
0.864486 0.564151 2.56204
0.75931 0.27069 1.66279
0.851993 0.821837 -1.67833
0.853416 0.854027 1.66833
-0.755544 0.274456 0.00814998
-0.851542 0.552068 -0.830417
-3.34001e-06 0.191834 -0.819163
-0.852471 0.559774 0.833567
-1.14198e-06 0.212729 0.835468
-0.852209 0.837433 -0.005
-1.08736e-06 1.12997 -0.841667
-5.84727e-06 1.3523 0.831667
0.755537 0.274463 0.00815499
0.851537 0.552072 -0.830414
0.852465 0.55977 0.833569
0.852197 0.837424 -0.005
-0.886683 0.546034 -1.66241
0.886682 0.546036 -1.6624
-1.67001e-06 0.132306 -1.64648
-2.0487e-06 0.979655 -1.67833
-1.50502e-06 0.54 -2.57747
-0.852476 0.555921 0.00157499
0.85247 0.555921 0.0015775
-2.241e-06 0.20288 0.00815248
-3.46732e-06 1.35647 -0.005
-0.876983 0.561962 1.66556
0.876983 0.56196 1.66556
-5.70989e-07 0.227571 1.66278
-2.92363e-06 0.930573 1.66833
0 0.564151 2.57747
-0.803245 0.4075 -2.51038
-0.3775 0.275983 -2.47281
-0.759192 0.270808 -2.06014
-0.809021 0.419576 2.52535
-0.3775 0.275164 2.48994
-0.755389 0.274611 2.07644
-0.838423 0.6725 -2.52223
-0.421429 0.805588 -2.51559
-0.850017 0.816009 -2.09667
-0.828223 0.708727 2.507
-0.4225 0.849955 2.50165
-0.851999 0.856454 2.08667
0.3775 0.275712 -2.47308
0.803267 0.4075 -2.5104
0.759196 0.270804 -2.06013
0.3775 0.275234 2.48987
0.811622 0.419576 2.52795
0.755388 0.274612 2.07644
0.421422 0.805576 -2.51558
0.838387 0.6725 -2.5222
0.849978 0.815976 -2.09667
0.4225 0.849955 2.50165
0.82823 0.708727 2.507
0.851993 0.85645 2.08667
-0.755471 0.274529 -1.23283
-0.755545 0.274455 -0.405508
-0.804747 0.412642 -0.824792
-0.389014 0.2107 -0.819165
-0.762703 0.267297 1.24913
-0.755556 0.274444 0.421808
-0.806026 0.416105 0.834517
-0.38129 0.236559 0.835468
-0.852231 0.825916 -1.26
-0.852456 0.691197 -0.836042
-0.852217 0.833595 -0.423333
-0.501073 1.12979 -0.841667
-0.863855 0.860618 1.25
-0.852486 0.702514 0.832617
-0.852206 0.841277 0.413333
-0.54678 1.34007 0.831667
0.755557 0.274443 -1.23282
0.388951 0.210816 -0.819162
0.755532 0.274468 -0.405503
0.804759 0.412639 -0.824787
0.762702 0.267298 1.24913
0.38129 0.236554 0.835469
0.755552 0.274448 0.421813
0.806029 0.416101 0.834519
0.852225 0.825914 -1.26
0.501066 1.12978 -0.841667
0.852437 0.691192 -0.83604
0.852216 0.833598 -0.423333
0.863779 0.860544 1.25
0.546771 1.34007 0.831667
0.852478 0.702508 0.832618
0.852191 0.841264 0.413333
-0.887863 0.543017 -2.11425
-0.435313 0.54 -2.57747
-8.35004e-07 0.191765 -2.06011
-7.52509e-07 0.407526 -2.52406
-0.876038 0.407078 -1.65445
-0.380939 0.196592 -1.64648
-0.876206 0.563057 2.11383
-0.432274 0.564151 2.57747
-2.85494e-07 0.229142 2.07644
0 0.419581 2.49441
-0.875924 0.416324 1.66417
-0.379657 0.19377 1.66278
-2.52937e-06 0.933729 -2.09696
-2.25753e-06 0.672791 -2.4906
-0.878515 0.683936 -1.67037
-0.426001 0.902222 -1.67833
-1.46182e-06 0.892828 2.08459
0 0.706647 2.50714
-0.874214 0.707999 1.66695
-0.426714 0.930573 1.66833
0.887875 0.543018 -2.11427
0.435329 0.54 -2.57747
0.876036 0.407082 -1.65444
0.380935 0.196591 -1.64648
0.8762 0.563056 2.1138
0.432243 0.564151 2.57747
0.875924 0.416325 1.66417
0.379655 0.193775 1.66278
0.878516 0.683936 -1.67037
0.425996 0.902223 -1.67833
0.874289 0.707994 1.66695
0.426707 0.930573 1.66833
-0.805421 0.414482 0.00486249
-0.379312 0.235591 0.00815123
-0.850419 0.549051 -1.24641
-0.85211 0.553994 -0.414421
-2.50501e-06 0.206074 -1.23282
-2.79051e-06 0.197479 -0.405506
-0.85243 0.557847 0.417571
-0.894142 0.560868 1.24956
-1.69149e-06 0.203036 0.42181
-8.56483e-07 0.226271 1.24913
-0.85245 0.69673 -0.0017125
-0.547464 1.33967 -0.005
-1.56803e-06 0.942197 -1.26
-2.27734e-06 1.33458 -0.423333
-4.65729e-06 1.35648 0.413333
-4.38545e-06 1.08746 1.25
0.805429 0.414479 0.00486624
0.37932 0.235567 0.00815374
0.850414 0.549054 -1.24641
0.852105 0.553996 -0.414418
0.852425 0.557845 0.417573
0.894142 0.560865 1.24956
0.852446 0.696729 -0.00171125
0.547458 1.33967 -0.005
-0.830921 0.407289 -2.0872
-0.804106 0.410152 -1.23962
-0.852489 0.687422 -1.25321
-0.852633 0.678218 -2.10546
0.831275 0.407291 -2.0872
0.852628 0.678218 -2.10547
0.852481 0.687424 -1.2532
0.804099 0.410157 -1.23961
-0.37922 0.251784 -2.06013
0.379218 0.251785 -2.06012
0.379369 0.241709 -1.23282
-0.379374 0.24259 -1.23282
-0.423715 0.862321 -2.09681
-0.426055 0.940811 -1.26
0.426052 0.940812 -1.26
0.423709 0.862307 -2.09681
-0.406406 0.407513 -2.52406
-0.428371 0.672645 -2.4906
0.428376 0.672645 -2.4906
0.406414 0.407513 -2.52406
-0.805084 0.413562 -0.409965
-0.805721 0.415295 0.41969
-0.852452 0.699614 0.415452
-0.852453 0.693964 -0.418877
0.805094 0.413559 -0.40996
0.852442 0.69396 -0.418876
0.852447 0.699611 0.415453
0.805725 0.415292 0.419693
-0.393314 0.204843 -0.405507
0.393267 0.204929 -0.405504
0.394503 0.207664 0.421812
-0.394505 0.207667 0.421809
-0.570935 1.32806 -0.423333
-0.547125 1.33988 0.413333
0.547118 1.33988 0.413333
0.57092 1.32804 -0.423333
-0.893419 0.416719 1.24934
-0.807845 0.41795 2.09513
-0.852858 0.708363 2.10025
-0.892317 0.705216 1.24978
0.89342 0.416719 1.24935
0.892253 0.70521 1.24978
0.852836 0.70836 2.10023
0.807834 0.41795 2.09512
-0.378715 0.193898 1.24913
0.378713 0.193902 1.24913
0.378577 0.199055 2.07644
-0.378579 0.199053 2.07644
-0.426403 1.08746 1.25
-0.424607 0.892735 2.08563
0.424603 0.892735 2.08563
0.426393 1.08749 1.25
-0.404887 0.419578 2.51865
0.404871 0.419578 2.51865
0.427371 0.707687 2.50709
-0.427387 0.707687 2.50709
-0.788234 0.34125 -2.5012
-0.56625 0.276841 -2.47196
-0.756775 0.273225 -2.26697
-0.797851 0.347288 2.52356
-0.56625 0.275536 2.48956
-0.756774 0.273226 2.28327
-0.841195 0.73875 -2.51917
-0.632141 0.805591 -2.51559
-0.851178 0.815247 -2.30583
-0.834601 0.781014 2.50399
-0.63375 0.849955 2.50165
-0.851892 0.858271 2.29583
0.56625 0.27613 -2.47266
0.788414 0.34125 -2.50137
0.75675 0.27325 -2.26696
0.56625 0.275948 2.48915
0.797602 0.347288 2.52331
0.756782 0.273218 2.28327
0.632135 0.805572 -2.51557
0.841281 0.73875 -2.51926
0.851189 0.815264 -2.30583
0.63375 0.849955 2.50165
0.834573 0.781014 2.50396
0.851887 0.858266 2.29583
-0.75554 0.27446 -1.026
-0.755586 0.274414 -0.612338
-0.781199 0.343005 -0.821979
-0.582271 0.222629 -0.819166
-0.760882 0.269118 1.0423
-0.755544 0.274456 0.628638
-0.781888 0.344729 0.834992
-0.567961 0.25642 0.835467
-0.852236 0.827844 -1.05083
-0.852258 0.760434 -0.838854
-0.852216 0.831671 -0.6325
-0.74221 1.1109 -0.841667
-0.853992 0.848832 1.04083
-0.852263 0.773769 0.832142
-0.8522 0.843193 0.6225
-0.72335 1.14033 0.831667
0.755536 0.274464 -1.02599
0.582262 0.222639 -0.819161
0.755574 0.274426 -0.612331
0.781205 0.343005 -0.821973
0.76082 0.26918 1.0423
0.567968 0.256403 0.83547
0.755541 0.274459 0.628641
0.781902 0.344721 0.834995
[...]
POINT_DATA 3682
SCALARS point_scalars float 1
LOOKUP_TABLE default
-143.306
-43.1142
-102.807
-42.5095
-144.127
-42.8292
-102.864
-41.8282
-33.3933
-24.2075
-46.157
-37.5653
-33.3914
-24.2
-46.1502
-37.5476
20.7523
-188.415
-32.3672
-23.5751
-36.3208
-41.5044
-41.5044
20.7523
-128.838
-34.0409
-22.8131
-37.5154
-41.5044
-41.5044
20.7523
-162.545
-45.4289
-36.8121
-40.3429
-40.5584
-41.5044
-31.0873
-153.433
-78.1187
-46.9818
-43.7468
-42.3114
-42.3114
14.9322
-167.432
-35.6014
-24.7496
-41.0861
-41.85
-34.9378
174.386
-34.931
-34.1962
172.674
-34.1962
-34.1962
-31.0873
-125.065
-67.0124
-57.4271
-39.3206
-42.3114
-42.3114
135.671
-168.702
-36.0629
-24.7402
-40.553
-41.0902
-34.5551
142.275
-34.5551
-33.5896
167.001
-33.5896
-33.5896
-31.1507
-125.158
-67.0405
-57.3946
-38.5698
-41.6058
-41.6058
19.9743
-188.689
-32.3721
-23.6161
-38.7957
-40.8368
-40.8368
19.9743
-128.922
-34.0137
-22.8643
-37.0608
-40.8368
-40.8368
19.9743
-162.724
-45.4315
-36.7938
-39.7909
-39.573
-40.8368
-31.1507
-153.568
-78.948
-47.3947
-43.1993
-41.6058
-41.6058
-53.464
-46.8882
-50.4081
-41.2026
-33.6538
-39.5134
-30.8014
-36.6471
-33.6518
-43.5956
-53.6828
-50.3517
-40.5163
-39.3863
-36.6475
-43.5298
-30.2731
-34.6253
-39.1434
-28.4318
-32.0554
-39.8361
19.778
-60.0893
-30.2624
-34.6268
-28.4059
-39.8201
-42.5491
-42.545
-61.0579
-22.8087
203.663
-33.3445
-33.3291
-31.5861
-74.8516
-40.6233
-40.4999
-36.4789
-43.4868
-29.6343
-89.9879
-71.6134
-68.2788
-40.003
-36.0457
-33.9142
-62.8755
-39.467
-55.404
-40.1426
-33.5462
-37.7149
-71.7735
-89.8942
-68.1975
-35.4863
-39.4556
-33.6826
-39.5625
-62.8287
-55.4327
-33.16
-39.4412
-37.5732
-38.6952
-32.3333
-32.8973
-38.3634
-39.1601
-28.8474
-22.7395
-29.2938
-33.1711
-38.5778
-44.1004
17.487
-50.69
-32.8542
-37.8073
-59.0115
-38.6811
-38.3566
-32.326
-32.9097
-39.0905
-29.278
-28.8306
-22.7497
-33.1523
17.488
-38.5728
-44.0883
-50.6614
-59.0212
-32.8305
-37.7931
-61.064
203.217
-84.7531
118.118
-45.3106
-56.6271
-34.4247
-31.6359
-38.3337
-30.5873
-40.9054
-37.3262
-39.5661
191.003
-39.3758
-22.9308
-38.9579
-30.9304
-41.5115
-43.7797
-61.1012
203.941
-45.2938
-56.8497
-34.1593
-30.8479
-40.7679
-37.2553
-39.3766
-22.9292
-41.4122
-43.7947
-31.4254
-30.4273
-36.5824
-34.7537
-48.7452
-34.4454
-31.6314
-46.9521
-31.8968
-34.2562
-36.0978
-63.5452
1.02092
-104.721
-61.9034
-45.3791
-31.4132
-30.4153
-36.5348
-34.7466
-31.6125
-46.8705
-36.0829
-63.527
-54.309
-37.7486
-35.4198
-60.4201
-54.3595
-60.4411
-35.4015
-37.7293
-82.3464
-82.3265
-46.4838
-46.4483
-53.4736
0.381419
0.381626
-53.4676
122.175
188.085
188.209
122.369
-32.6709
-29.7455
-34.2352
-38.3301
-32.6742
-38.3191
-34.2179
-29.7271
-34.5127
-34.502
-31.8692
-31.8771
-95.4525
-54.6241
-54.6069
-94.6884
-47.6792
-32.5286
-34.6632
-47.2689
-47.5787
-47.2167
-34.4113
-32.2766
-35.2182
-35.1902
-40.4267
-40.6194
-46.7595
-38.8931
-38.8985
-46.7764
-32.5983
-31.9614
-31.4248
-32.1199
-92.9777
-172.065
-87.677
-41.2809
-39.1997
-34.0307
-76.2766
-34.8231
-85.3756
-41.4097
-35.5682
-39.1217
-171.447
-93.5507
-87.6645
-38.5435
-40.7713
-33.6932
-34.8395
-76.3757
-85.4157
-34.9103
-40.7
-38.8222
-34.1111
-33.8325
-32.4808
-37.5842
-32.5543
-27.4446
-22.2012
-28.3636
-43.9486
-41.7071
-44.9253
-61.5817
-41.1183
-34.9196
-37.324
-48.9123
-34.1117
-37.5804
-33.8328
-32.4877
-32.4924
-28.3437
-27.4262
-22.2032
-43.9443
-61.552
-41.7017
-44.9158
-41.103
-48.9303
-34.8979
-37.3099
-105.503
-68.9088
-100.32
188.657
-46.2636
-46.4614
-118.079
124.085
-56.2196
-46.8378
-46.3638
-53.8
-41.4704
-40.1885
-36.6803
-33.2148
-34.2597
-33.922
-35.789
-31.4735
-41.6426
-39.123
-40.6758
-38.7746
-32.8301
-32.922
-74.1597
174.647
-43.5403
-33.905
-38.8011
-25.3695
-33.3758
-33.2817
-36.2453
-31.8097
-39.9448
-47.2338
-41.4576
-44.3399
-106.61
-68.7923
-100.398
189.224
-56.1712
-46.8032
-46.3376
-53.6827
-40.8363
-39.4953
-36.2551
-32.5497
-41.4445
-39.0335
-40.5394
-38.6816
-43.5349
-33.9046
-38.8031
-25.3669
-39.8257
-47.2085
-41.3783
-44.3514
-31.0928
-29.6678
-30.773
-30.5407
-33.5934
-36.2907
-34.0528
-34.962
-38.9976
-38.9945
-43.012
-36.4676
-25.2907
-30.9336
-30.3402
-29.1322
-31.6151
-31.6112
-31.2391
-32.6835
-42.0153
-38.6819
-37.6605
-52.3144
20.939
20.9342
11.0694
-27.049
-60.8295
-60.8378
-59.8289
-50.9344
-31.0838
-29.6506
-30.761
-30.5343
-33.6048
-36.2872
-34.0455
-34.961
-25.2785
-30.9107
-30.3209
-29.1336
-42.0006
-38.6666
-37.6454
-52.295
-49.5288
-43.9686
-41.2843
-43.3016
-49.5286
-43.9592
-41.2839
-43.3145
-67.6479
-58.6368
-58.6344
-58.4547
-46.5503
-22.5141
-22.5255
-8.91164
204.475
165.94
195.618
203.538
-32.1995
-34.0877
-32.5703
-34.7514
-32.1859
-34.0754
-32.5529
-34.7356
-31.3406
-32.7659
-31.3775
-31.3353
-72.6196
-85.2821
-66.679
-72.6233
-37.1088
-40.5159
-41.133
-44.0319
-36.9412
-40.378
-41.0122
-43.9318
-36.9879
-36.6189
-36.5912
-35.3341
-41.4331
-43.5858
-43.5377
-44.4359
-30.3409
-29.4436
-30.4689
-29.7685
-90.8531
145.133
-116.506
102.948
-52.067
-76.0428
-33.7909
-34.2897
-35.9322
-33.9221
-32.4568
-36.8251
-96.445
176.379
-83.8131
170.816
-59.0384
-51.9817
-36.5118
-33.4372
-36.19
-32.477
-34.6666
-39.74
-116.518
103.231
-90.9368
145.388
-52.0189
-75.9698
-35.6898
-33.2763
-33.4249
-33.7033
-32.2084
-36.6118
-83.851
171.924
-96.4923
176.544
-59.0534
-51.9884
-36.1006
-31.849
-36.1068
-32.7176
-34.4323
-39.6977
-37.8959
-42.5093
-31.9858
-34.2719
-32.8661
-33.0683
-41.4572
-36.1944
-46.8699
-36.3959
-29.2769
-29.8938
-27.8377
-24.3044
-29.7347
-31.2962
-36.0064
-5.51438
-36.8423
-38.825
-40.5569
-64.9117
12.3742
-57.9319
-47.6703
-50.1118
-33.4381
-33.1147
-35.6544
-47.3129
-54.7985
-54.6628
-37.8755
-42.5788
-41.4554
-36.1851
-31.9916
-34.2565
-32.843
-33.0804
-46.7649
-36.3515
-29.7231
-31.2731
-29.2558
-29.8816
-27.8217
-24.2948
-35.9944
-5.50944
12.377
-58.1946
-36.8361
-38.8175
-40.545
-64.8874
-47.6249
-50.0495
-54.8027
-54.6695
-33.4201
-33.0862
-35.6387
-47.3008
-57.715
-61.4599
167.294
191.84
-84.3021
-84.2923
115.446
115.494
-53.3949
-46.2251
-65.7383
-54.6076
-32.7855
-34.5099
-32.2562
-32.0004
-38.9695
-39.0684
-31.2551
-30.831
-43.6469
-40.5321
-36.4205
-38.4738
-51.2641
-51.3253
191.158
191.219
-39.7663
-46.1254
-36.0304
-10.7127
-38.9009
-38.9386
-30.8921
-31.3034
-36.8095
-44.6694
-45.3984
-41.4582
-57.7665
-61.4947
191.935
167.303
-53.3755
-46.1949
-65.7337
-54.3917
-34.2443
-32.526
-31.5589
-31.2806
-43.5402
-40.3
-36.3766
-38.3609
-46.1349
-39.774
-10.7135
-36.0159
-44.5865
-36.6492
-41.479
-45.4092
-32.0716
-30.7216
-31.9657
-30.3471
-37.4933
-35.5457
-33.4951
-36.4727
-48.2702
-48.2534
-34.4641
-34.4612
-30.4531
-33.0129
-47.2652
-46.6727
-31.9301
-31.9295
-34.5406
-34.536
-35.123
-37.2471
-72.0287
-57.3552
1.01591
1.01536
-103.68
-103.64
-60.3971
-60.3986
-45.8024
-45.7857
-32.0647
-30.707
-31.9549
-30.3404
-35.5067
-37.4847
-33.4929
-36.4628
-32.9948
-30.4353
-47.1698
-46.6089
-37.2333
-35.1071
-57.3444
-72.0146
-87.5565
-54.2376
-51.7266
-95.2189
-32.4714
-33.4296
-45.1021
-47.2699
-40.1537
-37.8571
-42.2024
-35.0443
-93.0854
-100.323
-48.2978
-45.1622
-87.5924
-95.3184
-51.7177
-54.2172
-93.121
-45.1708
-48.3023
-100.382
-40.1493
-35.0378
-42.2329
-37.8613
-32.4448
-47.2429
-45.0706
-33.415
-105.78
-119.026
-67.6955
-61.3886
-105.64
-61.351
-67.6931
-119.044
-38.4915
-42.6571
-58.0809
-50.3645
-38.5189
-50.3478
-58.0957
-42.6575
-83.4359
-36.2465
-38.7492
-77.9986
-6.93355
11.7286
-9.30141
-15.3563
-6.95814
-15.3536
-9.30411
11.7306
-83.5338
-78.0186
-38.6832
-36.2444
73.7423
155.524
163.66
118.26
162.632
176.857
196.466
176.017
163.65
176.109
196.518
174.931
74.4713
118.351
163.218
156.527
-32.637
-31.3565
-32.8938
-33.8068
-27.4297
-28.7739
-31.4507
-30.1525
-35.0196
-36.5457
-33.9045
-32.0078
-41.3863
-36.7177
-35.6456
-39.1383
-32.6441
-33.8144
-32.8852
-31.3497
-41.3771
-39.1242
-35.632
-36.7119
-35.0027
-31.989
-33.8886
-36.5298
-27.4145
-30.1408
-31.4341
-28.7553
-35.3
-36.4247
-32.6181
-31.6202
-35.2847
-31.6097
-32.6139
-36.42
-29.2088
-30.9369
-31.2733
-30.2032
-29.2247
-30.2194
-31.2759
-30.9422
-75.2782
-57.2416
-83.1462
-27.3728
-47.1388
-58.9615
-64.7701
-49.0141
-47.1386
-48.9968
-64.7714
-58.9652
-75.2696
-27.4356
-83.153
-57.2215
-19.1506
-42.4579
-43.9665
-27.0975
-33.392
-34.2836
-38.2068
-43.5487
-36.1562
-36.5264
-37.284
-36.8154
-36.4532
-30.8741
-43.893
-44.9057
-19.2164
-27.1128
-43.86
-42.4506
-36.4304
-44.8405
-43.7996
-30.8456
-35.7636
-36.3929
-37.1251
-36.3802
-33.0371
-43.2177
-38.0123
-33.9108
-29.1295
-32.741
-35.7128
-37.9654
-29.0951
-37.8989
-35.6967
-32.7322
-36.3127
-35.7061
-37.2794
-39.761
-36.6274
-40.1026
-37.3176
-35.8678
-52.9612
-46.5754
-44.7438
-51.654
-37.4072
-36.1907
-41.5295
-42.1281
-37.2017
-42.1363
-41.5598
-36.121
-52.9535
-51.6691
-44.757
-46.5854
-36.1534
-32.1611
-30.4873
-33.9129
-35.4588
-33.3155
-29.9067
-31.7468
-33.2684
-31.5152
-30.6827
-32.577
-34.0003
-33.2801
-31.13
-31.8306
-83.1477
-141.674
-132.096
-44.4219
-41.5254
-35.3125
-105.007
-34.4356
-119.875
-42.088
-38.3771
-39.5223
-140.26
-81.1185
-132.01
-40.87
-44.2096
-34.8961
-34.5163
-105.068
-120.387
-37.6844
-41.3816
-39.0909
-33.5241
-34.2543
-32.1444
-36.2208
-18.9787
-26.1823
-22.7536
-27.4867
-46.6695
-43.6035
-45.6742
-68.4171
-38.6399
-36.1031
-37.4232
-44.6398
-33.514
-36.217
-34.2546
-32.1461
-19.0264
-27.4663
-26.166
-22.7518
-46.6655
-68.1881
-43.5972
-45.665
-38.6159
-44.6491
-36.0836
-37.4083
-25.433
-41.1151
-144.365
150.898
-53.1389
-53.7845
-164.259
70.9673
-52.63
-48.4239
-48.5783
-52.8054
-42.332
-40.2861
-40.1228
-34.626
-33.8205
-33.6495
-34.7255
-32.5253
-40.3886
-38.9334
-40.1112
-39.216
-29.6252
-29.749
-89.9125
111.912
-40.1646
-35.408
-38.4888
-29.7836
-33.5575
-33.5293
-35.3018
-32.8052
-40.7253
-45.1739
-41.8078
-45.0641
-25.7454
-41.0892
-144.479
153.057
-52.579
-48.3581
-48.5362
-52.7434
-41.6488
-39.594
-39.5775
-34
-40.2319
-38.8266
-39.9755
-39.1076
-40.1695
-35.4093
-38.4914
-29.7803
-40.6848
-45.1623
-41.735
-45.0733
-30.5873
-29.9503
-30.3204
-30.6033
-34.0226
-35.3635
-34.2558
-34.8829
-39.123
-39.1212
-40.9217
-37.6772
-26.7018
-29.8626
-29.411
-27.2198
-31.932
-31.9293
-31.4356
-32.2518
-41.2608
-39.3917
-38.6659
-47.094
20.118
20.1146
18.1061
8.94532
-60.3116
-60.3159
-59.7559
-56.1198
-30.5778
-29.9346
-30.3118
-30.5932
-34.0281
-35.3623
-34.2548
-34.884
-26.677
-29.8386
-29.3907
-27.1923
-41.2457
-39.3761
-38.6509
-47.0756
-45.1913
-43.1617
-41.9581
-41.5167
-45.1884
-43.1559
-41.9558
-41.5139
-58.0382
-61.0472
-61.0479
-65.4193
-34.6033
-22.0706
-22.089
-14.0874
203.085
194.01
195.008
204.141
-32.6318
-33.7227
-32.9813
-34.0843
-32.617
-33.7086
-32.9653
-34.0687
-31.533
-32.103
-31.1451
-31.5306
-74.3112
-80.2956
-70.2855
-74.3141
-39.924
-40.4924
-40.8158
-41.9934
-39.6593
-40.3583
-40.6865
-41.8823
-36.7851
-36.5243
-36.5069
-35.7601
-42.5365
-43.448
-43.4599
-44.13
-29.8806
-28.829
-31.0167
-29.5704
-105.006
-101.598
-138.593
97.565
-154.359
-50.6129
-159.795
49.5089
-70.9243
-62.4387
-54.2684
-71.4693
-40.2495
-40.7519
-35.9253
-35.3765
-37.426
-34.9956
-35.5221
-35.2715
-33.4316
-37.0955
-33.0596
-36.0333
-66.5604
-58.3655
-163.871
160.546
-40.9152
-36.7312
-114.071
57.9139
-68.0855
-49.0589
-57.7523
-52.3841
-40.4984
-40.105
-41.0741
-34.6459
-34.2337
-33.3087
-34.9634
-32.9686
-39.2051
-38.9642
-35.3399
-41.1526
-155.137
-50.9097
-160.366
49.496
-104.936
-102.16
-138.69
97.8694
-70.9145
-62.3833
-54.1405
-71.3729
-36.8043
-34.5347
-35.153
-34.6701
-39.5828
-40.2174
-35.4836
-34.7598
-33.156
-36.8939
-32.8178
-35.8127
-41.1479
-36.894
-114.134
58.7295
-66.6556
-58.3555
-163.925
160.632
-68.1278
-49.0416
-57.7734
-52.4027
-33.6812
-33.0871
-34.7826
-32.4458
-39.79
-39.408
-40.5147
-33.9562
-39.0018
-38.8615
-35.1341
-41.091
-35.1668
-44.6253
-38.8191
-41.1408
-32.8958
-31.5465
-31.8328
-33.6689
-32.6672
-33.2031
-32.7301
-33.0477
-38.2339
-38.6531
-39.7109
-37.2313
-36.5848
-40.0587
-45.4474
-34.3687
-28.3224
-29.3095
-28.8738
-29.4891
-22.4088
-24.1954
-26.0591
-17.8409
-28.8093
-30.0943
-29.5702
-27.5806
-38.6775
-33.0136
-36.3584
-16.7577
-40.019
-37.3419
-37.954
-38.8843
-44.3821
-42.6486
-41.818
-53.9964
-1.03517
21.1114
19.0448
-1.51361
-45.8505
-48.7837
-48.7406
-55.0159
-33.8757
-31.892
-33.1229
-32.2588
-37.3946
-38.105
-36.5242
-43.5196
-52.065
-61.5661
-55.7391
-60.8753
-35.1724
-44.5966
-38.8058
-41.1702
-38.2142
-38.6464
-39.7105
-37.2267
-32.8932
-31.5392
-31.8336
-33.6524
-32.6797
-33.2207
-32.7302
-33.0633
-36.5075
-39.9806
-45.3463
-34.3112
-28.7912
-30.0828
-29.5569
-27.5591
-28.3044
-29.293
-28.8583
-29.4724
-22.4137
-24.2011
-26.048
-17.867
-38.6768
-33.0076
-36.3477
-16.7481
-0.998217
21.0991
19.0216
-1.53686
-40.0141
-37.3372
-37.9495
-38.8778
-44.3709
-42.6351
-41.8062
-53.9802
-45.8474
-48.7445
-48.7023
-55.0016
-52.0841
-61.5792
-55.7495
-60.9018
-33.8525
-31.8696
-33.1032
-32.2335
-37.3809
-38.0902
-36.5092
-43.5109
-75.3459
-53.933
-59.3642
-61.4224
197.44
205.361
192.954
190.114
-93.7764
-78.9013
-84.2099
-84.187
111.443
146.297
117.486
117.514
-45.7832
-44.6871
-48.0893
-44.3598
-55.6423
-55.2697
-58.9864
-57.2465
-35.0577
-34.9228
-33.5644
-34.8153
-32.4276
-30.9254
-31.5973
-32.1925
-36.9397
-37.4553
-38.3278
-38.3871
-30.3982
-30.725
-30.7573
-30.4795
-41.0082
-40.5926
-41.3765
-44.1502
-38.115
-36.8006
-36.8278
-37.7237
-55.065
-50.5765
-44.2927
-44.5822
186.002
195.403
191.593
191.664
-38.7456
-40.4629
-38.2515
-42.0311
-23.7147
-22.6948
-29.1554
-16.8178
-37.604
-40.2713
-38.9213
-38.9486
-31.266
-30.5314
-30.8748
-31.0844
-41.545
-41.3599
-40.1715
-42.6853
-43.9477
-43.7197
-44.7089
-42.672
-75.4034
-53.9487
-59.4055
-61.4582
197.782
204.828
190.226
191.159
-45.7624
-44.6741
-48.0758
-44.3384
-55.5053
-55.3021
-58.9874
-57.0404
-34.7259
-34.7083
-34.5493
-33.301
-31.6874
-30.2023
-30.7979
-31.5121
-40.8714
-40.4558
-41.2534
-44.0396
-38.028
-36.7556
-36.7719
-37.6353
-38.7466
-40.4636
-42.0319
-38.2548
-23.7118
-22.6976
-16.818
-29.1486
-41.4549
-41.2567
-42.6004
-40.0461
-43.96
-43.7373
-42.6907
-44.7205
-31.1573
-31.8668
-31.7511
-31.0886
-30.6191
-30.6796
-31.1163
-28.5314
-34.2977
-40.2969
-37.2631
-36.0081
-34.9035
-34.4304
-33.9552
-35.6098
-44.8897
-56.1741
-48.5846
-48.5782
-35.4062
-33.5636
-34.4588
-34.4572
-31.0503
-32.1357
-30.9036
-32.3702
-39.2524
-45.4261
-47.0855
-47.0473
-31.5362
-31.7454
-31.9397
-31.9282
-33.5595
-34.9025
-34.3063
-34.3021
-36.898
-35.4271
-35.6348
-36.6852
-57.1647
-69.3259
-67.0946
-60.4809
6.06956
-3.8059
1.01628
1.01551
-90.8666
-90.6412
-104.088
-104.054
-60.5278
-63.9196
-61.5269
-61.5281
-47.0857
-44.4231
-45.4929
-45.5016
-31.1421
-31.8546
-31.7405
-31.0753
-30.6131
-30.6702
-31.107
-28.5304
-34.2908
-40.2375
-35.9617
-37.2339
-34.8995
-34.4203
-33.9505
-35.601
-31.0313
-32.1174
-32.3518
-30.8847
-39.2016
-45.3347
-46.995
-46.9746
-36.8829
-35.4118
-36.6703
-35.6202
-57.2085
-69.3288
-60.4675
-67.102
-68.5083
-53.0842
-56.5818
-56.2824
-37.7888
-33.7715
-44.7728
-37.8115
-35.6147
-35.5105
-37.908
-35.4622
-73.6158
-59.6826
-61.051
-51.5051
-68.616
-53.1413
-56.6305
-56.2876
-73.6539
-59.7004
-61.0821
-51.5289
-35.5996
-35.5016
-37.8976
-35.434
-37.7681
-33.7532
-44.7432
-37.7971
-95.0738
-79.7373
-83.6836
-73.0668
-95.0629
-79.6853
-83.6699
-73.0549
-44.9925
-42.9747
-52.0834
-47.9017
-44.8711
-42.9432
-52.0796
-47.8725
-65.883
-52.5065
-54.441
-44.3447
-1.56156
6.24231
-5.12074
0.975054
-1.56031
6.22842
-5.12116
0.97502
-65.8984
-52.5064
-54.4252
-44.3267
161.844
100.427
149.01
114.023
184.471
183.18
191.312
189.194
183.286
184.676
189.398
191.396
100.77
162.089
114.146
149.121
-32.3495
-32.9181
-32.3771
-33.1316
-29.5466
-28.9753
-30.2896
-30.1451
-33.7928
-34.8872
-33.596
-34.6424
-38.6241
-39.3555
-37.3497
-37.7804
-32.3537
-32.9262
-32.3756
-33.1336
-38.615
-39.3439
-37.3393
-37.7681
-33.7753
-34.8705
-33.5779
-34.6248
-29.5264
-28.9572
-30.2731
-30.1289
-35.6183
-35.4132
-34.2894
-34.4967
-35.4031
-35.6051
-34.4902
-34.2921
-31.6603
-30.3816
-32.0433
-31.1633
-30.392
-31.6695
-31.1722
-32.0469
-79.2968
-97.3874
-80.1626
-102.788
-50.816
-54.1894
-56.1331
-58.2866
-54.1705
-50.7965
-58.2868
-56.1038
-99.2144
-79.1965
-102.728
-80.1378
-47.5864
-38.5568
-45.0823
-47.4349
-32.7263
-32.4251
-32.4157
-34.9672
-35.1739
-34.8241
-34.6388
-34.8965
-47.6264
-41.625
-45.939
-46.6302
-47.484
-38.5126
-44.9791
-47.335
-47.5745
-41.5959
-45.8587
-46.5766
-34.8597
-34.5811
-34.379
-34.6966
-32.4288
-32.1755
-32.1635
-34.7335
-36.0518
-34.4326
-35.8647
-34.8215
-36.0136
-34.4095
-35.8299
-34.8064
-38.1703
-37.7244
-40.1653
-38.2644
-38.3794
-37.9274
-40.2982
-38.4068
-47.7111
-49.0932
-45.7226
-46.2013
-37.548
-39.1235
-38.8707
-40.2332
-37.5231
-39.1046
-38.8973
-40.252
-47.7285
-49.1172
-45.735
-46.2137
-33.4391
-32.8871
-32.723
-31.6226
-32.2352
-32.8223
-31.0488
-32.1033
-31.6442
-31.9672
-31.0388
-31.2007
-32.703
-32.3034
-31.9326
-31.6272
-142.356
34.0708
-140.747
-0.669626
-87.0872
-98.8547
-33.6394
-38.2313
-37.9597
-38.1396
-33.4782
-35.5901
-151.6
158.149
-116.117
99.9535
-89.4331
-81.2288
-40.1162
-35.4255
-36.447
-34.9409
-36.3515
-39.1375
-141.271
-1.73699
-142.458
34.7929
-87.1009
-98.6643
-37.5352
-37.4632
-33.224
-37.5668
-33.1289
-35.2627
-116.192
99.4705
-151.761
157.881
-89.4693
-81.2795
-36.0911
-34.2253
-39.5738
-34.701
-35.9782
-38.8942
-32.8308
-37.2391
-32.7307
-35.2332
-32.3082
-32.5757
-36.4157
-37.0373
-26.3263
-29.7301
-27.1942
-28.6725
-25.6425
-14.3175
-28.7237
-28.2306
-42.6162
-40.3147
-41.4034
-41.6633
-42.8842
-58.2391
-22.7674
-90.3271
-38.5938
-49.7903
-34.9075
-34.8729
-35.9982
-43.3757
-47.713
-50.5389
-32.8142
-37.239
-36.4088
-37.021
-32.738
-35.2299
-32.304
-32.5853
-26.3203
-29.6924
-28.7048
-28.202
-27.1781
-28.6531
-25.6351
-14.3663
-42.6127
-40.2967
-22.8955
-90.2679
-41.3996
-41.6553
-42.8746
-58.226
-38.5696
-49.7962
-47.7217
-50.5615
-34.8892
-34.8501
-35.9827
-43.3777
-149.776
98.5165
-168.573
157.541
-97.4405
-100.72
183.109
172.739
-160.872
68.6218
-161.017
68.3723
-117.887
-117.831
103.616
103.557
-53.9316
-59.1296
-47.5534
-48.3775
-49.1518
-45.1738
-56.1224
-53.7604
-37.6531
-35.244
-40.7439
-34.2878
-35.5924
-37.0832
-33.3081
-33.4992
-34.8695
-33.2697
-34.6427
-32.8883
-35.735
-35.8256
-31.2444
-30.992
-44.853
-42.004
-41.0884
-38.8069
-41.1136
-47.6664
-37.8671
-39.0108
-97.8452
79.5502
-97.9977
79.214
-75.8761
-75.9142
176.348
177.899
-44.9159
-38.2903
-36.684
-23.1534
-37.2835
-41.3915
-30.3324
-20.3494
-35.0153
-32.539
-34.9911
-32.3334
-36.2033
-36.2172
-31.5639
-31.7165
-37.6104
-43.1467
-45.0155
-48.6395
-39.6277
-42.7889
-45.3902
-43.2564
-149.788
98.1235
-168.602
157.598
-97.5358
-100.785
172.874
183.49
-53.9062
-59.0833
-47.5339
-48.3399
-49.1308
-45.139
-56.0662
-53.66
-37.2082
-34.6634
-40.1739
-33.6231
-36.6567
-35.1948
-32.6665
-32.8265
-44.6154
-41.832
-40.8506
-38.731
-40.9314
-47.5185
-37.7887
-38.8974
-44.9247
-38.2867
-36.6873
-23.1493
-41.3975
-37.2872
-20.3471
-30.3289
-37.4646
-43.1442
-44.9634
-48.6535
-42.7306
-39.5123
-43.2689
-45.401
-30.9811
-31.6508
-29.7309
-30.0734
-31.0616
-30.4736
-30.9827
-30.3044
-33.3542
-33.7601
-35.7238
-36.649
-33.8018
-34.4337
-34.2509
-35.7928
-40.7188
-37.5822
-40.7172
-37.5778
-42.9577
-42.9591
-36.4585
-36.4562
-27.3313
-23.3444
-31.4597
-29.9306
-29.3643
-31.242
-27.7145
-30.1117
-31.0958
-32.0277
-31.0912
-32.0243
-31.1737
-31.1764
-32.703
-32.6988
-40.2318
-50.2228
-37.4485
-44.8263
-37.1327
-38.3926
-54.5414
-50.462
19.3545
9.38585
19.4088
9.40468
11.2559
11.2578
-27.1471
-27.2242
-59.5582
-57.0887
-59.5639
-57.0971
-59.6275
-59.6297
-51.1195
-51.1121
-30.9766
-31.6383
-29.7172
-30.0546
-31.0497
-30.4627
-30.9717
-30.2888
-33.3564
-33.7717
-35.7196
-36.6452
-34.4273
-33.7923
-34.254
-35.7891
-27.3132
-23.2724
-31.4392
-29.9064
-31.2228
-29.3451
-27.731
-30.0862
-40.2176
-50.204
-37.4333
-44.8112
-38.3777
-37.1176
-50.4424
-54.5227
-50.299
-48.9879
-46.8006
-43.1159
-40.4308
-43.9927
-43.9344
-42.522
-50.2963
-48.989
-46.7932
-43.1055
-43.9929
-40.3778
-42.5531
-43.9297
-68.1289
-68.1185
-61.6908
-57.3075
-61.6854
-57.3204
-58.5823
-58.5882
-43.1213
-42.8677
-30.6264
-15.3766
-15.382
-30.6344
-9.01454
-9.01634
189.686
194.081
162.735
162.761