# vtk DataFile Version 2.0
tet_velo
ASCII
DATASET UNSTRUCTURED_GRID
POINTS 29498 float
-0.599407 0.105 -2.135
-0.824001 0.105 2.075
-0.635 0.439842 -2.125
-0.652055 0.955 2.135
0.599397 0.105 -2.135
0.824001 0.105 2.075
0.635 0.439842 -2.125
0.652055 0.955 2.135
-0.672141 0.107131 -0.731667
-0.732041 0.122095 0.671667
-0.833328 0.804205 -0.705
-0.783755 0.920666 0.715
0.671378 0.107887 -0.731667
0.73211 0.122023 0.671667
0.833328 0.804204 -0.705
0.783755 0.920666 0.715
-1.33415 -0.319862 -3.27881
-1.3318 -0.205652 -2.14947
-1.38906 -0.19805 -0.746565
-1.43806 -0.23264 0.652983
-1.48696 -0.254871 2.0556
-1.5087 -0.23237 3.18356
-1.51805 -0.1845 4.31408
-1.33064 -0.057102 -3.26782
-1.33494 0.0959492 -2.13666
-1.41724 0.146406 -0.73051
-1.45563 0.146627 0.674135
-1.4952 0.136044 2.07996
-1.52058 0.159387 3.20815
-1.531 0.20508 4.33813
-1.35058 0.411584 -3.25051
-1.38433 0.559791 -2.12004
-1.52826 0.822506 -0.702531
-1.49836 0.928218 0.716157
-1.41803 0.961123 2.13334
-1.48538 0.978778 3.26085
-1.53174 1.01041 4.38814
-1.38756 1.36117 -3.21202
-1.41718 1.53655 -2.07905
-1.4866 1.81533 -0.656142
-1.5192 2.02614 0.770362
-1.5141 2.13184 2.1931
-1.52361 2.1747 3.3257
-1.54623 2.20734 4.45481
-0.647696 -0.31716 -3.27773
-0.626228 -0.197139 -2.1479
-0.666935 -0.215741 -0.746776
-0.705044 -0.254058 0.650876
-0.754287 -0.281127 2.05192
-0.779212 -0.253055 3.18106
-0.7887 -0.199558 4.31263
-0.642514 -0.0679951 -3.26749
-0.808292 0.141002 3.20609
-0.807785 0.191532 4.33704
-0.652119 0.357652 -3.25257
-0.77632 0.970753 3.26118
-0.815316 1.00265 4.38821
-0.66394 1.3239 -3.21406
-0.676839 1.5014 -2.0813
-0.737744 1.80346 -0.657495
-0.781402 2.0291 0.770524
-0.789361 2.13581 2.19426
-0.802142 2.1764 3.32686
-0.824133 2.20713 4.45565
0.660536 -0.317052 -3.27773
0.651415 -0.196967 -2.1479
0.69885 -0.215239 -0.746776
0.758159 -0.253999 0.650876
0.810207 -0.281122 2.05192
0.741379 -0.253036 3.18106
0.696575 -0.199524 4.31263
0.646146 -0.0679348 -3.26749
0.706353 0.141014 3.20609
0.670138 0.19156 4.33704
0.668078 0.357688 -3.25257
0.642666 0.970764 3.26118
0.633425 1.00268 4.38821
0.759608 1.32397 -3.21406
0.77935 1.50146 -2.0813
0.770501 1.80353 -0.657495
0.717309 2.02915 0.770524
0.666899 2.13585 2.19426
0.642125 2.17644 3.32686
0.623775 2.20717 4.45565
1.3408 -0.319609 -3.27881
1.33938 -0.205274 -2.14947
1.40789 -0.197355 -0.746565
1.48097 -0.232421 0.652983
1.52922 -0.25483 2.0556
1.48661 -0.232315 3.18356
1.44057 -0.184422 4.31408
1.32616 -0.0569236 -3.26782
1.32167 0.0961819 -2.13666
1.41245 0.147139 -0.73051
1.46901 0.146787 0.674135
1.50618 0.13605 2.07996
1.45701 0.159423 3.20815
1.41524 0.205145 4.33813
1.3585 0.4117 -3.25051
1.3781 0.559875 -2.12004
1.52178 0.822766 -0.702531
1.49772 0.928343 0.716157
1.40774 0.961134 2.13334
1.38543 0.978813 3.26085
1.37139 1.01047 4.38814
1.46818 1.36133 -3.21202
1.49547 1.53671 -2.07905
1.50829 1.81548 -0.656142
1.46422 2.02627 0.770361
1.4051 2.13194 2.1931
1.37411 2.17479 3.3257
1.3546 2.20743 4.45481
-0.617671 0.272421 -2.13047
-5.00679e-06 0.101707 -2.13829
-0.636287 0.105553 -1.43333
-0.817788 0.53 2.18476
0 0.147356 2.03264
-0.766191 0.125378 1.37333
0 0.540115 -2.22527
-0.81055 0.698409 -1.415
0 0.959534 2.13953
-0.720314 0.940242 1.425
0.617607 0.272421 -2.13041
0.636274 0.105557 -1.43333
0.817792 0.53 2.18476
0.765922 0.125645 1.37333
0.810662 0.698521 -1.415
0.720303 0.940231 1.425
-0.700943 0.115761 -0.03
-0.865784 0.455668 -0.718333
-0.000381421 0.102538 -0.731667
-0.874485 0.521381 0.693333
3.43225e-05 0.103206 0.671667
-0.828859 0.882752 0.005
-3.58248e-07 0.907168 -0.705
0 1.21889 0.715
0.700799 0.1159 -0.03
0.865794 0.456046 -0.718333
0.874481 0.521345 0.693333
0.82886 0.882753 0.005
-0.798578 0.364044 -1.42417
-0.874423 0.488524 -0.0125
-0.89745 0.52569 1.39917
-0.000193214 0.10314 -1.43333
-0.000173549 0.104543 -0.03
1.71613e-05 0.106065 1.37333
-2.5034e-06 0.272421 -2.29841
0 0.53 2.31789
-1.79124e-07 0.778762 -1.415
-1.79124e-07 1.20224 0.005
0 1.10554 1.425
0.798615 0.364233 -1.42417
0.874424 0.488695 -0.0125
0.89745 0.525672 1.39917
-0.967174 0.100475 -2.13583
-0.612818 -0.0460695 -2.14145
-0.620961 0.0185025 -2.70124
-1.1596 0.120522 2.07748
-0.789144 -0.0880636 2.06346
-0.816146 0.123001 2.64055
-1.00966 0.499816 -2.12252
-0.64356 0.398747 -2.68879
-0.65592 0.970619 -2.10315
-1.03504 0.958062 2.13417
-0.714187 0.962876 2.69809
-0.720708 1.5454 2.16463
0.625406 -0.0459836 -2.14145
0.622771 0.0185326 -2.70124
0.960535 0.100591 -2.13583
0.817104 -0.0880612 2.06346
0.765177 0.123007 2.64055
1.16509 0.120525 2.07748
0.651539 0.398765 -2.68879
0.707175 0.970652 -2.10315
1.00655 0.499859 -2.12252
0.64736 0.962882 2.69809
0.659477 1.54542 2.16463
1.0299 0.958067 2.13417
-1.04469 0.126769 -0.731088
-0.669538 -0.054305 -0.739221
-1.09383 0.134361 0.672901
-0.718543 -0.0659814 0.661271
-1.1808 0.813355 -0.703766
-0.785536 1.30383 -0.681248
-1.14106 0.924442 0.715579
-0.782579 1.47488 0.742762
0.685114 -0.053676 -0.739221
1.04191 0.127513 -0.731088
0.745134 -0.0659881 0.661271
1.10056 0.134405 0.672901
0.801914 1.30387 -0.681248
1.17756 0.813485 -0.703766
0.750532 1.47491 0.742762
1.14074 0.924504 0.715578
-1.33297 -0.262757 -2.71414
-1.33239 -0.188482 -3.27331
-0.990923 -0.318511 -3.27827
-1.36043 -0.201851 -1.44802
-1.33337 -0.0548512 -2.14306
-0.979013 -0.201395 -2.14868
-1.41356 -0.215345 -0.0467911
-1.40315 -0.0258219 -0.738538
-1.028 -0.206896 -0.74667
-1.46251 -0.243756 1.35429
-1.44684 -0.0430069 0.663559
-1.07155 -0.243349 0.65193
-1.49783 -0.243621 2.61958
-1.49108 -0.0594137 2.06778
-1.12062 -0.267999 2.05376
-1.51337 -0.208435 3.74882
-1.51464 -0.0364915 3.19586
-1.14396 -0.242712 3.18231
-1.52452 0.0102897 4.3261
-1.15337 -0.192029 4.31336
-1.33279 0.0194236 -2.70224
-1.34061 0.177241 -3.25917
-0.986576 -0.0625485 -3.26765
-1.37609 0.121178 -1.43358
-1.35963 0.32787 -2.12835
-1.43643 0.146517 -0.0281872
-1.47275 0.484456 -0.716521
-1.47541 0.141335 1.37705
-1.47699 0.537422 0.695146
-1.50789 0.147715 2.64406
-1.45661 0.548584 2.10665
-1.52579 0.182233 3.77314
-1.50298 0.569082 3.2345
-1.16444 0.150194 3.20712
-1.53137 0.607743 4.36313
-1.16939 0.198306 4.33758
-1.36745 0.485688 -2.68528
-1.36907 0.886376 -3.23127
-1.00135 0.384618 -3.25154
-1.4563 0.691148 -1.41129
-1.40076 1.04817 -2.09955
-1.51331 0.875362 0.00681271
-1.50743 1.31892 -0.679337
-1.45819 0.944671 1.42475
-1.50878 1.47718 0.743259
-1.4517 0.969951 2.6971
-1.46606 1.54648 2.16322
-1.50856 0.994593 3.82449
-1.5045 1.57674 3.29328
-1.13085 0.974766 3.26101
-1.53898 1.60887 4.42147
-1.17353 1.00653 4.38817
-1.40237 1.44886 -2.64554
-1.02575 1.34253 -3.21304
-1.45189 1.67594 -1.3676
-1.04701 1.51897 -2.08018
-1.5029 1.92073 0.05711
-1.11217 1.8094 -0.656818
-1.51665 2.07899 1.48173
-1.1503 2.02762 0.770443
-1.51885 2.15327 2.7594
-1.15173 2.13383 2.19368
-1.53492 2.19102 3.89026
-1.16288 2.17555 3.32628
-1.18518 2.20723 4.45523
-0.636962 -0.25715 -2.71282
-0.645105 -0.192578 -3.27261
0.00642023 -0.317106 -3.27773
-0.646582 -0.20644 -1.44734
0.0125936 -0.197053 -2.1479
-0.68599 -0.2349 -0.0479498
0.0159571 -0.21549 -0.746776
-0.729666 -0.267593 1.3514
0.0265574 -0.254029 0.650876
-0.76675 -0.267091 2.61649
0.0279602 -0.281125 2.05192
-0.783956 -0.226307 3.74685
-0.793752 -0.0560264 3.19358
-0.0189168 -0.253046 3.18106
-0.798242 -0.00401276 4.32484
-0.0460627 -0.199541 4.31263
-0.647317 0.144829 -3.26003
0.00181578 -0.0679649 -3.26749
-0.808038 0.166267 3.77157
-0.792306 0.555878 3.23364
-0.0509694 0.141008 3.20609
-0.81155 0.597091 4.36262
-0.068823 0.191546 4.33704
-0.65803 0.840775 -3.23332
0.0079797 0.35767 -3.25257
-0.795818 0.986701 3.82469
-0.789231 1.57358 3.29402
-0.066827 0.970759 3.26118
-0.819724 1.60489 4.42193
-0.0909455 1.00266 4.38821
-0.67039 1.41265 -2.64768
0.0478339 1.32393 -3.21406
-0.707292 1.65243 -1.3694
0.0512553 1.50143 -2.0813
-0.759573 1.91628 0.0565144
0.0163786 1.8035 -0.657495
-0.785381 2.08245 1.48239
-0.0320467 2.02913 0.770524
-0.795751 2.1561 2.76056
-0.0612308 2.13583 2.19426
-0.813137 2.19176 3.89126
-0.0800085 2.17642 3.32686
-0.100179 2.20715 4.45565
0.655976 -0.257009 -2.71282
0.653341 -0.192493 -3.27261
1.00067 -0.31833 -3.27827
0.675133 -0.206103 -1.44734
0.995398 -0.201121 -2.14868
0.728504 -0.234619 -0.0479498
1.05337 -0.206297 -0.74667
0.784183 -0.267561 1.3514
1.11957 -0.24321 0.65193
0.775793 -0.267079 2.61649
1.16971 -0.267976 2.05376
0.718977 -0.22628 3.74685
0.723866 -0.056011 3.19358
1.11399 -0.242675 3.18231
0.683357 -0.00398209 4.32484
1.06857 -0.191973 4.31336
0.657112 0.144877 -3.26003
0.986152 -0.0624292 -3.26765
0.688246 0.166287 3.77157
0.674509 0.555889 3.23364
1.08168 0.150218 3.20712
0.651782 0.597118 4.36262
1.04269 0.198353 4.33758
0.713843 0.840829 -3.23332
1.01329 0.384694 -3.25154
0.638045 0.98672 3.82469
0.642395 1.5736 3.29402
1.01405 0.974789 3.26101
0.6286 1.60492 4.42193
1.00241 1.00657 4.38817
0.769479 1.41272 -2.64768
1.1139 1.34265 -3.21304
0.774926 1.6525 -1.3694
1.13741 1.51908 -2.08018
0.743905 1.91634 0.0565143
1.13939 1.80951 -0.656819
0.692104 2.0825 1.48239
1.09077 2.02771 0.770443
0.654512 2.15614 2.76056
1.036 2.13389 2.19368
0.63295 2.1918 3.89126
1.00812 2.17561 3.32628
0.989186 2.2073 4.45523
1.34009 -0.262442 -2.71414
1.33348 -0.188266 -3.27331
1.37364 -0.201315 -1.44802
1.33053 -0.0545463 -2.14306
1.44443 -0.214888 -0.0467911
1.41017 -0.0251082 -0.738538
1.50509 -0.243626 1.35429
1.47499 -0.0428173 0.663559
1.50791 -0.243573 2.61958
1.5177 -0.0593904 2.06778
1.46359 -0.208368 3.74882
1.47181 -0.0364461 3.19586
1.42791 0.0103616 4.32611
1.32392 0.0196291 -2.70224
1.34233 0.177388 -3.25916
1.36706 0.12166 -1.43358
1.34989 0.328028 -2.12835
1.44073 0.146963 -0.0281873
1.46712 0.484952 -0.716521
1.4876 0.141418 1.37705
1.48337 0.537565 0.695146
1.4816 0.147736 2.64406
1.45696 0.548592 2.10665
1.43613 0.182284 3.77314
1.42122 0.569118 3.2345
1.39332 0.607807 4.36313
1.3683 0.485788 -2.68528
1.41334 0.886513 -3.23127
1.44994 0.691321 -1.41129
1.43679 1.04829 -2.09955
1.50975 0.875554 0.00681262
[...]
POINT_DATA 29498
VECTORS point_vectors float
-2.70365 -3.7937 6.15538
0.010286 0.687574 4.27191
-2.72523 0.599089 3.42051
0.103309 -0.153747 0.906425
2.70342 -3.78922 6.14623
-0.0335934 0.70335 4.26006
2.69759 0.587417 3.3825
-0.0964355 -0.163111 0.915504
-0.0036385 -0.000103994 0.0809481
0 0 0
-0.167471 -0.183536 1.23442
0 0 0
0.00279376 -0.000129823 0.0628241
0 0 0
0.167245 -0.183426 1.23408
0 0 0
-0.467006 -0.247433 19.7984
-1.18735 -0.792757 20.2692
-0.604113 -0.641594 21.2676
-0.0887444 -0.16664 21.4411
0.401704 0.22504 21.4413
0.685058 0.363976 21.1068
0.590468 0.115847 20.6389
-0.552695 -0.194087 19.7167
-1.69772 -0.701973 20.1387
-0.940268 -0.684826 21.3458
-0.165782 -0.224199 21.5468
0.577686 0.15555 21.5101
0.924585 0.218644 21.06
0.838807 0.0497688 20.9928
-0.623718 -0.0217821 19.6319
-1.89118 0.0195752 19.9918
-1.40593 -0.147105 21.2387
-0.337605 -0.177854 21.7098
0.717773 -0.351396 21.5242
0.997043 -0.389816 21.2617
0.728616 -0.296928 20.8318
-0.458007 0.283628 19.7945
-0.912557 0.65741 20.1198
-0.890291 0.560851 20.9681
-0.291545 0.0922868 21.4039
0.145336 -0.266148 21.2883
0.282073 -0.325056 21.0429
0.280724 -0.356324 20.7468
-0.399304 -0.480807 19.4463
-1.48827 -3.16326 20.5221
0.09352 -0.642044 21.1204
0.0620992 -0.0742874 20.9913
0.232299 0.660437 21.1367
0.508238 1.0816 21.0676
0.517509 0.882023 20.5951
-0.4972 -0.434621 19.1944
0.811577 1.60463 12.193
1.27212 0.664539 14.0333
-0.606645 -0.033849 18.9019
1.94901 -0.662939 13.7026
1.24595 -0.606212 17.0642
-0.390852 0.550438 19.424
-0.943155 1.62176 19.72
-1.05707 1.61029 20.923
-0.299437 0.334287 21.761
0.0890431 -0.405634 21.4045
0.199232 -0.515122 21.0939
0.159126 -0.441529 20.5298
0.397969 -0.475149 19.4593
1.55792 -3.08409 20.493
-0.087401 -0.686516 21.2603
-0.083505 -0.101414 21.21
-0.261477 0.646026 21.2204
-0.467044 1.11593 20.8817
-0.276711 1.12759 19.5869
0.500792 -0.430264 19.2007
-0.439613 1.63695 10.9053
-1.00854 0.922797 12.5769
0.614334 -0.0321684 18.9164
-1.62216 -0.789627 9.90915
-1.33941 -0.689568 14.0212
0.438193 0.509163 19.478
1.01248 1.47863 19.7816
1.06961 1.55505 20.9296
0.29824 0.364726 21.7838
-0.0594606 -0.411894 21.4314
-0.169092 -0.597938 21.0161
-0.0846142 -0.486806 20.5073
0.464226 -0.244082 19.8009
1.17751 -0.782478 20.2758
0.605466 -0.62417 21.2632
0.0754478 -0.144677 21.4347
-0.415327 0.215884 21.4195
-0.711279 0.356475 21.0937
-0.634457 0.244784 20.5672
0.553267 -0.194872 19.7171
1.74233 -0.730159 20.1261
0.947617 -0.689386 21.3508
0.166971 -0.220623 21.5404
-0.576941 0.149308 21.5134
-1.01964 0.241133 21.229
-0.927986 0.226278 20.916
0.624207 -0.022989 19.637
1.91074 0.0206866 19.9857
1.42102 -0.147819 21.239
0.335542 -0.180456 21.713
-0.733668 -0.366863 21.5349
-1.02421 -0.465828 21.3024
-0.983057 -0.428104 20.8358
0.449616 0.270806 19.832
0.878846 0.584604 20.1433
0.87876 0.539653 20.9693
0.298841 0.0992688 21.4264
-0.138118 -0.295576 21.2775
-0.253004 -0.399285 20.9949
-0.228439 -0.374438 20.7048
-2.56062 -0.859272 3.74981
2.96941e-06 -0.00214402 0.0338057
-0.0248579 0.00276092 0.280963
0.087409 -0.0167812 0.475021
0.000145874 0.00141333 0.0059668
0 0 0
-0.00677308 1.37716 1.92747
-0.71563 -0.168113 2.77898
0.0029034 0.00710698 -0.0364928
0 0 0
2.56661 -0.860622 3.75551
0.0249161 0.00277537 0.281155
-0.0908274 -0.0238711 0.485468
0 0 0
0.719028 -0.172113 2.80456
0 0 0
0 0 0
-0.00257233 -0.00156954 0.0384499
1.63938e-08 -1.79589e-06 0.0033942
3.38825e-05 0.004567 0.0206112
8.68408e-07 2.29065e-05 0.00165914
0.0229549 0.103459 0.618927
0 0 0
4.87415e-06 -0.000687655 0.0113342
0 0 0
0.00256292 -0.00152945 0.0382272
-3.35744e-05 0.00456285 0.0206294
-0.0229858 0.103529 0.618678
-0.00892367 -0.00655029 0.0905004
4.56266e-05 0.00288203 0.0211838
1.05333e-06 0.000207964 0.00153847
-1.62144e-08 1.16074e-08 -8.91514e-05
0 0 0
2.42351e-07 7.11881e-07 0.00016614
0 0 0
0 0 0
1.94052e-06 0.00320177 0.0141583
1.97389e-06 0.0189106 0.0849606
-0.000152286 -0.000811322 0.0052403
0.00896477 -0.00655827 0.09107
-4.60241e-05 0.00291154 0.0213921
-1.02519e-06 0.000204424 0.00152017
-3.02916 -1.77913 19.8672
-2.56028 -5.10753 20.8054
-1.53556 -1.40417 18.1782
0.827029 0.606681 20.3745
0.029154 0.911254 16.6017
0.218934 1.06047 9.51307
-3.59486 0.0619246 19.4081
-2.06587 -0.0400177 17.3708
-2.37043 2.8251 18.8896
1.34051 -0.220809 18.5173
1.04158 -0.179749 8.42983
0.148222 -0.830875 21.405
2.60885 -4.9624 20.6958
1.54133 -1.39726 18.1744
3.0866 -1.82167 19.8595
-0.0714406 0.93808 17.1346
0.0657591 1.00237 8.22788
-0.836073 0.598699 20.4614
2.06832 -0.0471656 17.405
2.44347 2.57817 18.9757
3.62384 0.0695847 19.4021
-0.742684 -0.26991 6.19368
-0.17994 -0.832004 20.8661
-1.36039 -0.21871 18.4254
-0.932488 -1.32305 20.954
0.0267454 -0.244061 14.9839
-0.117161 -0.066833 19.0901
-0.257965 0.0903692 14.2925
-2.27432 -0.415685 21.4808
-2.64903 2.23555 20.7287
-0.330037 -0.308291 20.9129
-0.741359 0.259565 22.2724
-0.0548688 -0.279642 15.3341
0.93298 -1.32394 20.9178
0.256816 0.0856976 14.5418
0.118379 -0.0849899 19.2911
2.65335 2.15325 20.7589
2.28923 -0.421349 21.4786
0.747523 0.303448 22.2465
0.330698 -0.310335 20.9208
-0.83121 -0.504168 19.8672
-0.518355 -0.233453 19.7581
-0.47929 -0.362601 19.6354
-0.999993 -0.846379 20.9477
-1.47635 -0.786292 20.2059
-1.59844 -1.64619 20.2404
-0.296219 -0.376262 21.3923
-0.775165 -0.689102 21.3047
-0.376568 -0.930769 21.477
0.106298 0.0138628 21.4949
-0.133698 -0.212014 21.4795
-0.0061712 -0.22717 21.5105
0.572843 0.327086 21.2698
0.467434 0.207164 21.4582
0.408984 0.421374 21.546
0.762961 0.291562 20.9658
0.792228 0.296323 20.9279
0.726772 0.70356 20.9238
0.714637 0.0828079 20.8159
0.720315 0.656659 20.4954
-1.07576 -0.410386 19.711
-0.610573 -0.12087 19.651
-0.589819 -0.309467 19.4809
-1.47014 -0.827133 20.9718
-1.87763 -0.402306 20.0535
-0.475834 -0.452665 21.4911
-1.24587 -0.479102 21.3236
0.103007 -0.0253263 21.6103
-0.238594 -0.227279 21.6792
0.796857 0.220424 21.2571
0.772083 -0.0546393 21.5421
0.880335 0.128887 21.3486
1.10654 -0.0651528 21.0842
1.26484 0.583581 20.8696
1.01219 -0.146612 21.0024
1.0312 0.579641 19.8828
-1.2033 -0.00363736 19.5961
-0.582759 0.187499 19.6833
-0.695608 -0.0384764 19.3097
-1.83694 -0.0516819 20.7811
-1.4588 0.564162 20.0079
-0.900252 -0.214853 21.5754
-1.31574 0.36636 21.0689
0.209248 -0.192671 21.728
-0.390849 -0.00824152 21.6087
0.879241 -0.417561 21.2526
0.33137 -0.396215 21.3834
0.881626 -0.419731 20.8123
0.511481 -0.449554 20.9532
1.36699 -0.630786 20.7844
0.433141 -0.422342 20.7269
1.14358 -0.60964 20.7198
-0.693581 0.475314 19.884
-0.459473 0.410501 19.6197
-0.976391 0.6715 20.5676
-1.04303 1.07703 19.9406
-0.635493 0.335143 21.3237
-1.08883 0.986984 20.9759
-0.0173431 -0.12182 21.3709
-0.335536 0.188153 21.5579
0.234154 -0.328232 21.1509
0.125979 -0.34752 21.3391
0.339115 -0.366914 20.8287
0.248604 -0.487296 20.9879
0.240654 -0.436795 20.7116
-0.991277 -1.37863 19.0989
-0.453132 -0.482392 19.2955
0.0107597 -0.63178 19.2337
-0.230022 -1.41561 21.7787
0.0154317 -3.69702 21.5047
0.0658578 -0.258651 20.9374
-0.00196708 -0.380617 20.4597
0.11452 0.0907687 21.0726
0.0058209 -0.0460581 20.5399
0.310902 0.927033 20.9218
0.00792196 0.559404 20.4184
0.780109 1.26193 20.1219
0.532505 1.39991 16.8002
0.0290137 0.956344 19.9643
0.908848 0.755564 17.3038
0.00778689 1.45356 15.8054
-0.568232 -0.310718 19.0293
0.000691414 -0.565354 18.8792
1.21576 1.17882 13.1168
1.68669 0.549187 8.9576
-0.136948 0.382589 2.75418
1.82659 0.17276 12.8811
0.265602 1.23293 9.02965
-0.525991 0.395057 19.0631
0.0108449 -0.0912283 18.4874
1.55795 -0.944068 15.1841
0.590665 -1.02867 20.4568
0.318513 -0.407564 0.88989
0.347415 -0.845166 20.5807
0.214748 -1.72888 7.27163
-0.700669 1.07873 19.3769
0.0310082 0.678843 19.2525
-1.04535 1.70616 20.3387
0.094725 2.17318 19.5091
-0.797853 1.11212 21.6317
0.02851 2.39152 20.8247
-0.0251419 -0.161033 21.6164
-0.0218949 0.565698 21.934
0.165278 -0.506733 21.2631
0.0112562 -0.423888 21.4664
0.185838 -0.648866 20.6283
0.0193695 -0.719844 21.0369
-0.0133471 -0.651347 20.4937
0.997854 -1.35648 19.128
0.456714 -0.474776 19.3212
0.471026 -0.357613 19.6406
0.264339 -1.4401 21.738
1.57576 -1.58107 20.2498
-0.0634212 -0.295469 21.0294
0.417225 -0.915639 21.455
-0.131857 0.0800306 21.2069
0.0184042 -0.226434 21.5107
-0.334535 0.945765 20.9131
-0.41542 0.393077 21.563
-0.649416 1.29206 19.3023
-0.265777 1.45564 15.9303
-0.740066 0.736997 20.885
-0.642625 1.02519 16.0819
-0.661932 0.718389 20.6192
0.574236 -0.308648 19.027
0.594515 -0.308651 19.4737
-0.992352 1.32365 11.854
-1.17191 0.324594 5.65049
-1.24089 0.833995 18.7795
-2.11198 0.221073 8.77892
-1.12492 0.614879 17.8352
0.559102 0.36916 19.1198
0.696637 -0.0368389 19.3205
-1.71349 -1.21275 12.0604
-0.367355 -1.11671 20.8069
-1.6558 -0.67289 19.3381
-0.290842 -0.931387 20.7182
-1.22931 -0.759011 20.0005
0.737994 0.995324 19.4501
0.466918 0.384332 19.66
1.09039 1.59798 20.3618
1.02382 0.965425 19.9928
0.793889 1.13102 21.6383
1.08347 0.945247 20.9818
0.03962 -0.153749 21.6313
0.343122 0.212267 21.5737
-0.120858 -0.527005 21.2501
-0.113705 -0.372167 21.3714
-0.159776 -0.676933 20.7942
-0.234324 -0.527662 21.0261
-0.204052 -0.437014 20.6188
0.824744 -0.501738 19.8719
0.514665 -0.2313 19.7633
0.990373 -0.827882 20.9445
1.48072 -0.791622 20.2082
0.298346 -0.355928 21.3843
0.77805 -0.682311 21.3024
-0.123521 0.0207685 21.477
0.138066 -0.208634 21.4675
-0.58483 0.317929 21.2609
-0.467428 0.197009 21.4523
-0.776786 0.333413 20.9788
-0.83318 0.323963 20.9594
-0.781222 0.235531 20.7416
1.08714 -0.417988 19.7073
0.613126 -0.12268 19.6519
1.48369 -0.839929 20.9786
1.90122 -0.414701 20.0464
0.479054 -0.449514 21.4902
1.25643 -0.488157 21.3263
-0.101691 -0.0254663 21.6083
0.238766 -0.227663 21.6733
-0.828436 0.249648 21.2481
-0.78081 -0.055295 21.5486
-1.139 0.186716 20.8196
-1.18757 -0.0891545 21.2048
-1.26541 -0.157271 20.9942
1.20367 -0.00438894 19.5968
0.57893 0.179867 19.7055
1.84835 -0.0487138 20.7823
1.40202 0.522075 20.0328
0.905628 -0.218624 21.5781
1.30687 0.356674 21.0667
-0.214489 -0.195597 21.7366
0.400867 -0.009012 21.6397
-0.947041 -0.46885 21.3024
-0.336966 -0.430884 21.4113
-1.05613 -0.505098 20.7158
-0.537985 -0.589693 20.968
-0.429087 -0.492319 20.4266
0.667857 0.432073 19.9262
0.950173 0.619509 20.5761
0.648139 0.347587 21.3308
0.0200468 -0.127521 21.4086
-0.226184 -0.358546 21.1637
-0.269194 -0.39711 20.7643
-0.966673 -0.473868 19.7728
-1.23227 -1.49694 18.6985
-1.00377 -0.866426 19.5678
-1.42832 -0.785094 19.1638
-0.540109 -0.332678 19.547
-2.17318 -1.81748 20.1127
-1.23602 -0.869744 20.9649
0.235595 -0.932182 17.269
-0.871213 -1.40048 21.2386
-1.87339 -1.90594 21.471
-0.556302 -1.22156 21.4944
-0.379476 -0.432509 21.4364
-0.230251 0.000309246 14.4312
-0.137163 -0.500486 21.5162
-0.310901 -0.52004 19.5504
-0.0539751 -0.255866 20.9158
0.0924656 -0.0216759 21.5271
-0.102003 0.0930364 15.0067
0.125689 -0.0116799 21.5946
-0.0388153 0.185826 19.5986
0.570929 0.512642 21.1575
0.661103 0.284296 21.2831
0.200499 1.12252 16.4085
0.604118 0.597565 21.3007
1.07619 0.65857 20.4829
1.04437 0.71039 20.6309
0.763368 0.213241 21.1137
0.678385 1.38962 17.4895
0.857787 0.794213 20.537
1.432 0.621572 19.6499
0.873251 0.700551 20.4792
-1.17561 -0.237003 19.6225
-1.94079 -0.861054 17.5943
-1.71447 -0.0193524 18.8596
-0.632391 -0.207059 19.3752
-3.70253 -0.921916 19.5942
-1.77695 -0.506843 20.8894
-3.05835 -0.0740069 21.0105
-1.59739 -0.96217 21.1988
-0.689799 -0.412553 21.5834
-1.37088 -0.65099 21.776
-0.0628377 0.00959742 19.0419
0.186847 -0.0722136 21.7191
0.661397 0.151438 19.586
1.25808 0.48344 17.8166
0.964916 -0.0912684 21.2466
0.170253 0.534697 3.66562
1.3586 -0.55156 20.2507
1.72885 0.172499 19.1949
1.06907 -0.0905228 21.3847
1.97769 0.461144 11.414
1.39942 -0.660778 20.623
1.55819 0.055154 18.8715
-1.01964 0.363227 19.7022
-1.33056 1.20662 18.4585
-0.759674 0.740769 19.6543
-0.604608 0.28372 19.403
-2.05095 1.23268 19.6069
-1.51518 0.534387 20.6061
-2.33675 2.44937 20.2976
-1.14376 1.13446 20.4755
-1.98274 0.829013 21.0877
-0.92169 0.162483 21.4822
-2.38627 1.58239 22.3616
-0.775841 0.644472 21.4419
-0.551435 0.0467248 21.9498
0.0507444 -0.211387 21.5663
-0.0326706 -0.512287 21.8015
-0.0452967 -0.145969 21.4792
0.330695 -0.624714 21.5202
0.454428 -0.473228 21.2567
0.279378 -0.981642 21.4343
0.199218 -0.433702 21.1881
0.520855 -0.786527 21.2007
0.503031 -0.504354 20.9326
0.386769 -1.08342 20.4004
0.229106 -0.386045 20.6987
0.408931 -0.610695 20.4766
1.23972 -1.48059 18.7289
0.0219389 -2.14355 18.6649
0.000264238 -2.46333 16.8104
0.00979032 -0.625276 19.0547
-0.00729737 -4.35995 22.3764
-0.229678 -1.01855 17.5264
-0.00424638 -0.992752 21.7814
0.00273185 -0.0938349 12.6457
0.234939 -0.00460878 14.7061
0.00182123 -0.175598 20.4226
0.00492377 0.0257713 12.1464
0.120854 0.098745 15.4558
0.00730187 0.122939 20.455
0.0386678 0.591881 12.8131
-0.170836 1.17478 16.2779
0.0297189 0.616614 20.1144
-0.0417113 -0.797763 1.1757
0.0593049 0.769084 12.3803
-0.494681 1.48228 16.488
0.0294814 0.978915 18.3792
-0.0991189 0.458094 3.35709
0.116872 1.54607 11.9748
1.9475 -0.856955 17.6064
0.0174387 0.360656 15.1307
0.00501208 -0.384142 18.6213
0.105779 0.499578 2.06973
0.00694782 0.301106 0.769387
0.146926 -1.47852 -5.2606
-2.1532 0.54755 7.16185
0.487482 -1.62502 4.64775
0.234647 -1.20321 2.13459
1.33754 1.12058 18.5743
0.0656808 1.43787 19.1046
0.0260629 0.514104 18.7782
0.111169 4.27669 18.5094
2.37207 2.3091 20.3283
0.056791 2.3251 20.1754
0.0311424 4.27602 20.1023
2.39785 1.63225 22.3782
-0.0121668 1.75855 21.8386
-0.0199767 0.858652 22.6399
0.042852 -0.525194 21.7197
-0.00423922 -0.122974 21.6688
-0.00277591 -0.602073 20.8106
-0.2313 -0.984384 20.9989
0.0282096 -0.560793 21.2906
0.0424135 -1.07918 20.3086
-0.31765 -1.10948 20.6404
0.0100713 -0.604969 20.3842
0.0521162 -0.909637 20.4489
0.966207 -0.47606 19.7774
0.995311 -0.855759 19.5913
1.4361 -0.786141 19.1509
0.539175 -0.334741 19.5476
2.16549 -1.79198 20.1129
1.2342 -0.864769 20.9666
0.897386 -1.36326 21.2177
1.87707 -1.9182 21.4796
0.585988 -1.20377 21.5183
0.386104 -0.424603 21.4221
0.159302 -0.495197 21.5113
0.31467 -0.522701 19.6006
0.0606774 -0.272543 21.1731
-0.0930102 -0.0133189 21.5205
-0.117872 -0.0135885 21.6008
0.0299412 0.174826 19.7622
-0.583537 0.475022 21.3195
-0.678971 0.296076 21.2856
-0.614095 0.601609 21.3003
-1.10023 0.784834 19.6644
-1.1036 0.894054 20.2723
-0.89928 0.271533 20.9259
-0.871278 0.858282 20.4815
-1.40597 0.847607 18.982
-0.856743 0.900281 20.324
1.18406 -0.239037 19.6185
1.70945 -0.017367 18.8737
0.636413 -0.20575 19.3742
3.76987 -0.934233 19.5898
1.80281 -0.511266 20.8936
3.07741 -0.0752934 21.0175
1.59883 -0.967025 21.1748
0.68919 -0.411667 21.5843
1.37247 -0.65649 21.7687
0.0670604 -0.00500686 19.1514
-0.187314 -0.0752773 21.7223
-0.670056 0.163072 19.5314
-1.27372 0.475673 17.8533
-1.03194 -0.0874796 21.1876
-1.44463 -0.477202 18.7895
-2.05892 0.336984 17.1885
-1.30749 -0.173724 20.9011
-1.59165 -0.766024 19.7654
-1.67793 0.0905918 16.4638
0.989095 0.33519 19.7356
0.748718 0.674308 19.7259
0.608978 0.276052 19.4437
1.99859 1.1279 19.6637
1.48099 0.507957 20.6069
1.13392 1.05454 20.4939
1.95696 0.805058 21.0918
0.932752 0.167435 21.4908
0.784433 0.66238 21.4549
0.568009 0.0551446 21.9796
-0.0566833 -0.230765 21.5936
0.0440847 -0.153785 21.5036
-0.298014 -0.670958 21.5623
-0.468839 -0.555213 21.21
-0.183108 -0.475056 21.233
-0.495225 -0.865915 21.3862
-0.546137 -0.550296 21.0391
-0.206687 -0.466793 20.7284
-0.367624 -0.728313 20.5257
-1.20752 -0.880229 19.3544
-1.21488 -1.70942 21.3551
-0.200319 -0.609795 21.0876
0.050997 -0.019284 21.0351
0.809053 0.669967 20.8762
1.12758 0.810151 20.0857
-1.6771 -0.463552 18.951
-2.74628 -1.12045 21.3172
-0.556281 -0.633361 20.208
0.244592 0.544987 18.5656
1.46906 0.286586 19.092
1.77655 0.101637 19.0303
-1.26064 0.693203 19.2206
-2.10087 1.15027 20.523
-1.47109 0.464573 21.81
0.0591409 -0.345223 21.8019
0.456989 -0.735551 21.2841
0.573571 -0.74245 20.7617
0.0154539 -2.42584 17.9106
0.0014433 -0.32729 14.5139
0.00581338 -0.0227416 12.2467
0.00707712 0.0998908 12.5095
0.0465445 0.280445 12.5885
0.0447799 1.30662 12.1122
0.00895343 -1.31998 15.5073
-0.0920288 -0.558603 -3.83093
0.414269 -2.13433 -3.53355
0.0772753 1.93663 17.6755
0.0598022 3.85378 19.9798
-0.0127214 3.74349 22.5467
-0.0113574 -0.253143 21.5278
-0.00264828 -0.795597 20.2827
0.03422 -1.00503 19.8889
1.20148 -0.874482 19.3629
1.22849 -1.67874 21.3368
0.221264 -0.619519 21.273
-0.0576106 -0.0224253 21.1896
-0.816258 0.715634 20.7396
-1.09482 1.07153 19.9359
1.67907 -0.461446 18.949
2.75585 -1.12935 21.3229
0.556709 -0.634589 20.2196
-0.24707 0.531947 18.6494
-1.48735 0.38252 17.2709
-1.97767 0.254599 17.529
1.23662 0.642708 19.3028
2.05872 1.0724 20.5351
1.49866 0.478419 21.8238
-0.0447246 -0.365134 21.8412
-0.438743 -0.798023 21.3177
-0.532613 -0.936048 20.5495
-0.839693 -0.425919 1.56023
-0.00208881 -0.00574644 0.0448629
0.0733365 -0.0743939 0.426236
0.105299 0.00755963 0.293151
-0.0472876 0.0783313 0.396718
-0.0247929 0.0145126 0.461613
-2.2339 -0.191291 3.02808
-0.481693 1.15133 1.45915
-0.101575 -0.00118497 0.255194
-0.0224048 0.015688 0.00173733
-0.00889284 -0.00687187 0.0124943
0.00574288 -0.0010096 0.0568743
0.00215886 -0.00567704 0.044302
0.823192 -0.418839 1.54071
-0.0795746 -0.080147 0.457041
0.0517968 0.0707104 0.372055
-0.108372 0.00708985 0.299237
0.0263364 0.0135294 0.490088
0.502757 1.21267 1.53315
2.24827 -0.194838 3.04787
0.101686 -0.00104802 0.255049
0.0157031 -0.00812823 0.0150526
0.0223891 0.0122783 0.00296652
-0.00537056 -0.00126298 0.0567776
0.000463628 -0.00114794 0.122828
0 0 0
-0.00367495 -0.00174553 0.0503824
0 0 0
-0.000395507 -0.00152083 0.165556
0 0 0
-0.000167071 0.0017774 0.013734
-0.000415252 -0.000109853 0.0673189
-0.0417821 -0.0212102 0.160579
-0.00375716 -0.00374728 0.0501642
-0.113937 -0.0662772 1.39398
0 0 0
0 0 0
2.77393e-05 0.000171323 0.000664203
0.116761 0.186787 0.951453
0.00247853 -0.000980785 0.01648
-0.000426772 -0.00111107 0.11881
0 0 0
0 0 0
0.003765 -0.00175521 0.0513571
0.000550326 -0.00145504 0.166849
0.000471957 -0.00010868 0.0655411
0 0 0
0.000167846 0.00178827 0.0138231
0.041981 -0.0213114 0.161147
0 0 0
0.00380876 -0.00377748 0.0508787
0.113779 -0.0660107 1.39648
0 0 0
-0.00247058 -0.000981194 0.0164782
-3.60123e-05 0.000222625 0.000864714
-0.116731 0.186402 0.950894
-0.149525 -0.135182 0.446975
0 0 0
6.33187e-08 6.2827e-07 0.000194325
0 0 0
0 0 0
0 0 0
0.0927553 0.0141197 0.434648
-0.0307826 0.01595 -0.0128348
6.47471e-07 1.24429e-06 0.000166609
0.00120591 -0.00969338 -0.0031033
-1.10195e-05 0.000284806 0.00234617
0.00043831 0.000602218 0.155427
0.00183201 1.16591 0.763589
2.46366e-05 0.0423579 0.14583
-1.71715e-17 -7.00567e-19 1.73458e-16
-0.00191217 0.00386212 0.0164316
0 0 0
0 0 0
0.0767762 0.237093 1.07873
0.000345987 -0.00053773 0.0020962
0 0 0
0.152541 -0.137791 0.454148
0 0 0
0 0 0
0.0289387 0.0130416 -0.011455
-0.0967437 0.0145874 0.463182
-8.08457e-05 0.000482724 0.153399
9.96877e-06 0.000256778 0.00212273
0.00196395 0.00397573 0.0169067
0 0 0
-0.000323958 -0.000538419 0.00209504
-0.077441 0.236095 1.08028
-0.000298317 0.0019098 0.0287986
-0.000473523 1.41058e-05 0.013668
0 0 0
-6.09883e-05 0.000730903 0.0187547
5.55282e-09 2.5267e-07 7.60918e-05
6.71085e-09 5.96288e-09 3.00696e-05
7.78769e-05 0.00771639 0.041707
0 0 0
2.31032e-09 2.04913e-08 7.88866e-06
-8.58562e-09 -2.40456e-08 -1.17322e-05
0.000388424 0.00422014 0.0277272
-0.0220346 0.0388072 0.19275
-1.24128e-07 0.00961266 0.050488
2.14561e-06 0.0464647 0.112519
4.70313e-06 0.00150758 0.0490348
1.55485e-05 -0.00198789 0.0151702
0.000436761 1.30388e-05 0.0124496
0.000296256 0.00189863 0.0285736
0 0 0
5.95935e-05 0.000707712 0.0182439
-7.73995e-05 0.00769549 0.0416192
0 0 0
0.0220907 0.0388578 0.193004
-0.000389436 0.00422261 0.0277493
0 0 0
-0.180288 -0.0722104 0.38747
-0.0322105 -0.0260576 0.176778
-0.20517 -0.0402123 1.90809
-0.000225864 0.000598556 0.0216656
-9.22623e-05 0.000429587 0.0170961
-0.000247407 0.00188382 0.0173171
0.00133671 0.0123136 0.0543286
0 0 0
0 0 0
0.0177294 0.0366144 0.32077
0 0 0
0 0 0
0 0 0