# vtk DataFile Version 2.0
tri_press
ASCII
DATASET UNSTRUCTURED_GRID
POINTS 3682 float
-0.742358 0.115 -2.165
-0.692316 0.215 2.095
-0.730429 0.705 -2.025
-0.695 0.965 2.17198
0.742347 0.115 -2.165
0.692318 0.215 2.095
0.730425 0.705 -2.025
0.695 0.965 2.17198
-0.747137 0.126874 -0.745
-0.7606 0.130064 0.675
-0.840876 0.913923 -0.626007
-0.821707 0.993231 0.772987
0.747129 0.126875 -0.745
0.760594 0.130067 0.675
0.840878 0.913928 -0.626007
0.821704 0.993229 0.772987
-1.53166 -0.328601 -3.35065
-1.52554 -0.25821 -2.22307
-1.52802 -0.245907 -0.802524
-1.51586 -0.252447 0.622247
-1.46459 -0.201248 2.04315
-1.45254 -0.15982 3.17248
-1.45979 -0.123614 4.29858
-1.52886 0.0182747 -3.28821
-1.52794 0.110088 -2.16291
-1.54233 0.147312 -0.746458
-1.52248 0.146711 0.671889
-1.44138 0.19194 2.08875
-1.43712 0.231994 3.21778
-1.45283 0.268385 4.34457
-1.5262 0.680956 -3.15741
-1.53617 0.77037 -2.03125
-1.60594 0.924669 -0.629118
-1.57288 0.981729 0.771529
-1.45862 0.975592 2.17407
-1.4485 1.01245 3.30397
-1.46269 1.05463 4.43414
-1.52872 1.80559 -2.97702
-1.53978 1.90956 -1.85401
-1.57297 2.06796 -0.458682
-1.58359 2.17499 0.932115
-1.55651 2.21196 2.32766
-1.53137 2.2327 3.45113
-1.51775 2.26249 4.57901
-0.76623 -0.327107 -3.35201
-0.75361 -0.253508 -2.22504
-0.753093 -0.255844 -0.802258
-0.759836 -0.264178 0.624903
-0.729244 -0.191929 2.04779
-0.717955 -0.154242 3.17563
-0.721284 -0.122394 4.3004
-0.763074 0.0124178 -3.28862
-0.703459 0.238102 3.22038
-0.715408 0.269239 4.34594
-0.756494 0.651794 -3.15482
-0.710491 1.00923 3.30355
-0.72301 1.05242 4.43405
-0.747863 1.78617 -2.97445
-0.75052 1.8916 -1.85118
-0.782315 2.06375 -0.456976
-0.808031 2.17908 0.93191
-0.799695 2.21261 2.3262
-0.780195 2.23092 3.44967
-0.76735 2.26047 4.57795
0.746022 -0.327106 -3.35201
0.748735 -0.253507 -2.22504
0.755171 -0.255843 -0.802259
0.750353 -0.264176 0.624903
0.706975 -0.191928 2.04779
0.724314 -0.154241 3.17563
0.741471 -0.122393 4.3004
0.741536 0.0124184 -3.28862
0.722079 0.238102 3.22038
0.740845 0.26924 4.34594
0.747731 0.651794 -3.15482
0.721263 1.00923 3.30355
0.737957 1.05242 4.43405
0.802516 1.78617 -2.97445
0.815603 1.89161 -1.85118
0.80807 2.06375 -0.456976
0.765333 2.17908 0.93191
0.725842 2.21261 2.3262
0.722975 2.23092 3.44967
0.73111 2.26047 4.57795
1.51122 -0.328599 -3.35065
1.51652 -0.258208 -2.22307
1.52712 -0.245904 -0.802524
1.51457 -0.252443 0.622247
1.46147 -0.201246 2.04315
1.46362 -0.159819 3.17248
1.48075 -0.123612 4.29858
1.50865 0.0182766 -3.28821
1.5196 0.11009 -2.16291
1.54022 0.147315 -0.746458
1.52796 0.146715 0.671889
1.45228 0.191942 2.08875
1.45729 0.231995 3.21778
1.47785 0.268386 4.34457
1.52002 0.680958 -3.15741
1.53583 0.770373 -2.03125
1.60651 0.924674 -0.629118
1.57547 0.981729 0.771529
1.46432 0.975593 2.17407
1.45987 1.01245 3.30397
1.47735 1.05463 4.43414
1.5758 1.80559 -2.97702
1.59177 1.90957 -1.85401
1.59323 2.06797 -0.458682
1.55121 2.17499 0.932115
1.49888 2.21196 2.32766
1.48363 2.2327 3.45113
1.48584 2.26249 4.57901
-0.723571 0.41 -2.08218
-5.51343e-06 0.111324 -2.16868
-0.748989 0.116696 -1.455
-0.730401 0.59 2.17023
1.01328e-06 0.211249 2.09875
-0.750916 0.148073 1.385
-1.99676e-06 0.803086 -2.12309
-0.835143 0.858952 -1.3255
0 1.04091 2.24789
-0.794737 1.0155 1.47248
0.723579 0.41 -2.08219
0.748975 0.116701 -1.455
0.730413 0.59 2.17024
0.750917 0.148073 1.385
0.835143 0.858955 -1.3255
0.794725 1.01549 1.47248
-0.753999 0.128338 -0.035
-0.882865 0.520399 -0.685504
-3.97401e-06 0.126801 -0.745
-0.885116 0.561647 0.723993
-2.86134e-06 0.128268 0.675
-0.83376 0.956046 0.0734899
1.14496e-06 1.30105 -0.626007
-1.72452e-06 1.39919 0.772987
0.753993 0.128339 -0.035
0.882862 0.520402 -0.685504
0.885119 0.561648 0.723993
0.833775 0.956062 0.0734899
-0.869796 0.465199 -1.39025
0.869796 0.465201 -1.39025
-4.74372e-06 0.113738 -1.455
-4.25899e-07 1.03724 -1.3255
-3.75509e-06 0.41 -2.24844
-0.884034 0.541023 0.019245
0.884031 0.541025 0.019245
-3.41767e-06 0.127713 -0.035
-2.89784e-07 1.42158 0.0734899
-0.894975 0.575824 1.42874
0.894975 0.575824 1.42874
-9.24028e-07 0.140413 1.385
-8.62262e-07 1.25366 1.47248
5.06639e-07 0.59 2.35476
-0.751491 0.2625 -2.14212
-0.371182 0.111319 -2.16868
-0.745802 0.115719 -1.81
-0.717067 0.4025 2.13832
-0.346157 0.209473 2.10053
-0.742438 0.160715 1.74
-0.7599 0.5575 -2.08649
-0.365215 0.791464 -2.11146
-0.809899 0.809089 -1.67525
-0.715882 0.7775 2.17429
-0.3475 1.01014 2.21712
-0.74869 0.994071 1.82223
0.371171 0.111311 -2.16869
0.751503 0.2625 -2.14214
0.745792 0.11572 -1.81
0.34616 0.209507 2.10049
0.717055 0.4025 2.13831
0.74244 0.160713 1.74
0.365212 0.791407 -2.11141
0.759872 0.5575 -2.08647
0.809903 0.809097 -1.67525
0.3475 1.01015 2.21713
0.715746 0.7775 2.17415
0.748689 0.99407 1.82223
-0.752187 0.11766 -1.1
-0.750702 0.127472 -0.39
-0.86479 0.298742 -0.715252
-0.374024 0.125931 -0.745
-0.756116 0.13871 1.03
-0.757295 0.129205 0.32
-0.867636 0.323466 0.699497
-0.380591 0.128587 0.675
-0.844983 0.893411 -0.975755
-0.884111 0.728281 -0.655755
-0.836876 0.934542 -0.276258
-0.513017 1.29265 -0.626007
-0.815712 1.01185 1.12274
-0.88709 0.794278 0.74849
-0.829121 0.976026 0.423238
-0.509204 1.39291 0.772987
0.752165 0.117674 -1.1
0.374016 0.125931 -0.745
0.750693 0.127475 -0.39
0.864789 0.298742 -0.715252
0.756116 0.13871 1.03
0.380586 0.128587 0.675
0.75729 0.129206 0.32
0.867634 0.323469 0.699497
0.844982 0.893413 -0.975755
0.513017 1.29264 -0.626007
0.884107 0.728284 -0.655755
0.836884 0.934553 -0.276258
0.815813 1.01196 1.12274
0.509218 1.39294 0.772987
0.887088 0.794277 0.74849
0.829118 0.976025 0.423238
-0.854249 0.4376 -1.73621
-0.361787 0.41 -2.16683
-5.12858e-06 0.113141 -1.81184
-4.63426e-06 0.260662 -2.16719
-0.865276 0.290948 -1.42263
-0.374497 0.113597 -1.455
-0.84767 0.582912 1.79949
-0.3652 0.59 2.30433
4.46254e-08 0.159741 1.74188
7.59959e-07 0.400624 2.23386
-0.890545 0.361949 1.40687
-0.375459 0.139001 1.385
-1.21133e-06 0.915838 -1.72429
-2.87592e-06 0.606543 -2.32306
-0.868142 0.662076 -1.35788
-0.417572 1.01479 -1.3255
-4.31131e-07 1.11758 1.86018
2.5332e-07 0.815453 2.30977
-0.880649 0.795661 1.45061
-0.397369 1.21771 1.47248
0.854196 0.4376 -1.73622
0.361788 0.41 -2.16689
0.865273 0.290951 -1.42263
0.374485 0.113597 -1.455
0.847694 0.582912 1.79949
0.365207 0.59 2.30437
0.890544 0.361948 1.40687
0.375458 0.139001 1.385
0.868137 0.662078 -1.35788
0.417571 1.01479 -1.3255
0.88065 0.795656 1.45061
0.397362 1.21769 1.47248
-0.86621 0.311084 -0.0078775
-0.377415 0.127197 -0.035
-0.875948 0.492799 -1.03788
-0.883399 0.530711 -0.333129
-4.35887e-06 0.114335 -1.1
-3.69584e-06 0.127215 -0.39
-0.884559 0.551335 0.371619
-0.895418 0.568736 1.07637
-3.1395e-06 0.128212 0.32
-1.89268e-06 0.13052 1.03
-0.885647 0.761909 0.0463674
-0.531405 1.41786 0.0734899
3.59529e-07 1.16468 -0.975755
4.27586e-07 1.39077 -0.276258
-1.00715e-06 1.42241 0.423238
-1.29339e-06 1.34343 1.12274
0.866209 0.311083 -0.0078775
0.37741 0.127197 -0.035
0.875838 0.492801 -1.03788
0.883404 0.530713 -0.333129
0.884553 0.551336 0.371619
0.895418 0.568736 1.07637
0.885645 0.761915 0.0463674
0.531407 1.41786 0.0734899
-0.853204 0.276724 -1.77311
-0.869718 0.307292 -1.06894
-0.883084 0.689618 -1.00682
-0.856056 0.609788 -1.70573
0.853204 0.276725 -1.77311
0.856056 0.609789 -1.70574
0.883394 0.689621 -1.00682
0.869717 0.307295 -1.06894
-0.372839 0.113051 -1.81092
0.372828 0.113051 -1.81092
0.374024 0.114144 -1.1
-0.374034 0.114144 -1.1
-0.391394 0.923936 -1.69977
-0.419004 1.15308 -0.975755
0.419005 1.15308 -0.975755
0.391391 0.923884 -1.69977
-0.366484 0.261581 -2.16646
-0.363501 0.582021 -2.29656
0.3635 0.582021 -2.29656
0.366479 0.261581 -2.16646
-0.8655 0.304913 -0.361565
-0.866924 0.317275 0.34581
-0.885975 0.777897 0.397429
-0.88464 0.744976 -0.304694
0.865499 0.304912 -0.361565
0.884638 0.74498 -0.304694
0.885973 0.777899 0.397429
0.866923 0.317276 0.34581
-0.375751 0.126502 -0.39
0.375744 0.126502 -0.39
0.378998 0.127892 0.32
-0.379003 0.127892 0.32
-0.53886 1.38855 -0.276258
-0.525988 1.41675 0.423238
0.525988 1.41675 0.423238
0.538862 1.38855 -0.276258
-0.882018 0.353902 1.05318
-0.842718 0.382224 1.76974
-0.837697 0.786581 1.81086
-0.888441 0.78655 1.09955
0.882018 0.353903 1.05318
0.888486 0.786547 1.09955
0.837703 0.786578 1.81086
0.842666 0.382224 1.76975
-0.37788 0.13025 1.03
0.377877 0.13025 1.03
0.360809 0.156809 1.74094
-0.360808 0.156809 1.74094
-0.404112 1.3367 1.12274
-0.372434 1.11572 1.84121
0.372431 1.11573 1.84121
0.404107 1.3367 1.12274
-0.355679 0.401562 2.22773
0.355683 0.401562 2.22778
0.356353 0.796476 2.27408
-0.35635 0.796476 2.27407
-0.74701 0.18875 -2.15364
-0.55677 0.11133 -2.16867
-0.744108 0.115332 -1.9875
-0.705644 0.30875 2.11762
-0.519237 0.211983 2.09802
-0.720858 0.184376 1.9175
-0.749146 0.63125 -2.05973
-0.547822 0.770741 -2.09074
-0.774313 0.761194 -1.85013
-0.708393 0.87125 2.17609
-0.52125 0.988596 2.19558
-0.727846 0.985536 1.99711
0.556759 0.111323 -2.16868
0.747002 0.18875 -2.15365
0.744095 0.115334 -1.9875
0.519239 0.211987 2.09801
0.705636 0.30875 2.1176
0.720652 0.184584 1.9175
0.547818 0.770581 -2.09058
0.7492 0.63125 -2.05979
0.774313 0.761198 -1.85013
0.52125 0.988596 2.19558
0.70838 0.87125 2.17607
0.727849 0.98554 1.99711
-0.746034 0.125895 -0.9225
-0.749032 0.12706 -0.5675
-0.857168 0.187205 -0.730126
-0.560501 0.126562 -0.745
-0.761908 0.130837 0.8525
-0.758944 0.129638 0.4975
-0.858248 0.2047 0.687248
-0.57043 0.129656 0.675
-0.842911 0.903649 -0.800881
-0.875339 0.827525 -0.640881
-0.838902 0.924259 -0.451133
-0.716013 1.18142 -0.626007
-0.818678 1.00251 0.947861
-0.87346 0.903285 0.760738
-0.826412 0.985627 0.598113
-0.704284 1.27073 0.772987
0.746018 0.125904 -0.9225
0.560493 0.126562 -0.745
0.749026 0.12706 -0.5675
0.857167 0.187204 -0.730126
0.761904 0.130839 0.8525
0.570425 0.129657 0.675
0.758939 0.12964 0.4975
0.858245 0.204703 0.687248
0.842928 0.903669 -0.800881
0.716012 1.18142 -0.626007
0.875336 0.827527 -0.640881
0.83892 0.924279 -0.451133
0.818677 1.00251 0.947861
0.704283 1.27073 0.772987
[...]
POINT_DATA 3682
SCALARS point_scalars float 1
LOOKUP_TABLE default
-136.418
-41.5971
-45.7748
-38.4953
-136.5
-41.6429
-45.8841
-38.532
-40.871
-38.6048
-59.6338
-52.2552
-40.8604
-38.6068
-59.6236
-52.2849
-110.616
-103.593
-42.1618
-38.8058
-47.9939
-37.8313
-35.648
-113.779
-97.1477
-42.9172
-39.2556
-43.6062
-36.0591
-34.0702
64.6618
-88.4614
-54.4767
-48.3326
-42.925
-37.983
-34.7663
-21.3597
-60.2252
-80.8377
-65.9284
-39.9009
-38.4742
-38.4742
37.4217
-103.45
-41.5478
-38.3016
-42.5561
-35.1745
-30.4878
37.4217
-33.1334
-31.1324
146.533
-34.6158
-34.2147
11.9244
-28.6877
-84.1978
-66.6733
-38.2946
-36.6556
-35.3441
36.8871
-103.474
-41.566
-38.3273
-42.4568
-35.2489
-30.5554
36.8871
-33.3637
-31.8924
143.435
-34.6824
-34.264
6.38907
-30.8983
-83.9928
-66.6668
-38.3123
-36.2888
-35.5366
-107.518
-103.566
-42.1787
-38.8109
-48.0441
-40.9012
-35.7153
-113.948
-97.2149
-42.9303
-39.2623
-43.6872
-36.1104
-34.17
66.5975
-88.4746
-54.4735
-48.3458
-42.9529
-38.0215
-34.8064
-21.4459
-60.7332
-80.8231
-65.9312
-39.9196
-38.5122
-38.5122
-16.6693
-168.374
-56.363
-36.6963
-34.6795
-42.8726
-34.4664
-63.8803
-35.86
-51.3918
-15.8934
-56.3654
-36.746
-42.9335
-63.8536
-51.3964
-37.4095
-47.9396
-42.413
-42.9007
-39.4254
-54.7439
-53.2639
-68.7138
-37.41
-47.9311
-42.9093
-54.7656
-62.1107
-62.0881
-62.2108
-1.63902
200.933
-43.5091
-43.5142
-38.1222
-89.088
-50.4624
-50.4906
-41.8571
-47.0524
-28.669
-39.9509
-160.453
-82.7835
-37.4879
-36.4703
-47.437
-50.0412
-22.9248
-60.8339
-37.2086
-35.5791
-44.6598
-160.476
-40.1222
-82.7868
-36.5139
-37.5429
-47.4576
-21.0648
-52.7426
-60.8752
-35.6764
-37.2568
-44.6754
-47.5166
-38.1437
-44.6572
-41.5145
-42.8097
-37.7023
-40.1812
-39.3143
-64.4549
-52.3943
-55.3619
-51.3121
-54.2546
-45.9972
-52.0623
-67.0278
-47.5159
-41.5102
-38.1518
-44.6423
-42.8048
-39.3165
-37.7057
-40.1942
-64.4717
-51.2579
-52.3917
-55.3697
-54.2647
-67.0264
-46.0082
-52.0809
-93.6302
188.668
-89.8101
190.295
-61.5401
-60.0485
-47.2533
-32.8853
-41.4943
-26.9117
-47.9996
-42.1031
-14.0083
160.063
-62.1826
-4.71355
-40.6754
-34.2365
-50.5008
-47.3931
-93.4894
188.915
-61.5317
-60.0527
-47.2789
-32.9658
-48.0289
-42.1204
-62.1832
-4.69482
-50.5143
-47.3912
-40.9943
-37.7815
-51.5093
-44.893
-50.3532
-39.1629
-42.8991
-46.1751
-38.2876
-41.2231
-47.0444
-79.1329
-14.2316
-94.2664
-79.599
-57.1287
-40.9967
-37.7808
-51.4922
-44.8938
-42.9054
-46.1916
-47.0561
-79.1344
-95.6613
-51.4888
-55.9706
-90.2039
-95.6238
-90.1177
-55.9837
-51.4417
-86.8629
-86.8791
-49.6428
-49.6415
-21.0356
-17.3068
-17.3164
-21.0346
187.772
154.429
153.956
187.772
-42.1182
-40.5792
-46.0083
-48.64
-42.1187
-48.6476
-46.0194
-40.5841
-38.6749
-38.6725
-38.028
-38.0279
-86.0354
-71.3292
-71.3236
-86.0433
-43.6591
-48.3336
-46.5114
-49.0816
-43.6666
-49.0979
-46.5303
-48.3315
-41.2246
-41.2329
-42.7256
-42.6884
-57.9062
-40.9532
-40.9604
-57.9047
-30.4766
-30.5742
-34.6407
-34.6081
-48.5066
-174.415
-111.171
-39.1865
-38.8124
-44.2465
-47.3398
-18.7447
-50.1262
-37.9265
-36.0839
-41.6138
-174.526
-48.6505
-111.168
-38.8446
-39.2484
-44.2131
-18.6886
-47.8
-50.1746
-36.1134
-37.9718
-41.6357
-41.3716
-38.9815
-42.7724
-40.7368
-42.8515
-37.8336
-39.65
-39.3249
-62.4228
-55.8167
-57.5267
-79.9417
-51.7426
-49.8586
-52.0669
-60.5764
-41.376
-40.7304
-38.9493
-42.7556
-42.8733
-39.3296
-37.836
-39.6586
-62.4274
-79.969
-55.8147
-57.5149
-51.7678
-60.5743
-49.879
-52.0916
-32.2104
-32.6852
-126.744
132.598
-167.586
-167.625
-117.64
122.851
-66.1421
-50.7107
-59.92
-57.8189
-37.0592
-36.8243
-42.376
-33.9048
-35.1311
-35.1616
-38.4598
-26.5737
-45.0486
-41.7807
-46.5567
-42.2293
-33.5109
-33.5931
-22.9176
70.5522
-59.3208
-63.0589
-63.4251
-13.7603
-35.6699
-35.6787
-38.2561
-35.0413
-48.9754
-52.9024
-50.1659
-49.2213
-31.9697
-32.8138
-127.385
132.151
-66.1452
-50.7125
-59.9223
-57.8266
-37.1127
-36.9144
-42.405
-33.9593
-45.0183
-41.8238
-46.601
-42.2638
-59.1548
-63.0483
-63.4352
-13.8583
-48.9925
-52.905
-50.1781
-49.2224
-37.6996
-37.4226
-39.8148
-37.5011
-46.1896
-49.8415
-50.4608
-46.1608
-42.1767
-42.1741
-45.4409
-40.4169
-41.7567
-44.1812
-42.8192
-43.6405
-39.3838
-39.3841
-38.7494
-40.187
-53.4694
-53.0305
-50.2702
-63.3303
-51.3627
-51.3315
-29.2724
-78.8712
-68.3582
-68.357
-73.6837
-62.9794
-37.6997
-37.4266
-39.684
-37.5027
-46.1761
-49.8366
-50.4543
-46.1547
-41.7661
-44.19
-42.8252
-43.646
-53.5029
-53.0428
-50.2857
-63.3364
-72.3256
-62.0806
-61.8251
-56.0982
-72.2843
-62.06
-61.8146
-56.0702
-72.6846
-61.694
-61.6962
-55.2056
-5.64001
-2.29626
-2.25865
-6.55634
199.132
191.667
200.705
199.132
-42.1425
-43.9682
-43.1628
-45.0789
-42.1436
-43.9712
-43.169
-45.0875
-38.0241
-38.4477
-38.0636
-38.0233
-87.1358
-91.3566
-83.177
-87.1371
-51.0497
-49.7818
-50.7847
-47.7732
-51.038
-49.8118
-50.8041
-47.7913
-42.2114
-41.9587
-41.9652
-41.9786
-43.2063
-47.243
-47.2449
-51.8004
-30.4246
-27.2117
-33.0943
-30.5031
-108.461
105.716
-114.42
118.097
-95.0761
-84.3325
-43.0646
-33.7311
-39.9178
-31.2114
-49.6016
-44.29
-87.5861
79.8708
-26.0312
64.5914
-81.3512
-31.5568
-42.5941
-34.6565
-38.3919
-34.9005
-46.1374
-41.7759
-114.454
146.114
-108.647
105.6
-95.0679
-84.3554
-39.9696
-31.3015
-43.0973
-33.7932
-49.5344
-44.3364
-26.0039
63.0557
-87.5769
81.2574
-81.2726
-31.6032
-38.4027
-34.9188
-42.6226
-34.6962
-46.1496
-41.7867
-51.6294
-48.7977
-40.6982
-38.2621
-47.2068
-43.1791
-44.2728
-39.7676
-42.8957
-41.7456
-39.6033
-37.7905
-40.4685
-43.4616
-38.5459
-40.2921
-59.2312
-40.0437
-54.616
-50.3287
-51.9597
-68.3729
-30.3252
-80.6855
-50.3798
-59.7741
-45.9283
-47.1681
-48.9964
-59.4716
-69.4276
-62.7972
-51.6005
-48.799
-44.2699
-39.7644
-40.7272
-38.2634
-47.2028
-43.1675
-42.8659
-41.7562
-38.5465
-40.2975
-39.6115
-37.7923
-40.4733
-43.4751
-59.2402
-40.13
-30.3157
-80.6974
-54.6082
-50.3278
-51.9697
-68.3676
-50.3897
-59.7677
-69.425
-62.8002
-45.9396
-47.1791
-49.0134
-59.4589
-95.0135
-92.2597
186.719
190.302
-89.1847
-89.1933
188.688
188.8
-72.0889
-55.0317
-70.1139
-53.6645
-47.7317
-46.7305
-31.1566
-34.0079
-41.8049
-41.7845
-28.2842
-28.3406
-45.3496
-52.0655
-42.3274
-42.8515
-15.7013
-15.6979
149.365
147.626
-56.7682
-71.5208
-14.5193
-7.78926
-40.8171
-40.8199
-34.4113
-34.3898
-50.4286
-49.2677
-52.1976
-43.7451
-94.9074
-92.1429
190.552
186.69
-72.0724
-55.0251
-70.1205
-53.6662
-46.7523
-47.7536
-31.2468
-34.0732
-45.3742
-52.0751
-42.3424
-42.8754
-71.4958
-56.7318
-7.7609
-14.5283
-49.2782
-50.4469
-43.7495
-52.2001
-41.4546
-40.7152
-38.057
-37.7711
-51.182
-53.4041
-43.3912
-46.5476
-50.1644
-50.1633
-39.0224
-39.0204
-41.6473
-44.3712
-44.7675
-47.9939
-38.2188
-38.2196
-41.1155
-41.1188
-46.5452
-47.4446
-80.9342
-73.9727
-14.5872
-14.682
-92.4835
-92.4894
-76.6215
-76.6213
-57.2925
-57.2919
-41.4536
-40.7203
-38.0556
-37.7713
-53.4278
-51.1563
-43.3881
-46.551
-44.3797
-41.6519
-44.7802
-48.0128
-47.4565
-46.5557
-73.9691
-80.9235
-99.3864
-70.7264
-72.3949
-124.502
-44.9964
-48.7092
-55.761
-53.95
-58.1689
-59.4546
-55.8784
-52.2731
-70.227
-108.936
-72.0263
-71.2094
-99.4216
-124.767
-72.3612
-70.7235
-70.2777
-71.0984
-71.9871
-108.974
-58.1722
-52.2667
-55.8231
-59.4607
-45.0168
-53.9542
-55.7433
-48.6983
-112.754
-116.731
-72.115
-67.6087
-112.797
-68.182
-72.1191
-116.747
-43.0766
-45.1404
-54.8361
-52.0116
-43.079
-52.0076
-54.8354
-45.1426
-36.1295
-20.9334
-8.24196
-24.3426
-77.664
-29.0596
-6.4947
-24.4443
-77.5718
-24.3206
-6.49641
-29.0188
-36.1481
-24.3243
-8.26644
-20.953
36.3045
86.4428
190.862
136.792
58.3947
60.1262
197.722
105.486
58.662
101.642
197.808
60.0356
36.3193
136.807
190.832
88.2588
-41.4983
-40.3137
-42.6291
-44.5263
-39.5817
-41.5723
-41.8366
-39.4349
-49.048
-50.054
-44.67
-44.2136
-53.6758
-47.9641
-45.5427
-49.806
-41.4035
-44.5158
-42.6301
-40.2481
-53.6727
-49.8276
-45.5499
-47.9618
-49.0631
-44.2224
-44.6785
-50.066
-39.5901
-39.445
-41.8409
-41.5772
-39.1969
-40.2357
-38.3406
-37.7345
-39.1905
-37.7346
-38.3394
-40.2338
-38.3401
-38.6962
-37.9862
-37.5316
-38.3224
-37.5295
-37.9851
-38.6975
-74.7127
-64.6579
-89.473
-78.3488
-59.3162
-72.632
-81.3468
-60.8722
-59.3024
-60.8571
-81.3468
-72.6325
-74.7158
-78.3566
-89.4757
-64.6507
-45.2505
-44.1989
-46.7276
-42.9153
-43.829
-42.6772
-51.3215
-51.3545
-43.3263
-49.4433
-50.7407
-42.3815
-49.5683
-44.6496
-48.3037
-51.8191
-45.2943
-42.9234
-46.7478
-44.2282
-49.5888
-51.8322
-48.3199
-44.6556
-43.3552
-42.411
-50.7483
-49.4607
-43.8674
-51.4795
-51.3107
-42.7079
-40.6657
-40.1959
-42.1622
-42.2429
-40.6743
-42.2724
-42.1707
-40.198
-41.7696
-38.8341
-42.4227
-43.3857
-41.6846
-43.3824
-42.4089
-38.8131
-58.3889
-54.1714
-51.9147
-62.8978
-39.0901
-38.3414
-43.3858
-45.0455
-39.1066
-45.0513
-43.4001
-38.3454
-58.3926
-62.898
-51.9223
-54.1527
-34.6421
-28.1312
-28.4871
-33.6608
-34.7099
-33.7188
-28.5573
-28.2065
-35.0252
-34.9319
-33.4384
-34.377
-34.9904
-34.3243
-33.4053
-34.9165
-73.4541
-172.569
-144.985
-41.0377
-39.6497
-42.4354
-45.0652
-12.041
-57.6673
-38.2418
-36.8046
-39.8813
-172.542
-73.6134
-144.986
-39.6747
-41.1006
-42.4592
-11.9729
-45.3317
-57.6927
-36.8377
-38.2849
-39.9115
-41.8547
-39.459
-41.555
-40.4952
-40.943
-38.0842
-38.3565
-39.2676
-61.0984
-57.6994
-58.606
-67.6539
-51.9138
-51.4248
-52.2365
-54.8542
-41.8519
-40.4859
-39.428
-41.5542
-40.96
-39.2726
-38.0861
-38.3488
-61.0931
-67.65
-57.694
-58.5839
-51.9415
-54.8814
-51.4517
-52.2644
-24.3132
-23.599
-100.563
44.383
-168.372
-168.397
-136.622
-111.941
-60.6272
-53.2454
-58.5842
-56.7935
-36.8197
-36.8087
-40.5568
-34.423
-34.7584
-34.774
-36.6601
-28.4189
-43.0448
-42.8402
-44.9319
-42.3808
-30.4656
-30.4048
-31.7344
19.9141
-62.9068
-64.853
-65.812
-35.4563
-35.7866
-35.7928
-37.0902
-35.079
-51.1476
-51.6404
-50.5125
-51.1502
-23.6157
-23.1905
-102.32
45.0621
-60.6314
-53.2481
-58.5918
-56.7998
-36.8723
-36.8377
-40.5869
-34.4759
-43.142
-42.8952
-44.991
-42.4289
-62.8072
-64.7977
-65.8153
-35.5466
-51.1615
-51.6663
-50.5216
-51.1446
-37.4761
-37.359
-38.4455
-37.3844
-47.1066
-48.861
-49.0571
-46.988
-42.3304
-42.329
-43.7781
-41.2847
-42.4225
-43.4594
-42.832
-42.9211
-39.4163
-39.4163
-39.0296
-39.8103
-54.7706
-54.4982
-52.4919
-57.7445
-52.9497
-52.9512
-39.2459
-68.7392
-68.6296
-68.63
-71.313
-65.4268
-37.4773
-37.3631
-38.3566
-37.3856
-47.0955
-48.8549
-49.0488
-46.9802
-42.431
-43.4681
-42.8382
-42.9283
-54.7959
-54.5158
-52.5096
-57.7614
-66.052
-62.1873
-61.9246
-59.122
-66.0207
-62.1641
-61.9065
-59.1022
-66.8478
-61.713
-62.0522
-58.4232
-1.75277
-1.58433
-1.56699
-3.7945
201.847
197.738
200.821
201.887
-42.8309
-43.736
-43.2757
-44.2691
-42.8338
-43.7399
-43.2816
-44.2763
-38.0953
-38.2274
-38.0553
-38.0943
-88.6008
-91.0494
-85.472
-88.6018
-51.1564
-50.2563
-50.6151
-48.7385
-51.1951
-50.2874
-50.6385
-48.7599
-42.2475
-41.8656
-41.869
-41.9515
-44.9733
-47.0987
-47.0991
-49.2546
-29.3888
-27.1433
-31.2876
-29.4334
-59.9602
-34.3945
-120.442
75.1788
-157.359
-165.145
-133.013
-86.7029
-95.9636
-73.3716
-91.6003
-83.0597
-37.93
-37.2969
-41.0767
-34.6373
-37.5338
-35.7031
-38.3008
-32.6574
-46.3431
-46.7825
-49.9239
-45.4018
-48.1833
-35.539
-86.1685
60.1887
-19.5705
-24.8506
-36.9538
23.3455
-53.5335
-59.7607
-74.8364
-40.8059
-37.4982
-37.0776
-41.3262
-34.8726
-35.7029
-35.64
-37.0965
-34.9689
-43.0128
-46.2723
-45.6415
-43.2439
-157.473
-165.183
-133.066
-85.449
-60.1033
-34.4312
-120.527
75.0436
-95.974
-73.3744
-91.5817
-83.0744
-37.5623
-35.7437
-38.3428
-32.74
-37.9862
-37.3517
-41.1229
-34.6948
-46.451
-46.7016
-49.8314
-45.456
-19.4076
-26.375
-36.917
23.4364
-49.1972
-34.4012
-85.983
61.7404
-53.5966
-59.7253
-74.8421
-40.8749
-35.7291
-35.6511
-37.1108
-34.996
-37.5441
-37.124
-41.3597
-34.9158
-43.0241
-46.2992
-45.618
-43.2582
-44.7384
-48.5276
-49.2087
-48.3045
-38.5298
-37.8498
-39.0647
-38.124
-43.9654
-45.4043
-45.7836
-43.8235
-41.0937
-41.8975
-42.7036
-40.546
-43.6328
-40.9337
-44.2341
-41.9441
-37.6019
-37.4667
-38.488
-37.6864
-39.373
-40.9629
-40.4116
-39.7102
-39.2853
-39.3516
-38.8932
-39.7866
-64.1748
-65.0588
-61.6392
-71.8973
-54.0484
-51.0191
-53.5018
-51.3354
-56.4448
-54.4873
-53.7443
-60.9199
-65.8375
-49.9571
-38.5536
-68.3455
-53.0604
-54.1001
-52.2297
-57.5749
-47.738
-44.9782
-45.892
-46.2731
-51.925
-52.3411
-50.7596
-55.3702
-66.2376
-67.7441
-68.8593
-64.7716
-44.7404
-48.5278
-49.1945
-48.3056
-41.0886
-41.8941
-42.6994
-40.5423
-38.5214
-37.8555
-39.0939
-38.1232
-43.9425
-45.3898
-45.7751
-43.802
-43.6387
-40.9491
-44.1503
-41.9519
-39.2887
-39.3524
-38.8941
-39.7905
-37.6048
-37.4707
-38.4964
-37.689
-39.3884
-40.9739
-40.4194
-39.7255
-64.1823
-65.1015
-61.6463
-72.7434
-65.2459
-49.9484
-38.5107
-68.3813
-54.046
-51.0152
-53.4988
-51.3344
-56.437
-54.5117
-53.7518
-60.9007
-53.0859
-54.1097
-52.2439
-57.6117
-66.2383
-67.7441
-68.8548
-64.7733
-47.7521
-44.9874
-45.9033
-46.2839
-51.9442
-52.3569
-50.7822
-55.3735
-114.369
-79.9818
-94.4532
-93.2522
189.47
192.386
186.64
189.779
-102.33
-79.9821
-89.3914
-89.3949
191.968
188.375
189.614
189.553
-60.8604
-61.9474
-65.8629
-58.2503
-58.9324
-60.989
-64.4359
-56.5674
-44.7736
-49.708
-47.551
-46.9023
-33.4629
-31.5982
-32.263
-33.2736
-40.136
-42.0188
-41.5571
-41.5465
-26.7166
-26.9696
-27.2447
-27.2875
-46.9641
-49.1416
-45.7895
-49.1915
-42.1127
-42.026
-42.3933
-42.5899
-17.6823
-10.0112
-14.3767
-14.3823
110.444
193.186
150.566
150.508
-62.6104
-61.7901
-59.3173
-65.7011
-7.69349
-3.23128
-8.20394
-5.18896
-39.5389
-41.7498
-40.729
-40.7301
-34.6444
-33.7217
-34.3534
-34.3357
-50.2645
-50.7969
-50.6515
-50.1561
-47.9432
-47.2734
-49.5874
-45.4907
-113.974
-79.907
-94.3206
-93.1099
189.114
192.552
189.96
186.793
-60.8583
-61.9323
-65.8515
-58.2402
-58.9391
-60.9915
-64.4419
-56.5703
-44.8013
-49.7035
-46.9265
-47.5755
-33.5258
-31.6989
-32.3524
-33.472
-46.9979
-49.17
-45.8181
-49.2177
-42.136
-42.0378
-42.409
-42.6104
-62.6341
-61.7871
-65.7069
-59.2992
-7.7046
-3.19987
-5.17491
-8.18158
-50.2772
-50.8142
-50.1701
-50.6639
-47.9451
-47.1951
-45.4955
-49.5878
-40.4939
-41.5322
-41.1693
-40.848
-37.6203
-37.9117
-37.8706
-37.7466
-51.3261
-53.2869
-51.2262
-52.2583
-45.5288
-44.4084
-44.1863
-45.6929
-47.8135
-52.5494
-50.2849
-50.2845
-39.7212
-38.7623
-39.1229
-39.0849
-42.8257
-43.0052
-42.2565
-43.6046
-44.4634
-47.162
-45.3618
-47.0925
-38.4896
-38.1588
-38.2683
-38.2686
-40.7104
-41.6325
-41.113
-41.1145
-48.5348
-46.019
-46.8112
-47.1779
-71.0624
-83.9525
-81.2708
-75.9385
-20.5139
-9.97186
-14.4084
-14.3089
-91.0499
-92.8285
-93.8796
-93.8828
-74.3991
-80.7597
-77.6072
-77.6072
-60.0614
-54.3187
-57.215
-57.2156
-40.4752
-41.5336
-41.1689
-40.8542
-37.6199
-37.9107
-37.8696
-37.7461
-51.3099
-53.2682
-52.2568
-51.2033
-45.4313
-44.4094
-44.1845
-45.6949
-42.8331
-43.0113
-43.6119
-42.2618
-44.4753
-47.1782
-45.3758
-47.1102
-48.5479
-46.0293
-47.19
-46.8218
-71.1039
-83.9538
-75.9357
-81.2749
-109.323
-95.9239
-95.5653
-80.6135
-52.033
-49.3874
-52.8432
-51.1747
-57.4709
-55.5811
-55.8189
-54.6418
-97.4472
-88.9903
-91.357
-79.1422
-109.36
-95.9087
-95.4914
-80.5896
-97.3931
-88.8319
-91.2635
-79.0911
-57.4992
-55.6129
-55.783
-54.6982
-52.0037
-49.3549
-52.8457
-51.1503
-99.2526
-85.4214
-88.034
-77.2678
-99.28
-85.4449
-88.0461
-77.2775
-49.2411
-46.8744
-51.3548
-49.9376
-49.24
-46.8751
-51.3538
-49.9359
-21.8263
-26.2826
-17.6999
-19.1174
-22.0543
-24.3482
-11.7406
-15.3494
-22.0478
-24.3041
-11.7157
-15.4052
-21.857
-26.3264
-17.7143
-19.1287
185.421
190.801
187.398
186.973
128.368
104.715
187.986
157.237
102.93
127.398
157.183
187.967
190.859
185.334
187.025
187.367
-41.4956
-42.5939
-41.7581
-42.7249
-40.1224
-40.5099
-40.6282
-41.0735
-45.8508
-47.3467
-45.1769
-46.2473
-49.3443
-50.029
-47.5413
-48.0192
-41.5047
-42.5883
-41.7548
-42.722
-49.346
-50.039
-47.5466
-48.0305
-45.8624
-47.3591
-45.1867
-46.2576
-40.1281
-40.5149
-40.633
-41.0782
-38.4566
-39.1624
-38.3214
-38.873
-39.1598
-38.4546
-38.8706
-38.3196
-38.2549
-37.9104
-38.1362
-37.8771
-37.9096
-38.2552
-37.8768
-38.1368
-78.6049
-82.3347
-83.215
-89.9162
-66.1615
-70.6432
-72.7531
-74.6683
-70.6427
-65.9159
-74.6674
-72.7488
-82.3291
-78.6113
-89.9229
-83.2197
-43.1978
-44.4106
-44.6814
-44.1693
-45.6032
-48.7229
-47.9263
-51.5498
-44.5386
-46.3728
-46.619
-48.8556
-49.4004
-48.643
-48.5738
-48.7056
-43.1998
-44.4153
-44.6991
-44.1809
-49.4126
-48.6594
-48.591
-48.7241
-44.5659
-46.3905
-46.6388
-48.8733
-45.6275
-48.6953
-47.9467
-51.5053
-41.5652
-40.8633
-41.4767
-41.1125
-41.5761
-40.8703
-41.4877
-41.1182
-41.6537
-43.439
-42.2028
-42.982
-41.613
-43.3969
-42.1731
-42.9528
-58.615
-60.2022
-55.275
-57.5019
-39.6249
-41.1961
-40.9012
-42.2158
-39.6339
-41.2056
-40.9059
-42.2219
-58.6155
-60.2018
-55.2766
-57.4993
-32.0574
-30.5689
-30.2133
-29.7181
-30.6603
-32.1487
-29.8025
-30.3041
-34.77
-34.6403
-34.5241
-34.3765
-34.6054
-34.7382
-34.4666
-34.5019
-122.3
46.1369
-139.092
-64.5494
-103.346
-111.873
-42.5507
-35.9367
-40.1995
-35.5767
-44.5136
-42.5966
-74.8405
17.1951
-36.0074
20.0719
-60.9239
-46.1607
-41.2672
-35.574
-38.2577
-35.2728
-43.589
-40.2243
-139.169
-64.3721
-122.357
46.1012
-103.356
-111.897
-40.214
-35.6745
-42.5986
-36.0003
-44.5508
-42.6627
-36.0258
19.9838
-74.9564
17.3526
-60.9974
-46.1913
-38.2741
-35.3064
-41.3019
-35.6139
-43.616
-40.2406
-40.7911
-42.4721
-39.9177
-38.99
-43.7789
-42.3095
-41.8213
-39.8414
-45.8094
-41.0776
-38.3479
-38.1225
-39.505
-36.0293
-38.722
-39.9799
-60.025
-70.8293
-56.9663
-54.6793
-55.5519
-64.0502
-76.6237
-80.4509
-50.6583
-54.9108
-49.2551
-49.8818
-50.8143
-55.2165
-59.262
-59.3377
-40.8201
-42.4708
-41.8167
-39.8343
-39.7733
-38.9781
-43.8135
-42.2794
-45.8536
-41.0881
-38.7246
-39.9868
-38.3561
-38.1247
-39.5143
-36.0648
-60.0334
-70.8106
-76.5317
-80.4772
-56.9645
-54.6762
-55.545
-64.0417
-50.6812
-54.9476
-59.2555
-59.334
-49.2727
-49.8995
-50.8339
-55.2324
-106.989
57.5397
-99.6247
33.6827
-128.975
-120.228
112.163
124.668
-135.83
-127.281
-135.846
-127.438
-117.584
-117.591
134.163
134.333
-68.631
-66.4936
-52.6212
-51.1456
-65.3464
-56.8033
-62.0263
-54.4946
-40.7548
-34.3479
-40.6896
-34.7255
-42.5533
-42.3167
-33.7316
-34.101
-37.0911
-30.2869
-37.1164
-30.3549
-38.5519
-38.5401
-26.9776
-27.0187
-48.7744
-43.9291
-42.7773
-42.0079
-44.824
-47.0431
-42.5057
-42.7703
-34.4437
17.0131
-34.4371
17.1233
-23.4303
-23.4255
57.8538
57.838
-68.6004
-31.6043
-61.551
-50.2424
-60.5408
-67.1424
-17.1939
-14.9855
-36.9966
-35.0549
-37.0019
-35.0673
-38.3179
-38.319
-34.9571
-34.9966
-49.1879
-46.6232
-53.2701
-55.6323
-50.0138
-50.637
-51.8151
-47.0296
-107.432
57.4521
-99.5008
34.8494
-129.223
-120.925
118.256
111.839
-68.6335
-66.5024
-52.6261
-51.1487
-65.3451
-56.8079
-62.036
-54.501
-40.7907
-34.4025
-40.7155
-34.7731
-42.3469
-42.5845
-33.7886
-34.1551
-48.9457
-43.8762
-42.8119
-42.0468
-44.8625
-47.0926
-42.5383
-42.8057
-68.4263
-31.6052
-61.5536
-49.9507
-67.1506
-60.5391
-15.5135
-17.2395
-49.2002
-46.6325
-53.2849
-55.597
-50.6529
-50.0252
-47.0334
-51.8157
-38.7864
-37.6451
-38.1854
-37.4422
-39.9196
-39.8723
-37.584
-37.4942
-47.2923
-45.2784
-50.9713
-48.8572
-49.7049
-51.3459
-45.3671
-47.0215
-43.5057
-41.0803
-43.5031
-41.0823
-45.3265
-45.3278
-40.3614
-40.3604
-41.5838
-41.4433
-44.2133
-44.4703
-42.1935
-43.4914
-43.2728
-44.0038
-39.0083
-39.776
-39.008
-39.7772
-38.7372
-38.7376
-40.1831
-40.1842
-51.004
-59.1634
-52.3697
-56.5858
-50.0474
-50.1803
-63.7267
-62.0218
-38.6791
-67.9443
-38.7154
-67.9341
-29.1905
-29.1805
-78.7995
-78.8015
-70.7163
-65.2593
-70.7158
-65.2627
-73.3026
-73.3026
-62.9701
-62.9702
-38.7063
-37.6459
-38.1971
-37.4447
-39.9674
-39.9074
-37.5843
-37.4955
-47.2802
-45.2649
-50.9659
-48.8532
-51.3409
-49.697
-45.3586
-47.0181
-41.5919
-41.4516
-44.2223
-44.4426
-43.4983
-42.1994
-43.2799
-44.0096
-51.0328
-59.1637
-52.3813
-56.5706
-50.2061
-50.0572
-62.0177
-63.7265
-72.3807
-72.2039
-66.2069
-58.8651
-59.0535
-65.5808
-55.9953
-56.0968
-72.3417
-72.1621
-66.1834
-58.8467
-65.5569
-59.0724
-56.0491
-55.9736
-72.4878
-72.49
-66.1078
-57.9761
-66.1117
-57.9773
-55.0996
-55.108
-6.06166
-6.06316
-3.42103
-3.63623
-3.60634
-3.41609