# vtk DataFile Version 2.0
tet_velo
ASCII
DATASET UNSTRUCTURED_GRID
POINTS 29498 float
-0.765 0.255 -2.13314
-0.755 0.415 2.14946
-0.755 0.786263 -1.975
-0.725 1.005 2.05668
0.765 0.255 -2.13315
0.749577 0.415 2.155
0.755 0.786263 -1.975
0.725 1.005 2.05665
-0.860756 0.209244 -0.705607
-0.870728 0.249272 0.721927
-0.837922 0.952098 -0.631107
-0.814956 1.01204 0.712787
0.858899 0.209293 -0.703767
0.870172 0.246212 0.725617
0.837932 0.952108 -0.631117
0.814948 1.01204 0.712767
-1.59394 -0.14907 -3.2734
-1.60137 -0.106716 -2.16463
-1.66846 -0.128487 -0.734802
-1.68028 -0.0972208 0.711814
-1.61194 0.027012 2.14306
-1.59011 0.102799 3.25878
-1.59495 0.155248 4.3617
-1.58875 0.174738 -3.2247
-1.59318 0.240229 -2.12509
-1.67683 0.230836 -0.711771
-1.67451 0.254501 0.708944
-1.5722 0.365915 2.12386
-1.56268 0.439176 3.23833
-1.5797 0.492448 4.34401
-1.58394 0.778547 -3.10363
-1.58295 0.843669 -2.00037
-1.65617 0.951966 -0.644107
-1.63422 0.992342 0.706065
-1.54249 1.01267 2.06381
-1.54504 1.08471 3.18087
-1.56905 1.15253 4.29957
-1.59795 1.77944 -2.98584
-1.6028 1.8582 -1.89533
-1.62672 1.97659 -0.566278
-1.63183 2.05265 0.744471
-1.61129 2.0871 2.07412
-1.59903 2.1241 3.16587
-1.59791 2.17583 4.27534
-0.787961 -0.141929 -3.27856
-0.774693 -0.0968997 -2.17214
-0.835238 -0.139853 -0.73306
-0.862682 -0.100995 0.723528
-0.814994 0.0550718 2.16298
-0.797956 0.122795 3.27258
-0.801746 0.166163 4.37008
-0.789033 0.175688 -3.22617
-0.77488 0.458941 3.24964
-0.790046 0.502376 4.35047
-0.78612 0.75645 -3.093
-0.761479 1.08702 3.1798
-0.7823 1.1556 4.29993
-0.789364 1.76576 -2.97526
-0.787913 1.84598 -1.88369
-0.809247 1.97644 -0.559109
-0.823817 2.05774 0.74405
-0.815826 2.08732 2.06874
-0.806516 2.12244 3.16057
-0.804102 2.1747 4.27169
0.794273 -0.142018 -3.27816
0.813991 -0.0969556 -2.17163
0.858185 -0.140203 -0.731326
0.839538 -0.103056 0.72675
0.76063 0.0542761 2.1673
0.76564 0.122175 3.27597
0.775052 0.165494 4.37269
0.773196 0.175636 -3.22594
0.761826 0.458529 3.25292
0.774492 0.501787 4.35295
0.768432 0.756407 -3.09285
0.755531 1.08671 3.18133
0.773654 1.1551 4.30175
0.81366 1.76562 -2.97487
0.824763 1.84585 -1.88333
0.823271 1.97626 -0.558672
0.797248 2.05745 0.744624
0.772805 2.08694 2.06952
0.772111 2.12198 3.16161
0.778396 2.17419 4.27298
1.59676 -0.149312 -3.2724
1.61877 -0.106942 -2.16336
1.67989 -0.129341 -0.73186
1.6716 -0.100103 0.716955
1.58719 0.0250144 2.14966
1.56793 0.101324 3.26466
1.57295 0.153839 4.36663
1.5745 0.174574 -3.22402
1.58725 0.240133 -2.12437
1.67467 0.230366 -0.709296
1.67936 0.251501 0.713679
1.57639 0.364204 2.13025
1.55781 0.437947 3.2439
1.56817 0.491165 4.34869
1.56756 0.778411 -3.10313
1.57594 0.843599 -2.00006
1.65374 0.951799 -0.643224
1.63994 0.991271 0.707781
1.55203 1.01156 2.06621
1.54683 1.08374 3.18419
1.56398 1.15142 4.30318
1.61664 1.77913 -2.98497
1.62971 1.85789 -1.89448
1.63713 1.97616 -0.565246
1.61319 2.05198 0.745823
1.57995 2.08624 2.07588
1.57189 2.12314 3.16809
1.576 2.17477 4.27795
-0.811182 0.520631 -2.10525
0 0.255504 -2.13264
-0.83438 0.21062 -1.41937
-0.753932 0.71 2.117
-0.0027115 0.402494 2.16474
-0.846453 0.298547 1.43569
0 0.854777 -2.04351
-0.835506 0.908225 -1.30305
0 1.06242 2.11409
-0.797891 1.03643 1.38473
0.811222 0.520631 -2.1053
0.83416 0.209936 -1.41846
0.751749 0.71 2.12029
0.844884 0.295597 1.44031
0.835496 0.908216 -1.30306
0.797887 1.03643 1.38471
-0.865964 0.229036 0.00816
-0.890951 0.580671 -0.668357
-0.000928227 0.234259 -0.704687
-0.890171 0.630658 0.717357
-0.000277845 0.234772 0.723772
-0.82745 0.983081 0.04084
4.95225e-06 1.28082 -0.631112
-3.89068e-06 1.56287 0.712777
0.865302 0.226986 0.0109249
0.89095 0.5807 -0.667442
0.890167 0.629124 0.719192
0.827447 0.983079 0.0408249
-0.895951 0.550651 -1.36121
-0.890192 0.605664 0.0245
-0.89564 0.670329 1.41021
-0.000464114 0.23416 -1.41892
-0.000603036 0.234514 0.00954247
-0.00149467 0.349332 1.438
0 0.520631 -2.33197
-0.00135575 0.71 2.23687
2.47613e-06 1.00424 -1.30306
5.30787e-07 1.5434 0.0408325
-1.94534e-06 1.52893 1.38472
0.895952 0.550666 -1.36076
0.890033 0.604912 0.0258749
0.895645 0.669562 1.41251
-1.17909 0.247615 -2.12911
-0.769846 0.0790502 -2.15264
-0.777017 0.215344 -2.67965
-1.1636 0.390458 2.13666
-0.784997 0.235036 2.15622
-0.76494 0.436971 2.69955
-1.16897 0.814966 -1.98768
-0.77056 0.771356 -2.534
-0.771457 1.31612 -1.92935
-1.13375 1.00884 2.06024
-0.743239 1.04601 2.61824
-0.770413 1.54616 2.06271
0.789495 0.0790222 -2.15239
0.769098 0.215318 -2.67955
1.17612 0.247566 -2.12876
0.755104 0.234638 2.16115
0.755701 0.436765 2.70396
1.16298 0.389602 2.14263
0.761716 0.771335 -2.53392
0.789881 1.31606 -1.92916
1.16547 0.814931 -1.98753
0.740266 1.04585 2.61899
0.748902 1.54597 2.06308
1.13852 1.00828 2.06143
-1.26879 0.22004 -0.708689
-0.847997 0.0346955 -0.719333
-1.27262 0.251886 0.715435
-0.866705 0.0741388 0.722727
-1.24705 0.952032 -0.637607
-0.823584 1.46427 -0.595108
-1.22459 1.00219 0.709426
-0.819386 1.53489 0.728418
0.858542 0.034545 -0.717546
1.26678 0.219829 -0.706531
0.854855 0.0715784 0.726184
1.27477 0.248856 0.719648
0.830602 1.46419 -0.594894
1.24583 0.951953 -0.637171
0.806098 1.53474 0.728695
1.22745 1.00165 0.710274
-1.59766 -0.127893 -2.71901
-1.59135 0.0128337 -3.24905
-1.19095 -0.1455 -3.27598
-1.63492 -0.117602 -1.44972
-1.59728 0.0667565 -2.14486
-1.18803 -0.101808 -2.16838
-1.67437 -0.112854 -0.0114941
-1.67264 0.0511741 -0.723287
-1.25185 -0.13417 -0.733931
-1.64611 -0.0351044 1.42744
-1.67739 0.07864 0.710379
-1.27148 -0.0991077 0.717671
-1.60103 0.0649053 2.70092
-1.59207 0.196464 2.13346
-1.21347 0.0410419 2.15302
-1.59253 0.129023 3.81024
-1.5764 0.270987 3.24856
-1.19403 0.112797 3.26568
-1.58733 0.323848 4.35286
-1.19835 0.160706 4.36589
-1.59097 0.207484 -2.6749
-1.58635 0.476643 -3.16416
-1.18889 0.175213 -3.22544
-1.63501 0.235533 -1.41843
-1.58807 0.541949 -2.06273
-1.67567 0.242668 -0.00141369
-1.6665 0.591401 -0.677939
-1.62336 0.310208 1.4164
-1.65436 0.623421 0.707504
-1.56744 0.402546 2.6811
-1.55735 0.689294 2.09383
-1.57119 0.465812 3.79117
-1.55386 0.761945 3.2096
-1.16878 0.449058 3.24398
-1.57438 0.82249 4.32179
-1.18487 0.497412 4.34724
-1.58344 0.811108 -2.552
-1.59094 1.27899 -3.04473
-1.18503 0.767499 -3.09831
-1.61956 0.897818 -1.32224
-1.59287 1.35093 -1.94785
-1.64519 0.972154 0.0309792
-1.64144 1.46428 -0.605192
-1.58836 1.00251 1.38494
-1.63302 1.52249 0.725268
-1.54377 1.04869 2.62234
-1.57689 1.54989 2.06896
-1.55704 1.11862 3.74022
-1.57203 1.60441 3.17337
-1.15326 1.08587 3.18034
-1.58348 1.66418 4.28745
-1.17568 1.15407 4.29975
-1.60037 1.81882 -2.44058
-1.19366 1.7726 -2.98055
-1.61476 1.91739 -1.2308
-1.19535 1.85209 -1.88951
-1.62928 2.01462 0.0890964
-1.21798 1.97652 -0.562694
-1.62156 2.06987 1.40929
-1.22782 2.05519 0.744261
-1.60516 2.1056 2.62
-1.21356 2.08721 2.07143
-1.59847 2.14996 3.7206
-1.20277 2.12327 3.16322
-1.20101 2.17526 4.27351
-0.781327 -0.119414 -2.72535
-0.788497 0.0168796 -3.25236
0.00315581 -0.141974 -3.27836
-0.804966 -0.118377 -1.4526
0.019649 -0.0969277 -2.17188
-0.84896 -0.120424 -0.00476573
0.0114734 -0.140028 -0.732193
-0.838838 -0.0229614 1.44325
-0.0115719 -0.102025 0.725139
-0.806475 0.0889334 2.71778
-0.0271816 0.0546739 2.16514
-0.799851 0.144479 3.82133
-0.786418 0.290868 3.26111
-0.0161579 0.122485 3.27427
-0.795896 0.33427 4.36027
-0.0133471 0.165829 4.37138
-0.787576 0.466069 -3.15958
-0.00791883 0.175662 -3.22606
-0.782463 0.480659 3.80005
-0.768179 0.772981 3.21472
-0.0065272 0.458735 3.25128
-0.786173 0.82899 4.3252
-0.00777687 0.502081 4.35171
-0.787742 1.2611 -3.03413
-0.00884368 0.756429 -3.09292
-0.771889 1.12131 3.73986
-0.783997 1.60473 3.17018
-0.00297378 1.08686 3.18057
-0.793201 1.66515 4.28581
-0.00432271 1.15535 4.30084
-0.788639 1.80587 -2.42947
0.0121481 1.76569 -2.97506
-0.79858 1.91121 -1.2214
0.0184248 1.84591 -1.88351
-0.816532 2.01709 0.0924706
0.00701243 1.97635 -0.55889
-0.819821 2.07253 1.4064
-0.0132844 2.05759 0.744337
-0.811171 2.10488 2.61466
-0.0215106 2.08713 2.06913
-0.805309 2.14857 3.71613
-0.0172026 2.12221 3.16109
-0.012853 2.17444 4.27233
0.804132 -0.119487 -2.72489
0.783734 0.0168086 -3.25205
1.19552 -0.145665 -3.27528
0.836088 -0.118579 -1.45148
1.21638 -0.101949 -2.16749
0.848861 -0.121629 -0.00228788
1.26904 -0.134772 -0.731593
0.800084 -0.0243897 1.44703
1.25557 -0.101579 0.721853
0.763135 0.0882258 2.72163
1.17391 0.0396452 2.15848
0.770346 0.143835 3.82433
0.763733 0.290352 3.26444
1.16679 0.11175 3.27031
0.774772 0.33364 4.36282
1.174 0.159667 4.36966
0.770814 0.466021 -3.15939
1.17385 0.175105 -3.22498
0.768159 0.480158 3.80293
0.758678 0.772619 3.21712
1.15982 0.448238 3.24841
0.774073 0.828442 4.32735
1.17133 0.496476 4.35082
0.791046 1.26101 -3.03386
1.16799 0.767409 -3.09799
0.764593 1.1209 3.74154
0.763821 1.60435 3.17147
1.15118 1.08522 3.18276
0.776025 1.66464 4.28736
1.16882 1.15326 4.30247
0.819212 1.80573 -2.4291
1.21515 1.77238 -2.97992
0.824017 1.91106 -1.221
1.22724 1.85187 -1.88891
0.81026 2.01686 0.0929759
1.2302 1.97621 -0.561959
0.785026 2.07219 1.40707
1.20522 2.05471 0.745223
0.772458 2.10446 2.61556
1.17638 2.08659 2.0727
0.775253 2.14809 3.71729
1.172 2.12256 3.16485
1.1772 2.17448 4.27546
1.60777 -0.128127 -2.71788
1.58563 0.0126307 -3.24821
1.64933 -0.118141 -1.44761
1.60301 0.0665954 -2.14386
1.67575 -0.114722 -0.00745218
1.67728 0.0505123 -0.720578
1.6294 -0.0375442 1.43331
1.67548 0.0756988 0.715317
1.57756 0.0631693 2.70716
1.58179 0.194609 2.13996
1.57044 0.127582 3.81564
1.56287 0.269635 3.25428
1.57056 0.322502 4.35766
1.58087 0.207353 -2.67419
1.57103 0.476492 -3.16357
1.63096 0.235249 -1.41683
1.58159 0.541866 -2.06221
1.67702 0.240933 0.00219175
1.6642 0.591082 -0.67626
1.62788 0.307852 1.42197
1.65965 0.621386 0.71073
1.5671 0.401075 2.68708
1.56421 0.687882 2.09823
1.56299 0.464556 3.7963
1.55232 0.760844 3.21404
1.56607 0.821291 4.32594
1.57175 0.811005 -2.55159
1.5921 1.27877 -3.04405
1.61484 0.897699 -1.32164
1.60283 1.35075 -1.94727
1.64684 0.971535 0.0322784
1.64543 1.46398 -0.604235
[...]
POINT_DATA 29498
VECTORS point_vectors float
-3.16584 -4.25013 6.08922
0.186408 0.201302 0.716412
-1.3309 1.07049 2.84633
-0.0650167 -0.178488 0.247464
3.16867 -4.24849 6.09124
-0.140354 0.178957 0.623654
1.33726 1.07566 2.86262
0.0806858 -0.181542 0.220542
0.135141 0.0247884 2.24604
0.0986484 -0.103706 2.45391
0 0 0
0 0 0
-0.146294 0.0339924 2.12583
-0.0887897 -0.127507 2.45419
0 0 0
0 0 0
-0.556435 -0.301478 19.9049
-1.1291 -0.719919 20.5128
-0.404987 -0.512258 21.4136
0.150941 -0.253383 21.6559
0.773313 0.006245 21.5547
1.05169 0.152214 21.2084
1.0559 -0.0832904 20.794
-0.670693 -0.241906 19.8005
-1.5841 -0.645542 20.4875
-0.556976 -0.56836 21.4647
0.118777 -0.376878 21.6907
0.884433 -0.259366 21.6626
1.283 -0.210391 21.1155
1.16734 -0.176976 21.2552
-0.828414 0.0174585 19.715
-1.88391 0.0353073 20.4246
-1.1698 -0.424608 21.4428
-0.305597 -0.517714 21.7733
0.490827 -0.673452 21.6881
0.864152 -0.780071 21.3161
0.595114 -0.460921 21.4514
-0.579827 0.330423 19.9455
-0.972611 0.550458 20.3933
-0.97746 0.361175 21.1687
-0.464262 -0.0303804 21.5664
-0.0287187 -0.326172 21.5127
0.240065 -0.512396 21.4265
0.280369 -0.687761 20.3321
-0.56665 -0.605664 19.3713
-1.70021 -3.14529 20.6359
-0.120731 -0.404779 21.8167
0.443207 0.217607 21.2387
1.25736 1.43825 18.8747
1.74528 1.77418 17.8568
1.71185 1.14367 17.9831
-0.728772 -0.526223 19.0311
2.1933 1.07034 11.971
2.37218 0.911222 15.5566
-1.05557 0.189541 18.5546
0.488079 -0.884271 7.47537
1.59667 -1.26644 14.2349
-0.557627 0.765422 19.5263
-1.09335 1.569 20.063
-1.5777 1.70224 21.1891
-0.698043 0.36447 22.0486
-0.205934 -0.335696 21.6288
-0.0293564 -0.596986 21.1809
-0.11011 -0.422484 21.8795
0.564522 -0.599602 19.3738
1.7327 -2.93126 20.6109
0.103315 -0.414744 21.8032
-0.443826 0.234215 21.1772
-1.13656 1.4682 18.3423
-1.73433 1.81334 17.67
-1.7099 1.17697 17.6708
0.725823 -0.534411 19.0144
-2.14127 0.985478 11.3995
-2.39356 0.96844 15.2186
1.05569 0.192566 18.5125
-0.317662 -0.82477 6.34469
-1.52399 -1.21497 13.4567
0.562839 0.757176 19.5404
1.10986 1.52487 20.079
1.56909 1.66299 21.1917
0.687902 0.395336 22.0559
0.203339 -0.271404 21.6139
0.0374069 -0.542569 21.2281
0.079894 -0.403998 22.0265
0.557441 -0.302121 19.9092
1.14187 -0.701462 20.5386
0.392277 -0.509328 21.3987
-0.157075 -0.257141 21.6465
-0.780814 -0.000148659 21.5462
-1.05901 0.126845 21.2216
-1.08302 -0.0847239 20.8094
0.681835 -0.248802 19.7902
1.59703 -0.649704 20.4872
0.558901 -0.56758 21.4596
-0.115822 -0.377734 21.682
-0.855762 -0.283208 21.6525
-1.25114 -0.254075 21.1325
-1.18226 -0.178649 21.3176
0.8306 0.0221915 19.7088
1.89528 0.0340206 20.4286
1.17216 -0.427017 21.4463
0.304311 -0.515271 21.7612
-0.452027 -0.664676 21.6804
-0.810163 -0.768533 21.3195
-0.550949 -0.439573 21.4705
0.575458 0.322259 19.9537
0.951458 0.525631 20.4113
0.965923 0.353008 21.1674
0.467252 -0.0242321 21.5621
0.0394779 -0.320337 21.4915
-0.215169 -0.499619 21.4939
-0.208592 -0.733656 20.2465
-4.43897 -0.147962 5.14506
-5.20338e-05 -0.122046 0.532062
0.0102629 -0.0433966 2.04277
-0.0117551 -0.0128561 -0.00220707
-0.000345387 0.00440057 0.0185128
0.063877 0.0047221 0.722732
-1.90642e-05 0.0715983 0.181522
-0.348349 -0.20815 1.02513
0 0 0
0 0 0
4.29047 -0.155001 5.04547
-0.00899959 -0.0404566 2.01519
0.0134311 -0.0160541 -0.000769161
-0.088458 -0.00445753 1.04778
0.34993 -0.208367 1.03037
0 0 0
0.0154747 0.0118753 1.14876
-1.02665e-05 -0.000515543 0.0279575
0 0 0
2.59554e-07 3.70471e-06 3.8936e-05
0 0 0
0 0 0
-1.59802e-05 0.0152639 0.0316373
-7.61566e-05 -9.87659e-06 0.0168147
-0.0132965 0.00679416 0.863887
9.67295e-06 -0.000516973 0.0280312
-7.68583e-06 0.000110083 0.00119162
0 0 0
-0.0012847 -0.00228071 0.0445088
0 0 0
2.19036e-05 0.000115219 0.00202005
-1.41585e-08 -2.55029e-07 2.36021e-05
0 0 0
0 0 0
-0.000400812 0.079304 0.202837
0 0 0
0 0 0
-5.59887e-05 0.00909523 0.0764574
-0.00146989 -0.00638272 0.0631572
0.00118008 -0.00217016 0.0416342
0 0 0
-1.49572e-05 6.92494e-05 0.00140598
-3.06416 -1.5977 20.3408
-2.72901 -5.0854 20.7559
-2.02416 -1.61844 17.9076
1.63823 -0.0676953 19.878
0.945193 1.51623 11.2897
1.45149 0.796695 7.57711
-3.80819 0.515567 20.3419
-3.16375 1.22641 16.8421
-2.3897 2.66142 19.8489
0.790043 -0.847652 19.0533
-0.397127 -1.10402 3.39607
0.169036 -0.363029 15.7605
2.81926 -4.87697 20.7078
2.02482 -1.64001 17.8851
3.07793 -1.61275 20.3394
-0.853493 1.47463 10.8001
-1.42967 0.601527 7.22184
-1.60424 -0.130386 19.8256
3.16233 1.26693 16.775
2.40058 2.59788 19.8619
3.83203 0.528585 20.3388
0.644964 -1.35388 2.31224
-0.162174 -0.202488 14.974
-0.69903 -0.868633 19.0645
-0.449628 -0.937652 21.8315
0.20305 -0.102588 18.9882
0.330213 -0.531791 21.7906
0.612002 0.157048 16.5879
-1.97888 -1.03188 21.848
-4.14068 1.97157 21.3144
-0.415427 -0.918816 21.222
-0.920426 0.0895255 19.1879
-0.217286 -0.12692 19.2141
0.444495 -0.940095 21.8321
-0.640366 0.1596 16.4971
-0.330176 -0.540704 21.8041
4.08325 1.91705 21.3338
1.97787 -1.03566 21.8394
0.844821 0.162247 18.6012
0.415687 -0.916444 21.2274
-0.906411 -0.528725 20.0613
-0.630115 -0.281609 19.8701
-0.620551 -0.44743 19.6453
-0.861188 -0.667416 21.1561
-1.30558 -0.719194 20.5151
-1.5911 -1.49941 20.4842
-0.114891 -0.379669 21.5605
-0.479469 -0.528279 21.4338
-0.2531 -0.60402 21.6245
0.46635 -0.118702 21.6877
0.131004 -0.299507 21.6536
0.367644 -0.187699 21.8176
0.959251 0.0597453 21.398
0.868878 -0.109279 21.6189
1.26974 0.365169 21.4422
1.07116 -0.0100439 20.8967
1.19339 0.0413456 21.1546
1.51711 0.4308 21.2606
1.15921 -0.162581 20.9719
1.2655 0.251041 21.3508
-1.17526 -0.437192 19.935
-0.793647 -0.124171 19.7208
-0.782 -0.414787 19.4661
-1.14339 -0.679719 21.2088
-1.82287 -0.362106 20.4672
-0.20417 -0.481758 21.6085
-0.84145 -0.592274 21.4623
0.486319 -0.312305 21.7838
-0.0594728 -0.52294 21.7558
1.13333 -0.228607 21.4219
0.781913 -0.514888 21.7363
1.25354 -0.244103 21.2455
1.10654 -0.456093 21.3196
1.90318 -0.0139874 19.7223
0.890489 -0.494058 21.242
1.8348 -0.042037 19.0394
-1.45242 0.0702003 19.8514
-0.747176 0.243623 19.8007
-1.02137 0.100134 19.2533
-1.58713 -0.20899 21.0928
-1.44194 0.464785 20.3728
-0.750702 -0.517829 21.6987
-1.28327 0.0832816 21.3085
0.0989917 -0.567044 21.7996
-0.507677 -0.256755 21.7106
0.692037 -0.689265 21.5211
0.110494 -0.538911 21.5392
0.905882 -0.712453 21.1668
0.432999 -0.687004 21.1717
1.12161 -0.926997 19.8675
0.38463 -0.632785 20.9818
1.62381 -1.24509 19.1326
-0.803925 0.472652 20.1158
-0.623065 0.54304 19.7431
-1.03934 0.492525 20.7834
-1.15531 0.965174 20.2683
-0.754693 0.170926 21.4636
-1.37078 0.811192 21.2172
-0.200438 -0.212482 21.575
-0.603831 0.0867822 21.7997
0.0950541 -0.451474 21.2777
-0.110173 -0.388411 21.545
0.227143 -0.492025 20.973
0.150787 -0.525083 21.1321
-0.0446312 -0.373882 22.1071
-1.15666 -1.5603 19.1768
-0.643559 -0.567812 19.2071
-0.000835725 -0.863344 19.0136
-0.619852 -1.26067 22.0699
0.0436876 -4.54937 21.1597
0.131779 -0.104553 21.5471
0.00787007 -0.638654 21.5708
0.952605 0.807748 20.0191
0.00196833 0.167035 19.1789
1.48714 1.57411 18.9105
-0.00325547 1.13801 14.9742
1.61146 1.37271 17.673
2.07164 1.87946 15.556
-0.0270594 2.15799 15.803
2.02913 1.14216 16.625
0.0532484 2.36256 17.0069
-0.992251 -0.235688 18.6892
-0.00724247 -0.768805 18.5272
2.2859 1.06971 14.0714
1.93275 -0.552839 6.90136
-0.00688971 1.12073 4.39285
2.33926 -0.103541 15.3168
0.0501352 2.32138 10.7683
-0.86066 0.7547 19.0085
-0.0125032 0.354624 17.6628
1.15841 -0.90419 10.2712
0.279697 -1.08909 18.454
0.277353 1.59338 -3.46208
0.0832904 -1.20621 17.4974
0.237404 2.93357 -0.727641
-0.842853 1.2382 19.6732
0.0120216 1.01297 19.2595
-1.36219 1.65162 20.5046
0.0359271 2.27107 19.8498
-1.26572 1.08915 21.97
0.0201017 3.2603 20.93
-0.363255 -0.0894013 21.8565
-0.0277091 0.926751 22.3733
-0.127394 -0.484488 21.5569
-0.0505308 0.000649062 21.9599
0.0302955 -0.78073 21.1668
-0.0288219 -0.406483 21.8859
-0.103405 -0.302266 22.3265
1.16065 -1.51381 19.2087
0.64091 -0.568959 19.2001
0.61693 -0.451383 19.6419
0.625991 -1.24858 22.0157
1.56211 -1.4287 20.4905
-0.140719 -0.106833 21.5582
0.259228 -0.606369 21.6134
-0.936921 0.884229 19.7983
-0.384421 -0.186975 21.8112
-1.39972 1.594 18.5916
-1.3028 0.382947 21.3455
-1.60699 1.39058 17.5565
-2.0633 1.86615 14.7188
-1.54031 0.477135 21.2857
-2.05579 1.20533 16.3081
-1.31833 0.272222 21.3129
0.994787 -0.23675 18.6546
0.786219 -0.417541 19.4476
-2.2749 1.07893 13.6286
-1.81079 -0.635348 6.19609
-1.89102 -0.0593141 19.5336
-2.29209 -0.122212 14.7593
-1.86194 0.000428866 18.8273
0.85774 0.751687 19.0073
1.02186 0.102 19.2327
-0.979849 -0.938827 9.09234
-0.160187 -0.962527 17.7481
-0.998367 -0.940107 19.7742
-0.0423312 -1.14754 16.7134
-1.58783 -1.35859 18.9997
0.851546 1.21629 19.69
0.624817 0.528818 19.7622
1.36407 1.60849 20.513
1.1413 0.922794 20.2798
1.25633 1.107 21.9704
1.35497 0.792636 21.2128
0.35233 -0.047845 21.8446
0.605581 0.10998 21.7968
0.135857 -0.40863 21.5687
0.124715 -0.341645 21.5383
-0.0555571 -0.704468 21.1542
-0.143729 -0.479796 21.0741
0.0363312 -0.394735 22.3323
0.903097 -0.527154 20.0592
0.639578 -0.280285 19.8711
0.851426 -0.65913 21.1422
1.30754 -0.696198 20.5162
0.107589 -0.382753 21.5528
0.478881 -0.524967 21.4234
-0.476061 -0.124854 21.6854
-0.132236 -0.304129 21.6462
-0.971777 0.0555986 21.3932
-0.860201 -0.133455 21.6107
-1.10557 -0.0312078 20.8741
-1.17649 0.0133615 21.171
-1.18515 -0.164387 20.9995
1.18295 -0.436028 19.9176
0.793908 -0.122034 19.7154
1.1441 -0.685669 21.2195
1.84614 -0.36916 20.4874
0.204534 -0.482224 21.6008
0.842969 -0.592902 21.4659
-0.477311 -0.328412 21.7593
0.0582408 -0.524288 21.7453
-1.09884 -0.260354 21.4244
-0.741166 -0.527538 21.7198
-1.24298 -0.26476 21.2636
-1.07716 -0.476719 21.3441
-0.857893 -0.464157 21.2752
1.45908 0.07109 19.8495
0.748501 0.242331 19.8082
1.5885 -0.210986 21.1056
1.42248 0.45551 20.3761
0.745791 -0.517734 21.6966
1.27964 0.0757361 21.3041
-0.0851986 -0.56371 21.7728
0.51364 -0.25792 21.7081
-0.656158 -0.696065 21.5206
-0.0944945 -0.532171 21.5118
-0.856757 -0.726093 21.1704
-0.384749 -0.660572 21.2534
-0.391763 -0.64067 20.9798
0.793617 0.452333 20.1268
1.01921 0.475783 20.7837
0.75297 0.172138 21.4598
0.212471 -0.20204 21.5696
-0.0754546 -0.408164 21.268
-0.188968 -0.513632 20.9132
-1.02584 -0.507175 20.0034
-1.54397 -1.72026 18.6688
-1.17785 -0.971628 19.6833
-1.65698 -0.819822 19.3226
-0.69983 -0.435182 19.5562
-2.23551 -1.68809 20.4329
-0.974632 -0.688562 21.1667
-0.325709 -0.954455 20.4635
-0.845869 -1.06042 21.505
-1.38095 -1.29373 21.7977
-0.304531 -0.766564 21.7142
-0.150123 -0.416274 21.5767
0.318163 0.0436127 17.2418
0.0731582 -0.390755 21.7184
-0.0262989 -0.723813 21.8374
0.386557 -0.356377 21.8391
0.479952 -0.181116 21.7259
1.29665 0.600896 13.6113
0.783848 0.046128 21.8252
0.835705 -0.361267 21.0335
1.52228 0.193608 20.9141
1.0608 -0.0786886 21.4732
1.59837 1.59402 13.6383
1.52084 0.470913 21.2271
1.87789 -0.0678466 20.2703
1.77818 0.298597 20.2361
1.22341 -0.215896 20.9151
1.94964 1.25577 15.2734
1.81156 0.480699 20.8093
2.0722 0.0068941 19.8083
1.49028 0.186246 20.1183
-1.39602 -0.21849 19.8401
-2.92732 -0.539448 16.8653
-2.30318 0.355889 19.0305
-0.972174 -0.18304 19.2801
-3.91482 -0.654167 20.3428
-1.39995 -0.526206 21.2163
-2.57316 -0.487937 21.4932
-0.992758 -1.19895 21.9152
-0.426978 -0.582986 21.6586
-1.06957 -1.11851 21.6729
0.113829 -0.755977 21.074
0.336685 -0.481349 21.8388
0.177657 -0.697804 20.2992
1.3242 -0.480465 18.3532
1.00346 -0.527147 21.574
0.495053 -0.911779 3.77771
0.884341 -1.01556 19.6451
1.62031 -0.555123 19.5142
1.07495 -0.579182 21.1629
2.31586 0.710127 10.51
1.28066 -1.05909 20.0979
1.86983 -1.09271 18.8997
-1.13367 0.398887 19.9663
-1.67005 1.79909 18.8623
-0.903709 0.804338 19.9206
-0.863439 0.441078 19.4641
-2.08688 1.14444 20.1882
-1.44088 0.297164 20.8855
-2.7744 2.00377 20.4005
-1.31997 0.951805 20.7048
-2.24996 0.368535 21.4524
-0.942247 -0.103059 21.62
-2.91881 0.257466 22.055
-1.06278 0.447649 21.6855
-0.823279 -0.294438 22.0575
-0.141379 -0.399987 21.6951
0.0438163 -0.0991617 17.1349
-0.29158 -0.198033 21.7085
-0.0447084 -0.739048 21.6858
0.286637 -0.623472 21.4413
0.116522 -0.639767 17.0953
-0.0103215 -0.466612 21.4361
0.309396 -0.910421 21.4079
0.464867 -0.690913 21.4759
0.35455 -1.17324 17.5106
0.0634661 -0.581737 21.9443
0.145206 -0.789762 22.0116
1.54967 -1.69792 18.6938
0.0182965 -2.42563 18.5081
-0.0140606 -2.94872 15.9412
-0.000973192 -0.916922 18.7437
0.010392 -6.85385 22.753
0.33921 -0.990856 20.6825
0.0206991 -1.68374 22.5999
-0.00354442 -0.201658 13.3062
-0.328132 0.0349604 17.2809
-0.00400001 -0.257796 20.0621
0.00287601 0.101171 11.2327
-1.33737 0.679831 13.2408
-0.00164583 0.863818 16.8204
-0.0399493 0.763875 7.25741
-1.5679 1.56371 12.9549
-0.00799421 1.49148 15.1714
-0.0694938 0.182532 2.87742
-0.0486011 1.94947 10.7243
-1.93659 1.28672 14.7598
0.0246915 2.2506 15.5416
0.0203178 2.32218 6.70265
0.0497949 2.35815 14.3048
2.9338 -0.548203 16.8158
-0.0304957 2.87042 13.6927
-0.0123173 -0.325068 17.815
-0.388435 -1.09894 3.51599
0.188788 0.0658327 -2.28797
0.269095 0.835516 -0.499689
-2.19952 0.644983 9.60377
0.287277 2.69797 -3.69666
0.230247 3.56272 1.62016
1.67205 1.76673 18.8732
0.0230919 1.7703 19.3585
0.00124602 1.11698 18.4455
0.0318569 4.27785 19.4134
2.76496 1.95346 20.4192
0.030709 2.59204 20.1566
0.0156539 6.31391 19.2057
2.92408 0.272421 22.0026
-0.0164213 2.38196 22.4134
-0.0202795 0.276963 10.399
-0.126746 0.00877224 16.3005
-0.033722 0.208511 22.1106
-0.38375 0.348546 2.99734
-0.0849534 -0.449255 16.3791
-0.0561168 -0.174756 21.8102
-0.159473 -0.110826 5.4435
-0.309828 -1.05622 16.6785
-0.0464721 -0.542938 21.4574
-0.0464336 -0.317356 9.70602
1.03032 -0.502751 20.0199
1.16691 -0.93658 19.7084
1.67126 -0.826459 19.3001
0.701946 -0.442304 19.5496
2.21126 -1.64754 20.4313
0.964148 -0.673499 21.1714
0.850189 -1.04024 21.4794
1.38232 -1.2979 21.8034
0.310641 -0.766085 21.7056
0.146426 -0.416153 21.5732
-0.0783302 -0.39432 21.7149
0.0241244 -0.725595 21.8322
-0.399085 -0.359435 21.814
-0.47946 -0.197428 21.7102
-0.821552 0.0570869 21.7579
-0.831521 -0.387458 21.0259
-1.53148 0.176435 20.6905
-1.05093 -0.0999569 21.4806
-1.53322 0.483292 21.1847
-1.82779 -0.133795 20.1608
-1.76129 0.329111 20.0129
-1.23289 -0.231871 20.9168
-1.80729 0.485071 20.9075
-2.09072 -0.00748667 19.6634
-1.52251 0.234232 19.9291
1.41165 -0.221616 19.8419
2.32846 0.364418 19.0027
0.979055 -0.184813 19.2571
3.94064 -0.664199 20.3451
1.40407 -0.526462 21.2186
2.57635 -0.490694 21.4923
0.987652 -1.20485 21.9049
0.428121 -0.58359 21.6555
1.06619 -1.1149 21.6668
-0.110752 -0.770043 21.1101
-0.329393 -0.489358 21.814
-0.151137 -0.706176 20.3069
-1.25583 -0.541366 18.3055
-0.952328 -0.549032 21.5757
-0.760626 -1.02267 19.5665
-1.55895 -0.605383 19.2387
-1.02622 -0.581219 21.1765
-1.25679 -1.05712 19.9418
-1.85141 -1.1377 18.7382
1.13015 0.394692 19.9751
0.902867 0.777806 19.9413
0.860257 0.440275 19.4623
2.05393 1.10651 20.1913
1.42903 0.292318 20.8887
1.305 0.917232 20.7091
2.22723 0.364097 21.4424
0.94286 -0.103966 21.614
1.06205 0.457774 21.681
0.833906 -0.285622 22.0458
0.158609 -0.401764 21.6794
0.297142 -0.171892 21.7052
0.106702 -0.696271 21.6296
-0.255231 -0.614064 21.4632
0.0244117 -0.43074 21.4313
-0.226366 -0.84581 21.4263
-0.45427 -0.751635 21.478
-0.051339 -0.583964 22.083
-0.110304 -0.809479 21.9151
-1.39676 -0.954921 19.5249
-1.0703 -1.21942 21.6475
0.0525212 -0.54754 21.7843
0.885551 -0.151958 21.5255
1.73487 0.237273 20.8776
2.12672 0.236063 19.9343
-2.16911 -0.343279 19.0288
-2.01377 -1.08435 21.9403
-0.342393 -0.994236 21.5246
0.535624 -0.507799 20.0613
1.56425 -0.685863 19.5985
1.63668 -0.50529 19.7063
-1.52915 0.888089 19.5412
-2.18946 0.741194 20.835
-1.55577 -0.071094 22.0237
-0.312304 -0.526003 21.9609
0.118822 -0.837178 21.5118
0.736196 -1.00207 20.477
0.0127842 -2.87205 17.5035
0.00615542 -0.861775 15.8662
-0.00472238 -0.0675078 11.4338
-0.00658087 0.682818 7.96013
-0.0551964 1.04327 8.23251
0.0213081 2.10294 10.983
-0.0270724 -0.871379 13.5743
0.107825 -0.151787 0.440647
0.259241 2.08112 2.90678
0.0116564 2.98047 18.0367
0.0279056 3.91239 19.5128
-0.0120092 2.09145 14.1737
-0.060196 -0.254285 7.79994
-0.428561 0.0344564 4.19255
-0.0841037 -0.898894 7.6526
1.39672 -0.947814 19.5256
1.07404 -1.20437 21.6283
-0.0555191 -0.55018 21.7791
-0.906585 -0.160463 21.4269
-1.73469 0.20681 20.7272
-2.09702 0.207793 19.8998
2.19989 -0.348854 19.0008
2.01655 -1.0916 21.9504
0.33933 -0.998485 21.5271
-0.52121 -0.538153 20.0771
-1.46165 -0.728696 19.4852
-1.63499 -0.467623 19.4315
1.52125 0.874282 19.55
2.16438 0.719641 20.8346
1.55419 -0.067129 22.0129
0.331353 -0.512219 21.9337
-0.0389548 -0.774688 21.4578
-0.676764 -0.981199 20.4814
-1.55076 -0.434224 1.75409
-0.00262023 -0.12623 0.604583
-0.0114525 -0.0471673 0.627971
0.0928031 -0.0368877 0.259335
-0.000780635 0.00653971 0.026622
0.0903429 0.0909784 0.748251
-1.02054 0.0520123 1.53207
-0.0554551 0.187784 0.489617
-0.463362 -0.0626791 1.55486
0.00529282 -0.0347334 0.0209461
0 0 0
0 0 0
0.00269041 -0.126138 0.603715
1.53498 -0.428775 1.73652
0.012338 -0.0464031 0.596126
-0.000476215 0.00769843 0.0319486
-0.0751611 -0.0413347 0.191231
-0.057249 0.0591287 0.525866
0.0543596 0.18902 0.491569
1.01443 0.0518314 1.52287
0.461233 -0.0619035 1.54954
0 0 0
-0.00553477 -0.0551223 0.0268965
0 0 0
0.0745025 -0.0444086 1.95704
0.00844878 -0.00370884 0.654381
0.000931719 -0.000715313 0.109406
0 0 0
0.19475 -0.0109256 0.670362
0.0371931 -0.000706963 2.19503
-0.000517195 0.00446704 0.0619434
0 0 0
-0.302906 -0.304444 0.75277
-4.13618e-05 -8.28514e-05 0.00344565
0 0 0
-0.0535698 0.0424627 0.100279
-3.66424e-18 -4.92439e-18 -3.06308e-17
0.000191809 0.000974769 0.00614554
0 0 0
0.0826428 0.0615231 0.728694
-0.0753019 -0.030996 1.94723
0 0 0
-0.019273 0.00347879 0.964293
-0.000991178 -0.00032273 0.10293
-0.233343 -0.0115316 0.736785
0 0 0
-0.0626211 -0.005227 1.935
0.000580723 0.00515877 0.075198
0.307578 -0.309791 0.768234
0.066939 0.0520447 0.124303
4.85966e-05 -0.000100511 0.00401748
0 0 0
0 0 0
-0.0860704 0.0636048 0.725377
-0.000148155 0.000750471 0.00478417
0 0 0
-0.0791164 -0.0662743 0.520945
-0.535245 0.265786 0.451073
0 0 0
-0.00414437 -3.34225 2.23121
-0.00576095 -0.00840501 0.179332
0.001001 -8.19488e-05 0.0112236
0 0 0
0 0 0
-0.00145521 -0.0060697 0.111572
-1.20666e-06 -5.76187e-06 -2.97985e-06
0.00143247 0.00174559 0.0826883
3.94067e-19 4.07518e-19 3.31088e-18
0 0 0
-5.12555e-05 0.0237337 0.120781
-0.00507194 -0.0236671 0.12759
-0.00184213 0.000459654 0.0038118
-0.00037489 -0.00578944 0.000714836
-0.0053917 0.0089962 -0.011237
0.00329423 0.0116845 0.120776
0.00211195 -0.00531923 0.0575752
0.529694 0.262682 0.445618
0.00132819 -0.000968135 0.0126711
-0.000787287 -5.61876e-05 0.0088126
0.00597623 -0.00889647 0.183631
0 0 0
0 0 0
0 0 0
-0.00118903 0.000339459 0.0585762
0.00154207 0.000387971 0.00321364
0.00500714 -0.0233582 0.126055
-0.00380338 -0.00493934 0.0554329
-0.00388487 0.0110178 0.121927
-0.00076653 0.00380156 0.0663491
0 0 0
0 0 0
0 0 0
6.66121e-08 4.0521e-08 -0.000128256
8.41732e-09 -5.49794e-09 -6.63118e-06
5.60269e-05 0.00125625 0.0107259
0 0 0
-1.3478e-08 1.5601e-08 2.79305e-05
-6.77652e-08 1.22547e-06 8.46988e-06
0 0 0
-0.0972176 0.0876562 1.24766
0 0 0
-8.85841e-05 0.0888641 0.18389
-5.59485e-05 0.00142338 0.0332221
-0.000297798 -0.00119156 0.0391826
0 0 0
0.000663162 0.0033074 0.058283
0 0 0
0 0 0
-4.96035e-05 0.00118271 0.0103117
0 0 0
0.093752 0.0883235 1.2493
0 0 0
-6.7754e-18 -4.59245e-18 4.83175e-17
-0.0631957 -0.02651 0.271735
1.03272e-05 -5.87409e-05 0.00126573
-0.00151802 -0.0127991 0.0815769
-0.00104073 0.00455964 0.0812883
0.000124258 0.00142052 0.00991369
-0.000898273 0.00718573 0.0840765
0.000265912 0.00217715 0.0123984
0.000153619 -0.000478398 0.0338825
0.00123638 0.0068809 0.0543024
0.0157824 -0.000873099 0.104882
0.000565461 -0.000266896 0.00488389
0 0 0
0 0 0
0.0027186 -0.000198234 0.0440233
-0.00253047 -4.87426e-05 0.0420531
0 0 0
0 0 0
0.000763587 -0.000161848 0.0134054
0 0 0
0 0 0
0 0 0
0.00335063 -0.0067482 0.164315
-0.00673551 -0.00653758 0.14027
0 0 0
0 0 0
-0.521271 0.745336 0.316554