# vtk DataFile Version 2.0
tet_velo
ASCII
DATASET UNSTRUCTURED_GRID
POINTS 29498 float
-0.518995 0.075 -2.005
-0.625 0.215 1.95069
-0.705 0.625 -1.72462
-0.696873 0.805 1.715
0.518994 0.075 -2.005
0.625 0.215 1.95071
0.705 0.625 -1.72462
0.696864 0.805 1.715
-0.580638 0.0953588 -0.686437
-0.659138 0.0988599 0.632127
-0.808289 0.790998 -0.57808
-0.779851 0.825269 0.56846
0.580632 0.0953637 -0.68643
0.65914 0.098858 0.63214
0.808284 0.790996 -0.57808
0.779847 0.825271 0.56846
-1.20247 -0.311243 -3.03343
-1.2041 -0.252694 -2.04747
-1.25807 -0.233686 -0.724459
-1.31961 -0.225878 0.633173
-1.31678 -0.147697 1.9591
-1.3116 -0.0966454 2.95934
-1.31499 -0.060307 3.93314
-1.20889 -0.000778647 -2.95508
-1.22086 0.0736791 -1.98792
-1.28941 0.109121 -0.698377
-1.34693 0.109082 0.606645
-1.31875 0.178643 1.89948
-1.31184 0.227922 2.89729
-1.31718 0.264961 3.8767
-1.2927 0.600217 -2.75011
-1.37478 0.674034 -1.77583
-1.46447 0.792457 -0.603562
-1.45811 0.813388 0.556518
-1.39029 0.812786 1.73208
-1.35477 0.860701 2.737
-1.34429 0.90864 3.74415
-1.36405 1.59028 -2.57199
-1.41155 1.67108 -1.62348
-1.46433 1.78054 -0.506983
-1.48102 1.83762 0.572432
-1.45907 1.85305 1.69072
-1.42952 1.87356 2.64299
-1.40591 1.90789 3.63135
-0.555509 -0.311476 -3.04452
-0.551982 -0.250969 -2.06366
-0.589571 -0.240683 -0.722285
-0.64738 -0.232332 0.654924
-0.647985 -0.128452 1.99712
-0.638029 -0.0833146 2.98514
-0.637757 -0.0537379 3.94807
-0.544414 -0.00628689 -2.9585
-0.629002 0.241298 2.91856
-0.635373 0.270761 3.88796
-0.605344 0.57847 -2.72883
-0.65929 0.860644 2.73358
-0.653601 0.909228 3.74342
-0.663151 1.5777 -2.55095
-0.698184 1.66042 -1.6003
-0.742615 1.78026 -0.493013
-0.764734 1.84076 0.570757
-0.753436 1.85193 1.67875
-0.729022 1.8709 2.63104
-0.709162 1.90574 3.62267
0.644136 -0.311475 -3.04452
0.576096 -0.250968 -2.06366
0.613506 -0.24068 -0.722278
0.656802 -0.232332 0.654936
0.638828 -0.128452 1.99714
0.675237 -0.0833147 2.98515
0.699121 -0.0537377 3.94808
0.659095 -0.00628671 -2.9585
0.686242 0.241298 2.91858
0.706515 0.270761 3.88797
0.722375 0.57847 -2.72883
0.707504 0.860645 2.73359
0.711249 0.909228 3.74343
0.733873 1.5777 -2.55095
0.733743 1.66042 -1.6003
0.725543 1.78026 -0.493012
0.698512 1.84076 0.570759
0.677353 1.85193 1.67876
0.678238 1.8709 2.63104
0.683748 1.90574 3.62267
1.26844 -0.311242 -3.03342
1.21255 -0.252692 -2.04747
1.26142 -0.233682 -0.724448
1.32219 -0.225877 0.633192
1.31685 -0.147697 1.95912
1.34276 -0.0966453 2.95936
1.36844 -0.0603067 3.93316
1.28189 -0.000778017 -2.95508
1.21228 0.07368 -1.98791
1.27701 0.109126 -0.698368
1.34439 0.109082 0.606662
1.3238 0.178643 1.8995
1.35299 0.227922 2.89731
1.37667 0.264961 3.87672
1.36735 0.600217 -2.7501
1.36689 0.674033 -1.77583
1.44833 0.792457 -0.603559
1.44876 0.813391 0.556524
1.38875 0.812786 1.73209
1.38498 0.860701 2.73701
1.38974 0.908641 3.74416
1.42161 1.59028 -2.57198
1.43236 1.67108 -1.62347
1.43952 1.78054 -0.50698
1.41865 1.83762 0.572437
1.39004 1.85305 1.69073
1.38022 1.87356 2.643
1.37823 1.90789 3.63136
-0.626604 0.35 -1.87942
-5.06639e-07 0.0720119 -2.00799
-0.559879 0.0751164 -1.34572
-0.686997 0.51 1.85891
0 0.159769 2.00593
-0.701267 0.0977317 1.29141
0 0.689842 -1.78946
-0.80302 0.754374 -1.15135
-4.50015e-06 0.862285 1.77229
-0.77321 0.849983 1.14173
0.626604 0.35 -1.87942
0.559877 0.0751178 -1.34572
0.687032 0.51 1.85895
0.701276 0.0977226 1.29143
0.803044 0.7544 -1.15135
0.773181 0.849961 1.14173
-0.620167 0.096831 -0.027155
-0.859285 0.443178 -0.632258
-2.77701e-06 0.0984815 -0.686434
-0.857405 0.462064 0.600293
7.84693e-07 0.100433 0.632133
-0.791269 0.805332 -0.00480998
-2.55899e-06 1.02514 -0.57808
-1.58555e-06 1.21637 0.56846
0.620168 0.0968294 -0.027145
0.859272 0.44318 -0.632255
0.857414 0.462065 0.6003
0.791272 0.80534 -0.00480998
-0.862665 0.396589 -1.24853
-0.860683 0.452621 -0.0159825
-0.879742 0.486032 1.21657
-1.64182e-06 0.0732756 -1.34572
-9.96158e-07 0.100043 -0.02715
3.92346e-07 0.0981686 1.29142
-2.5332e-07 0.35 -2.02
-2.25008e-06 0.51 1.93868
-1.27949e-06 0.824297 -1.15135
-2.07227e-06 1.2136 -0.00480998
-3.04285e-06 1.03922 1.14173
0.862707 0.39659 -1.24853
0.860681 0.452622 -0.0159775
0.879744 0.486032 1.21658
-0.869925 0.0743396 -1.99646
-0.535489 -0.0879846 -2.03433
-0.531704 0.0343566 -2.48175
-0.971875 0.196822 1.92508
-0.636492 0.043274 1.97391
-0.627001 0.228149 2.43463
-1.03989 0.649517 -1.75022
-0.655172 0.601735 -2.22673
-0.701592 1.14271 -1.66246
-1.04358 0.808893 1.72354
-0.678081 0.832822 2.22429
-0.725155 1.32846 1.69688
0.547545 -0.0879841 -2.03433
0.589044 0.0343566 -2.48175
0.865636 0.07434 -1.99646
0.631914 0.0432738 1.97393
0.655621 0.228149 2.43464
0.974402 0.196821 1.92511
0.713687 0.601735 -2.22673
0.719371 1.14271 -1.66246
1.03594 0.649517 -1.75022
0.702184 0.832822 2.22429
0.687108 1.32846 1.69688
1.04281 0.808893 1.72354
-0.935026 0.10224 -0.692407
-0.585105 -0.0726621 -0.704361
-1.00303 0.103971 0.619386
-0.653259 -0.0667359 0.643525
-1.13638 0.791728 -0.590821
-0.775452 1.28563 -0.535547
-1.11898 0.819329 0.562489
-0.772292 1.33302 0.569609
0.597069 -0.0726581 -0.704354
0.928821 0.102245 -0.692399
0.657971 -0.0667371 0.643538
1.00177 0.10397 0.619401
0.766914 1.28563 -0.535546
1.12831 0.791727 -0.590819
0.739179 1.33302 0.56961
1.1143 0.819331 0.562492
-1.20329 -0.281968 -2.54045
-1.20568 -0.156011 -2.99425
-0.87899 -0.311359 -3.03897
-1.23108 -0.24319 -1.38596
-1.21248 -0.0895072 -2.01769
-0.878041 -0.251831 -2.05556
-1.28884 -0.229782 -0.0456428
-1.27374 -0.0622821 -0.711418
-0.923818 -0.237184 -0.723372
-1.31819 -0.186787 1.29614
-1.33327 -0.0583979 0.619909
-0.983494 -0.229105 0.644049
-1.31419 -0.122171 2.45922
-1.31777 0.0154733 1.92929
-0.982383 -0.138074 1.97811
-1.3133 -0.0784762 3.44624
-1.31172 0.0656382 2.92831
-0.974817 -0.08998 2.97224
-1.31609 0.102327 3.90492
-0.976375 -0.0570225 3.94061
-1.21487 0.0364502 -2.4715
-1.25079 0.299719 -2.85259
-0.876654 -0.00353277 -2.95679
-1.25513 0.0914003 -1.34315
-1.29782 0.373856 -1.88187
-1.31817 0.109102 -0.0458661
-1.37694 0.450789 -0.65097
-1.33284 0.143862 1.25306
-1.40252 0.461235 0.581581
-1.31529 0.203282 2.39838
-1.35452 0.495714 1.81578
-1.31451 0.246441 3.38699
-1.3333 0.544311 2.81714
-0.97042 0.23461 2.90793
-1.33073 0.5868 3.81042
-0.976276 0.267861 3.88233
-1.33374 0.637125 -2.26297
-1.32837 1.09525 -2.66105
-0.94902 0.589344 -2.73947
-1.41963 0.733245 -1.1897
-1.39316 1.17256 -1.69965
-1.46129 0.802923 -0.0235221
-1.4644 1.2865 -0.555273
-1.4242 0.813087 1.1443
-1.46957 1.3255 0.564475
-1.37253 0.836743 2.23454
-1.42468 1.33292 1.7114
-1.34953 0.884671 3.24057
-1.39214 1.36713 2.68999
-1.00703 0.860673 2.73529
-1.3751 1.40826 3.68775
-0.998943 0.908934 3.74379
-1.3878 1.63068 -2.09773
-1.0136 1.58399 -2.56147
-1.43794 1.72581 -1.06523
-1.05487 1.66575 -1.61189
-1.47267 1.80908 0.0327243
-1.10347 1.7804 -0.499998
-1.47004 1.84533 1.13158
-1.12288 1.83919 0.571595
-1.44429 1.8633 2.16686
-1.10625 1.85249 1.68474
-1.41772 1.89072 3.13717
-1.07927 1.87223 2.63701
-1.05754 1.90681 3.62701
-0.553746 -0.281222 -2.55409
-0.549961 -0.158881 -3.00151
0.0443135 -0.311475 -3.04452
-0.570777 -0.245826 -1.39297
0.0120566 -0.250969 -2.06366
-0.618476 -0.236507 -0.0336801
0.0119676 -0.240681 -0.722281
-0.647682 -0.180392 1.32602
0.00471132 -0.232332 0.65493
-0.643007 -0.105883 2.49113
-0.00457835 -0.128452 1.99713
-0.637893 -0.0685263 3.4666
-0.633516 0.0789915 2.95185
0.0186036 -0.0833146 2.98514
-0.636565 0.108512 3.91802
0.0306824 -0.0537378 3.94808
-0.574879 0.286092 -2.84366
0.0573405 -0.0062868 -2.9585
-0.632188 0.256029 3.40326
-0.644146 0.550971 2.82607
0.0286199 0.241298 2.91857
-0.644487 0.589995 3.81569
0.0355711 0.270761 3.88797
-0.634248 1.07808 -2.63989
0.0585155 0.57847 -2.72883
-0.656446 0.884936 3.2385
-0.694156 1.36577 2.68231
0.0241069 0.860645 2.73359
-0.681382 1.40748 3.68304
0.028824 0.909228 3.74342
-0.680668 1.61906 -2.07563
0.0353607 1.5777 -2.55095
-0.7204 1.72034 -1.04666
0.017779 1.66042 -1.6003
-0.753675 1.81051 0.0388721
-0.0085359 1.78026 -0.493012
-0.759085 1.84635 1.12476
-0.0331113 1.84076 0.570758
-0.741229 1.86141 2.1549
-0.0380417 1.85193 1.67876
-0.719092 1.88832 3.12685
-0.0253921 1.8709 2.63104
-0.0127071 1.90574 3.62267
0.610116 -0.281222 -2.55409
0.651615 -0.158881 -3.00151
0.956289 -0.311358 -3.03897
0.594801 -0.245824 -1.39297
0.894324 -0.25183 -2.05556
0.635154 -0.236506 -0.0336712
0.937463 -0.237181 -0.723363
0.647815 -0.180392 1.32604
0.989496 -0.229105 0.644064
0.657032 -0.105883 2.49114
0.977837 -0.138075 1.97813
0.687179 -0.0685262 3.46662
0.680739 0.0789915 2.95186
1.009 -0.08998 2.97225
0.702818 0.108512 3.91803
1.03378 -0.0570222 3.94062
0.690735 0.286092 -2.84366
0.970494 -0.00353236 -2.95679
0.696379 0.256029 3.40327
0.696873 0.550971 2.82608
1.01961 0.23461 2.90794
0.708882 0.589995 3.8157
1.04159 0.267861 3.88235
0.728124 1.07808 -2.63989
1.04486 0.589344 -2.73947
0.709376 0.884937 3.23851
0.692871 1.36577 2.68231
1.04624 0.860673 2.7353
0.697498 1.40748 3.68305
1.0505 0.908935 3.7438
0.733808 1.61906 -2.07563
1.07774 1.58399 -2.56147
0.729643 1.72034 -1.04666
1.08305 1.66575 -1.61189
0.712027 1.81051 0.0388739
1.08253 1.7804 -0.499996
0.687932 1.84635 1.12476
1.05858 1.83919 0.571598
0.677795 1.86141 2.1549
1.0337 1.85249 1.68474
0.680993 1.88832 3.12685
1.02923 1.87223 2.63702
1.03099 1.90681 3.62702
1.2405 -0.281967 -2.54044
1.27517 -0.15601 -2.99425
1.23699 -0.243187 -1.38596
1.21242 -0.0895059 -2.01769
1.2918 -0.229779 -0.0456282
1.26921 -0.0622779 -0.711408
1.31952 -0.186787 1.29616
1.33329 -0.0583975 0.619927
1.3298 -0.122171 2.45924
1.32033 0.0154728 1.92931
1.3556 -0.078476 3.44626
1.34787 0.0656383 2.92833
1.37256 0.102327 3.90494
1.24709 0.036451 -2.47149
1.32462 0.29972 -2.85259
1.24464 0.0914029 -1.34314
1.28958 0.373857 -1.88187
1.3107 0.109104 -0.0458531
1.36267 0.450792 -0.650963
1.3341 0.143862 1.25308
1.39658 0.461237 0.581593
1.3384 0.203282 2.39841
1.35628 0.495714 1.8158
1.36483 0.246441 3.38701
1.36899 0.544312 2.81716
1.38321 0.586801 3.81044
[...]
POINT_DATA 29498
VECTORS point_vectors float
-3.20277 -9.07348 12.6142
0.117285 -0.0763535 0.140344
-0.976651 0.714835 1.76513
-0.113281 -0.172874 0.195092
3.20824 -9.07605 12.613
-0.127279 -0.069969 0.156462
0.996237 0.713568 1.7512
0.113412 -0.170353 0.189763
0 0 0
-0.00158393 -5.20399e-05 0.0588824
0 0 0
0 0 0
0 0 0
0.00156447 -4.16925e-05 0.0578033
0 0 0
0 0 0
-0.58158 -0.371242 19.7099
-1.42977 -1.19835 20.2059
-0.492768 -0.659699 21.4823
0.0241748 -0.213429 21.545
0.753016 0.284002 21.488
1.16532 0.37799 21.1102
1.08456 0.26106 20.4798
-0.776558 -0.30872 19.5411
-2.44562 -1.17103 20.0008
-0.771457 -0.721353 21.6024
-0.0622711 -0.308687 21.6549
0.983523 0.019647 21.5306
1.34875 0.0355661 21.2373
1.59408 0.0699652 19.8532
-1.08736 0.108292 19.4303
-2.3807 0.310655 20.3251
-1.28762 -0.243976 21.4258
-0.33821 -0.313651 21.6536
0.53739 -0.560957 21.5638
0.940166 -0.724755 21.2731
1.00909 -0.592641 20.689
-0.645806 0.536896 19.9031
-0.944247 0.7198 20.4304
-0.841808 0.482062 21.0935
-0.382886 0.0735346 21.3799
-0.0336117 -0.248897 21.279
0.150324 -0.434778 21.112
0.232603 -0.402493 20.8063
-0.434174 -0.638256 19.2718
-1.31063 -3.52258 20.2597
0.125178 -0.362251 21.6939
0.105716 0.0750923 20.3
0.19863 1.18172 17.3985
0.748006 1.69617 17.5235
0.878462 1.64544 17.7267
-0.646151 -0.650307 18.7424
1.57019 0.89674 7.86968
1.95571 1.05674 11.7392
-1.20902 0.369658 17.9439
0.10004 -1.13499 5.08705
0.955804 -1.18316 10.2139
-0.555437 1.04438 19.5008
-0.947362 1.70543 20.2202
-1.09646 1.49881 21.2272
-0.49159 0.380758 21.7596
-0.151814 -0.226781 21.4373
-0.00229523 -0.509848 21.2584
0.0916177 -0.695361 20.844
0.485786 -0.604647 19.3342
1.35215 -3.44912 20.2139
-0.134686 -0.385898 21.7068
-0.110264 0.0699929 20.3463
-0.22005 1.16143 17.3918
-0.840916 1.66578 17.8631
-0.897517 1.45097 18.2547
0.705295 -0.559952 18.8905
-1.79388 0.935883 9.09682
-1.98774 0.863421 12.3263
1.29364 0.333268 18.2218
-0.27323 -1.07066 6.71792
-1.02832 -1.12316 11.6915
0.592843 1.01116 19.5415
0.972596 1.653 20.2342
1.08068 1.5314 21.2202
0.479617 0.420873 21.7893
0.159908 -0.200787 21.4603
0.00841447 -0.50251 21.2598
-0.0880828 -0.696619 20.8337
0.576857 -0.350536 19.7466
1.41495 -1.18589 20.2134
0.486137 -0.659774 21.4804
-0.0267865 -0.218433 21.5421
-0.741222 0.26664 21.4865
-1.11476 0.330707 21.1477
-1.0704 0.207757 20.4348
0.785272 -0.285478 19.6026
2.48337 -1.20571 19.9805
0.77328 -0.738036 21.6088
0.0643279 -0.315537 21.6513
-0.966459 0.00763973 21.527
-1.2836 -0.00291946 21.2304
-1.41971 0.00781774 20.1306
1.00735 0.104022 19.537
2.40984 0.321004 20.3207
1.31104 -0.251605 21.432
0.343593 -0.321746 21.661
-0.52996 -0.561974 21.5607
-0.915721 -0.697222 21.2469
-0.981461 -0.558349 20.7122
0.637868 0.49822 19.9403
0.939592 0.700787 20.4326
0.855245 0.506648 21.0975
0.404403 0.0979458 21.4081
0.0436847 -0.253352 21.2797
-0.147134 -0.442105 21.1139
-0.239282 -0.414619 20.8089
-0.0527515 -0.010123 0.0631032
-3.90988e-05 -0.575021 1.88608
-0.0193593 0.00235407 0.16717
-0.0556715 -0.0812715 0.0136913
-0.000337818 0.0162275 0.0885624
-0.0154192 0.00476668 0.308368
6.62075e-06 0.0131987 0.0413124
-0.233677 -0.164087 0.6733
-0.000296131 0.00540366 -0.0147352
0.00802549 0.00752221 0.0596059
0.0496224 -0.00953152 0.0594044
0.0194322 0.00236824 0.16735
0.0555344 -0.0818038 0.0142808
0.0149023 0.0046573 0.308293
0.232058 -0.162899 0.675866
-0.00793178 0.00745035 0.0586022
-0.00127578 0.000218888 0.0325405
-0.00019447 -0.00235824 0.0838145
0 0 0
-0.000167326 0.00757152 0.0446386
-5.95638e-06 -1.27646e-05 0.00691037
0 0 0
1.91591e-05 0.00209136 0.00500631
0.000746105 -0.00535591 0.490612
0.00124884 0.000210486 0.0324507
0.000192387 -0.00251573 0.0835537
0.000171712 0.00764431 0.0449528
1.66005e-17 -2.04091e-17 -1.1269e-16
0 0 0
-0.000378689 0.0231285 0.186299
0 0 0
-1.59101e-07 1.591e-08 2.63887e-05
-1.0687e-08 6.1406e-08 1.37084e-05
-2.46596e-07 1.28268e-06 0.000202503
-0.00513183 0.0273936 0.00627899
0 0 0
0.00100733 0.0463341 0.167414
-6.03162e-05 0.00207647 0.0174887
-1.42893e-05 0.000955305 -0.00298845
0 0 0
0.00037456 0.0229385 0.186399
0 0 0
-4.13337 -3.26443 19.0736
-2.16897 -5.87625 20.0748
-1.76867 -2.0056 17.3791
1.411 0.792923 13.7416
0.162593 0.901535 7.50595
0.991187 0.0782679 4.19756
-4.81225 1.16748 19.9689
-3.91515 2.00051 15.97
-2.13948 2.96127 20.0276
0.950147 -0.529638 17.1913
-0.726175 -0.756211 2.8971
-0.0276737 -0.545946 19.376
2.16666 -5.6887 20.1135
1.79462 -1.79965 17.6474
4.24743 -3.42819 19.0413
-0.235181 0.909611 7.47737
-1.13626 0.224428 5.00215
-1.3935 0.936852 13.7972
3.84065 1.67065 16.5085
2.16522 2.89295 20.0426
4.85501 1.1966 19.9555
0.628351 -0.7855 3.33466
0.00911241 -0.502928 18.5367
-0.942284 -0.514791 17.2796
-0.360192 -0.125997 12.9201
-0.0946336 0.110168 14.2745
-0.0584781 0.0822213 15.2137
-0.106837 0.0872632 12.9362
-1.96845 -0.811727 21.5778
-2.96651 2.02835 21.4165
-0.272402 -0.454811 19.76
-0.755087 0.114051 21.4904
0.0940382 0.0858067 14.3952
0.376884 -0.084701 12.3147
0.106093 0.0863428 12.9985
0.0581309 0.0820381 15.1263
2.95803 2.07622 21.3934
2.00204 -0.838156 21.5421
0.724054 0.144238 21.268
0.274804 -0.457929 19.6856
-0.984442 -0.732793 19.7356
-0.667777 -0.348835 19.6171
-0.564623 -0.529881 19.4699
-1.0881 -1.12477 21.2545
-1.86296 -1.25655 20.1228
-1.63021 -2.21466 20.065
-0.193435 -0.40169 21.4695
-0.608267 -0.690401 21.5326
-0.153782 -0.786001 21.7575
0.33944 0.0128188 21.6419
-0.0023751 -0.261629 21.6084
0.135269 -0.178739 21.3625
0.954302 0.35108 21.2748
0.886219 0.177413 21.5895
0.824217 0.84605 20.3948
1.10582 0.384011 20.8624
1.28485 0.223104 21.0934
1.28533 1.01271 20.0729
1.37092 0.157053 20.1129
1.0526 0.77721 20.5154
-1.47923 -0.647562 19.4525
-0.955621 -0.150538 19.4246
-0.801045 -0.502784 19.1307
-1.77011 -1.12446 21.518
-2.80411 -0.420072 20.1107
-0.346175 -0.492922 21.6358
-1.06984 -0.58576 21.5586
0.375004 -0.135935 21.742
-0.170396 -0.342173 21.6908
1.216 0.0331841 21.3118
0.878846 -0.351669 21.5038
1.32068 -0.0435909 21.396
1.32403 -0.420898 21.2782
1.90925 0.70964 16.7511
1.28408 -0.32146 20.5507
1.63566 0.238745 18.305
-1.83291 0.231784 19.5679
-0.939497 0.459506 19.6305
-1.28007 0.248291 18.788
-1.86747 -0.0192856 21.2092
-1.58871 0.762019 20.3665
-0.801 -0.335982 21.6063
-1.25001 0.278728 21.2554
0.0804777 -0.364745 21.7068
-0.461037 -0.111028 21.5675
0.741169 -0.671982 21.4006
0.114364 -0.442701 21.4407
1.05211 -0.655872 21.3126
0.373796 -0.690332 21.2738
1.18067 -0.938977 17.596
0.471034 -0.612273 20.8897
1.15805 -1.03491 18.0863
-0.848802 0.683035 20.1077
-0.683345 0.77102 19.7011
-0.950638 0.645941 20.779
-1.09155 1.17865 20.3417
-0.637283 0.277518 21.2987
-1.0356 0.88013 21.1705
-0.18241 -0.109741 21.3703
-0.462285 0.199693 21.5699
0.0822023 -0.333786 21.2595
-0.0817635 -0.262276 21.3727
0.235888 -0.483191 21.0251
0.10108 -0.499734 21.1666
0.283939 -0.618835 21.0667
-0.895846 -1.64264 18.9512
-0.524429 -0.659605 19.0378
0.0522884 -0.775003 19.0752
-0.18706 -1.5389 22.3874
0.0316799 -4.39013 20.7676
0.135003 -0.0717625 20.8378
-0.00391125 -0.278416 21.2224
0.0639891 0.425805 18.8184
-0.00268952 0.0640469 19.3988
0.460609 1.44443 17.5637
-0.00884886 0.923039 15.6965
1.09996 1.65481 17.2075
1.19845 1.50077 11.8113
-0.0212815 1.53974 15.5679
1.31607 1.43092 15.044
-0.0392762 2.07557 16.4948
-0.933398 -0.328554 18.1937
0.0969421 -0.811158 18.409
2.01318 1.384 10.6163
1.31204 -0.288677 4.45812
-0.036913 0.398545 2.06182
2.33147 0.133935 9.11624
-0.135431 1.40531 5.85821
-0.949649 1.14418 18.702
0.167149 0.622703 16.9881
1.21713 -1.35968 8.48079
0.076331 -0.93931 19.7364
0.0466436 1.21953 -5.28792
0.369606 -1.06504 20.0066
-0.118981 0.653452 -1.76636
-0.789874 1.51655 19.764
0.0293042 1.32005 19.2885
-1.07782 1.66603 20.6809
0.0265915 2.25668 20.0612
-0.858889 0.980751 21.7
-0.0236877 2.43652 21.2181
-0.262563 -0.00971925 21.5885
-0.0357874 0.709056 22.0011
-0.0786116 -0.357966 21.3252
-0.024521 -0.0347831 21.5533
0.0769512 -0.62567 21.0982
-0.0107154 -0.373116 21.3925
-0.00927543 -0.595918 20.9332
0.938688 -1.54677 19.0258
0.588804 -0.619522 19.1146
0.563288 -0.47581 19.5322
0.194396 -1.54672 22.3447
1.6281 -2.15317 20.0648
-0.135214 -0.0887556 20.8939
0.173906 -0.782302 21.7418
-0.0696949 0.421534 18.8183
-0.135835 -0.181962 21.37
-0.487698 1.4336 17.7126
-0.79579 0.806665 20.3605
-1.15195 1.56019 17.6638
-1.3361 1.5316 12.5252
-1.30337 0.942491 20.2723
-1.34646 1.23308 15.612
-1.08327 0.672279 20.6152
1.00771 -0.298981 18.445
0.813833 -0.459109 19.2509
-2.24079 1.29929 11.6048
-1.34076 -0.433966 5.67571
-1.9271 0.569901 17.7822
-2.17826 -0.0237324 10.7908
-1.59146 0.121371 19.4552
1.01566 1.03315 18.858
1.2659 0.170296 18.9915
-1.39227 -1.33486 10.1966
-0.0745653 -0.918454 19.6941
-1.17979 -0.938741 18.4882
-0.381528 -1.05347 20.0103
-1.12739 -0.982926 18.9422
0.832226 1.45175 19.7919
0.691853 0.734729 19.733
1.08498 1.64537 20.6826
1.09013 1.14798 20.3531
0.845832 1.04479 21.7275
1.04368 0.908619 21.1691
0.259415 0.0111817 21.6037
0.473256 0.233192 21.6029
0.0910957 -0.341763 21.3321
0.092838 -0.256219 21.4077
-0.0681403 -0.620268 21.063
-0.0867929 -0.504722 21.1915
-0.269304 -0.643483 21.1018
0.965419 -0.695908 19.7742
0.669644 -0.324293 19.686
1.07747 -1.12179 21.2533
1.86822 -1.26304 20.123
0.18952 -0.404896 21.4636
0.613474 -0.705577 21.5282
-0.334433 0.000766896 21.6281
0.00602261 -0.270029 21.6047
-0.9406 0.331656 21.2814
-0.873998 0.161289 21.5833
-1.04656 0.29914 20.9652
-1.22729 0.182912 21.1276
-1.31509 0.116449 20.1313
1.44769 -0.610977 19.5098
0.928301 -0.15623 19.4972
1.78331 -1.16373 21.5372
2.8433 -0.424189 20.0962
0.347901 -0.503849 21.6402
1.08202 -0.60348 21.5843
-0.369231 -0.142805 21.7327
0.171129 -0.348191 21.6914
-1.18082 0.0122903 21.3103
-0.86639 -0.35342 21.4951
-1.23245 -0.0629001 21.4376
-1.24788 -0.415639 21.2577
-1.19352 -0.336174 20.744
1.76657 0.224455 19.6291
0.895824 0.409752 19.6973
1.89687 -0.012791 21.2201
1.58037 0.753358 20.37
0.813936 -0.348821 21.6202
1.28435 0.297939 21.2609
-0.0782514 -0.3676 21.7104
0.486797 -0.10139 21.5954
-0.718593 -0.653363 21.4046
-0.102377 -0.450706 21.4565
-1.02794 -0.633152 21.2902
-0.36641 -0.691418 21.2824
-0.467569 -0.606371 20.8935
0.829899 0.644235 20.1235
0.950032 0.647914 20.7782
0.660502 0.310524 21.3212
0.189687 -0.10546 21.3907
-0.0714042 -0.339335 21.2741
-0.220352 -0.495924 21.0093
-1.22025 -0.713802 19.6005
-1.24223 -1.90621 18.337
-1.05567 -1.1529 19.376
-1.81319 -1.15889 18.6283
-0.674565 -0.520033 19.3252
-2.57391 -2.85992 19.7613
-1.39101 -1.17655 21.4039
-0.146023 -0.625585 18.0758
-0.777532 -1.71118 21.7438
-1.15294 -1.84489 18.2939
-0.182748 -0.812386 20.3703
-0.24077 -0.443053 21.5463
-0.118526 0.076983 13.2351
0.0292297 -0.4196 21.5075
-0.175038 0.00934948 13.6494
0.0320084 -0.129105 19.3013
0.375048 -0.0461443 21.7102
-0.212036 0.25522 11.0389
0.358781 0.252192 21.0325
0.342077 0.440064 14.6472
1.05626 0.994176 17.1858
1.12811 0.232164 21.3463
0.612913 1.00809 9.92004
1.07886 0.96644 20.2009
1.62194 0.693233 15.6584
1.61792 1.01304 18.1376
1.21244 0.188417 21.1618
1.5634 1.64877 14.2512
1.39168 1.03199 20.2619
1.95078 0.700927 16.4639
1.37356 0.576851 18.8934
-1.77022 -0.276081 19.441
-3.25617 -0.793496 15.5928
-2.86233 0.673419 18.4926
-1.06745 -0.236108 18.8636
-6.1834 -0.963746 18.8425
-2.02808 -0.558489 21.4539
-2.82439 -0.198729 21.8474
-0.649995 -0.881987 18.3484
-0.54007 -0.486283 21.6746
-1.04397 -0.877447 20.7913
0.047836 0.0480422 16.9584
0.272572 -0.303084 21.7445
0.264396 -0.146721 18.8878
1.34212 -0.0322891 13.8928
1.15103 -0.418061 21.2774
-0.150801 -0.880485 1.89285
0.95011 -0.772943 17.7901
1.90337 -0.394251 15.9397
1.25203 -0.407777 21.4149
2.24834 -0.0014054 7.54289
1.44551 -1.05675 17.5063
1.83914 -0.489557 17.4223
-1.34128 0.670169 19.8636
-1.74842 2.34055 18.8216
-0.940677 1.06541 19.938
-1.04832 0.745897 19.2366
-2.11845 1.60637 20.2064
-1.50097 0.526667 20.9138
-2.36255 2.21092 20.6472
-1.13668 1.08916 20.7517
-1.93532 0.666207 21.4106
-0.884858 0.0605641 21.5083
-2.26009 0.99544 22.3698
-0.793514 0.560142 21.4872
-0.67314 -0.0565152 21.8763
-0.121011 -0.272205 21.5353
-0.109898 -0.316139 20.09
-0.224305 -0.0758239 21.4901
-0.0137321 -0.617463 21.5704
0.257201 -0.533949 21.3286
-0.0268619 -0.670757 19.5592
0.0117371 -0.389396 21.2932
0.26839 -0.885841 21.2675
0.459313 -0.663684 21.0072
0.225414 -1.1797 20.4604
0.174197 -0.603665 20.9611
0.507681 -0.973144 20.7329
1.31369 -1.79891 18.4712
0.0511584 -2.13792 18.5879
0.142121 -2.83189 16.129
0.0659427 -0.812121 18.778
0.00275687 -6.99126 21.9747
0.135691 -0.691838 18.1832
0.00557466 -1.45528 22.5955
-0.00289042 0.117918 11.4439
0.116058 0.0690116 13.3018
-0.00505317 -0.0408684 20.0647
-0.0059541 0.0573808 10.8764
0.203184 0.252413 11.0338
-0.00631054 0.316258 17.3157
-0.0119155 0.64205 7.01819
-0.781736 1.03914 10.3907
-0.0145919 1.12264 15.4341
-0.0103923 -0.150875 1.65437
-0.0433492 1.19356 8.69423
-1.67936 1.50556 14.7521
-0.0252405 1.89624 16.2721
-0.0820024 1.60753 4.59589
-0.132742 1.81486 11.3077
3.24425 -0.745846 16.1421
0.237589 4.57709 12.4647
0.102024 -0.431368 17.5256
0.0386282 -0.917454 2.35067
0.0303562 0.517492 -4.25602
-0.0136441 0.88215 -3.42641
-2.22582 -0.164607 9.28544
-0.121033 1.09614 -5.45842
-0.163233 1.34492 -0.159904
1.78192 2.18684 18.9215
0.0267138 1.95567 19.5702
0.0674716 1.59538 18.2011
0.0309692 4.14 19.8084
2.35466 2.18306 20.6587
0.0104217 2.42115 20.496
-0.0126698 5.02145 20.5864
2.31723 1.10339 22.3963
-0.0351932 1.70923 21.9945
-0.0389265 0.625533 19.9313
0.0843675 -0.313725 19.7214
-0.0264113 0.17705 21.699
-0.0356358 0.0422898 10.6798
0.0430734 -0.63362 19.2522
-0.017934 -0.189087 21.3939
-0.0259752 -0.213882 12.3706
-0.228636 -1.1715 20.4137
-0.00107875 -0.641034 21.0952
-0.00465537 -0.81837 14.8119
1.19747 -0.682475 19.6478
1.05311 -1.08104 19.4384
1.79376 -1.07508 18.7551
0.677314 -0.465568 19.3988
2.56153 -2.79091 19.769
1.39749 -1.18981 21.4044
0.806591 -1.6951 21.7173
1.07321 -1.74836 17.7241
0.187094 -0.827432 20.4673
0.244065 -0.453396 21.5437
-0.022633 -0.422661 21.5036
0.178477 0.017343 13.361
-0.0332222 -0.13296 19.3445
-0.368954 -0.0539735 21.7059
-0.358918 0.245536 21.0285
-0.3419 0.432433 14.6673
-0.717614 0.981244 17.0289
-1.09102 0.209793 21.3469
-1.0593 0.953342 20.2631
-1.65309 0.584786 16.4102
-1.61826 0.88568 18.8395
-1.14564 0.10197 21.2717
-1.41219 0.958784 20.2339
-1.85122 0.542323 17.5179
-1.33635 0.467608 20.054
1.72065 -0.279096 19.4947
2.6958 0.546236 18.7113
1.07621 -0.207773 19.0284
6.24883 -0.970384 18.7963
2.05113 -0.568781 21.4728
2.84503 -0.205355 21.85
0.606883 -0.880249 17.8842
0.544709 -0.498261 21.683
1.05615 -0.900395 20.6736
-0.049396 0.0594138 16.817
-0.269154 -0.307435 21.7385
-0.258568 -0.134484 18.8086
-1.32602 -0.0286362 13.9187
-1.10833 -0.410448 21.2793
-0.929118 -0.780696 18.1872
-1.87092 -0.358587 17.3406
-1.21462 -0.416277 21.3842
-1.35095 -0.993286 18.4106
-1.80516 -0.453082 18.3868
1.28466 0.620695 19.9019
0.94374 1.02852 19.9578
1.0671 0.690722 19.3053
2.10453 1.56361 20.2153
1.50892 0.534833 20.913
1.13316 1.08306 20.7504
1.97469 0.704399 21.4066
0.924593 0.0765556 21.5295
0.811076 0.606343 21.5072
0.710453 -0.0375335 21.9192
0.125902 -0.269472 21.5502
0.231387 -0.0604347 21.512
0.0495697 -0.619678 21.59
-0.250548 -0.541668 21.3307
0.0065719 -0.39977 21.291
-0.2586 -0.879004 21.2649
-0.453766 -0.659623 21.0175
-0.162876 -0.601692 20.9738
-0.500981 -0.957843 20.7608
-1.42136 -1.24154 19.0647
-0.965911 -2.18074 22.1391
-0.0477116 -0.377535 19.5604
0.302434 0.366968 18.4123
1.38487 0.980297 17.5989
1.77299 0.986989 17.9967
-2.67693 -0.463256 18.1796
-2.45186 -1.05535 21.4535
-0.150425 -0.40819 17.3498
0.361759 0.183002 16.2399
1.50712 -0.311398 15.1019
2.15873 -0.419114 16.7455
-1.72755 1.31127 19.4476
-2.05611 1.08689 20.9143
-1.3801 0.248386 21.8548
-0.223225 -0.333993 21.7427
0.103055 -0.741645 21.4533
0.40755 -0.95737 20.9026
0.0901016 -2.62771 17.6693
0.00129491 -0.526357 14.8701
-0.00516307 0.0645627 10.9216
-0.00738605 0.143108 9.36098
-0.0185409 0.591635 7.53844
-0.0628767 1.88452 10.5884
0.216178 -0.854577 12.4789
0.0289909 -0.127934 -1.98603
-0.151577 0.735592 -3.10267
0.0807404 3.54175 18.2856
0.018654 3.87748 19.9801
-0.0504545 3.14323 22.5922
-0.0164363 -0.0267969 14.7496
-0.0280992 0.058172 11.5979
-0.016923 -0.780939 14.0756
1.40206 -1.15965 19.1599
0.993663 -2.17085 22.1529
0.0499846 -0.383571 19.6146
-0.303402 0.360602 18.4244
-1.42558 0.914909 18.0978
-1.69156 0.847864 18.944
2.55432 -0.443551 18.4187
2.39573 -1.06163 21.2164
0.13976 -0.395702 17.1144
-0.356894 0.18311 16.1683
-1.50927 -0.292278 15.9328
-2.04731 -0.363727 17.7622
1.71379 1.2346 19.5019
2.05186 1.08832 20.9128
1.44433 0.287986 21.8862
0.241666 -0.334489 21.7552
-0.0804839 -0.736504 21.4525
-0.402135 -0.945955 20.9102
-0.469958 -0.274648 0.45081
0.0878277 -1.50515 2.73342
-0.0180903 -0.000709461 0.204956
0.00904879 -0.0650371 0.0168263
0.000808019 0.034343 0.165968
-0.144378 0.147807 0.896663
-0.100659 0.0315121 0.136134
-0.00773127 0.16259 0.411412
-0.318375 0.188594 0.889196
-0.0192632 -0.0492614 2.46569e-05
-0.0132042 0.00175889 -0.00757602
0.0072332 -0.0566215 0.456021
-0.082881 -1.50265 2.73326
0.477478 -0.277929 0.457917
0.0181341 -0.000747882 0.205309
-0.00183973 0.0341576 0.165171
-0.0109166 -0.0637562 0.0186124
0.14573 0.149745 0.920353
0.00766966 0.163266 0.413292
0.10034 0.0312079 0.135951
0.319539 0.189106 0.892747
0.0129882 0.00224607 -0.00837574
0.0189894 -0.0478671 -0.000244173
-0.0070749 -0.0559272 0.450861
-0.00188624 0.00103814 0.0574704
-0.000143296 2.27106e-05 0.0036939
0 0 0
0.000373431 0.000246187 0.0215674
-0.0131792 0.00610648 0.166309
-0.00183154 0.000492669 0.0677704
0 0 0
-0.000308493 0.000193188 0.0333849
-0.224193 -0.179553 0.4937
-0.00010915 -5.38977e-05 0.0262679
0 0 0
-0.00990789 0.0118065 0.0296351
0 0 0
0 0 0
0 0 0
0.0153165 -0.00692417 0.0668727
0.0020407 0.00105374 0.0578591
-0.000411786 0.000247984 0.0216316
0.000165324 2.65129e-05 0.00437336
0 0 0
0.0130396 0.00608817 0.166073
0.000274474 0.000194699 0.0334465
0.0018281 0.000523762 0.0656736
0 0 0
0.225305 -0.179899 0.494302
0.0120391 0.0139431 0.0359175
0.000121024 -0.000167531 0.0264747
0 0 0
0 0 0
-0.0154771 -0.00727934 0.0695435
0 0 0
0 0 0
-0.172669 -0.0690484 0.8512
-1.20117 0.0361668 0.134382
-8.33436e-07 -1.06647e-06 7.11816e-05
-0.00391165 -2.49682 -0.00447844
0 0 0
-6.84721e-07 4.00799e-08 2.82669e-05
0.0488352 0.00817884 0.255353
0 0 0
-3.05949e-05 0.00178705 0.0209948
-0.00338815 -0.166941 0.00554547
0.000284666 0.00078651 0.0104425
-6.5709e-09 6.28842e-07 0.000107506
0 0 0
1.52195e-05 0.00173232 0.0106517
-0.000675282 -0.000786934 0.0117273
-0.00235327 0.0011758 0.0074199
-0.00438878 -0.0566376 0.000239626
0 0 0
0.00625893 0.0247839 0.372334
-0.000375591 -0.000138618 0.000434391
0 0 0
0.170918 -0.0687939 0.846084
1.22685e-06 7.51541e-08 5.1264e-05
0 0 0
0 0 0
-0.0489308 0.00769665 0.258957
-2.688e-07 7.88425e-07 0.000134745
-0.000269039 0.000744308 0.00989852
0.00226192 0.0011387 0.00719171
0.00498702 -0.00561129 0.0762702
0.000366307 -0.000129376 0.000388113
-0.00602998 0.0260629 0.381221
-2.44121e-19 4.7972e-18 7.24635e-17
0.000162849 0.000272656 0.0497172
0.00650602 -0.00560075 0.0997997
-0.000129797 0.00557285 0.0709232
-1.35341e-05 0.0008814 0.024646
7.63529e-08 -5.72666e-07 -8.15784e-05
-0.000701464 0.0340683 0.249088
-0.00445439 0.00163618 0.0845021
2.00088e-08 -1.39767e-07 -2.67767e-05
-9.8477e-08 9.49625e-08 0.000101305
0 0 0
-0.00395474 0.00621383 0.0798003
0 0 0
-2.47625e-05 0.00767651 0.0195337
2.32099e-06 -7.78654e-05 0.00134347
4.95761e-06 8.69375e-05 -0.000264915
-0.000214426 0.00027535 0.0498125
0 0 0
-0.0071676 -0.0062586 0.110093
0.000125246 0.00541087 0.0707867
0.000700136 0.0340189 0.248979
0.00463071 0.00207387 0.0945506
0.00965337 0.0141223 0.161134
-3.05146e-05 0.0003203 0.00184375
-0.189816 -0.0931244 0.652937
-0.0582839 -0.0385505 0.424381
0 0 0
0.00114114 -0.0114384 0.0303962
0 0 0
8.12327e-05 0.00108847 0.0106234
0 0 0
0 0 0
0 0 0
0 0 0
0.0550548 0.0143655 0.300349
0 0 0
-1.81151e-07 -5.50196e-08 4.19455e-06