# vtk DataFile Version 2.0
tri_press
ASCII
DATASET UNSTRUCTURED_GRID
POINTS 3682 float
-0.518995 0.075 -2.005
-0.625 0.215 1.95069
-0.705 0.625 -1.72462
-0.696873 0.805 1.715
0.518994 0.075 -2.005
0.625 0.215 1.95071
0.705 0.625 -1.72462
0.696864 0.805 1.715
-0.580638 0.0953588 -0.686437
-0.659138 0.0988599 0.632127
-0.808289 0.790998 -0.57808
-0.779851 0.825269 0.56846
0.580632 0.0953637 -0.68643
0.65914 0.098858 0.63214
0.808284 0.790996 -0.57808
0.779847 0.825271 0.56846
-1.20247 -0.311243 -3.03343
-1.2041 -0.252694 -2.04747
-1.25807 -0.233686 -0.724459
-1.31961 -0.225878 0.633173
-1.31678 -0.147697 1.9591
-1.3116 -0.0966454 2.95934
-1.31499 -0.060307 3.93314
-1.20889 -0.000778647 -2.95508
-1.22086 0.0736791 -1.98792
-1.28941 0.109121 -0.698377
-1.34693 0.109082 0.606645
-1.31875 0.178643 1.89948
-1.31184 0.227922 2.89729
-1.31718 0.264961 3.8767
-1.2927 0.600217 -2.75011
-1.37478 0.674034 -1.77583
-1.46447 0.792457 -0.603562
-1.45811 0.813388 0.556518
-1.39029 0.812786 1.73208
-1.35477 0.860701 2.737
-1.34429 0.90864 3.74415
-1.36405 1.59028 -2.57199
-1.41155 1.67108 -1.62348
-1.46433 1.78054 -0.506983
-1.48102 1.83762 0.572432
-1.45907 1.85305 1.69072
-1.42952 1.87356 2.64299
-1.40591 1.90789 3.63135
-0.555509 -0.311476 -3.04452
-0.551982 -0.250969 -2.06366
-0.589571 -0.240683 -0.722285
-0.64738 -0.232332 0.654924
-0.647985 -0.128452 1.99712
-0.638029 -0.0833146 2.98514
-0.637757 -0.0537379 3.94807
-0.544414 -0.00628689 -2.9585
-0.629002 0.241298 2.91856
-0.635373 0.270761 3.88796
-0.605344 0.57847 -2.72883
-0.65929 0.860644 2.73358
-0.653601 0.909228 3.74342
-0.663151 1.5777 -2.55095
-0.698184 1.66042 -1.6003
-0.742615 1.78026 -0.493013
-0.764734 1.84076 0.570757
-0.753436 1.85193 1.67875
-0.729022 1.8709 2.63104
-0.709162 1.90574 3.62267
0.644136 -0.311475 -3.04452
0.576096 -0.250968 -2.06366
0.613506 -0.24068 -0.722278
0.656802 -0.232332 0.654936
0.638828 -0.128452 1.99714
0.675237 -0.0833147 2.98515
0.699121 -0.0537377 3.94808
0.659095 -0.00628671 -2.9585
0.686242 0.241298 2.91858
0.706515 0.270761 3.88797
0.722375 0.57847 -2.72883
0.707504 0.860645 2.73359
0.711249 0.909228 3.74343
0.733873 1.5777 -2.55095
0.733743 1.66042 -1.6003
0.725543 1.78026 -0.493012
0.698512 1.84076 0.570759
0.677353 1.85193 1.67876
0.678238 1.8709 2.63104
0.683748 1.90574 3.62267
1.26844 -0.311242 -3.03342
1.21255 -0.252692 -2.04747
1.26142 -0.233682 -0.724448
1.32219 -0.225877 0.633192
1.31685 -0.147697 1.95912
1.34276 -0.0966453 2.95936
1.36844 -0.0603067 3.93316
1.28189 -0.000778017 -2.95508
1.21228 0.07368 -1.98791
1.27701 0.109126 -0.698368
1.34439 0.109082 0.606662
1.3238 0.178643 1.8995
1.35299 0.227922 2.89731
1.37667 0.264961 3.87672
1.36735 0.600217 -2.7501
1.36689 0.674033 -1.77583
1.44833 0.792457 -0.603559
1.44876 0.813391 0.556524
1.38875 0.812786 1.73209
1.38498 0.860701 2.73701
1.38974 0.908641 3.74416
1.42161 1.59028 -2.57198
1.43236 1.67108 -1.62347
1.43952 1.78054 -0.50698
1.41865 1.83762 0.572437
1.39004 1.85305 1.69073
1.38022 1.87356 2.643
1.37823 1.90789 3.63136
-0.626604 0.35 -1.87942
-5.06639e-07 0.0720119 -2.00799
-0.559879 0.0751164 -1.34572
-0.686997 0.51 1.85891
0 0.159769 2.00593
-0.701267 0.0977317 1.29141
0 0.689842 -1.78946
-0.80302 0.754374 -1.15135
-4.50015e-06 0.862285 1.77229
-0.77321 0.849983 1.14173
0.626604 0.35 -1.87942
0.559877 0.0751178 -1.34572
0.687032 0.51 1.85895
0.701276 0.0977226 1.29143
0.803044 0.7544 -1.15135
0.773181 0.849961 1.14173
-0.620167 0.096831 -0.027155
-0.859285 0.443178 -0.632258
-2.77701e-06 0.0984815 -0.686434
-0.857405 0.462064 0.600293
7.84693e-07 0.100433 0.632133
-0.791269 0.805332 -0.00480998
-2.55899e-06 1.02514 -0.57808
-1.58555e-06 1.21637 0.56846
0.620168 0.0968294 -0.027145
0.859272 0.44318 -0.632255
0.857414 0.462065 0.6003
0.791272 0.80534 -0.00480998
-0.862665 0.396589 -1.24853
0.862707 0.39659 -1.24853
-1.64182e-06 0.0732756 -1.34572
-1.27949e-06 0.824297 -1.15135
-2.5332e-07 0.35 -2.02
-0.860683 0.452621 -0.0159825
0.860681 0.452622 -0.0159775
-9.96158e-07 0.100043 -0.02715
-2.07227e-06 1.2136 -0.00480998
-0.879742 0.486032 1.21657
0.879744 0.486032 1.21658
3.92346e-07 0.0981686 1.29142
-3.04285e-06 1.03922 1.14173
-2.25008e-06 0.51 1.93868
-0.571277 0.2125 -1.94069
-0.259498 0.0720298 -2.00797
-0.540567 0.0739285 -1.67536
-0.664629 0.3625 1.91343
-0.3125 0.162601 2.00309
-0.719671 0.0998284 1.62105
-0.677355 0.4875 -1.81357
-0.3525 0.699847 -1.79947
-0.79007 0.725747 -1.43799
-0.689019 0.6575 1.78404
-0.348439 0.852143 1.76214
-0.758693 0.851142 1.42837
0.259497 0.0720137 -2.00799
0.571288 0.2125 -1.9407
0.540566 0.0739287 -1.67536
0.3125 0.162642 2.00306
0.664555 0.3625 1.91337
0.720122 0.0993777 1.62107
0.3525 0.699875 -1.7995
0.677386 0.4875 -1.8136
0.790091 0.725769 -1.43799
0.34843 0.852142 1.76214
0.688952 0.6575 1.78398
0.758661 0.851119 1.42837
-0.578787 0.0767097 -1.01608
-0.600668 0.0958294 -0.356796
-0.836234 0.211132 -0.659348
-0.291844 0.0938722 -0.686435
-0.68241 0.096089 0.961768
-0.639676 0.0978219 0.302486
-0.846593 0.236301 0.61621
-0.330651 0.0974828 0.63213
-0.807521 0.774553 -0.864715
-0.851089 0.625739 -0.605169
-0.799838 0.798224 -0.291445
-0.451385 1.00255 -0.57808
-0.775574 0.836669 0.855095
-0.846669 0.657687 0.584377
-0.785019 0.81476 0.281825
-0.457868 1.1567 0.56846
0.578815 0.07668 -1.01607
0.291841 0.0938705 -0.686432
0.600668 0.0958288 -0.356788
0.836197 0.211149 -0.659343
0.682408 0.0960902 0.961783
0.330652 0.0974828 0.632137
0.639676 0.0978211 0.302498
0.846589 0.236305 0.61622
0.807523 0.774557 -0.864715
0.449323 0.998431 -0.57808
0.851094 0.625746 -0.605168
0.799828 0.798218 -0.291445
0.775561 0.836663 0.855095
0.458022 1.15702 0.56846
0.846647 0.657676 0.58438
0.785003 0.814749 0.281825
-0.854803 0.373295 -1.56398
-0.313302 0.35 -2.00528
-1.07423e-06 0.0721029 -1.67685
-3.7998e-07 0.211006 -2.09327
-0.834942 0.235853 -1.29713
-0.279941 0.0732607 -1.34572
-0.861319 0.498016 1.53774
-0.3435 0.51 1.95011
1.96173e-07 0.10824 1.64867
-1.12504e-06 0.334885 2.11729
-0.871691 0.291882 1.25399
-0.350634 0.0978547 1.29141
-6.39747e-07 0.752423 -1.47041
-1.2666e-07 0.519921 -1.97967
-0.87192 0.575482 -1.19994
-0.401511 0.818904 -1.15135
-3.7715e-06 0.948092 1.45701
-3.37511e-06 0.686143 1.90848
-0.892798 0.668007 1.17915
-0.386607 1.02639 1.14173
0.854799 0.373295 -1.56397
0.313302 0.35 -1.97035
0.834959 0.235854 -1.29712
0.279938 0.0732595 -1.34572
0.861303 0.498016 1.53777
0.343515 0.51 1.9516
0.871667 0.291877 1.254
0.350638 0.0978528 1.29142
0.872593 0.575495 -1.19994
0.401521 0.818903 -1.15135
0.892845 0.667997 1.17915
0.386589 1.0264 1.14173
-0.847009 0.221434 -0.0215688
-0.311243 0.0961191 -0.0271525
-0.865671 0.419884 -0.940396
-0.860102 0.4479 -0.32412
-2.20942e-06 0.0745843 -1.01608
-1.88658e-06 0.0992602 -0.356792
-0.860803 0.457343 0.292155
-0.886317 0.474048 0.908431
-1.05733e-07 0.100836 0.302492
5.88519e-07 0.0968261 0.961775
-0.849692 0.640835 -0.0103962
-0.484326 1.18684 -0.00480998
-1.91924e-06 0.900341 -0.864715
-2.31563e-06 1.15037 -0.291445
-1.82891e-06 1.21074 0.281825
-2.3142e-06 1.11338 0.855095
0.846992 0.221442 -0.0215613
0.311242 0.096119 -0.0271475
0.865982 0.419885 -0.940394
0.860089 0.447901 -0.324116
0.860799 0.457344 0.292161
0.886316 0.474049 0.908439
0.849957 0.640971 -0.0103937
0.484413 1.18702 -0.00480998
-0.80909 0.224176 -1.61967
-0.8484 0.252561 -0.978237
-0.841236 0.596285 -0.902556
-0.863654 0.531491 -1.50098
0.809237 0.224177 -1.61967
0.863408 0.531497 -1.50098
0.841246 0.596291 -0.902554
0.848415 0.252563 -0.978233
-0.269719 0.0721112 -1.67611
0.269717 0.0721112 -1.67611
0.285126 0.0745375 -1.01607
-0.28513 0.0745376 -1.01608
-0.377005 0.776704 -1.4542
-0.402828 0.878968 -0.864715
0.402831 0.874859 -0.864715
0.377011 0.776699 -1.4542
-0.2864 0.211753 -2.05805
-0.332901 0.50371 -2.03062
0.332901 0.50371 -2.03093
0.286399 0.211753 -2.05802
-0.841829 0.216179 -0.340458
-0.852565 0.225986 0.297321
-0.848934 0.649638 0.28699
-0.85059 0.633387 -0.307783
0.841829 0.216179 -0.340452
0.850585 0.633388 -0.307781
0.848926 0.649636 0.286993
0.852559 0.225989 0.297329
-0.301543 0.0949965 -0.356794
0.301541 0.0949958 -0.35679
0.320726 0.0972417 0.302495
-0.320726 0.0972427 0.302489
-0.481631 1.12225 -0.291445
-0.48076 1.1911 0.281825
0.480913 1.19141 0.281825
0.479394 1.11778 -0.291445
-0.880659 0.286172 0.935099
-0.851781 0.327191 1.57939
-0.832492 0.662754 1.48305
-0.840837 0.655837 0.881763
0.88063 0.286169 0.935111
0.840929 0.655832 0.881767
0.832463 0.662748 1.48307
0.85176 0.327189 1.57942
-0.340101 0.0965757 0.961771
0.340104 0.0965741 0.961779
0.331569 0.0993997 1.63487
-0.331567 0.0993999 1.63486
-0.388266 1.10587 0.855095
-0.367523 0.941245 1.44269
0.367509 0.941259 1.44269
0.388256 1.106 0.855095
-0.328 0.348692 2.07922
0.328007 0.348692 2.07926
0.345972 0.671821 1.89828
-0.345969 0.671821 1.89967
-0.544991 0.14375 -1.9727
-0.389246 0.0720349 -2.00797
-0.530613 0.0736319 -1.84018
-0.648025 0.28875 1.93527
-0.46875 0.174906 1.99079
-0.691187 0.138563 1.78587
-0.695672 0.55625 -1.77359
-0.52875 0.693116 -1.79274
-0.740317 0.668156 -1.5813
-0.701267 0.73125 1.75784
-0.522656 0.83665 1.74665
-0.739036 0.839324 1.57168
0.389245 0.0720189 -2.00798
0.544987 0.14375 -1.9727
0.530611 0.0736329 -1.84018
0.46875 0.174918 1.99079
0.648014 0.28875 1.93528
0.691217 0.138533 1.78589
0.52875 0.693054 -1.79267
0.695682 0.55625 -1.7736
0.740306 0.668145 -1.5813
0.522647 0.836645 1.74664
0.701411 0.73125 1.75799
0.738996 0.839293 1.57168
-0.574713 0.0910339 -0.851257
-0.590916 0.0953307 -0.521616
-0.791912 0.111508 -0.672892
-0.436438 0.0942213 -0.686436
-0.669721 0.098528 0.796947
-0.649429 0.0983196 0.467306
-0.860488 0.113769 0.624168
-0.494692 0.0985763 0.632128
-0.812318 0.787189 -0.721398
-0.846394 0.716721 -0.591625
-0.804182 0.79473 -0.434763
-0.667375 0.971847 -0.57808
-0.777947 0.831204 0.711778
-0.845062 0.757379 0.576418
-0.782427 0.820006 0.425143
-0.657759 1.06879 0.56846
0.574734 0.091012 -0.851251
0.436435 0.09422 -0.686431
0.590915 0.0953307 -0.521609
0.791912 0.111508 -0.672886
[...]
POINT_DATA 3682
SCALARS point_scalars float 1
LOOKUP_TABLE default
-88.0982
-40.1365
-16.4418
-37.8857
-87.9008
-40.0441
-17.3959
-37.6197
-38.6595
-35.597
-58.4838
-46.4381
-38.6111
-35.5819
-58.0424
-46.4876
-43.843
-97.3875
-39.9918
-36.0228
-56.3246
-39.6889
-37.7289
-37.9157
-77.3467
-40.1649
-34.9705
-54.3496
-38.6618
-37.4527
51.9092
-114.763
-52.8119
-42.0351
-51.9837
-37.1833
-37.016
0.384576
-69.0517
-83.51
-57.9948
-40.2617
-37.3979
-34.3914
-25.335
-188.962
-40.0321
-35.7079
-46.1293
-38.9075
-37.5521
-25.335
-37.7655
-37.5521
133.075
-36.8039
-37.0318
-12.6018
-39.6182
-72.1341
-62.9396
-38.8954
-33.3487
-31.8245
4.2627
-188.936
-39.893
-35.706
-42.4358
-48.434
-48.434
4.2627
-46.7404
-37.463
127.308
-36.6795
-36.9074
-13.7294
-39.5119
-66.4305
-63.8914
-37.2577
-33.0308
-31.4917
4.2627
4.2627
-39.9441
-36.0219
-37.6147
-48.434
-48.434
4.2627
2.2727
-40.1261
-34.9538
-33.6479
-46.7404
-46.7404
13.6147
-114.685
-52.4944
-42.0498
-51.6976
-46.7404
-46.7404
-5.61899
-69.056
-80.4965
-58.0334
-40.0695
-37.1378
-34.1549
34.2794
-186.352
-59.2829
-36.9654
-42.2798
-42.1303
-46.7295
-56.9069
-31.1924
-45.1253
33.9313
-59.2857
-36.7634
-41.9934
-56.8826
-45.0072
-34.1362
-42.7894
-39.0019
-36.7225
-35.2118
-53.6759
-3.81744
-63.5319
-34.1227
-42.6552
-36.688
-53.7919
-66.0695
-65.9858
-58.5365
-5.4281
202.056
-39.4154
-39.3944
-34.0078
-100.611
-47.6389
-47.4718
-41.9471
-39.1602
-31.4354
21.6214
-199.226
-86.6054
-38.1372
-42.3269
-49.4196
30.6505
-41.4233
-54.3855
-37.4581
-32.0379
-43.2352
-199.221
21.158
-86.5913
-42.248
-37.9436
-49.2398
-41.6405
31.4485
-54.4138
-31.8912
-37.2336
-43.0426
-47.8848
-35.3187
-41.2318
-38.5949
-39.5658
-34.2597
-34.5287
-35.5055
-43.8303
-46.9081
-56.8371
-12.2155
-43.7743
-40.3151
-50.0309
-59.7984
-47.773
-38.5686
-35.2762
-41.1337
-39.5006
-35.4826
-34.2687
-34.5024
-43.3134
-11.7
-46.6866
-56.762
-43.7619
-59.8584
-40.3097
-50.1358
-138.704
186.485
-80.2234
196.759
-67.8204
-58.2496
-52.8658
-33.8712
-47.619
-36.4423
-46.1403
-41.7626
-28.6283
137.246
-64.1069
-16.3111
-33.6493
-29.4812
-48.102
-40.2425
-139.123
185.329
-67.8339
-58.2349
-52.6087
-33.6369
-45.9571
-41.7094
-63.6014
-16.9028
-47.8143
-40.2168
-37.034
-33.9274
-52.8136
-40.6562
-48.7596
-35.1365
-38.2473
-40.2856
-34.1462
-38.5236
-43.7839
-89.6913
10.1819
-59.3037
-82.3531
-47.9551
-37.0078
-33.9161
-52.7214
-40.5779
-38.2415
-40.3541
-43.7919
-90.6588
-108.785
-48.9529
-47.6469
-124.248
-108.749
-124.022
-47.4657
-48.8723
-79.8733
-79.8475
-48.5745
-48.5934
-31.4883
2.35704
1.37566
-31.7011
183.167
139.489
141.319
181.292
-38.3801
-36.571
-41.8061
-45.5524
-38.3126
-45.4606
-41.8321
-36.5543
-35.0446
-35.027
-34.1124
-34.1251
-56.9744
-76.5021
-76.814
-53.6692
-45.2979
-53.9073
-49.8399
-37.3811
-45.2089
-37.3379
-49.5945
-53.6379
-38.4653
-38.431
-47.8257
-47.8817
-48.6208
-34.7629
-34.6978
-48.6106
-37.7035
-37.6087
-32.7402
-33.0456
4.50147
-168.037
-123.481
-38.5493
-41.1279
-45.9613
14.4224
-31.0064
-33.8331
-37.9178
-33.6487
-40.7913
-168.15
-6.23321
-123.437
-41.2025
-38.3831
-45.6583
-31.1848
15.3518
-33.7706
-33.4407
-37.6709
-40.5725
-42.7032
-36.4817
-37.5885
-38.4441
-37.0201
-34.7655
-37.1537
-35.437
-53.9857
-51.529
-57.7599
-55.9108
-44.8709
-43.2786
-47.9852
-55.64
-42.6056
-38.404
-36.4574
-37.5534
-36.9573
-35.4085
-34.7123
-37.1553
-53.3189
-52.8736
-51.2454
-57.561
-44.8908
-55.701
-43.3045
-48.0679
31.0465
34.9186
-16.5486
132.831
-191.414
-191.415
-108.203
113.172
-70.1047
-51.9029
-67.0701
-58.0647
-37.8542
-36.9461
-43.4957
-35.4649
-42.3972
-42.3509
-44.9864
-37.9498
-44.5498
-40.0516
-45.845
-41.7398
-46.0082
-46.1034
-39.8195
85.8803
-67.7216
-44.1272
-65.7545
-28.8541
-31.4262
-31.3546
-32.0491
-27.2267
-45.0538
-44.3387
-46.6321
-42.6882
30.6248
34.6397
-15.3134
139.239
-70.0871
-51.9038
-67.1404
-58.0504
-37.6549
-36.739
-43.2564
-35.2815
-44.3381
-39.9588
-45.6551
-41.6524
-67.6436
-43.955
-65.4702
-29.2727
-44.8545
-44.2778
-46.5093
-42.6122
-34.5447
-34.161
-34.6287
-33.9176
-41.2947
-44.3726
-43.7114
-41.4926
-38.9318
-38.9187
-43.5482
-36.4876
-34.8461
-38.6673
-37.476
-33.9343
-35.2435
-35.2305
-34.6115
-35.985
-55.3752
-51.8802
-47.9346
-66.3328
-4.67739
-5.0369
5.64268
-26.4275
-61.16
-61.0993
-68.4742
-53.8849
-34.5201
-34.1504
-34.6675
-33.9043
-41.1788
-44.2032
-43.5633
-41.381
-34.7752
-38.6496
-37.4637
-33.9125
-55.4086
-52.0104
-47.9832
-66.8428
-85.6076
-67.4829
-65.09
-58.0286
-85.5149
-67.4319
-64.9665
-57.9265
-67.2138
-58.4382
-58.2614
-52.6512
-14.5371
-9.12733
-9.62431
5.05519
197.499
203.109
182.725
197.617
-37.8012
-40.0901
-38.7452
-41.4367
-37.7764
-40.044
-38.7378
-41.4269
-33.9797
-34.3212
-33.9425
-33.9728
-98.8195
-100.461
-93.5648
-99.3377
-49.0135
-46.8156
-48.2358
-45.7287
-48.8357
-46.6391
-48.0409
-45.4525
-44.5991
-41.9026
-41.8772
-40.0358
-36.1164
-39.3521
-39.3385
-43.1181
-32.4272
-33.0556
-30.8281
-32.2584
-28.6711
132.344
-109.576
119.075
-84.5957
-80.5843
-43.3741
-37.5782
-45.8102
-37.9649
-55.5166
-46.383
-43.3231
93.7645
-40.3217
61.669
-105.429
-39.5592
-43.9247
-35.0196
-32.9005
-31.95
-46.5878
-36.8062
-109.526
120.175
-28.668
134.196
-84.3731
-80.1298
-45.7528
-37.8726
-43.1264
-37.4711
-55.2888
-46.2647
-40.4782
61.3376
-43.4427
93.0888
-105.548
-39.5928
-32.8029
-31.5995
-43.7028
-34.8045
-46.3741
-36.6879
-44.8217
-48.3767
-36.3956
-35.0155
-47.4573
-38.5908
-43.3054
-36.3636
-45.9862
-38.5929
-33.9727
-34.1587
-36.3859
-34.4426
-34.5971
-35.8539
-48.8771
-11.8538
-45.2611
-46.1827
-49.6308
-75.0657
0.214892
-32.3884
-40.9045
-50.1462
-40.8119
-38.3148
-45.4705
-59.468
-67.6238
-53.6361
-45.1815
-48.3402
-43.2812
-36.3422
-36.3104
-34.99
-47.3071
-38.5069
-45.8843
-38.5431
-34.58
-35.8236
-33.9835
-34.1428
-36.3627
-34.3561
-48.594
-12.1431
0.263091
-31.0405
-45.0607
-46.0246
-49.5472
-74.8021
-40.8682
-50.1526
-67.8552
-53.6254
-40.8325
-38.2957
-45.526
-59.7065
-128.779
-133.722
190.223
183.352
-80.0564
-79.4993
193.387
193.108
-94.2981
-56.7714
-66.8648
-52.3513
-53.0649
-52.4724
-35.5975
-33.4188
-47.7952
-47.8387
-37.0894
-36.9953
-44.1783
-48.8034
-39.9464
-44.0835
-28.876
-29.0106
134.202
134.453
-57.2027
-78.8302
-23.0179
-5.6803
-33.9412
-33.9119
-30.6362
-30.8786
-51.6747
-41.6794
-43.8156
-37.1376
-129.283
-133.556
183.827
188.251
-94.2916
-56.6895
-66.8459
-52.3379
-52.2001
-52.822
-35.4227
-33.1469
-44.0324
-48.5622
-39.9035
-44.025
-78.7164
-57.3297
-6.43291
-23.3566
-41.6541
-51.4632
-37.092
-43.788
-37.3663
-36.5241
-34.2589
-33.893
-52.5983
-50.725
-38.9198
-42.8111
-48.7352
-48.7439
-35.1185
-35.1085
-36.9204
-39.8626
-42.564
-35.9514
-34.1463
-34.1534
-38.4855
-38.4678
-42.7784
-44.8045
-90.4651
-83.0864
8.71361
8.17484
-57.9557
-56.7939
-81.8602
-82.1306
-48.0793
-48.0755
-37.3248
-36.504
-34.2452
-33.8821
-50.585
-52.5046
-38.8487
-42.7211
-39.8689
-36.9068
-42.4897
-35.9659
-44.7704
-42.8017
-84.0269
-86.7361
-60.318
-99.958
-90.0346
-17.5223
-44.0873
-46.1077
-57.6115
-55.3608
-51.3972
-53.7392
-58.0244
-43.1813
-41.517
-31.525
-81.6534
-80.154
-60.8175
-17.2832
-89.9484
-99.9564
-40.8287
-80.1876
-81.5611
-31.3469
-51.1236
-43.0297
-57.9659
-53.6552
-43.5371
-55.1706
-57.5277
-45.9523
-113.518
-108.324
-67.0716
-66.848
-113.47
-66.8308
-67.061
-108.307
-42.891
-43.4482
-52.565
-51.9579
-42.9357
-51.9777
-52.5734
-43.4597
-40.8795
-35.1269
-16.0774
-40.223
-29.2296
4.71345
2.6314
-19.2628
-26.6466
-19.8529
2.15597
4.66483
-41.0757
-40.3116
-16.2909
-35.4453
90.8491
137.935
197.512
118.431
47.5538
91.9162
198.64
114.866
47.3055
117.57
196.813
92.0688
91.5763
118.187
197.674
138.873
-37.6076
-35.385
-38.301
-39.7885
-35.0589
-36.5729
-37.2589
-34.2985
-44.0981
-46.7885
-40.6555
-39.1429
-50.777
-43.4363
-42.1708
-48.678
-37.6484
-39.6951
-38.2583
-35.3354
-50.6016
-48.6629
-42.1238
-43.3005
-44.1471
-39.1412
-40.6601
-46.8496
-34.9956
-34.2919
-37.2442
-36.5735
-36.2072
-36.5077
-34.334
-34.2463
-36.1772
-34.2266
-34.3261
-36.496
-34.6328
-34.5714
-33.9249
-33.8937
-34.6555
-33.904
-33.9318
-34.5814
-80.2442
-70.5008
-97.6023
-29.0786
-56.4084
-69.8128
-91.7268
-62.4712
-56.5648
-62.8217
-92.2598
-69.9267
-79.3887
-28.4591
-96.0016
-71.1252
-36.9065
-42.8229
-45.1509
-34.4463
-44.2438
-43.4046
-48.7716
-48.2882
-43.6062
-49.079
-49.3872
-43.0863
-42.7787
-35.604
-45.7526
-42.6698
-36.8464
-34.3989
-44.9849
-42.6891
-42.7829
-42.5895
-45.5573
-35.5749
-43.3649
-42.9141
-49.1294
-48.888
-43.9588
-48.0214
-48.5548
-43.1538
-36.3284
-35.966
-40.0107
-39.9638
-36.2888
-39.8979
-39.9892
-35.9496
-47.4585
-45.1791
-44.4977
-43.703
-47.5409
-43.811
-44.5237
-45.2115
-51.6511
-46.1311
-43.1566
-53.8836
-34.7695
-32.2877
-36.3796
-39.2653
-34.6125
-39.165
-36.3609
-32.2368
-51.6747
-53.8961
-43.1476
-46.1131
-37.9123
-38.2673
-33.8706
-37.041
-37.8208
-36.9201
-33.6858
-38.1998
-34.1899
-28.6792
-31.6056
-35.4382
-34.4409
-35.6289
-31.8246
-28.9679
-53.401
-133.423
-155.162
-39.1725
-40.3819
-43.6686
2.43524
-22.592
-36.968
-38.3654
-35.0221
-38.8799
-133.306
-53.0164
-155.11
-40.3259
-39.054
-43.3853
-22.7837
2.42908
-36.908
-34.7819
-38.0922
-38.6447
-40.4703
-37.3042
-38.7441
-38.5285
-36.2862
-35.2275
-35.8869
-35.4577
-59.0474
-54.4576
-58.0554
-69.6777
-45.727
-45.5455
-47.0384
-49.5882
-40.3948
-38.4818
-37.2723
-38.7108
-36.2399
-35.4288
-35.2121
-35.9384
-58.5161
-69.3912
-54.0868
-57.7281
-45.7612
-49.6474
-45.5905
-47.1073
32.8
35.3219
15.9814
59.4081
-190.249
-190.261
-142.688
28.9223
-64.2731
-55.0448
-68.0614
-58.4134
-37.5905
-36.1691
-39.8023
-35.5493
-42.3031
-42.2794
-43.4536
-39.7167
-42.8401
-40.8721
-45.1355
-41.8176
-46.7177
-46.7601
-44.9929
-79.0289
-62.3271
-50.4562
-64.946
-39.2768
-31.2775
-31.2512
-31.5341
-27.998
-44.7602
-44.3631
-45.8206
-45.223
32.4585
34.9897
15.3346
57.3798
-64.2703
-55.0487
-68.1223
-58.4048
-37.3925
-35.9699
-39.5521
-35.3754
-42.6759
-40.7583
-44.9489
-41.7099
-62.2321
-50.3906
-64.9008
-39.4758
-44.6493
-44.2797
-45.701
-45.1138
-34.3194
-34.0654
-34.4567
-33.9928
-41.9385
-43.5018
-42.7259
-42.0876
-38.9902
-38.9835
-40.8357
-37.4909
-35.4262
-37.8526
-37.2652
-34.9272
-35.2249
-35.2179
-34.8003
-35.7776
-54.5918
-52.7731
-50.903
-58.3212
-3.24273
-3.01562
1.46581
-15.5513
-61.9962
-62.0291
-63.5099
-57.8358
-34.3054
-34.0567
-34.437
-33.9796
-41.8173
-43.3509
-42.5871
-41.9632
-35.3683
-37.8284
-37.2418
-34.9032
-54.6769
-52.9004
-50.9724
-58.5732
-73.5919
-66.8418
-65.4825
-61.4625
-73.5286
-66.7782
-65.3746
-61.3667
-62.5502
-58.5246
-58.5202
-55.3871
-7.16568
-6.44663
-7.0907
-2.51916
200.99
202.456
202.707
201.547
-38.5838
-39.7609
-39.0295
-40.3997
-38.5602
-39.7278
-39.0173
-40.3832
-33.9981
-34.1351
-33.9019
-33.9946
-100.044
-102.617
-97.5206
-100.593
-48.5342
-47.2843
-47.9064
-46.8431
-48.3551
-47.1139
-47.7381
-46.7072
-43.1086
-41.9434
-41.9306
-40.957
-37.5384
-39.204
-39.1975
-40.9478
-31.7423
-31.6996
-31.1534
-31.6
17.5146
26.0155
2.19762
70.1867
-199.358
-198.09
-152.068
-17.1546
-100.786
-77.9125
-92.8616
-81.4997
-38.2434
-38.0399
-40.4971
-37.4196
-41.6633
-42.4508
-43.4274
-40.1103
-51.3897
-46.4425
-56.2204
-46.6252
22.9844
33.8403
5.0925
49.1896
-36.4365
-44.7389
-43.6739
-31.7295
-37.0537
-69.6439
-76.6586
-46.1875
-37.5051
-37.3908
-40.8268
-35.7306
-32.6663
-31.6594
-32.3028
-31.7658
-41.4608
-44.0898
-45.1931
-39.7447
-199.675
-198.123
-152.001
-15.3149
17.5922
25.5428
2.02777
70.9454
-100.752
-77.8754
-93.1698
-81.4717
-41.5907
-42.3873
-43.3605
-40.0176
-38.0515
-37.8419
-40.2685
-37.2861
-51.1532
-46.1657
-55.9983
-46.4701
-36.5427
-44.8888
-43.499
-32.198
24.486
33.8561
3.89498
48.8804
-37.0736
-69.6133
-81.5628
-46.2875
-32.4895
-31.5514
-32.1813
-31.4482
-37.2746
-37.1705
-40.5758
-35.5285
-41.2602
-43.9188
-44.9812
-39.5779
-46.4783
-49.2733
-44.2542
-48.3648
-35.7617
-34.8163
-35.8855
-35.115
-40.1229
-41.0988
-43.15
-39.9633
-38.4173
-38.879
-40.2989
-37.3558
-38.2319
-39.4085
-45.1126
-38.7974
-34.4589
-34.0237
-34.4593
-34.1915
-38.0961
-34.6708
-36.1065
-32.913
-35.5631
-35.302
-34.9107
-35.9493
-49.2272
-42.558
-48.2996
-29.0035
-48.7291
-45.4488
-46.6421
-46.5915
-57.3907
-56.2648
-52.8362
-62.937
-20.2246
-8.24974
-4.22913
-20.7082
-44.075
-43.9051
-42.7735
-46.6074
-40.9815
-39.5023
-40.5535
-39.4331
-48.9297
-50.9127
-48.2081
-53.1945
-59.8124
-60.5213
-63.3449
-56.7213
-46.371
-49.2557
-45.3426
-48.3124
-38.3836
-38.8603
-40.2714
-37.3325
-35.7265
-34.7799
-35.8054
-35.0841
-40.0987
-40.9896
-43.0378
-39.8746
-38.1766
-39.33
-45.0252
-38.7395
-35.5369
-35.2835
-34.891
-35.9233
-34.4145
-34.0326
-34.5308
-34.1771
-38.0875
-34.6205
-36.0866
-32.8644
-48.637
-41.9725
-47.9126
-28.1682
-18.7406
-7.77881
-4.11368
-20.0597
-48.4768
-45.256
-46.4136
-46.3998
-57.2652
-56.2383
-52.7407
-62.9387
-44.0845
-43.8666
-42.7616
-46.5839
-59.847
-60.5703
-63.8725
-56.812
-40.9808
-39.4912
-40.5616
-39.4177
-49.0262
-51.0327
-48.2902
-53.3522
-99.3333
-110.702
-133.211
-136.232
176.665
194.421
187.022
184.965
-91.1223
-72.7322
-79.5674
-79.561
182.888
203.885
196.412
196.102
-68.0863
-67.9756
-77.5876
-61.3763
-58.1371
-58.3532
-62.3464
-54.8187
-47.6653
-50.5519
-52.6348
-52.2224
-34.9321
-33.1726
-34.0763
-33.5874
-46.3071
-46.7803
-47.6434
-47.6518
-37.2536
-34.8168
-36.7132
-36.6526
-45.8146
-46.4499
-45.0909
-47.3813
-41.7228
-41.831
-40.8287
-42.7738
-33.9149
-21.7161
-28.4417
-28.5129
138.59
132.336
136.351
136.303
-64.0839
-64.7924
-60.8495
-69.9498
-21.4311
-12.7889
-18.6897
-12.3813
-32.7513
-34.8088
-33.7495
-33.7356
-28.0116
-30.6363
-29.8001
-29.9642
-47.3715
-48.5523
-49.5071
-44.9008
-41.0697
-39.6884
-42.0146
-38.5864
-98.7769
-110.569
-133.778
-136.363
180.021
191.13
185.227
186.02
-68.1454
-67.9507
-77.5643
-61.3679
-58.1209
-58.3406
-62.3326
-55.0121
-47.3715
-50.2874
-51.8501
-52.4076
-34.7286
-32.9283
-33.825
-33.3275
-45.6273
-46.2695
-44.9286
-47.1701
-41.6538
-41.7923
-40.7807
-42.7164
-63.4595
-64.6134
-69.6492
-60.8022
-21.9567
-13.3656
-13.1827
-19.1201
-47.2128
-48.2802
-44.7347
-49.3225
-41.0179
-39.6662
-38.5473
-41.9849
-35.6064
-37.2009
-37.1662
-36.6976
-33.9058
-33.9535
-34.0787
-33.853
-48.0866
-55.2961
-53.0868
-51.8422
-41.0717
-40.3114
-39.7058
-41.7094
-46.766
-50.3446
-48.7936
-48.7981
-35.6978
-34.6807
-35.1
-35.0952
-37.8815
-38.5685
-37.5724
-39.0195
-35.5552
-44.3877
-41.512
-38.3666
-34.3329
-34.0267
-34.1449
-34.1483
-37.1637
-39.2871
-38.4995
-38.4905
-45.3253
-42.5454
-43.3028
-44.3039
-78.9616
-95.121
-94.9102
-86.1293
9.04265
9.05008
10.2495
10.0501
-38.4273
-86.7195
-60.0019
-59.5468
-75.6326
-88.4509
-82.3193
-82.4655
-50.6892
-45.2642
-47.9565
-47.9609
-35.605
-37.1767
-37.1349
-36.6751
-33.8954
-33.9445
-34.0669
-33.8417
-47.9682
-55.1909
-51.7329
-53.0058
-40.9765
-40.2489
-39.6329
-41.6242
-37.874
-38.5632
-39.0191
-37.5622
-35.5244
-44.097
-41.4496
-38.5165
-45.3505
-42.5358
-44.2666
-43.3551
-80.0832
-95.7018
-87.3658
-93.3848
-77.7291
-93.5067
-120.454
-122.692
-46.5049
-52.6307
-52.7299
-51.79
-47.6054
-45.6364
-53.0689
-49.3565
-110.519
-113.899
-127.235
-93.099
-77.4172
-93.2678
-120.621
-122.788
-110.402
-113.861
-127.027
-92.8525
-47.4147
-45.4639
-52.9609
-49.1853
-46.4009
-52.4354
-52.6938
-51.6989
-91.0258
-79.6691
-79.343
-72.5158
-90.9913
-79.6408
-79.3222
-72.5003
-48.4762
-46.5904
-49.9845
-48.6692
-48.501
-46.6088
-49.9991
-48.6823
-36.7491
-33.9122
-29.9265
-28.0243
-3.6408
2.5205
-0.430369
6.18393
-4.70118
2.22826
-1.57534
5.44363
-36.9357
-34.2124
-30.1103
-28.2791
165.684
172.463
191.807
190.086
121.509
112.427
167.744
126.091
113.176
121.882
121.28
168.842
171.654
167.505
188.176
187.055
-37.0427
-38.4249
-37.9471
-38.4229
-34.7675
-36.6479
-36.4577
-36.5203
-41.3394
-43.0452
-40.7445
-42.345
-45.8414
-47.3542
-44.0703
-45.1615
-36.9722
-38.3483
-37.8929
-38.3551
-45.7182
-47.2669
-43.9782
-45.099
-41.3625
-43.0826
-40.7593
-42.3716
-34.7427
-36.6139
-36.4386
-36.5044
-34.9758
-35.5992
-34.5949
-35.0839
-35.5795
-34.9543
-35.0705
-34.5791
-34.3251
-34.1151
-34.1228
-33.9663
-34.1299
-34.3401
-33.9777
-34.1332
-67.8653
-44.0472
-72.0737
-56.7762
-70.681
-71.8072
-80.1846
-80.6651
-72.08
-71.0191
-81.065
-80.9949
-42.2886
-64.9333
-54.2564
-70.285
-45.8114
-40.3269
-43.8715
-43.9075
-47.9463
-54.0914
-53.6291
-51.0367
-46.5515
-48.2413
-51.2616
-52.1561
-39.2049
-37.488
-38.0484
-35.5638
-45.7112
-40.2662
-43.7513
-43.839
-39.1616
-37.4697
-37.955
-35.5133
-46.3599
-48.0255
-50.9984
-52.0461
-47.6838
-53.9303
-53.3601
-50.781
-38.4901
-37.0752
-39.2429
-38.4892
-38.448
-37.0434
-39.2049
-38.4631
-48.2306
-46.8602
-48.2049
-45.4915
-48.2832
-46.9475
-48.2407
-45.549
-48.9952
-51.1266
-46.0759
-48.2625
-33.7742
-35.5053
-34.2165
-35.8349
-33.6968
-35.4161
-34.173
-35.781
-48.9796
-51.127
-46.0543
-48.2549
-37.6861
-37.8375
-37.0192
-37.4775
-37.7516
-37.585
-37.3812
-36.8917
-32.1351
-33.8556
-31.5728
-32.993
-34.1371
-32.4534
-33.279
-31.8524
-49.2922
58.0659
-163.982
1.80558
-106.264
-115.589
-40.8633
-38.1655
-45.1704
-38.7492
-43.6399
-47.499
-15.9757
31.9185
-40.2094
11.8756
-41.1342
-37.4567
-41.5725
-35.55
-33.9901
-34.1541
-42.4031
-36.6431
-163.938
2.19366
-49.4212
58.2653
-106.477
-115.541
-45.0861
-38.6728
-40.5869
-38.0745
-43.3274
-47.2458
-40.5126
11.7176
-17.2768
31.9164
-40.861
-37.5861
-33.8068
-33.9152
-41.3047
-35.3103
-42.1667
-36.4517
-42.3973
-42.8441
-37.1388
-36.2615
-39.051
-38.6529
-40.2656
-37.1409
-37.6253
-36.6697
-34.9155
-34.7113
-35.38
-37.1142
-35.0654
-35.8461
-52.9473
-55.4589
-52.2531
-51.0698
-53.6747
-66.6772
-42.2556
-75.0265
-44.6537
-46.7699
-43.4586
-42.7959
-46.5413
-50.6995
-53.6813
-53.9956
-42.1298
-42.7844
-40.2206
-37.1071
-37.1611
-36.23
-39.0175
-38.6906
-37.534
-36.6237
-35.0407
-35.8126
-34.7938
-34.6842
-35.361
-36.9946
-52.4863
-53.7279
-37.5948
-70.6825
-51.9303
-50.8367
-53.4729
-66.722
-44.6713
-46.79
-53.8156
-54.0464
-43.4977
-42.8178
-46.6109
-50.818
13.2516
60.9094
15.4814
54.3835
-15.6691
-22.9141
140.253
123.155
-144.88
10.8585
-144.871
10.8707
-106.556
-106.548
114.675
114.648
-92.5904
-67.6528
-54.2077
-51.9554
-78.1508
-59.8957
-62.3284
-54.4512
-40.3526
-36.9978
-40.2845
-35.9164
-43.4587
-43.4145
-35.8695
-35.5146
-43.4728
-39.5243
-43.4344
-39.4642
-45.0646
-45.0803
-37.9344
-37.8958
-47.5843
-44.0245
-41.6531
-39.9953
-44.3575
-46.8355
-40.8115
-42.6651
-44.9225
-82.238
-45.0118
-82.5898
-39.8295
-39.8857
83.6309
83.639
-76.6906
-46.6409
-50.6515
-31.2605
-61.5664
-69.6637
-32.2903
-24.0348
-31.698
-29.0402
-31.6348
-28.7903
-32.1345
-32.1089
-27.7223
-27.8875
-46.3189
-42.1269
-43.8903
-47.5593
-48.707
-44.5028
-44.4407
-40.9219
13.0282
60.2466
15.2352
53.1917
-15.1728
-22.4097
128.439
142.998
-92.6058
-67.6362
-54.1065
-51.9377
-78.1601
-60.2263
-62.314
-54.4345
-40.1221
-36.8518
-40.0468
-35.7462
-43.2066
-43.2116
-35.7295
-35.331
-46.9188
-43.8784
-41.529
-39.9178
-44.1989
-46.6103
-40.736
-42.5659
-76.5924
-46.8211
-50.4916
-31.3287
-69.4095
-61.5259
-24.5434
-32.6619
-46.1474
-42.0237
-43.8304
-47.4623
-44.4085
-48.5568
-40.8355
-44.4266
-35.0301
-34.3606
-34.4747
-33.9751
-34.9388
-34.2756
-34.0831
-33.8717
-42.6567
-40.471
-43.6588
-43.9183
-45.1388
-43.2578
-40.4067
-42.3914
-40.7725
-37.4408
-40.7593
-37.4705
-43.5253
-43.5308
-36.4796
-36.4736
-35.9056
-33.7401
-39.0091
-37.4038
-36.9813
-38.3778
-34.2585
-34.1501
-34.8112
-35.7754
-34.7996
-35.761
-34.5734
-34.5787
-35.9923
-35.9838
-52.0162
-60.803
-49.5835
-55.75
-47.3964
-48.2611
-68.6659
-64.2017
0.977467
-15.4677
1.04825
-14.489
5.13487
5.16112
-27.5232
-27.1069
-65.3151
-57.4157
-65.386
-57.4263
-69.5719
-69.6354
-53.8885
-53.8961
-35.0012
-34.3384
-34.4514
-33.9674
-34.9532
-34.2946
-34.067
-33.8607
-42.5273
-40.3667
-43.4908
-43.7621
-43.1164
-44.9856
-40.3076
-42.2686
-35.9058
-33.6676
-39.0006
-37.3802
-38.3698
-36.9696
-34.2319
-34.1281
-52.013
-61.0061
-49.6763
-55.9541
-48.2743
-47.4604
-64.6254
-69.3069
-88.3734
-83.6016
-76.4814
-61.6977
-61.2586
-71.9313
-57.9058
-58.1261
-88.234
-83.5186
-76.4427
-61.6236
-71.8179
-61.1659
-58.0292
-57.813
-66.9431
-66.9378
-62.4787
-55.2623
-62.4685
-55.2518
-52.6409
-52.6454
-14.9145
-15.0491
-9.53787
-4.8687
-5.27072
-9.85837
4.51434
4.46357
197.846
199.351
201.853