# vtk DataFile Version 2.0
tet_velo
ASCII
DATASET UNSTRUCTURED_GRID
POINTS 29498 float
-0.785 0.395 -1.94416
-0.870064 0.535 2.015
-0.866009 0.995 -1.885
-0.839664 1.075 2.015
0.785 0.395 -1.94416
0.870064 0.535 2.015
0.866009 0.995 -1.885
0.839664 1.075 2.015
-0.817033 0.437988 -0.62444
-0.843625 0.486417 0.69528
-0.857463 1.0219 -0.585
-0.84889 1.04878 0.715
0.817024 0.437997 -0.62444
0.843625 0.486417 0.69528
0.857463 1.0219 -0.585
0.848889 1.04878 0.715
-1.61533 0.075843 -3.01042
-1.62086 0.104158 -1.96254
-1.64681 0.149055 -0.642308
-1.67574 0.201343 0.681891
-1.69801 0.250734 2.00245
-1.70416 0.282404 3.05197
-1.70529 0.310549 4.09845
-1.61985 0.369823 -2.98793
-1.62665 0.396377 -1.9422
-1.6539 0.437106 -0.625809
-1.68192 0.483088 0.692359
-1.70436 0.528287 2.00913
-1.70954 0.559625 3.05837
-1.70959 0.588451 4.10549
-1.65518 0.962252 -2.93741
-1.68398 0.989683 -1.89087
-1.68883 1.01872 -0.587921
-1.68932 1.04698 0.713632
-1.69038 1.07708 2.01696
-1.70359 1.10928 3.06701
-1.71048 1.14161 4.11732
-1.68279 1.83642 -2.87646
-1.6969 1.86113 -1.83288
-1.70185 1.88431 -0.536321
-1.69978 1.90311 0.755984
-1.69991 1.9263 2.05275
-1.70446 1.95183 3.09676
-1.71076 1.98176 4.14492
-0.787715 0.0748627 -3.01169
-0.792551 0.102611 -1.96439
-0.81357 0.149025 -0.642059
-0.834084 0.204106 0.684384
-0.851545 0.255692 2.00681
-0.857746 0.28579 3.05493
-0.859496 0.312528 4.10017
-0.785737 0.369679 -2.98832
-0.865504 0.562451 3.06081
-0.864358 0.589975 4.10679
-0.813973 0.964604 -2.93497
-0.859986 1.10895 3.06662
-0.866271 1.14161 4.11723
-0.841744 1.83879 -2.87405
-0.85496 1.86375 -1.83022
-0.858711 1.88599 -0.53472
-0.856044 1.90301 0.755792
-0.856017 1.92492 2.05137
-0.860617 1.95043 3.09539
-0.867062 1.98076 4.14392
0.837745 0.074864 -3.01169
0.81014 0.102613 -1.96439
0.826814 0.149031 -0.642059
0.849453 0.204107 0.684384
0.865242 0.255692 2.00681
0.850243 0.285791 3.05493
0.838768 0.312528 4.10017
0.843628 0.36968 -2.98832
0.844575 0.562451 3.06081
0.834123 0.589976 4.10679
0.865263 0.964605 -2.93497
0.833072 1.10895 3.06662
0.827047 1.14161 4.11723
0.843851 1.83879 -2.87405
0.836955 1.86375 -1.83022
0.833925 1.88599 -0.53472
0.833671 1.90301 0.755792
0.831347 1.92492 2.05137
0.826749 1.95043 3.09539
0.820756 1.98076 4.14392
1.65691 0.0758457 -3.01042
1.63326 0.104162 -1.96254
1.6536 0.149063 -0.642308
1.68585 0.201346 0.681891
1.70634 0.250735 2.00245
1.6983 0.282405 3.05197
1.68644 0.31055 4.09845
1.66108 0.369825 -2.98792
1.62801 0.39638 -1.9422
1.65149 0.437114 -0.625809
1.683 0.48309 0.692359
1.70447 0.528287 2.00913
1.69449 0.559626 3.05837
1.68253 0.588452 4.10549
1.68852 0.962254 -2.93741
1.68074 0.989684 -1.89087
1.68236 1.01872 -0.587921
1.6865 1.04698 0.713631
1.68628 1.07708 2.01696
1.68134 1.10928 3.06701
1.67406 1.14161 4.11732
1.68323 1.83642 -2.87646
1.67906 1.86113 -1.83288
1.67707 1.88431 -0.536321
1.67667 1.90311 0.755984
1.67426 1.9263 2.05275
1.67002 1.95183 3.09676
1.66438 1.98176 4.14492
-0.867112 0.695 -1.95619
0 0.392546 -1.94661
-0.827208 0.390302 -1.2843
-0.865191 0.805 2.02533
0 0.53033 2.01967
-0.892725 0.474828 1.35514
0 1.04362 -1.93362
-0.861716 1.00843 -1.235
0 1.07437 2.01437
-0.84434 1.06195 1.365
0.867112 0.695 -1.95619
0.82661 0.3909 -1.2843
0.865209 0.805 2.02535
0.892732 0.474821 1.35514
0.861718 1.00843 -1.235
0.844336 1.06195 1.365
-0.830348 0.462184 0.0354201
-0.872869 0.729945 -0.60472
-4.28861e-06 0.388298 -0.62444
-0.872858 0.767597 0.70514
2.46954e-08 0.388042 0.69528
-0.853145 1.03531 0.0650001
-2.75868e-08 1.14535 -0.585
-4.36636e-07 1.52535 0.715
0.830348 0.462184 0.0354201
0.872869 0.72995 -0.60472
0.872858 0.767597 0.70514
0.853145 1.03531 0.0650001
-0.896791 0.712473 -1.25965
-0.872861 0.748771 0.0502101
-0.896041 0.786299 1.36007
-2.1443e-06 0.382652 -1.2843
-2.13196e-06 0.38805 0.0354201
1.23477e-08 0.383073 1.35514
0 0.695 -2.04345
0 0.805 2.03862
-1.37934e-08 1.0778 -1.235
-2.32111e-07 1.52534 0.0650001
-2.18318e-07 1.5253 1.365
0.896791 0.712475 -1.25965
0.872861 0.748773 0.0502101
0.896041 0.786298 1.36007
-1.20582 0.395689 -1.94318
-0.788776 0.248805 -1.95428
-0.785368 0.38234 -2.46624
-1.28721 0.531643 2.01207
-0.860805 0.395346 2.01091
-0.867784 0.548725 2.5379
-1.27499 0.992341 -1.88794
-0.839991 0.979802 -2.40999
-0.860485 1.42937 -1.85761
-1.26502 1.07604 2.01598
-0.849825 1.09198 2.54081
-0.847841 1.49996 2.03319
0.79757 0.248806 -1.95428
0.814314 0.38234 -2.46624
1.20651 0.39569 -1.94318
0.867653 0.395346 2.01091
0.857319 0.548725 2.5379
1.28727 0.531643 2.01207
0.865636 0.979802 -2.40999
0.851482 1.42937 -1.85761
1.27337 0.992342 -1.88794
0.836368 1.09198 2.54081
0.835505 1.49996 2.03319
1.26297 1.07604 2.01598
-1.23547 0.437547 -0.625124
-0.815302 0.293507 -0.63325
-1.26277 0.484753 0.69382
-0.838855 0.345262 0.689832
-1.27314 1.02031 -0.58646
-0.858087 1.45395 -0.55986
-1.26911 1.04788 0.714316
-0.852467 1.47589 0.735396
0.821919 0.293514 -0.63325
1.23426 0.437555 -0.625124
0.846539 0.345262 0.689832
1.26331 0.484754 0.69382
0.845694 1.45395 -0.55986
1.26991 1.02031 -0.58646
0.84128 1.47589 0.735396
1.2677 1.04788 0.714316
-1.61809 0.0900004 -2.48648
-1.61759 0.222833 -2.99917
-1.20152 0.0753528 -3.01105
-1.63384 0.126606 -1.30242
-1.62375 0.250268 -1.95237
-1.2067 0.103384 -1.96347
-1.66128 0.175199 0.0197914
-1.65036 0.29308 -0.634058
-1.23019 0.14904 -0.642183
-1.68687 0.226038 1.34217
-1.67883 0.342215 0.687125
-1.25491 0.202725 0.683137
-1.70109 0.266569 2.52721
-1.70118 0.38951 2.00579
-1.27478 0.253213 2.00463
-1.70473 0.296476 3.57521
-1.70685 0.421015 3.05517
-1.28096 0.284097 3.05345
-1.70744 0.4495 4.10197
-1.28239 0.311538 4.09931
-1.62325 0.3831 -2.46506
-1.63751 0.666038 -2.96267
-1.20279 0.369751 -2.98812
-1.64028 0.416741 -1.28401
-1.65531 0.69303 -1.91654
-1.66791 0.460097 0.0332753
-1.67136 0.727913 -0.606865
-1.69314 0.505687 1.35074
-1.68562 0.765035 0.702995
-1.70695 0.543956 2.53375
-1.69737 0.802684 2.01304
-1.70957 0.574038 3.58193
-1.70657 0.834453 3.06269
-1.28752 0.561038 3.05959
-1.71004 0.865028 4.11141
-1.28697 0.589213 4.10614
-1.66958 0.975968 -2.41414
-1.66898 1.39934 -2.90694
-1.23457 0.963428 -2.93619
-1.6864 1.0042 -1.2394
-1.69044 1.4254 -1.86187
-1.68907 1.03285 0.0628553
-1.69534 1.45151 -0.562121
-1.68985 1.06203 1.3653
-1.69455 1.47504 0.734808
-1.69699 1.09318 2.54198
-1.69515 1.50169 2.03485
-1.70703 1.12544 3.59216
-1.70402 1.53055 3.08189
-1.28179 1.10912 3.06681
-1.71062 1.56168 4.13112
-1.28838 1.14161 4.11728
-1.68984 1.84877 -2.35467
-1.26227 1.83761 -2.87526
-1.69938 1.87272 -1.1846
-1.27593 1.86244 -1.83155
-1.70082 1.89371 0.109832
-1.28028 1.88515 -0.53552
-1.69985 1.9147 1.40437
-1.27791 1.90306 0.755888
-1.70219 1.93906 2.57475
-1.27797 1.92561 2.05206
-1.70761 1.96679 3.62084
-1.28254 1.95113 3.09608
-1.28891 1.98126 4.14442
-0.790133 0.0887367 -2.48804
-0.786726 0.222271 -3
0.0250152 0.0748634 -3.01169
-0.803061 0.125818 -1.30323
0.00879458 0.102612 -1.96439
-0.823827 0.176566 0.0211624
0.0066218 0.149028 -0.642059
-0.842815 0.229899 1.3456
0.00768448 0.204107 0.684384
-0.854646 0.270741 2.53087
0.00684813 0.255692 2.00681
-0.858621 0.299159 3.57755
-0.861625 0.42412 3.05787
-0.00375154 0.28579 3.05493
-0.861927 0.451251 4.10348
-0.010364 0.312528 4.10017
-0.799855 0.667142 -2.96164
0.0289454 0.369679 -2.98832
-0.864931 0.576213 3.5838
-0.862745 0.835701 3.06371
-0.0104649 0.562451 3.06081
-0.865314 0.865793 4.11201
-0.0151174 0.589976 4.10679
-0.827858 1.4017 -2.90451
0.0256452 0.964604 -2.93497
-0.863129 1.12528 3.59193
-0.860302 1.52969 3.08101
-0.0134573 1.10895 3.06662
-0.866667 1.56118 4.13058
-0.019612 1.14161 4.11723
-0.848352 1.85127 -2.35214
0.00105353 1.83879 -2.87405
-0.856836 1.87487 -1.18247
-0.00900247 1.86375 -1.83022
-0.857378 1.8945 0.110536
-0.0123929 1.88599 -0.53472
-0.856031 1.91397 1.40358
-0.0111867 1.90301 0.755792
-0.858317 1.93767 2.57338
-0.0123352 1.92492 2.05137
-0.86384 1.96559 3.61966
-0.016934 1.95043 3.09539
-0.0231531 1.98076 4.14392
0.823943 0.0887383 -2.48804
0.840686 0.222272 -3
1.24733 0.0753549 -3.01105
0.818477 0.125822 -1.30323
1.2217 0.103387 -1.96347
0.838133 0.176569 0.0211624
1.24021 0.149047 -0.642183
0.857347 0.2299 1.3456
1.26765 0.202727 0.683137
0.857742 0.270741 2.53087
1.28579 0.253213 2.00463
0.844505 0.299159 3.57755
0.847409 0.424121 3.05787
1.27427 0.284098 3.05345
0.836446 0.451252 4.10348
1.2626 0.311539 4.09931
0.854445 0.667142 -2.96164
1.25235 0.369752 -2.98812
0.839349 0.576213 3.5838
0.838823 0.835701 3.06371
1.26953 0.561038 3.05959
0.830585 0.865794 4.11201
1.25833 0.589214 4.10614
0.854557 1.4017 -2.90451
1.27689 0.963429 -2.93619
0.830059 1.12528 3.59193
0.829911 1.52969 3.08101
1.25721 1.10912 3.06682
0.823901 1.56118 4.13058
1.25055 1.14161 4.11728
0.840403 1.85127 -2.35214
1.26354 1.83761 -2.87526
0.83544 1.87487 -1.18247
1.25801 1.86244 -1.83155
0.833798 1.8945 0.110536
1.2555 1.88515 -0.535521
0.832509 1.91397 1.40358
1.25517 1.90306 0.755888
0.829048 1.93767 2.57338
1.25281 1.92561 2.05206
0.823753 1.96559 3.61966
1.24838 1.95113 3.09608
1.24257 1.98126 4.14442
1.64508 0.0900039 -2.48648
1.65899 0.222835 -2.99917
1.64343 0.126612 -1.30242
1.63063 0.250271 -1.95237
1.66973 0.175204 0.0197914
1.65255 0.293088 -0.634058
1.6961 0.22604 1.34217
1.68443 0.342218 0.687125
1.70232 0.26657 2.52721
1.7054 0.389511 2.00579
1.69237 0.296477 3.57521
1.69639 0.421016 3.05517
1.68448 0.449501 4.10197
1.64454 0.383102 -2.46506
1.6748 0.666039 -2.96267
1.63975 0.416747 -1.28401
1.65438 0.693032 -1.91654
1.66725 0.460102 0.0332753
1.66693 0.727918 -0.606865
1.69373 0.505688 1.35074
1.68475 0.765037 0.702995
1.69948 0.543956 2.53375
1.69538 0.802685 2.01304
1.68851 0.574039 3.58193
1.68792 0.834454 3.06269
1.6783 0.865029 4.11141
1.68463 0.975969 -2.41414
1.68587 1.39934 -2.90694
1.68155 1.0042 -1.2394
1.6799 1.42541 -1.86187
1.68443 1.03285 0.0628553
1.67972 1.45151 -0.562121
1.68639 1.06203 1.3653
1.68159 1.47505 0.734808
1.68381 1.09318 2.54199
1.68027 1.50169 2.03485
1.6777 1.12544 3.59216
1.67568 1.53055 3.08189
1.66922 1.56168 4.13112
[...]
POINT_DATA 29498
VECTORS point_vectors float
-2.90576 -4.42079 7.21685
0.239713 -0.0453712 1.23641
-0.771617 0.668359 1.82377
0.047699 -0.480904 1.21662
2.92189 -4.44132 7.20383
-0.239033 -0.0462269 1.23524
0.776993 0.67005 1.83646
-0.0425175 -0.489079 1.21542
0.0825502 -0.0440149 0.485953
-0.00350596 0.00177453 0.0439505
-0.0293249 -0.0544653 0.181033
0.0022477 0.0082554 0.0371868
-0.0824272 -0.0437347 0.48613
0.0034668 0.0017183 0.0438119
0.0292511 -0.0544118 0.18108
-0.00224172 0.00823515 0.0371716
-0.674402 -0.287002 19.8899
-1.27768 -0.635849 20.5723
-0.457094 -0.345916 21.3622
-0.0199418 -0.22103 21.497
0.531157 -0.0389616 21.5851
0.930449 0.0833133 21.3325
0.972999 0.315634 20.9657
-0.762756 -0.197903 19.7907
-1.62792 -0.466688 20.562
-0.561412 -0.404555 21.3733
-0.0843764 -0.313995 21.5419
0.553434 -0.187772 21.6561
1.05186 -0.0945748 21.3772
1.02471 0.158812 20.9196
-0.817969 0.0827758 19.7753
-1.61161 0.141446 20.5245
-0.878215 -0.295437 21.3107
-0.292753 -0.365168 21.5838
0.357374 -0.4461 21.6575
0.872933 -0.497501 21.4584
0.789955 -0.430284 20.7766
-0.574778 0.317896 20.005
-0.887464 0.473812 20.5011
-0.826544 0.228401 21.0984
-0.463202 -0.060624 21.4887
-0.0126004 -0.334945 21.4902
0.311772 -0.54664 21.3112
0.358469 -0.770258 20.5
-0.717335 -0.689663 19.1335
-2.74287 -3.80509 20.7138
-0.112341 0.207587 20.6218
0.770229 -0.0617132 18.1707
1.31404 0.945365 17.213
1.95111 1.50857 18.6572
1.73945 1.25741 17.7084
-0.883386 -0.537516 18.7655
2.19549 0.838805 12.1895
2.34787 0.916852 16.3511
-1.05804 0.329198 18.5421
0.835086 -1.01128 9.90453
2.096 -1.56322 15.0463
-0.566997 0.784755 19.5272
-1.13874 1.58985 20.3499
-1.5123 1.33972 20.9586
-0.958194 0.400777 21.9728
-0.379815 -0.318329 21.801
0.0545763 -0.882379 21.2566
-0.0802434 -0.683999 21.6224
0.734739 -0.672245 19.168
2.77639 -3.69799 20.7098
0.105578 0.19888 20.7024
-0.726665 -0.0710358 18.3735
-1.32116 0.904775 17.4646
-1.94758 1.52591 18.5853
-1.76904 1.33999 17.4037
0.922976 -0.510796 18.8554
-2.18753 0.899435 11.6093
-2.38223 1.02803 15.9198
1.06967 0.316859 18.6105
-0.651766 -1.01051 8.50435
-2.12303 -1.57539 13.8791
0.56894 0.784315 19.5293
1.13563 1.62144 20.3457
1.51076 1.39793 20.9399
0.959425 0.43165 21.9899
0.388899 -0.299978 21.7652
-0.018534 -0.891813 21.3392
0.138417 -0.696023 21.725
0.664859 -0.279287 19.9154
1.25173 -0.626569 20.5802
0.458997 -0.346564 21.359
0.021652 -0.221325 21.5006
-0.524829 -0.0409792 21.5867
-0.941596 0.0936244 21.3467
-1.00138 0.31017 20.9382
0.753271 -0.198443 19.8261
1.62902 -0.466651 20.5658
0.562597 -0.409121 21.3811
0.0833891 -0.315769 21.5476
-0.55294 -0.190182 21.6599
-1.07424 -0.103941 21.3518
-1.07652 0.15537 20.9362
0.801977 0.0797068 19.8179
1.6169 0.142598 20.538
0.881402 -0.298324 21.3141
0.294646 -0.366365 21.5837
-0.358217 -0.448566 21.6668
-0.873155 -0.537852 21.3781
-0.775152 -0.435026 20.8547
0.574206 0.319099 20.0051
0.899675 0.489915 20.4987
0.846397 0.237937 21.098
0.475022 -0.0582421 21.4771
0.0270793 -0.324278 21.4853
-0.307084 -0.547072 21.2936
-0.326272 -0.835637 20.4147
-4.90529 -0.165008 4.55514
-0.0471646 -9.26822 6.26727
0.0462271 -0.0143366 0.311751
0.0320157 -0.0822928 0.374268
-0.000356158 -0.0130453 -0.00760623
0.0524694 -0.0252794 1.29457
0.000500311 0.731892 1.2675
-0.256331 -0.267395 0.993433
-0.00148461 -0.0517352 0.0117514
0.00246215 0.00531087 0.0589856
4.90728 -0.164831 4.55764
-0.0378648 -0.0123733 0.244611
-0.0321273 -0.0854727 0.374302
-0.0544797 -0.0281846 1.2938
0.256434 -0.267481 0.994552
-0.00246493 0.00530417 0.0590956
0.00461963 -0.00713847 0.251399
8.52425e-07 -2.95107e-05 0.000133548
0 0 0
2.37085e-07 1.54727e-05 9.23573e-05
1.43918e-07 -1.5534e-08 5.45531e-06
0.00231662 0.00787602 0.0436587
0 0 0
1.83317e-06 3.20923e-06 0.000306491
-0.00459335 -0.0071137 0.251029
-8.45541e-07 -2.92588e-05 0.000132569
-2.35848e-07 1.52246e-05 9.13569e-05
-0.00231565 0.00787059 0.0436796
3.48068e-06 -0.000196016 0.000882698
0 0 0
6.26322e-06 4.25271e-05 0.0016729
-2.08371e-05 4.53928e-05 -0.00367058
0 0 0
0 0 0
-0.000790341 -0.349657 0.176036
1.09886e-06 3.19232e-05 -1.1132e-06
-8.23201e-08 1.63081e-05 -4.88643e-05
-3.26389e-05 0.0513814 0.268519
-8.69053e-08 -1.76165e-07 -9.17526e-05
-3.48406e-06 -0.000195109 0.000879706
0 0 0
-6.16994e-06 4.13274e-05 0.00167003
-3.31828 -1.49056 20.7088
-4.29325 -5.81246 20.9842
-2.33807 -1.76552 17.4464
0.998717 -0.228027 21.3379
1.48124 0.510684 9.61822
1.34 0.112344 8.50401
-3.22209 0.638825 20.6965
-2.9155 1.37317 17.086
-2.40603 2.65087 20.4982
0.54137 -0.87087 21.2057
0.115357 -1.03361 6.57842
0.102442 -0.263526 14.0612
4.32154 -5.69764 21
2.3485 -1.66675 17.5951
3.31434 -1.48764 20.7097
-1.48808 0.490957 9.95957
-1.29155 0.104775 8.10574
-0.991751 -0.233433 21.3332
2.90924 1.28466 17.2518
2.40682 2.70685 20.5022
3.23522 0.644985 20.6961
0.00438513 -1.07978 5.87814
-0.118381 -0.228641 13.4334
-0.533453 -0.869848 21.1647
-0.324702 -0.693799 21.6714
1.07714 0.254745 12.4806
0.057804 -0.465911 21.1718
0.639578 -0.369006 9.65445
-1.25556 -0.708638 21.5485
-3.08802 1.17522 20.6343
-0.310855 -0.782127 21.3635
-0.537756 0.151619 15.3039
-1.056 0.248801 12.6403
0.322521 -0.693085 21.6698
-0.621609 -0.377364 10.0442
-0.057014 -0.465984 21.1799
3.11527 1.2351 20.589
1.25536 -0.721438 21.5158
0.433142 0.236115 14.5249
0.309126 -0.787535 21.336
-1.03312 -0.485861 20.0572
-0.718524 -0.242604 19.841
-0.776595 -0.484078 19.5441
-0.911426 -0.509965 21.2043
-1.49558 -0.597503 20.5657
-2.07599 -1.52137 20.6728
-0.205966 -0.283809 21.4424
-0.486732 -0.383679 21.3838
-0.301045 -0.402202 21.6563
0.222268 -0.128313 21.6404
-0.0512147 -0.27099 21.5266
0.125503 -0.255771 21.5958
0.764938 0.0568545 21.503
0.542294 -0.127701 21.6225
0.89959 0.141636 21.7524
1.05804 -0.0521102 21.1513
1.01988 -0.00197291 21.346
1.48371 0.479667 21.4772
0.966745 0.254259 21.0223
1.13381 0.46518 21.2106
-1.25677 -0.351623 19.9375
-0.817039 -0.0758534 19.752
-0.946176 -0.362738 19.3471
-1.10248 -0.446366 21.2817
-1.75856 -0.209867 20.5522
-0.280408 -0.379891 21.4558
-0.697261 -0.40473 21.3599
0.192106 -0.241443 21.6858
-0.162869 -0.379586 21.5967
0.82118 -0.132751 21.557
0.492456 -0.348605 21.6748
1.13644 -0.124035 21.2621
0.931143 -0.337631 21.3672
1.87461 -0.0513266 21.1255
0.977432 -0.168014 20.8656
1.74047 0.1495 19.7877
-1.30284 0.145697 19.9497
-0.728117 0.272985 19.8731
-1.06864 0.181516 19.2914
-1.21568 -0.0699871 21.1307
-1.24405 0.426805 20.5066
-0.597949 -0.381065 21.4855
-1.00795 0.0176612 21.1996
0.0290057 -0.372888 21.6795
-0.453825 -0.224159 21.5575
0.627632 -0.460961 21.559
0.118765 -0.436199 21.5503
1.02127 -0.522143 21.1708
0.554057 -0.569748 21.492
1.48064 -1.0973 21.2949
0.552443 -0.630126 20.5634
1.61797 -0.929208 19.4476
-0.769861 0.448768 20.1871
-0.640775 0.532275 19.785
-0.889005 0.380355 20.8274
-1.13303 0.901956 20.4419
-0.690456 0.0881521 21.3398
-1.22466 0.541118 21.1152
-0.219775 -0.201888 21.5257
-0.69678 0.025016 21.6886
0.151977 -0.432491 21.3398
-0.144852 -0.394801 21.6331
0.374497 -0.480499 21.1987
0.243106 -0.676133 21.3423
0.218277 -0.712296 21.6959
-1.53694 -1.82908 18.766
-0.809324 -0.662511 18.9408
0.0430663 -0.959889 18.6785
-1.48105 -0.801835 22.4689
0.0361049 -6.71681 20.1856
0.533151 0.125314 19.188
-0.00807851 -0.376809 10.6173
0.851177 0.0475731 17.2305
-0.0186666 -0.0999219 6.58284
1.59531 1.21741 17.7577
-0.00889343 0.533756 7.01495
1.97509 1.45057 17.592
2.18613 1.30693 15.7003
-0.00433755 1.05782 8.32826
2.11567 1.24388 16.8449
0.0435337 2.13912 11.3598
-1.01433 -0.147824 18.5096
0.0418845 -0.719888 18.1173
2.66211 0.983803 14.6591
1.6873 -0.309159 9.72014
0.0195915 0.385468 1.17048
2.59536 -0.19101 15.8632
0.0747775 2.28833 5.03433
-0.857041 0.77026 18.9892
0.0506039 0.527741 17.6564
1.91326 -1.27257 12.1509
0.446658 -1.47387 16.9698
0.00912878 1.94966 -4.31168
0.328381 -1.9579 18.672
0.0467696 3.75795 -3.55877
-0.916121 1.34543 19.7282
0.00165092 1.09595 19.2502
-1.23191 1.3196 20.7991
-0.0174964 2.49262 20.2248
-1.57499 1.13856 21.7807
-0.0303298 2.68833 20.5092
-0.590396 0.000361872 21.9053
-0.024327 1.31715 22.3849
-0.207955 -0.587554 21.7317
-0.0258661 0.416074 20.7623
0.137342 -1.13054 20.3126
-0.0607768 -0.153297 19.5699
0.00451329 -0.470008 20.1757
1.5723 -1.7333 18.8536
0.823246 -0.635049 19.0032
0.77889 -0.454019 19.6005
1.44832 -0.791735 22.4501
2.04434 -1.4721 20.6643
-0.514962 0.120935 19.363
0.311476 -0.407631 21.6474
-0.842272 0.0417074 17.5288
-0.114218 -0.262443 21.6108
-1.59659 1.19911 17.7778
-0.884522 0.127724 21.7552
-1.96928 1.47308 17.3706
-2.1797 1.34639 15.2988
-1.49792 0.475629 21.472
-2.14664 1.34275 16.469
-1.18229 0.476291 21.1031
1.05066 -0.138056 18.6108
0.929752 -0.34478 19.4305
-2.63376 1.05012 14.2607
-1.63806 -0.291129 8.70113
-1.90488 -0.0351826 20.9931
-2.62733 -0.211256 14.8738
-1.80141 0.1597 19.6409
0.86417 0.76026 19.0058
1.06754 0.165579 19.3583
-1.80752 -1.2185 10.8454
-0.389618 -1.52252 16.1658
-1.50038 -1.08453 20.894
-0.308081 -1.98367 17.712
-1.75548 -1.01212 19.1903
0.914962 1.35768 19.7231
0.641774 0.529082 19.7864
1.22658 1.35032 20.7937
1.13713 0.925329 20.4322
1.58 1.2082 21.7952
1.24239 0.568418 21.1101
0.597224 0.0229105 21.9174
0.713586 0.0420233 21.6903
0.223885 -0.568887 21.6455
0.149596 -0.391672 21.635
-0.121607 -1.11062 20.2626
-0.235354 -0.670455 21.3064
-0.166705 -0.696216 21.9797
1.00837 -0.470061 20.0848
0.709466 -0.240867 19.875
0.908997 -0.508337 21.1929
1.48236 -0.594512 20.5683
0.207876 -0.282871 21.442
0.486092 -0.383733 21.3887
-0.220278 -0.131684 21.6291
0.0502429 -0.271914 21.5351
-0.761526 0.0526951 21.491
-0.54317 -0.129051 21.6296
-1.06488 -0.0369982 21.1656
-1.0358 -0.00385332 21.3369
-1.01256 0.259274 21.0242
1.23721 -0.343116 19.9654
0.801862 -0.0714812 19.7999
1.10298 -0.446981 21.2893
1.76288 -0.211974 20.5617
0.278315 -0.382184 21.4607
0.698187 -0.406969 21.3632
-0.194705 -0.247945 21.6836
0.163936 -0.379574 21.5953
-0.824556 -0.147692 21.5697
-0.484389 -0.342119 21.6743
-1.15847 -0.126954 21.2684
-0.95399 -0.33061 21.3694
-0.959192 -0.176316 20.9389
1.27965 0.140111 19.9765
0.721741 0.259256 19.8876
1.22141 -0.0713506 21.1417
1.25354 0.436096 20.5079
0.598223 -0.383731 21.4894
1.01797 0.0208987 21.2
-0.0284266 -0.375052 21.6882
0.464509 -0.227166 21.5569
-0.63969 -0.481732 21.603
-0.117333 -0.433942 21.5566
-1.05525 -0.541033 21.1559
-0.557205 -0.598561 21.3762
-0.58448 -0.636587 20.4977
0.775899 0.455075 20.1833
0.907107 0.389816 20.8291
0.710214 0.0950371 21.3545
0.227524 -0.222059 21.5583
-0.13907 -0.427311 21.3589
-0.368141 -0.501494 21.2089
-1.16424 -0.436561 19.9896
-1.89587 -1.90782 18.1775
-1.47863 -1.02474 19.5892
-2.01672 -0.843455 19.1955
-0.852696 -0.44976 19.4527
-2.60332 -1.57331 20.6977
-1.00059 -0.479004 21.2806
-0.0924973 -0.0682562 16.3873
-1.09078 -0.81521 21.7274
-1.27418 -0.82146 22.0749
-0.266576 -0.535691 21.6928
-0.236865 -0.336556 21.4566
0.969047 -0.225073 11.5308
-0.0132491 -0.316924 21.5722
-0.0623074 -0.602891 21.3211
0.124704 -0.37312 21.4449
0.219738 -0.192488 21.6835
0.410803 -0.0812294 8.55433
0.372835 -0.120431 21.7668
0.326821 -0.347814 21.4031
1.01628 -0.0275006 21.5609
0.802612 -0.0495846 21.5384
1.70429 0.815453 12.765
1.23964 0.329376 21.5799
1.41412 -0.118718 21.2285
1.73538 0.223088 21.2797
1.13157 -0.0914947 21.2248
2.35261 1.2717 16.6826
1.66015 0.479855 20.7211
1.92861 0.115229 20.3323
1.50846 0.462579 20.3161
-1.36077 -0.120402 19.9139
-2.99475 -0.366315 16.6144
-2.22048 0.47161 19.2059
-1.05879 -0.0977775 19.2516
-3.83236 -0.402219 20.6856
-1.19187 -0.296914 21.2753
-1.74743 -0.121372 21.6584
-0.776483 -0.79809 21.4675
-0.416084 -0.427193 21.4967
-0.778529 -0.898229 21.6083
-0.0597706 -0.619161 20.8308
0.131001 -0.337964 21.7205
0.0475435 -0.73461 21.2534
0.882618 -0.62768 21.0268
0.752238 -0.34453 21.574
0.631936 -0.921084 5.9795
0.904267 -0.940223 21.2989
1.80075 -0.664097 21.0023
1.13325 -0.335599 21.0947
2.74189 0.00225247 11.9108
1.60234 -0.926716 20.1823
1.80765 -0.66893 19.5308
-1.06274 0.40431 20.0695
-1.66494 1.86803 18.9174
-0.946035 0.807 19.9973
-0.881198 0.460006 19.5186
-1.92673 1.06384 20.5014
-1.12729 0.23016 20.957
-2.19954 1.23581 21.1109
-1.16206 0.7112 20.845
-1.70884 0.0635294 21.2445
-0.783339 -0.128459 21.4296
-3.3623 -0.336663 20.3321
-1.10194 0.345256 21.5226
-0.802139 -0.360667 21.8277
-0.139353 -0.318433 21.6124
-0.0546335 0.171354 13.9052
-0.392358 -0.176631 21.6853
-0.0197903 -0.682215 21.7707
0.36011 -0.549538 21.5361
0.182038 -0.750746 15.4363
0.054509 -0.554804 21.5666
0.744229 -1.11533 21.5989
0.62612 -0.616162 21.6628
0.696837 -1.68118 17.6391
0.400112 -0.737127 21.1102
0.43895 -1.23913 21.3127
1.92842 -1.81099 18.296
0.0458113 -2.80619 17.7685
0.0519373 -2.69243 15.5838
0.0469037 -0.903663 18.4053
0.0196637 -10.4444 19.8177
0.110376 -0.074554 16.5919
0.0289642 -2.33123 19.6434
-0.0127101 0.00381795 1.84916
-0.950663 -0.22546 11.7859
-0.0215894 -0.159338 7.35742
-0.00405626 -0.0174872 2.36497
-0.447983 -0.0869362 9.06676
-0.0140829 0.0149252 6.8416
-0.0051411 0.212145 1.23158
-1.68757 0.805894 12.6453
-0.0125778 0.577432 7.5251
-0.00842328 -0.224449 1.63497
0.00687856 0.704494 4.39342
-2.33419 1.3151 16.3748
0.0113333 2.06638 9.46765
0.114346 2.29374 2.24349
0.0560308 1.98262 8.08929
2.99675 -0.340862 16.8366
0.0513261 2.5695 14.4127
0.0437195 -0.210573 17.6837
-0.565761 -0.970409 5.53703
-0.00338843 0.456934 -3.90366
0.0477243 0.435651 -2.35105
-2.70759 0.0751171 10.7934
0.0184802 2.78599 -3.96888
0.109004 3.59429 -0.731435
1.67056 1.84075 18.9347
-0.00543643 2.03982 19.382
0.0203307 1.11406 18.4132
-0.0159799 4.91063 20.2589
2.20742 1.26604 21.1052
-0.0231253 2.24572 20.6967
-0.0252387 2.94361 16.8729
3.42399 -0.352098 20.0635
-0.0365574 3.08691 22.2361
5.98001e-05 0.127498 5.19177
0.0023926 0.225557 13.3041
-0.0190066 0.614901 21.7213
-0.0862545 1.32542 -0.012337
-0.17595 -0.709401 14.727
-0.0325009 0.0769942 19.6795
0.00936263 0.9832 -3.67453
-0.640615 -1.6662 16.8699
-0.0580825 -0.472056 18.6759
0.0270768 2.2821 -1.84112
1.13848 -0.426797 20.0152
1.44715 -0.956994 19.6498
1.96611 -0.806614 19.2588
0.856857 -0.434283 19.5099
2.56981 -1.54207 20.6901
0.995463 -0.477533 21.28
1.09089 -0.808838 21.7058
1.27472 -0.820764 22.0788
0.27563 -0.53718 21.6952
0.237432 -0.337537 21.4582
0.0268358 -0.32492 21.5743
0.0619981 -0.602654 21.3164
-0.117725 -0.373476 21.4848
-0.21951 -0.199883 21.6747
-0.360217 -0.13036 21.7811
-0.326496 -0.35078 21.3979
-1.00116 -0.0354595 21.5671
-0.803851 -0.0606649 21.5419
-1.23247 0.323606 21.5849
-1.42459 -0.128505 21.1893
-1.74995 0.235954 21.2535
-1.1547 -0.0897151 21.2284
-1.68753 0.50363 20.6561
-1.98577 0.152396 20.2054
-1.56217 0.475205 20.1811
1.33424 -0.122103 19.9479
2.16958 0.450358 19.2655
1.04499 -0.0844162 19.3334
3.83621 -0.403035 20.6853
1.19633 -0.301004 21.2821
1.74816 -0.119921 21.6637
0.771857 -0.803337 21.4178
0.416188 -0.427874 21.5027
0.778871 -0.909511 21.5792
0.0597177 -0.621949 20.8158
-0.136933 -0.339061 21.7239
-0.0478634 -0.737235 21.2219
-0.87635 -0.633565 21.0154
-0.759869 -0.338243 21.5698
-0.899346 -0.944757 21.1061
-1.82216 -0.668219 20.7429
-1.16017 -0.345914 21.0898
-1.66563 -0.963439 19.9621
-1.92466 -0.746077 19.3112
1.05805 0.401531 20.074
0.946722 0.811631 19.9923
0.879331 0.438901 19.5395
1.94354 1.09072 20.4975
1.13836 0.237324 20.962
1.16652 0.734854 20.8413
1.74299 0.0757698 21.2386
0.793311 -0.128905 21.4331
1.12566 0.371503 21.534
0.819894 -0.367199 21.8185
0.142469 -0.325236 21.6331
0.400952 -0.168391 21.6912
0.0366798 -0.693328 21.7181
-0.368172 -0.558908 21.503
-0.0335462 -0.559042 21.5991
-0.725168 -1.13862 21.4791
-0.646792 -0.659758 21.7678
-0.381575 -0.780321 21.1731
-0.437243 -1.33609 21.4612
-1.72089 -0.968383 19.4137
-1.16285 -0.813426 21.8846
0.00380003 -0.456225 21.5225
0.391999 -0.247314 21.5766
1.353 0.11143 21.3952
1.88072 0.341347 20.2298
-2.34162 -0.229109 19.0106
-1.64808 -0.584514 22.0346
-0.346909 -0.770857 21.0105
0.244347 -0.552575 20.9977
1.3053 -0.633229 21.0375
1.80816 -0.503883 20.6556
-1.52646 0.870569 19.6788
-1.64096 0.443059 21.0885
-1.41507 -0.220542 21.7264
-0.383903 -0.480191 21.8159
0.292034 -0.868863 21.7862
0.84102 -1.14775 21.233
0.0429827 -2.99732 16.8207
-0.00393464 -0.341645 3.75018
-0.010324 -0.0444438 2.10287
-0.00176146 0.0193211 2.08876
-0.0102018 0.133689 4.17582
0.019747 2.11472 5.33394
0.0484642 -0.55439 13.8631
0.0182484 0.0377882 -0.981542
0.168694 3.19982 -1.99242
0.0102872 3.05551 17.9199
-0.0222809 3.14201 21.1561
-0.00923615 2.77312 12.3053
-0.00517926 0.0168399 3.63563
-0.0948133 -0.142192 -1.37835
-0.0632007 -0.908648 0.0276981
1.6676 -0.91968 19.4885
1.1674 -0.809942 21.8684
0.00487047 -0.456871 21.5427
-0.387488 -0.250621 21.606
-1.35368 0.107287 21.3894
-1.92282 0.370796 20.1315
2.2792 -0.216068 19.0857
1.65006 -0.590394 22.0453
0.344208 -0.774439 20.9702
-0.245259 -0.55931 20.9901
-1.31435 -0.644043 20.8871
-1.86833 -0.537937 20.4633
1.52095 0.856816 19.6862
1.65759 0.455088 21.0867
1.44598 -0.224536 21.7338
0.398774 -0.490272 21.793
-0.266004 -0.884658 21.74
-0.855724 -1.21832 21.1263
-8.09673 -2.68266 8.28889
-1.06598 -8.93577 7.16267
0.00350445 0.0146879 0.475187
0.0177844 -0.0533501 0.177116
-0.00641151 -0.0147704 -0.00923341
0.0875634 -0.0358805 1.44679
-6.56219 0.542199 6.69662
-0.128982 0.787112 1.37252
-0.166299 -0.122687 0.915304
0.0468871 -0.148864 0.630902
-0.09397 -0.0331833 0.00914592
8.74034e-05 0.000211031 0.0110186
1.06541 -8.94258 7.16836
8.09298 -2.67968 8.30214
-0.00362136 0.0150615 0.475812
0.00584701 -0.0147494 -0.00928755
-0.0178587 -0.0542182 0.177027
-0.0878 -0.0356657 1.44905
0.136614 0.7768 1.36177
6.5639 0.543935 6.69795
0.166541 -0.122803 0.916514
0.0924076 -0.0335839 0.00917715
-0.0462133 -0.154427 0.629588
-7.97077e-05 0.000191272 0.0109395
0.142415 -0.0850188 1.98405
0.0114333 -0.00824479 0.126439
0 0 0
0 0 0
-0.0274204 -0.025892 0.703901
0.000943886 -0.00146812 0.219906
-1.29201e-05 0.000335017 0.00255742
0 0 0
-0.251998 -0.350435 0.798505
1.82474e-06 -0.000880348 0.00478233
0.000100482 0.000635765 0.040565
0 0 0
0.00252573 0.0062131 0.0384988
0 0 0
0.00376664 0.0134662 0.0588217
0.04649 0.0231041 0.266659
-0.137229 -0.0835309 1.91211
0 0 0
-0.0113457 -0.00817342 0.126313
0 0 0
0.0271073 -0.0265361 0.703909
0 0 0
-0.00107163 -0.00169087 0.219859
1.28622e-05 0.000333234 0.00255869
0.251785 -0.35042 0.798962
0 0 0
-1.95411e-06 -0.0008944 0.00486065
-0.00010165 0.000638383 0.0405953
-0.00252766 0.00621667 0.0385489
-0.0467681 0.0231522 0.266653
0 0 0
-0.00376001 0.0134439 0.0588244
-0.00412838 0.00117828 0.034173
-0.260206 -0.290759 0.181202
1.48017e-07 -3.23242e-07 -1.68867e-06
-6.53941e-20 -1.27054e-17 1.72691e-17
0.000519209 -0.00668976 0.0632024
0.00597139 -0.000105766 -0.00330238
0 0 0
-9.81691e-06 -2.77239e-05 1.06819e-06
-1.74743e-08 -3.68766e-08 -2.87499e-06
-9.66349e-07 -3.0223e-05 1.62991e-06
4.88123e-06 -7.17092e-06 0.00163466
2.66423e-06 7.27406e-08 2.92628e-05
-0.00223585 1.60323 0.341601
0 0 0
-0.000463969 -0.00751758 0.0189061
-0.000150865 1.4787e-05 0.000191042
-2.68996e-05 -0.00297199 8.34563e-05
-0.00320563 -0.0463617 0.181081
0.000256298 0.0032674 0.0513648
-5.11396e-06 -6.66949e-08 -0.000134583
0.260927 -0.291541 0.181754
0.00412421 0.00117027 0.0341265
-0.00614983 -0.000111156 -0.00339497
-0.000517255 -0.00655739 0.0624395
9.54572e-06 -2.83891e-05 1.09449e-06
0 0 0
-9.57366e-07 3.37599e-08 1.08495e-05
-4.89229e-06 -9.0144e-06 0.00163439
0.000151682 1.48964e-05 0.000192687
0.000459983 -0.00744698 0.0187224
5.10704e-06 -6.89399e-08 -0.000126663
-0.000256432 0.0032251 0.0512708
-6.08226e-06 5.27788e-05 0.00474783
0 0 0
0.00101776 -0.00630128 0.0177777
-2.27791e-07 2.11121e-07 -3.48683e-05
1.46498e-06 3.24463e-07 -1.95569e-05
5.58585e-07 2.27475e-08 7.70716e-06
-1.30989e-07 -3.53627e-06 -2.64611e-05
-0.000703049 0.00109762 0.0125457
6.00096e-07 -2.06921e-08 1.80733e-05
3.10615e-07 -3.36263e-08 1.74648e-05
-4.36874e-07 -1.1399e-05 -6.62993e-05
-0.624086 0.555791 2.77774
-8.09535e-08 -3.14609e-06 -8.43969e-05
0 0 0
-1.68534e-07 4.4832e-06 0.000222062
-1.53179e-06 -1.13048e-06 -0.000227103
0 0 0