# vtk DataFile Version 2.0
tri_press
ASCII
DATASET UNSTRUCTURED_GRID
POINTS 3682 float
-0.794203 0.435 -2.195
-0.767425 0.465 2.205
-0.803605 0.755 -2.205
-0.745 0.865 2.16862
0.794199 0.435 -2.195
0.76742 0.465 2.205
0.8036 0.755 -2.205
0.745 0.865 2.16859
-0.827938 0.402339 -0.728333
-0.829135 0.402216 0.738333
-0.843382 0.850979 -0.747127
-0.819179 0.882977 0.710747
0.827975 0.402298 -0.728333
0.829123 0.402224 0.738333
0.84338 0.85098 -0.747137
0.819169 0.882969 0.710727
-1.61818 0.197708 -3.35481
-1.62104 0.217543 -2.185
-1.64149 0.19434 -0.718104
-1.63395 0.186646 0.750563
-1.59083 0.226619 2.21761
-1.57975 0.252568 3.38815
-1.5848 0.269996 4.55733
-1.61805 0.393445 -3.36297
-1.62154 0.427326 -2.19412
-1.64861 0.415333 -0.728939
-1.6316 0.408697 0.737037
-1.56774 0.444123 2.20239
-1.56445 0.468924 3.3728
-1.57703 0.486423 4.54228
-1.62256 0.759407 -3.37683
-1.63 0.79231 -2.20762
-1.65857 0.854505 -0.748426
-1.62595 0.873383 0.710141
-1.55377 0.869299 2.1695
-1.55742 0.892588 3.34027
-1.57504 0.915414 4.51116
-1.6288 1.37696 -3.40423
-1.63412 1.41938 -2.23633
-1.64365 1.48951 -0.779997
-1.63771 1.53544 0.674442
-1.61713 1.54887 2.13087
-1.60596 1.55826 3.29895
-1.60417 1.57334 4.46888
-0.803353 0.201391 -3.35538
-0.7991 0.223136 -2.18583
-0.819559 0.187916 -0.717996
-0.826413 0.182021 0.751671
-0.798268 0.237339 2.21955
-0.78975 0.260048 3.38946
-0.7932 0.273695 4.55809
-0.80343 0.392938 -3.36315
-0.77804 0.476619 3.37388
-0.787875 0.48983 4.54285
-0.806614 0.744217 -3.37574
-0.77238 0.892936 3.34009
-0.787206 0.916169 4.51112
-0.809861 1.36685 -3.40315
-0.812528 1.40999 -2.23515
-0.823972 1.48792 -0.779288
-0.828896 1.53839 0.67435
-0.820139 1.54976 2.13025
-0.812008 1.55791 3.29833
-0.809662 1.57299 4.46843
0.811736 0.201385 -3.35538
0.813352 0.223127 -2.18583
0.828022 0.187889 -0.717997
0.815807 0.18202 0.751669
0.77518 0.23734 2.21954
0.777528 0.260048 3.38945
0.783258 0.273693 4.55808
0.806219 0.392935 -3.36315
0.772611 0.476618 3.37388
0.780767 0.489828 4.54284
0.809433 0.744215 -3.37574
0.764668 0.892936 3.34007
0.776668 0.916167 4.5111
0.824202 1.36685 -3.40316
0.827173 1.40999 -2.23516
0.81998 1.48791 -0.779298
0.795951 1.53839 0.674335
0.774084 1.54975 2.13023
0.772048 1.5579 3.29832
0.775896 1.57298 4.46841
1.62441 0.197694 -3.35481
1.62785 0.217522 -2.185
1.64653 0.194302 -0.718111
1.63229 0.186636 0.750553
1.5838 0.226617 2.21759
1.57373 0.252565 3.38813
1.57783 0.269991 4.55731
1.61898 0.393435 -3.36298
1.61942 0.427314 -2.19413
1.64882 0.415292 -0.728948
1.63662 0.408689 0.737024
1.57439 0.444124 2.20237
1.56513 0.468922 3.37278
1.57281 0.486419 4.54225
1.62328 0.7594 -3.37683
1.62769 0.792305 -2.20762
1.65766 0.85449 -0.748443
1.62926 0.873369 0.710112
1.55877 0.869297 2.16946
1.55533 0.892585 3.34024
1.56725 0.915409 4.51113
1.64014 1.37695 -3.40424
1.64409 1.41938 -2.23635
1.63897 1.4895 -0.780017
1.6115 1.53543 0.674415
1.58034 1.54886 2.13084
1.5717 1.55825 3.29892
1.57338 1.57334 4.46885
-0.798167 0.595 -2.19926
-1.99676e-06 0.432533 -2.19747
-0.887782 0.341958 -1.46167
-0.770559 0.665 2.20116
-2.5034e-06 0.463065 2.20693
-0.824024 0.407864 1.47167
-2.5034e-06 0.756348 -2.20635
-0.844533 0.824029 -1.47606
0 0.875997 2.1796
-0.804577 0.896477 1.43968
0.80317 0.595 -2.20427
0.887777 0.341959 -1.46167
0.770555 0.665 2.20114
0.824037 0.407846 1.47167
0.844531 0.824031 -1.47607
0.804575 0.896475 1.43966
-0.828741 0.402073 0.005
-0.872194 0.626659 -0.73773
1.83059e-05 0.257842 -0.728333
-0.873537 0.642597 0.72454
-5.90646e-06 0.261444 0.738333
-0.828166 0.863864 -0.0181899
-1.13946e-06 0.97902 -0.747132
-5.04125e-06 1.39907 0.710737
0.828734 0.402076 0.005
0.87219 0.626639 -0.737735
0.873533 0.642596 0.72453
0.828172 0.863872 -0.0182049
-0.891566 0.610829 -1.46887
0.891561 0.610819 -1.46887
8.15456e-06 0.290342 -1.46167
-1.82143e-06 0.924435 -1.47607
-2.25008e-06 0.595 -2.09743
-0.873107 0.634628 -0.00659496
0.873104 0.634618 -0.00660247
6.19971e-06 0.259631 0.005
-3.09035e-06 1.39579 -0.0181974
-0.875521 0.653798 1.45568
0.87553 0.653798 1.45566
-4.20493e-06 0.28835 1.47167
-2.52062e-06 1.18571 1.43967
-1.2517e-06 0.665 2.20387
-0.807476 0.515 -2.20842
-0.397102 0.432653 -2.19735
-0.823807 0.405664 -1.82833
-0.759249 0.565 2.19334
-0.383714 0.463059 2.20694
-0.791823 0.440333 1.83833
-0.804329 0.675 -2.20557
-0.401804 0.757356 -2.20736
-0.83058 0.796025 -1.84053
-0.76947 0.765 2.19658
-0.3725 0.875046 2.17866
-0.785897 0.891847 1.80415
0.397098 0.432653 -2.19735
0.807469 0.515 -2.20842
0.823869 0.405599 -1.82833
0.383709 0.46306 2.20694
0.759348 0.565 2.19343
0.791817 0.440335 1.83833
0.401799 0.757343 -2.20734
0.806371 0.675 -2.20762
0.830576 0.796026 -1.84053
0.3725 0.875063 2.17866
0.769481 0.765 2.19657
0.785894 0.891844 1.80412
-0.870684 0.359324 -1.095
-0.828831 0.401714 -0.361667
-0.866469 0.506297 -0.733032
-0.443612 0.270785 -0.728333
-0.836494 0.395125 1.105
-0.828633 0.402449 0.371667
-0.868289 0.51393 0.731437
-0.442014 0.276944 0.738333
-0.846009 0.839556 -1.1116
-0.869529 0.74469 -0.742428
-0.834501 0.856148 -0.382658
-0.449085 0.969786 -0.747129
-0.814269 0.892117 1.07522
-0.863434 0.771325 0.717644
-0.82318 0.872928 0.346279
-0.528068 1.37797 0.710742
0.870679 0.359325 -1.095
0.44364 0.270783 -0.728333
0.828817 0.401724 -0.361667
0.866465 0.506277 -0.733034
0.836425 0.39519 1.105
0.441998 0.276955 0.738333
0.828622 0.402456 0.371667
0.868305 0.513921 0.731432
0.846006 0.839556 -1.1116
0.449021 0.969663 -0.747134
0.869527 0.74468 -0.742436
0.834499 0.856149 -0.382671
0.814262 0.892112 1.07519
0.528095 1.37804 0.710732
0.863407 0.77131 0.717629
0.823188 0.872938 0.346261
-0.854167 0.602915 -1.83406
-0.399084 0.595 -2.12339
3.0789e-06 0.2887 -1.82957
-2.12342e-06 0.513767 -2.23955
-0.872526 0.476394 -1.46527
-0.443887 0.28926 -1.46167
-0.836049 0.659399 1.82842
-0.38528 0.665 2.21335
-3.35416e-06 0.302604 1.8393
-1.87755e-06 0.564033 2.20165
-0.862481 0.530831 1.46367
-0.412014 0.288607 1.47167
-2.16241e-06 0.86318 -1.84121
-2.37674e-06 0.675674 -2.10362
-0.871446 0.717429 -1.47246
-0.422267 0.909457 -1.47606
-1.26031e-06 1.01364 1.80964
-6.25849e-07 0.770499 2.22574
-0.852713 0.775137 1.44768
-0.40229 1.18575 1.43968
0.853872 0.60291 -1.83657
0.401584 0.595 -2.14295
0.872536 0.476389 -1.46527
0.443892 0.289219 -1.46167
0.836049 0.659399 1.8284
0.385277 0.665 2.21335
0.862428 0.530822 1.46366
0.412016 0.288619 1.47167
0.87145 0.717425 -1.47247
0.422265 0.909462 -1.47607
0.852709 0.775137 1.44766
0.402286 1.18575 1.43966
-0.867322 0.510151 -0.00079748
-0.443134 0.273319 0.005
-0.879401 0.618744 -1.1033
-0.87247 0.630643 -0.372163
1.32302e-05 0.291871 -1.095
1.22528e-05 0.258577 -0.361667
-0.873581 0.638612 0.358973
-0.875354 0.648198 1.09011
1.46624e-07 0.26053 0.371667
-5.05569e-06 0.286889 1.105
-0.866851 0.757353 -0.0123924
-0.534868 1.37139 -0.0181937
-1.48044e-06 0.948329 -1.1116
-2.11491e-06 1.24784 -0.382665
-4.0658e-06 1.40734 0.34627
-3.78094e-06 1.34748 1.0752
0.867341 0.510136 -0.000801235
0.443138 0.273318 0.005
0.879386 0.618729 -1.1033
0.872468 0.630628 -0.372169
0.873577 0.638607 0.358964
0.875668 0.648197 1.0901
0.866847 0.757349 -0.0124037
0.534856 1.37137 -0.0182012
-0.846013 0.495697 -1.8312
-0.8755 0.495446 -1.09915
-0.875678 0.728124 -1.10745
-0.853699 0.696214 -1.8373
0.845873 0.495695 -1.83245
0.853596 0.696213 -1.83855
0.875715 0.728117 -1.10745
0.87551 0.495429 -1.09915
-0.420495 0.288589 -1.82895
0.420495 0.288574 -1.82895
0.428944 0.291442 -1.095
-0.428923 0.291471 -1.095
-0.412036 0.862746 -1.84087
-0.421979 0.938708 -1.1116
0.421977 0.938704 -1.1116
0.412032 0.862745 -1.84087
-0.398093 0.514383 -2.23512
-0.400444 0.675337 -2.13834
0.401691 0.675337 -2.14906
0.399341 0.514383 -2.23507
-0.866391 0.508477 -0.366915
-0.868144 0.511872 0.36532
-0.865849 0.764692 0.352626
-0.86792 0.750886 -0.37741
0.866393 0.508461 -0.366918
0.867922 0.750882 -0.37742
0.865845 0.764689 0.352612
0.868163 0.511859 0.365315
-0.443374 0.27205 -0.361667
0.443391 0.272047 -0.361667
0.442347 0.275578 0.371667
-0.442357 0.275566 0.371667
-0.510888 1.20841 -0.382661
-0.534677 1.3811 0.346274
0.534672 1.3811 0.346265
0.510859 1.20836 -0.382668
-0.873872 0.526619 1.09755
-0.829406 0.547916 1.83337
-0.831234 0.770069 1.81628
-0.863113 0.768962 1.08266
0.873795 0.526616 1.09755
0.862999 0.76896 1.08264
0.831234 0.770068 1.81626
0.829369 0.547911 1.83337
-0.413292 0.287108 1.105
0.413287 0.287111 1.105
0.397863 0.302641 1.83882
-0.397864 0.30264 1.83882
-0.405941 1.34606 1.07521
-0.387395 1.01484 1.80689
0.387393 1.01484 1.80688
0.405934 1.34606 1.0752
-0.384497 0.564516 2.20181
0.384493 0.564516 2.20181
0.378889 0.767749 2.22466
-0.37889 0.767749 2.22465
-0.804455 0.475 -2.20533
-0.595653 0.432659 -2.19734
-0.801216 0.428121 -2.01167
-0.78118 0.515 2.21701
-0.575569 0.463066 2.20693
-0.772027 0.460264 2.02167
-0.80415 0.715 -2.20547
-0.602704 0.751563 -2.20156
-0.82073 0.77915 -2.02277
-0.759577 0.815 2.18494
-0.55875 0.872799 2.17641
-0.771762 0.884737 1.98639
0.595649 0.432659 -2.19734
0.804438 0.475 -2.20531
0.801342 0.427991 -2.01167
0.575564 0.463067 2.20693
0.781176 0.515 2.21701
0.772011 0.460275 2.02167
0.602699 0.751537 -2.20154
0.80666 0.715 -2.20799
0.820764 0.779189 -2.02277
0.55875 0.87287 2.17646
0.759595 0.815 2.18493
0.771745 0.88472 1.98636
-0.830185 0.399958 -0.911667
-0.828666 0.401745 -0.545
-0.85297 0.451435 -0.730683
-0.683844 0.240424 -0.728333
-0.847843 0.383643 0.921667
-0.828677 0.40254 0.555
-0.855841 0.454509 0.734885
-0.685098 0.240533 0.738333
-0.844984 0.845556 -0.929361
-0.858661 0.798937 -0.744778
-0.838118 0.85274 -0.564893
-0.668058 0.95403 -0.747128
-0.817164 0.887988 0.892981
-0.841301 0.827149 0.714195
-0.821179 0.877952 0.528513
-0.680945 1.14512 0.710744
0.830175 0.399964 -0.911667
0.683854 0.240448 -0.728333
0.828657 0.40175 -0.545
0.852952 0.451422 -0.730684
0.84781 0.38367 0.921667
0.685112 0.240486 0.738333
0.828663 0.402549 0.555
0.855838 0.454511 0.734883
0.844989 0.845564 -0.92937
0.668059 0.954038 -0.747135
0.85866 0.798933 -0.744786
[...]
POINT_DATA 3682
SCALARS point_scalars float 1
LOOKUP_TABLE default
-83.5354
-38.8215
-28.0555
-39.8363
-84.5791
-38.5793
-31.7532
-39.8287
-32.6922
-33.7784
-36.4462
-44.5551
-32.6733
-33.7876
-36.4229
-44.5598
-56.6663
-88.1771
-33.161
-35.2624
-39.8878
-39.422
-36.5594
-56.6663
-86.8082
-33.3125
-35.4493
-40.904
-39.2879
-36.5594
-12.7389
-74.622
-34.8973
-40.7154
-41.6365
-41.6593
-37.9806
-12.7389
-69.5543
-32.5056
-50.493
-41.0513
-40.8584
-39.3231
136.832
-85.121
-33.9994
-34.176
-36.4771
-35.6993
-34.2978
155.114
-35.3414
-34.2978
145.619
-34.8366
-34.8366
68.4819
-61.4
-17.2576
-58.3195
-39.5299
-36.3226
-35.8992
136.182
-91.1427
-34.0036
-34.2438
-36.2155
-35.0589
-34.084
154.963
-34.9396
-34.084
145.84
-34.6877
-34.6877
67.8113
-61.6558
-17.1584
-59.4786
-39.4805
-36.144
-35.773
-57.7567
-85.1886
-33.1316
-35.2619
-39.6698
-39.1641
-36.3358
-57.7567
-86.171
-33.2817
-35.4563
-40.7276
-39.0527
-36.3358
-11.6086
-73.9652
-34.8609
-40.6762
-41.5003
-41.4889
-37.8084
-11.6086
-69.5839
-32.4528
-50.6984
-40.9765
-40.7007
-39.1506
-41.5338
13.2516
-51.3449
-39.6193
-23.3742
-40.458
59.9434
-36.8115
-37.1001
-44.1577
-38.0617
-51.2229
-39.4266
-40.3748
-36.7555
-44.1159
-34.3015
-33.8269
-40.5116
-38.0314
-37.691
-50.627
24.4034
-67.9712
-34.2975
-33.7923
-38.0187
-50.6194
-44.5802
-44.4882
-62.5624
-19.6052
196.765
-39.0095
-39.0027
-36.201
-116.434
-44.2205
-44.2219
-34.6155
-42.2718
-27.0288
-47.1894
7.15302
-40.7059
-40.4092
-30.3376
-39.9997
-26.9015
74.8064
-43.8891
-40.5076
-36.5376
-42.9888
1.40804
-48.4161
-40.8406
-29.985
-40.1967
-39.9084
67.504
-28.7587
-43.8214
-36.4524
-40.3375
-42.9124
-42.4265
-33.3412
-33.2714
-39.9496
-38.038
-34.4381
-35.9149
-36.6804
-30.4229
-34.8716
-48.7758
9.23228
-44.0135
-41.1422
-47.4564
-61.3461
-42.3648
-39.9305
-33.33
-33.2396
-38.0992
-36.7143
-34.4397
-35.9093
-30.3765
9.2873
-34.837
-48.7534
-44.0188
-61.3421
-41.1348
-47.4526
-48.6169
196.064
-109.627
198.976
-47.5599
-59.0457
-39.8807
-32.4465
-31.795
-24.6049
-42.1394
-35.464
-44.6645
200.347
-41.323
-24.525
-37.9687
-29.59
-42.659
-43.4365
-48.5453
197.138
-47.4888
-59.0597
-39.7845
-32.1613
-42.0275
-35.3487
-41.2293
-24.5257
-42.573
-43.4363
-36.1515
-35.389
-38.6478
-36.9913
-42.5535
-38.1763
-38.5917
-39.6868
-35.9341
-34.2299
-43.8476
-104.295
1.37431
13.1362
-81.9036
-53.9625
-36.1396
-35.4337
-38.5544
-36.975
-38.5859
-39.4184
-43.8421
-104.291
-46.846
-40.2082
-35.4709
-47.68
-46.7125
-47.4743
-35.4937
-40.1032
-104.732
-104.757
-40.6545
-40.7113
-45.3484
-5.44563
-5.43316
-45.3248
196.267
195.208
197.398
196.298
-34.5964
-36.1719
-42.7225
-41.23
-34.5788
-41.2148
-42.7198
-36.1655
-36.8449
-36.8362
-35.3215
-35.3064
0.18802
-69.0403
-69.036
0.111072
-38.7336
-40.1627
-40.9248
-41.787
-38.7009
-41.7807
-40.8357
-40.0608
-34.4555
-34.4873
-33.8921
-34.0387
-55.3255
-38.4813
-38.4603
-55.3218
-32.1047
-31.7772
-33.7223
-33.9364
-58.3312
15.8601
-68.9346
-39.5659
-33.1219
-38.8015
-23.377
14.8856
-65.7534
-40.4873
-35.936
-40.9958
16.7277
-59.4208
-69.0818
-32.8689
-39.3389
-38.6233
26.5179
-25.59
-65.5847
-35.8716
-40.325
-40.9111
-38.5924
-32.5698
-33.1271
-36.6366
-37.6104
-34.2898
-34.6797
-36.0495
-33.6864
-35.4615
-41.5612
-11.7337
-43.9714
-43.164
-45.6667
-51.1791
-38.5438
-36.6438
-32.5559
-33.1022
-37.6953
-36.1471
-34.2926
-34.6841
-33.6436
-11.6201
-35.4263
-41.5464
-43.977
-51.1591
-43.1639
-45.6672
-35.5386
-33.7457
-71.1254
190.616
14.8088
12.1188
-138.318
125.172
-58.3966
-46.1707
-48.007
-54.8133
-39.5747
-39.9834
-41.0044
-34.0741
-25.8733
-25.5975
-30.4025
-21.8345
-41.6503
-38.737
-40.9882
-36.721
57.4529
57.6333
-61.2333
200.497
-40.574
-33.9803
-39.3671
-28.6448
-36.9254
-36.9057
-37.3924
-34.3911
-43.6638
-43.8886
-43.2921
-47.1141
-36.8971
-34.4199
-71.3882
190.514
-58.4882
-46.2068
-47.93
-54.7367
-39.3709
-39.8041
-40.863
-33.8936
-41.5444
-38.3001
-40.8564
-36.5968
-40.4727
-33.9124
-39.2855
-28.6277
-43.6027
-43.8791
-43.2314
-47.1022
-33.9813
-34.4279
-34.9322
-34.1574
-33.5102
-34.2819
-35.3123
-34.8806
-40.2381
-40.2262
-42.2798
-39.8462
-36.9897
-39.2983
-38.1432
-38.3205
-37.8145
-37.8104
-36.4168
-35.9673
-51.2852
-49.1162
-47.3503
-68.3499
21.3493
21.3584
13.6548
41.2693
-66.812
-66.8115
-73.7457
-61.2947
-33.9741
-34.4277
-34.9265
-34.1465
-33.4761
-34.247
-35.2726
-34.8579
-36.9787
-39.2867
-38.1351
-38.2834
-51.2804
-49.1091
-47.3439
-68.3432
-44.425
-46.3465
-42.6936
-42.068
-44.3065
-46.2665
-42.6014
-41.9966
-78.175
-61.7857
-61.7882
-51.3108
-30.6191
-20.9505
-20.9324
-12.4995
195.012
205.175
195.263
194.345
-37.4103
-38.5041
-38.9384
-41.0986
-37.3999
-38.4912
-38.9307
-41.0926
-36.0152
-36.9618
-35.8783
-36.0162
-115.975
-90.4384
-93.581
-115.954
-40.7797
-43.4277
-43.1821
-41.1354
-40.5422
-43.524
-43.0622
-41.2556
-35.621
-34.8889
-34.8412
-34.2759
-39.87
-42.5121
-42.5116
-46.5321
-29.2405
-25.5284
-27.2811
-28.9379
-68.8664
185.624
-131.374
128.41
-44.4227
-93.0317
-39.7497
-34.0902
-34.8221
-30.9698
-40.3275
-37.9661
-69.1511
177.679
-63.1938
181.392
-46.6004
-45.5035
-41.1791
-34.6229
-37.1559
-35.6111
-41.6389
-39.9196
-131.388
125.101
-68.9476
185.556
-44.5263
-93.1616
-34.5801
-30.6049
-39.5894
-33.8899
-40.2284
-37.8657
-62.8454
173.463
-68.7723
175.905
-46.4114
-45.4477
-37.1167
-35.5015
-41.0617
-34.4798
-41.5546
-39.8809
-41.5866
-36.1342
-33.8193
-34.7171
-36.5374
-33.354
-42.3784
-38.2158
-38.1856
-35.559
-35.0311
-34.231
-35.9431
-37.4938
-35.7938
-36.2984
-34.5018
-13.9405
-34.3441
-37.4323
-44.4817
-80.8513
3.87749
18.3445
-43.1402
-52.6449
-41.6534
-40.9491
-45.5385
-56.8648
-63.3171
-59.7335
-41.5021
-36.0366
-42.3535
-38.1973
-33.8055
-34.7056
-36.5153
-33.3313
-38.1651
-35.8486
-35.8154
-36.2276
-35.0295
-34.2448
-35.9368
-37.4835
-34.4623
-13.9184
3.8901
18.8203
-34.2985
-37.4097
-44.4651
-80.7978
-43.1345
-52.6305
-63.3042
-59.7243
-41.65
-40.9289
-45.5356
-56.8533
-48.6784
-48.1211
203.063
196.671
-108.459
-108.463
198.743
198.735
-49.3617
-44.5265
-74.4048
-48.7604
-39.8057
-40.3042
-32.0146
-32.8961
-32.3388
-32.4237
-27.6134
-27.2564
-40.2239
-41.4614
-34.7674
-37.4206
-45.0077
-44.9587
200.054
199.779
-38.4255
-42.7742
-33.957
-15.4679
-38.0843
-38.0759
-30.8579
-31.1029
-42.1256
-42.3463
-48.3698
-40.5847
-48.4252
-47.9565
197.094
203.137
-49.2776
-44.4838
-74.3856
-48.7562
-40.2104
-39.707
-31.701
-32.6309
-40.097
-41.3109
-34.7215
-37.3088
-42.6554
-38.3658
-15.463
-33.9565
-42.332
-42.0265
-40.6229
-48.375
-35.6678
-36.2567
-35.9447
-34.9913
-39.9972
-37.194
-35.6583
-38.8266
-42.2938
-42.3056
-37.8727
-37.868
-37.2801
-40.2726
-38.4968
-41.1064
-35.7877
-35.7825
-34.2766
-34.2674
-43.4173
-43.4434
-101.142
-78.3608
-0.811861
-0.796808
14.7212
14.9233
-79.2388
-79.2416
-54.2973
-54.2913
-35.6539
-36.2482
-35.9427
-34.9994
-37.1299
-39.9259
-35.6406
-38.8116
-40.2687
-37.2735
-38.4259
-40.9426
-43.4356
-43.4132
-78.3735
-101.104
-66.0425
-50.4499
-47.0881
-70.7685
-38.4081
-35.5527
-43.2655
-44.698
-34.7087
-37.2372
-39.9109
-34.8641
-67.265
-71.6019
-43.0668
-42.1733
-66.1225
-70.8717
-47.0672
-50.2991
-66.8882
-42.0577
-42.9374
-71.3356
-34.6635
-34.8263
-39.8173
-37.1253
-38.3808
-44.6583
-43.2126
-35.5108
-112.439
-137.397
-77.3028
-68.4416
-112.359
-68.4857
-77.3071
-137.494
-42.6373
-42.2555
-50.7558
-45.5123
-42.7176
-45.496
-50.7602
-42.2708
-63.2442
-36.1652
-32.4222
-61.9696
-12.0902
11.2219
-13.3298
-21.1235
-12.0384
-21.1118
-13.3223
11.25
-63.131
-61.8858
-32.3935
-36.084
123.247
193.947
205.326
124.82
120.743
199.48
195.522
186.689
127.075
185.632
197.053
200.107
122.565
125.036
205.216
193.92
-32.9241
-34.6103
-36.9061
-34.0251
-34.8773
-36.9829
-37.4536
-35.0277
-43.828
-46.5091
-40.8326
-39.6051
-39.1913
-36.0125
-40.6327
-47.1611
-32.9063
-34.0012
-36.8914
-34.6013
-39.1662
-47.1537
-40.6235
-35.9906
-43.8271
-39.5991
-40.8265
-46.5041
-34.8762
-35.0252
-37.4457
-36.9747
-35.2808
-39.5026
-36.7155
-34.3275
-35.2634
-34.3158
-36.7141
-39.4942
-34.5714
-36.2828
-35.7129
-34.1128
-34.5494
-34.1138
-35.7094
-36.2784
-26.7083
-78.7098
-82.8013
38.1025
-53.6002
-71.708
-90.7357
-61.5924
-53.5817
-61.5849
-90.7443
-71.7079
-27.051
37.9811
-84.1534
-78.7218
-37.9655
-39.5274
-40.7991
-37.563
-38.8827
-40.2701
-41.4752
-41.6119
-40.9732
-42.9018
-41.159
-41.1605
-42.7645
-39.4417
-41.8292
-43.3473
-37.9978
-37.5301
-40.7333
-39.2987
-42.76
-43.3283
-41.94
-39.4096
-40.8745
-41.0323
-41.0209
-42.8216
-38.7162
-41.4879
-41.197
-40.114
-37.5569
-35.9892
-34.4071
-35.398
-37.7001
-35.0585
-34.3813
-35.9789
-38.2742
-31.6907
-36.0124
-38.4789
-38.5151
-38.6005
-36.0774
-31.8579
-50.2815
-51.7506
-46.9671
-61.1723
-37.8087
-37.255
-40.029
-42.7993
-37.7547
-42.8613
-40.0454
-37.2393
-50.2695
-61.1744
-46.9685
-51.7306
-33.7177
-25.4616
-28.1196
-33.8588
-33.4884
-33.6618
-27.7899
-25.0849
-35.2503
-34.8294
-29.0388
-34.048
-35.3807
-34.2165
-29.3374
-34.9415
-70.9321
1.71333
-91.2786
-39.6427
-35.1899
-36.1405
-18.8536
19.8524
-81.8907
-40.5569
-36.632
-39.8857
0.693212
-72.0043
-91.6422
-34.9329
-39.4037
-35.8995
18.6069
-20.2965
-81.2248
-36.6172
-40.5379
-39.7849
-33.6931
-32.2627
-32.9962
-33.4502
-31.253
-34.1765
-34.0755
-33.8745
-35.0899
-35.9338
-38.1781
-29.6736
-44.1926
-43.8644
-45.1691
-47.8337
-33.6592
-33.4412
-32.251
-32.9748
-31.2878
-33.8648
-34.1804
-34.0843
-35.0477
-29.636
-35.903
-38.1787
-44.1982
-47.8259
-43.867
-45.1711
-37.3562
-34.7216
-99.0814
156.034
8.54375
9.50311
-5.07294
77.5048
-55.6906
-48.1669
-49.0043
-54.681
-39.5748
-39.7334
-41.7167
-34.5579
-24.1162
-23.9367
-26.9387
-22.3579
-42.1869
-40.5576
-40.558
-36.9718
58.908
58.8984
-93.3829
122.07
-39.32
-36.0127
-38.5902
-31.8831
-37.2255
-37.2162
-37.5383
-35.971
-43.6738
-44.1659
-43.5489
-47.7324
-38.2737
-37.7486
-106.802
155.789
-55.5783
-48.1871
-48.9266
-54.4399
-39.3768
-39.548
-41.5458
-34.3823
-42.153
-40.3423
-40.4377
-37.3057
-39.2695
-35.9568
-38.5222
-31.8612
-43.6236
-44.137
-43.4991
-47.6961
-34.1816
-34.409
-34.5292
-33.5537
-33.6539
-34.0307
-34.275
-34.0667
-40.4374
-40.4318
-40.3946
-40.8045
-37.5067
-38.6068
-37.9897
-38.1036
-37.7887
-37.7866
-36.8479
-36.6939
-51.1798
-49.9045
-49.1675
-58.6058
24.3901
23.6442
19.3085
36.6252
-67.7134
-67.7132
-71.0023
-64.6352
-34.1765
-34.4076
-34.5246
-33.5494
-33.6196
-33.9958
-34.2355
-34.0378
-37.4944
-38.5941
-37.9799
-38.0833
-51.1728
-49.8969
-49.1603
-58.596
-45.0286
-45.7808
-43.6415
-43.6552
-44.8846
-45.6948
-43.5447
-43.5821
-69.5837
-62.3761
-62.3767
-56.7028
-22.967
-19.5739
-19.5619
-18.167
194.74
202.342
197.307
194.364
-38.159
-38.9107
-39.0737
-39.9908
-38.1506
-38.9011
-39.067
-39.9843
-36.1546
-36.5424
-35.9953
-36.1551
-116.567
-120.846
-103.162
-116.566
-42.8498
-43.918
-43.8213
-42.8967
-42.6309
-43.9872
-43.7168
-42.8139
-34.8013
-34.695
-34.6719
-34.4441
-41.0142
-42.3316
-42.3295
-44.2202
-27.6483
-26.2413
-27.3924
-27.4587
-52.8559
-87.5631
-107.028
153.192
8.50328
14.0768
-6.16668
80.2527
-56.4502
-36.0483
-41.5474
-76.8402
-39.4513
-39.705
-40.0908
-34.6552
-31.871
-28.1854
-31.987
-30.5829
-39.4424
-40.4013
-40.1225
-40.1879
-25.0377
-27.8544
-97.2099
154.944
39.0697
58.9347
-97.6194
109.198
-54.4837
-42.1228
-44.9485
-45.6058
-40.6948
-40.1316
-41.8108
-35.1942
-36.0777
-36.8108
-36.7215
-36.0728
-41.0061
-43.0081
-41.9676
-42.3885
9.25787
18.0456
-6.25511
75.9744
-53.9902
-89.0195
-107.551
152.932
-56.485
-36.1323
-41.6581
-77.6336
-31.5926
-27.8713
-31.714
-30.2187
-39.2335
-39.4971
-39.9114
-34.4711
-39.2936
-40.3355
-40.0255
-40.1987
28.9533
57.6521
-95.9141
104.45
-27.0234
-30.3804
-98.9506
155.627
-54.3514
-42.0674
-44.7954
-45.7071
-35.9663
-36.7845
-36.6842
-36.0142
-40.5271
-39.9559
-41.6654
-35.0458
-40.9467
-42.949
-41.8897
-42.3525
-45.4538
-47.4042
-41.7822
-34.8096
-32.9595
-33.7259
-33.5205
-33.1137
-33.1843
-33.3748
-34.2016
-32.9415
-39.2883
-39.727
-41.348
-38.9977
-40.8133
-37.7931
-37.8799
-36.4857
-34.4064
-34.4481
-34.6174
-33.8306
-35.3313
-36.4802
-35.9452
-36.309
-37.1414
-37.4618
-36.2002
-36.1698
-31.5307
-31.4141
-33.1258
-21.1932
-35.1718
-34.6025
-34.5094
-35.81
-45.758
-50.6972
-46.7635
-65.115
0.00635709
17.6928
7.42352
12.5974
-44.024
-43.9897
-43.5161
-47.3904
-42.1772
-40.0641
-41.3701
-40.9538
-46.2438
-48.2762
-46.6209
-52.2423
-54.1941
-65.0716
-61.619
-60.6961
-45.3851
-47.3149
-41.7268
-34.7649
-39.2876
-39.7091
-41.3326
-38.9741
-32.9482
-33.7165
-33.5082
-33.1053
-33.1549
-33.3412
-34.1636
-32.9137
-40.9172
-37.6447
-37.8803
-36.9498
-37.3177
-37.4573
-36.2265
-36.1106
-34.4095
-34.4488
-34.6179
-33.8407
-35.3302
-36.471
-35.9373
-36.2994
-31.4794
-31.3604
-33.0746
-21.1837
0.277413
17.6035
7.42712
13.0174
-35.1367
-34.5681
-34.4701
-35.7819
-45.7261
-50.6923
-46.7452
-65.0693
-44.029
-43.9939
-43.5156
-47.3854
-54.1736
-65.0725
-61.6
-60.6939
-42.1725
-40.054
-41.3657
-40.9414
-46.2448
-48.2696
-46.6172
-52.2261
-57.0469
-44.6038
-48.5957
-48.2953
201.581
194.022
195.878
196.843
-140.352
-90.2881
-109.323
-109.327
167.809
205.788
198.847
198.92
-47.6971
-46.9042
-50.0129
-45.7929
-57.1049
-60.7
-65.6254
-53.5035
-39.9714
-40.2189
-39.7999
-40.0819
-33.6209
-30.9266
-32.2343
-32.7516
-33.4808
-33.8648
-32.1424
-32.1878
-23.0654
-24.869
-25.8039
-25.5827
-41.637
-42.8416
-41.5503
-42.8178
-35.5089
-35.1783
-35.107
-36.1073
-53.1355
-37.7284
-44.8626
-44.8421
161.751
199.872
201.321
200.884
-40.5505
-41.738
-40.4158
-41.9059
-26.4063
-22.7421
-28.9039
-19.9569
-37.5332
-38.8161
-38.0054
-38.0019
-32.5677
-27.54
-29.8886
-30.0349
-43.0645
-42.7355
-42.5484
-42.8141
-44.7052
-42.8403
-45.5928
-41.9073
-56.9495
-44.5135
-48.4124
-48.1567
201.077
194.196
197.308
197.299
-47.6289
-46.8323
-49.8923
-45.7404
-57.1249
-60.7063
-65.6388
-53.5066
-39.8606
-40.1394
-39.9875
-39.7018
-33.3998
-30.6003
-31.9313
-32.4801
-41.5154
-42.8626
-41.4091
-42.6687
-35.327
-35.1009
-34.9971
-35.9947
-40.4603
-41.6478
-41.8014
-40.3519
-26.4003
-22.7329
-19.9583
-28.908
-42.993
-42.6301
-42.74
-42.4443
-44.7027
-42.841
-41.8903
-45.6819
-35.4841
-36.7715
-35.9338
-36.2334
-35.1389
-35.751
-35.6584
-35.4661
-36.2789
-41.1851
-39.3602
-37.7798
-35.9724
-37.938
-36.2738
-37.8425
-41.8453
-46.8375
-42.5952
-42.6003
-38.9572
-37.508
-38.1089
-38.1065
-38.3174
-38.7537
-37.8692
-39.3461
-38.5295
-40.1292
-39.0251
-40.5664
-36.1244
-35.8512
-35.8965
-35.8941
-35.0214
-34.1892
-34.2552
-34.2496
-45.5476
-42.2962
-43.7318
-43.8234
-82.4011
-110.376
-109.466
-87.5654
7.62207
-5.32315
0.846664
0.857207
34.3143
-18.1711
13.4057
13.4277
-77.2975
-87.2117
-81.2628
-81.2638
-57.9657
-50.1578
-54.0396
-54.0368
-35.4754
-36.7602
-35.9224
-36.2244
-35.138
-35.752
-35.6576
-35.4776
-36.2249
-41.1089
-37.6895
-39.2815
-35.9532
-37.925
-36.2568
-37.8273
-38.3102
-38.747
-39.3415
-37.8624
-38.466
-40.1655
-38.8498
-40.3003
-45.5418
-42.2907
-43.8169
-43.7267
-82.416
-110.34
-87.5995
-109.594
-54.68
-45.7863
-47.9422
-45.0984
-40.5376
-38.2287
-43.8417
-40.0642
-34.9236
-34.6775
-36.2222
-36.3591
-54.9598
-47.6167
-48.0055
-44.3709
-54.6162
-45.7485
-47.7282
-45.1141
-54.6895
-47.4012
-47.8357
-44.1979
-34.923
-34.6392
-36.0046
-36.3047
-40.437
-38.1879
-43.7792
-39.9835
-138.188
-100.428
-106.982
-86.2548
-138.22
-100.6
-106.989
-86.2313
-39.3748
-40.8415
-44.5835
-41.5058
-39.482
-40.8864
-44.6153
-41.5304
-53.6534
-45.5061
-45.1467
-39.5201
-9.33409
-0.51128
-10.5182
-2.60554
-9.31469
-0.493857
-10.5088
-2.59306
-53.3436
-45.4276
-45.1024
-39.4967
192.786
171.017
201.836
198.308
185.371
189.166
195.666
201.294
198.817
187.454
202.142
196.718
170.059
192.606
198.298
203.389
-34.1393
-33.9535
-35.2081
-35.1043
-35.578
-36.0998
-36.1958
-36.7247
-42.0758
-44.1656
-41.2153
-43.0096
-39.462
-42.7497
-39.9242
-42.6967
-34.1234
-33.9331
-35.1924
-35.0862
-39.4428
-42.7338
-39.9096
-42.6875
-42.0732
-44.1633
-41.2121
-43.0073
-35.5734
-36.0932
-36.1887
-36.718
-36.261
-37.4997
-36.2589
-37.4029
-37.4872
-36.2479
-37.3958
-36.2548
-35.5269
-35.0917
-35.5523
-35.2383
-35.0734
-35.5089
-35.2254
-35.543
-34.6965
16.5251
-27.832
14.7739
-62.0859
-65.7777
-73.1435
-75.5103
-65.7692
-62.1466
-75.5135
-73.1465
16.5821
-34.7762
14.8017
-27.9303
-38.4871
-37.8899
-39.6324
-38.5391
-39.8807
-40.3551
-39.9128
-40.329
-40.6008
-41.3872
-40.5335
-41.4788
-42.477
-41.3545
-41.9974
-41.2645
-38.4566
-37.8788
-39.5793
-38.5077
-42.465
-41.3254
-42.0687
-41.247
-40.5073
-41.3009
-40.4416
-41.389
-39.7502
-40.2523
-39.8119
-40.2321
-33.5323
-35.1345
-34.6763
-34.3364
-33.4454
-35.1302
-34.7049
-34.3306
-37.0764
-35.5135
-33.1566
-35.5429
-37.2719
-35.6953
-33.2733
-35.662
-56.1857
-58.5262
-52.4717
-54.651
-37.7497
-38.9593
-38.2383
-39.5056
-37.7184
-38.9342
-38.2235
-39.4949
-56.1822
-58.5255
-52.4817
-54.6293
-33.4834
-31.5036
-31.9912
-30.2931
-31.1547
-33.2297
-29.9173
-31.6687
-34.8403
-34.3342
-32.2459
-32.807
-34.502
-34.9899
-33.0627
-32.5033
-106.696
97.9461
-8.4663
73.0932
-67.4837
-94.2501
-37.6937
-35.6255
-35.3822
-33.3588
-38.7146
-39.4209
-88.9466
118.636
-70.3561
72.2125
-66.4265
-61.491
-41.0117
-36.0059
-36.8906
-35.5602
-40.8328
-39.189
-8.46845
72.0995
-107.173
97.8189
-67.6002
-94.3689
-35.1117
-33.1186
-37.5084
-35.4086
-38.5435
-39.2059
-70.5785
89.1511
-90.4298
118.457
-66.1658
-61.7295
-36.8184
-35.4529
-40.884
-35.8656
-40.7394
-39.1288
-39.0583
-39.6793
-32.7552
-32.867
-34.4288
-32.8105
-36.5682
-35.8355
-38.211
-36.3985
-34.4447
-33.8523
-34.7175
-33.6342
-34.9377
-34.5304
-34.3001
-22.9238
-34.6985
-36.88
-40.3756
-48.8
-11.5672
-13.9169
-43.3453
-46.7069
-43.5464
-42.8707
-44.6984
-49.7658
-52.2412
-50.5792
-39.0172
-39.6049
-36.5563
-35.8117
-32.7403
-32.8539
-34.3926
-32.7909
-38.2681
-36.8538
-34.9878
-34.3659
-34.4461
-33.8667
-34.7178
-33.64
-34.2558
-22.8754
-11.4552
-13.9539
-34.6586
-36.8528
-40.3525
-48.8588
-43.3456
-46.7107
-52.2191
-50.5631
-43.546
-42.8691
-44.6989
-49.7511
-105.131
153.23
-101.357
159.668
-72.6724
-71.2075
192.294
189.617
-4.34398
78.0172
-4.53763
77.4892
-138.299
-138.244
135.228
135.266
-52.0661
-68.4355
-45.3715
-45.1264
-51.8186
-45.4759
-60.6162
-49.794
-41.282
-34.4422
-41.9802
-34.629
-40.6494
-41.0897
-33.9349
-34.1671
-28.5835
-25.4853
-28.3846
-25.1522
-30.721
-30.8111
-23.087
-22.8791
-41.8182
-39.9486
-39.2388
-36.1949
-40.7448
-42.2861
-36.1815
-37.9602
-94.1435
120.347
-94.1209
120.889
-61.893
-61.8714
201.581
201.522
-41.852
-38.5801
-36.2168
-26.7733
-38.9663
-41.0582
-32.2267
-24.9802
-37.2277
-36.1018
-37.2182
-36.0414
-37.3532
-37.3463
-34.3611
-34.4303
-43.1716
-44.3685
-43.5999
-46.5591
-43.0322
-43.5391
-50.2134
-45.1136
-106.45
153.276
-105.845
160.721
-72.7246
-71.1694
188.93
192.23
-51.9868
-68.7265
-45.3499
-45.2834
-51.7036
-45.4312
-60.5578
-49.851
-41.102
-34.259
-41.8208
-34.4568
-40.954
-40.5022
-33.7479
-33.9942
-41.6814
-39.8248
-38.8883
-33.8148
-40.571
-42.2061
-35.6532
-37.8062
-41.7334
-38.5054
-36.1129
-26.7683
-40.9958
-38.8896
-24.9702
-32.214
-43.1016
-44.2994
-43.5852
-46.5558
-43.4935
-42.9571
-45.0669
-50.2003
-34.2006
-33.3745
-34.6466
-33.6998
-34.8162
-35.0754
-34.3838
-34.225
-34.2576
-33.4699
-34.394
-34.8927
-35.4528
-35.0709
-34.4255
-35.4144
-40.0955
-40.488
-40.0823
-40.478
-42.3174
-42.3241
-39.7711
-39.7671
-36.8891
-37.2485
-39.4019
-39.2725
-37.502
-38.7974
-37.8894
-38.8479
-36.7146
-36.8515
-36.7162
-36.8427
-36.3851
-36.3835
-35.9702
-35.9657
-49.4305
-62.3709
-47.9565
-55.204
-47.0521
-47.4621
-72.9628
-64.4815
16.7021
32.2761
16.7357
32.3864
13.0124
13.0342
40.9248
40.8757
-69.3989
-64.1018
-69.3986
-64.102
-73.261
-73.2609
-61.2657
-61.2671
-34.192
-33.3675
-34.646
-33.6985
-34.8088
-35.0709
-34.381
-34.2363
-34.2193
-33.4406
-34.3547
-34.8632
-35.0329
-35.4121
-34.402
-35.3925
-36.8796
-37.2323
-39.394
-39.2538
-38.79
-37.4933
-37.8506
-38.8121
-49.4242
-62.3712
-47.9504
-55.1917
-47.4557
-47.0461
-64.475
-72.9626
-46.0571
-43.4146
-47.9426
-44.878
-40.9985
-42.3725
-42.6803
-41.3278
-45.9951
-43.3021
-47.7691
-44.8058
-42.2669
-40.9329
-41.25
-42.625
-77.9773
-77.9788
-68.7211
-55.7946
-68.7259
-55.7955
-51.195
-51.1975
-31.3132
-31.2976
-26.3967
-16.6923
-16.6758
-26.3781
-12.5336
-12.5293
200.277
193.92
205.24
205.188
197.058
197.086
194.747
200.116