# vtk DataFile Version 2.0
tri_press
ASCII
DATASET UNSTRUCTURED_GRID
POINTS 3682 float
-0.765 0.135 -1.96466
-0.725122 0.325 1.915
-0.695 0.614655 -1.895
-0.565 0.932365 1.995
0.765 0.135 -1.96466
0.725 0.325 1.91516
0.695 0.614655 -1.895
0.565 0.932365 1.995
-0.813554 0.136487 -0.67144
-0.843852 0.156229 0.62178
-0.769533 0.838425 -0.598333
-0.736513 0.954642 0.698333
0.81331 0.13669 -0.671387
0.844077 0.155923 0.621887
0.769543 0.838434 -0.598333
0.736511 0.954639 0.698333
-1.53919 -0.279982 -3.03741
-1.54279 -0.202628 -2.00145
-1.5758 -0.193906 -0.708312
-1.57709 -0.180009 0.584128
-1.49924 -0.0655139 1.8772
-1.4784 0.0143601 2.91288
-1.48913 0.0760505 3.94909
-1.53426 0.0220088 -3.00135
-1.53481 0.123755 -1.96501
-1.57853 0.158309 -0.671211
-1.56637 0.174346 0.622273
-1.44307 0.277737 1.91601
-1.44343 0.355111 2.95173
-1.47241 0.417231 3.98783
-1.50463 0.583657 -2.93019
-1.48393 0.682783 -1.89399
-1.53376 0.850292 -0.597841
-1.4824 0.932306 0.698546
-1.33138 0.944212 1.99462
-1.38361 1.01791 3.03018
-1.44802 1.09253 4.06571
-1.49264 1.55844 -2.82089
-1.48634 1.67565 -1.78417
-1.49855 1.8564 -0.486912
-1.49212 1.98844 0.811085
-1.46277 2.04576 2.1083
-1.46036 2.08767 3.14492
-1.47963 2.14377 4.18082
-0.776708 -0.274639 -3.03718
-0.764566 -0.193489 -2.00111
-0.792451 -0.204678 -0.708335
-0.818663 -0.19191 0.583726
-0.77052 -0.041842 1.87648
-0.760354 0.0306625 2.9124
-0.770783 0.0837349 3.94882
-0.781297 0.0195025 -3.00128
-0.744923 0.371846 2.95133
-0.764738 0.424137 3.98763
-0.758298 0.554878 -2.93061
-0.698795 1.01743 3.03027
-0.752081 1.09322 4.06574
-0.739587 1.53883 -2.8213
-0.729913 1.65721 -1.78463
-0.746362 1.85278 -0.487181
-0.761014 1.99471 0.81113
-0.75468 2.04725 2.10856
-0.756492 2.08611 3.14518
-0.771653 2.14221 4.18101
0.751385 -0.274618 -3.03717
0.786243 -0.193449 -2.0011
0.817505 -0.204578 -0.708285
0.813127 -0.192088 0.583819
0.729759 -0.0419155 1.87661
0.688454 0.0306095 2.9125
0.671105 0.0836812 3.9489
0.728154 0.0195143 -3.00127
0.658718 0.37181 2.95143
0.652272 0.424089 3.9877
0.706592 0.554885 -2.9306
0.604164 1.01741 3.03031
0.627316 1.09318 4.0658
0.754239 1.53884 -2.82129
0.765346 1.65722 -1.78462
0.7547 1.85278 -0.487169
0.705222 1.9947 0.811147
0.652097 2.04723 2.10858
0.638767 2.08607 3.14521
0.637997 2.14217 4.18105
1.5208 -0.279936 -3.03738
1.55541 -0.202547 -2.00141
1.59677 -0.193802 -0.708226
1.58982 -0.180222 0.584277
1.49176 -0.0656906 1.8774
1.43178 0.0142364 2.91305
1.407 0.0759392 3.94923
1.49764 0.0220431 -3.00133
1.53208 0.12381 -1.96499
1.5846 0.15846 -0.67114
1.5839 0.174107 0.62241
1.45911 0.277578 1.91619
1.39535 0.355005 2.95189
1.3818 0.417129 3.98796
1.46899 0.583678 -2.93018
1.48164 0.682804 -1.89398
1.5375 0.850353 -0.597815
1.49467 0.932237 0.698596
1.34148 0.94411 1.99469
1.32553 1.01783 3.03028
1.34477 1.09245 4.06581
1.50438 1.55846 -2.82086
1.51386 1.67567 -1.78415
1.50603 1.85641 -0.486882
1.45129 1.98841 0.811124
1.38195 2.0457 2.10835
1.35862 2.0876 3.14499
1.35727 2.1437 4.1809
-0.760216 0.374828 -1.96005
0 0.126823 -1.97284
-0.798738 0.126283 -1.31805
-0.638464 0.628682 1.9484
-6.09756e-05 0.232127 2.00795
-0.859824 0.165278 1.26839
0 0.652555 -1.9329
-0.760135 0.754408 -1.24667
0 0.960694 2.02333
-0.685363 0.97811 1.34667
0.760412 0.374828 -1.96024
0.798746 0.126254 -1.31802
0.638462 0.628682 1.94854
0.859724 0.165276 1.26852
0.760135 0.754408 -1.24667
0.685412 0.978158 1.34667
-0.827007 0.148054 -0.02483
-0.843128 0.487456 -0.634887
-0.000121973 0.138007 -0.671414
-0.831885 0.555436 0.660057
0.000112438 0.151438 0.621833
-0.75946 0.90297 0.05
4.95225e-06 1.07139 -0.598333
-1.41192e-06 1.24703 0.698333
0.826853 0.148147 -0.0247501
0.843119 0.487562 -0.63486
0.831888 0.555281 0.66011
0.759459 0.902969 0.05
-0.886643 0.431142 -1.28236
0.886642 0.431195 -1.28235
-6.09864e-05 0.126208 -1.31804
2.47613e-06 0.831574 -1.24667
0 0.374828 -2.16781
-0.831713 0.521446 0.012585
0.831685 0.521422 0.012625
-4.76766e-06 0.145429 -0.02479
1.77017e-06 1.25992 0.05
-0.872894 0.592059 1.30753
0.873364 0.591982 1.3076
2.5731e-05 0.162826 1.26846
-7.0596e-07 1.10403 1.34667
-3.04878e-05 0.628682 2.1082
-0.77129 0.254914 -1.97103
-0.3825 0.121512 -1.97815
-0.784751 0.127759 -1.64136
-0.700052 0.476841 1.94996
-0.362591 0.236536 2.0035
-0.836418 0.201194 1.59169
-0.731386 0.494741 -1.9313
-0.3475 0.671817 -1.95216
-0.760316 0.71728 -1.57083
-0.610228 0.780524 1.9802
-0.2825 0.957335 2.01997
-0.622798 0.952854 1.67083
0.3825 0.121508 -1.97815
0.771388 0.254914 -1.97113
0.784788 0.127712 -1.64134
0.36247 0.23666 2.00346
0.699875 0.476841 1.94999
0.836076 0.201424 1.59184
0.3475 0.671802 -1.95215
0.731147 0.494741 -1.93106
0.760314 0.717278 -1.57083
0.2825 0.957335 2.01997
0.610164 0.780524 1.9802
0.622804 0.95286 1.67083
-0.809557 0.127973 -0.994745
-0.812433 0.150118 -0.348135
-0.846481 0.302901 -0.653163
-0.406481 0.137962 -0.671427
-0.847216 0.165376 0.945085
-0.826142 0.161429 0.298475
-0.834037 0.357748 0.640918
-0.421891 0.153791 0.621807
-0.760469 0.792052 -0.9225
-0.842839 0.681194 -0.61661
-0.765324 0.871525 -0.274167
-0.431321 1.04802 -0.598333
-0.722084 0.977521 1.0225
-0.80436 0.765119 0.679195
-0.749817 0.930636 0.374167
-0.431692 1.22771 0.698333
0.809476 0.128024 -0.994705
0.406288 0.137961 -0.6714
0.81221 0.15029 -0.348068
0.846508 0.30298 -0.653123
0.847179 0.165321 0.945205
0.422024 0.153823 0.62186
0.826088 0.161412 0.298568
0.834041 0.357573 0.640998
0.760495 0.792078 -0.9225
0.431311 1.04799 -0.598333
0.842753 0.681209 -0.616597
0.765326 0.871526 -0.274167
0.722058 0.977496 1.0225
0.431694 1.22771 0.698333
0.804383 0.765052 0.679222
0.749816 0.930635 0.374167
-0.895514 0.402985 -1.6212
-0.380108 0.374828 -2.13467
-3.04932e-05 0.124096 -1.64544
0 0.250825 -2.11979
-0.877326 0.278712 -1.3002
-0.399399 0.126279 -1.31804
-0.782916 0.610371 1.62797
-0.319247 0.628682 2.0858
-1.76223e-05 0.177891 1.6382
-4.57317e-05 0.430405 2.15865
-0.867521 0.378669 1.28796
-0.429899 0.157581 1.26842
1.23806e-06 0.754966 -1.58978
0 0.513691 -2.10941
-0.886657 0.592775 -1.26451
-0.380066 0.826576 -1.24667
-3.5298e-07 0.996412 1.685
-1.52439e-05 0.794688 2.10258
-0.770176 0.785084 1.3271
-0.342682 1.08939 1.34667
0.895512 0.403011 -1.62129
0.380206 0.374828 -2.13473
0.877326 0.278724 -1.30018
0.399343 0.126281 -1.31803
0.782857 0.610332 1.62807
0.319216 0.628682 2.08586
0.867534 0.378629 1.28806
0.429875 0.157584 1.26849
0.886656 0.592801 -1.26451
0.380069 0.826576 -1.24667
0.770209 0.78507 1.32713
0.342706 1.08939 1.34667
-0.844845 0.327007 -0.00612253
-0.414403 0.144947 -0.02481
-0.848607 0.459299 -0.958623
-0.837031 0.504451 -0.311151
-9.14796e-05 0.131969 -0.994725
-6.33703e-05 0.140154 -0.348102
-0.83181 0.538441 0.336321
-0.875435 0.573747 0.983793
5.38349e-05 0.147869 0.298522
6.90843e-05 0.158246 0.945145
-0.830319 0.729574 0.0312925
-0.458151 1.23829 0.05
3.71419e-06 0.915786 -0.9225
3.36121e-06 1.20956 -0.274167
1.79124e-07 1.26432 0.374167
-1.05894e-06 1.19534 1.0225
0.844849 0.326994 -0.00606254
0.414345 0.144947 -0.0247701
0.848606 0.459378 -0.958603
0.837028 0.504492 -0.311118
0.831816 0.538351 0.336368
0.875438 0.573631 0.983853
0.830284 0.729551 0.0313125
0.458152 1.23829 0.05
-0.881533 0.266813 -1.63128
-0.856958 0.295342 -0.976684
-0.845527 0.627857 -0.940561
-0.894627 0.543758 -1.59602
0.881532 0.266819 -1.63132
0.894626 0.543771 -1.59606
0.845535 0.6279 -0.940551
0.856953 0.295425 -0.976654
-0.39095 0.124059 -1.6434
0.390921 0.12406 -1.64339
0.402968 0.132159 -0.994715
-0.403119 0.13216 -0.994735
-0.363783 0.765585 -1.58031
-0.382415 0.902227 -0.9225
0.382421 0.902189 -0.9225
0.363784 0.765585 -1.58031
-0.381304 0.252869 -2.09467
-0.363804 0.504216 -2.09686
0.363853 0.504216 -2.09688
0.381353 0.252869 -2.0944
-0.84652 0.314526 -0.329643
-0.839056 0.34257 0.317398
-0.818668 0.748011 0.355244
-0.838658 0.706423 -0.292659
0.846521 0.314565 -0.329593
0.838658 0.70645 -0.292642
0.818681 0.747976 0.355267
0.839059 0.342476 0.317468
-0.409658 0.143023 -0.348118
0.409532 0.143023 -0.348085
0.418972 0.147808 0.298545
-0.418927 0.14781 0.298498
-0.466311 1.1863 -0.274167
-0.450329 1.24381 0.374167
0.450329 1.24381 0.374167
0.466314 1.1863 -0.274167
-0.867566 0.36725 0.964439
-0.83569 0.427755 1.60983
-0.747835 0.782804 1.6494
-0.790474 0.770062 1.00315
0.867566 0.367116 0.964529
0.790562 0.770015 1.00318
0.747798 0.782797 1.64945
0.835658 0.427735 1.60996
-0.425884 0.155373 0.945115
0.425985 0.155374 0.945175
0.396172 0.176946 1.61502
-0.396245 0.17694 1.61495
-0.35547 1.18028 1.0225
-0.312591 0.990506 1.67792
0.312603 0.990592 1.67792
0.35548 1.18028 1.0225
-0.340919 0.453623 2.14015
0.340843 0.453623 2.14017
0.300858 0.787606 2.09296
-0.300874 0.787606 2.0902
-0.768765 0.194957 -1.96847
-0.57375 0.121533 -1.97813
-0.777884 0.128371 -1.80301
-0.713485 0.400921 1.93338
-0.543857 0.263251 1.97677
-0.779978 0.263889 1.75335
-0.717856 0.554698 -1.91781
-0.52125 0.655744 -1.93609
-0.737606 0.675915 -1.73292
-0.590683 0.856444 1.99067
-0.42375 0.948743 2.01138
-0.594347 0.943058 1.83292
0.57375 0.121529 -1.97813
0.768837 0.194957 -1.96854
0.777897 0.128353 -1.803
0.543735 0.263163 1.97698
0.713393 0.400921 1.93353
0.779926 0.263824 1.7535
0.52125 0.655762 -1.93611
0.717916 0.554698 -1.91787
0.737477 0.675786 -1.73292
0.42375 0.948746 2.01138
0.590598 0.856444 1.99062
0.594347 0.943057 1.83292
-0.809036 0.134749 -0.833093
-0.817689 0.138607 -0.509788
-0.845149 0.212128 -0.662302
-0.610835 0.13559 -0.671434
-0.842136 0.164201 0.783433
-0.832903 0.160924 0.460128
-0.836386 0.258268 0.631349
-0.63293 0.154893 0.621793
-0.769778 0.820015 -0.760417
-0.810044 0.761739 -0.607472
-0.767672 0.855218 -0.43625
-0.636543 1.01546 -0.598333
-0.72926 0.966043 0.860417
-0.769282 0.859303 0.688764
-0.743525 0.942999 0.53625
-0.634099 1.19117 0.698333
0.808988 0.134762 -0.833046
0.610667 0.13559 -0.671394
0.817289 0.138961 -0.509728
0.84516 0.212209 -0.662255
0.842151 0.164099 0.783546
0.633027 0.154919 0.621873
0.832883 0.160867 0.460228
0.836282 0.258136 0.631443
[...]
POINT_DATA 3682
SCALARS point_scalars float 1
LOOKUP_TABLE default
-85.5095
-36.1121
-19.4049
-33.1646
-93.1368
-35.941
-19.1737
-33.0467
-35.1781
-31.2046
-64.6984
-50.1398
-35.1449
-31.2182
-64.5564
-50.0985
-79.5309
-85.3304
-35.0013
-31.5571
-51.0051
-34.3305
-30.438
16.9146
-93.2692
-35.3748
-31.5633
-45.8027
-31.4684
-30.0818
46.6365
-88.2391
-51.2199
-43.9099
-38.8695
-32.4113
-30.9077
-16.8441
-64.6059
-93.8495
-58.0096
-37.508
-32.7915
-32.7915
-13.3934
-171.727
-35.7775
-30.5122
-42.1023
-30.3956
-29.0318
-25.3504
-29.8626
-29.8679
146.044
-30.5219
-30.1851
11.4092
-56.5122
-83.1533
-61.7987
-33.419
-30.9889
-30.3777
-13.0852
-180.039
-35.5832
-30.5344
-41.5601
-29.6532
-28.1498
-19.9753
-29.3539
-27.8362
164.701
-30.097
-29.5691
11.7572
-58.4103
-83.172
-61.8595
-32.5957
-30.9064
-30.3012
-87.2907
-86.2668
-35.0146
-31.5611
-50.8431
-34.1733
-30.3197
-15.1551
-94.3848
-35.3803
-31.572
-45.9623
-31.361
-29.9727
52.2082
-88.3779
-51.1802
-43.9092
-38.7255
-32.2758
-30.8013
-16.5735
-64.8488
-93.9015
-57.9487
-37.4001
-32.6748
-32.6748
0.447821
-128.223
-52.7848
-32.8991
-30.3038
-39.4628
-46.9975
-41.308
-31.8427
-46.4017
4.05646
-52.8286
-32.7201
-39.3616
-41.2885
-46.3625
-33.1159
-40.8199
-38.0481
-36.5893
-34.2218
-55.2821
-7.66493
-66.0882
-33.1814
-40.8061
-36.5733
-55.2432
-60.3908
-60.4204
-55.4256
-7.36779
206.347
-40.5988
-40.5751
-33.7851
-94.1407
-50.568
-50.4995
-37.3
-42.8057
-24.8308
-29.8096
-131.399
-78.5723
-34.2327
-32.859
-51.0218
12.1424
-48.296
-64.8929
-32.447
-31.6139
-38.382
-131.336
-21.0991
-78.7577
-32.6427
-34.0651
-50.8575
-48.2005
12.6935
-64.9113
-31.5748
-32.3783
-38.3316
-44.1065
-33.333
-37.1508
-37.3682
-35.6577
-31.8989
-32.4869
-32.9948
-38.9828
-49.3552
-59.609
-9.60728
-51.5779
-44.8361
-51.8621
-63.6405
-44.0922
-37.1223
-33.2272
-37.1483
-35.6746
-32.9731
-31.878
-32.4776
-38.9833
-9.57699
-49.3126
-59.6032
-51.557
-63.6217
-44.8362
-51.8154
-100.514
191.807
-79.1543
181.86
-58.846
-54.0049
-43.0144
-28.8793
-38.6319
-22.5712
-46.5795
-38.1461
-27.9165
144.04
-59.4852
-14.3319
-36.3503
-26.7744
-48.1815
-43.1369
-100.734
191.634
-58.8857
-54.015
-42.8585
-28.7121
-46.4911
-38.1196
-59.5003
-14.331
-48.1232
-43.1219
-37.4291
-33.2262
-43.71
-41.504
-44.6689
-35.1687
-38.9776
-41.9264
-33.4127
-35.4742
-47.6533
-87.4099
15.7568
-89.2057
-78.7534
-53.7186
-37.4071
-33.2219
-43.7144
-41.4808
-38.9601
-41.8846
-47.6251
-87.3857
-96.2157
-44.861
-46.0072
-100.347
-96.3118
-100.398
-46.0137
-44.8776
-77.5262
-77.5688
-43.8582
-43.83
-33.4211
9.97855
10.0048
-33.4291
166.481
151.778
151.62
165.87
-37.3502
-35.5481
-45.506
-49.2406
-37.33
-49.2184
-45.4921
-35.534
-34.7874
-34.7906
-33.2537
-33.2614
-85.4815
-73.8267
-73.8166
-85.447
-40.4825
-48.7247
-41.0072
-49.2382
-40.4341
-49.2213
-40.8799
-48.5323
-35.4449
-35.431
-41.4031
-41.3309
-53.8761
-36.6462
-36.6297
-53.863
-28.5077
-28.2965
-28.9894
-29.1048
-42.2464
-142.838
-106.058
-35.0169
-34.5433
-42.6399
3.51962
-16.9242
-54.3046
-32.7503
-31.9836
-35.6045
-143.106
-37.5839
-106.372
-34.3896
-34.8443
-42.4808
-17.0661
3.93388
-54.058
-31.9133
-32.6149
-35.5329
-37.1638
-34.853
-35.7327
-36.4263
-28.3429
-31.7022
-32.1939
-31.9869
-58.6211
-56.245
-62.0353
-31.7661
-50.7425
-47.9871
-50.8393
-59.8927
-37.2215
-36.2458
-34.9459
-35.7384
-28.3533
-31.974
-31.7098
-32.1971
-58.6058
-31.7884
-56.1725
-62.0248
-50.7047
-59.598
-47.9783
-50.8
-13.7758
10.1967
-104.923
144.482
-129.738
-129.724
-98.7871
123.607
-62.4322
-47.4163
-57.8807
-52.9151
-33.4174
-32.5932
-38.9315
-30.2054
-31.194
-31.0946
-34.8562
-25.8692
-50.1475
-39.3662
-45.639
-39.229
-77.9534
-77.9514
-41.5391
85.2205
-51.713
-35.8506
-59.0502
-25.4788
-31.693
-31.6782
-34.1356
-29.1896
-41.9001
-49.4108
-46.2175
-43.7784
2.90123
10.9294
-105.418
143.578
-62.5342
-47.4063
-57.9294
-52.926
-33.271
-32.4408
-38.7623
-30.0939
-50.0551
-39.2989
-45.5556
-39.1885
-51.7322
-35.8453
-59.062
-25.4785
-41.8597
-49.3698
-46.1876
-43.7579
-33.1412
-34.0238
-36.3193
-33.1065
-38.8295
-43.9604
-40.7136
-41.234
-37.8863
-37.7515
-41.0259
-36.2343
-34.0361
-40.3335
-37.9291
-35.0529
-33.9223
-33.9108
-33.7535
-35.2739
-57.3998
-53.3821
-52.2408
-73.4685
-7.71211
-7.7387
10.9475
-40.9914
-65.5825
-65.5742
-72.2595
-61.2068
-33.1632
-33.9495
-36.2974
-33.1073
-38.8203
-43.938
-40.7169
-41.2124
-34.0166
-40.3211
-37.9148
-35.0318
-57.3795
-53.3371
-52.2018
-73.433
-74.2209
-60.1259
-60.3102
-52.4066
-74.2879
-60.1645
-60.3214
-52.4245
-64.8391
-55.0576
-55.0668
-49.2156
-16.8064
-8.715
-8.71533
3.66277
204.54
194.619
166.605
204.519
-38.7235
-41.3616
-39.8234
-43.5022
-38.7
-41.339
-39.8024
-43.4808
-33.6287
-34.3706
-33.3299
-33.6267
-91.8195
-90.5521
-86.1399
-91.8153
-52.3266
-47.7519
-52.3616
-46.8248
-52.1947
-47.6659
-52.3603
-46.7478
-38.4279
-37.5294
-37.5143
-36.3434
-39.1429
-42.8908
-42.794
-47.5799
-26.1972
-22.9644
-25.7377
-26.0239
-101.587
120.703
-98.5242
125.938
-93.9104
-77.2141
-40.1743
-30.1086
-37.1558
-29.4276
-50.1601
-44.8281
-71.8079
104.902
-44.0875
89.3825
-78.2056
-47.7569
-38.8443
-30.2489
-34.0027
-29.9075
-39.9686
-36.96
-98.5302
125.253
-102.603
121.426
-93.922
-77.3199
-37.0659
-29.2526
-39.9994
-29.994
-49.9699
-44.7516
-43.9268
89.4312
-72.0457
104.885
-78.2555
-47.7439
-33.976
-29.8137
-38.6971
-30.1493
-39.8763
-36.931
-44.6652
-43.3223
-35.6147
-34.5059
-38.065
-37.2615
-40.0179
-35.787
-39.2468
-35.387
-34.5742
-32.4855
-34.5116
-30.0855
-32.7908
-35.3827
-48.0368
-2.2365
-46.7752
-49.3892
-55.451
-92.5221
7.24959
-36.2514
-50.2213
-54.3523
-44.9542
-45.7864
-49.501
-64.1623
-68.6859
-60.7505
-44.9677
-43.3439
-40.158
-35.7913
-35.6088
-34.4942
-38.0886
-37.2434
-39.2122
-35.37
-32.7786
-35.3592
-34.5664
-32.4694
-34.5024
-30.0919
-48.0196
-2.19965
7.21182
-36.2228
-46.7674
-49.3634
-55.429
-92.5654
-50.2049
-54.3082
-68.6491
-60.7333
-44.9491
-45.7908
-49.4724
-64.1273
-99.4707
-101.956
186.625
173.639
-78.8574
-78.8709
162.796
162.799
-70.8196
-52.0144
-63.2733
-48.1676
-45.8582
-41.9186
-28.6037
-28.9285
-39.3482
-39.3439
-24.6601
-24.4092
-43.5817
-50.9307
-36.6461
-40.1918
-28.9913
-28.9507
142.122
141.908
-51.1885
-78.1688
-22.8504
-3.66326
-36.4684
-36.461
-27.2995
-27.4086
-45.1142
-49.4585
-47.969
-39.4696
-99.6704
-102.082
173.575
186.465
-70.9011
-52.0043
-63.3114
-48.1802
-41.7693
-45.6514
-28.4084
-28.7677
-43.5179
-50.8038
-36.6268
-40.1543
-78.2102
-51.1705
-3.67726
-22.8549
-49.4938
-45.0123
-39.4554
-47.9567
-37.4013
-36.4592
-33.5497
-33.2601
-44.2804
-44.1567
-39.1974
-44.6017
-44.4383
-44.4194
-35.024
-35.0257
-37.0518
-42.069
-41.6846
-43.3529
-33.3227
-33.3275
-35.4891
-35.4802
-46.686
-48.8203
-85.0093
-79.4998
14.3826
14.4038
-87.5225
-87.5464
-77.4703
-77.4602
-53.8128
-53.8066
-37.3842
-36.4361
-33.543
-33.2536
-44.1626
-44.2887
-39.1754
-44.578
-42.052
-37.0348
-41.6314
-43.3246
-48.7952
-46.6612
-79.482
-84.991
-90.1904
-68.7625
-72.2385
-108.072
-37.005
-39.2178
-52.556
-51.5067
-52.8929
-49.105
-51.7913
-43.0246
-59.9706
-91.6812
-75.2758
-79.0153
-91.4444
-108.658
-72.3115
-68.856
-60.0075
-79.0613
-75.3336
-92.0553
-52.9022
-43.0219
-51.8023
-49.1292
-37.0407
-51.4659
-52.566
-39.2284
-99.6996
-99.1452
-64.455
-62.4136
-99.8797
-62.4725
-64.4693
-99.1468
-39.239
-40.8068
-48.9238
-47.3937
-39.1717
-47.3862
-48.9574
-40.738
-47.9908
-35.5897
-18.0048
-42.3633
-9.73335
10.6161
1.89147
-14.1164
-9.83983
-14.1728
1.89358
10.617
-48.0236
-42.2924
-17.9915
-35.5942
95.3814
142.918
192.382
132.932
62.3776
101.282
164.776
129.085
62.5922
129.507
164.712
101.273
96.5024
132.74
192.421
137.534
-36.0234
-35.883
-39.1541
-38.9109
-33.6542
-35.8361
-37.9375
-35.4166
-48.5192
-50.5695
-42.8069
-41.1571
-56.0341
-44.4618
-44.3552
-54.1591
-36.0098
-38.8906
-39.1331
-35.8877
-55.983
-54.1302
-44.3317
-44.4392
-48.5006
-41.1469
-42.7866
-50.534
-33.6529
-35.3894
-37.916
-35.8231
-35.4643
-36.0826
-34.2341
-32.8127
-35.4488
-32.8082
-34.2335
-36.0807
-31.8393
-33.5878
-33.2605
-33.5762
-31.8542
-33.6043
-33.2643
-33.5946
-61.364
-75.8618
-88.5666
-39.9939
-61.2335
-71.4822
-84.3298
-66.8874
-61.168
-66.8491
-84.322
-71.4716
-61.3451
-39.8952
-88.5667
-75.8753
-28.7726
-41.6313
-45.1213
-31.8142
-41.0978
-39.4351
-52.9715
-50.7345
-38.975
-42.8539
-48.5679
-38.8157
-48.5168
-39.8633
-49.3713
-49.1372
-28.7972
-31.8348
-45.0517
-41.5702
-48.5174
-49.1242
-49.3186
-39.844
-38.8301
-38.6563
-48.4209
-42.7982
-40.9288
-50.6134
-52.8647
-39.2693
-34.9855
-35.3273
-36.4349
-36.8976
-34.956
-36.8693
-36.4235
-35.3207
-40.1095
-35.5677
-38.8473
-42.2949
-40.2308
-42.3476
-38.8653
-35.6207
-57.8629
-48.3547
-47.7322
-61.23
-34.3539
-34.1308
-39.2476
-40.0332
-34.3099
-40.0104
-39.2231
-34.1203
-57.8147
-61.2208
-47.7265
-48.3163
-30.7064
-26.8532
-25.1872
-30.2649
-30.5695
-30.16
-24.9616
-26.6945
-30.5862
-29.0425
-26.6095
-30.075
-30.6804
-30.1849
-26.7539
-29.1011
-67.0107
-149.448
-128.299
-35.3726
-35.09
-39.0252
-5.22805
-11.8734
-48.3887
-33.257
-32.524
-34.191
-153.614
-69.948
-131.165
-34.9383
-35.1972
-38.8617
-11.5892
-4.71441
-49.7292
-32.4312
-33.123
-34.1
-35.4657
-35.4035
-35.0935
-35.9071
-30.9453
-30.9376
-32.1311
-31.4565
-66.8165
-60.2247
-63.8807
-69.5102
-50.2169
-49.0201
-50.3849
-53.7659
-35.4638
-35.7953
-35.4404
-35.1067
-30.9737
-31.4504
-30.9279
-32.1527
-66.7477
-69.3239
-60.1163
-63.7951
-50.183
-53.7164
-48.9943
-50.3409
-8.31262
4.66856
-51.38
79.4328
-128.7
-128.693
-111.439
-12.2646
-56.9531
-49.0811
-55.7829
-52.647
-33.1943
-32.7329
-36.3382
-30.9508
-30.5264
-30.4726
-32.4574
-27.2381
-47.6059
-34.6745
-45.1301
-40.3883
-65.8344
-65.8898
-40.0867
-0.0537823
-45.9071
-37.5491
-55.3199
-31.6201
-31.7816
-31.7753
-32.874
-30.5573
-44.293
-47.5565
-46.0002
-45.2192
0.717106
4.71713
-52.3498
83.8698
-57.0292
-49.1139
-55.8401
-52.6692
-33.0485
-32.5651
-36.1699
-30.8365
-47.5035
-34.6022
-45.0402
-40.3315
-45.9114
-37.5265
-55.2927
-31.616
-44.2896
-47.5289
-45.9681
-45.2742
-33.3206
-36.0895
-33.4358
-33.1092
-39.6792
-42.2557
-40.6326
-41.0096
-37.9767
-37.9054
-39.4525
-36.9957
-35.1892
-38.359
-37.3017
-35.9928
-34.1779
-34.1719
-33.9573
-34.6786
-56.2875
-54.2724
-53.4557
-62.2235
-7.63986
-7.67074
2.32556
-22.4071
-65.981
-65.9765
-68.9284
-63.4321
-33.3893
-36.0098
-33.4507
-33.1407
-39.6673
-42.2389
-40.6288
-40.9901
-35.1714
-38.3443
-37.2872
-35.9702
-56.2604
-54.2335
-53.4157
-62.1811
-67.4991
-60.1278
-60.4015
-55.0098
-67.5448
-60.1628
-60.4223
-55.027
-59.6238
-55.1244
-55.2423
-52.0349
-12.4325
-7.49059
-7.48879
-2.59965
208.047
201.739
192.746
208.043
-39.5918
-41.0553
-40.2038
-41.9191
-39.5683
-41.0343
-40.1798
-41.8953
-33.7879
-34.2108
-33.3921
-33.7868
-93.6692
-90.6673
-92.7538
-93.6677
-54.8024
-48.9248
-52.0161
-48.214
-54.738
-48.8401
-51.9923
-48.0875
-37.8845
-37.3603
-37.3532
-36.813
-40.8119
-42.7774
-42.8466
-44.9419
-25.2051
-25.1112
-25.1771
-25.1035
-36.4923
-22.5014
-63.4348
81.431
-137.807
-129.756
-113.239
-17.4856
-91.8976
-69.2924
-89.7605
-76.8858
-34.5087
-33.8617
-37.3363
-31.1478
-33.8309
-32.1981
-34.9157
-30.9539
-48.2343
-52.186
-50.9223
-47.9807
9.66628
13.1811
-38.6229
61.6736
-28.6235
-74.9073
-45.4013
-1.04583
-62.2328
-57.9252
-65.7547
-58.6956
-32.5527
-32.4971
-35.9458
-30.8869
-31.6155
-31.608
-32.801
-30.7284
-37.0263
-39.9963
-39.2207
-37.4349
-137.781
-129.727
-113.232
-17.1306
-30.4033
-10.175
-69.5887
80.1171
-92.029
-69.4431
-89.7925
-77.0504
-33.6693
-32.0679
-34.8067
-30.7818
-34.3406
-33.6898
-37.1539
-30.9993
-48.0186
-52.1137
-50.7065
-47.8597
-28.5542
-74.8624
-44.7363
-0.745134
10.1288
13.9179
-38.7891
62.3262
-62.139
-57.9364
-65.7208
-58.6999
-31.563
-31.582
-32.7681
-30.6698
-32.4516
-32.3787
-35.8574
-30.7745
-36.9655
-39.9524
-39.1604
-37.3968
-39.6031
-45.5525
-45.3606
-43.1958
-36.5662
-32.9985
-33.1063
-34.4786
-36.388
-37.979
-37.3998
-37.1717
-37.031
-37.6968
-38.6067
-36.3731
-34.2574
-38.2419
-38.0971
-35.5038
-31.4605
-32.0381
-32.6673
-31.5992
-32.1051
-33.1499
-33.7025
-30.1291
-32.4726
-33.4145
-32.865
-34.0085
-48.9134
-35.4193
-46.5658
-16.8092
-53.1549
-46.1
-48.386
-49.1709
-60.5179
-58.6569
-57.5145
-74.1905
-13.8895
-7.56205
-0.11937
-20.0537
-50.9381
-50.832
-50.5215
-55.4632
-46.6891
-42.6494
-44.9288
-45.3156
-51.3064
-52.5356
-50.2579
-56.4475
-62.438
-64.9681
-65.8631
-62.3001
-39.7174
-45.4846
-45.5413
-43.2126
-36.8031
-37.4697
-38.3918
-36.3678
-36.4551
-32.9662
-33.0862
-34.4479
-36.3896
-37.9739
-37.4064
-37.1628
-34.2596
-38.2452
-38.0735
-35.486
-32.4724
-33.3954
-32.8482
-33.9782
-31.4696
-32.0099
-32.6545
-31.5836
-32.102
-33.1357
-33.6943
-30.1255
-49.6806
-35.4262
-46.5825
-16.8671
-14.0234
-7.57277
-0.116006
-20.0197
-53.1035
-46.0732
-48.3736
-49.1295
-60.5145
-58.6383
-57.4995
-74.1958
-50.892
-50.8004
-50.4939
-55.4344
-62.4132
-64.9564
-65.8442
-62.2853
-46.6926
-42.6411
-44.9282
-45.3158
-51.2608
-52.4891
-50.2265
-56.4019
-113.25
-85.2602
-100.287
-100.687
173.544
194.962
191.956
184.824
-88.2285
-71.3241
-78.2982
-78.3022
193.798
177.381
172.819
172.759
-58.323
-59.9326
-65.8036
-54.5594
-53.5101
-54.5355
-58.1826
-50.8255
-41.0953
-46.3292
-44.079
-42.2906
-29.7041
-27.5657
-29.203
-28.7926
-36.9647
-39.2942
-38.7994
-38.8138
-24.3354
-22.1907
-23.0534
-22.9011
-46.1685
-47.1445
-44.6165
-49.4688
-38.6504
-37.8501
-37.3142
-39.0439
-35.8012
-22.1562
-27.8646
-27.8485
120.401
151.704
132.619
132.403
-59.9669
-59.8522
-55.2882
-67.8472
-20.1624
-10.5597
-19.2235
-9.43821
-35.3236
-37.5853
-36.396
-36.3923
-27.3125
-26.3597
-26.8474
-26.9097
-47.2901
-50.5334
-46.5429
-48.9041
-43.3709
-42.9471
-45.3573
-41.1858
-113.219
-85.3752
-100.504
-100.865
172.909
194.988
184.715
191.763
-58.369
-59.9735
-65.8553
-54.5833
-53.518
-54.5459
-58.199
-50.8351
-40.9169
-46.1796
-42.1372
-43.9057
-29.5729
-27.3688
-29.0479
-28.6293
-46.0814
-47.0569
-44.5388
-49.3648
-38.6182
-37.8297
-37.2916
-39.0133
-59.9947
-59.8606
-67.8604
-55.2663
-20.1604
-10.5582
-9.44773
-19.2287
-47.2488
-50.5048
-48.8882
-46.4642
-43.3495
-42.927
-41.1739
-45.3437
-36.7908
-37.9746
-37.5165
-37.0743
-33.1009
-33.4884
-33.2985
-33.2861
-41.2326
-48.5325
-44.1588
-43.5554
-41.4367
-41.4781
-40.2734
-42.9833
-42.6032
-46.9747
-44.5801
-44.5704
-35.714
-34.6666
-35.1352
-35.1355
-38.4443
-39.4598
-37.9049
-40.3064
-35.904
-45.7613
-42.1424
-42.1534
-33.5369
-33.341
-33.388
-33.3904
-35.4004
-35.8921
-35.4755
-35.4707
-50.1912
-45.2919
-47.2847
-48.1848
-81.4105
-90.0066
-83.9453
-84.8232
15.12
10.0632
15.5364
15.541
-66.9949
-93.2172
-88.5806
-88.5934
-76.0498
-81.729
-78.4779
-78.4729
-57.5781
-50.5788
-53.7836
-53.7805
-36.7704
-37.9517
-37.4983
-37.0479
-33.098
-33.4862
-33.2932
-33.2798
-41.2399
-48.5414
-43.56
-44.1623
-41.4142
-41.455
-40.2509
-42.9603
-38.4288
-39.4407
-40.2898
-37.8879
-35.8894
-45.7137
-42.092
-42.1236
-50.1552
-45.2705
-48.1596
-47.2537
-81.3763
-89.9989
-84.8099
-83.9114
-105.38
-95.3402
-98.5015
-81.8377
-44.876
-40.1862
-49.3816
-44.5865
-47.5825
-46.6703
-47.732
-45.0144
-97.5466
-95.559
-103.883
-89.777
-105.771
-95.3924
-98.6331
-81.921
-97.6474
-95.5329
-103.966
-89.842
-47.5813
-46.6728
-47.7397
-45.0217
-44.9658
-40.2176
-49.375
-44.6078
-87.1314
-77.2612
-78.1734
-69.6544
-87.158
-77.3343
-78.1953
-69.6986
-43.6473
-41.7348
-46.1989
-44.1594
-43.6193
-41.6897
-46.178
-44.1379
-39.5464
-38.4172
-30.9211
-27.7878
5.50901
10.3615
3.67923
12.4321
5.52345
10.339
3.67718
12.4715
-39.4834
-38.4011
-30.9037
-27.8894
151.686
172.382
175.025
163.07
128.072
130.612
161.955
139.803
130.541
128.06
138.931
161.754
172.239
150.328
162.492
174.755
-36.3232
-37.3065
-37.3531
-38.2308
-34.9567
-35.0508
-36.0106
-36.2742
-45.2445
-47.6899
-43.7909
-46.1644
-49.2838
-52.3773
-46.4915
-49.0981
-36.3072
-37.2846
-37.3359
-38.2092
-49.26
-52.3518
-46.4681
-49.0745
-45.2366
-47.6723
-43.7762
-46.141
-34.948
-35.0395
-35.9925
-36.2554
-34.5865
-35.574
-33.9113
-34.8459
-35.5774
-34.584
-34.8484
-33.9077
-33.059
-32.9862
-33.2206
-33.2204
-32.9983
-33.0678
-33.2289
-33.2275
-86.0152
-61.484
-88.3367
-86.2591
-70.4209
-71.676
-75.8233
-75.9687
-71.6471
-70.3913
-75.9536
-75.8077
-61.7681
-86.0322
-86.2928
-88.3173
-40.1558
-35.6259
-42.6799
-40.9684
-44.0377
-49.5803
-47.4072
-50.9253
-39.5505
-40.5658
-41.4985
-42.6362
-49.3739
-47.5012
-50.978
-47.2979
-40.1137
-35.6152
-42.6243
-40.9149
-49.3726
-47.5025
-50.77
-47.2773
-39.4093
-40.4523
-41.3564
-42.5247
-43.85
-49.3937
-47.196
-50.7666
-35.3939
-35.4444
-35.9887
-35.5429
-35.3798
-35.4337
-35.9723
-35.5304
-39.1921
-42.9366
-39.9026
-42.0075
-39.2613
-43.0326
-39.984
-42.044
-54.1855
-57.4247
-50.5982
-53.7934
-35.3843
-36.7638
-36.5571
-37.9686
-35.3643
-36.7411
-36.545
-37.9517
-54.2111
-57.4081
-50.6087
-53.7846
-29.5529
-28.8452
-28.3339
-26.9326
-28.6505
-29.4032
-26.6713
-28.1118
-29.1728
-29.6663
-28.0971
-28.8882
-29.7617
-29.2605
-29.0473
-28.2418
-73.354
14.9481
-121.873
-27.743
-88.7513
-99.3976
-37.6644
-31.8983
-37.7498
-32.6734
-41.4909
-42.243
-40.1057
43.2424
-40.85
25.7966
-59.4607
-51.2192
-35.8439
-31.4747
-33.0469
-31.1835
-38.0961
-34.7293
-122.194
-23.2751
-79.086
33.3148
-89.6462
-99.754
-37.6058
-32.5098
-37.4857
-31.7499
-41.3239
-42.0995
-40.8117
26.8478
-40.4168
43.7622
-59.3429
-51.2613
-32.9936
-31.0928
-35.7025
-31.3569
-38.0124
-34.6757
-36.7038
-38.6339
-35.6028
-35.2366
-35.9784
-35.5403
-37.406
-35.7114
-28.1726
-34.4026
-32.4969
-31.4257
-33.2847
-29.4906
-31.9702
-33.426
-56.7989
-38.688
-54.9619
-56.0871
-59.0447
-82.6511
-16.8821
-45.9506
-49.4491
-53.6121
-48.1263
-48.0949
-49.3912
-54.9547
-59.6504
-59.0203
-36.7646
-38.6763
-37.2696
-35.6901
-35.6093
-35.2087
-35.9988
-35.5401
-28.1906
-34.3867
-31.9541
-33.3968
-32.5011
-31.4136
-33.2917
-29.4984
-56.8294
-38.7413
-17.1789
-45.7563
-54.9155
-56.0148
-58.9947
-82.7711
-49.4313
-53.5526
-59.4532
-58.9745
-48.1223
-48.0948
-49.3685
-54.9071
-61.0839
83.3929
-44.0012
74.1738
-106.02
-99.3777
141.245
138.667
-111.848
-25.9468
-111.843
-25.9494
-98.8152
-98.8158
51.21
51.222
-66.4075
-62.0097
-50.0193
-47.1035
-64.033
-53.4209
-57.1941
-49.8665
-36.8775
-31.0624
-36.0115
-30.835
-39.055
-38.8219
-30.3542
-30.1747
-33.1913
-28.2402
-33.1196
-28.1065
-35.1622
-35.1903
-26.0868
-25.9983
-49.9441
-44.1671
-40.3233
-36.8271
-43.0487
-48.934
-37.8904
-40.7362
-44.401
57.9535
-44.5809
58.0802
-41.9698
-41.9538
78.1544
78.6365
-68.0169
-42.3649
-45.4886
-22.1992
-52.4902
-69.3207
-31.0384
-20.1673
-32.7668
-30.4948
-32.7534
-30.4706
-34.1573
-34.1508
-29.0288
-29.0593
-42
-40.7478
-48.7605
-49.9087
-44.4105
-47.6673
-46.0156
-41.8203
-64.6531
73.0101
-44.5356
75.6136
-106.421
-99.7904
138.678
138.242
-66.5073
-62.0847
-49.9812
-47.1043
-64.0891
-53.4565
-57.2203
-49.8729
-36.6999
-30.9516
-35.8775
-30.7214
-38.6573
-38.8934
-30.2512
-30.0634
-49.8398
-44.1054
-40.2644
-36.7908
-42.9789
-48.8334
-37.8556
-40.6905
-68.0646
-42.3672
-45.5274
-22.1878
-69.319
-52.5265
-20.1782
-31.0327
-41.9566
-40.7196
-48.7359
-49.888
-47.6478
-44.3641
-41.8002
-45.9999
-35.6537
-32.5989
-35.8076
-33.8804
-36.2758
-36.451
-32.5614
-33.7672
-38.8101
-38.8439
-43.3899
-44.2677
-39.8945
-41.7721
-39.9632
-42.7364
-39.2585
-36.8105
-39.1374
-36.8039
-40.9777
-40.9446
-36.1902
-36.1885
-35.0332
-32.2778
-40.7878
-40.152
-36.7665
-39.3954
-33.0779
-37.2014
-33.7185
-34.5589
-33.7094
-34.5485
-33.7044
-33.7079
-35.2733
-35.2696
-55.3469
-66.0692
-51.6712
-58.7217
-51.4555
-53.214
-74.8699
-70.3771
2.32356
-21.5626
2.2777
-21.6408
10.9867
10.985
-40.8594
-40.7753
-68.3618
-63.1981
-68.3522
-63.1887
-72.1072
-72.1021
-61.222
-61.218
-35.681
-32.6093
-35.7193
-33.8001
-36.2716
-36.3518
-32.5631
-33.7562
-38.8103
-38.8269
-43.3798
-44.2393
-41.7723
-39.9013
-39.9424
-42.7137
-35.0184
-32.2429
-40.7797
-40.134
-39.3821
-36.7517
-33.0837
-37.1806
-55.3169
-66.0314
-51.634
-58.6798
-53.1775
-51.4162
-70.3685
-74.7569
-73.7974
-74.9684
-66.8303
-54.9603
-55.4823
-67.7026
-52.3894
-51.9159
-73.8695
-75.0294
-66.8821
-54.9825
-67.7247
-55.4916
-51.92
-52.404
-65.3016
-64.7297
-59.2672
-51.7153
-59.2783
-51.7236
-49.1295
-49.1236
-17.0669
-17.0627
-13.8829
-4.0703
-4.05148
-13.8781
3.30788
3.30993
200.388
188.082
193.077