# vtk DataFile Version 2.0
tri_press
ASCII
DATASET UNSTRUCTURED_GRID
POINTS 3682 float
-0.705 0.145 -1.8729
-0.78049 0.165 1.855
-0.685 0.417833 -1.865
-0.765 0.805 1.89143
0.705 0.145 -1.8726
0.780485 0.165 1.855
0.685 0.417632 -1.865
0.765 0.805 1.89142
-0.776907 0.104923 -0.630267
-0.754208 0.159452 0.612367
-0.783542 0.618764 -0.612857
-0.766233 0.703845 0.639287
0.776906 0.104922 -0.630067
0.754175 0.159482 0.612467
0.783621 0.618709 -0.61286
0.766199 0.703743 0.63928
-1.47205 -0.158534 -2.88016
-1.474 -0.101773 -1.88225
-1.52204 -0.118435 -0.639873
-1.52396 -0.108747 0.600597
-1.53143 -0.0937147 1.84282
-1.53646 -0.0551008 2.83993
-1.53681 -1.56698e-05 3.8385
-1.46598 0.0463342 -2.87284
-1.46699 0.128969 -1.87389
-1.53178 0.130527 -0.629643
-1.52402 0.166207 0.613753
-1.5362 0.19505 1.85781
-1.54064 0.234703 2.85505
-1.5397 0.287329 3.85331
-1.45777 0.406097 -2.86083
-1.45567 0.486258 -1.86223
-1.53495 0.62485 -0.611497
-1.5313 0.712367 0.639915
-1.53067 0.799294 1.89046
-1.53816 0.836072 2.8873
-1.54015 0.874844 3.88401
-1.47 1.0783 -2.83568
-1.47552 1.17766 -1.83568
-1.50676 1.34333 -0.581847
-1.52631 1.49437 0.674034
-1.53046 1.60855 1.92775
-1.53309 1.67192 2.92752
-1.53544 1.71923 3.92528
-0.731288 -0.150593 -2.87947
-0.715627 -0.0902489 -1.88129
-0.760652 -0.129717 -0.639939
-0.759001 -0.117528 0.599424
-0.765554 -0.114565 1.84073
-0.770808 -0.0700828 2.83852
-0.771427 -0.00913803 3.83769
-0.730891 0.0463859 -2.87259
-0.77658 0.221527 2.85389
-0.774649 0.279839 3.8527
-0.723567 0.37823 -2.86197
-0.774132 0.835505 2.88751
-0.775646 0.873379 3.88407
-0.721845 1.05804 -2.83681
-0.719395 1.15794 -1.83693
-0.744319 1.33611 -0.582597
-0.762866 1.49576 0.674147
-0.766399 1.61346 1.92843
-0.768995 1.67663 2.9282
-0.771462 1.72244 3.92578
0.722953 -0.150625 -2.87928
0.74215 -0.0902573 -1.88105
0.771563 -0.129719 -0.639759
0.761464 -0.117513 0.599523
0.777713 -0.114562 1.84076
0.769466 -0.0700849 2.83855
0.763435 -0.00914492 3.83773
0.70469 0.0463374 -2.87241
0.766136 0.221524 2.85391
0.760776 0.279832 3.85273
0.700867 0.37812 -2.86188
0.760375 0.835499 2.88752
0.757453 0.873368 3.8841
0.758002 1.05796 -2.83674
0.772741 1.15786 -1.83688
0.776826 1.33604 -0.582557
0.767313 1.49571 0.674178
0.763188 1.61343 1.92846
0.760494 1.67661 2.92823
0.757895 1.72242 3.92581
1.46132 -0.158606 -2.87981
1.48199 -0.101815 -1.88187
1.5266 -0.11846 -0.63957
1.52646 -0.108748 0.60078
1.53798 -0.0937134 1.84291
1.53557 -0.0551087 2.84
1.52992 -3.23603e-05 3.83858
1.44268 0.0462371 -2.87251
1.45907 0.128909 -1.87351
1.52916 0.13049 -0.629356
1.5246 0.166196 0.613915
1.53633 0.195053 1.85788
1.53352 0.234695 2.85511
1.52787 0.287312 3.85338
1.4384 0.405924 -2.86063
1.45004 0.486069 -1.86207
1.53353 0.624746 -0.611376
1.5312 0.712266 0.639986
1.52872 0.79927 1.8905
1.5274 0.836052 2.88734
1.52411 0.874818 3.88407
1.49951 1.07815 -2.83554
1.51697 1.17751 -1.83556
1.53332 1.34321 -0.581752
1.53148 1.49427 0.674108
1.52774 1.60848 1.92781
1.52517 1.67187 2.92758
1.52264 1.71918 3.92535
-0.683035 0.281416 -1.85698
0 0.118672 -1.89908
-0.762545 0.10337 -1.25158
-0.797304 0.485 1.89777
-2.5034e-06 0.173102 1.8469
-0.807758 0.121817 1.23368
0 0.478996 -1.92626
-0.83653 0.620557 -1.23893
0 0.807008 1.89343
-0.814934 0.803739 1.26536
0.682815 0.281316 -1.85661
0.762545 0.10337 -1.25133
0.797308 0.485 1.89778
0.807763 0.121808 1.23373
0.836538 0.620398 -1.23893
0.814953 0.803725 1.26535
-0.755657 0.142088 -0.00895
-0.790667 0.361843 -0.621562
-7.63342e-07 0.100967 -0.630167
-0.829864 0.431648 0.625827
-1.65252e-05 0.10095 0.612417
-0.766575 0.652992 0.013215
3.95996e-05 0.912598 -0.612858
-1.74304e-05 1.05122 0.639283
0.755651 0.142092 -0.00879997
0.790647 0.361816 -0.621463
0.829879 0.431612 0.625873
0.766639 0.652955 0.01321
-0.834419 0.32163 -1.24526
0.834406 0.321566 -1.24513
-3.81671e-07 0.100859 -1.25146
1.97998e-05 0.696087 -1.23893
0 0.281366 -2.02085
-0.779949 0.396746 0.00213251
0.779954 0.396714 0.00220501
-8.64429e-06 0.100934 -0.00887498
1.10846e-05 1.11271 0.0132125
-0.895408 0.458324 1.24952
0.895408 0.458306 1.24954
-9.51432e-06 0.111116 1.23371
-8.71518e-06 0.918066 1.26535
-1.2517e-06 0.485 2.05113
-0.670057 0.213208 -1.84098
-0.3525 0.119014 -1.89881
-0.750573 0.107385 -1.56224
-0.800672 0.325 1.88816
-0.390246 0.212572 1.80743
-0.810196 0.127336 1.54434
-0.691782 0.349625 -1.86876
-0.3425 0.465073 -1.91229
-0.78817 0.5466 -1.55196
-0.774336 0.645 1.88779
-0.3825 0.798853 1.88528
-0.797852 0.812255 1.57839
0.3525 0.118981 -1.89869
0.669932 0.213158 -1.84063
0.750922 0.107035 -1.56197
0.390241 0.212548 1.80745
0.800639 0.325 1.88813
0.810229 0.127299 1.54437
0.3425 0.464997 -1.91231
0.69164 0.349474 -1.86854
0.787916 0.546162 -1.55197
0.3825 0.798872 1.88529
0.774345 0.645 1.88779
0.797878 0.812264 1.57839
-0.770295 0.103578 -0.940925
-0.768997 0.12079 -0.319608
-0.804805 0.222874 -0.625914
-0.388751 0.102351 -0.630217
-0.817611 0.104007 0.923025
-0.751714 0.153988 0.301708
-0.822924 0.280106 0.619097
-0.390997 0.102431 0.612392
-0.82217 0.631794 -0.925893
-0.785746 0.489624 -0.617209
-0.786547 0.647367 -0.299821
-0.436893 0.855964 -0.612858
-0.805242 0.76845 0.952323
-0.834498 0.585971 0.632557
-0.750899 0.662913 0.326251
-0.442077 0.995436 0.639285
0.770312 0.103559 -0.9407
0.388749 0.102352 -0.630117
0.768767 0.121018 -0.319433
0.804831 0.222842 -0.625765
0.817693 0.103921 0.9231
0.390971 0.102431 0.612442
0.751707 0.153993 0.301833
0.822885 0.280118 0.61917
0.822234 0.631708 -0.925895
0.436977 0.855947 -0.612859
0.785728 0.489559 -0.617162
0.786631 0.647333 -0.299825
0.805259 0.768417 0.952315
0.442077 0.995454 0.639282
0.834336 0.585826 0.632577
0.750913 0.662843 0.326245
-0.816603 0.301523 -1.55112
-0.341517 0.281391 -1.88305
-1.90836e-07 0.100925 -1.57527
0 0.200019 -1.9903
-0.834468 0.2125 -1.24842
-0.381273 0.100859 -1.25152
-0.886414 0.471662 1.57365
-0.398653 0.485 2.03866
-6.00886e-06 0.129343 1.5403
-1.87755e-06 0.329051 2.03606
-0.881405 0.29007 1.2416
-0.403884 0.114372 1.2337
9.8999e-06 0.609241 -1.5826
0 0.380181 -2.07454
-0.8383 0.471094 -1.24209
-0.418255 0.690603 -1.23893
-4.35759e-06 0.84296 1.57939
-6.25849e-07 0.646004 2.03305
-0.895919 0.631032 1.25744
-0.407471 0.865228 1.26536
0.816799 0.301441 -1.55087
0.341407 0.281341 -1.88303
0.834481 0.212468 -1.24823
0.381272 0.100859 -1.2514
0.886414 0.471653 1.57366
0.398653 0.485 2.03866
0.881404 0.290057 1.24164
0.403877 0.114349 1.23372
0.838301 0.470982 -1.24203
0.418279 0.69021 -1.23893
0.895919 0.631015 1.25745
0.407472 0.865266 1.26535
-0.792207 0.257215 -0.00340874
-0.387407 0.102363 -0.00891249
-0.838643 0.341737 -0.933409
-0.779745 0.379295 -0.309715
-5.72507e-07 0.100884 -0.940813
-4.70382e-06 0.10096 -0.319521
-0.788197 0.414197 0.31398
-0.877844 0.444986 0.937674
-1.25848e-05 0.100975 0.301771
-1.30198e-05 0.101009 0.923063
-0.789875 0.533175 0.00767376
-0.463851 1.04399 0.0132138
2.96997e-05 0.737871 -0.925894
2.53421e-05 1.05936 -0.299823
-3.17287e-06 1.10064 0.326248
-1.30728e-05 0.988055 0.952319
0.792205 0.257202 -0.00329748
0.387396 0.102363 -0.00883748
0.839987 0.341691 -0.933298
0.779742 0.379265 -0.309629
0.788195 0.414163 0.314039
0.877844 0.444959 0.937708
0.789867 0.53312 0.00770751
0.463717 1.04361 0.0132113
-0.816718 0.212854 -1.55668
-0.837298 0.222941 -0.937167
-0.840572 0.480699 -0.929651
-0.818972 0.410359 -1.55154
0.817016 0.212813 -1.55642
0.81923 0.410228 -1.55142
0.840568 0.480622 -0.929596
0.837297 0.222918 -0.936999
-0.366886 0.10092 -1.56876
0.366886 0.10092 -1.56862
0.384862 0.100885 -0.940756
-0.384864 0.100885 -0.940869
-0.380378 0.594219 -1.56728
-0.405003 0.700739 -0.925893
0.405055 0.700695 -0.925894
0.38039 0.594216 -1.56728
-0.347009 0.206614 -1.89074
-0.342009 0.364903 -2.0308
0.341954 0.364828 -2.03074
0.346954 0.206588 -1.89047
-0.792066 0.243265 -0.314662
-0.794322 0.275282 0.307844
-0.824029 0.565495 0.320115
-0.778088 0.506539 -0.304768
0.792057 0.243252 -0.314531
0.778086 0.506484 -0.304727
0.823994 0.565419 0.320142
0.79432 0.275272 0.307936
-0.388075 0.102365 -0.319565
0.388069 0.102365 -0.319477
0.389185 0.102395 0.301802
-0.389203 0.102395 0.30174
-0.469007 0.987247 -0.299822
-0.456438 1.02666 0.326249
0.456461 1.02666 0.326247
0.469066 0.987218 -0.299824
-0.878091 0.29281 0.930349
-0.887228 0.307535 1.55899
-0.889055 0.638016 1.57602
-0.878109 0.599389 0.944998
0.87809 0.292802 0.930404
0.878042 0.599346 0.945011
0.888982 0.638008 1.57602
0.887229 0.307529 1.55901
-0.390498 0.10101 0.923044
0.390478 0.10101 0.923081
0.397059 0.145944 1.54234
-0.397065 0.145879 1.54232
-0.395298 0.948062 0.952321
-0.394986 0.783092 1.57889
0.394986 0.783087 1.57889
0.395281 0.948114 0.952317
-0.394449 0.327025 1.8881
0.394447 0.327025 1.88812
0.390577 0.645502 1.98359
-0.390576 0.645502 1.98358
-0.692715 0.179104 -1.86213
-0.52875 0.120844 -1.89702
-0.740609 0.113369 -1.71757
-0.7955 0.245 1.8765
-0.585368 0.166686 1.85331
-0.811267 0.130244 1.69967
-0.69238 0.383729 -1.87087
-0.51375 0.447718 -1.89491
-0.747367 0.492998 -1.70848
-0.775237 0.725 1.89518
-0.57375 0.799968 1.8864
-0.767127 0.794328 1.73491
0.52875 0.120697 -1.89694
0.692772 0.179079 -1.86192
0.740635 0.113344 -1.71728
0.585363 0.166589 1.85341
0.79554 0.245 1.87654
0.811267 0.130239 1.69968
0.51375 0.447597 -1.89494
0.69229 0.383553 -1.87074
0.747145 0.492584 -1.70848
0.57375 0.799971 1.88639
0.775259 0.725 1.89519
0.767099 0.794292 1.7349
-0.77365 0.104201 -0.785596
-0.781863 0.103946 -0.474938
-0.794793 0.16193 -0.628091
-0.583154 0.102986 -0.630242
-0.813631 0.104008 0.767696
-0.751567 0.158114 0.457038
-0.800112 0.214007 0.615732
-0.586542 0.103063 0.612379
-0.784305 0.606728 -0.769375
-0.783355 0.55355 -0.615033
-0.792147 0.640168 -0.456339
-0.629432 0.775794 -0.612857
-0.791012 0.741421 0.795805
-0.816267 0.652858 0.635922
-0.752826 0.677638 0.482769
-0.611126 0.863582 0.639286
0.773673 0.104177 -0.785383
0.583153 0.102987 -0.630092
0.781866 0.103941 -0.47475
0.794862 0.161885 -0.627916
0.813639 0.103996 0.767783
0.58652 0.103063 0.612454
[...]
POINT_DATA 3682
SCALARS point_scalars float 1
LOOKUP_TABLE default
-29.1284
-42.9781
36.9742
-40.4113
-30.6848
-43.1932
36.8613
-40.3793
-33.6378
-15.3978
-38.1668
-34.6233
-33.6379
-15.3744
-38.0952
-34.8353
54.5059
-90.0102
-45.9461
-23.3419
-49.5269
-39.4978
-32.3091
54.5059
-93.4055
-43.0248
-20.2831
-50.6161
-37.9875
-31.403
70.1807
-57.1274
-46.8549
-24.5758
-47.1144
-39.5636
-31.6854
49.3444
-58.317
-39.4141
-36.7409
-45.8631
-40.3714
-40.3714
134.63
-127.017
-33.5822
-26.5717
-43.5892
-33.8702
-28.9885
179.404
-30.6405
-29.0247
179.404
-30.8203
-29.7145
152.435
-6.13386
-57.0021
-54.7273
-36.6839
-39.5569
-39.1097
133.609
-100.891
-33.595
-26.5487
-43.5974
-33.8215
-28.9715
179.688
-30.5728
-28.9914
179.714
-30.7494
-29.6938
151.944
-8.27324
-56.7658
-54.7168
-36.6428
-39.28
-30.0586
51.5576
-89.7688
-45.8264
-23.2149
-49.5491
-39.4884
-32.2739
51.5576
-93.0665
-42.8816
-20.2542
-50.5878
-37.9735
-31.3716
76.2977
-56.3198
-46.8592
-24.5868
-47.1204
-39.543
-31.6548
49.3222
-57.9829
-39.3759
-36.6815
-45.9155
-40.3402
-40.3402
39.6697
-146.629
-49.7341
-36.5907
-33.8266
-39.617
31.323
-66.0413
-30.4073
-43.5136
35.0695
-49.7938
-36.5686
-39.5806
-66.0953
-43.496
-26.2196
-35.7502
-34.7126
-19.7464
-32.5753
-43.4536
3.77227
-56.2683
-26.3032
-35.6571
-19.7746
-43.4937
-57.9679
-58.054
-51.1189
-19.5745
182.505
-27.189
-27.399
-30.0655
-96.0716
-44.9417
-44.8991
-38.3577
-39.2032
-24.2472
59.1578
-123.6
-70.248
-37.8258
-34.7426
-40.0238
36.3199
38.1415
-42.6066
-36.2439
-32.3642
-46.1657
-124.32
59.6934
-70.3883
-34.795
-37.8056
-39.9546
37.4445
35.5805
-41.979
-32.3457
-36.2606
-46.1515
-40.7332
-28.6742
-34.8794
-34.5839
-41.7505
-23.45
-15.7049
-31.536
-54.7778
-36.4342
-42.4398
-15.0747
-39.0218
-25.3202
-38.8842
-52.8356
-40.7612
-34.5913
-28.7356
-34.8208
-41.7366
-31.5347
-23.5034
-15.7281
-54.7786
-15.0737
-36.3338
-42.4768
-39.0392
-52.7591
-25.3809
-38.9233
-72.5687
161.647
-74.0909
176.948
-54.6086
-51.7064
-49.1078
-28.81
-38.4344
-25.6545
-44.6735
-38.724
-6.7547
182.831
-61.1744
-35.5059
-34.2023
-27.2585
-44.3636
-40.851
-72.4345
161.517
-54.6516
-51.708
-49.1244
-28.786
-44.6226
-38.7213
-61.198
-34.9251
-44.3378
-40.8405
-25.9245
-29.3882
-48.4353
-30.2116
-40.6209
-31.3641
-22.397
-33.0372
-30.4301
-36.9084
-28.9067
-79.6823
13.4317
-69.6418
-73.3507
-45.8606
-26.081
-29.4032
-48.4497
-30.3164
-22.5701
-32.8682
-29.0996
-79.4876
-72.6571
-46.2197
-50.0605
-67.193
-72.4577
-67.0374
-50.0368
-46.2371
-78.6167
-78.5363
-40.6637
-40.6602
-6.88026
-10.385
-10.3264
-6.97422
159.449
181.804
182.035
159.48
-29.1854
-21.6786
-27.2972
-32.1506
-29.2821
-32.223
-27.411
-21.8011
-31.0194
-31.0317
-29.3401
-29.3312
-68.7225
-61.8432
-61.9252
-68.7545
-31.7018
-47.6528
-50.1789
-31.5002
-31.5829
-31.6985
-50.1958
-47.6651
-37.0452
-37.0438
-39.4227
-39.425
-46.9241
-35.7246
-35.7165
-46.9107
-30.8128
-30.8564
-30.2777
-30.3003
23.0577
-20.0929
-95.1423
-39.3417
-38.4363
-46.3733
38.6272
28.8452
-1.13567
-38.3335
-35.2611
-40.2771
-21.8774
21.3293
-94.3269
-38.4783
-39.3285
-46.3874
29.4162
38.3954
-0.822399
-35.2597
-38.3118
-40.2801
-40.8881
-30.5951
-34.1802
-33.9834
-26.9996
-20.5502
-12.3266
-29.8362
-43.2082
-37.4732
-39.3619
-55.5777
-36.4787
-26.125
-33.8653
-48.9174
-40.8945
-34.0002
-30.6194
-34.1529
-26.9264
-29.821
-20.5835
-12.3521
-43.1745
-55.5343
-37.3658
-39.2913
-36.445
-48.7697
-26.4242
-33.926
36.5795
32.428
-70.9371
162.662
-165.547
-165.517
-96.9812
88.2614
-60.4588
-43.9439
-50.5919
-50.6063
-36.9885
-36.5976
-47.372
-30.5867
-34.1416
-34.1668
-36.6124
-27.1992
-40.1993
-38.6857
-43.1823
-37.8846
31.2099
31.2489
11.4019
64.5841
-70.3748
-61.3757
-64.6619
-48.9451
-30.8158
-30.8065
-32.1672
-28.2949
-47.0251
-41.4181
-42.2982
-43.936
41.0161
30.6375
-70.6446
162.601
-60.6053
-43.978
-50.6119
-50.6583
-36.9683
-36.579
-47.3941
-30.5592
-40.2144
-38.6623
-43.1281
-37.8849
-70.5052
-61.2991
-64.6674
-48.8732
-47.0497
-41.4077
-42.2951
-43.9196
-29.5203
-24.7684
-25.9154
-28.2923
-35.3529
-36.0378
-45.4854
-31.9671
-34.7252
-34.7303
-37.1533
-32.7868
-17.9099
-21.7322
-19.1564
-24.6571
-32.3087
-32.3087
-31.2256
-34.3884
-42.6705
-42.6289
-35.1038
-53.8317
0.195058
0.162714
20.533
-27.309
-55.4442
-55.4519
-63.9072
-50.306
-29.5996
-24.8456
-26.0234
-28.3238
-35.2787
-35.9349
-45.4153
-31.8831
-17.941
-21.7029
-19.3009
-24.5745
-42.7118
-42.6813
-35.2039
-53.8501
-73.444
-56.4039
-59.2577
-53.7859
-73.4084
-56.4334
-59.3777
-53.7568
-60.3347
-51.529
-51.5292
-44.8693
-18.3753
-24.8601
-24.476
-6.42813
163.971
180.179
203.365
163.254
-26.2322
-28.6094
-25.078
-28.0024
-26.4352
-28.8054
-25.2641
-28.2011
-29.9018
-30.451
-30.0141
-29.9094
-93.9705
-94.9271
-84.9013
-93.9761
-46.9399
-44.7578
-44.8443
-36.9883
-46.9276
-44.7098
-44.8065
-36.8823
-39.1438
-38.8306
-38.8335
-37.1562
-36.469
-39.3438
-39.3456
-42.2078
-25.5335
-24.5033
-25.2023
-25.5263
-84.4514
171.869
-113.477
146.615
-68.3716
-75.8019
-48.238
-31.0406
-37.6777
-31.1144
-46.1099
-39.0346
-57.1883
160.421
14.7771
103.913
-65.6994
-10.6085
-47.3985
-31.7346
-33.1162
-30.5172
-50.0411
-36.9677
-113.274
146.388
-84.0871
171.646
-68.2625
-75.8788
-37.6853
-31.1488
-48.2541
-30.9407
-46.1047
-38.9556
14.4977
103.929
-56.7827
160.156
-65.2339
-9.58559
-33.1045
-30.4998
-47.4096
-31.6927
-50.0075
-36.9594
-44.1314
-40.075
-29.1147
-30.2544
-44.5374
-31.1216
-37.2682
-32.4803
-31.3866
-40.7424
-22.1804
-27.5159
-17.6333
-23.2318
-30.1309
-34.2217
-51.7526
-35.5237
-45.6419
-33.5972
-34.0776
-56.4475
-4.23478
-43.9964
-31.719
-47.8901
-28.2451
-24.7586
-37.3083
-48.5559
-58.0274
-50.7578
-44.1327
-40.0929
-37.2744
-32.4905
-29.1864
-30.2802
-44.4779
-31.0938
-31.3446
-40.722
-30.1351
-34.2186
-22.2571
-27.5323
-17.7541
-23.148
-51.723
-35.5006
-4.13769
-43.9971
-45.5504
-33.5041
-34.1225
-56.5249
-31.6501
-47.8842
-58.0083
-50.8298
-28.2401
-24.8115
-37.3574
-48.5729
-73.881
-69.6968
162.517
164.68
-76.028
-75.993
164.484
165.173
-70.9732
-51.6828
-61.7867
-45.2372
-48.5978
-49.8546
-30.1433
-29.0411
-38.9248
-38.9191
-28.1861
-28.2672
-36.9975
-45.961
-37.3985
-39.6469
-6.72728
-6.82991
184.293
184.901
-56.6352
-76.1534
-25.6982
-25.3793
-34.4799
-34.4765
-28.2262
-28.2462
-47.1359
-37.3522
-43.9408
-38.3383
-73.7414
-69.543
164.493
162.465
-71.099
-51.6997
-61.7847
-45.2394
-49.8703
-48.6138
-30.1694
-29.0081
-36.8784
-45.9441
-37.397
-39.6581
-76.2437
-56.6194
-25.4753
-26.0183
-37.4501
-47.1232
-38.3299
-43.9242
-27.5547
-24.2727
-29.985
-29.1283
-47.5529
-49.3351
-29.4756
-31.0808
-40.6198
-40.6165
-31.3168
-31.3327
-21.8872
-23.4719
-32.9786
-32.4897
-30.1634
-30.159
-36.9022
-36.9028
-26.5544
-30.6791
-81.3088
-67.5943
7.24306
7.27789
-63.6674
-63.6414
-71.3842
-71.3657
-45.9388
-45.9548
-27.721
-24.4116
-29.9998
-29.1409
-49.3209
-47.5787
-29.5924
-31.1589
-23.6339
-22.0451
-32.8348
-32.2774
-30.8615
-26.7271
-67.5149
-81.3965
-91.5365
-67.3355
-72.185
-73.5659
-45.7511
-45.0969
-52.7581
-49.2984
-44.2798
-58.915
-55.1231
-45.7239
-44.0918
-64.9842
-74.5989
-81.368
-91.2081
-73.5069
-72.3708
-67.3403
-43.7354
-81.5087
-74.4857
-64.6129
-44.2262
-45.6379
-55.1225
-58.8745
-45.6522
-49.3144
-52.7546
-45.024
-109.801
-103.2
-61.0207
-60.3996
-109.028
-60.5093
-61.0189
-103.15
-36.9012
-37.2775
-45.1544
-44.3308
-36.8808
-44.3055
-45.1522
-37.2731
37.4632
-35.3883
-20.8274
10.3887
-39.3358
14.9407
-11.5058
-44.7867
-40.7472
-44.7461
-11.4902
14.9429
35.2371
10.3161
-21.2585
-35.2021
134.782
163.443
159.599
122.364
121.977
93.6825
187.707
156.085
121.763
156.371
187.691
93.4165
133.304
123.061
161.167
163.343
-31.2809
-28.5142
-27.8656
-31.4133
-18.5362
-18.2703
-24.4704
-24.3921
-31.8615
-37.6346
-25.6667
-20.7912
-34.9644
-32.6248
-29.5785
-34.0068
-31.2811
-31.3506
-28.0491
-28.6246
-34.8688
-34.1358
-29.7636
-32.5314
-31.8142
-20.9008
-25.8475
-37.7945
-18.6156
-24.49
-24.6405
-18.4094
-31.8608
-32.8021
-30.3546
-29.1973
-31.8826
-29.2281
-30.3622
-32.8081
-27.9423
-31.0155
-29.8218
-27.7173
-27.9381
-27.6912
-29.8159
-31.0127
-56.9325
-55.3984
-92.6009
-26.5143
-48.9958
-62.2
-82.0289
-51.0423
-49.0393
-51.0477
-82.0378
-62.2021
-56.9296
-26.8603
-92.5917
-55.4175
-23.2496
-39.0421
-36.7886
-23.7714
-49.5215
-47.7152
-46.5604
-43.6461
-46.5262
-47.846
-47.164
-47.4576
-26.1461
-25.7452
-37.2579
-37.1442
-23.1603
-23.6761
-36.6659
-38.9534
-26.227
-37.1504
-37.1981
-25.7591
-46.5299
-47.4761
-47.1536
-47.8414
-49.5176
-43.624
-46.5456
-47.7393
-34.2109
-34.3321
-37.4289
-36.6459
-34.1975
-36.6402
-37.4296
-34.3314
-38.8056
-36.9692
-39.5759
-39.037
-38.8404
-39.0043
-39.5681
-36.9419
-48.7224
-47.1073
-42.3268
-49.9911
-34.4874
-32.4148
-36.8097
-40.0681
-34.4834
-40.0557
-36.808
-32.4104
-48.7757
-49.9996
-42.323
-47.081
-32.4477
-31.0873
-26.4534
-30.4114
-32.3537
-30.3708
-26.4485
-31.1234
-32.3004
-28.9107
-26.4579
-30.601
-32.2913
-30.6253
-26.4754
-28.9268
4.8051
-79.5071
-101.99
-41.5255
-39.7867
-45.7189
36.7646
34.8845
21.857
-39.2575
-38.9749
-38.8796
-85.4539
3.84108
-100.557
-39.5194
-41.6694
-45.7036
35.4685
36.6447
21.4988
-38.9325
-39.2286
-38.8547
-35.4681
-31.1431
-33.7891
-33.4665
-12.7886
-18.7046
-12.8729
-25.387
-39.7404
-38.0892
-38.0244
-47.1335
-35.4463
-29.8104
-34.5013
-42.5874
-35.4942
-33.4863
-31.1551
-33.7767
-12.7215
-25.3628
-18.7193
-12.9014
-39.6797
-47.131
-37.9955
-37.9783
-35.7603
-42.6109
-30.1804
-35.045
36.5339
38.4247
-60.4325
132.921
-146.69
-146.684
-113.769
93.7417
-53.9533
-45.875
-49.7383
-49.9805
-36.7567
-36.5885
-42.2429
-31.6793
-33.6769
-33.6942
-35.1684
-29.9017
-40.1464
-38.9831
-42.0635
-38.194
31.3028
31.3079
22.939
45.1871
-76.1627
-63.8947
-67.0207
-62.5737
-30.4794
-30.4757
-31.2358
-29.0802
-44.4211
-42.9117
-41.4601
-45.4855
31.8937
35.1147
-60.2961
133.142
-54.0673
-45.8927
-49.7414
-50.0603
-36.7356
-36.5674
-42.2487
-31.6494
-40.1215
-38.9329
-42.0119
-38.183
-76.2429
-63.9941
-67.0539
-62.5921
-44.3824
-42.9029
-41.5959
-45.4695
-30.0279
-25.6933
-26.0766
-26.8765
-35.4723
-35.874
-40.3752
-33.2504
-34.6686
-34.6711
-35.7855
-33.5655
-18.8974
-20.7344
-18.9409
-21.4236
-32.5324
-32.5325
-31.895
-33.4445
-44.1269
-43.33
-38.9085
-46.9694
2.94267
2.94619
15.8647
-9.23335
-56.0584
-56.0531
-59.5181
-52.809
-30.1163
-25.7739
-26.1699
-26.9308
-35.388
-35.775
-40.3022
-33.1616
-18.923
-20.7411
-19.0401
-21.3856
-44.1674
-43.4057
-38.9731
-47.0037
-64.0957
-56.9853
-58.2623
-54.9959
-64.4809
-57.0249
-58.3991
-54.8814
-55.3642
-51.2468
-51.2472
-47.5522
-21.3896
-21.4357
-21.3071
-15.9603
174.014
181.521
189.74
173.936
-26.7443
-27.8982
-26.2621
-27.5784
-26.9495
-28.1079
-26.4685
-27.7832
-30.024
-30.2506
-29.9485
-30.0277
-96.1248
-98.4951
-91.1307
-96.1362
-45.7511
-44.9775
-44.8351
-41.979
-45.7223
-44.9329
-44.7939
-41.9058
-39.0608
-38.4414
-38.441
-37.746
-37.7964
-39.1601
-39.181
-40.4869
-24.4994
-24.1867
-24.5314
-24.4954
49.6826
56.7986
-53.1016
152.255
-35.2876
-174.02
-142.105
122.893
-82.2086
-66.3837
-68.5832
-73.3311
-38.3365
-37.379
-43.1711
-32.1787
-35.5995
-34.3507
-36.4226
-32.7835
-42.7634
-38.5154
-44.1267
-39.3683
41.2455
30.7189
-42.6992
142.056
29.3306
34.7452
23.2285
48.4323
-28.0293
-54.0458
-55.5577
-13.2493
-36.4455
-36.5039
-42.8461
-32.6558
-33.4576
-31.4095
-32.4679
-31.2249
-44.1281
-47.4136
-48.8531
-39.9165
-35.7218
-174.007
-141.819
122.827
48.8822
60.9089
-54.1447
151.629
-82.0082
-66.7274
-68.5893
-73.6423
-35.5866
-34.3844
-36.4445
-32.825
-38.3155
-37.3597
-43.1711
-32.1442
-42.7576
-38.4828
-44.1061
-39.2446
29.9554
34.5199
23.3077
48.3962
40.7645
29.8957
-42.2924
141.815
-27.6099
-53.7552
-55.001
-12.4843
-33.4706
-31.3968
-32.453
-31.2037
-36.4133
-36.4798
-42.8077
-32.6274
-44.1274
-47.323
-48.7925
-39.9176
-39.4483
-41.9632
-42.2678
-39.8353
-30.3556
-27.7285
-28.9125
-29.3359
-34.1421
-34.9042
-39.7408
-32.6506
-34.3788
-34.6712
-35.9189
-33.3714
-38.3299
-44.1032
-33.6615
-43.2583
-21.8457
-24.1201
-22.4905
-25.3025
-14.5681
-17.3263
-15.7679
-19.3672
-30.8158
-32.0907
-30.8037
-32.763
-48.5584
-58.5584
-53.5432
-48.2114
-36.9071
-36.1981
-40.3116
-34.5109
-40.3327
-42.9034
-36.6772
-48.5594
-34.4314
-4.60394
-8.0689
-27.823
-38.3761
-39.8215
-33.4643
-44.6541
-25.0713
-23.8465
-27.3422
-24.3981
-36.0503
-41.2573
-38.8819
-42.0503
-49.1004
-54.9095
-54.5343
-52.394
-39.4835
-42.0046
-42.2629
-39.8556
-34.3899
-34.6769
-35.9256
-33.3789
-30.4244
-27.7774
-28.9831
-29.375
-34.1055
-34.8393
-39.6819
-32.6029
-38.2522
-44.079
-33.6516
-43.2566
-30.8119
-32.0905
-30.805
-32.7607
-21.8906
-24.1887
-22.5567
-25.3338
-14.5855
-17.3629
-15.8488
-19.3407
-48.53
-58.4395
-53.5066
-48.176
-34.3839
-4.62033
-8.04299
-27.8102
-36.8063
-36.0975
-40.2352
-34.4158
-40.2912
-42.946
-36.7077
-48.5828
-38.3172
-39.7916
-33.3414
-44.631
-48.9469
-54.9337
-54.4083
-52.5285
-25.2348
-23.8416
-27.4204
-24.4608
-36.0625
-41.2931
-38.9177
-42.0795
-71.1382
-78.6893
-72.8625
-71.0564
160.897
161.07
162.17
160.496
-83.0942
-67.5118
-74.5277
-74.5139
155.045
178.697
169.453
169.056
-53.4248
-55.5469
-60.9981
-52.2774
-51.1926
-51.8056
-56.0317
-48.3713
-49.5388
-49.2555
-48.8033
-49.2733
-29.873
-27.0304
-29.2035
-28.6538
-37.8345
-38.8212
-38.516
-38.5118
-25.8423
-25.0166
-27.115
-26.7935
-43.4067
-44.6945
-42.6057
-44.7425
-38.1486
-38.8566
-38.0161
-39.4645
0.570097
-14.2669
-7.08815
-7.13987
137.244
207.14
181.879
183.634
-62.6559
-60.2205
-57.9544
-67.8918
-41.9648
-29.372
-32.956
-32.4052
-33.1701
-35.3502
-34.265
-34.2622
-27.7582
-26.1868
-27.4703
-27.4776
-43.4571
-44.6125
-45.6273
-41.0371
-42.4493
-39.8872
-42.337
-39.5788
-70.433
-78.7181
-72.7044
-70.9107
160.818
161.51
160.371
162.076
-53.4648
-55.5815
-61.0809
-52.2905
-51.2117
-51.805
-56.0296
-48.378
-49.5648
-49.2661
-49.2895
-48.8191
-29.8479
-27.0128
-29.1902
-28.6287
-43.3496
-44.6447
-42.5342
-44.7013
-38.1523
-38.8604
-38.0145
-39.4739
-62.6625
-60.2969
-67.9543
-57.948
-41.7669
-28.6074
-32.3082
-32.6303
-43.4391
-44.5808
-40.9954
-45.6117
-42.4363
-39.8845
-39.5695
-42.3257
-25.8917
-25.9539
-26.6492
-25.1496
-28.9324
-29.701
-29.6659
-29.1725
-46.9873
-50.4775
-47.9834
-48.8745
-31.0527
-29.4279
-29.8237
-30.631
-38.8117
-42.5339
-40.51
-40.5078
-31.9534
-30.9571
-31.3931
-31.3966
-20.5831
-23.7509
-22.1406
-22.7668
-27.9805
-36.0427
-33.1905
-32.7709
-30.7927
-30.1325
-30.3665
-30.3641
-35.3919
-37.2166
-36.9175
-36.9182
-30.0949
-28.351
-28.2542
-29.8418
-63.5473
-88.4263
-79.5729
-72.9986
20.6032
4.05557
11.8536
11.8666
-45.4674
-88.8914
-69.3053
-69.3194
-68.5076
-79.4799
-72.8121
-72.8205
-47.763
-43.7693
-45.8451
-45.8448
-26.0235
-26.1431
-26.7996
-25.3134
-28.9535
-29.7119
-29.6814
-29.1865
-46.9772
-50.502
-48.8831
-48.0081
-31.0766
-29.5868
-29.9327
-30.7251
-20.7535
-23.939
-22.9378
-22.3101
-27.8811
-35.9066
-33.0369
-32.5888
-30.2617
-28.5461
-30.0435
-28.4323
-63.5361
-88.3272
-72.8592
-79.7099
-80.4968
-71.2919
-73.6832
-74.6235
-45.4894
-45.6231
-48.4185
-46.962
-50.5415
-48.172
-52.7957
-49.6816
-62.601
-66.1574
-68.4712
-77.5267
-80.0091
-71.1172
-73.5688
-74.7611
-61.88
-65.9537
-68.3304
-77.7754
-50.5148
-48.1326
-52.7774
-49.6557
-45.499
-45.6219
-48.4369
-46.9799
-93.1266
-77.6368
-77.9104
-69.4788
-92.9837
-77.5694
-77.8511
-69.4558
-40.4539
-38.8842
-42.8054
-40.759
-40.4458
-38.876
-42.8024
-40.7557
0.956562
-12.4228
-6.04444
-16.2613
-21.1205
-5.8229
-16.6757
-0.847125
-21.071
-5.78354
-16.7041
-0.813937
0.663881
-11.9335
-6.26191
-16.3894
170.131
156.635
163.15
174.123
171.999
150.013
183.859
181.117
150.225
172.068
181.137
183.999
156.671
168.974
173.429
163.128
-28.9756
-29.9975
-28.3806
-29.364
-21.8761
-19.8648
-23.0461
-21.6981
-27.889
-32.9021
-24.2378
-26.6715
-32.9382
-32.8538
-31.5568
-31.3316
-29.0582
-30.0357
-28.5052
-29.4645
-32.9361
-32.9141
-31.6334
-31.4696
-28.3063
-32.9809
-24.3929
-26.8101
-21.9731
-19.9814
-23.1893
-21.8463
-30.7214
-31.6782
-30.4818
-31.2326
-31.6897
-30.7392
-31.242
-30.4958
-29.6554
-28.621
-29.8391
-29.1583
-28.6092
-29.6487
-29.1479
-29.8323
-75.5325
-52.9099
-79.2798
-61.9973
-55.5418
-60.1453
-63.7916
-67.828
-60.1399
-55.5756
-67.8388
-63.8659
-52.9381
-75.6811
-62.0462
-79.2999
-31.4819
-25.2801
-38.6171
-32.7934
-49.8126
-47.7814
-48.2022
-47.0917
-49.3747
-50.5623
-50.149
-49.3393
-31.1008
-27.6782
-35.9542
-32.0929
-31.3932
-25.1588
-38.5045
-32.6634
-31.1774
-27.6706
-35.5523
-31.9412
-49.3783
-50.5679
-50.1675
-49.3479
-49.84
-47.7912
-48.22
-47.0923
-37.8131
-35.3417
-37.4473
-36.9057
-37.809
-35.3384
-37.4465
-36.9058
-38.9856
-39.5525
-39.2255
-39.689
-38.9813
-39.5696
-39.2205
-39.6894
-47.5514
-48.9634
-45.4219
-46.1791
-34.4528
-36.2425
-34.9083
-37.0343
-34.4479
-36.2341
-34.9063
-37.0253
-47.5538
-48.9355
-45.4045
-46.169
-30.6014
-30.6088
-30.7414
-29.9065
-30.6203
-30.6943
-29.9206
-30.7949
-30.0837
-30.9959
-29.3206
-29.798
-31.0106
-30.1024
-29.8271
-29.3508
-70.2463
131.697
-154.536
17.0196
-92.4191
-105.015
-44.7687
-33.4844
-38.7003
-35.2313
-49.8337
-41.0414
-20.2874
97.5443
28.8384
69.62
-33.0403
30.2989
-42.2681
-32.97
-35.0099
-33.6375
-44.7173
-35.8723
-152.99
16.3723
-69.9421
130.561
-91.9705
-101.484
-38.6682
-34.9968
-44.75
-33.4308
-49.8096
-40.9997
30.8524
69.8251
-20.1984
97.7462
-32.7298
28.267
-34.9859
-33.6783
-42.2421
-32.9428
-44.7503
-35.8652
-43.5713
-36.8777
-30.8913
-31.3969
-39.8889
-31.9657
-35.2577
-32.6704
-22.4984
-37.4118
-19.4134
-24.6664
-15.6033
-15.1437
-28.6881
-31.9929
-43.3587
-47.0801
-40.0999
-35.7313
-36.6472
-47.4013
-46.3215
-61.9353
-30.1171
-44.7434
-27.9478
-25.3521
-31.3807
-39.9706
-49.8041
-48.4421
-43.9304
-36.9118
-35.2734
-32.6881
-30.9053
-31.4295
-39.8544
-31.9675
-22.3992
-37.3786
-28.6844
-31.9777
-19.4637
-24.6774
-15.6402
-15.1251
-43.3115
-47.0727
-46.1968
-61.9627
-40.02
-35.6394
-36.5503
-47.3959
-30.1341
-44.7346
-49.7569
-48.3923
-28.0202
-25.4104
-31.2559
-39.9182
-65.682
139.119
-49.7567
129.246
-72.205
-68.3144
162.896
161.921
-125.452
130.128
-125.41
127.921
-98.448
-98.4321
112.557
112.453
-64.3149
-59.6559
-47.1862
-43.9166
-57.5678
-49.9864
-54.6811
-46.9787
-42.7816
-31.846
-42.488
-31.7671
-47.7893
-47.545
-30.6648
-30.495
-35.7078
-32.5451
-35.7365
-32.5808
-36.5123
-36.4978
-27.6954
-27.8828
-42.0503
-39.2971
-39.889
-37.0728
-42.1307
-42.9719
-37.1986
-38.8129
21.1114
42.6597
21.1213
42.5871
10.1719
10.1281
71.2848
73.3583
-78.7285
-35.935
-60.3291
-58.2578
-60.8944
-72.6336
-41.9699
-47.854
-31.5072
-29.6149
-31.5019
-29.6037
-32.2323
-32.23
-28.4516
-28.4588
-47.623
-43.5902
-38.1285
-46.0903
-45.2749
-39.8097
-45.5969
-41.8902
-65.044
139.321
-49.1462
129.781
-72.0508
-67.9152
162.078
162.75
-64.3116
-59.8248
-47.2018
-43.9579
-57.5996
-50.0076
-54.7527
-47.0128
-42.7878
-31.8151
-42.4926
-31.7396
-47.5661
-47.8148
-30.6356
-30.4691
-42.0281
-39.3541
-39.8222
-37.0622
-42.0641
-42.9288
-37.1931
-38.8213
-78.8966
-35.7019
-60.2623
-58.188
-72.6899
-60.8997
-47.811
-41.8944
-47.9771
-43.5565
-38.1434
-46.0639
-39.8071
-45.2239
-41.8752
-45.5772
-29.6049
-28.7885
-24.5378
-26.0185
-27.1685
-25.2683
-28.7952
-27.8647
-39.9496
-32.8986
-40.5473
-33.752
-45.191
-45.7048
-31.6353
-32.2283
-35.8723
-33.4685
-35.8765
-33.474
-37.1864
-37.1838
-32.7843
-32.7873
-17.2487
-20.312
-20.9073
-23.4696
-18.6678
-19.7078
-24.1381
-25.2397
-31.7284
-33.3018
-31.7296
-33.3017
-31.2171
-31.2156
-34.3668
-34.3666
-38.0503
-48.1789
-42.2439
-45.0083
-35.5045
-34.4613
-54.9112
-52.2333
10.7898
-11.0109
10.7692
-11.0112
19.1675
19.1942
-26.8986
-26.8996
-58.8865
-52.538
-58.8927
-52.5494
-63.588
-63.5885
-50.2932
-50.303
-29.7008
-28.8385
-24.6267
-26.0647
-27.2651
-25.3772
-28.8273
-27.8934
-39.8844
-32.8277
-40.4783
-33.6611
-45.6392
-45.1267
-31.5562
-32.1474
-17.3588
-20.2722
-20.9761
-23.4367
-19.8472
-18.8125
-24.0444
-25.175
-38.1393
-48.2114
-42.3517
-45.045
-34.5908
-35.5578
-52.2514
-54.9319
-72.8146
-74.0788
-62.7358
-53.7181
-56.2778
-65.5986
-53.2736
-54.4434
-72.8896
-73.9745
-62.8426
-53.6873
-65.8145
-56.2288
-54.4352
-53.2498
-60.5767
-60.5743
-55.5975
-48.233
-55.5948
-48.237
-45.0379
-45.0361
-19.0279
-18.9376
-25.4196
-19.1447
-18.8944
-25.3402
-7.72063
-7.69573
163.775
162.975
174.326
174.51
198.469
198.398
162.327