# vtk DataFile Version 2.0
tet_velo
ASCII
DATASET UNSTRUCTURED_GRID
POINTS 29498 float
-0.605 0.145 -1.72042
-0.699596 0.245 1.885
-0.785 0.318698 -1.655
-0.685 0.721052 1.895
0.605 0.145 -1.72196
0.699596 0.245 1.885
0.785 0.318584 -1.655
0.685 0.721052 1.895
-0.69694 0.117925 -0.518613
-0.756232 0.123498 0.683193
-0.779142 0.480291 -0.471667
-0.789686 0.658287 0.711667
0.696676 0.118189 -0.51964
0.756233 0.123498 0.68268
0.779136 0.480209 -0.471667
0.789699 0.658261 0.711667
-1.32642 -0.106171 -2.69673
-1.34006 -0.049254 -1.74262
-1.41419 -0.0698851 -0.540298
-1.47067 -0.0851424 0.665727
-1.44844 -0.00815973 1.86836
-1.43914 0.0714165 2.82401
-1.44471 0.147353 3.77684
-1.33475 0.0463226 -2.67041
-1.35021 0.124163 -1.71836
-1.43273 0.13311 -0.519702
-1.48521 0.147554 0.680585
-1.43232 0.232703 1.8796
-1.42862 0.311551 2.83502
-1.44112 0.384854 3.78848
-1.41269 0.29814 -2.61277
-1.47625 0.370307 -1.66017
-1.50732 0.50412 -0.474148
-1.51769 0.643496 0.710554
-1.43453 0.719171 1.89697
-1.43256 0.791676 2.85317
-1.44863 0.860637 3.80965
-1.47768 0.794276 -2.54015
-1.51049 0.892375 -1.59023
-1.52893 1.07704 -0.410257
-1.53053 1.27464 0.765728
-1.51359 1.41094 1.94596
-1.49902 1.48662 2.89643
-1.49443 1.55233 3.85084
-0.61696 -0.0935785 -2.69829
-0.624581 -0.0317461 -1.74473
-0.685338 -0.0754784 -0.540348
-0.739227 -0.102666 0.667906
-0.726131 -0.00716431 1.87237
-0.717816 0.0729129 2.8267
-0.721872 0.147591 3.77835
-0.61207 0.0516294 -2.67106
-0.708241 0.315577 2.83723
-0.718968 0.386377 3.78959
-0.674636 0.278062 -2.61066
-0.709655 0.79506 2.85272
-0.725414 0.86343 3.80948
-0.737472 0.775454 -2.53805
-0.766385 0.871956 -1.58788
-0.779489 1.06762 -0.408879
-0.785099 1.28056 0.765432
-0.77967 1.41948 1.94456
-0.768883 1.49295 2.89503
-0.765151 1.55691 3.84979
0.728235 -0.0935638 -2.69928
0.671048 -0.0316932 -1.74596
0.716554 -0.0753043 -0.541273
0.743399 -0.102631 0.667394
0.707396 -0.00715812 1.8722
0.711874 0.0729209 2.82654
0.71645 0.147602 3.77814
0.737865 0.0516187 -2.67202
0.708611 0.315582 2.83712
0.714534 0.386386 3.78942
0.785818 0.278006 -2.61113
0.70161 0.795062 2.85263
0.708069 0.863436 3.80932
0.747938 0.775423 -2.53842
0.73612 0.871921 -1.58816
0.733176 1.06759 -0.409103
0.720543 1.28055 0.765246
0.69541 1.41948 1.94439
0.690418 1.49296 2.89485
0.690559 1.55692 3.84959
1.41701 -0.106135 -2.6985
1.36906 -0.0491574 -1.74459
1.4271 -0.0696602 -0.541862
1.47544 -0.0850562 0.664774
1.44448 -0.00813734 1.86787
1.4373 0.0714373 2.8236
1.4399 0.147377 3.77638
1.42269 0.0463165 -2.67209
1.35125 0.124194 -1.7203
1.42542 0.133334 -0.521188
1.48745 0.14762 0.679728
1.43907 0.232714 1.87924
1.43185 0.311565 2.83469
1.43659 0.384874 3.78808
1.48354 0.298066 -2.61383
1.46739 0.370203 -1.66101
1.49262 0.504113 -0.474798
1.5141 0.643508 0.710139
1.4353 0.719172 1.89671
1.42554 0.791684 2.8529
1.43054 0.860651 3.80929
1.48331 0.794226 -2.54092
1.47851 0.89232 -1.59087
1.48029 1.07701 -0.410779
1.46902 1.27463 0.765297
1.43814 1.41094 1.94558
1.42495 1.48663 2.89604
1.4209 1.55235 3.85041
-0.64465 0.231849 -1.63736
0 0.142294 -1.7239
-0.687634 0.0947987 -1.11952
-0.673167 0.483026 1.87087
0 0.2566 1.8734
-0.766815 0.145348 1.2841
0 0.460934 -1.79729
-0.781167 0.398591 -1.06333
0 0.76498 1.93893
-0.772022 0.724348 1.30333
0.645972 0.231792 -1.63945
0.68761 0.0948223 -1.1208
0.673419 0.483026 1.87112
0.766336 0.145827 1.28384
0.778273 0.395601 -1.06333
0.772036 0.724344 1.30333
-0.721752 0.125546 0.08229
-0.762924 0.299108 -0.49514
-0.000132051 0.121066 -0.519127
-0.856793 0.390892 0.69743
3.55614e-07 0.121056 0.682937
-0.788894 0.573768 0.12
-3.04116e-06 0.866104 -0.471667
6.36417e-06 0.944423 0.711667
0.721937 0.125361 0.08152
0.763037 0.299199 -0.495653
0.857507 0.390879 0.697173
0.788902 0.57372 0.12
-0.771571 0.265479 -1.09143
-0.79622 0.345 0.101145
-0.866231 0.436959 1.29372
-6.60257e-05 0.0932407 -1.12016
-6.58479e-05 0.121142 0.081905
1.77807e-07 0.139722 1.28397
0 0.23182 -1.90707
0 0.483026 1.99947
-1.52058e-06 0.654659 -1.06333
1.66151e-06 0.973642 0.12
3.18209e-06 0.782218 1.30333
0.769182 0.265496 -1.09207
0.796137 0.345039 0.10076
0.866237 0.436953 1.29359
-0.977605 0.134582 -1.71939
-0.61479 0.0566269 -1.73257
-0.608535 0.0983147 -2.19574
-1.06596 0.238852 1.8823
-0.712864 0.118918 1.87869
-0.703919 0.280289 2.36111
-1.13062 0.344503 -1.65758
-0.729818 0.29838 -2.13283
-0.775693 0.595327 -1.62144
-1.05976 0.720111 1.89598
-0.697327 0.758056 2.37386
-0.732335 1.07027 1.91978
0.638024 0.0566534 -1.73396
0.671433 0.0983094 -2.19699
0.978125 0.134597 -1.72113
0.703496 0.118921 1.8786
0.704103 0.280291 2.36106
1.06933 0.238857 1.88212
0.785409 0.298295 -2.13306
0.76056 0.595252 -1.62158
1.1262 0.344393 -1.65801
0.693305 0.758057 2.37382
0.690205 1.07027 1.9197
1.06015 0.720112 1.89586
-1.06484 0.125517 -0.519158
-0.691139 0.0212234 -0.529481
-1.12072 0.135526 0.681889
-0.74773 0.0104163 0.67555
-1.14323 0.492206 -0.472907
-0.779315 0.773955 -0.440273
-1.15369 0.650891 0.711111
-0.787392 0.969424 0.738549
0.706615 0.0214425 -0.530456
1.06105 0.125762 -0.520414
0.749816 0.0104331 0.675037
1.12184 0.135559 0.681204
0.756156 0.773902 -0.440385
1.13588 0.492161 -0.473232
0.755121 0.969407 0.738456
1.1519 0.650885 0.710903
-1.33324 -0.0777123 -2.21968
-1.33059 -0.029924 -2.68357
-0.971691 -0.0998745 -2.69751
-1.37712 -0.0595696 -1.14146
-1.34513 0.0374547 -1.73049
-0.98232 -0.0405001 -1.74367
-1.44243 -0.0775138 0.0627145
-1.42346 0.0316122 -0.53
-1.04976 -0.0726818 -0.540323
-1.45955 -0.0466511 1.26704
-1.47794 0.031206 0.673156
-1.10495 -0.093904 0.666817
-1.44379 0.0316284 2.34619
-1.44038 0.112272 1.87398
-1.08728 -0.00766202 1.87037
-1.44192 0.109385 3.30042
-1.43388 0.191484 2.82951
-1.07848 0.0721647 2.82536
-1.44292 0.266104 3.78266
-1.08329 0.147472 3.77759
-1.34248 0.085243 -2.19438
-1.37372 0.172231 -2.64159
-0.973411 0.048976 -2.67073
-1.39147 0.128636 -1.11903
-1.41323 0.247235 -1.68926
-1.45897 0.140332 0.0804415
-1.47003 0.318615 -0.496925
-1.45877 0.190129 1.28009
-1.50145 0.395525 0.69557
-1.43047 0.272127 2.35731
-1.43342 0.475937 1.88828
-1.43487 0.348203 3.31175
-1.43059 0.551613 2.84409
-1.06843 0.313564 2.83612
-1.44488 0.622746 3.79906
-1.08005 0.385616 3.78904
-1.44447 0.334224 -2.13647
-1.44519 0.546208 -2.57646
-1.04366 0.288101 -2.61171
-1.49178 0.437214 -1.06716
-1.49337 0.631341 -1.6252
-1.51251 0.573808 0.118203
-1.51813 0.790581 -0.442203
-1.47611 0.681333 1.30376
-1.52411 0.959066 0.738141
-1.43354 0.755423 2.37507
-1.47406 1.06505 1.92146
-1.44059 0.826156 3.33141
-1.46579 1.13915 2.8748
-1.07111 0.793368 2.85294
-1.47153 1.20649 3.83025
-1.08702 0.862034 3.80957
-1.49409 0.843325 -2.06519
-1.10758 0.784865 -2.5391
-1.51971 0.984709 -1.00024
-1.13844 0.882165 -1.58905
-1.52973 1.17584 0.177735
-1.15421 1.07233 -0.409568
-1.52206 1.34279 1.35584
-1.15781 1.2776 0.76558
-1.50631 1.44878 2.4212
-1.14663 1.41521 1.94526
-1.49672 1.51948 3.37364
-1.13395 1.48978 2.89573
-1.12979 1.55462 3.85031
-0.62077 -0.0626623 -2.22151
-0.614515 -0.0209745 -2.68467
0.0556375 -0.0935711 -2.69878
-0.654959 -0.0536122 -1.14254
0.0232335 -0.0317197 -1.74534
-0.712283 -0.089072 0.0637789
0.0156079 -0.0753914 -0.54081
-0.732679 -0.054915 1.27014
0.00208589 -0.102648 0.66765
-0.721974 0.0328743 2.34954
-0.00936773 -0.00716122 1.87229
-0.719844 0.110252 3.30252
-0.713029 0.194245 2.83197
-0.00297132 0.0729169 2.82662
-0.72042 0.266984 3.78397
-0.00271077 0.147597 3.77824
-0.643353 0.164846 -2.64086
0.0628974 0.0516241 -2.67154
-0.713605 0.350977 3.31341
-0.708948 0.555318 2.84497
0.000184777 0.31558 2.83717
-0.722191 0.624904 3.79954
-0.00221681 0.386381 3.78951
-0.706054 0.526758 -2.57436
0.0555911 0.278034 -2.61089
-0.717535 0.829245 3.3311
-0.739269 1.14401 2.87387
-0.00402251 0.795061 2.85267
-0.745283 1.21017 3.82963
-0.0086727 0.863433 3.8094
-0.751928 0.823705 -2.06297
0.00523316 0.775439 -2.53824
-0.772937 0.969787 -0.998378
-0.0151327 0.871938 -1.58802
-0.782294 1.17409 0.178277
-0.0231566 1.06761 -0.408991
-0.782384 1.35002 1.355
-0.0322777 1.28056 0.765339
-0.774277 1.45622 2.4198
-0.0421297 1.41948 1.94448
-0.767017 1.52493 3.37241
-0.0392328 1.49295 2.89494
-0.0372962 1.55692 3.84969
0.699641 -0.0626285 -2.22262
0.73305 -0.0209725 -2.68565
1.07262 -0.0998495 -2.69889
0.693801 -0.0534988 -1.14362
1.02006 -0.0404253 -1.74527
0.729976 -0.0889678 0.0630607
1.07182 -0.0724822 -0.541567
0.725398 -0.0548947 1.2698
1.10942 -0.0938437 0.666084
0.709635 0.0328814 2.34937
1.07594 -0.00764773 1.87004
0.714162 0.110262 3.30234
0.710242 0.194251 2.83183
1.07459 0.0721791 2.82507
0.715492 0.266994 3.78378
1.07818 0.14749 3.77726
0.761841 0.164813 -2.64157
1.08028 0.0489676 -2.67205
0.711573 0.350984 3.31327
0.70511 0.555322 2.84488
1.07023 0.313573 2.8359
0.711302 0.624911 3.79937
1.07556 0.38563 3.78875
0.766878 0.526715 -2.57477
1.13468 0.288036 -2.61248
0.704839 0.829249 3.33098
0.696014 1.14401 2.87374
1.06358 0.793373 2.85277
0.699314 1.21018 3.82945
1.06931 0.862044 3.80931
0.742029 0.823672 -2.06329
1.11562 0.784824 -2.53967
0.734648 0.969758 -0.998632
1.10731 0.88212 -1.58951
0.72686 1.17407 0.178072
1.10673 1.0723 -0.409941
0.707977 1.35002 1.35482
1.09478 1.27759 0.765272
0.692914 1.45622 2.41962
1.06677 1.41521 1.94499
0.690489 1.52494 3.37222
1.05769 1.48979 2.89545
1.05573 1.55463 3.85
1.39304 -0.0776463 -2.22155
1.41985 -0.0299094 -2.6853
1.39808 -0.0594088 -1.14323
1.36016 0.0375181 -1.73245
1.45127 -0.0773582 0.0614561
1.42626 0.0318369 -0.531525
1.45996 -0.0465967 1.26632
1.48144 0.0312819 0.672251
1.44089 0.03165 2.34573
1.44178 0.112288 1.87355
1.4386 0.109407 3.29999
1.43457 0.191501 2.82914
1.43825 0.266126 3.78223
1.38697 0.0852551 -2.1962
1.45312 0.172191 -2.64296
1.38833 0.128764 -1.12074
1.40932 0.247198 -1.69066
1.45643 0.140477 0.0792699
1.45902 0.318724 -0.497993
1.46326 0.190167 1.27948
1.50078 0.395564 0.694933
1.43546 0.272139 2.35696
1.43719 0.475943 1.88798
1.43422 0.348219 3.31138
1.4287 0.551624 2.8438
1.43357 0.622762 3.79868
1.47547 0.334134 -2.13742
[...]
POINT_DATA 29498
VECTORS point_vectors float
-3.23654 -5.83576 9.30983
-0.167064 0.177702 0.537996
-6.56271 -0.2179 18.7395
0.0471114 -0.274316 1.24604
3.82455 -5.38878 8.48197
0.158067 0.19478 0.566771
6.60045 -0.220052 18.782
-0.0984187 -0.168757 1.232
0.000779815 0.00333318 0.0805129
-7.30663e-05 7.02774e-06 0.00257931
0.00067408 0.00167282 0.137387
-0.00123936 0.0147055 0.107002
-0.00132115 0.00350579 0.0755469
8.62322e-05 1.4936e-05 0.00307495
-0.000769612 0.00224321 0.13802
0.00134312 0.0151764 0.110818
-0.531786 -0.178865 19.7608
-1.25747 -0.54161 20.1238
-0.594941 -0.422528 20.9771
-0.14176 -0.203943 21.1305
0.531517 0.0894714 21.0715
0.774301 0.0991824 20.7604
0.662735 -0.0634618 20.4703
-0.588849 -0.149732 19.715
-1.42551 -0.404763 20.0934
-0.730176 -0.386859 21.0014
-0.226984 -0.215469 21.1728
0.627877 -0.0339642 21.1556
0.859992 -0.036954 20.7968
0.691142 -0.197609 20.7112
-0.630479 -0.0402102 19.7171
-1.3313 -0.100088 20.1617
-0.869232 -0.172664 20.9658
-0.304905 -0.0909499 21.1932
0.525835 -0.268126 21.1357
0.687816 -0.366731 20.7695
0.54203 -0.257003 20.3343
-0.601721 0.169794 19.7884
-1.12533 0.321234 20.1897
-0.837093 0.196809 20.8733
-0.221583 0.00582235 21.095
0.203833 -0.253888 20.9616
0.286 -0.317244 20.802
0.232027 -0.294477 20.7163
-0.509154 -0.452582 19.1474
-2.35576 -4.04855 19.8195
-0.0364306 -0.12864 18.3745
0.477726 -0.210958 18.2439
0.536293 1.28557 14.9886
0.945526 1.40161 14.4296
0.898216 0.759901 14.7876
-0.577701 -0.387181 19.0179
1.2486 0.973615 7.73862
1.20359 0.451221 11.4993
-0.738977 -0.141647 18.8795
1.09507 -0.919336 12.8757
0.627081 -0.906927 16.1883
-0.767307 0.495434 19.0456
-2.42195 2.12076 19.4942
-2.11889 1.28143 21.4162
-0.285919 0.224904 21.6172
0.168791 -0.515515 21.1467
0.255548 -0.656442 20.7331
0.177838 -0.55099 20.1167
0.569869 -0.391586 19.2607
2.47729 -3.69738 19.776
0.0187901 -0.159885 18.7481
-0.473487 -0.22568 18.3655
-0.513742 1.29927 14.7758
-0.965311 1.4118 14.4384
-0.908428 0.779776 14.8037
0.645221 -0.31956 19.1575
-1.26501 0.987267 7.85526
-1.23265 0.466034 11.4149
0.780376 -0.129234 19.0208
-1.07605 -0.914133 12.6472
-0.622102 -0.929505 16.164
0.772672 0.490905 19.0596
2.44198 2.28599 19.4469
2.2018 1.47872 21.4539
0.268889 0.235729 21.6855
-0.142707 -0.546677 21.1938
-0.219161 -0.678507 20.788
-0.137324 -0.53017 20.3507
0.502308 -0.158041 19.815
1.20859 -0.516441 20.1387
0.594634 -0.413321 20.9649
0.14317 -0.20188 21.1269
-0.534413 0.0849694 21.0807
-0.783265 0.113578 20.7508
-0.669915 -0.0594594 20.4356
0.548509 -0.126187 19.7776
1.43128 -0.408752 20.0975
0.730193 -0.398117 21.0092
0.22831 -0.217052 21.1732
-0.6204 -0.0366847 21.1464
-0.856866 -0.0405847 20.7871
-0.698789 -0.195172 20.6891
0.610459 -0.0290471 19.7699
1.34902 -0.104492 20.1599
0.885363 -0.184762 20.9739
0.308379 -0.0916314 21.1966
-0.523597 -0.267424 21.1319
-0.691922 -0.373772 20.774
-0.569545 -0.257171 20.2883
0.599113 0.166787 19.7913
1.166 0.350147 20.1789
0.885641 0.237406 20.8988
0.236875 0.0236836 21.1275
-0.211984 -0.27243 20.9918
-0.305873 -0.356777 20.7783
-0.229521 -0.318398 20.7512
-0.698956 -0.652421 1.21461
-6.03147e-07 -0.000129249 0.00114459
-0.0131043 -0.0910504 0.79817
0 0 0
0.000390518 -0.0134356 -0.00919707
0.00879491 0.0173776 0.539713
-2.61443e-05 0.083552 0.174043
-0.109493 -0.091137 0.911704
0.00286731 0.132705 0.117787
0.0472212 0.0261233 0.565815
0.67329 -0.631862 1.16305
0.0115863 -0.101216 0.818853
0 0 0
-0.00864332 0.0162213 0.504198
0.0683992 -0.0591417 0.612653
-0.0469833 0.0258456 0.563555
0.0471473 0.0371007 1.23249
0 0 0
7.07995e-07 1.13019e-05 0.000192952
0.0663562 -0.285484 1.26747
-1.29298e-07 2.99349e-07 0.000225398
0.00181694 0.0561986 0.351291
-3.38884e-05 0.0335709 0.10868
7.24e-05 -0.0330211 0.133194
-0.0424048 0.0394806 1.25199
0 0 0
-0.0749574 -0.285438 1.30739
-0.00209547 0.0568156 0.356033
0 0 0
-0.0189319 0.0186784 0.484192
0 0 0
-2.39099e-08 -2.48241e-06 5.82776e-05
-9.18253e-07 -6.64457e-08 -0.000148624
-2.65079e-07 3.39461e-05 0.00109974
-0.0010719 -0.627179 0.610051
0.000902313 0.105351 -0.305087
0 0 0
-1.94101e-06 0.00116518 0.0283506
0 0 0
0 0 0
0.0165256 0.0164123 0.472796
0 0 0
-2.83368 -1.1852 19.688
-3.63469 -6.24797 19.8419
-1.71502 -1.20685 17.9527
1.23358 0.219638 18.64
0.0217194 1.1454 7.15183
0.434405 0.94335 5.02334
-2.44467 -0.261078 19.9298
-2.30315 -0.29235 17.8449
-4.39094 2.04876 18.9389
0.967482 -0.461468 20.0502
0.576373 -0.696697 8.6692
0.502946 -0.748699 20.0054
3.75331 -6.02011 19.8721
1.74303 -1.07755 18.1253
2.83725 -1.19545 19.6971
-0.03006 1.17488 7.04504
-0.440086 0.985337 5.15583
-1.21651 0.240732 18.7008
2.20801 -0.335053 18.1817
4.5017 2.20751 18.8775
2.46963 -0.26961 19.9251
-0.556513 -0.690453 8.50996
-0.528752 -0.741319 19.4096
-0.96944 -0.464227 20.0432
-0.601893 -0.786908 21.1723
0.109676 0.232233 10.9609
-0.46014 -0.473662 20.9988
0.881696 -0.385972 12.9921
-1.2894 -0.521327 21.339
-2.34371 -0.213898 16.6841
-0.564051 -0.0597789 21.3308
-0.0465592 0.413998 19.6537
-0.141819 0.218217 11.4985
0.603829 -0.799154 21.2297
-0.907419 -0.420615 13.1128
0.484728 -0.489124 21.0246
2.28 -0.203541 15.5782
1.30176 -0.54367 21.3091
-0.110359 0.487741 18.8795
0.564564 -0.0560664 21.3129
-0.88279 -0.356263 19.799
-0.558175 -0.166321 19.7368
-0.578775 -0.297479 19.5083
-1.05012 -0.576151 20.7601
-1.34836 -0.483115 20.1108
-1.97869 -1.39477 19.9224
-0.343564 -0.307569 21.0082
-0.654322 -0.404442 20.985
-0.468135 -0.652979 21.2658
0.18809 -0.0541202 21.2091
-0.195448 -0.217957 21.1445
-0.115605 -0.442616 21.3122
0.719688 0.139052 20.8874
0.587928 0.0354069 21.1132
0.94433 0.432872 20.6581
0.772343 0.00791132 20.8105
0.831379 0.0298551 20.8108
1.23138 0.490637 20.0021
0.653803 -0.143323 20.6784
0.945901 0.207484 19.7454
-0.997278 -0.267276 19.7483
-0.615731 -0.0937242 19.7047
-0.652694 -0.24814 19.409
-1.22107 -0.469497 20.772
-1.39414 -0.245146 20.13
-0.444714 -0.298034 21.0329
-0.825405 -0.305247 20.9979
0.191598 -0.115625 21.2799
-0.287549 -0.161914 21.1992
0.823506 -0.0149371 20.9297
0.610349 -0.173918 21.1639
0.80008 -0.138168 20.8974
0.835652 -0.240851 20.7209
1.43128 0.200089 18.8823
0.658711 -0.203572 20.6166
0.982773 -0.0960149 19.0868
-1.00938 -0.0672624 19.8085
-0.630703 0.0798203 19.7425
-0.762191 -0.0862677 19.3829
-1.2373 -0.15555 20.7107
-1.27122 0.150293 20.1742
-0.592635 -0.125543 21.0731
-0.928087 0.0236291 20.9399
0.0965616 -0.152101 21.27
-0.290664 -0.0179846 21.1478
0.66361 -0.341994 20.9012
0.324012 -0.290828 21.0156
0.611894 -0.341479 20.7502
0.462266 -0.386496 20.7026
1.10057 -0.670691 20.0585
0.356366 -0.323821 20.1748
0.65256 -0.475157 19.4879
-0.904133 0.262619 19.8966
-0.708469 0.281873 19.4968
-1.08091 0.29221 20.6121
-1.75293 0.805133 19.9901
-0.540931 0.117545 21.0389
-1.30354 0.443951 21.0903
0.0154036 -0.130532 21.0704
-0.29075 0.107355 21.3037
0.260703 -0.32372 20.8296
0.22992 -0.380236 21.0343
0.291258 -0.291908 20.4854
0.328336 -0.482098 20.7213
0.28896 -0.40755 20.3114
-1.24832 -1.32128 18.636
-0.540418 -0.439279 19.0734
0.0517538 -0.600668 18.8655
-0.503795 -1.54667 19.576
0.0305431 -5.27828 21.3243
0.115307 -0.111147 17.6224
0.000811492 -0.181103 15.5029
0.484542 0.517321 16.1998
-0.00519692 -0.0114814 15.107
0.61613 1.41498 14.5338
0.00167234 0.696136 10.7416
1.18544 1.21564 14.8256
1.08707 1.2986 10.8784
0.00177086 0.703817 8.79245
1.07976 0.600658 12.2688
0.0176947 0.652559 9.23299
-0.675034 -0.261231 18.9298
0.0877658 -0.513545 18.5944
1.54194 0.880024 10.6945
1.35762 -0.0847434 6.85001
-0.000297793 -0.10893 -0.821578
1.05529 -0.222266 12.6474
-0.018027 -0.131397 2.12701
-0.821456 0.18427 18.8704
0.0783327 -0.214715 18.1769
1.30111 -1.1064 15.6219
0.532197 -0.946749 20.3018
0.000971315 -0.478993 3.3132
0.356679 -0.697308 19.8466
0.0257145 -0.578575 9.67224
-1.58186 1.2044 18.8084
0.00781213 0.785519 18.4034
-2.48676 1.81889 20.658
-0.073831 4.63316 18.8803
-1.03518 0.720227 21.7069
-0.124916 4.47565 20.3643
0.0467118 -0.234524 21.3861
-0.0106902 0.194995 21.6127
0.240793 -0.632239 20.9127
0.00109857 -0.572074 21.2974
0.252042 -0.623556 20.6302
0.0140687 -0.777023 20.9181
0.00454694 -0.367616 20.5726
1.2882 -1.17392 18.8069
0.609058 -0.372763 19.2018
0.579974 -0.267695 19.5605
0.620691 -1.70818 20.5934
1.86959 -1.22506 19.943
-0.115305 -0.127979 18.0191
0.490494 -0.64418 21.2448
-0.478263 0.533833 16.2101
0.121932 -0.450434 21.3285
-0.636307 1.41899 14.4964
-0.942024 0.441878 20.6077
-1.18181 1.22031 14.8892
-1.1126 1.31695 10.9717
-1.23984 0.502557 19.9515
-1.09471 0.623049 12.2863
-0.949316 0.222775 19.737
0.702124 -0.22533 19.0857
0.639506 -0.219895 19.5161
-1.5523 0.87726 10.6761
-1.34533 -0.0841236 6.73861
-1.43567 0.185398 18.9103
-1.08808 -0.215214 12.3663
-0.979113 -0.0917282 19.0674
0.865973 0.166007 18.9602
0.730021 -0.0754324 19.4782
-1.2755 -1.11616 15.5728
-0.538221 -0.981194 20.274
-1.11238 -0.678847 20.0381
-0.352768 -0.724285 19.7584
-0.648776 -0.501825 19.3392
1.58264 1.22935 18.7922
0.707628 0.279926 19.5032
2.53733 2.01075 20.6256
1.82291 0.874597 19.9666
1.06718 0.815663 21.7763
1.40035 0.505722 21.122
-0.0442134 -0.252644 21.4179
0.296056 0.123113 21.3449
-0.208698 -0.668291 20.921
-0.223138 -0.411166 21.0536
-0.193636 -0.656066 20.6622
-0.311542 -0.510612 20.7332
-0.32051 -0.43395 20.0958
0.839177 -0.319723 19.852
0.522206 -0.143824 19.7981
1.01992 -0.548107 20.7429
1.32808 -0.474564 20.1221
0.346448 -0.302857 21.0049
0.656194 -0.404334 20.9815
-0.185523 -0.0586179 21.2029
0.197922 -0.218622 21.1424
-0.723199 0.143585 20.8895
-0.588079 0.0308738 21.1136
-0.776285 0.00658895 20.8138
-0.833623 0.0310156 20.8036
-0.665288 -0.141343 20.6509
0.947182 -0.238197 19.798
0.589573 -0.0821019 19.7668
1.2274 -0.480842 20.777
1.4079 -0.251081 20.1314
0.444841 -0.3031 21.0378
0.832643 -0.320786 21.0049
-0.189788 -0.114982 21.2751
0.290419 -0.164489 21.2005
-0.81657 -0.0214552 20.924
-0.604188 -0.171684 21.1523
-0.801677 -0.140985 20.892
-0.837791 -0.243272 20.722
-0.678796 -0.206938 20.593
0.986542 -0.0601579 19.8352
0.609834 0.0727162 19.7689
1.26156 -0.170037 20.7157
1.31092 0.160661 20.1605
0.602654 -0.13033 21.0761
0.956917 0.0247111 20.9563
-0.0956333 -0.152305 21.2704
0.305365 -0.0126811 21.1728
-0.66577 -0.345531 20.901
-0.341094 -0.311019 21.0351
-0.615024 -0.344917 20.7729
-0.470129 -0.405164 20.7181
-0.399711 -0.368573 20.2312
0.916159 0.270465 19.8857
1.13809 0.320776 20.6188
0.569323 0.144581 21.0671
-0.0176614 -0.128568 21.0962
-0.278615 -0.351731 20.8433
-0.302284 -0.346887 20.3927
-0.941258 -0.31258 19.779
-1.47612 -1.3087 18.3129
-1.15444 -0.720352 19.3882
-1.45396 -0.579585 19.1287
-0.617123 -0.282384 19.4596
-2.4272 -1.36121 19.791
-1.13213 -0.522067 20.7665
-0.191919 -0.901057 12.7658
-1.34239 -1.22885 21.178
-1.84304 -1.21163 21.3496
-0.525889 -0.72515 21.3238
-0.395952 -0.30861 21.0199
0.200424 0.0562064 11.4839
-0.216223 -0.475907 21.1081
-0.356842 -0.593712 20.7669
-0.282266 -0.526638 21.1807
0.186081 -0.0922926 21.2531
0.259677 0.35755 9.05834
0.424701 -0.00102076 21.2461
0.390886 -0.151144 20.1127
1.12282 0.362467 19.817
0.779067 0.0549817 20.918
0.527937 1.30116 9.36178
1.13297 0.512477 20.4589
1.40665 0.196458 18.9682
1.40467 0.363271 19.125
0.797882 -0.0830249 20.7304
1.42306 1.25805 12.4914
1.11497 0.395324 19.6887
1.27338 0.114441 18.0801
0.926423 0.0494895 19.233
-1.01244 -0.161174 19.7779
-2.13553 -0.865214 17.704
-1.58447 -0.173861 19.2794
-0.707759 -0.159767 19.39
-2.8344 -0.693722 19.8273
-1.27232 -0.31257 20.7485
-2.0944 -0.40982 21.0803
-0.971089 -0.765882 21.3908
-0.543668 -0.236616 21.0621
-0.911797 -0.281625 21.2835
-0.554192 -0.246496 21.1046
0.13966 -0.159785 21.2929
0.0772077 -0.0870088 20.9698
1.19972 -0.0951628 18.0527
0.785282 -0.207295 20.9084
0.299589 0.0871161 2.32934
1.06601 -0.582534 20.2542
1.37223 -0.301444 18.7282
0.708593 -0.238245 21.0578
1.50042 -0.227624 12.009
0.890065 -0.644076 19.4286
0.946457 -0.254576 18.8023
-0.98574 0.131827 19.8419
-2.17341 0.802635 18.1409
-1.28272 0.583587 19.5163
-0.786305 0.123694 19.3786
-2.28592 0.429215 19.9157
-1.23879 0.0931675 20.6684
-3.59086 0.4662 18.7634
-1.69556 0.701605 20.6936
-1.51676 -0.00409361 21.2159
-0.610166 0.0229731 21.0764
-0.975189 0.356445 18.3819
-0.778219 0.30978 21.2702
-0.415014 0.0726021 21.4233
0.036614 -0.137035 21.1668
0.441291 -0.227323 20.2049
0.0429298 -0.164109 21.2158
0.430218 -0.540247 21.177
0.432055 -0.361191 20.8369
0.501642 -0.906086 20.3671
0.286905 -0.469822 20.8679
0.526217 -0.667243 20.8696
0.413704 -0.417792 20.5019
0.514154 -0.820282 19.6599
0.287636 -0.48271 20.5567
0.449091 -0.537868 20.6251
1.50771 -1.18718 18.4915
0.104922 -2.25372 17.7205
0.11549 -2.40419 16.1337
0.0655261 -0.568326 18.7239
-0.0964508 -4.03458 18.9709
0.264461 -1.06621 13.3382
0.0125034 -1.31207 17.7413
-0.00667739 0.202394 7.35792
-0.183142 0.054219 11.8488
-0.00764993 -0.151549 14.8086
-0.00340061 0.0349004 8.57289
-0.256082 0.355842 9.00264
-0.000673823 0.358695 12.5976
0.00557391 0.348958 3.19123
-0.576819 1.34197 9.46765
-0.00444504 0.552056 9.81061
-0.00787332 -0.435225 -1.26208
0.00166205 0.227379 2.96561
-1.43523 1.23827 12.5067
-0.0023336 1.06028 9.0224
-0.0235025 0.428256 1.08409
0.00340479 0.132506 5.59406
2.11577 -0.807527 17.9809
0.190937 -0.0850538 13.914
0.0855265 -0.364912 18.3581
-0.305193 0.0975438 2.31132
-0.00334121 0.0153348 1.19538
-0.00849452 -0.365508 -2.54435
-1.49237 -0.214394 11.7155
0.01558 -1.18326 6.44962
-0.00607663 -0.26837 2.19899
2.16857 0.743905 18.2332
-0.0144649 2.72508 17.5553
0.043141 0.345123 18.0926
-0.0369785 6.50545 16.7306
3.39716 0.319277 17.1114
-0.0909804 4.19145 19.819
0 0 0
0.73982 0.483579 17.1283
-0.0602069 1.69482 21.2062
0.0409061 -0.392263 8.08189
-0.568268 -0.197764 19.4389
0.000775159 -0.37638 21.3074
0.0290908 -0.715111 13.4616
-0.495352 -0.926223 20.2939
0.00684329 -0.705575 21.1019
0.0200747 -1.09192 16.8805
-0.457597 -0.84355 19.5043
0.0211925 -0.794137 20.4988
0.0266308 -0.793172 18.6989
0.893179 -0.27896 19.825
1.10824 -0.618607 19.4791
1.37627 -0.52301 19.2533
0.613495 -0.256648 19.5297
2.3494 -1.30499 19.8265
1.12279 -0.515515 20.7597
1.32532 -1.15006 21.1207
1.83576 -1.19672 21.3386
0.534065 -0.720284 21.3121
0.395851 -0.308413 21.023
0.225834 -0.47981 21.123
0.361505 -0.599501 20.7585
0.288884 -0.537109 21.2089
-0.181348 -0.0955241 21.2443
-0.43531 -0.00353047 21.2375
-0.380973 -0.163261 20.1538
-1.08047 0.376515 19.6889
-0.778381 0.0555962 20.9166
-1.15493 0.537205 20.4477
-1.39433 0.17673 19.0128
-1.4118 0.351951 19.0968
-0.798045 -0.0835465 20.7333
-1.13412 0.40944 19.6183
-1.27828 0.11073 18.0718
-0.925087 0.0595898 19.2284
0.976778 -0.150577 19.8123
1.4978 -0.149011 19.3652
0.699628 -0.132187 19.4868
2.85045 -0.69593 19.8362
1.28441 -0.324108 20.7548
2.1064 -0.423162 21.0904
0.972965 -0.782657 21.3046
0.548905 -0.244249 21.0653
0.91614 -0.291282 21.2299
0.564325 -0.24145 21.1078
-0.137491 -0.159103 21.2891
-0.0759014 -0.0874704 20.98
-1.20046 -0.0924067 18.133
-0.782527 -0.207317 20.9045
-1.07148 -0.586582 20.2433
-1.36837 -0.30233 18.7037
-0.71292 -0.24444 21.0495
-0.905266 -0.663558 19.2747
-0.942725 -0.279246 18.7051
0.977773 0.125317 19.8477
1.29924 0.596895 19.4988
0.774197 0.11792 19.4365
2.37673 0.458131 19.9085
1.27972 0.100322 20.6775
1.76112 0.767792 20.6953
1.59824 0.00167203 21.2509
0.633237 0.023455 21.0916
0.809604 0.343001 21.3153
0.425616 0.0862638 21.4506
-0.0467075 -0.144188 21.1919
-0.0486462 -0.176531 21.2527
-0.4268 -0.58011 21.2014
-0.449409 -0.386963 20.846
-0.280467 -0.500591 20.8765
-0.526309 -0.70161 20.8632
-0.425795 -0.435497 20.4537
-0.276815 -0.497279 20.7059
-0.43006 -0.550859 20.6431
-1.31245 -0.656123 19.2684
-1.5745 -1.26247 21.2707
-0.268931 -0.547422 20.9858
0.441546 -0.0928211 20.8461
1.31841 0.377025 19.4045
1.1865 0.391574 18.0922
-1.56554 -0.373026 19.1875
-2.02367 -0.807916 21.2365
-0.682999 -0.528981 21.0264
0.149122 -0.191192 20.2769
1.35927 -0.210003 18.7124
1.24146 -0.302487 18.5553
-1.55082 0.281853 19.3212
-2.09153 0.233111 20.8794
-0.953533 0.082882 21.3538
0.0894807 -0.18231 21.4299
0.522856 -0.647926 20.9369
0.453052 -0.587674 20.5751
0.116881 -2.38945 17.0576
0.00904131 -0.480494 9.51504
-0.00745989 -0.0195193 7.76464
-0.00154481 0.204469 5.96877
-0.0137946 -0.0796779 3.18834
-0.0235176 1.01063 4.20819
0.135824 -1.58979 15.1956
-0.0119809 -0.110926 -3.37679
-0.00496068 -0.747145 -0.413983
0.0599151 2.75783 15.4578
0.0124656 1.29165 7.1046
0 0 0
0.0372989 -0.685675 10.6769
0.0185185 -0.898513 15.8137
0.0118897 -0.946688 18.1658
1.2392 -0.590265 19.4073
1.55286 -1.20601 21.2223
0.275886 -0.548039 21.0025
-0.447989 -0.10256 20.7753
-1.32656 0.377132 19.3462
-1.20015 0.391741 18.0674
1.49815 -0.322985 19.2976
2.02669 -0.822531 21.2379
0.682184 -0.532912 20.9227
-0.147353 -0.189232 20.3201
-1.36156 -0.210429 18.7301
-1.24694 -0.316561 18.4713
1.52375 0.272084 19.3536
2.16403 0.261499 20.8827
0.983098 0.0847251 21.3345
-0.100505 -0.186437 21.4455
-0.515689 -0.687061 20.9467
-0.446216 -0.606079 20.6421
-2.66139 -1.09817 2.91387
0 0 0
0 0 0
-0.115662 0.0426413 0.124249
0 0 0
0.0521819 0.109336 0.874637
0 0 0
-0.0811032 0.207833 0.383196
-0.742216 -0.189664 2.10967
-0.0428752 0.0261973 -0.0189562
-0.0342794 -0.0189715 0.0819448
-0.01092 -0.0309063 0.220463
0 0 0
3.76558 -1.74825 4.18616
0 0 0
0 0 0
0.108299 0.0456572 0.132032
-0.0587879 0.12014 0.945701
0.0832938 0.210512 0.39184
0 0 0
0.88038 -0.221234 2.6233
0.0270389 -0.0172946 0.0720316
0.0425742 0.0251696 -0.0184618
0.0111673 -0.0310848 0.220763
0.0111737 -0.0195024 0.272496
0.0247846 -0.0230373 0.418477
0 0 0
0 0 0
0.000111406 0.0096163 0.129937
0 0 0
0.00512956 -0.00537369 0.0228492
0 0 0
-0.0223856 -0.0289099 0.283756
0 0 0
-0.00515043 0.0206636 0.250627
-0.0334244 0.0180837 0.105928
0.0763584 0.142524 0.90595
-0.00359099 0.00114719 0.0537778
0.0203176 0.0453683 0.199965
0.0573308 -0.00637053 0.165333
-0.00307046 -0.00391841 0.231548
0 0 0
-0.0228777 -0.0242886 0.465547
0 0 0
-0.000376227 0.0158621 0.211566
0 0 0
0 0 0
-0.0408452 -0.0609472 0.292683
0.0240968 -0.0295502 0.289769
0.0366861 0.0199512 0.116438
0 0 0
0.0051807 0.0206054 0.251333
-0.0754598 0.141376 0.901138
-0.0575703 -0.00636759 0.164605
0.00350647 0.00118789 0.0525495
-0.0201268 0.045068 0.198899
-0.100897 -0.0801118 0.351315
-0.374726 -1.34704 1.24251
0 0 0
0 0 0
0 0 0
1.30063e-06 -4.62341e-06 9.85444e-05
0.0186799 0.0103399 0.217527
-0.230611 0.0316979 -0.0261855
8.04187e-05 0.00783699 0.0713732
0 0 0
0 0 0
0 0 0
-0.0088172 2.25856 3.39929
7.53091e-05 0.0215618 0.0504963
-0.0344678 -0.0609102 0.674614
-0.0465273 0.0654211 0.302453
0 0 0
0 0 0
-6.14263e-05 0.000351962 0.00988942
0.00988246 -0.0158126 0.204074
0.191266 -0.374498 0.433801
0 0 0
-1.93184e-06 -4.95482e-06 0.000105676
0.0232231 -0.0135562 0.288847
0.217835 0.0301895 -0.0192976
-0.0192661 0.0107714 0.223197
0 0 0
0 0 0
0.0532457 0.0733023 0.345209
0.0303857 -0.0493285 0.544989
-0.00966787 -0.0160426 0.205323
6.88611e-05 0.000370647 0.0103522
0 0 0
0 0 0
1.36713e-17 1.16084e-17 -3.59224e-16
0 0 0
-2.24547e-07 6.71057e-07 0.000273294
5.6071e-08 3.80791e-08 1.11138e-05
-0.47091 0.665082 1.71893
-9.10161e-18 -1.27702e-17 1.51831e-16
2.77807e-08 -1.42443e-10 4.37176e-06
0 0 0
0 0 0
0.0540233 0.0443796 0.269774
-1.20268e-05 0.00126605 0.00354872
-1.37849e-06 0.0266384 0.150189
-3.55478e-06 -0.00178869 0.0355477
-4.34808e-05 -0.0254639 0.0981624
0 0 0
-5.3185e-18 -3.58671e-18 7.61613e-17
0 0 0
0 0 0
0.483694 0.677421 1.68545
0 0 0
-0.0539227 0.0444781 0.270121
0 0 0
-0.0142482 -0.0138245 0.0624067
-0.179947 -0.080014 0.436016
0 0 0
0 0 0
-1.68536e-18 1.57807e-17 7.93877e-17
0 0 0
0 0 0
0 0 0
-0.00613853 -0.0699517 0.289716
-0.002149 0.00172207 0.032737
0.0471155 0.022631 0.645436
0.0235843 0.000857858 0.189346
0 0 0
0 0 0
6.36735e-06 5.33919e-07 0.00049623
-8.31074e-06 4.03433e-07 0.000492092
0 0 0
0 0 0
0 0 0
0 0 0
2.16067e-05 0.000467451 0.00936278
-2.8024e-05 0.000483778 0.00968719
0 0 0
0 0 0
0 0 0
0 0 0
-2.11396 -0.743854 2.74023
3.30237 0.0191064 3.44445
-0.453243 -0.179983 -0.0277528
0.44707 -0.1763 -0.0254532
-0.0977981 0.0699549 -0.000185261