# vtk DataFile Version 2.0
tri_press
ASCII
DATASET UNSTRUCTURED_GRID
POINTS 3682 float
-0.753101 0.195 -1.965
-0.742585 0.275 1.945
-0.763727 0.585 -1.925
-0.645 0.965353 1.945
0.753097 0.195 -1.965
0.74258 0.275 1.945
0.763723 0.585 -1.925
0.645343 0.965 1.945
-0.797087 0.174175 -0.661667
-0.805261 0.189163 0.641667
-0.826091 0.813724 -0.635
-0.791701 0.945694 0.655
0.796853 0.174405 -0.661667
0.805258 0.189161 0.641667
0.826149 0.813552 -0.635
0.791814 0.945345 0.655
-1.54678 -0.186854 -3.01475
-1.55077 -0.114967 -1.97743
-1.57712 -0.125888 -0.673748
-1.56653 -0.13724 0.632614
-1.51408 -0.0836347 1.93652
-1.50437 -0.0275782 2.97495
-1.51497 0.0289536 4.01134
-1.54714 0.0809954 -2.99955
-1.55242 0.180049 -1.96368
-1.58869 0.199228 -0.662592
-1.56402 0.209508 0.639692
-1.48012 0.265163 1.94103
-1.48395 0.320366 2.97928
-1.50635 0.375545 4.01609
-1.55286 0.565626 -2.96539
-1.56402 0.660537 -1.92897
-1.6072 0.831092 -0.636975
-1.5532 0.935148 0.654075
-1.4252 0.970738 1.94632
-1.45637 1.0209 2.98512
-1.49973 1.07448 4.02409
-1.5601 1.44856 -2.92418
-1.5684 1.56697 -1.88976
-1.58363 1.76634 -0.602086
-1.57518 1.93604 0.682711
-1.54457 2.02898 1.97052
-1.53428 2.07773 3.00524
-1.54184 2.12452 4.04275
-0.76571 -0.179262 -3.01561
-0.759861 -0.102741 -1.97868
-0.785626 -0.137214 -0.673579
-0.795178 -0.152805 0.634299
-0.76606 -0.0834609 1.93946
-0.761965 -0.0280281 2.97695
-0.770486 0.0269892 4.01249
-0.766209 0.0795403 -2.99981
-0.753745 0.321483 2.98093
-0.768218 0.374163 4.01697
-0.769787 0.533699 -2.96374
-0.730955 1.01927 2.98486
-0.766949 1.07321 4.02403
-0.77247 1.42471 -2.92255
-0.776693 1.54348 -1.88796
-0.795412 1.75833 -0.601004
-0.806284 1.94104 0.682581
-0.796889 2.03355 1.96959
-0.79163 2.07982 3.00431
-0.797556 2.12544 4.04208
0.777257 -0.179264 -3.01561
0.778964 -0.102708 -1.97868
0.799942 -0.137081 -0.67358
0.792975 -0.152799 0.634299
0.748536 -0.0834888 1.93946
0.726232 -0.0281117 2.97695
0.71827 0.0268755 4.01249
0.768988 0.0795308 -2.99981
0.706381 0.321375 2.98093
0.705334 0.37403 4.01697
0.773334 0.533675 -2.96374
0.67173 1.01904 2.98486
0.687141 1.07303 4.02403
0.79731 1.42464 -2.92255
0.801587 1.54338 -1.88796
0.788692 1.75818 -0.601004
0.744068 1.94083 0.682581
0.698013 2.03332 1.96959
0.687048 2.07961 3.00431
0.686656 2.12526 4.04208
1.55672 -0.186871 -3.01475
1.56122 -0.114935 -1.97743
1.58802 -0.12578 -0.673748
1.57608 -0.137294 0.632614
1.51593 -0.0837706 1.93652
1.48389 -0.0277727 2.97495
1.4729 0.0287219 4.01134
1.54864 0.080963 -2.99955
1.54987 0.180038 -1.96368
1.5902 0.199318 -0.662592
1.57614 0.209385 0.639692
1.4932 0.264968 1.94103
1.46001 0.320122 2.97928
1.4562 0.375279 4.0161
1.55463 0.565556 -2.96539
1.56159 0.660442 -1.92897
1.60669 0.830888 -0.636975
1.55975 0.934731 0.654075
1.43036 0.970266 1.94632
1.41865 1.0205 2.98512
1.43242 1.07414 4.02409
1.58057 1.44842 -2.92418
1.58611 1.56679 -1.88976
1.5758 1.76607 -0.602087
1.52499 1.93567 0.682711
1.46316 2.02856 1.97052
1.44155 2.07733 3.00524
1.43851 2.12416 4.04275
-0.784536 0.39 -1.97112
-1.99676e-06 0.191522 -1.96848
-0.786664 0.173018 -1.31333
-0.72223 0.620177 1.97344
-2.5034e-06 0.273508 1.94649
-0.778392 0.227612 1.29333
-1.99676e-06 0.749579 -2.08958
-0.835212 0.739665 -1.28
0.000171512 1.00849 1.98831
-0.768923 1.0061 1.3
0.784537 0.39 -1.97113
0.78666 0.173018 -1.31333
0.72219 0.62 1.97323
0.778386 0.227613 1.29333
0.835235 0.739576 -1.28
0.769331 1.00593 1.3
-0.802736 0.180107 -0.00999999
-0.844339 0.49395 -0.648333
-0.00011739 0.170897 -0.661667
-0.848353 0.567428 0.648334
-1.48631e-06 0.171073 0.641667
-0.807429 0.878242 0.0100001
2.8618e-05 1.15009 -0.635
5.67514e-05 1.38754 0.655
0.803009 0.17983 -0.00999999
0.844339 0.493979 -0.648333
0.848322 0.567253 0.648334
0.807513 0.87798 0.0100001
-0.895347 0.441975 -1.29667
0.895347 0.441989 -1.29667
-5.96933e-05 0.17063 -1.31333
1.33106e-05 0.922584 -1.28
-1.99676e-06 0.39 -2.17424
-0.832615 0.530689 2.98023e-08
0.83262 0.530616 2.98023e-08
-5.94381e-05 0.170983 -0.00999999
4.26847e-05 1.37529 0.0100001
-0.895815 0.593802 1.29667
0.895818 0.593626 1.29667
-1.99485e-06 0.202336 1.29333
0.000114132 1.23444 1.3
8.45045e-05 0.620088 2.16422
-0.774773 0.2925 -1.97402
-0.376551 0.191521 -1.96848
-0.780967 0.172924 -1.63917
-0.761234 0.447588 1.98805
-0.371294 0.2735 1.9465
-0.779522 0.232273 1.61917
-0.779916 0.4875 -1.95385
-0.381865 0.700186 -2.04019
-0.837155 0.700018 -1.6025
-0.676414 0.792765 1.95202
-0.322414 1.00018 1.97991
-0.711581 0.990344 1.6225
0.376548 0.191521 -1.96848
0.774835 0.2925 -1.97408
0.780963 0.172924 -1.63917
0.371289 0.273508 1.94649
0.7612 0.4475 1.98793
0.779487 0.232303 1.61917
0.381861 0.700671 -2.04067
0.779962 0.4875 -1.9539
0.837202 0.700011 -1.6025
0.322757 1.00014 1.98005
0.67662 0.7925 1.95197
0.712031 0.990156 1.6225
-0.792077 0.173395 -0.9875
-0.80056 0.176493 -0.335833
-0.8376 0.325619 -0.655
-0.398727 0.172288 -0.661667
-0.78096 0.219254 0.9675
-0.805663 0.18297 0.315833
-0.826093 0.378652 0.645
-0.406389 0.172602 0.641667
-0.833219 0.779262 -0.9575
-0.839107 0.655783 -0.641667
-0.816733 0.845956 -0.3125
-0.469294 1.09444 -0.635
-0.781533 0.977116 0.9775
-0.823286 0.758191 0.651667
-0.798774 0.911177 0.3325
-0.492541 1.36006 0.655
0.792037 0.173431 -0.9875
0.39855 0.172287 -0.661667
0.800656 0.176392 -0.335833
0.83761 0.325685 -0.655
0.780943 0.219266 0.9675
0.406386 0.172602 0.641667
0.805961 0.182668 0.315833
0.826088 0.378558 0.645
0.833279 0.779151 -0.9575
0.469388 1.09442 -0.635
0.839111 0.655699 -0.641667
0.8168 0.845736 -0.3125
0.781831 0.976893 0.9775
0.492724 1.36002 0.655
0.823363 0.757947 0.651667
0.798872 0.91087 0.3325
-0.894494 0.415987 -1.63389
-0.392269 0.39 -2.14302
-3.0845e-05 0.170579 -1.64091
-1.99676e-06 0.290761 -2.13947
-0.893781 0.307496 -1.305
-0.393362 0.17063 -1.31333
-0.855249 0.606989 1.63505
-0.361073 0.620132 2.14227
-2.24912e-06 0.22653 1.61991
4.10005e-05 0.446798 2.18025
-0.894551 0.410707 1.295
-0.389197 0.202336 1.29333
5.65694e-06 0.856042 -1.68479
-1.99676e-06 0.56979 -2.15767
-0.895505 0.59082 -1.28833
-0.4176 0.905491 -1.28
0.000142822 1.06434 1.64416
0.000128008 0.814288 2.10032
-0.824086 0.799949 1.29833
-0.384404 1.20635 1.3
0.894494 0.415995 -1.6339
0.392268 0.39 -2.14307
0.893781 0.307504 -1.305
0.3933 0.17063 -1.31333
0.855253 0.606813 1.63495
0.361137 0.620044 2.14225
0.894553 0.41062 1.295
0.389192 0.202336 1.29333
0.895507 0.590783 -1.28833
0.417624 0.905489 -1.28
0.824183 0.799776 1.29833
0.384723 1.2063 1.3
-0.827511 0.35048 -0.00499998
-0.402946 0.172449 -0.00999999
-0.861392 0.467962 -0.9725
-0.838595 0.512319 -0.324167
-8.85416e-05 0.170849 -0.9875
-8.8414e-05 0.170945 -0.335833
-0.835965 0.549059 0.324167
-0.869853 0.580615 0.9725
-3.04622e-05 0.171041 0.315833
-1.74058e-06 0.180552 0.9675
-0.826724 0.707816 0.00500004
-0.509828 1.33903 0.0100001
2.09643e-05 0.955688 -0.9575
3.56514e-05 1.30909 -0.3125
4.97181e-05 1.38905 0.3325
8.54416e-05 1.34986 0.9775
0.827489 0.350385 -0.00499998
0.402953 0.172449 -0.00999999
0.861393 0.467984 -0.9725
0.838597 0.512297 -0.324167
0.83597 0.548934 0.324167
0.869942 0.58044 0.9725
0.826735 0.707632 0.00500004
0.509943 1.33896 0.0100001
-0.893313 0.299998 -1.63653
-0.842927 0.320779 -0.98
-0.852291 0.622329 -0.965
-0.894885 0.53916 -1.6182
0.89329 0.300002 -1.63653
0.894885 0.539141 -1.6182
0.852303 0.622274 -0.965
0.842933 0.320848 -0.98
-0.384957 0.170579 -1.64004
0.384924 0.170579 -1.64004
0.395834 0.170849 -0.9875
-0.395982 0.170849 -0.9875
-0.399732 0.83713 -1.64364
-0.415315 0.93522 -0.9575
0.415356 0.935159 -0.9575
0.399742 0.837127 -1.64364
-0.38441 0.29163 -2.0971
-0.387067 0.528645 -2.10502
0.387064 0.528645 -2.10495
0.384408 0.29163 -2.09714
-0.832486 0.338084 -0.33
-0.825241 0.365347 0.32
-0.82561 0.733306 0.328333
-0.832895 0.681789 -0.318333
0.832496 0.338062 -0.33
0.832894 0.681651 -0.318333
0.825643 0.733087 0.328333
0.825234 0.365249 0.32
-0.400836 0.172368 -0.335833
0.400751 0.172368 -0.335833
0.404668 0.172528 0.315833
-0.404666 0.172528 0.315833
-0.510056 1.25773 -0.3125
-0.505948 1.35907 0.3325
0.506101 1.35903 0.3325
0.510158 1.25768 -0.3125
-0.885199 0.394501 0.97
-0.869801 0.429148 1.62711
-0.825604 0.796357 1.62878
-0.820653 0.778255 0.975
0.8852 0.394414 0.97
0.820718 0.778037 0.975
0.825647 0.796138 1.62872
0.869641 0.42906 1.62706
-0.395914 0.180552 0.9675
0.39591 0.180552 0.9675
0.38024 0.226491 1.61954
-0.380245 0.226491 1.61954
-0.390113 1.32877 0.9775
-0.353409 1.04666 1.63333
0.35374 1.04664 1.63333
0.390329 1.32874 0.9775
-0.366183 0.447193 2.16195
0.366213 0.447149 2.16189
0.341947 0.803394 2.07396
-0.341743 0.803527 2.07386
-0.770551 0.24375 -1.97612
-0.564826 0.192778 -1.96722
-0.778038 0.172958 -1.80208
-0.75902 0.361294 1.97363
-0.556939 0.269186 1.95081
-0.766404 0.248286 1.78208
-0.775506 0.53625 -1.94311
-0.572796 0.645091 -1.98509
-0.815122 0.65719 -1.76375
-0.666225 0.879059 1.95403
-0.483707 0.988785 1.96848
-0.677475 0.977033 1.78375
0.564822 0.192777 -1.96722
0.770549 0.24375 -1.97612
0.778034 0.172958 -1.80208
0.556934 0.269212 1.95079
0.759181 0.36125 1.97376
0.766413 0.248272 1.78208
0.572792 0.645096 -1.9851
0.775511 0.53625 -1.94312
0.815106 0.657149 -1.76375
0.48405 0.988746 1.9687
0.666413 0.87875 1.95392
0.677981 0.976872 1.78375
-0.794883 0.173484 -0.824583
-0.798869 0.175289 -0.49875
-0.823674 0.246732 -0.658333
-0.598079 0.172888 -0.661667
-0.803615 0.193704 0.804583
-0.806739 0.18479 0.47875
-0.810289 0.286602 0.643333
-0.609657 0.173219 0.641667
-0.830339 0.797177 -0.79625
-0.840641 0.738775 -0.638333
-0.821337 0.829765 -0.47375
-0.681921 1.02254 -0.635
-0.78761 0.962398 0.81625
-0.81648 0.856435 0.653334
-0.794986 0.928185 0.49375
-0.650303 1.16924 0.655
0.794573 0.17379 -0.824583
0.597931 0.172887 -0.661667
0.7988 0.175353 -0.49875
0.823699 0.246812 -0.658333
0.803611 0.193703 0.804583
0.609653 0.173219 0.641667
0.807068 0.184456 0.47875
0.810293 0.286549 0.643333
0.830378 0.797016 -0.79625
0.682026 1.0225 -0.635
0.840672 0.738647 -0.638333
0.821388 0.829557 -0.47375
[...]
POINT_DATA 3682
SCALARS point_scalars float 1
LOOKUP_TABLE default
-114.188
-47.5557
-21.6096
-37.5168
-114.15
-47.427
-21.5932
-37.359
-36.0642
-34.9569
-53.3728
-45.1242
-36.243
-34.9924
-53.3559
-45.0815
-8.25641
-104.81
-36.0909
-33.5134
-49.4265
-44.9934
-38.975
-13.099
-103.839
-37.0231
-27.2725
-49.7789
-40.6589
-38.975
41.6306
-88.4329
-47.6965
-41.5608
-46.2824
-38.0852
-37.9636
-26.5898
-73.7926
-84.6099
-53.9203
-40.3278
-39.5688
-38.0523
5.36794
-144.62
-37.3844
-37.6506
-48.2416
-39.6807
-38.1997
5.36794
-38.3744
-38.1997
170.349
-36.7106
-37.5552
49.5081
-59.0249
-64.9906
-59.9148
-35.6332
-34.8981
-34.6928
5.06219
-144.235
-37.1965
-37.7594
-48.126
-39.6184
-38.1441
5.06219
-38.3259
-38.1441
169.624
-36.1331
-37.4579
37.2186
-61.8993
-64.0253
-61.0601
-35.0428
-34.7029
-32.7888
-8.15426
-104.728
-35.9503
-33.5521
-49.3022
-43.1147
-38.9108
-14.476
-103.625
-37.0058
-27.5397
-49.6349
-40.5448
-38.9108
41.9812
-88.4905
-47.696
-41.5397
-46.1057
-37.9893
-37.8824
-26.5879
-73.7186
-84.7673
-53.8443
-40.2062
-37.8624
-36.1678
-9.25602
-108.433
-56.0996
-39.8117
-42.7985
-44.9625
-13.7469
-59.5566
-33.3365
-47.2855
-9.6554
-56.0966
-39.6817
-44.9403
-59.6
-47.2265
-34.4597
-39.6983
-41.6533
-34.6578
-41.805
-50.4355
14.3633
-65.18
-34.4427
-39.6854
-34.6427
-50.4525
-62.824
-62.8161
-60.5443
-8.20294
180.505
-38.7628
-38.7578
-37.6763
-92.0896
-49.8155
-49.7597
-45.3647
-39.262
-31.9742
-14.831
-115.049
-80.6576
-42.9357
-44.3232
-50.5129
-23.1094
36.3693
-74.1277
-38.8554
-33.5387
-39.6018
-115.029
-15.1514
-80.6637
-44.2131
-42.8152
-50.4362
36.9048
-23.2819
-74.0501
-33.4319
-38.7137
-39.541
-46.0833
-34.7766
-37.3416
-40.5783
-42.255
-34.3501
-31.5168
-41.0434
-46.2286
-44.0736
-53.3859
4.36176
-45.8603
-40.0308
-46.8241
-60.4235
-45.935
-40.5747
-34.7212
-37.3262
-42.1903
-41.0841
-34.3259
-31.5205
-46.2294
4.365
-44.0593
-53.3386
-45.8099
-60.3872
-39.9993
-46.7914
-97.0698
176.388
-82.9286
147.745
-61.2485
-59.1551
-50.1682
-36.5268
-45.9665
-36.2242
-48.8128
-45.1547
-28.7654
189.973
-63.6569
-18.5984
-33.6107
-29.378
-47.7807
-40.514
-97.0277
176.387
-61.2378
-59.1567
-50.0598
-36.3774
-48.7523
-45.1855
-63.6705
-18.5766
-47.7309
-40.4947
-36.0505
-36.9154
-46.7169
-39.7783
-48.309
-38.3037
-36.1462
-35.9499
-38.849
-45.4872
-43.0264
-81.1824
18.0102
-64.4939
-77.1825
-52.0739
-36.0488
-36.9213
-46.6417
-39.7675
-36.1334
-35.6858
-43.0222
-81.1397
-94.5787
-45.6983
-48.2961
-99.0898
-94.5949
-99.0231
-48.2857
-45.6959
-81.3173
-81.3252
-47.2179
-47.2179
-34.4096
1.53242
1.55833
-34.4002
154.683
154.985
154.998
152.019
-36.7603
-34.4575
-40.8174
-44.7358
-36.7493
-44.7138
-40.7977
-34.4501
-37.5075
-37.5077
-38.0397
-38.0273
-67.2596
-67.9119
-67.8852
-67.301
-36.5275
-53.2497
-46.6998
-41.6978
-36.4757
-41.6519
-46.5836
-53.1259
-44.649
-44.3712
-46.6491
-46.6843
-53.2712
-34.9824
-34.933
-53.2542
-38.1228
-38.0642
-34.5022
-34.7209
-48.3905
-125.943
-100.33
-45.4616
-45.7893
-49.0342
-17.1338
25.1013
-73.4278
-38.9321
-34.4159
-37.372
-125.871
-48.9909
-100.455
-45.6269
-45.3333
-48.9351
25.0832
-17.2277
-73.4906
-34.2873
-38.7678
-37.2823
-39.1708
-36.1377
-36.8874
-39.1236
-39.1115
-34.7126
-32.0296
-40.2872
-49.823
-48.0449
-53.3796
-53.118
-44.9284
-42.4638
-45.6297
-51.234
-39.1778
-39.1071
-36.2109
-36.8447
-39.0725
-40.3186
-34.6881
-32.0332
-49.7966
-53.6107
-48.027
-53.3424
-44.8771
-51.1834
-42.4284
-45.5867
-2.56825
-17.9476
-100.868
125.923
-110.587
-110.553
-101.986
58.1155
-64.6124
-50.7424
-59.4742
-57.5164
-41.1712
-38.9893
-47.7177
-37.3895
-43.0896
-43.0481
-44.9312
-38.3987
-46.2233
-44.4454
-47.3152
-45.2632
-7.0486
-7.30151
-43.8234
149.42
-68.2281
-49.4411
-63.354
-31.6896
-33.4265
-33.3761
-33.2604
-27.8242
-44.0101
-46.4893
-46.7183
-43.7599
-3.02327
-18.2251
-100.858
125.998
-64.6114
-50.7411
-59.4692
-57.5156
-41.0711
-38.8527
-47.5761
-37.3022
-46.2006
-44.4023
-47.2602
-45.2849
-68.2645
-49.4257
-63.3421
-31.668
-43.9625
-46.487
-46.664
-43.7292
-34.9446
-34.2561
-35.1145
-35.9408
-38.3628
-41.491
-40.5564
-39.6842
-41.4273
-41.4259
-44.3961
-39.5878
-32.3502
-37.7175
-35.4406
-33.6526
-41.7172
-41.7209
-40.0919
-44.3456
-52.3572
-48.1416
-46.4404
-64.3284
12.7657
12.7457
29.196
-19.7788
-64.4327
-64.4145
-69.7747
-60.0594
-35.0761
-34.25
-35.1065
-35.9514
-38.3495
-41.4766
-40.5471
-39.6703
-32.3515
-37.6926
-35.4313
-33.7251
-52.3323
-48.0964
-46.4394
-64.2978
-74.7608
-62.1393
-63.1336
-55.4167
-74.7539
-62.1275
-63.1363
-55.4053
-69.7601
-60.2623
-60.2605
-53.6781
-19.3309
-10.7001
-10.6961
2.9806
176.43
161.869
204.021
176.482
-37.1765
-39.5426
-37.1739
-40.7978
-37.1724
-39.5366
-37.1676
-40.7921
-37.4963
-37.7475
-38.0443
-37.4988
-90.5096
-90.2231
-85.8376
-90.5114
-54.1187
-49.3751
-49.8241
-46.49
-54.0319
-49.3167
-49.7691
-46.4692
-45.6231
-45.321
-45.3174
-45.2962
-35.6225
-39.5364
-39.549
-45.2168
-33.7477
-34.4146
-30.7956
-33.6386
-103.364
130.266
-101.037
9.96417
-90.7704
-79.4515
-48.1493
-38.3727
-46.1378
-39.66
-54.809
-47.6105
-86.993
130.851
-53.0482
131.53
-90.9007
-44.0617
-46.107
-37.0378
-33.8914
-33.9061
-43.8859
-36.4169
-101.068
7.32718
-103.253
131.161
-90.8052
-79.4461
-46.0768
-39.5796
-48.0174
-38.3496
-54.692
-47.5421
-52.9017
131.672
-87.0635
130.921
-90.8
-44.1383
-33.8189
-33.6463
-45.9388
-36.9073
-43.7799
-36.3945
-46.6861
-45.841
-35.8579
-36.4682
-39.0502
-36.9017
-43.3042
-38.588
-34.6227
-42.8845
-34.3319
-36.8532
-33.4626
-25.891
-39.2995
-44.3216
-50.0346
-18.1359
-43.8345
-44.6053
-48.467
-76.7624
10.0978
-23.8206
-43.6972
-54.1932
-40.257
-40.2223
-43.6974
-56.0499
-62.3528
-59.1663
-46.6866
-45.8404
-43.3031
-38.585
-35.8424
-36.4622
-39.04
-36.8856
-34.5865
-42.4926
-39.3206
-44.5417
-34.322
-36.8689
-33.4624
-25.8767
-50.0257
-18.1169
10.1417
-23.8815
-43.8225
-44.5912
-48.4305
-76.6946
-43.66
-54.1154
-62.325
-59.148
-40.2327
-40.1843
-43.6729
-56.0234
-96.1735
-97.3758
168.357
184.948
-82.6786
-82.6833
147.121
146.965
-72.2752
-56.135
-68.2059
-52.7256
-52.5203
-48.3194
-37.8278
-35.8441
-46.1204
-46.1431
-37.0348
-36.9711
-47.7259
-53.8894
-44.5119
-45.837
-29.7248
-29.7426
171.676
171.715
-54.0594
-75.5723
-26.0122
-8.41265
-34.0129
-33.9804
-31.4752
-31.7013
-47.7264
-44.836
-46.3007
-37.0002
-96.1502
-97.3405
184.986
168.395
-72.2717
-56.1089
-68.157
-52.7249
-48.1978
-52.4085
-37.7473
-35.6644
-47.6726
-53.8026
-44.5518
-45.7585
-75.5758
-53.8528
-8.39353
-25.9858
-44.7969
-47.6331
-36.9712
-46.3267
-36.5679
-35.1576
-37.0026
-37.2297
-46.2014
-47.3376
-38.0621
-42.042
-48.0636
-48.0645
-38.123
-38.1225
-34.9721
-38.4202
-35.9963
-39.367
-38.6635
-38.6581
-45.3503
-45.3206
-41.5151
-44.3075
-93.2009
-73.9355
13.7619
13.7156
-62.7568
-62.6785
-75.2126
-75.1966
-52.5429
-52.5312
-36.572
-35.1523
-37.0068
-37.2373
-47.3148
-46.1854
-38.0513
-42.0273
-38.4044
-34.9649
-35.7577
-39.3196
-44.2951
-41.4909
-73.9166
-93.1208
-92.8769
-69.97
-73.8597
-106.386
-38.4162
-39.6773
-55.7227
-55.7063
-47.2486
-53.7471
-54.3741
-41.7717
-79.1799
-95.0554
-75.0107
-76.9174
-92.5318
-106.291
-73.7294
-69.9717
-79.2294
-76.9456
-75.0072
-95.1295
-47.2366
-41.7574
-54.2928
-53.7438
-38.3738
-55.6822
-55.6983
-39.6675
-98.2215
-102.602
-69.4943
-66.2944
-98.1971
-66.2912
-69.4918
-102.612
-41.9411
-44.1183
-53.562
-51.341
-41.9504
-51.3425
-53.5656
-44.1182
-61.3164
-37.7225
-20.8794
-44.4201
-21.2603
25.1551
-0.0112988
-25.494
-21.2612
-25.4961
-0.00137298
25.2022
-61.3435
-44.4404
-20.8554
-37.6232
75.6041
122.927
157.154
45.1424
82.077
160.81
197.445
144.541
82.0526
144.551
197.63
160.964
75.4505
44.6242
157.095
123.239
-35.8982
-35.7015
-37.8409
-38.0761
-33.6502
-33.9675
-36.021
-34.7424
-42.9092
-44.9707
-39.2131
-37.9377
-48.5627
-41.8373
-41.706
-47.8155
-35.8655
-38.0617
-37.8378
-35.732
-48.5361
-47.797
-41.6981
-41.8213
-42.8789
-37.9211
-39.1979
-44.9335
-33.6636
-34.7301
-36.0159
-33.962
-37.4049
-39.3344
-37.5875
-36.0484
-37.3922
-36.0663
-37.5888
-39.3338
-38.1127
-39.9166
-37.8589
-36.1668
-38.0731
-36.1542
-37.855
-39.9093
-79.2811
-73.4614
-89.081
-17.383
-52.7476
-68.3344
-83.4511
-59.1492
-52.7121
-59.0851
-83.4355
-68.3442
-79.5231
-16.8067
-89.046
-73.4177
-24.0502
-47.6671
-47.5135
-29.3177
-49.2923
-47.66
-54.1043
-52.6381
-43.9736
-45.7087
-51.1047
-47.354
-42.7808
-37.8333
-44.4698
-45.6686
-24.0542
-29.3832
-47.4765
-47.6115
-42.7364
-45.6282
-44.4373
-37.7779
-43.8245
-47.2026
-51.0126
-45.6302
-49.1681
-52.5522
-54.0052
-47.516
-46.3694
-44.2472
-45.1608
-42.8882
-46.5235
-42.9096
-45.1531
-44.2298
-47.3412
-45.1646
-45.6614
-45.0987
-47.4316
-45.1705
-45.6809
-45.1949
-50.0853
-49.747
-45.1844
-59.9008
-34.9319
-33.4061
-36.0834
-38.9059
-34.8466
-38.8662
-36.0598
-33.3631
-49.9698
-59.887
-45.1664
-49.7703
-40.5318
-38.8815
-35.8163
-38.0909
-41.4602
-38.026
-35.7113
-38.8295
-36.3049
-30.3159
-32.5444
-37.4503
-36.4724
-37.5555
-32.7424
-30.5527
-83.1917
-148.758
-112.108
-46.7903
-46.9451
-48.6318
-18.4664
18.6137
-58.3406
-38.9605
-35.4782
-36.8284
-148.636
-83.4722
-111.792
-46.7819
-46.66
-48.5176
18.4745
-18.505
-58.6609
-35.3286
-38.7771
-36.7212
-37.9459
-35.9643
-36.7593
-38.1962
-35.4825
-35.008
-33.0567
-39.0786
-52.5443
-50.4761
-53.1654
-68.8191
-44.8528
-43.6369
-45.2448
-48.3171
-38.0867
-38.168
-36.015
-36.594
-35.4723
-39.0472
-35.0639
-33.0725
-52.5274
-68.7918
-50.452
-53.1425
-44.8003
-48.2585
-43.6007
-45.2039
-9.27653
-15.5116
-78.6632
79.6907
-109.901
-109.872
-109.509
-114.969
-59.9774
-52.4395
-57.9151
-56.6083
-40.5777
-39.188
-43.9986
-37.6101
-42.8689
-42.8484
-43.985
-39.6097
-44.8983
-45.1277
-46.1836
-44.747
-20.496
-20.6171
-57.3241
74.6314
-63.2136
-54.7969
-62.2956
-44.3219
-33.3706
-33.3497
-33.4632
-29.4792
-45.7931
-46.1867
-46.8718
-46.1143
-9.59964
-15.8499
-78.8808
78.8302
-59.9739
-52.4378
-57.9145
-56.6046
-40.4534
-39.0436
-43.8685
-37.5081
-44.8782
-45.0972
-46.1415
-44.7372
-63.2391
-54.7766
-62.3372
-44.2911
-45.7363
-46.1329
-46.8137
-46.0633
-34.3417
-34.3306
-34.6587
-35.2366
-38.9616
-40.5336
-39.8781
-39.6404
-41.4633
-41.4628
-42.608
-40.4066
-33.1406
-36.2237
-35.0311
-34.0812
-41.7783
-41.7789
-40.8787
-42.8943
-51.5261
-49.1292
-48.3074
-57.3742
14.1271
14.1641
25.3375
1.69541
-64.8976
-64.8797
-67.413
-62.8023
-34.5865
-34.3239
-34.6474
-35.2328
-38.9486
-40.5201
-39.8661
-39.6266
-33.138
-36.2036
-35.0218
-34.0745
-51.5285
-49.1611
-48.3081
-57.3417
-68.0365
-62.4075
-62.9231
-59.5991
-68.0301
-62.3967
-62.9199
-59.5826
-65.1572
-60.6335
-60.6297
-56.9334
-14.633
-8.84653
-8.84673
-2.57163
179.951
166.941
200.573
179.941
-37.9179
-39.2121
-38.14
-39.6878
-37.9133
-39.2071
-38.133
-39.6822
-37.6456
-37.6375
-37.8049
-37.6466
-91.8959
-93.6353
-88.827
-91.8934
-51.3899
-49.5515
-50.037
-48.4661
-51.325
-49.4945
-49.9804
-48.4195
-45.4959
-45.3922
-45.3892
-45.2726
-37.2636
-39.3099
-39.3067
-41.7021
-32.3988
-33.5477
-30.9432
-32.2521
-28.8309
-6.50106
-86.7914
88.8286
-126.253
-110.625
-111.297
-122.808
-94.7746
-71.0868
-87.6033
-79.2485
-44.0523
-41.7052
-45.8945
-39.411
-46.4203
-43.4012
-45.3909
-40.7882
-49.7724
-47.5195
-55.2022
-48.2936
-20.3019
-19.9003
-67.675
75.8029
25.525
3.33517
-53.4802
94.7433
-72.5851
-72.3332
-80.0467
-54.9972
-38.876
-38.8963
-42.9347
-37.6034
-33.812
-33.4052
-33.6697
-33.3808
-38.4965
-41.3193
-42.2839
-37.4485
-126.293
-110.474
-111.356
-122.857
-29.3872
-6.7428
-87.0979
89.3016
-94.8056
-71.0883
-87.6353
-79.241
-46.3375
-43.337
-45.3096
-40.6908
-43.9293
-41.5836
-45.7606
-39.3819
-49.6793
-47.507
-55.0717
-48.1918
25.7031
2.60584
-53.2259
95.0404
-20.4402
-20.142
-67.7396
76.0258
-72.5114
-72.325
-79.9395
-55.0638
-33.6871
-33.3235
-33.5869
-33.1633
-38.7193
-38.758
-42.7738
-37.4803
-38.4249
-41.2775
-42.1972
-37.3919
-40.4429
-47.9609
-47.9582
-44.9655
-37.1699
-35.1701
-36.3904
-35.8139
-36.9096
-37.8187
-37.934
-37.0403
-39.9972
-40.9635
-41.9034
-39.3988
-43.3893
-43.657
-34.3877
-41.2587
-34.3473
-34.3569
-34.0959
-35.8594
-31.659
-31.813
-32.7415
-29.3845
-40.5799
-41.451
-40.1145
-42.4258
-47.1862
-47.3939
-48.6803
-32.6104
-45.6957
-42.7052
-43.7949
-44.3985
-53.5863
-53.0551
-50.8444
-63.0826
-12.9853
10.4447
9.95025
-8.41584
-45.5093
-46.6524
-44.6251
-48.2107
-40.9941
-39.0767
-40.1133
-40.0536
-46.0459
-47.4392
-45.2856
-51.8363
-54.4778
-63.435
-61.4261
-61.8903
-40.5589
-47.9529
-47.8607
-44.9731
-39.9906
-40.9613
-41.8999
-39.3953
-37.5162
-35.0317
-36.3399
-35.7901
-36.8891
-37.8045
-37.9192
-37.0235
-43.3218
-43.5951
-34.353
-41.1534
-40.6323
-41.4676
-40.1424
-42.489
-34.3325
-34.3478
-34.0699
-35.8726
-31.663
-31.8164
-32.7442
-29.3832
-47.183
-47.3801
-48.6717
-32.5952
-12.994
10.4747
9.98701
-8.4583
-45.6833
-42.6897
-43.7816
-44.3798
-53.5442
-53.0215
-50.8053
-63.0395
-45.4356
-46.6445
-44.5851
-48.1396
-54.4339
-63.4152
-61.397
-61.8563
-40.9664
-39.0457
-40.0845
-40.019
-46.0074
-47.4054
-45.2553
-51.7539
-102.932
-84.7379
-96.7502
-97.2342
161.757
175.148
169.346
185.345
-93.151
-75.6011
-82.8983
-82.902
104.021
158.922
141.713
141.42
-60.5763
-61.6923
-65.9719
-59.0946
-58.4537
-60.1158
-63.4467
-55.6283
-48.7251
-53.2732
-51.3986
-49.0942
-37.2353
-35.2192
-37.3368
-36.1332
-45.736
-45.8437
-45.9935
-46.0047
-37.0023
-35.2982
-36.4694
-36.432
-48.2254
-49.2018
-47.9636
-50.4009
-44.8602
-45.2937
-44.8219
-45.5551
-36.2057
-24.342
-28.6644
-28.709
171.546
199.326
181.136
181.178
-63.8053
-63.4091
-59.4345
-68.4503
-23.4325
-13.908
-22.0121
-13.5027
-33.3855
-34.4495
-33.7225
-33.7031
-28.2585
-30.341
-29.9646
-30.1146
-46.9792
-48.7585
-47.4487
-47.1342
-41.5023
-39.9332
-43.1374
-38.5022
-102.98
-84.7253
-96.7103
-97.1961
161.654
176.008
185.36
169.816
-60.5673
-61.6805
-65.9651
-59.0752
-58.4553
-60.1133
-63.4499
-55.6299
-48.5793
-53.1633
-48.9755
-51.2914
-37.1311
-35.0245
-37.2303
-35.9713
-48.1659
-49.142
-47.9101
-50.3275
-44.9403
-45.2999
-44.8673
-45.5929
-63.8033
-63.4213
-68.4515
-59.4138
-23.4151
-13.896
-13.4837
-21.9829
-46.9292
-48.7117
-47.0898
-47.3934
-41.4761
-39.9311
-38.479
-43.121
-35.5697
-36.5853
-36.3206
-35.6647
-36.4763
-37.255
-36.8729
-37.0375
-42.7956
-50.604
-46.6663
-47.0254
-39.7558
-39.7137
-38.8601
-40.8533
-46.0287
-50.8848
-48.2548
-48.2554
-38.8708
-37.9757
-38.2983
-38.2981
-35.7495
-36.4366
-35.3242
-37.2072
-34.5151
-41.1392
-35.3428
-37.3548
-39.3996
-38.3431
-38.8026
-38.8002
-45.4457
-45.2926
-45.4565
-45.4447
-44.5854
-41.9263
-42.3081
-43.7246
-74.0382
-86.2702
-83.4788
-78.0806
25.2892
11.1899
17.0871
17.0519
-38.4202
-85.5266
-65.5209
-65.5637
-73.0329
-82.0622
-76.3811
-76.344
-56.3805
-48.6467
-52.2961
-52.2861
-35.5682
-36.5815
-36.3248
-35.6589
-36.4838
-37.2592
-36.8784
-37.0441
-42.7842
-50.5958
-46.9575
-46.6315
-39.7426
-39.7056
-38.8494
-40.8407
-35.739
-36.4236
-37.1938
-35.312
-34.1242
-41.1664
-35.0246
-37.3145
-44.5849
-41.9209
-43.7201
-42.2945
-74.0773
-86.3066
-78.0561
-83.4524
-103.578
-93.5892
-95.621
-81.9484
-45.2718
-40.6539
-52.27
-46.1498
-48.5996
-44.9049
-50.7765
-47.6951
-97.8633
-97.4764
-98.1504
-86.3921
-103.532
-93.6211
-95.6231
-81.9496
-97.8821
-97.4043
-98.1195
-86.3936
-48.5903
-44.8862
-50.7618
-47.6797
-45.2843
-40.6478
-52.2545
-46.1395
-91.7389
-80.2141
-82.2279
-73.987
-91.7564
-80.2149
-82.2369
-74.5142
-46.5761
-45.1692
-49.7466
-47.7287
-46.5764
-45.1724
-49.7456
-47.729
-42.3909
-38.3143
-31.9407
-29.7114
-6.61077
5.09013
-3.54343
8.81604
-6.59447
5.08333
-3.52055
8.84009
-42.3483
-38.3601
-31.924
-29.6898
139.801
125.345
166.518
152.817
143.168
143.93
171.304
158.585
144.004
143.157
158.712
171.338
123.991
139.963
153.409
166.205
-36.244
-36.8282
-36.687
-37.3669
-34.3904
-33.9868
-34.7079
-34.6668
-40.5379
-42.1851
-39.6368
-41.056
-44.7963
-46.5313
-43.338
-44.6152
-36.2321
-36.8135
-36.6844
-37.3564
-44.7761
-46.5005
-43.3211
-44.6002
-40.5163
-42.1632
-39.6186
-41.0347
-34.3818
-33.9849
-34.7016
-34.6599
-37.0384
-38.0106
-37.1906
-37.8834
-38.0089
-37.0375
-37.8836
-37.193
-38.5978
-37.5257
-38.4087
-37.5992
-37.5105
-38.5815
-37.5898
-38.3997
-86.2215
-40.6623
-83.4496
-59.7462
-61.7684
-64.6815
-70.7995
-72.9329
-64.6498
-61.7402
-72.9147
-70.7585
-40.849
-86.2582
-59.7264
-83.412
-36.1746
-26.2328
-45.1577
-36.4111
-49.6295
-53.7451
-53.2687
-56.1642
-47.1104
-45.2976
-47.6375
-46.9578
-42.405
-40.8971
-42.6462
-41.2201
-36.1295
-26.2085
-45.0923
-36.3535
-42.3641
-40.8467
-42.6008
-41.1697
-46.971
-45.1852
-47.52
-46.8569
-49.4908
-53.6235
-53.1545
-56.078
-44.0553
-44.9586
-44.3664
-45.1366
-43.2671
-44.6938
-44.3745
-45.0612
-46.6972
-47.0944
-46.3256
-46.1674
-46.7448
-47.1464
-46.3576
-46.2752
-54.6346
-56.596
-50.1354
-53.0148
-34.4876
-35.6414
-34.4324
-35.7507
-34.4279
-35.5916
-34.388
-35.7245
-54.6167
-56.5745
-50.133
-52.9956
-38.3178
-38.5991
-37.8775
-37.6599
-38.5303
-38.2722
-37.5911
-37.8089
-34.0476
-36.0071
-33.201
-35.0461
-36.1789
-34.2923
-35.2388
-33.4422
-90.3488
18.4376
-108.099
-25.9077
-94.152
-98.2481
-47.9958
-40.9427
-46.0578
-42.6567
-49.4244
-47.9381
-68.5921
45.1361
-41.1168
61.2999
-74.272
-62.5321
-43.0216
-37.2757
-34.4444
-35.737
-41.2852
-35.8319
-108.066
-25.7102
-90.4432
18.2247
-93.9602
-98.2189
-45.9446
-42.1309
-47.8591
-41.1332
-49.3073
-47.8389
-41.13
61.2594
-68.7484
45.0303
-74.3732
-62.5931
-34.34
-35.5659
-42.8456
-37.1232
-41.165
-35.743
-37.9983
-40.988
-35.2068
-36.7315
-36.8671
-36.4238
-40.2127
-38.1029
-30.5068
-47.3234
-33.8775
-36.9548
-33.1082
-30.2337
-38.9797
-42.2038
-49.189
-42.4237
-47.6242
-48.3601
-50.9901
-64.1793
-28.3221
-76.2629
-43.7939
-47.4824
-42.6181
-42.4681
-44.229
-49.3477
-51.906
-50.5268
-37.9711
-40.9643
-40.2002
-38.0886
-34.9867
-36.7115
-36.8205
-36.3929
-30.5012
-47.2539
-39.0164
-42.2509
-33.9167
-36.9397
-33.1218
-30.2195
-49.1689
-42.4145
-28.3341
-76.3041
-47.6099
-48.3343
-50.9517
-64.0939
-43.749
-47.4062
-51.8614
-50.4687
-42.586
-42.4284
-44.1936
-49.3062
-93.4293
81.3152
-74.422
94.4623
-104.807
-98.5349
120.638
141.934
-111.624
-118.814
-111.619
-118.681
-101.774
-101.784
11.2912
10.351
-68.1039
-65.185
-54.2863
-50.3097
-63.7897
-57.7288
-61.4164
-53.9751
-44.8071
-38.5535
-42.9467
-37.5854
-47.4806
-47.5306
-37.922
-37.2887
-44.274
-39.9851
-44.2388
-39.9377
-44.9912
-45.0062
-38.5279
-38.5018
-50.5912
-45.4046
-47.9271
-43.0039
-47.0725
-48.9285
-44.3743
-45.7331
-50.9142
108.95
-50.965
109.097
-44.1116
-44.1053
147.304
147.407
-74.7748
-53.2002
-53.0384
-40.6436
-58.455
-69.3225
-35.5553
-28.5703
-33.4268
-31.1304
-33.3823
-30.9558
-33.2973
-33.2749
-27.6968
-27.8584
-44.7692
-41.1093
-45.9318
-49.5402
-46.39
-46.8102
-46.7492
-40.9729
-93.9701
81.7427
-74.4335
94.6017
-104.775
-98.5893
141.842
120.802
-68.1095
-65.1797
-54.2813
-50.3076
-63.788
-57.716
-61.4148
-53.9745
-44.6768
-38.4582
-42.7933
-37.4659
-47.3846
-47.3345
-37.9177
-37.1773
-50.5207
-45.3575
-47.8726
-42.9753
-47.0228
-48.8632
-44.399
-45.7261
-74.4871
-53.1159
-52.972
-40.6584
-69.3071
-58.3728
-28.5507
-35.4396
-44.7129
-41.0648
-45.9082
-49.6197
-46.7656
-46.3238
-40.9389
-46.7174
-34.4119
-35.4277
-34.1281
-35.2928
-35.5393
-34.8423
-35.9289
-36.0141
-38.8297
-38.1598
-41.4845
-41.6548
-39.9686
-41.0546
-38.8081
-40.6823
-42.3832
-40.2104
-42.3816
-40.2076
-44.3244
-44.3254
-39.5053
-39.5044
-33.2307
-31.1513
-37.7446
-37.6826
-34.4526
-36.6802
-31.041
-36.0288
-40.7268
-42.6947
-40.7338
-42.6923
-40.0524
-40.0493
-44.313
-44.3051
-49.8585
-61.3363
-46.6097
-53.6786
-45.7839
-47.1764
-69.1615
-60.9612
22.5165
1.79994
22.5154
1.80344
28.0315
28.0864
-18.8854
-18.7332
-66.2662
-62.5621
-66.2564
-62.5341
-69.4748
-69.5212
-60.0077
-60.0067
-34.4986
-35.5365
-34.1149
-35.295
-35.5456
-34.8321
-35.9452
-36.0213
-38.8175
-38.145
-41.4706
-41.6394
-41.0427
-39.9595
-38.7943
-40.6676
-33.2289
-31.1643
-37.7227
-37.6514
-36.6668
-34.4454
-31.2554
-35.9615
-49.843
-61.2895
-46.552
-53.6628
-47.1752
-45.7605
-60.9563
-69.1158
-74.3087
-74.9544
-67.2793
-59.2615
-59.4214
-68.2149
-55.7039
-54.7623
-74.3021
-74.9484
-67.2717
-59.2413
-68.2135
-59.4404
-54.8045
-55.6807
-69.7126
-69.7113
-64.784
-56.6703
-64.7837
-56.669
-53.6916
-53.6924
-19.6751
-19.6283
-16.505
-5.26448
-5.25948
-16.4639
2.19852
2.19923
161.239
195.738