# vtk DataFile Version 2.0
tri_press
ASCII
DATASET UNSTRUCTURED_GRID
POINTS 3682 float
-0.72544 0.085 -1.835
-0.775 0.295 1.87537
-0.645 0.677805 -1.845
-0.675 0.943105 1.925
0.72544 0.085 -1.835
0.775 0.295 1.87537
0.645 0.677805 -1.845
0.675 0.943105 1.925
-0.799007 0.0979526 -0.59821
-0.831603 0.151877 0.63858
-0.781364 0.892602 -0.588333
-0.764141 0.953812 0.668333
0.799051 0.097909 -0.59821
0.831603 0.151877 0.63858
0.781381 0.89262 -0.588333
0.764128 0.9538 0.668333
-1.50319 -0.364909 -2.83868
-1.5032 -0.289506 -1.84129
-1.56005 -0.262543 -0.605015
-1.58881 -0.215354 0.627261
-1.55828 -0.10444 1.8632
-1.54783 -0.0343714 2.85894
-1.55146 0.0200351 3.85774
-1.49276 -0.0186123 -2.83654
-1.48986 0.0786841 -1.83697
-1.56636 0.120012 -0.59683
-1.58655 0.158029 0.641524
-1.53096 0.255552 1.88129
-1.53133 0.323458 2.87731
-1.54414 0.379163 3.87546
-1.45909 0.642517 -2.83783
-1.43682 0.739792 -1.83908
-1.54063 0.89196 -0.585389
-1.53467 0.939282 0.669713
-1.46115 0.954523 1.92303
-1.49388 1.0215 2.91823
-1.52869 1.09042 3.91317
-1.4599 1.74124 -2.82481
-1.45839 1.84855 -1.82309
-1.49759 1.99485 -0.562954
-1.5226 2.07909 0.701469
-1.51856 2.11199 1.9614
-1.52198 2.14776 2.96268
-1.53474 2.20057 3.9598
-0.757013 -0.363158 -2.8374
-0.733802 -0.285527 -1.83942
-0.777867 -0.274193 -0.605266
-0.811372 -0.219474 0.624748
-0.792847 -0.0825621 1.85881
-0.788675 -0.0196604 2.85596
-0.793363 0.0271513 3.85601
-0.75895 -0.0232257 -2.83614
-0.783461 0.337629 2.87485
-0.791947 0.385099 3.87416
-0.731255 0.616222 -2.84028
-0.754608 1.01993 2.91862
-0.783871 1.09011 3.91325
-0.713143 1.72601 -2.82724
-0.701844 1.83562 -1.82577
-0.734741 1.99487 -0.564568
-0.765878 2.08305 0.701662
-0.77069 2.11019 1.96278
-0.775398 2.14398 2.96407
-0.785819 2.19747 3.9608
0.71897 -0.363162 -2.8374
0.761203 -0.285536 -1.83942
0.806198 -0.274223 -0.605266
0.814945 -0.219481 0.624748
0.774617 -0.0825636 1.85881
0.745167 -0.0196627 2.85596
0.730384 0.027148 3.85601
0.688214 -0.0232278 -2.83614
0.727211 0.337627 2.87485
0.71875 0.385096 3.87416
0.667312 0.616222 -2.84028
0.693179 1.01993 2.91862
0.703346 1.0901 3.91325
0.755728 1.72601 -2.82724
0.778415 1.83562 -1.82577
0.781267 1.99487 -0.564568
0.751146 2.08304 0.701662
0.721574 2.11019 1.96278
0.712887 2.14398 2.96406
0.710589 2.19747 3.9608
1.46967 -0.36492 -2.83868
1.51234 -0.289524 -1.84129
1.57811 -0.262583 -0.605015
1.59976 -0.215372 0.627261
1.5564 -0.104446 1.8632
1.51906 -0.0343775 2.85894
1.49925 0.0200274 3.85774
1.43849 -0.0186181 -2.83654
1.48021 0.0786763 -1.83697
1.56738 0.119973 -0.596831
1.59581 0.158013 0.641524
1.53919 0.255548 1.88129
1.49853 0.323453 2.87731
1.48466 0.379156 3.87546
1.41202 0.642516 -2.83783
1.43117 0.739796 -1.83908
1.54181 0.891958 -0.585389
1.54085 0.939263 0.669713
1.46573 0.954518 1.92303
1.45503 1.0215 2.91823
1.46178 1.09041 3.91317
1.49492 1.74124 -2.82481
1.51901 1.84855 -1.82309
1.53682 1.99485 -0.562954
1.51548 2.07908 0.701468
1.48128 2.11198 1.9614
1.46856 2.14775 2.96268
1.46634 2.20056 3.9598
-0.700495 0.381403 -1.85527
0 0.0813628 -1.83864
-0.703165 0.150535 -1.21661
-0.786045 0.619052 1.96123
0 0.325477 1.84489
-0.777314 0.249426 1.25698
0 0.713699 -1.88089
-0.75053 0.822552 -1.21667
0 0.99829 1.98019
-0.735862 0.96475 1.29667
0.700461 0.381403 -1.85524
0.703164 0.150536 -1.21661
0.785912 0.619052 1.9611
0.775907 0.250832 1.25698
0.750563 0.822585 -1.21667
0.735872 0.96476 1.29667
-0.815964 0.124256 0.020185
-0.83364 0.495277 -0.593272
2.17794e-05 0.134323 -0.59821
-0.864377 0.552845 0.653457
0 0.171823 0.63858
-0.770276 0.920731 0.04
8.83503e-06 1.09819 -0.588333
-6.36417e-06 1.28838 0.668333
0.815964 0.124256 0.020185
0.833644 0.495264 -0.593272
0.864386 0.552838 0.653457
0.770282 0.920737 0.04
-0.834857 0.43834 -1.21664
0.834856 0.438333 -1.21664
1.08897e-05 0.141795 -1.21661
4.41752e-06 0.912701 -1.21667
0 0.381403 -2.07285
-0.836317 0.524061 0.0300925
0.836319 0.524051 0.0300925
1.08897e-05 0.148079 0.020185
1.23543e-06 1.29857 0.04
-0.896474 0.585949 1.27682
0.896474 0.585945 1.27682
0 0.239652 1.25698
-3.18209e-06 1.15235 1.29667
0 0.619052 2.07809
-0.690625 0.233201 -1.8228
-0.36272 0.0813758 -1.83862
-0.689476 0.142594 -1.5258
-0.792431 0.457026 1.93021
-0.3875 0.328983 1.84139
-0.790672 0.257698 1.56617
-0.700267 0.529604 -1.87766
-0.3225 0.700973 -1.86817
-0.715267 0.76768 -1.53083
-0.717042 0.781079 1.92963
-0.3375 0.991202 1.9731
-0.705772 0.954269 1.61083
0.36272 0.0813717 -1.83863
0.690619 0.233201 -1.82279
0.689478 0.142592 -1.5258
0.3875 0.26049 1.90988
0.792389 0.457026 1.93017
0.792454 0.255916 1.56617
0.3225 0.701096 -1.86829
0.700592 0.529604 -1.87798
0.715267 0.767681 -1.53083
0.3375 0.991129 1.97302
0.716661 0.781079 1.92925
0.705775 0.954272 1.61083
-0.768537 0.106793 -0.907408
-0.807412 0.111178 -0.289013
-0.801563 0.303995 -0.595741
-0.38235 0.150423 -0.59821
-0.761791 0.243319 0.947778
-0.824515 0.137335 0.329383
-0.844169 0.354272 0.646018
-0.410663 0.172126 0.63858
-0.770581 0.862211 -0.9025
-0.827559 0.703968 -0.590803
-0.779626 0.910472 -0.274167
-0.425884 1.06581 -0.588333
-0.760478 0.969758 0.9825
-0.852746 0.772572 0.660895
-0.765112 0.935176 0.354167
-0.448812 1.25457 0.668333
0.768579 0.106751 -0.907408
0.382359 0.150471 -0.59821
0.807412 0.111178 -0.289013
0.801562 0.303979 -0.595741
0.762753 0.242357 0.947778
0.41726 0.158933 0.63858
0.824515 0.137335 0.329383
0.844184 0.354263 0.646018
0.770579 0.862209 -0.9025
0.425891 1.0658 -0.588333
0.827563 0.703967 -0.590803
0.77964 0.910487 -0.274167
0.76047 0.96975 0.9825
0.448785 1.25454 0.668333
0.852751 0.772566 0.660895
0.765117 0.93518 0.354167
-0.826479 0.409871 -1.53596
-0.350247 0.381403 -2.04124
5.44485e-06 0.138038 -1.52762
0 0.231383 -2.04138
-0.817142 0.294438 -1.21662
-0.351577 0.142565 -1.21661
-0.877438 0.602501 1.61903
-0.393023 0.619052 2.07149
0 0.26567 1.55093
0 0.472265 2.06185
-0.89711 0.417687 1.2669
-0.388657 0.234043 1.25698
2.20876e-06 0.835336 -1.54878
0 0.547551 -2.05647
-0.843443 0.630446 -1.21665
-0.375263 0.894203 -1.21667
-1.59104e-06 1.05595 1.63843
0 0.808671 2.00762
-0.883768 0.775349 1.28674
-0.367932 1.11458 1.29667
0.826469 0.409868 -1.53594
0.350231 0.381403 -2.04125
0.817141 0.294435 -1.21662
0.351588 0.142661 -1.21661
0.877446 0.602499 1.61896
0.392956 0.619052 2.0716
0.897101 0.418389 1.2669
0.387954 0.225669 1.25698
0.843422 0.630459 -1.21665
0.375284 0.894279 -1.21667
0.883438 0.775353 1.28674
0.367934 1.11458 1.29667
-0.802854 0.335802 0.0251387
-0.397022 0.158076 0.020185
-0.835468 0.466809 -0.904954
-0.830301 0.509669 -0.28159
1.63345e-05 0.145445 -0.907408
1.63345e-05 0.137306 -0.289013
-0.846987 0.538453 0.341775
-0.885721 0.569397 0.965139
5.44485e-06 0.147904 0.329383
0 0.225072 0.947778
-0.828155 0.734826 0.0350462
-0.46811 1.2756 0.04
6.62627e-06 0.951605 -0.9025
5.03523e-06 1.23322 -0.274167
-2.56437e-06 1.31269 0.354167
-4.77313e-06 1.23567 0.9825
0.802856 0.335796 0.0251387
0.397043 0.158056 0.020185
0.835476 0.466799 -0.904954
0.830298 0.509658 -0.28159
0.846992 0.538445 0.341775
0.885707 0.569392 0.965139
0.828157 0.734822 0.0350462
0.468121 1.27562 0.04
-0.802339 0.263819 -1.53088
-0.818145 0.295526 -0.906181
-0.835467 0.662193 -0.903727
-0.82868 0.580025 -1.53339
0.802332 0.263818 -1.53087
0.828728 0.580031 -1.53339
0.835468 0.662201 -0.903727
0.818142 0.295511 -0.906181
-0.357148 0.138473 -1.52671
0.357154 0.138572 -1.52671
0.375562 0.145516 -0.907408
-0.375535 0.145517 -0.907408
-0.348881 0.818382 -1.53981
-0.38297 0.943269 -0.9025
0.382989 0.943315 -0.9025
0.348892 0.818432 -1.53981
-0.356484 0.232292 -1.84416
-0.336374 0.538577 -2.03684
0.336365 0.538577 -2.03718
0.356475 0.232292 -1.84373
-0.797409 0.322298 -0.285301
-0.812218 0.350683 0.335579
-0.838357 0.752652 0.347971
-0.824711 0.717824 -0.277878
0.79741 0.322288 -0.285301
0.824712 0.717821 -0.277878
0.838359 0.752647 0.347971
0.812217 0.350681 0.335579
-0.390452 0.152718 -0.289013
0.390471 0.152724 -0.289013
0.408063 0.156672 0.329383
-0.403799 0.165189 0.329383
-0.461766 1.20024 -0.274167
-0.467968 1.2841 0.354167
0.467968 1.28411 0.354167
0.461773 1.20024 -0.274167
-0.887177 0.385024 0.956458
-0.895227 0.437357 1.5926
-0.816729 0.778214 1.61493
-0.873011 0.764339 0.973819
0.887173 0.385373 0.956458
0.873023 0.764336 0.973819
0.81676 0.778216 1.6149
0.895224 0.437708 1.59257
-0.402229 0.230612 0.947778
0.401878 0.210676 0.947778
0.387727 0.230374 1.55855
-0.388079 0.241577 1.55855
-0.375003 1.20016 0.9825
-0.352716 1.04753 1.62463
0.352717 1.04754 1.62463
0.374998 1.20017 0.9825
-0.390261 0.464645 2.04702
0.390228 0.464645 2.04693
0.365228 0.794875 2.01612
-0.365261 0.794875 2.01612
-0.706473 0.159101 -1.82734
-0.54408 0.0813891 -1.83861
-0.682649 0.138607 -1.6804
-0.784747 0.376013 1.90382
-0.58125 0.314034 1.85634
-0.781588 0.277597 1.72077
-0.67277 0.603704 -1.86147
-0.48375 0.6924 -1.8596
-0.686467 0.729076 -1.68792
-0.696318 0.862092 1.92761
-0.50625 0.975952 1.95785
-0.692523 0.950823 1.76792
0.54408 0.0813851 -1.83861
0.70653 0.159101 -1.8274
0.682651 0.138604 -1.6804
0.58125 0.305559 1.86481
0.784723 0.376013 1.9038
0.781642 0.277543 1.72077
0.48375 0.692261 -1.85946
0.672736 0.603704 -1.86143
0.686467 0.729076 -1.68792
0.50625 0.975952 1.95785
0.696426 0.862092 1.92772
0.692526 0.950827 1.76792
-0.794601 0.0915435 -0.752809
-0.803508 0.104267 -0.443611
-0.792494 0.204869 -0.596976
-0.575066 0.155414 -0.59821
-0.839981 0.154314 0.793179
-0.82879 0.143875 0.483981
-0.828568 0.257733 0.642299
-0.615989 0.172291 0.63858
-0.780082 0.881516 -0.745417
-0.815216 0.803663 -0.589568
-0.780391 0.901434 -0.43125
-0.63091 1.03378 -0.588333
-0.762321 0.961797 0.825417
-0.818726 0.868334 0.664614
-0.765562 0.945429 0.51125
-0.643671 1.17858 0.668333
0.794595 0.0915504 -0.752809
0.575088 0.155424 -0.59821
0.803513 0.104262 -0.443611
0.792471 0.204862 -0.596976
0.839701 0.154594 0.793179
0.605183 0.193901 0.63858
0.82879 0.143875 0.483981
0.828569 0.257733 0.642299
0.780001 0.881435 -0.745417
0.630917 1.03377 -0.588333
0.815228 0.803671 -0.589568
[...]
POINT_DATA 3682
SCALARS point_scalars float 1
LOOKUP_TABLE default
-147.529
-44.6427
-17.1901
-37.9
-147.487
-43.842
-17.1064
-35.8706
-43.0497
-39.3822
-60.8816
-48.2447
-42.8506
-40.4659
-60.7056
-48.0224
-113.147
-106.124
-42.9771
-38.4165
-49.6478
-40.8006
-34.4268
-35.0387
-106.124
-42.9771
-38.5933
-52.4943
-38.5354
-34.6935
39.1827
-68.9536
-52.4343
-41.424
-41.0965
-37.1521
-34.137
-24.7799
-48.8006
-80.8729
-55.7824
-36.2493
-36.5031
-35.3024
-53.2419
-176.105
-42.9771
-39.9503
-43.0945
-35.3733
-33.3306
-39.401
-33.5695
-33.1405
150.118
-33.5103
-32.7839
35.0916
-41.5192
-64.4227
-63.0555
-33.6761
-32.6833
-32.8159
-53.0866
-175.412
-42.7727
-42.1515
-42.3137
-34.2098
-32.6149
-53.0866
-32.6301
-32.5186
150.03
-31.0217
-31.7462
36.1457
-41.8501
-64.2716
-62.9134
-32.232
-30.2865
-30.045
-113.562
-106.435
-42.7727
-38.1188
-48.9693
-39.6557
-33.4854
15.1439
-106.435
-42.7727
-38.2578
-51.3818
-37.3708
-33.6727
39.8213
-68.8789
-52.2722
-41.0934
-39.6526
-34.0771
-32.9868
-32.0764
-48.6333
-80.6415
-55.6207
-34.6881
-34.2211
-33.1731
-47.7568
-146.449
-54.7577
-38.7014
-36.8718
-39.8373
-14.3035
-46.5623
-26.4431
-45.8557
-47.7268
-54.6778
-37.2952
-38.4962
-46.4873
-45.2838
-34.6368
-44.0209
-40.2522
-36.3368
-44.09
-52.1276
-0.839117
-64.5339
-34.4265
-43.8717
-36.0625
-51.9453
-61.7794
-61.6828
-60.0817
-22.786
203.303
-36.8792
-36.73
-39.1098
-91.0765
-46.9857
-46.1958
-38.1788
-39.2545
-28.5712
-74.7632
-150.454
-85.8992
-40.1131
-38.5788
-45.8292
-18.3468
-4.71322
-49.8051
-36.9409
-29.8963
-38.4556
-150.423
-72.9133
-85.8133
-38.3648
-38.9688
-44.5987
-4.5283
-18.1915
-49.7316
-27.6598
-35.2644
-37.4625
-35.1907
-36.5899
-42.6889
-39.9269
-42.1099
-41.0259
-34.3689
-41.5465
-43.8527
-48.3587
-57.5477
-6.52946
-49.4806
-40.8666
-49.1681
-62.1719
-34.7573
-39.7208
-36.4563
-42.498
-41.7234
-42.4508
-40.7025
-34.1588
-43.8168
-6.43545
-48.2072
-57.4022
-49.1086
-62.0355
-40.5997
-48.9699
-106.69
175.717
-86.8673
161.099
-60.2844
-58.9333
-51.2808
-32.5642
-41.3031
-32.1149
-45.1131
-38.1469
-31.6067
148.904
-62.9052
-24.9778
-32.2917
-25.2784
-50.3964
-40.1285
-106.605
175.573
-60.1873
-58.9149
-50.0302
-31.1077
-44.2909
-37.1857
-62.8077
-24.9965
-49.6383
-39.86
-35.1352
-38.4139
-50.2327
-39.9848
-46.7233
-39.5364
-35.1109
-39.398
-41.4117
-39.9163
-42.3261
-86.4475
2.39358
-59.2193
-81.8396
-49.8897
-34.9925
-37.8333
-50.1875
-39.8503
-34.9275
-38.9333
-42.1755
-86.3131
-103.378
-49.5232
-51.4639
-82.9099
-103.238
-82.8927
-51.3248
-49.3854
-87.077
-87.0797
-45.7821
-45.8489
-34.6741
-6.41562
-6.41132
-34.6269
164.014
134.724
135.696
164.011
-37.8439
-33.7876
-40.7366
-45.7961
-37.7244
-45.6465
-40.5782
-33.5945
-38.7465
-38.7868
-40.4016
-40.7794
-57.9825
-75.047
-74.9338
-57.8125
-40.7797
-53.3511
-45.2791
-43.1321
-40.2835
-42.667
-44.0808
-52.1526
-40.1963
-40.213
-38.7623
-41.5879
-49.97
-33.5631
-32.9695
-49.7959
-33.5812
-32.7672
-28.6379
-31.3905
-115.665
-171.59
-113.974
-41.3508
-40.9502
-44.5336
-16.3094
-8.15444
-41.1431
-38.2668
-32.2723
-36.5035
-171.623
-115.732
-113.867
-40.7719
-40.2194
-43.9459
-8.60829
-16.0664
-41.1419
-30.1393
-36.3889
-35.1107
-46.1695
-38.1562
-42.7343
-39.6722
-47.882
-39.1746
-34.8543
-42.3052
-50.0855
-54.2163
-60.153
-31.2786
-48.5727
-45.2572
-48.1298
-57.353
-45.9358
-39.4595
-38.0183
-42.5072
-47.5289
-43.6525
-38.1268
-34.7063
-49.8421
-30.9368
-54.0575
-60.0132
-48.2925
-57.1992
-45.0353
-47.9314
-65.7632
-30.2543
-71.0117
126.537
-148.049
-148.076
-109.928
17.821
-67.3743
-44.951
-58.7479
-56.9034
-39.5615
-37.2251
-42.3789
-33.0063
-37.3734
-37.3334
-38.4078
-33.401
-41.0231
-38.6043
-43.7321
-37.3134
-11.6699
-11.5771
-30.446
59.5287
-46.3594
-46.4923
-64.2817
-30.5378
-28.0501
-26.3816
-29.6995
-22.9561
-41.597
-50.2162
-48.3347
-41.6955
-65.6315
-30.2382
-70.9966
126.603
-67.3031
-44.8564
-58.6514
-56.8541
-38.3131
-35.567
-41.0907
-32.1443
-39.4865
-38.0387
-42.7939
-36.9188
-46.3428
-46.4395
-64.0831
-30.5197
-40.8511
-49.7195
-47.6381
-41.3029
-36.0947
-32.4331
-34.6803
-36.8755
-43.293
-45.5333
-46.401
-42.0564
-40.0812
-39.9526
-42.7566
-40.0934
-34.9299
-38.126
-35.2259
-37.8882
-43.8011
-44.603
-42.3178
-42.8265
-54.6811
-50.875
-47.2203
-68.7113
-1.31588
-1.26557
8.95157
-26.1171
-64.2768
-64.1957
-74.3154
-56.8487
-35.8995
-32.2082
-34.5373
-36.1598
-43.1312
-45.385
-46.1836
-41.9163
-34.6767
-37.8471
-35.0116
-37.5343
-54.5009
-50.6889
-47.058
-68.5292
-74.2908
-61.2615
-62.3653
-55.4437
-74.1857
-61.1654
-62.2654
-55.3383
-71.0952
-59.884
-59.8758
-52.3493
-25.5398
-23.1278
-23.1326
-10.7807
197.587
186.738
199.112
196.835
-35.7139
-37.6615
-36.1111
-38.8894
-35.569
-37.526
-35.952
-38.7386
-39.1022
-39.2519
-39.6413
-38.7001
-91.8442
-87.212
-90.4159
-91.7961
-49.3711
-46.058
-48.0509
-45.8153
-48.3885
-45.2638
-47.2678
-45.1817
-38.7921
-38.3493
-37.8423
-38.2464
-35.0926
-39.377
-39.2326
-43.795
-30.7662
-30.7906
-25.9649
-28.6759
-91.3025
102.746
-111.939
54.9443
-100.988
-86.064
-45.0315
-34.0341
-42.3961
-34.9322
-52.6615
-43.277
-58.1744
112.123
-30.8171
56.3485
-60.0037
-39.472
-41.6943
-32.7449
-31.1386
-30.4508
-42.6203
-35.042
-111.914
54.9901
-91.2691
102.679
-100.897
-86.0279
-38.5919
-34.8285
-43.8478
-33.0753
-51.5016
-40.1481
-30.7271
56.388
-58.0571
111.772
-59.947
-39.4123
-30.0705
-27.0581
-40.2714
-31.1588
-41.4828
-34.2307
-51.3396
-45.0273
-36.842
-37.9226
-46.4924
-40.0496
-42.4527
-39.0868
-43.122
-40.7265
-34.3401
-40.114
-32.9758
-36.6112
-42.802
-43.487
-53.9426
-18.4074
-48.8524
-47.4274
-50.8501
-81.3232
1.66305
-27.476
-46.5323
-51.5757
-40.4048
-41.6951
-45.1196
-59.8483
-68.6102
-56.7463
-51.2077
-44.9314
-42.3818
-38.8299
-36.734
-37.9447
-46.3046
-39.9052
-42.5522
-40.3829
-40.6052
-44.8546
-34.1332
-39.7216
-32.7899
-36.3512
-53.7607
-18.383
1.67865
-27.3778
-48.6997
-47.2791
-50.6911
-81.1081
-46.1142
-51.3224
-68.4693
-56.5864
-40.2055
-41.3447
-44.9673
-59.6572
-105.529
-100.428
159.676
184.199
-87.17
-87.1908
165.486
165.42
-74.5516
-53.5513
-69.9939
-51.0708
-52.8564
-48.4919
-33.0097
-31.525
-40.2409
-41.6025
-32.9494
-32.3487
-43.7449
-47.2268
-37.8018
-39.4372
-32.9121
-32.8636
148.782
147.749
-56.7432
-75.9399
-28.3854
-16.6119
-32.736
-32.4389
-25.2629
-28.1277
-49.0081
-46.3085
-44.4122
-36.4497
-105.406
-100.408
184.254
159.687
-74.4648
-53.4432
-69.9908
-51.0291
-47.272
-51.6172
-32.186
-29.099
-43.0933
-46.2502
-37.7135
-36.8952
-75.8318
-56.628
-16.6168
-28.3461
-45.7471
-48.0675
-36.0705
-44.1826
-35.8904
-34.7599
-38.4566
-38.9816
-50.3894
-50.7862
-38.5682
-42.2019
-46.5129
-46.5614
-39.3867
-39.3347
-33.8311
-37.2333
-39.3547
-40.356
-41.3357
-41.2742
-39.9657
-40.026
-41.4901
-43.3439
-84.0332
-80.4576
0.203404
0.198218
-56.3124
-56.2572
-80.3156
-80.2498
-49.6527
-49.5448
-35.7801
-34.5865
-37.9598
-38.8748
-50.6552
-50.2854
-38.4417
-42.0595
-37.0543
-33.6472
-38.8747
-39.8922
-43.1925
-41.345
-80.293
-83.8987
-99.9528
-73.4138
-74.6112
-81.7626
-45.9319
-46.523
-54.8822
-50.5005
-53.625
-58.2742
-56.1272
-47.1879
-52.5442
-63.6517
-74.7239
-65.4556
-100.354
-81.8059
-74.518
-73.3345
-52.5797
-65.3828
-74.6165
-63.5614
-53.4262
-47.0317
-56.0171
-58.1685
-45.7135
-50.3939
-54.7767
-46.2959
-113.256
-110.787
-70.9269
-68.4873
-113.222
-68.4482
-70.9345
-110.786
-42.2957
-42.7152
-52.0667
-48.7423
-42.4283
-48.8133
-52.0961
-42.637
-31.1639
-32.7035
-26.1896
-30.3374
-15.1689
7.18108
-12.0611
-25.9682
-15.1423
-25.9357
-12.0777
7.18391
-30.9057
-30.2819
-26.1971
-32.6913
29.7936
117.131
182.369
19.1224
62.0769
61.9986
198.117
132.169
62.3559
132.098
198.125
61.9542
30.4222
25.7554
182.429
117.314
-39.1403
-35.4597
-36.4347
-40.8114
-33.961
-33.3956
-35.0916
-34.5963
-44.7029
-46.1706
-38.0854
-37.0644
-53.0095
-44.1169
-39.8346
-48.5477
-38.9986
-40.6668
-36.3087
-35.3539
-52.856
-48.3707
-39.6939
-43.974
-44.539
-36.8458
-37.9358
-46.0182
-33.7463
-34.4177
-34.9254
-33.192
-38.5228
-39.945
-39.1218
-38.1383
-38.0946
-37.6204
-38.9541
-39.8584
-40.9241
-41.2137
-39.528
-38.0077
-42.8358
-38.3245
-39.5743
-42.1794
-65.3691
-74.9865
-84.6105
-25.1778
-57.8583
-73.0194
-89.1276
-63.5682
-57.6424
-63.3811
-89.0375
-72.9394
-65.1885
-25.1161
-84.5665
-74.8145
-38.986
-42.7042
-45.2833
-37.4465
-46.945
-43.7183
-48.3285
-45.3547
-40.1948
-44.7755
-51.0551
-42.1847
-45.5783
-39.35
-45.6761
-49.6517
-38.7186
-37.1077
-44.6337
-42.3994
-45.2671
-49.1106
-45.0845
-38.9887
-38.7346
-40.7993
-50.0708
-43.9101
-45.7861
-44.4038
-47.3593
-42.5018
-43.4253
-42.5234
-38.1557
-37.9571
-43.298
-36.9905
-38.09
-42.8232
-41.1538
-38.1901
-38.2845
-37.0943
-42.1008
-39.7348
-39.5914
-39.4949
-56.7818
-46.4861
-44.0652
-56.6771
-32.956
-30.1938
-35.611
-38.033
-31.6407
-37.4751
-35.4145
-29.6163
-56.5556
-56.5909
-43.9442
-46.1785
-36.175
-34.0637
-32.0811
-33.2746
-36.1064
-32.5842
-30.9745
-33.8515
-30.4839
-23.1635
-26.3873
-31.2403
-32.6127
-32.6722
-29.0519
-26.5742
-135.885
-178.654
-138.833
-43.4606
-42.1713
-42.7347
-9.29035
-10.8485
-38.067
-38.7638
-33.7884
-35.9637
-178.762
-135.901
-138.785
-41.9175
-42.4774
-41.7973
-10.7542
-9.17561
-38.067
-31.6841
-36.7434
-34.3001
-42.6621
-45.0113
-43.2299
-40.8334
-41.3107
-39.0131
-36.0706
-42.5282
-58.6075
-57.8395
-62.1496
-56.4863
-48.5234
-46.5553
-48.0369
-50.7688
-42.5088
-40.6453
-44.8536
-43.0113
-40.8289
-43.7331
-39.4222
-36.2936
-58.2999
-56.1559
-57.68
-62.0075
-48.273
-50.5449
-46.3386
-47.9193
-58.8825
-38.2353
-68.4949
43.9303
-145.814
-145.804
-122.811
-91.4519
-60.5439
-49.9366
-57.2279
-55.3485
-39.2906
-37.6014
-39.8924
-34.0768
-37.0896
-36.9597
-37.5891
-34.7562
-40.2316
-39.0004
-42.5027
-38.3485
-13.4716
-14.0834
-19.8828
12.1355
-46.7715
-47.2082
-56.3898
-37.0947
-27.2864
-26.0916
-29.3651
-22.7312
-43.7011
-48.5745
-47.1884
-43.6943
-58.7535
-38.1998
-68.4386
43.9455
-60.4691
-49.8512
-57.1352
-55.2824
-37.9832
-36.0866
-38.5465
-32.9899
-38.6084
-38.2595
-41.4721
-37.2409
-46.6977
-47.1831
-56.4311
-37.0512
-43.0576
-48.0147
-46.5456
-43.2459
-35.6329
-34.6356
-34.3562
-36.8217
-43.6119
-44.6493
-45.0973
-43.0839
-39.8176
-39.7374
-40.795
-40.6225
-35.8103
-37.129
-35.7358
-37.1513
-43.7455
-44.289
-42.3016
-42.8303
-53.3184
-51.8204
-50.0052
-59.239
-0.870008
-0.826419
6.68436
-11.3522
-64.4694
-64.4262
-69.4205
-60.7867
-35.4172
-34.4186
-34.1872
-36.4484
-43.4613
-44.5008
-44.9497
-42.9406
-35.5449
-36.8501
-35.4957
-36.841
-53.1515
-51.6336
-49.8329
-59.0589
-66.7062
-61.5577
-61.9729
-58.5778
-66.6116
-61.4617
-61.8746
-58.4765
-65.1059
-60.0424
-60.0372
-55.8917
-24.7146
-22.5438
-22.5175
-17.0465
200.747
195.426
205.089
200.76
-36.1362
-37.2096
-36.5349
-37.772
-35.9887
-37.0686
-36.3775
-37.6213
-39.168
-39.0705
-39.1424
-38.9588
-91.5929
-88.9509
-91.3364
-91.5593
-47.8976
-46.5197
-47.432
-46.36
-47.0206
-45.7304
-46.6368
-45.6532
-38.4291
-37.998
-38.0661
-38.089
-36.9721
-39.2962
-39.2134
-41.4303
-29.6145
-30.0046
-26.7516
-28.2881
-80.7992
-69.0195
-87.3461
15.9021
-156.522
-148.826
-125.573
-81.0633
-97.5869
-75.5833
-101.736
-85.1606
-40.3958
-39.6561
-41.4028
-35.2943
-39.7674
-37.9302
-40.4661
-36.3326
-45.67
-42.572
-50.7351
-43.5755
-19.9413
-22.0023
-58.7442
65.3736
-6.03182
-7.03524
-25.5579
12.8316
-46.1669
-46.5893
-54.577
-42.8072
-37.4525
-36.6863
-40.8685
-33.8034
-31.0063
-28.944
-30.2731
-30.0496
-37.1135
-39.593
-40.106
-36.468
-156.424
-148.842
-125.539
-81.1322
-81.2176
-68.89
-87.3317
14.2695
-97.4715
-75.5049
-101.599
-85.101
-40.8546
-37.8856
-40.5331
-36.9814
-39.2665
-38.4667
-40.2554
-34.3276
-44.7885
-41.1446
-49.4876
-41.3003
-6.05234
-7.16001
-25.4308
12.6144
-19.8295
-21.9675
-58.8587
65.4012
-46.0565
-46.7916
-54.489
-42.6943
-28.8199
-26.8615
-28.9289
-26.806
-35.6827
-35.0418
-39.2183
-32.3036
-35.9428
-38.7554
-39.0465
-35.5664
-40.9103
-37.8322
-46.5161
-45.4093
-37.2731
-36.5824
-35.9849
-37.6666
-42.6339
-42.9153
-43.8232
-41.3395
-40.0586
-39.5814
-41.0008
-39.49
-52.1002
-38.7855
-44.3927
-41.6624
-38.5007
-37.8522
-36.9163
-40.3149
-34.5946
-34.2697
-33.6553
-35.0198
-40.5668
-44.0785
-41.3381
-42.9865
-44.9434
-44.1504
-51.9761
-29.235
-50.6198
-46.7376
-48.5387
-47.9826
-58.5669
-56.3668
-53.5096
-68.6102
-12.6591
-3.208
-0.496295
-14.7112
-49.0064
-49.6042
-48.0439
-51.965
-43.0311
-39.2982
-40.3278
-41.3065
-48.3071
-49.7994
-47.4298
-53.7697
-61.7446
-63.495
-65.2712
-59.9313
-40.888
-37.7245
-46.4106
-45.2963
-39.8441
-39.4263
-40.87
-39.2986
-37.148
-36.4256
-35.8817
-37.4935
-42.4216
-42.7372
-43.6434
-41.1701
-51.6573
-38.3343
-43.834
-41.3297
-44.3251
-44.6341
-41.074
-42.4621
-38.1698
-37.4359
-36.6787
-39.9543
-34.421
-34.031
-33.4866
-34.7132
-44.807
-44.0669
-51.8007
-29.2103
-12.5067
-3.10273
-0.447034
-14.6602
-50.4637
-46.5887
-48.3856
-47.8341
-58.4155
-56.2038
-53.3558
-68.4569
-48.6833
-49.184
-47.6621
-51.659
-61.6148
-63.3785
-65.1401
-59.7784
-42.7867
-39.0219
-40.0903
-40.9995
-48.1185
-49.6008
-47.2501
-53.5629
-96.0994
-87.6018
-108.131
-103.279
161.275
188.531
158.731
185.055
-97.38
-78.2527
-87.0032
-87.0112
134.323
180.108
170.649
170.645
-59.472
-60.799
-66.4223
-56.3733
-58.1159
-59.5088
-63.9374
-54.6308
-46.8188
-51.6583
-52.4982
-49.9864
-32.8846
-31.8666
-32.9519
-31.7119
-39.9065
-40.618
-41.0072
-41.9237
-32.8036
-31.4776
-32.4893
-32.1066
-44.4445
-45.6649
-44.7159
-45.8074
-37.7047
-38.4095
-37.7455
-38.7225
-33.5246
-27.9676
-31.9373
-31.9066
105.694
181.846
147.923
149.045
-64.924
-62.8611
-59.9514
-68.2626
-27.0128
-23.6117
-26.4491
-21.8746
-30.9684
-33.5722
-32.4702
-32.3159
-24.3288
-25.8643
-24.7961
-26.6617
-50.4224
-49.1904
-51.2905
-47.9053
-40.7168
-39.7037
-42.0812
-38.1115
-96.0632
-87.4824
-108.015
-103.234
161.367
189.009
185.026
158.689
-59.3747
-60.7024
-66.3292
-56.2726
-58.0823
-59.4989
-63.9273
-54.6011
-45.5363
-50.5347
-48.7461
-51.2481
-31.9474
-29.896
-31.9458
-29.5981
-43.5929
-44.8583
-43.9728
-44.9228
-36.7339
-37.5796
-37.3117
-37.0097
-64.8242
-62.7606
-68.1667
-59.851
-27.0184
-23.6255
-21.878
-26.4417
-49.7034
-48.4106
-47.3707
-50.3622
-40.3873
-39.5022
-37.7785
-41.8442
-35.0237
-35.3832
-35.4492
-34.8882
-37.8536
-38.5067
-38.1264
-38.7906
-48.4172
-52.4001
-50.2457
-50.3756
-41.0535
-38.725
-39.2521
-40.9953
-44.5476
-49.3175
-46.5858
-46.6242
-39.7101
-39.6604
-39.4818
-39.4309
-34.8684
-35.626
-34.2305
-36.0052
-38.671
-42.8951
-39.243
-39.5055
-42.8687
-40.1578
-41.3449
-41.2804
-41.8256
-38.5744
-40.0548
-40.1155
-44.0828
-40.4361
-41.8715
-42.8252
-78.0098
-90.2388
-86.9023
-84.6156
8.05646
-5.2131
1.77784
1.76154
-43.2151
-77.9309
-58.0885
-57.3763
-78.0405
-86.8002
-81.5526
-81.5167
-53.1078
-46.5864
-49.6644
-49.5779
-34.8812
-35.2392
-35.3213
-34.729
-36.6369
-38.2797
-37.5609
-38.4795
-48.2332
-52.3004
-50.2382
-50.2042
-40.9158
-38.591
-39.1219
-40.8577
-34.6728
-35.4585
-35.8231
-34.0474
-38.2654
-42.341
-38.7712
-39.0456
-43.9305
-40.285
-42.6744
-41.7196
-77.8361
-90.1397
-84.4818
-86.7325
-111.919
-102.129
-104.22
-86.7912
-50.3032
-49.1896
-50.991
-49.7041
-52.0178
-49.9553
-53.7456
-51.2085
-66.8556
-67.5968
-93.0807
-87.009
-111.883
-102.034
-104.089
-86.6865
-66.7879
-67.585
-93.0658
-86.9144
-51.871
-49.8091
-53.6131
-51.0745
-50.1756
-49.018
-50.8726
-49.5717
-98.3895
-86.98
-87.1203
-77.6424
-98.3819
-86.9612
-87.1389
-77.6608
-45.2478
-44.0243
-48.1134
-46.1385
-45.3274
-44.0491
-48.1717
-46.2551
-36.1032
-36.4186
-34.4791
-31.2822
-11.831
-1.00957
-11.6721
-2.5218
-11.8228
-0.997611
-11.6696
-2.52059
-36.0331
-36.3763
-34.3958
-31.286
161.193
141.807
157.712
158.976
129.863
95.5207
167.889
146.068
93.7041
129.933
145.752
167.893
141.884
161.288
159.082
157.775
-37.4904
-38.8979
-36.7138
-38.1549
-34.0974
-33.0198
-34.5001
-33.6419
-40.4133
-42.3589
-39.0039
-41.2147
-46.7029
-48.238
-43.7782
-44.5303
-37.3734
-38.7647
-36.6106
-38.0327
-46.5535
-48.0838
-43.6313
-44.3824
-40.2387
-42.2137
-38.8326
-41.0661
-33.8984
-32.8255
-34.3146
-33.4547
-38.5867
-39.0309
-38.7156
-38.9992
-39.0173
-39.0237
-38.8455
-38.4291
-41.3194
-40.1314
-41.2077
-39.1685
-40.4849
-41.3613
-39.7493
-41.1698
-70.3543
-43.7873
-70.9845
-54.0052
-68.774
-72.6585
-77.004
-78.3901
-72.5131
-68.6209
-78.3036
-76.8996
-43.6874
-70.1736
-53.9378
-71.5738
-41.7428
-38.7465
-43.1012
-39.8038
-51.2372
-53.3823
-53.3388
-49.2313
-43.2954
-44.1767
-46.6146
-47.3114
-44.6963
-42.135
-44.2538
-41.828
-41.198
-38.3542
-42.5576
-39.3131
-44.2465
-41.7336
-43.7229
-41.3588
-41.9924
-42.9977
-45.408
-46.2498
-49.9788
-52.2171
-52.1154
-48.1751
-40.3537
-43.0951
-38.1355
-39.9932
-39.7898
-44.1683
-38.1718
-40.0625
-37.3033
-38.3536
-39.7963
-37.5155
-42.7937
-43.3783
-41.7754
-40.4717
-50.6644
-53.3268
-47.1693
-49.7922
-32.226
-34.1924
-33.0957
-34.9147
-31.4239
-33.4825
-32.6566
-34.4408
-50.4554
-53.1604
-46.986
-49.6512
-33.7405
-34.1452
-33.2294
-33.3309
-33.412
-32.8373
-32.6769
-32.5017
-27.768
-29.9579
-26.8195
-29.0831
-32.0924
-30.9101
-31.5967
-29.9448
-119.563
28.3916
-129.773
-77.9909
-104.713
-112.301
-42.5214
-37.5148
-43.2937
-38.3041
-47.2821
-42.1317
-46.0063
44.7974
-23.32
27.6519
-47.882
-31.5757
-41.0251
-34.2592
-32.11
-32.6368
-38.5411
-34.4388
-129.758
-79.5297
-119.636
28.8573
-106.283
-112.253
-43.1147
-38.5779
-41.4019
-36.878
-46.1946
-41.5078
-22.734
27.945
-46.0351
45.1955
-47.9746
-31.5033
-30.4637
-30.2879
-39.2828
-32.4862
-37.1039
-33.0834
-46.972
-43.1443
-38.0128
-38.9951
-43.6741
-41.0041
-39.8659
-39.5794
-45.5123
-44.387
-34.9101
-42.6938
-33.6524
-36.5232
-40.5848
-43.9779
-54.6671
-33.9493
-54.5026
-53.5531
-56.2066
-77.5039
-16.7896
-46.6775
-47.155
-50.2811
-44.8674
-45.4204
-46.6641
-51.7359
-56.8807
-56.3517
-46.7159
-43.0056
-39.7071
-39.2955
-37.8862
-38.7906
-43.4975
-40.8251
-45.1673
-44.1549
-44.3609
-42.2881
-34.7294
-40.8271
-33.6211
-36.2782
-54.4199
-33.8145
-17.8453
-46.4627
-54.3345
-53.4008
-56.0678
-77.3993
-46.8596
-50.0305
-56.5821
-56.2093
-44.6636
-45.155
-46.4924
-51.5113
-73.0623
36.8475
-66.4504
59.1468
-76.9556
-67.2838
118.993
130.978
-124.009
-116.678
-123.937
-149.145
-110.178
-110.172
38.1376
38.0391
-72.6459
-67.0132
-48.7636
-47.1334
-65.1776
-54.0285
-62.0325
-52.4682
-40.8081
-34.4631
-40.4232
-33.6468
-42.9961
-42.3215
-33.1551
-32.685
-38.3398
-35.3172
-37.5054
-35.8496
-38.1932
-38.6559
-33.6689
-33.5678
-43.8232
-40.1064
-41.9851
-37.5147
-43.3034
-44.4148
-38.3978
-37.5805
-21.5801
11.0947
-21.6001
11.1031
-30.3166
-30.3317
61.154
61.2912
-55.0397
-37.9557
-54.9536
-33.8199
-61.8308
-66.4073
-31.179
-28.9116
-29.5716
-26.5849
-28.9621
-23.7016
-29.9195
-29.6107
-22.6774
-24.7493
-42.9647
-39.6771
-50.2251
-48.5625
-46.2871
-50.0384
-44.1015
-39.9145
-73.0171
37.3783
-66.4689
59.2775
-76.969
-67.2304
130.963
119.114
-72.5723
-66.9554
-48.6595
-47.0492
-65.0841
-53.9283
-61.9896
-52.4092
-39.582
-33.5052
-38.9022
-32.1275
-40.9828
-41.7528
-32.4742
-31.4842
-42.6806
-37.8239
-41.5848
-37.0851
-42.5385
-43.3748
-36.7948
-37.0074
-54.9949
-37.8881
-54.8614
-33.7727
-66.3068
-61.7266
-28.8984
-31.1659
-42.1644
-39.0273
-49.7188
-48.1801
-49.4143
-45.5153
-39.4471
-43.7606
-35.2311
-37.7618
-34.1562
-38.2033
-35.0372
-34.4421
-37.0545
-37.8249
-44.5848
-42.0892
-46.2117
-44.8946
-46.3312
-46.7077
-41.4024
-42.9754
-40.6402
-40.4595
-40.663
-40.404
-42.7994
-42.6803
-40.0867
-40.0184
-33.8499
-36.3431
-37.5332
-38.8668
-34.268
-36.033
-37.5512
-38.5367
-43.5236
-42.3676
-41.4378
-43.7272
-41.486
-42.1148
-42.6015
-42.7129
-51.7513
-63.4249
-48.9457
-57.1848
-46.3824
-47.7746
-72.1131
-65.9986
4.81985
-12.1566
4.84697
-12.1106
8.26574
8.25128
-24.9197
-24.927
-68.1773
-60.614
-68.1233
-60.5271
-73.9958
-73.9588
-56.889
-56.8433
-35.1013
-37.3912
-33.9624
-37.8715
-34.9086
-34.2824
-36.4222
-37.5898
-44.4282
-41.9354
-46.06
-44.7493
-46.5453
-46.0585
-41.2615
-42.8334
-33.6311
-36.0493
-37.2875
-38.5374
-35.8144
-34.0568
-37.2038
-38.1766
-51.569
-63.23
-48.7709
-56.9843
-47.6147
-46.2182
-65.8118
-71.948
-74.9078
-74.4564
-66.9467
-57.7546
-59.1451
-66.8631
-55.1887
-55.7637
-74.8062
-74.3499
-66.8553
-57.6552
-66.7645
-59.0424
-55.6574
-55.0836
-70.9079
-70.9087
-64.8501
-55.6409
-64.8498
-55.6229
-52.1781
-52.1954
-25.797
-25.7998
-24.5342