# vtk DataFile Version 2.0
tet_velo
ASCII
DATASET UNSTRUCTURED_GRID
POINTS 29498 float
-0.685 0.135 -1.94034
-0.635 0.235 2.08215
-0.653342 0.665 -1.935
-0.505 0.93721 2.015
0.685 0.135 -1.94052
0.635 0.235 2.08215
0.65391 0.665 -1.935
0.505 0.93726 2.015
-0.684748 0.151919 -0.59951
-0.667257 0.186076 0.74132
-0.733934 0.885776 -0.618333
-0.685893 0.977919 0.698334
0.684738 0.151929 -0.59963
0.661485 0.191848 0.74126
0.734178 0.885658 -0.618333
0.685952 0.977822 0.698334
-1.37884 -0.285295 -2.99228
-1.377 -0.208802 -1.92928
-1.36551 -0.184179 -0.587823
-1.31735 -0.169933 0.758498
-1.26417 -0.137408 2.10037
-1.26113 -0.110118 3.16537
-1.27562 -0.0801763 4.22666
-1.37877 0.0316285 -2.99826
-1.38091 0.130096 -1.93791
-1.37711 0.17633 -0.601164
-1.31199 0.1989 0.737756
-1.23125 0.223263 2.07497
-1.24286 0.249379 3.13963
-1.26902 0.279991 4.20171
-1.36704 0.635304 -3.00348
-1.3695 0.731852 -1.94215
-1.40664 0.896725 -0.621883
-1.32141 0.967944 0.696676
-1.16633 0.951733 2.01742
-1.21092 0.974913 3.08308
-1.26388 1.00948 4.14906
-1.35181 1.67508 -3.02946
-1.35553 1.78645 -1.97175
-1.36869 1.95504 -0.659316
-1.35408 2.06861 0.647906
-1.31502 2.10205 1.9606
-1.30309 2.11558 3.01886
-1.31301 2.13851 4.08219
-0.694868 -0.284537 -2.99388
-0.687781 -0.205133 -1.9316
-0.683878 -0.196221 -0.587551
-0.665475 -0.178768 0.761534
-0.640238 -0.13434 2.1057
-0.643178 -0.109866 3.16898
-0.654342 -0.0824204 4.22874
-0.695655 0.0251916 -2.99878
-0.641443 0.249526 3.14261
-0.655711 0.277093 4.20328
-0.683346 0.605269 -3.00051
-0.614036 0.96793 3.08259
-0.656867 1.00432 4.14895
-0.664864 1.65508 -3.02653
-0.664732 1.76796 -1.96851
-0.68589 1.95062 -0.657368
-0.699027 2.0726 0.647657
-0.687899 2.10195 1.9589
-0.682665 2.1127 3.01716
-0.690769 2.13538 4.08096
0.674565 -0.284368 -2.99399
0.684573 -0.205012 -1.93174
0.681371 -0.1955 -0.587659
0.661285 -0.17487 0.761474
0.638475 -0.132838 2.10568
0.605061 -0.108692 3.16896
0.590875 -0.0811535 4.22872
0.668563 0.0252863 -2.99889
0.577787 0.250312 3.1426
0.572486 0.278211 4.20326
0.665857 0.605339 -3.00057
0.53116 0.968538 3.08258
0.547566 1.00528 4.14893
0.704092 1.65531 -3.02657
0.711155 1.76817 -1.96854
0.69124 1.95092 -0.657395
0.629151 2.0731 0.647635
0.567825 2.10265 1.95888
0.551776 2.11354 3.01714
0.549775 2.13634 4.08093
1.36316 -0.284844 -2.99248
1.37417 -0.208362 -1.92951
1.36877 -0.182512 -0.588006
1.32696 -0.164485 0.758386
1.27525 -0.133633 2.10031
1.24025 -0.107327 3.16532
1.22482 -0.077514 4.2266
1.35974 0.0319234 -2.99846
1.37783 0.130269 -1.93814
1.38103 0.177262 -0.601338
1.32361 0.204554 0.737656
1.24583 0.226505 2.07493
1.20975 0.251713 3.13959
1.20274 0.282419 4.20167
1.35816 0.635529 -3.0036
1.37246 0.731934 -1.94225
1.41221 0.896945 -0.621959
1.32986 0.969872 0.696628
1.16933 0.953848 2.01739
1.15641 0.976771 3.08305
1.17172 1.01159 4.14902
1.38701 1.6756 -3.02955
1.39368 1.78696 -1.97182
1.37368 1.95576 -0.659378
1.30018 2.06979 0.647855
1.21714 2.10363 1.96055
1.18762 2.11738 3.01881
1.18232 2.14049 4.08214
-0.709831 0.4 -1.97833
0 0.144267 -1.93116
-0.687966 0.140367 -1.26993
-0.625756 0.586105 2.10433
0 0.255282 2.06187
-0.652866 0.2088 1.41174
0.000283986 0.736528 -2.00653
-0.726163 0.807913 -1.27667
0 0.957056 2.03482
-0.641358 1.00348 1.35667
0.710346 0.4 -1.97865
0.687913 0.14042 -1.27008
0.625752 0.58613 2.10433
0.652646 0.209021 1.41171
0.726373 0.807658 -1.27667
0.641364 1.00343 1.35667
-0.678671 0.166329 0.070905
-0.82649 0.518847 -0.608922
-4.94962e-06 0.156401 -0.59957
-0.837653 0.581998 0.719827
-0.00288595 0.166459 0.74129
-0.714906 0.93684 0.0400001
0.000122153 1.05881 -0.618333
2.96084e-05 1.2703 0.698334
0.671125 0.173875 0.070815
0.827032 0.518793 -0.608982
0.837481 0.584835 0.719797
0.715225 0.9369 0.0400001
-0.893004 0.459424 -1.2733
-0.835323 0.550422 0.0554525
-0.886271 0.584051 1.3842
-2.47481e-06 0.159423 -1.27
-0.00144545 0.164163 0.07086
-0.00144298 0.228471 1.41172
0.000141993 0.4 -2.25398
0 0.586117 2.25335
0.00020307 0.887226 -1.27667
7.58806e-05 1.27425 0.0400001
1.48042e-05 1.1176 1.35667
0.893 0.459397 -1.27337
0.835713 0.551814 0.0554075
0.886253 0.585483 1.38419
-1.03295 0.132548 -1.93913
-0.686391 -0.0350666 -1.93597
-0.690327 0.0800958 -2.46956
-0.933123 0.229131 2.07856
-0.637619 0.0503299 2.09392
-0.638222 0.242263 2.61238
-1.01142 0.698426 -1.93858
-0.668344 0.635135 -2.46775
-0.659037 1.21648 -1.95175
-0.835664 0.944472 2.01621
-0.559518 0.95257 2.54879
-0.596449 1.51958 1.98695
0.684786 -0.0350062 -1.93613
0.676782 0.0801432 -2.4697
1.03141 0.132634 -1.93933
0.636738 0.0510812 2.09391
0.606393 0.242656 2.61237
0.940417 0.230753 2.07854
0.659884 0.63517 -2.46778
0.682533 1.21658 -1.95177
1.01319 0.698467 -1.93863
0.51808 0.952899 2.54879
0.536412 1.51996 1.98694
0.837165 0.945554 2.01619
-1.03093 0.164125 -0.600337
-0.684313 -0.0221513 -0.593531
-0.989625 0.192488 0.739538
-0.666366 0.00365441 0.751427
-1.07029 0.89125 -0.620108
-0.709912 1.4182 -0.637851
-1.00365 0.972932 0.697505
-0.69246 1.52526 0.672995
0.683054 -0.0217858 -0.593645
1.03288 0.164595 -0.600484
0.661385 0.00848893 0.751367
0.992545 0.198201 0.739458
0.712709 1.41829 -0.637864
1.0732 0.891302 -0.620146
0.657551 1.52546 0.672984
1.0079 0.973847 0.697481
-1.37792 -0.247049 -2.46078
-1.3788 -0.126833 -2.99527
-1.03685 -0.284916 -2.99308
-1.37125 -0.196491 -1.25855
-1.37895 -0.039353 -1.9336
-1.03239 -0.206967 -1.93044
-1.34143 -0.177056 0.0853374
-1.37131 -0.00392448 -0.594494
-1.02469 -0.1902 -0.587687
-1.29076 -0.153671 1.42943
-1.31467 0.014483 0.748127
-0.991414 -0.174351 0.760016
-1.26265 -0.123763 2.63287
-1.24771 0.0429276 2.08767
-0.952204 -0.135874 2.10303
-1.26838 -0.0951469 3.69601
-1.252 0.0696309 3.1525
-0.952154 -0.109992 3.16717
-1.27232 0.0999072 4.21418
-0.964982 -0.0812983 4.2277
-1.37984 0.0808622 -2.46809
-1.3729 0.333466 -3.00087
-1.03721 0.0284101 -2.99852
-1.37901 0.153213 -1.26954
-1.3752 0.430974 -1.94003
-1.34455 0.187615 0.0682958
-1.39187 0.536528 -0.611523
-1.27162 0.211081 1.40636
-1.3167 0.583422 0.717216
-1.23705 0.236321 2.6073
-1.19879 0.587498 2.04619
-1.25594 0.264685 3.67067
-1.22689 0.612146 3.11136
-0.942153 0.249453 3.14112
-1.26645 0.644736 4.17539
-0.962367 0.278542 4.2025
-1.36827 0.683578 -2.47282
-1.35943 1.15519 -3.01647
-1.02519 0.620287 -3.00199
-1.38807 0.814289 -1.28202
-1.36251 1.25915 -1.95695
-1.36402 0.932335 0.0373969
-1.38767 1.42588 -0.640599
-1.24387 0.959839 1.35705
-1.33774 1.51828 0.672291
-1.18862 0.963323 2.55025
-1.24067 1.52689 1.98901
-1.2374 0.992198 3.61607
-1.25701 1.54525 3.05097
-0.912477 0.971421 3.08283
-1.28844 1.574 4.11563
-0.960374 1.0069 4.14901
-1.35367 1.73077 -2.5006
-1.00834 1.66508 -3.02799
-1.36211 1.87075 -1.31553
-1.01013 1.7772 -1.97013
-1.36139 2.01183 -0.00570535
-1.02729 1.95283 -0.658342
-1.33455 2.08533 1.30425
-1.02655 2.0706 0.647781
-1.30905 2.10881 2.48973
-1.00146 2.102 1.95975
-1.30805 2.12705 3.55052
-0.99288 2.11414 3.01801
-1.00189 2.13695 4.08158
-0.691325 -0.244835 -2.46274
-0.695262 -0.129672 -2.99633
-0.0101516 -0.284452 -2.99394
-0.685829 -0.200677 -1.25957
-0.00160408 -0.205073 -1.93167
-0.674676 -0.187494 0.0869916
-0.00125341 -0.195861 -0.587605
-0.652857 -0.156554 1.43362
-0.0020949 -0.176819 0.761504
-0.641708 -0.122103 2.63734
-0.000881448 -0.133589 2.10569
-0.64876 -0.096143 3.69886
-0.642311 0.0698301 3.1558
-0.0190587 -0.109279 3.16897
-0.655027 0.0973361 4.21601
-0.0317339 -0.081787 4.22873
-0.689501 0.31523 -2.99964
-0.0135457 0.025239 -2.99883
-0.648577 0.263309 3.67295
-0.62774 0.608728 3.1126
-0.0318283 0.249919 3.1426
-0.656289 0.640707 4.17612
-0.0416123 0.277652 4.20327
-0.674105 1.13018 -3.01352
-0.00874467 0.605304 -3.00054
-0.635451 0.986126 3.61577
-0.648351 1.54031 3.04988
-0.0414379 0.968234 3.08258
-0.673818 1.56985 4.11495
-0.0546503 1.0048 4.14894
-0.664798 1.71152 -2.49752
0.0196138 1.65519 -3.02655
-0.675311 1.85929 -1.31294
0.0232114 1.76806 -1.96852
-0.692458 2.01161 -0.00485591
0.00267501 1.95077 -0.657382
-0.693463 2.08727 1.30328
-0.034938 2.07285 0.647646
-0.685282 2.10732 2.48803
-0.060037 2.1023 1.95889
-0.686717 2.12404 3.54906
-0.0654446 2.11312 3.01715
-0.070497 2.13586 4.08095
0.679569 -0.24469 -2.46287
0.671564 -0.129541 -2.99644
1.01886 -0.284606 -2.99324
0.682972 -0.200256 -1.2597
1.02937 -0.206687 -1.93063
0.671328 -0.185185 0.0869076
1.02507 -0.189006 -0.587832
0.64988 -0.153854 1.43358
0.994121 -0.169678 0.75993
0.621768 -0.120765 2.63732
0.956863 -0.133235 2.10299
0.597968 -0.0949228 3.69884
0.591424 0.07081 3.15578
0.922656 -0.10801 3.16714
0.58168 0.0985287 4.21599
0.907846 -0.0793337 4.22766
0.66721 0.315313 -2.99973
1.01415 0.0286049 -2.99867
0.575136 0.264261 3.67293
0.554474 0.609425 3.11259
0.893767 0.251012 3.1411
0.560026 0.641747 4.1761
0.887612 0.280315 4.20246
0.684975 1.13032 -3.01357
1.01201 0.620434 -3.00208
0.539363 0.986911 3.61575
0.541468 1.54104 3.04986
0.843784 0.972655 3.08281
0.548671 1.57081 4.11493
0.859645 1.00844 4.14898
0.707624 1.71174 -2.49755
1.04555 1.66545 -3.02806
0.701198 1.85954 -1.31297
1.05242 1.77756 -1.97018
0.660195 2.01201 -0.00487995
1.03246 1.95334 -0.658386
0.598488 2.08787 1.30326
0.964667 2.07144 0.647745
0.5598 2.1081 2.48801
0.892484 2.10314 1.95972
0.550776 2.12494 3.54904
0.8697 2.11546 3.01798
0.866049 2.13842 4.08154
1.36867 -0.246603 -2.461
1.36145 -0.12646 -2.99547
1.37147 -0.195437 -1.25876
1.376 -0.0390464 -1.93383
1.34786 -0.173499 0.0851903
1.3749 -0.00262522 -0.594672
1.3011 -0.149059 1.42935
1.32528 0.0200342 0.748021
1.25775 -0.12048 2.63281
1.26054 0.0464361 2.08762
1.23253 -0.0924206 3.69596
1.225 0.0721928 3.15246
1.21378 0.102453 4.21413
1.36878 0.0810961 -2.4683
1.35895 0.333726 -3.00103
1.37943 0.153765 -1.26974
1.37514 0.431101 -1.9402
1.35232 0.190908 0.0681588
1.39662 0.537103 -0.611648
1.28472 0.21553 1.40629
1.32673 0.587213 0.717142
1.22779 0.239109 2.60726
1.20758 0.590177 2.04616
1.20624 0.267066 3.67063
1.18308 0.614242 3.11132
1.18723 0.647007 4.17534
1.36531 0.683732 -2.47293
1.37259 1.15556 -3.01658
1.39234 0.81444 -1.28211
[...]
POINT_DATA 29498
VECTORS point_vectors float
-0.832672 -4.60358 8.74648
-0.198164 0.40237 1.79267
-0.561442 0.792829 1.68027
-0.0250723 -0.063163 0.114941
0.82741 -4.56365 8.68236
0.173331 0.407968 1.80177
0.539708 0.768922 1.63489
0.0223759 -0.0574026 0.109921
-0.00963962 0.00893634 0.187406
0 0 0
-0.196338 -0.109654 0.562311
0.000245914 0.000349869 0.00114847
0.00959484 0.00870013 0.20038
0 0 0
0.190916 -0.105825 0.53998
-0.000172376 0.000245893 0.000804469
-0.63383 -0.367886 19.8139
-1.2827 -0.953277 20.6015
-0.268515 -0.389156 21.3879
0.189257 -0.100177 21.44
0.706794 0.418561 21.2541
0.911288 0.525856 20.6454
0.614438 0.339518 20.838
-0.785165 -0.277495 19.6657
-2.06409 -0.852895 20.4317
-0.416113 -0.548435 21.485
0.0934609 -0.30927 21.5325
1.12121 0.29884 20.8397
1.2046 0.31049 20.5757
0.818099 0.217283 20.9177
-0.851071 0.111884 19.545
-2.32328 0.400832 20.2118
-1.2605 -0.312117 21.3809
-0.306447 -0.312902 21.7219
0.911723 -0.663702 20.7695
1.11218 -0.670658 20.6662
0.783627 -0.545933 20.4391
-0.472147 0.399348 19.8847
-0.813212 0.708551 20.2886
-0.76538 0.540459 20.9767
-0.280576 0.0748394 21.343
0.0938863 -0.320088 21.2037
0.237397 -0.391864 20.9425
0.208162 -0.371273 20.6133
-0.598386 -0.776373 19.3352
-1.2184 -3.15551 21.0951
-0.113173 -0.187332 21.5862
0.20631 0.282739 20.3264
0.218478 1.05587 19.6873
0.22759 1.19667 19.0049
0.21492 1.04232 19.2124
-0.775052 -0.63186 18.8828
0.589678 1.54754 9.96227
1.33834 0.974234 12.828
-0.923865 0.192054 18.5299
1.12095 -0.53868 8.39895
1.35505 -0.673334 13.131
-0.363338 0.666821 19.5738
-0.709506 1.43697 20.0605
-0.812607 1.32941 21.0148
-0.258437 0.314131 21.6386
0.0645209 -0.388511 21.3058
0.163004 -0.596566 20.966
0.148065 -0.393646 20.8473
0.584223 -0.775823 19.3278
1.21115 -3.16941 21.1127
0.118746 -0.185444 21.5757
-0.208054 0.284531 20.2275
-0.210558 1.0664 19.6011
-0.141611 1.19714 18.8895
-0.12699 1.15883 18.8069
0.763246 -0.648711 18.8508
-0.314704 1.39416 8.64562
-1.21339 1.13178 12.2514
0.907637 0.194163 18.5037
-0.900357 -0.476781 5.82748
-1.4685 -0.674458 10.902
0.375323 0.651808 19.5929
0.738393 1.38875 20.0818
0.814252 1.322 21.0152
0.251204 0.348925 21.6588
-0.0365382 -0.391197 21.3192
-0.121615 -0.626664 20.874
-0.160345 -0.411382 21.0407
0.633758 -0.385125 19.8063
1.28183 -0.970859 20.605
0.263748 -0.392055 21.3896
-0.183262 -0.108502 21.4328
-0.701858 0.400099 21.251
-0.921373 0.543727 20.6214
-0.612386 0.381614 20.9681
0.794741 -0.284067 19.6526
2.07752 -0.859769 20.4293
0.418309 -0.546708 21.4799
-0.0827624 -0.308731 21.5269
-1.09935 0.255751 21.0036
-1.26267 0.372963 20.203
-0.920873 0.27767 20.9327
0.854548 0.111861 19.5408
2.3121 0.393992 20.216
1.25233 -0.308148 21.3789
0.301776 -0.309882 21.7149
-0.900658 -0.658951 20.7628
-1.09697 -0.719148 20.5119
-0.900236 -0.615801 20.4146
0.471445 0.385696 19.9035
0.806044 0.677893 20.2969
0.764368 0.537671 20.9754
0.29286 0.0847413 21.3801
-0.0906532 -0.340415 21.2131
-0.225326 -0.429602 20.9012
-0.139299 -0.340685 20.5732
-0.817561 -0.017084 0.954738
-0.000171537 -0.00423546 0.701665
-0.0238487 0.00531295 0.245515
0 0 0
-0.000688143 0.0173199 0.105119
-0.0255071 0.0138146 0.41934
0.000142129 0.0908838 0.245775
-0.111178 -0.0266665 0.363443
-0.000564765 0.00409346 -0.0275061
0.0224971 0.00349727 0.105548
0.854032 -0.0175644 0.995016
0.0239211 0.00530449 0.24538
0 0 0
0.0235115 0.014165 0.413461
0.105976 -0.0257261 0.345384
-0.022433 0.00374396 0.104497
0.00264864 0.000965831 0.0986072
0.000344812 -0.000973412 0.0274334
0 0 0
0 0 0
-0.000932133 0.0344879 0.345821
0 0 0
1.31398e-05 0.0525523 0.123485
-2.37717e-05 -0.000732904 0.00875148
2.71936e-18 -2.78997e-18 -9.21058e-17
-0.00028948 -0.000875731 0.0252545
0 0 0
0 0 0
0 0 0
-0.0002332 0.0121235 0.060989
0.00315083 0.0138222 0.0913247
0 0 0
0 0 0
0 0 0
-0.0277143 -1.27719 1.05717
-0.000270506 0.000447768 -0.00371754
5.52441e-05 0.000449971 0.00336789
8.00054e-05 0.00584272 0.0438491
-4.40155e-05 0.000478128 -0.000741508
0 0 0
0.000189889 0.0119483 0.0595911
-0.00328372 0.0141426 0.093333
-3.89276 -2.51102 20.1324
-1.68571 -5.10813 21.5383
-2.22704 -2.1688 17.7183
0.96091 1.40509 13.2928
-0.138519 1.15357 13.5309
-0.101833 0.99512 7.16069
-4.66316 1.55159 19.5163
-2.85493 1.16168 16.6274
-1.76965 2.82597 19.738
1.21281 -0.221715 11.6027
0.22216 -0.126166 3.85192
0.132835 -0.810808 20.8826
1.67937 -5.11659 21.5636
2.22526 -2.21568 17.666
3.91103 -2.52278 20.1292
0.143429 1.13879 13.4771
0.279368 0.882675 6.6545
-0.975512 1.35843 13.5455
2.86537 1.19601 16.5677
1.79805 2.755 19.7552
4.64923 1.54236 19.5283
-0.047162 -0.0390589 2.96397
-0.118235 -0.810446 20.8025
-1.21629 -0.214342 11.6461
0.22151 -0.219569 16.9892
-0.304738 0.174094 15.5994
-0.0974924 -0.0553325 14.411
0.467802 0.25519 14.0356
-2.18897 -0.888926 20.9778
-2.2228 2.05252 20.9661
-0.091777 -0.0199672 18.5486
-0.608885 0.248427 22.2967
0.310051 0.175836 15.5636
-0.215563 -0.235686 17.0832
-0.504611 0.239601 13.7147
0.117102 -0.0402876 14.413
2.22151 2.0399 20.9695
2.1796 -0.879688 21.0073
0.607192 0.268593 22.3456
0.132093 -0.0919486 18.8714
-1.02261 -0.699432 19.9904
-0.692636 -0.340097 19.7611
-0.653688 -0.554408 19.5954
-0.771209 -0.71584 21.3258
-1.67361 -0.96175 20.5217
-1.60573 -1.91572 20.6773
-0.0170539 -0.235501 21.3699
-0.31312 -0.458554 21.4245
-0.088703 -0.333136 21.5716
0.469396 0.161846 21.4559
0.18146 -0.192633 21.5228
0.294534 0.0387996 21.2972
0.833778 0.469326 21.0724
0.939802 0.409039 21.0749
0.661901 0.892519 20.7746
0.871963 0.512364 20.6875
1.0666 0.426633 20.7898
0.907819 0.824887 20.7334
0.705923 0.295549 20.9556
0.545902 0.593934 21.3218
-1.45047 -0.535915 19.7342
-0.848682 -0.150717 19.5667
-0.851787 -0.460838 19.3327
-1.23211 -0.751368 21.5114
-2.50371 -0.288399 20.2785
-0.104541 -0.452759 21.5378
-0.779639 -0.592595 21.4819
0.583636 -0.0387679 21.4738
-0.0899639 -0.388072 21.5424
1.21681 0.316533 20.7388
1.31412 -0.14869 20.1201
1.36727 0.0922867 19.9009
1.42649 -0.157799 20.1625
1.46384 1.15947 16.6106
1.10377 -0.171513 20.4244
1.1305 0.502155 18.5426
-1.55885 0.240785 19.5655
-0.683105 0.342184 19.6915
-0.956884 0.127841 19.1064
-1.80348 0.033419 21.2815
-1.41424 0.815091 20.2295
-0.841384 -0.372915 21.6134
-1.19292 0.375757 21.1675
0.318617 -0.438354 21.6373
-0.373094 -0.051236 21.5961
1.00325 -0.683398 20.7359
0.304944 -0.520708 21.3157
1.07539 -0.620448 20.5808
0.438068 -0.581651 21.1089
1.27783 -0.695847 16.8532
0.357382 -0.606419 20.5938
1.0601 -0.649958 19.3114
-0.657362 0.57736 20.0155
-0.456361 0.523016 19.7251
-0.847126 0.677118 20.6632
-0.859719 1.06739 20.1789
-0.573335 0.323424 21.2712
-0.851547 0.865963 21.037
-0.0526889 -0.145214 21.335
-0.321802 0.188576 21.4707
0.177746 -0.384191 21.0653
0.0872558 -0.361153 21.2696
0.234863 -0.38945 20.878
0.208698 -0.491394 20.8877
0.122463 -0.376637 20.5718
-1.1709 -1.93602 19.2976
-0.681844 -0.743896 19.1126
-0.0107541 -1.08112 19.0026
-0.330671 -0.992683 22.2745
-0.00456376 -3.36658 21.9477
0.0143676 0.0529177 20.7947
-0.00325568 -0.217646 21.212
0.23331 0.666024 19.8505
0.00143724 0.386095 19.5471
0.314316 1.21088 19.6596
-0.00193305 0.762147 18.6062
0.596402 1.31155 18.4379
0.428906 1.54817 16.2714
-0.00158887 1.02135 18.1305
0.498031 1.09077 16.689
-0.00741251 1.53406 17.1912
-0.910318 -0.284318 18.5413
-0.0348556 -0.960837 18.3139
1.26714 1.24003 11.7657
1.42775 0.274192 5.38633
-0.0377779 -0.130398 2.36811
1.9715 0.569925 10.5016
0.149671 0.612688 8.11528
-0.639481 0.690678 19.0628
-0.0167075 0.27579 17.7989
1.36021 -0.770995 11.2168
0.274752 -1.00459 20.8786
0.168054 0.00815397 -1.25807
0.28859 -0.782022 20.4284
0.126158 -1.76841 4.10819
-0.560285 1.12418 19.6708
0.0141642 0.796265 19.4237
-0.793036 1.41671 20.5685
0.0327374 1.82668 19.9529
-0.597545 0.924185 21.5153
0.00485325 1.86778 20.9773
-0.045477 -0.152786 21.5224
-0.00975055 0.491113 21.7839
0.107898 -0.502591 21.126
0.00434909 -0.408322 21.371
0.200975 -0.578602 20.8397
0.0149514 -0.72643 20.7789
0.0268647 -0.787122 20.269
1.16211 -1.96368 19.2763
0.670417 -0.757706 19.0837
0.660229 -0.555331 19.5862
0.331173 -0.98695 22.2705
1.60836 -1.93145 20.6814
-0.00967089 0.0669073 20.7496
0.0917682 -0.332857 21.5688
-0.230293 0.668755 19.7978
-0.293859 0.0321126 21.283
-0.278454 1.18458 19.4512
-0.665311 0.881089 20.7744
-0.518916 1.36584 18.1569
-0.286424 1.52208 16.0431
-0.887416 0.856032 20.7825
-0.379837 1.22327 16.2175
-0.559747 0.591953 20.9148
0.894197 -0.291544 18.509
0.867342 -0.473707 19.2862
-1.17214 1.34968 11.2061
-1.10833 0.233058 3.33536
-1.36149 1.33302 15.3627
-2.07578 0.588078 8.38342
-1.20822 0.574586 17.2071
0.6441 0.685079 19.0737
0.959801 0.131475 19.0855
-1.3869 -0.771279 8.97915
-0.266724 -0.991471 20.8864
-1.31626 -0.664151 15.2599
-0.273129 -0.79987 20.5188
-1.16085 -0.655138 17.2818
0.582752 1.09323 19.6967
0.463441 0.504578 19.7403
0.813102 1.38501 20.5735
0.865385 1.01986 20.1903
0.585623 0.951429 21.5307
0.851318 0.858654 21.0363
0.0572936 -0.139809 21.5379
0.317451 0.202743 21.4989
-0.0760064 -0.519067 21.1145
-0.0832832 -0.370191 21.2867
-0.182797 -0.614675 20.8137
-0.199293 -0.527646 20.963
-0.127601 -0.367048 20.6043
1.02354 -0.707842 19.9846
0.695628 -0.347783 19.7478
0.770063 -0.725533 21.3291
1.68255 -0.973528 20.5193
0.0148052 -0.238862 21.3619
0.315844 -0.461327 21.4233
-0.466104 0.151239 21.4495
-0.171679 -0.198904 21.5123
-0.831239 0.465841 21.0571
-0.921396 0.381171 21.1062
-0.901757 0.559265 20.6188
-1.07592 0.448784 20.7709
-0.710865 0.343393 21.1115
1.46182 -0.546554 19.7204
0.858334 -0.156741 19.5528
1.23407 -0.751157 21.5104
2.50422 -0.287912 20.2762
0.107744 -0.451677 21.5279
0.781242 -0.587938 21.4766
-0.569085 -0.0552855 21.5288
0.0905788 -0.381212 21.5554
-1.22446 0.324174 20.6434
-1.28577 -0.171987 20.2195
-1.39127 0.240587 19.5589
-1.53111 -0.0860877 19.5974
-1.21549 -0.0971882 20.4278
1.56361 0.243294 19.5644
0.678513 0.339174 19.7046
1.79429 0.0320876 21.2774
1.39559 0.786752 20.2401
0.830845 -0.368149 21.6066
1.18683 0.366733 21.1668
-0.317965 -0.435022 21.6416
0.382403 -0.0456289 21.6094
-1.01295 -0.69495 20.6229
-0.301746 -0.538374 21.3255
-1.12638 -0.657825 20.5485
-0.433778 -0.636103 21.1536
-0.342961 -0.644628 20.4107
0.650348 0.552151 20.0284
0.837107 0.661605 20.6654
0.57979 0.334357 21.2759
0.0595386 -0.15288 21.364
-0.168556 -0.407531 21.0766
-0.262263 -0.432368 20.9165
-1.19676 -0.635434 19.8746
-1.59512 -2.15412 18.6918
-1.20069 -1.19536 19.7033
-1.90429 -1.07675 19.0527
-0.736644 -0.518099 19.4789
-2.4993 -2.41883 20.5355
-0.980108 -0.765625 21.4503
-0.388455 -0.395117 18.6258
-0.618141 -1.01304 21.7587
-0.944733 -1.32327 21.056
0.0470394 -0.306639 20.878
-0.0253022 -0.326366 21.4451
0.029913 0.19792 14.4037
0.119355 -0.130688 21.4047
0.219469 -0.0351436 15.5712
0.300531 -0.0425952 19.0202
0.550301 0.0745058 21.5207
0.141358 0.650555 13.5087
0.493946 0.472764 21.012
0.294603 0.625034 12.9458
0.855983 1.14879 18.3015
1.05125 0.463732 20.829
0.0631646 1.34374 14.3608
0.823973 0.94226 20.6391
1.18509 1.20961 15.5356
1.15183 1.12845 18.4097
1.10594 0.413503 20.3388
0.789635 1.30586 15.9882
0.917145 0.981839 20.4219
1.37563 0.792175 17.1587
0.812957 0.587876 19.076
-1.60257 -0.222956 19.5855
-2.95919 -0.786237 16.5581
-2.30811 0.495084 18.6114
-0.942726 -0.178652 19.1375
-5.60558 -0.554818 19.4123
-1.63916 -0.466393 21.5389
-2.87352 -0.0529565 21.7932
-0.211214 -1.18862 17.2386
-0.397205 -0.561595 21.6192
-1.26817 -0.786866 20.004
0.0325751 0.566013 14.1898
0.57444 -0.2493 21.202
1.03994 0.359418 15.7455
1.22815 0.350524 8.06452
1.3872 -0.204231 20.3007
0.289868 0.361267 2.18562
1.25912 -0.437788 15.2125
2.06836 0.172975 15.0139
1.28077 -0.0713884 19.6624
1.84649 0.589042 8.47867
1.29502 -0.730401 18.2448
1.43552 0.118658 18.4067
-1.08942 0.609271 19.7923
-1.28153 1.73294 18.8224
-0.68116 0.831242 19.8349
-0.714654 0.499349 19.4094
-1.81619 1.60911 20.002
-1.38669 0.637976 20.8279
-1.80154 2.09306 20.6654
-0.894643 1.03156 20.63
-1.75021 0.853768 21.186
-0.870542 0.168434 21.4796
-1.84698 1.36049 22.289
-0.655304 0.562746 21.4147
-0.520809 0.0363842 21.8828
0.0411302 -0.294406 21.515
-0.0404483 -0.510175 21.7579
-0.0701048 -0.151179 21.4483
0.247384 -0.706661 21.3945
0.411977 -0.579451 21.1458
0.223502 -0.884715 20.7097
0.148134 -0.45477 21.1081
0.390571 -0.80876 21.1365
0.471699 -0.593549 20.8331
0.289378 -0.996879 20.54
0.265923 -0.47398 20.9676
0.325015 -0.736026 20.2041
1.58893 -2.19263 18.6645
-0.0180002 -2.92869 18.966
-0.0366146 -4.23649 15.7269
-0.0164478 -1.0212 18.6968
-0.00487446 -3.83219 22.6925
0.392272 -0.390354 18.5891
-0.00357598 -0.834345 22.0868
-0.00371892 0.0149327 13.7823
-0.0214625 0.228754 14.1915
0.000596776 0.0340553 20.2318
0.00506239 0.459573 12.2704
-0.137104 0.645011 13.3838
-0.00179431 0.606205 19.0042
-0.01429 0.578322 10.8758
0.00146157 1.29124 14.1792
-0.00865825 0.824302 18.3961
-0.0831191 -0.5042 1.32027
-0.0582077 1.05321 12.5933
-0.710385 1.40235 15.5361
0.0257362 1.14754 17.9247
-0.0190752 0.436811 5.29473
0.121843 1.55093 14.539
2.98136 -0.801352 16.4542
-0.0283139 2.77992 13.5333
-0.0196936 -0.374791 17.8052
-0.103261 0.339502 1.66347
-0.0355818 0.190138 -0.795881
0.237818 -0.84391 -4.56029
-1.73337 0.724453 6.64856
0.259387 -0.755816 1.29803
0.179152 -1.04381 0.343388
1.29143 1.69355 18.8431
0.0231645 1.406 19.4848
0.00562293 0.908671 18.7136
0.0387344 3.78985 19.5633
1.8146 2.05234 20.674
0.0204743 1.89305 20.4626
0.00489746 3.87369 20.4835
1.86708 1.42564 22.3003
-0.0259726 1.3793 21.6968
-0.0202402 0.58174 22.2763
0.0428933 -0.518474 21.6788
-0.00271692 -0.129594 21.6015
-0.00136874 -0.678314 19.2268
-0.182151 -0.871886 20.5774
0.0105353 -0.553761 21.0865
0.0221678 -0.880415 19.9284
-0.222492 -1.06286 20.387
0.0107641 -0.47839 20.8951
0.024835 -0.427136 19.2573
1.20893 -0.660287 19.8599
1.21211 -1.21524 19.6888
1.93313 -1.09936 19.0108
0.745883 -0.529632 19.4576
2.51139 -2.43564 20.5321
0.985233 -0.77282 21.4492
0.62109 -1.01465 21.7603
0.94988 -1.32311 21.0434
-0.0459638 -0.312915 20.9073
0.0301495 -0.330532 21.439
-0.12301 -0.125068 21.3984
-0.231273 -0.0478705 15.5062
-0.287798 -0.0529142 18.9301
-0.539043 0.0668831 21.5224
-0.497581 0.468818 21.012
-0.315817 0.606645 13.1745
-0.8673 1.13183 18.3266
-1.05249 0.464777 20.7921
-0.821686 0.967941 20.6204
-1.11505 1.29665 14.8178
-1.08816 1.2116 17.9791
-1.13867 0.48921 20.2513
-0.889299 1.02109 20.2888
-1.38163 0.896086 15.6448
-0.850557 0.609142 18.1638
1.6148 -0.222204 19.5722
2.3214 0.505197 18.5851
0.947837 -0.183221 19.1047
5.58749 -0.558918 19.4331
1.63684 -0.465096 21.5348
2.86087 -0.0544616 21.7883
0.225794 -1.19106 17.3671
0.397237 -0.55573 21.6129
1.2736 -0.78711 20.1818
-0.0379854 0.530497 14.4255
-0.562854 -0.268988 21.3331
-1.03685 0.350712 15.8454
-1.21785 0.345761 8.25256
-1.41209 -0.191447 20.0989
-1.25829 -0.370368 14.047
-1.99641 0.355279 12.853
-1.37564 -0.0041186 19.0881
-1.31224 -0.732809 16.2785
-1.56399 0.232277 16.3386
1.08013 0.596462 19.8076
0.686812 0.796079 19.8502
0.713232 0.492669 19.4193
1.79397 1.53323 20.0172
1.37089 0.623396 20.8257
0.893267 1.00049 20.6319
1.74336 0.843902 21.1852
0.876745 0.174729 21.4849
0.658778 0.597328 21.4205
0.531424 0.0533733 21.9145
-0.0428529 -0.305022 21.5337
0.0637492 -0.15257 21.4691
-0.22449 -0.735962 21.4168
-0.392211 -0.615516 21.1628
-0.137724 -0.47063 21.1223
-0.33766 -0.908884 21.0136
-0.489429 -0.670746 20.9108
-0.234937 -0.513325 20.8939
-0.308147 -0.746356 20.2918
-1.51176 -1.21466 19.4039
-0.744279 -1.24733 22.1267
0.206975 -0.0778605 19.7574
0.595097 0.527574 18.4995
0.95523 1.16702 18.4611
1.1182 0.973782 18.433
-2.39131 -0.397001 18.6001
-1.77391 -0.872166 20.8507
0.0206463 -0.566771 15.7804
0.505349 0.98554 11.6421
1.55533 0.400376 11.9269
1.73429 0.142928 15.8201
-1.30669 1.06064 19.3695
-1.77404 1.19806 20.8331
-1.31284 0.45879 21.77
0.0198953 -0.396702 21.7119
0.331704 -0.78205 21.206
0.4769 -0.825722 20.9514
-0.0243849 -3.69726 17.833
-0.00285719 -0.170582 16.1894
0.00531432 0.117331 12.4339
-0.00450289 0.475917 11.2125
-0.0619834 0.482255 11.4712
-0.0155714 1.09204 12.4086
-0.0403539 -1.41395 13.2
0.0310556 -0.691133 -3.70728
0.272062 -0.42891 -2.03836
0.0226794 2.49029 18.2597
0.0171328 3.10411 20.34
-0.0208796 2.99268 22.6528
-0.00873134 -0.428233 20.6862
0.00791304 -0.76965 19.4727
0.0167861 -1.20545 19.2041
1.52748 -1.24306 19.3808
0.748808 -1.24782 22.1262
-0.217203 -0.0730774 19.716
-0.597482 0.520014 18.4839
-0.915624 1.20992 18.2246
-1.08912 1.03937 17.7036
2.41984 -0.40394 18.5593
1.78244 -0.872447 20.8856
-0.0161035 -0.590438 15.9468
-0.527902 0.979278 12.0145
-1.47699 0.434484 10.7447
-1.81642 0.178995 13.9369
1.29603 1.02857 19.3947
1.76518 1.17172 20.8324
1.33049 0.47282 21.7862
-0.0185194 -0.411939 21.7401
-0.306537 -0.832117 21.2098
-0.413222 -0.883579 20.8105
-6.06434 -3.14068 5.34767
-0.122668 -0.0477307 0.730698
-0.0413358 0.000837614 0.327142
-0.000408926 -0.0017327 -0.000631719
0 0 0
-0.145534 0.0418378 0.984295
0 0 0
-0.00680514 0.059107 0.14395
-0.151261 0.11953 0.723231
-9.68875e-18 8.79752e-19 -7.03176e-18
-0.00375963 0.00338032 -0.0278218
-0.00533971 -0.0038382 0.0121506
0.119718 -0.0406726 0.692348
6.13952 -3.15775 5.38347
0.0412937 0.000689888 0.323993
0 0 0
0.000457208 -0.00176305 -0.000678371
0.143568 0.0414435 0.980359
0.00744293 0.067552 0.164487
0 0 0
0.163775 0.126415 0.77512
0.00206058 0.00351994 -0.0282667
0 0 0
0.00380741 -0.0026945 0.00879868
-0.029957 0.0111681 0.220901
0.00363461 0.00191419 0.110552
7.48519e-20 9.12613e-19 1.40501e-17
0 0 0
-0.0245757 0.025996 0.397121
0.00282223 0.000574241 0.0478393
0 0 0
0.0155893 -0.00420589 0.143568
-0.0969881 -0.0605488 0.159272
-0.00826231 -0.0149863 0.152207
0 0 0
-0.0224272 0.0208659 0.0529157
0.00129657 0.00153546 0.00632727
0.0173684 0.0349133 0.101426
0 0 0
0.00938702 -0.00464318 0.0516578
0.0306085 0.0114773 0.223864
0 0 0
-0.00211568 0.0014768 0.0703366
0 0 0
0.0273325 0.0263005 0.401666
-0.0249073 0.00016521 0.235728
0 0 0
0.00200843 0.00201145 0.00916231
0.0956749 -0.0589465 0.156741
0.0185222 0.0173538 0.0440748
0.00821533 -0.0147811 0.151989
0 0 0
-0.001246 0.00147509 0.00608213
-0.00867168 -0.00425891 0.0474053
-0.0193184 0.0389691 0.112628
0 0 0
-0.094164 -0.0356174 0.559292
-0.956123 -0.411633 0.534743
0 0 0
0 0 0
-0.000462713 0.00104367 0.0964569
-5.32188e-18 7.8097e-19 4.72028e-17
0.0119651 -0.00190976 0.0537131
-0.0212347 0.00800223 -0.00924859
0 0 0
-0.00183247 -0.0276252 -0.0125263
1.74985e-06 0.0198913 0.124855
0 0 0
0.00817436 0.309594 0.186746
0.000290285 0.00966056 0.0513173
0 0 0
-0.00845337 0.00415751 0.034866
0 0 0
-5.85626e-06 0.000119633 -0.000554248
0 0 0
-0.0001095 -0.000151191 0.000485568
0.976249 -0.422377 0.548193
0.0943407 -0.0357531 0.55913
0.00270651 0.000201745 0.0236131
0.000459407 0.00098629 0.0969393
0.0221156 0.00881362 -0.0100116
-0.0118539 -0.00187328 0.0531305
0 0 0
0.000269342 0.0159783 0.099054
0.00872506 0.00430527 0.0360113
0 0 0
0.000125165 -0.000187675 0.000606871
0 0 0
0 0 0
0 0 0
0.000243219 -0.000549255 0.000823926
-0.000167913 0.00476125 0.0367876
0 0 0
0 0 0
-0.000162171 0.00908866 0.035715
-0.000420425 0.00497496 0.0399456
0 0 0
-0.000692282 0.00105772 0.0336769
0.00326936 0.00874469 0.0464766
-0.0113328 0.0154751 0.161267
0 0 0
-1.76633e-06 0.0610099 0.157735
-6.79722e-06 1.09547e-05 0.00126528
-3.76748e-05 -0.00107302 0.00610803
-0.000584334 0.000704123 0.0344915
0 0 0
0 0 0
0.000171716 0.00476207 0.0367825
0.00010242 0.00708777 0.027584
0.000435914 0.00556668 0.0442383
0.0125491 0.016893 0.177585
-0.00387012 0.0102521 0.0544491
0 0 0
-0.424114 -0.133955 1.31924
0 0 0
1.85112e-05 -0.000251311 0.000586561
0 0 0
-4.91923e-05 0.0149493 0.118504
0 0 0
0.165502 0.290849 1.08901
-5.43674e-05 0.00269775 0.0432152
0.000413151 0.000749665 0.00282253
0 0 0
0.0150567 -0.00576169 0.0740511
0 0 0
0.00427931 -0.000279451 0.0284912
0 0 0
0.00410416 0.000160796 0.0530378
2.65824e-05 0.000105278 0.0101479
-3.25339e-05 0.000328982 0.0347477
0.000777124 0.000298762 0.0176116
0 0 0
0 0 0
0 0 0
0 0 0
0 0 0
-3.52821 -4.88973 2.86938
3.32695 -4.66629 2.71474
-0.706691 0.783208 0.63444