# vtk DataFile Version 2.0
tri_press
ASCII
DATASET UNSTRUCTURED_GRID
POINTS 3682 float
-0.685 0.135 -1.94034
-0.635 0.235 2.08215
-0.653342 0.665 -1.935
-0.505 0.93721 2.015
0.685 0.135 -1.94052
0.635 0.235 2.08215
0.65391 0.665 -1.935
0.505 0.93726 2.015
-0.684748 0.151919 -0.59951
-0.667257 0.186076 0.74132
-0.733934 0.885776 -0.618333
-0.685893 0.977919 0.698334
0.684738 0.151929 -0.59963
0.661485 0.191848 0.74126
0.734178 0.885658 -0.618333
0.685952 0.977822 0.698334
-1.37884 -0.285295 -2.99228
-1.377 -0.208802 -1.92928
-1.36551 -0.184179 -0.587823
-1.31735 -0.169933 0.758498
-1.26417 -0.137408 2.10037
-1.26113 -0.110118 3.16537
-1.27562 -0.0801763 4.22666
-1.37877 0.0316285 -2.99826
-1.38091 0.130096 -1.93791
-1.37711 0.17633 -0.601164
-1.31199 0.1989 0.737756
-1.23125 0.223263 2.07497
-1.24286 0.249379 3.13963
-1.26902 0.279991 4.20171
-1.36704 0.635304 -3.00348
-1.3695 0.731852 -1.94215
-1.40664 0.896725 -0.621883
-1.32141 0.967944 0.696676
-1.16633 0.951733 2.01742
-1.21092 0.974913 3.08308
-1.26388 1.00948 4.14906
-1.35181 1.67508 -3.02946
-1.35553 1.78645 -1.97175
-1.36869 1.95504 -0.659316
-1.35408 2.06861 0.647906
-1.31502 2.10205 1.9606
-1.30309 2.11558 3.01886
-1.31301 2.13851 4.08219
-0.694868 -0.284537 -2.99388
-0.687781 -0.205133 -1.9316
-0.683878 -0.196221 -0.587551
-0.665475 -0.178768 0.761534
-0.640238 -0.13434 2.1057
-0.643178 -0.109866 3.16898
-0.654342 -0.0824204 4.22874
-0.695655 0.0251916 -2.99878
-0.641443 0.249526 3.14261
-0.655711 0.277093 4.20328
-0.683346 0.605269 -3.00051
-0.614036 0.96793 3.08259
-0.656867 1.00432 4.14895
-0.664864 1.65508 -3.02653
-0.664732 1.76796 -1.96851
-0.68589 1.95062 -0.657368
-0.699027 2.0726 0.647657
-0.687899 2.10195 1.9589
-0.682665 2.1127 3.01716
-0.690769 2.13538 4.08096
0.674565 -0.284368 -2.99399
0.684573 -0.205012 -1.93174
0.681371 -0.1955 -0.587659
0.661285 -0.17487 0.761474
0.638475 -0.132838 2.10568
0.605061 -0.108692 3.16896
0.590875 -0.0811535 4.22872
0.668563 0.0252863 -2.99889
0.577787 0.250312 3.1426
0.572486 0.278211 4.20326
0.665857 0.605339 -3.00057
0.53116 0.968538 3.08258
0.547566 1.00528 4.14893
0.704092 1.65531 -3.02657
0.711155 1.76817 -1.96854
0.69124 1.95092 -0.657395
0.629151 2.0731 0.647635
0.567825 2.10265 1.95888
0.551776 2.11354 3.01714
0.549775 2.13634 4.08093
1.36316 -0.284844 -2.99248
1.37417 -0.208362 -1.92951
1.36877 -0.182512 -0.588006
1.32696 -0.164485 0.758386
1.27525 -0.133633 2.10031
1.24025 -0.107327 3.16532
1.22482 -0.077514 4.2266
1.35974 0.0319234 -2.99846
1.37783 0.130269 -1.93814
1.38103 0.177262 -0.601338
1.32361 0.204554 0.737656
1.24583 0.226505 2.07493
1.20975 0.251713 3.13959
1.20274 0.282419 4.20167
1.35816 0.635529 -3.0036
1.37246 0.731934 -1.94225
1.41221 0.896945 -0.621959
1.32986 0.969872 0.696628
1.16933 0.953848 2.01739
1.15641 0.976771 3.08305
1.17172 1.01159 4.14902
1.38701 1.6756 -3.02955
1.39368 1.78696 -1.97182
1.37368 1.95576 -0.659378
1.30018 2.06979 0.647855
1.21714 2.10363 1.96055
1.18762 2.11738 3.01881
1.18232 2.14049 4.08214
-0.709831 0.4 -1.97833
0 0.144267 -1.93116
-0.687966 0.140367 -1.26993
-0.625756 0.586105 2.10433
0 0.255282 2.06187
-0.652866 0.2088 1.41174
0.000283986 0.736528 -2.00653
-0.726163 0.807913 -1.27667
0 0.957056 2.03482
-0.641358 1.00348 1.35667
0.710346 0.4 -1.97865
0.687913 0.14042 -1.27008
0.625752 0.58613 2.10433
0.652646 0.209021 1.41171
0.726373 0.807658 -1.27667
0.641364 1.00343 1.35667
-0.678671 0.166329 0.070905
-0.82649 0.518847 -0.608922
-4.94962e-06 0.156401 -0.59957
-0.837653 0.581998 0.719827
-0.00288595 0.166459 0.74129
-0.714906 0.93684 0.0400001
0.000122153 1.05881 -0.618333
2.96084e-05 1.2703 0.698334
0.671125 0.173875 0.070815
0.827032 0.518793 -0.608982
0.837481 0.584835 0.719797
0.715225 0.9369 0.0400001
-0.893004 0.459424 -1.2733
0.893 0.459397 -1.27337
-2.47481e-06 0.159423 -1.27
0.00020307 0.887226 -1.27667
0.000141993 0.4 -2.25398
-0.835323 0.550422 0.0554525
0.835713 0.551814 0.0554075
-0.00144545 0.164163 0.07086
7.58806e-05 1.27425 0.0400001
-0.886271 0.584051 1.3842
0.886253 0.585483 1.38419
-0.00144298 0.228471 1.41172
1.48042e-05 1.1176 1.35667
0 0.586117 2.25335
-0.698368 0.2675 -1.96029
-0.3425 0.143382 -1.932
-0.689124 0.135042 -1.60513
-0.626905 0.410553 2.08977
-0.3175 0.286774 2.03038
-0.648231 0.217602 1.74694
-0.678616 0.5325 -1.95369
-0.326529 0.718589 -1.98859
-0.713729 0.760433 -1.60583
-0.540645 0.761658 2.03493
-0.2525 0.952747 2.03052
-0.568389 0.965553 1.68583
0.3425 0.142572 -1.9329
0.698671 0.2675 -1.96058
0.689246 0.134921 -1.6053
0.3175 0.287041 2.03011
0.626943 0.410565 2.08981
0.648015 0.217818 1.74693
0.327097 0.718707 -1.98871
0.679782 0.5325 -1.95448
0.714262 0.760449 -1.60583
0.2525 0.952794 2.03055
0.540838 0.761695 2.03513
0.567313 0.964475 1.68583
-0.685288 0.147212 -0.934718
-0.681981 0.158853 -0.264303
-0.800483 0.312951 -0.604216
-0.335961 0.166991 -0.59954
-0.657328 0.200172 1.07653
-0.675627 0.17354 0.406113
-0.83663 0.341949 0.730573
-0.33501 0.176391 0.741305
-0.723622 0.840418 -0.9475
-0.825927 0.725169 -0.613628
-0.722456 0.909344 -0.289167
-0.396043 1.03057 -0.618333
-0.667385 0.994457 1.0275
-0.812708 0.805426 0.70908
-0.702846 0.959826 0.369167
-0.405761 1.24977 0.698334
0.685426 0.147074 -0.934853
0.335615 0.167669 -0.5996
0.680517 0.160317 -0.264408
0.801018 0.312794 -0.604306
0.657429 0.200071 1.07648
0.330056 0.17764 0.741275
0.670932 0.178234 0.406038
0.838099 0.344034 0.730528
0.723858 0.840241 -0.9475
0.396383 1.0307 -0.618333
0.826485 0.725166 -0.613658
0.722873 0.90945 -0.289167
0.667419 0.994386 1.0275
0.405735 1.24955 0.698334
0.812268 0.806605 0.709065
0.702969 0.959742 0.369167
-0.886704 0.429712 -1.62581
-0.354845 0.4 -2.17955
-1.23741e-06 0.158348 -1.60058
7.09966e-05 0.272134 -2.16753
-0.896164 0.299895 -1.27161
-0.343984 0.15862 -1.26996
-0.793791 0.585078 1.74427
-0.312878 0.586111 2.22787
-0.000721488 0.236414 1.73679
0 0.4207 2.19247
-0.878682 0.396426 1.39797
-0.327155 0.252466 1.41173
0.000243528 0.83221 -1.6416
0.00021299 0.568264 -2.2409
-0.894167 0.633668 -1.27498
-0.36298 0.87016 -1.27667
7.40211e-06 1.0017 1.69574
0 0.771587 2.1435
-0.797729 0.793764 1.37043
-0.320672 1.09778 1.35667
0.886703 0.429698 -1.62601
0.355244 0.4 -2.17963
0.896164 0.299908 -1.27172
0.343955 0.153183 -1.27004
0.793713 0.585806 1.74426
0.312876 0.586124 2.22788
0.878676 0.397252 1.39795
0.325601 0.249295 1.41171
0.894164 0.633527 -1.27502
0.363288 0.870138 -1.27667
0.79737 0.794456 1.37043
0.32069 1.09803 1.35667
-0.813069 0.33034 0.0631787
-0.332336 0.18069 0.0708825
-0.843435 0.489135 -0.941109
-0.83212 0.534635 -0.276735
-3.71222e-06 0.159894 -0.934785
-0.0007252 0.15793 -0.264355
-0.837061 0.56621 0.38764
-0.886639 0.583024 1.05201
-0.0021657 0.165722 0.406075
-0.00216446 0.199239 1.07651
-0.824915 0.768531 0.0477263
-0.430753 1.25222 0.0400001
0.000162611 0.92096 -0.9475
9.90166e-05 1.20327 -0.289167
5.27445e-05 1.29221 0.369167
2.22063e-05 1.21351 1.0275
0.813673 0.332718 0.0631112
0.334698 0.169303 0.0708375
0.843226 0.489095 -0.941176
0.832702 0.535304 -0.276787
0.837168 0.568325 0.387602
0.886613 0.585159 1.05199
0.825093 0.769169 0.0477038
0.431116 1.25251 0.0400001
-0.883668 0.283698 -1.61547
-0.845169 0.317639 -0.937913
-0.829037 0.66799 -0.944304
-0.885652 0.583084 -1.61582
0.883669 0.283704 -1.61565
0.885651 0.583014 -1.61592
0.829799 0.667876 -0.944338
0.84509 0.317635 -0.938014
-0.343242 0.157071 -1.60286
0.343228 0.152229 -1.60294
0.343161 0.153653 -0.934819
-0.34318 0.160272 -0.934751
-0.344754 0.817505 -1.62372
-0.364943 0.883428 -0.9475
0.365219 0.883177 -0.9475
0.345192 0.81747 -1.62372
-0.348672 0.269817 -2.17989
-0.340687 0.550382 -2.17484
0.34117 0.550382 -2.17443
0.348872 0.269817 -2.17744
-0.807454 0.321307 -0.270519
-0.816105 0.340517 0.396876
-0.834216 0.794681 0.378403
-0.826846 0.747563 -0.282951
0.808195 0.322331 -0.270597
0.82728 0.747913 -0.282977
0.831105 0.794099 0.378384
0.816932 0.342853 0.39682
-0.336866 0.168405 -0.264329
0.337577 0.163645 -0.264381
0.331618 0.17499 0.406056
-0.335352 0.175182 0.406094
-0.430088 1.17478 -0.289167
-0.427671 1.26982 0.369167
0.427984 1.27014 0.369167
0.430357 1.17482 -0.289167
-0.879596 0.390231 1.06427
-0.785492 0.403489 1.7456
-0.748252 0.777711 1.71505
-0.814813 0.786861 1.03976
0.880238 0.392797 1.06424
0.814393 0.787892 1.03975
0.748095 0.778075 1.71505
0.785551 0.403908 1.74559
-0.331113 0.229441 1.07652
0.32745 0.220706 1.07649
0.321551 0.275621 1.74186
-0.322327 0.275713 1.74187
-0.331802 1.19594 1.0275
-0.286586 0.994403 1.69079
0.286595 0.994122 1.69079
0.33184 1.19592 1.0275
-0.315189 0.415626 2.21202
0.315188 0.415632 2.21267
0.282688 0.766641 2.1242
-0.282689 0.766622 2.12418
-0.687195 0.20125 -1.94582
-0.51375 0.154586 -1.92078
-0.691133 0.13095 -1.77274
-0.62174 0.322776 2.07675
-0.47625 0.271414 2.04574
-0.645626 0.222291 1.91455
-0.667477 0.59875 -1.94585
-0.489936 0.698743 -1.96874
-0.692793 0.721974 -1.77042
-0.523846 0.849434 2.02599
-0.37875 0.948142 2.02593
-0.538797 0.953484 1.85042
0.51375 0.154197 -1.9213
0.687328 0.20125 -1.94604
0.691159 0.130925 -1.77291
0.47625 0.271508 2.04564
0.621931 0.322782 2.07694
0.6455 0.222417 1.91454
0.490503 0.698725 -1.96872
0.668021 0.59875 -1.94591
0.693368 0.722006 -1.77042
0.37875 0.948155 2.0259
0.52451 0.849477 2.02665
0.538535 0.953246 1.85042
-0.683332 0.151251 -0.767114
-0.683206 0.155544 -0.431906
-0.791725 0.20788 -0.601863
-0.508159 0.163846 -0.599525
-0.658521 0.196896 0.908924
-0.67711 0.17414 0.573716
-0.817297 0.231336 0.735947
-0.491651 0.200199 0.741313
-0.727893 0.862212 -0.782917
-0.790389 0.810702 -0.61598
-0.72488 0.894245 -0.45375
-0.585781 0.999759 -0.618333
-0.677224 0.986773 0.862917
-0.753094 0.893569 0.703707
-0.694671 0.969174 0.53375
-0.572383 1.16696 0.698334
0.683463 0.151121 -0.767241
0.508139 0.163873 -0.599615
0.68325 0.1555 -0.432019
0.792208 0.207697 -0.601968
0.658077 0.197339 0.908871
0.490805 0.194676 0.741268
0.671041 0.180209 0.573649
0.818401 0.233636 0.735894
0.728325 0.862256 -0.782917
0.586103 0.999824 -0.618333
[...]
POINT_DATA 3682
SCALARS point_scalars float 1
LOOKUP_TABLE default
-95.8226
-37.9461
-20.8969
-31.5538
-96.2641
-37.8309
-21.3457
-31.4111
-36.1474
-35.9683
-55.9109
-49.0496
-36.0321
-35.498
-55.8016
-48.9867
-69.7903
-92.3876
-37.4254
-28.8653
-40.5567
-37.8488
-29.6132
64.0288
-109.879
-33.1381
-38.3834
-39.299
-29.7793
-28.6258
96.8924
-91.4536
-43.3815
-42.2933
-36.6322
-30.2226
-28.8852
27.6109
-50.8247
-65.0602
-61.4332
-39.2628
-31.1211
-30.0629
17.3467
-150.335
-37.4664
-39.162
-34.9829
-28.9629
-28.1676
117.664
-28.2687
-26.6131
162.695
-27.9901
-27.481
34.6925
-44.6744
-47.6876
-65.1299
-33.9687
-29.6237
-28.8995
18.8471
-151.303
-37.0546
-39.0565
-34.6565
-28.5839
-27.3426
117.773
-27.9978
-25.4299
163.748
-27.2018
-27.2018
34.8938
-44.7263
-47.9983
-65.0835
-33.8198
-28.827
-28.827
-70.3244
-91.5774
-36.6187
-38.2955
-40.381
-37.6768
-29.4376
64.2373
-108.736
-33.1941
-35.353
-39.1381
-29.5964
-28.4215
96.7813
-91.4549
-43.4362
-42.2627
-36.477
-30.0495
-28.7531
27.2063
-51.2377
-65.7551
-61.4523
-36.2136
-30.9978
-29.613
18.4994
-110.049
-56.5624
-30.2838
-30.1817
-34.7073
-22.8238
-51.8842
-29.9533
-46.7714
18.2464
-56.5227
-30.098
-34.6849
-51.8289
-46.6617
-32.8762
-36.2523
-36.479
-32.7447
-39.5132
-54.5265
10.074
-66.7051
-32.9454
-36.2967
-32.7219
-54.5758
-67.6542
-67.5951
-53.3634
-18.6379
189.148
-36.5163
-36.5747
-34.4242
-87.3291
-48.7034
-48.7207
-31.9024
-41.5329
-20.0152
35.7291
-121.926
-84.3758
-31.1237
-32.6628
-35.8459
10.864
-27.6247
-53.0274
-30.1234
-29.9925
-37.3601
-122.071
35.3362
-84.3425
-32.4861
-30.9452
-35.5349
-28.1238
10.5781
-52.8981
-29.9403
-29.9537
-37.256
-42.9146
-33.3747
-34.1971
-36.9833
-35.7807
-33.3362
-24.7509
-37.1668
-35.2549
-42.8514
-56.9096
3.21251
-48.2567
-42.6128
-50.9602
-63.9726
-43.0048
-36.7998
-33.6072
-34.2337
-35.9005
-37.7533
-32.6963
-24.8853
-35.0917
3.19644
-42.9038
-57.0023
-48.1863
-63.9144
-42.6378
-50.8843
-127.773
166.993
-73.3992
179.127
-65.9419
-54.7356
-39.7521
-26.935
-31.9765
-22.6984
-45.018
-32.727
-35.1836
164.834
-67.7738
-24.1515
-34.6942
-24.9492
-49.5231
-42.0146
-127.694
166.75
-65.8928
-54.7012
-39.5768
-26.6234
-44.7641
-33.0985
-67.5886
-24.0435
-49.3993
-42.0262
-33.25
-33.7986
-47.4161
-35.9631
-42.1936
-35.4068
-35.5166
-44.563
-36.3981
-33.4231
-44.1058
-81.5789
3.353
-48.7359
-80.2119
-52.5658
-33.247
-34.5045
-47.4247
-36.069
-35.4518
-44.5109
-44.2309
-81.6952
-120.972
-48.0852
-48.4896
-113.366
-121.15
-113.036
-48.4539
-48.0834
-75.9537
-76.0152
-42.8216
-42.9609
-37.4059
-2.94816
-3.01644
-37.349
131.8
139.484
139.725
132.486
-32.9044
-32.0168
-44.7863
-44.0531
-33.0191
-44.1791
-44.2583
-31.945
-34.7986
-34.8957
-35.6521
-35.7033
-48.9593
-73.04
-73.0203
-49.0322
-42.2852
-40.3244
-40.3069
-45.8154
-42.2935
-45.9346
-40.1538
-40.1348
-34.2201
-34.6123
-32.6945
-32.8281
-52.6296
-35.2274
-35.2006
-52.619
-26.6496
-26.4158
-27.2455
-27.4401
-27.4885
-128.472
-113.827
-33.292
-34.9365
-34.9406
10.8239
-29.7716
-45.131
-30.9237
-30.2226
-34.1732
-129.007
-27.8561
-113.711
-34.7929
-33.0367
-34.8883
-29.8212
10.1683
-45.3948
-30.1359
-30.7383
-34.0757
-37.8497
-33.7838
-34.1857
-36.1893
-40.6668
-34.5075
-18.7709
-37.1251
-39.9498
-48.2453
-57.1089
-15.1044
-48.6717
-47.2583
-50.5736
-56.4613
-38.0064
-36.0785
-33.9745
-34.1876
-41.0879
-37.099
-34.2879
-18.7143
-39.8822
-15.1603
-48.263
-57.2705
-48.6119
-56.423
-47.2258
-50.359
39.6976
16.3479
-22.8575
115.25
-108.489
-108.439
-87.4334
99.6926
-67.2505
-49.1079
-63.1532
-55.2683
-30.6262
-29.9664
-35.3032
-28.5106
-31.0555
-30.9274
-31.5567
-24.5934
-36.0297
-34.3245
-42.8199
-33.4717
-24.9839
-25.1052
-35.6101
42.486
-54.6202
-42.6311
-69.1756
-31.6633
-29.961
-29.9355
-32.4141
-25.9442
-41.9603
-48.1069
-46.7629
-43.7178
39.0558
15.9808
-22.9521
115.45
-67.2369
-49.1317
-63.1198
-55.2562
-30.4359
-29.8059
-35.0967
-28.3654
-35.9523
-34.3214
-42.6238
-33.6818
-54.6384
-42.5297
-68.8272
-31.6922
-41.9119
-48.086
-46.702
-43.6928
-33.3587
-33.0472
-32.4132
-33.5734
-34.8795
-38.5612
-39.3117
-35.6256
-36.5815
-36.5715
-38.5315
-35.6168
-28.3923
-37.1615
-34.2971
-34.6691
-39.2466
-38.9395
-39.3594
-35.3238
-56.0871
-52.8096
-50.0864
-68.0386
9.15724
9.08269
14.7613
-13.6843
-66.2087
-66.197
-74.4044
-59.3603
-33.8009
-32.3383
-32.4011
-33.6652
-34.9192
-38.608
-39.3424
-35.7316
-28.4051
-37.1575
-34.2477
-34.6529
-56.1917
-52.7868
-50.2742
-68.1185
-82.2741
-67.5378
-67.8311
-59.0008
-82.2245
-67.4786
-67.762
-58.9806
-62.2595
-53.8733
-53.8854
-46.8343
-28.1179
-20.1661
-20.0519
-8.48812
180.189
173.806
203.466
180.211
-34.431
-36.5027
-36.0719
-39.4127
-34.4485
-36.6181
-36.0652
-39.5147
-34.2599
-35.8449
-34.9892
-34.4596
-86.8112
-84.8758
-84.7017
-86.8398
-48.9906
-46.6593
-53.3428
-45.4861
-48.7595
-46.5686
-53.2695
-45.4022
-32.2748
-32.2587
-32.2887
-33.8895
-37.7132
-41.6481
-41.6395
-46.3764
-23.0696
-22.4183
-25.3945
-22.7218
-52.4804
101.474
-90.9018
-62.3479
-112.381
-78.4534
-35.8727
-28.9997
-32.6003
-29.48
-42.2134
-33.9491
-12.2429
86.1364
-40.1202
61.3004
-62.5978
-41.6878
-35.9846
-28.5679
-32.4968
-27.4379
-40.1133
-35.8963
-90.9693
-64.3769
-52.282
101.749
-112.492
-78.0218
-32.4333
-29.1495
-35.6715
-28.8266
-42.0288
-33.7964
-40.1857
60.6884
-12.9056
85.8791
-62.489
-41.5845
-32.4702
-27.2745
-35.8043
-28.4131
-39.9621
-35.8356
-48.5661
-43.0529
-31.6169
-34.232
-38.7226
-32.6987
-39.4361
-35.4654
-41.4054
-34.7119
-31.2446
-34.7277
-29.7442
-40.1451
-37.2721
-39.0922
-47.213
-14.5259
-42.312
-43.4453
-50.7653
-79.9822
6.42456
-18.0341
-47.6942
-53.6882
-41.7587
-43.4704
-48.2165
-59.8907
-68.3601
-58.3734
-48.5522
-43.0918
-39.6287
-35.5593
-31.8229
-34.4076
-38.7428
-32.818
-41.3624
-34.9503
-37.3576
-37.5434
-31.1033
-34.6486
-29.6564
-39.9882
-47.214
-14.5697
6.4355
-18.0436
-42.3619
-43.5398
-50.8509
-79.7695
-47.6648
-53.6491
-68.3163
-58.3329
-41.7565
-43.5049
-48.0579
-59.7996
-124.566
-128.066
155.429
175.915
-74.3003
-74.4564
169.937
170.676
-79.3121
-58.6071
-64.2018
-47.8321
-39.9796
-39.8645
-26.4168
-27.7411
-32.0518
-32.3053
-24.3631
-24.1172
-42.4562
-52.3263
-33.28
-33.1089
-35.4475
-35.4377
161.353
160.094
-56.1198
-85.3954
-32.825
-13.9248
-34.8046
-34.7859
-25.6569
-25.8251
-44.9678
-49.6539
-46.8214
-38.265
-124.402
-127.875
175.811
155.172
-79.2716
-58.5739
-64.0094
-47.7441
-39.7019
-39.8011
-26.111
-27.5672
-42.4604
-52.2466
-33.492
-32.9318
-85.343
-56.073
-13.8062
-32.7889
-49.505
-44.8367
-38.237
-46.8015
-33.1626
-32.7899
-34.8994
-34.6419
-48.1628
-47.5372
-33.8877
-39.007
-42.3332
-42.43
-35.1519
-35.2167
-33.24
-38.8552
-43.4956
-43.6523
-36.1777
-36.2556
-34.0848
-34.2281
-42.0681
-44.6171
-79.4533
-77.7692
1.05856
1.05606
-46.1085
-46.1597
-78.7499
-78.728
-52.4672
-52.4552
-33.3202
-32.6218
-35.1136
-34.3298
-47.5498
-48.1794
-34.0002
-39.1133
-38.7097
-33.1568
-43.4551
-43.6474
-44.7388
-42.5055
-77.7352
-79.4075
-62.2901
-75.5173
-81.5842
-39.1017
-40.3068
-39.1365
-58.6858
-57.159
-45.8871
-56.126
-58.7292
-39.7857
-31.7594
-17.789
-82.9669
-78.7816
-61.7354
-39.0159
-81.5327
-75.5127
-31.8442
-78.7759
-82.9317
-18.2494
-45.8658
-39.8613
-58.7084
-56.1007
-40.4612
-57.1668
-58.6224
-39.162
-97.6051
-88.8519
-62.9913
-65.3713
-97.7932
-65.371
-62.8923
-88.7718
-39.4681
-38.9852
-47.1866
-48.1846
-39.3232
-48.1823
-47.1628
-38.9065
-43.0451
-38.8879
-29.3517
-36.8676
-7.51275
12.919
-9.95697
-22.849
-7.7116
-22.7796
-9.92973
12.8509
-43.4097
-36.6962
-29.3621
-38.5436
43.9802
94.4086
168.593
59.0039
66.5285
78.1371
189.848
127.248
66.3709
127.58
189.643
78.8838
42.7317
57.4992
168.708
94.5047
-31.5254
-32.4718
-34.3582
-33.7638
-29.038
-31.3337
-34.022
-32.2156
-47.7314
-49.0818
-38.7982
-37.8239
-50.076
-38.5123
-39.5434
-51.2291
-31.7126
-33.8546
-34.465
-32.6858
-50.1869
-51.3199
-39.6782
-38.622
-47.7137
-37.7508
-38.8464
-48.9023
-28.8231
-31.2532
-33.9642
-31.2606
-34.9961
-35.7019
-35.5834
-34.2815
-35.1119
-34.5861
-35.6146
-35.7275
-36.3715
-38.7158
-34.8135
-33.669
-36.3063
-33.9867
-34.9449
-38.4344
-50.3344
-77.6744
-83.5723
-14.3434
-57.3712
-73.2092
-83.4003
-63.1302
-57.2976
-63.0578
-83.3696
-73.1827
-50.6436
-14.4016
-83.5853
-77.8185
-49.9362
-39.8385
-44.1058
-36.9391
-38.2309
-35.5165
-51.3113
-50.6169
-35.791
-43.9592
-45.9158
-35.4458
-47.2628
-38.4436
-48.236
-47.7214
-50.661
-36.866
-44.0473
-39.7752
-47.2475
-47.6479
-48.1317
-38.4179
-35.6198
-35.2395
-45.7418
-43.8628
-38.0301
-50.5129
-51.1322
-35.3141
-38.5625
-36.3557
-32.5324
-33.9257
-38.0864
-33.7828
-32.6801
-35.9974
-33.6025
-31.9586
-32.4899
-33.9503
-33.951
-34.15
-32.5039
-31.9311
-55.0421
-48.4195
-46.3662
-59.2055
-33.0077
-32.4124
-37.7909
-39.2667
-32.9545
-39.2369
-37.7804
-32.4387
-54.9604
-59.192
-46.3573
-48.4046
-30.8074
-25.1136
-24.1478
-28.5194
-30.6018
-28.356
-23.8782
-24.8923
-28.5602
-26.1097
-26.1419
-28.6759
-28.7137
-28.8049
-26.3196
-26.2312
-66.7507
-138.843
-139.503
-36.6654
-35.0554
-35.5804
-2.48838
-30.4761
-36.8721
-31.3088
-30.5751
-32.4818
-139.328
-67.0625
-139.641
-34.9808
-36.218
-35.3458
-30.6319
-3.09254
-37.0989
-30.4858
-31.1311
-32.3717
-37.8558
-34.5633
-36.216
-35.8844
-40.7265
-34.8424
-19.8176
-37.3442
-48.9449
-52.7593
-59.5694
-42.6148
-48.7537
-48.3956
-49.5435
-51.7138
-37.6506
-35.7657
-34.676
-36.0205
-40.73
-37.0077
-34.846
-18.4509
-48.8934
-42.4839
-52.7007
-59.6569
-48.6861
-51.6536
-48.3368
-49.3771
20.3881
17.8812
-8.37497
86.9036
-107.381
-107.374
-98.2217
-34.861
-61.269
-52.4086
-61.1773
-55.4917
-30.4752
-30.1046
-33.3471
-29.0551
-30.677
-30.6101
-30.9957
-25.2956
-35.1868
-34.4476
-40.0343
-34.3405
-23.8151
-23.8568
-32.6938
-24.3292
-53.4746
-47.5895
-59.3411
-40.016
-29.9656
-29.9469
-31.1336
-27.9649
-44.5189
-47.8937
-46.3194
-45.7023
19.9838
17.6742
-9.14295
87.1495
-61.2434
-52.3673
-61.1499
-55.46
-30.2865
-29.9315
-33.1502
-28.8982
-35.1089
-34.4648
-39.9087
-34.4217
-53.6328
-47.3961
-59.2327
-40.1175
-44.4315
-47.9006
-46.2633
-45.6602
-32.9822
-33.4624
-32.8949
-33.3395
-35.414
-37.2262
-37.3434
-35.7093
-36.5711
-36.5898
-37.1136
-36.1593
-30.4464
-34.8648
-33.4591
-31.6661
-40.0209
-39.92
-39.6322
-37.5522
-55.1942
-53.3656
-52.529
-60.4616
9.91112
9.78132
14.5301
-1.17716
-66.5742
-66.6113
-70.6545
-62.7445
-33.8578
-33.1528
-32.3416
-33.1336
-35.4572
-37.2718
-37.381
-35.7938
-30.4413
-34.8431
-33.4442
-31.7077
-55.2762
-53.407
-52.5562
-60.4748
-75.3127
-67.6469
-67.594
-62.2926
-75.2547
-67.5872
-67.5334
-62.2444
-57.4859
-53.537
-53.5413
-49.98
-23.9231
-19.1349
-18.924
-13.5497
186.675
167.825
209.015
186.612
-35.3492
-36.5705
-36.3351
-37.8688
-35.3893
-36.6651
-36.3624
-37.9443
-34.3495
-35.0455
-34.6425
-34.394
-87.5047
-85.8549
-86.4533
-87.4924
-52.8438
-47.5661
-50.923
-46.6718
-52.7128
-47.5098
-51.0305
-46.5799
-32.0359
-32.0452
-32.053
-33.0087
-39.4622
-41.5362
-41.5321
-43.7932
-20.9802
-21.0899
-23.2148
-20.5243
15.29
40.5326
-17.4866
89.4978
-127.778
-110.803
-104.755
-50.1398
-97.9258
-74.7315
-108.655
-80.7601
-31.7751
-30.8909
-33.9659
-29.6078
-33.3372
-31.7992
-32.5114
-31.1276
-34.3257
-35.2508
-41.0835
-34.7247
10.681
15.04
-11.2834
58.054
-22.8961
-28.3964
-37.6805
-21.2381
-49.74
-56.1277
-56.9797
-45.0306
-30.4553
-29.9358
-33.3666
-29.1715
-30.0956
-29.9699
-31.3033
-28.3908
-35.585
-39.7645
-39.3351
-36.5238
-128.601
-110.465
-104.613
-52.6785
15.1312
39.8658
-18.2585
91.3595
-97.8073
-74.7499
-108.703
-80.6233
-33.1573
-31.6338
-32.3702
-30.9051
-31.5404
-30.7019
-33.7645
-29.4254
-34.4734
-35.1257
-40.9137
-34.5754
-22.4618
-28.6208
-38.1999
-20.3954
10.2115
14.6674
-11.7553
57.564
-49.404
-55.9416
-56.8287
-44.5856
-30.03
-29.9317
-31.2601
-28.3265
-30.2723
-29.7741
-33.1951
-29.0082
-35.4887
-39.7179
-39.2071
-36.4298
-39.4246
-45.8233
-46.7314
-42.9308
-33.4597
-33.4233
-31.2939
-33.8657
-33.8024
-34.6021
-36.0786
-33.1701
-36.9705
-36.7774
-38.1094
-36.026
-36.8088
-34.5144
-41.6066
-35.4109
-33.3658
-32.9877
-31.5722
-34.6624
-22.4699
-26.6091
-26.8038
-30.1491
-36.2667
-38.5036
-36.9982
-39.1716
-34.6868
-38.2361
-44.2168
-23.1933
-45.3669
-40.2465
-42.5682
-42.9526
-56.8615
-56.5694
-54.4385
-71.8749
-3.1413
6.82825
7.97209
-4.6989
-48.536
-47.3743
-47.9486
-51.7571
-44.8703
-39.8362
-42.1196
-42.8807
-51.0086
-52.0244
-50.1239
-55.2202
-62.4057
-65.1143
-66.3749
-61.2551
-39.5356
-45.8855
-46.7388
-42.983
-36.7734
-36.6592
-38.793
-35.5867
-33.84
-33.604
-31.5641
-34.0561
-33.8299
-34.6476
-36.0976
-33.2203
-36.8739
-34.5681
-41.5284
-35.4855
-36.6723
-38.3049
-37.0513
-38.743
-33.5315
-32.2054
-31.4101
-33.8895
-22.3835
-26.6728
-26.7296
-30.0592
-34.6822
-38.2678
-44.315
-23.2188
-3.15591
6.74891
7.86752
-4.71074
-45.4223
-40.2902
-42.6083
-43.0513
-56.934
-56.6686
-54.5787
-71.9274
-48.4691
-47.2778
-47.895
-51.6796
-62.3361
-65.0684
-66.3194
-61.1911
-44.877
-39.8607
-42.0945
-42.9158
-50.9935
-51.9629
-50.038
-55.1384
-98.2019
-95.5248
-125.215
-129.611
143.119
173.405
153.512
173.759
-80.3411
-67.4906
-73.7443
-73.7737
162.326
177.304
174.331
174.173
-65.1076
-66.7408
-72.8151
-60.9941
-55.0606
-54.23
-59.0727
-51.0222
-37.3971
-43.052
-39.945
-39.7614
-28.121
-24.985
-26.5733
-27.5295
-31.9731
-32.0816
-31.9232
-32.0444
-23.6875
-21.9098
-23.1717
-23.0168
-44.2986
-45.891
-43.4784
-48.7101
-32.7655
-32.148
-32.7888
-33.7907
-35.9073
-31.7123
-35.0753
-35.0615
131.576
186.5
156.762
156.24
-70.3878
-68.0267
-66.6066
-75.708
-27.2748
-21.8259
-28.726
-19.3571
-33.7166
-36.051
-34.731
-34.7222
-25.2792
-24.8815
-25.094
-25.1905
-47.6188
-51.4529
-47.2332
-50.1101
-42.5974
-41.7667
-44.3051
-39.972
-97.783
-95.5582
-125.205
-129.466
142.794
173.332
173.556
153.286
-65.0688
-66.6844
-72.7666
-60.9338
-55.0685
-54.183
-58.994
-51.0185
-37.1996
-42.871
-39.5862
-39.7703
-27.9286
-24.5996
-26.2579
-27.2821
-44.0683
-45.7755
-43.4791
-48.6773
-33.1594
-31.9868
-33.3602
-33.7339
-70.1065
-67.9269
-75.624
-66.5923
-27.152
-21.7402
-19.262
-28.6571
-47.5281
-51.2795
-49.972
-47.1391
-42.5765
-41.678
-39.9523
-44.2849
-32.8143
-33.7407
-33.2918
-33.0317
-33.7432
-34.0438
-35.0912
-33.6719
-42.8494
-55.6533
-47.8715
-47.5553
-35.7147
-36.29
-34.81
-37.3988
-40.3125
-44.2636
-42.1484
-42.1935
-35.8204
-35.4481
-35.3205
-35.3432
-34.9804
-35.8142
-34.2526
-37.0474
-41.0377
-44.7047
-44.0737
-44.4375
-37.5867
-35.6406
-36.2833
-36.2866
-33.7984
-33.4437
-33.6639
-33.6489
-47.0434
-41.4861
-43.5346
-44.4887
-76.6203
-84.1285
-82.8157
-79.2887
9.55591
-2.91016
2.69103
2.69528
-29.6888
-74.0811
-48.0053
-48.0465
-77.4982
-82.6902
-79.8818
-79.8595
-55.5675
-49.2809
-52.4739
-52.462
-32.7944
-33.7547
-33.2683
-32.8983
-34.0828
-34.6585
-34.8577
-34.4111
-42.8644
-55.6621
-47.5863
-47.8754
-35.8106
-36.4011
-34.9166
-37.5039
-34.9181
-35.7702
-36.9535
-34.1784
-41.0907
-44.633
-44.0519
-44.429
-47.1524
-41.6064
-44.6106
-43.6875
-76.9353
-84.1759
-79.3137
-82.7252
-109.836
-116.686
-120.379
-90.3548
-48.4106
-42.1384
-56.4477
-47.9195
-48.0073
-44.5335
-50.9192
-47.8902
-77.7352
-86.7091
-123.932
-99.278
-109.654
-116.78
-120.672
-90.3871
-76.8919
-86.5348
-123.6
-99.241
-48.0035
-44.5406
-50.8789
-47.8794
-48.4302
-42.1846
-56.5141
-47.9089
-82.927
-77.0506
-74.6888
-69.7951
-83.2607
-77.0428
-75.1458
-69.6224
-43.1067
-40.9606
-45.0026
-42.5444
-43.092
-41.1684
-45.1657
-42.6794
-39.4754
-39.4714
-36.3968
-35.2256
-7.16767
1.79839
-9.8523
-0.538308
-7.24566
1.80207
-9.92958
-0.589656
-39.1776
-39.4011
-36.3625
-35.1926
100.141
53.598
153.976
159.934
114.694
104.831
161.405
149.944
105.619
114.091
148.325
162.21
53.1553
101.498
161.797
153.499
-32.0079
-32.6691
-33.0274
-33.18
-31.542
-31.0737
-32.5366
-32.4726
-43.9647
-46.8756
-41.5539
-41.9344
-43.7578
-47.18
-41.0694
-44.2836
-32.1741
-32.7879
-33.1382
-33.3023
-43.8534
-47.2999
-41.1857
-44.3902
-43.7018
-46.511
-41.2149
-42.0494
-31.4923
-30.96
-32.4203
-32.3739
-34.5819
-34.9101
-34.608
-35.0816
-35.0862
-34.7001
-35.1767
-34.7594
-36.4257
-35.0597
-36.3583
-34.8551
-35.1537
-36.1795
-35.0645
-36.409
-57.4899
-33.7369
-68.3966
-44.9341
-67.1039
-70.6913
-75.5131
-76.6654
-70.757
-67.0422
-76.6616
-75.4399
-33.8052
-57.4472
-44.9675
-68.4256
-41.3682
-43.1679
-42.0463
-42.9792
-37.8389
-40.685
-40.119
-44.769
-38.3158
-40.3857
-40.1042
-42.4227
-46.9649
-44.5516
-48.3851
-44.9806
-41.3832
-43.0844
-42.066
-42.9619
-46.9499
-44.6583
-48.297
-45.2686
-38.1507
-40.2337
-39.9506
-42.2795
-37.6414
-40.4917
-39.9331
-44.5167
-34.2328
-36.1921
-33.9572
-34.0811
-34.9206
-35.6661
-34.0247
-34.2573
-32.4962
-33.1374
-32.5505
-32.5827
-32.621
-33.2699
-32.7429
-32.6398
-52.849
-55.5437
-49.6395
-52.4805
-33.9357
-35.4998
-34.9817
-36.5763
-33.9101
-35.4725
-34.9498
-36.5457
-52.8235
-55.5241
-49.6284
-52.4767
-28.615
-27.4408
-26.2767
-24.9754
-27.282
-28.4167
-24.7028
-26.0078
-27.2536
-27.914
-26.4075
-27.3711
-28.0863
-27.4347
-27.5642
-26.6093
-60.0406
11.7394
-110.68
-62.8778
-97.7596
-105.319
-35.938
-34.0413
-34.4376
-33.2447
-38.6191
-34.3661
-13.4633
64.2173
-35.2683
21.2632
-47.0548
-42.8736
-33.1813
-29.3039
-31.5699
-29.0854
-35.3189
-33.3817
-110.912
-64.1968
-60.5889
12.4091
-97.4992
-105.26
-34.2007
-32.9927
-35.7273
-32.9638
-38.4594
-34.2055
-35.6927
21.076
-13.7449
63.7693
-47.1745
-44.004
-31.5022
-28.9528
-32.9927
-29.1424
-35.1868
-33.3144
-36.4982
-39.1698
-32.5135
-34.6403
-37.263
-32.0598
-37.1316
-35.5557
-49.9533
-38.9406
-30.6185
-34.8693
-25.3849
-36.27
-37.5469
-38.1672
-45.086
-22.8076
-46.5407
-49.296
-53.6774
-73.6074
-8.10632
-27.8737
-48.1344
-50.7456
-47.4494
-47.1695
-49.7116
-53.342
-56.4163
-54.9299
-36.8636
-39.3116
-37.1173
-35.6331
-32.7514
-34.7955
-37.4359
-32.1914
-51.2036
-38.8806
-36.4125
-38.265
-30.3511
-35.4703
-25.1934
-35.6771
-45.0272
-22.9193
-8.15028
-28.0485
-46.5565
-49.4095
-53.8044
-74.4057
-48.0746
-50.6984
-56.3551
-54.8717
-47.384
-47.1444
-49.5123
-53.2211
-5.72748
83.3832
-12.4193
91.329
-30.8778
-22.246
93.263
130.939
-97.3505
-46.7239
-97.2841
-47.38
-87.9135
-87.9131
64.2567
64.0157
-73.3005
-65.9746
-55.2302
-48.4201
-69.7074
-58.9773
-59.7833
-51.5963
-33.3716
-29.0144
-33.0269
-29.2015
-35.4343
-35.2948
-28.4706
-28.6455
-31.6259
-26.4802
-31.6445
-26.2871
-31.6199
-31.6287
-24.455
-24.3166
-46.8397
-34.8143
-37.7723
-34.061
-40.9212
-45.6422
-33.514
-33.6474
-34.6184
-25.4905
-34.9331
-25.3714
-35.822
-35.736
63.3651
63.0816
-63.7432
-44.7894
-50.6154
-30.7579
-63.4703
-77.3956
-36.4769
-27.0514
-31.2201
-27.9803
-31.199
-27.906
-32.425
-32.4273
-25.9172
-25.9867
-43.0352
-40.4849
-47.1261
-50.0094
-45.4132
-47.7592
-46.1513
-41.2811
-6.86339
85.1875
-13.2089
90.9094
-30.8547
-22.3883
131.128
93.3605
-73.2904
-65.9705
-55.2475
-48.4259
-69.6794
-58.9551
-59.7848
-51.5925
-33.1698
-28.8509
-32.8438
-29.0528
-35.0861
-35.2313
-28.312
-28.5184
-46.7195
-34.711
-37.7018
-34.0666
-40.8004
-45.49
-33.5567
-33.6005
-63.8453
-44.4044
-50.4911
-30.6865
-77.5476
-63.0843
-27.0158
-36.4231
-42.9665
-40.4658
-47.0966
-50.0131
-47.6793
-45.3187
-41.2526
-46.1319
-32.7387
-33.7801
-32.9347
-33.4951
-32.3267
-32.3726
-34.2625
-33.6908
-36.5711
-34.1319
-39.1861
-38.4157
-39.0986
-39.6269
-34.5976
-36.8781
-36.8181
-36.2496
-37.0354
-36.2361
-38.6138
-38.5902
-35.4781
-35.4835
-30.0087
-28.0845
-37.3655
-37.5479
-32.7137
-35.9856
-35.6454
-35.1002
-41.3441
-37.3659
-41.4222
-37.0576
-39.303
-39.2132
-35.1359
-35.03
-53.8438
-65.0708
-51.0393
-57.5036
-49.4787
-50.9444
-74.1099
-65.2083
13.2452
-1.23704
13.2425
-1.25939
14.2924
14.2326
-14.0038
-13.9994
-69.7739
-62.4175
-69.7743
-62.3869
-74.1157
-74.0948
-59.3345
-59.3376
-33.3718
-34.1185
-31.4239
-33.0198
-32.6692
-31.6909
-34.4707
-33.5307
-36.6017
-34.2085
-39.2226
-38.5057
-39.6584
-39.1286
-34.7053
-36.9914
-29.9826
-27.9576
-37.3105
-37.5681
-35.9115
-32.655
-35.569
-35.0536
-53.9351
-65.2133
-51.0255
-57.4897
-51.0201
-49.5629
-65.2003
-74.3666
-82.2142
-83.1323
-74.7781
-61.7974
-62.4645
-75.3262
-58.8752
-58.7972
-82.1614
-83.09
-74.7092
-61.7131
-75.2672
-62.4123
-58.771
-58.8402
-62.4377
-62.407
-58.0543
-50.2818
-58.0321
-50.3557
-46.9087
-46.9092
-28.3681
-28.4763
-25.1131
-14.7414
-14.7533
-24.9757
-8.80137
-8.86542
164.227
198.806
172.741
172.712
193.911