# vtk DataFile Version 2.0
tet_velo
ASCII
DATASET UNSTRUCTURED_GRID
POINTS 29498 float
-0.746328 0.095 -1.745
-0.724482 0.175 1.815
-0.625 0.643081 -1.745
-0.645 0.854012 1.855
0.746332 0.095 -1.745
0.724487 0.175 1.815
0.625 0.643081 -1.745
0.645 0.854012 1.855
-0.762025 0.098688 -0.558333
-0.781184 0.0989137 0.628333
-0.715885 0.79761 -0.545
-0.697465 0.842833 0.655
0.762033 0.0986839 -0.558333
0.781198 0.0989044 0.628333
0.715892 0.797616 -0.545
0.697471 0.842839 0.655
-1.48228 -0.290755 -2.70725
-1.47793 -0.240005 -1.75257
-1.4908 -0.235694 -0.566252
-1.49696 -0.241673 0.617386
-1.46558 -0.192619 1.80348
-1.45457 -0.151168 2.75705
-1.45635 -0.115227 3.71266
-1.47252 0.0233209 -2.70245
-1.46523 0.0904951 -1.74632
-1.4874 0.112623 -0.557408
-1.48915 0.110012 0.630308
-1.44005 0.158645 1.81897
-1.43846 0.199255 2.77272
-1.44803 0.234727 3.7279
-1.42082 0.626266 -2.69661
-1.38187 0.691876 -1.74103
-1.43767 0.802121 -0.543025
-1.42422 0.837039 0.655926
-1.37681 0.856643 1.85368
-1.40332 0.895138 2.80688
-1.4306 0.933456 3.75991
-1.39675 1.62406 -2.67782
-1.38311 1.69966 -1.72024
-1.40081 1.81256 -0.517913
-1.41311 1.89043 0.687289
-1.4099 1.93061 1.88948
-1.41498 1.95887 2.84676
-1.42659 1.99082 3.80125
-0.761786 -0.288848 -2.70639
-0.743979 -0.235711 -1.75132
-0.750965 -0.242103 -0.56642
-0.766124 -0.249873 0.615701
-0.745143 -0.185823 1.80054
-0.739815 -0.14643 2.75505
-0.742772 -0.113333 3.71151
-0.765399 0.0196636 -2.70219
-0.73316 0.204788 2.77108
-0.739725 0.236711 3.72703
-0.72368 0.605036 -2.69826
-0.706981 0.895547 2.80714
-0.729257 0.933862 3.75997
-0.688506 1.61035 -2.67945
-0.670213 1.68716 -1.72204
-0.686994 1.80994 -0.518996
-0.705442 1.89297 0.687419
-0.708094 1.93176 1.89041
-0.713464 1.95895 2.84769
-0.722521 1.99071 3.80192
0.696716 -0.288848 -2.70639
0.746447 -0.235711 -1.75132
0.763771 -0.242106 -0.566421
0.764054 -0.249879 0.615701
0.724144 -0.185825 1.80054
0.701087 -0.146432 2.75505
0.690401 -0.113334 3.71151
0.671894 0.0196639 -2.70219
0.687302 0.204787 2.77107
0.681823 0.23671 3.72703
0.639222 0.605036 -2.69826
0.661255 0.895547 2.80714
0.671605 0.933862 3.75997
0.710107 1.61035 -2.67945
0.728824 1.68716 -1.72204
0.729436 1.80995 -0.518996
0.707277 1.89297 0.687419
0.688774 1.93176 1.89041
0.684049 1.95895 2.84769
0.683948 1.99071 3.80192
1.42847 -0.290755 -2.70725
1.47529 -0.240006 -1.75257
1.50199 -0.235698 -0.566252
1.50304 -0.241682 0.617386
1.45995 -0.192625 1.80348
1.42836 -0.151172 2.75705
1.41326 -0.11523 3.71266
1.40464 0.0233218 -2.70245
1.45907 0.090496 -1.74632
1.49171 0.11262 -0.557408
1.49703 0.110005 0.630308
1.4459 0.15864 1.81897
1.41169 0.199252 2.77272
1.40176 0.234725 3.7279
1.36291 0.626268 -2.69661
1.38133 0.691879 -1.74103
1.44382 0.802127 -0.543025
1.43153 0.837042 0.655925
1.38258 0.856641 1.85368
1.37665 0.895136 2.80688
1.38459 0.933455 3.75991
1.41533 1.62407 -2.67782
1.43203 1.69967 -1.72024
1.4399 1.81257 -0.517914
1.42143 1.89044 0.687289
1.39911 1.93061 1.88948
1.39261 1.95887 2.84676
1.39373 1.99082 3.80125
-0.701801 0.369041 -1.76114
1.99676e-06 0.0912956 -1.7487
-0.757411 0.0936096 -1.15167
-0.719828 0.514506 1.87009
2.5034e-06 0.168692 1.82131
-0.772247 0.117542 1.22167
0 0.706471 -1.80839
-0.705348 0.755251 -1.145
0 0.902555 1.90354
-0.688322 0.865512 1.255
0.701863 0.369041 -1.7612
0.75856 0.0924646 -1.15167
0.719761 0.514506 1.87002
0.772246 0.117548 1.22167
0.70535 0.755253 -1.145
0.688324 0.865514 1.255
-0.771548 0.0988573 0.035
-0.803633 0.448149 -0.551667
4.2519e-06 0.097861 -0.558333
-0.812672 0.470873 0.641667
6.99964e-06 0.0980416 0.628333
-0.7004 0.813947 0.055
3.18209e-06 0.970283 -0.545
3.03984e-06 1.16359 0.655
0.771559 0.0988506 0.035
0.803632 0.44815 -0.551667
0.81267 0.470872 0.641667
0.700396 0.813943 0.055
-0.888309 0.408595 -1.14833
-0.804097 0.459511 0.045
-0.896219 0.49269 1.23833
3.12433e-06 0.0905951 -1.15167
5.62577e-06 0.0979851 0.035
4.75152e-06 0.110444 1.22167
9.98378e-07 0.369041 -1.94008
1.2517e-06 0.514506 1.96548
1.59104e-06 0.829081 -1.145
3.11096e-06 1.16606 0.055
1.51992e-06 0.991695 1.255
0.88831 0.408595 -1.14833
0.8041 0.459511 0.045
0.896203 0.492689 1.23833
-1.10578 0.0927475 -1.74566
-0.745153 -0.0703554 -1.74816
-0.755864 0.0573318 -2.22359
-1.08226 0.166822 1.81698
-0.734812 -0.00541146 1.80777
-0.728821 0.189894 2.29304
-1.00343 0.667478 -1.74302
-0.67434 0.624058 -2.22163
-0.647607 1.16512 -1.73352
-1.0109 0.855327 1.85434
-0.67599 0.87478 2.33107
-0.676547 1.39289 1.8727
0.74639 -0.0703557 -1.74816
0.709113 0.0573319 -2.22359
1.1027 0.092748 -1.74566
0.724315 -0.00541261 1.80777
0.705895 0.189894 2.29304
1.08519 0.16682 1.81698
0.632111 0.624059 -2.22163
0.676912 1.16512 -1.73352
1.00316 0.66748 -1.74302
0.653127 0.874779 2.33107
0.666887 1.39289 1.8727
1.01379 0.855327 1.85434
-1.12471 0.105655 -0.557871
-0.756495 -0.0717075 -0.562377
-1.13517 0.104463 0.629321
-0.773654 -0.0754796 0.622017
-1.07678 0.799865 -0.544013
-0.70144 1.30378 -0.531998
-1.06084 0.839936 0.655463
-0.701454 1.3679 0.67121
0.762902 -0.0717113 -0.562377
1.12687 0.105652 -0.557871
0.772626 -0.0754875 0.622017
1.13911 0.104454 0.629321
0.722664 1.30378 -0.531998
1.07986 0.799871 -0.544013
0.702374 1.3679 0.67121
1.0645 0.839941 0.655463
-1.48011 -0.26538 -2.22991
-1.4774 -0.133717 -2.70485
-1.12204 -0.289802 -2.70682
-1.48437 -0.23785 -1.15941
-1.47158 -0.0747552 -1.74945
-1.11096 -0.237858 -1.75195
-1.49388 -0.238683 0.0255671
-1.4891 -0.0615356 -0.56183
-1.12088 -0.238898 -0.566336
-1.48127 -0.217146 1.21043
-1.49306 -0.0658303 0.623847
-1.13154 -0.245773 0.616544
-1.46007 -0.171894 2.28027
-1.45281 -0.0169873 1.81123
-1.10536 -0.189221 1.80201
-1.45546 -0.133198 3.23486
-1.44651 0.0240432 2.76489
-1.09719 -0.148799 2.75605
-1.45219 0.0597501 3.72028
-1.09956 -0.11428 3.71209
-1.46888 0.056908 -2.22439
-1.44667 0.324793 -2.69953
-1.11896 0.0214922 -2.70232
-1.47631 0.101559 -1.15187
-1.42355 0.391185 -1.74368
-1.48827 0.111318 0.0364502
-1.46254 0.457372 -0.550217
-1.4646 0.134329 1.22464
-1.45668 0.473526 0.643117
-1.43925 0.17895 2.29585
-1.40843 0.507644 1.83632
-1.44324 0.216991 3.25031
-1.42089 0.547196 2.7898
-1.08581 0.202021 2.7719
-1.43931 0.584092 3.74391
-1.09388 0.235719 3.72747
-1.40134 0.659071 -2.21882
-1.40878 1.12517 -2.68721
-1.07225 0.615651 -2.69743
-1.40977 0.746998 -1.14203
-1.38249 1.19577 -1.73064
-1.43095 0.81958 0.0564502
-1.41924 1.30734 -0.530469
-1.40051 0.846841 1.2548
-1.41866 1.36374 0.671607
-1.39006 0.87589 2.33028
-1.39335 1.39363 1.87158
-1.41696 0.914297 3.28339
-1.40915 1.427 2.82682
-1.05515 0.895342 2.80701
-1.4286 1.46214 3.78058
-1.07993 0.933659 3.75994
-1.38993 1.66186 -2.19903
-1.04263 1.6172 -2.67863
-1.39196 1.75611 -1.11908
-1.02666 1.69341 -1.72114
-1.40696 1.8515 0.084688
-1.0439 1.81125 -0.518455
-1.4115 1.91052 1.28838
-1.05927 1.8917 0.687354
-1.41244 1.94474 2.36812
-1.059 1.93119 1.88994
-1.42079 1.97484 3.32401
-1.06422 1.95891 2.84723
-1.07456 1.99076 3.80159
-0.752882 -0.262279 -2.22885
-0.763593 -0.134592 -2.70429
-0.0325351 -0.288848 -2.70639
-0.747472 -0.238907 -1.15887
0.00123407 -0.235711 -1.75132
-0.758545 -0.245988 0.0246402
0.00640277 -0.242105 -0.566421
-0.755633 -0.217848 1.20812
-0.00103535 -0.249876 0.615701
-0.742479 -0.166127 2.27779
-0.0104995 -0.185824 1.80054
-0.741293 -0.129881 3.23328
-0.736487 0.0291789 2.76306
-0.0193639 -0.146431 2.75505
-0.741249 0.0616893 3.71927
-0.0261858 -0.113333 3.71151
-0.74454 0.31235 -2.70022
-0.0467526 0.0196637 -2.70219
-0.736442 0.22075 3.24905
-0.720071 0.550168 2.78911
-0.022929 0.204788 2.77108
-0.734491 0.585287 3.7435
-0.0289511 0.236711 3.72703
-0.706093 1.10769 -2.68885
-0.0422292 0.605036 -2.69826
-0.718119 0.914705 3.28356
-0.710223 1.42725 2.82742
-0.022863 0.895547 2.80714
-0.725889 1.46229 3.78094
-0.0288262 0.933862 3.75997
-0.67936 1.64875 -2.20074
0.0108007 1.61035 -2.67945
-0.678604 1.74855 -1.12052
0.0293053 1.68716 -1.72204
-0.696218 1.85146 0.0842115
0.0212207 1.80995 -0.518996
-0.706768 1.91237 1.28891
0.000917088 1.89297 0.687419
-0.710779 1.94536 2.36905
-0.00966011 1.93176 1.89041
-0.717993 1.97483 3.32481
-0.0147076 1.95895 2.84769
-0.0192866 1.99071 3.80192
0.721581 -0.26228 -2.22885
0.684305 -0.134592 -2.70429
1.06259 -0.289801 -2.70682
0.755109 -0.238909 -1.15887
1.11087 -0.237859 -1.75195
0.763912 -0.245993 0.0246402
1.13288 -0.238902 -0.566336
0.744099 -0.217852 1.20812
1.13355 -0.245781 0.616544
0.712615 -0.166129 2.27779
1.09204 -0.189225 1.80201
0.695744 -0.129883 3.23328
0.694194 0.0291776 2.76306
1.06473 -0.148802 2.75605
0.686112 0.061688 3.71927
1.05183 -0.114282 3.71209
0.655558 0.31235 -2.70022
1.03827 0.0214928 -2.70232
0.684562 0.220749 3.24905
0.674279 0.550167 2.78911
1.04949 0.20202 2.7719
0.676714 0.585286 3.7435
1.04179 0.235717 3.72747
0.674665 1.10769 -2.68885
1.00107 0.615652 -2.69743
0.66643 0.914704 3.28356
0.672652 1.42725 2.82742
1.01895 0.895342 2.80701
0.677776 1.46229 3.78094
1.0281 0.933658 3.75994
0.719466 1.64875 -2.20074
1.06272 1.61721 -2.67863
0.72913 1.74855 -1.12052
1.08043 1.69342 -1.72114
0.718356 1.85146 0.0842115
1.08467 1.81126 -0.518455
0.698025 1.91237 1.28891
1.06435 1.8917 0.687354
0.686411 1.94536 2.36905
1.04394 1.93119 1.88994
0.683999 1.97483 3.32481
1.03833 1.95891 2.84723
1.03884 1.99076 3.80159
1.45188 -0.26538 -2.22991
1.41656 -0.133717 -2.70485
1.48864 -0.237852 -1.15941
1.46718 -0.074755 -1.74945
1.50252 -0.23869 0.0255671
1.49685 -0.0615388 -0.56183
1.48149 -0.217153 1.21043
1.50004 -0.0658386 0.623847
1.44415 -0.171898 2.28027
1.45292 -0.0169924 1.81123
1.42081 -0.133201 3.23486
1.42003 0.0240401 2.76489
1.40751 0.0597474 3.72028
1.43186 0.0569089 -2.22439
1.38378 0.324795 -2.69953
1.47539 0.101558 -1.15187
1.4202 0.391188 -1.74368
1.49437 0.111312 0.0364501
1.46777 0.457373 -0.550217
1.47147 0.134322 1.22464
1.46428 0.473523 0.643117
1.42879 0.178946 2.29585
1.41424 0.507641 1.83632
1.40672 0.216988 3.25031
1.39417 0.547194 2.7898
1.39317 0.58409 3.74391
1.37212 0.659074 -2.21882
1.38912 1.12517 -2.68721
1.41257 0.747003 -1.14203
[...]
POINT_DATA 29498
VECTORS point_vectors float
-1.84501 -2.55764 6.32013
0.0492387 0.17941 0.560046
-1.14566 2.18687 3.87936
0.0234527 -0.16763 0.684245
1.84489 -2.55635 6.31958
-0.0466193 0.179746 0.556227
1.13891 2.17787 3.86586
-0.0272804 -0.162909 0.678535
-0.00831976 0.00385937 0.111908
0.00994117 -0.00521431 0.153329
-3.50875e-17 -1.7109e-17 7.97054e-17
0 0 0
0.0083113 0.00386833 0.112557
-0.0100506 -0.00520765 0.153414
0 0 0
0 0 0
-0.671092 -0.327174 19.8597
-1.25127 -0.757965 20.5387
-0.427801 -0.330058 21.2853
-0.00381534 -0.0867616 21.343
0.520276 0.22009 21.327
0.732545 0.336655 21.1045
0.784785 0.23799 20.9303
-0.85698 -0.244789 19.7242
-1.85221 -0.6212 20.4693
-0.603608 -0.377543 21.3596
-0.102188 -0.208656 21.4204
0.701387 0.0631317 21.4353
0.996465 0.125318 21.0589
0.981856 1.76067e-05 20.7808
-0.908694 0.163607 19.6124
-2.24228 0.50353 20.2919
-1.09026 -0.116912 21.3728
-0.332865 -0.146428 21.5548
0.584009 -0.398197 21.4638
0.827842 -0.465179 21.0699
0.851257 -0.435265 20.5242
-0.521975 0.443029 19.9517
-0.791874 0.70959 20.3879
-0.683682 0.50116 21.0268
-0.234198 0.0833494 21.2883
0.123647 -0.244125 21.199
0.263357 -0.376522 20.9368
0.2463 -0.349355 20.7703
-0.765238 -0.842474 19.2651
-1.49758 -3.10423 20.9743
-0.286623 -0.342264 21.6958
0.018067 0.0167617 21.2468
0.270458 1.02893 19.4142
0.495221 1.27885 18.7834
0.787512 1.25942 18.2192
-1.05468 -0.678235 18.7458
0.817008 1.35739 9.1632
1.48893 0.986534 12.2934
-1.13443 0.367476 18.3894
1.06816 -0.577958 10.7929
1.09203 -0.967666 14.6805
-0.433398 0.83143 19.599
-0.721416 1.54403 20.2109
-0.768633 1.25841 21.1018
-0.244379 0.255472 21.633
0.0946439 -0.395976 21.2836
0.18612 -0.552949 20.9956
0.220795 -0.57241 20.5195
0.70934 -0.906973 19.1958
1.50782 -3.09524 20.9702
0.282278 -0.341667 21.7432
-0.0203337 0.0197303 21.2301
-0.244533 1.01748 19.3618
-0.412243 1.26037 18.5279
-0.693531 1.29114 17.616
0.965113 -0.793682 18.5643
-0.556285 1.30099 8.00174
-1.39121 1.04913 11.6052
1.08345 0.392701 18.2125
-1.00446 -0.568202 9.07943
-1.10737 -1.00316 13.7198
0.441683 0.81867 19.6093
0.776906 1.4729 20.2245
0.792291 1.20078 21.1008
0.242926 0.255687 21.6311
-0.094132 -0.398037 21.285
-0.184165 -0.554087 20.9865
-0.224631 -0.575929 20.5551
0.694495 -0.345777 19.8224
1.25879 -0.762921 20.5324
0.429764 -0.311339 21.2717
0.00432578 -0.0816683 21.3345
-0.520161 0.215091 21.328
-0.744593 0.341788 21.1383
-0.81129 0.252388 20.9152
0.871563 -0.264258 19.6709
1.86165 -0.634444 20.4753
0.60258 -0.3759 21.3573
0.103496 -0.207294 21.4078
-0.687656 0.0531457 21.4311
-1.0213 0.120027 21.0588
-1.08303 0.014931 20.5095
0.954156 0.170237 19.5388
2.24462 0.502591 20.2908
1.08077 -0.114301 21.3684
0.328637 -0.145602 21.5462
-0.573375 -0.39185 21.434
-0.834615 -0.481445 21.069
-0.904654 -0.459116 20.5103
0.519295 0.433376 19.9622
0.776342 0.677389 20.395
0.666867 0.472683 21.019
0.232021 0.0826226 21.2836
-0.124437 -0.244698 21.1992
-0.264748 -0.381924 20.9314
-0.239041 -0.350706 20.7362
-0.58598 0.0122111 0.635107
-8.84681e-06 -0.00488885 0.0935519
-0.0385468 0.00807461 0.209686
-0.00225647 0.00235084 -0.000428018
-0.000216763 0.00184093 0.0112175
-0.00251824 0.00543516 0.133967
5.87777e-05 0.0715701 0.218523
-0.105909 -0.0148649 0.359663
-0.00313371 0.00214043 -0.00660173
0.0524275 0.024475 0.25868
0.603106 0.0119585 0.652954
0.039089 0.0082262 0.210152
0.00220771 0.00233071 -0.000467829
0.00247714 0.00535623 0.133499
0.105805 -0.0148342 0.359899
-0.0524368 0.0250321 0.257061
0.00367711 0.00163417 0.374502
0.00325284 -0.00413916 0.0539365
-2.55077e-09 5.91453e-07 7.48196e-05
-0.00137955 0.0142888 0.0326043
0 0 0
0 0 0
0.00184719 0.0265293 0.0616625
-1.08433e-05 -0.00277787 0.0334846
-0.00375566 0.00162121 0.374292
-0.00324398 -0.00423959 0.05397
0.00142922 0.0148817 0.0337297
0 0 0
-3.09976e-05 -3.74545e-05 0.00124751
-0.000547838 0.0226524 0.106694
0.000279533 0.00534129 0.0524169
-1.03901e-10 3.09993e-09 9.30361e-07
1.1764e-10 -3.35111e-09 -1.1016e-06
-3.57922e-07 4.90079e-06 0.000298681
2.5509e-05 -0.00768973 0.00511693
0 0 0
3.98367e-06 0.000431042 0.00343477
8.3993e-07 0.0048231 0.0515579
-2.04082e-05 0.000667576 -0.00133459
3.27812e-05 -4.15833e-05 0.00132674
0.000557457 0.0227923 0.106827
-0.000222233 0.00555958 0.0517907
-3.46251 -1.83775 20.2301
-2.5071 -5.25219 21.4862
-2.68973 -2.07262 17.7161
1.22272 0.648792 17.7373
0.0338927 1.23842 12.3591
0.208508 0.982361 5.90939
-4.46155 1.8018 19.6993
-3.16414 1.72944 16.5968
-1.70358 2.87159 19.9627
0.976958 -0.443291 18.2231
0.440884 -0.251715 6.36742
0.243563 -0.722102 21.1871
2.51355 -5.23361 21.4726
2.71566 -2.30083 17.3755
3.49122 -1.87151 20.2202
-0.0060687 1.20033 12.1031
-0.0435905 0.880859 5.14921
-1.20687 0.63111 17.7605
3.17811 1.85488 16.2894
1.75314 2.7909 19.9752
4.46478 1.80626 19.6999
-0.325815 -0.184492 5.42977
-0.24185 -0.720474 21.1931
-0.97753 -0.445492 18.473
-0.26843 -0.501004 20.9059
-0.404709 0.122031 15.9457
-0.0393755 -0.187994 19.6361
0.140226 0.0197781 14.8635
-1.717 -0.588086 21.1337
-2.10205 1.85603 21.2006
-0.454045 -0.137136 19.9388
-0.517953 0.247679 22.153
0.406387 0.127383 16.064
0.273565 -0.507743 20.9636
-0.143003 0.0216956 14.8446
0.0374137 -0.191142 19.7209
2.07879 1.74885 21.2186
1.71652 -0.575285 21.1943
0.516415 0.248517 22.1548
0.455176 -0.144954 20.0307
-1.03324 -0.551497 20.0455
-0.769794 -0.291282 19.7925
-0.755226 -0.547963 19.5997
-0.899214 -0.609729 21.1653
-1.5175 -0.731895 20.5154
-1.67707 -1.64339 20.5914
-0.178726 -0.173512 21.3143
-0.518594 -0.373278 21.3239
-0.314041 -0.418543 21.5321
0.226724 0.0416167 21.4332
-0.0545535 -0.154946 21.3619
0.04904 -0.113526 21.4632
0.66807 0.281245 21.1772
0.607479 0.158359 21.3569
0.650506 0.580152 21.315
0.772291 0.318511 20.8591
0.872432 0.25051 20.986
0.913334 0.795551 20.4743
0.930802 0.118786 20.6317
1.06215 0.806769 20.1635
-1.39457 -0.418717 19.8619
-0.953312 -0.0673708 19.6098
-1.02125 -0.440219 19.3022
-1.3014 -0.553804 21.3079
-2.28615 -0.182374 20.3653
-0.296403 -0.284211 21.3533
-0.820267 -0.350581 21.4136
0.233953 -0.0968468 21.5803
-0.234744 -0.229024 21.534
0.896639 0.0991488 21.1632
0.754014 -0.205759 21.3878
1.02612 0.0218819 20.917
1.0401 -0.232687 21.0317
1.50791 0.664647 18.3958
0.985458 -0.258869 21.0236
1.39137 0.419147 18.867
-1.58464 0.323041 19.6754
-0.753982 0.397678 19.7522
-1.1634 0.225 19.0693
-1.73123 0.194721 21.2511
-1.38866 0.828846 20.3209
-0.699985 -0.194537 21.4636
-1.04707 0.35978 21.1813
0.132914 -0.217601 21.629
-0.322084 0.00122926 21.4823
0.753118 -0.444892 21.1892
0.277551 -0.351531 21.3054
0.852077 -0.453602 21.1124
0.468797 -0.488235 21.0712
1.1495 -0.719569 19.9233
0.480161 -0.4548 20.735
1.0121 -0.672881 20.273
-0.695138 0.615714 20.0977
-0.536794 0.644728 19.771
-0.788594 0.648967 20.7294
-0.850565 1.09705 20.3032
-0.490606 0.297374 21.2364
-0.801251 0.804634 21.0802
-0.0262751 -0.10622 21.2719
-0.257007 0.158519 21.4696
0.205517 -0.324868 21.0898
0.126651 -0.319244 21.2311
0.266054 -0.381862 20.8087
0.23331 -0.473217 20.964
0.268061 -0.404861 20.6915
-1.36977 -1.92515 19.2871
-0.961781 -0.784847 18.9436
-0.046288 -1.27119 18.7662
-0.608009 -1.25005 22.2487
-0.00212111 -3.61684 21.9551
-0.120774 -0.119161 21.3007
-0.00214079 -0.405453 21.3922
0.159301 0.405071 20.3325
-0.00279323 -0.0159814 20.4962
0.372411 1.17099 19.003
-0.0183016 0.654344 17.5623
0.587416 1.32262 18.3972
0.532473 1.4968 14.1309
-0.0417766 0.719028 16.1487
0.94775 1.2019 15.8177
0.00871578 0.981025 15.3132
-1.18292 -0.215748 18.381
-0.0978085 -1.1114 17.8275
1.38957 1.63798 11.648
1.27666 0.488724 5.53861
-0.107174 -0.747445 -1.22692
1.72914 0.195941 10.9479
0.0512866 0.307334 3.31702
-0.793572 0.923151 18.9937
-0.102204 0.630823 17.3169
1.56762 -0.856693 13.521
0.413324 -0.960958 20.9132
0.049079 -0.594868 1.50096
0.374085 -0.939164 20.5393
0.16328 -1.21976 6.20359
-0.619728 1.28604 19.7856
0.00609667 1.04365 19.4248
-0.781571 1.44012 20.6865
0.0350152 1.91459 20.1199
-0.580362 0.825186 21.5233
0.029006 1.87231 21.0905
-0.0189329 -0.154741 21.4919
-0.00031893 0.380738 21.833
0.161603 -0.505952 21.1504
-0.00105088 -0.447803 21.2933
0.233413 -0.578644 20.7405
0.000856718 -0.633874 21.0273
-0.000129483 -0.770941 20.4888
1.35296 -2.01936 19.235
0.872842 -0.887438 18.7924
0.759243 -0.584039 19.5438
0.613782 -1.23955 22.1963
1.67827 -1.64904 20.583
0.118656 -0.118578 21.3367
0.318037 -0.419025 21.5212
-0.15648 0.403329 20.2424
-0.0518821 -0.112584 21.4579
-0.296638 1.14184 18.7652
-0.644305 0.589375 21.3117
-0.390866 1.32083 17.8986
-0.383555 1.41975 13.4427
-0.897769 0.825612 20.4371
-0.86329 1.26076 15.1858
-1.05938 0.857964 20.0882
1.12571 -0.225381 18.1987
1.03849 -0.49268 19.2078
-1.16041 1.53079 10.513
-1.18776 0.497178 4.3191
-1.50423 0.758823 17.7466
-1.75479 0.295443 9.40895
-1.37752 0.514069 18.6399
0.771642 0.960748 18.9486
1.17624 0.255205 18.9671
-1.50326 -0.879842 12.4532
-0.377593 -0.986958 20.9086
-1.16429 -0.705396 19.5588
-0.357413 -0.950075 20.6404
-1.02178 -0.708575 19.5039
0.647315 1.24104 19.8023
0.539651 0.637265 19.7778
0.804939 1.38203 20.6989
0.856494 1.0447 20.3166
0.58166 0.806363 21.5107
0.786274 0.766208 21.0748
0.017744 -0.153828 21.4914
0.255603 0.158201 21.4662
-0.160652 -0.506977 21.1485
-0.126695 -0.319539 21.2321
-0.233471 -0.594656 20.7346
-0.23453 -0.475537 20.9727
-0.279277 -0.425907 20.6201
1.05925 -0.573979 20.0262
0.790949 -0.314005 19.7612
0.890024 -0.585285 21.1594
1.52379 -0.746778 20.5197
0.175442 -0.163038 21.3113
0.522495 -0.367139 21.315
-0.225077 0.0415591 21.4276
0.0571774 -0.154942 21.3533
-0.668736 0.287469 21.1764
-0.604237 0.152027 21.3652
-0.794454 0.322928 20.8344
-0.888277 0.273037 20.9784
-0.987991 0.130332 20.5205
1.44851 -0.458808 19.8299
0.984251 -0.080636 19.5405
1.29889 -0.551201 21.3105
2.29647 -0.174979 20.3627
0.295459 -0.283172 21.3495
0.822594 -0.345823 21.4043
-0.226234 -0.0978655 21.5671
0.234881 -0.228189 21.5224
-0.897662 0.0959237 21.1521
-0.735775 -0.203762 21.3808
-1.06471 0.0145092 20.9966
-1.07487 -0.239977 21.0284
-1.05548 -0.270485 20.8357
1.63271 0.337965 19.6335
0.760734 0.407728 19.734
1.72585 0.191807 21.2474
1.36586 0.799039 20.3281
0.693364 -0.190562 21.4581
1.0212 0.344009 21.171
-0.132318 -0.215105 21.6183
0.319359 0.000694979 21.4757
-0.753109 -0.448005 21.1848
-0.276584 -0.347739 21.3064
-0.848942 -0.475799 21.0999
-0.475738 -0.500178 21.0665
-0.484577 -0.461906 20.7474
0.684185 0.597836 20.1138
0.778281 0.614537 20.7303
0.480696 0.284026 21.2257
0.0251982 -0.105569 21.2716
-0.20677 -0.325253 21.0879
-0.261375 -0.390808 20.8065
-1.21633 -0.527097 19.9627
-1.89636 -2.16401 18.6234
-1.31352 -1.04842 19.7202
-2.02349 -0.909722 19.213
-0.930977 -0.508578 19.3998
-2.46556 -1.91084 20.4841
-1.07368 -0.624715 21.2277
-0.5625 -0.543895 18.1481
-0.885031 -1.04509 21.6013
-1.58743 -1.33438 22.3274
-0.310714 -0.478889 21.5469
-0.248335 -0.244195 21.3139
-0.14019 0.0955837 14.996
-0.0924484 -0.223518 21.421
-0.061587 -0.248795 19.9692
0.0390073 -0.182661 20.9739
0.220441 -0.0289988 21.4824
0.183797 0.3903 13.6281
0.311342 0.166889 21.4704
0.348303 0.0840422 18.8359
0.940866 0.716909 19.9632
0.788264 0.235737 21.1812
0.217675 1.31409 13.1263
0.815654 0.705954 21.0663
1.38209 0.606885 18.0582
1.18824 0.799754 19.8921
0.932495 0.155652 21.022
0.977634 1.5093 15.1419
0.992664 0.778159 20.2774
1.40938 0.581581 18.267
1.24444 0.716947 19.8503
-1.62397 -0.120291 19.7044
-3.53989 -0.504828 16.3185
-2.43453 0.707962 18.7054
-1.14761 -0.131742 19.1301
-5.14071 -0.24164 19.6211
-1.65137 -0.307074 21.4053
-2.87544 0.526138 22.1219
-0.511272 -0.754168 19.3955
-0.466127 -0.316678 21.4463
-1.08667 -0.607758 20.4291
-0.212248 -0.122937 17.5975
0.184711 -0.186735 21.6198
0.376922 0.00157584 19.2638
1.28334 0.0991083 15.471
0.959219 -0.215185 21.1152
0.025125 0.416615 2.15129
1.04898 -0.617407 19.2575
1.61331 -0.099911 17.5718
1.00437 -0.236182 21.1751
1.76303 0.255993 9.9268
1.09503 -0.733585 19.989
1.54646 -0.0357072 18.2321
-1.10156 0.630035 19.8977
-1.36655 1.9631 18.9739
-0.738628 0.927796 19.9466
-0.855717 0.630748 19.4072
-1.79948 1.64809 20.1559
-1.29672 0.629834 20.8979
-1.72311 2.12654 20.8643
-0.875164 1.01424 20.721
-1.55401 0.738933 21.2983
-0.71905 0.156174 21.3901
-1.6303 1.12523 22.2011
-0.575843 0.520763 21.3635
-0.429645 0.0862365 21.7709
0.0312927 -0.184847 21.4501
0.0897332 -0.41377 21.6413
-0.0232604 -0.127531 21.3956
0.298515 -0.528321 21.4238
0.404137 -0.44136 21.1678
0.310482 -0.844773 21.038
0.191551 -0.417395 21.1257
0.480595 -0.706707 21.0485
0.474569 -0.484923 20.6912
0.486166 -0.990965 20.8383
0.282632 -0.4793 20.8244
0.511291 -0.678036 20.5528
1.87658 -2.32298 18.5198
-0.0394087 -3.29159 18.817
-0.133515 -5.05795 14.989
-0.0717935 -1.25621 18.3176
0.00158542 -4.09619 22.0935
0.567414 -0.551375 18.1656
-0.00216564 -1.18339 22.3151
0.00150157 -0.0133451 12.6225
0.141249 0.0978693 15.0442
-0.0033019 -0.17488 20.7686
-0.00139909 0.00818397 11.8479
-0.182355 0.384482 13.5239
-0.00499536 0.316416 19.0214
-0.0278308 0.541312 8.71028
-0.122614 1.22832 12.6241
-0.0362139 0.568223 16.7926
-0.133674 -0.718849 -0.269974
-0.148599 0.294136 7.77449
-0.778493 1.48776 14.56
-0.0128408 1.02765 15.6993
-0.0109373 0.276964 0.862584
0.047139 1.07916 9.38946
3.61764 -0.522956 15.8447
-0.156103 3.6922 13.1938
-0.115668 -0.377438 17.1607
0.134541 0.431725 1.74414
-0.0396132 0.52092 0.379194
0.150025 -0.993181 -4.02389
-1.64629 0.300698 8.13813
0.0851155 -0.842434 3.06621
0.206229 -0.940209 -2.09533
1.36502 1.96631 18.9738
0.0174472 1.6052 19.6309
-0.0220367 1.27152 18.5534
0.0442536 3.86831 19.8734
1.74447 2.06136 20.8754
0.0382505 1.91109 20.5973
0.0415989 3.84961 20.621
1.61182 1.09705 22.204
0.0125174 1.30047 21.7269
-0.00131717 0.475587 21.7063
-0.0921063 -0.414367 21.6379
-0.00184645 -0.173555 21.6035
-0.00319972 -0.736682 18.6462
-0.300219 -0.845137 21.0274
-0.00045504 -0.572721 21.1914
0.0146435 -1.03475 18.7026
-0.435962 -1.00622 20.9136
0.00791067 -0.6443 20.7879
0.0324202 -0.929622 19.5713
1.25261 -0.55911 19.9396
1.33762 -1.10102 19.6805
2.10426 -1.02891 19.094
0.931918 -0.554328 19.3356
2.46725 -1.92281 20.4802
1.07626 -0.608896 21.2234
0.887376 -1.03819 21.5919
1.58675 -1.33301 22.3298
0.316073 -0.478873 21.5471
0.245875 -0.239786 21.315
0.0917138 -0.225622 21.4139
0.0626331 -0.25424 20.0175
-0.0401938 -0.184037 20.9903
-0.215255 -0.0328979 21.4694
-0.313536 0.169426 21.4594
-0.347656 0.0790436 18.9211
-0.934724 0.721337 19.8886
-0.791981 0.242991 21.1787
-0.809764 0.744762 20.9366
-1.36236 0.645888 17.6917
-1.19527 0.879579 19.6896
-0.9534 0.15595 21.0087
-0.968901 0.826588 20.2925
-1.43844 0.719468 17.4083
-1.24026 0.822734 19.6871
1.66561 -0.133122 19.6569
2.53365 0.802296 18.5534
1.18997 -0.13733 18.9726
5.18442 -0.23787 19.6127
1.65112 -0.301255 21.4005
2.8728 0.516852 22.1168
0.522148 -0.751351 19.4735
0.467442 -0.313393 21.4376
1.0883 -0.602285 20.5452
0.21313 -0.135818 17.7507
-0.179366 -0.183968 21.612
-0.368365 -0.0220094 19.3934
-1.25716 0.103491 15.5879
-0.959094 -0.219093 21.1024
-1.05565 -0.590296 18.9793
-1.62988 -0.0525171 16.7315
-1.01987 -0.256029 21.1598
-1.18882 -0.74088 19.1887
-1.54605 -0.0794165 17.4286
1.09875 0.628331 19.8988
0.743439 0.904312 19.9599
0.853994 0.64502 19.3896
1.77637 1.56502 20.1648
1.27278 0.604582 20.8901
0.87047 0.963919 20.722
1.51749 0.711999 21.2918
0.705066 0.149394 21.3804
0.571753 0.50603 21.3515
0.427311 0.0864209 21.7661
-0.0308408 -0.182376 21.4468
0.022413 -0.125848 21.3966
-0.298159 -0.525558 21.4242
-0.403041 -0.442361 21.1666
-0.192536 -0.423443 21.1254
-0.479831 -0.726205 21.0493
-0.476645 -0.509315 20.6692
-0.282531 -0.485795 20.8176
-0.515193 -0.714378 20.5455
-1.6587 -1.05591 19.4744
-1.18358 -1.21659 21.9132
-0.0800402 -0.258982 21.1142
0.387272 0.139565 20.7367
1.07639 0.792715 19.8079
1.24786 0.728648 20.1402
-2.52059 -0.227978 18.7343
-2.47441 -0.621823 22.339
-0.19648 -0.545617 18.0651
0.239605 0.168889 17.5048
1.39574 -0.0360247 16.627
1.73896 -0.105518 18.0109
-1.41834 1.16946 19.5187
-1.67205 1.19318 20.9592
-1.10497 0.390526 21.6836
0.0589717 -0.247965 21.6665
0.408719 -0.640049 21.2224
0.494587 -0.71784 20.8616
-0.0824453 -4.3614 17.5302
0.000881618 -0.44003 14.4882
-0.000333292 -0.00168687 11.903
-0.00569098 0.234905 10.5169
-0.107293 0.0708332 8.11177
-0.0271824 0.893227 8.71314
-0.195327 -1.08553 11.4655
0.0130931 -0.188882 -3.20591
0.137219 -1.05623 -3.95264
-0.00271539 2.89181 18.3956
0.0437494 3.12021 20.5246
0.0145202 2.70975 22.5806
-0.00283316 -0.485868 19.6153
6.67485e-05 -0.817141 18.5826
0.0285157 -1.21964 19.6975
1.69678 -1.14103 19.4038
1.18541 -1.20877 21.9044
0.0814333 -0.262365 21.1346
-0.386091 0.137693 20.7217
-1.07146 0.821181 19.6493
-1.29557 0.858661 19.7382
2.67696 -0.237051 18.5188
2.47663 -0.619924 22.3544
0.202741 -0.546925 18.1714
-0.238261 0.153454 17.6462
-1.38343 -0.00423281 16.2534
-1.81905 -0.111534 17.179
1.41783 1.16886 19.5199
1.64551 1.14142 20.9598
1.09094 0.379376 21.6727
-0.0601002 -0.245738 21.6655
-0.406679 -0.64504 21.2279
-0.501245 -0.747776 20.8882
0 0 0
-0.012896 -0.0181475 0.153933
-0.0520919 0.0273307 0.397342
-0.00291799 0.000810812 0.00437115
-0.00378288 0.00328923 0.0191875
-0.0409087 0.0588888 0.542069
-0.981175 0.494982 1.42755
-0.00454445 0.130994 0.361004
-0.131391 0.0866123 0.60511
0.00225573 0.0143436 0.0248117
-0.0797815 0.000955345 0.0203088
0.0146872 0.00214248 0.202487
0.0129721 -0.0181481 0.154272
0 0 0
0.051548 0.0269613 0.394773
0.00358954 0.00319629 0.0188225
0.00344844 0.00075699 0.00369141
0.0404184 0.0586597 0.540928
0.00469415 0.132024 0.363304
0.962395 0.486727 1.39931
0.131997 0.0877714 0.608859
0.0705829 0.007362 0.0132051
-0.00267595 0.0152728 0.0247279
-0.0152861 0.0026106 0.20081
-0.0627933 0.0208818 0.486825
-0.00136156 0.000640956 0.0911574
0.0325827 0.0709481 0.3509
-0.000127596 3.30669e-05 0.00533897
-0.00673747 0.0292084 0.295738
0.00780814 -9.27161e-05 0.235737
0 0 0
0 0 0
-0.0608301 -0.0281248 0.132445
-0.00353988 -0.0151338 0.107117
0 0 0
-0.0342324 0.0238891 0.0670514
0 0 0
0.000178202 0.00110392 0.00278584
0 0 0
0.127459 0.0125434 0.474556
0.0597401 0.0198424 0.463645
0.000127891 3.32398e-05 0.00533683
0.00133556 0.000639771 0.0913474
-0.032654 0.0712171 0.351458
0.00837539 0.0290385 0.308961
0 0 0
-0.0078422 -9.05718e-05 0.235209
0 0 0
0.0607081 -0.0280919 0.131786
0.0345462 0.024212 0.0679201
0.00355053 -0.0149944 0.106928
0 0 0
0 0 0
-0.127867 0.012838 0.474329
-0.000234029 0.00144956 0.00362315
0 0 0
-0.740658 -0.207477 2.13913
-2.01398 -0.420613 0.458318
-6.07356e-08 7.00136e-06 0.0002772
0 0 0
-0.00011159 0.000316516 0.00716559
-2.4448e-06 3.50327e-08 2.42963e-05
0 0 0
-0.0341656 0.010122 -0.00407781
-0.000555444 0.00646822 0.139895
-5.94172e-05 -0.000366414 -0.000121814
0 0 0
0 0 0
0 0 0
5.58755e-06 0.0058235 0.0309831
-0.0109208 -0.0128609 0.136009
-0.00783505 0.00506996 0.0422688
-0.000255178 0.00586874 -0.000937854
-0.000358564 -0.000899654 -0.0130926
0 0 0
0.000480951 -0.000717484 0.00277636
1.91087 -0.40293 0.423414
0.70544 -0.197842 2.06437
2.22889e-06 3.14798e-08 2.2115e-05
0.000119736 0.000333721 0.00766738
0.0353893 0.0111754 -0.00460883
0 0 0
0 0 0
0 0 0
0.00773464 0.00502091 0.0418517
0.00997192 -0.0115555 0.119898
-0.000537826 -0.000693783 0.00273561
0 0 0
0.0368889 0.0723809 0.740587
8.88963e-05 1.30394e-05 0.00546216
0.0326231 -0.0455463 0.209906
0.000448096 0.0069505 0.0468427
-1.03097e-08 7.34591e-06 0.000808676
-4.78224e-11 1.64764e-09 6.395e-07
-0.00152538 0.0275054 0.09262
-0.0237476 0.00388022 0.210898
3.57372e-09 -6.14086e-08 -2.40121e-05
0 0 0
0.0011961 0.012693 0.051764
-0.0934905 0.114163 1.20323
7.57666e-05 0.00600877 0.0612444
-8.58843e-06 0.0275662 0.0754131
-1.58576e-06 0.000407163 0.0370553
-2.72166e-05 -0.000174701 0.000735391
-9.00148e-05 1.30165e-05 0.0054691
-0.0374901 0.0747256 0.766422
-0.0303369 -0.0423908 0.196894
-0.000441823 0.00693093 0.0467991
0.00152687 0.0276852 0.0925272
0.0237611 0.00342949 0.211151
0.0898988 0.112752 1.17789
-0.00115803 0.012643 0.0516312
-0.0494855 -0.0359763 0.388357
-0.69798 0.431829 1.55812
0.0585629 0.0110258 0.24452