# vtk DataFile Version 2.0
tri_press
ASCII
DATASET UNSTRUCTURED_GRID
POINTS 3682 float
-0.746328 0.095 -1.745
-0.724482 0.175 1.815
-0.625 0.643081 -1.745
-0.645 0.854012 1.855
0.746332 0.095 -1.745
0.724487 0.175 1.815
0.625 0.643081 -1.745
0.645 0.854012 1.855
-0.762025 0.098688 -0.558333
-0.781184 0.0989137 0.628333
-0.715885 0.79761 -0.545
-0.697465 0.842833 0.655
0.762033 0.0986839 -0.558333
0.781198 0.0989044 0.628333
0.715892 0.797616 -0.545
0.697471 0.842839 0.655
-1.48228 -0.290755 -2.70725
-1.47793 -0.240005 -1.75257
-1.4908 -0.235694 -0.566252
-1.49696 -0.241673 0.617386
-1.46558 -0.192619 1.80348
-1.45457 -0.151168 2.75705
-1.45635 -0.115227 3.71266
-1.47252 0.0233209 -2.70245
-1.46523 0.0904951 -1.74632
-1.4874 0.112623 -0.557408
-1.48915 0.110012 0.630308
-1.44005 0.158645 1.81897
-1.43846 0.199255 2.77272
-1.44803 0.234727 3.7279
-1.42082 0.626266 -2.69661
-1.38187 0.691876 -1.74103
-1.43767 0.802121 -0.543025
-1.42422 0.837039 0.655926
-1.37681 0.856643 1.85368
-1.40332 0.895138 2.80688
-1.4306 0.933456 3.75991
-1.39675 1.62406 -2.67782
-1.38311 1.69966 -1.72024
-1.40081 1.81256 -0.517913
-1.41311 1.89043 0.687289
-1.4099 1.93061 1.88948
-1.41498 1.95887 2.84676
-1.42659 1.99082 3.80125
-0.761786 -0.288848 -2.70639
-0.743979 -0.235711 -1.75132
-0.750965 -0.242103 -0.56642
-0.766124 -0.249873 0.615701
-0.745143 -0.185823 1.80054
-0.739815 -0.14643 2.75505
-0.742772 -0.113333 3.71151
-0.765399 0.0196636 -2.70219
-0.73316 0.204788 2.77108
-0.739725 0.236711 3.72703
-0.72368 0.605036 -2.69826
-0.706981 0.895547 2.80714
-0.729257 0.933862 3.75997
-0.688506 1.61035 -2.67945
-0.670213 1.68716 -1.72204
-0.686994 1.80994 -0.518996
-0.705442 1.89297 0.687419
-0.708094 1.93176 1.89041
-0.713464 1.95895 2.84769
-0.722521 1.99071 3.80192
0.696716 -0.288848 -2.70639
0.746447 -0.235711 -1.75132
0.763771 -0.242106 -0.566421
0.764054 -0.249879 0.615701
0.724144 -0.185825 1.80054
0.701087 -0.146432 2.75505
0.690401 -0.113334 3.71151
0.671894 0.0196639 -2.70219
0.687302 0.204787 2.77107
0.681823 0.23671 3.72703
0.639222 0.605036 -2.69826
0.661255 0.895547 2.80714
0.671605 0.933862 3.75997
0.710107 1.61035 -2.67945
0.728824 1.68716 -1.72204
0.729436 1.80995 -0.518996
0.707277 1.89297 0.687419
0.688774 1.93176 1.89041
0.684049 1.95895 2.84769
0.683948 1.99071 3.80192
1.42847 -0.290755 -2.70725
1.47529 -0.240006 -1.75257
1.50199 -0.235698 -0.566252
1.50304 -0.241682 0.617386
1.45995 -0.192625 1.80348
1.42836 -0.151172 2.75705
1.41326 -0.11523 3.71266
1.40464 0.0233218 -2.70245
1.45907 0.090496 -1.74632
1.49171 0.11262 -0.557408
1.49703 0.110005 0.630308
1.4459 0.15864 1.81897
1.41169 0.199252 2.77272
1.40176 0.234725 3.7279
1.36291 0.626268 -2.69661
1.38133 0.691879 -1.74103
1.44382 0.802127 -0.543025
1.43153 0.837042 0.655925
1.38258 0.856641 1.85368
1.37665 0.895136 2.80688
1.38459 0.933455 3.75991
1.41533 1.62407 -2.67782
1.43203 1.69967 -1.72024
1.4399 1.81257 -0.517914
1.42143 1.89044 0.687289
1.39911 1.93061 1.88948
1.39261 1.95887 2.84676
1.39373 1.99082 3.80125
-0.701801 0.369041 -1.76114
1.99676e-06 0.0912956 -1.7487
-0.757411 0.0936096 -1.15167
-0.719828 0.514506 1.87009
2.5034e-06 0.168692 1.82131
-0.772247 0.117542 1.22167
0 0.706471 -1.80839
-0.705348 0.755251 -1.145
0 0.902555 1.90354
-0.688322 0.865512 1.255
0.701863 0.369041 -1.7612
0.75856 0.0924646 -1.15167
0.719761 0.514506 1.87002
0.772246 0.117548 1.22167
0.70535 0.755253 -1.145
0.688324 0.865514 1.255
-0.771548 0.0988573 0.035
-0.803633 0.448149 -0.551667
4.2519e-06 0.097861 -0.558333
-0.812672 0.470873 0.641667
6.99964e-06 0.0980416 0.628333
-0.7004 0.813947 0.055
3.18209e-06 0.970283 -0.545
3.03984e-06 1.16359 0.655
0.771559 0.0988506 0.035
0.803632 0.44815 -0.551667
0.81267 0.470872 0.641667
0.700396 0.813943 0.055
-0.888309 0.408595 -1.14833
0.88831 0.408595 -1.14833
3.12433e-06 0.0905951 -1.15167
1.59104e-06 0.829081 -1.145
9.98378e-07 0.369041 -1.94008
-0.804097 0.459511 0.045
0.8041 0.459511 0.045
5.62577e-06 0.0979851 0.035
3.11096e-06 1.16606 0.055
-0.896219 0.49269 1.23833
0.896203 0.492689 1.23833
4.75152e-06 0.110444 1.22167
1.51992e-06 0.991695 1.255
1.2517e-06 0.514506 1.96548
-0.711398 0.23202 -1.7404
-0.373163 0.091314 -1.74869
-0.752691 0.0934836 -1.44833
-0.723323 0.344753 1.84371
-0.36224 0.169127 1.82087
-0.774368 0.120268 1.51833
-0.679909 0.506061 -1.76958
-0.3125 0.695895 -1.79781
-0.679387 0.713379 -1.445
-0.69289 0.684259 1.87302
-0.3225 0.896216 1.8972
-0.677223 0.870324 1.555
0.373167 0.0913084 -1.74869
0.711404 0.23202 -1.74041
0.752695 0.0934834 -1.44833
0.362245 0.169127 1.82087
0.723355 0.344753 1.84374
0.774392 0.120249 1.51833
0.3125 0.695903 -1.79782
0.679913 0.506061 -1.76958
0.679385 0.713376 -1.445
0.3225 0.896099 1.89709
0.692857 0.684259 1.87298
0.677218 0.870319 1.555
-0.763195 0.0926714 -0.855
-0.766783 0.0987761 -0.261667
-0.845839 0.241913 -0.555
-0.381369 0.0975573 -0.558333
-0.776591 0.108352 0.925
-0.776316 0.0989354 0.331667
-0.862834 0.25194 0.635
-0.390896 0.0978629 0.628333
-0.714953 0.780767 -0.845
-0.797334 0.641667 -0.548333
-0.703459 0.801095 -0.245
-0.388739 0.945542 -0.545
-0.693445 0.854724 0.955
-0.799626 0.679132 0.648333
-0.699735 0.829193 0.355
-0.419867 1.14548 0.655
0.762771 0.0930993 -0.855
0.381376 0.0975571 -0.558333
0.76679 0.0987736 -0.261667
0.84584 0.241913 -0.555
0.776595 0.108353 0.925
0.390907 0.0978635 0.628333
0.776321 0.0989344 0.331667
0.862831 0.251939 0.635
0.714951 0.780765 -0.845
0.388743 0.945541 -0.545
0.797328 0.641666 -0.548333
0.703459 0.801094 -0.245
0.693439 0.854718 0.955
0.419872 1.14548 0.655
0.799686 0.679163 0.648333
0.699728 0.829186 0.355
-0.887394 0.388818 -1.45473
-0.3509 0.369041 -1.96741
2.56054e-06 0.0905416 -1.45019
1.49757e-06 0.230168 -1.91907
-0.889187 0.251102 -1.15
-0.378704 0.0906116 -1.15167
-0.815456 0.503598 1.55421
-0.359913 0.514506 2.00934
3.62746e-06 0.113916 1.52149
1.87755e-06 0.341599 1.9739
-0.889948 0.305116 1.23
-0.386121 0.114427 1.22167
7.95522e-07 0.782662 -1.4767
4.99189e-07 0.537756 -1.9278
-0.88602 0.581923 -1.14667
-0.352673 0.818067 -1.145
7.5996e-07 0.922881 1.57927
6.25849e-07 0.70853 1.96975
-0.820524 0.679101 1.24667
-0.34416 0.974499 1.255
0.887394 0.388818 -1.45477
0.350932 0.369041 -1.96695
0.889196 0.25053 -1.15
0.379282 0.0906115 -1.15167
0.815365 0.503597 1.55418
0.359881 0.514506 2.00935
0.889948 0.305119 1.23
0.386125 0.114427 1.22167
0.88602 0.581924 -1.14667
0.352676 0.818063 -1.145
0.820304 0.679101 1.24667
0.344163 0.9745 1.255
-0.849785 0.248203 0.04
-0.386107 0.0977502 0.035
-0.878024 0.428372 -0.85
-0.803634 0.45383 -0.253333
3.68812e-06 0.0906481 -0.855
4.93884e-06 0.0979263 -0.261667
-0.804119 0.465192 0.343333
-0.895248 0.481781 0.94
6.31271e-06 0.098036 0.331667
5.87558e-06 0.101469 0.925
-0.798026 0.659618 0.05
-0.428416 1.14644 0.055
2.38657e-06 0.862613 -0.845
3.14653e-06 1.10537 -0.245
3.0754e-06 1.17379 0.355
2.27988e-06 1.08806 0.955
0.850391 0.2479 0.04
0.386116 0.0977497 0.035
0.877203 0.428373 -0.85
0.80363 0.45383 -0.253333
0.804116 0.465191 0.343333
0.895248 0.48178 0.94
0.798032 0.659619 0.05
0.428409 1.14642 0.055
-0.888842 0.241561 -1.45153
-0.88559 0.26226 -0.8525
-0.801638 0.602401 -0.8475
-0.856267 0.543992 -1.44987
0.888844 0.241275 -1.45155
0.856104 0.543992 -1.44988
0.801598 0.602404 -0.8475
0.885653 0.261973 -0.8525
-0.375933 0.0905598 -1.44926
0.376224 0.0905597 -1.44926
0.38015 0.0906629 -0.855
-0.379857 0.0906629 -0.855
-0.332587 0.771459 -1.46085
-0.355307 0.856449 -0.845
0.355312 0.856447 -0.845
0.332588 0.771464 -1.46085
-0.362031 0.231094 -1.93346
-0.3317 0.521908 -1.9579
0.331716 0.521908 -1.9575
0.36205 0.231094 -1.93438
-0.847102 0.245413 -0.2575
-0.853885 0.251284 0.3375
-0.798395 0.669159 0.349167
-0.797719 0.650662 -0.249167
0.847105 0.245412 -0.2575
0.797701 0.650653 -0.249167
0.798378 0.66915 0.349167
0.853888 0.251281 0.3375
-0.383736 0.0976574 -0.261667
0.383745 0.0976571 -0.261667
0.388498 0.0978336 0.331667
-0.388487 0.0978339 0.331667
-0.423805 1.07645 -0.245
-0.429095 1.15587 0.355
0.429095 1.15586 0.355
0.423809 1.07645 -0.245
-0.892438 0.295005 0.9325
-0.857274 0.324935 1.53627
-0.800968 0.68168 1.55461
-0.81899 0.667977 0.9475
0.892438 0.295003 0.9325
0.819026 0.667978 0.9475
0.800944 0.68168 1.55459
0.857308 0.324936 1.53625
-0.388355 0.101467 0.925
0.388364 0.101467 0.925
0.374185 0.124968 1.51991
-0.37418 0.12496 1.51991
-0.346445 1.07276 0.955
-0.33333 0.917679 1.56714
0.333331 0.917682 1.56714
0.34645 1.07277 0.955
-0.361076 0.343176 1.98788
0.361063 0.343176 1.98788
0.341191 0.696395 1.9573
-0.341207 0.696395 1.95728
-0.723403 0.16351 -1.73724
-0.559745 0.0913399 -1.74866
-0.750226 0.0935256 -1.59667
-0.725492 0.259876 1.83095
-0.543361 0.169127 1.82087
-0.748834 0.148225 1.66667
-0.648002 0.574571 -1.75284
-0.46875 0.670033 -1.77195
-0.657959 0.683995 -1.595
-0.674552 0.769136 1.86962
-0.48375 0.88612 1.88711
-0.667868 0.868925 1.705
0.559749 0.0913344 -1.74867
0.723392 0.16351 -1.73723
0.75023 0.0935256 -1.59667
0.543366 0.169127 1.82087
0.725491 0.259876 1.83094
0.747938 0.149126 1.66667
0.46875 0.669995 -1.77191
0.647898 0.574571 -1.75273
0.657963 0.683999 -1.595
0.48375 0.886055 1.88704
0.674417 0.769136 1.86948
0.667867 0.868924 1.705
-0.759639 0.0986506 -0.706667
-0.764408 0.0987273 -0.41
-0.857053 0.14374 -0.556667
-0.571697 0.0981229 -0.558333
-0.788797 0.0937238 0.776667
-0.778718 0.0989566 0.48
-0.864692 0.154086 0.631667
-0.586017 0.0984344 0.628333
-0.717831 0.791601 -0.695
-0.775513 0.72909 -0.546667
-0.70835 0.798031 -0.395
-0.569838 0.906628 -0.545
-0.695477 0.8488 0.805
-0.775654 0.774537 0.651667
-0.698082 0.835495 0.505
-0.565943 1.00871 0.655
0.759644 0.09865 -0.706667
0.571704 0.0981228 -0.558333
0.764418 0.0987224 -0.41
0.857042 0.143746 -0.556667
0.788806 0.0937194 0.776667
0.586027 0.0984336 0.628333
0.778726 0.0989525 0.48
0.864718 0.15407 0.631667
0.717834 0.791603 -0.695
0.569837 0.906618 -0.545
0.775514 0.729094 -0.546667
0.708376 0.798057 -0.395
0.695473 0.848797 0.805
0.565952 1.00872 0.655
[...]
POINT_DATA 3682
SCALARS point_scalars float 1
LOOKUP_TABLE default
-56.4148
-39.4815
-37.5167
-38.4136
-56.4027
-39.1865
-37.5916
-38.1032
-36.8362
-32.4017
-50.8597
-48.32
-36.8139
-32.3956
-50.8424
-48.2279
-40.013
-121.291
-39.9982
-31.846
-53.743
-37.9986
-31.9804
-40.013
-101.954
-36.8939
-29.1408
-57.6389
-32.3527
-31.0232
71.2273
-79.2384
-43.5713
-37.2327
-40.2234
-36.4993
-31.5932
-44.4907
-58.3148
-72.5997
-57.996
-38.6711
-37.7608
-37.3144
-30.8167
-117.31
-36.9907
-32.8094
-39.4462
-32.2049
-31.6488
11.9176
-31.2117
-30.1143
129.357
-30.9214
-30.4636
-17.6496
-48.885
-56.2944
-63.6268
-36.3194
-33.3151
-33.3349
-29.4913
-117.553
-37.183
-32.8649
-38.8729
-31.2972
-31.0289
-29.4913
-31.001
-29.7024
151.169
-30.5209
-29.5912
-17.4136
-50.5422
-56.6598
-63.5551
-36.1083
-33.0696
-33.0696
-40.0278
-120.974
-39.3531
-31.8075
-53.4353
-37.8304
-31.8359
-40.0278
-103.95
-36.8614
-29.0878
-57.7473
-32.0459
-30.769
71.0197
-73.9245
-43.5421
-37.1256
-39.8747
-36.1722
-31.3765
-44.6543
-60.0443
-72.7757
-57.9267
-38.4356
-37.4425
-35.8487
6.47174
-115.138
-57.588
-33.9858
-32.6684
-39.3725
-62.2677
-55.6155
-31.0261
-45.8649
6.43685
-57.858
-33.663
-39.1486
-55.6048
-45.7359
-31.2507
-39.2744
-38.1519
-29.0319
-34.4431
-49.1984
5.46543
-66.7873
-31.2397
-39.2536
-29.001
-49.1335
-74.4163
-74.4157
-54.8069
-24.0033
201.084
-32.9984
-33.021
-33.4842
-87.0922
-48.1261
-47.7822
-37.5355
-42.3732
-22.5557
-16.2717
-129.227
-90.053
-34.9596
-35.06
-47.2338
-1.77666
-50.1105
-55.096
-34.8959
-31.9046
-39.7822
-129.233
-16.2632
-89.8593
-34.7306
-34.6067
-47.0287
-50.1637
-1.91262
-54.9383
-31.7241
-34.5881
-39.6404
-45.9665
-32.5961
-39.0248
-37.8617
-38.2246
-30.9253
-27.8407
-34.2411
-42.4398
-42.7886
-51.7701
-1.3374
-48.9222
-36.6187
-47.3597
-62.9164
-45.8864
-37.8571
-32.5834
-39.0065
-37.8812
-34.2248
-30.9106
-27.8042
-42.3706
-1.21756
-42.7596
-51.772
-48.7707
-62.8817
-36.6291
-47.6819
-122.64
170.271
-72.3591
202.099
-70.9703
-55.4192
-46.7382
-28.9496
-39.642
-23.1438
-45.5216
-38.4154
-39.5477
154.907
-78.3179
-29.398
-36.4996
-27.6092
-49.8242
-42.9394
-122.752
170.165
-71.0042
-55.431
-46.4081
-28.4767
-45.1505
-38.3175
-78.1732
-29.4115
-49.6375
-42.9078
-31.2536
-33.049
-55.5208
-34.693
-45.5502
-34.7683
-31.4093
-41.9651
-33.5459
-39.3179
-38.2135
-79.5092
-5.71544
-44.7803
-75.238
-52.505
-31.2524
-33.0436
-55.5076
-34.698
-31.4227
-41.8324
-38.2185
-79.3523
-154.365
-54.5057
-52.8897
-54.4395
-154.521
-54.6513
-52.856
-54.4789
-75.4764
-75.4589
-45.5418
-45.5363
-41.6944
-13.5326
-13.7848
-41.7001
123.366
133.388
133.354
123.056
-33.294
-28.0567
-36.7697
-39.882
-33.2925
-39.8611
-36.83
-28.0567
-34.4053
-34.4005
-33.141
-33.1485
-49.6834
-66.8294
-66.8236
-49.6555
-42.8857
-52.9663
-43.9198
-43.2365
-42.7888
-43.1295
-43.6268
-52.6651
-39.1011
-39.0085
-40.0811
-40.3038
-52.7033
-36.5608
-36.5085
-52.6799
-28.8209
-28.3266
-29.6769
-29.9576
-23.1573
-153.757
-101.944
-36.6212
-36.7589
-42.814
-11.4435
-54.1432
-54.6546
-35.6228
-34.0555
-38.2607
-153.63
-23.4591
-101.826
-36.4029
-36.2585
-42.4696
-54.1181
-11.4181
-54.6947
-33.8092
-35.3141
-38.0674
-39.0017
-33.9416
-37.136
-37.2989
-41.2176
-31.3507
-28.721
-33.885
-41.6667
-46.8293
-53.3858
-26.5637
-48.4243
-41.8693
-48.5363
-53.3773
-38.9775
-37.2906
-33.9277
-37.1055
-41.3057
-33.8803
-31.3349
-28.6801
-41.5609
-26.7146
-46.8362
-53.457
-48.4051
-53.286
-41.8493
-48.5542
-6.22119
13.2936
-34.1257
134.778
-116.414
-116.395
-89.4946
50.6001
-69.4518
-50.6569
-67.4621
-55.7371
-34.2731
-34.1955
-39.4695
-30.4569
-33.4098
-33.1999
-36.6338
-25.693
-42.143
-37.6752
-42.4676
-38.4435
-57.479
-57.4534
-46.0291
93.7487
-56.052
-49.0053
-72.6369
-36.9991
-31.1641
-31.0843
-33.3628
-29.1937
-41.941
-48.6454
-46.5341
-44.7181
-6.61437
14.4281
-33.4756
134.729
-69.4044
-50.8312
-67.5169
-55.7865
-33.9361
-33.8764
-39.1008
-30.1877
-41.923
-37.5342
-42.1939
-38.2392
-56.0165
-48.9699
-72.3096
-36.9869
-41.8853
-48.546
-46.3719
-44.6729
-31.7463
-30.965
-30.4952
-32.4103
-38.9261
-40.3868
-44.5883
-36.2727
-38.0803
-38.0779
-41.7719
-36.2064
-28.0108
-31.9456
-30.616
-25.6946
-34.3973
-34.3879
-34.0567
-38.092
-50.3973
-48.3987
-42.795
-61.0784
4.41828
4.47005
6.05434
-11.3835
-66.274
-66.2611
-71.0523
-61.3229
-31.7331
-30.9521
-30.4954
-32.4027
-38.9081
-40.3537
-44.5574
-36.2645
-27.9924
-31.9294
-30.6181
-25.659
-50.369
-48.3218
-42.7596
-60.9273
-98.2608
-73.3469
-74.9155
-62.9906
-98.179
-73.3641
-74.9141
-63.0117
-62.4055
-54.9126
-54.9072
-49.1658
-32.6775
-25.2182
-25.2488
-15.2359
195.678
197.769
203.057
195.067
-31.6885
-33.8135
-32.0986
-35.1042
-31.7019
-33.8285
-32.1226
-35.1379
-33.3861
-33.9622
-33.3686
-33.3833
-85.2408
-89.3088
-81.7223
-85.2263
-52.7285
-46.867
-50.6795
-46.3771
-52.4989
-46.2542
-50.4138
-46.0186
-38.244
-37.855
-37.848
-36.8785
-38.8879
-42.5605
-42.5538
-46.7008
-25.0502
-23.2083
-26.7829
-24.5288
-20.3273
129.697
-97.4543
32.1058
-140.534
-78.6329
-40.1595
-30.7081
-38.0876
-29.9578
-56.4863
-42.9571
-44.8399
85.1772
-45.8812
80.6777
-57.2565
-46.8482
-40.2804
-30.9667
-33.9122
-30.3917
-42.0909
-37.8154
-97.425
32.4687
-20.2245
129.667
-140.535
-78.5849
-37.8521
-29.5272
-39.7969
-30.4161
-56.0064
-42.7549
-45.8788
80.5681
-45.0534
85.2353
-57.105
-46.8143
-33.8157
-30.1609
-39.938
-30.7263
-41.8666
-37.7301
-56.0841
-45.3816
-32.4324
-33.7428
-43.2266
-34.9239
-41.5926
-35.8
-42.6211
-37.9269
-29.3221
-32.4612
-29.0836
-29.7152
-33.7238
-38.1266
-52.7296
-23.447
-46.105
-40.9879
-44.7635
-71.7291
-2.26313
-17.9525
-44.8493
-55.398
-36.3584
-38.4351
-41.6487
-55.0685
-64.6287
-62.0569
-56.0078
-45.3872
-41.5914
-35.7956
-32.4196
-33.7356
-43.199
-34.9136
-42.4892
-37.8218
-33.7143
-38.1
-29.304
-32.4518
-29.059
-29.6756
-52.7244
-23.2431
-2.06463
-17.8263
-46.0855
-40.9677
-44.7452
-71.8103
-44.7678
-55.2204
-64.5919
-62.0105
-36.3907
-38.4013
-41.7098
-55.0668
-152.556
-101.074
154.555
172.835
-72.8682
-72.8576
195.734
195.761
-90.8104
-60.4576
-63.2031
-49.7811
-48.7801
-45.0563
-28.6489
-29.9576
-39.6174
-39.7606
-24.9935
-24.4813
-43.3742
-49.8175
-37.4396
-39.4817
-39.5786
-39.5926
152.62
152.403
-66.2563
-105.539
-36.1052
-20.9782
-36.5214
-36.4955
-28.2014
-28.4476
-48.056
-49.6119
-47.1478
-39.4209
-151.835
-111.16
172.827
154.509
-90.7893
-60.4677
-63.2023
-49.7934
-44.7015
-48.4468
-28.1265
-29.6526
-43.0654
-49.5652
-37.3458
-39.3609
-105.367
-66.3084
-21.004
-36.1108
-49.5281
-47.8312
-39.3835
-47.1201
-32.214
-30.2215
-33.5248
-32.944
-55.2126
-52.1189
-33.6166
-36.7038
-45.5527
-45.5514
-34.6758
-34.6733
-28.6656
-33.7293
-43.6367
-37.2827
-33.4547
-33.4435
-39.1019
-39.029
-37.4021
-39.0862
-81.7583
-71.3793
-7.61193
-7.75709
-42.4192
-42.4144
-73.726
-73.7273
-52.5474
-52.5341
-32.2165
-30.2277
-33.52
-32.9369
-52.1452
-55.2736
-33.6177
-36.7065
-33.7694
-28.6663
-43.8698
-37.1361
-39.0731
-37.4429
-71.5758
-81.7898
-45.8711
-86.1285
-95.0321
-19.2328
-42.1248
-44.3806
-62.0214
-58.4217
-47.8198
-62.2834
-63.6731
-44.8935
-44.8417
-46.5308
-100.885
-76.7505
-45.7708
-19.3952
-95.0553
-86.0742
-44.9403
-76.6843
-100.786
-45.9032
-47.7807
-44.8631
-63.6825
-62.3688
-42.0902
-58.4374
-62.0397
-44.3401
-104.762
-90.5759
-62.6634
-64.3945
-104.702
-64.3966
-62.1487
-90.5566
-41.232
-41.7398
-49.8395
-49.8303
-41.24
-49.788
-49.8345
-41.7407
-50.218
-42.6407
-33.1784
-45.8705
-18.4238
4.51006
-16.5919
-30.362
-18.4467
-30.3195
-16.6106
4.58501
-50.1652
-45.9
-33.1836
-42.6151
36.4748
137.074
190.899
67.8067
59.1833
127.307
190.851
131.074
59.6939
130.99
190.767
127.156
36.6127
67.6901
190.887
137.038
-34.0711
-31.3076
-32.565
-35.3423
-29.0596
-30.0766
-30.516
-29.9314
-41.127
-42.3038
-34.3465
-32.8969
-46.004
-37.9976
-35.8738
-43.7272
-34.0518
-35.3339
-32.5725
-31.2962
-45.9942
-43.6996
-35.8901
-37.9832
-41.146
-32.9029
-34.3937
-42.3034
-29.0327
-29.9203
-30.5273
-30.067
-35.1757
-36.1232
-33.8572
-32.893
-35.2216
-32.8859
-33.8546
-36.1206
-33.0825
-33.9785
-33.265
-32.2515
-33.0915
-32.2608
-33.269
-33.9842
-58.1345
-66.799
-88.7907
-11.7571
-54.4936
-69.6634
-80.0597
-56.9436
-54.3356
-57.1073
-80.0769
-69.6551
-57.8589
-11.7171
-88.798
-66.7398
-32.8463
-40.5765
-44.8574
-25.0047
-40.7713
-39.745
-50.5898
-47.6231
-40.1983
-44.3316
-53.9255
-39.4014
-43.2269
-32.1718
-47.7943
-47.1307
-32.6174
-24.9838
-44.5687
-40.3589
-43.1774
-47.0129
-47.5458
-32.1357
-39.9069
-39.0667
-53.6909
-44.1505
-40.4116
-47.3528
-50.3961
-39.3731
-37.9103
-38.0515
-37.1619
-37.6804
-37.9407
-37.5067
-37.1251
-38.0441
-39.4152
-36.9879
-38.5042
-40.4094
-39.7304
-40.5661
-38.5858
-37.1309
-53.509
-49.4505
-46.7836
-61.4362
-35.5778
-33.4642
-39.0013
-40.3282
-35.4371
-40.2863
-38.9835
-33.419
-53.4718
-61.4185
-46.7594
-49.4318
-31.8776
-27.5327
-24.3151
-30.5028
-31.5462
-30.2248
-23.7751
-27.1661
-31.184
-29.3336
-27.9196
-30.8178
-31.4438
-31.0417
-28.2027
-29.4878
-51.3654
-134.712
-129.312
-37.8791
-37.7208
-39.4728
-17.5028
-49.9582
-58.048
-37.3508
-35.99
-39.1491
-134.733
-51.1711
-129.164
-37.524
-37.5217
-39.0502
-49.7654
-17.5593
-58.0449
-35.6988
-37.0295
-38.8888
-38.241
-35.0389
-36.988
-36.8938
-35.6425
-31.9938
-28.8738
-33.5839
-45.8795
-48.9018
-55.9548
-45.689
-48.1992
-45.8336
-48.0006
-50.0509
-38.2193
-36.8822
-35.0235
-36.9527
-35.661
-33.5882
-31.9784
-28.8391
-45.7804
-45.6896
-48.9273
-55.8987
-48.1576
-49.9601
-45.7892
-47.9458
-0.206369
11.2564
-44.4551
74.2931
-115.073
-115.064
-101.592
-84.0699
-62.7306
-53.4466
-64.2834
-56.0455
-34.1481
-33.9786
-37.3708
-31.4732
-32.8746
-32.7625
-34.7018
-29.0909
-40.3145
-39.3402
-40.8616
-38.2444
-61.108
-61.0741
-51.1279
-51.2767
-57.3376
-52.8489
-68.9689
-43.6337
-31.0876
-31.0513
-31.9653
-29.9678
-43.5499
-46.9164
-45.7705
-45.8487
1.32643
10.7568
-43.2552
80.6048
-62.9398
-53.7465
-64.4524
-56.1634
-33.809
-33.5671
-37.0055
-31.1922
-40.1301
-39.1982
-40.6382
-38.0612
-57.2998
-52.8336
-68.8796
-43.6053
-43.4617
-46.8191
-45.6462
-45.7513
-31.307
-30.9748
-30.4862
-31.9492
-38.9546
-39.7066
-41.541
-37.563
-38.17
-38.1688
-39.5209
-37.0386
-27.9201
-30.4233
-29.9406
-27.215
-34.614
-34.6092
-34.3658
-36.031
-49.6433
-48.8638
-46.0599
-53.9064
5.45326
5.47108
8.22012
-0.512632
-66.6987
-66.6929
-69.3002
-64.2384
-31.2956
-30.9634
-30.4747
-31.9401
-38.9362
-39.681
-41.5178
-37.5479
-27.8938
-30.3956
-29.9266
-27.1675
-49.5958
-48.7806
-46.0162
-53.8094
-83.6367
-73.888
-74.9271
-67.919
-83.6075
-73.8949
-74.9195
-67.9335
-57.8186
-54.8787
-54.8784
-52.094
-28.8059
-24.3272
-24.3386
-19.6666
199.278
198.84
199.703
199.254
-32.0773
-33.4167
-32.5612
-34.0169
-32.0932
-33.4358
-32.5857
-34.0453
-33.4599
-33.6222
-33.3586
-33.4585
-86.6452
-88.7615
-85.3488
-86.6444
-49.6214
-47.6461
-48.9774
-47.0417
-49.336
-47.1387
-48.672
-46.6714
-37.9035
-37.6365
-37.6248
-37.2129
-40.5864
-42.4795
-42.4735
-44.5564
-22.7585
-22.9976
-24.5647
-22.5586
-19.9103
-12.2465
-46.8247
58.8192
-139.736
-121.829
-113.585
-42.3453
-103.507
-78.8871
-119.339
-81.3955
-35.4701
-34.6295
-37.7851
-31.8153
-35.9241
-34.1521
-36.4265
-31.9959
-46.5131
-43.7588
-56.6464
-44.0919
-11.7616
8.2162
-39.6811
44.8814
-53.4259
-51.7791
-49.153
-32.1901
-54.9889
-54.0774
-62.1237
-49.0684
-35.1159
-34.4041
-39.8849
-31.7707
-32.8158
-31.4372
-32.7484
-31.0264
-38.9896
-40.8056
-41.3087
-38.6491
-139.665
-121.805
-113.554
-41.2495
-19.8888
-11.9819
-46.7974
58.3812
-103.374
-78.5647
-119.012
-81.2971
-35.577
-33.87
-36.1527
-31.6178
-35.1059
-34.2761
-37.4142
-31.5213
-46.2823
-43.5384
-55.908
-43.8495
-53.5144
-51.816
-49.2173
-32.0126
-11.7201
6.85399
-39.7461
44.8271
-54.8873
-54.0355
-61.914
-49.0111
-32.6022
-31.3033
-32.6243
-30.8141
-34.8098
-34.1005
-39.531
-31.5114
-38.8258
-40.6932
-41.1091
-38.5428
-43.1409
-47.7954
-54.7672
-45.2892
-33.2043
-31.9625
-32.0894
-33.2892
-37.3195
-39.3742
-40.3904
-36.4833
-37.6829
-38.0411
-39.2719
-36.7852
-40.9104
-36.8966
-42.586
-37.9313
-31.1788
-30.9128
-29.7714
-31.9088
-28.4385
-27.5995
-28.5388
-28.5719
-34.1712
-34.4784
-34.1278
-35.9539
-41.4445
-45.448
-49.9479
-32.5112
-44.5129
-41.4025
-44.1195
-41.8035
-52.4998
-51.0662
-47.7776
-59.0547
-9.28281
2.73024
0.389572
-8.42393
-48.5301
-48.6365
-46.7031
-51.164
-39.0741
-34.1192
-36.3305
-36.9771
-48.0226
-47.8774
-44.9208
-48.4108
-58.6669
-65.2894
-64.1858
-63.0848
-43.0237
-47.9215
-54.6599
-45.2738
-37.6768
-38.038
-39.2687
-36.7807
-33.1918
-31.9509
-32.0725
-33.2801
-37.2985
-39.3552
-40.3674
-36.4685
-40.6685
-36.7872
-42.4409
-37.4974
-34.1572
-34.4645
-34.1153
-35.9316
-31.1628
-30.8998
-29.7516
-31.8974
-28.4005
-27.5752
-28.5082
-28.5304
-41.4392
-45.4218
-49.9007
-32.3831
-9.20603
2.76317
0.563802
-8.33227
-44.4915
-41.3713
-44.0683
-41.7612
-52.5429
-51.052
-47.7745
-59.0489
-48.4643
-48.5394
-46.6663
-50.9756
-58.604
-65.2693
-64.1541
-63.0614
-39.0762
-34.1165
-36.3536
-36.9761
-48.1206
-47.9375
-45.0433
-50.7533
-29.2438
-129.126
-140.018
-113.807
136.564
191.9
161.413
177.088
-79.9475
-66.6807
-72.512
-72.5082
169.591
198.626
200.718
200.688
-69.6404
-72.2607
-78.9562
-64.9803
-55.6569
-55.2004
-59.0024
-52.3141
-42.2624
-55.1128
-47.7039
-45.7172
-29.8885
-27.2998
-28.5965
-29.4769
-38.9312
-38.7501
-39.6089
-39.6747
-23.9825
-23.0669
-23.402
-23.1434
-44.3778
-46.1375
-44.2936
-47.2512
-38.5853
-38.022
-37.9706
-39.0358
-42.5363
-35.9403
-39.4264
-39.4411
165.946
175.149
153.83
153.85
-75.1996
-76.4257
-71.1238
-88.4183
-32.7212
-26.8412
-32.984
-25.1563
-34.8396
-37.7778
-36.5791
-36.5659
-28.5606
-27.2704
-27.7176
-27.8596
-48.2999
-53.0969
-48.55
-51.3
-43.6115
-42.7031
-44.8976
-41.0903
-29.8032
-128.887
-140.057
-108.494
136.466
191.81
177.052
161.307
-69.6874
-72.2832
-78.9707
-65.005
-55.6804
-55.2043
-59.0098
-52.3274
-41.9324
-54.8243
-45.3846
-47.3675
-29.5195
-26.7152
-28.0695
-29.0864
-44.0409
-45.6386
-43.921
-46.9333
-38.4902
-37.958
-37.8707
-38.9397
-74.5185
-76.3987
-88.3761
-71.4812
-32.7214
-26.8779
-25.1794
-32.9919
-48.124
-52.88
-51.0645
-48.3544
-43.5769
-42.6994
-41.0569
-44.8729
-30.6219
-31.9115
-31.7156
-30.9149
-32.7759
-33.2503
-33.2218
-32.9263
-47.8172
-59.3822
-56.1394
-52.2222
-35.35
-34.2032
-33.9487
-35.604
-44.1192
-47.2771
-45.5743
-45.5737
-35.3238
-34.2808
-34.783
-34.7817
-31.1535
-31.6813
-30.4055
-32.5353
-33.7444
-46.3234
-44.5384
-38.0054
-33.8011
-33.4434
-33.5416
-33.5436
-39.404
-37.463
-39.3306
-39.2959
-40.243
-36.4936
-37.7523
-38.62
-72.5067
-83.2895
-82.5494
-74.2926
0.249967
-10.2244
-5.97038
-5.98481
-26.8934
-73.2748
-43.6727
-43.6798
-72.9444
-78.2889
-74.8586
-74.861
-56.9529
-49.4205
-52.524
-52.5041
-30.6296
-31.9284
-31.7083
-30.9461
-32.7693
-33.2462
-33.2167
-32.9202
-47.7997
-59.454
-52.1513
-56.0514
-35.3485
-34.2133
-33.952
-35.609
-31.1545
-31.7019
-32.5609
-30.4111
-33.7521
-46.1131
-44.52
-37.8687
-40.2213
-36.519
-38.6293
-37.7742
-72.1526
-83.2628
-74.4405
-82.4386
-92.9952
-147.515
-155.593
-111.176
-55.4352
-49.0714
-57.0525
-54.5797
-53.2283
-49.1005
-57.6969
-52.7159
-35.7625
-45.9844
-82.0401
-116.152
-81.8726
-147.805
-155.659
-111.097
-35.9545
-45.9274
-77.5837
-115.752
-53.2105
-49.0802
-57.643
-52.7057
-55.3946
-49.0432
-57.0368
-54.5359
-85.0034
-76.8487
-74.0903
-68.8155
-84.9795
-76.8267
-74.0793
-68.8059
-45.5084
-44.0118
-47.4515
-45.5855
-45.5006
-44.0099
-47.4426
-45.5812
-44.1362
-44.2112
-40.2333
-38.9003
-18.9958
-7.74749
-17.0282
-10.0241
-18.3762
-8.10456
-17.0963
-10.2392
-44.1332
-44.2044
-40.2416
-38.9053
127.473
92.6127
141.563
179.123
100.098
128.191
155.292
150.53
128.11
100.292
149.503
155.272
92.2545
127.427
178.237
141.412
-32.7319
-33.965
-32.7174
-33.7428
-28.8525
-28.785
-29.6135
-27.4238
-36.5453
-38.7207
-35.1246
-37.0992
-40.3828
-41.9337
-38.0858
-39.4009
-32.7258
-33.9591
-32.719
-33.7437
-40.3662
-41.9066
-38.082
-39.3991
-36.5931
-38.7838
-35.1782
-37.1582
-28.8394
-28.7699
-29.6164
-27.4457
-34.152
-35.0382
-33.8731
-34.5982
-35.0334
-34.1461
-34.5946
-33.8683
-33.4226
-32.8702
-33.3434
-33.0251
-32.8787
-33.4307
-33.0324
-33.3495
-61.2842
-31.5148
-65.5384
-44.3543
-60.4464
-65.6502
-68.9497
-71.0097
-65.6204
-60.4588
-71.0104
-68.9611
-31.2554
-61.2957
-44.1665
-65.5621
-41.8702
-37.2625
-42.8215
-43.7561
-44.0258
-53.353
-50.2119
-54.598
-42.0799
-43.1095
-44.4927
-45.5959
-44.5238
-40.4497
-46.817
-39.2357
-41.7599
-37.2147
-42.6485
-43.8237
-44.4334
-40.4019
-46.4398
-39.1292
-41.7701
-42.8548
-44.1643
-45.3256
-43.6762
-53.1837
-49.8632
-54.3113
-38.3174
-39.0942
-37.8622
-39.3541
-38.2274
-39.0309
-37.7812
-39.2707
-39.542
-40.8013
-40.0008
-39.6298
-39.7531
-41.106
-40.1708
-39.8149
-54.0402
-57.3141
-49.8437
-52.5437
-35.1675
-36.9572
-36.4748
-37.9933
-35.0969
-36.8863
-36.4307
-37.9462
-53.9024
-57.2846
-49.8306
-52.5266
-29.9235
-29.0583
-28.7461
-27.3889
-28.5772
-29.5443
-26.7941
-28.2447
-29.9361
-30.2449
-28.9576
-29.5567
-30.4985
-30.1865
-29.8558
-29.2409
-69.4893
25.0419
-124.781
12.5286
-70.4629
-106.082
-38.506
-33.439
-37.949
-33.5184
-41.7626
-40.7803
-32.3169
41.22
-55.063
-3.08268
-52.0459
-53.6515
-41.7279
-32.6967
-34.6546
-32.5538
-39.5439
-36.7662
-124.712
12.6358
-69.3626
25.2486
-70.4145
-105.996
-37.6463
-33.1675
-38.1335
-33.1006
-41.3707
-40.5122
-54.8829
-1.79132
-32.3777
41.2348
-52.2255
-53.602
-34.4766
-32.2711
-41.3768
-32.4133
-39.2956
-36.601
-37.5953
-40.9792
-33.6192
-34.6737
-39.4394
-35.1393
-38.7867
-36.2099
-41.7849
-38.5926
-29.8319
-32.512
-28.8447
-29.7185
-33.6074
-35.7758
-45.5175
-32.03
-47.3103
-46.6064
-49.3077
-68.7371
-17.3373
-36.6063
-46.9425
-49.6038
-41.4046
-42.6333
-45.3294
-51.4585
-53.2734
-52.4986
-37.5608
-40.9613
-38.7791
-36.1356
-33.5978
-34.6649
-39.4013
-35.1171
-41.9632
-38.7989
-33.5992
-35.7861
-29.8082
-32.5016
-28.81
-29.6599
-45.4223
-32.1858
-17.6495
-36.3645
-47.3247
-46.5736
-49.3135
-68.7264
-46.8935
-49.6277
-53.1694
-52.4358
-41.389
-42.6002
-45.345
-51.3079
-43.1521
73.3341
-43.9903
74.2257
-27.0141
-43.0834
130.056
132.477
-103.425
-61.4612
-103.406
-61.4478
-89.9275
-89.9199
76.7318
76.6873
-82.3951
-65.5417
-55.2073
-49.7893
-74.9164
-62.2162
-59.6537
-52.408
-37.421
-31.4738
-38.0502
-31.698
-39.5255
-39.4298
-30.4679
-30.751
-35.261
-30.0811
-35.0923
-29.8126
-36.7154
-36.7902
-26.2261
-26.0153
-45.1773
-42.2991
-39.2639
-37.8863
-41.1614
-44.2617
-37.9922
-39.4645
-49.5381
-39.7431
-49.5292
-40.0217
-45.8595
-45.8655
108.195
108.279
-65.9597
-47.7793
-57.4432
-37.9351
-68.0922
-75.0248
-40.1313
-34.0575
-32.0883
-30.1242
-32.0265
-30.054
-33.4111
-33.3898
-29.2132
-29.2918
-43.439
-41.0573
-46.8146
-49.7127
-45.5957
-47.2335
-47.0686
-42.5961
-43.116
72.7432
-44.0902
76.0812
-26.656
-42.2013
132.405
130.067
-82.3384
-65.532
-55.3033
-49.8683
-74.9493
-62.2718
-59.6893
-52.4612
-37.0514
-31.2008
-37.6665
-31.4457
-39.0746
-39.1568
-30.1974
-30.5086
-44.9362
-42.105
-39.0738
-37.7368
-40.9051
-43.9883
-37.7194
-39.2875
-65.8808
-47.7507
-57.4525
-37.8888
-74.9032
-68.15
-34.0317
-40.1119
-43.3933
-41.052
-46.6619
-49.6538
-47.0902
-45.4253
-42.5615
-47.0312
-31.0974
-32.43
-30.0715
-31.7657
-30.8927
-30.3547
-32.5586
-32.2583
-41.5695
-36.7144
-42.2931
-39.0041
-44.4108
-44.7612
-35.6366
-37.0313
-39.4543
-36.9619
-39.4526
-36.9596
-41.8367
-41.8372
-36.1341
-36.1329
-29.4657
-25.779
-32.2782
-31.8156
-29.7955
-31.7019
-23.511
-29.3328
-34.305
-36.0002
-34.2977
-35.9891
-34.0488
-34.0516
-38.0007
-37.9976
-46.9693
-56.2691
-45.6955
-52.3178
-42.4818
-43.2103
-63.5414
-58.6958
7.06035
-1.7887
7.12392
-1.7592
5.67778
5.69772
-11.3609
-11.1712
-67.9621
-64.0566
-67.9513
-64.0417
-70.7017
-70.6987
-61.2664
-61.2585
-31.0814
-32.4211
-30.056
-31.7553
-30.8818
-30.3495
-32.5514
-32.2502
-41.546
-36.7012
-42.2549
-38.9783
-44.735
-44.3783
-35.629
-37.0206
-29.4416
-25.7429
-32.275
-31.7847
-31.7055
-29.781
-23.4716
-29.3091
-46.9478
-56.2179
-45.6619
-51.8291
-43.1877
-42.4527
-58.6929
-63.4217
-96.2237
-99.8151
-81.9205
-66.872
-68.4917
-84.5601
-62.4481
-63.5014
-96.1993
-99.703
-81.9287
-66.8958
-84.5126
-68.518
-63.5256
-62.4654
-61.9857
-61.9835
-57.9846
-52.0975
-57.9763
-52.1034
-49.5731
-49.5727
-32.7329
-32.735
-29.8125
-20.9298
-20.9418
-29.8293
-15.5491