# vtk DataFile Version 2.0
tri_press
ASCII
DATASET UNSTRUCTURED_GRID
POINTS 3682 float
-0.745 0.215 -2.20295
-0.715 0.295 2.26818
-0.735215 0.665 -2.125
-0.675 1.08344 2.285
0.745 0.215 -2.20295
0.715 0.295 2.26818
0.735215 0.665 -2.125
0.675 1.08344 2.285
-0.76529 0.211377 -0.712574
-0.75679 0.236544 0.777803
-0.787043 0.876379 -0.655
-0.74899 0.997879 0.815
0.764681 0.211985 -0.712574
0.758048 0.235286 0.777803
0.788955 0.878292 -0.655
0.748998 0.997887 0.815
-1.50996 -0.185307 -3.41449
-1.51048 -0.11099 -2.23035
-1.51812 -0.107809 -0.739446
-1.49797 -0.111574 0.755558
-1.46118 -0.0702139 2.24681
-1.45448 -0.0114302 3.43264
-1.4606 0.0560914 4.61534
-1.50925 0.103666 -3.38284
-1.51127 0.201342 -2.20093
-1.52522 0.231219 -0.713988
-1.49396 0.253614 0.774785
-1.44078 0.306942 2.26211
-1.44174 0.366097 3.44766
-1.45462 0.431127 4.63102
-1.50568 0.636194 -3.31382
-1.5087 0.72978 -2.13107
-1.53727 0.890101 -0.658018
-1.48919 0.998324 0.813586
-1.41793 1.08006 2.28702
-1.43031 1.13479 3.47341
-1.45181 1.19016 4.66006
-1.50283 1.57132 -3.22562
-1.50592 1.68531 -2.04591
-1.51532 1.87413 -0.57947
-1.50671 2.04903 0.882579
-1.48477 2.17316 2.34923
-1.47617 2.24355 3.52938
-1.47776 2.30178 4.71381
-0.754684 -0.17794 -3.41581
-0.748943 -0.0994025 -2.23227
-0.759584 -0.115891 -0.739189
-0.755672 -0.126103 0.758134
-0.733911 -0.0823632 2.25131
-0.729984 -0.0199594 3.43569
-0.734424 0.0503199 4.61711
-0.754926 0.102998 -3.38325
-0.722939 0.359824 3.45018
-0.731639 0.426861 4.63236
-0.750927 0.608933 -3.3113
-0.713539 1.13528 3.47301
-0.73106 1.18984 4.65998
-0.744925 1.55071 -3.22312
-0.745198 1.66488 -2.04317
-0.758551 1.86628 -0.577815
-0.763705 2.05204 0.882381
-0.754529 2.17895 2.34782
-0.749058 2.24828 3.52797
-0.749861 2.30497 4.71278
0.748721 -0.177663 -3.4158
0.755314 -0.099169 -2.23227
0.762996 -0.115556 -0.739189
0.750226 -0.126833 0.758134
0.720635 -0.0826508 2.25131
0.714525 -0.0201453 3.43569
0.714809 0.050158 4.61711
0.742876 0.10322 -3.38325
0.705726 0.3597 3.45018
0.709336 0.426718 4.63236
0.742584 0.609203 -3.3113
0.691417 1.1352 3.47301
0.701846 1.18974 4.65998
0.766371 1.55126 -3.22312
0.771338 1.66555 -2.04317
0.760657 1.86699 -0.577815
0.729965 2.05238 0.882381
0.705219 2.17902 2.34782
0.701042 2.24829 3.52797
0.702932 2.30495 4.71278
1.50455 -0.184609 -3.41449
1.51235 -0.110229 -2.23035
1.52157 -0.107163 -0.739446
1.50085 -0.112375 0.755558
1.46034 -0.0708783 2.24681
1.4466 -0.0118493 3.43264
1.44566 0.0557708 4.61534
1.49969 0.104351 -3.38284
1.50861 0.202179 -2.20093
1.52649 0.232278 -0.713988
1.50144 0.252684 0.774785
1.4483 0.306326 2.26211
1.43488 0.365736 3.44766
1.43787 0.430833 4.63102
1.50009 0.637001 -3.31382
1.50861 0.730889 -2.13107
1.53979 0.892123 -0.658018
1.49363 0.998336 0.813586
1.42189 1.07971 2.28702
1.41771 1.13455 3.47341
1.42806 1.18995 4.66006
1.5211 1.57244 -3.22562
1.52632 1.6866 -2.04591
1.51706 1.8754 -0.57947
1.48098 2.04966 0.882579
1.44519 2.17331 2.34923
1.43453 2.24357 3.52938
1.43475 2.30176 4.71381
-0.769332 0.44 -2.1932
0 0.209065 -2.20889
-0.775027 0.193306 -1.45776
-0.737862 0.68922 2.31945
0 0.255741 2.30744
-0.744538 0.257128 1.52299
0 0.762736 -2.22274
-0.781691 0.791252 -1.39
0 1.08668 2.28824
-0.730055 1.05872 1.55
0.76937 0.44 -2.19324
0.775024 0.19331 -1.45776
0.738008 0.68922 2.3196
0.744468 0.257199 1.52299
0.781683 0.791244 -1.39
0.730049 1.05871 1.55
-0.764652 0.220348 0.0326149
-0.829969 0.543878 -0.683787
-0.000304198 0.175189 -0.712574
-0.782693 0.617211 0.796402
0.000629007 0.2145 0.777803
-0.787779 0.956892 0.08
0.000956362 1.37189 -0.655
4.10142e-06 1.08756 0.815
0.76496 0.22004 0.0326149
0.832832 0.545139 -0.683787
0.782578 0.616586 0.796402
0.787724 0.956836 0.08
-0.859034 0.491939 -1.42388
0.859055 0.492569 -1.42388
-0.000152099 0.170664 -1.45776
0.000478181 0.990058 -1.39
0 0.44 -2.38663
-0.831037 0.580545 0.0563075
0.831053 0.580862 0.0563075
0.000162405 0.193021 0.0326149
0.000480232 1.50138 0.08
-0.895797 0.653216 1.5365
0.895801 0.652903 1.5365
0.000314504 0.23497 1.52299
2.05071e-06 1.09386 1.55
0 0.68922 2.33435
-0.758741 0.3275 -2.19965
-0.3725 0.210558 -2.20739
-0.778262 0.185904 -1.83036
-0.751635 0.49211 2.31902
-0.3575 0.251559 2.31162
-0.734196 0.271637 1.89559
-0.767974 0.5525 -2.1748
-0.367608 0.748261 -2.20826
-0.790211 0.759884 -1.7575
-0.736123 0.88633 2.33192
-0.3375 1.08361 2.28517
-0.708175 1.07673 1.9175
0.3725 0.210545 -2.20741
0.758717 0.3275 -2.19963
0.77826 0.185906 -1.83036
0.3575 0.269898 2.29328
0.751631 0.49211 2.31902
0.733724 0.27211 1.89559
0.367608 0.748276 -2.20828
0.767958 0.5525 -2.17478
0.790243 0.759915 -1.7575
0.3375 1.08363 2.28519
0.736133 0.88633 2.33193
0.708165 1.07672 1.9175
-0.761876 0.210624 -1.08517
-0.768902 0.211931 -0.339979
-0.837131 0.357876 -0.69818
-0.386154 0.186569 -0.712574
-0.74937 0.24813 1.1504
-0.759229 0.229937 0.405209
-0.840115 0.391691 0.787103
-0.383579 0.214524 0.777803
-0.78187 0.831319 -1.0225
-0.827342 0.719547 -0.669393
-0.790955 0.92018 -0.2875
-0.482859 1.30377 -0.655
-0.738163 1.02694 1.1825
-0.777722 0.813485 0.805701
-0.774541 0.983541 0.4475
-0.397237 1.08821 0.815
0.761929 0.210571 -1.08517
0.380075 0.197813 -0.712574
0.768997 0.211837 -0.339979
0.840125 0.357878 -0.69818
0.750005 0.247495 1.1504
0.378753 0.226063 0.777803
0.759356 0.229811 0.405209
0.840015 0.391085 0.787103
0.784572 0.83402 -1.0225
0.484162 1.3035 -0.655
0.830128 0.721333 -0.669393
0.7931 0.922325 -0.2875
0.738189 1.02696 1.1825
0.397241 1.0882 0.815
0.777767 0.813226 0.805701
0.774539 0.98354 0.4475
-0.85672 0.46597 -1.80854
-0.384666 0.44 -2.3426
-7.60494e-05 0.17433 -1.83332
0 0.324533 -2.32471
-0.863045 0.342622 -1.44082
-0.38759 0.182058 -1.45776
-0.833053 0.671218 1.92797
-0.368931 0.68922 2.33267
0.000157252 0.247491 1.91522
0 0.472481 2.32775
-0.883402 0.455172 1.52974
-0.372112 0.242478 1.52299
0.000239091 0.921724 -1.80637
0 0.601368 -2.30522
-0.858237 0.641595 -1.40694
-0.390606 0.977468 -1.39
1.02535e-06 1.09562 1.91912
0 0.887948 2.3466
-0.831219 0.855967 1.54325
-0.365026 1.09375 1.55
0.856716 0.466285 -1.80856
0.384685 0.44 -2.34267
0.863034 0.34294 -1.44082
0.387436 0.189458 -1.45776
0.833078 0.671062 1.92805
0.369004 0.68922 2.33265
0.883433 0.455051 1.52974
0.372391 0.231958 1.52299
0.858101 0.641907 -1.40694
0.391081 0.977501 -1.39
0.831326 0.855808 1.54325
0.365025 1.09375 1.55
-0.837596 0.38057 0.0444612
-0.386988 0.197198 0.0326149
-0.816166 0.517909 -1.05383
-0.831418 0.562211 -0.31374
-0.000228148 0.166122 -1.08517
-7.08963e-05 0.178779 -0.339979
-0.816784 0.598878 0.426355
-0.889542 0.635213 1.16645
0.000395706 0.204317 0.405209
0.000471756 0.220231 1.1504
-0.829612 0.77882 0.0681538
-0.512768 1.46737 0.08
0.000717272 1.17147 -1.0225
0.000718297 1.46446 -0.2875
0.000242167 1.47342 0.4475
3.07606e-06 1.09143 1.1825
0.840366 0.379271 0.0444612
0.381241 0.209172 0.0326149
0.819206 0.518854 -1.05383
0.834323 0.563001 -0.31374
0.816677 0.598724 0.426355
0.889044 0.634745 1.16645
0.829498 0.778904 0.0681538
0.513137 1.46718 0.08
-0.855398 0.335061 -1.81945
-0.826889 0.360125 -1.0695
-0.808803 0.675862 -1.03817
-0.853937 0.597048 -1.78302
0.855393 0.33522 -1.81946
0.853963 0.597203 -1.78303
0.811701 0.676811 -1.03817
0.82966 0.360751 -1.0695
-0.380045 0.179847 -1.83184
0.379968 0.183603 -1.83184
0.384812 0.186398 -1.08517
-0.385193 0.186731 -1.08517
-0.379107 0.91791 -1.78193
-0.391825 1.12507 -1.0225
0.393018 1.1248 -1.0225
0.379344 0.917894 -1.78193
-0.378583 0.326016 -2.29112
-0.376137 0.576934 -2.27215
0.376146 0.576934 -2.27278
0.378593 0.326016 -2.29124
-0.837923 0.368944 -0.326859
-0.838393 0.386362 0.415782
-0.809599 0.799118 0.436927
-0.831511 0.7507 -0.30062
0.840836 0.368279 -0.326859
0.834236 0.75233 -0.30062
0.809709 0.799103 0.436927
0.83834 0.386103 0.415782
-0.385688 0.193649 -0.339979
0.383024 0.198761 -0.339979
0.379916 0.217779 0.405209
-0.385294 0.20584 0.405209
-0.521584 1.43311 -0.2875
-0.445965 1.25971 0.4475
0.446306 1.25992 0.4475
0.522395 1.43283 -0.2875
-0.886666 0.441025 1.15842
-0.815666 0.473641 1.91178
-0.818441 0.871149 1.92274
-0.821943 0.831756 1.17447
0.886673 0.440493 1.15842
0.822129 0.831522 1.17447
0.818382 0.871069 1.92277
0.81566 0.47358 1.91182
-0.375096 0.229476 1.1504
0.375865 0.225606 1.1504
0.364946 0.254409 1.9054
-0.364806 0.245859 1.9054
-0.36976 1.09175 1.1825
-0.351263 1.09574 1.91831
0.351263 1.09574 1.91831
0.369763 1.09174 1.1825
-0.363215 0.482295 2.329
0.363252 0.482295 2.32905
0.353252 0.887139 2.34522
-0.353215 0.887139 2.34522
-0.753839 0.27125 -2.20327
-0.55875 0.212586 -2.20536
-0.77469 0.187393 -2.01665
-0.743957 0.393555 2.30424
-0.53625 0.244476 2.3187
-0.727419 0.280497 2.08188
-0.742556 0.60875 -2.14086
-0.551411 0.697242 -2.15724
-0.784169 0.733898 -1.94125
-0.703348 0.984885 2.30625
-0.50625 1.08346 2.28502
-0.69465 1.08315 2.10125
0.55875 0.211364 -2.20659
0.753882 0.27125 -2.20331
0.774775 0.187309 -2.01665
0.53625 0.281655 2.28152
0.743919 0.393555 2.3042
0.727562 0.280355 2.08188
0.551411 0.697178 -2.15718
0.742036 0.60875 -2.14034
0.784222 0.733951 -1.94125
0.50625 1.08347 2.28503
0.703464 0.984885 2.30636
0.69462 1.08312 2.10125
-0.763339 0.211245 -0.898871
-0.767372 0.211378 -0.526276
-0.823472 0.273496 -0.705377
-0.575179 0.200059 -0.712574
-0.758324 0.237093 0.9641
-0.752794 0.238456 0.591506
-0.820367 0.30316 0.782453
-0.569332 0.227238 0.777803
-0.791489 0.860882 -0.83875
-0.817329 0.803032 -0.662197
-0.791177 0.900458 -0.47125
-0.660606 1.14138 -0.655
-0.739649 1.00848 0.99875
-0.763539 0.905773 0.810351
-0.767521 0.996465 0.63125
-0.595575 1.08796 0.815
0.763228 0.211355 -0.898871
0.572776 0.204104 -0.712574
0.767347 0.211403 -0.526276
0.823803 0.274232 -0.705377
0.758446 0.236971 0.9641
0.567346 0.232783 0.777803
0.7527 0.23855 0.591506
0.820179 0.302611 0.782453
0.793251 0.862644 -0.83875
0.662807 1.14339 -0.655
0.819922 0.805002 -0.662197
0.793327 0.902607 -0.47125
0.73965 1.00848 0.99875
0.595575 1.08796 0.815
0.763581 0.905656 0.810351
0.76761 0.996554 0.63125
-0.765161 0.38375 -2.19755
[...]
POINT_DATA 3682
SCALARS point_scalars float 1
LOOKUP_TABLE default
-99.5917
-43.3906
-34.9163
-42.4523
-99.4095
-44.4894
-34.3879
-42.8559
-36.5177
-29.8869
-54.2999
-49.3496
-36.3811
-29.392
-55.0216
-49.2906
-98.3993
-82.377
-36.5899
-26.7943
-39.8534
-37.6811
-33.6065
29.7978
-88.8887
-37.461
-27.4629
-39.3835
-37.0898
-33.4415
25.338
-103.02
-49.1463
-44.1102
-41.5776
-37.6922
-37.6922
-16.0942
-78.8299
-96.0381
-69.357
-40.9123
-42.2455
-42.2455
10.8127
-119.79
-36.7561
-30.7608
-38.1293
-33.3715
-32.4521
10.8127
-32.7873
-32.6376
176.568
-35.1379
-34.0247
54.2432
-46.5989
-84.9949
-75.5356
-40.8204
-42.2455
-42.2455
12.8526
-111.852
-36.5221
-30.2074
-38.8193
-34.3351
-33.4781
12.8526
-33.6311
-33.2683
179.513
-35.3851
-34.31
60.3692
-48.6492
-85.5838
-75.4058
-41.0962
-42.6572
-42.6572
-98.1983
-82.4752
-36.7237
-26.2816
-40.5375
-38.5214
-34.3579
28.218
-88.7117
-37.7037
-27.6312
-40.0745
-37.8632
-34.1098
25.4909
-102.872
-49.6082
-44.0681
-42.0047
-38.1443
-38.1443
-15.5024
-78.5101
-98.1996
-69.2553
-41.3173
-42.6572
-42.6572
-32.6164
-141.211
-53.544
-36.9694
-31.9331
-36.7322
42.8628
-51.5577
-34.2737
-46.7292
-32.1614
-53.398
-37.5276
-37.3306
-51.2667
-46.8087
-34.9038
-41.6625
-39.5688
-30.6342
-33.9263
-55.1453
-54.2912
-56.8941
-34.9695
-42.1131
-30.6315
-55.6907
-55.1512
-54.8827
-58.315
7.19538
209.764
-43.3481
-43.8762
-35.3766
-84.8102
-50.3915
-50.7287
-34.1911
-46.6725
-30.6663
-39.2239
-169.918
-78.6888
-37.6394
-35.3908
-38.8367
-34.4975
71.1314
-69.8239
-38.2049
-35.7697
-40.3634
-172.31
-38.2419
-78.7014
-36.5229
-38.4336
-40.5889
68.8803
-34.5361
-69.6124
-35.9364
-38.7847
-40.5208
-42.1459
-37.0339
-38.0622
-39.1933
-35.5171
-33.3336
-27.0492
-33.744
-47.0505
-47.2189
-54.861
-44.9882
-49.7905
-41.3426
-52.6783
-59.0738
-42.3211
-39.0358
-37.309
-38.3448
-36.508
-32.8726
-33.0353
-27.074
-47.2796
-44.747
-47.7805
-55.594
-49.8369
-59.0688
-41.36
-52.5988
-79.4754
189.108
-82.5993
112.864
-55.1064
-57.5962
-42.3111
-31.8636
-33.6732
-25.9164
-46.0218
-33.8891
-31.9773
144.16
-55.6879
-4.69947
-38.8838
-33.5606
-45.7756
-46.5747
-79.3869
189.232
-54.9241
-57.4698
-42.8046
-32.315
-46.5505
-36.0355
-55.3035
-4.5057
-45.972
-46.5548
-38.6158
-35.3307
-39.9383
-42.9745
-46.3595
-38.3018
-40.2901
-40.7023
-34.3282
-34.3018
-48.8304
-75.7479
26.3427
-88.1325
-65.9753
-54.626
-39.3091
-34.9674
-39.676
-43.5286
-40.216
-40.8729
-49.2636
-76.3192
-81.2906
-40.2879
-42.264
-75.5306
-81.2251
-75.417
-42.2669
-40.1161
-81.9857
-82.3606
-45.6262
-45.0331
-37.6278
14.7528
15.0112
-37.5314
165.221
140.095
140.549
165.117
-39.0867
-36.0075
-46.4477
-48.2005
-39.5185
-48.8412
-46.3861
-35.9149
-37.0838
-37.5313
-33.7251
-33.931
-89.9442
-60.7887
-60.8181
-90.0768
-41.9953
-42.1959
-42.649
-44.9183
-42.3091
-45.1005
-42.9589
-42.7511
-33.8855
-34.6884
-35.642
-33.7227
-55.1127
-38.9394
-38.9514
-55.0895
-29.8388
-30.6961
-33.619
-33.4295
-56.2912
-147.651
-95.2032
-39.3958
-37.9061
-37.5253
-30.1437
21.3897
-88.0469
-39.8803
-38.3396
-40.9839
-151.89
-55.9252
-96.3514
-39.04
-40.4101
-38.0295
21.0442
-30.2924
-88.0792
-38.6727
-40.3928
-41.2021
-36.8511
-36.5071
-36.7721
-38.0642
-37.8048
-31.5258
-26.6527
-33.0301
-51.5813
-51.1368
-54.7301
-75.5308
-50.2527
-44.7255
-55.1937
-59.2646
-37.2752
-37.8048
-36.3311
-36.9099
-36.5694
-32.0083
-31.1543
-26.6052
-52.2464
-75.6706
-51.4681
-55.2436
-50.3354
-59.2484
-44.7431
-55.086
-35.2284
-28.8962
-103.231
147.844
-145.136
-146.061
-100.474
117.515
-61.3557
-47.8048
-54.5444
-55.7423
-37.5117
-37.216
-41.0632
-32.6965
-32.8933
-33.4927
-32.9089
-23.8453
-40.071
-36.8463
-43.826
-34.8943
68.2381
68.0115
-44.8126
139.77
-57.1579
-48.5002
-55.2023
-26.0642
-34.6391
-34.6525
-36.2186
-33.6587
-43.0337
-47.7718
-45.6379
-46.9441
-34.1186
-28.7958
-103.282
146.891
-61.265
-47.7077
-54.3825
-55.5398
-38.1634
-37.7221
-41.6147
-33.1773
-41.4785
-38.0328
-44.4529
-36.4447
-56.9047
-47.6306
-54.7693
-25.7572
-43.1408
-47.8652
-45.7953
-46.9315
-34.1604
-34.2348
-36.5175
-34.9769
-39.6292
-44.1103
-40.2045
-42.4575
-38.9748
-39.3324
-42.6716
-39.2412
-29.4148
-36.9128
-37.3724
-31.4078
-34.154
-33.5712
-34.23
-33.6455
-55.3491
-52.8672
-51.7318
-64.4222
-45.4731
-44.6152
0.098567
-85.3023
-57.8589
-57.868
-55.6306
-56.6921
-34.2195
-34.0725
-37.1093
-34.6864
-40.01
-44.6324
-40.7286
-42.9407
-29.4393
-36.9387
-37.3259
-31.5019
-56.244
-52.8828
-52.1826
-65.7117
-62.0301
-55.0619
-55.5402
-50.6994
-61.8693
-54.8308
-55.2372
-50.3016
-68.2243
-58.4125
-58.2174
-51.2127
-13.9602
4.32052
4.38321
24.6182
193.327
187.31
183.353
192.754
-40.6847
-43.3197
-42.5077
-46.2121
-41.362
-44.0255
-42.4645
-46.6636
-35.2676
-35.9793
-34.5343
-35.2496
-83.403
-90.3261
-77.9919
-83.527
-47.0361
-47.9758
-49.5503
-44.7823
-47.4706
-48.3902
-49.8438
-45.0603
-34.0464
-33.6193
-35.0062
-34.134
-42.413
-46.6975
-46.6854
-51.0625
-31.0554
-26.8931
-32.0632
-31.3246
-99.5276
131.822
-101.816
56.0571
-83.1808
-80.3022
-39.7874
-31.2892
-33.7559
-31.1862
-43.1403
-34.9703
-100.715
98.7143
-48.4249
125.583
-72.0215
-52.2865
-41.9217
-33.9304
-36.577
-34.036
-41.5229
-39.9215
-103.382
56.1514
-99.6831
128.014
-83.1571
-80.2236
-34.65
-31.7302
-40.4306
-32.06
-43.7502
-37.3381
-48.2472
127.093
-100.695
98.4117
-71.8694
-52.0593
-36.627
-34.2386
-42.3682
-34.207
-41.7758
-39.9671
-40.7356
-44.051
-37.676
-36.7029
-37.6727
-38.817
-40.9571
-39.1261
-40.6079
-34.1292
-33.9579
-33.4772
-32.8008
-29.3489
-33.8307
-34.9338
-44.3493
-26.2098
-44.6243
-47.6799
-51.5209
-68.7006
-13.4201
-83.9639
-46.0691
-54.8113
-45.3991
-42.4021
-49.5144
-66.5344
-58.8677
-57.8958
-40.6405
-44.5448
-41.8458
-37.7947
-38.0875
-37.1526
-38.0142
-39.1335
-41.0288
-35.5435
-33.4242
-33.4783
-33.8589
-33.1596
-32.7315
-29.4813
-44.5248
-25.6321
-13.2459
-84.4929
-45.106
-48.272
-52.292
-69.6767
-46.2485
-54.7758
-58.8827
-57.8788
-45.3343
-42.5397
-49.4456
-66.3186
-80.0456
-78.2339
171.655
177.989
-82.6892
-82.7409
148.2
147.969
-61.2063
-50.8324
-67.2444
-50.6029
-41.8107
-42.8051
-30.3628
-32.5469
-34.4567
-33.2941
-27.2539
-27.9488
-42.9034
-49.2283
-34.7267
-34.0557
-32.5062
-32.479
136.449
137.969
-48.1868
-62.1659
-22.1937
8.73621
-38.8085
-38.8044
-33.5394
-33.452
-43.7296
-46.4839
-51.0647
-42.3545
-79.9403
-78.1649
177.972
171.301
-61.1182
-50.5747
-67.4186
-50.0088
-43.239
-42.3319
-31.0808
-32.8597
-43.3202
-50.0186
-35.2487
-35.5831
-61.9443
-47.7065
8.88463
-22.0756
-46.6587
-43.9817
-42.3468
-51.0398
-39.0668
-37.6596
-35.5478
-34.1543
-39.7943
-40.8586
-40.9976
-45.4243
-46.2353
-45.6514
-38.3099
-38.0581
-38.4164
-43.0101
-42.4986
-43.3115
-34.0456
-34.3216
-33.9938
-34.1204
-47.5473
-48.8117
-80.5158
-73.5915
24.7535
24.783
-89.2516
-89.2498
-67.3449
-67.3668
-54.9665
-54.9619
-39.5217
-37.5883
-35.4492
-34.4383
-40.43
-39.6327
-41.4914
-46.0239
-42.9518
-38.3343
-42.8025
-43.495
-49.8292
-47.5055
-73.4594
-81.3665
-88.9575
-60.3276
-61.7501
-102.714
-36.305
-39.1083
-51.0137
-50.89
-48.9276
-48.5709
-49.2537
-41.8373
-99.48
-100.966
-62.1848
-60.7877
-89.2323
-102.843
-61.6232
-60.25
-99.5166
-60.5252
-61.9979
-100.909
-49.421
-42.3868
-48.8186
-47.8501
-36.5921
-50.7175
-50.6705
-39.5436
-99.3917
-101.283
-68.0843
-65.0618
-100.144
-64.9568
-68.1972
-102.174
-40.205
-42.506
-50.7045
-48.6989
-39.6323
-49.0014
-51.2741
-41.7392
-69.1861
-38.3354
-15.596
-45.4183
-68.8553
-4.20768
20.4208
-13.2948
-68.1124
-13.0773
20.4567
-4.16115
-69.1738
-45.2607
-15.525
-38.1248
52.4602
139.798
159.673
116.147
81.7526
131.772
188.691
143.226
80.3255
142.416
188.973
130.246
60.2809
115.162
161.49
135.03
-37.4851
-36.4278
-41.4843
-40.4601
-30.9219
-36.9656
-39.8626
-35.2858
-49.502
-50.2953
-44.926
-41.0846
-50.9731
-44.8807
-45.9499
-53.4996
-37.6543
-40.8747
-42.0645
-36.667
-51.708
-54.328
-46.7311
-45.4132
-49.414
-41.0483
-44.8835
-50.2883
-30.7407
-35.1875
-39.7868
-36.9483
-37.8524
-40.4371
-35.8108
-34.9535
-36.9994
-34.8918
-35.791
-38.7161
-32.8306
-33.9512
-34.5709
-34.3186
-33.1967
-34.0869
-34.4261
-34.1969
-72.8596
-66.3597
-88.7365
-81.5894
-60.7011
-57.7149
-77.5817
-57.6506
-60.672
-57.6475
-77.6379
-57.7305
-73.7222
-81.8007
-88.9287
-66.925
-33.5495
-41.7673
-43.9505
-27.5247
-39.5056
-40.5495
-49.8487
-47.9188
-40.9844
-42.8738
-44.6294
-41.5562
-44.7612
-36.9106
-46.4188
-46.2629
-33.6376
-27.5808
-44.2948
-42.2996
-44.9027
-46.4271
-46.6068
-37.037
-41.3105
-42.0655
-44.9847
-43.0601
-40.1467
-48.6787
-50.5006
-41.16
-34.9794
-34.338
-34.1603
-35.3018
-33.1999
-36.599
-34.7435
-33.7081
-36.2105
-33.4629
-34.6616
-37.1803
-34.8106
-35.6945
-33.6956
-33.3296
-57.5205
-51.1049
-51.1992
-57.2732
-38.0328
-36.1916
-42.3613
-42.9948
-38.147
-43.0053
-42.3515
-36.1996
-57.5054
-57.2755
-51.1891
-51.0773
-32.6563
-27.0129
-28.1441
-31.9233
-33.7454
-32.551
-28.6554
-26.6827
-34.9226
-33.8774
-32.3625
-33.4231
-34.5825
-33.0284
-32.1954
-33.8073
-82.8074
-155.877
-98.9579
-41.3893
-40.1308
-38.8557
-31.5419
15.5409
-90.2575
-41.3551
-40.056
-39.9986
-154.453
-82.566
-98.5453
-41.2006
-42.3799
-39.572
15.7393
-31.1519
-90.1661
-40.4134
-41.7857
-40.2622
-36.7883
-36.2555
-36.5431
-37.1806
-31.7281
-29.6368
-27.4113
-32.3348
-55.138
-52.6172
-53.8978
-61.534
-48.4883
-46.5788
-51.456
-57.1566
-36.9374
-37.0171
-35.9811
-36.5417
-31.2537
-31.5398
-29.011
-27.2269
-55.598
-61.9856
-53.2252
-54.7537
-48.4761
-57.1218
-46.574
-51.3233
-34.4476
-31.532
-119.866
96.4137
-141.226
-141.988
-110.693
88.0601
-57.1415
-50.4832
-54.3494
-54.5193
-37.3189
-36.7984
-40.1762
-33.4594
-32.1167
-32.3594
-32.2121
-27.1008
-37.6391
-36.5737
-40.4324
-35.6795
73.4042
73.0399
-48.7104
91.7219
-53.1938
-49.3329
-54.2379
-38.2581
-34.3243
-34.3364
-35.1781
-33.9898
-44.7149
-47.2873
-45.202
-47.4677
-33.6617
-31.3475
-119.916
96.0578
-57.0149
-50.3436
-54.2332
-54.3058
-37.9112
-37.342
-40.7526
-33.9253
-38.7782
-37.3238
-41.1178
-36.1379
-52.8443
-48.7889
-53.7994
-37.8393
-44.8083
-47.375
-45.3472
-47.4716
-34.1397
-35.4844
-35.6939
-34.8904
-40.5583
-42.815
-41.4066
-42.0558
-39.7772
-39.5094
-41.0652
-39.1387
-28.8667
-33.5118
-33.1955
-29.6356
-34.2263
-33.7441
-34.0247
-34.0854
-55.3893
-54.0057
-53.3997
-60.5951
-51.5624
-51.6027
-22.1407
-81.0276
-57.2053
-57.2123
-56.2354
-57.0147
-34.1274
-35.8058
-35.9112
-34.598
-40.9648
-43.2972
-42.0494
-42.4957
-28.8949
-33.5254
-33.1885
-29.6804
-56.5806
-54.0825
-53.9165
-61.4527
-59.2798
-55.0761
-55.1915
-53.5145
-59.0591
-54.8365
-54.9165
-53.1907
-62.8859
-58.4736
-58.1617
-54.4598
-3.5241
6.46611
6.49788
15.47
203.177
202.072
206.272
203.136
-41.698
-43.2673
-43.2689
-44.8609
-42.3211
-44.1651
-43.2983
-45.338
-35.2627
-35.8537
-34.7968
-35.3052
-84.4587
-87.8239
-82.4266
-84.5139
-50.3246
-48.9851
-51.936
-46.0813
-50.7309
-49.3533
-52.2475
-46.3735
-34.0234
-33.7062
-34.5202
-33.9506
-44.4763
-46.6865
-46.6803
-48.9143
-30.9138
-30.0921
-30.8458
-31.0504
-43.3858
-35.6305
-113.106
93.3166
-146.591
-160.836
-116.571
20.2528
-91.5032
-68.378
-82.8645
-78.8759
-38.7115
-37.5984
-39.0055
-32.8681
-35.9492
-33.9792
-34.0214
-34.2014
-37.602
-39.0692
-43.4142
-35.9466
-35.3152
-27.3616
-102.931
64.4305
24.3002
71.7795
-51.8298
98.9045
-81.3343
-63.2843
-71.6234
-62.7457
-38.9066
-37.6448
-41.3326
-34.9675
-36.8409
-35.1293
-35.9265
-34.9362
-39.7538
-40.7959
-40.5846
-41.0018
-148.915
-162.373
-117.796
20.3484
-42.7588
-34.4064
-113.414
93.1609
-91.7153
-68.3256
-82.8886
-78.7537
-38.7653
-35.0173
-35.1647
-34.1848
-39.7807
-38.3302
-39.6991
-33.6324
-37.9213
-41.4253
-43.989
-38.7253
25.2853
69.8183
-51.1267
91.459
-35.3622
-27.3319
-102.869
64.6994
-81.0842
-63.1019
-71.4471
-62.4206
-37.0988
-35.2351
-36.0165
-35.1638
-39.5745
-38.1069
-41.738
-35.2521
-39.9317
-40.9417
-40.8237
-41.064
-37.3738
-46.8658
-41.4902
-43.1266
-36.3003
-36.5482
-37.1147
-36.9533
-37.3397
-38.8404
-37.6748
-38.5203
-38.8845
-39.1991
-40.203
-38.8466
-36.8111
-35.6493
-39.2158
-34.5369
-33.3716
-32.6631
-33.7973
-33.1634
-26.6949
-28.4341
-30.4279
-24.6945
-33.41
-33.9491
-33.3937
-34.4821
-47.6741
-47.4193
-45.622
-61.7286
-48.9932
-45.6007
-46.5776
-47.5283
-55.1026
-55.4499
-53.3683
-60.4061
-69.6702
-39.5962
-31.9771
-59.7681
-50.1615
-47.8796
-46.5536
-54.3479
-43.0428
-39.6515
-43.3164
-40.7081
-54.2302
-52.6246
-51.4146
-57.4183
-59.2558
-58.5746
-59.1726
-58.6646
-37.6436
-46.8747
-41.5231
-43.4694
-38.6965
-39.0376
-40.5351
-38.1809
-36.3616
-36.6853
-37.4429
-37.2995
-37.5453
-39.1834
-38.0095
-38.8167
-37.3708
-36.8579
-39.658
-35.8259
-32.3748
-33.3756
-32.9501
-33.2615
-33.1609
-32.2416
-33.6498
-32.7185
-26.6874
-28.4657
-30.3833
-24.7825
-48.0712
-46.4539
-45.6685
-60.6645
-68.6923
-38.6157
-31.7971
-59.6713
-49.5222
-46.1533
-47.1259
-48.0995
-55.6824
-56.2343
-54.0575
-61.0215
-50.2723
-47.9962
-46.7145
-54.3299
-59.2395
-58.5788
-59.1773
-58.6529
-43.0619
-39.6845
-43.2978
-40.7966
-54.0899
-52.5832
-51.3449
-57.2683
-93.4705
-67.513
-79.6905
-78.7502
175.05
189.47
179.293
190.094
-93.2673
-74.4908
-82.5443
-82.7094
126.725
140.697
120.139
119.71
-54.818
-55.1239
-58.0529
-53.378
-56.7385
-58.2188
-62.0111
-53.8594
-42.0259
-43.6234
-42.0342
-42.5959
-32.2503
-31.4798
-31.7306
-31.9113
-33.2419
-34.3728
-34.0334
-33.5046
-24.2356
-25.1622
-26.1851
-26.5715
-44.5899
-47.0967
-43.7668
-47.4372
-34.2957
-33.5899
-34.3606
-33.8975
-39.872
-24.2684
-31.7913
-31.7627
151.503
159.648
144.369
144.068
-55.8522
-55.8276
-52.6017
-58.8418
-12.2243
0.669285
-12.9086
2.40686
-37.4578
-40.54
-38.8576
-38.8542
-33.495
-33.0705
-33.5996
-33.5546
-45.7986
-46.3031
-44.4667
-46.228
-46.5927
-46.6566
-48.8282
-44.3952
-93.3555
-67.4026
-79.5847
-78.6613
176.542
189.656
190.161
179.325
-54.6399
-54.9218
-57.9114
-53.1605
-56.6179
-58.4889
-62.0385
-53.5507
-42.5437
-44.0894
-43.0649
-42.5479
-32.7411
-31.8483
-32.2264
-32.3259
-45.171
-47.5794
-44.2258
-48.0476
-36.5162
-35.3487
-35.1164
-35.7951
-55.4105
-55.4829
-58.5519
-52.0786
-12.0886
0.773563
2.55272
-12.8227
-45.968
-46.5389
-46.3993
-44.6858
-46.5748
-46.6394
-44.3806
-48.8049
-37.5073
-40.0428
-38.8227
-38.2021
-35.2123
-35.326
-35.2513
-34.8088
-38.656
-44.2684
-39.5446
-40.2197
-42.7744
-43.1461
-41.9082
-44.1439
-44.6177
-48.4376
-46.7291
-45.9268
-39.0878
-36.9317
-38.2403
-38.1901
-41.1248
-41.5682
-39.4544
-41.3067
-37.5129
-43.8782
-41.7483
-42.0246
-33.9215
-34.6846
-34.1271
-34.3408
-33.5392
-34.6924
-34.4259
-33.8847
-50.1492
-47.5164
-48.3411
-49.2293
-68.1009
-80.9927
-77.6479
-74.7312
13.1208
30.5374
25.8832
25.8914
-83.3315
-91.1406
-88.8716
-88.8752
-58.2709
-73.5473
-68.132
-67.9254
-55.8977
-53.0082
-54.7718
-54.7711
-38.2319
-40.7138
-39.3711
-38.497
-34.7759
-35.1149
-35.2217
-34.6814
-38.7985
-43.8203
-39.951
-39.3823
-43.3287
-43.7516
-42.4335
-44.723
-41.0399
-41.5109
-41.2418
-39.3757
-37.8259
-44.0059
-42.0915
-42.1082
-50.631
-47.9508
-50.3804
-48.3338
-69.8661
-81.1876
-74.7802
-78.4179
-94.9897
-82.3959
-80.5685
-68.5976
-40.5859
-37.6801
-45.5897
-40.1171
-43.1793
-42.5632
-44.0413
-41.4768
-84.5268
-72.2557
-76.8821
-67.9839
-95.0134
-82.3441
-80.4882
-68.5219
-84.4406
-72.1152
-76.7853
-67.8261
-43.3122
-42.9596
-43.6923
-41.2645
-40.4321
-37.8545
-45.2568
-39.9667
-92.4423
-81.107
-82.9052
-73.6998
-93.2482
-81.2848
-82.6983
-73.977
-45.1501
-43.761
-47.3358
-45.9393
-44.6395
-42.584
-47.8478
-45.3882
-44.057
-43.1379
-34.3844
-31.0476
5.88891
5.02377
14.5202
20.9041
6.20339
5.25769
14.6907
20.9692
-43.9868
-42.9978
-34.3581
-30.8972
156.376
120.934
168.563
157.459
122.858
138.009
154.309
134.489
137.977
121.947
135.165
154.491
120.899
157.373
157.161
168.333
-38.337
-38.9322
-38.9971
-40.0436
-34.6916
-34.853
-36.9299
-37.4953
-45.9785
-47.9143
-44.7387
-46.8942
-47.8785
-49.7203
-46.783
-48.2435
-38.7545
-39.3364
-39.4155
-40.5026
-48.5327
-50.4478
-47.4106
-48.7894
-45.915
-47.8455
-44.6809
-46.8195
-34.5909
-34.7665
-36.8386
-37.4198
-36.8357
-38.2618
-36.1744
-37.463
-37.599
-37.3161
-37.9032
-36.4447
-33.6553
-33.5106
-33.8974
-34.0949
-33.6918
-34.3056
-33.931
-34.0763
-81.2653
-85.5128
-84.6266
-88.736
-69.5912
-58.7845
-76.1436
-65.9898
-58.805
-69.508
-66.0675
-76.017
-85.8842
-82.3042
-88.9216
-85.264
-41.1187
-36.7179
-42.6493
-42.4711
-39.8512
-42.6974
-41.7358
-47.5114
-42.3934
-42.3009
-42.8686
-43.0223
-46.4655
-43.7385
-45.9314
-44.27
-41.484
-36.9168
-43.0262
-42.7438
-46.6502
-43.9409
-46.1137
-44.448
-42.7874
-42.5589
-43.26
-43.3148
-40.4626
-43.327
-42.2026
-48.1107
-33.911
-34.2023
-34.1385
-33.8355
-35.1099
-34.0513
-35.4822
-34.4468
-34.7304
-36.3962
-34.9962
-36.3415
-33.6322
-34.1905
-33.0238
-34.0905
-54.9237
-56.7187
-53.1921
-55.151
-37.6021
-39.2804
-38.8007
-40.5038
-37.6287
-39.3077
-38.8017
-40.5047
-54.8905
-56.6979
-53.1672
-55.1382
-30.6756
-29.7608
-29.4269
-28.5466
-30.7716
-31.5611
-29.3419
-30.3085
-33.9529
-33.7989
-33.5952
-33.2577
-33.5378
-33.7763
-33.0223
-33.465
-107.005
69.593
-108.192
-7.71829
-89.6839
-99.0772
-39.4975
-34.5085
-34.7435
-35.6598
-40.0661
-36.1036
-105.684
62.5478
-45.7261
56.7233
-96.2231
-79.7033
-40.8591
-35.3958
-37.8656
-36.3597
-40.699
-39.3085
-110.335
-3.42886
-107.508
68.1144
-90.0985
-100.155
-37.1593
-36.8798
-40.2234
-35.3717
-40.6363
-36.9744
-45.1912
55.4994
-105.658
62.2514
-96.2275
-79.8114
-38.0502
-36.7253
-41.2086
-35.8391
-40.9953
-39.4547
-35.6713
-38.8531
-36.6757
-37.1676
-36.4449
-37.1377
-38.592
-37.6831
-36.2038
-35.3576
-30.8863
-32.6672
-29.2801
-21.3935
-32.5464
-33.9508
-50.9398
-57.3728
-50.964
-51.1019
-53.1954
-61.4353
-75.2884
-75.9833
-46.5787
-57.0465
-46.6954
-44.4059
-51.8962
-64.2507
-60.0375
-58.6113
-35.9567
-39.233
-38.6612
-37.2322
-36.7095
-36.5121
-36.6486
-37.2552
-36.0096
-33.5538
-32.0267
-32.7132
-30.6492
-32.3154
-29.1346
-21.4077
-51.2271
-58.2005
-76.8413
-76.6974
-51.3944
-51.6658
-53.8359
-62.1168
-46.6908
-57.0917
-60.026
-58.6045
-46.6687
-44.4874
-51.8072
-64.3762
-115.236
93.181
-112.503
97.1639
-101.665
-101.583
140.538
146.909
-111.523
59.1433
-113.086
52.3474
-100.897
-101.028
59.4154
59.0422
-60.2059
-63.3836
-51.7638
-48.0298
-56.9616
-53.0326
-59.9477
-52.2441
-38.8227
-33.1646
-40.7496
-33.7088
-40.9004
-41.2767
-32.6351
-32.6707
-32.6867
-29.9456
-32.9584
-29.4984
-33.0808
-32.981
-24.9631
-24.9313
-45.9691
-37.3762
-40.3837
-35.8201
-42.1789
-46.1536
-34.8072
-35.1326
-54.0301
108.375
-53.4199
104.751
-45.0602
-44.9723
136.81
136.473
-59.8998
-51.1812
-49.5997
-32.1323
-51.78
-58.1511
-31.2123
-21.3542
-35.189
-34.0913
-35.205
-34.1681
-36.138
-36.202
-33.8003
-33.7538
-42.3408
-43.689
-45.6664
-51.4168
-44.6508
-45.8138
-49.0848
-44.8473
-115.509
92.8366
-112.561
96.8881
-101.802
-101.637
145.99
140.568
-60.161
-63.2231
-51.6449
-47.8553
-56.8353
-52.8692
-59.7847
-51.9548
-39.45
-33.7506
-41.3176
-34.137
-41.8057
-41.4878
-33.143
-33.1398
-46.9275
-38.0841
-41.0565
-37.5052
-42.7358
-46.8384
-36.1883
-36.8112
-59.6406
-50.9378
-48.66
-31.4996
-57.8102
-51.2673
-21.014
-30.9866
-42.512
-43.7138
-45.8195
-51.3992
-45.9677
-44.8168
-44.8463
-49.0637
-35.0908
-34.6792
-34.3851
-34.1042
-36.5159
-36.4308
-34.8327
-34.7798
-39.3786
-40.1022
-43.4927
-44.4009
-39.5778
-40.8982
-41.4039
-43.6039
-40.1438
-38.2937
-40.7494
-38.852
-42.603
-42.4484
-39.5637
-39.0008
-33.2937
-24.9498
-39.0251
-36.3533
-36.0815
-38.6977
-27.983
-34.6172
-34.0591
-34.5679
-33.6351
-33.8034
-34.1256
-34.3384
-33.5435
-33.768
-54.4763
-60.2384
-51.4754
-56.0353
-50.92
-52.4591
-66.0142
-61.62
-22.4764
-75.7521
-22.2403
-75.9
-1.88211
-1.80073
-83.2072
-83.3409
-57.7721
-57.7476
-57.7848
-57.7538
-56.8613
-56.8773
-56.9064
-56.9098
-35.3661
-34.6581
-34.0843
-34.1938
-36.7853
-36.7445
-34.8066
-34.7272
-39.81
-40.4736
-44.0488
-44.9069
-41.4266
-40.047
-41.8549
-44.117
-33.298
-25.0321
-39.0238
-36.4396
-38.6573
-36.039
-28.005
-34.7701
-55.3159
-61.0228
-51.4868
-56.0334
-53.5867
-50.9607
-62.1945
-66.8265
-61.9841
-62.1846
-58.7981
-53.2053
-54.4657
-58.9014
-51.0388
-50.1119
-61.8393
-62.0098
-58.6131
-52.9383
-58.6547
-54.028
-49.6877
-50.6661
-68.1437
-68.1429
-62.8314
-54.4489
-62.8297
-54.3204
-51.1165
-51.3424
-14.249
-14.2147
-5.80298
11.8973
11.9627
-5.69623
23.1209
23.0212
177.312
194.196
170.872