# vtk DataFile Version 2.0
tri_press
ASCII
DATASET UNSTRUCTURED_GRID
POINTS 3682 float
-0.631682 0.215 -2.065
-0.752851 0.295 2.035
-0.645 0.735286 -1.895
-0.655 1.055 2.01881
0.627281 0.215 -2.065
0.745 0.295 2.03925
0.640807 0.735 -1.895
0.645 1.055 2.02425
-0.710332 0.203407 -0.698333
-0.777305 0.20349 0.668334
-0.773541 0.967065 -0.590397
-0.757776 1.05454 0.714207
0.704784 0.203403 -0.696917
0.770611 0.203483 0.671167
0.769272 0.968734 -0.588583
0.751911 1.05664 0.717833
-1.35803 -0.219783 -3.18494
-1.36012 -0.148561 -2.11579
-1.42583 -0.155193 -0.747591
-1.48301 -0.172245 0.632741
-1.47897 -0.117148 2.00196
-1.47645 -0.0666899 3.07611
-1.48202 -0.0204711 4.14099
-1.3532 0.107185 -3.12207
-1.35619 0.204939 -2.05964
-1.44086 0.227003 -0.703662
-1.49252 0.221533 0.657552
-1.46341 0.275748 2.01471
-1.46857 0.325011 3.08813
-1.48093 0.370472 4.15514
-1.36085 0.717586 -2.97919
-1.37506 0.812173 -1.91423
-1.48075 0.978351 -0.600557
-1.4822 1.04436 0.70838
-1.40781 1.06107 2.02326
-1.4413 1.10649 3.09943
-1.47505 1.15454 4.17655
-1.38911 1.78633 -2.81178
-1.4058 1.89971 -1.75623
-1.45339 2.07901 -0.462084
-1.48083 2.21018 0.818506
-1.47731 2.27104 2.11328
-1.47958 2.30576 3.17014
-1.49163 2.34437 4.24018
-0.665782 -0.215244 -3.18834
-0.649327 -0.139909 -2.12086
-0.696991 -0.166103 -0.745753
-0.750076 -0.185817 0.642098
-0.75261 -0.110665 2.01747
-0.754435 -0.0626119 3.08728
-0.760653 -0.019717 4.14821
-0.66359 0.102805 -3.12277
-0.756606 0.330291 3.09778
-0.764194 0.371409 4.1611
-0.667314 0.684291 -2.971
-0.734323 1.10539 3.10025
-0.763711 1.15384 4.17825
-0.676918 1.76381 -2.80343
-0.682315 1.87866 -1.74698
-0.721596 2.07387 -0.455874
-0.754413 2.21511 0.819431
-0.760622 2.27388 2.11075
-0.765073 2.30636 3.16767
-0.775994 2.34435 4.23886
0.672354 -0.215006 -3.18763
0.676063 -0.139767 -2.12025
0.726053 -0.165963 -0.744171
0.763229 -0.185704 0.644889
0.743051 -0.110581 2.02126
0.710516 -0.062446 3.09119
0.691404 -0.0194454 4.152
0.654997 0.102969 -3.12229
0.691657 0.330418 3.10197
0.67824 0.371671 4.16505
0.663053 0.684434 -2.9705
0.655498 1.10559 3.10482
0.658975 1.15417 4.18233
0.728403 1.76442 -2.80209
0.743178 1.87943 -1.74546
0.742504 2.07495 -0.453699
0.710156 2.21625 0.822473
0.675045 2.27471 2.11442
0.662062 2.30699 3.17146
0.655237 2.34492 4.24257
1.36017 -0.219135 -3.18312
1.36879 -0.14794 -2.11388
1.43956 -0.154467 -0.744106
1.49579 -0.171636 0.638391
1.47885 -0.116779 2.00923
1.44515 -0.0662365 3.08369
1.42217 -0.0198612 4.1484
1.34135 0.107771 -3.12057
1.34299 0.205595 -2.05819
1.43263 0.227997 -0.700283
1.49431 0.222367 0.663496
1.46349 0.276028 2.0226
1.42593 0.325419 3.09616
1.40751 0.371074 4.16282
1.35303 0.718234 -2.97765
1.36423 0.813017 -1.91269
1.47095 0.980606 -0.596836
1.47753 1.04671 0.714969
1.39814 1.06179 2.032
1.38297 1.10709 3.10795
1.38262 1.15527 4.18446
1.43098 1.7876 -2.80894
1.45066 1.90127 -1.75302
1.46617 2.08106 -0.457683
1.44317 2.21228 0.82446
1.40336 2.27265 2.12037
1.38504 2.30705 3.17751
1.37692 2.34552 4.24746
-0.662685 0.475143 -2.00434
-0.00220048 0.249662 -2.03034
-0.670813 0.209397 -1.38167
-0.737461 0.675 2.06044
-0.0039255 0.306736 2.02539
-0.764039 0.250284 1.35167
-0.0020965 0.813669 -1.97353
-0.759977 0.901882 -1.2427
-0.005 1.10572 2.07225
-0.734304 1.08269 1.36651
0.658518 0.475 -2.00447
0.665874 0.20936 -1.38096
0.728312 0.675 2.06506
0.756894 0.250153 1.35521
0.755578 0.902405 -1.24179
0.728427 1.08579 1.37104
-0.743818 0.203449 -0.015
-0.873738 0.585236 -0.644365
-0.00277376 0.201002 -0.697625
-0.876383 0.629014 0.69127
-0.003347 0.200968 0.66975
-0.771027 1.01617 0.061905
-0.00213484 1.18765 -0.58949
-0.00293296 1.51053 0.71602
0.737697 0.203444 -0.0128751
0.869158 0.586068 -0.64275
0.871905 0.630062 0.6945
0.765042 1.01714 0.064625
-0.883151 0.53019 -1.31218
0.883375 0.530534 -1.31138
-0.00248712 0.210159 -1.38131
-0.00211567 1.00091 -1.24225
-0.00214849 0.475072 -2.18148
-0.87514 0.607125 0.0234525
0.87078 0.608065 0.025875
-0.00306038 0.200985 -0.0139375
-0.0025339 1.47433 0.063265
-0.875867 0.652007 1.35909
0.875922 0.652531 1.36313
-0.00363625 0.222791 1.35344
-0.00396648 1.46157 1.36878
-0.00446275 0.675 2.22038
-0.626336 0.345072 -2.01382
-0.316941 0.250912 -2.02909
-0.65265 0.210796 -1.72333
-0.747977 0.485 2.05054
-0.378388 0.30379 2.02727
-0.77157 0.259517 1.69333
-0.668704 0.605214 -1.96453
-0.323548 0.79711 -1.9569
-0.725839 0.841935 -1.56885
-0.687959 0.865 2.03135
-0.33 1.09989 2.06506
-0.717394 1.09158 1.69266
0.31254 0.250909 -2.02909
0.622167 0.345 -2.014
0.647978 0.21078 -1.72298
0.370537 0.304295 2.02889
0.739407 0.485 2.05491
0.764105 0.259418 1.69723
0.319355 0.797039 -1.95697
0.664475 0.605 -1.96455
0.721388 0.841898 -1.5684
0.32 1.09884 2.06673
0.677913 0.865 2.03591
0.71096 1.09464 1.69765
-0.688942 0.208032 -1.04
-0.727071 0.203432 -0.356667
-0.875739 0.352469 -0.671349
-0.356488 0.202334 -0.697979
-0.794031 0.203528 1.01
-0.760563 0.203467 0.326667
-0.877405 0.390971 0.679802
-0.390253 0.202375 0.669042
-0.768114 0.935828 -0.916548
-0.856498 0.79258 -0.617381
-0.772591 0.991924 -0.264246
-0.431389 1.16446 -0.589943
-0.744814 1.06739 1.04036
-0.865402 0.865937 0.702738
-0.770219 1.04117 0.388056
-0.481432 1.48469 0.715113
0.683709 0.208002 -1.03894
0.350943 0.202327 -0.697271
0.721236 0.203428 -0.354896
0.871334 0.352554 -0.669834
0.787076 0.203494 1.01319
0.383562 0.202366 0.670458
0.754156 0.203462 0.329146
0.872945 0.390929 0.682833
0.763282 0.936427 -0.915188
0.427012 1.16508 -0.589037
0.852006 0.793796 -0.615667
0.766999 0.992779 -0.261979
0.739538 1.07059 1.04444
0.475188 1.48498 0.716927
0.860702 0.867749 0.706167
0.764844 1.04326 0.391229
-0.860471 0.502666 -1.65826
-0.332417 0.475107 -2.14392
-0.0023438 0.224156 -1.70583
-0.00217449 0.362367 -2.10618
-0.879205 0.369793 -1.34692
-0.33665 0.210162 -1.38149
-0.87155 0.663504 1.70976
-0.370962 0.675 2.19662
-0.00378088 0.250042 1.68941
-0.00419413 0.490868 2.23595
-0.874779 0.451146 1.35538
-0.383837 0.222731 1.35255
-0.00210609 0.925657 -1.60789
-0.0021225 0.64437 -2.08841
-0.883609 0.716036 -1.27744
-0.381047 0.968298 -1.24247
-0.00448324 1.34359 1.72051
-0.00473137 0.890362 2.1288
-0.864253 0.867346 1.3628
-0.369135 1.4458 1.36764
0.856233 0.502767 -1.65792
0.328185 0.475036 -2.14389
0.878734 0.369947 -1.34617
0.331693 0.210155 -1.38114
0.866224 0.663766 1.71409
0.361925 0.675 2.19719
0.874748 0.451342 1.35917
0.376629 0.222851 1.35432
0.885127 0.71647 -1.27658
0.376731 0.96835 -1.24202
0.858506 0.869162 1.36708
0.36223 1.44567 1.36991
-0.875225 0.372414 0.00422627
-0.37337 0.202355 -0.0144688
-0.885296 0.557713 -0.978274
-0.871242 0.596181 -0.310456
-0.00263044 0.206939 -1.03947
-0.00291707 0.200996 -0.355781
-0.880522 0.61807 0.357361
-0.876346 0.640511 1.02518
-0.00320369 0.200975 0.327906
-0.00349162 0.200961 1.01159
-0.864527 0.832369 0.0426788
-0.48484 1.44137 0.062585
-0.00212526 0.999757 -0.915868
-0.00233437 1.36063 -0.263113
-0.00273343 1.50992 0.389643
-0.00344972 1.4927 1.0424
0.8709 0.372424 0.00649995
0.367252 0.202347 -0.0134063
0.885779 0.558301 -0.977063
0.86706 0.597067 -0.308438
0.876296 0.619064 0.360188
0.87203 0.641297 1.02881
0.86005 0.833672 0.04525
0.479323 1.44187 0.063945
-0.836257 0.357432 -1.6908
-0.881832 0.382057 -1.00914
-0.887872 0.746093 -0.947411
-0.857538 0.660625 -1.61356
0.832193 0.357474 -1.69045
0.853146 0.660735 -1.61316
0.883302 0.746935 -0.946125
0.885726 0.382342 -1.008
-0.326796 0.224842 -1.71458
0.322117 0.224829 -1.7144
0.341349 0.206934 -1.0392
-0.346601 0.206943 -1.03973
-0.352297 0.915725 -1.58837
-0.384442 0.996975 -0.916208
0.38015 0.996964 -0.915528
0.348043 0.915704 -1.58814
-0.324679 0.353719 -2.07822
-0.327982 0.624792 -2.09733
0.32377 0.624685 -2.09719
0.320363 0.353683 -2.07832
-0.872181 0.364092 -0.333562
-0.881501 0.3791 0.342014
-0.869374 0.851358 0.372709
-0.861299 0.812868 -0.287351
0.867769 0.364163 -0.331667
0.856866 0.814153 -0.285208
0.864708 0.852876 0.375708
0.87714 0.379067 0.344667
-0.364928 0.202347 -0.356224
0.359096 0.20234 -0.355339
0.375408 0.202355 0.328526
-0.381812 0.202364 0.327287
-0.474095 1.33488 -0.263679
-0.491468 1.47969 0.388849
0.485571 1.48006 0.390436
0.469098 1.33534 -0.262546
-0.872241 0.433699 1.01759
-0.871833 0.468073 1.70155
-0.834321 0.866173 1.70121
-0.861677 0.854561 1.03277
0.874578 0.434057 1.021
0.856984 0.856257 1.03663
0.82897 0.867081 1.70587
0.873926 0.468171 1.70566
-0.387082 0.200965 1.0108
0.38013 0.200957 1.01239
0.373583 0.250317 1.69332
-0.381113 0.250182 1.69137
-0.374745 1.47881 1.04138
-0.349568 1.33819 1.70659
0.341115 1.33715 1.70908
0.36836 1.4788 1.04342
-0.374675 0.487934 2.19473
0.366231 0.487934 2.1956
0.340962 0.877681 2.13646
-0.350481 0.877681 2.13629
-0.651431 0.280036 -2.06183
-0.474312 0.254646 -2.02535
-0.643504 0.21156 -1.89417
-0.756284 0.39 2.04864
-0.56562 0.314559 2.01597
-0.771633 0.267836 1.86417
-0.657429 0.67025 -1.93034
-0.484274 0.770085 -1.92983
-0.695744 0.798935 -1.73192
-0.675506 0.96 2.02911
-0.4925 1.08793 2.05242
-0.697785 1.08488 1.85573
0.469911 0.254647 -2.02535
0.647262 0.28 -2.06204
0.638972 0.211547 -1.89399
0.557769 0.302218 2.0315
0.747982 0.39 2.05286
0.763625 0.268137 1.86824
0.480081 0.769952 -1.92992
0.653152 0.67 -1.93029
0.69132 0.798671 -1.7317
0.4825 1.08663 2.0552
0.665613 0.96 2.03424
0.690698 1.08754 1.86095
-0.69763 0.207726 -0.869167
-0.718696 0.203424 -0.5275
-0.878759 0.235076 -0.684841
-0.533426 0.202838 -0.698156
-0.785678 0.203499 0.839167
-0.768934 0.203479 0.4975
-0.876003 0.272906 0.674068
-0.583768 0.202955 0.668688
-0.770519 0.951139 -0.753472
-0.829309 0.886967 -0.603889
-0.785217 0.991646 -0.427321
-0.633216 1.12727 -0.59017
-0.7515 1.06117 0.877282
-0.834189 0.971538 0.708473
-0.76329 1.04715 0.551131
-0.642774 1.31595 0.71466
0.692258 0.207691 -0.867927
0.527886 0.202821 -0.697094
0.713005 0.20342 -0.525906
0.874332 0.234843 -0.683375
0.778839 0.203493 0.842177
0.577075 0.202947 0.670813
0.762382 0.203473 0.500156
0.871666 0.272262 0.677
0.76578 0.952083 -0.751886
0.628665 1.12795 -0.58881
[...]
POINT_DATA 3682
SCALARS point_scalars float 1
LOOKUP_TABLE default
-104.293
-51.3675
-11.0703
-39.9091
-71.165
-50.0296
-10.8118
-37.9626
-42.7416
-42.667
-60.3889
-53.7644
-42.6427
-42.5682
-60.4549
-53.2971
-4.36157
-85.8748
-45.5325
-42.3619
-54.8943
-50.9022
-45.0359
-4.36157
-81.3692
-48.3064
-43.3939
-55.1
-45.3665
-40.8804
43.4662
-59.7814
-50.4147
-49.8324
-47.3777
-41.0141
-39.9048
-11.7937
-42.6646
-98.5686
-63.2094
-45.3286
-38.8125
-38.2934
85.5644
-101.699
-42.8899
-42.9002
-50.1108
-45.0359
-41.0699
85.5644
-40.5872
-40.5394
159.476
-37.6331
-40.0795
-11.1611
-34.7184
-70.8326
-64.3203
-45.3286
-36.4833
-34.4598
86.4031
-82.7832
-43.2621
-42.4898
-49.2147
-44.1352
-40.657
86.4031
-40.089
-40.4016
158.963
-34.4855
-39.7267
4.08716
-36.1501
-73.5547
-63.6177
-42.4736
-33.7547
-31.5518
2.99124
-82.4719
-46.6358
-42.3188
-54.5107
-50.666
-44.3212
2.99124
-77.8642
-49.8346
-43.0933
-55.0248
-43.3504
-40.2441
44.1465
-54.4257
-50.2776
-49.4318
-45.7823
-38.6014
-39.0754
-11.6545
-43.4413
-97.0778
-63.6469
-44.0281
-37.0975
-36.4064
33.4253
-120.188
-54.3906
-42.8391
-46.9566
-44.1548
-29.2211
-44.838
-31.1356
-47.8702
29.8123
-54.6222
-41.2472
-44.2615
-45.1558
-47.0231
-39.1018
-45.7029
-43.6607
-45.376
-44.0466
-60.4724
26.2824
-72.4615
-38.8862
-45.411
-44.6067
-60.2613
-64.7137
-66.9742
-57.5854
-17.0979
200.095
-43.6528
-43.3934
-40.3962
-96.5725
-46.4965
-46.1109
-49.8707
-48.2597
-38.1456
31.3233
-119.097
-73.5493
-45.231
-47.5204
-47.4042
19.181
-21.8889
-39.472
-41.1343
-34.42
-45.646
-118.646
33.7506
-73.2488
-46.9091
-43.6705
-46.8768
-21.6986
20.1446
-39.2013
-32.0431
-39.4255
-44.1603
-42.7714
-39.4274
-45.7844
-43.2228
-55.6441
-40.6809
-44.0474
-43.743
-39.6067
-48.2067
-64.6933
17.3302
-50.4494
-48.5253
-57.2767
-67.1479
-43.2026
-43.2352
-39.2783
-45.0184
-53.3395
-43.6177
-40.4477
-43.2336
-39.5822
17.1093
-48.3245
-64.4063
-49.7756
-67.0509
-47.9925
-57.157
-91.7605
186.378
-72.2592
192.091
-64.3821
-56.627
-53.1277
-38.8391
-49.8044
-40.7852
-45.3839
-48.9059
-23.5691
174.429
-67.8553
-18.0417
-35.9544
-37.323
-47.6035
-49.041
-83.5325
186.622
-66.4038
-56.2894
-52.6541
-37.9957
-45.1059
-48.8406
-68.776
-18.059
-47.2534
-48.4669
-40.6496
-40.0785
-50.4565
-43.4211
-47.0726
-41.0118
-45.8467
-44.8802
-41.4528
-48.5499
-50.1976
-91.7962
11.5817
-30.6384
-88.406
-59.6193
-40.3015
-39.9973
-51.5124
-43.0621
-45.4629
-43.9701
-49.7252
-90.5629
-77.1426
-48.753
-52.9942
-78.4027
-71.3966
-75.9712
-53.9872
-50.1176
-71.9805
-71.933
-46.2444
-46.1562
-32.4238
4.79352
4.83343
-32.2936
181.54
136.622
137.755
181.927
-40.3611
-43.2948
-50.5119
-51.3669
-39.818
-51.156
-50.0148
-42.7962
-40.6125
-40.5572
-41.1044
-41.2114
-46.198
-79.1468
-78.7772
-45.9542
-44.2742
-51.8982
-51.284
-47.2877
-43.1761
-46.7426
-49.96
-52.3355
-48.5567
-48.4355
-49.3326
-49.8266
-58.7364
-38.4289
-37.3278
-58.3815
-40.5915
-40.2478
-36.4318
-37.795
31.5167
-130.607
-92.5661
-47.0147
-48.2625
-53.2257
6.40622
-9.70444
-40.3098
-41.1624
-36.2768
-42.8021
-130.384
10.9802
-92.8809
-47.7275
-45.4076
-52.2134
-10.1312
6.2217
-40.3094
-34.1194
-39.3101
-40.7833
-41.6167
-40.6084
-45.7312
-42.6123
-48.5923
-42.1561
-43.4488
-43.6693
-49.5488
-52.0947
-68.714
-20.9153
-51.9123
-52.0567
-55.6938
-59.3722
-41.9793
-42.6176
-40.3545
-45.5224
-48.3798
-43.459
-41.7606
-43.0239
-49.8028
-21.7821
-52.1003
-69.7127
-51.3542
-58.8563
-51.6102
-55.3213
25.1314
22.3448
-51.4193
146.024
-118.57
-118.495
-87.1612
152.833
-63.9148
-47.7873
-62.0299
-55.7285
-44.5497
-41.7208
-50.0034
-39.4672
-47.161
-46.9134
-49.1677
-42.8118
-44.3647
-43.7605
-44.5306
-46.5124
-22.2053
-23.1346
-34.1626
85.8235
-44.1805
-39.5714
-66.7315
-25.5182
-32.579
-31.0056
-33.5891
-33.1803
-47.5787
-49.1259
-47.9771
-49.3819
26.6844
24.4166
-51.8187
145.347
-64.0613
-48.1137
-62.8409
-55.8244
-42.9871
-39.9654
-48.3896
-38.6047
-44.2573
-43.7861
-44.5814
-46.3639
-44.616
-39.7482
-65.193
-25.6436
-46.4352
-48.4689
-47.3531
-48.9088
-39.0074
-39.6297
-39.1783
-39.5991
-45.8311
-45.7534
-50.1934
-42.1111
-43.5274
-43.5364
-45.6672
-42.0582
-44.5586
-46.6495
-45.8406
-44.8699
-44.0189
-43.9593
-42.5538
-45.9759
-62.6055
-58.43
-55.2777
-75.8648
25.0975
25.1005
25.2746
-0.149714
-71.5289
-71.3591
-79.5785
-65.9241
-38.8282
-39.4372
-38.7585
-39.4698
-45.2716
-45.5779
-50.9107
-41.7498
-43.74
-45.9819
-45.2221
-44.0442
-62.0921
-57.9126
-54.6917
-75.662
-83.916
-64.9927
-65.3488
-55.9369
-85.8721
-67.2595
-67.4154
-57.1633
-64.844
-57.088
-57.0504
-51.5124
-27.1904
-17.1296
-17.1918
-0.138029
201.947
185.021
178.712
202.708
-41.7601
-43.3296
-44.5654
-46.5207
-41.4723
-42.9806
-44.1722
-46.0826
-40.3191
-40.4741
-40.7342
-40.2851
-95.8437
-78.3319
-95.5583
-95.6884
-48.933
-45.7934
-47.2274
-45.1175
-48.9352
-45.4915
-46.9479
-44.5816
-49.6192
-49.7014
-49.6359
-50.785
-42.3078
-48.4504
-48.1359
-53.8097
-38.3172
-40.7342
-37.4906
-37.9007
-63.3539
173.703
-87.1346
127.136
-76.023
-73.0381
-53.8069
-40.8363
-49.6712
-42.2763
-50.5237
-49.3829
-34.7077
101.314
-38.4918
84.2856
-47.3332
-34.7244
-47.676
-38.7047
-35.4001
-35.7108
-48.41
-41.5679
-86.9836
142.139
-63.7306
172.378
-71.858
-72.983
-48.9576
-41.7681
-52.4703
-40.1657
-51.0951
-48.5865
-38.5412
83.8525
-35.1776
101.525
-47.3437
-34.487
-34.0952
-33.2388
-45.9819
-37.0535
-46.9255
-40.1401
-46.3755
-44.9393
-38.8396
-40.045
-47.85
-40.2639
-45.0885
-41.6101
-45.8035
-52.6179
-42.0392
-40.8749
-43.9617
-44.5965
-42.3326
-46.1185
-54.0374
-9.24485
-51.2513
-49.3969
-58.2675
-96.2291
16.0699
-10.7781
-49.3223
-55.882
-49.4927
-47.7939
-54.6607
-65.8176
-72.7814
-63.3062
-48.3311
-45.1261
-45.1425
-41.5792
-38.6325
-39.9485
-49.7175
-39.7416
-44.8489
-52.3698
-42.2137
-45.9853
-41.3711
-40.7008
-43.4359
-43.1516
-54.7131
-9.23961
16.2022
-11.0107
-51.1587
-49.31
-58.0501
-94.3974
-48.7274
-55.4
-72.5877
-63.0672
-48.9882
-47.2536
-54.4495
-65.529
-82.7266
-89.1537
173.869
174.025
-72.1097
-72.1324
190.822
190.874
-84.7603
-54.6979
-64.6768
-50.6066
-52.6458
-52.811
-40.638
-38.3022
-49.6491
-49.8509
-40.7863
-40.6271
-44.4245
-47.31
-49.9865
-48.9994
-25.735
-25.7825
162.488
163
-57.405
-78.7557
-27.657
-6.3956
-36.844
-36.2143
-36.5846
-37.306
-50.3436
-46.9907
-53.906
-44.0558
-76.1267
-83.9672
174.089
174.178
-86.9835
-55.6679
-64.6933
-50.5088
-51.6153
-52.9587
-40.3854
-37.0647
-44.2495
-47.1651
-49.8814
-48.8839
-79.6047
-58.9496
-6.37848
-27.5572
-46.5404
-49.4862
-43.3104
-53.4854
-40.2328
-41.6432
-40.116
-40.4545
-49.6847
-51.0427
-41.4474
-46.5119
-46.8071
-46.7685
-40.904
-40.9221
-44.4246
-47.7335
-44.5244
-45.7556
-41.3435
-41.4008
-48.5253
-48.4716
-50.1603
-50.4019
-72.7179
-86.4548
10.3154
10.3378
-32.9013
-33.1347
-86.6461
-86.5022
-59.5106
-59.3292
-39.7494
-41.1685
-40.0469
-40.3589
-52.4107
-50.9877
-41.026
-46.2365
-47.4544
-43.9304
-43.3151
-45.053
-50.1111
-49.6696
-86.5523
-73.3821
-72.3274
-84.4067
-84.99
-60.8001
-43.0103
-49.4434
-55.6425
-52.1807
-52.5447
-55.7308
-56.523
-51.4629
-39.1067
-45.5034
-83.5507
-63.9126
-70.9875
-60.1704
-87.9114
-85.676
-38.4742
-63.4616
-83.996
-45.1356
-52.884
-51.1062
-57.8084
-56.6438
-44.3053
-52.9861
-56.7278
-50.7745
-91.0388
-87.1597
-64.7385
-64.1932
-90.9326
-64.1464
-64.7373
-87.1177
-44.1183
-45.5266
-51.276
-49.6506
-43.9482
-49.4558
-51.175
-45.5058
-40.1652
-32.7226
-28.1582
-35.62
-5.38571
23.0425
-1.39532
-16.8733
-5.32412
-16.8045
-1.36943
23.1862
-40.18
-35.6982
-27.7509
-32.8318
84.8123
158.628
185.258
136.164
61.6819
102.195
177.933
136.101
61.382
136.031
178.022
99.9142
84.8921
139.704
185.38
158.619
-39.7902
-38.7304
-41.3457
-40.7851
-43.7579
-44.7461
-42.8396
-40.2525
-53.4509
-54.5573
-46.9272
-47.3546
-58.2858
-44.7689
-46.2115
-56.2796
-39.4822
-40.3058
-40.9506
-38.4057
-58.442
-55.9906
-45.8856
-44.531
-53.1136
-46.7885
-46.4947
-54.2138
-43.2341
-39.6828
-42.331
-44.1416
-41.0683
-41.9214
-40.3862
-39.5864
-40.9969
-39.4738
-40.3554
-41.9313
-41.848
-42.4536
-40.6211
-39.8898
-42.0561
-40.0382
-40.6721
-42.5117
-65.5196
-88.2018
-76.88
-2.18656
-62.4263
-78.1754
-93.5056
-69.3014
-61.9568
-69.2325
-93.4619
-78.0186
-64.3442
-2.22546
-77.0259
-88.5726
-46.9435
-44.0455
-44.453
-44.2975
-54.9719
-52.4449
-48.0096
-45.9244
-46.8433
-48.5068
-50.0763
-48.4887
-50.784
-46.1457
-45.98
-48.8513
-45.5638
-43.3026
-44.2731
-44.0655
-50.3488
-48.2584
-45.4462
-45.4114
-45.2277
-46.9527
-49.8696
-47.397
-54.0154
-46.0073
-47.9524
-50.7873
-46.1033
-45.9487
-50.6561
-46.3115
-45.8621
-46.1247
-50.6035
-45.9239
-49.4743
-49.0226
-49.4327
-47.2997
-51.3362
-47.0175
-49.5257
-49.2881
-55.3073
-53.3832
-53.9154
-65.479
-37.2967
-34.3189
-42.9873
-46.2684
-35.7055
-45.4854
-42.4929
-33.5314
-55.0752
-65.3127
-53.6835
-52.7987
-43.4256
-43.0075
-40.7301
-40.6953
-41.9095
-40.192
-40.7074
-42.7659
-35.6106
-33.2961
-37.16
-37.4629
-37.9001
-38.8422
-37.7796
-34.5895
-14.5824
-142.773
-122.562
-49.7212
-49.1753
-51.1187
1.62976
-10.3912
-33.832
-40.9678
-37.386
-40.746
-140.183
-30.4837
-123.472
-48.1924
-48.0734
-49.7461
-10.2365
2.60926
-34.2991
-35.4322
-39.103
-38.9664
-42.6386
-41.5456
-43.1777
-42.4723
-44.7609
-42.2953
-43.0508
-43.4957
-56.8813
-55.6774
-63.1031
-56.3846
-52.8855
-53.2891
-54.6535
-55.9994
-42.6978
-42.4433
-41.3535
-42.9951
-44.4674
-43.2771
-41.9035
-42.8854
-57.4793
-55.0659
-55.8881
-62.7992
-52.2819
-55.5849
-52.8826
-54.3102
32.6585
28.7037
-18.8256
93.5104
-119.376
-119.408
-101.883
91.954
-58.724
-50.8608
-60.7074
-54.4449
-43.9422
-42.1236
-46.7601
-40.3447
-47.0476
-46.9328
-48.088
-44.3026
-44.2391
-43.0939
-44.1411
-45.5115
-27.6724
-27.5974
-34.4451
-9.79009
-46.3601
-41.2988
-58.3594
-33.9127
-31.6986
-30.846
-32.6464
-30.5435
-47.7148
-48.1249
-48.0435
-48.2123
32.4765
27.6335
-18.2331
91.5329
-59.0231
-51.0765
-61.3177
-54.6428
-42.2691
-40.453
-45.15
-39.3099
-44.2974
-43.0387
-44.3192
-45.4428
-46.8018
-41.3658
-56.0883
-33.7941
-46.8372
-47.3899
-47.2529
-47.5694
-38.9919
-39.338
-38.6037
-39.3429
-45.8034
-45.5803
-49.3392
-43.2143
-43.6177
-43.62
-44.5862
-42.7873
-44.9355
-45.9204
-45.604
-44.973
-44.0204
-43.9965
-43.2452
-44.9511
-61.5206
-59.318
-58.4969
-66.5425
26.0515
26.0031
29.1916
16.6848
-72.2614
-72.1771
-75.9751
-69.0187
-38.7972
-39.1128
-38.1697
-39.1762
-45.4359
-45.3351
-48.8242
-42.8428
-44.1272
-45.2118
-44.9372
-44.2283
-61.2512
-58.9502
-58.0308
-66.4242
-70.2093
-64.8964
-65.0751
-60.2347
-73.4843
-67.1037
-66.9926
-61.301
-61.5797
-57.2343
-57.1976
-54.1926
-27.9362
-17.1835
-17.2008
-7.71028
203.953
195.09
202.273
202.932
-42.6275
-43.4355
-44.1852
-44.8237
-42.3565
-43.1239
-43.7465
-44.5986
-40.3767
-40.3833
-40.5125
-40.3595
-96.3714
-94.6987
-95.4292
-96.2959
-47.5053
-46.1393
-46.8364
-45.5859
-47.2631
-45.9038
-46.4716
-45.5191
-49.8262
-49.8465
-49.8104
-49.9953
-45.0482
-48.4414
-48.2646
-51.1207
-38.238
-40.2176
-37.3437
-38.0435
44.1726
25.663
-34.2743
116.756
-127.819
-117.659
-101.901
53.3856
-82.1089
-69.2306
-75.1924
-72.9853
-45.7905
-44.8996
-49.9481
-41.713
-48.3353
-47.2296
-48.449
-44.4669
-50.0201
-45.5695
-49.2457
-48.3881
11.3371
18.1773
-19.9965
65.1287
-14.9185
-19.0284
-34.3892
13.2255
-41.5976
-41.6441
-44.2357
-33.9667
-41.0574
-41.4129
-44.7438
-39.4081
-35.3671
-33.5099
-34.8075
-34.3908
-44.2828
-46.7221
-46.5768
-44.3406
-127.741
-117.556
-101.575
62.5745
45.5104
28.6767
-34.215
114.213
-81.8513
-69.2139
-73.7943
-73.0547
-47.2306
-46.8445
-47.8869
-43.8991
-44.2081
-43.3443
-48.0898
-40.8247
-49.382
-45.0987
-49.0807
-48.1142
-15.3883
-19.2145
-34.8309
13.258
11.5093
18.8653
-19.431
66.2001
-39.3567
-41.8527
-45.1092
-33.9645
-33.0476
-31.4772
-33.189
-31.2503
-39.3362
-39.5172
-42.9315
-37.8908
-42.6169
-45.2646
-45.0216
-42.5945
-42.5094
-45.0131
-39.8213
-44.1076
-39.9441
-39.1517
-38.7108
-39.7515
-45.5854
-45.9117
-49.6629
-42.4073
-42.9897
-43.3802
-44.2113
-42.2728
-47.9097
-48.9807
-48.9173
-54.2715
-41.4676
-40.1101
-39.8007
-40.7527
-43.6588
-44.3213
-43.9482
-44.276
-43.5742
-43.9393
-43.0198
-44.8309
-41.4753
-39.639
-51.0116
-23.8655
-50.9399
-46.339
-47.7507
-48.1443
-68.0131
-63.4817
-62.0814
-80.6985
6.07728
22.6123
21.4631
7.63413
-51.1748
-49.7818
-50.1089
-52.655
-49.8596
-47.6046
-49.0021
-47.9646
-56.8121
-57.7115
-56.6714
-61.3117
-63.9481
-70.1727
-70.3758
-65.5944
-42.9124
-45.428
-43.854
-44.3375
-43.0019
-43.389
-44.2376
-42.2616
-39.7211
-38.9936
-38.6395
-39.6146
-44.5798
-45.1844
-49.4973
-41.8103
-47.0728
-48.954
-48.1221
-54.1087
-43.3835
-43.8435
-42.8941
-44.7168
-41.0886
-39.8869
-40.2394
-40.5363
-42.9632
-43.4532
-43.3602
-43.2088
-41.3647
-39.7588
-51.1977
-23.7562
6.07025
22.6072
21.5556
7.54619
-50.5057
-46.256
-47.9168
-48.2161
-68.4469
-63.0797
-61.5665
-80.5879
-50.5271
-49.2649
-49.6141
-52.1627
-63.3746
-69.9359
-70.2255
-65.2618
-49.3976
-46.978
-48.4559
-47.4332
-56.4524
-57.2985
-56.4359
-60.895
-69.134
-94.5345
-87.9347
-92.9113
176.137
193.221
184.519
184.736
-77.8794
-68.2297
-72.2692
-72.2441
196.289
188.597
191.695
192.255
-63.3513
-64.8506
-71.5094
-59.3864
-56.1305
-57.233
-60.9514
-53.4686
-52.6249
-50.9797
-52.8636
-53.7184
-39.0738
-38.5382
-40.2435
-37.9444
-49.8325
-49.6271
-49.7763
-49.8779
-41.253
-40.6665
-40.7821
-40.701
-45.0283
-45.6022
-44.8011
-46.0833
-47.9714
-49.4212
-49.0245
-48.9897
-29.9982
-14.9014
-23.7294
-23.726
151.203
166.917
165.339
166.047
-68.9937
-66.6269
-62.0364
-74.9409
-20.917
-16.5856
-23.2134
-11.8207
-34.6531
-39.1652
-36.3052
-35.9733
-36.6714
-37.0217
-37.0173
-37.2506
-48.1315
-47.5129
-48.9886
-46.6292
-49.5254
-48.6404
-51.5537
-46.6894
-66.2515
-94.4658
-80.3678
-86.3942
175.617
194.082
185.477
184.919
-65.7747
-66.8257
-75.3184
-60.0546
-56.3536
-57.1777
-61.1048
-53.4536
-51.0949
-51.0747
-52.6635
-52.6528
-38.0713
-37.881
-39.8028
-36.7359
-44.9071
-45.2642
-44.6327
-45.9133
-48.09
-49.3391
-48.9289
-48.9192
-67.6061
-68.4116
-75.9176
-63.1962
-20.9849
-16.8576
-11.8012
-23.2815
-47.621
-47.2217
-46.1344
-48.4017
-48.8316
-48.172
-45.9756
-51.0735
-40.1253
-41.0643
-40.2619
-40.9384
-39.8593
-40.2244
-40.0402
-40.2137
-48.8824
-52.6595
-50.0733
-50.7323
-43.014
-43.3889
-42.312
-44.7601
-46.3072
-49.1787
-46.9849
-46.9682
-41.4647
-40.6838
-40.9682
-40.9622
-46.0758
-45.1868
-45.1094
-46.6835
-44.8358
-44.97
-44.8348
-45.2378
-41.9592
-41.0474
-41.3679
-41.3955
-47.1529
-50.4474
-48.5404
-48.514
-52.3284
-48.3427
-50.1526
-50.262
-88.9727
-92.9126
-87.8324
-87.5222
16.4555
6.18055
11.3123
11.3346
-13.8586
-49.8813
-31.0606
-30.6896
-83.8694
-92.4117
-87.9992
-87.9236
-62.8261
-56.6105
-59.6128
-59.5308
-39.6098
-40.7649
-39.8028
-40.6753
-39.7551
-40.1675
-39.9628
-40.1264
-50.3453
-53.8165
-51.8867
-51.1734
-42.6527
-43.0202
-41.9129
-44.4435
-45.62
-44.7789
-46.2402
-44.6538
-43.9418
-44.031
-43.6023
-44.4604
-51.781
-47.8419
-49.928
-49.6611
-89.2265
-92.6895
-87.8195
-86.8886
-76.2506
-75.8174
-80.0182
-90.4782
-48.5231
-46.8529
-51.1524
-49.2562
-53.8868
-55.0374
-54.0791
-51.9379
-61.3416
-64.8588
-84.4593
-84.5017
-69.6806
-71.1557
-73.2393
-90.1213
-57.7267
-62.7715
-80.7428
-80.795
-54.7291
-54.9655
-55.8084
-53.2102
-49.9203
-48.3641
-52.2453
-50.7123
-77.7731
-72.68
-71.8056
-67.8485
-77.6922
-72.5767
-71.7904
-67.8399
-45.7946
-45.6626
-48.4135
-46.5901
-45.6641
-45.5795
-48.312
-46.5244
-36.3914
-34.4404
-29.1855
-30.8884
-0.64376
10.1092
-1.08351
8.38147
-0.605558
10.182
-1.04124
8.38875
-36.4919
-34.231
-29.5122
-30.5367
177.664
185.264
177.597
187.786
122.837
110.537
154.37
148.092
112.344
123.731
149.606
154.93
185.999
177.912
187.995
178.161
-39.5709
-39.7921
-40.3152
-40.8518
-42.8471
-43.9202
-42.2296
-43.8448
-50.165
-52.107
-49.2196
-50.2741
-50.9947
-54.4508
-48.7097
-50.8214
-39.2214
-39.4902
-39.7957
-40.3785
-50.9135
-54.2992
-48.4671
-50.5707
-49.6809
-51.6514
-48.6707
-49.8187
-42.3185
-43.4296
-41.6955
-43.3283
-40.3616
-41.0478
-40.3111
-40.7881
-41.0048
-40.2927
-40.7569
-40.2483
-41.6144
-40.9115
-41.2461
-40.6883
-41.0503
-41.7294
-40.7886
-41.3221
-67.6043
-30.6563
-59.303
-35.6876
-72.8205
-75.6547
-82.3881
-84.4131
-75.2815
-72.2232
-84.1798
-82.122
-31.2912
-65.1203
-35.7599
-59.5515
-44.4859
-44.9288
-43.9561
-44.3468
-54.5712
-51.2234
-52.405
-49.0037
-50.1909
-49.9251
-52.0229
-51.9189
-48.3017
-47.6602
-47.0665
-46.3633
-43.4447
-42.8436
-43.8274
-43.1402
-48.0441
-47.1275
-46.5959
-45.7155
-48.6613
-48.6417
-50.7287
-50.7585
-54.6064
-51.8371
-52.7449
-48.9388
-49.3044
-47.2874
-50.0914
-48.4977
-49.1692
-47.1606
-50.0077
-48.4168
-49.6979
-49.188
-49.5149
-48.867
-50.2113
-49.8868
-49.8856
-49.3254
-58.3648
-61.0492
-56.2845
-59.0722
-36.3544
-39.5401
-37.5632
-41.7916
-35.1869
-38.2563
-36.6853
-40.7627
-57.9757
-60.6875
-55.9222
-58.8251
-40.5871
-41.1719
-40.5582
-40.6926
-40.6682
-40.1583
-40.4307
-40.2721
-35.0115
-36.725
-36.387
-36.9966
-38.3588
-36.8223
-38.2389
-37.4215
-63.3662
65.1454
-106.374
12.5653
-89.842
-89.7286
-52.3573
-42.7183
-50.4232
-46.7103
-54.8318
-51.2493
-28.7301
44.7527
-32.8114
26.7821
-43.0101
-38.4448
-44.4623
-38.9458
-36.4607
-37.231
-45.2601
-39.3769
-106.191
18.8406
-64.7677
71.0325
-87.0358
-90.1229
-48.6862
-44.4125
-50.4275
-41.7256
-54.2257
-49.8697
-33.1752
26.0044
-28.6133
44.942
-42.53
-38.3446
-34.7387
-34.647
-42.7016
-37.1643
-43.2249
-37.5842
-40.1692
-42.7763
-39.8532
-40.8043
-47.0718
-43.0949
-43.2076
-41.7463
-49.2636
-46.1968
-43.5963
-41.905
-43.4964
-43.1156
-42.7799
-44.8817
-53.8658
-28.546
-49.7295
-54.7985
-62.8443
-88.7412
-8.32401
-39.414
-51.7005
-53.6341
-52.6854
-51.3712
-55.1349
-58.6649
-60.567
-57.4382
-40.8499
-42.9791
-43.2347
-41.7077
-39.4864
-40.6771
-47.2582
-42.1455
-48.9973
-45.821
-42.5669
-44.6316
-42.5234
-41.698
-42.9487
-42.7337
-54.2329
-27.7602
-8.13804
-37.961
-49.5507
-54.5622
-63.1697
-90.1199
-51.2823
-53.1347
-60.1169
-56.9271
-52.2332
-50.9214
-54.7305
-58.3455
-31.6624
109.928
-18.6957
90.0101
-56.6918
-49.5691
149.685
142.781
-100.783
93.3336
-100.748
92.7124
-87.2115
-87.1303
131.386
131.051
-80.8604
-63.9584
-50.9694
-48.4906
-70.2941
-56.9492
-60.0439
-52.2516
-48.4165
-41.2245
-45.701
-39.4186
-51.4292
-49.1693
-40.4498
-38.6372
-48.1878
-44.5766
-47.9192
-44.3084
-49.0911
-49.2193
-42.9468
-42.8164
-44.5518
-45.8308
-43.932
-45.1302
-43.9989
-44.9539
-46.1403
-46.7122
-35.7161
-16.7167
-35.5054
-16.7516
-34.6274
-34.6335
102.897
102.584
-45.1352
-38.05
-51.0409
-27.262
-58.668
-69.7924
-29.2409
-21.8261
-33.5575
-32.0447
-32.5093
-30.1794
-33.875
-33.4725
-33.1772
-33.8963
-47.8029
-47.4241
-49.302
-50.6385
-48.4196
-48.0606
-51.2977
-47.8276
-25.5422
112.432
-15.4615
89.7322
-56.521
-49.8645
142.25
149.734
-82.1271
-63.4424
-50.1174
-48.7205
-71.9847
-57.1135
-60.2407
-52.4338
-46.7867
-40.4525
-43.9908
-38.0483
-47.5634
-49.7978
-39.8962
-37.2661
-44.8895
-45.7509
-44.1581
-44.9109
-44.0781
-45.019
-45.2904
-47.4639
-46.2749
-38.4576
-50.9568
-27.3355
-70.523
-59.5749
-21.8141
-29.4084
-46.6741
-46.3113
-48.6603
-50.0235
-47.3653
-47.6205
-46.9468
-50.7236
-38.2314
-39.2924
-39.1681
-39.8263
-39.0984
-39.9549
-39.5266
-39.7664
-50.0743
-42.5745
-48.6112
-44.3775
-49.737
-50.9531
-41.2765
-43.2475
-44.4446
-42.6553
-44.4605
-42.6517
-45.6131
-45.6012
-42.0788
-42.0495
-44.6427
-44.4285
-46.8941
-46.2507
-45.28
-46.5482
-44.54
-45.4009
-43.1843
-44.9454
-43.1461
-44.8842
-42.4635
-42.5485
-45.8513
-45.8161
-59.6481
-71.8638
-57.2747
-63.0643
-54.8243
-55.8591
-83.2111
-72.289
27.8607
15.5691
27.8767
15.5484
24.9865
25.018
-0.685279
-0.649259
-74.8284
-68.299
-74.6653
-68.1501
-79.2501
-79.1684
-65.8446
-65.7486
-38.0397
-39.1504
-38.8781
-39.5952
-38.6638
-39.4745
-39.4018
-39.6308
-49.6354
-42.1073
-48.4067
-44.1549
-51.1933
-50.6115
-40.8449
-42.9421
-43.9597
-43.4953
-46.3788
-45.5634
-45.9267
-44.6443
-43.6102
-44.6333
-59.438
-71.5679
-56.9839
-62.7885
-55.4789
-54.4333
-72.1154
-82.7734
-85.0798
-83.1808
-72.0006
-60.3358
-60.5664
-71.0954
-55.6943
-56.3007
-88.4755
-84.0941
-75.0811
-61.1899
-74.3262
-61.3197
-57.6576
-56.8153
-64.8135
-64.8259
-61.4322
-53.9926
-61.4659
-53.9854
-51.3855
-51.4058
-25.7198
-26.2221
-26.8493
-8.86185
-8.86007
-26.8649
-0.456713
-0.442418
192.682
200.51
185.454
185.512