# vtk DataFile Version 2.0
tri_press
ASCII
DATASET UNSTRUCTURED_GRID
POINTS 3682 float
-0.700487 0.245 -2.095
-0.610539 0.295 2.195
-0.775 0.753371 -1.935
-0.655 1.07131 2.115
0.70046 0.245 -2.095
0.610806 0.295 2.195
0.775 0.753371 -1.935
0.655 1.07168 2.115
-0.72179 0.210381 -0.665
-0.691898 0.226957 0.765
-0.82402 0.94837 -0.585
-0.775426 1.04576 0.765
0.721831 0.210411 -0.665
0.693962 0.225062 0.765
0.824069 0.948543 -0.585
0.775498 1.04607 0.765
-1.45608 -0.169734 -3.24152
-1.45811 -0.114803 -2.12956
-1.46048 -0.13588 -0.697487
-1.41323 -0.145533 0.750682
-1.34102 -0.100935 2.18411
-1.32719 -0.0545267 3.30271
-1.33723 -0.00758431 4.40901
-1.46156 0.150761 -3.19027
-1.47018 0.230638 -2.08705
-1.47962 0.233576 -0.670552
-1.41499 0.241572 0.753151
-1.31486 0.288753 2.17119
-1.30898 0.334583 3.28866
-1.32803 0.380299 4.39757
-1.49532 0.744461 -3.06534
-1.53375 0.821171 -1.95881
-1.55995 0.960207 -0.596849
-1.48423 1.03873 0.759448
-1.36027 1.07422 2.12295
-1.33577 1.11634 3.24373
-1.34458 1.16014 4.36554
-1.51139 1.77037 -2.93809
-1.53064 1.8672 -1.84355
-1.5428 2.03076 -0.507519
-1.52235 2.16783 0.811265
-1.47574 2.24554 2.14813
-1.44034 2.28765 3.24442
-1.4195 2.32702 4.3575
-0.711714 -0.162499 -3.24668
-0.712005 -0.103632 -2.13708
-0.723538 -0.146565 -0.696477
-0.706645 -0.157644 0.760795
-0.661191 -0.101469 2.20179
-0.646653 -0.0552238 3.3147
-0.650778 -0.009186 4.41596
-0.708152 0.150013 -3.19186
-0.625938 0.335265 3.29855
-0.641332 0.379316 4.40281
-0.732116 0.716307 -3.05545
-0.644932 1.11578 3.24214
-0.652558 1.15964 4.3652
-0.748437 1.74985 -2.92831
-0.764024 1.8472 -1.83277
-0.782498 2.02441 -0.501023
-0.784281 2.17189 0.810485
-0.760831 2.24951 2.14256
-0.732789 2.28984 3.23886
-0.713565 2.32823 4.35346
0.74555 -0.16252 -3.24668
0.718857 -0.103648 -2.13708
0.718317 -0.146761 -0.696477
0.68375 -0.158895 0.760796
0.632024 -0.101927 2.20179
0.667884 -0.0555125 3.3147
0.697746 -0.00947056 4.41596
0.754337 0.150008 -3.19186
0.67215 0.335128 3.29855
0.701839 0.379098 4.40281
0.781116 0.716314 -3.05545
0.685174 1.11582 3.24214
0.704821 1.15952 4.3652
0.780309 1.74985 -2.92831
0.778113 1.84723 -1.83277
0.759192 2.02446 -0.501023
0.715276 2.17192 0.810485
0.679611 2.24951 2.14256
0.680887 2.28979 3.23886
0.692853 2.32811 4.35346
1.48118 -0.169793 -3.24151
1.45938 -0.114862 -2.12956
1.45485 -0.136303 -0.697487
1.40359 -0.147183 0.750682
1.33356 -0.10201 2.18411
1.3492 -0.0552165 3.30271
1.38091 -0.00818994 4.40901
1.49154 0.150744 -3.19027
1.46733 0.230658 -2.08705
1.47718 0.233415 -0.670553
1.42075 0.239899 0.753151
1.32623 0.287905 2.17119
1.34767 0.33409 3.28866
1.38225 0.379802 4.39757
1.52817 0.744479 -3.06534
1.53252 0.821244 -1.95881
1.55706 0.960376 -0.596849
1.48615 1.0385 0.759448
1.36726 1.07402 2.12295
1.36758 1.11617 3.24373
1.39047 1.15983 4.36554
1.53782 1.77037 -2.93809
1.53872 1.86723 -1.84355
1.51961 2.03081 -0.50752
1.46462 2.16781 0.811265
1.40937 2.24545 2.14813
1.39581 2.28748 3.24442
1.40069 2.32676 4.3575
-0.767009 0.499186 -2.04427
-1.35005e-05 0.212529 -2.12747
-0.735097 0.203732 -1.38
-0.662815 0.683155 2.18505
0.000133485 0.301758 2.18824
-0.655659 0.256538 1.48
0 0.862779 -2.04441
-0.836715 0.888076 -1.26
0 1.12053 2.16403
-0.738233 1.08155 1.44
0.766982 0.499186 -2.04425
0.735119 0.203732 -1.38
0.662946 0.68334 2.18504
0.65595 0.256465 1.48
0.836697 0.888119 -1.26
0.738302 1.08193 1.44
-0.707109 0.218404 0.05
-0.864925 0.579376 -0.625
2.04692e-05 0.208218 -0.665
-0.869144 0.636357 0.765
0.00103209 0.203563 0.765
-0.802586 0.999927 0.09
2.47507e-05 1.31659 -0.585
3.57089e-05 1.48263 0.765
0.70757 0.218063 0.05
0.8651 0.579477 -0.625
0.869293 0.635568 0.765
0.802603 1.00013 0.09
-0.894733 0.539281 -1.32
0.894733 0.539331 -1.32
3.48438e-06 0.203156 -1.38
1.23754e-05 0.978127 -1.26
-6.75023e-06 0.499186 -2.34122
-0.861547 0.607866 0.07
0.861883 0.607523 0.07
0.000526277 0.215395 0.05
3.02298e-05 1.48049 0.09
-0.879593 0.659756 1.46
0.879523 0.659454 1.46
0.000582785 0.252585 1.48
1.78545e-05 1.34494 1.44
6.67423e-05 0.683247 2.30542
-0.737115 0.372093 -2.073
-0.35025 0.212768 -2.12723
-0.739005 0.203153 -1.7375
-0.664343 0.489078 2.21769
-0.305203 0.301824 2.18818
-0.629367 0.279501 1.8375
-0.779199 0.626278 -1.99783
-0.3875 0.842652 -2.02428
-0.829106 0.843972 -1.5975
-0.670147 0.877233 2.16126
-0.3275 1.11302 2.15662
-0.696714 1.07653 1.7775
0.350223 0.212735 -2.12727
0.737057 0.372093 -2.07296
0.739003 0.203153 -1.7375
0.30547 0.301955 2.18804
0.664465 0.48917 2.21761
0.629601 0.279509 1.8375
0.3875 0.842674 -2.0243
0.7792 0.626278 -1.99784
0.829176 0.844073 -1.5975
0.3275 1.11304 2.15646
0.670087 0.87751 2.16114
0.696641 1.07679 1.7775
-0.730858 0.204642 -1.0225
-0.716876 0.211966 -0.3075
-0.82963 0.376742 -0.645
-0.361097 0.208876 -0.665
-0.671557 0.243969 1.1225
-0.701458 0.220726 0.4075
-0.863498 0.390168 0.765
-0.343983 0.218161 0.765
-0.834212 0.922068 -0.9225
-0.866409 0.774841 -0.605
-0.813473 0.974318 -0.2475
-0.48942 1.28733 -0.585
-0.762657 1.06948 1.1025
-0.856424 0.858126 0.765
-0.788395 1.02223 0.4275
-0.487811 1.46443 0.765
0.730905 0.204642 -1.0225
0.361145 0.208876 -0.665
0.716973 0.211965 -0.3075
0.829814 0.37677 -0.645
0.685604 0.230115 1.1225
0.345727 0.217852 0.765
0.703581 0.218748 0.4075
0.861553 0.390352 0.765
0.834279 0.922227 -0.9225
0.48943 1.28733 -0.585
0.866575 0.775006 -0.605
0.813497 0.974497 -0.2475
0.762704 1.06981 1.1025
0.487594 1.46401 0.765
0.856643 0.857945 0.765
0.788415 1.02247 0.4275
-0.885555 0.519233 -1.68213
-0.383508 0.499186 -2.28988
-5.00804e-06 0.204146 -1.75374
-1.01253e-05 0.355857 -2.1865
-0.893347 0.371506 -1.35
-0.367547 0.201424 -1.38
-0.822031 0.671455 1.82252
-0.331374 0.683201 2.28329
0.000358135 0.271844 1.83412
0.000100113 0.492503 2.34241
-0.873439 0.458147 1.47
-0.327538 0.253747 1.48
6.18768e-06 0.948184 -1.6522
-3.37511e-06 0.680982 -2.15695
-0.895369 0.713678 -1.29
-0.418351 0.984782 -1.26
8.92723e-06 1.21393 1.80202
3.33712e-05 0.901888 2.25151
-0.842344 0.870655 1.45
-0.369108 1.32652 1.44
0.885551 0.519258 -1.68213
0.383488 0.499186 -2.28993
0.893378 0.371532 -1.35
0.367561 0.201424 -1.38
0.822299 0.671397 1.82252
0.331506 0.683294 2.28321
0.866782 0.457959 1.47
0.328267 0.253749 1.48
0.89537 0.713725 -1.29
0.418354 0.984779 -1.26
0.842441 0.870692 1.45
0.36916 1.32651 1.44
-0.826657 0.391971 0.06
-0.353699 0.216085 0.05
-0.869272 0.559328 -0.9725
-0.863379 0.593621 -0.2775
1.19768e-05 0.202238 -1.0225
0.000273373 0.208294 -0.3075
-0.864855 0.622112 0.4175
-0.884178 0.648056 1.1125
0.000779181 0.21499 0.4075
0.000807435 0.220466 1.1225
-0.859876 0.817801 0.08
-0.510666 1.45898 0.09
1.85631e-05 1.13981 -0.9225
2.74903e-05 1.43852 -0.2475
3.29694e-05 1.49022 0.4275
2.67817e-05 1.43729 1.1025
0.826779 0.391767 0.06
0.354369 0.216087 0.05
0.869258 0.559404 -0.9725
0.863552 0.5935 -0.2775
0.864984 0.621546 0.4175
0.884181 0.647511 1.1125
0.860069 0.817739 0.08
0.510605 1.45888 0.09
-0.884562 0.371799 -1.70982
-0.868191 0.383192 -0.9975
-0.870475 0.738776 -0.9475
-0.885291 0.669978 -1.63982
0.884568 0.371812 -1.70981
0.885289 0.670002 -1.63981
0.870647 0.738868 -0.9475
0.868217 0.383238 -0.9975
-0.358899 0.20106 -1.74562
0.358892 0.20106 -1.74562
0.364243 0.201839 -1.0225
-0.364216 0.201838 -1.0225
-0.402926 0.938079 -1.62485
-0.415174 1.10992 -0.9225
0.415201 1.1099 -0.9225
0.402927 0.938085 -1.62485
-0.366879 0.363975 -2.15488
-0.385504 0.65363 -2.22305
0.385494 0.65363 -2.22338
0.366856 0.363975 -2.15483
-0.828344 0.384256 -0.2925
-0.832388 0.397415 0.4125
-0.858674 0.838226 0.4225
-0.863216 0.796358 -0.2625
0.828495 0.384169 -0.2925
0.863388 0.796405 -0.2625
0.858874 0.838101 0.4225
0.832497 0.396894 0.4125
-0.3586 0.210076 -0.3075
0.358959 0.210078 -0.3075
0.349988 0.217089 0.4075
-0.348858 0.217088 0.4075
-0.520225 1.41352 -0.2475
-0.503617 1.47046 0.4275
0.503398 1.47004 0.4275
0.519957 1.41299 -0.2475
-0.871012 0.444902 1.1175
-0.814366 0.473612 1.83001
-0.809054 0.873944 1.80001
-0.854282 0.855856 1.1075
0.871442 0.444137 1.1175
0.854158 0.855757 1.1075
0.809166 0.874101 1.80001
0.814645 0.473565 1.83001
-0.336486 0.220223 1.1225
0.337882 0.220192 1.1225
0.316868 0.271767 1.83581
-0.31637 0.271761 1.83581
-0.378402 1.42621 1.1025
-0.348304 1.19673 1.78976
0.34833 1.19676 1.78976
0.378463 1.4258 1.1025
-0.318288 0.49079 2.31942
0.318488 0.490836 2.31942
0.329503 0.889699 2.26168
-0.329437 0.88956 2.26167
-0.720437 0.308546 -2.08564
-0.525369 0.214038 -2.12596
-0.740667 0.203156 -1.91625
-0.649862 0.392039 2.21877
-0.457871 0.301298 2.1887
-0.621687 0.285517 2.01625
-0.781703 0.689825 -1.97102
-0.58125 0.805623 -1.98725
-0.810516 0.807134 -1.76625
-0.67063 0.974271 2.14619
-0.49125 1.09946 2.1431
-0.675659 1.07372 1.94625
0.525342 0.214023 -2.12598
0.720419 0.308546 -2.08564
0.740652 0.203156 -1.91625
0.458138 0.301666 2.18833
0.650131 0.392085 2.2188
0.621572 0.285886 2.01625
0.58125 0.805629 -1.98726
0.781851 0.689825 -1.97117
0.810511 0.807145 -1.76625
0.49125 1.09954 2.14291
0.670715 0.974595 2.14624
0.675499 1.07392 1.94625
-0.725014 0.208821 -0.84375
-0.719175 0.211331 -0.48625
-0.830753 0.26604 -0.655
-0.541594 0.209327 -0.665
-0.682882 0.234308 0.94375
-0.692077 0.228443 0.58625
-0.825774 0.284525 0.765
-0.519152 0.220136 0.765
-0.82915 0.935253 -0.75375
-0.855354 0.866676 -0.595
-0.818736 0.961334 -0.41625
-0.697671 1.19975 -0.585
-0.769484 1.05806 0.93375
-0.836299 0.962129 0.765
-0.781583 1.03367 0.59625
-0.664516 1.32089 0.765
0.725073 0.208821 -0.84375
0.541642 0.209335 -0.665
0.71926 0.21133 -0.48625
0.830777 0.266113 -0.655
0.680636 0.236736 0.94375
0.520779 0.219588 0.765
0.693161 0.227515 0.58625
0.825562 0.283805 0.765
0.829199 0.93541 -0.75375
0.697804 1.20005 -0.585
0.855518 0.866873 -0.595
0.818758 0.961495 -0.41625
0.769543 1.05838 0.93375
0.664595 1.32114 0.765
0.836504 0.962227 0.765
0.781612 1.03393 0.59625
-0.754154 0.435639 -2.06072
-0.774433 0.562732 -2.02238
-0.838295 0.509209 -1.8632
-0.575258 0.499186 -2.21407
-0.175132 0.212599 -2.1274
0.175105 0.212589 -2.12741
[...]
POINT_DATA 3682
SCALARS point_scalars float 1
LOOKUP_TABLE default
-67.8419
-39.7563
-63.6389
-38.1131
-67.8816
-40.0995
-63.7005
-38.1004
-39.1882
-38.0803
-60.765
-50.7917
-39.2042
-38.5054
-60.8289
-50.8169
-47.7079
-66.0124
-39.6511
-35.3733
-42.8452
-35.9076
-33.6136
11.9132
-72.5104
-39.6988
-38.5296
-42.3244
-34.8133
-33.6136
32.0133
-74.8785
-54.5234
-46.8884
-41.8495
-36.9724
-33.6378
-34.8244
-63.1612
-93.2045
-62.6185
-38.803
-38.208
-35.0424
101.833
-132.281
-39.588
-38.2431
-39.6917
-32.922
-30.8436
101.833
-32.4671
-30.3972
167.419
-34.4647
-34.1386
-1.24184
-36.8416
-85.575
-62.114
-41.6856
-34.902
-34.8887
94.393
-130.73
-39.5907
-38.6294
-39.5861
-33.0914
-31.3664
101.908
-32.4933
-31.6331
162.265
-34.4989
-34.1666
2.61232
-36.7512
-85.9249
-62.0977
-41.5961
-34.8969
-34.822
-47.8944
-66.002
-39.6481
-35.5969
-42.7436
-36.3688
-33.6223
11.6547
-72.524
-39.6941
-38.2759
-42.3331
-34.8142
-33.6223
31.8842
-74.7782
-54.5465
-46.9201
-41.8738
-36.9608
-33.6291
-34.8452
-63.0326
-93.5541
-62.6413
-38.7771
-37.7368
-35.0419
-45.5723
-130.14
-57.213
-35.3657
-31.6691
-40.0844
-86.8556
-54.2711
-35.9118
-50.0675
-45.619
-57.2007
-35.3574
-40.0696
-54.1406
-50.0604
-35.1385
-43.4164
-39.9172
-40.0231
-41.6584
-53.9828
-26.9151
-69.0834
-35.0475
-43.4282
-40.1262
-54.024
-65.8443
-65.7236
-56.5735
5.77046
203.694
-40.2087
-40.2335
-35.2329
-88.7005
-51.1278
-50.4907
-38.1034
-46.5415
-26.8693
-44.148
-135.158
-81.8695
-35.3982
-34.6814
-39.6825
-49.9198
-42.3766
-63.02
-36.0767
-35.4847
-42.8409
-135.252
-44.2363
-81.8481
-34.7144
-35.3964
-39.662
-40.8415
-50.7886
-62.9617
-35.4793
-36.0774
-42.8336
-45.9334
-36.599
-40.0613
-39.7946
-41.8219
-36.1614
-35.9954
-39.3178
-60.9098
-50.0502
-57.1462
-31.3632
-51.5644
-45.3871
-51.6529
-64.7965
-45.9325
-39.7932
-36.5901
-40.0634
-41.75
-39.419
-35.9761
-35.9411
-60.934
-31.6273
-50.0762
-57.1881
-51.5789
-64.8401
-45.4313
-51.6327
-93.3302
174.834
-75.9744
188.551
-65.6927
-56.4372
-44.9916
-32.4337
-36.4897
-22.0226
-49.2117
-38.4514
-25.1761
138.098
-65.1415
-2.91193
-39.1658
-29.2232
-49.2174
-47.1509
-93.2898
174.487
-65.631
-56.4376
-45.007
-32.4281
-48.7121
-38.4929
-65.0565
-2.54221
-49.0769
-47.1596
-37.4899
-35.2532
-49.6822
-41.8124
-46.8491
-37.3545
-39.5127
-45.3757
-35.4099
-41.5273
-45.6113
-77.1777
23.4955
-90.8451
-77.248
-58.2071
-37.5065
-35.2165
-49.6336
-41.8137
-39.549
-45.7505
-45.6172
-77.3638
-99.7183
-49.6978
-51.6442
-77.1936
-99.68
-77.1519
-51.5846
-49.6602
-75.9334
-75.9339
-46.6871
-46.691
-28.4665
16.969
18.1209
-28.4002
170.372
122.485
120.396
170.303
-38.5874
-36.5002
-44.5974
-47.8844
-38.591
-47.9006
-44.6431
-36.5521
-37.1132
-37.1108
-35.8583
-35.9426
-89.41
-69.7175
-69.7186
-88.9658
-44.156
-44.4379
-44.5306
-47.6285
-45.0668
-47.6499
-44.4973
-44.5203
-41.8025
-41.8878
-37.1975
-37.2115
-58.6098
-39.8521
-39.8521
-58.6272
-30.3861
-30.3814
-32.6234
-32.6237
-44.3836
-139.402
-100.248
-36.5815
-38.8268
-40.0569
-51.4605
-44.3651
-64.0102
-37.3127
-35.7671
-39.6268
-139.616
-44.4739
-100.226
-38.867
-36.5686
-39.9137
-43.9756
-51.426
-63.9211
-35.7608
-37.3054
-39.606
-41.9378
-37.2627
-38.7606
-39.379
-41.4754
-36.1094
-33.9639
-38.5232
-64.3829
-54.7296
-59.0516
-89.5823
-51.1989
-48.2675
-50.8156
-57.8109
-41.9308
-39.3858
-37.2777
-38.7622
-40.2115
-38.6639
-35.9861
-34.7907
-64.4088
-89.762
-54.7657
-59.1008
-51.232
-57.8299
-48.3036
-50.8355
-44.2432
-44.8625
-69.2606
117.429
-129.73
-129.878
-94.137
104.022
-66.5882
-50.911
-64.2445
-56.4103
-35.2582
-35.3756
-41.8653
-33.8972
-32.5444
-32.5931
-34.5452
-24.938
-42.1453
-41.0512
-47.3146
-38.8647
-70.2224
-54.353
-44.3125
146.035
-56.6867
-55.8504
-62.8793
-14.3977
-35.7791
-35.776
-37.1565
-31.5645
-46.8296
-52.0584
-49.0963
-48.8431
-44.3106
-44.9067
-69.2927
117.256
-66.5709
-50.9062
-64.2044
-56.4071
-35.2532
-35.3606
-41.8731
-33.8938
-41.7494
-42.1322
-48.0553
-38.9029
-57.9461
-55.749
-62.8008
-14.1362
-46.8109
-52.0494
-49.0295
-48.8481
-35.869
-35.301
-36.2151
-35.1641
-41.3141
-46.2025
-45.2231
-42.4948
-39.9292
-39.856
-43.2351
-38.237
-37.869
-42.6336
-39.5655
-41.3322
-40.5128
-40.7359
-37.3157
-39.9237
-55.6155
-52.4608
-49.3237
-62.4388
-27.9265
-27.9305
6.28525
-67.9897
-67.4052
-68.5015
-73.1741
-64.6435
-35.8652
-35.2088
-36.1955
-35.1262
-41.3228
-46.2203
-45.2258
-42.5049
-37.9085
-42.7002
-39.6234
-41.3273
-55.6603
-52.4686
-49.3423
-62.489
-78.2028
-66.0354
-65.7344
-57.4644
-78.2569
-65.9157
-65.6524
-57.4007
-64.5055
-56.4428
-56.4432
-50.9496
-9.3106
3.98108
4.5376
18.894
198.958
187.36
149.421
199.194
-38.3635
-41.0415
-39.643
-42.5859
-38.388
-41.0539
-39.6833
-42.6299
-35.2403
-36.3705
-35.2044
-35.2141
-86.3679
-95.5715
-83.629
-86.4788
-48.3021
-49.5813
-50.7714
-47.6221
-48.154
-49.0318
-50.4918
-47.4934
-38.4249
-38.1742
-38.1925
-41.0627
-42.228
-46.7078
-46.7169
-52.12
-28.9834
-23.243
-27.8495
-28.9892
-54.0164
121.915
-94.91
99.7601
-95.1919
-76.9284
-41.31
-32.9722
-36.0173
-30.886
-44.1734
-38.0949
-75.8348
71.6464
-42.766
63.081
-68.9244
-37.3575
-42.4313
-34.0293
-37.4345
-34.034
-43.9585
-40.766
-94.9318
99.7371
-54.0616
122.058
-95.5603
-76.9224
-36.014
-30.8825
-41.3438
-32.974
-44.1773
-38.0798
-42.2725
61.54
-75.7871
71.4528
-68.8836
-37.2576
-37.4323
-34.0591
-42.4211
-34.0285
-43.9293
-40.7609
-48.9114
-46.4219
-37.1092
-36.8644
-43.7972
-39.1667
-43.0461
-37.9551
-42.6503
-41.7667
-35.7794
-36.1018
-35.5416
-39.7306
-37.288
-39.9727
-56.2791
-6.73589
-50.694
-49.0257
-51.6341
-73.9873
-0.98327
-73.2168
-49.2194
-58.81
-44.7775
-46.0746
-48.205
-58.2689
-67.3112
-63.9484
-48.884
-46.4251
-43.0451
-37.9579
-37.1029
-36.8703
-43.7846
-39.1678
-43.0406
-42.082
-37.3727
-39.969
-35.851
-36.0086
-35.6413
-39.8778
-56.2292
-6.59963
-0.526036
-73.9972
-50.7062
-49.0498
-51.6745
-74.0316
-49.2102
-58.8465
-67.3998
-63.9755
-44.8155
-46.1285
-48.2295
-58.2903
-95.4036
-87.1004
167.621
152.791
-75.5917
-75.5744
184.275
184.237
-77.3752
-58.0168
-64.3531
-50.788
-44.7507
-44.9512
-31.1029
-31.9145
-36.7198
-36.7253
-25.4784
-25.4745
-45.0957
-49.2826
-41.3593
-39.1776
-25.3024
-25.1049
131.521
138.358
-55.5413
-76.1553
-14.9469
10.312
-39.4351
-39.4308
-30.7313
-30.736
-46.9523
-49.6014
-52.8377
-42.8534
-95.4
-87.0218
151.746
167.597
-77.3416
-57.9733
-64.3564
-50.7858
-44.9315
-44.791
-31.098
-31.917
-45.0785
-48.846
-41.463
-39.163
-76.0794
-55.4971
11.2286
-14.8758
-49.4945
-46.8708
-42.8566
-52.8741
-38.1066
-36.7888
-36.2618
-35.3921
-50.2857
-49.7344
-39.8112
-44.4825
-46.8371
-46.8484
-37.2738
-37.2644
-37.6058
-41.781
-44.9341
-45.9701
-35.4849
-35.6303
-41.6047
-41.6438
-44.8906
-46.6334
-85.4437
-73.815
22.4187
23.6488
-89.0666
-89.2485
-75.5344
-75.5218
-58.3854
-58.3858
-38.0993
-36.8157
-36.2451
-35.3262
-49.6463
-50.2392
-39.8151
-44.4735
-41.8228
-37.6503
-45.494
-46.0952
-46.674
-44.9234
-74.002
-85.7937
-49.3293
-75.3459
-78.7493
-62.6541
-44.1581
-43.7252
-58.1119
-58.103
-56.2624
-56.8113
-56.1887
-47.3203
-74.8228
-72.8411
-77.1123
-69.892
-49.3698
-62.6779
-78.7298
-75.318
-74.7228
-69.7617
-77.0619
-72.8926
-56.2868
-47.3278
-56.1244
-56.736
-44.132
-58.0985
-58.0549
-43.7249
-96.4699
-93.954
-64.2842
-64.6487
-96.4904
-64.6428
-64.3001
-93.923
-42.7509
-43.1744
-50.7723
-50.6524
-42.7562
-50.6517
-50.7846
-43.1903
-46.4011
-26.9643
-10.1185
-42.6627
-77.5352
6.89979
15.737
-5.32049
-77.6341
-5.02516
16.8746
7.55109
-46.2136
-41.7084
-9.94216
-26.8158
57.027
131.592
182.674
117.33
46.2007
147.048
159.039
99.8993
45.9713
99.6963
165.852
99.5627
58.0663
117.391
182.624
131.461
-37.6584
-36.5604
-39.1833
-40.3682
-34.9635
-37.1755
-37.7582
-35.9136
-47.8899
-48.7639
-41.9998
-41.9777
-53.4969
-45.3178
-43.5342
-50.3381
-37.6611
-40.3738
-39.182
-36.5457
-53.5363
-50.3762
-43.5758
-45.3324
-47.9162
-42.0256
-42.0195
-48.8919
-34.9246
-35.9308
-37.8003
-37.2615
-37.6634
-38.1236
-36.3658
-36.1117
-37.6657
-36.1137
-36.3422
-38.1389
-36.7133
-37.5215
-35.2283
-35.328
-36.767
-35.4143
-35.2892
-37.3612
-83.0455
-67.3819
-93.7545
-66.0844
-56.936
-72.0318
-81.2466
-60.1925
-56.9533
-60.2396
-81.3164
-71.8062
-83.156
-66.6384
-93.9247
-67.423
-42.5841
-42.7753
-46.6689
-40.4901
-42.5268
-41.2848
-49.624
-48.6064
-41.8211
-46.6319
-47.3029
-42.511
-49.1799
-43.5929
-49.7721
-50.1794
-41.4853
-40.6309
-46.7345
-42.647
-49.2185
-50.1253
-49.6001
-43.5994
-41.8011
-42.5049
-47.1904
-46.5844
-42.5277
-47.9726
-49.1067
-41.3142
-40.0781
-39.9399
-40.958
-41.4905
-39.8304
-41.8882
-40.9699
-39.991
-37.3222
-34.927
-38.5835
-40.0957
-37.3652
-40.1692
-38.5848
-34.9278
-57.563
-54.7851
-52.3892
-64.5274
-38.1656
-37.2473
-42.335
-44.2809
-38.1622
-44.2787
-42.3387
-37.2471
-57.567
-64.5182
-52.4123
-54.8018
-33.6487
-27.0264
-26.3228
-33.2961
-33.6487
-33.2988
-26.3173
-27.0579
-34.4621
-32.1073
-29.3192
-33.7949
-34.4624
-33.7954
-29.3344
-32.1116
-55.796
-132.13
-92.8755
-39.1217
-38.6717
-39.8716
-59.437
-37.8185
-65.4102
-38.0215
-36.4939
-38.5333
-132.179
-55.8563
-92.8516
-39.3183
-39.06
-39.7738
-37.5406
-59.4903
-65.3452
-36.4897
-38.0162
-38.5107
-40.2843
-37.8616
-38.5729
-39.1975
-41.0732
-36.5322
-36.1537
-38.3012
-62.0203
-57.5686
-60.0959
-71.1795
-50.8687
-50.4844
-50.822
-53.4115
-40.286
-39.1989
-37.8841
-38.5856
-41.027
-38.5315
-36.6482
-36.8524
-62.0791
-71.2909
-57.6102
-60.1546
-50.8958
-53.4265
-50.5156
-50.8382
-45.168
-45.4391
-64.3776
46.1865
-129.975
-130.005
-109.313
-17.1865
-61.4779
-53.9494
-62.388
-56.5307
-35.372
-35.1638
-39.526
-34.1093
-31.884
-31.9513
-33.4378
-27.631
-41.1183
-39.7136
-45.2154
-39.3216
-87.1185
-80.366
-53.3513
82.7033
-54.4004
-55.1409
-62.0471
-30.2528
-35.8908
-35.8943
-36.4994
-35.365
-48.573
-51.5108
-49.606
-50.1385
-45.2183
-45.4713
-64.3933
46.0739
-61.4638
-53.9402
-62.3587
-56.5241
-35.3654
-35.1701
-39.5048
-34.11
-40.8084
-39.9075
-46.4329
-39.2838
-54.2203
-55.021
-61.9559
-30.0633
-48.5519
-51.4952
-49.5748
-50.1113
-35.2491
-35.2262
-35.3241
-35.0789
-42.3091
-44.6834
-44.0943
-42.9689
-39.8461
-39.8416
-41.108
-38.9424
-38.8552
-41.2845
-39.6489
-40.6323
-41.2613
-41.3717
-39.8933
-40.668
-54.8222
-53.1953
-51.8008
-57.49
-27.1224
-27.1497
-8.32385
-43.0994
-68.886
-68.9799
-70.946
-67.1382
-35.1754
-35.017
-35.2527
-35.0799
-42.3192
-44.6976
-44.104
-42.9797
-38.9368
-41.3838
-39.7136
-40.7074
-54.865
-53.249
-51.8393
-57.54
-70.9704
-65.7984
-66.0007
-61.6011
-70.8964
-65.6693
-65.9169
-61.5241
-60.2125
-56.4618
-56.4623
-53.5475
-1.79661
5.34179
5.67721
11.3516
196.264
196.106
194.016
196.481
-39.2682
-40.6751
-39.7655
-41.3183
-39.2956
-40.6715
-39.8264
-41.3491
-35.2378
-35.4411
-35.1713
-35.2297
-88.0031
-91.7887
-86.3764
-88.0657
-50.5778
-50.3983
-51.9129
-49.6101
-50.2993
-49.5759
-51.5493
-49.0717
-38.009
-38.1086
-38.1168
-38.6084
-44.2662
-46.6275
-46.6335
-49.1417
-27.5214
-25.1097
-27.696
-27.5249
-43.8732
-44.298
-60.7267
24.1555
-138.394
-130.786
-112.868
-17.6519
-97.733
-73.3683
-91.9175
-78.022
-35.848
-35.1787
-40.152
-33.4331
-36.0968
-33.4722
-35.5486
-32.1707
-38.2971
-41.5077
-42.7638
-39.1662
-44.3066
-48.5749
-84.5902
38.0313
-39.6446
-54.8686
-46.1032
-7.86604
-60.688
-58.0606
-68.8892
-47.2888
-36.6361
-35.6913
-40.746
-34.3148
-35.5116
-35.5361
-36.5363
-34.8626
-41.0658
-44.7891
-43.7215
-42.0523
-138.374
-130.876
-112.929
-16.9946
-43.9664
-44.3487
-60.6909
23.9597
-97.7073
-73.3474
-90.8708
-78.0095
-36.1782
-33.4878
-35.5641
-32.1652
-35.8558
-35.1761
-40.1716
-33.4347
-38.1736
-41.3853
-42.7011
-39.2039
-38.93
-47.2692
-44.9908
-4.94118
-44.263
-48.9618
-84.594
38.0584
-60.5679
-57.9957
-68.8368
-47.1669
-35.5057
-35.5316
-36.533
-34.8756
-36.6285
-35.6951
-40.7393
-34.3119
-41.0577
-44.7737
-43.7008
-42.0457
-44.498
-48.2257
-47.6442
-46.2423
-36.8287
-36.7585
-36.4367
-36.7655
-39.3071
-40.5038
-41.0728
-39.4978
-39.6601
-39.8609
-40.909
-38.7278
-41.9295
-41.531
-39.6411
-41.3828
-36.8071
-35.5771
-35.9243
-36.0816
-33.9967
-37.1594
-33.1887
-39.2102
-38.8726
-39.9733
-38.788
-39.4545
-65.3672
-59.4533
-59.5816
-49.9958
-52.2809
-47.9636
-50.3945
-49.5454
-58.2411
-56.4445
-54.515
-64.0727
-55.703
-29.3533
-13.7631
-53.0478
-51.3544
-51.4689
-50.6184
-55.2664
-46.7785
-44.0096
-44.9772
-45.7119
-51.4173
-51.9171
-50.3965
-54.3771
-62.9429
-67.3487
-66.5483
-66.0028
-44.4825
-48.2253
-47.6297
-46.2681
-39.66
-39.8516
-40.9085
-38.728
-36.8184
-36.7348
-36.4237
-36.7621
-39.3091
-40.5098
-41.0683
-39.5025
-39.2501
-44.7859
-41.4118
-42.2034
-38.9757
-40.0196
-38.9249
-39.4816
-36.9624
-35.4349
-35.9439
-36.0368
-33.9677
-37.1021
-33.3952
-39.0044
-65.3784
-59.3248
-59.5239
-50.0872
-55.9795
-28.8705
-13.4572
-53.4181
-52.3119
-47.9844
-50.4162
-49.5684
-58.279
-56.4897
-54.5574
-64.1095
-51.3818
-51.4806
-50.7308
-55.2645
-62.9645
-67.471
-66.6033
-66.0568
-46.8127
-44.0544
-45.0203
-45.7571
-51.3435
-51.9189
-50.4275
-54.3906
-83.0756
-85.5205
-95.6983
-91.7751
155.338
188.988
171.858
162.172
-84.0349
-69.5567
-75.7054
-75.7017
189.345
188.35
188.047
188.073
-65.3568
-65.9072
-71.5146
-62.4991
-56.4468
-56.3943
-60.0847
-53.4176
-43.4285
-46.0976
-44.9293
-45.0094
-33.3995
-30.7928
-31.7861
-32.137
-35.4782
-37.8118
-36.5484
-36.5511
-22.692
-22.2213
-23.405
-23.4035
-48.6513
-49.1603
-48.3451
-51.0518
-38.6454
-38.2821
-38.7913
-38.5394
-33.7564
-16.8526
-25.0458
-24.9071
139.884
135.587
135.122
134.189
-64.0339
-65.4609
-60.1005
-69.4125
-8.33578
1.72851
-8.74014
3.51531
-38.0407
-40.6183
-39.3048
-39.305
-28.4448
-28.3719
-29.745
-29.7452
-48.9699
-49.8087
-48.3482
-49.721
-47.6276
-46.8049
-49.7157
-44.7722
-83.068
-85.5458
-95.6949
-91.6881
155.075
188.801
161.637
171.667
-65.3057
-65.8188
-71.4601
-62.4437
-56.4459
-56.3948
-60.0867
-53.4165
-43.4456
-46.0444
-45.0085
-44.9559
-33.3966
-30.8691
-31.7829
-32.1338
-48.5929
-48.7001
-47.4871
-49.9783
-38.6882
-38.3145
-38.8672
-38.5494
-63.9641
-65.3756
-69.3378
-60.025
-8.01712
2.26807
4.17312
-8.51958
-48.8718
-49.5986
-49.5703
-48.2349
-47.6386
-46.8177
-44.8024
-49.6085
-37.0338
-37.7904
-37.8387
-37.0122
-35.2162
-35.2442
-35.4273
-35.2336
-46.8506
-52.977
-49.9374
-49.5367
-42.1155
-41.4445
-40.7642
-43.0373
-45.3949
-48.7889
-46.8812
-46.8847
-37.7057
-37.322
-37.3
-37.3051
-39.5059
-39.5745
-38.5055
-40.5991
-43.357
-46.3566
-45.096
-45.488
-35.2017
-35.2725
-35.397
-35.4815
-40.6284
-43.6709
-41.5801
-41.5623
-47.2129
-43.9985
-45.1516
-46.1037
-69.3132
-83.412
-79.7413
-75.3732
16.5648
23.6791
22.768
23.425
-82.654
-95.6257
-90.6271
-90.7582
-75.2495
-80.2018
-76.8761
-76.8878
-61.7402
-55.2355
-58.2444
-58.2455
-37.0392
-37.7984
-37.8385
-37.0472
-35.1726
-35.2174
-35.4008
-35.1833
-46.8286
-52.9269
-49.4834
-49.8881
-42.1215
-41.4565
-40.7686
-43.0371
-39.5553
-39.6006
-40.635
-38.5464
-43.6514
-46.3759
-45.7024
-45.8343
-47.2212
-44.0397
-46.1325
-45.142
-69.4669
-83.5811
-75.5603
-79.5325
-78.198
-100.061
-98.938
-88.2622
-49.0771
-47.6063
-52.9134
-50.3982
-53.3731
-51.081
-52.8732
-50.4355
-73.653
-71.1126
-81.6904
-82.0549
-78.2601
-100.07
-98.9079
-88.2314
-73.5899
-71.0682
-81.6578
-82.0009
-53.3223
-51.0827
-52.7824
-50.3466
-49.0441
-47.5816
-52.8766
-50.3525
-83.9362
-76.4931
-75.654
-69.556
-83.9408
-76.4909
-75.6502
-69.5581
-46.5607
-45.2979
-48.5875
-46.7853
-46.5636
-45.3017
-48.5903
-46.7891
-35.0642
-31.8547
-26.6981
-21.6538
9.56735
11.268
15.9033
20.9419
10.3027
12.1398
17.0198
22.3735
-34.9111
-31.7839
-26.5893
-21.6473
165.834
172.743
169.426
179.17
93.3486
113.864
135.748
130.218
108.814
92.8438
121.163
134.128
172.668
165.777
179.104
169.354
-37.8855
-38.8728
-38.333
-38.895
-36.2233
-36.057
-36.554
-36.7888
-44.5868
-46.2378
-43.1574
-44.7656
-48.4233
-49.6902
-46.0773
-47.2988
-37.8851
-38.875
-38.3324
-38.9003
-48.446
-49.7176
-46.0723
-47.3538
-44.6238
-46.2727
-43.2035
-44.8198
-36.28
-36.1288
-36.5828
-36.8368
-36.9893
-37.4837
-37.0253
-37.204
-37.4855
-36.9901
-37.201
-37.0155
-36.2187
-35.9609
-35.6851
-35.5803
-36.0494
-36.275
-35.6588
-35.7882
-91.2848
-79.1609
-88.9343
-87.224
-63.0023
-68.5178
-71.989
-73.2727
-68.5791
-63.3403
-73.3052
-72.1073
-79.6499
-90.7637
-86.7218
-88.9527
-43.608
-44.1517
-43.3069
-44.6388
-43.0458
-44.5234
-44.5512
-46.159
-43.5536
-44.3189
-44.8037
-45.5536
-48.2744
-46.7732
-48.8067
-47.0236
-44.6892
-44.519
-44.1725
-45.1087
-48.2705
-46.8256
-48.7385
-47.0621
-43.5364
-44.2812
-44.7748
-45.5004
-43.109
-44.5911
-44.6121
-46.2043
-41.8618
-40.7844
-44.0782
-41.698
-42.0282
-40.8151
-44.1797
-41.7266
-36.5712
-37.4476
-36.9646
-38.43
-36.5833
-37.4681
-36.9751
-38.4467
-58.8314
-61.6165
-55.8019
-58.4153
-38.5328
-40.1863
-39.5969
-41.2478
-38.5322
-40.1857
-39.5986
-41.2504
-58.8722
-61.6546
-55.8177
-58.4079
-32.1639
-30.3274
-30.6482
-28.1104
-30.3219
-32.1608
-28.1057
-30.6435
-33.1436
-33.8845
-31.3536
-32.0781
-33.8864
-33.1394
-32.0738
-31.356
-57.8747
1.71714
-117.154
-100.28
-65.9804
-100.453
-42.0598
-35.1851
-38.0612
-35.3781
-42.5956
-38.3238
-83.9237
21.7909
-53.1836
8.96288
-72.8211
-52.1668
-41.6249
-34.9665
-36.9307
-35.0119
-41.0017
-38.8464
-117.184
-100.974
-57.8936
1.63173
-65.9881
-100.444
-38.1087
-35.3593
-42.0702
-35.1953
-42.5095
-38.2191
-52.9207
9.07761
-83.9215
21.9163
-72.7075
-52.0723
-36.9279
-35.0064
-41.6065
-34.9683
-41.0147
-38.8399
-42.3187
-42.5625
-37.0759
-37.3778
-39.9414
-38.0391
-40.6363
-38.378
-43.9683
-40.4313
-35.6343
-36.4957
-34.7111
-38.3817
-37.7229
-39.2742
-60.1839
-80.775
-55.6504
-53.9563
-56.5323
-67.3637
-89.3507
-95.1544
-50.8704
-53.6263
-47.887
-48.751
-49.9503
-53.5368
-57.1257
-57.3076
-42.3002
-42.552
-40.6405
-38.3771
-37.0798
-37.4472
-39.934
-38.0433
-42.1758
-39.6439
-37.8819
-39.1838
-35.7016
-36.3026
-34.7937
-38.1312
-60.2081
-80.8367
-89.5024
-95.3614
-55.6823
-53.9939
-56.5649
-67.437
-50.8483
-53.645
-57.1394
-57.3207
-47.9155
-48.7977
-49.9619
-53.5429
-60.8402
37.4798
-76.8934
41.5831
-66.9448
-71.4407
125.801
106.588
-108.986
-9.58825
-109.022
-9.56191
-93.9358
-93.9287
142.001
142.007
-73.4893
-65.1352
-56.1726
-50.5748
-70.0756
-61.3137
-60.1682
-53.3075
-39.4614
-33.5297
-40.3085
-34.0346
-41.3587
-42.1709
-33.6868
-33.7509
-33.9347
-29.0076
-33.9382
-29.0421
-34.6417
-34.6421
-25.4878
-25.4928
-47.2359
-40.5742
-42.7854
-41.6656
-45.7246
-52.1839
-38.943
-39.1588
-51.0242
75.1772
-47.4973
-2.87274
-43.4263
-42.7727
129.077
120.327
-65.4438
-37.0038
-59.1753
-29.3719
-58.7789
-66.9132
-21.0575
-9.1065
-36.5079
-35.3479
-36.5041
-35.3424
-37.1998
-37.199
-31.3916
-31.3938
-46.7126
-45.8325
-51.2103
-54.6045
-48.101
-49.87
-51.888
-46.5395
-60.8335
37.3099
-76.9006
41.5414
-66.9625
-71.4822
106.365
125.63
-73.4676
-65.1234
-56.0388
-50.5769
-70.039
-61.2738
-60.1626
-53.3048
-39.5027
-33.5309
-40.3209
-34.0339
-42.1729
-41.4152
-33.6892
-33.7474
-46.5545
-40.4008
-43.7874
-42.0547
-45.0882
-49.8148
-39.1133
-39.1204
-65.3752
-36.8604
-59.0958
-29.2039
-66.812
-58.696
-8.78455
-20.8591
-46.6885
-45.8218
-51.2444
-54.6042
-49.8034
-48.0399
-46.5329
-51.8975
-35.7373
-36.0229
-35.2712
-35.3817
-36.3465
-36.415
-35.2926
-35.197
-42.2063
-40.7846
-46.682
-45.7615
-44.3861
-46.1577
-41.4027
-43.7493
-41.0305
-38.8858
-41.0642
-38.8613
-43.2839
-43.2817
-38.1604
-38.1721
-37.0241
-38.8458
-42.2236
-43.1484
-38.3789
-40.7237
-40.9883
-42.1892
-39.8712
-40.0155
-40.5048
-39.9477
-37.478
-37.3032
-39.9563
-39.9584
-52.8063
-60.7896
-51.0505
-55.9083
-48.8338
-49.6514
-64.7218
-60.9162
-6.54151
-43.5809
-6.18961
-43.7793
6.82682
7.15095
-67.3669
-67.6739
-70.6177
-66.9902
-70.1323
-66.9002
-72.8701
-72.9071
-64.6077
-64.6084
-35.7058
-36.0741
-35.2343
-35.3067
-36.329
-36.3913
-35.2577
-35.1161
-42.2122
-40.7927
-46.6954
-45.7787
-46.1629
-44.3872
-41.4115
-43.7613
-37.1264
-38.9062
-42.2798
-43.1778
-40.7781
-38.4496
-41.0854
-42.1189
-52.8551
-60.8318
-51.2275
-55.939
-49.6845
-48.7512
-60.972
-64.7659
-78.4955
-77.727
-71.6231
-62.5566
-60.4493
-70.1524
-58.0069
-57.0863
-78.5561
-77.7005
-71.5263
-62.4827
-70.0727
-60.38
-57.0235
-57.935
-64.3552
-64.3621
-60.0461
-53.4284
-60.0523
-53.4212
-50.8062
-50.8097
-9.35558
-9.2284
-3.08832
9.63399
10.4801
-2.70666
17.1943
17.9363
192.264
193.739
186.275
186.286
152.548
155.764