# vtk DataFile Version 2.0
tet_velo
ASCII
DATASET UNSTRUCTURED_GRID
POINTS 29498 float
-0.795 0.405 -2.26816
-0.784953 0.305 2.255
-0.808886 0.655 -2.225
-0.775 0.719429 2.235
0.788013 0.335 -2.205
0.788668 0.325 2.275
0.808742 0.655 -2.225
0.775 0.719731 2.235
-0.855376 0.307941 -0.76044
-0.852974 0.273661 0.74728
-0.830671 0.709556 -0.738333
-0.823719 0.735377 0.748333
0.844423 0.275475 -0.711667
0.87528 0.241503 0.781667
0.83437 0.713452 -0.738333
0.823618 0.735525 0.748333
-1.62718 0.212412 -3.47411
-1.63324 0.201402 -2.27826
-1.67274 0.120917 -0.771014
-1.6747 0.0709599 0.740832
-1.6346 0.0833861 2.24841
-1.62253 0.0969706 3.44598
-1.62569 0.104667 4.63984
-1.62437 0.395321 -3.47173
-1.62798 0.398612 -2.27633
-1.6776 0.329199 -0.771155
-1.67365 0.286826 0.736753
-1.61353 0.295415 2.24198
-1.60864 0.309413 3.43802
-1.61895 0.317904 4.63141
-1.62794 0.715346 -3.45237
-1.63192 0.707099 -2.24649
-1.66101 0.726674 -0.754132
-1.65236 0.732568 0.736582
-1.60185 0.722405 2.2274
-1.60316 0.732646 3.41999
-1.61691 0.742405 4.61341
-1.63921 1.27273 -3.4441
-1.6429 1.28338 -2.24616
-1.65247 1.32653 -0.758385
-1.65483 1.36513 0.723992
-1.64519 1.37678 2.20816
-1.63901 1.37918 3.39859
-1.63855 1.38217 4.59156
-0.806877 0.205691 -3.45976
-0.802881 0.198522 -2.26383
-0.838381 0.104172 -0.756648
-0.84521 0.0575168 0.754057
-0.819391 0.0901141 2.2612
-0.810085 0.101732 3.45685
-0.812475 0.105745 4.64961
-0.80562 0.386772 -3.4597
-0.798476 0.314417 3.4471
-0.807777 0.319328 4.64004
-0.808991 0.693798 -3.44154
-0.795321 0.732614 3.42536
-0.807343 0.742121 4.61987
-0.8164 1.2552 -3.43367
-0.817763 1.2668 -2.23631
-0.826273 1.31863 -0.750329
-0.833757 1.36446 0.729993
-0.831052 1.37639 2.21307
-0.826374 1.37776 3.40374
-0.82505 1.38009 4.59751
0.813611 0.162827 -3.41748
0.817062 0.145778 -2.21134
0.847127 0.0709138 -0.712434
0.855204 0.0320859 0.786694
0.800513 0.092367 2.28397
0.8029 0.102432 3.47591
0.808911 0.101652 4.66761
0.806449 0.344678 -3.41958
0.798337 0.318775 3.4634
0.806443 0.31659 4.65633
0.811732 0.673399 -3.42155
0.791854 0.732446 3.43451
0.802216 0.738562 4.633
0.823801 1.24102 -3.41737
0.826627 1.25636 -2.22335
0.824551 1.31092 -0.739501
0.810308 1.35759 0.739723
0.796209 1.36994 2.22274
0.795814 1.3712 3.41483
0.799517 1.37287 4.6105
1.63009 0.137513 -3.39784
1.63566 0.119684 -2.19282
1.67562 0.0620609 -0.696193
1.68919 0.0285241 0.798531
1.63674 0.0716514 2.29239
1.62307 0.090024 3.48422
1.62574 0.0933517 4.67629
1.6214 0.323132 -3.40014
1.61886 0.315861 -2.19396
1.66946 0.275723 -0.70122
1.69251 0.24585 0.789075
1.62819 0.290224 2.28014
1.61486 0.306899 3.47155
1.62083 0.308835 4.66481
1.62603 0.670684 -3.40706
1.62724 0.672496 -2.2108
1.65816 0.705535 -0.724207
1.65696 0.714593 0.759925
1.60986 0.712619 2.24657
1.6051 0.726489 3.44316
1.61455 0.732598 4.64131
1.64363 1.24263 -3.40938
1.64758 1.25943 -2.21685
1.64886 1.3079 -0.733215
1.63566 1.34892 0.746627
1.6175 1.36198 2.23022
1.61317 1.36461 3.42266
1.61565 1.36672 4.61863
-0.812339 0.53 -2.25698
-0.00349352 0.330057 -2.27652
-0.879069 0.30259 -1.5143
-0.812168 0.512215 2.27719
0.00185749 0.270854 2.30915
-0.860476 0.247818 1.50114
-7.20024e-05 0.707675 -2.27767
-0.836874 0.699374 -1.48167
0 0.715335 2.23075
-0.814267 0.74231 1.49167
0.821711 0.495 -2.23833
0.858697 0.262758 -1.45833
0.811367 0.522365 2.28453
0.851752 0.263473 1.52833
0.836736 0.699406 -1.48167
0.81423 0.742549 1.49167
-0.855194 0.289783 -0.00658
-0.870502 0.508749 -0.749387
-0.00547692 0.127157 -0.736053
-0.876834 0.504519 0.747807
0.011153 0.112896 0.764474
-0.827948 0.723219 0.005
0.00184966 0.967298 -0.738333
-5.04822e-05 1.16836 0.748333
0.847593 0.270748 0.0350001
0.87371 0.494464 -0.725
0.877126 0.488514 0.765
0.831689 0.727184 0.005
-0.890278 0.519374 -1.49798
-0.874666 0.506634 -0.00079
-0.871519 0.508367 1.4964
-0.00448522 0.168378 -1.48632
0.00283803 0.119607 0.01421
0.00650524 0.152877 1.51474
-0.00178276 0.5125 -2.28247
0.000928745 0.51729 2.35241
0.000888829 0.797246 -1.48167
0.000899589 1.19523 0.005
-2.52411e-05 0.807872 1.49167
0.895181 0.494732 -1.47
0.877168 0.491489 0.02
0.868889 0.50544 1.51
-1.21149 0.401806 -2.27225
-0.79894 0.301761 -2.266
-0.80031 0.395886 -2.86393
-1.19924 0.300207 2.24849
-0.802172 0.197557 2.2581
-0.791714 0.309708 2.85105
-1.2204 0.681049 -2.23574
-0.808938 0.674399 -2.83327
-0.813324 0.960901 -2.23066
-1.18842 0.720917 2.2312
-0.78516 0.726022 2.83018
-0.803026 1.04791 2.22404
0.802537 0.240389 -2.20817
0.797231 0.339839 -2.81229
1.20344 0.32543 -2.19948
0.79459 0.208683 2.27949
0.793502 0.321888 2.8692
1.20843 0.307612 2.27757
0.810237 0.664199 -2.82327
0.817685 0.95568 -2.22418
1.21799 0.663748 -2.2179
0.783427 0.726089 2.83476
0.785604 1.04483 2.22887
1.19243 0.716175 2.24078
-1.26649 0.31857 -0.765797
-0.846879 0.206057 -0.758544
-1.26331 0.280243 0.742017
-0.849092 0.165589 0.750669
-1.24584 0.718115 -0.746233
-0.828472 1.01409 -0.744331
-1.23804 0.733972 0.742457
-0.828738 1.04992 0.739163
0.845775 0.173195 -0.712051
1.25694 0.275599 -0.706443
0.865242 0.136794 0.78418
1.2839 0.243676 0.785371
0.829461 1.01219 -0.738917
1.24626 0.709493 -0.73127
0.816963 1.04656 0.744028
1.24029 0.725059 0.754129
-1.63021 0.206907 -2.87618
-1.62577 0.303866 -3.47292
-1.21703 0.209051 -3.46694
-1.65299 0.161159 -1.52464
-1.63061 0.300007 -2.27729
-1.21806 0.199962 -2.27105
-1.67372 0.0959383 -0.0150909
-1.67517 0.225058 -0.771084
-1.25556 0.112545 -0.763831
-1.65465 0.077173 1.49462
-1.67418 0.178893 0.738793
-1.25995 0.0642383 0.747445
-1.62856 0.0901784 2.8472
-1.62406 0.1894 2.2452
-1.227 0.0867501 2.25481
-1.62411 0.100819 4.04291
-1.61559 0.203192 3.442
-1.21631 0.0993513 3.45142
-1.62232 0.211285 4.63563
-1.21908 0.105206 4.64473
-1.62617 0.396967 -2.87403
-1.62616 0.555334 -3.46205
-1.215 0.391047 -3.46572
-1.65279 0.363905 -1.52374
-1.62995 0.552856 -2.26141
-1.67563 0.308012 -0.0172007
-1.66931 0.527936 -0.762643
-1.64359 0.29112 1.48937
-1.66301 0.509697 0.736667
-1.61109 0.302414 2.84
-1.60769 0.50891 2.23469
-1.6138 0.313658 4.03471
-1.6059 0.52103 3.42901
-1.20356 0.311915 3.44256
-1.61793 0.530154 4.62241
-1.21336 0.318616 4.63573
-1.62993 0.711223 -2.84943
-1.63358 0.994039 -3.44823
-1.21847 0.704572 -3.44695
-1.64647 0.716887 -1.50031
-1.63741 0.995241 -2.24632
-1.65669 0.729621 -0.00877536
-1.65674 1.0266 -0.756259
-1.62711 0.727487 1.48199
-1.6536 1.04885 0.730287
-1.6025 0.727526 2.8237
-1.62352 1.04959 2.21778
-1.61004 0.737525 4.0167
-1.62109 1.05591 3.40929
-1.19924 0.73263 3.42268
-1.62773 1.06229 4.60249
-1.21213 0.742263 4.61664
-1.64105 1.27806 -2.84513
-1.22781 1.26396 -3.43888
-1.64768 1.30495 -1.50227
-1.23033 1.27509 -2.24124
-1.65365 1.34583 -0.0171967
-1.23937 1.32258 -0.754357
-1.65001 1.37095 1.46607
-1.2443 1.3648 0.726992
-1.6421 1.37798 2.80337
-1.23812 1.37658 2.21062
-1.63878 1.38067 3.99507
-1.23269 1.37847 3.40116
-1.2318 1.38113 4.59454
-0.804879 0.202106 -2.8618
-0.806249 0.296231 -3.45973
0.00336652 0.184259 -3.43862
-0.820631 0.151347 -1.51024
0.00709061 0.17215 -2.23759
-0.841795 0.0808446 -0.00129559
0.00437306 0.0875431 -0.734541
-0.832301 0.0738154 1.50763
0.00499672 0.0448013 0.770376
-0.814738 0.095923 2.85903
-0.00943946 0.0912405 2.27259
-0.81128 0.103738 4.05323
-0.80428 0.208074 3.45198
-0.00359221 0.102082 3.46638
-0.810126 0.212536 4.64483
-0.00178233 0.103698 4.65861
-0.807306 0.540285 -3.45062
0.000414177 0.365725 -3.43964
-0.803126 0.316872 4.04357
-0.796898 0.523516 3.43623
-6.95973e-05 0.316596 3.45525
-0.80756 0.530724 4.62995
-0.000666622 0.317959 4.64819
-0.812695 0.974497 -3.4376
0.0013706 0.683599 -3.43155
-0.801332 0.737367 4.02261
-0.810847 1.05519 3.41455
-0.00173366 0.73253 3.42994
-0.816196 1.0611 4.60869
-0.0025633 0.740341 4.62643
-0.817081 1.261 -2.83499
0.00370058 1.24811 -3.42552
-0.822018 1.29272 -1.49332
0.00443224 1.26158 -2.22983
-0.830015 1.34154 -0.010168
-0.000860645 1.31478 -0.744915
-0.832404 1.37042 1.47153
-0.0117243 1.36103 0.734858
-0.828713 1.37707 2.80841
-0.0174215 1.37316 2.21791
-0.825712 1.37893 4.00062
-0.0152798 1.37448 3.40928
-0.0127663 1.37648 4.60401
0.815336 0.154302 -2.81441
0.81003 0.253752 -3.41853
1.22185 0.15017 -3.40766
0.832094 0.108346 -1.46189
1.22636 0.132731 -2.20208
0.851165 0.0514999 0.0371298
1.26137 0.0664873 -0.704313
0.827858 0.0622265 1.53533
1.27219 0.030305 0.792613
0.801706 0.0973995 2.87994
1.21863 0.0820092 2.28818
0.805906 0.102042 4.07176
0.800619 0.210604 3.46965
1.21298 0.096228 3.48007
0.807677 0.209121 4.66197
1.21732 0.0975017 4.67195
0.809091 0.509038 -3.42056
1.21392 0.333905 -3.40986
0.80239 0.317683 4.05987
0.795095 0.525611 3.44895
1.2066 0.312837 3.46747
0.80433 0.527576 4.64467
1.21364 0.312712 4.66057
0.817767 0.957212 -3.41946
1.21888 0.672042 -3.4143
0.797035 0.735504 4.03375
0.793834 1.05182 3.42467
1.19848 0.729468 3.43884
0.800867 1.05572 4.62175
1.20838 0.73558 4.63715
0.825214 1.24869 -2.82036
1.23372 1.24183 -3.41338
0.825589 1.28364 -1.48143
1.2371 1.2579 -2.2201
0.81743 1.33426 0.000111042
1.23671 1.30941 -0.736358
0.803259 1.36377 1.48123
1.22298 1.35326 0.743175
0.796011 1.37057 2.81879
1.20685 1.36596 2.22648
0.797666 1.37204 4.01267
1.20449 1.36791 3.41875
1.20758 1.3698 4.61456
1.63288 0.128599 -2.79533
1.62575 0.230322 -3.39899
1.65564 0.0908726 -1.44451
1.62726 0.217772 -2.19339
1.6824 0.0452925 0.0511694
1.67254 0.168892 -0.698706
1.66296 0.0500878 1.54546
1.69085 0.137187 0.793803
1.6299 0.0808377 2.88831
1.63247 0.180938 2.28626
1.6244 0.0916879 4.08026
1.61896 0.198462 3.47788
1.62328 0.201093 4.67055
1.62013 0.319496 -2.79705
1.62372 0.496908 -3.4036
1.64416 0.295792 -1.44759
1.62305 0.494179 -2.20238
1.68099 0.260786 0.0439275
1.66381 0.490629 -0.712713
1.66035 0.268037 1.53461
1.67474 0.480222 0.7745
1.62153 0.298562 2.87584
1.61903 0.501421 2.26335
1.61785 0.307867 4.06818
1.60998 0.516694 3.45735
1.61769 0.520716 4.65306
1.62663 0.67159 -2.80893
1.63483 0.956657 -3.40822
1.6427 0.689015 -1.4675
1.63741 0.965965 -2.21383
1.65756 0.710064 0.0178587
1.65351 1.00672 -0.728711
[...]
POINT_DATA 29498
VECTORS point_vectors float
-1.56843 -1.11925 1.95066
0.0358727 0.0552021 0.180524
-6.28525 3.99006 8.25274
0.129492 -0.154668 1.18306
2.10497 -2.00672 3.74478
-0.0684637 0.188059 0.483606
6.49044 4.34886 7.87938
-0.137729 -0.158671 1.22554
0.00325718 -0.0203174 0.224255
0 0 0
-0.0428128 -0.0429529 0.247343
0.0240353 0.0523842 0.219876
-0.000670141 -0.00274678 0.0378419
0.146309 0.0343592 1.02319
0.067704 -0.0660068 0.367253
-0.023002 0.0527423 0.214224
-0.494112 -0.0327932 19.8357
-1.33309 -0.269054 20.2778
-0.640464 -0.198092 21.1596
-0.0326569 0.021092 21.3688
0.532957 0.232963 21.2142
0.67328 0.255905 20.8835
0.733582 0.00895744 20.827
-0.498472 0.01421 19.8171
-1.39785 -0.0597348 20.2673
-0.706497 -0.171757 21.1653
-0.00817087 0.0107653 21.4185
0.66441 0.153622 21.2671
0.808594 0.172597 21.1816
0.870374 -0.00236508 21.0037
-0.504125 0.0963161 19.8147
-1.38317 0.202661 20.2958
-0.859258 -0.0986388 21.1496
-0.0184885 -0.086229 21.478
0.718143 -0.0992166 21.2704
0.881653 -0.159115 21.0541
0.840226 -0.073338 21.0044
-0.418315 0.233028 19.9039
-0.943522 0.485179 20.2881
-0.857217 0.27157 21.0411
-0.128663 -0.0214678 21.4078
0.425174 -0.295347 21.1867
0.516714 -0.371697 20.8512
0.43945 -0.251785 20.4893
-0.536874 -0.150041 19.1896
-5.33562 -4.81256 18.8705
0.013726 -0.490769 11.0332
0.214484 -0.190459 11.9873
0.715397 0.999628 12.5776
0.994417 1.35648 14.9991
0.846329 0.542395 15.9607
-0.556129 -0.0685012 19.1485
1.44076 1.17305 11.4182
1.19895 0.306136 12.607
-0.566187 0.215661 19.1522
2.13569 -0.432119 11.4406
1.2501 -0.282486 13.1838
-0.434158 0.499084 19.4781
-1.44637 1.88145 19.9985
-2.25302 1.65783 20.9528
-0.237901 -0.0131221 21.962
0.572095 -0.84565 20.8332
0.734208 -1.05713 20.4815
0.45617 -0.689296 21.0063
0.581782 -0.2 19.1371
4.53492 -4.46276 19.8775
0.137731 -0.543029 13.9276
-0.184024 -0.209645 13.9097
-0.67315 1.03756 11.8837
-0.995148 1.37129 14.99
-0.84018 0.538867 16.0303
0.596273 -0.108874 19.0937
-1.48339 1.12328 11.4562
-1.20229 0.316891 12.7404
0.59049 0.219149 19.1192
-2.13819 -0.473034 11.5593
-1.26591 -0.278963 13.1815
0.444551 0.503419 19.4675
1.48852 1.89144 20.0308
2.28727 1.66968 20.9789
0.210789 -0.0562945 21.9012
-0.568326 -0.892705 20.6863
-0.696047 -1.11328 20.5367
-0.444458 -0.714214 21.0333
0.545369 -0.0705543 19.8179
1.26046 -0.321901 20.4002
0.585364 -0.188136 21.1585
0.00879381 0.0341091 21.3747
-0.540928 0.243923 21.1991
-0.66555 0.274095 20.8887
-0.746411 0.0124012 20.79
0.549043 -0.0216691 19.7882
1.4298 -0.167735 20.3898
0.650195 -0.17607 21.1924
-0.0142657 0.0338904 21.409
-0.67019 0.15556 21.2656
-0.800192 0.170614 21.2532
-0.893689 -0.00358197 20.9747
0.539782 0.0943185 19.8023
1.40495 0.160622 20.3565
0.835177 -0.107543 21.168
-0.00636193 -0.080047 21.4856
-0.722277 -0.0921374 21.2593
-0.888513 -0.152415 21.08
-0.867254 -0.054267 21.0073
0.440681 0.237577 19.895
0.964265 0.473816 20.3101
0.869968 0.252487 21.0581
0.112478 -0.0428456 21.4306
-0.453294 -0.31421 21.1886
-0.544606 -0.391183 20.8185
-0.45736 -0.236049 20.5076
-13.907 0.32394 7.90651
0 0 0
-0.0230055 -0.0305108 1.17411
0.118914 -0.016737 0.422069
0.00492916 -0.107654 -0.0616743
0.0868192 0.0873185 1.18896
0.00815495 0.382696 1.00359
-0.139371 -0.0821738 0.725383
9.882e-05 0.00223758 -0.010216
0.152136 0.136644 0.742382
5.962 -1.08931 3.85681
0.0360907 -0.0257414 1.39956
-0.0929197 -0.0178785 0.308168
-0.0404567 0.023585 0.541295
0.136519 -0.0817765 0.708791
-0.157336 0.140307 0.758006
-3.31447e-05 0.00104752 0.0514818
0 0 0
3.3152e-05 -0.000141318 0.00802244
9.63291e-06 0.000248894 0.00184641
-3.93442e-05 -0.000425362 0.010047
0.0414858 0.0582423 0.240801
0.00221526 0.0234822 0.0389511
4.97221e-05 -0.00178651 0.031746
0.000197766 0.000179323 0.0514709
2.97358e-05 -0.000347814 0.00756652
-3.56059e-05 0.00248472 0.0176263
-0.0679934 0.0890397 0.369847
-0.00751053 -0.025614 0.138067
0 0 0
0.000601733 0.000559879 0.0116463
0 0 0
1.52127e-08 7.95074e-09 -2.91475e-06
0 0 0
-0.00337552 0.00678131 -0.000112165
0.00033988 0.0101466 -0.00174306
2.1144e-05 0.00518515 0.0723514
1.15991e-05 0.000199406 0.00747539
0 0 0
0.00338615 -0.0571395 0.363608
-1.63832e-05 0.000327428 0.00377451
0 0 0
-3.0519 -0.35043 20.0391
-8.53829 -6.45313 17.563
-1.68619 -0.264059 17.9799
1.15161 0.418311 20.2038
0.640934 0.869421 6.8549
0.78271 0.897194 7.79439
-2.84841 0.619072 20.2232
-1.72547 0.660924 18.0685
-2.82353 3.17526 19.9345
1.25447 -0.183402 20.0404
1.06718 -0.0737795 7.76702
1.33191 -0.333877 14.6981
6.97337 -6.16849 19.4558
1.84786 -0.528679 17.9132
3.04434 -0.571067 20.3272
-0.646974 0.882429 6.22284
-0.825414 0.892838 7.96064
-1.1746 0.404539 20.2734
1.78068 0.646951 18.0189
2.87771 3.1976 20.0064
2.92233 0.5992 20.2842
-1.11581 -0.103177 7.94866
-1.37002 -0.34783 14.2809
-1.27485 -0.185976 20.1095
-0.828943 -0.358841 21.4604
0.118705 -0.336626 3.93303
0.0845962 0.0805388 21.1432
0.0122006 -0.220264 4.6376
-1.31016 -0.456942 21.2948
-3.90686 0.639956 18.4114
0.119449 -0.266925 20.8289
0.459801 0.877291 13.1746
-0.0550924 -0.394877 5.66966
0.764823 -0.347631 21.3791
0.104992 -0.462099 7.44484
-0.0616979 0.107963 21.4046
3.94236 0.626974 18.3011
1.29171 -0.48235 21.31
-0.587673 0.976847 12.1169
-0.16336 -0.259876 20.87
-0.915636 -0.138432 19.8596
-0.496292 -0.0092916 19.8264
-0.595556 -0.120095 19.5538
-1.03126 -0.255165 20.897
-1.39613 -0.177892 20.27
-2.45868 -0.875238 20.1112
-0.313997 -0.0975682 21.3094
-0.665492 -0.187746 21.1708
-0.770631 -0.325626 21.3984
0.26311 0.148118 21.38
-0.0192433 0.0225164 21.3834
-0.0296455 0.105848 21.4628
0.640642 0.280643 20.9806
0.609515 0.198768 21.2447
0.841576 0.555748 20.9103
0.529972 0.234507 20.473
0.74219 0.215313 20.9973
1.02806 0.622425 20.7955
0.801978 0.00329618 20.9154
0.69447 0.525212 20.7379
-0.942411 -0.0182221 19.838
-0.505574 0.0513892 19.8138
-0.594942 -0.0360427 19.5284
-1.10434 -0.130918 20.914
-1.39209 0.0506639 20.2867
-0.341076 -0.109279 21.3521
-0.771657 -0.144502 21.1567
0.349163 0.0908187 21.4229
-0.0123592 -0.0423386 21.4602
0.78251 0.146278 21.107
0.697973 0.0272281 21.2815
0.714297 0.0949993 20.4702
0.908271 0.0487266 21.3257
1.36221 0.336042 19.8583
0.931932 -0.0190163 21.2059
0.937171 0.309698 18.9845
-0.949785 0.168645 19.8421
-0.480405 0.172575 19.8552
-0.613481 0.16617 19.5264
-1.15476 0.0600249 20.8738
-1.17293 0.410741 20.2848
-0.452617 -0.115652 21.4025
-0.911852 0.0947483 21.1062
0.397924 -0.0574767 21.4496
-0.0953228 -0.0761578 21.4549
0.841826 -0.122246 21.1241
0.56446 -0.238332 21.213
0.749108 -0.141652 20.524
0.764131 -0.323283 20.9213
1.35284 -0.199259 20.06
0.639838 -0.162561 20.7469
0.990167 -0.28049 19.5399
-0.694536 0.397075 19.9819
-0.46627 0.331034 19.7046
-0.942699 0.399093 20.7086
-1.29076 0.965513 20.1759
-0.531487 0.114009 21.3349
-1.36567 0.565052 21.1189
0.214744 -0.175061 21.3398
-0.199818 -0.0342535 21.687
0.492399 -0.337302 21.0251
0.538031 -0.495996 21.2638
0.470716 -0.394782 20.8289
0.611851 -0.675092 20.7693
0.511066 -0.466005 20.645
-1.56962 -0.785145 18.2277
-0.546485 -0.108342 19.1688
0.00300433 -0.275105 18.7651
-0.705666 -0.379208 11.9161
0.0722547 -12.534 15.174
0.08814 -0.184502 11.0182
-0.00504903 -0.0603468 2.98404
0.314144 0.426997 11.2534
-0.0014387 -0.0666413 5.18223
0.824682 1.14514 14.4864
0.0115528 0.27388 4.39178
0.855199 1.00417 16.0652
1.25823 1.30921 12.5179
0.0101208 0.776402 6.25059
1.04008 0.490235 14.1664
0.00967504 0.69691 10.3629
-0.56461 0.0841505 19.1454
0.000254522 -0.134279 18.7032
1.74684 0.682331 13.2988
1.83441 0.486753 10.9428
-0.0306229 -0.168714 -0.6746
1.44482 -0.0421656 10.3009
-0.0028344 0.293333 7.72451
-0.51246 0.36753 19.2804
-0.000821896 0.298595 18.7081
1.80138 -0.178332 13.2477
1.42639 -0.879514 17.0861
-0.0196932 -1.1266 -0.504359
0.834888 -0.564619 18.261
-0.00552971 -0.684421 7.4381
-0.871983 1.10049 19.3208
0.00218788 0.633048 19.2195
-1.51453 1.43786 20.6251
0.0105536 3.11996 19.8349
-1.38163 0.738437 22.2817
-4.61552e-05 4.62368 19.7145
0.405301 -0.57706 21.0413
0.0215734 -0.169564 15.2486
0.672063 -0.965377 20.6359
0.0118467 -0.883768 16.1586
0.700175 -0.859626 20.2245
0.03728 -1.48184 17.7828
0.00706588 -1.08291 17.8873
1.58429 -0.924124 18.3414
0.588954 -0.151186 19.1131
0.624811 -0.146403 19.5471
1.05055 -0.621092 15.9668
2.34822 -0.971548 20.3183
-0.0324312 -0.164135 13.213
0.718395 -0.317376 21.4
-0.330919 0.480423 11.7267
0.0224466 0.127161 21.5009
-0.813342 1.14562 14.2369
-0.867319 0.586482 20.821
-0.873059 1.00956 16.1544
-1.29853 1.27147 12.4783
-1.03826 0.679657 20.7186
-1.03356 0.490205 14.274
-0.681217 0.52753 20.7056
0.594315 0.0544613 19.1048
0.647173 -0.0716464 19.5048
-1.79919 0.678754 13.401
-1.86271 0.463178 10.9317
-1.37446 0.324836 19.8191
-1.4462 -0.0192502 10.623
-0.934653 0.321828 19.0852
0.532055 0.3674 19.2502
0.633435 0.155007 19.5145
-1.8572 -0.157533 13.2507
-1.42686 -0.92359 16.858
-1.37245 -0.196556 19.9762
-0.841993 -0.567592 18.0162
-1.00724 -0.276563 19.4147
0.908035 1.11954 19.312
0.480683 0.335467 19.6933
1.54406 1.41929 20.6338
1.32573 0.966953 20.2024
1.38933 0.737611 22.2845
1.39509 0.560529 21.1385
-0.416601 -0.624913 20.8905
0.181223 -0.056176 21.7108
-0.688058 -1.01055 20.4754
-0.553316 -0.533061 21.2741
-0.686901 -0.846175 20.3543
-0.633504 -0.708498 20.7977
-0.505158 -0.486291 20.6537
0.955009 -0.205987 19.9244
0.547838 -0.0447326 19.7949
0.961886 -0.278279 20.9421
1.37263 -0.257496 20.3928
0.280974 -0.0888426 21.3099
0.619885 -0.174685 21.1721
-0.277039 0.163895 21.3644
0.00149114 0.0414374 21.3791
-0.637443 0.299787 20.968
-0.60966 0.20719 21.2332
-0.532554 0.219736 20.3486
-0.732922 0.222442 21.0674
-0.82005 0.0044096 20.8824
1.02451 -0.0850784 19.8553
0.552491 0.039767 19.8069
1.0694 -0.190478 20.9612
1.42605 0.00908388 20.3741
0.304054 -0.0953639 21.3565
0.740759 -0.151565 21.1803
-0.35721 0.103793 21.394
-0.0132593 -0.0268409 21.4585
-0.755206 0.150449 21.0322
-0.704918 0.0292535 21.2769
-0.705788 0.0976212 20.3586
-0.902831 0.0433182 21.4055
-0.9635 -0.0111815 21.1464
1.00461 0.141169 19.8548
0.513327 0.172226 19.8494
1.14779 0.0381868 20.9055
1.19607 0.3995 20.329
0.425933 -0.117638 21.411
0.904159 0.075672 21.13
-0.41318 -0.055856 21.4426
0.0681155 -0.0861899 21.4678
-0.85882 -0.125786 21.1136
-0.595894 -0.246268 21.227
-0.747316 -0.137023 20.442
-0.782378 -0.327283 20.9506
-0.662307 -0.145158 20.7575
0.73316 0.399837 19.9801
0.955979 0.38757 20.7318
0.529457 0.0979698 21.3568
-0.238713 -0.194316 21.3471
-0.533634 -0.361664 20.9819
-0.479296 -0.376416 20.7994
-0.934032 -0.0905978 19.841
-1.61372 -0.618479 18.141
-1.26497 -0.35752 19.3587
-1.40176 -0.101811 19.2596
-0.605652 -0.0800994 19.5332
-2.84309 -0.626404 20.0843
-1.08375 -0.20197 20.921
-0.0998513 -0.0418239 3.03327
-1.4279 -0.494468 21.2926
-1.53206 -0.329723 21.3482
-0.790206 -0.334722 21.4347
-0.324323 -0.0996808 21.3289
0.0289826 -0.0530467 4.00885
-0.3385 -0.104475 21.5045
-0.277745 -0.168049 21.3462
0.0226279 0.0997735 21.3289
0.307062 0.124523 21.3971
0.133703 0.350533 4.48071
0.408168 0.34595 21.3452
0.597849 0.275198 20.8204
1.00556 0.520735 20.7135
0.7414 0.230297 21.0515
0.80667 1.0373 10.4594
1.02099 0.603135 20.7605
1.30612 0.413171 20.1282
1.18389 0.47933 20.6786
0.622135 0.164753 20.4716
1.49048 0.74732 13.6716
0.774634 0.543829 20.474
1.15702 0.421004 20.2898
0.778148 0.493657 20.5508
-0.950313 0.0612279 19.8396
-1.79557 0.165378 17.8523
-1.40798 0.315161 19.2874
-0.597955 0.068904 19.5264
-3.0542 0.190747 20.0816
-1.14132 -0.0528659 20.9253
-1.66566 0.0345048 21.2139
-0.977566 -0.445416 21.3185
-0.383627 -0.132298 21.3822
-0.537283 -0.498176 21.1939
0.180303 -0.0702792 20.9059
0.390907 0.0185644 21.4595
0.76097 -0.121102 20.441
1.2883 0.140206 19.9683
0.844582 0.0283539 21.1265
0.765816 0.428622 5.65486
1.39782 -0.235294 20.0355
1.41427 0.122147 19.5284
0.841902 -0.0427056 20.442
2.14301 0.488353 13.0267
1.25099 -0.173985 20.3354
1.18921 -0.040671 16.6075
-0.846151 0.315021 19.9157
-1.30394 1.13963 18.707
-0.85353 0.643819 19.7173
-0.544041 0.26354 19.6081
-1.96884 1.02205 20.1813
-1.10892 0.275834 20.7843
-2.37283 1.25579 20.6902
-1.30433 0.752941 20.7289
-1.67899 0.106628 21.2472
-0.54956 -0.0214706 21.3871
-1.00697 0.123883 15.1815
-0.868086 0.252749 21.6342
-0.167514 -0.169062 21.7189
0.307969 -0.155657 21.4103
1.3056 0.20934 13.6123
0.284027 -0.308267 21.5216
0.834258 -0.523752 21.1768
0.677777 -0.286827 21.0331
1.31984 -0.645521 16.1611
0.655207 -0.614809 21.121
1.02346 -0.561729 20.8016
0.570812 -0.295077 20.3918
1.15174 -0.949608 17.8783
0.664119 -0.603379 20.5567
0.762553 -0.434864 20.6624
1.72225 -0.803672 18.099
0.00538325 -1.65066 16.6794
-0.0108 -0.818901 15.9728
0.00162943 -0.204692 18.7341
0.0138754 -1.94869 2.23547
0.28317 -0.12441 6.81918
-0.0129056 -0.131097 1.84297
0 0 0
-0.0442682 -0.075771 5.99883
-0.00517069 -0.0233398 3.77416
0 0 0
-0.212619 0.334117 5.11411
-0.00538651 0.209427 4.60171
0.0172805 -0.00784889 0.373676
-0.845798 1.06958 10.2633
0.0248545 -0.0709413 4.82119
-0.00721087 -0.871754 -2.4782
-0.010567 0.318248 2.7161
-1.53081 0.750647 13.7845
-0.00368843 0.907102 8.41878
-0.0733067 -0.809206 1.98552
0.00342032 0.495122 9.0437
1.90083 0.0996513 17.7602
-0.0051376 1.30545 16.2229
-0.00157543 0.0659441 18.5878
-0.799974 0.399652 5.68671
-0.0239569 -0.578442 -0.76237
-0.0491014 -1.35527 -4.47116
-2.19639 0.485211 13.0572
-0.0605306 -2.05747 2.41132
-0.00612403 -0.0463781 5.74836
1.34251 1.14141 18.6806
0.00443665 1.78188 18.7928
8.97514e-05 0.528753 18.9008
0.0120951 5.51233 20.0083
2.39504 1.22537 20.6809
0.00577924 2.49593 20.2951
0.00587248 3.22606 8.92359
0.922962 0.166691 14.5275
0.00377215 1.41284 18.0325
-1.32467e-19 4.75953e-18 -8.45762e-17
-1.34165 0.199147 12.9581
0.0092807 -0.55146 15.1283
0.0131601 -0.0464211 1.27512
-1.35289 -0.671654 15.9006
0.0190232 -1.01548 16.2186
0.0203298 -1.19703 6.99849
-1.17373 -1.00455 17.6704
0.0345793 -0.958947 17.2153
-0.0119515 -1.53311 10.7667
1.00734 -0.153028 19.8667
1.34794 -0.470028 19.4137
1.56269 -0.21731 19.2366
0.642664 -0.11471 19.5222
2.69097 -0.851791 20.3338
1.01862 -0.241382 20.951
1.31869 -0.513161 21.2638
1.44276 -0.37473 21.4193
0.744628 -0.319952 21.4277
0.29666 -0.0891363 21.3241
0.314998 -0.0844837 21.4844
0.26318 -0.129586 21.3826
-0.0129393 0.112838 21.47
-0.311712 0.140269 21.3695
-0.426678 0.373219 21.3191
-0.61612 0.285728 20.8757
-1.02714 0.526661 20.669
-0.730516 0.23704 21.0255
-1.03621 0.62769 20.6661
-1.31455 0.392708 20.2612
-1.19857 0.487608 20.6048
-0.619171 0.158679 20.3536
-0.716382 0.571218 20.5483
-1.09494 0.447491 20.3435
-0.766629 0.502072 20.6181
1.03289 0.0323542 19.8545
1.50126 0.294627 19.2681
0.63969 0.0408591 19.5096
3.12739 0.0195935 20.2631
1.11501 -0.0729512 20.9485
1.63926 -0.00434091 21.2417
0.90906 -0.425715 21.3381
0.354798 -0.1227 21.3926
0.494623 -0.498794 21.2086
-0.190927 -0.0317065 21.0751
-0.413863 0.0254633 21.4491
-0.78928 -0.120893 20.4654
-1.29315 0.130682 20.0101
-0.845364 0.0330404 20.9501
-1.42358 -0.250426 20.1061
-1.44187 0.13481 19.3797
-0.827104 -0.02329 20.3361
-1.2354 -0.168701 20.3458
-1.17852 -0.0148442 16.9645
0.891524 0.318224 19.9272
0.903786 0.66596 19.7019
0.572289 0.263101 19.5909
2.01937 1.01865 20.2212
1.09943 0.253267 20.8034
1.32814 0.728662 20.7411
1.68717 0.0714927 21.2791
0.533278 -0.0358111 21.4077
0.867553 0.242508 21.666
0.136635 -0.197263 21.6588
-0.334236 -0.167824 21.4119
-0.308352 -0.339693 21.5206
-0.874212 -0.543278 21.0842
-0.710459 -0.276083 20.9754
-0.650685 -0.6492 21.126
-1.07106 -0.569816 20.7663
-0.567538 -0.301892 20.3856
-0.690564 -0.604937 20.5218
-0.767544 -0.45771 20.6666
-1.33917 -0.238867 19.2935
-1.48444 -0.414972 21.3444
-0.308401 -0.120355 21.4568
0.507408 0.31925 21.0787
1.17926 0.530182 20.6112
0.899896 0.476971 20.4333
-1.45898 0.105624 19.2498
-1.61298 -0.146376 21.3714
-0.304435 -0.329926 21.1355
0.737547 0.103629 20.488
1.46718 0.115702 19.6586
1.49398 0.262396 20.1295
-1.13792 0.585048 19.4903
-1.62562 0.460362 20.8814
-0.963777 -0.095748 21.7278
0.480155 -0.33628 21.4723
0.957583 -0.594709 20.8412
0.890601 -0.509506 20.5972
-0.00275279 -1.36347 16.2507
0 0 0
0 0 0
-0.00233889 0.0270465 0.444928
0.0151037 -0.522444 0.290861
-0.0384977 0.0489464 5.20216
-0.00795268 0.259173 15.6716
-0.0406966 -0.964557 -3.70694
-0.125052 -2.25632 -2.93328
0.0012332 1.97569 17.6561
0.00839824 2.44319 18.681
0 0 0
-0.00997672 0.324697 0.120484
0.028372 -0.621143 4.5191
-0.0022195 -2.28846 10.0786
1.44107 -0.388314 19.3072
1.38288 -0.446005 21.3231
0.293152 -0.0938649 21.4551
-0.528113 0.338494 21.0929
-1.19546 0.530605 20.6254
-0.834086 0.508324 20.5032
1.58937 0.0403914 19.2023
1.55139 -0.190625 21.4428
0.255413 -0.286504 21.2089
-0.752088 0.113653 20.5116
-1.47671 0.102205 19.8852
-1.4961 0.299147 20.1173
1.20755 0.598853 19.4774
1.63032 0.423969 20.9028
0.949899 -0.12926 21.7252
-0.518422 -0.356739 21.3783
-0.984961 -0.620614 20.7713
-0.896344 -0.540179 20.6144
-11.7059 -0.796476 7.10883
-0.283089 -0.816814 0.857285
-0.465519 -0.355724 3.52304
0.0594111 0.00191624 0.164601
-0.00833646 -0.00110323 -0.00124196
0.0323684 0.0108941 0.387996
-7.616 4.00331 5.83648
-0.0739771 0.732684 0.966658
-0.170389 -0.0782819 1.56723
0.102346 -0.0334634 0.324215
-0.000630385 0.00131914 -0.00961273
0.0568037 0.0378185 0.325863
0.550883 -2.04629 2.34638
3.017 -1.18546 3.74332
0.128302 -0.100769 1.69601
0.0195156 -0.00142613 -0.00144459
-0.158447 0.000897713 0.410172
-0.0451434 0.0158453 0.545174
0.0709668 0.756528 0.998204
2.87322 1.42313 2.02832
0.169899 -0.0841898 1.51377
0.00110079 0.000972325 -0.00760919
-0.0537466 -0.0177025 0.167818
-0.0579998 0.0385111 0.327395
0.0181413 -0.00558842 0.321754
-8.15974e-05 -0.00486472 0.219391
5.44532e-05 -0.000632477 0.00714119
7.27636e-05 -0.000200488 0.0108662
0.0022127 0.0145441 1.16378
-0.000432764 0.00253961 0.121014
0 0 0
0.000552261 -0.00043107 0.0163267
-0.16376 -0.125824 0.455853
0 0 0
0.043872 0.0557319 0.423995
-0.11956 0.0333767 0.104106
0.0269731 0.0380053 0.13185
0.00204705 0.00963393 0.045357
0.0750063 0.0805843 0.349265
0.0159152 -0.00537371 0.101248
-0.00582112 -0.0103925 0.12395
-1.54281e-05 -6.62255e-05 0.00349171
-0.000505289 -0.0020678 0.0495296
0 0 0
-0.0110485 0.0139448 1.12675
0 0 0
0.000198886 0.000828276 0.0637021
0.0115173 0.0295756 0.202703
0.161787 -0.124968 0.446266
0.0652021 0.0159632 0.0586566
0.00249789 -0.00856022 0.119837
-0.0541482 0.0729735 0.52682
-0.0340214 0.0454775 0.158202
-0.0190132 -0.00609334 0.12025
0 0 0
-0.0784945 0.0841208 0.347556
0 0 0
0 0 0
0.000121086 -0.000602267 0.0136786
0 0 0
0.000139627 -0.00752252 0.0817679
0 0 0
0 0 0
-0.0214088 0.0107773 -0.00446407
0 0 0
0.0116935 -0.127345 -0.16476
0 0 0
3.54332e-05 0.000303812 0.00433642
-0.0703396 4.05683 0.663774
0.000202016 0.00200343 0.0230108
-0.000444758 -0.00137538 0.00643886
-0.0196413 0.001749 0.0554635
0.000800404 0.0452068 -0.00551788
-3.1752e-06 0.000277253 -0.00245297
0.00592695 0.011772 0.0837294
0 0 0
0 0 0
0.0183987 -0.00840019 0.13809
0 0 0
0 0 0
0.000448215 0.000215186 -8.16635e-05
-0.000459985 0.000437051 0.00775612
-9.03584e-05 0.00106447 0.0183983
0 0 0
0.019542 0.00175027 0.0542956
0.00122484 -0.00461948 0.0172877
0 0 0
-0.00874901 0.0171333 0.123044
0 0 0
0 0 0
-1.2119e-05 -0.00550859 0.0231119
1.02623e-06 0.000427824 0.00512352
0 0 0
2.37151e-05 -4.54336e-05 0.00925631
2.36523e-05 0.000400183 0.0036547
9.32582e-05 0.000759239 0.00733078
-1.9913e-08 -9.21068e-09 4.12822e-06
0 0 0
0 0 0
0.0358903 0.0223233 0.375436
0.000119679 -0.00177278 -0.00590362
9.14177e-05 0.0524027 0.289316
4.7176e-05 -0.000579611 0.0199673
2.46336e-05 0.00180613 -0.00289232
0 0 0
2.59568e-19 4.03558e-18 6.41498e-17
-3.78713e-06 -0.000819815 0.00348378
-8.74171e-06 0.000149247 0.00550494
-9.50269e-05 0.00152561 0.0127697
-1.64144e-05 0.000116314 0.00123052
-0.0222794 0.0155541 0.322034
0 0 0
-0.0328886 0.014292 0.190473
-0.0139025 -0.00580562 0.227193
0 0 0
-0.00501332 -0.0198306 0.0717607
-2.01607e-06 5.3292e-06 0.000853942
0 0 0
3.58141e-07 -3.22219e-06 -3.71132e-05
0 0 0
7.17621e-05 0.000822604 0.0104919
0.00409936 0.0122423 0.0590368