# vtk DataFile Version 2.0
tri_press
ASCII
DATASET UNSTRUCTURED_GRID
POINTS 3682 float
-0.795 0.405 -2.26816
-0.784953 0.305 2.255
-0.808886 0.655 -2.225
-0.775 0.719429 2.235
0.788013 0.335 -2.205
0.788668 0.325 2.275
0.808742 0.655 -2.225
0.775 0.719731 2.235
-0.855376 0.307941 -0.76044
-0.852974 0.273661 0.74728
-0.830671 0.709556 -0.738333
-0.823719 0.735377 0.748333
0.844423 0.275475 -0.711667
0.87528 0.241503 0.781667
0.83437 0.713452 -0.738333
0.823618 0.735525 0.748333
-1.62718 0.212412 -3.47411
-1.63324 0.201402 -2.27826
-1.67274 0.120917 -0.771014
-1.6747 0.0709599 0.740832
-1.6346 0.0833861 2.24841
-1.62253 0.0969706 3.44598
-1.62569 0.104667 4.63984
-1.62437 0.395321 -3.47173
-1.62798 0.398612 -2.27633
-1.6776 0.329199 -0.771155
-1.67365 0.286826 0.736753
-1.61353 0.295415 2.24198
-1.60864 0.309413 3.43802
-1.61895 0.317904 4.63141
-1.62794 0.715346 -3.45237
-1.63192 0.707099 -2.24649
-1.66101 0.726674 -0.754132
-1.65236 0.732568 0.736582
-1.60185 0.722405 2.2274
-1.60316 0.732646 3.41999
-1.61691 0.742405 4.61341
-1.63921 1.27273 -3.4441
-1.6429 1.28338 -2.24616
-1.65247 1.32653 -0.758385
-1.65483 1.36513 0.723992
-1.64519 1.37678 2.20816
-1.63901 1.37918 3.39859
-1.63855 1.38217 4.59156
-0.806877 0.205691 -3.45976
-0.802881 0.198522 -2.26383
-0.838381 0.104172 -0.756648
-0.84521 0.0575168 0.754057
-0.819391 0.0901141 2.2612
-0.810085 0.101732 3.45685
-0.812475 0.105745 4.64961
-0.80562 0.386772 -3.4597
-0.798476 0.314417 3.4471
-0.807777 0.319328 4.64004
-0.808991 0.693798 -3.44154
-0.795321 0.732614 3.42536
-0.807343 0.742121 4.61987
-0.8164 1.2552 -3.43367
-0.817763 1.2668 -2.23631
-0.826273 1.31863 -0.750329
-0.833757 1.36446 0.729993
-0.831052 1.37639 2.21307
-0.826374 1.37776 3.40374
-0.82505 1.38009 4.59751
0.813611 0.162827 -3.41748
0.817062 0.145778 -2.21134
0.847127 0.0709138 -0.712434
0.855204 0.0320859 0.786694
0.800513 0.092367 2.28397
0.8029 0.102432 3.47591
0.808911 0.101652 4.66761
0.806449 0.344678 -3.41958
0.798337 0.318775 3.4634
0.806443 0.31659 4.65633
0.811732 0.673399 -3.42155
0.791854 0.732446 3.43451
0.802216 0.738562 4.633
0.823801 1.24102 -3.41737
0.826627 1.25636 -2.22335
0.824551 1.31092 -0.739501
0.810308 1.35759 0.739723
0.796209 1.36994 2.22274
0.795814 1.3712 3.41483
0.799517 1.37287 4.6105
1.63009 0.137513 -3.39784
1.63566 0.119684 -2.19282
1.67562 0.0620609 -0.696193
1.68919 0.0285241 0.798531
1.63674 0.0716514 2.29239
1.62307 0.090024 3.48422
1.62574 0.0933517 4.67629
1.6214 0.323132 -3.40014
1.61886 0.315861 -2.19396
1.66946 0.275723 -0.70122
1.69251 0.24585 0.789075
1.62819 0.290224 2.28014
1.61486 0.306899 3.47155
1.62083 0.308835 4.66481
1.62603 0.670684 -3.40706
1.62724 0.672496 -2.2108
1.65816 0.705535 -0.724207
1.65696 0.714593 0.759925
1.60986 0.712619 2.24657
1.6051 0.726489 3.44316
1.61455 0.732598 4.64131
1.64363 1.24263 -3.40938
1.64758 1.25943 -2.21685
1.64886 1.3079 -0.733215
1.63566 1.34892 0.746627
1.6175 1.36198 2.23022
1.61317 1.36461 3.42266
1.61565 1.36672 4.61863
-0.812339 0.53 -2.25698
-0.00349352 0.330057 -2.27652
-0.879069 0.30259 -1.5143
-0.812168 0.512215 2.27719
0.00185749 0.270854 2.30915
-0.860476 0.247818 1.50114
-7.20024e-05 0.707675 -2.27767
-0.836874 0.699374 -1.48167
0 0.715335 2.23075
-0.814267 0.74231 1.49167
0.821711 0.495 -2.23833
0.858697 0.262758 -1.45833
0.811367 0.522365 2.28453
0.851752 0.263473 1.52833
0.836736 0.699406 -1.48167
0.81423 0.742549 1.49167
-0.855194 0.289783 -0.00658
-0.870502 0.508749 -0.749387
-0.00547692 0.127157 -0.736053
-0.876834 0.504519 0.747807
0.011153 0.112896 0.764474
-0.827948 0.723219 0.005
0.00184966 0.967298 -0.738333
-5.04822e-05 1.16836 0.748333
0.847593 0.270748 0.0350001
0.87371 0.494464 -0.725
0.877126 0.488514 0.765
0.831689 0.727184 0.005
-0.890278 0.519374 -1.49798
0.895181 0.494732 -1.47
-0.00448522 0.168378 -1.48632
0.000888829 0.797246 -1.48167
-0.00178276 0.5125 -2.28247
-0.874666 0.506634 -0.00079
0.877168 0.491489 0.02
0.00283803 0.119607 0.01421
0.000899589 1.19523 0.005
-0.871519 0.508367 1.4964
0.868889 0.50544 1.51
0.00650524 0.152877 1.51474
-2.52411e-05 0.807872 1.49167
0.000928745 0.51729 2.35241
-0.795076 0.4675 -2.25397
-0.399247 0.322334 -2.31754
-0.87198 0.31885 -1.89123
-0.813883 0.408607 2.28142
-0.391548 0.282108 2.28789
-0.826474 0.27265 1.87807
-0.817856 0.5925 -2.24823
-0.404479 0.691412 -2.26141
-0.835915 0.690222 -1.85333
-0.798313 0.615822 2.26083
-0.3875 0.704975 2.22047
-0.802393 0.738629 1.86333
0.39226 0.282759 -2.29053
0.8152 0.415 -2.232
0.853153 0.269081 -1.83167
0.395263 0.291181 2.29882
0.814314 0.423683 2.29406
0.829636 0.28481 1.90167
0.404335 0.691278 -2.26128
0.821589 0.575 -2.23803
0.835736 0.6902 -1.85333
0.3875 0.704795 2.22014
0.795702 0.621048 2.26229
0.802301 0.738826 1.86333
-0.856771 0.315718 -1.13737
-0.856798 0.297349 -0.38351
-0.867819 0.405905 -0.754914
-0.475734 0.126934 -0.748247
-0.876637 0.240828 1.12421
-0.854926 0.28088 0.37035
-0.872049 0.385517 0.747544
-0.460183 0.114735 0.755877
-0.836449 0.707141 -1.11
-0.863597 0.615658 -0.74386
-0.828831 0.715909 -0.366667
-0.464197 0.938001 -0.738333
-0.822556 0.742407 1.12
-0.866321 0.62797 0.74807
-0.827557 0.731021 0.376667
-0.508557 1.14521 0.748333
0.840373 0.280303 -1.085
0.4566 0.127063 -0.72386
0.847209 0.27191 -0.338333
0.866391 0.381307 -0.718333
0.876131 0.239874 1.155
0.474572 0.114488 0.77307
0.849728 0.267834 0.408333
0.878047 0.364086 0.773334
0.836333 0.707209 -1.11
0.464145 0.932447 -0.738333
0.870203 0.612039 -0.731667
0.832588 0.719877 -0.366667
0.822369 0.742482 1.12
0.50735 1.14308 0.748333
0.866279 0.619973 0.756667
0.82736 0.731061 0.376667
-0.869013 0.524687 -1.87748
-0.407061 0.52125 -2.23743
-0.00398937 0.175344 -1.88142
-0.00263814 0.421278 -2.31629
-0.891896 0.410982 -1.50614
-0.441777 0.169675 -1.50031
-0.855166 0.510291 1.8868
-0.40562 0.514752 2.31936
0.00418136 0.176558 1.91194
0.00139312 0.394072 2.39888
-0.871148 0.378092 1.49877
-0.426986 0.149014 1.50794
0.000408413 0.772985 -1.87967
-0.000927381 0.610087 -2.37172
-0.865328 0.609374 -1.48983
-0.417993 0.77413 -1.48167
-1.26205e-05 0.764398 1.86121
0.000464372 0.616313 2.33901
-0.859776 0.625338 1.49404
-0.407146 0.794981 1.49167
0.878925 0.494866 -1.85417
0.409964 0.50375 -2.23713
0.886879 0.378745 -1.46417
0.427106 0.167084 -1.47233
0.854562 0.513903 1.89727
0.406148 0.519828 2.31739
0.866352 0.384457 1.51917
0.429129 0.149673 1.52154
0.868003 0.597069 -1.47583
0.418812 0.773951 -1.48167
0.860003 0.623994 1.50083
0.407103 0.794837 1.49167
-0.870161 0.395593 -0.003685
-0.468449 0.120153 0.00381503
-0.874381 0.514062 -1.12369
-0.873237 0.507691 -0.375088
-0.00498107 0.137122 -1.11119
-0.00131945 0.119754 -0.360922
-0.877364 0.505576 0.373508
-0.879892 0.506443 1.12211
0.0069955 0.119045 0.389342
0.00882911 0.130614 1.13961
-0.864038 0.621292 0.002105
-0.520877 1.17393 0.005
0.00136924 0.80732 -1.11
0.00137462 1.18196 -0.366667
0.000424553 1.18998 0.376667
-3.78616e-05 1.01799 1.12
0.869095 0.377761 0.0275001
0.462762 0.120085 0.0246051
0.874014 0.494598 -1.0975
0.876044 0.492976 -0.3525
0.877442 0.490001 0.3925
0.880439 0.496977 1.1375
0.870399 0.617322 0.0125
0.521464 1.17155 0.005
-0.882765 0.439241 -1.88436
-0.870254 0.409664 -1.13053
-0.870909 0.609263 -1.11684
-0.864861 0.600937 -1.86541
0.884472 0.396873 -1.84292
0.863133 0.586034 -1.85375
0.874358 0.600513 -1.10375
0.865871 0.381857 -1.09125
-0.420512 0.18418 -1.88633
0.409683 0.183398 -1.85654
0.423289 0.136588 -1.09809
-0.436102 0.13766 -1.12428
-0.411236 0.751975 -1.8665
-0.416202 0.782288 -1.11
0.418461 0.781931 -1.11
0.411574 0.751925 -1.8665
-0.403154 0.444389 -2.2433
-0.40577 0.601294 -2.29917
0.40715 0.592544 -2.23702
0.401112 0.418139 -2.32945
-0.869694 0.400397 -0.379299
-0.872266 0.389975 0.371929
-0.868206 0.626144 0.375088
-0.864495 0.618813 -0.370878
0.868778 0.379017 -0.345417
0.869203 0.614131 -0.359583
0.869236 0.619096 0.384583
0.870118 0.37265 0.400417
-0.473317 0.121093 -0.372216
0.460964 0.121007 -0.349628
0.467497 0.119627 0.398838
-0.463443 0.119188 0.379846
-0.543235 1.15736 -0.366667
-0.518399 1.16694 0.376667
0.51812 1.16474 0.376667
0.544217 1.15482 -0.366667
-0.894569 0.383591 1.12316
-0.851394 0.39335 1.88243
-0.8462 0.62058 1.87507
-0.867277 0.622643 1.12105
0.894637 0.374732 1.14625
0.868018 0.618007 1.12875
0.845604 0.622521 1.8803
0.851936 0.40407 1.89947
-0.423948 0.128409 1.13191
0.436173 0.129611 1.1473
0.412196 0.176632 1.9068
-0.409267 0.176118 1.89501
-0.409515 0.996936 1.12
-0.397323 0.755086 1.86227
0.397301 0.754804 1.86227
0.409443 0.994886 1.12
-0.398584 0.40134 2.37169
0.400705 0.408877 2.36749
0.396824 0.61868 2.30889
-0.39656 0.616067 2.30933
-0.804607 0.43625 -2.27064
-0.597123 0.370672 -2.28584
-0.838766 0.356648 -2.0797
-0.805812 0.356804 2.2746
-0.58825 0.289811 2.27519
-0.81299 0.281549 2.06654
-0.806061 0.62375 -2.22931
-0.606682 0.669476 -2.23948
-0.830463 0.680674 -2.03917
-0.789159 0.667625 2.25042
-0.58125 0.699121 2.21465
-0.793323 0.733656 2.04917
0.590136 0.320407 -2.23624
0.80378 0.375 -2.22068
0.827113 0.295511 -2.01833
0.591965 0.304717 2.29028
0.808633 0.374341 2.29167
0.817928 0.296129 2.08833
0.606538 0.669494 -2.23949
0.81174 0.615 -2.22809
0.830271 0.680632 -2.03917
0.58125 0.698878 2.21418
0.787176 0.67039 2.25047
0.793194 0.733822 2.04917
-0.85454 0.313363 -0.948905
-0.856003 0.30273 -0.571975
-0.861503 0.356971 -0.757677
-0.710536 0.127477 -0.754344
-0.87247 0.24958 0.935745
-0.854201 0.27702 0.558815
-0.864538 0.328576 0.747412
-0.69314 0.121076 0.751579
-0.835409 0.710198 -0.924167
-0.853492 0.665786 -0.741097
-0.829546 0.712528 -0.5525
-0.668811 0.866533 -0.738333
-0.825834 0.741588 0.934167
-0.851184 0.684755 0.748202
-0.824811 0.732372 0.5625
-0.676632 0.961284 0.748333
0.841401 0.278887 -0.898333
0.687552 0.127187 -0.717763
0.846086 0.273423 -0.525
0.859519 0.326335 -0.715
0.877049 0.239345 0.968334
0.704717 0.118413 0.777369
0.850076 0.267096 0.595
0.87779 0.302231 0.7775
0.835288 0.710267 -0.924167
0.669061 0.862555 -0.738333
0.857269 0.665237 -0.735
[...]
POINT_DATA 3682
SCALARS point_scalars float 1
LOOKUP_TABLE default
8.46453
-38.2156
-94.3451
-36.8437
-74.5313
-37.0368
-96.0511
-37.1693
-33.2049
-30.4424
-41.5229
-40.5116
-33.8336
-33.2617
-42.121
-40.9236
19.6027
-86.8009
-33.0523
-31.9537
-37.7346
-39.2017
-31.0605
19.6027
-122.546
-32.8364
-32.2672
-37.2461
-39.091
-31.0605
-70.6919
-115.039
-35.6708
-37.5656
-38.4453
-36.2847
-31.0605
-86.9364
-97.3597
-40.4887
-40.994
-35.7936
-36.6756
-37.0651
168.403
-60.883
-33.959
-32.3597
-37.5377
-31.0605
-29.395
168.403
-29.9613
-29.3524
127.615
-29.898
-29.3697
-38.2234
-114.764
-41.3897
-54.1856
-35.6914
-31.6444
-31.6444
168.447
-81.3413
-34.1866
-37.0834
-37.1651
-30.2507
-29.0216
168.447
-30.2507
-29.0127
132.473
-30.1477
-29.0019
8.08074
-117.029
-50.9251
-53.8701
-36.1998
-31.8333
-31.8333
-61.9673
-62.7684
-33.7666
-37.4769
-37.4267
-36.1018
-31.3027
-61.9673
-94.4646
-33.6094
-36.4598
-37.1035
-38.7206
-31.3027
-51.9511
-117.149
-36.6456
-37.3898
-38.435
-38.9158
-31.957
-87.4332
-99.3981
-41.8375
-41.6398
-36.0989
-36.9532
-37.3274
12.8812
71.635
-42.7928
-37.0353
-26.8147
-40.7255
-93.9398
-29.9188
-30.942
-40.1844
-41.8213
-39.5913
-37.3802
-37.7798
-29.8933
-40.0585
-34.6731
-33.6242
-38.3497
-35.6942
-37.9364
-44.8716
37.8735
-55.8236
-34.3922
-34.1189
-36.1187
-46.3076
-38.0508
-37.8064
-47.1835
-12.6511
200.697
-37.0603
-37.454
-35.748
-80.8378
-37.8438
-37.1264
-36.5004
-38.5673
-24.847
7.50233
60.8439
-62.6992
-39.3418
-30.0109
-35.953
-14.3467
-98.2231
-49.3585
-36.1242
-30.5413
-36.1265
21.3469
-41.8565
-68.5593
-30.0036
-38.4503
-35.9179
-93.4842
-35.6526
-49.3334
-30.5862
-36.3177
-36.1492
-32.6605
-34.6737
-32.918
-38.1772
-38.4685
-34.3506
-32.9736
-37.0679
-25.3632
-36.0187
-48.6771
24.489
-45.0531
-37.9851
-43.9713
-55.7646
-33.1809
-37.8998
-34.9141
-33.3809
-38.5139
-37.5255
-33.7971
-34.5006
-25.0354
24.3763
-36.7908
-49.1355
-44.6396
-55.3454
-38.4248
-44.3002
-54.6204
183.897
-78.8329
203.765
-41.0354
-43.448
-35.5929
-27.7412
-33.1669
-22.8853
-38.5558
-37.2054
-43.065
157.966
-35.2519
-17.4743
-35.1026
-25.8202
-37.9113
-39.1381
-53.5055
184.699
-39.4121
-42.8185
-35.5607
-28.0039
-37.3568
-36.8995
-34.7218
-17.5872
-37.5297
-39.1063
-35.3626
-35.2659
-30.657
-37.5491
-41.2493
-37.155
-36.817
-38.9257
-35.7429
-38.7847
-39.9014
-68.7446
12.3001
-120.443
-65.0078
-42.8605
-35.6115
-35.215
-30.5963
-37.5176
-36.407
-39.0517
-40.9489
-70.8497
-56.4146
-32.0153
-29.756
-53.3794
-59.0888
-52.5915
-29.6881
-31.3573
-73.4868
-71.8282
-41.0935
-41.0769
-46.3667
3.682
3.44173
-46.5529
184.758
173.191
183.305
184.707
-35.6089
-35.2331
-39.5926
-41.3397
-35.667
-41.3594
-39.5448
-34.7728
-36.7703
-36.6731
-35.1717
-35.1904
-108.395
-59.1602
-59.2885
-107.271
-38.6467
-35.3296
-35.5212
-40.5509
-38.898
-40.2092
-35.5025
-35.4514
-38.7137
-38.6706
-34.6086
-34.541
-44.0875
-34.8998
-34.8873
-44.0746
-27.3946
-27.6991
-28.1675
-27.9271
14.6849
93.578
-71.1207
-37.7103
-32.1937
-36.5463
-52.1982
-65.0697
-70.75
-37.1488
-31.2298
-35.4693
-6.10137
-65.3224
-67.7004
-31.883
-37.8513
-37.2261
-66.6825
-39.537
-71.6977
-31.4096
-37.3606
-35.5846
-32.6576
-34.0784
-32.9099
-36.6129
-37.186
-33.5098
-31.7361
-36.3019
-33.0175
-38.5337
-47.2243
-36.8107
-43.2076
-39.4228
-42.108
-46.4509
-32.0192
-36.5911
-34.5294
-33.3778
-40.2876
-37.8315
-32.0877
-34.5211
-31.6903
-33.6402
-39.308
-47.9217
-43.7234
-47.3123
-39.7596
-42.5113
8.38626
-13.4404
-91.1777
170.531
64.3902
52.7065
-134.322
168.376
-56.3467
-37.658
-41.8765
-43.1427
-37.8261
-36.3334
-36.4239
-29.1201
-27.9997
-27.995
-31.5211
-25.7785
-35.2107
-39.4601
-39.4916
-37.7166
-99.4332
-91.1487
-70.8882
74.2225
-37.6372
-25.8589
-33.69
-22.4492
-30.7142
-30.7089
-32.6486
-28.4532
-37.8074
-42.9626
-38.465
-39.8103
-57.63
-27.5931
-84.0905
168.155
-49.0813
-37.2527
-39.829
-40.911
-38.4416
-36.1247
-36.3903
-29.3484
-35.1862
-39.8622
-37.7521
-37.3751
-37.6398
-25.8397
-33.4698
-22.5221
-37.7347
-42.5043
-38.1455
-39.792
-35.0833
-34.3366
-35.0124
-34.6755
-33.1168
-34.5186
-31.9797
-36.2411
-38.2932
-38.1999
-40.3202
-37.5
-34.6842
-36.7691
-36.0336
-37.2398
-37.7252
-37.924
-36.2647
-39.824
-47.1063
-45.9793
-42.1046
-52.355
35.5775
35.6307
24.233
-1.31965
-55.9334
-55.8813
-60.257
-50.9395
-35.1845
-34.1469
-34.9698
-34.5045
-33.6064
-35.1397
-31.471
-36.3917
-35.2919
-36.9882
-35.6841
-37.7411
-48.0673
-46.243
-43.3292
-54.0655
-46.2493
-40.0504
-36.3995
-34.0668
-45.9175
-38.9698
-35.9769
-34.2336
-58.634
-45.9502
-45.372
-42.7518
-26.5835
-14.0716
-14.1229
-0.159457
197.429
201.89
203.517
196.358
-36.1108
-37.8218
-37.3658
-38.0973
-36.3975
-37.8123
-36.9317
-38.7473
-35.64
-36.2822
-35.5715
-35.6077
-78.1953
-94.6698
-70.9414
-78.4077
-35.5345
-38.044
-37.8307
-39.1104
-35.4264
-37.1319
-37.2483
-38.6764
-34.8608
-36.7909
-36.5692
-37.7409
-37.1206
-38.7661
-38.7591
-39.7381
-26.0848
-23.2704
-25.4355
-26.3218
-89.2088
174.961
-111.177
158.996
-58.8045
-76.828
-36.5961
-29.364
-34.1034
-28.5324
-35.4153
-35.7665
-85.2786
168.532
-76.1061
44.0596
-52.1789
-48.1654
-36.0993
-29.3247
-32.6491
-28.4038
-35.3299
-35.5291
-106.246
106.028
-79.2504
166.358
-62.6931
-73.236
-34.6867
-28.5674
-36.8871
-29.478
-35.5153
-35.8598
-76.2657
65.6364
-81.4866
175.129
-52.2602
-48.4479
-32.6709
-28.6252
-36.1236
-29.6279
-35.2736
-35.5531
-32.346
-39.068
-35.0689
-35.8749
-31.866
-34.6413
-40.7613
-37.1809
-38.6794
-38.2332
-34.7694
-34.4669
-34.4634
-35.4167
-35.686
-39.561
-29.3257
-7.71345
-32.7727
-39.8106
-44.0666
-69.0206
12.5755
0.105965
-42.226
-47.9483
-38.3776
-39.5895
-41.4654
-48.9061
-56.4725
-53.5821
-31.8172
-42.0674
-40.3876
-37.0524
-35.1775
-35.9541
-31.4401
-34.8367
-38.8695
-38.2524
-35.7481
-39.8918
-34.2453
-34.4012
-33.767
-37.1811
-29.0558
-7.72981
12.2025
-1.63074
-32.1951
-40.1148
-44.3941
-68.8269
-41.8125
-48.1052
-56.4829
-53.5346
-38.6265
-39.9993
-41.5411
-49.2347
-55.0004
-54.0453
185.427
183.591
-76.3916
-75.2995
196.98
197.091
-51.1607
-36.1148
-57.0143
-40.4302
-35.4793
-35.5294
-27.6391
-27.8728
-33.5776
-33.5463
-23.7744
-24.0776
-40.3856
-35.1644
-37.8201
-35.7541
-43.3993
-43.4505
169.862
190.935
-30.8848
-42.892
-29.5576
-6.8097
-35.0455
-35.0156
-26.6249
-26.4217
-36.0423
-39.4634
-40.6835
-37.2406
-55.4212
-52.8826
183.427
184.858
-48.68
-37.0658
-54.1466
-40.5413
-35.5133
-35.4866
-27.9738
-28.1107
-39.5953
-35.0974
-37.7925
-35.888
-42.365
-31.4862
-6.95166
-29.6978
-39.0305
-35.8847
-37.1999
-40.6751
-35.9056
-35.4972
-35.8621
-35.0382
-31.2649
-30.2579
-36.4398
-39.0569
-41.1162
-41.2452
-37.1457
-37.0812
-36.0003
-38.1328
-38.9219
-39.581
-35.6129
-35.6048
-38.8038
-38.7735
-40.9474
-41.2769
-81.3161
-63.8217
10.3132
10.2077
-120.521
-121.068
-63.7007
-63.7327
-43.1661
-43.1897
-36.1128
-35.2548
-35.7672
-35.0041
-30.4209
-31.0343
-36.3613
-39.3
-37.6518
-35.5018
-39.1223
-39.4298
-41.9525
-40.5637
-63.0974
-81.9076
-83.7383
-53.0415
-49.07
-91.7253
-32.0496
-31.8614
-35.6191
-36.7793
-34.1781
-29.9271
-32.4944
-32.2814
-76.6014
-87.9421
-44.0867
-40.8876
-72.848
-82.0164
-47.9238
-49.8365
-77.4521
-40.7373
-43.6314
-83.7847
-33.1729
-31.869
-33.0141
-29.9596
-31.6806
-38.2083
-36.1544
-31.4489
-103.881
-120.562
-57.922
-57.1184
-105.041
-52.2819
-56.5891
-114.319
-40.328
-40.3237
-41.9224
-31.9387
-41.073
-34.2209
-42.1066
-40.5236
-81.1632
-33.147
-27.1625
-70.53
-8.19804
22.197
-1.80454
-14.1956
-8.05577
-14.2354
-1.91125
22.2312
-81.4457
-70.4105
-27.2135
-33.2637
157.049
171.523
197.738
182.542
63.6812
70.9095
198.593
173.242
63.6375
169.059
197.689
72.5407
73.7034
157.455
196.161
171.964
-34.2567
-35.4325
-36.709
-35.2787
-33.965
-35.1883
-36.3622
-34.928
-40.114
-42.9356
-38.952
-37.1361
-42.785
-37.6432
-39.2279
-43.5511
-34.5064
-35.4344
-36.7926
-35.6143
-43.1363
-44.2911
-39.3078
-37.9142
-40.3472
-36.9081
-38.3538
-42.7993
-32.8867
-34.6744
-35.9746
-34.6613
-36.1261
-37.4695
-36.2117
-35.1125
-36.2126
-35.1891
-36.1398
-37.3825
-34.4213
-36.1371
-35.4167
-34.3701
-34.8703
-34.3567
-35.4457
-36.0932
-76.9431
-58.3991
-92.7634
2.13849
-47.1712
-59.5642
-69.3675
-51.7772
-47.8855
-52.3609
-69.4663
-59.6009
-78.3571
2.7816
-93.0461
-59.1724
-35.8541
-40.2426
-39.7366
-36.6299
-36.4539
-36.5567
-35.3383
-35.1602
-35.4539
-36.4879
-35.764
-36.2181
-41.6081
-38.1263
-39.0705
-40.3416
-38.1285
-37.3988
-39.2317
-39.5105
-41.69
-39.8907
-38.6292
-38.7634
-35.4762
-36.2449
-35.6392
-36.3362
-36.9386
-35.0037
-35.2448
-36.8297
-38.4806
-39.7602
-37.7871
-37.4084
-39.3565
-37.4494
-37.7708
-39.8916
-37.3606
-32.3458
-35.232
-36.5292
-36.7958
-36.706
-35.0237
-32.0563
-53.4117
-42.5291
-40.0138
-51.5257
-33.3185
-32.6475
-37.1323
-37.7545
-33.4092
-37.7441
-37.1198
-32.6424
-52.6243
-51.5557
-40.0331
-42.5507
-30.2479
-26.4035
-25.1581
-29.0986
-30.2348
-29.306
-25.4967
-26.3871
-30.2567
-28.567
-26.447
-29.456
-29.9389
-29.2217
-26.1979
-28.4966
19.3404
97.0625
-96.3876
-37.69
-34.3445
-36.8124
-77.4477
-50.262
-107.203
-37
-32.674
-36.0636
-18.9276
-68.4923
-84.2796
-33.5213
-37.0563
-37.5267
-38.95
-77.0977
-110.17
-32.953
-37.2507
-36.3086
-32.8269
-33.6568
-33.0245
-34.1268
-32.2837
-32.6786
-31.2382
-32.0823
-39.199
-39.9506
-44.5908
-54.5086
-41.6512
-40.2094
-41.415
-41.599
-33.164
-34.3007
-34.1532
-33.5613
-37.5689
-34.1357
-28.2073
-33.7806
-38.2672
-52.3968
-40.7067
-45.4317
-42.3272
-42.1978
-40.6028
-41.8548
19.0101
20.3818
-139.883
156.103
68.0308
75.0562
-143.033
90.6107
-48.5838
-40.2998
-42.4489
-42.9388
-37.4762
-36.5868
-38.0611
-30.5096
-26.9568
-26.9096
-30.8932
-26.0641
-37.4845
-40.548
-40.0833
-38.2872
-95.707
-94.2764
-80.72
-54.2989
-33.58
-27.4426
-32.6666
-25.3065
-30.9126
-30.9037
-31.6817
-30.3216
-38.5106
-41.1649
-39.1946
-40.8497
-31.4674
-34.0283
-130.288
145.484
-43.2501
-38.3656
-39.5503
-39.9479
-38.6887
-36.2884
-37.9964
-30.4908
-36.2932
-39.5568
-37.6909
-37.2842
-33.4697
-27.4509
-32.9116
-25.352
-38.4026
-40.9428
-38.9547
-40.8841
-35.011
-34.4128
-34.8054
-34.1794
-33.3072
-34.0327
-32.6496
-35.0737
-38.3379
-38.3049
-39.2577
-37.3183
-35.1748
-36.2185
-35.6455
-35.9973
-37.8639
-37.9669
-36.5508
-39.6323
-46.2841
-45.7171
-43.6855
-48.1911
37.5776
37.5617
33.0256
28.6343
-55.8888
-55.853
-58.142
-53.684
-34.9114
-34.1589
-34.6336
-33.8272
-33.7868
-34.5554
-32.6679
-35.3603
-35.7869
-36.4987
-35.6329
-36.6681
-47.2906
-46.5901
-45.0627
-49.7003
-41.6161
-39.2074
-36.9374
-35.5965
-41.1939
-38.4668
-37.0445
-36.5195
-52.3422
-46.8583
-46.6626
-44.1674
-19.3316
-12.9556
-12.9661
-6.58873
200.107
201.263
202.099
199.899
-36.6148
-37.6818
-37.0709
-37.5155
-36.9354
-37.7189
-37.1738
-38.021
-35.7336
-35.9758
-35.6055
-35.7109
-79.8094
-87.1782
-75.4516
-79.889
-36.3855
-37.9272
-37.7877
-38.7414
-35.8675
-37.1373
-37.1418
-38.3485
-35.7828
-36.6233
-36.4905
-37.0341
-37.9803
-38.627
-38.6238
-38.8743
-25.1767
-24.0671
-25.3999
-25.4017
34.9308
117.08
-126.64
160.876
73.6637
54.261
-88.9854
109.611
-64.9775
-60.3276
-60.3089
-75.4666
-38.7696
-38.5951
-37.6665
-31.1087
-30.9065
-28.975
-34.2105
-29.1379
-36.0826
-34.8537
-35.7268
-36.1662
-19.5079
-38.4611
-126.664
128.354
-91.1236
-93.864
-91.8638
-21.1225
-58.4384
-43.3828
-50.9485
-48.5345
-36.8508
-35.9215
-38.3801
-30.9016
-30.6977
-30.5523
-31.486
-29.4836
-35.6916
-36.5529
-35.431
-36.6082
2.79881
26.5263
-116.077
58.9571
-62.2345
-48.3755
-113.849
126.201
-70.2952
-57.2547
-64.7064
-71.3615
-30.8493
-28.9887
-33.9178
-29.295
-38.5772
-38.3377
-37.2564
-31.1892
-36.2116
-35.4562
-35.6142
-36.1822
-90.1603
-92.9039
-92.8359
-2.93722
-44.1811
-31.8481
-120.168
155.298
-58.6638
-43.4178
-51.0491
-48.7736
-30.806
-30.5622
-31.5399
-29.5885
-37.0692
-35.9036
-38.4975
-31.1862
-35.752
-36.5011
-35.4051
-36.6967
-32.4249
-36.0003
-32.5299
-28.8968
-34.4435
-34.8906
-34.8011
-34.9245
-32.8856
-32.9669
-32.254
-33.8386
-37.9355
-38.2511
-39.306
-36.964
-37.1886
-37.9472
-38.3931
-38.753
-33.9994
-34.3767
-34.5287
-34.027
-32.4313
-33.7974
-33.8534
-33.9476
-36.5049
-37.4712
-35.9665
-39.0143
-27.7194
-24.989
-28.085
-15.6853
-37.2758
-35.1645
-34.4305
-38.2847
-48.4089
-48.1467
-46.5206
-55.758
3.22998
32.3155
19.3875
16.2132
-44.4506
-43.6235
-43.5315
-50.0205
-38.6249
-37.3761
-38.0348
-38.641
-43.1056
-44.8043
-42.8133
-45.9875
-53.7715
-55.9821
-56.016
-55.5603
-32.4985
-37.4728
-32.6358
-38.1118
-37.596
-38.0721
-39.0429
-36.8152
-34.806
-35.0814
-34.9823
-35.0885
-33.3225
-33.4339
-32.3184
-34.1615
-38.1231
-39.1954
-38.6598
-38.687
-37.3718
-37.7491
-36.1454
-39.6385
-33.1457
-34.1107
-33.9639
-33.936
-34.1626
-34.7869
-32.9712
-35.249
-27.1147
-24.8328
-28.0831
-15.4916
3.38766
32.202
18.8698
17.1461
-38.0371
-35.9113
-34.5115
-38.7196
-48.9125
-48.9059
-46.9006
-56.147
-44.3569
-43.2543
-43.0811
-49.1498
-52.9629
-55.8471
-55.6654
-55.4365
-38.986
-37.6871
-38.4284
-39.0194
-43.4604
-45.0985
-43.0237
-46.3296
-66.1154
-49.6909
-54.799
-54.3787
177.354
191.082
184.98
182.97
-95.9619
-66.7448
-78.0283
-77.0695
190.256
202.423
208.156
199.385
-41.4363
-40.6161
-45.3868
-38.5759
-43.073
-44.7017
-49.6885
-41.2793
-35.897
-35.2188
-35.593
-35.5593
-28.4562
-26.9303
-27.6638
-27.8048
-32.3795
-34.0099
-33.2965
-33.2867
-24.9434
-22.6312
-23.6671
-23.8669
-38.9211
-38.1958
-40.833
-36.386
-37.4893
-36.9921
-37.5332
-36.5658
-53.9079
-34.2931
-42.9612
-43.0113
138.461
204.935
166.423
169.448
-34.4605
-35.8517
-32.5504
-38.7253
-19.6614
-15.7962
-23.2307
-12.2476
-33.8641
-36.1792
-35.0954
-35.0652
-26.463
-25.533
-26.2789
-26.1747
-38.0302
-37.8665
-36.7782
-38.7186
-39.4288
-38.9372
-39.9289
-38.1964
-62.8834
-50.3999
-54.3214
-53.2949
178.76
190.692
183.871
185.049
-39.6188
-39.1625
-42.7765
-38.4086
-41.8336
-43.9278
-47.4734
-40.8617
-35.9166
-35.2727
-35.5321
-35.553
-28.6937
-27.2189
-27.954
-28.0691
-37.6418
-37.2686
-39.302
-35.5782
-37.1331
-36.7289
-37.1587
-36.5413
-34.1042
-35.2417
-38.2057
-32.4932
-19.7841
-15.878
-12.381
-23.3393
-37.7063
-37.3702
-38.3332
-36.5019
-39.3957
-38.9234
-38.157
-39.919
-35.1774
-35.6641
-35.7943
-35.3686
-35.0357
-35.4776
-35.5442
-35.0769
-30.9427
-31.6339
-30.8661
-30.4667
-37.0725
-37.8235
-36.9557
-38.2278
-40.9427
-42.057
-41.2034
-41.2782
-37.6328
-36.7036
-37.1693
-37.1344
-36.4847
-37.1041
-36.4055
-37.4296
-38.4248
-39.1666
-38.8372
-39.214
-35.9732
-35.6207
-35.7103
-35.7085
-39.3547
-38.2894
-38.7971
-38.7836
-40.8801
-38.9284
-40.559
-40.8002
-56.5071
-75.1107
-72.558
-67.2844
18.2355
6.21258
11.7972
11.7406
-86.2768
-105.668
-121.728
-122.16
-62.5204
-67.7255
-64.6813
-64.6697
-45.9107
-41.0007
-42.897
-42.92
-35.3078
-35.9261
-35.9625
-35.3505
-34.9438
-35.4395
-35.4464
-35.034
-30.6893
-31.6943
-30.4566
-30.826
-37.0883
-37.7043
-36.8748
-38.3708
-35.9974
-36.7086
-36.8976
-35.9842
-38.7906
-38.9613
-39.1123
-39.2031
-41.9667
-39.8086
-41.3373
-40.9873
-61.4401
-75.5722
-67.2372
-73.5802
-65.2116
-57.9701
-55.7818
-55.806
-32.1998
-31.3213
-33.5751
-31.5908
-29.5375
-30.8127
-30.0211
-29.9956
-63.5846
-53.0692
-53.6825
-47.6046
-63.6496
-60.6107
-57.2899
-54.9952
-62.2188
-52.5294
-52.6877
-46.8432
-29.3004
-30.4169
-30.0772
-30.1322
-31.5885
-31.2462
-33.5189
-31.2032
-90.8602
-74.7856
-74.6373
-65.8284
-87.0038
-72.2731
-73.3057
-61.3792
-41.6095
-41.108
-41.1891
-41.0435
-40.9451
-41.26
-41.1376
-41.2433
-57.6321
-47.2181
-44.4005
-36.8488
-1.46357
8.69092
-1.56967
7.73615
-1.62333
8.44152
-1.7986
7.56507
-57.8122
-47.4814
-44.5043
-37.0025
182.652
183.924
185.324
190.375
165.31
152.02
184.349
177.056
154.665
179.28
193.145
183.92
161.874
168.133
195.55
184.215
-35.3104
-35.2247
-35.881
-35.9875
-35.014
-34.922
-35.4109
-35.5211
-38.9013
-40.3737
-38.9029
-40.2287
-40.8243
-42.679
-40.0438
-41.4172
-35.4023
-35.2904
-35.9361
-35.9429
-40.9103
-42.8385
-40.2473
-41.7525
-39.0763
-40.4089
-38.5349
-40.0564
-34.475
-34.3511
-35.0832
-35.0697
-36.4941
-37.4156
-36.2096
-37.0121
-37.2626
-36.3914
-36.9259
-36.1544
-35.3648
-34.8773
-35.4308
-35.1088
-34.8945
-35.388
-35.0956
-35.4337
-97.6031
-76.2293
-89.9157
-112.899
-54.8047
-57.5859
-61.3448
-62.0421
-57.6994
-55.2086
-62.1128
-61.4637
-75.7503
-95.9503
-114.061
-90.7112
-38.6442
-37.4179
-38.9589
-38.8456
-35.4214
-35.3317
-35.3585
-34.9639
-35.5184
-35.4171
-35.5117
-35.515
-41.3013
-40.3467
-40.0979
-39.9928
-38.9272
-38.7011
-39.8058
-38.9906
-40.9348
-40.1637
-39.723
-39.8036
-35.5537
-35.3821
-35.5368
-35.4387
-35.4232
-35.4864
-35.4352
-35.086
-38.5179
-39.2527
-38.2456
-38.7791
-38.5222
-39.2548
-38.2286
-38.7483
-34.4005
-35.2668
-34.0154
-35.0689
-34.1613
-35.1395
-33.9747
-35.0397
-45.3866
-47.9134
-42.1487
-43.6122
-33.7801
-35.0549
-34.9729
-36.1294
-33.7838
-35.0613
-34.9522
-36.0987
-45.4246
-47.6272
-42.1228
-43.6138
-28.5493
-27.7309
-27.4018
-26.0854
-27.8652
-28.7731
-26.6191
-27.7967
-28.3054
-28.8536
-27.2203
-28.0897
-28.6112
-28.0802
-27.8444
-26.9385
-110.605
151.052
-33.8135
135.889
-78.2807
-87.1996
-37.7949
-31.9227
-36.4014
-31.1377
-36.2905
-38.1596
-117.45
36.1338
-106.746
-1.67035
-73.1422
-78.9672
-38.1429
-31.8578
-32.2051
-30.4239
-35.4234
-34.4964
-84.7476
26.1878
-98.4958
56.2718
-69.7944
-92.8552
-36.2497
-30.9158
-37.2682
-31.7176
-36.8347
-39.0743
-107.728
3.94691
-116.373
74.2152
-73.5872
-79.6693
-32.3523
-30.7208
-38.3665
-32.4407
-35.5023
-34.6171
-32.2125
-34.8951
-34.1096
-34.7918
-32.3319
-33.6426
-39.4336
-35.8436
-36.0143
-39.5545
-33.7037
-33.8028
-33.2745
-33.0466
-35.3379
-38.6361
-33.721
-22.6048
-36.8055
-41.017
-44.9859
-56.8903
-13.4356
-62.2146
-42.4935
-47.1414
-39.642
-40.2337
-41.2657
-43.6945
-46.8692
-48.6462
-31.765
-35.6099
-38.0183
-36.0179
-34.4594
-35.3195
-32.4928
-33.969
-39.0016
-41.7239
-34.9954
-40.4902
-32.4388
-32.8786
-31.0269
-36.3783
-32.825
-21.4569
-12.1041
-59.5386
-36.6173
-41.573
-45.4872
-58.1212
-42.7624
-48.1514
-47.5216
-49.7717
-39.9069
-40.6531
-41.5545
-44.1576
-140.637
157.435
-136.545
160.404
-91.4493
-90.2681
170.28
171.284
-118.456
113.041
-126.965
93.2278
-127.445
-122.234
155.963
132.866
-54.9672
-56.3671
-37.3254
-35.2579
-46.9217
-39.3787
-49.2527
-39.3709
-37.7639
-30.4614
-38.4997
-30.4867
-36.4035
-36.3132
-29.0306
-29.1653
-31.8691
-27.1125
-31.9754
-27.1065
-31.742
-31.6636
-25.9052
-26.0231
-35.1944
-36.9058
-40.2094
-37.3921
-40.5403
-36.8212
-37.5486
-37.1615
-86.2723
-35.4243
-85.5402
-37.4073
-70.1226
-70.0537
72.0005
74.6707
-39.6098
-34.7051
-28.7275
-18.7141
-31.3762
-37.3508
-27.4608
-18.1496
-31.5467
-29.7477
-31.5517
-29.7659
-32.6904
-32.683
-28.5756
-28.5631
-36.8595
-38.5367
-41.3577
-44.6478
-37.2163
-39.3433
-41.0646
-38.8269
-127.78
147.9
-123.109
148.03
-84.0424
-83.1793
166.767
170.915
-49.4292
-50.3102
-38.4014
-27.6428
-43.3612
-39.2423
-46.325
-36.5206
-37.6258
-30.5544
-38.5215
-30.6684
-36.3294
-36.508
-29.2997
-29.3717
-34.9073
-36.6314
-39.8129
-37.2087
-39.0621
-35.8506
-37.2348
-37.1381
-39.7348
-34.7938
-29.0351
-18.6833
-37.2549
-31.3185
-18.2099
-27.5414
-36.7208
-38.5685
-40.9157
-44.4971
-38.9873
-37.021
-38.8124
-41.0814
-35.2424
-34.511
-34.6067
-33.5818
-35.3738
-34.8932
-34.9433
-34.5112
-32.3309
-34.2929
-33.3051
-36.3231
-31.8687
-32.1063
-35.6828
-36.8605
-39.3285
-37.1376
-39.2526
-37.0291
-40.2708
-40.4096
-37.4997
-37.4725
-34.7266
-35.2987
-36.7839
-37.3467
-35.6041
-36.5487
-36.893
-37.6028
-36.2994
-39.5212
-36.4077
-39.7858
-36.2364
-36.2149
-39.7971
-39.8534
-45.502
-51.8049
-44.463
-48.737
-42.7218
-42.9246
-55.2756
-53.0585
31.31
29.1624
31.3337
29.4418
23.699
23.62
-0.475321
-0.143667
-57.8291
-54.3222
-57.7838
-54.297
-60.0874
-60.1396
-51.0422
-51.06
-35.3709
-34.9441
-34.3663
-33.7417
-35.4049
-34.7011
-34.7401
-34.3524
-32.4052
-34.5981
-33.424
-36.6862
-31.5916
-31.4171
-35.8385
-37.0883
-34.4554
-35.9637
-36.6036
-37.5674
-36.2218
-35.2255
-37.6303
-38.1478
-46.3388
-52.8913
-44.5557
-49.113
-43.5665
-43.3432
-54.7251
-56.3066
-47.6717
-45.0574
-43.7166
-37.5889
-33.8993
-39.7965
-34.943
-33.2933
-47.0078
-44.8041
-42.5479
-37.6686
-39.0505
-34.8613
-33.4691
-35.3014
-58.5239
-57.9002
-51.3603
-43.1617
-50.3248
-42.7551
-42.5072
-42.6026
-26.5863
-26.6071
-20.5877
-7.92446
-8.00593
-20.6334
-0.591059
-0.649487
197.544
197.548
200.378
199.729
201.148
201.318