# vtk DataFile Version 2.0
tet_velo
ASCII
DATASET UNSTRUCTURED_GRID
POINTS 29498 float
-0.795 0.205 -2.12756
-0.765 0.335 2.16516
-0.725 0.735 -2.12053
-0.695 0.995 2.16924
0.795 0.205 -2.12756
0.765 0.335 2.16516
0.725 0.735 -2.12053
0.695 0.995 2.16924
-0.832152 0.201181 -0.696653
-0.842492 0.224175 0.734253
-0.761526 0.868192 -0.690607
-0.737475 0.940809 0.739317
0.83278 0.200553 -0.696653
0.842478 0.224189 0.734253
0.761392 0.868059 -0.690607
0.737477 0.94081 0.739317
-1.58193 -0.173712 -3.27485
-1.5848 -0.125678 -2.13052
-1.61001 -0.122477 -0.699584
-1.61389 -0.107152 0.731546
-1.57067 -0.0252553 2.16249
-1.55569 0.0413653 3.30691
-1.55775 0.0992765 4.45117
-1.57672 0.132007 -3.27169
-1.57526 0.195103 -2.12746
-1.60595 0.212582 -0.696722
-1.60229 0.233295 0.734108
-1.53974 0.317138 2.16487
-1.53534 0.382918 3.30927
-1.54649 0.439812 4.45356
-1.54606 0.712626 -3.26509
-1.51984 0.773988 -2.12082
-1.54435 0.872602 -0.690752
-1.52197 0.933326 0.739249
-1.47646 0.993168 2.16934
-1.49959 1.05675 3.31378
-1.52705 1.11558 4.45823
-1.53295 1.65644 -3.25593
-1.52181 1.72913 -2.11181
-1.52342 1.84218 -0.682059
-1.51915 1.94101 0.747481
-1.50995 2.01582 2.17724
-1.51407 2.07077 3.32138
-1.52585 2.12551 4.46573
-0.800235 -0.168161 -3.27491
-0.791113 -0.117765 -2.13061
-0.813701 -0.127477 -0.699572
-0.829368 -0.114011 0.73167
-0.798172 -0.0169886 2.16271
-0.789286 0.0479085 3.30705
-0.79257 0.103003 4.45125
-0.804697 0.132836 -3.27171
-0.777686 0.390524 3.30939
-0.786591 0.443906 4.45362
-0.78203 0.697226 -3.26497
-0.751711 1.0602 3.31376
-0.774165 1.11851 4.45823
-0.765122 1.64555 -3.25581
-0.753201 1.71864 -2.11168
-0.757159 1.83953 -0.681979
-0.759834 1.94387 0.747471
-0.756562 2.01869 2.17717
-0.760952 2.07293 3.32131
-0.77001 2.12732 4.46568
0.773392 -0.168268 -3.27491
0.808199 -0.117917 -2.13061
0.830033 -0.127905 -0.699572
0.81938 -0.114093 0.73167
0.766298 -0.017006 2.16271
0.748088 0.0478803 3.30705
0.740651 0.10296 4.45125
0.753753 0.132772 -3.27171
0.736658 0.390506 3.30939
0.734036 0.443869 4.45362
0.730176 0.697178 -3.26497
0.714408 1.06019 3.31376
0.726301 1.11848 4.45823
0.761267 1.64545 -3.25581
0.76952 1.71853 -2.11168
0.767056 1.83942 -0.681979
0.751879 1.9438 0.747471
0.739357 2.01863 2.17717
0.736941 2.07288 3.32131
0.73788 2.12726 4.46568
1.56123 -0.173967 -3.27485
1.59421 -0.126033 -2.13052
1.62341 -0.123099 -0.699584
1.61508 -0.107388 0.731546
1.55801 -0.0253257 2.16249
1.52651 0.0412899 3.30691
1.51419 0.0991789 4.45117
1.54135 0.131813 -3.27169
1.57387 0.19486 -2.12746
1.61088 0.211919 -0.696722
1.60952 0.233108 0.734108
1.5446 0.317104 2.16487
1.51092 0.382863 3.30927
1.50396 0.439727 4.45356
1.50947 0.712474 -3.26509
1.51753 0.773842 -2.12082
1.54754 0.872252 -0.690752
1.52912 0.933186 0.739248
1.48349 0.993137 2.16934
1.47911 1.0567 3.31378
1.489 1.1155 4.45823
1.52858 1.65623 -3.25593
1.5346 1.72891 -2.11181
1.53365 1.84195 -0.68206
1.51689 1.94084 0.74748
1.49933 2.0157 2.17724
1.49548 2.07066 3.32138
1.49808 2.12539 4.46573
-0.787761 0.47 -2.15181
0 0.200772 -2.13179
-0.831471 0.185196 -1.41211
-0.729799 0.665 2.167
0 0.320843 2.17932
-0.816697 0.266637 1.44971
0 0.767569 -2.1531
-0.774406 0.832739 -1.40557
0 1.00134 2.17558
-0.734215 0.985882 1.45428
0.787847 0.47 -2.15189
0.831461 0.185206 -1.41211
0.728949 0.665 2.16615
0.816935 0.266398 1.44971
0.77441 0.832743 -1.40557
0.734278 0.985944 1.45428
-0.835044 0.214956 0.0188
-0.831822 0.534687 -0.69363
0.000314097 0.19527 -0.696653
-0.876011 0.582492 0.736785
-6.82516e-06 0.236453 0.734253
-0.74902 0.90402 0.0243551
-6.66078e-05 1.08349 -0.690607
9.19328e-07 1.35627 0.739317
0.839901 0.210099 0.0188
0.83178 0.534306 -0.69363
0.876007 0.5825 0.736785
0.74903 0.90403 0.0243551
-0.859805 0.502343 -1.40884
-0.839158 0.558589 0.0215775
-0.874849 0.623746 1.45199
0.000157048 0.184526 -1.41211
0.000153636 0.216654 0.0188
-3.41258e-06 0.276905 1.44971
0 0.47 -2.24601
0 0.665 2.17143
-3.33039e-05 0.908525 -1.40557
-3.28442e-05 1.34293 0.0243551
4.59664e-07 1.22974 1.45428
0.860085 0.502153 -1.40884
0.83932 0.558403 0.0215775
0.87484 0.62375 1.45199
-1.18513 0.200052 -2.12751
-0.793057 0.0436174 -2.12908
-0.799849 0.168918 -2.69963
-1.15237 0.326069 2.16501
-0.781586 0.159006 2.16394
-0.771343 0.362762 2.73727
-1.12242 0.754494 -2.12068
-0.753515 0.716113 -2.69275
-0.739101 1.22682 -2.1161
-1.08573 0.994084 2.16929
-0.723355 1.0276 2.7415
-0.725781 1.50684 2.17321
0.801599 0.0435413 -2.12908
0.774376 0.168886 -2.69963
1.18443 0.19993 -2.12751
0.765649 0.158997 2.16394
0.750829 0.362753 2.73727
1.1548 0.326052 2.16501
0.727588 0.716089 -2.69275
0.74726 1.22677 -2.1161
1.12126 0.754421 -2.12068
0.704704 1.02759 2.7415
0.717179 1.50682 2.17321
1.08924 0.994069 2.16929
-1.21905 0.206882 -0.696687
-0.822927 0.0368522 -0.698113
-1.22239 0.228735 0.734181
-0.83593 0.0550819 0.732962
-1.15294 0.870397 -0.69068
-0.759342 1.35386 -0.686293
-1.12972 0.937067 0.739283
-0.748654 1.44234 0.743394
0.831407 0.0363239 -0.698113
1.22183 0.206236 -0.696688
0.830929 0.0550476 0.732962
1.226 0.228648 0.734181
0.764224 1.35374 -0.686293
1.15447 0.870155 -0.69068
0.744678 1.4423 0.743394
1.1333 0.936998 0.739283
-1.58337 -0.149695 -2.70268
-1.57933 -0.0208527 -3.27327
-1.19108 -0.170936 -3.27488
-1.5974 -0.124077 -1.41505
-1.58003 0.0347129 -2.12899
-1.18796 -0.121721 -2.13056
-1.61195 -0.114814 0.0159807
-1.60798 0.0450524 -0.698153
-1.21186 -0.124977 -0.699578
-1.59228 -0.0662035 1.44702
-1.60809 0.0630715 0.732827
-1.22163 -0.110581 0.731608
-1.56318 0.00805499 2.7347
-1.55521 0.145941 2.16368
-1.18442 -0.021122 2.1626
-1.55672 0.0703209 3.87904
-1.54552 0.212142 3.30809
-1.17249 0.0446369 3.30698
-1.55212 0.269544 4.45236
-1.17516 0.10114 4.45121
-1.57599 0.163555 -2.69957
-1.56139 0.422316 -3.26839
-1.19071 0.132421 -3.2717
-1.5906 0.203843 -1.41209
-1.54755 0.484546 -2.12414
-1.60412 0.222938 0.0186931
-1.57515 0.542592 -0.693737
-1.57101 0.275216 1.44949
-1.56213 0.58331 0.736678
-1.53754 0.350028 2.73707
-1.5081 0.655153 2.1671
-1.54092 0.411365 3.88141
-1.51747 0.719834 3.31152
-1.15651 0.386721 3.30933
-1.53677 0.777695 4.45589
-1.16654 0.441859 4.45359
-1.53295 0.743307 -2.69296
-1.5395 1.18453 -3.26051
-1.16404 0.704926 -3.26503
-1.53209 0.823295 -1.40579
-1.52082 1.25156 -2.11632
-1.53316 0.902964 0.0242481
-1.53389 1.35739 -0.686406
-1.49922 0.963247 1.45429
-1.52056 1.43717 0.743365
-1.48803 1.02496 2.74156
-1.4932 1.50449 2.17329
-1.51332 1.08616 3.886
-1.50683 1.56376 3.31758
-1.12565 1.05848 3.31377
-1.52645 1.62054 4.46198
-1.15061 1.11704 4.45823
-1.52738 1.69279 -2.68387
-1.14903 1.651 -3.25587
-1.52262 1.78566 -1.39694
-1.1375 1.72388 -2.11174
-1.52129 1.8916 0.0327108
-1.14029 1.84086 -0.682019
-1.51455 1.97842 1.46236
-1.13949 1.94244 0.747476
-1.51201 2.04329 2.74931
-1.13325 2.01725 2.17721
-1.51996 2.09814 3.89355
-1.13751 2.07185 3.32135
-1.14793 2.12641 4.4657
-0.795674 -0.142963 -2.70276
-0.802466 -0.0176622 -3.27331
-0.0134212 -0.168214 -3.27491
-0.802407 -0.122621 -1.41509
0.00854288 -0.117841 -2.13061
-0.821535 -0.120744 0.0160491
0.00816609 -0.127691 -0.699572
-0.81377 -0.0654998 1.44719
-0.00499392 -0.114052 0.73167
-0.793729 0.01546 2.73488
-0.0159372 -0.0169973 2.16271
-0.790928 0.0754557 3.87915
-0.783486 0.219216 3.30822
-0.0205988 0.0478944 3.30705
-0.78958 0.273454 4.45244
-0.0259595 0.102981 4.45125
-0.793364 0.415031 -3.26834
-0.0254724 0.132804 -3.27171
-0.782139 0.417215 3.88151
-0.764698 0.725364 3.31157
-0.0205139 0.390515 3.30939
-0.780378 0.781208 4.45593
-0.0262778 0.443888 4.45362
-0.773576 1.17139 -3.26039
-0.0259267 0.697202 -3.26497
-0.762938 1.08936 3.88599
-0.756331 1.56656 3.31754
-0.0186513 1.0602 3.31376
-0.772087 1.62291 4.46195
-0.0239322 1.11849 4.45823
-0.759161 1.68209 -2.68374
-0.00192711 1.6455 -3.25581
-0.75518 1.77909 -1.39683
0.00815947 1.71859 -2.11168
-0.758496 1.8917 0.0327458
0.00494854 1.83948 -0.681979
-0.758198 1.98128 1.46232
-0.0039771 1.94383 0.747471
-0.758757 2.04581 2.74924
-0.00860224 2.01866 2.17717
-0.765481 2.10012 3.89349
-0.0120054 2.0729 3.32131
-0.016065 2.12729 4.46568
0.790796 -0.143093 -2.70276
0.763573 -0.0177482 -3.27331
1.16731 -0.171118 -3.27488
0.819116 -0.122911 -1.41509
1.2012 -0.121975 -2.13056
0.824707 -0.120999 0.0160491
1.22672 -0.125502 -0.699578
0.792839 -0.0655497 1.44719
1.21723 -0.110741 0.731608
0.757193 0.0154372 2.73488
1.16216 -0.0211659 2.1626
0.744369 0.0754201 3.87915
0.742373 0.219193 3.30822
1.1373 0.0445851 3.30698
0.737343 0.273415 4.45244
1.12742 0.101069 4.45121
0.741965 0.414975 -3.26834
1.14755 0.132292 -3.2717
0.735347 0.417188 3.88151
0.725533 0.725347 3.31157
1.12379 0.386685 3.30933
0.730168 0.781173 4.45593
1.119 0.441798 4.45359
0.745722 1.17131 -3.26039
1.11982 0.704826 -3.26503
0.720354 1.08933 3.88599
0.725674 1.56653 3.31754
1.09676 1.05844 3.31377
0.73209 1.62287 4.46195
1.10765 1.11699 4.45823
0.765394 1.68199 -2.68374
1.14493 1.65084 -3.25587
0.768288 1.77898 -1.39683
1.15206 1.72372 -2.11174
0.759467 1.89161 0.0327457
1.15035 1.84069 -0.68202
0.745618 1.98121 1.46232
1.13439 1.94232 0.747476
0.738149 2.04575 2.74924
1.11934 2.01717 2.17721
0.73741 2.10007 3.89349
1.11621 2.07177 3.32135
1.11798 2.12633 4.4657
1.57772 -0.15 -2.70268
1.55129 -0.0210771 -3.27327
1.60881 -0.124566 -1.41505
1.58404 0.0344132 -2.12899
1.61924 -0.115243 0.0159807
1.61714 0.0444103 -0.698153
1.58654 -0.0663569 1.44702
1.6123 0.0628602 0.732827
1.54226 0.00798211 2.7347
1.55131 0.145889 2.16368
1.52035 0.0702344 3.87904
1.51872 0.212077 3.30809
1.50908 0.269453 4.45236
1.55761 0.163337 -2.69957
1.52541 0.422144 -3.26839
1.59237 0.203389 -1.41209
1.5457 0.484351 -2.12414
1.6102 0.222514 0.018693
1.57921 0.542085 -0.693737
1.57706 0.275106 1.44949
1.56932 0.583147 0.736678
1.52776 0.349984 2.73707
1.51404 0.655121 2.1671
1.50744 0.411295 3.88141
1.49502 0.719782 3.31152
1.49648 0.777612 4.4559
1.5135 0.743158 -2.69295
1.51903 1.18435 -3.26051
1.53254 0.823047 -1.40579
1.52607 1.25138 -2.11632
1.53833 0.902719 0.0242481
1.5406 1.3571 -0.686406
[...]
POINT_DATA 29498
VECTORS point_vectors float
-8.89528 -8.37767 16.6661
0.0333934 0.36768 1.02394
-3.79607 3.34289 5.62205
0.0569637 -0.153541 1.27027
8.9041 -8.36658 16.6321
-0.0398435 0.362186 1.02688
3.79196 3.33922 5.61694
-0.0573498 -0.15116 1.26502
0.142336 -0.0618442 2.13292
0.146681 -0.375906 2.9772
0 0 0
0 0 0
-0.141723 -0.0614783 2.15452
-0.147258 -0.372873 2.95605
0 0 0
0 0 0
-0.544975 -0.231004 19.8771
-1.14781 -0.567755 20.5235
-0.369828 -0.316339 21.2447
0.0481194 -0.133788 21.3897
0.514869 0.142669 21.3122
0.770336 0.254983 21.1343
0.798551 -0.00249163 20.7132
-0.632932 -0.163256 19.7886
-1.50332 -0.442425 20.4985
-0.478632 -0.366896 21.2965
0.000637333 -0.21568 21.4343
0.657095 0.0138306 21.4243
0.996731 0.0726387 21.0774
1.00088 -0.142154 20.9979
-0.679238 0.0744587 19.6999
-1.77379 0.204178 20.3724
-0.962241 -0.263073 21.2881
-0.25825 -0.249655 21.5554
0.563668 -0.352166 21.4389
0.917304 -0.433736 21.0167
0.640367 -0.282949 20.9524
-0.45464 0.313297 19.9276
-0.836691 0.581526 20.3376
-0.81827 0.390475 21.0181
-0.300916 0.0311606 21.3897
0.168914 -0.279177 21.3057
0.318507 -0.352872 21.1317
0.303758 -0.323398 20.7134
-0.571792 -0.520918 19.3445
-2.22039 -3.1526 20.7118
-0.235191 -0.0406561 21.2724
0.375901 0.220762 20.6116
0.619172 1.04786 19.021
0.9222 1.57509 17.3397
0.998564 0.769892 16.7265
-0.666593 -0.356473 19.0938
1.52505 1.55949 12.809
1.52972 0.673972 12.3132
-0.752362 0.15057 18.8857
1.75984 -0.516682 13.2621
1.08753 -0.541555 17.6041
-0.39185 0.578541 19.5789
-0.885336 1.48453 20.0765
-1.15101 1.38318 21.0226
-0.391462 0.32478 21.7935
0.15778 -0.453174 21.4257
0.248212 -0.605063 21.0882
0.160999 -0.49618 20.4818
0.567504 -0.533268 19.3175
2.24344 -3.07656 20.7102
0.212267 -0.0393139 21.2553
-0.369957 0.233727 20.5696
-0.565902 1.06239 18.8343
-0.825305 1.6185 17.0648
-0.999542 0.756411 15.972
0.650275 -0.386563 19.0261
-1.35899 1.5905 11.4189
-1.5483 0.722296 11.5222
0.706084 0.14837 18.7854
-1.6267 -0.527586 11.8484
-1.0933 -0.494614 16.9838
0.389917 0.582051 19.5771
0.899236 1.45937 20.0849
1.15297 1.3663 21.024
0.392506 0.33077 21.7979
-0.152547 -0.456401 21.4302
-0.23881 -0.624391 21.0874
-0.153347 -0.502242 20.4116
0.555365 -0.234996 19.8564
1.14837 -0.552657 20.5459
0.367193 -0.31817 21.2304
-0.0497661 -0.133355 21.3823
-0.518092 0.153654 21.3131
-0.803981 0.253534 21.1635
-0.820012 0.0190201 20.7491
0.646907 -0.168887 19.7688
1.5077 -0.438193 20.4966
0.477109 -0.362622 21.2941
0.00113546 -0.211913 21.4344
-0.649103 0.0120607 21.4263
-1.01821 0.0702688 21.1036
-1.02013 -0.115479 21.0903
0.688901 0.084583 19.673
1.77246 0.210745 20.3766
0.952265 -0.260675 21.2917
0.256285 -0.24596 21.5555
-0.558388 -0.344454 21.43
-0.916291 -0.442465 21.0491
-0.713841 -0.304926 20.8454
0.452445 0.316805 19.9277
0.830168 0.572324 20.3428
0.81203 0.377715 21.0179
0.301055 0.0266839 21.3956
-0.174121 -0.283884 21.2807
-0.31101 -0.351809 21.1225
-0.281005 -0.33325 20.7373
-1.97991 0.0228526 1.93956
0.000768107 -2.50104 2.74737
0.02799 -0.0276318 0.612673
-0.0788222 0.0057671 -0.0267452
-0.00155132 -0.0665652 -0.0124171
0.0099903 -0.011239 0.54632
-0.0120181 4.36912 2.92246
-0.110861 -0.0823992 0.617978
-0.00336795 0.318778 -0.3157
0.0122132 0.0212857 0.11936
1.9865 0.020134 1.94389
-0.0276086 -0.027218 0.613087
0.0775057 0.0067482 -0.026076
-0.00607912 -0.00972124 0.558365
0.110652 -0.0818122 0.618181
-0.0126669 0.022053 0.12306
0.149084 -0.117622 4.16198
0.000250562 -0.000967885 0.0182025
-0.000299914 0.000433683 0.0136554
-0.0027243 0.0110386 0.078798
2.57511e-20 1.65591e-18 5.28719e-17
0 0 0
0.000148038 0.00197209 0.00408822
-1.15026e-06 1.11598e-06 0.00245525
-0.196862 -0.146941 4.78327
-0.00024117 -0.000944717 0.0179704
0.00270671 0.0109642 0.0784157
0 0 0
-0.00711096 -0.0189785 0.171106
-0.000613998 0.0284743 0.216136
0 0 0
9.02558e-07 -9.34788e-08 -3.67594e-05
0 0 0
0 0 0
0.000150996 -0.0755655 0.128066
-0.000441397 0.0145504 -0.00430422
-4.49085e-06 2.41989e-05 0.000204121
0 0 0
-2.96707e-06 -7.9437e-05 0.000731503
0.00764951 -0.020106 0.178654
0.000639257 0.0290992 0.221452
0 0 0
-2.95881 -1.2172 20.5
-3.68965 -4.83576 20.9224
-1.89668 -1.29078 18.0453
1.12328 0.257792 19.6497
0.254852 1.21514 12.797
0.315737 1.27269 8.15677
-3.65385 0.871354 20.2714
-2.20149 0.899157 17.385
-2.11865 2.69124 19.86
0.906242 -0.420362 19.7309
0.809971 0.0104061 8.05544
0.454898 -0.667817 20.3145
3.66693 -4.69263 20.8924
1.88784 -1.35248 17.946
2.96443 -1.22491 20.4984
-0.190779 1.20397 12.4669
-0.143441 1.28498 7.58338
-1.11505 0.248222 19.6976
2.19189 0.92675 17.2384
2.12779 2.65023 19.8599
3.66883 0.878535 20.2754
-0.725699 0.0366621 7.40749
-0.462717 -0.663213 20.2293
-0.898509 -0.423896 19.7825
-0.298005 -0.613253 21.5976
0.442009 0.206891 17.008
0.0937862 -0.3878 21.0052
0.877692 0.0669616 16.2943
-1.5233 -0.84412 21.3419
-2.89545 1.74237 21.0265
-0.32548 -0.441571 20.4829
-0.797452 0.238719 21.0522
-0.425818 0.19183 17.189
0.306411 -0.611516 21.5987
-0.88105 0.0852762 16.2042
-0.0909175 -0.386568 21.048
2.88412 1.71389 21.0327
1.51811 -0.838609 21.34
0.796103 0.242685 21.0508
0.323745 -0.43449 20.4864
-0.927399 -0.422345 20.0236
-0.611074 -0.208206 19.8425
-0.618065 -0.36213 19.6142
-0.812285 -0.45466 21.1013
-1.29946 -0.543764 20.5308
-1.74283 -1.31476 20.5607
-0.13213 -0.220234 21.3143
-0.428544 -0.333842 21.2674
-0.238651 -0.337234 21.4455
0.276397 -0.000922467 21.4327
0.0297993 -0.164708 21.3938
0.194875 -0.107254 21.4851
0.671917 0.212698 21.1672
0.604481 0.0875612 21.3683
0.763619 0.443847 21.2612
0.777509 0.230842 20.706
0.892929 0.186128 20.9622
1.11071 0.569275 21.0095
0.908101 -0.0597491 20.8617
0.844319 0.474616 21.4931
-1.11444 -0.310286 19.9187
-0.68253 -0.0452833 19.7326
-0.728533 -0.286717 19.4814
-1.011 -0.435293 21.1612
-1.6917 -0.155359 20.4409
-0.209425 -0.304699 21.3425
-0.69931 -0.386449 21.2927
0.298913 -0.104154 21.5193
-0.11999 -0.271011 21.5224
0.879504 0.0492832 21.2704
0.685491 -0.191593 21.4643
0.960496 0.00615731 20.9723
0.997674 -0.230903 21.11
1.61613 0.307131 19.0286
0.843914 -0.273249 21.1029
1.26999 0.254585 17.8932
-1.26744 0.158864 19.8085
-0.588193 0.250152 19.7898
-0.79843 0.117928 19.3254
-1.35944 -0.0504965 21.0752
-1.28216 0.553835 20.3147
-0.614596 -0.289948 21.4336
-1.06989 0.127436 21.1477
0.154262 -0.273069 21.5944
-0.360499 -0.0960126 21.5055
0.769278 -0.386669 21.2082
0.305365 -0.357996 21.3531
0.690354 -0.372112 20.88
0.514869 -0.418262 20.9419
1.2307 -0.664486 20.4461
0.434165 -0.339437 20.8238
1.0323 -0.51974 19.9112
-0.668876 0.481484 20.0488
-0.477173 0.450983 19.7494
-0.880399 0.510617 20.7094
-0.972163 0.98676 20.219
-0.604341 0.207988 21.2982
-1.04639 0.750494 21.0648
-0.0301517 -0.139145 21.3669
-0.369671 0.145372 21.5779
0.289616 -0.368416 21.1735
0.15634 -0.364144 21.3702
0.390623 -0.396323 20.7776
0.314004 -0.527923 21.0408
0.238432 -0.420376 20.9023
-1.25813 -1.47759 19.0486
-0.619193 -0.438696 19.2192
-0.0120253 -0.737547 18.969
-0.994322 -0.880432 22.1629
0.0272886 -5.25947 20.9252
0.0926826 0.0893154 20.8412
0.00341705 -0.487188 19.606
0.60393 0.54616 19.8271
0.00245771 0.0786655 16.8512
0.734352 1.27625 19.1165
-0.00945401 0.368822 13.5614
0.841912 1.15024 17.9917
1.14332 1.97143 14.83
-0.0312241 1.08127 12.2157
1.27788 0.769211 14.0614
0.0913288 1.24077 13.2834
-0.744267 -0.106983 18.928
-0.0281612 -0.592153 18.6088
1.55595 1.14918 13.0169
2.34823 0.354251 8.67782
-0.0279941 0.0866177 -1.76237
1.51284 0.0924227 13.3018
0.100576 0.54139 5.90662
-0.60397 0.532584 19.2026
-0.0309783 0.221155 18.3276
1.41341 -0.761248 14.7672
0.743568 -0.941687 19.8274
0.0513204 -0.977377 0.671515
0.409193 -0.829397 20.0294
0.0194322 -1.70754 5.72551
-0.676885 1.09538 19.6372
-0.000993275 0.762501 19.3911
-1.0214 1.41516 20.5955
0.0105004 2.09191 19.9228
-0.916678 0.947808 21.6731
0.00992181 2.44694 20.8677
-0.0246377 -0.167855 21.6917
-0.0045439 0.646283 22.0716
0.225443 -0.562159 21.2517
-0.000801204 -0.514782 21.5952
0.187545 -0.618857 20.9479
0.00481042 -0.784566 21.1215
-0.000268324 -0.696228 20.957
1.25418 -1.48619 19.0495
0.610492 -0.459209 19.1723
0.617909 -0.373449 19.5938
0.978076 -0.864594 22.1241
1.72383 -1.28131 20.5582
-0.0897261 0.0896383 20.8568
0.253583 -0.345078 21.4341
-0.584494 0.563203 19.6301
-0.193849 -0.105945 21.486
-0.619562 1.28665 18.725
-0.772416 0.465094 21.2044
-0.770994 1.24605 17.75
-1.05674 1.98687 14.603
-1.14019 0.660195 21.0202
-1.29224 0.802088 13.2906
-0.854092 0.553317 21.5694
0.715978 -0.108371 18.8252
0.74076 -0.312825 19.4456
-1.62185 1.26964 11.7219
-2.19568 0.358392 7.38132
-1.63606 0.420196 18.5184
-1.50853 0.135667 12.6448
-1.30056 0.305329 17.1904
0.587015 0.550597 19.1638
0.791462 0.121729 19.2815
-1.44632 -0.758021 13.6783
-0.712443 -0.984026 19.8033
-1.28785 -0.666536 20.2825
-0.409973 -0.85771 19.9753
-1.05141 -0.542807 19.8069
0.681949 1.08793 19.6422
0.478377 0.448518 19.7493
1.02954 1.39282 20.5992
0.970542 0.968312 20.2245
0.917207 0.947157 21.672
1.04044 0.735921 21.0666
0.0242613 -0.167284 21.6969
0.369564 0.14783 21.5778
-0.215861 -0.568368 21.2508
-0.162952 -0.367423 21.3726
-0.184117 -0.627142 20.995
-0.3228 -0.534131 21.0408
-0.235383 -0.436968 20.9256
0.92873 -0.424451 20.0307
0.625098 -0.210689 19.8337
0.805694 -0.448241 21.0965
1.30144 -0.524524 20.5232
0.134973 -0.22045 21.309
0.429968 -0.331572 21.2604
-0.278839 0.00519141 21.4394
-0.0327944 -0.162897 21.3953
-0.688436 0.238915 21.1623
-0.603108 0.0906123 21.3728
-0.83571 0.236679 20.6046
-0.911792 0.185889 20.9949
-0.931703 -0.0349782 20.9284
1.14986 -0.323638 19.89
0.692312 -0.0501748 19.7102
1.0079 -0.433432 21.1646
1.70528 -0.154544 20.4571
0.211136 -0.300011 21.3412
0.698926 -0.381488 21.292
-0.298412 -0.104934 21.512
0.121006 -0.271455 21.5165
-0.885893 0.0566089 21.2723
-0.675042 -0.186265 21.4649
-1.02617 0.0125836 20.8234
-1.02764 -0.244589 21.1589
-0.91912 -0.290708 21.0168
1.29453 0.168682 19.7742
0.594356 0.251538 19.7785
1.36103 -0.0522226 21.0758
1.2764 0.546683 20.3156
0.611376 -0.287673 21.4352
1.0602 0.130025 21.1478
-0.15559 -0.269261 21.5882
0.360371 -0.0969583 21.5115
-0.778744 -0.393125 21.2068
-0.315497 -0.363388 21.3537
-0.698916 -0.399585 20.9191
-0.52541 -0.438831 20.9881
-0.413947 -0.344397 20.8252
0.667333 0.479341 20.0513
0.876578 0.499033 20.7094
0.605421 0.204507 21.2955
0.0252268 -0.134879 21.3866
-0.282862 -0.353165 21.182
-0.371088 -0.42254 20.7966
-1.02294 -0.393566 19.9794
-1.61337 -1.51583 18.6068
-1.19836 -0.822518 19.6505
-1.60866 -0.666846 19.3278
-0.673638 -0.324566 19.5477
-2.29406 -1.36976 20.5529
-0.900747 -0.463005 21.1179
-0.308323 -0.3138 19.0595
-0.868243 -0.734755 21.485
-1.204 -0.827863 21.7413
-0.231651 -0.464495 21.514
-0.164793 -0.252716 21.3243
0.633072 0.114077 16.3376
0.0152523 -0.211614 21.4241
-0.0256671 -0.490155 21.157
0.197978 -0.257479 21.3874
0.280903 -0.0349228 21.4705
0.725953 0.414018 14.2608
0.448962 0.116658 21.4743
0.47332 -0.133258 20.4477
0.975727 0.38149 20.7565
0.800633 0.157479 21.2938
0.589158 1.4205 13.8153
0.921534 0.583172 20.9971
1.36307 0.333249 19.854
1.2102 0.558304 20.164
0.887162 0.119571 20.8594
1.24147 1.16409 13.8279
1.12943 0.481663 20.6641
1.61207 0.332793 19.4003
1.01862 0.349883 19.6816
-1.2515 -0.089986 19.8296
-2.30778 -0.364671 17.3098
-1.84518 0.356527 19.0464
-0.814005 -0.0721127 19.3504
-3.84932 -0.292111 20.383
-1.21886 -0.286231 21.1616
-2.08308 -0.126373 21.5315
-0.674103 -0.889352 21.2043
-0.378282 -0.361232 21.3863
-0.901629 -0.838331 21.0769
-0.138208 -0.392191 20.1667
0.245989 -0.189758 21.5903
0.310746 -0.252415 20.0963
1.14308 0.00183476 18.2359
0.893676 -0.200409 21.3311
0.492721 0.644945 4.58752
1.10027 -0.580556 20.3346
1.61733 -0.138501 18.3214
0.82206 -0.196927 21.2114
1.85887 0.191311 10.5789
1.22957 -0.605697 20.4143
1.25972 -0.322146 18.826
-0.972567 0.435637 19.9052
-1.26297 1.441 18.8748
-0.76203 0.783036 19.8538
-0.658211 0.381219 19.4981
-1.84499 1.24253 20.151
-1.23 0.346357 20.8407
-2.10646 1.75363 20.7616
-1.05465 0.883904 20.6896
-1.75891 0.413423 21.2232
-0.746738 -0.00863551 21.4058
-2.19354 0.699822 21.9716
-0.784403 0.491621 21.4398
-0.581226 -0.0342635 21.8005
0.0141887 -0.219072 21.5126
0.222266 -0.224028 20.4854
-0.0444355 -0.150047 21.5251
0.34005 -0.532815 21.5431
0.465103 -0.440532 21.2316
0.517981 -0.891215 20.7958
0.253572 -0.472547 21.2065
0.556687 -0.766753 21.2669
0.529881 -0.531344 20.8574
0.487623 -1.01614 20.0426
0.19267 -0.405837 20.9398
0.388418 -0.538144 20.5019
1.61697 -1.56208 18.5757
-0.00412922 -2.383 18.2464
-0.0385935 -2.29085 16.2488
-0.0160988 -0.762379 18.7379
0.0211839 -8.34089 21.8567
0.322824 -0.331742 19.1691
0.0150571 -1.70119 22.3821
-0.00758072 -0.0171612 9.29511
-0.623798 0.119914 16.4405
-0.00263517 -0.162282 17.7047
0.00399085 0.170986 8.84282
-0.71245 0.43916 14.0379
0.00367726 0.339114 14.9598
-0.0237237 0.132739 5.54146
-0.478568 1.43563 13.3814
-0.0802967 0.21139 12.7875
-0.0378443 -1.29354 -2.85674
-0.0365329 1.35932 5.20614
-1.20556 1.26726 13.3405
-0.0191057 1.25114 11.7413
-0.020607 -0.827483 -1.29347
0.0967447 1.14896 10.3988
2.2976 -0.392237 17.161
-0.052929 1.60951 15.3671
-0.0298678 -0.153161 18.248
-0.367903 0.686161 3.98106
0.00735358 -0.0469521 -0.869124
0.0998064 -0.393364 -4.70945
-1.89602 0.233353 9.40774
0.0502693 -1.88016 3.31475
0.090815 -0.679842 4.0704
1.25579 1.4594 18.8531
0.00273322 1.50736 19.376
-0.0118468 0.73794 18.8218
0.0132767 4.34773 19.478
2.10769 1.73622 20.7636
0.0137855 2.11267 20.4362
0.0118511 4.60655 19.6972
2.19333 0.695658 21.9676
0.000276239 1.8635 22.0011
-0.00341627 0.598306 17.5449
-0.237641 -0.220068 20.4048
-0.00314104 -0.16981 21.8886
0.00219604 -0.723203 14.768
-0.539199 -0.875098 20.504
0.00290132 -0.663372 21.2306
0.00334837 -1.34194 17.9489
-0.50174 -1.03616 20.0042
0.00383359 -0.833395 20.8362
0.0178793 -1.05113 19.5837
1.0364 -0.407455 19.973
1.20168 -0.832071 19.6396
1.64452 -0.683882 19.2715
0.685032 -0.347208 19.5189
2.27924 -1.3477 20.5458
0.891046 -0.449114 21.1239
0.87069 -0.72781 21.466
1.20724 -0.827837 21.7341
0.246126 -0.467395 21.5029
0.167466 -0.25397 21.3224
-0.00707358 -0.216906 21.4231
0.0337696 -0.488263 21.2066
-0.19683 -0.257596 21.3814
-0.28251 -0.0360032 21.4688
-0.454348 0.125624 21.45
-0.472794 -0.134302 20.4913
-0.978638 0.394177 20.6381
-0.809235 0.167312 21.2922
-0.927745 0.641637 20.9399
-1.37092 0.370331 19.6538
-1.20101 0.685784 19.6869
-0.952486 0.128217 20.7392
-1.10733 0.586536 20.8685
-1.67229 0.466969 19.0625
-1.05175 0.399612 18.9899
1.2744 -0.0974641 19.7963
1.89166 0.391096 18.9793
0.833891 -0.0727491 19.303
3.85755 -0.294084 20.381
1.2255 -0.284055 21.1525
2.08099 -0.130912 21.5246
0.67987 -0.885247 21.2343
0.383129 -0.36019 21.3862
0.898925 -0.831766 21.0629
0.136473 -0.399932 20.2477
-0.249022 -0.190428 21.5877
-0.306316 -0.255265 20.0974
-1.13814 -0.00448411 18.3367
-0.905181 -0.201165 21.3176
-1.11427 -0.575495 20.2445
-1.69284 -0.10475 17.5376
-0.87497 -0.217605 21.1307
-1.30876 -0.620469 20.2287
-1.29107 -0.269246 18.172
0.977352 0.437646 19.9007
0.762909 0.777217 19.8578
0.656509 0.39167 19.4846
1.83764 1.22662 20.1529
1.22544 0.34307 20.8423
1.0518 0.867007 20.6923
1.74248 0.404544 21.2233
0.74238 -0.00785685 21.4037
0.784957 0.49084 21.4357
0.581613 -0.0357588 21.8024
-0.0146054 -0.223322 21.5088
0.0428553 -0.153481 21.5281
-0.339266 -0.5336 21.5462
-0.466212 -0.451606 21.2008
-0.252151 -0.484027 21.2096
-0.566939 -0.779258 21.327
-0.571978 -0.540516 20.9036
-0.191713 -0.419453 20.9511
-0.387223 -0.566807 20.4422
-1.41724 -0.760096 19.4903
-1.00028 -0.796335 21.6002
0.0320749 -0.344036 21.39
0.514321 -0.0106188 21.1171
1.21327 0.527142 20.5198
1.40586 0.384992 19.832
-1.91323 -0.170673 19.047
-1.67418 -0.66932 21.8543
-0.293774 -0.737941 20.4332
0.37723 -0.0743464 19.5193
1.41381 -0.121692 19.2339
1.43728 -0.216165 18.9363
-1.28343 0.859258 19.4713
-1.73612 0.73981 20.8932
-1.26216 0.1411 21.6992
-0.0185225 -0.268804 21.7666
0.505206 -0.669281 21.2811
0.616974 -0.684554 20.7636
-0.02509 -2.66734 17.3555
0.00163945 -0.585609 12.0026
-0.00341515 0.0652187 8.62586
-0.00218463 0.280308 7.35791
-0.0692376 -0.525463 3.97656
-0.0214939 0.453578 4.75743
-0.0516814 -0.647531 15.0514
0.00988948 -0.75348 -4.73436
0.141854 -0.777738 0.585758
-0.0110761 2.22143 18.1225
0.0108836 3.23526 20.4742
0.00018043 2.79758 20.5715
0.000614699 -0.576788 15.405
0.00413971 -0.945502 16.7007
0.00584034 -1.18111 18.3824
1.4313 -0.78168 19.4604
1.00772 -0.794127 21.5851
-0.0245089 -0.347897 21.39
-0.517963 -0.00838865 21.0746
-1.23198 0.577391 20.2395
-1.37541 0.481974 19.7648
1.93797 -0.172848 18.9917
1.6733 -0.67004 21.8502
0.297451 -0.735173 20.4912
-0.377496 -0.0864975 19.5978
-1.42757 -0.102842 18.9945
-1.47714 -0.18237 18.1123
1.28706 0.869288 19.4613
1.72618 0.726029 20.894
1.25557 0.13794 21.6951
0.0173663 -0.270092 21.7688
-0.504199 -0.673139 21.2937
-0.595339 -0.719859 20.7391
-1.75546 -0.335205 1.74715
-0.118152 -2.34944 2.38624
0.0182753 -0.126506 1.30108
0.124909 0.0563601 0.361684
-0.244579 0.0597596 0.186266
-0.0101006 0.058363 0.387413
-2.53051 0.516237 2.95245
-0.488337 2.92895 2.46741
-0.388328 -0.143175 1.75377
0.0507702 0.0362972 0.173196
-0.206706 0.218717 -0.127215
0.00731612 0.00501049 0.0388317
0.116226 -2.33892 2.40488
1.88201 -0.360491 1.87322
-0.0169161 -0.12566 1.30907
0.119173 0.0258253 0.0794301
-0.123418 0.0554176 0.358475
0.00895047 0.0563063 0.38215
0.489372 2.92951 2.46356
2.5313 0.518363 2.95603
0.388253 -0.143277 1.75229
0.204697 0.225842 -0.131987
-0.0517882 0.0371265 0.173667
-0.00749765 0.00487048 0.0394162
0.0502439 -0.00843054 1.17012
0.117892 -0.0809006 3.01918
0.000610622 -0.000565904 0.0286843
0 0 0
0.0109589 0.0211958 0.577853
0.214478 -0.439626 5.05546
-0.00220641 -0.000166986 0.0625889
0.000944514 0.00145023 0.0335906
-0.259553 -0.222096 0.764884
-0.00297653 -0.0117065 0.125454
0 0 0
-0.00791344 0.00479229 0.011849
0 0 0
0 0 0
0 0 0
0.196427 0.136592 1.41442
-0.0503357 -0.00927239 1.17609
0 0 0
-0.131263 -0.0892137 3.25276
-0.000584213 -0.000477166 0.0268558
-0.0108779 0.0206015 0.57781
-0.000894347 0.00146832 0.0338402
-0.23107 -0.45211 5.20907
0.00218448 -0.000258927 0.062288
0.259976 -0.222636 0.765154
0.00574436 0.00347969 0.0086109
0.00308404 -0.0119308 0.129385
0 0 0
0 0 0
-0.197219 0.137125 1.41374
0 0 0
0 0 0
-0.03136 -0.0285766 0.328967
-0.126331 -0.0296597 0.0752134
-3.327e-05 -0.000330411 0.0226516
0 0 0
-0.00457394 -0.0130731 0.153164
0.00127115 3.81765e-06 0.00468798
0.00103886 0.0003451 0.00994627
-0.0168447 0.00369499 -0.000431719
-9.1104e-07 1.06696e-05 0.000182679
-0.00176546 -0.0673768 -0.0353649
0 0 0
0.000935705 0.000912212 0.0156763
0.004354 0.66637 0.260959
4.48726e-07 0.00101333 0.00571297
-0.0260651 -0.0585376 0.350389
-0.00149267 0.00070268 0.0060151
-5.40195e-06 0.000535976 -4.46833e-06
1.80383e-05 0.000293047 -0.000740528
0 0 0
-0.000212169 -0.00347964 0.011413
0.126615 -0.0267518 0.0749835
0.0323221 -0.0294831 0.338956
-0.00101554 3.91278e-06 0.00382883
0.00438678 -0.013462 0.155372
0.0160329 0.00358431 -0.000429506
-0.00107281 0.000376721 0.0102687
-0.00203933 0.00212989 0.0351097
0 0 0
0.00149117 0.000704448 0.00600241
0.0300914 -0.0651559 0.384109
0.000112905 -0.00353723 0.0117903
0 0 0
-0.000522166 0.00324267 0.0510661
0.00342106 9.68086e-05 0.026925
0.00689741 -0.02428 0.181233
-3.29734e-05 0.00461693 0.0814272
0 0 0
0 0 0
-0.00273703 0.00464539 0.0254623
0 0 0
0 0 0
0 0 0
0.00386535 0.0308198 0.153893
-0.0447102 0.106959 1.43266
-0.000482721 0.00856594 0.0940796
1.58028e-06 0.0233095 0.0491467
7.26676e-06 1.62165e-05 0.000711461
-6.24324e-05 -0.044245 0.202759
-0.00327595 9.89671e-05 0.0260699
0.000554123 0.00337449 0.0546339
-0.00693125 -0.0242078 0.181591
1.08087e-05 0.00404046 0.0706834
0.00292356 0.00494267 0.0272284
0 0 0
0.044262 0.107056 1.43103
-0.00382933 0.0303834 0.152014
-0.0262935 -0.0160779 0.296841
-0.0355942 -0.0344946 0.256225
0.00177525 -0.00346734 0.0361385
-0.0466036 -0.107135 0.470771
-0.000146939 0.00223613 0.0624511
0.00165786 0.0170984 0.213315
-0.00652133 0.00296871 0.0682979
0.000464961 0.023258 0.0666429