# vtk DataFile Version 2.0
tri_press
ASCII
DATASET UNSTRUCTURED_GRID
POINTS 3682 float
-0.795 0.205 -2.12756
-0.765 0.335 2.16516
-0.725 0.735 -2.12053
-0.695 0.995 2.16924
0.795 0.205 -2.12756
0.765 0.335 2.16516
0.725 0.735 -2.12053
0.695 0.995 2.16924
-0.832152 0.201181 -0.696653
-0.842492 0.224175 0.734253
-0.761526 0.868192 -0.690607
-0.737475 0.940809 0.739317
0.83278 0.200553 -0.696653
0.842478 0.224189 0.734253
0.761392 0.868059 -0.690607
0.737477 0.94081 0.739317
-1.58193 -0.173712 -3.27485
-1.5848 -0.125678 -2.13052
-1.61001 -0.122477 -0.699584
-1.61389 -0.107152 0.731546
-1.57067 -0.0252553 2.16249
-1.55569 0.0413653 3.30691
-1.55775 0.0992765 4.45117
-1.57672 0.132007 -3.27169
-1.57526 0.195103 -2.12746
-1.60595 0.212582 -0.696722
-1.60229 0.233295 0.734108
-1.53974 0.317138 2.16487
-1.53534 0.382918 3.30927
-1.54649 0.439812 4.45356
-1.54606 0.712626 -3.26509
-1.51984 0.773988 -2.12082
-1.54435 0.872602 -0.690752
-1.52197 0.933326 0.739249
-1.47646 0.993168 2.16934
-1.49959 1.05675 3.31378
-1.52705 1.11558 4.45823
-1.53295 1.65644 -3.25593
-1.52181 1.72913 -2.11181
-1.52342 1.84218 -0.682059
-1.51915 1.94101 0.747481
-1.50995 2.01582 2.17724
-1.51407 2.07077 3.32138
-1.52585 2.12551 4.46573
-0.800235 -0.168161 -3.27491
-0.791113 -0.117765 -2.13061
-0.813701 -0.127477 -0.699572
-0.829368 -0.114011 0.73167
-0.798172 -0.0169886 2.16271
-0.789286 0.0479085 3.30705
-0.79257 0.103003 4.45125
-0.804697 0.132836 -3.27171
-0.777686 0.390524 3.30939
-0.786591 0.443906 4.45362
-0.78203 0.697226 -3.26497
-0.751711 1.0602 3.31376
-0.774165 1.11851 4.45823
-0.765122 1.64555 -3.25581
-0.753201 1.71864 -2.11168
-0.757159 1.83953 -0.681979
-0.759834 1.94387 0.747471
-0.756562 2.01869 2.17717
-0.760952 2.07293 3.32131
-0.77001 2.12732 4.46568
0.773392 -0.168268 -3.27491
0.808199 -0.117917 -2.13061
0.830033 -0.127905 -0.699572
0.81938 -0.114093 0.73167
0.766298 -0.017006 2.16271
0.748088 0.0478803 3.30705
0.740651 0.10296 4.45125
0.753753 0.132772 -3.27171
0.736658 0.390506 3.30939
0.734036 0.443869 4.45362
0.730176 0.697178 -3.26497
0.714408 1.06019 3.31376
0.726301 1.11848 4.45823
0.761267 1.64545 -3.25581
0.76952 1.71853 -2.11168
0.767056 1.83942 -0.681979
0.751879 1.9438 0.747471
0.739357 2.01863 2.17717
0.736941 2.07288 3.32131
0.73788 2.12726 4.46568
1.56123 -0.173967 -3.27485
1.59421 -0.126033 -2.13052
1.62341 -0.123099 -0.699584
1.61508 -0.107388 0.731546
1.55801 -0.0253257 2.16249
1.52651 0.0412899 3.30691
1.51419 0.0991789 4.45117
1.54135 0.131813 -3.27169
1.57387 0.19486 -2.12746
1.61088 0.211919 -0.696722
1.60952 0.233108 0.734108
1.5446 0.317104 2.16487
1.51092 0.382863 3.30927
1.50396 0.439727 4.45356
1.50947 0.712474 -3.26509
1.51753 0.773842 -2.12082
1.54754 0.872252 -0.690752
1.52912 0.933186 0.739248
1.48349 0.993137 2.16934
1.47911 1.0567 3.31378
1.489 1.1155 4.45823
1.52858 1.65623 -3.25593
1.5346 1.72891 -2.11181
1.53365 1.84195 -0.68206
1.51689 1.94084 0.74748
1.49933 2.0157 2.17724
1.49548 2.07066 3.32138
1.49808 2.12539 4.46573
-0.787761 0.47 -2.15181
0 0.200772 -2.13179
-0.831471 0.185196 -1.41211
-0.729799 0.665 2.167
0 0.320843 2.17932
-0.816697 0.266637 1.44971
0 0.767569 -2.1531
-0.774406 0.832739 -1.40557
0 1.00134 2.17558
-0.734215 0.985882 1.45428
0.787847 0.47 -2.15189
0.831461 0.185206 -1.41211
0.728949 0.665 2.16615
0.816935 0.266398 1.44971
0.77441 0.832743 -1.40557
0.734278 0.985944 1.45428
-0.835044 0.214956 0.0188
-0.831822 0.534687 -0.69363
0.000314097 0.19527 -0.696653
-0.876011 0.582492 0.736785
-6.82516e-06 0.236453 0.734253
-0.74902 0.90402 0.0243551
-6.66078e-05 1.08349 -0.690607
9.19328e-07 1.35627 0.739317
0.839901 0.210099 0.0188
0.83178 0.534306 -0.69363
0.876007 0.5825 0.736785
0.74903 0.90403 0.0243551
-0.859805 0.502343 -1.40884
0.860085 0.502153 -1.40884
0.000157048 0.184526 -1.41211
-3.33039e-05 0.908525 -1.40557
0 0.47 -2.24601
-0.839158 0.558589 0.0215775
0.83932 0.558403 0.0215775
0.000153636 0.216654 0.0188
-3.28442e-05 1.34293 0.0243551
-0.874849 0.623746 1.45199
0.87484 0.62375 1.45199
-3.41258e-06 0.276905 1.44971
4.59664e-07 1.22974 1.45428
0 0.665 2.17143
-0.77283 0.3375 -2.12113
-0.3975 0.201031 -2.13153
-0.814725 0.193608 -1.76983
-0.799015 0.5 2.2177
-0.3825 0.314042 2.18612
-0.799108 0.292558 1.80743
-0.748259 0.6025 -2.12805
-0.3625 0.762845 -2.14838
-0.762717 0.796883 -1.76305
-0.726925 0.83 2.18265
-0.3475 1.00069 2.17493
-0.712755 0.988589 1.81176
0.3975 0.201023 -2.13154
0.773119 0.3375 -2.12142
0.81479 0.193543 -1.76983
0.3825 0.322336 2.17782
0.799015 0.5 2.2177
0.798638 0.293028 1.80743
0.3625 0.762819 -2.14835
0.748322 0.6025 -2.12811
0.762712 0.796879 -1.76305
0.3475 1.00068 2.17492
0.726915 0.83 2.18264
0.712761 0.988595 1.81176
-0.837687 0.187313 -1.05438
-0.837329 0.204337 -0.338927
-0.80929 0.379283 -0.695142
-0.416591 0.196881 -0.696653
-0.814687 0.260313 1.09198
-0.843076 0.215258 0.376527
-0.854409 0.405755 0.735519
-0.429961 0.21289 0.734253
-0.778991 0.861491 -1.04809
-0.831098 0.718652 -0.692118
-0.755807 0.886641 -0.333126
-0.423296 1.06084 -0.690607
-0.731948 0.959448 1.0968
-0.829001 0.772779 0.738051
-0.743963 0.923129 0.381836
-0.467101 1.34527 0.739317
0.837689 0.187311 -1.05438
0.417061 0.196884 -0.696653
0.83958 0.202087 -0.338927
0.809196 0.378972 -0.695142
0.814551 0.260449 1.09198
0.429956 0.21288 0.734253
0.844614 0.213719 0.376527
0.854411 0.40576 0.735519
0.779003 0.861503 -1.04809
0.423198 1.06085 -0.690607
0.83111 0.718445 -0.692118
0.755842 0.886675 -0.333126
0.731946 0.959446 1.0968
0.467106 1.34527 0.739317
0.829022 0.772795 0.738051
0.743966 0.923133 0.381836
-0.857979 0.486172 -1.78032
-0.393881 0.47 -2.2363
7.85242e-05 0.183347 -1.77195
0 0.335386 -2.18998
-0.852532 0.34377 -1.41047
-0.415657 0.184005 -1.41211
-0.843274 0.644373 1.8095
-0.3649 0.665 2.17067
-1.70629e-06 0.294595 1.81451
0 0.492921 2.24517
-0.877645 0.445191 1.45085
-0.40835 0.270764 1.44971
-1.6652e-05 0.857195 -1.77933
0 0.618785 -2.19602
-0.851634 0.667541 -1.4072
-0.38722 0.904662 -1.40557
2.29832e-07 1.09718 1.81493
0 0.833169 2.17937
-0.821256 0.804814 1.45314
-0.367107 1.22888 1.45428
0.858169 0.486077 -1.78036
0.393923 0.47 -2.2363
0.852491 0.343679 -1.41047
0.415809 0.184091 -1.41211
0.843332 0.644375 1.80907
0.364475 0.665 2.17067
0.877647 0.445074 1.45085
0.408466 0.270764 1.44971
0.85354 0.667448 -1.4072
0.387188 0.904654 -1.40557
0.821246 0.804847 1.45314
0.367139 1.22889 1.45428
-0.812498 0.399074 0.0201888
-0.42421 0.202275 0.0188
-0.86032 0.518515 -1.05123
-0.834044 0.546638 -0.336026
0.000235573 0.185968 -1.05438
0.000233866 0.207233 -0.338927
-0.84541 0.570541 0.379181
-0.882104 0.603119 1.09439
7.34053e-05 0.2274 0.376527
-5.11887e-06 0.259347 1.09198
-0.829743 0.749131 0.0229663
-0.476833 1.32809 0.0243551
-4.99559e-05 0.947922 -1.04809
-4.9726e-05 1.27032 -0.333126
-1.59625e-05 1.35322 0.381836
6.89496e-07 1.35274 1.0968
0.812194 0.39796 0.0201888
0.425595 0.202241 0.0188
0.860314 0.51823 -1.05123
0.833774 0.546354 -0.336026
0.845484 0.570451 0.379181
0.882352 0.603125 1.09439
0.829719 0.748988 0.0229663
0.476801 1.32809 0.0243551
-0.840782 0.340635 -1.77508
-0.857546 0.355852 -1.05281
-0.852867 0.68449 -1.04966
-0.837876 0.635021 -1.77169
0.840793 0.34059 -1.7751
0.837871 0.634974 -1.77171
0.852834 0.684315 -1.04966
0.85755 0.355555 -1.05281
-0.406578 0.183189 -1.77089
0.406654 0.18318 -1.77089
0.416178 0.185249 -1.05438
-0.415788 0.18513 -1.05438
-0.37486 0.8546 -1.77119
-0.384008 0.939264 -1.04809
0.383926 0.939105 -1.04809
0.374844 0.854584 -1.77119
-0.39569 0.336443 -2.17887
-0.37819 0.610642 -2.18767
0.378212 0.610642 -2.18766
0.395712 0.336443 -2.21484
-0.810927 0.389162 -0.337476
-0.825797 0.406242 0.377854
-0.830162 0.76135 0.380509
-0.831179 0.734271 -0.334576
0.810698 0.388464 -0.337476
0.831172 0.734095 -0.334576
0.830476 0.761445 0.380509
0.82572 0.405651 0.377854
-0.421004 0.198372 -0.338927
0.422109 0.198001 -0.338927
0.42828 0.206552 0.376527
-0.427572 0.206611 0.376527
-0.476728 1.24779 -0.333126
-0.47279 1.33832 0.381836
0.472778 1.33833 0.381836
0.476656 1.24778 -0.333126
-0.885716 0.424262 1.09318
-0.873872 0.472596 1.80846
-0.803849 0.817407 1.81063
-0.827615 0.783232 1.09559
0.885717 0.424209 1.09318
0.827613 0.783251 1.09559
0.80381 0.817424 1.81042
0.873881 0.472537 1.80825
-0.4148 0.234777 1.09198
0.414851 0.234777 1.09198
0.395483 0.294428 1.81097
-0.395425 0.294427 1.81097
-0.367922 1.34935 1.0968
-0.357304 1.09242 1.81334
0.35732 1.09242 1.81334
0.367939 1.3493 1.0968
-0.3737 0.496461 2.24463
0.373487 0.496461 2.24464
0.355987 0.831585 2.18578
-0.3562 0.831585 2.18578
-0.768389 0.27125 -2.10882
-0.59625 0.201481 -2.13108
-0.811172 0.192995 -1.9487
-0.785881 0.4175 2.1953
-0.57375 0.330313 2.16985
-0.782995 0.312838 1.9863
-0.744105 0.66875 -2.13176
-0.54375 0.754779 -2.14031
-0.752503 0.774586 -1.94179
-0.716118 0.9125 2.1811
-0.52125 0.998023 2.17226
-0.705106 0.993023 1.9905
0.59625 0.201473 -2.13109
0.768384 0.27125 -2.10882
0.811172 0.192995 -1.9487
0.57375 0.324508 2.17565
0.785918 0.4175 2.19534
0.781973 0.31386 1.9863
0.54375 0.754774 -2.1403
0.744116 0.66875 -2.13177
0.752492 0.774575 -1.94179
0.52125 0.997996 2.17224
0.716123 0.9125 2.1811
0.705115 0.993032 1.9905
-0.826632 0.202535 -0.875517
-0.834528 0.202972 -0.51779
-0.788287 0.306449 -0.695898
-0.623897 0.199981 -0.696653
-0.812645 0.258188 0.913117
-0.844461 0.218039 0.55539
-0.831508 0.323436 0.734886
-0.637004 0.216977 0.734253
-0.775568 0.870151 -0.869347
-0.810402 0.800467 -0.691363
-0.758766 0.877516 -0.511866
-0.623114 1.02592 -0.690607
-0.734742 0.950158 0.918057
-0.800851 0.8656 0.738684
-0.740207 0.931457 0.560576
-0.605478 1.14942 0.739317
0.826564 0.202603 -0.875517
0.624294 0.199972 -0.696653
0.836343 0.201157 -0.51779
0.788096 0.306208 -0.695898
0.812593 0.258241 0.913117
0.636988 0.216993 0.734253
0.845199 0.217301 0.55539
0.831508 0.323443 0.734886
0.775799 0.870382 -0.869347
0.623056 1.02597 -0.690607
0.810433 0.800342 -0.691363
0.758754 0.877504 -0.511866
0.734737 0.950154 0.918057
0.605473 1.14941 0.739317
[...]
POINT_DATA 3682
SCALARS point_scalars float 1
LOOKUP_TABLE default
-133.111
-41.9869
-78.2947
-38.8868
-132.945
-41.9515
-78.3689
-38.8039
-32.603
-33.8121
-45.5112
-43.2309
-32.4904
-33.8642
-45.5673
-43.2395
-2.94731
-145.483
-33.6544
-33.0353
-39.9664
-39.5091
-37.2482
-2.94731
-126.812
-33.638
-34.5236
-40.9935
-39.3169
-36.9461
9.37526
-114.76
-39.5305
-39.5004
-43.2411
-39.3449
-36.3871
-63.3523
-83.4247
-74.5113
-49.9923
-38.2988
-39.3449
-39.3449
-2.94731
-162.838
-33.0637
-38.1049
-39.3285
-35.3839
-34.0563
156.479
-34.4
-34.0891
146.15
-39.3449
-34.2846
-5.86115
-67.6739
-66.7465
-54.751
-42.7243
-39.3449
-39.0712
-3.55966
-161.074
-33.0058
-38.4437
-38.5877
-35.1784
-33.8145
156.38
-34.0514
-33.9765
182.583
-37.9214
-34.1989
-6.01686
-67.6632
-65.8627
-54.7398
-42.6837
-39.1202
-37.7316
-2.25422
-145.722
-33.6833
-32.9026
-40.1835
-39.43
-37.1325
-2.25422
-126.843
-33.1846
-34.5173
-40.9363
-39.2125
-36.7697
10.0796
-114.886
-39.4933
-39.428
-43.1739
-39.2575
-36.2856
-63.4363
-83.3502
-74.4245
-50.0031
-38.239
-39.2575
-39.2575
-46.1707
-221.02
-50.6719
-36.2143
-27.5643
-35.7615
-83.1818
-41.2748
-35.0353
-44.4773
-46.2281
-50.6757
-36.1116
-35.8603
-41.2512
-44.4453
-29.4751
-35.543
-40.9044
-35.712
-36.585
-46.9567
20.6032
-60.003
-29.7973
-35.4938
-35.7161
-46.9494
-48.6455
-48.6033
-64.7575
-22.5852
197.457
-33.3788
-33.4123
-35.2702
-87.7832
-40.8257
-40.7662
-34.1697
-46.2516
-25.0394
-62.9428
-197.241
-68.1531
-39.1242
-33.4258
-39.9246
-67.9468
-71.3915
-56.9396
-37.8322
-34.6757
-43.2099
-191.831
-63.1046
-68.0979
-33.5815
-39.016
-39.9004
-71.7411
-68.7455
-56.9218
-34.6477
-37.7485
-43.1782
-44.6213
-32.1025
-33.8438
-39.1918
-36.1844
-28.4963
-33.2017
-37.1142
-36.1893
-39.0658
-50.0901
9.30806
-43.4046
-40.7731
-44.2559
-54.0111
-44.4645
-39.1646
-32.4082
-33.7948
-36.0974
-37.1549
-28.8768
-33.2217
-36.2044
9.30308
-39.0309
-50.0886
-43.3797
-53.9977
-40.7972
-44.2558
-73.8069
194.489
-93.2941
152.851
-49.3224
-61.977
-42.7234
-31.4679
-31.9438
-21.4286
-35.8888
-34.5377
-49.1608
182.185
-46.7624
-25.3563
-38.1689
-28.8491
-43.4795
-47.574
-73.7598
194.517
-49.3164
-61.9177
-42.6227
-31.3055
-35.9111
-34.3995
-46.4629
-25.3871
-43.61
-47.562
-31.0746
-33.9373
-44.9508
-34.6753
-49.73
-36.6336
-28.1112
-41.1645
-35.2448
-35.4691
-38.3372
-74.9072
1.36882
-39.0865
-66.7422
-62.5274
-31.1063
-33.9414
-44.891
-34.6878
-28.1429
-41.164
-38.3587
-74.8955
-71.091
-45.8545
-43.0634
-69.2826
-71.0303
-69.2671
-42.983
-45.747
-89.5304
-89.4415
-48.0686
-48.0965
-49.5533
-5.58908
-5.67042
-49.5494
152.855
176.847
175.487
148.187
-32.7132
-26.8217
-36.4805
-39.9464
-32.7435
-39.9397
-36.5226
-26.8655
-35.4414
-35.4675
-34.7782
-34.7528
-61.1805
-58.0594
-58.0513
-60.9677
-41.477
-42.4036
-41.8841
-41.5158
-41.4667
-41.5317
-41.8435
-42.2478
-35.9064
-35.8589
-33.4604
-33.8724
-62.952
-39.0253
-39.0135
-62.9379
-30.9876
-30.8162
-32.7015
-32.7996
-65.8489
-155.709
-102.683
-39.6906
-37.484
-37.7705
-50.3061
-44.8897
-80.8982
-38.8287
-35.3028
-41.0121
-154.898
-65.726
-102.781
-38.225
-39.6093
-37.6872
-45.0727
-50.5156
-80.8885
-35.2373
-38.7609
-40.6498
-39.9129
-33.1276
-33.2773
-36.9509
-40.1788
-33.3431
-32.5478
-38.6918
-40.7986
-41.6764
-49.3392
-32.7756
-43.3537
-41.7912
-43.3943
-47.6628
-39.7983
-36.9016
-32.7982
-33.2191
-40.1495
-38.7066
-33.4633
-32.5799
-40.8415
-32.4882
-41.6617
-49.3056
-43.3252
-47.6615
-41.8196
-43.395
-54.1121
-67.9246
-108.631
174.017
-213.184
-213.138
-124.276
78.6506
-60.8057
-46.4945
-49.2695
-58.1397
-38.0788
-36.762
-41.6949
-33.7526
-29.2768
-29.3186
-30.032
-24.1141
-42.5949
-35.43
-34.5671
-34.581
-82.7687
-51.5298
-74.4598
128.272
-47.4746
-37.8157
-44.8405
-29.758
-34.879
-34.8671
-35.6669
-31.3082
-44.2965
-43.2652
-43.5228
-51.2649
-54.4129
-67.9419
-108.446
173.824
-60.7003
-46.3765
-49.2714
-58.0496
-37.9737
-36.6615
-41.6124
-33.6502
-41.7858
-35.4179
-34.7695
-34.4517
-47.4192
-37.8249
-44.7658
-29.7549
-44.2128
-43.2785
-43.5
-51.1987
-34.4288
-29.883
-30.4776
-32.263
-34.5284
-37.007
-39.5079
-34.9158
-40.4173
-40.4068
-44.8593
-38.1781
-34.3464
-37.453
-35.1019
-38.7424
-36.6131
-36.6264
-35.7809
-36.0573
-48.8038
-44.6274
-42.4557
-57.6819
19.3516
19.3415
13.7362
4.20453
-58.6493
-58.645
-62.3191
-59.3914
-34.5551
-29.5329
-30.4688
-32.239
-34.481
-36.9576
-39.4667
-34.9024
-34.3553
-37.4549
-35.1162
-38.7339
-48.8053
-44.6207
-42.4531
-57.6672
-59.0549
-49.1307
-48.9345
-45.5519
-58.9703
-49.1084
-48.8735
-45.5583
-76.2198
-64.0558
-64.0213
-56.191
-34.3981
-23.4206
-23.4159
-11.0364
198.455
170.581
187.733
198.499
-32.0407
-34.2939
-31.034
-35.3845
-32.0703
-34.311
-31.0575
-35.4122
-34.9821
-35.6728
-35.1517
-34.9917
-85.5901
-101.556
-74.179
-85.5832
-45.5878
-37.2992
-42.7578
-39.4689
-45.4794
-37.2603
-42.7053
-39.4547
-33.0195
-34.3834
-34.32
-35.0147
-41.6354
-46.485
-46.4776
-52.5902
-27.2343
-23.5002
-26.4334
-27.0846
-110.167
141.874
-121.849
93.3157
-68.479
-83.3707
-40.7702
-33.7884
-32.6778
-31.4531
-41.3061
-36.2213
-96.1735
158.826
-73.8502
120.712
-64.5814
-50.4914
-41.0393
-34.1833
-36.2892
-33.1903
-41.9228
-40.7343
-121.865
85.4458
-110.114
141.789
-68.4597
-83.1985
-32.7303
-31.3043
-40.707
-33.664
-41.2517
-35.6966
-73.8689
120.436
-96.0289
158.826
-64.573
-50.4949
-36.2592
-33.1403
-40.9223
-34.0845
-41.9452
-40.702
-46.1649
-46.237
-32.363
-34.1342
-39.5834
-32.8864
-43.4675
-36.7757
-40.8649
-34.7099
-27.1947
-33.9367
-33.2957
-36.605
-35.8907
-37.2943
-40.9671
-15.9656
-40.2516
-39.543
-44.0848
-69.4537
4.32629
-7.69358
-42.0784
-51.6511
-40.5672
-41.3357
-41.0585
-50.5118
-54.9205
-54.0459
-45.9432
-46.1825
-43.4422
-36.7655
-32.4181
-34.1748
-39.5379
-32.8478
-40.84
-34.6487
-35.9245
-37.2833
-27.2661
-34.0034
-33.3145
-36.5939
-40.9365
-15.9492
4.28976
-7.60025
-40.2016
-39.526
-44.0704
-69.5821
-42.1026
-51.7478
-54.9056
-54.0452
-40.589
-41.3563
-41.079
-50.4936
-73.2898
-72.1617
164.813
182.249
-92.3317
-92.286
153.253
152.79
-60.3312
-45.9241
-72.9097
-53.9966
-42.7833
-42.6149
-31.623
-31.7491
-32.2982
-32.3495
-25.2075
-25.037
-37.3978
-46.4129
-35.2901
-34.005
-48.9723
-48.9794
182.37
182.338
-43.5512
-56.2719
-36.1739
-15.9589
-38.3263
-38.2789
-29.9327
-30.0261
-43.1274
-41.6645
-54.0047
-42.6962
-73.2477
-72.1206
181.59
171.61
-60.2969
-45.8586
-72.8354
-53.9536
-42.5476
-42.6475
-31.4591
-31.611
-37.4091
-46.111
-35.2577
-33.7177
-56.3436
-43.9271
-15.9597
-36.1809
-41.6697
-42.9983
-42.6596
-53.9812
-32.3845
-29.2585
-35.0523
-34.1518
-45.3991
-45.0284
-33.5223
-36.8231
-49.2849
-49.302
-36.3072
-36.3141
-27.0897
-30.3215
-41.3759
-41.1091
-35.1828
-35.1708
-35.6384
-35.622
-36.5626
-39.2767
-93.798
-63.5328
-0.12516
-0.532162
-37.3669
-37.2966
-64.7845
-64.7788
-63.0666
-63.0572
-32.4588
-29.274
-35.0804
-34.152
-44.929
-45.3186
-33.5416
-36.823
-30.3427
-27.1298
-41.3744
-41.1126
-39.2862
-36.5819
-63.5191
-93.8489
-110.435
-61.9242
-59.19
-109.043
-39.1075
-39.718
-45.99
-46.0181
-41.1171
-41.7701
-45.7027
-39.5168
-91.2124
-98.389
-58.8389
-51.9151
-110.147
-108.98
-59.1474
-61.4658
-91.1505
-51.8251
-58.7932
-98.2655
-41.0871
-39.4786
-45.5559
-41.8411
-39.076
-45.9397
-45.9605
-39.6627
-115.877
-123.513
-75.384
-68.1156
-115.865
-68.0162
-75.3432
-123.464
-41.8941
-44.459
-55.5885
-51.0613
-41.944
-51.1367
-55.6145
-44.4716
-73.7334
-38.8963
-34.7698
-73.6121
-10.8295
12.2043
-12.6683
-22.6394
-10.8129
-22.6347
-12.6599
12.1957
-73.7103
-73.6355
-34.7721
-38.8943
110.517
152.808
170.058
87.0625
117.012
127.669
185.959
156.983
116.884
157.145
185.773
128.285
110.902
86.4915
170.158
152.494
-32.4468
-32.1681
-33.1565
-33.7369
-32.6101
-34.053
-30.028
-29.118
-41.4056
-40.2135
-33.3936
-36.5719
-43.3141
-36.7728
-36.4624
-43.4511
-32.3943
-33.7129
-33.1912
-32.2789
-43.2839
-43.4541
-36.478
-36.7649
-41.4284
-36.5875
-33.4161
-40.2306
-32.6077
-29.1445
-30.0499
-34.0652
-35.0311
-37.7538
-35.5921
-34.2685
-35.037
-34.3345
-35.6027
-37.7508
-35.8447
-35.8837
-35.0699
-32.7596
-35.8072
-32.807
-35.0658
-35.8705
-74.0876
-63.2591
-100.267
3.41102
-48.545
-60.6636
-71.8857
-53.2525
-48.5318
-53.2375
-71.8787
-60.6574
-73.9731
3.44285
-100.262
-63.2717
-36.9335
-36.3382
-38.3118
-37.763
-40.0201
-41.5072
-45.5255
-49.5349
-40.0887
-43.4636
-43.8724
-41.6617
-42.1204
-39.1716
-40.2343
-42.141
-36.92
-37.7543
-38.3055
-36.3657
-42.1447
-42.157
-40.2184
-39.1655
-39.8944
-41.5442
-43.779
-43.3515
-40.0235
-47.9407
-45.3763
-41.4334
-37.7228
-36.3387
-35.3114
-35.1136
-37.7865
-35.1145
-35.2764
-36.3431
-35.2652
-30.7981
-33.1023
-35.5934
-34.6149
-36.0351
-33.1898
-30.6934
-47.6453
-52.9998
-52.7987
-58.4354
-37.5005
-35.7943
-41.8488
-45.6349
-37.4493
-45.6175
-41.8333
-35.7797
-47.6245
-58.4306
-52.7895
-52.9079
-34.793
-26.7536
-26.5233
-34.0759
-34.5015
-33.9794
-26.3593
-26.6021
-34.2228
-31.6233
-28.12
-33.734
-34.3022
-33.8311
-28.2543
-31.681
-80.1214
-99.8982
-143.971
-41.0865
-39.7235
-38.8963
-65.8824
-39.291
-101.96
-39.4212
-36.4677
-38.0878
-99.4935
-79.9172
-144.258
-39.838
-41.0087
-38.9812
-39.3325
-65.9881
-101.998
-36.3905
-39.33
-38.033
-34.2625
-32.3443
-33.0739
-35.5088
-42.8357
-35.1861
-32.6853
-39.6607
-46.6765
-43.1648
-47.3659
-59.6425
-43.1917
-43.215
-43.1977
-45.4111
-34.0207
-35.4545
-32.2803
-33.0164
-42.784
-39.6185
-35.2626
-32.7453
-46.8318
-59.5754
-43.1787
-47.3642
-43.1987
-45.407
-43.2306
-43.1995
-46.789
-50.2778
-117.516
120.006
-235.74
-235.756
-158.537
16.5583
-53.0804
-48.9129
-48.8055
-55.396
-36.3026
-36.5747
-42.7509
-34.2767
-28.0151
-28.0579
-28.7422
-25.8243
-39.0163
-34.4359
-34.0431
-35.0256
-72.3693
-72.6633
-103.141
73.1209
-44.4076
-38.3448
-44.1835
-34.2852
-34.9732
-34.9713
-35.33
-33.8615
-45.9193
-42.4879
-43.9187
-48.3341
-47.0227
-50.5026
-117.657
120.195
-53.0663
-48.8305
-48.7988
-55.3087
-36.2265
-36.4836
-42.6893
-34.1864
-39.1398
-34.436
-34.2881
-34.9245
-44.3591
-38.3505
-44.1455
-34.2756
-45.8477
-42.4735
-43.9024
-48.2873
-31.197
-29.8735
-29.4746
-31.0437
-35.0268
-36.2003
-36.2774
-35.0321
-40.7308
-40.7251
-42.56
-39.5289
-34.9441
-36.598
-35.7864
-36.4851
-36.5718
-36.5778
-36.1178
-36.562
-47.7463
-45.9232
-44.9233
-51.4059
20.4696
20.4538
20.126
15.5982
-59.664
-59.6629
-60.9436
-59.4327
-31.4558
-29.7322
-29.4863
-31.4075
-34.9802
-36.1455
-36.246
-34.9994
-34.9506
-36.6
-35.7952
-36.4736
-47.741
-45.9199
-44.913
-51.3987
-52.0956
-48.9052
-48.7159
-47.2547
-51.9987
-48.8655
-48.6663
-47.3108
-70.0804
-64.5663
-64.5486
-60.2014
-27.8898
-22.815
-22.8113
-16.3198
205.927
191.698
197.708
205.973
-32.6161
-34.0658
-32.61
-34.3911
-32.6483
-34.0814
-32.6463
-34.425
-35.2619
-35.4737
-35.2655
-35.2818
-87.1812
-97.9444
-79.8071
-87.1782
-44.1515
-38.6224
-42.0051
-40.0348
-44.0448
-38.5741
-41.9424
-40.0017
-33.4984
-34.2619
-34.2158
-34.5331
-43.75
-46.3097
-46.3059
-49.1871
-25.1422
-25.4125
-25.0386
-25.0497
-61.1967
-61.0123
-152.499
97.7125
-176.452
-235.851
-158.42
23.4822
-83.6496
-65.8276
-65.767
-77.7631
-39.0998
-39.2163
-42.4756
-34.3653
-35.1582
-31.2055
-31.7653
-33.1853
-38.8917
-40.9568
-41.1357
-37.4982
-58.3276
-84.4476
-124.852
111.672
-49.2354
-56.1564
-102.93
54.9222
-68.1136
-51.596
-61.645
-50.9874
-38.5328
-37.0158
-42.9985
-34.5278
-34.8503
-34.7049
-35.3438
-34.1309
-40.5422
-43.7103
-42.3566
-43.2961
-172.525
-234.764
-158.621
24.5573
-61.451
-61.3034
-152.61
97.6918
-83.5304
-65.7043
-65.813
-77.6039
-36.0263
-31.2064
-32.3655
-32.877
-39.0039
-39.107
-42.4132
-34.2557
-39.8861
-40.6268
-41.1263
-37.215
-49.5302
-58.6653
-102.972
54.8361
-58.7261
-85.4007
-124.947
111.797
-68.1074
-51.9861
-61.6324
-50.9895
-34.8089
-34.6832
-35.314
-34.1047
-38.4567
-36.9283
-42.9204
-34.4223
-40.4196
-43.7482
-42.5283
-43.2534
-43.5056
-44.9004
-46.1015
-45.0962
-31.2819
-31.9112
-32.0552
-33.3167
-33.5763
-34.1558
-35.3461
-33.1854
-38.2603
-39.9094
-41.15
-37.7635
-35.9465
-35.5168
-39.7968
-34.5788
-31.5987
-28.4319
-26.7137
-33.4006
-32.854
-33.7391
-33.8375
-30.9238
-37.7803
-36.7745
-36.9134
-37.3494
-38.0137
-37.7232
-39.5441
-25.2163
-40.2554
-37.9719
-38.9106
-39.206
-50.1626
-49.7568
-46.7704
-57.2785
-2.484
15.8106
8.88225
2.2451
-43.4336
-43.3278
-43.0909
-46.3538
-40.328
-38.964
-40.7245
-41.2337
-43.83
-44.3132
-43.41
-47.0611
-50.1273
-56.9827
-54.0796
-55.6574
-43.5163
-44.8168
-45.8239
-45.0301
-38.2263
-39.8949
-41.1183
-37.7374
-31.2626
-32.0816
-32.0739
-33.4357
-33.5196
-34.1079
-35.3035
-33.1316
-35.9343
-35.4746
-39.7602
-34.5088
-37.8264
-36.7993
-36.9545
-37.4148
-31.615
-29.2736
-26.8113
-33.419
-32.8824
-33.7526
-33.8609
-30.9341
-38.0485
-37.8496
-39.5127
-25.1983
-2.37146
15.782
8.98134
2.30852
-40.229
-37.9253
-38.8934
-39.1817
-50.1359
-49.7676
-46.7606
-57.2499
-43.5302
-43.3309
-43.1133
-46.3628
-50.1077
-56.9762
-54.0714
-55.6443
-40.3592
-38.9707
-40.7423
-41.2599
-43.8194
-44.2996
-43.4047
-47.0429
-86.8346
-65.5027
-73.6417
-73.6847
190.036
202.073
185.26
193.591
-105.822
-83.7992
-92.9212
-92.8993
124.142
160.895
152.862
152.795
-49.3784
-49.327
-52.8065
-47.7786
-60.3544
-63.2081
-66.9438
-57.7219
-42.2495
-43.7518
-42.8876
-42.7342
-33.0206
-29.3859
-31.888
-31.434
-31.1254
-32.5539
-32.021
-32.0379
-22.6959
-21.9296
-22.6119
-22.5123
-35.2407
-36.4195
-37.1886
-41.0325
-34.362
-34.4732
-35.0761
-34.2926
-60.7224
-41.5259
-49.1896
-49.1859
142.16
194.377
180.069
179.23
-45.0396
-48.5628
-44.4594
-49.6397
-27.2672
-24.3906
-30.3467
-20.6161
-36.7993
-39.7882
-38.2085
-38.2305
-29.5567
-27.6997
-29.1879
-29.2565
-43.291
-43.4307
-43.7667
-42.45
-49.1498
-46.8306
-50.4793
-45.0871
-86.6942
-65.4562
-73.6037
-73.6601
189.626
202.23
193.56
186.615
-49.3713
-49.3189
-52.8779
-47.7311
-60.2771
-63.1596
-66.8787
-57.6703
-42.1571
-43.6445
-42.6375
-42.7687
-32.8957
-29.2226
-31.7368
-31.2816
-35.3354
-36.4036
-37.2198
-40.9537
-34.2659
-34.3723
-34.9737
-34.0923
-44.7272
-48.5273
-49.2745
-45.0257
-27.2641
-24.3878
-20.6098
-30.3475
-43.3199
-43.4268
-42.4483
-43.6774
-49.1041
-46.8192
-45.0704
-50.4622
-30.9232
-31.537
-31.7764
-30.2831
-33.1453
-34.5008
-34.2592
-34.1593
-44.1458
-44.585
-45.1254
-44.9198
-34.7417
-34.4252
-34.0327
-35.6262
-47.2381
-52.6941
-49.5911
-49.5997
-37.3465
-36.0854
-36.6069
-36.6098
-30.8882
-29.4906
-27.4924
-28.9194
-40.3891
-40.3538
-41.468
-40.7827
-35.4927
-35.0732
-35.2315
-35.2274
-35.7997
-35.2626
-35.5014
-35.4953
-40.0089
-36.6593
-37.6655
-38.9578
-64.2962
-82.4249
-83.6657
-67.9556
7.7856
-5.29126
0.916531
1.10655
-14.0541
-80.6855
-38.7854
-38.7625
-64.2393
-70.051
-66.243
-66.2403
-61.3175
-57.5866
-63.0058
-63.0018
-30.9436
-31.5617
-31.8226
-30.2935
-33.1333
-34.5074
-34.2805
-34.1592
-44.0877
-44.5196
-44.8547
-45.0583
-34.753
-34.447
-34.0506
-35.6275
-30.9136
-29.5154
-28.9475
-27.5224
-40.3731
-40.38
-41.4676
-40.7825
-40.0217
-36.6842
-38.9735
-37.6965
-64.2741
-82.4172
-67.941
-83.6723
-83.9447
-70.0814
-72.5317
-66.0749
-46.0471
-45.6891
-45.1781
-45.6409
-41.3682
-42.9822
-42.9774
-44.3835
-80.1777
-66.2812
-71.276
-61.7805
-83.9002
-70.0291
-72.4705
-65.9853
-80.1283
-66.2655
-71.2262
-61.8852
-41.3371
-42.9403
-42.8681
-44.2823
-45.8895
-45.631
-45.0687
-45.5491
-102.266
-87.2255
-91.2182
-80.2165
-102.168
-87.0904
-91.1548
-80.1364
-47.2281
-45.8113
-50.7704
-48.7857
-47.2672
-45.8321
-50.8055
-48.8084
-59.7624
-50.0758
-49.2146
-42.2126
-10.5757
-0.723783
-10.7209
-2.72191
-10.5613
-0.743634
-10.7509
-2.55175
-59.7863
-50.0016
-49.2278
-42.2158
151.946
138.113
155.452
153.754
173.45
158.957
186.108
182.483
158.251
173.565
182.454
184.033
115.511
147.002
149.389
162.277
-32.5275
-32.7909
-32.6329
-33.0434
-26.8351
-29.8375
-27.5101
-26.9523
-39.1914
-38.7296
-32.6458
-35.8882
-39.6919
-41.9192
-38.2153
-39.7258
-32.5685
-32.7834
-32.6887
-33.0658
-39.6788
-41.9051
-38.2144
-39.7283
-39.2606
-38.7853
-32.664
-35.8676
-26.8947
-29.862
-27.6011
-26.9962
-34.8424
-35.9895
-35.0746
-35.9133
-35.9966
-34.8662
-35.9301
-35.1112
-35.2954
-34.4365
-35.041
-34.4096
-34.3973
-35.269
-34.3953
-35.0186
-89.8342
-26.5825
-81.2868
-38.1245
-53.5156
-56.2882
-60.4063
-62.3029
-56.2743
-53.4934
-62.2961
-60.3928
-26.4331
-90.1299
-37.9916
-81.4366
-41.1622
-41.557
-39.4439
-41.5228
-41.0497
-41.7579
-43.0773
-44.3964
-41.2008
-41.7131
-42.3983
-42.3775
-41.3632
-41.6376
-41.2382
-41.2797
-41.1475
-41.5406
-39.4434
-41.5172
-41.3865
-41.656
-41.2459
-41.2847
-41.0921
-41.6644
-42.365
-42.2642
-40.9699
-41.6125
-42.9311
-44.1059
-35.0262
-36.2489
-35.6815
-35.8249
-34.9252
-36.1879
-35.657
-35.8043
-33.0736
-34.4076
-32.7527
-33.6111
-33.2242
-35.2895
-32.8841
-33.906
-59.223
-59.1062
-59.2789
-63.3808
-37.5168
-39.7841
-38.5533
-40.7703
-37.4905
-39.7563
-38.6066
-40.7532
-59.234
-59.1101
-59.255
-63.3662
-32.8935
-31.1185
-31.1011
-28.3086
-30.9527
-32.7482
-28.121
-30.9225
-32.9669
-33.6177
-31.3395
-32.1253
-33.7065
-33.0468
-32.2446
-31.4358
-149.905
85.5706
-154.418
22.2033
-108.628
-109.527
-41.1723
-35.8435
-33.3693
-37.0334
-39.1013
-35.8135
-115.472
87.1312
-101.837
49.4523
-87.329
-73.6698
-42.2309
-34.9165
-36.1571
-34.8532
-39.8505
-39.5017
-154.509
22.9046
-149.926
85.7375
-108.301
-109.591
-35.5197
-37.0878
-41.1497
-35.6119
-39.1487
-36.7495
-101.695
49.2781
-115.532
87.004
-87.3155
-73.648
-36.1115
-34.7814
-42.1524
-34.8522
-39.6594
-39.4183
-39.2193
-40.8642
-32.0798
-33.9918
-34.9461
-32.6664
-38.9231
-35.7924
-40.1549
-38.155
-32.2768
-35.6958
-33.3875
-29.0658
-38.1179
-41.2852
-41.6648
-29.4102
-41.1073
-42.4673
-45.6237
-59.8827
-12.004
-52.9987
-42.9969
-45.4352
-41.514
-41.9486
-43.3555
-45.8065
-48.0603
-47.5244
-39.2123
-40.7876
-38.8694
-35.7476
-32.0254
-34.0174
-34.896
-32.5897
-40.1314
-38.1588
-38.1397
-41.3144
-32.2932
-35.6806
-33.4142
-29.0816
-41.6752
-29.3373
-11.7285
-53.0259
-41.0621
-42.4429
-45.5943
-59.792
-43.0193
-45.4307
-48.053
-47.5139
-41.5343
-41.9721
-43.3622
-45.7945
-136.858
105.977
-131.815
98.6049
-109.741
-104.345
165.264
168.814
-157.862
4.85264
-157.796
4.48015
-123.803
-123.781
90.4311
90.3341
-62.0522
-64.4037
-46.0551
-49.0966
-52.687
-48.1988
-62.5886
-54.3622
-42.3394
-34.5495
-43.9751
-34.2631
-41.6753
-41.5415
-34.0095
-33.7113
-29.6088
-28.2055
-29.864
-28.0021
-30.2661
-30.2158
-24.8538
-24.761
-50.1322
-37.7972
-35.9641
-35.1606
-36.0219
-42.079
-35.0954
-35.1233
-102.514
96.66
-102.565
94.547
-73.9822
-73.9844
119.273
118.449
-51.4732
-41.6016
-41.7325
-29.1043
-42.9986
-47.582
-34.0017
-26.3814
-35.2243
-33.9209
-35.2113
-33.8999
-35.7116
-35.7046
-30.9053
-30.9517
-43.9736
-45.719
-43.2066
-45.9539
-44.3751
-42.841
-52.2184
-49.2772
-136.897
106.046
-132.087
98.7599
-109.603
-104.118
168.247
165.007
-61.9396
-64.2842
-45.9766
-49.0116
-52.8962
-48.104
-62.5381
-54.2789
-42.2611
-34.4629
-43.897
-34.1742
-41.4567
-41.6002
-33.9168
-33.6088
-48.6148
-37.4713
-35.9815
-35.1253
-36.1077
-42.8405
-34.948
-34.87
-51.4038
-41.5893
-41.7806
-29.0991
-47.4285
-43.118
-26.3786
-33.9947
-43.8046
-45.6996
-43.1004
-46.032
-42.8713
-44.2791
-49.2351
-52.1678
-32.9197
-33.7245
-28.9536
-32.0747
-31.2613
-30.0368
-33.1003
-32.4635
-35.738
-33.9764
-37.431
-36.7962
-39.4227
-39.464
-34.2866
-35.7553
-42.1463
-38.9722
-42.1329
-38.9638
-44.7198
-44.7258
-38.0228
-38.0233
-34.6556
-33.806
-37.4334
-37.8672
-34.5067
-35.8523
-38.4685
-39.1433
-36.2235
-36.6214
-36.237
-36.6313
-35.8001
-35.7944
-36.1258
-36.1266
-45.9213
-54.2388
-42.2078
-48.6543
-42.607
-42.7136
-60.3428
-55.2988
17.1963
14.234
17.637
14.2471
13.4764
13.3798
3.90025
3.98562
-59.446
-58.3203
-59.4414
-58.3152
-61.8926
-61.8887
-59.0456
-59.043
-33.0954
-33.8578
-28.8766
-31.8178
-31.33
-30.0217
-33.1515
-32.3366
-35.6984
-33.9359
-37.4299
-36.7455
-39.4203
-39.3757
-34.269
-35.7453
-34.6666
-33.8064
-37.4416
-37.8657
-35.867
-34.5213
-38.459
-39.1391
-45.9245
-54.2521
-42.2162
-48.641
-42.7176
-42.6093
-55.2843
-60.3342
-59.1492
-58.6896
-52.5571
-47.8276
-47.1106
-52.0797
-45.8957
-45.4178
-59.0939
-58.5588
-52.5624
-47.8352
-51.9354
-47.2387
-45.3999
-45.894
-75.9851
-75.9647
-69.275
-59.5713
-69.2359
-59.5412
-55.9975
-56.0106
-34.3917
-34.3902
-28.5039
-17.3673
-17.3593
-28.5029
-11.295
-11.2843
190.934
198.107
170.255
170.249