# vtk DataFile Version 2.0
tet_velo
ASCII
DATASET UNSTRUCTURED_GRID
POINTS 29498 float
-0.715 0.085 -1.95328
-0.848645 0.115 1.805
-0.750016 0.465 -1.945
-0.675 0.832561 1.945
0.725 0.095 -1.95192
0.851318 0.115 1.805
0.750232 0.465 -1.945
0.675 0.832754 1.945
-0.784991 0.0695577 -0.70052
-0.814385 0.0947117 0.55224
-0.845959 0.708469 -0.648333
-0.806281 0.816316 0.648333
0.805979 0.0627938 -0.699613
0.82079 0.096755 0.552693
0.844718 0.707148 -0.648333
0.806484 0.816576 0.648333
-1.50851 -0.289224 -3.00211
-1.51309 -0.216369 -1.98238
-1.56285 -0.220146 -0.730784
-1.58558 -0.229936 0.511984
-1.59448 -0.219683 1.76283
-1.60527 -0.191068 2.77892
-1.61638 -0.150418 3.80174
-1.51227 -0.0279709 -2.98241
-1.51883 0.073349 -1.95784
-1.58305 0.0980728 -0.697644
-1.59099 0.111338 0.558631
-1.5834 0.12563 1.81798
-1.6037 0.154257 2.83466
-1.62118 0.193722 3.85602
-1.53354 0.447457 -2.95517
-1.55287 0.54595 -1.93222
-1.62634 0.723386 -0.642055
-1.58399 0.814645 0.651231
-1.49026 0.83883 1.94052
-1.55876 0.863253 2.95537
-1.61416 0.896362 3.96961
-1.56581 1.32721 -2.88133
-1.58113 1.44733 -1.85189
-1.61129 1.64534 -0.54743
-1.61487 1.80367 0.766492
-1.59994 1.88356 2.07043
-1.60944 1.9186 3.09878
-1.63561 1.94906 4.11787
-0.733729 -0.28313 -2.99896
-0.722786 -0.207186 -1.97792
-0.764999 -0.234226 -0.731088
-0.791639 -0.243692 0.506572
-0.810584 -0.231203 1.75319
-0.827263 -0.200577 2.7724
-0.838421 -0.157974 3.79801
-0.737524 -0.0312713 -2.98129
-0.844688 0.146073 2.8293
-0.851282 0.186887 3.85323
-0.753862 0.412361 -2.96044
-0.80727 0.858275 2.95632
-0.853331 0.891944 3.96988
-0.775319 1.30194 -2.88655
-0.783125 1.42283 -1.85768
-0.812402 1.63696 -0.550889
-0.830037 1.8071 0.767023
-0.83046 1.88691 2.07359
-0.843116 1.91982 3.10193
-0.867201 1.94903 4.12019
0.77785 -0.278826 -2.99808
0.776758 -0.202359 -1.97683
0.8188 -0.237504 -0.730272
0.833414 -0.243158 0.507023
0.843337 -0.230822 1.75335
0.778479 -0.200339 2.77255
0.739004 -0.157767 3.79819
0.7607 -0.0262995 -2.98044
0.742612 0.146264 2.82939
0.712604 0.187095 3.85339
0.764956 0.41459 -2.96003
0.677691 0.858479 2.95639
0.676305 0.89214 3.97002
0.794774 1.30254 -2.88623
0.802237 1.42294 -1.85743
0.792279 1.63663 -0.550691
0.750875 1.8069 0.767186
0.705557 1.88695 2.07373
0.684004 1.91992 3.10209
0.668909 1.94913 4.12037
1.54924 -0.282818 -3.00055
1.5528 -0.210854 -1.98064
1.60786 -0.223351 -0.729403
1.63053 -0.2301 0.512825
1.62753 -0.218881 1.76326
1.57612 -0.19055 2.77928
1.53349 -0.150019 3.80214
1.5311 -0.020759 -2.98093
1.52632 0.0812715 -1.95613
1.60237 0.0938665 -0.696332
1.61487 0.111572 0.559388
1.59866 0.126552 1.8183
1.54163 0.154783 2.83495
1.50554 0.194136 3.85638
1.53833 0.451653 -2.95423
1.5463 0.549119 -1.93148
1.62345 0.721592 -0.641481
1.58907 0.814308 0.651598
1.48537 0.839564 1.94075
1.46489 0.863739 2.95561
1.45937 0.896746 3.96993
1.57821 1.32842 -2.88065
1.58905 1.44769 -1.85132
1.58779 1.6448 -0.546971
1.54541 1.80327 0.766872
1.48863 1.8836 2.07076
1.46099 1.91877 3.09913
1.44606 1.94926 4.11825
-0.74125 0.275 -1.95788
0.00500003 0.0874477 -1.95515
-0.771605 0.0556688 -1.3269
-0.821053 0.473781 1.93423
0.00133651 0.172506 1.74749
-0.833317 0.103054 1.17862
0.000108004 0.548989 -2.02899
-0.864973 0.653719 -1.29667
0 0.886069 1.99841
-0.776471 0.860269 1.29667
0.74494 0.28 -1.95578
0.791812 0.0525739 -1.32577
0.821447 0.473877 1.93329
0.836907 0.105024 1.17885
0.865052 0.653651 -1.29667
0.776952 0.860875 1.29667
-0.801664 0.0801588 -0.07414
-0.862995 0.389013 -0.674427
0.0104941 0.0936509 -0.700067
-0.876279 0.455514 0.600287
0.00320271 0.117341 0.552467
-0.832604 0.768877 0
-0.000620607 0.988682 -0.648333
0.000101761 1.31491 0.648333
0.810511 0.0826477 -0.07346
0.862951 0.384971 -0.673973
0.876563 0.456666 0.600513
0.832748 0.769009 0
-0.896795 0.332007 -1.31178
-0.874677 0.422264 -0.03707
-0.885518 0.464647 1.23764
0.00774708 0.0759342 -1.32633
0.00684843 0.109201 -0.0738
0.00226961 0.125142 1.17873
0.00255401 0.2775 -1.71696
0.000668257 0.473829 2.14117
-0.000256302 0.794717 -1.29667
-0.000259423 1.26935 0
5.08804e-05 1.28412 1.29667
0.896785 0.332485 -1.31122
0.873561 0.420818 -0.03673
0.885504 0.465271 1.23776
-1.11692 0.0791745 -1.95556
-0.718893 -0.061093 -1.9656
-0.726262 0.0268643 -2.46728
-1.21602 0.120315 1.81149
-0.829615 -0.0581015 1.7791
-0.846667 0.130536 2.31715
-1.15145 0.505475 -1.93861
-0.751939 0.43868 -2.45272
-0.766571 0.943914 -1.90134
-1.08263 0.835696 1.94276
-0.741135 0.845418 2.45066
-0.75273 1.35974 2.00929
0.750879 -0.0536795 -1.96438
0.74285 0.0343502 -2.46618
1.12566 0.0881358 -1.95402
0.847328 -0.0579109 1.77917
0.796965 0.130632 2.3172
1.22499 0.120776 1.81165
0.757594 0.439795 -2.45251
0.776234 0.943971 -1.90121
1.14827 0.507059 -1.93824
0.676346 0.845617 2.4507
0.690279 1.35985 2.00937
1.08019 0.836159 1.94287
-1.18402 0.0838153 -0.699082
-0.774995 -0.082334 -0.715804
-1.20269 0.103025 0.555435
-0.803012 -0.0744904 0.529406
-1.23615 0.715928 -0.645194
-0.82918 1.17271 -0.599611
-1.19514 0.81548 0.649782
-0.818159 1.31171 0.707678
0.812389 -0.0873552 -0.714943
1.20417 0.0783302 -0.697973
0.827102 -0.0732015 0.529858
1.21783 0.104163 0.556041
0.818498 1.17189 -0.599512
1.23408 0.71437 -0.644907
0.77868 1.31174 0.70776
1.19778 0.815442 0.649965
-1.5108 -0.252796 -2.49224
-1.51039 -0.158597 -2.99226
-1.12112 -0.286177 -3.00053
-1.53797 -0.218258 -1.35658
-1.51596 -0.0715098 -1.97011
-1.11794 -0.211777 -1.98015
-1.57422 -0.225041 -0.1094
-1.57295 -0.0610368 -0.714214
-1.16393 -0.227186 -0.730936
-1.59003 -0.22481 1.13741
-1.58828 -0.0592989 0.535307
-1.18861 -0.236814 0.509278
-1.59988 -0.205375 2.27087
-1.58894 -0.0470266 1.79041
-1.20253 -0.225443 1.75801
-1.61082 -0.170743 3.29033
-1.60449 -0.0184055 2.80679
-1.21627 -0.195822 2.77566
-1.61878 0.0216521 3.82888
-1.2274 -0.154196 3.79987
-1.51555 0.0226891 -2.47013
-1.5229 0.209743 -2.96879
-1.12489 -0.0296211 -2.98185
-1.55094 0.0857109 -1.32774
-1.53585 0.30965 -1.94503
-1.58702 0.104706 -0.0695065
-1.6047 0.41073 -0.669849
-1.58719 0.118484 1.18831
-1.58749 0.462992 0.604931
-1.59355 0.139943 2.32632
-1.53683 0.48223 1.87925
-1.61244 0.173989 3.34534
-1.58123 0.508755 2.89502
-1.22419 0.150165 2.83198
-1.61767 0.545042 3.91282
-1.23623 0.190304 3.85463
-1.54321 0.496703 -2.44369
-1.54967 0.887335 -2.91825
-1.1437 0.429909 -2.95781
-1.58961 0.634668 -1.28714
-1.567 0.996641 -1.89205
-1.60516 0.769016 0.00458784
-1.61881 1.18436 -0.594743
-1.53712 0.826737 1.29588
-1.59943 1.30916 0.708862
-1.52451 0.851042 2.44794
-1.5451 1.36119 2.00548
-1.58646 0.879808 3.46249
-1.5841 1.39092 3.02707
-1.18302 0.860764 2.95584
-1.62488 1.42271 4.04374
-1.23374 0.894153 3.96975
-1.57347 1.38727 -2.36661
-1.17056 1.31458 -2.88394
-1.59621 1.54634 -1.19966
-1.18213 1.43508 -1.85478
-1.61308 1.7245 0.109531
-1.21184 1.64115 -0.54916
-1.60741 1.84361 1.41846
-1.22245 1.80538 0.766758
-1.60469 1.90108 2.58461
-1.2152 1.88523 2.07201
-1.62253 1.93383 3.60832
-1.22628 1.91921 3.10036
-1.25141 1.94904 4.11903
-0.728257 -0.245158 -2.48844
-0.735627 -0.157201 -2.99012
0.0220602 -0.280978 -2.99852
-0.743892 -0.220706 -1.3545
0.0269864 -0.204773 -1.97737
-0.778319 -0.238959 -0.112258
0.0269005 -0.235865 -0.73068
-0.801112 -0.237448 1.12988
0.0208874 -0.243425 0.506797
-0.818924 -0.21589 2.2628
0.0163763 -0.231012 1.75327
-0.832842 -0.179275 3.28521
-0.835976 -0.0272521 2.80085
-0.024392 -0.200458 2.77248
-0.844851 0.0144564 3.82562
-0.0497084 -0.157871 3.7981
-0.745693 0.190545 -2.97087
0.0115882 -0.0287854 -2.98086
-0.847985 0.16648 3.34127
-0.825979 0.502174 2.89281
-0.0510382 0.146168 2.82935
-0.852306 0.539415 3.91156
-0.0693389 0.186991 3.85331
-0.764591 0.857151 -2.9235
0.00554699 0.413476 -2.96023
-0.830301 0.875109 3.4631
-0.825193 1.38905 3.02913
-0.0647895 0.858377 2.95636
-0.860266 1.42048 4.04504
-0.0885126 0.892042 3.96995
-0.779222 1.36238 -2.37212
0.0097273 1.30224 -2.88639
-0.797763 1.52989 -1.20428
0.00955594 1.42288 -1.85755
-0.821219 1.72203 0.108067
-0.0100614 1.63679 -0.55079
-0.830248 1.847 1.4203
-0.0395808 1.807 0.767105
-0.836788 1.90337 2.58776
-0.0624511 1.88693 2.07366
-0.855159 1.93443 3.61106
-0.0795561 1.91987 3.10201
-0.0991463 1.94908 4.12028
0.777304 -0.240592 -2.48745
0.769275 -0.152563 -2.98926
1.16355 -0.280822 -2.99931
0.797779 -0.219932 -1.35355
1.16478 -0.206607 -1.97873
0.826107 -0.240331 -0.111624
1.21333 -0.230428 -0.729837
0.838376 -0.23699 1.13018
1.23197 -0.236629 0.509924
0.810908 -0.215581 2.26295
1.23543 -0.224851 1.7583
0.758742 -0.179053 3.28537
0.760546 -0.0270379 2.80097
1.1773 -0.195445 2.77592
0.725804 0.014664 3.82579
1.13625 -0.153893 3.80017
0.762828 0.194145 -2.97023
1.1459 -0.0235293 -2.98068
0.727608 0.166679 3.34139
0.710152 0.502371 2.89289
1.14212 0.150523 2.83217
0.694455 0.539617 3.9117
1.10907 0.190616 3.85488
0.779865 0.858565 -2.92313
1.15164 0.433122 -2.95713
0.676998 0.875309 3.46321
0.680848 1.3892 3.02924
1.07129 0.861109 2.956
0.672607 1.42064 4.0452
1.06784 0.894443 3.96997
0.798505 1.36274 -2.37183
1.18649 1.31548 -2.88344
0.797258 1.52978 -1.20406
1.19565 1.43532 -1.85438
0.771577 1.72176 0.108248
1.19003 1.64071 -0.548831
0.728216 1.84692 1.42046
1.14814 1.80509 0.767029
0.694781 1.90343 2.58791
1.09709 1.88527 2.07225
0.676456 1.93453 3.61123
1.0725 1.91935 3.10061
1.05749 1.9492 4.11931
1.55102 -0.246836 -2.49059
1.54017 -0.151788 -2.99074
1.58033 -0.217103 -1.35502
1.53956 -0.0647914 -1.96838
1.6192 -0.226726 -0.108289
1.60512 -0.0647425 -0.712867
1.62903 -0.22449 1.13804
1.6227 -0.0592643 0.536106
1.60182 -0.204715 2.27127
1.6131 -0.0461642 1.79078
1.55481 -0.170285 3.29071
1.55888 -0.0178839 2.80712
1.51951 0.0220586 3.82926
1.52871 0.0302562 -2.46853
1.53471 0.215447 -2.96758
1.56434 0.087569 -1.32623
1.53631 0.315195 -1.9438
1.60862 0.102719 -0.068472
1.61291 0.407729 -0.668906
1.60677 0.119062 1.18885
1.60197 0.46294 0.605493
1.57015 0.140667 2.32663
1.54202 0.483058 1.87952
1.52358 0.174459 3.34567
1.50326 0.509261 2.89528
1.48245 0.545441 3.91315
1.54231 0.500386 -2.44286
1.55827 0.890036 -2.91744
[...]
POINT_DATA 29498
VECTORS point_vectors float
-0.822576 -3.48991 5.35062
0.485564 0.436815 2.80367
-2.66929 0.80816 3.72247
-0.0967938 -0.148196 0.0755012
0.406687 -1.61467 2.4498
-0.251322 0.25634 1.83048
2.7269 0.811984 3.81677
0.104762 -0.150178 0.0699765
0.0557791 0.0146073 0.37848
0.024665 0.00321751 1.40606
-0.0187961 -0.0258978 0.164943
0 0 0
-0.0481511 0.0142135 0.709277
-0.0290145 0.00311521 1.89688
0.0234198 -0.0283662 0.15265
0 0 0
-0.608051 -0.288684 19.8473
-1.25045 -0.745507 20.5031
-0.450155 -0.483398 21.3786
0.0679895 -0.244404 21.4946
0.55448 -0.0124352 21.5954
0.861405 0.165099 21.2994
0.89018 0.0329361 21.1102
-0.733992 -0.246717 19.7786
-1.6476 -0.609833 20.4323
-0.649613 -0.571743 21.3939
-0.0285247 -0.402925 21.5376
0.633249 -0.204833 21.6448
1.01788 -0.103912 21.3553
1.04268 -0.240861 21.0077
-0.813762 -0.0278255 19.6832
-1.79777 -0.0513998 20.3246
-1.14953 -0.402641 21.3178
-0.423327 -0.458944 21.6666
0.397674 -0.656509 21.66
0.782935 -0.68034 21.3471
0.658908 -0.55676 21.097
-0.616381 0.335525 19.8554
-1.04563 0.554011 20.2951
-1.02016 0.355073 21.0684
-0.470193 0.00231061 21.4574
-0.0451738 -0.296731 21.3719
0.216474 -0.495954 21.2288
0.270112 -0.744021 20.6546
-0.623694 -0.712542 19.2827
-1.6773 -3.61095 20.8417
-0.180902 -0.34837 21.7675
0.239123 0.103641 21.1288
0.724088 0.834258 21.0385
1.19703 1.32556 20.7196
1.31807 1.37271 20.1275
-0.770484 -0.605603 18.9664
1.88013 1.15585 13.6868
1.96062 0.830764 15.3714
-0.927299 -0.0518136 18.6027
0.830139 -1.10251 9.7249
1.46264 -1.03454 13.6129
-0.628585 0.740339 19.3082
-1.36576 1.848 19.8478
-1.74061 1.75781 21.0149
-0.718656 0.429499 21.9054
-0.235913 -0.265676 21.513
-0.0133966 -0.583179 21.3827
-0.0667413 -0.567122 21.1996
0.640176 -0.689686 19.3133
1.84733 -3.38276 20.7686
0.187673 -0.381508 21.9139
-0.253425 0.0797442 21.1221
-0.746066 0.758772 21.035
-1.11001 1.34995 20.3335
-1.18655 1.61336 19.299
0.787682 -0.590962 18.9866
-1.63475 1.20512 11.2597
-1.86833 1.21383 14.0198
0.935589 -0.0496759 18.6197
-0.273891 -1.06863 4.02378
-0.926311 -1.05175 7.4677
0.631733 0.733395 19.3173
1.37468 1.80966 19.861
1.73635 1.81331 21.0015
0.71788 0.496581 21.9456
0.24438 -0.195697 21.5035
0.0375396 -0.532381 21.4112
-0.060551 -0.540457 21.7123
0.59773 -0.279993 19.8808
1.20101 -0.687769 20.4914
0.453245 -0.478742 21.3395
-0.0431298 -0.261302 21.4769
-0.525779 -0.0421305 21.5807
-0.885408 0.160853 21.314
-0.944188 0.10597 21.0798
0.723274 -0.231226 19.7891
1.62792 -0.593083 20.4329
0.635517 -0.554127 21.3784
0.0312689 -0.394913 21.5179
-0.608252 -0.207867 21.6321
-1.08896 -0.11007 21.368
-1.23866 -0.245515 20.9318
0.811929 -0.0283626 19.6845
1.81259 -0.0436866 20.3228
1.14828 -0.404547 21.3157
0.422941 -0.455658 21.6545
-0.371001 -0.660144 21.6498
-0.829992 -0.778373 21.3663
-0.744259 -0.558875 21.1117
0.612628 0.330566 19.8628
1.03573 0.54612 20.2979
1.03882 0.368547 21.0707
0.497223 0.0178346 21.4696
0.076674 -0.296408 21.3872
-0.163747 -0.508822 21.2637
-0.207959 -0.744745 20.7778
-1.52931 -0.322897 1.39513
-0.00118959 -0.0166319 0.0797698
-0.0216288 -0.00637907 0.33277
0.0785229 -0.120183 0.373261
-0.000345119 0.00464064 0.0448396
0.063479 -0.0214977 1.18237
0.000164871 0.443078 0.485053
-0.263874 -0.229761 1.06143
-0.00754423 -0.0188745 0.00354943
0 0 0
2.35174 -0.477857 2.2637
0.0649886 -0.0234919 1.02168
-0.0739745 -0.129526 0.361544
-0.0522543 -0.0146346 1.00002
0.26517 -0.231105 1.07148
0 0 0
0.0103106 -0.00173314 0.280593
0 0 0
1.52794e-05 0.000119621 0.0037993
5.74815e-05 0.00459139 0.0319035
-9.55058e-06 6.69606e-06 0.00122899
0.00333811 0.00760372 0.0367834
5.12574e-06 0.0227586 0.0484938
-0.000117353 0.000535124 0.0428369
-0.030845 0.0290754 1.08412
0 0 0
-2.75386e-05 0.00430529 0.0301373
-0.00418 0.00956754 0.0450421
-0.00401166 -0.00780045 0.134219
-0.00149469 0.0154034 0.0980267
0 0 0
-0.000338056 -0.000952884 0.0478525
-2.92155e-08 -1.61437e-07 -1.63381e-05
0 0 0
0 0 0
-0.0097736 -0.0889536 0.0290245
-1.6854e-05 0.00645297 0.0375945
-0.000220775 0.00683118 0.028732
-8.57785e-05 -0.000385744 0.0054767
0.00123878 -0.00284928 0.0452949
0.00112772 0.00852149 0.0581662
0 0 0
-3.275 -1.80635 20.2459
-2.61019 -5.96956 21.358
-2.08361 -1.86975 17.7815
1.13121 -0.0520156 21.1201
0.952561 0.911174 16.4495
1.41011 1.06137 10.8368
-3.88132 0.167591 19.9228
-2.76229 0.217911 16.8574
-3.08707 3.16857 19.2741
0.723655 -0.706929 18.1945
-0.344008 -1.33287 4.44163
-0.140581 -0.487539 17.5866
2.78311 -5.62763 21.1476
2.10359 -1.8127 17.8264
3.2676 -1.74098 20.2394
-0.964491 0.821182 16.7167
-1.12516 1.01141 8.75114
-1.08656 -0.0911109 21.1984
2.75627 0.215715 16.8985
3.09278 3.10537 19.2931
3.88798 0.190316 19.9094
0.80011 -1.3896 2.06807
0.0985594 -0.364177 15.8925
-0.672197 -0.711712 18.0368
-0.314749 -0.948559 21.5265
0.0257212 0.191349 15.0629
0.230995 -0.524606 20.89
0.440263 0.167684 14.8382
-1.87288 -1.00645 21.6695
-3.91283 1.77486 21.0064
-0.651325 -0.868698 21.0661
-1.19017 0.138999 20.5051
-0.0317887 0.160833 15.9927
0.363952 -0.94811 21.7473
-0.486407 0.143568 15.2838
-0.213065 -0.541882 21.092
3.9643 1.85027 20.9643
1.86762 -1.01697 21.6698
1.03109 0.255569 19.3885
0.648802 -0.865705 21.0955
-0.956564 -0.545629 20.0358
-0.661614 -0.274417 19.8138
-0.656285 -0.462881 19.6218
-0.91095 -0.645288 21.1457
-1.42628 -0.690102 20.4539
-1.797 -1.69304 20.4764
-0.14167 -0.349932 21.4613
-0.564655 -0.558863 21.3804
-0.247255 -0.608164 21.6623
0.276988 -0.141345 21.5915
0.0102048 -0.353757 21.5117
0.226612 -0.241332 21.6122
0.756183 0.104646 21.4891
0.583677 -0.123782 21.6132
0.780748 0.22972 21.7
0.973226 0.183157 21.0668
0.955269 0.0234209 21.2663
1.26476 0.562332 21.2225
0.978558 0.00592647 21.0307
1.33747 0.498188 20.7201
-1.22445 -0.423303 19.9108
-0.794014 -0.136696 19.7131
-0.803751 -0.388572 19.4443
-1.22544 -0.641747 21.193
-1.83017 -0.36599 20.3734
-0.29609 -0.497586 21.4771
-0.917802 -0.563131 21.389
0.241544 -0.30556 21.6622
-0.23076 -0.50286 21.6339
0.877473 -0.139515 21.5053
0.61416 -0.461239 21.7067
1.06932 -0.0440787 21.0546
1.02728 -0.452933 21.2751
1.63462 0.0783296 21.0212
1.03444 -0.328104 21.0531
1.94673 0.10452 20.2405
-1.3511 -0.0177979 19.8154
-0.779773 0.190978 19.7443
-0.959809 -0.0235199 19.2354
-1.57955 -0.220056 21.061
-1.48693 0.423572 20.2841
-0.828153 -0.483393 21.5469
-1.25987 0.0417118 21.1934
-0.0424071 -0.50495 21.7414
-0.550178 -0.207058 21.6037
0.638135 -0.6667 21.4977
0.0622288 -0.502569 21.492
0.899757 -0.678355 20.9781
0.374152 -0.586109 21.2319
1.0299 -1.11471 20.7636
0.407382 -0.742413 20.8077
1.12794 -1.00964 20.3996
-0.87178 0.479118 20.0089
-0.674117 0.498033 19.6198
-1.10347 0.497783 20.7179
-1.35566 1.05766 20.1132
-0.787132 0.198295 21.3332
-1.41329 0.807946 21.0883
-0.212754 -0.162735 21.4398
-0.613527 0.152458 21.6435
0.0487183 -0.392096 21.2588
-0.125351 -0.332033 21.4367
0.155702 -0.370095 21.1208
0.101201 -0.529458 21.0923
0.0845331 -0.563551 21.1803
-1.27307 -1.82468 19.0472
-0.683875 -0.670853 19.1059
0.0334924 -0.963506 18.9219
-0.637665 -1.46291 22.3425
0.0571629 -4.51716 21.488
0.0821043 -0.0361716 21.2639
-0.0188349 -0.438993 20.9497
0.455997 0.264283 20.9752
-0.0158998 0.0322877 19.7506
0.984605 1.23849 20.8158
-0.0564156 0.840631 19.4103
1.30825 1.28502 20.834
1.53679 1.48773 17.7736
-0.0103603 1.45578 18.8904
1.52941 1.25163 18.9256
0.020355 1.82257 19.0482
-0.896023 -0.361734 18.6981
0.0148491 -0.875831 18.3889
2.2739 1.34047 14.6664
1.5443 -0.371725 8.84293
-0.00968982 1.06725 7.47919
2.21406 -0.220558 14.3288
0.330016 1.85914 9.44231
-0.873467 0.520103 18.8258
0.00877025 -0.0038172 17.8119
1.42232 -1.33603 11.7889
0.168314 -1.10702 19.2354
0.0692315 1.56516 -4.99651
0.297426 -1.17818 20.1642
0.843902 1.8053 -3.15808
-1.05147 1.3788 19.3508
0.00955546 1.04206 18.9646
-1.54187 1.77777 20.4235
0.0217748 2.79135 19.5243
-1.35282 1.15905 21.7988
-0.0321196 3.51413 20.6159
-0.383372 -0.0335561 21.7111
-0.0621269 1.03321 22.2524
-0.143867 -0.412668 21.457
-0.0718802 0.119298 21.6837
0.0905105 -0.717273 20.9165
-0.0689174 -0.35118 21.3418
-0.0573966 -0.252249 21.6277
1.32506 -1.69819 19.1286
0.700235 -0.64607 19.1412
0.657748 -0.442816 19.6527
0.710661 -1.46484 22.3071
1.75765 -1.52994 20.4783
-0.0925609 -0.0576035 21.3257
0.301333 -0.609355 21.6279
-0.468092 0.222143 20.9546
-0.199614 -0.270312 21.6033
-0.974829 1.19107 20.7691
-0.734175 0.172127 21.6896
-1.21134 1.4991 19.8641
-1.42383 1.59797 16.7261
-1.25674 0.58889 21.1686
-1.43461 1.55397 17.9638
-1.35145 0.693078 20.6748
0.910735 -0.344166 18.7236
0.812221 -0.383347 19.459
-2.14282 1.51337 13.2306
-1.26934 -0.386756 5.21653
-1.81103 0.236039 20.2119
-2.42106 0.411394 10.1472
-1.89354 0.220275 19.8536
0.877808 0.514535 18.8407
0.95901 -0.0245946 19.2402
-1.03874 -1.19913 5.92022
-0.0619688 -1.03384 17.5916
-1.04259 -1.05323 18.4859
-0.217752 -1.31713 19.1549
-1.32698 -1.19416 18.4491
1.05508 1.36133 19.3629
0.673171 0.487878 19.6342
1.53918 1.77798 20.4217
1.34419 1.03422 20.1219
1.36161 1.28616 21.8315
1.43041 0.84855 21.0851
0.375298 0.0134512 21.7198
0.634802 0.201973 21.6873
0.165052 -0.346143 21.476
0.1557 -0.298946 21.4594
-0.0334878 -0.697826 20.8538
-0.107865 -0.584717 20.9878
0.0679869 -0.432922 21.6615
0.924343 -0.480275 20.0472
0.650514 -0.261528 19.836
0.90964 -0.62994 21.1104
1.38955 -0.649346 20.4493
0.169039 -0.350956 21.4435
0.553989 -0.549257 21.3563
-0.255254 -0.160536 21.5713
0.000238556 -0.351587 21.4933
-0.751746 0.0757586 21.4785
-0.558156 -0.139131 21.6065
-1.02808 0.192776 21.0671
-1.00573 0.0396242 21.2645
-1.1296 -0.0224376 20.9798
1.20877 -0.409285 19.9197
0.786103 -0.130428 19.7208
1.20456 -0.631762 21.1848
1.83021 -0.354776 20.3703
0.291315 -0.484566 21.4658
0.907879 -0.554821 21.3811
-0.230357 -0.310645 21.6299
0.230245 -0.495465 21.6179
-0.881875 -0.151216 21.508
-0.585399 -0.465709 21.691
-1.17482 -0.0842861 21.2449
-1.12028 -0.507295 21.2741
-1.15337 -0.373376 21.0758
1.35 -0.0137651 19.8214
0.77076 0.191958 19.753
1.58539 -0.217644 21.0609
1.48188 0.424094 20.2835
0.823977 -0.48334 21.5412
1.27847 0.0437241 21.1931
0.0525899 -0.503362 21.7246
0.569916 -0.216519 21.6109
-0.631059 -0.738754 21.4611
-0.0238656 -0.511474 21.5089
-1.01119 -0.79676 21.2183
-0.346303 -0.697991 21.305
-0.451314 -0.836828 20.8203
0.863513 0.472096 20.0158
1.10763 0.502376 20.7155
0.818126 0.218669 21.3483
0.250973 -0.153076 21.4589
-0.0288339 -0.406699 21.2806
-0.202242 -0.396444 20.9187
-1.08172 -0.492661 19.973
-1.62748 -1.9684 18.4968
-1.23997 -0.999503 19.6401
-1.73407 -0.877708 19.2489
-0.723969 -0.432286 19.5269
-2.45171 -1.89188 20.3972
-1.08452 -0.657336 21.1649
-0.416992 -0.911352 17.845
-0.965968 -1.18511 21.5808
-1.55406 -1.46365 21.9886
-0.237649 -0.74309 21.6998
-0.225422 -0.459367 21.4606
0.389916 0.118263 14.59
0.0559628 -0.397239 21.5898
0.018589 -0.746882 21.0983
0.270832 -0.380557 21.4443
0.245474 -0.248459 21.6228
0.734127 0.122761 15.4144
0.417622 -0.102522 21.6699
0.397826 -0.35805 20.9352
0.996008 0.130808 21.5692
0.822452 -0.00950279 21.4657
1.22488 1.40494 16.7847
1.0737 0.456078 21.4987
1.5215 0.0662876 20.9941
1.47296 0.369633 21.0007
1.01913 0.0550216 21.1882
1.79108 1.31275 17.7502
1.35306 0.497929 20.7509
1.60348 0.0586621 21.3655
1.6421 0.301354 20.4803
-1.38627 -0.251346 19.8155
-2.64157 -1.02896 16.9664
-2.09733 0.0326023 18.9672
-0.894077 -0.240969 19.2959
-4.06341 -0.846576 20.0118
-1.45471 -0.473232 21.175
-2.63572 -0.475168 21.5855
-0.863445 -1.2359 21.6136
-0.541408 -0.569307 21.5353
-1.29114 -1.09809 21.4272
0.00243004 -0.763066 20.4889
0.126401 -0.456148 21.7501
0.0106357 -0.571433 19.9347
1.20668 -0.354642 19.2621
0.882025 -0.462486 21.4762
0.627775 -0.954059 4.56322
0.809368 -1.01028 19.6307
1.66745 -0.530583 20.3874
1.08785 -0.528654 21.2372
2.26474 -0.0728635 12.172
1.11315 -1.05684 20.8599
1.62779 -0.505185 20.4069
-1.19254 0.330806 19.8766
-1.82308 1.57449 18.3234
-1.03773 0.816159 19.7428
-0.866918 0.347038 19.3483
-2.38644 1.12433 19.9648
-1.4801 0.252129 20.8381
-3.01618 2.05647 20.6089
-1.43657 0.978878 20.633
-2.18339 0.335361 21.2781
-0.973959 -0.0988715 21.4807
-3.08292 0.525502 22.0015
-1.09285 0.508948 21.5404
-0.897837 -0.157928 21.9156
-0.210856 -0.356464 21.5955
-0.26826 -0.228225 19.1278
-0.303526 -0.138475 21.5866
-0.120816 -0.665656 21.612
0.227243 -0.578333 21.3588
-0.131576 -0.748599 18.5385
-0.00217998 -0.444499 21.3366
0.253942 -0.878977 21.5661
0.435744 -0.599631 21.1715
0.409962 -1.30581 19.2795
0.245558 -0.533349 20.9894
0.399053 -0.971775 21.0717
1.64519 -1.85371 18.5823
0.0686432 -2.81768 18.4272
0.0447664 -3.35058 15.8746
0.0233123 -0.918115 18.6672
0.0368614 -5.89543 22.6151
0.48502 -1.00328 18.6456
0.00201216 -1.5324 22.1578
-0.0141037 0.0344463 11.4945
-0.415813 0.113003 15.249
-0.0200795 -0.0851184 19.9903
-0.0170423 0.100695 10.807
-0.736951 0.0816608 15.745
-0.0373079 0.296536 19.4416
-0.090786 0.771481 11.8408
-1.12823 1.38424 16.1485
-0.0417799 1.20087 19.0366
-0.0527525 0.443517 4.46541
-0.00659082 1.41571 14.0889
-1.66736 1.46368 16.4758
0.0470117 1.59731 18.7339
0.0312045 2.17561 9.21565
0.16732 2.32774 15.382
2.65255 -0.99515 17.0172
0.0207207 0.874213 13.843
0.0199218 -0.508374 17.9458
-0.287923 -1.27904 2.86815
-0.0266991 0.67473 -3.28251
0.17231 0.700118 -0.623951
-2.34633 0.265777 8.52561
0.585726 1.65622 -5.66281
0.567118 2.38723 3.84921
1.8234 1.54212 18.3591
0.0147393 2.04446 18.8964
0.0135486 0.828393 18.1478
0.0233951 5.57467 18.6167
3.01754 2.0519 20.6076
-0.00227694 2.89958 20.0467
-0.0387035 5.59248 18.3041
3.20988 0.619007 21.9523
-0.0804328 2.72502 22.2185
-0.02018 0.56134 12.9081
0.0637024 -0.103376 17.4294
-0.0618223 0.296264 21.8688
-0.322847 0.381854 5.06992
0.16751 -0.590827 16.8147
-0.0888804 -0.0465063 21.6387
-0.238045 0.530806 5.25385
-0.305046 -1.19565 18.1539
-0.0817524 -0.515501 21.6371
-0.250673 -0.26543 8.73092
1.05272 -0.457139 19.9845
1.22813 -0.938322 19.6872
1.74132 -0.85343 19.2612
0.727804 -0.422696 19.5485
2.40484 -1.75947 20.39
1.07347 -0.64746 21.1487
1.00399 -1.14283 21.5115
1.55973 -1.39453 21.9325
0.301763 -0.738629 21.7217
0.231077 -0.45014 21.45
-0.0125798 -0.41279 21.5645
0.00436533 -0.754269 21.3493
-0.240013 -0.398544 21.546
-0.231994 -0.255093 21.5967
-0.390428 -0.138193 21.6663
-0.389955 -0.379388 21.0775
-0.941645 0.0755721 21.6607
-0.815282 -0.0204172 21.4578
-1.05658 0.425622 21.4911
-1.57226 0.0936681 20.652
-1.54888 0.502094 20.6911
-1.08658 0.0209648 21.3601
-1.40018 0.640514 20.6878
-1.80306 0.394034 19.886
-1.70237 0.553166 20.5132
1.37146 -0.244521 19.8274
2.09035 0.0351506 18.9739
0.894264 -0.234138 19.3077
4.04887 -0.812525 20.0047
1.44805 -0.465645 21.1685
2.63805 -0.475251 21.5907
0.867261 -1.21345 21.672
0.53689 -0.563028 21.5268
1.28242 -1.0992 21.4291
0.012325 -0.785887 20.6656
-0.118477 -0.453059 21.7294
0.00238404 -0.569034 19.9136
-1.16682 -0.379579 19.3115
-0.895509 -0.481731 21.4785
-0.724499 -0.902734 18.049
-1.75854 -0.43043 18.5537
-1.20969 -0.645131 21.509
-1.23511 -1.20799 18.5512
-1.95958 -0.687789 19.2827
1.18078 0.331443 19.8805
1.03435 0.797596 19.7541
0.857676 0.343512 19.3703
2.37173 1.11044 19.9716
1.48422 0.254338 20.8338
1.43664 0.986014 20.6302
2.21829 0.345128 21.2761
0.999026 -0.104426 21.4904
1.1282 0.557974 21.5651
0.938981 -0.155184 21.9417
0.241947 -0.364628 21.6095
0.318755 -0.112171 21.6095
0.193497 -0.662689 21.5545
-0.176927 -0.606087 21.4097
0.0480388 -0.431184 21.3368
-0.187548 -0.961656 21.585
-0.433811 -0.663716 21.365
-0.24256 -0.68074 21.3253
-0.253608 -1.0069 21.4716
-1.47615 -0.973532 19.4487
-1.18299 -1.35118 21.7978
0.0767385 -0.556046 21.527
0.459438 -0.240179 21.4971
1.3389 0.328016 21.3507
1.47827 0.278295 21.0582
-2.02891 -0.488085 19.006
-2.16593 -1.02919 22.02
-0.36929 -1.12021 21.0298
0.312379 -0.36757 19.922
1.504 -0.573996 20.0462
1.66259 -0.469873 20.5102
-1.64226 0.767015 19.3108
-2.26623 0.695521 20.8422
-1.63554 0.0237897 21.8201
-0.383708 -0.414473 21.8398
0.0586649 -0.77438 21.6128
0.404443 -0.933723 21.4289
0.0550916 -3.23555 17.4208
-0.0295217 -0.575412 13.4705
-0.010217 0.106197 10.6961
-0.0667114 0.313413 11.3426
-0.0457459 1.03188 12.7158
0.038223 1.87193 14.7069
0.042893 -2.01433 13.1306
-0.0964946 -0.536913 -0.0897975
0.31677 1.02044 -0.250825
0.0199413 2.73972 17.0748
-0.00213634 4.1626 19.7806
-0.0539112 3.19238 15.5441
-0.0271652 -0.12877 10.52
-0.379646 0.384354 4.39124
-0.111114 -0.450533 8.28379
1.47252 -0.935346 19.4885
1.21983 -1.26792 21.7046
-0.0388582 -0.561743 21.6105
-0.434869 -0.2618 21.6123
-1.34487 0.33135 21.2247
-1.67021 0.555684 20.7066
2.0192 -0.47276 19.0232
2.15306 -1.01295 21.9916
0.376864 -1.11598 21.148
-0.298819 -0.398672 20.0271
-1.48509 -0.513573 18.9069
-2.02784 -0.421323 18.6072
1.6304 0.752158 19.3284
2.27021 0.69937 20.8422
1.69462 0.034026 21.8415
0.424668 -0.412974 21.8416
0.0447503 -0.785215 21.469
-0.454333 -1.19761 21.1031
-0.361745 -0.136163 0.358766
-0.00625204 -0.0271268 0.18151
-0.0161309 -0.0101486 0.372528
0 0 0
0.000670862 0.0070316 0.0737238
0.0196392 -0.00761584 0.781892
-1.30379 0.104948 1.34984
-0.102617 0.225813 0.311523
-0.151527 0.00651887 0.393156
-0.00317656 -0.107658 0.0392598
-0.0274355 -0.00953605 0.00288478
0 0 0
0.00810167 -0.0421578 0.256375
5.05775e-16 -1.92546e-16 4.9741e-16
0.00375511 -0.00235574 0.0910053
-0.0575838 0.0253619 0.544883
0 0 0
-0.0114525 -0.00278413 0.470251
0.0713922 0.171688 0.231921
1.57868 0.131326 1.64366
0.140604 0.0028847 0.370443
0.0226971 -0.00693825 0.000351846
-0.00233424 -0.128436 0.0604281
0 0 0
3.26955e-18 7.76079e-18 -1.03001e-16
0.0707792 -0.086328 1.19547
0 0 0
0 0 0
0.0662386 -0.0512769 1.73096
0.0207486 -0.0024717 0.46566
0 0 0
0 0 0
-0.118163 -0.130677 0.438725
-0.000332141 -0.00101038 0.0329986
0.00741885 0.0460512 0.410152
-0.0766587 0.0478446 0.142472
0 0 0
0.00134799 0.00963736 0.0407802
0 0 0
0.0147037 0.0034194 0.181453
0.0208875 -0.0113218 0.308824
0 0 0
-0.0809855 -0.0462766 1.10168
0 0 0
-0.071657 -0.0689992 1.92524
0 0 0
-0.05486 0.0439542 1.36294
0 0 0
0.0929425 -0.160668 0.353756
0.0762181 0.0478578 0.14235
0.00026892 -0.000911107 0.0259381
-0.00634845 0.0453213 0.42926
0 0 0
-0.0155786 0.00411125 0.184557
-0.00241937 0.0162068 0.0690043
-0.000303909 0.000562853 0.00213521
-0.0567057 -0.0440183 0.262724
0 0 0
0 0 0
-0.01779 -1.89452 0.518053
-0.00175423 -0.00188757 0.0582775
0.00240052 -0.00126209 0.064567
0 0 0
-0.0476303 -0.0909525 0.0411646
-6.65671e-06 2.30084e-05 0.00029226
-0.000732027 -0.00477714 -0.000871155
-0.000839105 0.00215471 0.0345395
0.00294022 0.00191938 0.0169155
0.000369195 0.103048 0.104312
4.40546e-06 0.012918 0.0471001
0 0 0
-0.0323139 0.017227 0.119077
-0.000233498 -0.000972521 1.96918e-05
-0.00157534 -0.00165863 0.0149554
-1.38288e-18 -2.00215e-17 -1.23087e-16
0.00225651 -0.00253974 0.0466457
0 0 0
0.0550282 -0.0430613 0.258151
-3.70856e-05 -2.30772e-05 0.00108019
0 0 0
0.0514976 -0.119994 0.0539892
0 0 0
-0.037856 0.00741293 0.275647
0.00183046 0.00459653 0.0947793
0.0325027 0.0173572 0.119809
0.000401786 -0.000968622 0.0127308
-0.00290094 -0.00241727 0.0475043
0 0 0
0 0 0
0 0 0
0 0 0
-1.00211e-05 0.000770044 0.0158135
0 0 0
0 0 0
-0.0013666 0.0137162 0.134251
-0.000281942 0.0154905 0.0889236
1.33011e-07 -2.69576e-07 -2.52139e-05
4.91083e-07 -1.69825e-07 -3.3712e-05
0.000518174 0.00417438 0.0196487
-0.110537 0.0827543 0.545662
0 0 0
-1.58704e-05 0.0196353 0.0429061
-4.15823e-05 0.0034681 0.0458604
-0.000130807 -0.000991729 0.0287345
0 0 0
0 0 0
0 0 0
-3.21228e-06 0.000259212 0.00583475
0.00145141 0.0135001 0.135678
0.000154974 0.013528 0.0784339
0.098676 0.0740727 0.492646
-0.000666289 0.00493776 0.0231544
0 0 0
-0.415577 -0.191032 1.28098
0.00209025 -0.000516687 0.0638883
0.0035989 -0.0202933 0.0956703
0 0 0
-0.000542854 0.0140375 0.0878343
0 0 0
0.00148073 0.0108612 0.0456747
0 0 0
0.000766542 0.00436978 0.0187718
0.000938445 0.00351309 0.0772334
0.0014735 -0.000204679 0.0163423
0 0 0
0 0 0
0 0 0
0 0 0
0 0 0
0 0 0
0 0 0
0 0 0
0 0 0
0 0 0
0.00286543 0.00164114 0.0305105
-0.0566563 0.00828312 0.686775
-0.756325 -1.13523 -0.127373
1.3022 -1.90655 -0.238674
-0.377463 0.582143 0.304961