# vtk DataFile Version 2.0
tri_press
ASCII
DATASET UNSTRUCTURED_GRID
POINTS 3682 float
-0.715 0.085 -1.95328
-0.848645 0.115 1.805
-0.750016 0.465 -1.945
-0.675 0.832561 1.945
0.725 0.095 -1.95192
0.851318 0.115 1.805
0.750232 0.465 -1.945
0.675 0.832754 1.945
-0.784991 0.0695577 -0.70052
-0.814385 0.0947117 0.55224
-0.845959 0.708469 -0.648333
-0.806281 0.816316 0.648333
0.805979 0.0627938 -0.699613
0.82079 0.096755 0.552693
0.844718 0.707148 -0.648333
0.806484 0.816576 0.648333
-1.50851 -0.289224 -3.00211
-1.51309 -0.216369 -1.98238
-1.56285 -0.220146 -0.730784
-1.58558 -0.229936 0.511984
-1.59448 -0.219683 1.76283
-1.60527 -0.191068 2.77892
-1.61638 -0.150418 3.80174
-1.51227 -0.0279709 -2.98241
-1.51883 0.073349 -1.95784
-1.58305 0.0980728 -0.697644
-1.59099 0.111338 0.558631
-1.5834 0.12563 1.81798
-1.6037 0.154257 2.83466
-1.62118 0.193722 3.85602
-1.53354 0.447457 -2.95517
-1.55287 0.54595 -1.93222
-1.62634 0.723386 -0.642055
-1.58399 0.814645 0.651231
-1.49026 0.83883 1.94052
-1.55876 0.863253 2.95537
-1.61416 0.896362 3.96961
-1.56581 1.32721 -2.88133
-1.58113 1.44733 -1.85189
-1.61129 1.64534 -0.54743
-1.61487 1.80367 0.766492
-1.59994 1.88356 2.07043
-1.60944 1.9186 3.09878
-1.63561 1.94906 4.11787
-0.733729 -0.28313 -2.99896
-0.722786 -0.207186 -1.97792
-0.764999 -0.234226 -0.731088
-0.791639 -0.243692 0.506572
-0.810584 -0.231203 1.75319
-0.827263 -0.200577 2.7724
-0.838421 -0.157974 3.79801
-0.737524 -0.0312713 -2.98129
-0.844688 0.146073 2.8293
-0.851282 0.186887 3.85323
-0.753862 0.412361 -2.96044
-0.80727 0.858275 2.95632
-0.853331 0.891944 3.96988
-0.775319 1.30194 -2.88655
-0.783125 1.42283 -1.85768
-0.812402 1.63696 -0.550889
-0.830037 1.8071 0.767023
-0.83046 1.88691 2.07359
-0.843116 1.91982 3.10193
-0.867201 1.94903 4.12019
0.77785 -0.278826 -2.99808
0.776758 -0.202359 -1.97683
0.8188 -0.237504 -0.730272
0.833414 -0.243158 0.507023
0.843337 -0.230822 1.75335
0.778479 -0.200339 2.77255
0.739004 -0.157767 3.79819
0.7607 -0.0262995 -2.98044
0.742612 0.146264 2.82939
0.712604 0.187095 3.85339
0.764956 0.41459 -2.96003
0.677691 0.858479 2.95639
0.676305 0.89214 3.97002
0.794774 1.30254 -2.88623
0.802237 1.42294 -1.85743
0.792279 1.63663 -0.550691
0.750875 1.8069 0.767186
0.705557 1.88695 2.07373
0.684004 1.91992 3.10209
0.668909 1.94913 4.12037
1.54924 -0.282818 -3.00055
1.5528 -0.210854 -1.98064
1.60786 -0.223351 -0.729403
1.63053 -0.2301 0.512825
1.62753 -0.218881 1.76326
1.57612 -0.19055 2.77928
1.53349 -0.150019 3.80214
1.5311 -0.020759 -2.98093
1.52632 0.0812715 -1.95613
1.60237 0.0938665 -0.696332
1.61487 0.111572 0.559388
1.59866 0.126552 1.8183
1.54163 0.154783 2.83495
1.50554 0.194136 3.85638
1.53833 0.451653 -2.95423
1.5463 0.549119 -1.93148
1.62345 0.721592 -0.641481
1.58907 0.814308 0.651598
1.48537 0.839564 1.94075
1.46489 0.863739 2.95561
1.45937 0.896746 3.96993
1.57821 1.32842 -2.88065
1.58905 1.44769 -1.85132
1.58779 1.6448 -0.546971
1.54541 1.80327 0.766872
1.48863 1.8836 2.07076
1.46099 1.91877 3.09913
1.44606 1.94926 4.11825
-0.74125 0.275 -1.95788
0.00500003 0.0874477 -1.95515
-0.771605 0.0556688 -1.3269
-0.821053 0.473781 1.93423
0.00133651 0.172506 1.74749
-0.833317 0.103054 1.17862
0.000108004 0.548989 -2.02899
-0.864973 0.653719 -1.29667
0 0.886069 1.99841
-0.776471 0.860269 1.29667
0.74494 0.28 -1.95578
0.791812 0.0525739 -1.32577
0.821447 0.473877 1.93329
0.836907 0.105024 1.17885
0.865052 0.653651 -1.29667
0.776952 0.860875 1.29667
-0.801664 0.0801588 -0.07414
-0.862995 0.389013 -0.674427
0.0104941 0.0936509 -0.700067
-0.876279 0.455514 0.600287
0.00320271 0.117341 0.552467
-0.832604 0.768877 0
-0.000620607 0.988682 -0.648333
0.000101761 1.31491 0.648333
0.810511 0.0826477 -0.07346
0.862951 0.384971 -0.673973
0.876563 0.456666 0.600513
0.832748 0.769009 0
-0.896795 0.332007 -1.31178
0.896785 0.332485 -1.31122
0.00774708 0.0759342 -1.32633
-0.000256302 0.794717 -1.29667
0.00255401 0.2775 -1.71696
-0.874677 0.422264 -0.03707
0.873561 0.420818 -0.03673
0.00684843 0.109201 -0.0738
-0.000259423 1.26935 0
-0.885518 0.464647 1.23764
0.885504 0.465271 1.23776
0.00226961 0.125142 1.17873
5.08804e-05 1.28412 1.29667
0.000668257 0.473829 2.14117
-0.732882 0.18 -1.96034
-0.355 0.0863343 -1.95411
-0.744058 0.0695787 -1.64009
-0.827763 0.29439 1.86253
-0.423654 0.172717 1.74728
-0.841655 0.108353 1.49181
-0.755333 0.37 -1.96114
-0.374954 0.528624 -2.00862
-0.821789 0.573654 -1.62083
-0.757341 0.653171 1.94893
-0.3375 0.876507 1.9889
-0.747704 0.868384 1.62083
0.365 0.0883808 -1.95638
0.734962 0.1875 -1.95384
0.763939 0.0682538 -1.63884
0.426327 0.134939 1.78506
0.828532 0.294439 1.86129
0.84254 0.111585 1.49192
0.37517 0.528841 -2.00884
0.757097 0.3725 -1.9599
0.821911 0.573595 -1.62083
0.3375 0.876376 1.98867
0.757624 0.653316 1.94854
0.748081 0.86892 1.62083
-0.796504 0.0444072 -1.01371
-0.796754 0.0714311 -0.38733
-0.829088 0.226738 -0.687473
-0.380002 0.0960967 -0.700293
-0.822471 0.100263 0.86543
-0.806778 0.0886813 0.23905
-0.845399 0.275079 0.576263
-0.40053 0.116149 0.552353
-0.849383 0.675012 -0.9725
-0.868501 0.555753 -0.66138
-0.841565 0.740956 -0.324167
-0.476046 0.954088 -0.648333
-0.792464 0.839381 0.9725
-0.870881 0.650716 0.62431
-0.820647 0.793801 0.324167
-0.509688 1.27881 0.648333
0.812228 0.0443516 -1.01269
0.39802 0.0986556 -0.69984
0.80761 0.0733558 -0.386537
0.829539 0.226345 -0.686793
0.827294 0.102444 0.86577
0.407348 0.116345 0.55258
0.814655 0.0906971 0.239617
0.846349 0.277874 0.576603
0.847288 0.672802 -0.9725
0.475207 0.954231 -0.648333
0.868766 0.553525 -0.661153
0.841029 0.740375 -0.324167
0.792471 0.839478 0.9725
0.509658 1.27847 0.648333
0.871695 0.651707 0.624423
0.820685 0.793861 0.324167
-0.875561 0.303503 -1.63483
-0.369348 0.27625 -1.71783
0.00637355 0.0885475 -1.64074
0.00377702 0.182474 -2.11024
-0.886186 0.193838 -1.31934
-0.381929 0.0759576 -1.32662
-0.882484 0.469214 1.58594
-0.410192 0.473805 2.12204
0.00180306 0.148593 1.46311
0.00100239 0.323167 2.11203
-0.888541 0.28385 1.20813
-0.415524 0.125195 1.17868
-7.41491e-05 0.724959 -1.66283
0.00133101 0.413245 -2.14013
-0.895638 0.492863 -1.30423
-0.432614 0.779905 -1.29667
2.54402e-05 1.24221 1.64754
0.000334129 0.679949 2.02891
-0.866315 0.662458 1.26716
-0.38821 1.2698 1.29667
0.875698 0.306243 -1.6335
0.373747 0.27875 -1.71693
0.881755 0.19253 -1.31849
0.39978 0.0761802 -1.32605
0.882475 0.469574 1.58552
0.411058 0.473853 2.12181
0.888516 0.285148 1.2083
0.419588 0.114419 1.17879
0.895627 0.493068 -1.30394
0.432398 0.77992 -1.29667
0.865961 0.663073 1.26721
0.388502 1.2698 1.29667
-0.839123 0.250735 -0.055605
-0.389972 0.109552 -0.07397
-0.88695 0.36051 -0.993105
-0.867836 0.405638 -0.355748
0.00912061 0.077302 -1.0132
0.00867128 0.102266 -0.386933
-0.87779 0.438889 0.281608
-0.877822 0.460081 0.918965
0.00502557 0.116241 0.239333
0.00273616 0.118594 0.8656
-0.873974 0.605737 -0.018535
-0.522336 1.23092 0
-0.000438455 0.826417 -0.9725
-0.000440015 1.14751 -0.324167
-7.88312e-05 1.30781 0.324167
7.63206e-05 1.3048 0.9725
0.839828 0.252837 -0.055095
0.40178 0.109724 -0.07363
0.886973 0.358728 -0.992595
0.867662 0.402895 -0.355352
0.877989 0.438742 0.281892
0.877792 0.460968 0.919135
0.874223 0.605448 -0.018365
0.521806 1.2303 0
-0.868345 0.186919 -1.63746
-0.883718 0.211562 -1.00341
-0.884417 0.520802 -0.982803
-0.879025 0.431432 -1.62783
0.867455 0.190015 -1.63617
0.877366 0.432784 -1.62717
0.884488 0.519564 -0.982548
0.883771 0.208206 -1.00264
-0.368465 0.0884276 -1.64042
0.38239 0.0859753 -1.63979
0.404008 0.0776063 -1.01295
-0.384589 0.077334 -1.01346
-0.403784 0.71426 -1.64183
-0.427952 0.822957 -0.9725
0.427223 0.823286 -0.9725
0.403784 0.714171 -1.64183
-0.362174 0.181237 -2.08685
-0.372151 0.391622 -2.1227
0.374459 0.392872 -2.12226
0.369374 0.184987 -2.08371
-0.834155 0.238712 -0.371539
-0.841538 0.263268 0.260329
-0.871721 0.627873 0.302888
-0.872278 0.581265 -0.339958
0.83466 0.239603 -0.370944
0.872332 0.579905 -0.339759
0.871809 0.628002 0.303029
0.842312 0.265744 0.260754
-0.384392 0.104014 -0.387132
0.399898 0.104194 -0.386735
0.403452 0.115259 0.239475
-0.394131 0.11509 0.239192
-0.507254 1.10863 -0.324167
-0.52288 1.2686 0.324167
0.522685 1.26829 0.324167
0.506742 1.10874 -0.324167
-0.850837 0.279482 0.892198
-0.888154 0.28912 1.53887
-0.857699 0.657814 1.60339
-0.868841 0.649187 0.945733
0.851313 0.280929 0.892453
0.867268 0.649847 0.945818
0.856698 0.658194 1.60318
0.888559 0.289793 1.53872
-0.410557 0.118589 0.865515
0.415792 0.11881 0.865685
0.422958 0.123938 1.47752
-0.419589 0.149865 1.47746
-0.39565 1.28915 0.9725
-0.362855 1.23174 1.63419
0.363001 1.23159 1.63419
0.395897 1.28914 0.9725
-0.416923 0.308779 2.07817
0.418693 0.308803 2.07802
0.374279 0.666632 2.0465
-0.373846 0.66656 2.04654
-0.738442 0.1325 -1.97131
-0.535 0.0896043 -1.94976
-0.7356 0.0712184 -1.79668
-0.839783 0.204695 1.83534
-0.63615 0.120016 1.79998
-0.846445 0.110381 1.6484
-0.759795 0.4175 -1.96019
-0.562485 0.495764 -1.97576
-0.787695 0.52112 -1.78292
-0.724719 0.742866 1.95551
-0.50625 0.866223 1.97864
-0.727108 0.866228 1.78292
0.545 0.0912171 -1.95462
0.743335 0.14125 -1.96624
0.754564 0.071533 -1.79538
0.638823 0.120756 1.79924
0.840694 0.204719 1.83392
0.848052 0.11217 1.64846
0.562701 0.496163 -1.97616
0.76092 0.41875 -1.95971
0.791986 0.525211 -1.78292
0.50625 0.866444 1.97871
0.724952 0.743035 1.95541
0.72724 0.866536 1.78292
-0.792715 0.0550151 -0.857115
-0.795443 0.0659242 -0.543925
-0.838077 0.132629 -0.693997
-0.589051 0.0697169 -0.700407
-0.819031 0.096884 0.708835
-0.810399 0.0918789 0.395645
-0.842146 0.178768 0.564252
-0.611814 0.0967168 0.552297
-0.84617 0.690239 -0.810417
-0.862784 0.634888 -0.654857
-0.84405 0.725001 -0.48625
-0.691677 0.892627 -0.648333
-0.799305 0.827781 0.810417
-0.851197 0.739824 0.636322
-0.813512 0.805106 0.48625
-0.67731 1.08621 0.648333
0.806308 0.0563679 -0.856152
0.610371 0.0639822 -0.699727
0.808852 0.0660175 -0.543075
0.838842 0.134028 -0.693203
0.824621 0.099021 0.709232
0.620424 0.0938402 0.552637
0.817928 0.0935203 0.396155
[...]
POINT_DATA 3682
SCALARS point_scalars float 1
LOOKUP_TABLE default
-115.802
-64.6105
-17.9182
-39.8078
-98.0518
-67.0581
-18.0162
-38.7256
-42.5482
-34.6104
-52.342
-48.3003
-41.9207
-34.391
-52.2225
-48.0069
-18.7189
-88.93
-58.208
-34.7548
-57.1964
-48.517
-42.5689
-18.7189
-89.3891
-57.3833
-34.6799
-61.0768
-43.5117
-42.2227
-9.91384
-64.736
-47.7835
-44.4194
-48.7319
-41.3224
-41.3224
0.714637
-48.198
-80.6301
-55.4602
-41.4495
-39.046
-38.9621
12.4745
-150.166
-46.4898
-34.8431
-55.2699
-43.0644
-40.9431
12.4745
-41.3482
-40.9431
163.634
-39.472
-40.392
94.2821
-46.1977
-61.0713
-63.0159
-40.5224
-36.4227
-37.6247
-37.9304
-123.919
-42.6262
-34.8211
-55.1418
-42.7049
-40.8615
-1.0085
-40.9101
-40.8615
164.864
-38.6708
-40.2612
95.4039
-45.8365
-57.183
-61.6566
-38.776
-34.2999
-36.028
-17.3903
-85.729
-62.0128
-34.8036
-55.8156
-48.097
-42.2612
-17.3903
-85.9823
-56.5963
-35.4189
-60.0083
-42.5546
-41.1896
-7.46425
-65.5023
-47.494
-44.1261
-48.1454
-40.7956
-40.623
-3.47448
-48.6115
-80.429
-56.1993
-40.6543
-37.9336
-38.0887
-22.5566
-141.205
-53.0827
-47.3066
-48.8384
-44.9083
66.2644
-61.7422
-28.7201
-47.2148
-16.8671
-53.7411
-46.689
-44.4717
-62.0201
-46.556
-36.1592
-40.7316
-45.387
-39.4956
-38.2062
-53.9681
18.9774
-69.6345
-36.7242
-40.6756
-39.2397
-53.2598
-65.3481
-65.537
-58.8423
-14.192
194.759
-40.2695
-39.9846
-38.1362
-91.689
-45.5084
-44.8069
-49.2869
-47.0308
-39.0384
-8.11451
-139.739
-71.6631
-54.0528
-49.5411
-46.4366
-27.1337
77.0844
-48.2841
-44.0561
-34.1827
-45.6461
-139.539
-10.6733
-74.4327
-50.403
-53.7022
-45.3293
76.8982
-20.3741
-47.2335
-32.2449
-43.3584
-44.6261
-42.6017
-36.7844
-39.6144
-45.0783
-35.7015
-37.2568
-36.5196
-38.0115
-49.3926
-44.4263
-53.8989
6.03527
-47.8673
-43.8166
-51.198
-63.4617
-42.6606
-45.231
-37.589
-39.7013
-35.2052
-37.776
-38.0582
-36.3236
-47.7549
6.36425
-44.3105
-53.8035
-47.4104
-63.1032
-43.6952
-50.9647
-84.9206
193.515
-75.876
180.756
-62.8994
-57.1889
-51.2115
-40.0342
-47.3341
-42.0912
-44.8294
-47.4513
-37.6151
191.773
-68.3451
-21.9067
-35.4721
-36.2489
-46.0623
-47.6882
-84.7178
192.992
-62.4613
-57.3023
-50.4465
-39.6533
-44.8494
-44.7073
-68.2396
-21.9058
-45.4234
-47.2358
-37.6992
-37.6715
-54.3832
-39.7946
-49.8825
-41.0635
-40.0475
-39.1977
-37.2765
-40.5375
-46.063
-91.099
10.7343
-21.8585
-84.9447
-57.6074
-37.6065
-37.7415
-54.3507
-39.7294
-39.7734
-38.9049
-45.88
-90.7149
-85.5497
-54.0638
-52.3669
-71.6758
-85.7715
-70.9763
-52.1927
-54.1605
-73.9901
-74.0864
-48.501
-49.424
-41.7674
0.909279
0.61345
-41.8226
166.783
184.616
183.201
165.421
-37.0706
-37.9309
-44.8545
-45.4927
-37.096
-45.3867
-44.5907
-37.4515
-40.3154
-40.3482
-37.003
-37.0389
-37.049
-75.0753
-74.9826
-36.646
-34.9109
-50.0063
-51.018
-43.4497
-34.7823
-42.9607
-49.8274
-49.3295
-40.2348
-39.8427
-45.8909
-47.5374
-55.9846
-39.0252
-38.115
-55.7228
-42.4316
-41.8757
-38.543
-39.4705
-37.9396
-138.615
-103.502
-58.1729
-55.8654
-50.6956
-23.5667
56.2803
-42.1178
-42.1216
-36.7993
-43.236
-140.455
-34.1237
-105.231
-54.8621
-58.0536
-49.6198
56.2747
-26.1668
-45.7806
-35.5094
-41.1965
-42.0878
-55.6623
-39.6802
-39.7608
-44.756
-36.5747
-36.3912
-35.5518
-36.7315
-47.8255
-48.2849
-55.6842
-36.4866
-48.4764
-46.3378
-49.7522
-54.786
-56.378
-44.8748
-39.5347
-39.5811
-36.1179
-36.3236
-35.1689
-35.724
-47.757
-36.2375
-48.1007
-55.5444
-48.1008
-54.4762
-46.0815
-49.4933
-20.32
-12.4587
-75.8341
130.453
-140.57
-139.791
-99.8204
32.6366
-59.8539
-49.5367
-59.298
-55.0533
-50.9732
-45.1891
-54.489
-39.785
-48.9752
-49.8217
-47.866
-43.9541
-44.4307
-37.8614
-43.7121
-45.5366
68.0732
68.1888
-27.6397
109.354
-57.1816
-59.0996
-72.5802
-32.9
-30.8117
-29.2564
-28.2357
-35.1121
-46.9052
-47.5509
-47.0407
-47.7615
-19.3581
-5.88952
-75.2518
131.503
-60.9452
-49.6234
-60.0873
-55.132
-50.4922
-44.4687
-53.7486
-39.3626
-43.6426
-37.9005
-44.4497
-44.3804
-56.9448
-59.0932
-72.3601
-32.8421
-46.0158
-46.9455
-46.3704
-47.1479
-36.3175
-36.5297
-36.4823
-37.3148
-39.9279
-41.9587
-45.7859
-39.9184
-45.2356
-45.3452
-51.9688
-42.7617
-37.9324
-41.3276
-39.9243
-39.2464
-38.1624
-38.055
-37.5015
-39.2005
-53.8357
-52.5321
-49.3822
-70.6432
16.8919
16.9622
22.0799
3.1056
-68.5908
-68.4575
-76.4562
-63.4654
-35.6946
-35.8521
-37.3167
-37.1098
-39.9606
-41.886
-45.7568
-39.8687
-37.7074
-41.1611
-39.6669
-38.9414
-53.589
-52.2714
-49.1946
-70.4695
-74.0597
-64.3036
-67.1301
-58.5236
-73.4416
-64.3871
-67.0343
-58.3748
-65.2718
-58.3961
-58.4638
-54.521
-26.6736
-15.8641
-15.8513
-2.1125
194.288
194.752
197.692
193.981
-38.8016
-40.0235
-40.2862
-42.6375
-38.7028
-39.9824
-40.0348
-42.4117
-38.0061
-39.7732
-38.1173
-38.0195
-91.0382
-63.9168
-92.6267
-91.0162
-47.6367
-45.725
-44.6383
-40.6456
-46.896
-44.9963
-44.0079
-40.156
-47.2493
-49.2297
-48.253
-44.9102
-41.216
-47.2605
-47.0213
-52.1131
-39.5267
-41.2638
-37.5752
-39.0572
-82.1156
124.95
-98.9627
21.5088
-80.06
-72.704
-57.2258
-42.3297
-48.6627
-45.2797
-48.4686
-47.5656
-63.275
150.422
-33.4384
112.285
-55.1959
-44.9108
-49.9892
-40.0635
-32.9296
-37.9155
-48.1222
-42.4583
-100.322
5.04852
-80.0851
125.841
-80.2545
-72.6085
-47.6232
-46.1688
-56.8904
-41.9437
-47.7663
-46.8261
-32.7656
111.978
-63.8503
151.237
-54.7225
-44.8473
-31.7434
-36.3594
-49.3768
-39.4127
-47.1141
-41.3383
-53.8644
-47.2118
-35.2876
-39.3839
-47.2869
-37.7732
-52.5989
-42.025
-34.3621
-39.5531
-37.49
-36.8373
-37.2981
-36.5251
-37.18
-38.8749
-51.1617
-16.965
-45.8327
-44.9889
-49.5846
-80.6348
9.68191
-13.0202
-45.7265
-53.6034
-44.0672
-43.522
-47.5218
-61.3092
-66.7601
-60.1898
-53.8414
-45.9827
-53.3747
-42.1623
-36.5035
-39.2811
-47.2156
-37.9397
-34.2315
-39.1513
-37.1071
-38.6314
-38.5451
-37.086
-36.8843
-35.9852
-50.6841
-15.9943
9.94336
-12.7768
-45.6261
-44.8615
-49.5101
-78.3426
-45.1543
-53.1633
-66.4283
-59.9924
-43.8059
-43.257
-47.2971
-61.0879
-85.8455
-80.1324
193.538
193.529
-75.2402
-75.6624
192.287
185.279
-70.5678
-56.685
-63.3856
-53.4118
-50.9192
-52.4478
-41.1499
-39.672
-47.2545
-47.4566
-42.3708
-42.1333
-36.0055
-47.3364
-44.3224
-46.7928
-38.3009
-38.3127
198.09
197.672
-59.1713
-78.1686
-31.2011
-11.3011
-36.4212
-35.886
-36.57
-37.3886
-48.3301
-44.1243
-51.7048
-43.2267
-86.0825
-79.5841
192.845
192.929
-70.9944
-56.2814
-63.5203
-53.2611
-51.6246
-50.2234
-41.0531
-38.9544
-35.8767
-45.9788
-44.3532
-45.0082
-78.068
-58.8652
-11.3398
-31.2102
-43.5044
-47.6066
-42.6368
-51.3704
-37.3054
-37.8091
-39.0499
-37.6918
-54.6065
-53.4633
-38.0928
-42.2739
-49.6332
-49.9105
-40.8844
-40.924
-38.7383
-42.0038
-37.1027
-41.2496
-37.1612
-37.2136
-40.5648
-40.1915
-45.6825
-45.7546
-72.6516
-83.8744
8.60057
8.30846
-22.2821
-22.2542
-83.3035
-83.2366
-57.32
-57.1751
-37.2327
-37.8206
-39.1123
-37.7165
-53.3667
-54.583
-38.0864
-42.1745
-41.7402
-38.412
-36.863
-40.8587
-45.6338
-45.3675
-83.8813
-72.596
-91.6159
-68.0551
-73.3879
-80.4807
-51.0034
-46.9914
-57.8428
-54.7233
-47.4103
-60.5185
-58.9421
-45.348
-56.2106
-69.6592
-74.4056
-77.0935
-85.2493
-79.1171
-73.1869
-68.1839
-58.1528
-76.7216
-74.2615
-69.4482
-47.2911
-45.2979
-58.7754
-60.3481
-51.4111
-54.2177
-57.6763
-46.9963
-101.372
-98.4134
-64.6111
-61.2927
-101.173
-61.8353
-64.7003
-98.8237
-55.1142
-52.3225
-54.2676
-51.1501
-54.3419
-51.403
-54.2418
-52.0943
-34.1041
-38.1189
-27.5418
-27.4194
-18.5622
19.5277
-4.9477
-24.9605
-19.2386
-24.8719
-4.82415
19.6838
-34.9012
-27.3653
-27.536
-38.0023
24.4608
147.037
194.241
27.989
114.769
117.11
194.384
130.778
113.813
130.69
193.993
116.719
41.5858
23.2747
193.91
142.341
-36.8462
-36.5505
-38.3887
-38.4792
-37.3371
-38.3097
-38.9103
-36.1124
-46.4993
-48.6015
-42.521
-41.6955
-49.0711
-41.9419
-42.5023
-49.6066
-37.2283
-38.5362
-38.3257
-35.2705
-48.9978
-49.5284
-42.3766
-41.8502
-46.3658
-41.4184
-42.2343
-48.271
-36.257
-35.0409
-38.7604
-38.0368
-41.6016
-42.571
-39.6416
-38.102
-41.7833
-37.9889
-39.6605
-42.6226
-36.8029
-37.3829
-38.0447
-37.5911
-37.101
-37.6485
-38.0507
-37.4493
-68.7868
-76.6269
-60.4913
1.94943
-56.9962
-74.6159
-90.7113
-64.727
-56.7047
-64.5133
-90.5216
-74.5008
-68.4975
2.05751
-60.5456
-76.4586
-35.9739
-33.6239
-38.6496
-37.7061
-56.4593
-56.2226
-47.3805
-47.2764
-47.2322
-47.6266
-47.7447
-52.6715
-46.3626
-41.2101
-42.1561
-46.0547
-35.1811
-37.3484
-38.3362
-33.898
-45.9578
-45.4591
-41.6072
-40.9288
-46.3961
-51.8882
-47.018
-46.7485
-55.5621
-44.8403
-46.5811
-55.5972
-38.8748
-39.1922
-44.9364
-43.7135
-38.7539
-44.2881
-44.3978
-38.9594
-49.135
-48.2351
-46.8206
-44.9854
-49.6575
-46.2672
-47.3143
-48.0105
-54.426
-50.4703
-51.9559
-62.9797
-36.5289
-30.2389
-41.9149
-45.3504
-35.3471
-44.5439
-41.565
-29.3391
-54.0135
-62.8555
-51.7775
-49.9665
-45.5959
-44.3603
-41.3465
-41.0018
-46.2161
-40.8448
-41.2456
-46.4264
-38.253
-34.9773
-37.8171
-39.3803
-39.249
-39.9422
-38.5314
-36.1315
-67.1844
-150.762
-135.936
-64.396
-60.6871
-56.4721
-13.9433
41.9184
-44.8899
-41.0846
-37.6462
-41.165
-145.851
-61.8057
-119.567
-60.3713
-65.1202
-54.2389
43.1338
-15.0436
-43.2508
-36.5014
-40.0647
-39.9816
-46.0591
-37.7462
-41.8454
-43.3332
-35.4252
-35.0543
-34.6794
-34.8883
-50.8056
-50.6629
-55.0103
-60.9839
-48.5997
-47.7923
-49.1522
-50.8224
-44.0999
-43.7164
-39.0424
-40.8782
-35.2435
-34.494
-35.0203
-34.7635
-50.6954
-60.3908
-50.3391
-54.7861
-48.3034
-50.6384
-47.5064
-48.8812
-22.7802
-20.053
-85.557
100.486
-141.316
-141.364
-119.749
-40.5568
-55.1138
-50.8122
-56.9456
-54.0777
-49.4031
-45.495
-51.343
-41.2331
-48.8115
-49.0408
-48.2571
-46.4356
-43.639
-44.6269
-44.2195
-44.3287
67.0923
67.1699
1.08473
97.2962
-59.9665
-61.6991
-69.9789
-44.6455
-29.5153
-28.5968
-27.2041
-31.423
-47.3438
-47.1967
-47.2337
-47.6325
-18.1369
-12.9893
-86.0619
99.9727
-56.2289
-50.3274
-57.2397
-53.8969
-48.8595
-44.8104
-50.6629
-40.6869
-43.0022
-45.2463
-44.3565
-43.4611
-59.9967
-61.5903
-69.6536
-44.5614
-46.5939
-46.5315
-46.5645
-46.9403
-38.2189
-36.6416
-35.9507
-35.7153
-40.3196
-41.2779
-42.1953
-40.1097
-45.3928
-45.4206
-47.4858
-43.9213
-38.549
-40.3558
-39.8821
-39.356
-38.2097
-38.1553
-37.8175
-38.6618
-54.008
-53.2941
-51.2788
-60.3236
18.4385
18.4552
22.5907
12.5106
-69.4806
-69.3984
-72.8379
-66.4704
-37.2255
-35.7089
-37.4594
-35.3205
-40.3139
-41.166
-42.1159
-40.0908
-38.3163
-40.1276
-39.5934
-39.0975
-53.6238
-52.94
-51.2042
-60.1294
-68.7163
-64.7899
-66.1504
-61.756
-68.4368
-64.8989
-66.176
-61.5553
-61.3341
-58.7447
-58.7603
-56.6981
-20.932
-14.5996
-14.5888
-8.70666
194.666
194.781
194.749
194.492
-39.4584
-40.0109
-40.2185
-41.3776
-39.2875
-39.8479
-39.9603
-41.0674
-38.1481
-38.9594
-38.041
-38.1296
-92.0798
-83.6012
-94.4205
-92.0375
-46.4915
-45.7052
-45.13
-43.4147
-45.7604
-44.9839
-44.4708
-42.8575
-47.5357
-49.2102
-48.8763
-50.7907
-44.2238
-47.1308
-47.0075
-49.4671
-39.2222
-40.8611
-37.0742
-38.943
-17.3913
-14.9054
-82.5941
84.9103
-140.519
-139.484
-119.687
-77.6316
-86.9019
-64.9592
-76.7165
-71.7973
-56.0475
-52.0348
-58.9441
-44.3767
-50.2669
-49.3364
-49.2069
-47.8699
-48.9847
-45.714
-47.146
-46.9149
-18.3609
-19.8694
-70.1132
104.63
81.0115
70.0115
5.27289
80.6463
-51.5528
-48.1892
-51.6812
-44.8625
-43.1276
-44.7431
-48.267
-40.7063
-35.6978
-32.5039
-32.8009
-36.0751
-44.3705
-46.4997
-46.6853
-43.59
-140.647
-139.168
-119.517
-84.3002
-13.1938
-16.1469
-86.1328
82.0767
-88.3087
-65.916
-76.6924
-71.8573
-49.227
-51.794
-48.8481
-48.6466
-55.8087
-51.6381
-58.5276
-44.1095
-47.7881
-45.5663
-46.3453
-45.9494
82.9919
70.0004
6.17901
81.685
-21.1558
-21.0956
-69.6151
102.117
-53.9202
-47.3499
-50.8889
-44.4716
-33.9948
-30.6063
-31.2872
-34.1973
-42.3389
-44.0053
-47.4135
-40.0597
-43.3263
-45.5046
-45.7242
-42.4538
-59.4421
-46.6075
-51.189
-42.2344
-37.4313
-35.8311
-34.9732
-38.5584
-39.51
-39.7952
-42.0284
-38.3107
-45.1811
-45.1897
-47.5009
-43.3497
-36.624
-34.3419
-34.3758
-38.1745
-37.2906
-35.9268
-35.4091
-37.2933
-36.1216
-37.15
-36.8695
-36.5423
-38.0149
-38.0832
-37.5022
-38.4308
-48.0791
-54.0457
-50.6467
-32.5397
-46.0675
-43.0694
-44.5761
-44.6515
-54.2607
-54.0957
-51.9107
-62.4781
-9.03166
13.4979
9.9754
-1.28718
-48.037
-47.5001
-47.0527
-50.9537
-44.931
-42.6374
-43.7865
-43.6673
-50.8398
-51.8681
-49.4063
-55.75
-58.2976
-66.7394
-64.5535
-61.9171
-60.5107
-46.6838
-50.5291
-40.9256
-45.1419
-45.2734
-48.0116
-43.3541
-37.8772
-35.1497
-36.5657
-38.4679
-39.6525
-39.8395
-41.9625
-38.5015
-35.6854
-33.4302
-34.1166
-37.6965
-37.643
-37.9181
-37.3211
-38.1948
-35.4268
-36.6398
-39.1995
-37.8102
-35.9857
-36.9595
-36.6573
-36.1372
-47.4637
-54.2749
-50.0696
-32.1166
-8.74782
13.6624
10.4241
-1.04145
-45.9464
-42.9776
-44.4209
-44.5343
-54.1773
-53.8327
-51.8524
-62.4362
-47.5779
-46.9484
-46.5328
-50.4127
-57.9811
-66.5408
-64.0379
-61.6653
-44.7926
-42.4958
-43.5652
-43.6205
-50.5572
-51.6465
-49.2052
-55.5208
-79.8191
-83.7598
-85.954
-83.1065
184.992
193.695
193.533
193.538
-84.9739
-70.1781
-75.6712
-75.8459
109.029
194.798
179.096
180.942
-61.6916
-63.6936
-65.4937
-59.3632
-56.1516
-57.8828
-59.3456
-55.4778
-54.4372
-49.1809
-51.0657
-51.2788
-39.9049
-39.9429
-40.8031
-39.3966
-47.5592
-47.1924
-47.2955
-47.4027
-43.2742
-41.4649
-42.2833
-42.1996
-44.1959
-45.6177
-43.1617
-46.8305
-45.8091
-48.9904
-48.5849
-46.6358
-37.4076
-31.8081
-37.1818
-37.0899
144.357
207.696
195.627
194.306
-69.9204
-67.8936
-63.1089
-72.4415
-26.1949
-18.2593
-26.3693
-16.8566
-32.1451
-38.2429
-35.692
-35.46
-36.8082
-36.8031
-36.1417
-36.6809
-46.5699
-44.9186
-47.3391
-44.7871
-47.728
-47.4615
-49.6597
-45.4836
-79.8471
-83.23
-86.0518
-82.6923
175.629
193.24
192.999
193
-61.5317
-63.3588
-66.2313
-58.7317
-56.271
-57.9292
-59.8747
-55.3802
-53.7047
-48.4452
-50.4337
-50.351
-39.5123
-39.4691
-40.6954
-38.571
-44.718
-45.0018
-42.8722
-45.1668
-44.0637
-46.9405
-46.1667
-44.7912
-69.8017
-67.7348
-72.3822
-62.8659
-26.1858
-18.2516
-16.8608
-26.348
-45.988
-44.2611
-44.1261
-46.622
-47.133
-47.1167
-44.9782
-49.2586
-37.4345
-38.1822
-37.4452
-37.7182
-37.5591
-37.8907
-38.3487
-37.6707
-49.8732
-57.1081
-54.5339
-53.9161
-39.7531
-39.9532
-38.884
-40.9764
-53.3975
-52.5518
-49.8191
-49.8171
-42.1887
-39.9666
-41.0398
-41.0479
-39.958
-40.1777
-39.2605
-41.1431
-39.0866
-39.558
-37.9832
-40.2149
-37.3091
-37.6805
-37.2284
-37.2414
-39.8333
-40.4712
-40.5402
-40.4291
-47.7554
-44.1749
-46.0026
-45.821
-83.9416
-90.0187
-87.0663
-85.3101
18.1225
4.23495
10.3729
10.4298
-9.15144
-37.7842
-21.9187
-21.8673
-80.7214
-89.4633
-84.681
-84.651
-60.56
-54.8707
-57.555
-57.4798
-37.1951
-38.0931
-37.5336
-37.5972
-37.6261
-37.8743
-38.3926
-37.6566
-49.8691
-56.9578
-53.8322
-54.4805
-39.7068
-39.8686
-38.8369
-40.8915
-39.707
-39.9066
-40.8707
-38.9651
-38.7813
-39.1608
-37.737
-39.8777
-47.5969
-44.0414
-45.7156
-45.7089
-83.547
-90.301
-84.6512
-87.2408
-84.1897
-84.8221
-85.887
-80.6974
-53.9635
-53.9576
-55.7169
-54.1785
-51.5633
-47.8993
-56.3353
-53.1382
-63.95
-62.6992
-76.3969
-86.7446
-84.0697
-85.3241
-86.1812
-80.8419
-64.6972
-62.2274
-75.9415
-85.6516
-51.3579
-47.7582
-56.0675
-53.026
-54.0713
-54.17
-55.5047
-54.2118
-83.8581
-73.5298
-74.6364
-67.9301
-84.7957
-72.7098
-75.3931
-68.1878
-46.8407
-55.6108
-51.2796
-49.3137
-48.2442
-53.2955
-51.5725
-49.2839
-40.6924
-43.5773
-39.8288
-35.6057
-7.12049
5.6857
-6.23163
6.20966
-7.71082
5.287
-6.3578
5.91156
-40.9719
-43.6011
-39.8504
-35.6461
141.959
111.97
194.074
190.852
173.979
153.446
189.818
192.253
153.045
173.651
191.197
189.368
104.671
142.355
189.27
191.475
-36.9926
-37.1989
-37.155
-37.4339
-37.8668
-37.7266
-37.8386
-38.2207
-44.5325
-46.0388
-43.3717
-45.2953
-45.326
-47.428
-43.7167
-45.6197
-36.9275
-37.2522
-37.0534
-37.4759
-45.2191
-47.3211
-43.6208
-45.4892
-44.2763
-45.755
-43.113
-44.9932
-37.7645
-37.198
-37.8633
-37.8768
-40.0239
-41.3755
-39.234
-40.6949
-41.4286
-39.9022
-40.7195
-39.3409
-36.9896
-36.9746
-37.0636
-37.3201
-36.9203
-37.0684
-37.3442
-37.1034
-62.084
-23.9192
-51.2339
-25.8531
-67.6985
-70.6509
-78.4604
-79.7218
-70.6505
-67.4874
-79.6781
-78.4995
-23.6954
-61.874
-25.7936
-51.287
-34.4448
-35.9379
-32.5865
-36.0737
-53.3627
-49.293
-50.5659
-47.9449
-50.8063
-49.362
-52.4799
-49.9536
-44.421
-43.4762
-43.5641
-42.4549
-34.3119
-35.4916
-32.599
-35.8792
-43.8363
-43.0451
-43.0423
-42.0096
-49.9591
-48.006
-51.6139
-49.0664
-52.6272
-48.626
-49.8789
-47.3244
-40.1119
-39.5206
-40.3866
-40.3834
-39.7837
-39.2111
-39.8555
-39.9774
-46.6695
-46.2963
-46.4342
-45.1182
-48.1266
-47.4948
-47.5209
-47.0911
-55.437
-58.9106
-53.8691
-56.7545
-35.4952
-40.8567
-37.4648
-41.0843
-34.3627
-39.8551
-36.7253
-40.3773
-55.1197
-58.6901
-53.5788
-56.5472
-42.2541
-43.523
-41.5226
-42.5034
-43.008
-41.724
-42.0042
-41.3416
-37.8242
-39.1545
-37.733
-38.8892
-39.9123
-39.0116
-39.672
-38.7029
-94.7646
6.45375
-120.766
-72.4465
-100.194
-104.106
-62.8614
-49.8463
-51.7808
-54.5516
-55.6394
-50.4657
-59.9747
81.1598
5.71358
80.5303
-47.9391
-41.3668
-45.7482
-39.9155
-35.7733
-38.2133
-45.4298
-39.6145
-122.246
-58.225
-90.6685
18.2524
-93.1856
-105.823
-51.2676
-54.0678
-61.8328
-49.6902
-54.5065
-49.8051
6.41765
78.1273
-58.0193
81.4769
-51.1393
-44.1962
-34.5376
-36.9746
-44.7034
-39.0778
-44.3557
-38.3961
-52.6271
-57.0383
-37.4816
-41.3935
-42.6324
-37.5145
-47.6865
-42.7407
-35.469
-38.6679
-37.5808
-36.1685
-36.0501
-34.7125
-36.3991
-38.477
-48.4207
-42.6443
-47.567
-48.69
-51.8316
-75.6259
-23.3855
-47.6133
-47.9941
-51.4393
-46.2178
-46.3562
-48.5327
-52.9637
-54.7593
-54.9607
-53.1074
-57.5348
-47.75
-42.9833
-37.9426
-41.5713
-41.594
-38.3182
-34.8891
-38.392
-36.2195
-38.0707
-35.2629
-35.7722
-36.3315
-35.3598
-48.2628
-42.6016
-24.0387
-47.1809
-47.407
-48.5331
-51.7079
-75.5807
-47.6243
-51.0197
-54.4479
-54.5765
-46.0326
-46.0549
-48.355
-52.6379
-89.5379
100.905
-77.3576
104.586
-78.0017
-73.6597
135.614
128.323
-119.431
-72.1743
-119.296
-48.3529
-98.9015
-99.3016
43.9856
47.8122
-65.7621
-60.4269
-52.3579
-50.2779
-62.3999
-56.7065
-57.205
-53.4488
-55.0729
-42.7605
-50.0077
-41.1321
-55.2475
-53.7992
-40.7148
-39.3911
-48.3923
-46.6486
-49.0133
-47.6296
-47.9902
-47.8841
-44.1058
-44.6772
-45.1169
-45.4985
-34.6093
-41.1169
-41.8171
-45.7367
-45.1685
-46.1573
-2.30799
92.2776
-2.30057
92.4327
-28.7038
-28.52
112.354
112.251
-67.1376
-44.9701
-61.0258
-37.7005
-65.0618
-77.0561
-35.3786
-28.5636
-29.5119
-33.7102
-28.3156
-32.17
-29.151
-28.6165
-35.0606
-35.8246
-47.1971
-45.6558
-46.8817
-49.3592
-47.2835
-46.5076
-49.1106
-46.4538
-89.8502
92.0716
-77.7789
96.5988
-77.1214
-73.0286
130.323
130.908
-66.5867
-60.6945
-51.9543
-49.9946
-62.8058
-56.4819
-57.3023
-53.2344
-54.4272
-42.4554
-49.234
-40.5485
-53.0275
-54.5307
-40.5609
-38.751
-43.753
-44.5876
-34.7009
-40.8306
-42.1517
-44.229
-44.4036
-44.5841
-66.9546
-44.7377
-61.0291
-37.7667
-76.8085
-64.9537
-28.4944
-35.3278
-46.3479
-44.7915
-46.3345
-48.7811
-45.8896
-46.4653
-45.7231
-48.5506
-36.3581
-37.5267
-35.8633
-37.7795
-36.7938
-37.2784
-37.5629
-37.5983
-42.0908
-39.0173
-42.9706
-41.841
-46.279
-45.468
-39.1801
-40.8508
-47.3966
-43.7505
-47.5497
-43.8094
-52.0713
-51.9763
-42.7148
-42.7382
-38.0656
-37.8793
-41.4653
-41.2179
-38.9369
-40.7421
-38.3091
-40.1762
-37.7628
-38.6244
-37.6787
-38.488
-37.4803
-37.4481
-39.1775
-39.1374
-51.884
-61.4436
-50.3948
-58.1142
-49.1363
-49.4556
-73.5427
-67.63
20.0842
9.9142
20.191
10.017
21.2544
21.3052
2.72638
2.79405
-71.2719
-65.819
-71.14
-65.6937
-76.0106
-75.9691
-63.3573
-63.2975
-34.024
-37.5021
-34.4214
-37.4919
-37.2846
-35.9078
-37.3509
-37.4934
-42.1087
-39.0815
-42.8929
-41.7781
-45.4151
-46.2546
-39.175
-40.7844
-37.8654
-37.5381
-41.1439
-41.0789
-40.4607
-38.6733
-37.9846
-39.8693
-51.6705
-61.3025
-50.0481
-57.889
-49.459
-48.8437
-67.4472
-73.4213
-74.047
-74.1251
-67.6088
-60.7383
-62.4949
-70.0036
-58.315
-58.6702
-73.5821
-73.753
-67.6085
-60.5075
-69.9248
-62.3231
-58.4934
-58.1645
-65.0337
-65.0833
-60.7547
-56.3839
-60.8584
-56.407
-54.4771
-54.4665
-26.9189
-26.8992
-22.1361
-10.3255
-10.2786
-22.1256
-2.89246
-2.75295
194.244
194.23
194.673
194.491
194.017
193.664
193.903
193.903