# vtk DataFile Version 2.0
tet_velo
ASCII
DATASET UNSTRUCTURED_GRID
POINTS 29498 float
-0.835829 0.215 -1.615
-0.808547 0.265 1.745
-0.755 0.855 -1.61396
-0.503156 1.495 1.565
0.845624 0.215 -1.605
0.808547 0.265 1.745
0.755 0.855 -1.61396
0.502979 1.495 1.565
-0.819668 0.238733 -0.495
-0.817761 0.248213 0.625
-0.741287 1.13857 -0.554307
-0.672 1.36656 0.505347
0.822241 0.242691 -0.488333
0.81849 0.25075 0.628333
0.74127 1.13861 -0.554307
0.671965 1.36665 0.505347
-1.59678 -0.345864 -2.45274
-1.60206 -0.233691 -1.58135
-1.57736 -0.216174 -0.460026
-1.53544 -0.253105 0.673527
-1.50099 -0.25365 1.79587
-1.50441 -0.192623 2.67227
-1.52107 -0.102766 3.53928
-1.60024 0.0572725 -2.47558
-1.60278 0.197622 -1.61048
-1.57204 0.261638 -0.500445
-1.51357 0.282725 0.615233
-1.45634 0.309149 1.72637
-1.48194 0.371888 2.60176
-1.51367 0.456762 3.47054
-1.56743 0.805388 -2.50308
-1.54004 0.937484 -1.63406
-1.50135 1.17249 -0.564901
-1.39213 1.37156 0.500056
-1.25717 1.48852 1.57014
-1.37682 1.54225 2.44783
-1.47528 1.60222 3.32607
-1.52965 2.1258 -2.58993
-1.5119 2.29083 -1.73059
-1.48275 2.58202 -0.680585
-1.43716 2.88011 0.356431
-1.40448 3.08859 1.40662
-1.42803 3.18887 2.26635
-1.47931 3.25977 3.13835
-0.81354 -0.335543 -2.45429
-0.818115 -0.216482 -1.58464
-0.804808 -0.223316 -0.457427
-0.79081 -0.280698 0.682174
-0.781877 -0.290048 1.80968
-0.799469 -0.218626 2.68181
-0.817428 -0.119467 3.54513
-0.82383 0.0563599 -2.47493
-0.812818 0.350218 2.60969
-0.827019 0.443209 3.47507
-0.800677 0.769184 -2.49448
-0.7304 1.54043 2.4472
-0.809396 1.59908 3.32644
-0.773183 2.09459 -2.58151
-0.761972 2.25815 -1.72156
-0.751545 2.56555 -0.674899
-0.736995 2.88423 0.356596
-0.729437 3.10025 1.40317
-0.756193 3.1986 2.26291
-0.800798 3.2661 3.13608
0.798922 -0.334874 -2.44783
0.827826 -0.215514 -1.57663
0.81832 -0.220319 -0.451422
0.814927 -0.278417 0.685497
0.793888 -0.289261 1.81081
0.685438 -0.217927 2.68289
0.622957 -0.11864 3.54648
0.786021 0.0567367 -2.46871
0.627433 0.350677 2.61039
0.582708 0.443926 3.47623
0.752713 0.769424 -2.4914
0.521618 1.5408 2.44776
0.531886 1.59971 3.32747
0.745 2.09513 -2.57916
0.7404 2.25865 -1.71972
0.713112 2.56612 -0.673441
0.65698 2.88484 0.3578
0.596967 3.10087 1.40425
0.568598 3.19926 2.26406
0.550498 3.26684 3.13739
1.59685 -0.344272 -2.44125
1.62237 -0.231456 -1.56856
1.60434 -0.211653 -0.449871
1.57487 -0.249174 0.679715
1.52447 -0.251514 1.79905
1.42666 -0.190911 2.67495
1.3569 -0.100987 3.54222
1.5856 0.0583966 -2.46465
1.61915 0.19897 -1.59786
1.59051 0.265997 -0.490797
1.54173 0.286464 0.620799
1.47381 0.310821 1.72875
1.36655 0.373266 2.60387
1.3109 0.458354 3.47314
1.54214 0.806159 -2.49619
1.54705 0.938033 -1.6286
1.51179 1.1741 -0.560679
1.40857 1.37332 0.502753
1.25871 1.48966 1.57177
1.23432 1.54338 2.44958
1.23876 1.60363 3.32841
1.50675 2.12697 -2.58494
1.49507 2.29199 -1.72644
1.45317 2.58333 -0.677204
1.37428 2.88151 0.359225
1.29234 3.08997 1.40908
1.25816 3.1903 2.26888
1.24477 3.26133 3.14113
-0.843466 0.535 -1.66253
0.00489751 0.211059 -1.61394
-0.82779 0.226826 -1.055
-0.751291 0.88 1.75044
0 0.298508 1.71149
-0.815706 0.254054 1.185
0 0.939677 -1.69864
-0.76342 1.01206 -1.08413
-8.85129e-05 1.52003 1.59003
-0.609462 1.45267 1.03517
0.846751 0.535 -1.65592
0.833171 0.229607 -1.04667
0.752052 0.88 1.75129
0.816744 0.254649 1.18667
0.763408 1.01208 -1.08413
0.609405 1.45276 1.03517
-0.822824 0.239364 0.065
-0.879214 0.688651 -0.524653
0.00128643 0.226383 -0.491667
-0.883177 0.807388 0.565173
0.000364086 0.226751 0.626667
-0.715275 1.2612 -0.02448
-8.61e-06 1.37371 -0.554307
-1.72911e-05 1.58237 0.505347
0.82474 0.242346 0.07
0.879392 0.69065 -0.52132
0.883152 0.808698 0.56684
0.715248 1.26126 -0.02448
-0.891072 0.611825 -1.06957
-0.887416 0.748019 0.02026
-0.873541 0.843694 1.11009
0.00309197 0.212445 -1.05083
0.00082526 0.226551 0.0675
0.000182043 0.239117 1.18583
0.00244875 0.535 -2.03514
-4.42564e-05 0.88 1.9182
-4.305e-06 1.08706 -1.08413
-1.29506e-05 1.55954 -0.02448
-5.2902e-05 1.56713 1.03517
0.891343 0.612825 -1.0654
0.887453 0.749674 0.02276
0.873377 0.844349 1.11092
-1.2193 0.206311 -1.61274
-0.826972 -0.000741114 -1.59982
-0.82983 0.13568 -2.04496
-1.13245 0.287075 1.73569
-0.795212 -0.012524 1.77734
-0.810683 0.307609 2.17735
-1.14752 0.896242 -1.62401
-0.777838 0.812092 -2.05422
-0.758486 1.55657 -1.66776
-0.880163 1.49176 1.56757
-0.616778 1.51772 2.0061
-0.616297 2.29763 1.48408
0.836725 -0.000256966 -1.59081
0.815822 0.135868 -2.03685
1.23238 0.206985 -1.60143
0.801217 -0.0121303 1.7779
0.71799 0.307838 2.1777
1.14118 0.287911 1.73688
0.753857 0.812212 -2.05268
0.7477 1.55683 -1.66684
1.15103 0.896516 -1.62128
0.512298 1.5179 2.00638
0.549973 2.29793 1.48462
0.880845 1.49233 1.56839
-1.19585 0.250186 -0.497722
-0.812238 0.00770891 -0.476214
-1.16567 0.265469 0.620116
-0.804286 -0.0162426 0.653587
-1.12132 1.15553 -0.559604
-0.746416 1.85206 -0.614603
-1.03206 1.36906 0.502702
-0.704498 2.1254 0.430972
0.82028 0.0111857 -0.469878
1.20637 0.254344 -0.489565
0.816708 -0.0138337 0.656915
1.18011 0.268607 0.624566
0.727191 1.85236 -0.613874
1.12653 1.15636 -0.557493
0.664473 2.12575 0.431573
1.04027 1.36998 0.50405
-1.59942 -0.289777 -2.01705
-1.59851 -0.144296 -2.46416
-1.20516 -0.340704 -2.45351
-1.58971 -0.224932 -1.02069
-1.60242 -0.0180342 -1.59592
-1.21009 -0.225086 -1.583
-1.5564 -0.234639 0.106751
-1.5747 0.022732 -0.480236
-1.19108 -0.219745 -0.458727
-1.51822 -0.253378 1.2347
-1.52451 0.0148099 0.64438
-1.16313 -0.266901 0.677851
-1.5027 -0.223137 2.23407
-1.47867 0.0277494 1.76112
-1.14143 -0.271849 1.80277
-1.51274 -0.147695 3.10577
-1.49317 0.0896326 2.63701
-1.15194 -0.205624 2.67704
-1.51737 0.176998 3.50491
-1.16925 -0.111116 3.5422
-1.60151 0.127447 -2.04303
-1.58384 0.43133 -2.48933
-1.21204 0.0568162 -2.47526
-1.58741 0.22963 -1.05546
-1.57141 0.567553 -1.62227
-1.54281 0.272181 0.0573939
-1.5367 0.717063 -0.532673
-1.48496 0.295937 1.1708
-1.45285 0.827142 0.557645
-1.46914 0.340519 2.16407
-1.35676 0.898832 1.64826
-1.4978 0.414325 3.03615
-1.42938 0.957069 2.52479
-1.14738 0.361053 2.60573
-1.49447 1.02949 3.3983
-1.17034 0.449986 3.4728
-1.55374 0.871436 -2.06857
-1.54854 1.46559 -2.5465
-1.18405 0.787286 -2.49878
-1.5207 1.05499 -1.09948
-1.52597 1.61416 -1.68232
-1.44674 1.27202 -0.0324222
-1.49205 1.87725 -0.622743
-1.32465 1.43004 1.0351
-1.41465 2.12583 0.428244
-1.317 1.51538 2.00898
-1.33083 2.28855 1.48838
-1.42605 1.57223 2.88695
-1.40243 2.36556 2.35709
-1.05361 1.54134 2.44751
-1.4773 2.431 3.23221
-1.14234 1.60065 3.32626
-1.52077 2.20831 -2.16026
-1.15142 2.1102 -2.58572
-1.49732 2.43642 -1.20559
-1.13694 2.27449 -1.72607
-1.45996 2.73106 -0.162077
-1.11715 2.57378 -0.677742
-1.42082 2.98435 0.881524
-1.08708 2.88217 0.356514
-1.41626 3.13873 1.83648
-1.06696 3.09442 1.40489
-1.45367 3.22432 2.70235
-1.09211 3.19374 2.26463
-1.14005 3.26294 3.13722
-0.815828 -0.276013 -2.01946
-0.818685 -0.139592 -2.46461
-0.00730903 -0.335209 -2.45106
-0.811462 -0.219899 -1.02104
0.0048554 -0.215998 -1.58064
-0.797809 -0.252007 0.112374
0.00675578 -0.221817 -0.454425
-0.786344 -0.285373 1.24592
0.0120585 -0.279558 0.683836
-0.790673 -0.254337 2.24574
0.0060054 -0.289654 1.81024
-0.808448 -0.169046 3.11347
-0.806143 0.0657962 2.64575
-0.0570154 -0.218277 2.68235
-0.822223 0.161871 3.5101
-0.0972356 -0.119053 3.54581
-0.812254 0.412772 -2.4847
-0.0189048 0.0565483 -2.47182
-0.819918 0.396714 3.04238
-0.771609 0.945326 2.52845
-0.0926924 0.350448 2.61004
-0.818207 1.02115 3.40076
-0.122155 0.443568 3.47565
-0.78693 1.43189 -2.53799
-0.0239818 0.769304 -2.49294
-0.769898 1.56976 2.88682
-0.743296 2.36952 2.35505
-0.104391 1.54062 2.44748
-0.805097 2.43259 3.23126
-0.138755 1.5994 3.32695
-0.767578 2.17637 -2.15154
-0.0140916 2.09486 -2.58033
-0.756759 2.41185 -1.19823
-0.0107863 2.2584 -1.72064
-0.74427 2.72489 -0.159151
-0.0192163 2.56583 -0.67417
-0.733216 2.99224 0.879882
-0.0400078 2.88454 0.357198
-0.742815 3.14943 1.83304
-0.066235 3.10056 1.40371
-0.778495 3.23235 2.69949
-0.0937973 3.19893 2.26348
-0.12515 3.26647 3.13674
0.813374 -0.275194 -2.01223
0.792471 -0.139069 -2.45827
1.19788 -0.339573 -2.44454
0.823073 -0.217917 -1.01403
1.2251 -0.223485 -1.5726
0.816623 -0.249368 0.117037
1.21133 -0.215986 -0.450647
0.804408 -0.283839 1.24815
1.1949 -0.263796 0.682606
0.739663 -0.253594 2.24685
1.15918 -0.270387 1.80493
0.654197 -0.168283 3.11469
0.656436 0.0663749 2.64664
1.05605 -0.204419 2.67892
0.602832 0.162643 3.51135
0.98993 -0.109814 3.54435
0.769367 0.41308 -2.48005
1.18581 0.0575666 -2.46668
0.605071 0.397302 3.04331
0.574526 0.945737 2.52908
0.996994 0.361971 2.60713
0.557297 1.02182 3.40185
0.946802 0.45114 3.47468
0.748857 1.43228 -2.53528
1.14742 0.787792 -2.4938
0.526752 1.57026 2.88761
0.545108 2.37003 2.35591
0.87797 1.54209 2.44867
0.541192 2.43328 3.23243
0.885325 1.60167 3.32794
0.7427 2.17689 -2.14944
1.12587 2.11105 -2.58205
0.726756 2.41238 -1.19658
1.11774 2.27532 -1.72308
0.685046 2.72548 -0.15782
1.08314 2.57472 -0.675322
0.626973 2.99286 0.881023
1.01563 2.88318 0.358512
0.582782 3.15006 1.83415
0.944656 3.09542 1.40666
0.559548 3.23305 2.70072
0.913378 3.19478 2.26647
0.897632 3.26408 3.13926
1.60961 -0.287864 -2.0049
1.59122 -0.142938 -2.45295
1.61336 -0.221555 -1.00922
1.62076 -0.0162433 -1.58321
1.58961 -0.230414 0.114922
1.59743 0.027172 -0.470334
1.54967 -0.250344 1.23938
1.5583 0.0186449 0.650257
1.47556 -0.221212 2.237
1.49914 0.0296537 1.7639
1.39178 -0.145949 3.10858
1.3966 0.0911776 2.63941
1.3339 0.178683 3.50768
1.60237 0.128683 -2.03126
1.56387 0.432278 -2.48042
1.60483 0.232483 -1.04433
1.5831 0.568501 -1.61323
1.56612 0.276231 0.0650009
1.55115 0.72005 -0.525738
1.50777 0.298643 1.17477
1.47515 0.829894 0.561776
1.42018 0.342044 2.16631
1.36626 0.900241 1.65026
1.33872 0.41581 3.0385
1.30044 0.958324 2.52673
1.27483 1.03099 3.40077
1.54459 0.872096 -2.06239
1.52444 1.46657 -2.54056
1.52942 1.05607 -1.09464
1.52106 1.61501 -1.67752
1.46018 1.27371 -0.0289631
1.48248 1.87871 -0.618941
[...]
POINT_DATA 29498
VECTORS point_vectors float
-2.23215 -3.2716 12.1421
0.313459 0.369817 3.12922
-2.04043 1.01276 3.88945
0.0500422 -0.0848953 0.437336
2.4948 -3.85036 14.3862
-0.314934 0.374398 3.14797
2.06737 1.02293 3.92506
-0.0480318 -0.0936471 0.449522
0.0407298 0.0295897 1.87678
0.0227052 0.0351583 1.8558
0 0 0
0.00266997 0.0052555 0.0185429
-0.0342585 0.021824 1.68
-0.0174688 0.0196975 1.40947
0 0 0
-0.00259306 0.00509201 0.0181745
-0.737816 -0.525633 20.1812
-0.948475 -0.741986 20.9128
-0.318844 -0.418281 21.5053
0.140792 -0.112926 21.6568
0.590392 0.181705 21.6584
0.888724 0.298229 21.441
0.931607 0.294601 21.1621
-1.00676 -0.478998 19.9652
-1.55132 -0.750269 20.886
-0.562589 -0.628981 21.6441
0.053868 -0.418622 21.7931
0.817944 -0.204804 21.8687
1.21964 -0.138194 21.5186
1.34804 -0.261463 21.3996
-1.24416 0.00787944 19.7105
-2.16726 0.0795905 20.5559
-1.6024 -0.256998 21.5942
-0.799025 -0.375032 21.9925
-0.109485 -0.65577 21.8841
0.20975 -0.726857 21.5859
0.494041 -0.747794 21.5242
-0.559872 0.402283 20.03
-0.750809 0.609107 20.4004
-0.669517 0.459932 21.0231
-0.412951 0.162983 21.3413
-0.172228 -0.0363075 21.4256
-0.0622112 -0.12692 21.3519
0.0153513 -0.145921 21.1348
-0.880091 -1.37933 19.6522
-1.14398 -2.23233 21.5886
-0.146673 -0.395311 21.9301
0.134157 0.0205308 21.9168
0.531856 0.759837 21.9015
0.908805 1.14982 21.5981
1.26043 1.43525 20.9395
-1.49968 -1.46898 18.7761
1.69586 0.820548 11.2926
2.48886 1.14136 15.1633
-1.98012 0.356001 17.7428
0.102988 -0.611043 13.9644
0.587488 -1.38206 18.8262
-0.487505 0.784508 19.7101
-0.769632 1.2878 20.1497
-0.651057 1.10699 21.0073
-0.324837 0.423889 21.4577
-0.16355 0.0140802 21.5279
-0.0737414 -0.125105 21.493
0.0219987 -0.145792 21.4469
0.875578 -1.39971 19.6513
1.14188 -2.20385 21.5994
0.144489 -0.38681 21.9304
-0.138296 0.0228029 21.9158
-0.541905 0.775713 21.9014
-0.759994 1.34998 21.3533
-1.11767 1.8818 20.2984
1.50251 -1.57233 18.667
-1.2775 0.843257 6.33355
-2.43496 2.10325 10.3825
1.99402 0.432774 17.5147
0.384478 -0.542805 7.09747
0.0793453 -1.5073 11.9796
0.478032 0.801897 19.6983
0.749654 1.31602 20.1393
0.631194 1.13481 21.0247
0.304078 0.43414 21.4714
0.132926 0.00947566 21.4506
0.0623025 -0.126147 21.3344
0.0761175 -0.146087 21.2535
0.745506 -0.535502 20.1827
0.943535 -0.733757 20.9097
0.332932 -0.428853 21.4998
-0.121884 -0.128593 21.6607
-0.603074 0.173635 21.6449
-0.936066 0.354557 21.4652
-1.09923 0.509837 21.1294
1.03476 -0.499889 19.9666
1.51547 -0.73413 20.8946
0.564044 -0.61474 21.6371
-0.0395237 -0.40084 21.7698
-0.811663 -0.204422 21.8678
-1.42603 -0.0892252 21.5626
-1.72703 -0.0432419 20.8018
1.29969 0.0104671 19.6828
2.14812 0.0777848 20.5676
1.57783 -0.253478 21.5861
0.783273 -0.371205 21.9825
0.0969308 -0.668286 21.9046
-0.20948 -0.889979 21.7452
-0.505284 -0.92392 21.1951
0.565421 0.409863 20.0254
0.757628 0.617665 20.3983
0.685443 0.477799 21.0276
0.426878 0.170912 21.3583
0.194283 -0.0202071 21.5075
0.0802241 -0.122008 21.5599
-0.0182641 -0.133226 21.4077
-0.608981 -0.134432 1.08574
-2.01571e-05 -0.0055893 0.126548
0.0237963 0.00656535 1.51213
-0.021602 -0.138875 0.0962713
0 0 0
0.065305 0.0192145 0.933989
0.000420975 0.202474 0.388586
-0.137015 -0.0909812 0.287167
0.00538709 -0.00174684 0.0267499
0.0141397 0.0149259 0.11574
0.710015 -0.162755 1.27408
-0.0374584 0.0367507 1.36408
0.018563 -0.13953 0.104113
-0.0611472 0.0178301 0.871041
0.137582 -0.0914399 0.287412
-0.013932 0.0145667 0.117081
0.00582936 0.0236416 2.1116
-0.000171422 7.74254e-05 0.0246781
0 0 0
0.00108907 0.0090418 0.0505506
0 0 0
0.00491796 0.0172111 0.0741406
1.70513e-05 0.0452667 0.0977345
0 0 0
-0.0030496 0.0244583 1.81479
0.00016842 7.63116e-05 0.0241336
-0.00114967 0.00972088 0.0542046
-0.00490357 0.0171694 0.0739732
0 0 0
-0.000135066 0.00299848 0.0227981
0.000171158 0.0441694 0.215409
0 0 0
1.86093e-08 1.25111e-07 2.97742e-05
-2.27167e-07 -1.51336e-06 -2.73632e-05
0.0012865 0.714018 0.612187
0 0 0
0 0 0
2.93197e-05 0.0138606 0.0927245
3.71475e-05 -0.000259991 0.00661095
0 0 0
0.000142181 0.0031676 0.0240438
-0.000642941 0.0480251 0.231951
-2.61525 -1.69882 21.2645
-1.77691 -3.44489 22.2226
-3.28452 -3.58505 18.6582
1.24021 0.168433 20.1061
0.861329 1.06447 19.7127
1.26534 0.713782 8.40567
-4.26261 0.634017 20.548
-4.94867 1.97909 16.1788
-2.02817 2.44606 19.6931
0.0922237 -0.425186 17.4607
-0.241706 -0.151887 7.38341
-0.266063 0.0103532 21.7942
1.77626 -3.36232 22.2204
3.36673 -3.78192 18.62
2.53301 -1.64044 21.2754
-0.875143 1.0908 19.7994
-0.863863 0.538368 5.74614
-1.25232 0.164222 20.3037
4.9816 2.13722 15.9695
2.02112 2.47323 19.6838
4.23248 0.614311 20.5613
0.643025 -0.0266602 4.40454
0.269021 0.0291559 21.81
-0.101407 -0.46216 17.582
-0.243758 -0.947982 21.8464
0.0291876 -0.0494507 19.5636
0.268465 -0.398258 20.8162
0.250859 0.0957704 19.2214
-2.79231 -0.621753 22.0938
-2.12009 2.27953 21.21
-1.20955 -0.551572 21.8121
-0.822809 0.804395 22.1169
-0.039376 -0.0416069 19.4751
0.267958 -0.943146 21.8997
-0.246476 0.0965209 19.3203
-0.256544 -0.407915 20.9721
2.12039 2.34088 21.2035
2.77194 -0.606837 22.0995
0.813389 0.852172 22.1484
1.21606 -0.563399 21.944
-0.935842 -0.695086 20.4736
-0.877413 -0.527842 20.056
-0.879989 -0.863774 19.9541
-0.643425 -0.597105 21.3524
-1.25413 -0.794559 20.899
-1.23955 -1.38062 21.1373
-0.069696 -0.256354 21.6135
-0.449696 -0.552074 21.5391
-0.21233 -0.497756 21.7354
0.356422 0.0165857 21.7244
0.0946951 -0.27916 21.6716
0.189808 -0.102517 21.794
0.766671 0.230145 21.5462
0.694411 0.0127597 21.718
0.655857 0.438558 21.7952
0.979632 0.275428 21.3147
1.09327 0.137535 21.4945
1.04132 0.691999 21.504
1.13677 0.089268 21.3075
1.36314 0.866712 21.1119
-1.40788 -0.66537 20.2784
-1.19938 -0.276024 19.7847
-1.37097 -0.870733 19.5094
-1.06793 -0.728068 21.4598
-1.97484 -0.466721 20.7947
-0.233518 -0.520706 21.7062
-1.08138 -0.64699 21.6931
0.374697 -0.318863 21.8982
-0.317713 -0.603653 21.9595
1.05398 -0.162175 21.6788
0.548927 -0.733987 21.8189
1.35549 -0.150533 21.2263
0.930471 -0.773955 21.6118
1.83997 0.176917 20.461
1.19693 -0.77689 21.2539
2.06663 0.129488 19.9852
-1.86531 0.0837988 19.9848
-0.899397 0.382631 19.8476
-1.71041 0.147188 19.0134
-1.94593 -0.0631554 21.2256
-1.42072 0.656416 20.3761
-1.24553 -0.352695 21.8785
-1.30164 0.509665 21.2126
-0.393547 -0.460001 21.9717
-0.665813 0.176375 21.6503
0.0790398 -0.709896 21.7727
-0.22758 -0.164496 21.609
0.42953 -0.777902 21.4639
0.0022832 -0.331487 21.4573
0.0753036 -0.931998 21.4501
0.128902 -0.42113 21.142
0.514348 -1.11346 21.1978
-0.674894 0.517766 20.1771
-0.57832 0.592879 19.8721
-0.746862 0.586268 20.6891
-0.822291 0.915414 20.2859
-0.55705 0.347464 21.1541
-0.718627 0.7713 21.0396
-0.294789 0.0409235 21.3274
-0.435742 0.301977 21.4199
-0.131633 -0.108378 21.4322
-0.231215 0.0245975 21.6648
0.0121812 -0.144418 21.2897
-0.0832912 -0.130362 21.6815
0.0131924 -0.134021 21.4164
-1.26041 -2.17894 20.2078
-1.16152 -1.49668 19.257
-0.0114555 -2.00872 19.2929
-0.482976 -1.01068 22.0387
0.00568725 -2.78047 22.1538
0.0046514 -0.166761 21.8743
0.00338855 -0.460732 22.1291
0.323279 0.359838 22.077
0.00553342 -0.000377551 21.9904
0.738114 1.00874 21.7707
0.00942545 0.904763 21.839
1.12143 1.27197 21.2565
1.41275 1.49124 19.3133
0.0677182 1.52038 21.2547
1.98247 1.70591 17.3843
0.15834 2.04116 20.2209
-2.01553 -0.829369 17.8598
-0.0592548 -2.63234 17.4568
2.23366 1.16856 13.4238
0.230322 -1.15304 4.95623
0.13216 0.475042 4.08339
2.10814 -1.21712 11.8197
0.290693 2.43836 5.6837
-1.07257 1.05835 18.943
-0.109376 0.925619 15.4876
0.190541 -1.02169 16.4608
-0.121044 -0.299082 21.6006
-0.213536 -0.104972 0.693334
-0.0371924 -0.49682 21.0957
-0.108619 -0.341588 4.17968
-0.657749 1.08822 19.8735
-0.0055798 1.01577 19.4946
-0.763842 1.28532 20.5732
-0.00975108 1.6605 19.99
-0.482493 0.770961 21.3008
-0.016937 1.53004 21.0187
-0.229548 0.17125 21.5067
-0.0283433 0.588874 21.5654
-0.1252 -0.0873484 21.627
-0.00539122 0.130794 21.7217
0.0002 -0.163345 21.4519
0.0217303 -0.135342 21.7969
0.0276229 -0.141999 21.4755
1.26565 -2.18953 20.2279
1.15037 -1.56331 19.224
0.887213 -0.869223 19.957
0.483972 -0.990211 22.0381
1.23684 -1.3504 21.1401
-0.00825922 -0.160524 21.868
0.224349 -0.499362 21.7308
-0.322387 0.370735 22.0764
-0.173575 -0.105504 21.7886
-0.679211 1.07446 21.7345
-0.656639 0.436551 21.8036
-0.852676 1.57011 20.843
-1.03026 1.7689 17.5715
-1.03816 0.843188 21.4386
-1.83475 2.21482 16.6793
-1.43404 1.08643 21.297
2.05676 -0.895381 17.6512
1.39892 -0.910112 19.4743
-1.90579 1.42124 7.90445
0.417978 -1.05765 -0.576507
-1.94761 0.568628 17.1878
-1.03631 -0.49285 1.63073
-2.49822 0.742964 17.5383
1.04862 1.0982 18.8985
1.75513 0.157306 18.9275
0.493681 -1.07395 9.71551
0.142964 -0.237706 21.555
-0.122156 -0.797753 18.5705
0.054082 -0.472178 21.2283
-0.547727 -1.39392 20.249
0.642254 1.11314 19.8617
0.58105 0.606839 19.8631
0.75559 1.30723 20.571
0.821778 0.9323 20.2827
0.451758 0.816851 21.3068
0.709651 0.808106 21.0433
0.201188 0.172487 21.4355
0.422239 0.338901 21.4364
0.117403 -0.087707 21.4896
0.224578 0.0188328 21.655
0.0175046 -0.164661 21.2273
0.104025 -0.132221 21.6542
-0.012071 -0.150364 21.4388
0.938228 -0.697675 20.477
0.888937 -0.539631 20.06
0.647184 -0.595183 21.3404
1.23897 -0.78484 20.9136
0.075091 -0.266332 21.6053
0.451382 -0.542534 21.5358
-0.346432 0.0181371 21.7248
-0.0805333 -0.273661 21.6604
-0.781363 0.259644 21.5468
-0.684812 0.00809106 21.7183
-1.05009 0.415841 21.2194
-1.2263 0.227756 21.4956
-1.49854 0.258835 21.2223
1.415 -0.669719 20.2919
1.24551 -0.296586 19.7726
1.05077 -0.711593 21.4501
1.94335 -0.473092 20.8153
0.235722 -0.511573 21.7032
1.06092 -0.635225 21.6802
-0.366988 -0.303764 21.8878
0.313842 -0.575322 21.9574
-1.14551 -0.139852 21.7004
-0.558788 -0.725741 21.8506
-1.69628 -0.0774665 21.2714
-1.01781 -0.933071 21.7039
-1.3811 -0.816944 21.0897
1.88843 0.0856713 19.9818
0.925888 0.398153 19.8264
1.91562 -0.0723952 21.2257
1.4279 0.661778 20.3803
1.22333 -0.350152 21.8693
1.31079 0.521223 21.2224
0.383676 -0.463971 21.9766
0.676889 0.18183 21.6727
-0.065702 -0.780554 21.7829
0.249597 -0.159598 21.6497
-0.462074 -0.987994 21.5788
0.0192864 -0.356642 21.4263
-0.0893864 -0.472901 21.2504
0.680192 0.527264 20.174
0.757058 0.602156 20.6895
0.566708 0.358938 21.1564
0.309275 0.052128 21.4103
0.148092 -0.104708 21.6062
-0.00452149 -0.163123 21.5268
-1.19776 -0.72336 20.3535
-2.00522 -2.953 19.7431
-1.18513 -1.25557 20.3726
-2.25354 -1.43318 19.8756
-1.09928 -0.906018 19.7617
-1.81872 -1.62138 21.2198
-0.85966 -0.707144 21.3926
-0.442113 -0.935025 21.9272
-0.640572 -0.894278 21.6787
-1.14291 -1.29457 22.1497
-0.182372 -0.652028 21.8738
-0.164626 -0.417203 21.6385
0.151731 0.0341832 19.087
0.0102284 -0.284346 21.7265
0.0732838 -0.673437 21.3712
0.282359 -0.2295 21.8027
0.361186 -0.143409 21.7957
0.552985 0.496793 19.3574
0.403514 0.147622 21.8901
0.599402 -0.150963 20.3973
1.02303 0.387557 21.7056
0.920511 0.0897403 21.6201
1.15423 1.3653 19.423
0.86794 0.583145 21.6659
1.62679 0.173824 20.2911
1.52385 0.604702 21.4145
1.21038 0.128841 21.3695
1.75072 1.66756 18.2979
1.23085 0.747248 21.2832
2.01082 0.226967 19.9872
1.7242 0.585423 21.1423
-1.79812 -0.371871 20.0952
-5.89103 -1.45495 15.8486
-3.13317 0.488765 19.102
-1.7362 -0.509461 19.1194
-4.09843 -0.981043 21.0746
-1.59389 -0.570487 21.4637
-3.33322 -0.186485 21.7606
-1.13022 -1.38171 21.3827
-0.679876 -0.657986 21.8519
-2.05877 -0.674674 22.1971
-0.0635021 -0.313107 17.9757
0.0788361 -0.606238 21.9828
-0.407002 -0.404882 19.9258
1.01833 0.0105396 14.4194
0.735333 -0.786999 21.7721
-0.708801 -1.55611 1.96748
-0.0795302 -0.713143 20.0436
1.22714 -0.812107 19.1559
1.04592 -0.769598 21.5744
0.753592 -1.03365 7.93152
0.34962 -1.07118 21.478
1.56746 -0.955824 20.1934
-1.21363 0.571817 20.0256
-1.58927 1.87765 19.0537
-0.730593 0.804413 20.0285
-1.08246 0.666783 19.443
-1.90761 1.33003 20.1034
-1.45352 0.614931 20.8258
-2.11947 2.39482 20.4098
-0.799773 0.895578 20.6667
-1.7911 1.08865 21.2872
-1.03289 0.364546 21.5102
-1.53654 1.66876 22.0012
-0.551864 0.542385 21.2243
-0.814365 0.407733 21.8681
-0.410928 -0.00449286 21.653
-0.457073 0.300026 21.9768
-0.335583 0.116782 21.5802
-0.27618 -0.105761 21.7265
-0.0924889 -0.266482 21.5559
-0.205618 -0.157604 21.716
-0.168605 -0.076595 21.7547
-0.0680991 -0.332595 21.4747
0.0465224 -0.344699 21.3275
-0.0306971 -0.429039 21.5052
0.00216785 -0.167436 21.5968
0.0749701 -0.483168 21.2945
2.00898 -3.00189 19.7753
-0.00369873 -3.36933 20.2618
-0.0241308 -9.34367 18.0164
-0.027343 -2.39271 18.5689
0.0100482 -3.4297 23.4761
0.428738 -0.909439 21.8729
0.00302317 -1.13709 22.3726
0.00322219 -0.061061 16.3435
-0.152339 0.0380435 19.1682
0.000260334 -0.213624 21.925
0.00429115 0.0124935 16.1724
-0.558933 0.506971 19.4177
0.0147312 0.434543 22.1635
0.0413896 1.04905 16.6096
-0.978677 1.46801 18.4729
0.0396279 1.23497 21.7111
0.100582 0.20138 2.3378
0.1539 1.53706 15.5873
-1.40063 1.9991 17.7967
0.107968 1.84213 20.6214
0.287898 1.17702 5.26828
0.180455 2.41728 14.2809
6.1109 -1.51827 15.4548
-0.108307 5.79936 11.2095
-0.0937545 -1.45018 15.3294
1.06763 -1.44939 0.440312
-0.0252357 1.06084 0.336848
-0.163269 0.705296 -1.88822
-0.261539 -0.600065 0.657167
-0.449411 0.469745 1.61577
0.349689 2.73307 -3.98645
1.57693 1.93371 19.0105
-0.00733619 1.4266 19.6693
-0.0433647 1.59227 18.2897
-0.014794 3.76367 19.131
2.11214 2.44961 20.3925
-0.0180835 1.71057 20.4795
-0.0339703 3.89926 20.9202
1.53498 1.75732 22.0243
-0.0228909 1.03145 21.3601
-0.0250775 1.3112 22.3086
0.450212 0.320767 21.9972
-0.0323624 0.275238 21.7338
-0.0110217 0.162842 21.8306
0.204444 -0.121724 21.6867
-0.00148762 -0.0580639 21.9033
-0.0180395 -0.154401 21.5787
0.0537916 -0.392005 21.3312
0.0258099 -0.163999 21.6144
0.00983627 -0.470892 21.4318
1.19797 -0.725922 20.364
1.19432 -1.25193 20.3865
2.29152 -1.4731 19.895
1.12113 -0.939807 19.7436
1.78487 -1.57497 21.2267
0.848126 -0.695106 21.3976
0.643823 -0.879571 21.6607
1.13182 -1.2643 22.1151
0.198357 -0.652913 21.8612
0.162472 -0.408847 21.6406
0.00254486 -0.287919 21.7201
-0.0540916 -0.679251 21.5166
-0.267168 -0.23197 21.8119
-0.344598 -0.144109 21.7794
-0.3995 0.148266 21.8784
-0.609573 -0.168106 20.6747
-1.01993 0.374741 21.7586
-0.971163 0.123625 21.6517
-0.880501 0.656286 21.6734
-1.68305 0.400969 18.7896
-1.59245 0.954203 20.7418
-1.44303 0.299185 21.3611
-1.2436 0.986348 21.3248
-2.32522 0.698849 17.5133
-2.00502 1.20479 19.4661
1.81553 -0.37815 20.1004
3.23219 0.512335 19.0463
1.78474 -0.526317 19.0439
4.01674 -0.972266 21.1027
1.55853 -0.568865 21.4603
3.30843 -0.185376 21.7512
1.15246 -1.37041 21.5445
0.671986 -0.628253 21.8358
2.0373 -0.661565 22.206
0.0851112 -0.373971 18.399
-0.085265 -0.592359 22.0033
0.425348 -0.433353 20.0988
-1.04529 0.00244056 14.7249
-0.822501 -0.854086 21.7122
0.00519926 -0.600599 17.9753
-1.0037 -0.818829 13.1366
-1.4134 -1.06007 21.3681
-0.287197 -1.10108 18.916
-2.04064 -1.19236 15.3079
1.22397 0.582048 20.0217
0.730508 0.817412 20.0227
1.08769 0.69986 19.4156
1.91725 1.35137 20.1007
1.46356 0.624161 20.8303
0.799442 0.925712 20.662
1.80971 1.12914 21.2897
1.04707 0.375431 21.5245
0.542998 0.573585 21.2353
0.824911 0.433106 21.8949
0.423625 -0.00621975 21.6871
0.316841 0.150634 21.6066
0.283461 -0.0986727 21.7516
0.102027 -0.287949 21.6016
0.170598 -0.0863139 21.7536
0.113942 -0.338528 21.5536
-0.00986459 -0.378604 21.3254
0.0209148 -0.170323 21.5656
0.0442945 -0.518603 21.1976
-1.65176 -1.39577 20.1921
-0.815985 -1.06463 21.8905
0.0950837 -0.419888 21.8112
0.606504 0.0229275 21.8398
1.3106 0.513038 21.497
1.60246 0.603327 21.4793
-3.23098 -0.722764 19.257
-2.24362 -1.30174 22.4439
-0.542803 -1.04942 19.79
0.307561 0.23377 16.3696
0.980463 -0.571456 16.6469
1.41412 -0.789954 19.8222
-1.52422 1.0735 19.6225
-1.93704 1.26598 20.7262
-1.32384 0.789017 21.7352
-0.477626 0.0996364 21.84
-0.173671 -0.235334 21.6209
-0.00538788 -0.392892 21.3943
-0.00849067 -5.25628 19.8535
0.00547709 -0.738613 19.7201
0.00478357 -0.0313809 15.8466
0.0207371 0.472109 16.4148
0.0908254 1.27236 15.9663
0.255661 1.91121 15.0571
-0.142646 -2.61112 5.8101
-0.0337367 -1.39937 -0.192378
-0.462368 1.47602 -3.65763
-0.0361848 2.9335 18.3534
-0.029676 3.88883 19.8289
-0.0261969 2.69632 22.159
-0.0193542 0.543885 22.063
-0.0177908 -0.00916074 21.7099
-0.0253213 -0.299175 21.2897
1.66533 -1.41355 20.2105
0.815706 -1.04413 21.8786
-0.0752877 -0.422068 21.8105
-0.596966 0.0203778 21.865
-1.35684 0.669205 21.4225
-1.89748 0.948912 20.3298
3.33045 -0.745534 19.2262
2.21275 -1.27729 22.4074
0.563737 -1.05801 20.0671
-0.306247 0.169321 16.7796
-0.93745 -0.49631 13.3468
-1.5729 -0.900122 14.4656
1.53834 1.11425 19.6037
1.94428 1.2903 20.7253
1.34008 0.824402 21.752
0.491455 0.115706 21.8724
0.182929 -0.222677 21.6471
0.035313 -0.463605 21.4832
-0.716876 -0.281397 1.90907
-0.00699373 -0.012085 0.200417
-0.0456409 -0.0290641 2.66499
0.0321068 -0.0692786 0.0871438
0.0186611 0.104585 0.568393
0.0544401 0.0345381 1.74228
-0.394585 0.0416306 0.563154
-0.0503456 0.274225 0.557627
-0.486163 0.0266944 1.39815
-0.0190298 -0.0212275 -0.00144568
-0.0259009 -0.0143085 0.0724202
0.0335628 -0.0099198 0.420524
0.00936783 -0.0135704 0.219713
0.694274 -0.272235 1.90029
0.14138 -0.147551 3.97166
0 0 0
-0.0317049 -0.0649365 0.086081
-0.0552614 0.0344686 1.7089
0.0502492 0.269035 0.547791
0.279802 0.0287919 0.398774
0.483731 0.0278002 1.38924
0.0356168 -0.017255 0.0800996
0.0183797 -0.0219922 7.13489e-05
-0.0321633 -0.0119039 0.427951
-0.00209928 0.100598 2.0871
0.0224355 0.021466 2.04738
0 0 0
0.000707766 7.49411e-05 0.0127793
0.148777 -0.16339 4.04343
-0.00823659 0.0470829 2.23609
0 0 0
0.000697135 1.17557e-05 0.0150151
-0.0945592 -0.0421645 0.224273
-0.00128911 0.00474324 0.11406
0.00485636 0.0192076 0.0829017
-0.0281462 0.0416313 0.0933446
0.00754819 0.00760278 0.0479515
0 0 0
0 0 0
0.000745709 0.000155508 0.0118487
0.00165173 0.0686311 1.88936
-0.00061354 4.33411e-05 0.0113573
-0.0182144 0.0196206 1.95659
0 0 0
-0.149458 -0.163781 4.08601
-0.000853303 2.4695e-05 0.0162359
0.0116367 0.0467577 2.02885
0 0 0
0.0945577 -0.0421878 0.224129
0.0283237 0.0422468 0.0949317
0.00138523 0.00507925 0.121547
-0.0048778 0.0192319 0.0827746
-0.00757584 0.00756249 0.0486296
-0.000649828 0.000137862 0.0107144
0 0 0
0 0 0
-0.000512532 -0.00066629 0.00932902
-0.333084 0.0837482 0.237504
-4.81254e-09 6.68365e-08 1.00362e-05
0.00177182 -0.677752 0.349746
0 0 0
-3.26407e-06 -4.60519e-07 -0.000111784
0.00839151 0.0035584 0.0757277
-0.0214696 -0.0461289 0.007988
-1.84829e-07 -1.31561e-06 -2.31079e-05
0.00373679 -0.107162 0.04662
0.000379842 0.00138072 0.0262597
-3.04466e-06 -2.45685e-06 -4.71479e-05
-0.0101774 2.53121 1.3625
0.000782483 0.00636545 0.0277133
-0.0178127 -0.0450041 0.192179
-0.116782 0.0564994 0.251417
0.00206738 0.000567884 -0.00111493
5.5259e-05 -0.000235969 0.00362672
0.001843 0.00580518 0.0320525
0.000691526 -0.000384598 0.011065
0.364081 0.0984214 0.256375
0.000457161 -0.000573018 0.00816831
4.98178e-19 -7.56263e-20 -1.97105e-17
0 0 0
0.0243646 -0.0421176 0.0069796
-0.00719848 0.00300926 0.0658368
2.06035e-06 -2.12298e-06 -3.82563e-05
-0.000361346 0.00150524 0.0280755
0 0 0
0.0166281 -0.0421328 0.18015
-0.000631038 -0.000403693 0.0114316
-0.00203397 0.00665556 0.0371387
0 0 0
0.000388805 3.94358e-05 0.0095363
0.003936 -0.00571621 0.0635099
-0.000363568 0.0038102 0.0354515
-1.47659e-05 -0.00173654 0.0792269
-1.52577e-09 -1.8327e-08 -2.6713e-06
0.000405575 0.00653835 0.0382541
0.00165122 0.00750507 0.0304612
4.69231e-09 1.304e-08 5.28167e-06
0.00153529 0.042608 0.328647
0.00553621 0.0164826 0.0703498
-0.00643592 0.0112379 0.0755957
2.06326e-05 0.0281091 0.0574315
2.3091e-05 0.0783477 0.194849
9.93238e-06 0.0022597 0.0331915
4.19592e-06 -2.62202e-05 0.00134456
-0.000453703 3.72116e-05 0.0108082
0 0 0
-0.00385569 -0.00548803 0.0618546
0.000357932 0.00374663 0.0347582
-0.000416696 0.00677012 0.0397173
-0.00187494 0.00849902 0.034414
0.00633776 0.0109816 0.0739057
-0.00376794 0.0108699 0.0491671
-0.00288683 -0.015086 0.210026
-0.157426 -0.105898 0.698845
-5.98168e-05 0.000359805 0.166167