# vtk DataFile Version 2.0
tri_press
ASCII
DATASET UNSTRUCTURED_GRID
POINTS 3682 float
-0.835829 0.215 -1.615
-0.808547 0.265 1.745
-0.755 0.855 -1.61396
-0.503156 1.495 1.565
0.845624 0.215 -1.605
0.808547 0.265 1.745
0.755 0.855 -1.61396
0.502979 1.495 1.565
-0.819668 0.238733 -0.495
-0.817761 0.248213 0.625
-0.741287 1.13857 -0.554307
-0.672 1.36656 0.505347
0.822241 0.242691 -0.488333
0.81849 0.25075 0.628333
0.74127 1.13861 -0.554307
0.671965 1.36665 0.505347
-1.59678 -0.345864 -2.45274
-1.60206 -0.233691 -1.58135
-1.57736 -0.216174 -0.460026
-1.53544 -0.253105 0.673527
-1.50099 -0.25365 1.79587
-1.50441 -0.192623 2.67227
-1.52107 -0.102766 3.53928
-1.60024 0.0572725 -2.47558
-1.60278 0.197622 -1.61048
-1.57204 0.261638 -0.500445
-1.51357 0.282725 0.615233
-1.45634 0.309149 1.72637
-1.48194 0.371888 2.60176
-1.51367 0.456762 3.47054
-1.56743 0.805388 -2.50308
-1.54004 0.937484 -1.63406
-1.50135 1.17249 -0.564901
-1.39213 1.37156 0.500056
-1.25717 1.48852 1.57014
-1.37682 1.54225 2.44783
-1.47528 1.60222 3.32607
-1.52965 2.1258 -2.58993
-1.5119 2.29083 -1.73059
-1.48275 2.58202 -0.680585
-1.43716 2.88011 0.356431
-1.40448 3.08859 1.40662
-1.42803 3.18887 2.26635
-1.47931 3.25977 3.13835
-0.81354 -0.335543 -2.45429
-0.818115 -0.216482 -1.58464
-0.804808 -0.223316 -0.457427
-0.79081 -0.280698 0.682174
-0.781877 -0.290048 1.80968
-0.799469 -0.218626 2.68181
-0.817428 -0.119467 3.54513
-0.82383 0.0563599 -2.47493
-0.812818 0.350218 2.60969
-0.827019 0.443209 3.47507
-0.800677 0.769184 -2.49448
-0.7304 1.54043 2.4472
-0.809396 1.59908 3.32644
-0.773183 2.09459 -2.58151
-0.761972 2.25815 -1.72156
-0.751545 2.56555 -0.674899
-0.736995 2.88423 0.356596
-0.729437 3.10025 1.40317
-0.756193 3.1986 2.26291
-0.800798 3.2661 3.13608
0.798922 -0.334874 -2.44783
0.827826 -0.215514 -1.57663
0.81832 -0.220319 -0.451422
0.814927 -0.278417 0.685497
0.793888 -0.289261 1.81081
0.685438 -0.217927 2.68289
0.622957 -0.11864 3.54648
0.786021 0.0567367 -2.46871
0.627433 0.350677 2.61039
0.582708 0.443926 3.47623
0.752713 0.769424 -2.4914
0.521618 1.5408 2.44776
0.531886 1.59971 3.32747
0.745 2.09513 -2.57916
0.7404 2.25865 -1.71972
0.713112 2.56612 -0.673441
0.65698 2.88484 0.3578
0.596967 3.10087 1.40425
0.568598 3.19926 2.26406
0.550498 3.26684 3.13739
1.59685 -0.344272 -2.44125
1.62237 -0.231456 -1.56856
1.60434 -0.211653 -0.449871
1.57487 -0.249174 0.679715
1.52447 -0.251514 1.79905
1.42666 -0.190911 2.67495
1.3569 -0.100987 3.54222
1.5856 0.0583966 -2.46465
1.61915 0.19897 -1.59786
1.59051 0.265997 -0.490797
1.54173 0.286464 0.620799
1.47381 0.310821 1.72875
1.36655 0.373266 2.60387
1.3109 0.458354 3.47314
1.54214 0.806159 -2.49619
1.54705 0.938033 -1.6286
1.51179 1.1741 -0.560679
1.40857 1.37332 0.502753
1.25871 1.48966 1.57177
1.23432 1.54338 2.44958
1.23876 1.60363 3.32841
1.50675 2.12697 -2.58494
1.49507 2.29199 -1.72644
1.45317 2.58333 -0.677204
1.37428 2.88151 0.359225
1.29234 3.08997 1.40908
1.25816 3.1903 2.26888
1.24477 3.26133 3.14113
-0.843466 0.535 -1.66253
0.00489751 0.211059 -1.61394
-0.82779 0.226826 -1.055
-0.751291 0.88 1.75044
0 0.298508 1.71149
-0.815706 0.254054 1.185
0 0.939677 -1.69864
-0.76342 1.01206 -1.08413
-8.85129e-05 1.52003 1.59003
-0.609462 1.45267 1.03517
0.846751 0.535 -1.65592
0.833171 0.229607 -1.04667
0.752052 0.88 1.75129
0.816744 0.254649 1.18667
0.763408 1.01208 -1.08413
0.609405 1.45276 1.03517
-0.822824 0.239364 0.065
-0.879214 0.688651 -0.524653
0.00128643 0.226383 -0.491667
-0.883177 0.807388 0.565173
0.000364086 0.226751 0.626667
-0.715275 1.2612 -0.02448
-8.61e-06 1.37371 -0.554307
-1.72911e-05 1.58237 0.505347
0.82474 0.242346 0.07
0.879392 0.69065 -0.52132
0.883152 0.808698 0.56684
0.715248 1.26126 -0.02448
-0.891072 0.611825 -1.06957
0.891343 0.612825 -1.0654
0.00309197 0.212445 -1.05083
-4.305e-06 1.08706 -1.08413
0.00244875 0.535 -2.03514
-0.887416 0.748019 0.02026
0.887453 0.749674 0.02276
0.00082526 0.226551 0.0675
-1.29506e-05 1.55954 -0.02448
-0.873541 0.843694 1.11009
0.873377 0.844349 1.11092
0.000182043 0.239117 1.18583
-5.2902e-05 1.56713 1.03517
-4.42564e-05 0.88 1.9182
-0.843438 0.375 -1.64256
-0.415466 0.211989 -1.61551
-0.829228 0.223495 -1.335
-0.831461 0.5725 1.79926
-0.404274 0.255015 1.75499
-0.812932 0.258722 1.465
-0.801225 0.695 -1.64024
-0.3775 0.921214 -1.68017
-0.77729 0.95161 -1.34905
-0.624268 1.1875 1.65476
-0.251622 1.51447 1.58447
-0.569279 1.4868 1.30009
0.425261 0.211075 -1.61142
0.84798 0.375 -1.63225
0.841793 0.219908 -1.32583
0.404274 0.298589 1.71141
0.831303 0.5725 1.79915
0.813329 0.259142 1.46583
0.3775 0.921163 -1.68012
0.803234 0.695 -1.6373
0.777208 0.951544 -1.34905
0.251445 1.51459 1.58459
0.624252 1.1875 1.65488
0.569204 1.48689 1.30009
-0.836538 0.219971 -0.775
-0.820396 0.239899 -0.215
-0.858579 0.459123 -0.509827
-0.413024 0.224892 -0.493333
-0.844865 0.223002 0.905
-0.82362 0.240461 0.345
-0.859204 0.523433 0.595087
-0.414575 0.22573 0.625833
-0.757596 1.08056 -0.81922
-0.848331 0.93265 -0.53948
-0.730162 1.20176 -0.289393
-0.417507 1.34986 -0.554307
-0.642925 1.41181 0.77026
-0.784899 1.09063 0.53526
-0.695254 1.3155 0.240433
-0.383382 1.56921 0.505347
0.840042 0.223812 -0.7675
0.416581 0.224902 -0.49
0.824377 0.241631 -0.209167
0.856844 0.463657 -0.504827
0.846604 0.223713 0.9075
0.415935 0.225735 0.6275
0.825154 0.243008 0.349167
0.859515 0.525377 0.597587
0.757576 1.08058 -0.81922
0.417477 1.34985 -0.554307
0.848082 0.933506 -0.537813
0.730139 1.20181 -0.289393
0.642879 1.4119 0.77026
0.383267 1.56909 0.505347
0.784134 1.09096 0.536093
0.695225 1.31557 0.240433
-0.882496 0.573413 -1.36605
-0.420508 0.535 -1.97147
0.00399474 0.212229 -1.33239
0.00367313 0.373029 -2.01096
-0.879051 0.419326 -1.06228
-0.412349 0.21245 -1.05292
-0.859506 0.861847 1.43026
-0.375668 0.88 1.89018
9.10215e-05 0.255164 1.44866
-2.21282e-05 0.589254 2.03477
-0.888198 0.548874 1.14754
-0.407762 0.239087 1.18542
-2.1525e-06 1.03163 -1.39139
0.00122438 0.737339 -1.91457
-0.881383 0.811943 -1.07685
-0.381712 1.10045 -1.08413
-7.07075e-05 1.54806 1.3126
-6.63847e-05 1.20002 1.78873
-0.753532 1.14818 1.07263
-0.304757 1.55885 1.03517
0.882538 0.573913 -1.36066
0.4246 0.535 -1.97057
0.879318 0.421216 -1.05603
0.418131 0.212451 -1.04875
0.859191 0.862174 1.4311
0.376004 0.88 1.89015
0.888244 0.549499 1.14879
0.408463 0.239133 1.18625
0.881068 0.812452 -1.07477
0.381702 1.08195 -1.08413
0.753742 1.14855 1.07305
0.304676 1.55885 1.03517
-0.857991 0.492256 0.04263
-0.414833 0.22529 0.06625
-0.884553 0.650238 -0.79711
-0.884652 0.718335 -0.252197
0.0021892 0.205883 -0.77125
0.00105585 0.226467 -0.212083
-0.887667 0.777704 0.292717
-0.875041 0.825541 0.83763
0.000594673 0.226634 0.347083
0.000273064 0.20671 0.90625
-0.828757 1.01831 -0.00210999
-0.422654 1.54039 -0.02448
-6.4575e-06 1.2374 -0.81922
-1.07803e-05 1.49439 -0.289393
-1.51208e-05 1.58065 0.240433
-3.50966e-05 1.57785 0.77026
0.858267 0.494925 0.04638
0.417357 0.225299 0.06875
0.883774 0.651738 -0.79336
0.884718 0.720162 -0.24928
0.887671 0.779186 0.2948
0.874985 0.826523 0.83888
0.828413 1.019 -0.000859991
0.422615 1.5404 -0.02448
-0.873274 0.397163 -1.35052
-0.886089 0.441509 -0.786055
-0.859923 0.862776 -0.808165
-0.888526 0.753472 -1.35755
0.873166 0.398108 -1.34325
0.888708 0.753726 -1.35485
0.859795 0.863541 -0.80629
0.885877 0.443943 -0.78043
-0.413907 0.212229 -1.33369
0.421696 0.212231 -1.32911
0.414948 0.20593 -0.769375
-0.41077 0.205927 -0.773125
-0.379606 1.02571 -1.37022
-0.37618 1.21589 -0.81922
0.376166 1.21587 -0.81922
0.379601 1.02591 -1.37022
-0.417987 0.374015 -1.92874
-0.399004 0.716169 -1.7902
0.40105 0.716169 -1.78925
0.42493 0.374015 -1.94241
-0.856361 0.476652 -0.233598
-0.859535 0.507376 0.318858
-0.811331 1.05672 0.266575
-0.841453 0.976936 -0.270795
0.856403 0.479867 -0.229223
0.841099 0.977677 -0.269337
0.810621 1.05715 0.267617
0.859916 0.509638 0.321983
-0.413929 0.22509 -0.213542
0.416969 0.225101 -0.210625
0.416657 0.225494 0.348125
-0.414714 0.225489 0.346042
-0.430859 1.46668 -0.289393
-0.407303 1.56337 0.240433
0.407265 1.56339 0.240433
0.430803 1.46664 -0.289393
-0.881788 0.538337 0.871315
-0.88202 0.560687 1.44763
-0.726925 1.16784 1.36517
-0.764276 1.11758 0.803945
0.88204 0.539612 0.87319
0.764096 1.11811 0.80457
0.726835 1.16803 1.3656
0.882008 0.561 1.44847
-0.40823 0.206783 0.905625
0.408945 0.206784 0.906875
0.406368 0.255632 1.45725
-0.406018 0.246347 1.45683
-0.320383 1.5692 0.77026
-0.27819 1.54187 1.30634
0.278061 1.54184 1.30634
0.320325 1.56915 0.77026
-0.389971 0.580877 2.00542
0.390139 0.580877 2.00538
0.313725 1.19376 1.76944
-0.313645 1.19376 1.76949
-0.837046 0.295 -1.62619
-0.625647 0.212623 -1.61613
-0.835517 0.216258 -1.475
-0.825413 0.41875 1.77754
-0.60641 0.268107 1.74189
-0.812567 0.260034 1.605
-0.773417 0.775 -1.6224
-0.56625 0.901853 -1.66081
-0.770772 0.907932 -1.4815
-0.563481 1.34125 1.60965
-0.377389 1.50991 1.57991
-0.542152 1.49684 1.43254
0.635442 0.21271 -1.60854
0.839738 0.295 -1.61156
0.843649 0.217514 -1.46542
0.60641 0.263356 1.74664
0.825921 0.41875 1.77807
0.812703 0.260306 1.60542
0.56625 0.901922 -1.66088
0.7741 0.775 -1.62061
0.770999 0.908166 -1.4815
0.377212 1.50994 1.57994
0.563509 1.34125 1.60983
0.54207 1.49692 1.43254
-0.819264 0.238191 -0.635
-0.82003 0.239319 -0.355
-0.852937 0.342022 -0.502413
-0.619549 0.225407 -0.494167
-0.818161 0.24876 0.765
-0.819963 0.245065 0.485
-0.862025 0.374052 0.610043
-0.621247 0.226813 0.625417
-0.752641 1.11276 -0.686763
-0.781242 1.02883 -0.546893
-0.736016 1.17046 -0.42185
-0.616752 1.31892 -0.554307
-0.658519 1.39024 0.637803
-0.73137 1.23006 0.520303
-0.688146 1.34555 0.37289
-0.566043 1.54459 0.505347
0.822009 0.242385 -0.627917
0.623216 0.226186 -0.489167
0.824196 0.241274 -0.34875
0.85458 0.345655 -0.49658
0.818766 0.251012 0.767917
0.622972 0.226723 0.627917
0.820605 0.248096 0.48875
0.862721 0.376204 0.61296
0.752552 1.11272 -0.686763
0.616722 1.31893 -0.554307
0.780893 1.02917 -0.54606
0.735995 1.1705 -0.42185
0.658484 1.39033 0.637803
0.56598 1.5446 0.505347
[...]
POINT_DATA 3682
SCALARS point_scalars float 1
LOOKUP_TABLE default
-126.282
-62.8578
-56.6112
-43.977
-121.456
-63.3981
-55.26
-44.7942
-42.9025
-39.5837
-81.1452
-61.441
-42.5631
-39.7014
-81.2772
-61.6403
-78.6817
-125.314
-42.4125
-39.1345
-61.1572
-63.9214
-46.3296
-60.3755
-126.11
-44.9638
-39.9042
-57.4937
-48.1782
-44.8996
13.0941
-105.891
-60.5067
-54.3206
-47.797
-42.0209
-41.1038
-36.9713
-68.6965
-98.7654
-71.2925
-50.896
-43.4289
-43.4289
-91.2798
-133.012
-42.8732
-40.1003
-61.1834
-47.5496
-44.6997
-41.8199
-44.5563
-44.2882
139.724
-37.6764
-37.7202
-26.7154
-41.2918
-93.225
-75.8867
-48.5858
-43.4289
-43.4289
-73.7288
-134.216
-42.6689
-39.9384
-61.7802
-47.1751
-46.0137
-38.8024
-44.5671
-44.7857
145.594
-37.0025
-36.5506
-28.4063
-37.532
-89.4669
-76.1056
-49.2621
-43.2521
-43.2521
-78.2835
-125.002
-41.8797
-47.698
-61.6331
-64.5063
-45.6102
-66.147
-121.001
-45.0525
-40.1332
-58.0163
-47.2065
-44.6011
14.1196
-105.821
-60.5458
-54.5388
-48.5526
-41.584
-40.8423
-34.9704
-68.738
-99.252
-71.4471
-51.3111
-44.217
-44.217
-80.1342
-103.222
-60.255
-44.9596
-54.9178
-47.9337
-24.4036
-57.5344
-39.3824
-52.6411
-84.9193
-60.6534
-45.6912
-48.3616
-57.5519
-53.0281
-40.1444
-50.7012
-46.7537
-47.8798
-43.6618
-70.7174
-20.2809
-74.725
-40.2373
-50.8156
-48.133
-70.8755
-68.7541
-68.6195
-62.9495
12.8574
202.287
-48.4898
-48.6906
-41.1963
-103.44
-48.5861
-49.0176
-51.9777
-55.9648
-40.7378
-106.282
-104.929
-75.1556
-51.4509
-54.752
-49.8768
-59.9749
-41.1164
-71.3257
-40.5718
-40.717
-49.4001
-104.95
-112.141
-72.4456
-55.8931
-52.016
-50.2917
-41.1692
-61.0408
-71.3603
-41.0928
-41.413
-49.9436
-57.9733
-40.3681
-46.3718
-45.9795
-58.4357
-40.7245
-42.8275
-42.9216
-76.3659
-60.9737
-75.0255
-27.36
-57.3444
-55.8455
-65.219
-71.8594
-57.666
-45.9205
-40.6085
-46.4812
-59.6933
-43.0507
-40.9261
-43.0182
-76.5545
-27.4049
-61.1259
-75.1892
-57.6348
-71.9532
-56.0751
-65.3764
-94.4952
183.489
-77.6137
118.685
-64.6552
-62.2231
-53.9272
-39.7458
-52.8588
-44.8352
-49.1135
-50.6729
-17.8633
145.256
-72.6531
-1.31956
-47.532
-32.2561
-50.6049
-55.4831
-93.5683
183.219
-64.57
-62.03
-54.6156
-40.511
-49.549
-51.3567
-72.6094
1.15563
-51.1179
-55.6796
-44.0296
-40.7459
-59.6019
-49.0798
-55.811
-42.6951
-48.6489
-47.6117
-41.7883
-53.797
-58.9636
-97.8458
15.0001
-74.1454
-90.4115
-64.1782
-44.1863
-40.7549
-59.5534
-49.2528
-48.8351
-47.9679
-59.1674
-97.9741
-85.2438
-57.8804
-61.7038
-99.27
-84.4358
-98.9851
-61.732
-57.5379
-77.6076
-77.1796
-55.2502
-55.3142
-25.5181
7.26849
7.42695
-25.8993
158.098
128.523
128.649
154.121
-44.2544
-44.0808
-58.2275
-60.5839
-44.3564
-60.7757
-58.3891
-44.219
-41.999
-41.9821
-41.2711
-41.2314
-67.2131
-84.4726
-84.6182
-67.3365
-42.8523
-52.1079
-50.1866
-52.8805
-43.2679
-53.253
-50.8683
-52.6314
-53.3477
-53.8145
-52.5413
-51.3184
-63.1233
-47.9242
-48.2084
-63.2439
-44.6679
-44.6964
-35.8242
-34.7462
-105.725
-112.381
-99.8106
-56.7624
-57.4316
-53.4492
-59.9255
-29.3889
-79.6685
-40.6668
-41.5241
-46.0757
-111.942
-109.326
-97.966
-57.8436
-57.2749
-53.8097
-30.3212
-60.397
-80.1077
-42.2273
-41.4743
-46.7171
-47.9012
-41.4002
-44.1471
-44.8093
-37.1698
-40.9055
-40.2187
-41.7539
-85.7115
-69.4355
-75.9499
-62.9875
-59.3394
-58.2368
-64.8097
-67.3575
-47.4965
-44.6831
-41.6165
-44.1176
-37.309
-41.9228
-40.642
-40.4634
-85.8909
-63.1266
-69.5678
-76.1221
-59.5802
-67.5167
-58.4582
-64.9847
-93.7352
-70.1462
-120.4
107.093
-104.423
-104.241
-88.8516
39.7011
-67.3212
-55.0501
-62.0499
-61.0838
-46.3381
-41.9044
-50.3408
-40.7986
-55.3768
-55.0952
-54.2367
-45.3461
-47.0116
-48.255
-48.2881
-49.1796
-29.342
-29.602
-29.9719
53.9825
-64.3046
-64.0521
-70.8593
-17.9763
-39.6432
-39.8572
-43.3119
-34.4858
-51.7196
-54.9195
-51.1524
-54.7637
-100.208
-73.6396
-120.112
105.844
-66.0627
-54.697
-62.2887
-60.8177
-47.0178
-42.7552
-51.0804
-41.5548
-47.446
-48.6835
-48.6881
-49.7204
-64.3608
-64.2476
-70.9055
-17.0788
-52.1923
-55.2561
-51.6038
-55.037
-40.2268
-40.0581
-41.8093
-40.2193
-47.9781
-55.0071
-52.7471
-49.6666
-46.6022
-46.5739
-50.5243
-44.2404
-45.0564
-51.2571
-48.185
-47.6503
-43.4535
-43.5255
-42.53
-45.767
-73.2196
-68.294
-63.7836
-86.9331
-21.4082
-21.5408
-0.639115
-43.9281
-74.0568
-74.1091
-81.9711
-69.199
-40.3161
-40.0581
-41.9233
-40.2244
-48.0093
-55.1299
-52.8158
-49.8258
-45.3
-51.5434
-48.4172
-47.9647
-73.3817
-68.4499
-63.9422
-87.1683
-76.6654
-66.8387
-71.1202
-63.536
-76.3028
-66.6708
-71.0143
-63.4652
-68.6712
-62.8878
-62.7838
-58.2219
-4.44602
10.2001
9.89992
20.4346
197.768
197.361
172.474
197.698
-45.8259
-48.7747
-48.8783
-50.8336
-46.029
-48.9629
-49.0745
-50.9922
-41.0796
-41.5911
-41.2761
-41.0881
-102.279
-100.307
-97.6362
-102.355
-52.4874
-49.6888
-50.0982
-47.6539
-53.0791
-50.0725
-50.5488
-48.0738
-52.2567
-51.5801
-51.9263
-52.2565
-51.895
-55.8356
-55.9401
-60.0859
-40.4084
-41.6505
-34.6632
-40.7858
-111.445
76.7686
-90.1487
38.3087
-81.3643
-77.5378
-54.1286
-44.1931
-52.9784
-45.0943
-51.3233
-50.6706
-105.982
75.688
-37.5703
52.1155
-84.9878
-38.2835
-46.3663
-37.4725
-43.9063
-35.7778
-49.7607
-48.311
-89.6621
38.4083
-107.96
77.2805
-80.7155
-76.9317
-54.3293
-44.9971
-54.7547
-44.3979
-51.8045
-51.3946
-37.5319
50.2254
-106.39
74.7322
-85.0145
-38.3658
-44.2822
-36.5476
-47.1493
-38.4031
-50.4183
-48.6976
-59.1889
-55.1117
-41.9158
-41.2425
-51.428
-44.839
-49.89
-43.5644
-47.384
-55.0468
-42.0162
-40.6416
-43.622
-41.4628
-41.9268
-44.9335
-67.1318
-10.2131
-60.9209
-60.6878
-67.5828
-101.39
-7.59878
-47.7188
-54.9027
-61.2537
-57.1305
-53.8142
-60.7832
-75.5072
-77.8326
-67.3567
-58.3943
-54.943
-49.8354
-43.5253
-42.1344
-41.2378
-51.3974
-44.9947
-48.1445
-56.2322
-42.006
-45.1415
-42.1317
-40.6504
-43.7795
-41.7227
-67.2776
-10.6125
-7.56889
-47.6579
-61.0308
-60.8983
-67.726
-101.618
-55.236
-61.4375
-77.9707
-67.4698
-57.3431
-54.1484
-60.9496
-75.6944
-89.206
-100.054
165.122
137.762
-77.5172
-77.1443
154.322
154.096
-71.1904
-59.671
-68.6741
-57.4865
-53.1172
-51.3074
-41.4466
-35.9555
-52.9249
-52.4608
-44.8343
-44.8349
-48.4013
-50.4269
-51.3985
-50.5996
-19.2373
-19.4293
136.893
138.587
-66.503
-82.6401
-14.1438
11.3963
-47.6188
-47.7669
-33.5425
-32.766
-51.3885
-51.8685
-59.301
-51.8125
-88.3732
-99.2151
137.755
167.676
-70.9309
-59.7162
-68.2931
-57.3384
-51.9813
-53.725
-41.987
-37.1881
-48.728
-50.9008
-51.8204
-51.7329
-82.5021
-66.4965
10.8664
-14.8743
-52.2799
-51.9689
-52.0479
-59.461
-43.9865
-44.0527
-41.0852
-40.8019
-59.0102
-59.6146
-46.0261
-53.561
-55.5866
-55.6268
-42.4316
-42.4039
-45.954
-52.8021
-44.0795
-50.4379
-41.6506
-41.6218
-53.5692
-53.8176
-58.6451
-59.5414
-98.2493
-92.2458
12.9034
13.1414
-70.1692
-70.2247
-88.3715
-88.4348
-63.9684
-64.0403
-44.2456
-44.2695
-41.0834
-40.8232
-59.605
-58.9834
-46.2202
-53.7255
-52.8291
-46.1367
-44.4041
-50.8378
-59.7124
-58.8361
-92.3587
-98.3997
-109.854
-68.2334
-73.4936
-113.905
-49.1769
-52.2979
-61.2758
-58.0089
-70.3044
-65.625
-65.807
-56.1313
-92.0321
-121.291
-79.0461
-77.1583
-105.731
-111.913
-73.2935
-67.9289
-91.9845
-77.1887
-78.7359
-121.551
-70.4907
-56.2332
-65.781
-65.7372
-49.2674
-57.8061
-61.1499
-52.2572
-93.0122
-89.4811
-69.4008
-67.776
-92.0661
-67.3817
-69.0509
-89.3263
-48.8198
-50.3833
-58.0447
-56.3276
-48.9328
-56.4211
-58.0525
-50.4011
-46.2901
-28.6117
-6.38804
-31.7424
-43.3562
-1.64266
17.8987
-7.53108
-43.6353
-7.61104
18.7736
-1.44365
-46.5093
-31.7895
-6.48923
-28.4012
-19.1771
88.2793
171.034
51.4679
46.0728
56.203
165.004
77.2015
45.1202
75.6289
165.041
55.4322
-21.3044
61.9967
170.991
87.2255
-42.6667
-41.7163
-45.9057
-46.5748
-41.6251
-45.5885
-46.0589
-41.7687
-61.011
-62.3355
-53.9912
-51.868
-67.821
-54.0644
-52.9574
-65.5794
-42.7572
-46.7085
-46.0912
-41.9524
-68.0091
-65.7489
-53.1202
-54.2591
-61.2052
-52.1047
-54.349
-62.509
-41.6554
-41.9635
-46.2535
-45.7927
-42.6256
-44.0984
-41.4808
-40.4859
-42.5859
-40.489
-41.4906
-44.0823
-41.1721
-42.4631
-41.175
-40.3063
-41.1059
-40.2883
-41.1575
-42.4423
-72.6518
-96.0173
-101.527
-44.3655
-71.4498
-80.9374
-96.1392
-81.548
-71.6123
-81.6426
-96.2068
-81.0002
-72.7907
-44.4178
-101.543
-96.1577
-38.073
-48.2322
-45.7874
-44.6556
-55.0625
-54.0086
-51.5107
-49.0709
-46.2001
-51.7104
-51.7119
-48.0772
-56.6692
-50.778
-50.7548
-53.2645
-38.3511
-44.9509
-46.2591
-48.4987
-56.9502
-53.6535
-51.1854
-51.1038
-46.9605
-48.8549
-52.2932
-52.2579
-55.5299
-49.5295
-52.0189
-54.7436
-43.2812
-45.5617
-51.9654
-49.6081
-43.0592
-50.0783
-52.2129
-45.6683
-53.47
-54.3865
-52.2479
-50.3617
-53.1414
-49.717
-51.8245
-54.0143
-63.5883
-58.2305
-59.8754
-68.757
-44.6279
-43.452
-51.9089
-51.7603
-45.1181
-52.0907
-52.0304
-43.6427
-63.7817
-68.8018
-59.9544
-58.4603
-45.3753
-45.2186
-41.3962
-41.9025
-45.4265
-42.4675
-41.669
-45.2107
-38.0653
-35.1699
-35.2023
-39.4806
-37.2985
-38.4876
-34.52
-34.6447
-115.339
-123.132
-127.009
-60.3808
-60.5735
-55.4518
-57.0817
-30.1193
-78.5883
-41.924
-42.6847
-45.1867
-122.195
-116.51
-123.44
-61.0561
-60.9336
-55.8582
-25.0301
-57.1283
-78.6438
-43.4441
-42.7395
-45.9088
-44.2744
-42.0232
-43.3343
-43.8994
-38.3292
-40.466
-39.4529
-40.4499
-86.0698
-74.0454
-77.7117
-91.3537
-60.2746
-59.9358
-63.3079
-63.5464
-44.2779
-43.7555
-41.7707
-43.2888
-38.8828
-40.5171
-40.273
-39.6331
-86.1694
-91.5603
-74.1207
-77.8745
-60.4915
-63.7405
-60.143
-63.4869
-85.8445
-76.1196
-125.698
14.2625
-103.624
-103.702
-96.2303
-91.4876
-67.2097
-56.1216
-60.9566
-60.1299
-45.8261
-43.1876
-47.3471
-41.6289
-54.6546
-54.5485
-56.2485
-47.2969
-48.9845
-47.7505
-47.9876
-48.4632
-26.2193
-26.4645
-35.4064
0.9263
-59.5805
-61.6554
-69.6991
-36.1241
-39.3688
-39.4507
-40.9945
-35.8375
-51.6638
-53.636
-51.7438
-54.137
-92.3672
-80.1059
-126.684
11.4655
-65.9694
-55.5432
-61.0762
-60.0185
-46.5327
-43.9824
-48.061
-42.3157
-49.4708
-48.0567
-48.3669
-48.8972
-59.592
-61.7328
-69.7342
-36.0863
-52.0848
-53.9938
-52.1649
-54.4698
-39.5722
-40.6144
-41.0521
-39.9814
-49.1961
-52.4617
-51.4658
-49.9174
-46.731
-46.7138
-48.2452
-45.3258
-46.4124
-49.4891
-47.9694
-47.6866
-43.5837
-43.6234
-43.1117
-43.9817
-71.7826
-69.5906
-67.0187
-77.6491
-20.3711
-20.4221
-11.54
-33.194
-74.6019
-74.6269
-78.2313
-71.771
-39.6825
-40.5327
-41.1555
-40.004
-49.2973
-52.6043
-51.5628
-50.0652
-46.6612
-49.7511
-48.2158
-47.9801
-71.9407
-69.7499
-67.1782
-77.8053
-72.1485
-67.9578
-69.6565
-65.683
-71.9641
-67.8168
-69.5155
-65.606
-65.8601
-62.9683
-62.9143
-60.4395
4.18089
12.1687
12.1034
19.5436
200.107
205.816
175.668
199.873
-47.1965
-48.5889
-48.6757
-49.9892
-47.3935
-48.7624
-48.8816
-50.1838
-41.1982
-41.3329
-41.2033
-41.2021
-103.24
-102.532
-101.047
-103.263
-50.0083
-48.7302
-49.6957
-48.5416
-50.485
-49.1544
-50.0316
-49.0238
-52.1576
-51.8406
-52.0144
-52.0964
-53.9198
-55.9209
-55.9737
-57.9774
-40.5954
-41.7684
-38.3158
-40.7889
-111.276
-101.64
-130.73
-13.107
-107.456
-104.626
-98.1036
-169.367
-86.6156
-69.2386
-77.3829
-76.7946
-54.1211
-48.2064
-54.5673
-45.2645
-56.9561
-55.7476
-53.9318
-48.2716
-50.5532
-46.8539
-50.4791
-50.1966
-58.4398
-64.4036
-97.5837
13.3881
-32.8312
-36.7464
-40.5214
29.6939
-71.4495
-72.7278
-81.7632
-51.0588
-40.4353
-40.9564
-43.7766
-38.5001
-40.5379
-39.952
-41.7769
-36.8095
-47.3246
-50.628
-49.6858
-48.8962
-107.229
-104.426
-97.7838
-161.144
-112.521
-107.479
-128.87
-14.0081
-85.3859
-72.4031
-75.6208
-76.3818
-57.5515
-55.2273
-56.8425
-47.074
-54.6653
-48.8356
-55.1991
-45.6141
-50.9694
-47.314
-50.9632
-50.7243
-34.5572
-36.7498
-40.5474
28.9547
-59.2371
-66.2291
-98.3071
11.4043
-71.6798
-72.7461
-81.8044
-51.0451
-41.1578
-40.2901
-42.1962
-37.4414
-41.2575
-41.8037
-44.6015
-39.3312
-47.8856
-51.1309
-50.2561
-49.3506
-55.0213
-53.5721
-59.3815
-54.8754
-40.8833
-40.3293
-41.2908
-40.7691
-45.1708
-46.9758
-48.7575
-45.5276
-45.4627
-46.3638
-47.453
-44.6553
-34.6329
-57.1266
-50.2322
-56.0569
-41.3575
-39.951
-41.6347
-40.4276
-41.7047
-43.7661
-43.2059
-42.1622
-42.4598
-43.2315
-42.4062
-43.3959
-86.3636
-72.119
-74.1364
-40.8249
-65.0191
-57.5873
-60.9702
-60.6058
-75.2028
-74.2083
-70.1554
-91.442
-36.1023
-23.29
-16.2081
-36.027
-58.372
-56.0221
-55.9579
-59.3339
-56.6905
-53.8497
-56.717
-55.2302
-64.6257
-66.8686
-62.9153
-69.1994
-70.3125
-73.1621
-74.8264
-69.4985
-55.0013
-53.1823
-57.9442
-54.7054
-45.3985
-46.3219
-47.3825
-44.6023
-40.9587
-40.8165
-41.5769
-40.8381
-45.2266
-47.0393
-48.7208
-45.594
-34.6425
-57.7344
-51.2338
-57.4668
-42.6015
-43.3352
-42.5074
-43.5554
-41.3999
-40.0999
-41.776
-40.4796
-41.9025
-43.9943
-43.3819
-42.375
-86.4984
-72.3268
-74.3253
-42.0385
-36.2551
-23.3224
-16.2373
-36.042
-65.1608
-57.7291
-61.1158
-60.7983
-75.3653
-74.3694
-70.3164
-91.6597
-58.6371
-56.3308
-56.2728
-59.5709
-70.4269
-73.2381
-74.9446
-69.5908
-56.9231
-54.1401
-56.9704
-55.4353
-64.7977
-67.0214
-63.0812
-69.3698
-106.923
-84.3476
-91.9203
-96.2163
156.299
187.063
181.736
159.358
-82.6084
-72.9925
-77.6424
-77.1809
119.544
163.252
125.295
126.334
-63.4567
-65.9582
-67.5471
-61.7194
-61.7084
-62.629
-65.2128
-59.697
-53.0963
-53.7645
-54.0666
-52.5762
-40.1257
-40.019
-41.0644
-37.9602
-53.4882
-52.4387
-52.9043
-52.7086
-44.9884
-42.8932
-44.851
-44.8457
-48.7642
-49.5622
-49.5188
-49.5069
-50.0254
-51.1814
-50.9855
-50.5441
-23.7692
-11.0719
-17.8925
-17.9459
102.493
172.8
138.061
131.871
-72.0123
-71.8865
-69.3867
-76.2137
-9.63642
6.84221
-5.20976
3.48581
-45.4641
-49.7213
-47.5446
-47.6643
-32.9898
-32.4587
-32.6978
-32.2924
-50.691
-51.0568
-51.1407
-50.7877
-55.2365
-55.6858
-57.336
-53.6606
-105.592
-83.8386
-91.0204
-95.347
154.616
185.603
157.4
182.22
-63.3464
-65.8226
-67.3519
-61.5852
-61.4851
-62.4721
-64.9649
-59.5362
-53.8287
-54.409
-53.2631
-54.7295
-40.9774
-40.5806
-41.6394
-38.9651
-49.173
-50.0067
-49.7697
-49.947
-50.6752
-51.7191
-51.5077
-51.5452
-71.9943
-71.8379
-76.0764
-69.3359
-7.4953
5.55288
6.33065
-5.97831
-51.1771
-51.5799
-51.2073
-51.7114
-55.4731
-55.8378
-53.8727
-57.5148
-43.0814
-44.7821
-44.0455
-44.0404
-40.4722
-40.9232
-40.831
-40.7517
-55.6095
-62.0936
-59.62
-59.636
-49.3786
-48.9049
-47.4602
-50.9994
-53.9708
-56.1046
-55.7386
-55.7587
-43.3418
-41.951
-42.5644
-42.549
-48.3711
-48.8346
-47.2841
-50.2852
-47.6066
-47.5231
-46.0719
-49.0112
-42.1583
-41.5037
-41.7449
-41.7302
-47.4694
-55.3832
-53.702
-53.8279
-62.2517
-55.0721
-59.1414
-59.2484
-94.5824
-100.516
-100.12
-95.1336
6.80282
19.2059
14.4587
14.5041
-55.1422
-91.8184
-73.1134
-73.1664
-86.0409
-94.3074
-90.107
-90.1369
-66.6195
-62.1588
-64.1646
-64.2013
-43.2618
-44.9723
-44.2463
-44.2009
-40.4802
-40.9288
-40.8373
-40.77
-55.5105
-62.0972
-59.5233
-59.6649
-49.5396
-49.0822
-47.6506
-51.1795
-48.5764
-49.0132
-50.4504
-47.4728
-47.9585
-47.9114
-46.4139
-49.378
-62.4027
-55.2778
-59.4249
-59.3243
-94.7396
-100.624
-95.2497
-100.242
-94.8896
-84.3391
-86.7947
-77.2572
-57.8871
-55.5967
-58.2083
-58.145
-64.5376
-61.0844
-63.9176
-60.1704
-105.081
-91.6151
-102.451
-90.7839
-93.3757
-83.4613
-85.8039
-76.7209
-104.896
-91.5053
-101.92
-90.5913
-64.6234
-61.2022
-63.9012
-60.1962
-57.7275
-55.6596
-57.8125
-57.9987
-83.3544
-77.4812
-77.5397
-72.7721
-82.9106
-77.0328
-77.6507
-72.4143
-55.0811
-53.2834
-55.4944
-55.4091
-55.1567
-53.364
-55.5923
-55.4676
-32.0353
-30.9755
-21.3939
-19.662
0.85214
1.01756
11.1544
11.0676
0.700669
1.07073
11.3838
11.3908
-32.0964
-31.1778
-21.6864
-20.128
105.563
118.687
161.512
168.079
122.345
121.353
126.2
137.152
120.303
122.078
137.135
126.063
115.937
101.822
167.332
161.768
-42.9415
-44.6315
-44.1151
-44.8655
-43.2026
-43.7348
-44.0231
-44.8205
-58.0544
-58.8364
-54.9221
-58.4949
-60.6068
-64.609
-56.1599
-60.1867
-43.1775
-44.7587
-44.3036
-45.0393
-60.7969
-64.7013
-56.3285
-60.3918
-58.2326
-58.9925
-55.0704
-58.7228
-43.3207
-43.884
-44.1622
-44.9739
-41.6401
-42.6115
-41.4772
-42.2488
-42.5939
-41.6186
-42.2291
-41.4709
-41.649
-40.9653
-41.4927
-41.0025
-40.9401
-41.5906
-40.9707
-41.4543
-72.4563
-56.8602
-84.8973
-67.9415
-81.2299
-80.964
-88.4323
-86.7787
-81.0983
-81.4097
-86.8931
-88.5514
-56.8939
-72.584
-68.1062
-85.0417
-45.5752
-40.9292
-45.7045
-42.4191
-53.0064
-51.8749
-52.4647
-51.6901
-48.4934
-49.8641
-50.5885
-51.0316
-53.7748
-53.3353
-52.384
-52.1161
-46.1108
-41.3099
-46.2055
-42.7582
-54.1188
-53.7134
-52.7809
-52.4987
-49.2392
-50.5388
-51.2756
-51.6617
-53.5687
-52.353
-53.0369
-52.1899
-53.612
-46.7265
-54.587
-53.4199
-54.2248
-47.0589
-54.9848
-53.7777
-53.3753
-52.1894
-52.819
-51.9586
-51.8457
-51.2347
-52.116
-50.5992
-62.5018
-65.2197
-61.1662
-63.6545
-45.9207
-48.1236
-47.7357
-49.7656
-46.245
-48.4645
-47.9588
-50.0301
-62.6408
-65.3423
-61.3044
-63.7547
-44.2674
-44.689
-42.7877
-44.6226
-44.7692
-44.3785
-44.6517
-43.1195
-36.0941
-37.1442
-34.6171
-36.1852
-36.077
-35.1584
-35.0474
-33.6383
-133.665
-62.0699
-103.953
-126.313
-105.373
-95.1707
-57.9412
-47.3252
-54.9099
-49.1066
-56.1953
-52.9488
-97.2109
6.81987
-47.415
17.1419
-91.449
-56.3625
-44.0141
-38.3167
-42.5721
-38.4058
-46.4206
-45.3264
-103.355
-121.532
-126.326
-68.2069
-101.328
-93.7731
-54.5653
-49.3191
-58.3624
-47.546
-56.6094
-53.1517
-46.5365
15.7994
-97.0151
5.62456
-91.5732
-57.2867
-43.1339
-39.18
-44.8056
-39.1
-47.1641
-45.881
-48.3233
-48.1714
-42.0851
-41.9711
-45.9852
-43.2756
-46.2209
-43.5356
-36.2839
-41.4678
-41.3863
-40.5281
-40.9202
-39.0829
-41.4093
-41.9688
-77.1355
-82.803
-70.6238
-68.6485
-71.6161
-95.5545
-53.4344
-76.9883
-57.9407
-60.6242
-59.7371
-57.348
-62.9724
-67.716
-69.422
-65.1188
-48.3468
-47.9684
-45.9465
-43.5524
-42.3145
-41.9744
-45.9663
-43.3264
-36.7468
-41.1857
-41.4828
-42.0956
-41.232
-40.5733
-41.032
-39.3618
-77.3605
-82.8489
-53.5002
-77.0705
-70.7333
-68.7749
-71.7903
-95.7716
-58.2029
-60.8488
-69.5775
-65.2847
-59.941
-57.5974
-63.157
-67.8838
-130.851
5.4958
-111.303
9.71213
-116.775
-125.875
106.742
96.2477
-97.0433
-149.025
-96.917
-188.177
-89.2235
-89.0819
87.405
69.0232
-67.0359
-67.2954
-57.3553
-55.716
-64.8923
-59.5102
-64.1825
-58.5308
-50.9131
-42.6791
-45.2544
-39.6175
-52.6062
-49.0913
-41.7512
-39.6831
-56.1776
-47.1462
-56.283
-47.0791
-54.3167
-54.1671
-45.5071
-45.4887
-47.7098
-48.7466
-47.837
-48.4664
-48.2216
-48.591
-49.2488
-49.455
-39.1674
9.02132
-39.2613
9.37473
-30.1855
-30.273
63.9546
61.7367
-72.3439
-43.1232
-71.6839
-31.6084
-68.0114
-74.101
-23.8019
-10.2049
-41.1753
-36.037
-41.3825
-36.4251
-43.3533
-43.4507
-34.703
-34.4209
-51.7604
-51.82
-53.923
-57.0336
-51.1189
-52.3746
-56.4045
-53.2213
-130.914
3.32678
-113.009
7.38936
-115.725
-125.258
94.9172
105.846
-67.1968
-66.7206
-56.729
-55.4888
-65.2492
-59.3478
-63.7416
-58.3838
-51.6424
-43.2442
-46.076
-40.4347
-49.8468
-53.3503
-42.3666
-40.5748
-48.1002
-49.2561
-48.121
-48.8833
-48.6041
-49.0242
-49.6152
-50.0766
-72.3943
-43.0659
-71.8157
-31.7707
-74.1106
-67.9935
-10.5265
-23.2276
-52.2799
-52.2067
-54.2938
-57.3127
-52.7974
-51.6117
-53.5235
-56.6596
-41.2449
-40.1296
-40.954
-39.9531
-41.744
-41.7917
-40.3055
-40.2443
-49.4788
-47.1932
-55.4813
-54.2322
-52.3993
-54.0124
-48.0322
-51.4888
-48.1094
-45.1756
-48.0877
-45.0501
-50.546
-50.5783
-44.2175
-44.2061
-45.3205
-44.8283
-51.65
-51.0296
-46.8557
-49.7383
-46.1476
-49.151
-42.9324
-43.831
-42.9828
-43.9308
-42.5681
-42.5401
-45.7223
-45.7781
-68.9979
-83.4522
-65.0848
-73.4366
-62.835
-64.5472
-92.9779
-84.0018
-11.9944
-33.6449
-12.0674
-33.6849
-0.777872
-0.659327
-43.7969
-43.7552
-77.1905
-71.1192
-77.2517
-71.1602
-81.8116
-81.842
-68.998
-69.0192
-41.3158
-40.1355
-41.2153
-39.9928
-41.9169
-41.9239
-40.3175
-40.253
-49.4423
-47.3088
-55.6047
-54.3996
-54.1035
-52.3612
-48.1847
-51.6562
-45.539
-45.0967
-51.9046
-51.3318
-49.9838
-47.0698
-46.4505
-49.4733
-69.1625
-83.6123
-65.2425
-73.5945
-64.7125
-63.0068
-84.162
-93.2792
-75.0641
-77.9054
-69.7612
-63.8295
-68.1591
-74.2217
-62.5542
-64.6679
-74.7436
-77.5879
-69.5224
-63.7212
-74.0795
-68.1539
-64.628
-62.3659
-69.0786
-69.2159
-65.836
-60.3552
-65.7152
-60.2625
-58.1818
-58.223
-4.58602
-4.42903
2.20254
15.6868
13.4066
2.57392
19.686
20.0027
190.182
173.602