# vtk DataFile Version 2.0
tri_press
ASCII
DATASET UNSTRUCTURED_GRID
POINTS 3682 float
-0.846019 0.225 -1.885
-0.785 0.355 1.99049
-0.755 0.835 -1.8475
-0.515 1.50996 1.775
0.846019 0.225 -1.885
0.785 0.355 1.99049
0.755 0.835 -1.84751
0.515 1.50996 1.775
-0.800908 0.293104 -0.59317
-0.817975 0.299032 0.69866
-0.740249 1.12524 -0.64
-0.659983 1.34996 0.5675
0.800902 0.293111 -0.59317
0.817973 0.299034 0.69866
0.74018 1.12517 -0.640007
0.65998 1.34995 0.567497
-1.60348 -0.318527 -2.85553
-1.60409 -0.188505 -1.85584
-1.5608 -0.138775 -0.561833
-1.52549 -0.165337 0.749149
-1.48756 -0.136575 2.04459
-1.48554 -0.0520026 3.05128
-1.49939 0.0569569 4.04501
-1.6059 0.0587146 -2.8671
-1.6056 0.213003 -1.87662
-1.55257 0.309872 -0.599021
-1.50432 0.335622 0.68617
-1.4421 0.393216 1.96539
-1.46107 0.479568 2.97089
-1.48984 0.583408 3.96737
-1.56767 0.764268 -2.86657
-1.539 0.910239 -1.8726
-1.49068 1.1573 -0.652489
-1.37928 1.35684 0.561648
-1.25939 1.5005 1.78338
-1.36396 1.57823 2.79236
-1.45217 1.65849 3.80244
-1.52169 2.00533 -2.92918
-1.50263 2.1801 -1.94784
-1.47145 2.47388 -0.755068
-1.4233 2.7733 0.419528
-1.38939 2.99732 1.61318
-1.40925 3.11711 2.59636
-1.45453 3.20834 3.59723
-0.824066 -0.310792 -2.86097
-0.828106 -0.174621 -1.86378
-0.794466 -0.143334 -0.560769
-0.788062 -0.194066 0.759809
-0.773688 -0.169545 2.06323
-0.784781 -0.0750138 3.06392
-0.799952 0.0422375 4.05233
-0.832216 0.0560771 -2.86878
-0.792104 0.461217 2.98132
-0.80588 0.571976 3.97289
-0.802732 0.730434 -2.85614
-0.716636 1.57865 2.79069
-0.78729 1.65695 3.80209
-0.768097 1.97642 -2.91887
-0.756104 2.14995 -1.93648
-0.745192 2.45834 -0.748222
-0.72757 2.77636 0.418705
-0.716514 3.00831 1.60731
-0.739169 3.12676 2.5905
-0.778139 3.21479 3.59297
0.787129 -0.310799 -2.86098
0.814801 -0.174624 -1.86378
0.801677 -0.143332 -0.560769
0.80743 -0.194065 0.759809
0.773295 -0.169545 2.06323
0.679642 -0.0750148 3.06392
0.626915 0.0422356 4.05233
0.779514 0.0560705 -2.86878
0.628977 0.461216 2.98132
0.592154 0.571974 3.97289
0.750639 0.730425 -2.85615
0.536245 1.57865 2.79069
0.548731 1.65695 3.80209
0.745001 1.9764 -2.91887
0.740433 2.14993 -1.93649
0.710823 2.45831 -0.748227
0.656869 2.77634 0.418702
0.605491 3.0083 1.60731
0.58245 3.12675 2.59049
0.568543 3.21478 3.59297
1.58297 -0.318547 -2.85554
1.60713 -0.188522 -1.85585
1.5811 -0.138785 -0.561835
1.55916 -0.165339 0.749147
1.50292 -0.136577 2.04459
1.41385 -0.0520055 3.05128
1.35376 0.0569519 4.04501
1.57747 0.058694 -2.86711
1.61293 0.21298 -1.87663
1.56769 0.309854 -0.599024
1.52942 0.33562 0.686169
1.4578 0.393215 1.96539
1.36019 0.479565 2.97089
1.31318 0.583403 3.96737
1.53879 0.764241 -2.86658
1.54584 0.910201 -1.87261
1.50108 1.15723 -0.652498
1.39487 1.35683 0.561643
1.26319 1.5005 1.78337
1.24284 1.57822 2.79236
1.25014 1.65848 3.80244
1.50352 2.00529 -2.92919
1.49149 2.18005 -1.94785
1.44657 2.47384 -0.755077
1.36935 2.77327 0.419522
1.29665 2.9973 1.61318
1.26843 3.1171 2.59635
1.25908 3.20833 3.59722
-0.83935 0.53 -1.90509
0 0.221179 -1.88882
-0.839518 0.242998 -1.23909
-0.719967 0.93248 1.95271
0 0.354542 1.99095
-0.847719 0.280784 1.34458
0 0.939534 -1.95204
-0.719899 0.952392 -1.24375
0 1.54436 1.8094
-0.612177 1.45464 1.17125
0.839341 0.53 -1.90509
0.839395 0.24312 -1.23909
0.719992 0.93248 1.95274
0.847715 0.280789 1.34458
0.71991 0.952403 -1.24376
0.612132 1.4546 1.17125
-0.798375 0.307134 0.052745
-0.84854 0.70917 -0.616585
-3.32433e-06 0.220853 -0.59317
-0.843981 0.824494 0.63308
-9.19328e-07 0.221024 0.69866
-0.696991 1.23447 -0.03625
-3.46131e-05 1.31076 -0.640003
-1.59104e-06 1.58894 0.567498
0.798372 0.307138 0.052745
0.848526 0.709139 -0.616588
0.843983 0.824493 0.633078
0.69699 1.23447 -0.036255
-0.895424 0.619585 -1.24142
0.895425 0.619569 -1.24142
-1.66217e-06 0.2206 -1.23909
-1.73065e-05 1.06001 -1.24375
0 0.53 -2.20814
-0.850088 0.766832 0.00824749
0.850087 0.766816 0.00824499
-2.12183e-06 0.220945 0.052745
-1.81021e-05 1.56524 -0.0362525
-0.866134 0.878487 1.25791
0.866127 0.878487 1.25791
-4.59664e-07 0.251401 1.34458
-7.95522e-07 1.58262 1.17125
0 0.93248 2.1047
-0.836905 0.3775 -1.88927
-0.42301 0.221166 -1.88883
-0.836436 0.240331 -1.56204
-0.802303 0.64374 2.02142
-0.3925 0.359663 1.98583
-0.840256 0.293995 1.66753
-0.811788 0.6825 -1.89091
-0.3775 0.919919 -1.93242
-0.74798 0.904227 -1.54563
-0.607644 1.22122 1.85402
-0.2575 1.54015 1.80519
-0.599255 1.51797 1.47313
0.42301 0.221156 -1.88884
0.836894 0.3775 -1.88926
0.836436 0.240331 -1.56204
0.3925 0.358544 1.98695
0.802238 0.64374 2.02136
0.840709 0.293542 1.66753
0.3775 0.919948 -1.93246
0.811243 0.6825 -1.89037
0.747967 0.904214 -1.54563
0.2575 1.54015 1.80519
0.607643 1.22122 1.85402
0.599189 1.5179 1.47312
-0.800689 0.287576 -0.916128
-0.799111 0.30065 -0.270213
-0.838356 0.494321 -0.604878
-0.417779 0.222332 -0.59317
-0.846665 0.27609 1.02162
-0.803213 0.308045 0.375703
-0.865748 0.544378 0.66587
-0.427656 0.222692 0.69866
-0.71742 1.02616 -0.941875
-0.834223 0.937117 -0.628293
-0.710595 1.17183 -0.338125
-0.395777 1.26927 -0.640002
-0.634521 1.40074 0.869375
-0.776717 1.09959 0.60029
-0.697463 1.31119 0.265625
-0.380177 1.56982 0.567499
0.800692 0.287573 -0.916128
0.417774 0.222332 -0.59317
0.799116 0.300645 -0.270213
0.838352 0.494306 -0.604879
0.846577 0.276178 1.02162
0.427654 0.222692 0.69866
0.803205 0.308053 0.375703
0.86576 0.544372 0.665869
0.717433 1.02617 -0.941883
0.395722 1.26926 -0.640005
0.834237 0.937095 -0.628298
0.710588 1.17182 -0.338131
0.634525 1.40075 0.869373
0.380175 1.56982 0.567498
0.776813 1.09964 0.600288
0.697463 1.31119 0.265621
-0.894484 0.574793 -1.57325
-0.419675 0.53 -2.15106
-8.31083e-07 0.220553 -1.56395
0 0.37559 -2.13787
-0.893434 0.431292 -1.24025
-0.41976 0.220616 -1.23909
-0.857456 0.905484 1.60531
-0.359984 0.93248 2.07463
-2.29832e-07 0.275704 1.66776
0 0.643511 2.21488
-0.895131 0.579635 1.30124
-0.42386 0.262306 1.34458
-8.65327e-06 1.00523 -1.5979
0 0.734767 -2.09992
-0.88646 0.785989 -1.24258
-0.359958 1.04243 -1.24375
-3.97761e-07 1.5665 1.49032
0 1.23842 2.00527
-0.743082 1.16657 1.21458
-0.306089 1.56999 1.17125
0.894484 0.574785 -1.57325
0.41967 0.53 -2.15301
0.893434 0.431345 -1.24025
0.419697 0.220616 -1.23909
0.857172 0.905483 1.60532
0.359996 0.93248 2.07378
0.895139 0.579638 1.30124
0.423857 0.262112 1.34458
0.886416 0.785986 -1.24259
0.359946 1.04243 -1.24376
0.743096 1.16654 1.21458
0.306066 1.57 1.17125
-0.855508 0.521345 0.0304962
-0.419953 0.222511 0.052745
-0.827428 0.664378 -0.929001
-0.854173 0.738001 -0.304169
-2.49325e-06 0.22081 -0.916128
-2.72308e-06 0.220909 -0.270213
-0.842131 0.795663 0.320664
-0.860857 0.85149 0.945496
-1.52058e-06 0.220999 0.375703
-6.89496e-07 0.228989 1.02162
-0.811868 1.01982 -0.0140013
-0.417816 1.53848 -0.0362512
-2.59598e-05 1.07306 -0.941879
-2.63576e-05 1.50702 -0.338128
-9.84656e-06 1.58253 0.265623
-1.19328e-06 1.58596 0.869374
0.855576 0.521304 0.030495
0.41995 0.222511 0.052745
0.82743 0.664354 -0.929005
0.85417 0.737977 -0.304172
0.842126 0.795655 0.320662
0.86086 0.85149 0.945495
0.810825 1.01929 -0.014005
0.417797 1.53848 -0.0362538
-0.893558 0.404396 -1.56765
-0.834123 0.466214 -0.922564
-0.856973 0.851596 -0.935438
-0.89549 0.734244 -1.55944
0.893561 0.404422 -1.56765
0.89549 0.734243 -1.55944
0.856981 0.851569 -0.935444
0.834125 0.466235 -0.922566
-0.421385 0.220562 -1.563
0.421353 0.220562 -1.563
0.410073 0.220831 -0.916128
-0.410108 0.220809 -0.916128
-0.368729 0.989529 -1.57176
-0.36505 1.06154 -0.941877
0.365009 1.06154 -0.941881
0.368723 0.989521 -1.57177
-0.421342 0.376545 -2.15445
-0.398587 0.708633 -2.102
0.398585 0.708633 -2.08962
0.42134 0.376545 -2.15452
-0.851788 0.505405 -0.287191
-0.857394 0.534479 0.348183
-0.799038 1.06208 0.293144
-0.824835 0.979361 -0.321147
0.85177 0.505402 -0.287192
0.824853 0.979352 -0.321151
0.799025 1.06207 0.293141
0.8574 0.534472 0.348182
-0.418864 0.222426 -0.270213
0.41886 0.222426 -0.270213
0.423801 0.222604 0.375703
-0.423803 0.222604 0.375703
-0.441373 1.47303 -0.338127
-0.401903 1.55996 0.265624
0.401893 1.55996 0.265622
0.441353 1.47306 -0.338129
-0.885649 0.570699 0.983557
-0.886778 0.611688 1.63642
-0.724383 1.19389 1.53922
-0.757099 1.1269 0.907436
0.885649 0.570701 0.983556
0.757057 1.12688 0.907434
0.724397 1.19388 1.53922
0.886779 0.611689 1.63643
-0.416424 0.241739 1.02162
0.416421 0.241729 1.02162
0.408179 0.277171 1.66765
-0.40818 0.278963 1.66765
-0.31804 1.57218 0.869374
-0.281794 1.55742 1.48172
0.281783 1.55742 1.48172
0.318027 1.57219 0.869373
-0.376242 0.643626 2.16959
0.376248 0.643626 2.16958
0.308748 1.22982 1.96409
-0.308742 1.22982 1.96409
-0.839641 0.30125 -1.88531
-0.634514 0.221154 -1.88885
-0.83497 0.238924 -1.72352
-0.7892 0.49937 2.0015
-0.58875 0.354505 1.99099
-0.820538 0.316588 1.82901
-0.78188 0.75875 -1.86769
-0.56625 0.879554 -1.89206
-0.759344 0.877467 -1.69656
-0.533357 1.36559 1.78654
-0.38625 1.53254 1.79758
-0.568419 1.52526 1.62406
0.634514 0.221145 -1.88886
0.839694 0.30125 -1.88537
0.834969 0.238924 -1.72352
0.58875 0.35458 1.99091
0.789213 0.49937 2.00152
0.820422 0.316704 1.82901
0.56625 0.879657 -1.89217
0.781984 0.75875 -1.8678
0.759386 0.877509 -1.69657
0.38625 1.53255 1.79759
0.533372 1.36559 1.78656
0.568368 1.5252 1.62406
-0.80076 0.290378 -0.754649
-0.800079 0.296808 -0.431691
-0.805448 0.400805 -0.599024
-0.626722 0.222961 -0.59317
-0.849566 0.270314 0.860139
-0.807585 0.306547 0.537181
-0.830156 0.427557 0.682265
-0.641578 0.223336 0.69866
-0.721119 1.06798 -0.790938
-0.77167 1.02339 -0.634146
-0.716735 1.13985 -0.489063
-0.585815 1.23286 -0.640001
-0.647107 1.3752 0.718438
-0.712544 1.22187 0.583895
-0.670485 1.32234 0.416563
-0.562938 1.5456 0.5675
0.800765 0.290374 -0.754649
0.626718 0.222961 -0.59317
0.800084 0.296803 -0.431691
0.805385 0.400829 -0.599025
0.846577 0.273303 0.860139
0.641577 0.223336 0.69866
0.807585 0.306547 0.537181
0.830077 0.427598 0.682265
0.720907 1.06777 -0.790945
0.585779 1.23287 -0.640006
0.77169 1.02337 -0.634152
0.716741 1.13985 -0.489069
0.647114 1.37521 0.718435
[...]
POINT_DATA 3682
SCALARS point_scalars float 1
LOOKUP_TABLE default
-126.576
-54.3756
-78.6967
-45.8159
-126.367
-54.3808
-79.6056
-45.109
-39.2196
-33.4155
-93.0627
-55.4648
-39.1964
-33.594
-92.9256
-55.2983
-62.0637
-123.761
-39.2031
-44.0804
-57.707
-54.3559
-46.293
-60.0727
-117.618
-40.2885
-36.7459
-54.2271
-48.9071
-45.4416
12.4819
-107.035
-58.6789
-50.0019
-47.5952
-43.0108
-41.8085
-67.8252
-72.9632
-115.313
-66.03
-48.9278
-46.0121
-46.0121
-24.6729
-141.984
-40.1598
-46.9128
-54.3236
-47.8704
-45.7916
-24.6729
-45.397
-45.1593
153.116
-38.9736
-37.7048
21.9529
-42.816
-91.9544
-67.9975
-47.7446
-43.4936
-43.0911
-26.0818
-145.173
-40.1416
-45.6748
-54.1431
-45.638
-46.1081
-26.0818
-45.0431
-45.3887
156.493
-35.9019
-34.8611
13.6865
-45.7392
-87.1844
-68.0066
-46.7081
-42.178
-42.178
-62.0659
-123.478
-39.1911
-43.2228
-57.4927
-54.446
-45.4729
-44.1132
-118.084
-40.2584
-36.1422
-53.9435
-47.2678
-44.5905
12.6706
-107.258
-58.5093
-49.4227
-46.9783
-41.9049
-40.2678
-64.2412
-73.7947
-115.224
-65.9136
-48.3947
-45.3155
-45.3155
-86.2602
-118.242
-57.7745
-44.3714
-50.905
-52.2425
-81.7427
-37.2543
-40.9546
-48.5692
-85.6459
-57.6499
-43.8774
-52.1322
-37.269
-48.3339
-37.1897
-45.7955
-44.8765
-42.7199
-46.9803
-67.9376
39.5866
-67.4591
-37.1591
-45.7518
-42.6042
-67.8273
-62.1881
-62.1722
-61.3613
2.46104
204.12
-46.2086
-46.1393
-41.5793
-99.5156
-48.7048
-48.4239
-52.68
-52.6074
-41.5217
-89.3174
-120.811
-76.5572
-49.1456
-51.1045
-60.7039
-64.031
-89.3482
-56.9943
-41.3128
-42.3387
-49.6079
-120.808
-85.5963
-76.568
-50.9137
-48.8075
-60.6079
-90.1784
-62.9801
-57.044
-41.8371
-40.6609
-49.1974
-48.9355
-37.8753
-40.2396
-43.6913
-48.4325
-35.7343
-36.4528
-47.075
-32.505
-61.6934
-78.941
32.512
-49.7921
-51.3415
-61.4512
-65.0435
-48.9085
-43.6794
-37.8536
-40.213
-48.3706
-47.0477
-35.7305
-36.3857
-32.485
32.6853
-61.6218
-78.8522
-49.6267
-64.9703
-51.1979
-61.2854
-88.6443
181.912
-80.809
185.772
-62.7134
-60.004
-53.562
-41.1489
-55.284
-44.6644
-51.5059
-51.5066
-25.028
148.91
-61.5158
-4.20552
-46.732
-33.2812
-48.0746
-52.2131
-88.658
182.165
-62.7038
-60.0006
-53.0699
-40.7899
-51.2513
-51.4266
-61.4677
-4.22639
-47.7988
-51.9385
-40.0643
-40.5537
-49.5172
-47.4468
-50.9153
-41.9357
-43.6419
-45.0632
-43.3066
-52.0946
-57.2199
-94.3879
25.816
-91.3045
-79.4291
-58.0421
-40.028
-40.5409
-49.4804
-47.3941
-43.5656
-44.8714
-56.9996
-94.2823
-87.9726
-48.6727
-53.747
-87.3211
-88.0425
-87.4091
-53.698
-48.6298
-79.4543
-79.4522
-49.7055
-49.7183
-28.1249
16.5655
16.5945
-28.2071
138.161
136.962
132.596
138.169
-40.633
-38.1074
-54.9209
-61.5743
-40.6006
-61.5039
-54.7728
-38.0729
-40.8601
-40.8487
-42.3083
-42.3252
-76.2298
-75.3238
-75.2677
-76.241
-43.1035
-56.2015
-47.9295
-49.9784
-42.9123
-49.6957
-47.4497
-55.8209
-50.5597
-50.1986
-55.7362
-55.6903
-56.8122
-47.1455
-46.9273
-56.7201
-44.1656
-44.065
-36.3065
-37.0485
-88.8316
-128.032
-99.2549
-50.4673
-51.5958
-57.6122
-56.5502
-77.3347
-75.2602
-41.4673
-42.7552
-49.7014
-128.022
-84.7132
-99.2799
-51.4876
-50.183
-57.4158
-77.2993
-55.1958
-75.4731
-42.1399
-40.8215
-49.1037
-40.3971
-38.1127
-39.3552
-41.8988
-45.5487
-34.8894
-33.8708
-46.421
-49.4266
-75.7525
-88.9478
-0.940118
-52.7689
-52.9959
-60.9762
-60.394
-40.3673
-41.8811
-38.094
-39.3293
-44.7309
-46.3592
-34.9056
-33.8696
-49.2805
-0.978547
-75.6758
-88.8727
-52.6
-60.2691
-52.8328
-60.8179
-89.766
-67.9531
-116.435
121.005
-118.417
-118.416
-97.4683
-44.7744
-64.1683
-54.6649
-61.8921
-58.49
-44.5361
-42.6714
-52.1671
-41.9682
-50.9635
-50.8967
-54.6273
-45.595
-52.7208
-49.806
-51.8956
-50.998
-76.7471
-76.8986
-43.9919
96.3558
-46.4475
-29.2904
-56.1251
-14.3494
-41.3757
-41.1062
-43.8228
-36.1094
-44.7695
-51.0323
-48.4743
-51.2523
-88.5195
-67.5539
-116.46
120.617
-64.1774
-54.5486
-61.9553
-58.4888
-44.0811
-42.0523
-51.6271
-41.5118
-52.5565
-49.7377
-51.6731
-50.932
-46.4816
-29.2943
-56.0706
-14.3845
-44.5447
-50.8295
-48.1938
-51.1168
-37.6723
-35.9886
-38.3047
-39.1985
-42.6182
-52.3033
-45.3789
-47.1133
-44.5682
-44.5619
-47.5627
-43.1394
-38.9676
-46.5707
-42.8335
-42.7372
-46.9522
-46.9396
-44.9085
-49.5736
-73.5978
-62.7879
-62.1125
-82.7659
38.5017
38.7446
43.1089
-6.20141
-66.9674
-66.9318
-73.2766
-62.1439
-37.6458
-35.96
-38.2713
-39.1796
-42.5858
-52.2474
-45.3415
-47.0662
-38.8638
-46.4485
-42.7409
-42.6006
-73.505
-62.8155
-61.9792
-82.5953
-71.3192
-62.6668
-61.9262
-57.9189
-71.3177
-62.6516
-61.9038
-57.8599
-69.3642
-61.0071
-61.004
-55.4399
-11.1405
1.01958
1.01696
14.9451
202.239
175.303
194.434
202.436
-43.3072
-47.4531
-44.5898
-50.1918
-43.2517
-47.3946
-44.5201
-50.0804
-41.328
-41.4958
-42.1818
-41.3212
-98.7609
-112.314
-88.8921
-98.7246
-51.0459
-50.5894
-47.9677
-47.468
-50.6846
-50.3094
-47.6874
-47.2349
-53.7478
-52.4753
-52.448
-52.4415
-49.7341
-52.3879
-52.3529
-54.8921
-41.4303
-42.4436
-34.1721
-41.2619
-116.425
88.3913
-97.5546
-35.3563
-85.7372
-77.8243
-53.1078
-44.825
-55.7176
-45.2602
-59.799
-56.6051
-108.442
68.8518
-47.7118
98.3079
-73.3359
-38.9973
-47.9299
-39.0083
-44.3263
-38.2962
-47.6552
-47.6853
-97.5479
-35.4115
-116.53
85.962
-85.8362
-77.8252
-55.5771
-45.1454
-52.7902
-44.7038
-59.5387
-56.5157
-47.8901
97.8737
-108.761
67.4696
-73.3175
-39.0661
-44.0226
-37.7573
-47.2704
-38.3491
-47.1882
-47.3864
-47.7283
-48.319
-39.1103
-39.4448
-41.9521
-40.3171
-46.2584
-41.8544
-45.5277
-48.1701
-36.6813
-40.6544
-36.5407
-38.3796
-44.2137
-50.0631
-47.9079
2.67842
-56.5561
-62.4757
-69.3771
-108.043
28.8648
-1.25619
-49.018
-55.2691
-53.8575
-50.0439
-58.789
-69.0336
-70.3149
-60.3418
-47.6767
-48.2919
-46.2446
-41.8432
-39.0839
-39.4288
-41.9201
-40.2888
-45.2939
-48.0456
-44.1917
-50.2212
-36.665
-40.6342
-36.4908
-38.2412
-47.8867
2.66637
28.6883
-1.15846
-56.4843
-62.4095
-69.2401
-107.997
-48.8313
-55.146
-70.2503
-60.2626
-53.7087
-49.9077
-58.7508
-68.9289
-88.8323
-87.156
177.537
160.958
-80.3574
-80.3542
184.127
184.086
-71.1058
-57.7704
-67.9895
-54.2281
-55.3057
-49.8577
-42.8098
-36.9753
-55.4028
-55.4315
-44.8211
-44.7521
-49.9572
-55.1741
-51.0145
-53.1448
-25.5169
-25.5569
162.794
162.171
-56.585
-68.416
-16.061
6.19988
-46.9094
-46.7936
-34.3017
-34.8739
-47.4588
-46.1557
-54.0106
-49.7525
-88.8633
-87.1733
160.099
178.131
-71.1272
-57.7162
-67.9881
-54.2206
-49.3639
-54.8826
-42.6096
-36.2269
-49.7298
-54.8594
-50.9785
-53.0744
-68.3816
-56.5205
6.1989
-16.1102
-45.9729
-47.1115
-49.5304
-53.8754
-40.7244
-38.7896
-40.4542
-41.1427
-49.1038
-52.1349
-43.8736
-52.4934
-50.6001
-50.606
-41.7018
-41.6957
-40.9248
-47.5893
-42.4651
-49.1353
-43.0364
-43.0452
-51.8051
-51.7623
-51.2246
-58.9355
-108.761
-84.6186
23.131
23.1467
-88.667
-88.6756
-78.4397
-78.4138
-57.8732
-57.8239
-40.6844
-38.7455
-40.4423
-41.1284
-52.0948
-49.0673
-43.8281
-52.4325
-47.4943
-40.8617
-42.2862
-48.9228
-58.9208
-51.1911
-84.5759
-108.882
-111.836
-69.4976
-71.5651
-118.628
-41.3723
-42.8991
-57.8265
-57.9816
-63.491
-52.9222
-58.4919
-50.7521
-93.0908
-115.112
-70.2481
-60.2037
-112.149
-118.684
-71.5712
-69.5346
-93.567
-60.2152
-70.2377
-115.216
-63.3655
-50.6995
-58.4202
-52.8725
-41.3386
-57.928
-57.7635
-42.8669
-98.0327
-97.5455
-69.0334
-65.884
-98.0331
-65.8835
-69.0307
-97.5391
-44.2335
-47.1163
-55.1124
-53.1361
-44.2577
-53.1479
-55.1168
-47.1226
-55.9734
-24.9919
-11.6746
-43.7601
10.9384
39.9616
12.4052
-5.51946
10.966
-5.53358
12.4167
40.0476
-56.1782
-44.0221
-11.6929
-25.0516
14.8321
96.7368
178.488
-21.3113
10.2556
103.252
183.843
101.494
8.70343
101.42
183.541
104.169
15.2277
-19.6004
178.746
97.7259
-39.1307
-38.8605
-44.2755
-43.5727
-35.1312
-39.8361
-41.9344
-37.2165
-57.5706
-56.1174
-47.1458
-47.0142
-74.8033
-52.8825
-51.9665
-65.9678
-39.1069
-43.5331
-44.2254
-38.8299
-74.7195
-65.8878
-51.9008
-52.8287
-57.4205
-46.9092
-47.081
-55.9274
-35.1204
-37.1805
-41.8757
-39.7603
-40.2742
-42.7635
-41.2367
-39.1366
-40.2585
-39.1193
-41.2303
-42.7574
-42.492
-44.7608
-41.9307
-39.6506
-42.5163
-39.6703
-41.9383
-44.7719
-66.6448
-104.323
-112.902
-4.11262
-66.0896
-72.7251
-87.7987
-75.6629
-65.9723
-75.5829
-87.7713
-72.6941
-66.4175
-4.08326
-112.877
-104.126
-35.6961
-50.8008
-48.2755
-39.8874
-54.6466
-52.0594
-53.4225
-55.7742
-48.5948
-46.8459
-48.7448
-49.4523
-51.027
-46.7301
-45.2453
-48.5224
-35.5267
-39.7556
-48.0492
-50.5977
-50.848
-48.3138
-45.0636
-46.5872
-47.9248
-48.8412
-48.3908
-46.5256
-54.3438
-55.5139
-53.0802
-51.567
-53.0373
-49.4683
-52.1749
-49.6047
-52.8488
-49.541
-52.1479
-49.4527
-56.6874
-54.851
-53.6672
-52.6462
-56.8613
-52.7329
-53.698
-54.8592
-55.547
-52.7482
-54.6753
-61.621
-45.4733
-43.9723
-49.7658
-49.4236
-45.0619
-49.2292
-49.6945
-43.8096
-55.4122
-61.5791
-54.612
-52.6066
-45.3579
-45.5649
-42.521
-42.3782
-45.1921
-42.0158
-42.3993
-45.5264
-38.9542
-36.5527
-34.8512
-38.7741
-39.5487
-39.5015
-35.3009
-36.9012
-95.8333
-139.32
-140.849
-51.7804
-52.2703
-54.3419
-63.5293
-75.8149
-93.5543
-42.0768
-43.652
-47.6325
-138.854
-92.394
-141.341
-52.0127
-51.4765
-54.0896
-75.6669
-63.081
-94.3128
-42.9946
-41.3916
-46.9772
-39.7116
-38.3545
-39.1147
-40.6186
-30.4537
-33.6597
-33.4552
-42.2454
-72.9251
-88.7481
-102.169
-61.8617
-54.0589
-54.216
-57.003
-56.9909
-39.6939
-40.6014
-38.3331
-39.0894
-31.214
-42.2418
-33.7239
-33.5157
-72.7624
-61.7026
-88.63
-102.062
-53.8894
-56.8313
-54.0533
-56.8468
-87.012
-74.9522
-123.01
34.6611
-118.289
-118.293
-110.362
-126.138
-60.3354
-55.0985
-60.3658
-57.593
-44.6382
-43.7155
-49.8966
-42.6568
-50.8827
-50.8509
-52.755
-46.7341
-53.4594
-49.9428
-51.9398
-51.4573
-81.738
-81.8217
-58.3519
56.3144
-42.8219
-31.6906
-47.8745
-25.3388
-41.0837
-40.9531
-42.1495
-37.5088
-46.6543
-48.4193
-48.4822
-50.1306
-86.2098
-74.5691
-122.838
33.8257
-60.3602
-55.3227
-60.3774
-57.5998
-44.1822
-43.0732
-49.3338
-42.2198
-53.3368
-49.8479
-51.7497
-51.388
-42.8397
-31.6999
-47.8941
-25.3648
-46.3997
-48.2235
-48.2213
-49.901
-37.6024
-36.7969
-37.9933
-37.3573
-43.8915
-48.6181
-45.1134
-46.5796
-44.8072
-44.804
-46.0473
-43.8708
-40.7439
-44.1483
-42.5628
-42.9553
-46.9706
-46.9639
-45.8797
-48.2164
-70.6548
-65.2495
-64.2332
-74.1986
38.9376
38.9041
47.4677
22.4846
-67.3518
-67.3337
-70.5942
-64.5885
-37.5757
-36.7626
-37.9598
-37.3312
-43.8542
-48.5693
-45.0754
-46.5337
-40.6374
-44.0322
-42.4599
-42.8258
-70.5505
-65.1381
-64.1145
-74.1028
-65.5564
-62.5826
-61.8159
-60.0093
-65.5444
-62.569
-61.7966
-59.9549
-64.515
-61.2774
-61.2756
-58.0288
-3.69649
2.14715
2.14819
7.93242
203.457
189.453
202.011
203.514
-44.3396
-47.0778
-45.253
-48.0299
-44.2767
-47.0113
-45.1833
-47.9481
-41.5221
-41.4578
-41.8121
-41.5185
-99.4878
-105.568
-94.5166
-99.4689
-49.7138
-49.8487
-47.9603
-47.7004
-49.3838
-49.5608
-47.68
-47.4482
-53.1414
-52.6363
-52.6223
-52.3468
-51.2788
-52.4702
-52.4506
-53.6374
-41.6113
-42.5191
-38.5401
-41.5321
-90.6071
-89.5374
-127.575
16.5875
-124.82
-119.146
-111.456
-131.634
-86.5624
-69.3779
-81.98
-76.4002
-49.8239
-46.3516
-51.4492
-45.3664
-51.3089
-50.962
-53.7869
-46.1376
-58.3398
-55.0548
-61.4057
-57.1183
-58.3304
-56.9153
-96.9215
3.25906
-80.072
-81.0494
-62.9633
28.9468
-65.5644
-50.7581
-67.1506
-46.7815
-41.075
-41.4506
-46.3634
-39.8269
-42.6655
-41.7898
-42.799
-39.2466
-49.5322
-46.573
-48.1605
-48.7004
-124.814
-119.147
-111.445
-131.734
-86.738
-88.184
-128.709
17.7934
-86.5877
-69.3843
-82.0628
-76.4113
-51.1091
-50.8614
-53.5659
-45.9827
-49.5182
-45.956
-51.1766
-45.1724
-58.2688
-54.8071
-61.1518
-57.028
-81.6667
-81.7732
-63.2297
28.0389
-56.8491
-56.3383
-96.8362
3.56576
-65.7316
-50.821
-67.138
-46.843
-42.0993
-41.3957
-42.4289
-38.6906
-40.4325
-40.8029
-45.6289
-39.2084
-49.0359
-46.2545
-47.6998
-48.3632
-42.3888
-55.6148
-47.5997
-46.6472
-38.1179
-37.8513
-38.6537
-37.6891
-39.7427
-41.1697
-40.6732
-40.0446
-42.95
-44.1662
-44.942
-42.6182
-51.4542
-49.6692
-47.0787
-48.046
-35.4831
-35.8867
-36.1254
-38.0285
-34.5185
-37.9597
-36.1777
-37.4389
-46.9303
-47.0323
-45.5064
-49.7477
-33.0703
-29.4106
-43.0498
-10.2815
-67.7214
-56.976
-59.1975
-62.2343
-82.2343
-76.3216
-73.0574
-101.361
22.1537
36.8468
35.3949
16.8301
-51.6896
-51.2985
-48.5417
-55.1314
-51.9327
-49.3637
-51.9709
-50.3837
-64.9432
-60.0521
-59.6216
-64.4927
-63.6778
-66.059
-67.9603
-62.4916
-42.3583
-55.1568
-47.5649
-46.5966
-42.9351
-44.157
-44.9293
-42.6067
-38.0953
-37.8277
-38.6284
-37.6692
-39.7153
-41.1443
-40.6452
-40.0126
-50.3181
-49.6088
-46.8354
-48.0303
-46.8836
-47.0137
-45.4807
-49.7287
-35.4849
-35.8563
-36.1183
-38.0087
-34.4833
-37.8578
-36.1231
-37.3375
-33.0918
-29.3997
-43.0019
-10.2969
22.2732
36.9449
35.4904
16.9979
-67.6507
-56.9071
-59.1186
-62.1561
-82.1524
-76.2325
-72.9713
-101.308
-51.5163
-51.1141
-48.3747
-54.974
-63.5862
-66.0029
-67.8908
-62.4157
-51.7819
-49.233
-51.8068
-50.2311
-64.7932
-59.6178
-59.6261
-64.3536
-100.352
-79.0212
-88.8055
-87.5057
161.708
193.001
183.763
172.261
-88.2147
-74.5329
-80.6084
-80.6067
63.7662
178.033
187.87
187.95
-62.2517
-62.7711
-65.9597
-60.098
-59.2952
-60.5713
-63.6303
-56.9214
-52.9665
-52.6987
-54.861
-51.5156
-41.2965
-41.7547
-42.0455
-39.1801
-55.8127
-54.5447
-55.2963
-55.3136
-45.7512
-42.1531
-44.46
-44.4531
-51.8542
-51.0995
-50.5641
-52.8249
-51.0935
-52.1364
-50.884
-52.005
-32.393
-17.631
-25.005
-25.0234
139.797
170.124
163.043
162.875
-58.8493
-62.1686
-58.814
-65.0756
-8.71153
-0.992558
-10.1169
1.09194
-45.2883
-48.2349
-46.8143
-46.7551
-34.9493
-32.6636
-33.5975
-33.9055
-48.5125
-46.8236
-49.3986
-45.1185
-51.637
-52.2323
-53.107
-50.5077
-100.361
-79.0317
-88.8267
-87.5192
162.209
193.211
171.759
184.243
-62.2382
-62.7577
-65.9657
-60.0531
-59.2917
-60.5676
-63.6281
-56.9159
-52.4377
-52.3066
-51.0246
-54.386
-40.829
-41.5311
-41.7835
-38.6599
-51.6142
-50.8316
-50.3248
-52.5461
-51.0283
-52.0952
-50.86
-51.9664
-58.8171
-62.1326
-65.0435
-58.7632
-8.74272
-1.00315
1.08051
-10.1524
-48.2292
-46.569
-44.9224
-49.0423
-51.5759
-52.1998
-50.8252
-52.7854
-38.7973
-41.8588
-40.376
-39.3989
-39.9543
-40.999
-40.4274
-40.7883
-46.2593
-54.6821
-48.9048
-50.5882
-47.3424
-47.3598
-45.2801
-49.8407
-49.0079
-53.053
-50.8434
-50.8462
-42.4452
-41.6589
-41.9156
-41.9123
-43.2724
-44.1339
-42.1174
-45.1711
-43.4092
-46.671
-44.0367
-46.4248
-44.002
-42.6308
-43.1809
-43.1858
-51.3859
-52.171
-51.9776
-51.959
-60.095
-54.0626
-54.5409
-58.108
-90.6876
-97.2001
-101.871
-89.4562
32.2921
21.0002
24.7773
24.7853
-46.6725
-108.795
-91.4856
-91.4386
-75.8102
-83.9468
-79.428
-79.4171
-59.9612
-56.3679
-57.9982
-57.9731
-38.7627
-41.8133
-40.3318
-39.3623
-39.9446
-40.9891
-40.415
-40.7748
-46.2246
-54.6411
-50.5527
-48.8676
-47.292
-47.306
-45.233
-49.7835
-43.1899
-44.0629
-45.0894
-42.0475
-43.2483
-46.4661
-43.8466
-46.2308
-59.9027
-53.911
-58.1229
-53.8272
-90.2156
-97.1471
-89.402
-101.772
-100.273
-86.9876
-88.9615
-78.1805
-48.1796
-44.5094
-54.1948
-48.897
-52.9881
-54.6141
-54.6059
-53.8319
-104.192
-83.5177
-87.7125
-75.6425
-100.432
-87.0744
-89.0143
-78.221
-104.113
-83.5816
-87.7384
-75.6744
-52.9318
-54.5701
-54.5381
-53.7815
-48.1287
-44.472
-54.1506
-48.8574
-87.4035
-78.7912
-79.9632
-73.1803
-87.4002
-78.7899
-79.9601
-73.179
-49.0663
-47.8495
-51.8385
-50.2167
-49.0847
-47.8639
-51.848
-50.2259
-37.2028
-31.8976
-26.3011
-22.6028
11.3124
20.9451
11.7605
21.206
11.3267
20.9952
11.7738
21.252
-37.3325
-31.9892
-26.3618
-22.6705
116.052
81.8601
168.6
185.271
106.378
79.1335
157.201
164.581
83.7892
109.68
163.287
156.143
81.7589
117.286
185.233
168.667
-39.7293
-40.4771
-40.3584
-42.4679
-37.3481
-37.391
-38.4259
-39.5955
-54.9063
-56.7168
-51.2229
-53.3444
-62.495
-65.9181
-56.084
-60.1712
-39.7018
-40.4501
-40.3218
-42.4212
-62.4255
-65.8954
-56.0143
-60.1312
-54.7667
-56.5845
-51.1058
-53.4265
-37.3247
-37.3538
-38.3838
-39.545
-40.2181
-41.2827
-40.5921
-41.3358
-41.2714
-40.2043
-41.3269
-40.5805
-43.1483
-41.6084
-42.7721
-41.6433
-41.6275
-43.1674
-41.6586
-42.7853
-79.1225
-36.3771
-111.561
-83.1107
-72.5374
-72.338
-79.3079
-77.1788
-72.2774
-72.4624
-77.1366
-79.26
-36.2526
-79.0972
-84.7281
-111.635
-44.0882
-40.7177
-47.4964
-42.4087
-55.5413
-57.6138
-55.4226
-55.1958
-48.9819
-47.4814
-49.5182
-46.2879
-49.2445
-49.6983
-48.0928
-51.0635
-43.8776
-40.5476
-47.283
-42.2293
-49.0537
-49.5292
-47.8814
-50.8634
-48.4007
-47.0108
-49.0023
-45.9057
-55.0928
-57.2834
-55.0396
-54.8575
-49.3976
-49.8503
-50.8219
-51.358
-49.2631
-49.6996
-50.7665
-51.2792
-56.8397
-56.1284
-55.6354
-54.4201
-56.7912
-56.1477
-55.6379
-54.6138
-56.1905
-58.4845
-55.3109
-57.3973
-45.7504
-47.3466
-47.0186
-48.4249
-45.4955
-47.085
-46.8487
-48.2348
-56.082
-58.4002
-55.204
-57.324
-43.9528
-45.259
-42.5509
-44.2392
-45.2123
-43.7666
-44.1656
-42.3173
-37.0191
-37.4905
-35.1837
-35.7869
-38.2073
-37.6363
-36.5971
-35.8382
-136.15
-9.75699
-116.242
-105.849
-107.73
-98.5018
-53.759
-45.9333
-54.5299
-46.8876
-54.8592
-57.5313
-94.3504
-2.98088
-68.9448
-42.8365
-85.4765
-65.2765
-47.0981
-40.3929
-44.2849
-40.2483
-49.8187
-46.8965
-116.251
-105.438
-138.375
-8.69454
-107.925
-98.5389
-54.3434
-46.7139
-53.4427
-45.6877
-54.6061
-57.391
-69.2215
-43.0975
-95.0603
-2.68886
-86.0727
-65.5745
-43.7907
-39.6041
-46.37
-39.78
-49.145
-46.4204
-41.2824
-40.7169
-38.7642
-38.3021
-40.0109
-39.1129
-42.8816
-40.9148
-34.871
-59.3699
-34.9073
-39.1556
-34.5353
-31.6376
-43.8155
-50.7464
-63.2352
-9.05231
-72.0713
-77.8838
-80.2329
-122.228
11.4754
-23.1485
-52.0321
-53.6863
-54.004
-51.9936
-59.2471
-62.9099
-63.4711
-57.6288
-41.2492
-40.686
-42.8615
-40.8983
-38.742
-38.2838
-39.9845
-39.0865
-35.3315
-58.7254
-43.7837
-50.6204
-34.9064
-39.1501
-34.5384
-31.6085
-63.0702
-9.10311
11.5551
-23.1636
-71.977
-77.7965
-80.1538
-122.045
-51.863
-53.5144
-63.3496
-57.4997
-53.8503
-51.8229
-59.0928
-62.7614
-123.893
18.3788
-116.404
30.4367
-115.319
-115.11
113.736
119.527
-110.345
-126.693
-110.338
-126.796
-97.6903
-97.6878
-39.2847
-39.2575
-67.4187
-64.7563
-57.9321
-53.4931
-64.6543
-59.1542
-61.8884
-55.6508
-49.4509
-42.6993
-48.3812
-40.6523
-52.6808
-50.9164
-42.6362
-40.7589
-52.9034
-46.8892
-52.8397
-46.8298
-54.5919
-54.6224
-45.6293
-45.6086
-55.2925
-52.7393
-50.1447
-49.6262
-51.0379
-53.2023
-49.5791
-51.7382
-58.9193
61.8949
-59.0481
62.5132
-43.4009
-43.4403
96.7149
97.1761
-55.2
-32.2911
-46.2038
-17.9744
-56.0972
-56.7978
-19.6672
-10.294
-42.3786
-38.0641
-42.1993
-37.7371
-43.9104
-43.8257
-36.2331
-36.4364
-47.1189
-48.601
-50.3629
-51.3137
-49.3674
-46.0746
-51.8666
-50.36
-123.887
15.1997
-116.258
30.3537
-115.331
-115.172
119.099
113.526
-67.4551
-64.7649
-57.8873
-53.5402
-64.6747
-59.0212
-61.8891
-55.645
-48.9784
-42.2886
-47.6936
-40.0307
-50.3448
-52.1607
-42.2623
-40.1471
-55.0439
-52.6378
-49.9831
-49.5937
-50.8269
-52.9627
-49.5171
-51.6629
-55.2143
-32.3651
-46.1728
-17.9796
-56.2611
-56.055
-10.3182
-19.7008
-46.8108
-48.3642
-50.1516
-50.9876
-45.8692
-49.0545
-50.2076
-51.7265
-38.5032
-37.4001
-36.997
-37.3795
-38.621
-37.8489
-39.1112
-39.3476
-42.2385
-43.1678
-50.9378
-52.7159
-44.1115
-47.3501
-44.9271
-49.7972
-45.7441
-43.6821
-45.7376
-43.6761
-47.4057
-47.4086
-42.957
-42.9537
-39.3574
-39.0029
-46.4349
-46.7438
-41.0217
-44.5055
-41.0159
-44.6933
-45.795
-48.1792
-45.7828
-48.1704
-44.8712
-44.8768
-49.5556
-49.5281
-69.0531
-84.8829
-60.2328
-67.3596
-58.7296
-64.3074
-90.6179
-79.3378
43.3195
23.1087
43.5623
23.17
42.2148
42.2636
-7.03405
-6.80064
-70.0508
-64.1277
-70.016
-64.0887
-73.1829
-73.1688
-62.0549
-62.0337
-38.4737
-37.3782
-36.9609
-37.3525
-38.5888
-37.8138
-39.093
-39.3281
-42.2124
-43.1254
-50.8797
-52.6597
-47.3059
-44.0775
-44.8845
-49.7451
-39.2689
-38.8905
-46.3227
-46.6067
-44.4068
-40.9382
-40.8822
-44.5512
-68.9608
-84.8063
-59.9339
-67.271
-64.2009
-58.5964
-79.2782
-90.4112
-71.5499
-70.7174
-66.202
-60.0588
-60.2368
-65.248
-57.863
-58.3328
-71.5518
-70.713
-66.1959
-60.0089
-65.2293
-60.1788
-58.2643
-57.7976
-69.3725
-69.3711
-64.74
-57.8518
-64.7379
-57.848
-55.3767
-55.3789
-11.2607
-11.2713
-5.60922
6.5038
6.50646
-5.61893
14.1728
14.1805
187.499
189.856
176.539