# vtk DataFile Version 2.0
tri_press
ASCII
DATASET UNSTRUCTURED_GRID
POINTS 3682 float
-0.575046 0.215 -2.035
-0.610738 0.365 2.105
-0.625 0.735 -1.94259
-0.555 1.015 2.0725
0.575051 0.215 -2.035
0.610743 0.365 2.105
0.625 0.735 -1.94259
0.555 1.015 2.0725
-0.708321 0.143622 -0.655
-0.769989 0.143852 0.725
-0.739333 0.965999 -0.604227
-0.728089 1.07142 0.734137
0.708326 0.143622 -0.655
0.769994 0.143852 0.725
0.739333 0.966 -0.604227
0.728113 1.07145 0.734137
-1.27416 -0.238964 -3.14488
-1.28443 -0.185169 -2.05755
-1.3869 -0.235268 -0.676476
-1.43807 -0.242927 0.71298
-1.35289 -0.0982599 2.09476
-1.32311 -0.00842625 3.18554
-1.33098 0.048751 4.26993
-1.27057 0.10745 -3.11364
-1.27922 0.194516 -2.03086
-1.40518 0.172817 -0.65789
-1.44275 0.16261 0.718833
-1.30043 0.29044 2.09261
-1.28795 0.376426 3.1828
-1.31353 0.434256 4.26854
-1.29283 0.736698 -3.03948
-1.31557 0.821113 -1.95498
-1.42657 0.976892 -0.610394
-1.41722 1.03774 0.731247
-1.26176 1.02815 2.07664
-1.2681 1.11 3.16855
-1.30665 1.1879 4.261
-1.33565 1.83862 -2.95955
-1.35556 1.9471 -1.88129
-1.39968 2.12555 -0.550196
-1.4163 2.24686 0.771921
-1.38799 2.28383 2.10345
-1.36742 2.31575 3.18262
-1.3647 2.36803 4.27052
-0.61068 -0.228575 -3.14756
-0.595257 -0.169943 -2.06147
-0.679456 -0.249903 -0.675951
-0.745261 -0.25486 0.718243
-0.687338 -0.0583456 2.10396
-0.664035 0.0199317 3.19179
-0.670265 0.0636583 4.27354
-0.609348 0.107963 -3.11447
-0.63589 0.405116 3.18795
-0.657837 0.447929 4.27126
-0.627026 0.702297 -3.03433
-0.620366 1.11259 3.16772
-0.654647 1.19179 4.26083
-0.653081 1.81541 -2.95446
-0.662186 1.92531 -1.87568
-0.698852 2.12251 -0.546815
-0.727997 2.25579 0.771515
-0.72064 2.28614 2.10055
-0.705451 2.31434 3.17972
-0.701488 2.36692 4.26842
0.652356 -0.228574 -3.14756
0.6533 -0.169943 -2.06147
0.724197 -0.249902 -0.675951
0.730221 -0.254859 0.718244
0.626523 -0.0583449 2.10396
0.629144 0.0199332 3.19179
0.638836 0.0636609 4.27354
0.631211 0.107964 -3.11447
0.619002 0.405117 3.18795
0.633977 0.447931 4.27126
0.644331 0.702298 -3.03433
0.599562 1.1126 3.16772
0.624342 1.19179 4.26083
0.694414 1.81541 -2.95446
0.706225 1.92531 -1.87568
0.704906 2.12251 -0.546815
0.664234 2.2558 0.771515
0.617234 2.28615 2.10055
0.611893 2.31435 3.17972
0.618723 2.36692 4.26842
1.30517 -0.238962 -3.14488
1.31269 -0.185167 -2.05755
1.40948 -0.235264 -0.676476
1.43801 -0.242921 0.71298
1.33222 -0.0982565 2.09476
1.30307 -0.00842194 3.18554
1.30648 0.0487564 4.26993
1.28125 0.107452 -3.11364
1.27134 0.194517 -2.03086
1.40117 0.172822 -0.65789
1.45178 0.162619 0.718833
1.31441 0.290443 2.09261
1.28512 0.37643 3.1828
1.29619 0.434261 4.26854
1.29771 0.7367 -3.03948
1.30417 0.821114 -1.95498
1.41803 0.9769 -0.610394
1.4219 1.03776 0.731247
1.27263 1.02816 2.07664
1.26019 1.11001 3.16855
1.28235 1.1879 4.261
1.36715 1.83863 -2.95955
1.38465 1.9471 -1.88129
1.39845 2.12556 -0.550197
1.36389 2.24687 0.77192
1.30473 2.28384 2.10345
1.28631 2.31576 3.18262
1.28827 2.36804 4.27052
-0.656238 0.475 -2.04501
2.5034e-06 0.21779 -2.03221
-0.631025 0.189969 -1.345
-0.57267 0.69 2.07855
2.5034e-06 0.317932 2.15207
-0.714778 0.230012 1.415
0 0.800392 -2.00798
-0.698334 0.866668 -1.27341
0 1.04091 2.09841
-0.680456 1.08212 1.40332
0.656242 0.475 -2.04501
0.631028 0.189971 -1.345
0.572771 0.69 2.07865
0.714615 0.230179 1.415
0.698301 0.866635 -1.27341
0.680563 1.08223 1.40332
-0.739154 0.143738 0.035
-0.851222 0.554811 -0.629613
2.5034e-06 0.141221 -0.655
-0.873865 0.607637 0.729568
2.5034e-06 0.141253 0.725
-0.742235 1.02724 0.064955
3.5298e-07 1.25926 -0.604227
1.20224e-05 1.43739 0.734137
0.739159 0.143738 0.035
0.851214 0.554811 -0.629613
0.873869 0.607649 0.729568
0.742235 1.02723 0.064955
-0.85959 0.514905 -1.3092
0.85959 0.514906 -1.3092
2.5034e-06 0.189586 -1.345
1.7649e-07 0.966764 -1.27341
1.2517e-06 0.475 -2.2337
-0.863115 0.581224 0.0499775
0.862982 0.58123 0.0499775
2.5034e-06 0.141237 0.035
6.18768e-06 1.43661 0.064955
-0.880346 0.648819 1.40916
0.880351 0.648825 1.40916
2.5034e-06 0.218101 1.415
6.01119e-06 1.26003 1.40332
1.2517e-06 0.69 2.13216
-0.618666 0.345 -2.04303
-0.287522 0.21172 -2.03828
-0.606978 0.198542 -1.69
-0.630264 0.5275 2.13034
-0.305368 0.322276 2.14772
-0.706378 0.253886 1.76
-0.636779 0.605 -1.98996
-0.3125 0.791614 -1.9992
-0.675344 0.81451 -1.608
-0.56531 0.8525 2.077
-0.2775 1.0356 2.0931
-0.613639 1.04447 1.73791
0.287527 0.211712 -2.03829
0.618692 0.345 -2.04305
0.606983 0.198542 -1.69
0.305373 0.32226 2.14774
0.630159 0.5275 2.13023
0.706415 0.253854 1.76
0.3125 0.791594 -1.99918
0.636683 0.605 -1.98986
0.675342 0.814509 -1.608
0.2775 1.0356 2.0931
0.565325 0.8525 2.07701
0.613639 1.04447 1.73791
-0.693117 0.143352 -1
-0.723738 0.14368 -0.31
-0.833005 0.3226 -0.642307
-0.354079 0.142582 -0.655
-0.710158 0.219157 1.07
-0.754571 0.143796 0.38
-0.845012 0.364202 0.727284
-0.384908 0.142723 0.725
-0.735563 0.933063 -0.938818
-0.84152 0.783527 -0.61692
-0.741671 0.997504 -0.269636
-0.432277 1.23785 -0.604227
-0.715525 1.08802 1.06873
-0.854433 0.866258 0.731853
-0.737025 1.05119 0.399546
-0.443807 1.41394 0.734137
0.693122 0.143352 -1
0.354084 0.142582 -0.655
0.723743 0.14368 -0.31
0.833043 0.32258 -0.642307
0.70975 0.21957 1.07
0.384913 0.142723 0.725
0.754576 0.143796 0.38
0.845104 0.364164 0.727284
0.735544 0.933044 -0.938818
0.432277 1.23785 -0.604227
0.841533 0.783535 -0.61692
0.741663 0.997496 -0.269636
0.715539 1.08804 1.06873
0.44383 1.41395 0.734137
0.854423 0.866264 0.731853
0.737034 1.0512 0.399546
-0.851692 0.494953 -1.67711
-0.328119 0.475 -2.21316
2.5034e-06 0.19834 -1.6886
1.87755e-06 0.346395 -2.19091
-0.860355 0.352437 -1.3271
-0.315511 0.189586 -1.345
-0.820935 0.669409 1.74385
-0.286334 0.69 2.12429
2.5034e-06 0.238429 1.78353
1.87755e-06 0.503966 2.22938
-0.854747 0.439415 1.41208
-0.357388 0.218103 1.415
8.8245e-08 0.895332 -1.6407
6.25849e-07 0.637696 -2.21864
-0.863155 0.690787 -1.29131
-0.349167 0.954218 -1.27341
3.0056e-06 1.11174 1.75087
6.25849e-07 0.865457 2.12724
-0.8455 0.86547 1.40624
-0.340225 1.24313 1.40332
0.851686 0.494953 -1.67711
0.328121 0.475 -2.21352
0.846861 0.352438 -1.3271
0.315515 0.189586 -1.345
0.820917 0.669412 1.7439
0.286386 0.69 2.12433
0.854831 0.439502 1.41208
0.357309 0.21811 1.415
0.86354 0.69077 -1.29131
0.349151 0.954184 -1.27341
0.845491 0.865527 1.40624
0.340284 1.24314 1.40332
-0.836963 0.344566 0.0424887
-0.369493 0.142653 0.035
-0.853153 0.534858 -0.969409
-0.855799 0.568017 -0.289818
2.5034e-06 0.141076 -1
2.5034e-06 0.141229 -0.31
-0.869293 0.594431 0.389773
-0.88888 0.628228 1.06936
2.5034e-06 0.141245 0.38
2.5034e-06 0.2093 1.07
-0.868805 0.837295 0.0574662
-0.466523 1.42274 0.064955
2.64735e-07 1.10285 -0.938818
3.27033e-06 1.39113 -0.269636
9.10504e-06 1.44701 0.399546
9.01679e-06 1.3822 1.06873
0.837093 0.344473 0.0424887
0.369498 0.142653 0.035
0.853285 0.534858 -0.969409
0.855804 0.568021 -0.289818
0.869305 0.59444 0.389773
0.888883 0.628237 1.06936
0.86869 0.837273 0.0574662
0.466529 1.42274 0.064955
-0.858699 0.348719 -1.68355
-0.85202 0.350827 -0.984705
-0.842271 0.725596 -0.954113
-0.839976 0.647893 -1.64255
0.839387 0.348719 -1.68355
0.840023 0.647885 -1.64255
0.842243 0.725588 -0.954113
0.848779 0.350828 -0.984705
-0.301517 0.198352 -1.6893
0.301521 0.198352 -1.6893
0.33484 0.141076 -1
-0.334835 0.141076 -1
-0.330834 0.886204 -1.62435
-0.359417 1.08072 -0.938818
0.359409 1.08072 -0.938818
0.330825 0.886204 -1.62435
-0.30782 0.345698 -2.17622
-0.320309 0.621348 -2.20019
0.320311 0.621348 -2.20026
0.307824 0.345698 -2.1762
-0.834567 0.333792 -0.299909
-0.840331 0.354713 0.384887
-0.857051 0.849492 0.394659
-0.848441 0.807049 -0.279727
0.834889 0.333616 -0.299909
0.848447 0.807072 -0.279727
0.857081 0.849531 0.394659
0.84036 0.354688 0.384887
-0.361786 0.142618 -0.31
0.361791 0.142618 -0.31
0.377205 0.142688 0.38
-0.3772 0.142688 0.38
-0.46917 1.36984 -0.269636
-0.462045 1.4321 0.399546
0.462063 1.43211 0.399546
0.46917 1.36983 -0.269636
-0.852269 0.40758 1.06968
-0.805095 0.483458 1.75193
-0.798802 0.858985 1.74088
-0.856863 0.8525 1.06905
0.852294 0.407626 1.06968
0.857092 0.852537 1.06905
0.798745 0.859013 1.74091
0.8051 0.483501 1.75195
-0.37119 0.209176 1.07
0.371153 0.208703 1.07
0.331341 0.238413 1.77177
-0.331378 0.238413 1.77177
-0.352132 1.36426 1.06873
-0.308862 1.09643 1.74439
0.308892 1.09643 1.74439
0.352173 1.36433 1.06873
-0.295851 0.515733 2.21697
0.29588 0.515733 2.21697
0.281943 0.858978 2.11091
-0.281917 0.858978 2.11089
-0.595183 0.28 -2.03734
-0.431284 0.212211 -2.03779
-0.593257 0.204526 -1.8625
-0.622966 0.44625 2.12013
-0.458053 0.330771 2.13923
-0.669471 0.29853 1.9325
-0.635645 0.67 -1.97103
-0.46875 0.775325 -1.98292
-0.654821 0.779404 -1.77529
-0.560704 0.93375 2.0753
-0.41625 1.02809 2.08559
-0.585214 1.03063 1.9052
0.431289 0.212193 -2.03781
0.595205 0.28 -2.03736
0.593394 0.204394 -1.8625
0.458058 0.330822 2.13918
0.6229 0.44625 2.12006
0.669523 0.298483 1.9325
0.46875 0.77535 -1.98294
0.635663 0.67 -1.97105
0.654823 0.779406 -1.77529
0.41625 1.02809 2.08559
0.560688 0.93375 2.07528
0.58522 1.03064 1.9052
-0.70061 0.143596 -0.8275
-0.716029 0.143651 -0.4825
-0.80983 0.213527 -0.648654
-0.531199 0.143105 -0.655
-0.70588 0.215698 0.8975
-0.762279 0.143824 0.5525
-0.824527 0.245514 0.726142
-0.577447 0.143291 0.725
-0.743845 0.955928 -0.771522
-0.810678 0.884888 -0.610573
-0.740154 0.981404 -0.436931
-0.632333 1.19498 -0.604227
-0.718849 1.07677 0.901432
-0.768517 0.957468 0.732995
-0.732543 1.06129 0.566841
-0.628989 1.32876 0.734137
0.700615 0.143596 -0.8275
0.531204 0.143105 -0.655
0.716034 0.143651 -0.4825
0.809835 0.213526 -0.648654
0.706252 0.215331 0.8975
0.577452 0.143291 0.725
0.762284 0.143824 0.5525
0.824565 0.2455 0.726142
0.744241 0.956324 -0.771522
0.63233 1.19498 -0.604227
0.810675 0.884889 -0.610573
0.740173 0.981423 -0.436931
0.718826 1.07674 0.901432
0.629212 1.32918 0.734137
0.768558 0.9575 0.732995
0.732549 1.0613 0.566841
-0.643719 0.41 -2.05029
-0.656103 0.54 -2.02708
-0.798233 0.484976 -1.86106
-0.492178 0.475 -2.16449
[...]
POINT_DATA 3682
SCALARS point_scalars float 1
LOOKUP_TABLE default
-93.1833
-39.8621
-22.063
-35.6988
-92.799
-39.6027
-22.0308
-35.413
-46.5851
-49.9415
-68.5995
-52.3429
-46.6541
-49.9217
-68.2821
-52.3151
-71.7925
-95.898
-45.1816
-49.7726
-43.6433
-39.126
-36.6927
69.1621
-82.8525
-42.573
-45.2685
-43.3236
-37.5367
-36.4696
90.0092
-65.3278
-55.4167
-46.8476
-41.4301
-36.7508
-36.2754
-21.2284
-48.9468
-85.805
-63.3043
-36.4836
-35.7319
-35.6195
10.9757
-142.777
-47.0524
-50.1792
-44.1068
-37.1201
-36.6485
156.997
-36.5396
-35.5847
165.644
-34.41
-35.5718
19.8109
-25.6752
-82.2288
-64.457
-34.411
-34.1584
-33.5137
11.642
-135.673
-47.2159
-50.2431
-43.3279
-36.9316
-36.5732
156.944
-36.3902
-35.1987
165.479
-33.8442
-35.1987
19.6898
-26.3661
-81.9414
-64.3479
-36.9552
-33.3632
-33.2416
-42.6505
-96.9591
-45.2861
-49.7564
-43.4613
-38.893
-36.5107
65.8865
-91.9113
-42.8181
-45.232
-43.1249
-37.3279
-36.3054
89.9568
-66.4228
-55.3581
-46.8589
-41.1768
-36.3021
-36.0918
-21.1743
-50.3362
-85.7554
-63.2088
-36.2909
-35.3244
-35.3244
42.3344
-128.367
-47.1756
-36.0425
-37.7066
-41.6878
-18.6571
-27.0439
-33.1178
-44.8635
41.83
-46.8014
-35.8245
-41.5411
-26.947
-44.7752
-41.0457
-44.7057
-47.8844
-43.9389
-50.7528
-57.503
-22.4017
-64.9151
-41.0794
-44.8343
-43.9853
-57.4569
-58.3668
-57.3935
-49.4978
11.5687
200.132
-43.7048
-43.6986
-43.9033
-92.6975
-49.7296
-49.8817
-40.5864
-38.4244
-29.8555
30.2073
-130.987
-72.7089
-37.404
-38.3597
-47.0446
19.1969
-18.9608
-41.8612
-35.8122
-33.3031
-37.68
-131.094
30.1489
-72.3822
-38.1
-37.1934
-47.3035
-18.984
18.777
-41.4544
-33.1155
-35.5691
-37.5735
-44.0486
-41.7511
-42.424
-47.6464
-41.2166
-42.5822
-43.0915
-50.7435
-59.1277
-52.7179
-61.7957
-27.8784
-50.4221
-46.8169
-55.3202
-63.0778
-43.9738
-47.6554
-41.8049
-42.7423
-41.236
-50.7311
-42.5951
-43.0825
-58.9182
-27.8302
-52.6851
-61.7844
-50.3755
-63.0528
-46.7414
-55.2892
-105
181.291
-69.3741
145.712
-54.7173
-48.1933
-46.0836
-33.6437
-40.3671
-32.7651
-46.7916
-40.8269
-9.52226
160.982
-60.2874
3.16867
-33.754
-28.3422
-47.8079
-39.3003
-104.327
181.244
-53.6409
-48.0944
-45.8801
-33.2536
-46.771
-40.6845
-59.7249
2.27403
-47.7556
-39.2793
-40.9888
-43.2075
-49.427
-43.8855
-43.2585
-44.5207
-44.0948
-46.7976
-45.7755
-42.7381
-49.7393
-86.1844
18.6314
-87.8296
-74.8919
-49.4039
-41.0764
-43.2173
-49.1302
-43.9876
-44.1193
-46.5845
-49.7141
-86.1725
-97.2954
-51.4751
-52.2123
-78.2423
-98.9122
-78.1762
-51.9232
-51.2045
-68.8955
-68.8041
-42.8268
-42.866
-13.5426
14.6889
14.676
-13.4656
143.301
141.398
140.688
143.296
-41.0104
-41.8783
-49.4555
-50.9777
-41.1998
-51.0018
-49.4972
-41.9224
-43.8105
-43.825
-45.1693
-45.1663
-80.8763
-73.4026
-73.3826
-80.8221
-44.8118
-47.345
-44.1737
-47.9553
-44.5778
-47.947
-43.9669
-47.1741
-42.2899
-42.2274
-41.4197
-41.6099
-50.1909
-34.4928
-34.4363
-50.2304
-35.4675
-35.2025
-32.1049
-32.5611
2.10818
-145.623
-99.1311
-38.3141
-39.2397
-44.573
6.04332
-24.872
-33.7991
-36.0638
-33.9791
-36.0834
-145.418
2.93756
-99.2
-39.0311
-38.0926
-44.4383
-25.0457
5.9562
-33.7598
-33.7676
-35.788
-35.9156
-48.3224
-43.2918
-43.3048
-47.0677
-48.6596
-44.6016
-46.3873
-51.1007
-66.5463
-60.9872
-63.8099
-64.8714
-50.3506
-51.5329
-53.4852
-58.6865
-48.3674
-47.0951
-43.3546
-43.4622
-48.4368
-51.0938
-44.6034
-46.3831
-67.4036
-64.6317
-60.8658
-63.7771
-50.3288
-58.6756
-51.5212
-53.4507
40.9549
33.3541
-45.7867
133.581
-127.091
-127.471
-90.1174
44.2822
-57.2663
-38.8512
-52.2083
-47.3962
-35.8757
-35.9873
-42.7389
-35.2908
-37.6571
-37.548
-39.0402
-34.2882
-45.8796
-40.6619
-44.6364
-41.1684
-17.9338
-17.9401
-17.2036
24.8736
-32.1525
-30.185
-57.7644
-8.86836
-33.1761
-33.0801
-33.7707
-27.3061
-40.8437
-48.2554
-45.9818
-40.7611
40.5973
32.8782
-48.4501
133.371
-56.8328
-38.5849
-51.1541
-47.2054
-35.6546
-35.7696
-42.4778
-35.0145
-45.4107
-40.3653
-44.637
-40.9715
-32.0287
-30.0424
-57.3876
-7.91697
-40.747
-48.1864
-45.8937
-40.728
-41.0141
-41.5785
-40.5735
-42.4078
-43.0772
-47.348
-45.3999
-44.2637
-47.8621
-47.8646
-50.4742
-45.8565
-42.5029
-45.3777
-44.0287
-43.8366
-50.8517
-50.841
-47.7502
-49.0876
-59.5069
-58.1829
-55.626
-70.6529
-21.5847
-21.5521
1.1039
-47.0494
-64.6414
-64.6295
-70.2257
-57.0072
-41.0573
-41.6012
-40.6499
-42.4265
-43.3456
-47.3932
-45.4262
-44.3762
-42.5829
-45.3673
-44.0503
-43.7431
-59.4766
-58.1835
-55.6063
-70.5708
-72.1283
-56.6069
-59.3889
-55.3184
-70.7205
-55.7786
-58.6517
-54.4992
-57.4864
-49.0743
-49.0354
-43.2194
0.203539
9.94773
9.96028
24.2987
202.912
170.265
200.232
202.923
-41.9715
-43.4586
-44.0746
-46.501
-41.9713
-43.5276
-44.1618
-46.5113
-43.74
-43.8703
-44.539
-43.7443
-92.0442
-94.2137
-82.9511
-92.0363
-50.3041
-48.3573
-49.5125
-47.867
-50.1608
-48.3008
-49.6616
-47.8083
-40.9332
-40.6494
-40.5968
-41.0205
-35.5432
-38.6499
-38.6421
-42.7945
-31.2124
-29.9169
-29.0998
-30.8619
-51.0286
97.9062
-89.9465
88.0466
-97.5945
-69.4001
-42.5245
-36.4521
-39.8082
-35.9751
-47.8867
-42.6465
-35.87
95.3719
-19.3444
59.7044
-62.3662
-22.769
-41.6998
-34.8621
-33.8866
-32.144
-39.0327
-35.3782
-89.8303
88.3644
-54.9196
97.7412
-95.3612
-69.2533
-40.2297
-35.7815
-42.2998
-36.2832
-47.5679
-43.105
-19.2792
59.5556
-35.6441
95.3574
-62.0236
-22.404
-33.7947
-31.6473
-41.4419
-34.5303
-38.8935
-35.2983
-54.5709
-40.776
-40.7176
-43.051
-45.1426
-41.5058
-50.8319
-45.2599
-43.0674
-41.5089
-41.7987
-44.3928
-42.6765
-49.2796
-47.3474
-49.1386
-58.0773
0.881247
-51.2453
-51.9504
-57.615
-88.5328
1.42701
-45.4527
-49.4307
-52.2512
-48.2904
-46.7863
-54.3668
-63.8769
-67.612
-57.0505
-54.3025
-40.7227
-50.8291
-45.2737
-40.8427
-43.081
-45.5535
-41.7338
-42.9653
-41.539
-47.3469
-49.2125
-41.8426
-44.3995
-42.724
-49.1579
-57.8366
0.762409
1.41312
-45.5343
-51.1595
-51.9441
-57.5318
-88.3961
-49.3974
-52.2143
-67.5922
-57.0298
-48.2867
-46.7628
-54.351
-63.7883
-99.7405
-101.704
159.945
164.477
-69.1081
-69.1041
147.254
147.352
-70.2115
-52.6169
-56.1458
-41.2628
-46.8817
-45.2814
-33.7077
-32.9921
-40.5967
-40.5258
-33.9644
-33.728
-44.5952
-50.954
-40.8767
-41.6073
-10.3631
-10.3177
160.5
160.464
-57.325
-74.9142
-5.85803
16.4036
-33.9847
-33.9431
-29.6295
-30.0387
-46.6075
-47.9963
-43.8023
-36.3757
-100.813
-101.558
164.442
159.885
-67.3029
-50.8418
-56.0465
-41.1813
-45.0799
-46.6798
-33.3279
-32.5725
-44.6116
-50.9172
-40.7454
-41.4734
-74.3551
-56.9058
17.338
-5.81464
-47.9256
-46.4473
-36.3463
-43.7841
-40.8621
-41.5623
-43.1535
-43.8466
-50.2087
-50.0569
-42.0142
-46.6717
-44.3489
-44.3698
-44.3661
-44.3718
-42.3676
-46.4637
-47.5028
-46.1844
-45.6548
-45.6543
-42.5633
-42.5312
-50.4059
-51.1738
-89.1499
-77.5775
18.0132
18.0782
-84.8694
-84.8669
-75.9555
-75.9466
-49.7361
-49.7273
-41.0153
-41.6571
-43.1661
-43.8529
-49.7245
-49.859
-42.1755
-46.7302
-46.4877
-42.3986
-46.328
-46.1969
-51.3916
-50.4206
-77.5635
-89.1313
-69.522
-67.0497
-70.9523
-47.8105
-47.3359
-44.5554
-54.6251
-47.2164
-59.2164
-60.4067
-56.1829
-47.3708
-38.4957
-37.7884
-73.2787
-57.2262
-72.1688
-51.8781
-69.3133
-65.3017
-38.7602
-56.8876
-72.3543
-38.8357
-59.1881
-47.3248
-55.5927
-60.0123
-47.4332
-46.3082
-53.2401
-44.8163
-92.197
-89.758
-56.9249
-55.7446
-92.1555
-55.5476
-56.8949
-89.4245
-50.9052
-50.6261
-42.5105
-39.5436
-50.8977
-39.6883
-42.5471
-50.6287
-22.3011
-16.0811
-1.00154
-17.4279
-34.7581
0.891596
22.8687
3.23781
-35.5809
2.3656
22.7288
0.891795
-22.433
-17.4124
-0.957895
-15.9418
75.2963
123.656
172.07
73.1027
50.6437
36.0505
199.321
107.768
50.8748
107.514
199.306
36.0121
76.1188
73.5828
172.037
123.45
-41.7634
-40.401
-41.7215
-42.4319
-43.2485
-42.6378
-42.302
-41.039
-52.5172
-56.2148
-47.0559
-45.7967
-58.6551
-47.1508
-46.1469
-57.3826
-41.9099
-42.6235
-41.8392
-40.5029
-58.5883
-57.3473
-46.1835
-47.2074
-52.4969
-45.8025
-47.0985
-56.2075
-43.279
-41.102
-42.4447
-42.6789
-44.5234
-45.8527
-43.715
-42.3374
-44.5553
-42.362
-43.7201
-45.8573
-46.7327
-47.6774
-44.3842
-43.0294
-46.7296
-43.017
-44.3817
-47.68
-81.0567
-76.7781
-93.4623
-47.1038
-59.9836
-69.6577
-82.1308
-66.0071
-59.9058
-66.2243
-82.1211
-69.6463
-80.5771
-47.0918
-93.4447
-76.7275
-50.5123
-43.0841
-46.3164
-45.3919
-43.3852
-42.56
-51.2189
-50.792
-37.2194
-42.3138
-48.0557
-42.3233
-49.5595
-45.4908
-48.9563
-48.212
-50.4341
-46.4802
-46.3751
-42.9967
-49.5449
-48.1426
-48.9159
-45.3885
-37.0215
-42.0562
-47.8604
-42.2101
-43.1954
-51.1665
-51.1749
-42.3078
-49.098
-49.1143
-40.9876
-40.4817
-49.1099
-40.1788
-40.9392
-49.0948
-42.1101
-39.326
-41.093
-42.6482
-41.1286
-42.7183
-41.1205
-39.274
-54.9939
-45.698
-43.0154
-57.2961
-34.1633
-33.8
-35.7499
-37.4695
-34.0444
-37.4285
-35.7367
-33.7497
-54.9756
-57.2795
-43.0051
-45.6658
-36.6046
-34.8733
-31.3489
-34.9941
-36.4281
-34.7268
-30.9626
-34.7229
-33.9899
-28.5617
-30.3104
-34.8362
-34.3493
-35.1375
-30.702
-28.9576
-36.248
-138.306
-131.601
-38.7499
-39.7453
-43.2371
-4.63307
-35.8871
-33.887
-35.9938
-34.1932
-35.5151
-138.443
-35.2402
-131.853
-39.5287
-38.5201
-42.9992
-35.8692
-4.70627
-34.0012
-33.94
-35.7022
-35.2961
-48.6302
-44.4402
-44.7938
-46.622
-59.0321
-46.1098
-48.7623
-51.0425
-72.5962
-65.0153
-65.2295
-89.5847
-51.6018
-51.0973
-52.715
-54.9967
-48.7032
-46.6865
-44.5057
-44.897
-59.0215
-51.0452
-46.1053
-48.7606
-72.4429
-89.2695
-64.8768
-65.1986
-51.5803
-54.9612
-51.0833
-52.6831
43.7357
40.4493
5.82049
89.8446
-128.169
-128.513
-107.924
-25.0635
-51.7072
-42.9037
-50.0107
-47.1734
-35.9166
-36.0242
-39.087
-35.6803
-37.4643
-37.4399
-40.6513
-35.6066
-42.364
-40.5752
-43.4074
-40.9201
-18.5026
-18.5877
-20.7347
-25.0311
-30.1326
-25.2492
-45.6871
-17.9442
-33.1561
-33.1022
-34.3993
-28.7586
-42.8953
-46.4778
-45.4822
-42.664
43.2644
39.9338
4.74354
89.6596
-51.2989
-42.5787
-49.1497
-46.9117
-35.7289
-35.8051
-38.8165
-35.4472
-42.1888
-40.1471
-43.3638
-40.7304
-30.026
-25.1457
-45.3949
-18.0678
-42.8092
-46.4132
-45.3895
-42.6129
-40.7504
-41.2164
-40.8275
-41.888
-43.739
-45.875
-44.9362
-44.581
-47.9122
-47.9132
-49.1113
-46.7925
-43.5049
-44.4322
-43.8994
-43.4253
-50.6875
-50.6822
-49.0182
-55.4494
-58.3809
-57.0522
-56.2757
-63.5003
-21.88
-21.8819
-10.2912
-33.7508
-64.8417
-64.8357
-68.1068
-60.985
-40.7881
-41.2442
-40.8778
-41.9129
-43.9359
-45.9591
-45.0386
-44.7125
-43.583
-44.4452
-43.9276
-43.4788
-58.3508
-57.05
-56.2507
-63.447
-62.45
-57.7422
-58.9653
-56.7446
-61.3344
-56.7195
-58.0976
-55.8075
-53.1644
-49.3609
-49.3433
-46.091
5.36072
11.0576
11.0057
18.9928
202.852
192.703
205.444
202.869
-42.7449
-43.5479
-43.9544
-44.8352
-42.7189
-43.6095
-44.0084
-44.8394
-43.8904
-43.8162
-44.1249
-43.8923
-92.7102
-96.1923
-86.9953
-92.7066
-50.0717
-48.8156
-50.8037
-47.8499
-49.9767
-48.7723
-50.8586
-47.7886
-40.4854
-40.6097
-40.5858
-40.8289
-36.8662
-38.5026
-38.4979
-40.4542
-30.3022
-29.8312
-29.7382
-30.0929
23.0297
36.7396
-11.5138
67.9336
-139.474
-128.238
-107.396
17.3718
-84.0009
-64.6348
-92.7349
-70.2174
-37.8508
-36.8152
-40.4974
-36.6146
-38.791
-37.9296
-42.4
-36.6778
-46.568
-46.5378
-47.9355
-43.6464
13.1664
22.5496
-10.9303
68.679
-20.1393
-17.8565
-22.0326
-8.60973
-42.9397
-36.7358
-53.5509
-32.3328
-35.8849
-35.9038
-39.9171
-35.3986
-33.524
-33.2226
-33.9351
-32.3131
-36.778
-39.0292
-38.5666
-36.0636
-139.397
-128.424
-107.358
17.8131
23.693
36.3809
-12.8346
66.7274
-83.879
-64.2188
-91.1952
-70.0131
-38.5866
-37.7822
-42.2584
-36.5358
-37.6343
-36.6024
-40.2571
-36.4456
-46.4139
-48.6631
-47.606
-44.1932
-20.1682
-17.8689
-22.0325
-8.63593
12.837
22.1421
-11.2013
68.4226
-42.4626
-36.6148
-53.2565
-31.5802
-33.3129
-33.0808
-33.8432
-31.9204
-35.6281
-35.674
-39.6212
-35.1296
-36.6442
-38.9343
-38.4374
-35.976
-52.6919
-31.9437
-51.5976
-42.5157
-42.2534
-41.0543
-41.503
-42.4583
-42.462
-42.6403
-43.2799
-41.8867
-47.5057
-47.7055
-49.4013
-46.2039
-43.3276
-40.5556
-42.1325
-41.4661
-43.35
-41.749
-41.9462
-43.7323
-44.7281
-42.1806
-42.9394
-40.0348
-50.5669
-50.7692
-48.7945
-56.5271
-66.4058
-42.8591
-62.0606
-23.0318
-56.3314
-49.7103
-51.9778
-52.2922
-62.7656
-60.743
-60.0898
-71.1593
-37.1173
-23.6789
-14.0805
-36.3233
-50.0908
-49.5991
-49.6371
-51.3037
-50.253
-46.2363
-47.8953
-47.3722
-54.3114
-57.1015
-54.3207
-59.362
-62.5563
-64.0081
-66.1735
-60.1765
-52.7096
-31.7426
-51.494
-42.4645
-47.5218
-47.7099
-49.4055
-46.216
-42.3115
-41.1031
-41.588
-42.4995
-42.7166
-42.9463
-43.6504
-42.1536
-43.3469
-40.6601
-42.1091
-41.4496
-50.5745
-50.7554
-48.792
-56.2402
-43.3586
-41.7661
-41.9728
-43.7413
-44.7087
-42.2453
-42.9783
-39.8708
-66.1617
-42.7051
-61.8532
-22.7881
-37.1616
-23.6267
-14.0422
-36.2066
-56.2598
-49.7184
-51.9303
-52.2738
-62.7495
-60.7257
-60.0801
-71.1208
-50.055
-49.5487
-49.596
-51.2809
-62.5171
-63.9901
-66.1393
-60.1539
-50.2449
-46.2109
-47.8882
-47.4134
-54.277
-57.0695
-54.2994
-59.3153
-85.7592
-89.4322
-103.151
-101.796
165.375
194.245
175.239
175.761
-77.6715
-63.0771
-69.2056
-69.2326
124.41
151.654
146.046
146.121
-54.261
-55.7188
-60.7932
-52.5239
-47.7835
-48.6658
-51.8852
-44.5564
-44.4724
-48.0775
-46.4766
-45.6735
-34.6148
-32.4567
-33.7942
-33.3693
-39.4367
-41.1816
-40.4247
-40.3783
-33.7143
-31.2909
-33.2192
-33.073
-45.6366
-47.8832
-45.0012
-49.1093
-40.9523
-40.7182
-40.8869
-40.8942
-12.8157
-5.29867
-9.76719
-9.74548
110.541
187.338
161.203
161.114
-61.0156
-59.9121
-59.8013
-65.244
-3.86795
7.86772
-1.97986
9.57474
-33.5918
-34.5337
-33.8278
-33.8039
-27.7452
-28.5323
-28.574
-28.7962
-46.8785
-48.4637
-47.3699
-47.6065
-39.8813
-38.9337
-41.3747
-37.6094
-90.4688
-87.7803
-102.196
-101.468
165.302
194.278
175.73
175.187
-52.3392
-54.8999
-58.7203
-51.2389
-47.6447
-48.5998
-51.784
-44.4647
-44.2383
-47.9176
-45.4739
-46.2727
-34.28
-32.0463
-33.4104
-32.967
-45.6275
-47.8419
-44.9887
-49.0805
-40.6368
-40.627
-40.7748
-40.7672
-60.5112
-59.2695
-64.5431
-59.367
-3.64224
7.69018
8.98507
-2.14717
-46.8127
-48.4162
-47.5408
-47.2845
-39.8861
-38.9228
-37.5885
-41.3575
-40.6033
-41.3394
-40.9247
-41.2434
-42.8363
-43.5192
-43.0933
-43.4252
-47.04
-52.4377
-49.612
-49.6364
-44.0637
-43.6177
-42.9092
-45.0902
-52.0521
-39.1659
-44.435
-44.4444
-45.0907
-44.1158
-44.4871
-44.4898
-44.0417
-44.1571
-43.0461
-45.1245
-45.169
-48.0912
-47.4583
-45.3645
-46.678
-45.0893
-45.7762
-45.7759
-44.7633
-41.4851
-42.6131
-42.5984
-51.9659
-47.8821
-52.4414
-47.6007
-80.2042
-90.2374
-88.5667
-81.1165
12.137
23.7167
18.5932
18.6164
-68.7572
-96.785
-87.0874
-87.0955
-73.1344
-79.7745
-76.3209
-76.3166
-53.4655
-45.718
-49.426
-49.4213
-40.6985
-41.3995
-41.0537
-41.3394
-42.8503
-43.5258
-43.1047
-43.4333
-46.9519
-51.8073
-49.3411
-49.364
-44.172
-43.7044
-43.0392
-45.1682
-44.0633
-44.1972
-45.1485
-43.0716
-44.8741
-47.9818
-47.0787
-45.3392
-51.9143
-47.8211
-47.4601
-52.4616
-80.1652
-90.2342
-81.0998
-88.5434
-84.0004
-98.5003
-100.309
-89.2249
-53.5971
-48.8168
-52.1323
-51.0447
-54.805
-51.1162
-54.0786
-50.8163
-61.5514
-69.3655
-89.3562
-82.597
-100.096
-97.772
-99.5997
-81.9864
-62.0731
-68.9581
-89.3172
-81.9842
-54.5393
-50.9632
-53.663
-50.4985
-53.0956
-49.3064
-50.2135
-50.518
-78.1061
-69.0727
-68.9946
-61.8698
-78.0016
-68.9546
-68.943
-61.7756
-43.1949
-53.4498
-36.2333
-42.275
-43.2426
-53.4593
-36.3075
-42.3073
-16.0828
-17.1113
-11.417
-10.291
11.7575
9.36674
18.5934
16.7952
11.6465
9.38105
18.7391
16.8785
-16.0188
-16.9659
-11.3656
-10.2352
122.074
135.485
143.467
148.416
107.393
111.024
152.916
161.646
110.868
107.325
161.716
152.939
135.467
122.09
148.476
143.521
-40.6789
-41.2477
-40.9038
-41.5051
-41.8692
-42.1925
-41.6786
-41.9509
-48.8434
-52.6276
-47.7685
-49.9609
-51.3108
-54.211
-48.5392
-50.5335
-40.8517
-41.4413
-41.0704
-41.6869
-51.3216
-54.2181
-48.5806
-50.5681
-48.851
-52.6379
-47.8126
-50.0015
-41.9189
-42.2344
-41.7434
-41.9876
-43.4703
-44.4112
-43.4238
-44.111
-44.4257
-43.4915
-44.1205
-43.4375
-46.1454
-44.8548
-45.4451
-44.4416
-44.8503
-46.1442
-44.437
-45.4436
-88.0649
-62.1138
-88.7755
-81.7635
-68.9783
-70.0178
-76.0179
-75.2973
-69.995
-68.9191
-75.2843
-76.0064
-62.1309
-87.8342
-81.7385
-88.7402
-44.164
-50.2997
-44.337
-46.2002
-44.4245
-47.3935
-47.1901
-50.6812
-42.97
-42.5584
-44.7896
-45.2666
-48.2604
-46.935
-47.7799
-47.1111
-44.0109
-50.0975
-44.2677
-45.363
-48.2598
-46.7646
-47.7523
-47.1732
-42.7454
-42.3725
-44.5814
-45.0685
-44.225
-47.3598
-46.9995
-50.4806
-42.0212
-44.3756
-41.208
-42.4176
-41.9623
-44.4384
-41.1242
-42.3662
-40.5235
-42.3773
-40.9418
-42.1265
-40.1678
-43.0978
-40.808
-42.2231
-50.8555
-53.6561
-46.8365
-50.0167
-34.0865
-34.9539
-34.2102
-35.3199
-34.005
-34.8809
-34.1598
-35.2758
-50.8313
-53.6354
-46.8049
-50.0095
-36.1609
-35.9888
-34.6287
-34.9249
-35.7765
-35.9525
-34.651
-34.3008
-32.1044
-33.2902
-31.1859
-32.2462
-33.7087
-32.5853
-32.6838
-31.6604
-43.5198
38.6927
-111.713
15.7302
-95.9978
-94.0387
-41.727
-36.97
-43.7301
-37.2533
-43.7128
-43.1837
-15.295
44.1916
-29.0151
5.15644
-37.6337
-22.5444
-37.6912
-35.1208
-33.8533
-33.9573
-36.9644
-34.4822
-111.702
5.98347
-43.5562
37.9229
-97.4026
-94.0617
-43.1852
-37.0633
-41.4964
-36.7792
-43.5378
-43.1846
-29.0361
5.26727
-15.429
43.8195
-37.675
-23.0086
-33.7078
-33.6022
-37.4099
-34.8148
-36.7659
-34.355
-47.0879
-50.888
-42.7242
-44.1578
-44.6396
-42.5453
-48.6629
-45.6403
-50.0952
-48.8073
-43.2608
-46.1964
-44.3423
-52.8161
-48.4671
-57.4079
-63.314
-63.4366
-61.7898
-60.3422
-61.6957
-77.5744
-48.1966
-76.1907
-49.3267
-52.2074
-51.9973
-50.5916
-52.2999
-56.8622
-58.5502
-57.3927
-47.1305
-50.9151
-48.6827
-45.6712
-42.8188
-44.2027
-44.7927
-42.7038
-50.2249
-49.203
-48.47
-57.2222
-43.273
-46.1989
-44.3515
-52.8485
-63.3326
-63.5184
-47.7815
-76.2198
-61.7293
-60.1337
-61.5728
-77.5705
-49.3195
-52.1843
-58.4229
-57.365
-51.9822
-50.5809
-52.2806
-56.8098
-2.10847
82.311
-3.52503
79.84
-49.3157
-44.9502
131.338
125.765
-107.562
-16.9132
-107.957
-16.7214
-90.8508
-89.8334
56.6324
56.955
-65.527
-56.0169
-42.9506
-39.1506
-58.8124
-49.3226
-51.2586
-43.2025
-39.0809
-35.5031
-39.2071
-35.6234
-42.8422
-42.5338
-35.1147
-35.2638
-41.39
-35.9655
-41.3187
-35.7968
-39.1249
-39.1095
-34.4515
-34.3609
-49.7473
-43.6469
-41.798
-40.5518
-42.748
-47.7554
-40.474
-41.6837
-21.0344
-23.9961
-21.0302
-23.9899
-17.0487
-17.0432
29.7021
29.4004
-43.1176
-23.9445
-52.0391
-12.7465
-58.4355
-60.2263
-12.6246
-2.45483
-34.2602
-29.7448
-34.2196
-29.444
-33.7874
-33.7601
-27.6344
-27.8747
-41.8293
-39.0128
-48.0756
-47.3491
-44.3235
-46.9015
-43.081
-38.9664
-3.45112
81.9382
-4.1069
79.923
-52.8087
-47.2036
125.698
131.145
-63.9253
-55.7362
-42.3643
-38.9622
-57.3315
-48.4486
-51.0594
-43.029
-38.833
-35.2819
-38.9339
-35.3763
-42.2683
-42.5819
-34.8372
-34.9765
-50.1506
-43.2473
-41.6215
-40.2972
-42.6932
-47.845
-40.348
-41.3956
-42.8447
-23.8224
-51.7403
-12.8931
-59.8923
-58.0686
-1.49983
-12.3259
-41.7205
-38.948
-48.0083
-47.2946
-46.8408
-44.219
-38.9295
-43.0497
-40.6135
-41.7973
-41.6492
-42.4573
-40.3394
-40.7129
-42.2537
-42.6406
-43.6252
-42.7702
-47.1974
-47.3576
-44.7682
-46.2442
-43.2093
-45.5097
-49.2889
-46.6995
-49.2889
-46.7034
-50.553
-50.5542
-45.8912
-45.8936
-42.5291
-41.401
-45.509
-45.3498
-43.1675
-44.7087
-44.0888
-44.595
-49.0078
-55.1156
-49.0024
-55.0594
-47.6735
-47.6749
-49.0331
-49.0232
-58.5037
-66.7995
-56.6165
-61.7232
-56.3833
-55.7525
-73.6621
-67.4019
-11.0793
-34.5839
-11.0426
-34.5809
1.199
1.20792
-47.039
-47.0322
-67.6484
-60.529
-67.6368
-60.5097
-70.1001
-70.094
-57.1846
-57.1793
-40.6794
-41.8308
-41.6915
-42.474
-40.4276
-40.7824
-42.2756
-42.6561
-43.9091
-43.0154
-47.2137
-47.4084
-46.2245
-44.9024
-43.3537
-45.5943
-42.5818
-41.5256
-45.5085
-45.3141
-44.724
-43.1954
-44.4781
-44.4992
-58.4738
-66.7578
-56.6103
-61.708
-55.708
-56.3773
-67.1686
-73.5994
-71.6176
-72.3714
-61.3379
-55.2574
-57.6049
-63.3853
-54.7443
-55.7821
-70.0445
-71.2071
-60.0986
-54.0222
-62.5592
-56.9012
-55.0659
-53.7251
-57.2748
-57.2652
-52.6946
-45.3312
-52.6584
-45.2911
-42.9726
-42.9904
-0.0520939
-0.0465533
3.82396
17.294
17.0294
3.79469
23.7491
23.7477
192.115
203.085
171.118
171.096
201.304
201.281
203.099
192.092