# vtk DataFile Version 2.0
tri_press
ASCII
DATASET UNSTRUCTURED_GRID
POINTS 3682 float
-0.763856 0.085 -1.935
-0.715 0.275 2.05624
-0.725 0.555 -1.86494
-0.648861 0.905 1.935
0.763688 0.085 -1.935
0.715 0.275 2.05618
0.725 0.555 -1.86488
0.648893 0.905 1.935
-0.80109 0.0948136 -0.604587
-0.828184 0.114768 0.725827
-0.799699 0.771745 -0.598294
-0.758937 0.873029 0.668353
0.800979 0.0948131 -0.604607
0.828138 0.114758 0.725787
0.799658 0.771693 -0.598253
0.759071 0.873142 0.668373
-1.55085 -0.319958 -2.97261
-1.55213 -0.241256 -1.93383
-1.57721 -0.227229 -0.601763
-1.5801 -0.213383 0.743137
-1.51291 -0.101412 2.07628
-1.492 -0.0146018 3.12036
-1.49832 0.0578532 4.15464
-1.54727 -0.0267308 -2.96049
-1.5481 0.074672 -1.92868
-1.58217 0.113098 -0.609019
-1.57375 0.131138 0.716382
-1.47068 0.240307 2.03726
-1.4641 0.325401 3.08044
-1.48385 0.397228 4.1168
-1.53135 0.519581 -2.91837
-1.52361 0.618484 -1.88392
-1.57097 0.779967 -0.60774
-1.52526 0.85858 0.663933
-1.41915 0.9088 1.94134
-1.43619 0.990538 2.98717
-1.47111 1.06934 4.03382
-1.52722 1.46052 -2.90311
-1.5269 1.57533 -1.87821
-1.54153 1.74903 -0.622704
-1.53574 1.88347 0.61906
-1.5087 1.96493 1.87523
-1.49846 2.02554 2.90154
-1.50277 2.09283 3.94122
-0.778027 -0.314634 -2.97672
-0.767278 -0.232372 -1.93982
-0.788277 -0.235625 -0.600959
-0.812452 -0.224833 0.751191
-0.767408 -0.0848839 2.09036
-0.7526 -0.0026047 3.12991
-0.757905 0.0638652 4.16016
-0.779807 -0.0288756 -2.96175
-0.733486 0.338505 3.08832
-0.74904 0.403208 4.12096
-0.76651 0.49297 -2.91047
-0.712458 0.992846 2.9859
-0.741672 1.07169 4.03354
-0.755834 1.44258 -2.8953
-0.751483 1.55854 -1.86961
-0.769314 1.74546 -0.617519
-0.779504 1.88824 0.618442
-0.76888 1.96748 1.8708
-0.762169 2.02625 2.89711
-0.7644 2.09331 3.938
0.761274 -0.314637 -2.97671
0.782022 -0.232373 -1.93983
0.80606 -0.235625 -0.600976
0.799762 -0.224835 0.751157
0.724166 -0.0848832 2.09032
0.715918 -0.00260062 3.12988
0.717726 0.0638726 4.16014
0.746035 -0.0288783 -2.96173
0.703731 0.338509 3.08828
0.710974 0.403215 4.12094
0.7361 0.492966 -2.91043
0.681658 0.992853 2.98588
0.70158 1.0717 4.03352
0.776633 1.44258 -2.89527
0.786074 1.55853 -1.86958
0.776145 1.74547 -0.617498
0.738721 1.88827 0.618453
0.706044 1.96751 1.8708
0.702106 2.02627 2.8971
0.706854 2.09332 3.938
1.53694 -0.319964 -2.97259
1.5586 -0.241263 -1.93382
1.58971 -0.227225 -0.601781
1.58158 -0.21337 0.74309
1.49888 -0.101404 2.07621
1.46939 -0.01459 3.1203
1.46642 0.0578696 4.15459
1.52213 -0.0267393 -2.96046
1.54392 0.0746583 -1.92866
1.58483 0.113101 -0.609027
1.58361 0.131166 0.716341
1.48119 0.240313 2.0372
1.45099 0.325412 3.08039
1.45495 0.397246 4.11675
1.50947 0.51957 -2.91831
1.52117 0.618462 -1.88386
1.57233 0.77995 -0.607698
1.5327 0.85868 0.663941
1.42858 0.90883 1.94132
1.4215 0.99056 2.98714
1.4399 1.06936 4.03379
1.54393 1.46051 -2.90306
1.55321 1.57533 -1.87816
1.54722 1.74904 -0.622668
1.50601 1.88353 0.619079
1.46044 1.96499 1.87524
1.44818 2.02559 2.90154
1.45129 2.09286 3.94121
-0.758213 0.32 -1.91376
-8.39829e-05 0.0935653 -1.92643
-0.783955 0.0884248 -1.26979
-0.65807 0.59 1.97176
0 0.248309 2.0829
-0.790123 0.176353 1.39103
0 0.62286 -1.93277
-0.823171 0.724194 -1.23162
1.60038e-05 0.936361 1.96636
-0.733849 0.918965 1.30168
0.758246 0.32 -1.91384
0.783739 0.0885015 -1.2698
0.658109 0.59 1.97175
0.789975 0.176473 1.39098
0.823173 0.724191 -1.23157
0.733866 0.918955 1.30169
-0.818331 0.101097 0.0606201
-0.864598 0.433279 -0.60144
-5.57068e-05 0.0913312 -0.604597
-0.853277 0.493898 0.69709
-2.3395e-05 0.108069 0.725807
-0.775276 0.818345 0.0350299
-2.04751e-05 1.00471 -0.598273
6.72382e-05 1.28522 0.668363
0.818229 0.101115 0.06059
0.864533 0.433253 -0.60143
0.85323 0.49395 0.69708
0.775248 0.818301 0.03506
-0.895859 0.37664 -1.25071
0.895859 0.376627 -1.25069
-6.98449e-05 0.0844652 -1.2698
-1.02375e-05 0.810964 -1.23159
-4.19915e-05 0.32 -1.93709
-0.853189 0.463589 0.047825
0.853125 0.463602 0.047825
-3.95509e-05 0.0987656 0.060605
2.33816e-05 1.28406 0.035045
-0.851815 0.541949 1.34636
0.852053 0.541975 1.34634
-1.16975e-05 0.151394 1.39101
4.1621e-05 1.13231 1.30168
8.00192e-06 0.59 2.01787
-0.750356 0.2025 -1.9137
-0.38197 0.09646 -1.92354
-0.774137 0.0864813 -1.6024
-0.718715 0.4325 2.04618
-0.3575 0.250136 2.08109
-0.786049 0.192189 1.72364
-0.768958 0.4375 -1.9167
-0.3625 0.603651 -1.91358
-0.799664 0.665175 -1.54828
-0.676776 0.7475 1.97669
-0.324422 0.931768 1.96177
-0.702092 0.922719 1.61834
0.381802 0.0946112 -1.92539
0.750216 0.2025 -1.91367
0.773964 0.0864997 -1.6024
0.3575 0.252721 2.07847
0.718718 0.4325 2.04613
0.786067 0.192157 1.72358
0.3625 0.603915 -1.91381
0.76928 0.4375 -1.91702
0.799682 0.665191 -1.54822
0.324455 0.931882 1.96188
0.676754 0.7475 1.97663
0.70215 0.922748 1.61834
-0.794489 0.0896528 -0.93719
-0.811485 0.096181 -0.271983
-0.844677 0.25813 -0.603013
-0.400712 0.0927935 -0.604592
-0.785735 0.168979 1.05843
-0.829635 0.101555 0.393223
-0.835367 0.307015 0.711459
-0.407798 0.12403 0.725817
-0.815428 0.751963 -0.914955
-0.859638 0.616257 -0.599867
-0.785495 0.793053 -0.281632
-0.440592 0.969695 -0.598283
-0.748447 0.898051 0.985015
-0.84899 0.704905 0.682722
-0.767451 0.846032 0.351692
-0.463985 1.24823 0.668358
0.794152 0.0898644 -0.937205
0.400601 0.0927941 -0.604602
0.811386 0.0961822 -0.272008
0.844617 0.258103 -0.603018
0.785673 0.168999 1.05839
0.411425 0.116677 0.725797
0.829289 0.101831 0.393188
0.835317 0.307038 0.711433
0.815435 0.751961 -0.91491
0.440608 0.969782 -0.598263
0.859578 0.616214 -0.599842
0.785446 0.792991 -0.281597
0.748477 0.898057 0.98503
0.464167 1.24838 0.668368
0.848886 0.704914 0.682727
0.767435 0.845997 0.351717
-0.871382 0.34832 -1.58223
-0.379128 0.32 -1.98
-7.69139e-05 0.0901219 -1.59812
-6.29872e-05 0.206783 -1.91382
-0.896653 0.232532 -1.26025
-0.392013 0.0843687 -1.2698
-0.818534 0.565975 1.65906
-0.329031 0.59 2.00782
-5.84876e-06 0.185163 1.73695
4.00096e-06 0.419155 2.08145
-0.843472 0.359151 1.36869
-0.395067 0.168779 1.39102
-5.11877e-06 0.741884 -1.58218
-2.09957e-05 0.47143 -2.08799
-0.895525 0.550417 -1.24116
-0.411591 0.790275 -1.2316
2.88124e-05 1.0263 1.63402
1.20029e-05 0.76318 2.0361
-0.839153 0.730457 1.32402
-0.366904 1.10809 1.30168
0.871446 0.348313 -1.58226
0.379102 0.32 -1.93654
0.896652 0.232564 -1.26024
0.391834 0.0843631 -1.2698
0.818532 0.565988 1.65904
0.329058 0.59 2.0077
0.843511 0.359224 1.36866
0.394982 0.172449 1.391
0.89552 0.550409 -1.24113
0.411581 0.790258 -1.23158
0.839119 0.730465 1.32401
0.366954 1.10796 1.30168
-0.838063 0.281191 0.0542225
-0.410035 0.0982322 0.0606126
-0.879209 0.404959 -0.926073
-0.857809 0.448434 -0.276808
-6.27758e-05 0.0846156 -0.937198
-4.76288e-05 0.0914981 -0.271996
-0.852682 0.478744 0.372458
-0.854802 0.517924 1.02172
-3.1473e-05 0.0995849 0.393206
-1.75463e-05 0.126014 1.05841
-0.849626 0.658664 0.0414275
-0.482477 1.2409 0.0350375
-1.53563e-05 0.835273 -0.914933
1.45326e-06 1.17744 -0.281614
4.53099e-05 1.30141 0.351704
5.44296e-05 1.2233 0.985023
0.838014 0.28119 0.0542075
0.410016 0.0980985 0.0605975
0.879206 0.40494 -0.926058
0.857735 0.448427 -0.276803
0.852617 0.478776 0.372453
0.854805 0.517963 1.02171
0.849554 0.658636 0.0414425
0.482463 1.24083 0.0350525
-0.86371 0.217516 -1.59231
-0.87898 0.248289 -0.931631
-0.878248 0.576464 -0.920514
-0.865616 0.493958 -1.56525
0.863809 0.217532 -1.59233
0.865539 0.493954 -1.56524
0.878252 0.576441 -0.920484
0.878982 0.248299 -0.931631
-0.386991 0.0841525 -1.60026
0.386818 0.0841491 -1.60026
0.396148 0.0845367 -0.937201
-0.396293 0.0845363 -0.937194
-0.387045 0.724739 -1.56523
-0.405725 0.808868 -0.914944
0.4057 0.809631 -0.914921
0.387041 0.724745 -1.5652
-0.380549 0.204641 -1.9601
-0.370814 0.454465 -2.07279
0.370801 0.454465 -2.07276
0.380452 0.204641 -1.91313
-0.840209 0.270241 -0.274395
-0.836714 0.294104 0.382841
-0.84883 0.681546 0.362075
-0.85255 0.636419 -0.27922
0.840149 0.270229 -0.274405
0.852469 0.636377 -0.2792
0.848771 0.68155 0.362085
0.836653 0.29412 0.38282
-0.406614 0.0930313 -0.27199
0.4065 0.0930634 -0.272002
0.414326 0.100177 0.393197
-0.414246 0.100471 0.393215
-0.473892 1.13001 -0.281623
-0.481559 1.26122 0.351698
0.481742 1.26146 0.35171
0.473739 1.12972 -0.281605
-0.847681 0.331742 1.04008
-0.826041 0.395825 1.69135
-0.810535 0.738978 1.6387
-0.849451 0.70696 1.00337
0.847679 0.331789 1.04005
0.849451 0.707006 1.00337
0.810314 0.738983 1.63869
0.826049 0.395862 1.69131
-0.404586 0.146457 1.05842
0.404519 0.146619 1.0584
0.376241 0.202387 1.73027
-0.376284 0.187907 1.7303
-0.373169 1.1993 0.985019
-0.345663 1.00345 1.62618
0.345704 1.00359 1.62618
0.373262 1.19931 0.985026
-0.343266 0.425827 2.11377
0.343279 0.425827 2.1137
0.326756 0.75534 2.02832
-0.326727 0.75534 2.02833
-0.754476 0.14375 -1.92172
-0.572913 0.0812951 -1.9387
-0.765854 0.0888831 -1.7687
-0.701342 0.35375 2.03569
-0.53625 0.252876 2.07836
-0.756255 0.227864 1.88994
-0.744248 0.49625 -1.88809
-0.54375 0.582818 -1.89275
-0.772015 0.619771 -1.70661
-0.669732 0.82625 1.96276
-0.486642 0.929488 1.95949
-0.681274 0.919657 1.77667
0.572745 0.0812918 -1.93871
0.754311 0.14375 -1.92169
0.765682 0.0888944 -1.7687
0.53625 0.252892 2.0783
0.701534 0.35375 2.03583
0.756013 0.228099 1.88988
0.54375 0.582774 -1.89266
0.744214 0.49625 -1.88802
0.771955 0.61971 -1.70655
0.486674 0.929591 1.95959
0.669911 0.82625 1.9629
0.681332 0.919685 1.77667
-0.795168 0.094855 -0.770888
-0.806062 0.0957228 -0.438285
-0.864645 0.155591 -0.6038
-0.600994 0.0936186 -0.604589
-0.8295 0.119333 0.892129
-0.829025 0.108046 0.559525
-0.827606 0.212976 0.718643
-0.6164 0.12258 0.725822
-0.80793 0.76222 -0.756624
-0.838256 0.698295 -0.59908
-0.791843 0.781645 -0.439963
-0.643151 0.916731 -0.598289
-0.75352 0.885369 0.826684
-0.818603 0.796287 0.675538
-0.763349 0.859685 0.510023
-0.631171 1.10005 0.668356
0.79505 0.0948542 -0.770906
0.600885 0.0936125 -0.604604
0.805959 0.0957211 -0.438308
0.864689 0.155512 -0.603813
0.830967 0.117817 0.892086
0.61635 0.122581 0.725792
0.828925 0.108083 0.559488
[...]
POINT_DATA 3682
SCALARS point_scalars float 1
LOOKUP_TABLE default
-54.7056
-42.9664
-0.998231
-37.571
-54.9384
-43.0286
-1.36555
-37.5038
-40.6707
-40.7242
-61.2613
-49.997
-40.7118
-40.9431
-61.1408
-49.9679
-21.7242
-89.025
-41.6703
-39.8818
-46.3911
-42.0839
-42.0839
-21.7242
-89.025
-42.6751
-38.2471
-46.4747
-41.9874
-38.2171
35.1702
-68.8839
-49.3231
-43.9539
-43.0851
-38.3952
-37.3016
-17.2243
-51.6915
-95.9885
-62.4572
-38.4697
-37.619
-37.2011
0.504292
-155.745
-40.5181
-43.8299
-43.7428
-39.541
-39.541
0.504292
-37.6324
-37.4369
155.102
-35.1727
-36.4734
73.4685
-40.3811
-58.4389
-67.4788
-33.9331
-33.769
-34.0946
10.3939
-155.016
-40.5861
-44.8693
-43.4381
-39.67
-39.67
10.3939
-37.6099
-37.4257
155.31
-35.0267
-36.451
73.5195
-40.3453
-58.8746
-67.4763
-33.8172
-33.7171
-32.6306
-22.0705
-89.0772
-41.7571
-40.0768
-45.9217
-42.1885
-42.1885
-22.0705
-89.0772
-41.8227
-38.3708
-46.3347
-42.0096
-38.1912
34.8865
-68.5773
-49.2849
-43.9878
-43.0567
-38.3412
-37.3248
-17.6733
-52.3755
-95.3631
-62.2847
-38.4062
-37.5525
-37.1257
-30.9665
-148.898
-56.6989
-37.2998
-40.2909
-40.1306
-4.03319
-58.0175
-28.6425
-43.6066
-31.3934
-56.8095
-37.2501
-40.0454
-58.0559
-43.5918
-37.3822
-42.8658
-43.3611
-39.8532
-43.3708
-56.3278
22.6504
-66.3812
-37.4092
-42.857
-39.8436
-56.3189
-66.9682
-67.001
-59.7801
-12.8835
194.676
-41.0746
-41.1037
-40.4103
-107.917
-44.2876
-43.9865
-42.2272
-38.1538
-33.3475
-29.6331
-151.978
-77.4151
-40.9891
-40.4749
-47.8796
-3.76347
7.17447
-49.4226
-37.8187
-30.775
-37.9575
-153.596
-33.2934
-77.5629
-40.6254
-40.9522
-46.9529
6.81555
-4.51443
-49.5789
-30.7219
-37.7582
-37.9374
-44.9245
-38.2886
-40.5305
-42.4929
-38.22
-38.7569
-38.1933
-43.0245
-48.5392
-48.1448
-59.0138
8.73174
-47.1087
-43.4402
-52.5862
-63.6602
-45.356
-42.4396
-38.392
-40.5286
-38.6364
-44.1196
-38.8242
-38.274
-48.6876
8.80843
-48.1152
-58.9932
-47.1172
-63.6787
-43.4679
-52.5745
-73.5964
181.63
-80.0656
195.378
-66.0141
-58.4971
-46.0679
-34.7919
-42.9156
-36.9659
-43.1619
-40.9146
-28.7432
132.432
-68.3081
-21.0339
-32.4171
-31.6412
-44.1261
-39.241
-73.8669
183.404
-66.0444
-58.4878
-45.9119
-34.7481
-43.0828
-41.6269
-68.3369
-21.0644
-44.0959
-39.2256
-38.6062
-39.9139
-50.3886
-41.4071
-49.8339
-41.4178
-40.3695
-41.3375
-41.8595
-43.0295
-46.4168
-96.5092
11.942
-33.6901
-85.6201
-49.026
-38.6445
-39.815
-50.3848
-41.4145
-40.4291
-41.3736
-46.4235
-96.4381
-72.6203
-49.8377
-51.3291
-67.8812
-72.8677
-68.1784
-51.3259
-49.8451
-80.4066
-80.251
-48.7219
-48.7947
-32.3368
-1.65402
-1.67738
-32.2877
186.79
114.26
114.142
185.766
-38.7293
-38.8339
-44.7613
-47.7804
-38.7508
-47.7743
-44.8412
-38.9027
-40.5736
-40.5209
-41.6828
-42.0587
-39.4921
-75.5101
-75.4959
-39.3302
-40.8665
-47.0058
-44.3901
-42.9971
-40.9718
-42.9784
-44.2952
-46.7851
-41.7451
-41.9927
-42.538
-44.2887
-49.6911
-33.3737
-33.3571
-49.6886
-37.5603
-37.5523
-34.039
-34.0983
-32.7132
-153.495
-109.464
-41.6518
-41.5987
-45.6779
17.6608
17.4051
-46.3304
-38.1947
-32.9334
-36.95
-152.425
-32.97
-109.584
-41.8431
-41.6479
-45.3168
17.7578
16.8704
-46.2201
-32.8787
-38.123
-36.8978
-42.3514
-38.3539
-39.8753
-41.3293
-47.8803
-39.4522
-38.0503
-43.7506
-51.8165
-53.2457
-60.264
-32.7538
-49.2871
-45.7762
-51.117
-56.546
-41.7733
-41.301
-38.3687
-39.9627
-48.3467
-44.5134
-39.5785
-38.1545
-51.9469
-32.886
-53.1882
-60.1551
-49.2868
-56.5358
-45.8265
-51.1093
-24.5586
-16.3759
-77.5145
154.097
-150.34
-152.126
-106.115
80.6641
-65.4248
-50.3571
-64.0152
-57.348
-39.0809
-37.9984
-44.9627
-35.6825
-40.3254
-40.4013
-41.3619
-37.8689
-42.4077
-39.5851
-42.5722
-40.0076
-5.16354
-5.18882
-28.2341
77.9054
-55.9382
-49.725
-66.4741
-32.3116
-29.3517
-29.3355
-31.1134
-27.8209
-40.6592
-45.847
-43.8696
-41.2276
-30.6898
-16.7813
-77.3868
153.603
-65.5437
-50.419
-64.0703
-57.3651
-39.0169
-37.9454
-44.8373
-35.6384
-42.0227
-40.3299
-42.3963
-41.0005
-55.9682
-49.7637
-66.5169
-32.3686
-40.6294
-45.8408
-43.8697
-41.2167
-38.1154
-37.5001
-38.0943
-38.7728
-41.3924
-44.9069
-46.1471
-41.5851
-43.136
-43.104
-46.3298
-41.9559
-38.8917
-41.2517
-40.0055
-40.3503
-43.1556
-43.9141
-43.3166
-43.6095
-57.9
-54.4735
-51.2601
-72.146
19.9873
19.9198
25.2326
5.33105
-66.3334
-66.3308
-76.1328
-57.194
-38.0242
-37.5707
-38.1324
-38.7428
-41.385
-44.897
-46.1433
-41.5921
-38.9212
-41.1416
-40.0815
-40.4071
-57.8881
-54.4688
-51.2566
-72.1321
-76.7495
-66.8404
-67.2212
-59.7785
-76.7974
-66.8663
-67.2621
-59.7809
-67.4943
-59.1505
-59.1777
-53.9887
-22.8404
-14.679
-14.6689
-3.57047
192.102
195.494
201.936
191.795
-39.5144
-41.0652
-40.6989
-42.9981
-39.5493
-41.0836
-40.7426
-43.0189
-40.3534
-40.9461
-40.9592
-40.2589
-106.37
-92.8283
-97.3664
-106.387
-45.8937
-43.8994
-44.4183
-42.0508
-46.0661
-43.7989
-44.3468
-41.995
-42.4157
-41.9347
-42.0669
-42.5763
-34.8454
-38.4407
-38.4346
-43.0167
-33.872
-36.3789
-33.5865
-33.8383
-87.9108
113.239
-108.742
50.7399
-70.9479
-79.8729
-45.4423
-37.5646
-42.0718
-38.432
-46.9826
-45.8314
-68.1874
105.315
-33.3948
84.2816
-61.1109
-37.6154
-42.9377
-35.6039
-32.0493
-31.8875
-42.5545
-34.9392
-108.674
52.4559
-87.9063
114.141
-71.0644
-79.9662
-41.6011
-38.5129
-45.2637
-37.5585
-46.6573
-43.7674
-33.3081
84.4034
-67.7503
104.641
-61.2383
-37.6318
-32.0198
-31.8066
-42.8475
-35.556
-42.4862
-34.9171
-48.8469
-47.4064
-38.1785
-39.5337
-46.0168
-39.1397
-45.4225
-41.078
-40.5081
-40.0198
-38.9969
-41.0876
-38.8048
-39.3198
-44.2207
-42.6779
-51.8079
-17.6745
-48.4387
-47.6647
-53.0163
-84.731
10.7827
-12.2128
-44.3935
-51.2025
-44.0776
-43.2313
-48.1453
-61.7867
-69.8371
-57.4574
-48.9212
-47.3495
-45.3579
-41.0302
-38.2265
-39.5023
-45.9323
-39.167
-40.6753
-40.436
-44.1626
-43.3468
-39.0658
-41.1297
-38.8806
-39.4372
-51.8457
-17.5503
10.726
-12.1295
-48.4508
-47.6489
-52.9959
-84.7942
-44.4221
-51.1815
-69.8847
-57.4378
-44.0981
-43.2625
-48.2032
-61.7704
-73.6798
-71.8799
181.927
193.344
-80.1915
-80.1858
192.812
192.445
-78.1369
-58.8401
-66.7219
-52.8859
-46.5664
-45.5331
-36.3197
-35.3138
-42.5575
-43.3468
-37.0706
-37.0687
-41.4616
-45.2848
-41.2942
-42.2516
-29.5417
-29.5258
143.16
143.255
-59.2721
-75.6933
-28.7626
-12.1087
-32.6816
-32.6722
-32.4179
-32.4657
-44.9685
-43.0219
-43.6778
-35.7537
-74.0147
-72.1861
193.443
184.885
-78.1492
-58.8589
-66.6954
-52.7202
-45.4137
-46.3778
-36.297
-35.2743
-41.4694
-45.1846
-41.6268
-42.0705
-75.8245
-59.2597
-12.1007
-28.7982
-43.0322
-44.9483
-35.7412
-43.6734
-38.5635
-38.6861
-40.1696
-40.4728
-50.438
-50.6961
-39.7157
-43.8906
-49.5628
-49.6004
-41.2165
-41.1811
-39.3619
-42.0216
-40.8608
-42.1835
-41.7375
-42.0635
-42.7157
-42.7883
-45.7251
-47.2562
-96.5551
-83.5997
8.32289
8.3239
-34.4132
-33.672
-83.8619
-83.8006
-49.2424
-49.2447
-38.5855
-38.7405
-40.1011
-40.4266
-50.7071
-50.4326
-39.7312
-43.8919
-42.0776
-39.4292
-40.9212
-42.2186
-47.259
-45.6991
-83.5692
-96.7214
-89.3152
-76.7675
-77.7486
-83.5066
-43.7632
-45.8559
-59.6606
-57.1687
-51.522
-57.7329
-59.4839
-46.9521
-62.6011
-72.7142
-76.7948
-68.7543
-89.3714
-83.451
-77.7514
-76.8389
-62.1877
-68.9196
-76.8058
-72.4109
-51.5244
-46.9695
-59.4327
-57.7488
-43.6453
-57.1953
-59.6726
-45.8222
-115.412
-106.437
-67.2592
-65.5007
-115.527
-65.5569
-67.2733
-106.588
-44.2067
-46.0696
-53.6454
-51.4863
-44.2754
-51.5214
-53.7974
-46.1041
-40.3338
-36.8807
-24.1833
-29.433
-12.6116
21.0482
-4.49809
-24.6365
-12.7864
-24.6141
-4.50484
21.0253
-40.2716
-29.4071
-24.2355
-36.8849
-197.021
153.205
192.885
84.3108
83.2634
82.3015
200.075
158.869
82.3164
158.769
200.029
82.1261
-196.725
85.2843
192.657
152.916
-38.6172
-38.0223
-39.4096
-40.0569
-38.69
-39.2849
-39.4441
-38.3069
-47.4578
-49.33
-42.4882
-41.3283
-53.2547
-43.9966
-43.418
-52.3779
-38.6541
-40.0701
-39.431
-38.0366
-53.2217
-52.3714
-43.4309
-43.9926
-47.4631
-41.4642
-42.5251
-49.3062
-38.7806
-38.3731
-39.4939
-39.3577
-40.0146
-41.7403
-40.7693
-39.1559
-39.9954
-39.1157
-40.7251
-41.7079
-44.2875
-43.6684
-40.7871
-39.5288
-44.4144
-39.5355
-40.8974
-43.5313
-77.3166
-81.556
-87.2944
0.453177
-58.8329
-74.5897
-94.5782
-65.6803
-58.8257
-65.6655
-94.637
-74.6402
-77.047
0.423998
-86.6044
-81.5562
-41.154
-40.5094
-41.7551
-39.7429
-46.098
-45.2167
-45.0814
-45.2755
-41.4263
-43.5449
-45.8273
-44.2845
-45.6838
-41.5713
-42.2142
-43.9873
-41.399
-39.8189
-41.7397
-40.4705
-45.7023
-44.0043
-42.2034
-41.5977
-41.3429
-44.182
-45.8361
-43.5024
-45.9163
-45.2106
-45.0852
-45.0735
-43.3386
-43.1894
-42.139
-40.1103
-44.2647
-40.5244
-42.2643
-43.7472
-42.4041
-41.4908
-42.2151
-41.4911
-42.9283
-42.36
-42.2686
-41.615
-53.4043
-45.9915
-43.1487
-57.2248
-33.1467
-31.3933
-35.0946
-37.5442
-33.1182
-37.5221
-35.0843
-31.385
-53.4028
-57.2201
-43.1596
-45.9825
-37.8806
-38.0254
-36.38
-36.4857
-37.8867
-36.464
-36.3677
-38.0103
-34.7125
-29.2616
-34.2727
-36.0772
-34.7695
-36.1156
-34.3035
-29.3243
-54.0763
-64.9302
-136.294
-42.1763
-41.9247
-44.3274
19.145
44.5262
-50.0295
-38.3037
-34.6221
-36.8156
-64.685
-54.2313
-136.384
-42.0809
-42.2023
-44.3266
44.1411
18.5883
-49.9415
-34.5682
-38.2253
-36.7571
-41.2362
-38.9387
-41.0701
-40.7257
-41.2203
-40.3119
-38.6891
-44.0437
-60.447
-56.1847
-61.0458
-70.4351
-49.767
-47.8072
-50.4861
-52.7889
-41.2734
-40.7326
-38.9626
-41.1918
-41.4414
-44.4814
-40.483
-38.8254
-60.1708
-70.5233
-56.1018
-60.9835
-49.7668
-52.7844
-47.9357
-50.3761
-27.595
-23.5809
-79.4611
75.1724
-148.955
-149.291
-126.804
-5.22592
-60.7447
-53.0422
-61.8505
-56.5167
-37.1845
-37.7432
-42.7717
-36.09
-40.311
-40.3407
-40.4642
-39.6163
-39.9055
-40.027
-41.8796
-39.5652
-6.04038
-6.09954
-25.5621
34.7026
-58.3802
-54.4366
-64.8625
-42.244
-29.0105
-28.993
-30.7792
-26.4178
-41.951
-44.5962
-43.7146
-42.9648
-32.988
-23.9945
-79.6521
72.9898
-60.8595
-53.1295
-61.9265
-56.586
-37.1279
-37.6889
-42.6985
-36.0022
-39.8148
-39.5184
-41.8653
-40.5081
-58.4455
-54.4772
-64.905
-42.2535
-41.9291
-44.5916
-43.7182
-42.9477
-36.4297
-37.2323
-37.3266
-38.0067
-42.0843
-43.7893
-43.91
-42.0767
-43.3116
-43.2952
-44.4185
-42.5555
-39.3705
-40.4787
-39.8778
-39.7538
-43.3397
-43.5464
-43.6619
-43.1258
-57.1865
-55.3921
-53.609
-63.0786
22.0854
22.0733
25.6743
15.3464
-66.5887
-66.5873
-70.8863
-62.1224
-36.4658
-37.2775
-37.3612
-38.0089
-42.076
-43.7802
-43.9016
-42.0763
-39.3829
-40.4299
-39.8628
-39.7999
-57.1773
-55.3805
-53.5993
-63.0716
-72.9583
-66.9846
-67.1453
-62.5726
-73.0076
-67.0135
-67.1832
-62.593
-63.3446
-59.6735
-59.6506
-56.6115
-17.7925
-13.2855
-13.2729
-7.83505
194.049
195.388
193.012
194.009
-40.2878
-41.1886
-40.8663
-41.8748
-40.3204
-41.2121
-40.9026
-41.9002
-40.4484
-40.3622
-40.6039
-40.3899
-107.128
-109.904
-102.753
-107.183
-44.8968
-44.1654
-44.2995
-42.9896
-45.0795
-43.9366
-44.1434
-42.8913
-42.37
-42.1696
-42.1977
-42.3214
-36.3775
-38.1985
-38.1969
-40.2399
-33.4752
-33.653
-33.9161
-33.4553
-27.0715
-35.07
-99.0717
71.7527
-170.961
-150.478
-129.257
-31.1102
-89.0809
-71.58
-74.4218
-78.8142
-40.9941
-40.28
-44.1484
-38.0899
-41.0403
-40.2128
-41.0471
-39.6678
-48.0711
-46.1034
-47.7482
-46.901
8.1887
-11.245
-66.2468
66.3319
13.2642
-4.47181
-28.356
40.1591
-48.9354
-55.726
-57.4131
-42.2125
-38.0338
-37.9793
-42.0137
-36.2192
-31.618
-29.9761
-31.6711
-30.6711
-37.385
-39.2111
-40.791
-36.0388
-172.489
-152.37
-130.154
-30.2023
-22.1909
-31.3651
-99.1718
70.0798
-89.2466
-71.7084
-74.4716
-79.0125
-41.2129
-40.3275
-40.9177
-39.7918
-40.9728
-40.2302
-44.0541
-38.0721
-47.5768
-45.0359
-47.2726
-45.104
12.9132
-4.58875
-27.9271
40.3558
7.42671
-11.7113
-66.4978
65.6756
-48.9807
-55.7814
-57.533
-42.348
-31.5568
-29.9212
-31.6326
-30.6003
-37.9693
-37.9123
-41.9339
-36.1689
-37.3406
-39.1784
-40.7361
-36.0145
-44.3149
-47.4486
-47.7457
-46.4276
-38.3975
-38.1553
-37.0422
-38.8866
-40.5443
-40.8337
-41.7141
-39.6293
-41.9662
-42.8381
-43.5975
-41.6408
-43.5007
-37.8071
-40.1649
-38.7085
-39.4544
-37.8799
-38.4122
-40.2738
-38.0788
-38.4628
-38.5351
-37.3787
-43.2408
-43.043
-43.6772
-42.5897
-49.6135
-49.717
-52.4781
-32.1738
-50.3018
-46.3519
-48.0869
-47.8409
-59.8645
-58.5624
-55.9459
-69.5207
-4.21365
16.0677
12.4517
0.31785
-48.1835
-46.4084
-45.5341
-48.9507
-44.7885
-42.1554
-43.6789
-43.1561
-51.6766
-53.538
-50.9817
-56.7877
-61.1601
-65.6657
-66.8179
-61.9406
-44.1257
-47.5486
-47.797
-46.4464
-41.918
-42.7921
-43.5385
-41.5901
-38.4189
-38.0924
-37.1234
-38.8771
-40.5815
-40.8233
-41.6578
-39.6527
-43.9994
-38.1844
-40.4227
-39.1913
-44.1695
-44.1425
-44.6423
-43.7699
-39.5388
-37.9732
-38.4803
-40.3792
-38.1768
-38.5232
-38.599
-37.478
-49.8901
-49.7801
-52.5404
-32.0487
-4.30218
15.9965
12.4042
0.294156
-50.2574
-46.335
-48.0654
-47.8223
-59.7616
-58.5376
-55.9211
-69.5159
-48.1928
-46.4104
-45.568
-48.9538
-61.1201
-65.6792
-66.7721
-61.958
-44.8412
-42.1302
-43.6675
-43.1713
-51.7173
-53.5387
-50.9927
-56.7761
-75.9741
-75.1576
-73.3797
-72.8665
177.783
189.809
182.142
182.614
-90.4435
-72.9599
-80.5749
-80.5749
131.143
195.462
194.842
194.782
-65.4581
-66.4875
-72.3166
-61.4312
-58.0696
-58.7476
-62.2316
-55.465
-45.3537
-46.5475
-46.1812
-45.8762
-35.2621
-34.326
-34.5028
-35.2313
-42.3568
-42.8968
-42.7606
-43.0778
-36.8947
-37.6746
-37.0079
-37.0044
-42.8633
-43.666
-42.2021
-43.3463
-40.3075
-41.5585
-40.8555
-41.615
-30.5173
-26.2604
-28.9616
-28.9363
108.964
185.786
139.29
139.2
-67.5566
-67.3578
-63.6633
-74.2921
-25.7946
-17.1593
-25.2374
-16.5507
-31.6027
-33.5641
-32.5016
-32.4982
-29.9186
-32.7024
-31.8407
-31.8676
-43.9671
-44.3071
-44.5037
-43.7158
-39.9533
-38.7253
-41.2659
-37.3577
-75.8138
-75.3014
-73.7101
-73.1705
181.18
188.227
184.819
183.899
-65.4961
-66.5137
-72.3523
-61.4579
-58.0229
-58.886
-62.2119
-55.3059
-45.2228
-46.3833
-45.7395
-46.014
-35.2181
-34.2848
-34.4646
-35.1921
-42.7484
-43.6335
-42.1525
-43.2787
-41.37
-41.8448
-41.5435
-41.7543
-67.5895
-67.3977
-74.2763
-63.8472
-25.8683
-17.1585
-16.5507
-25.276
-43.9568
-44.2529
-43.702
-44.5027
-39.9366
-38.7485
-37.3436
-41.2635
-38.3309
-38.9731
-38.597
-38.6752
-39.4342
-40.1671
-39.696
-40.1595
-48.1063
-55.5876
-50.3337
-50.6931
-41.4547
-41.321
-40.4395
-42.5461
-48.4072
-51.7528
-49.7797
-49.8027
-41.604
-41.5688
-41.3851
-41.3667
-40.1742
-40.4974
-39.8849
-41.065
-41.2062
-41.4415
-41.1207
-41.6631
-42.5127
-41.2779
-41.7691
-41.9126
-43.5682
-42.7229
-43.0153
-42.9966
-49.0555
-44.4194
-45.9928
-46.8307
-85.4904
-102.862
-98.0822
-89.6743
19.4864
4.47056
11.1879
11.185
-10.8445
-53.5475
-34.0412
-33.954
-80.9795
-90.9165
-85.4223
-85.3699
-53.0304
-45.7671
-49.1164
-49.1144
-38.3706
-39.0097
-38.6261
-38.7229
-39.3628
-40.0608
-39.6042
-40.065
-48.1071
-55.5878
-50.6958
-50.3274
-41.4643
-41.3329
-40.4504
-42.5502
-40.2425
-40.5486
-41.1225
-39.9489
-41.2631
-41.438
-41.1674
-41.6888
-49.0551
-44.4347
-46.8379
-45.9977
-85.4615
-102.777
-89.6201
-98.2141
-77.9482
-71.0883
-73.1735
-75.6836
-49.3138
-49.1758
-55.0099
-49.9634
-51.3371
-49.5151
-54.2371
-51.0325
-68.0889
-65.3117
-69.9628
-71.5713
-77.8743
-71.2445
-73.4796
-75.941
-68.1709
-65.549
-70.2766
-71.8067
-51.3687
-49.5373
-54.1107
-51.0503
-49.3361
-49.153
-55.0262
-49.9634
-91.2165
-81.1105
-80.7311
-72.7744
-91.0641
-80.9548
-80.6942
-72.6955
-48.1107
-47.3604
-50.5961
-49.2204
-48.1869
-47.4293
-50.6799
-49.2718
-32.7546
-34.9797
-30.2557
-31.2017
-6.10429
5.19686
-9.17284
4.49835
-6.15534
5.11697
-9.14744
4.46713
-32.6956
-34.8626
-30.2008
-31.1922
178.284
150.987
183.602
190.681
88.3561
96.7715
162.261
140.156
96.637
88.2952
140.06
162.389
154.68
165.603
189.167
185.412
-38.6676
-38.8837
-38.6697
-39.0791
-38.7926
-38.8709
-38.7409
-38.9893
-44.4278
-46.1315
-43.2013
-45.3375
-47.6875
-50.2771
-45.5558
-47.3635
-38.6922
-38.9092
-38.6883
-39.099
-47.6768
-50.2644
-45.5531
-47.3584
-44.4654
-46.2584
-43.2633
-45.3764
-38.8634
-38.9425
-38.8016
-39.0567
-40.084
-40.743
-40.6384
-40.9357
-40.6951
-40.0354
-40.8872
-40.5812
-42.7257
-41.5106
-41.7057
-40.9096
-41.6526
-43.5356
-41.081
-42.1257
-64.4413
-28.3618
-63.9473
-35.121
-67.7865
-72.8047
-79.1806
-81.0849
-72.8505
-67.7604
-81.0721
-79.1399
-28.3318
-64.6338
-34.9537
-63.6203
-40.767
-41.2853
-41.0446
-40.813
-46.7433
-47.1041
-46.8098
-46.9502
-43.9022
-43.6627
-45.0174
-44.9536
-43.6775
-43.2326
-42.8574
-42.6348
-40.8839
-41.4069
-41.1085
-40.8923
-43.697
-43.2753
-42.8576
-42.6407
-43.8036
-43.5808
-44.9081
-44.8748
-46.5299
-46.8555
-46.5983
-46.7366
-41.0855
-42.3486
-41.4891
-42.3276
-41.3719
-42.6632
-41.7741
-42.4768
-42.0676
-43.0331
-42.4725
-42.5501
-43.2858
-44.9975
-43.7741
-43.7187
-50.5
-53.4419
-46.7467
-49.4881
-32.6314
-34.0705
-32.9748
-34.4438
-32.6104
-34.0518
-32.9556
-34.4297
-50.5005
-53.4367
-46.7391
-49.4809
-37.5415
-37.7501
-37.3871
-37.4561
-37.7388
-37.5391
-37.4465
-37.3751
-33.0061
-34.9308
-33.2171
-34.7892
-34.9838
-33.0785
-34.8374
-33.2771
-107.803
-196.274
-146.427
13.4098
-94.515
-113.919
-44.3171
-38.1778
-41.5936
-39.213
-46.6364
-43.6062
-63.6161
69.7044
-30.0497
58.7099
-55.9347
-41.8718
-40.6116
-35.9022
-32.7183
-33.9863
-40.1613
-34.2652
-146.57
14.3277
-107.979
-196.019
-94.5228
-114.113
-41.5661
-39.3194
-44.2439
-38.1673
-46.4481
-43.2288
-29.9601
58.4927
-63.5678
69.3599
-55.662
-42.0872
-32.6829
-33.9257
-40.5162
-35.8386
-40.0914
-34.2314
-41.1468
-43.5655
-39.1467
-39.2507
-42.2464
-38.9201
-42.3141
-40.5579
-44.7087
-46.0106
-38.5985
-42.3315
-38.6423
-36.5948
-44.6933
-43.5002
-53.7083
-34.3468
-52.3541
-53.4557
-56.186
-78.5134
-15.5719
-41.2935
-47.9157
-50.6777
-46.8776
-45.6631
-49.4654
-54.7554
-57.7798
-54.8472
-40.8343
-43.4927
-42.2763
-40.5366
-39.1733
-39.2576
-41.7701
-38.9652
-45.1172
-46.8437
-44.7773
-44.2774
-38.7119
-42.4105
-38.7361
-36.7167
-53.6937
-34.78
-15.4918
-41.7708
-52.3235
-53.4132
-56.1989
-78.3849
-47.9263
-50.673
-57.7698
-54.86
-46.89
-45.7001
-49.4651
-54.7438
-84.929
76.2524
-75.8922
92.0444
-80.6898
-75.123
148.464
158.819
-127.445
-23.8026
-127.75
-20.558
-106.21
-106.297
78.2014
77.6605
-74.3548
-64.7182
-54.7236
-50.6033
-69.9894
-59.9096
-61.0378
-54.1879
-42.75
-36.7958
-42.4501
-36.4532
-45.1276
-44.6987
-35.2579
-36.0661
-40.7178
-39.6355
-40.6718
-39.6964
-41.4013
-41.4789
-37.9378
-37.9285
-43.732
-42.6795
-40.0336
-39.4931
-41.628
-42.8642
-39.6908
-41.2716
-22.1714
36.0019
-22.2244
35.8732
-27.7052
-27.7197
80.7398
80.5517
-65.3361
-43.4546
-55.965
-36.5988
-61.8226
-69.4697
-34.7324
-28.8593
-31.0842
-28.1918
-31.0599
-28.165
-31.1943
-31.1898
-28.1997
-28.2412
-42.3689
-39.0779
-44.77
-46.8912
-43.7268
-43.8469
-43.6053
-39.3331
-85.1378
72.9079
-76.0308
91.246
-80.5875
-74.9414
157.359
148.811
-74.4413
-64.8424
-54.7486
-50.6258
-70.0547
-59.9495
-61.0868
-54.1729
-42.7027
-36.7085
-42.3657
-36.4079
-44.5999
-44.9696
-35.2133
-36.0287
-43.6488
-42.1365
-40.1616
-39.7269
-41.544
-42.7709
-40.6703
-41.7285
-65.5078
-43.4344
-56.0008
-36.6134
-69.5276
-61.8654
-28.8224
-34.7732
-42.3312
-39.0493
-44.7824
-46.8761
-43.8634
-43.7016
-39.3244
-43.5939
-38.876
-38.5521
-37.4111
-38.7006
-38.0414
-38.1435
-38.6131
-39.0225
-42.7671
-40.6131
-45.5921
-44.3129
-45.8676
-46.5283
-40.7199
-42.7123
-44.1965
-42.3305
-44.1637
-42.2984
-46.3046
-46.3219
-41.9286
-41.9124
-39.076
-38.6745
-41.1879
-41.3535
-39.639
-40.4997
-39.985
-40.926
-43.281
-42.9923
-44.0154
-43.9404
-43.436
-43.3499
-43.306
-43.7799
-55.2364
-66.4665
-52.1775
-59.5478
-50.3976
-51.9679
-76.2942
-68.515
22.9512
13.0093
22.9266
12.8372
23.2611
23.3253
3.76275
3.74978
-70.6101
-61.9772
-70.6384
-61.97
-75.3058
-75.3448
-57.1842
-57.1797
-38.8404
-38.5346
-37.4899
-38.7374
-38.0805
-38.2004
-38.5812
-39.0027
-42.7415
-40.618
-45.5812
-44.3064
-46.5351
-45.8541
-40.7306
-42.7138
-39.0855
-38.7458
-41.1733
-41.3719
-40.6094
-39.7098
-40.0466
-40.9816
-55.225
-66.4609
-52.1773
-59.5387
-51.9629
-50.3911
-68.4963
-76.3186
-77.1788
-76.4863
-72.8908
-62.3849
-62.6457
-73.2885
-59.7328
-59.8015
-77.2045
-76.5298
-72.9255
-62.4066
-73.3462
-62.6814
-59.7939
-59.7403
-67.2642
-67.2669
-62.8935
-56.1564
-62.9123
-56.0056
-53.9439
-53.9997
-23.218
-23.2234
-19.5678
-9.73478
-9.7444
-19.5683
-4.82036
-4.83159
192.576