# vtk DataFile Version 2.0
tet_velo
ASCII
DATASET UNSTRUCTURED_GRID
POINTS 29498 float
-0.639973 0.275 -2.065
-0.845 0.275 2.23064
-0.639189 0.815 -1.975
-0.845 0.795 2.21774
0.639973 0.275 -2.065
0.845 0.275 2.23064
0.639189 0.815 -1.975
0.845 0.795 2.21774
-0.710601 0.272714 -0.63312
-0.778778 0.272879 0.79876
-0.841943 0.942484 -0.57742
-0.845753 0.871023 0.82016
0.710603 0.272713 -0.63312
0.77878 0.272877 0.79876
0.841951 0.942491 -0.57742
0.845749 0.871019 0.82016
-1.41624 -0.0495949 -3.22228
-1.40873 -0.0231658 -2.09052
-1.47576 -0.0201787 -0.657749
-1.55603 -0.0219846 0.781921
-1.61624 -0.0222948 2.21527
-1.62871 -0.0381381 3.34988
-1.62472 -0.0586594 4.47923
-1.40582 0.241718 -3.18961
-1.40215 0.281852 -2.06159
-1.4956 0.289691 -0.635501
-1.57928 0.270119 0.79368
-1.64266 0.257253 2.22043
-1.64757 0.240317 3.35456
-1.63732 0.221884 4.48502
-1.40887 0.819827 -3.11465
-1.42359 0.862183 -1.98521
-1.58477 0.931912 -0.5825
-1.63803 0.870449 0.81778
-1.6606 0.806581 2.22115
-1.65999 0.791336 3.3567
-1.64888 0.78295 4.49269
-1.44717 1.76068 -3.02799
-1.47022 1.80118 -1.90369
-1.54954 1.83676 -0.5121
-1.614 1.79623 0.872096
-1.63861 1.72677 2.26404
-1.6424 1.68983 3.38909
-1.63985 1.67051 4.52134
-0.696222 -0.0559314 -3.2245
-0.667594 -0.0293209 -2.09374
-0.709408 -0.0298495 -0.657316
-0.761865 -0.0203758 0.786257
-0.806027 -0.0112497 2.22285
-0.815426 -0.0318809 3.35503
-0.812693 -0.0565441 4.4822
-0.68938 0.231409 -3.19029
-0.831367 0.245234 3.3588
-0.822513 0.222652 4.48727
-0.685988 0.797638 -3.11041
-0.838836 0.786261 3.35601
-0.831524 0.779234 4.49254
-0.692147 1.75088 -3.0238
-0.696327 1.79482 -1.89907
-0.75553 1.83972 -0.509315
-0.807881 1.7964 0.871762
-0.825197 1.72096 2.26166
-0.8281 1.68327 3.38671
-0.827457 1.66514 4.51961
0.68095 -0.0559308 -3.22449
0.687471 -0.0293209 -2.09374
0.737722 -0.0298506 -0.657316
0.794792 -0.0203772 0.786257
0.83835 -0.0112502 2.22285
0.830221 -0.0318814 3.35503
0.820703 -0.0565445 4.4822
0.661741 0.23141 -3.19029
0.829853 0.245233 3.3588
0.818959 0.222651 4.48727
0.673738 0.797639 -3.11041
0.827696 0.786261 3.35601
0.814816 0.779234 4.49254
0.786147 1.75088 -3.0238
0.814707 1.79482 -1.89907
0.829041 1.83972 -0.509315
0.819878 1.7964 0.871762
0.815406 1.72096 2.26166
0.810397 1.68327 3.38671
0.804007 1.66514 4.51961
1.39484 -0.0495936 -3.22228
1.40684 -0.0231649 -2.09052
1.48484 -0.0201796 -0.657749
1.57282 -0.0219872 0.781921
1.6343 -0.0222964 2.21527
1.6402 -0.0381392 3.34988
1.63137 -0.0586606 4.47923
1.3747 0.241719 -3.18961
1.38448 0.281854 -2.06159
1.48588 0.289691 -0.635501
1.57644 0.270116 0.79368
1.64135 0.257252 2.22043
1.64515 0.240316 3.35456
1.63308 0.221883 4.48502
1.39446 0.819829 -3.11465
1.41538 0.862187 -1.98521
1.57737 0.931918 -0.5825
1.63074 0.870446 0.817779
1.65274 0.806579 2.22115
1.6466 0.791334 3.3567
1.6315 0.782948 4.49269
1.52591 1.76068 -3.02799
1.56301 1.80119 -1.90369
1.60722 1.83677 -0.512101
1.62355 1.79623 0.872096
1.62797 1.72677 2.26404
1.62404 1.68983 3.38909
1.61609 1.67051 4.52134
-0.668056 0.545 -2.04848
0 0.289432 -2.05057
-0.676542 0.272602 -1.34906
-0.845408 0.535 2.2246
0 0.271094 2.23455
-0.812941 0.272888 1.5147
0 0.928541 -2.08854
-0.782523 0.920699 -1.27621
0 0.843151 2.26589
-0.854593 0.842228 1.51895
0.668033 0.545 -2.04845
0.676542 0.272602 -1.34906
0.845421 0.535 2.22461
0.812943 0.272886 1.5147
0.782526 0.920702 -1.27621
0.854609 0.842244 1.51895
-0.744688 0.272798 0.0828199
-0.846891 0.607599 -0.60527
8.16678e-07 0.278409 -0.63312
-0.847016 0.571951 0.80946
8.55532e-07 0.274613 0.79876
-0.845434 0.908339 0.12137
3.89332e-06 1.36346 -0.57742
-2.08627e-06 1.39369 0.82016
0.744689 0.272798 0.0828199
0.846891 0.607602 -0.60527
0.847016 0.571948 0.80946
0.845433 0.908339 0.12137
-0.897014 0.576299 -1.31264
-0.846467 0.589775 0.102095
-0.897139 0.553476 1.51683
4.08339e-07 0.285922 -1.34906
8.36105e-07 0.276153 0.0828199
4.27766e-07 0.274598 1.5147
0 0.545 -2.36647
0 0.535 2.34951
1.94666e-06 1.06506 -1.27621
9.03523e-07 1.46948 0.12137
-1.04313e-06 1.19439 1.51895
0.897015 0.576301 -1.31264
0.846467 0.589775 0.102095
0.897139 0.553474 1.51683
-1.02106 0.278426 -2.0633
-0.653783 0.12284 -2.07937
-0.664676 0.253205 -2.62765
-1.24383 0.266126 2.22553
-0.825513 0.131875 2.22674
-0.838184 0.260117 2.79472
-1.03139 0.838592 -1.98011
-0.662589 0.806319 -2.5427
-0.667758 1.30491 -1.93703
-1.2528 0.80079 2.21944
-0.841918 0.790631 2.78688
-0.835098 1.25798 2.2397
0.663722 0.12284 -2.07937
0.650857 0.253205 -2.62765
1.01223 0.278427 -2.0633
0.841675 0.131875 2.22675
0.837426 0.260117 2.79472
1.24318 0.266126 2.22553
0.656464 0.806319 -2.5427
0.726948 1.30491 -1.93703
1.02728 0.838594 -1.98011
0.836348 0.79063 2.78688
0.830203 1.25798 2.2397
1.24887 0.80079 2.21944
-1.1031 0.281203 -0.63431
-0.710005 0.121432 -0.645218
-1.17903 0.271499 0.79622
-0.770322 0.126252 0.792509
-1.21336 0.937198 -0.57996
-0.798736 1.3911 -0.543368
-1.24189 0.870736 0.81897
-0.826817 1.33371 0.845961
0.724163 0.121431 -0.645218
1.09824 0.281202 -0.63431
0.786786 0.12625 0.792509
1.17761 0.271497 0.79622
0.835496 1.3911 -0.543368
1.20966 0.937205 -0.57996
0.832813 1.33371 0.845961
1.23825 0.870732 0.81897
-1.41248 -0.0363803 -2.6564
-1.41103 0.0960613 -3.20595
-1.05623 -0.0527631 -3.22339
-1.44224 -0.0216722 -1.37413
-1.40544 0.129343 -2.07605
-1.03816 -0.0262433 -2.09213
-1.51589 -0.0210816 0.0620862
-1.48568 0.134756 -0.646625
-1.09258 -0.0250141 -0.657532
-1.58614 -0.0221397 1.4986
-1.56766 0.124067 0.7878
-1.15895 -0.0211802 0.784089
-1.62248 -0.0302164 2.78258
-1.62945 0.117479 2.21785
-1.21113 -0.0167722 2.21906
-1.62672 -0.0483987 3.91456
-1.63814 0.101089 3.35222
-1.22207 -0.0350095 3.35245
-1.63102 0.0816122 4.48212
-1.21871 -0.0576017 4.48071
-1.40398 0.261785 -2.6256
-1.40734 0.530772 -3.15213
-1.0476 0.236563 -3.18995
-1.44888 0.285771 -1.34855
-1.41287 0.572017 -2.0234
-1.53744 0.279905 0.0790895
-1.54019 0.610802 -0.609001
-1.61097 0.263686 1.50705
-1.60866 0.570284 0.80573
-1.64512 0.248785 2.78749
-1.65163 0.531917 2.22079
-1.64244 0.2311 3.91979
-1.65378 0.515826 3.35563
-1.23947 0.242775 3.35668
-1.6431 0.502417 4.48885
-1.22992 0.222268 4.48614
-1.41623 0.841005 -2.54993
-1.42802 1.29025 -3.07132
-1.04743 0.808732 -3.11253
-1.50418 0.897048 -1.28386
-1.4469 1.33168 -1.94445
-1.6114 0.901181 0.11764
-1.56716 1.38434 -0.5473
-1.64932 0.838515 1.51946
-1.62602 1.33334 0.844938
-1.66029 0.798958 2.78892
-1.6496 1.26667 2.2426
-1.65444 0.787143 3.92469
-1.6512 1.24058 3.37289
-1.24941 0.788798 3.35635
-1.64436 1.22673 4.50701
-1.2402 0.781092 4.49262
-1.45869 1.78093 -2.46584
-1.06966 1.75578 -3.02589
-1.50988 1.81897 -1.20789
-1.08327 1.798 -1.90138
-1.58177 1.8165 0.179998
-1.15253 1.83824 -0.510708
-1.6263 1.7615 1.56807
-1.21094 1.79632 0.871929
-1.6405 1.7083 2.82657
-1.2319 1.72387 2.26285
-1.64113 1.68017 3.95522
-1.23525 1.68655 3.3879
-1.23365 1.66783 4.52047
-0.681908 -0.0426261 -2.65912
-0.692801 0.087739 -3.20739
-0.00763607 -0.0559311 -3.2245
-0.688501 -0.0295852 -1.37553
0.00993889 -0.0293209 -2.09374
-0.735637 -0.0251127 0.0644708
0.0141569 -0.0298501 -0.657316
-0.783946 -0.0158127 1.50455
0.0164636 -0.0203765 0.786257
-0.810726 -0.0215653 2.78894
0.0161615 -0.0112499 2.22285
-0.814059 -0.0442125 3.91861
-0.823397 0.106677 3.35691
0.00739767 -0.0318811 3.35503
-0.817603 0.0830538 4.48473
0.00400513 -0.0565443 4.4822
-0.687684 0.514524 -3.15035
-0.0138193 0.23141 -3.19029
-0.82694 0.233943 3.92303
-0.835101 0.515748 3.35741
-0.000757293 0.245234 3.3588
-0.827019 0.500943 4.4899
-0.00177715 0.222651 4.48727
-0.689068 1.27426 -3.0671
-0.00612504 0.797638 -3.11041
-0.83518 0.782748 3.92428
-0.833468 1.23476 3.37136
-0.00556998 0.786261 3.35601
-0.829491 1.22219 4.50608
-0.00835424 0.779234 4.49254
-0.694237 1.77285 -2.46143
0.0469998 1.75088 -3.0238
-0.725929 1.81727 -1.20419
0.0591898 1.79482 -1.89907
-0.781706 1.81806 0.181224
0.0367553 1.83972 -0.509315
-0.816539 1.75868 1.56671
0.0059985 1.7964 0.871762
-0.826649 1.70212 2.82418
-0.00489545 1.72096 2.26166
-0.827779 1.6742 3.95316
-0.0088513 1.68327 3.38671
-0.0117249 1.66514 4.51961
0.684211 -0.0426259 -2.65912
0.671345 0.0877395 -3.20739
1.0379 -0.0527622 -3.22339
0.712597 -0.0295858 -1.37553
1.04716 -0.0262429 -2.09213
0.766257 -0.0251139 0.0644708
1.11128 -0.0250151 -0.657532
0.816571 -0.0158137 1.50455
1.18381 -0.0211822 0.784089
0.834285 -0.0215658 2.78894
1.23632 -0.0167733 2.21906
0.825462 -0.044213 3.91862
0.830037 0.106676 3.35691
1.23521 -0.0350103 3.35246
0.819831 0.0830533 4.48474
1.22603 -0.0576026 4.48072
0.66774 0.514524 -3.15035
1.01822 0.236565 -3.18995
0.824406 0.233942 3.92303
0.828774 0.515747 3.35741
1.2375 0.242775 3.35668
0.816887 0.500942 4.4899
1.22602 0.222267 4.48614
0.729943 1.27426 -3.0671
1.0341 0.808734 -3.11253
0.821256 0.782747 3.92428
0.819047 1.23476 3.37136
1.23715 0.788798 3.35635
0.809412 1.22219 4.50607
1.22316 0.781091 4.49262
0.800427 1.77285 -2.46143
1.15603 1.75578 -3.02589
0.821874 1.81727 -1.20419
1.18886 1.798 -1.90138
0.824459 1.81806 0.181223
1.21813 1.83824 -0.510708
0.817642 1.75868 1.56671
1.22171 1.79631 0.871929
0.812902 1.70212 2.82418
1.22169 1.72386 2.26285
0.807202 1.6742 3.95316
1.21722 1.68655 3.3879
1.21005 1.66783 4.52047
1.40084 -0.0363792 -2.6564
1.38477 0.0960628 -3.20595
1.44584 -0.0216723 -1.37413
1.39566 0.129344 -2.07605
1.52883 -0.0210834 0.0620861
1.48536 0.134756 -0.646625
1.60356 -0.0221418 1.4986
1.57463 0.124064 0.7878
1.63725 -0.0302178 2.78258
1.63782 0.117478 2.21785
1.63578 -0.0483999 3.91456
1.64268 0.101088 3.35222
1.63222 0.081611 4.48212
1.37959 0.261786 -2.6256
1.38458 0.530774 -3.15213
1.43518 0.285772 -1.34855
1.39993 0.57202 -2.0234
1.53116 0.279904 0.0790894
1.53162 0.610805 -0.609001
1.60889 0.263684 1.50705
1.60359 0.570281 0.80573
1.64325 0.248784 2.78749
1.64705 0.531915 2.22079
1.63912 0.231099 3.91979
1.64588 0.515825 3.35563
1.63229 0.502415 4.48885
1.40492 0.841008 -2.54993
1.46018 1.29025 -3.07132
1.49637 0.897053 -1.28386
1.48919 1.33169 -1.94445
1.60406 0.901182 0.117639
[...]
POINT_DATA 29498
VECTORS point_vectors float
-1.43224 -5.36413 9.20852
-0.0484356 0.688232 2.6236
-0.704752 0.545825 1.33201
0.428078 -0.0287858 1.94123
1.42861 -5.36467 9.20703
0.0483964 0.688045 2.62334
0.703352 0.544897 1.32878
-0.43645 -0.0223182 1.92386
-6.38355e-06 2.60892e-07 6.3311e-05
-2.14091e-05 -5.35516e-07 0.000330067
-0.123758 -0.119582 1.72138
0.0508721 0.140451 0.279138
1.25972e-05 5.1617e-07 0.000124893
1.96899e-05 -4.95769e-07 0.000303126
0.124099 -0.12002 1.72267
-0.0512135 0.12507 0.257705
-0.592063 -0.286675 19.7863
-1.36213 -0.909774 20.4017
-0.485979 -0.408908 21.3394
-0.0623419 -0.0328341 21.358
0.324937 0.267745 21.3162
0.513093 0.40502 21.129
0.53551 0.164612 20.8151
-0.697594 -0.221545 19.6747
-1.98626 -0.823487 20.3063
-0.596598 -0.430094 21.4478
-0.0460509 -0.0310433 21.4229
0.45063 0.236336 21.4075
0.63761 0.359625 20.8671
0.707475 0.179192 21.1357
-0.82772 0.0957274 19.5952
-2.2138 0.294805 20.2929
-0.950729 -0.150691 21.4033
-0.0731485 -0.0552146 21.5172
0.604068 0.0366582 21.3951
0.873785 -0.0177506 20.6899
0.838919 0.00285138 21.1512
-0.54162 0.40169 19.8965
-0.966324 0.700665 20.4154
-0.780184 0.368587 21.2366
-0.0765251 0.00766107 21.4904
0.407497 -0.2224 21.2718
0.609423 -0.333512 20.8625
0.460316 -0.263904 20.8642
-0.551085 -0.639571 19.2355
-1.26237 -3.43375 20.7663
-0.162648 -0.393087 20.9121
-0.272415 0.0495102 19.2456
-0.176466 0.733627 18.9308
0.212014 1.34198 17.9626
0.323544 0.745259 19.0237
-0.725562 -0.564563 18.8788
0.287211 1.95776 12.9367
0.721525 0.761285 14.0309
-0.944554 0.255527 18.5229
2.52212 0.394557 9.57042
1.39072 0.122861 12.949
-0.467357 0.782399 19.5323
-0.986591 1.73609 20.2018
-1.28948 1.45803 21.5466
0.0436348 -0.0393968 22.0582
0.648964 -0.728256 21.4542
0.778009 -0.897656 20.9762
0.718023 -0.791083 20.337
0.54122 -0.650167 19.2189
1.35339 -3.39265 20.7174
0.164289 -0.410332 21.0147
0.266417 0.0595057 19.3939
0.141147 0.76444 19.1456
-0.225322 1.33838 18.2379
-0.330418 0.745372 19.1401
0.708623 -0.584621 18.8376
-0.288114 1.94129 12.8948
-0.710576 0.749595 13.9865
0.935325 0.260308 18.5017
-2.54618 0.400556 9.25146
-1.37773 0.129152 12.6703
0.506559 0.729305 19.5919
1.0294 1.54304 20.236
1.26635 1.30996 21.5258
-0.042727 -0.0342782 22.0495
-0.654034 -0.735236 21.4266
-0.771356 -0.924667 20.9245
-0.726809 -0.809003 20.3076
0.592567 -0.290619 19.7755
1.36642 -0.914888 20.4074
0.491044 -0.410295 21.3298
0.0652514 -0.0375967 21.3517
-0.32311 0.257369 21.3134
-0.516055 0.398807 21.1014
-0.522681 0.176107 20.8174
0.718032 -0.238553 19.6486
2.03353 -0.86159 20.2987
0.597045 -0.437256 21.4535
0.0463512 -0.0317339 21.4267
-0.450366 0.23323 21.4069
-0.62708 0.360869 20.8775
-0.721228 0.183597 21.1356
0.838604 0.0962432 19.5815
2.24196 0.300549 20.286
0.955824 -0.152872 21.417
0.073842 -0.0538083 21.5241
-0.609946 0.0390665 21.4109
-0.896067 -0.0183318 20.7254
-0.85565 0.00563574 21.1988
0.523003 0.355054 19.9263
0.919909 0.615597 20.4284
0.736538 0.346213 21.2167
0.0785602 0.00799963 21.4896
-0.408468 -0.227708 21.2791
-0.594765 -0.350622 20.8427
-0.462127 -0.267754 20.8493
-0.44228 -0.0222247 0.525621
9.41677e-06 -0.00647276 0.0771731
-0.013848 0.00192949 0.0677008
0.0672092 -0.00602061 0.246235
-5.09059e-06 0.00176797 0.0859546
-0.024004 0.00488774 0.355955
-2.86793e-06 0.0550369 0.14232
-0.0629246 -0.0065273 0.189192
4.43213e-05 0.0789425 -0.0160788
0.0132945 0.0475544 0.169837
0.427627 -0.0217624 0.50867
0.0138587 0.00193075 0.0677136
-0.0673223 -0.00589763 0.246394
0.0240354 0.00489611 0.355956
0.062853 -0.00653698 0.188921
-0.0132946 0.0477696 0.170511
-7.22557e-06 4.5977e-07 0.000110666
0 0 0
-5.83685e-06 -0.00049093 0.0191961
2.529e-05 0.00053099 0.00231275
0 0 0
0.119829 0.165161 0.922607
-5.11225e-06 0.0146487 0.0451756
-8.81639e-07 -0.00169726 0.010332
6.67973e-06 4.25199e-07 0.000102265
5.9694e-18 -2.01499e-18 -1.16371e-16
-2.66055e-05 0.000562528 0.00245256
-0.119482 0.164703 0.92254
-0.000147112 -0.000336337 0.00452951
4.22344e-05 0.000870308 0.00531366
-6.32809e-06 0.000284858 0.00193289
0 0 0
-5.31626e-07 -5.37305e-05 0.0161347
9.3576e-08 3.35822e-07 -0.000435788
-0.00015631 -0.0227912 0.0295897
-4.5972e-09 -1.79297e-05 5.1577e-06
-3.97626e-07 5.99124e-05 0.000837684
-6.41978e-07 0.000602722 0.0264491
-3.95113e-07 -4.30683e-05 0.000141286
0.000148662 -0.000340371 0.0045771
-4.21796e-05 0.00086899 0.00530977
6.45204e-06 0.000289243 0.00196399
-3.62407 -2.2954 19.8652
-1.77974 -5.47509 21.059
-2.13333 -1.82897 17.7482
0.676041 0.637008 20.9875
-0.470685 0.939511 13.9331
-0.00306586 1.10778 9.75643
-4.46115 1.33702 19.7827
-3.14909 1.31633 16.7357
-2.1668 3.11063 20.0101
1.05075 0.128034 20.9213
0.878688 0.599142 7.07681
1.51467 -0.143833 17.1203
1.89203 -5.48221 20.9737
2.1427 -1.87772 17.6847
3.69638 -2.3603 19.8331
0.432548 0.994442 14.3164
0.00967475 1.11185 9.727
-0.674667 0.638287 20.9796
3.16108 1.33133 16.6938
2.24702 2.83064 20.0247
4.49647 1.36338 19.7733
-0.852707 0.600852 6.80726
-1.525 -0.13399 17.0025
-1.05635 0.134661 20.8763
-0.245918 -0.300324 19.5994
-0.544887 -0.0239714 14.1234
0.010927 0.192942 20.1833
-0.481308 0.143988 12.6912
-1.41847 -0.508205 21.8056
-2.85684 1.1947 21.8782
0.0133158 -0.0776559 21.0876
0.316065 0.352357 18.2463
0.558274 -0.0287017 14.3019
0.24084 -0.272782 19.4393
0.487144 0.165207 12.8863
-0.00980842 0.196648 20.1572
2.68702 1.07797 21.8744
1.42218 -0.518457 21.7953
-0.28384 0.317973 18.5477
-0.0153524 -0.0782794 21.0449
-0.989429 -0.557163 19.8928
-0.647411 -0.264582 19.728
-0.647735 -0.481612 19.5479
-0.985016 -0.75495 21.1983
-1.63342 -0.874533 20.3702
-1.7537 -1.94653 20.3922
-0.224652 -0.185737 21.334
-0.542227 -0.412674 21.3986
-0.326997 -0.521554 21.5559
0.0944588 0.121071 21.411
-0.0557742 -0.0296819 21.3845
-0.0613655 0.0110332 21.3298
0.450509 0.361948 21.194
0.37861 0.25896 21.3506
0.340587 0.544373 21.3466
0.476959 0.369117 20.6069
0.542742 0.351892 20.9534
0.692003 0.685825 20.9367
0.621493 0.171902 20.9754
0.456068 0.652868 21.1512
-1.30667 -0.469216 19.7128
-0.796413 -0.0873396 19.5954
-0.767536 -0.356243 19.3337
-1.38984 -0.723344 21.3587
-2.33666 -0.259472 20.2623
-0.266861 -0.20714 21.3985
-0.811272 -0.324402 21.4413
0.143769 0.106662 21.4638
-0.0595617 -0.0590918 21.4911
0.650625 0.296936 21.2307
0.536359 0.139634 21.4081
0.629953 0.350636 20.9108
0.813332 0.208135 21.0995
1.03788 0.709912 20.9199
0.875206 0.13726 21.2835
0.648472 0.633069 21.1782
-1.54125 0.191137 19.626
-0.724515 0.321692 19.7162
-0.949104 0.150122 19.1652
-1.65825 0.0148879 21.2104
-1.5276 0.718768 20.3674
-0.488599 -0.141899 21.5121
-0.980702 0.168792 21.333
0.251955 0.032581 21.518
-0.0764717 -0.021249 21.549
0.806767 0.0201625 21.3918
0.573731 -0.151673 21.3611
0.788545 0.0277844 21.0143
0.800083 -0.268282 21.0759
1.43401 0.0844787 21.0513
0.62333 -0.16613 20.9089
1.31907 -0.00777074 20.136
-0.782055 0.579456 20.0885
-0.57157 0.558864 19.72
-0.97385 0.588579 20.8704
-1.08579 1.15823 20.3171
-0.45018 0.170227 21.459
-1.04669 0.747827 21.397
0.211544 -0.121355 21.4273
-0.0565933 0.00966653 21.7159
0.506117 -0.300961 21.1436
0.54531 -0.402661 21.3804
0.577318 -0.404422 20.8416
0.721352 -0.582206 20.804
0.537517 -0.446302 20.7556
-1.21502 -1.7412 19.0081
-0.614269 -0.610815 19.1019
-0.00593921 -0.854795 18.9331
-0.204175 -1.28744 21.9928
0.00992589 -3.42688 21.6445
-0.234615 -0.0890165 19.8995
0.00598645 -0.387284 20.4045
-0.241953 0.170338 18.885
0.00650275 -0.0982398 18.2143
-0.00676018 1.04637 19.5573
0.0104452 0.232811 17.0312
0.177813 1.03386 20.1961
0.213904 1.71317 15.279
0.0100831 0.671176 17.8684
0.522919 0.7708 16.5051
0.00925741 0.732628 16.655
-0.900471 -0.209882 18.594
-0.0167235 -0.768889 18.3282
0.691527 1.13019 13.5748
1.52503 1.27897 10.7962
-0.0178948 0.896454 4.38093
1.21976 0.667118 10.6003
0.0161917 0.67113 10.681
-0.740835 0.774396 18.9991
-0.00933716 0.377643 17.6958
1.74474 0.35845 11.7323
1.81979 -0.707104 18.2863
0.0186716 -1.32195 -1.85987
1.31697 -0.521916 19.7377
0.0226354 -1.51087 5.9594
-0.77182 1.36386 19.6806
0.0449706 1.01966 19.3327
-1.19156 1.67982 20.7954
0.107238 2.33596 20.0729
-0.685954 0.708326 22.1361
0.0885719 2.92138 21.6844
0.449145 -0.479265 21.779
-0.00102295 -0.349674 22.3936
0.763298 -0.886465 21.1519
0.00701334 -1.33217 20.0977
0.729675 -0.89321 20.1157
0.00698233 -1.64786 19.8238
0.0225029 -1.1829 20.1205
1.21415 -1.7354 19.0142
0.604723 -0.629128 19.0792
0.647199 -0.491454 19.533
0.236707 -1.32989 21.9983
1.75435 -1.92529 20.386
0.231129 -0.0934409 20.031
0.339473 -0.521979 21.5453
0.23316 0.190044 19.11
0.0609538 0.00473782 21.3465
-0.0419645 1.03358 19.6821
-0.34857 0.51508 21.3826
-0.205824 1.00497 20.2747
-0.224125 1.69909 15.391
-0.702515 0.652958 20.9344
-0.519895 0.761826 16.545
-0.448542 0.63646 21.154
0.882107 -0.214655 18.5581
0.771988 -0.362293 19.3039
-0.691054 1.1256 13.4971
-1.51213 1.2682 10.6291
-1.02928 0.712642 20.8927
-1.2145 0.668265 10.4344
-0.657903 0.622527 21.1241
0.7707 0.751116 19.0379
0.948785 0.150356 19.1503
-1.74898 0.333785 11.2955
-1.84182 -0.717973 18.1957
-1.45754 0.104945 20.8029
-1.30398 -0.527575 19.5371
-1.32647 -0.000281403 19.8475
0.822358 1.22671 19.7471
0.578808 0.532874 19.7679
1.20703 1.51209 20.8233
1.0785 1.00881 20.3533
0.680048 0.651278 22.0873
0.990567 0.660447 21.3724
-0.449447 -0.477526 21.7781
0.0587709 0.00965238 21.7081
-0.770168 -0.899299 21.1383
-0.549993 -0.413606 21.3825
-0.742016 -0.909726 20.1112
-0.739392 -0.605011 20.8337
-0.54695 -0.471562 20.7058
0.996669 -0.570758 19.8923
0.654465 -0.270384 19.7105
0.98369 -0.752108 21.1946
1.65871 -0.89644 20.3716
0.224734 -0.186167 21.3341
0.545429 -0.41429 21.3979
-0.0919539 0.117398 21.41
0.0587967 -0.032156 21.3811
-0.446235 0.351522 21.1889
-0.370616 0.251309 21.3422
-0.475907 0.362941 20.6007
-0.531871 0.353903 20.9431
-0.621954 0.179852 20.9765
1.34018 -0.49569 19.6807
0.813045 -0.0908509 19.574
1.40184 -0.744493 21.3756
2.39505 -0.272416 20.2515
0.265075 -0.212743 21.406
0.816636 -0.331596 21.4544
-0.142946 0.106057 21.4604
0.0593694 -0.0611397 21.4972
-0.65039 0.298221 21.2302
-0.538641 0.141754 21.4191
-0.642362 0.346528 20.8973
-0.829263 0.210708 21.1342
-0.906161 0.13422 21.2952
1.55798 0.194907 19.6121
0.70706 0.304381 19.7412
1.67681 0.0168405 21.221
1.4607 0.652978 20.3771
0.488759 -0.142178 21.5177
0.951718 0.17399 21.3215
-0.256911 0.0357485 21.525
0.0754814 -0.0203994 21.5469
-0.81114 0.0179519 21.3803
-0.569077 -0.152983 21.3662
-0.781028 0.0360888 21.0461
-0.788569 -0.301126 21.0181
-0.63439 -0.168814 20.9382
0.746387 0.516059 20.1241
0.919675 0.531843 20.8635
0.436095 0.16546 21.4376
-0.214574 -0.121814 21.4207
-0.516264 -0.313631 21.158
-0.610521 -0.395321 20.908
-1.17417 -0.544795 19.7966
-1.59234 -1.91175 18.4822
-1.23755 -1.07205 19.538
-1.85476 -0.950783 19.038
-0.698278 -0.448253 19.4572
-2.49043 -2.24985 20.1846
-1.16562 -0.778297 21.2803
-0.346073 -0.567019 16.8542
-0.864788 -1.31578 21.6201
-1.58461 -1.72976 21.9576
-0.340523 -0.478284 21.2268
-0.240134 -0.196951 21.3695
-0.50655 0.0806776 13.0174
-0.144799 -0.197834 21.434
-0.0794715 -0.0287021 19.7349
-0.0390817 0.0980496 20.8973
0.116206 0.118992 21.4317
-0.351665 0.182831 12.803
0.0313601 0.184629 21.3518
0.073278 0.354977 20.5222
0.494467 0.623684 21.1711
0.533306 0.335404 21.2008
-0.0872668 1.19284 15.1489
0.505614 0.698639 21.2568
0.984484 0.703169 20.7946
0.854501 0.701269 21.0851
0.523698 0.404733 20.7229
0.307385 1.0785 16.9764
0.617341 0.613743 20.7351
0.989982 0.501142 20.2628
0.546611 0.653638 21.2935
-1.54805 -0.164603 19.6038
-3.11941 -0.656809 16.586
-2.31318 0.494927 18.7604
-0.965992 -0.141967 19.1604
-5.06636 -0.587837 19.4938
-1.66231 -0.355239 21.3437
-2.72898 0.106968 21.7866
-0.684594 -0.768034 20.7689
-0.355816 -0.220145 21.4613
-0.62538 -0.444832 21.2782
0.0538865 0.0755271 20.0838
0.200821 0.0812099 21.5263
0.40892 0.204589 20.9849
0.952806 0.47909 20.6428
0.72375 0.162072 21.2155
0.427608 0.90283 5.26578
1.32931 0.066201 20.9742
1.26648 0.461277 20.5389
0.813037 0.185023 21.0157
1.37795 1.55876 12.2306
1.39215 0.0329736 20.1945
1.14951 0.540875 17.7536
-1.18949 0.586272 19.8612
-1.57137 1.9511 18.7697
-0.854929 0.932938 19.8923
-0.791876 0.497542 19.3987
-2.09938 1.5824 20.1746
-1.38239 0.44621 21.0005
-2.39353 2.0762 20.9165
-1.17705 1.03844 20.8836
-1.57817 0.410335 21.5833
-0.534218 0.0417536 21.5302
-1.42111 0.354179 20.9474
-0.594611 0.344315 21.7302
-0.0908511 -0.0145266 21.8811
0.282785 -0.0712225 21.4717
1.20965 0.247575 17.0417
0.314174 -0.228602 21.5723
0.830305 -0.317745 21.4012
0.710461 -0.223916 21.0722
1.62682 -0.428822 17.7093
0.647797 -0.533186 21.2283
1.05125 -0.596872 20.8817
0.634909 -0.228992 20.6414
1.44576 -0.818543 18.8712
0.756242 -0.519002 20.6777
1.12269 -0.188405 20.1889
1.59752 -1.9352 18.4697
0.00129094 -2.78536 18.5654
-0.0411 -4.13409 15.5566
-0.0129882 -0.837026 18.684
8.57833e-07 -3.95146 22.8329
0.317068 -0.615643 17.1923
0.00231126 -1.01215 21.8916
0.00500702 -0.112187 13.0487
0.519882 0.0875438 13.1879
0.00708041 -0.188135 19.2141
0.00273085 -0.0210998 10.7404
0.362838 0.205114 13.159
0.00587867 -0.00416491 17.5027
0.0129985 0.166453 9.88267
0.0603765 1.229 15.4627
0.00671933 0.246989 17.5221
-0.000440106 -0.900227 0.517817
0.00813599 0.829236 11.5619
-0.318249 1.06668 17.0191
0.00953225 0.929986 17.8035
-0.00297825 -0.397669 4.80741
0.0090788 0.734043 13.937
3.1468 -0.669975 16.4985
-0.0235812 3.34442 13.2959
-0.0155541 -0.300334 17.7778
-0.411372 0.896266 5.10515
0.00314442 -0.600778 0.0110819
0.0017652 -1.51284 -5.98629
-1.37999 1.56293 11.9252
0.0512987 -2.1618 2.7562
0.0174009 -0.55907 2.29406
1.59675 1.81205 18.8791
0.0830297 1.84004 19.4729
0.0278865 1.09446 18.5463
0.107681 4.3915 19.898
2.36922 1.89842 20.9614
0.111851 2.5912 20.5502
0.111486 5.06291 18.8732
1.40217 0.339877 21.1525
0.0239613 1.29084 22.8906
-0.00403572 -0.462085 3.81414
-1.2063 0.244406 17.0758
-0.00173675 -1.05088 21.2521
0.00384359 -0.774253 4.30239
-1.64594 -0.4198 17.5657
0.0134634 -1.50396 19.7779
0.0228438 -2.22139 9.99946
-1.46251 -0.834827 18.8217
0.0120137 -1.47768 19.8153
0.0162039 -2.38233 12.7327
1.19239 -0.566129 19.7795
1.24247 -1.08039 19.5276
1.88418 -0.981102 18.9853
0.701271 -0.455807 19.4276
2.49511 -2.25261 20.1806
1.16936 -0.785912 21.2871
0.883086 -1.29468 21.5956
1.55518 -1.74647 21.8841
0.345733 -0.48948 21.2754
0.239689 -0.199707 21.3702
0.150845 -0.199577 21.4297
0.0778477 -0.0177478 19.6477
0.0388452 0.0841091 20.9626
-0.11495 0.117444 21.4267
-0.0401254 0.176369 21.3889
-0.0708421 0.356619 20.5047
-0.49033 0.598902 21.2224
-0.529201 0.327085 21.1901
-0.522936 0.659756 21.3158
-0.978177 0.705816 20.7729
-0.856749 0.686059 21.0891
-0.535491 0.396626 20.7061
-0.617105 0.593356 20.7218
-0.986889 0.535842 20.2627
-0.546599 0.642386 21.3022
1.58514 -0.17225 19.5767
2.32849 0.504833 18.7328
0.97031 -0.141685 19.1458
5.15516 -0.58743 19.472
1.6872 -0.363227 21.3591
2.74367 0.103724 21.7804
0.667051 -0.764874 20.6165
0.356776 -0.222639 21.47
0.624173 -0.452637 21.234
-0.0561641 0.0813005 20.0276
-0.205022 0.0782632 21.5298
-0.412064 0.214852 20.9267
-0.956093 0.486215 20.6062
-0.731989 0.165078 21.2436
-1.33721 0.0795936 20.8064
-1.27708 0.482564 20.3986
-0.816106 0.188036 21.0098
-1.41549 0.072371 20.1531
-1.16467 0.543226 17.5778
1.15563 0.548682 19.902
0.855311 0.835294 19.9459
0.791279 0.480963 19.4298
2.03916 1.42093 20.1935
1.33963 0.416713 20.9908
1.13729 0.918516 20.8891
1.51381 0.377645 21.5564
0.526552 0.0448544 21.5231
0.578767 0.323468 21.6966
0.0901366 -0.0144359 21.8746
-0.284117 -0.0725989 21.4749
-0.312996 -0.229698 21.5694
-0.837314 -0.32279 21.3953
-0.7172 -0.230492 21.0856
-0.651003 -0.555714 21.2109
-1.08382 -0.581358 20.8488
-0.635833 -0.223152 20.696
-0.755294 -0.517917 20.6313
-1.13598 -0.197757 20.1189
-1.47595 -1.05808 19.2917
-1.13668 -1.58188 21.9474
-0.1293 -0.131529 20.9343
0.0417001 0.261012 21.0029
0.731397 0.737222 21.0793
0.806707 0.540471 20.4738
-2.30619 -0.343097 18.6927
-2.54043 -0.873408 22.0834
-0.230233 -0.369232 20.0815
0.220058 0.360608 20.4886
1.30694 0.549947 20.3657
1.30706 0.566414 19.8339
-1.47833 1.0437 19.4322
-1.98353 0.987852 21.0953
-0.870581 0.124327 21.8963
0.44629 -0.11859 21.7039
0.989746 -0.466589 21.193
1.16056 -0.436334 20.8386
-0.0100396 -3.48224 17.5124
0.00376407 -0.390301 15.523
0.00460302 -0.0513953 11.62
0.00280181 0.00650542 10.1924
0.0223558 -0.270091 9.50157
0.0235068 0.655053 11.6349
-0.0486108 -0.919892 12.6453
-0.00423798 -1.58226 -4.75299
-0.0250143 -3.50769 -4.69141
0.0758187 3.11396 18.0471
0.118308 3.73911 19.8539
-0.0075067 0.0105217 3.84343
-0.00124249 -0.575148 3.97461
0.0107898 -1.46515 7.59259
0.039508 -2.22407 11.6462
1.48915 -1.07647 19.2642
1.14799 -1.57297 21.939
0.128523 -0.149385 21.0448
-0.0468166 0.247966 21.0755
-0.733675 0.708762 21.1284
-0.803206 0.547613 20.4759
2.32761 -0.338722 18.6508
2.55339 -0.885815 22.0811
0.224262 -0.363712 19.9893
-0.219108 0.369501 20.4386
-1.3119 0.563973 20.2571
-1.31973 0.606405 19.7992
1.44896 0.971612 19.4855
1.90318 0.89747 21.0869
0.850517 0.117081 21.8732
-0.447907 -0.120125 21.7017
-0.989188 -0.475665 21.156
-1.17454 -0.442024 20.7853
-0.20342 -0.100687 0.253833
-0.00670041 -0.0187293 0.177407
-0.0208058 -0.00135196 0.154673
0.0887096 0.00179266 0.237468
-0.0472747 0.0677092 0.359301
-0.0113123 0.00281047 0.16532
-0.296134 0.119921 0.454666
-0.0142779 0.0923374 0.230892
-0.0935718 0.0487563 0.437885
0.174864 0.027999 0.774009
-0.0279281 0.0406051 -0.0245047
0.0353942 0.0248777 0.239625
0.00635571 -0.016687 0.158741
0.208254 -0.103156 0.259953
0.0208262 -0.00134926 0.154616
0.0472915 0.0677386 0.359444
-0.0888275 0.00184182 0.237702
0.011314 0.00280752 0.16513
0.0140556 0.103225 0.227811
0.290217 0.118311 0.445287
0.0935269 0.0486155 0.437342
0.0256506 0.037069 -0.022547
-0.175932 0.0296432 0.777788
-0.0354335 0.0249723 0.239868
-0.00655187 0.000226782 0.0806361
-1.13377e-05 -6.91807e-08 0.000133264
0 0 0
-0.000451241 -1.13316e-05 0.00941658
-0.00153397 0.000286607 0.157196
-6.02348e-06 4.27269e-07 9.81342e-05
0 0 0
0 0 0
-0.264345 -0.176413 0.715523
3.02047e-05 2.63767e-05 0.0025127
0.129031 0.207149 1.36907
-0.544515 0.330372 1.38485
0.106911 0.278007 0.566583
0 0 0
0.144057 0.227579 0.710847
0.19903 0.0710913 0.529376
0.00655953 0.000227851 0.0806426
0.000445783 -1.09589e-05 0.00927977
1.21964e-05 -7.4371e-08 0.000143369
0 0 0
0.0015484 0.000287883 0.157334
0 0 0
5.6188e-06 3.99705e-07 9.14646e-05
0 0 0
0.265217 -0.177097 0.719445
0.546815 0.331512 1.38898
-2.89554e-05 2.51083e-05 0.00242789
-0.128853 0.206903 1.36914
-0.107057 0.278154 0.5669
-0.196805 0.0677533 0.524863
0 0 0
-0.143781 0.227481 0.710406
1.28804e-16 1.31344e-17 -4.35751e-16
-0.104764 -0.00951565 0.0673818
9.6709e-21 -8.55849e-19 8.38582e-17
-5.94437e-05 -0.344686 0.0821038
-3.63675e-05 3.14271e-05 0.00178055
-0.00376085 -0.000743541 0.045388
3.99709e-05 0.00041542 0.0025663
-0.0035924 0.000757772 -0.000947758
1.22298e-07 -1.33462e-07 -0.000370816
0 0 0
-4.90064e-06 0.00022647 0.00180134
-3.52859e-06 2.33196e-07 0.00020282
0.000456035 0.00786653 0.00375573
9.43074e-07 0.0160855 0.0964899
-0.015594 -0.0295242 0.200446
-0.00597377 0.000709987 0.0135043
0 0 0
3.08545e-21 8.48233e-19 -2.96527e-18
-0.000371773 0.00813283 0.0453726
-0.000608207 -0.0025427 0.00666366
0.103082 -0.00944706 0.0663362
0 0 0
0.00375518 -0.000742075 0.0453011
3.84255e-05 3.29893e-05 0.00188117
0.0036106 0.000762167 -0.000954857
-3.97421e-05 0.000412726 0.00255786
4.25924e-06 2.84892e-07 0.000245749
4.88951e-06 0.000225173 0.00179291
0.00600788 0.000715332 0.0135973
0.0153502 -0.0290442 0.197082
0.000639067 -0.00257515 0.00671173
0.00036645 0.00808407 0.0451296
-4.88296e-05 0.0048985 0.048909
0 0 0
9.46923e-07 1.00297e-05 0.000749233
0 0 0
7.51614e-22 -1.07404e-19 5.45675e-17
2.2981e-06 7.11305e-06 0.0109828
2.17242e-05 0.000795851 0.00424606
0 0 0
-4.87551e-07 -7.7833e-06 0.00234132
0 0 0
0 0 0
0.1487 0.267002 1.73347
-3.18745e-05 0.042204 0.0824891
-7.66532e-06 0.0132235 0.0868424
-3.96474e-06 -0.00259974 0.0258838
-6.56145e-07 -0.000584209 0.00237013
0 0 0