# vtk DataFile Version 2.0
tet_velo
ASCII
DATASET UNSTRUCTURED_GRID
POINTS 29498 float
-0.727127 0.305 -2.085
-0.695 0.315 2.10419
-0.711723 0.835 -1.925
-0.695 1.06132 2.135
0.755 0.305 -2.04579
0.695 0.315 2.10497
0.712842 0.835 -1.925
0.695 1.06203 2.135
-0.735561 0.28919 -0.688603
-0.753731 0.263645 0.707794
-0.811748 1.01604 -0.571667
-0.788512 1.07382 0.781667
0.756513 0.286821 -0.662203
0.757156 0.269511 0.721383
0.812261 1.01604 -0.571667
0.788745 1.07415 0.781667
-1.4954 -0.0920173 -3.23915
-1.4915 -0.0419629 -2.14096
-1.49854 -0.0583771 -0.744361
-1.49595 -0.0968774 0.661232
-1.45638 -0.0771137 2.05855
-1.44674 -0.0509774 3.16028
-1.45318 -0.0259126 4.25497
-1.49704 0.227047 -3.18121
-1.4965 0.298591 -2.08655
-1.51225 0.307902 -0.69657
-1.50109 0.28068 0.698079
-1.43684 0.302355 2.08867
-1.43385 0.3277 3.18916
-1.4476 0.351777 4.28448
-1.4982 0.830974 -3.04829
-1.50142 0.899526 -1.94627
-1.56297 1.02692 -0.584624
-1.53296 1.06662 0.774227
-1.44661 1.06502 2.13575
-1.4411 1.08671 3.23716
-1.45491 1.11105 4.33831
-1.50921 1.86695 -2.88239
-1.51627 1.95098 -1.78933
-1.54284 2.08809 -0.440059
-1.54923 2.18557 0.899967
-1.5267 2.22354 2.24789
-1.50856 2.23974 3.33816
-1.50039 2.25748 4.43598
-0.741226 -0.0892196 -3.23268
-0.730211 -0.0359288 -2.13561
-0.735254 -0.0667568 -0.736516
-0.750227 -0.108835 0.670829
-0.726767 -0.0744017 2.0701
-0.717906 -0.0493703 3.16887
-0.721374 -0.0262152 4.26129
-0.744827 0.222386 -3.17476
-0.705915 0.330603 3.19648
-0.716839 0.351822 4.28973
-0.745141 0.802593 -3.03847
-0.710353 1.08604 3.23863
-0.722697 1.11051 4.34068
-0.746157 1.8475 -2.873
-0.746232 1.93267 -1.77996
-0.771899 2.08298 -0.433427
-0.790149 2.18931 0.902557
-0.781591 2.22635 2.2479
-0.767637 2.24085 3.33819
-0.7599 2.25797 4.43693
0.755584 -0.0893614 -3.20729
0.764149 -0.0363327 -2.10411
0.765245 -0.0676066 -0.712725
0.749231 -0.105176 0.684312
0.707073 -0.0728935 2.07514
0.719109 -0.0481278 3.17357
0.731503 -0.0248734 4.26695
0.743062 0.222315 -3.15034
0.716625 0.331536 3.19968
0.730186 0.353071 4.29462
0.730521 0.80258 -3.02639
0.714803 1.087 3.24106
0.72671 1.11169 4.34497
0.769799 1.84759 -2.86371
0.781736 1.93277 -1.77269
0.776458 2.08323 -0.427646
0.743831 2.18991 0.907359
0.715447 2.22726 2.25223
0.713179 2.2419 3.34285
0.718292 2.25909 4.44225
1.5108 -0.0922784 -3.19393
1.52065 -0.0426396 -2.09064
1.52585 -0.058814 -0.704127
1.50448 -0.092049 0.68622
1.45423 -0.0732947 2.07195
1.45279 -0.0480601 3.17164
1.46465 -0.0231298 4.2672
1.50029 0.226856 -3.13825
1.51642 0.298097 -2.03696
1.53184 0.306648 -0.658391
1.51199 0.285969 0.720575
1.44578 0.305863 2.09889
1.44652 0.330314 3.19824
1.46114 0.354428 4.29534
1.49097 0.830927 -3.02122
1.50481 0.899439 -1.9248
1.56696 1.02657 -0.567944
1.53609 1.06872 0.785047
1.4505 1.06787 2.14251
1.44609 1.08913 3.24451
1.45871 1.11353 4.34798
1.52772 1.86715 -2.86269
1.54154 1.95124 -1.77295
1.54381 2.08866 -0.426652
1.5113 2.18685 0.911116
1.47223 2.22545 2.25781
1.46067 2.24189 3.34839
1.46165 2.25973 4.44722
-0.765037 0.57 -2.05061
0.0139365 0.308779 -2.06162
-0.743477 0.284962 -1.3868
-0.736004 0.68816 2.1606
0 0.303164 2.11642
-0.738357 0.275331 1.40599
0.000559479 0.903115 -1.99311
-0.813648 0.977432 -1.24833
0 1.10305 2.17637
-0.765302 1.09112 1.45833
0.777741 0.57 -2.02921
0.768783 0.282883 -1.354
0.735823 0.688515 2.16081
0.743093 0.27524 1.41318
0.814478 0.977448 -1.24833
0.765719 1.09194 1.45833
-0.762675 0.258389 0.00959504
-0.896781 0.652615 -0.630135
0.0104758 0.301199 -0.675403
-0.888382 0.668731 0.74473
0.00171249 0.272914 0.714589
-0.800229 1.04503 0.105
0.000256313 1.37836 -0.571667
0.00011649 1.54356 0.781667
0.773883 0.261117 0.02959
0.888061 0.651432 -0.616935
0.889129 0.671831 0.751525
0.800465 1.04506 0.105
-0.887295 0.611307 -1.31757
-0.897722 0.660673 0.0572975
-0.882185 0.678446 1.43216
0.0122061 0.294514 -1.3704
0.00609412 0.26467 0.0195925
0.000856244 0.283038 1.40958
0.00724798 0.57 -2.282
0 0.688337 2.21719
0.000407896 1.07298 -1.24833
0.000186401 1.54392 0.105
5.82448e-05 1.35728 1.45833
0.887264 0.610716 -1.30117
0.889055 0.661631 0.067295
0.882074 0.680173 1.43576
-1.11181 0.301795 -2.08577
-0.728669 0.134536 -2.1103
-0.735977 0.263693 -2.62988
-1.06592 0.308678 2.09643
-0.710883 0.120299 2.08715
-0.700458 0.322802 2.65034
-1.10657 0.867263 -1.93563
-0.728432 0.818796 -2.48173
-0.728978 1.38383 -1.85248
-1.07081 1.06317 2.13538
-0.702677 1.07368 2.68682
-0.738296 1.64383 2.19145
0.759574 0.134334 -2.07495
0.749031 0.263658 -2.59806
1.13571 0.301549 -2.04137
0.701037 0.121053 2.09006
0.705813 0.323268 2.65233
1.07039 0.310431 2.10193
0.721682 0.81879 -2.47569
0.747289 1.38389 -1.84885
1.10883 0.867219 -1.9249
0.704901 1.07452 2.68803
0.705223 1.64465 2.19362
1.07275 1.06495 2.13876
-1.1239 0.298546 -0.692587
-0.735407 0.111217 -0.71256
-1.12741 0.272163 0.702937
-0.751979 0.0774052 0.689311
-1.18736 1.02148 -0.578145
-0.791824 1.54951 -0.502547
-1.16074 1.07022 0.777947
-0.78933 1.63156 0.842112
0.760879 0.109607 -0.687464
1.14418 0.296734 -0.660297
0.753193 0.0821676 0.702848
1.13457 0.27774 0.720979
0.79436 1.54964 -0.499657
1.18961 1.02131 -0.569805
0.766288 1.63203 0.844513
1.16242 1.07144 0.783357
-1.49345 -0.0669901 -2.69006
-1.49622 0.0675149 -3.21018
-1.11832 -0.0906185 -3.23591
-1.49502 -0.05017 -1.44266
-1.494 0.128314 -2.11375
-1.11085 -0.0389459 -2.13829
-1.49724 -0.0776272 -0.0415643
-1.50539 0.124763 -0.720466
-1.11689 -0.0625669 -0.740438
-1.47617 -0.0869955 1.35989
-1.49852 0.0919014 0.679656
-1.12309 -0.102856 0.666031
-1.45156 -0.0640455 2.60941
-1.44661 0.112621 2.07361
-1.09157 -0.0757577 2.06432
-1.44996 -0.038445 3.70763
-1.4403 0.138361 3.17472
-1.08232 -0.0501738 3.16458
-1.45039 0.162932 4.26973
-1.08727 -0.0260639 4.25813
-1.49677 0.262819 -2.63388
-1.49762 0.529011 -3.11475
-1.12093 0.224717 -3.17798
-1.50437 0.303246 -1.39156
-1.49896 0.599058 -2.01641
-1.50667 0.294291 0.00075453
-1.53761 0.66741 -0.640597
-1.46896 0.291518 1.39338
-1.51703 0.673652 0.736153
-1.43535 0.315027 2.63892
-1.44173 0.683687 2.11221
-1.44073 0.339738 3.73682
-1.43748 0.707204 3.21316
-1.06988 0.329151 3.19282
-1.45125 0.731415 4.3114
-1.08222 0.3518 4.28711
-1.49981 0.86525 -2.49728
-1.5037 1.34896 -2.96534
-1.12167 0.816784 -3.04338
-1.53219 0.963222 -1.26545
-1.50884 1.42525 -1.8678
-1.54797 1.04677 0.0948015
-1.55291 1.5575 -0.512341
-1.48979 1.06582 1.45499
-1.5411 1.6261 0.837097
-1.44386 1.07586 2.68645
-1.48666 1.64428 2.19182
-1.448 1.09888 3.78773
-1.47483 1.66323 3.28766
-1.07573 1.08637 3.23789
-1.47765 1.68427 4.38715
-1.0888 1.11078 4.33949
-1.51274 1.90897 -2.33586
-1.12768 1.85723 -2.87769
-1.52956 2.01954 -1.11469
-1.13125 1.94183 -1.78464
-1.54604 2.13683 0.229954
-1.15737 2.08553 -0.436743
-1.53797 2.20455 1.57393
-1.16969 2.18744 0.901262
-1.51763 2.23164 2.79303
-1.15415 2.22494 2.24789
-1.50448 2.24861 3.88707
-1.1381 2.2403 3.33818
-1.13014 2.25773 4.43645
-0.735718 -0.0625742 -2.68414
-0.743026 0.0665833 -3.20372
0.00717913 -0.0892905 -3.21998
-0.732732 -0.0513428 -1.43606
0.0169689 -0.0361308 -2.11986
-0.74274 -0.0877957 -0.0328435
0.0149956 -0.0671817 -0.72462
-0.738497 -0.0916181 1.37047
-0.000497764 -0.107005 0.67757
-0.722336 -0.061886 2.61949
-0.00984671 -0.0736476 2.07262
-0.71964 -0.0377927 3.71508
-0.71191 0.140616 3.18268
0.000601669 -0.048749 3.17122
-0.719107 0.162804 4.27551
0.00506434 -0.0255443 4.26412
-0.744984 0.51249 -3.10662
-0.000882447 0.222351 -3.16255
-0.711377 0.341213 3.74311
-0.708134 0.70832 3.21756
0.00535509 0.33107 3.19808
-0.719768 0.731168 4.31521
0.00667335 0.352447 4.29217
-0.745649 1.32505 -2.95573
-0.00731 0.802587 -3.03243
-0.716525 1.09827 3.78966
-0.738995 1.66345 3.28841
0.00222476 1.08652 3.23984
-0.741298 1.68424 4.3888
0.00200608 1.1111 4.34282
-0.746195 1.89009 -2.32648
0.0118208 1.84755 -2.86835
-0.759066 2.00782 -1.10669
0.0177516 1.93272 -1.77632
-0.781024 2.13614 0.234565
0.00227964 2.0831 -0.430537
-0.78587 2.20783 1.57523
-0.023159 2.18961 0.904958
-0.774614 2.2336 2.79305
-0.0330723 2.22681 2.25007
-0.763768 2.24941 3.88756
-0.0272291 2.24138 3.34052
-0.0208036 2.25853 4.43959
0.759867 -0.0628471 -2.6557
0.749323 0.0664769 -3.17882
1.13319 -0.0908199 -3.20061
0.764697 -0.0519697 -1.40842
1.1424 -0.0394862 -2.09737
0.757238 -0.0863912 -0.0142065
1.14555 -0.0632103 -0.708426
0.728152 -0.0890347 1.37973
1.12685 -0.0986124 0.685266
0.713091 -0.0605107 2.62436
1.08065 -0.0730941 2.07355
0.725306 -0.0365006 3.72026
0.717867 0.141704 3.18663
1.08595 -0.048094 3.17261
0.730844 0.164099 4.28078
1.09808 -0.0240016 4.26708
0.736791 0.512448 -3.08836
1.12168 0.224585 -3.14429
0.723406 0.342304 3.74715
0.715714 0.70927 3.22037
1.08157 0.330925 3.19896
0.728448 0.73238 4.31979
1.09566 0.353749 4.29498
0.75016 1.32508 -2.94505
1.11075 0.816754 -3.02381
0.720756 1.09935 3.79301
0.713991 1.66445 3.29196
1.08045 1.08807 3.24278
0.722501 1.68539 4.39361
1.09271 1.11261 4.34647
0.775767 1.89018 -2.3182
1.14876 1.85737 -2.8632
0.779097 2.008 -1.10017
1.16164 1.94201 -1.77282
0.760144 2.13657 0.239856
1.16013 2.08595 -0.427149
0.729639 2.20859 1.5798
1.12756 2.18838 0.909238
0.714313 2.23458 2.79754
1.09384 2.22636 2.25502
0.715736 2.2505 3.89255
1.08693 2.2419 3.34562
1.08997 2.25941 4.44474
1.51572 -0.067459 -2.64228
1.50555 0.0672887 -3.16609
1.52325 -0.0507268 -1.39738
1.51853 0.127729 -2.0638
1.51516 -0.0754315 -0.00895361
1.52885 0.123917 -0.681259
1.47935 -0.0826718 1.37909
1.50823 0.0969599 0.703398
1.45351 -0.0606774 2.6218
1.45 0.116284 2.08542
1.45872 -0.035595 3.71942
1.44966 0.141127 3.18494
1.4629 0.165649 4.28127
1.50836 0.262477 -2.5876
1.49563 0.528891 -3.07973
1.52413 0.302372 -1.34767
1.51061 0.598768 -1.98088
1.52192 0.296308 0.0310921
1.5494 0.666611 -0.613167
1.47888 0.295916 1.40973
1.52404 0.677346 0.752811
1.44615 0.318089 2.64857
1.44814 0.686869 2.1207
1.45383 0.342371 3.74679
1.4463 0.709722 3.22137
1.45993 0.733979 4.32166
1.49789 0.865183 -2.47301
1.50934 1.34904 -2.94196
1.53589 0.963006 -1.24637
1.52317 1.42534 -1.84887
1.55153 1.04765 0.108552
[...]
POINT_DATA 29498
VECTORS point_vectors float
-2.75505 -5.90611 10.4006
-0.069401 0.133368 0.526239
-0.401399 0.274726 0.807851
0.141082 -0.0842929 0.656689
1.66567 -4.10337 8.47968
0.0690498 0.130223 0.496328
0.465076 0.284118 0.921299
-0.143221 -0.080972 0.64702
0 0 0
0.00336411 0.000575459 0.412816
0 0 0
0 0 0
0 0 0
-0.00157895 0.0068378 0.315715
0 0 0
0 0 0
-0.560528 -0.299971 19.854
-1.20891 -0.790017 20.4157
-0.519074 -0.488888 21.3896
-0.00141947 -0.0607003 21.5231
0.449655 0.338606 21.4958
0.726358 0.467392 21.1526
0.727046 0.426747 20.6542
-0.676638 -0.23841 19.7366
-1.76105 -0.694112 20.3575
-0.665604 -0.586206 21.5208
0.0379386 -0.169118 21.6701
0.798692 0.27898 21.5504
1.08946 0.352184 21.1752
0.977 0.260202 21.0435
-0.857177 0.0430095 19.638
-2.06322 0.0973736 20.3921
-1.20781 -0.299289 21.5276
-0.191371 -0.277114 21.7946
0.795381 -0.355998 21.6651
1.10581 -0.455002 21.364
0.973401 -0.299284 20.856
-0.604183 0.41423 19.9281
-0.995529 0.646824 20.4474
-0.866791 0.413762 21.2602
-0.207819 -0.0505702 21.6198
0.214493 -0.327639 21.4369
0.38451 -0.384967 21.2193
0.369733 -0.411716 20.7152
-0.528261 -0.613027 19.3388
-1.58087 -3.08467 20.5156
-0.374499 -0.507939 21.5435
-0.161381 0.0909163 21.348
-0.0816453 0.884815 20.6261
0.0806697 1.23416 19.9638
0.198483 1.09201 19.4494
-0.716035 -0.563565 18.9841
0.254542 1.82226 10.6307
1.55463 1.28852 12.6755
-1.03575 0.196865 18.4725
1.87576 0.039894 9.83791
1.83203 -0.303255 15.3141
-0.549454 0.817033 19.5259
-1.06671 1.67022 20.1216
-1.21636 1.53581 21.5301
-0.290167 0.129943 22.0031
0.118461 -0.546192 21.5995
0.260674 -0.589118 20.9692
0.0823633 -0.478776 20.9762
0.551332 -0.62354 19.3411
1.57313 -2.94892 20.6559
0.382216 -0.513976 21.6559
0.155045 0.084385 21.3135
0.0939642 0.840396 20.611
-0.0886525 1.22174 19.9275
-0.261227 1.04186 19.413
0.751811 -0.587957 18.9635
-0.285331 1.85172 10.8776
-1.53108 1.24257 12.9796
1.05049 0.215925 18.4204
-1.89496 0.0520594 9.93401
-1.80078 -0.299526 15.4473
0.563656 0.812851 19.5364
1.09534 1.61441 20.1455
1.21681 1.52314 21.5334
0.279678 0.145521 22.0277
-0.0955943 -0.554749 21.6285
-0.254941 -0.623693 21.0252
-0.0916129 -0.478045 20.7508
0.579181 -0.307944 19.8627
1.19527 -0.764117 20.4843
0.497932 -0.459047 21.3694
0.00181961 -0.0626772 21.5061
-0.441555 0.341818 21.4986
-0.72112 0.461164 21.1714
-0.728718 0.410653 20.6184
0.705325 -0.244281 19.7457
1.72003 -0.682254 20.4645
0.627941 -0.540315 21.5028
-0.0329123 -0.168356 21.657
-0.783578 0.267546 21.5536
-1.05881 0.348706 21.1562
-0.987951 0.246161 21.0196
0.896303 0.0436496 19.6271
2.0487 0.0831567 20.4325
1.17227 -0.312475 21.5266
0.187883 -0.269955 21.7978
-0.787873 -0.344173 21.6124
-1.10009 -0.438306 21.3645
-0.961525 -0.288613 20.8628
0.607725 0.408613 19.9447
0.981072 0.617913 20.4657
0.861481 0.406264 21.2662
0.212802 -0.0459071 21.6239
-0.210176 -0.339457 21.4574
-0.376022 -0.406289 21.1811
-0.323428 -0.413046 20.8345
-0.453958 -0.0419585 0.613976
0.00118445 -0.0925449 0.403571
-0.00930128 -0.00168383 0.21037
-0.0050007 0.00921718 0.0160833
-0.000656876 0.00557175 0.0642893
-0.00690725 0.00491433 0.143601
0.00111839 0.0795173 0.2037
-0.336125 -0.159942 1.07407
-0.0018757 0.0933232 -0.0906044
0 0 0
0.853799 -0.0790232 1.46514
0.0128578 -0.00759478 0.403981
0.00696614 0.00999628 0.0126845
0.0182551 0.0129383 0.376137
0.344833 -0.16586 1.09265
0 0 0
-0.00401005 0.000673693 0.169226
-7.69794e-05 0.00127335 0.0133116
-1.3833e-06 -7.44126e-07 0.00015333
0.000147564 0.00195034 0.0101758
4.3464e-07 -4.72494e-07 -0.000149031
1.26123e-17 2.50233e-17 9.78265e-17
-9.38088e-05 0.0359724 0.0817685
-8.83392e-05 -0.000757681 0.0157904
0.0117618 0.00910955 0.514926
3.34324e-05 0.000838446 0.00945184
-0.000179031 0.00229632 0.0124313
0 0 0
0 0 0
5.70741e-06 0.0015463 0.00950092
0 0 0
0 0 0
0.00476039 -0.019943 0.317061
-5.0042e-05 0.000220196 0.0117207
0.000193043 -0.00156744 0.00144333
-0.0027322 0.0609292 -0.017431
0.000309169 0.0186515 0.113675
-6.36081e-05 0.00166442 0.0291664
-1.2767e-05 0.00149629 -0.0024991
0 0 0
1.58383e-05 0.00137598 0.00832783
0 0 0
-3.25819 -1.83787 20.1238
-2.47942 -5.01256 20.6735
-1.9828 -1.72395 17.9115
1.02467 1.23439 18.3927
-0.415369 1.15977 14.7565
-0.676586 1.42684 6.97825
-4.1728 0.716583 20.1576
-3.21393 1.33988 16.6692
-2.34463 2.80948 19.7588
1.38837 0.00997139 18.2711
0.939949 0.514343 5.25958
0.600721 -0.83575 19.3078
2.40181 -4.59138 20.8642
2.11277 -1.83091 17.9141
3.11924 -1.7487 20.356
0.421038 1.1029 14.5646
0.656152 1.39344 7.07819
-1.01991 1.2017 18.5564
3.27229 1.37698 16.6085
2.36447 2.72949 19.7843
4.16877 0.683805 20.2145
-0.953024 0.562748 5.29783
-0.63264 -0.821095 18.8767
-1.38613 0.0120249 18.3454
-0.27824 -0.736927 20.2714
-0.31455 -0.139154 16.4655
0.174464 0.172294 19.5318
-0.13936 0.238131 16.6727
-1.9054 -0.868821 21.9032
-3.63972 2.0267 21.9352
-0.0995245 -0.356739 20.6588
-0.416152 0.0764286 21.0506
0.409142 -0.166313 16.9422
0.271618 -0.737131 20.8896
0.10934 0.236775 16.4955
-0.178641 0.134872 19.7301
3.6296 2.0069 21.9289
1.85352 -0.902909 21.8859
0.27367 0.16927 20.2974
0.101576 -0.345346 20.6848
-0.913149 -0.534649 19.9748
-0.626862 -0.279744 19.8014
-0.610134 -0.470692 19.6078
-0.946841 -0.724216 21.1231
-1.48645 -0.777063 20.3871
-1.659 -1.66771 20.393
-0.216249 -0.265839 21.4865
-0.585356 -0.538784 21.4559
-0.370082 -0.574056 21.593
0.197949 0.137753 21.5977
0.0173311 -0.112489 21.5788
0.0105251 0.0209909 21.6007
0.588506 0.449716 21.4352
0.613254 0.343277 21.557
0.396778 0.740802 21.4308
0.765066 0.443603 21.0704
0.917404 0.439221 21.2576
0.775616 0.963963 21.2961
0.873735 0.394357 20.9029
0.60729 0.83593 21.9396
-1.21989 -0.440343 19.8122
-0.792976 -0.132576 19.6439
-0.75906 -0.390529 19.4083
-1.30603 -0.741874 21.2795
-2.05814 -0.330275 20.3824
-0.271688 -0.379819 21.6077
-0.983277 -0.527924 21.5473
0.353626 0.0392498 21.7321
-0.0439529 -0.251459 21.7902
0.978298 0.342981 21.3869
0.940425 -0.0244928 21.583
1.20657 0.308857 21.0925
1.26939 -0.00786556 21.2114
1.37463 1.23527 18.8239
1.20506 -0.129933 20.8491
1.31446 0.953672 19.4563
-1.55278 0.11016 19.7492
-0.786009 0.308864 19.7454
-1.00583 0.110521 19.1863
-1.73926 -0.145664 21.1608
-1.53934 0.588768 20.3756
-0.681244 -0.335978 21.7488
-1.25052 0.193768 21.4247
0.304777 -0.269698 21.8192
-0.286706 -0.130292 21.7612
1.02917 -0.367759 21.4497
0.431384 -0.427596 21.5214
1.06833 -0.41627 21.1832
0.634861 -0.532006 21.0334
1.69857 -0.431522 19.2382
0.539729 -0.456155 21.0233
1.68086 -0.3119 19.6706
-0.829652 0.558027 20.1501
-0.616581 0.595693 19.7435
-1.01778 0.587424 20.879
-1.1305 1.07105 20.308
-0.577574 0.183778 21.5496
-1.11933 0.82519 21.4118
0.0517526 -0.215907 21.5251
-0.275507 0.0332997 21.7867
0.300177 -0.366025 21.2682
0.201592 -0.43919 21.4983
0.435676 -0.426355 20.7153
0.354344 -0.580136 21.0962
0.20354 -0.469527 21.236
-1.09292 -1.57748 19.1411
-0.59462 -0.591765 19.1965
0.00472731 -0.8642 19.0292
-0.670619 -1.35349 21.9717
0.0442616 -4.17816 21.0579
-0.269212 -0.175706 21.3641
0.0212467 -0.791079 21.1491
-0.091166 0.373384 20.9691
-0.00272839 -0.227768 20.4462
-0.0375433 1.05537 20.4897
-0.0250518 0.23749 18.3231
0.449515 1.39281 20.0083
0.197089 1.79234 17.1581
-0.0340371 0.385723 17.8977
0.656937 1.16197 16.43
-0.0238681 1.28332 15.5076
-0.961716 -0.263712 18.6458
0.00276751 -0.802568 18.4748
0.80956 1.62012 11.1034
1.85522 1.11974 6.31955
0.0172526 -0.508741 -1.58382
2.07343 0.637519 11.8862
0.00636471 -0.647813 5.31315
-0.851299 0.800943 18.9663
-0.0130827 0.349441 17.6244
1.89161 -0.536117 11.6149
0.855723 -1.08648 19.3248
0.0231809 -1.13526 -1.05156
0.709769 -0.943144 18.7366
0.023732 -2.3215 2.09151
-0.828458 1.31215 19.7005
0.0148896 1.10152 19.303
-1.24205 1.77094 20.7168
0.0392155 2.3136 19.9025
-0.773591 0.785856 22.0263
0.00401301 2.65736 21.6082
-0.0106305 -0.302732 21.7987
-0.0149079 0.305203 22.2224
0.235527 -0.686572 21.4751
0.00284212 -0.565248 21.6155
0.191836 -0.936627 20.6527
0.00733542 -0.859538 21.3076
-0.0061921 -0.917477 21.0721
1.15017 -1.60727 19.182
0.618182 -0.610463 19.1921
0.631406 -0.487206 19.6052
0.675906 -1.30434 21.9266
1.60476 -1.57818 20.4712
0.266902 -0.171901 21.2949
0.368301 -0.53497 21.5772
0.0904623 0.348304 20.9048
-0.0146429 0.0208573 21.5988
0.0497071 1.02408 20.4708
-0.385889 0.744442 21.4178
-0.450541 1.36743 20.052
-0.229592 1.77039 17.1442
-0.769615 0.94655 21.3021
-0.704307 1.099 16.3756
-0.62268 0.809199 21.9453
0.986643 -0.27239 18.6056
0.796676 -0.407155 19.4041
-0.825669 1.59386 11.3248
-1.87178 1.14769 6.47212
-1.36492 1.18581 18.9433
-2.02715 0.601261 12.0443
-1.30003 0.923341 19.5438
0.868841 0.808707 18.9611
1.03824 0.111756 19.1527
-1.88573 -0.537581 11.7089
-0.837473 -1.11672 18.9678
-1.69148 -0.414463 19.3215
-0.720837 -0.941134 18.6166
-1.66619 -0.284462 19.7123
0.850454 1.29429 19.7183
0.627917 0.589978 19.7589
1.25697 1.72342 20.7337
1.13815 1.03654 20.328
0.764116 0.81289 22.0401
1.11615 0.812949 21.4166
0.0110282 -0.306392 21.8057
0.273489 0.0386362 21.8068
-0.209809 -0.696506 21.5121
-0.184371 -0.453706 21.5227
-0.171289 -0.946828 20.7134
-0.349069 -0.596384 21.1005
-0.185625 -0.467275 21.2508
0.92472 -0.538487 20.0176
0.648272 -0.290477 19.8071
0.913414 -0.677976 21.1312
1.45849 -0.747902 20.4657
0.205446 -0.253526 21.4863
0.559456 -0.505973 21.4372
-0.198631 0.126771 21.5735
-0.0152171 -0.116503 21.5619
-0.581032 0.448046 21.4466
-0.607839 0.333832 21.5527
-0.756288 0.432662 21.0269
-0.894287 0.438382 21.2501
-0.88409 0.378077 20.8732
1.25261 -0.450895 19.8519
0.828913 -0.137255 19.6372
1.22736 -0.688991 21.2962
2.01613 -0.341422 20.4507
0.265002 -0.363702 21.5832
0.921329 -0.518078 21.5351
-0.350744 0.0350651 21.7259
0.0460656 -0.242647 21.7867
-0.959984 0.324383 21.3875
-0.924421 -0.023309 21.5879
-1.18092 0.320021 21.1412
-1.24766 -0.00730473 21.2022
-1.18331 -0.120723 20.9097
1.58749 0.106078 19.7677
0.802294 0.313809 19.756
1.70606 -0.156678 21.1821
1.52269 0.560546 20.4036
0.673684 -0.334731 21.7325
1.24216 0.179611 21.429
-0.309539 -0.26555 21.8138
0.285744 -0.132816 21.7732
-1.01855 -0.358614 21.4453
-0.440342 -0.444558 21.5365
-1.04066 -0.417285 21.1505
-0.638223 -0.543181 21.0511
-0.525711 -0.462489 21.0555
0.828358 0.539221 20.1718
1.00355 0.572228 20.8856
0.584435 0.184473 21.561
-0.0629368 -0.226182 21.5593
-0.29544 -0.380945 21.2673
-0.386047 -0.452341 20.8271
-1.06329 -0.512529 19.8875
-1.42139 -1.71256 18.6338
-1.14429 -0.99971 19.6093
-1.71438 -0.886229 19.1677
-0.681822 -0.46149 19.5352
-2.32975 -1.87581 20.2847
-1.10401 -0.76049 21.2184
-0.452854 -0.855282 19.5131
-0.918834 -1.20571 21.5175
-1.46816 -1.53214 21.9069
-0.32319 -0.662142 21.5735
-0.239295 -0.320235 21.5422
-0.250908 0.0522869 16.5317
-0.13953 -0.235601 21.5887
0.00230331 -0.231035 19.8555
0.11612 0.0681699 21.2528
0.269651 0.105056 21.6649
-0.109766 0.438993 15.5578
0.165723 0.305527 21.5786
0.323173 0.618043 18.8627
0.679083 0.985169 20.6697
0.812597 0.469979 21.3711
-0.282079 1.37406 15.5763
0.542774 0.883673 21.3153
1.16723 1.2094 18.9802
0.945439 1.07025 20.4552
1.04021 0.380063 20.8794
0.566529 1.51084 15.7525
0.786399 1.12913 21.5579
1.60216 1.06753 19.2315
0.85748 0.733783 20.5159
-1.45178 -0.205307 19.7397
-2.90132 -0.640218 16.7565
-2.36804 0.416936 18.8673
-0.95052 -0.194843 19.2155
-4.37854 -0.68939 20.0931
-1.61869 -0.523399 21.281
-2.91767 -0.380268 21.6141
-0.945953 -1.08157 20.8154
-0.460515 -0.407537 21.7006
-0.85684 -0.751609 21.2255
0.143285 0.0729995 18.6545
0.388415 -0.11138 21.8123
0.741413 0.0904902 19.4987
1.37348 0.74271 15.9688
1.17733 -0.00449637 21.3566
0.0671307 1.3647 2.90364
1.53723 -0.187415 18.9333
1.97463 0.621829 17.2112
1.28006 -0.0701166 21.3159
2.0993 1.15714 8.9514
1.91199 -0.373754 19.762
1.8023 0.285398 18.2103
-1.23188 0.502847 19.9313
-1.64415 1.90442 18.8269
-0.905702 0.891974 19.9289
-0.873022 0.494162 19.4093
-2.14081 1.34779 20.1479
-1.52217 0.41665 20.9692
-2.89411 2.42995 20.4741
-1.24263 1.06585 20.8364
-2.0787 0.565544 21.6875
-0.777917 0.00578013 21.7089
-1.94519 0.599254 21.9556
-0.706981 0.419327 21.7461
-0.432013 -0.139605 22.1054
0.129619 -0.279292 21.6901
0.47214 -0.500428 19.7396
0.010392 -0.261449 21.7023
0.482134 -0.710989 21.6175
0.564901 -0.512149 21.4085
0.707369 -1.00008 19.5461
0.279648 -0.51055 21.3232
0.705257 -0.921567 21.2594
0.74674 -0.532534 20.8474
0.738051 -1.19337 18.6534
0.1805 -0.439434 21.4009
0.557859 -0.66099 20.34
1.51264 -1.78257 18.6798
0.022513 -2.43569 18.6143
0.0330731 -3.27258 16.1141
0.00599805 -0.862576 18.8204
0.0624162 -6.06635 22.2446
0.533446 -0.958686 19.995
0.0244951 -1.71469 22.2484
-0.000617242 -0.28735 13.4046
0.242072 0.0486395 16.5653
0.00636742 -0.581755 20.5889
-0.00945928 -0.0530557 12.6934
0.100321 0.391752 15.4924
-0.0109949 0.0426552 19.4445
-0.0372624 0.185537 10.0503
0.289292 1.33141 15.5082
-0.0275725 0.0569809 18.1716
-0.0201915 -1.13191 -2.77645
-0.0186235 0.47514 8.66441
-0.573232 1.49302 15.737
-0.0210396 0.997653 16.4292
0.00761047 -0.693836 -0.895813
-0.0323487 1.32616 12.5598
3.06736 -0.647816 16.6334
-0.017914 3.07333 13.4511
-0.00139657 -0.38329 17.8419
-0.0376056 1.3655 2.93003
0.024253 -0.310565 -0.719544
0.0169367 -1.38708 -4.7686
-2.09001 1.15094 9.05461
0.0193965 -1.80466 -0.253639
0.0258588 -1.46635 1.29194
1.66724 1.89386 18.8486
0.0235466 1.83405 19.4538
0.00838863 1.21158 18.4097
0.038658 4.25539 19.3458
2.91121 2.37004 20.4993
0.0280514 2.66695 20.4949
0.0061002 5.93484 21.0268
1.93363 0.646784 21.8148
-0.016896 1.42358 22.3811
-0.00666746 0.177494 18.0027
-0.568151 -0.470279 19.0155
-0.00697857 -0.280993 21.9452
-0.00149186 -0.616037 12.2694
-0.728116 -0.989153 19.2179
0.0101247 -0.738648 21.4102
-0.00232638 -1.20359 14.7357
-0.764502 -1.19349 18.4426
0.00825511 -0.67758 20.9605
0.0122292 -1.28652 17.4128
1.07899 -0.511645 19.9383
1.17608 -1.01423 19.6472
1.77489 -0.938177 19.2017
0.706263 -0.481136 19.5252
2.23778 -1.78663 20.4361
1.05304 -0.711911 21.226
0.905823 -1.10841 21.506
1.35426 -1.40594 21.8663
0.311749 -0.614095 21.6549
0.230425 -0.310175 21.5286
0.138829 -0.234062 21.5917
0.0009262 -0.268867 20.1719
-0.120265 0.060071 21.2874
-0.268755 0.0999616 21.6515
-0.158731 0.306401 21.5684
-0.339474 0.599248 19.1082
-0.668782 0.981363 20.6653
-0.797675 0.453701 21.3714
-0.534652 0.874224 21.3191
-1.15976 1.16698 19.2453
-0.931078 1.03252 20.5117
-1.01851 0.380609 20.8978
-0.792947 1.08414 21.5218
-1.59231 1.0153 19.2514
-0.861462 0.711712 20.672
1.50984 -0.213235 19.775
2.42007 0.419167 18.8619
0.984679 -0.204019 19.2051
4.33594 -0.714762 20.2453
1.54975 -0.514285 21.3021
2.88524 -0.423965 21.633
0.866418 -1.07299 20.9329
0.448827 -0.402033 21.6796
0.875612 -0.754801 21.2504
-0.127537 0.0445935 18.9435
-0.386173 -0.108375 21.8127
-0.741372 0.0954122 19.5667
-1.36905 0.741989 16.1621
-1.15192 -0.00926447 21.3664
-1.52789 -0.177952 19.0243
-1.93681 0.605107 17.3813
-1.24769 -0.0615479 21.3435
-1.89785 -0.350762 19.8255
-1.78301 0.264143 18.2437
1.23407 0.491849 19.957
0.91187 0.8701 19.9522
0.895585 0.504526 19.4066
2.12754 1.29068 20.1767
1.5041 0.396534 20.9812
1.2395 1.03687 20.846
2.06684 0.547331 21.6823
0.778833 0.00310143 21.7089
0.710605 0.433802 21.7601
0.44758 -0.135609 22.129
-0.14112 -0.291515 21.7067
-0.014124 -0.27023 21.7192
-0.475754 -0.724692 21.5955
-0.571515 -0.534153 21.3755
-0.270441 -0.540323 21.3521
-0.705276 -0.934261 21.2808
-0.787667 -0.542375 20.8317
-0.173103 -0.458796 21.4041
-0.562307 -0.665711 20.2152
-1.36482 -0.986566 19.4393
-1.10697 -1.37042 21.7433
-0.0533563 -0.256987 21.422
0.28492 0.420177 21.015
0.827971 1.1303 20.53
1.16201 1.08636 20.6901
-2.24648 -0.391002 18.8292
-2.31915 -1.21418 22.0943
-0.259346 -0.503514 19.569
0.561391 0.597978 17.5269
1.61276 0.645127 16.967
1.97182 0.449062 17.2548
-1.58924 1.0353 19.4787
-2.29183 0.967561 20.9334
-1.22122 0.127146 22.0915
0.161584 -0.451172 21.9425
0.64012 -0.826875 21.4374
0.862635 -0.828543 20.9521
0.0320129 -2.85202 17.7123
0.00949312 -1.05084 17.4149
-0.0164226 -0.398979 13.0924
-0.0217549 0.0995562 11.4153
-0.0603585 -0.335489 8.59194
-0.00353715 0.470594 7.80444
0.0110056 -1.11076 13.4067
0.0326482 -1.07656 -3.37526
0.00348034 -1.16034 -0.0453882
0.0159505 3.06414 18.1116
0.0285559 4.4855 19.5426
-0.0162611 2.00631 20.0391
-0.00156596 -0.482206 14.0894
-0.00442429 -0.838444 13.4045
0.00137414 -1.43787 15.6991
1.41606 -1.01161 19.4957
1.08743 -1.2566 21.7032
0.04941 -0.253593 21.4406
-0.282364 0.415559 21.0359
-0.816181 1.09818 20.5524
-1.16262 1.04036 20.6954
2.32515 -0.397807 18.8548
2.19196 -1.2061 22.075
0.281883 -0.52382 19.7635
-0.560332 0.578356 17.7072
-1.60099 0.634817 17.2508
-1.94291 0.414064 17.3425
1.59995 1.02756 19.5048
2.28067 0.920591 20.952
1.22946 0.131897 22.0982
-0.16491 -0.461653 21.9195
-0.639319 -0.84298 21.4334
-0.828642 -0.830268 21.0319
-2.30544 -0.81786 2.89993
-0.0065217 -0.0416778 0.218462
-0.0106682 -0.00845299 0.23619
0.0218464 0.032849 0.0506795
-0.0616615 0.0402219 0.138924
-0.0648448 0.0183781 0.36497
-1.04767 0.0078748 1.50585
-0.0134685 0.0811483 0.178496
-0.567978 0.0825392 1.35533
-0.0455898 0.0520106 -0.021393
0.00894386 0.100961 -0.0863911
0.0629687 0.00856998 0.376072
0.000331234 -0.0566037 0.33904
0.604704 -0.272309 0.904635
0.049024 -0.0436382 0.808945
0.0597649 0.0391522 0.13738
-0.019715 0.0336445 0.04829
0.0514046 0.0156828 0.289544
0.0131606 0.0810203 0.178296
0.968816 0.0725058 1.40986
0.54989 0.0788829 1.30379
-0.0127741 0.106464 -0.0900255
0.0466891 0.0554272 -0.0229726
-0.0643324 0.00889878 0.379307
-0.0351528 -0.00725204 0.247734
-0.00258922 0.00011746 0.106567
-0.000774281 0.00482224 0.0752784
0.0203348 -0.0420922 0.41919
-0.00698319 0.0100323 0.289081
-0.00440953 0.00129552 0.227753
-0.00257575 0.0327175 0.204082
0 0 0
-0.0315911 -0.0273655 0.209337
-0.000232693 0.00403076 0.0589025
0 0 0
-0.0505801 0.0561079 0.153298
0 0 0
0.000569483 0.00311091 0.0149991
0 0 0
0.0441167 0.000752511 0.222874
0.0562252 0.0182974 0.656203
-0.0154255 -0.0225415 0.382527
0.0257023 0.0245252 0.83923
0.00064154 0.00425351 0.0365668
0.00831325 0.00701536 0.36877
0 0 0
0.00373997 0.00382106 0.207368
0.00300014 0.0381237 0.23144
0.04411 -0.0523771 0.285158
0.0489021 0.0542713 0.148137
-0.000272647 0.00396694 0.0642534
0 0 0
0 0 0
-0.043741 0.000785662 0.218903
-0.000599669 0.00229636 0.0114328
-1.36321e-17 2.20664e-17 9.22526e-17
-0.0964438 -0.0655544 0.470305
-0.0705811 0.0147826 0.0425235
-0.000321246 -0.00466303 0.0738786
0 0 0
0 0 0
0 0 0
0.00636408 0.00612352 0.0513719
0 0 0
-4.93588e-07 5.47179e-07 0.000108478
-0.000903102 0.0116238 -0.00370656
0.0018017 0.0234106 0.177791
-0.000962448 0.000724991 0.0381478
-0.000562327 0.513928 0.346742
2.37044e-05 0.00843965 0.0376901
-0.0498885 -0.0716621 0.407876
0 0 0
0 0 0
0 0 0
0.0074825 0.0143978 0.0837468
-0.000719681 7.07794e-05 -0.000276062
0.116358 0.0247703 0.0693533
0.0455511 -0.0327529 0.237741
0 0 0
0 0 0
0 0 0
-0.00575008 0.00576266 0.0465652
0.000761398 0.000742448 0.0391031
-0.00405527 0.0230955 0.182851
0 0 0
0.0227738 -0.040248 0.245699
0.000777872 8.33788e-05 -0.000326613
-0.00795271 0.0155817 0.0887694
-0.00198191 0.0120548 0.127099
0 0 0
0 0 0
-4.2437e-05 0.00143038 0.00980516
0.000519268 0.00649621 0.112256
0 0 0
8.58484e-05 0.00137542 0.00800215
4.42189e-05 0.00266536 0.0161254
-2.08979e-08 -1.69668e-08 4.46803e-06
0 0 0
0.00218454 0.0310377 0.177838
0.0538324 0.0631389 0.990319
-3.73888e-06 0.00232047 0.00484805
-0.000111057 0.0679267 0.272856
-1.01806e-06 0.000190547 0.0114763
-3.09304e-05 -0.00383401 0.023099
0 0 0
0.00304124 0.0178328 0.151597
-0.000216848 -0.000660295 0.0211312
2.95817e-05 0.00127715 0.00915203
-3.75296e-05 0.000741128 0.00452741
0 0 0
-0.0581928 0.0638246 0.982003
0.00196705 0.0382826 0.152805
-0.0699841 -0.0561455 0.531213
0 0 0
0.0109972 -0.010366 0.169667
-0.00241965 -0.00499006 0.074946
-0.0026617 0.0102905 0.118544
0.00155538 0.0155412 0.0998481
-0.00117398 0.0162467 0.118354
0.00184331 0.0106316 0.0528415
-0.00128688 0.0150038 0.111674
4.26373e-05 0.0375241 0.186645
0 0 0
0.00547811 0.00330589 0.0374604
0.00169428 -0.00717707 0.129635