# vtk DataFile Version 2.0
tet_velo
ASCII
DATASET UNSTRUCTURED_GRID
POINTS 29498 float
-0.717753 0.265 -2.075
-0.698417 0.305 2.105
-0.715 0.822427 -1.915
-0.695 1.05019 2.135
0.716592 0.265 -2.075
0.697279 0.305 2.105
0.715 0.821155 -1.915
0.695 1.04926 2.135
-0.732468 0.257173 -0.681667
-0.729491 0.267038 0.711667
-0.812702 1.00272 -0.565
-0.787441 1.06004 0.785
0.731291 0.257197 -0.681667
0.728324 0.267059 0.711667
0.8129 1.00176 -0.565
0.787561 1.05912 0.785
-1.48281 -0.142747 -3.2277
-1.47889 -0.0888267 -2.13038
-1.4857 -0.0902623 -0.73593
-1.46937 -0.0985136 0.667245
-1.43736 -0.0764468 2.06243
-1.43254 -0.0526132 3.16334
-1.43872 -0.0268228 4.25759
-1.48052 0.185122 -3.16327
-1.4811 0.259393 -2.0707
-1.4993 0.277898 -0.684674
-1.47381 0.278802 0.705248
-1.42397 0.299309 2.0921
-1.42407 0.322513 3.1924
-1.43537 0.348055 4.28806
-1.48104 0.810405 -3.02227
-1.49268 0.88298 -1.9279
-1.55496 1.01056 -0.571418
-1.52015 1.05575 0.781993
-1.43684 1.05718 2.1393
-1.43278 1.07772 3.24139
-1.44377 1.10373 4.34404
-1.48503 1.86691 -2.84334
-1.49594 1.95274 -1.75546
-1.52481 2.08636 -0.413031
-1.5323 2.17822 0.92006
-1.51091 2.21386 2.26294
-1.49285 2.23062 3.35177
-1.48366 2.25039 4.44969
-0.739656 -0.140987 -3.23049
-0.72876 -0.0842184 -2.13446
-0.73522 -0.100264 -0.735383
-0.73301 -0.10784 0.672723
-0.715764 -0.0764614 2.07201
-0.711136 -0.0536778 3.16984
-0.71419 -0.0291257 4.26135
-0.736662 0.18012 -3.16413
-0.703941 0.321981 3.19776
-0.711637 0.345768 4.2909
-0.733273 0.783485 -3.01691
-0.708798 1.07415 3.24053
-0.718201 1.10082 4.34386
-0.72758 1.84883 -2.83804
-0.731067 1.93596 -1.74963
-0.759025 2.08178 -0.409513
-0.778988 2.18065 0.919638
-0.771959 2.21449 2.25993
-0.758308 2.22959 3.34876
-0.749885 2.24894 4.4475
0.726392 -0.141286 -3.23049
0.727456 -0.0843177 -2.13446
0.73435 -0.100325 -0.735383
0.726394 -0.107902 0.672723
0.706465 -0.0765534 2.07201
0.715889 -0.0539338 3.16984
0.725923 -0.0294855 4.26135
0.722325 0.179737 -3.16413
0.713088 0.321671 3.19776
0.724455 0.345366 4.2909
0.730153 0.782696 -3.01691
0.710975 1.07354 3.24053
0.721286 1.1003 4.34386
0.777559 1.84809 -2.83804
0.788447 1.93517 -1.74963
0.781128 2.08102 -0.409513
0.745716 2.17992 0.919638
0.715203 2.21379 2.25993
0.71178 2.22895 3.34876
0.716338 2.24835 4.4475
1.46814 -0.143448 -3.2277
1.47176 -0.0893087 -2.13038
1.48279 -0.0906638 -0.73593
1.46828 -0.0989067 0.667244
1.43802 -0.0768863 2.06243
1.44038 -0.0532244 3.16334
1.45117 -0.0275707 4.25759
1.46564 0.18427 -3.16327
1.4727 0.258765 -2.0707
1.49611 0.277367 -0.684674
1.47707 0.278285 0.705248
1.43084 0.298758 2.0921
1.43535 0.321796 3.1924
1.44845 0.347233 4.28806
1.47836 0.80902 -3.02227
1.49179 0.881409 -1.9279
1.55516 1.00919 -0.571418
1.52185 1.05444 0.781992
1.43956 1.05589 2.1393
1.43612 1.07659 3.24139
1.44724 1.10271 4.34404
1.52813 1.86549 -2.84334
1.54176 1.95126 -1.75546
1.54235 2.08492 -0.413032
1.50705 2.17683 0.92006
1.46592 2.21252 2.26294
1.45321 2.22937 3.35177
1.45338 2.24923 4.44969
-0.765562 0.543713 -2.04419
-0.00058049 0.24564 -2.09436
-0.760804 0.225393 -1.37833
-0.736632 0.677595 2.15992
-0.000569016 0.289815 2.12018
-0.748259 0.251714 1.40833
0 0.891342 -1.98455
-0.815032 0.963753 -1.24
0 1.09084 2.17611
-0.765124 1.07902 1.46
0.76469 0.543077 -2.04389
0.759722 0.225318 -1.37833
0.736392 0.67713 2.16025
0.747717 0.251114 1.40833
0.81486 0.962366 -1.24
0.76488 1.07779 1.46
-0.774509 0.218576 0.015
-0.896445 0.629944 -0.623333
-0.000588827 0.226108 -0.681667
-0.888651 0.663541 0.748333
-0.000583411 0.227079 0.711667
-0.800638 1.03195 0.11
9.89977e-05 1.36628 -0.565
6.0104e-05 1.53045 0.785
0.77336 0.218576 0.015
0.895149 0.629477 -0.623333
0.887523 0.663089 0.748333
0.800552 1.03076 0.11
-0.888387 0.586829 -1.30917
-0.897683 0.646743 0.0625
-0.88133 0.670568 1.43417
-0.000584658 0.24595 -1.37833
-0.000586119 0.226376 0.015
-0.000576214 0.257627 1.40833
-0.000290245 0.543395 -2.28674
-0.000284508 0.677363 2.22006
4.94988e-05 1.05435 -1.24
7.95509e-05 1.53084 0.11
3.0052e-05 1.34492 1.46
0.88788 0.586277 -1.30917
0.896524 0.646283 0.0625
0.881371 0.67011 1.43417
-1.09943 0.262196 -2.07285
-0.723257 0.0903908 -2.10473
-0.727208 0.22256 -2.61957
-1.06119 0.302154 2.09855
-0.70709 0.114269 2.0885
-0.701179 0.31349 2.65138
-1.10384 0.852704 -1.92145
-0.724136 0.802956 -2.46596
-0.723034 1.37919 -1.83231
-1.06592 1.05368 2.13715
-0.701899 1.06217 2.68777
-0.733479 1.63234 2.19746
0.722024 0.0903411 -2.10473
0.719459 0.222369 -2.61957
1.09465 0.261883 -2.07285
0.701872 0.114223 2.0885
0.705183 0.313335 2.65138
1.06406 0.301879 2.09855
0.722577 0.801926 -2.46596
0.751723 1.37816 -1.83231
1.10339 0.851282 -1.92145
0.702988 1.0614 2.68777
0.705101 1.63153 2.19746
1.06728 1.05257 2.13715
-1.11588 0.267535 -0.683171
-0.733844 0.0784546 -0.708525
-1.10165 0.27292 0.708458
-0.73125 0.0795991 0.692195
-1.18383 1.00664 -0.568209
-0.785863 1.54225 -0.487256
-1.1538 1.0579 0.783496
-0.783215 1.62035 0.852319
0.73282 0.0784361 -0.708525
1.1137 0.267282 -0.683171
0.727359 0.0795786 0.692195
1.1027 0.272672 0.708458
0.797014 1.54139 -0.487256
1.18403 1.00547 -0.568209
0.766639 1.61952 0.852319
1.15471 1.05678 0.783496
-1.48085 -0.115787 -2.67904
-1.48167 0.0211874 -3.19548
-1.11123 -0.141867 -3.22909
-1.4823 -0.0895445 -1.43316
-1.47999 0.0852831 -2.10054
-1.10383 -0.0865226 -2.13242
-1.47754 -0.0943879 -0.0343429
-1.4925 0.0938179 -0.710302
-1.11046 -0.0952629 -0.735657
-1.45336 -0.0874802 1.36484
-1.47159 0.0901443 0.686246
-1.10119 -0.103177 0.669984
-1.43495 -0.06453 2.61289
-1.43066 0.111431 2.07727
-1.07656 -0.0764541 2.06722
-1.43563 -0.039718 3.71047
-1.42831 0.13495 3.17787
-1.07184 -0.0531455 3.16659
-1.43704 0.160616 4.27283
-1.07646 -0.0279743 4.25947
-1.48081 0.222257 -2.61699
-1.48078 0.497763 -3.09277
-1.10859 0.182621 -3.1637
-1.4902 0.268645 -1.37769
-1.48689 0.571187 -1.9993
-1.48655 0.27835 0.0102871
-1.52713 0.644227 -0.628046
-1.44889 0.289055 1.39867
-1.49698 0.667276 0.74362
-1.42402 0.310911 2.64225
-1.43041 0.678243 2.1157
-1.42972 0.335284 3.74023
-1.42843 0.700116 3.2169
-1.06401 0.322247 3.19508
-1.43957 0.725894 4.31605
-1.0735 0.346911 4.28948
-1.48686 0.846692 -2.47508
-1.48303 1.33866 -2.93281
-1.10716 0.796945 -3.01959
-1.52382 0.946768 -1.24966
-1.49431 1.41786 -1.84168
-1.53756 1.03315 0.105287
-1.53989 1.54846 -0.492225
-1.4785 1.05646 1.46065
-1.52623 1.61698 0.851026
-1.43481 1.06745 2.69035
-1.47388 1.63552 2.20112
-1.43827 1.09073 3.79272
-1.46282 1.65417 3.29658
-1.07079 1.07594 3.24096
-1.46371 1.67706 4.39687
-1.08098 1.10228 4.34395
-1.49049 1.90983 -2.2994
-1.10631 1.85787 -2.84069
-1.51037 2.01955 -1.08425
-1.1135 1.94435 -1.75254
-1.52856 2.13229 0.253514
-1.14192 2.08407 -0.411272
-1.52161 2.19604 1.5915
-1.15565 2.17943 0.919849
-1.50188 2.22224 2.80736
-1.14144 2.21417 2.26144
-1.48826 2.2405 3.90073
-1.12558 2.2301 3.35026
-1.11677 2.24967 4.44859
-0.734208 -0.112603 -2.68248
-0.738159 0.0195667 -3.19731
-0.00663161 -0.141136 -3.23049
-0.73199 -0.092241 -1.43492
-0.000652021 -0.0842681 -2.13446
-0.734115 -0.104052 -0.0313303
-0.000434893 -0.100294 -0.735383
-0.724387 -0.0921506 1.37237
-0.00330773 -0.107871 0.672723
-0.71345 -0.0650696 2.62092
-0.00464959 -0.0765074 2.07201
-0.712663 -0.0414018 3.7156
-0.707538 0.134151 3.1838
0.00237639 -0.0538058 3.16984
-0.712914 0.158321 4.27612
0.00586658 -0.0293056 4.26135
-0.734967 0.481803 -3.09052
-0.00716839 0.179929 -3.16413
-0.707789 0.333874 3.74433
-0.706369 0.698066 3.21914
0.00457365 0.321826 3.19776
-0.714919 0.723296 4.31738
0.00640861 0.345567 4.2909
-0.730426 1.31616 -2.92748
-0.00155969 0.783091 -3.01691
-0.713499 1.08749 3.7922
-0.733553 1.65187 3.29465
0.0010887 1.07384 3.24053
-0.734043 1.67488 4.39568
0.00154227 1.10056 4.34386
-0.729324 1.8924 -2.29383
0.0249896 1.84846 -2.83804
-0.745046 2.00887 -1.07957
0.0286897 1.93557 -1.74963
-0.769007 2.13122 0.255063
0.0110515 2.0814 -0.409513
-0.775474 2.19757 1.58978
-0.016636 2.18028 0.919638
-0.765133 2.22204 2.80434
-0.0283781 2.21414 2.25993
-0.754096 2.23927 3.89813
-0.0232638 2.22927 3.34876
-0.0167733 2.24865 4.4475
0.726924 -0.112802 -2.68248
0.724359 0.0192258 -3.19731
1.09727 -0.142367 -3.22909
0.730903 -0.0923213 -1.43492
1.09961 -0.0868132 -2.13242
0.730372 -0.104113 -0.0313303
1.10857 -0.0954943 -0.735657
0.716429 -0.0922278 1.37237
1.09734 -0.103404 0.669984
0.711177 -0.0652436 2.62092
1.07224 -0.0767199 2.06722
0.720906 -0.0417096 3.7156
0.714488 0.133868 3.1838
1.07813 -0.0535791 3.16659
0.725189 0.15794 4.27612
1.08855 -0.0285281 4.25947
0.726239 0.481217 -3.09052
1.09398 0.182004 -3.1637
0.718771 0.333519 3.74433
0.712032 0.697604 3.21914
1.07422 0.321733 3.19508
0.72287 0.722834 4.31738
1.08645 0.3463 4.28948
0.753856 1.31539 -2.92748
1.10425 0.795858 -3.01959
0.71613 1.08692 3.7922
0.711378 1.65124 3.29465
1.07355 1.07506 3.24096
0.718812 1.67433 4.39568
1.08426 1.1015 4.34395
0.783003 1.89163 -2.29383
1.15285 1.85679 -2.84069
0.784787 2.0081 -1.07957
1.1651 1.94322 -1.75254
0.763422 2.13047 0.255063
1.16174 2.08297 -0.411272
0.730459 2.19686 1.58978
1.12638 2.17837 0.919849
0.713491 2.22137 2.80434
1.09056 2.21316 2.26144
0.714059 2.23865 3.89813
1.08249 2.22916 3.35026
1.08486 2.24879 4.44859
1.46995 -0.116378 -2.67904
1.46689 0.0204109 -3.19548
1.47727 -0.0899863 -1.43316
1.47223 0.0847283 -2.10054
1.47553 -0.0947853 -0.034343
1.48945 0.0933515 -0.710302
1.45315 -0.0878965 1.36484
1.47268 0.0896891 0.686246
1.4392 -0.0650553 2.61289
1.43443 0.110936 2.07727
1.44578 -0.0403975 3.71047
1.43787 0.134286 3.17787
1.44981 0.159831 4.27283
1.46917 0.221518 -2.61698
1.472 0.496645 -3.09277
1.4844 0.268066 -1.37769
1.48224 0.570087 -1.9993
1.48659 0.277826 0.010287
1.52563 0.643278 -0.628046
1.45396 0.288522 1.39867
1.49946 0.666364 0.74362
1.4331 0.310277 2.64225
1.4352 0.677324 2.1157
1.4419 0.334515 3.74023
1.43574 0.699193 3.2169
1.44784 0.72497 4.31605
1.48507 0.845214 -2.47508
1.50324 1.33725 -2.93281
1.52347 0.945299 -1.24966
1.51677 1.41633 -1.84168
1.5385 1.03182 0.105287
1.54875 1.54705 -0.492225
[...]
POINT_DATA 29498
VECTORS point_vectors float
-2.3281 -4.8206 7.00614
-0.0561859 0.17091 0.656234
-1.20191 0.600379 2.15502
0.090818 -0.043008 0.468625
2.40673 -4.90267 7.04829
0.049427 0.174221 0.652239
1.26332 0.611282 2.24735
-0.0907067 -0.041173 0.46207
0 0 0
0 0 0
4.92974e-19 1.29828e-18 8.64191e-18
0 0 0
0 0 0
0 0 0
0 0 0
0 0 0
-0.598082 -0.320857 19.8335
-1.28779 -0.843412 20.4823
-0.471277 -0.494541 21.4788
0.0677244 -0.0851608 21.5842
0.520021 0.313196 21.5256
0.79357 0.43026 21.172
0.795579 0.387236 20.748
-0.736631 -0.253214 19.7187
-1.90082 -0.756033 20.4451
-0.622867 -0.618116 21.6058
0.0961048 -0.221937 21.7442
0.826118 0.200635 21.5634
1.12137 0.269813 21.2345
1.02899 0.210788 21.1181
-0.952004 0.0692361 19.5967
-2.1662 0.139092 20.4657
-1.21402 -0.319555 21.5856
-0.187788 -0.321108 21.8271
0.76977 -0.396455 21.6785
1.08147 -0.490061 21.3978
0.993427 -0.338976 20.8613
-0.627141 0.45969 19.9384
-1.00479 0.682605 20.4689
-0.860127 0.415847 21.316
-0.203424 -0.0667353 21.6301
0.203044 -0.338141 21.4491
0.367413 -0.399446 21.2304
0.337268 -0.411118 20.7971
-0.577103 -0.662365 19.2934
-1.70805 -3.33467 20.6554
-0.2519 -0.358608 21.5431
-0.042428 0.201768 20.708
0.0344054 0.961894 20.1522
0.188727 1.27839 19.6533
0.352423 1.15487 19.2708
-0.771213 -0.592712 18.913
0.327848 1.82406 10.4312
1.6653 1.24762 12.3607
-1.1449 0.278546 18.3267
1.77832 0.0427464 9.62008
1.76705 -0.351532 15.0441
-0.559607 0.89222 19.5374
-1.05099 1.70708 20.1894
-1.18614 1.53225 21.5827
-0.289103 0.122937 22.0188
0.0992384 -0.531589 21.6193
0.248142 -0.605263 21.0192
0.0857722 -0.494317 20.9024
0.562768 -0.666973 19.2742
1.7017 -3.32761 20.6363
0.278776 -0.366486 21.5481
0.060125 0.186989 20.6835
-0.0276642 0.973915 20.0797
-0.204064 1.30064 19.6246
-0.387803 1.13714 19.2855
0.765036 -0.602836 18.9001
-0.38525 1.87513 10.6632
-1.663 1.23436 12.7177
1.13929 0.277122 18.3225
-1.78443 0.0448166 9.68398
-1.75335 -0.355275 15.1351
0.579639 0.875542 19.5541
1.08782 1.61985 20.2151
1.19479 1.48969 21.5784
0.284629 0.134018 22.0364
-0.0769447 -0.537454 21.6465
-0.240113 -0.635953 21.0604
-0.0940822 -0.496034 20.7112
0.594973 -0.321557 19.8295
1.29611 -0.857236 20.4843
0.476462 -0.500333 21.4848
-0.0612676 -0.0888434 21.5794
-0.513682 0.314918 21.5316
-0.792686 0.424743 21.1845
-0.799351 0.380656 20.6905
0.742229 -0.256428 19.7096
1.92966 -0.779053 20.4411
0.624297 -0.617539 21.6147
-0.0898202 -0.223865 21.7416
-0.822406 0.193997 21.5702
-1.10619 0.264846 21.223
-1.03927 0.198865 21.0704
0.952096 0.0678789 19.5997
2.1698 0.140276 20.4637
1.21135 -0.319472 21.5959
0.185522 -0.316505 21.8346
-0.767528 -0.390327 21.6324
-1.07848 -0.474228 21.4044
-0.980719 -0.334579 20.8587
0.618886 0.434886 19.9623
0.978428 0.634364 20.4828
0.852717 0.405063 21.3169
0.216017 -0.0543314 21.6342
-0.194172 -0.346142 21.471
-0.3574 -0.417685 21.2007
-0.301519 -0.415443 20.8859
-0.27683 -0.00530641 0.374178
-0.00301488 -0.0564634 0.350729
-0.0418067 -0.0118486 0.82634
-0.0219771 0.0174084 -0.0133478
0.00323189 0.00934215 0.063441
-0.0458777 0.0348677 0.84794
7.13989e-06 0.0280654 0.0721587
-0.525835 -0.271059 1.18707
1.26145e-05 0.0626654 -0.0332664
0 0 0
0.321258 -0.00822371 0.43778
0.0391289 -0.00275614 0.790254
0.020915 0.019196 -0.012767
0.0507491 0.0270023 0.879901
0.493895 -0.261057 1.15026
0 0 0
-0.0195909 0.00765625 0.889094
-2.59334e-05 0.000346503 0.00461746
5.06401e-05 -0.00208499 0.0382207
0.000175323 0.00179863 0.0108828
0.000140513 0.00182476 0.0578169
0 0 0
-5.63651e-05 0.0548437 0.1271
-5.94521e-05 -0.000846089 0.0207545
0.020992 0.00826995 0.895892
0 0 0
0 0 0
0 0 0
-0.000956901 -0.00324424 0.0364768
1.30944e-05 0.00130524 0.00844493
5.26674e-06 2.90446e-05 0.00020027
9.1149e-05 2.47935e-05 0.00342224
6.9063e-08 1.07109e-08 7.37761e-05
-1.0467e-07 2.41246e-07 3.55508e-05
0.000881806 0.327003 0.157303
6.38215e-05 0.0317592 -0.00612702
0 0 0
-1.07146e-05 0.00188531 0.0288364
0.000101559 0.00115652 -0.00243396
0 0 0
0 0 0
0 0 0
-3.57459 -1.98523 20.2537
-2.70369 -5.43541 20.8468
-2.21784 -1.83952 17.7203
1.03973 1.07183 18.0135
-0.294459 1.19236 13.669
-0.52819 1.44514 6.98036
-4.28121 0.782936 20.3112
-3.48171 1.60731 16.5608
-2.35264 2.87416 19.8523
1.32676 -0.027236 18.1507
0.860026 0.526755 5.19601
0.539171 -0.811128 19.2901
2.69836 -5.42929 20.8128
2.20244 -1.8374 17.7046
3.61165 -2.02029 20.234
0.258482 1.2078 13.393
0.494466 1.47024 7.0265
-1.053 1.05802 18.0638
3.47693 1.60542 16.5509
2.37646 2.75287 19.8809
4.28951 0.789554 20.2969
-0.862969 0.530851 5.2323
-0.556989 -0.807391 18.9912
-1.3175 -0.0469095 18.2077
-0.194594 -0.812052 20.2123
-0.223783 0.0948605 15.2745
0.264592 0.168668 18.4734
-0.0919509 0.327146 14.0092
-1.90483 -0.911999 21.9704
-3.58836 2.04181 21.9984
-0.0797072 -0.397712 20.5239
-0.386712 0.0707935 20.8325
0.283937 0.110056 15.2299
0.169596 -0.784746 20.1139
0.0977187 0.311152 13.7509
-0.258672 0.168808 18.4632
3.53002 1.95018 21.9981
1.89529 -0.908468 21.9756
0.308148 0.123329 20.398
0.086695 -0.397744 20.5561
-0.968432 -0.570293 19.9795
-0.680883 -0.296542 19.7884
-0.651401 -0.493646 19.5734
-0.949705 -0.747822 21.2404
-1.59623 -0.837007 20.4469
-1.76164 -1.78401 20.4767
-0.160713 -0.27447 21.5547
-0.545545 -0.561543 21.5352
-0.274875 -0.563976 21.6999
0.270184 0.119783 21.64
0.0862719 -0.149134 21.6553
0.137657 0.0486414 21.5813
0.657398 0.417678 21.4695
0.670141 0.282626 21.5894
0.525944 0.737029 21.3043
0.83597 0.401303 21.1068
0.975026 0.365771 21.3186
0.905339 0.96677 21.2019
0.937656 0.340112 20.9844
0.725689 0.844095 21.8464
-1.32475 -0.471852 19.8131
-0.877953 -0.131616 19.6055
-0.826253 -0.425134 19.3666
-1.31858 -0.779955 21.4116
-2.20058 -0.321305 20.4682
-0.218869 -0.422102 21.6815
-0.966096 -0.558509 21.6223
0.40999 -0.0224737 21.7584
-0.0156688 -0.310391 21.8435
1.00529 0.265328 21.4149
0.925042 -0.0923103 21.5925
1.26752 0.235234 21.0434
1.25846 -0.0812172 21.2906
1.39525 1.11952 18.6017
1.24053 -0.197161 20.8458
1.37725 0.851229 19.1756
-1.68096 0.160187 19.7513
-0.85551 0.359706 19.73
-1.10703 0.153744 19.1134
-1.76493 -0.158324 21.2456
-1.59354 0.638499 20.4254
-0.680273 -0.366357 21.7931
-1.26568 0.190921 21.4725
0.304149 -0.314835 21.8379
-0.289769 -0.153836 21.7846
0.993987 -0.415955 21.4727
0.406921 -0.450806 21.5424
1.05552 -0.465004 21.2224
0.605422 -0.544745 21.0758
1.65709 -0.45217 19.2766
0.514476 -0.461126 21.1057
1.6316 -0.396806 19.6025
-0.848847 0.619386 20.1526
-0.642766 0.654575 19.7548
-1.03445 0.609878 20.9488
-1.13701 1.11307 20.3733
-0.577098 0.178998 21.5814
-1.11697 0.834703 21.4682
0.0446165 -0.228729 21.5458
-0.277071 0.0227712 21.8069
0.289968 -0.374906 21.3015
0.180822 -0.438103 21.5199
0.413593 -0.446509 20.7709
0.337035 -0.588193 21.1432
0.194081 -0.479299 21.2784
-1.18035 -1.67703 19.0838
-0.654738 -0.633891 19.1295
-0.00668516 -0.883061 18.9643
-0.583943 -1.26909 22.2587
0.00209117 -4.8119 21.1764
-0.114358 -0.0458316 21.0564
-0.0242805 -0.647822 20.4616
0.0259659 0.48825 20.3757
-0.015812 -0.0354171 18.5379
0.0729163 1.12308 20.1529
0.00650951 0.361469 16.8918
0.552251 1.47098 19.6996
0.332876 1.79272 16.7797
0.0149227 0.490847 16.3854
0.805308 1.20279 16.2448
0.0215417 1.51129 14.8232
-1.05642 -0.239588 18.5055
-0.00478312 -0.821914 18.3865
0.914794 1.61395 10.8998
1.62612 1.06352 6.00661
0.0272514 -0.554309 -2.07571
2.10201 0.619378 11.6111
-0.0234693 -0.255721 5.41596
-0.903313 0.915435 18.9364
-0.00103416 0.491288 17.3841
1.85729 -0.505288 11.3466
0.820136 -1.05312 19.1924
-0.0109906 -1.00562 -1.67199
0.666884 -0.984018 18.6858
-0.00240237 -2.08423 1.14211
-0.827255 1.38321 19.7504
0.0265336 1.13617 19.3387
-1.21354 1.78971 20.7819
0.0608506 2.31996 19.9871
-0.756586 0.777941 22.0601
0.0222757 2.58462 21.6663
-0.0242058 -0.298123 21.8005
-0.00816831 0.301308 22.2356
0.209809 -0.670818 21.5118
0.00417612 -0.531239 21.6523
0.156288 -0.897498 20.749
0.00803074 -0.833193 21.3271
-0.00471475 -0.872183 21.1407
1.16646 -1.68478 19.0726
0.644241 -0.641655 19.1118
0.644936 -0.500776 19.5669
0.600923 -1.29476 22.2579
1.76872 -1.80033 20.4606
0.141328 -0.0611857 21.0395
0.286981 -0.562362 21.7067
-0.0121018 0.474727 20.3132
-0.128247 0.0514049 21.5784
-0.071966 1.1295 20.0996
-0.527617 0.749512 21.298
-0.561601 1.47262 19.682
-0.372118 1.80528 16.7244
-0.909306 0.958566 21.1826
-0.834858 1.17919 16.2688
-0.731138 0.823508 21.8366
1.04458 -0.240104 18.4926
0.82925 -0.427323 19.3507
-0.959741 1.5981 11.1671
-1.64673 1.09507 6.18963
-1.40756 1.0763 18.7252
-2.08374 0.611395 11.8217
-1.37328 0.832235 19.3587
0.915455 0.901081 18.9445
1.10566 0.15038 19.1066
-1.84779 -0.511264 11.4348
-0.790762 -1.09231 18.9228
-1.64787 -0.457649 19.3353
-0.665991 -0.990913 18.6302
-1.62036 -0.396849 19.6423
0.85231 1.33515 19.7641
0.64943 0.627075 19.7781
1.23049 1.70556 20.8018
1.13765 1.05181 20.3947
0.754561 0.784384 22.0631
1.1077 0.804415 21.464
0.0265197 -0.301423 21.8089
0.279239 0.0261123 21.8253
-0.186284 -0.677234 21.5444
-0.163812 -0.449924 21.5437
-0.142104 -0.911943 20.7981
-0.332667 -0.602669 21.142
-0.181384 -0.4797 21.2911
0.968779 -0.576488 19.9767
0.682588 -0.297751 19.7755
0.959105 -0.763235 21.2429
1.61326 -0.855882 20.4517
0.167561 -0.278139 21.5549
0.549319 -0.56489 21.542
-0.264815 0.106653 21.6255
-0.077389 -0.153173 21.6498
-0.652593 0.416048 21.4819
-0.670277 0.275022 21.5908
-0.824111 0.39117 21.1003
-0.964936 0.36477 21.3184
-0.950087 0.330945 20.9328
1.33871 -0.483241 19.7945
0.88151 -0.134109 19.6028
1.33725 -0.791969 21.4195
2.22577 -0.322055 20.4648
0.21971 -0.423303 21.6853
0.964289 -0.559137 21.6291
-0.405413 -0.0246147 21.7656
0.0200371 -0.307644 21.8431
-0.999947 0.253968 21.4165
-0.917428 -0.0965427 21.5988
-1.25035 0.236985 21.1006
-1.24736 -0.0875263 21.2788
-1.22104 -0.192367 20.8744
1.6809 0.158026 19.7496
0.84239 0.351572 19.7523
1.76857 -0.152396 21.2558
1.56084 0.607971 20.4413
0.67885 -0.364294 21.7933
1.25402 0.186436 21.4744
-0.303481 -0.314232 21.841
0.292916 -0.156335 21.798
-0.988854 -0.41047 21.4767
-0.414841 -0.46545 21.5608
-1.04186 -0.462554 21.1839
-0.616122 -0.555248 21.1015
-0.507954 -0.471978 21.1238
0.830839 0.582673 20.1728
1.00914 0.573643 20.9522
0.581271 0.180456 21.5873
-0.0511558 -0.235669 21.5755
-0.283331 -0.388452 21.3018
-0.371141 -0.477264 20.8635
-1.16377 -0.553936 19.8876
-1.59908 -1.86254 18.5247
-1.25365 -1.07014 19.5842
-1.90725 -0.970254 19.0908
-0.744326 -0.492717 19.491
-2.49313 -2.01949 20.3879
-1.1226 -0.794283 21.3333
-0.290117 -0.648794 18.7737
-0.894723 -1.21906 21.6644
-1.40828 -1.53603 22.0269
-0.201626 -0.691954 21.6861
-0.184516 -0.351609 21.6123
-0.0714991 0.138218 15.1237
-0.0251896 -0.238963 21.6879
0.066699 -0.289393 19.3831
0.264335 0.0776437 20.8586
0.347085 0.0617672 21.7059
-0.0524084 0.524722 14.1161
0.30236 0.332927 21.4759
0.423986 0.525204 18.2561
0.79419 0.917183 20.3066
0.870256 0.406483 21.3926
-0.179741 1.37836 14.8163
0.663818 0.860181 21.209
1.20338 1.07101 18.6823
1.03651 1.02674 20.2448
1.12032 0.323869 20.8506
0.674048 1.54567 15.6221
0.941048 1.12597 21.5194
1.65719 0.976622 19.1095
0.966626 0.724771 20.3117
-1.6079 -0.206172 19.7188
-3.23907 -0.568117 16.4242
-2.54654 0.50943 18.8455
-1.04564 -0.180505 19.1379
-4.6848 -0.614415 20.2339
-1.64948 -0.537159 21.3949
-2.93842 -0.418421 21.7162
-0.892107 -1.12665 20.7745
-0.438893 -0.452561 21.7733
-0.858773 -0.818834 21.2505
0.176768 0.0296771 18.2766
0.406513 -0.172913 21.8221
0.718927 0.0138525 19.4911
1.29791 0.681473 15.7127
1.1624 -0.0748042 21.3754
-0.00981903 1.27502 2.88891
1.4631 -0.216541 18.8821
1.90048 0.517251 16.9479
1.29664 -0.150795 21.3336
2.01209 1.10823 8.6394
1.85711 -0.43936 19.7276
1.80087 0.21451 17.9754
-1.30568 0.571703 19.9467
-1.70282 2.0606 18.8871
-0.915474 0.952598 19.9705
-0.951608 0.589869 19.3749
-2.17914 1.41717 20.2258
-1.56036 0.435411 21.0283
-2.90544 2.466 20.5459
-1.23228 1.08539 20.9013
-2.09911 0.575683 21.7469
-0.784563 -0.00661395 21.7462
-1.89673 0.595302 21.8898
-0.702994 0.412882 21.7848
-0.447564 -0.16883 22.1402
0.11992 -0.305768 21.7047
0.435062 -0.495151 19.6414
0.00192468 -0.268148 21.7226
0.433316 -0.717797 21.637
0.538611 -0.530169 21.4389
0.650641 -0.971752 19.5143
0.259417 -0.514028 21.3593
0.66452 -0.934457 21.3279
0.734461 -0.557519 20.8508
0.699616 -1.19241 18.6424
0.164556 -0.451304 21.4446
0.542156 -0.68785 20.2857
1.59375 -1.86846 18.5119
-0.00617017 -2.51076 18.4512
0.00154026 -3.26576 15.6881
-0.00552021 -0.936652 18.6972
0.0187693 -7.3152 22.7496
0.315143 -0.665816 18.7833
-0.020581 -1.65668 22.415
-0.022273 -0.204114 10.7194
0.106512 0.123673 14.987
-0.0222577 -0.299165 19.1611
0.000795209 0.0663314 9.97169
0.0598423 0.506667 13.8776
-0.00748691 0.187656 17.6103
0.0429912 0.285287 8.17229
0.163349 1.38908 14.708
0.0119779 0.164942 16.7618
0.0138281 -1.1956 -3.05957
0.0265422 0.513156 7.51293
-0.700775 1.54703 15.6423
0.0288981 1.14056 15.4349
0.0334169 -0.876596 -0.99972
-0.00696366 1.50517 12.0212
3.23255 -0.580689 16.3937
0.000575627 3.62023 13.1769
-0.00321397 -0.326193 17.6817
-0.015743 1.28806 2.98939
-0.0149203 -0.212794 -1.07652
-0.0129818 -1.38779 -4.71377
-2.0188 1.07846 8.81062
-0.000102953 -1.63329 -1.14936
-0.0169828 -1.24829 0.874178
1.71402 2.00326 18.9174
0.0450509 1.87498 19.5215
0.0170615 1.35116 18.3666
0.0553205 4.27698 19.4546
2.90809 2.36738 20.5884
0.0543587 2.63532 20.5561
0.0364892 5.87264 21.1202
1.89761 0.603876 21.8839
-0.0021507 1.38469 22.3997
-0.00328361 0.184659 18.1417
-0.505475 -0.485722 19.0798
-0.00313667 -0.258739 21.9439
0.00235449 -0.538026 12.0421
-0.659274 -0.972731 19.2849
0.0107667 -0.707126 21.4697
0.00262123 -1.14146 14.3739
-0.714207 -1.20121 18.4938
0.00748534 -0.708347 21.0132
0.0165661 -1.2666 17.2921
1.1646 -0.560803 19.8811
1.25531 -1.08054 19.5675
1.92668 -0.985154 19.0626
0.748057 -0.503274 19.477
2.51617 -2.0438 20.368
1.14051 -0.809761 21.3371
0.910801 -1.23666 21.6578
1.43727 -1.55526 21.9805
0.204027 -0.670591 21.6816
0.188778 -0.354379 21.6153
0.0367932 -0.235609 21.6845
-0.0662623 -0.274847 19.3221
-0.253109 0.0831526 20.8217
-0.341663 0.0578638 21.7068
-0.295078 0.337339 21.4708
-0.424092 0.521817 18.2849
-0.79965 0.925108 20.3004
-0.863942 0.394718 21.3983
-0.666956 0.862573 21.204
-1.21646 1.04504 18.8682
-1.04533 0.995274 20.3476
-1.10143 0.320506 20.8877
-0.957672 1.099 21.4686
-1.65995 0.941953 19.1318
-0.963935 0.711962 20.5129
1.62662 -0.211629 19.7145
2.54825 0.507515 18.8356
1.04686 -0.180469 19.1323
4.70845 -0.614249 20.2108
1.66825 -0.535509 21.4042
2.94236 -0.401673 21.7267
0.876177 -1.12828 20.7377
0.438407 -0.453169 21.775
0.858774 -0.817651 21.2761
-0.169956 0.024215 18.2967
-0.402645 -0.173558 21.8289
-0.705514 0.000484525 19.5576
-1.30935 0.663011 15.7946
-1.15063 -0.079111 21.3804
-1.45555 -0.228479 18.941
-1.88181 0.491898 17.1152
-1.27704 -0.144593 21.3557
-1.84694 -0.434716 19.7878
-1.79337 0.201229 18.1054
1.2812 0.545474 19.9703
0.916146 0.890579 20.0026
0.944674 0.570321 19.3944
2.14892 1.34149 20.2406
1.53357 0.417948 21.0287
1.22846 1.03622 20.9101
2.06066 0.553873 21.7367
0.786574 -0.00484093 21.7447
0.705812 0.417815 21.7871
0.463421 -0.159563 22.1479
-0.125829 -0.313104 21.7253
-0.000288909 -0.27246 21.7372
-0.425972 -0.73187 21.6305
-0.547276 -0.550621 21.4015
-0.248494 -0.539353 21.3877
-0.665394 -0.947388 21.3665
-0.772352 -0.564474 20.846
-0.155964 -0.465406 21.4494
-0.543288 -0.699814 20.2124
-1.49332 -1.07729 19.4157
-1.08872 -1.40919 21.9254
0.0748072 -0.280317 21.2276
0.427646 0.415878 20.5383
0.931489 1.04951 20.2462
1.28572 1.04894 20.5905
-2.47243 -0.355096 18.7249
-2.19534 -1.21848 21.9753
-0.227907 -0.545708 19.4174
0.551517 0.516225 17.206
1.50265 0.556613 16.6089
1.95185 0.372368 16.9638
-1.67714 1.16725 19.4979
-2.31416 0.99077 21.006
-1.22929 0.116021 22.1418
0.133563 -0.468727 21.9341
0.591463 -0.830822 21.4788
0.812782 -0.865503 21.0162
-0.00279773 -3.03424 17.4887
-0.0349557 -0.55525 12.8846
-0.00861437 -0.0735463 10.1646
-0.000709165 0.156067 9.26165
0.040137 -0.351262 6.73198
0.0377356 0.524439 7.15108
-0.00113554 -0.872798 12.822
-0.00595247 -1.02548 -3.42044
-0.0134695 -1.32445 -0.484131
0.0370723 3.25476 18.1817
0.0515568 4.48866 19.5882
-0.00203419 1.97544 19.972
0.000448867 -0.443239 14.0189
0.00119088 -0.745953 13.0748
0.00461957 -1.36716 15.3234
1.49648 -1.09036 19.4009
1.10756 -1.42546 21.9203
-0.0650239 -0.266961 21.2078
-0.420531 0.420495 20.5124
-0.943294 1.03283 20.2777
-1.29766 1.021 20.6051
2.47743 -0.359017 18.7103
2.23249 -1.20962 21.9622
0.226724 -0.54874 19.3946
-0.5534 0.505063 17.2681
-1.50923 0.536664 16.7805
-1.93903 0.34566 17.1101
1.64912 1.10749 19.5345
2.28412 0.948047 21.0145
1.22913 0.117081 22.1395
-0.134607 -0.478695 21.9296
-0.59144 -0.848039 21.4835
-0.787626 -0.869835 21.0932
-1.58144 -0.544778 2.19282
0.00480509 -0.0671628 0.415678
-0.00860589 -0.0263931 0.579485
0.0172391 0.0265602 0.0442461
-0.075383 0.0366737 0.240503
-0.0665517 0.0694177 0.630653
-0.775043 0.0690736 1.11457
-0.0235529 0.107161 0.25604
-0.1534 0.00799273 0.407608
-0.0381023 0.0483958 -0.0186956
0.00188764 0.00879731 -0.0120384
0.0420456 0.00714243 0.257925
-0.00188291 -0.0302485 0.125212
1.56185 -0.536152 2.15081
0.0101224 -0.0254067 0.568001
0.0680016 0.0295476 0.136428
-0.0173141 0.0290661 0.0438839
0.0559068 0.0671293 0.527533
0.0228884 0.103799 0.248192
0.651058 0.0651747 0.94738
0.202633 -0.0275139 0.481888
-0.00110254 0.00785988 -0.00883967
0.0351116 0.0482409 -0.0143956
-0.039469 0.00693804 0.243189
-0.0138047 -0.00500357 0.299551
-0.000176388 0.00841558 0.769838
-0.000704468 0.00351658 0.0442648
0 0 0
0.0270898 0.0950361 1.07452
-0.0271143 0.0165789 0.902653
-0.00113853 0.0272362 0.184746
0 0 0
-0.112707 -0.0806664 0.494608
-9.43067e-05 0.000983493 0.0204532
0 0 0
-0.0498587 0.0573232 0.158693
0 0 0
0.00272986 0.0123603 0.0655563
-1.48097e-17 -2.47032e-17 -1.05033e-16
0.039939 0.00138184 0.233159
0.0161743 -0.00389492 0.266852
0 0 0
0.0124136 0.00481041 0.810529
0.000489985 0.00308765 0.0388347
0.0219032 0.0586898 0.439309
0 0 0
0.0323799 0.0247363 0.886192
0.000950842 0.0276103 0.180886
0.116695 -0.0814232 0.493719
0.0491483 0.0566096 0.155452
0.000107088 0.000834818 0.0189374
0 0 0
0 0 0
-0.0410115 0.00155502 0.239648
-0.00285045 0.0128596 0.0530616
0 0 0
-0.0511624 -0.0389994 0.295197
0 0 0
0 0 0
0.0110624 -3.48578 2.2761
-6.2561e-05 -0.000194181 0.00372507
0.0011636 3.12058e-05 0.00702888
0.00527606 0.00587753 0.0433359
0 0 0
0 0 0
3.85131e-06 -0.00426833 -0.00380043
0.000350206 0.0174816 0.125852
-0.0004006 0.000102403 0.0167336
0.000308173 0.356339 0.202339
1.63283e-06 0.00769704 0.0368689
-0.0242976 -0.0415735 0.179784
3.2824e-17 -1.12685e-17 -5.79459e-17
0 0 0
0 0 0
0.00656282 0.0126492 0.0719379
-0.00140617 0.000155825 -0.00079209
0 0 0
0.0515053 -0.0403945 0.287539
-8.70357e-18 2.77603e-19 9.25202e-17
8.85111e-06 -2.62507e-05 0.000490574
0 0 0
-0.00504664 0.00525 0.0406311
0.000414285 0.000143912 0.0336456
0.000104953 0.00730746 0.0488627
0 0 0
0.0244106 -0.0383761 0.17863
0.0014736 0.00014358 -0.000780402
-0.00625248 0.011785 0.0690032
-0.00111113 0.00519771 0.0478515
0 0 0
-0.00417162 -0.00637974 0.129155
-3.46861e-05 0.000773812 0.00625539
0 0 0
-4.16122e-08 -7.2953e-09 5.97429e-05
8.53964e-05 0.00117608 0.00739693
0 0 0
-3.07712e-08 6.03015e-08 8.11057e-05
0 0 0
-0.0018115 0.0244415 0.0994005
0.0182214 0.0502406 0.813884
-2.54273e-06 0.00189403 0.00418679
0.00012337 0.0646133 0.247335
-2.21831e-06 1.78898e-06 0.000235417
-1.56595e-06 -0.00504491 0.0374826
0 0 0
0.00103251 0.0047905 0.0436843
0 0 0
-3.95758e-07 -1.61867e-05 -0.000127155
0 0 0
0 0 0
-0.0171186 0.0517505 0.845378
0.00256267 0.0192504 0.0792108
-0.0730816 -0.0443574 0.47361
-0.00539751 -0.0044708 0.0249002
0.000839901 -0.00108809 0.0392904
-0.0017247 -0.00376525 0.0483451
-0.00132147 0.00497029 0.051318
0.00207867 0.0159032 0.102844
-0.000365509 0.0150105 0.111416
0.00181059 0.0095073 0.0505866
-0.000262098 0.00124206 0.00962252
-0.000733278 0.021954 0.112223
4.98572e-18 8.22332e-18 6.1979e-17
0.00649644 0.00397492 0.0446215
0 0 0
0 0 0
0 0 0
0 0 0
0 0 0
0 0 0
0 0 0
0 0 0
0 0 0
0 0 0