# vtk DataFile Version 2.0
tet_velo
ASCII
DATASET UNSTRUCTURED_GRID
POINTS 29498 float
-0.653727 0.265 -2.205
-0.645 0.345 2.27042
-0.715 0.792016 -2.015
-0.64687 1.115 2.105
0.653727 0.265 -2.205
0.645 0.345 2.27043
0.715 0.792016 -2.015
0.646865 1.115 2.105
-0.706633 0.235851 -0.713193
-0.729539 0.236704 0.778614
-0.802047 1.00943 -0.641667
-0.763997 1.10176 0.731667
0.706634 0.235851 -0.71319
0.72954 0.236703 0.77862
0.80208 1.00947 -0.641667
0.764045 1.10181 0.731667
-1.39184 -0.171048 -3.3787
-1.39435 -0.108583 -2.2327
-1.43042 -0.128731 -0.73783
-1.43601 -0.145765 0.780884
-1.38187 -0.0778904 2.27776
-1.36695 -0.0184955 3.43359
-1.3742 0.0335832 4.57122
-1.3932 0.16236 -3.32629
-1.40018 0.251727 -2.19323
-1.44897 0.259269 -0.721416
-1.442 0.254458 0.761064
-1.35513 0.322436 2.23515
-1.34883 0.380541 3.38931
-1.36561 0.431553 4.5308
-1.42147 0.780634 -3.18822
-1.45431 0.866815 -2.05027
-1.51914 1.02071 -0.659216
-1.47648 1.08999 0.723443
-1.36619 1.11883 2.11676
-1.35681 1.17288 3.27582
-1.37316 1.22655 4.43642
-1.44826 1.85455 -3.0702
-1.46895 1.96082 -1.94999
-1.49836 2.13418 -0.597349
-1.49759 2.26873 0.729755
-1.46528 2.33922 2.08363
-1.44092 2.38167 3.20643
-1.42959 2.42641 4.35408
-0.677071 -0.164363 -3.38634
-0.669857 -0.0976811 -2.24385
-0.701474 -0.139435 -0.736333
-0.724377 -0.159111 0.795863
-0.689963 -0.0692745 2.30395
-0.676305 -0.0124512 3.45136
-0.680166 0.0358483 4.5815
-0.673489 0.160262 -3.32864
-0.658995 0.387983 3.40396
-0.672798 0.434141 4.53856
-0.693239 0.749247 -3.17357
-0.663876 1.17367 3.27347
-0.678585 1.22741 4.43591
-0.71163 1.83263 -3.05571
-0.724835 1.93992 -1.93403
-0.753939 2.12856 -0.587728
-0.768467 2.27363 0.728602
-0.754239 2.34278 2.07539
-0.73538 2.3832 3.1982
-0.724728 2.42728 4.3481
0.7079 -0.164357 -3.38634
0.690486 -0.097678 -2.24385
0.716493 -0.139433 -0.73633
0.71355 -0.159108 0.795869
0.659566 -0.0692727 2.30396
0.676652 -0.0124474 3.45137
0.69307 0.0358547 4.58151
0.706021 0.160266 -3.32864
0.675105 0.387986 3.40397
0.693043 0.434147 4.53856
0.728469 0.749253 -3.17357
0.674295 1.17367 3.27347
0.690461 1.22742 4.43592
0.754835 1.83265 -3.05571
0.75972 1.93994 -1.93403
0.748411 2.12859 -0.587728
0.709364 2.27366 0.728603
0.675448 2.3428 2.07539
0.673637 2.38322 3.1982
0.680813 2.42729 4.3481
1.41388 -0.171033 -3.37869
1.40219 -0.10857 -2.2327
1.43585 -0.128715 -0.737824
1.43398 -0.145751 0.780893
1.37364 -0.0778823 2.27777
1.37227 -0.018485 3.43361
1.38766 0.0335972 4.57123
1.41202 0.162374 -3.32629
1.39429 0.251742 -2.19323
1.44529 0.25929 -0.721412
1.4471 0.254477 0.761073
1.36494 0.322442 2.23516
1.36599 0.380551 3.38932
1.38492 0.431567 4.53081
1.44277 0.780652 -3.18822
1.44969 0.866837 -2.05027
1.51379 1.02076 -0.659214
1.47764 1.09004 0.723446
1.37191 1.11884 2.11677
1.36715 1.17289 3.27583
1.38382 1.22656 4.43642
1.48348 1.85458 -3.0702
1.49288 1.96086 -1.94999
1.48923 2.13422 -0.597348
1.44812 2.26878 0.729758
1.40031 2.33925 2.08364
1.38672 2.3817 3.20643
1.38858 2.42644 4.35409
-0.718992 0.528508 -2.14463
0 0.251539 -2.21846
-0.705803 0.224803 -1.4591
-0.696453 0.73 2.23823
0 0.32575 2.28968
-0.732261 0.24586 1.52452
0 0.87472 -2.0977
-0.797492 0.939694 -1.32833
-2.5034e-06 1.17559 2.16559
-0.722224 1.12517 1.41833
0.718967 0.528508 -2.1446
0.705803 0.224803 -1.45909
0.696442 0.73 2.23822
0.730432 0.247689 1.52453
0.797499 0.939701 -1.32833
0.722348 1.1253 1.41833
-0.718113 0.236251 0.0327101
-0.886195 0.622643 -0.67743
3.16101e-07 0.236161 -0.713192
-0.880492 0.66923 0.75514
3.5298e-07 0.23667 0.778617
-0.789064 1.06164 0.045
1.64879e-05 1.30857 -0.641667
2.37878e-05 1.4761 0.731667
0.718114 0.23625 0.0327151
0.886198 0.62266 -0.677428
0.880479 0.669255 0.755144
0.789217 1.06179 0.045
-0.888259 0.575575 -1.39372
-0.89048 0.645936 0.038855
-0.88116 0.699615 1.47143
1.58051e-07 0.22213 -1.4591
3.34541e-07 0.236397 0.0327126
1.7649e-07 0.239706 1.52452
0 0.528508 -2.37174
-1.2517e-06 0.73 2.35774
8.24394e-06 1.0463 -1.32833
2.01378e-05 1.497 0.045
1.06422e-05 1.33942 1.41833
0.888258 0.575584 -1.39371
0.890484 0.645957 0.0388575
0.881167 0.699627 1.47143
-1.02695 0.258363 -2.19912
-0.661792 0.0836594 -2.22442
-0.663608 0.212631 -2.76682
-1.00007 0.333718 2.25279
-0.667481 0.137863 2.28718
-0.651997 0.366492 2.83719
-1.08465 0.829416 -2.03263
-0.704119 0.770631 -2.59429
-0.719917 1.36597 -1.97451
-1.00653 1.11691 2.11088
-0.655373 1.14433 2.68923
-0.700554 1.72889 2.0902
0.672106 0.083661 -2.22442
0.679874 0.212633 -2.76682
1.02401 0.258371 -2.19912
0.652283 0.137864 2.28719
0.660052 0.366493 2.8372
1.00497 0.333721 2.2528
0.721735 0.770635 -2.59429
0.73736 1.36598 -1.97451
1.08234 0.829427 -2.03263
0.66058 1.14434 2.68924
0.661157 1.7289 2.0902
1.00939 1.11692 2.11088
-1.0778 0.24756 -0.717305
-0.704054 0.048208 -0.724763
-1.08577 0.245581 0.769839
-0.726958 0.0387965 0.787238
-1.16059 1.01507 -0.650441
-0.777993 1.569 -0.614698
-1.12024 1.09587 0.727555
-0.766232 1.68769 0.730134
0.711563 0.048209 -0.72476
1.07596 0.247571 -0.717301
0.721545 0.0387972 0.787245
1.08832 0.24559 0.769847
0.775245 1.56903 -0.614697
1.15794 1.01511 -0.650441
0.736704 1.68773 0.730135
1.12084 1.09593 0.727556
-1.3931 -0.139816 -2.8057
-1.39252 -0.00434431 -3.35249
-1.03446 -0.167705 -3.38252
-1.41239 -0.118657 -1.48526
-1.39727 0.0715718 -2.21297
-1.0321 -0.103132 -2.23827
-1.43322 -0.137248 0.0215269
-1.4397 0.0652689 -0.729623
-1.06595 -0.134083 -0.737081
-1.40894 -0.111828 1.52932
-1.439 0.0543467 0.770974
-1.08019 -0.152438 0.788373
-1.37441 -0.048193 2.85568
-1.3685 0.122273 2.25646
-1.03592 -0.0735825 2.29085
-1.37058 0.00754382 4.00241
-1.35789 0.181023 3.41145
-1.02163 -0.0154734 3.44248
-1.36991 0.232568 4.55101
-1.02718 0.0347157 4.57636
-1.39669 0.207043 -2.75976
-1.40734 0.471497 -3.25725
-1.03334 0.161311 -3.32746
-1.42457 0.255498 -1.45733
-1.42724 0.559271 -2.12175
-1.44548 0.256864 0.019824
-1.48406 0.639988 -0.690316
-1.39857 0.288447 1.49811
-1.45924 0.672224 0.742254
-1.35198 0.351488 2.81223
-1.36066 0.72063 2.17596
-1.35722 0.406047 3.96006
-1.35282 0.776708 3.33257
-1.00391 0.384262 3.39664
-1.36939 0.82905 4.48361
-1.0192 0.432847 4.53468
-1.43789 0.823724 -2.61924
-1.43487 1.31759 -3.12921
-1.05736 0.76494 -3.1809
-1.48673 0.943761 -1.35474
-1.46163 1.41382 -2.00013
-1.49781 1.05535 0.0321134
-1.50875 1.57744 -0.628283
-1.42133 1.10441 1.4201
-1.48703 1.67936 0.726599
-1.3615 1.14585 2.69629
-1.41573 1.72902 2.1002
-1.36498 1.19971 3.85612
-1.39887 1.77727 3.24113
-1.01034 1.17327 3.27465
-1.40138 1.82648 4.39525
-1.02587 1.22698 4.43616
-1.45861 1.90769 -2.51009
-1.07995 1.84359 -3.06296
-1.48365 2.0475 -1.27367
-1.09689 1.95037 -1.94201
-1.49797 2.20146 0.066203
-1.12615 2.13137 -0.592539
-1.48143 2.30398 1.40669
-1.13303 2.27118 0.729179
-1.4531 2.36044 2.64503
-1.10976 2.341 2.07951
-1.43526 2.40404 3.78026
-1.08815 2.38244 3.20231
-1.07716 2.42684 4.35109
-0.673464 -0.131022 -2.81509
-0.67528 -0.00205045 -3.35749
0.0154148 -0.16436 -3.38634
-0.685666 -0.118558 -1.49009
0.0103143 -0.0976796 -2.24385
-0.712925 -0.149273 0.0297651
0.00750944 -0.139434 -0.736331
-0.70717 -0.114192 1.54991
-0.00541305 -0.159109 0.795866
-0.683134 -0.0408628 2.87765
-0.0151985 -0.0692736 2.30395
-0.678235 0.0116986 4.01643
-0.66765 0.187766 3.42766
0.000173233 -0.0124493 3.45136
-0.676482 0.234994 4.56003
0.00645201 0.0358515 4.58151
-0.683364 0.454754 -3.25111
0.0162659 0.160264 -3.32864
-0.665896 0.411062 3.97126
-0.661436 0.780824 3.33872
0.00805501 0.387985 3.40397
-0.675691 0.830775 4.48724
0.0101228 0.434144 4.53856
-0.702435 1.29094 -3.11464
0.0176153 0.74925 -3.17357
-0.671231 1.20054 3.85469
-0.699628 1.77843 3.23583
0.00520941 1.17367 3.27347
-0.701657 1.82734 4.39201
0.00593806 1.22741 4.43592
-0.718233 1.88628 -2.49487
0.0216021 1.83264 -3.05571
-0.739387 2.03424 -1.26088
0.0174427 1.93993 -1.93403
-0.761203 2.2011 0.0704367
-0.00276405 2.12858 -0.587728
-0.761353 2.30821 1.402
-0.0295512 2.27365 0.728602
-0.744809 2.36299 2.63679
-0.0393953 2.34279 2.07539
-0.730054 2.40524 3.77315
-0.0308714 2.38321 3.1982
-0.0219575 2.42728 4.3481
0.699193 -0.131017 -2.81509
0.706961 -0.00204517 -3.35749
1.06089 -0.167695 -3.38252
0.703489 -0.118555 -1.49009
1.04634 -0.103124 -2.23827
0.715022 -0.14927 0.0297696
1.07617 -0.134074 -0.737077
0.686558 -0.11419 1.54991
1.07376 -0.15243 0.788381
0.668109 -0.04086 2.87766
1.01661 -0.0735775 2.29086
0.684861 0.0117037 4.01644
0.675878 0.187769 3.42767
1.02446 -0.0154662 3.44249
0.693056 0.235001 4.56004
1.04037 0.034726 4.57637
0.717245 0.45476 -3.25111
1.05902 0.16132 -3.32746
0.684074 0.411066 3.97127
0.6747 0.780828 3.33872
1.02055 0.384268 3.39665
0.691752 0.830782 4.48724
1.03898 0.432857 4.53469
0.741652 1.29095 -3.11464
1.08562 0.764953 -3.1809
0.682378 1.20054 3.85469
0.673966 1.77844 3.23583
1.02072 1.17328 3.27465
0.685637 1.82735 4.39201
1.03714 1.22699 4.43617
0.757277 1.88629 -2.49487
1.11916 1.84362 -3.06295
0.754065 2.03427 -1.26088
1.1263 1.9504 -1.94201
0.728887 2.20112 0.0704375
1.11882 2.13141 -0.592538
0.692406 2.30823 1.402
1.07874 2.27122 0.72918
0.674543 2.36301 2.6368
1.03788 2.34103 2.07951
0.677225 2.40525 3.77315
1.03018 2.38246 3.20232
1.03469 2.42686 4.3511
1.40803 -0.139801 -2.8057
1.41295 -0.00432933 -3.35249
1.41902 -0.118642 -1.48526
1.39824 0.0715861 -2.21297
1.43492 -0.137233 0.0215342
1.44057 0.0652876 -0.729618
1.40381 -0.111817 1.52933
1.44054 0.054363 0.770983
1.37296 -0.0481836 2.85569
1.36929 0.12228 2.25647
1.37997 0.0075561 4.00242
1.36913 0.181033 3.41146
1.38629 0.232582 4.55102
1.40315 0.207058 -2.75976
1.4274 0.471513 -3.25725
1.41979 0.255516 -1.45732
1.42199 0.55929 -2.12175
1.44619 0.256884 0.0198305
1.47954 0.640023 -0.690313
1.40602 0.28846 1.49812
1.46237 0.672261 0.742259
1.36547 0.351496 2.81224
1.36842 0.720642 2.17597
1.37545 0.406059 3.96007
1.36657 0.77672 3.33258
1.38437 0.829065 4.48362
1.44623 0.823745 -2.61924
1.46313 1.31762 -3.12921
1.48174 0.943797 -1.35474
1.47128 1.41385 -2.00013
1.49572 1.0554 0.0321157
1.50151 1.57749 -0.628281
1.42477 1.10444 1.42011
[...]
POINT_DATA 29498
VECTORS point_vectors float
-4.40741 -7.5473 9.81073
0.0203772 0.279493 0.643046
-1.8054 0.946573 3.03316
0.0184978 -0.138845 0.50467
4.40728 -7.49521 9.74112
-0.0493232 0.283866 0.653232
1.81519 0.951723 3.04818
-0.0175495 -0.137087 0.495667
5.18871e-06 4.84779e-06 0.000405502
-0.000217196 3.0802e-05 0.0237403
0 0 0
0 0 0
-6.23727e-06 5.29403e-06 0.000438953
0.000196649 2.85835e-05 0.0235003
0 0 0
0 0 0
-0.531 -0.307385 19.8009
-1.30429 -0.917251 20.3965
-0.417756 -0.49184 21.4635
0.0853888 -0.0136328 21.5659
0.620297 0.43976 21.4076
0.822711 0.443313 21.0932
0.770663 0.288124 21.1949
-0.6764 -0.250526 19.6673
-1.9716 -0.814087 20.2759
-0.636856 -0.637273 21.5962
0.115125 -0.141643 21.6885
0.991228 0.319 21.4259
1.14614 0.237783 21.4239
1.12487 0.155104 20.2347
-0.825806 0.0598566 19.587
-2.18226 0.193342 20.3268
-1.32453 -0.25994 21.5332
-0.178073 -0.278127 21.8633
0.846522 -0.469682 21.596
0.974264 -0.655244 21.3455
1.03064 -0.309357 20.5855
-0.534029 0.401494 19.902
-0.939829 0.682935 20.4051
-0.81729 0.479482 21.2048
-0.216262 -0.00633875 21.585
0.166101 -0.277002 21.3491
0.296546 -0.387412 21.0385
0.212781 -0.350296 20.8445
-0.447709 -0.564262 19.3792
-1.618 -3.18164 20.3762
-0.184553 -0.323438 21.8408
-0.0378245 0.172643 21.4388
0.0821372 1.1359 20.0845
0.460053 1.49808 18.4776
0.881303 0.845193 16.3509
-0.599607 -0.485691 19.0019
0.9007 1.83998 9.79993
1.66296 0.872364 10.2012
-0.92411 0.182139 18.466
1.40617 -0.535932 10.1717
1.29985 -0.615974 16.7613
-0.464059 0.759149 19.5748
-0.915789 1.56331 20.149
-0.999589 1.46952 21.3522
-0.271981 0.176972 21.9227
0.075738 -0.445821 21.5394
0.191456 -0.492757 20.9656
0.0605286 -0.421148 20.7787
0.459872 -0.537105 19.4042
1.65615 -3.12231 20.3574
0.183448 -0.327837 21.8441
0.0441842 0.165882 21.4304
-0.0183314 1.11539 19.7796
-0.452477 1.50612 18.483
-0.882977 0.843918 16.5281
0.62328 -0.461118 19.0301
-0.992523 1.87047 10.439
-1.6372 0.840198 10.5014
0.955035 0.172255 18.5335
-1.44748 -0.534733 10.5398
-1.29619 -0.621934 16.9428
0.481124 0.740442 19.5942
0.940852 1.51875 20.1659
0.997644 1.47927 21.3521
0.261075 0.202145 21.9465
-0.0724645 -0.457879 21.5464
-0.184307 -0.493282 20.9544
-0.061949 -0.398538 20.7416
0.524496 -0.302999 19.8153
1.29248 -0.903728 20.4016
0.419611 -0.490287 21.4626
-0.0845188 -0.0139003 21.5652
-0.62043 0.450478 21.412
-0.820466 0.428751 21.076
-0.769421 0.267667 21.1683
0.678629 -0.244478 19.6767
1.98378 -0.819914 20.2738
0.639191 -0.639639 21.6017
-0.11169 -0.142562 21.6857
-0.98466 0.305256 21.4294
-1.13759 0.239527 21.4436
-1.12075 0.135591 20.5219
0.818914 0.0555812 19.6053
2.194 0.196464 20.3263
1.33238 -0.264455 21.5446
0.174985 -0.276744 21.8661
-0.844971 -0.467216 21.5901
-0.969737 -0.639144 21.3433
-1.00595 -0.312612 20.6031
0.526856 0.38121 19.9129
0.927924 0.65603 20.4111
0.821051 0.486685 21.2112
0.232897 0.00457728 21.6125
-0.163887 -0.302665 21.3745
-0.294293 -0.410594 20.9857
-0.189846 -0.360006 20.9141
-0.555907 -0.0634685 0.776098
-0.00164825 -0.390934 1.21858
-0.00621351 1.06091e-05 0.230924
0.00974357 0.0182423 0.0415404
-0.00110006 0.00865543 0.0498858
-0.0455477 0.0336628 0.825659
0.000258705 0.106979 0.251092
-0.187848 -0.0794377 0.604366
7.95084e-06 0.0285554 -0.0526522
0 0 0
0.550593 -0.0627337 0.768381
0.00578137 5.71368e-05 0.231998
-0.0100014 0.0179807 0.0418328
0.0404133 0.0236307 0.634672
0.188197 -0.0796694 0.604748
0 0 0
-0.000905372 0.000240916 0.0479779
0 0 0
0 0 0
0.000648683 0.00653619 0.0339367
0 0 0
0 0 0
-0.000175273 0.010773 0.0229413
-9.57901e-06 -0.00012952 0.00174843
0.000861592 0.000236714 0.0454127
0 0 0
-0.000644003 0.00648263 0.0336641
0 0 0
-0.00321661 -0.00541441 0.0583012
0.000105256 0.00193464 0.0132739
0.000263547 0.00166373 0.0112571
-1.73406e-07 4.25784e-07 -9.50682e-05
2.76104e-08 1.59156e-08 3.92868e-05
4.89837e-07 2.48258e-06 0.000254926
0.000173968 0.00259777 0.0686706
-0.000224013 0.0650146 0.0132413
0.000378364 0.0222638 0.184082
-8.78977e-06 0.0040244 0.0611516
-6.76405e-06 5.95065e-05 -0.000389259
0.00321355 -0.00541844 0.0582451
-0.000105539 0.00193655 0.013268
-0.000438239 0.00282317 0.0192148
-3.67383 -2.16143 19.8384
-2.55877 -5.2603 20.4105
-1.74133 -1.56603 17.8575
1.21343 1.32911 15.7149
-0.305352 1.30001 12.3061
-0.485098 1.28249 5.44559
-4.31002 0.805896 20.0596
-3.03661 1.16928 16.6949
-2.19076 2.78363 19.8184
1.39328 -0.118027 17.313
0.785862 -0.0704545 5.78377
0.317779 -0.899671 20.9008
2.6012 -5.17219 20.3588
1.74403 -1.53788 17.9273
3.70269 -2.18395 19.8238
0.365238 1.23029 12.004
0.421313 1.30467 5.7244
-1.22551 1.30436 15.8762
3.02026 1.10403 16.8455
2.20507 2.71897 19.8266
4.32951 0.818555 20.0567
-0.798741 -0.0679293 5.94901
-0.303226 -0.901765 20.8418
-1.39208 -0.131071 17.4921
-0.234366 -0.781212 19.6592
0.0571086 0.0435428 17.7999
0.139545 0.298035 18.2267
-0.0807387 0.21497 16.6365
-2.16313 -0.813691 21.8615
-3.1216 2.36411 21.5118
-0.0373211 -0.263127 20.1519
-0.481357 0.0059519 22.2976
-0.0566322 0.0396039 17.8656
0.229694 -0.775895 19.5993
0.0782174 0.210134 16.5913
-0.139315 0.288455 18.2982
3.12511 2.38197 21.5109
2.17432 -0.821045 21.8572
0.473933 0.0225804 22.2519
0.0420352 -0.265039 20.1703
-0.917638 -0.579634 19.908
-0.607831 -0.279698 19.7394
-0.529964 -0.439046 19.6027
-0.933912 -0.820308 21.2372
-1.6511 -0.934218 20.3454
-1.71653 -1.81046 20.2941
-0.122604 -0.233765 21.5196
-0.519383 -0.572572 21.5176
-0.226529 -0.548419 21.6441
0.351162 0.220178 21.5885
0.0991139 -0.0825469 21.6295
0.104197 0.0696667 21.6608
0.734208 0.49024 21.2437
0.818668 0.407972 21.4318
0.618185 0.898685 21.0858
0.842043 0.462019 20.5104
1.01481 0.351589 21.2202
0.923088 1.2066 21.3583
0.906429 0.25663 21.4275
0.74156 0.900784 21.3192
-1.2681 -0.494735 19.6805
-0.773979 -0.123962 19.6006
-0.697227 -0.37759 19.3605
-1.4097 -0.85266 21.3876
-2.29324 -0.314778 20.2825
-0.213388 -0.395659 21.6757
-1.00687 -0.578619 21.6165
0.523517 0.0896992 21.7057
0.0120951 -0.255977 21.8438
1.09786 0.330719 21.2327
1.09639 -0.125767 21.3948
1.28263 0.271747 20.1846
1.26965 -0.158233 21.2381
1.45019 1.23556 17.4572
1.23754 -0.2183 20.7171
1.39391 0.513734 15.218
-1.56239 0.155408 19.6367
-0.728617 0.311589 19.7094
-0.963211 0.105928 19.1164
-1.85102 -0.0696572 21.1729
-1.52969 0.700388 20.3258
-0.74019 -0.320409 21.8135
-1.26657 0.324427 21.3662
0.385474 -0.307196 21.8395
-0.286078 -0.0996213 21.7741
1.02047 -0.507129 21.3016
0.381534 -0.455061 21.4734
0.863102 -0.50614 21.3813
0.513575 -0.576074 20.9213
1.52793 -0.667208 18.3882
0.392501 -0.383299 21.0323
1.2479 -0.53829 19.3994
-0.768853 0.575343 20.0952
-0.560138 0.55291 19.7453
-0.933638 0.627893 20.8047
-1.01035 1.05377 20.2833
-0.538867 0.244575 21.5053
-0.999673 0.879493 21.2936
0.0170334 -0.163538 21.4854
-0.277914 0.0810166 21.7519
0.24455 -0.34701 21.2441
0.16193 -0.373523 21.4019
0.24454 -0.314447 20.976
0.244641 -0.520405 21.0728
0.165165 -0.435149 20.8549
-1.00905 -1.50494 19.0806
-0.523658 -0.524976 19.1906
0.00765722 -0.691546 19.1635
-0.584747 -1.27644 22.142
0.0307908 -4.70119 20.5839
-0.0831122 -0.0448583 21.5725
0.00233536 -0.617033 21.2003
0.0250683 0.599775 21.015
-0.00384968 -0.114092 19.7085
0.187322 1.23389 19.5157
-0.00658315 0.471827 16.3033
-0.081431 1.43187 19.7607
0.627452 1.93503 15.066
0.00922814 0.856458 15.1446
1.29008 0.916232 13.2684
-0.0187542 1.03932 13.9758
-0.768918 -0.226715 18.6384
0.0153065 -0.606354 18.6301
1.59323 1.54896 10.2489
2.2984 0.516499 6.61256
0.0241555 -0.573321 -2.41899
1.68946 0.211464 12.4466
-0.0299648 1.04877 7.90446
-0.734264 0.769295 18.9959
0.0319778 0.302474 17.7663
1.68468 -1.00503 12.4848
0.366484 -1.07702 21.1748
-0.0149295 -0.989606 2.10456
0.438797 -0.80175 19.4765
-0.0109333 -1.78226 6.90276
-0.722387 1.23317 19.7235
0.0214468 0.976539 19.3792
-1.029 1.61458 20.6603
0.0356861 2.11265 20.0016
-0.672736 0.844031 21.8816
-0.00336707 2.29134 21.3611
-0.0357554 -0.236321 21.7341
-0.0176897 0.336071 22.1092
0.160386 -0.549584 21.3717
0.00776918 -0.472659 21.5315
0.154063 -0.739746 20.6308
0.0119899 -0.644424 21.1374
-0.00629075 -0.630349 20.7742
1.01725 -1.44634 19.1068
0.542209 -0.49783 19.2178
0.52773 -0.427861 19.617
0.599889 -1.27609 22.1251
1.70602 -1.7708 20.2828
0.087354 -0.0438053 21.5752
0.237577 -0.55029 21.6352
-0.00829578 0.587053 20.9966
-0.102765 0.0745993 21.6566
-0.159255 1.21502 19.378
-0.605723 0.931423 21.0796
0.0767038 1.41377 19.7855
-0.638454 1.92879 15.1221
-0.929309 1.20778 21.3341
-1.28021 0.912124 13.5079
-0.736282 0.881314 21.518
0.802575 -0.219864 18.7021
0.704769 -0.371713 19.3822
-1.58805 1.54995 10.7882
-2.3445 0.549276 6.93217
-1.45898 1.1761 17.6744
-1.67929 0.196138 12.6856
-1.37897 0.487894 15.5117
0.766423 0.744945 19.0329
0.964777 0.101428 19.1476
-1.70531 -1.01724 12.6721
-0.352371 -1.08576 21.1313
-1.50646 -0.670679 18.5166
-0.430744 -0.80468 19.5028
-1.24092 -0.526141 19.4397
0.747345 1.20059 19.7441
0.564794 0.53981 19.7695
1.04521 1.59565 20.6664
1.00798 1.01852 20.2901
0.66397 0.880166 21.9019
1.00473 0.889861 21.2946
0.0353545 -0.243433 21.7359
0.283344 0.0923811 21.7759
-0.151355 -0.550373 21.3564
-0.150312 -0.390729 21.4009
-0.146123 -0.722479 20.6258
-0.234545 -0.536721 21.0659
-0.15129 -0.430214 20.8546
0.913766 -0.570635 19.9067
0.610518 -0.274656 19.7536
0.924485 -0.812079 21.2352
1.64929 -0.929314 20.3566
0.129401 -0.23577 21.5143
0.523394 -0.574769 21.518
-0.349123 0.214812 21.5849
-0.0932074 -0.0861858 21.6213
-0.729189 0.494097 21.2442
-0.818889 0.401463 21.4321
-0.847916 0.454973 20.4762
-0.996431 0.344709 21.2496
-0.914754 0.228554 21.4031
1.26597 -0.490168 19.6853
0.7719 -0.123688 19.617
1.41694 -0.861445 21.3965
2.31793 -0.320595 20.2816
0.213688 -0.397113 21.6786
1.009 -0.583118 21.6231
-0.518116 0.0846266 21.7063
-0.0111953 -0.254514 21.844
-1.0832 0.319737 21.2592
-1.07876 -0.125725 21.4023
-1.25226 0.231949 20.1814
-1.2547 -0.160987 21.2223
-1.22755 -0.210311 20.7758
1.54709 0.148762 19.6517
0.711634 0.295586 19.7337
1.86566 -0.0697569 21.1822
1.51355 0.682944 20.3322
0.740279 -0.321901 21.8193
1.27547 0.331325 21.3722
-0.384659 -0.306743 21.8381
0.28836 -0.103044 21.7996
-1.01239 -0.494751 21.3423
-0.388531 -0.473317 21.4798
-0.838989 -0.504306 21.3163
-0.523059 -0.584888 20.9341
-0.376106 -0.390406 21.043
0.757889 0.546749 20.113
0.931222 0.620989 20.8049
0.546209 0.265929 21.5161
-0.0136109 -0.172073 21.505
-0.233309 -0.35763 21.2317
-0.198117 -0.325765 21.077
-1.12049 -0.569935 19.7822
-1.33938 -1.65631 18.4932
-1.09084 -0.982536 19.5364
-1.66123 -0.895807 18.9964
-0.655804 -0.456456 19.5165
-2.48513 -2.17838 20.1334
-1.14742 -0.874715 21.323
-0.289929 -0.78928 20.3103
-0.842578 -1.24918 21.6285
-1.54284 -1.7944 21.8873
-0.17616 -0.710133 21.6064
-0.160273 -0.320638 21.5972
0.00386938 0.114645 16.8637
-0.0215616 -0.20433 21.6375
0.0151217 -0.157995 18.4726
0.169967 0.107741 20.9885
0.437143 0.176444 21.6723
-0.157631 0.579282 14.8662
0.327098 0.477139 21.5657
0.484829 0.801891 17.4285
0.876304 1.20333 19.4919
0.957999 0.432547 21.2231
-0.0467755 1.3758 13.3618
0.745089 0.98693 21.0075
1.32827 1.26816 17.2006
0.985563 1.30557 18.928
1.0729 0.342199 20.3192
0.725021 1.46888 14.3563
0.68031 0.886688 21.8492
1.54864 1.19867 19.805
1.06774 0.707259 18.2686
-1.50124 -0.209097 19.5967
-2.65462 -0.619796 16.6897
-2.41089 0.440063 18.7303
-0.93033 -0.168945 19.1585
-4.76762 -0.680438 19.7989
-1.76228 -0.509616 21.3615
-2.92783 -0.178725 21.6272
-0.900989 -1.13358 20.307
-0.459243 -0.438829 21.8095
-1.02582 -0.754042 21.0664
0.215961 0.210983 17.5351
0.535233 -0.132655 21.74
0.846512 0.11308 18.7497
1.41984 0.60751 13.7569
1.22907 -0.153115 21.2452
0.322971 1.04111 2.7756
1.41747 -0.383402 17.8374
2.04665 0.336182 15.0505
1.26188 -0.258999 20.6958
2.31875 0.476329 8.72654
1.38076 -0.795089 18.8751
1.54977 -0.0897727 17.3896
-1.17597 0.564821 19.8498
-1.48797 1.79855 18.8392
-0.812713 0.864224 19.9158
-0.80118 0.508864 19.3779
-2.03106 1.44327 20.1052
-1.49891 0.549052 20.8968
-2.37041 2.23277 20.5098
-1.07243 1.05225 20.7587
-2.0145 0.742293 21.556
-0.810969 0.0908695 21.7099
-1.8959 1.01506 22.7279
-0.658848 0.499967 21.672
-0.402438 -0.0856109 22.0891
0.142186 -0.288251 21.6875
0.17906 -0.632649 21.3474
0.00125548 -0.206591 21.5987
0.390958 -0.684243 21.5866
0.484488 -0.509332 21.3262
0.372368 -1.00042 20.8493
0.216348 -0.443185 21.2106
0.500331 -0.841547 21.1029
0.727996 -0.483336 20.6454
0.424542 -0.979786 19.7067
0.173513 -0.446552 21.0325
0.381004 -0.566599 20.6527
1.35569 -1.61131 18.5406
0.0239903 -2.10815 18.4871
0.0315364 -2.41464 16.4435
0.0170192 -0.695733 18.8798
0.0132284 -7.59985 21.298
0.309139 -0.800194 20.4899
0.00958583 -1.79203 22.4228
-0.000662085 -0.116361 12.2079
-0.00415929 0.116483 16.8843
-0.00205979 -0.29884 20.2088
0.00293336 -0.0363145 11.6073
0.166664 0.554989 14.6333
0.000800011 0.229658 18.3881
-0.0172745 0.219581 6.783
0.08259 1.37841 13.3073
-0.0091025 0.258916 16.01
0.00750521 -1.86609 -3.38492
0.013723 0.791052 5.95669
-0.75776 1.45252 14.4306
0.0153095 1.45597 14.299
0.0168668 -2.1688 -2.49271
-0.0243595 1.04404 10.9402
2.66064 -0.613013 16.8032
0.0510475 2.61805 13.8207
0.0300879 -0.327861 18.083
-0.335222 1.04192 2.90924
-0.000869679 0.171526 0.52129
-0.0221333 -0.682917 -3.2606
-2.32446 0.507645 8.97366
-0.0107361 -1.25078 4.69822
-0.0293599 -0.891458 2.59707
1.50837 1.7311 18.87
0.0316822 1.66787 19.5007
0.0189293 1.05521 18.5778
0.0340494 4.2106 19.5021
2.3725 2.20461 20.5162
0.0182962 2.23589 20.4723
-0.00799531 5.21539 20.9563
1.91621 1.06767 22.7029
-0.0180027 1.37737 22.1409
-0.0119744 0.35442 21.8226
-0.200953 -0.649488 21.0355
-0.00434858 -0.223837 21.8237
-0.0154797 -0.724633 19.0078
-0.368107 -1.00046 20.6727
0.012543 -0.620813 21.4551
0.0034632 -1.10513 20.1738
-0.414878 -0.989124 19.7348
0.0069098 -0.57053 20.6918
0.0161058 -1.18056 19.784
1.11527 -0.563265 19.796
1.08521 -0.9509 19.5564
1.65255 -0.873291 19.0225
0.653781 -0.441906 19.5219
2.48005 -2.1511 20.1298
1.15104 -0.874719 21.323
0.857689 -1.24072 21.6096
1.53869 -1.8018 21.8709
0.185966 -0.710308 21.6333
0.163378 -0.322985 21.5978
0.0243383 -0.202172 21.6344
-0.0147559 -0.159754 18.4798
-0.166222 0.107986 20.9771
-0.435348 0.175451 21.6727
-0.320454 0.495348 21.5577
-0.492708 0.790397 17.5059
-0.865247 1.22393 19.3667
-0.961107 0.432993 21.2264
-0.737784 1.00172 20.9895
-1.34517 1.22798 17.5323
-0.99398 1.27179 19.0479
-1.07844 0.337154 20.2726
-0.69067 0.863509 21.8584
-1.56949 1.16533 20.0692
-1.05763 0.684604 18.5148
1.49039 -0.207086 19.6098
2.37275 0.424829 18.7743
0.931094 -0.160914 19.1956
4.8166 -0.683279 19.7972
1.77454 -0.514784 21.3712
2.93834 -0.180226 21.6307
0.891923 -1.13316 20.2366
0.460362 -0.441099 21.813
1.02387 -0.756987 21.0623
-0.215072 0.201944 17.6027
-0.531161 -0.131633 21.7498
-0.838744 0.0946879 18.8579
-1.43351 0.625683 14.0731
-1.21507 -0.155424 21.2561
-1.41186 -0.397026 17.9961
-2.01181 0.306134 15.38
-1.22612 -0.24699 20.7378
-1.3652 -0.784867 18.99
-1.53337 -0.102419 17.6266
1.15502 0.543538 19.8742
0.813412 0.830493 19.9394
0.801411 0.491182 19.4077
2.01047 1.40512 20.1157
1.49694 0.547713 20.8974
1.07285 1.03768 20.7613
2.02693 0.751059 21.5586
0.820698 0.0977755 21.7236
0.669336 0.523989 21.6906
0.410699 -0.0861252 22.1231
-0.139331 -0.293042 21.6964
0.00999519 -0.21317 21.6215
-0.383927 -0.715012 21.5876
-0.488867 -0.541041 21.3139
-0.212929 -0.471762 21.2393
-0.488577 -0.860689 21.1402
-0.74248 -0.485959 20.6039
-0.164955 -0.458649 21.0327
-0.382192 -0.580571 20.5947
-1.3755 -1.02647 19.3169
-1.02663 -1.52275 21.9048
0.0494712 -0.257299 21.2133
0.432425 0.633999 20.2929
0.982961 1.22304 19.4442
1.10936 0.993504 20.6908
-2.25326 -0.354995 18.6888
-2.4471 -1.11132 21.981
-0.190745 -0.479039 18.5782
0.675456 0.711426 16.02
1.64051 0.476937 15.5564
1.84371 0.150524 16.5753
-1.44808 1.02597 19.4374
-2.06775 1.12009 20.8385
-1.26887 0.307255 22.103
0.147505 -0.43774 21.8881
0.48682 -0.78268 21.3674
0.564616 -0.697195 21.2783
0.0351684 -2.42243 17.6521
0.000363857 -0.917893 15.1246
0.00246687 -0.0807039 11.5563
0.00638972 0.147555 9.95026
-0.0122062 -0.7263 5.04313
0.0152883 -0.147429 5.70934
0.0411589 -0.833598 14.2422
0.00484404 -0.701153 -2.57906
-0.0455464 -1.38749 0.52293
0.0372519 2.82339 18.0332
0.0142563 3.73744 19.9132
-0.0252031 2.65617 23.0372
0.00329012 -0.50906 19.9865
0.00481046 -0.863502 19.4071
0.00875697 -1.3354 20.6184
1.36295 -0.996747 19.3497
1.05434 -1.51945 21.8968
-0.0477663 -0.256823 21.2142
-0.426829 0.646285 20.2343
-0.986508 1.22224 19.4537
-1.1229 0.963013 20.8068
2.21895 -0.347621 18.7379
2.44559 -1.11764 21.9598
0.188845 -0.477381 18.5716
-0.677847 0.695268 16.1214
-1.64736 0.450925 15.8857
-1.82371 0.120507 16.8764
1.43171 0.98992 19.4681
2.05976 1.10954 20.8381
1.29782 0.318912 22.1249
-0.146918 -0.455398 21.9095
-0.482686 -0.801603 21.3749
-0.54332 -0.707679 21.3581
0 0 0
-0.381233 -3.29059 6.67641
-0.0236598 -0.0354713 0.459366
-0.0101589 0.016514 -0.00347002
-0.145923 0.013136 0.0377468
-0.076617 0.13675 0.584274
-0.22001 0.0566437 0.223909
-0.0900511 0.492819 0.695366
-0.28136 0.0503428 1.04866
-0.0248187 0.00459681 -0.00656951
-0.0111579 -0.0103065 0.0473326
0.0275627 -0.000305874 0.216811
0.0151358 -3.78181 6.92521
0 0 0
0.0237177 -0.0350643 0.46415
0.0735863 0.017778 0.0736829
0.00977692 0.0158717 -0.00319096
0.0730791 0.135635 0.58806
0.0893711 0.49152 0.69672
0.206638 0.0532498 0.210312
0.28086 0.050262 1.04731
0.0110171 -0.0101116 0.0469802
0.0273001 0.00537823 -0.00677712
-0.0276609 -0.000354357 0.21823
0.00526145 -0.000883161 0.17014
-7.83848e-05 0.000177363 0.0364359
0 0 0
0.000714808 3.00119e-05 0.00882913
-0.0189446 0.0193071 0.327747
-0.00261786 0.000560511 0.0752852
0 0 0
0.000146324 2.06336e-05 0.00932337
-0.152459 -0.100199 0.394896
-0.000295421 0.0103947 0.103633
0 0 0
-0.0242752 0.0290795 0.072415
-2.58173e-17 -3.38549e-17 -1.23453e-16
0.00642287 0.0280641 0.10594
0 0 0
0.00614741 -0.00227414 0.0279164
-0.00561112 -0.0008982 0.170552
-0.000686485 2.76933e-05 0.0086562
1.02402e-05 0.000161061 0.034978
0 0 0
0.00588882 0.00489362 0.104432
-0.000150927 1.99508e-05 0.00929389
0.002523 0.000559731 0.0753746
0 0 0
0.150115 -0.0995081 0.392812
0.0271853 0.033133 0.0819033
0.000290063 0.0104538 0.104121
0 0 0
0 0 0
-0.00541118 -0.00197587 0.0245795
-0.00645616 0.0281914 0.106169
0 0 0
-0.160174 -0.0318532 0.533562
-0.157565 -0.0195149 0.0769937
0 0 0
0 0 0
-0.00254505 -0.005802 0.104181
-1.59637e-05 7.7362e-07 -0.000183134
0.00288933 0.00111196 0.0203936
-0.0222043 0.0193308 -0.00568939
0 0 0
-0.0007237 0.036009 -0.0173271
0 0 0
0 0 0
0 0 0
-5.1667e-05 0.0221268 0.0995681
-0.0411111 -0.0780159 0.565394
-0.010285 0.00244265 0.0260463
0 0 0
0 0 0
0.0025351 0.00314845 0.0273037
0.00252873 -0.00367191 0.014536
0.151383 -0.0209194 0.0741508
0.169731 -0.0336756 0.56532
1.45506e-05 8.4257e-07 -0.000177213
0.00254741 -0.00578224 0.103848
0.0193248 0.0168639 -0.00499301
-0.00290161 0.00110058 0.020535
8.91678e-06 6.0018e-06 0.000513001
0 0 0
0.0106089 0.00232104 0.0251447
0.0416458 -0.0787605 0.56874
-0.00268445 -0.00381251 0.015193
-0.00161056 0.0020669 0.0175605
-2.54434e-05 0.00285283 0.0234694
0.000266069 1.8535e-05 0.00827616
0.000456496 -0.00420929 0.0477227
-7.2301e-05 0.000970864 0.0101144
3.60892e-08 -9.33032e-09 2.40887e-05
1.99354e-08 4.62985e-08 2.0705e-05
0.00024183 0.00372371 0.0219174
0.000424139 0.00897229 0.0647449
1.9682e-08 -1.33766e-08 4.13895e-05
-1.29454e-08 -2.17731e-07 -2.79229e-05
0.00340162 0.0184247 0.0672537
-0.00211577 0.0171974 0.243641
-5.21199e-05 0.0102224 0.0303702
0.000136341 0.0782112 0.274755
-5.1651e-06 -0.000254366 0.0182071
-1.89871e-06 -0.000958193 0.00783217
-0.000256401 1.77872e-05 0.00822386
2.41961e-05 0.0028142 0.0232547
-0.000392769 -0.00379508 0.0434033
7.21811e-05 0.000969259 0.0101013
-0.000251217 0.00383844 0.0226072
-0.000448364 0.00899147 0.0649773
0.00235106 0.0177671 0.251417
-0.00339573 0.0183904 0.067311
-0.113148 -0.0591504 0.380698
0 0 0
0 0 0
0 0 0
0.000289739 0.0035616 0.0470717
0.00150261 0.0131217 0.0691542
0 0 0
0.017529 0.0413919 0.222427
0 0 0