# vtk DataFile Version 2.0
tet_velo
ASCII
DATASET UNSTRUCTURED_GRID
POINTS 29498 float
-0.687893 0.155 -1.825
-0.701549 0.255 1.835
-0.705 0.606254 -1.805
-0.565 0.880695 1.895
0.695 0.155 -1.82191
0.70175 0.255 1.835
0.705 0.606254 -1.805
0.565 0.880695 1.895
-0.737101 0.143677 -0.605
-0.774864 0.143799 0.615
-0.766886 0.806287 -0.571667
-0.707189 0.884737 0.661667
0.741892 0.143691 -0.60294
0.77736 0.143806 0.61603
0.766875 0.806276 -0.571667
0.707158 0.884706 0.661667
-1.41854 -0.222975 -2.82381
-1.42427 -0.161303 -1.84261
-1.45651 -0.167797 -0.623026
-1.4662 -0.177824 0.593899
-1.41849 -0.107419 1.81325
-1.40748 -0.0516423 2.79335
-1.41824 -0.00570871 3.77546
-1.42109 0.0609669 -2.80954
-1.4278 0.145721 -1.82678
-1.46776 0.163841 -0.604463
-1.46224 0.159949 0.616719
-1.37948 0.226916 1.83876
-1.38424 0.281181 2.819
-1.40859 0.326704 3.80061
-1.43143 0.58999 -2.78433
-1.44405 0.672237 -1.80169
-1.48298 0.81556 -0.570203
-1.41517 0.871932 0.662252
-1.29151 0.886768 1.89341
-1.33902 0.937688 2.87304
-1.39393 0.988944 3.85242
-1.44376 1.51173 -2.73658
-1.4522 1.61014 -1.75214
-1.46413 1.76438 -0.5162
-1.44715 1.87566 0.722617
-1.41437 1.92691 1.95828
-1.41142 1.96037 2.94214
-1.42875 2.00044 3.92309
-0.69741 -0.218592 -2.82223
-0.692737 -0.153395 -1.84062
-0.721603 -0.177271 -0.622627
-0.750918 -0.189366 0.592528
-0.725065 -0.0949189 1.81045
-0.72163 -0.0430161 2.7915
-0.731607 -0.00204391 3.77449
-0.700194 0.0577277 -2.8087
-0.714572 0.290734 2.8175
-0.73035 0.330279 3.79992
-0.708561 0.561817 -2.78563
-0.678772 0.937817 2.87348
-0.724439 0.98946 3.85267
-0.717305 1.49271 -2.73789
-0.722466 1.59235 -1.75366
-0.740509 1.7603 -0.51704
-0.744728 1.88017 0.722979
-0.732469 1.92895 1.95944
-0.73381 1.96036 2.9433
-0.748415 2.00013 3.924
0.725058 -0.218592 -2.82023
0.725558 -0.153393 -1.83814
0.752993 -0.177262 -0.620771
0.759827 -0.189361 0.593555
0.704527 -0.0949178 1.8108
0.666117 -0.0430163 2.79184
0.647846 -0.00204483 3.77491
0.714038 0.0577271 -2.80677
0.639604 0.290734 2.81771
0.630146 0.330277 3.80028
0.71476 0.561816 -2.78468
0.59146 0.937816 2.87365
0.605884 0.989457 3.85298
0.730791 1.4927 -2.73716
0.732944 1.59234 -1.75309
0.715127 1.76029 -0.51659
0.668036 1.88016 0.723351
0.623674 1.92895 1.95977
0.61069 1.96036 2.94365
0.606658 2.00013 3.9244
1.44492 -0.222976 -2.82026
1.44874 -0.161302 -1.83866
1.48218 -0.16779 -0.619888
1.48681 -0.17782 0.595811
1.421 -0.107417 1.81424
1.37236 -0.0516431 2.79418
1.3488 -0.00571129 3.77637
1.43373 0.0609649 -2.80616
1.43328 0.14572 -1.82288
1.47609 0.163845 -0.601482
1.48004 0.159949 0.618439
1.3936 0.226917 1.8395
1.34153 0.28118 2.81965
1.32655 0.326701 3.80142
1.43561 0.589985 -2.7822
1.44175 0.672231 -1.8
1.48188 0.815546 -0.568899
1.42269 0.871904 0.663085
1.29637 0.886761 1.89392
1.28138 0.937683 2.87358
1.2928 0.988938 3.85314
1.45318 1.51172 -2.73504
1.45608 1.61013 -1.75086
1.43954 1.76437 -0.515156
1.3836 1.87564 0.72348
1.32218 1.9269 1.95904
1.30011 1.96036 2.94292
1.29531 2.00043 3.92394
-0.725269 0.380627 -1.84382
0.00355351 0.151567 -1.82689
-0.712943 0.148893 -1.215
-0.684496 0.567847 1.91622
0.000100493 0.255422 1.83458
-0.737412 0.200194 1.225
0 0.667232 -1.86598
-0.785549 0.755876 -1.18833
0 0.933215 1.94752
-0.651138 0.897759 1.27833
0.729641 0.380627 -1.8431
0.718914 0.148878 -1.21243
0.684679 0.567847 1.9163
0.738886 0.200073 1.22552
0.785512 0.755839 -1.18833
0.651147 0.897768 1.27833
-0.755996 0.143725 0.005
-0.847343 0.474982 -0.588333
0.00239565 0.141039 -0.60397
-0.835978 0.514268 0.638333
0.00124796 0.141028 0.615515
-0.743379 0.851854 0.045
-5.29997e-06 0.956246 -0.571667
-1.55522e-05 1.20069 0.661667
0.75964 0.143735 0.00654501
0.847338 0.474983 -0.587303
0.835973 0.514256 0.638848
0.743371 0.851845 0.045
-0.87763 0.427804 -1.20167
-0.844059 0.494625 0.025
-0.895775 0.541058 1.25167
0.00297458 0.147222 -1.21371
0.00182181 0.141025 0.0057725
0.000674229 0.146986 1.22526
0.00177675 0.380627 -2.0337
5.02467e-05 0.567847 2.09104
-2.64998e-06 0.828727 -1.18833
-1.04261e-05 1.18155 0.045
-7.77609e-06 1.0891 1.27833
0.875183 0.427805 -1.20038
0.844076 0.49462 0.0257725
0.895775 0.541052 1.25192
-1.05785 0.15036 -1.82589
-0.690315 0.000802736 -1.83281
-0.694043 0.106364 -2.31685
-1.04051 0.240958 1.83688
-0.713307 0.0800405 1.82273
-0.708061 0.272867 2.32625
-1.07452 0.639245 -1.80335
-0.70678 0.584036 -2.29531
-0.713733 1.0993 -1.77933
-0.928254 0.883732 1.89421
-0.621886 0.909256 2.38424
-0.648735 1.40482 1.92722
0.710279 0.000803746 -1.83002
0.704519 0.106364 -2.31434
1.06414 0.15036 -1.8224
0.703139 0.0800411 1.8229
0.670677 0.272867 2.32636
1.04768 0.240958 1.83725
0.70988 0.584035 -2.29484
0.718972 1.0993 -1.77904
1.07337 0.639242 -1.8025
0.57823 0.909255 2.38433
0.594337 1.40482 1.92738
0.930685 0.883728 1.89446
-1.10243 0.153759 -0.604732
-0.729352 -0.0167969 -0.613813
-1.11855 0.151874 0.615859
-0.762891 -0.0227833 0.603764
-1.12494 0.810923 -0.570935
-0.753697 1.28329 -0.544354
-1.06118 0.878334 0.661959
-0.725958 1.38246 0.692323
0.747443 -0.0167857 -0.611856
1.10899 0.153768 -0.602211
0.768594 -0.0227772 0.604792
1.1287 0.151877 0.617234
0.741001 1.28328 -0.544128
1.12438 0.810911 -0.570283
0.687597 1.38243 0.692509
1.06492 0.878305 0.662376
-1.42141 -0.192139 -2.33321
-1.41981 -0.0810041 -2.81667
-1.05797 -0.220784 -2.82302
-1.44039 -0.16455 -1.23282
-1.42604 -0.00779137 -1.83469
-1.05851 -0.157349 -1.84161
-1.46136 -0.172811 -0.0145636
-1.46214 -0.00197845 -0.613745
-1.08906 -0.172534 -0.622826
-1.44235 -0.142621 1.20358
-1.46422 -0.00893734 0.605309
-1.10856 -0.183595 0.593213
-1.41299 -0.0795304 2.3033
-1.39898 0.0597486 1.82601
-1.07178 -0.101169 1.81185
-1.41286 -0.0286755 3.2844
-1.39586 0.11477 2.80617
-1.06456 -0.0473292 2.79243
-1.41342 0.160498 3.78804
-1.07492 -0.00387631 3.77498
-1.42444 0.103344 -2.31816
-1.42626 0.325478 -2.79693
-1.06064 0.0593473 -2.80912
-1.44778 0.154781 -1.21562
-1.43593 0.408979 -1.81424
-1.465 0.161895 0.00612794
-1.47537 0.4897 -0.587333
-1.42086 0.193432 1.22774
-1.4387 0.51594 0.639485
-1.38186 0.254049 2.32888
-1.33549 0.556842 1.86609
-1.39642 0.303943 3.30981
-1.36163 0.609435 2.84602
-1.04941 0.285958 2.81825
-1.40126 0.657824 3.82651
-1.06947 0.328491 3.80027
-1.43774 0.631113 -2.29301
-1.43759 1.05086 -2.76046
-1.06999 0.575904 -2.78498
-1.46352 0.743898 -1.18595
-1.44812 1.14119 -1.77691
-1.44907 0.843746 0.0460241
-1.47356 1.28997 -0.543202
-1.35334 0.87935 1.27783
-1.43116 1.3738 0.692434
-1.31526 0.912228 2.38322
-1.35294 1.40684 1.92584
-1.36648 0.963316 3.36273
-1.37522 1.44903 2.90759
-1.00889 0.937752 2.87326
-1.41134 1.49469 3.88775
-1.05919 0.989202 3.85254
-1.44798 1.56094 -2.24436
-1.08053 1.50222 -2.73723
-1.45816 1.68726 -1.13417
-1.08733 1.60124 -1.7529
-1.45564 1.82002 0.103208
-1.10232 1.76234 -0.51662
-1.43076 1.90129 1.34045
-1.09594 1.87792 0.722798
-1.41289 1.94364 2.45021
-1.07342 1.92793 1.95886
-1.42008 1.98041 3.43261
-1.07261 1.96037 2.94272
-1.08858 2.00029 3.92354
-0.695073 -0.185993 -2.33142
-0.698802 -0.0804323 -2.81546
0.0138243 -0.218592 -2.82123
-0.70717 -0.165333 -1.23162
0.0164104 -0.153394 -1.83938
-0.736261 -0.183318 -0.0150494
0.0156948 -0.177267 -0.621699
-0.737992 -0.142142 1.20149
0.00445457 -0.189363 0.593041
-0.723347 -0.0689675 2.30098
-0.0102688 -0.0949184 1.81063
-0.726618 -0.02253 3.283
-0.718101 0.123859 2.8045
-0.0277563 -0.0430162 2.79167
-0.730979 0.164117 3.78721
-0.0418803 -0.00204437 3.7747
-0.704377 0.309773 -2.79716
0.0069221 0.0577274 -2.80774
-0.722461 0.310506 3.30871
-0.696672 0.614276 2.84549
-0.0374841 0.290734 2.8176
-0.727395 0.659869 3.82629
-0.050102 0.330278 3.8001
-0.712933 1.02726 -2.76176
0.00309963 0.561817 -2.78515
-0.701606 0.963638 3.36307
-0.706291 1.44909 2.90839
-0.043656 0.937816 2.87356
-0.736427 1.4948 3.88833
-0.0592778 0.989459 3.85283
-0.719885 1.54253 -2.24577
0.00674296 1.4927 -2.73752
-0.731487 1.67632 -1.13535
0.005239 1.59234 -1.75337
-0.742618 1.82024 0.102969
-0.0126907 1.76029 -0.516815
-0.738598 1.90456 1.34121
-0.0383457 1.88017 0.723165
-0.733139 1.94466 2.45137
-0.0543977 1.92895 1.9596
-0.741112 1.98025 3.43365
-0.0615599 1.96036 2.94348
-0.0708784 2.00013 3.9242
0.725308 -0.185992 -2.32919
0.719548 -0.0804326 -2.8135
1.08499 -0.220784 -2.82025
0.739275 -0.165327 -1.22946
1.08715 -0.157347 -1.8384
0.75641 -0.183312 -0.0136083
1.11759 -0.172526 -0.62033
0.732177 -0.142139 1.20218
1.12332 -0.18359 0.594683
0.685322 -0.068967 2.30132
1.06276 -0.101168 1.81252
0.656982 -0.0225306 3.28337
0.652861 0.123859 2.80477
1.01924 -0.0473297 2.79301
0.638996 0.164116 3.78759
0.998325 -0.00387806 3.77564
0.714399 0.309772 -2.79573
1.07388 0.059346 -2.80647
0.634875 0.310505 3.30899
0.615532 0.614275 2.84568
0.990567 0.285957 2.81868
0.618015 0.659867 3.82663
0.97835 0.328489 3.80085
0.722775 1.02726 -2.76092
1.07518 0.575901 -2.78344
0.598672 0.963636 3.36332
0.601075 1.44909 2.90865
0.936422 0.937749 2.87361
0.606271 1.49479 3.88869
0.949344 0.989198 3.85306
0.731867 1.54252 -2.24512
1.09199 1.50221 -2.7361
0.724036 1.67631 -1.13484
1.09451 1.60123 -1.75197
0.691582 1.82023 0.103381
1.07734 1.76233 -0.515873
0.645855 1.90455 1.34156
1.02582 1.8779 0.723415
0.617182 1.94465 2.45171
0.972926 1.92792 1.9594
0.608674 1.98024 3.43403
0.9554 1.96036 2.94329
0.950985 2.00028 3.92417
1.44683 -0.192139 -2.32946
1.43932 -0.0810056 -2.81321
1.46546 -0.164546 -1.22927
1.44101 -0.00779084 -1.83077
1.4845 -0.172805 -0.0120387
1.47914 -0.00197231 -0.610685
1.45391 -0.142619 1.20502
1.48343 -0.00893562 0.607125
1.39668 -0.0795302 2.30421
1.4073 0.0597497 1.82687
1.36058 -0.0286772 3.28527
1.35694 0.114768 2.80692
1.33768 0.160495 3.78889
1.4335 0.103342 -2.31452
1.43467 0.325475 -2.79418
1.45469 0.154783 -1.21218
1.43751 0.408975 -1.81144
1.47806 0.161897 0.00847847
1.47899 0.489695 -0.58519
1.43682 0.193433 1.22897
1.45136 0.515926 0.640762
1.36757 0.254048 2.32958
1.34499 0.556839 1.86671
1.33404 0.30394 3.31053
1.31146 0.609432 2.84661
1.30968 0.657819 3.82728
1.43868 0.631108 -2.2911
1.44439 1.05085 -2.75862
[...]
POINT_DATA 29498
VECTORS point_vectors float
-1.42501 -3.00334 5.18651
-0.00874765 0.141952 0.461881
-0.883768 1.06365 2.52512
-0.0386152 -0.0563955 0.161411
1.62607 -3.52784 6.20533
0.00471174 0.135869 0.42799
0.896001 1.06736 2.54041
0.0367448 -0.0523916 0.157123
-0.000579676 0.000182407 0.0226524
0.0110409 -0.00126458 0.269233
-0.0120559 -0.00585178 0.0282811
0 0 0
0.00163907 0.000566633 0.0603828
-0.0140046 -0.00162351 0.337181
0.0115848 -0.00565125 0.0272927
0 0 0
-0.626268 -0.33051 19.8111
-1.25816 -0.798263 20.4746
-0.438223 -0.391123 21.2473
0.0482436 -0.108354 21.3531
0.597059 0.220385 21.298
0.834142 0.312002 20.9756
0.886801 0.177423 20.5336
-0.79004 -0.24347 19.6932
-1.76678 -0.649701 20.4247
-0.59106 -0.446233 21.3011
0.00417637 -0.241459 21.4388
0.869213 0.0549867 21.3792
1.11544 0.066617 21.0351
1.13501 -0.069996 20.4181
-0.85341 0.0787105 19.6336
-1.99286 0.202724 20.3087
-1.1154 -0.223464 21.2433
-0.317506 -0.335549 21.5862
0.747411 -0.631212 21.1934
0.866335 -0.610758 21.0223
0.709252 -0.470607 20.5294
-0.552488 0.392046 19.9039
-0.85992 0.63583 20.3378
-0.778655 0.440371 20.9794
-0.297001 0.0473048 21.2855
0.0964525 -0.290115 21.1787
0.242506 -0.398298 20.9183
0.245673 -0.381349 20.7078
-0.640427 -0.763092 19.2186
-1.51004 -3.3436 20.9634
-0.262481 -0.453546 21.5788
0.0759353 0.0639107 20.9015
0.446832 1.09578 18.7046
0.727459 1.39387 18.5915
0.718006 1.18683 18.6585
-0.855201 -0.64428 18.7887
0.942621 1.34368 9.00227
1.56019 0.914256 12.1313
-1.02416 0.200171 18.4608
1.17098 -0.625727 9.85724
1.0535 -0.810319 14.8089
-0.509226 0.774233 19.477
-0.918671 1.58991 20.0777
-0.976844 1.35627 21.0056
-0.356002 0.296718 21.6583
0.0386571 -0.390319 21.255
0.138723 -0.534489 20.9709
0.148378 -0.472169 20.5813
0.645593 -0.744967 19.2418
1.58355 -3.20063 20.9162
0.272763 -0.432125 21.45
-0.083759 0.0611527 20.9168
-0.423532 1.08531 18.5844
-0.607079 1.36678 18.1011
-0.644515 1.34334 18.089
0.866737 -0.631092 18.8107
-0.562883 1.24818 7.51918
-1.58531 1.11661 10.6382
1.03079 0.200911 18.4703
-0.997309 -0.609501 7.1913
-1.05964 -0.862693 12.042
0.516045 0.765228 19.4846
0.927992 1.57846 20.0809
0.958351 1.39527 21.0029
0.347703 0.330711 21.6929
-0.0236821 -0.396439 21.2652
-0.107766 -0.544228 20.9477
-0.19123 -0.476938 20.7749
0.62724 -0.32634 19.8225
1.23202 -0.760092 20.477
0.44041 -0.375497 21.2228
-0.0420021 -0.106583 21.3338
-0.585327 0.207848 21.2928
-0.856529 0.33583 20.9742
-0.990324 0.188474 20.4081
0.786607 -0.241339 19.7086
1.75186 -0.645075 20.4354
0.590299 -0.441 21.2943
0.00179386 -0.237954 21.4188
-0.844851 0.0451342 21.3747
-1.16538 0.0715911 21.0455
-1.30307 -0.0381286 20.0497
0.855413 0.0766677 19.6367
1.99799 0.201501 20.312
1.11348 -0.22395 21.2412
0.315537 -0.329962 21.5783
-0.735639 -0.620786 21.1893
-0.919109 -0.668516 20.9708
-0.786441 -0.514751 20.5435
0.551395 0.38944 19.9093
0.857455 0.631126 20.34
0.787949 0.459853 20.9826
0.308787 0.0623986 21.3163
-0.0761425 -0.32263 21.1659
-0.225148 -0.429685 20.8862
-0.192234 -0.36106 20.5928
-0.449894 -0.0584062 0.572706
-1.60868e-05 -0.0064395 0.0622261
-0.0158607 0.000705936 0.174842
-0.0192328 -0.00324137 -0.0216334
-0.000845743 0.0067545 0.0438841
0.00224724 0.00775114 0.1859
-9.69487e-05 0.0288762 0.0709946
-0.215458 -0.00164311 0.742732
-0.000839092 0.00539114 -0.0151037
0 0 0
0.525782 -0.0666219 0.659444
0.0169281 0.000390917 0.204444
0.0194874 -0.00290297 -0.0219371
-0.00259192 0.00735391 0.182504
0.213108 -0.00101072 0.740431
0 0 0
0.00150375 -5.73684e-05 0.127375
0.000339886 -0.00122251 0.0193131
-5.17267e-07 4.49919e-09 0.000246497
0.000115546 0.00377482 0.0121935
-6.97111e-07 7.51991e-07 0.000318719
-2.82473e-17 -3.65253e-17 -2.16838e-16
0.00065254 0.00772982 0.0182251
-2.47645e-05 -0.00213442 0.0256325
-0.00138223 -6.39456e-05 0.100221
-0.00034067 -0.00125913 0.0191666
-2.46698e-05 0.00448553 0.0137527
0 0 0
-1.35384e-06 -1.34492e-05 0.000276327
0.0003364 0.00731523 0.0470898
2.10815e-05 0.00073289 0.00829577
1.45029e-07 -7.85224e-07 -7.9749e-05
-8.87463e-07 -2.35746e-08 0.000294228
0.0016398 0.0310302 0.199324
0 0 0
-0.0151976 0.03813 -0.0431717
-5.87107e-06 0.00157691 0.0115777
2.91955e-06 0.0258762 0.164402
1.20655e-06 -1.17533e-05 6.05612e-05
0 0 0
-0.0003248 0.00734409 0.0469776
-2.245e-05 0.000750222 0.00866421
-3.55583 -2.01155 20.288
-2.09875 -5.23157 21.3841
-2.35034 -2.1097 17.5999
1.33411 0.679974 16.9484
0.200228 1.25577 11.7804
0.178044 1.00506 5.79037
-4.20826 0.938147 19.8974
-2.99979 1.11559 16.7036
-2.12696 2.84512 19.7483
1.33941 -0.381413 15.0111
0.249768 -0.212629 4.65897
0.067366 -0.763642 20.8658
2.21673 -5.14677 21.289
2.36672 -2.07326 17.6513
3.50406 -1.96943 20.3302
-0.173511 1.21349 11.5606
0.0622641 0.844041 4.88094
-1.31895 0.649456 17.2013
3.00778 1.10715 16.718
2.13997 2.83212 19.7558
4.2213 0.933269 19.9086
-0.0689266 -0.0814652 3.74112
-0.0833326 -0.742163 20.4039
-1.33441 -0.377287 15.0699
-0.268098 -0.568571 20.4617
-0.299885 -0.106147 16.4884
0.17883 -0.17972 19.6584
0.197942 0.100613 15.7149
-1.87164 -0.818847 21.1647
-2.36723 1.83352 20.9874
-0.309446 -0.340315 19.189
-0.774983 0.24912 22.0238
0.303563 -0.0992217 16.8955
0.284227 -0.588673 20.6385
-0.210872 0.0971315 15.7934
-0.168717 -0.197329 19.9301
2.37448 1.89468 20.9732
1.873 -0.819896 21.1625
0.775429 0.291226 21.9781
0.314331 -0.346751 19.3003
-0.990125 -0.57727 19.979
-0.718383 -0.296147 19.7587
-0.708007 -0.527208 19.5477
-0.870928 -0.642365 21.1149
-1.53647 -0.764816 20.453
-1.7038 -1.72245 20.5396
-0.175955 -0.23737 21.2994
-0.524414 -0.432498 21.2651
-0.349073 -0.480805 21.4534
0.303187 0.0232777 21.3963
0.0186771 -0.183677 21.3819
0.116646 -0.0882891 21.4914
0.754951 0.285982 21.1178
0.730942 0.159265 21.3568
0.796839 0.636229 21.0119
0.867101 0.224643 20.8823
1.00807 0.184387 20.9906
1.08123 0.82568 20.3547
1.06658 0.0524311 20.3067
1.0479 0.679554 20.6102
-1.34386 -0.430571 19.7928
-0.844539 -0.113548 19.6336
-0.894014 -0.423812 19.3317
-1.19187 -0.592645 21.2205
-2.02004 -0.288273 20.359
-0.264164 -0.348047 21.3615
-0.82411 -0.434684 21.2966
0.357882 -0.129656 21.541
-0.115364 -0.335429 21.5548
1.04869 0.106165 21.1282
0.985213 -0.283266 21.3514
1.07991 -0.0283943 21.0059
1.13705 -0.348181 20.9824
1.62467 0.640343 18.3623
0.946181 -0.344809 20.6892
1.43585 0.272103 18.9732
-1.46563 0.172928 19.7359
-0.755937 0.301959 19.732
-1.04011 0.108871 19.1287
-1.55436 -0.0340565 21.0885
-1.39909 0.632587 20.2911
-0.762483 -0.338569 21.4609
-1.11308 0.230384 21.0953
0.205142 -0.405003 21.6427
-0.397698 -0.0916613 21.4889
0.843577 -0.644685 21.1499
0.251698 -0.473538 21.2945
0.86403 -0.567503 20.938
0.449673 -0.571862 20.9932
1.2614 -0.825445 19.0199
0.405099 -0.501654 20.8369
0.922868 -0.820987 20.4549
-0.74356 0.54955 20.052
-0.579173 0.589759 19.707
-0.865671 0.577279 20.685
-1.01157 1.08034 20.2246
-0.578839 0.265521 21.2049
-0.94151 0.80551 21.0092
-0.067672 -0.145333 21.2577
-0.347736 0.143782 21.4764
0.173248 -0.369838 21.0461
0.0805416 -0.354567 21.2154
0.18936 -0.386561 20.777
0.188651 -0.493176 20.8655
0.173742 -0.374752 20.5243
-1.29816 -1.90801 19.0902
-0.752889 -0.741004 19.0191
0.0108455 -1.06013 18.8539
-0.549384 -1.20566 22.0542
0.0297231 -3.92489 21.7848
-0.106824 -0.188981 20.9824
0.00530567 -0.486555 20.4707
0.345013 0.564654 19.7615
-0.00396822 0.0218845 19.5691
0.533698 1.27967 18.4801
-0.00924365 0.787279 16.1499
0.867853 1.32518 17.5276
0.800379 1.47245 13.7885
-0.0242376 0.853004 15.0981
1.1506 1.05649 15.0107
0.0340635 1.47858 15.0861
-0.991864 -0.282157 18.4931
0.014238 -0.894454 18.1508
1.50178 1.51489 11.5542
1.41727 0.40476 5.94352
-0.00794274 -0.606383 -0.813197
1.70784 -0.00935208 11.6591
0.0427529 0.408296 2.98854
-0.786016 0.773356 18.9344
0.00755977 0.311999 17.5481
1.55312 -0.823466 13.3615
0.246329 -0.965586 20.6501
0.098536 -0.31876 -0.498379
0.209855 -0.825543 20.3765
0.254247 -1.06918 4.1276
-0.731455 1.287 19.6356
0.00721184 1.02137 19.2594
-0.948726 1.48639 20.6026
0.00646852 2.13578 19.9311
-0.757951 0.931528 21.5154
-0.0264493 2.15642 20.9309
-0.0960084 -0.150711 21.5097
-0.0338761 0.524184 21.8956
0.101958 -0.494089 21.1033
-0.00809852 -0.38641 21.353
0.191095 -0.548416 20.7824
0.00261477 -0.582925 21.0251
-0.000520527 -0.712038 20.3923
1.31542 -1.81801 19.1446
0.760566 -0.716805 19.0451
0.704004 -0.503579 19.5751
0.580377 -1.20713 22.0765
1.69719 -1.62359 20.5406
0.101095 -0.189135 20.9226
0.353718 -0.476854 21.4343
-0.34889 0.567554 19.6849
-0.116174 -0.0954169 21.4863
-0.45736 1.26468 18.3358
-0.792878 0.644327 20.9915
-0.689628 1.40067 17.3954
-0.542429 1.49564 12.7006
-1.06708 0.874628 20.3167
-1.0667 1.24133 14.3744
-1.00374 0.817166 20.6026
1.00293 -0.277546 18.5092
0.896336 -0.423447 19.3462
-1.25296 1.42697 9.6986
-1.24613 0.451557 3.62835
-1.63723 0.797557 16.7347
-1.82322 0.164342 8.92007
-1.42207 0.427644 17.8727
0.796384 0.765483 18.9476
1.04372 0.108626 19.136
-1.33659 -0.805028 10.354
-0.199294 -0.983862 20.5643
-1.3778 -0.766306 17.6971
-0.179182 -0.822991 20.6286
-0.994894 -0.825288 18.7674
0.741314 1.27426 19.6419
0.579366 0.583389 19.7129
0.943481 1.49634 20.6016
1.0105 1.07138 20.2281
0.756784 1.00657 21.5504
0.949328 0.83508 21.01
0.10163 -0.145567 21.5343
0.355531 0.174798 21.5066
-0.082285 -0.500978 21.1059
-0.0648556 -0.36235 21.2295
-0.175825 -0.598445 20.747
-0.170168 -0.509221 20.9015
-0.131158 -0.433079 20.4641
0.979687 -0.549718 19.9967
0.714104 -0.292597 19.7778
0.853298 -0.603751 21.092
1.50088 -0.738264 20.4607
0.179002 -0.22819 21.2914
0.527508 -0.42484 21.247
-0.296106 0.0188609 21.3906
-0.0107857 -0.183607 21.3583
-0.761673 0.301003 21.1228
-0.717461 0.148255 21.3511
-0.902863 0.231785 20.8392
-1.03543 0.212186 20.9866
-1.21177 0.0837936 20.0447
1.33471 -0.427374 19.8074
0.847303 -0.112664 19.6383
1.17658 -0.581172 21.2132
2.00944 -0.288356 20.3659
0.269131 -0.344465 21.3493
0.822011 -0.432844 21.2905
-0.349361 -0.126656 21.5313
0.11826 -0.329536 21.5369
-1.05724 0.104557 21.1257
-0.95665 -0.280336 21.3433
-1.14237 -0.0387488 21.1289
-1.22138 -0.356153 20.9851
-1.07025 -0.365231 20.3622
1.46711 0.171582 19.7377
0.755674 0.30063 19.7363
1.55295 -0.0355747 21.0876
1.39726 0.630225 20.293
0.758667 -0.334135 21.4549
1.13104 0.24004 21.0977
-0.203855 -0.401289 21.6352
0.41082 -0.0869209 21.5118
-0.847449 -0.667936 21.1547
-0.251303 -0.492044 21.2918
-0.872878 -0.617162 20.9449
-0.4431 -0.617142 21.0183
-0.418962 -0.519261 20.7791
0.741023 0.544618 20.0566
0.868654 0.583319 20.6848
0.594655 0.289378 21.2227
0.0731631 -0.150329 21.2843
-0.164048 -0.386207 21.0546
-0.207203 -0.41866 20.7925
-1.1789 -0.540897 19.8961
-1.75709 -2.13192 18.496
-1.27211 -1.08325 19.6319
-1.92415 -0.973651 19.1277
-0.806024 -0.483331 19.4281
-2.44931 -2.02744 20.4971
-1.0385 -0.634747 21.1688
-0.496381 -0.643089 18.6102
-0.877999 -1.04201 21.5238
-1.39726 -1.29303 22.0414
-0.312668 -0.52142 21.4154
-0.224296 -0.303779 21.3304
-0.0359257 -0.0377333 15.7536
-0.110099 -0.273963 21.4448
-0.043929 -0.318336 19.8392
0.178648 -0.138195 21.0864
0.328135 -0.0511317 21.4746
0.582498 0.594409 13.0181
0.447936 0.190814 21.398
0.511427 -0.0473727 18.3997
1.10445 0.703023 19.6611
0.923375 0.214237 21.1107
0.406204 1.30495 12.6141
0.97664 0.759046 20.698
1.51509 0.615236 17.8528
1.3728 0.760609 19.5104
1.00512 0.0782148 21.0635
1.1687 1.58558 15.0232
1.17406 0.769794 20.4883
1.46127 0.58248 17.8747
1.23211 0.486486 19.8196
-1.48468 -0.191557 19.7389
-3.15924 -0.802748 16.4848
-2.28909 0.366599 18.8327
-1.02003 -0.186158 19.1708
-4.70874 -0.626021 19.9489
-1.43049 -0.386865 21.2233
-2.51278 -0.180881 21.8002
-0.636146 -0.89738 20.1901
-0.446576 -0.428853 21.4561
-1.24754 -0.903791 20.3655
0.0897305 -0.126825 17.7956
0.316051 -0.2728 21.5963
0.784781 0.336244 17.1332
1.44984 0.264991 12.8585
1.13085 -0.31235 21.1396
0.054161 0.252287 2.03217
1.19982 -0.649931 17.3559
1.73927 -0.117618 17.2524
1.05419 -0.376906 21.2426
2.11994 0.0982248 10.3757
1.12139 -0.855911 19.7967
1.41481 -0.237209 18.0746
-1.13359 0.512749 19.8717
-1.5116 1.79061 18.7637
-0.831257 0.895849 19.8541
-0.851907 0.511314 19.3546
-1.99608 1.40287 20.0905
-1.31368 0.44101 20.8171
-2.06417 2.0421 20.7779
-1.03558 0.976301 20.6585
-1.72833 0.648885 21.1626
-0.821123 0.0644369 21.3699
-2.10207 1.33168 22.1566
-0.716949 0.526325 21.3491
-0.593991 -0.00943712 21.8027
-0.00612503 -0.287666 21.4636
-0.0759142 -0.448235 21.2225
-0.0771906 -0.161581 21.3913
0.174403 -0.664057 21.4295
0.357895 -0.537763 21.1197
0.15354 -0.838978 20.743
0.141196 -0.444205 21.0736
0.38755 -0.770398 21.0385
0.40562 -0.545997 20.6381
0.307759 -0.971154 20.4358
0.260117 -0.476073 20.8501
0.359359 -0.695289 20.4546
1.77993 -2.05331 18.5672
0.0318299 -3.05572 18.5579
0.0187922 -4.19396 15.385
0.0113489 -1.01379 18.4926
0.0245901 -4.82305 22.8627
0.490817 -0.706371 19.0451
0.0135681 -1.23849 22.1623
-0.000674685 -0.126148 12.6297
0.0188798 -0.0431912 15.8107
-0.00193026 -0.23358 19.6254
-0.00570357 0.0534934 12.0319
-0.583551 0.600007 12.975
-0.00633046 0.490371 17.8529
-0.0209716 0.606158 7.39692
-0.246264 1.22089 11.8335
-0.0259385 0.696024 15.2627
-0.16124 -0.830935 -0.366555
-0.119641 0.25568 7.07558
-0.973669 1.63465 14.6914
0.00191334 1.25085 15.1539
0.00358041 0.755132 2.25877
0.0323356 0.964376 9.045
3.17498 -0.804735 16.5341
0.00443348 2.71204 13.2839
0.0135968 -0.42078 17.6385
0.164683 0.29845 1.51836
-0.0519807 0.441558 -0.745269
0.226802 -0.924155 -4.23684
-1.93155 0.223388 7.0224
0.242292 -0.475262 0.955672
0.31838 -0.0913804 0.0857191
1.52256 1.77351 18.7809
0.00561146 1.6905 19.4048
0.00499702 1.11869 18.4088
0.00648839 4.25719 19.509
2.0597 2.05595 20.7798
-0.00551385 2.09606 20.4764
-0.0236913 3.98976 20.3116
2.14809 1.44185 22.1929
-0.0364106 1.60208 21.7292
-0.0281242 0.715187 21.7154
0.0781012 -0.458463 21.1368
-0.0159168 -0.1111 21.6301
-0.00252728 -0.586562 17.6587
-0.127027 -0.818424 20.5678
-0.00369525 -0.529224 21.117
0.0414601 -0.944515 18.7968
-0.195396 -0.983409 20.6435
0.0217555 -0.502587 20.9451
0.0297301 -0.530425 19.3255
1.16192 -0.53107 19.9228
1.24875 -1.02354 19.6904
1.91947 -0.964113 19.1582
0.808215 -0.473096 19.4413
2.42299 -1.90749 20.4858
1.02148 -0.610933 21.1447
0.892906 -0.999495 21.4761
1.40277 -1.25946 22.0341
0.329294 -0.532317 21.4536
0.229073 -0.300487 21.3208
0.111739 -0.278324 21.4356
0.0579904 -0.342524 20.0701
-0.171418 -0.1525 21.1974
-0.314655 -0.0565857 21.4601
-0.448069 0.187815 21.4036
-0.514308 -0.0560752 18.7327
-1.09537 0.699802 19.6519
-0.929013 0.223033 21.1138
-0.97964 0.789793 20.6232
-1.50249 0.675913 17.1616
-1.36034 0.89284 18.8729
-1.04531 0.0841076 21.0481
-1.18421 0.857736 20.4979
-1.50105 0.825631 16.7209
-1.21626 0.626141 18.9513
1.48171 -0.191121 19.7459
2.2916 0.364979 18.8432
1.02751 -0.187112 19.1816
4.6766 -0.634139 19.9928
1.4203 -0.386703 21.2145
2.51631 -0.190674 21.7938
0.641279 -0.898318 20.2639
0.446386 -0.421725 21.4437
1.24162 -0.896654 20.3918
-0.084327 -0.159614 18.0738
-0.309983 -0.269879 21.5885
-0.770391 0.301285 17.3184
-1.44294 0.283889 13.2357
-1.1501 -0.318179 21.089
-1.2255 -0.592558 16.5851
-1.78508 -0.053253 15.2603
-1.09394 -0.402761 21.2289
-1.34063 -0.844083 18.1257
-1.49083 -0.265527 16.5111
1.13135 0.50928 19.8754
0.830785 0.88668 19.8602
0.852561 0.506983 19.3646
1.99312 1.39141 20.0957
1.31958 0.444387 20.818
1.03593 0.985932 20.6586
1.7527 0.669223 21.1633
0.845096 0.0758951 21.3827
0.72759 0.576157 21.3729
0.615458 0.00225906 21.842
0.0112122 -0.289806 21.4798
0.0850058 -0.156118 21.4207
-0.151987 -0.686582 21.464
-0.372004 -0.565169 21.1173
-0.128394 -0.471499 21.08
-0.314103 -0.854726 20.9566
-0.40304 -0.622024 20.6814
-0.245138 -0.499887 20.839
-0.325314 -0.779413 20.2757
-1.6026 -1.09751 19.3671
-1.06573 -1.1796 21.7991
-0.0736775 -0.305092 21.1551
0.578766 0.109817 20.4772
1.26575 0.756941 19.5521
1.27537 0.714273 19.342
-2.33519 -0.374095 18.8067
-2.0091 -0.788156 21.9052
-0.153111 -0.680023 19.0034
0.302628 0.333686 16.582
1.56298 0.0349443 15.3459
1.80154 -0.18401 17.4094
-1.46785 0.994848 19.4246
-1.81453 0.949394 20.8764
-1.36613 0.339661 21.6751
-0.0489906 -0.376589 21.6706
0.29408 -0.748062 21.1784
0.409124 -0.771232 20.8878
0.0265907 -3.80609 17.3746
0.00283477 -0.399953 14.6089
-0.00360938 -0.0481124 11.8792
-0.00580682 0.403323 9.73218
-0.0909646 0.0837785 7.10862
-0.0173004 1.21311 8.74406
0.0166214 -1.29798 12.6701
-0.0339525 -0.423163 -3.51137
0.259569 -0.359378 -3.46237
0.0084234 2.85491 17.9933
-0.00538114 3.3461 20.4649
-0.043665 3.38005 22.2712
-0.0106505 -0.370483 19.3067
-0.00138767 -0.64709 18.4034
0.0360248 -1.04766 19.1275
1.58638 -1.06546 19.4055
1.07625 -1.13478 21.7363
0.0831386 -0.323632 21.2608
-0.574482 0.100406 20.542
-1.25675 0.8148 19.1561
-1.3155 0.932609 18.3009
2.33371 -0.373269 18.8326
1.99112 -0.797069 21.9105
0.165257 -0.684339 19.1724
-0.313387 0.306908 16.8331
-1.53712 0.0873359 14.2418
-2.00386 -0.184931 15.8573
1.46628 0.986447 19.4339
1.82004 0.958612 20.8751
1.41409 0.370212 21.7002
0.0624397 -0.386983 21.7143
-0.265435 -0.785716 21.2083
-0.410724 -0.860893 20.761
-0.371908 -0.227977 0.552199
-0.00784107 -0.0127615 0.0843394
-0.0409058 0.000987101 0.225315
-0.00751486 -0.00499131 -0.00782344
-0.00886086 0.00678408 0.0416686
-0.0274313 0.0289272 0.365792
-0.698012 0.155852 0.888584
-0.0214845 0.135725 0.305922
-0.175808 0.1116 0.661631
0 0 0
-0.0119559 -0.00108898 -0.00146778
0 0 0
0.00747007 -0.0116361 0.0772283
0.43847 -0.265551 0.643523
0.046511 0.000675688 0.273171
0.00814338 0.00660985 0.040037
0.00810414 -0.00519396 -0.00840059
0.022649 0.0231112 0.302691
0.0199081 0.138765 0.313249
0.653368 0.161944 0.860897
0.176011 0.11084 0.659918
0.00933427 -0.00059463 -0.00284468
0 0 0
0 0 0
-0.0178291 0.00260141 0.167933
0.00118679 -3.91488e-05 0.103762
0 0 0
0 0 0
0 0 0
0.000719627 -1.04972e-05 0.0398637
0 0 0
0 0 0
-0.202427 -0.103661 0.508373
-0.0391935 -0.0787341 0.660338
0 0 0
-0.013876 0.00816495 0.0268858
0 0 0
0.0391728 0.101465 0.218699
0 0 0
0.00562177 -0.00155458 0.0471331
0.00883541 0.00120281 0.0872412
0 0 0
-0.00205594 -0.000243081 0.125125
0 0 0
0 0 0
0 0 0
-0.000791719 1.28599e-05 0.072425
0 0 0
0.199883 -0.102445 0.502485
0.0180192 0.0107437 0.0353633
0.0395038 -0.0777573 0.652198
0 0 0
0 0 0
-0.00501034 -0.00138013 0.042005
-0.0390129 0.100848 0.217576
0 0 0
0 0 0
0 0 0
0 0 0
0 0 0
0 0 0
2.59709e-07 -1.95024e-08 -9.65194e-06
0.0866993 -0.00395811 0.327201
-0.0416151 0.012891 -0.00787949
4.93994e-07 -3.84536e-06 -8.59891e-05
-0.00589947 -0.0780043 -0.0411764
0.00346074 0.00661526 0.16125
0 0 0
-0.000993781 0.167019 0.058467
0.000318106 0.00962228 0.0452376
-0.0042144 -0.0080119 0.14385
-1.69349e-17 1.34437e-17 1.03337e-16
-0.00117607 0.0236996 -0.0109318
-7.08712e-05 0.000701599 -0.00229436
0.0741839 0.15359 1.06165
0.00102372 -0.000916322 0.0041323
0 0 0
0.0160003 -0.0121952 0.144967
-3.93848e-07 -3.5297e-08 -1.83728e-05
0.0051362 0.007509 0.366777
0.0423779 0.013898 -0.00827007
-0.0870317 -0.00317085 0.328604
0 0 0
-0.00345246 0.00637791 0.158487
1.58729e-18 1.1875e-18 9.3912e-18
0.00398051 -0.00726644 0.129664
-0.00124224 -0.00101686 0.00466581
-0.0748077 0.153402 1.06033
0 0 0
0 0 0
0.00122681 -0.00121047 0.0130596
0.000227002 0.00122702 0.0263644
0 0 0
-7.19371e-07 5.02019e-08 0.000258943
0.000157776 0.00487606 0.0264844
-0.0223643 0.0229118 0.176482
-9.32976e-07 1.19113e-07 0.000307993
0 0 0
0.00502104 0.0401325 0.174824
-0.0101216 0.018662 0.100995
-0.000211547 0.015838 0.10658
3.48863e-05 0.0342135 0.0907488
-3.26484e-05 0.003038 0.0635106
0 0 0
0 0 0
0 0 0
-0.00106091 -0.00108658 0.0119453
-0.000225242 0.00129236 0.0268602
-0.000155126 0.00481229 0.0261879
0.0226422 0.0231607 0.178033
0.013098 0.0245075 0.132002
-0.00504591 0.0400881 0.174325
-0.0287831 -0.0345171 0.275892
-0.0349766 -0.0233437 0.199616
0.00422685 -0.000774934 0.0410843
0.0235049 -0.0643905 0.311847
0 0 0
-0.00161209 0.00457034 0.336056
0 0 0
0.0137941 0.0479361 0.169664
0 0 0
0 0 0
0.101165 0.0633575 0.416248
0.0124912 -0.0158045 0.0594668
-9.8414e-06 -6.04533e-08 0.000138486
1.403e-05 -9.6874e-07 0.000216971
0 0 0
0 0 0
0 0 0
0 0 0