# vtk DataFile Version 2.0
tet_velo
ASCII
DATASET UNSTRUCTURED_GRID
POINTS 29498 float
-0.839112 0.175 -1.735
-0.645 0.255 1.85949
-0.805 0.736477 -1.755
-0.815 0.845 1.75703
0.839112 0.175 -1.735
0.654349 0.255 1.845
0.805 0.736477 -1.755
0.815 0.845 1.75703
-0.795448 0.180626 -0.536837
-0.745039 0.192998 0.661327
-0.870275 0.834593 -0.584323
-0.867345 0.864504 0.586353
0.798569 0.180622 -0.541667
0.75149 0.19278 0.651667
0.870281 0.834599 -0.584323
0.867338 0.864497 0.586353
-1.67798 -0.174528 -2.65643
-1.66682 -0.14122 -1.70955
-1.62658 -0.132134 -0.511015
-1.56073 -0.121341 0.693171
-1.48127 -0.0777002 1.89216
-1.46026 -0.0506556 2.84132
-1.46218 -0.0309736 3.7861
-1.67586 0.129338 -2.67551
-1.67065 0.172709 -1.73159
-1.63545 0.190602 -0.53779
-1.56447 0.198156 0.658829
-1.46643 0.23511 1.85317
-1.4468 0.261078 2.8021
-1.45328 0.281396 3.74769
-1.66307 0.723117 -2.70652
-1.66203 0.766105 -1.76194
-1.69023 0.836486 -0.586784
-1.66178 0.856536 0.586858
-1.58785 0.851498 1.76286
-1.5136 0.876648 2.71519
-1.48269 0.903469 3.66644
-1.64849 1.6679 -2.77124
-1.65024 1.7162 -1.83019
-1.66541 1.78433 -0.663714
-1.66884 1.82269 0.497556
-1.6396 1.83133 1.66505
-1.59507 1.84105 2.60821
-1.55232 1.85933 3.55672
-0.851169 -0.174027 -2.65883
-0.842484 -0.139524 -1.7131
-0.811948 -0.137383 -0.512476
-0.774577 -0.124662 0.693651
-0.716547 -0.0671353 1.89449
-0.690582 -0.0436433 2.84214
-0.686113 -0.0277854 3.78556
-0.848052 0.126711 -2.67659
-0.661467 0.267903 2.80297
-0.671275 0.284009 3.74692
-0.833531 0.710205 -2.70388
-0.713931 0.875447 2.71307
-0.688545 0.902973 3.66444
-0.815009 1.66009 -2.76881
-0.81236 1.70938 -1.82747
-0.828583 1.78385 -0.662484
-0.843052 1.82481 0.496238
-0.827421 1.83059 1.66194
-0.788446 1.83913 2.60495
-0.748956 1.85766 3.55379
0.808343 -0.174034 -2.65991
0.815266 -0.139529 -1.71446
0.78872 -0.137414 -0.51703
0.739092 -0.12481 0.68521
0.684731 -0.0671927 1.88316
0.767281 -0.0436883 2.83326
0.826574 -0.0278341 3.77869
0.812626 0.126706 -2.6772
0.792971 0.267873 2.79436
0.845718 0.283966 3.7404
0.813036 0.710202 -2.70429
0.845142 0.875425 2.70902
0.867852 0.902936 3.65963
0.847208 1.66008 -2.76984
0.857881 1.70937 -1.82844
0.853942 1.78384 -0.663657
0.829956 1.82479 0.494696
0.816008 1.83056 1.65987
0.830862 1.8391 2.60217
0.854993 1.85763 3.55039
1.637 -0.174548 -2.65908
1.64337 -0.14124 -1.71292
1.6091 -0.132203 -0.518755
1.53746 -0.121552 0.679682
1.47049 -0.0778449 1.87486
1.52451 -0.0507628 2.8259
1.58833 -0.0310766 3.77314
1.64502 0.129325 -2.67736
1.66376 0.1727 -1.73351
1.63505 0.19056 -0.544311
1.5649 0.197937 0.646395
1.47953 0.234987 1.8364
1.54371 0.260989 2.78748
1.60603 0.281302 3.73539
1.64934 0.723107 -2.70784
1.66463 0.766102 -1.76279
1.6943 0.836473 -0.589147
1.66185 0.856452 0.582286
1.59858 0.851416 1.75646
1.61247 0.876577 2.70643
1.64117 0.903387 3.65691
1.67636 1.66788 -2.77355
1.68795 1.71617 -1.83246
1.68733 1.7843 -0.666477
1.66183 1.82264 0.493941
1.63781 1.83127 1.66035
1.64049 1.84098 2.60233
1.65618 1.85925 3.5498
-0.83429 0.455739 -1.75723
0 0.196293 -1.71371
-0.800798 0.194295 -1.13592
-0.790101 0.55 1.86836
0.00467452 0.336045 1.7712
-0.679484 0.239535 1.26041
0 0.815564 -1.83409
-0.857643 0.805541 -1.16966
0 0.958718 1.87075
-0.868141 0.881721 1.17169
0.834304 0.455739 -1.75725
0.817086 0.179566 -1.13833
0.794184 0.55 1.86052
0.687627 0.239182 1.24833
0.857645 0.805542 -1.16966
0.868145 0.881724 1.17169
-0.770339 0.186717 0.062245
-0.868221 0.50761 -0.56058
0.00156061 0.18146 -0.539252
-0.885654 0.528751 0.62384
0.00322574 0.195724 0.656497
-0.868989 0.849727 0.00101501
2.65262e-06 0.979827 -0.584323
-3.56931e-06 1.3642 0.586353
0.775076 0.186655 0.055
0.86779 0.50761 -0.562995
0.88566 0.528638 0.61901
0.868989 0.849727 0.00101501
-0.876154 0.481674 -1.15279
-0.883998 0.518181 0.03163
-0.872706 0.539376 1.21605
0.000780307 0.182604 -1.13713
0.00239318 0.187506 0.0586225
0.00395013 0.233622 1.25437
0 0.455739 -2.11491
0.00233726 0.55 2.09841
1.32631e-06 0.927435 -1.16966
-4.58347e-07 1.32966 0.00101501
-1.78466e-06 1.26991 1.17169
0.876136 0.481674 -1.154
0.883944 0.518124 0.0280075
0.872839 0.539319 1.21001
-1.25488 0.173854 -1.7333
-0.840798 0.0177382 -1.72405
-0.843582 0.150855 -2.20579
-1.05571 0.245055 1.85633
-0.680774 0.0939323 1.87699
-0.653234 0.261451 2.33123
-1.23352 0.751291 -1.75847
-0.819265 0.723341 -2.22944
-0.80868 1.22293 -1.79123
-1.20142 0.848249 1.75995
-0.764465 0.860224 2.23505
-0.82121 1.3378 1.70949
0.827189 0.0177353 -1.72473
0.825869 0.150853 -2.2061
1.25144 0.17385 -1.73426
0.66954 0.0939037 1.86408
0.72366 0.261436 2.31968
1.06694 0.244993 1.8407
0.809018 0.72334 -2.22964
0.83144 1.22292 -1.79172
1.23482 0.751289 -1.75889
0.830071 0.860212 2.23302
0.815504 1.33778 1.70845
1.20679 0.848208 1.75675
-1.21545 0.185614 -0.537313
-0.803698 0.0216215 -0.524656
-1.15476 0.195577 0.660078
-0.759808 0.0341684 0.677489
-1.28025 0.835539 -0.585554
-0.849429 1.30922 -0.623404
-1.26456 0.86052 0.586606
-0.855198 1.34466 0.541296
0.793645 0.0216037 -0.529348
1.21681 0.185591 -0.542989
0.745291 0.0339846 0.668439
1.1582 0.195358 0.649031
0.862112 1.30922 -0.62399
1.28229 0.835536 -0.586735
0.848647 1.34464 0.540525
1.26459 0.860474 0.58432
-1.6724 -0.157874 -2.18299
-1.67692 -0.0225951 -2.66597
-1.26457 -0.174278 -2.65763
-1.6467 -0.136677 -1.11028
-1.66873 0.0157441 -1.72057
-1.25465 -0.140372 -1.71132
-1.59366 -0.126738 0.0910782
-1.63102 0.0292336 -0.524402
-1.21927 -0.134759 -0.511745
-1.521 -0.0995207 1.29267
-1.5626 0.0384072 0.676
-1.16766 -0.123001 0.693411
-1.47076 -0.0641779 2.36674
-1.47385 0.0787049 1.87266
-1.09891 -0.0724178 1.89333
-1.46122 -0.0408146 3.31371
-1.45353 0.105211 2.82171
-1.07542 -0.0471495 2.84173
-1.45773 0.125211 3.76689
-1.07414 -0.0293795 3.78583
-1.67326 0.151023 -2.20355
-1.66947 0.426227 -2.69102
-1.26196 0.128024 -2.67605
-1.65305 0.181655 -1.13469
-1.66634 0.469407 -1.74676
-1.59996 0.194379 0.0605194
-1.66284 0.513544 -0.562287
-1.51545 0.216633 1.256
-1.61313 0.527346 0.622844
-1.45661 0.248094 2.32763
-1.52714 0.543304 1.80801
-1.45004 0.271237 3.2749
-1.4802 0.568863 2.75865
-1.05413 0.26449 2.80254
-1.46799 0.592433 3.70707
-1.06228 0.282702 3.7473
-1.66255 0.744611 -2.23423
-1.65578 1.19551 -2.73888
-1.2483 0.716661 -2.7052
-1.67613 0.801295 -1.17436
-1.65614 1.24115 -1.79606
-1.67601 0.846511 3.71129e-05
-1.67782 1.31041 -0.625249
-1.62481 0.854017 1.17486
-1.66531 1.33961 0.542207
-1.55072 0.864073 2.23902
-1.61372 1.34142 1.71395
-1.49815 0.890059 3.19081
-1.55434 1.35885 2.6617
-1.11377 0.876048 2.71413
-1.51751 1.3814 3.61158
-1.08562 0.903221 3.66544
-1.64936 1.69205 -2.30072
-1.23175 1.664 -2.77002
-1.65783 1.75026 -1.24695
-1.2313 1.71279 -1.82883
-1.66713 1.80351 -0.083079
-1.247 1.78409 -0.663099
-1.65422 1.82701 1.0813
-1.25595 1.82375 0.496897
-1.61734 1.83619 2.13663
-1.23351 1.83096 1.66349
-1.5737 1.85019 3.08246
-1.19176 1.84009 2.60658
-1.15064 1.8585 3.55526
-0.846827 -0.156775 -2.18597
-0.849611 -0.0236584 -2.66771
-0.0214131 -0.174031 -2.65937
-0.827216 -0.138453 -1.11279
-0.0136088 -0.139526 -1.71378
-0.793263 -0.131023 0.0905876
-0.011614 -0.137399 -0.514753
-0.745562 -0.0958985 1.29407
-0.0177424 -0.124736 0.68943
-0.703565 -0.0553893 2.36831
-0.0159084 -0.067164 1.88882
-0.688348 -0.0357144 3.31385
-0.676025 0.11213 2.82255
0.0383494 -0.0436658 2.8377
-0.678694 0.128112 3.76624
0.0702302 -0.0278098 3.78212
-0.840791 0.418458 -2.69023
-0.0177129 0.126708 -2.67689
-0.666371 0.275956 3.27494
-0.687699 0.571675 2.75802
0.0657516 0.267888 2.79867
-0.67991 0.593491 3.70568
0.0872218 0.283987 3.74366
-0.82427 1.18515 -2.73634
-0.0102472 0.710204 -2.70408
-0.701238 0.88921 3.18876
-0.751188 1.35729 2.65901
0.0656057 0.875436 2.71105
-0.718751 1.38032 3.60912
0.0896531 0.902955 3.66203
-0.813684 1.68474 -2.29814
0.0160997 1.66009 -2.76932
-0.820471 1.74661 -1.24498
0.0227605 1.70937 -1.82795
-0.835817 1.80433 -0.0831233
0.0126797 1.78384 -0.663071
-0.835236 1.8277 1.07909
-0.00654797 1.8248 0.495467
-0.807933 1.83486 2.13345
-0.00570659 1.83058 1.66091
-0.768701 1.8484 3.07937
0.0212079 1.83911 2.60356
0.0530183 1.85765 3.55209
0.811805 -0.156782 -2.18718
0.810485 -0.0236641 -2.66855
1.22267 -0.174291 -2.65949
0.801993 -0.138472 -1.11574
1.22932 -0.140385 -1.71369
0.763906 -0.131112 0.0840903
1.19891 -0.134809 -0.517892
0.711911 -0.0960016 1.28418
1.13828 -0.123181 0.682446
0.726006 -0.0554405 2.35821
1.07761 -0.0725188 1.87901
0.796927 -0.0357612 3.30597
0.780126 0.112092 2.81381
1.14589 -0.0472255 2.82958
0.836146 0.128066 3.75954
1.20745 -0.0294553 3.77592
0.812831 0.418454 -2.69074
1.22882 0.128016 -2.67728
0.819344 0.275919 3.26738
0.819056 0.571649 2.75169
1.16834 0.264431 2.79092
0.856785 0.593451 3.70001
1.22588 0.282634 3.7379
0.830122 1.18514 -2.73706
1.23119 0.716655 -2.70607
0.856497 0.88918 3.18432
0.838002 1.35726 2.6556
1.2288 0.876001 2.70773
0.861422 1.38028 3.60501
1.25451 0.903162 3.65827
0.852545 1.68473 -2.29914
1.26178 1.66398 -2.77169
0.855912 1.7466 -1.24605
1.27291 1.71277 -1.83045
0.841949 1.80431 -0.0844805
1.27063 1.78407 -0.665067
0.822982 1.82767 1.07728
1.24589 1.82371 0.494319
0.823435 1.83483 2.13102
1.22691 1.83092 1.66011
0.842927 1.84836 3.07628
1.23568 1.84004 2.60225
1.25558 1.85844 3.55009
1.64018 -0.157894 -2.186
1.64101 -0.0226112 -2.66822
1.62624 -0.136722 -1.11584
1.65356 0.0157302 -1.72322
1.57328 -0.126878 0.0804637
1.62208 0.0291783 -0.531533
1.50398 -0.0996982 1.27727
1.55118 0.0381925 0.663039
1.4975 -0.0643038 2.35038
1.47501 0.0785708 1.85563
1.55642 -0.0409197 3.29952
1.53411 0.105113 2.80669
1.59718 0.125113 3.75427
1.65439 0.151013 -2.20544
1.64718 0.426216 -2.6926
1.64941 0.18163 -1.13891
1.6642 0.469401 -1.74815
1.59997 0.194248 0.0510417
1.66467 0.513517 -0.566729
1.52221 0.216462 1.2414
1.61338 0.527194 0.61434
1.51162 0.247988 2.31194
1.53905 0.543201 1.79643
1.57487 0.271145 3.26144
1.57809 0.568783 2.74696
1.6236 0.592345 3.69615
1.65699 0.744604 -2.23532
1.66285 1.19549 -2.74069
1.67947 0.801287 -1.17597
1.67629 1.24114 -1.79762
[...]
POINT_DATA 29498
VECTORS point_vectors float
-2.93589 -3.44515 11.3989
0.0831477 0.146272 0.698996
-0.811166 0.372706 1.8458
0.0879693 -0.277605 0.644422
2.94403 -3.45027 11.413
-0.135769 0.230938 1.29553
0.810745 0.372288 1.845
-0.0872609 -0.279764 0.645821
0.00210745 0.000666854 0.0400464
0.00231998 0.00196135 0.057724
-0.0532408 -0.138658 0.494561
0.00978118 0.0195745 0.0729825
-0.00115695 0.000308511 0.0215189
-0.0028737 0.0027159 0.0765002
0.0536477 -0.139943 0.497873
-0.00969105 0.0194373 0.0724827
-0.734441 -0.361038 20.0165
-1.03507 -0.600753 20.7132
-0.426082 -0.45124 21.3289
0.157726 -0.188494 21.5356
0.737458 0.0880436 21.4242
1.0114 0.219297 21.1717
0.986402 0.150902 20.8208
-0.833493 -0.27216 19.9249
-1.33204 -0.504591 20.6471
-0.599593 -0.487227 21.3598
0.111593 -0.338427 21.6152
0.884456 -0.152926 21.5467
1.22696 -0.0592517 21.2284
1.3409 -0.184596 20.6781
-0.922939 0.0436227 19.8049
-1.64294 0.0622197 20.4882
-1.04662 -0.282182 21.2576
-0.309384 -0.430149 21.6167
0.452973 -0.547915 21.5523
0.85649 -0.664627 21.2567
1.01136 -0.727705 20.854
-0.564235 0.337711 19.9725
-0.859806 0.509697 20.3448
-0.883775 0.360801 20.9577
-0.509682 0.0240441 21.3822
-0.0929112 -0.300527 21.3427
0.104466 -0.443337 21.13
0.179823 -0.421057 21.1218
-0.939866 -1.02504 19.3015
-1.58293 -2.65305 21.4686
-0.104024 -0.430632 21.6059
0.35552 0.330352 20.6483
0.829759 1.29141 19.5059
1.19499 1.61126 19.5959
1.12832 1.51666 19.8778
-1.23747 -0.850849 18.7261
1.77202 1.49541 11.1412
2.0151 1.28833 13.5428
-1.36243 0.324885 18.4184
0.323583 -0.859445 4.26947
0.993987 -0.722447 7.37475
-0.544814 0.734987 19.555
-1.01004 1.48996 20.0593
-1.29904 1.46275 20.8459
-0.898699 0.599271 21.9341
-0.34382 -0.253657 21.5979
-0.175878 -0.526912 21.4633
0.0342971 -0.737323 20.1721
0.912967 -1.07485 19.2397
1.53172 -2.7271 21.5154
0.10964 -0.410683 21.5678
-0.32097 0.336213 20.3381
-0.771052 1.29624 19.3416
-1.33444 1.48676 19.738
-1.23675 1.20387 20.3487
1.22626 -0.887454 18.6505
-2.08363 1.26491 13.3867
-1.98417 0.79258 15.8858
1.35964 0.340452 18.3601
-0.848248 -0.905172 9.47683
-1.42229 -0.852992 13.5906
0.554464 0.718005 19.5784
1.02409 1.40783 20.0791
1.31112 1.41137 20.8533
0.901048 0.62017 21.9449
0.347583 -0.245681 21.6031
0.156866 -0.534557 21.4275
-0.0807391 -0.761065 20.366
0.755071 -0.383131 19.9917
1.05597 -0.624344 20.7092
0.429008 -0.454921 21.3271
-0.1566 -0.185162 21.5299
-0.730368 0.0851013 21.4379
-0.953729 0.182003 21.1491
-0.856862 0.0631554 20.9315
0.855626 -0.284399 19.8993
1.34736 -0.510596 20.6456
0.60418 -0.488021 21.3566
-0.101085 -0.343291 21.6115
-0.86183 -0.163934 21.5553
-1.08006 -0.0854488 21.2322
-1.01145 -0.279188 20.9484
0.929037 0.045844 19.7932
1.63616 0.0616344 20.4867
1.04258 -0.279052 21.2543
0.312158 -0.429907 21.6146
-0.44059 -0.541418 21.5442
-0.739779 -0.586431 21.2472
-0.948624 -0.707945 20.7003
0.560231 0.3305 19.9806
0.840096 0.477121 20.3546
0.865664 0.34649 20.9565
0.514371 0.0263244 21.3852
0.0939488 -0.298904 21.3448
-0.110343 -0.427307 21.129
-0.207783 -0.425563 21.0365
-1.44967 -0.267136 2.64159
4.71619e-05 -0.00558159 0.0795836
0.0433522 -0.00587277 0.481872
0.0295944 -0.0273476 0.0565938
3.5156e-20 7.97559e-19 1.55577e-18
0.0186942 0.00556563 0.163595
0.000671056 0.250528 0.709817
-0.110662 -0.0677887 0.519906
-0.00024641 0.00893329 -0.0154915
0.134608 0.167244 1.0698
1.44407 -0.264976 2.63199
-0.0574145 -0.0288408 1.85067
-0.0503941 -0.0497889 0.0971312
-0.0206458 0.00362449 0.228964
0.109628 -0.067103 0.515932
-0.135098 0.168202 1.07106
0.000573107 0.000497279 0.0141471
-0.00849213 -0.0122444 0.120065
-1.48157e-05 9.72454e-06 0.00168103
6.86093e-05 0.000727972 0.0136588
-5.36936e-05 0.000585557 0.0186306
0.0208594 0.107022 0.445259
0 0 0
-1.55824e-05 -0.000384407 0.0731487
-0.000816146 0.000560855 0.0183589
0.00739313 -0.0110928 0.106339
-6.37258e-05 0.000673801 0.0128349
-0.0208237 0.106943 0.445211
-0.000311219 -0.00150302 0.0364109
-0.00040937 0.00139644 0.0355035
7.7623e-19 6.25001e-19 3.06077e-17
0 0 0
0 0 0
0 0 0
-5.61012e-05 0.0336212 0.0500898
5.58311e-05 -0.00116365 0.000111322
-3.20415e-05 0.0103899 0.0960163
-3.93401e-06 0.0107695 0.0532802
-4.2781e-05 0.0028591 -0.0074507
0.000319018 -0.00139172 0.0349855
0.000414725 0.00141626 0.0361593
0 0 0
-2.43227 -1.24755 20.8803
-2.36677 -3.88333 22.0557
-3.07555 -2.45531 18.1305
1.51396 0.262444 17.7329
0.895651 1.31387 13.7082
1.19487 1.06273 7.59172
-3.20357 0.420949 20.5184
-3.60718 1.42641 17.075
-2.30157 2.55638 19.9314
0.79185 -0.92024 20.3458
-0.362489 -1.06398 3.55985
-0.071256 -0.58038 16.7472
2.33583 -4.02783 22.1798
3.11305 -2.58476 18.024
2.45035 -1.26203 20.8812
-0.869454 1.28143 13.5208
-1.44008 1.09334 9.19342
-1.47534 0.221521 18.0418
3.62781 1.49018 16.9977
2.30597 2.4468 19.9512
3.19343 0.418348 20.5172
-0.0884791 -1.07571 5.93973
0.0581306 -0.557852 16.5123
-0.778175 -0.920304 20.4293
-0.592637 -0.914946 21.7879
0.308828 -0.1228 16.4907
0.373119 -0.401299 20.1927
0.4757 0.375275 14.7186
-1.6475 -0.673598 21.526
-2.85941 1.64434 20.742
-0.331582 -0.845621 21.6816
-1.42023 -0.110886 20.6376
-0.301453 -0.101134 16.3467
0.599537 -0.914929 21.7903
-0.461861 0.377262 14.5196
-0.361345 -0.412705 20.3393
2.84542 1.57734 20.7688
1.64384 -0.671467 21.5235
1.42315 -0.102281 20.4996
0.335479 -0.847144 21.6827
-1.00803 -0.530396 20.2577
-0.795445 -0.320214 19.9632
-0.911713 -0.605296 19.7251
-0.753745 -0.549722 21.1279
-1.17335 -0.557337 20.681
-1.44582 -1.22746 20.8899
-0.140836 -0.334208 21.4786
-0.512374 -0.477692 21.3464
-0.294569 -0.610908 21.585
0.447375 -0.0347525 21.5692
0.128768 -0.265431 21.5439
0.368755 -0.113552 21.7658
0.887226 0.170337 21.2862
0.820912 -0.0264586 21.4763
1.10656 0.556178 21.1677
1.00144 0.174233 21.0876
1.14791 0.0667337 21.1704
1.43116 0.789776 20.7678
1.23381 0.0188536 20.674
1.33941 0.712702 20.9697
-1.17789 -0.421524 20.1558
-0.930234 -0.0997132 19.8337
-1.11759 -0.490187 19.4774
-0.978589 -0.512675 21.1373
-1.54023 -0.248968 20.5915
-0.266266 -0.440581 21.5178
-0.833462 -0.459501 21.3452
0.492726 -0.237682 21.665
-0.0920968 -0.437733 21.6397
1.10862 -0.0788218 21.3672
0.715265 -0.414649 21.5806
1.21456 -0.0213982 21.0277
1.14009 -0.443173 21.237
1.99456 0.449049 18.9145
1.12689 -0.521088 21.2046
1.86435 0.195862 19.469
-1.36567 0.0843442 20.0108
-0.761963 0.270987 19.8565
-1.21186 0.144627 19.3062
-1.34093 -0.12405 21.0099
-1.26534 0.438873 20.3727
-0.728671 -0.386626 21.5071
-1.11452 0.119338 21.1038
0.105966 -0.472015 21.6404
-0.524184 -0.200125 21.5399
0.653788 -0.593004 21.4337
0.0872044 -0.492279 21.4481
0.964755 -0.625672 21.2399
0.341919 -0.651148 21.2187
1.32603 -1.07825 19.0942
0.511215 -0.65172 21.1971
1.23977 -1.05408 19.0255
-0.723034 0.449477 20.1092
-0.619681 0.526839 19.7747
-0.915979 0.468654 20.6667
-1.04927 0.91641 20.2228
-0.758205 0.215704 21.2229
-1.17769 0.759459 20.9585
-0.265597 -0.153451 21.4176
-0.739997 0.213012 21.6148
0.0195632 -0.371756 21.27
-0.189427 -0.323375 21.4676
0.249942 -0.540782 21.1341
0.0331992 -0.545019 21.256
0.237361 -0.682095 20.8735
-1.64245 -2.16306 19.5916
-1.11349 -0.989763 18.9996
-0.0349566 -1.69529 18.6374
-0.563315 -1.05192 21.9658
-0.0146237 -3.18581 22.1697
0.162592 -0.06439 20.8973
-0.00303945 -0.450721 21.1951
0.556452 0.775586 19.797
0.00310798 0.220562 19.3948
1.00245 1.53132 19.5474
0.01114 1.15735 17.9361
1.30103 1.54205 18.8149
1.46664 1.80099 16.0277
-0.0406969 1.71641 18.3797
1.55185 1.41431 17.0017
-0.135824 2.06039 18.9406
-1.44417 -0.307431 18.3535
-0.039129 -1.50818 17.4693
1.95627 1.75625 13.2791
1.35506 -0.00883125 4.81998
-0.100488 1.14117 7.17251
2.35529 0.745325 10.6425
-0.321313 1.80649 9.97738
-0.914429 0.795711 19.0426
-0.0297893 0.69531 16.8841
1.19172 -1.0063 5.87282
0.00148143 -0.946733 16.0598
-0.0795572 1.14776 -3.24441
0.347644 -1.16489 16.9098
-0.723293 2.49826 -2.30162
-0.805754 1.17792 19.6634
0.0116754 1.02735 19.2802
-1.13946 1.46695 20.5245
0.0374444 2.2337 19.8745
-1.37508 1.34169 21.5342
0.0319935 2.58055 20.5652
-0.500548 0.0201022 21.777
-0.012019 1.43375 22.4147
-0.262935 -0.38179 21.4573
-0.00617245 0.224264 21.945
-0.0433128 -0.691677 21.4107
0.0157346 -0.129115 21.594
0.0390388 -0.438176 19.403
1.61617 -2.29472 19.542
1.10837 -1.05281 18.9355
0.936216 -0.656296 19.6569
0.554876 -1.06641 22.0296
1.47768 -1.29921 20.9071
-0.140285 -0.051087 20.9387
0.290695 -0.622463 21.5972
-0.517535 0.777196 19.6917
-0.380695 -0.0976491 21.748
-1.03666 1.49819 19.6395
-1.09768 0.591556 21.1212
-1.43783 1.28927 18.9077
-1.7308 1.47216 16.8301
-1.35245 0.636773 20.8874
-1.67113 1.07372 17.5401
-1.36643 0.479685 20.6247
1.43748 -0.32211 18.274
1.13336 -0.513953 19.4331
-2.20722 1.34171 15.7593
-1.74984 -0.201795 9.02868
-1.72737 0.184732 20.1256
-2.20679 0.16384 14.1052
-1.91327 0.103855 19.8611
0.916589 0.788316 19.0523
1.2261 0.14503 19.2753
-1.62837 -1.05089 11.5919
-0.0794746 -1.00459 17.773
-1.19283 -1.02583 20.5333
-0.403757 -1.27206 17.983
-1.11974 -0.91164 20.3346
0.814821 1.1219 19.6992
0.619258 0.503344 19.7957
1.1472 1.41651 20.5339
1.03069 0.860342 20.2397
1.3757 1.32681 21.5301
1.15688 0.729754 20.9595
0.503393 0.0297198 21.7835
0.742318 0.221898 21.6204
0.255608 -0.386295 21.453
0.191254 -0.321774 21.4715
0.00663194 -0.691933 21.3009
-0.0479554 -0.533958 21.2595
-0.264473 -0.552791 20.61
1.02534 -0.553007 20.2496
0.817509 -0.336692 19.9383
0.759247 -0.558456 21.1387
1.19504 -0.575391 20.679
0.14158 -0.335282 21.4863
0.518949 -0.483098 21.3419
-0.446497 -0.0415032 21.5674
-0.122414 -0.274682 21.5431
-0.863405 0.150712 21.2881
-0.809991 -0.0356271 21.4868
-0.941564 0.123151 21.148
-1.02659 0.0556828 21.1797
-0.932048 -0.0766791 20.9264
1.20858 -0.433991 20.1383
0.947148 -0.104014 19.812
0.98436 -0.517462 21.1374
1.54666 -0.2503 20.5881
0.271444 -0.442756 21.5166
0.835782 -0.458495 21.3407
-0.480039 -0.242286 21.6579
0.0996302 -0.440005 21.6357
-1.01218 -0.104433 21.3686
-0.692608 -0.409094 21.5849
-1.07058 -0.0161955 20.8774
-0.991986 -0.369027 21.2547
-1.05781 -0.539225 21.029
1.37355 0.0865105 20.0048
0.758033 0.267851 19.8598
1.33614 -0.122574 21.0077
1.23984 0.421202 20.3767
0.727717 -0.384434 21.5056
1.09493 0.121401 21.0997
-0.101279 -0.468357 21.6355
0.529531 -0.200832 21.5399
-0.61124 -0.570049 21.4067
-0.083304 -0.487861 21.4473
-0.785829 -0.532783 21.0341
-0.334862 -0.55977 21.1945
-0.428815 -0.54028 21.1993
0.711747 0.427634 20.1236
0.897789 0.448801 20.6656
0.752831 0.213486 21.218
0.268785 -0.152385 21.4182
-0.0228038 -0.36714 21.271
-0.242237 -0.508989 21.0993
-1.09714 -0.480818 20.2066
-2.26307 -2.50275 18.9972
-1.36745 -1.0611 20.0365
-1.98986 -0.949517 19.6741
-1.03349 -0.566158 19.6089
-1.93023 -1.31281 20.8934
-0.863305 -0.537328 21.1305
-0.32681 -0.591907 18.7966
-0.780067 -0.878804 21.4813
-1.25966 -1.03706 21.6742
-0.391171 -0.765573 21.6728
-0.20279 -0.395001 21.4926
0.40344 0.10794 15.0402
0.0424533 -0.387085 21.6896
-0.0935102 -0.694294 20.9594
0.437437 -0.24674 21.3898
0.461638 -0.13876 21.6122
0.549616 0.768194 13.3961
0.739377 0.212469 21.5435
0.934121 -0.101744 18.4771
1.38391 0.486058 20.1343
1.02855 0.0457831 21.3202
1.17736 1.56717 14.7693
1.29813 0.70828 21.0324
1.82199 0.312504 18.3539
1.70595 0.65544 20.0851
1.11903 0.066999 21.1726
1.67166 1.73414 16.9793
1.48989 0.797524 20.809
1.82319 0.580229 18.6367
1.62545 0.518198 20.3845
-1.34183 -0.167774 20.0656
-4.26996 -0.779575 16.6496
-2.29596 0.343842 19.3501
-1.25564 -0.197719 19.3068
-3.23993 -0.583901 20.7712
-1.18596 -0.362402 21.1104
-2.10871 -0.214351 21.3787
-1.03323 -0.880098 21.725
-0.476145 -0.48684 21.5366
-1.10453 -0.87093 21.9113
0.123996 -0.627878 20.7361
0.321178 -0.408051 21.6724
0.257902 -0.821249 21.0357
1.30896 -0.439682 18.7209
0.966481 -0.423416 21.3861
0.455353 -0.804758 2.5461
1.00339 -1.04227 19.8262
1.90247 -0.445089 18.454
1.24653 -0.454391 21.133
2.21058 0.217962 7.92064
1.36897 -0.897441 18.5642
1.95654 -0.258518 18.5215
-1.06626 0.39211 20.0306
-1.66377 1.69782 18.9712
-0.864321 0.760369 19.9072
-0.932716 0.473767 19.5072
-1.89367 1.04992 20.2072
-1.24669 0.300793 20.8024
-2.27866 1.82019 20.7598
-1.14158 0.874171 20.6249
-1.83369 0.399542 21.1375
-0.897433 -0.045576 21.3948
-3.51255 1.19269 22.1219
-1.07681 0.562157 21.3708
-0.889031 -0.237765 21.9243
-0.16332 -0.356217 21.54
-0.260853 -0.449645 18.5717
-0.400741 -0.107282 21.5759
-0.0525759 -0.710907 21.6322
0.232998 -0.5879 21.3478
-0.143624 -0.682976 15.9321
-0.0731786 -0.438403 21.3615
0.224151 -0.991027 21.295
0.451714 -0.68006 21.0801
0.244748 -1.30376 16.8985
0.122371 -0.625567 20.9183
0.449137 -1.12534 20.963
2.27357 -2.64827 18.923
-0.0427651 -3.98981 19.3606
-0.0413964 -7.50762 15.3628
-0.0290619 -1.78238 18.0716
0.000357612 -3.32386 22.2141
0.341031 -0.612887 18.8273
-0.00725156 -1.21618 22.3667
-0.000192724 -0.0816565 13.2992
-0.393465 0.113777 14.792
-0.000363085 -0.108177 20.0302
0.00407543 0.240458 11.9073
-0.527765 0.756941 13.2263
0.00729522 0.640312 18.4263
0.00040545 0.98473 10.0852
-1.31467 1.52607 15.3702
-0.0110539 1.44373 18.2069
-0.0081918 0.411639 3.99272
-0.0687086 1.61346 13.4619
-1.84822 1.42413 17.151
-0.0829048 1.88441 18.7548
-0.122158 2.20173 9.79813
-0.292327 2.02664 14.9919
4.34866 -0.826836 16.4582
-0.0462717 4.36678 12.7565
-0.0402749 -0.542123 16.6452
-0.807608 -0.799904 4.42036
0.075972 0.23211 -2.29743
-0.154473 0.542037 -0.404497
-2.32771 -0.256984 12.2011
-0.556806 1.78496 -3.67074
-0.714203 1.80636 4.11984
1.66519 1.66716 19.01
0.0243348 1.73027 19.3758
0.00325102 1.28248 18.3585
0.0373774 4.37546 19.6628
2.2826 1.75491 20.7684
0.0383839 2.25847 20.3554
0.0288963 3.85913 19.0251
3.49364 1.18707 22.1215
0.00672023 2.83936 21.6747
-0.00443662 0.61 12.8251
0.243807 -0.43714 18.3841
-0.00723439 0.462323 22.0297
-0.0167597 0.289246 2.33533
0.136993 -0.723168 16.8425
0.00510704 0.0971398 21.7043
0.184829 0.186901 1.52912
-0.357478 -1.25494 17.5893
0.0264541 -0.382729 20.8213
0.319638 0.0946053 6.33947
1.12432 -0.505204 20.1951
1.40811 -1.12743 20.0015
2.03672 -0.991198 19.6372
1.04772 -0.614674 19.5573
1.96667 -1.36524 20.9057
0.872219 -0.548485 21.1295
0.786659 -0.910164 21.5029
1.26286 -1.03407 21.6672
0.387358 -0.775263 21.6799
0.206718 -0.401298 21.4985
-0.0474102 -0.390866 21.7012
0.106558 -0.702105 21.082
-0.44178 -0.24168 21.286
-0.453402 -0.148789 21.6092
-0.746558 0.250226 21.4274
-0.92285 -0.120407 18.7218
-1.37192 0.483522 20.0611
-0.952483 0.0280223 21.3203
-1.26618 0.655411 21.0978
-1.68964 0.21936 19.1706
-1.59357 0.450727 20.6932
-0.998776 0.072475 21.0264
-1.34156 0.508342 20.8402
-1.61581 0.113116 20.3054
-1.68894 0.379677 20.3859
1.36219 -0.172189 20.0508
2.32391 0.353063 19.3216
1.28111 -0.203499 19.2626
3.25021 -0.583443 20.7691
1.19038 -0.364292 21.1079
2.10561 -0.212697 21.3751
1.03689 -0.876242 21.729
0.47962 -0.489362 21.5334
1.1063 -0.866335 21.9191
-0.118387 -0.635422 20.789
-0.312986 -0.407282 21.668
-0.250396 -0.824305 21.0796
-1.29199 -0.454348 19.0009
-0.89764 -0.384698 21.3819
-0.931094 -1.03143 20.5441
-1.66917 -0.542917 20.2486
-1.07297 -0.356857 20.9352
-1.24752 -0.923773 20.8268
-1.59622 -0.347662 20.0546
1.05401 0.383565 20.0375
0.856316 0.713573 19.9324
0.927726 0.466914 19.5182
1.85498 0.993486 20.2205
1.22507 0.294469 20.7992
1.12394 0.829587 20.6306
1.80889 0.383461 21.1393
0.89308 -0.0436261 21.3898
1.06948 0.554842 21.3663
0.896716 -0.235358 21.9297
0.166262 -0.354768 21.5392
0.403239 -0.10369 21.5786
0.0550112 -0.70848 21.6333
-0.232209 -0.567155 21.3291
0.0660932 -0.436079 21.3562
-0.2733 -0.938966 21.4626
-0.403613 -0.635973 20.9796
-0.110342 -0.568651 20.9809
-0.39606 -0.885967 21.3296
-1.68935 -1.01641 19.9025
-0.991101 -0.989609 21.5696
0.0197851 -0.560836 21.6904
0.914922 0.108453 20.7118
1.61472 0.607172 20.1249
1.61532 0.718199 20.1373
-2.45297 -0.39691 19.3561
-1.77739 -0.729401 21.6833
-0.443399 -0.840787 21.3831
0.675738 -0.524782 19.9039
1.61101 -0.482163 18.2878
2.06223 -0.355136 18.572
-1.47177 0.826939 19.6452
-1.83183 0.707204 20.8408
-1.63362 0.101946 21.7002
-0.341475 -0.49519 21.8235
0.0697659 -0.864232 21.5053
0.3752 -1.02488 21.3136
-0.0424412 -5.45985 18.312
-0.00714644 -0.59334 16.0043
0.0021338 0.0657684 12.0808
0.00336221 0.535624 10.6249
-0.0248589 1.1597 11.7938
-0.106682 2.20704 14.9541
-0.0659091 -1.30706 9.8603
0.0235209 -0.63971 -0.183992
-0.536603 1.11234 0.720837
0.0238439 3.12355 18.0026
0.026927 3.34052 20.4598
0.00702655 5.85702 20.6278
-0.00328186 -0.149373 6.91543
0.0429516 0.487536 2.04372
0.0596287 0.386495 3.09364
1.74045 -1.07899 19.8532
0.9915 -1.00881 21.5823
-0.0277867 -0.564065 21.6604
-0.916227 0.118057 20.6099
-1.54513 0.488554 20.6781
-1.42532 0.345718 21.0197
2.50732 -0.408962 19.3167
1.7825 -0.726599 21.6779
0.449488 -0.839164 21.3787
-0.666761 -0.532946 20.0163
-1.54781 -0.537056 19.7167
-1.63999 -0.415724 20.542
1.45404 0.801279 19.6627
1.80388 0.684001 20.8396
1.62534 0.100072 21.6955
0.346119 -0.494012 21.8273
-0.0932267 -0.823658 21.5129
-0.393266 -0.919699 21.3961
-0.845181 -0.240881 1.55064
-0.0241685 -0.0452962 0.42
-0.0918195 -0.039522 2.5072
0.0302782 0.00772612 0.0445922
8.24839e-05 0.000680344 0.00254529
0.0165727 0.0027288 0.176761
-0.925713 -0.142379 1.48394
-0.011971 0.103493 0.274485
-0.124188 -0.0357102 0.470161
0.0374461 -0.0687869 0.133476
-0.0746386 -0.0231347 -0.0153082
0.0725226 -0.00135101 1.16508
0.024212 -0.0447152 0.418952
0.842471 -0.239566 1.54353
0.113604 -0.0855475 3.12869
-0.000400438 0.00299257 0.0112279
-0.0597759 0.000354851 0.136023
-0.0274848 0.00362496 0.289289
0.0117214 0.100703 0.269889
0.928309 -0.142622 1.49137
0.124436 -0.036191 0.469853
0.0746115 -0.0225007 -0.0162087
-0.0386955 -0.0726631 0.141755
-0.0728603 -0.00025227 1.16756
0.025678 -0.0207387 0.514129
0.00331012 8.48443e-05 0.0753889
-0.00225794 -0.0149916 0.153111
0 0 0
0 0 0
0.000509218 0.000121446 0.0123754
-0.000112125 -5.19098e-05 0.0545726
0 0 0
-0.287912 -0.25174 0.918718
-0.00311408 -0.0039181 0.095434
-0.00869209 0.0153215 0.78347
0 0 0
0.0345034 0.044512 0.236619
8.52905e-05 0.000710098 0.00680643
0.013232 0.0757415 0.254868
0.0268071 -0.00626315 0.291125
-0.0257833 -0.0190354 0.523524
0 0 0
-0.00541656 0.000199637 0.12448
0.00214092 -0.0143587 0.145481
0 0 0
0 0 0
-0.000293028 6.58528e-05 0.00706589
-0.000130701 0.000573177 0.0826219
0.288191 -0.251913 0.91945
0 0 0
0.00258932 -0.00355206 0.0857708
0.00844398 0.014811 0.781757
-0.0349354 0.0453914 0.23989
-0.0270581 -0.00626965 0.292361
-8.34288e-05 0.000690469 0.00664382
-0.0131942 0.0753712 0.254119
0 0 0
-0.0287371 0.0018946 0.016953
0 0 0
0.000220055 -0.361683 0.106541
0 0 0
-2.11625e-06 -5.20817e-06 0.000855014
0.00114939 0.000282604 0.0195569
-0.00251319 -0.00526876 -0.000181044
0 0 0
0.000257981 -0.0222761 0.00616097
0.00146574 0.002711 0.0665799
0 0 0
-0.00014037 0.0421422 0.0250961
4.70674e-06 0.0269749 0.161587
-0.000502301 -0.00196464 0.0156405
-0.0107728 0.00308664 0.0405548
-0.000312272 -0.0157727 0.00270507
-2.88745e-05 0.00165601 -0.00424684
0.000656061 0.00179596 0.0365398
0.00130979 -0.00908631 0.0441875
0.0281811 0.0018235 0.0166125
0.000863988 -0.00178426 0.0191102
1.35726e-06 -3.09118e-06 0.000513981
0.00103622 -0.00250004 0.0654957
0.00201914 -0.00428306 -0.000137326
-0.000525646 0.000152311 0.00920906
0 0 0
-0.0011493 0.00299937 0.0683897
0.0108673 0.00310304 0.0408261
0.00055609 -0.00212167 0.0171131
-0.00145984 -0.00903899 0.0441657
-0.000588754 0.00162304 0.03278
-0.000513114 -0.0013755 0.0951794
0 0 0
-6.12937e-18 1.31329e-17 -6.11858e-17
-0.000738606 -0.000563355 0.035324
1.2097e-05 -6.13147e-05 0.014738
-2.29904e-06 1.99094e-07 0.000393774
0.000112068 0.00279545 0.0413315
0.000672673 -0.000839429 0.016634
-8.9102e-05 0.000245707 0.0274157
0 0 0
-2.82915e-05 0.0023009 0.0222177
-0.205623 0.236229 0.974513
0 0 0
-5.99269e-08 0.0326816 0.0648834
-2.6206e-05 0.0180598 0.246144
-7.20062e-06 -0.00146507 0.0143819
0 0 0
0.000643362 -0.00168148 0.122947
0 0 0
0.000940997 -0.000747203 0.0450919
-0.000123032 0.00297685 0.0442264
-0.000175522 -0.000214845 0.00407597
0.205413 0.236529 0.974433
2.79408e-05 0.00234604 0.0226929