# vtk DataFile Version 2.0
tet_velo
ASCII
DATASET UNSTRUCTURED_GRID
POINTS 29498 float
-0.845 0.215 -1.94435
-0.850674 0.255 1.915
-0.850806 0.715 -1.885
-0.725 0.993791 1.965
0.845 0.215 -1.94435
0.850674 0.255 1.915
0.850806 0.715 -1.885
0.725 0.993791 1.965
-0.854091 0.221134 -0.6579
-0.885631 0.204818 0.62855
-0.858446 0.857505 -0.601667
-0.80181 0.935735 0.681667
0.854086 0.221139 -0.6579
0.885209 0.20524 0.62855
0.858444 0.857503 -0.601667
0.801807 0.935732 0.681667
-1.68826 -0.149713 -3.00017
-1.69196 -0.098499 -1.97225
-1.69511 -0.0986301 -0.685724
-1.69991 -0.126579 0.601434
-1.6789 -0.101167 1.88802
-1.67447 -0.0591019 2.91619
-1.68126 -0.0134205 3.94388
-1.69132 0.141923 -2.97161
-1.6957 0.208077 -1.94404
-1.69713 0.231259 -0.658116
-1.69293 0.221913 0.628088
-1.65371 0.258534 1.91407
-1.66012 0.30081 2.9422
-1.67543 0.344243 3.96999
-1.69471 0.696671 -2.91363
-1.70013 0.759319 -1.88593
-1.69323 0.869344 -0.602128
-1.63278 0.935409 0.681451
-1.56717 0.989112 1.96531
-1.61455 1.02753 2.99356
-1.65809 1.06412 4.02186
-1.6921 1.6254 -2.829
-1.69324 1.70191 -1.80176
-1.68626 1.83042 -0.518973
-1.66125 1.95018 0.763144
-1.63944 2.03529 2.04597
-1.64604 2.08293 3.07327
-1.66665 2.12131 4.10122
-0.841338 -0.145454 -3.00037
-0.843432 -0.0911044 -1.97255
-0.846892 -0.101947 -0.685685
-0.864492 -0.139697 0.601828
-0.854767 -0.107914 1.88871
-0.856646 -0.0633554 2.91665
-0.864083 -0.0163398 3.94415
-0.84364 0.1404 -2.97167
-0.856784 0.298694 2.94258
-0.865477 0.342623 3.9702
-0.846535 0.677408 -2.91324
-0.821376 1.02965 2.9935
-0.856919 1.0652 4.02185
-0.847458 1.61057 -2.82861
-0.850086 1.68708 -1.80134
-0.852133 1.82429 -0.51872
-0.842947 1.95233 0.763114
-0.833162 2.04009 2.04575
-0.841609 2.0871 3.07305
-0.859445 2.12431 4.10106
0.853377 -0.14544 -3.00037
0.851676 -0.091094 -1.97255
0.861787 -0.101891 -0.685685
0.874813 -0.139412 0.601828
0.846622 -0.107804 1.88871
0.804892 -0.0632697 2.91665
0.78166 -0.016247 3.94415
0.850998 0.140408 -2.97167
0.781679 0.298751 2.94258
0.76586 0.342704 3.9702
0.851075 0.677414 -2.91324
0.738409 1.02969 2.9935
0.745359 1.06527 4.02185
0.844216 1.61059 -2.82861
0.840044 1.6871 -1.80134
0.822539 1.82432 -0.51872
0.792813 1.95237 0.763114
0.767675 2.04014 2.04575
0.757257 2.08716 3.07305
0.750917 2.12438 4.10106
1.70205 -0.149676 -3.00017
1.70169 -0.0984623 -1.97225
1.70963 -0.0985017 -0.685724
1.7166 -0.126178 0.601434
1.68256 -0.100891 1.88802
1.639 -0.0588977 2.91619
1.61147 -0.0132255 3.94388
1.6997 0.141948 -2.97161
1.69838 0.208094 -1.94404
1.7022 0.231335 -0.658116
1.70464 0.222329 0.628088
1.66149 0.25877 1.91407
1.6137 0.30098 2.9422
1.59257 0.344421 3.96999
1.69906 0.696692 -2.91363
1.70029 0.759329 -1.88593
1.69358 0.86937 -0.602128
1.63862 0.935554 0.68145
1.56926 0.989265 1.96531
1.55854 1.02767 2.99357
1.56273 1.06427 4.02186
1.68868 1.62544 -2.829
1.6831 1.70195 -1.80176
1.66072 1.83048 -0.518973
1.61985 1.95027 0.763144
1.58281 2.03541 2.04597
1.56886 2.08307 3.07327
1.5642 2.12145 4.10122
-0.850546 0.465 -1.91732
0 0.172263 -1.98709
-0.873281 0.194331 -1.30113
-0.840065 0.624395 1.99223
0 0.229878 1.94012
-0.887019 0.211042 1.27178
0 0.803752 -1.97375
-0.890607 0.822233 -1.24333
0 1.01733 1.98854
-0.768331 0.969689 1.32333
0.850546 0.465 -1.91732
0.873277 0.194335 -1.30113
0.840111 0.624395 1.99227
0.892904 0.205158 1.27178
0.890521 0.822147 -1.24333
0.768361 0.969719 1.32333
-0.854007 0.22883 -0.014675
-0.87932 0.539319 -0.629783
-2.65163e-06 0.178664 -0.6579
-0.885824 0.570277 0.655108
-0.000210966 0.184072 0.62855
-0.831651 0.898143 0.04
-8.8245e-07 1.16417 -0.601667
-1.51992e-06 1.3752 0.681667
0.854001 0.228836 -0.014675
0.87932 0.539321 -0.629783
0.885822 0.570486 0.655108
0.831655 0.898147 0.04
-0.895346 0.50216 -1.27223
-0.879854 0.554798 0.0126625
-0.891913 0.597336 1.29755
-1.32581e-06 0.171288 -1.30113
-0.000106809 0.186875 -0.014675
-0.000105483 0.187576 1.27178
0 0.465 -2.23759
0 0.624395 2.198
-4.41225e-07 0.925306 -1.24333
-1.20119e-06 1.36302 0.04
-7.5996e-07 1.24225 1.32333
0.895346 0.502161 -1.27223
0.87986 0.554904 0.0126625
0.891819 0.597441 1.29755
-1.27035 0.211539 -1.9442
-0.844216 0.0619478 -1.95845
-0.84432 0.1777 -2.45801
-1.25219 0.256767 1.91454
-0.85272 0.0735431 1.90185
-0.853729 0.276847 2.42879
-1.27547 0.737159 -1.88546
-0.848671 0.696204 -2.39912
-0.850446 1.20104 -1.84317
-1.14609 0.991452 1.96515
-0.773188 1.01172 2.47925
-0.779081 1.51694 2.00537
0.848338 0.061953 -1.95845
0.847999 0.177704 -2.45801
1.27169 0.211547 -1.9442
0.848648 0.0735981 1.90185
0.816176 0.276875 2.42879
1.25608 0.256885 1.91454
0.85094 0.696207 -2.39912
0.845425 1.20105 -1.84317
1.27555 0.737165 -1.88546
0.731705 1.01174 2.47925
0.746338 1.51697 2.00537
1.14713 0.991528 1.96515
-1.27561 0.226196 -0.658008
-0.850492 0.0595933 -0.671792
-1.28928 0.213365 0.628319
-0.875062 0.0325603 0.615189
-1.27584 0.863425 -0.601898
-0.855289 1.3409 -0.560193
-1.21729 0.935572 0.681559
-0.822378 1.44403 0.72239
0.857936 0.059624 -0.671792
1.27814 0.226237 -0.658008
0.880011 0.0329142 0.615189
1.29493 0.213784 0.628319
0.840491 1.34091 -0.560193
1.27601 0.863436 -0.601898
0.79731 1.44405 0.72239
1.22021 0.935643 0.681559
-1.69011 -0.124106 -2.48621
-1.68979 -0.00389516 -2.98589
-1.2648 -0.147583 -3.00027
-1.69354 -0.0985645 -1.32899
-1.69383 0.0547891 -1.95815
-1.2677 -0.0948017 -1.9724
-1.69751 -0.112604 -0.042145
-1.69612 0.0663145 -0.67192
-1.271 -0.100289 -0.685704
-1.68941 -0.113873 1.24473
-1.69642 0.0476671 0.614761
-1.2822 -0.133138 0.601631
-1.67668 -0.0801343 2.4021
-1.6663 0.0786836 1.90104
-1.26683 -0.10454 1.88836
-1.67787 -0.0362612 3.43003
-1.6673 0.120854 2.92919
-1.26556 -0.0612287 2.91642
-1.67835 0.165411 3.95694
-1.27267 -0.0148802 3.94401
-1.69351 0.175 -2.45783
-1.69302 0.419297 -2.94262
-1.26748 0.141161 -2.97164
-1.69641 0.219668 -1.30108
-1.69791 0.483698 -1.91498
-1.69503 0.226586 -0.0150139
-1.69518 0.550302 -0.630122
-1.67332 0.240223 1.27108
-1.66285 0.578661 0.654769
-1.65692 0.279672 2.42814
-1.61044 0.623823 1.93969
-1.66778 0.322526 3.45609
-1.63733 0.664171 2.96788
-1.25845 0.299752 2.94239
-1.66676 0.704181 3.99593
-1.27046 0.343433 3.97009
-1.69742 0.727995 -2.39978
-1.6934 1.16104 -2.87131
-1.27062 0.68704 -2.91344
-1.69668 0.814331 -1.24403
-1.69669 1.23061 -1.84385
-1.663 0.902376 0.0396611
-1.68974 1.34988 -0.560551
-1.59997 0.96226 1.32338
-1.64701 1.4428 0.722297
-1.59086 1.00832 2.47944
-1.6033 1.5122 2.00564
-1.63632 1.04583 3.50771
-1.63029 1.55523 3.03342
-1.21796 1.02859 2.99353
-1.66237 1.59271 4.06154
-1.25751 1.06466 4.02185
-1.69267 1.66365 -2.31538
-1.26978 1.61799 -2.82881
-1.68975 1.76616 -1.16037
-1.27166 1.6945 -1.80155
-1.67375 1.8903 0.122086
-1.2692 1.82735 -0.518847
-1.65034 1.99273 1.40456
-1.2521 1.95126 0.763129
-1.64274 2.05911 2.55962
-1.2363 2.03769 2.04586
-1.65634 2.10212 3.58724
-1.24382 2.08502 3.07316
-1.26305 2.12281 4.10114
-0.842385 -0.118279 -2.48646
-0.842489 -0.00252677 -2.98602
0.00601968 -0.145447 -3.00037
-0.845162 -0.0965258 -1.32912
0.00412186 -0.0910992 -1.97255
-0.855692 -0.120822 -0.0419284
0.00744723 -0.101919 -0.685685
-0.85963 -0.123806 1.24527
0.00516036 -0.139554 0.601828
-0.855707 -0.0856346 2.40268
-0.00407224 -0.107859 1.88871
-0.860365 -0.0398476 3.4304
-0.856715 0.117669 2.92962
-0.0258772 -0.0633126 2.91665
-0.86478 0.163141 3.95717
-0.0412116 -0.0162934 3.94415
-0.845088 0.408904 -2.94246
0.00367873 0.140404 -2.97167
-0.861131 0.320658 3.45639
-0.83908 0.664172 2.96804
-0.0375529 0.298722 2.94258
-0.861198 0.703913 3.99602
-0.0498085 0.342664 3.9702
-0.846997 1.14399 -2.87093
0.00226989 0.677411 -2.91324
-0.839148 1.04743 3.50768
-0.831493 1.55838 3.03328
-0.0414835 1.02967 2.9935
-0.858182 1.59475 4.06146
-0.0557804 1.06524 4.02185
-0.848772 1.64883 -2.31498
-0.0016211 1.61058 -2.82861
-0.85111 1.75569 -1.16003
-0.00502084 1.68709 -1.80134
-0.84754 1.88831 0.122197
-0.0147971 1.8243 -0.51872
-0.838054 1.99621 1.40443
-0.0250668 1.95235 0.763114
-0.837385 2.0636 2.5594
-0.0327433 2.04012 2.04575
-0.850527 2.1057 3.58706
-0.042176 2.08713 3.07305
-0.0542638 2.12434 4.10106
0.852527 -0.118267 -2.48646
0.852188 -0.00251576 -2.98602
1.27771 -0.147558 -3.00027
0.856731 -0.0964925 -1.32912
1.27669 -0.0947781 -1.9724
0.8683 -0.120651 -0.0419284
1.28571 -0.100196 -0.685704
0.860718 -0.123608 1.24527
1.29571 -0.132795 0.601631
0.825757 -0.0855367 2.40268
1.26459 -0.104347 1.88836
0.793276 -0.0397584 3.4304
0.793285 0.117741 2.92962
1.22195 -0.0610837 2.91642
0.77376 0.163229 3.95717
1.19657 -0.0147362 3.94401
0.851036 0.408911 -2.94246
1.27535 0.141178 -2.97164
0.773769 0.320728 3.45639
0.760044 0.664222 2.96804
1.19769 0.299865 2.94239
0.755609 0.703989 3.99602
1.17921 0.343562 3.97009
0.847646 1.144 -2.87093
1.27507 0.687053 -2.91344
0.741884 1.04748 3.50768
0.747833 1.55843 3.03328
1.14847 1.02868 2.99353
0.748138 1.59482 4.06146
1.15404 1.06477 4.02185
0.84213 1.64885 -2.31498
1.26645 1.61802 -2.8288
0.831292 1.75571 -1.16003
1.26157 1.69453 -1.80155
0.807676 1.88834 0.122197
1.24163 1.8274 -0.518847
0.780244 1.99626 1.40443
1.20633 1.95132 0.763129
0.762466 2.06365 2.5594
1.17524 2.03777 2.04586
0.754087 2.10577 3.58706
1.16306 2.08512 3.07316
1.15756 2.12291 4.10114
1.70187 -0.124069 -2.48621
1.70087 -0.00386416 -2.98589
1.70566 -0.098482 -1.32899
1.70004 0.0548158 -1.95815
1.71311 -0.11234 -0.0421451
1.70591 0.0664166 -0.67192
1.69958 -0.113534 1.24473
1.71062 0.0480756 0.614761
1.66078 -0.0798942 2.4021
1.67202 0.0789398 1.90104
1.62524 -0.0360616 3.43003
1.62635 0.121041 2.92919
1.60202 0.165598 3.95694
1.69904 0.175021 -2.45783
1.69938 0.41932 -2.94262
1.70029 0.219714 -1.30108
1.69934 0.483712 -1.91498
1.70342 0.226832 -0.015014
1.69789 0.550352 -0.630122
1.68307 0.240549 1.27108
1.67163 0.578942 0.654769
1.63759 0.279875 2.42814
1.61537 0.624018 1.93969
1.60313 0.3227 3.4561
1.58612 0.664323 2.96788
1.57765 0.704347 3.99593
1.69967 0.72801 -2.39978
1.69387 1.16107 -2.87131
1.69693 0.814349 -1.24403
1.69169 1.23064 -1.84385
1.6661 0.902462 0.039661
[...]
POINT_DATA 29498
VECTORS point_vectors float
-7.39246 -6.15534 14.5636
0.193387 0.204115 2.25002
-5.90694 3.03538 8.84467
0.0719697 -0.0726948 0.542334
7.39514 -6.15353 14.5617
-0.192949 0.203703 2.24066
5.89945 3.04849 8.85045
-0.0728023 -0.0699316 0.539336
0.00122558 0.022491 0.239823
-0.193749 -0.123276 3.2435
0.000222856 0.000592056 0.00659895
0 0 0
-0.00114998 0.0222833 0.238241
0.187062 -0.12034 3.14731
-0.000226015 0.000607107 0.00662824
2.38929e-17 -5.63133e-17 -1.34986e-16
-0.641434 -0.282726 19.9482
-1.17432 -0.600732 20.5836
-0.428918 -0.391274 21.3549
-0.0014743 -0.132838 21.5077
0.427704 0.138394 21.4686
0.691621 0.25779 21.2143
0.689818 0.294155 20.7317
-0.75284 -0.201561 19.8858
-1.45396 -0.478852 20.5709
-0.557619 -0.412505 21.4222
-0.0154698 -0.175576 21.5475
0.570966 0.0389512 21.5245
0.777244 0.109269 21.1447
0.899492 0.104327 20.9186
-0.838927 0.0372474 19.813
-1.67436 0.0473494 20.4956
-1.01853 -0.304875 21.4325
-0.1968 -0.318594 21.7175
0.565098 -0.355136 21.5779
0.900144 -0.365292 21.2909
0.688192 -0.463862 20.8255
-0.631137 0.367694 19.9918
-0.973833 0.528156 20.478
-0.869497 0.330153 21.1997
-0.306993 -0.0251044 21.5412
0.12048 -0.297195 21.4553
0.330443 -0.395 21.2531
0.381915 -0.472407 20.63
-0.764614 -0.740651 19.2505
-2.29848 -3.5851 20.9362
-0.218943 -0.205935 20.8996
0.0283019 0.0654267 20.6444
0.344176 0.864011 20.0874
0.556132 1.23516 19.4108
0.691652 1.17652 20.0146
-1.008 -0.590118 18.7904
1.01515 1.48313 12.2542
1.53489 1.16826 15.412
-1.20698 0.238164 18.4892
1.67535 0.0602151 12.059
1.85456 -0.758022 15.8987
-0.648816 0.850077 19.4906
-1.2278 1.64774 20.1528
-1.52209 1.66161 21.3101
-0.493833 0.239415 22.0408
0.0473311 -0.451072 21.5279
0.236198 -0.669925 21.1935
0.090867 -0.481982 21.3198
0.765722 -0.735503 19.2627
2.29817 -3.52024 20.9273
0.223821 -0.211975 21.0391
-0.0314374 0.0690626 20.7699
-0.328865 0.861312 20.0266
-0.485922 1.2782 19.1495
-0.475031 1.35724 19.4132
1.01354 -0.588758 18.7938
-0.644959 1.56588 9.8132
-1.66775 1.29755 12.426
1.21009 0.238033 18.4988
-1.54131 0.179504 9.0767
-1.98329 -0.740856 13.0358
0.64746 0.85138 19.4881
1.22299 1.66865 20.1456
1.52932 1.74628 21.306
0.487274 0.268021 22.0814
-0.0395739 -0.450015 21.5163
-0.219497 -0.711182 21.2748
-0.0617658 -0.507008 21.4954
0.643444 -0.280325 19.9592
1.1604 -0.598649 20.5869
0.425476 -0.388287 21.3465
0.00259028 -0.134746 21.5023
-0.421645 0.12609 21.4565
-0.716058 0.273657 21.2094
-0.755746 0.287996 20.6645
0.755828 -0.205384 19.8962
1.44504 -0.478496 20.5741
0.558749 -0.411644 21.4238
0.0192941 -0.174471 21.5499
-0.564912 0.0406762 21.5339
-0.849944 0.115704 21.2679
-0.970968 0.090563 20.846
0.833945 0.0436958 19.8232
1.67051 0.0481406 20.5049
1.01951 -0.306291 21.4365
0.195966 -0.317503 21.7182
-0.56561 -0.352367 21.5746
-0.94016 -0.376163 21.3041
-0.685734 -0.46856 20.9312
0.630575 0.368909 19.9906
0.980011 0.537976 20.4735
0.895019 0.344543 21.2061
0.32385 -0.0259265 21.5563
-0.129856 -0.318291 21.4423
-0.345294 -0.389602 21.3268
-0.401913 -0.542818 20.6307
-2.03369 -0.191507 3.10866
0.000109216 -0.0307228 0.213959
-7.33802e-05 0.00326895 1.29851
0.0773667 0.0171571 0.302699
-0.000241634 0.00740385 0.0562473
-0.109448 0.205901 2.94168
0.0110648 0.185228 0.60458
-0.114572 -0.164452 0.995091
-0.000119249 0.00245879 -0.0101503
0 0 0
2.03481 -0.192244 3.10814
6.78062e-05 0.00319631 1.29768
-0.0775596 0.0179953 0.303347
0.137267 0.165391 3.08299
0.113291 -0.163476 0.992661
0 0 0
0.000143962 0.0147752 0.441002
1.24921e-05 -2.45059e-05 0.00105055
0 0 0
-0.000305884 0.00786161 0.0417768
4.0147e-05 -0.00165463 0.0563307
0 0 0
0.0012606 0.0419808 0.0898222
-4.83276e-06 -0.00106499 0.0183271
-0.000105537 0.0147862 0.440694
-1.25736e-05 -2.36587e-05 0.00107697
0.000415066 0.00814845 0.0429705
0 0 0
-0.00012643 -0.00182906 0.0198974
-1.00359e-06 4.21162e-05 0.00026305
0.000691373 0.00188237 0.0135641
-1.40113e-08 8.07211e-07 0.000102656
0 0 0
-1.24296e-07 2.60825e-07 5.26229e-05
-0.000216648 -0.0582377 0.531683
0 0 0
-1.45228e-06 0.000162281 0.00100457
-2.13921e-06 0.00279411 0.0233032
-1.60589e-05 0.00171729 -0.00256281
0.000126104 -0.0018484 0.0199055
9.41264e-07 3.99749e-05 0.000249771
-0.000579481 0.00157689 0.0113606
-2.78865 -1.2296 20.663
-3.95591 -5.41172 21.1849
-2.58667 -1.7936 17.8433
0.934079 0.27976 21.054
0.393933 1.09625 14.9225
0.6111 1.07345 9.01229
-3.21632 0.341064 20.5465
-3.36133 1.10109 17.0805
-2.67314 2.66348 19.9987
1.10537 -0.415619 20.1423
1.05493 0.464485 7.28156
0.316297 -0.798643 19.4783
3.97754 -5.34269 21.1643
2.58508 -1.77497 17.8605
2.78163 -1.2224 20.6601
-0.369617 1.09279 14.7932
-0.358532 1.04723 7.53815
-0.926663 0.269596 21.1114
3.35523 1.09435 17.1008
2.66471 2.67082 19.9911
3.21174 0.340718 20.5458
-0.826398 0.513085 5.80057
-0.367579 -0.767396 18.7627
-1.09815 -0.415081 20.1426
-0.46023 -0.765113 21.909
0.147147 0.271324 13.9608
0.0721539 -0.254333 21.6355
0.154238 0.0878364 16.2312
-1.59119 -0.889401 21.8704
-4.17121 2.01219 21.3373
-0.0775676 -0.633416 21.1605
-0.338038 0.151426 18.3294
-0.152147 0.272976 14.1971
0.466652 -0.763733 21.9072
-0.151134 0.0906927 16.3401
-0.0683705 -0.253818 21.6349
4.25152 2.1707 21.2856
1.5914 -0.890895 21.8692
0.125802 0.236228 17.1569
0.0820677 -0.634293 21.2036
-0.962109 -0.451911 20.126
-0.701484 -0.246663 19.9096
-0.769875 -0.460418 19.6744
-0.881205 -0.548513 21.1564
-1.31781 -0.563615 20.5897
-1.79519 -1.34454 20.6521
-0.17888 -0.257178 21.4545
-0.496443 -0.391444 21.3838
-0.317939 -0.472751 21.6273
0.205411 -0.00661395 21.5479
-0.00841085 -0.149256 21.5138
0.0849208 -0.0813334 21.608
0.587733 0.203177 21.3729
0.475167 0.101993 21.4588
0.583376 0.416182 21.5854
0.711992 0.303493 21.2343
0.721431 0.255155 21.1433
0.907111 0.64507 21.2336
0.804303 0.211645 20.8839
0.998478 0.49896 20.687
-1.15615 -0.358717 20.0577
-0.814004 -0.0932168 19.8174
-0.969606 -0.359964 19.4781
-1.06882 -0.509539 21.221
-1.63227 -0.221054 20.5354
-0.247956 -0.308222 21.5127
-0.760616 -0.419866 21.4409
0.261623 -0.0445694 21.647
-0.0744658 -0.272803 21.6424
0.757383 0.0815762 21.4456
0.641722 -0.143554 21.5996
0.916517 0.106307 21.3414
0.986172 -0.0985505 21.1038
1.31538 0.39707 20.987
0.945243 -0.166381 20.8093
1.49062 0.37973 20.2341
-1.30611 0.0777272 19.9851
-0.784894 0.26121 19.8652
-1.12366 0.131547 19.3382
-1.40102 -0.140617 21.1445
-1.35695 0.427535 20.4536
-0.623909 -0.351327 21.6468
-1.09502 0.10434 21.3184
0.217765 -0.305852 21.7064
-0.333597 -0.156009 21.6758
0.741346 -0.356465 21.4018
0.29394 -0.40554 21.4593
0.99649 -0.413883 20.9698
0.516697 -0.457645 21.1832
1.38976 -0.718586 20.8037
0.491217 -0.630675 20.9835
1.22139 -0.629632 20.5279
-0.825932 0.480668 20.1751
-0.718637 0.556384 19.7614
-0.997554 0.470892 20.8449
-1.23456 0.966341 20.3506
-0.607784 0.173423 21.4299
-1.26053 0.742885 21.2992
-0.0420321 -0.19068 21.5026
-0.430711 0.0448812 21.7596
0.22789 -0.397216 21.2482
0.0710091 -0.430457 21.4928
0.278575 -0.377032 21.0894
0.307123 -0.528477 21.134
0.223252 -0.466141 21.0149
-1.57746 -1.8127 19.0716
-0.872302 -0.732396 19.05
0.00741846 -1.11298 18.714
-0.850087 -1.19273 22.2058
-0.00155135 -4.64168 22.3204
-0.0381682 0.00922084 20.5229
0.00213235 -0.183684 19.6791
0.121479 0.306769 20.2816
-0.000563345 0.000201674 19.0308
0.437557 1.08923 19.4807
-0.00696948 0.52032 17.5041
0.877288 1.39774 19.2045
0.806077 1.39027 16.5193
-0.0695674 0.454475 15.9877
1.11141 1.13731 15.8291
-0.0252166 1.52497 14.3871
-1.16808 -0.258788 18.5439
0.00841369 -0.953528 17.8748
1.4611 1.60172 14.2026
1.23647 0.859658 8.53747
-0.0495566 -1.80276 -3.66006
2.08086 0.495142 14.3288
-0.107592 -1.19105 -0.205004
-0.978735 0.785313 18.9409
0.00428111 0.423323 17.2622
1.93594 -0.588222 14.6099
0.404305 -1.20076 20.4016
0.0513626 -0.534292 -0.807327
0.490939 -1.12092 19.8929
0.174734 -1.96588 1.03526
-0.979245 1.36284 19.6608
-0.000953325 1.19557 19.1457
-1.40405 1.64758 20.655
-0.00859394 2.57477 19.9037
-1.09875 1.00522 22.0257
-0.0360622 3.1765 21.2186
-0.13069 -0.225297 21.8057
-0.0305598 0.661719 22.3613
0.125314 -0.576242 21.412
-0.00967985 -0.36417 21.7415
0.251499 -0.741892 21.2397
0.0053048 -0.798458 21.1689
0.0228241 -1.01381 21.2705
1.57948 -1.79211 19.098
0.878103 -0.727535 19.0586
0.769044 -0.457275 19.6864
0.86163 -1.18747 22.2113
1.77956 -1.31445 20.643
0.0360441 0.00810118 20.6782
0.332203 -0.474932 21.6144
-0.123499 0.306767 20.2864
-0.0788537 -0.0836117 21.6009
-0.376263 1.08266 19.3024
-0.582254 0.416021 21.5767
-0.748172 1.46533 18.6065
-0.575638 1.38983 15.1471
-0.926512 0.685355 21.2049
-0.901673 1.33255 15.0187
-1.00103 0.584754 20.868
1.17388 -0.256403 18.5544
0.971337 -0.355948 19.4944
-1.3375 1.74267 11.7972
-0.927776 0.994556 5.9529
-1.33409 0.505077 20.3578
-2.21895 0.630664 11.1819
-1.64241 0.570977 20.1441
0.977795 0.784998 18.9408
1.12133 0.132344 19.3458
-1.88175 -0.577185 11.7479
-0.368527 -1.24635 20.1292
-1.45088 -0.656505 20.3252
-0.514504 -1.12124 19.4761
-1.45629 -0.664052 20.2533
0.976566 1.37315 19.6541
0.719404 0.556892 19.7605
1.40026 1.68964 20.644
1.23853 0.981352 20.3455
1.09095 1.0776 22.0525
1.27469 0.779804 21.3054
0.139279 -0.217132 21.8411
0.439087 0.0609806 21.7935
-0.109477 -0.577557 21.4244
-0.0749194 -0.42444 21.5195
-0.240954 -0.760209 21.2337
-0.30086 -0.546838 21.0858
-0.13811 -0.458263 21.1902
0.952695 -0.454294 20.1229
0.704223 -0.247893 19.9217
0.871729 -0.546886 21.1427
1.30933 -0.561146 20.5984
0.184608 -0.25675 21.4513
0.498765 -0.391857 21.3828
-0.202568 -0.00718044 21.5636
0.0109222 -0.151399 21.5146
-0.594331 0.213487 21.3684
-0.471332 0.105561 21.4676
-0.763176 0.29977 21.2805
-0.762769 0.245653 21.1773
-0.878792 0.204448 20.8183
1.14835 -0.355116 20.0709
0.811449 -0.0959021 19.8285
1.06321 -0.505539 21.221
1.62783 -0.221314 20.5405
0.253776 -0.306484 21.5092
0.758066 -0.421498 21.4449
-0.259322 -0.0511941 21.6357
0.0761595 -0.272641 21.64
-0.766122 0.0843279 21.4444
-0.63199 -0.140175 21.6026
-0.978966 0.125323 21.4323
-1.0281 -0.116675 21.1087
-0.943597 -0.184396 20.9157
1.30525 0.0750219 19.9944
0.78645 0.257197 19.8709
1.39996 -0.144272 21.1475
1.36372 0.431071 20.4562
0.620812 -0.350121 21.6479
1.11655 0.100992 21.3253
-0.217864 -0.301912 21.7049
0.341367 -0.158911 21.6896
-0.759389 -0.371162 21.4013
-0.316305 -0.421485 21.471
-1.08784 -0.447252 20.9749
-0.549333 -0.475459 21.2655
-0.546002 -0.693803 21.0661
0.829006 0.485416 20.1703
1.01378 0.481618 20.8449
0.633953 0.17755 21.4532
0.0495962 -0.19224 21.5155
-0.231706 -0.401687 21.2615
-0.274018 -0.40757 21.0871
-1.07136 -0.419127 20.0829
-2.02999 -1.92488 18.5221
-1.34188 -0.924311 19.7921
-1.86804 -0.750295 19.5086
-0.879922 -0.428501 19.574
-2.30395 -1.36598 20.6733
-0.968227 -0.526429 21.1764
-0.250735 -0.475067 16.6687
-0.962206 -0.912225 21.5884
-1.3631 -0.978128 21.7796
-0.337365 -0.610868 21.747
-0.214207 -0.272334 21.475
0.183631 0.214067 14.8448
-0.0389805 -0.248464 21.5928
-0.0886469 -0.50812 21.7686
0.102944 -0.162928 21.6457
0.226908 -0.0150111 21.5836
0.0657595 0.356239 15.5165
0.288076 0.134973 21.6765
0.39942 0.0153423 21.6048
0.778437 0.373845 21.4733
0.659431 0.15539 21.3838
0.580543 1.31296 15.5675
0.745174 0.544392 21.4338
1.17334 0.345552 20.9343
1.13767 0.56169 21.1048
0.771747 0.219516 21.0747
1.11049 1.81075 16.0752
1.00142 0.635674 21.0539
1.48434 0.34105 20.528
1.27097 0.401002 20.3994
-1.29082 -0.153733 19.9802
-3.44643 -0.579552 16.8493
-2.21596 0.314495 19.2873
-1.09127 -0.173645 19.365
-3.42647 -0.500358 20.6375
-1.25518 -0.349369 21.2109
-2.18148 -0.375997 21.5623
-0.862793 -0.899539 22.0161
-0.378072 -0.385772 21.5762
-0.781856 -0.914439 21.7889
0.0908667 -0.31659 21.2133
0.281919 -0.176712 21.7053
0.613367 -0.331387 20.5389
1.14362 0.0642157 20.141
0.838978 -0.120967 21.3867
0.170239 0.86397 4.3287
1.17876 -0.565582 20.6314
1.54726 -0.0896733 20.7194
1.01773 -0.150981 21.377
2.37339 0.608041 11.5201
1.49508 -0.625173 20.4977
1.55083 -0.15357 20.3362
-1.13322 0.388332 20.0526
-1.89636 1.8485 18.8429
-1.01938 0.824906 19.9545
-0.955328 0.448175 19.5099
-2.07494 1.0397 20.3138
-1.31788 0.268939 20.9637
-2.87858 1.88508 20.7083
-1.30855 0.911655 20.8147
-1.99461 0.290629 21.5198
-0.748892 -0.0297459 21.5942
-2.68259 0.320618 20.8371
-0.896696 0.41788 21.7005
-0.563692 -0.251542 22.0925
0.0519324 -0.288511 21.6308
0.336808 -0.43715 18.398
-0.105684 -0.234958 21.685
0.299094 -0.681421 21.6758
0.441608 -0.454812 21.3944
0.378504 -0.932384 20.0032
0.187105 -0.483358 21.3722
0.631682 -0.791019 21.2997
0.569083 -0.459889 21.0166
0.52409 -1.17214 20.456
0.283891 -0.577941 21.2924
0.501312 -0.887567 20.7479
2.03715 -1.89564 18.5387
0.0133203 -3.39671 18.1984
0.00932684 -4.04953 15.0212
0.00543736 -1.15826 18.3527
-0.00815894 -4.54637 22.2819
0.267361 -0.488144 16.9077
-0.0021767 -0.989465 21.8202
0.00316636 0.116991 9.79358
-0.184184 0.216629 15.0533
0.00124635 -0.0301122 19.1657
0.00138616 0.0359632 10.9747
-0.0799964 0.333112 15.6369
-0.00174903 0.158037 18.2581
-0.0135422 0.447321 8.91856
-0.422891 1.27335 14.548
-0.0250529 0.390828 16.5611
-0.171617 -1.06921 -2.22012
-0.172955 -0.450841 5.40122
-0.973669 1.86948 15.3495
0.00829084 1.0405 15.0018
-0.151836 -0.481544 -0.70325
-0.10915 0.63523 6.54576
3.43772 -0.576026 16.8786
0.0106771 3.27422 12.8637
0.00653431 -0.353392 17.3515
0.142781 0.998016 2.8477
-0.0129377 0.442744 -0.315201
0.00878517 -1.66294 -4.33192
-2.24298 0.763755 9.00546
0.169384 -1.02299 -0.929204
0.467646 -2.1441 -1.9048
1.89399 1.85386 18.8367
-0.00364367 2.05931 19.3096
-3.77277e-05 1.25742 18.202
-0.00634152 4.51131 19.6501
2.88753 1.93666 20.6968
-0.0264752 2.76846 20.3222
-0.0355709 5.74562 19.7922
2.55272 0.390418 19.8205
-0.0410587 2.05016 22.4198
-0.0182759 0.364702 16.8919
-0.44896 -0.412547 17.5297
-0.0241442 -0.0389659 22.0235
-0.000692011 -0.358405 12.8996
-0.366007 -0.921769 19.5978
-0.00187234 -0.548046 21.5051
0.0188928 -0.804078 15.8347
-0.478446 -1.20989 19.9364
0.0171016 -0.587147 21.311
0.0293721 -0.593275 16.2691
1.06217 -0.41563 20.0865
1.33317 -0.90902 19.798
1.86222 -0.739388 19.5182
0.882027 -0.427516 19.59
2.28338 -1.34158 20.6675
0.96215 -0.523786 21.1702
0.96707 -0.899169 21.5667
1.36516 -0.977625 21.7727
0.35142 -0.607203 21.7349
0.21508 -0.271581 21.4755
0.0479974 -0.252627 21.5851
0.0931637 -0.506846 21.7637
-0.094437 -0.162822 21.648
-0.223519 -0.0227641 21.5787
-0.285544 0.131346 21.6801
-0.392437 0.0086492 21.6273
-0.772951 0.370183 21.475
-0.661759 0.167169 21.377
-0.743428 0.568523 21.4312
-1.1934 0.410069 20.629
-1.15718 0.662125 20.7992
-0.827732 0.231416 21.1434
-1.05108 0.758917 20.9696
-1.59413 0.50606 19.8048
-1.27311 0.509726 20.6008
1.28783 -0.152957 19.9874
2.20865 0.313321 19.2953
1.09079 -0.174918 19.3777
3.41919 -0.498826 20.638
1.25149 -0.350096 21.2146
2.18308 -0.378938 21.5603
0.860823 -0.897984 22.0126
0.37495 -0.384578 21.5784
0.784865 -0.914566 21.8035
-0.0869292 -0.329648 21.3022
-0.281541 -0.175353 21.7101
-0.606183 -0.337286 20.5731
-1.13849 0.0570357 20.1924
-0.857268 -0.125154 21.4129
-1.23372 -0.494678 20.234
-1.64212 0.00090327 19.843
-1.11048 -0.17621 21.4735
-1.64016 -0.639004 20.2858
-1.7202 0.0370746 20.2368
1.13495 0.390844 20.0543
1.0192 0.83016 19.9498
0.953524 0.449551 19.5103
2.08336 1.05198 20.3087
1.33261 0.271659 20.965
1.32661 0.941891 20.8094
2.03469 0.313013 21.5193
0.76876 -0.0361477 21.6061
0.918484 0.450148 21.7273
0.589507 -0.25597 22.1288
-0.047662 -0.297979 21.6358
0.110624 -0.241238 21.7026
-0.287638 -0.705766 21.6874
-0.450967 -0.467455 21.3919
-0.185221 -0.510602 21.382
-0.545148 -0.878815 21.4702
-0.605656 -0.497141 21.0332
-0.288573 -0.633099 21.3381
-0.505525 -0.969329 20.6439
-1.63588 -0.871981 19.6443
-1.15646 -0.963653 21.7066
-0.0311641 -0.364195 21.6855
0.356411 0.0847889 21.6862
0.980707 0.543388 21.0798
1.20966 0.557954 21.2478
-2.28517 -0.313424 19.24
-1.81754 -0.768948 21.8344
-0.253095 -0.686488 21.6678
0.556995 -0.038441 20.79
1.35108 0.0195127 20.1483
1.57559 -0.085989 20.4917
-1.59061 0.838889 19.6418
-2.04733 0.633192 20.9981
-1.3474 -0.0376907 22.0303
0.0202068 -0.500681 21.9327
0.450704 -0.749275 21.4767
0.619732 -0.829645 21.0703
0.0130964 -3.99081 16.8789
0.00475795 -0.0853625 11.5766
0.00046014 0.116628 10.159
-0.00166008 0.102619 10.2244
-0.0827242 -0.245328 7.13222
-0.14172 1.02476 6.43524
0.0100226 -1.01858 12.3779
-0.0518157 -0.338451 -2.7631
0.239054 -1.78395 -4.75406
-0.0026789 3.36581 17.823
-0.0199943 3.89624 19.9205
-0.0236947 2.7095 19.1488
-0.00929099 -0.22821 14.1179
-0.00414785 -0.515661 14.434
-0.00835524 -1.26545 16.0177
1.62477 -0.853914 19.6649
1.16063 -0.951359 21.6897
0.0418134 -0.361323 21.6771
-0.349746 0.079859 21.7024
-0.996927 0.578496 20.9771
-1.26146 0.704276 21.1634
2.27478 -0.310784 19.2533
1.81603 -0.768953 21.83
0.257059 -0.687368 21.7194
-0.552852 -0.0531016 20.8664
-1.39235 0.0641747 19.8739
-1.73806 0.0550099 19.607
1.59133 0.842399 19.639
2.06912 0.651117 20.9925
1.38347 -0.0288812 22.052
-0.0177085 -0.517018 21.9443
-0.436348 -0.789103 21.4852
-0.641364 -0.939515 21.127
-3.35846 -0.53039 3.62521
0.0706063 -0.213501 1.30176
-0.198769 -0.566522 5.58434
0.0973581 0.0281665 0.581228
-0.00470531 0.00455345 0.0170864
0.125296 0.210067 2.53789
-2.70559 0.023414 3.79673
-0.0651689 0.335541 0.702667
-0.793806 -0.247033 2.05765
0.000182483 0.00853286 0.0241855
0.00354151 0.00232234 -0.00866752
0.0426942 0.0329805 0.160513
-0.0685218 -0.208033 1.29343
3.34022 -0.528044 3.60398
0.200017 -0.568234 5.59042
0.00462947 0.00450077 0.0170482
-0.0967546 0.0286696 0.579439
-0.123581 0.20476 2.44239
0.0690536 0.332616 0.716503
2.82802 0.0335582 3.9402
0.827468 -0.277317 2.1028
-0.00380283 0.00240966 -0.0089042
-0.000302195 0.00894059 0.0244209
-0.0426681 0.0330768 0.159786
0.0346509 -0.0162809 2.19395
0.00475061 0.0134187 0.62511
0 0 0
0 0 0
-0.0626846 0.0851512 2.2709
-0.0132193 0.0218309 0.373366
-3.20893e-05 0.00109365 0.00740434
0 0 0
-0.120713 -0.265049 0.795278
0.00139046 0.00313054 0.154186
0 0 0
-0.0289251 0.033009 0.0730607
0 0 0
0.015865 0.0480323 0.135373
-1.72388e-17 -4.4859e-17 -9.69808e-17
0.00662954 -0.00304612 0.0474
-0.034299 -0.016259 2.19366
0 0 0
-0.00466437 0.0134709 0.624531
0 0 0
0.106088 0.0347801 2.05087
0 0 0
0.0133689 0.0213874 0.373161
3.31026e-05 0.00115164 0.00780656
0.120063 -0.263212 0.79759
0.0287115 0.0329056 0.0728023
-0.00144032 0.00340794 0.153924
0 0 0
0 0 0
-0.00657281 -0.00298823 0.0467792
-0.0157396 0.0475622 0.133453
0 0 0
-0.00767766 -0.00921737 0.0965894
-0.850782 -0.302826 0.584825
-8.63211e-09 -7.65187e-07 9.11237e-05
-3.34964e-05 -0.0230363 0.0066203
0 0 0
-6.59319e-08 1.3691e-08 8.74997e-06
0.000490604 0.000707232 0.00760482
0 0 0
0 0 0
-0.00321257 -0.0965799 -0.0791927
0.00453281 0.00847343 0.0848037
0 0 0
3.66853e-05 0.199235 0.0793337
7.4721e-05 0.00604623 0.0357531
-3.18998e-05 -0.000378317 0.00299462
-0.0377638 0.00856482 0.0835961
-5.62756e-05 0.00409501 -0.000623159
-2.55694e-05 0.0028211 -0.00570771
0.029163 0.0453781 0.234805
-8.55564e-07 -0.000261979 0.000870221
0.847457 -0.300447 0.581754
0.00751701 -0.00915021 0.094567
1.41428e-07 3.06966e-08 1.92528e-05
0 0 0
0 0 0
-0.000520019 0.000751649 0.00805695
0 0 0
-0.00418528 0.00777468 0.0789832
0.0373868 0.00863379 0.0843229
3.4396e-05 -0.000410794 0.00327029
-4.79187e-05 -0.000225712 0.000852721
-0.0297795 0.0463839 0.238865
0 0 0
0 0 0
6.10852e-05 -0.00105177 0.00941584
-8.73988e-06 0.000120587 0.000799146
-4.97951e-09 3.65941e-07 4.72481e-05
-7.46579e-06 4.83698e-05 0.00686811
6.42039e-07 -1.7428e-05 -8.45313e-05
0 0 0
2.47987e-08 -1.51577e-07 -2.45943e-05
-9.19002e-09 -1.56813e-07 -4.10482e-05
0.00810452 0.0277746 0.0753881
-0.00543467 0.0104124 0.0872595
-1.81068e-05 0.00971379 0.0342458
-8.20796e-06 0.08045 0.264089
-2.44295e-06 0.000309062 0.0138163
-8.3829e-06 -0.00220518 0.014799
0 0 0
0 0 0
-6.29269e-05 -0.0010618 0.00957343
6.37798e-06 8.76738e-05 0.000580029
3.65114e-07 9.92931e-06 4.82571e-05
0 0 0
0.00541129 0.0103989 0.0871346
-0.00815919 0.0279523 0.0757795
-0.0277745 -0.0162398 0.1993
-0.0259309 -0.0460594 0.273059
0.000313085 -0.000594958 0.0220473