# vtk DataFile Version 2.0
tet_velo
ASCII
DATASET UNSTRUCTURED_GRID
POINTS 29498 float
-0.674799 0.085 -1.745
-0.9 0.085 2.025
-0.727148 0.405 -1.615
-0.830205 0.545 2.005
0.674806 0.085 -1.745
0.9 0.085 2.025
0.727157 0.405 -1.615
0.830209 0.545 2.005
-0.751752 0.0831143 -0.488333
-0.826696 0.0832367 0.768334
-0.789286 0.479452 -0.408333
-0.809279 0.511759 0.798334
0.751758 0.0831123 -0.488333
0.826695 0.08324 0.768334
0.789278 0.479437 -0.408333
0.809498 0.511973 0.798334
-1.44227 -0.133149 -2.76691
-1.44644 -0.108893 -1.7816
-1.51847 -0.110565 -0.523638
-1.61092 -0.121822 0.744385
-1.6813 -0.122866 2.00319
-1.69574 -0.110286 2.99265
-1.69182 -0.0915855 3.97443
-1.43928 0.0489497 -2.71988
-1.44206 0.0814497 -1.74003
-1.52672 0.090036 -0.491803
-1.62595 0.0896036 0.760928
-1.70325 0.0952424 2.01012
-1.71268 0.108258 2.99887
-1.70347 0.12581 3.98227
-1.46271 0.398311 -2.6118
-1.48106 0.429311 -1.62988
-1.55475 0.48412 -0.415739
-1.6159 0.514923 0.794863
-1.66275 0.542421 2.00997
-1.69262 0.553831 3.00079
-1.69886 0.565797 3.99226
-1.50552 0.973787 -2.48727
-1.52199 1.01163 -1.51284
-1.559 1.07504 -0.314908
-1.59637 1.13299 0.872249
-1.62664 1.17466 2.0707
-1.64878 1.19606 3.04622
-1.66583 1.21103 4.03223
-0.699599 -0.131244 -2.77013
-0.690601 -0.10552 -1.7863
-0.740092 -0.113203 -0.523006
-0.799161 -0.127457 0.750706
-0.849346 -0.130926 2.01424
-0.864298 -0.115966 3.00015
-0.864361 -0.0951472 3.97877
-0.6968 0.047862 -2.72087
-0.885733 0.103569 3.00505
-0.876729 0.122997 3.98555
-0.715098 0.38774 -2.60561
-0.869237 0.553901 2.99979
-0.875918 0.565373 3.99204
-0.742493 0.965898 -2.48115
-0.750807 1.00386 -1.50611
-0.773786 1.07183 -0.310848
-0.796073 1.13354 0.871762
-0.814941 1.17685 2.06723
-0.833859 1.1981 3.04275
-0.85065 1.21241 4.0297
0.735789 -0.131238 -2.77013
0.725121 -0.105517 -1.7863
0.775605 -0.113197 -0.523006
0.838712 -0.127447 0.750706
0.883617 -0.130919 2.01424
0.844017 -0.115953 3.00015
0.812791 -0.0951258 3.97877
0.72523 0.0478656 -2.72087
0.832789 0.103579 3.00505
0.80339 0.123018 3.98555
0.739716 0.387744 -2.60561
0.807785 0.553918 2.99979
0.79005 0.565399 3.99204
0.770142 0.965915 -2.48115
0.777398 1.00389 -1.50611
0.790426 1.07187 -0.310848
0.803055 1.13362 0.871762
0.808388 1.17692 2.06723
0.799217 1.19816 3.04275
0.78473 1.21246 4.0297
1.47003 -0.133134 -2.76691
1.46404 -0.108881 -1.7816
1.53643 -0.110533 -0.523638
1.63448 -0.121772 0.744385
1.69924 -0.122834 2.00319
1.67852 -0.110249 2.99265
1.64512 -0.0915379 3.97443
1.45588 0.0489608 -2.71988
1.43686 0.0814544 -1.74003
1.52123 0.0900716 -0.491804
1.62565 0.0896802 0.760928
1.69991 0.0952682 2.01012
1.67318 0.108293 2.99887
1.63838 0.125858 3.98228
1.47439 0.398323 -2.6118
1.4729 0.429316 -1.62988
1.54528 0.48417 -0.415739
1.61049 0.515131 0.794863
1.65349 0.542488 2.00997
1.64301 0.553883 3.00079
1.62084 0.565856 3.99226
1.52681 0.973824 -2.48727
1.53955 1.01167 -1.51284
1.56804 1.07513 -0.314908
1.59759 1.13313 0.872249
1.6147 1.17479 2.07071
1.61189 1.19616 3.04622
1.60012 1.21112 4.03223
-0.709255 0.245 -1.68828
3.48687e-06 0.081539 -1.74846
-0.71435 0.0829828 -1.11667
-0.833239 0.315 1.98314
0 0.209381 1.90062
-0.864109 0.0833579 1.39667
4.50015e-06 0.439922 -1.64992
-0.846756 0.530766 -1.01167
1.99676e-06 0.488488 1.94849
-0.85927 0.567908 1.40167
0.709271 0.245 -1.68829
0.714356 0.0829823 -1.11667
0.833277 0.315 1.98317
0.864165 0.0833026 1.39667
0.846761 0.530762 -1.01167
0.859313 0.567946 1.40167
-0.789208 0.0831916 0.14
-0.791401 0.281283 -0.448333
3.34985e-06 0.0806467 -0.488333
-0.760285 0.297498 0.783334
-4.78226e-07 0.0806129 0.768334
-0.77934 0.475664 0.195
-3.72318e-06 0.883879 -0.408333
0.000109498 0.802829 0.798334
0.789218 0.0831849 0.14
0.791402 0.281275 -0.448333
0.760297 0.297606 0.783334
0.779342 0.475659 0.195
-0.851302 0.263142 -1.06417
-0.783559 0.289391 0.1675
-0.898593 0.306249 1.39917
3.41836e-06 0.0806332 -1.11667
1.43581e-06 0.0806291 0.14
-2.39113e-07 0.0806204 1.39667
3.99351e-06 0.245 -1.94573
9.98378e-07 0.315 2.00655
3.88484e-07 0.624262 -1.01167
5.28876e-05 0.928245 0.195
5.57475e-05 0.650886 1.40167
0.851303 0.263137 -1.06417
0.783575 0.28944 0.1675
0.898593 0.306303 1.39917
-1.05843 0.0832249 -1.74252
-0.6827 -0.01026 -1.76565
-0.6858 0.066431 -2.23294
-1.30162 0.0901212 2.01756
-0.874673 -0.0229632 2.01962
-0.892867 0.0942844 2.51503
-1.1041 0.417156 -1.62244
-0.721123 0.39637 -2.11031
-0.738978 0.704432 -1.56055
-1.24648 0.54371 2.00748
-0.849721 0.54945 2.5024
-0.822573 0.860925 2.03611
0.699963 -0.0102585 -1.76565
0.700018 0.0664328 -2.23294
1.05583 0.0832272 -1.74252
0.891809 -0.0229595 2.01962
0.866395 0.0942897 2.51503
1.29996 0.0901341 2.01756
0.733437 0.396372 -2.11031
0.752277 0.704443 -1.56055
1.10003 0.417158 -1.62244
0.818997 0.549459 2.5024
0.819299 0.860958 2.03611
1.24185 0.543744 2.00748
-1.13924 0.0865752 -0.490068
-0.745922 -0.0150441 -0.50567
-1.22632 0.0864201 0.764631
-0.812928 -0.0221103 0.75952
-1.17202 0.481786 -0.412036
-0.781536 0.775639 -0.359591
-1.21259 0.513341 0.796598
-0.802676 0.822652 0.835048
0.763681 -0.0150423 -0.50567
1.13649 0.0865919 -0.490069
0.832704 -0.0221033 0.75952
1.22617 0.0864601 0.764631
0.789852 0.775654 -0.359591
1.16728 0.481804 -0.412036
0.806276 0.822797 0.835048
1.20999 0.513552 0.796598
-1.44435 -0.121021 -2.27425
-1.44077 -0.0420996 -2.74339
-1.07093 -0.132196 -2.76852
-1.48246 -0.109729 -1.15262
-1.44425 -0.0137215 -1.76082
-1.06852 -0.107206 -1.78395
-1.56469 -0.116193 0.110374
-1.5226 -0.0102644 -0.507721
-1.12928 -0.111884 -0.523322
-1.64611 -0.122344 1.37379
-1.61843 -0.0161092 0.752656
-1.20504 -0.12464 0.747545
-1.68852 -0.116576 2.49792
-1.69227 -0.0138118 2.00665
-1.26532 -0.126896 2.00872
-1.69378 -0.100936 3.48354
-1.70421 -0.00101369 2.99576
-1.28002 -0.113126 2.9964
-1.69765 0.017112 3.97835
-1.27809 -0.0933664 3.9766
-1.44067 0.0651997 -2.22996
-1.45099 0.22363 -2.66584
-1.06804 0.0484058 -2.72038
-1.48439 0.0857428 -1.11592
-1.46156 0.25538 -1.68496
-1.57633 0.0898198 0.134562
-1.54074 0.287078 -0.453771
-1.6646 0.092423 1.38552
-1.62092 0.302263 0.777895
-1.70796 0.10175 2.50449
-1.683 0.318832 2.01004
-1.70807 0.117034 3.49057
-1.70265 0.331045 2.99983
-1.29921 0.105914 3.00196
-1.70116 0.345803 3.98727
-1.2901 0.124403 3.98391
-1.47188 0.413811 -2.12084
-1.48411 0.686049 -2.54953
-1.0889 0.393025 -2.60871
-1.5179 0.456716 -1.02281
-1.50153 0.720469 -1.57136
-1.58532 0.499521 0.189562
-1.55687 0.779579 -0.365324
-1.63932 0.528672 1.40241
-1.60613 0.823958 0.833556
-1.67768 0.548126 2.50538
-1.64469 0.858542 2.04034
-1.69574 0.559814 3.49652
-1.6707 0.874945 3.0235
-1.28093 0.553866 3.00029
-1.68235 0.888412 4.01224
-1.28739 0.565585 3.99215
-1.51376 0.992707 -2.00005
-1.12401 0.969843 -2.48421
-1.5405 1.04333 -0.913875
-1.1364 1.00775 -1.50947
-1.57769 1.10402 0.27867
-1.16639 1.07343 -0.312878
-1.61151 1.15383 1.47148
-1.19622 1.13327 0.872005
-1.63771 1.18536 2.55846
-1.22079 1.17576 2.06897
-1.65731 1.20354 3.53923
-1.24132 1.19708 3.04448
-1.25824 1.21172 4.03097
-0.6951 -0.118382 -2.27822
-0.6982 -0.0416908 -2.7455
0.0180951 -0.131241 -2.77013
-0.715346 -0.109361 -1.15465
0.0172597 -0.105519 -1.7863
-0.769626 -0.12033 0.11385
0.0177565 -0.1132 -0.523006
-0.824253 -0.129192 1.38247
0.0197757 -0.127452 0.750706
-0.856822 -0.123446 2.5072
0.0171358 -0.130923 2.01424
-0.86433 -0.105557 3.48946
-0.875015 -0.00619871 3.0026
-0.0101404 -0.115959 3.00015
-0.870545 0.013925 3.98216
-0.0257854 -0.0951365 3.97877
-0.705949 0.217801 -2.66324
0.0142146 0.0478638 -2.72087
-0.881231 0.113283 3.4953
-0.877485 0.328735 3.00242
-0.0264718 0.103574 3.00505
-0.876323 0.344185 3.9888
-0.0366694 0.123008 3.98555
-0.728796 0.676819 -2.54338
0.012309 0.387742 -2.60561
-0.872577 0.559637 3.49592
-0.851548 0.876003 3.02127
-0.0307259 0.55391 2.99979
-0.863284 0.888893 4.01087
-0.042934 0.565386 3.99204
-0.74665 0.984881 -1.99363
0.0138241 0.965907 -2.48115
-0.762297 1.03785 -0.908477
0.0132952 1.00388 -1.50611
-0.784929 1.10269 0.280457
0.00831975 1.07185 -0.310848
-0.805507 1.1552 1.46949
0.00349127 1.13358 0.871762
-0.8244 1.18748 2.55499
-0.00327618 1.17688 2.06723
-0.842254 1.20526 3.53623
-0.017321 1.19813 3.04275
-0.03296 1.21243 4.0297
0.730455 -0.118378 -2.27822
0.730509 -0.0416863 -2.7455
1.10291 -0.132186 -2.76852
0.750363 -0.109357 -1.15465
1.09458 -0.107199 -1.78395
0.807158 -0.120322 0.11385
1.15602 -0.111865 -0.523322
0.861165 -0.129183 1.38247
1.2366 -0.124609 0.747545
0.863817 -0.123436 2.5072
1.29143 -0.126877 2.00872
0.828404 -0.105539 3.48946
0.838403 -0.00618661 3.0026
1.26127 -0.113101 2.9964
0.808091 0.0139463 3.98216
1.22896 -0.0933319 3.9766
0.732473 0.217805 -2.66324
1.09056 0.0484132 -2.72038
0.81809 0.113299 3.4953
0.820287 0.328749 3.00242
1.25298 0.105936 3.00196
0.79672 0.344209 3.9888
1.22088 0.124438 3.98391
0.754929 0.676829 -2.54338
1.10705 0.393034 -2.60871
0.798918 0.559659 3.49592
0.803501 0.876037 3.02127
1.2254 0.5539 3.00029
0.78739 0.888928 4.01087
1.20544 0.565628 3.99215
0.77377 0.9849 -1.99363
1.14848 0.96987 -2.48421
0.783912 1.03788 -0.908477
1.15847 1.00778 -1.50947
0.79674 1.10275 0.280457
1.17923 1.0735 -0.312878
0.805722 1.15527 1.46949
1.20032 1.13338 0.872005
0.803803 1.18754 2.55499
1.21155 1.17585 2.06897
0.791973 1.20531 3.53623
1.20555 1.19716 3.04448
1.19243 1.21179 4.03097
1.46703 -0.121007 -2.27425
1.46296 -0.0420865 -2.74339
1.50023 -0.109707 -1.15262
1.45045 -0.0137132 -1.76082
1.58546 -0.116153 0.110374
1.52883 -0.0102308 -0.507721
1.66686 -0.122303 1.37379
1.63007 -0.0160459 0.752656
1.68888 -0.116542 2.49792
1.69958 -0.0137831 2.00665
1.66182 -0.100893 3.48354
1.67585 -0.000978163 2.99576
1.64175 0.0171598 3.97835
1.44637 0.0652076 -2.22996
1.46514 0.223642 -2.66584
1.47904 0.085763 -1.11592
1.45488 0.255385 -1.68496
1.57344 0.0898759 0.134562
1.53325 0.287121 -0.453771
1.66278 0.0924742 1.38552
1.61807 0.302406 0.777895
1.68654 0.10178 2.50449
1.6767 0.318878 2.01004
1.65578 0.117075 3.49057
1.65809 0.331088 2.99983
1.62961 0.345857 3.98727
1.47365 0.413819 -2.12084
[...]
POINT_DATA 29498
VECTORS point_vectors float
-4.69223 -8.72593 14.3022
0.766063 0.86992 8.80445
-0.78978 0.29528 1.34253
0.549546 -0.139127 3.44871
4.70627 -8.73653 14.3215
-0.766826 0.871797 8.81727
0.789443 0.29545 1.34378
-0.55362 -0.1373 3.46828
-0.000559555 -2.90212e-05 0.00613856
0.129192 -0.0681252 1.1273
0.00401715 0.00668414 0.052593
-0.0040899 0.235139 0.355761
0.000529186 -2.87194e-05 0.00585256
-0.133653 -0.0711278 1.13876
-0.00406004 0.00675879 0.0526127
0.00564357 0.245142 0.362078
-0.505007 -0.161102 19.8001
-1.14976 -0.541342 20.2064
-0.470791 -0.269097 20.9625
-0.0973796 -0.103149 21.0382
0.383901 0.0687219 20.987
0.551683 0.0929251 20.6634
0.397938 -0.0260009 20.4906
-0.582288 -0.122669 19.7414
-1.41997 -0.425836 20.1905
-0.538815 -0.269239 21.0008
-0.119603 -0.0978925 21.0385
0.410058 0.034436 20.9848
0.569288 0.0280261 20.7129
0.379559 0.00261154 20.6726
-0.667682 0.0206584 19.71
-1.5414 -0.0264632 20.249
-0.686013 -0.166136 21.0313
-0.155492 -0.0769839 21.0912
0.447669 -0.124594 21.0046
0.570577 -0.156343 20.816
0.521036 -0.201977 20.3899
-0.64318 0.271039 19.8129
-1.12336 0.435086 20.316
-0.72465 0.142215 20.9583
-0.132359 -0.0261345 21.0774
0.279804 -0.243788 20.92
0.38419 -0.292771 20.6601
0.267804 -0.307308 20.194
-0.499423 -0.383704 19.2359
-1.93787 -3.79882 20.032
-0.476651 -0.110845 18.1932
0.0219382 -0.1283 17.385
0.657332 0.994781 18.3351
0.799973 1.11721 18.7951
0.590518 0.822786 18.8865
-0.5941 -0.325093 19.0543
1.16084 0.959009 13.802
0.873887 0.495591 15.3891
-0.82232 0.0793426 18.775
1.57494 -0.329914 13.1017
1.28841 -0.216366 16.8863
-0.704332 0.700663 19.1595
-1.87553 2.30839 19.8595
-1.93044 1.17203 21.6334
-0.180678 0.0475672 21.5801
0.273054 -0.661069 21.0199
0.351919 -0.774709 20.7436
0.138835 -0.475364 21.1758
0.51535 -0.363461 19.2777
2.05288 -3.61358 20.0229
0.480886 -0.0965874 18.7374
0.00544695 -0.151825 17.9649
-0.70916 0.950126 18.8661
-0.76921 1.18996 18.4142
-0.525894 0.888424 18.3093
0.618697 -0.304498 19.0965
-1.07317 1.13114 12.7976
-0.784121 0.632853 14.6056
0.846999 0.071689 18.8144
-1.47647 -0.441082 10.5224
-1.41702 -0.291787 14.4887
0.723881 0.680473 19.1925
1.89644 2.19331 19.8911
1.91295 1.12615 21.6298
0.183248 0.0479384 21.5782
-0.272823 -0.662598 21.0079
-0.353764 -0.807107 20.6737
-0.162146 -0.510794 20.979
0.501945 -0.156074 19.8114
1.12751 -0.51344 20.2117
0.471767 -0.258025 20.9475
0.0982885 -0.106294 21.0351
-0.374093 0.064167 20.9807
-0.56453 0.110683 20.6438
-0.397467 -0.0506828 20.533
0.577186 -0.119975 19.7566
1.42924 -0.43431 20.1895
0.54075 -0.271763 21.0052
0.119683 -0.097209 21.0396
-0.408199 0.0346609 20.9845
-0.593153 0.0489925 20.6321
-0.393148 -0.0407695 20.717
0.665923 0.0221712 19.7186
1.5663 -0.028195 20.2423
0.687777 -0.170972 21.032
0.154575 -0.0800938 21.0921
-0.450443 -0.124497 21.0076
-0.624825 -0.164124 20.539
-0.546511 -0.2117 20.3995
0.630272 0.259601 19.8325
1.09162 0.419003 20.3175
0.719105 0.142967 20.9549
0.131733 -0.025976 21.0765
-0.282721 -0.247191 20.9228
-0.394628 -0.292162 20.6708
-0.273739 -0.311269 20.0857
-1.30798 -0.197634 1.36244
3.5297e-06 -0.023723 0.291014
-0.0353252 0.00477221 0.237215
0.000416956 -0.00250501 0.0878357
-4.27995e-05 -0.00107975 -0.00296824
-0.00582038 0.007699 0.360647
0 0 0
-0.0766027 -0.106226 1.34633
-4.76933e-05 0.00468318 -0.00684751
0.0879738 0.0110236 0.645158
1.30497 -0.197451 1.36106
0.0352784 0.00476725 0.237168
-0.00224442 -0.0036427 0.0947578
0.00554592 0.00741014 0.356016
0.0765263 -0.106138 1.34715
-0.0889736 0.0113974 0.649739
-8.43129e-06 -3.3314e-06 0.00099656
7.14384e-05 0.000281359 0.00163381
2.09186e-07 -1.75533e-08 5.25473e-06
0 0 0
-9.97293e-09 -6.52455e-09 -3.92935e-06
0.0303121 0.115279 0.264234
0.000106219 0.101795 0.286349
-9.65119e-06 -0.00339536 0.0143213
-2.03894e-06 7.37831e-07 -0.000217508
-7.24587e-05 0.000281165 0.00164382
0 0 0
-0.0298441 0.113658 0.25951
-5.4462e-05 1.24181e-05 0.00191603
0.000430622 0.00451638 0.0198761
2.23204e-05 0.000240962 0.00277369
2.04202e-06 2.60413e-08 -3.00125e-06
-1.37846e-09 1.04587e-09 -6.8888e-07
-5.29085e-09 -1.83172e-08 -5.1568e-06
-0.000240043 0.181324 0.444176
0 0 0
1.21226e-06 0.0137154 0.0554937
1.08792e-06 -0.00103315 0.0103513
-3.65079e-06 -0.000947738 0.00429729
5.67196e-05 1.28217e-05 0.00199481
-0.000398716 0.00477318 0.0197655
-2.23594e-05 0.000241854 0.0027953
-2.84155 -1.36297 19.7594
-2.87892 -6.0649 19.9575
-1.71894 -1.10108 17.8623
0.746168 0.143517 21.1755
0.878373 0.992618 15.1251
1.0587 0.971322 12.3358
-3.40953 0.156782 19.9334
-2.54585 0.508824 17.1942
-3.53014 3.66212 19.1842
0.844378 -0.243286 21.0727
1.29239 -0.218156 10.0809
1.1062 -0.626495 18.3393
2.92582 -5.63676 19.7602
1.72735 -1.07372 17.9055
2.85641 -1.38002 19.7519
-0.901573 0.955138 15.4893
-0.977808 1.04213 11.5692
-0.745555 0.142556 21.1763
2.5591 0.499898 17.271
3.5647 3.53693 19.2188
3.45864 0.166077 19.9211
-1.16183 -0.29945 8.70446
-1.11051 -0.622493 18.2816
-0.849046 -0.234826 21.0382
-0.396066 -0.447218 21.2367
-0.725049 0.116243 11.4214
-0.240052 -0.215776 21.0002
0.365705 -0.24659 11.8572
-0.795897 -0.607356 21.394
-2.74542 -0.113127 16.8968
-0.305313 -0.0435724 20.9285
1.26538 0.818253 16.3716
0.747279 0.131258 11.6783
0.393466 -0.447044 21.2248
-0.329641 -0.295537 12.424
0.238205 -0.213322 20.9982
2.73055 -0.134943 17.1573
0.786554 -0.616206 21.3418
-1.22445 0.801765 16.4748
0.296224 -0.033472 20.8652
-0.840822 -0.333868 19.8676
-0.543281 -0.145108 19.7719
-0.552443 -0.267892 19.5401
-0.909842 -0.490389 20.8252
-1.3012 -0.506793 20.1863
-1.85027 -1.40572 19.9851
-0.241493 -0.155519 20.9914
-0.509316 -0.279917 20.9733
-0.402945 -0.415607 21.2365
0.145773 -0.0118466 21.1154
-0.112395 -0.106408 21.0391
-0.114623 -0.201298 21.1019
0.497397 0.0929828 20.8573
0.404474 0.0588267 20.9941
0.635208 0.282096 21.119
0.544705 0.126851 20.6975
0.563158 0.0448925 20.6925
0.79336 0.369172 20.6624
0.377582 0.0390706 20.5097
0.634716 0.26856 20.1193
-0.995159 -0.238157 19.798
-0.638037 -0.0578244 19.7177
-0.653127 -0.215938 19.4436
-1.09876 -0.412461 20.876
-1.55434 -0.236315 20.2078
-0.274535 -0.164659 21.0025
-0.599856 -0.235003 21.0481
0.149036 -0.0172186 21.1302
-0.149393 -0.0866208 21.0664
0.529002 0.0370959 20.8371
0.443625 -0.0532625 20.9927
0.561668 0.0176389 20.5311
0.581197 -0.102717 20.7276
0.963052 0.216473 20.5835
0.509152 -0.0819002 20.4212
0.675924 0.0651166 20.0414
-1.13 0.0122126 19.7958
-0.660122 0.161402 19.7529
-0.815664 0.0362022 19.3226
-1.17538 -0.133915 20.8984
-1.40782 0.279324 20.2779
-0.36177 -0.134261 21.0486
-0.759356 -0.0384994 21.0277
0.161961 -0.0828685 21.1574
-0.151049 -0.0569669 21.1019
0.564718 -0.146538 20.853
0.363399 -0.215336 20.9591
0.554903 -0.14531 21.0025
0.479366 -0.266814 20.6319
0.922002 -0.263777 20.7848
0.376527 -0.285121 20.1373
0.919026 -0.197832 19.9742
-0.930332 0.391947 19.9669
-0.720078 0.450774 19.5503
-1.00899 0.305097 20.7462
-1.65171 1.06475 20.1907
-0.420543 0.0463789 21.0531
-1.17717 0.33971 21.2189
0.116733 -0.141972 21.0593
-0.180885 -0.00402392 21.278
0.36348 -0.296028 20.7858
0.341179 -0.424176 21.0256
0.35513 -0.263966 20.7051
0.44867 -0.543167 20.5821
0.234407 -0.410681 21.2048
-1.1769 -1.2593 18.7375
-0.540971 -0.357216 19.1405
0.0177953 -0.526633 18.9186
-0.366337 -1.03816 20.5011
0.00981526 -4.84067 21.7022
-0.336616 0.00678157 17.5387
0.0100858 -0.324783 15.4761
0.270684 0.247293 17.8244
-0.00544412 -0.0785081 13.9832
0.777775 1.12203 18.7003
0.00199368 0.694029 14.546
0.802165 0.882762 18.8986
0.96242 1.14604 16.5201
-0.00735566 0.942343 14.6031
0.64061 0.813652 17.2225
0.0245759 1.22705 14.395
-0.726053 -0.190455 18.8515
0.0160772 -0.427149 18.5749
1.21751 0.850043 14.1089
1.29384 0.601624 10.8485
0.00448951 0.460009 4.84777
1.18194 0.182961 15.5207
-0.00386053 0.862903 7.52363
-0.827726 0.470522 18.8687
0.0130354 0.128914 18.048
1.29602 -0.29047 14.9907
1.04138 -0.920987 18.7883
-0.00679421 -0.687881 0.246828
0.561748 -0.624121 18.6638
0.0665676 -1.13551 1.89577
-1.30902 1.57478 19.0965
0.026364 1.07522 18.6945
-2.17981 1.80896 20.9281
0.0489106 3.61184 19.3846
-0.89245 0.502144 21.7917
0.0759025 5.06046 21.645
0.131142 -0.372146 21.265
-0.00903036 -0.436736 17.9441
0.359588 -0.776156 20.839
0.00269542 -0.816893 18.4924
0.308325 -0.680758 20.5914
0.0172773 -1.05635 18.7853
0.0356232 -1.00112 19.225
1.18207 -1.1934 18.8096
0.567023 -0.333979 19.1871
0.554297 -0.257708 19.557
0.378144 -1.11767 20.6793
1.80317 -1.31914 20.0012
0.322162 0.0073153 18.0045
0.417982 -0.411013 21.2123
-0.279718 0.230166 18.3435
0.109183 -0.188043 21.1129
-0.791546 1.11271 18.7662
-0.61581 0.259836 21.1257
-0.743239 0.94261 18.5246
-0.904338 1.27231 15.8274
-0.806081 0.397834 20.633
-0.560385 0.930412 16.5651
-0.695504 0.314361 20.0162
0.750442 -0.183664 18.8957
0.645685 -0.209473 19.464
-1.12892 0.922742 13.4378
-1.17797 0.691129 8.61894
-1.0392 0.260136 20.3951
-1.29953 0.113598 13.308
-0.727518 0.165575 19.863
0.852026 0.462007 18.9117
0.820048 0.0340635 19.3462
-1.31266 -0.264183 13.0462
-1.04907 -0.963391 18.613
-1.00784 -0.314794 20.649
-0.623879 -0.692161 18.2958
-1.03066 -0.148087 20.0253
1.3198 1.49542 19.1482
0.71914 0.437417 19.5671
2.1695 1.73644 20.9376
1.61934 1.00914 20.2059
0.891183 0.490833 21.779
1.15347 0.329122 21.2086
-0.130709 -0.371522 21.2665
0.180586 -0.00539048 21.2759
-0.358988 -0.785227 20.7938
-0.3422 -0.428926 21.0276
-0.316689 -0.703432 20.4034
-0.422386 -0.565449 20.6441
-0.225776 -0.426625 21.3645
0.828573 -0.316834 19.8837
0.539414 -0.141337 19.7893
0.896413 -0.464268 20.8094
1.28772 -0.49869 20.1925
0.24262 -0.159484 20.9883
0.511688 -0.275437 20.9682
-0.145515 -0.0162138 21.1151
0.11065 -0.104506 21.0377
-0.499361 0.0949735 20.8589
-0.397948 0.0561434 20.9898
-0.56598 0.13246 20.6878
-0.580664 0.076054 20.6479
-0.386475 0.00370077 20.5349
0.989752 -0.23618 19.8075
0.63476 -0.0558586 19.7285
1.10581 -0.420389 20.884
1.56784 -0.240925 20.2051
0.274941 -0.165347 21.0036
0.602654 -0.239391 21.0529
-0.149873 -0.0170509 21.128
0.148609 -0.0881098 21.0667
-0.541308 0.0437211 20.8399
-0.446074 -0.0528298 20.9973
-0.58072 0.0441152 20.5508
-0.607197 -0.0846629 20.7285
-0.509821 -0.11631 20.4805
1.12966 0.0117217 19.7953
0.652531 0.152636 19.763
1.19225 -0.142752 20.9066
1.39473 0.275421 20.2796
0.364374 -0.138327 21.0485
0.756372 -0.0360686 21.0257
-0.165179 -0.0849879 21.1581
0.15097 -0.0584189 21.1012
-0.585854 -0.151451 20.8642
-0.367989 -0.216834 20.9627
-0.594146 -0.144747 21.2154
-0.511401 -0.281614 20.6765
-0.380506 -0.290583 20.0185
0.898745 0.370805 19.9823
0.996795 0.30237 20.7435
0.417566 0.0461916 21.0504
-0.11807 -0.14355 21.0602
-0.370005 -0.303632 20.7895
-0.370761 -0.279664 20.7931
-0.9187 -0.300386 19.8305
-1.40687 -1.25945 18.4016
-1.09703 -0.638849 19.4491
-1.42107 -0.551907 19.1916
-0.609742 -0.254923 19.4764
-2.30541 -1.43956 19.8787
-1.00127 -0.460322 20.8467
-0.736738 -0.207791 13.375
-1.1011 -1.07632 21.2966
-1.53576 -1.1322 21.6415
-0.389598 -0.421008 21.296
-0.26378 -0.172355 20.9899
-0.274122 0.0765048 11.2277
-0.194203 -0.209715 21.1085
-0.17176 -0.218398 20.9695
-0.178771 -0.214633 21.004
0.146783 -0.0156177 21.1228
0.218421 0.157753 12.8732
0.222288 0.0326992 21.2887
0.209911 -0.0214198 21.3815
0.697903 0.218492 21.1621
0.513784 0.0692951 20.8382
0.970458 1.14821 15.9455
0.779161 0.365688 20.8945
0.934232 0.19029 20.9223
0.910073 0.344087 20.4852
0.556559 0.0705437 20.5675
1.00508 0.913536 16.4602
0.775887 0.399526 20.0795
0.938394 0.152182 20.3444
0.651936 0.161298 20.087
-1.09461 -0.12472 19.7836
-2.20005 -0.547549 17.355
-1.85499 0.13047 19.0611
-0.755486 -0.0973625 19.3674
-3.46445 -0.686277 19.7939
-1.18928 -0.286776 20.9133
-1.9227 -0.366305 21.5536
-0.49694 -0.532052 21.2238
-0.314957 -0.154768 21.0368
-0.318334 -0.391893 21.1176
-0.349784 -0.104278 20.675
0.167055 -0.0584779 21.1536
0.27235 -0.0757165 21.3301
0.857551 -0.0161464 21.116
0.577583 -0.0647923 20.8589
0.756265 0.34686 6.81899
1.01194 -0.317565 20.851
0.993229 -0.0120164 20.8145
0.549174 -0.0581225 21.0151
1.28343 0.42013 13.0736
0.850549 -0.213523 20.0825
0.844211 -0.0666096 20.0546
-1.0758 0.246872 19.8671
-1.93057 1.55979 18.2217
-1.22148 0.816869 19.6399
-0.797746 0.278891 19.3868
-2.50762 0.956705 20.0478
-1.16832 0.0983296 20.838
-3.74763 1.33534 20.9999
-1.55927 0.676313 20.9162
-1.31121 -0.190697 21.3525
-0.421771 -0.0582367 21.0793
-0.107482 0.452512 15.588
-0.620018 0.127435 21.3172
-0.237306 -0.0307674 21.3121
0.145219 -0.127555 21.1134
1.22589 -0.000108913 17.989
0.136248 -0.222574 21.2232
0.586992 -0.46193 21.0956
0.468178 -0.260295 20.8126
1.06676 -0.828329 18.9222
0.444946 -0.508639 20.8424
0.761651 -0.586916 20.709
0.466448 -0.248582 20.8332
0.988738 -0.849746 18.8147
0.468045 -0.520881 20.4363
0.440662 -0.383163 20.4838
1.42177 -1.21415 18.4754
0.0413228 -2.13093 17.8682
0.023504 -2.12299 16.1495
0.0183127 -0.484799 18.7442
0.00266909 -5.14237 22.0137
0.696299 -0.262263 14.0976
0.0157274 -0.896772 18.5308
0.00494963 -0.0749683 7.94048
0.302257 0.108165 11.8281
0.00261229 -0.174047 14.2725
-0.00601042 -0.0157368 7.55948
-0.228915 0.171831 13.6123
-0.00614408 0.185072 14.2476
0.00871628 0.464541 6.68689
-0.947753 1.15933 15.704
-0.000394201 0.759033 14.4555
-0.0231936 -0.0603419 2.17853
-0.0134498 0.899512 10.2275
-0.931435 0.980756 15.9384
0.031879 0.946261 14.2147
0.0556402 0.554573 6.28208
0.0161817 1.46107 10.6747
2.19738 -0.542364 17.4337
0.033615 2.09006 14.0151
0.0141127 -0.244786 18.251
-0.588917 0.360631 5.25296
-0.0141544 -0.205464 -0.913862
0.035422 0.0576765 -1.36441
-1.29966 0.443011 11.2588
0.0850754 -1.26118 2.58866
-0.0210096 -0.498198 2.57177
1.94182 1.49346 18.2828
0.0375375 2.48205 18.5211
0.0262707 0.702153 18.2225
0.0272751 5.41388 18.743
3.70268 1.25847 21.0949
0.0456954 4.28838 20.0858
0 0 0
0.167835 0.412094 15.8162
-0.0133769 0.255685 17.7907
-0.0052853 -0.33924 2.48031
-1.2214 -0.000320118 17.9711
-0.00116079 -0.676401 18.3959
0.000730296 -0.672314 6.53236
-1.08616 -0.825623 18.6281
0.01075 -0.957686 18.7305
0.0577289 -1.07631 10.6105
-1.00814 -0.88094 18.5836
0.00652489 -1.00398 18.0234
0.0658336 -1.27085 13.6517
0.906656 -0.292744 19.8485
1.08377 -0.618491 19.4892
1.39995 -0.541254 19.2249
0.60296 -0.248449 19.5002
2.26055 -1.39363 19.8968
0.995644 -0.452299 20.8407
1.10968 -1.0237 21.2434
1.53926 -1.14113 21.652
0.397239 -0.42539 21.3114
0.262967 -0.170874 20.9904
0.1931 -0.206414 21.0997
0.170121 -0.216546 20.9701
0.172477 -0.207699 21.0535
-0.147694 -0.0166324 21.1215
-0.218069 0.026982 21.2986
-0.2078 -0.0205152 21.3753
-0.687008 0.209143 21.1604
-0.520462 0.0749398 20.8399
-0.777405 0.35909 20.8945
-0.969208 0.203177 20.9038
-0.94226 0.37578 20.4138
-0.574848 0.088563 20.571
-0.81042 0.443111 19.8949
-0.989151 0.236781 20.0774
-0.707522 0.235298 19.9446
1.09209 -0.124089 19.788
1.84052 0.129418 19.0858
0.74779 -0.0940439 19.3895
3.49854 -0.693915 19.786
1.20088 -0.293077 20.9206
1.93611 -0.369467 21.57
0.492791 -0.538062 21.174
0.315883 -0.158011 21.0371
0.312806 -0.39417 21.043
0.347775 -0.0947345 20.6386
-0.168888 -0.0586341 21.1515
-0.278259 -0.0619528 21.2797
-0.857228 -0.00895646 21.0812
-0.599396 -0.0643634 20.869
-1.05661 -0.325315 20.7511
-1.08209 0.0196337 20.531
-0.584624 -0.0407987 21.0639
-0.926353 -0.227129 19.488
-0.936787 -0.00787246 20.0965
1.06094 0.238897 19.8748
1.21103 0.785492 19.6621
0.796841 0.271798 19.4092
2.47438 0.930271 20.0591
1.1641 0.100809 20.8341
1.52847 0.649961 20.9096
1.29874 -0.188894 21.3471
0.422046 -0.057854 21.0817
0.611924 0.123883 21.3091
0.236635 -0.0301292 21.3177
-0.148989 -0.128659 21.1143
-0.136807 -0.223786 21.2238
-0.590785 -0.465912 21.0974
-0.484836 -0.267391 20.8169
-0.444512 -0.529468 20.8448
-0.78577 -0.633967 20.6932
-0.484863 -0.267744 20.9314
-0.476713 -0.544078 20.4414
-0.404164 -0.400105 20.8684
-1.2447 -0.613805 19.3248
-1.29503 -1.14198 21.4704
-0.178717 -0.206702 21.0464
0.211338 -0.00629321 21.3421
0.884124 0.291145 20.9303
0.867487 0.303516 20.1293
-1.71674 -0.270057 19.0878
-1.82167 -0.746672 21.7148
-0.187637 -0.274855 20.9091
0.22094 -0.0295771 21.3322
1.0578 -0.0442925 20.9335
0.95507 -0.135064 20.6215
-1.60502 0.639989 19.3309
-1.97778 0.245428 21.1982
-0.673805 -0.173827 21.347
0.240266 -0.223688 21.3662
0.70115 -0.541024 20.908
0.634119 -0.453403 20.7516
0.0309739 -2.25602 17.1929
0.00893302 -0.245102 10.0119
-7.59445e-06 -0.0528769 7.44338
-0.00590723 0.0720119 7.7638
-0.0048168 0.509434 8.82545
0.049298 0.898849 10.1668
0.0256066 -0.681655 14.7702
-0.0134346 -0.417022 -2.54749
0.0353706 -0.409449 2.38108
0.0300569 3.04997 16.9585
0.0414474 4.62634 16.8649
0 0 0
-0.000534994 -0.639405 5.08254
0.0225134 -0.92659 9.02845
0.0733162 -1.21908 11.9988
1.22401 -0.594673 19.3583
1.29409 -1.10156 21.4314
0.182884 -0.208114 21.0587
-0.208312 -0.0113538 21.3769
-0.890449 0.299028 20.9221
-0.9098 0.368686 19.9015
1.69585 -0.26626 19.1088
1.83305 -0.752738 21.7308
0.180272 -0.265077 20.8362
-0.220446 -0.0209799 21.2986
-1.10625 -0.0147518 20.7125
-1.01936 -0.142468 20.0787
1.58465 0.616488 19.3587
1.95561 0.244573 21.1865
0.671582 -0.171648 21.3518
-0.243886 -0.223798 21.3664
-0.71011 -0.572777 20.9029
-0.644964 -0.480342 20.7367
-0.150138 -0.148999 0.246468
-0.00326712 -0.0191184 0.227958
-0.0429108 -0.000902154 0.296015
0.0129704 -0.259337 1.67227
-0.0107421 0.00185344 0.00393641
0.255068 0.00736203 1.53785
-1.38228 0.00640677 1.97786
0 0 0
-0.0987292 0.0170135 0.236745
0.049619 0.0763861 0.535753
-5.99489e-19 1.71203e-19 -3.65327e-19
0.230125 0.104254 1.85396
0.0014401 -0.0191006 0.224529
0.153415 -0.152398 0.252139
0.0429034 -0.000901414 0.29618
0.010573 0.00178324 0.00376717
0.040705 -0.228614 1.38142
-0.262722 -0.00616429 1.55821
0 0 0
1.38103 0.00645179 1.97517
0.107904 0.0186822 0.258648
0 0 0
-0.0489237 0.0766835 0.538198
-0.233005 0.108299 1.8644
-0.00505206 0.000368189 0.0372427
-3.37006e-05 2.21338e-06 0.00074287
0.00916844 0.045244 0.326174
0 0 0
-0.0041446 0.0061559 0.375324
0.0144855 -0.0136282 0.927371
0 0 0
0 0 0
0.00723296 -0.0163351 0.146363
0.00034714 0.00162206 0.0113231
0.00343827 0.016007 0.0686178
-0.334528 0.138011 1.06486
0.0487351 0.134904 0.512563
0 0 0
0.0123831 0.0815449 0.144709
0.0022482 0.000342194 0.00325882
0.00503022 0.00036659 0.0371502
0 0 0
3.96235e-05 2.63143e-06 0.000863839
-0.00876059 0.0449001 0.327555
0.00389283 0.00605035 0.384123
0 0 0
-0.0137911 -0.0129337 0.931435
4.76466e-18 -5.65767e-18 6.71138e-17
-0.00720503 -0.0164576 0.14649
0.334684 0.138261 1.06589
-0.000361369 0.00161531 0.0113109
-0.00339471 0.0158406 0.0682354
-0.0498875 0.136918 0.515113
-0.00212626 0.000323756 0.00308241
0 0 0
-0.0123796 0.0815547 0.142684
-0.526904 -0.161115 1.68521
-0.468502 0.715521 0.540382
4.14976e-07 6.69357e-07 -5.53894e-05
5.16245e-05 -1.37152 1.26988
-3.86765e-05 2.08878e-05 0.00160031
1.98893e-07 4.20947e-08 -7.05276e-06
0 0 0
0 0 0
0 0 0
-0.00190843 -0.293499 -0.184163
1.16382e-05 0.000132208 0.00158327
1.88193e-07 3.68585e-08 1.04794e-05
9.46684e-05 0.467 0.506774
3.09394e-06 0.0577354 0.20192
-0.000130298 2.33539e-05 0.00569336
-0.111134 0.109474 0.278611
-5.75725e-08 1.32766e-06 -1.80021e-06
-5.56525e-06 0.000126436 -0.000516782
0.00194125 0.0134893 0.118769
0 0 0
0.462534 0.706466 0.533144
0.525269 -0.160617 1.68083
-1.90854e-07 4.07727e-08 -6.9126e-06
4.18083e-05 2.24436e-05 0.00172858
1.97402e-17 -8.30319e-18 -2.89088e-18
-2.78041e-18 3.05406e-19 1.66436e-17
-2.33645e-07 4.49649e-08 1.27728e-05
-1.20698e-05 0.00013719 0.00164987
0.112155 0.110465 0.280474
0.000134162 2.44641e-05 0.00586488
0 0 0
-0.00196047 0.0135331 0.120118
0 0 0
0 0 0
0 0 0
3.79526e-05 0.000127972 0.000862509
8.1778e-07 -1.00924e-06 0.000154305
-2.46076e-07 -1.74699e-09 8.53428e-07
0.0011296 0.0030444 0.0175322
-6.41055e-06 2.05328e-05 0.000465907
-2.86878e-09 2.32115e-09 -7.89051e-07
-5.22183e-09 -1.0336e-08 -3.10966e-06
0.000422913 0.00362297 0.0137663
0.0369704 0.0210095 0.119441
1.08495e-05 0.0304191 0.0713881
-7.22297e-05 0.00252764 0.143719
6.3087e-07 -0.0028938 0.013603
-1.05603e-06 -0.00210805 0.00855198
0 0 0
0 0 0
0 0 0