# vtk DataFile Version 2.0
tet_velo
ASCII
DATASET UNSTRUCTURED_GRID
POINTS 29498 float
-0.662302 0.145 -1.785
-0.690405 0.385 1.915
-0.711061 0.725 -1.825
-0.655 0.935 1.89488
0.662306 0.145 -1.785
0.690405 0.385 1.915
0.711061 0.725 -1.825
0.655 0.935 1.89488
-0.675454 0.221216 -0.551667
-0.737199 0.248839 0.681667
-0.758569 0.861195 -0.58504
-0.731919 0.923232 0.65492
0.675449 0.221223 -0.551667
0.737152 0.248887 0.681667
0.758578 0.861204 -0.58504
0.731915 0.923228 0.65492
-1.37438 -0.235751 -2.75809
-1.37411 -0.162164 -1.76876
-1.38959 -0.0960847 -0.535602
-1.42405 -0.0541893 0.696226
-1.40832 0.0467928 1.92928
-1.40064 0.116434 2.91805
-1.40453 0.171775 3.90784
-1.37657 0.0675316 -2.7757
-1.38017 0.147814 -1.78566
-1.39958 0.225493 -0.551207
-1.43207 0.258111 0.682648
-1.39288 0.351143 1.91697
-1.39083 0.419268 2.90584
-1.40085 0.475386 3.89541
-1.39954 0.669375 -2.8128
-1.42444 0.749158 -1.82303
-1.45711 0.863245 -0.584059
-1.43744 0.912238 0.65538
-1.37454 0.941569 1.89422
-1.3828 1.00872 2.88281
-1.40095 1.07526 3.87132
-1.41904 1.61719 -2.86346
-1.43402 1.6991 -1.8727
-1.45224 1.80211 -0.631578
-1.45222 1.86949 0.610968
-1.43592 1.90969 1.85202
-1.42764 1.95142 2.84263
-1.4282 2.00597 3.83186
-0.674509 -0.237649 -2.75766
-0.67235 -0.163064 -1.76814
-0.678549 -0.0983927 -0.535686
-0.717341 -0.0591924 0.695388
-0.709154 0.0650442 1.92781
-0.703251 0.129271 2.91705
-0.7063 0.17836 3.90726
-0.671655 0.0629731 -2.77557
-0.697036 0.432051 2.90502
-0.704642 0.481206 3.89498
-0.687541 0.657855 -2.81362
-0.689904 1.00907 2.88294
-0.706081 1.07615 3.87134
-0.702302 1.61096 -2.86427
-0.713021 1.6941 -1.87359
-0.731269 1.80268 -0.632116
-0.739851 1.87175 0.611033
-0.733406 1.90837 1.85248
-0.727822 1.9489 2.84309
-0.728216 2.004 3.8322
0.698031 -0.237646 -2.75766
0.67835 -0.163061 -1.76814
0.695763 -0.0983814 -0.535686
0.726052 -0.0591586 0.695388
0.694732 0.0650569 1.92781
0.689334 0.129281 2.91705
0.688455 0.178371 3.90726
0.700906 0.0629754 -2.77557
0.682314 0.432058 2.90502
0.683895 0.481215 3.89498
0.718805 0.657857 -2.81362
0.669098 1.00908 2.88294
0.676079 1.07616 3.87134
0.728551 1.61096 -2.86427
0.729143 1.6941 -1.87359
0.720166 1.80269 -0.632116
0.69587 1.87175 0.611032
0.67389 1.90838 1.85248
0.66949 1.9489 2.84309
0.669664 2.00401 3.8322
1.39309 -0.235742 -2.75809
1.37773 -0.162154 -1.76876
1.39867 -0.096062 -0.535602
1.43339 -0.0541408 0.696226
1.40718 0.0468251 1.92928
1.39352 0.116458 2.91805
1.39038 0.171798 3.90784
1.3956 0.0675386 -2.7757
1.37761 0.147821 -1.78566
1.39788 0.225511 -0.551207
1.43718 0.25816 0.682648
1.39931 0.351171 1.91697
1.38458 0.419288 2.90584
1.38424 0.475408 3.89541
1.42006 0.669382 -2.8128
1.42251 0.749165 -1.82303
1.45247 0.863258 -0.584059
1.43743 0.912254 0.65538
1.37642 0.941586 1.89422
1.36907 1.00874 2.88281
1.37464 1.07527 3.87132
1.44051 1.6172 -2.86346
1.44402 1.69911 -1.8727
1.43938 1.80212 -0.631578
1.41416 1.8695 0.610968
1.38473 1.9097 1.85202
1.37436 1.95144 2.84263
1.37237 2.00599 3.83186
-0.725007 0.435 -1.84333
1.99676e-06 0.1416 -1.7884
-0.68954 0.162446 -1.16833
-0.637033 0.66 1.86927
0 0.366767 1.93323
-0.789481 0.24124 1.29833
0 0.746365 -1.84637
-0.748004 0.806287 -1.20502
0 0.957166 1.91705
-0.713083 0.948739 1.2749
0.725008 0.435 -1.84332
0.689449 0.16254 -1.16833
0.637036 0.66 1.86927
0.789565 0.241157 1.29833
0.748007 0.80629 -1.20502
0.713068 0.948724 1.2749
-0.698119 0.243235 0.065
-0.798298 0.541205 -0.568353
-2.39883e-06 0.17798 -0.551667
-0.803781 0.586035 0.668293
-2.35188e-05 0.196433 0.681667
-0.753924 0.900893 0.03494
4.31478e-06 1.12188 -0.58504
-1.94402e-06 1.41717 0.65492
0.698046 0.243309 0.065
0.798297 0.541214 -0.568353
0.80379 0.586058 0.668293
0.753924 0.900893 0.03494
-0.835598 0.488103 -1.18668
-0.802309 0.56362 0.04997
-0.869649 0.623018 1.28662
-2.01035e-07 0.151482 -1.16833
-1.29588e-05 0.168303 0.065
-1.17594e-05 0.203974 1.29833
9.98378e-07 0.435 -1.94957
0 0.66 1.85788
2.15739e-06 0.886167 -1.20502
1.18538e-06 1.40551 0.03494
-9.72012e-07 1.36821 1.2749
0.835607 0.488107 -1.18668
0.80231 0.563636 0.04997
0.869656 0.623029 1.28662
-1.02123 0.146407 -1.78533
-0.667326 -0.0090322 -1.77657
-0.666978 0.103987 -2.28029
-1.04164 0.368072 1.91599
-0.69978 0.225022 1.92141
-0.69372 0.408526 2.41001
-1.06775 0.737079 -1.82401
-0.699301 0.691427 -2.31931
-0.712041 1.20955 -1.84929
-1.01477 0.938285 1.89455
-0.672452 0.972035 2.38891
-0.694203 1.42169 1.87368
0.670328 -0.00903056 -1.77657
0.681606 0.103988 -2.28029
1.01996 0.146411 -1.78533
0.692569 0.225028 1.92141
0.686359 0.408529 2.41001
1.04486 0.368085 1.91599
0.714933 0.691428 -2.31931
0.720102 1.20955 -1.84929
1.06679 0.737083 -1.82401
0.662049 0.972038 2.38891
0.664445 1.42169 1.87368
1.01571 0.938293 1.89455
-1.03752 0.223354 -0.551437
-0.677002 0.0614114 -0.543676
-1.08464 0.253475 0.682158
-0.72727 0.0948231 0.688528
-1.10784 0.86222 -0.584549
-0.744919 1.33194 -0.608578
-1.08468 0.917735 0.65515
-0.735885 1.39749 0.632976
0.685606 0.0614208 -0.543676
1.03667 0.223367 -0.551437
0.731602 0.0948642 0.688528
1.08716 0.253523 0.682158
0.739372 1.33195 -0.608578
1.10552 0.862231 -0.584549
0.713893 1.39749 0.632976
1.08467 0.917741 0.65515
-1.37425 -0.198957 -2.26342
-1.37548 -0.0841096 -2.76689
-1.02445 -0.2367 -2.75787
-1.38185 -0.129124 -1.15218
-1.37714 -0.00717496 -1.77721
-1.02323 -0.162614 -1.76845
-1.40682 -0.075137 0.0803119
-1.39458 0.064704 -0.543405
-1.03407 -0.0972387 -0.535644
-1.41618 -0.00369823 1.31275
-1.42806 0.101961 0.689437
-1.07069 -0.0566908 0.695807
-1.40448 0.0816134 2.42366
-1.4006 0.198968 1.92312
-1.05874 0.0559185 1.92854
-1.40258 0.144104 3.41294
-1.39574 0.267851 2.91194
-1.05195 0.122852 2.91755
-1.40269 0.32358 3.90162
-1.05541 0.175067 3.90755
-1.37837 0.107673 -2.28068
-1.38806 0.368453 -2.79425
-1.02411 0.0652523 -2.77564
-1.38987 0.186653 -1.16843
-1.40231 0.448486 -1.80434
-1.41582 0.241802 0.0657208
-1.42834 0.544369 -0.567633
-1.41247 0.304627 1.29981
-1.43476 0.585174 0.669014
-1.39185 0.385206 2.4114
-1.38371 0.646356 1.9056
-1.39584 0.447327 3.40062
-1.38681 0.713994 2.89432
-1.04393 0.42566 2.90543
-1.4009 0.775321 3.88336
-1.05274 0.478296 3.89519
-1.41199 0.709267 -2.31791
-1.40929 1.14328 -2.83813
-1.04354 0.663615 -2.81321
-1.44077 0.806201 -1.20354
-1.42923 1.22413 -1.84786
-1.44727 0.887741 0.0356608
-1.45467 1.33268 -0.607818
-1.40599 0.926903 1.2748
-1.44483 1.39086 0.633174
-1.37867 0.975145 2.38852
-1.40523 1.42563 1.87312
-1.39187 1.04199 3.37706
-1.40522 1.48007 2.86272
-1.03635 1.0089 2.88288
-1.41457 1.54061 3.85159
-1.05351 1.0757 3.87133
-1.42653 1.65814 -2.36808
-1.06067 1.61407 -2.86386
-1.44313 1.7506 -1.25214
-1.07352 1.6966 -1.87314
-1.45223 1.8358 -0.010305
-1.09175 1.80239 -0.631847
-1.44407 1.88959 1.23149
-1.09603 1.87062 0.611
-1.43178 1.93056 2.34733
-1.08466 1.90903 1.85225
-1.42792 1.9787 3.33725
-1.07773 1.95016 2.84286
-1.07821 2.00499 3.83203
-0.67343 -0.200357 -2.2629
-0.673082 -0.087338 -2.76661
0.0117608 -0.237647 -2.75766
-0.67545 -0.130729 -1.15191
0.00300001 -0.163063 -1.76814
-0.697945 -0.0787925 0.0798512
0.00860672 -0.098387 -0.535686
-0.713247 0.0029259 1.3116
0.00435574 -0.0591755 0.695388
-0.706203 0.0971574 2.42243
-0.00721078 0.0650505 1.92781
-0.704776 0.153815 3.41216
-0.700143 0.280661 2.91103
-0.00695853 0.129276 2.91705
-0.705471 0.329783 3.90112
-0.00892231 0.178366 3.90726
-0.679598 0.360414 -2.79459
0.0146254 0.0629743 -2.77557
-0.700839 0.456629 3.4
-0.69347 0.720561 2.89398
-0.00736091 0.432055 2.90502
-0.705362 0.778676 3.88316
-0.0103735 0.48121 3.89498
-0.694921 1.13441 -2.83894
0.0156319 0.657856 -2.81362
-0.697993 1.04261 3.37714
-0.708863 1.47898 2.86302
-0.0104031 1.00907 2.88294
-0.717149 1.54008 3.85177
-0.0150011 1.07615 3.87134
-0.707661 1.65253 -2.36893
0.0131245 1.61096 -2.86427
-0.722145 1.74839 -1.25285
0.00806099 1.6941 -1.87359
-0.73556 1.83721 -0.0105418
-0.00555166 1.80268 -0.632116
-0.736628 1.89006 1.23175
-0.0219903 1.87175 0.611032
-0.730614 1.92864 2.34779
-0.0297582 1.90838 1.85248
-0.728019 1.97645 3.33765
-0.0291664 1.9489 2.84309
-0.029276 2.00401 3.8322
0.68819 -0.200353 -2.2629
0.699468 -0.0873351 -2.76661
1.04556 -0.236694 -2.75787
0.687057 -0.130721 -1.15191
1.02804 -0.162608 -1.76845
0.710908 -0.07877 0.0798512
1.04721 -0.0972217 -0.535644
0.710392 0.00294916 1.3116
1.07972 -0.0566497 0.695807
0.692033 0.0971689 2.42243
1.05095 0.055941 1.92854
0.688895 0.153826 3.41216
0.685824 0.280669 2.91103
1.04143 0.12287 2.91755
0.686175 0.329793 3.90112
1.03942 0.175085 3.90755
0.709855 0.360416 -2.79459
1.04826 0.065257 -2.77564
0.683104 0.456637 3.4
0.675706 0.720567 2.89398
1.03345 0.425673 2.90543
0.679987 0.778685 3.88316
1.03407 0.478311 3.89519
0.723678 1.13441 -2.83894
1.06943 0.663619 -2.81321
0.672588 1.04262 3.37714
0.669294 1.47899 2.86302
1.01908 1.00891 2.88288
0.672872 1.54008 3.85177
1.02536 1.07571 3.87133
0.728847 1.65253 -2.36893
1.08453 1.61408 -2.86386
0.724655 1.74839 -1.25285
1.08658 1.6966 -1.87314
0.708018 1.83722 -0.0105419
1.07978 1.8024 -0.631847
0.68488 1.89007 1.23175
1.05502 1.87063 0.611
0.67169 1.92864 2.34779
1.02931 1.90904 1.85225
0.669577 1.97646 3.33765
1.02193 1.95017 2.84286
1.02101 2.005 3.83203
1.38541 -0.198948 -2.26342
1.39435 -0.0841016 -2.76689
1.3882 -0.129108 -1.15218
1.37767 -0.00716647 -1.77721
1.41603 -0.0751014 0.0803118
1.39827 0.0647243 -0.543405
1.42028 -0.00365787 1.31275
1.43528 0.102009 0.689437
1.40035 0.0816417 2.42366
1.40324 0.198998 1.92312
1.39195 0.144128 3.41294
1.38905 0.267873 2.91194
1.38731 0.323603 3.90162
1.38661 0.10768 -2.28068
1.40783 0.36846 -2.79425
1.38774 0.186666 -1.16843
1.40006 0.448493 -1.80434
1.41753 0.241835 0.0657207
1.42517 0.544384 -0.567633
1.41824 0.304665 1.29981
1.43731 0.585207 0.669014
1.39194 0.385229 2.4114
1.38787 0.646378 1.9056
1.38441 0.447348 3.40062
1.37682 0.714012 2.89432
1.37944 0.775341 3.88336
1.42128 0.709273 -2.31791
1.43028 1.14329 -2.83813
1.43749 0.806211 -1.20354
1.43327 1.22414 -1.84786
1.44495 0.887756 0.0356607
1.44593 1.33269 -0.607818
[...]
POINT_DATA 29498
VECTORS point_vectors float
-5.66176 -7.96887 12.2725
0.0610845 0.0225581 0.138111
-7.93209 4.86477 11.0659
-0.286639 -0.326287 0.364134
5.6542 -7.97312 12.2784
-0.0628591 0.0193236 0.135487
7.32754 4.53546 10.702
0.295135 -0.313956 0.336213
0.00344326 0.00351897 0.0428455
0 0 0
-0.0180641 -0.017031 0.194312
0 0 0
-0.0037031 0.00343711 0.0432975
0 0 0
0.0173595 -0.015379 0.175832
0 0 0
-0.691247 -0.391881 19.8061
-1.33797 -0.888155 20.5842
-0.404968 -0.554758 21.5145
0.121976 -0.260607 21.56
0.79105 0.0200767 21.5736
1.18212 0.0798411 21.3006
1.49623 0.0720787 20.3456
-0.824177 -0.299118 19.6817
-1.97965 -0.770485 20.456
-0.649382 -0.695126 21.5872
0.0303651 -0.407718 21.6483
0.896883 -0.263603 21.6361
1.3019 -0.214492 21.2259
1.41295 -0.0605199 20.7607
-0.865709 0.0729673 19.5777
-2.08018 0.181448 20.2227
-1.39259 -0.401079 21.426
-0.367272 -0.500166 21.7048
0.426353 -0.737294 21.638
0.814124 -0.78196 21.4495
0.72245 -0.56335 21.228
-0.516773 0.34751 19.8538
-0.940062 0.64215 20.1976
-1.10149 0.512994 20.9992
-0.553098 0.053793 21.468
-0.104448 -0.277758 21.4108
0.164243 -0.509002 21.286
0.242677 -0.543231 20.7514
-0.669612 -0.884934 19.1903
-2.15107 -3.65495 20.9927
0.115036 0.206635 20.5622
0.630314 0.315039 19.2367
0.83146 1.47044 16.1159
1.62476 1.70407 16.5013
1.60946 1.23887 16.5508
-0.836345 -0.706477 18.7556
2.14346 0.680783 9.91072
2.46423 0.787969 13.6196
-0.911236 0.173362 18.5169
0.360301 -1.04342 6.0068
1.17432 -0.960567 11.3182
-0.436841 0.6326 19.4836
-0.979429 1.54489 19.7905
-1.58508 1.9048 20.8404
-0.776875 0.524782 21.9323
-0.297254 -0.171028 21.5945
-0.0603808 -0.602616 21.425
-0.0226418 -0.537797 21.5762
0.681285 -0.869666 19.1991
2.14744 -3.60945 20.9884
-0.140296 0.186382 20.6537
-0.629739 0.299457 19.3114
-0.790534 1.44842 15.8255
-1.61391 1.73304 16.3002
-1.60265 1.2806 16.4841
0.856992 -0.681899 18.7904
-2.11201 0.663892 9.52234
-2.53194 0.862068 13.1828
0.917065 0.165253 18.5851
-0.239652 -1.08844 4.87485
-1.03871 -1.01754 9.69396
0.447289 0.622681 19.4962
0.989454 1.51765 19.8008
1.57988 1.9395 20.8288
0.773225 0.566241 21.9566
0.303644 -0.131002 21.6034
0.117938 -0.567134 21.5732
-0.00998991 -0.529697 21.6958
0.693799 -0.391017 19.8172
1.33087 -0.886453 20.5785
0.411976 -0.55062 21.5028
-0.117418 -0.263301 21.5493
-0.78523 0.0139246 21.5709
-1.18314 0.0785297 21.2961
-1.55094 0.100964 20.3153
0.82257 -0.296467 19.6928
1.97823 -0.771407 20.4557
0.648126 -0.695552 21.5868
-0.0300196 -0.405175 21.6397
-0.881223 -0.267751 21.6212
-1.30485 -0.226069 21.2312
-1.44117 -0.0593075 20.7507
0.858983 0.0703541 19.5944
2.08068 0.182779 20.2221
1.39941 -0.407644 21.4255
0.366888 -0.503023 21.7003
-0.415511 -0.73626 21.6293
-0.805543 -0.800345 21.4722
-0.726327 -0.548255 21.3163
0.51393 0.340366 19.868
0.935357 0.633536 20.2006
1.11142 0.525486 20.999
0.573138 0.0707406 21.4848
0.118593 -0.278615 21.4186
-0.146616 -0.50205 21.2729
-0.198596 -0.465532 20.9971
-2.41421 -0.431147 3.8617
0.000692484 -0.258189 0.592576
0.0090917 0.000740288 0.128591
-0.0357699 -0.0318418 -0.0182297
-0.00054965 -0.0113617 -0.0107478
-0.0175353 0.0404788 0.817813
-0.0405059 7.37467 4.93633
-0.132663 -0.0619079 0.455273
-0.00847855 -0.00783834 -0.0586605
0 0 0
2.6271 -0.469657 4.00812
-0.00894449 0.000629349 0.126161
0.035597 -0.035708 -0.0185476
0.0148111 0.041232 0.807372
0.133819 -0.0620646 0.460182
0 0 0
0 0 0
5.43582e-05 -0.000282115 0.00184279
0 0 0
0.000271779 0.00655487 0.0348701
0.000161086 -2.58457e-05 0.03999
0.0480151 0.0850805 0.326776
0.000183458 0.0258167 0.0358807
-3.49237e-06 -3.51168e-05 0.0025357
0 0 0
-5.49541e-05 -0.000275485 0.00184245
-0.000278177 0.0066993 0.0354207
-0.0487069 0.0856393 0.327629
-0.00117905 -0.00214518 0.0204923
9.75798e-05 0.00332727 0.0196429
0.0045024 0.0289111 1.1812
-3.89866e-06 2.31581e-05 -0.000149944
-2.225e-08 2.14546e-07 5.03516e-05
1.03187e-06 2.61939e-06 0.000169227
-0.0012613 -0.172883 0.245185
0 0 0
-8.40221e-06 0.00075076 0.00488873
-1.25367e-05 0.0019319 0.0208519
-0.00163478 -0.0108312 0.120017
0.0011755 -0.00226599 0.0206231
-9.54713e-05 0.00331677 0.0196457
-0.00523285 0.0296542 1.18198
-3.5017 -1.83997 20.4799
-3.49453 -5.64093 21.135
-2.28466 -2.16429 17.5459
1.5793 -0.0239185 17.589
0.659523 1.00557 6.02005
1.33605 0.271671 5.64216
-3.78209 0.759464 19.9643
-2.54059 0.879583 16.9376
-2.25621 2.63823 19.3907
0.568917 -0.97069 18.4077
-0.524131 -0.790144 2.75089
-0.0884474 -0.179488 13.708
3.49564 -5.59603 21.1336
2.28999 -2.11063 17.6201
3.51126 -1.85085 20.4797
-0.632216 0.968057 5.75354
-1.30701 0.215017 5.34267
-1.56857 -0.0476808 17.7343
2.53882 0.844255 17.0655
2.25844 2.59316 19.4077
3.77808 0.762325 19.9733
0.622011 -0.765065 2.0713
0.0538923 -0.127147 12.4472
-0.562063 -0.985098 18.5286
-0.183074 -1.2556 20.2002
0.569194 0.586855 11.7049
0.187695 -0.508141 19.1508
0.654139 0.10631 12.1851
-2.12502 -1.14533 21.6809
-4.19161 2.38495 20.6413
-0.347934 -0.808207 20.277
-0.566333 0.321506 16.5156
-0.593351 0.597919 12.0162
0.183271 -1.25448 20.1732
-0.644236 0.094905 12.2885
-0.186897 -0.513707 19.2279
4.22004 2.43478 20.6173
2.13546 -1.16713 21.6213
0.351492 0.43217 15.0616
0.34397 -0.821461 20.3248
-1.1029 -0.677073 19.9955
-0.76249 -0.350316 19.7545
-0.742401 -0.613469 19.5204
-0.946052 -0.788429 21.323
-1.67247 -0.881864 20.5404
-1.91146 -1.7921 20.6894
-0.0917322 -0.379401 21.5147
-0.520002 -0.624951 21.5493
-0.0388495 -0.576903 21.8105
0.413957 -0.118117 21.664
0.082218 -0.345273 21.6
0.390651 -0.242552 21.4964
1.05628 0.0950889 21.4292
0.856479 -0.108205 21.6263
1.27401 0.471913 20.9406
1.10272 0.0513943 21.2123
1.24418 -0.0498535 21.2532
1.66422 0.675044 20.1677
1.5316 0.0663051 20.4509
1.50752 0.237536 20.5758
-1.43523 -0.541329 19.8005
-0.885924 -0.164178 19.5922
-0.931592 -0.482175 19.2772
-1.40908 -0.784572 21.3734
-2.16864 -0.336215 20.3523
-0.234572 -0.540787 21.6113
-1.02468 -0.640201 21.5583
0.398563 -0.326011 21.7747
-0.134518 -0.490246 21.7096
1.12414 -0.248149 21.4735
0.773039 -0.598116 21.6301
1.21913 -0.302552 21.3142
1.09959 -0.598683 21.3428
2.00013 -0.0100757 18.7415
1.02471 -0.435958 21.291
1.9903 -0.38494 19.962
-1.49223 0.144329 19.6343
-0.718752 0.27815 19.7015
-0.98861 0.101914 19.1246
-1.84609 -0.0915277 21.0401
-1.48584 0.601672 20.1454
-0.838457 -0.525454 21.6602
-1.48825 0.184444 21.1857
0.0372241 -0.568498 21.7422
-0.603714 -0.226144 21.6353
0.645987 -0.797583 21.4947
0.00318452 -0.524873 21.5333
0.950402 -0.743304 21.2343
0.364615 -0.697432 21.2238
0.990287 -1.11098 19.9859
0.534535 -0.607564 20.7917
1.334 -1.33493 19.6308
-0.732877 0.501346 19.9631
-0.531988 0.494686 19.6788
-1.09929 0.632114 20.5863
-1.06633 1.03693 20.0043
-0.908139 0.308773 21.3512
-1.44007 1.01488 20.9868
-0.298172 -0.140121 21.4728
-0.697272 0.221821 21.6991
0.0224846 -0.38703 21.331
-0.189168 -0.27603 21.4787
0.180617 -0.457533 21.0789
0.0706761 -0.557848 21.3346
0.141973 -0.50583 21.5777
-1.40615 -2.06726 19.0263
-0.756518 -0.818235 18.9493
0.0123671 -1.15332 18.8471
-0.817155 -1.07682 22.6315
0.0153495 -5.55592 21.324
0.425638 0.29609 19.6218
0.000328078 -0.225239 15.3726
0.674777 0.500934 17.6573
-0.006609 0.15708 11.9664
1.15669 1.57543 16.0283
-0.00972112 0.687883 8.37447
1.9835 1.70839 17.2177
2.02682 1.38732 12.6635
-0.012189 1.56101 9.78774
2.22783 1.10253 13.9446
0.0433839 1.97944 11.1802
-0.956721 -0.294528 18.4682
0.0307241 -0.907799 18.1727
2.54471 0.85403 12.8267
1.37032 -0.593895 7.02655
0.0123511 0.759668 1.04818
2.03093 -0.0171664 11.2037
0.0572045 2.51655 4.8266
-0.674148 0.616066 19.0032
0.0264752 0.265413 17.8711
1.21541 -1.20094 9.87743
0.17189 -0.962516 16.9459
0.0531256 1.91757 -5.02692
0.169773 -1.22505 18.6427
0.0019139 2.69764 -5.61816
-0.705073 1.10796 19.4907
0.00992141 0.796115 19.2843
-1.269 1.7437 20.2516
0.0153783 2.14274 19.5531
-1.38319 1.381 21.8251
-0.0161595 3.42779 20.4775
-0.431668 0.058946 21.7134
-0.0381053 1.11317 22.2872
-0.183804 -0.369104 21.5736
-0.0388311 0.226935 21.6623
-0.0283202 -0.670117 21.5974
-0.0143417 -0.332131 21.3944
-0.0133332 -0.373221 22.0499
1.42091 -2.0247 19.0461
0.7742 -0.79772 18.9749
0.747057 -0.600548 19.5389
0.8017 -1.07738 22.6137
1.90828 -1.77542 20.6789
-0.437475 0.283086 19.7114
0.0768374 -0.590505 21.7967
-0.677443 0.497898 17.6067
-0.370883 -0.257245 21.5343
-1.12322 1.58798 15.7613
-1.27395 0.477393 20.831
-1.97906 1.73721 17.124
-1.98458 1.35252 12.4226
-1.67031 0.6921 20.0837
-2.27466 1.16688 13.6481
-1.4943 0.234209 20.5933
0.964225 -0.283725 18.5426
0.929506 -0.479274 19.3069
-2.56463 0.893478 12.369
-1.30241 -0.640783 6.25637
-2.01014 -0.000501431 18.5298
-2.00351 0.0367079 10.6877
-1.97161 -0.397787 19.965
0.685448 0.590708 19.039
0.983586 0.0969669 19.1585
-0.985924 -1.16293 8.26986
-0.148298 -0.912075 16.1032
-0.979124 -1.10929 19.5958
-0.146304 -1.26596 18.0981
-1.34606 -1.38573 19.2287
0.715448 1.08828 19.5035
0.536318 0.486847 19.6889
1.27166 1.7371 20.2511
1.06484 1.01996 20.0115
1.37497 1.44827 21.8397
1.44724 1.04008 20.9811
0.432471 0.0907081 21.7188
0.710397 0.252956 21.7215
0.20155 -0.325424 21.5954
0.207103 -0.257509 21.486
0.0286761 -0.651086 21.6297
-0.0410133 -0.568287 21.3848
-0.0527642 -0.561348 21.9203
1.08997 -0.666714 19.9972
0.765584 -0.349232 19.7667
0.953216 -0.778934 21.3108
1.67762 -0.883605 20.5359
0.0983253 -0.380322 21.5037
0.52412 -0.623502 21.54
-0.406616 -0.122493 21.6534
-0.0792281 -0.34449 21.5903
-1.05421 0.0902102 21.4271
-0.847584 -0.118081 21.6178
-1.1116 0.0444633 21.2127
-1.24605 -0.0558875 21.2563
-1.5843 0.0863768 20.4122
1.42783 -0.532282 19.8043
0.878041 -0.160699 19.607
1.41255 -0.786999 21.3698
2.17879 -0.338865 20.3535
0.233577 -0.537652 21.6055
1.02451 -0.643883 21.5571
-0.394461 -0.324611 21.7633
0.134819 -0.490371 21.7008
-1.11595 -0.254 21.4706
-0.754951 -0.595977 21.6176
-1.21851 -0.302257 21.333
-1.09635 -0.611228 21.3466
-1.05602 -0.425313 21.328
1.47724 0.143378 19.6459
0.712395 0.272412 19.7132
1.85015 -0.0914853 21.0382
1.48091 0.597099 20.148
0.840018 -0.528919 21.6592
1.50133 0.188728 21.1886
-0.0346873 -0.571317 21.7339
0.621485 -0.22873 21.6499
-0.634742 -0.807352 21.4877
0.0142023 -0.530868 21.5392
-0.94031 -0.752158 21.2973
-0.363181 -0.727914 21.2403
-0.565234 -0.591445 20.741
0.729624 0.493507 19.9683
1.09979 0.632744 20.5853
0.929526 0.330463 21.3642
0.310111 -0.134325 21.4864
-0.010009 -0.390153 21.3428
-0.171743 -0.452009 21.0298
-1.27091 -0.645241 19.905
-1.79667 -2.1694 18.4015
-1.39969 -1.21354 19.6312
-2.02128 -1.06133 19.0987
-0.851053 -0.565817 19.3893
-2.61251 -1.96769 20.6271
-1.17684 -0.808814 21.3582
0.330586 -0.176784 16.3141
-0.893132 -1.19577 21.8596
-1.79459 -1.67134 22.2561
0.0610965 -0.903605 21.441
-0.14571 -0.467521 21.5627
0.559435 0.28329 12.153
0.232563 -0.362003 21.6106
0.0765998 -0.770045 19.1423
0.352311 -0.440611 20.5756
0.422008 -0.218131 21.7193
0.172964 0.230656 9.239
0.699729 0.0235529 21.3203
0.586448 -0.287235 18.87
1.50532 0.309722 19.0421
1.12626 -0.0435612 21.4216
1.35724 1.18787 10.2516
1.50043 0.624741 20.5047
1.79911 -0.0487204 17.7351
2.0001 0.329204 19.6353
1.19354 -0.109311 21.2051
2.42072 1.52953 14.3062
1.70087 0.755603 19.9639
2.16344 -0.0423866 19.3348
1.74833 -0.0738385 20.2629
-1.56979 -0.250091 19.6886
-2.76954 -0.749576 16.6136
-2.16114 0.368071 18.8001
-1.02238 -0.19148 19.1161
-4.33649 -0.613569 20.1995
-1.72812 -0.501546 21.2688
-2.8357 -0.0428608 21.459
-0.89937 -1.27079 20.4391
-0.49343 -0.596434 21.6825
-1.06708 -1.22092 21.2274
0.0563677 -0.59338 19.0677
0.266864 -0.481386 21.7907
0.125273 -0.610589 19.4761
1.34272 -0.675551 16.9535
0.96398 -0.618959 21.4842
0.325181 -0.891411 3.30161
0.678198 -1.10116 19.0481
1.71486 -0.800256 18.8681
1.15641 -0.560239 21.5178
2.38577 -0.671119 9.76343
1.19574 -1.16706 19.8753
1.61799 -0.46759 18.1712
-1.11787 0.464434 19.7874
-1.38211 1.4755 18.6657
-0.798306 0.780502 19.7361
-0.778162 0.419154 19.3789
-2.00662 1.26419 19.8676
-1.59696 0.444161 20.7196
-2.63597 2.16463 20.2247
-1.30037 1.09677 20.4661
-2.50362 0.566293 21.2563
-1.10292 -0.0587233 21.5506
-3.10371 0.585464 21.4944
-1.18856 0.68055 21.5562
-0.952507 -0.231441 21.9803
-0.240779 -0.372144 21.5981
0.065785 0.129031 14.7008
-0.378387 -0.0765082 21.5898
-0.236374 -0.662643 21.5157
0.185222 -0.615931 21.4051
-0.0849972 -0.539903 15.3623
-0.0570991 -0.420921 21.4141
0.246691 -0.94387 21.4474
0.440788 -0.648995 21.3013
0.412128 -1.14132 17.7746
0.165564 -0.626093 21.1852
0.353714 -1.10825 21.4984
1.81334 -2.1257 18.4519
0.0215293 -3.1057 18.2991
0.0361647 -3.30338 15.8538
0.0180018 -1.06527 18.5149
0.0247374 -8.66101 22.238
-0.326779 -0.193335 16.4427
0.0170454 -1.65472 21.8688
-0.00933599 0.069568 4.1407
-0.557503 0.286098 12.3109
-0.00816808 -0.0247541 12.8844
0.00118661 0.150398 4.80784
-0.175134 0.226196 9.17556
-0.00425686 0.228212 9.97878
-0.0239979 0.192605 1.53471
-1.31523 1.13239 10.0083
-0.016888 0.814203 8.70006
-0.0357077 -0.303262 0.760951
-0.000719097 0.69667 3.99703
-2.41605 1.55318 14.1924
0.00222416 2.3029 11.3579
0.0306132 1.57925 2.00298
0.0531178 2.13054 8.21664
2.76931 -0.727548 16.7441
0.0300237 1.63187 14.6692
0.0351436 -0.387491 17.8099
-0.244944 -0.92621 2.89372
0.0288055 0.763518 -3.68725
0.0947154 1.24768 -1.9069
-2.34743 -0.575402 9.15745
0.0901528 2.8934 -6.03996
0.171112 1.81413 3.25257
1.39617 1.42621 18.6998
0.0124316 1.44858 19.2131
0.0132455 0.815074 18.5817
0.0183649 4.39506 18.7734
2.63679 2.15278 20.2235
0.00391569 2.58896 19.9559
-0.0287266 6.32784 18.1451
2.99284 0.64836 20.8046
-0.0390252 2.75117 22.3029
-0.000216215 0.247909 9.1664
-0.207142 0.208551 13.3403
-0.0344967 0.413909 21.8387
-0.101581 0.609059 2.45598
0.078295 -0.475255 14.3413
-0.0322891 -0.0431881 21.5698
-0.0917823 0.116434 5.21619
-0.344118 -1.14202 17.1931
-0.0254652 -0.560502 21.5819
-0.0908294 -0.52134 8.63109
1.27161 -0.637931 19.9139
1.39486 -1.18434 19.6541
1.99947 -1.03147 19.1382
0.85829 -0.553605 19.4054
2.61706 -1.96621 20.6239
1.18003 -0.804779 21.3481
0.907371 -1.18395 21.8373
1.79303 -1.66316 22.258
-0.0185524 -0.927507 21.5509
0.149218 -0.466056 21.5551
-0.202982 -0.380743 21.6443
-0.0754417 -0.77242 19.1747
-0.343245 -0.443615 20.6546
-0.417052 -0.220851 21.7086
-0.693868 0.0167319 21.3186
-0.584622 -0.297779 18.9484
-1.50089 0.296535 19.0289
-1.12222 -0.0516046 21.4202
-1.49922 0.634696 20.3891
-1.78855 -0.0610238 17.6249
-2.02482 0.330413 19.4878
-1.19839 -0.111721 21.2132
-1.72883 0.784815 19.8089
-2.17965 -0.00388382 19.1873
-1.73221 -0.0817033 20.2734
1.53244 -0.256173 19.678
2.14451 0.359429 18.8466
1.01672 -0.188129 19.1481
4.34699 -0.606497 20.2109
1.73413 -0.503682 21.2698
2.82995 -0.0593299 21.4356
0.88606 -1.27696 20.4058
0.492992 -0.596975 21.6768
1.06391 -1.21489 21.1915
-0.0569593 -0.598532 19.1292
-0.262585 -0.482386 21.7786
-0.127206 -0.639218 19.5819
-1.33403 -0.684026 17.234
-0.95244 -0.626361 21.4748
-0.648566 -1.10056 18.8234
-1.71531 -0.81513 18.5771
-1.16338 -0.581184 21.5481
-1.19867 -1.18659 19.5779
-1.6452 -0.458419 17.7366
1.10756 0.454661 19.7982
0.801026 0.765892 19.7472
0.77664 0.405208 19.4021
1.99412 1.23982 19.8828
1.59747 0.446253 20.7182
1.29988 1.09451 20.4655
2.53758 0.581468 21.2513
1.12444 -0.0581595 21.5633
1.21352 0.7147 21.5748
0.987178 -0.226964 22.0097
0.249639 -0.377148 21.6082
0.39162 -0.0590027 21.6068
0.27384 -0.659227 21.4691
-0.165501 -0.625588 21.4161
0.0814493 -0.417078 21.4347
-0.219839 -0.946975 21.3207
-0.432375 -0.675304 21.2969
-0.136415 -0.640152 21.3256
-0.278009 -1.20479 21.707
-1.70275 -1.22104 19.3926
-1.17383 -1.48963 22.0845
0.27128 -0.622951 20.763
0.690501 -0.13244 20.0304
1.77282 0.306194 19.3486
1.89823 0.475428 19.2191
-2.31161 -0.378908 18.751
-2.64772 -0.93424 21.8732
-0.210915 -1.01591 19.4694
0.383903 -0.370118 18.7822
1.44788 -0.867427 17.8845
1.87325 -0.750674 17.7667
-1.38833 0.853433 19.336
-2.21845 0.980069 20.6234
-1.81814 0.0452157 21.9875
-0.478297 -0.454547 21.8001
0.000797565 -0.774045 21.3547
0.422924 -1.11059 21.4486
0.0262404 -3.37648 17.2441
-0.00102449 -0.226533 8.39537
-0.00772051 0.0180456 4.63305
-0.00394601 0.0797572 3.96911
-0.043557 0.0998964 3.00018
0.00856883 2.14828 6.80473
0.0316672 -1.06387 14.1043
0.0173999 0.163302 -1.30295
0.140969 1.8678 -1.12452
0.0197425 2.26237 17.8176
0.00144865 3.9247 19.5233
-0.0229267 1.69396 12.861
-0.0138307 -0.120999 6.78262
-0.126777 0.108753 3.8449
-0.0831607 -0.584728 8.09672
1.70071 -1.18546 19.4099
1.1813 -1.46985 22.0688
-0.250453 -0.635996 20.8519
-0.686138 -0.1425 20.0478
-1.77644 0.301809 19.2451
-1.9192 0.512226 19.0595
2.29245 -0.372094 18.7953
2.63998 -0.926232 21.8631
0.205018 -1.01835 19.4947
-0.382094 -0.38373 18.8609
-1.43038 -0.883817 17.7378
-1.91449 -0.786196 17.3505
1.37782 0.830624 19.3695
2.217 0.976662 20.6229
1.86102 0.0545607 22.0103
0.508234 -0.455408 21.8091
0.0276961 -0.748423 21.156
-0.421453 -1.14415 21.1758
-4.32043 -1.0949 4.26854
-0.122385 -2.12257 3.92278
0 0 0
-0.0261971 -0.0107304 -0.00395988
-0.00247479 -0.00860026 -0.00706575
0.218407 0.339649 3.10126
-6.29765 0.53814 5.03964
-0.595045 3.11785 2.47019
-0.697995 -0.140727 2.56558
-0.123716 -0.140811 -0.0027654
-0.503007 -0.141673 -0.292895
0.000634782 -0.00285273 0.0229411
0.136209 -2.16484 3.97473
4.27812 -1.08052 4.2346
0 0 0
0.00149034 -0.00881883 -0.00722985
0.0247204 -0.0115073 -0.00350493
-0.22476 0.337865 3.12698
0.821495 3.87593 2.53601
5.37378 0.303543 4.36891
0.702417 -0.139848 2.57987
0.463616 -0.116518 -0.354774
0.129786 -0.153754 -0.00300819
-0.000552189 -0.00300378 0.0225251
0.00184532 0.0023912 0.08076
0 0 0
0 0 0
0.000610389 7.66186e-05 0.00208113
-0.0073771 0.0534251 0.443174
0 0 0
-0.00023903 0.000396006 0.00639006
0 0 0
-0.350044 -0.231966 0.765693
-0.00234818 -0.0184621 0.17561
0.0413212 0.0748424 0.171928
-0.0161749 0.00502257 0.0162673
0 0 0
0.00672128 0.0476675 0.195239
5.58322e-18 1.07515e-17 2.531e-17
0.00797792 7.75753e-05 0.0739557
-0.00173913 0.00248221 0.0784753
-0.000862513 8.64354e-05 0.0032407
0 0 0
0 0 0
0.00685141 0.0530775 0.439694
-0.000484613 0.000188975 0.0042784
0 0 0
0.000240174 0.000390455 0.00639231
0.351708 -0.232793 0.770699
0.0156792 0.00499843 0.0160364
0.00231785 -0.0182665 0.176667
-0.042654 0.0765593 0.170873
-1.30144e-17 1.84613e-17 1.07352e-16
-0.00816911 0.0001091 0.0740764
-0.00657346 0.047442 0.193217
0 0 0
0 0 0
-0.564297 -0.300351 0.452976
-9.86532e-07 -1.5058e-05 -5.3627e-05
-4.98499e-06 9.32808e-05 -3.11774e-05
-0.00229972 -0.00309348 0.0364493
2.43164e-06 1.57791e-07 1.18678e-06
0 0 0
-0.0268705 -0.0518527 0.00324852
-3.68113e-06 6.77923e-05 0.00221153
0 0 0
2.21694e-05 3.65644e-05 0.000874963
1.00231e-05 3.3798e-06 0.000214728
0 0 0
0.000647433 0.00475162 0.0244192
-0.214394 -0.134879 0.86043
0 0 0
-0.00023765 -0.00384224 -0.000752704
6.89422e-06 0.000161634 -0.000231787
0.000919918 -0.00165891 0.0385054
-0.0346191 -0.0336035 0.148293
0.56224 -0.308861 0.449739
0 0 0
1.85296e-05 -1.175e-06 -1.05696e-05
0.00199654 -0.00313735 0.0319257
0.0245618 -0.0628395 0.00303874
0 0 0
-9.03103e-06 2.93095e-06 0.000187032
-8.99486e-05 0.000141191 0.0034985
0 0 0
0.215526 -0.134529 0.869514
0.0319988 -0.0322801 0.145631
-0.000923145 -0.00159888 0.0381145
0 0 0
0 0 0
0.00431953 -0.13511 1.84275
8.33713e-05 0.00216069 0.0175084
-4.51647e-06 5.76755e-05 0.00107413
0 0 0
0.000127611 0.00719235 0.0418707
-2.56586e-18 7.79993e-18 1.88352e-17
2.97981e-06 6.9711e-05 0.0056605
3.48734e-06 4.05598e-06 0.000381066
0.00980458 0.0438248 0.176141
-0.00321734 0.0218953 0.234847
0 0 0
0.000682825 0.671636 1.74874
-5.43177e-06 0.000101546 0.00476179
0 0 0
0 0 0
0 0 0
-0.00667338 -0.13774 1.83062
-8.22911e-05 0.00219224 0.0177461
-0.000131546 0.00728927 0.0423039
0 0 0
0.00303961 0.0214216 0.231838
-0.0097367 0.0436945 0.176891
-0.186271 -0.0664032 0.50335
0 0 0
0 0 0
-0.0208064 -0.0722023 0.175551
0 0 0
0.00100943 0.027114 0.152531
0 0 0
0.026226 0.114899 0.339404
-0.0729032 -0.0208505 0.331389
0.00497555 0.0183393 0.0793302
0.108936 0.0159008 0.504901
0.000104759 -0.00141206 0.00582322
-2.17255e-06 -5.35664e-05 0.000754538
3.09038e-06 -3.40193e-05 0.000492273