# vtk DataFile Version 2.0
tri_press
ASCII
DATASET UNSTRUCTURED_GRID
POINTS 3682 float
-0.662302 0.145 -1.785
-0.690405 0.385 1.915
-0.711061 0.725 -1.825
-0.655 0.935 1.89488
0.662306 0.145 -1.785
0.690405 0.385 1.915
0.711061 0.725 -1.825
0.655 0.935 1.89488
-0.675454 0.221216 -0.551667
-0.737199 0.248839 0.681667
-0.758569 0.861195 -0.58504
-0.731919 0.923232 0.65492
0.675449 0.221223 -0.551667
0.737152 0.248887 0.681667
0.758578 0.861204 -0.58504
0.731915 0.923228 0.65492
-1.37438 -0.235751 -2.75809
-1.37411 -0.162164 -1.76876
-1.38959 -0.0960847 -0.535602
-1.42405 -0.0541893 0.696226
-1.40832 0.0467928 1.92928
-1.40064 0.116434 2.91805
-1.40453 0.171775 3.90784
-1.37657 0.0675316 -2.7757
-1.38017 0.147814 -1.78566
-1.39958 0.225493 -0.551207
-1.43207 0.258111 0.682648
-1.39288 0.351143 1.91697
-1.39083 0.419268 2.90584
-1.40085 0.475386 3.89541
-1.39954 0.669375 -2.8128
-1.42444 0.749158 -1.82303
-1.45711 0.863245 -0.584059
-1.43744 0.912238 0.65538
-1.37454 0.941569 1.89422
-1.3828 1.00872 2.88281
-1.40095 1.07526 3.87132
-1.41904 1.61719 -2.86346
-1.43402 1.6991 -1.8727
-1.45224 1.80211 -0.631578
-1.45222 1.86949 0.610968
-1.43592 1.90969 1.85202
-1.42764 1.95142 2.84263
-1.4282 2.00597 3.83186
-0.674509 -0.237649 -2.75766
-0.67235 -0.163064 -1.76814
-0.678549 -0.0983927 -0.535686
-0.717341 -0.0591924 0.695388
-0.709154 0.0650442 1.92781
-0.703251 0.129271 2.91705
-0.7063 0.17836 3.90726
-0.671655 0.0629731 -2.77557
-0.697036 0.432051 2.90502
-0.704642 0.481206 3.89498
-0.687541 0.657855 -2.81362
-0.689904 1.00907 2.88294
-0.706081 1.07615 3.87134
-0.702302 1.61096 -2.86427
-0.713021 1.6941 -1.87359
-0.731269 1.80268 -0.632116
-0.739851 1.87175 0.611033
-0.733406 1.90837 1.85248
-0.727822 1.9489 2.84309
-0.728216 2.004 3.8322
0.698031 -0.237646 -2.75766
0.67835 -0.163061 -1.76814
0.695763 -0.0983814 -0.535686
0.726052 -0.0591586 0.695388
0.694732 0.0650569 1.92781
0.689334 0.129281 2.91705
0.688455 0.178371 3.90726
0.700906 0.0629754 -2.77557
0.682314 0.432058 2.90502
0.683895 0.481215 3.89498
0.718805 0.657857 -2.81362
0.669098 1.00908 2.88294
0.676079 1.07616 3.87134
0.728551 1.61096 -2.86427
0.729143 1.6941 -1.87359
0.720166 1.80269 -0.632116
0.69587 1.87175 0.611032
0.67389 1.90838 1.85248
0.66949 1.9489 2.84309
0.669664 2.00401 3.8322
1.39309 -0.235742 -2.75809
1.37773 -0.162154 -1.76876
1.39867 -0.096062 -0.535602
1.43339 -0.0541408 0.696226
1.40718 0.0468251 1.92928
1.39352 0.116458 2.91805
1.39038 0.171798 3.90784
1.3956 0.0675386 -2.7757
1.37761 0.147821 -1.78566
1.39788 0.225511 -0.551207
1.43718 0.25816 0.682648
1.39931 0.351171 1.91697
1.38458 0.419288 2.90584
1.38424 0.475408 3.89541
1.42006 0.669382 -2.8128
1.42251 0.749165 -1.82303
1.45247 0.863258 -0.584059
1.43743 0.912254 0.65538
1.37642 0.941586 1.89422
1.36907 1.00874 2.88281
1.37464 1.07527 3.87132
1.44051 1.6172 -2.86346
1.44402 1.69911 -1.8727
1.43938 1.80212 -0.631578
1.41416 1.8695 0.610968
1.38473 1.9097 1.85202
1.37436 1.95144 2.84263
1.37237 2.00599 3.83186
-0.725007 0.435 -1.84333
1.99676e-06 0.1416 -1.7884
-0.68954 0.162446 -1.16833
-0.637033 0.66 1.86927
0 0.366767 1.93323
-0.789481 0.24124 1.29833
0 0.746365 -1.84637
-0.748004 0.806287 -1.20502
0 0.957166 1.91705
-0.713083 0.948739 1.2749
0.725008 0.435 -1.84332
0.689449 0.16254 -1.16833
0.637036 0.66 1.86927
0.789565 0.241157 1.29833
0.748007 0.80629 -1.20502
0.713068 0.948724 1.2749
-0.698119 0.243235 0.065
-0.798298 0.541205 -0.568353
-2.39883e-06 0.17798 -0.551667
-0.803781 0.586035 0.668293
-2.35188e-05 0.196433 0.681667
-0.753924 0.900893 0.03494
4.31478e-06 1.12188 -0.58504
-1.94402e-06 1.41717 0.65492
0.698046 0.243309 0.065
0.798297 0.541214 -0.568353
0.80379 0.586058 0.668293
0.753924 0.900893 0.03494
-0.835598 0.488103 -1.18668
0.835607 0.488107 -1.18668
-2.01035e-07 0.151482 -1.16833
2.15739e-06 0.886167 -1.20502
9.98378e-07 0.435 -1.94957
-0.802309 0.56362 0.04997
0.80231 0.563636 0.04997
-1.29588e-05 0.168303 0.065
1.18538e-06 1.40551 0.03494
-0.869649 0.623018 1.28662
0.869656 0.623029 1.28662
-1.17594e-05 0.203974 1.29833
-9.72012e-07 1.36821 1.2749
0 0.66 1.85788
-0.672384 0.29 -1.79289
-0.33115 0.141605 -1.7884
-0.675783 0.153861 -1.47667
-0.63035 0.5225 1.85877
-0.345203 0.369255 1.93074
-0.79907 0.253993 1.60667
-0.7051 0.58 -1.82123
-0.355531 0.740713 -1.84071
-0.735323 0.771434 -1.51501
-0.660206 0.7975 1.89626
-0.3275 0.953251 1.91313
-0.704028 0.961857 1.58489
0.331154 0.141594 -1.78841
0.672294 0.29 -1.7928
0.675531 0.154117 -1.47667
0.345203 0.369259 1.93074
0.630393 0.5225 1.85881
0.799348 0.253715 1.60667
0.355531 0.74059 -1.84059
0.705597 0.58 -1.82173
0.735315 0.771426 -1.51501
0.3275 0.953257 1.91314
0.660237 0.7975 1.8963
0.704026 0.961854 1.58489
-0.702602 0.171726 -0.86
-0.689531 0.22948 -0.243333
-0.794046 0.352626 -0.56001
-0.350636 0.173782 -0.551667
-0.776547 0.231832 0.99
-0.718293 0.245402 0.373333
-0.805429 0.399968 0.67498
-0.378856 0.202147 0.681667
-0.754285 0.83474 -0.89503
-0.802818 0.713392 -0.576697
-0.757794 0.882592 -0.27505
-0.420288 1.07355 -0.58504
-0.714866 0.928351 0.96491
-0.796199 0.768808 0.661607
-0.738909 0.90805 0.34493
-0.469199 1.37668 0.65492
0.702446 0.171884 -0.86
0.351208 0.172632 -0.551667
0.689505 0.229509 -0.243333
0.794048 0.352631 -0.56001
0.776554 0.231826 0.99
0.378874 0.202041 0.681667
0.718306 0.245391 0.373333
0.805434 0.399991 0.67498
0.754289 0.834744 -0.89503
0.420289 1.07354 -0.58504
0.802818 0.713399 -0.576697
0.757797 0.882594 -0.27505
0.714867 0.928352 0.96491
0.469195 1.37668 0.65492
0.79619 0.768812 0.661607
0.738909 0.90805 0.34493
-0.764271 0.461551 -1.515
-0.362503 0.435 -1.94699
8.9786e-07 0.147801 -1.47837
1.49757e-06 0.2883 -1.86351
-0.80821 0.325274 -1.17751
-0.34477 0.149642 -1.16833
-0.775548 0.641509 1.57794
-0.318517 0.66 1.8758
-5.8797e-06 0.207479 1.61578
0 0.513384 1.87512
-0.851663 0.432129 1.29248
-0.394746 0.204417 1.29833
1.0787e-06 0.836385 -1.52569
4.99189e-07 0.590683 -1.83067
-0.845435 0.647195 -1.19585
-0.374001 0.876516 -1.20502
-4.86006e-07 1.08143 1.59597
0 0.808583 1.87937
-0.778805 0.785878 1.28076
-0.356542 1.35868 1.2749
0.764381 0.461553 -1.515
0.362504 0.435 -1.94699
0.808216 0.325323 -1.17751
0.344725 0.149642 -1.16833
0.775394 0.641514 1.57794
0.318518 0.66 1.87655
0.851706 0.432093 1.29248
0.394776 0.204418 1.29833
0.845494 0.647198 -1.19585
0.374005 0.876519 -1.20502
0.7788 0.785877 1.28076
0.356533 1.35867 1.2749
-0.806188 0.375441 0.057485
-0.368078 0.167744 0.065
-0.869111 0.514654 -0.877515
-0.800397 0.552413 -0.259192
-1.29993e-06 0.155161 -0.86
-7.67882e-06 0.176365 -0.243333
-0.803946 0.574828 0.359132
-0.811311 0.604527 0.977455
-1.82388e-05 0.170396 0.373333
-1.76391e-05 0.196963 0.99
-0.800399 0.743398 0.042455
-0.482859 1.365 0.03494
3.23609e-06 0.91729 -0.89503
2.75008e-06 1.36766 -0.27505
-3.79322e-07 1.41807 0.34493
-1.45802e-06 1.40267 0.96491
0.806179 0.375472 0.057485
0.368048 0.167744 0.065
0.869016 0.51466 -0.877515
0.8004 0.552425 -0.259192
0.803946 0.574847 0.359132
0.811326 0.604543 0.977455
0.800428 0.74342 0.042455
0.48286 1.365 0.03494
-0.772723 0.307637 -1.49583
-0.830243 0.353242 -0.868758
-0.800917 0.674198 -0.886273
-0.758193 0.613597 -1.51501
0.772717 0.307662 -1.49583
0.758199 0.613599 -1.51501
0.800901 0.674203 -0.886273
0.83026 0.353271 -0.868758
-0.33796 0.146709 -1.47752
0.337939 0.146709 -1.47752
0.341224 0.15259 -0.86
-0.341249 0.15259 -0.86
-0.364766 0.822758 -1.52035
-0.376642 0.912983 -0.89503
0.376648 0.912901 -0.89503
0.364768 0.822757 -1.52035
-0.346827 0.28915 -1.84405
-0.359017 0.585341 -1.86468
0.359017 0.585341 -1.86438
0.346829 0.28915 -1.8451
-0.801362 0.36341 -0.251263
-0.807975 0.386621 0.366233
-0.796848 0.755378 0.352031
-0.803095 0.729139 -0.267121
0.801364 0.363426 -0.251263
0.803075 0.729136 -0.267121
0.796845 0.755384 0.352031
0.807973 0.386648 0.366233
-0.358087 0.173303 -0.243333
0.35807 0.173303 -0.243333
0.378694 0.174426 0.373333
-0.378727 0.174426 0.373333
-0.504737 1.3256 -0.27505
-0.478713 1.37621 0.34493
0.478712 1.37621 0.34493
0.50474 1.3256 -0.27505
-0.862742 0.424783 0.983728
-0.833484 0.477315 1.59231
-0.758602 0.791689 1.58142
-0.790874 0.770256 0.971183
0.86274 0.424783 0.983728
0.790871 0.77026 0.971183
0.758585 0.791688 1.58142
0.833611 0.477297 1.59231
-0.381679 0.197763 0.99
0.38167 0.197766 0.99
0.369989 0.207179 1.61122
-0.369974 0.207177 1.61122
-0.361251 1.38401 0.96491
-0.342021 1.08241 1.59043
0.342017 1.08244 1.59043
0.361245 1.384 0.96491
-0.33186 0.517942 1.86961
0.33186 0.517942 1.86959
0.323009 0.803041 1.8755
-0.323008 0.803041 1.8755
-0.6541 0.2175 -1.7757
-0.496726 0.141605 -1.7884
-0.673868 0.144605 -1.63083
-0.686853 0.45375 1.91336
-0.517804 0.370595 1.9294
-0.714329 0.349905 1.76083
-0.711963 0.6525 -1.827
-0.533296 0.73472 -1.83472
-0.726286 0.751311 -1.67001
-0.657762 0.86625 1.89573
-0.49125 0.950108 1.90999
-0.689732 0.958647 1.73989
0.49673 0.141594 -1.78841
0.654185 0.2175 -1.77578
0.673959 0.144518 -1.63083
0.517804 0.370655 1.92935
0.686684 0.45375 1.91319
0.714351 0.349883 1.76083
0.533296 0.735052 -1.83505
0.712006 0.6525 -1.82704
0.726286 0.751311 -1.67001
0.49125 0.95011 1.90999
0.657731 0.86625 1.8957
0.689198 0.958112 1.73989
-0.69494 0.190559 -0.705833
-0.685238 0.222603 -0.3975
-0.795383 0.256604 -0.555838
-0.526218 0.171153 -0.551667
-0.746724 0.250484 0.835833
-0.727639 0.247228 0.5275
-0.890698 0.264711 0.678323
-0.567827 0.205894 0.681667
-0.756627 0.848167 -0.740035
-0.783278 0.788586 -0.580868
-0.758672 0.872384 -0.430045
-0.613537 1.01559 -0.58504
-0.723539 0.925937 0.809915
-0.771822 0.849902 0.658263
-0.734436 0.914663 0.499925
-0.614271 1.17738 0.65492
0.694581 0.19092 -0.705833
0.526562 0.170462 -0.551667
0.685236 0.222607 -0.3975
0.795393 0.256605 -0.555838
0.746809 0.2504 0.835833
0.568418 0.204654 0.681667
0.727654 0.247214 0.5275
0.890772 0.264699 0.678323
0.756624 0.848164 -0.740035
0.613544 1.01559 -0.58504
0.783373 0.788639 -0.580868
0.758668 0.87238 -0.430045
0.72354 0.925939 0.809915
0.614271 1.17738 0.65492
[...]
POINT_DATA 3682
SCALARS point_scalars float 1
LOOKUP_TABLE default
-119.491
-43.3407
-45.4047
-39.6464
-119.339
-43.075
-56.3369
-39.1361
-41.8763
-36.393
-68.2609
-48.1384
-41.8493
-36.3176
-68.3555
-48.0451
-128.326
-53.3261
-40.6041
-36.1873
-60.8782
-43.3709
-43.0661
26.9756
-51.1039
-40.9389
-35.6951
-58.3086
-43.3709
-43.0468
36.9956
-74.7306
-55.0434
-41.7324
-45.9028
-41.2012
-40.4727
-82.3116
-73.9869
-101.414
-57.6163
-40.4977
-40.1379
-40.1379
-27.5576
-179.316
-42.4327
-38.1956
-57.2136
-41.7913
-40.6452
149.599
-41.2739
-40.6452
170.053
-38.0531
-38.0531
-41.4874
-69.611
-129.677
-58.1566
-42.6962
-38.0531
-38.0531
-10.4076
-181.444
-41.605
-37.1504
-56.7808
-41.7244
-40.4304
122.965
-40.9813
-40.4304
173.856
-37.3512
-37.3512
-46.0837
-65.2273
-127.79
-58.8062
-43.1033
-37.3512
-37.3512
-128.087
-58.5555
-40.5247
-36.1147
-60.649
-43.1025
-42.7667
25.7848
-52.3326
-40.8652
-35.6329
-58.056
-43.1025
-42.7667
-11.3404
-72.6561
-55.0228
-41.713
-45.4602
-40.48
-39.8991
-85.4796
-72.9089
-120.52
-57.5354
-40.1383
-39.6378
-37.3512
-75.2202
-232.978
-68.5099
-41.1943
-42.1753
-45.4998
-16.8485
-40.2628
-33.1146
-42.4533
-77.4606
-68.2477
-40.8688
-45.5866
-39.9381
-42.28
-36.5257
-46.8281
-47.72
-37.4623
-37.9877
-58.299
51.9404
-60.7332
-36.5181
-46.7054
-37.3911
-58.1623
-62.0022
-61.9152
-76.5584
-3.71031
201.078
-42.9173
-42.8708
-39.7606
-97.9081
-52.4498
-52.2473
-42.446
-41.2872
-38.5104
-64.2008
-233.747
-95.9001
-40.9742
-42.2566
-58.4365
-62.355
14.003
-46.485
-41.7224
-34.7978
-42.546
-233.123
-64.3578
-95.8661
-42.1982
-40.6599
-58.2507
-2.44611
-72.6948
-45.7508
-34.179
-41.2693
-42.2568
-56.881
-37.4474
-44.381
-46.0086
-45.6817
-36.2917
-35.0324
-37.09
-45.0534
-53.8477
-66.2958
29.4579
-44.0269
-41.7965
-50.7225
-56.9365
-56.8624
-46.0522
-37.4332
-44.2449
-45.6134
-37.2517
-36.285
-34.9517
-44.9022
29.7111
-53.8092
-66.2328
-43.9276
-56.8568
-41.7677
-50.605
-44.2745
190.485
-107.99
148.076
-62.8973
-75.1188
-51.5019
-38.7839
-46.9167
-38.3778
-48.9994
-42.6784
-35.1574
187.019
-51.9502
-10.7348
-33.1192
-36.2439
-47.6422
-42.859
-44.3589
190.257
-63.0295
-74.7495
-51.2113
-38.489
-48.8433
-42.6466
-51.693
-10.5298
-47.4278
-42.6541
-40.91
-39.1815
-59.7641
-44.6008
-58.4148
-41.2875
-40.0709
-36.5318
-39.8642
-39.8406
-48.7751
-86.9631
22.3909
-122.472
-74.5286
-50.4567
-40.8612
-39.2135
-59.7333
-44.5372
-40.034
-36.3499
-48.691
-87.006
-53.1101
-53.0501
-54.4698
-53.6618
-53.4562
-52.7938
-54.3678
-53.5963
-105.338
-105.223
-57.6903
-57.7141
-37.5979
10.7928
11.0003
-37.1291
136.571
179.977
180.87
133.988
-41.5108
-38.0842
-44.4374
-52.3269
-41.4446
-52.2556
-44.4129
-38.0036
-40.1854
-40.1801
-39.7464
-39.7933
-117.774
-68.3782
-68.3135
-117.834
-43.0226
-57.2047
-47.1179
-42.3252
-42.9145
-42.2472
-46.7456
-56.9509
-39.9512
-39.9419
-48.3938
-48.477
-49.2336
-34.6915
-34.368
-49.1353
-39.3765
-39.1228
-36.8761
-37.3606
-52.7138
-200.454
-116.067
-42.1035
-42.2361
-48.388
-34.2896
-14.6893
-75.8063
-41.5951
-36.1216
-40.1778
-194.239
-52.4166
-116.257
-42.0965
-41.7934
-48.1445
-11.2768
-60.2437
-73.9232
-35.482
-41.0583
-39.7369
-53.5815
-38.445
-42.5841
-43.783
-34.1835
-35.5405
-35.9685
-37.143
-55.3868
-59.9842
-72.4625
-20.4091
-46.3313
-44.4223
-48.4503
-51.9217
-53.4132
-43.9414
-38.4244
-42.5527
-34.2351
-37.2021
-35.4926
-35.9071
-55.2949
-19.1354
-60.0566
-72.7673
-46.2379
-51.8164
-44.3625
-48.3544
-77.8704
-80.2357
-79.2942
162.096
-245.544
-244.455
-141.403
58.2278
-80.3427
-60.8993
-62.5375
-71.6872
-41.1847
-41.1285
-47.2821
-39.6198
-42.2534
-42.1401
-45.4214
-39.972
-48.4812
-42.0825
-47.3997
-43.1588
29.4524
25.8699
-68.5215
158.994
-43.2324
-42.2038
-45.7011
-20.7389
-33.6348
-33.2759
-33.3552
-35.5481
-45.9231
-42.6203
-45.6637
-45.1643
-78.0668
-82.6863
-79.009
163.34
-79.9764
-60.8451
-63.6724
-71.4174
-40.8807
-40.8225
-46.9541
-39.2866
-48.3036
-41.7387
-47.2519
-43.081
-42.8095
-41.9195
-45.4714
-20.5757
-45.4705
-42.4978
-45.4715
-44.9185
-36.8391
-36.1721
-38.7796
-36.9929
-45.0012
-49.4525
-51.6832
-45.2878
-47.369
-47.3112
-52.1629
-43.8708
-36.0195
-39.1668
-38.7007
-36.0584
-37.723
-37.8628
-40.364
-38.2368
-61.8667
-54.2294
-52.9298
-70.3428
46.4751
46.6282
38.1939
24.8658
-59.8274
-59.7815
-66.9897
-55.4329
-36.8406
-36.1684
-38.7623
-37.0022
-44.8507
-49.3609
-51.5011
-45.2069
-35.9378
-39.1229
-38.6539
-35.9594
-61.713
-54.1022
-52.7715
-70.3232
-70.0479
-62.868
-62.8946
-57.6053
-69.7478
-62.8596
-62.7679
-57.5587
-90.6355
-76.2498
-76.2212
-66.0838
-18.2835
-5.70442
-5.56003
9.19867
198.444
157.155
182.91
198.59
-41.5564
-43.8884
-41.5714
-45.1739
-41.5079
-43.8339
-41.5292
-45.1296
-39.6553
-39.629
-39.6463
-39.6669
-96.0523
-122.726
-84.2891
-96.0012
-56.5308
-51.015
-50.0324
-44.6335
-56.2805
-50.8258
-49.8488
-44.4563
-44.3989
-42.4782
-42.4698
-41.3093
-34.7096
-40.839
-40.7615
-45.4974
-38.625
-38.5803
-38.2721
-38.4351
-82.4246
111.378
-140.351
93.2959
-52.9876
-100.415
-47.2071
-39.7684
-46.9265
-39.8135
-58.1611
-51.9052
-86.483
167.921
-66.4158
137.605
-53.5081
-40.0331
-45.1175
-38.4388
-34.8397
-36.7094
-44.8235
-35.7307
-140.427
92.15
-82.2509
111.194
-53.8212
-100.344
-46.8185
-39.6011
-46.9046
-39.4834
-57.9089
-51.7992
-65.0756
144.217
-83.3892
168.572
-52.6952
-39.4948
-34.4039
-36.0391
-44.7536
-37.9117
-44.6843
-35.3964
-56.1217
-57.0442
-38.9373
-37.8242
-54.7968
-41.7434
-51.4992
-42.753
-50.5369
-40.8081
-35.9151
-38.7399
-36.8048
-30.8501
-40.589
-36.8869
-51.1191
-6.34244
-53.0803
-53.6689
-58.6171
-98.9538
18.9383
16.867
-42.9573
-47.3722
-42.3118
-41.733
-46.8322
-57.4545
-62.5166
-52.4878
-56.1832
-56.999
-51.4404
-42.731
-38.9312
-37.8033
-54.2405
-41.6541
-50.3992
-40.7358
-40.6348
-36.5675
-35.8517
-38.7393
-36.7481
-30.7373
-51.0421
-6.1052
19.2199
16.8611
-53.015
-53.6583
-58.5419
-98.656
-42.8743
-47.2493
-62.4382
-52.4032
-42.3
-41.6891
-46.8595
-57.3677
-47.1616
-49.7707
138.996
179.11
-107.079
-106.988
142.001
139.152
-71.4127
-58.1543
-88.3715
-64.8978
-54.8401
-49.8577
-39.4537
-38.4348
-47.2372
-47.276
-38.6426
-38.4825
-48.5477
-53.4244
-41.3879
-45.1104
-36.1978
-36.0108
183.648
185.213
-55.7728
-41.8599
-21.9933
1.01617
-33.6706
-33.4546
-36.461
-36.7395
-49.0105
-44.6498
-46.7962
-36.1758
-48.0033
-49.2879
179.957
138.508
-71.3786
-58.0489
-88.2591
-64.8568
-49.5674
-54.574
-39.2348
-38.0676
-48.4099
-53.1972
-41.3718
-45.0613
-41.284
-55.7737
1.27122
-21.7197
-44.5201
-48.7121
-35.9665
-46.6562
-40.9891
-39.908
-38.5588
-38.8743
-53.5738
-57.8005
-42.6475
-47.6418
-58.243
-58.2497
-41.0564
-41.0547
-38.8064
-41.7838
-34.938
-40.492
-39.8558
-39.8274
-39.8099
-39.8338
-46.4469
-50.7397
-111.036
-75.7134
19.0004
19.0259
-112.031
-110.299
-73.2213
-73.182
-50.2071
-50.1542
-40.9225
-39.8626
-38.5438
-38.8896
-57.8455
-53.6339
-42.5805
-47.5757
-41.7744
-38.7544
-34.7658
-40.386
-50.639
-46.3716
-75.627
-110.868
-91.741
-74.1967
-70.8669
-78.4867
-53.3093
-55.4566
-57.6455
-57.9207
-54.2077
-51.7355
-60.426
-52.258
-82.3394
-86.003
-55.7664
-45.0346
-90.9023
-78.3498
-70.711
-74.1809
-78.6724
-44.5508
-55.3243
-84.9151
-54.1277
-52.165
-60.2752
-51.609
-53.1962
-57.6945
-57.5716
-55.2896
-136.478
-141.127
-90.2786
-84.1288
-136.463
-83.8192
-90.2427
-141.208
-51.0984
-51.9804
-65.877
-62.6953
-51.2124
-62.7405
-65.8962
-51.9666
-64.3911
-28.6084
-19.2545
-70.2727
-6.50766
33.5907
7.21505
-12.2937
-6.13281
-12.1313
7.33573
33.4781
-63.3899
-69.8719
-19.0999
-28.3988
90.2071
110.439
144.409
85.6077
139.516
153.633
183.246
154.246
141.959
155.938
182.965
155.406
90.1239
72.2388
148.075
110.013
-40.327
-38.2319
-42.1198
-43.1196
-34.7827
-37.509
-40.386
-38.7773
-45.5098
-49.7695
-43.4599
-40.2562
-61.0458
-48.6321
-46.5514
-55.8694
-40.327
-43.0288
-42.0652
-38.2249
-61.1393
-55.7132
-46.4918
-48.5714
-45.4224
-40.2407
-43.4202
-49.6293
-34.727
-38.7418
-40.3394
-37.4481
-39.6084
-43.587
-39.2728
-36.6313
-39.5528
-36.6318
-39.2702
-43.5846
-39.1997
-40.3487
-39.5968
-36.5563
-39.3415
-36.5395
-39.5797
-40.3114
-120.765
-80.5965
-122.435
26.9386
-56.3665
-65.8332
-82.6676
-62.7106
-56.2375
-62.6575
-82.6335
-65.7919
-119.877
26.7167
-122.317
-80.6065
-34.6537
-45.6466
-50.2932
-32.8893
-48.0229
-47.3213
-54.2197
-51.6685
-43.5725
-47.0512
-52.9405
-46.7647
-43.6621
-38.6689
-44.8674
-43.5749
-34.6093
-32.7574
-50.1261
-45.5314
-43.5996
-43.4556
-44.7148
-38.5935
-43.2038
-46.4039
-52.6589
-46.5498
-47.754
-51.4711
-53.9606
-47.013
-35.72
-38.0077
-41.2848
-41.9161
-35.7599
-41.8502
-41.2928
-37.6388
-48.4326
-46.0357
-44.5289
-46.153
-48.6393
-46.2215
-44.5498
-46.1274
-47.9916
-45.3566
-45.9931
-54.6671
-35.8339
-33.9195
-35.1329
-38.5018
-35.3898
-38.3298
-34.9908
-33.674
-47.9019
-54.6171
-45.9167
-45.1976
-39.7198
-40.0297
-38.8671
-39.8777
-39.4499
-39.597
-38.6926
-39.928
-37.9779
-35.6857
-38.3272
-38.659
-38.6378
-39.0946
-38.5258
-36.0303
-52.2959
-131.586
-163.406
-42.8757
-42.7849
-45.111
-11.5136
-16.5553
-118.582
-40.5492
-38.0782
-38.6131
-131.932
-51.9643
-163.404
-42.5582
-42.5915
-44.876
-25.6056
-26.6108
-111.344
-37.4005
-40.004
-38.1662
-46.1333
-39.5962
-42.0443
-42.122
-35.6829
-36.4838
-36.3207
-37.4493
-64.3248
-63.8974
-71.2813
-76.4706
-47.2816
-46.1702
-48.2899
-49.0857
-46.0607
-42.2006
-39.5703
-42.0109
-35.7245
-37.3838
-36.3848
-36.2701
-64.2828
-75.7561
-64.0388
-71.6907
-47.1831
-49.0031
-46.0977
-48.2361
-89.5344
-72.5764
-117.434
95.7717
-239.427
-238.956
-182.627
-31.003
-74.0565
-64.2191
-67.3369
-69.5794
-41.1662
-41.0521
-46.1605
-39.9684
-42.1683
-42.1992
-43.6637
-41.3764
-46.7667
-43.3518
-46.4598
-43.5419
24.0977
9.5317
-113.159
126.73
-42.1721
-41.9775
-46.4074
-29.0076
-33.3075
-33.1298
-34.2905
-34.0842
-44.2845
-42.0819
-44.2173
-42.7536
-89.2929
-73.7376
-117.161
95.3539
-73.6196
-64.075
-68.1835
-69.4859
-40.8598
-40.7237
-45.808
-39.6548
-46.6281
-43.275
-46.3147
-43.4414
-41.7923
-41.6932
-46.1534
-28.7294
-43.9947
-41.9436
-44.0432
-42.5457
-36.6458
-35.9696
-36.8051
-36.5857
-45.8614
-47.867
-48.6287
-45.8506
-47.6083
-47.5938
-49.8874
-45.6176
-36.6208
-38.3109
-38.0732
-36.6896
-37.7463
-37.8426
-38.8434
-38.4317
-59.9364
-56.6922
-55.0853
-64.6882
50.7928
50.5112
49.4135
43.7189
-60.5331
-60.5075
-63.7085
-58.023
-36.6506
-35.9564
-36.8017
-36.5887
-45.7228
-47.7607
-48.4971
-45.7519
-36.5423
-38.2516
-38.0125
-36.6045
-59.7968
-56.5524
-54.9204
-64.6013
-67.0411
-62.1406
-62.2571
-59.7697
-66.9178
-62.074
-62.138
-59.6989
-83.0496
-76.5193
-76.5005
-71.0107
-11.321
-4.32502
-4.26897
3.16771
195.161
177.826
199.609
195.287
-42.0739
-43.4505
-42.2888
-43.9601
-42.0261
-43.3999
-42.2449
-43.9139
-39.7293
-39.682
-39.6474
-39.7352
-97.504
-108.942
-90.5065
-97.4636
-55.2834
-52.1311
-51.6177
-49.0454
-55.0704
-51.9255
-51.0442
-48.8372
-43.3817
-42.4319
-42.4281
-41.8041
-36.1988
-40.5377
-40.6933
-42.8677
-38.4861
-38.4435
-38.7302
-38.3955
-61.0116
-73.2609
-121.617
64.7156
-217.644
-238.386
-178.849
-10.5173
-101.029
-88.1639
-79.0281
-95.9099
-40.673
-41.122
-45.2017
-39.9575
-42.2581
-42.2537
-44.2767
-40.9595
-57.2888
-52.201
-58.8656
-55.8201
-52.9405
-68.941
-134.511
100.932
8.09933
29.0664
-109.749
86.8819
-59.687
-44.8027
-50.4678
-42.0428
-41.4205
-41.4943
-45.4315
-38.9472
-35.3262
-34.597
-35.4159
-35.4984
-40.5456
-43.9257
-43.5102
-38.6577
-217.711
-236.359
-179.3
-7.03667
-61.0185
-73.4247
-121.342
64.4403
-101.999
-87.9597
-80.0817
-95.9522
-42.0826
-42.2086
-44.1437
-40.8408
-40.3461
-40.8209
-44.8774
-39.6624
-56.9714
-52.0167
-58.6257
-55.7624
-1.73672
-8.9406
-103.983
94.7054
-69.9282
-77.8667
-130.707
106.447
-58.6487
-44.2512
-49.8084
-41.289
-34.6627
-34.034
-35.0814
-34.7933
-40.9273
-41.1104
-44.9096
-38.446
-40.2044
-43.6453
-43.3678
-38.2854
-56.9259
-58.7803
-56.8831
-56.5768
-38.5764
-37.6862
-37.7899
-37.4169
-42.341
-44.5745
-48.304
-42.3809
-44.8675
-46.9536
-48.6325
-44.2036
-38.5463
-41.2438
-48.5219
-42.3957
-36.1475
-36.2365
-36.0768
-36.8115
-34.7135
-35.5148
-36.0543
-34.0691
-36.8104
-37.0373
-38.7648
-36.9458
-49.1969
-43.0837
-49.2879
-22.5954
-56.5456
-51.4593
-53.1833
-53.7216
-69.0388
-63.8642
-62.3023
-80.6114
12.6566
40.1719
24.7621
25.4314
-45.4025
-43.2474
-43.5957
-44.7614
-43.246
-40.2837
-41.3982
-41.669
-50.0877
-52.4597
-48.7091
-53.7478
-57.0214
-58.6335
-59.8496
-54.6773
-56.8184
-58.7693
-56.9271
-56.5296
-44.9846
-46.7838
-48.5507
-44.2244
-38.5555
-37.6793
-37.7795
-37.3956
-42.1992
-44.4263
-48.193
-42.2701
-38.5039
-41.1292
-48.418
-42.3007
-36.9061
-37.3051
-38.8161
-36.7788
-36.1485
-36.23
-36.0525
-36.8168
-34.6335
-35.4327
-35.9804
-33.9766
-49.039
-43.1874
-49.1711
-22.3869
12.9549
40.2534
25.1339
25.616
-56.5615
-51.3835
-53.1153
-53.6957
-69.1941
-63.7382
-62.2223
-80.5647
-45.3044
-43.1421
-43.5069
-44.6815
-56.9286
-58.5682
-59.7729
-54.5936
-43.2046
-40.2549
-41.4012
-41.6382
-49.92
-52.3555
-48.6195
-53.6539
-60.5025
-51.9806
-44.5476
-46.9054
183.937
195.172
167.143
193.395
-117.778
-99.007
-107.73
-107.683
126.083
159.86
149.493
147.855
-62.1322
-63.3954
-66.9251
-59.9709
-73.6055
-75.6838
-81.0682
-69.4501
-49.3873
-54.8542
-52.9865
-50.841
-39.3684
-38.7155
-39.1428
-38.7691
-50.4396
-45.5207
-46.8601
-46.8779
-38.5918
-38.5689
-38.5039
-38.3776
-48.1927
-50.0758
-48.4974
-50.6458
-42.8856
-42.5331
-41.6769
-43.8099
-47.8115
-26.6055
-35.2902
-35.2679
177.187
186.594
185.698
185.986
-44.8706
-61.0536
-56.097
-43.9888
-14.9532
-8.01019
-16.011
-4.60225
-32.9881
-33.793
-33.3053
-33.1871
-36.3278
-36.9586
-36.3056
-36.4516
-46.6223
-49.207
-48.5631
-46.3639
-44.5948
-41.4828
-44.5579
-38.1941
-60.1102
-52.0147
-44.4752
-46.8761
183.771
195.117
193.634
166.726
-62.3471
-63.4483
-67.0041
-59.9379
-73.5433
-75.6332
-80.9676
-69.3949
-49.087
-54.5751
-50.558
-52.7012
-39.0295
-38.4747
-38.9177
-38.2931
-48.0454
-49.9106
-48.3555
-50.4479
-42.8383
-42.5152
-41.6543
-43.771
-44.6494
-60.8361
-43.5058
-55.8606
-14.8132
-7.79352
-4.3856
-15.7759
-46.4159
-49.0039
-46.1905
-48.3065
-44.3569
-41.3239
-37.9751
-44.4024
-39.8005
-41.0658
-41.0027
-40.7378
-38.5947
-39.3993
-38.8379
-39.1186
-57.4977
-55.4584
-59.1767
-59.6638
-44.9078
-44.2578
-43.4401
-45.9942
-55.439
-62.0193
-58.3758
-58.3789
-42.4645
-40.4121
-41.2166
-41.2161
-39.3699
-40.8245
-39.3319
-40.8785
-35.7854
-39.8426
-34.0425
-38.8219
-40.5883
-39.6969
-39.8931
-39.8803
-38.6755
-40.6052
-39.8553
-39.8686
-50.9295
-46.729
-47.6105
-49.8717
-79.0946
-92.5394
-97.4975
-80.5856
30.3499
16.0099
21.5154
21.4862
-16.8133
-139.6
-122.318
-121.963
-70.538
-79.0393
-74.1714
-74.1462
-52.9054
-48.1582
-50.4153
-50.3888
-39.7703
-41.0184
-40.9181
-40.6824
-38.6082
-39.414
-38.8474
-39.1704
-57.2894
-55.5096
-59.6906
-59.1782
-44.8367
-44.1996
-43.3738
-45.932
-39.3319
-40.785
-40.8529
-39.2863
-35.6639
-39.6963
-33.7002
-38.6868
-50.8041
-46.6765
-49.7807
-47.5291
-79.301
-92.4903
-80.5234
-97.4858
-52.6985
-53.0362
-50.617
-73.0995
-55.2923
-58.4907
-56.2998
-51.1218
-52.6262
-53.9024
-56.7407
-55.3913
-68.5279
-54.3903
-52.5854
-44.7883
-52.7114
-53.7682
-51.0505
-73.2938
-67.3652
-53.5239
-51.7859
-43.9626
-52.5422
-53.8097
-56.6854
-55.3352
-55.7573
-58.2626
-56.4003
-51.2528
-118.267
-103.362
-106.204
-95.9317
-118.187
-103.254
-106.158
-95.8119
-57.3604
-55.1191
-61.0208
-58.008
-57.3948
-55.1352
-61.0519
-58.0215
-50.6323
-38.2767
-37.1937
-29.3636
3.85208
14.2847
6.3517
15.7514
4.14971
14.5464
6.53575
15.6168
-49.9524
-37.8503
-36.806
-29.0133
127.635
125.275
135.14
145.643
170.953
169.983
185.217
182.304
172.352
171.331
183.816
185.198
119.244
126.771
135.5
135.82
-40.2747
-41.5477
-41.1476
-41.8901
-38.0418
-37.1655
-38.6924
-38.3361
-43.8256
-45.6714
-43.0079
-45.5128
-53.1806
-55.5069
-49.6362
-51.4609
-40.2351
-41.4722
-41.0827
-41.8244
-53.1313
-55.4284
-49.5647
-51.3706
-43.8587
-45.74
-42.9845
-45.4016
-37.954
-37.1096
-38.6458
-38.2754
-38.7524
-41.4048
-39.1601
-40.6704
-41.4384
-38.751
-40.6643
-39.1491
-40.4532
-39.8877
-39.7096
-39.3025
-39.8654
-40.4496
-39.2872
-39.682
-148.31
-1.72857
-138.316
-104.108
-63.0606
-65.2183
-71.955
-71.5114
-65.1452
-62.9811
-71.4605
-71.8921
-1.66369
-148.541
-104.664
-138.188
-47.6576
-30.3219
-48.7757
-40.0908
-52.0077
-57.8976
-56.5462
-56.2662
-46.0722
-45.9207
-48.5677
-48.4884
-42.8048
-41.9029
-43.3954
-41.3661
-47.5436
-30.1905
-48.6389
-39.9766
-42.726
-41.8401
-43.287
-41.2694
-45.729
-45.6501
-48.2629
-47.9977
-51.6876
-57.6407
-56.2875
-56.0378
-40.2986
-38.1793
-40.9878
-39.8534
-40.257
-38.1697
-40.9746
-39.8747
-53.3977
-49.5519
-47.6701
-46.5449
-53.5258
-49.6603
-47.7311
-46.6149
-48.6225
-50.8116
-47.9595
-49.7659
-34.6034
-35.2823
-34.1445
-35.2072
-34.2009
-34.9444
-33.8598
-34.9507
-48.5122
-50.7206
-47.8374
-49.686
-39.5967
-38.9411
-39.4926
-38.8809
-38.6489
-39.32
-38.6589
-39.2641
-36.7848
-37.3527
-36.6353
-37.4024
-37.9101
-37.3724
-37.6961
-37.0336
-139.044
46.2067
-196.931
14.1341
-101.06
-130.955
-44.6083
-40.1468
-44.9353
-40.7372
-48.2987
-48.6235
-136.534
86.7597
-94.7629
92.1327
-78.3714
-68.3083
-43.5218
-39.3826
-36.003
-37.2811
-42.3236
-36.7315
-196.726
0.486691
-138.705
45.5588
-100.466
-131.046
-44.745
-40.5442
-44.3221
-39.847
-48.0392
-48.3888
-98.7533
91.2849
-130.974
98.7049
-76.5078
-65.3541
-35.6461
-36.5721
-43.0719
-38.8135
-41.8843
-36.296
-53.7711
-52.4254
-39.1877
-38.63
-45.3082
-41.1254
-45.911
-41.4163
-35.5011
-35.1875
-35.9118
-34.9909
-34.6326
-36.8639
-38.6448
-35.0773
-55.6218
-38.1547
-57.111
-61.488
-66.0585
-94.4622
-6.41507
-55.9414
-45.146
-46.1932
-44.2753
-44.1426
-47.2576
-52.5519
-54.9523
-50.0022
-53.5746
-52.1681
-45.7583
-41.4136
-39.1758
-38.5919
-45.1688
-41.127
-35.4637
-35.3551
-38.4421
-35.3249
-35.8199
-34.8335
-34.5678
-36.8097
-55.5369
-37.8792
-5.98263
-55.3947
-57.0854
-61.6208
-66.2281
-94.8141
-45.0687
-46.1217
-54.8205
-49.9008
-44.2221
-44.086
-47.1608
-52.471
-100.498
44.2442
-124.212
88.4167
-76.2951
-83.5368
137.954
166.402
-178.505
-25.2265
-178.926
-23.2856
-140.311
-140.314
74.1742
70.38
-82.6477
-81.0318
-61.7218
-61.4707
-68.3467
-59.8621
-77.5431
-66.7287
-46.2495
-40.1412
-46.7883
-39.5932
-47.325
-47.1044
-39.7628
-39.3789
-43.7711
-41.2513
-43.7059
-41.2048
-45.5825
-45.6314
-40.1036
-40.0658
-50.7901
-47.1424
-44.0512
-42.4879
-46.1837
-49.5174
-41.8431
-44.6288
-116.111
117.302
-116.244
114.6
-69.424
-69.7829
162.987
153.469
-45.42
-34.808
-48.5743
-25.192
-48.8891
-43.8741
-24.2072
-16.4405
-34.6266
-33.9131
-34.3934
-33.4614
-33.6027
-33.3981
-35.574
-35.7465
-46.5144
-42.2606
-43.2343
-42.2861
-46.8201
-44.4295
-44.6219
-43.1514
-100.525
43.7606
-122.251
86.9494
-76.1081
-83.1048
167.344
137.487
-82.5791
-81.7233
-61.0588
-61.4156
-68.5596
-58.8586
-76.4045
-66.7414
-45.902
-39.8613
-46.3934
-39.1994
-46.7609
-47.0073
-39.4588
-38.9983
-50.5936
-47.0497
-43.8871
-42.3786
-46.0671
-49.3216
-41.7817
-44.5648
-44.9861
-34.4835
-48.3971
-24.984
-43.5119
-48.7137
-16.2758
-24.0309
-45.8967
-41.938
-43.116
-42.1993
-44.2707
-46.6163
-43.4414
-44.4353
-37.1943
-36.7401
-36.3132
-35.8854
-38.1462
-39.634
-36.5587
-36.5343
-48.4533
-43.7682
-50.2874
-48.9759
-52.6654
-51.8917
-44.108
-46.812
-49.6095
-45.2976
-49.6247
-45.2905
-52.1084
-52.1063
-43.8224
-43.8194
-36.726
-34.7503
-39.6223
-38.76
-38.0192
-39.4516
-34.516
-37.3447
-38.6179
-38.3698
-38.698
-38.0476
-40.4623
-40.4333
-38.1277
-37.9196
-58.5305
-71.8696
-51.8843
-58.5628
-51.4064
-54.4252
-74.9662
-66.353
44.5847
40.9217
44.3966
40.8982
37.0714
36.8939
26.153
26.0151
-62.7121
-57.1731
-62.6685
-57.1227
-66.6808
-66.6582
-55.2597
-55.2317
-37.1894
-36.7418
-36.2993
-35.8896
-38.1349
-39.6049
-36.5621
-36.5786
-48.3007
-43.6539
-50.1722
-48.9072
-51.742
-52.5357
-44.0196
-46.7423
-36.6541
-34.6515
-39.5925
-38.7006
-39.4181
-37.9631
-34.4305
-37.2524
-58.3678
-71.7646
-51.7481
-58.4843
-54.277
-51.259
-66.3325
-74.9509
-72.8685
-65.3616
-67.2045
-59.9585
-60.9123
-64.3967
-57.4016
-57.8844
-72.5859
-65.0568
-67.1519
-59.8938
-64.1842
-60.778
-57.7811
-57.325
-90.612
-90.5803
-82.6927
-70.6673
-82.6521
-70.6339
-66.0783
-66.0886
-18.5189
-18.4519
-12.7092
1.05081
1.19243
-12.562
8.68891
8.72745
172.904
198.582
152.196
154.606
183.226