# vtk DataFile Version 2.0
tet_velo
ASCII
DATASET UNSTRUCTURED_GRID
POINTS 29498 float
-0.770751 0.205 -2.105
-0.735 0.285 2.21165
-0.774975 0.725 -2.025
-0.697509 0.955 2.205
0.770758 0.205 -2.105
0.735 0.285 2.21165
0.774978 0.725 -2.025
0.697419 0.955 2.205
-0.827837 0.162664 -0.666117
-0.840624 0.164626 0.772767
-0.826025 0.878539 -0.615
-0.79874 0.953743 0.795
0.827743 0.162762 -0.666117
0.840741 0.164512 0.772767
0.826023 0.878565 -0.615
0.798714 0.953775 0.795
-1.58154 -0.186341 -3.26813
-1.58683 -0.147633 -2.12859
-1.62509 -0.17768 -0.688962
-1.6262 -0.186577 0.756481
-1.56054 -0.107637 2.1966
-1.54094 -0.0497411 3.33854
-1.547 -0.00579427 4.47603
-1.58021 0.130927 -3.23851
-1.58465 0.191133 -2.10213
-1.6325 0.180811 -0.668121
-1.6217 0.177466 0.768489
-1.52317 0.252765 2.20305
-1.51584 0.308978 3.34458
-1.53383 0.352381 4.48302
-1.58223 0.722892 -3.17118
-1.58697 0.780833 -2.0336
-1.62811 0.886544 -0.619278
-1.59271 0.938308 0.792995
-1.49346 0.958602 2.20787
-1.49986 1.01175 3.35059
-1.52663 1.0617 4.49369
-1.59123 1.71654 -3.09188
-1.5961 1.79101 -1.95863
-1.60857 1.91611 -0.553676
-1.60255 2.0142 0.845054
-1.57671 2.06429 2.25031
-1.56334 2.09846 3.38419
-1.5628 2.13795 4.52414
-0.78332 -0.178982 -3.26999
-0.776597 -0.136922 -2.13131
-0.811942 -0.186184 -0.688598
-0.831789 -0.195703 0.760132
-0.787101 -0.0917391 2.20298
-0.772139 -0.0381675 3.34287
-0.776704 0.000220791 4.47854
-0.784267 0.131671 -3.23909
-0.752644 0.321418 3.34815
-0.767501 0.358317 4.48491
-0.786185 0.70057 -3.1676
-0.740635 1.01411 3.35002
-0.763356 1.06423 4.49357
-0.790449 1.70081 -3.08835
-0.791906 1.77589 -1.95474
-0.806013 1.9127 -0.551331
-0.813244 2.0191 0.844772
-0.80261 2.06724 2.2483
-0.792881 2.09959 3.38219
-0.791066 2.13879 4.52268
0.793879 -0.178967 -3.26999
0.801656 -0.136899 -2.13131
0.829207 -0.186129 -0.688598
0.815256 -0.195765 0.760132
0.74581 -0.0917646 2.20298
0.747602 -0.0381838 3.34287
0.754944 0.000206484 4.47854
0.782571 0.13168 -3.23909
0.740447 0.321407 3.34815
0.751577 0.358304 4.48491
0.782669 0.700578 -3.1676
0.727827 1.01411 3.35002
0.746085 1.06423 4.49357
0.804434 1.70082 -3.08835
0.809226 1.77591 -1.95474
0.801843 1.91272 -0.551331
0.772107 2.01912 0.844772
0.743597 2.06725 2.2483
0.741406 2.09958 3.38219
0.747108 2.13879 4.52268
1.58966 -0.186306 -3.26813
1.59959 -0.147582 -2.12859
1.63542 -0.177609 -0.688962
1.62317 -0.186639 0.756481
1.54583 -0.107695 2.1966
1.52657 -0.0497776 3.33854
1.5303 -0.0058232 4.47603
1.57788 0.130955 -3.23851
1.58197 0.19117 -2.10213
1.63307 0.180904 -0.668121
1.62888 0.177396 0.768489
1.53227 0.252711 2.20305
1.51352 0.308946 3.34458
1.52283 0.352355 4.48302
1.57754 0.722915 -3.17118
1.58283 0.780858 -2.0336
1.6266 0.886606 -0.619278
1.59802 0.938324 0.792995
1.50183 0.958576 2.20787
1.49652 1.01173 3.35059
1.51402 1.06168 4.49369
1.60153 1.71657 -3.09188
1.60735 1.79105 -1.95863
1.60334 1.91615 -0.553677
1.57035 2.01423 0.845053
1.53044 2.0643 2.25031
1.51988 2.09845 3.38419
1.52318 2.13794 4.52414
-0.81857 0.465 -2.11071
3.48687e-06 0.190589 -2.11941
-0.832314 0.150811 -1.38556
-0.73256 0.62 2.22463
0 0.289945 2.2067
-0.82157 0.191056 1.49221
1.49012e-06 0.814798 -2.1148
-0.836645 0.837915 -1.32
-4.50015e-05 0.98544 2.23544
-0.77817 0.984417 1.5
0.818576 0.465 -2.11071
0.833114 0.150018 -1.38556
0.732613 0.62 2.22473
0.821577 0.191049 1.49221
0.836641 0.837923 -1.32
0.778074 0.984395 1.5
-0.825275 0.172601 0.0533249
-0.864052 0.520601 -0.640559
-4.68529e-05 0.153688 -0.666117
-0.876452 0.559184 0.783883
5.84399e-05 0.16263 0.772767
-0.820343 0.924101 0.0899999
-1.27874e-06 1.21907 -0.615
-1.32409e-05 1.42058 0.795
0.825348 0.172531 0.0533249
0.864033 0.520663 -0.640559
0.876443 0.559143 0.783883
0.820345 0.924147 0.0899999
-0.885661 0.492801 -1.35278
-0.864449 0.539893 0.0716624
-0.885229 0.589592 1.4961
-2.1683e-05 0.153254 -1.38556
5.79348e-06 0.161602 0.0533249
2.92199e-05 0.181582 1.49221
2.48849e-06 0.465 -2.32104
-2.25008e-05 0.62 2.28006
1.05687e-07 0.959258 -1.32
-7.25981e-06 1.4214 0.0899999
-2.91212e-05 1.23291 1.5
0.885661 0.492832 -1.35278
0.864425 0.539903 0.0716624
0.885747 0.589572 1.4961
-1.1777 0.198066 -2.10357
-0.773674 0.0340392 -2.11816
-0.777509 0.168335 -2.67204
-1.12908 0.268883 2.20735
-0.76105 0.0966304 2.20732
-0.743822 0.303209 2.7799
-1.18097 0.752917 -2.0293
-0.78058 0.712785 -2.5963
-0.783441 1.25045 -1.98987
-1.09548 0.956801 2.20643
-0.719072 0.984556 2.77751
-0.75006 1.51112 2.22665
0.786207 0.0340503 -2.11816
0.776664 0.16834 -2.67204
1.17636 0.198085 -2.10357
0.740405 0.0966177 2.20732
0.737723 0.303204 2.7799
1.13364 0.268856 2.20735
0.778823 0.712789 -2.5963
0.792102 1.25045 -1.98987
1.17891 0.752929 -2.0293
0.712623 0.984553 2.77751
0.720508 1.51112 2.22665
1.09962 0.956788 2.20643
-1.23017 0.171737 -0.667119
-0.81989 -0.0117601 -0.677357
-1.23116 0.171046 0.770628
-0.836206 -0.0155384 0.766449
-1.22707 0.882541 -0.617139
-0.816019 1.39562 -0.583166
-1.19573 0.946026 0.793998
-0.805992 1.48642 0.819886
0.828475 -0.0116837 -0.677357
1.23041 0.171833 -0.667119
0.827999 -0.0156265 0.766449
1.23481 0.170954 0.770628
0.813933 1.39564 -0.583166
1.22631 0.882585 -0.617139
0.78541 1.48645 0.819886
1.19837 0.94605 0.793998
-1.58418 -0.166987 -2.69836
-1.58087 -0.0277068 -3.25332
-1.18243 -0.182661 -3.26906
-1.60596 -0.162656 -1.40878
-1.58574 0.0217501 -2.11536
-1.18171 -0.142277 -2.12995
-1.62565 -0.182129 0.0337591
-1.62879 0.00156571 -0.678542
-1.21852 -0.181932 -0.68878
-1.59337 -0.147107 1.47654
-1.62395 -0.0045556 0.762485
-1.229 -0.19114 0.758306
-1.55074 -0.0786892 2.76757
-1.54185 0.072564 2.19983
-1.17382 -0.0996882 2.19979
-1.54397 -0.0277677 3.90729
-1.52839 0.129618 3.34156
-1.15654 -0.0439543 3.3407
-1.54041 0.173294 4.47953
-1.16185 -0.00278674 4.47729
-1.58243 0.16103 -2.67032
-1.58122 0.426909 -3.20485
-1.18224 0.131299 -3.2388
-1.60857 0.185972 -1.38513
-1.58581 0.485983 -2.06786
-1.6271 0.179139 0.0501836
-1.6303 0.533678 -0.6437
-1.57243 0.215116 1.48577
-1.60721 0.557887 0.780742
-1.51951 0.280871 2.77382
-1.50831 0.605684 2.20546
-1.52484 0.33068 3.9138
-1.50785 0.660362 3.34759
-1.13424 0.315198 3.34637
-1.53023 0.70704 4.48835
-1.15066 0.355349 4.48397
-1.5846 0.751862 -2.60239
-1.58673 1.21972 -3.13153
-1.18421 0.711731 -3.16939
-1.60754 0.833688 -1.32644
-1.59154 1.28592 -1.99611
-1.61041 0.912426 0.0868586
-1.61834 1.40133 -0.586477
-1.54309 0.948455 1.50043
-1.59763 1.47625 0.819024
-1.49666 0.985174 2.77923
-1.53509 1.51145 2.22909
-1.51324 1.03672 3.92214
-1.5316 1.5551 3.36739
-1.12025 1.01293 3.3503
-1.54471 1.59982 4.50891
-1.14499 1.06297 4.49363
-1.59367 1.75378 -2.52526
-1.19084 1.70868 -3.09012
-1.60234 1.85356 -1.25615
-1.194 1.78345 -1.95669
-1.60556 1.96516 0.145689
-1.20729 1.91441 -0.552504
-1.58963 2.03925 1.54768
-1.2079 2.01665 0.844913
-1.57003 2.08137 2.81725
-1.18966 2.06577 2.24931
-1.56307 2.1182 3.95416
-1.17811 2.09902 3.38319
-1.17693 2.13837 4.52341
-0.779958 -0.157952 -2.70065
-0.783793 -0.0236556 -3.25454
0.00527962 -0.178974 -3.26999
-0.79427 -0.161553 -1.40995
0.0125299 -0.136911 -2.13131
-0.821866 -0.190943 0.0357671
0.00863232 -0.186157 -0.688598
-0.809445 -0.143721 1.48156
-0.00826629 -0.195734 0.760132
-0.77962 -0.0649533 2.77293
-0.0206453 -0.0917518 2.20298
-0.774422 -0.0189734 3.9107
-0.762392 0.141625 3.34551
-0.012269 -0.0381757 3.34287
-0.772103 0.179269 4.48173
-0.0108801 0.000213638 4.47854
-0.785226 0.41612 -3.20335
-0.00084811 0.131675 -3.23909
-0.760073 0.339867 3.91653
-0.74664 0.667765 3.34909
-0.00609875 0.321413 3.34815
-0.765429 0.711276 4.48924
-0.00796202 0.35831 4.48491
-0.788317 1.20069 -3.12798
-0.00175814 0.700574 -3.1676
-0.751996 1.03917 3.92179
-0.766758 1.55685 3.3661
-0.00640408 1.01411 3.35002
-0.777211 1.60151 4.50812
-0.00863584 1.06423 4.49357
-0.791178 1.73835 -2.52155
0.00699215 1.70082 -3.08835
-0.79896 1.84429 -1.25304
0.00866009 1.7759 -1.95474
-0.809629 1.9659 0.14672
-0.00208494 1.91271 -0.551331
-0.807927 2.04317 1.54654
-0.0205688 2.01911 0.844772
-0.797746 2.08341 2.81524
-0.0295065 2.06724 2.2483
-0.791973 2.11919 3.95243
-0.0257377 2.09958 3.38219
-0.0219788 2.13879 4.52268
0.797768 -0.157933 -2.70065
0.788225 -0.0236435 -3.25454
1.19177 -0.182636 -3.26906
0.815432 -0.161514 -1.40995
1.20062 -0.142241 -2.12995
0.822232 -0.190947 0.0357671
1.23231 -0.181869 -0.68878
0.780533 -0.143765 1.48156
1.21922 -0.191202 0.758306
0.746706 -0.0649742 2.77293
1.14582 -0.0997298 2.19979
0.751273 -0.0189886 3.9107
0.744024 0.141612 3.34551
1.13708 -0.0439807 3.3407
0.75326 0.179255 4.48173
1.14262 -0.00280836 4.47729
0.78262 0.416129 -3.20335
1.18022 0.131317 -3.2388
0.746012 0.339856 3.91653
0.734137 0.667757 3.34909
1.12698 0.315177 3.34637
0.748831 0.711265 4.48924
1.13721 0.35533 4.48397
0.793551 1.2007 -3.12798
1.1801 0.711746 -3.16939
0.736956 1.03917 3.92179
0.734616 1.55685 3.3661
1.11217 1.01292 3.35031
0.746596 1.60151 4.50812
1.13005 1.06295 4.49363
0.80683 1.73836 -2.52155
1.20298 1.7087 -3.09012
0.805535 1.84431 -1.25304
1.20829 1.78348 -1.95669
0.786975 1.96592 0.14672
1.20259 1.91443 -0.552504
0.757852 2.04318 1.54654
1.17123 2.01667 0.844913
0.742502 2.08342 2.81524
1.13702 2.06577 2.24931
0.744257 2.11919 3.95243
1.13064 2.09902 3.38319
1.13514 2.13837 4.52341
1.59463 -0.166944 -2.69836
1.58377 -0.0276755 -3.25332
1.61751 -0.162596 -1.40878
1.59078 0.0217938 -2.11536
1.6293 -0.182124 0.033759
1.63425 0.00164752 -0.678542
1.5845 -0.147167 1.47654
1.62603 -0.0046213 0.762485
1.5362 -0.0787363 2.76757
1.53905 0.0725082 2.19983
1.52843 -0.0278004 3.90729
1.52004 0.129584 3.34156
1.52657 0.173266 4.47953
1.57992 0.161062 -2.67032
1.57771 0.426935 -3.20485
1.60752 0.186037 -1.38513
1.5824 0.486014 -2.06786
1.63098 0.17915 0.0501835
1.62984 0.533755 -0.6437
1.58058 0.215054 1.48577
1.61345 0.55786 0.780742
1.5229 0.280829 2.77382
1.51705 0.605644 2.20546
1.51818 0.330651 3.9138
1.50502 0.660336 3.34759
1.51843 0.707017 4.48836
1.58019 0.751886 -2.60239
1.58953 1.21974 -3.13153
1.60472 0.833732 -1.32644
1.59509 1.28595 -1.99612
[...]
POINT_DATA 29498
VECTORS point_vectors float
-3.71468 -5.22703 9.53562
-0.0268714 0.0653941 0.167894
-2.98562 1.52003 6.01419
0.0366052 -0.0907073 0.329378
3.7183 -5.21563 9.5226
0.022618 0.0671037 0.168928
2.99143 1.52374 6.03131
-0.037775 -0.0851345 0.320983
0.102543 -0.0445176 2.12227
0.0221763 -0.0129444 0.576157
0 0 0
0 0 0
-0.102085 -0.0440427 2.10412
-0.0221156 -0.013038 0.586217
0 0 0
0 0 0
-0.572461 -0.262209 19.8766
-1.20061 -0.648184 20.539
-0.40563 -0.360427 21.3676
0.0561317 -0.0717918 21.5745
0.555999 0.256172 21.468
0.81135 0.340841 21.2817
0.838675 0.0522317 20.8341
-0.686692 -0.19882 19.7794
-1.60895 -0.534334 20.5416
-0.537958 -0.421711 21.4277
0.0471874 -0.155553 21.6304
0.815339 0.133816 21.5516
1.06111 0.200851 21.2686
1.12743 -0.0518919 21.2431
-0.782054 0.0581497 19.7139
-1.83825 0.1123 20.4647
-1.09261 -0.339658 21.4343
-0.176821 -0.309878 21.7885
0.746804 -0.388169 21.5537
1.09402 -0.417764 21.2152
0.82995 -0.324971 21.2104
-0.539342 0.34451 19.9531
-0.921098 0.5858 20.4183
-0.881268 0.395237 21.1885
-0.261698 -0.0162953 21.5762
0.200742 -0.342529 21.4217
0.346566 -0.396828 21.2386
0.325922 -0.365507 20.8098
-0.592974 -0.580708 19.3039
-2.06623 -3.30338 20.6173
-0.39869 -0.300861 21.7088
0.0344085 0.152483 21.2806
0.380286 1.11575 19.2884
0.71649 1.42045 17.9222
0.965997 0.887888 17.937
-0.727645 -0.446122 19.0022
1.27958 1.86275 11.7164
1.71266 0.802767 12.2633
-0.946878 0.19163 18.6822
2.00801 -0.173091 11.1953
1.37387 -0.46814 16.1539
-0.488343 0.712864 19.5664
-1.02186 1.54631 20.1149
-1.3932 1.68269 21.3049
-0.335625 0.191606 22.0338
0.1334 -0.532301 21.5369
0.263016 -0.692011 21.2561
0.19081 -0.568954 20.6786
0.597871 -0.572874 19.3239
2.12414 -3.19794 20.6069
0.400699 -0.292935 21.7759
-0.0282784 0.147366 21.1849
-0.287945 1.09143 18.8135
-0.650836 1.45205 17.6876
-0.974993 0.875317 17.6098
0.729924 -0.448056 18.9962
-1.25484 1.87217 11.3324
-1.71076 0.80486 11.9931
0.947557 0.19092 18.6718
-1.96136 -0.171473 10.723
-1.37058 -0.45106 15.9055
0.492084 0.706489 19.5765
1.0292 1.52569 20.1215
1.3922 1.69222 21.3037
0.332796 0.201208 22.0557
-0.124159 -0.538273 21.5468
-0.251955 -0.709181 21.2577
-0.184005 -0.579989 20.4941
0.58078 -0.260316 19.8666
1.2035 -0.632092 20.5674
0.402602 -0.361793 21.3535
-0.0571653 -0.070266 21.569
-0.562308 0.25989 21.4708
-0.820543 0.343475 21.2574
-0.846797 0.0621887 20.824
0.691792 -0.197825 19.7834
1.61669 -0.528232 20.5405
0.537654 -0.420353 21.4287
-0.0465012 -0.15248 21.6328
-0.801774 0.125217 21.5564
-1.05184 0.203602 21.2775
-1.14102 -0.0332638 21.2736
0.780669 0.0644264 19.7097
1.84125 0.120014 20.468
1.09304 -0.3413 21.44
0.177178 -0.310282 21.7871
-0.737655 -0.374369 21.5522
-1.08818 -0.412826 21.2163
-0.857038 -0.324928 21.1485
0.534159 0.346455 19.9593
0.911965 0.574919 20.4201
0.885542 0.396909 21.1925
0.270343 -0.0192778 21.5779
-0.202303 -0.347634 21.4047
-0.346571 -0.399763 21.2406
-0.322759 -0.383628 20.8243
-2.60344 -0.227194 3.83314
-8.47686e-06 -0.148243 0.512976
0.034881 -0.0213442 2.00307
-0.0141418 0.0140226 0.0172143
-0.000726144 -0.0127651 -0.00477335
-0.0019883 0.0148713 0.554528
-3.71401e-05 0.78289 1.03206
-0.174329 -0.117136 0.631055
-0.0011379 0.0883109 -0.135555
0.0127675 0.011753 0.0612664
2.48682 -0.272326 3.68706
-0.0372817 -0.0226193 2.06968
0.0141782 0.0143042 0.0173191
0.00228057 0.0146915 0.556468
0.174485 -0.117266 0.631521
-0.0127882 0.0117777 0.061309
0.0343816 0.00124091 1.46269
0.000819426 0.00102521 0.145541
0 0 0
-0.00380059 0.0509854 0.235873
-2.82576e-07 4.91011e-06 0.00131537
0 0 0
0.0016919 0.0493135 0.0832963
-4.15582e-06 -0.00195406 0.0489134
-0.0348937 0.00137859 1.46666
-0.000820045 0.00101961 0.145319
0.00377634 0.0506162 0.234839
0 0 0
-0.00131505 -0.0209652 0.280782
-0.000155964 0.00891154 0.0521845
0.00117313 0.00199292 0.014841
1.45901e-09 6.1405e-10 -1.58645e-05
-5.14814e-09 8.28756e-08 2.94028e-05
-2.30792e-05 0.00134801 0.0276743
-4.50462e-06 -0.110563 0.0964098
0 0 0
3.16045e-06 0.00571534 0.0366719
-8.39487e-07 0.000920438 0.0181977
-9.88865e-06 0.00308661 -0.00683253
0.00129143 -0.0208501 0.280477
0.000155477 0.00878474 0.0514037
-0.000264815 0.000450468 0.00337563
-3.18469 -1.44438 20.5189
-3.51252 -5.25573 20.7748
-2.08742 -1.52661 17.7936
1.29641 0.640482 19.4718
0.148631 1.28669 12.0053
0.128472 1.32631 7.25855
-3.64293 0.554231 20.4106
-2.75116 1.09121 17.0955
-2.3536 2.65356 19.9134
1.24915 -0.224638 18.716
0.738728 0.359034 5.91926
0.617238 -0.784616 18.3632
3.50445 -5.04447 20.7458
2.09128 -1.53075 17.7815
3.19932 -1.4512 20.5189
-0.0549123 1.24754 11.4747
-0.0609529 1.32156 7.07861
-1.28907 0.622157 19.5278
2.75059 1.09393 17.0846
2.35523 2.60747 19.9183
3.65064 0.556823 20.4114
-0.721155 0.375122 5.74982
-0.639951 -0.776609 17.7924
-1.23066 -0.245378 18.7337
-0.360214 -0.666706 21.7329
0.0910369 0.00892361 17.5321
0.172181 -0.167962 21.333
0.329943 0.131787 17.1223
-1.8137 -1.06101 21.6445
-3.97123 2.18241 21.2102
-0.17873 -0.558858 20.8285
-0.210349 0.177774 19.4766
-0.0831572 0.00977597 17.6614
0.36273 -0.66773 21.7324
-0.332284 0.135756 16.9325
-0.169305 -0.171382 21.3628
3.98006 2.20929 21.2007
1.81436 -1.06519 21.6418
0.058712 0.241298 18.4723
0.178778 -0.559039 20.8651
-0.963403 -0.473971 20.0293
-0.654142 -0.243057 19.8371
-0.643551 -0.406535 19.5975
-0.866097 -0.537557 21.1766
-1.38623 -0.630305 20.5627
-1.79342 -1.46018 20.5426
-0.148661 -0.21011 21.4935
-0.477984 -0.395496 21.3975
-0.334603 -0.4128 21.5961
0.319508 0.102997 21.5992
0.0464867 -0.1207 21.5959
0.0962142 -0.0226791 21.6509
0.694531 0.322313 21.3056
0.670913 0.202959 21.4785
0.706448 0.627097 21.503
0.814038 0.297311 20.7633
0.93239 0.275237 21.2277
1.07169 0.847669 20.9932
0.983054 0.000169861 21.0386
0.890294 0.690847 21.2935
-1.20487 -0.36849 19.9259
-0.768995 -0.0658927 19.714
-0.793414 -0.348611 19.4335
-1.08344 -0.536924 21.2514
-1.80948 -0.232869 20.5066
-0.217043 -0.30975 21.547
-0.771617 -0.467198 21.4411
0.409484 -0.00708329 21.7158
-0.0222495 -0.274225 21.7484
0.974362 0.142195 21.4476
0.871307 -0.149979 21.5905
1.06931 0.121924 20.9595
1.1581 -0.167768 21.398
1.47634 0.681498 19.0933
1.08478 -0.265442 21.4034
1.35337 0.397443 18.0957
-1.41934 0.136231 19.8554
-0.70275 0.271614 19.8088
-0.957777 0.124781 19.2692
-1.47074 -0.148315 21.1391
-1.37051 0.526108 20.3835
-0.668492 -0.357903 21.694
-1.19951 0.14577 21.32
0.320411 -0.297432 21.801
-0.312263 -0.132853 21.7276
0.926861 -0.422113 21.3133
0.383372 -0.426022 21.4574
0.860121 -0.489032 21.101
0.611724 -0.459912 21.1115
1.51224 -0.562934 19.9677
0.497594 -0.39973 20.9763
1.27765 -0.542991 19.7976
-0.757434 0.492733 20.1131
-0.571493 0.523178 19.7629
-0.97837 0.531672 20.8088
-1.09162 0.99812 20.2883
-0.604017 0.221663 21.4806
-1.20908 0.841839 21.2755
0.0138159 -0.209631 21.5061
-0.322551 0.0528982 21.8102
0.332031 -0.401037 21.3187
0.16431 -0.430592 21.5148
0.444811 -0.495406 20.6904
0.336883 -0.588659 21.2152
0.280008 -0.495564 21.2389
-1.26145 -1.58838 19.0376
-0.66031 -0.513415 19.1531
0.0021688 -0.802201 18.9328
-0.989247 -1.14472 22.215
0.0232116 -4.87881 21.0318
-0.12854 -0.0352549 21.3475
0.00273631 -0.639626 21.174
0.248539 0.556274 20.2483
-0.00154721 -0.0836539 19.3175
0.459182 1.24562 18.956
-0.0196853 0.467033 15.2973
0.549453 1.37421 19.1503
0.95304 1.80089 14.6921
-0.00204455 0.800874 13.6783
1.37512 0.918875 15.0501
0.0184453 1.3094 12.9022
-0.918137 -0.141812 18.7367
-0.000627582 -0.689441 18.4853
1.60867 1.3099 12.3612
2.20607 0.946357 9.2686
-0.0319648 -0.20562 -2.21044
1.90985 0.262041 12.1126
0.0434978 1.12018 8.11562
-0.764419 0.682449 19.095
-0.00325469 0.307033 17.9309
1.81851 -0.586077 12.644
0.824465 -1.028 18.9149
0.0383442 -0.74734 -2.39719
0.485094 -0.969949 19.1236
0.00819117 -1.52328 1.74414
-0.792082 1.21712 19.6855
0.00391767 0.93559 19.2971
-1.23384 1.62083 20.5866
0.0170657 2.2563 19.9149
-0.898891 0.946837 22.0472
-0.00571269 3.03476 21.2345
-0.00736597 -0.288276 21.7924
-0.0204502 0.427035 22.2699
0.211431 -0.636272 21.3876
0.00215277 -0.520752 21.7369
0.162054 -0.665811 21.2776
0.0103491 -0.790409 21.432
-0.00268246 -0.71508 21.4509
1.27312 -1.54868 19.0819
0.663898 -0.510465 19.1601
0.646008 -0.402413 19.5969
0.986469 -1.1191 22.1813
1.76748 -1.40912 20.5352
0.131484 -0.0310669 21.3487
0.341787 -0.416733 21.5851
-0.230702 0.555891 20.1299
-0.0947016 -0.0218324 21.6454
-0.391326 1.22103 18.7336
-0.714227 0.678242 21.3933
-0.486544 1.42409 18.9563
-0.908333 1.8116 14.4903
-1.09326 0.903047 20.9698
-1.37107 0.901796 14.7612
-0.89338 0.732707 21.3188
0.919452 -0.142343 18.7248
0.798558 -0.352296 19.4308
-1.63638 1.33402 11.9083
-2.16141 0.956463 8.83967
-1.46359 0.706914 18.9625
-1.90905 0.268494 11.8403
-1.36736 0.409708 17.8919
0.764591 0.680042 19.1007
0.957797 0.123482 19.2674
-1.83694 -0.588526 12.2369
-0.801755 -1.05456 18.711
-1.53078 -0.552452 19.8959
-0.48529 -0.99275 19.0276
-1.29063 -0.543931 19.7528
0.80196 1.1977 19.6954
0.573188 0.512885 19.7718
1.23653 1.61272 20.5883
1.08506 0.977748 20.2939
0.895641 0.984477 22.069
1.2119 0.847844 21.2771
0.00449044 -0.291825 21.8154
0.328475 0.0647096 21.8266
-0.193748 -0.646378 21.3951
-0.163773 -0.450564 21.5215
-0.152701 -0.685292 21.3545
-0.345113 -0.615675 21.2345
-0.277385 -0.521676 21.2933
0.957435 -0.46751 20.0445
0.658257 -0.236635 19.8406
0.860058 -0.533369 21.1702
1.38833 -0.606685 20.5536
0.152621 -0.210371 21.489
0.476035 -0.394573 21.3896
-0.325519 0.112881 21.6183
-0.0498071 -0.119416 21.5941
-0.698663 0.337673 21.3158
-0.668677 0.209555 21.4822
-0.819464 0.31763 20.7519
-0.934063 0.278193 21.2387
-0.993909 0.0144625 21.0488
1.21684 -0.369386 19.914
0.766807 -0.0626331 19.7161
1.08176 -0.534144 21.2609
1.82624 -0.23099 20.5318
0.219447 -0.307542 21.5449
0.772696 -0.464943 21.4462
-0.406765 -0.00908909 21.7058
0.0250223 -0.273317 21.7421
-0.964375 0.144454 21.4522
-0.856145 -0.143919 21.6004
-1.08555 0.126865 20.9185
-1.16792 -0.17211 21.4086
-1.1181 -0.260045 21.3651
1.41734 0.139376 19.8557
0.703218 0.271066 19.8098
1.47303 -0.148951 21.144
1.36788 0.52097 20.3849
0.667076 -0.356409 21.6937
1.20748 0.143637 21.3247
-0.323652 -0.29666 21.7945
0.318525 -0.135871 21.7424
-0.931586 -0.424655 21.3062
-0.402417 -0.444872 21.4755
-0.855741 -0.484375 21.0697
-0.624032 -0.474957 21.1666
-0.486934 -0.412519 20.9685
0.753203 0.487513 20.1189
0.975324 0.529203 20.8096
0.61977 0.223221 21.492
-0.0223218 -0.214671 21.5386
-0.324797 -0.393514 21.3396
-0.437846 -0.548198 20.7158
-1.08694 -0.450544 19.9836
-1.68249 -1.72106 18.5324
-1.23081 -0.89644 19.6443
-1.7383 -0.762059 19.273
-0.722223 -0.379408 19.5145
-2.39211 -1.54611 20.54
-0.977887 -0.551963 21.2076
-0.640306 -0.620414 19.6571
-0.943485 -0.87178 21.5642
-1.2514 -0.957501 21.8893
-0.320749 -0.509229 21.6486
-0.182254 -0.265904 21.5108
0.274181 0.0883465 16.8189
-0.0823193 -0.205268 21.5942
-0.0213598 -0.41014 21.4547
0.15899 -0.0690628 21.6095
0.343133 0.0671698 21.6534
0.308209 0.547012 14.7039
0.389315 0.29216 21.6891
0.640742 0.211314 20.7024
1.03197 0.691163 20.8518
0.830092 0.263059 21.3545
0.362728 1.3634 13.5264
0.852994 0.781055 21.0586
1.4222 0.705301 19.6046
1.26111 0.788459 21.025
0.94573 0.228712 20.954
0.868688 1.36301 14.9033
1.0263 0.697565 20.9656
1.75917 0.617488 20.1807
1.06381 0.613085 20.8294
-1.38249 -0.125493 19.8382
-2.72623 -0.401163 16.973
-2.14095 0.381592 19.0506
-0.933724 -0.102183 19.274
-3.81108 -0.482644 20.5028
-1.30925 -0.391154 21.2437
-2.28221 -0.46021 21.5509
-0.732037 -1.01651 21.4524
-0.376336 -0.413356 21.6247
-0.935389 -0.952173 21.4484
0.136881 -0.283893 20.7247
0.419479 -0.161466 21.8077
0.649121 -0.178891 19.7901
1.46334 0.282348 18.3304
1.04522 -0.149135 21.4442
0.436079 1.06015 4.22208
1.37604 -0.402106 19.3488
1.81884 0.165927 18.8268
1.05024 -0.181207 21.1731
2.2711 0.637295 10.9727
1.5266 -0.583265 20.1408
1.55823 -0.141714 17.8667
-1.07913 0.435281 19.9779
-1.54808 1.66297 18.8596
-0.848694 0.819981 19.9193
-0.795889 0.446375 19.4722
-2.00603 1.19522 20.2325
-1.37417 0.33261 20.9093
-2.6 1.9777 20.5736
-1.20488 0.969693 20.7469
-2.11182 0.469585 21.4437
-0.800609 0.00617187 21.6531
-2.12072 0.684602 21.4412
-0.822648 0.466477 21.7465
-0.48641 -0.138396 22.1371
0.113768 -0.28886 21.6847
0.522115 -0.478248 18.7667
-0.0165996 -0.242548 21.664
0.421462 -0.694608 21.6671
0.54559 -0.503029 21.3559
0.64265 -0.995883 19.5989
0.261954 -0.523357 21.3377
0.655838 -0.902919 21.3385
0.565641 -0.620877 21.023
0.611393 -1.20383 19.5182
0.202479 -0.425604 21.3129
0.471081 -0.644513 20.2456
1.68505 -1.68847 18.5522
0.0187445 -2.50787 18.2976
-0.000764524 -2.72213 15.9304
0.000296694 -0.843178 18.6426
0.00976137 -7.1633 22.3213
0.650456 -0.617326 19.7732
0.0108822 -1.65261 22.4525
0.000314925 -0.170622 12.8427
-0.27226 0.0889908 16.8039
-0.00266838 -0.285282 19.9237
0.000361434 0.0202081 11.4684
-0.297827 0.534284 14.3853
-0.00424794 0.286845 17.4448
-0.0383864 0.245347 5.80712
-0.253674 1.33098 13.0321
-0.019795 0.198658 14.2466
-0.0243499 -1.60193 -3.46564
-0.051001 0.780825 5.23298
-0.822262 1.40348 14.7381
-0.000466603 1.50898 13.3202
-0.0100744 -0.966726 -1.08498
0.0429139 1.21855 10.4957
2.72672 -0.402112 16.9604
-0.00552452 2.28551 14.2784
-0.00232965 -0.196591 17.9794
-0.39259 1.06717 4.03688
0.0106965 -0.164728 -1.42612
0.0465598 -1.57599 -4.65056
-2.29088 0.655512 10.5133
0.0206608 -1.9328 -1.44079
0.0447901 -0.197253 3.4754
1.54851 1.6491 18.8782
0.0118412 1.70813 19.3912
0.00191852 0.974726 18.5927
0.0161236 4.23756 19.5676
2.60001 1.96624 20.576
0.00703187 2.50029 20.3234
-0.00642292 6.35901 19.7026
2.09628 0.707686 21.1651
-0.0232071 1.70113 22.4558
-0.00230502 0.131166 16.4331
-0.609568 -0.451174 17.9109
-0.00654847 -0.239214 21.8524
-0.00954158 -0.458669 11.0809
-0.633213 -0.995662 19.1777
0.00835481 -0.66681 21.5076
-0.00241979 -1.24189 14.62
-0.616897 -1.21865 19.3779
0.00768429 -0.941206 21.2303
0.015488 -1.20346 18.3435
1.08919 -0.455134 19.9855
1.22046 -0.882038 19.6568
1.74396 -0.767123 19.2679
0.72453 -0.378769 19.5129
2.37806 -1.51507 20.5359
0.969357 -0.539756 21.2107
0.942345 -0.858889 21.5433
1.25461 -0.958605 21.8892
0.331338 -0.513144 21.6425
0.183696 -0.267172 21.5069
0.083179 -0.207175 21.5885
0.0245655 -0.412421 21.4615
-0.155666 -0.0696108 21.596
-0.345303 0.0678699 21.6549
-0.386759 0.305719 21.6799
-0.63922 0.202311 20.7758
-1.03011 0.715871 20.7447
-0.834366 0.275418 21.352
-0.849872 0.825418 20.9966
-1.41525 0.707063 19.5759
-1.25419 0.834052 20.7863
-0.978906 0.242001 20.8986
-1.01876 0.751437 21.0266
-1.74874 0.6511 20.1541
-1.08444 0.631876 20.5937
1.36418 -0.122971 19.8444
2.14819 0.384565 19.0466
0.936587 -0.102053 19.2718
3.82364 -0.485467 20.5047
1.31696 -0.390138 21.2406
2.28375 -0.465023 21.5537
0.729786 -1.02044 21.4514
0.381424 -0.412198 21.6242
0.934856 -0.94953 21.4576
-0.135815 -0.294208 20.7918
-0.423334 -0.16248 21.8013
-0.641944 -0.194581 19.8608
-1.45987 0.261849 18.4352
-1.03873 -0.144608 21.4595
-1.37627 -0.398803 19.3269
-1.83352 0.180665 18.6405
-1.06167 -0.186506 21.1281
-1.55487 -0.577472 20.0649
-1.57329 -0.125233 17.6591
1.07885 0.430993 19.9819
0.848461 0.804304 19.9304
0.796894 0.444046 19.4782
1.99919 1.17887 20.2384
1.37964 0.332001 20.912
1.20218 0.960821 20.7496
2.11809 0.471249 21.4447
0.810575 0.00541695 21.6582
0.834479 0.485124 21.762
0.496152 -0.133457 22.1556
-0.115677 -0.304916 21.6838
0.0176446 -0.245189 21.6632
-0.41911 -0.712831 21.6861
-0.55278 -0.52879 21.3204
-0.252494 -0.551732 21.3485
-0.666329 -0.917537 21.4014
-0.621019 -0.630107 21.0695
-0.186247 -0.43918 21.3701
-0.467327 -0.670425 20.1402
-1.48587 -0.855755 19.4629
-1.071 -0.915955 21.7127
-0.0297861 -0.282793 21.6088
0.545289 0.270265 21.477
1.18682 0.764935 20.807
1.36309 0.607696 20.4965
-2.11842 -0.232048 19.0302
-1.71473 -0.877748 22.0262
-0.184705 -0.733805 21.0904
0.727767 0.121772 19.9859
1.65286 0.171036 19.2105
1.80551 0.0628251 19.6094
-1.44094 0.905739 19.5172
-2.03191 0.760327 20.8825
-1.36087 0.119806 22.0904
0.120303 -0.449295 21.9619
0.577229 -0.806345 21.374
0.724275 -0.823703 20.8026
0.0119052 -2.99247 17.3611
0.00339615 -0.772186 15.9705
-0.00111959 -0.0326498 11.5722
-0.00117686 0.265819 9.19697
-0.080324 -0.627012 4.75772
-0.0219091 0.678892 5.40135
-0.00319268 -0.732192 14.2312
0.0064543 -1.0804 -4.08021
0.0849405 -1.56652 -0.908452
0.00797045 2.77768 17.9849
0.00603857 3.6588 19.8386
-0.011735 1.73442 17.9619
-0.0028583 -0.398308 12.5484
0.00179213 -0.659924 12.8847
0.000307758 -1.02583 15.6215
1.48555 -0.850775 19.4716
1.07859 -0.912646 21.6967
0.0338018 -0.28559 21.6093
-0.545096 0.278442 21.4432
-1.18152 0.785428 20.7616
-1.35499 0.651728 20.4779
2.12783 -0.234078 19.0257
1.71393 -0.882102 22.0285
0.187536 -0.736712 21.1117
-0.726564 0.103553 20.0761
-1.64629 0.175085 19.1601
-1.81706 0.0810045 19.3729
1.4404 0.899698 19.5248
2.02814 0.75682 20.8842
1.37703 0.124447 22.1013
-0.118998 -0.459997 21.9836
-0.574478 -0.819058 21.386
-0.704407 -0.867852 20.7726
-2.95325 -0.84067 3.52714
0.0130304 -0.741996 1.07138
-0.143963 -0.265704 3.61157
0.0100181 0.0649984 0.116973
-0.0418598 0.00845535 0.0312301
0.0121309 0.132761 0.840092
-0.620537 0.00978175 1.08378
-0.027928 0.720028 1.58389
-0.820537 -0.0909312 2.48104
0.00863068 0.0326174 0.0821366
-0.0301705 0.165865 -0.128628
0.0039279 -0.0183697 0.176293
-0.0143387 -0.744852 1.0775
3.04883 -0.89105 3.56488
0.143919 -0.263159 3.58236
0.0406148 0.00793486 0.0303111
-0.0100904 0.0640725 0.116387
-0.0122056 0.127956 0.811321
0.0269673 0.714404 1.56748
0.614048 0.00767109 1.07475
0.82097 -0.0908272 2.48075
0.0279263 0.169499 -0.131063
-0.00900197 0.0337366 0.0824434
-0.00438541 -0.0180023 0.175469
0.0379169 0.063009 1.93054
0.100583 -0.0367369 3.23248
2.88597e-06 -2.81878e-06 0.000374441
-4.11944e-18 -1.97194e-19 -6.66155e-17
0.00320087 0.0172007 0.624278
-0.00892359 -0.0315031 1.33854
0 0 0
0 0 0
-0.396135 -0.405132 0.909234
4.7514e-06 1.42019e-05 0.000884063
0.00229404 0.00611738 0.0183526
-0.0431168 0.0273557 0.0693091
0 0 0
0.000961105 0.0225628 0.0733691
0 0 0
0.0143026 -0.00393043 0.110671
-0.0377944 0.0674462 1.86529
0 0 0
-0.10157 -0.0376765 3.2612
-7.69411e-06 -7.7492e-06 0.000995454
-0.00326641 0.0167909 0.615976
2.7457e-18 6.93703e-20 -7.55349e-17
0.00827538 -0.0317551 1.33704
0 0 0
0.39613 -0.405373 0.910509
0.0425107 0.0269582 0.0683229
-4.80593e-06 1.42471e-05 0.000899419
-0.00233657 0.00622091 0.0187032
0 0 0
-0.0142815 -0.00389932 0.110129
-0.000946265 0.0225562 0.0731974
0 0 0
4.10848e-18 1.23204e-17 -1.59691e-16
-0.270991 -0.172267 0.210048
-3.51881e-06 -0.00054925 0.0184223
0.00356243 -0.22815 0.228116
0 0 0
5.66987e-06 -4.73879e-08 7.3799e-05
0 0 0
0 0 0
-4.07493e-08 2.01111e-06 1.34819e-05
0 0 0
0.00822574 0.0392486 0.355533
0.000505325 0.00130686 0.0283952
7.26161e-06 0.0625518 0.0259289
2.03487e-06 0.00766575 0.0416068
-8.06788e-05 -0.032382 0.206471
-0.0127955 0.00529149 0.0397805
-0.000291914 0.0211987 -0.00210594
0 0 0
0 0 0
-0.00237403 0.00135413 -0.00337262
0.27 -0.171739 0.209105
0 0 0
-6.39216e-06 -5.87841e-08 8.51378e-05
0 0 0
0 0 0
0 0 0
-0.000542048 0.00129441 0.0281995
-0.00838361 0.0385027 0.349032
0.0127953 0.00529493 0.0397899
7.28922e-05 -0.032275 0.206075
0.00233121 0.00135696 -0.00335316
0 0 0
0 0 0
5.90833e-18 2.17716e-19 1.08739e-16
0.0101206 -0.0216443 0.199916
0.000890315 0.023079 0.200632
-4.61436e-07 -0.000321891 0.014741
-6.62473e-09 4.75616e-08 4.19511e-05
0.00140734 0.0224488 0.0961649
0 0 0
-3.43979e-09 4.15747e-08 2.04367e-05
0 0 0
0.000379938 0.00263782 0.00959032
0.00639182 0.0095323 0.246828
0 0 0
-3.75348e-06 0.0244264 0.0907981
-3.40117e-08 3.37394e-05 0.00192747
-6.12485e-06 -0.0027978 0.0126961
0 0 0
-1.78867e-19 -2.69047e-18 -2.47059e-17
-0.010244 -0.0218818 0.201892
-0.000886599 0.023025 0.200135
-0.00139789 0.0223313 0.095458
0 0 0
-0.00649806 0.00957999 0.247217
-0.000638629 0.00429394 0.0156062
-0.000747298 -0.000967105 0.0113867
-0.061839 -0.0572373 0.497131
0 0 0
0.00120205 -0.00478501 0.029205
4.56229e-07 2.2484e-05 0.000670604
0 0 0
-0.000530957 0.0029491 0.0218077
0 0 0
-0.000389522 0.00215015 0.0322408