# vtk DataFile Version 2.0
tri_press
ASCII
DATASET UNSTRUCTURED_GRID
POINTS 3682 float
-0.770751 0.205 -2.105
-0.735 0.285 2.21165
-0.774975 0.725 -2.025
-0.697509 0.955 2.205
0.770758 0.205 -2.105
0.735 0.285 2.21165
0.774978 0.725 -2.025
0.697419 0.955 2.205
-0.827837 0.162664 -0.666117
-0.840624 0.164626 0.772767
-0.826025 0.878539 -0.615
-0.79874 0.953743 0.795
0.827743 0.162762 -0.666117
0.840741 0.164512 0.772767
0.826023 0.878565 -0.615
0.798714 0.953775 0.795
-1.58154 -0.186341 -3.26813
-1.58683 -0.147633 -2.12859
-1.62509 -0.17768 -0.688962
-1.6262 -0.186577 0.756481
-1.56054 -0.107637 2.1966
-1.54094 -0.0497411 3.33854
-1.547 -0.00579427 4.47603
-1.58021 0.130927 -3.23851
-1.58465 0.191133 -2.10213
-1.6325 0.180811 -0.668121
-1.6217 0.177466 0.768489
-1.52317 0.252765 2.20305
-1.51584 0.308978 3.34458
-1.53383 0.352381 4.48302
-1.58223 0.722892 -3.17118
-1.58697 0.780833 -2.0336
-1.62811 0.886544 -0.619278
-1.59271 0.938308 0.792995
-1.49346 0.958602 2.20787
-1.49986 1.01175 3.35059
-1.52663 1.0617 4.49369
-1.59123 1.71654 -3.09188
-1.5961 1.79101 -1.95863
-1.60857 1.91611 -0.553676
-1.60255 2.0142 0.845054
-1.57671 2.06429 2.25031
-1.56334 2.09846 3.38419
-1.5628 2.13795 4.52414
-0.78332 -0.178982 -3.26999
-0.776597 -0.136922 -2.13131
-0.811942 -0.186184 -0.688598
-0.831789 -0.195703 0.760132
-0.787101 -0.0917391 2.20298
-0.772139 -0.0381675 3.34287
-0.776704 0.000220791 4.47854
-0.784267 0.131671 -3.23909
-0.752644 0.321418 3.34815
-0.767501 0.358317 4.48491
-0.786185 0.70057 -3.1676
-0.740635 1.01411 3.35002
-0.763356 1.06423 4.49357
-0.790449 1.70081 -3.08835
-0.791906 1.77589 -1.95474
-0.806013 1.9127 -0.551331
-0.813244 2.0191 0.844772
-0.80261 2.06724 2.2483
-0.792881 2.09959 3.38219
-0.791066 2.13879 4.52268
0.793879 -0.178967 -3.26999
0.801656 -0.136899 -2.13131
0.829207 -0.186129 -0.688598
0.815256 -0.195765 0.760132
0.74581 -0.0917646 2.20298
0.747602 -0.0381838 3.34287
0.754944 0.000206484 4.47854
0.782571 0.13168 -3.23909
0.740447 0.321407 3.34815
0.751577 0.358304 4.48491
0.782669 0.700578 -3.1676
0.727827 1.01411 3.35002
0.746085 1.06423 4.49357
0.804434 1.70082 -3.08835
0.809226 1.77591 -1.95474
0.801843 1.91272 -0.551331
0.772107 2.01912 0.844772
0.743597 2.06725 2.2483
0.741406 2.09958 3.38219
0.747108 2.13879 4.52268
1.58966 -0.186306 -3.26813
1.59959 -0.147582 -2.12859
1.63542 -0.177609 -0.688962
1.62317 -0.186639 0.756481
1.54583 -0.107695 2.1966
1.52657 -0.0497776 3.33854
1.5303 -0.0058232 4.47603
1.57788 0.130955 -3.23851
1.58197 0.19117 -2.10213
1.63307 0.180904 -0.668121
1.62888 0.177396 0.768489
1.53227 0.252711 2.20305
1.51352 0.308946 3.34458
1.52283 0.352355 4.48302
1.57754 0.722915 -3.17118
1.58283 0.780858 -2.0336
1.6266 0.886606 -0.619278
1.59802 0.938324 0.792995
1.50183 0.958576 2.20787
1.49652 1.01173 3.35059
1.51402 1.06168 4.49369
1.60153 1.71657 -3.09188
1.60735 1.79105 -1.95863
1.60334 1.91615 -0.553677
1.57035 2.01423 0.845053
1.53044 2.0643 2.25031
1.51988 2.09845 3.38419
1.52318 2.13794 4.52414
-0.81857 0.465 -2.11071
3.48687e-06 0.190589 -2.11941
-0.832314 0.150811 -1.38556
-0.73256 0.62 2.22463
0 0.289945 2.2067
-0.82157 0.191056 1.49221
1.49012e-06 0.814798 -2.1148
-0.836645 0.837915 -1.32
-4.50015e-05 0.98544 2.23544
-0.77817 0.984417 1.5
0.818576 0.465 -2.11071
0.833114 0.150018 -1.38556
0.732613 0.62 2.22473
0.821577 0.191049 1.49221
0.836641 0.837923 -1.32
0.778074 0.984395 1.5
-0.825275 0.172601 0.0533249
-0.864052 0.520601 -0.640559
-4.68529e-05 0.153688 -0.666117
-0.876452 0.559184 0.783883
5.84399e-05 0.16263 0.772767
-0.820343 0.924101 0.0899999
-1.27874e-06 1.21907 -0.615
-1.32409e-05 1.42058 0.795
0.825348 0.172531 0.0533249
0.864033 0.520663 -0.640559
0.876443 0.559143 0.783883
0.820345 0.924147 0.0899999
-0.885661 0.492801 -1.35278
0.885661 0.492832 -1.35278
-2.1683e-05 0.153254 -1.38556
1.05687e-07 0.959258 -1.32
2.48849e-06 0.465 -2.32104
-0.864449 0.539893 0.0716624
0.864425 0.539903 0.0716624
5.79348e-06 0.161602 0.0533249
-7.25981e-06 1.4214 0.0899999
-0.885229 0.589592 1.4961
0.885747 0.589572 1.4961
2.92199e-05 0.181582 1.49221
-2.91212e-05 1.23291 1.5
-2.25008e-05 0.62 2.28006
-0.793567 0.335 -2.10676
-0.385374 0.19273 -2.11727
-0.827874 0.151565 -1.74528
-0.758507 0.4525 2.24287
-0.3675 0.292964 2.20369
-0.805132 0.21118 1.85193
-0.796866 0.595 -2.06795
-0.387487 0.784255 -2.08426
-0.82405 0.799697 -1.6725
-0.72153 0.7875 2.22131
-0.348777 0.983117 2.23312
-0.740301 0.97217 1.8525
0.385381 0.192727 -2.11727
0.793568 0.335 -2.10676
0.827967 0.151477 -1.74528
0.3675 0.293164 2.20349
0.758468 0.4525 2.24285
0.804873 0.21144 1.85193
0.38749 0.784194 -2.08419
0.796789 0.595 -2.06787
0.82405 0.799702 -1.6725
0.348687 0.983127 2.23313
0.72145 0.7875 2.2213
0.740222 0.972173 1.8525
-0.834165 0.152649 -1.02584
-0.836023 0.158165 -0.306396
-0.850051 0.339579 -0.653338
-0.415113 0.155835 -0.666117
-0.827176 0.181761 1.13249
-0.83119 0.170373 0.413046
-0.869 0.356674 0.778325
-0.419846 0.164501 0.772767
-0.833183 0.860075 -0.9675
-0.849291 0.701696 -0.627779
-0.824067 0.902203 -0.2625
-0.474746 1.17227 -0.615
-0.791853 0.972478 1.1475
-0.857145 0.766238 0.789442
-0.812218 0.941598 0.4425
-0.509361 1.40713 0.795
0.833802 0.153016 -1.02584
0.415044 0.155834 -0.666117
0.836227 0.157965 -0.306396
0.850077 0.339618 -0.653338
0.826987 0.181952 1.13249
0.419934 0.164503 0.772767
0.831223 0.170343 0.413046
0.869002 0.356623 0.778325
0.833179 0.860091 -0.9675
0.47474 1.17228 -0.615
0.849289 0.701745 -0.627779
0.824073 0.902244 -0.2625
0.79181 0.972502 1.1475
0.509328 1.40713 0.795
0.857153 0.766247 0.789442
0.812199 0.941631 0.4425
-0.869054 0.4789 -1.73174
-0.409284 0.465 -2.26847
-9.09807e-06 0.152576 -1.75248
2.98768e-06 0.327794 -2.24224
-0.869079 0.321806 -1.36917
-0.416168 0.153249 -1.38556
-0.834712 0.604796 1.86037
-0.366291 0.62 2.26766
1.461e-05 0.222297 1.84946
-1.12504e-05 0.454973 2.30593
-0.874361 0.390324 1.49416
-0.41077 0.181581 1.49221
7.97902e-07 0.895844 -1.7174
1.98931e-06 0.639899 -2.23469
-0.885621 0.665358 -1.33639
-0.418323 0.945262 -1.32
-3.70614e-05 1.0274 1.86772
-3.37511e-05 0.80272 2.25491
-0.855109 0.787005 1.49805
-0.3891 1.20138 1.5
0.869054 0.478916 -1.73174
0.409289 0.465 -2.26847
0.868882 0.321425 -1.36917
0.416546 0.153251 -1.38556
0.834624 0.604786 1.86042
0.366295 0.62 2.26766
0.874154 0.39031 1.49416
0.410803 0.181583 1.49221
0.885621 0.665377 -1.33639
0.418321 0.945254 -1.32
0.855021 0.786984 1.49805
0.389023 1.20139 1.5
-0.85125 0.353053 0.0624937
-0.414696 0.162978 0.0533249
-0.865973 0.506701 -0.996669
-0.863887 0.530247 -0.284448
-3.42679e-05 0.148235 -1.02584
-2.05297e-05 0.153472 -0.306396
-0.865583 0.549539 0.427773
-0.886868 0.574388 1.13999
3.21167e-05 0.162051 0.413046
4.38299e-05 0.169495 1.13249
-0.849226 0.735412 0.0808312
-0.528149 1.4087 0.0899999
-5.86527e-07 0.983026 -0.9675
-4.26928e-06 1.38819 -0.2625
-1.02503e-05 1.4244 0.4425
-2.1181e-05 1.37039 1.1475
0.851254 0.353033 0.0624937
0.414721 0.162978 0.0533249
0.865987 0.506747 -0.996669
0.863889 0.530283 -0.284448
0.865562 0.549523 0.427773
0.886874 0.574358 1.13999
0.84939 0.735527 0.0808312
0.528131 1.4087 0.0899999
-0.861231 0.328403 -1.73851
-0.852175 0.331719 -1.01125
-0.858703 0.682464 -0.982085
-0.868541 0.630179 -1.70212
0.861044 0.328212 -1.73851
0.86858 0.630189 -1.70212
0.858714 0.682496 -0.982085
0.852155 0.331569 -1.01125
-0.400771 0.152581 -1.74888
0.400963 0.152582 -1.74888
0.415197 0.14823 -1.02584
-0.415055 0.14823 -1.02584
-0.402905 0.880355 -1.69495
-0.415668 0.969309 -0.9675
0.415666 0.969263 -0.9675
0.402905 0.880361 -1.69495
-0.397329 0.331397 -2.2063
-0.398385 0.61745 -2.16858
0.39839 0.61745 -2.16882
0.397335 0.331397 -2.2063
-0.850542 0.34637 -0.295422
-0.856056 0.356898 0.420409
-0.84514 0.746802 0.435136
-0.848536 0.718193 -0.273474
0.850539 0.346389 -0.295422
0.848533 0.718233 -0.273474
0.845137 0.74682 0.435136
0.856061 0.356861 0.420409
-0.416314 0.156588 -0.306396
0.416292 0.156587 -0.306396
0.417367 0.16366 0.413046
-0.417311 0.16366 0.413046
-0.541453 1.3705 -0.2625
-0.520555 1.41152 0.4425
0.520528 1.41151 0.4425
0.541442 1.3705 -0.2625
-0.875954 0.376115 1.13624
-0.837334 0.421412 1.85615
-0.817945 0.787252 1.85643
-0.871036 0.771734 1.14375
0.875929 0.376069 1.13624
0.870926 0.771721 1.14375
0.817838 0.787242 1.85646
0.837309 0.421405 1.85617
-0.415527 0.169494 1.13249
0.415602 0.169496 1.13249
0.389152 0.222559 1.85069
-0.389135 0.222558 1.85069
-0.394238 1.35818 1.1475
-0.368938 1.01335 1.86011
0.368855 1.01356 1.86011
0.394186 1.3582 1.1475
-0.366896 0.453736 2.29553
0.366898 0.453736 2.29552
0.357491 0.79511 2.2651
-0.357534 0.79511 2.2651
-0.777181 0.27 -2.1009
-0.578062 0.193188 -2.11681
-0.8106 0.166995 -1.92514
-0.732403 0.36875 2.21291
-0.55125 0.312986 2.18366
-0.781364 0.236793 2.03179
-0.790231 0.66 -2.05078
-0.581231 0.750687 -2.05069
-0.807781 0.770617 -1.84875
-0.714281 0.87125 2.21792
-0.523143 0.979081 2.22908
-0.721489 0.966168 2.02875
0.578069 0.193273 -2.11673
0.777182 0.27 -2.1009
0.811644 0.165958 -1.92514
0.55125 0.298124 2.19853
0.732404 0.36875 2.21292
0.779529 0.238628 2.03179
0.581234 0.750705 -2.05071
0.790188 0.66 -2.05074
0.807805 0.770642 -1.84875
0.523053 0.979048 2.22905
0.714149 0.87125 2.21786
0.721402 0.966168 2.02875
-0.833293 0.155364 -0.845977
-0.834217 0.158127 -0.486256
-0.844546 0.24832 -0.659727
-0.622758 0.156682 -0.666117
-0.827625 0.179469 0.952627
-0.833911 0.169496 0.592906
-0.870239 0.252937 0.775546
-0.626599 0.171836 0.772767
-0.827944 0.867647 -0.79125
-0.843935 0.793256 -0.62139
-0.825546 0.890871 -0.43875
-0.69121 1.10705 -0.615
-0.795446 0.963259 0.97125
-0.841368 0.866703 0.792221
-0.805135 0.947326 0.61875
-0.687728 1.24779 0.795
0.833165 0.155496 -0.845977
0.622733 0.156618 -0.666117
0.834248 0.158101 -0.486256
0.844525 0.248383 -0.659727
0.827401 0.179695 0.952627
0.626599 0.171983 0.772767
0.833932 0.169477 0.592906
0.870245 0.25288 0.775546
0.827881 0.867607 -0.79125
0.691201 1.10706 -0.615
0.843928 0.793291 -0.62139
0.825539 0.890896 -0.43875
[...]
POINT_DATA 3682
SCALARS point_scalars float 1
LOOKUP_TABLE default
-101.245
-39.5786
-77.8366
-40.1424
-101.186
-39.6305
-78.1092
-40.0584
-37.5542
-40.6158
-57.7002
-50.6693
-37.5329
-40.6351
-57.6883
-50.7342
-0.540523
-86.8347
-38.0253
-38.4604
-44.6355
-39.6108
-36.1044
28.4374
-88.9756
-37.6177
-40.3572
-43.9641
-38.9123
-36.5121
40.1739
-94.5478
-52.8478
-46.6768
-42.6562
-39.0538
-39.1721
-53.4312
-52.9863
-112.016
-63.4426
-39.8234
-40.4318
-38.1049
74.7766
-113.316
-39.6994
-39.546
-41.2378
-34.8329
-34.6994
157.963
-35.217
-34.862
143.146
-36.9592
-36.4607
0.609281
-47.5577
-86.7195
-64.5717
-38.7892
-37.3557
-37.1409
72.7359
-113.39
-39.269
-39.4103
-40.6257
-34.6844
-34.2909
158.336
-34.9947
-34.74
142.976
-36.7223
-36.369
0.652432
-47.5355
-85.0707
-64.5847
-38.7515
-37.2924
-36.9055
-0.72938
-87.5392
-38.0103
-38.492
-44.6993
-39.6633
-35.7408
31.1616
-89.1025
-37.5946
-40.3495
-43.8042
-38.776
-36.4059
42.504
-94.4128
-52.8215
-46.6738
-42.5846
-38.9729
-39.0636
-53.8446
-52.7649
-111.877
-63.4205
-39.7505
-40.3366
-38.03
-79.6613
-148.127
-55.6086
-38.7186
-29.5624
-42.7175
-90.3014
-50.713
-39.3627
-50.4085
-85.3677
-55.6753
-38.6091
-42.6637
-50.7235
-50.3667
-34.3474
-40.6535
-42.2629
-40.3188
-39.5186
-55.2606
16.0552
-67.795
-34.338
-40.6357
-40.3354
-55.2354
-56.6057
-56.5966
-61.9939
-6.03655
208.261
-41.2145
-41.2054
-37.2161
-95.86
-51.0807
-51.176
-41.9535
-44.8791
-29.0411
-73.1429
-162.672
-75.0737
-39.0869
-33.9552
-44.8326
-69.5357
-71.9159
-57.3492
-39.3513
-37.7875
-43.6208
-161.5
-75.3582
-74.7475
-33.8259
-38.9808
-44.8121
-71.9308
-69.8025
-57.328
-37.7789
-39.2544
-43.5933
-45.2227
-37.5223
-38.5315
-41.5046
-40.5696
-33.2603
-38.8848
-39.2294
-44.5372
-45.5595
-58.8236
10.1052
-52.598
-44.7305
-53.5824
-65.2707
-45.1252
-41.4988
-37.52
-38.5085
-40.5237
-39.2216
-33.2442
-38.9147
-44.437
10.0959
-45.543
-58.7977
-52.6061
-65.2566
-44.744
-53.6233
-73.0968
188
-88.3271
143.057
-56.2031
-61.182
-45.9514
-33.9229
-38.5551
-24.1527
-47.4801
-42.3509
-28.9538
163.619
-57.1272
-15.021
-40.0937
-33.4066
-50.5516
-45.2986
-73.0153
188.006
-56.211
-61.1986
-45.866
-33.7612
-47.4056
-42.3065
-57.1293
-15.0261
-50.5476
-45.295
-37.7386
-36.7732
-43.6179
-41.8397
-49.091
-39.5416
-39.9904
-43.8898
-37.6754
-40.6713
-46.696
-86.6625
19.0395
-111.899
-76.0257
-56.8515
-37.7245
-36.7691
-43.6059
-41.827
-39.9891
-43.853
-46.7703
-86.6462
-74.927
-44.1852
-44.9326
-68.6271
-74.8453
-68.6388
-44.9221
-44.1835
-86.8473
-86.7071
-48.1097
-48.1083
-34.343
6.60603
6.56766
-34.3415
149.529
139.816
139.408
149.593
-38.6817
-36.7632
-44.8203
-47.7633
-38.6637
-47.7537
-44.8373
-36.7328
-38.8757
-38.8705
-37.3817
-37.3855
-101.756
-69.8847
-69.8722
-101.128
-43.1789
-45.8182
-45.4623
-48.7487
-43.129
-48.7432
-45.3864
-45.7355
-40.7853
-40.7694
-40.2681
-40.3266
-57.1474
-40.8907
-40.8801
-57.1263
-32.0855
-31.9006
-34.7719
-34.873
-70.5965
-169.268
-89.88
-39.3873
-36.6221
-42.5397
-70.4657
-60.8971
-68.619
-39.8716
-37.3704
-41.3351
-169.343
-71.2315
-90.1284
-36.7004
-39.3677
-42.5833
-60.9751
-70.5577
-68.1851
-37.3303
-39.7704
-41.28
-40.1492
-37.3014
-37.8234
-40.1436
-41.9134
-37.9594
-39.2231
-39.8194
-50.6959
-50.5425
-59.6501
-45.1176
-49.8727
-48.2275
-52.0606
-56.911
-40.1033
-40.1325
-37.2685
-37.8
-41.8614
-39.8008
-37.9594
-39.1727
-50.6095
-45.0861
-50.5235
-59.6248
-49.93
-56.9066
-48.2634
-52.1234
-77.0596
-72.9584
-96.7324
162.453
-144.315
-144.341
-104.291
73.023
-63.4561
-49.4359
-55.576
-58.6224
-39.2775
-38.9276
-43.079
-35.3604
-30.9022
-30.8151
-34.2163
-26.5762
-46.2456
-41.636
-47.0536
-42.4308
-75.7883
-75.901
-41.9379
88.973
-54.1045
-45.5746
-54.5194
-24.9732
-38.6853
-38.6893
-39.4598
-33.3614
-47.1198
-52.3399
-49.3521
-47.1796
-78.6259
-74.1875
-96.4087
162.544
-63.5389
-49.4476
-55.5953
-58.6287
-39.1621
-38.8216
-42.9661
-35.2497
-46.2146
-41.6035
-46.9302
-42.3662
-54.1181
-45.5771
-54.5237
-25.0095
-47.0975
-52.3159
-49.3327
-47.1649
-35.6631
-33.4465
-36.4541
-35.8437
-39.4528
-42.5745
-40.5182
-41.4471
-42.0832
-42.08
-46.1579
-40.4423
-39.373
-42.0351
-39.6514
-42.01
-39.4866
-39.4825
-38.4497
-40.2047
-57.1967
-54.6358
-49.8688
-68.2894
16.8724
16.7971
32.9749
-46.1242
-67.4378
-67.4331
-71.7851
-63.4492
-35.622
-33.48
-36.436
-35.8371
-39.4327
-42.5581
-40.5028
-41.4321
-39.4082
-42.0439
-39.669
-41.9833
-57.1698
-54.6533
-49.8542
-68.2576
-62.6095
-56.5456
-56.7011
-49.0959
-62.5739
-56.5511
-56.6952
-49.0874
-73.5801
-62.3977
-62.3978
-54.5533
-17.6403
-8.23455
-8.2381
5.80425
201.346
167.153
178.535
201.336
-39.2256
-41.6422
-41.0115
-43.7138
-39.2139
-41.6357
-41.0084
-43.7111
-37.1155
-38.5015
-37.2475
-37.1127
-93.856
-105.155
-83.34
-93.8523
-49.8085
-49.0092
-51.7631
-49.0485
-49.7125
-49.0085
-51.896
-48.9844
-41.5975
-42.1052
-42.0853
-42.5927
-41.8191
-44.9216
-44.9415
-49.4921
-30.9471
-26.1688
-31.3617
-30.7999
-94.7234
141.783
-106.829
97.3082
-75.2318
-83.0059
-42.278
-34.4874
-36.9007
-32.3088
-45.7595
-42.1012
-91.9003
116.524
-46.812
87.2471
-66.1815
-41.1402
-43.1836
-35.8431
-39.3616
-35.7964
-45.0961
-41.6061
-106.958
100.327
-94.3657
142.077
-75.0967
-82.9268
-36.69
-32.2051
-42.1825
-34.3487
-45.6717
-42.5603
-46.8373
87.4249
-91.8544
116.718
-66.1661
-41.1087
-39.3527
-35.7161
-43.0823
-35.7577
-45.0418
-41.5996
-44.8366
-46.7992
-37.9363
-38.2624
-39.3735
-38.5427
-45.2569
-39.7202
-42.6893
-41.0614
-35.0411
-36.9816
-37.4272
-42.5628
-38.2347
-40.2876
-46.6674
-10.987
-43.3117
-47.3197
-52.1814
-88.5077
18.1541
-24.1297
-50.0994
-58.9975
-43.9263
-45.24
-48.2482
-60.5307
-67.2111
-63.0699
-44.8145
-46.7953
-45.254
-39.714
-37.9185
-38.2535
-39.3534
-38.5212
-42.6382
-41.037
-38.23
-40.2776
-35.0064
-36.9802
-37.3979
-42.5102
-46.6541
-10.9144
18.1944
-24.1328
-43.2964
-47.3056
-52.1669
-88.4915
-50.1123
-58.9834
-67.1946
-63.0553
-43.9503
-45.2279
-48.2785
-60.5063
-73.5894
-71.4344
158.995
150.121
-88.0148
-87.9959
143.797
143.679
-63.553
-49.8667
-72.1611
-53.2399
-46.1034
-45.6802
-33.28
-34.169
-38.9892
-39.0289
-27.2732
-27.114
-46.1459
-49.7966
-42.5781
-42.8519
-30.0608
-30.0602
164.101
164.005
-49.7238
-60.9488
-24.1263
-4.6516
-40.3219
-40.3199
-34.1416
-34.2264
-48.1542
-50.6607
-50.0065
-42.5781
-73.4712
-71.4188
150.203
158.965
-63.4887
-49.861
-72.1832
-53.2532
-45.597
-46.0245
-33.0961
-33.9952
-46.1043
-49.7437
-42.5422
-42.7873
-60.936
-49.7125
-4.6656
-24.1159
-50.6209
-48.0967
-42.5745
-50.005
-38.2018
-37.368
-37.9254
-36.8854
-43.8102
-43.9958
-39.9751
-44.3868
-48.8706
-48.8704
-39.3791
-39.3766
-38.216
-41.9816
-43.439
-45.5643
-37.6055
-37.6084
-40.6845
-40.6744
-46.1342
-47.3609
-101.537
-75.87
16.1323
16.1263
-109.764
-109.736
-74.7079
-74.7138
-56.9599
-56.9879
-38.1868
-37.3593
-37.921
-36.8832
-43.9831
-43.7993
-39.9597
-44.3766
-41.9891
-38.2017
-43.3985
-45.545
-47.3586
-46.1302
-75.8623
-101.524
-90.0713
-63.0634
-63.1028
-95.8771
-39.0654
-39.9224
-49.4001
-49.5382
-46.9652
-49.6481
-49.0822
-41.417
-86.5024
-95.7086
-62.7497
-57.3487
-90.0627
-95.2881
-63.0301
-63.0295
-86.4335
-57.3696
-62.7295
-95.6218
-46.9333
-41.4037
-49.0674
-49.6428
-39.0354
-49.5539
-49.3879
-39.9048
-103.018
-105.229
-73.2366
-68.87
-102.985
-68.9944
-73.2355
-105.21
-43.8721
-45.9446
-54.0042
-51.3582
-43.8906
-51.349
-54.0033
-45.9451
-56.9014
-32.9308
-18.9857
-43.0054
-15.363
29.5452
3.39005
-18.8177
-15.599
-18.8045
3.49203
29.5136
-56.8971
-43.0223
-18.9859
-32.932
91.1477
148.781
160.385
90.9775
56.3235
91.658
174.117
116.512
56.5983
116.453
174.13
91.9112
90.9539
90.9755
160.417
148.818
-37.7871
-36.9873
-39.6586
-39.7546
-36.6535
-38.2294
-38.9868
-36.27
-47.4248
-49.5346
-43.3936
-41.329
-52.4079
-43.8864
-44.2109
-51.1085
-37.7616
-39.7356
-39.648
-36.9715
-52.392
-51.0994
-44.2069
-43.8728
-47.4602
-41.349
-43.4008
-49.5213
-36.2574
-36.278
-38.9811
-38.25
-38.6583
-40.339
-38.3783
-37.2387
-38.6472
-37.2299
-38.3761
-40.3358
-38.065
-38.3953
-37.1608
-36.4684
-38.0658
-36.4618
-37.1634
-38.3986
-95.6697
-75.077
-105.102
-34.6712
-58.1353
-70.7247
-81.6149
-65.3852
-58.1182
-65.3671
-81.6109
-70.7112
-95.8819
-34.7401
-105.097
-75.0469
-42.9792
-44.8039
-47.4522
-41.9626
-42.4853
-42.6751
-50.3516
-49.7494
-42.8369
-47.7417
-49.1312
-43.187
-46.5589
-42.3568
-50.3539
-50.7178
-42.9179
-41.932
-47.3765
-44.7801
-46.5235
-50.6723
-50.3067
-42.3441
-42.7597
-43.0768
-49.0525
-47.6901
-42.4149
-49.709
-50.308
-42.4874
-39.8993
-40.2244
-42.6346
-42.024
-39.8923
-41.9719
-42.6208
-40.2185
-39.0457
-34.9062
-41.9695
-43.4759
-39.9671
-43.574
-41.9946
-34.9701
-57.3918
-51.6972
-49.5559
-63.5423
-39.6207
-39.4336
-42.0191
-43.7936
-39.6024
-43.7851
-42.0162
-39.4303
-57.2046
-63.5386
-49.5594
-51.6788
-34.8938
-28.6871
-28.8617
-35.117
-34.7621
-34.9919
-29.1642
-28.5722
-36.1167
-34.1658
-32.2323
-35.3398
-36.1914
-35.4425
-32.3586
-34.2443
-72.616
-137.119
-101.991
-39.8635
-37.7637
-41.3469
-75.5054
-54.2471
-81.7099
-40.3413
-38.0872
-40.1231
-136.949
-72.8421
-100.154
-37.5592
-39.8874
-40.8548
-54.9518
-75.8189
-81.6403
-38.0218
-40.2641
-40.038
-39.3651
-36.6047
-37.1267
-39.2677
-44.5865
-34.8618
-38.721
-40.1391
-56.9836
-53.6388
-58.9729
-79.1058
-50.0919
-50.2763
-51.303
-52.3754
-39.3372
-39.2469
-36.5641
-37.1048
-44.6346
-40.1339
-34.8811
-38.7375
-56.9529
-79.0442
-53.6202
-58.954
-50.1519
-52.4144
-50.3336
-51.3738
-79.6247
-82.8836
-116.393
86.6126
-139.982
-139.995
-121.991
-91.952
-58.1325
-50.1865
-55.9542
-56.5888
-38.8865
-38.7939
-42.4724
-35.7481
-29.8916
-29.8436
-31.8903
-27.9263
-44.6338
-41.4316
-45.4141
-42.4293
-82.068
-82.0758
-62.2515
-10.6263
-52.6786
-48.8173
-54.3172
-36.0354
-38.9978
-39.0013
-39.212
-36.8071
-48.6719
-51.1095
-49.4092
-49.4189
-81.7605
-84.9133
-114.547
88.3442
-58.1154
-50.2493
-56.0033
-56.5932
-38.7741
-38.6863
-42.3558
-35.6585
-44.6309
-41.3931
-45.3494
-42.3578
-52.6998
-48.8254
-54.3212
-36.0675
-48.6704
-51.0718
-49.4153
-49.3867
-34.8045
-33.5106
-34.5757
-34.6847
-40.0373
-41.5406
-40.3709
-41.1392
-42.2247
-42.2229
-44.0257
-41.2762
-39.696
-41.1906
-40.0201
-40.8963
-39.5122
-39.5099
-38.8553
-40.3789
-56.206
-54.8091
-52.2886
-60.7939
16.117
16.2968
30.405
-6.2841
-67.7115
-67.7092
-69.787
-65.933
-34.8021
-33.4214
-34.5546
-34.6778
-40.0184
-41.5233
-40.3553
-41.1212
-39.7194
-41.2025
-40.0446
-40.9115
-56.1778
-54.7952
-52.2815
-60.7401
-59.6654
-56.6402
-56.6248
-52.7915
-59.6471
-56.6306
-56.6171
-52.7829
-67.5679
-62.4436
-62.4471
-57.813
-12.2799
-6.66561
-6.66799
-0.834442
204.852
194.647
194.373
204.846
-40.0763
-41.4604
-41.0935
-42.5959
-40.0666
-41.4539
-41.0855
-42.5906
-37.1994
-37.4843
-37.1592
-37.1977
-95.2107
-101.937
-88.8213
-95.2093
-50.8653
-50.1332
-51.6324
-50.7985
-51.1177
-50.1745
-51.8232
-50.6293
-41.7969
-42.0295
-42.0196
-42.4219
-43.0744
-44.909
-44.9081
-46.7983
-29.7512
-28.897
-30.0789
-29.6602
-73.1797
-76.083
-125.643
77.6893
-179.855
-147.322
-130.826
-75.0631
-82.0737
-70.3338
-73.6473
-79.7447
-38.8947
-39.4568
-40.8737
-35.2713
-35.7315
-32.2942
-35.2534
-33.1381
-43.3982
-46.5086
-46.3061
-43.1067
-73.571
-75.2561
-109.848
65.6023
-63.0729
-71.9256
-59.3508
0.659412
-64.5852
-56.2564
-64.1486
-45.2091
-39.5413
-39.1532
-42.7294
-36.1989
-37.4378
-38.2443
-38.51
-36.7518
-42.312
-44.9182
-44.793
-42.1672
-180.113
-147.35
-130.545
-76.1851
-74.8527
-79.6075
-124.368
77.1892
-82.4443
-70.1429
-73.4425
-79.4921
-35.4127
-32.1763
-35.0384
-33.0023
-38.7865
-39.3446
-40.757
-35.1459
-43.5561
-46.4762
-46.2768
-43.2822
-62.9412
-72.7389
-59.3862
0.878349
-73.7102
-75.8605
-109.904
65.5018
-64.609
-56.5781
-64.1175
-45.2043
-37.4217
-38.2444
-38.498
-36.7028
-39.4498
-39.0505
-42.6265
-36.1108
-42.2648
-44.9007
-44.7543
-42.1525
-41.6815
-47.1133
-46.1712
-45.5014
-37.0182
-38.3089
-37.3303
-38.169
-38.124
-38.9348
-38.7325
-38.5103
-40.971
-41.8083
-43.3459
-40.4526
-39.9908
-41.9796
-41.9932
-41.0047
-35.2278
-35.8572
-33.3338
-36.5462
-38.8504
-39.0932
-38.1041
-40.3308
-39.2065
-39.4198
-38.7314
-40.2717
-46.9705
-44.4329
-47.086
-28.8086
-47.8976
-43.8507
-44.2046
-46.756
-59.3005
-57.9833
-55.3647
-70.3058
-5.27924
16.0519
18.1859
-4.90613
-51.8558
-52.3063
-51.4378
-57.6432
-46.4274
-43.1873
-43.963
-45.7202
-52.7761
-54.3332
-51.1158
-56.6976
-63.9077
-66.71
-66.0316
-64.5785
-41.607
-47.4375
-46.0855
-45.4833
-40.9633
-41.8039
-43.3412
-40.4465
-36.985
-38.2971
-37.317
-38.1593
-38.1007
-38.9134
-38.7335
-38.4885
-39.9544
-41.9119
-41.9427
-40.9769
-39.1951
-39.4136
-38.725
-40.2636
-35.2105
-35.9531
-33.3059
-36.5406
-38.8017
-39.1389
-38.4329
-40.2996
-47.0073
-44.4071
-47.0783
-28.57
-5.3256
16.0367
18.2114
-5.00679
-47.8802
-43.8339
-44.1876
-46.7406
-59.2728
-57.9563
-55.3444
-70.2843
-51.8864
-52.3063
-51.4552
-57.5907
-63.8963
-66.7025
-66.0196
-64.5681
-46.4534
-43.1937
-43.9747
-45.7587
-52.828
-54.3619
-51.1525
-56.6684
-84.6198
-65.0509
-72.7835
-71.7891
177.463
194.294
177.868
179.988
-95.3286
-80.6257
-88.2294
-88.2221
135.194
135.492
143.5
143.536
-55.9668
-56.4137
-59.7787
-52.2141
-60.1223
-61.8483
-66.2784
-56.929
-44.43
-47.9766
-46.085
-45.7992
-34.8534
-32.4967
-33.9886
-33.9222
-36.4366
-40.4331
-38.6239
-38.6446
-25.1607
-23.9195
-25.1727
-25.0729
-47.5913
-47.9131
-46.8431
-49.5525
-42.4347
-42.2231
-42.5758
-42.5531
-34.069
-23.7715
-29.2211
-29.223
131.968
175.182
165.381
165.365
-56.3431
-57.1358
-53.4505
-59.4822
-20.2252
-10.9398
-19.2204
-9.77701
-39.9383
-40.7549
-40.2103
-40.2088
-33.2577
-32.2834
-33.6097
-33.6597
-49.8283
-51.273
-49.4948
-50.6847
-45.9089
-45.0687
-47.3831
-43.7375
-84.4831
-64.9937
-72.6788
-71.7453
177.38
194.266
179.971
177.952
-55.9704
-56.4271
-59.758
-52.2071
-60.1428
-61.8575
-66.3011
-56.9417
-44.3315
-47.8929
-45.7146
-46.0013
-34.7078
-32.3255
-33.8235
-33.7624
-47.4876
-47.8769
-46.825
-49.506
-42.3774
-42.1919
-42.5411
-42.4991
-56.3491
-57.1342
-59.4744
-53.4517
-20.2329
-10.9448
-9.78745
-19.2184
-49.8059
-51.3152
-50.6602
-49.4692
-45.9035
-45.071
-43.7354
-47.3783
-37.1121
-38.44
-37.9416
-37.5942
-36.4273
-36.9749
-37.0263
-36.759
-41.4184
-46.5784
-43.6952
-43.7129
-41.6906
-41.7394
-40.7908
-43.0841
-47.4929
-51.0031
-49.0402
-49.04
-39.8833
-39.5279
-39.5043
-39.503
-39.5572
-40.6302
-38.9799
-41.0993
-43.3986
-46.3457
-43.4091
-44.5824
-38.042
-37.4269
-37.6578
-37.6595
-40.0744
-41.4021
-40.6823
-40.677
-48.445
-45.0688
-46.3106
-47.1333
-77.3815
-91.6506
-94.6499
-80.6492
26.8901
12.5162
18.1545
18.1505
-100.71
-109.163
-111.41
-111.397
-73.6658
-79.0382
-75.7002
-75.7084
-60.2433
-52.6911
-56.7371
-56.7363
-37.0966
-38.426
-37.9278
-37.5824
-36.4216
-36.9713
-37.0216
-36.7562
-41.4038
-46.5673
-43.7005
-43.6835
-41.6765
-41.729
-40.7773
-43.0728
-39.5628
-40.6303
-41.1027
-38.9728
-43.347
-46.3
-43.3699
-44.5482
-48.3855
-45.0691
-47.1603
-46.3533
-77.3448
-91.6445
-80.6435
-94.6318
-82.5029
-77.0663
-73.8853
-67.1368
-44.1897
-40.787
-48.0005
-44.0482
-45.5561
-43.6675
-46.8762
-44.4519
-79.3924
-66.2964
-70.4775
-62.7419
-82.3503
-76.9567
-73.7917
-67.0577
-79.3897
-66.3071
-70.4811
-62.7446
-45.5405
-43.6566
-46.8599
-44.4401
-44.1947
-40.7739
-47.9979
-44.0411
-95.0129
-85.4102
-87.5826
-79.0127
-94.8119
-85.1411
-87.5403
-79.0173
-47.4778
-46.7455
-49.9368
-48.5689
-47.4762
-46.7459
-49.9341
-48.5681
-38.7443
-37.9415
-31.7855
-29.2352
0.256242
11.8408
0.183062
12.4114
0.222752
11.7927
0.163487
12.3979
-38.744
-37.9162
-31.7906
-29.2322
147.865
146.511
143.559
147.188
125.949
118.977
148.666
154.735
118.885
125.811
154.579
148.565
146.455
148.046
147.177
143.694
-38.1572
-38.6423
-38.4914
-39.2716
-36.2819
-36.9368
-37.0101
-37.5016
-44.0475
-46.4228
-43.1947
-45.7592
-47.6958
-50.0151
-45.8886
-47.6255
-38.1392
-38.6229
-38.4743
-39.2546
-47.6838
-50.005
-45.8786
-47.6187
-44.0668
-46.4448
-43.2063
-45.7729
-36.2488
-36.8773
-36.9938
-37.478
-38.6502
-39.2589
-38.7149
-39.152
-39.2532
-38.6427
-39.1482
-38.7103
-37.7771
-37.1736
-37.5105
-37.0999
-37.1788
-37.7807
-37.1037
-37.5139
-103.838
-55.4142
-109.599
-107.187
-65.2408
-68.3353
-72.5229
-72.6623
-68.3147
-65.0506
-72.6578
-72.5106
-55.3588
-103.667
-107.167
-109.581
-42.9577
-43.5246
-44.0684
-43.4206
-43.7851
-45.8828
-45.9387
-48.1896
-44.1092
-45.3068
-45.5828
-46.6772
-49.1935
-45.6598
-50.3758
-47.1335
-42.9067
-43.4722
-44.0249
-43.3747
-49.1954
-45.6519
-50.3395
-47.1278
-44.0245
-45.2406
-45.502
-46.6118
-43.7089
-45.7969
-45.8602
-48.1229
-41.2495
-40.1373
-41.3984
-40.7
-41.242
-40.1247
-41.371
-40.6856
-38.491
-41.2633
-39.5043
-41.9196
-38.6105
-41.2243
-39.5565
-41.9568
-57.912
-60.8112
-53.2119
-56.9368
-40.3415
-41.1909
-40.549
-41.4853
-40.3346
-41.1821
-40.5447
-41.4858
-57.9099
-60.8063
-53.2004
-56.8214
-33.6489
-32.0764
-32.4437
-29.844
-31.9075
-33.4927
-29.6496
-32.2531
-35.1061
-35.4853
-34.4389
-34.3143
-35.5871
-35.1997
-34.4812
-34.5465
-117.444
56.9326
-129.212
5.01771
-88.412
-97.3621
-41.4857
-35.934
-38.4075
-35.4909
-43.0162
-40.4887
-106.176
33.7749
-68.8868
6.48194
-80.2822
-59.6983
-42.2867
-36.774
-38.5173
-36.59
-42.2339
-40.1319
-128.614
5.55537
-117.545
56.8063
-88.6521
-97.16
-37.8332
-35.7099
-41.2972
-35.7487
-42.9701
-40.7012
-68.9066
6.38415
-106.141
33.6577
-80.1343
-59.6432
-38.4862
-36.5292
-42.1946
-36.6896
-42.1714
-40.1036
-38.9911
-42.8416
-37.1965
-37.9363
-38.4433
-37.7108
-41.8254
-39.1629
-42.4354
-40.3973
-35.6557
-37.7193
-37.7178
-41.8269
-38.8705
-40.2103
-49.3925
-44.7486
-48.8322
-51.7307
-55.6586
-77.8115
-21.8185
-70.607
-48.2734
-52.0139
-47.6671
-49.2505
-50.2712
-54.4173
-56.9278
-56.0583
-38.9514
-42.807
-41.8116
-39.1511
-37.1649
-37.921
-38.4209
-37.6828
-42.3838
-40.3924
-38.8634
-40.1899
-35.6078
-37.7115
-38.716
-41.7891
-49.3468
-44.7444
-21.8987
-70.5408
-48.8088
-51.7144
-55.6405
-77.7824
-48.2987
-52.0615
-56.9196
-56.0848
-47.7067
-49.2784
-50.3229
-54.4246
-118.162
78.5294
-112.818
71.2367
-95.0557
-94.4953
156.178
147.643
-125.101
-108.726
-125.097
-108.604
-104.811
-104.803
77.9146
77.8743
-62.3097
-65.8573
-49.7871
-50.0202
-59.1973
-52.1246
-63.3902
-54.7421
-41.7902
-35.7049
-42.5331
-35.8173
-42.9428
-43.0324
-35.4283
-35.3235
-32.8499
-29.6655
-32.7774
-29.5617
-34.4068
-34.4384
-27.0433
-26.979
-49.2937
-43.9737
-43.2858
-41.8881
-46.1217
-49.9706
-41.8744
-43.2315
-57.066
-5.72906
-57.0468
-5.27998
-42.2458
-42.352
90.2079
90.1934
-58.629
-41.5423
-49.098
-34.2043
-52.2056
-55.6759
-28.6466
-23.0984
-38.9813
-36.773
-38.9797
-36.7477
-39.4537
-39.4525
-34.0835
-34.1041
-47.5674
-45.3353
-51.4172
-53.43
-48.8692
-50.0005
-49.2001
-45.2726
-115.83
78.6854
-112.81
70.7724
-94.6022
-94.3693
147.555
156.307
-62.2672
-66.1676
-49.8177
-50.0396
-59.1999
-52.136
-63.4169
-54.749
-41.6676
-35.5974
-42.4144
-35.7227
-42.9201
-42.819
-35.309
-35.2132
-49.2296
-43.917
-43.2588
-41.8449
-46.1442
-49.8555
-41.8319
-43.1596
-58.6511
-41.5354
-49.1085
-34.1759
-55.6848
-52.2311
-23.1494
-28.5988
-47.5269
-45.3184
-51.3884
-53.3991
-49.9627
-48.8338
-45.2603
-49.1847
-35.8684
-36.8916
-35.5059
-36.5682
-36.4365
-36.1178
-36.0362
-36.2277
-39.465
-39.6063
-41.7738
-43.3707
-40.2818
-40.8586
-40.5025
-42.6588
-43.8155
-41.1209
-43.8132
-41.1175
-46.072
-46.0724
-40.4567
-40.4547
-38.7077
-39.4619
-41.6271
-42.3043
-38.839
-40.6578
-41.7551
-41.8667
-38.893
-40.3663
-38.8889
-40.3622
-38.4359
-38.4376
-40.2355
-40.232
-53.9875
-65.0024
-52.0884
-59.3908
-49.4536
-51.3311
-71.0097
-64.9916
29.3087
-3.7955
29.3101
-3.64604
32.3546
32.1227
-43.7568
-43.7767
-68.9007
-65.7319
-68.9068
-65.726
-71.5447
-71.5399
-63.536
-63.534
-35.8407
-36.8743
-35.5511
-36.6135
-36.426
-36.0954
-36.0356
-36.2208
-39.4461
-39.5865
-41.7576
-43.3558
-40.8444
-40.2656
-40.4855
-42.6448
-38.7789
-39.4688
-41.6412
-42.3086
-40.6735
-38.8593
-41.7269
-41.8431
-53.9706
-64.9644
-52.116
-59.3682
-51.3483
-49.3822
-64.9673
-70.9771
-63.0512
-62.5703
-59.9878
-52.4824
-52.6533
-60.1562
-49.2315
-49.0566
-63.0008
-62.5451
-59.9611
-52.4761
-60.1469
-52.6457
-49.0507
-49.2218
-73.834
-73.8343
-67.6915
-57.9069
-67.6986
-57.9144
-54.408
-54.4068
-17.9607
-17.9623
-13.8862
-2.62811
-2.64649
-13.8872
5.18163
5.18477
188.373
186.786
168.15
168.184