# vtk DataFile Version 2.0
tri_press
ASCII
DATASET UNSTRUCTURED_GRID
POINTS 3682 float
-0.715 0.275 -1.96724
-0.750196 0.325 1.815
-0.601737 0.665 -1.945
-0.824708 0.745 1.555
0.706071 0.275 -1.975
0.750191 0.325 1.815
0.603135 0.665 -1.945
0.824713 0.745 1.555
-0.678421 0.339977 -0.706493
-0.744524 0.302273 0.554254
-0.679571 0.695177 -0.778334
-0.751949 0.719898 0.388333
0.787934 0.22451 -0.711667
0.744243 0.299575 0.551667
0.679578 0.69425 -0.778334
0.752425 0.719905 0.388333
-1.42449 0.0683184 -2.89609
-1.40038 0.0910803 -1.92483
-1.40072 0.133169 -0.661468
-1.47543 0.1204 0.620763
-1.51321 0.124304 1.88572
-1.51221 0.142836 2.8648
-1.50235 0.163226 3.8295
-1.42419 0.269159 -2.9175
-1.40126 0.290839 -1.95675
-1.4049 0.341533 -0.712048
-1.49055 0.320768 0.540962
-1.53172 0.329222 1.78751
-1.52311 0.349429 2.76538
-1.5084 0.370352 3.7333
-1.38801 0.6659 -2.93488
-1.3374 0.679336 -1.97135
-1.39848 0.716312 -0.790983
-1.50059 0.730439 0.382659
-1.57415 0.746936 1.56501
-1.54579 0.766755 2.54692
-1.51647 0.786809 3.53022
-1.40057 1.27819 -3.03151
-1.38316 1.29574 -2.08157
-1.41155 1.3232 -0.932027
-1.46367 1.34974 0.197224
-1.50012 1.37391 1.3481
-1.50587 1.3929 2.30081
-1.49783 1.41162 3.27357
-0.729695 0.0568814 -2.90398
-0.692155 0.0702398 -1.93554
-0.667263 0.116223 -0.661706
-0.732959 0.108663 0.631866
-0.752783 0.118448 1.90615
-0.748086 0.138068 2.87852
-0.74011 0.158153 3.83718
-0.743219 0.260409 -2.92081
-0.748389 0.345862 2.77665
-0.741118 0.366025 3.73901
-0.711436 0.657231 -2.92413
-0.766925 0.764244 2.5446
-0.744842 0.783172 3.52933
-0.705991 1.26945 -3.02081
-0.68107 1.28691 -2.06959
-0.693168 1.3151 -0.924997
-0.721999 1.34359 0.195723
-0.740553 1.36951 1.34097
-0.742183 1.38874 2.29369
-0.735373 1.40705 3.26821
0.672795 0.0397673 -2.90899
0.736 0.0436302 -1.94176
0.795405 0.0378115 -0.666366
0.754572 0.0904139 0.629288
0.750337 0.114135 1.90528
0.772566 0.13232 2.87768
0.783999 0.149947 3.83614
0.636064 0.250838 -2.92563
0.786689 0.342229 2.7761
0.792203 0.359148 3.73811
0.601455 0.651415 -2.92652
0.811626 0.761107 2.54417
0.802809 0.776887 3.52854
0.659686 1.25751 -3.02264
0.689181 1.27578 -2.07102
0.72254 1.30352 -0.926129
0.757423 1.33344 0.194789
0.784886 1.36142 1.34013
0.792411 1.38062 2.2928
0.793875 1.39791 3.2672
1.38279 0.0282627 -2.90501
1.44234 0.0320516 -1.93476
1.50991 0.0227347 -0.669349
1.50408 0.0738802 0.615961
1.51069 0.109002 1.88325
1.53011 0.127799 2.86271
1.5414 0.144874 3.82722
1.34507 0.240797 -2.92598
1.4021 0.25442 -1.96654
1.49014 0.227041 -0.719534
1.50264 0.282772 0.536642
1.52426 0.320672 1.78566
1.54493 0.338368 2.76374
1.55122 0.354495 3.73129
1.29793 0.647163 -2.94023
1.31964 0.665513 -1.97559
1.41269 0.674664 -0.794259
1.50265 0.706465 0.380566
1.57002 0.740203 1.56374
1.57369 0.757073 2.54556
1.56519 0.772243 3.52841
1.35039 1.25198 -3.03538
1.38121 1.27038 -2.08479
1.43304 1.29665 -0.934652
1.49176 1.32641 0.195056
1.53617 1.35536 1.34618
1.55005 1.37493 2.29885
1.55216 1.39216 3.27142
-0.61006 0.47 -1.90781
-0.00446448 0.225309 -2.02081
-0.743067 0.261133 -1.33687
-0.800699 0.535 1.69825
-2.5034e-06 0.273985 1.86601
-0.754098 0.306899 1.18463
0.000698984 0.657428 -1.93743
-0.747926 0.787361 -1.36167
2.5034e-06 0.93331 1.74331
-0.860591 0.804711 0.971667
0.606603 0.47 -1.912
0.739716 0.257042 -1.34333
0.800701 0.535 1.69825
0.752773 0.306731 1.18333
0.749717 0.787986 -1.36167
0.860714 0.804597 0.971667
-0.733682 0.298916 -0.07612
-0.685632 0.517577 -0.742413
0.0547567 0.18848 -0.70908
-0.758396 0.511086 0.471293
-0.000140534 0.225094 0.55296
-0.738635 0.730413 -0.195
3.61912e-06 1.07545 -0.778334
0.000238001 1.60507 0.388333
0.767596 0.260535 -0.08
0.685952 0.45938 -0.745
0.758706 0.50974 0.47
0.73862 0.729696 -0.195
-0.835477 0.493789 -1.34927
0.835575 0.46469 -1.3525
0.0251461 0.189817 -1.3401
0.000351301 0.993306 -1.36167
-0.00188275 0.47 -2.05606
-0.745219 0.514331 -0.13556
0.745277 0.48456 -0.1375
0.0273081 0.206304 -0.07806
0.00012081 1.5608 -0.195
-0.894694 0.523043 1.07815
0.894704 0.52237 1.0775
-7.15186e-05 0.257055 1.18398
0.000120252 1.51051 0.971667
0 0.535 1.98419
-0.662387 0.3725 -1.93738
-0.359732 0.217942 -2.02624
-0.728944 0.268156 -1.65205
-0.77864 0.43 1.75982
-0.375099 0.303265 1.83673
-0.752047 0.316049 1.49981
-0.603251 0.5675 -1.92376
-0.300519 0.624087 -1.90409
-0.69635 0.747699 -1.65333
-0.817312 0.64 1.63123
-0.412353 0.825 1.635
-0.879929 0.812136 1.26333
0.350803 0.217152 -2.03091
0.654687 0.3725 -1.94185
0.725988 0.262926 -1.65917
0.375094 0.301577 1.83842
0.778592 0.43 1.75977
0.751458 0.315889 1.49917
0.301917 0.623685 -1.90368
0.603248 0.5675 -1.92688
0.700226 0.750292 -1.65333
0.412358 0.82463 1.63463
0.817295 0.64 1.63121
0.879964 0.812049 1.26333
-0.756662 0.254637 -1.02168
-0.713445 0.312053 -0.391307
-0.685254 0.427164 -0.724453
-0.349323 0.189247 -0.707787
-0.75709 0.296807 0.86944
-0.739636 0.300061 0.239067
-0.753765 0.405527 0.512773
-0.391123 0.226102 0.553607
-0.676675 0.704195 -1.07
-0.682031 0.606092 -0.760373
-0.713751 0.717443 -0.486667
-0.421297 1.04834 -0.778334
-0.745997 0.702031 0.68
-0.754495 0.615153 0.429813
-0.751629 0.731493 0.0966667
-0.550997 1.51277 0.388333
0.753084 0.251517 -1.0275
0.429827 0.189532 -0.710373
0.773205 0.247083 -0.395833
0.681275 0.369779 -0.728333
0.755173 0.296488 0.8675
0.390184 0.226068 0.552313
0.739311 0.296664 0.235833
0.754006 0.403391 0.510833
0.677244 0.703714 -1.07
0.421431 1.04813 -0.778334
0.682436 0.576651 -0.761667
0.713753 0.716628 -0.486667
0.74594 0.701622 0.68
0.551331 1.51249 0.388333
0.754528 0.614303 0.429167
0.751627 0.730905 0.0966667
-0.832242 0.481894 -1.62854
-0.305972 0.47 -1.94916
0.0103408 0.189956 -1.68046
-0.00317361 0.347655 -2.0572
-0.826119 0.377461 -1.34307
-0.35896 0.19432 -1.33848
-0.892411 0.529021 1.3882
-0.40035 0.535 1.83209
-3.7011e-05 0.264239 1.525
-1.2517e-06 0.404493 2.04525
-0.888922 0.414971 1.13139
-0.377085 0.271893 1.1843
0.000525143 0.889418 -1.64955
-0.000591882 0.563714 -1.98868
-0.837911 0.640575 -1.35547
-0.373787 0.962241 -1.36167
6.13778e-05 1.29102 1.35749
1.2517e-06 0.734155 1.8729
-0.895971 0.663877 1.02491
-0.430235 1.453 0.971667
0.832352 0.467345 -1.63225
0.30236 0.47 -1.95285
0.823813 0.360866 -1.34792
0.382431 0.196577 -1.34172
0.892419 0.528685 1.38787
0.40035 0.535 1.8321
0.888897 0.41455 1.13042
0.376351 0.271868 1.18366
0.838104 0.626338 -1.35708
0.375034 0.962192 -1.36167
0.895974 0.663484 1.02458
0.430417 1.45295 0.971667
-0.74222 0.405239 -0.10584
-0.376431 0.206122 -0.07709
-0.817204 0.505683 -1.04584
-0.722344 0.515954 -0.438987
0.0399514 0.188654 -1.02459
0.0410324 0.197431 -0.39357
-0.753565 0.512709 0.167867
-0.887179 0.517064 0.77472
0.0135838 0.215518 0.23745
-0.000106026 0.253211 0.86847
-0.742063 0.62244 -0.16528
-0.539084 1.48526 -0.195
0.00017746 1.04895 -1.07
6.22146e-05 1.48596 -0.486667
0.000179406 1.59635 0.0966667
0.000179127 1.58176 0.68
0.740211 0.38066 -0.10875
0.411078 0.206167 -0.07903
0.825278 0.462035 -1.04875
0.722607 0.47197 -0.44125
0.753775 0.49715 0.16625
0.887079 0.516055 0.77375
0.74209 0.607199 -0.16625
0.539291 1.48509 -0.195
-0.821956 0.37498 -1.6403
-0.824147 0.403119 -1.03376
-0.796911 0.623476 -1.05792
-0.835636 0.604037 -1.64094
0.821594 0.366683 -1.64571
0.83566 0.596919 -1.64279
0.80795 0.601577 -1.05938
0.818225 0.351405 -1.03813
-0.359346 0.196049 -1.66625
0.366617 0.196148 -1.66981
0.401888 0.190358 -1.02605
-0.335396 0.189546 -1.02314
-0.337153 0.854411 -1.65144
-0.356786 1.02582 -1.07
0.357412 1.02576 -1.07
0.338476 0.854194 -1.65144
-0.332852 0.360077 -1.97325
-0.303245 0.565607 -1.92998
0.302139 0.565607 -1.9311
0.326582 0.360077 -1.97462
-0.720547 0.412796 -0.415147
-0.7494 0.404679 0.203467
-0.753189 0.621252 0.132267
-0.717923 0.617204 -0.462827
0.717239 0.371971 -0.418542
0.717991 0.594789 -0.463958
0.753189 0.613191 0.131458
0.748284 0.391438 0.201042
-0.3629 0.197638 -0.392438
0.42049 0.197776 -0.394702
0.401019 0.215342 0.236642
-0.383991 0.215684 0.238258
-0.553802 1.41402 -0.486667
-0.548979 1.50689 0.0966667
0.549242 1.50665 0.0966667
0.554048 1.41398 -0.486667
-0.894957 0.410825 0.82208
-0.885171 0.422485 1.44401
-0.896107 0.651939 1.32577
-0.744213 0.639685 0.72736
0.89493 0.409604 0.820625
0.744756 0.639153 0.726875
0.89611 0.651742 1.3256
0.885005 0.422275 1.44352
-0.374708 0.262521 0.868955
0.374201 0.262507 0.867985
0.375723 0.281712 1.51208
-0.376092 0.281619 1.51241
-0.403045 1.55028 0.68
-0.421294 1.22256 1.31041
0.421387 1.22259 1.31041
0.403374 1.55021 0.68
-0.387724 0.417246 1.91507
0.387722 0.417246 1.91496
0.406354 0.687078 1.73366
-0.406351 0.687078 1.73492
-0.689926 0.32375 -1.95354
-0.537366 0.261475 -1.98173
-0.724999 0.268551 -1.80965
-0.764382 0.3775 1.78737
-0.562648 0.309529 1.83047
-0.75416 0.317486 1.65741
-0.583417 0.61625 -1.9153
-0.451128 0.597332 -1.87733
-0.628259 0.685565 -1.79917
-0.821724 0.6925 1.59383
-0.61853 0.766437 1.57644
-0.8654 0.791649 1.40917
0.528437 0.242006 -2.00702
0.680538 0.32375 -1.95858
0.72199 0.263003 -1.81708
0.562643 0.3087 1.8313
0.764424 0.3775 1.78742
0.753878 0.317391 1.65708
0.452526 0.601087 -1.88109
0.586484 0.61625 -1.91923
0.631725 0.687691 -1.79917
0.618535 0.766422 1.57642
0.821704 0.6925 1.59381
0.865437 0.791623 1.40917
-0.802246 0.212603 -0.864087
-0.696385 0.325563 -0.5489
-0.685276 0.381851 -0.715473
-0.548547 0.195263 -0.70714
-0.767955 0.282392 0.711847
-0.741297 0.30195 0.39666
-0.750042 0.353451 0.533513
-0.586447 0.22694 0.55393
-0.655308 0.676871 -0.924167
-0.681115 0.650792 -0.769353
-0.696022 0.70567 -0.6325
-0.620045 1.01098 -0.778334
-0.75008 0.712072 0.534167
-0.753852 0.66784 0.409073
-0.753882 0.727788 0.2425
-0.674707 1.1628 0.388333
0.806535 0.201988 -0.869583
0.614481 0.195821 -0.71102
0.790549 0.225817 -0.55375
0.677392 0.325751 -0.72
0.766105 0.281634 0.709583
0.585182 0.226884 0.55199
0.763852 0.276044 0.39375
0.749883 0.351104 0.53125
0.655348 0.675919 -0.924167
0.620184 1.01055 -0.778334
0.681175 0.635534 -0.77
0.696035 0.704808 -0.6325
0.750065 0.711645 0.534167
[...]
POINT_DATA 3682
SCALARS point_scalars float 1
LOOKUP_TABLE default
-25.1683
-45.0648
71.7312
-42.3557
15.093
-53.0915
69.5781
-49.7499
-42.7782
-17.5624
-47.091
-39.1942
-41.5908
-20.4222
-47.0963
-41.241
-25.1683
-131.083
-67.1126
-34.4716
-51.5572
-44.1432
-41.5074
-25.1683
-169.539
-59.2476
-34.4716
-50.5647
-44.1432
-41.5074
5.69438
-109.767
-53.7979
-38.4389
-51.0128
-39.7206
-41.6874
5.721
-92.0471
-89.8491
-57.9313
-51.3369
-42.0451
-34.9897
-65.6287
-25.1683
-42.5767
-52.0804
-45.8036
-39.5648
-35.3544
-7.41439
-40.1704
-35.3544
131.085
-34.7994
-35.3544
93.669
5.721
-31.2719
-64.4455
-43.6332
-39.0417
-34.9897
-45.6269
-134.026
-38.9524
-51.7328
-53.3931
-47.8004
-45.1783
-48.4277
-47.912
-43.5101
172.822
-43.4935
-45.1555
85.6159
-12.694
-47.276
-65.5509
-47.5359
-45.2496
-43.3791
35.3859
-147.855
-64.5301
-35.45
-58.9469
-52.2279
-48.806
35.3859
-152.018
-60.4015
-35.45
-57.8753
-52.2279
-48.806
34.5144
-107.27
-55.1097
-40.2526
-58.0496
-47.7068
-49.2129
71.8247
-79.3433
-90.4888
-59.4443
-57.3968
-49.7956
-43.3791
130.034
-170.225
-57.3004
-40.4177
-40.1708
-40.1711
127.596
-76.5972
-44.2855
-51.1913
130.579
-57.6388
-48.5276
-41.9335
-76.3401
-55.0688
-33.1853
-43.777
-46.2553
-24.6912
-40.3338
-46.8108
52.1655
-80.0175
-40.9192
-43.1305
-26.9678
-48.3573
-66.6105
-65.6719
-63.9536
-6.06671
201.254
-37.0837
-38.255
-39.3798
-108.314
-49.9785
-53.0623
-38.0681
-51.663
-35.4321
89.4949
-75.1651
-93.1209
-40.8725
-40.6056
-41.331
106.53
130.541
-41.6749
-41.1123
-38.8236
-51.7905
-64.8669
72.1953
-94.7478
-46.2009
-48.8949
-45.0112
125.972
106.112
-45.8824
-44.3836
-49.1498
-57.8167
-32.0049
-32.7946
-43.4803
-45.7928
-44.6247
-30.9059
-17.7005
-40.7993
-55.7553
-44.9565
-45.8418
26.5264
-32.293
-32.3548
-45.1056
-66.7997
-31.2558
-45.4299
-37.8536
-42.6461
-44.8576
-41.0305
-30.7665
-20.5281
-55.8903
25.8943
-44.5061
-46.7292
-34.71
-68.3366
-34.4464
-46.8053
-106.921
181.796
-94.4647
187.148
-61.4913
-62.6918
-48.5788
-35.3221
-40.0997
-31.7244
-47.0627
-37.6966
-12.4355
164.587
-73.3328
-20.3469
-43.2067
-41.8404
-52.8998
-50.8621
-106.576
182.364
-61.4841
-62.6635
-54.0684
-43.3858
-49.9573
-38.8053
-71.3462
-21.0416
-56.2697
-52.9956
-33.8509
-38.5343
-55.2197
-36.1239
-51.4399
-41.3718
-35.0876
-31.5718
-39.1882
-37.4262
-41.4484
-89.5792
25.9858
-132.784
-94.2275
-66.2036
-36.9425
-38.9764
-55.9041
-36.7297
-36.2114
-32.6463
-42.5056
-90.6128
-100.021
-55.3433
-56.1517
-127.084
-103.424
-125.274
-56.4834
-52.1547
-95.0268
-94.673
-50.1432
-50.906
-18.6881
10.0669
9.7102
-20.5409
188.663
153.311
151.192
187.994
-33.5399
-31.6268
-39.6422
-40.4094
-35.5147
-40.7252
-41.0578
-32.8278
-40.7256
-41.3441
-38.6349
-38.4449
-146.67
-76.8873
-78.1338
-148.211
-59.8126
-47.8041
-49.3122
-25.6131
-60.248
-27.9596
-54.7492
-53.2139
-37.6481
-38.1606
-41.7197
-39.4053
-65.3602
-41.6897
-45.1491
-66.8412
-34.9584
-43.4469
-44.1252
-37.6429
10.1099
-77.6156
-110.291
-42.7609
-42.6969
-42.0095
92.4851
132.325
-3.5599
-41.8989
-37.9608
-48.9005
-58.9319
28.23
-152.959
-49.4415
-50.9203
-47.1253
124.411
87.6999
-4.45199
-44.2731
-49.6606
-55.9107
-66.7159
-35.692
-43.063
-44.7881
-63.1032
-26.7567
-15.5596
-41.3817
-50.6265
-45.9158
-45.215
-62.6342
-35.7236
-35.8281
-42.2343
-56.0092
-63.5303
-43.9415
-36.6914
-41.9888
-61.4487
-41.3932
-29.4367
-18.4504
-50.7045
-63.7217
-45.6243
-45.5612
-38.011
-58.123
-37.8937
-44.0964
124.628
120.47
-162.605
186.333
-121.939
-135.479
-122.314
99.4043
-70.2672
-48.9316
-58.3607
-60.8448
-39.7889
-40.6895
-50.1599
-35.9312
-39.6611
-43.3954
-39.8416
-35.0973
-41.0053
-41.3341
-44.342
-38.2569
127.836
127.554
33.3578
149.741
-93.4841
-67.0479
-79.0307
-60.6392
-42.2732
-44.5465
-43.3637
-43.4069
-53.7175
-37.7887
-52.3373
-50.8521
123.533
124.266
-162.878
185.582
-70.8391
-49.3356
-59.0461
-60.7057
-47.782
-48.7951
-57.9226
-44.0424
-43.6114
-42.3389
-46.8472
-39.6733
-95.0356
-67.0441
-78.1378
-60.6
-58.5351
-40.5523
-55.7816
-54.8869
-32.3353
-32.9921
-33.3658
-37.6363
-43.4888
-44.1942
-47.3888
-38.7181
-46.2087
-45.9185
-49.2078
-43.5694
-20.6223
-28.7248
-31.5294
-16.2905
-40.4066
-40.5776
-39.4572
-39.9772
-46.7576
-46.9735
-44.0003
-71.6678
47.5404
47.3325
41.5607
83.418
-78.0836
-78.7888
-85.4899
-73.349
-33.1549
-33.7943
-37.6783
-38.4514
-43.2603
-43.8238
-49.8172
-38.2668
-23.1149
-30.8824
-33.1446
-18.7381
-48.1265
-48.6186
-45.252
-73.0263
-79.9251
-64.1525
-69.5671
-61.3232
-79.2658
-63.6926
-68.4881
-59.1181
-75.3191
-63.8162
-63.368
-56.7338
-14.9153
-9.52718
-9.78398
7.62051
194.681
204.449
189.096
195.053
-35.1437
-36.7119
-37.3137
-39.1422
-37.2061
-37.5106
-38.5729
-40.1736
-39.138
-40.7876
-39.6097
-39.2596
-104.802
-122.147
-99.5044
-105.088
-48.1457
-48.5996
-51.6078
-54.1139
-52.2078
-51.5896
-54.851
-56.4061
-39.0551
-37.9308
-38.5418
-37.428
-45.6398
-51.4515
-52.3145
-58.6747
-33.9352
-32.2723
-38.6008
-41.5046
-167.693
173.58
-120.018
163.1
-97.1566
-95.123
-50.855
-37.2357
-39.8158
-37.2206
-44.4328
-40.1226
-66.2627
164.149
22.7068
143.308
-117.962
-18.7158
-50.1182
-35.227
-39.8666
-38.8183
-50.8108
-43.5617
-125.806
134.111
-148.236
178.838
-98.8058
-94.566
-43.1482
-45.8361
-58.8109
-44.6584
-49.261
-43.1452
24.3339
140.191
-72.0226
160.87
-110.909
-20.6655
-44.2032
-44.4433
-57.5767
-43.5595
-56.4248
-48.9956
-50.4248
-48.8513
-32.7571
-39.5087
-50.975
-36.8055
-48.8615
-42.9227
-55.9309
-38.8542
-30.5416
-37.2189
-26.9673
0.338224
-39.0404
-40.4091
-56.2513
-18.7946
-49.0585
-41.3856
-43.122
-89.6196
21.1783
23.5631
-29.0065
-60.9194
-36.8773
-27.251
-42.2705
-60.8588
-71.5394
-69.5381
-43.6148
-47.9682
-48.0035
-43.1729
-35.5671
-40.913
-52.6379
-37.1267
-56.4201
-39.3187
-39.2846
-40.8198
-31.6565
-37.1546
-28.9984
-4.41612
-56.079
-17.685
20.638
22.8171
-48.7123
-41.1344
-43.5222
-90.6665
-31.2686
-63.1185
-72.8743
-71.0438
-38.5477
-29.5217
-43.7992
-62.5239
-103.153
-116.541
187.667
171.269
-94.2042
-92.7961
183.03
188.043
-74.3968
-56.4391
-74.0448
-55.5097
-48.1855
-48.9759
-34.8818
-36.3306
-40.8447
-39.5228
-32.1427
-40.3769
-50.3002
-46.0781
-37.566
-38.7101
-15.861
-16.3055
162.814
162.439
-61.9062
-89.825
-25.4259
-8.00027
-42.4478
-43.7763
-44.2542
-39.158
-50.3243
-47.7892
-57.1991
-45.2801
-104.205
-115.79
170.342
188.037
-74.9883
-55.043
-74.3754
-55.2039
-54.4557
-53.6471
-43.2561
-43.68
-52.289
-49.9761
-38.3495
-40.3583
-88.2642
-63.2247
-8.3122
-26.2665
-50.2071
-54.5459
-47.8356
-58.9768
-33.2269
-34.1283
-39.8234
-38.6028
-56.0259
-55.3761
-34.5734
-38.1676
-50.9782
-51.4703
-41.2083
-41.3638
-33.1003
-37.2646
-50.856
-14.7342
-39.0684
-38.9704
-37.4083
-37.6796
-41.5352
-41.1626
-111.856
-82.2892
21.5817
21.4177
-129.111
-129.977
-91.4491
-91.974
-65.9048
-66.5882
-35.522
-35.88
-40.463
-38.8217
-56.3851
-55.1111
-35.7222
-38.4813
-38.5234
-34.2672
-51.3572
-16.7638
-41.8807
-42.8517
-83.4515
-113.005
-153.551
-71.7962
-77.1278
-171.108
-59.8474
-49.6223
-58.2683
-52.5989
-48.9977
-63.7526
-61.7731
-48.0826
4.13779
-124.912
-84.409
-101.088
-148.19
-163.228
-76.9204
-72.3496
-12.1154
-98.5651
-83.4798
-123.07
-48.8553
-47.6372
-60.973
-65.4928
-62.3452
-51.8884
-57.4559
-51.0809
-125.8
-124.13
-75.1194
-73.3312
-124.741
-73.5056
-74.6088
-126.362
-47.1703
-48.7178
-56.1421
-52.7333
-48.7899
-52.7888
-56.6387
-49.2288
-9.3738
-78.6121
-18.1409
26.8924
-42.1615
37.5552
4.21481
-49.6616
-44.3838
-50.2461
4.03722
37.3565
-4.86719
26.3971
-18.4631
-79.9686
73.4106
182.327
196.8
128.828
119.195
144.474
183.105
183.782
119.06
182.593
182.865
144.029
114.866
147.52
198.917
183.566
-35.9954
-32.3361
-34.7107
-37.678
-25.8488
-29.0415
-35.5299
-33.182
-39.6961
-43.9481
-39.4306
-34.097
-43.2361
-39.9984
-38.7583
-43.7713
-36.6923
-37.626
-36.3572
-35.0755
-43.1397
-44.7494
-39.446
-39.5171
-41.4666
-35.7193
-40.6595
-45.3413
-28.1764
-34.6794
-37.1698
-30.7394
-41.7375
-43.4228
-40.5288
-38.7216
-42.6901
-40.3459
-40.7024
-43.3906
-38.1843
-39.4774
-39.4513
-37.7045
-37.8569
-37.7528
-39.338
-39.348
-101.148
-79.4953
-118.505
84.523
-59.8851
-82.5614
-95.1069
-66.1277
-61.7839
-67.6259
-95.6896
-83.1835
-101.733
84.3713
-118.995
-80.7185
-29.0735
-46.5482
-52.3638
-7.62412
-50.0928
-50.968
-47.1501
-44.3389
-50.0247
-51.5568
-49.3789
-50.1153
-31.6426
-22.3138
-55.8572
-37.5483
-28.2575
-10.2287
-54.5315
-48.1984
-33.8982
-40.2803
-58.4217
-24.5759
-57.2251
-57.7534
-53.5364
-55.9404
-57.4815
-47.9198
-51.1495
-58.9368
-43.5015
-40.0213
-37.3912
-38.1545
-43.8288
-39.0448
-37.8053
-40.2599
-44.4319
-41.4175
-39.475
-40.9918
-40.266
-38.9167
-38.5845
-39.5163
-53.9177
-57.3906
-57.8338
-72.3068
-39.854
-42.0938
-45.3121
-47.8032
-45.6755
-52.8742
-46.298
-43.5687
-56.3158
-73.0041
-58.6045
-60.3808
-39.6922
-34.4682
-32.7761
-36.3703
-47.1586
-44.1014
-40.7847
-41.257
-44.3572
-44.5152
-43.1197
-43.4374
-38.3972
-34.748
-36.8282
-40.9515
-30.9788
-39.2102
-123.458
-44.3156
-45.276
-43.7561
80.6066
104.831
4.1698
-42.1675
-38.3516
-45.8107
-43.5685
19.6085
-77.8986
-52.8342
-52.3859
-50.4131
101.75
77.0014
4.63285
-45.1107
-49.7696
-52.9798
-56.7805
-39.1982
-42.7452
-43.7398
-25.8964
-23.5147
-16.6895
-37.6529
-48.5443
-46.4557
-46.0516
-55.0855
-37.1637
-37.5597
-40.7964
-49.677
-47.3312
-41.8054
-37.8552
-41.6336
-27.5857
-37.7616
-27.8205
-19.6807
-48.5254
-55.2896
-46.2888
-46.1797
-39.3653
-51.8179
-39.5999
-42.6873
125.877
130.053
-79.3231
173.592
-141.299
-133.52
-147.942
23.163
-62.964
-52.7635
-57.9024
-59.1148
-40.4244
-40.6001
-47.6179
-37.2274
-39.4932
-41.4655
-37.9114
-36.5934
-40.4234
-40.5909
-42.5304
-38.997
124.751
124.527
64.913
141.312
-85.2984
-72.9354
-81.2078
-71.8133
-43.3998
-44.4242
-43.8797
-45.0109
-52.6196
-48.5087
-50.8437
-49.3823
123.231
132.107
-74.5063
174.411
-63.4669
-52.5281
-58.2964
-58.7419
-48.6005
-48.6927
-56.1234
-44.7533
-42.5895
-41.9574
-44.6948
-40.5341
-85.5595
-72.7027
-81.0004
-71.8967
-57.0923
-52.057
-54.4222
-53.3747
-31.9813
-33.4431
-33.2532
-35.7376
-43.6101
-43.9379
-45.9047
-40.7802
-46.2948
-46.1164
-47.6523
-45.2813
-22.7116
-26.8537
-28.5036
-19.7208
-40.3157
-40.4067
-39.6957
-41.0995
-46.7758
-46.9875
-45.3866
-60.5289
50.8092
50.709
48.1054
63.7423
-79.5589
-79.9141
-82.2871
-77.0661
-37.7933
-38.2665
-38.2805
-39.0637
-43.0604
-43.4131
-45.3309
-40.2151
-25.0684
-29.0604
-30.4143
-22.1703
-48.2502
-48.5869
-46.774
-61.9685
-72.189
-65.4217
-68.1067
-62.3021
-71.4309
-64.7018
-67.1279
-61.3945
-68.9855
-63.9435
-63.7674
-60.0228
-12.5969
-7.17851
-7.31298
-0.0638762
196.669
206.353
195.53
196.242
-36.0716
-36.8506
-37.3653
-38.0525
-37.6483
-37.9149
-38.6873
-39.1973
-39.3303
-40.1613
-39.343
-39.3987
-108.03
-117.386
-102.721
-108.275
-48.8505
-49.2596
-50.8599
-51.5984
-52.3764
-52.2918
-54.0296
-54.2819
-38.7596
-37.8957
-38.201
-37.6794
-48.2582
-51.5535
-51.9617
-54.7769
-32.8944
-33.6737
-37.0238
-38.0782
50.9304
117.728
-104.137
147.654
-96.0444
-75.0086
-182.353
50.2082
-126.144
-79.3601
-96.3785
-94.7077
-41.7646
-40.1339
-47.2783
-37.7611
-41.7284
-39.768
-38.8666
-39.527
-41.5241
-41.5804
-42.9165
-40.9172
98.589
112.062
32.0886
167.655
140.86
133.275
56.7261
136.971
-7.7908
-87.1416
-96.5692
-7.44096
-41.8893
-40.4513
-47.741
-37.6866
-38.1489
-40.4886
-39.3288
-38.7366
-51.31
-52.8746
-51.3719
-46.3323
-70.6719
-103.364
-192.28
33.7943
34.5267
113.077
-90.1187
146.833
-121.513
-80.6358
-96.9837
-93.9181
-47.9466
-44.6162
-42.7655
-47.7447
-49.8431
-48.1502
-55.8819
-44.99
-45.7741
-44.7192
-47.2942
-44.2902
125.096
132.578
60.9775
133.073
96.3831
112.798
35.286
168.606
-8.48896
-88.4062
-92.5685
-5.11215
-44.1652
-44.4877
-44.2085
-44.4203
-49.8199
-48.538
-55.8619
-45.1463
-57.8632
-58.2732
-57.0562
-52.1028
-49.7499
-44.3486
-42.1106
-45.2099
-33.5513
-32.2497
-32.8143
-36.1289
-43.3889
-43.4734
-45.1784
-39.5892
-45.527
-46.0189
-47.4131
-44.6212
-50.403
-42.3524
-51.6008
-41.1987
-29.144
-31.9339
-30.7129
-34.8096
-16.1703
-18.9854
-23.2652
-9.38092
-41.0517
-40.5884
-39.5939
-43.3224
-52.4838
-61.1908
-56.0969
-38.9732
-45.4235
-44.551
-47.1546
-42.7583
-45.3375
-46.4751
-44.3886
-66.2876
-2.45352
40.5298
26.8507
39.6466
-33.4043
-34.616
-31.2107
-51.3727
-33.9945
-30.5493
-34.8035
-29.781
-43.9012
-46.1547
-43.6671
-54.7971
-60.8986
-74.3171
-68.4851
-69.4749
-49.6812
-44.5629
-35.766
-45.4711
-44.9328
-45.7148
-46.8043
-44.7395
-38.2718
-34.9343
-35.5184
-39.8734
-42.3611
-42.9618
-44.5856
-39.1822
-49.4697
-42.9264
-52.0072
-41.3494
-41.2351
-40.8136
-39.8544
-43.4307
-27.7321
-32.2262
-31.254
-34.0095
-19.2266
-21.6397
-25.7088
-12.5775
-52.5698
-61.2676
-55.9591
-37.6208
-3.30632
40.1491
26.29
38.8974
-45.0226
-44.1047
-46.8517
-42.3872
-45.9681
-47.6239
-45.0246
-67.2927
-35.7499
-37.0261
-33.5508
-54.088
-62.8063
-75.4119
-69.9543
-70.9555
-36.0723
-32.6643
-36.6843
-32.0007
-45.6637
-47.8269
-45.2684
-56.5418
-133.31
-90.7953
-105.117
-112.878
180.303
187.437
184.453
177.719
-108.606
-83.5159
-94.0263
-93.5286
171.822
200.448
188.745
190.124
-59.9057
-62.8422
-66.9251
-58.0964
-61.5616
-63.481
-67.4231
-58.7633
-49.1947
-47.9883
-48.3652
-48.8371
-34.9641
-35.0059
-35.0487
-35.8655
-42.0019
-39.3755
-40.4256
-39.7432
-32.7953
-31.3194
-30.2259
-36.0181
-46.0277
-47.9396
-48.469
-46.2106
-37.8513
-37.6728
-37.3019
-38.5047
2.17871
-14.294
-14.5492
-14.6747
158.008
175.499
165.925
165.923
-75.9151
-71.2882
-70.2155
-79.5993
-35.0343
-13.9886
-26.6164
-15.2719
-43.0408
-44.0502
-42.8359
-43.5117
-41.007
-40.4149
-43.2205
-40.399
-53.3468
-52.2327
-51.246
-52.9229
-50.5888
-51.3596
-53.9503
-47.7609
-132.655
-90.3078
-105.331
-111.601
179.641
187.932
177.738
185.278
-60.1634
-62.714
-67.1004
-57.3337
-61.9269
-63.0041
-67.7278
-58.5695
-55.6518
-52.6768
-54.3365
-53.8432
-43.3207
-43.1079
-43.3226
-43.5671
-48.8089
-50.8906
-50.9475
-49.5686
-39.1294
-38.5488
-38.2586
-39.8172
-74.2741
-69.9704
-78.3181
-66.2611
-36.0864
-14.3172
-15.7156
-27.3791
-56.7704
-55.5443
-55.8582
-55.0118
-53.4342
-52.8528
-50.0346
-55.8654
-33.6215
-34.4352
-33.4185
-34.4981
-38.0882
-38.865
-39.1566
-38.4252
-53.3398
-57.6225
-55.6436
-55.1093
-37.3711
-36.3436
-35.4276
-37.3983
-50.3339
-53.9474
-51.2625
-51.4992
-41.9575
-40.9317
-41.3325
-41.3753
-33.5806
-36.4174
-34.0448
-36.1211
-11.2191
-55.6089
-43.0463
-18.8505
-39.3821
-39.364
-39.1655
-39.12
-38.2792
-37.3231
-37.2935
-37.4245
-42.6966
-40.2592
-41.6473
-41.3328
-82.186
-99.7963
-101.837
-86.6534
34.3226
15.3501
24.8053
24.7082
-24.8399
-125.987
-126.927
-128.361
-89.4262
-97.7513
-93.6209
-93.9056
-69.9583
-62.2947
-65.9264
-66.2671
-37.0713
-36.9154
-36.0251
-37.0275
-38.7635
-39.1491
-39.7212
-38.7715
-53.7322
-57.668
-55.973
-55.6671
-37.3076
-36.9793
-35.8918
-37.2295
-34.8759
-37.4891
-37.3729
-35.1811
-13.4532
-57.3493
-43.7353
-21.0311
-43.8564
-41.3415
-42.2662
-42.832
-83.4635
-100.548
-87.7656
-103.069
-126.443
-97.8476
-101.541
-84.6313
-53.7582
-54.4942
-55.2605
-55.6895
-56.1821
-51.6588
-56.6067
-55.8075
-142.5
-126.087
-123.178
-105.992
-125.53
-101.764
-103.978
-85.8002
-141.823
-121.615
-121.099
-103.922
-56.3209
-52.2439
-60.2946
-56.541
-48.9748
-55.3954
-52.4223
-54.1294
-111.32
-96.5629
-94.5926
-83.3932
-111.116
-96.5355
-92.7915
-83.355
-49.429
-48.8538
-52.4395
-50.6603
-50.1504
-49.7954
-53.094
-51.3189
-10.982
-28.4652
-15.8313
-24.9504
0.29933
16.367
0.508638
17.1975
-0.099334
15.9169
0.189004
16.9256
-13.894
-31.2007
-16.5991
-25.9467
186.569
179.675
190.116
183.721
145.249
147.787
161.456
157.576
145.318
133.085
156.679
160.19
180.555
186.797
186.379
190.004
-33.0978
-34.8122
-33.1707
-34.0501
-31.0618
-29.7588
-33.0514
-32.3263
-38.3673
-40.8954
-38.44
-40.7209
-40.8378
-41.7713
-39.5151
-40.746
-35.6415
-35.9259
-35.3434
-35.6047
-40.7055
-41.7744
-39.2791
-41.1749
-39.8849
-42.3482
-39.775
-42.0848
-32.242
-31.1282
-34.3304
-33.4872
-40.2275
-41.4312
-40.1027
-41.0412
-41.9851
-41.2685
-41.3395
-40.7396
-38.9846
-38.0745
-38.8973
-38.7097
-37.9367
-38.7618
-38.5314
-38.7438
-130.329
-106.831
-120.603
-126.895
-66.8982
-74.3129
-79.6158
-85.6385
-75.5408
-68.4398
-86.5455
-80.8279
-108.446
-131.569
-127.672
-121.801
-59.1758
-24.2677
-53.777
-56.4694
-48.3276
-46.3773
-47.7577
-46.0661
-49.867
-49.9606
-49.035
-49.5235
-25.6588
-26.3363
-26.1209
-19.6488
-59.6194
-24.45
-55.2656
-57.1209
-27.9787
-28.6307
-27.9332
-22.0081
-56.2152
-55.4763
-54.4821
-54.2831
-54.783
-51.6064
-53.196
-50.6004
-38.0454
-37.945
-37.6388
-37.4274
-38.5956
-38.511
-38.2349
-37.8356
-44.1734
-42.305
-41.2335
-40.6375
-41.2399
-39.6216
-39.4009
-38.684
-64.8959
-68.786
-61.3301
-66.0414
-40.4871
-41.9369
-42.0211
-43.2722
-44.4756
-46.6265
-44.2835
-46.201
-66.6631
-70.295
-62.9291
-67.1053
-35.8985
-35.331
-34.8213
-33.7366
-43.9166
-44.0434
-42.2924
-43.2192
-44.3248
-44.0422
-44.1971
-43.9437
-38.3181
-38.3156
-37.0204
-37.9287
-165.562
44.9141
-163.645
-2.50648
-127.522
-123.533
-48.7836
-39.4821
-40.3538
-42.7488
-50.3622
-40.8509
7.47127
133.748
36
125.286
3.69711
-17.334
-48.1583
-37.819
-38.9489
-38.0807
-49.4948
-42.1489
-159.203
12.2136
-157.727
38.4263
-147.527
-129.657
-45.4195
-50.3127
-57.1493
-46.714
-57.4684
-45.1827
42.9602
122.416
16.6911
135.317
-2.78134
-14.6412
-44.7421
-44.2731
-56.0009
-44.9168
-56.6002
-48.5226
-64.2781
-53.4983
-35.6848
-38.4509
-45.1402
-39.2459
-46.3161
-43.6619
-53.3931
-52.1146
-26.0407
-34.3377
-21.6762
-5.41345
-38.8516
-46.1871
-49.8598
-52.2942
-47.5239
-44.2968
-44.1844
-65.947
-44.1969
-88.6051
-33.7237
-49.085
-37.7944
-33.6412
-40.9091
-52.3928
-58.4725
-55.0965
-64.5897
-51.1759
-44.8968
-43.7577
-36.8093
-42.1145
-44.4802
-38.7925
-45.3642
-51.424
-39.2808
-45.8461
-27.6297
-36.4594
-24.8896
-9.30395
-49.716
-52.3782
-45.1484
-89.2384
-47.3529
-43.9891
-44.2978
-66.3292
-35.9942
-51.5957
-60.4907
-57.357
-39.6753
-35.8327
-42.7526
-54.3154
-81.1671
164.898
7.15747
177.217
-170.568
-153.233
183.609
184.899
-160.386
51.7905
-174.103
29.2316
-121.472
-123.605
134.303
128.159
-70.6503
-71.8959
-50.8064
-50.9031
-64.1154
-54.8862
-66.3811
-56.3334
-47.3772
-37.1947
-48.0615
-37.4287
-50.6332
-50.123
-36.0288
-35.1885
-37.6714
-39.2627
-39.9563
-44.6235
-40.5849
-39.6096
-33.5236
-38.5642
-42.7704
-39.5722
-44.2881
-39.4506
-45.1839
-44.0691
-37.8643
-38.9508
65.5441
136.083
65.9572
135.71
31.9938
31.555
145.83
145.546
-101.931
-100.228
-67.0003
-66.5392
-73.1376
-88.0789
-68.6806
-45.5634
-42.375
-41.8203
-44.0403
-44.6926
-42.8525
-43.5192
-44.7554
-42.6548
-52.2799
-50.6663
-35.9391
-52.2979
-52.3431
-47.9092
-53.8702
-50.0408
-74.5612
166.403
5.19489
179.357
-168.791
-151.054
184.417
184.258
-71.7625
-72.0977
-50.625
-50.6627
-64.6576
-54.8505
-66.5006
-55.9756
-55.9083
-44.6066
-56.5479
-44.962
-57.8161
-58.5028
-43.9842
-43.5849
-45.8547
-41.8216
-45.6736
-40.2964
-47.2675
-47.0805
-38.9893
-40.7026
-101.279
-101.22
-67.4521
-66.4348
-85.9527
-71.0906
-45.5655
-71.1599
-56.8115
-55.7378
-38.8687
-55.892
-50.9662
-56.2862
-54.7505
-57.4834
-32.0385
-35.7652
-32.9594
-35.8984
-32.5399
-33.7443
-38.1656
-37.5304
-45.3347
-39.9013
-46.5502
-41.6311
-48.0447
-47.6606
-38.1559
-39.2566
-47.6767
-45.1837
-47.2931
-45.0463
-49.0447
-49.2795
-43.5703
-43.5267
-25.4593
-14.3779
-31.747
-25.1544
-30.2742
-32.8207
-11.5495
-19.7302
-39.6572
-41.4122
-39.8008
-41.6261
-39.475
-39.4123
-39.9336
-40.0609
-45.2479
-63.5122
-45.454
-57.9879
-44.1396
-43.8979
-74.9904
-68.7831
44.7218
60.696
44.5209
60.4919
40.7411
40.6526
83.916
83.8518
-79.5929
-75.892
-80.2443
-76.5933
-84.7373
-85.0525
-73.0491
-73.399
-34.7899
-38.9895
-34.0734
-35.1138
-36.2869
-37.1525
-39.5518
-37.7693
-44.8102
-39.6192
-45.9292
-41.1589
-48.2713
-50.5953
-37.9661
-38.8768
-27.5785
-17.0853
-33.6159
-27.4221
-34.4079
-31.9292
-14.0811
-22.0502
-46.3958
-64.7376
-46.9506
-59.5989
-45.045
-45.4565
-70.2093
-76.279
-78.6485
-82.3114
-69.527
-60.403
-65.5493
-75.8123
-59.9433
-62.1061
-78.2184
-81.5817
-69.2844
-59.5498
-74.7815
-63.7384
-60.1462
-58.3429
-75.2234
-74.9722
-68.8055
-59.9009
-68.3548
-59.4037
-56.5696
-56.7987
-16.3134
-16.4434
-15.7178
-3.78724
-4.0015
-16.0159
6.69202
6.59199
196.261
189.945
203.674
202.634
183.546
183.981
189.962
197.274
-34.8633
-35.65
-35.6816
-37.6839