# vtk DataFile Version 2.0
tet_velo
ASCII
DATASET UNSTRUCTURED_GRID
POINTS 29498 float
-0.815 0.055 -1.98473
-0.785 0.145 1.81351
-0.825 0.329587 -1.915
-0.610115 0.895 1.865
0.825 0.055 -1.9801
0.785 0.145 1.81445
0.835 0.325 -1.91382
0.615 0.895 1.86299
-0.81929 0.0707095 -0.71865
-0.787333 0.122667 0.54743
-0.79432 0.559006 -0.655
-0.759539 0.784325 0.605
0.82903 0.0676365 -0.71525
0.790794 0.12254 0.5496
0.797631 0.550965 -0.654883
0.763886 0.780553 0.604053
-1.60444 -0.287005 -3.02611
-1.61289 -0.192331 -2.01613
-1.60231 -0.170109 -0.74988
-1.55203 -0.164823 0.517815
-1.51599 -0.147598 1.78419
-1.52006 -0.0872213 2.79476
-1.5354 -0.00168044 3.80423
-1.61114 -0.0796012 -2.99424
-1.61982 0.0384114 -1.98486
-1.60633 0.0941937 -0.719645
-1.53996 0.148786 0.546341
-1.48578 0.184123 1.81166
-1.5045 0.245964 2.82198
-1.53027 0.328046 3.83153
-1.61627 0.282555 -2.92811
-1.62261 0.394577 -1.91789
-1.58971 0.590268 -0.656745
-1.50867 0.786787 0.604124
-1.38476 0.893902 1.86524
-1.45203 0.948472 2.87529
-1.51495 1.01063 3.88548
-1.60608 0.977717 -2.83379
-1.60543 1.11868 -1.82473
-1.58505 1.37001 -0.565802
-1.54849 1.63711 0.691815
-1.51525 1.82592 1.95055
-1.51852 1.91933 2.95922
-1.54348 1.98925 3.969
-0.797045 -0.277803 -3.02536
-0.806847 -0.178053 -2.01559
-0.809052 -0.179923 -0.748916
-0.783888 -0.186271 0.519104
-0.771892 -0.178608 1.78581
-0.783521 -0.109991 2.79586
-0.797129 -0.0167603 3.80494
-0.801735 -0.0790821 -2.99336
-0.789036 0.226267 2.82272
-0.801864 0.31531 3.83201
-0.807191 0.253895 -2.92655
-0.745777 0.944578 2.875
-0.796524 1.00619 3.8854
-0.807807 0.950939 -2.83241
-0.812111 1.08993 -1.82338
-0.804833 1.35389 -0.564978
-0.792747 1.63934 0.691872
-0.78268 1.83431 1.95011
-0.790591 1.92581 2.95877
-0.812457 1.99288 3.96872
0.830772 -0.279883 -3.0222
0.826674 -0.179425 -2.01179
0.819021 -0.182488 -0.745885
0.793938 -0.187102 0.521106
0.781005 -0.178953 1.78692
0.723866 -0.11058 2.79649
0.692794 -0.0177044 3.80544
0.831532 -0.0811835 -2.99022
0.689836 0.225848 2.82302
0.669331 0.314444 3.83228
0.829727 0.250281 -2.92454
0.63061 0.94402 2.87432
0.639297 1.0052 3.88529
0.798631 0.946646 -2.83103
0.787248 1.08522 -1.82231
0.765338 1.34918 -0.564389
0.7234 1.63582 0.691923
0.673816 1.83203 1.94983
0.654601 1.92399 2.95856
0.644891 1.99114 3.96871
1.64079 -0.292016 -3.02044
1.63673 -0.196991 -2.00995
1.6211 -0.175618 -0.744857
1.57546 -0.167675 0.521093
1.53329 -0.148968 1.78607
1.48163 -0.088815 2.796
1.44798 -0.00381179 3.80527
1.64219 -0.0848836 -2.9887
1.63667 0.0335026 -1.9787
1.62259 0.0875031 -0.714925
1.56147 0.145874 0.549068
1.50069 0.183207 1.81282
1.44558 0.244636 2.82263
1.4208 0.32604 3.83219
1.63827 0.275235 -2.92407
1.63344 0.385986 -1.91441
1.59786 0.579651 -0.654743
1.52299 0.781013 0.604261
1.39008 0.892208 1.86403
1.37379 0.946782 2.87462
1.38031 1.00836 3.88549
1.5999 0.969323 -2.83102
1.58568 1.10967 -1.82247
1.55205 1.36114 -0.564428
1.49163 1.63028 0.692208
1.42315 1.82126 1.95033
1.3953 1.91552 2.95904
1.38574 1.98565 3.96913
-0.787505 0.192294 -1.91737
0.005 0.0511422 -1.98627
-0.819689 0.060311 -1.35169
-0.766293 0.52 1.90799
0 0.140618 1.81836
-0.802218 0.117782 1.18047
0.005 0.466936 -2.05405
-0.886676 0.521313 -1.285
0.00244251 0.950573 1.91957
-0.713591 0.868426 1.235
0.797077 0.19 -1.91404
0.829411 0.0589219 -1.34768
0.772926 0.52 1.91165
0.80363 0.118037 1.18203
0.886847 0.508513 -1.28435
0.717744 0.866077 1.23352
-0.818604 0.0813965 -0.08561
-0.786178 0.314858 -0.686825
0.00486984 0.125488 -0.71695
-0.795439 0.453496 0.576215
0.0017303 0.144297 0.548515
-0.785414 0.68015 -0.025
0.00165562 1.05519 -0.654942
0.00217353 1.31151 0.604527
0.834837 0.0701631 -0.082825
0.785899 0.309301 -0.685067
0.798519 0.451546 0.576827
0.789074 0.674074 -0.025415
-0.889134 0.253576 -1.31835
-0.791568 0.384177 -0.055305
-0.884897 0.486748 1.20774
0.00493492 0.126593 -1.34968
0.00330007 0.134969 -0.0842175
0.000865152 0.206854 1.18125
0.005 0.191147 -2.03577
0.00122125 0.52 2.12363
0.00332781 0.855841 -1.28468
0.00191458 1.29909 -0.0252075
0.00230802 1.28134 1.23426
0.889208 0.24965 -1.31601
0.79398 0.380423 -0.05412
0.87746 0.485773 1.20777
-1.21741 0.0467057 -1.98479
-0.810923 -0.0615263 -2.00016
-0.808367 -0.012041 -2.48904
-1.13539 0.164562 1.81258
-0.778446 -0.016804 1.79966
-0.787018 0.185634 2.31812
-1.22381 0.362082 -1.91644
-0.816095 0.291741 -2.42078
-0.818555 0.709756 -1.86919
-0.997439 0.894451 1.86512
-0.677946 0.919789 2.37
-0.696398 1.36466 1.90756
0.825837 -0.0622127 -1.99595
0.828266 -0.0130918 -2.48516
1.23084 0.0442513 -1.9794
0.783003 -0.0169763 1.80069
0.737418 0.185424 2.31873
1.14285 0.164104 1.81363
0.832364 0.287641 -2.41918
0.811124 0.705111 -1.86806
1.23422 0.355493 -1.91412
0.622805 0.91951 2.36866
0.644408 1.36352 1.90641
1.00254 0.893604 1.86351
-1.21281 0.0824516 -0.719147
-0.814171 -0.054607 -0.733783
-1.16364 0.135726 0.546885
-0.78561 -0.031802 0.533267
-1.19202 0.574637 -0.655872
-0.799577 0.956448 -0.609989
-1.13411 0.785556 0.604562
-0.776143 1.21183 0.648436
0.824026 -0.0574259 -0.730567
1.22581 0.0775698 -0.715087
0.792366 -0.0322812 0.535353
1.17613 0.134207 0.549334
0.781485 0.950075 -0.609636
1.19774 0.565308 -0.654813
0.743643 1.20819 0.647988
1.14344 0.780783 0.604157
-1.60867 -0.239668 -2.52112
-1.60779 -0.183303 -3.01018
-1.20074 -0.282404 -3.02574
-1.6076 -0.18122 -1.38301
-1.61636 -0.0769597 -2.0005
-1.20987 -0.185192 -2.01586
-1.57717 -0.167466 -0.116032
-1.60432 -0.0379576 -0.734762
-1.20568 -0.175016 -0.749398
-1.53401 -0.15621 1.151
-1.54599 -0.00801874 0.532078
-1.16796 -0.175547 0.518459
-1.51803 -0.11741 2.28948
-1.50088 0.0182626 1.79792
-1.14394 -0.163103 1.785
-1.52773 -0.0444509 3.2995
-1.51228 0.0793716 2.80837
-1.15179 -0.098606 2.79531
-1.53283 0.163183 3.81788
-1.16626 -0.00922037 3.80459
-1.61548 -0.0205949 -2.48955
-1.61371 0.101477 -2.96117
-1.20644 -0.0793416 -2.9938
-1.61307 0.0663025 -1.35225
-1.62122 0.216494 -1.95137
-1.57314 0.12149 -0.0866521
-1.59802 0.342231 -0.688195
-1.51287 0.166454 1.179
-1.52431 0.467786 0.575232
-1.49514 0.215044 2.31682
-1.43527 0.539012 1.83845
-1.51738 0.287005 3.32675
-1.47826 0.597218 2.84864
-1.14677 0.236116 2.82235
-1.52261 0.669337 3.8585
-1.16607 0.321678 3.83177
-1.61944 0.338566 -2.423
-1.61117 0.630136 -2.88095
-1.21173 0.268225 -2.92733
-1.60616 0.492423 -1.28732
-1.61402 0.75663 -1.87131
-1.54919 0.688528 -0.0263103
-1.58738 0.980137 -0.611274
-1.44672 0.840345 1.23468
-1.52858 1.21195 0.64797
-1.4184 0.921187 2.37027
-1.45 1.35991 1.9079
-1.48349 0.97955 3.38039
-1.48527 1.4339 2.91725
-1.0989 0.946525 2.87515
-1.52921 1.49994 3.92724
-1.15574 1.00841 3.88544
-1.60575 1.0482 -2.32926
-1.20694 0.964328 -2.8331
-1.59524 1.24434 -1.19527
-1.20877 1.1043 -1.82405
-1.56677 1.50356 0.0630063
-1.19494 1.36195 -0.56539
-1.53187 1.73152 1.32118
-1.17062 1.63823 0.691843
-1.51688 1.87263 2.45488
-1.14896 1.83012 1.95033
-1.531 1.95429 3.46411
-1.15455 1.92257 2.959
-1.17797 1.99106 3.96886
-0.801946 -0.227928 -2.52048
-0.79939 -0.178442 -3.00936
0.0168638 -0.278843 -3.02378
-0.807949 -0.178988 -1.38225
0.00991374 -0.178739 -2.01369
-0.79647 -0.183097 -0.114906
0.0049848 -0.181206 -0.747401
-0.77789 -0.182439 1.15246
0.00502504 -0.186687 0.520105
-0.777707 -0.144299 2.29084
0.00455655 -0.17878 1.78637
-0.790325 -0.0633755 3.3004
-0.786279 0.0581383 2.80929
-0.0298273 -0.110285 2.79618
-0.799496 0.149275 3.81847
-0.0521678 -0.0172324 3.80519
-0.804463 0.0874063 -2.95996
0.0148987 -0.0801328 -2.99179
-0.79545 0.270789 3.32736
-0.767407 0.585423 2.84886
-0.0496001 0.226058 2.82287
-0.799194 0.66075 3.8587
-0.0662663 0.314877 3.83214
-0.807499 0.602417 -2.87948
0.0112683 0.252088 -2.92555
-0.77115 0.975384 3.3802
-0.768184 1.43519 2.91689
-0.0575837 0.944299 2.87466
-0.80449 1.49953 3.92706
-0.0786135 1.00569 3.88535
-0.809959 1.02043 -2.32789
-0.00458801 0.948792 -2.83172
-0.808472 1.22191 -1.19418
-0.0124313 1.08757 -1.82284
-0.79879 1.49662 0.0634466
-0.0197477 1.35154 -0.564684
-0.787714 1.73683 1.32099
-0.0346736 1.63758 0.691897
-0.786636 1.88006 2.45444
-0.0544318 1.83317 1.94997
-0.801524 1.95934 3.46375
-0.0679954 1.9249 2.95866
-0.0837832 1.99201 3.96871
0.828723 -0.229654 -2.517
0.831152 -0.180533 -3.00621
1.23578 -0.28595 -3.02132
0.822848 -0.180957 -1.37884
1.2317 -0.188208 -2.01087
0.80648 -0.184795 -0.112389
1.22006 -0.179053 -0.745371
0.787472 -0.183027 1.15401
1.1847 -0.177389 0.521099
0.752436 -0.144766 2.29171
1.15715 -0.16396 1.78649
0.70833 -0.0641422 3.30096
0.706851 0.057634 2.80976
1.10275 -0.0996975 2.79625
0.681062 0.14837 3.81886
1.07039 -0.0107581 3.80535
0.83063 0.0845488 -2.95738
1.23686 -0.0830336 -2.98946
0.679584 0.270146 3.32765
0.660223 0.584934 2.84867
1.06771 0.235242 2.82283
0.654314 0.659821 3.85879
1.04507 0.320242 3.83224
0.814179 0.598463 -2.87779
1.234 0.262758 -2.9243
0.634953 0.974609 3.37981
0.642605 1.434 2.91644
1.0022 0.945401 2.87447
0.642094 1.49817 3.927
1.00981 1.00678 3.88539
0.79294 1.01593 -2.32667
1.19927 0.957984 -2.83102
0.776293 1.2172 -1.19335
1.18646 1.09744 -1.82239
0.744369 1.4925 0.063767
1.15869 1.35516 -0.564408
0.698608 1.73393 1.32088
1.10752 1.63305 0.692066
0.664208 1.87801 2.4542
1.04848 1.82665 1.95008
0.649746 1.95756 3.46363
1.02495 1.91975 2.9588
1.01532 1.9884 3.96892
1.63876 -0.244504 -2.5152
1.64149 -0.18845 -3.00457
1.62891 -0.186305 -1.37741
1.6367 -0.0817441 -1.99433
1.59828 -0.171647 -0.111882
1.62184 -0.0440577 -0.729891
1.55437 -0.158322 1.15358
1.56846 -0.0109006 0.53508
1.50746 -0.118891 2.29103
1.51699 0.0171197 1.79944
1.46481 -0.0463134 3.30064
1.4636 0.0779105 2.80932
1.43439 0.161114 3.81873
1.63943 -0.0256905 -2.4837
1.64023 0.0951758 -2.95638
1.62963 0.0605028 -1.34681
1.63506 0.209744 -1.94656
1.59203 0.116688 -0.0829282
1.61022 0.333577 -0.684834
1.53108 0.164541 1.18094
1.54223 0.463444 0.576665
1.47313 0.213922 2.31772
1.44539 0.537708 1.83842
1.43319 0.285338 3.32741
1.40968 0.595709 2.84863
1.40056 0.667202 3.85884
1.63585 0.33061 -2.41924
1.61908 0.622279 -2.87754
1.61565 0.482818 -1.28458
[...]
POINT_DATA 29498
VECTORS point_vectors float
-5.72874 -7.88703 13.0182
0.440949 0.659386 2.84338
-10.3698 1.36629 11.6405
-0.163231 -0.234489 0.182717
1.45584 -2.64388 4.91053
-0.448774 0.705534 2.90887
3.86338 0.720597 5.5633
0.142619 -0.2674 0.260435
0.0441277 0.0173531 0.682777
0.215832 -0.252845 0.750554
-0.00059335 -0.0015613 0.0643792
0.0294199 0.0688654 0.199925
-0.0149665 0.0290133 0.479749
-0.324684 -0.268445 0.992343
0.00045741 -0.000845444 0.0548561
-0.0254577 0.0582746 0.17596
-0.610068 -0.26107 19.8951
-1.24023 -0.642025 20.5075
-0.348528 -0.476527 21.4044
0.167654 -0.311654 21.416
0.679343 -0.0775354 21.4777
0.965014 0.0486373 21.2369
0.998929 -0.0647856 20.9919
-0.697587 -0.224377 19.8441
-1.48389 -0.550247 20.4908
-0.496594 -0.551366 21.4217
0.0113727 -0.501534 21.4726
0.755106 -0.338631 21.6084
1.06801 -0.264328 21.3221
1.03438 -0.430274 21.0381
-0.824277 -0.0857858 19.7654
-1.73654 -0.180403 20.469
-0.933587 -0.499836 21.3975
-0.474135 -0.443754 21.5951
0.249341 -0.7019 21.5977
0.612961 -0.708919 21.2725
0.558306 -0.565767 20.8557
-0.835965 0.256545 19.8141
-1.41397 0.478249 20.425
-1.08789 0.173926 21.1986
-0.471631 -0.0265843 21.4446
-0.0553804 -0.261769 21.3154
0.174157 -0.425225 21.265
0.262273 -0.645336 20.6602
-0.694016 -0.695873 19.2518
-2.42698 -3.76093 20.5699
0.174159 0.433408 20.8141
0.737111 0.377355 20.1036
0.895274 1.12977 20.3984
1.37405 1.48083 19.4499
1.40461 1.30542 19.366
-0.806918 -0.59797 19.0265
1.88054 1.10493 11.4997
1.9657 0.587807 13.8189
-1.08691 -0.284524 18.5491
0.213693 -0.978767 8.68594
0.902147 -0.890123 14.2433
-0.988341 0.730249 18.8332
-2.63922 2.71721 19.9037
-2.76381 1.63412 21.2853
-0.71686 0.366565 21.9433
-0.16625 -0.222141 21.4712
-0.0183494 -0.454495 21.352
0.0250556 -0.443258 21.3208
0.699109 -0.662752 19.3004
2.39421 -3.54731 20.5476
-0.159249 0.421013 20.9008
-0.705508 0.419691 20.188
-0.907235 1.19883 20.5074
-1.24468 1.65303 19.4376
-1.27734 1.67312 18.8466
0.827488 -0.583944 19.0621
-1.53748 1.46099 10.0558
-2.11886 1.21925 11.8848
1.09545 -0.283447 18.5763
-0.225496 -1.15786 5.659
-0.709236 -1.09083 9.88636
0.994296 0.736354 18.8161
2.66111 2.83349 19.8839
2.90786 1.87434 21.2575
0.740844 0.420458 22.0418
0.20497 -0.278766 21.5221
0.104294 -0.529187 21.4295
-0.129404 -0.487489 21.4901
0.602403 -0.261323 19.9263
1.20708 -0.624265 20.5281
0.352927 -0.476106 21.3916
-0.155952 -0.309757 21.4287
-0.68872 -0.0569574 21.4899
-1.01539 0.115961 21.2575
-1.13957 -0.0078413 20.7954
0.696896 -0.225542 19.8634
1.45714 -0.543121 20.5065
0.491792 -0.537764 21.4117
-0.0250968 -0.480915 21.4824
-0.766393 -0.314385 21.6273
-1.18553 -0.24904 21.2853
-1.39206 -0.331349 20.49
0.812315 -0.0862933 19.7908
1.71172 -0.186999 20.481
0.922897 -0.503427 21.4053
0.443 -0.446226 21.6069
-0.319562 -0.70183 21.6324
-0.694695 -0.789435 21.3651
-0.614095 -0.586319 21.1385
0.848816 0.258007 19.8108
1.44986 0.491728 20.4287
1.14656 0.17121 21.2203
0.487811 -0.0252666 21.4955
0.0549997 -0.307151 21.3591
-0.173913 -0.479273 21.1968
-0.255766 -0.568425 20.7255
-2.37736 -0.276349 2.25322
-0.00706509 -0.307694 1.10592
0.00897062 0.00796942 0.391933
0.0129549 -0.101521 0.134014
0.443933 -0.259371 1.88543
0.00676121 0.0171839 0.417127
0 0 0
-0.16642 -0.126558 0.95153
0.00963022 0.00594492 -0.0118233
0.00414663 0.00321708 0.0788805
2.64008 -0.254364 2.46913
-0.00496722 0.00193135 0.103105
-0.041673 -0.078386 0.185954
-0.0153733 0.0183664 0.516283
0.0295645 -0.0405661 0.317563
-0.0048545 0.00592449 0.0639228
0.150046 0.118001 2.52806
0.000715878 0.000909525 0.00408773
-0.00505371 0.00594502 -0.0599272
0 0 0
0.00186249 0.0118229 0.062018
0.0102289 0.0345189 0.133589
8.47565e-06 0.0585259 0.115
0.000314824 -0.000277346 0.054675
-0.097916 0.0643674 2.307
-0.000436744 0.000822528 0.00337623
0 0 0
-0.00375381 0.016793 0.0758136
-5.73964e-06 1.52683e-05 0.000499361
0 0 0
0.000277423 0.0147875 0.198436
0 0 0
-8.24987e-05 2.29331e-05 0.000726173
6.72504e-06 1.23597e-05 0.000250585
0 0 0
0.0256591 -0.0708856 0.0253125
-5.36789e-05 0.0081295 0.0459759
0.000222506 0.0234913 0.188791
0.000249701 -0.000741089 0.0100108
1.3402e-05 3.54733e-05 0.0013912
-3.7644e-05 0.00125246 0.0069956
-4.70678e-05 0.0054397 0.0644744
-3.00666 -1.50649 20.4725
-3.83174 -6.50504 21.5551
-2.11643 -1.65543 18.0813
1.34471 0.0141078 19.6193
0.788969 1.26011 15.6276
1.20264 0.981902 9.13148
-3.8469 -0.385098 20.3312
-3.13888 -0.512244 16.8948
-5.96883 3.90293 19.1974
0.414322 -0.630717 17.3921
-0.850851 -1.01554 3.58159
0.0242776 -0.288291 17.4489
3.9645 -6.54473 22.0004
2.13074 -1.60317 18.1569
2.87965 -1.43795 20.4455
-0.859814 1.33318 15.8674
-0.933895 1.22196 7.91711
-1.37613 0.0328635 19.8062
3.14414 -0.510764 16.9852
6.11254 4.02358 19.1801
3.74794 -0.41614 20.3886
0.787951 -1.1185 3.07132
-0.0612132 -0.411881 16.0808
-0.559025 -0.701454 17.7196
-0.0336861 -1.04145 21.7391
0.527683 0.594359 14.7313
0.28948 -0.713156 19.9046
1.15887 0.172155 13.6756
-1.3086 -1.29996 21.6857
-4.56222 -1.23761 17.5293
-0.791998 -0.665809 20.7798
-0.558773 0.308034 17.3818
-0.571015 0.597614 14.9964
0.0734218 -1.0391 21.8465
-1.12478 0.245284 13.714
-0.306873 -0.705821 20.1191
4.81714 -1.56581 16.265
1.30736 -1.286 21.7101
0.283413 0.506849 15.1986
0.75815 -0.687169 20.8587
-0.961238 -0.457776 20.0416
-0.653828 -0.242724 19.8696
-0.701352 -0.436762 19.6438
-0.90486 -0.613654 21.199
-1.3842 -0.59273 20.4813
-1.97914 -1.53665 20.5639
-0.0185211 -0.377914 21.4211
-0.431541 -0.539822 21.4079
0.0689334 -0.541707 21.7433
0.374157 -0.208952 21.5429
0.103237 -0.424144 21.4187
0.537531 -0.304122 21.4106
0.85584 0.0065708 21.3581
0.716615 -0.209476 21.5022
1.08677 0.283396 21.4544
1.0181 0.00922416 21.228
1.03465 -0.118619 21.2352
1.45963 0.513838 20.7363
1.02739 -0.286561 21.0022
1.54919 0.367564 20.5425
-1.13002 -0.380617 19.976
-0.771954 -0.160982 19.7993
-0.844135 -0.382844 19.5023
-1.09407 -0.607503 21.2376
-1.70221 -0.407498 20.47
-0.163753 -0.533122 21.4336
-0.701352 -0.601743 21.4588
0.302257 -0.439827 21.6661
-0.252632 -0.559171 21.547
0.9537 -0.286379 21.4
0.577477 -0.63297 21.5427
1.10065 -0.286705 21.0341
0.864536 -0.596962 21.3132
1.66493 0.000323588 19.5054
0.809352 -0.513945 21.18
1.80004 -0.24688 19.2097
-1.35472 -0.144756 19.9028
-0.871799 0.0832376 19.7475
-1.0446 -0.166489 19.3088
-1.4524 -0.337912 21.2374
-1.74097 0.208359 20.428
-0.684274 -0.51626 21.481
-1.17515 -0.142464 21.3052
-0.128146 -0.497458 21.7181
-0.526888 -0.238642 21.5449
0.443794 -0.730867 21.4051
0.0116882 -0.45037 21.4504
0.772452 -0.749821 21.0426
0.261858 -0.575218 21.1952
0.653817 -1.02097 20.6409
0.346929 -0.638033 20.9235
0.818834 -0.971485 20.5491
-1.20038 0.419109 19.988
-0.968787 0.449679 19.4185
-1.30276 0.341356 20.9045
-2.0651 1.10932 20.2612
-0.782955 0.103835 21.3941
-1.69194 0.529544 21.3211
-0.22092 -0.154716 21.4306
-0.624076 0.105142 21.6569
0.0432824 -0.348793 21.2346
-0.0961611 -0.280771 21.4062
0.132886 -0.365524 21.0021
0.117709 -0.44758 21.0428
0.0862814 -0.392929 21.0527
-1.48476 -1.66998 18.9584
-0.75322 -0.652837 19.1365
0.0289294 -0.949389 18.8061
-0.662942 -0.561736 22.2656
0.057554 -7.57245 21.284
0.524753 0.49408 20.2524
-0.0145301 -0.0814682 10.8769
0.857025 0.55952 20.2358
-0.00356055 0.280221 12.8191
1.12368 1.37368 20.0916
0.119777 0.658208 14.6732
1.58035 1.32481 18.6107
1.65628 1.52736 16.4774
0.132634 1.29227 14.1976
1.76324 0.987746 15.9033
0.179805 2.11 14.448
-0.980057 -0.443362 18.7504
0.0206664 -0.897324 18.4008
2.27807 1.35349 13.5425
1.11123 -0.59361 6.99473
0.130919 0.721165 3.50923
1.5292 -0.445416 11.9023
0.250436 1.47215 5.36981
-1.13845 0.299271 18.5129
0.0255882 -0.431659 17.5166
1.05973 -1.21236 12.3367
0.0998115 -0.723736 19.8437
-0.437518 1.78493 -6.28072
0.173071 -0.858229 20.2342
-0.293675 0.915249 -3.69225
-1.88224 1.80573 18.7095
-0.00913343 1.17188 18.0505
-2.50896 1.86393 20.8133
-0.0534339 5.2307 19.4119
-1.70864 0.974541 22.0729
-0.13365 5.66581 19.7882
-0.316016 -0.0476432 21.6935
-0.0399603 0.963698 22.089
-0.0759102 -0.332676 21.389
0.0225269 -0.00134906 21.6692
0.0768593 -0.552545 21.4917
0.0450313 -0.406532 21.7585
0.00406958 -0.368484 21.5447
1.49658 -1.62984 19.0141
0.772075 -0.628143 19.1859
0.707253 -0.427012 19.6813
0.70312 -0.584174 22.4166
1.92846 -1.47104 20.5985
-0.512885 0.493649 20.3442
-0.0394282 -0.540448 21.7273
-0.826019 0.606665 20.3229
-0.529356 -0.282242 21.4291
-1.06518 1.50735 20.0194
-1.09193 0.311336 21.47
-1.389 1.62446 18.2667
-1.35026 1.83766 15.2607
-1.52322 0.699343 20.5931
-1.68021 1.45514 15.5144
-1.60884 0.64013 20.7081
0.99348 -0.443907 18.7757
0.848453 -0.376937 19.5428
-1.98741 1.74964 11.7775
-1.1549 -0.199555 4.5427
-1.90471 0.303393 18.4832
-1.9391 0.378543 9.47295
-1.73294 -0.0540001 18.9995
1.15187 0.294096 18.5148
1.04948 -0.171507 19.3447
-0.834931 -1.10946 8.13791
-0.226683 -0.90446 18.5615
-0.862781 -1.05602 18.763
-0.13801 -1.04464 19.8415
-1.04101 -1.30904 19.4667
1.9028 1.85775 18.6637
0.980293 0.45751 19.4058
2.53849 1.99044 20.7747
2.12505 1.16817 20.262
1.82852 1.14306 22.2132
1.81469 0.570581 21.3528
0.348425 -0.0607991 21.7998
0.659452 0.112569 21.7242
0.115357 -0.406186 21.4052
0.112273 -0.332642 21.4474
0.0126333 -0.627146 21.4104
-0.0869775 -0.547172 21.1065
-0.0266316 -0.472802 21.2012
0.941243 -0.446098 20.078
0.650881 -0.243768 19.8937
0.897986 -0.605336 21.1879
1.35449 -0.581368 20.5021
0.0391604 -0.376108 21.4324
0.429303 -0.532193 21.3997
-0.374943 -0.195774 21.5495
-0.101947 -0.411983 21.4315
-0.88882 0.0398375 21.3643
-0.722723 -0.186557 21.519
-1.08015 0.0562766 21.1355
-1.132 -0.086567 21.1991
-1.33752 -0.198024 20.5355
1.11663 -0.376721 19.9987
0.757744 -0.161141 19.8263
1.07373 -0.598969 21.232
1.66332 -0.406242 20.484
0.164544 -0.517601 21.4423
0.694507 -0.593915 21.4598
-0.31619 -0.40643 21.6688
0.232964 -0.540169 21.5488
-1.03753 -0.25511 21.3964
-0.617811 -0.60249 21.5805
-1.20819 -0.3111 21.1628
-1.01103 -0.635482 21.2793
-0.960987 -0.487828 21.1636
1.33088 -0.147198 19.9244
0.876508 0.0736868 19.757
1.43154 -0.342268 21.2325
1.75618 0.201082 20.4393
0.669116 -0.513159 21.5036
1.19673 -0.156245 21.3236
0.0932007 -0.499127 21.7419
0.533498 -0.249917 21.5872
-0.545355 -0.777957 21.4521
-0.0425445 -0.493132 21.505
-0.831981 -0.759209 21.1996
-0.322259 -0.698894 21.2338
-0.394291 -0.671457 20.9259
1.22671 0.427799 19.9831
1.3436 0.34603 20.9154
0.829616 0.0911299 21.4369
0.218629 -0.187293 21.4838
-0.0486459 -0.406356 21.2785
-0.107738 -0.436156 21.0343
-1.05367 -0.41961 20.0047
-1.76337 -1.7234 18.5641
-1.31175 -0.896935 19.674
-1.71787 -0.811942 19.4226
-0.776368 -0.409626 19.5648
-2.38559 -1.57276 20.4768
-1.0275 -0.628825 21.2264
-0.171129 0.195788 15.9261
-0.872705 -1.10248 21.811
-1.34229 -1.44365 22.1985
0.0877694 -0.767568 21.7565
-0.0891207 -0.477608 21.4123
0.827836 0.470007 14.4101
0.41667 -0.347581 21.5155
0.332035 -0.833485 20.8125
0.511409 -0.531529 20.8373
0.338343 -0.337701 21.5888
0.913949 0.443052 14.6123
0.730132 -0.128846 21.5307
0.52983 -0.43843 19.9073
1.27848 0.194944 20.787
0.917885 -0.138449 21.3541
1.17274 1.54257 15.903
1.31191 0.413503 21.2694
1.56356 0.00419542 19.4036
1.64939 0.26111 20.5087
1.06681 -0.135452 21.1712
1.98086 1.39153 15.9
1.53003 0.428908 20.6335
1.60688 -0.0248757 19.3825
1.75615 0.172283 20.1589
-1.25626 -0.283223 19.9386
-2.70807 -1.34742 17.2807
-2.21159 -0.25034 19.1413
-0.946824 -0.297969 19.3781
-3.63705 -1.12225 20.4108
-1.30048 -0.547288 21.3137
-2.32645 -0.844845 22.0446
-0.486085 -1.33628 21.4672
-0.406618 -0.599744 21.4658
-1.04281 -1.13092 21.1444
-0.281842 -0.712451 18.6974
0.0661612 -0.558007 21.7246
-0.114734 -0.340543 19.4947
1.01945 -0.343003 16.6685
0.767433 -0.630392 21.44
0.187815 -1.18945 3.57033
0.368097 -0.880418 18.9122
1.3426 -0.66924 18.7432
0.930475 -0.622061 21.3546
1.90552 -0.49174 10.4316
0.765588 -0.994074 20.7685
1.30542 -0.608246 19.7731
-1.36327 0.177441 19.9011
-2.84441 1.38868 17.5033
-1.62151 0.889513 19.5567
-1.07447 0.180809 19.3002
-3.13758 0.814958 20.2458
-1.51303 0.0302818 21.0676
-3.97912 0.812897 20.5668
-1.92162 0.775504 20.9716
-2.03379 -0.316261 21.5966
-0.865918 -0.217769 21.4791
-1.83335 -0.382087 17.297
-1.18688 0.318491 21.6406
-0.828562 -0.173249 21.8665
-0.226545 -0.327523 21.573
0.0632009 0.0266968 17.5055
-0.276172 -0.126254 21.5513
-0.140093 -0.537252 21.5402
0.123193 -0.510618 21.3348
-0.0585359 -0.446058 18.8953
0.000801877 -0.377055 21.2908
0.168405 -0.7493 21.4455
0.31645 -0.540548 21.197
0.321068 -1.00066 19.7189
0.160848 -0.503961 21.2048
0.288076 -0.660666 21.2371
1.77894 -1.67746 18.6407
0.0473438 -2.88325 17.8264
0.0308864 -3.17101 15.9322
0.0242087 -0.922223 18.5841
0.0586459 -9.29098 20.7907
0.115944 0.234306 16.1297
0.0438319 -1.34235 14.4953
-0.052214 0.0464591 0.938101
-0.886707 0.429933 14.7803
-0.0227242 0.198785 11.5207
0.0245298 0.235416 5.62664
-0.914615 0.484937 14.767
0.025066 0.45014 13.7207
0.360553 0.392884 9.07509
-1.02894 1.70983 15.3259
0.126371 0.967863 14.4199
0.143255 0.0165586 2.47989
0.163197 1.10167 8.90896
-1.75473 1.77771 15.5692
0.139659 1.60867 14.004
0.160741 2.01948 5.36941
0.304991 1.74834 9.72844
2.71413 -1.322 17.3685
0.0341749 -0.501581 13.2028
0.0276513 -0.686755 17.8791
-0.191837 -0.874742 2.44996
-0.106744 0.721467 -4.06636
-0.275425 0.744415 -2.44035
-2.01802 0.0607192 7.95262
-0.0810698 1.31839 -6.32062
0.0610921 1.70197 1.75913
2.87957 1.39983 17.4776
-0.0281645 3.41897 17.4052
0.0048188 0.500526 17.4416
-0.012125 6.74624 12.5473
4.03188 0.731617 20.1073
-0.0812244 4.04379 20.0666
-1.32171e-20 -9.12664e-17 -1.79334e-16
1.42755 -0.130734 15.146
-0.104951 3.08721 22.2866
0.0242228 -0.0123135 2.6928
-0.27381 0.101158 15.372
-0.00161311 0.185918 21.7749
0.268003 0.144984 6.50281
-0.0115915 -0.608263 17.8787
0.0294009 -0.166465 21.6712
0.166407 -0.118126 10.5224
-0.230436 -1.1025 19.3937
0.0475203 -0.50653 21.9293
0.119874 -0.590934 13.4353
1.03914 -0.413009 20.0357
1.30568 -0.872282 19.7236
1.70563 -0.793602 19.4836
0.783047 -0.405929 19.6051
2.35743 -1.52954 20.5298
1.00825 -0.617414 21.2165
0.869921 -1.06706 21.7774
1.32008 -1.39255 22.1481
-0.0388343 -0.76743 21.7773
0.0975835 -0.470306 21.4261
-0.39059 -0.351186 21.5246
-0.300116 -0.839883 21.0141
-0.508951 -0.512385 20.9335
-0.342256 -0.313916 21.5821
-0.727527 -0.0946182 21.5414
-0.573367 -0.430771 20.1345
-1.30089 0.214621 20.9141
-0.974218 -0.107258 21.3545
-1.34954 0.537461 21.2047
-1.69416 0.173461 18.8382
-1.77867 0.516673 20.201
-1.15643 -0.151779 21.2653
-1.71594 0.710678 20.4729
-1.78398 0.447679 17.8542
-1.69578 0.342777 19.8968
1.22584 -0.283649 19.9583
2.18857 -0.265569 19.1973
0.962939 -0.287704 19.4206
3.51755 -1.10191 20.4634
1.27804 -0.54738 21.3041
2.28426 -0.852295 22.0102
0.522725 -1.34424 21.6076
0.403689 -0.586444 21.4822
1.02183 -1.11785 21.1067
0.265282 -0.743656 19.0276
-0.0979969 -0.536112 21.7355
0.0888982 -0.392277 19.7317
-1.08825 -0.321439 17.1583
-0.884086 -0.631261 21.438
-0.615819 -0.877138 18.0138
-1.53445 -0.534532 16.9822
-1.05486 -0.671882 21.445
-0.979198 -1.15099 19.2173
-1.43477 -0.559998 17.2907
1.36932 0.169878 19.9095
1.65444 0.921945 19.5316
1.08263 0.175045 19.3088
3.18773 0.813797 20.2632
1.53636 0.0149552 21.0834
1.98352 0.820908 20.9802
2.09399 -0.341757 21.6257
0.881406 -0.230572 21.5085
1.26018 0.366391 21.7017
0.851054 -0.196441 21.9285
0.217128 -0.350964 21.6219
0.286926 -0.147947 21.6062
0.112367 -0.627879 21.5826
-0.163736 -0.581287 21.3776
0.0168361 -0.453059 21.313
-0.184467 -0.866339 21.37
-0.375355 -0.610994 21.0827
-0.152757 -0.58854 21.3156
-0.280045 -0.877215 21.0509
-1.51428 -0.882286 19.5608
-1.03155 -1.25535 21.9516
0.454346 -0.580527 21.2518
0.71955 -0.313086 20.9441
1.50502 0.303855 20.5237
1.60497 0.209781 20.8698
-2.02207 -0.651487 19.2049
-1.88821 -1.21274 22.2518
-0.18291 -1.21481 20.1359
0.0809004 -0.34153 18.4767
1.12329 -0.63176 17.5923
1.4936 -0.568085 19.2248
-2.10382 0.50174 19.2144
-2.46713 0.19648 21.4222
-1.4625 -0.25542 21.8299
-0.355105 -0.335816 21.7931
0.000580238 -0.637032 21.3665
0.341151 -0.838526 21.2299
0.0376568 -3.13264 17.0267
0.00644784 -0.0385356 0.465852
-0.028916 0.11429 3.41212
0.0775823 0.371843 7.19371
0.200585 0.734912 8.62989
0.15515 1.83574 9.58215
0.0347826 -2.41092 14.2859
-0.0308881 -0.375659 -0.950692
-0.0242482 0.838419 -2.3744
-0.00522651 3.11774 14.3555
-0.0309486 1.53161 7.71721
0 0 0
0.0972077 -0.236627 6.84558
0.319233 0.0883437 8.93215
0.232126 -0.766828 12.6813
1.50182 -0.856727 19.603
1.02741 -1.21225 21.9002
-0.411759 -0.585568 21.3388
-0.730823 -0.283957 21.01
-1.58958 0.454765 20.3949
-1.7819 0.576986 19.8389
2.00353 -0.638506 19.2475
1.84524 -1.19871 22.2069
0.221014 -1.19988 20.3369
-0.112876 -0.373197 18.7103
-1.29368 -0.488503 16.8338
-1.73895 -0.606844 16.8121
2.1247 0.494207 19.2192
2.5084 0.187861 21.4408
1.50659 -0.284085 21.8886
0.351336 -0.379817 21.8693
-0.0304685 -0.752872 21.4143
-0.377428 -1.04125 20.9291
0 0 0
-0.0483471 -0.206643 0.755484
-0.0417862 0.010292 0.459613
0.0339661 -0.0120276 0.0873715
-0.353405 -0.120256 1.40123
-0.0178208 0.0909237 0.93218
-2.06243 -0.0290513 2.038
-0.803797 1.0641 0.989615
-0.72549 -0.100949 2.04564
-0.0109063 -0.0427567 0.0141416
-0.0301942 0.00977796 -0.0185772
0.00136113 -0.0132935 0.101251
0.0244605 -0.0942683 0.343667
3.31226 -0.892669 2.90778
0.013868 0.00290464 0.200403
0.122798 0.0116714 0.234535
-0.0323152 -0.00439217 0.0863471
0.00681336 0.100527 0.94982
0.781632 1.04487 0.938942
1.46673 -0.122637 1.33292
0.297559 -0.163251 1.11977
0.0321143 -0.00302138 -0.00281426
0.00596061 -0.0361584 0.0192228
-0.00517983 -0.0106317 0.111658
0.0247987 0.0294222 0.648606
0.0480835 -0.00731802 0.790237
0.000120948 0.000447263 0.00259944
0.0697774 0.00972615 0.153843
0.057564 0.000509953 0.47069
0.235144 0.0547761 4.53702
0 0 0
0.0949016 0.0249906 0.477446
0 0 0
0.000326179 0.000992446 0.00806716
0.0025311 0.0186197 0.12173
-0.0584671 0.0262414 0.0808844
0.0562857 0.0997721 0.370601
0 0 0
0.0135231 0.0509752 0.136542
0.190308 0.103668 1.02662
-0.00474165 0.00626031 0.131916
-0.0440532 0.00200415 0.101077
-0.0530226 0.0379448 1.23921
-0.00059653 0.00216329 0.0133794
-0.0653836 0.000535411 0.556061
-0.0720765 0.017828 0.397014
-0.309839 0.0818921 4.99948
0 0 0
0 0 0
0.0810079 0.0397508 0.116408
-0.000341241 0.0018194 0.0126506
-0.00182585 0.0126488 0.0803343
-0.0708098 0.107124 0.415003
-0.162615 0.0871078 0.935709
0 0 0
-0.0118109 0.0377672 0.102947
-0.020876 -0.0175666 0.165378
-0.224988 -0.0589349 0.114132
0 0 0
0 0 0
0 0 0
0.0871042 0.00642957 0.168339
0.00581769 -0.000548815 0.0400215
-0.0460008 -0.0682756 0.0344001
0 0 0
0 0 0
0.000258738 0.0067204 0.105246
0.0623429 0.0438877 0.778974
0 0 0
0.00112756 0.0384809 0.124669
-2.62263e-05 -6.69407e-05 0.00115813
-0.0126128 0.00718483 0.0457918
0.00119325 -0.00176861 0.000100105
0.0190122 -0.013256 0.0368433
0.0215621 0.0244681 0.38453
0.000509576 -0.000489062 0.0067654
0.951308 -0.575455 0.388191
0.0222959 -0.0226592 0.174949
-0.0601646 0.00146341 0.123456
0 0 0
0.0362524 -0.036772 0.0195449
-0.0176405 0.00256131 0.152485
-0.0579807 0.0393906 0.807375
0 0 0
0.00893884 0.00513354 0.0325832
2.81088e-05 -5.3087e-05 0.00178206
-0.000894684 -0.00123998 0.0183148
-0.0246904 0.0342574 0.373767
0.0355645 0.0325192 0.282376
0.0582561 0.0106586 0.216328
0.0434169 0.000614457 0.396653
0.000138607 0.000621422 0.00331933
-0.000844363 -0.000485759 -0.0189079
-0.000164359 1.28992e-05 -0.00076293
-6.13823e-05 0.00459508 0.0149906
-0.00481841 0.00645231 0.0646057
-7.05083e-05 6.86897e-05 0.00273436
0.00225455 0.0116971 0.101412
0.000102342 0.0037408 0.0141474
-0.146685 0.149618 2.34064
0 0 0
0 0 0
0.000217199 0.00154359 0.0710336
0.000339704 -0.000863806 0.0328695
-0.0424334 0.00339635 0.169585
-0.00966633 0.012611 0.136949
-0.0312579 0.00370021 0.323882
-0.000821051 0.00366308 0.0194166
0.000122442 0.00441645 0.0137304
0.00427586 0.00541056 0.047452
0.119335 0.121269 1.89545
-8.03964e-05 0.00323119 0.0120953
-0.00319282 -0.00296605 0.0335247
-0.0288804 -0.0218022 0.206699
0.00681524 0.00316388 0.0569315
0.0185626 -0.000810125 0.0841944