# vtk DataFile Version 2.0
tri_press
ASCII
DATASET UNSTRUCTURED_GRID
POINTS 3682 float
-0.695 0.185 -1.79105
-0.798733 0.205 1.735
-0.765 0.675 -1.58713
-0.665 0.805 1.93009
0.677482 0.175 -1.795
0.795 0.265 1.79225
0.675 0.661737 -1.675
0.684722 0.795 1.915
-0.769922 0.151323 -0.6157
-0.800711 0.161777 0.55965
-0.798691 0.785358 -0.414723
-0.76225 0.825584 0.757683
0.782852 0.138803 -0.59925
0.827727 0.1631 0.5965
0.76674 0.794657 -0.478333
0.747308 0.816405 0.718333
-1.45363 -0.151623 -2.80962
-1.44803 -0.123877 -1.86131
-1.50185 -0.143061 -0.686787
-1.53823 -0.142031 0.483546
-1.54093 -0.107542 1.6577
-1.5394 -0.0828491 2.60424
-1.53876 -0.0620917 3.55392
-1.46797 0.134025 -2.72514
-1.45926 0.178188 -1.7741
-1.52365 0.168894 -0.601992
-1.54596 0.168306 0.565351
-1.52726 0.191118 1.7369
-1.53398 0.214917 2.68295
-1.54046 0.237395 3.63298
-1.51403 0.67657 -2.54515
-1.51275 0.71924 -1.57972
-1.54947 0.791613 -0.407874
-1.51992 0.816346 0.757136
-1.44803 0.806169 1.92533
-1.49297 0.81906 2.85865
-1.53012 0.84125 3.8008
-1.57321 1.56878 -2.29778
-1.56854 1.62125 -1.34309
-1.56844 1.70084 -0.162284
-1.55379 1.74801 1.0113
-1.53062 1.75674 2.18367
-1.53163 1.76108 3.12078
-1.54663 1.77338 4.05991
-0.713592 -0.151326 -2.82219
-0.691297 -0.121341 -1.86929
-0.734702 -0.153877 -0.690149
-0.770777 -0.143843 0.48699
-0.785337 -0.0899232 1.66524
-0.787774 -0.069985 2.60996
-0.786629 -0.054413 3.55775
-0.730258 0.129584 -2.74329
-0.795164 0.224186 2.68514
-0.794135 0.243319 3.63526
-0.775628 0.655408 -2.56778
-0.758998 0.817427 2.85646
-0.79008 0.841743 3.79974
-0.824736 1.55564 -2.31672
-0.814447 1.60999 -1.36128
-0.810818 1.69864 -0.177617
-0.802377 1.7494 1.00052
-0.786574 1.75556 2.17701
-0.788653 1.75891 3.11584
-0.801774 1.77182 4.05604
0.729861 -0.159092 -2.83984
0.744755 -0.130327 -1.87351
0.805644 -0.162927 -0.678719
0.827801 -0.140255 0.515754
0.796968 -0.0549732 1.70656
0.755667 -0.0449816 2.63758
0.737528 -0.0398786 3.57374
0.698967 0.121085 -2.76877
0.730037 0.250602 2.71174
0.718374 0.25726 3.64953
0.673164 0.646606 -2.62064
0.691281 0.823178 2.85918
0.695471 0.848666 3.80445
0.666819 1.55119 -2.36072
0.687823 1.60675 -1.40748
0.707064 1.69677 -0.217005
0.703797 1.74555 0.972836
0.694644 1.75153 2.15993
0.690328 1.75704 3.10529
0.685956 1.77203 4.04955
1.46593 -0.165377 -2.84843
1.48472 -0.138236 -1.88365
1.56191 -0.156077 -0.683525
1.60085 -0.138428 0.517493
1.57357 -0.069153 1.71138
1.53191 -0.0472432 2.64633
1.50743 -0.0378265 3.58094
1.43347 0.119638 -2.77792
1.44136 0.164553 -1.81275
1.53975 0.155823 -0.611835
1.58494 0.167151 0.591583
1.55146 0.231346 1.78881
1.50553 0.250118 2.72147
1.48596 0.260387 3.65678
1.41029 0.662692 -2.63449
1.42799 0.707821 -1.68379
1.51385 0.790664 -0.484011
1.5167 0.804955 0.720033
1.4658 0.803928 1.91925
1.45251 0.829417 2.86488
1.45302 0.853268 3.80852
1.41441 1.56034 -2.37964
1.43805 1.61483 -1.42725
1.46398 1.69629 -0.233933
1.46197 1.74094 0.960688
1.44638 1.75006 2.15216
1.43922 1.75807 3.1007
1.43613 1.77391 4.04696
-0.768157 0.43 -1.72725
-0.00875899 0.164151 -1.80887
-0.736057 0.164565 -1.20338
-0.771692 0.505 1.87237
-0.00186649 0.209573 1.78905
-0.791507 0.191604 1.14733
-0.045 0.737496 -1.70019
-0.834506 0.78284 -1.00093
0.00986099 0.880087 2.00263
-0.788671 0.890338 1.34389
0.715743 0.418369 -1.7745
0.723625 0.163444 -1.19713
0.76571 0.53 1.87947
0.811879 0.213534 1.19438
0.79161 0.798937 -1.07667
0.791484 0.881172 1.31667
-0.779564 0.162302 -0.028025
-0.842574 0.46834 -0.515212
0.00646516 0.138014 -0.607475
-0.853176 0.493681 0.658667
0.0135081 0.138008 0.578075
-0.770681 0.795681 0.17148
-0.0159756 0.979934 -0.446528
-0.00747134 1.19249 0.738008
0.795444 0.160797 -0.00137496
0.841949 0.46673 -0.538792
0.852054 0.489753 0.657417
0.749052 0.797559 0.12
-0.878224 0.44917 -1.10215
0.880143 0.442549 -1.1369
-0.00114691 0.148956 -1.20025
-0.0304878 0.864369 -1.0388
-0.0268795 0.424184 -1.95018
-0.834678 0.48101 0.0717275
0.831128 0.478241 0.0593125
0.00998661 0.137814 -0.0147
-0.0117235 1.178 0.14574
-0.894585 0.49934 1.24561
0.89416 0.509876 1.25552
0.00582078 0.156068 1.17085
0.00119483 1.0554 1.33028
0.00399725 0.5175 2.01887
-0.731994 0.3075 -1.75956
-0.351879 0.171104 -1.80343
-0.717838 0.172473 -1.49721
-0.800523 0.355 1.819
-0.4003 0.208012 1.7613
-0.791439 0.201982 1.44116
-0.775799 0.5525 -1.66641
-0.405 0.692997 -1.63041
-0.832839 0.762006 -1.29403
-0.726814 0.655 1.9097
-0.32757 0.862944 1.98676
-0.75184 0.872673 1.63699
0.334362 0.169135 -1.80238
0.698289 0.296684 -1.78643
0.697933 0.171843 -1.49606
0.396567 0.219517 1.80842
0.790023 0.3975 1.84553
0.816208 0.226499 1.49331
0.315 0.675469 -1.66345
0.697618 0.540053 -1.727
0.769293 0.766325 -1.37583
0.347291 0.860098 1.98137
0.733882 0.6625 1.9059
0.760645 0.860627 1.61583
-0.756103 0.15483 -0.909538
-0.76335 0.168206 -0.321863
-0.837535 0.294188 -0.565456
-0.383418 0.14129 -0.611588
-0.820571 0.152228 0.853488
-0.791756 0.160422 0.265813
-0.852613 0.314894 0.609158
-0.398263 0.140571 0.568863
-0.818384 0.785884 -0.707825
-0.840558 0.636812 -0.464968
-0.781481 0.787315 -0.121622
-0.42406 0.9161 -0.430626
-0.781082 0.863582 1.05079
-0.846219 0.678885 0.708175
-0.762323 0.80649 0.464582
-0.448558 1.13643 0.747846
0.748664 0.155697 -0.898188
0.397133 0.13346 -0.603363
0.78561 0.153338 -0.300313
0.826852 0.29554 -0.569021
0.859131 0.14899 0.895438
0.429222 0.133345 0.587288
0.80678 0.166754 0.297563
0.849206 0.321769 0.626958
0.781911 0.799533 -0.7775
0.388548 0.913627 -0.462431
0.844736 0.650889 -0.508563
0.757918 0.79613 -0.179167
0.772787 0.852179 1.0175
0.434899 1.13441 0.728171
0.84532 0.675898 0.687875
0.743612 0.802414 0.419167
-0.866192 0.439585 -1.4147
-0.397518 0.427092 -1.85699
-0.00495295 0.156667 -1.50456
-0.0178192 0.294167 -1.99162
-0.863165 0.306868 -1.15276
-0.368602 0.157356 -1.20181
-0.891997 0.50217 1.55899
-0.383847 0.51125 2.0137
0.00197715 0.182262 1.47995
0.00106538 0.363537 1.9235
-0.880294 0.345472 1.19647
-0.392843 0.132612 1.15909
-0.0377439 0.822399 -1.36949
-0.0359397 0.58084 -1.99352
-0.889588 0.616005 -1.05154
-0.432497 0.831385 -1.01986
0.00552791 0.962011 1.66645
0.00692912 0.698793 2.03371
-0.887106 0.694839 1.29475
-0.393738 1.013 1.33708
0.876774 0.430459 -1.4557
0.344432 0.421276 -1.87135
0.869817 0.302997 -1.16701
0.361239 0.151675 -1.19869
0.887166 0.519938 1.5675
0.384854 0.52375 2.00794
0.880079 0.361705 1.22495
0.40885 0.130949 1.18261
0.889184 0.620743 -1.10678
0.380561 0.830635 -1.05773
0.885493 0.695524 1.28609
0.39634 1.01121 1.32347
-0.833567 0.308434 0.0218513
-0.389203 0.141231 -0.0213625
-0.886139 0.458755 -0.808681
-0.838347 0.474675 -0.221742
0.00265912 0.142288 -0.903863
0.00822589 0.137853 -0.311088
-0.839611 0.487345 0.365197
-0.887316 0.49651 0.952136
0.0117473 0.137808 0.281688
0.00966442 0.137538 0.874463
-0.829483 0.651747 0.121604
-0.458888 1.12221 0.15861
-0.0232317 0.880667 -0.742663
-0.0138495 1.09532 -0.150394
-0.00959741 1.21391 0.441874
-0.00313825 1.13897 1.03414
0.828104 0.31211 0.0289688
0.410688 0.13336 -0.00803746
0.889672 0.45464 -0.837844
0.833173 0.472486 -0.23974
0.836393 0.483997 0.358365
0.887057 0.499814 0.956469
0.831792 0.658751 0.0896563
0.434447 1.11935 0.13287
-0.857134 0.307184 -1.45596
-0.865898 0.30835 -0.859109
-0.864143 0.621427 -0.758253
-0.881275 0.584252 -1.35436
0.858421 0.29984 -1.47588
0.885152 0.580398 -1.41577
0.874871 0.625718 -0.807672
0.877968 0.302881 -0.868016
-0.360241 0.16219 -1.50089
0.3478 0.165047 -1.50031
0.377949 0.141197 -0.901025
-0.375165 0.144725 -0.9067
-0.418749 0.771155 -1.33176
-0.419915 0.870367 -0.725244
0.377972 0.864653 -0.760081
0.34778 0.776418 -1.37266
-0.374699 0.300834 -1.93317
-0.401259 0.56667 -1.8469
0.329716 0.560447 -1.86748
0.339397 0.295426 -1.9431
-0.829701 0.304236 -0.271802
-0.837921 0.314248 0.315505
-0.835612 0.664196 0.414889
-0.830755 0.642147 -0.171682
0.823977 0.305576 -0.270026
0.831601 0.651489 -0.209453
0.838318 0.667206 0.388766
0.834912 0.318811 0.327964
-0.386383 0.141114 -0.316475
0.40393 0.13337 -0.3057
0.419953 0.133358 0.289625
-0.393809 0.140748 0.27375
-0.444719 1.02564 -0.136008
-0.465319 1.15252 0.453228
0.447016 1.15156 0.43052
0.412303 1.0181 -0.16478
-0.879698 0.3366 0.902812
-0.873324 0.350236 1.50008
-0.872482 0.67492 1.59799
-0.867665 0.677236 1.00146
0.887335 0.344066 0.925953
0.868153 0.674302 0.986984
0.872245 0.679012 1.59167
0.873743 0.379603 1.5304
-0.393222 0.136813 0.863975
0.414734 0.134272 0.88495
0.402708 0.148772 1.48663
-0.396571 0.152911 1.46056
-0.389299 1.09309 1.04246
-0.360654 0.930633 1.65172
0.371816 0.927485 1.64114
0.383129 1.09279 1.02582
-0.392074 0.359268 1.82812
0.39071 0.380518 1.8957
0.366073 0.680647 2.00494
-0.355708 0.676897 2.00831
-0.708238 0.24625 -1.77005
-0.52344 0.177498 -1.7978
-0.705177 0.179979 -1.64413
-0.801706 0.28 1.77908
-0.599516 0.192249 1.76241
-0.796466 0.202111 1.58808
-0.77128 0.61375 -1.62765
-0.585 0.711888 -1.63666
-0.807783 0.727367 -1.44058
-0.700603 0.73 1.92459
-0.496285 0.838444 1.9629
-0.718168 0.848584 1.78354
0.505922 0.169942 -1.80081
0.682748 0.235842 -1.78558
0.69404 0.167088 -1.64553
0.595783 0.215372 1.82722
0.794392 0.33125 1.82077
0.818454 0.2329 1.64278
0.495 0.672553 -1.67317
0.689244 0.600895 -1.70393
0.73521 0.727095 -1.52542
0.516007 0.841262 1.9619
0.714551 0.72875 1.9157
0.731759 0.836889 1.76542
-0.767976 0.148112 -0.762619
-0.764815 0.161584 -0.468781
-0.826649 0.211295 -0.590578
-0.576285 0.147075 -0.613644
-0.815018 0.152626 0.706569
-0.797131 0.160202 0.412731
-0.848855 0.227239 0.584404
-0.60133 0.147488 0.564256
-0.806974 0.784057 -0.561274
-0.849153 0.725849 -0.439846
-0.789687 0.785937 -0.268173
-0.612737 0.85345 -0.422675
-0.769994 0.842911 0.904234
-0.818135 0.759184 0.732929
-0.759855 0.813605 0.611133
-0.605977 0.982154 0.752765
0.772132 0.140876 -0.748719
0.589652 0.136811 -0.601306
0.778099 0.152202 -0.449781
0.817754 0.210721 -0.584135
0.839798 0.159676 0.745969
0.634814 0.135543 0.591894
0.817184 0.164997 0.447031
0.847443 0.237946 0.611729
[...]
POINT_DATA 3682
SCALARS point_scalars float 1
LOOKUP_TABLE default
-83.1437
-48.5285
-34.3191
-34.6375
-77.403
-45.2823
5.32698
-36.2692
-40.4672
-30.3017
-34.1474
-44.1409
-40.5098
-30.362
-33.7355
-45.4055
-75.157
-86.179
-54.456
-28.0837
-45.0249
-40.2053
-32.821
-75.157
-95.4528
-50.3028
-28.5489
-47.9219
-36.0758
-32.7185
34.5559
-95.9404
-35.6108
-33.6587
-44.7399
-33.9036
-31.8324
-35.7346
-75.4604
-36.9148
-44.9497
-39.7141
-34.8841
-33.7936
80.9521
-149.788
-42.4611
-30.8979
-41.8413
-33.3064
-30.5352
105.863
-30.8841
-30.2
149.532
-31.8006
-31.8006
15.6018
-66.7465
-46.6858
-59.5847
-35.4361
-32.6146
-31.8016
41.7691
-88.3994
-43.7669
-32.1382
-41.7834
-34.6754
-31.1244
120.753
-31.7761
-30.7169
146.745
-32.4682
-31.1127
9.17124
-67.3977
-43.01
-60.6112
-34.5315
-32.6935
-32.2986
-40.4374
-82.1613
-55.8645
-28.7265
-44.0825
-43.2689
-33.7418
36.1128
-97.1702
-53.4127
-28.0411
-46.622
-36.5766
-32.6647
46.1215
-90.1434
-35.744
-34.3806
-46.127
-34.8026
-32.5455
-16.9796
-69.677
-49.9234
-46.4439
-41.631
-35.9351
-33.1724
-5.82792
-108.66
-51.361
-34.7678
-32.4152
-36.9136
-22.324
-55.7548
-31.7076
-49.4845
36.1327
-51.2356
-35.6668
-37.4512
-61.5313
-50.5294
-28.3669
-35.0708
-39.1775
-30.1111
-34.6437
-43.0489
3.74651
-72.0348
-28.4214
-35.8059
-30.3262
-44.6438
-57.7108
-61.1278
-53.5888
-36.5744
204.412
-30.2164
-30.3151
-33.5427
-67.9467
-41.9818
-43.463
-39.5219
-45.226
-25.0419
-13.5002
-154.095
-72.3247
-39.9834
-35.8659
-37.7054
-13.5222
-29.1456
-77.743
-33.7975
-31.9816
-44.7517
-157.035
15.87
-75.5849
-35.958
-38.7225
-38.3175
-26.2617
37.5022
-69.5117
-32.5747
-35.1019
-46.1121
-41.8591
-30.2439
-36.4514
-39.5101
-38.4168
-28.3533
-28.6498
-33.4166
-40.4932
-34.6889
-38.7937
-16.0292
-45.1959
-33.9322
-44.0142
-65.4054
-40.0786
-39.2916
-30.5396
-36.4823
-52.8002
-34.9325
-27.4796
-28.288
-42.0235
-13.5304
-35.8833
-39.1449
-47.4357
-66.3902
-34.5474
-45.6396
-88.6452
178.488
-72.5946
183.676
-57.2049
-54.1134
-46.2887
-28.6192
-38.0957
-26.9082
-39.7764
-39.0671
-48.1424
86.7284
-58.1229
-45.9235
-37.0597
-26.8506
-45.0273
-45.8169
-106.678
182.204
-58.5414
-53.8415
-45.5513
-30.187
-41.2603
-38.8534
-62.7046
-46.292
-45.6464
-46.3993
-28.4851
-32.6594
-49.066
-30.8296
-43.282
-35.3485
-30.0113
-34.7243
-33.4436
-36.9081
-33.2883
-64.8205
-13.5726
-25.422
-91.5457
-56.8479
-28.6935
-32.9001
-51.4354
-30.6748
-30.1554
-36.5837
-34.1286
-60.8479
-94.0997
-48.2055
-45.2916
-91.5324
-108.133
-101.728
-49.774
-49.5543
-75.1531
-75.9845
-43.101
-43.6125
-54.7746
-27.1975
-27.0218
-56.2943
149.445
55.6512
55.9478
143.154
-29.8204
-27.9853
-34.2119
-32.695
-29.5262
-33.1972
-35.2205
-28.0452
-34.6282
-34.9087
-32.9169
-32.5319
-24.3431
-73.7902
-77.3768
-20.2077
-38.2382
-42.4891
-50.3317
-36.9473
-42.6377
-37.8067
-50.3088
-42.6009
-36.4107
-37.4279
-38.6869
-38.6361
-55.0239
-38.0639
-38.6243
-56.0083
-29.9336
-31.4653
-30.6541
-29.6288
-31.3909
-94.9516
-99.6282
-44.7059
-40.0104
-39.2558
-23.6503
-23.1406
-63.2642
-34.1767
-32.6363
-40.0788
-96.1908
-9.5251
-108.09
-38.1039
-41.9224
-42.1229
-20.8395
27.7185
-43.2803
-33.7754
-35.5046
-41.1865
-43.1578
-33.2586
-38.1623
-39.3232
-32.8799
-28.6255
-28.1189
-32.4277
-36.0673
-34.7862
-35.3176
-29.778
-44.6824
-38.1418
-44.1255
-52.9441
-41.5808
-40.1336
-34.6154
-37.9053
-31.2777
-34.5942
-27.9684
-27.7094
-36.8104
-28.4717
-35.4676
-33.8903
-45.4639
-54.9099
-38.3815
-45.7532
-7.40227
-11.2913
-104.238
136.058
-144.237
-140.496
-91.7714
86.3009
-61.1088
-47.3794
-56.3197
-53.4759
-36.8735
-34.1667
-47.8255
-31.3104
-33.2992
-33.3328
-35.8012
-27.2141
-36.258
-43.9412
-37.9859
-38.7058
-23.3556
-24.1612
-41.1418
21.2862
-67.6322
-46.9067
-59.1757
-49.7592
-31.5471
-31.8836
-33.9479
-30.4511
-49.2724
-48.2696
-47.0092
-48.3162
30.6384
35.2779
-58.3712
157.32
-61.8721
-44.6683
-57.0419
-52.5376
-36.5861
-35.1575
-48.195
-32.0143
-36.4912
-40.1831
-39.3957
-38.3346
-67.7229
-51.0901
-66.1953
-52.4725
-50.0067
-49.1367
-46.9719
-49.279
-30.4449
-28.8024
-27.9965
-31.3028
-35.9108
-34.818
-42.345
-31.8788
-39.3716
-39.3979
-42.1908
-37.029
-29.1345
-31.4944
-29.944
-30.7447
-34.3915
-34.8007
-33.9007
-35.6112
-41.6956
-44.0238
-38.3061
-55.3218
-2.16448
-0.724845
-2.90657
-6.996
-70.6944
-71.3678
-79.7053
-63.8114
-29.4848
-29.9546
-28.2769
-31.3043
-36.2799
-35.5333
-44.3336
-32.0442
-29.3295
-31.8023
-30.0772
-31.574
-42.3398
-45.6403
-39.9391
-59.8684
-69.4117
-57.3092
-58.028
-51.1982
-77.174
-59.5524
-61.983
-54.0384
-61.5732
-54.3116
-54.0797
-47.8733
-44.979
-39.3166
-39.4695
-27.0315
182.873
199.921
191.077
185.924
-29.2206
-30.2467
-30.0403
-31.431
-29.2974
-30.2403
-30.2577
-31.7604
-33.3437
-34.2096
-33.303
-33.5032
-65.8299
-44.2076
-82.7992
-63.4186
-43.293
-41.0215
-43.334
-41.5201
-43.0625
-42.5574
-44.6953
-42.8762
-38.2158
-40.5213
-40.0846
-40.5392
-40.676
-44.977
-45.314
-49.8828
-25.5113
-23.6331
-25.8019
-27.9283
-88.945
117.491
-105.313
-9.61096
-90.4644
-74.6892
-47.2591
-31.0875
-38.1727
-30.1766
-40.5945
-38.0334
-95.8625
76.7366
-54.7773
10.9644
-86.5267
-63.5198
-43.0433
-30.8986
-34.6856
-30.9151
-48.6469
-39.9786
-104.336
-7.74124
-51.845
123.513
-102.106
-75.6466
-38.6367
-31.9601
-47.7403
-31.9104
-41.1129
-37.737
-47.2693
8.44117
-56.1278
80.2485
-79.6767
-61.9879
-35.2054
-31.6164
-44.2433
-31.7739
-49.3067
-40.7614
-45.2846
-43.7172
-29.8692
-33.2197
-46.758
-31.8261
-43.2967
-36.4985
-41.422
-36.8484
-27.5188
-31.3743
-27.6431
-30.7806
-32.9216
-35.301
-43.4414
-34.8847
-38.7362
-32.9298
-35.2866
-41.6946
-21.0212
-16.2435
-39.419
-55.0193
-34.5051
-34.2351
-39.0764
-53.9999
-70.3945
-60.1544
-46.0902
-41.48
-41.2151
-36.8985
-29.8455
-33.4959
-49.5307
-31.5547
-49.7103
-42.9035
-33.6671
-36.1332
-27.2181
-30.2917
-28.2086
-31.1931
-46.7652
-35.6947
-19.2604
-13.8338
-40.2182
-33.4862
-36.6072
-33.2639
-40.0491
-56.6357
-73.1058
-61.0134
-35.2012
-34.9556
-40.3516
-56.3107
-90.3035
-88.6645
178.715
158.152
-73.9234
-74.9522
151.706
148.496
-68.9066
-49.8071
-63.5266
-49.1468
-44.0895
-49.259
-29.1381
-28.5134
-38.2449
-38.1466
-27.2217
-28.5675
-40.7591
-40.4292
-38.3324
-39.9276
-50.3704
-48.1557
67.0229
86.0392
-53.1909
-69.6996
-55.5117
-36.4797
-37.2537
-37.5384
-28.4523
-27.2214
-49.0289
-40.924
-50.2981
-41.7407
-105.952
-110.642
156.632
181.298
-74.1776
-51.3872
-62.3038
-47.8371
-47.9427
-44.0868
-30.2694
-29.8945
-41.8863
-40.5953
-38.6235
-39.3609
-80.3139
-56.827
-36.6698
-51.6391
-41.4428
-48.002
-42.208
-50.9348
-29.0447
-28.4128
-33.3805
-32.4335
-48.8965
-47.8089
-30.2401
-31.6199
-43.6155
-43.8316
-35.218
-35.401
-28.7757
-31.7362
-35.6225
-34.9383
-33.4469
-33.1838
-36.2977
-36.6833
-33.9934
-32.514
-41.3348
-75.5446
-18.461
-18.6725
-23.0357
-22.8409
-84.8124
-86.0634
-56.0655
-56.7369
-28.9177
-28.6057
-33.6085
-32.7208
-51.7796
-50.8007
-30.0627
-31.6372
-31.9477
-29.0231
-38.2619
-36.1658
-33.3038
-34.8166
-75.8908
-38.2351
-82.9136
-68.9697
-68.8502
-96.3602
-53.5907
-44.7202
-50.2335
-49.3719
-37.91
-51.4421
-52.2141
-40.0885
-81.6569
-105.417
-69.6758
-69.4238
-66.2679
-59.7159
-75.3506
-74.2781
-49.0306
-79.9703
-77.4308
-61.1914
-39.3066
-41.8555
-54.9532
-57.8151
-56.209
-49.3015
-52.8128
-46.9584
-108.954
-98.449
-63.0132
-62.3776
-107.256
-61.7929
-62.257
-99.3514
-39.7937
-41.9332
-48.323
-46.3739
-43.1231
-48.8932
-48.4584
-42.9913
-57.8565
-60.4863
-47.7003
-45.7797
-30.8306
-8.2324
-29.0912
-41.5809
-29.7141
-44.0101
-29.0678
-6.46151
-52.408
-42.151
-46.0831
-59.4147
16.9991
150.75
182.635
-19.5547
48.1989
13.1354
152.19
106.997
40.046
132.473
181.891
33.5772
26.0968
-19.7102
184.865
161.403
-32.2882
-29.6201
-29.5126
-31.7265
-27.0078
-28.8479
-29.1543
-27.5899
-38.2764
-39.7316
-31.511
-31.6488
-34.5542
-32.2571
-31.2048
-36.4795
-31.6623
-31.6851
-29.4935
-28.9554
-34.925
-38.0537
-31.3642
-32.5155
-40.0101
-31.931
-31.9159
-40.4759
-27.4094
-27.9392
-29.2679
-28.9631
-35.4019
-36.9788
-34.0356
-31.9914
-36.4919
-32.0646
-34.1997
-37.155
-32.8198
-33.9619
-33.269
-31.9491
-31.7398
-31.2948
-33.0762
-33.6108
-29.8842
-55.2804
-43.2861
-9.80558
-53.2309
-78.2377
-84.9884
-55.0699
-55.5863
-57.8968
-85.9611
-78.8487
-26.9713
-8.26658
-42.3576
-51.9828
-30.8915
-41.2965
-41.312
-30.4827
-44.8158
-48.589
-41.9038
-38.6755
-41.5825
-49.6688
-45.2612
-45.284
-37.2482
-31.7225
-40.9318
-43.3306
-30.9112
-31.0091
-42.7659
-40.4637
-38.2974
-43.0622
-42.2612
-32.8734
-42.8684
-46.0022
-44.8069
-49.5355
-46.2228
-38.7712
-41.8862
-48.3621
-34.3781
-35.3325
-38.9333
-41.276
-36.3836
-39.9521
-39.223
-35.737
-39.2078
-36.4336
-38.8035
-37.0136
-39.5483
-37.6463
-39.0417
-36.2725
-52.0594
-52.38
-49.8471
-62.4235
-36.0817
-34.1045
-40.8304
-43.9392
-36.9468
-44.8078
-41.0937
-34.3209
-53.0619
-63.101
-50.2514
-53.0798
-34.2157
-26.9047
-25.0498
-30.7391
-33.6636
-32.0035
-26.507
-28.4626
-32.144
-30.8947
-27.761
-31.9531
-31.4191
-31.1963
-26.712
-30.2073
-56.2473
-134.795
-128.768
-49.1222
-43.4495
-43.8252
-24.9113
-10.453
-56.3282
-34.3876
-33.4709
-37.2039
-146.813
-42.0321
-123.215
-40.8532
-43.5746
-46.2058
-3.33042
18.9011
-26.4463
-34.5912
-35.8373
-38.5487
-43.8415
-37.0869
-39.9568
-39.7327
-30.0842
-30.0123
-28.5683
-31.1366
-34.5784
-34.8818
-34.4405
-33.1398
-43.6624
-39.807
-43.9944
-48.1675
-44.8222
-40.8323
-38.6849
-39.0615
-29.2294
-34.0379
-29.4264
-28.4678
-35.1495
-31.8497
-35.041
-32.9531
-45.5695
-48.9517
-42.026
-45.2683
-6.81419
-7.98109
-69.2472
66.2651
-122.109
-125.203
-106.327
-58.6731
-55.845
-48.6099
-54.7812
-52.1309
-35.6189
-34.5251
-41.3029
-31.9861
-33.0543
-32.378
-33.7217
-28.7077
-36.0952
-37.7002
-37.2219
-37.7422
-24.0423
-22.8481
-33.3237
-1.49046
-60.9603
-50.7205
-58.2453
-53.3918
-31.5586
-31.6816
-32.8392
-30.9629
-49.3731
-48.4496
-47.5998
-50.0393
36.2721
36.1556
-36.5168
107.755
-56.2732
-46.5883
-55.8109
-51.3656
-35.8705
-35.4669
-42.05
-32.7332
-36.5791
-37.8283
-38.3571
-36.9725
-66.2582
-56.0337
-65.5029
-56.7215
-50.9565
-49.1321
-47.8951
-50.5592
-29.7717
-28.2147
-27.8093
-30.3354
-35.3453
-34.953
-38.4565
-33.0976
-39.2518
-39.2712
-40.6018
-38.04
-29.5775
-30.6438
-29.8331
-30.2623
-34.542
-34.7232
-34.2423
-35.0743
-42.3926
-43.7329
-40.915
-47.6582
1.87611
2.98495
2.88357
-1.27315
-71.5797
-71.9575
-75.6653
-67.8452
-28.9785
-29.4795
-28.2116
-30.2484
-35.9682
-35.6779
-39.4118
-33.485
-29.8106
-30.8946
-30.0588
-30.657
-44.1719
-45.1005
-42.296
-49.2256
-62.3926
-57.4844
-57.9239
-54.045
-67.3527
-60.1682
-61.545
-56.556
-57.36
-53.8878
-53.8906
-50.6077
-41.4222
-37.3585
-37.2192
-31.8604
196.923
203.181
203.471
198.054
-29.6957
-30.1245
-30.2217
-30.7682
-29.7575
-30.2089
-30.3793
-30.9848
-33.4664
-33.8364
-33.3904
-33.5558
-68.3501
-56.1521
-79.5123
-66.6407
-42.5884
-41.5354
-42.5717
-41.6824
-43.1441
-43.0719
-44.0834
-43.1448
-38.8461
-39.8204
-39.7158
-40.0284
-42.7026
-45.1578
-45.3358
-47.3512
-24.6062
-23.4253
-25.896
-26.0653
-16.8769
-9.59844
-66.008
84.1396
-126.42
-153.789
-141.726
-15.1273
-82.7551
-67.4672
-86.0639
-72.6423
-41.3156
-38.3715
-46.6157
-33.4257
-37.3449
-34.6262
-38.2625
-31.1317
-37.913
-38.2953
-38.1598
-37.6669
-18.4479
-8.64372
-64.9173
44.7029
-29.9494
-26.9396
-50.0983
-13.1671
-72.4803
-75.5674
-83.895
-68.5358
-33.9114
-33.821
-38.5832
-31.4954
-32.3055
-31.7585
-33.1792
-31.3651
-42.1446
-48.2768
-47.7137
-41.7758
-141.548
-151.719
-131.886
-27.7351
4.17052
26.0825
-49.4724
103.017
-92.4218
-66.5409
-99.3193
-74.3807
-36.7282
-35.0503
-38.376
-34.8482
-40.1922
-37.4411
-46.2295
-33.5235
-39.7313
-37.1625
-39.6997
-37.7344
-24.9121
-22.7601
-30.9451
-8.00597
33.9173
39.4602
-21.9437
70.2079
-62.0833
-68.7358
-73.4231
-63.73
-33.053
-32.248
-33.7259
-31.9903
-35.2531
-35.0195
-39.7667
-32.5371
-43.3662
-48.8606
-48.3916
-42.4706
-41.5611
-44.1316
-42.2159
-43.3156
-32.4459
-28.3038
-29.3491
-32.0359
-36.6903
-36.2021
-41.1771
-33.8915
-39.4794
-39.3624
-41.458
-37.7318
-36.5491
-50.4318
-40.3204
-37.1264
-28.3225
-28.5288
-27.4779
-30.6373
-28.4999
-28.758
-28.1342
-29.0492
-32.7282
-34.0994
-33.2035
-34.222
-37.7134
-43.3243
-42.5449
-38.049
-34.6802
-34.6674
-36.4741
-33.6032
-37.1709
-40.7546
-37.3008
-42.6823
-23.2937
-8.88334
-17.5013
-15.6812
-45.8693
-46.7874
-40.7202
-50.0434
-36.2288
-32.2182
-34.2575
-33.979
-44.0807
-43.9578
-41.6895
-48.6413
-60.4124
-68.3972
-67.8823
-63.356
-37.5002
-43.0555
-43.4965
-40.5497
-39.4019
-39.4102
-40.4927
-38.112
-31.1144
-29.6735
-29.7003
-32.3133
-36.6667
-36.3648
-41.8729
-33.4441
-34.6143
-51.3264
-52.0766
-47.6238
-34.8554
-34.8525
-34.2081
-35.5731
-27.3306
-29.0504
-26.9198
-28.6073
-28.0708
-28.7738
-28.1992
-29.0026
-39.1047
-45.9505
-45.1701
-39.217
-21.7186
-6.73334
-15.7477
-13.6597
-35.8591
-35.5535
-37.2924
-34.7328
-37.283
-41.5095
-38.112
-40.7272
-44.9992
-46.921
-41.4032
-51.1361
-62.3456
-69.3005
-69.5992
-63.7858
-36.5967
-32.7987
-35.1201
-34.561
-45.5845
-45.7264
-43.2284
-49.7654
-107.971
-77.3214
-88.6669
-88.585
179.417
183.041
178.349
182.519
-80.8858
-66.393
-72.8242
-73.6307
142.209
197.795
141.091
146.336
-56.9959
-57.2509
-62.3059
-53.4925
-54.0825
-54.4737
-58.7177
-51.1674
-48.3791
-44.4208
-45.0718
-47.4571
-30.3362
-27.2347
-28.6048
-28.5696
-37.2412
-38.6896
-38.0747
-37.9083
-26.4089
-25.6836
-26.7201
-27.5229
-38.8703
-40.4834
-39.8422
-40.0346
-38.9807
-39.4916
-38.5765
-39.908
-45.8768
-47.0039
-48.3636
-46.7832
40.2022
164.066
86.5241
115.286
-58.4445
-58.2526
-54.6811
-62.7226
-48.057
-42.4288
-50.8683
-40.8352
-35.3329
-38.8305
-37.1138
-37.2418
-29.0085
-25.4181
-27.5908
-26.667
-46.2527
-44.2035
-46.6284
-43.1469
-46.9266
-45.2513
-47.741
-43.6903
-98.6098
-91.5386
-106.249
-108.926
178.071
186.284
181.527
181.477
-57.8468
-59.1976
-64.5664
-53.8252
-53.5418
-54.0159
-57.6421
-50.9907
-47.9034
-44.065
-46.5661
-44.8371
-31.4415
-28.9354
-30.2113
-29.927
-40.4737
-41.9987
-41.1067
-40.8662
-38.2186
-39.5739
-38.5687
-39.0047
-64.3911
-62.5371
-70.1036
-58.4885
-48.3836
-43.2466
-41.4416
-49.6288
-46.2603
-45.2899
-43.8525
-46.1958
-47.602
-45.6369
-44.2135
-48.379
-28.2042
-28.8256
-28.5545
-28.4915
-32.154
-33.0497
-32.9797
-32.4876
-46.5335
-50.298
-49.0992
-48.6559
-31.2328
-30.5876
-30.4983
-31.2252
-42.6456
-45.6747
-43.3844
-43.2801
-36.1135
-34.7307
-35.3026
-35.3986
-30.039
-29.8809
-29.3259
-30.8421
-31.9987
-39.332
-35.0766
-34.6526
-33.6173
-33.3267
-33.4763
-33.3574
-36.1837
-39.3162
-36.578
-36.8139
-35.3428
-32.2332
-33.641
-32.7742
-63.0559
-64.9966
-54.2459
-71.0567
-7.53154
-20.9866
-14.9731
-15.2979
-13.962
-36.5427
-24.8068
-24.8083
-85.2612
-89.4002
-88.4171
-89.1199
-60.0049
-53.1738
-56.5441
-56.8282
-28.614
-28.8899
-28.75
-28.7186
-32.2506
-33.3077
-33.2216
-32.756
-49.416
-52.5619
-51.7867
-51.1778
-31.1399
-30.4334
-30.3367
-31.1294
-30.1324
-30.1103
-30.9612
-29.5442
-33.4401
-41.0076
-37.1723
-36.3062
-36.7987
-32.7061
-33.5191
-34.4003
-58.4063
-61.7781
-71.6602
-49.1192
-104.086
-93.4881
-92.198
-78.4779
-47.0852
-48.1565
-48.1517
-48.766
-44.2554
-41.6778
-49.9162
-46.5808
-98.1775
-89.9464
-90.2566
-79.8969
-97.5882
-107.06
-107.048
-87.8282
-84.1985
-90.9057
-105.487
-97.9717
-48.3531
-44.6982
-54.5747
-51.1063
-48.2212
-50.5466
-50.1132
-50.3241
-86.0752
-75.7676
-74.6188
-68.8173
-88.085
-76.1698
-75.577
-67.9764
-42.5822
-41.5434
-45.306
-43.5073
-44.0821
-43.2726
-46.7088
-43.5735
-55.6627
-60.4388
-52.5882
-54.2034
-32.3063
-24.4882
-31.1616
-23.4317
-32.2619
-22.5731
-31.4634
-23.1107
-54.6679
-59.2684
-51.8903
-53.2612
126.196
63.4484
178.015
128.472
75.8568
34.126
100.762
53.3051
29.3068
65.7138
46.3671
107.043
76.2052
144.408
152.015
182.836
-29.7205
-30.6426
-29.3422
-30.0047
-27.8056
-27.882
-28.2745
-28.3034
-34.2324
-36.6911
-32.7356
-34.1628
-32.7596
-33.7636
-32.1156
-32.605
-29.3581
-30.2067
-29.2216
-29.8151
-33.1998
-34.7039
-32.2697
-33.2308
-35.1083
-37.7206
-33.1506
-35.1118
-27.5899
-28.1399
-28.294
-28.513
-34.0924
-35.4566
-33.9103
-34.9833
-35.7982
-34.334
-35.2624
-34.212
-33.1876
-32.0768
-33.2712
-32.7464
-32.0665
-32.675
-32.4424
-32.9234
-31.4257
-18.5691
-31.5468
-21.6428
-64.0674
-72.4674
-75.2497
-81.1012
-75.6674
-68.39
-82.8474
-78.4124
-16.2869
-24.1102
-20.4773
-26.8831
-40.2317
-33.5243
-41.0844
-36.4509
-44.8653
-41.7284
-43.3855
-41.2841
-47.2289
-49.2378
-50.7901
-50.4598
-37.949
-35.8374
-38.629
-35.8729
-46.9156
-34.4948
-43.6421
-39.7493
-38.9395
-36.0997
-39.6422
-36.8161
-48.1757
-49.8708
-49.9368
-49.4019
-44.2402
-41.9503
-43.1789
-41.385
-37.5705
-35.9117
-37.2686
-36.0698
-39.7978
-36.8661
-38.0076
-36.715
-38.6246
-38.253
-38.4407
-39.0063
-38.341
-38.5019
-38.409
-39.147
-55.0563
-57.5097
-52.8347
-55.7515
-36.2845
-38.8804
-37.5718
-39.8302
-36.8232
-39.5496
-37.8832
-40.4041
-56.4578
-58.7765
-53.519
-56.5566
-30.0969
-29.0318
-30.0725
-28.2875
-31.6756
-31.4808
-29.917
-30.8602
-31.3247
-31.6224
-29.4578
-30.3391
-30.8156
-30.4788
-29.0108
-28.1108
-72.3598
91.1283
-169.674
-15.7459
-88.7099
-101.336
-49.7719
-35.4694
-40.4809
-36.0882
-41.9391
-38.8876
-59.8032
34.4923
-44.2532
21.7118
-68.1238
-58.6968
-37.9543
-31.8874
-34.4567
-32.0359
-41.0788
-37.3098
-158.969
-12.4005
-52.5345
100.752
-84.0764
-102.787
-41.1056
-34.8349
-46.9613
-34.3922
-44.38
-39.4263
-36.5617
13.6348
-18.644
56.3799
-40.5859
-51.2655
-35.0824
-32.9465
-39.2208
-32.8737
-42.4603
-38.2085
-46.2196
-42.8858
-32.8857
-34.6728
-45.408
-34.828
-41.3167
-37.099
-34.8828
-34.2562
-26.9038
-31.0701
-27.3924
-28.9692
-32.0571
-33.6148
-37.1865
-34.134
-36.8761
-34.8103
-35.4791
-35.1931
-28.7641
-30.7578
-40.7701
-49.2587
-37.7455
-36.8235
-41.1449
-48.2377
-52.9557
-52.4367
-50.3761
-38.9771
-41.8643
-38.4093
-32.7752
-36.0896
-45.3258
-34.3439
-30.4163
-35.1955
-33.7072
-35.5559
-26.9457
-30.9592
-27.9441
-28.5179
-38.6862
-33.8684
-27.7659
-27.6416
-36.8078
-34.3921
-34.852
-31.3898
-41.7956
-49.169
-55.07
-53.9067
-39.3009
-38.2829
-42.7874
-49.336
-67.311
75.1005
-63.5139
49.7941
-101.62
-107.27
150.201
127.854
-124.56
-35.4657
-124.535
-33.5898
-94.1019
-94.8894
-51.7913
-53.0915
-67.1827
-61.2983
-48.2836
-48.2388
-61.721
-52.5109
-57.7094
-50.6357
-44.5906
-32.341
-39.6648
-31.7758
-48.4543
-46.6164
-31.1515
-31.2641
-34.8912
-27.9014
-34.2803
-30.0481
-36.6522
-36.1215
-27.0092
-27.6168
-37.7975
-37.0545
-42.6409
-42.7485
-38.4153
-38.4514
-37.2979
-39.2207
-37.6838
-6.5645
-35.6036
3.84236
-42.9878
-42.0896
24.8249
23.9613
-69.7427
-64.7803
-49.2876
-44.719
-56.7857
-63.3159
-55.1266
-45.5927
-32.8658
-30.8074
-33.12
-31.2129
-33.9981
-34.1442
-30.4509
-30.3193
-49.5689
-46.021
-44.1709
-51.3538
-48.6629
-45.1046
-50.7133
-45.9857
-43.2593
109.774
-29.553
87.0261
-60.8386
-57.7606
151.58
164.96
-72.5439
-61.1502
-48.0195
-45.4436
-63.5067
-51.7407
-56.9566
-48.8287
-44.1194
-32.9631
-40.8186
-32.5588
-47.5481
-48.0159
-31.999
-31.996
-37.3817
-36.3508
-40.2717
-41.8386
-39.3217
-39.1043
-39.3503
-37.1369
-73.0415
-64.4389
-55.4131
-47.3368
-73.8943
-61.1388
-48.8854
-56.302
-49.6696
-47.0012
-43.8165
-52.1201
-45.0273
-48.7578
-47.1274
-51.7526
-28.7369
-31.1465
-28.1577
-30.5435
-28.3788
-27.8073
-31.4513
-31.2711
-39.9156
-33.3272
-37.2432
-33.1694
-43.6101
-41.2048
-31.7662
-32.0609
-40.9308
-38.1251
-40.7268
-38.2315
-41.9743
-42.604
-37.0108
-37.0994
-28.977
-29.558
-31.6972
-31.8166
-29.359
-30.6993
-30.4836
-31.4507
-33.9391
-34.8452
-34.3259
-35.2738
-33.9543
-33.7931
-35.4819
-35.6615
-39.2796
-46.3364
-41.8216
-48.8508
-39.1726
-37.4687
-56.108
-56.0016
-4.37198
-5.25299
-1.63641
-2.69276
-3.52481
-3.28337
-8.3461
-7.30902
-74.1021
-66.2982
-74.7707
-67.1994
-79.5109
-79.5169
-62.9547
-63.3887
-29.1665
-31.0736
-28.7885
-30.6554
-28.5447
-28.9985
-31.8287
-30.7642
-40.8528
-33.5627
-38.0338
-33.7614
-43.1373
-45.5162
-31.823
-32.2668
-28.9234
-29.795
-31.9547
-32.1078
-30.9425
-29.394
-31.2449
-32.2176
-40.315
-48.2695
-43.0876
-49.8505
-39.1193
-40.3277
-58.7911
-62.6649
-69.1539
-69.7586
-62.2003
-53.5387
-54.0782
-62.8966
-50.8366
-51.6175
-76.2496
-77.3346
-65.7981
-55.0669
-68.1887
-57.3347
-54.2747
-53.4325
-62.2528
-61.8097
-58.4128
-51.0745
-57.9102
-50.8663
-47.8726
-48.1598
-45.9182
-45.3816
-44.7266
-34.2285
-34.117
-44.0131