# vtk DataFile Version 2.0
tet_velo
ASCII
DATASET UNSTRUCTURED_GRID
POINTS 29498 float
-0.661274 0.235 -1.835
-0.865422 0.345 1.795
-0.675 0.855218 -1.675
-0.686624 0.995 1.685
0.661247 0.235 -1.835
0.865422 0.345 1.795
0.675 0.855218 -1.675
0.686634 0.995 1.685
-0.776155 0.224835 -0.625
-0.808644 0.297062 0.585
-0.829277 1.05221 -0.555
-0.813353 1.07901 0.565
0.776138 0.224834 -0.625
0.808647 0.29705 0.585
0.829834 1.05277 -0.555
0.813369 1.07902 0.565
-1.44165 -0.202584 -2.79583
-1.44688 -0.146911 -1.86387
-1.53299 -0.131054 -0.651548
-1.57624 -0.0791193 0.578892
-1.60055 -0.0321459 1.79274
-1.61449 -0.0181539 2.73217
-1.62302 -0.00914075 3.65777
-1.43598 0.153445 -2.74818
-1.44111 0.231206 -1.82606
-1.5537 0.253935 -0.631246
-1.58495 0.294983 0.571669
-1.59644 0.320442 1.76821
-1.61756 0.332523 2.70636
-1.63003 0.344505 3.6349
-1.44396 0.839967 -2.62763
-1.45885 0.919152 -1.70179
-1.58968 1.04921 -0.568331
-1.5838 1.0677 0.558754
-1.50258 1.01637 1.69394
-1.57126 1.02905 2.63582
-1.62155 1.05449 3.57886
-1.47824 1.97848 -2.51448
-1.49709 2.0657 -1.60211
-1.55344 2.18104 -0.497834
-1.58661 2.21868 0.587048
-1.58783 2.19008 1.69227
-1.60144 2.17609 2.6066
-1.62739 2.18413 3.53981
-0.702364 -0.203865 -2.80164
-0.681799 -0.146858 -1.87235
-0.752409 -0.147431 -0.650411
-0.785919 -0.0781001 0.59027
-0.814749 -0.0175115 1.81264
-0.834359 -0.0104657 2.74567
-0.844053 -0.00720726 3.66558
-0.701118 0.146412 -2.74997
-0.856037 0.338156 2.71749
-0.858499 0.344435 3.64079
-0.705442 0.812041 -2.61651
-0.816978 1.01988 2.63403
-0.85913 1.04823 3.57848
-0.717102 1.96309 -2.50348
-0.722344 2.0532 -1.58999
-0.768419 2.18189 -0.490526
-0.808067 2.2218 0.586171
-0.82045 2.18491 1.68601
-0.836198 2.16829 2.60035
-0.860343 2.1773 3.53527
0.719323 -0.203799 -2.80163
0.729017 -0.146823 -1.87235
0.789786 -0.14741 -0.650412
0.823104 -0.0780986 0.59027
0.852465 -0.0175085 1.81264
0.783317 -0.0104557 2.74567
0.739268 -0.00718776 3.66558
0.69444 0.146468 -2.74997
0.748509 0.338163 2.71749
0.713834 0.344452 3.64079
0.701503 0.812116 -2.61651
0.68406 1.01989 2.63403
0.679095 1.04825 3.57848
0.78165 1.96325 -2.50348
0.800241 2.0534 -1.58999
0.800938 2.1821 -0.490526
0.762017 2.22192 0.586171
0.715893 2.18497 1.68601
0.692769 2.16833 2.60034
0.676048 2.17735 3.53527
1.4532 -0.202412 -2.79583
1.46832 -0.146751 -1.86387
1.55616 -0.130931 -0.651548
1.61027 -0.079084 0.578892
1.63142 -0.032128 1.79274
1.58118 -0.0181251 2.73217
1.53407 -0.00909577 3.65777
1.42641 0.153621 -2.74818
1.43101 0.231406 -1.82606
1.55115 0.254127 -0.631247
1.59784 0.295008 0.571669
1.60666 0.320451 1.76821
1.54981 0.332546 2.70637
1.50833 0.344546 3.6349
1.43653 0.84019 -2.62763
1.45002 0.919462 -1.70179
1.58467 1.04976 -0.568331
1.58634 1.0678 0.558754
1.49598 1.01639 1.69394
1.47449 1.02908 2.63582
1.46424 1.05454 3.57886
1.5315 1.9788 -2.51448
1.55584 2.06607 -1.60211
1.57591 2.18142 -0.497835
1.54776 2.21891 0.587048
1.49642 2.1902 1.69227
1.4688 2.17618 2.6066
1.45217 2.18422 3.53981
-0.716453 0.545109 -1.80332
-1.35005e-05 0.238222 -1.83178
-0.722063 0.226569 -1.23
-0.811065 0.67 1.77504
0 0.290573 1.84943
-0.855057 0.303007 1.19
0 0.943389 -1.76317
-0.807849 1.00943 -1.115
5.00679e-06 1.06224 1.75224
-0.790039 1.07706 1.125
0.71651 0.545109 -1.80339
0.722083 0.226527 -1.23
0.811078 0.67 1.77505
0.854999 0.30306 1.19
0.807845 1.00942 -1.115
0.790009 1.07702 1.125
-0.791622 0.261726 -0.02
-0.886085 0.638525 -0.59
-8.29434e-06 0.221992 -0.625
-0.887613 0.688036 0.575
1.758e-06 0.229468 0.585
-0.821052 1.06535 0.005
0.000278505 1.48559 -0.555
7.58416e-06 1.68213 0.565
0.791617 0.261718 -0.02
0.886126 0.638801 -0.59
0.887636 0.688034 0.575
0.821173 1.06547 0.005
-0.895718 0.591817 -1.1725
-0.886935 0.66328 -0.00750002
-0.895407 0.679018 1.1575
-1.08974e-05 0.221419 -1.23
-3.26817e-06 0.222985 -0.02
8.78999e-07 0.237865 1.19
-6.75023e-06 0.545109 -1.98695
2.5034e-06 0.67 1.96662
0.000139253 1.12678 -1.115
0.000143045 1.66823 0.005
6.29547e-06 1.63023 1.125
0.895717 0.591955 -1.1725
0.886971 0.663418 -0.00750002
0.895407 0.679017 1.1575
-1.05119 0.233103 -1.83053
-0.671536 0.0440711 -1.85367
-0.681196 0.190706 -2.29249
-1.23093 0.332721 1.7816
-0.840086 0.163744 1.80382
-0.860729 0.341578 2.25625
-1.06692 0.887185 -1.6884
-0.690221 0.833629 -2.14575
-0.698672 1.45421 -1.6325
-1.0946 1.00569 1.68947
-0.751801 1.00744 2.15951
-0.753537 1.58996 1.6855
0.695132 0.0440885 -1.85367
0.677843 0.190734 -2.29249
1.04613 0.233203 -1.83053
0.858944 0.163746 1.80382
0.806965 0.341582 2.25625
1.23604 0.332725 1.7816
0.688251 0.833667 -2.14575
0.737621 1.45431 -1.6325
1.06251 0.88734 -1.6884
0.685347 1.00745 2.15951
0.701263 1.58998 1.6855
1.09131 1.0057 1.68947
-1.16493 0.239385 -0.628123
-0.764282 0.0387022 -0.637706
-1.1968 0.296023 0.578335
-0.797281 0.109481 0.587635
-1.20948 1.05071 -0.561665
-0.798848 1.61705 -0.522763
-1.19858 1.07336 0.561877
-0.81071 1.65041 0.575586
0.782962 0.0387121 -0.637706
1.16365 0.239481 -0.628123
0.815876 0.109476 0.587635
1.20324 0.296029 0.578335
0.815386 1.61743 -0.522763
1.20725 1.05126 -0.561665
0.787693 1.65047 0.575585
1.19985 1.07341 0.561877
-1.44426 -0.174747 -2.32985
-1.43882 -0.0245694 -2.77201
-1.07201 -0.203224 -2.79873
-1.48993 -0.138982 -1.25771
-1.44399 0.0421477 -1.84497
-1.06434 -0.146884 -1.86811
-1.55462 -0.105087 -0.0363277
-1.54335 0.0614404 -0.641397
-1.1427 -0.139242 -0.65098
-1.58839 -0.0556326 1.18582
-1.58059 0.107932 0.575281
-1.18108 -0.0786097 0.584581
-1.60752 -0.0251499 2.26246
-1.59849 0.144148 1.78048
-1.20765 -0.0248287 1.80269
-1.61876 -0.0136473 3.19497
-1.61603 0.157185 2.71927
-1.22443 -0.0143098 2.73892
-1.62653 0.167682 3.64633
-1.23354 -0.008174 3.66167
-1.43854 0.192325 -2.28712
-1.43997 0.496706 -2.68791
-1.06855 0.149928 -2.74908
-1.4974 0.24257 -1.22865
-1.44998 0.575179 -1.76393
-1.56932 0.274459 -0.0297885
-1.57169 0.651574 -0.599788
-1.59069 0.307713 1.16994
-1.58437 0.681342 0.565212
-1.607 0.326483 2.23729
-1.54951 0.668407 1.73107
-1.62379 0.338514 3.17063
-1.59441 0.680785 2.67109
-1.2368 0.33534 2.71193
-1.62579 0.699499 3.60688
-1.24427 0.34447 3.63784
-1.4514 0.879559 -2.16471
-1.4611 1.40922 -2.57106
-1.0747 0.826004 -2.62207
-1.52426 0.984183 -1.13506
-1.47797 1.49243 -1.65195
-1.58674 1.05846 -0.00478843
-1.57156 1.61512 -0.533083
-1.54319 1.04204 1.12635
-1.5852 1.64319 0.572901
-1.53692 1.02271 2.16488
-1.54521 1.60323 1.6931
-1.5964 1.04177 3.10734
-1.58635 1.60257 2.62121
-1.19412 1.02447 2.63492
-1.62447 1.61931 3.55934
-1.24034 1.05136 3.57867
-1.48767 2.02209 -2.0583
-1.09767 1.97079 -2.50898
-1.52526 2.12337 -1.04997
-1.10972 2.05945 -1.59605
-1.57002 2.19986 0.0446067
-1.16093 2.18146 -0.49418
-1.58722 2.20438 1.13966
-1.19734 2.22024 0.586609
-1.59464 2.18308 2.14943
-1.20414 2.1875 1.68914
-1.61441 2.18011 3.07321
-1.21882 2.17219 2.60347
-1.24386 2.18072 3.53754
-0.692081 -0.175361 -2.33699
-0.701741 -0.0287267 -2.7758
0.00847951 -0.203832 -2.80163
-0.717104 -0.147144 -1.26138
0.0236092 -0.14684 -1.87235
-0.769164 -0.112766 -0.0300708
0.0186887 -0.14742 -0.650411
-0.800334 -0.0478058 1.20145
0.0185924 -0.0780994 0.59027
-0.824554 -0.0139886 2.27915
0.0188581 -0.01751 1.81264
-0.839206 -0.00883649 3.20562
-0.845198 0.163845 2.73158
-0.0255212 -0.0104607 2.74567
-0.851276 0.168614 3.65318
-0.0523924 -0.00719751 3.66558
-0.70328 0.479226 -2.68324
-0.00333901 0.14644 -2.74997
-0.857268 0.341296 3.17914
-0.836508 0.67902 2.67576
-0.053764 0.33816 2.71749
-0.858815 0.696331 3.60963
-0.0723324 0.344444 3.64079
-0.711272 1.38757 -2.55999
-0.00196986 0.812078 -2.61651
-0.838054 1.03406 3.10625
-0.826588 1.59409 2.61719
-0.0664593 1.01989 2.63403
-0.859737 1.61277 3.55687
-0.0900174 1.04824 3.57848
-0.719723 2.00815 -2.04673
0.0322741 1.96317 -2.50348
-0.745382 2.11755 -1.04026
0.0389483 2.0533 -1.58999
-0.788243 2.20185 0.0478224
0.0162593 2.182 -0.490526
-0.814259 2.20336 1.13609
-0.0230252 2.22186 0.586171
-0.828324 2.1766 2.14318
-0.0522788 2.18494 1.68601
-0.84827 2.1728 3.06781
-0.0717143 2.16831 2.60034
-0.0921473 2.17733 3.53527
0.72417 -0.175311 -2.33699
0.706881 -0.0286655 -2.7758
1.08626 -0.203106 -2.79873
0.759402 -0.147116 -1.26138
1.09867 -0.146787 -1.86811
0.806445 -0.112754 -0.0300708
1.17297 -0.13917 -0.65098
0.837785 -0.0478036 1.20145
1.21669 -0.0785913 0.584581
0.817891 -0.0139821 2.27915
1.24194 -0.0248183 1.80269
0.761292 -0.00882173 3.20562
0.765913 0.163854 2.73158
1.18225 -0.0142904 2.73892
0.726551 0.168632 3.65318
1.13667 -0.00814176 3.66167
0.697971 0.479292 -2.68324
1.06043 0.150045 -2.74908
0.731171 0.341308 3.17914
0.716284 0.679029 2.67576
1.14916 0.335355 2.71193
0.696465 0.69635 3.60963
1.11108 0.344499 3.63784
0.741576 1.38768 -2.55999
1.06901 0.826153 -2.62207
0.681578 1.03407 3.10625
0.688415 1.59411 2.61719
1.07927 1.02449 2.63492
0.677572 1.6128 3.55687
1.07167 1.05139 3.57867
0.790946 2.00832 -2.04673
1.15657 1.97103 -2.50898
0.800589 2.11775 -1.04026
1.17804 2.05973 -1.59605
0.781477 2.20201 0.0478223
1.18842 2.18176 -0.494181
0.738955 2.20345 1.13609
1.15489 2.22042 0.586609
0.704331 2.17665 2.14318
1.10616 2.18759 1.68914
0.684409 2.17284 3.06781
1.08078 2.17225 2.60347
1.06411 2.18078 3.53754
1.46076 -0.174582 -2.32985
1.43981 -0.0243954 -2.77201
1.51224 -0.138841 -1.25771
1.44967 0.0423277 -1.84497
1.58321 -0.105007 -0.0363278
1.55366 0.0615983 -0.641397
1.62084 -0.055606 1.18582
1.60405 0.107962 0.575281
1.6063 -0.0251265 2.26246
1.61904 0.144161 1.78048
1.55763 -0.0136104 3.19497
1.5655 0.157211 2.71927
1.5212 0.167725 3.64633
1.42871 0.192514 -2.28712
1.43147 0.496905 -2.68791
1.49108 0.242767 -1.22865
1.44052 0.575434 -1.76393
1.5745 0.274568 -0.0297885
1.56791 0.651944 -0.599789
1.60225 0.307729 1.16994
1.59209 0.681403 0.565212
1.57823 0.326499 2.23729
1.55132 0.66842 1.73107
1.52907 0.338546 3.17063
1.51215 0.680812 2.67109
1.48629 0.699544 3.60688
1.44327 0.879826 -2.16471
1.48401 1.4095 -2.57106
1.51735 0.984611 -1.13506
1.50293 1.49277 -1.65195
1.5855 1.05878 -0.0047885
1.58029 1.61559 -0.533083
1.54116 1.04209 1.12635
[...]
POINT_DATA 29498
VECTORS point_vectors float
0.0729407 -2.31173 5.54943
0.485746 0.231998 1.72328
-0.320055 0.22376 0.591396
-0.0914007 -0.163765 0.110858
-0.080023 -2.32343 5.55793
-0.499896 0.219086 1.74464
0.322969 0.225201 0.594909
0.0933187 -0.166139 0.112307
-0.156591 0.0973201 1.37646
-0.00543474 0.00577862 0.367119
0.000856072 0.0259088 0.346908
0.013965 0.0355218 0.108701
0.157775 0.0973774 1.37463
0.00561904 0.00586947 0.365763
-0.00286698 0.0216859 0.311538
-0.0138324 0.0353007 0.107599
-0.720646 -0.516403 19.8982
-1.31986 -1.09174 20.6433
-0.440619 -0.56994 21.6222
0.0768534 -0.278841 21.7311
0.59674 -0.0351206 21.7908
0.97441 0.166746 21.5404
0.989503 0.297423 21.2403
-0.99656 -0.47505 19.6855
-2.16737 -1.12653 20.5579
-0.6317 -0.739302 21.78
0.00697552 -0.451139 21.8194
0.672993 -0.246941 21.93
1.12738 -0.107899 21.6346
1.27473 -0.169945 21.4326
-1.29461 0.027885 19.4957
-2.6714 0.0878934 20.4818
-1.40636 -0.456939 21.732
-0.454633 -0.526206 21.9241
0.315829 -0.668157 21.9456
0.839822 -0.704316 21.7744
1.25369 -0.755527 21.273
-0.76962 0.49311 19.9539
-1.12422 0.705253 20.443
-1.07914 0.469354 21.2906
-0.570209 0.0204983 21.6923
-0.183758 -0.270611 21.7213
0.0964967 -0.473393 21.5046
0.270043 -0.501356 21.1414
-0.683138 -1.0397 19.2905
-1.43005 -3.39633 20.8927
-0.217015 -0.421938 22.2917
0.201888 0.134246 21.1159
0.851468 0.983468 20.4798
1.43968 1.59325 20.8277
1.60155 1.62462 20.8747
-1.01246 -1.0335 18.6112
2.05896 1.22029 13.7903
2.34389 1.32092 16.478
-1.57902 0.307096 17.7226
0.566868 -1.22322 7.50224
2.15997 -1.09668 12.6293
-0.657041 1.01276 19.475
-1.16377 1.84948 20.0284
-1.52965 1.8333 21.4571
-0.792504 0.490454 22.1521
-0.427043 -0.112058 21.849
-0.206256 -0.536701 21.8026
0.0273006 -0.907138 21.4767
0.683206 -1.02336 19.3036
1.48442 -3.22544 20.8641
0.206447 -0.432699 22.2625
-0.218656 0.123384 21.2532
-0.937244 0.984947 20.7803
-1.38239 1.73518 20.8618
-1.5395 1.86907 20.5947
1.01499 -1.03919 18.6038
-1.88889 1.22269 10.686
-2.31526 1.97194 13.9466
1.57542 0.310846 17.7095
-0.0371764 -1.23487 2.09152
-1.84867 -0.699266 6.06986
0.688681 0.974479 19.5087
1.22662 1.72227 20.0827
1.53214 1.74479 21.4562
0.785505 0.537869 22.1796
0.45094 -0.0457301 21.8932
0.299616 -0.470028 21.8948
0.0260259 -0.918931 21.0107
0.722848 -0.515172 19.8997
1.29686 -1.04628 20.6373
0.446836 -0.572937 21.6065
-0.0601213 -0.293639 21.7287
-0.588926 -0.0436244 21.8004
-1.01735 0.194426 21.5437
-1.08951 0.277538 21.1905
0.998424 -0.47888 19.6794
2.20172 -1.15375 20.5575
0.633009 -0.740963 21.7837
-0.00239326 -0.449605 21.8197
-0.671572 -0.249284 21.9281
-1.2299 -0.090183 21.653
-1.43257 -0.129995 21.3856
1.30101 0.0292965 19.4824
2.70994 0.0969466 20.4804
1.41713 -0.458196 21.7377
0.454051 -0.52545 21.9275
-0.321753 -0.677193 21.9517
-0.938217 -0.809675 21.8185
-1.49253 -0.880321 21.0804
0.746641 0.450444 19.9914
1.10378 0.657785 20.4667
1.06347 0.455209 21.2896
0.57612 0.00439095 21.6999
0.199125 -0.279916 21.7406
-0.0711764 -0.49589 21.5446
-0.263693 -0.602867 21.2481
-0.977729 0.0217481 0.936058
0.000137802 -0.0854573 0.354292
-0.0105672 -0.00131007 0.197481
0.000571507 -0.0499429 0.0416754
0.00333015 0.0172677 0.0861503
0.0211495 -0.0149632 0.548365
0.000493163 1.32837 1.47264
-0.830415 -0.418747 1.57025
0 0 0
0.0216511 0.0213556 0.134323
0.975041 0.0211014 0.932632
0.0110657 -0.00121587 0.199287
-0.000747704 -0.0499782 0.0420417
-0.0221551 -0.0154382 0.541918
0.830644 -0.418732 1.57144
-0.0210553 0.0206036 0.130729
-0.00970454 0.0787623 1.43704
1.38475e-05 0.000105589 0.00200782
-7.70498e-07 1.51625e-06 0.000709344
0.000282107 0.0177522 0.0912261
-3.27262e-07 4.88158e-06 0.000826739
0.0300254 0.0766079 0.190793
1.26767e-06 0.0657772 0.138456
2.24153e-06 -0.000504961 0.0217792
0.0111079 0.0796947 1.43509
-1.42417e-05 0.000112855 0.00212273
-0.000284425 0.0177148 0.0913659
-0.0301809 0.0768034 0.192939
-1.28868e-05 -3.26692e-05 0.000588376
0.000313561 0.0114753 0.0607265
-0.00293425 0.0184734 0.164331
-4.7145e-05 -0.0001426 0.013028
0 0 0
0 0 0
-0.000222288 -0.0165641 0.0160717
0.00179956 -0.0491748 0.0196822
6.51973e-20 3.20285e-18 1.08994e-17
7.00618e-05 0.00804784 0.0593271
1.28609e-06 -6.72844e-05 0.00084127
1.49103e-05 -3.66661e-05 0.000675564
-0.000314355 0.0115664 0.0612102
0.00293015 0.0180985 0.164127
-4.10571 -2.97505 20.2996
-2.15083 -5.44518 21.33
-2.48052 -2.7926 17.4266
1.14953 -0.123365 21.5551
0.905732 1.03243 15.04
1.41401 0.668857 9.72674
-5.41553 0.994626 20.0699
-4.30997 1.96477 15.5251
-2.76166 3.25609 19.308
0.709071 -0.456433 17.9721
-0.682578 -1.52938 2.86899
-0.0981268 -0.0737553 11.5892
2.24314 -5.37035 21.2589
2.48545 -2.80656 17.4111
4.14995 -3.02957 20.2949
-1.07273 1.02898 15.6959
-1.28389 0.453705 7.4821
-1.15778 -0.141838 21.6075
4.31128 1.97229 15.513
2.81826 3.06154 19.3909
5.4649 1.01865 20.0617
0.954679 -1.49007 0.984683
0.138638 -0.0676472 9.01529
-0.711315 -0.46674 17.8654
-0.116829 -1.06283 21.9772
-0.213348 0.0793025 18.7789
0.277225 -0.507245 21.0786
0.290242 0.154193 14.5371
-2.22968 -1.04034 22.37
-4.47908 2.28954 22.0083
-0.507913 -0.870728 21.59
-0.883995 0.0878905 19.0904
0.189913 0.0626699 19.1728
0.117903 -1.06269 21.9897
-0.259579 0.175956 15.0752
-0.272121 -0.519769 21.1669
4.35435 2.13929 22.0198
2.23792 -1.04785 22.3732
0.735342 0.159913 18.0857
0.508208 -0.869727 21.6072
-1.06974 -0.818278 20.1079
-0.871014 -0.511875 19.7969
-0.786568 -0.768698 19.6095
-0.932185 -0.886406 21.425
-1.70229 -1.12569 20.6079
-1.62307 -2.03024 20.6821
-0.131982 -0.393152 21.7087
-0.562815 -0.673465 21.6958
-0.249853 -0.636941 21.9381
0.304635 -0.173585 21.8358
0.0553678 -0.356225 21.7561
0.261243 -0.213712 21.9217
0.815426 0.0864586 21.7032
0.648699 -0.12355 21.8476
0.93213 0.266834 22.0083
1.08005 0.235226 21.408
1.06397 0.0582949 21.6148
1.37163 0.574803 21.5389
1.13153 0.0739204 21.3248
1.54708 0.784966 21.2349
-1.60786 -0.767737 19.8326
-1.18129 -0.273493 19.5339
-1.11036 -0.712582 19.2375
-1.42047 -0.997652 21.6157
-2.67003 -0.565467 20.5182
-0.239979 -0.569772 21.7742
-1.05599 -0.734783 21.7928
0.279361 -0.344599 21.9142
-0.19953 -0.541199 21.8974
0.933397 -0.177419 21.8084
0.569771 -0.499782 22.0303
1.28097 -0.0365668 21.2056
1.09824 -0.428446 21.6895
1.81693 0.153269 21.1575
1.3319 -0.447526 21.4183
2.09263 0.226627 20.4993
-2.05986 0.105245 19.696
-1.05087 0.406736 19.6768
-1.60258 0.124944 18.7585
-2.13521 -0.267054 21.3799
-1.84733 0.688459 20.3766
-0.885564 -0.544789 21.908
-1.52197 0.153477 21.5281
-0.0922313 -0.556616 21.9617
-0.677683 -0.238798 21.8714
0.534101 -0.675583 21.8302
-0.0819685 -0.50878 21.8119
1.05187 -0.758379 21.6343
0.259593 -0.628124 21.4875
1.15213 -0.9997 20.5286
0.655618 -0.855821 22.0899
1.95012 -1.13518 19.893
-0.968908 0.639474 20.1506
-0.786585 0.714413 19.7391
-1.19246 0.64754 20.9041
-1.27779 1.22293 20.2724
-0.837665 0.230708 21.6047
-1.37589 0.967896 21.4018
-0.349148 -0.158177 21.7285
-0.724247 0.199498 21.9037
-0.059946 -0.362044 21.6311
-0.288823 -0.274247 21.8195
0.202701 -0.580715 21.5364
-0.043826 -0.506687 21.6573
0.189814 -0.811469 21.6389
-1.19904 -2.14512 19.3403
-0.831461 -1.09587 18.9941
0.00699079 -1.35304 18.9468
-0.634367 -1.51748 22.4499
0.065607 -4.42308 21.3255
0.00351966 -0.0248042 21.806
0.0240158 -0.735442 22.0299
0.480858 0.381362 20.6392
0.00111798 -0.00462982 18.1693
1.11775 1.36315 20.821
0.0373487 0.95145 16.5524
1.60096 1.62048 20.1567
1.81218 1.62469 17.8644
0.0759097 1.87123 18.0435
2.02073 1.63424 17.3797
0.152346 2.49488 18.659
-1.44444 -0.574335 17.8999
-0.0051114 -1.39642 17.898
2.44491 1.67486 16.6444
1.46938 -0.60937 8.46315
0.0645034 0.868308 5.06915
2.87014 0.31184 13.4157
0.235055 2.69372 8.81822
-1.14356 1.12674 18.6566
-0.00516117 0.580697 16.2731
1.21403 -0.94828 10.263
0.12002 -0.863301 15.4308
-0.157949 1.54001 -3.316
0.617733 -1.71781 17.0231
0.127348 3.68193 -3.24349
-0.903601 1.48668 19.6535
0.0525487 1.32033 19.1979
-1.46435 2.03434 20.6396
0.0677603 2.51287 19.7095
-1.23268 1.18405 22.0641
0.048696 3.24832 21.4034
-0.541602 0.0879297 21.9728
-0.0363088 1.11289 22.4612
-0.354322 -0.309599 21.8917
-0.0801379 0.487777 22.1333
-0.0727437 -0.708735 21.5423
-0.0225691 -0.0434585 21.361
-0.0264246 -0.553611 19.8544
1.23431 -2.03952 19.3542
0.83583 -1.08766 19.0043
0.78559 -0.752492 19.6273
0.635213 -1.49567 22.3909
1.61061 -1.91216 20.6771
-0.0303159 -0.0361488 21.7927
0.265142 -0.639124 21.9148
-0.501755 0.363371 20.9226
-0.243215 -0.226924 21.9316
-1.1436 1.41803 20.802
-0.923401 0.22944 22.0376
-1.53133 1.8714 19.9175
-1.64174 1.80168 17.0418
-1.41461 0.681799 21.5167
-1.93576 1.95246 17.0722
-1.69071 0.940831 21.2402
1.43767 -0.573446 17.8895
1.11475 -0.721164 19.2223
-2.3778 1.89703 12.9229
-1.10943 -0.729216 4.80079
-2.00641 0.336715 20.6959
-2.83296 1.01149 10.1393
-2.33171 0.480442 19.8062
1.16895 1.09232 18.6941
1.60325 0.127763 18.7458
-0.745297 -0.553443 4.38983
0.138887 -0.847131 11.1007
-1.24552 -0.93204 18.6785
-0.442009 -1.7388 12.4765
-2.28438 -1.28925 19.0065
0.947876 1.39869 19.7046
0.786754 0.681248 19.7724
1.50348 1.92396 20.6703
1.26208 1.12753 20.3095
1.23248 1.19697 22.0698
1.35827 0.920391 21.3985
0.537946 0.135704 21.9917
0.738156 0.225402 21.9319
0.411596 -0.206219 21.9313
0.33144 -0.246123 21.8175
0.233741 -0.684471 21.8208
0.0931566 -0.535911 21.6841
-0.132492 -0.93533 21.8254
1.06527 -0.798574 20.1133
0.869112 -0.512579 19.8051
0.929877 -0.853872 21.4043
1.69265 -1.11363 20.6099
0.140536 -0.403385 21.707
0.564147 -0.666612 21.6833
-0.296555 -0.181288 21.823
-0.0443816 -0.35227 21.7503
-0.82282 0.0878247 21.701
-0.641653 -0.118557 21.85
-1.12241 0.255711 21.4791
-1.13931 0.0783149 21.6297
-1.26154 0.0768381 21.2782
1.62187 -0.779783 19.8194
1.18871 -0.274103 19.5207
1.42654 -1.00907 21.6251
2.72506 -0.579395 20.5108
0.242641 -0.569761 21.7732
1.0623 -0.739423 21.797
-0.280221 -0.345092 21.911
0.198891 -0.541086 21.8939
-0.969534 -0.176832 21.8156
-0.574008 -0.503277 22.0321
-1.40572 -0.0152495 21.305
-1.24038 -0.49245 21.7532
-1.52854 -0.481864 21.4868
2.07655 0.108945 19.682
1.03283 0.390762 19.7026
2.15669 -0.271244 21.3912
1.80015 0.647988 20.3914
0.886086 -0.545171 21.9095
1.509 0.148859 21.5251
0.0933105 -0.561973 21.9653
0.686997 -0.240988 21.8826
-0.590945 -0.760356 21.9046
0.0934012 -0.528502 21.8238
-1.20888 -0.87164 21.7544
-0.252876 -0.723474 21.5898
-0.683687 -0.878471 21.9255
0.948192 0.587284 20.1849
1.17481 0.613519 20.9123
0.843258 0.23024 21.6087
0.370201 -0.178148 21.7598
0.0755369 -0.381563 21.6611
-0.195466 -0.634349 21.5375
-1.35249 -0.843565 19.9812
-1.69363 -2.57952 18.6103
-1.277 -1.37581 19.7811
-2.24495 -1.46235 19.014
-0.9531 -0.795925 19.4395
-2.4941 -2.5661 20.6026
-1.16196 -0.964461 21.5188
-0.443843 -1.10706 21.0647
-0.902458 -1.36745 21.8888
-1.52616 -1.95864 22.6681
-0.156058 -0.77463 22.0987
-0.18791 -0.4862 21.7335
-0.0132945 0.302258 16.3161
0.0725845 -0.355244 21.8905
0.18239 -0.716028 21.3041
0.343849 -0.342932 21.6267
0.311204 -0.246937 21.8706
0.633027 0.271307 14.56
0.509517 -0.0466402 21.9955
0.472306 -0.355408 21.3141
1.10231 0.106994 21.8411
0.890718 -0.0288155 21.7537
1.37514 1.3903 16.4847
1.20764 0.491882 21.7984
1.54805 0.0156594 21.2875
1.67283 0.449004 21.6122
1.18217 0.158098 21.2983
2.10704 1.91018 18.0033
1.48795 0.631157 21.3375
1.95788 0.21378 20.9538
1.85226 0.516372 21.1402
-1.9873 -0.395471 19.6974
-4.05538 -1.07649 15.2783
-3.30727 0.580826 18.4379
-1.47683 -0.399969 18.8569
-6.12455 -1.1111 19.9469
-1.89766 -0.733395 21.5862
-3.62799 -0.559635 22.0508
-1.04892 -1.49243 21.974
-0.541533 -0.655241 21.8588
-1.20223 -1.09545 22.1155
-0.0529356 -0.656559 20.5721
0.136337 -0.487474 21.9925
0.138986 -0.49273 20.1993
0.994516 -0.230954 19.2022
0.867977 -0.490135 21.8919
0.386754 -1.7257 4.44814
0.787755 -0.907498 20.213
1.74559 -0.503646 20.6315
1.25939 -0.402853 21.3479
2.60122 -0.294686 11.47
1.69403 -1.08669 20.7428
1.97666 -0.200648 21.0095
-1.49477 0.592753 19.8959
-1.94291 2.26687 18.5601
-1.0326 1.00786 19.9277
-1.19658 0.714703 19.2429
-2.55128 1.56781 20.0143
-1.83094 0.453586 21.0387
-3.66621 2.97245 20.2749
-1.45796 1.22743 20.8208
-2.47663 0.592692 21.7834
-1.1031 -0.0784483 21.8016
-2.87212 0.398416 22.0497
-1.09434 0.583516 21.7953
-0.976019 -0.233136 22.2289
-0.341525 -0.378832 21.8627
0.0809533 -0.0286084 15.6337
-0.470885 -0.0679641 21.8533
-0.323074 -0.709849 21.9127
0.113435 -0.597972 21.7092
-0.132159 -0.396016 13.5547
-0.185344 -0.395971 21.7091
0.22614 -0.973482 21.6637
0.583128 -0.760647 21.4533
0.346599 -1.49497 17.0914
0.139293 -0.649585 21.3241
0.747585 -1.23471 21.1131
1.70964 -2.53194 18.6472
0.0329964 -3.03545 18.8324
-0.00723898 -4.52659 15.4347
0.0039241 -1.45242 18.4892
0.0549351 -6.76 22.7728
0.44278 -1.16557 21.2111
0.0381029 -1.93447 23.0246
0.00123906 -0.234146 13.3126
-2.90257e-06 0.304564 16.6932
0.0100193 -0.268926 20.0546
-0.00853317 0.0842773 8.85795
-0.633092 0.256758 15.1858
0.00104449 0.308014 16.9928
0.108718 0.799055 8.35527
-1.39249 1.44575 16.0221
0.0555038 1.42638 17.6295
0.0706983 0.0628736 2.66476
0.145676 1.61409 11.8952
-2.0033 2.21114 17.757
0.0848437 2.36613 18.905
0.115062 1.95654 7.73497
0.218883 2.58252 14.2635
4.06552 -1.07763 15.2411
-0.0106631 4.05461 11.9376
-0.00637966 -0.757118 16.5892
-0.0689976 -1.84789 2.90033
-0.00893541 -0.337385 -1.52932
-0.0344013 0.780307 -0.226002
-2.48531 -0.0751734 7.21108
-0.0726032 2.21799 -3.42247
0.736142 2.9785 1.54881
1.97051 2.17946 18.6336
0.0731528 1.94877 19.3549
0.0294374 1.60796 17.9665
0.102786 4.8349 18.5637
3.67002 2.83363 20.3381
0.0600461 3.10275 20.3041
0.0565762 7.009 20.8683
2.88282 0.404866 22.0235
-0.00677783 2.33155 22.4231
-0.0067847 0.406018 11.2099
-0.279632 0.108419 13.2745
-0.0468571 0.564033 22.146
-0.0684889 1.15741 -0.558821
0.183954 -0.285265 10.207
-0.0392593 0.266965 21.663
-0.281752 0.414975 -2.83812
-0.0394797 -1.43538 11.2386
-0.0338877 -0.383726 21.2819
-0.0979471 -0.535092 -0.503579
1.34843 -0.841682 19.9905
1.26885 -1.33323 19.8265
2.2565 -1.47888 18.9954
0.956081 -0.798611 19.4422
2.47511 -2.4836 20.6037
1.16266 -0.949825 21.5089
0.927603 -1.33399 21.8373
1.52437 -1.96596 22.6656
0.177832 -0.779869 22.0859
0.190702 -0.47933 21.7336
-0.0524348 -0.366896 21.8843
-0.175608 -0.71755 21.3135
-0.317004 -0.362898 21.6872
-0.305217 -0.248405 21.8541
-0.490991 -0.0659851 22.0358
-0.474047 -0.367093 21.3851
-1.09887 0.0676228 21.9111
-0.912033 -0.0256321 21.7598
-1.22917 0.501513 21.7878
-1.65779 0.103787 20.8396
-1.79927 0.594093 21.4527
-1.28069 0.176911 21.3659
-1.52263 0.762163 21.4847
-2.21133 0.481426 19.882
-2.02238 0.738558 20.8356
2.012 -0.400567 19.6753
3.32054 0.593845 18.413
1.48559 -0.403347 18.8429
6.21884 -1.1092 19.9191
1.91311 -0.746739 21.5998
3.64748 -0.563237 22.0618
1.04835 -1.49776 21.9551
0.541266 -0.655786 21.859
1.20073 -1.09451 22.1122
0.0570503 -0.67007 20.6682
-0.139039 -0.488956 21.993
-0.138092 -0.492574 20.182
-1.00058 -0.248525 19.2441
-0.907107 -0.509854 21.9097
-0.803755 -0.807671 18.3124
-1.88074 -0.393863 18.8155
-1.44847 -0.419239 21.5255
-1.58385 -0.790483 19.2182
-2.40684 -0.195398 19.37
1.46678 0.570652 19.9161
1.03169 0.948445 19.9721
1.19599 0.692165 19.2853
2.52325 1.47206 20.0569
1.80486 0.430683 21.042
1.43331 1.13767 20.8378
2.43019 0.577229 21.7722
1.10874 -0.0784938 21.8062
1.09919 0.592166 21.7987
1.00362 -0.232066 22.2574
0.35909 -0.386172 21.8765
0.488353 -0.0560691 21.88
0.363624 -0.704557 21.6355
-0.0886698 -0.627995 21.7539
0.232987 -0.374228 21.7603
-0.169456 -1.02866 21.145
-0.556912 -0.838882 21.5433
-0.120907 -0.687625 21.3017
-0.820729 -1.56839 20.6774
-1.68895 -1.51595 19.447
-1.10672 -1.64302 22.2436
0.208595 -0.48502 21.8
0.557147 -0.212575 21.7791
1.43282 0.289865 21.7667
1.70291 0.477439 21.5061
-3.12316 -0.677635 18.4363
-2.71147 -1.62875 22.7054
-0.37858 -1.04248 20.842
0.241879 -0.276059 19.9032
1.41924 -0.499666 20.0325
2.05443 -0.370788 20.8854
-1.91411 1.25456 19.3701
-2.8262 1.14795 20.966
-1.72667 0.0690698 22.2328
-0.520012 -0.49556 22.1328
-0.102321 -0.802423 21.7028
0.615666 -1.06851 21.2935
0.0240042 -3.93835 17.7392
0.012118 -1.18586 17.3154
-0.00699341 -0.0166188 10.2977
0.0140669 0.228529 8.51506
0.122153 1.01124 9.56589
0.125428 2.41277 13.8274
-0.0133445 -1.47391 11.019
0.0167214 -1.09483 0.805433
0.37757 1.46537 -0.45939
0.0599934 3.43134 17.7107
0.0811926 5.685 18.799
-0.0045596 3.13857 17.967
-0.00746944 -0.0590005 4.71405
-0.0389296 0.212693 -1.91303
-0.0529904 0.685796 -2.52354
1.67971 -1.50107 19.4632
1.12441 -1.61453 22.205
-0.191112 -0.487322 21.7818
-0.546511 -0.233304 21.86
-1.49212 0.338031 21.7154
-1.82289 0.653741 21.3364
3.15466 -0.685139 18.4059
2.7163 -1.6436 22.6941
0.382552 -1.04465 20.8708
-0.243806 -0.293442 19.9745
-1.47283 -0.404679 18.9656
-2.22126 -0.113724 19.0745
1.88464 1.18743 19.4355
2.7554 1.08588 20.9794
1.73674 0.0726265 22.239
0.542301 -0.517748 22.1132
0.167615 -0.79821 21.3412
-0.669293 -1.22925 21.1743
-0.483093 -0.195664 0.352356
-0.0282903 -0.137243 0.585353
-0.0186096 -0.00677097 0.263233
0.110276 -0.058909 0.375471
0.00841649 0.0866072 0.426742
0.00572311 0.0209577 0.999064
-0.698347 0.231277 0.747485
-0.179041 0.813577 0.927559
-0.144147 -0.00942547 0.335079
-0.00688405 -0.0365609 0.0145999
-0.00731049 -0.00293714 -0.000549147
0 0 0
0.0195011 -0.139678 0.609939
0.476761 -0.194746 0.348464
0.0189817 -0.00678667 0.263059
-0.00146549 0.017266 0.0669588
-0.108609 -0.0602555 0.371212
-0.0100477 0.0158387 0.997697
0.178308 0.809859 0.923567
0.710393 0.240883 0.774345
0.142242 -0.00915726 0.33042
0.0078426 -0.00339512 -0.000212942
0.00666871 -0.0383853 0.0162507
0 0 0
-0.0273186 -0.0108056 0.447021
0.0145295 0.0700326 1.11004
0.000132766 0.000796149 0.00823627
0 0 0
0.0179727 -0.0870053 0.277298
-0.00497825 0.0174167 0.641833
-0.000641141 0.00356821 0.0174613
0.000293719 2.12361e-05 0.0035118
-0.242933 -0.158274 1.00511
0.000773803 0.00597108 0.0354056
0.0295198 0.0739957 0.216034
-0.112417 0.112499 0.279429
0.0122025 0.0277119 0.113744
0.000125399 0.00106011 0.00396704
0.0166193 0.0441591 0.108814
0.0852903 0.000901305 0.513002
0.0282425 -0.0105429 0.447091
0 0 0
-0.0135937 0.0705401 1.10816
-0.000117939 0.000841608 0.00840431
-0.0181132 -0.0872605 0.27783
0 0 0
0.00545793 0.0178665 0.644664
0.000644866 0.00358485 0.0175907
0.246282 -0.16051 1.01597
0.113624 0.113579 0.2823
-0.000772689 0.00598137 0.035472
-0.0298831 0.0744025 0.218256
-0.0120427 0.0274402 0.111912
-0.0853032 0.00104415 0.514186
-0.000102837 0.000916841 0.00344547
-0.0164735 0.0438124 0.108699
0 0 0
0 0 0
2.95133e-08 7.38228e-07 -1.67117e-05
-0.000132342 -0.0841257 0.0114177
-0.000421521 0.00105932 0.0359383
0.00139132 -0.000404594 0.0269938
0.000385622 0.00452758 0.0508814
-0.00331829 -0.028827 0.0090786
0 0 0
0.000390806 -0.0652891 -0.00466387
-0.00441731 0.00734152 0.110396
0.00144573 0.00039587 0.0209326
-0.000575073 0.93538 0.597681
2.76561e-05 0.115444 0.361996
-0.0260501 -0.080335 0.294759
-3.40399e-17 5.03586e-18 1.57195e-17
0 0 0
0.000371609 0.0112382 -0.0108658
0.0049728 0.0224002 0.109798
-0.000287868 -0.00129424 0.00869321
-2.48692e-16 -8.27771e-17 -1.02414e-16
0 0 0
-0.00141612 -0.000431791 0.0284341
0.000420818 0.00106402 0.0359182
0.00370624 -0.0267472 0.00861905
-0.000387265 0.0043875 0.0509429
-9.31308e-05 6.01084e-05 0.00166757
0.00442669 0.00715409 0.110883
0 0 0
0.0254771 -0.0790879 0.289845
0.000287543 -0.00130434 0.00874081
-0.00491632 0.0221684 0.109699
-0.00503084 0.0194916 0.125618
8.19295e-18 1.5627e-19 1.24333e-16
0 0 0
0.000142217 0.00422962 0.0259533
-2.17517e-06 3.63808e-06 0.000893683
0 0 0
0.000111531 0.0052129 0.0265389
7.22447e-05 0.0099878 0.0508803
0 0 0
0 0 0
0.00188646 0.00969452 0.033251
-0.063318 0.0377794 0.472029
1.56396e-06 0.00766355 0.0128942
0.000444492 0.0319603 0.0896591
3.07544e-07 0.000210361 0.00429914
2.50863e-06 -0.00117473 0.0152388
0 0 0
0.00508555 0.0196703 0.126396
0 0 0
-0.000136938 0.00410908 0.0251565
-0.000113703 0.00529467 0.0269564
-7.41999e-05 0.0099656 0.0510696
0.0627293 0.0365435 0.464601
-0.00185184 0.00952508 0.0327605